/*--------------------------------*- C++ -*----------------------------------*\
| =========                 |                                                 |
| \\      /  F ield         | OpenFOAM: The Open Source CFD Toolbox           |
|  \\    /   O peration     | Version:  v1912                                 |
|   \\  /    A nd           | Website:  www.openfoam.com                      |
|    \\/     M anipulation  |                                                 |
\*---------------------------------------------------------------------------*/
FoamFile
{
    version     2.0;
    format      ascii;
    class       surfaceScalarField;
    location    "34";
    object      phi;
}
// * * * * * * * * * * * * * * * * * * * * * * * * * * * * * * * * * * * * * //

dimensions      [0 3 -1 0 0 0 0];
oriented        oriented;


internalField   nonuniform List<scalar> 
18940
(
0.000355719
-0.234407
0.234052
0.00136991
-0.2164
0.215386
0.00286438
-0.204866
0.203371
0.00466953
-0.197068
0.195263
0.00665535
-0.19129
0.189304
0.00872075
-0.18647
0.184404
0.0107924
-0.182022
0.179951
0.0128212
-0.177654
0.175625
0.0147771
-0.17324
0.171284
0.016645
-0.168753
0.166885
0.0184201
-0.164214
0.162439
0.0201048
-0.159665
0.15798
0.0217063
-0.155154
0.153552
0.0232342
-0.150723
0.149195
0.0246996
-0.146409
0.144944
0.0261143
-0.142237
0.140822
0.0274897
-0.138217
0.136842
0.0288361
-0.134348
0.133002
0.0301621
-0.13061
0.129284
-0.126964
0.125653
0.0314728
0.000379092
-0.234787
0.00141314
-0.217434
0.00291833
-0.206371
0.00472789
-0.198877
0.00670836
-0.19327
0.00875872
-0.18852
0.0108069
-0.18407
0.0128052
-0.179652
0.0147258
-0.175161
0.0165551
-0.170582
0.0182899
-0.165949
0.019934
-0.161309
0.0214954
-0.156715
0.0229846
-0.152212
0.0244132
-0.147838
0.025793
-0.143616
0.0271357
-0.13956
0.0284522
-0.135665
0.0297513
-0.13191
-0.128251
0.031039
0.000400476
-0.235187
0.00145073
-0.218484
0.00296466
-0.207885
0.00477491
-0.200688
0.00674642
-0.195242
0.0087781
-0.190552
0.0107991
-0.186091
0.0127637
-0.181617
0.0146457
-0.177043
0.0164335
-0.17237
0.0181256
-0.167641
0.019727
-0.162911
0.0212467
-0.158235
0.0226956
-0.153661
0.0240858
-0.149228
0.0254294
-0.14496
0.0267382
-0.140869
0.0280235
-0.13695
0.0292945
-0.13318
-0.129515
0.0305579
0.000414315
-0.235601
0.00147961
-0.21955
0.00300147
-0.209407
0.00480985
-0.202496
0.00676906
-0.197201
0.00877853
-0.192561
0.0107689
-0.188082
0.0126964
-0.183544
0.014537
-0.178883
0.0162808
-0.174114
0.017928
-0.169288
0.0194848
-0.164468
0.020961
-0.159711
0.0223683
-0.155069
0.0237189
-0.150579
0.0250251
-0.146266
0.026299
-0.142143
0.0275519
-0.138203
0.0287938
-0.134422
-0.130753
0.0300322
0.000425557
-0.236027
0.00150312
-0.220627
0.00303009
-0.210933
0.00483338
-0.204299
0.00677676
-0.199144
0.00876047
-0.194545
0.0107168
-0.190038
0.0126042
-0.185431
0.0144004
-0.180679
0.0160978
-0.175812
0.017698
-0.170888
0.0192084
-0.165978
0.0206398
-0.161142
0.0220041
-0.156433
0.023314
-0.151888
0.0245818
-0.147534
0.0258197
-0.14338
0.0270394
-0.139423
0.0282513
-0.135634
-0.131966
0.029464
0.00043463
-0.236461
0.00152168
-0.221714
0.00305078
-0.212463
0.00484571
-0.206094
0.00676979
-0.201068
0.0087243
-0.196499
0.0106434
-0.191957
0.0124875
-0.187275
0.0142369
-0.182429
0.0158856
-0.17746
0.0174367
-0.17244
0.0188991
-0.16744
0.0202841
-0.162527
0.0216043
-0.157753
0.0228723
-0.153156
0.0241006
-0.148762
0.0253016
-0.144581
0.0264871
-0.140608
0.0276682
-0.136815
-0.133152
0.0288544
0.0004421
-0.236904
0.00153596
-0.222808
0.0030641
-0.213991
0.00484734
-0.207877
0.00674868
-0.20297
0.00867059
-0.198421
0.0105492
-0.193836
0.0123473
-0.189074
0.0140472
-0.184129
0.0156449
-0.179058
0.0171452
-0.17394
0.0185579
-0.168853
0.0198952
-0.163865
0.0211699
-0.159028
0.0223949
-0.154381
0.0235827
-0.14995
0.0247456
-0.145744
0.0258958
-0.141758
0.0270451
-0.137965
-0.134311
0.0282039
0.000448121
-0.237352
0.00154629
-0.223906
0.00307045
-0.215515
0.00483873
-0.209646
0.00671397
-0.204845
0.00860002
-0.200307
0.0104352
-0.195671
0.0121844
-0.190823
0.0138324
-0.185777
0.0153771
-0.180603
0.0168246
-0.175388
0.018186
-0.170214
0.0194741
-0.165153
0.020702
-0.160256
0.0218828
-0.155562
0.0230288
-0.151096
0.0241524
-0.146868
0.025266
-0.142872
0.0263821
-0.139081
-0.135442
0.0275125
0.0004528
-0.237805
0.00155294
-0.225006
0.00307029
-0.217032
0.00482044
-0.211396
0.00666634
-0.206691
0.00851341
-0.202155
0.0103021
-0.19746
0.0119999
-0.192521
0.0135937
-0.18737
0.0150831
-0.182092
0.0164761
-0.176781
0.0177845
-0.171523
0.0190218
-0.16639
0.0202015
-0.161435
0.0213365
-0.156697
0.0224393
-0.152199
0.0235219
-0.147951
0.0245973
-0.143947
0.0256787
-0.140162
-0.136542
0.0267792
0.000456211
-0.238261
0.00155622
-0.226106
0.00306407
-0.21854
0.00479311
-0.213125
0.0066066
-0.208504
0.0084117
-0.20396
0.0101512
-0.199199
0.0117951
-0.194164
0.0133323
-0.188908
0.0147645
-0.183524
0.016101
-0.178117
0.0173546
-0.172776
0.0185394
-0.167575
0.0196692
-0.162565
0.0207568
-0.157785
0.0218144
-0.153256
0.0228542
-0.14899
0.0238892
-0.144982
0.0249336
-0.141206
-0.137611
0.0260022
0.000458458
-0.238719
0.00155645
-0.227204
0.00305237
-0.220036
0.00475749
-0.21483
0.00653567
-0.210282
0.00829603
-0.20572
0.0099838
-0.200887
0.0115713
-0.195752
0.0130498
-0.190386
0.0144228
-0.184897
0.0157009
-0.179395
0.0168978
-0.173973
0.0180282
-0.168705
0.0191061
-0.163643
0.0201441
-0.158823
0.0211544
-0.154267
0.0221487
-0.149985
0.0231405
-0.145974
0.024145
-0.142211
-0.138644
0.0251787
0.000459698
-0.239179
0.00155409
-0.228299
0.00303588
-0.221518
0.00471447
-0.216509
0.00645468
-0.212023
0.0081677
-0.207433
0.00980131
-0.202521
0.0113303
-0.197281
0.0127481
-0.191804
0.0140599
-0.186209
0.0152776
-0.180613
0.0164159
-0.175112
0.0174897
-0.169779
0.0185134
-0.164667
0.0194994
-0.159809
0.0204594
-0.155227
0.0214052
-0.150931
0.0223501
-0.146919
0.0233106
-0.143171
-0.13964
0.0243058
0.000460207
-0.239639
0.00154975
-0.229388
0.00301543
-0.222983
0.00466513
-0.218158
0.0063649
-0.213722
0.00802825
-0.209096
0.00960553
-0.204098
0.011074
-0.198749
0.0124291
-0.193159
0.0136779
-0.187458
0.0148334
-0.181768
0.0159108
-0.176189
0.0169258
-0.170794
0.0178925
-0.165633
0.0188235
-0.16074
0.0197299
-0.156133
0.0206231
-0.151824
0.0215167
-0.147813
0.0224283
-0.144083
-0.140591
0.0233794
0.000460465
-0.2401
0.00154429
-0.230472
0.00299208
-0.224431
0.00461069
-0.219777
0.0062678
-0.215379
0.00787941
-0.210708
0.00939849
-0.205617
0.0108047
-0.200156
0.0120956
-0.19445
0.0132797
-0.188642
0.014371
-0.182859
0.0153855
-0.177204
0.016339
-0.171747
0.0172457
-0.16654
0.0181178
-0.161612
0.0189663
-0.156982
0.019802
-0.15266
0.0206383
-0.148649
0.0214939
-0.144938
-0.14149
0.0223933
0.000461272
-0.240561
0.00153886
-0.23155
0.00296705
-0.225859
0.00455251
-0.221362
0.00616499
-0.216992
0.00772309
-0.212266
0.00918242
-0.207076
0.0105251
-0.201498
0.0117505
-0.195675
0.0128686
-0.18976
0.0138942
-0.183885
0.0148438
-0.178153
0.0157332
-0.172637
0.0165764
-0.167383
0.0173853
-0.162421
0.0181703
-0.157766
0.0189415
-0.153431
0.019712
-0.14942
0.0205011
-0.145728
-0.142328
0.0213392
0.000463775
-0.241025
0.00153477
-0.232621
0.00294153
-0.227266
0.00449196
-0.222913
0.00605813
-0.218558
0.00756133
-0.213769
0.00895981
-0.208475
0.010238
-0.202776
0.0113971
-0.196835
0.0124484
-0.190811
0.0134073
-0.184844
0.0142905
-0.179036
0.0151136
-0.17346
0.0158903
-0.16816
0.0166317
-0.163162
0.0173472
-0.158482
0.0180458
-0.154129
0.0187396
-0.150113
0.0194493
-0.146437
-0.143092
0.0202136
0.000469362
-0.241494
0.00153333
-0.233685
0.00291684
-0.22865
0.00443058
-0.224426
0.00594909
-0.220077
0.00739633
-0.215217
0.00873325
-0.209812
0.00994657
-0.20399
0.0110393
-0.197927
0.0120237
-0.191796
0.0129155
-0.185736
0.0137315
-0.179852
0.0144869
-0.174215
0.0151946
-0.168868
0.015865
-0.163833
0.0165062
-0.159123
0.0171258
-0.154749
0.0177338
-0.150721
0.0183508
-0.147054
-0.143759
0.019017
0.000480365
-0.241974
0.00153717
-0.234741
0.00289544
-0.230008
0.00437047
-0.225902
0.0058398
-0.221546
0.00723018
-0.216607
0.00850529
-0.211087
0.00965408
-0.205139
0.0106811
-0.198954
0.0115994
-0.192714
0.0124249
-0.186561
0.0131738
-0.180601
0.0138604
-0.174902
0.0144965
-0.169504
0.0150912
-0.164427
0.0156518
-0.159684
0.0161848
-0.155282
0.0166966
-0.151233
0.0172001
-0.147558
-0.144278
0.0177196
0.000504362
-0.242479
0.0015535
-0.235791
0.0028814
-0.231336
0.00431355
-0.227334
0.0057315
-0.222964
0.00706429
-0.21794
0.00827793
-0.212301
0.00936341
-0.206224
0.0103267
-0.199918
0.0111814
-0.193569
0.0119435
-0.187323
0.0126279
-0.181286
0.0132471
-0.175521
0.0138102
-0.170067
0.014323
-0.16494
0.0147891
-0.16015
0.0152104
-0.155703
0.0155857
-0.151608
0.0159195
-0.147892
-0.144632
0.0162739
0.00056147
-0.24304
0.00159064
-0.23682
0.00287444
-0.23262
0.00425861
-0.228718
0.00562369
-0.224329
0.00689907
-0.219215
0.00805246
-0.213454
0.00907685
-0.207248
0.00997973
-0.200821
0.0107755
-0.194364
0.01148
-0.188028
0.0121077
-0.181913
0.0126691
-0.176083
0.0131698
-0.170567
0.0136095
-0.16538
0.013981
-0.160521
0.0142673
-0.15599
0.0144424
-0.151784
0.014501
-0.14795
-0.144803
0.0146712
0.250688
0.000413605
-0.251102
0.250301
0.000387209
0.249921
0.000379904
0.249541
0.000380003
0.249158
0.000382918
0.248771
0.000387299
0.248379
0.00039242
0.247981
0.000397695
0.247578
0.000402729
0.247171
0.000407319
0.246759
0.000411366
0.246345
0.000414844
0.245927
0.000417736
0.245507
0.000420018
0.245085
0.000421564
0.244663
0.000422169
0.244242
0.000420784
0.243825
0.000416861
0.243424
0.0004012
0.000384057
0.252591
0.00101964
-0.253197
0.25195
0.00102867
0.25128
0.00104961
0.250583
0.00107645
0.249862
0.00110467
0.249116
0.0011329
0.248348
0.00116068
0.247558
0.0011875
0.246748
0.00121295
0.245918
0.00123676
0.245071
0.00125883
0.244207
0.00127912
0.243327
0.00129764
0.242432
0.00131437
0.241525
0.00132917
0.240605
0.00134184
0.239675
0.00135128
0.238734
0.0013572
0.237782
0.00135334
0.00134634
0.251322
0.0015892
-0.251892
0.250688
0.00166277
0.250001
0.00173656
0.249266
0.00181147
0.248486
0.00188513
0.247662
0.00195635
0.246798
0.00202477
0.245895
0.00209018
0.244956
0.00215233
0.243982
0.00221105
0.242974
0.0022663
0.241935
0.00231813
0.240866
0.00236661
0.239769
0.00241185
0.238644
0.00245386
0.237493
0.00249268
0.236317
0.0025278
0.235115
0.00255944
0.233883
0.00258522
0.00260933
0.247183
0.0020309
-0.247625
0.246672
0.00217389
0.246097
0.00231228
0.245461
0.00244749
0.244767
0.00257888
0.244018
0.00270564
0.243215
0.00282744
0.242361
0.00294411
0.241458
0.00305552
0.240507
0.00316158
0.239511
0.00326231
0.238472
0.00335784
0.23739
0.00344838
0.236267
0.00353419
0.235106
0.00361555
0.233906
0.00369283
0.232667
0.00376611
0.231391
0.00383601
0.230074
0.00390183
0.00396555
0.240915
0.00230902
-0.241193
0.240566
0.00252306
0.240148
0.00273035
0.239664
0.00293172
0.239115
0.00312713
0.238505
0.00331612
0.237834
0.00349835
0.237104
0.00367363
0.236318
0.00384184
0.235477
0.00400294
0.234582
0.004157
0.233636
0.00430421
0.232639
0.0044449
0.231594
0.00457953
0.230501
0.00470863
0.229361
0.0048329
0.228174
0.00495292
0.22694
0.00506966
0.225659
0.00518327
0.00529541
0.233306
0.00243213
-0.233429
0.233112
0.00271653
0.23285
0.00299302
0.23252
0.00326189
0.232124
0.00352317
0.231663
0.00377656
0.23114
0.00402172
0.230555
0.00425843
0.22991
0.00448655
0.229207
0.00470603
0.228447
0.00491698
0.227632
0.00511965
0.226762
0.00531446
0.22584
0.00550204
0.224865
0.00568319
0.223839
0.00585894
0.222762
0.00603034
0.221632
0.00619876
0.220451
0.00636505
0.00653107
0.225055
0.00243059
-0.225054
0.224989
0.00278281
0.224856
0.00312636
0.224657
0.00346117
0.224393
0.00378717
0.224065
0.00410408
0.223675
0.00441156
0.223224
0.00470933
0.222714
0.00499721
0.222144
0.00527514
0.221518
0.00554323
0.220836
0.00580175
0.220099
0.00605122
0.219309
0.00629243
0.218466
0.00652643
0.21757
0.0067546
0.216622
0.00697847
0.215621
0.00719994
0.214565
0.00742054
0.00764243
0.216689
0.00234038
-0.216599
0.216715
0.00275689
0.216677
0.00316413
0.216576
0.00356181
0.216414
0.00394971
0.21619
0.00432752
0.215907
0.00469485
0.215565
0.00505138
0.215165
0.00539686
0.214709
0.00573119
0.214198
0.00605445
0.213633
0.00636693
0.213015
0.00666921
0.212345
0.0069622
0.211624
0.0072472
0.210853
0.00752597
0.210031
0.0078006
0.209157
0.0080736
0.20823
0.00834731
0.00862442
0.208551
0.00219465
-0.208406
0.208637
0.00267168
0.208662
0.00313888
0.208628
0.0035958
0.208535
0.00404212
0.208386
0.00447745
0.208179
0.00490134
0.207917
0.00531339
0.207601
0.00571329
0.207231
0.00610087
0.206809
0.00647613
0.206337
0.00683935
0.205815
0.00719111
0.205245
0.00753244
0.204627
0.00786487
0.203962
0.00819053
0.203251
0.00851215
0.202491
0.00883299
0.201682
0.00915648
0.00948614
0.200843
0.00202026
-0.200668
0.20096
0.00255425
0.201021
0.00307783
0.201027
0.00359047
0.200977
0.00409172
0.200873
0.0045811
0.200717
0.0050581
0.200508
0.00552222
0.200248
0.00597305
0.199938
0.00641033
0.199581
0.00683397
0.199176
0.00724414
0.198726
0.00764142
0.198231
0.00802683
0.197694
0.00840214
0.197115
0.00876978
0.196494
0.00913325
0.19583
0.0094967
0.195121
0.00986504
0.0102431
0.193656
0.00183699
-0.193473
0.193785
0.00242484
0.193861
0.00300171
0.193885
0.00356693
0.193857
0.00411997
0.193777
0.00466026
0.193648
0.00518717
0.193471
0.00570011
0.193245
0.00619857
0.192973
0.00668213
0.192657
0.00715058
0.192297
0.00760393
0.191896
0.00804264
0.191455
0.00846765
0.190976
0.00888087
0.190461
0.00928493
0.18991
0.00968426
0.189323
0.0100839
0.188697
0.0104909
0.0109119
0.187013
0.0016582
-0.186835
0.187141
0.00229742
0.187217
0.00292506
0.187244
0.0035403
0.187222
0.0041425
0.187151
0.00473101
0.187033
0.0053051
0.186869
0.00586408
0.18666
0.00640728
0.186408
0.00693412
0.186115
0.00744418
0.185781
0.00793726
0.18541
0.0084136
0.185004
0.00887389
0.184565
0.00932006
0.184095
0.00975471
0.183596
0.0101834
0.183068
0.0106117
0.182509
0.0110502
0.0115074
0.180896
0.00149222
-0.18073
0.181013
0.00218097
0.18108
0.0028574
0.1811
0.00352059
0.181073
0.00416985
0.180999
0.00480443
0.180881
0.00542351
0.180719
0.00602624
0.180514
0.00661181
0.180269
0.00717945
0.179984
0.00772848
0.179663
0.00825837
0.179308
0.00876904
0.178921
0.00926071
0.178506
0.00973521
0.178066
0.0101946
0.177604
0.0106457
0.177121
0.011094
0.176616
0.0115559
0.0120406
0.175262
0.00134389
-0.175113
0.175362
0.00208066
0.175415
0.00280431
0.175422
0.00351389
0.175383
0.0042086
0.1753
0.00488757
0.175174
0.00554989
0.175005
0.00619459
0.174796
0.00682068
0.174549
0.00742716
0.174264
0.00801307
0.173945
0.00857746
0.173594
0.00911981
0.173215
0.00963958
0.172812
0.0101383
0.17239
0.0106166
0.171953
0.0110833
0.171505
0.0115413
0.171044
0.0120171
0.0125172
0.170059
0.00121549
-0.16993
0.17014
0.00199918
0.170176
0.00276881
0.170166
0.0035235
0.170112
0.00426233
0.170015
0.00498436
0.169877
0.00568855
0.169698
0.00637382
0.169479
0.007039
0.169224
0.00768286
0.168933
0.00830409
0.168609
0.00890128
0.168255
0.00947332
0.167876
0.0100186
0.167476
0.0105381
0.167063
0.0110301
0.166641
0.0115054
0.166221
0.0119607
0.165799
0.0124397
0.0129361
0.165232
0.00110781
-0.165124
0.165294
0.00193734
0.165311
0.00275191
0.165284
0.00355061
0.165214
0.00433245
0.165101
0.0050964
0.164949
0.00584133
0.164756
0.00656603
0.164526
0.00726917
0.16426
0.00794926
0.163959
0.00860467
0.163627
0.00923347
0.163267
0.00983386
0.162882
0.010403
0.16248
0.0109408
0.162068
0.0114417
0.161654
0.0119192
0.161258
0.0123569
0.16087
0.0128272
0.0132852
0.16073
0.00102035
-0.160643
0.160773
0.00189468
0.160771
0.00275318
0.160727
0.00359485
0.160641
0.00441865
0.160514
0.00522344
0.160347
0.00600804
0.160142
0.00677112
0.1599
0.00751118
0.159623
0.00822653
0.159312
0.00891522
0.158971
0.00957481
0.158602
0.0102028
0.15821
0.0107948
0.157802
0.0113494
0.157387
0.0118558
0.156977
0.0123301
0.156601
0.0127328
0.156243
0.0131846
0.0135389
0.156506
0.000951291
-0.156437
0.156531
0.00186966
0.156513
0.00277094
0.156453
0.00365442
0.156353
0.00451897
0.156213
0.0053634
0.156035
0.00618644
0.155819
0.0069867
0.155568
0.00776256
0.155282
0.00851211
0.154964
0.00923316
0.154616
0.00992284
0.154241
0.0105779
0.153843
0.0111927
0.153428
0.0117641
0.15301
0.0122744
0.152599
0.012741
0.152244
0.0130876
0.151911
0.0135176
0.0136662
0.152516
0.000898699
-0.152464
0.152526
0.00185943
0.152495
0.00280198
0.152424
0.00372574
0.152314
0.00462943
0.152165
0.00551183
0.15198
0.00637167
0.151759
0.00720749
0.151504
0.00801755
0.151216
0.00879984
0.150898
0.00955196
0.15055
0.0102707
0.150175
0.0109525
0.149778
0.0115902
0.149362
0.0121797
0.148941
0.0126957
0.148526
0.0131557
0.148192
0.0134216
0.1479
0.0138098
0.0136159
0.148723
-0.148685
0.000860991
0.148722
0.00186008
0.148682
0.00284192
0.148604
0.00380375
0.148489
0.00474418
0.148339
0.00566214
0.148154
0.00655634
0.147936
0.00742526
0.147687
0.00826712
0.147407
0.00907983
0.147098
0.00986092
0.146762
0.010607
0.1464
0.0113144
0.146015
0.011975
0.14561
0.0125847
0.145194
0.0131119
0.144772
0.0135778
0.144422
0.0137716
0.144165
0.0140669
0.0129778
0.254308
7.40161e-05
-0.254382
0.254272
3.62347e-05
0.25424
3.23026e-05
0.254199
4.11422e-05
0.254143
5.54843e-05
0.25407
7.32487e-05
0.253977
9.31333e-05
0.253863
0.000114015
0.253728
0.00013508
0.253572
0.000155825
0.253396
0.000175809
0.253201
0.000194747
0.252988
0.00021311
0.252756
0.000231933
0.252507
0.000249185
0.252243
0.000264332
0.251966
0.000276954
0.251679
0.000286968
0.25139
0.00028852
0.00028849
0.256101
-0.00024044
-0.255786
0.256354
-0.00021683
0.256562
-0.000176217
0.256726
-0.00012272
0.256844
-6.28563e-05
0.256917
7.70436e-07
0.256943
6.70178e-05
0.256922
0.000134794
0.256854
0.000203182
0.256739
0.000271257
0.256577
0.000337769
0.25637
0.000401496
0.256122
0.000461231
0.255826
0.000527978
0.255485
0.000589625
0.255103
0.000646607
0.254681
0.000698874
0.254222
0.000746376
0.253726
0.000784455
0.000817324
0.2515
-0.000894742
-0.250846
0.252082
-0.000798407
0.252598
-0.000692229
0.253051
-0.000576363
0.253443
-0.000454321
0.253772
-0.000328346
0.254039
-0.000199583
0.254243
-6.94535e-05
0.254384
6.20584e-05
0.254461
0.000194446
0.254475
0.000323809
0.254426
0.00044976
0.254313
0.000574585
0.254142
0.000699071
0.253912
0.000819536
0.253624
0.000935009
0.253278
0.00104499
0.252875
0.00114938
0.252413
0.00124625
0.00133839
0.243167
-0.00182673
-0.242235
0.244027
-0.00165791
0.244817
-0.00148183
0.245538
-0.00129775
0.246191
-0.00110733
0.246775
-0.000912383
0.24729
-0.000714252
0.247734
-0.000514195
0.248109
-0.000312901
0.248411
-0.000107644
0.248642
9.3571e-05
0.248804
0.00028749
0.248895
0.000483377
0.248918
0.000676247
0.248872
0.000865065
0.248759
0.00104893
0.248576
0.00122706
0.248327
0.0013991
0.248009
0.00156398
0.00172227
0.233082
-0.00295669
-0.231952
0.234144
-0.00271993
0.235138
-0.00247568
0.236064
-0.00222348
0.236921
-0.00196427
0.237708
-0.00169952
0.238424
-0.00143066
0.239069
-0.00115891
0.239641
-0.000885217
0.240144
-0.000610371
0.240575
-0.00033756
0.240931
-6.82603e-05
0.241214
0.000199639
0.241426
0.000464213
0.241566
0.000725086
0.241635
0.000980822
0.241631
0.00123068
0.241556
0.00147406
0.24141
0.00171014
0.00193885
0.222527
-0.0042126
-0.221271
0.22372
-0.00391278
0.224848
-0.0036039
0.22591
-0.00328609
0.226906
-0.00296016
0.227834
-0.00262754
0.228693
-0.00228979
0.229483
-0.00194837
0.230202
-0.00160472
0.230852
-0.00126019
0.231431
-0.000916328
0.231937
-0.000574431
0.232372
-0.000235359
0.232737
9.93303e-05
0.233031
0.000431157
0.233253
0.00075901
0.233403
0.00108018
0.233483
0.00139461
0.233491
0.00170165
0.00200108
0.212282
-0.00553716
-0.210958
0.213548
-0.00517846
0.214753
-0.00480858
0.215895
-0.00442817
0.216973
-0.00403826
0.217986
-0.00364046
0.218932
-0.00323657
0.219812
-0.00282833
0.220625
-0.00241738
0.22137
-0.00200517
0.222047
-0.00159311
0.222655
-0.00118261
0.223194
-0.000774467
0.223663
-0.000369409
0.224069
2.48107e-05
0.224403
0.000424696
0.224669
0.000814893
0.224866
0.0011978
0.224994
0.00157333
0.00194109
0.202757
-0.00688878
-0.201406
0.204053
-0.00647452
0.205292
-0.00604669
0.20647
-0.0056063
0.207586
-0.00515484
0.20864
-0.0046943
0.20963
-0.00422681
0.210556
-0.00375438
0.211418
-0.00327885
0.212215
-0.00280182
0.212946
-0.00232478
0.213613
-0.00184909
0.214214
-0.00137582
0.214751
-0.000905944
0.215216
-0.000440825
0.215627
1.34676e-05
0.215967
0.000475264
0.216243
0.000922337
0.216453
0.00136287
0.00179553
0.194111
-0.0082398
-0.19276
0.195409
-0.00777251
0.196651
-0.00728896
0.197835
-0.00679048
0.198959
-0.0062792
0.200023
-0.00575773
0.201025
-0.00522862
0.201964
-0.00469417
0.202842
-0.00415645
0.203657
-0.00361724
0.204411
-0.00307807
0.205102
-0.00254027
0.205731
-0.00200503
0.206299
-0.00147328
0.206804
-0.00094641
0.207243
-0.000425735
0.207628
9.02367e-05
0.207949
0.000602054
0.208208
0.00110375
0.00159759
0.18635
-0.00957352
-0.185016
0.187632
-0.00905517
0.188861
-0.00851739
0.190032
-0.00796186
0.191145
-0.00739173
0.192197
-0.00681042
0.19319
-0.00622099
0.194122
-0.00562612
0.194993
-0.0050281
0.195805
-0.00442882
0.196557
-0.00382987
0.197249
-0.00323254
0.197882
-0.002638
0.198456
-0.0020472
0.19897
-0.00146114
0.199425
-0.000880751
0.199822
-0.000306754
0.200163
0.000261267
0.200445
0.00082233
0.00137393
0.179403
-0.0108813
-0.178095
0.180661
-0.0103136
0.181866
-0.00972238
0.183015
-0.00911002
0.184104
-0.00848124
0.185134
-0.00784051
0.186105
-0.00719148
0.187016
-0.00653723
0.187868
-0.00588027
0.188662
-0.00522258
0.189398
-0.00456569
0.190076
-0.00391088
0.190697
-0.00325922
0.191262
-0.00261164
0.191769
-0.00196897
0.192221
-0.00133211
0.192616
-0.000701562
0.192957
-8.0267e-05
0.193242
0.00053711
0.00114376
0.173167
-0.0121601
-0.171889
0.174399
-0.0115448
0.175577
-0.0109003
0.176697
-0.0102305
0.177758
-0.00954262
0.17876
-0.00884231
0.179703
-0.00813388
0.180586
-0.00742084
0.181412
-0.00670587
0.18218
-0.00599096
0.182892
-0.00527756
0.183548
-0.00456685
0.184149
-0.00385978
0.184694
-0.00315721
0.185185
-0.00245992
0.185622
-0.00176875
0.186005
-0.00108444
0.186333
-0.000408569
0.186611
0.000259032
0.000920159
0.167534
-0.0134108
-0.166283
0.168739
-0.0127503
0.16989
-0.0120517
0.170983
-0.011323
0.172015
-0.0105749
0.172987
-0.00981428
0.173899
-0.00904617
0.174753
-0.0082745
0.175549
-0.00750208
0.176289
-0.00673076
0.176973
-0.00596187
0.177603
-0.00519641
0.178178
-0.0044352
0.1787
-0.00367901
0.179169
-0.00292857
0.179585
-0.00218467
0.179948
-0.0014478
0.180258
-0.000718699
0.180521
-4.13821e-06
0.000711463
0.162402
-0.0146371
-0.161176
0.163587
-0.0139347
0.164715
-0.0131801
0.165782
-0.01239
0.166787
-0.0115798
0.16773
-0.0107574
0.168613
-0.00992876
0.169436
-0.00909818
0.170203
-0.00826844
0.170913
-0.00744118
0.171569
-0.00661747
0.17217
-0.00579809
0.172719
-0.00498368
0.173215
-0.00417489
0.173659
-0.00337236
0.174051
-0.00257684
0.174392
-0.00178899
0.174683
-0.00101011
0.174921
-0.000242021
0.000519305
0.157691
-0.0158457
-0.156483
0.158862
-0.0151057
0.159973
-0.0142911
0.161019
-0.0134357
0.161999
-0.0125602
0.162916
-0.0116736
0.163769
-0.0107827
0.164564
-0.00989239
0.1653
-0.00900512
0.165981
-0.00812211
0.166608
-0.00724407
0.167181
-0.00637144
0.167702
-0.00550462
0.168171
-0.00464409
0.168589
-0.0037904
0.168957
-0.00294424
0.169274
-0.00210639
0.169542
-0.00127778
0.169759
-0.000459557
0.000348537
0.153337
-0.0170492
-0.152134
0.154505
-0.0162736
0.155606
-0.0153917
0.156635
-0.014465
0.157593
-0.0135186
0.158483
-0.0125633
0.159308
-0.0116078
0.160072
-0.0106566
0.160778
-0.00971145
0.161429
-0.00877299
0.162026
-0.00784125
0.162571
-0.00691618
0.163064
-0.00599784
0.163507
-0.00508648
0.163899
-0.00418255
0.164241
-0.00328668
0.164535
-0.00239961
0.164779
-0.00152217
0.164975
-0.000655565
0.000199223
0.149295
-0.0182766
-0.148068
0.150475
-0.0174535
0.151571
-0.0164879
0.152586
-0.0154801
0.153521
-0.0144535
0.154381
-0.0134235
0.155174
-0.0124007
0.155906
-0.011388
0.15658
-0.0103854
0.157199
-0.00939244
0.157766
-0.00840824
0.158282
-0.00743201
0.158748
-0.00646337
0.159163
-0.00550234
0.15953
-0.00454924
0.159848
-0.00360464
0.160118
-0.00266929
0.16034
-0.00174406
0.160514
-0.000829939
7.06933e-05
0.145535
-0.0195922
-0.14422
0.146749
-0.0186672
0.147841
-0.0175803
0.148837
-0.0164757
0.14974
-0.0153566
0.150562
-0.0142459
0.151317
-0.0131551
0.152011
-0.0120822
0.15265
-0.0110243
0.153237
-0.00997914
0.153773
-0.00894463
0.15426
-0.00791914
0.154699
-0.00690184
0.155089
-0.00589254
0.155431
-0.0048915
0.155726
-0.00389927
0.155973
-0.00291664
0.156174
-0.00194468
0.156328
-0.000984363
-3.76466e-05
0.142073
-0.0210655
-0.1406
0.143318
-0.0199116
0.144388
-0.0186508
0.145342
-0.0174295
0.146197
-0.0162114
0.146971
-0.01502
0.14768
-0.0138643
0.148333
-0.0127358
0.148936
-0.0116269
0.14949
-0.0105332
0.149997
-0.00945127
0.150456
-0.00837881
0.150869
-0.00731467
0.151235
-0.00625861
0.151555
-0.00521093
0.151828
-0.00417227
0.152055
-0.00314348
0.152236
-0.00212574
0.152372
-0.00112055
-0.000129476
0.138977
-0.137564
-0.0224786
0.140135
-0.0210693
0.141165
-0.0196812
0.14204
-0.0183042
0.142827
-0.0169988
0.14355
-0.0157422
0.144213
-0.0145281
0.144827
-0.0133494
0.145395
-0.0121949
0.145919
-0.0110567
0.146397
-0.00993014
0.146831
-0.00881272
0.14722
-0.00770335
0.147563
-0.0066019
0.147861
-0.00550888
0.148114
-0.00442507
0.148322
-0.00335146
0.148485
-0.00228906
0.148604
-0.00123946
-0.000210059
0.0306683
0.111854
-0.110378
-0.0321449
0.0291648
0.11487
-0.113366
0.0276316
0.118019
-0.116486
0.0260652
0.121325
-0.119758
0.0244622
0.124819
-0.123216
0.0228198
0.128545
-0.126903
0.021136
0.13256
-0.130876
0.0194092
0.136943
-0.135216
0.0176388
0.141798
-0.140027
0.0158252
0.147254
-0.14544
0.0139699
0.153473
-0.151617
0.0120772
0.160639
-0.158747
0.010156
0.168954
-0.167033
0.00822287
0.178604
-0.176671
0.00630751
0.189711
-0.187795
0.00445988
0.20224
-0.200392
0.00275941
0.215855
-0.214155
0.00132607
0.229707
-0.228274
0.000328452
0.242023
-0.241026
0.249685
-0.249357
0.0304838
0.113324
-0.0319531
0.0289876
0.116366
0.0274619
0.119544
0.0259032
0.122883
0.0243081
0.126414
0.0226738
0.130179
0.020998
0.134236
0.0192792
0.138662
0.0175165
0.14356
0.0157102
0.14906
0.0138621
0.155321
0.0119769
0.162525
0.0100639
0.170867
0.00814044
0.180527
0.00623754
0.191614
0.00440658
0.204071
0.00272846
0.217534
0.00132261
0.231113
0.000352292
0.242993
0.250038
0.0302575
0.114784
-0.0317174
0.0287708
0.117853
0.0272548
0.12106
0.025706
0.124432
0.024121
0.127999
0.022497
0.131803
0.0208314
0.135901
0.0191227
0.140371
0.0173699
0.145313
0.0155734
0.150857
0.0137351
0.157159
0.0118597
0.1644
0.00995728
0.172769
0.00804598
0.182438
0.00615767
0.193502
0.0043448
0.205883
0.00268878
0.21919
0.00130742
0.232495
0.000355447
0.243945
0.250393
0.029991
0.116232
-0.0314393
0.0285159
0.119328
0.0270117
0.122565
0.0254749
0.125969
0.0239021
0.129572
0.0222903
0.133415
0.020637
0.137555
0.0189406
0.142067
0.0171999
0.147054
0.0154153
0.152641
0.0135889
0.158986
0.0117258
0.166263
0.0098362
0.174659
0.00793918
0.184335
0.00606735
0.195374
0.0042739
0.207677
0.00264038
0.220823
0.00128293
0.233852
0.000350467
0.244878
0.250744
0.0296865
0.117667
-0.0311213
0.0282249
0.120789
0.0267345
0.124055
0.0252115
0.127492
0.0236526
0.131131
0.0220549
0.135013
0.0204158
0.139194
0.0187335
0.14375
0.0170069
0.14878
0.0152364
0.154412
0.013424
0.160798
0.0115752
0.168112
0.00970065
0.176533
0.00782001
0.186216
0.00596668
0.197227
0.00419447
0.209449
0.00258499
0.222433
0.00125274
0.235184
0.000341635
0.245789
0.251085
0.0293465
0.119087
-0.0307664
0.0279001
0.122236
0.0264249
0.12553
0.0249173
0.128999
0.023374
0.132674
0.021792
0.136595
0.0201687
0.140817
0.0185023
0.145416
0.0167916
0.150491
0.015037
0.156167
0.0132407
0.162594
0.0114082
0.169944
0.00955083
0.178391
0.00768872
0.188078
0.00585601
0.19906
0.00410714
0.211198
0.00252363
0.224016
0.0012182
0.23649
0.000330118
0.246677
0.251415
0.0289739
0.120491
-0.0303777
0.0275438
0.123666
0.026085
0.126989
0.0245941
0.13049
0.0230677
0.134201
0.0215027
0.13816
0.0198967
0.142423
0.0182477
0.147065
0.0165547
0.152184
0.0148177
0.157904
0.0130393
0.164373
0.0112252
0.171758
0.00938703
0.180229
0.00754558
0.18992
0.00573567
0.20087
0.00401226
0.212921
0.0024567
0.225572
0.00117987
0.237766
0.000316623
0.24754
0.251732
0.0285715
0.121878
-0.0299586
0.0271583
0.125079
0.0257168
0.12843
0.0242435
0.131964
0.0227349
0.135709
0.0211881
0.139707
0.0196007
0.14401
0.0179705
0.148695
0.0162966
0.153858
0.014579
0.159621
0.0128203
0.166131
0.0110265
0.173552
0.00920955
0.182046
0.00739088
0.191738
0.00560592
0.202655
0.00391013
0.214617
0.00238457
0.227097
0.00113827
0.239013
0.000301751
0.248377
0.252034
0.0281421
0.123248
-0.0295125
0.026746
0.126475
0.0253222
0.129854
0.023867
0.133419
0.022377
0.137199
0.0208493
0.141235
0.0192814
0.145578
0.0176713
0.150305
0.0160178
0.155511
0.0143212
0.161318
0.0125839
0.167869
0.0108123
0.175324
0.00901861
0.18384
0.00722484
0.193532
0.00546703
0.204413
0.00380105
0.216283
0.00230762
0.228591
0.00109388
0.240226
0.00028592
0.249185
0.25232
0.0276885
0.124602
-0.0290429
0.0263091
0.127855
0.0249028
0.131261
0.0234657
0.134856
0.0219947
0.138671
0.0204868
0.142742
0.0189394
0.147126
0.0173504
0.151894
0.0157188
0.157143
0.0140446
0.162992
0.0123304
0.169583
0.0105828
0.177071
0.00881443
0.185608
0.00704769
0.195299
0.00531924
0.206141
0.00368531
0.217917
0.0022262
0.23005
0.00104707
0.241406
0.000269373
0.249963
0.252589
0.0272131
0.125942
-0.028553
0.0258493
0.129218
0.0244597
0.13265
0.0230406
0.136275
0.0215886
0.140122
0.0201009
0.14423
0.0185748
0.148652
0.0170081
0.153461
0.0153995
0.158752
0.0137492
0.164642
0.0120599
0.171272
0.0103382
0.178793
0.00859714
0.187349
0.0068596
0.197036
0.00516278
0.207838
0.00356317
0.219517
0.00214059
0.231472
0.000998097
0.242548
0.000252272
0.250708
0.252841
0.0267174
0.12727
-0.0280454
0.0253673
0.130569
0.0239932
0.134024
0.0225915
0.137677
0.0211586
0.141555
0.0196915
0.145697
0.0181873
0.150156
0.016644
0.155004
0.0150598
0.160336
0.0134351
0.166267
0.0117724
0.172935
0.0100785
0.180487
0.00836686
0.189061
0.00666074