/*--------------------------------*- C++ -*----------------------------------*\
| =========                 |                                                 |
| \\      /  F ield         | OpenFOAM: The Open Source CFD Toolbox           |
|  \\    /   O peration     | Version:  v1912                                 |
|   \\  /    A nd           | Website:  www.openfoam.com                      |
|    \\/     M anipulation  |                                                 |
\*---------------------------------------------------------------------------*/
FoamFile
{
    version     2.0;
    format      ascii;
    class       volVectorField;
    location    "34";
    object      U;
}
// * * * * * * * * * * * * * * * * * * * * * * * * * * * * * * * * * * * * * //

dimensions      [0 1 -1 0 0 0 0];


internalField   nonuniform List<vector> 
9600
(
(0.456603 -9.36363 -1.53981e-19)
(0.159621 -8.63588 0)
(0.241488 -8.16316 -9.03825e-20)
(0.319804 -7.84345 0)
(0.386674 -7.60741 0)
(0.454637 -7.4117 -3.17808e-20)
(0.519728 -7.23239 -5.46033e-22)
(0.578824 -7.05732 2.6554e-20)
(0.631155 -6.88117 0)
(0.676755 -6.7025 -4.50141e-20)
(0.716011 -6.52196 0)
(0.749547 -6.34106 -1.82665e-21)
(0.778094 -6.1616 -2.60447e-21)
(0.802406 -5.98528 -3.14361e-20)
(0.823202 -5.81347 2.65035e-20)
(0.841132 -5.64713 -2.60388e-20)
(0.856745 -5.48673 2.31782e-20)
(0.870584 -5.33219 0)
(0.883428 -5.18274 -1.84306e-20)
(0.895003 -5.03686 2.02066e-20)
(0.824606 -9.35314 -3.08018e-19)
(0.502198 -8.66372 1.17632e-20)
(0.567263 -8.20713 1.86182e-19)
(0.634054 -7.89687 -1.58636e-19)
(0.691886 -7.6654 1.56446e-19)
(0.751778 -7.47019 0)
(0.808966 -7.2886 6.06091e-20)
(0.859991 -7.10955 -6.04644e-20)
(0.904011 -6.92854 -1.04856e-19)
(0.941113 -6.74471 1.32582e-19)
(0.971799 -6.5591 -8.60773e-20)
(0.996811 -6.37347 -3.51268e-20)
(1.017 -6.18979 7.09109e-20)
(1.03319 -6.00979 0)
(1.04618 -5.83489 0)
(1.05666 -5.66604 9.93351e-20)
(1.06517 -5.50367 -1.68413e-19)
(1.07229 -5.34763 0)
(1.07886 -5.19706 0)
(1.08435 -5.05032 -7.78161e-20)
(1.19294 -9.32911 6.36395e-19)
(0.847026 -8.6787 0)
(0.896568 -8.23843 -3.76656e-19)
(0.952569 -7.93772 -3.41336e-19)
(1.00166 -7.71081 0)
(1.05346 -7.51605 5.45276e-19)
(1.10252 -7.33219 -5.14741e-19)
(1.14513 -7.14927 1.00871e-19)
(1.18043 -6.9636 -2.24569e-19)
(1.20862 -6.77489 -3.7336e-19)
(1.23034 -6.58455 5.09587e-19)
(1.24648 -6.3946 -3.15031e-19)
(1.25799 -6.2071 -1.41159e-19)
(1.26581 -6.02386 0)
(1.27079 -5.8463 5.51388e-21)
(1.27364 -5.67534 1.04714e-19)
(1.27494 -5.5114 4.52511e-20)
(1.27524 -5.35427 0)
(1.27549 -5.20296 8.20215e-20)
(1.2748 -5.05578 8.40657e-20)
(1.56051 -9.29116 -8.60909e-19)
(1.19351 -8.68054 -4.0331e-19)
(1.22885 -8.25683 3.91216e-19)
(1.27479 -7.96569 6.72075e-19)
(1.31543 -7.74326 -3.26175e-19)
(1.3591 -7.54891 5.77088e-21)
(1.39978 -7.36282 2.53174e-19)
(1.43361 -7.17618 2.29277e-19)
(1.4598 -6.98609 4.19838e-19)
(1.47868 -6.79282 0)
(1.49107 -6.59814 1.61659e-19)
(1.498 -6.40428 -1.7159e-19)
(1.50056 -6.21341 1.03371e-20)
(1.49978 -6.02738 2.70388e-19)
(1.49656 -5.8476 2.31735e-19)
(1.49165 -5.67497 -3.27111e-19)
(1.48563 -5.50987 1.07725e-19)
(1.47907 -5.35205 -1.75351e-19)
(1.47297 -5.20039 1.74523e-19)
(1.46604 -5.05319 -8.41088e-20)
(1.92699 -9.23925 4.34163e-19)
(1.54137 -8.66909 0)
(1.56369 -8.26208 3.8412e-19)
(1.6002 -7.98044 0)
(1.63262 -7.7624 0)
(1.66808 -7.56843 -2.99712e-19)
(1.70013 -7.38017 -5.36123e-19)
(1.72483 -7.18998 -4.5444e-19)
(1.74151 -6.99575 1.84373e-20)
(1.7507 -6.79829 -1.96324e-19)
(1.7534 -6.59969 0)
(1.75082 -6.40238 -1.62064e-19)
(1.74418 -6.20862 -2.91905e-19)
(1.73459 -6.02027 2.56649e-19)
(1.72302 -5.83872 -7.2933e-19)
(1.71025 -5.66486 1.18031e-19)
(1.69683 -5.49903 9.35155e-20)
(1.68339 -5.34091 -1.92846e-19)
(1.67096 -5.1893 -8.42456e-20)
(1.65775 -5.04251 2.51206e-19)
(2.29186 -9.17328 4.18865e-19)
(1.89011 -8.64411 4.15273e-19)
(1.90059 -8.2539 0)
(1.92825 -7.98165 0)
(1.95265 -7.7679 -6.23029e-19)
(1.97979 -7.57428 3.40591e-19)
(2.00292 -7.38395 8.19318e-19)
(2.01813 -7.19043 0)
(2.02492 -6.99238 2.16437e-19)
(2.02405 -6.79112 1.96325e-19)
(2.01674 -6.58907 -3.46766e-19)
(2.00437 -6.38881 5.02856e-19)
(1.9883 -6.19265 1.47532e-19)
(1.96974 -6.00247 0)
(1.9497 -5.81963 1.22779e-19)
(1.92897 -5.64497 5.51046e-19)
(1.90813 -5.47883 -3.28355e-19)
(1.8878 -5.32083 3.68867e-19)
(1.86906 -5.16964 -7.0139e-19)
(1.84957 -5.02373 8.10855e-19)
(2.65457 -9.09323 4.25976e-19)
(2.23921 -8.6054 -2.25541e-18)
(2.23899 -8.23201 0)
(2.25836 -7.96903 0)
(2.27488 -7.75946 0)
(2.29358 -7.56619 -6.04285e-19)
(2.3075 -7.37392 0)
(2.31285 -7.17732 -9.68245e-19)
(2.30938 -6.97581 8.93023e-19)
(2.2981 -6.7712 -8.29303e-19)
(2.28048 -6.56618 0)
(2.25808 -6.36347 0)
(2.2324 -6.16544 0)
(2.20472 -5.97394 -2.80429e-19)
(2.1761 -5.79028 0)
(2.14737 -5.6153 0)
(2.11908 -5.44926 -4.11431e-19)
(2.09188 -5.29178 4.04244e-19)
(2.0669 -5.14142 0)
(2.04115 -4.99683 0)
(3.01458 -8.99909 -1.38583e-18)
(2.58813 -8.55281 8.97875e-19)
(2.57834 -8.19617 0)
(2.58991 -7.94229 0)
(2.59866 -7.7368 0)
(2.60877 -7.5439 5.74735e-19)
(2.61319 -7.34985 -5.76454e-19)
(2.60833 -7.15047 -8.84784e-21)
(2.59423 -6.9459 -8.94074e-19)
(2.57223 -6.73841 8.3709e-19)
(2.54402 -6.53095 -3.77563e-19)
(2.51138 -6.32634 6.56411e-19)
(2.47591 -6.12698 -4.63338e-20)
(2.439 -5.93467 -5.93739e-19)
(2.40174 -5.7507 -5.00301e-19)
(2.36497 -5.57583 4.91531e-19)
(2.32922 -5.41034 0)
(2.2952 -5.25377 0)
(2.26404 -5.10462 3.55532e-19)
(2.23211 -4.96181 -3.91302e-19)
(3.37134 -8.89091 9.26237e-19)
(2.9363 -8.4862 8.81979e-19)
(2.91801 -8.14616 -1.6716e-18)
(2.92226 -7.90122 7.8954e-19)
(2.92333 -7.6997 0)
(2.92468 -7.50721 6.15004e-19)
(2.91928 -7.31158 -5.39769e-19)
(2.90386 -7.10974 1.52533e-18)
(2.87881 -6.90255 -2.36553e-20)
(2.84578 -6.6927 0)
(2.80675 -6.48334 7.6178e-19)
(2.76367 -6.2774 0)
(2.71829 -6.07725 0)
(2.67206 -5.88467 -2.71565e-19)
(2.62611 -5.70088 5.47753e-19)
(2.58128 -5.52659 0)
(2.5381 -5.36207 4.29501e-19)
(2.49731 -5.20682 1.78752e-19)
(2.46007 -5.05927 -3.87905e-19)
(2.42204 -4.91871 3.76637e-19)
(3.7243 -8.76874 -9.53912e-19)
(3.28314 -8.40545 8.9632e-19)
(3.2574 -8.08182 -2.55252e-18)
(3.25475 -7.84559 8.02598e-19)
(3.24819 -7.64794 0)
(3.24059 -7.45594 -1.24119e-18)
(3.22508 -7.25897 5.96241e-19)
(3.19876 -7.05504 0)
(3.16244 -6.84571 -4.73203e-19)
(3.11811 -6.63402 -8.20598e-19)
(3.06804 -6.42334 -7.14902e-19)
(3.01437 -6.21664 5.3363e-20)
(2.95898 -6.01629 6.68612e-19)
(2.90337 -5.82398 2.71342e-19)
(2.8487 -5.64086 -3.78658e-20)
(2.79581 -5.46762 -5.1094e-19)
(2.74523 -5.30449 -2.28493e-19)
(2.69774 -5.15095 -2.05977e-19)
(2.65453 -5.0054 5.49387e-19)
(2.61052 -4.86756 -8.18754e-19)
(4.07288 -8.63266 9.53914e-19)
(3.62804 -8.3105 -4.66142e-20)
(3.59587 -8.003 8.20398e-19)
(3.58671 -7.77525 0)
(3.57255 -7.58139 -6.79025e-19)
(3.55579 -7.38997 1.30472e-18)
(3.52987 -7.19191 -1.11499e-18)
(3.49233 -6.98631 1.09722e-18)
(3.44444 -6.77533 -4.44435e-19)
(3.38857 -6.56238 9.02275e-19)
(3.32727 -6.35097 3.90664e-19)
(3.26289 -6.14411 0)
(3.19741 -5.94412 0)
(3.13238 -5.75263 -2.81352e-19)
(3.06899 -5.5707 3.82808e-20)
(3.00807 -5.39897 1.00612e-18)
(2.95013 -5.23765 -2.48917e-19)
(2.896 -5.08622 8.21938e-19)
(2.84693 -4.94303 1.43782e-19)
(2.79709 -4.8084 -8.36228e-19)
(4.41653 -8.48279 -2.93498e-18)
(3.9704 -8.20131 -9.84963e-19)
(3.93277 -7.9096 -2.62621e-18)
(3.91745 -7.69006 -1.59738e-18)
(3.89567 -7.49991 -7.57615e-19)
(3.86956 -7.30919 -7.40453e-19)
(3.83292 -7.11036 -2.41651e-18)
(3.78387 -6.90352 -4.89869e-20)
(3.72414 -6.69142 -1.94118e-18)
(3.65652 -6.47779 3.02052e-20)
(3.58384 -6.26626 -8.05744e-19)
(3.50865 -6.05985 -7.34139e-19)
(3.43302 -5.86081 6.70093e-19)
(3.35857 -5.67069 -6.12748e-19)
(3.28647 -5.49046 -5.6132e-19)
(3.21753 -5.32069 -5.15115e-19)
(3.15228 -5.16161 -1.38295e-18)
(3.09159 -5.01266 4.92064e-19)
(3.03677 -4.87222 1.19387e-18)
(2.98127 -4.74124 -1.27069e-18)
(4.75471 -8.31926 3.94766e-18)
(4.30963 -8.07789 4.84862e-18)
(4.26745 -7.80153 8.32748e-19)
(4.24627 -7.58994 3.98954e-18)
(4.21685 -7.40342 -7.81848e-19)
(4.18115 -7.21356 3.90601e-18)
(4.13352 -7.01429 1.14239e-18)
(4.07266 -6.80668 3.20686e-18)
(4.00086 -6.59402 -9.80128e-19)
(3.92131 -6.38032 2.71342e-18)
(3.83714 -6.16929 1.62296e-18)
(3.75107 -5.96393 1.47889e-18)
(3.66527 -5.76643 -2.00196e-18)
(3.58139 -5.57823 1.87524e-18)
(3.50061 -5.4002 1.1313e-18)
(3.4237 -5.23286 1.0384e-18)
(3.35117 -5.07642 9.54748e-19)
(3.28399 -4.93034 7.33963e-21)
(3.22354 -4.793 8.10327e-19)
(3.1626 -4.66616 8.43324e-19)
(5.08689 -8.14224 -2.93138e-18)
(4.64514 -7.94026 1.08019e-18)
(4.59926 -7.67878 2.67162e-18)
(4.57248 -7.47483 -3.25455e-18)
(4.53534 -7.29191 7.52033e-19)
(4.48985 -7.10308 -2.61316e-18)
(4.43094 -6.90372 1.28067e-18)
(4.35803 -6.69584 -2.14567e-18)
(4.27394 -6.4832 4.89489e-20)
(4.18231 -6.27004 1.18949e-20)
(4.08656 -6.06013 -1.64535e-18)
(3.98957 -5.85644 -7.44748e-19)
(3.8936 -5.66106 1.36927e-18)
(3.80031 -5.47531 8.72529e-21)
(3.71087 -5.29998 -3.71026e-20)
(3.62602 -5.13553 -1.08385e-18)
(3.54626 -4.98214 -4.81244e-19)
(3.47265 -4.8393 -2.70693e-20)
(3.40666 -4.70544 -8.44571e-19)
(3.34049 -4.58326 -4.25894e-19)
(5.41257 -7.95191 0)
(4.97633 -7.78849 -1.9958e-18)
(4.92753 -7.54132 2.36281e-20)
(4.89535 -7.34472 3.2498e-18)
(4.85043 -7.16536 1.35989e-18)
(4.79492 -6.97778 -1.41564e-18)
(4.72448 -6.77874 -1.2193e-18)
(4.63928 -6.57109 0)
(4.54274 -6.35907 -9.70262e-19)
(4.43892 -6.14706 9.25942e-19)
(4.33153 -5.93889 -3.89914e-20)
(4.22361 -5.73747 0)
(4.11749 -5.54477 -6.89317e-19)
(4.01482 -5.36201 5.96963e-19)
(3.91674 -5.18986 4.98614e-19)
(3.82396 -5.02872 -6.02096e-19)
(3.73697 -4.87878 -5.22255e-19)
(3.6569 -4.73952 9.06773e-19)
(3.58539 -4.60952 -8.36779e-19)
(3.51412 -4.4926 4.40453e-19)
(5.73128 -7.74846 3.02835e-18)
(5.30264 -7.62263 -2.05547e-18)
(5.25161 -7.38919 -1.75381e-18)
(5.21419 -7.19964 8.16426e-19)
(5.16138 -7.02383 -1.58395e-18)
(5.09563 -6.83774 0)
(5.01343 -6.63943 0)
(4.91574 -6.43257 0)
(4.80662 -6.22176 -4.43874e-20)
(4.69054 -6.01153 -1.85825e-18)
(4.5715 -5.80572 8.77576e-19)
(4.45268 -5.60714 7.42046e-19)
(4.33644 -5.41766 6.27803e-19)
(4.22443 -5.23838 -2.57642e-18)
(4.11775 -5.06987 1.22138e-18)
(4.01704 -4.91244 0)
(3.92276 -4.76629 -3.0345e-20)
(3.83614 -4.63095 -1.40646e-18)
(3.75893 -4.50515 -5.67978e-21)
(3.68253 -4.39385 -4.40938e-19)
(6.04266 -7.53215 -2.0599e-18)
(5.62351 -7.44284 -1.08365e-18)
(5.57081 -7.22245 8.16184e-19)
(5.52827 -7.03965 -1.43835e-19)
(5.46746 -6.8674 -4.61696e-18)
(5.39126 -6.68307 4.17789e-18)
(5.29709 -6.48595 -4.87745e-20)
(5.18676 -6.28043 1.14401e-18)
(5.06496 -6.07144 1.02632e-18)
(4.93661 -5.86362 9.42279e-19)
(4.80594 -5.66076 8.57384e-19)
(4.67627 -5.46558 1.53208e-18)
(4.54999 -5.27984 -7.37395e-19)
(4.42872 -5.10452 1.91109e-18)
(4.31349 -4.94008 -1.23547e-18)
(4.20489 -4.78677 -5.10982e-19)
(4.10331 -4.6448 2.05246e-18)
(4.01003 -4.51369 1.3711e-18)
(3.92699 -4.39225 -2.78776e-20)
(3.84566 -4.28631 0)
(6.34669 -7.30347 -1.04733e-18)
(5.93854 -7.24929 2.0708e-18)
(5.88448 -7.04117 1.81256e-18)
(5.83687 -6.86481 -1.45802e-19)
(5.76793 -6.69618 -1.56645e-18)
(5.68107 -6.51392 7.05747e-20)
(5.57476 -6.31847 1.31146e-20)
(5.45168 -6.11488 1.16864e-20)
(5.31716 -5.90833 0)
(5.17656 -5.70352 9.21557e-19)
(5.03433 -5.50417 -1.75401e-18)
(4.8939 -5.31292 -7.50463e-19)
(4.75766 -5.13138 7.45013e-19)
(4.62718 -4.96043 -6.53612e-19)
(4.50343 -4.80046 6.05301e-19)
(4.38691 -4.6517 -5.50991e-19)
(4.27803 -4.51435 4.88564e-21)
(4.17817 -4.38779 -4.68029e-19)
(4.08957 -4.27074 -4.32323e-19)
(4.00409 -4.17085 -4.32609e-19)
(6.64371 -7.06291 0)
(6.24749 -7.0419 -1.00956e-18)
(6.19196 -6.84525 9.97971e-19)
(6.13921 -6.67518 1.74077e-18)
(6.06203 -6.51033 -1.57505e-18)
(5.96436 -6.33053 1.36042e-18)
(5.84578 -6.13729 -2.61571e-18)
(5.70989 -5.93621 -2.32248e-18)
(5.56269 -5.73272 -1.01302e-18)
(5.40992 -5.5315 4.43342e-20)
(5.25627 -5.3362 -8.3868e-19)
(5.10521 -5.14931 3.48466e-20)
(4.9591 -4.97233 0)
(4.81942 -4.80603 -1.28207e-18)
(4.68699 -4.65075 6.54307e-19)
(4.56222 -4.50675 0)
(4.44554 -4.37414 -5.12305e-19)
(4.33854 -4.25207 -9.20985e-19)
(4.24348 -4.14016 9.0496e-19)
(4.15281 -4.05101 4.46695e-19)
(6.93332 -6.80966 0)
(6.54973 -6.81997 0)
(6.49254 -6.63465 -1.85095e-18)
(6.43455 -6.47107 -1.59118e-18)
(6.34907 -6.31026 3.22967e-18)
(6.24049 -6.13333 0)
(6.10957 -5.94283 0)
(5.96089 -5.74488 1.16678e-18)
(5.8011 -5.54504 0)
(5.63635 -5.34798 0)
(5.4715 -5.15722 0)
(5.31007 -4.97507 0)
(5.15433 -4.80289 0)
(5.00562 -4.64132 0)
(4.86448 -4.49061 0)
(4.73105 -4.35095 0)
(4.60558 -4.22218 0)
(4.48914 -4.10366 0)
(4.38188 -3.99844 0)
(4.27766 -3.92376 0)
(10.0418 0.0877263 1.46997e-19)
(10.0214 -0.307597 2.85992e-19)
(9.98559 -0.700248 -2.93745e-19)
(9.93513 -1.09008 5.85673e-19)
(9.86968 -1.47676 -5.85672e-19)
(9.78911 -1.85979 -5.53396e-19)
(9.69352 -2.23862 -5.51854e-19)
(9.58312 -2.6127 1.73817e-18)
(9.45814 -2.98149 -1.15806e-18)
(9.31886 -3.34443 1.14837e-18)
(9.16553 -3.70097 -1.14837e-18)
(8.99849 -4.05059 1.13991e-18)
(8.81804 -4.39277 -2.26058e-18)
(8.62455 -4.727 3.3289e-18)
(8.41838 -5.0528 0)
(8.19992 -5.36971 -3.27066e-18)
(7.96956 -5.67732 1.62692e-20)
(7.72783 -5.97526 3.29626e-18)
(7.47482 -6.26339 0)
(7.21223 -6.54101 0)
(10.116 -0.210758 0)
(10.0748 -0.606702 -1.50315e-20)
(10.0169 -0.998854 0)
(9.94282 -1.38688 5.60292e-19)
(9.85293 -1.77034 5.83517e-19)
(9.74738 -2.14865 -1.68878e-18)
(9.62646 -2.52116 2.94038e-18)
(9.49053 -2.88727 -1.16072e-18)
(9.33996 -3.24636 -1.10636e-18)
(9.17513 -3.59785 -1.10185e-18)
(8.99647 -3.94117 4.45463e-20)
(8.80442 -4.27579 1.12905e-18)
(8.59943 -4.60117 -5.61276e-18)
(8.38198 -4.91681 -1.17723e-18)
(8.15257 -5.22227 2.24284e-18)
(7.91171 -5.5171 2.23994e-18)
(7.65987 -5.80091 1.13811e-18)
(7.39763 -6.07338 -2.19444e-18)
(7.12509 -6.33425 1.03915e-18)
(6.84319 -6.58317 0)
(10.0657 -0.149342 1.32322e-19)
(10.028 -0.540779 -2.70984e-19)
(9.97288 -0.929049 7.82499e-19)
(9.90083 -1.31346 -5.54411e-19)
(9.81218 -1.69336 -5.28578e-19)
(9.7073 -2.06803 5.51908e-19)
(9.58657 -2.43675 0)
(9.45037 -2.79884 0)
(9.29913 -3.15362 2.09551e-18)
(9.13331 -3.50045 3.12614e-18)
(8.95337 -3.83871 -9.88647e-19)
(8.7598 -4.16782 3.09127e-18)
(8.55313 -4.4872 -9.84493e-19)
(8.33389 -4.79634 -3.01094e-18)
(8.10263 -5.09471 1.35573e-20)
(7.85993 -5.38187 1.93263e-18)
(7.6063 -5.65737 -8.72206e-19)
(7.34236 -5.9208 -1.90143e-18)
(7.06842 -6.1718 -1.02723e-18)
(6.78523 -6.40985 1.86878e-18)
(9.89826 -0.112698 0)
(9.86732 -0.49486 2.28412e-19)
(9.81912 -0.874682 2.2747e-19)
(9.75384 -1.25127 -9.34569e-19)
(9.67182 -1.62381 0)
(9.57339 -1.99155 0)
(9.45892 -2.35371 0)
(9.32877 -2.70955 0)
(9.18337 -3.05836 -9.89073e-19)
(9.02316 -3.39943 -9.85323e-19)
(8.84862 -3.73212 0)
(8.66024 -4.05578 1.86282e-18)
(8.45855 -4.36981 -4.60564e-18)
(8.24412 -4.67361 3.70343e-18)
(8.0175 -4.96665 -3.58952e-18)
(7.77928 -5.24841 -8.71005e-19)
(7.53004 -5.51838 1.56306e-19)
(7.27039 -5.77612 1.54718e-19)
(7.00084 -6.02114 -1.77407e-18)
(6.72213 -6.25298 -7.08655e-20)
(9.64444 -0.0992363 0)
(9.62088 -0.469147 -2.25265e-19)
(9.58049 -0.837371 0)
(9.52335 -1.20301 4.50654e-19)
(9.44969 -1.56522 4.29565e-19)
(9.3598 -1.92321 3.92678e-19)
(9.25398 -2.27621 0)
(9.13258 -2.62346 0)
(8.99597 -2.9642 0)
(8.84456 -3.29773 0)
(8.67879 -3.62335 8.1122e-19)
(8.49915 -3.9404 8.74091e-19)
(8.30615 -4.24823 8.69131e-19)
(8.10032 -4.54622 -8.82404e-19)
(7.88221 -4.8338 -1.51834e-18)
(7.65242 -5.11039 1.72392e-18)
(7.41152 -5.37545 3.34228e-18)
(7.16014 -5.62848 1.62567e-18)
(6.89884 -5.86897 0)
(6.62835 -6.09642 -1.53206e-18)
(9.33701 -0.0904269 4.62898e-20)
(9.32039 -0.446153 0)
(9.28757 -0.800763 -7.58591e-19)
(9.23856 -1.1534 1.84781e-23)
(9.17352 -1.50325 1.61465e-20)
(9.09266 -1.84952 -6.84226e-20)
(8.99627 -2.19143 0)
(8.88462 -2.52824 3.08835e-20)
(8.75804 -2.8592 -7.70123e-19)
(8.61691 -3.18358 1.50042e-18)
(8.46161 -3.50069 -1.56466e-18)
(8.29259 -3.80985 8.54905e-19)
(8.11033 -4.11041 -4.48046e-18)
(7.91532 -4.40172 2.95512e-18)
(7.70809 -4.68318 1.56663e-18)
(7.48921 -4.9542 0)
(7.25924 -5.21421 -2.8915e-18)
(7.01879 -5.46265 -6.14691e-20)
(6.76844 -5.69901 -2.8476e-18)
(6.50884 -5.92275 2.95992e-18)
(9.00443 -0.0855907 4.16244e-20)
(8.99343 -0.426316 -8.72034e-20)
(8.96697 -0.766391 7.15007e-19)
(8.92501 -1.10502 -1.40488e-20)
(8.86766 -1.44141 7.14859e-19)
(8.79511 -1.77479 -1.07974e-18)
(8.70756 -2.10443 0)
(8.60525 -2.42957 7.27896e-19)
(8.48848 -2.74951 6.66402e-19)
(8.35756 -3.06353 -7.23823e-19)
(8.21285 -3.37094 1.32416e-18)
(8.05474 -3.67108 2.80751e-18)
(7.88367 -3.96329 -1.30554e-18)
(7.70009 -4.24693 -1.41531e-18)
(7.50451 -4.52139 1.35719e-18)
(7.29745 -4.78607 0)
(7.07944 -5.04039 6.4835e-20)
(6.85108 -5.28376 9.76976e-21)
(6.61292 -5.51566 2.69776e-18)
(6.36557 -5.73552 1.25411e-18)
(8.66783 -0.084373 0)
(8.66088 -0.410145 6.24589e-21)
(8.63924 -0.73561 -1.45461e-19)
(8.60285 -1.06002 -6.46079e-19)
(8.55179 -1.38264 6.07257e-19)
(8.48621 -1.70272 0)
(8.40627 -2.01957 1.23601e-18)
(8.31218 -2.33246 -1.35804e-21)
(8.20418 -2.64072 -1.88781e-18)
(8.08256 -2.94366 0)
(7.94764 -3.24062 -1.30309e-18)
(7.79976 -3.53095 4.59282e-20)
(7.63932 -3.81401 -3.66275e-18)
(7.46675 -4.08918 6.4507e-21)
(7.28251 -4.35586 1.22765e-18)
(7.08708 -4.61344 0)
(6.88099 -4.86135 -1.20497e-18)
(6.66477 -5.099 8.66683e-21)
(6.43898 -5.32585 1.19631e-18)
(6.20417 -5.54131 -1.23414e-18)
(8.34103 -0.0854132 0)
(8.3367 -0.396812 1.49147e-19)
(8.31842 -0.708136 3.09459e-19)
(8.28616 -1.01869 -5.72753e-19)
(8.23995 -1.32777 -2.46815e-20)
(8.17991 -1.63468 -2.86245e-19)
(8.10619 -1.93876 -1.14587e-18)
(8.01896 -2.23934 5.6968e-19)
(7.91844 -2.53577 2.37752e-20)
(7.80488 -2.82739 5.66272e-19)
(7.67855 -3.11357 5.21245e-19)
(7.53978 -3.3937 2.25759e-18)
(7.38894 -3.66717 1.12925e-18)
(7.22641 -3.93338 2.2304e-18)
(7.05264 -4.19174 -1.11228e-18)
(6.86806 -4.44168 3.86067e-20)
(6.67319 -4.68262 -1.09915e-18)
(6.46854 -4.91399 0)
(6.25462 -5.13524 1.03894e-18)
(6.03197 -5.34575 0)
(8.03191 -0.0875904 6.49264e-20)
(8.02904 -0.385486 -1.90145e-19)
(8.01294 -0.683448 5.21551e-19)
(7.98356 -0.980822 -2.6019e-19)
(7.94093 -1.27695 1.89469e-20)
(7.88516 -1.57119 -2.60036e-19)
(7.81636 -1.86291 5.40628e-19)
(7.7347 -2.15148 -5.17381e-19)
(7.64035 -2.43627 5.17378e-19)
(7.53355 -2.71669 9.92256e-19)
(7.41456 -2.99213 -1.06932e-18)
(7.28367 -3.26202 -4.50193e-20)
(7.14121 -3.52578 -3.09511e-18)
(6.98756 -3.78284 5.36013e-21)
(6.82312 -4.03266 4.0199e-20)
(6.64834 -4.27466 2.00647e-18)
(6.46368 -4.50831 -9.91127e-19)
(6.26965 -4.73304 -9.44018e-19)
(6.06676 -4.94828 -3.73947e-20)
(5.85548 -5.15344 0)
(7.74406 -0.0901623 0)
(7.7418 -0.375544 2.41525e-19)
(7.72697 -0.661066 -8.30437e-19)
(7.69952 -0.946115 -2.20301e-19)
(7.65946 -1.23007 4.92753e-19)
(7.6069 -1.51234 0)
(7.54193 -1.7923 0)
(7.4647 -2.06939 4.70972e-19)
(7.37538 -2.34301 -4.70969e-19)
(7.27419 -2.6126 3.9666e-19)
(7.16135 -2.8776 -4.67933e-19)
(7.03715 -3.13745 9.27947e-19)
(6.90189 -3.39164 -1.8513e-18)
(6.75594 -3.63963 1.84173e-18)
(6.59968 -3.88089 3.46043e-20)
(6.43353 -4.11491 -9.47279e-19)
(6.25798 -4.34116 -9.01365e-19)
(6.07349 -4.55909 1.83618e-18)
(5.88061 -4.76815 8.59513e-19)
(5.67977 -4.96771 0)
(7.47827 -0.0926563 1.87354e-21)
(7.47606 -0.366523 1.58557e-19)
(7.46187 -0.640557 3.32914e-19)
(7.43563 -0.91418 2.33036e-19)
(7.39739 -1.18681 2.16154e-19)
(7.34722 -1.45788 2.01058e-19)
(7.28522 -1.72683 0)
(7.21152 -1.99309 -8.30908e-19)
(7.12629 -2.25613 -4.28349e-19)
(7.02971 -2.51541 3.65358e-19)
(6.92201 -2.77041 0)
(6.80346 -3.02062 8.46029e-19)
(6.67435 -3.26555 -2.50214e-18)
(6.53501 -3.5047 8.41696e-19)
(6.38583 -3.73761 0)
(6.22722 -3.96378 -8.00253e-19)
(6.05967 -4.18272 -1.61633e-18)
(5.88366 -4.39391 7.95328e-19)
(5.69975 -4.59678 -2.91529e-20)
(5.50838 -4.7907 0)
(7.23368 -0.0947742 3.45658e-21)
(7.23116 -0.358076 -1.02613e-19)
(7.21718 -0.621538 1.98015e-19)
(7.19169 -0.884618 -1.30906e-20)
(7.15473 -1.14677 3.9568e-19)
(7.10635 -1.40744 -6.07706e-19)
(7.04668 -1.66611 0)
(6.97582 -1.92226 5.59026e-20)
(6.89392 -2.17536 0)
(6.80118 -2.42493 -8.11214e-19)
(6.6978 -2.67047 0)
(6.58403 -2.91152 -7.48589e-19)
(6.46015 -3.14761 2.31376e-18)
(6.32649 -3.3783 -1.5332e-18)
(6.18343 -3.60315 7.64391e-19)
(6.03137 -3.82175 -6.76223e-19)
(5.87083 -4.03361 7.81217e-19)
(5.70228 -4.23828 -7.75872e-19)
(5.52637 -4.43514 0)
(5.34353 -4.62359 0)
(7.00851 -0.0963943 4.6951e-20)
(7.0055 -0.34998 0)
(6.99147 -0.603707 0)
(6.96642 -0.85706 -3.76179e-19)
(6.93037 -1.10952 -3.51069e-19)
(6.88339 -1.36056 0)
(6.82557 -1.60969 0)
(6.75703 -1.85642 4.97316e-20)
(6.67792 -2.10025 6.95219e-19)
(6.58841 -2.34072 -3.35264e-19)
(6.4887 -2.57737 -3.57218e-19)
(6.37903 -2.80977 1.44303e-18)
(6.25966 -3.0375 -2.14275e-18)
(6.13091 -3.26016 1.38172e-18)
(5.99314 -3.47735 0)
(5.84678 -3.68872 2.7759e-18)
(5.69234 -3.89382 -2.01537e-18)
(5.53034 -4.09231 6.8564e-19)
(5.36155 -4.2835 1.3112e-18)
(5.18637 -4.4668 0)
(6.80067 -0.0974513 -4.03613e-20)
(6.79705 -0.342073 0)
(6.78284 -0.586816 -5.20777e-21)
(6.75804 -0.83118 -3.23e-19)
(6.72267 -1.07467 1.0009e-18)
(6.6768 -1.31679 -1.66496e-19)
(6.62053 -1.55707 0)
(6.55396 -1.79503 1.3263e-18)
(6.47723 -2.03022 -6.83045e-19)
(6.39051 -2.26219 4.43706e-20)
(6.29399 -2.49053 6.32978e-19)
(6.18788 -2.71481 6.48819e-19)
(6.07245 -2.93467 -1.29385e-18)
(5.94798 -3.14975 -1.26551e-18)
(5.81485 -3.3597 -1.23607e-18)
(5.67344 -3.56426 -1.31541e-18)
(5.52434 -3.76299 1.30644e-18)
(5.36805 -3.95575 -6.23643e-19)
(5.20559 -4.14167 -6.64598e-19)
(5.03727 -4.32042 0)
(6.60792 -0.0979246 3.96539e-20)
(6.60367 -0.33425 -1.48884e-19)
(6.58922 -0.570668 -1.54131e-19)
(6.56458 -0.806697 4.61511e-19)
(6.52976 -1.04186 -1.63903e-19)
(6.48485 -1.2757 -1.53198e-19)
(6.42992 -1.50774 0)
(6.36508 -1.73755 -6.29716e-19)
(6.29046 -1.96469 0)
(6.20622 -2.18874 6.2484e-19)
(6.11254 -2.40929 -1.20404e-18)
(6.00962 -2.62599 5.96015e-19)
(5.8977 -2.83846 -1.18837e-18)
(5.77705 -3.04643 1.22634e-18)
(5.64801 -3.24956 6.67522e-19)
(5.51097 -3.44773 0)
(5.36654 -3.64049 -5.76104e-19)
(5.21519 -3.82805 5.76104e-19)
(5.05838 -4.0092 0)
(4.89608 -4.18429 0)
(6.42817 -0.0979011 0)
(6.4233 -0.326489 1.46277e-19)
(6.40862 -0.555138 4.70955e-21)
(6.38411 -0.783387 -1.50829e-19)
(6.3498 -1.01078 -1.32994e-19)
(6.30576 -1.23688 -1.41199e-19)
(6.25207 -1.46123 5.45727e-19)
(6.18884 -1.68343 0)
(6.11618 -1.90304 0)
(6.03425 -2.11967 2.77339e-19)
(5.94321 -2.33296 2.94626e-19)
(5.84324 -2.54254 1.06626e-18)
(5.73457 -2.7481 -5.44809e-19)
(5.61743 -2.94938 5.44807e-19)
(5.49213 -3.1461 5.78379e-19)
(5.35902 -3.33829 3.38416e-20)
(5.21874 -3.52547 -1.06218e-18)
(5.07165 -3.7084 3.77308e-21)
(4.91991 -3.88521 5.25325e-19)
(4.76266 -4.05788 0)
(6.2595 -0.0973839 -3.2693e-20)
(6.25409 -0.318759 3.26926e-20)
(6.23922 -0.540167 0)
(6.21487 -0.761161 1.23137e-19)
(6.18107 -0.981307 3.99997e-19)
(6.1379 -1.20018 -5.05536e-19)
(6.08544 -1.41735 -5.36195e-19)
(6.02378 -1.63243 0)
(5.95303 -1.84501 0)
(5.87335 -2.05472 0)
(5.78487 -2.26121 -9.89796e-19)
(5.68776 -2.46414 -6.39299e-20)
(5.58223 -2.66322 -5.01859e-19)
(5.46846 -2.85823 3.00914e-20)
(5.34673 -3.04894 -9.92464e-19)
(5.21726 -3.2355 1.51253e-18)
(5.08078 -3.41747 -1.43309e-18)
(4.93732 -3.59641 4.86482e-19)
(4.79015 -3.76938 9.32574e-19)
(4.63658 -3.94124 0)
(6.10021 -0.0960235 2.93705e-20)
(6.09437 -0.310858 0)
(6.07939 -0.525714 -1.2092e-19)
(6.05526 -0.740155 -2.49165e-19)
(6.02202 -0.953764 1.20768e-19)
(5.97974 -1.16613 9.64376e-19)
(5.92848 -1.37686 0)
(5.86835 -1.58556 -4.64453e-19)
(5.79946 -1.79186 -2.37552e-19)
(5.72192 -1.9954 -4.46262e-19)
(5.63589 -2.19584 -1.78534e-19)
(5.54149 -2.39289 -1.40891e-18)
(5.43891 -2.58625 -9.29955e-19)
(5.32826 -2.77573 9.56636e-19)
(5.20981 -2.96115 9.15657e-19)
(5.08355 -3.14272 -3.87567e-21)
(4.95031 -3.32012 2.98438e-20)
(4.80932 -3.4959 4.48233e-19)
(4.66567 -3.66629 -9.16347e-19)
(4.51266 -3.84113 0)
(5.9487 -0.094351 -6.14194e-20)
(5.94256 -0.302924 3.02357e-20)
(5.92762 -0.511584 -1.20796e-19)
(5.90387 -0.719942 1.2074e-19)
(5.87133 -0.927607 -3.47262e-19)
(5.83003 -1.13419 -1.08133e-18)
(5.78006 -1.3393 0)
(5.72148 -1.54258 4.91435e-19)
(5.65438 -1.74368 -4.59494e-19)
(5.57887 -1.94223 9.73016e-19)
(5.49505 -2.13793 9.67228e-19)
(5.40304 -2.33048 1.425e-18)
(5.30296 -2.5196 -9.24647e-19)
(5.19485 -2.70509 4.60568e-19)
(5.07897 -2.88678 -4.52929e-19)
(4.95492 -3.06488 4.52952e-19)
(4.82383 -3.23911 0)
(4.683 -3.41267 4.10062e-19)
(4.54141 -3.58144 -4.0126e-19)
(4.38403 -3.76744 0)
(7.13842 7.2604 0)
(7.41834 6.97066 0)
(7.68535 6.67135 1.08501e-18)
(7.94017 6.36296 2.01683e-20)
(8.18222 6.04522 -1.14802e-18)
(8.41086 5.71818 0)
(8.62566 5.38224 1.18463e-18)
(8.8263 5.03794 -2.23486e-18)
(9.01245 4.68586 -1.12942e-18)
(9.18382 4.3266 -1.13995e-18)
(9.34016 3.9608 1.13995e-18)
(9.48123 3.58911 -1.152e-18)
(9.60685 3.2122 5.74643e-19)
(9.71681 2.8308 5.48412e-19)
(9.81096 2.44556 5.50553e-19)
(9.88924 2.05715 -5.84333e-19)
(9.95162 1.66623 5.84334e-19)
(9.99818 1.27349 -2.93341e-19)
(10.0289 0.879345 -1.39326e-19)
(10.0442 0.48514 7.33915e-20)
(7.4132 7.06668 0)
(7.69323 6.77738 -9.94033e-19)
(7.95947 6.47652 -2.12524e-18)
(8.21222 6.16478 3.14274e-18)
(8.45124 5.84248 -2.17942e-18)
(8.67602 5.51008 2.19004e-18)
(8.88609 5.16817 1.19072e-18)
(9.08103 4.81742 -3.37865e-18)
(9.26044 4.45852 1.10528e-18)
(9.42398 4.09219 2.19711e-18)
(9.57133 3.71914 1.08243e-18)
(9.70225 3.34013 1.08928e-18)
(9.81656 2.95598 -1.14952e-18)
(9.91404 2.56738 1.69261e-18)
(9.99444 2.17514 -2.34846e-18)
(10.0577 1.78012 5.79658e-19)
(10.1037 1.38313 -5.56975e-19)
(10.1326 0.984986 0)
(10.1443 0.586217 1.51444e-20)
(10.1392 0.187803 0)
(7.26915 6.94101 -1.75016e-18)
(7.55193 6.66911 9.82661e-19)
(7.82216 6.38436 1.79727e-18)
(8.07942 6.08744 8.13502e-19)
(8.32327 5.77891 2.03784e-18)
(8.55319 5.4594 1.99509e-20)
(8.76865 5.12956 -1.02142e-18)
(8.96916 4.79009 -3.04388e-18)
(9.15428 4.44171 3.00504e-18)
(9.32356 4.08514 -3.08475e-18)
(9.47663 3.72112 -1.02768e-18)
(9.61317 3.35042 -2.05606e-18)
(9.73288 2.97385 0)
(9.83553 2.59219 0)
(9.921 2.20633 0)
(9.98911 1.81716 -5.24066e-19)
(10.0397 1.42554 5.48906e-19)
(10.0728 1.03232 5.25754e-19)
(10.0881 0.638209 6.26329e-21)
(10.0859 0.244175 1.32046e-19)
(7.04142 6.68871 1.81773e-18)
(7.32089 6.43544 -1.65054e-18)
(7.58902 6.16908 -1.69386e-19)
(7.84509 5.89015 -1.70342e-19)
(8.08854 5.59923 4.29054e-18)
(8.31882 5.29692 -7.11831e-20)
(8.53538 4.98386 3.73982e-21)
(8.73768 4.66069 -2.71321e-18)
(8.92523 4.3281 1.79011e-18)
(9.09756 3.98677 0)
(9.25418 3.63749 9.60164e-19)
(9.39475 3.28108 9.66799e-19)
(9.51898 2.91832 0)
(9.62656 2.55005 0)
(9.71728 2.17708 0)
(9.79093 1.80024 0)
(9.84732 1.42033 -2.16762e-20)
(9.88634 1.03822 4.73343e-19)
(9.90787 0.654731 -2.2729e-19)
(9.9119 0.270805 0)
(6.77858 6.37404 1.53929e-18)
(7.05017 6.13861 0)
(7.31154 5.89026 -4.53169e-18)
(7.56189 5.62942 -1.54462e-18)
(7.80057 5.3566 -1.62323e-18)
(8.02701 5.07236 -1.72075e-18)
(8.24064 4.77728 8.12978e-19)
(8.44092 4.47195 -8.54337e-19)
(8.6273 4.15701 2.37211e-18)
(8.79934 3.83315 -7.76537e-19)
(8.95663 3.50113 0)
(9.09865 3.16169 0)
(9.22504 2.81552 0)
(9.33551 2.4634 0)
(9.42979 2.10615 -1.22628e-18)
(9.50765 1.74458 4.21671e-19)
(9.56885 1.37948 -4.45448e-19)
(9.61325 1.01169 0)
(9.6407 0.642051 2.2416e-19)
(9.65114 0.27145 0)
(6.50356 6.047 1.31658e-18)
(6.76492 5.8277 -4.79532e-20)
(7.01699 5.59589 2.76937e-18)
(7.25898 5.35192 1.38351e-18)
(7.49023 5.09624 0)
(7.71016 4.82936 -1.46921e-18)
(7.91821 4.5518 6.83893e-20)
(8.11382 4.26414 -1.49147e-18)
(8.29648 3.96695 2.06313e-18)
(8.4657 3.66089 3.26971e-20)
(8.62107 3.34658 2.80782e-20)
(8.76213 3.02465 -7.44193e-19)
(8.88847 2.69585 1.45948e-18)
(8.99977 2.36092 0)
(9.09577 2.02057 6.84586e-20)
(9.17617 1.67563 7.4512e-19)
(9.24069 1.32687 1.63194e-21)
(9.28916 0.975069 -1.53219e-20)
(9.32145 0.621028 0)
(9.33742 0.26558 -4.61936e-20)
(6.2376 5.73013 0)
(6.48763 5.5248 -4.88743e-20)
(6.72913 5.30749 1.75042e-20)
(6.96132 5.07849 -2.5031e-18)
(7.18359 4.8382 0)
(7.39534 4.58708 1.26589e-18)
(7.59605 4.32561 1.34843e-18)
(7.78518 4.0543 -3.92297e-18)
(7.96224 3.77369 -6.81609e-20)
(8.12674 3.48435 -1.25957e-18)
(8.27826 3.18688 6.93601e-19)
(8.41638 2.88189 -6.40635e-19)
(8.54069 2.57006 -7.04329e-19)
(8.65081 2.25207 0)
(8.74653 1.92864 3.71603e-19)
(8.82761 1.60038 -1.68788e-20)
(8.89367 1.26815 -3.44929e-19)
(8.94451 0.93267 -1.67411e-20)
(8.98 0.594702 -8.68275e-20)
(8.99999 0.255011 1.74028e-19)
(5.99188 5.43499 0)
(6.23033 5.24151 1.08222e-18)
(6.46084 5.03661 1.61193e-20)
(6.68268 4.82056 -1.09831e-18)
(6.89525 4.59371 0)
(7.09801 4.35647 1.14259e-18)
(7.29043 4.10928 -1.09085e-18)
(7.47202 3.8526 -1.2077e-18)
(7.64229 3.58693 2.29702e-18)
(7.80081 3.31281 1.23954e-18)
(7.94715 3.03078 0)
(8.08091 2.74144 6.04556e-19)
(8.20171 2.44541 -4.37382e-21)
(8.30923 2.14332 2.18313e-20)
(8.40305 1.83584 0)
(8.48305 1.52361 -5.95033e-19)
(8.54905 1.20723 -3.11752e-19)
(8.60066 0.887518 4.55475e-19)
(8.63774 0.565201 3.07099e-19)
(8.66014 0.240986 -4.10515e-20)
(5.77005 5.16649 0)
(5.99725 4.98299 -9.34534e-19)
(6.21696 4.78866 0)
(6.4285 4.58371 -1.00831e-18)
(6.6313 4.36847 1.98509e-18)
(6.82485 4.1433 -2.02444e-18)
(7.00867 3.90861 3.16797e-18)
(7.18227 3.66482 -3.15878e-18)
(7.34523 3.41241 -2.13417e-18)
(7.49711 3.15186 -1.57401e-18)
(7.63751 2.8837 5.39773e-19)
(7.76607 2.60849 -1.11908e-18)
(7.88242 2.32679 1.86173e-20)
(7.98624 2.03921 1.1124e-18)
(8.07725 1.74634 -2.7985e-19)
(8.15506 1.4489 1.14644e-18)
(8.2196 1.14737 -5.63843e-19)
(8.27068 0.842468 2.59754e-19)
(8.30804 0.534918 -1.4816e-19)
(8.3315 0.225389 0)
(5.57186 4.92503 0)
(5.78845 4.74999 1.80788e-18)
(5.99789 4.56468 8.76863e-19)
(6.19956 4.36929 -9.02657e-19)
(6.39291 4.16409 -1.84908e-18)
(6.57746 3.94941 2.81371e-18)
(6.75277 3.72563 1.12501e-20)
(6.91839 3.49316 -9.17067e-19)
(7.07392 3.25242 1.96898e-18)
(7.21897 3.0039 1.01694e-18)
(7.35315 2.74808 -9.49989e-19)
(7.47612 2.4855 4.98855e-19)
(7.58755 2.21668 2.24927e-20)
(7.68711 1.94219 -5.24943e-19)
(7.77454 1.66261 -2.54364e-19)
(7.84955 1.37851 5.10033e-19)
(7.9119 1.0906 -2.55669e-19)
(7.96149 0.79936 -5.15935e-19)