/*--------------------------------*- C++ -*----------------------------------*\
| =========                 |                                                 |
| \\      /  F ield         | OpenFOAM: The Open Source CFD Toolbox           |
|  \\    /   O peration     | Version:  v1912                                 |
|   \\  /    A nd           | Website:  www.openfoam.com                      |
|    \\/     M anipulation  |                                                 |
\*---------------------------------------------------------------------------*/
FoamFile
{
    version     2.0;
    format      ascii;
    class       volVectorField;
    location    "63";
    object      U;
}
// * * * * * * * * * * * * * * * * * * * * * * * * * * * * * * * * * * * * * //

dimensions      [0 1 -1 0 0 0 0];


internalField   nonuniform List<vector> 
9600
(
(0.456545 -9.36163 -1.54172e-19)
(0.159769 -8.63237 0)
(0.242033 -8.15956 -9.05376e-20)
(0.320864 -7.84051 0)
(0.388255 -7.60548 0)
(0.456732 -7.41093 -3.1859e-20)
(0.522312 -7.2328 -5.50591e-22)
(0.581855 -7.05885 2.66339e-20)
(0.634586 -6.88373 0)
(0.680536 -6.706 -4.51614e-20)
(0.720096 -6.52628 0)
(0.753892 -6.34613 -1.83086e-21)
(0.782662 -6.16735 -2.60771e-21)
(0.807164 -5.99163 -3.15608e-20)
(0.828121 -5.82037 2.66191e-20)
(0.846188 -5.65454 -2.61525e-20)
(0.861919 -5.49461 2.32863e-20)
(0.875858 -5.34051 0)
(0.888788 -5.19148 -1.85247e-20)
(0.900438 -5.04599 2.0306e-20)
(0.82448 -9.35125 -3.08445e-19)
(0.50223 -8.6605 1.17573e-20)
(0.567698 -8.20392 1.86496e-19)
(0.63503 -7.89437 -1.58969e-19)
(0.693419 -7.66395 1.56774e-19)
(0.753861 -7.4699 0)
(0.811572 -7.28946 6.07679e-20)
(0.863072 -7.1115 -6.06295e-20)
(0.907515 -6.93148 -1.05168e-19)
(0.944987 -6.74855 1.33027e-19)
(0.975992 -6.56373 -8.63702e-20)
(1.00128 -6.37882 -3.52651e-20)
(1.0217 -6.19577 7.11811e-20)
(1.03809 -6.01635 0)
(1.05126 -5.84197 0)
(1.06188 -5.6736 9.979e-20)
(1.07052 -5.51168 -1.69191e-19)
(1.07774 -5.35607 0)
(1.08441 -5.2059 0)
(1.08999 -5.05953 -7.82111e-20)
(1.19276 -9.32734 6.37291e-19)
(0.846965 -8.67576 0)
(0.896921 -8.2356 -3.77371e-19)
(0.953495 -7.93567 -3.42059e-19)
(1.00318 -7.70982 0)
(1.05557 -7.51622 5.46688e-19)
(1.10518 -7.33349 -5.16129e-19)
(1.14829 -7.15163 1.01179e-19)
(1.18404 -6.96691 -2.25242e-19)
(1.21261 -6.77906 -3.74613e-19)
(1.23467 -6.58947 5.11405e-19)
(1.25109 -6.40019 -3.16204e-19)
(1.26284 -6.21329 -1.4172e-19)
(1.27087 -6.03059 0)
(1.27603 -5.85353 5.52959e-21)
(1.27904 -5.68303 1.05184e-19)
(1.28047 -5.51952 4.54726e-20)
(1.28089 -5.36281 0)
(1.28124 -5.21188 8.24335e-20)
(1.28065 -5.06506 8.44857e-20)
(1.56027 -9.28952 -8.6218e-19)
(1.19338 -8.67789 -4.04048e-19)
(1.22915 -8.25439 3.91899e-19)
(1.27569 -7.96407 6.73548e-19)
(1.31697 -7.74273 -3.26913e-19)
(1.36126 -7.54953 5.80653e-21)
(1.40252 -7.36454 2.53876e-19)
(1.43688 -7.17892 2.29961e-19)
(1.46353 -6.98974 4.2119e-19)
(1.48281 -6.79728 0)
(1.49554 -6.60332 1.62278e-19)
(1.50277 -6.41009 -1.72214e-19)
(1.50558 -6.21979 1.03541e-20)
(1.50501 -6.03428 2.71493e-19)
(1.50198 -5.85497 2.32767e-19)
(1.49724 -5.68278 -3.28591e-19)
(1.49136 -5.51809 1.08214e-19)
(1.48493 -5.36066 -1.76218e-19)
(1.47894 -5.20938 1.75385e-19)
(1.47211 -5.06253 -8.45296e-20)
(1.92672 -9.23773 4.34822e-19)
(1.54119 -8.66673 0)
(1.56397 -8.26003 3.84882e-19)
(1.60112 -7.97925 0)
(1.63422 -7.76231 0)
(1.67033 -7.56947 -3.00483e-19)
(1.70298 -7.38229 -5.37642e-19)
(1.72823 -7.19308 -4.55881e-19)
(1.74539 -6.99972 1.84514e-20)
(1.75499 -6.80302 -1.9701e-19)
(1.75804 -6.6051 0)
(1.75576 -6.40839 -1.6269e-19)
(1.74937 -6.21517 -2.93081e-19)
(1.74001 -6.02731 2.5775e-19)
(1.72863 -5.84621 -7.3252e-19)
(1.71603 -5.67276 1.18547e-19)
(1.70277 -5.50732 9.39702e-20)
(1.68946 -5.34959 -1.93769e-19)
(1.67715 -5.19833 -8.46684e-20)
(1.66405 -5.05188 2.5248e-19)
(2.29155 -9.17189 4.19599e-19)
(1.8899 -8.64203 4.16156e-19)
(1.90087 -8.25222 0)
(1.92922 -7.98088 0)
(1.95432 -7.76824 -6.24663e-19)
(1.98215 -7.57573 3.4139e-19)
(2.00592 -7.38645 8.21656e-19)
(2.02168 -7.19386 0)
(2.02896 -6.99664 2.17151e-19)
(2.02851 -6.79611 1.97011e-19)
(2.02156 -6.59469 -3.48079e-19)
(2.0095 -6.39499 5.04774e-19)
(1.99369 -6.19934 1.48129e-19)
(1.97536 -6.00962 0)
(1.95551 -5.82721 1.23318e-19)
(1.93497 -5.65295 5.5359e-19)
(1.91428 -5.48718 -3.29868e-19)
(1.89409 -5.32954 3.70686e-19)
(1.87548 -5.1787 -7.04896e-19)
(1.85611 -5.03312 8.14886e-19)
(2.65424 -9.09196 4.26753e-19)
(2.23899 -8.60361 -2.25978e-18)
(2.2393 -8.2307 0)
(2.2594 -7.96866 0)
(2.27666 -7.7602 0)
(2.29608 -7.56802 -6.0599e-19)
(2.31066 -7.37676 0)
(2.31659 -7.18106 -9.71383e-19)
(2.31361 -6.98033 8.96028e-19)
(2.30276 -6.77641 -8.32222e-19)
(2.2855 -6.57199 0)
(2.26341 -6.36981 0)
(2.23799 -6.17226 0)
(2.21054 -5.98119 -2.81624e-19)
(2.18213 -5.79794 0)
(2.15358 -5.62333 0)
(2.12545 -5.45766 -4.134e-19)
(2.0984 -5.30052 4.06178e-19)
(2.07355 -5.15049 0)
(2.04793 -5.00622 0)
(3.01424 -8.99795 -1.38832e-18)
(2.58793 -8.5513 8.9967e-19)
(2.5787 -8.19522 0)
(2.59105 -7.94232 0)
(2.60058 -7.73793 0)
(2.61144 -7.5461 5.76393e-19)
(2.61653 -7.35302 -5.7815e-19)
(2.61226 -7.15449 -8.89947e-21)
(2.59867 -6.95066 -8.97176e-19)
(2.57709 -6.74382 8.40054e-19)
(2.54925 -6.53692 -3.78994e-19)
(2.51692 -6.33281 6.59053e-19)
(2.48172 -6.13389 -4.64224e-20)
(2.44504 -5.942 -5.9623e-19)
(2.40799 -5.75841 -5.0255e-19)
(2.3714 -5.5839 4.93741e-19)
(2.33582 -5.41875 0)
(2.30196 -5.26251 0)
(2.27094 -5.11369 3.57324e-19)
(2.23913 -4.97119 -3.93218e-19)
(3.371 -8.88989 9.27909e-19)
(2.93613 -8.48495 8.83915e-19)
(2.91846 -8.14556 -1.67543e-18)
(2.92352 -7.90161 7.91435e-19)
(2.92542 -7.70118 0)
(2.92754 -7.50974 6.16774e-19)
(2.92283 -7.31504 -5.41486e-19)
(2.90801 -7.11402 1.53031e-18)
(2.88347 -6.90753 -2.37007e-20)
(2.85087 -6.69827 0)
(2.8122 -6.48944 7.64677e-19)
(2.76943 -6.28397 0)
(2.72432 -6.08424 0)
(2.67833 -5.89205 -2.72771e-19)
(2.63259 -5.70862 5.5014e-19)
(2.58794 -5.53468 0)
(2.54494 -5.37049 4.31553e-19)
(2.5043 -5.21555 1.79669e-19)
(2.46721 -5.06832 -3.89808e-19)
(2.42932 -4.92805 3.78514e-19)
(3.72395 -8.76784 -9.55748e-19)
(3.28301 -8.40447 8.98342e-19)
(3.25795 -8.08155 -2.55856e-18)
(3.25617 -7.84633 8.04571e-19)
(3.25047 -7.64977 0)
(3.24366 -7.45878 -1.24493e-18)
(3.22885 -7.2627 5.98054e-19)
(3.20314 -7.05954 0)
(3.16733 -6.85086 -4.74864e-19)
(3.12343 -6.63974 -8.2367e-19)
(3.07371 -6.42955 -7.17768e-19)
(3.02036 -6.22329 5.34634e-20)
(2.96523 -6.02333 6.71331e-19)
(2.90986 -5.83139 2.72546e-19)
(2.85541 -5.64862 -3.79578e-20)
(2.80271 -5.47571 -5.13243e-19)
(2.75231 -5.31289 -2.29569e-19)
(2.70498 -5.15966 -2.06974e-19)
(2.66192 -5.0144 5.52147e-19)
(2.61805 -4.87685 -8.22745e-19)
(4.07255 -8.63188 9.55751e-19)
(3.62798 -8.30977 -4.6656e-20)
(3.59655 -8.00305 8.22476e-19)
(3.5883 -7.77632 0)
(3.57503 -7.58352 -6.80994e-19)
(3.55909 -7.39308 1.30855e-18)
(3.53388 -7.19588 -1.11862e-18)
(3.49695 -6.991 1.1008e-18)
(3.44957 -6.78063 -4.46082e-19)
(3.39413 -6.56821 9.05528e-19)
(3.33319 -6.35726 3.92165e-19)
(3.26911 -6.15081 0)
(3.2039 -5.95119 0)
(3.13911 -5.76005 -2.82605e-19)
(3.07594 -5.57846 3.83763e-20)
(3.01521 -5.40704 1.01072e-18)
(2.95745 -5.24602 -2.50057e-19)
(2.90349 -5.09488 8.25947e-19)
(2.85457 -4.95198 1.44576e-19)
(2.80488 -4.81762 -8.40294e-19)
(4.41623 -8.48213 -2.94092e-18)
(3.97043 -8.20083 -9.87272e-19)
(3.93359 -7.90994 -2.63271e-18)
(3.91923 -7.69143 -1.60167e-18)
(3.89838 -7.50232 -7.59748e-19)
(3.8731 -7.31255 -7.42557e-19)
(3.83719 -7.11453 -2.42418e-18)
(3.78874 -6.90837 -4.90873e-20)
(3.72952 -6.69685 -1.94807e-18)
(3.66232 -6.48371 3.02296e-20)
(3.59 -6.2726 -8.08874e-19)
(3.51511 -6.06658 -7.37102e-19)
(3.43975 -5.86789 6.72895e-19)
(3.36554 -5.6781 -6.15395e-19)
(3.29366 -5.49819 -5.63819e-19)
(3.22492 -5.32872 -5.17473e-19)
(3.15985 -5.16992 -1.3895e-18)
(3.09933 -5.02125 4.94333e-19)
(3.04467 -4.88108 1.19973e-18)
(2.98933 -4.75038 -1.27687e-18)
(4.75444 -8.31871 3.95577e-18)
(4.30976 -8.07764 4.85995e-18)
(4.26844 -7.80215 8.34898e-19)
(4.24827 -7.59159 4.00041e-18)
(4.2198 -7.4061 -7.84095e-19)
(4.18496 -7.21714 3.91813e-18)
(4.13805 -7.01863 1.14622e-18)
(4.0778 -6.81166 3.2179e-18)
(4.00649 -6.59954 -9.83611e-19)
(3.92736 -6.38629 2.72349e-18)
(3.84354 -6.17566 1.62928e-18)
(3.75777 -5.97066 1.48486e-18)
(3.67224 -5.7735 -2.01039e-18)
(3.5886 -5.58561 1.8833e-18)
(3.50803 -5.40788 1.13634e-18)
(3.43133 -5.24083 1.04315e-18)
(3.35899 -5.08466 9.59225e-19)
(3.29199 -4.93885 7.36887e-21)
(3.2317 -4.80177 8.14298e-19)
(3.17091 -4.67519 8.47438e-19)
(5.08666 -8.14181 -2.93761e-18)
(4.64538 -7.94023 1.08269e-18)
(4.60043 -7.67965 2.67858e-18)
(4.5747 -7.47674 -3.26345e-18)
(4.53855 -7.2948 7.54111e-19)
(4.49392 -7.10685 -2.62137e-18)
(4.43575 -6.90821 1.28479e-18)
(4.36343 -6.70092 -2.15313e-18)
(4.27984 -6.48878 4.90501e-20)
(4.18862 -6.27604 1.19564e-20)
(4.09321 -6.0665 -1.65178e-18)
(3.99652 -5.86315 -7.47763e-19)
(3.90081 -5.66808 1.37501e-18)
(3.80776 -5.48264 8.76504e-21)
(3.71854 -5.3076 -3.72042e-20)
(3.6339 -5.14342 -1.08874e-18)
(3.55433 -4.9903 -4.83499e-19)
(3.4809 -4.84771 -2.7158e-20)
(3.41508 -4.71409 -8.48659e-19)
(3.34907 -4.59217 -4.2797e-19)
(5.41238 -7.95158 0)
(4.97671 -7.78866 -2.00057e-18)
(4.9289 -7.54242 2.37611e-20)
(4.89782 -7.34685 3.25902e-18)
(4.85391 -7.16845 1.36417e-18)
(4.79927 -6.9817 -1.41996e-18)
(4.72957 -6.78334 -1.22332e-18)
(4.64496 -6.57625 0)
(4.5489 -6.36468 -9.73851e-19)
(4.44548 -6.15307 9.29434e-19)
(4.33843 -5.94525 -3.90838e-20)
(4.2308 -5.74414 0)
(4.12494 -5.55173 -6.92211e-19)
(4.02251 -5.36926 5.99619e-19)
(3.92465 -5.19739 5.00971e-19)
(3.83208 -5.03651 -6.04727e-19)
(3.74528 -4.88682 -5.24641e-19)
(3.6654 -4.74781 9.11098e-19)
(3.59407 -4.61804 -8.40848e-19)
(3.52295 -4.50138 4.42583e-19)
(5.73114 -7.74822 3.03512e-18)
(5.30316 -7.62299 -2.06043e-18)
(5.25319 -7.39051 -1.75858e-18)
(5.21691 -7.20197 8.18811e-19)
(5.16514 -7.02709 -1.58856e-18)
(5.10027 -6.84178 0)
(5.0188 -6.64411 0)
(4.9217 -6.43777 0)
(4.81305 -6.22738 -4.4488e-20)
(4.69736 -6.01752 -1.86529e-18)
(4.57865 -5.81202 8.80965e-19)
(4.46011 -5.61374 7.45116e-19)
(4.34413 -5.42454 6.30574e-19)
(4.23236 -5.24554 -2.58756e-18)
(4.1259 -5.07729 1.22674e-18)
(4.0254 -4.92012 0)
(3.93133 -4.77422 -3.04417e-20)
(3.84489 -4.6391 -1.41311e-18)
(3.76785 -4.51353 -5.69925e-21)
(3.6916 -4.40247 -4.43073e-19)
(6.04258 -7.532 -2.06444e-18)
(5.62418 -7.44337 -1.08629e-18)
(5.57261 -7.22396 8.18618e-19)
(5.53126 -7.04215 -1.43942e-19)
(5.47151 -6.8708 -4.63094e-18)
(5.39619 -6.68721 4.19123e-18)
(5.30275 -6.49068 -4.88153e-20)
(5.193 -6.28564 1.14803e-18)
(5.07165 -6.07704 1.03007e-18)
(4.94368 -5.86955 9.4587e-19)
(4.81333 -5.66699 8.6077e-19)
(4.68394 -5.47209 1.53838e-18)
(4.55791 -5.28662 -7.40449e-19)
(4.43688 -5.11156 1.91943e-18)
(4.32188 -4.94737 -1.24088e-18)
(4.21349 -4.79431 -5.13359e-19)
(4.11211 -4.65258 2.06194e-18)
(4.01902 -4.52169 1.37764e-18)
(3.93616 -4.40047 -2.79725e-20)
(3.85498 -4.29476 0)
(6.34667 -7.30341 -1.04969e-18)
(5.93938 -7.24997 2.07598e-18)
(5.88651 -7.04283 1.81762e-18)
(5.84013 -6.86745 -1.45921e-19)
(5.77227 -6.69968 -1.57123e-18)
(5.68631 -6.51812 7.06919e-20)
(5.58071 -6.32323 1.3183e-20)
(5.4582 -6.12007 1.17459e-20)
(5.32412 -5.91388 0)
(5.18388 -5.70937 9.25143e-19)
(5.04197 -5.5103 -1.76088e-18)
(4.9018 -5.31931 -7.53571e-19)
(4.76581 -5.13802 7.481e-19)
(4.63558 -4.96733 -6.5644e-19)
(4.51205 -4.8076 6.07984e-19)
(4.39575 -4.65909 -5.53495e-19)
(4.28707 -4.52197 4.90116e-21)
(4.18739 -4.39563 -4.70244e-19)
(4.09898 -4.27878 -4.34406e-19)
(4.01364 -4.17911 -4.34703e-19)
(6.64375 -7.06292 0)
(6.2485 -7.04272 -1.01222e-18)
(6.19424 -6.84706 1.0006e-18)
(6.14276 -6.67794 1.74586e-18)
(6.06667 -6.51391 -1.57992e-18)
(5.96989 -6.33476 1.36493e-18)
(5.85202 -6.14203 -2.62447e-18)
(5.71668 -5.94136 -2.33071e-18)
(5.56991 -5.73819 -1.01682e-18)
(5.4175 -5.53725 4.44357e-20)
(5.26414 -5.3422 -8.42051e-19)
(5.11335 -5.15556 3.49351e-20)
(4.96749 -4.97882 0)
(4.82804 -4.81275 -1.28768e-18)
(4.69584 -4.65772 6.57131e-19)
(4.57127 -4.51395 0)
(4.45479 -4.38157 -5.14676e-19)
(4.34799 -4.25972 -9.25357e-19)
(4.25311 -4.14801 9.09256e-19)
(4.16258 -4.0591 4.48847e-19)
(6.93343 -6.80975 0)
(6.55092 -6.82091 0)
(6.49507 -6.63657 -1.85622e-18)
(6.43839 -6.47391 -1.59613e-18)
(6.35401 -6.31388 3.23953e-18)
(6.24633 -6.13756 0)
(6.11609 -5.94753 0)
(5.96795 -5.74994 1.17092e-18)
(5.80858 -5.55041 0)
(5.64417 -5.35361 0)
(5.47961 -5.16307 0)
(5.31843 -4.98116 0)
(5.16294 -4.8092 0)
(5.01445 -4.64785 0)
(4.87354 -4.49738 0)
(4.74031 -4.35794 0)
(4.61503 -4.22939 0)
(4.49877 -4.11108 0)
(4.39166 -4.00608 0)
(4.28755 -3.93167 0)
(10.0435 0.0877409 1.47374e-19)
(10.023 -0.307649 2.86742e-19)
(9.9872 -0.70036 -2.945e-19)
(9.93666 -1.09025 5.87173e-19)
(9.87114 -1.47698 -5.87172e-19)
(9.79048 -1.86005 -5.54873e-19)
(9.69481 -2.23891 -5.53324e-19)
(9.58432 -2.61302 1.74259e-18)
(9.45927 -2.98184 -1.161e-18)
(9.31989 -3.34479 1.15126e-18)
(9.16648 -3.70135 -1.15127e-18)
(8.99935 -4.05098 1.14276e-18)
(8.81882 -4.39315 -2.26618e-18)
(8.62524 -4.72737 3.33727e-18)
(8.41898 -5.05315 0)
(8.20043 -5.37003 -3.27873e-18)
(7.96999 -5.67761 1.63547e-20)
(7.72817 -5.97551 3.30418e-18)
(7.47509 -6.26359 0)
(7.21242 -6.54116 0)
(10.1206 -0.210717 0)
(10.0794 -0.606834 -1.50434e-20)
(10.0213 -0.99915 0)
(9.94713 -1.38733 5.61906e-19)
(9.85709 -1.77094 5.85152e-19)
(9.75138 -2.14937 -1.69362e-18)
(9.6303 -2.52201 2.94851e-18)
(9.4942 -2.88821 -1.16395e-18)
(9.34345 -3.2474 -1.10952e-18)
(9.17844 -3.59897 -1.10499e-18)
(8.99959 -3.94236 4.45763e-20)
(8.80735 -4.27702 1.13213e-18)
(8.60216 -4.60243 -5.62821e-18)
(8.38452 -4.9181 -1.18025e-18)
(8.15491 -5.22355 2.24893e-18)
(7.91385 -5.51837 2.2459e-18)
(7.66181 -5.80215 1.14104e-18)
(7.39938 -6.07457 -2.20029e-18)
(7.12664 -6.33537 1.04197e-18)
(6.84455 -6.58421 0)
(10.0725 -0.149214 1.32714e-19)
(10.0347 -0.5409 -2.71776e-19)
(9.97948 -0.92941 7.84836e-19)
(9.90728 -1.31405 -5.56009e-19)
(9.81848 -1.69417 -5.30144e-19)
(9.71343 -2.06904 5.53495e-19)
(9.5925 -2.43796 0)
(9.45611 -2.80022 0)
(9.30466 -3.15516 2.10165e-18)
(9.13862 -3.50214 3.13529e-18)
(8.95844 -3.84053 -9.91636e-19)
(8.76464 -4.16974 3.10028e-18)
(8.55772 -4.48921 -9.87462e-19)
(8.33823 -4.79841 -3.01972e-18)
(8.10672 -5.09684 1.36258e-20)
(7.86375 -5.38402 1.93835e-18)
(7.60987 -5.65952 -8.74936e-19)
(7.34566 -5.92293 -1.90696e-18)
(7.07146 -6.17388 -1.03001e-18)
(6.78802 -6.41187 1.87414e-18)
(9.90649 -0.112491 0)
(9.87547 -0.494949 2.29136e-19)
(9.82717 -0.87506 2.28195e-19)
(9.76178 -1.25193 -9.375e-19)
(9.67961 -1.62474 0)
(9.58103 -1.99274 0)
(9.46638 -2.35515 0)
(9.33605 -2.71122 0)
(9.19044 -3.06024 -9.92053e-19)
(9.03001 -3.40152 -9.88286e-19)
(8.85523 -3.73439 0)
(8.6666 -4.05821 1.86854e-18)
(8.46466 -4.37237 -4.61981e-18)
(8.24996 -4.6763 3.71473e-18)
(8.02307 -4.96944 -3.60055e-18)
(7.78457 -5.25126 -8.73676e-19)
(7.53504 -5.52129 1.56486e-19)
(7.2751 -5.77904 1.54889e-19)
(7.00526 -6.02407 -1.77934e-18)
(6.72626 -6.25587 -7.08918e-20)
(9.6535 -0.0990083 0)
(9.6299 -0.469239 -2.25979e-19)
(9.58945 -0.837779 0)
(9.53222 -1.20372 4.52083e-19)
(9.45845 -1.56624 4.30957e-19)
(9.36843 -1.92453 3.94001e-19)
(9.26247 -2.27781 0)
(9.1409 -2.62532 0)
(9.0041 -2.96632 0)
(8.85249 -3.30009 0)
(8.6865 -3.62594 8.13887e-19)
(8.50663 -3.94319 8.76844e-19)
(8.31338 -4.25121 8.7184e-19)
(8.10729 -4.54937 -8.85175e-19)
(7.88892 -4.83709 -1.52344e-18)
(7.65884 -5.1138 1.72927e-18)
(7.41766 -5.37896 3.35271e-18)
(7.16598 -5.63206 1.63076e-18)
(6.90439 -5.87258 0)
(6.6336 -6.10005 -1.53696e-18)
(9.34653 -0.0902072 4.64483e-20)
(9.3299 -0.446264 0)
(9.29705 -0.801201 -7.61169e-19)
(9.24798 -1.15417 1.82569e-23)
(9.18286 -1.50433 1.61787e-20)
(9.10191 -1.85092 -6.85533e-20)
(9.0054 -2.19314 0)
(8.89361 -2.53024 3.0942e-20)
(8.76688 -2.86148 -7.72715e-19)
(8.62556 -3.18613 1.50551e-18)
(8.47007 -3.5035 -1.56986e-18)
(8.30084 -3.8129 8.57619e-19)
(8.11835 -4.11367 -4.49556e-18)
(7.9231 -4.40519 2.9651e-18)
(7.71563 -4.68683 1.57174e-18)
(7.49648 -4.95801 0)
(7.26624 -5.21815 -2.90118e-18)
(7.0255 -5.46671 -6.15429e-20)
(6.77486 -5.70315 -2.85706e-18)
(6.51497 -5.92695 2.96951e-18)
(9.01421 -0.0853981 4.17728e-20)
(9.00322 -0.426456 -8.75078e-20)
(8.97675 -0.766865 7.17481e-19)
(8.93476 -1.10582 -1.40784e-20)
(8.87736 -1.44254 7.17334e-19)
(8.80473 -1.77625 -1.08346e-18)
(8.71709 -2.1062 0)
(8.61467 -2.43166 7.30392e-19)
(8.49776 -2.7519 6.68769e-19)
(8.36669 -3.06621 -7.26301e-19)
(8.22181 -3.3739 1.32886e-18)
(8.06351 -3.6743 2.81719e-18)
(7.89224 -3.96675 -1.31018e-18)
(7.70845 -4.25063 -1.42012e-18)
(7.51263 -4.5253 1.3619e-18)
(7.30533 -4.79017 0)
(7.08707 -5.04465 6.4962e-20)
(6.85844 -5.28818 9.8165e-21)
(6.62001 -5.5202 2.70693e-18)
(6.37238 -5.74016 1.25849e-18)
(8.6778 -0.0842193 0)
(8.67087 -0.410325 6.2601e-21)
(8.64923 -0.736126 -1.46004e-19)
(8.61283 -1.06087 -6.48395e-19)
(8.56173 -1.38382 6.09488e-19)
(8.49609 -1.70424 0)
(8.41607 -2.02141 1.24052e-18)
(8.32189 -2.33462 -1.36318e-21)
(8.21378 -2.6432 -1.89463e-18)
(8.09202 -2.94644 0)
(7.95694 -3.24369 -1.30771e-18)
(7.8089 -3.5343 4.60231e-20)
(7.64828 -3.81762 -3.67604e-18)
(7.47551 -4.09304 6.47851e-21)
(7.29106 -4.35995 1.23207e-18)
(7.09541 -4.61775 0)
(6.88908 -4.86586 -1.20929e-18)
(6.67262 -5.10369 8.70685e-21)
(6.44657 -5.33069 1.20059e-18)
(6.2115 -5.54628 -1.23845e-18)
(8.35118 -0.0853031 0)
(8.34687 -0.397038 1.49694e-19)
(8.3286 -0.708699 3.10581e-19)
(8.29633 -1.01959 -5.74891e-19)
(8.25009 -1.329 -2.47371e-20)
(8.19 -1.63626 -2.87314e-19)
(8.11621 -1.94067 -1.15015e-18)
(8.0289 -2.24158 5.71808e-19)
(7.92828 -2.53832 2.38271e-20)
(7.81459 -2.83025 5.68387e-19)
(7.68812 -3.11673 5.23252e-19)
(7.54921 -3.39716 2.26601e-18)
(7.39819 -3.6709 1.13345e-18)
(7.23548 -3.93738 2.23873e-18)
(7.06151 -4.19599 -1.11643e-18)
(6.87673 -4.44617 3.86862e-20)
(6.68164 -4.68733 -1.10325e-18)
(6.47675 -4.9189 0)
(6.2626 -5.14032 1.04286e-18)
(6.0397 -5.35099 0)
(8.04226 -0.0875234 6.51759e-20)
(8.03941 -0.385758 -1.90882e-19)
(8.02332 -0.684061 5.23553e-19)
(7.99393 -0.981778 -2.61191e-19)
(7.95128 -1.27825 1.89946e-20)
(7.89546 -1.57283 -2.61036e-19)
(7.8266 -1.86488 5.42676e-19)
(7.74485 -2.15378 -5.19373e-19)
(7.65041 -2.4389 5.1937e-19)
(7.5435 -2.71964 9.96128e-19)
(7.42437 -2.99539 -1.07337e-18)
(7.29333 -3.26558 -4.51278e-20)
(7.15072 -3.52963 -3.10696e-18)
(6.99689 -3.78697 5.38128e-21)
(6.83227 -4.03705 4.03008e-20)
(6.65728 -4.27931 2.01418e-18)
(6.47242 -4.51319 -9.94939e-19)
(6.27816 -4.73813 -9.47701e-19)
(6.07505 -4.95357 -3.74674e-20)
(5.86354 -5.1589 0)
(7.75465 -0.0901347 0)
(7.75242 -0.375862 2.42472e-19)
(7.7376 -0.661731 -8.33714e-19)
(7.71013 -0.947128 -2.21192e-19)
(7.67004 -1.23143 4.94673e-19)
(7.61743 -1.51404 0)
(7.5524 -1.79435 0)
(7.47509 -2.07177 4.72835e-19)
(7.38567 -2.34573 -4.72832e-19)
(7.28436 -2.61564 3.98329e-19)
(7.17139 -2.88096 -4.69786e-19)
(7.04705 -3.14113 9.31624e-19)
(6.91164 -3.39561 -1.85864e-18)
(6.76551 -3.64389 1.84903e-18)
(6.60907 -3.88542 3.46847e-20)
(6.44273 -4.11971 -9.50978e-19)
(6.26697 -4.34621 -9.04941e-19)
(6.08227 -4.56437 1.8434e-18)
(5.88917 -4.77364 8.6297e-19)
(5.68811 -4.97339 0)
(7.48915 -0.0926631 1.87893e-21)
(7.48696 -0.366882 1.59203e-19)
(7.47276 -0.641271 3.3425e-19)
(7.44651 -0.91525 2.33957e-19)
(7.40824 -1.18824 2.17029e-19)
(7.35801 -1.45966 2.01891e-19)
(7.29594 -1.72895 0)
(7.22216 -1.99556 -8.34314e-19)
(7.13682 -2.25894 -4.30087e-19)
(7.04013 -2.51855 3.66924e-19)
(6.9323 -2.77388 0)
(6.8136 -3.02441 8.49469e-19)
(6.68433 -3.26964 -2.51235e-18)
(6.54482 -3.5091 8.45121e-19)
(6.39545 -3.74229 0)
(6.23666 -3.96873 -8.03555e-19)
(6.06891 -4.18793 -1.62296e-18)
(5.89269 -4.39937 7.98613e-19)
(5.70856 -4.60247 -2.9221e-20)
(5.51697 -4.7966 0)
(7.24487 -0.0948098 3.4667e-21)
(7.24236 -0.358474 -1.03033e-19)
(7.22837 -0.6223 1.98834e-19)
(7.20286 -0.885743 -1.31303e-20)
(7.16585 -1.14825 3.97318e-19)
(7.11742 -1.40929 -6.10203e-19)
(7.05767 -1.66832 0)
(6.98672 -1.92482 5.6066e-20)
(6.90472 -2.17827 0)
(6.81186 -2.42818 -8.14544e-19)
(6.70834 -2.67406 0)
(6.59442 -2.91543 -7.51734e-19)
(6.47038 -3.15183 2.32338e-18)
(6.33655 -3.38283 -1.53959e-18)
(6.1933 -3.60798 7.6758e-19)
(6.04105 -3.82686 -6.79157e-19)
(5.88029 -4.03899 7.84443e-19)
(5.71154 -4.24392 -7.79079e-19)
(5.53541 -4.44103 0)
(5.35235 -4.62969 0)
(7.02002 -0.0964535 4.71469e-20)
(7.01701 -0.350412 0)
(7.00297 -0.604513 0)
(6.97789 -0.858238 -3.77749e-19)
(6.94179 -1.11107 -3.52562e-19)
(6.89475 -1.36248 0)
(6.83685 -1.61198 0)
(6.76822 -1.85906 4.98861e-20)
(6.68899 -2.10325 6.98186e-19)
(6.59936 -2.34407 -3.36708e-19)
(6.49951 -2.58107 -3.58732e-19)
(6.38968 -2.8138 1.44912e-18)
(6.27014 -3.04185 -2.15183e-18)
(6.14121 -3.26483 1.38762e-18)
(6.00325 -3.48232 0)
(5.85669 -3.694 2.78775e-18)
(5.70204 -3.89938 -2.02406e-18)
(5.53982 -4.09814 6.88578e-19)
(5.37082 -4.28958 1.3169e-18)
(5.19543 -4.47312 0)
(6.8125 -0.0975295 -4.05352e-20)
(6.80887 -0.342534 0)
(6.79465 -0.587661 -5.22569e-21)
(6.76981 -0.832409 -3.24394e-19)
(6.73439 -1.07628 1.00519e-18)
(6.68845 -1.31878 -1.6721e-19)
(6.63209 -1.55943 0)
(6.56542 -1.79777 1.332e-18)
(6.48858 -2.03332 -6.85959e-19)
(6.40172 -2.26565 4.4516e-20)
(6.30505 -2.49434 6.3573e-19)
(6.19878 -2.71897 6.51627e-19)
(6.08318 -2.93916 -1.29945e-18)
(5.95853 -3.15456 -1.27102e-18)
(5.82519 -3.36483 -1.24149e-18)
(5.68358 -3.56969 -1.32109e-18)
(5.53427 -3.76872 1.31209e-18)
(5.37775 -3.96176 -6.26378e-19)
(5.21508 -4.14796 -6.67458e-19)
(5.04655 -4.32696 0)
(6.62006 -0.0980174 3.98248e-20)
(6.61579 -0.334737 -1.49534e-19)
(6.60133 -0.571548 -1.54799e-19)
(6.57664 -0.80797 4.63513e-19)
(6.54177 -1.04353 -1.64606e-19)
(6.49678 -1.27775 -1.53865e-19)
(6.44176 -1.51018 0)
(6.37681 -1.74037 -6.32442e-19)
(6.30207 -1.96788 0)
(6.21769 -2.1923 6.27553e-19)
(6.12386 -2.41321 -1.20931e-18)
(6.02077 -2.63026 5.98634e-19)
(5.90867 -2.84308 -1.1936e-18)
(5.78783 -3.05138 1.2317e-18)
(5.65859 -3.25483 6.70389e-19)
(5.52134 -3.45332 0)
(5.37669 -3.64639 -5.78669e-19)
(5.22511 -3.83424 5.78669e-19)
(5.06808 -4.01567 0)
(4.90555 -4.19104 0)
(6.44058 -0.0980051 0)
(6.43571 -0.326996 1.46915e-19)
(6.42099 -0.556048 4.72639e-21)
(6.39644 -0.784699 -1.51484e-19)
(6.36206 -1.01249 -1.33584e-19)
(6.31795 -1.23899 -1.4182e-19)
(6.26416 -1.46374 5.48142e-19)
(6.20082 -1.68632 0)
(6.12804 -1.90631 0)
(6.04596 -2.12332 2.78568e-19)
(5.95476 -2.33698 2.95918e-19)
(5.85462 -2.54692 1.07102e-18)
(5.74576 -2.75283 -5.47241e-19)
(5.62842 -2.95445 5.47239e-19)
(5.50292 -3.15151 5.80932e-19)
(5.36958 -3.34402 3.39669e-20)
(5.22908 -3.53152 -1.06697e-18)
(5.08176 -3.71476 3.78004e-21)
(4.92979 -3.89186 5.27711e-19)
(4.77231 -4.06483 0)
(6.27216 -0.0974957 -3.28376e-20)
(6.26674 -0.319282 3.28372e-20)
(6.25183 -0.541101 0)
(6.22743 -0.762506 1.23685e-19)
(6.19357 -0.983061 4.01765e-19)
(6.15032 -1.20234 -5.07788e-19)
(6.09776 -1.41991 -5.38568e-19)
(6.03598 -1.63539 0)
(5.96511 -1.84836 0)
(5.88527 -2.05845 0)
(5.79663 -2.26531 -9.9425e-19)
(5.69935 -2.46861 -6.41744e-20)
(5.59363 -2.66805 -5.04124e-19)
(5.47965 -2.86341 3.02091e-20)
(5.35771 -3.05446 -9.96967e-19)
(5.22802 -3.24136 1.51938e-18)
(5.0913 -3.42365 -1.43967e-18)
(4.94759 -3.60293 4.8871e-19)
(4.8002 -3.7762 9.36903e-19)
(4.64638 -3.94838 0)
(6.11307 -0.0961386 2.95015e-20)
(6.10722 -0.311393 0)
(6.0922 -0.526668 -1.21458e-19)
(6.06802 -0.741527 -2.50273e-19)
(6.03472 -0.955552 1.21306e-19)
(5.99235 -1.16833 9.68684e-19)
(5.94099 -1.37947 0)
(5.88074 -1.58857 -4.66542e-19)
(5.81172 -1.79527 -2.38621e-19)
(5.73403 -1.9992 -4.48284e-19)
(5.64783 -2.20003 -1.79369e-19)
(5.55326 -2.39744 -1.41529e-18)
(5.45048 -2.59117 -9.34183e-19)
(5.33963 -2.78101 9.60972e-19)
(5.22095 -2.96678 9.19849e-19)
(5.09446 -3.1487 -3.88487e-21)
(4.96098 -3.32643 2.99597e-20)
(4.81973 -3.50255 4.50307e-19)
(4.67584 -3.67327 -9.20601e-19)
(4.52256 -3.84848 0)
(5.96172 -0.0944667 -6.16935e-20)
(5.95557 -0.303466 3.03707e-20)
(5.94059 -0.512553 -1.21336e-19)
(5.91679 -0.721336 1.2128e-19)
(5.88417 -0.929424 -3.48818e-19)
(5.84279 -1.13643 -1.08617e-18)
(5.79272 -1.34196 0)
(5.73402 -1.54565 4.93638e-19)
(5.66678 -1.74715 -4.61569e-19)
(5.59112 -1.9461 9.77398e-19)
(5.50713 -2.1422 9.71594e-19)
(5.41493 -2.33513 1.43146e-18)
(5.31466 -2.52463 -9.28861e-19)
(5.20634 -2.71049 4.6267e-19)
(5.09022 -2.89254 -4.55012e-19)
(4.96594 -3.07098 4.55036e-19)
(4.83459 -3.24555 0)
(4.69347 -3.41948 4.11985e-19)
(4.55165 -3.58858 -4.03168e-19)
(4.39393 -3.77506 0)
(7.14017 7.26216 0)
(7.42015 6.97235 0)
(7.68721 6.67296 1.08762e-18)
(7.94209 6.36449 2.02663e-20)
(8.18419 6.04666 -1.15067e-18)
(8.41287 5.71953 0)
(8.6277 5.3835 1.18745e-18)
(8.82835 5.03911 -2.24039e-18)
(9.01452 4.68693 -1.13224e-18)
(9.18591 4.32758 -1.14282e-18)
(9.34224 3.96168 1.14282e-18)
(9.48331 3.58989 -1.15492e-18)
(9.60892 3.21289 5.76099e-19)
(9.71886 2.8314 5.49871e-19)
(9.81298 2.44606 5.52021e-19)
(9.89122 2.05756 -5.85831e-19)
(9.95357 1.66655 5.85831e-19)
(10.0001 1.27373 -2.94094e-19)
(10.0307 0.879506 -1.397e-19)
(10.046 0.485225 7.358e-20)
(7.41711 7.07045 0)
(7.6973 6.78103 -9.96674e-19)
(7.9637 6.48003 -2.13082e-18)
(8.2166 6.16815 3.15107e-18)
(8.45576 5.84569 -2.18515e-18)
(8.68066 5.51312 2.19593e-18)
(8.89084 5.17103 1.19383e-18)
(9.08587 4.82009 -3.38775e-18)
(9.26536 4.461 1.10827e-18)
(9.42897 4.09446 2.2032e-18)
(9.57637 3.72121 1.08549e-18)
(9.70732 3.342 1.09237e-18)
(9.82165 2.95763 -1.15272e-18)
(9.91914 2.56882 1.6974e-18)
(9.99952 2.17636 -2.35494e-18)
(10.0627 1.78114 5.81279e-19)
(10.1087 1.38394 -5.58575e-19)
(10.1375 0.985592 0)
(10.1492 0.586628 1.51572e-20)
(10.144 0.188025 0)
(7.27419 6.94574 -1.75501e-18)
(7.5572 6.67372 9.85272e-19)
(7.82767 6.38884 1.80234e-18)
(8.08515 6.09176 8.15963e-19)
(8.3292 5.78306 2.04344e-18)
(8.55931 5.46335 2.00452e-20)
(8.77495 5.13331 -1.02425e-18)
(8.97562 4.79362 -3.05252e-18)
(9.16088 4.44501 3.01368e-18)
(9.33029 4.0882 -3.09358e-18)
(9.48346 3.72393 -1.03065e-18)
(9.6201 3.35297 -2.06203e-18)
(9.73987 2.97614 0)
(9.84257 2.5942 0)
(9.92807 2.20806 0)
(9.9962 1.81862 -5.25611e-19)
(10.0468 1.42673 5.5048e-19)
(10.0798 1.03324 5.27307e-19)
(10.0951 0.638856 6.27063e-21)
(10.0928 0.244559 1.32437e-19)
(7.04695 6.69371 1.82269e-18)
(7.3267 6.44035 -1.65526e-18)
(7.59511 6.17387 -1.69639e-19)
(7.85145 5.8948 -1.70601e-19)
(8.09515 5.60372 4.30323e-18)
(8.32567 5.30123 -7.12679e-20)
(8.54245 4.98797 3.77755e-21)
(8.74497 4.66459 -2.72128e-18)
(8.93271 4.33177 1.79549e-18)
(9.10522 3.9902 0)
(9.262 3.64065 9.63013e-19)
(9.4027 3.28397 9.69678e-19)
(9.52704 2.92093 0)
(9.63472 2.55238 0)
(9.72551 2.17911 0)
(9.79922 1.80197 0)
(9.85564 1.42175 -2.1716e-20)
(9.89467 1.03934 4.74806e-19)
(9.91619 0.655544 -2.28009e-19)
(9.92019 0.271314 0)
(6.7843 6.37896 1.54377e-18)
(7.05619 6.14346 0)
(7.31786 5.89502 -4.54547e-18)
(7.56849 5.63407 -1.54934e-18)
(7.80745 5.36111 -1.62812e-18)
(8.03416 5.07671 -1.72589e-18)
(8.24805 4.78144 8.15427e-19)
(8.44856 4.47592 -8.56978e-19)
(8.63517 4.16077 2.37962e-18)
(8.80743 3.83667 -7.79041e-19)
(8.9649 3.5044 0)
(9.1071 3.16469 0)
(9.23364 2.81824 0)
(9.34424 2.46584 0)
(9.43864 2.10829 -1.23026e-18)
(9.51658 1.74641 4.23025e-19)
(9.57786 1.38099 -4.46852e-19)
(9.6223 1.01289 0)
(9.64978 0.642924 2.24868e-19)
(9.66022 0.272001 0)
(6.50936 6.05172 1.32074e-18)
(6.77103 5.83237 -4.79979e-20)
(7.0234 5.60049 2.7781e-18)
(7.26569 5.35642 1.38795e-18)
(7.49722 5.10062 0)
(7.71743 4.8336 -1.47386e-18)
(7.92574 4.55589 6.85316e-20)
(8.12161 4.26804 -1.49626e-18)
(8.30451 3.97065 2.07004e-18)
(8.47396 3.66436 3.27467e-20)
(8.62954 3.34981 2.81227e-20)
(8.77079 3.02764 -7.46664e-19)
(8.89731 2.69857 1.46438e-18)
(9.00877 2.36335 0)
(9.10491 2.02271 6.85888e-20)
(9.18542 1.67746 7.47635e-19)
(9.25004 1.32839 1.63935e-21)
(9.29858 0.976271 -1.53505e-20)
(9.33093 0.621906 0)
(9.34693 0.26613 -4.63517e-20)
(6.24351 5.73467 0)
(6.49384 5.52931 -4.89246e-20)
(6.73563 5.31194 1.75843e-20)
(6.96812 5.08285 -2.51139e-18)
(7.19066 4.84246 0)
(7.4027 4.59121 1.27018e-18)
(7.60367 4.32958 1.35293e-18)
(7.79306 4.0581 -3.93625e-18)
(7.97036 3.7773 -6.8303e-20)
(8.1351 3.48775 -1.26397e-18)
(8.28684 3.19005 6.95938e-19)
(8.42516 2.88481 -6.42883e-19)
(8.54965 2.57272 -7.06714e-19)
(8.65995 2.25445 0)
(8.75581 1.93074 3.72843e-19)
(8.83702 1.60218 -1.69143e-20)
(8.90321 1.26964 -3.46129e-19)
(8.95413 0.933845 -1.67762e-20)
(8.9897 0.595553 -8.71302e-20)
(9.00974 0.255535 1.74634e-19)
(5.99796 5.43943 0)
(6.2367 5.24592 1.08599e-18)
(6.46749 5.04097 1.61918e-20)
(6.68962 4.82483 -1.10215e-18)
(6.90247 4.59788 0)
(7.1055 4.36051 1.14663e-18)
(7.29818 4.11317 -1.09477e-18)
(7.48003 3.85632 -1.21191e-18)
(7.65055 3.59047 2.30526e-18)
(7.8093 3.31613 1.24387e-18)
(7.95585 3.03388 0)
(8.08981 2.7443 6.0671e-19)
(8.2108 2.44801 -4.39267e-21)
(8.31849 2.14565 2.18733e-20)
(8.41247 1.83789 0)
(8.49261 1.52536 -5.97208e-19)
(8.55873 1.20868 -3.12875e-19)
(8.61044 0.888651 4.57133e-19)
(8.6476 0.566013 3.08215e-19)
(8.67006 0.241471 -4.11971e-20)
(5.77639 5.17094 0)
(6.00387 4.98741 -9.37992e-19)
(6.22386 4.79301 0)
(6.43568 4.58798 -1.012e-18)
(6.63875 4.37262 1.99241e-18)
(6.83257 4.14732 -2.03194e-18)
(7.01663 3.91248 3.17955e-18)
(7.19048 3.66852 -3.17041e-18)
(7.35367 3.41591 -2.14203e-18)
(7.50578 3.15515 -1.57989e-18)
(7.64639 2.88677 5.41769e-19)
(7.77515 2.61131 -1.12319e-18)
(7.89169 2.32936 1.86548e-20)
(7.99568 2.04151 1.11652e-18)
(8.08684 1.74835 -2.8089e-19)
(8.16479 1.45061 1.15066e-18)
(8.22944 1.14878 -5.65942e-19)
(8.28063 0.84356 2.60755e-19)
(8.31807 0.535688 -1.48703e-19)
(8.34159 0.225832 0)
(5.57853 4.92959 0)
(5.79539 4.7545 1.81464e-18)
(6.00511 4.56911 8.80248e-19)
(6.20705 4.37362 -9.06079e-19)
(6.40066 4.1683 -1.8561e-18)
(6.58547 3.95348 2.82441e-18)
(6.76102 3.72954 1.12973e-20)
(6.92688 3.49688 -9.20635e-19)
(7.08264 3.25595 1.97643e-18)
(7.22791 3.0072 1.02076e-18)
(7.36229 2.75115 -9.53677e-19)
(7.48545 2.48832 5.00765e-19)
(7.59705 2.21923 2.25465e-20)
(7.69678 1.94447 -5.26922e-19)
(7.78436 1.6646 -2.55339e-19)
(7.85949 1.3802 5.11989e-19)
(7.92196 1.09198 -2.5665e-19)
(7.97165 0.80042 -5.17912e-19)
(8.00839 0.506216 6.00156e-20)
(8.03193 0.210012 6.4896e-20)