/*--------------------------------*- C++ -*----------------------------------*\
| =========                 |                                                 |
| \\      /  F ield         | OpenFOAM: The Open Source CFD Toolbox           |
|  \\    /   O peration     | Version:  v1912                                 |
|   \\  /    A nd           | Website:  www.openfoam.com                      |
|    \\/     M anipulation  |                                                 |
\*---------------------------------------------------------------------------*/
FoamFile
{
    version     2.0;
    format      ascii;
    class       volVectorField;
    location    "5.5";
    object      U;
}
// * * * * * * * * * * * * * * * * * * * * * * * * * * * * * * * * * * * * * //

dimensions      [0 1 -1 0 0 0 0];


internalField   nonuniform List<vector> 
9600
(
(0.46158 -9.53213 -1.3201e-19)
(0.1486 -8.91562 0)
(0.196424 -8.42666 -7.30876e-20)
(0.228808 -8.02384 0)
(0.25112 -7.67293 0)
(0.275177 -7.35183 -2.34751e-20)
(0.298407 -7.0486 -1.31244e-22)
(0.319057 -6.75729 1.83938e-20)
(0.336894 -6.47536 0)
(0.352 -6.20214 -3.02612e-20)
(0.364581 -5.93786 0)
(0.374937 -5.68313 -1.32475e-21)
(0.383414 -5.43854 -2.10137e-21)
(0.390363 -5.20453 -1.96011e-20)
(0.39612 -4.98129 1.58582e-20)
(0.400975 -4.76873 -1.55802e-20)
(0.405149 -4.56644 1.34306e-20)
(0.408942 -4.37381 0)
(0.412939 -4.18996 -1.02728e-20)
(0.416335 -4.01394 1.14535e-20)
(0.835335 -9.51201 -2.60119e-19)
(0.500165 -8.91969 1.22192e-20)
(0.5297 -8.43796 1.5125e-19)
(0.546872 -8.03949 -1.2258e-19)
(0.555687 -7.69094 1.2089e-19)
(0.567203 -7.37034 0)
(0.578407 -7.06634 4.39435e-20)
(0.587364 -6.77353 -4.32573e-20)
(0.593792 -6.48973 -7.2891e-20)
(0.597793 -6.21454 8.82426e-20)
(0.599611 -5.94836 -5.69949e-20)
(0.599595 -5.6919 -2.18881e-20)
(0.598127 -5.44583 4.48605e-20)
(0.595588 -5.21062 0)
(0.592327 -4.98647 0)
(0.588634 -4.77328 5.79448e-20)
(0.584715 -4.57062 -9.78082e-20)
(0.580875 -4.37782 0)
(0.57776 -4.19388 0)
(0.574299 -4.01781 -4.32745e-20)
(1.2087 -9.47795 5.36857e-19)
(0.852102 -8.91045 0)
(0.863953 -8.43624 -2.98962e-19)
(0.866415 -8.04268 -2.63595e-19)
(0.861917 -7.69691 0)
(0.860915 -7.37717 3.97344e-19)
(0.860029 -7.07277 -3.70268e-19)
(0.85717 -6.77885 6.95485e-20)
(0.852037 -6.49359 -1.55752e-19)
(0.844773 -6.21684 -2.48425e-19)
(0.835677 -5.94918 3.30734e-19)
(0.825152 -5.69142 -2.0086e-19)
(0.813625 -5.44428 -8.74125e-20)
(0.801507 -5.20828 0)
(0.789162 -4.98362 3.69509e-21)
(0.776876 -4.77019 6.15632e-20)
(0.764842 -4.56755 2.53894e-20)
(0.753369 -4.37495 0)
(0.743145 -4.19131 4.5485e-20)
(0.732798 -4.01556 4.67032e-20)
(1.58048 -9.42965 -7.21215e-19)
(1.20383 -8.88776 -3.23125e-19)
(1.19867 -8.42157 3.16146e-19)
(1.18688 -8.03337 5.14648e-19)
(1.1693 -7.69078 -2.47593e-19)
(1.15582 -7.37225 2.53249e-21)
(1.14278 -7.06783 1.8046e-19)
(1.12799 -6.77318 1.59336e-19)
(1.11116 -6.48686 2.83639e-19)
(1.09248 -6.20898 0)
(1.07234 -5.94028 1.01617e-19)
(1.05119 -5.68165 -1.1031e-19)
(1.0295 -5.43387 8.04321e-21)
(1.00773 -5.19749 1.65302e-19)
(0.986257 -4.97272 1.35852e-19)
(0.965356 -4.75944 -1.90496e-19)
(0.945205 -4.55721 6.25593e-20)
(0.92612 -4.3652 -9.78481e-20)
(0.908819 -4.18221 9.71965e-20)
(0.891587 -4.00719 -4.67057e-20)
(1.95037 -9.36712 3.62232e-19)
(1.55506 -8.85163 0)
(1.5335 -8.39395 3.02237e-19)
(1.50781 -8.01148 0)
(1.47734 -7.67243 0)
(1.45143 -7.35547 -2.19075e-19)
(1.42618 -7.05138 -3.7967e-19)
(1.39935 -6.7564 -3.08753e-19)
(1.37068 -6.46946 1.61898e-20)
(1.34046 -6.19088 -1.28254e-19)
(1.30915 -5.92158 0)
(1.27727 -5.66252 -1.01304e-19)
(1.24536 -5.41455 -1.79189e-19)
(1.21388 -5.17821 1.52977e-19)
(1.18325 -4.95373 -4.30669e-19)
(1.15372 -4.74101 6.98031e-20)
(1.12548 -4.53956 5.24782e-20)
(1.09882 -4.34852 -1.08934e-19)
(1.0745 -4.16658 -4.65362e-20)
(1.05041 -3.99269 1.37873e-19)
(2.31782 -9.29036 3.40169e-19)
(1.90531 -8.80198 3.21821e-19)
(1.86796 -8.35333 0)
(1.82873 -7.97696 0)
(1.78557 -7.64177 -4.5319e-19)
(1.74726 -7.32672 2.5607e-19)
(1.70974 -7.02334 5.7901e-19)
(1.67075 -6.72844 0)
(1.63013 -6.4413 1.44714e-19)
(1.58826 -6.16249 1.28254e-19)
(1.54567 -5.89304 -2.1861e-19)
(1.50299 -5.63402 3.1615e-19)
(1.46078 -5.38629 9.03181e-20)
(1.41956 -5.15042 0)
(1.37975 -4.92666 7.22821e-20)
(1.34162 -4.71488 3.15988e-19)
(1.30531 -4.51461 -1.88308e-19)
(1.27115 -4.32493 2.04383e-19)
(1.23989 -4.1444 -3.85982e-19)
(1.209 -3.97206 4.46962e-19)
(2.68229 -9.19942 3.43342e-19)
(2.25409 -8.7388 -1.7923e-18)
(2.20157 -8.29965 0)
(2.14915 -7.92972 0)
(2.09347 -7.59873 0)
(2.04279 -7.28593 -4.29067e-19)
(1.99294 -6.98364 0)
(1.94171 -6.68924 -6.52033e-19)
(1.88903 -6.40235 5.92306e-19)
(1.83539 -6.12377 -5.39528e-19)
(1.78145 -5.85465 0)
(1.72789 -5.59613 0)
(1.67535 -5.3491 0)
(1.62438 -5.11414 -1.6679e-19)
(1.57539 -4.8915 0)
(1.52868 -4.68107 0)
(1.48437 -4.48236 -2.30842e-19)
(1.44278 -4.29442 2.2681e-19)
(1.40467 -4.11569 0)
(1.36708 -3.94531 0)
(3.04323 -9.09437 -1.12383e-18)
(2.6009 -8.66208 7.08135e-19)
(2.53383 -8.23288 0)
(2.46857 -7.86973 0)
(2.40053 -7.54323 0)
(2.33752 -7.23304 4.04694e-19)
(2.27529 -6.93223 -4.03219e-19)
(2.21173 -6.63875 -4.0042e-21)
(2.14689 -6.35258 -5.85004e-19)
(2.0814 -6.0747 5.43073e-19)
(2.01603 -5.8064 -2.37397e-19)
(1.95155 -5.54885 4.0133e-19)
(1.88865 -5.30298 -3.54244e-20)
(1.82792 -5.06937 -3.5531e-19)
(1.76979 -4.84827 -2.89228e-19)
(1.71454 -4.63959 2.84158e-19)
(1.66229 -4.44284 0)
(1.61337 -4.25701 0)
(1.56854 -4.08046 1.93419e-19)
(1.52436 -3.91248 -2.15758e-19)
(3.40012 -8.97532 7.50285e-19)
(2.94521 -8.57184 6.7984e-19)
(2.86425 -8.153 -1.27249e-18)
(2.78648 -7.79693 5.92794e-19)
(2.70625 -7.47524 0)
(2.63092 -7.168 4.3388e-19)
(2.55627 -6.86907 -3.66335e-19)
(2.48029 -6.57696 1.02429e-18)
(2.40321 -6.29197 -1.85289e-20)
(2.3258 -6.01529 0)
(2.24895 -5.7483 4.77909e-19)
(2.17353 -5.49221 0)
(2.10026 -5.24796 0)
(2.02978 -5.01615 -1.57532e-19)
(1.96254 -4.79701 3.21238e-19)
(1.89882 -4.59047 0)
(1.83871 -4.39606 2.39821e-19)
(1.78257 -4.21273 9.56697e-20)
(1.73115 -4.03875 -2.13486e-19)
(1.68052 -3.87359 2.0524e-19)
(3.75239 -8.84242 -7.62881e-19)
(3.2865 -8.46813 6.86356e-19)
(3.19229 -8.06003 -1.92757e-18)
(3.10237 -7.71132 5.98713e-19)
(3.0101 -7.39473 0)
(2.92248 -7.09079 -8.6185e-19)
(2.83535 -6.79415 4.12178e-19)
(2.74689 -6.50386 0)
(2.6575 -6.22054 -3.07799e-19)
(2.56812 -5.94556 -5.18269e-19)
(2.47976 -5.68037 -4.36581e-19)
(2.39338 -5.42624 4.12449e-20)
(2.30976 -5.18409 4.05592e-19)
(2.22956 -4.95452 1.57455e-19)
(2.15326 -4.73776 -2.72525e-20)
(2.08112 -4.53377 -2.93734e-19)
(2.01325 -4.34207 -1.28146e-19)
(1.95 -4.16162 -1.14034e-19)
(1.89214 -3.99059 2.97689e-19)
(1.83524 -3.8287 -4.4992e-19)
(4.09953 -8.69582 7.62883e-19)
(3.62424 -8.35104 -4.22614e-20)
(3.51745 -7.95397 6.06526e-19)
(3.4157 -7.61289 0)
(3.31154 -7.3017 -4.78403e-19)
(3.21165 -7.00141 9.14642e-19)
(3.11201 -6.70747 -7.48919e-19)
(3.01101 -6.41947 7.36994e-19)
(2.90926 -6.13831 -2.81719e-19)
(2.80788 -5.86554 5.79652e-19)
(2.708 -5.60267 2.4356e-19)
(2.61066 -5.351 0)
(2.51672 -5.11142 0)
(2.42685 -4.88454 -1.62432e-19)
(2.34154 -4.67058 2.73947e-20)
(2.26106 -4.46952 5.72841e-19)
(2.18552 -4.28092 -1.4149e-19)
(2.1153 -4.10372 4.51334e-19)
(2.05116 -3.93601 7.33015e-20)
(1.98818 -3.77783 -4.5902e-19)
(4.44099 -8.5357 -2.32249e-18)
(3.95792 -8.22064 -7.48024e-19)
(3.8392 -7.83489 -1.95811e-18)
(3.72595 -7.50166 -1.15856e-18)
(3.61005 -7.19616 -5.40194e-19)
(3.49792 -6.89988 -5.2585e-19)
(3.38574 -6.60907 -1.64172e-18)
(3.27215 -6.32383 -3.79102e-20)
(3.15801 -6.04535 -1.25618e-18)
(3.0446 -5.77529 2.65616e-20)
(2.9332 -5.51526 -4.98845e-19)
(2.82494 -5.26654 -4.45833e-19)
(2.72072 -5.03002 3.99527e-19)
(2.62123 -4.80627 -3.59024e-19)
(2.52699 -4.59553 -3.23529e-19)
(2.43825 -4.39778 -2.9236e-19)
(2.35513 -4.21266 -7.7064e-19)
(2.27806 -4.03907 2.7796e-19)
(2.20781 -3.87507 6.51774e-19)
(2.13897 -3.72103 -6.95823e-19)
(4.77627 -8.36226 3.11273e-18)
(4.28702 -8.07708 3.68423e-18)
(4.15702 -7.70285 6.12156e-19)
(4.0326 -7.37768 2.87957e-18)
(3.90508 -7.07814 -5.53787e-19)
(3.78073 -6.78625 2.68048e-18)
(3.65599 -6.499 7.58405e-19)
(3.5298 -6.217 2.10301e-18)
(3.40324 -5.9417 -6.33738e-19)
(3.27781 -5.67489 1.71764e-18)
(3.15493 -5.41822 1.00328e-18)
(3.03578 -5.17295 8.96911e-19)
(2.92134 -4.93996 -1.18903e-18)
(2.81231 -4.71979 1.10105e-18)
(2.7092 -4.51268 6.5154e-19)
(2.61229 -4.31863 5.89015e-19)
(2.52169 -4.13732 5.33961e-19)
(2.43788 -3.96771 3.97838e-21)
(2.36169 -3.80778 4.41796e-19)
(2.28724 -3.65834 4.60056e-19)
(5.10488 -8.17572 -2.29163e-18)
(4.61106 -7.92048 8.25861e-19)
(4.47041 -7.55794 1.9619e-18)
(4.3351 -7.24101 -2.34738e-18)
(4.19609 -6.94771 5.39881e-19)
(4.05956 -6.66058 -1.78421e-18)
(3.92225 -6.37734 8.6534e-19)
(3.78344 -6.09907 -1.40079e-18)
(3.64447 -5.82747 3.78224e-20)
(3.50705 -5.56443 5.78624e-21)
(3.37272 -5.31163 -1.01426e-18)
(3.24277 -5.07031 -4.51078e-19)
(3.11818 -4.84132 8.13705e-19)
(2.99968 -4.62518 4.50538e-21)
(2.88778 -4.42209 -2.58924e-20)
(2.78277 -4.2321 -6.19187e-19)
(2.68477 -4.05497 -2.69047e-19)
(2.59434 -3.88967 -1.76891e-20)
(2.51237 -3.73419 -4.63336e-19)
(2.43256 -3.58983 -2.32252e-19)
(5.42635 -7.97633 0)
(4.92955 -7.75101 -1.50837e-18)
(4.77884 -7.40026 1.11688e-20)
(4.63294 -7.09173 2.31307e-18)
(4.48255 -6.80495 9.27634e-19)
(4.33386 -6.52295 -9.78839e-19)
(4.184 -6.24418 -8.15536e-19)
(4.03257 -5.97015 0)
(3.88123 -5.70277 -6.14704e-19)
(3.73187 -5.44403 5.80952e-19)
(3.58616 -5.1956 -2.87773e-20)
(3.44548 -4.95872 0)
(3.31083 -4.7342 -4.09231e-19)
(3.18295 -4.5225 3.42719e-19)
(3.06234 -4.32383 2.76534e-19)
(2.94929 -4.13824 -3.49488e-19)
(2.84395 -3.96559 -2.95765e-19)
(2.74695 -3.80493 5.00449e-19)
(2.6593 -3.65427 -4.56539e-19)
(2.57436 -3.51548 2.40448e-19)
(5.74027 -7.76431 2.33801e-18)
(5.24202 -7.56882 -1.5492e-18)
(5.08181 -7.22991 -1.26887e-18)
(4.92556 -6.92995 5.75235e-19)
(4.76391 -6.64998 -1.11732e-18)
(4.60312 -6.37351 0)
(4.44071 -6.09966 0)
(4.27671 -5.83037 0)
(4.11304 -5.56774 -3.33623e-20)
(3.95181 -5.3138 -1.16325e-18)
(3.79484 -5.07026 5.43796e-19)
(3.64353 -4.83831 4.43417e-19)
(3.49894 -4.61869 3.61708e-19)
(3.36178 -4.41184 -1.50267e-18)
(3.23254 -4.21794 7.06579e-19)
(3.1115 -4.03708 0)
(2.99884 -3.86919 -2.00728e-20)
(2.89527 -3.71344 -7.79661e-19)
(2.80195 -3.56793 -3.27434e-21)
(2.71205 -3.43505 -2.40554e-19)
(6.04631 -7.53997 -1.59745e-18)
(5.54803 -7.37412 -8.15506e-19)
(5.37879 -7.04705 5.69833e-19)
(5.21244 -6.75579 -1.31827e-19)
(5.03963 -6.48291 -3.20476e-18)
(4.86678 -6.21237 2.83395e-18)
(4.69187 -5.94393 -4.37285e-20)
(4.51535 -5.67989 7.41883e-19)
(4.33944 -5.42253 6.53792e-19)
(4.16647 -5.17392 5.87299e-19)
(3.99835 -4.93575 5.24559e-19)
(3.83656 -4.70918 9.17628e-19)
(3.68215 -4.4949 -4.39997e-19)
(3.53583 -4.29329 1.10726e-18)
(3.39807 -4.1045 -7.14165e-19)
(3.26911 -3.92866 -2.85514e-19)
(3.14915 -3.76579 1.15066e-18)
(3.03898 -3.61521 7.5476e-19)
(2.94002 -3.47505 -1.79642e-20)
(2.84548 -3.34815 0)
(6.34451 -7.30384 -8.0734e-19)
(5.84731 -7.16715 1.54441e-18)
(5.66924 -6.85176 1.30026e-18)
(5.49299 -6.56933 -1.32786e-19)
(5.30915 -6.30386 -1.08453e-18)
(5.12429 -6.03968 5.82009e-20)
(4.93696 -5.77714 6.39096e-21)
(4.74801 -5.51889 5.75964e-21)
(4.55999 -5.26732 0)
(4.37541 -5.02455 5.67788e-19)
(4.19631 -4.79224 -1.07799e-18)
(4.02421 -4.57148 -4.47795e-19)
(3.86014 -4.36293 4.44015e-19)
(3.7048 -4.1669 -3.80373e-19)
(3.55859 -3.98354 3.47081e-19)
(3.42176 -3.81299 -3.11754e-19)
(3.29449 -3.6554 2.85811e-21)
(3.17772 -3.51015 -2.58567e-19)
(3.07325 -3.37542 -2.36296e-19)
(2.97468 -3.25516 -2.35877e-19)
(6.63525 -7.05646 0)
(6.13975 -6.94791 -7.39825e-19)
(5.95267 -6.64398 7.31344e-19)
(5.76661 -6.37068 1.22657e-18)
(5.57189 -6.11301 -1.08412e-18)
(5.37513 -5.85567 9.07623e-19)
(5.17546 -5.59956 -1.73661e-18)
(4.97422 -5.34762 -1.50081e-18)
(4.77425 -5.10237 -6.35994e-19)
(4.57827 -4.86594 3.32539e-20)
(4.3884 -4.63993 -5.078e-19)
(4.20619 -4.42539 2.51248e-20)
(4.03265 -4.2229 0)
(3.86842 -4.03273 -7.40553e-19)
(3.71382 -3.855 3.80498e-19)
(3.56901 -3.68989 0)
(3.43421 -3.53756 -2.86414e-19)
(3.31041 -3.39741 -5.0674e-19)
(3.19961 -3.26833 4.97922e-19)
(3.09631 -3.1574 2.4366e-19)
(6.91818 -6.79706 0)
(6.42488 -6.71567 0)
(6.22854 -6.42361 -1.31881e-18)
(6.03267 -6.16013 -1.09196e-18)
(5.82727 -5.91075 2.23544e-18)
(5.61879 -5.66073 0)
(5.40694 -5.41155 0)
(5.19359 -5.16646 7.53164e-19)
(4.98189 -4.92804 0)
(4.77474 -4.69842 0)
(4.57437 -4.47915 0)
(4.38234 -4.27119 0)
(4.19962 -4.07505 0)
(4.02675 -3.89091 0)
(3.86392 -3.71886 0)
(3.71114 -3.55901 0)
(3.56853 -3.41134 0)
(3.43667 -3.27541 0)
(3.31607 -3.15239 0)
(3.20288 -3.05257 0)
(9.87446 0.086659 1.08756e-19)
(9.86018 -0.302343 2.101e-19)
(9.83095 -0.68918 -2.17433e-19)
(9.78736 -1.0737 4.34093e-19)
(9.72908 -1.45559 -4.34092e-19)
(9.6559 -1.8344 -4.04239e-19)
(9.56792 -2.20958 -4.03516e-19)
(9.46534 -2.58063 1.29332e-18)
(9.34834 -2.94699 -8.61859e-19)
(9.21715 -3.30812 8.57028e-19)
(9.07201 -3.6635 -8.5703e-19)
(8.91319 -4.01261 8.52771e-19)
(8.74099 -4.35492 -1.69586e-18)
(8.55571 -4.68994 2.48531e-18)
(8.35769 -5.0172 0)
(8.14728 -5.33624 -2.45628e-18)
(7.92483 -5.64667 7.96301e-21)
(7.69084 -5.94811 2.49693e-18)
(7.44536 -6.24042 0)
(7.19002 -6.5229 0)
(9.65329 -0.213597 0)
(9.62323 -0.592242 -1.38666e-20)
(9.57741 -0.968071 0)
(9.51655 -1.34076 3.96908e-19)
(9.44083 -1.70993 4.18324e-19)
(9.35027 -2.07508 -1.19895e-18)
(9.24513 -2.43563 2.11917e-18)
(9.1257 -2.79102 -8.33751e-19)
(8.99226 -3.14068 -7.87403e-19)
(8.84512 -3.48409 -7.8519e-19)
(8.6846 -3.82072 4.15435e-20)
(8.51106 -4.15005 8.18083e-19)
(8.32487 -4.47161 -4.05492e-18)
(8.12642 -4.78492 -8.73352e-19)
(7.91611 -5.08956 1.62855e-18)
(7.69436 -5.38511 1.63909e-18)
(7.46155 -5.67121 8.42053e-19)
(7.21815 -5.94754 -1.60464e-18)
(6.96421 -6.21389 7.54215e-19)
(6.70055 -6.46995 0)
(9.37396 -0.160379 9.2495e-20)
(9.34745 -0.526281 -1.90611e-19)
(9.30509 -0.890026 5.45713e-19)
(9.24737 -1.25098 -3.92505e-19)
(9.17466 -1.60856 -3.70088e-19)
(9.08709 -1.96222 3.91579e-19)
(8.985 -2.31132 0)
(8.86868 -2.65526 0)
(8.73845 -2.99347 1.47545e-18)
(8.59465 -3.32538 2.20311e-18)
(8.43763 -3.65046 -6.87246e-19)
(8.26778 -3.9682 2.18249e-18)
(8.08549 -4.27809 -6.85207e-19)
(7.89118 -4.57966 -2.12637e-18)
(7.68527 -4.87248 6.72309e-21)
(7.46821 -5.15613 1.35564e-18)
(7.24039 -5.43022 -5.97063e-19)
(7.00227 -5.69438 -1.34355e-18)
(6.75407 -5.94829 -7.4557e-19)
(6.49617 -6.19132 1.32758e-18)
(9.04273 -0.132554 0)
(9.02082 -0.483632 1.54886e-19)
(8.9835 -0.833194 1.5394e-19)
(8.93111 -1.18043 -6.37314e-19)
(8.86393 -1.52466 0)
(8.78211 -1.86529 0)
(8.68596 -2.20169 0)
(8.57577 -2.53323 0)
(8.45183 -2.85933 -6.88199e-19)
(8.3145 -3.17941 -6.86371e-19)
(8.16411 -3.49293 0)
(8.00106 -3.79933 1.28679e-18)
(7.82574 -4.09813 -3.17762e-18)
(7.63856 -4.38882 2.5649e-18)
(7.43995 -4.67095 -2.47823e-18)
(7.23036 -4.94408 -6.01947e-19)
(7.01021 -5.2078 1.37777e-19)
(6.77994 -5.46168 1.37053e-19)
(6.53994 -5.70536 -1.24283e-18)
(6.29066 -5.93829 -6.78352e-20)
(8.67785 -0.122555 0)
(8.66052 -0.457784 -1.52752e-19)
(8.62839 -0.791938 0)
(8.58171 -1.12423 3.05857e-19)
(8.52068 -1.45395 2.88664e-19)
(8.4454 -1.78048 2.59002e-19)
(8.35616 -2.10321 0)
(8.25322 -2.42152 0)
(8.13686 -2.7348 0)
(8.00737 -3.04248 0)
(7.86511 -3.34399 5.42399e-19)
(7.71042 -3.6388 5.96534e-19)
(7.5437 -3.92638 5.96311e-19)
(7.36534 -4.20623 -6.03011e-19)
(7.17575 -4.47788 -1.0052e-18)
(6.97538 -4.74087 1.1855e-18)
(6.76465 -4.99476 2.29089e-18)
(6.54401 -5.23911 1.11357e-18)
(6.31393 -5.47354 0)
(6.07483 -5.69753 -1.03941e-18)
(8.29683 -0.114579 3.01967e-20)
(8.28375 -0.433452 0)
(8.2566 -0.75161 -4.97407e-19)
(8.21553 -1.06833 -9.50607e-23)
(8.16067 -1.38291 1.27013e-20)
(8.09209 -1.69474 -5.48528e-20)
(8.01007 -2.00322 0)
(7.91481 -2.30774 2.48421e-20)
(7.80656 -2.60771 -5.08501e-19)
(7.68559 -2.90255 9.87723e-19)
(7.55221 -3.19171 -1.04057e-18)
(7.40676 -3.47465 5.81057e-19)
(7.24958 -3.75084 -2.96162e-18)
(7.08106 -4.01979 1.95203e-18)
(6.90159 -4.28101 1.05268e-18)
(6.71157 -4.53403 0)
(6.51145 -4.7784 -1.91958e-18)
(6.30166 -5.01367 -5.3594e-20)
(6.08265 -5.23945 -1.89751e-18)
(5.85484 -5.45524 1.99576e-18)
(7.91433 -0.108823 2.66148e-20)
(7.90476 -0.411388 -5.63479e-20)
(7.88185 -0.713533 4.64559e-19)
(7.84572 -1.01458 -1.08392e-20)
(7.79642 -1.31388 4.64833e-19)
(7.73405 -1.61084 -7.03411e-19)
(7.6588 -1.90485 0)
(7.57088 -2.19535 4.76238e-19)
(7.47047 -2.48176 4.28344e-19)
(7.35785 -2.76352 -4.74217e-19)
(7.23326 -3.04009 8.522e-19)
(7.09703 -3.31094 1.83381e-18)
(6.94946 -3.57557 -8.39427e-19)
(6.79092 -3.83346 -9.31754e-19)
(6.62176 -4.08415 8.83887e-19)
(6.44239 -4.32715 0)
(6.2532 -4.56203 5.14567e-20)
(6.05462 -4.78834 4.98193e-21)
(5.8471 -5.00565 1.77748e-18)
(5.63101 -5.21349 8.15819e-19)
(7.54103 -0.10542 0)
(7.53406 -0.392158 4.74244e-21)
(7.5145 -0.678699 -9.08286e-20)
(7.48242 -0.964418 -4.12464e-19)
(7.43784 -1.24869 3.82963e-19)
(7.38084 -1.53096 0)
(7.3116 -1.81065 7.83318e-19)
(7.23026 -2.08722 -6.82622e-22)
(7.13702 -2.36012 -1.20281e-18)
(7.03208 -2.62881 0)
(6.91571 -2.89276 -8.38636e-19)
(6.78815 -3.15149 3.58663e-20)
(6.64972 -3.40448 -2.33178e-18)
(6.50073 -3.65125 3.43872e-21)
(6.34153 -3.89134 7.84659e-19)
(6.17249 -4.12429 0)
(5.99398 -4.34964 -7.72706e-19)
(5.80642 -4.56696 4.5022e-21)
(5.61022 -4.77583 7.68212e-19)
(5.40576 -4.97576 -8.0283e-19)
(7.18369 -0.103537 0)
(7.17852 -0.3752 9.39646e-20)
(7.16147 -0.646817 1.96282e-19)
(7.13258 -0.917813 -3.57921e-19)
(7.09187 -1.18761 -1.87309e-20)
(7.03938 -1.45566 -1.78964e-19)
(6.97528 -1.72144 -7.17487e-19)
(6.89969 -1.98443 3.56537e-19)
(6.81277 -2.24411 1.82946e-20)
(6.71472 -2.49997 3.54696e-19)
(6.60576 -2.75152 3.21358e-19)
(6.48613 -2.99827 1.41659e-18)
(6.3561 -3.23975 7.09502e-19)
(6.21597 -3.47549 1.39979e-18)
(6.06607 -3.70505 -6.98301e-19)
(5.90673 -3.92798 3.0052e-20)
(5.73833 -4.14384 -6.91191e-19)
(5.56124 -4.3522 0)
(5.37588 -4.55264 6.49493e-19)
(5.18258 -4.74469 0)
(6.84604 -0.102531 3.9905e-20)
(6.84203 -0.359992 -1.16341e-19)
(6.82679 -0.617511 3.21022e-19)
(6.80037 -0.87455 -1.60071e-19)
(6.76275 -1.13057 1.38233e-20)
(6.71399 -1.38506 -1.60021e-19)
(6.65422 -1.63753 3.35618e-19)
(6.58356 -1.88748 -3.18637e-19)
(6.50214 -2.13442 3.18636e-19)
(6.41014 -2.37788 6.0693e-19)
(6.30777 -2.61739 -6.64741e-19)
(6.19523 -2.85249 -3.3363e-20)
(6.07279 -3.08273 -1.91479e-18)
(5.94072 -3.30768 3.00799e-21)
(5.79932 -3.5269 2.92411e-20)
(5.64893 -3.73998 1.24075e-18)
(5.48988 -3.94649 -6.12928e-19)
(5.32255 -4.14601 -5.79843e-19)
(5.14734 -4.33813 -2.94799e-20)
(4.96456 -4.52237 0)
(6.52972 -0.101966 0)
(6.52636 -0.346153 1.46888e-19)
(6.51238 -0.590459 -5.03455e-19)
(6.48782 -0.834385 -1.31751e-19)
(6.45267 -1.07743 3.01059e-19)
(6.40697 -1.3191 0)
(6.35083 -1.55895 0)
(6.28436 -1.79651 2.85713e-19)
(6.20769 -2.03131 -2.85712e-19)
(6.12097 -2.26291 2.32267e-19)
(6.02439 -2.49088 -2.83964e-19)
(5.91816 -2.71477 5.63336e-19)
(5.80249 -2.93418 -1.12402e-18)
(5.67767 -3.14868 1.11849e-18)
(5.54396 -3.35789 2.60292e-20)
(5.40169 -3.56139 -5.80632e-19)
(5.2512 -3.75879 -5.48149e-19)
(5.09284 -3.94969 1.12186e-18)
(4.92701 -4.13367 5.19152e-19)
(4.75402 -4.31027 0)
(6.23491 -0.101539 1.3084e-21)
(6.23183 -0.333378 9.4396e-20)
(6.21871 -0.565368 1.99983e-19)
(6.19555 -0.797042 1.41271e-19)
(6.16236 -1.02793 1.29274e-19)
(6.11917 -1.25758 1.18777e-19)
(6.06609 -1.48555 0)
(6.0032 -1.71142 -4.94051e-19)
(5.93062 -1.93474 -2.56258e-19)
(5.8485 -2.1551 2.11564e-19)
(5.75701 -2.37208 0)
(5.65634 -2.5853 5.06165e-19)
(5.54671 -2.79435 -1.49388e-18)
(5.42836 -2.99885 5.03594e-19)
(5.30157 -3.19843 0)
(5.16664 -3.39273 -4.75663e-19)
(5.0239 -3.58135 -9.64228e-19)
(4.87372 -3.76393 4.7269e-19)
(4.7165 -3.94006 -2.18524e-20)
(4.55254 -4.10927 0)
(5.96094 -0.101064 2.38261e-21)
(5.95791 -0.321444 -6.09564e-20)
(5.94534 -0.541984 1.16924e-19)
(5.92326 -0.762246 -8.91967e-21)
(5.89164 -0.981791 2.33698e-19)
(5.85054 -1.2002 -3.6054e-19)
(5.80003 -1.41705 0)
(5.74021 -1.63194 3.86828e-20)
(5.67119 -1.84446 0)
(5.59309 -2.05422 -4.82311e-19)
(5.50608 -2.26084 0)
(5.41034 -2.46394 -4.39379e-19)
(5.30607 -2.66316 1.36643e-18)
(5.19351 -2.85815 -9.04821e-19)
(5.07291 -3.04856 4.51072e-19)
(4.94458 -3.23407 -3.90129e-19)
(4.80885 -3.41432 4.6437e-19)
(4.66609 -3.58897 -4.61243e-19)
(4.51671 -3.75761 0)
(4.36106 -3.91977 0)
(5.70667 -0.100457 2.75557e-20)
(5.70354 -0.310196 0)
(5.69134 -0.520097 0)
(5.67009 -0.729747 -2.20979e-19)
(5.63976 -0.93873 -2.04102e-19)
(5.60041 -1.14665 0)
(5.55211 -1.35312 0)
(5.49495 -1.55774 3.36167e-20)
(5.42904 -1.76014 4.03887e-19)
(5.35449 -1.95995 -1.93697e-19)
(5.27145 -2.15682 -2.08456e-19)
(5.18009 -2.35038 8.44283e-19)
(5.0806 -2.54032 -1.25203e-18)
(4.97322 -2.72632 8.03219e-19)
(4.85818 -2.90806 0)
(4.73578 -3.08524 1.61784e-18)
(4.60636 -3.25757 -1.16862e-18)
(4.47031 -3.42472 3.99044e-19)
(4.32808 -3.5863 7.58063e-19)
(4.18003 -3.74188 0)
(5.47082 -0.0996584 -2.32364e-20)
(5.46749 -0.299515 0)
(5.45553 -0.499537 -3.38713e-21)
(5.43492 -0.699323 -1.86094e-19)
(5.40567 -0.898482 5.79206e-19)
(5.36782 -1.09664 -9.63005e-20)
(5.32145 -1.29342 0)
(5.26664 -1.48846 7.67238e-19)
(5.20347 -1.6814 -3.96814e-19)
(5.13207 -1.8719 2.93626e-20)
(5.05258 -2.05963 3.63798e-19)
(4.96515 -2.24425 3.74244e-19)
(4.86997 -2.42548 -7.46074e-19)
(4.76723 -2.60301 -7.28004e-19)
(4.6572 -2.77657 -7.08369e-19)
(4.54014 -2.94593 -7.61698e-19)
(4.41641 -3.1108 7.56098e-19)
(4.2864 -3.27096 -3.58282e-19)
(4.15065 -3.42599 -3.86503e-19)
(4.00955 -3.57554 0)
(5.252 -0.0986304 2.28292e-20)
(5.24843 -0.28932 -8.51033e-20)
(5.23661 -0.480164 -8.85175e-20)
(5.21654 -0.670781 2.64968e-19)
(5.18822 -0.8608 -9.48179e-20)
(5.15169 -1.04987 -8.78658e-20)
(5.10703 -1.23763 0)
(5.05431 -1.42374 -3.62498e-19)
(4.99362 -1.60786 0)
(4.92507 -1.78967 3.59337e-19)
(4.84879 -1.96886 -6.89135e-19)
(4.76492 -2.14513 3.40502e-19)
(4.67364 -2.31819 -6.78625e-19)
(4.57514 -2.48779 7.03632e-19)
(4.46964 -2.65371 3.87122e-19)
(4.35741 -2.81573 0)
(4.23881 -2.97366 -3.27587e-19)
(4.11423 -3.12735 3.27588e-19)
(3.98434 -3.27639 0)
(3.84952 -3.42066 0)
(5.04888 -0.0974133 0)
(5.04505 -0.27958 8.3613e-20)
(5.03334 -0.461884 2.97874e-21)
(5.01375 -0.643964 -8.65253e-20)
(4.98626 -0.825471 -7.53472e-20)
(4.95093 -1.00607 -8.04156e-20)
(4.90784 -1.18543 3.09738e-19)
(4.85703 -1.36322 0)
(4.79862 -1.53913 0)
(4.7327 -1.71284 1.5745e-19)
(4.65939 -1.88407 1.68456e-19)
(4.57882 -2.05253 6.02487e-19)
(4.49115 -2.21799 -3.08347e-19)
(4.39656 -2.3802 3.08347e-19)
(4.29524 -2.53898 3.29888e-19)
(4.18744 -2.69418 2.12746e-20)
(4.07351 -2.84566 -5.98567e-19)
(3.95383 -2.99342 2.57203e-21)
(3.82924 -3.13703 2.95388e-19)
(3.7 -3.27691 0)
(4.86025 -0.0960096 -1.85188e-20)
(4.85618 -0.270275 1.85187e-20)
(4.84457 -0.44466 0)
(4.82542 -0.618819 6.9488e-20)
(4.79871 -0.792429 2.27023e-19)
(4.76452 -0.965173 -2.85628e-19)
(4.72289 -1.13674 -3.04328e-19)
(4.6739 -1.30681 0)
(4.61764 -1.47509 0)
(4.55421 -1.64129 0)
(4.48371 -1.80514 -5.5661e-19)
(4.40627 -1.96638 -3.95068e-20)
(4.32202 -2.12479 -2.82015e-19)
(4.23112 -2.28015 1.84142e-20)
(4.13374 -2.43232 -5.5651e-19)
(4.03007 -2.58121 8.49386e-19)
(3.92046 -2.72678 -7.9919e-19)
(3.8052 -2.86917 2.71701e-19)
(3.68542 -3.008 5.17463e-19)
(3.56088 -3.1443 0)
(4.68495 -0.0941971 1.65454e-20)
(4.68069 -0.261288 0)
(4.66922 -0.428484 -6.82299e-20)
(4.6505 -0.595462 -1.40872e-19)
(4.62456 -0.761922 6.81285e-20)
(4.59143 -0.927566 5.43861e-19)
(4.5512 -1.09209 0)
(4.50392 -1.25521 -2.60951e-19)
(4.44969 -1.41664 -1.33484e-19)
(4.38858 -1.57612 -2.49612e-19)
(4.32071 -1.73337 -9.76984e-20)
(4.24618 -1.88818 -7.89655e-19)
(4.16511 -2.04033 -5.20019e-19)
(4.07761 -2.18963 5.36118e-19)
(3.98382 -2.33597 5.10348e-19)
(3.88386 -2.4793 -2.60944e-21)
(3.77805 -2.61972 1.8319e-20)
(3.66641 -2.75755 2.48697e-19)
(3.55062 -2.89278 -5.08458e-19)
(3.42916 -3.02701 0)
(4.52185 -0.0922981 -3.45954e-20)
(4.51749 -0.252621 1.70221e-20)
(4.50623 -0.4131 -6.80167e-20)
(4.48804 -0.573441 6.79957e-20)
(4.46292 -0.733367 -1.95184e-19)
(4.43091 -0.892604 -6.08498e-19)
(4.39209 -1.05087 0)
(4.34651 -1.20788 2.76539e-19)
(4.29423 -1.36338 -2.57308e-19)
(4.23534 -1.51712 5.46355e-19)
(4.16992 -1.66884 5.42399e-19)
(4.09805 -1.81834 7.97127e-19)
(4.01981 -1.96541 -5.15693e-19)
(3.93529 -2.10987 2.56657e-19)
(3.84456 -2.25164 -2.51446e-19)
(3.74763 -2.39065 2.51477e-19)
(3.64478 -2.52712 0)
(3.5354 -2.66146 2.24759e-19)
(3.42261 -2.79446 -2.18633e-19)
(3.30199 -2.93062 0)
(6.96975 7.09068 0)
(7.24379 6.80838 0)
(7.50554 6.51689 8.08111e-19)
(7.75572 6.21671 1.2553e-20)
(7.99373 5.90747 -8.67079e-19)
(8.21893 5.58916 0)
(8.43093 5.26215 8.9035e-19)
(8.62943 4.92693 -1.65733e-18)
(8.81411 4.58403 -8.36429e-19)
(8.98468 4.23402 -8.43365e-19)
(9.14087 3.87748 8.43362e-19)
(9.28242 3.51503 -8.5143e-19)
(9.40913 3.14726 4.24797e-19)
(9.52083 2.7748 3.9882e-19)
(9.61739 2.39831 4.00305e-19)
(9.69871 2.01841 -4.31589e-19)
(9.76471 1.63572 4.31589e-19)
(9.81542 1.2509 -2.16738e-19)
(9.85079 0.864329 -1.01404e-19)
(9.87121 0.477301 5.4234e-20)
(7.01756 6.68299 0)
(7.28184 6.40758 -7.09626e-19)
(7.53331 6.12168 -1.53014e-18)
(7.77242 5.82599 2.25432e-18)
(7.99904 5.5208 -1.57356e-18)
(8.21264 5.2063 1.57092e-18)
(8.41285 4.88305 8.67786e-19)
(8.59929 4.5516 -2.42822e-18)
(8.77163 4.21254 7.91956e-19)
(8.92955 3.86647 1.56358e-18)
(9.07272 3.51407 7.6559e-19)
(9.20084 3.156 7.70123e-19)
(9.31368 2.79287 -8.20996e-19)
(9.4111 2.42537 1.20072e-18)
(9.49297 2.05422 -1.68487e-18)
(9.55919 1.6801 4.13849e-19)
(9.60967 1.30366 -3.93501e-19)
(9.64444 0.925611 0)
(9.66338 0.546379 1.39047e-20)
(9.66666 0.166827 0)
(6.73626 6.43314 -1.22337e-18)
(6.99608 6.17708 7.01506e-19)
(7.24433 5.90968 1.25251e-18)
(7.48083 5.63166 5.50371e-19)
(7.7053 5.34357 1.44541e-18)
(7.91725 5.0458 1.25677e-20)
(8.1163 4.73894 -7.229e-19)
(8.30202 4.42357 -2.13948e-18)
(8.47403 4.10029 2.1026e-18)
(8.63203 3.76973 -2.16578e-18)
(8.77577 3.43248 -7.20469e-19)
(8.9048 3.08912 -1.43874e-18)
(9.01882 2.74032 0)
(9.11768 2.38686 0)
(9.20123 2.02943 0)
(9.2693 1.66875 -3.65882e-19)
(9.32177 1.30546 3.87779e-19)
(9.35857 0.940277 3.67098e-19)
(9.37962 0.573782 5.5143e-21)
(9.38475 0.206779 9.22381e-20)
(6.43046 6.1196 1.28015e-18)
(6.68196 5.88186 -1.13946e-18)
(6.92311 5.6328 -1.42044e-19)
(7.15343 5.37304 -1.42634e-19)
(7.37249 5.10314 2.94436e-18)
(7.5798 4.82352 -6.07293e-20)
(7.77495 4.53473 5.84847e-22)
(7.95752 4.23734 -1.86582e-18)
(8.12711 3.9319 1.22687e-18)
(8.28328 3.61897 0)
(8.4257 3.29907 6.6447e-19)
(8.55412 2.97281 6.68819e-19)
(8.66822 2.64102 0)
(8.76781 2.30436 0)
(8.85263 1.96346 0)
(8.92246 1.61901 0)
(8.97716 1.27166 -1.77402e-20)
(9.01663 0.922123 3.2369e-19)
(9.04078 0.571067 -1.53999e-19)
(9.04943 0.219257 0)
(6.12265 5.78097 1.05247e-18)
(6.36353 5.55991 0)
(6.59504 5.32792 -3.05701e-18)
(6.81665 5.0855 -1.04236e-18)
(7.02783 4.83315 -1.10462e-18)
(7.22809 4.57125 -1.17873e-18)
(7.41703 4.30031 5.5311e-19)
(7.5942 4.02084 -5.79334e-19)
(7.75919 3.73334 1.58744e-18)
(7.91159 3.43833 -5.16084e-19)
(8.051 3.13642 0)
(8.17722 2.82827 0)
(8.28992 2.51451 0)
(8.38878 2.19571 0)
(8.4736 1.87242 -8.16947e-19)
(8.54415 1.54538 2.82601e-19)
(8.60023 1.21525 -3.01737e-19)
(8.64174 0.882698 0)
(8.66859 0.548404 1.51878e-19)
(8.68058 0.213068 0)
(5.81906 5.44748 8.69723e-19)
(6.04838 5.24153 -4.06277e-20)
(6.26916 5.02518 1.83744e-18)
(6.48085 4.79883 9.13993e-19)
(6.68291 4.56289 0)
(6.87485 4.31772 -9.78175e-19)
(7.05627 4.06381 5.32885e-20)
(7.22674 3.80159 -9.89787e-19)
(7.38584 3.53155 1.34342e-18)
(7.53319 3.2542 2.68983e-20)
(7.66841 2.9701 2.26954e-20)
(7.79122 2.67982 -4.89218e-19)
(7.90133 2.38387 9.55247e-19)
(7.99837 2.08281 0)
(8.08218 1.77728 5.45166e-20)
(8.15259 1.46784 4.8777e-19)
(8.20931 1.15518 1.10565e-21)
(8.25219 0.839955 -1.21472e-20)
(8.28115 0.522818 0)
(8.29597 0.204399 -3.01263e-20)
(5.52984 5.12948 0)
(5.74736 4.93702 -4.11099e-20)
(5.95701 4.73471 1.09727e-20)
(6.15827 4.52288 -1.62521e-18)
(6.35062 4.3019 0)
(6.53357 4.0721 8.16624e-19)
(6.70674 3.83392 8.78902e-19)
(6.8697 3.58777 -2.53944e-18)
(7.02208 3.33409 -5.31151e-20)
(7.16348 3.07334 -8.05076e-19)
(7.29357 2.80603 4.51901e-19)
(7.41204 2.53266 -4.09597e-19)
(7.51858 2.25374 -4.58886e-19)
(7.61293 1.96981 0)
(7.69475 1.68147 2.44299e-19)
(7.76392 1.38924 -1.3178e-20)
(7.82032 1.09369 -2.22657e-19)
(7.86368 0.795485 -1.31097e-20)
(7.89388 0.495262 -5.60753e-20)
(7.91071 0.1936 1.1246e-19)
(5.26003 4.83175 0)
(5.46595 4.65123 6.84201e-19)
(5.66457 4.46142 1.01707e-20)
(5.85539 4.26261 -6.94355e-19)
(6.0379 4.05511 0)
(6.21166 3.83925 7.22528e-19)
(6.37628 3.61539 -6.83408e-19)
(6.53138 3.38393 -7.70208e-19)
(6.67657 3.14527 1.4469e-18)
(6.81152 2.89983 7.92271e-19)
(6.93588 2.64808 0)
(7.04936 2.39048 3.83545e-19)
(7.15166 2.12751 -2.88071e-21)
(7.24252 1.85969 1.68431e-20)
(7.32167 1.58752 0)
(7.38887 1.3116 -3.74142e-19)
(7.44401 1.03243 -1.97702e-19)
(7.48698 0.750506 2.87321e-19)
(7.51757 0.466515 1.94066e-19)
(7.53552 0.180995 -2.62958e-20)
(5.01077 4.55614 0)
(5.2056 4.38623 -5.72838e-19)
(5.3936 4.20758 0)
(5.57429 4.02044 -6.2477e-19)
(5.7472 3.82508 1.22465e-18)
(5.9119 3.62179 -1.24998e-18)
(6.06804 3.41092 1.97217e-18)
(6.21524 3.19282 -1.96189e-18)
(6.35317 2.96786 -1.32677e-18)
(6.48148 2.73644 -9.72769e-19)
(6.59986 2.49898 3.35469e-19)
(6.70802 2.25592 -6.99456e-19)
(6.8057 2.00771 1.4116e-20)
(6.89262 1.75484 6.93263e-19)
(6.96856 1.49777 -1.74344e-19)
(7.0333 1.23704 7.1768e-19)
(7.08661 0.97317 -3.51492e-19)
(7.12845 0.706668 1.59031e-19)
(7.15872 0.43796 -9.32541e-20)
(7.17707 0.167687 0)
(4.78145 4.30239 0)
(4.96586 4.14198 1.10254e-18)
(5.14383 3.97336 5.27883e-19)
(5.31492 3.79674 -5.48068e-19)
(5.47867 3.61234 -1.12544e-18)
(5.63468 3.42043 1.71367e-18)
(5.78262 3.22134 7.35028e-21)
(5.92215 3.01538 -5.53227e-19)
(6.05295 2.8029 1.20675e-18)
(6.17469 2.58428 6.26638e-19)
(6.28709 2.3599 -5.76048e-19)
(6.38988 2.13019 3.05167e-19)
(6.48279 1.89555 1.66846e-20)
(6.56557 1.65645 -3.24256e-19)
(6.63802 1.41334 -1.55906e-19)
(6.69992 1.16669 3.12703e-19)
(6.75113 0.916986 -1.56797e-19)
(6.79139 0.664768 -3.16962e-19)