/*--------------------------------*- C++ -*----------------------------------*\
  =========                 |
  \\      /  F ield         | OpenFOAM: The Open Source CFD Toolbox
   \\    /   O peration     | Website:  https://openfoam.org
    \\  /    A nd           | Version:  6.0
     \\/     M anipulation  |
\*---------------------------------------------------------------------------*/
FoamFile
{
    version     2.0;
    format      ascii;
    class       volVectorField;
    location    "9.24975";
    object      U;
}
// * * * * * * * * * * * * * * * * * * * * * * * * * * * * * * * * * * * * * //

dimensions      [0 1 -1 0 0 0 0];

internalField   nonuniform List<vector> 
19200
(
(0.269596 -9.64428 -2.02812e-20)
(0.124206 -9.11611 9.67672e-21)
(0.134537 -8.70328 4.52517e-21)
(0.164441 -8.37515 4.04284e-21)
(0.189744 -8.10766 4.51474e-21)
(0.217734 -7.88189 2.75426e-22)
(0.24791 -7.68418 7.58922e-22)
(0.278455 -7.50484 -4.81104e-22)
(0.308427 -7.3372 5.57661e-21)
(0.337243 -7.1768 2.31784e-21)
(0.364487 -7.02077 -8.78893e-24)
(0.389905 -6.86739 3.66508e-21)
(0.413374 -6.71574 6.05093e-21)
(0.434864 -6.56543 -4.1122e-21)
(0.454416 -6.41643 5.22815e-21)
(0.472121 -6.26892 4.50416e-21)
(0.488097 -6.12317 -4.23969e-21)
(0.502484 -5.97952 7.21431e-21)
(0.51543 -5.83831 -4.5987e-21)
(0.527086 -5.69985 2.29018e-21)
(0.537602 -5.56439 3.21278e-21)
(0.54712 -5.43213 -1.04799e-21)
(0.555775 -5.30319 1.40995e-21)
(0.563692 -5.1776 -1.6403e-21)
(0.570984 -5.05533 3.56957e-21)
(0.577749 -4.93626 8.54624e-22)
(0.584064 -4.82018 -5.7198e-22)
(0.590012 -4.70684 3.41212e-22)
(0.595691 -4.59589 8.09115e-22)
(0.600923 -4.48694 3.04564e-21)
(0.52198 -9.63719 -4.61147e-21)
(0.363949 -9.12152 2.97582e-20)
(0.364022 -8.71588 -1.57718e-20)
(0.385755 -8.39294 -2.16407e-20)
(0.404439 -8.12942 -9.8191e-21)
(0.426818 -7.90635 -7.01892e-21)
(0.452014 -7.71022 -1.42552e-20)
(0.477961 -7.53156 1.92484e-21)
(0.503548 -7.3639 -3.13331e-21)
(0.528086 -7.20292 -1.11995e-20)
(0.551099 -7.04591 -2.80219e-20)
(0.572302 -6.89128 1.36205e-20)
(0.591562 -6.73821 -5.0996e-21)
(0.608851 -6.5864 1.92622e-21)
(0.624222 -6.43586 -1.16677e-20)
(0.637777 -6.28683 -4.27873e-21)
(0.649651 -6.13962 4.88078e-22)
(0.659998 -5.99461 1.44716e-20)
(0.668981 -5.85213 -7.61465e-21)
(0.676761 -5.71252 -4.21293e-21)
(0.683496 -5.57604 -1.64756e-20)
(0.689337 -5.44288 4.2272e-21)
(0.694423 -5.31316 -2.6461e-21)
(0.698881 -5.18692 4.68095e-21)
(0.702823 -5.0641 -5.85308e-21)
(0.706345 -4.94459 -3.36546e-21)
(0.709517 -4.82815 1.09909e-21)
(0.712427 -4.71451 1.70127e-21)
(0.715206 -4.6033 -3.01055e-21)
(0.717573 -4.49408 1.41005e-21)
(0.774214 -9.62409 -2.19039e-21)
(0.603776 -9.12098 6.06947e-21)
(0.594059 -8.72265 9.59013e-21)
(0.607984 -8.40508 7.52721e-20)
(0.620289 -8.14567 -4.36591e-20)
(0.637215 -7.92539 3.97615e-20)
(0.657523 -7.73091 -3.57778e-20)
(0.678908 -7.553 1.91864e-20)
(0.700106 -7.38536 -1.81816e-20)
(0.720332 -7.22386 -1.94859e-21)
(0.739058 -7.06594 4.57356e-20)
(0.755976 -6.91014 7.63933e-21)
(0.770948 -6.75572 -2.1117e-20)
(0.783954 -6.60248 1.65298e-20)
(0.795059 -6.45051 -3.28946e-23)
(0.804383 -6.30006 7.02032e-21)
(0.812079 -6.15151 5.02942e-21)
(0.818315 -6.00524 1.69323e-20)
(0.823268 -5.86161 -7.45126e-21)
(0.827112 -5.72097 -2.43943e-21)
(0.830016 -5.58357 -6.43757e-21)
(0.832134 -5.44962 2.85477e-20)
(0.833612 -5.31924 -2.38255e-20)
(0.834578 -5.19246 7.71702e-21)
(0.835145 -5.06922 1.77776e-20)
(0.835403 -4.94937 -1.44697e-20)
(0.835416 -4.8327 1.92883e-20)
(0.835276 -4.71888 -2.07267e-21)
(0.835145 -4.60751 -2.17486e-21)
(0.834625 -4.49815 -1.42256e-20)
(1.02603 -9.60471 -7.33428e-20)
(0.843629 -9.11444 -6.42424e-20)
(0.824537 -8.72363 -7.88421e-20)
(0.830992 -8.41159 2.24143e-21)
(0.837158 -8.1564 4.78095e-21)
(0.848784 -7.93899 -8.89956e-20)
(0.86429 -7.74622 -4.40973e-20)
(0.881149 -7.5691 1.15629e-20)
(0.897952 -7.40153 -1.9716e-21)
(0.91383 -7.23957 1.97712e-20)
(0.928213 -7.0808 -7.8023e-20)
(0.940775 -6.92389 -4.85675e-20)
(0.951381 -6.76822 1.80371e-20)
(0.960022 -6.61365 3.58314e-20)
(0.966781 -6.46033 -4.15264e-20)
(0.971797 -6.30858 -6.50176e-21)
(0.975239 -6.1588 -2.45019e-20)
(0.977296 -6.01138 -1.15233e-20)
(0.978158 -5.86672 1.93391e-20)
(0.978012 -5.72516 -2.4709e-20)
(0.977035 -5.58697 2.14892e-20)
(0.975391 -5.45236 -2.54282e-20)
(0.973226 -5.32143 -1.99772e-20)
(0.970673 -5.19422 -1.43232e-20)
(0.967843 -5.07066 1.65824e-20)
(0.964821 -4.9506 -2.94185e-20)
(0.961663 -4.8338 3.05144e-21)
(0.958467 -4.71992 5.27112e-21)
(0.955421 -4.60851 -1.53063e-20)
(0.951997 -4.49913 3.05729e-21)
(1.27735 -9.57898 -4.34717e-20)
(1.08348 -9.1019 6.16536e-21)
(1.05538 -8.71882 5.44675e-20)
(1.05467 -8.41245 5.70777e-20)
(1.05492 -8.16156 4.1155e-20)
(1.06139 -7.94708 1.70313e-20)
(1.07218 -7.75607 1.04453e-20)
(1.08454 -7.57979 1.20314e-19)
(1.09694 -7.41234 -7.20328e-20)
(1.10843 -7.24997 2.03523e-21)
(1.11841 -7.09042 1.72815e-20)
(1.12655 -6.93248 7.44533e-20)
(1.13271 -6.77564 -5.0526e-20)
(1.13691 -6.61983 3.62468e-20)
(1.13924 -6.46528 -4.01774e-20)
(1.13987 -6.31234 6.88031e-20)
(1.13899 -6.16144 -2.02361e-20)
(1.1368 -6.013 7.39884e-22)
(1.13352 -5.86743 3.24953e-20)
(1.12933 -5.72508 2.27403e-20)
(1.12443 -5.58622 -2.31507e-20)
(1.11898 -5.45105 3.12271e-20)
(1.11315 -5.31969 -1.41965e-20)
(1.10705 -5.19217 1.63733e-20)
(1.10081 -5.06841 1.81476e-20)
(1.09449 -4.94825 7.9657e-21)
(1.08816 -4.83144 2.4255e-20)
(1.08191 -4.71761 -8.68161e-21)
(1.07594 -4.60629 -2.8724e-21)
(1.06961 -4.497 -1.32815e-20)
(1.52803 -9.54684 -3.1586e-20)
(1.32323 -9.08332 -2.01613e-20)
(1.2865 -8.70818 -6.15875e-20)
(1.2789 -8.4076 -1.60796e-19)
(1.27344 -8.1611 5.38483e-20)
(1.27489 -7.94961 3.51202e-21)
(1.28103 -7.7604 7.50725e-22)
(1.28892 -7.58499 7.25131e-21)
(1.2969 -7.41772 -5.21826e-21)
(1.30397 -7.255 -9.32055e-20)
(1.30949 -7.09473 3.906e-20)
(1.31313 -6.93584 6.7126e-20)
(1.31478 -6.77792 1.79815e-22)
(1.31445 -6.62099 2.47194e-20)
(1.31228 -6.46531 6.1043e-20)
(1.30846 -6.3113 -4.1986e-20)
(1.30319 -6.1594 7.35885e-20)
(1.2967 -6.01007 -3.5098e-20)
(1.28921 -5.86371 6.20465e-20)
(1.28093 -5.72068 -4.65346e-20)
(1.27207 -5.58127 2.06734e-20)
(1.26279 -5.44568 5.41682e-20)
(1.25326 -5.31401 3.06554e-21)
(1.2436 -5.18629 -5.0101e-20)
(1.23393 -5.06245 2.75348e-20)
(1.22431 -4.94231 8.39257e-21)
(1.2148 -4.8256 -8.99298e-21)
(1.20549 -4.71194 3.4226e-20)
(1.19662 -4.60081 1.20436e-20)
(1.18737 -4.49176 -1.13376e-20)
(1.77792 -9.50829 8.8897e-20)
(1.56276 -9.05868 -1.57388e-21)
(1.51775 -8.69167 -1.24985e-19)
(1.50355 -8.39701 2.55352e-20)
(1.49259 -8.15498 -3.55153e-20)
(1.48915 -7.94652 2.59314e-20)
(1.49072 -7.75915 -1.23141e-20)
(1.49415 -7.58466 1.03594e-19)
(1.4977 -7.4176 -1.11897e-19)
(1.5003 -7.25459 2.73946e-20)
(1.5013 -7.09368 -1.917e-20)
(1.50038 -6.93393 1.39986e-20)
(1.49742 -6.77503 -6.2103e-20)
(1.4925 -6.61707 -4.02359e-21)
(1.48576 -6.46039 9.94622e-20)
(1.47741 -6.30542 -6.84698e-20)
(1.46769 -6.15265 -4.32291e-20)
(1.45684 -6.00255 -3.13463e-20)
(1.4451 -5.85553 5.68951e-20)
(1.43269 -5.71196 1.22249e-20)
(1.41983 -5.57213 -5.58393e-20)
(1.40669 -5.43623 7.42769e-20)
(1.39343 -5.30437 -6.70375e-20)
(1.3802 -5.17658 4.428e-20)
(1.36709 -5.05277 -2.51325e-20)
(1.35417 -4.93276 7.58593e-21)
(1.34149 -4.81628 1.21905e-20)
(1.32913 -4.7029 -5.45985e-20)
(1.31737 -4.59209 2.34342e-20)
(1.3052 -4.48339 3.70621e-22)
(2.02686 -9.46332 -8.71414e-20)
(1.80191 -9.02794 6.86289e-20)
(1.74902 -8.66927 -1.282e-19)
(1.72848 -8.38063 2.44596e-19)
(1.71222 -8.14313 -6.8514e-20)
(1.70402 -7.93775 9.75215e-20)
(1.70107 -7.75226 7.64702e-20)
(1.70007 -7.57872 -1.35679e-20)
(1.69917 -7.41192 -1.96081e-20)
(1.69726 -7.24868 -1.86874e-22)
(1.69368 -7.08721 -7.55771e-20)
(1.68811 -6.92669 3.94231e-20)
(1.6805 -6.76691 -4.73549e-20)
(1.6709 -6.60804 -3.76088e-21)
(1.65952 -6.45047 -1.32293e-19)
(1.64658 -6.29467 4.32953e-20)
(1.63234 -6.14116 2.49337e-20)
(1.61708 -5.99042 -2.82595e-20)
(1.60104 -5.84288 -3.31915e-21)
(1.58447 -5.6989 -4.32014e-20)
(1.56757 -5.55877 -1.54314e-20)
(1.55055 -5.42269 1.3522e-21)
(1.53356 -5.29076 -3.75982e-20)
(1.51673 -5.16302 -5.58109e-20)
(1.50018 -5.03936 2.38345e-21)
(1.48397 -4.9196 7.86747e-21)
(1.46811 -4.80345 1.75722e-20)
(1.45272 -4.69047 -4.33602e-20)
(1.43808 -4.58009 3.69145e-20)
(1.423 -4.47188 -6.79009e-20)
(2.27468 -9.41195 -2.15339e-19)
(2.04055 -8.99109 2.52857e-19)
(1.98016 -8.64093 -2.67806e-19)
(1.95357 -8.35842 -7.25287e-20)
(1.9322 -8.12551 -4.64042e-20)
(1.91935 -7.92324 -5.06067e-20)
(1.91195 -7.73966 -1.15979e-19)
(1.90653 -7.56711 -9.9053e-21)
(1.90115 -7.40063 -4.67227e-20)
(1.89467 -7.23723 -9.76584e-21)
(1.88645 -7.07527 7.83636e-20)
(1.87619 -6.91407 -4.46577e-20)
(1.86383 -6.75352 -5.27126e-20)
(1.84949 -6.59386 -8.88125e-20)
(1.8334 -6.43552 1.86512e-19)
(1.8158 -6.27903 -7.15155e-20)
(1.797 -6.12491 2.6682e-20)
(1.77728 -5.97367 -9.94425e-20)
(1.7569 -5.82574 3.82589e-20)
(1.73612 -5.68148 -1.56296e-20)
(1.71517 -5.54118 1.97265e-20)
(1.69424 -5.40505 -6.74943e-21)
(1.6735 -5.27318 6.17808e-20)
(1.65308 -5.1456 -2.18645e-20)
(1.63309 -5.0222 6.05753e-20)
(1.61358 -4.90281 -1.23398e-19)
(1.59457 -4.78711 7.87499e-20)
(1.57617 -4.67466 2.17193e-20)
(1.55866 -4.56482 4.06845e-20)
(1.54069 -4.45722 -1.19952e-19)
(2.52122 -9.3542 3.40055e-19)
(2.27852 -8.94811 -6.38275e-20)
(2.21102 -8.60663 1.15189e-19)
(2.17865 -8.33034 -3.26751e-20)
(2.15236 -8.10207 1.14825e-19)
(2.13499 -7.90294 1.08766e-19)
(2.12319 -7.7213 5.16481e-20)
(2.11335 -7.54979 -1.89751e-20)
(2.10347 -7.38368 -1.18225e-19)
(2.09239 -7.22018 1.73127e-19)
(2.07946 -7.05782 -1.33254e-20)
(2.06442 -6.89604 1.217e-19)
(2.04726 -6.73483 4.41241e-20)
(2.02811 -6.5745 1.61715e-20)
(2.00724 -6.41553 2.53982e-20)
(1.98493 -6.25848 3.53563e-20)
(1.96151 -6.10389 5.86875e-20)
(1.93728 -5.95228 -1.68526e-20)
(1.91253 -5.80409 8.63011e-20)
(1.88753 -5.65969 3.9675e-20)
(1.8625 -5.51936 -8.26783e-20)
(1.83765 -5.3833 1.46593e-19)
(1.81315 -5.25161 -1.93435e-19)
(1.78913 -5.12431 1.82798e-19)
(1.7657 -5.00131 -6.05013e-20)
(1.7429 -4.88239 -2.49348e-20)
(1.72075 -4.76726 -6.45151e-21)
(1.69935 -4.65545 4.45845e-20)
(1.67902 -4.54627 1.59807e-20)
(1.65818 -4.43942 -1.84185e-20)
(2.76632 -9.29008 -1.93637e-19)
(2.51568 -8.89901 1.84083e-19)
(2.44146 -8.56634 -5.00464e-20)
(2.40359 -8.29636 1.44001e-19)
(2.37257 -8.07276 1.42485e-20)
(2.35078 -7.87681 3.09197e-20)
(2.33462 -7.69714 -2.47685e-19)
(2.32037 -7.5267 1.1582e-19)
(2.30596 -7.36102 1.5905e-19)
(2.29023 -7.19749 1.20643e-19)
(2.27254 -7.03482 -2.05331e-19)
(2.25266 -6.87257 1.19523e-19)
(2.23061 -6.71081 -1.19215e-19)
(2.20659 -6.54994 8.19106e-20)
(2.18088 -6.39047 -1.37093e-19)
(2.15382 -6.23299 -1.01604e-19)
(2.12573 -6.07808 6.33558e-21)
(2.09696 -5.92625 -4.6409e-20)
(2.0678 -5.77795 8.25795e-20)
(2.03854 -5.63354 3.28886e-20)
(2.00942 -5.49331 -2.15479e-20)
(1.98063 -5.35745 -6.23902e-21)
(1.95236 -5.22607 2.54204e-20)
(1.92475 -5.09917 -8.49601e-20)
(1.89789 -4.97666 1.40939e-19)
(1.87182 -4.85835 -3.4372e-20)
(1.84654 -4.74391 -5.87123e-20)
(1.82218 -4.63284 1.22905e-19)
(1.79905 -4.52445 1.65056e-20)
(1.77537 -4.41847 -1.64597e-20)
(3.00982 -9.21962 7.72248e-21)
(2.75185 -8.84377 -1.02624e-19)
(2.67131 -8.52005 -9.41944e-20)
(2.62822 -8.25643 -1.56237e-19)
(2.59265 -8.03755 5.45873e-21)
(2.56656 -7.84479 -1.12366e-19)
(2.54609 -7.66713 1.32941e-19)
(2.52743 -7.4978 -6.56886e-20)
(2.50846 -7.3326 1.07216e-19)
(2.48802 -7.16913 -8.86526e-20)
(2.46551 -7.00624 -4.54296e-20)
(2.44072 -6.84362 2.48364e-20)
(2.41373 -6.68144 1.34278e-20)
(2.38478 -6.52015 -1.36354e-19)
(2.35418 -6.36032 8.0245e-20)
(2.3223 -6.20257 -3.9661e-20)
(2.2895 -6.04748 1.12562e-19)
(2.25615 -5.89557 -3.70446e-20)
(2.22256 -5.7473 3.85981e-20)
(2.18903 -5.60302 9.56874e-21)
(2.15579 -5.46302 6.56883e-20)
(2.12307 -5.3275 -1.33963e-20)
(2.09103 -5.19654 1.079e-19)
(2.05982 -5.07017 -1.20085e-19)
(2.02954 -4.94828 -4.06767e-20)
(2.00021 -4.83068 3.32322e-20)
(1.97184 -4.71704 -3.41379e-21)
(1.94455 -4.60684 -9.12438e-20)
(1.91865 -4.49935 4.68228e-20)
(1.89216 -4.39437 -5.21094e-20)
(3.25155 -9.14287 3.26692e-19)
(2.98689 -8.78241 8.55204e-20)
(2.90043 -8.46773 1.02872e-19)
(2.85239 -8.21054 1.3871e-19)
(2.81246 -7.99639 2.08534e-19)
(2.78215 -7.80686 -6.33899e-21)
(2.75742 -7.63122 3.03257e-20)
(2.73435 -7.46306 3.53502e-19)
(2.71079 -7.2984 1.01833e-19)
(2.6856 -7.13506 -8.57208e-20)
(2.6582 -6.97205 1.50613e-19)
(2.62844 -6.80918 2.53572e-20)
(2.59645 -6.6467 1.28386e-21)
(2.56249 -6.48513 3.59175e-20)
(2.52695 -6.32509 6.3973e-20)
(2.49021 -6.1672 -1.3137e-19)
(2.45267 -6.01208 1.11744e-19)
(2.41472 -5.86024 1.87439e-20)
(2.37667 -5.71214 1.08704e-19)
(2.33884 -5.56814 -5.89993e-20)
(2.30149 -5.42851 9.70947e-20)
(2.26482 -5.29345 -1.0324e-19)
(2.22902 -5.16305 9.96945e-20)
(2.19422 -5.03732 1.38643e-20)
(2.16053 -4.91617 -6.68946e-20)
(2.12797 -4.79939 -2.18082e-20)
(2.09652 -4.68667 1.27849e-19)
(2.06633 -4.57746 -1.93084e-20)
(2.03772 -4.47097 2.47275e-20)
(2.00846 -4.36714 -1.61005e-20)
(3.49135 -9.05985 3.29878e-20)
(3.22063 -8.71492 7.42765e-20)
(3.12866 -8.40939 3.02853e-19)
(3.07594 -8.15866 -4.93741e-19)
(3.03182 -7.94927 -4.87719e-20)
(2.9974 -7.76297 -5.3147e-20)
(2.96845 -7.58938 2.36268e-20)
(2.94095 -7.42242 3.1328e-20)
(2.91277 -7.25837 7.8863e-20)
(2.88277 -7.09525 -1.40234e-19)
(2.85043 -6.93222 -2.70648e-20)
(2.81564 -6.76922 7.80026e-20)
(2.77858 -6.60658 8.38996e-20)
(2.73958 -6.44487 -8.38401e-20)
(2.69904 -6.28476 -8.25482e-20)
(2.65741 -6.12689 1.34013e-19)
(2.61509 -5.97188 8.71239e-20)
(2.5725 -5.82026 -2.25937e-20)
(2.52999 -5.67248 -5.55858e-20)
(2.48785 -5.5289 9.98815e-21)
(2.44637 -5.38978 -1.2776e-19)
(2.40576 -5.25531 1.53743e-19)
(2.3662 -5.12559 -1.05026e-19)
(2.32782 -5.00063 -4.38406e-21)
(2.29074 -4.88033 6.90111e-20)
(2.25497 -4.76449 -2.14995e-20)
(2.22048 -4.6528 -6.48992e-20)
(2.18742 -4.54469 1.00984e-20)
(2.15614 -4.43933 -2.67979e-21)
(2.12417 -4.33677 1.25968e-20)
(3.72906 -8.97061 -2.46678e-20)
(3.45292 -8.64134 -7.78178e-20)
(3.35583 -8.34501 -3.48764e-19)
(3.2987 -8.10078 1.25372e-19)
(3.25057 -7.89615 -3.80305e-20)
(3.21214 -7.7131 1.24982e-19)
(3.17899 -7.54159 9.15398e-21)
(3.14707 -7.37587 -1.43497e-19)
(3.11423 -7.2125 1.21444e-20)
(3.07937 -7.04968 -1.9517e-19)
(3.04203 -6.88675 -7.5932e-21)
(3.00215 -6.72373 4.70165e-20)
(2.95997 -6.56106 -8.10739e-20)
(2.91586 -6.39936 9.19208e-20)
(2.87029 -6.23933 -1.7534e-19)
(2.82372 -6.08163 -3.94153e-20)
(2.77661 -5.92689 1.05545e-19)
(2.72936 -5.77565 -9.40725e-23)
(2.68236 -5.62834 -6.63459e-20)
(2.63592 -5.48532 1.80044e-19)
(2.59031 -5.34685 -9.64762e-20)
(2.54575 -5.2131 -1.29045e-19)
(2.50244 -5.08418 4.29131e-20)
(2.4605 -4.9601 -1.24746e-19)
(2.42004 -4.84077 -2.99725e-20)
(2.38108 -4.72599 -3.79603e-21)
(2.34358 -4.61544 -8.08941e-20)
(2.30771 -4.50855 9.67923e-20)
(2.2738 -4.40444 -3.44137e-20)
(2.23917 -4.30328 5.68018e-20)
(3.96451 -8.8752 -1.15774e-19)
(3.68359 -8.56166 -3.11231e-19)
(3.58179 -8.2746 1.50362e-19)
(3.52052 -8.03688 -1.4287e-19)
(3.46854 -7.83702 -1.05701e-19)
(3.42618 -7.65721 -6.09232e-20)
(3.38886 -7.48781 -2.22988e-19)
(3.35251 -7.32339 1.51207e-19)
(3.31498 -7.16076 -2.69976e-19)
(3.27521 -6.99834 -3.74821e-19)
(3.23281 -6.83561 4.86946e-20)
(3.18779 -6.67271 8.03524e-20)
(3.14043 -6.51016 -1.45814e-21)
(3.09118 -6.34861 -1.5249e-19)
(3.04054 -6.18881 3.55216e-20)
(2.989 -6.03144 -1.3731e-19)
(2.93706 -5.87713 -9.8414e-20)
(2.88515 -5.72642 -5.88488e-20)
(2.83365 -5.57973 -1.15988e-20)
(2.7829 -5.43741 1.00124e-19)
(2.73316 -5.29972 1.42677e-19)
(2.68467 -5.16683 -4.27016e-20)
(2.63762 -5.03884 -4.08952e-20)
(2.59213 -4.91576 7.94472e-20)
(2.54832 -4.79751 4.40907e-20)
(2.50619 -4.68389 -3.49069e-20)
(2.46572 -4.5746 -3.88151e-20)
(2.42707 -4.46904 4.41871e-21)
(2.39059 -4.3663 3.46575e-20)
(2.35336 -4.26669 -5.06132e-20)
(4.19754 -8.77366 -2.23003e-20)
(3.91249 -8.47592 3.92463e-19)
(3.80638 -8.19816 3.02016e-19)
(3.74122 -7.96696 2.34529e-19)
(3.68557 -7.77186 -1.51987e-19)
(3.63936 -7.5953 -3.03938e-20)
(3.5979 -7.42802 2.78377e-20)
(3.5571 -7.26495 1.91428e-19)
(3.51484 -7.10315 7.1782e-20)
(3.47012 -6.94122 1.08931e-19)
(3.42261 -6.77881 -2.39865e-19)
(3.37238 -6.61616 2.46123e-20)
(3.31981 -6.45386 9.68207e-20)
(3.26537 -6.29262 5.87951e-20)
(3.20962 -6.13321 1.22107e-19)
(3.15309 -5.97633 -8.32873e-20)
(3.09631 -5.82261 -7.68653e-20)
(3.03971 -5.67257 1.4877e-20)
(2.98372 -5.52666 1.62991e-19)
(2.92865 -5.38519 -2.62438e-19)
(2.8748 -5.24842 9.13086e-20)
(2.82238 -5.11652 -6.25328e-22)
(2.7716 -4.98958 1.71217e-19)
(2.72258 -4.86762 -7.40721e-20)
(2.67544 -4.75056 -3.98622e-21)
(2.63017 -4.63822 -4.67429e-20)
(2.58676 -4.5303 -4.11784e-20)
(2.54537 -4.42619 8.697e-21)
(2.50638 -4.32493 -1.01041e-19)
(2.46663 -4.227 1.50395e-19)
(4.42799 -8.66606 -4.25331e-19)
(4.13945 -8.38416 -2.38413e-19)
(4.02943 -8.11571 -6.08015e-19)
(3.96065 -7.89101 -2.74731e-19)
(3.90147 -7.70065 2.55362e-19)
(3.85149 -7.52735 -1.4973e-19)
(3.80592 -7.36222 -3.54479e-20)
(3.76065 -7.20054 -9.80335e-20)
(3.71362 -7.03964 1.65202e-19)
(3.6639 -6.87832 -1.52399e-19)
(3.61123 -6.71635 1.82728e-20)
(3.55576 -6.55408 -7.38846e-21)
(3.49792 -6.39218 -2.36623e-19)
(3.43825 -6.23141 -9.28101e-21)
(3.37737 -6.07255 6.27217e-20)
(3.31583 -5.91631 -6.87497e-21)
(3.25419 -5.76334 -2.39415e-19)
(3.19291 -5.61414 2.3223e-19)
(3.13242 -5.46915 -2.27027e-19)
(3.07305 -5.32868 8.8359e-20)
(3.01508 -5.19298 1.24155e-20)
(2.95876 -5.06219 5.02365e-21)
(2.90426 -4.93643 -9.22395e-20)
(2.85173 -4.8157 9.2401e-20)
(2.80126 -4.69994 -3.93562e-20)
(2.75289 -4.58898 4.27594e-20)
(2.70657 -4.48254 -2.27991e-19)
(2.6625 -4.37999 6.17788e-20)
(2.62105 -4.28034 6.62758e-20)
(2.57884 -4.18423 6.70139e-20)
(4.65571 -8.55244 8.2702e-19)
(4.36431 -8.28639 2.73176e-19)
(4.25078 -8.02726 1.58506e-19)
(4.17865 -7.80904 2.50679e-19)
(4.11609 -7.6234 -3.14197e-20)
(4.06241 -7.45335 1.86164e-19)
(4.01274 -7.29039 4.11946e-19)
(3.96298 -7.13017 -5.27179e-20)
(3.91115 -6.97025 2.2807e-20)
(3.85639 -6.80963 4.75808e-19)
(3.7985 -6.64823 4.42911e-19)
(3.73774 -6.48649 6.48819e-20)
(3.67459 -6.32514 -2.35859e-20)
(3.60967 -6.16499 -1.8874e-21)
(3.54362 -6.00684 3.33136e-19)
(3.47706 -5.85141 1.28556e-20)
(3.41056 -5.69935 3.50606e-19)
(3.3446 -5.55115 -4.463e-20)
(3.27961 -5.40724 -7.51006e-20)
(3.21594 -5.26791 1.74705e-19)
(3.15388 -5.1334 -1.59294e-19)
(3.09366 -5.00387 -1.71328e-19)
(3.03546 -4.87939 -1.53158e-20)
(2.97943 -4.76001 -7.5562e-20)
(2.92567 -4.64565 1.14369e-19)
(2.87422 -4.53619 1.33977e-20)
(2.82502 -4.43133 -4.72852e-20)
(2.7783 -4.33046 2.55381e-20)
(2.73446 -4.23254 1.6905e-19)
(2.68988 -4.1384 2.37855e-20)
(4.88052 -8.43288 -1.42284e-19)
(4.58692 -8.18267 -2.74001e-19)
(4.47029 -7.93283 1.11396e-19)
(4.39503 -7.72106 -4.47004e-19)
(4.32924 -7.5401 2.10687e-19)
(4.27193 -7.37329 -3.8394e-19)
(4.21816 -7.21254 -2.5017e-19)
(4.16391 -7.05382 6.919e-20)
(4.10724 -6.89497 6.68988e-20)
(4.04738 -6.73517 -3.28852e-19)
(3.98424 -6.57447 4.97909e-20)
(3.91814 -6.4134 5.41414e-20)
(3.84966 -6.25276 -1.76491e-19)
(3.77946 -6.09339 -6.96587e-20)
(3.70823 -5.93611 -4.65264e-20)
(3.63664 -5.78166 -4.6591e-20)
(3.56527 -5.63066 -1.92883e-19)
(3.49463 -5.48362 -1.20101e-19)
(3.42516 -5.34093 -2.57589e-20)
(3.35721 -5.2029 9.74135e-20)
(3.29106 -5.06972 1.3125e-19)
(3.22696 -4.94156 -1.42229e-19)
(3.16508 -4.81851 5.29437e-20)
(3.10557 -4.70057 -1.09502e-19)
(3.04854 -4.58773 1.02258e-19)
(2.99401 -4.47985 -1.3458e-19)
(2.94197 -4.37669 4.17546e-20)
(2.89265 -4.2776 -6.58643e-20)
(2.84647 -4.18154 -9.28283e-20)
(2.79961 -4.08951 -8.77459e-21)
(5.10228 -8.30744 -2.97497e-19)
(4.80713 -8.07304 -2.4508e-19)
(4.68779 -7.83247 -2.39449e-19)
(4.60966 -7.62708 -1.74783e-19)
(4.54076 -7.45077 5.36141e-19)
(4.47986 -7.28718 7.40416e-20)
(4.42201 -7.12866 2.25753e-19)
(4.36324 -6.97152 3.4245e-19)
(4.30169 -6.81383 1.6325e-19)
(4.2367 -6.65496 -2.16272e-19)
(4.16826 -6.49508 3.43111e-19)
(4.0968 -6.33484 9.9732e-20)
(4.02295 -6.17507 3.10877e-19)
(3.94744 -6.01664 3.5566e-20)
(3.87103 -5.8604 7.79841e-20)
(3.79441 -5.70709 2.52513e-20)
(3.71817 -5.55732 -1.08582e-21)
(3.64287 -5.41159 -9.24075e-21)
(3.56892 -5.27028 4.09549e-20)
(3.49671 -5.13367 1.38055e-19)
(3.4265 -5.00197 -1.5337e-19)
(3.35853 -4.87531 1.21231e-19)
(3.29299 -4.75378 4.19309e-21)
(3.23002 -4.63741 5.43268e-20)
(3.16972 -4.52618 9.88488e-20)
(3.11215 -4.41998 -1.70894e-20)
(3.05728 -4.3186 9.74174e-20)
(3.00539 -4.22141 1.40054e-19)
(2.95694 -4.12733 -1.51869e-19)
(2.90788 -4.03757 -8.4192e-20)
(5.32084 -8.1762 8.67236e-19)
(5.0248 -7.95757 -8.97631e-20)
(4.90315 -7.72618 1.84423e-19)
(4.82236 -7.52712 3.37377e-19)
(4.75047 -7.3554 -9.59545e-19)
(4.68603 -7.19503 1.02054e-19)
(4.62411 -7.03877 -3.59458e-19)
(4.56079 -6.88326 3.53305e-19)
(4.49434 -6.72683 -2.79888e-19)
(4.42417 -6.56901 1.4878e-19)
(4.3504 -6.41011 -5.40144e-19)
(4.27353 -6.25084 2.05512e-20)
(4.19429 -6.09209 -5.82446e-19)
(4.11348 -5.93477 2.62487e-19)
(4.03187 -5.77974 1.34634e-19)
(3.95021 -5.62773 2.0363e-19)
(3.86913 -5.47935 -2.21929e-19)
(3.78917 -5.33508 -1.75274e-20)
(3.71077 -5.1953 1.73461e-20)
(3.63431 -5.06026 4.81421e-20)
(3.56006 -4.93016 -2.70335e-19)
(3.48825 -4.80513 -8.06025e-21)
(3.41907 -4.68524 -1.49687e-19)
(3.35264 -4.57054 -3.51393e-20)
(3.2891 -4.461 -9.10998e-20)
(3.2285 -4.35658 -9.89966e-20)
(3.17081 -4.25708 -1.02451e-19)
(3.11638 -4.16189 1.69132e-19)
(3.0657 -4.0699 4.51128e-20)
(3.01453 -3.98257 -8.07086e-20)
(5.53604 -8.03923 -5.77337e-19)
(5.23977 -7.8363 1.99852e-19)
(5.11621 -7.61403 -3.38787e-19)
(5.03297 -7.42119 5.09272e-20)
(4.95819 -7.254 5.43262e-19)
(4.89026 -7.09685 -2.73883e-19)
(4.82425 -6.94288 -2.82813e-19)
(4.75637 -6.78907 -2.40834e-19)
(4.68497 -6.634 1.20948e-20)
(4.6096 -6.47736 1.52551e-19)
(4.53046 -6.31957 -1.09774e-19)
(4.44817 -6.16143 5.6802e-21)
(4.36352 -6.00387 2.42809e-19)
(4.27738 -5.84783 1.5109e-19)
(4.19059 -5.69417 4.27349e-20)
(4.10391 -5.54362 -1.33172e-19)
(4.01799 -5.39679 5.03685e-20)
(3.9334 -5.25414 1.09553e-19)
(3.85058 -5.11603 1.2143e-19)
(3.7699 -4.9827 -1.3303e-19)
(3.69163 -4.85434 2.02162e-20)
(3.61601 -4.73105 1.12729e-19)
(3.54319 -4.61291 1.94804e-19)
(3.47334 -4.49996 5.05283e-20)
(3.40656 -4.39222 -1.98853e-19)
(3.34292 -4.28964 2.30532e-19)
(3.28243 -4.1921 -1.15185e-19)
(3.22546 -4.099 -1.36814e-19)
(3.17258 -4.00923 -8.38474e-20)
(3.1194 -3.92448 -1.03522e-19)
(5.74777 -7.89662 3.03921e-19)
(5.45195 -7.70931 -2.29027e-19)
(5.32683 -7.49602 8.78941e-20)
(5.24133 -7.3093 4.55326e-19)
(5.16375 -7.14659 1.22297e-19)
(5.09235 -6.99264 -1.04582e-19)
(5.02226 -6.841 2.51085e-19)
(4.94979 -6.68899 5.91364e-20)
(4.87342 -6.53538 2.31591e-19)
(4.7928 -6.38005 1.26805e-19)
(4.70828 -6.22352 5.1363e-21)
(4.62054 -6.06666 7.84728e-20)
(4.53048 -5.91046 -2.48293e-20)
(4.43902 -5.75586 -2.17772e-19)
(4.34704 -5.60374 -3.15891e-20)
(4.25535 -5.45482 -6.40708e-20)
(4.16463 -5.30969 1.56579e-19)
(4.07543 -5.16881 1.5835e-19)
(3.98822 -5.03252 -1.79905e-19)
(3.90335 -4.90103 1.83612e-19)
(3.8211 -4.77452 3.88048e-19)
(3.74168 -4.65309 -2.49774e-19)
(3.66526 -4.5368 2.49461e-19)
(3.59198 -4.42571 -1.74816e-19)
(3.52197 -4.31983 -2.44684e-20)
(3.45529 -4.21917 1.85468e-19)
(3.39198 -4.12365 -3.76499e-20)
(3.33247 -4.03273 1.38484e-19)
(3.27742 -3.94527 1.37069e-19)
(3.22231 -3.86328 -2.48368e-19)
(5.95591 -7.74844 -2.93291e-19)
(5.66122 -7.57665 1.29321e-19)
(5.5349 -7.3722 5.33972e-20)
(5.44728 -7.19148 -5.29738e-19)
(5.36696 -7.03319 -2.72167e-19)
(5.29212 -6.88244 2.02068e-19)
(5.21794 -6.73318 -5.57582e-19)
(5.14086 -6.58303 6.66918e-19)
(5.05948 -6.431 -3.72722e-19)
(4.9736 -6.27711 4.42939e-20)
(4.88366 -6.12199 -7.03934e-20)
(4.79047 -5.96659 -2.07167e-19)
(4.69499 -5.81191 4.24563e-19)
(4.59822 -5.65893 1.58608e-19)
(4.50108 -5.50851 2.0369e-19)
(4.40441 -5.36138 4.11483e-21)
(4.30891 -5.21811 8.95188e-20)
(4.21514 -5.07914 -1.94303e-19)
(4.12358 -4.9448 4.06505e-20)
(4.03456 -4.81528 1.32189e-19)
(3.94835 -4.69075 -5.57416e-20)
(3.86517 -4.57128 9.04552e-20)
(3.78517 -4.45694 -1.78158e-19)
(3.70848 -4.34778 2.55504e-19)
(3.63523 -4.24382 5.89915e-20)
(3.56549 -4.14513 -1.61065e-19)
(3.49933 -4.05168 -1.38668e-19)
(3.43724 -3.96299 3.2087e-22)
(3.38001 -3.87796 1.89733e-19)
(3.32302 -3.79891 -4.17122e-20)
(6.16038 -7.59476 -8.10484e-20)
(5.86749 -7.43838 -5.36551e-19)
(5.74027 -7.24258 6.36462e-19)
(5.65065 -7.06773 4.2686e-19)
(5.56765 -6.9138 4.22197e-19)
(5.48937 -6.76627 1.15468e-19)
(5.4111 -6.61944 1.73477e-19)
(5.32939 -6.47125 8.67435e-20)
(5.24298 -6.32092 -3.45614e-19)
(5.15181 -6.16861 6.26847e-19)
(5.05644 -6.01506 -4.98966e-19)
(4.95779 -5.86127 -3.27569e-20)
(4.8569 -5.70828 7.16623e-20)
(4.75483 -5.55708 -3.14259e-19)
(4.65257 -5.40853 4.93288e-19)
(4.55095 -5.26335 9.29952e-20)
(4.45071 -5.1221 -2.07325e-19)
(4.35242 -4.98518 7.89977e-20)
(4.25654 -4.85292 -1.52633e-19)
(4.16342 -4.7255 -1.34217e-19)
(4.0733 -4.60305 -1.42292e-19)
(3.9864 -4.48564 3.23033e-20)
(3.90284 -4.37334 1.77945e-20)
(3.82275 -4.26618 -3.44165e-19)
(3.74625 -4.16421 -1.30096e-19)
(3.67342 -4.06751 8.38426e-20)
(3.60436 -3.97614 1.03443e-19)
(3.53962 -3.8897 -1.4263e-19)
(3.48011 -3.80716 -5.42513e-20)
(3.42123 -3.73118 4.37211e-21)
(6.36121 -7.43566 -7.05406e-20)
(6.07071 -7.29454 3.47537e-19)
(5.94279 -7.10718 -9.8649e-20)
(5.85126 -6.93806 -1.20149e-19)
(5.76561 -6.78845 -6.5223e-19)
(5.68391 -6.64415 -1.42022e-19)
(5.60153 -6.49982 2.66243e-19)
(5.51517 -6.35369 -1.75459e-19)
(5.42371 -6.20518 -1.87686e-20)
(5.32724 -6.0546 -3.49887e-20)
(5.22644 -5.90278 1.88835e-19)
(5.12233 -5.75077 -2.95024e-19)
(5.01605 -5.59965 -1.95387e-19)
(4.90872 -5.4504 2.27643e-19)
(4.80135 -5.30389 -1.28671e-19)
(4.69484 -5.16082 6.08829e-20)
(4.58991 -5.02172 1.22096e-20)
(4.48715 -4.88701 -5.19556e-20)
(4.38701 -4.75695 1.89936e-19)
(4.28984 -4.63174 -1.73042e-19)
(4.19586 -4.51147 -1.38605e-19)
(4.10527 -4.39622 1.20847e-19)
(4.01819 -4.28603 -1.37276e-20)
(3.93472 -4.18092 -8.89713e-20)
(3.85498 -4.08097 7.84064e-20)
(3.77905 -3.98628 -2.42383e-19)
(3.70703 -3.89698 1.47762e-19)
(3.63952 -3.81277 -2.39824e-21)
(3.57763 -3.73269 -1.52903e-19)
(3.51688 -3.65971 2.09906e-19)
(6.55868 -7.27137 2.80393e-19)
(6.27093 -7.14522 -6.77741e-19)
(6.14233 -6.96598 -5.63082e-20)
(6.04891 -6.80246 3.09599e-19)
(5.96062 -6.65714 -7.80815e-20)
(5.87551 -6.51611 -2.21601e-19)
(5.78902 -6.37435 1.00864e-19)
(5.698 -6.23039 1.16343e-19)
(5.60148 -6.08384 9.20341e-21)
(5.4997 -5.93515 1.40614e-19)
(5.39347 -5.78523 4.46623e-19)
(5.28392 -5.63517 -1.56206e-19)
(5.17228 -5.48609 3.90445e-20)
(5.05971 -5.33896 -1.03041e-19)
(4.9473 -5.19465 3.91646e-19)
(4.83594 -5.05384 -7.03335e-20)
(4.72638 -4.91706 1.03858e-19)
(4.61922 -4.78467 -1.74282e-19)
(4.5149 -4.65695 9.43215e-20)
(4.41373 -4.53405 1.42054e-19)
(4.31596 -4.41606 2.40633e-20)
(4.22174 -4.30304 9.43666e-20)
(4.13118 -4.19502 -7.7504e-20)
(4.04436 -4.09202 2.15239e-19)
(3.96138 -3.99411 -8.75682e-20)
(3.88232 -3.90143 3.1925e-19)
(3.80728 -3.81418 -9.2134e-20)
(3.73692 -3.7321 6.31727e-20)
(3.67256 -3.65432 -1.1915e-19)
(3.61007 -3.58444 2.03125e-19)
(6.75355 -7.10218 -6.16502e-19)
(6.46835 -6.99029 2.26508e-20)
(6.33871 -6.81883 -3.42396e-19)
(6.24334 -6.66086 6.10307e-20)
(6.15246 -6.51988 1.75504e-20)
(6.06395 -6.38219 -2.91601e-19)
(5.97336 -6.24311 -5.45068e-19)
(5.87767 -6.10144 2.68967e-19)
(5.7761 -5.95699 -3.79005e-19)
(5.669 -5.81034 -1.97419e-19)
(5.55736 -5.66248 -1.11369e-19)
(5.44239 -5.51456 -8.67552e-20)
(5.32542 -5.36769 1.33012e-21)
(5.20768 -5.22286 -3.10193e-19)
(5.09027 -5.08091 1.99535e-19)
(4.97413 -4.94252 -3.2854e-19)
(4.86003 -4.80819 -8.29189e-20)
(4.74853 -4.67826 9.37567e-20)
(4.6401 -4.55299 -3.74883e-20)
(4.53503 -4.43251 1.09653e-19)
(4.43354 -4.31689 8.38491e-20)
(4.33575 -4.20617 -2.09539e-19)
(4.24176 -4.10036 2.0962e-19)
(4.15163 -3.99948 -2.25352e-20)
(4.06541 -3.90361 -5.57684e-20)
(3.98315 -3.81291 -2.20358e-19)
(3.90497 -3.72757 -1.16475e-19)
(3.83153 -3.64732 2.14959e-19)
(3.76419 -3.57168 -7.08429e-20)
(3.69945 -3.5061 -6.60602e-20)
(6.94619 -6.92726 2.68895e-19)
(6.66277 -6.82889 2.47254e-20)
(6.53162 -6.66542 -6.61197e-20)
(6.43428 -6.51328 -1.41938e-20)
(6.3409 -6.37679 -1.16532e-19)
(6.24906 -6.24254 3.94574e-19)
(6.15439 -6.10624 -1.83511e-19)
(6.05404 -5.96698 1.20085e-19)
(5.94741 -5.82477 4.92766e-20)
(5.83502 -5.68032 1.7385e-19)
(5.71797 -5.53469 -6.57942e-20)
(5.59762 -5.38907 3.71989e-19)
(5.47536 -5.24458 -3.15684e-20)
(5.3525 -5.10222 2.36219e-19)
(5.23016 -4.9628 -3.9418e-19)
(5.10933 -4.82699 -2.88175e-20)
(4.99075 -4.69524 2.50915e-19)
(4.87502 -4.56791 -1.552e-19)
(4.76256 -4.4452 6.36239e-20)
(4.65368 -4.32723 1.08203e-19)
(4.54856 -4.21405 -1.57285e-19)
(4.44732 -4.10568 1.72751e-19)
(4.34999 -4.0021 -1.61065e-19)
(4.25662 -3.90334 3.49984e-20)
(4.1672 -3.80943 1.2924e-19)
(4.08172 -3.72054 8.91852e-20)
(4.00028 -3.63673 8.34802e-20)
(3.92328 -3.55772 6.1604e-20)
(3.85108 -3.48425 -1.66115e-19)
(3.78129 -3.42379 -6.45456e-20)
(9.98023 0.0126796 3.49843e-21)
(9.97015 -0.250213 3.4292e-20)
(9.95379 -0.511493 1.19165e-19)
(9.93136 -0.771575 6.50834e-20)
(9.90245 -1.03057 -1.38426e-19)
(9.86684 -1.28844 4.18443e-20)
(9.82449 -1.54507 -4.37233e-20)
(9.77543 -1.80031 -1.10799e-19)
(9.71969 -2.05402 5.84069e-20)
(9.65732 -2.30603 -6.79177e-20)
(9.58836 -2.55616 -6.79723e-20)
(9.51288 -2.80426 -1.45255e-19)
(9.43094 -3.05014 -4.18872e-19)
(9.34261 -3.29365 3.84514e-20)
(9.24796 -3.53461 -1.77974e-20)
(9.14707 -3.77288 -1.33465e-19)
(9.04004 -4.00827 2.83232e-19)
(8.92693 -4.24065 1.55048e-19)
(8.80785 -4.46985 2.96728e-19)
(8.68289 -4.69573 1.45426e-19)
(8.55214 -4.91814 -3.28491e-19)
(8.41571 -5.13692 1.30854e-20)
(8.2737 -5.35196 -6.26444e-19)
(8.12623 -5.56311 9.52401e-19)
(7.97341 -5.77024 -3.12848e-19)
(7.81537 -5.97325 -4.08733e-19)
(7.65223 -6.17205 -6.03636e-20)
(7.48417 -6.36661 -6.80847e-21)
(7.31127 -6.55697 -3.16066e-19)
(7.13418 -6.74326 5.56843e-19)
(9.93975 -0.124831 1.32227e-20)
(9.9218 -0.385682 1.93658e-20)
(9.89665 -0.644884 4.6474e-21)
(9.86476 -0.902615 -1.70219e-19)
(9.82613 -1.15891 -1.52814e-19)
(9.78074 -1.41367 1.3507e-19)