/*--------------------------------*- C++ -*----------------------------------*\
  =========                 |
  \\      /  F ield         | OpenFOAM: The Open Source CFD Toolbox
   \\    /   O peration     | Website:  https://openfoam.org
    \\  /    A nd           | Version:  6.0
     \\/     M anipulation  |
\*---------------------------------------------------------------------------*/
FoamFile
{
    version     2.0;
    format      ascii;
    class       volVectorField;
    location    "18.248";
    object      U;
}
// * * * * * * * * * * * * * * * * * * * * * * * * * * * * * * * * * * * * * //

dimensions      [0 1 -1 0 0 0 0];

internalField   nonuniform List<vector> 
19200
(
(0.00655151 -0.478986 -4.14022e-22)
(0.00479353 -0.440615 2.29465e-22)
(0.0026972 -0.405411 1.17781e-22)
(0.000272613 -0.373197 1.14997e-22)
(-0.00235066 -0.343765 1.40845e-22)
(-0.005036 -0.316907 7.11626e-24)
(-0.00768935 -0.292419 2.25776e-22)
(-0.0102436 -0.270105 -2.35099e-23)
(-0.0126508 -0.249776 2.2405e-22)
(-0.014878 -0.231258 9.80387e-23)
(-0.0169051 -0.214387 -1.02825e-23)
(-0.0187215 -0.19901 1.74867e-22)
(-0.0203241 -0.184988 3.30606e-22)
(-0.0217156 -0.172191 -2.41292e-22)
(-0.0229032 -0.160503 3.21448e-22)
(-0.0238978 -0.149816 3.05857e-22)
(-0.0247125 -0.140032 -3.00676e-22)
(-0.0253624 -0.131064 5.50324e-22)
(-0.0258639 -0.122831 -3.69427e-22)
(-0.0262341 -0.115262 1.8728e-22)
(-0.0264906 -0.108292 2.90291e-22)
(-0.026651 -0.101862 -1.05056e-22)
(-0.0267327 -0.0959225 1.43118e-22)
(-0.0267526 -0.0904252 -1.8174e-22)
(-0.0267268 -0.0853294 4.74861e-24)
(-0.0266715 -0.0805996 1.08253e-22)
(-0.0266019 -0.076205 -7.36589e-23)
(-0.0265226 -0.0721191 4.038e-23)
(-0.0264255 -0.0683166 1.1262e-22)
(-0.0263975 -0.0647738 5.56401e-22)
(0.0191207 -0.478164 -9.99321e-23)
(0.0163486 -0.439214 7.22123e-22)
(0.0133312 -0.403597 -4.03259e-22)
(0.0100887 -0.371101 -6.17319e-22)
(0.00674821 -0.341499 -3.12521e-22)
(0.00343987 -0.314564 -2.38194e-22)
(0.000250513 -0.290073 -5.54208e-22)
(-0.00275989 -0.267814 6.66308e-23)
(-0.00554999 -0.247588 -1.08407e-22)
(-0.00809357 -0.229207 -4.62942e-22)
(-0.0103764 -0.212498 -1.32698e-21)
(-0.0123935 -0.197301 6.90311e-22)
(-0.014147 -0.183469 -2.7741e-22)
(-0.0156445 -0.170869 1.06612e-22)
(-0.0168979 -0.159376 -7.27197e-22)
(-0.0179218 -0.14888 -2.93958e-22)
(-0.0187334 -0.139279 2.84657e-23)
(-0.0193514 -0.130483 1.1074e-21)
(-0.0197953 -0.122409 -5.7471e-22)
(-0.0200854 -0.114983 -3.31663e-22)
(-0.0202421 -0.108138 -1.48515e-21)
(-0.0202857 -0.101816 3.9475e-22)
(-0.020236 -0.0959641 -2.66972e-22)
(-0.0201123 -0.0905347 5.03563e-22)
(-0.0199328 -0.0854865 -2.55746e-22)
(-0.0197159 -0.0807842 -4.16319e-22)
(-0.0194791 -0.0763976 1.2989e-22)
(-0.0192271 -0.0723008 2.38119e-22)
(-0.0189496 -0.0684684 -4.05316e-22)
(-0.0187463 -0.0648792 2.61081e-22)
(0.0316032 -0.477055 -4.77882e-23)
(0.0277979 -0.437544 1.25962e-22)
(0.0238668 -0.401544 2.1618e-22)
(0.0198199 -0.368804 2.13848e-21)
(0.0157801 -0.339074 -1.36132e-21)
(0.011872 -0.3121 1.25758e-21)
(0.00817516 -0.287642 8.32589e-22)
(0.00474206 -0.265474 7.39651e-22)
(0.00160663 -0.245381 -7.52876e-22)
(-0.00121196 -0.227167 -1.2576e-22)
(-0.00370608 -0.210647 2.15022e-21)
(-0.00587686 -0.195656 4.11039e-22)
(-0.00773209 -0.182037 -1.15648e-21)
(-0.00928461 -0.169653 9.19078e-22)
(-0.0105509 -0.158374 -1.88922e-23)
(-0.0115503 -0.148087 4.52692e-22)
(-0.0123038 -0.138685 3.31748e-22)
(-0.0128339 -0.130075 1.27536e-21)
(-0.0131636 -0.122171 -5.43181e-22)
(-0.0133165 -0.114898 -1.7577e-22)
(-0.0133159 -0.108188 -5.73047e-22)
(-0.0131851 -0.10198 2.73464e-21)
(-0.0129464 -0.0962211 -2.38091e-21)
(-0.0126217 -0.0908626 7.66951e-22)
(-0.0122317 -0.0858633 4.50367e-22)
(-0.011797 -0.0811878 -1.7331e-21)
(-0.0113377 -0.0768066 2.3894e-21)
(-0.0108586 -0.0726941 -2.40562e-22)
(-0.0103462 -0.0688248 -2.87531e-22)
(-0.00991631 -0.065181 -2.50876e-21)
(0.0440297 -0.475647 -1.50556e-21)
(0.0391642 -0.435619 -1.58783e-21)
(0.0343128 -0.399274 -2.1324e-21)
(0.0294689 -0.366333 8.51295e-24)
(0.0247468 -0.336514 1.34022e-22)
(0.0202632 -0.309541 -2.97184e-21)
(0.0160892 -0.285155 1.15059e-22)
(0.0122687 -0.263112 4.54877e-22)
(0.00882736 -0.243185 -6.06743e-23)
(0.00577668 -0.225167 9.11935e-22)
(0.00311711 -0.208865 -3.66774e-21)
(0.000840913 -0.194103 -2.53895e-21)
(-0.00106577 -0.180721 9.08965e-22)
(-0.00262129 -0.168574 2.12849e-21)
(-0.00384724 -0.157529 -2.49494e-21)
(-0.00476748 -0.147467 -4.16298e-22)
(-0.00540741 -0.13828 -1.69791e-21)
(-0.00579334 -0.129869 -8.49787e-22)
(-0.00595205 -0.122148 1.55153e-21)
(-0.00591041 -0.115039 -2.0521e-21)
(-0.00569504 -0.108472 1.94731e-21)
(-0.00533212 -0.102385 -2.32325e-21)
(-0.00484706 -0.0967234 -1.96779e-21)
(-0.00426425 -0.0914386 -1.54184e-21)
(-0.00360689 -0.0864887 -3.98319e-22)
(-0.00289855 -0.0818385 -3.43114e-21)
(-0.00216165 -0.0774587 3.68254e-22)
(-0.00140153 -0.0733244 6.91929e-22)
(-0.000600371 -0.0694092 -2.13225e-21)
(0.000106712 -0.0657001 4.20528e-22)
(0.056403 -0.47393 -8.75655e-22)
(0.0504539 -0.433443 1.5391e-22)
(0.0446748 -0.396804 1.42059e-21)
(0.0390408 -0.363708 1.62601e-21)
(0.0336539 -0.333844 1.28267e-21)
(0.0286204 -0.306914 5.72374e-22)
(0.0240012 -0.282637 9.21916e-22)
(0.0198302 -0.260754 4.67926e-21)
(0.0161241 -0.241027 -2.88425e-21)
(0.0128859 -0.223235 6.03131e-23)
(0.0101081 -0.207178 7.57861e-22)
(0.007776 -0.192671 3.79001e-21)
(0.00586921 -0.179549 -2.68231e-21)
(0.00436353 -0.16766 2.07218e-21)
(0.00323203 -0.156868 -2.48467e-21)
(0.00244598 -0.147049 4.49592e-21)
(0.00197554 -0.138091 -1.34288e-21)
(0.00179029 -0.129894 5.22478e-23)
(0.00185965 -0.122369 2.5537e-21)
(0.00215319 -0.115434 1.96771e-21)
(0.00264093 -0.109018 -2.00795e-21)
(0.00329347 -0.103058 2.895e-21)
(0.00408241 -0.0974983 -1.41644e-21)
(0.0049804 -0.0922897 1.67343e-21)
(0.00596149 -0.0873895 2.43675e-21)
(0.00699925 -0.0827621 9.96684e-22)
(0.00806814 -0.0783792 3.08816e-21)
(0.00916291 -0.0742152 -9.77634e-22)
(0.010306 -0.0702433 -2.52883e-22)
(0.01134 -0.0664561 -2.14697e-21)
(0.0687188 -0.471907 -6.44452e-22)
(0.0616674 -0.431022 -4.68892e-22)
(0.0549566 -0.394145 -1.61895e-21)
(0.0485414 -0.360945 -4.68398e-21)
(0.042509 -0.331085 1.568e-21)
(0.0369531 -0.30424 1.24267e-22)
(0.0319225 -0.280112 -1.28011e-21)
(0.0274401 -0.258427 3.18154e-22)
(0.0235122 -0.238932 -1.57113e-22)
(0.0201326 -0.221397 -4.14759e-21)
(0.0172854 -0.205611 1.73006e-21)
(0.0149482 -0.191385 3.33249e-21)
(0.0130937 -0.178545 -2.45981e-23)
(0.0116916 -0.166936 1.38275e-21)
(0.0107093 -0.156415 3.76248e-21)
(0.0101131 -0.146856 -2.74466e-21)
(0.00986842 -0.138143 5.07191e-21)
(0.00994066 -0.130174 -2.60094e-21)
(0.0102953 -0.122855 4.84441e-21)
(0.0108981 -0.116105 -3.80873e-21)
(0.0117158 -0.109849 1.75431e-21)
(0.0127155 -0.104023 5.09362e-21)
(0.0138656 -0.0985704 4.91702e-22)
(0.0151358 -0.09344 -5.13347e-21)
(0.0164968 -0.0885893 2.99945e-21)
(0.0179194 -0.0839822 3.73683e-22)
(0.0193744 -0.0795902 -1.12409e-21)
(0.0208567 -0.075388 4.35117e-21)
(0.0223944 -0.0713468 1.71851e-21)
(0.0238039 -0.0674665 -1.79941e-21)
(0.0809709 -0.46958 1.89058e-21)
(0.0728034 -0.428364 1.10478e-22)
(0.0651612 -0.391311 -3.2861e-21)
(0.0579772 -0.358062 7.06712e-22)
(0.0513215 -0.328254 -1.14299e-21)
(0.0452733 -0.30154 7.61616e-22)
(0.0398676 -0.277602 1.94283e-21)
(0.0351149 -0.256151 3.94586e-21)
(0.0310104 -0.236922 -4.59876e-21)
(0.0275374 -0.219674 1.12843e-21)
(0.0246711 -0.204188 -9.74427e-22)
(0.0223809 -0.190267 7.3708e-22)
(0.0206323 -0.177732 -3.30381e-21)
(0.0193884 -0.166422 -3.13822e-22)
(0.0186108 -0.156191 6.12562e-21)
(0.0182605 -0.146909 -4.28135e-21)
(0.0182983 -0.138457 -2.98683e-21)
(0.018685 -0.130729 -2.4188e-21)
(0.0193821 -0.123629 4.32825e-21)
(0.0203518 -0.117074 1.04558e-21)
(0.0215568 -0.110987 -4.8638e-21)
(0.0229611 -0.105302 6.86136e-21)
(0.0245296 -0.0999603 -6.42606e-21)
(0.0262286 -0.0949106 4.53216e-21)
(0.0280257 -0.0901089 -2.65543e-21)
(0.029888 -0.0855189 1.84518e-21)
(0.031783 -0.0811117 1.54183e-21)
(0.0337053 -0.0768615 -6.84752e-21)
(0.0356892 -0.0727369 3.0108e-21)
(0.0375221 -0.0687467 6.7388e-23)
(0.0931531 -0.466954 -1.86712e-21)
(0.0838606 -0.425479 1.59777e-21)
(0.075292 -0.388313 -3.53112e-21)
(0.0673555 -0.355073 6.9998e-21)
(0.0601024 -0.32537 -2.08587e-21)
(0.053595 -0.298833 3.32462e-21)
(0.0478535 -0.275128 5.52046e-23)
(0.0428743 -0.253949 -4.39618e-22)
(0.0386404 -0.235018 -8.31894e-22)
(0.0351241 -0.218087 -5.29249e-23)
(0.0322908 -0.202927 -3.61172e-21)
(0.0301012 -0.189335 1.9056e-21)
(0.0285133 -0.177127 -2.57479e-21)
(0.0274831 -0.166136 -1.77896e-22)
(0.0269664 -0.156214 -8.10745e-21)
(0.0269187 -0.147224 2.67435e-21)
(0.0272958 -0.139047 1.76613e-21)
(0.0280542 -0.131574 -2.01168e-21)
(0.0291512 -0.124706 -2.27941e-22)
(0.030545 -0.118356 -3.4665e-21)
(0.0321948 -0.112447 -1.31287e-21)
(0.0340608 -0.10691 1.92964e-22)
(0.0361045 -0.101685 -3.53796e-21)
(0.0382888 -0.0967183 -5.69221e-21)
(0.0405777 -0.0919656 1.96095e-22)
(0.0429346 -0.0873893 -7.36039e-22)
(0.0453227 -0.0829605 2.08972e-21)
(0.047737 -0.0786518 -5.40806e-21)
(0.0502182 -0.0744285 4.82893e-21)
(0.0525211 -0.0703101 -1.09908e-20)
(0.105259 -0.464034 -4.54998e-21)
(0.0948379 -0.422374 6.28052e-21)
(0.085353 -0.385163 -7.27942e-21)
(0.0766851 -0.351993 -2.19241e-21)
(0.0688643 -0.322449 -1.55188e-21)
(0.0619348 -0.296138 -1.80316e-21)
(0.0558998 -0.272707 -1.68521e-21)
(0.0507408 -0.251837 -2.99059e-22)
(0.0464273 -0.233239 -1.88427e-21)
(0.0429199 -0.216653 -4.37383e-22)
(0.0401736 -0.201845 3.88813e-21)
(0.0381398 -0.188606 -2.03267e-21)
(0.0367685 -0.176745 -2.75007e-21)
(0.0360087 -0.166092 -5.16757e-21)
(0.0358098 -0.156494 1.13019e-20)
(0.0361218 -0.147814 -4.57399e-21)
(0.0368954 -0.139926 1.81126e-21)
(0.0380828 -0.13272 -7.31859e-21)
(0.0396369 -0.126096 2.85951e-21)
(0.0415121 -0.119963 -1.32183e-21)
(0.0436637 -0.114241 1.60523e-21)
(0.0460484 -0.108859 -6.17909e-22)
(0.0486239 -0.103755 5.94738e-21)
(0.0513495 -0.0988753 -2.18354e-21)
(0.0541857 -0.0941719 6.53462e-21)
(0.0570913 -0.0896067 -1.63196e-21)
(0.0600256 -0.0851497 9.11724e-21)
(0.0629831 -0.0807719 2.8586e-21)
(0.0660119 -0.0764335 5.54385e-21)
(0.0688304 -0.0721672 -1.9173e-20)
(0.117283 -0.460824 7.16564e-21)
(0.105735 -0.419058 -1.47778e-21)
(0.0953491 -0.381873 3.21772e-21)
(0.0859759 -0.348836 -9.81648e-22)
(0.0776218 -0.319506 3.56104e-21)
(0.0703112 -0.293469 3.70108e-21)
(0.0640288 -0.270355 4.49021e-21)
(0.0587399 -0.249832 -4.35968e-22)
(0.0543994 -0.231598 -5.03141e-21)
(0.0509556 -0.215386 7.53702e-21)
(0.0483522 -0.200956 -8.08195e-22)
(0.0465311 -0.18809 6.00922e-21)
(0.0454337 -0.176595 2.35604e-21)
(0.0450018 -0.166298 8.27742e-22)
(0.0451783 -0.157041 1.44266e-21)
(0.0459075 -0.148684 2.16782e-21)
(0.0471352 -0.141099 3.95153e-21)
(0.0488087 -0.134174 -1.27764e-21)
(0.0508771 -0.127804 6.55146e-21)
(0.0532907 -0.121897 3.30625e-21)
(0.056001 -0.116372 -7.06018e-21)
(0.0589608 -0.111154 1.32919e-20)
(0.0621244 -0.106178 -1.84065e-20)
(0.0654468 -0.101388 1.82287e-20)
(0.0688852 -0.0967352 -6.28094e-21)
(0.0723934 -0.092179 1.1457e-21)
(0.0759261 -0.0876881 -9.27379e-21)
(0.0794775 -0.0832307 5.26407e-21)
(0.0831033 -0.0787608 2.05035e-21)
(0.0864821 -0.0743257 -2.84206e-21)
(0.12922 -0.457329 -4.0903e-21)
(0.116552 -0.41554 4.74761e-21)
(0.105287 -0.378454 -1.35e-21)
(0.0952395 -0.345614 4.18768e-21)
(0.0863914 -0.316555 4.37647e-22)
(0.078745 -0.290842 1.20121e-21)
(0.0722652 -0.268088 -8.85365e-21)
(0.0668997 -0.247947 -1.73003e-21)
(0.062588 -0.230109 6.54405e-21)
(0.0592649 -0.214298 5.50517e-21)
(0.0568626 -0.200267 -9.74794e-21)
(0.0553127 -0.187796 6.06661e-21)
(0.054548 -0.176685 -6.30859e-21)
(0.0545026 -0.166758 4.77649e-21)
(0.0551128 -0.157856 -8.3592e-21)
(0.0563172 -0.149835 -6.72541e-21)
(0.0580564 -0.142566 2.12148e-22)
(0.0602734 -0.135932 -3.56618e-21)
(0.0629129 -0.129828 6.17435e-21)
(0.0659213 -0.124158 2.68548e-21)
(0.0692465 -0.118839 -1.75512e-21)
(0.0728375 -0.113793 -5.07023e-22)
(0.0766445 -0.108952 2.54954e-21)
(0.0806191 -0.104257 -8.45787e-21)
(0.0847138 -0.0996571 1.47395e-20)
(0.0888781 -0.0951088 -3.55857e-21)
(0.093061 -0.0905794 -4.56988e-22)
(0.0972564 -0.0860326 1.48372e-20)
(0.101528 -0.0814149 2.36048e-21)
(0.10551 -0.0767903 -2.37146e-21)
(0.141064 -0.453554 1.94809e-22)
(0.127291 -0.411828 -2.43231e-21)
(0.115173 -0.374917 -2.50828e-21)
(0.104489 -0.342341 -4.53322e-21)
(0.0951916 -0.31361 1.77059e-22)
(0.0872595 -0.288269 -3.92301e-21)
(0.0806365 -0.265916 4.70211e-21)
(0.0752514 -0.246193 -4.70931e-22)
(0.0710275 -0.22878 4.65713e-21)
(0.0678851 -0.213396 -3.69974e-21)
(0.0657442 -0.199786 -2.10054e-21)
(0.0645261 -0.187726 1.23231e-21)
(0.0641542 -0.177015 7.14423e-22)
(0.0645549 -0.167472 -7.96265e-21)
(0.0656578 -0.158936 4.80096e-21)
(0.0673956 -0.151263 -2.68509e-21)
(0.069704 -0.144319 7.65728e-21)
(0.0725214 -0.137987 -2.70993e-21)
(0.0757883 -0.132158 2.89042e-21)
(0.0794474 -0.126736 8.03288e-22)
(0.0834429 -0.121632 5.65842e-21)
(0.0877201 -0.116767 -1.10702e-21)
(0.0922254 -0.112069 1.02992e-20)
(0.0969064 -0.107476 -1.17224e-20)
(0.101711 -0.102933 -4.29918e-21)
(0.106584 -0.0983929 3.65992e-21)
(0.111468 -0.0938218 -2.1729e-22)
(0.116357 -0.0891774 -7.02527e-21)
(0.121321 -0.0843962 5.84424e-21)
(0.12595 -0.0795618 -7.912e-21)
(0.152811 -0.449502 7.02486e-21)
(0.137954 -0.40793 2.12551e-21)
(0.125017 -0.371272 2.80034e-21)
(0.113739 -0.339026 4.16699e-21)
(0.104043 -0.31068 6.69606e-21)
(0.0958802 -0.285761 -2.23698e-22)
(0.0891727 -0.263849 9.98624e-22)
(0.083829 -0.244578 9.21096e-21)
(0.079755 -0.227619 -1.8794e-21)
(0.0768563 -0.212683 -3.89168e-21)
(0.0750398 -0.199513 7.22989e-21)
(0.0742157 -0.187879 1.41057e-21)
(0.0742983 -0.17758 1.93564e-23)
(0.0752058 -0.168432 1.94725e-21)
(0.076861 -0.160272 3.8845e-21)
(0.0791908 -0.152954 -8.58976e-21)
(0.0821258 -0.146345 7.53257e-21)
(0.0855999 -0.140323 1.34781e-21)
(0.0895499 -0.134779 8.40427e-21)
(0.0939146 -0.129613 -4.65215e-21)
(0.0986348 -0.124734 8.26506e-21)
(0.103652 -0.120059 -9.21542e-21)
(0.108909 -0.115513 9.29549e-21)
(0.11435 -0.111029 1.58911e-21)
(0.119917 -0.106548 -6.74564e-21)
(0.125551 -0.102021 -2.50616e-21)
(0.131187 -0.0974067 1.44332e-20)
(0.136817 -0.0926587 1.08584e-20)
(0.142522 -0.0877003 3.00655e-21)
(0.147837 -0.082637 -2.69618e-21)
(0.164455 -0.44518 7.36023e-22)
(0.148543 -0.403854 1.99593e-21)
(0.134829 -0.367528 8.75397e-21)
(0.123007 -0.33568 -1.48032e-20)
(0.112967 -0.307778 -1.65765e-21)
(0.104635 -0.283327 -1.80919e-21)
(0.0979061 -0.261897 7.98474e-22)
(0.0926689 -0.243109 1.24179e-21)
(0.0888108 -0.226629 2.27581e-21)
(0.0862215 -0.212161 -6.39732e-21)
(0.0847948 -0.199445 -1.53284e-21)
(0.0844293 -0.188251 3.90941e-21)
(0.0850295 -0.178372 4.72495e-21)
(0.0865055 -0.169626 -4.72967e-21)
(0.0887732 -0.161849 -5.30939e-21)
(0.0917536 -0.154892 8.34521e-21)
(0.0953723 -0.148622 5.98626e-21)
(0.0995589 -0.142916 -1.43467e-21)
(0.104247 -0.137663 -4.17135e-21)
(0.109371 -0.132762 8.34167e-22)
(0.114868 -0.128117 -1.09086e-20)
(0.120678 -0.123642 1.36263e-20)
(0.126739 -0.119258 -9.7193e-21)
(0.132991 -0.114893 -5.68818e-22)
(0.139373 -0.110483 6.94116e-21)
(0.145817 -0.105973 -2.30856e-21)
(0.152254 -0.101319 -7.43728e-21)
(0.158674 -0.096464 9.30126e-21)
(0.165165 -0.0913175 -3.03513e-22)
(0.171208 -0.0860083 1.97526e-21)
(0.175993 -0.440591 -4.84841e-22)
(0.159063 -0.399607 -1.99677e-21)
(0.14462 -0.363694 -1.01072e-20)
(0.132311 -0.332313 3.69101e-21)
(0.12199 -0.30491 -1.30578e-21)
(0.113553 -0.280975 4.25995e-21)
(0.106872 -0.260063 3.14054e-22)
(0.10181 -0.241788 -5.87805e-21)
(0.0982375 -0.225809 9.28373e-21)
(0.0960267 -0.211827 -8.79559e-21)
(0.0950577 -0.199578 -4.93927e-22)
(0.0952173 -0.18883 2.42578e-21)
(0.0963998 -0.179378 -4.39789e-21)
(0.0985071 -0.171037 5.40814e-21)
(0.101448 -0.163643 -1.07257e-20)
(0.105138 -0.157049 -2.80505e-21)
(0.109496 -0.151121 6.9527e-21)
(0.11445 -0.145734 -1.89998e-22)
(0.119929 -0.140777 -5.32156e-21)
(0.125864 -0.136146 1.44913e-20)
(0.132191 -0.131742 -7.79182e-21)
(0.138843 -0.127477 -1.13554e-20)
(0.145758 -0.123266 4.00708e-21)
(0.152871 -0.119032 -1.22289e-20)
(0.160116 -0.114704 -3.25034e-21)
(0.167421 -0.110221 -5.7394e-22)
(0.174707 -0.105533 -9.30409e-21)
(0.181964 -0.100573 1.1113e-20)
(0.189285 -0.0952314 -6.60851e-21)
(0.196094 -0.0896634 8.54531e-21)
(0.187421 -0.435741 -2.48594e-21)
(0.169518 -0.395196 -8.09181e-21)
(0.154402 -0.359779 4.41188e-21)
(0.141669 -0.328933 -4.45789e-21)
(0.131136 -0.302086 -3.60778e-21)
(0.122667 -0.27871 -2.31806e-21)
(0.116106 -0.258352 -8.62038e-21)
(0.111294 -0.240617 6.10543e-21)
(0.10808 -0.225158 -1.60924e-20)
(0.10632 -0.211674 -6.47443e-21)
(0.105879 -0.1999 2.11873e-21)
(0.106633 -0.189603 4.07383e-21)
(0.108464 -0.180578 9.49082e-23)
(0.111266 -0.172641 -8.78421e-21)
(0.114941 -0.165629 2.10319e-21)
(0.119398 -0.159395 -9.04101e-21)
(0.124554 -0.153805 -6.98341e-21)
(0.130328 -0.148736 -4.60093e-21)
(0.136649 -0.144076 -1.25557e-21)
(0.143445 -0.139718 7.72618e-21)
(0.150649 -0.135563 1.19493e-20)
(0.158192 -0.131516 -3.76112e-21)
(0.166008 -0.12749 -3.8834e-21)
(0.174029 -0.1234 7.65056e-21)
(0.182184 -0.119168 4.5348e-21)
(0.190396 -0.114726 -3.60214e-21)
(0.198578 -0.110016 -4.30957e-21)
(0.206717 -0.104957 3.87915e-22)
(0.214913 -0.0994189 4.97491e-21)
(0.222527 -0.0935844 7.55556e-21)
(0.198736 -0.430636 -6.31942e-22)
(0.179914 -0.39063 1.04816e-20)
(0.16419 -0.35579 8.90516e-21)
(0.151105 -0.325547 7.44591e-21)
(0.140434 -0.29931 -4.98929e-21)
(0.13201 -0.276537 -1.05822e-21)
(0.125648 -0.256765 9.1478e-22)
(0.121164 -0.239592 7.83262e-21)
(0.118385 -0.22467 3.15463e-21)
(0.117152 -0.211694 8.06971e-21)
(0.117313 -0.200398 -1.18227e-20)
(0.11873 -0.190552 1.12275e-21)
(0.121278 -0.181949 5.27394e-21)
(0.12484 -0.174409 3.50264e-21)
(0.12931 -0.16777 7.90881e-21)
(0.134593 -0.161888 -5.23118e-21)
(0.1406 -0.15663 -5.42887e-21)
(0.147248 -0.151873 8.70127e-22)
(0.15446 -0.147506 1.2615e-20)
(0.162164 -0.143422 -2.11439e-20)
(0.17029 -0.139518 7.49263e-21)
(0.178767 -0.135697 -1.20311e-22)
(0.187528 -0.131867 1.59911e-20)
(0.1965 -0.127936 -6.95015e-21)
(0.20561 -0.123818 -2.37637e-22)
(0.214773 -0.119436 -4.9331e-21)
(0.223895 -0.114722 4.77454e-21)
(0.23296 -0.109578 1.2227e-21)
(0.242074 -0.103849 -6.06231e-21)
(0.250529 -0.0977467 2.24698e-20)
(0.209935 -0.425279 -9.9725e-21)
(0.190258 -0.385914 -6.46865e-21)
(0.173999 -0.351735 -1.78718e-20)
(0.16064 -0.322161 -8.89204e-21)
(0.149913 -0.296587 8.5656e-21)
(0.141618 -0.274457 -5.55701e-21)
(0.135537 -0.255301 -1.57054e-21)
(0.131463 -0.238711 -4.18252e-21)
(0.129202 -0.224337 7.17777e-21)
(0.128573 -0.211873 -1.74805e-21)
(0.129411 -0.201055 -2.83782e-21)
(0.131566 -0.191653 -4.04846e-22)
(0.134899 -0.183463 -1.35732e-20)
(0.139287 -0.176308 -1.01772e-21)
(0.144615 -0.170029 3.60691e-21)
(0.150782 -0.164484 -4.82916e-22)
(0.157693 -0.159543 -1.67503e-20)
(0.165264 -0.155087 1.69329e-20)
(0.173415 -0.151004 -1.75137e-20)
(0.182071 -0.147187 7.03425e-21)
(0.19116 -0.143534 1.01921e-21)
(0.200611 -0.139945 4.45146e-22)
(0.210355 -0.136322 -8.45334e-21)
(0.220317 -0.132567 3.04696e-21)
(0.230421 -0.128584 6.93049e-23)
(0.240575 -0.124286 1.12019e-21)
(0.250679 -0.119591 -2.52959e-20)
(0.260711 -0.114385 6.57254e-21)
(0.270784 -0.10848 7.68819e-21)
(0.280118 -0.102119 1.03921e-20)
(0.221015 -0.419677 1.97587e-20)
(0.200557 -0.381055 7.94092e-21)
(0.183844 -0.347618 4.89425e-21)
(0.170298 -0.318779 7.99093e-21)
(0.159604 -0.293919 -1.12606e-21)
(0.151526 -0.272471 6.88916e-21)
(0.145816 -0.253956 1.62846e-20)
(0.142239 -0.237966 -2.02265e-21)
(0.140579 -0.224148 1.08445e-21)
(0.140637 -0.212197 2.27904e-20)
(0.142231 -0.201851 -2.89126e-21)
(0.145197 -0.192882 3.49226e-21)
(0.149387 -0.18509 -1.52209e-21)
(0.154667 -0.178302 -5.70547e-22)
(0.160915 -0.172362 2.08219e-20)
(0.168023 -0.167132 8.08153e-22)
(0.175892 -0.162488 2.45678e-20)
(0.184434 -0.158312 -2.95792e-21)
(0.193567 -0.154496 -5.86052e-21)
(0.203214 -0.150935 1.40264e-20)
(0.213303 -0.147528 -1.36193e-20)
(0.223763 -0.144171 1.52442e-20)
(0.234522 -0.140763 8.63187e-21)
(0.245507 -0.1372 -7.48198e-21)
(0.256638 -0.133377 1.13595e-20)
(0.267819 -0.129192 1.33785e-21)
(0.278941 -0.124551 -5.47863e-21)
(0.289979 -0.119315 2.42357e-21)
(0.301051 -0.113259 1.9821e-20)
(0.311299 -0.106661 3.38495e-21)
(0.231974 -0.413834 -3.39042e-21)
(0.210819 -0.376058 -7.80457e-21)
(0.193744 -0.343446 3.5447e-21)
(0.180104 -0.315406 -1.44381e-20)
(0.169539 -0.291307 7.40467e-21)
(0.161773 -0.270575 -1.4225e-20)
(0.156526 -0.252726 -1.01388e-20)
(0.153538 -0.237348 2.85972e-21)
(0.152567 -0.22409 3.40489e-21)
(0.153395 -0.212648 -1.53391e-20)
(0.155826 -0.202763 -7.11733e-21)
(0.159681 -0.194211 3.57575e-21)
(0.1648 -0.186796 -9.82134e-21)
(0.171039 -0.180349 -4.1785e-21)
(0.178269 -0.17472 -2.99937e-21)
(0.186376 -0.169777 -3.09625e-21)
(0.195255 -0.165399 -1.36831e-20)
(0.204814 -0.161476 -9.19787e-21)
(0.21497 -0.157902 1.35621e-21)
(0.225644 -0.154577 3.09041e-21)
(0.236764 -0.1514 3.64952e-21)
(0.248259 -0.148271 -1.25428e-20)
(0.26006 -0.145083 4.94896e-21)
(0.272092 -0.141727 -1.05257e-20)
(0.284276 -0.138088 1.04776e-20)
(0.296512 -0.134051 -1.38805e-20)
(0.308685 -0.129506 4.77916e-21)
(0.320764 -0.124285 -7.15272e-21)
(0.332871 -0.11812 -1.07834e-20)
(0.344068 -0.111319 -1.28761e-21)
(0.242811 -0.407756 -7.24001e-21)
(0.221053 -0.370929 -7.04541e-21)
(0.203716 -0.339222 -7.51643e-21)
(0.190084 -0.312042 -6.14261e-21)
(0.179749 -0.288751 1.89751e-20)
(0.172395 -0.268766 2.95101e-21)
(0.16771 -0.251601 9.05775e-21)
(0.165404 -0.236845 1.46971e-20)
(0.165213 -0.224146 7.67005e-21)
(0.1669 -0.213206 -1.01866e-20)
(0.170251 -0.203767 1.7966e-20)
(0.175073 -0.19561 -1.78901e-20)
(0.181195 -0.188545 1.78616e-20)
(0.188462 -0.182408 2.28419e-21)
(0.196737 -0.177056 4.96248e-21)
(0.205899 -0.172362 1.56058e-21)
(0.215839 -0.168212 2.20786e-20)
(0.22646 -0.164502 -3.33752e-21)
(0.237676 -0.161135 3.19477e-21)
(0.249408 -0.158014 1.13833e-20)
(0.261584 -0.155044 -1.294e-20)
(0.274136 -0.152126 1.08632e-20)
(0.286995 -0.149156 4.99097e-22)
(0.30009 -0.146017 5.27333e-21)
(0.313343 -0.142588 1.00444e-20)
(0.326653 -0.138739 -1.7559e-21)
(0.339899 -0.134341 1.0638e-20)
(0.353048 -0.129193 1.6136e-20)
(0.366226 -0.122976 -1.75005e-20)
(0.378407 -0.116028 -1.2626e-20)
(0.253523 -0.401447 2.1878e-20)
(0.231269 -0.365672 -2.54548e-21)
(0.213778 -0.334949 5.76257e-21)
(0.200264 -0.308688 1.13865e-20)
(0.190267 -0.286247 -3.4371e-20)
(0.183431 -0.267038 3.89784e-21)
(0.179409 -0.250573 -1.46668e-20)
(0.177883 -0.236443 1.55299e-20)
(0.178567 -0.2243 -1.26964e-20)
(0.181202 -0.213848 7.65113e-21)
(0.185557 -0.204835 -2.79628e-20)
(0.191427 -0.197047 3.65818e-22)
(0.198626 -0.1903 -1.06192e-20)
(0.20699 -0.184436 1.60455e-20)
(0.216375 -0.179319 -1.78077e-20)
(0.22665 -0.174828 -1.02446e-21)
(0.2377 -0.170858 -1.59722e-20)
(0.249426 -0.167313 -1.48142e-21)
(0.261738 -0.164104 1.52825e-21)
(0.274556 -0.161142 4.19028e-21)
(0.287808 -0.158341 -2.31716e-20)
(0.301429 -0.155607 -8.27888e-22)
(0.315353 -0.152838 -1.39465e-20)
(0.329514 -0.14992 -3.39933e-21)
(0.343839 -0.146721 -9.25611e-21)
(0.358231 -0.143102 -1.0516e-20)
(0.372563 -0.13891 -1.14939e-20)
(0.386805 -0.133909 1.87254e-20)
(0.401082 -0.127718 5.17999e-21)
(0.414284 -0.120699 -1.21054e-20)
(0.26411 -0.394911 -1.46067e-20)
(0.241476 -0.36029 5.85202e-21)
(0.22395 -0.330627 -1.08623e-20)
(0.210671 -0.305341 1.68312e-21)
(0.201125 -0.283789 1.99346e-20)
(0.194917 -0.265379 -1.04356e-20)
(0.191664 -0.249627 -1.19304e-20)
(0.191019 -0.236125 -1.04279e-20)
(0.192672 -0.22453 3.92497e-22)
(0.196346 -0.21455 7.24973e-21)
(0.201792 -0.205941 -5.79153e-21)
(0.20879 -0.198492 -3.1127e-23)
(0.217143 -0.192026 1.94354e-20)
(0.226676 -0.186393 -1.00811e-20)
(0.237233 -0.181461 3.01492e-21)
(0.248679 -0.177121 -9.12879e-21)
(0.260892 -0.173274 3.49327e-21)
(0.273766 -0.169833 8.08929e-21)
(0.287208 -0.16672 9.79207e-21)
(0.301136 -0.163858 -1.09078e-20)
(0.31548 -0.161169 1.60487e-21)
(0.330175 -0.158572 1.01526e-20)
(0.345161 -0.155972 1.83875e-20)
(0.36038 -0.153259 5.22888e-21)
(0.375766 -0.150302 -2.00211e-20)
(0.391229 -0.146951 2.42019e-20)
(0.406647 -0.143032 -1.22612e-20)
(0.421991 -0.138267 -1.52708e-20)
(0.437393 -0.132204 -9.68309e-21)
(0.451648 -0.125219 -1.56067e-20)
(0.274571 -0.388154 8.01756e-21)
(0.251685 -0.354787 -6.92148e-21)
(0.234252 -0.326255 2.56173e-21)
(0.221331 -0.301997 1.56311e-20)
(0.212356 -0.281369 4.51838e-21)
(0.206889 -0.263779 -4.13234e-21)
(0.204512 -0.248748 1.02128e-20)
(0.204851 -0.235872 2.12341e-21)
(0.207571 -0.224814 1.07878e-20)
(0.212376 -0.215288 6.23592e-21)
(0.219 -0.207055 1.66244e-22)
(0.227208 -0.199912 4.34013e-21)
(0.23679 -0.193688 -1.44269e-21)
(0.247562 -0.188238 2.63249e-21)
(0.259359 -0.18344 7.69891e-21)
(0.272035 -0.179191 -4.46814e-21)
(0.285463 -0.175401 1.14817e-20)
(0.299529 -0.171994 1.22334e-20)
(0.314136 -0.168901 -1.4514e-20)
(0.329199 -0.16606 1.50957e-20)
(0.344647 -0.163407 3.38706e-20)
(0.360417 -0.160875 -2.2494e-20)
(0.376455 -0.158386 2.3584e-20)
(0.39271 -0.155841 -1.68211e-20)
(0.409129 -0.153115 -2.51856e-21)
(0.425635 -0.150056 1.94836e-20)
(0.442117 -0.146477 -3.86058e-21)
(0.458557 -0.142052 1.55375e-20)
(0.475099 -0.136244 1.59805e-20)
(0.490442 -0.129431 -3.5453e-20)
(0.284905 -0.381179 -7.84968e-21)
(0.261907 -0.349162 3.75479e-21)
(0.244703 -0.321832 1.78714e-21)
(0.232271 -0.298649 -1.85522e-20)
(0.22399 -0.278974 -1.03082e-20)
(0.21938 -0.262222 8.14819e-21)
(0.21799 -0.247916 -2.39135e-20)
(0.219416 -0.235661 3.03129e-20)
(0.223301 -0.225126 -1.77669e-20)
(0.229328 -0.216033 2.21863e-21)
(0.237216 -0.208149 -3.36685e-21)
(0.246715 -0.201277 -1.1937e-20)
(0.257604 -0.195253 2.53238e-20)
(0.269687 -0.189938 1.0335e-20)
(0.282789 -0.185218 -1.06679e-20)
(0.296756 -0.180997 2.67959e-22)
(0.311452 -0.177192 6.58362e-21)
(0.326758 -0.173739 -1.49828e-20)
(0.342569 -0.170579 3.13098e-21)
(0.358796 -0.167664 1.11142e-20)
(0.375364 -0.164946 -4.68764e-21)
(0.39221 -0.16238 8.41251e-21)
(0.409284 -0.159907 -1.67968e-20)
(0.426544 -0.157452 2.51115e-20)
(0.443952 -0.15491 6.34251e-21)
(0.46145 -0.15214 -1.66902e-20)
(0.478948 -0.148951 -1.51948e-20)
(0.496454 -0.144976 -3.21355e-22)
(0.514137 -0.139577 2.15223e-20)
(0.530598 -0.133116 -6.32513e-21)
(0.295112 -0.37399 -2.22493e-21)
(0.272155 -0.343415 -1.73934e-20)
(0.255324 -0.317351 2.1311e-20)
(0.243517 -0.295285 1.52903e-20)
(0.236056 -0.27659 1.63021e-20)
(0.232421 -0.260688 5.0381e-21)
(0.232128 -0.247108 7.5612e-21)
(0.234744 -0.235467 4.09216e-21)
(0.239891 -0.22544 -1.69754e-20)
(0.247232 -0.216757 3.1981e-20)
(0.256469 -0.209191 -2.76364e-20)
(0.267339 -0.202555 -2.2358e-21)
(0.279609 -0.196689 4.11307e-21)
(0.293072 -0.191463 -2.06469e-20)
(0.307545 -0.186766 1.84617e-20)
(0.322865 -0.182508 -5.63971e-21)
(0.338887 -0.178618 -1.5381e-20)
(0.355485 -0.175034 6.37754e-21)
(0.372545 -0.171711 -1.22436e-20)
(0.389973 -0.168612 -1.12999e-20)
(0.407687 -0.165708 -1.26881e-20)
(0.42562 -0.162973 2.95463e-21)
(0.443722 -0.160378 1.98074e-21)
(0.461956 -0.157881 -3.3964e-20)
(0.480299 -0.155413 -1.36117e-20)
(0.498717 -0.152867 8.54325e-21)
(0.517152 -0.150073 1.12089e-20)
(0.535658 -0.146642 -1.57689e-20)
(0.55446 -0.141828 -6.28022e-21)
(0.572069 -0.135941 1.12228e-21)
(0.305194 -0.366588 -1.65105e-21)
(0.282442 -0.337545 1.1243e-20)
(0.266137 -0.312803 -3.25533e-21)
(0.255092 -0.29189 -4.09181e-21)
(0.24858 -0.274197 -2.55177e-20)
(0.246039 -0.259152 -6.14545e-21)
(0.246953 -0.246299 1.17286e-20)
(0.250863 -0.23526 -8.253e-21)
(0.257366 -0.225723 -1.02492e-21)
(0.266108 -0.217426 -1.69741e-21)
(0.276776 -0.210151 1.05667e-20)
(0.289094 -0.203715 -1.7038e-20)
(0.302816 -0.197969 -1.20326e-20)
(0.317728 -0.192785 1.47496e-20)
(0.333636 -0.18806 -8.82105e-21)
(0.35037 -0.183709 -1.11878e-20)
(0.367778 -0.179664 2.44319e-20)
(0.385724 -0.17587 -3.9124e-21)
(0.404089 -0.172287 1.57805e-20)
(0.422769 -0.16889 -1.45946e-20)
(0.441672 -0.165662 -1.2444e-20)
(0.460725 -0.162596 1.11017e-20)
(0.479869 -0.159695 -1.13294e-21)
(0.499069 -0.156954 -8.82297e-21)
(0.518307 -0.154359 8.00384e-21)
(0.53757 -0.151867 -2.58077e-20)
(0.556841 -0.149374 1.58446e-20)
(0.576246 -0.146519 -2.80667e-22)
(0.596122 -0.142472 -1.74831e-20)
(0.614914 -0.137443 2.84983e-20)
(0.315158 -0.358977 8.17067e-21)
(0.292786 -0.331545 -2.19852e-20)
(0.277163 -0.308175 -2.07572e-21)
(0.267021 -0.288446 1.15682e-20)
(0.261584 -0.271771 -3.1875e-21)
(0.260255 -0.257589 -9.47049e-21)
(0.262485 -0.245456 4.57945e-21)
(0.267789 -0.235007 5.65039e-21)
(0.27574 -0.225941 5.27792e-22)
(0.285969 -0.218006 7.56066e-21)
(0.298145 -0.210992 2.54328e-20)
(0.311981 -0.204726 -8.94476e-21)
(0.327223 -0.199063 2.63832e-21)
(0.343645 -0.193883 -7.04708e-21)
(0.361048 -0.189087 2.69316e-20)
(0.379255 -0.184593 -5.12419e-21)
(0.398106 -0.180336 1.74472e-20)
(0.417462 -0.176265 -7.10793e-21)
(0.437195 -0.17234 7.88419e-21)
(0.457192 -0.16854 1.23866e-20)
(0.477355 -0.164853 2.27501e-21)
(0.497597 -0.161284 8.93462e-21)
(0.517848 -0.157855 -7.67115e-21)
(0.53806 -0.1546 2.1653e-20)
(0.558208 -0.151562 -9.0768e-21)
(0.578285 -0.148791 3.42154e-20)
(0.598302 -0.146314 -9.92802e-21)
(0.618473 -0.143904 7.02436e-21)
(0.639348 -0.140718 -1.35482e-20)
(0.659397 -0.136835 2.7119e-20)
(0.325036 -0.351164 -1.76979e-20)
(0.303218 -0.325405 6.10898e-22)
(0.288423 -0.303444 -1.24985e-20)
(0.27932 -0.284924 2.37515e-21)
(0.275086 -0.269281 7.15072e-22)
(0.275086 -0.255964 -1.27295e-20)
(0.278739 -0.244544 -2.50259e-20)
(0.285533 -0.234671 1.30126e-20)
(0.295022 -0.226055 -1.9004e-20)
(0.306815 -0.218457 -1.06621e-20)
(0.32057 -0.211677 -6.42513e-21)
(0.335989 -0.205551 -5.49224e-21)
(0.352808 -0.199941 2.94325e-22)
(0.370794 -0.194734 -2.05561e-20)
(0.389743 -0.189834 1.45707e-20)
(0.409472 -0.185163 -2.41394e-20)
(0.42982 -0.180657 -6.46115e-21)
(0.450642 -0.176264 7.17273e-21)
(0.47181 -0.171943 9.37198e-21)
(0.493205 -0.167667 9.80029e-21)
(0.514724 -0.163419 7.80796e-21)
(0.53627 -0.1592 -1.99735e-20)
(0.557761 -0.155028 2.07662e-20)
(0.579124 -0.150947 -2.19725e-21)