/*--------------------------------*- C++ -*----------------------------------*\
| =========                 |                                                 |
| \\      /  F ield         | OpenFOAM: The Open Source CFD Toolbox           |
|  \\    /   O peration     | Version:  v1912                                 |
|   \\  /    A nd           | Website:  www.openfoam.com                      |
|    \\/     M anipulation  |                                                 |
\*---------------------------------------------------------------------------*/
FoamFile
{
    version     2.0;
    format      ascii;
    class       surfaceScalarField;
    location    "45.5";
    object      phi;
}
// * * * * * * * * * * * * * * * * * * * * * * * * * * * * * * * * * * * * * //

dimensions      [0 3 -1 0 0 0 0];
oriented        oriented;


internalField   nonuniform List<scalar> 
18940
(
0.000357991
-0.234367
0.234009
0.00137802
-0.216331
0.215311
0.00288087
-0.204796
0.203293
0.00469613
-0.197012
0.195197
0.00669308
-0.191256
0.189259
0.00877006
-0.186461
0.184384
0.0108534
-0.182037
0.179954
0.0128935
-0.177692
0.175652
0.0148604
-0.1733
0.171333
0.0167387
-0.168832
0.166954
0.0185236
-0.16431
0.162525
0.0202176
-0.159776
0.158082
0.0218277
-0.155278
0.153668
0.0233638
-0.15086
0.149324
0.0248371
-0.146557
0.145084
0.0262591
-0.142395
0.140973
0.0276415
-0.138385
0.137003
0.0289947
-0.134525
0.133172
0.0303272
-0.130796
0.129464
-0.127157
0.12584
0.0316441
0.000381411
-0.234749
0.00142133
-0.217371
0.0029349
-0.206309
0.00475448
-0.198832
0.00674592
-0.193247
0.00880762
-0.188522
0.0108671
-0.184097
0.0128765
-0.179701
0.0148076
-0.175231
0.0166468
-0.170671
0.0183911
-0.166054
0.020044
-0.161429
0.0216137
-0.156848
0.0231108
-0.152357
0.0245467
-0.147993
0.0259335
-0.143782
0.027283
-0.139735
0.0286059
-0.135848
0.0299111
-0.132101
-0.128451
0.0312048
0.000402833
-0.235151
0.00145898
-0.218427
0.00298127
-0.207831
0.00480143
-0.200652
0.00678372
-0.19523
0.00882647
-0.190565
0.0108585
-0.186129
0.0128337
-0.181677
0.0147259
-0.177123
0.0165233
-0.172469
0.0182243
-0.167755
0.0198341
-0.163039
0.0213616
-0.158376
0.022818
-0.153813
0.0242152
-0.149391
0.0255654
-0.145132
0.0268807
-0.14105
0.028172
-0.13714
0.0294488
-0.133378
-0.12972
0.0307179
0.000416703
-0.235568
0.0014879
-0.219498
0.00301806
-0.209362
0.00483623
-0.20247
0.006806
-0.197199
0.00882626
-0.192585
0.0108273
-0.18813
0.0127651
-0.183614
0.0146153
-0.178973
0.0163683
-0.174221
0.018024
-0.169411
0.0195888
-0.164604
0.0210725
-0.159859
0.0224868
-0.155228
0.023844
-0.150748
0.0251566
-0.146445
0.0264365
-0.14233
0.0276952
-0.138398
0.0289426
-0.134626
-0.130964
0.0301864
0.000427971
-0.235996
0.00151143
-0.220581
0.00304662
-0.210897
0.00485954
-0.204283
0.00681324
-0.199153
0.00880744
-0.194579
0.0107741
-0.190097
0.0126713
-0.185511
0.0144769
-0.180779
0.016183
-0.175928
0.0177912
-0.171019
0.0193092
-0.166122
0.0207476
-0.161298
0.0221186
-0.156599
0.0234348
-0.152064
0.0247085
-0.147718
0.0259521
-0.143573
0.0271773
-0.139624
0.0283945
-0.135843
-0.132182
0.0296123
0.000437061
-0.236433
0.00152998
-0.221674
0.00306721
-0.212434
0.0048716
-0.206088
0.00680575
-0.201087
0.00877041
-0.196544
0.0106994
-0.192026
0.012553
-0.187365
0.0143112
-0.182537
0.0159682
-0.177585
0.017527
-0.172578
0.0189966
-0.167591
0.0203882
-0.162689
0.0217147
-0.157925
0.0229886
-0.153338
0.0242226
-0.148952
0.0254289
-0.14478
0.0266196
-0.140814
0.0278056
-0.137029
-0.133373
0.0289966
0.000444542
-0.236878
0.00154423
-0.222774
0.00308038
-0.21397
0.00487289
-0.20788
0.00678402
-0.202998
0.00871576
-0.198476
0.0106039
-0.193914
0.012411
-0.189172
0.0141194
-0.184245
0.0157249
-0.17919
0.0172325
-0.174086
0.0186519
-0.169011
0.0199955
-0.164033
0.0212761
-0.159206
0.0225067
-0.154569
0.0236998
-0.150146
0.0248678
-0.145948
0.0260229
-0.141969
0.0271768
-0.138183
-0.134536
0.0283402
0.000450567
-0.237328
0.00155451
-0.223878
0.00308656
-0.215502
0.00486388
-0.209657
0.00674862
-0.204883
0.00864416
-0.200371
0.0104884
-0.195758
0.0122463
-0.19093
0.0139023
-0.185901
0.0154543
-0.180742
0.0169087
-0.17554
0.0182765
-0.170378
0.0195704
-0.165327
0.0208039
-0.160439
0.0219899
-0.155755
0.023141
-0.151297
0.0242693
-0.147076
0.0253875
-0.143087
0.026508
-0.139303
-0.135671
0.0276427
0.000455242
-0.237783
0.0015611
-0.224984
0.00308617
-0.217027
0.00484514
-0.211416
0.00670024
-0.206738
0.00855643
-0.202228
0.0103539
-0.197556
0.0120599
-0.192636
0.0136612
-0.187502
0.0151576
-0.182239
0.016557
-0.176939
0.0178713
-0.171693
0.0191141
-0.16657
0.0202991
-0.161624
0.0214391
-0.156895
0.0225465
-0.152404
0.0236337
-0.148163
0.0247134
-0.144167
0.0257988
-0.140389
-0.136775
0.0269033
0.000458641
-0.238242
0.00156428
-0.226089
0.0030797
-0.218543
0.00481731
-0.213154
0.00663969
-0.208561
0.00845354
-0.204041
0.0102014
-0.199303
0.011853
-0.194288
0.0133974
-0.189047
0.0148361
-0.183677
0.0161786
-0.178282
0.0174378
-0.172952
0.0186278
-0.16776
0.0197624
-0.162759
0.0208546
-0.157987
0.0219167
-0.153466
0.0229607
-0.149207
0.0239997
-0.145206
0.025048
-0.141437
-0.137848
0.0261202
0.000460871
-0.238703
0.0015644
-0.227193
0.00306772
-0.220046
0.00478115
-0.214867
0.0065679
-0.210347
0.00833663
-0.20581
0.0100323
-0.200999
0.0116272
-0.195882
0.0131124
-0.190532
0.0144915
-0.185056
0.0157752
-0.179566
0.0169773
-0.174154
0.0181125
-0.168895
0.0191949
-0.163841
0.0202373
-0.159029
0.0212516
-0.15448
0.02225
-0.150206
0.0232455
-0.146202
0.0242535
-0.142445
-0.138885
0.0252908
0.000462086
-0.239165
0.00156192
-0.228293
0.00305091
-0.221535
0.00473755
-0.216554
0.006486
-0.212096
0.00820702
-0.207531
0.00984814
-0.20264
0.011384
-0.197418
0.0128081
-0.191956
0.0141256
-0.186374
0.0153486
-0.180789
0.0164916
-0.175297
0.01757
-0.169973
0.0185978
-0.164869
0.0195878
-0.160019
0.0205517
-0.155444
0.0215011
-0.151155
0.0224496
-0.14715
0.0234135
-0.143409
-0.139883
0.0244118
0.000462566
-0.239628
0.00155743
-0.229388
0.00303012
-0.223008
0.0046876
-0.218212
0.00639528
-0.213804
0.00806626
-0.209202
0.00965064
-0.204225
0.0111256
-0.198893
0.0124866
-0.193317
0.0137407
-0.187628
0.014901
-0.181949
0.0159829
-0.176379
0.017002
-0.170992
0.0179726
-0.16584
0.0189072
-0.160954
0.0198172
-0.156354
0.0207139
-0.152052
0.0216107
-0.148047
0.0225254
-0.144324
-0.140837
0.0234795
0.000462789
-0.24009
0.00155181
-0.230477
0.00300642
-0.224462
0.00463253
-0.219838
0.00629721
-0.215468
0.00791607
-0.210821
0.00944184
-0.20575
0.0108541
-0.200306
0.0121505
-0.194614
0.0133395
-0.188817
0.0144353
-0.183045
0.0154539
-0.177398
0.0164112
-0.17195
0.0173214
-0.16675
0.018197
-0.161829
0.0190487
-0.157206
0.0198875
-0.152891
0.0207268
-0.148886
0.0215853
-0.145182
-0.141739
0.0224874
0.000463557
-0.240554
0.00154622
-0.231559
0.00298101
-0.225897
0.0045737
-0.22143
0.00619341
-0.217088
0.00775838
-0.212386
0.00922401
-0.207216
0.0105723
-0.201654
0.0118028
-0.195844
0.0129254
-0.18994
0.0139551
-0.184074
0.0149084
-0.178351
0.0158013
-0.172842
0.0166477
-0.167596
0.0174597
-0.162641
0.0182477
-0.157994
0.0190218
-0.153665
0.019795
-0.14966
0.0205868
-0.145974
-0.14258
0.0214273
0.000466018
-0.24102
0.00154196
-0.232635
0.00295511
-0.22731
0.00451248
-0.222988
0.00608556
-0.218661
0.00759525
-0.213896
0.00899964
-0.20862
0.0102831
-0.202937
0.0114469
-0.197008
0.0125023
-0.190995
0.0134649
-0.185037
0.0143515
-0.179237
0.0151777
-0.173669
0.0159573
-0.168376
0.0167015
-0.163385
0.0174196
-0.158712
0.0181209
-0.154366
0.0188172
-0.150356
0.0195291
-0.146686
-0.143347
0.0202958
0.000471561
-0.241492
0.00154034
-0.233704
0.00293003
-0.2287
0.00445044
-0.224508
0.00597552
-0.220186
0.00742888
-0.215349
0.00877133
-0.209963
0.00998955
-0.204156
0.0110866
-0.198105
0.0120747
-0.191983
0.0129699
-0.185932
0.0137889
-0.180056
0.0145471
-0.174427
0.0152574
-0.169086
0.0159302
-0.164058
0.0165738
-0.159356
0.0171957
-0.154988
0.0178058
-0.150966
0.0184249
-0.147305
-0.144015
0.019093
0.000482517
-0.241974
0.001544
-0.234766
0.00290824
-0.230064
0.00438967
-0.22599
0.00586524
-0.221662
0.00726139
-0.216745
0.00854165
-0.211243
0.00969496
-0.205309
0.0107259
-0.199136
0.0116476
-0.192905
0.0124761
-0.186761
0.0132277
-0.180808
0.0139168
-0.175116
0.0145551
-0.169725
0.0151519
-0.164655
0.0157145
-0.159918
0.0162495
-0.155523
0.0167632
-0.15148
0.0172684
-0.14781
-0.144536
0.0177893
0.000506465
-0.242481
0.00156015
-0.235819
0.00289381
-0.231398
0.00433209
-0.227428
0.00575596
-0.223086
0.00709419
-0.218083
0.00831262
-0.212462
0.00940226
-0.206398
0.0103692
-0.200103
0.0112269
-0.193763
0.0119916
-0.187525
0.0126784
-0.181495
0.0132998
-0.175737
0.0138648
-0.17029
0.0143793
-0.16517
0.014847
-0.160386
0.0152697
-0.155945
0.0156464
-0.151856
0.0159815
-0.148145
-0.144891
0.0163369
0.000563524
-0.243044
0.00159709
-0.236853
0.00288648
-0.232687
0.00427651
-0.228818
0.00564722
-0.224456
0.00692769
-0.219364
0.00808554
-0.213619
0.00911375
-0.207427
0.0100199
-0.201009
0.0108184
-0.194561
0.0115253
-0.188232
0.0121551
-0.182125
0.0127183
-0.176301
0.0132205
-0.170792
0.0136616
-0.165611
0.0140342
-0.160758
0.0143212
-0.156233
0.0144968
-0.152032
0.0145557
-0.148204
-0.145063
0.0147272
0.250723
0.000414928
-0.251138
0.250335
0.000388566
0.249954
0.000381294
0.249572
0.000381424
0.249188
0.000384368
0.248799
0.000388778
0.248405
0.000393928
0.248006
0.000399232
0.247602
0.000404296
0.247193
0.000408915
0.24678
0.000412993
0.246363
0.000416504
0.245944
0.000419429
0.245522
0.000421745
0.245099
0.000423328
0.244675
0.000423973
0.244252
0.000422631
0.243833
0.000418753
0.24343
0.00040314
0.000386047
0.252686
0.00102319
-0.253295
0.252043
0.00103239
0.25137
0.00105347
0.250671
0.00108045
0.249947
0.0011088
0.249199
0.00113717
0.248427
0.00116507
0.247635
0.00119202
0.246821
0.00121759
0.245989
0.00124153
0.245138
0.00126373
0.24427
0.00128415
0.243387
0.0013028
0.242489
0.00131967
0.241578
0.00133461
0.240654
0.00134743
0.23972
0.00135702
0.238776
0.0013631
0.237819
0.00135942
0.00135261
0.251462
0.00159492
-0.252034
0.250826
0.00166881
0.250136
0.00174292
0.249398
0.00181814
0.248615
0.0018921
0.247789
0.00196361
0.246921
0.00203232
0.246015
0.00209802
0.245073
0.00216045
0.244095
0.00221946
0.243083
0.00227499
0.24204
0.0023271
0.240967
0.00237587
0.239866
0.00242141
0.238737
0.00246373
0.237581
0.00250287
0.2364
0.00253831
0.235193
0.00257029
0.233956
0.00259643
0.00262091
0.247352
0.00203819
-0.247796
0.246839
0.00218171
0.246262
0.00232062
0.245624
0.00245635
0.244927
0.00258824
0.244176
0.0027155
0.24337
0.00283779
0.242513
0.00295495
0.241607
0.00306685
0.240653
0.00317339
0.239653
0.00327461
0.23861
0.00337063
0.237524
0.00346166
0.236397
0.00354797
0.235231
0.00362985
0.234026
0.00370766
0.232783
0.00378149
0.231502
0.00385196
0.23018
0.00391837
0.00398271
0.241102
0.00231715
-0.241381
0.240751
0.00253196
0.240332
0.00274
0.239846
0.0029421
0.239296
0.00313824
0.238684
0.00332795
0.238011
0.00351089
0.237279
0.00368688
0.23649
0.0038558
0.235646
0.0040176
0.234748
0.00417237
0.233798
0.0043203
0.232798
0.00446171
0.231749
0.00459708
0.230652
0.00472693
0.229508
0.00485197
0.228316
0.0049728
0.227078
0.00509037
0.225791
0.00520483
0.00531787
0.233502
0.00244047
-0.233625
0.233308
0.00272586
0.233045
0.00300332
0.232714
0.00327314
0.232317
0.00353537
0.231855
0.00378971
0.23133
0.00403581
0.230744
0.00427345
0.230097
0.00450249
0.229391
0.00472291
0.228629
0.0049348
0.227811
0.00513841
0.226938
0.00533417
0.226013
0.00552273
0.225035
0.00570488
0.224005
0.00588166
0.222924
0.00605412
0.221791
0.00622365
0.220604
0.00639109
0.0065583
0.225257
0.00243867
-0.225256
0.225191
0.00279209
0.225058
0.00313682
0.224858
0.0034728
0.224593
0.00379996
0.224265
0.00411802
0.223874
0.00442665
0.223422
0.00472556
0.22291
0.00501458
0.222339
0.00529366
0.221711
0.0055629
0.221027
0.00582259
0.220288
0.00607325
0.219495
0.00631566
0.218649
0.0065509
0.21775
0.00678034
0.216799
0.00700553
0.215794
0.00722837
0.214735
0.00745041
0.0076738
0.216895
0.00234794
-0.216804
0.216921
0.00276583
0.216883
0.00317444
0.216783
0.00357347
0.21662
0.00396272
0.216396
0.00434187
0.216112
0.00471055
0.215769
0.00506841
0.215369
0.00541523
0.214911
0.00575091
0.214399
0.00607552
0.213832
0.00638937
0.213212
0.00669303
0.21254
0.00698744
0.211817
0.0072739
0.211044
0.00755417
0.210219
0.00783035
0.209342
0.00810497
0.208412
0.00838039
0.00865929
0.208761
0.00220155
-0.208615
0.208847
0.00268013
0.208872
0.00314887
0.208838
0.00360732
0.208746
0.00405516
0.208596
0.004492
0.208389
0.00491741
0.208126
0.00533096
0.207809
0.00573237
0.207439
0.00612147
0.207016
0.00649826
0.206542
0.00686302
0.206019
0.00721636
0.205447
0.00755929
0.204828
0.00789337
0.204161
0.00822073
0.203447
0.00854411
0.202686
0.00886681
0.201874
0.00919225
0.00952396
0.201057
0.0020265
-0.200882
0.201175
0.00256219
0.201236
0.00308747
0.201241
0.00360179
0.201192
0.00410471
0.201088
0.00459576
0.200931
0.00507441
0.200722
0.00554019
0.200462
0.00599269
0.200151
0.00643164
0.199793
0.00685696
0.199387
0.00726884
0.198935
0.00766784
0.19844
0.00805502
0.197901
0.00843213
0.19732
0.00880164
0.196697
0.00916706
0.196031
0.00953255
0.195321
0.00990306
0.0102834
0.193875
0.00184262
-0.193691
0.194005
0.00243233
0.194081
0.00301103
0.194105
0.00357807
0.194077
0.00413292
0.193997
0.004675
0.193868
0.00520371
0.19369
0.00571844
0.193464
0.0062187
0.193191
0.00670407
0.192874
0.00717433
0.192513
0.00762952
0.192111
0.00807009
0.191669
0.00849699
0.191189
0.00891215
0.190672
0.00931822
0.19012
0.00971964
0.189531
0.0101215
0.188903
0.0105309
0.0109543
0.187238
0.00166334
-0.187059
0.187366
0.00230454
0.187443
0.00293414
0.18747
0.00355132
0.187447
0.00415545
0.187376
0.00474588
0.187258
0.0053219
0.187094
0.00588279
0.186884
0.0064279
0.186632
0.00695667
0.186338
0.00746867
0.186003
0.00796369
0.185631
0.008442
0.185224
0.00890429
0.184784
0.00935252
0.184313
0.00978928
0.183812
0.0102201
0.183283
0.0106508
0.182722
0.0110918
0.0115517
0.181127
0.00149698
-0.180961
0.181244
0.00218783
0.181312
0.00286633
0.181332
0.00353158
0.181304
0.00418289
0.18123
0.00481951
0.181112
0.00544062
0.180949
0.00604537
0.180744
0.00663297
0.180498
0.00720263
0.180213
0.0077537
0.179891
0.00828563
0.179535
0.00879837
0.179147
0.00929213
0.178731
0.00976876
0.17829
0.0102303
0.177826
0.0106837
0.177342
0.0111345
0.176835
0.0115989
0.0120865
0.175499
0.00134836
-0.175351
0.1756
0.00208735
0.175653
0.00281319
0.17566
0.00352495
0.175621
0.00422181
0.175537
0.00490293
0.175411
0.00556738
0.175242
0.0062142
0.175032
0.00684242
0.174784
0.00745102
0.174499
0.00803906
0.174179
0.00860559
0.173827
0.00915009
0.173447
0.00967202
0.173043
0.0101729
0.17262
0.0106535
0.172181
0.0111225
0.171733
0.011583
0.17127
0.0120614
0.0125645
0.170303
0.00121978
-0.170174
0.170384
0.0020058
0.17042
0.00277774
0.17041
0.0035347
0.170356
0.00427579
0.170259
0.00500006
0.17012
0.00570649
0.16994
0.00639398
0.169721
0.00706138
0.169465
0.00770744
0.169173
0.00833089
0.168848
0.00893029
0.168494
0.00950455
0.168114
0.0100521
0.167713
0.0105738
0.167298
0.011068
0.166875
0.0115457
0.166455
0.0120034
0.166031
0.0124852
0.0129846
0.165482
0.00111201
-0.165375
0.165544
0.00194398
0.165561
0.00276095
0.165534
0.00356203
0.165463
0.00434623
0.165351
0.00511251
0.165198
0.00585977
0.165005
0.00658678
0.164774
0.00729223
0.164507
0.00797461
0.164205
0.00863232
0.163872
0.0092634
0.163511
0.00986608
0.163125
0.0104375
0.162722
0.0109775
0.162309
0.0114807
0.161894
0.0119606
0.161497
0.0124006
0.161108
0.0128736
0.0133345
0.160986
0.00102454
-0.160899
0.161029
0.00190141
0.161027
0.00276241
0.160983
0.00360655
0.160896
0.00443279
0.160769
0.00524001
0.160602
0.00602702
0.160396
0.0067925
0.160153
0.00753496
0.159875
0.00825269
0.159564
0.00894375
0.159221
0.0096057
0.158851
0.010236
0.158458
0.0108304
0.158049
0.0113873
0.157633
0.0118959
0.157222
0.0123725
0.156845
0.0127773
0.156487
0.0132319
0.0135886
0.156767
0.000955538
-0.156698
0.156792
0.00187653
0.156774
0.0027804
0.156714
0.00366644
0.156613
0.00453352
0.156473
0.00538046
0.156294
0.006206
0.156078
0.00700874
0.155825
0.00778706
0.155539
0.00853908
0.15522
0.00926258
0.154871
0.00995469
0.154495
0.0106122
0.154096
0.0112294
0.15368
0.0118031
0.153261
0.0123156
0.152848
0.0127846
0.152493
0.0131329
0.152159
0.0135657
0.0137157
0.152782
0.00090306
-0.152729
0.152792
0.00186651
0.15276
0.00281171
0.152689
0.00373811
0.152578
0.0046444
0.152429
0.00552939
0.152243
0.00639181
0.152022
0.00723019
0.151766
0.0080428
0.151477
0.00882762
0.151158
0.00958227
0.150809
0.0103035
0.150433
0.0109878
0.150035
0.011628
0.149618
0.0122198
0.149195
0.012738
0.14878
0.0132004
0.148445
0.0134674
0.148152
0.0138586
0.013664
0.148991
-0.148954
0.00086554
0.148991
0.00186739
0.14895
0.00285196
0.148872
0.00381649
0.148757
0.0047596
0.148606
0.00568021
0.148421
0.00657706
0.148202
0.00744861
0.147952
0.00829309
0.147671
0.0091084
0.147361
0.00989209
0.147024
0.0106408
0.146661
0.0113507
0.146275
0.0120138
0.145869
0.012626
0.145452
0.0131553
0.145029
0.0136237
0.144678
0.0138182
0.14442
0.0141163
0.0130215
0.25436
7.40729e-05
-0.254434
0.254323
3.63723e-05
0.254291
3.25261e-05
0.254249
4.14469e-05
0.254193
5.58674e-05
0.25412
7.37086e-05
0.254026
9.36679e-05
0.253911
0.000114621
0.253776
0.000135755
0.253619
0.000156562
0.253442
0.000176602
0.253247
0.000195594
0.253033
0.000214033
0.2528
0.000232976
0.25255
0.00025026
0.252284
0.000265432
0.252006
0.000278091
0.251718
0.000288146
0.251428
0.000289737
0.000289742
0.256213
-0.000241385
-0.255898
0.256467
-0.000217459
0.256676
-0.00017657
0.25684
-0.000122805
0.256959
-6.26757e-05
0.257031
1.21177e-06
0.257057
6.77151e-05
0.257036
0.000135744
0.256968
0.000204373
0.256851
0.000272669
0.256689
0.000339388
0.256481
0.000403289
0.256232
0.000463133
0.255934
0.000530505
0.255592
0.000592195
0.255209
0.000649323
0.254785
0.000701752
0.254324
0.000749416
0.253826
0.000787661
0.000820707
0.251644
-0.000897804
-0.250987
0.252227
-0.00080097
0.252745
-0.000694286
0.2532
-0.000577918
0.253593
-0.000455378
0.253923
-0.000328911
0.25419
-0.000199663
0.254395
-6.90405e-05
0.254537
6.29646e-05
0.254613
0.000195783
0.254627
0.000325568
0.254579
0.000451947
0.254464
0.000577215
0.254293
0.000702222
0.254062
0.000823064
0.253772
0.000938896
0.253425
0.00104924
0.25302
0.001154
0.252557
0.00125121
0.00134369
0.243323
-0.00183305
-0.242388
0.244185
-0.00166349
0.244978
-0.00148666
0.245702
-0.00130183
0.246357
-0.00111066
0.246943
-0.00091496
0.247459
-0.000716084
0.247906
-0.000515291
0.248282
-0.000313272
0.248585
-0.000107256
0.248816
9.45712e-05
0.248979
0.000289208
0.24907
0.000485771
0.249093
0.000679314
0.249047
0.000868776
0.248933
0.00105325
0.24875
0.00123198
0.2485
0.0014046
0.248181
0.00157006
0.0017289
0.23324
-0.00296709
-0.232105
0.234305
-0.00272934
0.235303
-0.00248408
0.236232
-0.00223088
0.237092
-0.00197065
0.237882
-0.0017049
0.238601
-0.00143504
0.239248
-0.0011623
0.239822
-0.00088762
0.240327
-0.000611802
0.240759
-0.000338064
0.241116
-6.78248e-05
0.241401
0.000200991
0.241614
0.000466473
0.241754
0.00072823
0.241823
0.00098482
0.241819
0.00123551
0.241744
0.00147971
0.241598
0.00171659
0.00194609
0.222683
-0.00422756
-0.221422
0.22388
-0.0039265
0.225012
-0.00361637
0.226079
-0.0032973
0.227078
-0.00297011
0.22801
-0.00263624
0.228872
-0.00229723
0.229664
-0.00195458
0.230386
-0.0016097
0.231038
-0.00126396
0.231619
-0.000918914
0.232127
-0.000575848
0.232564
-0.000235627
0.23293
0.000100214
0.233225
0.000433155
0.233448
0.000762081
0.233599
0.00108432
0.233679
0.00139979
0.233688
0.00170787
0.00200831
0.212437
-0.0055569
-0.211108
0.213708
-0.00519673
0.214917
-0.00482536
0.216063
-0.00444345
0.217145
-0.00405204
0.218161
-0.00365274
0.219111
-0.00324735
0.219994
-0.00283763
0.22081
-0.00242522
0.221558
-0.00201158
0.222237
-0.0015981
0.222847
-0.00118621
0.223388
-0.000776691
0.223859
-0.000370289
0.224266
2.53249e-05
0.224602
0.00042644
0.224868
0.000817933
0.225066
0.0012021
0.225195
0.00157887
0.00194785
0.202914
-0.00691335
-0.201557
0.204215
-0.00649738
0.205457
-0.00606782
0.206639
-0.00562569
0.20776
-0.00517249
0.208817
-0.00471021
0.209811
-0.004241
0.21074
-0.00376686
0.211604
-0.00328964
0.212404
-0.00281096
0.213138
-0.00233228
0.213807
-0.00185499
0.21441
-0.00138014
0.214949
-0.000908704
0.215416
-0.000442041
0.215829
1.37211e-05
0.21617
0.000477007
0.216446
0.000925531
0.216658
0.0013675
0.00180157
0.194271
-0.00826911
-0.192915
0.195574
-0.00779988
0.19682
-0.00731436
0.198008
-0.0068139
0.199136
-0.00630065
0.200203
-0.00577721
0.201209
-0.00524614
0.202151
-0.00470976
0.203032
-0.00417015
0.20385
-0.00362906
0.204606
-0.00308805
0.205299
-0.00254845
0.205931
-0.00201144
0.2065
-0.00147793
0.207007
-0.000949354
0.207448
-0.000427003
0.207834
9.06291e-05
0.208156
0.000604074
0.208416
0.00110737
0.00160281
0.186516
-0.00960743
-0.185178
0.187803
-0.0090869
0.189036
-0.00854691
0.190211
-0.00798916
0.191327
-0.00741681
0.192383
-0.0068333
0.193379
-0.00624169
0.194314
-0.00564467
0.195188
-0.00504454
0.196002
-0.00444319
0.196757
-0.0038422
0.197451
-0.00324288
0.198086
-0.00264638
0.198662
-0.00205366
0.199178
-0.00146572
0.199634
-0.000883477
0.200033
-0.00030766
0.200375
0.000262154
0.200657
0.000824984
0.00137833
0.179578
-0.0109196
-0.178266
0.180841
-0.0103495
0.18205
-0.00975583
0.183201
-0.009141
0.184294
-0.00850976
0.185328
-0.00786659
0.186301
-0.00721516
0.187215
-0.00655855
0.18807
-0.00589927
0.188866
-0.00523931
0.189604
-0.0045802
0.190284
-0.00392322
0.190907
-0.00326943
0.191473
-0.00261975
0.191983
-0.00197505
0.192435
-0.00133617
0.192831
-0.000703651
0.193174
-8.04138e-05
0.19346
0.000538881
0.00114742
0.173352
-0.0122026
-0.172069
0.174587
-0.0115847
0.175768
-0.0109375
0.176892
-0.010265
0.177957
-0.00957436
0.178962
-0.00887138
0.179907
-0.00816033
0.180793
-0.00744471
0.181621
-0.00672723
0.182392
-0.00600986
0.183106
-0.00529406
0.183763
-0.004581
0.184366
-0.00387163
0.184913
-0.00316682
0.185405
-0.00246733
0.185843
-0.001774
0.186227
-0.00108757
0.186556
-0.000409618
0.186835
0.000260038
0.00092319
0.167728
-0.0134574
-0.166473
0.168937
-0.012794
0.170092
-0.0120924
0.171188
-0.0113607
0.172223
-0.0106096
0.173198
-0.00984613
0.174112
-0.00907518
0.174968
-0.00830073
0.175767
-0.0075256
0.176509
-0.00675164
0.177195
-0.00598018
0.177826
-0.00521221
0.178403
-0.00444854
0.178926
-0.00368996
0.179396
-0.00293716
0.179813
-0.00219096
0.180177
-0.00145184
0.180488
-0.000720517
0.180752
-3.77459e-06
0.000713984
0.162606
-0.0146876
-0.161376
0.163794
-0.013982
0.164926
-0.0132241
0.165996
-0.0124307
0.167004
-0.0116173
0.167949
-0.0107919
0.168834
-0.00996013
0.16966
-0.00912658
0.170428
-0.00829395
0.171141
-0.00746387
0.171798
-0.00663742
0.172401
-0.00581537
0.172951
-0.00499836
0.173448
-0.00418703
0.173893
-0.00338201
0.174286
-0.00258405
0.174628
-0.0017938
0.17492
-0.00101257
0.175158
-0.000242175
0.00052143
0.157904
-0.0158999
-0.156692
0.159079
-0.0151564
0.160193
-0.0143383
0.161241
-0.0134794
0.162225
-0.0126004
0.163143
-0.0117104
0.163999
-0.0108163
0.164796
-0.00992282
0.165534
-0.00903246
0.166217
-0.00814647
0.166845
-0.00726553
0.167419
-0.00639008
0.167942
-0.0055205
0.168412
-0.00465728
0.168831
-0.00380096
0.169199
-0.00295224
0.169517
-0.00211186
0.169785
-0.00128078
0.170003
-0.000460119
0.000350372
0.153559
-0.017107
-0.152352
0.15473
-0.0163275
0.155834
-0.0154418
0.156866
-0.0145113
0.157826
-0.0135613
0.158719
-0.0126025
0.159546
-0.0116434
0.160312
-0.0106889
0.16102
-0.00974051
0.161672
-0.00879888
0.162271
-0.00786408
0.162817
-0.00693603
0.163311
-0.00601478
0.163754
-0.0051006
0.164147
-0.00419391
0.16449
-0.00329533
0.164784
-0.00240562
0.165029
-0.00152559
0.165225
-0.000656434
0.000200866
0.149525
-0.0183379
-0.148294
0.150708
-0.0175106
0.151807
-0.0165409
0.152825
-0.0155292
0.153762
-0.0144986
0.154625
-0.0134648
0.15542
-0.0124384
0.156153
-0.0114221
0.156828
-0.010416
0.157449
-0.00941972
0.158017
-0.00843228
0.158534
-0.00745292
0.159001
-0.00648124
0.159417
-0.00551725
0.159785
-0.00456127
0.160103
-0.00361385
0.160373
-0.00267573
0.160596
-0.0017478
0.16077
-0.000831025
7.22331e-05
0.145772
-0.0196572
-0.144453
0.146989
-0.0187275
0.148085
-0.0176364
0.149083
-0.0165275
0.149988
-0.0154041
0.150813
-0.0142893
0.151569
-0.0131945
0.152265
-0.0121178
0.152905
-0.0110563
0.153493
-0.0100076
0.15403
-0.0089697
0.154519
-0.00794095
0.154958
-0.00692047
0.155349
-0.00590809
0.155691
-0.00490405
0.155986
-0.0039089
0.156234
-0.00292341
0.156435
-0.00194864
0.15659
-0.000985571
-3.61463e-05
0.142317
-0.0211348
-0.14084
0.143565
-0.0199757
0.144639
-0.0187098
0.145595
-0.0174838
0.146452
-0.0162611
0.147228
-0.0150652
0.147939
-0.0139052
0.148593
-0.0127726
0.149197
-0.0116599
0.149752
-0.0105626
0.150259
-0.00947716
0.15072
-0.00840132
0.151133
-0.00733391
0.1515
-0.00627467
0.15182
-0.0052239
0.152093
-0.00418221
0.15232
-0.00315047
0.152501
-0.00212984
0.152637
-0.00112181
-0.000127944
0.139229
-0.137811
-0.0225522
0.14039
-0.0211371
0.141424
-0.0197432
0.1423
-0.0183604
0.143089
-0.01705
0.143813
-0.0157886
0.144478
-0.0145701
0.145092
-0.0133871
0.145661
-0.0122288
0.146185
-0.0110868
0.146665
-0.00995662
0.147099
-0.00883575
0.147488
-0.00772302
0.147832
-0.00661832
0.14813
-0.00552213
0.148383
-0.00443523
0.148591
-0.00335858
0.148754
-0.00229321
0.148873
-0.00124068
-0.000208488
0.0308137
0.112019
-0.110536
-0.0322969
0.0293032
0.115023
-0.113513
0.0277627
0.11816
-0.11662
0.0261887
0.121453
-0.119879
0.0245778
0.124935
-0.123324
0.0229272
0.128647
-0.126996
0.0212349
0.132647
-0.130955
0.0194994
0.137016
-0.13528
0.0177202
0.141856
-0.140077
0.0158976
0.147299
-0.145476
0.0140333
0.153506
-0.151642
0.0121315
0.160664
-0.158762
0.0102013
0.168973
-0.167043
0.0082592
0.178622
-0.17668
0.00633516
0.189734
-0.18781
0.00447931
0.202274
-0.200418
0.00277139
0.215903
-0.214195
0.00133186
0.229767
-0.228327
0.000330022
0.242084
-0.241082
0.249721
-0.249391
0.0306251
0.113495
-0.0321007
0.0291222
0.116526
0.0275895
0.119693
0.0260235
0.12302
0.0244208
0.126538
0.0227786
0.130289
0.0210946
0.134331
0.0193673
0.138743
0.017596
0.143627
0.015781
0.149114
0.0139241
0.155363
0.01203
0.162558
0.0101081
0.170895
0.00817594
0.180555
0.00626451
0.191646
0.00442549
0.204113
0.00274008
0.217588
0.00132822
0.231179
0.000353795
0.243058
0.250075
0.0303946
0.11496
-0.0318605
0.0289015
0.118019
0.0273788
0.121216
0.025823
0.124575
0.0242306
0.12813
0.0225989
0.131921
0.0209255
0.136005
0.0192086
0.14046
0.0174475
0.145388
0.0156425
0.150919
0.0137956
0.15721
0.0119116
0.164442
0.0100005
0.172806
0.00808059
0.182474
0.00618394
0.193543
0.00436317
0.205933
0.00270003
0.219251
0.00131282
0.232566
0.00035688
0.244014
0.250432
0.0301238
0.116415
-0.0315778
0.0286427
0.1195
0.0271321
0.122726
0.0255885
0.126119
0.0240086
0.12971
0.0223894
0.13354
0.0207286
0.137666
0.0190242
0.142164
0.0172755
0.147137
0.0154827
0.152712
0.0136479
0.159045
0.0117763
0.166313
0.00987828
0.174704
0.00797288
0.18438
0.00609288
0.195423
0.00429171
0.207735
0.00265124
0.220892
0.00128812
0.233929
0.000351825
0.24495
0.250784
0.029815
0.117855
-0.0312553
0.0283477
0.120968
0.0268511
0.124223
0.0253217
0.127648
0.023756
0.131275
0.0221512
0.135145
0.0205047
0.139312
0.0188148
0.143854
0.0170805
0.148871
0.0153019
0.15449
0.0134814
0.160865
0.0116244
0.16817
0.00974158
0.176587
0.00785276
0.186269
0.00599144
0.197284
0.0042117
0.209514
0.00259545
0.222508
0.00125769
0.235267
0.000342917
0.245865
0.251127
0.0294707
0.11928
-0.0308957
0.0280188
0.12242
0.0265378
0.125704
0.025024
0.129162
0.0234742
0.132825
0.0218854
0.136733
0.020255
0.140942
0.0185813
0.145528
0.0168631
0.150589
0.0151007
0.156253
0.0132965
0.162669
0.011456
0.170011
0.00959058
0.178452
0.00772048
0.188139
0.00587999
0.199124
0.00412377
0.211271
0.00253368
0.224098
0.00122293
0.236577
0.000331322
0.246757
0.251458
0.0290938
0.120689
-0.0305024
0.0276584
0.123855
0.0261941
0.127168
0.0246973
0.130659
0.0231646
0.134358
0.0215932
0.138305
0.0199804
0.142555
0.0183243
0.147184
0.016624
0.15229
0.0148795
0.157997
0.0130934
0.164456
0.0112716
0.171833
0.00942558
0.180298
0.00757634
0.189988
0.00575884
0.200942
0.00402828
0.213001
0.00246633
0.22566
0.00118436
0.237859
0.000317747
0.247623
0.251776
0.028687
0.12208
-0.0300787
0.0272689
0.125273
0.0258222
0.128615
0.0243432
0.132138
0.0228287
0.135873
0.0212757
0.139858
0.0196817
0.144149
0.0180447
0.148821
0.0163637
0.153971
0.0146389
0.159722
0.0128728
0.166222
0.0110714
0.173634
0.00924686
0.182123
0.00742061
0.191814
0.00562827
0.202734
0.00392552
0.214704
0.00239378
0.227192
0.00114252
0.239111
0.000302796
0.248463
0.252079
0.0282534
0.123455
-0.0296281
0.0268526
0.126674
0.0254238
0.130044
0.0239632
0.133598
0.0224675
0.137368
0.0209339
0.141392
0.0193597
0.145723
0.0177431
0.150437
0.0160828
0.155631
0.0143792
0.161426
0.0126347
0.167966
0.0108557
0.175413
0.00905467
0.183924
0.00725352
0.193615
0.00548853
0.204499
0.0038158
0.216377
0.00231639
0.228691
0.00109789
0.240329
0.000286884
0.249274
0.252366
0.0277956
0.124813
-0.0291541
0.0264118
0.128058
0.0250007
0.131455
0.0235585
0.135041
0.0220821
0.138845
0.0205684
0.142905
0.019015
0.147277
0.0174198
0.152033
0.0157816
0.157269
0.0141006
0.163107
0.0123795
0.169687
0.0106248
0.177168
0.00884921
0.185699
0.00707531
0.195389
0.00533989
0.206235
0.0036994
0.218017
0.00223452
0.230156
0.00105083
0.241513
0.000270256
0.250055
0.252636
0.0273161
0.126157
-0.0286598
0.0259481
0.129426
0.0245539
0.132849
0.02313
0.136465
0.0216729
0.140302
0.0201796
0.144399
0.0186477
0.148809
0.017075
0.153605
0.0154601
0.158884
0.0138033
0.164763
0.0121073
0.171383
0.0103787
0.178896
0.00863064
0.187447
0.00688615
0.197134
0.00518256
0.207938
0.00357661
0.219623
0.00214847
0.231584
0.00100161
0.24266
0.000253074
0.250803
0.252889
0.0268164
0.127489
-0.0281479
0.0254623
0.13078
0.0240839
0.134227
0.0226776
0.137871
0.0212397
0.14174
0.0197673
0.145871
0.0182577
0.150318
0.0167085
0.155155
0.0151183
0.160474
0.0134872
0.166395
0.011818
0.173053
0.0101175
0.180597
0.00839906
0.189166
0.0066862
0.198847