/*--------------------------------*- C++ -*----------------------------------*\
| =========                 |                                                 |
| \\      /  F ield         | OpenFOAM: The Open Source CFD Toolbox           |
|  \\    /   O peration     | Version:  v1912                                 |
|   \\  /    A nd           | Website:  www.openfoam.com                      |
|    \\/     M anipulation  |                                                 |
\*---------------------------------------------------------------------------*/
FoamFile
{
    version     2.0;
    format      ascii;
    class       volVectorField;
    location    "45.5";
    object      U;
}
// * * * * * * * * * * * * * * * * * * * * * * * * * * * * * * * * * * * * * //

dimensions      [0 1 -1 0 0 0 0];


internalField   nonuniform List<vector> 
9600
(
(0.456555 -9.36198 -1.54139e-19)
(0.159743 -8.63298 0)
(0.241938 -8.16019 -9.05108e-20)
(0.320679 -7.84102 0)
(0.38798 -7.60581 0)
(0.456368 -7.41107 -3.18455e-20)
(0.521862 -7.23273 -5.49802e-22)
(0.581327 -7.05858 2.66201e-20)
(0.633988 -6.88328 0)
(0.679878 -6.70539 -4.5136e-20)
(0.719385 -6.52553 0)
(0.753135 -6.34525 -1.83013e-21)
(0.781867 -6.16635 -2.60715e-21)
(0.806335 -5.99052 -3.15393e-20)
(0.827264 -5.81917 2.65992e-20)
(0.845308 -5.65325 -2.61329e-20)
(0.861018 -5.49324 2.32677e-20)
(0.87494 -5.33906 0)
(0.887855 -5.18996 -1.85085e-20)
(0.899492 -5.0444 2.02889e-20)
(0.824502 -9.35158 -3.08372e-19)
(0.502225 -8.66106 1.17583e-20)
(0.567622 -8.20448 1.86442e-19)
(0.63486 -7.89481 -1.58911e-19)
(0.693152 -7.6642 1.56718e-19)
(0.753498 -7.46995 0)
(0.811118 -7.28931 6.07405e-20)
(0.862536 -7.11116 -6.0601e-20)
(0.906905 -6.93097 -1.05114e-19)
(0.944313 -6.74788 1.32951e-19)
(0.975262 -6.56292 -8.63197e-20)
(1.0005 -6.37788 -3.52413e-20)
(1.02088 -6.19472 7.11345e-20)
(1.03724 -6.01521 0)
(1.05037 -5.84074 0)
(1.06097 -5.67228 9.97116e-20)
(1.06959 -5.51028 -1.69057e-19)
(1.07679 -5.3546 0)
(1.08344 -5.20436 0)
(1.08901 -5.05793 -7.81431e-20)
(1.19279 -9.32765 6.37136e-19)
(0.846976 -8.67627 0)
(0.896859 -8.23609 -3.77248e-19)
(0.953333 -7.93602 -3.41934e-19)
(1.00292 -7.70999 0)
(1.0552 -7.51619 5.46445e-19)
(1.10472 -7.33326 -5.15889e-19)
(1.14774 -7.15122 1.01126e-19)
(1.18341 -6.96633 -2.25126e-19)
(1.21192 -6.77833 -3.74397e-19)
(1.23392 -6.58861 5.11091e-19)
(1.25029 -6.39921 -3.16002e-19)
(1.262 -6.21221 -1.41623e-19)
(1.26999 -6.02942 0)
(1.27512 -5.85227 5.52687e-21)
(1.2781 -5.68169 1.05103e-19)
(1.2795 -5.51811 4.54345e-20)
(1.27991 -5.36132 0)
(1.28024 -5.21033 8.23626e-20)
(1.27963 -5.06344 8.44134e-20)
(1.56031 -9.2898 -8.61961e-19)
(1.1934 -8.67835 -4.03921e-19)
(1.22909 -8.25482 3.91781e-19)
(1.27554 -7.96435 6.73294e-19)
(1.3167 -7.74282 -3.26786e-19)
(1.36088 -7.54942 5.80036e-21)
(1.40204 -7.36424 2.53755e-19)
(1.43631 -7.17844 2.29843e-19)
(1.46288 -6.9891 4.20957e-19)
(1.4821 -6.7965 0)
(1.49476 -6.60241 1.62171e-19)
(1.50194 -6.40908 -1.72107e-19)
(1.50471 -6.21868 1.03512e-20)
(1.5041 -6.03308 2.71302e-19)
(1.50104 -5.85368 2.32589e-19)
(1.49627 -5.68141 -3.28336e-19)
(1.49036 -5.51666 1.0813e-19)
(1.48391 -5.35916 -1.76068e-19)
(1.4779 -5.20781 1.75237e-19)
(1.47106 -5.0609 -8.44571e-20)
(1.92676 -9.23799 4.34708e-19)
(1.54122 -8.66714 0)
(1.56392 -8.26039 3.8475e-19)
(1.60096 -7.97946 0)
(1.63394 -7.76233 0)
(1.66994 -7.56929 -3.0035e-19)
(1.70248 -7.38192 -5.3738e-19)
(1.72764 -7.19254 -4.55633e-19)
(1.74471 -6.99903 1.84489e-20)
(1.75424 -6.8022 -1.96892e-19)
(1.75723 -6.60416 0)
(1.7549 -6.40735 -1.62582e-19)
(1.74847 -6.21403 -2.92878e-19)
(1.73907 -6.02608 2.5756e-19)
(1.72766 -5.8449 -7.3197e-19)
(1.71502 -5.67138 1.18458e-19)
(1.70174 -5.50588 9.38919e-20)
(1.68841 -5.34808 -1.9361e-19)
(1.67607 -5.19675 -8.45956e-20)
(1.66295 -5.05025 2.5226e-19)
(2.2916 -9.17213 4.19473e-19)
(1.88993 -8.64239 4.16003e-19)
(1.90082 -8.25251 0)
(1.92905 -7.98101 0)
(1.95403 -7.76818 -6.24381e-19)
(1.98174 -7.57548 3.41252e-19)
(2.00539 -7.38601 8.21253e-19)
(2.02107 -7.19326 0)
(2.02826 -6.9959 2.17028e-19)
(2.02773 -6.79524 1.96892e-19)
(2.02072 -6.59371 -3.47853e-19)
(2.00861 -6.39391 5.04443e-19)
(1.99276 -6.19818 1.48026e-19)
(1.97438 -6.00838 0)
(1.9545 -5.82589 1.23225e-19)
(1.93392 -5.65156 5.53152e-19)
(1.91321 -5.48573 -3.29608e-19)
(1.893 -5.32802 3.70373e-19)
(1.87436 -5.17713 -7.04292e-19)
(1.85497 -5.03148 8.14192e-19)
(2.65429 -9.09218 4.26619e-19)
(2.23903 -8.60392 -2.25902e-18)
(2.23925 -8.23093 0)
(2.25922 -7.96872 0)
(2.27635 -7.76007 0)
(2.29565 -7.5677 -6.05696e-19)
(2.31011 -7.37627 0)
(2.31594 -7.18041 -9.70842e-19)
(2.31288 -6.97955 8.95509e-19)
(2.30195 -6.7755 -8.31719e-19)
(2.28463 -6.57098 0)
(2.26248 -6.36871 0)
(2.23702 -6.17107 0)
(2.20953 -5.97993 -2.81418e-19)
(2.18108 -5.79661 0)
(2.1525 -5.62193 0)
(2.12434 -5.4562 -4.13061e-19)
(2.09727 -5.29899 4.05845e-19)
(2.07239 -5.14891 0)
(2.04675 -5.00458 0)
(3.0143 -8.99815 -1.38789e-18)
(2.58796 -8.55156 8.9936e-19)
(2.57864 -8.19538 0)
(2.59085 -7.94231 0)
(2.60025 -7.73773 0)
(2.61098 -7.54571 5.76107e-19)
(2.61595 -7.35247 -5.77857e-19)
(2.61157 -7.15379 -8.89054e-21)
(2.5979 -6.94983 -8.96641e-19)
(2.57625 -6.74288 8.39542e-19)
(2.54834 -6.53588 -3.78747e-19)
(2.51595 -6.33168 6.58597e-19)
(2.48071 -6.13269 -4.64071e-20)
(2.44399 -5.94072 -5.95801e-19)
(2.4069 -5.75706 -5.02163e-19)
(2.37028 -5.58249 4.9336e-19)
(2.33467 -5.41729 0)
(2.30078 -5.26099 0)
(2.26974 -5.11211 3.57015e-19)
(2.23791 -4.96955 -3.92888e-19)
(3.37106 -8.89007 9.2762e-19)
(2.93616 -8.48517 8.83581e-19)
(2.91838 -8.14567 -1.67477e-18)
(2.9233 -7.90154 7.91108e-19)
(2.92505 -7.70092 0)
(2.92704 -7.5093 6.16468e-19)
(2.92221 -7.31444 -5.4119e-19)
(2.90729 -7.11327 1.52945e-18)
(2.88266 -6.90666 -2.36928e-20)
(2.84998 -6.6973 0)
(2.81125 -6.48838 7.64178e-19)
(2.76843 -6.28282 0)
(2.72327 -6.08302 0)
(2.67724 -5.89077 -2.72563e-19)
(2.63146 -5.70727 5.49728e-19)
(2.58678 -5.53327 0)
(2.54375 -5.36902 4.31199e-19)
(2.50309 -5.21403 1.79511e-19)
(2.46597 -5.06674 -3.8948e-19)
(2.42805 -4.92643 3.78191e-19)
(3.72401 -8.768 -9.55431e-19)
(3.28303 -8.40464 8.97993e-19)
(3.25786 -8.0816 -2.55752e-18)
(3.25592 -7.8462 8.0423e-19)
(3.25007 -7.64945 0)
(3.24313 -7.45828 -1.24428e-18)
(3.2282 -7.26205 5.97741e-19)
(3.20238 -7.05876 0)
(3.16648 -6.84996 -4.74577e-19)
(3.1225 -6.63874 -8.2314e-19)
(3.07273 -6.42847 -7.17274e-19)
(3.01932 -6.22213 5.3446e-20)
(2.96414 -6.0221 6.70862e-19)
(2.90873 -5.8301 2.72339e-19)
(2.85424 -5.64727 -3.79418e-20)
(2.80151 -5.4743 -5.12846e-19)
(2.75108 -5.31143 -2.29384e-19)
(2.70372 -5.15814 -2.06802e-19)
(2.66063 -5.01283 5.51671e-19)
(2.61674 -4.87523 -8.22058e-19)
(4.07261 -8.63202 9.55434e-19)
(3.62799 -8.3099 -4.66487e-20)
(3.59643 -8.00304 8.22117e-19)
(3.58802 -7.77613 0)
(3.5746 -7.58315 -6.80654e-19)
(3.55852 -7.39254 1.30789e-18)
(3.53318 -7.19518 -1.11799e-18)
(3.49615 -6.99018 1.10018e-18)
(3.44868 -6.77971 -4.45798e-19)
(3.39316 -6.56719 9.04967e-19)
(3.33216 -6.35616 3.91906e-19)
(3.26803 -6.14964 0)
(3.20277 -5.94996 0)
(3.13794 -5.75876 -2.82389e-19)
(3.07473 -5.57711 3.83598e-20)
(3.01397 -5.40563 1.00993e-18)
(2.95617 -5.24456 -2.49861e-19)
(2.90219 -5.09337 8.25257e-19)
(2.85324 -4.95042 1.4444e-19)
(2.80352 -4.81601 -8.39594e-19)
(4.41628 -8.48224 -2.93989e-18)
(3.97042 -8.20091 -9.86873e-19)
(3.93345 -7.90988 -2.63159e-18)
(3.91892 -7.69119 -1.60093e-18)
(3.89791 -7.5019 -7.59379e-19)
(3.87248 -7.31196 -7.42194e-19)
(3.83644 -7.1138 -2.42286e-18)
(3.78789 -6.90752 -4.90699e-20)
(3.72858 -6.6959 -1.94688e-18)
(3.66131 -6.48268 3.02253e-20)
(3.58893 -6.2715 -8.08334e-19)
(3.51399 -6.06541 -7.3659e-19)
(3.43858 -5.86666 6.72412e-19)
(3.36432 -5.67681 -6.14938e-19)
(3.2924 -5.49684 -5.63388e-19)
(3.22363 -5.32732 -5.17066e-19)
(3.15853 -5.16847 -1.38837e-18)
(3.09799 -5.01976 4.93942e-19)
(3.0433 -4.87954 1.19872e-18)
(2.98792 -4.74879 -1.2758e-18)
(4.75448 -8.31881 3.95437e-18)
(4.30974 -8.07768 4.858e-18)
(4.26827 -7.80204 8.34527e-19)
(4.24792 -7.5913 3.99853e-18)
(4.21929 -7.40563 -7.83707e-19)
(4.18429 -7.21652 3.91604e-18)
(4.13726 -7.01787 1.14556e-18)
(4.0769 -6.81079 3.21599e-18)
(4.00551 -6.59858 -9.8301e-19)
(3.92631 -6.38525 2.72175e-18)
(3.84243 -6.17455 1.62819e-18)
(3.7566 -5.96949 1.48383e-18)
(3.67103 -5.77227 -2.00893e-18)
(3.58734 -5.58432 1.88191e-18)
(3.50674 -5.40654 1.13547e-18)
(3.43 -5.23944 1.04233e-18)
(3.35763 -5.08323 9.58453e-19)
(3.2906 -4.93737 7.36381e-21)
(3.23028 -4.80024 8.13614e-19)
(3.16946 -4.67362 8.4673e-19)
(5.0867 -8.14188 -2.93653e-18)
(4.64534 -7.94024 1.08226e-18)
(4.60023 -7.6795 2.67738e-18)
(4.57431 -7.4764 -3.26191e-18)
(4.53799 -7.2943 7.53752e-19)
(4.49321 -7.10619 -2.61995e-18)
(4.43491 -6.90743 1.28408e-18)
(4.36249 -6.70004 -2.15184e-18)
(4.27881 -6.48781 4.90325e-20)
(4.18752 -6.27499 1.19458e-20)
(4.09205 -6.06539 -1.65067e-18)
(3.99531 -5.86198 -7.47243e-19)
(3.89956 -5.66686 1.37402e-18)
(3.80647 -5.48136 8.75816e-21)
(3.71721 -5.30627 -3.71866e-20)
(3.63253 -5.14204 -1.0879e-18)
(3.55293 -4.98888 -4.83111e-19)
(3.47946 -4.84624 -2.71426e-20)
(3.41361 -4.71259 -8.47955e-19)
(3.34757 -4.59062 -4.27612e-19)
(5.41241 -7.95164 0)
(4.97664 -7.78863 -1.99974e-18)
(4.92866 -7.54223 2.3738e-20)
(4.89739 -7.34648 3.25743e-18)
(4.8533 -7.16791 1.36343e-18)
(4.79851 -6.98102 -1.41921e-18)
(4.72868 -6.78254 -1.22263e-18)
(4.64397 -6.57535 0)
(4.54783 -6.36371 -9.73231e-19)
(4.44434 -6.15202 9.28831e-19)
(4.33723 -5.94414 -3.90678e-20)
(4.22955 -5.74298 0)
(4.12364 -5.55052 -6.91712e-19)
(4.02117 -5.36799 5.99161e-19)
(3.92327 -5.19608 5.00565e-19)
(3.83067 -5.03515 -6.04273e-19)
(3.74384 -4.88542 -5.24229e-19)
(3.66392 -4.74637 9.10353e-19)
(3.59256 -4.61656 -8.40147e-19)
(3.52141 -4.49985 4.42216e-19)
(5.73117 -7.74826 3.03395e-18)
(5.30306 -7.62293 -2.05957e-18)
(5.25291 -7.39028 -1.75775e-18)
(5.21644 -7.20156 8.18399e-19)
(5.16449 -7.02652 -1.58776e-18)
(5.09946 -6.84108 0)
(5.01787 -6.6433 0)
(4.92066 -6.43686 0)
(4.81193 -6.2264 -4.44706e-20)
(4.69617 -6.01647 -1.86407e-18)
(4.5774 -5.81093 8.8038e-19)
(4.45882 -5.61259 7.44586e-19)
(4.34279 -5.42334 6.30096e-19)
(4.23098 -5.24429 -2.58564e-18)
(4.12448 -5.076 1.22582e-18)
(4.02395 -4.91878 0)
(3.92984 -4.77284 -3.0425e-20)
(3.84336 -4.63768 -1.41196e-18)
(3.7663 -4.51207 -5.69587e-21)
(3.69002 -4.40097 -4.42705e-19)
(6.04259 -7.53203 -2.06365e-18)
(5.62406 -7.44327 -1.08583e-18)
(5.5723 -7.2237 8.18197e-19)
(5.53074 -7.04171 -1.43924e-19)
(5.4708 -6.8702 -4.62852e-18)
(5.39533 -6.68649 4.18893e-18)
(5.30177 -6.48986 -4.88082e-20)
(5.19191 -6.28473 1.14734e-18)
(5.07049 -6.07606 1.02942e-18)
(4.94245 -5.86852 9.4525e-19)
(4.81204 -5.6659 8.60186e-19)
(4.6826 -5.47095 1.53729e-18)
(4.55653 -5.28544 -7.39922e-19)
(4.43546 -5.11033 1.91799e-18)
(4.32042 -4.9461 -1.23995e-18)
(4.21199 -4.793 -5.1295e-19)
(4.11058 -4.65122 2.06031e-18)
(4.01745 -4.5203 1.37651e-18)
(3.93456 -4.39904 -2.79561e-20)
(3.85336 -4.29329 0)
(6.34667 -7.30342 -1.04928e-18)
(5.93923 -7.24985 2.07509e-18)
(5.88616 -7.04254 1.81674e-18)
(5.83956 -6.86699 -1.459e-19)
(5.77151 -6.69907 -1.5704e-18)
(5.68539 -6.51739 7.06716e-20)
(5.57968 -6.3224 1.31712e-20)
(5.45706 -6.11916 1.17356e-20)
(5.32291 -5.91291 0)
(5.18261 -5.70835 9.24524e-19)
(5.04064 -5.50923 -1.75969e-18)
(4.90043 -5.31819 -7.53035e-19)
(4.76439 -5.13687 7.47567e-19)
(4.63411 -4.96613 -6.55952e-19)
(4.51055 -4.80636 6.07521e-19)
(4.39421 -4.6578 -5.53063e-19)
(4.28549 -4.52064 4.89847e-21)
(4.18579 -4.39426 -4.69862e-19)
(4.09734 -4.27738 -4.34047e-19)
(4.01198 -4.17767 -4.34343e-19)
(6.64375 -7.06292 0)
(6.24832 -7.04257 -1.01176e-18)
(6.19384 -6.84675 1.00015e-18)
(6.14214 -6.67746 1.74498e-18)
(6.06586 -6.51328 -1.57908e-18)
(5.96893 -6.33403 1.36415e-18)
(5.85093 -6.1412 -2.62296e-18)
(5.7155 -5.94046 -2.32929e-18)
(5.56866 -5.73723 -1.01616e-18)
(5.41618 -5.53625 4.44181e-20)
(5.26277 -5.34116 -8.41469e-19)
(5.11193 -5.15447 3.49197e-20)
(4.96603 -4.97769 0)
(4.82654 -4.81158 -1.28671e-18)
(4.6943 -4.6565 6.56644e-19)
(4.56969 -4.5127 0)
(4.45318 -4.38028 -5.14267e-19)
(4.34634 -4.25839 -9.24603e-19)
(4.25143 -4.14665 9.08516e-19)
(4.16088 -4.05769 4.48476e-19)
(6.93341 -6.80973 0)
(6.55071 -6.82074 0)
(6.49463 -6.63624 -1.8553e-18)
(6.43772 -6.47341 -1.59527e-18)
(6.35315 -6.31325 3.23783e-18)
(6.24531 -6.13683 0)
(6.11496 -5.94671 0)
(5.96672 -5.74906 1.1702e-18)
(5.80728 -5.54947 0)
(5.64281 -5.35263 0)
(5.4782 -5.16205 0)
(5.31697 -4.9801 0)
(5.16144 -4.8081 0)
(5.01292 -4.64671 0)
(4.87196 -4.4962 0)
(4.7387 -4.35672 0)
(4.61338 -4.22814 0)
(4.4971 -4.10979 0)
(4.38996 -4.00475 0)
(4.28583 -3.9303 0)
(10.0432 0.0877384 1.47309e-19)
(10.0227 -0.30764 2.86612e-19)
(9.98692 -0.70034 -2.94369e-19)
(9.93639 -1.09022 5.86914e-19)
(9.87088 -1.47694 -5.86913e-19)
(9.79024 -1.86 -5.54617e-19)
(9.69458 -2.23886 -5.5307e-19)
(9.58411 -2.61297 1.74182e-18)
(9.45907 -2.98178 -1.16049e-18)
(9.31971 -3.34473 1.15076e-18)
(9.16632 -3.70129 -1.15077e-18)
(8.9992 -4.05091 1.14226e-18)
(8.81868 -4.39308 -2.26521e-18)
(8.62512 -4.7273 3.33582e-18)
(8.41887 -5.05309 0)
(8.20034 -5.36998 -3.27734e-18)
(7.96991 -5.67756 1.63399e-20)
(7.72811 -5.97547 3.30281e-18)
(7.47504 -6.26356 0)
(7.21238 -6.54114 0)
(10.1198 -0.210724 0)
(10.0786 -0.606811 -1.50413e-20)
(10.0205 -0.999098 0)
(9.94638 -1.38725 5.61627e-19)
(9.85636 -1.77083 5.84869e-19)
(9.75068 -2.14925 -1.69278e-18)
(9.62963 -2.52186 2.9471e-18)
(9.49356 -2.88805 -1.16339e-18)
(9.34284 -3.24722 -1.10898e-18)
(9.17787 -3.59877 -1.10445e-18)
(8.99905 -3.94215 4.4571e-20)
(8.80684 -4.27681 1.1316e-18)
(8.60168 -4.60221 -5.62553e-18)
(8.38408 -4.91787 -1.17973e-18)
(8.1545 -5.22333 2.24787e-18)
(7.91348 -5.51815 2.24487e-18)
(7.66148 -5.80194 1.14054e-18)
(7.39907 -6.07436 -2.19928e-18)
(7.12637 -6.33517 1.04148e-18)
(6.84431 -6.58403 0)
(10.0713 -0.149236 1.32646e-19)
(10.0335 -0.540879 -2.71639e-19)
(9.97833 -0.929347 7.84431e-19)
(9.90616 -1.31395 -5.55733e-19)
(9.81738 -1.69402 -5.29873e-19)
(9.71236 -2.06887 5.5322e-19)
(9.59147 -2.43775 0)
(9.45511 -2.79998 0)
(9.3037 -3.15489 2.10059e-18)
(9.13769 -3.50184 3.1337e-18)
(8.95756 -3.84021 -9.91119e-19)
(8.7638 -4.16941 3.09872e-18)
(8.55692 -4.48886 -9.86948e-19)
(8.33747 -4.79805 -3.0182e-18)
(8.10601 -5.09647 1.36139e-20)
(7.86309 -5.38364 1.93736e-18)
(7.60925 -5.65914 -8.74464e-19)
(7.34508 -5.92256 -1.90601e-18)
(7.07093 -6.17352 -1.02953e-18)
(6.78753 -6.41152 1.87321e-18)
(9.90506 -0.112527 0)
(9.87405 -0.494934 2.29011e-19)
(9.82577 -0.874995 2.28069e-19)
(9.76039 -1.25181 -9.36993e-19)
(9.67826 -1.62458 0)
(9.5797 -1.99253 0)
(9.46508 -2.3549 0)
(9.33478 -2.71093 0)
(9.18921 -3.05991 -9.91538e-19)
(9.02882 -3.40116 -9.87774e-19)
(8.85408 -3.73399 0)
(8.6655 -4.05779 1.86755e-18)
(8.4636 -4.37193 -4.61736e-18)
(8.24894 -4.67583 3.71278e-18)
(8.0221 -4.96895 -3.59864e-18)
(7.78365 -5.25077 -8.73214e-19)
(7.53416 -5.52078 1.56455e-19)
(7.27428 -5.77853 1.54859e-19)
(7.00449 -6.02356 -1.77843e-18)
(6.72554 -6.25537 -7.08872e-20)
(9.65193 -0.0990482 0)
(9.62833 -0.469223 -2.25856e-19)
(9.58789 -0.837708 0)
(9.53068 -1.2036 4.51836e-19)
(9.45693 -1.56606 4.30716e-19)
(9.36693 -1.9243 3.93773e-19)
(9.26099 -2.27753 0)
(9.13945 -2.625 0)
(9.00268 -2.96595 0)
(8.85111 -3.29968 0)
(8.68516 -3.62549 8.13426e-19)
(8.50533 -3.94271 8.76368e-19)
(8.31212 -4.25069 8.71371e-19)
(8.10608 -4.54882 -8.84696e-19)
(7.88775 -4.83651 -1.52256e-18)
(7.65773 -5.1132 1.72834e-18)
(7.41659 -5.37835 3.35091e-18)
(7.16496 -5.63143 1.62988e-18)
(6.90342 -5.87195 0)
(6.63268 -6.09941 -1.53611e-18)
(9.34487 -0.0902456 4.64209e-20)
(9.32825 -0.446245 0)
(9.2954 -0.801125 -7.60723e-19)
(9.24634 -1.15403 1.82937e-23)
(9.18123 -1.50415 1.61731e-20)
(9.1003 -1.85067 -6.85306e-20)
(9.00381 -2.19284 0)
(8.89205 -2.52989 3.09319e-20)
(8.76534 -2.86108 -7.72267e-19)
(8.62405 -3.18569 1.50463e-18)
(8.4686 -3.50301 -1.56896e-18)
(8.29941 -3.81237 8.5715e-19)
(8.11696 -4.1131 -4.49295e-18)
(7.92175 -4.40459 2.96337e-18)
(7.71432 -4.6862 1.57086e-18)
(7.49522 -4.95735 0)
(7.26502 -5.21747 -2.8995e-18)
(7.02433 -5.46601 -6.15301e-20)
(6.77374 -5.70243 -2.85542e-18)
(6.5139 -5.92622 2.96785e-18)
(9.01251 -0.0854318 4.17471e-20)
(9.00152 -0.426432 -8.74552e-20)
(8.97505 -0.766782 7.17054e-19)
(8.93306 -1.10568 -1.40732e-20)
(8.87567 -1.44234 7.16906e-19)
(8.80306 -1.776 -1.08282e-18)
(8.71543 -2.1059 0)
(8.61303 -2.4313 7.2996e-19)
(8.49615 -2.75148 6.6836e-19)
(8.3651 -3.06574 -7.25873e-19)
(8.22025 -3.37339 1.32805e-18)
(8.06199 -3.67374 2.81552e-18)
(7.89075 -3.96615 -1.30938e-18)
(7.70699 -4.24998 -1.41929e-18)
(7.51122 -4.52462 1.36109e-18)
(7.30395 -4.78946 0)
(7.08574 -5.04391 6.494e-20)
(6.85716 -5.28741 9.8084e-21)
(6.61877 -5.51941 2.70535e-18)
(6.37119 -5.73935 1.25774e-18)
(8.67606 -0.0842462 0)
(8.66913 -0.410294 6.25763e-21)
(8.64749 -0.736036 -1.4591e-19)
(8.61109 -1.06073 -6.47995e-19)
(8.56 -1.38362 6.09103e-19)
(8.49437 -1.70397 0)
(8.41436 -2.02109 1.23974e-18)
(8.3202 -2.33425 -1.36229e-21)
(8.21211 -2.64277 -1.89345e-18)
(8.09038 -2.94596 0)
(7.95532 -3.24316 -1.30691e-18)
(7.80731 -3.53371 4.60066e-20)
(7.64672 -3.81699 -3.67374e-18)
(7.47399 -4.09237 6.47368e-21)
(7.28957 -4.35924 1.23131e-18)
(7.09396 -4.617 0)
(6.88767 -4.86507 -1.20854e-18)
(6.67125 -5.10287 8.69992e-21)
(6.44525 -5.32984 1.19985e-18)
(6.21023 -5.54541 -1.2377e-18)
(8.34941 -0.0853224 0)
(8.3451 -0.396998 1.496e-19)
(8.32683 -0.708601 3.10388e-19)
(8.29456 -1.01943 -5.74522e-19)
(8.24832 -1.32879 -2.47274e-20)
(8.18825 -1.63598 -2.87129e-19)
(8.11447 -1.94034 -1.14941e-18)
(8.02717 -2.24119 5.71441e-19)
(7.92657 -2.53787 2.38181e-20)
(7.8129 -2.82975 5.68022e-19)
(7.68646 -3.11618 5.22906e-19)
(7.54757 -3.39655 2.26456e-18)
(7.39658 -3.67025 1.13273e-18)
(7.23391 -3.93668 2.23729e-18)
(7.05996 -4.19525 -1.11571e-18)
(6.87522 -4.44539 3.86724e-20)
(6.68017 -4.68651 -1.10254e-18)
(6.47532 -4.91804 0)
(6.26121 -5.13943 1.04218e-18)
(6.03835 -5.35008 0)
(8.04046 -0.0875352 6.51328e-20)
(8.0376 -0.385711 -1.90755e-19)
(8.02151 -0.683954 5.23207e-19)
(7.99213 -0.981612 -2.61018e-19)
(7.94948 -1.27802 1.89863e-20)
(7.89367 -1.57255 -2.60863e-19)
(7.82482 -1.86454 5.42323e-19)
(7.74309 -2.15338 -5.19029e-19)
(7.64866 -2.43844 5.19026e-19)
(7.54177 -2.71912 9.95459e-19)
(7.42266 -2.99483 -1.07267e-18)
(7.29165 -3.26496 -4.51089e-20)
(7.14906 -3.52896 -3.10492e-18)
(6.99527 -3.78626 5.37761e-21)
(6.83068 -4.03629 4.02831e-20)
(6.65573 -4.2785 2.01285e-18)
(6.4709 -4.51234 -9.94281e-19)
(6.27668 -4.73724 -9.47065e-19)
(6.0736 -4.95265 -3.74548e-20)
(5.86214 -5.15795 0)
(7.75281 -0.0901396 0)
(7.75057 -0.375807 2.42309e-19)
(7.73575 -0.661616 -8.33148e-19)
(7.70828 -0.946952 -2.21039e-19)
(7.6682 -1.2312 4.94342e-19)
(7.6156 -1.51374 0)
(7.55057 -1.794 0)
(7.47328 -2.07136 4.72514e-19)
(7.38388 -2.34525 -4.72511e-19)
(7.28259 -2.61511 3.98041e-19)
(7.16965 -2.88037 -4.69466e-19)
(7.04532 -3.14049 9.30989e-19)
(6.90994 -3.39492 -1.85737e-18)
(6.76385 -3.64314 1.84777e-18)
(6.60743 -3.88464 3.46707e-20)
(6.44113 -4.11887 -9.50339e-19)
(6.2654 -4.34533 -9.04324e-19)
(6.08074 -4.56345 1.84216e-18)
(5.88768 -4.77268 8.62374e-19)
(5.68666 -4.9724 0)
(7.48726 -0.092662 1.87799e-21)
(7.48506 -0.36682 1.59092e-19)
(7.47087 -0.641147 3.34019e-19)
(7.44462 -0.915064 2.33798e-19)
(7.40635 -1.18799 2.16878e-19)
(7.35613 -1.45935 2.01747e-19)
(7.29408 -1.72858 0)
(7.22031 -1.99513 -8.33726e-19)
(7.13499 -2.25845 -4.29787e-19)
(7.03832 -2.518 3.66654e-19)
(6.93051 -2.77327 0)
(6.81184 -3.02375 8.48875e-19)
(6.68259 -3.26893 -2.51059e-18)
(6.54311 -3.50833 8.4453e-19)
(6.39378 -3.74147 0)
(6.23501 -3.96787 -8.02985e-19)
(6.0673 -4.18702 -1.62182e-18)
(5.89112 -4.39842 7.98046e-19)
(5.70703 -4.60148 -2.92092e-20)
(5.51547 -4.79557 0)
(7.24293 -0.0948037 3.46495e-21)
(7.24041 -0.358405 -1.0296e-19)
(7.22642 -0.622167 1.98693e-19)
(7.20092 -0.885547 -1.31234e-20)
(7.16392 -1.14799 3.97035e-19)
(7.1155 -1.40897 -6.09772e-19)
(7.05576 -1.66793 0)
(6.98482 -1.92437 5.60377e-20)
(6.90284 -2.17777 0)
(6.81 -2.42761 -8.13969e-19)
(6.7065 -2.67343 0)
(6.59261 -2.91475 -7.51191e-19)
(6.4686 -3.1511 2.32172e-18)
(6.3348 -3.38204 -1.53849e-18)
(6.19158 -3.60714 7.67029e-19)
(6.03936 -3.82597 -6.78651e-19)
(5.87865 -4.03805 7.83887e-19)
(5.70993 -4.24294 -7.78526e-19)
(5.53384 -4.44 0)
(5.35082 -4.62863 0)
(7.01802 -0.0964433 4.71131e-20)
(7.015 -0.350337 0)
(7.00097 -0.604373 0)
(6.97589 -0.858033 -3.77478e-19)
(6.9398 -1.1108 -3.52304e-19)
(6.89277 -1.36215 0)
(6.83488 -1.61158 0)
(6.76627 -1.8586 4.98593e-20)
(6.68707 -2.10273 6.97674e-19)
(6.59745 -2.34349 -3.36459e-19)
(6.49762 -2.58042 -3.58471e-19)
(6.38782 -2.8131 1.44807e-18)
(6.26831 -3.04109 -2.15027e-18)
(6.13941 -3.26402 1.38661e-18)
(6.00149 -3.48146 0)
(5.85496 -3.69308 2.7857e-18)
(5.70035 -3.89841 -2.02256e-18)
(5.53817 -4.09713 6.88071e-19)
(5.3692 -4.28852 1.31592e-18)
(5.19385 -4.47202 0)
(6.81044 -0.097516 -4.05052e-20)
(6.80681 -0.342454 0)
(6.79259 -0.587514 -5.22258e-21)
(6.76776 -0.832195 -3.24154e-19)
(6.73235 -1.076 1.00445e-18)
(6.68643 -1.31843 -1.67087e-19)
(6.63008 -1.55902 0)
(6.56343 -1.79729 1.33102e-18)
(6.4866 -2.03278 -6.85456e-19)
(6.39977 -2.26505 4.44908e-20)
(6.30313 -2.49367 6.35255e-19)
(6.19689 -2.71824 6.51142e-19)
(6.08131 -2.93838 -1.29849e-18)
(5.95669 -3.15373 -1.27007e-18)
(5.82339 -3.36393 -1.24056e-18)
(5.68182 -3.56875 -1.32011e-18)
(5.53254 -3.76772 1.31112e-18)
(5.37606 -3.96071 -6.25907e-19)
(5.21343 -4.14686 -6.66965e-19)
(5.04493 -4.32582 0)
(6.61794 -0.0980014 3.97953e-20)
(6.61368 -0.334652 -1.49422e-19)
(6.59922 -0.571395 -1.54684e-19)
(6.57454 -0.807749 4.63168e-19)
(6.53968 -1.04324 -1.64484e-19)
(6.4947 -1.27739 -1.5375e-19)
(6.4397 -1.50976 0)
(6.37477 -1.73988 -6.31972e-19)
(6.30005 -1.96732 0)
(6.2157 -2.19168 6.27085e-19)
(6.12189 -2.41253 -1.2084e-18)
(6.01883 -2.62952 5.98183e-19)
(5.90676 -2.84228 -1.19269e-18)
(5.78595 -3.05052 1.23077e-18)
(5.65675 -3.25392 6.69894e-19)
(5.51953 -3.45235 0)
(5.37492 -3.64536 -5.78227e-19)
(5.22338 -3.83316 5.78227e-19)
(5.06639 -4.01455 0)
(4.9039 -4.18987 0)
(6.43842 -0.0979871 0)
(6.43355 -0.326908 1.46805e-19)
(6.41884 -0.55589 4.72347e-21)
(6.39429 -0.784471 -1.51371e-19)
(6.35993 -1.0122 -1.33482e-19)
(6.31582 -1.23862 -1.41713e-19)
(6.26206 -1.4633 5.47726e-19)
(6.19873 -1.68581 0)
(6.12597 -1.90574 0)
(6.04392 -2.12269 2.78356e-19)
(5.95275 -2.33628 2.95695e-19)
(5.85264 -2.54616 1.0702e-18)
(5.74381 -2.752 -5.46822e-19)
(5.62651 -2.95357 5.4682e-19)
(5.50104 -3.15057 5.80492e-19)
(5.36774 -3.34303 3.39452e-20)
(5.22728 -3.53046 -1.06614e-18)
(5.08 -3.71366 3.77884e-21)
(4.92807 -3.8907 5.273e-19)
(4.77063 -4.06362 0)
(6.26995 -0.0974763 -3.28127e-20)
(6.26454 -0.319191 3.28123e-20)
(6.24964 -0.540939 0)
(6.22524 -0.762272 1.23591e-19)
(6.1914 -0.982755 4.0146e-19)
(6.14816 -1.20196 -5.074e-19)
(6.09561 -1.41947 -5.38159e-19)
(6.03386 -1.63487 0)
(5.96301 -1.84778 0)
(5.8832 -2.0578 0)
(5.79458 -2.2646 -9.93482e-19)
(5.69734 -2.46783 -6.4132e-20)
(5.59164 -2.66721 -5.03734e-19)
(5.4777 -2.86251 3.01887e-20)
(5.3558 -3.0535 -9.9619e-19)
(5.22615 -3.24034 1.5182e-18)
(5.08947 -3.42257 -1.43854e-18)
(4.94581 -3.60179 4.88326e-19)
(4.79845 -3.77502 9.36157e-19)
(4.64467 -3.94714 0)
(6.11083 -0.0961187 2.94789e-20)
(6.10498 -0.3113 0)
(6.08997 -0.526502 -1.21366e-19)
(6.0658 -0.741289 -2.50082e-19)
(6.03251 -0.955241 1.21213e-19)
(5.99015 -1.16795 9.67941e-19)
(5.93881 -1.37902 0)
(5.87859 -1.58805 -4.66182e-19)
(5.80958 -1.79468 -2.38437e-19)
(5.73193 -1.99854 -4.47936e-19)
(5.64575 -2.1993 -1.79225e-19)
(5.55121 -2.39665 -1.41419e-18)
(5.44846 -2.59032 -9.33455e-19)
(5.33765 -2.78009 9.60225e-19)
(5.21901 -2.9658 9.19127e-19)
(5.09256 -3.14766 -3.88328e-21)
(4.95912 -3.32533 2.99396e-20)
(4.81792 -3.5014 4.4995e-19)
(4.67407 -3.67206 -9.19868e-19)
(4.52083 -3.8472 0)
(5.95946 -0.0944467 -6.16462e-20)
(5.9533 -0.303372 3.03474e-20)
(5.93834 -0.512384 -1.21243e-19)
(5.91454 -0.721094 1.21187e-19)
(5.88194 -0.929108 -3.4855e-19)
(5.84057 -1.13604 -1.08534e-18)
(5.79051 -1.3415 0)
(5.73183 -1.54512 4.93258e-19)
(5.66463 -1.74654 -4.61212e-19)
(5.58899 -1.94543 9.76643e-19)
(5.50503 -2.14146 9.70842e-19)
(5.41286 -2.33432 1.43035e-18)
(5.31262 -2.52375 -9.28135e-19)
(5.20434 -2.70955 4.62308e-19)
(5.08827 -2.89154 -4.54654e-19)
(4.96402 -3.06992 4.54677e-19)
(4.83272 -3.24443 0)
(4.69165 -3.4183 4.11654e-19)
(4.54986 -3.58733 -4.02839e-19)
(4.39221 -3.77373 0)
(7.13986 7.26185 0)
(7.41983 6.97206 0)
(7.68689 6.67268 1.08717e-18)
(7.94176 6.36422 2.02493e-20)
(8.18385 6.04641 -1.15022e-18)
(8.41252 5.71929 0)
(8.62734 5.38328 1.18696e-18)
(8.828 5.03891 -2.23943e-18)
(9.01416 4.68675 -1.13175e-18)
(9.18554 4.32741 -1.14233e-18)
(9.34188 3.96152 1.14232e-18)
(9.48295 3.58975 -1.15441e-18)
(9.60856 3.21277 5.75847e-19)
(9.7185 2.83129 5.49619e-19)
(9.81263 2.44598 5.51767e-19)
(9.89088 2.05749 -5.85572e-19)
(9.95323 1.66649 5.85572e-19)
(9.99975 1.27369 -2.93964e-19)
(10.0304 0.879478 -1.39635e-19)
(10.0457 0.48521 7.35474e-20)
(7.41643 7.06979 0)
(7.69659 6.78039 -9.96217e-19)
(7.96296 6.47942 -2.12985e-18)
(8.21584 6.16756 3.14963e-18)
(8.45497 5.84513 -2.18416e-18)
(8.67985 5.51259 2.19491e-18)
(8.89001 5.17053 1.19329e-18)
(9.08502 4.81963 -3.38617e-18)
(9.26451 4.46057 1.10776e-18)
(9.4281 4.09407 2.20215e-18)
(9.57549 3.72085 1.08496e-18)
(9.70643 3.34167 1.09184e-18)
(9.82076 2.95734 -1.15216e-18)
(9.91825 2.56857 1.69657e-18)
(9.99863 2.17615 -2.35382e-18)
(10.0618 1.78096 5.80998e-19)
(10.1078 1.3838 -5.58298e-19)
(10.1367 0.985487 0)
(10.1483 0.586557 1.5155e-20)
(10.1431 0.187987 0)
(7.27331 6.94492 -1.75417e-18)
(7.55628 6.67292 9.8482e-19)
(7.82671 6.38806 1.80147e-18)
(8.08415 6.09101 8.15537e-19)
(8.32817 5.78234 2.04248e-18)
(8.55825 5.46266 2.00288e-20)
(8.77385 5.13266 -1.02376e-18)
(8.9745 4.79301 -3.05103e-18)
(9.15973 4.44444 3.01218e-18)
(9.32912 4.08767 -3.09205e-18)
(9.48227 3.72344 -1.03013e-18)
(9.61889 3.35253 -2.061e-18)
(9.73865 2.97574 0)
(9.84135 2.59385 0)
(9.92684 2.20776 0)
(9.99496 1.81837 -5.25344e-19)
(10.0456 1.42652 5.50208e-19)
(10.0786 1.03308 5.27039e-19)
(10.0939 0.638743 6.26935e-21)
(10.0916 0.244492 1.32369e-19)
(7.04598 6.69284 1.82183e-18)
(7.32569 6.4395 -1.65445e-18)
(7.59405 6.17304 -1.69595e-19)
(7.85034 5.89399 -1.70556e-19)
(8.094 5.60294 4.30103e-18)
(8.32448 5.30048 -7.12531e-20)
(8.54122 4.98726 3.771e-21)
(8.7437 4.66391 -2.71989e-18)
(8.93141 4.33113 1.79456e-18)
(9.10389 3.9896 0)
(9.26064 3.6401 9.6252e-19)
(9.40131 3.28347 9.69181e-19)
(9.52564 2.92048 0)
(9.6333 2.55197 0)
(9.72408 2.17876 0)
(9.79777 1.80167 0)
(9.85419 1.42151 -2.17091e-20)
(9.89322 1.03915 4.74553e-19)
(9.91474 0.655403 -2.27884e-19)
(9.91874 0.271225 0)
(6.7833 6.3781 1.543e-18)
(7.05515 6.14262 0)
(7.31676 5.8942 -4.54309e-18)
(7.56734 5.63326 -1.54853e-18)
(7.80625 5.36032 -1.62727e-18)
(8.03292 5.07595 -1.725e-18)
(8.24676 4.78072 8.15004e-19)
(8.44723 4.47523 -8.56521e-19)
(8.6338 4.16011 2.37832e-18)
(8.80602 3.83606 -7.78609e-19)
(8.96346 3.50383 0)
(9.10563 3.16417 0)
(9.23214 2.81777 0)
(9.34272 2.46542 0)
(9.4371 2.10792 -1.22957e-18)
(9.51503 1.74609 4.22791e-19)
(9.57629 1.38073 -4.46609e-19)
(9.62072 1.01268 0)
(9.6482 0.642772 2.24746e-19)
(9.65864 0.271905 0)
(6.50835 6.0509 1.32002e-18)
(6.76996 5.83156 -4.79902e-20)
(7.02229 5.59969 2.7766e-18)
(7.26452 5.35564 1.38718e-18)
(7.49601 5.09986 0)
(7.71617 4.83287 -1.47306e-18)
(7.92443 4.55518 6.85069e-20)
(8.12025 4.26736 -1.49543e-18)
(8.30311 3.97001 2.06884e-18)
(8.47252 3.66376 3.27381e-20)
(8.62807 3.34925 2.8115e-20)
(8.76929 3.02712 -7.46237e-19)
(8.89577 2.69809 1.46353e-18)
(9.0072 2.36293 0)
(9.10332 2.02234 6.85662e-20)
(9.18381 1.67714 7.472e-19)
(9.24841 1.32813 1.63806e-21)
(9.29694 0.976062 -1.53455e-20)
(9.32928 0.621753 0)
(9.34528 0.266034 -4.63244e-20)
(6.24248 5.73388 0)
(6.49276 5.52852 -4.89159e-20)
(6.7345 5.31117 1.75704e-20)
(6.96694 5.0821 -2.50996e-18)
(7.18943 4.84172 0)
(7.40142 4.59049 1.26944e-18)
(7.60235 4.32889 1.35215e-18)
(7.79169 4.05744 -3.93396e-18)
(7.96895 3.77667 -6.82784e-20)
(8.13365 3.48716 -1.26321e-18)
(8.28535 3.1895 6.95534e-19)
(8.42363 2.8843 -6.42495e-19)
(8.54809 2.57226 -7.06302e-19)
(8.65836 2.25404 0)
(8.7542 1.93037 3.72628e-19)
(8.83539 1.60187 -1.69081e-20)
(8.90155 1.26938 -3.45922e-19)
(8.95246 0.93364 -1.67701e-20)
(8.98801 0.595405 -8.70779e-20)
(9.00804 0.255444 1.74529e-19)
(5.9969 5.43866 0)
(6.23559 5.24515 1.08534e-18)
(6.46634 5.04021 1.61792e-20)
(6.68842 4.82409 -1.10148e-18)
(6.90122 4.59715 0)
(7.1042 4.35981 1.14593e-18)
(7.29684 4.11249 -1.09409e-18)
(7.47863 3.85567 -1.21119e-18)
(7.64911 3.58985 2.30384e-18)
(7.80782 3.31556 1.24312e-18)
(7.95434 3.03334 0)
(8.08827 2.7438 6.06338e-19)
(8.20922 2.44755 -4.38941e-21)
(8.31688 2.14524 2.1866e-20)
(8.41083 1.83753 0)
(8.49094 1.52505 -5.96832e-19)
(8.55705 1.20843 -3.12681e-19)
(8.60873 0.888454 4.56846e-19)
(8.64589 0.565872 3.08022e-19)
(8.66834 0.241386 -4.11719e-20)
(5.77529 5.17017 0)
(6.00272 4.98664 -9.37395e-19)
(6.22266 4.79225 0)
(6.43443 4.58723 -1.01136e-18)
(6.63746 4.3719 1.99115e-18)
(6.83122 4.14662 -2.03064e-18)
(7.01525 3.9118 3.17755e-18)
(7.18906 3.66788 -3.1684e-18)
(7.3522 3.4153 -2.14068e-18)
(7.50427 3.15458 -1.57888e-18)
(7.64485 2.88624 5.41424e-19)
(7.77357 2.61082 -1.12248e-18)
(7.89007 2.32891 1.86483e-20)
(7.99404 2.04111 1.11581e-18)
(8.08517 1.748 -2.80711e-19)
(8.1631 1.45032 1.14993e-18)
(8.22773 1.14853 -5.65579e-19)
(8.2789 0.84337 2.60582e-19)
(8.31633 0.535554 -1.4861e-19)
(8.33984 0.225755 0)
(5.57737 4.9288 0)
(5.79418 4.75372 1.81347e-18)
(6.00385 4.56834 8.79664e-19)
(6.20575 4.37287 -9.05488e-19)
(6.39931 4.16756 -1.85489e-18)
(6.58407 3.95277 2.82257e-18)
(6.75958 3.72886 1.12891e-20)
(6.92541 3.49623 -9.20019e-19)
(7.08113 3.25533 1.97515e-18)
(7.22635 3.00663 1.0201e-18)
(7.3607 2.75062 -9.5304e-19)
(7.48383 2.48783 5.00435e-19)
(7.5954 2.21879 2.25372e-20)
(7.6951 1.94407 -5.2658e-19)
(7.78265 1.66425 -2.55171e-19)
(7.85776 1.37991 5.11651e-19)
(7.92021 1.09174 -2.56481e-19)
(7.96988 0.800236 -5.1757e-19)
(8.00661 0.506088 5.99749e-20)
(8.03014 0.209942 6.48531e-20)
(5.40092 4.71248 0)