/*--------------------------------*- C++ -*----------------------------------*\
| =========                 |                                                 |
| \\      /  F ield         | OpenFOAM: The Open Source CFD Toolbox           |
|  \\    /   O peration     | Version:  v1912                                 |
|   \\  /    A nd           | Website:  www.openfoam.com                      |
|    \\/     M anipulation  |                                                 |
\*---------------------------------------------------------------------------*/
FoamFile
{
    version     2.0;
    format      ascii;
    class       volVectorField;
    location    "0.5";
    object      U;
}
// * * * * * * * * * * * * * * * * * * * * * * * * * * * * * * * * * * * * * //

dimensions      [0 1 -1 0 0 0 0];


internalField   nonuniform List<vector> 
9600
(
(0.459051 -9.40162 -6.28016e-20)
(0.125826 -8.40904 0)
(0.144927 -7.49644 -2.44703e-20)
(0.144643 -6.66713 0)
(0.133796 -5.91471 0)
(0.127599 -5.23247 -4.61244e-21)
(0.124113 -4.61532 1.00001e-22)
(0.122562 -4.05854 2.61837e-21)
(0.123217 -3.55741 0)
(0.126261 -3.10731 -3.65736e-21)
(0.131763 -2.70378 0)
(0.139734 -2.34262 -2.15643e-22)
(0.150117 -2.01998 -3.17812e-22)
(0.162783 -1.73239 -1.75065e-21)
(0.177539 -1.47676 1.31937e-21)
(0.194138 -1.25037 -1.29624e-21)
(0.212287 -1.05078 1.10606e-21)
(0.231671 -0.875827 0)
(0.251949 -0.723544 -8.78574e-22)
(0.272677 -0.592078 9.81795e-22)
(0.827214 -9.37639 -1.19731e-19)
(0.456419 -8.40043 1.10048e-20)
(0.439855 -7.48982 5.28855e-20)
(0.407075 -6.66274 -3.27893e-20)
(0.366708 -5.91254 3.23377e-20)
(0.333646 -5.23231 0)
(0.305804 -4.61725 7.94475e-21)
(0.28223 -4.06277 -7.47508e-21)
(0.263025 -3.5642 -1.07481e-20)
(0.248199 -3.11692 1.03518e-20)
(0.237656 -2.71641 -6.58055e-21)
(0.231246 -2.35841 -2.0387e-21)
(0.228762 -2.03897 4.31477e-21)
(0.22994 -1.75454 0)
(0.234467 -1.50192 0)
(0.241988 -1.27828 4.79225e-21)
(0.252117 -1.08114 -8.08476e-21)
(0.264459 -0.908234 0)
(0.278611 -0.757538 0)
(0.294034 -0.627163 -3.77089e-21)
(1.19453 -9.33727 2.52658e-19)
(0.786375 -8.37892 0)
(0.734373 -7.47153 -9.91104e-20)
(0.669297 -6.64779 -7.52077e-20)
(0.599601 -5.90092 0)
(0.539836 -5.22372 8.07731e-20)
(0.487799 -4.61164 -6.99567e-20)
(0.442384 -4.06027 9.49658e-21)
(0.403526 -3.56501 -2.40139e-20)
(0.371064 -3.1212 -3.07622e-20)
(0.344733 -2.72431 3.67275e-20)
(0.324217 -2.37001 -2.07749e-20)
(0.309153 -2.05426 -8.23732e-21)
(0.299134 -1.77341 0)
(0.293718 -1.52419 4.10863e-22)
(0.292436 -1.30369 5.16196e-21)
(0.294798 -1.10931 2.10098e-21)
(0.300327 -0.938757 0)
(0.30855 -0.789933 3.83711e-21)
(0.318816 -0.660925 4.01753e-21)
(1.55986 -9.28404 -3.37846e-19)
(1.11509 -8.34464 -1.16238e-19)
(1.02798 -7.4418 1.14282e-19)
(0.930887 -6.62256 1.41911e-19)
(0.832087 -5.88008 -6.57849e-20)
(0.745815 -5.20684 5.0529e-22)
(0.669775 -4.59861 3.26883e-20)
(0.602725 -4.05114 2.50927e-20)
(0.544441 -3.55987 3.93264e-20)
(0.494597 -3.12018 0)
(0.452752 -2.72749 1.04248e-20)
(0.418421 -2.37739 -1.23197e-20)
(0.391079 -2.06579 1.16824e-21)
(0.370168 -1.78896 1.5289e-20)
(0.355109 -1.54351 1.17147e-20)
(0.34531 -1.32648 -1.62283e-20)
(0.340173 -1.13519 5.312e-21)
(0.339129 -0.967271 -8.23219e-21)
(0.341635 -0.820589 8.20078e-21)
(0.346906 -0.693207 -4.0181e-21)
(1.92288 -9.21674 1.6922e-19)
(1.44228 -8.29768 0)
(1.32032 -7.40066 9.9735e-20)
(1.19147 -6.58705 0)
(1.0638 -5.84999 0)
(0.951233 -5.18166 -4.85415e-20)
(0.851402 -4.57813 -7.18627e-20)
(0.762944 -4.03533 -4.61638e-20)
(0.685484 -3.54877 5.28514e-21)
(0.618529 -3.11383 -1.60304e-20)
(0.561463 -2.72589 0)
(0.513625 -2.38051 -1.0528e-20)
(0.474322 -2.07352 -1.7253e-20)
(0.442838 -1.80109 1.37082e-20)
(0.418449 -1.5598 -3.79634e-20)
(0.400432 -1.34655 6.08683e-21)
(0.388076 -1.15865 4.40345e-21)
(0.380714 -0.993649 -9.22514e-21)
(0.377726 -0.849365 -3.94903e-21)
(0.378182 -0.723857 1.20549e-20)
(2.28303 -9.1354 1.44898e-19)
(1.76748 -8.2381 1.05067e-19)
(1.61099 -7.34817 0)
(1.45067 -6.54133 0)
(1.29437 -5.81071 -1.03034e-19)
(1.15574 -5.14822 6.68084e-20)
(1.03235 -4.55024 1.11081e-19)
(0.922735 -4.01287 0)
(0.826367 -3.5317 2.02631e-20)
(0.742591 -3.10212 1.60304e-20)
(0.670613 -2.7195 -2.39324e-20)
(0.609593 -2.37933 3.40482e-20)
(0.55866 -2.07738 8.76127e-21)
(0.516934 -1.80976 0)
(0.483541 -1.57296 6.40128e-21)
(0.45762 -1.36383 2.73519e-20)
(0.438336 -1.1796 -1.63761e-20)
(0.424923 -1.01778 1.75621e-20)
(0.416677 -0.876133 -3.3299e-20)
(0.412511 -0.752735 3.9078e-20)
(2.63978 -9.04013 1.45519e-19)
(2.09024 -8.16595 -6.97023e-19)
(1.89957 -7.28439 0)
(1.70808 -6.48546 0)
(1.52343 -5.76228 0)
(1.359 -5.10654 -8.99609e-20)
(1.2123 -4.51494 0)
(1.08179 -3.98376 -1.01629e-19)
(0.966802 -3.50867 8.49127e-20)
(0.866512 -3.08506 -7.07689e-20)
(0.779949 -2.70829 0)
(0.706083 -2.37381 0)
(0.643865 -2.07734 0)
(0.592242 -1.81491 -1.58982e-20)
(0.550183 -1.58294 0)
(0.516681 -1.37823 0)
(0.490774 -1.19795 -2.01537e-20)
(0.471588 -1.03955 1.98015e-20)
(0.458334 -0.900777 0)
(0.449751 -0.77971 0)
(2.9926 -8.93103 -5.14905e-19)
(2.4101 -8.08131 2.68043e-19)
(2.18563 -7.2094 0)
(1.96331 -6.41948 0)
(1.75061 -5.70474 0)
(1.56064 -5.05668 7.96429e-20)
(1.39092 -4.47228 -7.94561e-20)
(1.2398 -3.94804 -9.24546e-22)
(1.1065 -3.47968 -8.16931e-20)
(0.990019 -3.06264 7.15869e-20)
(0.889209 -2.69226 -2.79194e-20)
(0.80285 -2.36394 4.20287e-20)
(0.729704 -2.07336 -5.82757e-21)
(0.66854 -1.81648 -3.54204e-20)
(0.618162 -1.58968 -2.65085e-20)
(0.577414 -1.38969 2.60437e-20)
(0.545197 -1.21361 0)
(0.520529 -1.05888 0)
(0.502527 -0.923194 1.72725e-20)
(0.489745 -0.804667 -1.93202e-20)
(3.34096 -8.80828 3.43486e-19)
(2.72656 -7.98431 2.39094e-19)
(2.46875 -7.12328 -4.18623e-19)
(2.21597 -6.34349 1.79947e-19)
(1.97554 -5.63817 0)
(1.76033 -4.99867 9.10124e-20)
(1.56787 -4.4223 -6.33909e-20)
(1.39645 -3.90573 1.66739e-19)
(1.24516 -3.44478 -5.82512e-21)
(1.11283 -3.0349 0)
(0.998133 -2.67141 5.66022e-20)
(0.899644 -2.34972 0)
(0.815936 -2.06542 0)
(0.745596 -1.81446 -1.50859e-20)
(0.687257 -1.59314 3.10003e-20)
(0.639606 -1.39814 0)
(0.601404 -1.22653 2.17786e-20)
(0.571552 -1.0757 8.71758e-21)
(0.549069 -0.943295 -1.93345e-20)
(0.532317 -0.827506 1.89596e-20)
(3.68433 -8.67203 -3.46073e-19)
(3.03917 -7.87505 2.40437e-19)
(2.7485 -7.02615 -6.28365e-19)
(2.46566 -6.25755 1.81184e-19)
(2.19784 -5.56264 0)
(1.95771 -4.93259 -1.75881e-19)
(1.74283 -4.36505 8.14889e-20)
(1.55144 -3.8569 0)
(1.3825 -3.404 -4.48317e-20)
(1.23468 -3.00184 -6.52499e-20)
(1.10645 -2.64576 -4.76147e-20)
(0.996207 -2.33113 7.92122e-21)
(0.902313 -2.05352 4.39865e-20)
(0.82317 -1.80881 1.50468e-20)
(0.757234 -1.59327 -3.54904e-21)
(0.703029 -1.40354 -2.81048e-20)
(0.659171 -1.23664 -1.20781e-20)
(0.624441 -1.08992 -1.04385e-20)
(0.597755 -0.961006 2.75983e-20)
(0.577266 -0.848141 -4.19313e-20)
(4.02218 -8.52247 3.46074e-19)
(3.34746 -7.75369 -3.17724e-20)
(3.02445 -6.91811 1.76596e-19)
(2.71196 -6.16177 0)
(2.41713 -5.47822 -1.085e-19)
(2.15243 -4.85851 2.00034e-19)
(1.91546 -4.30061 -1.30691e-19)
(1.70444 -3.80158 1.28611e-19)
(1.51821 -3.35738 -3.75991e-20)
(1.35527 -2.96351 8.10514e-20)
(1.2139 -2.61533 2.94632e-20)
(1.09228 -2.30819 0)
(0.988581 -2.03763 0)
(0.901011 -1.79952 -1.62688e-20)
(0.827843 -1.59006 3.62455e-21)
(0.767438 -1.40586 5.55728e-20)
(0.718259 -1.24391 -1.38226e-20)
(0.67896 -1.10151 4.27449e-20)
(0.648349 -0.976269 6.98557e-21)
(0.624363 -0.866506 -4.37576e-20)
(4.35402 -8.35983 -1.04534e-18)
(3.65096 -7.6204 -2.76269e-19)
(3.29619 -6.79931 -6.27849e-19)
(2.9545 -6.05627 -3.22195e-19)
(2.63305 -5.38502 -1.37283e-19)
(2.34413 -4.77652 -1.28766e-19)
(2.08543 -4.22905 -3.15363e-19)
(1.85515 -3.73986 -1.18784e-20)
(1.652 -3.30497 -1.8743e-19)
(1.47433 -2.91995 7.26489e-21)
(1.3202 -2.58015 -6.21165e-20)
(1.18759 -2.2809 -5.19088e-20)
(1.07447 -2.01777 4.40587e-20)
(0.978854 -1.78656 -3.79533e-20)
(0.898823 -1.58347 -3.3145e-20)
(0.832569 -1.40506 -2.93081e-20)
(0.778401 -1.24829 -7.54486e-20)
(0.734843 -1.11043 2.74452e-20)
(0.700586 -0.989039 6.31258e-20)
(0.673339 -0.882548 -6.83063e-20)
(4.67934 -8.18433 1.39722e-18)
(3.94923 -7.47536 1.34675e-18)
(3.56329 -6.66988 1.77793e-19)
(3.19288 -5.94115 7.90516e-19)
(2.84521 -5.28314 -1.44e-19)
(2.53245 -4.68671 5.54581e-19)
(2.25241 -4.15047 1.29563e-19)
(2.00326 -3.67181 3.42352e-19)
(1.78358 -3.24686 -9.59811e-20)
(1.59156 -2.87121 2.37249e-19)
(1.42507 -2.54024 1.25842e-19)
(1.28188 -2.24929 1.05334e-19)
(1.15972 -1.99391 -1.31589e-19)
(1.05643 -1.76992 1.18551e-19)
(0.969893 -1.57347 6.75293e-20)
(0.898137 -1.40111 5.97687e-20)
(0.839308 -1.24975 5.34764e-20)
(0.791796 -1.11663 9.92808e-22)
(0.754165 -0.999279 4.3933e-20)
(0.723885 -0.896228 4.62474e-20)
(4.99768 -7.99623 -9.9975e-19)
(4.24183 -7.31877 3.3708e-19)
(3.82535 -6.53 6.12745e-19)
(3.42669 -5.81656 -6.55448e-19)
(3.05323 -5.1727 1.40827e-19)
(2.71705 -4.58921 -3.66156e-19)
(2.41607 -4.06495 1.72934e-19)
(2.14844 -3.59752 -2.27351e-19)
(1.91266 -3.18311 1.18317e-20)
(1.70671 -2.81735 1.686e-21)
(1.52826 -2.49564 -1.29054e-19)
(1.37487 -2.21336 -5.34257e-20)
(1.24406 -1.96606 9.23895e-20)
(1.13345 -1.74956 1.33646e-21)
(1.04076 -1.56001 -3.39756e-21)
(0.963837 -1.39394 -6.42875e-20)
(0.900663 -1.24824 -2.72735e-20)
(0.84949 -1.12008 -1.83189e-21)
(0.80875 -1.00696 -4.66645e-20)
(0.775654 -0.907516 -2.36298e-20)
(5.3086 -7.79578 0)
(4.52836 -7.15084 -5.55164e-19)
(4.08197 -6.3798 2.36852e-21)
(3.65556 -5.68263 6.20966e-19)
(3.25676 -5.05384 1.88592e-19)
(2.89758 -4.48412 -2.2216e-19)
(2.57607 -3.97263 -1.52202e-19)
(2.2904 -3.5171 0)
(2.03893 -3.11381 -8.94353e-20)
(1.81948 -2.75844 8.2576e-20)
(1.62949 -2.44641 -6.96127e-21)
(1.46629 -2.17315 0)
(1.32721 -1.93421 -4.69079e-20)
(1.20964 -1.72546 3.75945e-20)
(1.11113 -1.54305 2.78468e-20)
(1.02935 -1.38351 -3.78343e-20)
(0.962126 -1.24369 -3.11194e-20)
(0.907569 -1.12073 5.22895e-20)
(0.863968 -1.01204 -4.76647e-20)
(0.828252 -0.91638 2.56799e-20)
(5.61168 -7.58324 1.0099e-18)
(4.8084 -6.97176 -5.85365e-19)
(4.33274 -6.21948 -3.72049e-19)
(3.87908 -5.53951 1.53471e-19)
(3.45541 -4.9267 -2.90078e-19)
(3.07368 -4.37159 0)
(2.7321 -3.87362 0)
(2.42884 -3.43067 0)
(2.16213 -3.03907 -9.09517e-21)
(1.92961 -2.69455 -1.64769e-19)
(1.7285 -2.3926 7.38841e-20)
(1.5559 -2.12866 5.35587e-20)
(1.40891 -1.89835 3.97941e-20)
(1.28473 -1.69756 -1.71604e-19)
(1.18071 -1.52249 7.93803e-20)
(1.09435 -1.36969 0)
(1.02334 -1.23599 -2.32127e-21)
(0.96565 -1.11847 -8.32554e-20)
(0.919415 -1.01445 -9.0572e-22)
(0.881249 -0.922749 -2.56872e-20)
(5.90663 -7.35893 -7.07618e-19)
(5.08158 -6.78178 -3.13359e-19)
(4.57726 -6.0492 1.37033e-19)
(4.09687 -5.38737 -8.25563e-20)
(3.64881 -4.79143 -7.78435e-19)
(3.24501 -4.25177 6.05455e-19)
(2.88383 -3.76807 -1.89803e-20)
(2.56345 -3.33835 1.25796e-19)
(2.28198 -2.95899 1.00227e-19)
(2.03684 -2.62579 8.37656e-20)
(1.82505 -2.33427 6.99718e-20)
(1.64346 -2.07993 1.14336e-19)
(1.48894 -1.85845 -5.40321e-20)
(1.35846 -1.6658 1.27846e-19)
(1.24922 -1.49822 -8.18587e-20)
(1.15854 -1.35232 -3.10476e-20)
(1.08397 -1.22496 1.26931e-19)
(1.02336 -1.11315 8.27831e-20)
(0.974709 -1.01406 -2.02177e-21)
(0.934269 -0.926492 0)
(6.19345 -7.12333 -3.55859e-19)
(5.34764 -6.58116 5.6276e-19)
(4.81512 -5.86913 3.85623e-19)
(4.3085 -5.22634 -8.26903e-20)
(3.83656 -4.64818 -2.68021e-19)
(3.4112 -4.12482 2.76415e-20)
(3.03094 -3.65613 1.64525e-21)
(2.69395 -3.24028 1.60896e-21)
(2.3982 -2.87371 0)
(2.14093 -2.55226 7.97912e-20)
(1.91892 -2.27151 -1.46915e-19)
(1.72875 -2.02702 -5.49862e-20)
(1.56706 -1.81454 5.53927e-20)
(1.43063 -1.63012 -4.45278e-20)
(1.31642 -1.47011 4.04239e-20)
(1.22164 -1.3312 -3.5027e-20)
(1.1437 -1.21033 9.52506e-22)
(1.08034 -1.10449 -2.85621e-20)
(1.02951 -1.01065 -2.60504e-20)
(0.987071 -0.927454 -2.68821e-20)
(6.47254 -6.87697 0)
(5.60649 -6.36991 -2.51667e-19)
(5.04594 -5.67932 2.48785e-19)
(4.51352 -5.05653 3.36602e-19)
(4.01826 -4.49712 -2.60409e-19)
(3.57188 -3.9909 1.82719e-19)
(3.17308 -3.53799 -3.3919e-19)
(2.82001 -3.13664 -2.56345e-19)
(2.51053 -2.78338 -9.58916e-20)
(2.24164 -2.4741 9.00301e-21)
(2.00987 -2.20443 -6.7343e-20)
(1.81157 -1.97 5.44776e-21)
(1.64312 -1.76664 0)
(1.50106 -1.59048 -8.80868e-20)
(1.38216 -1.43799 4.61194e-20)
(1.28345 -1.30601 0)
(1.20222 -1.1916 -3.24694e-20)
(1.13614 -1.0918 -5.73813e-20)
(1.08323 -1.0034 5.63823e-20)
(1.03904 -0.925151 2.84412e-20)
(6.74367 -6.61917 0)
(5.85776 -6.14748 0)
(5.26925 -5.47972 -3.89242e-19)
(4.71154 -4.87818 -2.53701e-19)
(4.19353 -4.33856 5.57647e-19)
(3.72675 -3.85035 0)
(3.30998 -3.41392 0)
(2.94141 -3.02768 1.28939e-19)
(2.61874 -2.68823 0)
(2.33876 -2.39151 0)
(2.09775 -2.13322 0)
(1.89179 -1.90904 0)
(1.71702 -1.71488 0)
(1.56972 -1.54696 0)
(1.44647 -1.40186 0)
(1.34412 -1.27654 0)
(1.2598 -1.16821 0)
(1.19104 -1.07401 0)
(1.13568 -0.990939 0)
(1.08942 -0.918155 0)
(9.48376 0.0886739 4.40055e-20)
(9.47753 -0.285271 8.20213e-20)
(9.45697 -0.657632 -8.83583e-20)
(9.42247 -1.02833 1.77928e-19)
(9.37369 -1.39707 -1.77928e-19)
(9.31043 -1.76339 -1.53105e-19)
(9.23276 -2.12677 -1.53551e-19)
(9.14081 -2.4867 5.38899e-19)
(9.03472 -2.84263 -3.59366e-19)
(8.91468 -3.19403 3.60291e-19)
(8.78089 -3.54035 -3.60292e-19)
(8.63358 -3.88106 3.6065e-19)
(8.47299 -4.21564 -7.21386e-19)
(8.29941 -4.5436 1.03093e-18)
(8.11313 -4.86445 0)
(7.91447 -5.17772 -1.02935e-18)
(7.70378 -5.483 6.99589e-22)
(7.48149 -5.7799 1.07906e-18)
(7.24771 -6.0683 0)
(7.00387 -6.34738 0)
(8.52431 -0.209989 0)
(8.51114 -0.545188 -1.12327e-20)
(8.48418 -0.878869 0)
(8.44386 -1.21085 1.24683e-19)
(8.39025 -1.5408 1.41436e-19)
(8.32334 -1.86825 -3.80568e-19)
(8.24325 -2.19269 7.4013e-19)
(8.15015 -2.51361 -2.849e-19)
(8.0442 -2.8305 -2.54378e-19)
(7.9256 -3.14284 -2.54922e-19)
(7.79456 -3.4501 3.17621e-20)
(7.65131 -3.75181 2.87448e-19)
(7.49611 -4.04748 -1.40488e-18)
(7.32923 -4.33669 -3.45083e-19)
(7.15098 -4.61897 5.74473e-19)
(6.96169 -4.89394 6.00152e-19)
(6.76166 -5.16122 3.17738e-19)
(6.55122 -5.42045 -5.72733e-19)
(6.33045 -5.67146 2.54047e-19)
(6.09973 -5.9136 0)
(7.59814 -0.164471 2.63579e-20)
(7.59237 -0.462023 -5.67859e-20)
(7.57395 -0.75905 1.54657e-19)
(7.54306 -1.05511 -1.22571e-19)
(7.49985 -1.34975 -1.07735e-19)
(7.44438 -1.64248 1.24485e-19)
(7.37678 -1.93277 0)
(7.29722 -2.22012 0)
(7.20584 -2.50406 4.47976e-19)
(7.10286 -2.78411 6.69462e-19)
(6.98845 -3.05977 -1.88828e-19)
(6.86278 -3.33057 6.6275e-19)
(6.7261 -3.59602 -1.89187e-19)
(6.57869 -3.85569 -6.397e-19)
(6.42083 -4.10918 3.50703e-22)
(6.25279 -4.35609 3.86576e-19)
(6.07486 -4.59607 -1.4194e-19)
(5.88732 -4.82873 -3.93132e-19)
(5.69038 -5.05384 -2.51138e-19)
(5.48424 -5.2707 3.90801e-19)
(6.72889 -0.146989 0)
(6.72889 -0.40943 3.65225e-20)
(6.71753 -0.671982 3.58413e-20)
(6.69481 -0.934111 -1.57242e-19)
(6.66085 -1.19535 0)
(6.61575 -1.45519 0)
(6.55962 -1.71316 0)
(6.49254 -1.96876 0)
(6.41468 -2.22154 -1.9401e-19)
(6.32617 -2.47108 -1.94507e-19)
(6.22717 -2.71696 0)
(6.11792 -2.95866 3.43648e-19)
(5.99864 -3.1957 -8.41271e-19)
(5.86951 -3.42765 6.92787e-19)
(5.73079 -3.65414 -6.50566e-19)
(5.58274 -3.87481 -1.58601e-19)
(5.4256 -4.08929 8.28194e-20)
(5.25963 -4.2972 8.28587e-20)
(5.08514 -4.49826 -3.39611e-19)
(4.90215 -4.69181 -4.62142e-20)
(5.93512 -0.147457 0)
(5.93935 -0.377977 -3.60198e-20)
(5.93343 -0.608967 0)
(5.91731 -0.839921 7.3376e-20)
(5.89105 -1.07035 6.53432e-20)
(5.85473 -1.29981 5.28372e-20)
(5.80842 -1.52786 0)
(5.75219 -1.75404 0)
(5.68613 -1.97789 0)
(5.61036 -2.19901 0)
(5.52513 -2.417 1.20471e-19)
(5.43064 -2.63154 1.47051e-19)
(5.32693 -2.84222 1.518e-19)
(5.21422 -3.04848 -1.51977e-19)
(5.09274 -3.24991 -2.04784e-19)
(4.96272 -3.44619 3.02676e-19)
(4.8244 -3.63699 5.67451e-19)
(4.67803 -3.82197 2.73827e-19)
(4.52391 -4.00081 0)
(4.36211 -4.17296 -2.3586e-19)
(5.22747 -0.148934 5.5743e-21)
(5.23476 -0.350705 0)
(5.233 -0.553204 -9.64161e-20)
(5.22212 -0.755976 -4.83468e-22)
(5.20214 -0.958572 4.49e-21)
(5.17311 -1.16058 -2.24279e-20)
(5.13507 -1.36157 0)
(5.08809 -1.56113 9.80018e-21)
(5.03225 -1.75885 -1.04887e-19)
(4.96766 -1.95429 2.01163e-19)
(4.8944 -2.14701 -2.24181e-19)
(4.81258 -2.33674 1.38269e-19)
(4.72251 -2.5232 -6.13664e-19)
(4.62436 -2.70608 4.02157e-19)
(4.51824 -2.88478 2.37053e-19)
(4.40433 -3.0589 0)
(4.28287 -3.22815 -3.97684e-19)
(4.1541 -3.39223 -2.62567e-20)
(4.01831 -3.55085 -3.93272e-19)
(3.8756 -3.70352 4.38663e-19)
(4.60929 -0.152111 4.41797e-21)
(4.61835 -0.328617 -9.90675e-21)
(4.61934 -0.506008 8.56874e-20)
(4.61217 -0.683873 -3.22468e-21)
(4.59684 -0.861806 8.73381e-20)
(4.57338 -1.03941 -1.33979e-19)
(4.54182 -1.21631 0)
(4.50221 -1.39211 9.36287e-20)
(4.45461 -1.56644 7.72184e-20)
(4.39911 -1.7389 -9.42228e-20)
(4.33581 -1.90913 1.54859e-19)
(4.26484 -2.0767 3.57938e-19)
(4.18632 -2.24124 -1.49446e-19)
(4.10047 -2.40261 -1.87762e-19)
(4.0075 -2.56058 1.68369e-19)
(3.90751 -2.71454 0)
(3.80067 -2.86417 2.02701e-20)
(3.68723 -3.0092 1.09641e-21)
(3.56747 -3.14938 3.49064e-19)
(3.44149 -3.28426 1.4824e-19)
(4.07853 -0.156831 0)
(4.08817 -0.311481 1.36083e-21)
(4.09058 -0.467077 -1.36748e-20)
(4.08568 -0.623243 -7.00092e-20)
(4.07345 -0.779609 6.22402e-20)
(4.05392 -0.935813 0)
(4.02711 -1.0915 1.31606e-19)
(3.99305 -1.2463 2.6311e-22)
(3.95181 -1.39988 -2.0831e-19)
(3.90346 -1.55189 0)
(3.8481 -1.70197 -1.52395e-19)
(3.78584 -1.84978 1.06673e-20)
(3.71681 -1.99498 -4.01673e-19)
(3.64112 -2.13717 5.84164e-22)
(3.55902 -2.27629 1.36719e-19)
(3.47068 -2.41202 0)
(3.37617 -2.54389 -1.34146e-19)
(3.27573 -2.67164 1.12884e-21)
(3.16964 -2.79504 1.33018e-19)
(3.058 -2.91372 -1.45881e-19)
(3.62938 -0.162037 0)
(3.63862 -0.298002 1.47877e-20)
(3.64134 -0.434896 3.20346e-20)
(3.63748 -0.572376 -5.55237e-20)
(3.62703 -0.7101 -5.16388e-21)
(3.60999 -0.847735 -2.81492e-20)
(3.5864 -0.984948 -1.14963e-19)
(3.55629 -1.12141 5.71444e-20)
(3.51972 -1.25681 5.36722e-21)
(3.47676 -1.3908 5.72377e-20)
(3.4275 -1.52309 4.90813e-20)
(3.37204 -1.65336 2.3098e-19)
(3.3105 -1.78131 1.16684e-19)
(3.243 -1.90661 2.26319e-19)
(3.16976 -2.02894 -1.12838e-19)
(3.09089 -2.14827 7.78984e-21)
(3.00653 -2.26416 -1.11151e-19)
(2.91692 -2.37634 0)
(2.82226 -2.48457 1.00059e-19)
(2.72269 -2.58854 0)
(3.25377 -0.166938 5.68265e-21)
(3.26185 -0.287082 -1.64262e-20)
(3.26402 -0.408081 4.69214e-20)
(3.26022 -0.529619 -2.36248e-20)
(3.25047 -0.651379 2.93433e-21)
(3.23476 -0.773053 -2.38245e-20)
(3.21313 -0.894334 5.20102e-20)
(3.18562 -1.01492 -4.82893e-20)
(3.15229 -1.13451 4.82892e-20)
(3.11321 -1.2528 9.04904e-20)
(3.06846 -1.36952 -1.0454e-19)
(3.01815 -1.48438 -8.35268e-21)
(2.9624 -1.59709 -2.95049e-19)
(2.90134 -1.7074 6.83151e-22)
(2.83509 -1.81495 6.65451e-21)
(2.7638 -1.91967 1.88735e-19)
(2.6877 -2.02128 -9.18568e-20)
(2.60693 -2.11948 -8.38506e-20)
(2.52171 -2.21406 -7.67351e-21)
(2.43216 -2.30475 0)
(2.94259 -0.171027 0)
(2.94898 -0.277867 2.0482e-20)
(2.94997 -0.385449 -7.03052e-20)
(2.94552 -0.493479 -1.80657e-20)
(2.93565 -0.601662 4.37579e-20)
(2.92038 -0.709712 0)
(2.89973 -0.817342 0)
(2.87375 -0.92427 4.14434e-20)
(2.84251 -1.03022 -4.14433e-20)
(2.80608 -1.13492 3.04726e-20)
(2.76456 -1.2381 -4.13567e-20)
(2.71804 -1.3395 8.19459e-20)
(2.66663 -1.43887 -1.63303e-19)
(2.6105 -1.53598 1.62006e-19)
(2.5497 -1.63054 5.8629e-21)
(2.48443 -1.72234 -8.56214e-20)
(2.41493 -1.81124 -7.78212e-20)
(2.3413 -1.89697 1.61372e-19)
(2.26374 -1.97935 7.12564e-20)
(2.18242 -2.05812 0)
(2.68656 -0.173988 2.52814e-22)
(2.69095 -0.269688 1.25393e-20)
(2.69036 -0.365996 2.7412e-20)
(2.68479 -0.462633 1.9986e-20)
(2.67425 -0.559325 1.78499e-20)
(2.65876 -0.655801 1.61413e-20)
(2.63837 -0.751794 0)
(2.61314 -0.84704 -6.84087e-20)
(2.58312 -0.94128 -3.60292e-20)
(2.54841 -1.03426 2.75424e-20)
(2.5091 -1.12574 0)
(2.46529 -1.21547 7.1015e-20)
(2.4171 -1.30321 -2.08376e-19)
(2.36468 -1.38874 7.04028e-20)
(2.30808 -1.4719 0)
(2.24754 -1.55238 -6.46173e-20)
(2.18323 -1.63006 -1.30531e-19)
(2.1153 -1.70475 6.36845e-20)
(2.04393 -1.77627 -4.24191e-21)
(1.96931 -1.84439 0)
(2.47689 -0.17567 3.88839e-22)
(2.47914 -0.262061 -8.00589e-21)
(2.47679 -0.348913 1.54565e-20)
(2.46982 -0.435966 -1.42514e-21)
(2.45826 -0.522958 3.13595e-20)
(2.44216 -0.609635 -4.91418e-20)
(2.42155 -0.695742 0)
(2.39651 -0.781032 6.6654e-21)
(2.36711 -0.865263 0)
(2.33343 -0.948196 -6.70513e-20)
(2.29558 -1.0296 0)
(2.25368 -1.10925 -5.95741e-20)
(2.20784 -1.18694 1.86532e-19)
(2.15817 -1.26242 -1.2271e-19)
(2.10477 -1.33557 6.09959e-20)
(2.0479 -1.40614 -4.99535e-20)
(1.98769 -1.47399 6.25339e-20)
(1.92428 -1.53895 -6.14922e-20)
(1.85788 -1.60087 0)
(1.78868 -1.65954 0)
(2.30557 -0.176054 3.48306e-21)
(2.30571 -0.254659 0)
(2.30155 -0.333584 0)
(2.29308 -0.412578 -2.91322e-20)
(2.28035 -0.491393 -2.67546e-20)
(2.26341 -0.569785 0)
(2.24231 -0.647514 0)
(2.21713 -0.724341 5.38907e-21)
(2.18793 -0.80004 5.40391e-20)
(2.15483 -0.874385 -2.57776e-20)
(2.11793 -0.94716 -2.80656e-20)
(2.07734 -1.01815 1.13803e-19)
(2.03319 -1.08716 -1.67933e-19)
(1.98558 -1.154 1.06578e-19)
(1.93468 -1.21845 0)
(1.88066 -1.28038 2.12118e-19)
(1.82366 -1.33963 -1.50149e-19)
(1.76385 -1.39607 5.1326e-20)
(1.70144 -1.44955 9.47687e-20)
(1.63662 -1.49987 0)
(2.16559 -0.175216 -2.84985e-21)
(2.16375 -0.247293 0)
(2.15786 -0.319557 -5.64533e-22)
(2.14793 -0.391766 -2.40159e-20)
(2.13402 -0.463685 7.54731e-20)
(2.11617 -0.535078 -1.25896e-20)
(2.09446 -0.605713 0)
(2.06896 -0.675359 1.0189e-19)
(2.03975 -0.743805 -5.30926e-20)
(2.00695 -0.810833 4.45024e-21)
(1.97066 -0.87624 4.81375e-20)
(1.93101 -0.939818 4.94704e-20)
(1.88811 -1.00138 -9.83603e-20)
(1.8421 -1.06075 -9.52439e-20)
(1.79313 -1.11773 -9.17073e-20)
(1.74136 -1.17219 -9.8888e-20)
(1.68692 -1.22399 9.70917e-20)
(1.63 -1.27301 -4.46921e-20)
(1.57081 -1.31911 -4.84162e-20)
(1.50952 -1.36206 0)
(2.05096 -0.173295 2.7999e-21)
(2.04734 -0.239871 -1.0521e-20)
(2.03989 -0.306516 -1.1106e-20)
(2.02863 -0.372998 3.39399e-20)
(2.01362 -0.439089 -1.22989e-20)
(1.99492 -0.504563 -1.13828e-20)
(1.9726 -0.569193 0)
(1.94675 -0.632751 -4.78744e-20)
(1.91745 -0.695044 0)
(1.88481 -0.755856 4.76006e-20)
(1.84897 -0.814989 -9.08819e-20)
(1.81003 -0.872261 4.4622e-20)
(1.76811 -0.927477 -8.86866e-20)
(1.72338 -0.980458 9.21526e-20)
(1.67597 -1.03104 5.07074e-20)
(1.62603 -1.07909 0)
(1.5737 -1.12448 -4.09909e-20)
(1.51914 -1.16707 4.0991e-20)
(1.46257 -1.20675 0)
(1.40413 -1.24318 0)
(1.95667 -0.170469 0)
(1.95153 -0.232377 1.03368e-20)
(1.94274 -0.294254 3.47162e-22)
(1.93034 -0.355879 -1.11139e-20)
(1.91439 -0.41703 -9.5626e-21)
(1.89497 -0.477486 -1.03496e-20)
(1.87214 -0.537027 4.02272e-20)
(1.846 -0.595422 0)
(1.81662 -0.652514 0)
(1.78415 -0.708056 2.06436e-20)
(1.74868 -0.761879 2.21814e-20)
(1.71035 -0.813803 7.86314e-20)
(1.66931 -0.863636 -3.9974e-20)
(1.62568 -0.911206 3.99739e-20)
(1.57961 -0.956359 4.26995e-20)
(1.53124 -0.998953 2.74388e-21)
(1.48072 -1.03885 -7.49277e-20)
(1.42817 -1.07592 8.97817e-22)
(1.3738 -1.10999 3.61457e-20)
(1.31763 -1.14053 0)
(1.87861 -0.166925 -2.24177e-21)
(1.87222 -0.224856 2.24175e-21)
(1.86234 -0.282677 0)
(1.84904 -0.340173 8.66682e-21)
(1.83236 -0.397132 2.89433e-20)
(1.81239 -0.453338 -3.6707e-20)
(1.78921 -0.508568 -3.95244e-20)
(1.7629 -0.562579 0)
(1.73354 -0.615277 0)
(1.7013 -0.666386 0)
(1.66625 -0.715747 -7.27295e-20)
(1.62855 -0.76317 -5.24882e-21)
(1.58834 -0.80848 -3.64764e-20)
(1.54575 -0.851509 2.31503e-21)
(1.50094 -0.8921 -7.11186e-20)
(1.45403 -0.930104 1.07737e-19)
(1.40515 -0.965365 -9.96263e-20)
(1.35442 -0.997687 3.36844e-20)
(1.30202 -1.02677 6.25037e-20)
(1.24762 -1.0516 0)
(1.81345 -0.162832 1.9629e-21)
(1.80608 -0.217396 0)
(1.79539 -0.271788 -8.49991e-21)
(1.78142 -0.325805 -1.78348e-20)
(1.76423 -0.379243 8.60285e-21)
(1.7439 -0.431898 6.97734e-20)
(1.72056 -0.483542 0)
(1.69424 -0.533871 -3.3891e-20)
(1.66505 -0.582819 -1.74253e-20)
(1.63312 -0.630329 -3.25808e-20)
(1.59855 -0.676023 -1.27023e-20)
(1.56151 -0.719749 -1.02963e-19)
(1.52215 -0.76135 -6.74731e-20)
(1.48059 -0.800664 6.93791e-20)
(1.43699 -0.83753 6.52918e-20)
(1.39148 -0.87178 -6.94994e-22)
(1.34417 -0.903209 2.28061e-21)
(1.29518 -0.931498 3.08735e-20)
(1.24471 -0.956018 -6.14156e-20)
(1.1918 -0.974614 0)
(1.75848 -0.158375 -4.12837e-21)
(1.75043 -0.209952 2.03859e-21)
(1.7392 -0.261335 -8.44713e-21)
(1.72483 -0.31233 8.4444e-21)
(1.70737 -0.362745 -2.45383e-20)
(1.68693 -0.412397 -7.77942e-20)
(1.66365 -0.46108 0)
(1.63757 -0.508463 3.5995e-20)
(1.60866 -0.554368 -3.33983e-20)
(1.57714 -0.598863 7.14853e-20)
(1.54322 -0.641608 7.09506e-20)
(1.50696 -0.682415 1.03976e-19)
(1.46849 -0.721131 -6.7006e-20)
(1.42797 -0.757594 3.327e-20)
(1.38556 -0.791637 -3.21147e-20)
(1.34138 -0.823066 3.21141e-20)
(1.29557 -0.851598 0)
(1.24827 -0.876702 2.77757e-20)
(1.19982 -0.897109 -2.60166e-20)
(1.14816 -0.908767 0)
(6.61342 6.73738 0)
(6.87622 6.47155 0)
(7.12776 6.19716 2.97599e-19)
(7.36865 5.91443 7.59091e-21)
(7.59836 5.623 -3.48034e-19)
(7.81629 5.32282 0)
(8.02208 5.01421 3.63343e-19)
(8.21543 4.69761 -6.21875e-19)
(8.39603 4.37346 -3.16463e-19)
(8.56357 4.04226 -3.21759e-19)
(8.71778 3.70453 3.21758e-19)
(8.8584 3.36081 -3.28442e-19)
(8.9852 3.01167 1.63416e-19)
(9.09799 2.65766 1.41095e-19)
(9.19658 2.29935 1.42545e-19)
(9.28084 1.93734 -1.70117e-19)
(9.35066 1.57219 1.70117e-19)
(9.406 1.20449 -8.63374e-20)
(9.44682 0.834621 -3.73758e-20)
(9.47334 0.463759 2.16611e-20)
(6.0625 5.7527 0)
(6.29406 5.51727 -1.80355e-19)
(6.51521 5.27321 -4.32877e-19)
(6.72645 5.02081 6.21573e-19)
(6.92764 4.76014 -4.72783e-19)
(7.11836 4.49138 4.58067e-19)
(7.29828 4.2149 2.96502e-19)
(7.46704 3.93109 -7.3556e-19)
(7.62433 3.64036 2.33198e-19)
(7.76982 3.34316 4.53364e-19)
(7.90321 3.03994 2.16008e-19)
(8.02423 2.73122 2.19507e-19)
(8.13262 2.41749 -2.55342e-19)
(8.22816 2.09929 3.56566e-19)
(8.31068 1.77715 -5.48428e-19)
(8.38 1.45162 1.30848e-19)
(8.43601 1.12322 -1.17465e-19)
(8.4786 0.792503 0)
(8.50765 0.459817 1.11728e-20)
(8.52297 0.125845 0)
(5.29577 5.0327 -2.47313e-19)
(5.50482 4.83438 1.78292e-19)
(5.70555 4.62739 2.63208e-19)
(5.89785 4.41209 8.44689e-20)
(6.0815 4.18877 3.76272e-19)
(6.25619 3.95776 7.7651e-21)
(6.42159 3.71938 -1.85899e-19)
(6.57735 3.47399 -5.50313e-19)
(6.72316 3.22193 5.25379e-19)
(6.85869 2.96361 -5.68584e-19)
(6.98363 2.69941 -1.9335e-19)
(7.0977 2.42976 -3.8113e-19)
(7.20062 2.15512 0)
(7.29216 1.87595 0)
(7.37208 1.59273 0)
(7.44021 1.30594 -9.98155e-20)
(7.49636 1.01606 1.14823e-19)
(7.54038 0.723609 1.01113e-19)
(7.57213 0.429011 3.79586e-21)
(7.59124 0.132876 2.58662e-20)
(4.60015 4.34378 2.77815e-19)
(4.78675 4.1779 -2.06542e-19)
(4.96678 4.00395 -7.23336e-20)
(5.13987 3.82219 -7.28466e-20)
(5.30571 3.63293 5.75707e-19)
(5.46401 3.43644 -2.75493e-20)
(5.61443 3.23302 -2.28874e-21)
(5.75665 3.02295 -3.96745e-19)
(5.89032 2.80653 2.57382e-19)
(6.01515 2.58409 0)
(6.13082 2.356 1.58846e-19)
(6.23704 2.12261 1.62049e-19)
(6.33354 1.88431 0)
(6.42005 1.64152 0)
(6.49634 1.39465 0)
(6.5622 1.14413 0)
(6.61744 0.890418 -9.03451e-21)
(6.66185 0.633966 7.73439e-20)
(6.69534 0.375232 -3.52163e-20)
(6.71757 0.11474 0)
(3.98514 3.71082 1.7052e-19)
(4.15068 3.57314 0)
(4.31101 3.4281 -4.76323e-19)
(4.46569 3.27587 -1.74032e-19)
(4.6144 3.11669 -1.99026e-19)
(4.75681 2.95079 -2.31066e-19)
(4.89262 2.77839 9.9908e-20)
(5.02147 2.59974 -1.15887e-19)
(5.14306 2.4151 2.76194e-19)
(5.25707 2.22475 -8.84232e-20)
(5.3632 2.02899 0)
(5.46115 1.82814 0)
(5.55065 1.62254 0)
(5.63145 1.41254 0)
(5.70329 1.19852 -1.58506e-19)
(5.76595 0.98087 5.72305e-20)
(5.81923 0.75998 -6.73694e-20)
(5.86293 0.536269 0)
(5.89693 0.310162 3.47317e-20)
(5.92087 0.0820965 0)
(3.44802 3.15267 1.00812e-19)
(3.59474 3.03939 -1.12376e-20)
(3.73731 2.91938 2.44858e-19)
(3.87531 2.79276 1.26167e-19)
(4.0084 2.65972 0)
(4.13627 2.52043 -1.50577e-19)
(4.25859 2.37508 1.84303e-20)
(4.37504 2.22387 -1.56042e-19)
(4.48531 2.06703 1.88824e-19)
(4.58909 1.9048 1.01203e-20)
(4.68608 1.73744 6.89845e-21)
(4.77599 1.56521 -8.20639e-20)
(4.85856 1.38843 1.56918e-19)
(4.93353 1.20741 0)
(5.00066 1.02247 2.06279e-20)
(5.05972 0.833962 8.59997e-20)
(5.1105 0.64225 9.47123e-22)
(5.15282 0.447705 -3.99471e-21)
(5.18652 0.250717 0)
(5.21131 0.0516814 -5.49078e-21)
(2.99099 2.67094 0)
(3.12121 2.57829 -1.14954e-20)
(3.24812 2.47947 5.7205e-21)
(3.37131 2.37454 -1.82523e-19)
(3.49045 2.26367 0)
(3.60523 2.14698 9.90217e-20)
(3.71533 2.02464 1.22513e-19)
(3.82045 1.89683 -3.36469e-19)
(3.92026 1.76373 -1.84922e-20)
(4.01448 1.62554 -1.0538e-19)
(4.10281 1.48251 6.90364e-20)
(4.18499 1.33487 -5.7157e-20)
(4.26075 1.1829 -7.37067e-20)
(4.32984 1.02686 0)
(4.39203 0.867063 4.28126e-20)
(4.4471 0.703819 -4.81256e-21)
(4.49485 0.537456 -3.68808e-20)
(4.53508 0.368314 -4.84637e-21)
(4.56767 0.196752 -9.59532e-21)
(4.59232 0.0231316 1.94281e-20)
(2.61142 2.26295 0)
(2.72737 2.18737 5.55056e-20)
(2.84064 2.10607 5.22825e-21)
(2.95085 2.01911 -6.07329e-20)
(3.05768 1.92662 0)
(3.16083 1.82871 7.58856e-20)
(3.25998 1.72553 -6.56629e-20)
(3.35483 1.61722 -9.10317e-20)
(3.44508 1.50395 1.64947e-19)
(3.53046 1.38591 1.03704e-19)
(3.61068 1.2633 0)
(3.68548 1.13635 5.09357e-20)
(3.75461 1.0053 -1.9172e-21)
(3.81784 0.870403 3.54923e-21)
(3.87494 0.731933 0)
(3.92571 0.590177 -5.29296e-20)
(3.96995 0.445439 -2.99143e-20)
(4.00749 0.298031 4.25021e-20)
(4.03818 0.148284 2.95627e-20)
(4.0618 -0.00347017 -4.3558e-21)
(2.30275 1.92347 0)
(2.40647 1.86168 -3.32571e-20)
(2.50798 1.79457 0)
(2.60693 1.7222 -5.01309e-20)
(2.70301 1.64465 9.72146e-20)
(2.79591 1.56205 -1.1082e-19)
(2.88534 1.47451 1.92344e-19)
(2.97099 1.38218 -1.97635e-19)
(3.05259 1.28519 -1.42383e-19)
(3.12986 1.18373 -1.06135e-19)
(3.20254 1.07798 3.80634e-20)
(3.27039 0.968154 -8.70201e-20)
(3.33316 0.854475 2.36194e-21)
(3.39064 0.73718 8.99e-20)
(3.44262 0.616526 -2.33554e-20)
(3.48891 0.49278 9.94931e-20)
(3.52932 0.366225 -4.88153e-20)
(3.5637 0.237152 2.05916e-20)
(3.59191 0.105869 -1.40267e-20)
(3.61376 -0.0273165 0)
(2.05649 1.64518 0)
(2.14978 1.59432 6.27136e-20)
(2.24122 1.53848 3.29666e-20)
(2.33047 1.47771 -3.44324e-20)
(2.41722 1.41211 -8.32909e-20)
(2.50116 1.34178 1.38971e-19)
(2.58201 1.26682 4.05708e-21)
(2.65947 1.18736 -4.74181e-20)
(2.73329 1.10354 1.18276e-19)
(2.80319 1.01553 6.69332e-20)