/*--------------------------------*- C++ -*----------------------------------*\
| =========                 |                                                 |
| \\      /  F ield         | OpenFOAM: The Open Source CFD Toolbox           |
|  \\    /   O peration     | Version:  v1912                                 |
|   \\  /    A nd           | Website:  www.openfoam.com                      |
|    \\/     M anipulation  |                                                 |
\*---------------------------------------------------------------------------*/
FoamFile
{
    version     2.0;
    format      ascii;
    class       surfaceScalarField;
    location    "18.5";
    object      phi;
}
// * * * * * * * * * * * * * * * * * * * * * * * * * * * * * * * * * * * * * //

dimensions      [0 3 -1 0 0 0 0];
oriented        oriented;


internalField   nonuniform List<scalar> 
18940
(
0.000328693
-0.234895
0.234566
0.0012733
-0.217244
0.216299
0.0026681
-0.205721
0.204326
0.00435284
-0.197752
0.196068
0.00620602
-0.191715
0.189862
0.00813316
-0.186604
0.184677
0.0100659
-0.181864
0.179931
0.0119584
-0.177218
0.175325
0.0137831
-0.17255
0.170725
0.0155259
-0.167834
0.166091
0.0171827
-0.163089
0.161433
0.0187558
-0.158357
0.156784
0.020252
-0.153681
0.152185
0.0216804
-0.149103
0.147674
0.0230517
-0.144654
0.143283
0.0243768
-0.140357
0.139032
0.0256665
-0.136222
0.134932
0.0269308
-0.132244
0.130979
0.0281773
-0.128403
0.127156
-0.12466
0.123426
0.0294108
0.000351487
-0.235246
0.00131562
-0.218208
0.00272093
-0.207126
0.00441096
-0.199442
0.00626064
-0.193565
0.00817546
-0.188519
0.0100881
-0.183777
0.0119544
-0.179084
0.0137483
-0.174344
0.0154573
-0.169543
0.0170788
-0.164711
0.0186162
-0.159894
0.0200772
-0.155142
0.0214717
-0.150497
0.0228105
-0.145993
0.0241049
-0.141652
0.0253661
-0.137483
0.0266044
-0.133482
0.0278279
-0.129626
-0.125874
0.0290421
0.000372417
-0.235619
0.00135246
-0.219188
0.00276675
-0.208541
0.00445864
-0.201134
0.0063015
-0.195408
0.00820066
-0.190418
0.01009
-0.185666
0.0119268
-0.180921
0.0136868
-0.176104
0.0153594
-0.171215
0.0169431
-0.166294
0.0184428
-0.161394
0.0198669
-0.156566
0.0212257
-0.151856
0.0225305
-0.147298
0.023793
-0.142914
0.0250243
-0.138714
0.0262352
-0.134693
0.0274344
-0.130825
-0.127067
0.028628
0.000385858
-0.236005
0.00138079
-0.220183
0.0028036
-0.209964
0.00449511
-0.202826
0.0063281
-0.197241
0.00820834
-0.192298
0.010071
-0.187529
0.0118753
-0.182725
0.0135987
-0.177827
0.0152323
-0.172849
0.0167762
-0.167838
0.0182362
-0.162854
0.0196216
-0.157952
0.0209434
-0.153178
0.022213
-0.148567
0.0234422
-0.144143
0.0246426
-0.139915
0.025825
-0.135875
0.0269987
-0.131999
-0.12824
0.0281709
0.000396788
-0.236401
0.00140404
-0.22119
0.0028328
-0.211392
0.00452099
-0.204514
0.00634084
-0.199061
0.00819885
-0.194156
0.0100317
-0.189362
0.0118004
-0.184494
0.0134846
-0.179511
0.0150768
-0.174441
0.0165787
-0.16934
0.0179973
-0.164273
0.0193426
-0.159297
0.0206259
-0.154461
0.0218591
-0.1498
0.0230539
-0.145338
0.0242222
-0.141083
0.025375
-0.137028
0.0265225
-0.133146
-0.12939
0.0276725
0.000405631
-0.236807
0.0014226
-0.222207
0.00285458
-0.212824
0.00453646
-0.206196
0.00633995
-0.200864
0.00817249
-0.195989
0.00997241
-0.191161
0.0117027
-0.186224
0.013345
-0.181154
0.0148936
-0.17599
0.0163516
-0.170798
0.017727
-0.165648
0.0190307
-0.160601
0.0202742
-0.155705
0.0214697
-0.150996
0.0226291
-0.146498
0.0237641
-0.142218
0.0248864
-0.13815
0.0260066
-0.134267
-0.130517
0.0271336
0.000412961
-0.23722
0.00143717
-0.223231
0.0028695
-0.214257
0.00454195
-0.207868
0.00632587
-0.202648
0.00812973
-0.197793
0.00989369
-0.192925
0.0115828
-0.187914
0.0131807
-0.182751
0.0146834
-0.177492
0.0160956
-0.17221
0.0174262
-0.166979
0.0186867
-0.161861
0.0198891
-0.156907
0.0210457
-0.152153
0.0221684
-0.14762
0.0232691
-0.143319
0.0243597
-0.139241
0.0254515
-0.135358
-0.13162
0.0265546
0.00041893
-0.237639
0.00144805
-0.22426
0.00287794
-0.215686
0.0045379
-0.209528
0.00629907
-0.204409
0.00807114
-0.199565
0.0097962
-0.19465
0.0114415
-0.189559
0.0129925
-0.184302
0.0144473
-0.178947
0.0158116
-0.173575
0.0170957
-0.168263
0.0183115
-0.163077
0.0194715
-0.158067
0.0205878
-0.153269
0.0216724
-0.148705
0.0227374
-0.144384
0.0237949
-0.140298
0.0248569
-0.136421
-0.132698
0.0259349
0.000423645
-0.238062
0.00145552
-0.225292
0.0028803
-0.217111
0.0045248
-0.211173
0.00626015
-0.206145
0.00799744
-0.201302
0.00968076
-0.196334
0.0112796
-0.191158
0.0127814
-0.185804
0.0141861
-0.180352
0.0155007
-0.17489
0.0167365
-0.169499
0.017906
-0.164246
0.0190219
-0.159183
0.0200964
-0.154343
0.0211414
-0.14975
0.022169
-0.145411
0.0231916
-0.141321
0.0242222
-0.137451
-0.133749
0.0252735
0.000427175
-0.23849
0.00145984
-0.226325
0.00287702
-0.218528
0.00450324
-0.212799
0.00620983
-0.207851
0.00790946
-0.203002
0.00954835
-0.197973
0.0110982
-0.192707
0.0125486
-0.187255
0.013901
-0.181704
0.0151641
-0.176153
0.0163497
-0.170684
0.017471
-0.165368
0.018541
-0.160253
0.0195719
-0.155374
0.0205754
-0.150753
0.0215635
-0.146399
0.022549
-0.142307
0.0235459
-0.138448
-0.134772
0.0245684
0.000429623
-0.238919
0.00146134
-0.227357
0.00286864
-0.219936
0.00447391
-0.214404
0.00614897
-0.209526
0.00780822
-0.204661
0.00940013
-0.199565
0.0108986
-0.194206
0.0122954
-0.188651
0.0135935
-0.183003
0.0148029
-0.177362
0.0159364
-0.171818
0.0170076
-0.166439
0.0180297
-0.161275
0.0190148
-0.156359
0.0199744
-0.151713
0.0209204
-0.147345
0.0218659
-0.143252
0.0228259
-0.139408
-0.135762
0.0238168
0.000431138
-0.23935
0.00146045
-0.228386
0.0028558
-0.221331
0.00443764
-0.215986
0.00607856
-0.211167
0.00769492
-0.206277
0.00923746
-0.201107
0.0106824
-0.195651
0.0120234
-0.189992
0.0132653
-0.184244
0.014419
-0.178516
0.0154983
-0.172897
0.0165172
-0.167458
0.017489
-0.162247
0.0184257
-0.157296
0.0193385
-0.152626
0.0202391
-0.148246
0.0211409
-0.144154
0.0220602
-0.140327
-0.136718
0.0230155
0.000431991
-0.239782
0.00145776
-0.229412
0.00283929
-0.222713
0.00439542
-0.217542
0.00599982
-0.212772
0.00757096
-0.207848
0.00906198
-0.202598
0.0104513
-0.19704
0.0117347
-0.191276
0.0129184
-0.185428
0.0140144
-0.179612
0.0150373
-0.17392
0.0160015
-0.168422
0.0169202
-0.163165
0.0178055
-0.158181
0.0186681
-0.153489
0.0195194
-0.149097
0.0203729
-0.145007
0.0212463
-0.141201
-0.137632
0.0221606
0.000432653
-0.240215
0.0014541
-0.230433
0.00282012
-0.224079
0.00434841
-0.21907
0.0059141
-0.214337
0.00743796
-0.209372
0.00887554
-0.204036
0.0102076
-0.198372
0.0114315
-0.1925
0.0125553
-0.186552
0.0135918
-0.180648
0.014556
-0.174884
0.0154628
-0.169329
0.0163254
-0.164028
0.0171555
-0.159011
0.0179636
-0.154297
0.0187605
-0.149894
0.0195597
-0.145807
0.0203801
-0.142021
-0.138498
0.0212458
0.000433916
-0.240649
0.00145059
-0.23145
0.00279945
-0.225427
0.00429788
-0.220569
0.0058229
-0.215862
0.00729769
-0.210847
0.00868025
-0.205418
0.0099535
-0.199645
0.0111168
-0.193663
0.0121791
-0.187614
0.0131544
-0.181624
0.0140581
-0.175788
0.0149048
-0.170175
0.0157078
-0.164831
0.0164784
-0.159782
0.0172265
-0.155045
0.0179623
-0.15063
0.0186989
-0.146543
0.0194559
-0.142778
-0.139305
0.0202631
0.000436916
-0.241086
0.00144853
-0.232462
0.00277843
-0.226757
0.00424512
-0.222036
0.00572779
-0.217345
0.00715206
-0.212271
0.00847841
-0.206745
0.00969192
-0.200859
0.0107936
-0.194765
0.0117937
-0.188614
0.0127067
-0.182537
0.0135481
-0.176629
0.0143327
-0.17096
0.015073
-0.165571
0.0157799
-0.160489
0.0164622
-0.155727
0.0171289
-0.151297
0.0177922
-0.147206
0.0184729
-0.143459
-0.140042
0.0192095
0.000443028
-0.241529
0.00144919
-0.233468
0.00275832
-0.228067
0.0041916
-0.223469
0.0056305
-0.218784
0.00700313
-0.213644
0.00827247
-0.208014
0.00942575
-0.202012
0.0104656
-0.195805
0.0114032
-0.189552
0.0122534
-0.183387
0.0130318
-0.177408
0.0137527
-0.171681
0.014428
-0.166247
0.0150677
-0.161128
0.0156795
-0.156339
0.0162708
-0.151888
0.0168518
-0.147787
0.0174436
-0.144051
-0.140684
0.0180861
0.000454578
-0.241984
0.00145515
-0.234468
0.00274153
-0.229353
0.00413935
-0.224867
0.00553289
-0.220177
0.00685287
-0.214964
0.0080648
-0.209226
0.009158
-0.203105
0.0101365
-0.196783
0.0110123
-0.190428
0.0118004
-0.184175
0.0125158
-0.178123
0.0131719
-0.172337
0.0137798
-0.166855
0.0143479
-0.161697
0.0148832
-0.156874
0.0153918
-0.152397
0.0158803
-0.148276
0.0163625
-0.144533
-0.141186
0.0168648
0.000479155
-0.242463
0.00147367
-0.235463
0.00273209
-0.230611
0.00409018
-0.226225
0.00543607
-0.221523
0.00670255
-0.21623
0.00785725
-0.210381
0.0088914
-0.20414
0.00981036
-0.197702
0.0106267
-0.191244
0.0113552
-0.184903
0.01201
-0.178778
0.0126028
-0.17293
0.013142
-0.167394
0.013633
-0.162188
0.0140789
-0.15732
0.0144814
-0.152799
0.014839
-0.148634
0.0151567
-0.14485
-0.141528
0.0154979
0.000536841
-0.243
0.00151319
-0.236439
0.00272964
-0.231828
0.00404279
-0.227538
0.00533943
-0.22282
0.00655242
-0.217443
0.00765094
-0.211479
0.00862801
-0.205117
0.00949041
-0.198565
0.0102515
-0.192005
0.0109261
-0.185578
0.0115277
-0.179379
0.0120661
-0.173468
0.0125468
-0.167875
0.0129693
-0.16261
0.0133266
-0.157677
0.0136024
-0.153075
0.0137709
-0.148802
0.0138246
-0.144904
-0.141682
0.0139792
0.250272
0.000397749
-0.25067
0.249901
0.000370951
0.249538
0.000363161
0.249175
0.00036287
0.24881
0.000365488
0.24844
0.00036954
0.248066
0.00037432
0.247687
0.000379249
0.247303
0.00038393
0.246915
0.000388158
0.246523
0.000391835
0.246128
0.00039493
0.245731
0.00039742
0.245331
0.00039928
0.244931
0.000400382
0.24453
0.000400515
0.244132
0.000398623
0.243738
0.000394152
0.24336
0.000377907
0.00036018
0.251456
0.000976737
-0.252035
0.250844
0.000983759
0.250204
0.00100286
0.249539
0.00102801
0.248849
0.00105471
0.248138
0.00108143
0.247404
0.00110769
0.24665
0.00113301
0.245877
0.00115696
0.245086
0.00117926
0.244278
0.00119981
0.243455
0.00121856
0.242617
0.0012355
0.241765
0.00125061
0.240902
0.00126373
0.240028
0.00127465
0.239144
0.00128224
0.238252
0.00128623
0.23735
0.00128026
0.00127087
0.249652
0.00151922
-0.250195
0.249047
0.00158904
0.248391
0.00165901
0.247689
0.00173023
0.246943
0.00180041
0.246156
0.00186818
0.245331
0.00193319
0.244469
0.00199522
0.243572
0.002054
0.242642
0.00210936
0.24168
0.00216124
0.240689
0.00220966
0.23967
0.00225467
0.238624
0.00229638
0.237553
0.00233476
0.236458
0.00236982
0.235339
0.00240104
0.234197
0.00242861
0.233027
0.00245016
0.00246987
0.245158
0.00194072
-0.245579
0.244669
0.00207756
0.244119
0.0022097
0.24351
0.00233876
0.242846
0.00246422
0.242129
0.00258512
0.241361
0.00270111
0.240545
0.00281203
0.239681
0.0029177
0.238772
0.00301803
0.23782
0.00311301
0.236827
0.00320274
0.235795
0.0032874
0.234724
0.00336723
0.233616
0.00344246
0.232472
0.00351342
0.231293
0.00358017
0.230079
0.00364331
0.228827
0.00370212
0.00375854
0.238672
0.00220705
-0.238938
0.238337
0.00241227
0.237936
0.00261068
0.237471
0.00280326
0.236945
0.00299009
0.23636
0.00317058
0.235717
0.00334438
0.235018
0.00351127
0.234264
0.00367112
0.233458
0.00382385
0.232602
0.00396951
0.231696
0.00410824
0.230743
0.00424034
0.229744
0.00436622
0.2287
0.00448636
0.227612
0.00460142
0.226481
0.00471193
0.225305
0.00481882
0.224085
0.0049222
0.00502368
0.230937
0.00232588
-0.231056
0.23075
0.00259882
0.230497
0.00286381
0.230179
0.00312126
0.229798
0.00337133
0.229355
0.00361358
0.228852
0.00384767
0.22829
0.00407334
0.22767
0.00429043
0.226995
0.00449886
0.226266
0.00469869
0.225484
0.00489013
0.224651
0.00507355
0.223768
0.00524953
0.222835
0.00541881
0.221854
0.00558233
0.220825
0.00574109
0.219748
0.0058964
0.218621
0.00604907
0.00620086
0.222613
0.00232568
-0.222613
0.222548
0.00266393
0.222419
0.00299352
0.222225
0.00331446
0.22197
0.00362675
0.221653
0.00393002
0.221277
0.00422392
0.220842
0.00450812
0.22035
0.00478242
0.219803
0.00504673
0.2192
0.00530109
0.218545
0.00554574
0.217837
0.00578114
0.217079
0.00600799
0.21627
0.00622727
0.215412
0.00644027
0.214505
0.00664844
0.213548
0.00685358
0.21254
0.00705716
0.00726123
0.214197
0.00224031
-0.214111
0.21422
0.00264058
0.214182
0.0030316
0.214083
0.00341315
0.213925
0.00378506
0.213708
0.00414695
0.213434
0.0044984
0.213103
0.00483905
0.212717
0.00516862
0.212276
0.00548697
0.211783
0.00579412
0.211239
0.0060903
0.210644
0.00637601
0.21
0.00665211
0.209307
0.00691978
0.208567
0.00718066
0.207779
0.00743673
0.206942
0.00769037
0.206055
0.00794383
0.00819966
0.206014
0.0021011
-0.205875
0.206095
0.00255983
0.206118
0.00300877
0.206083
0.00344754
0.205993
0.00387583
0.205846
0.00429319
0.205646
0.00469914
0.205391
0.00509324
0.205085
0.00547514
0.204727
0.00584463
0.20432
0.00620165
0.203864
0.00654641
0.20336
0.00687942
0.202811
0.00720161
0.202216
0.00751439
0.201577
0.00781975
0.200893
0.00812026
0.200165
0.00841902
0.199389
0.00871928
0.00902443
0.198255
0.00193354
-0.198088
0.198368
0.00244738
0.198425
0.00295088
0.198429
0.00344354
0.19838
0.00392493
0.198279
0.00439452
0.198126
0.00485175
0.197924
0.00529608
0.197672
0.00572708
0.197372
0.00614441
0.197026
0.00654795
0.196634
0.00693779
0.196199
0.00731441
0.195722
0.00767875
0.195204
0.00803242
0.194646
0.00837769
0.194048
0.00871787
0.193411
0.00905686
0.192731
0.00939936
0.00974993
0.191009
0.00175655
-0.190832
0.191134
0.00232256
0.191207
0.00287769
0.19123
0.00342129
0.191202
0.00395283
0.191124
0.00447168
0.190999
0.00497719
0.190826
0.00546872
0.190608
0.00594572
0.190344
0.00640772
0.190038
0.00685444
0.18969
0.00728583
0.189302
0.00770227
0.188876
0.00810458
0.188414
0.0084945
0.187917
0.00887451
0.187386
0.00924873
0.186821
0.00962194
0.18622
0.0100009
0.0103918
0.1843
0.00158302
-0.184126
0.184423
0.00219886
0.184498
0.00280323
0.184524
0.00339533
0.184502
0.00397453
0.184434
0.00454012
0.184319
0.00509135
0.184161
0.00562745
0.183959
0.00614773
0.183715
0.00665157
0.183431
0.00713849
0.183108
0.00760822
0.18275
0.00806091
0.182357
0.00849715
0.181933
0.00891869
0.18148
0.00932795
0.180998
0.00973008
0.18049
0.0101305
0.179952
0.0105391
0.0109639
0.178109
0.00142114
-0.177947
0.178223
0.00208504
0.178289
0.00273675
0.178309
0.0033754
0.178283
0.00400028
0.178213
0.00461058
0.178099
0.00520543
0.177942
0.00578395
0.177745
0.0063453
0.177508
0.00688864
0.177233
0.00741327
0.176923
0.00791859
0.176579
0.00840444
0.176205
0.00887095
0.175804
0.00931975
0.175379
0.00975274
0.174933
0.0101763
0.174468
0.0105957
0.173981
0.0110262
0.0114767
0.172398
0.00127572
-0.172253
0.172497
0.00198626
0.17255
0.00268383
0.172558
0.00336753
0.172521
0.00403655
0.172442
0.00468995
0.172321
0.00532679
0.172159
0.00594604
0.171957
0.0065467
0.171718
0.00712771
0.171443
0.00768808
0.171135
0.00822682
0.170796
0.00874333
0.17043
0.00923704
0.170041
0.0097092
0.169633
0.0101605
0.16921
0.0105989
0.168778
0.0110276
0.168333
0.011471
0.0119357
0.167118
0.00114914
-0.166991
0.167199
0.00190524
0.167235
0.0026475
0.167228
0.00337505
0.167177
0.00408695
0.167085
0.0047822
0.166952
0.00545973
0.16678
0.00611839
0.16657
0.006757
0.166323
0.00737429
0.166042
0.00796892
0.165729
0.00853947
0.165388
0.00908476
0.165022
0.00960326
0.164635
0.0100956
0.164236
0.0105602
0.163828
0.0110069
0.163422
0.0114331
0.163014
0.0118791
0.0123398
0.162217
0.00104227
-0.16211
0.16228
0.0018429
0.162298
0.00262887
0.162274
0.00339924
0.162208
0.00415299
0.162101
0.00488902
0.161955
0.00560616
0.16177
0.00630316
0.161548
0.00697865
0.161291
0.00763113
0.161001
0.00825894
0.160681
0.00886018
0.160333
0.00943297
0.159961
0.00997461
0.159572
0.0104847
0.159174
0.0109583
0.158774
0.0114071
0.15839
0.0118168
0.158015
0.0122538
0.0126776
0.157646
0.000954785
-0.157559
0.15769
0.00179889
0.157691
0.00262764
0.157651
0.00343987
0.157569
0.00423449
0.157448
0.00501029
0.157288
0.00576603
0.157091
0.00650036
0.156858
0.00721175
0.156591
0.00789849
0.156291
0.00855862
0.155961
0.00918974
0.155605
0.00978928
0.155226
0.0103532
0.154831
0.0108796
0.154431
0.0113589
0.154033
0.0118044
0.153668
0.0121819
0.153322
0.0125999
0.0129251
0.15336
0.000884628
-0.15329
0.153387
0.00177178
0.153373
0.00264226
0.153317
0.00349528
0.153222
0.00432963
0.153088
0.00514406
0.152917
0.00593725
0.15271
0.00670777
0.152468
0.00745396
0.152192
0.00817394
0.151885
0.00886548
0.151549
0.0095258
0.151187
0.0101516
0.150802
0.0107377
0.150402
0.0112802
0.149997
0.0117639
0.149599
0.0122019
0.149254
0.0125275
0.148931
0.0129226
0.013054
0.149318
0.000830356
-0.149264
0.149331
0.00175889
0.149304
0.00266968
0.149237
0.00356204
0.149132
0.00443462
0.14899
0.0052861
0.148812
0.00611516
0.1486
0.00692029
0.148354
0.00769975
0.148076
0.00845153
0.147769
0.00917322
0.147433
0.00986172
0.147071
0.0105134
0.146687
0.0111216
0.146286
0.0116816
0.145878
0.0121711
0.145478
0.0126023
0.145152
0.0128536
0.144868
0.0132061
0.0130182
0.145483
-0.145443
0.000790025
0.145486
0.00175644
0.145449
0.00270569
0.145376
0.00363528
0.145267
0.0045438
0.145123
0.00543
0.144946
0.00629257
0.144736
0.00712995
0.144496
0.00794034
0.144225
0.00872164
0.143927
0.00947141
0.143603
0.0101863
0.143253
0.0108627
0.142882
0.011493
0.142491
0.0120724
0.142089
0.0125727
0.141683
0.0130087
0.141343
0.0131938
0.141095
0.0134544
0.0124305
0.253697
7.28262e-05
-0.25377
0.253663
3.4142e-05
0.253634
2.91492e-05
0.253597
3.70198e-05
0.253546
5.05095e-05
0.253479
6.74078e-05
0.253392
8.64316e-05
0.253286
0.000106481
0.253159
0.000126757
0.253012
0.000146787
0.252846
0.000166145
0.252662
0.000184456
0.25246
0.000201906
0.252241
0.000219236
0.252004
0.000236154
0.251753
0.000251042
0.25149
0.000263249
0.251217
0.000272784
0.250944
0.000273865
0.000273421
0.254744
-0.000231252
-0.25444
0.25499
-0.000211217
0.255192
-0.000173841
0.255353
-0.000123501
0.25547
-6.66626e-05
0.255544
-6.03058e-06
0.255573
5.72547e-05
0.255557
0.000122098
0.255496
0.000187653
0.25539
0.000253201
0.255239
0.000317356
0.255044
0.000379121
0.254808
0.000437699
0.254531
0.000496594
0.254209
0.000557977
0.253847
0.000613307
0.253446
0.000663698
0.25301
0.000709323
0.252538
0.000745451
0.000776221
0.249755
-0.000862452
-0.249123
0.250315
-0.000771826
0.250813
-0.000671531
0.251251
-0.000561536
0.25163
-0.000445251
0.251949
-0.000324979
0.252208
-0.000201843
0.252407
-7.7377e-05
0.252547
4.80747e-05
0.252624
0.000175716
0.252641
0.000300262
0.252599
0.000421171
0.252496
0.000540785
0.252334
0.000659068
0.252117
0.000775168
0.251843
0.000886487
0.251515
0.000992228
0.251132
0.00109241
0.250692
0.00118515
0.00127328
0.241263
-0.00175808
-0.240368
0.242089
-0.00159779
0.242848
-0.00143043
0.243542
-0.00125517
0.24417
-0.00107351
0.244732
-0.000887273
0.245228
-0.000697797
0.245657
-0.000506323
0.246019
-0.000313561
0.246312
-0.000117333
0.246535
7.73557e-05
0.246694
0.000262531
0.246784
0.000450524
0.246807
0.000635497
0.246766
0.000816797
0.246659
0.000993552
0.246486
0.00116473
0.246249
0.00132992
0.245946
0.00148812
0.00163982
0.231141
-0.0028421
-0.230057
0.23216
-0.00261681
0.233113
-0.00238421
0.234002
-0.00214381
0.234825
-0.00189637
0.235581
-0.00164337
0.236269
-0.00138619
0.236889
-0.00112602
0.237439
-0.000863829
0.237922
-0.000600346
0.238338
-0.000338221
0.23868
-7.9954e-05
0.238954
0.000177172
0.239158
0.000431082
0.239293
0.00068165
0.239359
0.00092741
0.239357
0.00116752
0.239285
0.0014013
0.239145
0.00162796
0.00184738
0.220594
-0.00404619
-0.21939
0.221738
-0.00376073
0.22282
-0.0034664
0.223839
-0.00316329
0.224795
-0.00285208
0.225686
-0.00253415
0.226511
-0.002211
0.227269
-0.00188408
0.22796
-0.00155476
0.228584
-0.00122437
0.22914
-0.000894341
0.229626
-0.000566103
0.230044
-0.000240445
0.230394
8.05098e-05
0.230676
0.000399473
0.230889
0.000714731
0.231033
0.00102341
0.231109
0.00132555
0.231116
0.00162051
0.001908
0.210358
-0.00531605
-0.209088
0.211572
-0.00497453
0.212728
-0.00462203
0.213823
-0.00425916
0.214858
-0.00388682
0.215831
-0.00350656
0.21674
-0.0031201
0.217585
-0.00272914
0.218365
-0.00233526
0.219081
-0.00193992
0.219731
-0.00154443
0.220315
-0.00115025
0.220833
-0.000758164
0.221282
-0.000368898
0.221673
8.94922e-06
0.221993
0.000394431
0.222247
0.000769387
0.222435
0.00113751
0.222557
0.00149849
0.00185181
0.20082
-0.00661227
-0.199524
0.202063
-0.00621795
0.203252
-0.00581029
0.204383
-0.00539024
0.205455
-0.00495915
0.206467
-0.00451891
0.207419
-0.00407159
0.208309
-0.00361913
0.209137
-0.00316332
0.209903
-0.00270574
0.210606
-0.00224782
0.211247
-0.00179095
0.211825
-0.00133621
0.212341
-0.000884625
0.212787
-0.000437623
0.213182
-6.12371e-07
0.213508
0.00044357
0.213772
0.000873698
0.213973
0.00129738
0.00171334
0.19213
-0.00790859
-0.190834
0.193376
-0.007464
0.194569
-0.00700341
0.195707
-0.00652806
0.196788
-0.00603993
0.197811
-0.0055415
0.198774
-0.00503523
0.199679
-0.00452337
0.200523
-0.00400792
0.201308
-0.00349062
0.202033
-0.002973
0.202699
-0.00245638
0.203304
-0.00194196
0.20385
-0.00143069
0.204337
-0.000923945
0.204759
-0.000422897
0.205129
7.31247e-05
0.205437
0.000566185
0.205686
0.00104887
0.00152395
0.184299
-0.00918915
-0.183019
0.185531
-0.00869628
0.186712
-0.00818428
0.187839
-0.00765471
0.188909
-0.00711051
0.189923
-0.00655497
0.190879
-0.00599104
0.191777
-0.00542131
0.192617
-0.00484803
0.193399
-0.00427306
0.194124
-0.00369795
0.194792
-0.00312402
0.195402
-0.00255245
0.195956
-0.0019842
0.196452
-0.00142033
0.196891
-0.000861721
0.197273
-0.000309196
0.197602
0.000237791
0.197873
0.000778017
0.00130897
0.177261
-0.0104457
-0.176005
0.178471
-0.00990632
0.179631
-0.00934378
0.180736
-0.00876026
0.181786
-0.00816024
0.182779
-0.00754802
0.183715
-0.00692712
0.184594
-0.00630053
0.185417
-0.00567072
0.186184
-0.00503962
0.186894
-0.00440878
0.18755
-0.00377949
0.18815
-0.00315284
0.188696
-0.00252978
0.189187
-0.00191122
0.189623
-0.00129802
0.190005
-0.000690781
0.190335
-9.20643e-05
0.19061
0.000502463
0.00108678
0.170921
-0.0116753
-0.169691
0.172106
-0.0110914
0.17324
-0.0104785
0.174321
-0.00984049
0.175345
-0.00918422
0.176312
-0.00851517
0.177222
-0.00783747
0.178076
-0.00715455
0.178874
-0.00646906
0.179618
-0.00578296
0.180307
-0.00509773
0.180942
-0.00441454
0.181523
-0.00373442
0.182052
-0.00305826
0.182527
-0.00238688
0.182951
-0.00172114
0.183322
-0.00106184
0.18364
-0.000410405
0.183909
0.000233144
0.000869952
0.165175
-0.0128789
-0.163972
0.166337
-0.0122528
0.167447
-0.011589
0.168502
-0.0108951
0.169499
-0.0101815
0.170439
-0.00945487
0.171321
-0.00872004
0.172148
-0.00798089
0.172919
-0.00724019
0.173636
-0.00649981
0.174299
-0.00576111
0.17491
-0.00502511
0.175468
-0.00429272
0.175974
-0.00356472
0.176429
-0.00284192
0.176833
-0.00212513
0.177187
-0.00141497
0.177488
-0.000712265
0.177744
-2.21322e-05
0.000666502
0.159932
-0.0140602
-0.15875
0.161074
-0.0133954
0.162164
-0.0126788
0.163195
-0.0119265
0.164167
-0.0111536
0.165081
-0.0103679
0.165935
-0.00957501
0.166734
-0.00877925
0.167477
-0.00798341
0.168166
-0.00718915
0.168803
-0.00639758
0.169387
-0.00560954
0.16992
-0.00482575
0.170403
-0.00404689
0.170834
-0.00327368
0.171216
-0.0025069
0.171548
-0.0017473
0.171832
-0.000996102
0.172065
-0.000254934
0.00047892
0.155111
-0.0152256
-0.153946
0.156243
-0.0145267
0.157317
-0.0137534
0.158329
-0.0129387
0.159279
-0.0121033
0.160167
-0.0112558
0.160995
-0.0104031
0.161765
-0.00954986
0.162481
-0.00869862
0.163142
-0.00785064
0.163751
-0.00700668
0.164309
-0.00616724
0.164816
-0.0053328
0.165273
-0.00450389
0.16568
-0.00368116
0.166039
-0.00286532
0.166349
-0.0020572
0.166611
-0.00125779
0.166824
-0.000468222
0.00031131
0.150655
-0.0163875
-0.149493
0.151785
-0.0156566
0.15285
-0.014819
0.153847
-0.0139357
0.154776
-0.0130321
0.155639
-0.0121186
0.15644
-0.0112037
0.157182
-0.0102919
0.157868
-0.00938504
0.158501
-0.00848367
0.159082
-0.00758795
0.159613
-0.0066979
0.160094
-0.00581367
0.160526
-0.0049356
0.160909
-0.00406421
0.161243
-0.00320016
0.161531
-0.00234429
0.16177
-0.00149746
0.161963
-0.000660946
0.000163882
0.146518
-0.0175736
-0.145332
0.147661
-0.0167994
0.148723
-0.0158808
0.149706
-0.0149191
0.150612
-0.0139382
0.151447
-0.012953
0.152217
-0.0119736
0.152928
-0.0110029
0.153583
-0.0100408
0.154187
-0.00908709
0.15474
-0.00814083
0.155243
-0.00720141
0.155698
-0.00626854
0.156105
-0.00534236
0.156464
-0.00442329
0.156776
-0.00351194
0.15704
-0.00260915
0.157259
-0.00171584
0.157431
-0.000833005
3.60511e-05
0.142672
-0.0188455
-0.1414
0.143846
-0.0179741
0.144904
-0.0169381
0.145867
-0.0158828
0.146743
-0.0148135
0.147541
-0.0137514
0.148275
-0.0127072
0.148951
-0.011679
0.149574
-0.010664
0.150147
-0.00966007
0.150671
-0.00866531
0.151148
-0.00767825
0.151578
-0.00669822
0.151961
-0.00572517
0.152297
-0.00475948
0.152587
-0.00380179
0.15283
-0.00285297
0.153029
-0.00191411
0.153182
-0.000986389
-7.18912e-05
0.139126
-0.0202685
-0.137703
0.140327
-0.0191745
0.141361
-0.0179723
0.142284
-0.0168064
0.143114
-0.0156434
0.143868
-0.0145049
0.14456
-0.0133991
0.145199
-0.0123179
0.145789
-0.011254
0.146332
-0.0102032
0.146829
-0.00916256
0.147281
-0.00812986
0.147687
-0.00710422
0.148047
-0.00608558
0.148362
-0.00507438
0.148632
-0.00407135
0.148856
-0.00307745
0.149036
-0.00209391
0.149172
-0.00112225
-0.000164281
0.135936
-0.134577
-0.0216276
0.137049
-0.0202876
0.138045
-0.0189686
0.138897
-0.0176584
0.139667
-0.0164128
0.140374
-0.0152121
0.141025
-0.0140507
0.141629
-0.0129212
0.142188
-0.0118132
0.142704
-0.010719
0.143176
-0.00963464
0.143604
-0.00855792
0.143988
-0.00748796
0.144327
-0.00642484
0.144622
-0.0053692
0.144872
-0.00432194
0.145079
-0.00328412
0.145242
-0.0022569
0.145362
-0.00124193
-0.000245398
0.0289822
0.109835
-0.108436
-0.0303817
0.02756
0.112981
-0.111559
0.0261119
0.11627
-0.114822
0.0246344
0.119725
-0.118247
0.0231237
0.123376
-0.121865
0.0215767
0.127264
-0.125717
0.019991
0.131445
-0.129859
0.0183647
0.135994
-0.134368
0.0166968
0.141011
-0.139343
0.0149869
0.146617
-0.144908
0.0132365
0.152966
-0.151216
0.0114492
0.160232
-0.158444
0.00963294
0.168602
-0.166786
0.0078035
0.178254
-0.176424
0.00598895
0.189302
-0.187487
0.00423671
0.201714
-0.199962
0.00262232
0.215183
-0.213568
0.00126015
0.228914
-0.227552
0.000310768
0.241247
-0.240297
0.249238
-0.248927
0.0288461
0.111231
-0.0302418
0.0274277
0.1144
0.0259838
0.117714
0.0245105
0.121198
0.0230044
0.124882
0.0214622
0.128806
0.0198814
0.133026
0.01826
0.137616
0.0165967
0.142674
0.0148915
0.148323
0.0131458
0.154712
0.0113635
0.162014
0.00955316
0.170413
0.00773134
0.180076
0.00592723
0.191106
0.00418968
0.203452
0.00259565
0.216777
0.00125894
0.230251
0.000335397
0.24217
0.249573
0.028669
0.112621
-0.0300588
0.0272567
0.115812
0.025819
0.119152
0.0243523
0.122665
0.022853
0.126381
0.0213177
0.130341
0.0197439
0.1346
0.0181296
0.13923
0.0164733
0.14433
0.0147751
0.150021
0.0130364
0.156451
0.0112614
0.163789
0.00945942
0.172215
0.00764752
0.181888
0.0058559
0.192897
0.00413437
0.205174
0.0025604
0.218351
0.00124619
0.231565
0.000339387
0.243077
0.249913
0.0284524
0.114002
-0.029834
0.0270484
0.117216
0.0256191
0.120581
0.0241611
0.124123
0.0226705
0.127872
0.0211442
0.131868
0.0195795
0.136164
0.0179742
0.140836
0.0163271
0.145977
0.014638
0.15171
0.0129085
0.15818
0.0111432
0.165554
0.00935168
0.174006
0.00755179
0.183687
0.00577447
0.194675
0.00407022
0.206878
0.00251663
0.219904
0.0012243
0.232858
0.000335279
0.243966
0.250248
0.0281983
0.115374
-0.0295697
0.0268044
0.11861
0.0253855
0.122
0.0239379
0.12557
0.022458
0.129352
0.0209425
0.133383
0.0193888
0.137718
0.0177946
0.14243
0.0161585
0.147613
0.0144806
0.153388
0.0127624
0.159898
0.0110088
0.167308
0.0092299
0.175785
0.00744407
0.185473
0.00568299
0.196436
0.00399778
0.208563
0.00246603
0.221436
0.00119677
0.234127
0.00032733
0.244836
0.250575
0.0279089
0.116733
-0.0292687
0.0265268
0.119992
0.0251199
0.123407
0.0236844
0.127006
0.0222168
0.13082
0.0207137
0.134886
0.0191726
0.139259
0.0175912
0.144011
0.0159681
0.149236
0.0143032
0.155053
0.0125983
0.161603
0.0108585
0.169048
0.0090942
0.177549
0.00732452
0.187243
0.00558176
0.198178
0.00391761
0.210227
0.00240957
0.222944
0.00116495
0.235372
0.00031672
0.245684
0.250892
0.0275869
0.11808
-0.0289338
0.0262178
0.121361
0.0248241
0.124801
0.023402
0.128428
0.021948
0.132274
0.0204589
0.136375
0.0189319
0.140786
0.0173649
0.145578
0.0157563
0.150845
0.0141062
0.156703
0.0124165
0.163293
0.0106924
0.170772
0.00894483
0.179297
0.00719339
0.188994
0.00547106
0.199901
0.00383005
0.211868
0.00234763
0.224427
0.00112939
0.23659
0.000304147
0.246509
0.251196
0.0272348
0.119414
-0.0285682
0.0258795
0.122717
0.0244999
0.12618
0.0230922
0.129836
0.0216529
0.133713
0.0201788
0.137849
0.0186673
0.142298
0.0171161
0.14713
0.0155237
0.152437
0.0138901
0.158337
0.0122173
0.164966
0.0105109
0.172478
0.00878202
0.181026
0.00705091
0.190725
0.00535114
0.2016
0.00373536
0.213484
0.00228058
0.225881
0.00109061
0.23778
0.000290208
0.24731
0.251486
0.0268553
0.120733
-0.028175
0.0255141
0.124058
0.024149
0.127545
0.0227563
0.131228
0.0213324
0.135137
0.0198744
0.139307
0.0183795
0.143793
0.0168453
0.148664
0.0152705
0.154012
0.013655
0.159952
0.012001
0.16662
0.0103141
0.174165
0.00860596
0.182734
0.00689728
0.192434
0.00522223
0.203276
0.00363383
0.215072
0.00220877
0.227306
0.00104906
0.238939
0.000275313
0.248083
0.251762
0.026451
0.12204
-0.0277576
0.0251234
0.125385
0.0237728
0.128896
0.0223953
0.132606
0.0209874
0.136545
0.0195462
0.140749
0.0180688
0.14527
0.0165529
0.15018
0.0149971
0.155568
0.0134013
0.161548
0.0117677
0.168253
0.0101022
0.17583
0.00841682
0.184419
0.00673269
0.194118
0.00508455
0.204924
0.00352573
0.216631
0.00213254
0.2287
0.00100511
0.240067
0.000259704
0.248829
0.252021
0.0260238
0.123335
-0.0273189
0.0247089
0.1267
0.0233722
0.130233
0.0220098
0.133968
0.0206182
0.137936
0.0191943
0.142173
0.0177353
0.146729
0.0162389
0.151676
0.0147034
0.157103
0.0131289
0.163122
0.0115174
0.169865
0.0098753
0.177473
0.00821471
0.18608
0.00655731
0.195776
0.00493832
0.206543
0.00341133
0.218158
0.00205218
0.230059
0.000959017
0.24116
0.000243543
0.249544
0.252265
0.0255751
0.124621
-0.0268609
0.0242712
0.128004
0.0229474
0.131556
0.0215996
0.135316
0.0202244
0.139311
0.0188185
0.143578
0.0173788
0.148169
0.015903
0.153152
0.0143893
0.158617
0.0128376
0.164674
0.0112502
0.171452
0.0096334
0.179089