/*--------------------------------*- C++ -*----------------------------------*\
  =========                 |
  \\      /  F ield         | OpenFOAM: The Open Source CFD Toolbox
   \\    /   O peration     | Website:  https://openfoam.org
    \\  /    A nd           | Version:  6.0
     \\/     M anipulation  |
\*---------------------------------------------------------------------------*/
FoamFile
{
    version     2.0;
    format      ascii;
    class       volScalarField;
    location    "6.7515";
    object      p;
}
// * * * * * * * * * * * * * * * * * * * * * * * * * * * * * * * * * * * * * //

dimensions      [0 2 -2 0 0 0 0];

internalField   nonuniform List<scalar> 
19200
(
-7.90347
-7.03192
-6.43271
-5.9636
-5.54822
-5.18125
-4.85523
-4.56176
-4.29495
-4.05053
-3.82524
-3.61653
-3.42238
-3.2412
-3.07166
-2.91267
-2.76333
-2.62284
-2.49054
-2.36583
-2.24818
-2.13714
-2.03228
-1.93324
-1.83968
-1.75127
-1.66775
-1.58886
-1.5143
-1.44404
-8.07856
-7.20651
-6.60516
-6.13265
-5.71319
-5.34171
-5.01091
-4.71252
-4.44073
-4.19136
-3.96118
-3.74769
-3.5489
-3.36321
-3.18934
-3.02619
-2.87287
-2.72859
-2.59267
-2.46452
-2.34361
-2.22947
-2.12169
-2.01987
-1.92368
-1.83279
-1.74693
-1.66579
-1.58904
-1.51703
-8.25783
-7.38377
-6.77972
-6.30362
-5.87994
-5.50381
-5.16811
-4.86468
-4.5878
-4.33336
-4.0982
-3.87982
-3.67628
-3.48602
-3.30773
-3.14036
-2.98299
-2.83485
-2.69527
-2.56363
-2.43942
-2.32215
-2.2114
-2.10678
-2.00794
-1.91455
-1.82633
-1.74293
-1.66396
-1.5902
-8.43967
-7.56329
-6.95625
-6.4764
-6.04834
-5.66743
-5.32669
-5.0181
-4.73602
-4.4764
-4.23614
-4.01278
-3.80441
-3.60947
-3.4267
-3.25503
-3.09356
-2.94151
-2.79821
-2.66305
-2.5355
-2.41507
-2.30133
-2.19388
-2.09236
-1.99645
-1.90586
-1.82018
-1.73899
-1.66347
-8.62367
-7.74483
-7.13461
-6.65082
-6.21824
-5.8324
-5.48651
-5.17263
-4.88523
-4.62033
-4.37486
-4.14643
-3.93314
-3.73345
-3.54612
-3.37008
-3.20445
-3.04844
-2.90138
-2.76266
-2.63173
-2.50812
-2.39136
-2.28107
-2.17686
-2.07842
-1.98543
-1.89746
-1.81403
-1.73677
-8.80957
-7.92818
-7.31461
-6.82675
-6.38949
-5.99861
-5.64743
-5.32815
-5.03531
-4.76502
-4.51424
-4.28064
-4.06234
-3.85783
-3.66586
-3.4854
-3.31555
-3.15553
-3.00467
-2.86235
-2.72802
-2.60119
-2.48141
-2.36825
-2.26134
-2.16035
-2.06497
-1.97469
-1.88902
-1.81003
-8.99714
-8.11313
-7.4961
-7.00402
-6.56196
-6.16589
-5.8093
-5.48449
-5.18611
-4.91031
-4.65414
-4.41527
-4.19187
-3.98246
-3.78579
-3.60085
-3.42673
-3.26266
-3.10796
-2.96201
-2.82426
-2.6942
-2.57137
-2.45533
-2.34572
-2.24217
-2.14438
-2.0518
-1.96388
-1.88318
-9.18615
-8.29948
-7.67888
-7.18247
-6.73548
-6.33411
-5.97198
-5.64153
-5.33748
-5.05607
-4.7944
-4.55018
-4.32161
-4.10722
-3.90579
-3.7163
-3.53786
-3.36971
-3.21114
-3.06154
-2.92034
-2.78704
-2.66114
-2.54223
-2.4299
-2.3238
-2.2236
-2.12871
-2.03853
-1.95614
-9.37643
-8.48705
-7.8628
-7.36193
-6.9099
-6.50309
-6.1353
-5.79909
-5.48927
-5.20215
-4.93488
-4.68522
-4.45139
-4.23196
-4.02571
-3.83163
-3.64884
-3.47655
-3.31409
-3.16081
-3.01616
-2.87959
-2.75064
-2.62884
-2.51379
-2.40514
-2.30254
-2.20534
-2.11292
-2.02886
-9.56778
-8.67565
-8.04765
-7.54223
-7.08503
-6.67267
-6.29911
-5.95703
-5.64133
-5.34839
-5.07543
-4.82025
-4.5811
-4.35655
-4.14542
-3.9467
-3.75951
-3.58307
-3.41669
-3.25972
-3.1116
-2.97177
-2.83975
-2.71507
-2.59731
-2.48611
-2.38111
-2.28161
-2.18696
-2.10125
-9.76002
-8.86509
-8.23328
-7.72319
-7.26072
-6.8427
-6.46325
-6.11517
-5.79349
-5.49464
-5.2159
-4.95511
-4.71056
-4.48085
-4.26479
-4.06139
-3.86977
-3.68915
-3.51883
-3.35816
-3.20655
-3.06347
-2.92839
-2.80083
-2.68037
-2.56663
-2.45925
-2.35745
-2.26057
-2.17325
-9.95296
-9.0552
-8.41949
-7.90465
-7.4368
-7.01299
-6.62754
-6.27337
-5.94559
-5.64074
-5.35614
-5.08967
-4.83965
-4.60471
-4.38368
-4.17556
-3.97948
-3.79465
-3.62038
-3.456
-3.30092
-3.15457
-3.01644
-2.88602
-2.76287
-2.64661
-2.53686
-2.43279
-2.33369
-2.2448
-10.1464
-9.24579
-8.60611
-8.08641
-7.61308
-7.18338
-6.79182
-6.43145
-6.09749
-5.78654
-5.49598
-5.22376
-4.96822
-4.728
-4.50194
-4.28907
-4.0885
-3.89946
-3.72122
-3.55313
-3.39457
-3.24498
-3.1038
-2.97054
-2.84472
-2.72596
-2.61386
-2.50753
-2.40624
-2.3158
-10.3402
-9.43668
-8.79295
-8.26831
-7.78939
-7.3537
-6.95592
-6.58925
-6.249
-5.93186
-5.63529
-5.35724
-5.09611
-4.85056
-4.61945
-4.40179
-4.19672
-4.00345
-3.82124
-3.64944
-3.48741
-3.33457
-3.19037
-3.05428
-2.92582
-2.80458
-2.69016
-2.58159
-2.47814
-2.3862
-10.5341
-9.62768
-8.97985
-8.45017
-7.96555
-7.52376
-7.11966
-6.74659
-6.39997
-6.07656
-5.77389
-5.48996
-5.22319
-4.97226
-4.73606
-4.5136
-4.30401
-4.10649
-3.92032
-3.74481
-3.57932
-3.42325
-3.27604
-3.13714
-3.00606
-2.88238
-2.76566
-2.65489
-2.54929
-2.45591
-10.728
-9.81861
-9.1666
-8.63181
-8.1414
-7.69341
-7.28289
-6.90331
-6.55023
-6.22047
-5.91163
-5.62176
-5.3493
-5.09296
-4.85164
-4.62435
-4.41022
-4.20846
-4.01832
-3.83911
-3.67017
-3.5109
-3.3607
-3.21902
-3.08535
-2.95925
-2.84027
-2.72732
-2.6196
-2.5248
-10.9217
-10.0093
-9.35305
-8.81304
-8.31674
-7.86245
-7.44541
-7.05925
-6.69961
-6.36344
-6.04836
-5.75249
-5.4743
-5.21251
-4.96604
-4.73391
-4.51524
-4.30923
-4.11512
-3.93222
-3.75986
-3.59739
-3.44423
-3.2998
-3.16357
-3.03509
-2.91388
-2.79879
-2.68897
-2.59282
-11.1149
-10.1996
-9.53901
-8.9937
-8.49142
-8.03073
-7.60707
-7.21423
-6.84796
-6.5053
-6.18392
-5.882
-5.59804
-5.33078
-5.07914
-4.84215
-4.61893
-4.40867
-4.21061
-4.02403
-3.84825
-3.68262
-3.52652
-3.37936
-3.24059
-3.10976
-2.98637
-2.86917
-2.7573
-2.65985
-11.3076
-10.3892
-9.7243
-9.17361
-8.66524
-8.19805
-7.76769
-7.36809
-6.99511
-6.64589
-6.31817
-6.01015
-5.72039
-5.44763
-5.19081
-4.94895
-4.72118
-4.50668
-4.30467
-4.11442
-3.93523
-3.76645
-3.60743
-3.45757
-3.3163
-3.18315
-3.0576
-2.93834
-2.82445
-2.72575
-11.4996
-10.5782
-9.90876
-9.35259
-8.83804
-8.36426
-7.9271
-7.52065
-7.14091
-6.78506
-6.45094
-6.1368
-5.8412
-5.56293
-5.30091
-5.05419
-4.82187
-4.60312
-4.39717
-4.20326
-4.02069
-3.84877
-3.68685
-3.5343
-3.39055
-3.2551
-3.12743
-3.00614
-2.89025
-2.79035
-11.6907
-10.7661
-10.0922
-9.53046
-9.00964
-8.52917
-8.08513
-7.67177
-7.28518
-6.92267
-6.58211
-6.26181
-5.96036
-5.67655
-5.40933
-5.15774
-4.92087
-4.69789
-4.48801
-4.29045
-4.1045
-3.92945
-3.76464
-3.60942
-3.4632
-3.32548
-3.1957
-3.0724
-2.95452
-2.85346
-11.8807
-10.953
-10.2745
-9.70707
-9.17986
-8.69262
-8.24162
-7.82126
-7.42778
-7.05856
-6.71153
-6.38504
-6.07772
-5.78838
-5.51596
-5.2595
-5.0181
-4.7909
-4.57709
-4.37589
-4.18657
-4.0084
-3.84069
-3.6828
-3.5341
-3.3941
-3.26222
-3.13691
-3.01704
-2.91482
-12.0697
-11.1387
-10.4555
-9.88222
-9.34853
-8.85442
-8.39638
-7.96898
-7.56856
-7.19258
-6.83906
-6.50637
-6.19318
-5.89831
-5.6207
-5.35938
-5.11345
-4.88204
-4.66432
-4.45949
-4.26679
-4.0855
-3.91489
-3.75431
-3.60312
-3.46081
-3.32681
-3.19946
-3.07754
-2.97414
-12.2575
-11.3231
-10.6349
-10.0557
-9.51546
-9.01439
-8.54925
-8.11474
-7.70734
-7.32459
-6.96456
-6.62568
-6.30662
-6.00623
-5.72344
-5.4573
-5.20686
-4.97126
-4.74963
-4.54118
-4.34511
-4.16068
-3.98716
-3.82385
-3.67012
-3.52546
-3.38927
-3.2598
-3.13573
-3.03108
-12.444
-11.5059
-10.8127
-10.2274
-9.68045
-9.17235
-8.70005
-8.2584
-7.844
-7.45446
-7.08792
-6.74284
-6.41794
-6.11205
-5.82412
-5.55317
-5.29826
-5.05849
-4.83299
-4.62093
-4.42149
-4.23391
-4.05743
-3.89136
-3.73502
-3.5879
-3.44941
-3.31769
-3.19127
-3.08522
-12.6294
-11.6871
-10.9885
-10.3971
-9.8433
-9.3281
-8.8486
-8.39979
-7.97836
-7.58204
-7.209
-6.85776
-6.52704
-6.21569
-5.92265
-5.64695
-5.38761
-5.14371
-4.91437
-4.69872
-4.49593
-4.30519
-4.12574
-3.95684
-3.7978
-3.6481
-3.50714
-3.37296
-3.24389
-3.13599
-12.8138
-11.8664
-11.1622
-10.5645
-10.0038
-9.48144
-8.99471
-8.53873
-8.1103
-7.7072
-7.3277
-6.97033
-6.63383
-6.31707
-6.01899
-5.73859
-5.47487
-5.22691
-4.99378
-4.77459
-4.56848
-4.3746
-4.19217
-4.0204
-3.85858
-3.70617
-3.56256
-3.42569
-3.29342
-3.18274
-12.9982
-12.044
-11.3335
-10.7292
-10.1616
-9.63211
-9.13817
-8.67504
-8.23962
-7.8298
-7.44388
-7.08043
-6.73822
-6.41613
-6.11307
-5.82804
-5.56004
-5.3081
-5.07126
-4.8486
-4.63923
-4.44226
-4.25687
-4.08222
-3.91755
-3.76229
-3.61581
-3.47577
-3.33931
-3.22513
-13.1839
-12.2196
-11.5018
-10.8909
-10.3164
-9.77986
-9.27876
-8.80854
-8.36619
-7.94969
-7.55741
-7.18796
-6.84012
-6.51276
-6.20483
-5.91528
-5.64308
-5.38726
-5.14682
-4.92082
-4.7083
-4.50838
-4.32013
-4.14269
-3.97519
-3.81693
-3.66704
-3.52257
-3.38038
-3.26286
-13.3633
-12.39
-11.6659
-11.0491
-10.4681
-9.92467
-9.41652
-8.93926
-8.49004
-8.06692
-7.66834
-7.29295
-6.93956
-6.60704
-6.29432
-6.00034
-5.72407
-5.46448
-5.22058
-4.99138
-4.77592
-4.57325
-4.38245
-4.20261
-4.03282
-3.87219
-3.71929
-3.57098
-3.42555
-3.30338
-16.4149
-16.3936
-16.3629
-16.3278
-16.2875
-16.2414
-16.1892
-16.131
-16.0667
-15.9964
-15.9201
-15.838
-15.75
-15.6563
-15.5571
-15.4524
-15.3424
-15.2273
-15.1071
-14.9821
-14.8524
-14.7181
-14.5795
-14.4368
-14.2901
-14.1397
-13.986
-13.8292
-13.6701
-13.5114
-15.375
-15.3587
-15.3339
-15.3027
-15.2654
-15.2218
-15.172
-15.116
-15.0539
-14.9858
-14.9118
-14.832
-14.7464
-14.6551
-14.5584
-14.4563
-14.3489
-14.2364
-14.1189
-13.9967
-13.8697
-13.7383
-13.6026
-13.4627
-13.319
-13.1715
-13.0206
-12.8666
-12.7096
-12.5504
-14.5312
-14.5187
-14.4986
-14.4717
-14.4382
-14.3984
-14.3523
-14.3
-14.2418
-14.1775
-14.1074
-14.0315
-13.9499
-13.8628
-13.7702
-13.6723
-13.5693
-13.4611
-13.348
-13.2302
-13.1077
-12.9808
-12.8496
-12.7142
-12.575
-12.4319
-12.2853
-12.1354
-11.9821
-11.8257
-13.7637
-13.7547
-13.7388
-13.7161
-13.687
-13.6516
-13.61
-13.5623
-13.5087
-13.4492
-13.384
-13.313
-13.2364
-13.1544
-13.067
-12.9744
-12.8766
-12.7738
-12.6662
-12.5539
-12.437
-12.3156
-12.19
-12.0603
-11.9266
-11.7891
-11.648
-11.5034
-11.3553
-11.204
-13.017
-13.0116
-12.9996
-12.9812
-12.9566
-12.9258
-12.8889
-12.8461
-12.7975
-12.7431
-12.6831
-12.6175
-12.5464
-12.4699
-12.3882
-12.3013
-12.2094
-12.1126
-12.011
-11.9048
-11.794
-11.6789
-11.5595
-11.4361
-11.3086
-11.1774
-11.0425
-10.9041
-10.7622
-10.6169
-12.3034
-12.3012
-12.293
-12.2787
-12.2582
-12.2319
-12.1996
-12.1616
-12.118
-12.0687
-12.0139
-11.9537
-11.8882
-11.8174
-11.7415
-11.6606
-11.5747
-11.484
-11.3887
-11.2888
-11.1844
-11.0758
-10.963
-10.8461
-10.7253
-10.6007
-10.4724
-10.3406
-10.2053
-10.0667
-11.6278
-11.6287
-11.6238
-11.613
-11.5965
-11.5742
-11.5463
-11.5128
-11.4738
-11.4294
-11.3797
-11.3247
-11.2646
-11.1993
-11.1291
-11.054
-10.9741
-10.8895
-10.8004
-10.7068
-10.6089
-10.5067
-10.4004
-10.2902
-10.1761
-10.0582
-9.93672
-9.81171
-9.68328
-9.55155
-10.9908
-10.9943
-10.9923
-10.9847
-10.9715
-10.9529
-10.9288
-10.8994
-10.8648
-10.8249
-10.7798
-10.7297
-10.6746
-10.6146
-10.5498
-10.4802
-10.406
-10.3273
-10.2441
-10.1566
-10.0649
-9.96907
-9.86922
-9.76547
-9.65794
-9.54674
-9.43197
-9.31373
-9.19214
-9.06731
-10.3928
-10.3984
-10.3987
-10.3938
-10.3835
-10.368
-10.3473
-10.3215
-10.2907
-10.2548
-10.214
-10.1683
-10.1179
-10.0627
-10.0028
-9.93843
-9.86956
-9.79631
-9.71877
-9.63704
-9.55121
-9.46138
-9.36766
-9.27016
-9.16896
-9.06418
-8.95592
-8.84428
-8.72935
-8.61126
-9.83341
-9.84058
-9.84283
-9.84001
-9.83214
-9.81927
-9.80147
-9.77879
-9.75127
-9.71896
-9.68189
-9.64017
-9.59385
-9.543
-9.4877
-9.42801
-9.36403
-9.29582
-9.22349
-9.14711
-9.06678
-8.98259
-8.89463
-8.80301
-8.70781
-8.60913
-8.50707
-8.40173
-8.2932
-8.18159
-9.31171
-9.32008
-9.32377
-9.32263
-9.31668
-9.30598
-9.29057
-9.27052
-9.24584
-9.21657
-9.18278
-9.14452
-9.10187
-9.05489
-9.00363
-8.94818
-8.88861
-8.82499
-8.7574
-8.68593
-8.61066
-8.53168
-8.44906
-8.36291
-8.27331
-8.18036
-8.08413
-7.98473
-7.88224
-7.77677
-8.82626
-8.83545
-8.84018
-8.84032
-8.83587
-8.8269
-8.81345
-8.79557
-8.77328
-8.7466
-8.7156
-8.68035
-8.6409
-8.59731
-8.54964
-8.49796
-8.44233
-8.38283
-8.31953
-8.25251
-8.18184
-8.10761
-8.0299
-7.94879
-7.86437
-7.77672
-7.68592
-7.59206
-7.49523
-7.39552
-8.37527
-8.38496
-8.39039
-8.39144
-8.38813
-8.38051
-8.36862
-8.35251
-8.33219
-8.30769
-8.27907
-8.24639
-8.20971
-8.16907
-8.12454
-8.07617
-8.02404
-7.96821
-7.90875
-7.84573
-7.77922
-7.70931
-7.63606
-7.55955
-7.47987
-7.3971
-7.3113
-7.22258
-7.131
-7.03666
-7.95672
-7.96663
-7.97248
-7.97415
-7.97167
-7.96507
-7.9544
-7.93972
-7.92101
-7.89831
-7.87169
-7.8412
-7.80688
-7.76879
-7.72699
-7.68153
-7.63248
-7.5799
-7.52385
-7.4644
-7.40163
-7.3356
-7.26639
-7.19406
-7.1187
-7.04038
-6.95918
-6.87517
-6.78844
-6.69907
-7.56847
-7.57839
-7.58443
-7.58647
-7.58455
-7.5787
-7.56897
-7.55541
-7.538
-7.51679
-7.49183
-7.46318
-7.43089
-7.39499
-7.35555
-7.31263
-7.26628
-7.21656
-7.16353
-7.10727
-7.04783
-6.98529
-6.91971
-6.85116
-6.77972
-6.70545
-6.62843
-6.54874
-6.46646
-6.38166
-7.20834
-7.2181
-7.22414
-7.22636
-7.22479
-7.21946
-7.21045
-7.19775
-7.18138
-7.16138
-7.13781
-7.11071
-7.08013
-7.04611
-7.00872
-6.96799
-6.924
-6.8768
-6.82645
-6.77301
-6.71655
-6.65712
-6.5948
-6.52965
-6.46175
-6.39115
-6.31794
-6.24219
-6.16397
-6.08336
-6.87416
-6.88364
-6.88955
-6.8918
-6.89041
-6.88543
-6.87693
-6.8649
-6.84935
-6.83033
-6.80791
-6.78211
-6.75298
-6.72057
-6.68494
-6.64613
-6.6042
-6.55922
-6.51122
-6.46029
-6.40647
-6.34983
-6.29043
-6.22834
-6.16362
-6.09635
-6.02658
-5.95441
-5.87989
-5.80312
-6.56388
-6.57298
-6.57865
-6.58081
-6.57948
-6.57471
-6.56657
-6.55504
-6.54014
-6.52192
-6.50043
-6.47572
-6.44783
-6.4168
-6.38269
-6.34554
-6.30542
-6.26238
-6.21647
-6.16775
-6.11629
-6.06214
-6.00536
-5.94601
-5.88417
-5.81989
-5.75325
-5.68431
-5.61317
-5.5399
-6.27551
-6.28417
-6.28953
-6.29152
-6.29015
-6.28549
-6.27759
-6.26642
-6.25202
-6.23445
-6.21374
-6.18995
-6.1631
-6.13326
-6.10046
-6.06477
-6.02623
-5.9849
-5.94083
-5.89409
-5.84472
-5.7928
-5.73836
-5.68148
-5.62222
-5.56065
-5.49683
-5.43083
-5.36275
-5.29267
-6.00721
-6.0154
-6.0204
-6.02215
-6.02068
-6.01604
-6.00828
-5.99738
-5.98338
-5.96633
-5.94627
-5.92324
-5.8973
-5.86847
-5.83682
-5.8024
-5.76525
-5.72543
-5.683
-5.63801
-5.59052
-5.54058
-5.48826
-5.4336
-5.37667
-5.31753
-5.25626
-5.19292
-5.1276
-5.06043
-5.75728
-5.76497
-5.76958
-5.77106
-5.76943
-5.76476
-5.75707
-5.74637
-5.73267
-5.71604
-5.69652
-5.67415
-5.64897
-5.62104
-5.59039
-5.55708
-5.52116
-5.48268
-5.44171
-5.39829
-5.35248
-5.30433
-5.2539
-5.20124
-5.14641
-5.08948
-5.0305
-4.96956
-4.90674
-4.8422
-5.52413
-5.53132
-5.53553
-5.53672
-5.5349
-5.53015
-5.52249
-5.51192
-5.49846
-5.48218
-5.46311
-5.4413
-5.41679
-5.38963
-5.35986
-5.32753
-5.2927
-5.25543
-5.21575
-5.17374
-5.12943
-5.0829
-5.03418
-4.98333
-4.93041
-4.87546
-4.81856
-4.75978
-4.69921
-4.63703
-5.30634
-5.31304
-5.31684
-5.31772
-5.3157
-5.31084
-5.30318
-5.29269
-5.27942
-5.26342
-5.24474
-5.22342
-5.19949
-5.173
-5.14401
-5.11256
-5.07871
-5.0425
-5.004
-4.96325
-4.92031
-4.87523
-4.82806
-4.77886
-4.72766
-4.67452
-4.6195
-4.56266
-4.50409
-4.44404
-5.1026
-5.10881
-5.11222
-5.1128
-5.11056
-5.10559
-5.09789
-5.08745
-5.07433
-5.05858
-5.04023
-5.01933
-4.99591
-4.97003
-4.94173
-4.91106
-4.87808
-4.84284
-4.80539
-4.76579
-4.72408
-4.68033
-4.63457
-4.58686
-4.53724
-4.48574
-4.43242
-4.37733
-4.32052
-4.26235
-4.91173
-4.91748
-4.9205
-4.92077
-4.91833
-4.91322
-4.90548
-4.89508
-4.88208
-4.86653
-4.84847
-4.82794
-4.80498
-4.77963
-4.75195
-4.72199
-4.6898
-4.65543
-4.61894
-4.58038
-4.5398
-4.49725
-4.45278
-4.40644
-4.35826
-4.30828
-4.2565
-4.20299
-4.14772
-4.09121
-4.73267
-4.73796
-4.74061
-4.74059
-4.73792
-4.73269
-4.72487
-4.71449
-4.70158
-4.68621
-4.6684
-4.64819
-4.62563
-4.60076
-4.57364
-4.54432
-4.51283
-4.47925
-4.44363
-4.40601
-4.36645
-4.325
-4.28171
-4.23663
-4.18978
-4.14118
-4.09083
-4.03874
-3.98477
-3.92981
-4.56447
-4.56933
-4.57161
-4.57129
-4.56841
-4.56303
-4.55513
-4.54474
-4.53189
-4.51665
-4.49905
-4.47911
-4.4569
-4.43245
-4.40581
-4.37704
-4.34619
-4.3133
-4.27844
-4.24165
-4.203
-4.16254
-4.12031
-4.07636
-4.03071
-3.98337
-3.93431
-3.8835
-3.83055
-3.77706
-4.40625
-4.41077
-4.41277
-4.41223
-4.4092
-4.40373
-4.39581
-4.38545
-4.37271
-4.35762
-4.34024
-4.32059
-4.29872
-4.27467
-4.2485
-4.22026
-4.18999
-4.15776
-4.12361
-4.08761
-4.0498
-4.01024
-3.969
-3.9261
-3.88158
-3.83544
-3.78762
-3.738
-3.68577
-3.63335
-4.25709
-4.26144
-4.26334
-4.26276
-4.25976
-4.25438
-4.2466
-4.23645
-4.22398
-4.20924
-4.19226
-4.17307
-4.15173
-4.12828
-4.10276
-4.07524
-4.04576
-4.01438
-3.98115
-3.94613
-3.90938
-3.87096
-3.83093
-3.78933
-3.74621
-3.70157
-3.65534
-3.60735
-3.55624
-3.50514
-4.11628
-4.11982
-4.121
-4.11982
-4.1163
-4.1105
-4.1024
-4.09203
-4.07945
-4.06468
-4.04777
-4.02876
-4.00769
-3.9846
-3.95955
-3.93258
-3.90375
-3.87311
-3.84072
-3.80664
-3.77093
-3.73365
-3.69485
-3.65462
-3.61299
-3.57003
-3.52572
-3.47986
-3.43114
-3.38689
-13.9087
-14.0659
-14.2144
-14.3627
-14.5091
-14.6521
-14.7911
-14.9258
-15.0559
-15.1811
-15.301
-15.4155
-15.5244
-15.6275
-15.7247
-15.8157
-15.9006
-15.9791
-16.0513
-16.1169
-16.1759
-16.2283
-16.2741
-16.3131
-16.3454
-16.371
-16.3901
-16.4027
-16.4092
-16.4111
-12.8674
-13.0287
-13.183
-13.3337
-13.4808
-13.6236
-13.7621
-13.8961
-14.0253
-14.1496
-14.2687
-14.3825
-14.4908
-14.5933
-14.69
-14.7807
-14.8653
-14.9438
-15.0159
-15.0816
-15.1408
-15.1936
-15.2397
-15.2793
-15.3122
-15.3386
-15.3584
-15.3718
-15.3787
-15.3795
-12.01
-12.171
-12.3264
-12.4773
-12.6239
-12.7661
-12.9039
-13.0372
-13.1658
-13.2895
-13.4081
-13.5215
-13.6295
-13.732
-13.8288
-13.9197
-14.0047
-14.0837
-14.1566
-14.2232
-14.2835
-14.3374
-14.3849
-14.426
-14.4605
-14.4886
-14.5102
-14.5253
-14.5339
-14.5359
-11.2312
-11.3897
-11.5436
-11.6931
-11.8383
-11.9793
-12.1159
-12.2481
-12.3757
-12.4985
-12.6164
-12.7293
-12.8369
-12.9392
-13.036
-13.1272
-13.2126
-13.2922
-13.3659
-13.4335
-13.495
-13.5504
-13.5995
-13.6424
-13.6789
-13.7091
-13.7329
-13.7504
-13.7613
-13.7658
-10.4838
-10.6389
-10.7901
-10.9372
-11.0803
-11.2192
-11.354
-11.4844
-11.6104
-11.7319
-11.8486
-11.9604
-12.0673
-12.169
-12.2654
-12.3565
-12.442
-12.5219
-12.5961
-12.6645
-12.7271
-12.7836
-12.8342
-12.8787
-12.9171
-12.9494
-12.9755
-12.9953
-13.0089
-13.0162
-9.78261
-9.93366
-10.0814
-10.2253
-10.3654
-10.5017
-10.6339
-10.762
-10.8859
-11.0054
-11.1204
-11.2307
-11.3363
-11.4369
-11.5325
-11.623
-11.7082
-11.788
-11.8623
-11.9311
-11.9943
-12.0517
-12.1034
-12.1493
-12.1893
-12.2233
-12.2514
-12.2735
-12.2896
-12.2995
-9.13306
-9.27974
-9.42342
-9.56361
-9.70022
-9.83316
-9.96234
-10.0876
-10.2089
-10.3259
-10.4387
-10.547
-10.6508
-10.7499
-10.8442
-10.9336
-11.018
-11.0972
-11.1712
-11.2399
-11.3032
-11.3611
-11.4135
-11.4603
-11.5014
-11.5369
-11.5667
-11.5907
-11.6089
-11.6213
-8.5348
-8.67684
-8.81612
-8.95217
-9.08487
-9.21413
-9.33983
-9.46184
-9.58002
-9.69424
-9.80438
-9.91031
-10.0119
-10.109
-10.2016
-10.2895
-10.3725
-10.4508
-10.524
-10.5922
-10.6552
-10.7131
-10.7657
-10.8129
-10.8548
-10.8913
-10.9223
-10.9478
-10.9677
-10.9821
-7.98625
-8.12349
-8.25818
-8.38986
-8.51839
-8.6437
-8.76564
-8.88409
-8.99891
-9.10997
-9.21716
-9.32033
-9.41938
-9.51419
-9.60464
-9.69064
-9.77208
-9.84887
-9.92092
-9.98816
-10.0505
-10.1079
-10.1603
-10.2076
-10.2497
-10.2867
-10.3185
-10.345
-10.3663
-10.3823
-7.48495
-7.61736
-7.74737
-7.87457
-7.99881
-8.12
-8.23802
-8.35272
-8.46399
-8.57168
-8.67568
-8.77587
-8.87213
-8.96434
-9.05241
-9.13624
-9.21572
-9.29076
-9.3613
-9.42724
-9.48853
-9.54509
-9.59686
-9.6438
-9.68584
-9.72296
-9.75512
-9.78227
-9.80439
-9.82148
-7.02775
-7.15537
-7.28071
-7.4034
-7.52331
-7.64034
-7.75436
-7.86524
-7.97284
-8.07705
-8.17773
-8.27478
-8.36808
-8.45752
-8.54301
-8.62444
-8.70173
-8.77479
-8.84355
-8.90792
-8.96785
-9.02328
-9.07413
-9.12038
-9.16197
-9.19886
-9.23101
-9.2584
-9.28101
-9.29882
-6.61116
-6.73407
-6.85483
-6.97308
-7.08869
-7.20158
-7.31161
-7.41865
-7.52256
-7.62324
-7.72054
-7.81438
-7.90463
-7.99119
-8.07397
-8.15287
-8.22781
-8.29871
-8.36549
-8.42809
-8.48645
-8.5405
-8.59019
-8.63548
-8.67632
-8.71269
-8.74453
-8.77184
-8.79459
-8.81278
-6.23157
-6.34992
-6.46621
-6.58013
-6.69155
-6.80038
-6.90648
-7.00973
-7.10999
-7.20715
-7.30108
-7.39169
-7.47886
-7.5625
-7.6425
-7.7188
-7.7913
-7.85992
-7.92461
-7.98529
-8.04191
-8.09442
-8.14276
-8.18689
-8.22677
-8.26237
-8.29366
-8.32063
-8.34323
-8.3615
-5.88547
-5.99942
-6.11141
-6.22114
-6.3285
-6.43339
-6.53568
-6.63523
-6.73192
-6.82562
-6.91624
-7.00365
-7.08776
-7.16847
-7.2457
-7.31936
-7.38938
-7.45568
-7.5182
-7.57688
-7.63166
-7.68251
-7.72936
-7.77218
-7.81094
-7.84561
-7.87615
-7.90256
-7.92481
-7.94292
-5.5695
-5.67924
-5.7871
-5.89282
-5.99629
-6.09739
-6.196
-6.29198
-6.3852
-6.47556
-6.56294
-6.64723
-6.72834
-6.80617
-6.88065
-6.95169
-7.01923
-7.08319
-7.14352
-7.20015
-7.25305
-7.30216
-7.34745
-7.38887
-7.42639
-7.45999
-7.48965
-7.51535
-7.53707
-7.55483
-5.28056
-5.38628
-5.4902
-5.5921
-5.69184
-5.78933
-5.88442
-5.97697
-6.06687
-6.154
-6.23825
-6.31952
-6.39771
-6.47274
-6.54452
-6.613
-6.67808
-6.73973
-6.79787
-6.85246
-6.90346
-6.95081
-6.99448
-7.03444
-7.07066
-7.10312
-7.13179
-7.15667
-7.17773
-7.195
-5.01579
-5.11768
-5.21787
-5.31613
-5.41235
-5.50639
-5.59814
-5.68743
-5.77416
-5.85819
-5.93944
-6.01779
-6.09317
-6.16548
-6.23466
-6.30063
-6.36333
-6.42271
-6.4787
-6.53127
-6.58037
-6.62597
-6.66802
-6.7065
-6.74138
-6.77265
-6.80027
-6.82425
-6.84458
-6.86126
-4.77262
-4.87086
-4.96751
-5.06234
-5.15523
-5.24603
-5.3346
-5.4208
-5.5045
-5.58559
-5.66397
-5.73953
-5.81221
-5.88191
-5.94857
-6.01212
-6.07251
-6.12968
-6.18359
-6.23419
-6.28143
-6.32529
-6.36574
-6.40274
-6.43628
-6.46633
-6.49288
-6.51593
-6.53545
-6.55148
-4.54874
-4.64351
-4.73682
-4.82842
-4.91817
-5.00591
-5.09149
-5.17476
-5.2556
-5.33389
-5.40953
-5.48244
-5.55253
-5.61973
-5.68398
-5.74521
-5.80337
-5.85842
-5.91031
-5.95899
-6.00443
-6.0466
-6.08548
-6.12103
-6.15323
-6.18207
-6.20754
-6.22963
-6.24833
-6.26367
-4.34208
-4.43355
-4.52371
-4.61229
-4.6991
-4.78397
-4.86674
-4.94725
-5.02537
-5.101
-5.17405
-5.24443
-5.31205
-5.37687
-5.43881
-5.49782
-5.55386
-5.60686
-5.65681
-5.70365
-5.74735
-5.78789
-5.82524
-5.85937
-5.89028
-5.91793
-5.94233
-5.96347
-5.98133
-5.99595
-4.15079
-4.23913
-4.32635
-4.41211
-4.49618
-4.57837
-4.65849
-4.73639
-4.81196
-4.88507
-4.95566
-5.02362
-5.08891
-5.15145
-5.2112
-5.26809
-5.32209
-5.37315
-5.42124
-5.46632
-5.50835
-5.54732
-5.5832
-5.61597
-5.64561
-5.67211
-5.69547
-5.71567
-5.73271
-5.74661
-3.97323
-4.05858
-4.14308
-4.22625
-4.30777
-4.38746
-4.46511
-4.54056
-4.6137
-4.68444
-4.75268
-4.81836
-4.88142
-4.94181
-4.99946
-5.05434
-5.10641
-5.15561
-5.20193
-5.24532
-5.28577
-5.32324
-5.35772
-5.38918
-5.41761
-5.443
-5.46534
-5.48463
-5.50086
-5.51406
-3.80788
-3.89041
-3.97246
-4.05325
-4.13244
-4.2098
-4.28513
-4.35827
-4.42913
-4.4976
-4.56363
-4.62715
-4.6881
-4.74643
-4.8021
-4.85507
-4.90529
-4.95274
-4.99738
-5.03917
-5.0781
-5.11415
-5.14729
-5.1775
-5.20477
-5.2291
-5.25047
-5.26888
-5.28434
-5.29685
-3.65336
-3.73325
-3.81317
-3.89184
-3.96889
-4.0441
-4.11726
-4.18822
-4.25691
-4.32325
-4.38718
-4.44864
-4.50759
-4.56398
-4.61777
-4.66892
-4.7174
-4.76318
-4.80623
-4.84651
-4.88401
-4.9187
-4.95057
-4.9796
-5.00577
-5.02909
-5.04953
-5.06711
-5.08182
-5.09368
-3.50838
-3.58591
-3.66412
-3.74094
-3.81604
-3.88926
-3.96038
-4.0293
-4.09593
-4.16024
-4.22218
-4.28169
-4.33873
-4.39328
-4.44529
-4.49473
-4.54156
-4.58576
-4.62729
-4.66614
-4.70229
-4.7357
-4.76637
-4.79427
-4.81941
-4.84177
-4.86134
-4.87812
-4.89212
-4.90334
-3.37174
-3.4476
-3.52466
-3.59987
-3.67319
-3.74456
-3.81375
-3.8807
-3.94538
-4.00775
-4.06778
-4.12543
-4.18066
-4.23345
-4.28376
-4.33156
-4.37682
-4.41952
-4.45962
-4.49711
-4.53196
-4.56415
-4.59368
-4.62052
-4.64466
-4.6661
-4.68484
-4.70086
-4.71418
-4.7248
-3.24141
-3.31713
-3.39393
-3.46774
-3.53944
-3.60905
-3.6764
-3.74147
-3.80427
-3.86478
-3.92298
-3.97886
-4.03236
-4.08348
-4.13218
-4.17843
-4.2222
-4.26347
-4.30221
-4.33841
-4.37204
-4.40309
-4.43153
-4.45736
-4.48057
-4.50114
-4.51908
-4.53439
-4.54706
-4.5571
-3.11219
-3.1898
-3.26797
-3.34086
-3.41115
-3.47923
-3.54492
-3.6083
-3.66941
-3.72827
-3.78486
-3.83916
-3.89114
-3.94079
-3.98808
-4.03297
-4.07545
-4.11548
-4.15305
-4.18814
-4.22073
-4.25079
-4.27832
-4.30329
-4.32571
-4.34557
-4.36285
-4.37756
-4.3897
-4.39928
-2.98028
-3.06166
-3.14335
-3.21631
-3.28571
-3.3526
-3.41697
-3.47898
-3.53873
-3.59624
-3.6515
-3.70452
-3.75525
-3.8037
-3.84982
-3.8936
-3.93502
-3.97405
-4.01067
-4.04486
-4.07661
-4.10589
-4.1327
-4.15701
-4.17883
-4.19815
-4.21496
-4.22925
-4.24104
-4.25034
-2.87933
-2.96914
-3.05163
-3.12373
-3.19146
-3.25619
-3.31833
-3.37811
-3.43562
-3.4909
-3.54394
-3.59475
-3.64331
-3.68961
-3.73363
-3.77535
-3.81475
-3.85182
-3.88654
-3.9189
-3.94889
-3.97648
-4.00167
-4.02446
-4.04483
-4.06278
-4.07832
-4.09143
-4.10213
-4.11042
-0.641861
-0.687418
-0.736435
-0.789117
-0.845992
-0.907574
-0.974411
-1.04714
-1.12652
-1.21342
-1.30885
-1.414
-1.53024
-1.65919
-1.8027
-1.96294
-2.14242
-2.34401
-2.57101
-2.82713
-3.11655
-3.44385
-3.81396
-4.23196
-4.70313
-5.23277
-5.82162
-6.46265
-7.20841
-8.16455
-0.713708
-0.761702
-0.81239
-0.866952
-0.925906
-0.989678
-1.05882
-1.13398
-1.21594
-1.30556
-1.40388
-1.5121
-1.63161
-1.76404
-1.91126
-2.07545
-2.25916
-2.46526
-2.69706
-2.9583
-3.25314
-3.58617
-3.96227
-4.38648
-4.86395
-5.39983
-5.99464
-6.64084
-7.38983
-8.34517
-0.786374
-0.836847
-0.889233
-0.945709
-1.00678
-1.07278
-1.14427
-1.22191
-1.30648
-1.39888
-1.50015
-1.6115
-1.73433
-1.87029
-2.02128
-2.1895
-2.37749
-2.58817
-2.82485
-3.09128
-3.39163
-3.73045
-4.11259
-4.54303
-5.02679
-5.56882
-6.16933
-6.82029
-7.57176
-8.52553
-0.859795
-0.912786
-0.966895
-1.02532
-1.08854
-1.15681
-1.23068
-1.31084
-1.39807
-1.49329
-1.59754
-1.71206
-1.83827
-1.97782
-2.13263
-2.30492
-2.49726
-2.71257
-2.95419
-3.22586
-3.53175
-3.8764
-4.26462
-4.7013
-5.19133
-5.73947
-6.34563
-7.00135
-7.75596
-8.71018
-0.933922
-0.989465
-1.04532
-1.10572
-1.17113
-1.24171
-1.31799
-1.4007
-1.49064
-1.58872
-1.696
-1.81374
-1.94336
-2.08655
-2.24523
-2.42165
-2.61839
-2.83838
-3.08498
-3.36194
-3.67342
-4.02394
-4.41827
-4.8612
-5.35752
-5.91177
-6.52358
-7.18417
-7.94234
-8.89813
-1.00871
-1.06683
-1.12445
-1.18686
-1.25449
-1.32741
-1.40615
-1.49145
-1.58412
-1.6851
-1.79546
-1.91645
-2.04954
-2.19641
-2.35901
-2.53961
-2.74079
-2.96552
-3.21715
-3.49944
-3.81655
-4.17298
-4.57345
-5.02267
-5.52529
-6.08566
-6.70315
-7.36866
-8.13057
-9.08843
-1.08409
-1.14482
-1.20423
-1.26867
-1.33856
-1.41385
-1.49507
-1.583
-1.67845
-1.78236
-1.89583
-2.02013
-2.15672
-2.30731
-2.47388
-2.6587
-2.86437
-3.09388
-3.35059
-3.63826
-3.96105
-4.32342
-4.73006
-5.18558
-5.69452
-6.26104
-6.88425
-7.55472
-8.32047
-9.2807
-1.16003
-1.22338
-1.28459
-1.35111
-1.42328
-1.50096
-1.58471
-1.67529
-1.77355
-1.88043
-1.99705
-2.12468
-2.26482
-2.41918
-2.58975
-2.77883
-2.98904
-3.22337
-3.4852
-3.77829
-4.10679
-4.47514
-4.88797
-5.34983
-5.8651
-6.43778
-7.06673
-7.7422
-8.51189
-9.47467
-1.23647
-1.30245
-1.36548
-1.43409
-1.50858
-1.58869
-1.67498
-1.76825
-1.86935
-1.97923
-2.09903
-2.23003
-2.37375
-2.53191
-2.70652
-2.8999
-3.11469
-3.35388
-3.62086
-3.91941
-4.25365
-4.62802
-5.04707
-5.51527
-6.03689
-6.61575
-7.25045
-7.93095
-8.70462
-9.67005
-1.31336
-1.38198
-1.44684
-1.51757
-1.5944
-1.67696
-1.76583
-1.86181
-1.96577
-2.07869
-2.2017
-2.3361
-2.48342
-2.64542
-2.82411
-3.02183
-3.24122
-3.4853
-3.75748
-4.06151
-4.40153
-4.78193
-5.20721
-5.68178
-6.20976
-6.79479
-7.43525
-8.12079
-8.89845
-9.86658
-1.39066
-1.46192
-1.52861
-1.60149
-1.68068
-1.76572
-1.85719
-1.95591
-2.06276
-2.17873
-2.30497
-2.4428
-2.59376
-2.75962
-2.94242
-3.14449
-3.36852
-3.61753
-3.89493
-4.20448
-4.55029
-4.93674
-5.36827
-5.84921
-6.38355
-6.97475
-7.62096
-8.31153
-9.09318
-10.064
-1.46833
-1.54221
-1.61074
-1.68578
-1.76737
-1.85491
-1.94899
-2.05046
-2.16022
-2.27927
-2.40877
-2.55005
-2.70467
-2.87441
-3.06134
-3.26781
-3.4965
-3.75046
-4.0331
-4.34818
-4.69981
-5.09232
-5.53011
-6.01741
-6.5581
-7.15546
-7.80741
-8.50297
-9.28861
-10.2622
-1.54631
-1.62281
-1.69318
-1.77041
-1.8544
-1.94445
-2.04116
-2.14541
-2.2581
-2.38024
-2.51301
-2.65776
-2.81606
-2.98971
-3.18079
-3.39166
-3.62504
-3.88396
-4.17186
-4.49249
-4.84995
-5.24853
-5.69258
-6.18624
-6.73326
-7.33675
-7.9944
-8.69493
-9.48451
-10.4608
-1.62459
-1.70368
-1.77589
-1.85532
-1.94172
-2.0343
-2.13366
-2.24069
-2.35632
-2.48156
-2.61761
-2.76584
-2.92783
-3.1054
-3.30065
-3.51594
-3.75402
-4.01793
-4.31109
-4.63729
-5.00058
-5.40523
-5.85553
-6.35553
-6.90886
-7.51845
-8.18175
-8.88721
-9.68069
-10.6597
-1.70312
-1.78478
-1.85881
-1.94045
-2.02929
-2.1244
-2.2264
-2.33622
-2.45479
-2.58315
-2.72249
-2.87421
-3.0399
-3.2214
-3.42081
-3.64055
-3.88333
-4.15223
-4.45068
-4.78244
-5.15156
-5.56226
-6.0188
-6.52513
-7.08473
-7.70038
-8.36928
-9.0796
-9.87694
-10.8587
-1.7819
-1.86608
-1.94192
-2.02577
-2.11704
-2.21468
-2.31933
-2.43194
-2.55345
-2.68492
-2.82755
-2.98276
-3.15215
-3.33759
-3.54118
-3.76535
-4.01284
-4.28674
-4.59047
-4.92779
-5.30273
-5.71949
-6.18224
-6.69486
-7.2607
-7.88234
-8.55679
-9.27191
-10.0731
-11.0574
-1.86092
-1.94756
-2.02518
-2.11124
-2.20493
-2.3051
-2.41238
-2.52777
-2.65221
-2.78678
-2.93271
-3.0914
-3.26449
-3.45386
-3.66163
-3.89024
-4.14244
-4.42133
-4.73033
-5.07321
-5.45396
-5.87674
-6.34569
-6.86455
-7.43658
-8.06417
-8.74409
-9.46393
-10.2688
-11.2559
-1.94017
-2.02921
-2.10856
-2.19682
-2.29292
-2.39558
-2.50548
-2.62363
-2.75099
-2.88865
-3.03785
-3.20002
-3.37681
-3.57009
-3.78203
-4.01507
-4.27198
-4.55586
-4.87013
-5.21854
-5.60508
-6.03387
-6.50897
-7.03404
-7.61219
-8.24566
-8.93097
-9.65547
-10.464
-11.4537
-2.01967
-2.11101
-2.19204
-2.28246
-2.38094
-2.48607
-2.59856
-2.71944
-2.8497
-2.99042
-3.14288
-3.30851
-3.48898
-3.68618
-3.90228
-4.13974
-4.40134
-4.69019
-5.00972
-5.36365
-5.75595
-6.19071
-6.67192
-7.20314
-7.78736
-8.42662
-9.11725
-9.84631
-10.6585
-11.6507
-2.09943
-2.19295
-2.27558
-2.36812
-2.46893
-2.57648
-2.69151
-2.81509
-2.94822
-3.09199
-3.24767
-3.41675
-3.60087
-3.80197
-4.02222
-4.2641
-4.53038
-4.82418
-5.14894
-5.50836
-5.9064
-6.34709
-6.83436
-7.37168
-7.96188
-8.60686