/*--------------------------------*- C++ -*----------------------------------*\
  =========                 |
  \\      /  F ield         | OpenFOAM: The Open Source CFD Toolbox
   \\    /   O peration     | Website:  https://openfoam.org
    \\  /    A nd           | Version:  6.0
     \\/     M anipulation  |
\*---------------------------------------------------------------------------*/
FoamFile
{
    version     2.0;
    format      ascii;
    class       volVectorField;
    location    "21";
    object      U;
}
// * * * * * * * * * * * * * * * * * * * * * * * * * * * * * * * * * * * * * //

dimensions      [0 1 -1 0 0 0 0];

internalField   nonuniform List<vector> 
9600
(
(0.168727 -4.61735 -4.87222e-21)
(0.0877167 -4.06944 -5.58708e-21)
(0.103943 -3.66361 7.97325e-22)
(0.13843 -3.36196 -3.65284e-21)
(0.176086 -3.13563 1.8049e-21)
(0.219246 -2.9629 -1.44781e-21)
(0.266282 -2.82819 -3.33245e-21)
(0.31504 -2.72035 3.23165e-21)
(0.36407 -2.63144 1.06699e-21)
(0.41234 -2.55581 -1.82074e-20)
(0.459088 -2.48944 1.02504e-20)
(0.503778 -2.42951 -9.29885e-21)
(0.54606 -2.37401 -4.3871e-21)
(0.585733 -2.32154 6.02705e-21)
(0.622705 -2.27108 -4.10818e-21)
(0.656967 -2.22188 -2.1158e-21)
(0.688561 -2.17336 4.29925e-21)
(0.717574 -2.12501 -4.87975e-21)
(0.744157 -2.07631 -1.22387e-21)
(0.768346 -2.02667 -2.97559e-21)
(0.350342 -4.61196 -5.09938e-20)
(0.249774 -4.07972 -2.98606e-20)
(0.252251 -3.68519 1.46905e-20)
(0.277109 -3.39278 -1.99055e-20)
(0.307952 -3.17397 4.57995e-21)
(0.346134 -3.00693 -6.19339e-21)
(0.389349 -2.87623 2.75632e-20)
(0.434979 -2.77096 -4.97957e-22)
(0.48126 -2.68341 -1.86876e-20)
(0.526958 -2.60812 2.49965e-20)
(0.571181 -2.5413 1.34488e-20)
(0.613315 -2.48028 -1.03415e-21)
(0.652973 -2.42321 1.70448e-20)
(0.689937 -2.36881 -5.45442e-22)
(0.724114 -2.31619 6.9972e-21)
(0.755506 -2.26469 1.87833e-20)
(0.784166 -2.21378 -2.55198e-20)
(0.810204 -2.16299 1.1005e-20)
(0.833821 -2.11183 -5.32774e-21)
(0.855013 -2.05966 1.2397e-20)
(0.531734 -4.60016 8.4204e-20)
(0.412656 -4.08472 6.44015e-20)
(0.402339 -3.70221 -9.73215e-20)
(0.418319 -3.41945 -4.78042e-20)
(0.442899 -3.20833 3.85073e-20)
(0.476474 -3.047 7.31733e-20)
(0.516081 -2.92022 -9.12621e-20)
(0.558664 -2.81737 2.31878e-20)
(0.602174 -2.73098 -4.59544e-20)
(0.645192 -2.65586 -3.2682e-20)
(0.686717 -2.58839 3.10642e-20)
(0.726079 -2.5261 -1.75329e-20)
(0.762865 -2.46732 -4.86454e-20)
(0.796854 -2.4109 2.7206e-20)
(0.827967 -2.35605 -8.37205e-21)
(0.856221 -2.30221 -1.18083e-21)
(0.88169 -2.24893 8.70449e-21)
(0.904507 -2.19577 2.03667e-20)
(0.924928 -2.14224 -2.69293e-20)
(0.942887 -2.08771 2.598e-20)
(0.712786 -4.58183 -4.74548e-20)
(0.576358 -4.08435 2.53576e-20)
(0.554171 -3.71452 3.21738e-20)
(0.561999 -3.44174 4.7901e-20)
(0.580845 -3.23843 -1.51739e-20)
(0.610154 -3.08277 1.83044e-20)
(0.646335 -2.95979 -1.28816e-20)
(0.685922 -2.85918 2.72872e-20)
(0.726603 -2.77377 6.61102e-20)
(0.766802 -2.6986 -4.06839e-20)
(0.805432 -2.63031 -2.46189e-20)
(0.841783 -2.56662 -3.07295e-20)
(0.875434 -2.50602 -1.15308e-20)
(0.906175 -2.4475 2.54848e-20)
(0.933951 -2.39038 -1.60486e-20)
(0.958803 -2.33421 -5.78054e-20)
(0.980831 -2.2786 4.51419e-20)
(1.0002 -2.22317 -6.03147e-20)
(1.01722 -2.16741 -3.10418e-21)
(1.03173 -2.11071 -2.72039e-21)
(0.893297 -4.5569 -6.37206e-20)
(0.740779 -4.07848 -1.24869e-19)
(0.707665 -3.72192 1.50172e-19)
(0.708056 -3.4594 -4.46598e-20)
(0.721674 -3.26396 -1.31768e-19)
(0.747031 -3.11389 -3.1651e-21)
(0.779936 -2.99455 -5.42782e-20)
(0.816541 -2.896 -1.45931e-20)
(0.854305 -2.81136 -4.42312e-20)
(0.891519 -2.73598 1.04142e-19)
(0.927032 -2.66671 -1.48871e-19)
(0.960116 -2.60149 3.72785e-20)
(0.990358 -2.53898 -6.80203e-20)
(1.01757 -2.47831 9.31978e-20)
(1.04174 -2.41894 -8.86077e-20)
(1.06293 -2.36048 4.67248e-20)
(1.08128 -2.30262 -2.90694e-20)
(1.09699 -2.24504 -1.8206e-21)
(1.11042 -2.18723 3.20253e-20)
(1.12132 -2.12858 -4.32189e-21)
(1.07305 -4.52534 1.44647e-20)
(0.905782 -4.067 1.19697e-19)
(0.862707 -3.72423 8.2685e-20)
(0.856368 -3.47216 -5.8401e-20)
(0.865243 -3.28458 1.50614e-19)
(0.886931 -3.13999 2.21306e-20)
(0.916673 -3.02413 -1.98627e-22)
(0.95028 -2.92743 -7.54311e-20)
(0.985006 -2.84338 1.31374e-20)
(1.01904 -2.76761 1.07866e-19)
(1.0512 -2.69724 -5.44162e-20)
(1.08074 -2.6304 9.94788e-20)
(1.1073 -2.56592 -2.80997e-20)
(1.1307 -2.50311 -2.24978e-20)
(1.15099 -2.4415 5.20772e-20)
(1.16828 -2.38084 6.01404e-20)
(1.18273 -2.32086 -3.43239e-20)
(1.19459 -2.26129 6.73717e-20)
(1.20426 -2.20162 -7.54196e-20)
(1.2114 -2.14127 1.08828e-19)
(1.25181 -4.48715 1.53337e-19)
(1.0712 -4.04977 -2.13531e-19)
(1.01915 -3.72122 -1.90301e-19)
(1.00678 -3.47973 2.08607e-19)
(1.01137 -3.29998 -6.89934e-20)
(1.02964 -3.16073 -1.12426e-19)
(1.05631 -3.04815 1.0737e-19)
(1.08686 -2.95311 4.69346e-21)
(1.1184 -2.86948 3.93358e-20)
(1.14905 -2.79317 -1.33076e-19)
(1.17759 -2.72158 6.86321e-20)
(1.20332 -2.65306 -5.84136e-20)
(1.22589 -2.58661 1.67617e-19)
(1.24521 -2.52167 -9.30711e-20)
(1.26136 -2.45792 6.45707e-21)
(1.27451 -2.39516 -1.23116e-20)
(1.28486 -2.33322 -1.4127e-20)
(1.29269 -2.27184 7.31329e-20)
(1.29849 -2.21054 6.55613e-21)
(1.30176 -2.14878 -2.10019e-20)
(1.42936 -4.44233 -2.3162e-19)
(1.23687 -4.02668 1.47871e-19)
(1.17684 -3.71268 3.12416e-20)
(1.15912 -3.48185 -5.63396e-21)
(1.15987 -3.30984 -3.51241e-22)
(1.17493 -3.17575 7.95552e-20)
(1.19856 -3.06626 -2.19508e-19)
(1.22599 -2.9727 -2.59225e-20)
(1.25417 -2.88931 -5.13168e-20)
(1.28118 -2.81235 6.07178e-20)
(1.30583 -2.73946 3.57578e-21)
(1.32746 -2.66923 6.77964e-20)
(1.34577 -2.60083 -4.052e-21)
(1.36074 -2.53383 -1.68143e-19)
(1.3725 -2.46803 -3.9954e-20)
(1.38129 -2.40333 1.57675e-19)
(1.38735 -2.33961 -5.92477e-20)
(1.39102 -2.27665 -1.50615e-20)
(1.39284 -2.21397 3.38076e-20)
(1.39215 -2.15109 1.22596e-20)
(1.60544 -4.39088 1.49615e-19)
(1.40257 -3.9976 -1.67458e-19)
(1.33557 -3.69841 -2.53515e-19)
(1.31319 -3.47825 -3.95305e-20)
(1.31048 -3.31384 -1.18672e-19)
(1.32253 -3.18473 -3.96647e-20)
(1.34314 -3.07812 -1.25652e-19)
(1.36732 -2.98585 2.34496e-19)
(1.39194 -2.90256 -1.0469e-19)
(1.41508 -2.82485 -5.36097e-20)
(1.43556 -2.75063 -2.47286e-20)
(1.4528 -2.67869 7.35461e-20)
(1.46657 -2.60839 1.96954e-22)
(1.47692 -2.53945 -2.69944e-20)
(1.48406 -2.47175 -6.08452e-20)
(1.48828 -2.40528 -7.22062e-20)
(1.48988 -2.34 1.03445e-19)
(1.48927 -2.27571 4.37756e-20)
(1.48702 -2.21192 -1.76002e-19)
(1.48233 -2.14825 1.56324e-19)
(1.77982 -4.33281 -1.57311e-19)
(1.56811 -3.96242 3.96926e-19)
(1.49515 -3.67822 -3.1079e-19)
(1.46874 -3.46867 1.96036e-19)
(1.46296 -3.3117 2.59299e-19)
(1.47214 -3.18735 -1.00019e-19)
(1.48971 -3.08342 -1.70686e-22)
(1.51051 -2.99227 2.71653e-20)
(1.53136 -2.90896 1.04433e-19)
(1.55034 -2.83043 -1.10907e-19)
(1.56638 -2.75487 -7.07348e-20)
(1.57893 -2.68127 7.48961e-20)
(1.58789 -2.60917 -4.16014e-21)
(1.59337 -2.53841 1.2683e-20)
(1.59566 -2.46899 1.51674e-19)
(1.59513 -2.40097 -7.92962e-20)
(1.59214 -2.33436 1.44853e-20)
(1.58715 -2.26902 -9.89612e-20)
(1.58078 -2.20441 2.67643e-19)
(1.57207 -2.14029 -1.90833e-19)
(1.95226 -4.26816 2.30795e-19)
(1.73326 -3.92105 5.32378e-20)
(1.65533 -3.6519 1.2463e-19)
(1.62552 -3.45286 -1.39869e-19)
(1.61701 -3.30312 3.48991e-20)
(1.62344 -3.18331 2.94169e-19)
(1.63791 -3.08186 -5.1545e-20)
(1.65517 -2.99168 2.32481e-19)
(1.67201 -2.90826 -1.5472e-19)
(1.68658 -2.82888 9.04773e-20)
(1.69788 -2.75199 2.17427e-19)
(1.70547 -2.67682 -6.71276e-20)
(1.70934 -2.60305 1.14137e-19)
(1.70972 -2.53064 -2.99807e-20)
(1.70696 -2.4597 -1.5817e-19)
(1.70152 -2.39036 2.25169e-19)
(1.6938 -2.3227 -6.13299e-20)
(1.68434 -2.25658 2.32376e-19)
(1.67383 -2.19148 3.03436e-20)
(1.66111 -2.12725 -3.54085e-19)
(2.1225 -4.19694 -7.15722e-19)
(1.89779 -3.87338 1.3356e-19)
(1.81588 -3.61929 -1.04024e-19)
(1.78326 -3.43058 -3.61305e-19)
(1.77232 -3.28784 -6.5956e-20)
(1.77607 -3.17235 -7.27377e-20)
(1.78738 -3.07319 -2.45892e-20)
(1.8009 -2.98384 -1.64286e-19)
(1.81349 -2.90024 -8.68622e-20)
(1.82337 -2.82001 -2.30312e-20)
(1.82965 -2.74186 -5.77157e-20)
(1.83201 -2.66523 9.87307e-20)
(1.83056 -2.58994 6.89028e-20)
(1.8256 -2.51608 -3.38536e-19)
(1.81761 -2.44385 1.43364e-19)
(1.8071 -2.37344 -1.59621e-19)
(1.79455 -2.305 -1.00427e-19)
(1.78055 -2.23842 8.87226e-20)
(1.76589 -2.17315 4.84743e-20)
(1.7492 -2.10919 -1.12881e-19)
(2.29029 -4.11921 9.32425e-19)
(2.06144 -3.81935 4.92608e-19)
(1.97653 -3.58021 2.46399e-19)
(1.94167 -3.40162 2.50409e-19)
(1.92855 -3.26562 -1.19969e-19)
(1.92967 -3.15421 6.69998e-19)
(1.9377 -3.05717 -3.00629e-19)
(1.9473 -2.96854 6.04526e-19)
(1.95538 -2.88472 -2.36548e-19)
(1.9603 -2.80367 4.50564e-19)
(1.96128 -2.72436 2.21498e-19)
(1.95816 -2.64641 1.37363e-19)
(1.95114 -2.56979 -3.42468e-19)
(1.94065 -2.49471 3.04846e-19)
(1.92726 -2.42143 -7.39575e-20)
(1.91154 -2.35022 2.42539e-19)
(1.89406 -2.2813 6.59701e-20)
(1.87548 -2.21457 3.01471e-19)
(1.85666 -2.14947 -6.69497e-20)
(1.83606 -2.08615 -5.01486e-21)
(2.45539 -4.03502 -4.86112e-19)
(2.22398 -3.75887 2.93529e-19)
(2.13702 -3.53452 6.49479e-20)
(2.10042 -3.36577 -4.4226e-19)
(2.08535 -3.23624 -3.6953e-20)
(2.08385 -3.12868 -6.55383e-21)
(2.08848 -3.03359 1.08867e-19)
(2.09393 -2.9456 -1.59427e-19)
(2.09725 -2.86156 6.17723e-20)
(2.09693 -2.77976 8.60335e-20)
(2.09237 -2.69941 -1.31218e-19)
(2.08352 -2.62032 -9.29655e-20)
(2.07072 -2.54259 5.39284e-20)
(2.05453 -2.46652 -9.96338e-20)
(2.03557 -2.39244 3.20049e-19)
(2.01453 -2.32071 -3.40337e-19)
(1.99202 -2.25159 -2.21176e-19)
(1.96881 -2.18503 3.25798e-19)
(1.94585 -2.12043 -1.23496e-19)
(1.92142 -2.05816 -1.93241e-19)
(2.61755 -3.94442 -2.58443e-19)
(2.38516 -3.6919 -3.21044e-19)
(2.29704 -3.48208 -8.01548e-20)
(2.25918 -3.32285 4.79443e-19)
(2.24233 -3.1995 -2.18298e-19)
(2.23819 -3.09556 2.63493e-20)
(2.23926 -3.00228 -6.11431e-19)
(2.24035 -2.91489 9.41965e-20)
(2.23866 -2.83065 -1.54983e-19)
(2.23285 -2.74819 1.3529e-19)
(2.22249 -2.66697 -3.11667e-19)
(2.2077 -2.58694 1.39735e-19)
(2.18895 -2.50833 -2.06849e-19)
(2.16688 -2.43152 1.32808e-19)
(2.14224 -2.35692 8.88616e-20)
(2.11577 -2.28493 -8.50642e-20)
(2.08815 -2.21588 -3.96995e-19)
(2.06025 -2.14979 2.26661e-19)
(2.03314 -2.08603 -9.8166e-20)
(2.00495 -2.02521 4.89224e-20)
(2.77655 -3.84748 9.68222e-19)
(2.54473 -3.61839 -2.14443e-19)
(2.45631 -3.42276 -3.17694e-19)
(2.4176 -3.2727 1.4629e-19)
(2.39911 -3.15522 2.05061e-19)
(2.39227 -3.0547 -3.03311e-19)
(2.38962 -2.96312 2.06706e-19)
(2.38612 -2.8763 -2.95323e-19)
(2.37917 -2.79193 3.8678e-19)
(2.36764 -2.70895 -4.19351e-19)
(2.35127 -2.62703 1.97841e-19)
(2.33035 -2.54629 -3.17758e-20)
(2.30548 -2.46705 -3.2634e-20)
(2.27742 -2.38976 -2.42951e-19)
(2.24699 -2.31489 3.86668e-19)
(2.21499 -2.24288 -7.65806e-21)
(2.18218 -2.17415 -3.31828e-20)
(2.14951 -2.10878 -4.63084e-21)
(2.11821 -2.04618 -1.53259e-20)
(2.08631 -1.98719 -1.47244e-19)
(2.9322 -3.74428 -8.09662e-19)
(2.70245 -3.5383 -1.32286e-19)
(2.61452 -3.35644 -1.75107e-19)
(2.5753 -3.21516 -1.06531e-18)
(2.55524 -3.10326 -5.86412e-19)
(2.54563 -3.00597 7.03449e-19)
(2.53909 -2.91601 -2.57238e-19)
(2.53078 -2.82977 1.35955e-19)
(2.51835 -2.74537 2.16124e-19)
(2.50087 -2.66203 5.9184e-20)
(2.4783 -2.57964 1.51677e-19)
(2.4511 -2.49843 -7.29593e-20)
(2.42 -2.41883 2.20182e-19)
(2.38586 -2.34133 -1.8668e-19)
(2.34957 -2.26642 7.56461e-20)
(2.31198 -2.19461 -5.29838e-19)
(2.27391 -2.12639 3.52354e-19)
(2.23638 -2.06195 2.34641e-19)
(2.20083 -2.00073 -1.33364e-19)
(2.1653 -1.94377 -1.5136e-19)
(3.08443 -3.63496 3.70641e-19)
(2.85814 -3.45162 3.52746e-19)
(2.77133 -3.28301 2.95157e-19)
(2.73188 -3.15011 9.72657e-19)
(2.7103 -3.04351 -9.46285e-19)
(2.69781 -2.94929 2.58816e-19)
(2.68719 -2.86089 5.82161e-22)
(2.67387 -2.77529 -2.89971e-19)
(2.65574 -2.691 2.98912e-19)
(2.63212 -2.6075 -7.58218e-20)
(2.60321 -2.52486 -9.54223e-20)
(2.56962 -2.44346 -5.01084e-20)
(2.53222 -2.36377 1.10911e-19)
(2.49196 -2.28632 3.71802e-21)
(2.44978 -2.21161 -1.95142e-19)
(2.40658 -2.14018 -2.39516e-19)
(2.36319 -2.0726 1.65648e-19)
(2.32072 -2.00914 1.15314e-19)
(2.28087 -1.94929 -2.36231e-19)
(2.24187 -1.89457 6.4549e-20)
(3.23344 -3.5197 -5.40033e-20)
(3.01167 -3.35826 -7.81447e-19)
(2.92639 -3.20231 -7.88126e-20)
(2.88688 -3.07741 -9.22887e-21)
(2.8638 -2.97586 1.68055e-19)
(2.84833 -2.88459 6.37532e-19)
(2.83346 -2.79776 -1.85848e-19)
(2.81492 -2.71289 -3.04004e-19)
(2.7909 -2.62886 3.01494e-20)
(2.761 -2.54544 1.37935e-19)
(2.72562 -2.46284 -1.30609e-19)
(2.68559 -2.38153 -1.47969e-19)
(2.64187 -2.30204 -4.37463e-20)
(2.59552 -2.2249 1.26271e-19)
(2.54749 -2.1506 9.61884e-20)
(2.4987 -2.07968 4.21146e-19)
(2.44995 -2.0127 1.05677e-19)
(2.40237 -1.94994 -1.3355e-19)
(2.35786 -1.8911 1.47153e-19)
(2.31503 -1.83933 2.58724e-19)
(3.37938 -3.39822 2.71079e-19)
(3.1628 -3.2578 7.65526e-19)
(3.07926 -3.11413 1.08758e-19)
(3.03982 -2.99698 -8.09832e-20)
(3.01525 -2.90032 5.73666e-19)
(2.99669 -2.81192 -1.58784e-19)
(2.97741 -2.72669 -2.031e-19)
(2.95348 -2.64266 5.37915e-19)
(2.9234 -2.55911 -3.42554e-19)
(2.8871 -2.47602 1.6962e-19)
(2.8452 -2.39377 -2.48285e-20)
(2.7987 -2.31288 -4.37047e-20)
(2.74874 -2.23391 -1.99042e-19)
(2.69641 -2.15736 5.15408e-19)
(2.64274 -2.08372 -6.19693e-19)
(2.5886 -2.01342 3.00713e-19)
(2.53478 -1.94687 -8.91807e-20)
(2.48218 -1.88421 -2.14322e-20)
(2.43195 -1.82589 2.92225e-19)
(2.38309 -1.77742 -5.52582e-19)
(5.01427 -0.0152915 5.85455e-20)
(4.99957 -0.212354 -1.84857e-20)
(4.97724 -0.407717 -9.88297e-20)
(4.9474 -0.601393 2.65667e-19)
(4.90991 -0.793211 -2.96944e-19)
(4.86479 -0.982916 -1.33305e-19)
(4.81215 -1.17023 1.02621e-19)
(4.75211 -1.35487 1.41693e-19)
(4.68483 -1.53655 -1.07898e-19)
(4.61047 -1.715 1.04911e-19)
(4.52921 -1.88994 -6.07557e-21)
(4.44123 -2.06112 2.37646e-21)
(4.34674 -2.22829 -7.13303e-20)
(4.24593 -2.39121 3.26075e-19)
(4.13902 -2.54966 -3.18836e-19)
(4.02624 -2.70343 2.20883e-19)
(3.9078 -2.85234 -2.98659e-19)
(3.78396 -2.99623 -2.44634e-19)
(3.65496 -3.13501 -4.93919e-20)
(3.5211 -3.26878 2.54177e-20)
(5.04566 -0.0824076 -1.23927e-20)
(5.01951 -0.279108 -7.2794e-20)
(4.98473 -0.473428 1.43169e-19)
(4.94167 -0.665178 2.29292e-19)
(4.89048 -0.854089 -6.17504e-20)
(4.83133 -1.03984 -3.05523e-19)
(4.76441 -1.22209 5.40464e-19)
(4.68996 -1.40053 -1.13093e-19)
(4.60822 -1.57485 -6.17458e-19)
(4.51945 -1.74475 2.92405e-19)
(4.42393 -1.90994 9.5964e-20)
(4.32194 -2.07018 5.4449e-19)
(4.2138 -2.22521 -1.02816e-18)
(4.09981 -2.37482 1.98725e-20)
(3.98028 -2.51881 2.54784e-19)
(3.85554 -2.65702 3.977e-19)
(3.7259 -2.78929 6.76116e-19)
(3.59168 -2.91553 -2.48645e-19)
(3.45315 -3.03566 -5.26158e-19)
(3.31051 -3.14975 5.28331e-19)
(5.04742 -0.0609951 4.52703e-20)
(5.01932 -0.255765 -5.32105e-20)
(4.98202 -0.448197 3.75198e-20)
(4.93584 -0.63788 -1.07509e-19)
(4.88102 -0.824422 1.35939e-19)
(4.81783 -1.00742 3.3143e-19)
(4.74652 -1.18649 -3.58196e-19)
(4.66738 -1.36126 5.51324e-20)
(4.5807 -1.53139 2.33295e-19)
(4.48681 -1.69653 4.83629e-19)
(4.38603 -1.85638 -1.13984e-19)
(4.27872 -2.01065 7.99359e-19)
(4.16522 -2.15908 3.64728e-20)
(4.04592 -2.30144 -8.42979e-19)
(3.9212 -2.43751 -1.09059e-19)
(3.79143 -2.56713 -2.1864e-19)
(3.657 -2.69014 -4.49932e-19)
(3.51827 -2.80642 -2.13554e-19)
(3.37559 -2.91588 -3.70171e-19)
(3.22927 -3.01847 4.12397e-19)
(5.0104 -0.0337511 -9.28769e-21)
(4.98419 -0.224958 2.56917e-20)
(4.94857 -0.414063 -3.50923e-20)
(4.90376 -0.600555 -1.95507e-19)
(4.85001 -0.783962 -8.57004e-20)
(4.78758 -0.96383 -1.10679e-19)
(4.71676 -1.13972 3.9532e-19)
(4.63783 -1.31122 -1.05229e-20)
(4.55111 -1.47794 -3.76143e-19)
(4.45694 -1.63951 1.26342e-20)
(4.35567 -1.79557 -2.17665e-19)
(4.24767 -1.94581 5.16272e-20)
(4.13334 -2.08993 -1.08109e-18)
(4.01308 -2.22767 5.37423e-19)
(3.8873 -2.3588 -3.17714e-19)
(3.75641 -2.48309 -9.98831e-20)
(3.62084 -2.60039 -1.199e-18)
(3.48101 -2.71054 1.14192e-18)
(3.33732 -2.81342 -5.36628e-19)
(3.19017 -2.90893 -3.28658e-19)
(4.93714 -0.0152919 4.50538e-21)
(4.91454 -0.201504 -6.22919e-20)
(4.88253 -0.385923 9.06349e-20)
(4.84128 -0.568012 1.13694e-19)
(4.79099 -0.747262 -1.34368e-19)
(4.73189 -0.923188 4.27748e-19)
(4.66425 -1.09532 -1.35466e-19)
(4.58834 -1.26321 -2.6495e-21)
(4.50447 -1.42644 -1.98102e-19)
(4.41297 -1.58459 4.27469e-19)
(4.31419 -1.73729 3.07467e-19)
(4.20851 -1.88418 1.74683e-19)
(4.09631 -2.02493 1.05207e-19)
(3.97801 -2.15925 -3.24303e-19)
(3.85402 -2.28687 2.25934e-19)
(3.72479 -2.40754 7.80595e-19)
(3.59074 -2.52105 7.96727e-19)
(3.45233 -2.62723 -5.63583e-19)
(3.31 -2.72592 1.96912e-19)
(3.16418 -2.81698 -5.7356e-20)
(4.83447 -0.00136416 1.15396e-20)
(4.81626 -0.181481 -1.54343e-20)
(4.78882 -0.360153 -8.26898e-20)
(4.75225 -0.536844 3.72629e-20)
(4.70671 -0.711035 -6.15111e-22)
(4.6524 -0.882229 2.7899e-20)
(4.58955 -1.04994 -2.10767e-19)
(4.5184 -1.2137 1.56209e-19)
(4.43923 -1.37307 -3.12834e-19)
(4.35236 -1.52761 3.33e-19)
(4.25811 -1.67693 -4.7804e-20)
(4.15683 -1.82063 1.63234e-19)
(4.04891 -1.95837 -4.82361e-19)
(3.93473 -2.08981 -1.98472e-19)
(3.81472 -2.21466 5.17264e-19)
(3.6893 -2.33263 -3.72192e-19)
(3.55891 -2.4435 -5.32581e-19)
(3.42401 -2.54703 2.73188e-19)
(3.28504 -2.64305 -1.75947e-19)
(3.14246 -2.73139 5.20056e-19)
(4.71049 0.00866921 -8.49049e-21)
(4.69675 -0.164623 3.97019e-20)
(4.67407 -0.336817 2.53543e-20)
(4.6425 -0.507388 -2.97994e-20)
(4.60216 -0.675826 1.28605e-19)
(4.55323 -0.841635 -3.58295e-19)
(4.49588 -1.00433 2.04921e-19)
(4.43033 -1.16344 -1.54498e-19)
(4.35682 -1.3185 7.45386e-21)
(4.27564 -1.46909 -2.35288e-19)
(4.18707 -1.61477 3.58992e-19)
(4.09145 -1.75516 8.74891e-19)
(3.98912 -1.88988 -8.53389e-19)
(3.88046 -2.01857 -6.25618e-19)
(3.76586 -2.14091 -3.6093e-19)
(3.64573 -2.2566 2.53434e-19)
(3.5205 -2.36536 -2.79995e-19)
(3.3906 -2.46696 7.44387e-21)
(3.25648 -2.56117 6.17413e-19)
(3.11861 -2.64779 -1.88684e-21)
(4.57302 0.0149254 -4.28237e-21)
(4.56338 -0.151153 2.82438e-20)
(4.54515 -0.316448 9.13339e-21)
(4.51837 -0.480456 -1.55816e-19)
(4.48312 -0.642684 1.72293e-19)
(4.43955 -0.802648 -1.51201e-19)
(4.38778 -0.959872 4.28461e-19)
(4.32802 -1.11389 -4.6829e-20)
(4.26046 -1.26425 -2.27744e-19)
(4.18534 -1.41052 4.18244e-20)
(4.10294 -1.55226 -6.98436e-20)
(4.01354 -1.68908 -2.29651e-19)
(3.91746 -1.82059 -5.17448e-19)
(3.81504 -1.94643 -2.17821e-19)
(3.70665 -2.06625 5.10106e-19)
(3.59266 -2.17973 -3.61379e-19)
(3.47349 -2.28659 -2.15232e-19)
(3.34955 -2.38654 -3.2015e-19)
(3.22128 -2.47934 4.51537e-20)
(3.08911 -2.56477 2.71148e-20)
(4.42874 0.0180322 3.37083e-21)
(4.42258 -0.140723 3.48569e-21)
(4.40826 -0.298963 -3.62252e-21)
(4.38576 -0.45621 -4.416e-20)
(4.35517 -0.611996 -1.00851e-19)
(4.31657 -0.765853 -6.69158e-20)
(4.27009 -0.917325 -3.10127e-19)
(4.21587 -1.06596 2.86767e-19)
(4.15411 -1.21132 -1.67016e-19)
(4.08499 -1.35296 3.6537e-19)
(4.00875 -1.49049 -6.9486e-20)
(3.92566 -1.62348 6.09207e-19)
(3.83599 -1.75156 3.99004e-19)
(3.74006 -1.87435 8.03696e-19)
(3.63819 -1.9915 -5.54168e-19)
(3.53074 -2.10269 4.88781e-19)
(3.41808 -2.20761 -9.89121e-20)
(3.3006 -2.30596 3.31436e-19)
(3.17872 -2.39749 3.50293e-19)
(3.05284 -2.48194 -4.95128e-19)
(4.2829 0.0187279 -2.73835e-20)
(4.27956 -0.132805 -7.73853e-22)
(4.26847 -0.28404 9.86234e-20)
(4.24963 -0.434528 -9.0461e-20)
(4.22308 -0.583827 5.62104e-20)
(4.1889 -0.731493 2.16923e-19)
(4.14718 -0.87709 -7.11412e-20)
(4.09805 -1.02019 -6.71088e-20)
(4.04166 -1.16036 -9.02734e-20)
(3.97818 -1.29719 1.52895e-19)
(3.90782 -1.43028 -2.14922e-19)
(3.8308 -1.55923 3.94556e-19)
(3.74738 -1.68366 -3.88112e-19)
(3.65783 -1.80321 1.08437e-19)
(3.56245 -1.91751 1.78214e-19)
(3.46155 -2.02625 1.29875e-19)
(3.3555 -2.12911 -2.45743e-19)
(3.24463 -2.22578 -3.82025e-19)
(3.12935 -2.31599 1.34219e-19)
(3.01004 -2.39948 4.08535e-20)
(4.13939 0.0176811 2.87892e-20)
(4.13819 -0.126877 7.70356e-20)
(4.12968 -0.271305 -1.72268e-19)
(4.11382 -0.415185 -1.34116e-19)
(4.09067 -0.558098 -6.92251e-20)
(4.06027 -0.699629 -1.88458e-19)
(4.0227 -0.839365 1.34306e-19)
(3.97806 -0.976898 1.67332e-19)
(3.92649 -1.11182 -3.63384e-19)
(3.86814 -1.24375 1.78795e-19)
(3.80317 -1.37228 1.79137e-19)
(3.7318 -1.49704 4.25435e-19)
(3.65424 -1.61766 -3.07755e-19)
(3.57075 -1.73379 4.27505e-19)
(3.48158 -1.84507 -3.90208e-19)
(3.38703 -1.95119 -6.27475e-20)
(3.28741 -2.05182 -1.08602e-19)
(3.18306 -2.14667 4.7455e-19)
(3.07433 -2.23546 1.27612e-19)
(2.96158 -2.3179 -1.44374e-19)
(4.00085 0.0154629 -2.53869e-20)
(4.0012 -0.122462 1.5262e-20)
(3.99463 -0.260381 1.11759e-19)
(3.98113 -0.397904 1.33809e-20)
(3.96073 -0.534638 1.60087e-19)
(3.93348 -0.670196 1.32083e-19)
(3.89942 -0.804189 -1.13129e-19)
(3.85867 -0.936232 -1.6159e-19)
(3.81131 -1.06595 1.31045e-19)
(3.7575 -1.19295 1.05294e-19)
(3.69737 -1.31689 -1.02457e-19)
(3.63112 -1.43739 2.75296e-19)
(3.55893 -1.55411 -6.45428e-19)
(3.48103 -1.6667 1.49541e-19)
(3.39766 -1.77482 1.75575e-19)
(3.30907 -1.87817 -3.04013e-19)
(3.21557 -1.97643 -6.09302e-19)
(3.11744 -2.06931 2.01112e-19)
(3.01502 -2.15652 -1.67964e-19)
(2.90866 -2.23779 -1.55843e-19)
(3.86894 0.0125387 -1.1088e-20)
(3.8703 -0.119145 1.00652e-20)
(3.86514 -0.25091 -5.31569e-20)
(3.85345 -0.382392 -3.11905e-20)
(3.83522 -0.513224 -1.03691e-20)
(3.81052 -0.643043 -1.22484e-19)
(3.77939 -0.771487 3.28774e-19)
(3.74191 -0.898194 1.09586e-20)
(3.69818 -1.02281 -1.91138e-21)
(3.64831 -1.14498 -2.85697e-19)
(3.59245 -1.26435 2.8554e-19)
(3.53074 -1.3806 -1.57096e-19)
(3.46338 -1.49338 2.93918e-19)
(3.39056 -1.60236 -4.40861e-19)
(3.31249 -1.70725 -1.33296e-20)
(3.22941 -1.80772 -2.63067e-19)
(3.14159 -1.90348 5.1202e-19)
(3.04929 -1.99425 -1.25037e-19)
(2.95284 -2.07976 -4.70925e-20)
(2.85254 -2.15971 -3.04391e-19)
(3.74452 0.00927005 3.41432e-20)
(3.74648 -0.116585 -2.47626e-21)
(3.74228 -0.242578 6.84812e-20)
(3.7319 -0.368369 -7.07546e-20)
(3.71536 -0.493616 8.39789e-20)
(3.69269 -0.617978 -5.11475e-20)
(3.66395 -0.741117 -1.84359e-19)
(3.6292 -0.862695 7.41349e-20)
(3.58854 -0.982381 6.92716e-20)
(3.54207 -1.09984 -9.45733e-20)
(3.48991 -1.21476 8.42319e-21)
(3.43221 -1.32681 -1.17634e-20)
(3.36913 -1.43568 -2.9616e-19)
(3.30085 -1.54106 3.25828e-19)
(3.22757 -1.64267 1.6748e-19)
(3.1495 -1.7402 6.18434e-19)
(3.06689 -1.83338 -8.79816e-19)
(2.97997 -1.92194 2.27868e-19)
(2.88905 -2.00563 5.53532e-19)
(2.79443 -2.08416 4.33132e-19)
(3.62788 0.00592559 -2.60938e-20)
(3.6301 -0.114511 1.96728e-20)
(3.6265 -0.23512 -2.46781e-20)
(3.61706 -0.355582 -1.53821e-19)
(3.60179 -0.475578 1.54879e-19)
(3.58072 -0.59479 5.39491e-20)
(3.55392 -0.7129 1.358e-20)
(3.52144 -0.829596 1.4963e-19)
(3.48336 -0.944566 -3.41944e-19)
(3.43978 -1.0575 2.70582e-19)
(3.39083 -1.1681 -2.93782e-20)
(3.33662 -1.27607 4.38751e-19)
(3.27732 -1.38111 -5.50844e-19)
(3.21308 -1.48295 8.48775e-22)
(3.14408 -1.58129 -2.98646e-19)
(3.07053 -1.67588 3.76126e-20)
(2.99264 -1.76644 5.14059e-19)
(2.91064 -1.85273 -4.23608e-19)
(2.8248 -1.93454 -1.11168e-19)
(2.73541 -2.01154 -7.20443e-19)
(3.51891 0.00269007 7.48234e-21)
(3.52116 -0.112719 8.52971e-22)
(3.51788 -0.228319 -5.7635e-20)
(3.50907 -0.34381 2.39375e-20)
(3.49475 -0.458891 5.17104e-20)
(3.47495 -0.573267 7.37424e-20)
(3.44971 -0.68664 -2.88941e-20)
(3.4191 -0.798718 7.06541e-20)
(3.3832 -0.909212 -1.28369e-19)
(3.3421 -1.01784 -1.78081e-19)
(3.29592 -1.12431 -6.45221e-20)
(3.24476 -1.22835 -3.32435e-20)
(3.18878 -1.32969 -6.36759e-20)
(3.12812 -1.42807 -4.54921e-20)
(3.06295 -1.52323 1.13583e-19)
(2.99345 -1.61491 -1.23821e-20)
(2.91983 -1.70288 -4.4133e-19)
(2.84229 -1.78689 -7.64498e-20)
(2.76108 -1.8668 4.51743e-19)
(2.67646 -1.9422 2.28691e-19)
(3.41726 -0.000327946 1.06513e-21)
(3.41936 -0.111071 1.62516e-20)
(3.41622 -0.222012 -6.07677e-22)
(3.40783 -0.332868 5.75377e-20)
(3.39421 -0.443358 -1.13633e-19)
(3.3754 -0.553205 -1.22213e-19)
(3.35145 -0.66213 1.66113e-19)
(3.32241 -0.769862 -1.12082e-19)
(3.28837 -0.876131 -6.65171e-21)
(3.24941 -0.98067 1.23757e-19)
(3.20564 -1.08322 3.17554e-21)
(3.15716 -1.18352 2.18481e-19)
(3.10412 -1.28133 -9.71623e-20)
(3.04666 -1.37639 -1.18026e-19)
(2.98493 -1.46848 -3.18511e-19)
(2.91909 -1.55735 -2.76766e-20)
(2.84935 -1.64279 -3.053e-19)
(2.77586 -1.72454 1.8853e-19)
(2.69887 -1.80257 2.83906e-19)
(2.61853 -1.87628 -1.65156e-19)
(3.3224 -0.00304977 -1.54505e-20)
(3.32426 -0.109485 3.30019e-20)
(3.32113 -0.216116 5.52295e-20)
(3.31301 -0.322675 -6.11517e-20)
(3.29994 -0.428899 9.483e-20)
(3.28194 -0.534528 -3.12789e-20)
(3.25906 -0.639304 -4.05556e-20)
(3.23138 -0.742972 -2.88599e-20)
(3.19895 -0.845282 -1.31178e-21)
(3.16187 -0.945987 -2.38008e-19)
(3.12024 -1.04485 2.45661e-20)
(3.07416 -1.14162 1.12396e-19)
(3.02377 -1.23608 2.53466e-19)
(2.9692 -1.32801 4.50496e-19)
(2.91058 -1.41718 -5.07163e-20)
(2.84809 -1.50337 5.04571e-19)
(2.7819 -1.5864 -2.0991e-19)
(2.71213 -1.66597 2.91811e-19)
(2.63908 -1.74215 1.63797e-19)
(2.56253 -1.81385 -8.96373e-20)
(3.23374 -0.00534096 6.43027e-21)
(3.23531 -0.107883 -1.69667e-20)
(3.23213 -0.210614 -1.2206e-19)
(3.2242 -0.313283 -1.00622e-19)
(3.21156 -0.415645 1.20734e-19)
(3.19423 -0.517454 1.79826e-19)
(3.17228 -0.618471 1.20337e-20)
(3.14575 -0.718458 -1.01876e-19)
(3.11474 -0.817182 -1.41366e-19)
(3.07931 -0.914417 6.64352e-20)
(3.03957 -1.00994 -1.55541e-20)
(2.99562 -1.10353 -4.24828e-19)
(2.94758 -1.19498 -4.23462e-19)
(2.89558 -1.28409 1.59578e-19)
(2.83975 -1.37064 1.88074e-19)
(2.78024 -1.45446 -1.87516e-20)
(2.71724 -1.53535 -1.46851e-19)
(2.6508 -1.61301 -1.13753e-19)
(2.5814 -1.68754 -1.45446e-19)
(2.50825 -1.75658 2.36996e-19)
(3.1506 -0.00725728 -2.12992e-20)
(3.1519 -0.106102 3.68378e-20)
(3.14868 -0.205171 2.26029e-20)
(3.14094 -0.304227 3.63922e-20)
(3.12871 -0.403042 -1.38447e-19)
(3.11202 -0.501388 -1.68634e-19)
(3.09093 -0.59904 -3.85236e-20)
(3.06547 -0.695778 2.06664e-19)
(3.03574 -0.791384 -1.17391e-19)
(3.0018 -0.885647 4.85399e-20)
(2.96374 -0.97836 -1.84204e-19)
(2.92166 -1.06932 3.58039e-19)
(2.87566 -1.15833 -3.43611e-19)
(2.82587 -1.24521 -8.31286e-20)
(2.77241 -1.32976 -1.03781e-19)
(2.71541 -1.41181 -1.26883e-20)
(2.65505 -1.4912 -1.68334e-19)
(2.59135 -1.56763 2.10232e-19)
(2.52531 -1.6412 1.16592e-19)
(2.45552 -1.70806 -5.91893e-19)
(3.61636 3.5885 4.98007e-19)
(3.75523 3.44261 -7.4879e-19)
(3.88765 3.29216 2.63032e-19)
(4.01381 3.13705 -4.08905e-19)
(4.13339 2.97711 4.69359e-20)
(4.2461 2.81241 -4.16704e-19)
(4.35175 2.64322 -8.81604e-20)
(4.45014 2.4698 -4.08428e-19)
(4.5411 2.29247 -2.33249e-20)
(4.62448 2.11157 1.55694e-19)
(4.70012 1.92744 1.92886e-19)
(4.76792 1.74043 -3.11371e-19)
(4.82776 1.55089 1.59637e-19)
(4.87957 1.35918 4.58987e-19)
(4.92328 1.16568 -8.12611e-20)
(4.95885 0.970731 -2.69599e-19)
(4.98627 0.774702 3.61155e-19)
(5.00554 0.577942 -2.21766e-19)
(5.01673 0.380781 -3.32441e-20)
(5.02 0.183501 -2.33734e-20)
(3.71638 3.56278 3.10045e-19)
(3.85852 3.41874 -9.06837e-19)
(3.99363 3.26877 -3.36975e-19)
(4.12186 3.11315 3.36445e-19)
(4.24298 2.95203 -1.84025e-19)
(4.35671 2.78563 3.41121e-19)
(4.46278 2.61426 6.47357e-20)
(4.56093 2.43827 -5.02421e-19)
(4.65093 2.25802 1.79698e-19)
(4.73258 2.07392 1.33142e-19)
(4.80567 1.88637 4.48161e-19)
(4.87005 1.69581 -3.77517e-19)
(4.9256 1.50267 -1.98231e-19)
(4.97221 1.30741 4.34193e-19)
(5.00982 1.11048 -2.50903e-19)
(5.03839 0.912331 4.83318e-20)
(5.0579 0.713409 -1.60807e-19)
(5.06839 0.514147 -4.19684e-21)
(5.06988 0.314948 -7.98338e-20)
(5.0625 0.116158 2.10504e-20)
(3.69002 3.51643 6.85806e-20)
(3.8348 3.38029 -3.62879e-20)
(3.9729 3.2373 8.13868e-19)
(4.10413 3.08785 -2.57995e-19)
(4.22823 2.93226 2.68976e-19)
(4.3449 2.77087 -1.76275e-19)
(4.45383 2.60403 -1.47352e-19)
(4.55473 2.43212 -6.81956e-19)
(4.64732 2.25554 7.73531e-19)
(4.73136 2.07469 -4.7308e-19)
(4.80661 1.89004 -2.1104e-19)
(4.87287 1.70203 -3.46318e-19)
(4.92998 1.51114 1.82697e-19)
(4.97779 1.31785 -2.00602e-19)
(5.01621 1.12266 1.49276e-19)
(5.04517 0.926076 -3.18484e-19)
(5.06463 0.728582 3.33907e-19)
(5.07458 0.530672 1.38539e-19)
(5.07503 0.332822 -2.50462e-20)
(5.06604 0.135503 2.9469e-20)
(3.6117 3.41946 -6.80591e-20)
(3.75663 3.29274 -3.75161e-20)
(3.89547 3.15882 1.80578e-19)
(4.02782 3.01804 -4.05325e-19)
(4.15337 2.87075 7.13531e-19)
(4.27175 2.7173 2.39268e-19)
(4.38264 2.55806 3.44829e-20)
(4.4857 2.3934 -4.59407e-20)
(4.58064 2.22373 6.13714e-19)
(4.66716 2.04946 2.55991e-19)
(4.74501 1.87104 5.07388e-19)
(4.81395 1.68892 -1.16627e-19)
(4.87377 1.5036 -5.08115e-20)
(4.92432 1.31556 -1.56581e-19)
(4.96543 1.1253 1.02223e-19)
(4.99702 0.933353 1.59358e-19)
(5.01901 0.740222 -2.65167e-19)
(5.03135 0.546432 1.01122e-19)
(5.03403 0.352499 6.6054e-21)
(5.02707 0.158953 1.64747e-20)
(3.50807 3.28391 4.76033e-19)
(3.65093 3.16673 8.12752e-20)
(3.78828 3.0423 -9.67145e-19)
(3.91968 2.9109 -3.07521e-19)
(4.04474 2.77285 -1.37566e-19)
(4.16308 2.62849 -6.37889e-19)
(4.27433 2.47814 5.8726e-19)
(4.37816 2.32219 -2.70063e-19)
(4.47424 2.161 3.23832e-19)
(4.56224 1.99499 -1.20452e-19)
(4.6419 1.82459 2.12234e-19)
(4.71295 1.65024 -3.33501e-19)
(4.77517 1.4724 -2.90282e-20)
(4.82834 1.29157 -1.37392e-19)
(4.87231 1.10824 -9.91656e-20)
(4.90693 0.922913 5.67785e-20)
(4.93209 0.736112 -2.98524e-20)
(4.94773 0.548361 4.96224e-20)
(4.9538 0.360188 -5.9155e-20)
(4.95028 0.172134 8.1277e-21)
(3.3894 3.12918 -9.71558e-20)
(3.52866 3.02117 1.20419e-20)
(3.66297 2.90601 4.11626e-19)
(3.79186 2.78395 -8.83586e-20)
(3.91493 2.65526 2.62024e-19)
(4.03179 2.52025 -8.71687e-19)
(4.14206 2.37922 -1.44427e-19)
(4.24539 2.23251 -4.40403e-19)
(4.34143 2.08048 1.07322e-19)
(4.42987 1.92351 1.47978e-19)
(4.51039 1.76201 3.08095e-19)
(4.58275 1.59638 -4.36851e-19)
(4.64667 1.42709 2.22569e-19)
(4.70196 1.25459 3.2784e-19)
(4.7484 1.07934 1.12293e-20)
(4.78584 0.901858 -1.3212e-19)
(4.81415 0.722629 -1.12548e-20)
(4.83323 0.542169 -2.72872e-20)
(4.843 0.360997 6.77894e-21)
(4.84342 0.179647 -5.58218e-21)
(3.26513 2.96734 1.76234e-19)
(3.39978 2.86777 1.1439e-19)
(3.52999 2.76128 7.43321e-20)
(3.65528 2.64804 -4.2936e-19)
(3.77525 2.52831 -4.06097e-19)
(3.88951 2.40235 9.36044e-19)
(3.9977 2.27045 9.6121e-20)
(4.09943 2.13291 -3.27147e-19)
(4.19438 1.99006 2.98635e-19)
(4.28223 1.84224 -4.73741e-19)
(4.36266 1.68984 7.56222e-20)
(4.43541 1.53324 2.10679e-19)
(4.50021 1.37286 -1.53664e-19)
(4.55683 1.20913 -6.52953e-20)