/*--------------------------------*- C++ -*----------------------------------*\
  =========                 |
  \\      /  F ield         | OpenFOAM: The Open Source CFD Toolbox
   \\    /   O peration     | Website:  https://openfoam.org
    \\  /    A nd           | Version:  6.0
     \\/     M anipulation  |
\*---------------------------------------------------------------------------*/
FoamFile
{
    version     2.0;
    format      ascii;
    class       volVectorField;
    location    "19";
    object      U;
}
// * * * * * * * * * * * * * * * * * * * * * * * * * * * * * * * * * * * * * //

dimensions      [0 1 -1 0 0 0 0];

internalField   nonuniform List<vector> 
2400
(
(1.33784 -8.35784 -8.84201e-19)
(0.370806 -7.64717 3.46594e-19)
(0.558055 -7.31505 -2.94854e-19)
(0.788181 -7.03572 -1.70102e-19)
(0.91169 -6.75149 -2.40031e-19)
(0.994917 -6.44937 3.3152e-19)
(1.05809 -6.14005 1.12749e-19)
(1.10472 -5.83911 8.31701e-20)
(1.14309 -5.55737 -1.87169e-19)
(1.17468 -5.29968 -1.23241e-20)
(2.00889 -8.30224 1.03399e-18)
(0.996956 -7.75632 -4.54468e-20)
(1.15603 -7.4413 2.12605e-19)
(1.35604 -7.14451 1.62669e-18)
(1.44716 -6.83837 -1.11552e-18)
(1.49702 -6.51464 -5.1799e-20)
(1.5277 -6.18725 -1.46568e-20)
(1.5445 -5.87321 -1.22719e-19)
(1.55705 -5.58287 -1.6247e-19)
(1.56499 -5.32133 -1.81207e-20)
(2.68037 -8.19535 1.88358e-18)
(1.63983 -7.8129 1.48768e-18)
(1.77201 -7.5131 -3.77356e-18)
(1.93863 -7.19905 1.09853e-18)
(1.99349 -6.87306 1.49564e-18)
(2.00659 -6.53107 -8.40917e-19)
(2.00227 -6.18956 -6.32691e-19)
(1.98772 -5.86633 4.72693e-19)
(1.9736 -5.57084 -9.8141e-19)
(1.95641 -5.30914 9.23553e-19)
(3.34678 -8.03529 -6.49389e-18)
(2.29424 -7.81333 2.43306e-18)
(2.40025 -7.52709 -2.31131e-18)
(2.53008 -7.19673 9.88618e-19)
(2.54507 -6.8537 -9.89211e-19)
(2.51843 -6.49738 1.36364e-18)
(2.47702 -6.14609 4.98392e-19)
(2.43009 -5.81774 -1.93084e-18)
(2.38878 -5.52079 -1.56043e-18)
(2.34528 -5.26331 1.60514e-18)
(4.00409 -7.82115 3.53253e-19)
(2.95498 -7.75504 -9.6597e-19)
(3.035 -7.48099 -4.13581e-19)
(3.12467 -7.13602 -4.79242e-19)
(3.09654 -6.77948 -2.49302e-18)
(3.02763 -6.41319 3.55235e-19)
(2.94742 -6.05657 -2.20634e-19)
(2.86714 -5.72708 1.99785e-18)
(2.79794 -5.43225 -1.36505e-18)
(2.72688 -5.18351 -7.51252e-19)
(4.64713 -7.55218 5.87676e-18)
(3.61591 -7.63575 -4.73341e-19)
(3.66978 -7.37295 6.42689e-18)
(3.71622 -7.01593 -8.5699e-19)
(3.64243 -6.65018 3.04901e-18)
(3.5296 -6.27897 -3.69574e-19)
(3.40963 -5.92188 1.89488e-20)
(3.29536 -5.59525 1.70033e-18)
(3.19727 -5.30574 -9.19036e-19)
(3.09736 -5.06914 1.23309e-18)
(5.27106 -7.22851 -2.32076e-18)
(4.27094 -7.45423 4.94632e-19)
(4.29799 -7.20189 -1.73986e-18)
(4.29816 -6.83587 -1.56327e-18)
(4.17659 -6.46582 2.46669e-20)
(4.01904 -6.09539 4.67849e-18)
(3.85972 -5.74349 -1.63798e-18)
(3.71246 -5.42431 5.57821e-19)
(3.58598 -5.14327 -2.28272e-18)
(3.45743 -4.92131 -1.00798e-18)
(5.87128 -6.85112 9.7492e-18)
(4.91426 -7.21001 -1.25689e-18)
(4.91326 -6.96729 -8.85946e-18)
(4.86389 -6.59545 4.65149e-19)
(4.69204 -6.22592 1.59571e-18)
(4.48846 -5.86187 -2.21302e-18)
(4.29021 -5.52081 -2.60951e-18)
(4.11255 -5.21409 3.82299e-18)
(3.96162 -4.94639 -3.49459e-19)
(3.80823 -4.74732 -2.7752e-18)
(6.44372 -6.42159 -8.0199e-18)
(5.54084 -6.90345 4.09596e-18)
(5.51039 -6.66964 5.58454e-18)
(5.40848 -6.29514 1.33056e-18)
(5.18363 -5.93028 -4.58451e-18)
(4.93102 -5.57655 2.76989e-18)
(4.69053 -5.24954 1.49015e-18)
(4.47993 -4.95874 2.95721e-18)
(4.30395 -4.71332 -1.86111e-18)
(4.12768 -4.55941 -2.36285e-18)
(6.98364 -5.94114 2.60261e-18)
(6.14551 -6.53558 -1.03662e-18)
(6.08493 -6.31076 -2.84193e-19)
(5.929 -5.93691 1.27528e-18)
(5.65068 -5.58004 9.50187e-19)
(5.34788 -5.23845 -7.19891e-19)
(5.06019 -4.92541 -1.22869e-18)
(4.8033 -4.65156 1.87195e-18)
(4.57773 -4.43783 -1.52501e-18)
(4.35485 -4.34161 1.32817e-18)
(9.76749 0.827098 1.48528e-19)
(9.74308 0.0560879 4.66213e-19)
(9.65253 -0.707956 -1.47075e-18)
(9.50215 -1.45979 1.34792e-18)
(9.29545 -2.1914 5.31925e-19)
(9.03334 -2.89881 6.90632e-18)
(8.71789 -3.57838 -2.72528e-18)
(8.35268 -4.22602 -3.91637e-18)
(7.93969 -4.83835 4.45911e-18)
(7.48442 -5.4109 -7.73312e-18)
(9.85058 -0.319169 4.2501e-19)
(9.73629 -1.07346 -2.0336e-19)
(9.55362 -1.81581 -1.26484e-18)
(9.30723 -2.53959 3.3745e-18)
(9.00165 -3.23339 -1.18264e-18)
(8.64032 -3.89311 9.19866e-18)
(8.22693 -4.51468 -6.03891e-18)
(7.76642 -5.09386 8.80735e-18)
(7.26278 -5.62653 -6.37881e-18)
(6.72185 -6.10888 -3.33219e-18)
(9.47694 -0.307349 -7.97993e-19)
(9.39348 -1.02172 5.48342e-20)
(9.24517 -1.73012 -3.48226e-18)
(9.03326 -2.42424 2.64446e-18)
(8.76078 -3.09286 -2.9396e-18)
(8.43161 -3.73181 -5.78944e-18)
(8.04924 -4.33623 -2.03973e-18)
(7.61878 -4.9018 -1.47303e-18)
(7.1446 -5.42275 5.89774e-18)
(6.63175 -5.89376 3.46136e-18)
(8.86475 -0.223139 3.25694e-19)
(8.81355 -0.884925 -5.66658e-19)
(8.70287 -1.54469 -7.89632e-19)
(8.53216 -2.19424 -3.24941e-18)
(8.3039 -2.82458 2.14494e-18)
(8.02088 -3.43164 5.97495e-18)
(7.68734 -4.01063 2.41908e-18)
(7.30656 -4.55627 5.20703e-19)
(6.88291 -5.06233 1.42444e-18)
(6.42235 -5.52441 1.50535e-19)
(8.24486 -0.211099 -3.44936e-19)
(8.20803 -0.820898 -1.35927e-18)
(8.11709 -1.42967 1.2048e-19)
(7.97107 -2.03098 2.56353e-18)
(7.77257 -2.61757 2.79795e-18)
(7.52309 -3.18635 -1.9234e-18)
(7.22696 -3.73153 -3.44015e-18)
(6.88634 -4.24906 -1.83615e-18)
(6.50716 -4.73309 1.99868e-18)
(6.0935 -5.1789 3.20993e-18)
(7.69771 -0.205641 8.32802e-20)
(7.6651 -0.769162 1.11141e-18)
(7.58338 -1.33145 -2.61583e-18)
(7.45117 -1.88826 3.20876e-18)
(7.27171 -2.43286 1.95711e-18)
(7.0448 -2.96386 3.76619e-18)
(6.77602 -3.47418 -8.02849e-19)
(6.46482 -3.96325 -2.34608e-18)
(6.1214 -4.42284 5.51159e-18)
(5.74597 -4.85078 -4.84304e-18)
(7.23566 -0.195812 1.63805e-19)
(7.20248 -0.719529 -1.20663e-18)
(7.12477 -1.24138 -7.81855e-19)
(6.99986 -1.7592 -1.71284e-18)
(6.83291 -2.2655 -2.45306e-19)
(6.61995 -2.76211 -2.48529e-18)
(6.37106 -3.23914 -1.64307e-18)
(6.0794 -3.70288 -2.71548e-19)
(5.76447 -4.13837 -3.28209e-18)
(5.41725 -4.55078 4.5935e-18)
(6.84718 -0.183919 -1.34842e-19)
(6.81156 -0.674171 9.9326e-19)
(6.73573 -1.16159 -4.43517e-19)
(6.61439 -1.64601 9.65416e-19)
(6.45645 -2.11795 2.34057e-18)
(6.25137 -2.58411 3.963e-18)
(6.01803 -3.02934 -1.05456e-18)
(5.73587 -3.47281 -3.88564e-18)
(5.44555 -3.88625 1.17799e-18)
(5.11359 -4.29194 -7.04978e-18)
(6.51489 -0.166422 1.90462e-19)
(6.47653 -0.629729 -2.2673e-19)
(6.40228 -1.08942 -2.19246e-18)
(6.28243 -1.54708 6.63694e-19)
(6.13223 -1.99043 -1.60118e-18)
(5.93016 -2.43178 -7.03987e-19)
(5.70996 -2.84792 -4.5122e-19)
(5.42569 -3.27763 1.77938e-18)
(5.15785 -3.67241 1.72039e-18)
(4.81536 -4.10154 1.40942e-18)
(6.22229 -0.15327 -4.2979e-19)
(6.18011 -0.592789 7.46923e-19)
(6.10717 -1.02957 3.68764e-19)
(5.98661 -1.4672 1.02326e-18)
(5.8434 -1.89008 -1.06065e-19)
(5.63874 -2.31622 -8.25294e-20)
(5.42871 -2.71157 -2.5045e-18)
(5.1268 -3.13695 3.38952e-18)
(4.87615 -3.51003 -2.18482e-18)
(4.48624 -4.00879 6.55402e-19)
(6.49834 7.70307 -4.49996e-18)
(7.08575 7.17523 4.67583e-18)
(7.6232 6.59673 -2.58436e-19)
(8.10771 5.97337 -7.82161e-18)
(8.53509 5.31051 5.64839e-18)
(8.90189 4.6137 -3.9021e-18)
(9.20555 3.88828 -8.73562e-19)
(9.44466 3.14114 -8.20077e-19)
(9.61744 2.37904 1.30706e-18)
(9.725 1.6055 9.31218e-20)
(7.25849 6.60142 5.42392e-18)
(7.79264 6.06535 1.02911e-18)
(8.2756 5.47902 -5.34007e-18)
(8.70284 4.8476 -5.49612e-18)
(9.06957 4.17641 4.52892e-18)
(9.37231 3.472 -3.57772e-18)
(9.608 2.74008 3.95854e-18)
(9.77445 1.98815 -1.11769e-18)
(9.87061 1.22606 -3.2928e-18)
(9.89614 0.452643 -2.26727e-19)
(6.82595 6.0051 -9.36001e-19)
(7.33704 5.53757 -7.32429e-19)
(7.80454 5.02065 2.99872e-18)
(8.22316 4.45791 2.7568e-18)
(8.58799 3.85364 5.9334e-18)
(8.89552 3.21392 1.86526e-18)
(9.14221 2.54366 -1.33512e-18)
(9.32508 1.85031 -2.79573e-18)
(9.44313 1.14197 2.22717e-18)
(9.49429 0.417907 1.5935e-19)
(6.26473 5.4362 1.36547e-18)
(6.73942 5.03078 -3.10207e-18)
(7.17675 4.57901 -1.20122e-18)
(7.57181 4.08303 -5.16032e-18)
(7.92037 3.54662 -2.6888e-18)
(8.21906 2.97515 5.01491e-18)
(8.46439 2.37312 3.17333e-18)
(8.65343 1.74695 -2.67154e-18)
(8.78501 1.10256 1.14335e-19)
(8.85605 0.441787 -1.12511e-19)
(5.8361 4.92109 -4.8326e-18)
(6.26852 4.55851 5.37848e-18)
(6.66679 4.15326 -1.35718e-18)
(7.02722 3.70623 2.7231e-18)
(7.34667 3.22143 -1.80723e-18)
(7.622 2.70389 -2.95325e-18)
(7.85009 2.1578 1.39082e-18)
(8.02827 1.58834 -1.49011e-18)
(8.15518 1.00047 -1.41593e-18)
(8.2277 0.397639 5.96122e-19)
(5.50822 4.51124 -6.54006e-19)
(5.90348 4.18045 1.0188e-18)
(6.26484 3.80927 -1.1901e-18)
(6.59103 3.39826 -5.33564e-18)
(6.8804 2.95251 2.85378e-18)
(7.13005 2.47679 4.49314e-19)
(7.33707 1.97476 -2.49832e-18)
(7.49896 1.45081 -8.47114e-19)
(7.61444 0.909648 7.61831e-19)
(7.68079 0.35522 -2.18941e-19)
(5.24849 4.18896 -2.60993e-18)
(5.614 3.88395 -9.03343e-21)
(5.94451 3.538 1.19044e-18)
(6.24074 3.15408 3.02588e-18)
(6.50316 2.73909 6.10964e-19)
(6.72924 2.2966 1.4656e-18)
(6.91619 1.82959 2.8225e-18)
(7.06161 1.34224 -1.19221e-18)
(7.16459 0.839383 9.98845e-19)
(7.22254 0.324816 -3.73478e-19)
(5.03185 3.93101 -8.97989e-19)
(5.36953 3.65155 1.02762e-18)
(5.67653 3.32329 9.9027e-19)
(5.94942 2.95995 -1.42351e-18)
(6.18976 2.57024 -7.67531e-19)
(6.39584 2.15445 -1.66495e-18)
(6.56567 1.71509 1.49853e-19)
(6.69682 1.25698 -3.67052e-19)
(6.78881 0.785233 -2.12156e-18)
(6.83859 0.303253 2.83142e-19)
(4.86481 3.71364 -3.29073e-19)
(5.15591 3.46997 -1.75386e-18)
(5.43926 3.15353 -6.72856e-19)
(5.69599 2.80713 2.99737e-19)
(5.9191 2.44001 -1.78693e-19)
(6.10812 2.0468 1.47245e-18)
(6.26372 1.62996 5.76759e-19)
(6.38347 1.1955 8.46312e-19)
(6.46699 0.749052 9.92313e-19)
(6.51003 0.293514 -4.03683e-19)
(4.81416 3.48196 -1.22014e-18)
(5.02687 3.27769 2.07516e-18)
(5.25882 2.97165 -3.27234e-18)
(5.49631 2.64272 -7.24716e-20)
(5.70119 2.29938 2.5961e-18)
(5.86875 1.93113 1.22857e-19)
(6.00612 1.53957 1.10193e-18)
(6.11221 1.13067 -2.26634e-18)
(6.18622 0.710348 -1.84785e-20)
(6.22168 0.280893 1.9783e-19)
(1.07833 4.54903 6.9212e-20)
(1.03732 4.75467 -2.48685e-20)
(1.00071 4.98703 -1.66561e-20)
(0.950317 5.26183 1.87032e-19)
(0.886814 5.60719 -8.36028e-20)
(0.809146 6.06985 -3.04579e-19)
(0.724369 6.71677 3.52794e-19)
(0.695696 7.60691 1.21428e-19)
(0.556113 8.66866 1.86203e-19)
(-0.787632 9.60534 7.88866e-19)
(1.43315 4.57704 1.7986e-19)
(1.41144 4.79326 -5.13116e-19)
(1.39359 5.03589 5.15172e-19)
(1.36619 5.32209 1.08429e-19)
(1.33182 5.67976 -2.21457e-19)
(1.29243 6.1549 2.44157e-19)
(1.25991 6.81133 8.7912e-19)
(1.30095 7.69618 -1.11983e-18)
(1.24145 8.73594 3.92408e-20)
(-0.0341341 9.69986 -9.42341e-19)
(1.79661 4.57833 7.76373e-19)
(1.79477 4.80297 -9.74674e-19)
(1.79686 5.05349 -3.86003e-19)
(1.79415 5.34835 -3.39621e-20)
(1.79075 5.71532 -3.89488e-19)
(1.79138 6.1994 -1.70354e-19)
(1.8123 6.86065 2.90426e-19)
(1.92207 7.734 8.09255e-19)
(1.93865 8.74489 6.1318e-19)
(0.728734 9.73186 -1.72667e-18)
(2.16975 4.54104 7.62673e-19)
(2.18733 4.77432 -8.23214e-19)
(2.2097 5.03295 -8.15237e-19)
(2.23263 5.33575 4.72245e-19)
(2.26123 5.71028 2.47833e-18)
(2.30287 6.20031 -9.72472e-19)
(2.37768 6.86192 7.66798e-19)
(2.55458 7.71789 -2.56557e-18)
(2.64267 8.69389 -2.8749e-18)
(1.49577 9.70079 3.29098e-18)
(2.54458 4.48078 5.78851e-19)
(2.58175 4.71896 -3.71048e-19)
(2.62558 4.98135 1.07947e-18)
(2.67585 5.28765 -9.46679e-19)
(2.73806 5.66544 7.13358e-19)
(2.82202 6.15694 6.15449e-19)
(2.95119 6.81359 5.98134e-19)
(3.19336 7.64595 4.62156e-19)
(3.3481 8.58128 1.81733e-18)
(2.2615 9.60561 1.55405e-18)
(2.92955 4.36914 -1.80545e-18)
(2.98369 4.61705 -4.62909e-19)
(3.04747 4.88644 1.96285e-18)
(3.12419 5.19698 -2.15273e-18)
(3.21946 5.57677 -9.94882e-19)
(3.34539 6.06674 -2.43109e-18)
(3.52822 6.7138 1.26516e-19)
(3.8329 7.51676 -2.5455e-18)
(4.04894 8.40628 -3.02951e-19)
(3.02011 9.44609 -4.75323e-18)
(3.30537 4.24795 2.67046e-18)
(3.37754 4.49736 -4.21683e-18)
(3.46299 4.76515 2.31841e-18)
(3.56822 5.07223 1.17544e-18)
(3.69824 5.44777 -2.6748e-19)
(3.86704 5.93062 3.33425e-18)
(4.10305 6.56219 -2.13374e-18)
(4.46735 7.32966 -5.28161e-18)
(4.73892 8.16834 -7.28546e-19)
(3.76576 9.22193 4.37467e-18)
(3.70237 4.05373 -1.77191e-20)
(3.78262 4.32039 2.01747e-18)
(3.88173 4.59602 -9.49313e-19)
(4.01068 4.9031 9.69443e-19)
(4.17295 5.27397 9.79444e-19)
(4.38306 5.7467 -1.60811e-18)
(4.67036 6.35793 1.15011e-18)
(5.09045 7.08436 -2.55641e-18)
(5.41156 7.86804 6.90051e-18)
(4.49225 8.93464 -2.2689e-18)
(4.07115 3.88722 -1.2787e-18)
(4.16454 4.14774 -6.21014e-19)
(4.28117 4.41075 2.75799e-18)
(4.43841 4.70364 -3.92687e-18)
(4.63544 5.06101 3.84968e-18)
(4.88692 5.51706 -1.95676e-18)
(5.224 6.10194 -3.2923e-18)
(5.69562 6.7814 7.14513e-19)
(6.06007 7.50619 -1.1907e-17)
(5.19384 8.58441 8.3282e-18)
(4.48296 3.63186 3.33886e-18)
(4.54964 3.90778 -2.797e-18)
(4.6699 4.17743 2.85943e-18)
(4.85307 4.46234 -2.27113e-19)
(5.08274 4.80562 -2.94361e-18)
(5.37348 5.24131 -1.52105e-18)
(5.75762 5.79412 1.72276e-18)
(6.2766 6.421 4.55665e-18)
(6.67854 7.08361 5.67402e-18)
(5.8643 8.17485 2.57539e-20)
(-1.55674 3.05175 -5.77739e-19)
(-1.70105 3.07105 4.11348e-19)
(-1.85565 3.14227 -2.08371e-19)
(-2.04181 3.25013 4.90545e-19)
(-2.28336 3.4029 4.44377e-19)
(-2.61631 3.63333 7.96706e-19)
(-3.08984 4.005 1.26998e-18)
(-3.73084 4.64247 7.69053e-19)
(-4.69801 5.49092 1.25727e-18)
(-6.74624 5.77034 -8.94785e-19)
(-1.41736 3.26147 3.74828e-19)
(-1.55362 3.30886 4.25846e-19)
(-1.69055 3.40525 -6.44625e-19)
(-1.86297 3.53196 -3.75385e-19)
(-2.09135 3.70418 -7.34143e-19)
(-2.40719 3.96022 1.46359e-18)
(-2.85422 4.36755 -6.92331e-19)
(-3.4472 5.05009 -1.78863e-18)
(-4.3408 5.95443 -1.53889e-18)
(-6.33008 6.33702 2.27701e-18)
(-1.21952 3.45407 -1.0894e-19)
(-1.35458 3.53283 1.12411e-19)
(-1.48597 3.6508 -1.03365e-18)
(-1.65165 3.79698 6.83708e-19)
(-1.8697 3.99137 6.80795e-19)
(-2.16835 4.27515 -4.65536e-19)
(-2.58658 4.71844 -1.27102e-20)
(-3.1277 5.44305 3.21487e-18)
(-3.94345 6.3961 6.01978e-19)
(-5.86754 6.87297 -1.78584e-18)
(-0.994727 3.64895 -1.0853e-18)
(-1.12662 3.74927 6.76755e-19)
(-1.2525 3.8841 -1.73803e-19)
(-1.41084 4.04858 5.5628e-19)
(-1.61767 4.26515 -1.50916e-18)
(-1.89791 4.57659 -8.71235e-21)
(-2.28482 5.05471 2.78854e-19)
(-2.77095 5.8178 2.68648e-21)
(-3.5058 6.81227 -1.58178e-19)
(-5.3605 7.37476 2.39446e-18)
(-0.7518 3.83652 9.76504e-19)
(-0.877489 3.95418 3.40238e-20)
(-0.995589 4.1046 -5.91206e-19)
(-1.14419 4.28674 1.38336e-20)
(-1.33734 4.52465 1.06839e-19)
(-1.59648 4.86261 -1.13604e-18)
(-1.94893 5.37357 3.38537e-19)
(-2.3767 6.17073 -3.66836e-19)
(-3.02812 7.19891 -5.43367e-20)
(-4.81065 7.83822 -3.03157e-18)
(-0.489924 4.00789 -2.61984e-20)
(-0.606759 4.14263 7.96821e-19)
(-0.71532 4.30873 -7.74101e-19)
(-0.852331 4.50834 7.51094e-20)
(-1.02951 4.76695 -1.9033e-19)
(-1.26479 5.13018 1.04328e-18)
(-1.57961 5.67167 2.21224e-19)
(-1.94579 6.49801 1.30817e-19)
(-2.512 7.55187 9.07487e-19)
(-4.22054 8.25927 6.21266e-19)
(-0.20866 4.16043 -6.26683e-19)
(-0.314332 4.31204 6.73927e-19)
(-0.411868 4.49345 3.19827e-20)
(-0.535574 4.71013 1.09704e-18)
(-0.694631 4.98873 -6.44353e-19)
(-0.903468 5.37589 4.8736e-19)
(-1.17752 5.94518 -4.7601e-19)
(-1.47962 6.79568 1.16668e-18)
(-1.95938 7.86694 1.19442e-18)
(-3.59314 8.63404 1.36543e-18)
(0.0907223 4.2928 -4.28985e-19)
(-0.00162011 4.46008 4.94438e-19)
(-0.0865409 4.65594 -2.42125e-19)
(-0.195032 4.88896 -1.91306e-19)
(-0.333688 5.1866 4.62294e-19)
(-0.513474 5.59603 -8.06545e-19)
(-0.743933 6.19016 -6.06248e-19)
(-0.979735 7.05934 2.16786e-18)
(-1.3729 8.14003 -4.35104e-19)
(-2.93232 8.95923 -1.57387e-18)
(0.406036 4.40376 -4.64586e-19)
(0.329118 4.58517 9.70241e-20)
(0.258626 4.7943 6.1244e-20)
(0.167463 5.04252 3.88114e-22)
(0.0515877 5.35775 -3.0888e-19)
(-0.0965567 5.78738 1.03256e-18)
(-0.280731 6.40295 -1.02694e-18)
(-0.448531 7.28513 -1.43346e-19)
(-0.755642 8.36722 1.95126e-20)
(-2.24145 9.23148 -1.26852e-18)
(0.735891 4.48938 1.52638e-19)
(0.676201 4.68357 2.29516e-20)
(0.621853 4.90502 -5.13771e-20)
(0.550078 5.16739 -7.75773e-20)
(0.459296 5.49873 -2.13631e-19)
(0.34526 5.94624 1.64901e-19)
(0.209746 6.57949 1.04411e-19)
(0.111139 7.46872 2.02753e-19)
(-0.111373 8.54475 -2.8136e-19)
(-1.526 9.44825 2.57891e-19)
(-1.6067 2.75646 -4.72594e-19)
(-1.83735 2.42244 1.96629e-19)
(-1.9741 2.12763 -1.11219e-19)
(-2.12996 1.83856 -1.20844e-19)
(-2.25687 1.55048 -5.82495e-20)
(-2.37419 1.26156 3.68399e-21)
(-2.47635 0.969509 -3.3283e-20)
(-2.56683 0.673419 -3.03932e-20)
(-2.64507 0.372256 -1.91101e-20)
(-2.71122 0.0654608 1.11013e-20)
(-1.80323 2.80022 -3.85175e-19)
(-1.992 2.48695 -1.94395e-19)
(-2.12741 2.18931 -3.28925e-19)
(-2.27224 1.89406 2.32299e-20)
(-2.39427 1.60053 1.06568e-19)
(-2.50745 1.30756 1.4033e-19)
(-2.60697 1.01235 -4.44008e-20)
(-2.6958 0.713983 1.45232e-19)
(-2.77322 0.410961 2.11496e-20)
(-2.8392 0.102383 -1.54791e-20)
(-1.99634 2.85597 1.08147e-18)
(-2.16282 2.55055 -1.05353e-19)
(-2.2986 2.25258 4.77799e-19)
(-2.43367 1.95299 9.30962e-20)
(-2.55108 1.65502 -4.38202e-19)
(-2.65908 1.35784 -2.19697e-19)
(-2.75475 1.05919 -9.45102e-20)
(-2.8402 0.75807 4.95972e-20)
(-2.91486 0.452764 -1.05914e-19)
(-2.97864 0.142112 1.35717e-20)
(-2.20139 2.95018 2.73213e-19)
(-2.36085 2.64057 5.90942e-19)
(-2.498 2.33543 2.59605e-20)
(-2.6272 2.02837 2.36706e-19)
(-2.74095 1.72316 3.08379e-19)
(-2.8439 1.41883 3.12066e-20)
(-2.93496 1.11394 2.18968e-19)
(-3.01566 0.807394 9.66625e-20)
(-3.08582 0.497484 1.33501e-19)
(-3.1454 0.182852 -2.22111e-20)
(-2.45527 3.08866 9.99465e-19)
(-2.61486 2.76807 -1.10144e-18)
(-2.75405 2.44919 -9.31832e-20)
(-2.88027 2.12956 1.22288e-19)
(-2.99089 1.81214 -1.59593e-19)
(-3.0889 1.49605 -2.69902e-19)
(-3.17447 1.18046 -4.23239e-19)
(-3.24888 0.864255 3.64796e-19)
(-3.3124 0.545863 -3.80765e-20)
(-3.36514 0.223841 -1.67471e-20)
(-2.80181 3.29704 -1.81405e-18)
(-2.96745 2.9561 1.00605e-18)
(-3.11126 2.61506 3.60848e-19)
(-3.23765 2.27431 5.42217e-20)
(-3.34644 1.936 3.35225e-19)
(-3.43999 1.59974 -4.63688e-19)
(-3.51925 1.26516 -4.05915e-19)
(-3.58551 0.931292 -9.05593e-21)
(-3.63941 0.596849 7.64763e-20)
(-3.68136 0.260472 5.31734e-20)
(-3.29697 3.63409 -5.0671e-19)
(-3.47809 3.25888 -2.83367e-19)
(-3.63343 2.88242 -1.00356e-19)
(-3.76623 2.5066 3.56524e-19)
(-3.87746 2.13316 -1.10193e-18)
(-3.96935 1.76247 -4.06364e-19)
(-4.04326 1.39456 5.4933e-19)
(-4.10064 1.02894 1.27233e-19)
(-4.14244 0.664743 9.39369e-20)
(-4.16941 0.300918 -5.59045e-20)
(-3.98031 4.22391 -1.57502e-18)
(-4.19727 3.79907 -1.4259e-18)
(-4.38234 3.37055 2.28484e-18)
(-4.53829 2.94127 4.55874e-19)
(-4.6666 2.51301 1.68353e-18)
(-4.76927 2.08697 4.25137e-20)
(-4.84784 1.66385 -4.6478e-19)
(-4.90379 1.24387 6.17371e-19)
(-4.93834 0.82685 1.00074e-20)
(-4.95243 0.412315 1.51463e-19)
(-5.0141 5.0095 9.11752e-20)
(-5.28959 4.51602 2.30025e-18)
(-5.52568 4.01367 -2.22411e-18)
(-5.7242 3.50604 1.51613e-18)
(-5.88663 2.99544 -2.07325e-18)
(-6.01425 2.48407 2.45494e-19)
(-6.10841 1.97361 -7.18775e-19)
(-6.17039 1.46542 2.525e-19)
(-6.20141 0.96039 4.77683e-20)
(-6.20226 0.459164 -8.40265e-20)
(-7.11242 5.17576 6.85001e-19)
(-7.4257 4.56245 -1.99803e-18)
(-7.69094 3.93231 8.83609e-19)
(-7.90645 3.29049 -7.01557e-19)
(-8.0732 2.64004 3.47646e-19)
(-8.19111 1.98467 1.51939e-18)
(-8.26085 1.3276 1.84619e-19)
(-8.28311 0.672019 4.06196e-19)
(-8.25888 0.0207916 -2.09628e-19)
(-8.18847 -0.623378 -4.70557e-20)
(-2.7642 -0.247231 2.73128e-21)
(-2.80254 -0.565787 -2.95302e-20)
(-2.82442 -0.889681 2.16221e-19)
(-2.82768 -1.21762 -1.47198e-19)
(-2.8098 -1.54742 1.28511e-20)
(-2.76765 -1.8761 -1.94721e-19)
(-2.69598 -2.20121 8.73362e-19)
(-2.58679 -2.52199 1.1926e-19)
(-2.43624 -2.83075 -3.47896e-19)
(-2.25345 -3.10815 7.1387e-19)
(-2.89254 -0.212473 3.69151e-20)
(-2.93155 -0.533899 -1.0772e-19)
(-2.95413 -0.861659 -8.7096e-20)
(-2.95771 -1.19478 -8.11684e-20)
(-2.93939 -1.53153 -2.59483e-19)
(-2.89607 -1.86949 -3.58571e-20)
(-2.82405 -2.20619 -2.54954e-20)
(-2.71722 -2.53929 3.7902e-19)
(-2.56805 -2.86483 7.415e-19)
(-2.37931 -3.18646 -1.49993e-20)
(-3.03039 -0.174965 -3.2053e-20)
(-3.06845 -0.499076 2.78882e-19)
(-3.09072 -0.830352 5.69639e-20)
(-3.09465 -1.16828 -1.05063e-20)
(-3.07727 -1.51171 2.93073e-19)
(-3.03553 -1.85903 1.41369e-19)
(-2.96599 -2.20814 3.24067e-19)
(-2.86416 -2.55622 -1.98561e-19)
(-2.72504 -2.90154 -6.84636e-19)
(-2.54807 -3.25116 -1.77174e-18)
(-3.19349 -0.137851 5.22978e-20)
(-3.22862 -0.465573 -1.34082e-19)
(-3.24883 -0.800865 2.00573e-19)
(-3.25171 -1.14375 -5.04686e-19)
(-3.23439 -1.49374 -2.8787e-19)
(-3.19375 -1.84989 -1.09726e-19)
(-3.12622 -2.21058 -7.5063e-19)
(-3.02789 -2.57352 -3.25241e-19)
(-2.89547 -2.9379 8.84996e-21)
(-2.72832 -3.30712 6.05273e-19)
(-3.40655 -0.103315 3.82088e-20)
(-3.43543 -0.436822 1.04073e-20)
(-3.45006 -0.777595 1.50055e-19)
(-3.44828 -1.12614 5.00919e-19)
(-3.42746 -1.48256 -9.2371e-20)
(-3.38451 -1.84647 -8.47052e-19)
(-3.316 -2.21684 1.41175e-18)
(-3.21825 -2.59218 -4.43002e-19)
(-3.0885 -2.972 -4.63653e-19)
(-2.92581 -3.35666 -2.27269e-19)
(-3.71118 -0.0793209 -9.83207e-20)
(-3.72813 -0.423855 1.11687e-19)
(-3.73077 -0.77424 2.96738e-19)
(-3.71749 -1.13136 -2.69681e-19)
(-3.6859 -1.4957 6.87114e-19)
(-3.63342 -1.86742 -7.19231e-20)
(-3.55694 -2.24613 6.91343e-20)
(-3.45313 -2.63106 4.59522e-19)
(-3.31943 -3.02179 3.48684e-19)
(-3.15426 -3.41739 1.89135e-19)
(-4.18181 -0.0637346 1.98153e-20)
(-4.17954 -0.430313 -2.07021e-20)
(-4.16155 -0.79987 5.60087e-19)
(-4.12695 -1.1734 -6.63938e-19)
(-4.07401 -1.5516 -1.17938e-18)
(-4.00077 -1.935 6.45865e-19)
(-3.90479 -2.32371 -3.15319e-19)
(-3.78348 -2.71759 4.01142e-19)
(-3.63442 -3.11635 1.14358e-18)
(-3.45572 -3.51894 -1.16153e-18)
(-4.94661 -0.000186195 -3.34532e-20)
(-4.92161 -0.410805 -4.65891e-19)
(-4.87676 -0.820192 6.13616e-19)
(-4.81216 -1.22899 3.31321e-19)
(-4.72702 -1.63785 -1.08575e-18)
(-4.62016 -2.04706 -8.86065e-19)
(-4.49037 -2.45716 -1.02102e-19)
(-4.33592 -2.86823 3.76381e-20)
(-4.15506 -3.28024 3.97058e-19)
(-3.94599 -3.69262 -3.8615e-19)
(-6.17308 -0.0370788 4.30586e-20)
(-6.1154 -0.526678 7.44913e-19)
(-6.02949 -1.00953 3.04761e-19)
(-5.91629 -1.48515 -9.70862e-19)
(-5.77605 -1.95348 9.677e-19)
(-5.60891 -2.41407 -1.35665e-18)
(-5.41468 -2.86663 1.58146e-18)
(-5.19352 -3.31147 -1.90586e-18)
(-4.94491 -3.7486 -1.0374e-18)
(-4.66769 -4.1773 -3.1386e-18)
(-8.07116 -1.25736 -2.07314e-20)
(-7.90907 -1.87529 -2.98881e-19)
(-7.70442 -2.47781 2.42456e-19)
(-7.45841 -3.06127 2.52189e-19)
(-7.17251 -3.62394 -5.48715e-19)
(-6.84825 -4.16344 5.55711e-19)
(-6.48736 -4.67788 -7.42987e-19)
(-6.0919 -5.16591 6.25679e-19)
(-5.66398 -5.6266 -1.54583e-18)
(-5.20461 -6.05809 1.64694e-18)
(-4.71391 -6.45665 2.56432e-18)
(-4.36094 -4.59531 -1.49582e-18)
(-3.7069 -4.10348 -1.2229e-18)
(-3.24557 -3.92269 1.54901e-18)
(-2.95657 -3.81417 -6.67753e-20)
(-2.73057 -3.7421 1.27223e-18)
(-2.52934 -3.67883 3.83477e-20)
(-2.34093 -3.61072 -8.50126e-19)
(-2.16496 -3.53452 1.26127e-18)
(-2.03736 -3.43883 -2.47576e-19)
(-4.19865 -6.8182 -2.87689e-18)
(-4.02576 -5.00038 5.85679e-18)
(-3.43671 -4.50983 -4.1021e-19)
(-3.00212 -4.32359 -1.36517e-18)
(-2.7248 -4.20663 9.20837e-19)
(-2.5025 -4.11996 -1.86638e-18)
(-2.30199 -4.03764 1.90258e-18)
(-2.11627 -3.94816 -1.26132e-18)
(-1.95015 -3.84942 3.48468e-19)
(-1.83586 -3.7294 7.18686e-19)
(-3.65797 -7.14677 1.78965e-18)
(-3.66063 -5.39141 -3.60262e-18)
(-3.13312 -4.90872 1.2839e-18)
(-2.72326 -4.71787 -5.51284e-19)
(-2.45704 -4.59079 8.72639e-19)
(-2.23918 -4.48699 -6.07664e-19)
(-2.04089 -4.38312 -4.69855e-19)
(-1.85823 -4.27004 5.13459e-19)
(-1.69525 -4.14749 -1.02758e-18)
(-1.57649 -4.00817 1.18017e-18)
(-3.09474 -7.43934 -3.967e-18)
(-3.26519 -5.76621 4.80341e-19)
(-2.795 -5.29673 1.21037e-18)
(-2.40794 -5.10094 1.40152e-18)
(-2.15288 -4.96129 -2.17174e-18)
(-1.94128 -4.83738 1.32329e-19)
(-1.74816 -4.70917 -7.54516e-19)
(-1.57153 -4.57065 -1.30302e-18)
(-1.41403 -4.42387 2.45094e-18)
(-1.294 -4.26612 5.63778e-19)
(-2.51001 -7.69517 2.93101e-18)
(-2.83835 -6.12232 5.78794e-19)
(-2.42096 -5.66985 1.73107e-18)
(-2.05522 -5.46796 -6.35798e-20)
(-1.81189 -5.3132 1.73469e-18)
(-1.60856 -5.16663 7.73674e-19)
(-1.42322 -5.01219 1.46599e-18)
(-1.25531 -4.84723 -1.34489e-18)
(-1.10627 -4.67616 -6.34436e-20)
(-0.989031 -4.49981 -8.65245e-19)
(-1.90571 -7.91235 2.13005e-18)
(-2.37976 -6.45617 -1.89261e-18)
(-2.01048 -6.02339 -2.54177e-19)
(-1.66517 -5.81365 -4.86187e-19)
(-1.43487 -5.64121 -4.70293e-19)
(-1.24253 -5.46983 -5.06992e-19)
(-1.0683 -5.28792 7.8276e-19)
(-0.912411 -5.09642 -8.39417e-19)
(-0.774929 -4.90184 7.38528e-19)
(-0.663926 -4.70744 4.33545e-20)
(-1.28364 -8.08939 -3.80861e-18)
(-1.88933 -6.76405 -1.38548e-18)
(-1.56361 -6.35231 2.33554e-18)
(-1.23852 -6.13263 -7.12442e-19)
(-1.02323 -5.94019 8.66632e-19)
(-0.845048 -5.7425 -2.25267e-18)
(-0.685522 -5.53267 1.61584e-18)
(-0.545132 -5.3152 -4.96223e-19)
(-0.42244 -5.09832 7.08289e-19)
(-0.321344 -4.88652 -7.70588e-19)
(-0.645877 -8.22464 1.76472e-18)
(-1.3676 -7.04176 -5.97157e-19)
(-1.08122 -6.65128 -7.58613e-19)
(-0.776942 -6.41941 -2.97017e-19)
(-0.579318 -6.20511 1.93572e-19)
(-0.418929 -5.98035 3.78638e-19)
(-0.277886 -5.74304 -6.80152e-19)
(-0.156333 -5.50101 4.13029e-19)
(-0.051134 -5.26381 9.74396e-19)
(0.0369991 -5.03652 -8.06289e-19)
(0.00541439 -8.31643 1.42117e-18)
(-0.815539 -7.28491 -3.19104e-20)
(-0.564912 -6.91493 1.23586e-18)
(-0.282915 -6.66874 -9.7607e-19)
(-0.106219 -6.43132 2.7494e-19)
(0.0324529 -6.17957 -2.86901e-19)
(0.151171 -5.916 -1.15628e-19)
(0.250627 -5.65152 -5.92626e-19)
(0.335742 -5.39653 6.01012e-19)
(0.407827 -5.15609 4.46154e-19)
(0.667804 -8.36215 -2.77515e-19)
(-0.23494 -7.48851 -2.03796e-19)
(-0.0172524 -7.13792 -1.35927e-19)
(0.240179 -6.87569 -4.35817e-19)
(0.392238 -6.61468 3.96544e-19)
(0.505159 -6.33685 1.00359e-19)
(0.597831 -6.04905 -2.45816e-19)
(0.672203 -5.76478 1.87824e-20)
(0.734954 -5.49489 -1.00281e-19)
(0.788143 -5.24432 4.16207e-21)
(1.10599 -4.56373 -1.18769e-20)
(0.953719 -3.58245 -3.52136e-21)
(0.939917 -2.91611 8.51578e-21)
(0.929222 -2.3546 -3.49726e-21)
(0.887465 -1.84889 -3.91083e-23)
(0.844239 -1.42488 -4.4502e-22)
(0.800001 -1.07616 4.67361e-23)
(0.761025 -0.797168 -3.60626e-23)
(0.728422 -0.579363 5.23402e-23)
(0.704473 -0.413494 7.84112e-23)
(0.686393 -0.290256 -1.67288e-22)
(0.677956 -0.199795 1.12696e-22)
(0.671422 -0.136616 -8.75928e-23)
(0.674282 -0.0867892 -2.94105e-22)
(0.677229 -0.0540368 4.73966e-23)
(0.676825 -0.0121088 -1.44212e-22)
(0.678793 0.0199888 5.43065e-23)
(0.662263 0.0575319 4.91824e-23)
(0.643015 0.0985675 -6.47156e-23)
(0.666982 0.0782169 -4.1676e-23)
(1.41264 -4.59709 8.23087e-20)
(1.14887 -3.61251 2.13155e-20)
(1.04704 -2.92666 -1.62765e-20)
(0.993055 -2.35932 3.65222e-21)
(0.92333 -1.84872 -4.9024e-21)
(0.858916 -1.42082 -6.20889e-22)
(0.800693 -1.0714 -1.95142e-22)
(0.752343 -0.792868 -1.75712e-22)
(0.713589 -0.576026 2.12528e-23)
(0.685547 -0.411154 -8.17655e-24)
(0.664828 -0.288876 -1.09335e-23)
(0.654593 -0.199153 6.82137e-22)
(0.646819 -0.136536 -9.895e-22)
(0.648877 -0.0872181 -3.03804e-22)
(0.650763 -0.0542401 2.26854e-22)
(0.649343 -0.0122085 2.1164e-22)
(0.650587 0.0205071 -4.53855e-22)
(0.63262 0.058884 7.02005e-22)
(0.616812 0.098317 1.51229e-22)
(0.644089 0.0772843 1.00456e-22)
(1.72139 -4.60949 -1.69602e-19)
(1.35123 -3.63803 6.81109e-20)
(1.15989 -2.93996 7.93966e-20)
(1.05932 -2.36653 -2.38104e-20)
(0.961325 -1.85146 1.13478e-21)
(0.875512 -1.41942 -4.14399e-21)
(0.802919 -1.06871 -2.90595e-22)
(0.745042 -0.790152 -4.54174e-22)
(0.700067 -0.573839 -1.21468e-22)
(0.667869 -0.409604 -2.13155e-22)
(0.644449 -0.288008 -1.46618e-22)
(0.632339 -0.198814 2.37795e-23)
(0.62328 -0.136635 1.08222e-21)
(0.624484 -0.0877224 -5.33882e-22)
(0.625227 -0.0544631 -5.93253e-22)
(0.622872 -0.0123249 6.39099e-22)
(0.623272 0.0210508 -1.80533e-22)
(0.6042 0.0601068 -4.0352e-22)
(0.592034 0.0978219 -5.62043e-22)
(0.622193 0.0762654 1.7005e-22)
(2.03065 -4.6033 -5.08586e-20)
(1.56098 -3.65629 1.38083e-19)
(1.27973 -2.95166 -5.72123e-20)
(1.12907 -2.37352 -1.27627e-20)
(1.00199 -1.85576 8.05201e-21)
(0.894474 -1.42028 -3.8164e-22)
(0.807006 -1.06801 1.29244e-21)
(0.739343 -0.78901 -3.10603e-22)
(0.688011 -0.5728 6.5285e-22)
(0.651558 -0.408836 7.00396e-22)
(0.625347 -0.287642 -1.56877e-21)
(0.611266 -0.198769 2.21379e-22)
(0.600859 -0.136905 -1.63066e-22)
(0.601134 -0.0882944 8.72616e-22)
(0.600653 -0.054709 2.71377e-22)
(0.597434 -0.0124608 -4.75463e-22)
(0.596897 0.0216042 -4.29064e-22)
(0.577077 0.0611781 -9.48858e-22)
(0.568668 0.0970936 8.77707e-22)
(0.601268 0.0751741 -3.55386e-22)
(2.33883 -4.57488 1.39377e-20)
(1.77876 -3.65605 1.19435e-20)
(1.40733 -2.95162 2.88594e-21)
(1.20256 -2.37477 2.75057e-20)
(1.0453 -1.8591 1.14065e-20)
(0.915951 -1.42247 7.56288e-21)
(0.813173 -1.06898 -2.75061e-21)
(0.735418 -0.789329 6.77202e-22)
(0.677551 -0.572868 4.62141e-22)
(0.636708 -0.408828 8.97604e-22)
(0.607593 -0.287761 -1.41018e-22)
(0.591432 -0.199004 -1.78007e-21)
(0.5796 -0.137336 -3.76997e-22)
(0.578854 -0.0889264 1.44959e-21)
(0.577074 -0.0549812 1.22732e-21)
(0.57305 -0.0126209 -6.32758e-22)
(0.571509 0.0221491 1.68672e-21)
(0.551309 0.0620767 2.91033e-22)
(0.546691 0.0961456 2.85584e-22)
(0.581288 0.0740245 -2.25077e-23)
(2.64578 -4.5123 -4.25065e-19)
(2.00449 -3.62633 -5.68709e-20)
(1.54166 -2.93617 4.80865e-20)
(1.27877 -2.37059 -7.46955e-20)
(1.09053 -1.86204 -3.03414e-20)
(0.939761 -1.42605 -2.36396e-20)
(0.821503 -1.0715 3.66579e-21)
(0.733376 -0.790992 8.62279e-22)
(0.668775 -0.573969 -1.52544e-21)
(0.62339 -0.409538 -8.06612e-22)
(0.591239 -0.288337 -6.416e-22)
(0.572878 -0.199502 1.61306e-21)
(0.559534 -0.137913 -8.07797e-22)
(0.557665 -0.0896089 -9.98979e-22)
(0.554517 -0.0552808 -8.11867e-22)
(0.549738 -0.0128075 1.1775e-21)
(0.547153 0.0226687 1.36327e-22)
(0.52694 0.062789 5.65871e-22)
(0.526064 0.0949968 -5.36192e-22)
(0.562226 0.0728299 1.26393e-22)
(2.95181 -4.41764 4.31346e-19)
(2.23514 -3.59234 1.38973e-19)
(1.68084 -2.93263 -1.0606e-20)
(1.35729 -2.37981 9.71654e-20)
(1.1377 -1.87421 -2.98361e-20)
(0.966059 -1.43488 3.18381e-21)
(0.832159 -1.07689 1.06757e-20)
(0.733318 -0.794421 -1.46494e-21)