/*--------------------------------*- C++ -*----------------------------------*\
  =========                 |
  \\      /  F ield         | OpenFOAM: The Open Source CFD Toolbox
   \\    /   O peration     | Website:  https://openfoam.org
    \\  /    A nd           | Version:  6.0
     \\/     M anipulation  |
\*---------------------------------------------------------------------------*/
FoamFile
{
    version     2.0;
    format      ascii;
    class       volScalarField;
    location    "8";
    object      p;
}
// * * * * * * * * * * * * * * * * * * * * * * * * * * * * * * * * * * * * * //

dimensions      [0 2 -2 0 0 0 0];

internalField   nonuniform List<scalar> 
19200
(
-0.408967
-0.404047
-0.400331
-0.397208
-0.394321
-0.391654
-0.389167
-0.386809
-0.384545
-0.382349
-0.380201
-0.378089
-0.376002
-0.373934
-0.371882
-0.369843
-0.367818
-0.365807
-0.363812
-0.361833
-0.359872
-0.357931
-0.356011
-0.354112
-0.352237
-0.350392
-0.348573
-0.346726
-0.344832
-0.343501
-0.411974
-0.406957
-0.403231
-0.400095
-0.397178
-0.394464
-0.391913
-0.389478
-0.387127
-0.384835
-0.382584
-0.380362
-0.378162
-0.375977
-0.373806
-0.371649
-0.369504
-0.367375
-0.365263
-0.363169
-0.361097
-0.359047
-0.357023
-0.355024
-0.353053
-0.351117
-0.349215
-0.347279
-0.345287
-0.343946
-0.41557
-0.410364
-0.406559
-0.403373
-0.400397
-0.397613
-0.39498
-0.392453
-0.389999
-0.387596
-0.385228
-0.382884
-0.380557
-0.378244
-0.375943
-0.373654
-0.371379
-0.369121
-0.366882
-0.364664
-0.362471
-0.360305
-0.358168
-0.356062
-0.353989
-0.351958
-0.349967
-0.347938
-0.345839
-0.344504
-0.419543
-0.414203
-0.410315
-0.407056
-0.403999
-0.401124
-0.39839
-0.395753
-0.39318
-0.39065
-0.38815
-0.385669
-0.383202
-0.380746
-0.378302
-0.375871
-0.373454
-0.371056
-0.368678
-0.366326
-0.364003
-0.361711
-0.359454
-0.357233
-0.355052
-0.352921
-0.350837
-0.34871
-0.346495
-0.34518
-0.423945
-0.418482
-0.414498
-0.411147
-0.40799
-0.405004
-0.402151
-0.399386
-0.396677
-0.394005
-0.391357
-0.388725
-0.386104
-0.383493
-0.380893
-0.378306
-0.375736
-0.373186
-0.37066
-0.368163
-0.365699
-0.363272
-0.360886
-0.358543
-0.356247
-0.354009
-0.351828
-0.349596
-0.347257
-0.345977
-0.428811
-0.423214
-0.419118
-0.415656
-0.412379
-0.409264
-0.406274
-0.403362
-0.400501
-0.397671
-0.39486
-0.392062
-0.389273
-0.386493
-0.383724
-0.380969
-0.378233
-0.375519
-0.372833
-0.37018
-0.367565
-0.364993
-0.362469
-0.359995
-0.357575
-0.355225
-0.352942
-0.350599
-0.348127
-0.346897
-0.43416
-0.428411
-0.424186
-0.420594
-0.417177
-0.413914
-0.410768
-0.407694
-0.404663
-0.401658
-0.398669
-0.39569
-0.392718
-0.389755
-0.386804
-0.383868
-0.380952
-0.378062
-0.375204
-0.372384
-0.369608
-0.366881
-0.364208
-0.361594
-0.359043
-0.356573
-0.354182
-0.351721
-0.349106
-0.347943
-0.44001
-0.434086
-0.429711
-0.42597
-0.422395
-0.418965
-0.415645
-0.412389
-0.409172
-0.405976
-0.402793
-0.399617
-0.396448
-0.393288
-0.39014
-0.387009
-0.383902
-0.380823
-0.377781
-0.374781
-0.371832
-0.368939
-0.366108
-0.363344
-0.360653
-0.358055
-0.355549
-0.352963
-0.350194
-0.349114
-0.446373
-0.440251
-0.435706
-0.431797
-0.428043
-0.424427
-0.420913
-0.417459
-0.414037
-0.410634
-0.40724
-0.403853
-0.400471
-0.397099
-0.393741
-0.390402
-0.387089
-0.383809
-0.380569
-0.377378
-0.374242
-0.371171
-0.36817
-0.365246
-0.362405
-0.359672
-0.357044
-0.354324
-0.351391
-0.350409
-0.453266
-0.446919
-0.442182
-0.438084
-0.434132
-0.43031
-0.426583
-0.422911
-0.419268
-0.415639
-0.412019
-0.408404
-0.404796
-0.401198
-0.397615
-0.394053
-0.390521
-0.387025
-0.383575
-0.380178
-0.376845
-0.373582
-0.3704
-0.367303
-0.364302
-0.361423
-0.358665
-0.355802
-0.352694
-0.351825
-0.460699
-0.454101
-0.44915
-0.444843
-0.440671
-0.436622
-0.432664
-0.428755
-0.424872
-0.421002
-0.417139
-0.413281
-0.40943
-0.405591
-0.401769
-0.397971
-0.394205
-0.390481
-0.386806
-0.383191
-0.379645
-0.376179
-0.372801
-0.369519
-0.366346
-0.36331
-0.360413
-0.357397
-0.354099
-0.353361
-0.468684
-0.461808
-0.45662
-0.452081
-0.447669
-0.443373
-0.439163
-0.434999
-0.430858
-0.426729
-0.422607
-0.418491
-0.414382
-0.410287
-0.406212
-0.402164
-0.398151
-0.394183
-0.390271
-0.386423
-0.382651
-0.378966
-0.375379
-0.371899
-0.36854
-0.365335
-0.362288
-0.359106
-0.355606
-0.355013
-0.477234
-0.470051
-0.464602
-0.45981
-0.455134
-0.450571
-0.446089
-0.441651
-0.437235
-0.43283
-0.428432
-0.424042
-0.419661
-0.415296
-0.410953
-0.40664
-0.402367
-0.398142
-0.393977
-0.389882
-0.385869
-0.381952
-0.378141
-0.374447
-0.370886
-0.3675
-0.364289
-0.360929
-0.357209
-0.356776
-0.486359
-0.478839
-0.473105
-0.468037
-0.463077
-0.458223
-0.45345
-0.448719
-0.444009
-0.439311
-0.434622
-0.429942
-0.425275
-0.420625
-0.416001
-0.41141
-0.406862
-0.402366
-0.397934
-0.393578
-0.389309
-0.385143
-0.381091
-0.377168
-0.373391
-0.369806
-0.366418
-0.362863
-0.358905
-0.358644
-0.496069
-0.488183
-0.482138
-0.47677
-0.471502
-0.466338
-0.461253
-0.456209
-0.451188
-0.446181
-0.441185
-0.436201
-0.431233
-0.426285
-0.421367
-0.416484
-0.411648
-0.406867
-0.402154
-0.397521
-0.392981
-0.388549
-0.384241
-0.38007
-0.376057
-0.372257
-0.368675
-0.364906
-0.36069
-0.360613
-0.506375
-0.49809
-0.491708
-0.486017
-0.480419
-0.474922
-0.469504
-0.464129
-0.45878
-0.453447
-0.448129
-0.442826
-0.437544
-0.432286
-0.42706
-0.421873
-0.416736
-0.411657
-0.406649
-0.401724
-0.396896
-0.392182
-0.387598
-0.383159
-0.378892
-0.374855
-0.371059
-0.367056
-0.362559
-0.362676
-0.517284
-0.508568
-0.501822
-0.495783
-0.489831
-0.48398
-0.47821
-0.472486
-0.46679
-0.461116
-0.455461
-0.449827
-0.444217
-0.438636
-0.433091
-0.427589
-0.422139
-0.41675
-0.411433
-0.406201
-0.401069
-0.396054
-0.391174
-0.386448
-0.381902
-0.377606
-0.373571
-0.36931
-0.364507
-0.364822
-0.528803
-0.519622
-0.512485
-0.506074
-0.499745
-0.493518
-0.487376
-0.481284
-0.475226
-0.469195
-0.46319
-0.457211
-0.451262
-0.445348
-0.439473
-0.433645
-0.427871
-0.422159
-0.416521
-0.410968
-0.405515
-0.400181
-0.394984
-0.389946
-0.385096
-0.380512
-0.376212
-0.371661
-0.366519
-0.367031
-0.540938
-0.531257
-0.523701
-0.516893
-0.510164
-0.503539
-0.497005
-0.490528
-0.484092
-0.47769
-0.471322
-0.464987
-0.458689
-0.452431
-0.446218
-0.440054
-0.433946
-0.427902
-0.42193
-0.416042
-0.410252
-0.404579
-0.399043
-0.393665
-0.388482
-0.383578
-0.378976
-0.374097
-0.368573
-0.369274
-0.553691
-0.543475
-0.535471
-0.528241
-0.521089
-0.514046
-0.507101
-0.500222
-0.493392
-0.486607
-0.479864
-0.473163
-0.466507
-0.459897
-0.453337
-0.44683
-0.440381
-0.433995
-0.427679
-0.421443
-0.415301
-0.409269
-0.403369
-0.397623
-0.39207
-0.386806
-0.381859
-0.376604
-0.370646
-0.371514
-0.567065
-0.556276
-0.547797
-0.54012
-0.532522
-0.52504
-0.517666
-0.510368
-0.503131
-0.49595
-0.488822
-0.481746
-0.474724
-0.467756
-0.460844
-0.453988
-0.447192
-0.440458
-0.43379
-0.427196
-0.420686
-0.414276
-0.407985
-0.401837
-0.395874
-0.390202
-0.384855
-0.379161
-0.372701
-0.3737
-0.581056
-0.569659
-0.560675
-0.552527
-0.54446
-0.536519
-0.528699
-0.520968
-0.513311
-0.505723
-0.498201
-0.490743
-0.483349
-0.476019
-0.468751
-0.461544
-0.454398
-0.447312
-0.440287
-0.433326
-0.426436
-0.419628
-0.412921
-0.406335
-0.399915
-0.393775
-0.387959
-0.381745
-0.374691
-0.375758
-0.595662
-0.583619
-0.574101
-0.565458
-0.5569
-0.548481
-0.540198
-0.53202
-0.523932
-0.515928
-0.508004
-0.500159
-0.49239
-0.484695
-0.47707
-0.469513
-0.462017
-0.45458
-0.447197
-0.439865
-0.432586
-0.425367
-0.418217
-0.411155
-0.404223
-0.397543
-0.391167
-0.384324
-0.376549
-0.377584
-0.610876
-0.598149
-0.588068
-0.578904
-0.569835
-0.56092
-0.55216
-0.543522
-0.534993
-0.526565
-0.518234
-0.509998
-0.501852
-0.493793
-0.485814
-0.47791
-0.470071
-0.462288
-0.454551
-0.446852
-0.439184
-0.431542
-0.42393
-0.416354
-0.40885
-0.401545
-0.394492
-0.38687
-0.37819
-0.379029
-0.626691
-0.613238
-0.602563
-0.592857
-0.583256
-0.573829
-0.564577
-0.55547
-0.54649
-0.537632
-0.52889
-0.520261
-0.51174
-0.50332
-0.494993
-0.48675
-0.478578
-0.470462
-0.462386
-0.454333
-0.446284
-0.438224
-0.430139
-0.422019
-0.413884
-0.405853
-0.397976
-0.389365
-0.379498
-0.379867
-0.643097
-0.628871
-0.617572
-0.6073
-0.597149
-0.587195
-0.577442
-0.567855
-0.558418
-0.549125
-0.539971
-0.530949
-0.522055
-0.51328
-0.504615
-0.496046
-0.487558
-0.479131
-0.470742
-0.462362
-0.453961
-0.445506
-0.436961
-0.428289
-0.419477
-0.410617
-0.401733
-0.391842
-0.380348
-0.379792
-0.660089
-0.645027
-0.633071
-0.622214
-0.611499
-0.601006
-0.590741
-0.580667
-0.570768
-0.561038
-0.551469
-0.542057
-0.532795
-0.523674
-0.514683
-0.505808
-0.497029
-0.488322
-0.479658
-0.471
-0.462303
-0.453513
-0.444566
-0.435385
-0.425905
-0.416163
-0.406122
-0.394636
-0.380907
-0.378652
-0.677694
-0.661686
-0.649033
-0.637574
-0.626283
-0.615243
-0.604458
-0.593893
-0.583528
-0.573358
-0.563376
-0.553577
-0.543953
-0.534497
-0.525196
-0.516037
-0.506998
-0.498053
-0.489171
-0.480306
-0.471401
-0.462385
-0.453161
-0.443601
-0.433564
-0.422998
-0.411764
-0.398386
-0.381354
-0.375568
-0.695961
-0.678815
-0.665409
-0.653342
-0.641473
-0.629883
-0.618576
-0.607516
-0.596684
-0.586074
-0.575679
-0.565496
-0.555518
-0.545738
-0.536145
-0.526726
-0.517462
-0.508331
-0.499299
-0.490322
-0.481339
-0.472263
-0.46297
-0.453268
-0.442899
-0.431634
-0.419032
-0.402696
-0.379041
-0.36458
-0.714422
-0.696219
-0.682132
-0.669483
-0.657046
-0.644907
-0.633076
-0.621518
-0.610216
-0.599164
-0.588359
-0.577795
-0.567468
-0.557374
-0.547504
-0.537848
-0.528395
-0.519128
-0.510025
-0.501056
-0.492174
-0.483315
-0.474367
-0.465143
-0.455346
-0.444582
-0.43192
-0.413625
-0.383309
-0.357204
-1.1898
-1.18685
-1.18198
-1.17565
-1.16789
-1.15874
-1.14829
-1.13661
-1.12378
-1.10988
-1.09501
-1.07925
-1.06267
-1.04538
-1.02745
-1.00896
-0.989997
-0.970636
-0.950951
-0.931015
-0.910898
-0.890665
-0.870377
-0.850095
-0.82987
-0.809754
-0.789787
-0.769982
-0.750323
-0.731243
-1.1553
-1.15237
-1.1477
-1.14153
-1.13394
-1.12501
-1.1148
-1.10341
-1.09093
-1.07742
-1.06299
-1.04771
-1.03166
-1.01493
-0.997595
-0.97974
-0.961441
-0.942772
-0.923805
-0.904611
-0.885257
-0.865805
-0.846318
-0.826852
-0.807462
-0.788202
-0.769122
-0.750271
-0.731701
-0.713594
-1.12688
-1.12399
-1.11947
-1.11347
-1.10608
-1.09737
-1.08743
-1.07634
-1.06419
-1.05105
-1.03702
-1.02216
-1.00657
-0.990329
-0.973509
-0.956191
-0.938451
-0.920361
-0.901993
-0.883415
-0.864691
-0.845885
-0.827056
-0.80826
-0.789552
-0.770985
-0.75261
-0.73448
-0.716654
-0.699209
-1.10013
-1.09735
-1.09302
-1.08725
-1.08011
-1.07169
-1.06206
-1.05131
-1.03951
-1.02676
-1.01314
-0.998718
-0.983584
-0.967815
-0.95149
-0.934685
-0.917474
-0.89993
-0.882122
-0.864116
-0.845977
-0.827766
-0.809542
-0.791359
-0.773272
-0.755332
-0.737586
-0.720085
-0.702881
-0.686022
-1.07301
-1.07045
-1.06638
-1.0609
-1.05408
-1.046
-1.03674
-1.02638
-1.015
-1.00268
-0.989497
-0.97554
-0.960886
-0.945614
-0.929799
-0.913518
-0.896844
-0.879848
-0.862598
-0.845162
-0.8276
-0.809975
-0.792343
-0.774758
-0.757274
-0.73994
-0.722802
-0.705906
-0.689297
-0.673013
-1.04579
-1.04353
-1.0398
-1.03468
-1.02825
-1.02058
-1.01174
-1.00181
-0.990884
-0.979029
-0.96633
-0.952865
-0.938713
-0.923953
-0.90866
-0.89291
-0.876774
-0.860324
-0.843627
-0.826749
-0.809751
-0.792694
-0.775634
-0.758625
-0.741719
-0.724963
-0.708403
-0.692081
-0.67604
-0.660312
-1.01858
-1.01671
-1.01338
-1.00868
-1.0027
-0.995479
-0.987111
-0.97767
-0.967233
-0.955881
-0.943692
-0.930743
-0.917114
-0.902882
-0.888122
-0.872909
-0.857313
-0.841406
-0.825254
-0.808923
-0.792473
-0.775966
-0.759456
-0.742998
-0.726642
-0.710435
-0.694421
-0.678643
-0.663139
-0.647943
-0.991401
-0.989961
-0.987093
-0.982881
-0.977385
-0.970674
-0.962822
-0.953904
-0.943998
-0.933181
-0.921531
-0.909124
-0.896039
-0.882351
-0.868135
-0.853465
-0.838413
-0.823047
-0.807435
-0.791641
-0.775727
-0.759752
-0.743772
-0.727841
-0.712009
-0.696323
-0.680827
-0.665562
-0.650566
-0.635874
-0.964292
-0.963339
-0.960977
-0.957287
-0.952327
-0.946161
-0.938862
-0.930503
-0.921159
-0.910907
-0.899822
-0.887981
-0.875458
-0.86233
-0.848671
-0.834553
-0.820048
-0.805223
-0.790147
-0.774882
-0.759492
-0.744034
-0.728565
-0.713139
-0.697806
-0.682614
-0.667607
-0.652827
-0.638309
-0.624092
-0.937327
-0.936893
-0.935073
-0.931938
-0.927544
-0.921955
-0.915239
-0.907467
-0.898714
-0.889052
-0.878556
-0.867299
-0.855357
-0.842804
-0.829713
-0.816155
-0.802201
-0.78792
-0.773376
-0.758635
-0.743758
-0.728804
-0.713829
-0.698888
-0.68403
-0.669306
-0.654759
-0.640433
-0.626364
-0.612592
-0.910579
-0.910687
-0.909428
-0.906871
-0.903067
-0.898077
-0.891966
-0.884805
-0.876663
-0.867611
-0.857722
-0.847068
-0.835723
-0.823758
-0.811246
-0.798257
-0.78486
-0.771124
-0.757113
-0.742891
-0.728519
-0.714056
-0.69956
-0.685083
-0.670679
-0.656396
-0.642282
-0.62838
-0.614729
-0.60137
-0.884123
-0.884782
-0.884096
-0.882128
-0.878927
-0.87455
-0.86906
-0.862524
-0.855009
-0.846584
-0.837317
-0.82728
-0.816544
-0.805179
-0.793256
-0.780844
-0.768011
-0.754823
-0.741344
-0.727638
-0.713766
-0.699785
-0.685753
-0.671724
-0.657752
-0.643886
-0.630176
-0.616667
-0.603402
-0.590424
-0.858029
-0.859239
-0.859127
-0.857751
-0.855158
-0.851401
-0.84654
-0.840637
-0.833759
-0.82597
-0.817336
-0.807926
-0.79781
-0.787055
-0.775731
-0.763903
-0.75164
-0.739004
-0.726061
-0.71287
-0.699492
-0.685986
-0.672407
-0.65881
-0.645248
-0.631775
-0.618441
-0.605295
-0.592382
-0.57975
-0.832364
-0.834115
-0.834571
-0.833782
-0.831794
-0.828656
-0.824424
-0.819157
-0.812919
-0.805771
-0.797777
-0.789002
-0.779513
-0.769377
-0.758658
-0.747423
-0.735735
-0.723657
-0.711252
-0.698577
-0.685693
-0.672655
-0.659519
-0.64634
-0.633172
-0.620068
-0.607081
-0.594265
-0.581668
-0.569346
-0.807186
-0.809463
-0.810471
-0.810259
-0.808866
-0.806339
-0.80273
-0.798097
-0.792498
-0.785992
-0.778639
-0.770502
-0.761646
-0.752133
-0.742026
-0.73139
-0.720284
-0.70877
-0.696907
-0.684752
-0.672362
-0.65979
-0.647091
-0.634319
-0.621527
-0.60877
-0.596102
-0.583581
-0.571262
-0.559208
-0.782548
-0.785329
-0.78687
-0.787216
-0.786403
-0.784473
-0.781477
-0.777468
-0.772503
-0.766634
-0.75992
-0.752422
-0.744199
-0.735313
-0.725824
-0.715791
-0.705275
-0.694331
-0.683017
-0.671387
-0.659493
-0.647388
-0.635124
-0.62275
-0.61032
-0.597888
-0.58551
-0.573247
-0.561164
-0.549331
-0.758495
-0.761753
-0.763803
-0.764684
-0.764429
-0.763079
-0.76068
-0.757284
-0.75294
-0.7477
-0.74162
-0.734756
-0.727166
-0.718908
-0.710039
-0.700615
-0.690693
-0.680327
-0.66957
-0.658472
-0.647082
-0.635449
-0.623619
-0.61164
-0.599561
-0.587434
-0.575317
-0.563275
-0.551378
-0.539712
-0.735063
-0.738768
-0.741298
-0.742688
-0.742969
-0.742176
-0.740355
-0.737552
-0.733815
-0.729193
-0.723737
-0.7175
-0.710539
-0.702907
-0.694659
-0.685848
-0.676527
-0.666746
-0.656554
-0.645998
-0.635123
-0.623969
-0.61258
-0.600996
-0.589262
-0.577425
-0.56554
-0.553676
-0.541912
-0.530347
-0.712281
-0.716401
-0.719382
-0.721251
-0.722039
-0.721779
-0.720512
-0.718282
-0.715134
-0.711113
-0.706268
-0.700649
-0.694309
-0.687299
-0.679671
-0.671475
-0.66276
-0.653573
-0.643958
-0.633956
-0.623608
-0.612948
-0.602011
-0.59083
-0.57944
-0.567881
-0.556203
-0.544472
-0.532776
-0.521232
-0.69017
-0.694674
-0.698071
-0.70039
-0.701656
-0.7019
-0.701161
-0.699481
-0.6969
-0.693461
-0.68921
-0.684197
-0.678468
-0.672074
-0.665063
-0.657483
-0.649378
-0.640792
-0.631765
-0.622333
-0.61253
-0.602382
-0.591916
-0.581153
-0.570116
-0.558832
-0.547339
-0.535695
-0.523992
-0.512367
-0.668746
-0.673599
-0.677381
-0.680116
-0.681829
-0.682548
-0.682309
-0.681152
-0.679114
-0.676236
-0.672561
-0.668137
-0.663007
-0.65722
-0.650821
-0.643855
-0.636363
-0.628386
-0.61996
-0.611115
-0.601877
-0.592267
-0.582298
-0.571979
-0.561315
-0.550313
-0.53899
-0.527387
-0.515593
-0.503755
-0.648018
-0.653187
-0.657319
-0.660438
-0.662566
-0.663728
-0.66396
-0.663298
-0.661777
-0.659436
-0.656317
-0.652462
-0.647917
-0.642725
-0.63693
-0.630574
-0.623698
-0.616336
-0.608523
-0.600283
-0.591636
-0.582594
-0.573158
-0.56332
-0.553064
-0.542368
-0.531216
-0.519614
-0.50763
-0.495406
-0.62799
-0.633441
-0.637891
-0.641361
-0.643871
-0.645445
-0.646117
-0.64592
-0.644889
-0.643059
-0.640471
-0.637166
-0.633187
-0.628576
-0.623375
-0.617624
-0.611362
-0.604621
-0.597432
-0.589817
-0.581789
-0.57335
-0.564491
-0.555186
-0.545391
-0.535049
-0.524091
-0.512463
-0.500188
-0.48735
-0.60866
-0.614362
-0.619098
-0.622887
-0.625747
-0.627701
-0.628781
-0.62902
-0.628449
-0.627103
-0.625021
-0.622243
-0.618809
-0.614762
-0.610142
-0.604988
-0.599336
-0.59322
-0.586666
-0.579694
-0.572313
-0.56452
-0.556291
-0.547585
-0.538329
-0.528418
-0.517714
-0.506065
-0.493401
-0.479645
-0.590022
-0.595945
-0.600936
-0.605012
-0.60819
-0.610492
-0.61195
-0.612594
-0.612453
-0.611563
-0.60996
-0.607683
-0.604773
-0.601271
-0.597216
-0.592647
-0.587601
-0.582109
-0.576199
-0.569888
-0.563184
-0.556079
-0.548543
-0.540518
-0.531903
-0.522544
-0.51221
-0.500603
-0.487492
-0.472438
-0.572069
-0.578182
-0.583396
-0.587727
-0.59119
-0.593807
-0.595609
-0.596625
-0.596883
-0.596416
-0.595262
-0.593459
-0.591046
-0.588064
-0.584554
-0.580554
-0.5761
-0.571228
-0.565963
-0.560325
-0.554323
-0.547949
-0.541171
-0.53392
-0.526077
-0.517437
-0.507667
-0.496265
-0.482771
-0.466041
-0.554792
-0.561065
-0.566472
-0.571026
-0.574742
-0.577641
-0.579753
-0.581107
-0.581728
-0.581651
-0.580911
-0.579547
-0.577599
-0.575107
-0.572112
-0.568655
-0.564773
-0.560502
-0.555873
-0.550908
-0.54562
-0.540006
-0.53404
-0.527655
-0.520725
-0.513017
-0.504088
-0.493194
-0.479587
-0.460848
-0.53818
-0.544609
-0.550201
-0.55497
-0.558928
-0.562098
-0.564509
-0.566187
-0.567158
-0.567456
-0.567117
-0.56618
-0.564684
-0.56267
-0.560181
-0.557259
-0.553944
-0.550274
-0.546284
-0.542002
-0.537448
-0.53263
-0.527533
-0.52211
-0.516252
-0.509735
-0.502055
-0.49221
-0.479007
-0.457249
-0.522203
-0.528806
-0.534601
-0.539602
-0.543823
-0.547286
-0.550019
-0.552048
-0.5534
-0.554108
-0.55421
-0.553745
-0.552752
-0.551276
-0.549359
-0.547047
-0.544381
-0.541406
-0.538158
-0.534674
-0.530982
-0.527102
-0.523041
-0.518784
-0.514275
-0.509376
-0.503678
-0.496097
-0.484899
-0.458676
-0.506772
-0.513329
-0.519113
-0.524136
-0.528412
-0.531964
-0.534819
-0.537004
-0.538546
-0.539481
-0.539846
-0.539682
-0.539032
-0.537942
-0.53646
-0.534634
-0.532515
-0.530151
-0.527592
-0.524884
-0.522071
-0.519196
-0.516298
-0.513413
-0.510578
-0.507852
-0.505142
-0.50184
-0.49798
-0.478264
-0.414638
-0.462373
-0.508819
-0.554587
-0.599492
-0.643368
-0.686098
-0.727574
-0.767691
-0.806352
-0.843468
-0.878956
-0.912741
-0.944754
-0.974933
-1.00322
-1.02958
-1.05397
-1.07635
-1.09671
-1.11503
-1.1313
-1.14552
-1.15771
-1.16787
-1.17603
-1.18221
-1.18644
-1.18871
-1.18939
-0.406766
-0.453341
-0.498841
-0.543508
-0.587226
-0.629878
-0.671371
-0.711609
-0.750499
-0.787949
-0.823877
-0.858203
-0.890855
-0.92177
-0.950888
-0.978159
-1.00354
-1.02699
-1.0485
-1.06802
-1.08557
-1.10112
-1.11469
-1.12628
-1.13591
-1.14361
-1.14942
-1.15337
-1.1555
-1.156
-0.395848
-0.441414
-0.486058
-0.529844
-0.572669
-0.614432
-0.655044
-0.694413
-0.732451
-0.76907
-0.80419
-0.837735
-0.869635
-0.899828
-0.928257
-0.954873
-0.979636
-1.00251
-1.02347
-1.0425
-1.05958
-1.07471
-1.08791
-1.09917
-1.10852
-1.11599
-1.12162
-1.12543
-1.12749
-1.12789
-0.381543
-0.426196
-0.470019
-0.513009
-0.55506
-0.596072
-0.635956
-0.674622
-0.711983
-0.747954
-0.782456
-0.815414
-0.84676
-0.876433
-0.904376
-0.930543
-0.954892
-0.977389
-0.998009
-1.01673
-1.03355
-1.04846
-1.06146
-1.07257
-1.08181
-1.08921
-1.09479
-1.09861
-1.10069
-1.10112
-0.364295
-0.408047
-0.451043
-0.493244
-0.534541
-0.574835
-0.614034
-0.652049
-0.688794
-0.724186
-0.758147
-0.790603
-0.821486
-0.850735
-0.878296
-0.904119
-0.928165
-0.950399
-0.970795
-0.989335
-1.00601
-1.02081
-1.03374
-1.04482
-1.05407
-1.0615
-1.06715
-1.07107
-1.07327
-1.07385
-0.344836
-0.387696
-0.429863
-0.471278
-0.511831
-0.551423
-0.589964
-0.627363
-0.663536
-0.6984
-0.731877
-0.763894
-0.794385
-0.823286
-0.850545
-0.876111
-0.899943
-0.922008
-0.942277
-0.960732
-0.977361
-0.992158
-1.00513
-1.01628
-1.02562
-1.03319
-1.03902
-1.04313
-1.04556
-1.04638
-0.32386
-0.365822
-0.40715
-0.447771
-0.487579
-0.526474
-0.564366
-0.601167
-0.63679
-0.671155
-0.704183
-0.735802
-0.765946
-0.794551
-0.821563
-0.846932
-0.870616
-0.89258
-0.912795
-0.93124
-0.947902
-0.962774
-0.975857
-0.987158
-0.996693
-1.00448
-1.01056
-1.01495
-1.01769
-1.01884
-0.301977
-0.343028
-0.383499
-0.423311
-0.46236
-0.500549
-0.537788
-0.573989
-0.609067
-0.642941
-0.675534
-0.706774
-0.736592
-0.764928
-0.791724
-0.816931
-0.840506
-0.862411
-0.882617
-0.901102
-0.91785
-0.932852
-0.946106
-0.957619
-0.967402
-0.975475
-0.981864
-0.9866
-0.98971
-0.991253
-0.279711
-0.319833
-0.359427
-0.398411
-0.436683
-0.47415
-0.510721
-0.546312
-0.580837
-0.614216
-0.646372
-0.677233
-0.706731
-0.734805
-0.761397
-0.786456
-0.809939
-0.831808
-0.85203
-0.870582
-0.887446
-0.90261
-0.916073
-0.927835
-0.937907
-0.946306
-0.953053
-0.958178
-0.961707
-0.963691
-0.25749
-0.296667
-0.335366
-0.373501
-0.410978
-0.447704
-0.483591
-0.518555
-0.552511
-0.585381
-0.617089
-0.647562
-0.676733
-0.704539
-0.730923
-0.755835
-0.779228
-0.801063
-0.821308
-0.839937
-0.856929
-0.872272
-0.88596
-0.897992
-0.908376
-0.917125
-0.924258
-0.929802
-0.93378
-0.936239
-0.235653
-0.273872
-0.311659
-0.34893
-0.385594
-0.421561
-0.456745
-0.491064
-0.524434
-0.556778
-0.58802
-0.618088
-0.646916
-0.67444
-0.700604
-0.725355
-0.748648
-0.770442
-0.790703
-0.809404
-0.826523
-0.842044
-0.85596
-0.868267
-0.87897
-0.888079
-0.89561
-0.901587
-0.906032
-0.908985
-0.214454
-0.251707
-0.288573
-0.324967
-0.360803
-0.395996
-0.430462
-0.464118
-0.496884
-0.528682
-0.559439
-0.589083
-0.617547
-0.644769
-0.670692
-0.695264
-0.718438
-0.740173
-0.760434
-0.779192
-0.796424
-0.812112
-0.826246
-0.83882
-0.849837
-0.859303
-0.867233
-0.873645
-0.87856
-0.882012
-0.194079
-0.230363
-0.266301
-0.301811
-0.336811
-0.371219
-0.404952
-0.437931
-0.470077
-0.501312
-0.531564
-0.560763
-0.588842
-0.615739
-0.641398
-0.665767
-0.688798
-0.71045
-0.730688
-0.749481
-0.766804
-0.782638
-0.796972
-0.809797
-0.821112
-0.830923
-0.839239
-0.846077
-0.851455
-0.855403
-0.174652
-0.20997
-0.24498
-0.279604
-0.313763
-0.347379
-0.380372
-0.412663
-0.444175
-0.474832
-0.504562
-0.533296
-0.560968
-0.587518
-0.612888
-0.637027
-0.659889
-0.681432
-0.701619
-0.720419
-0.737807
-0.753762
-0.768269
-0.781321
-0.792912
-0.803046
-0.811729
-0.818977
-0.824802
-0.829233
-0.15625
-0.190609
-0.224695
-0.258435
-0.291755
-0.324578
-0.356826
-0.388423
-0.419293
-0.44936
-0.478553
-0.506805
-0.53405
-0.56023
-0.585288
-0.609173
-0.631838
-0.653243
-0.673349
-0.692127
-0.70955
-0.725595
-0.740248
-0.753496
-0.765336
-0.775765
-0.784791
-0.792424
-0.798675
-0.803568
-0.138911
-0.172321
-0.205493
-0.238356
-0.270842
-0.302876
-0.334381
-0.365283
-0.395504
-0.424973
-0.453619
-0.481374
-0.508177
-0.533967
-0.558689
-0.582295
-0.604738
-0.625976
-0.645973
-0.664698
-0.682124
-0.698228
-0.712993
-0.726408
-0.738464
-0.749159
-0.758497
-0.766486
-0.773136
-0.778465
-0.122643
-0.155118
-0.187387
-0.219386
-0.251048
-0.282301
-0.313069
-0.343278
-0.372851
-0.401718
-0.429809
-0.457057
-0.483402
-0.508786
-0.533154
-0.556458
-0.578653
-0.599699
-0.619558
-0.638201
-0.655599
-0.671729
-0.686575
-0.700121
-0.712361
-0.723289
-0.732907
-0.741221
-0.748239
-0.753975
-0.107432
-0.138987
-0.170369
-0.201518
-0.232371
-0.262855
-0.292896
-0.322419
-0.351348
-0.379613
-0.407145
-0.43388
-0.459757
-0.48472
-0.508717
-0.5317
-0.553625
-0.574454
-0.594149
-0.612681
-0.630021
-0.646147
-0.66104
-0.674686
-0.687076
-0.698203
-0.708067
-0.716672
-0.724024
-0.730136
-0.09325
-0.123898
-0.154409
-0.184727
-0.214788
-0.244521
-0.273849
-0.302697
-0.330989
-0.358656
-0.385629
-0.411846
-0.437248
-0.46178
-0.485392
-0.508038
-0.529675
-0.550264
-0.569772
-0.588166
-0.605421
-0.621513
-0.636423
-0.650136
-0.662642
-0.673934
-0.68401
-0.692872
-0.700525
-0.706979
-0.0800539
-0.109809
-0.139466
-0.168973
-0.198264
-0.227266
-0.2559
-0.284087
-0.311753
-0.338828
-0.365245
-0.390943
-0.415866
-0.43996
-0.463177
-0.485472
-0.506805
-0.527137
-0.546435
-0.564669
-0.581813
-0.597843
-0.612741
-0.626491
-0.639082
-0.650507
-0.660761
-0.669846
-0.677765
-0.684526
-0.0677948
-0.0966646
-0.125488
-0.154208
-0.182754
-0.211049
-0.239008
-0.266552
-0.293605
-0.320097
-0.345964
-0.371146
-0.395589
-0.419241
-0.442055
-0.46399
-0.485005
-0.505064
-0.524135
-0.542189
-0.559198
-0.575142
-0.590002
-0.60376
-0.616406
-0.627932
-0.638332
-0.647608
-0.655759
-0.662794
-0.0564176
-0.0844049
-0.112416
-0.140375
-0.168206
-0.19582
-0.223129
-0.250049
-0.276504
-0.302426
-0.32775
-0.352421
-0.376384
-0.399592
-0.422
-0.443567
-0.464255
-0.484029
-0.502858
-0.520713
-0.537569
-0.553405
-0.568201
-0.581942
-0.594616
-0.606214
-0.61673
-0.626163
-0.634515
-0.641791
-0.0458615
-0.0729599
-0.100182
-0.127413
-0.15456
-0.181525
-0.20821
-0.234528
-0.260402
-0.285766
-0.310559
-0.334724
-0.358213
-0.380978
-0.402977
-0.424172
-0.444525
-0.464005
-0.482579
-0.500222
-0.516908
-0.532617
-0.547329
-0.561029
-0.573705
-0.585347
-0.595951
-0.605513
-0.614034
-0.621519
-0.0360575
-0.0622475
-0.088712
-0.115252
-0.141754
-0.168104
-0.194193
-0.219932
-0.245245
-0.270067
-0.294338
-0.318007
-0.341026
-0.363352
-0.384944
-0.405764
-0.425779
-0.444957
-0.463269
-0.480687
-0.49719
-0.512755
-0.527365
-0.541003
-0.553659
-0.565322
-0.575987
-0.585651
-0.594312
-0.601975
-0.02692
-0.0521777
-0.0779318
-0.103828
-0.12973
-0.155503
-0.181028
-0.206213
-0.230984
-0.255279
-0.279042
-0.302225
-0.324782
-0.346673
-0.36786
-0.388307
-0.407982
-0.426854
-0.444895
-0.462081
-0.478388
-0.493796
-0.508287
-0.521847
-0.534462
-0.546124
-0.556827
-0.566566
-0.575341
-0.583154
-0.0183388
-0.0426909
-0.0678215
-0.0931332
-0.118485
-0.143723
-0.168714
-0.193367
-0.217615
-0.241397
-0.264663
-0.287368
-0.30947
-0.330931
-0.351715
-0.371788
-0.39112
-0.409682
-0.427447
-0.44439
-0.460491
-0.475728
-0.490086
-0.503548
-0.516104
-0.527743
-0.53846
-0.548249
-0.557111
-0.565047
-0.010159
-0.0336831
-0.0583347
-0.0831327
-0.107986
-0.132726
-0.157209
-0.181351
-0.205089
-0.22837
-0.251149
-0.273384
-0.295037
-0.316072
-0.336456
-0.356157
-0.375146
-0.393395
-0.410879
-0.427575
-0.44346
-0.458517
-0.472729
-0.48608
-0.498559
-0.510157
-0.520867
-0.530685
-0.539609
-0.547641
-0.00193036
-0.0243985
-0.0487437
-0.0731457
-0.0975835
-0.121886
-0.145907
-0.169575
-0.192838
-0.215651
-0.237975
-0.259771
-0.281006
-0.301645
-0.321658
-0.341014
-0.359686
-0.377647
-0.394873
-0.411341
-0.427031
-0.441924
-0.456004
-0.469256
-0.481669
-0.493233
-0.503942
-0.513791
-0.522778
-0.530905
0.00761138
-0.013482
-0.0378782
-0.0621697
-0.086407
-0.11042
-0.134094
-0.157389
-0.180269
-0.2027
-0.224647
-0.246079
-0.266965
-0.287274
-0.306975
-0.326043
-0.34445
-0.362171
-0.379183
-0.395464
-0.410996
-0.425759
-0.439738
-0.45292
-0.465292
-0.476847
-0.487576
-0.497476
-0.506546
-0.514786
0.0173282
-0.00596033
-0.0314385
-0.0558488
-0.0800209
-0.103803
-0.127123
-0.150007
-0.172445
-0.194412
-0.215884
-0.236833
-0.257235
-0.277062
-0.296288
-0.314891
-0.332845
-0.350129
-0.366722
-0.382605
-0.39776
-0.412172
-0.425826
-0.43871
-0.450814
-0.46213
-0.472653
-0.482377
-0.491304
-0.499434
0.526169
0.533218
0.540431
0.547776
0.555251
0.562851
0.570569
0.578392
0.586309
0.594303
0.602356
0.610447
0.618554
0.626649
0.634706
0.642697
0.650596
0.65838
0.666033
0.673553
0.680956
0.688286
0.695622
0.703098
0.710917
0.719377
0.728789
0.739424
0.753092
0.772912
0.519124
0.525913
0.532966
0.540132
0.547406
0.554795
0.56229
0.569879
0.577547
0.585277
0.593051
0.600845
0.608636
0.616394
0.624093
0.631702
0.639194
0.646545
0.653738
0.66077
0.667659
0.674449
0.681226
0.688127
0.695368
0.703258
0.71213
0.722284
0.735585
0.755288
0.511225
0.517704
0.524573
0.531533
0.538576
0.545722
0.552962
0.560281
0.567665
0.575094
0.582549
0.590005
0.597436
0.604814
0.612108
0.619287
0.626322
0.633188
0.639869
0.646361
0.652682
0.65888
0.665046
0.671324
0.677941
0.685225
0.693528
0.703186
0.716133
0.735731
0.502478
0.508598
0.515258
0.521987
0.52877
0.535641
0.542593
0.54961
0.556673
0.563765
0.570862
0.577939
0.584969
0.591922
0.598765
0.605466
0.611996
0.618327
0.624445
0.630345
0.636047
0.641603
0.647108
0.652716
0.658666
0.665301
0.672998
0.682124
0.694652
0.713987
0.492894
0.498608
0.505034
0.511506
0.517999
0.524564
0.531197
0.537877
0.544586
0.551302
0.558003
0.564662
0.571249
0.577733
0.58408
0.590257
0.596233
0.601981
0.607484
0.612741
0.617774
0.622638
0.627433
0.632326
0.637564
0.643509
0.650562
0.659115
0.671168
0.690137
0.482483
0.487745
0.493914
0.500104
0.506279
0.512508
0.518789
0.5251
0.531419
0.537724
0.543991
0.550191
0.556294
0.562267
0.568074
0.573681
0.579056
0.584172
0.589012
0.593577
0.597891
0.602013
0.606053
0.610183
0.614666
0.619881
0.626249
0.634192
0.645724
0.664251
0.471259
0.476025
0.481915
0.487797
0.493624
0.499488
0.505387
0.511295
0.51719
0.523049
0.528845
0.534549
0.540128
0.545547
0.550771
0.555763
0.560491
0.564928
0.569058
0.572882
0.576429
0.579763
0.583001
0.586325
0.590011
0.594456
0.600101
0.607396
0.618362
0.636383
0.459236
0.463463
0.469051
0.474601
0.480053
0.485521
0.491007
0.496482
0.50192
0.507298
0.512587
0.517757
0.522773
0.527598
0.532197
0.536531
0.540568
0.54428
0.547653
0.550691
0.553425
0.555927
0.558318
0.560793
0.563642
0.567277
0.572162
0.578773
0.589133
0.606591
0.446428
0.450075
0.45534
0.460535
0.465584
0.470628
0.475672
0.480682
0.485632
0.490495
0.495243
0.499842
0.504256
0.508449
0.512382
0.516017
0.519319
0.522264
0.524836
0.527044
0.528921
0.530546
0.532048
0.533634
0.535607
0.538396
0.542486
0.548379
0.558094
0.574935
0.43285
0.43588
0.440801
0.445616
0.450236
0.454829
0.459402
0.463918
0.468348
0.472665
0.476838
0.480831
0.484609
0.488131
0.491359
0.494254
0.496782
0.498917
0.500647
0.501982
0.502961
0.503668
0.504242
0.5049
0.505961
0.50787
0.511132
0.516275
0.525307
0.541481
0.41852
0.420895
0.425455
0.429867