/*--------------------------------*- C++ -*----------------------------------*\
  =========                 |
  \\      /  F ield         | OpenFOAM: The Open Source CFD Toolbox
   \\    /   O peration     | Website:  https://openfoam.org
    \\  /    A nd           | Version:  6.0
     \\/     M anipulation  |
\*---------------------------------------------------------------------------*/
FoamFile
{
    version     2.0;
    format      ascii;
    class       volScalarField;
    location    "7.5";
    object      p;
}
// * * * * * * * * * * * * * * * * * * * * * * * * * * * * * * * * * * * * * //

dimensions      [0 2 -2 0 0 0 0];

internalField   nonuniform List<scalar> 
19200
(
-37.5912
-33.986
-31.3367
-29.1395
-27.1134
-25.256
-23.5535
-21.9837
-20.5315
-19.1856
-17.937
-16.7781
-15.702
-14.7028
-13.7749
-12.9132
-12.1129
-11.3696
-10.679
-10.0372
-9.4406
-8.88566
-8.36926
-7.88846
-7.44056
-7.02311
-6.63386
-6.27064
-5.93153
-5.61624
-37.8809
-34.2804
-31.6273
-29.4215
-27.385
-25.5163
-23.802
-22.2205
-20.7569
-19.4002
-18.1415
-16.9731
-15.8882
-14.881
-13.9458
-13.0774
-12.2711
-11.5222
-10.8266
-10.1802
-9.57932
-9.0205
-8.5005
-8.01635
-7.56533
-7.14495
-6.75295
-6.38706
-6.04525
-5.72809
-38.1774
-34.5756
-31.9175
-29.7032
-27.6562
-25.7761
-24.0499
-22.4568
-20.9818
-19.6142
-18.3453
-17.1675
-16.074
-15.0588
-14.1163
-13.2413
-12.4289
-11.6745
-10.9739
-10.323
-9.71791
-9.15524
-8.63167
-8.14421
-7.69009
-7.26681
-6.87206
-6.5035
-6.15901
-5.84003
-38.4776
-34.8723
-32.2079
-29.9847
-27.927
-26.0352
-24.2972
-22.6923
-21.2059
-19.8275
-18.5485
-17.3612
-16.2591
-15.2359
-14.2862
-13.4046
-12.5863
-11.8265
-11.1209
-10.4654
-9.85624
-9.28975
-8.76266
-8.27192
-7.81473
-7.38856
-6.9911
-6.61987
-6.27272
-5.95198
-38.7797
-35.1699
-32.4984
-30.2658
-28.1972
-26.2937
-24.5438
-22.927
-21.4292
-20.04
-18.7508
-17.5542
-16.4434
-15.4123
-14.4554
-13.5673
-12.7431
-11.9779
-11.2674
-10.6075
-9.9942
-9.42395
-8.89338
-8.3994
-7.93917
-7.51016
-7.10999
-6.73612
-6.38631
-6.06387
-39.0828
-35.468
-32.7889
-30.5466
-28.4668
-26.5515
-24.7894
-23.1607
-21.6514
-20.2514
-18.9521
-17.7461
-16.6268
-15.5879
-14.6239
-13.7293
-12.8992
-12.1287
-11.4134
-10.749
-10.1317
-9.55775
-9.02374
-8.52656
-8.06334
-7.6315
-7.22866
-6.85216
-6.49972
-6.17564
-39.3863
-35.7663
-33.0792
-30.8268
-28.7357
-26.8083
-25.034
-23.3934
-21.8726
-20.4617
-19.1524
-17.937
-16.8091
-15.7625
-14.7914
-13.8905
-13.0545
-12.2788
-11.5587
-10.89
-10.2687
-9.69104
-9.15365
-8.65331
-8.18714
-7.75252
-7.34704
-6.96792
-6.61288
-6.28723
-39.6896
-36.0642
-33.3689
-31.1062
-29.0036
-27.064
-25.2775
-23.6248
-22.0925
-20.6708
-19.3513
-18.1267
-16.9903
-15.936
-14.9579
-14.0506
-13.2089
-12.428
-11.7032
-11.0302
-10.405
-9.82373
-9.28301
-8.77957
-8.31049
-7.87313
-7.46504
-7.08334
-6.72571
-6.39857
-39.9925
-36.3617
-33.6579
-31.3847
-29.2703
-27.3185
-25.5196
-23.8548
-22.311
-20.8784
-19.5489
-18.315
-17.1702
-16.1082
-15.1232
-14.2097
-13.3623
-12.5763
-11.8468
-11.1696
-10.5405
-9.95572
-9.41172
-8.90523
-8.43329
-7.99324
-7.58259
-7.19833
-6.83816
-6.5096
-40.2946
-36.6582
-33.9459
-31.6621
-29.5358
-27.5715
-25.7602
-24.0832
-22.5278
-21.0845
-19.7449
-18.5019
-17.3487
-16.2791
-15.2872
-14.3675
-13.5146
-12.7234
-11.9894
-11.308
-10.6752
-10.0869
-9.53968
-9.0302
-8.55546
-8.11276
-7.6996
-7.31282
-6.95014
-6.62024
-40.5957
-36.9537
-34.2326
-31.938
-29.7998
-27.8229
-25.999
-24.3099
-22.743
-21.2888
-19.9392
-18.687
-17.5255
-16.4484
-15.4498
-14.5239
-13.6655
-12.8694
-12.1309
-11.4454
-10.8088
-10.2171
-9.66677
-9.15437
-8.67688
-8.2316
-7.81597
-7.42672
-7.06157
-6.73041
-40.8955
-37.2478
-34.5179
-32.2124
-30.062
-28.0725
-26.236
-24.5347
-22.9562
-21.4912
-20.1317
-18.8704
-17.7006
-16.6161
-15.6107
-14.6788
-13.815
-13.014
-12.2711
-11.5816
-10.9413
-10.3463
-9.79287
-9.27761
-8.79745
-8.34965
-7.93161
-7.53993
-7.17237
-6.84005
-41.1937
-37.5404
-34.8015
-32.4849
-30.3223
-28.3201
-26.471
-24.7574
-23.1673
-21.6915
-20.3221
-19.0518
-17.8739
-16.7819
-15.7699
-14.8321
-13.9629
-13.1571
-12.4098
-11.7164
-11.0726
-10.4743
-9.91785
-9.39981
-8.91705
-8.4668
-8.04641
-7.65237
-7.28244
-6.94906
-41.4903
-37.8311
-35.0832
-32.7555
-30.5805
-28.5655
-26.7037
-24.9778
-23.3762
-21.8896
-20.5103
-19.2311
-18.045
-16.9458
-15.9273
-14.9835
-14.1091
-13.2985
-12.547
-11.8497
-11.2024
-10.601
-10.0416
-9.52083
-9.03554
-8.58292
-8.16026
-7.76392
-7.39169
-7.05735
-41.7849
-38.1199
-35.3628
-33.0238
-30.8364
-28.8085
-26.9339
-25.1958
-23.5826
-22.0853
-20.6962
-19.408
-18.214
-17.1075
-16.0825
-15.133
-14.2534
-13.4382
-12.6825
-11.9814
-11.3307
-10.7261
-10.1639
-9.64052
-9.15279
-8.69787
-8.27302
-7.87445
-7.49999
-7.1648
-42.0773
-38.4064
-35.6401
-33.2897
-31.0897
-29.0489
-27.1615
-25.4112
-23.7864
-22.2784
-20.8796
-19.5826
-18.3805
-17.267
-16.2356
-15.2804
-14.3956
-13.5759
-12.816
-12.1113
-11.4572
-10.8496
-10.2846
-9.75872
-9.26862
-8.81149
-8.38454
-7.98382
-7.60722
-7.2713
-42.3674
-38.6906
-35.9148
-33.553
-31.3404
-29.2866
-27.3863
-25.6237
-23.9874
-22.4688
-21.0603
-19.7545
-18.5446
-17.4239
-16.3863
-15.4254
-14.5356
-13.7114
-12.9475
-12.2392
-11.5819
-10.9713
-10.4036
-9.87524
-9.38286
-8.92361
-8.49466
-8.09188
-7.71321
-7.37669
-42.655
-38.9721
-36.187
-33.8135
-31.5881
-29.5213
-27.6082
-25.8332
-24.1854
-22.6563
-21.2381
-19.9236
-18.7059
-17.5783
-16.5344
-15.568
-14.6733
-13.8446
-13.0768
-12.3649
-11.7044
-11.091
-10.5207
-9.98988
-9.49531
-9.03404
-8.60316
-8.19843
-7.81779
-7.48079
-42.94
-39.251
-36.4562
-34.071
-31.8328
-29.7528
-27.8268
-26.0396
-24.3803
-22.8406
-21.4129
-20.0898
-18.8643
-17.7299
-16.6798
-15.708
-14.8084
-13.9754
-13.2037
-12.4883
-11.8246
-11.2084
-10.6355
-10.1024
-9.60574
-9.14252
-8.70983
-8.30323
-7.92072
-7.58339
-43.2222
-39.527
-36.7225
-34.3254
-32.0742
-29.981
-28.0421
-26.2426
-24.5719
-23.0217
-21.5845
-20.2528
-19.0198
-17.8785
-16.8224
-15.8451
-14.9407
-14.1034
-13.3279
-12.6091
-11.9423
-11.3233
-10.748
-10.2126
-9.71389
-9.24881
-8.8144
-8.40603
-8.02173
-7.6842
-43.5016
-39.8001
-36.9857
-34.5765
-32.3122
-30.2057
-28.2539
-26.4421
-24.76
-23.1994
-21.7527
-20.4126
-19.172
-18.024
-16.9619
-15.9793
-15.0702
-14.2286
-13.4493
-12.7271
-12.0573
-11.4355
-10.8578
-10.3202
-9.81947
-9.35261
-8.91654
-8.50651
-8.12051
-7.78291
-43.7782
-40.0701
-37.2455
-34.8241
-32.5466
-30.4268
-28.4619
-26.6379
-24.9444
-23.3735
-21.9175
-20.569
-19.3209
-18.1662
-17.0982
-16.1104
-15.1965
-14.3508
-13.5677
-12.8422
-12.1694
-11.5449
-10.9646
-10.4249
-9.92219
-9.45357
-9.01593
-8.6043
-8.21666
-7.87908
-44.0522
-40.337
-37.502
-35.068
-32.7772
-30.6439
-28.6661
-26.8298
-25.1251
-23.5439
-22.0786
-20.7219
-19.4664
-18.3051
-17.2313
-16.2382
-15.3197
-14.4698
-13.683
-12.9541
-12.2782
-11.651
-11.0683
-10.5264
-10.0217
-9.55134
-9.11215
-8.69897
-8.30973
-7.97222
-44.3236
-40.6007
-37.7548
-35.3081
-33.0038
-30.857
-28.8661
-27.0177
-25.3018
-23.7104
-22.236
-20.871
-19.6082
-18.4405
-17.3609
-16.3627
-15.4396
-14.5856
-13.795
-13.0627
-12.3838
-11.7538
-11.1686
-10.6244
-10.1177
-9.64553
-9.20477
-8.79006
-8.3992
-8.06191
-44.5928
-40.8612
-38.0039
-35.5442
-33.2261
-31.0657
-29.0619
-27.2014
-25.4743
-23.8729
-22.3894
-21.0164
-19.7464
-18.5723
-17.487
-16.4837
-15.556
-14.6979
-13.9036
-13.1679
-12.4858
-11.853
-11.2651
-10.7186
-10.2097
-9.73568
-9.29326
-8.87693
-8.48443
-8.14745
-44.86
-41.1181
-38.2489
-35.7759
-33.4439
-31.27
-29.2532
-27.3807
-25.6426
-24.0312
-22.5388
-21.1579
-19.8809
-18.7005
-17.6096
-16.6012
-15.669
-14.8068
-14.0087
-13.2695
-12.5843
-11.9484
-11.3579
-10.8088
-10.2976
-9.82142
-9.37709
-8.95897
-8.56463
-8.22732
-45.1263
-41.3715
-38.4896
-36.0029
-33.657
-31.4694
-29.4398
-27.5553
-25.8064
-24.1853
-22.6842
-21.2954
-20.0115
-18.825
-17.7285
-16.7152
-15.7785
-14.9122
-14.1103
-13.3676
-12.6791
-12.0402
-11.4467
-10.8948
-10.3811
-9.90254
-9.45611
-9.03598
-8.63918
-8.30011
-45.3962
-41.6228
-38.7255
-36.2246
-33.8645
-31.6633
-29.6211
-27.725
-25.9655
-24.3348
-22.8252
-21.4289
-20.1382
-18.9456
-17.8438
-16.8257
-15.8846
-15.0142
-14.2086
-13.4623
-12.7704
-12.1283
-11.5317
-10.9768
-10.4601
-9.97886
-9.53002
-9.10739
-8.7074
-8.36802
-45.673
-41.8716
-38.955
-36.4396
-34.0659
-31.8516
-29.7971
-27.8896
-26.1197
-24.4797
-22.9618
-21.5582
-20.261
-19.0626
-17.9555
-16.9327
-15.9873
-15.1129
-14.3035
-13.5537
-12.8584
-12.2129
-11.6129
-11.0545
-10.5344
-10.0497
-9.597
-9.16981
-8.76668
-8.43412
-45.9332
-42.1085
-39.1758
-36.6477
-34.2616
-32.035
-29.9686
-28.05
-26.27
-24.621
-23.0949
-21.684
-20.3804
-19.1763
-18.0642
-17.0367
-16.0871
-15.2087
-14.3957
-13.6424
-12.9436
-12.2947
-11.6912
-11.1291
-10.605
-10.1156
-9.65653
-9.22209
-8.81723
-8.48542
-49.6927
-49.6772
-49.6442
-49.6083
-49.5676
-49.5195
-49.4633
-49.3989
-49.3262
-49.2452
-49.1558
-49.058
-48.9521
-48.838
-48.716
-48.5863
-48.4489
-48.3041
-48.1522
-47.9932
-47.8276
-47.6554
-47.4771
-47.293
-47.1034
-46.9091
-46.7107
-46.5099
-46.3097
-46.1148
-45.7304
-45.7291
-45.7133
-45.6892
-45.657
-45.6159
-45.566
-45.5073
-45.4401
-45.3644
-45.2803
-45.1879
-45.0873
-44.9787
-44.8622
-44.738
-44.6063
-44.4672
-44.321
-44.1678
-44.008
-43.8417
-43.6692
-43.4908
-43.3069
-43.1179
-42.9244
-42.7268
-42.5259
-42.3202
-42.5627
-42.5709
-42.5671
-42.5529
-42.5291
-42.4962
-42.4542
-42.4035
-42.3441
-42.2763
-42.2002
-42.1158
-42.0233
-41.9229
-41.8147
-41.699
-41.5757
-41.4453
-41.3077
-41.1633
-41.0123
-40.8548
-40.6911
-40.5214
-40.3461
-40.1652
-39.979
-39.7877
-39.5908
-39.3873
-39.7599
-39.7747
-39.779
-39.7729
-39.7573
-39.7325
-39.6989
-39.6566
-39.6058
-39.5466
-39.4793
-39.4039
-39.3205
-39.2294
-39.1307
-39.0245
-38.911
-38.7904
-38.6629
-38.5286
-38.3877
-38.2405
-38.087
-37.9276
-37.7623
-37.5912
-37.4146
-37.2323
-37.0441
-36.8495
-37.0964
-37.1163
-37.1268
-37.1277
-37.1193
-37.1019
-37.076
-37.0416
-36.9989
-36.948
-36.8892
-36.8226
-36.7482
-36.6663
-36.5769
-36.4804
-36.3767
-36.2661
-36.1488
-36.0248
-35.8945
-35.7578
-35.615
-35.4663
-35.3117
-35.1514
-34.9854
-34.8136
-34.636
-34.4522
-34.6097
-34.6335
-34.6489
-34.6552
-34.6526
-34.6414
-34.6219
-34.5943
-34.5587
-34.5152
-34.464
-34.4053
-34.3391
-34.2656
-34.185
-34.0974
-34.003
-33.9018
-33.7942
-33.6801
-33.5598
-33.4334
-33.301
-33.1628
-33.0188
-32.8692
-32.7139
-32.553
-32.3864
-32.214
-32.3111
-32.3377
-32.3564
-32.3666
-32.3684
-32.362
-32.3476
-32.3255
-32.2957
-32.2584
-32.2136
-32.1617
-32.1026
-32.0365
-31.9635
-31.8839
-31.7977
-31.705
-31.6061
-31.5011
-31.39
-31.273
-31.1503
-31.0219
-30.888
-30.7485
-30.6036
-30.4533
-30.2974
-30.136
-30.1924
-30.2206
-30.2414
-30.2542
-30.259
-30.2561
-30.2456
-30.2277
-30.2024
-30.17
-30.1305
-30.0841
-30.0309
-29.971
-29.9046
-29.8317
-29.7526
-29.6673
-29.5761
-29.4789
-29.3761
-29.2675
-29.1535
-29.0341
-28.9093
-28.7792
-28.6439
-28.5034
-28.3576
-28.2067
-28.2445
-28.2733
-28.2952
-28.3095
-28.3162
-28.3156
-28.3078
-28.293
-28.2711
-28.2424
-28.207
-28.165
-28.1165
-28.0617
-28.0006
-27.9334
-27.8602
-27.7812
-27.6965
-27.6061
-27.5104
-27.4092
-27.3028
-27.1912
-27.0746
-26.9529
-26.8263
-26.6947
-26.5582
-26.4168
-26.4573
-26.4859
-26.508
-26.5229
-26.5306
-26.5314
-26.5254
-26.5126
-26.4931
-26.4672
-26.4348
-26.3962
-26.3514
-26.3005
-26.2437
-26.1811
-26.1128
-26.039
-25.9597
-25.8752
-25.7854
-25.6906
-25.5908
-25.4861
-25.3766
-25.2624
-25.1435
-25.0199
-24.8917
-24.7588
-24.8193
-24.8472
-24.8688
-24.8836
-24.8916
-24.893
-24.888
-24.8764
-24.8586
-24.8346
-24.8044
-24.7683
-24.7263
-24.6785
-24.6251
-24.5662
-24.5018
-24.4322
-24.3575
-24.2777
-24.193
-24.1035
-24.0094
-23.9106
-23.8073
-23.6996
-23.5874
-23.4709
-23.35
-23.2249
-23.3186
-23.3453
-23.366
-23.3803
-23.388
-23.3895
-23.3848
-23.3739
-23.3571
-23.3343
-23.3056
-23.2713
-23.2314
-23.1859
-23.1351
-23.0791
-23.0179
-22.9517
-22.8807
-22.8049
-22.7244
-22.6394
-22.55
-22.4563
-22.3584
-22.2562
-22.15
-22.0397
-21.9253
-21.8069
-21.9434
-21.9686
-21.9881
-22.0015
-22.0086
-22.0097
-22.0049
-21.9943
-21.9779
-21.9558
-21.9282
-21.8951
-21.8566
-21.813
-21.7642
-21.7104
-21.6517
-21.5883
-21.5202
-21.4476
-21.3707
-21.2895
-21.2041
-21.1147
-21.0214
-20.9241
-20.823
-20.7181
-20.6094
-20.497
-20.6823
-20.7059
-20.724
-20.7362
-20.7425
-20.743
-20.7378
-20.727
-20.7107
-20.689
-20.662
-20.6297
-20.5923
-20.5499
-20.5026
-20.4505
-20.3938
-20.3326
-20.267
-20.1971
-20.1231
-20.045
-19.9631
-19.8773
-19.7879
-19.6948
-19.5982
-19.4981
-19.3945
-19.2874
-19.5246
-19.5466
-19.5632
-19.5741
-19.5793
-19.579
-19.5733
-19.5621
-19.5457
-19.524
-19.4973
-19.4655
-19.4288
-19.3874
-19.3412
-19.2905
-19.2353
-19.1759
-19.1122
-19.0445
-18.9729
-18.8975
-18.8184
-18.7358
-18.6498
-18.5604
-18.4677
-18.3718
-18.2726
-18.1702
-18.4605
-18.4808
-18.4959
-18.5054
-18.5095
-18.5083
-18.5019
-18.4902
-18.4735
-18.4517
-18.4251
-18.3936
-18.3574
-18.3165
-18.2712
-18.2215
-18.1676
-18.1096
-18.0475
-17.9816
-17.912
-17.8389
-17.7623
-17.6823
-17.5992
-17.513
-17.4238
-17.3316
-17.2364
-17.1383
-17.481
-17.4996
-17.5132
-17.5214
-17.5244
-17.5222
-17.515
-17.5027
-17.4856
-17.4636
-17.4369
-17.4055
-17.3696
-17.3292
-17.2845
-17.2357
-17.1827
-17.1258
-17.0651
-17.0007
-16.9328
-16.8615
-16.787
-16.7094
-16.6288
-16.5454
-16.4593
-16.3704
-16.2788
-16.1845
-16.578
-16.5949
-16.607
-16.6139
-16.6158
-16.6126
-16.6046
-16.5917
-16.5741
-16.5518
-16.5249
-16.4936
-16.4578
-16.4178
-16.3736
-16.3253
-16.2732
-16.2172
-16.1576
-16.0945
-16.028
-15.9583
-15.8856
-15.81
-15.7317
-15.6508
-15.5673
-15.4815
-15.3932
-15.3024
-15.744
-15.7594
-15.77
-15.7757
-15.7764
-15.7724
-15.7636
-15.7501
-15.7319
-15.7093
-15.6822
-15.6508
-15.6151
-15.5753
-15.5315
-15.4838
-15.4322
-15.3771
-15.3184
-15.2563
-15.1911
-15.1228
-15.0516
-14.9778
-14.9014
-14.8227
-14.7417
-14.6586
-14.5733
-14.4858
-14.9725
-14.9864
-14.9957
-15.0002
-14.9999
-14.995
-14.9854
-14.9712
-14.9526
-14.9297
-14.9024
-14.8708
-14.8352
-14.7956
-14.752
-14.7047
-14.6537
-14.5992
-14.5413
-14.4802
-14.416
-14.3489
-14.2791
-14.2067
-14.1321
-14.0553
-13.9765
-13.8959
-13.8134
-13.7291
-14.2576
-14.2702
-14.2782
-14.2816
-14.2803
-14.2745
-14.2642
-14.2495
-14.2304
-14.2071
-14.1796
-14.1479
-14.1123
-14.0728
-14.0295
-13.9825
-13.932
-13.8781
-13.8208
-13.7605
-13.6972
-13.6311
-13.5625
-13.4915
-13.4183
-13.3433
-13.2665
-13.1882
-13.1084
-13.027
-13.5941
-13.6054
-13.6123
-13.6146
-13.6124
-13.6058
-13.5948
-13.5796
-13.5601
-13.5364
-13.5087
-13.4769
-13.4413
-13.4019
-13.3588
-13.3121
-13.262
-13.2086
-13.1519
-13.0923
-13.0298
-12.9646
-12.8969
-12.8271
-12.7552
-12.6817
-12.6067
-12.5305
-12.4532
-12.3748
-12.9772
-12.9874
-12.9932
-12.9946
-12.9915
-12.9842
-12.9726
-12.9568
-12.9369
-12.9129
-12.885
-12.8532
-12.8175
-12.7782
-12.7353
-12.6889
-12.6392
-12.5861
-12.53
-12.471
-12.4092
-12.3447
-12.278
-12.2091
-12.1383
-12.0661
-11.9927
-11.9184
-11.8435
-11.7679
-12.4029
-12.412
-12.4168
-12.4173
-12.4135
-12.4055
-12.3933
-12.377
-12.3567
-12.3325
-12.3044
-12.2725
-12.2369
-12.1976
-12.1549
-12.1088
-12.0593
-12.0067
-11.9511
-11.8926
-11.8313
-11.7676
-11.7015
-11.6334
-11.5636
-11.4925
-11.4204
-11.3479
-11.2751
-11.2024
-11.8673
-11.8754
-11.8793
-11.879
-11.8745
-11.8658
-11.8532
-11.8365
-11.8159
-11.7914
-11.7631
-11.7311
-11.6955
-11.6564
-11.6138
-11.5679
-11.5188
-11.4665
-11.4113
-11.3533
-11.2926
-11.2294
-11.1639
-11.0965
-11.0274
-10.9571
-10.8861
-10.8151
-10.7444
-10.6746
-11.3672
-11.3744
-11.3774
-11.3763
-11.3711
-11.3619
-11.3488
-11.3317
-11.3108
-11.2861
-11.2577
-11.2256
-11.19
-11.151
-11.1086
-11.0629
-11.014
-10.9621
-10.9073
-10.8496
-10.7894
-10.7266
-10.6616
-10.5947
-10.5261
-10.4565
-10.3862
-10.3163
-10.2473
-10.1806
-10.8996
-10.9058
-10.9081
-10.9063
-10.9005
-10.8907
-10.8771
-10.8597
-10.8384
-10.8135
-10.7849
-10.7528
-10.7172
-10.6782
-10.6359
-10.5904
-10.5417
-10.4901
-10.4355
-10.3782
-10.3182
-10.2558
-10.1911
-10.1245
-10.0562
-9.98672
-9.91679
-9.84752
-9.77964
-9.71583
-10.4617
-10.4672
-10.4688
-10.4665
-10.4602
-10.4501
-10.4361
-10.4184
-10.397
-10.3719
-10.3433
-10.3111
-10.2756
-10.2367
-10.1945
-10.1492
-10.1007
-10.0493
-9.99505
-9.938
-9.87832
-9.81615
-9.75168
-9.68515
-9.61688
-9.54738
-9.47733
-9.40824
-9.34073
-9.27899
-10.0509
-10.0561
-10.0574
-10.0549
-10.0485
-10.0383
-10.0244
-10.0068
-9.98552
-9.96071
-9.93239
-9.90064
-9.86553
-9.82714
-9.78555
-9.74083
-9.6931
-9.64242
-9.5889
-9.53265
-9.47378
-9.4124
-9.34869
-9.28283
-9.21511
-9.14599
-9.0761
-9.00741
-8.94053
-8.8831
-9.66537
-9.66916
-9.66925
-9.6656
-9.65827
-9.64729
-9.63273
-9.61462
-9.59303
-9.56801
-9.53962
-9.50795
-9.47305
-9.43499
-9.39386
-9.34974
-9.3027
-9.25284
-9.20023
-9.14496
-9.08714
-9.02686
-8.96423
-8.89941
-8.83257
-8.76405
-8.69429
-8.62507
-8.55641
-8.51047
-45.0759
-45.3391
-45.5824
-45.83
-46.0787
-46.3233
-46.5622
-46.7946
-47.0201
-47.2381
-47.4479
-47.6492
-47.8416
-48.025
-48.1991
-48.3636
-48.5184
-48.6635
-48.7987
-48.9239
-49.0391
-49.1442
-49.2394
-49.3247
-49.4001
-49.4661
-49.523
-49.5717
-49.6141
-49.6528
-41.0668
-41.3446
-41.6079
-41.8663
-42.1199
-42.3671
-42.6072
-42.84
-43.0655
-43.2831
-43.4926
-43.6937
-43.886
-44.0695
-44.2438
-44.4088
-44.5644
-44.7104
-44.8467
-44.9732
-45.0899
-45.1969
-45.294
-45.3813
-45.459
-45.5272
-45.5862
-45.6361
-45.6774
-45.7091
-37.8631
-38.1433
-38.4129
-38.674
-38.9278
-39.1746
-39.414
-39.6461
-39.8706
-40.0874
-40.2963
-40.4968
-40.689
-40.8725
-41.0471
-41.2127
-41.3692
-41.5165
-41.6543
-41.7827
-41.9016
-42.011
-42.1108
-42.2011
-42.2818
-42.3531
-42.4149
-42.4673
-42.5099
-42.5419
-35.0605
-35.3357
-35.6027
-35.8614
-36.1124
-36.3564
-36.5933
-36.8229
-37.045
-37.2597
-37.4665
-37.6655
-37.8562
-38.0386
-38.2126
-38.3779
-38.5344
-38.682
-38.8206
-38.9501
-39.0705
-39.1817
-39.2837
-39.3763
-39.4597
-39.5338
-39.5986
-39.6538
-39.6994
-39.7349
-32.4392
-32.7065
-32.9674
-33.2209
-33.467
-33.7062
-33.9386
-34.1639
-34.382
-34.5929
-34.7962
-34.992
-35.1799
-35.3599
-35.5317
-35.6953
-35.8505
-35.9972
-36.1353
-36.2647
-36.3853
-36.4971
-36.6001
-36.6942
-36.7792
-36.8553
-36.9223
-36.9801
-37.0286
-37.0676
-30.0336
-30.2919
-30.5449
-30.7912
-31.0306
-31.2635
-31.4897
-31.7092
-31.9219
-32.1275
-32.326
-32.5172
-32.701
-32.8772
-33.0456
-33.2062
-33.3587
-33.5032
-33.6395
-33.7675
-33.8872
-33.9984
-34.1012
-34.1954
-34.281
-34.358
-34.4263
-34.4857
-34.5363
-34.5778
-27.8477
-28.0965
-28.3406
-28.5785
-28.81
-29.0353
-29.2544
-29.467
-29.6731
-29.8726
-30.0652
-30.2509
-30.4294
-30.6008
-30.7647
-30.9212
-31.0701
-31.2112
-31.3446
-31.4701
-31.5876
-31.6971
-31.7985
-31.8918
-31.9768
-32.0537
-32.1222
-32.1823
-32.2339
-32.277
-25.8652
-26.1041
-26.3387
-26.5677
-26.7908
-27.0079
-27.2191
-27.4243
-27.6232
-27.8158
-28.0018
-28.1812
-28.3539
-28.5196
-28.6784
-28.83
-28.9743
-29.1113
-29.2409
-29.363
-29.4775
-29.5843
-29.6835
-29.7748
-29.8584
-29.9341
-30.0019
-30.0617
-30.1135
-30.1572
-24.0686
-24.2978
-24.5229
-24.7427
-24.9571
-25.1658
-25.369
-25.5663
-25.7577
-25.9431
-26.1222
-26.295
-26.4613
-26.621
-26.774
-26.9203
-27.0596
-27.1918
-27.317
-27.4351
-27.5459
-27.6494
-27.7456
-27.8343
-27.9157
-27.9895
-28.0558
-28.1145
-28.1656
-28.2091
-22.4408
-22.6604
-22.8762
-23.0871
-23.2928
-23.4932
-23.6882
-23.8778
-24.0616
-24.2397
-24.4117
-24.5778
-24.7376
-24.8911
-25.0382
-25.1787
-25.3127
-25.4399
-25.5604
-25.674
-25.7807
-25.8804
-25.9732
-26.0588
-26.1374
-26.2088
-26.273
-26.33
-26.3798
-26.4224
-20.9646
-21.1752
-21.3821
-21.5843
-21.7816
-21.9738
-22.161
-22.3429
-22.5193
-22.6901
-22.8553
-23.0146
-23.1679
-23.3152
-23.4563
-23.5911
-23.7196
-23.8417
-23.9572
-24.0662
-24.1686
-24.2643
-24.3533
-24.4356
-24.511
-24.5796
-24.6414
-24.6963
-24.7443
-24.7854
-19.624
-19.826
-20.0244
-20.2184
-20.4077
-20.5922
-20.7718
-20.9463
-21.1156
-21.2794
-21.4378
-21.5906
-21.7376
-21.8787
-22.014
-22.1432
-22.2662
-22.3831
-22.4938
-22.5981
-22.6961
-22.7877
-22.8729
-22.9515
-23.0237
-23.0893
-23.1484
-23.2008
-23.2467
-23.2861
-18.4043
-18.5982
-18.7887
-18.9749
-19.1566
-19.3338
-19.5062
-19.6737
-19.8362
-19.9934
-20.1453
-20.2918
-20.4327
-20.568
-20.6976
-20.8213
-20.9391
-21.051
-21.1568
-21.2566
-21.3502
-21.4377
-21.519
-21.594
-21.6628
-21.7254
-21.7816
-21.8315
-21.8752
-21.9126
-17.2921
-17.4785
-17.6615
-17.8405
-18.0152
-18.1854
-18.3511
-18.5121
-18.6681
-18.8191
-18.9649
-19.1054
-19.2406
-19.3702
-19.4943
-19.6128
-19.7256
-19.8326
-19.9338
-20.0291
-20.1186
-20.202
-20.2795
-20.351
-20.4165
-20.476
-20.5293
-20.5767
-20.618
-20.6533
-16.2756
-16.4551
-16.6312
-16.8034
-16.9715
-17.1354
-17.2948
-17.4496
-17.5996
-17.7447
-17.8847
-18.0197
-18.1494
-18.2737
-18.3927
-18.5062
-18.6142
-18.7166
-18.8134
-18.9044
-18.9898
-19.0694
-19.1433
-19.2113
-19.2736
-19.33
-19.3806
-19.4254
-19.4643
-19.4975
-15.3446
-15.5175
-15.6873
-15.8533
-16.0153
-16.1732
-16.3267
-16.4758
-16.6202
-16.7598
-16.8945
-17.0241
-17.1487
-17.2681
-17.3822
-17.491
-17.5945
-17.6925
-17.7851
-17.8721
-17.9537
-18.0296
-18.1
-18.1648
-18.2239
-18.2774
-18.3253
-18.3676
-18.4042
-18.4353
-14.4898
-14.6567
-14.8206
-14.9808
-15.1372
-15.2896
-15.4377
-15.5815
-15.7206
-15.8551
-15.9847
-16.1095
-16.2292
-16.3439
-16.4535
-16.5579
-16.6571
-16.7511
-16.8397
-16.9229
-17.0008
-17.0733
-17.1404
-17.202
-17.2582
-17.309
-17.3543
-17.3941
-17.4286
-17.4576
-13.7034
-13.8647
-14.0231
-14.178
-14.3293
-14.4765
-14.6196
-14.7584
-14.8927
-15.0223
-15.1473
-15.2674
-15.3827
-15.493
-15.5984
-15.6986
-15.7938
-15.8839
-15.9688
-16.0485
-16.123
-16.1922
-16.2562
-16.3149
-16.3683
-16.4164
-16.4593
-16.4969
-16.5292
-16.5563
-12.9782
-13.1343
-13.2877
-13.4378
-13.5842
-13.7268
-13.8653
-13.9994
-14.1292
-14.2543
-14.3749
-14.4907
-14.6018
-14.708
-14.8093
-14.9058
-14.9972
-15.0837
-15.1651
-15.2414
-15.3127
-15.3789
-15.44
-15.4959
-15.5467
-15.5924
-15.6329
-15.6684
-15.6987
-15.724
-12.3082
-12.4595
-12.6082
-12.7539
-12.8959
-13.0342
-13.1683
-13.2982
-13.4237
-13.5447
-13.6611
-13.7729
-13.88
-13.9824
-14.08
-14.1728
-14.2607
-14.3438
-14.4219
-14.4952
-14.5635
-14.6268
-14.6851
-14.7385
-14.7868
-14.8302
-14.8686
-14.902
-14.9305
-14.954
-11.6879
-11.8346
-11.9792
-12.1208
-12.2589
-12.3931
-12.5232
-12.6491
-12.7706
-12.8877
-13.0003
-13.1083
-13.2117
-13.3104
-13.4045
-13.4939
-13.5786
-13.6585
-13.7336
-13.8039
-13.8694
-13.93
-13.9858
-14.0368
-14.0828
-14.1241
-14.1604
-14.192
-14.2187
-14.2406
-11.1124
-11.2549
-11.3958
-11.5338
-11.6682
-11.7987
-11.9251
-12.0473
-12.165
-12.2784
-12.3873
-12.4918
-12.5917
-12.687
-12.7778
-12.864
-12.9456
-13.0225
-13.0948
-13.1624
-13.2252
-13.2834
-13.3368
-13.3855
-13.4295
-13.4687
-13.5032
-13.533
-13.558
-13.5785
-10.5773
-10.716
-10.8538
-10.9886
-11.1197
-11.2467
-11.3696
-11.4883
-11.6025
-11.7124
-11.8178
-11.9189
-12.0155
-12.1077
-12.1954
-12.2786
-12.3573
-12.4314
-12.501
-12.566
-12.6265
-12.6823
-12.7335
-12.7801
-12.822
-12.8594
-12.8921
-12.9203
-12.9439
-12.9629
-10.0786
-10.214
-10.3493
-10.4814
-10.6094
-10.7333
-10.8529
-10.9682
-11.0791
-11.1856
-11.2878
-11.3857
-11.4793
-11.5684
-11.6532
-11.7336
-11.8096
-11.8811
-11.9482
-12.0108
-12.0689
-12.1226
-12.1717
-12.2163
-12.2565
-12.2921
-12.3232
-12.3498
-12.372
-12.3897
-9.61271
-9.74528
-9.87903
-10.0088
-10.1341
-10.255
-10.3715
-10.4836
-10.5913
-10.6947
-10.7939
-10.8887
-10.9793
-11.0656
-11.1477
-11.2254
-11.2988
-11.3679
-11.4326
-11.493
-11.549
-11.6006
-11.6478
-11.6906
-11.729
-11.763
-11.7926
-11.8178
-11.8387
-11.8552
-9.17606
-9.30742
-9.44075
-9.56862
-9.69128
-9.80938
-9.92289
-10.0319
-10.1365
-10.2369
-10.3331
-10.4251
-10.5129
-10.5965
-10.6759
-10.7511
-10.8221
-10.8889
-10.9514
-11.0096
-11.0636
-11.1133
-11.1586
-11.1997
-11.2365
-11.269
-11.2972
-11.3211
-11.3407
-11.3561
-8.76303
-8.89699
-9.03189
-9.15801
-9.27813
-9.39351
-9.50409
-9.61009
-9.71175
-9.80922
-9.90256
-9.99179
-10.0769
-10.158
-10.2349
-10.3078
-10.3765
-10.441
-10.5014
-10.5577
-10.6097
-10.6576
-10.7012
-10.7407
-10.776
-10.807
-10.8339
-10.8566
-10.8751
-10.8894
-8.3616
-8.50373
-8.64407
-8.76918
-8.887
-8.99989
-9.10782
-9.21111
-9.31011
-9.40501
-9.49586
-9.58269
-9.66552
-9.74435
-9.81916
-9.88995
-9.9567
-10.0194
-10.078
-10.1326
-10.183
-10.2294
-10.2717
-10.3098
-10.3438
-10.3737
-10.3995
-10.4212
-10.4387
-10.4523
-7.96731
-8.12112
-8.27112
-8.39727
-8.51346
-8.62419
-8.72985
-8.83085
-8.92763
-9.02038
-9.10917
-9.19402
-9.27495
-9.35196
-9.42503
-9.49415
-9.55931
-9.62051
-9.67772
-9.73094
-9.78015
-9.82534
-9.86651
-9.90365
-9.93675
-9.96581
-9.99085
-10.0119
-10.0289
-10.0419
-7.65825
-7.82488
-7.97352
-8.09846
-8.21109
-8.31699
-8.41809
-8.51478
-8.60733
-8.69596
-8.78074
-8.86166
-8.93875
-9.01199
-9.08139
-9.14694
-9.20864
-9.26649
-9.32046
-9.37057
-9.41679
-9.45913
-9.49757
-9.53213
-9.56279
-9.58956
-9.61245
-9.63146
-9.64661
-9.65794
-3.62125
-3.86742
-4.13218
-4.41601
-4.72067
-5.04808
-5.40016
-5.77908
-6.18727
-6.62749
-7.10284
-7.61691
-8.17379
-8.77823
-9.43575
-10.1528
-10.937
-11.7971
-12.7436
-13.7887
-14.9469
-16.2347
-17.6715
-19.2786
-21.081
-23.1063
-25.3672
-27.8506
-30.7954
-34.6195
-3.75807
-4.00785
-4.27477
-4.56117
-4.86877
-5.19929
-5.5547
-5.93719
-6.34924
-6.79361
-7.27347
-7.79242
-8.35461
-8.96483
-9.62865
-10.3526
-11.1442
-12.0125
-12.968
-14.0229
-15.1917
-16.491
-17.9402
-19.5605
-21.3767
-23.4162
-25.6909
-28.1864
-31.1378
-34.9585
-3.8959
-4.14931
-4.41844
-4.70749
-5.01808
-5.35179
-5.71059
-6.09672
-6.51269
-6.96129
-7.44573
-7.96965
-8.53723
-9.15332
-9.82353
-10.5544
-11.3537
-12.2303
-13.1948
-14.2595
-15.4391
-16.7501
-18.2117
-19.8453
-21.6751
-23.7284
-26.0163
-28.5227
-31.4786
-35.2928
-4.03458
-4.29164
-4.56302
-4.85476
-5.16841
-5.50537
-5.86762
-6.25744
-6.67739
-7.13028
-7.61936
-8.1483
-8.72134
-9.34335
-10.02
-10.7579
-11.5648
-12.4498
-13.4234
-14.4981
-15.6884
-17.011
-18.4851
-20.1319
-21.9754
-24.0423
-26.343
-28.8604
-31.823
-35.6363
-4.17401
-4.43471
-4.70838
-5.00289
-5.31965
-5.65991
-6.02566
-6.41924
-6.84322
-7.30046
-7.79423
-8.32826
-8.9068
-9.53479
-10.218
-10.963
-11.7776
-12.6709
-13.6537
-14.7384
-15.9395
-17.2738
-18.7603
-20.4203
-22.2773
-24.3578
-26.6714
-29.2
-32.1709
-35.9867
-4.31406
-4.57842
-4.85442
-5.15174
-5.47168
-5.81529
-6.18461
-6.582
-7.01006
-7.47171
-7.97023
-8.50938
-9.09349
-9.72751
-10.4172
-11.1694
-11.9918
-12.8936
-13.8856
-14.9803
-16.1922
-17.5382
-19.0372
-20.7103
-22.5809
-24.6749
-27.0014
-29.5415
-32.5211
-36.3409
-4.45464
-4.72264
-5.001
-5.30121
-5.62438
-5.9714
-6.34433
-6.74558
-7.17778
-7.64388
-8.1472
-8.69154
-9.28126
-9.92137
-10.6177
-11.377
-12.2073
-13.1176
-14.1189
-15.2236
-16.4464
-17.8041
-19.3156
-21.0019
-22.8861
-24.9937
-27.3331
-29.8846
-32.8731
-36.6978
-4.59563
-4.86727
-5.14802
-5.45116
-5.77762
-6.1281
-6.50469
-6.90986
-7.34625
-7.81685
-8.32502
-8.87459
-9.46996
-10.1162
-10.8192
-11.5858
-12.4239
-13.3428
-14.3533
-15.4682
-16.7019
-18.0714
-19.5954
-21.2948
-23.1926
-25.3138
-27.6662
-30.2292
-33.2267
-37.0568
-4.73693
-5.01218
-5.29535
-5.60149
-5.93129
-6.28529
-6.66559
-7.07471
-7.51534
-7.99048
-8.50354
-9.05838
-9.65946
-10.3119
-11.0216
-11.7954
-12.6414
-13.5689
-14.5888
-15.7138
-16.9585
-18.3397
-19.8763
-21.5889
-23.5003
-25.6351
-28.0004
-30.575
-33.5817
-37.4175
-4.87845
-5.15728
-5.4429
-5.75209
-6.08528
-6.44284
-6.8269
-7.24002
-7.68493
-8.16466
-8.68264
-9.2428
-9.84961
-10.5083
-11.2247
-12.0058
-12.8598
-13.7959
-14.8252
-15.9604
-17.216
-18.6091
-20.1582
-21.884
-23.8089
-25.9572
-28.3355
-30.9217
-33.9376
-37.7792
-5.02011
-5.30248
-5.59056
-5.90286
-6.23949
-6.60066
-6.98851
-7.40567
-7.85489
-8.33924
-8.86218
-9.42768
-10.0403
-10.7051
-11.4283
-12.2168
-13.0788
-14.0236
-15.0623
-16.2076
-17.4743
-18.8791
-20.4408
-22.1797
-24.1182
-26.2801
-28.6713
-31.269
-34.2941
-38.1416
-5.16181
-5.44768
-5.73825
-6.05371
-6.39383
-6.75863
-7.15032
-7.57155
-8.02512
-8.51411
-9.04204
-9.61291
-10.2313
-10.9024
-11.6324
-12.4283
-13.2982
-14.2517
-15.2998
-16.4553
-17.733
-19.1496
-20.7239
-22.476
-24.428
-26.6033
-29.0074
-31.6165
-34.6508
-38.5041
-5.30349
-5.59281
-5.88588
-6.20454
-6.54819
-6.91667
-7.31222
-7.73755
-8.19549
-8.68915
-9.22209
-9.79835
-10.4225
-11.1
-11.8367
-12.64
-13.5179
-14.4801
-15.5376
-16.7034
-17.9921
-19.4205
-21.0073
-22.7725
-24.738
-26.9267
-29.3435
-31.964
-35.0073
-38.8665
-5.4451
-5.73781
-6.03338
-6.35529
-6.7025
-7.07469
-7.47412
-7.90357
-8.36589
-8.86424
-9.4022
-9.98385
-10.6139
-11.2976
-12.0412
-12.8518
-13.7377
-14.7086
-15.7756
-16.9515
-18.2512
-19.6914
-21.2907
-23.069
-25.0479
-27.2499
-29.6794
-32.3111
-35.3633
-39.2282
-5.5866
-5.88263
-6.1807
-6.50589
-6.8567
-7.2326
-7.63593
-8.06951
-8.53622
-9.03926
-9.58224
-10.1693
-10.8051
-11.4951
-12.2455
-13.0635
-13.9575
-14.937
-16.0134
-17.1996
-18.5103
-19.9622
-21.574
-23.3653
-25.3575
-27.5727
-30.0148
-32.6576
-35.7185
-39.5891
-5.72798
-6.02723
-6.32779
-6.65629
-7.01071
-7.39033
-7.79757
-8.23527
-8.70637
-9.21408
-9.76208
-10.3545
-10.9961
-11.6924
-12.4496
-13.275
-14.177
-15.1652
-16.251
-17.4473
-18.769
-20.2327
-21.8568
-23.661
-25.6665
-27.8948
-30.3493
-33.003
-36.0726
-39.9486
-5.86924
-6.17162
-6.47464
-6.80646
-7.16448
-7.54782
-7.95894
-8.40076
-8.87622
-9.38859
-9.94158
-10.5394
-11.1868
-11.8893
-12.6533
-13.4861
-14.396
-15.3929
-16.4881
-17.6946
-19.0271
-20.5025
-22.1389
-23.9561
-25.9746
-28.216
-30.6827
-33.3471
-36.4251
-40.3066
-6.01042
-6.3158
-6.62123
-6.95636
-7.31797
-7.705
-8.11997
-8.56586
-9.04566
-9.56266
-10.1206
-10.7237
-11.3769
-12.0857
-12.8564
-13.6965
-14.6144
-15.6199
-16.7245
-17.941
-19.2845
-20.7714
-22.4202
-24.2501
-26.2816
-28.5358
-31.0146
-33.6896
-36.7759
-40.6626
-6.1516
-6.45981
-6.76757
-7.10597
-7.47113
-7.86179
-8.28056
-8.73047
-9.21455
-9.73613
-10.299
-10.9074
-11.5663
-12.2813
-13.0587
-13.9061
-14.8319
-15.846
-16.9599
-18.1865
-19.5408
-21.0393
-22.7002
-24.5428
-26.5872
-28.8541
-31.3448
-34.0302
-37.1246
-41.0165
-6.29289
-6.60373
-6.91368
-7.25528
-7.62391
-8.01811
-8.44059
-8.89446
-9.38275
-9.90885
-10.4766
-11.0903
-11.7548
-12.4759
-13.2601
-14.1147
-15.0483
-16.071
-17.1941
-18.4308
-19.7958
-21.3058
-22.9788
-24.834
-26.8912
-29.1706
-31.673
-34.3686
-37.4709
-41.3678