/*--------------------------------*- C++ -*----------------------------------*\
| =========                 |                                                 |
| \\      /  F ield         | OpenFOAM: The Open Source CFD Toolbox           |
|  \\    /   O peration     | Version:  v1912                                 |
|   \\  /    A nd           | Website:  www.openfoam.com                      |
|    \\/     M anipulation  |                                                 |
\*---------------------------------------------------------------------------*/
FoamFile
{
    version     2.0;
    format      ascii;
    class       surfaceScalarField;
    location    "51.5";
    object      phi;
}
// * * * * * * * * * * * * * * * * * * * * * * * * * * * * * * * * * * * * * //

dimensions      [0 3 -1 0 0 0 0];
oriented        oriented;


internalField   nonuniform List<scalar> 
18940
(
0.000358293
-0.234362
0.234004
0.00137911
-0.216321
0.215301
0.00288306
-0.204786
0.203282
0.00469967
-0.197005
0.195188
0.0066981
-0.191252
0.189253
0.00877663
-0.186459
0.184381
0.0108615
-0.18204
0.179955
0.0129031
-0.177697
0.175655
0.0148715
-0.173308
0.171339
0.0167512
-0.168842
0.166963
0.0185374
-0.164323
0.162537
0.0202326
-0.159791
0.158096
0.0218439
-0.155295
0.153684
0.0233811
-0.150878
0.149341
0.0248554
-0.146577
0.145103
0.0262784
-0.142416
0.140993
0.0276617
-0.138408
0.137024
0.0290158
-0.134549
0.133195
0.0303491
-0.130821
0.129488
-0.127183
0.125865
0.031667
0.00038172
-0.234744
0.00142242
-0.217362
0.00293711
-0.206301
0.00475803
-0.198826
0.00675093
-0.193244
0.00881414
-0.188523
0.0108751
-0.184101
0.012886
-0.179708
0.0148185
-0.17524
0.0166591
-0.170683
0.0184045
-0.166068
0.0200587
-0.161445
0.0216295
-0.156866
0.0231276
-0.152376
0.0245645
-0.148014
0.0259522
-0.143804
0.0273026
-0.139758
0.0286263
-0.135873
0.0299324
-0.132127
-0.128478
0.0312268
0.000403147
-0.235147
0.00146008
-0.218419
0.00298348
-0.207824
0.00480497
-0.200647
0.00678869
-0.195228
0.00883292
-0.190567
0.0108664
-0.186134
0.012843
-0.181685
0.0147365
-0.177134
0.0165352
-0.172482
0.0182375
-0.167771
0.0198484
-0.163056
0.021377
-0.158394
0.0228343
-0.153834
0.0242324
-0.149412
0.0255836
-0.145155
0.0268996
-0.141074
0.0281918
-0.137165
0.0294694
-0.133405
-0.129748
0.0307392
0.000417022
-0.235564
0.001489
-0.219491
0.00302027
-0.209356
0.00483975
-0.202467
0.00681092
-0.197199
0.00883262
-0.192589
0.0108351
-0.188136
0.0127742
-0.183624
0.0146258
-0.178985
0.0163799
-0.174236
0.0180368
-0.169427
0.0196026
-0.164622
0.0210873
-0.159879
0.0225026
-0.155249
0.0238607
-0.15077
0.0251741
-0.146469
0.0264548
-0.142355
0.0277143
-0.138424
0.0289624
-0.134653
-0.130992
0.030207
0.000428292
-0.235992
0.00151254
-0.220575
0.00304883
-0.210892
0.00486303
-0.204281
0.00681811
-0.199154
0.0088137
-0.194584
0.0107817
-0.190105
0.0126802
-0.185522
0.014487
-0.180792
0.0161943
-0.175943
0.0178037
-0.171037
0.0193226
-0.166141
0.020762
-0.161318
0.0221339
-0.156621
0.0234508
-0.152087
0.0247254
-0.147743
0.0259698
-0.143599
0.0271957
-0.13965
0.0284135
-0.135871
-0.132211
0.029632
0.000437386
-0.236429
0.00153108
-0.221669
0.0030694
-0.21243
0.00487505
-0.206087
0.00681054
-0.20109
0.00877656
-0.19655
0.0107069
-0.192035
0.0125617
-0.187377
0.0143211
-0.182551
0.0159792
-0.177601
0.0175391
-0.172597
0.0190095
-0.167611
0.0204021
-0.162711
0.0217294
-0.157948
0.0230041
-0.153362
0.0242388
-0.148978
0.0254459
-0.144806
0.0266372
-0.140842
0.0278239
-0.137057
-0.133402
0.0290156
0.000444867
-0.236874
0.00154534
-0.222769
0.00308256
-0.213968
0.00487629
-0.20788
0.00678873
-0.203002
0.00872178
-0.198483
0.0106112
-0.193924
0.0124195
-0.189185
0.014129
-0.184261
0.0157356
-0.179208
0.0172441
-0.174105
0.0186644
-0.169032
0.0200088
-0.164055
0.0212902
-0.15923
0.0225216
-0.154593
0.0237154
-0.150172
0.0248841
-0.145975
0.0260398
-0.141997
0.0271943
-0.138212
-0.134566
0.0283583
0.000450893
-0.237325
0.00155561
-0.223874
0.00308871
-0.215501
0.00486723
-0.209659
0.00675324
-0.204888
0.00865004
-0.20038
0.0104955
-0.19577
0.0122545
-0.190944
0.0139116
-0.185918
0.0154646
-0.180761
0.0169199
-0.17556
0.0182885
-0.1704
0.0195832
-0.16535
0.0208175
-0.160464
0.0220042
-0.15578
0.0231559
-0.151323
0.0242849
-0.147104
0.0254037
-0.143116
0.0265248
-0.139333
-0.135701
0.02766
0.000455567
-0.237781
0.00156218
-0.224981
0.00308829
-0.217027
0.00484843
-0.211419
0.00670476
-0.206745
0.00856216
-0.202237
0.0103608
-0.197568
0.0120679
-0.192651
0.0136702
-0.18752
0.0151675
-0.182258
0.0165678
-0.176961
0.0178829
-0.171715
0.0191264
-0.166594
0.0203121
-0.16165
0.0214527
-0.156921
0.0225608
-0.152431
0.0236485
-0.148192
0.0247288
-0.144196
0.0258148
-0.140419
-0.136807
0.0269198
0.000458965
-0.23824
0.00156535
-0.226087
0.00308178
-0.218543
0.00482053
-0.213158
0.0066441
-0.208568
0.00845912
-0.204052
0.0102081
-0.199317
0.0118607
-0.194304
0.013406
-0.189065
0.0148457
-0.183698
0.016189
-0.178304
0.0174489
-0.172975
0.0186395
-0.167784
0.0197748
-0.162785
0.0208677
-0.158014
0.0219303
-0.153494
0.0229749
-0.149236
0.0240144
-0.145236
0.0250632
-0.141468
-0.137879
0.026136
0.000461192
-0.238701
0.00156546
-0.227191
0.00306976
-0.220047
0.0047843
-0.214872
0.0065722
-0.210356
0.00834204
-0.205822
0.0100388
-0.201014
0.0116346
-0.1959
0.0131207
-0.190552
0.0145007
-0.185078
0.0157851
-0.179588
0.0169879
-0.174178
0.0181238
-0.16892
0.0192068
-0.163868
0.0202497
-0.159057
0.0212646
-0.154509
0.0222634
-0.150235
0.0232595
-0.146232
0.024268
-0.142476
-0.138917
0.0253057
0.000462404
-0.239163
0.00156296
-0.228292
0.00305291
-0.221537
0.00474063
-0.21656
0.00649017
-0.212106
0.00821226
-0.207544
0.00985438
-0.202656
0.0113912
-0.197437
0.0128161
-0.191976
0.0141344
-0.186396
0.015358
-0.180812
0.0165017
-0.175322
0.0175807
-0.169999
0.0186091
-0.164896
0.0195996
-0.160047
0.020564
-0.155473
0.0215139
-0.151185
0.0224629
-0.147181
0.0234272
-0.143441
-0.139916
0.0244259
0.00046288
-0.239626
0.00155846
-0.229388
0.00303208
-0.223011
0.0046906
-0.218219
0.00639933
-0.213814
0.00807132
-0.209216
0.00965665
-0.204242
0.0111325
-0.198913
0.0124943
-0.193338
0.0137491
-0.187651
0.01491
-0.181973
0.0159925
-0.176404
0.0170122
-0.171019
0.0179833
-0.165867
0.0189184
-0.160982
0.0198288
-0.156384
0.0207259
-0.152082
0.0216232
-0.148078
0.0225383
-0.144356
-0.14087
0.0234928
0.000463099
-0.240089
0.00155282
-0.230477
0.00300833
-0.224467
0.00463544
-0.219846
0.00630113
-0.21548
0.00792095
-0.210836
0.00944762
-0.205768
0.0108607
-0.200326
0.0121578
-0.194635
0.0133475
-0.188841
0.0144438
-0.183069
0.015463
-0.177423
0.0164208
-0.171977
0.0173315
-0.166778
0.0182075
-0.161858
0.0190596
-0.157236
0.0198989
-0.152921
0.0207386
-0.148918
0.0215974
-0.145214
-0.141773
0.0224999
0.000463862
-0.240553
0.0015472
-0.231561
0.00298287
-0.225902
0.00457652
-0.221439
0.00619719
-0.217101
0.00776308
-0.212402
0.00922955
-0.207235
0.0105786
-0.201675
0.0118098
-0.195867
0.012933
-0.189964
0.0139632
-0.184099
0.014917
-0.178377
0.0158103
-0.17287
0.0166572
-0.167625
0.0174697
-0.162671
0.018258
-0.158024
0.0190325
-0.153696
0.0198061
-0.149692
0.0205982
-0.146007
-0.142614
0.0214391
0.000466317
-0.241019
0.00154292
-0.232637
0.00295692
-0.227316
0.00451522
-0.222998
0.00608921
-0.218675
0.00759977
-0.213913
0.00900494
-0.20864
0.0102891
-0.202959
0.0114535
-0.197031
0.0125095
-0.19102
0.0134726
-0.185063
0.0143596
-0.179264
0.0151863
-0.173697
0.0159662
-0.168405
0.0167108
-0.163415
0.0174293
-0.158743
0.0181309
-0.154397
0.0188275
-0.150388
0.0195398
-0.146719
-0.143381
0.0203067
0.000471854
-0.241491
0.00154128
-0.233707
0.00293179
-0.228707
0.00445308
-0.224519
0.00597904
-0.220201
0.00743322
-0.215367
0.00877641
-0.209983
0.00999527
-0.204178
0.0110929
-0.198129
0.0120815
-0.192008
0.0129772
-0.185958
0.0137966
-0.180084
0.0145551
-0.174455
0.0152658
-0.169116
0.0159389
-0.164088
0.0165828
-0.159387
0.017205
-0.15502
0.0178154
-0.150999
0.0184348
-0.147338
-0.144049
0.0191031
0.000482803
-0.241974
0.00154491
-0.234769
0.00290995
-0.230072
0.00439223
-0.226001
0.00586863
-0.221677
0.00726555
-0.216764
0.0085465
-0.211264
0.00970041
-0.205332
0.0107319
-0.19916
0.011654
-0.19293
0.0124829
-0.186787
0.0132349
-0.180836
0.0139243
-0.175145
0.0145629
-0.169754
0.01516
-0.164686
0.0157229
-0.159949
0.0162581
-0.155555
0.016772
-0.151513
0.0172775
-0.147844
-0.14457
0.0177985
0.000506746
-0.242481
0.00156103
-0.235823
0.00289546
-0.231406
0.00433456
-0.22744
0.00575922
-0.223102
0.00709817
-0.218103
0.00831725
-0.212483
0.00940744
-0.206422
0.0103748
-0.200128
0.011233
-0.193789
0.011998
-0.187552
0.0126851
-0.181523
0.0133068
-0.175766
0.013872
-0.170319
0.0143868
-0.1652
0.0148547
-0.160417
0.0152776
-0.155978
0.0156545
-0.15189
0.0159897
-0.148179
-0.144925
0.0163453
0.000563798
-0.243045
0.00159795
-0.236857
0.00288808
-0.232696
0.0042789
-0.228831
0.00565035
-0.224473
0.0069315
-0.219384
0.00808995
-0.213642
0.00911866
-0.20745
0.0100252
-0.201034
0.0108241
-0.194587
0.0115313
-0.188259
0.0121614
-0.182153
0.0127248
-0.17633
0.0132273
-0.170822
0.0136686
-0.165642
0.0140413
-0.16079
0.0143284
-0.156265
0.014504
-0.152065
0.0145629
-0.148238
-0.145097
0.0147346
0.250728
0.000415104
-0.251143
0.250339
0.000388747
0.249958
0.000381479
0.249576
0.000381613
0.249192
0.000384561
0.248803
0.000388975
0.248409
0.000394129
0.248009
0.000399437
0.247605
0.000404505
0.247196
0.000409128
0.246782
0.00041321
0.246366
0.000416725
0.245946
0.000419654
0.245524
0.000421975
0.2451
0.000423564
0.244676
0.000424213
0.244253
0.000422877
0.243834
0.000419006
0.243431
0.000403399
0.000386312
0.252699
0.00102366
-0.253308
0.252055
0.00103288
0.251383
0.00105399
0.250683
0.00108098
0.249958
0.00110936
0.24921
0.00113774
0.248438
0.00116566
0.247645
0.00119263
0.246831
0.00121821
0.245998
0.00124217
0.245147
0.00126438
0.244279
0.00128482
0.243395
0.00130349
0.242497
0.00132037
0.241585
0.00133534
0.240661
0.00134817
0.239726
0.00135778
0.238781
0.00136389
0.237824
0.00136023
0.00135345
0.251481
0.00159568
-0.252053
0.250844
0.00166962
0.250154
0.00174377
0.249416
0.00181902
0.248632
0.00189303
0.247806
0.00196458
0.246938
0.00203333
0.246031
0.00209906
0.245088
0.00216153
0.24411
0.00222058
0.243098
0.00227615
0.242055
0.0023283
0.240981
0.00237711
0.239879
0.00242268
0.238749
0.00246505
0.237593
0.00250423
0.236411
0.00253971
0.235203
0.00257174
0.233965
0.00259793
0.00262245
0.247375
0.00203916
-0.247818
0.246862
0.00218276
0.246284
0.00232174
0.245645
0.00245753
0.244949
0.00258949
0.244197
0.00271682
0.243391
0.00283917
0.242533
0.0029564
0.241627
0.00306835
0.240672
0.00317496
0.239672
0.00327625
0.238628
0.00337233
0.237542
0.00346343
0.236415
0.00354981
0.235248
0.00363176
0.234043
0.00370964
0.232799
0.00378354
0.231516
0.00385409
0.230194
0.00392058
0.00398499
0.241126
0.00231824
-0.241406
0.240776
0.00253314
0.240357
0.00274128
0.239871
0.00294348
0.23932
0.00313972
0.238708
0.00332952
0.238034
0.00351256
0.237302
0.00368865
0.236513
0.00385766
0.235668
0.00401956
0.23477
0.00417442
0.23382
0.00432244
0.232819
0.00446395
0.23177
0.00459941
0.230672
0.00472937
0.229527
0.00485452
0.228335
0.00497545
0.227096
0.00509313
0.225809
0.00520771
0.00532086
0.233528
0.00244158
-0.233652
0.233334
0.0027271
0.233071
0.00300469
0.23274
0.00327464
0.232343
0.003537
0.231881
0.00379146
0.231355
0.00403769
0.230769
0.00427545
0.230122
0.00450462
0.229416
0.00472516
0.228653
0.00493717
0.227835
0.00514091
0.226962
0.0053368
0.226036
0.00552549
0.225058
0.00570778
0.224027
0.00588469
0.222946
0.00605729
0.221812
0.00622696
0.220625
0.00639456
0.00656193
0.225284
0.00243975
-0.225283
0.225218
0.00279332
0.225085
0.00313821
0.224885
0.00347435
0.22462
0.00380166
0.224292
0.00411988
0.223901
0.00442866
0.223449
0.00472772
0.222936
0.0050169
0.222365
0.00529613
0.221737
0.00556552
0.221053
0.00582537
0.220313
0.00607618
0.21952
0.00631876
0.218673
0.00655416
0.217774
0.00678377
0.216823
0.00700913
0.215817
0.00723216
0.214758
0.00745438
0.00767797
0.216922
0.00234894
-0.216831
0.216948
0.00276701
0.216911
0.00317581
0.21681
0.00357503
0.216647
0.00396446
0.216423
0.00434379
0.216139
0.00471264
0.215797
0.00507067
0.215396
0.00541767
0.214938
0.00575353
0.214426
0.00607833
0.213859
0.00639236
0.213239
0.0066962
0.212566
0.0069908
0.211843
0.00727745
0.211069
0.00755792
0.210244
0.00783432
0.209367
0.00810915
0.208436
0.0083848
0.00866394
0.208789
0.00220247
-0.208642
0.208875
0.00268126
0.2089
0.0031502
0.208867
0.00360885
0.208774
0.0040569
0.208624
0.00449394
0.208417
0.00491954
0.208154
0.0053333
0.207837
0.00573491
0.207466
0.00612421
0.207044
0.00650121
0.20657
0.00686618
0.206046
0.00721972
0.205474
0.00756287
0.204854
0.00789717
0.204188
0.00822475
0.203474
0.00854837
0.202711
0.00887131
0.201899
0.00919701
0.009529
0.201085
0.00202733
-0.20091
0.201203
0.00256325
0.201265
0.00308875
0.20127
0.00360329
0.201221
0.00410644
0.201117
0.00459771
0.20096
0.00507659
0.200751
0.00554259
0.20049
0.00599531
0.20018
0.00643448
0.199821
0.00686002
0.199415
0.00727213
0.198963
0.00767136
0.198468
0.00805877
0.197929
0.00843613
0.197347
0.00880588
0.196724
0.00917156
0.196058
0.00953732
0.195347
0.00990812
0.0102887
0.193904
0.00184337
-0.19372
0.194034
0.00243332
0.19411
0.00301227
0.194134
0.00357955
0.194106
0.00413464
0.194027
0.00467696
0.193897
0.00520591
0.193719
0.00572089
0.193493
0.00622138
0.19322
0.00670699
0.192903
0.0071775
0.192542
0.00763292
0.19214
0.00807374
0.191698
0.0085009
0.191218
0.00891631
0.190701
0.00932265
0.190148
0.00972435
0.189559
0.0101265
0.188931
0.0105362
0.01096
0.187268
0.00166403
-0.187089
0.187396
0.00230549
0.187473
0.00293535
0.1875
0.00355279
0.187477
0.00415718
0.187406
0.00474787
0.187288
0.00532414
0.187124
0.00588528
0.186914
0.00643065
0.186662
0.00695967
0.186367
0.00747193
0.186033
0.00796721
0.185661
0.00844578
0.185254
0.00890834
0.184813
0.00935684
0.184342
0.00979388
0.183841
0.010225
0.183312
0.010656
0.18275
0.0110974
0.0115576
0.181158
0.00149761
-0.180992
0.181275
0.00218874
0.181343
0.00286752
0.181362
0.00353305
0.181335
0.00418463
0.181261
0.00482152
0.181143
0.0054429
0.18098
0.00604792
0.180775
0.00663579
0.180529
0.00720572
0.180244
0.00775706
0.179922
0.00828926
0.179565
0.00880228
0.179177
0.00929631
0.178761
0.00977323
0.17832
0.0102351
0.177856
0.0106888
0.177372
0.0111399
0.176865
0.0116047
0.0120926
0.175531
0.00134896
-0.175383
0.175632
0.00208824
0.175685
0.00281438
0.175691
0.00352642
0.175653
0.00422357
0.175569
0.00490497
0.175442
0.00556971
0.175273
0.00621682
0.175064
0.00684532
0.174815
0.0074542
0.17453
0.00804252
0.17421
0.00860933
0.173858
0.00915412
0.173478
0.00967633
0.173074
0.0101775
0.17265
0.0106584
0.172211
0.0111277
0.171763
0.0115885
0.1713
0.0120673
0.0125708
0.170335
0.00122035
-0.170207
0.170417
0.00200668
0.170452
0.00277893
0.170443
0.00353619
0.170389
0.00427759
0.170291
0.00500216
0.170152
0.00570888
0.169972
0.00639666
0.169753
0.00706436
0.169497
0.00771072
0.169205
0.00833446
0.16888
0.00893415
0.168526
0.00950871
0.168145
0.0100565
0.167744
0.0105786
0.16733
0.0110731
0.166906
0.011551
0.166486
0.0120091
0.166062
0.0124912
0.012991
0.165516
0.00111257
-0.165408
0.165578
0.00194486
0.165594
0.00276216
0.165567
0.00356355
0.165497
0.00434806
0.165384
0.00511466
0.165231
0.00586223
0.165038
0.00658955
0.164807
0.0072953
0.16454
0.00797799
0.164238
0.008636
0.163905
0.00926739
0.163543
0.00987037
0.163158
0.0104421
0.162754
0.0109824
0.162341
0.0114859
0.161926
0.0119661
0.161529
0.0124064
0.16114
0.0128798
0.0133411
0.16102
0.00102509
-0.160933
0.161063
0.0019023
0.161061
0.00276364
0.161017
0.0036081
0.16093
0.00443467
0.160803
0.00524222
0.160635
0.00602955
0.16043
0.00679535
0.160187
0.00753812
0.159909
0.00825617
0.159597
0.00894754
0.159255
0.00960981
0.158885
0.0102404
0.158492
0.0108351
0.158082
0.0113923
0.157666
0.0119013
0.157254
0.0123782
0.156877
0.0127832
0.156519
0.0132382
0.0135952
0.156802
0.000956102
-0.156733
0.156827
0.00187745
0.156809
0.00278166
0.156749
0.00366804
0.156648
0.00453546
0.156507
0.00538273
0.156328
0.0062086
0.156112
0.00701167
0.15586
0.00779033
0.155573
0.00854267
0.155254
0.0092665
0.154905
0.00995893
0.154529
0.0106168
0.15413
0.0112342
0.153714
0.0118083
0.153294
0.0123211
0.152882
0.0127904
0.152526
0.0131389
0.152192
0.0135721
0.0137222
0.152817
0.000903638
-0.152765
0.152827
0.00186745
0.152796
0.00281301
0.152724
0.00373976
0.152613
0.0046464
0.152464
0.00553173
0.152278
0.00639449
0.152057
0.00723321
0.151801
0.00804616
0.151512
0.00883132
0.151192
0.0095863
0.150843
0.0103079
0.150468
0.0109925
0.150069
0.011633
0.149652
0.0122252
0.149229
0.0127437
0.148813
0.0132063
0.148479
0.0134735
0.148186
0.013865
0.0136704
0.149027
-0.14899
0.000866143
0.149026
0.00186836
0.148986
0.0028533
0.148908
0.00381819
0.148792
0.00476165
0.148641
0.00568262
0.148456
0.00657982
0.148238
0.00745172
0.147987
0.00829655
0.147706
0.00911221
0.147396
0.00989624
0.147059
0.0106453
0.146696
0.0113555
0.14631
0.012019
0.145904
0.0126315
0.145486
0.0131611
0.145063
0.0136298
0.144712
0.0138244
0.144454
0.0141229
0.0130273
0.254366
7.40799e-05
-0.25444
0.25433
3.639e-05
0.254297
3.25553e-05
0.254256
4.14871e-05
0.2542
5.5918e-05
0.254126
7.37694e-05
0.254032
9.37389e-05
0.253918
0.000114702
0.253782
0.000135845
0.253625
0.00015666
0.253449
0.000176707
0.253253
0.000195707
0.253039
0.000214156
0.252806
0.000233115
0.252555
0.000250404
0.25229
0.000265579
0.252011
0.000278242
0.251723
0.000288303
0.251433
0.0002899
0.00028991
0.256228
-0.000241512
-0.255913
0.256482
-0.000217545
0.256691
-0.000176619
0.256856
-0.000122817
0.256974
-6.26527e-05
0.257047
1.26968e-06
0.257073
6.78074e-05
0.257051
0.00013587
0.256983
0.000204531
0.256867
0.000272857
0.256704
0.000339604
0.256496
0.000403528
0.256247
0.000463387
0.255949
0.000530842
0.255607
0.000592538
0.255223
0.000649686
0.254799
0.000702137
0.254337
0.000749822
0.253839
0.000788089
0.000821159
0.251663
-0.000898215
-0.251006
0.252247
-0.000801315
0.252765
-0.000694563
0.25322
-0.000578128
0.253613
-0.000455522
0.253943
-0.000328989
0.254211
-0.000199675
0.254415
-6.89867e-05
0.254557
6.30843e-05
0.254634
0.00019596
0.254648
0.000325802
0.254599
0.000452238
0.254485
0.000577566
0.254313
0.000702642
0.254082
0.000823534
0.253792
0.000939415
0.253445
0.00104981
0.25304
0.00115461
0.252576
0.00125188
0.0013444
0.243344
-0.0018339
-0.242408
0.244207
-0.00166424
0.244999
-0.00148731
0.245724
-0.00130237
0.246379
-0.0011111
0.246965
-0.000915307
0.247482
-0.000716331
0.247929
-0.00051544
0.248305
-0.000313324
0.248608
-0.000107206
0.248839
9.47036e-05
0.249002
0.000289436
0.249094
0.000486089
0.249116
0.000679723
0.249071
0.00086927
0.248956
0.00105382
0.248774
0.00123263
0.248523
0.00140533
0.248204
0.00157087
0.00172978
0.233261
-0.00296848
-0.232126
0.234327
-0.0027306
0.235325
-0.00248521
0.236254
-0.00223187
0.237115
-0.00197151
0.237905
-0.00170562
0.238624
-0.00143563
0.239272
-0.00116275
0.239846
-0.000887944
0.240351
-0.000611996
0.240784
-0.000338134
0.241141
-6.77687e-05
0.241426
0.00020117
0.241639
0.000466773
0.24178
0.000728648
0.241848
0.000985351
0.241845
0.00123615
0.241769
0.00148046
0.241623
0.00171745
0.00194706
0.222704
-0.00422956
-0.221443
0.223901
-0.00392834
0.225034
-0.00361804
0.226101
-0.0032988
0.227101
-0.00297145
0.228033
-0.0026374
0.228896
-0.00229823
0.229688
-0.00195541
0.230411
-0.00161037
0.231063
-0.00126447
0.231644
-0.000919262
0.232153
-0.00057604
0.232589
-0.000235665
0.232956
0.000100329
0.233251
0.000433418
0.233474
0.000762488
0.233625
0.00108486
0.233705
0.00140048
0.233714
0.00170869
0.00200927
0.212458
-0.00555955
-0.211128
0.213729
-0.00519917
0.214938
-0.00482761
0.216085
-0.00444549
0.217168
-0.00405388
0.218185
-0.00365438
0.219135
-0.0032488
0.220019
-0.00283888
0.220835
-0.00242628
0.221583
-0.00201244
0.222262
-0.00159877
0.222873
-0.00118669
0.223414
-0.000776991
0.223885
-0.00037041
0.224293
2.53882e-05
0.224629
0.00042667
0.224895
0.000818336
0.225093
0.00120267
0.225222
0.00157961
0.00194875
0.202935
-0.00691664
-0.201578
0.204236
-0.00650043
0.205479
-0.00607064
0.206662
-0.00562828
0.207783
-0.00517485
0.208841
-0.00471234
0.209835
-0.0042429
0.210765
-0.00376853
0.211629
-0.00329109
0.212429
-0.00281218
0.213164
-0.00233329
0.213833
-0.00185578
0.214436
-0.00138072
0.214975
-0.000909076
0.215443
-0.000442208
0.215856
1.3751e-05
0.216197
0.000477236
0.216473
0.000925953
0.216685
0.00136811
0.00180237
0.194292
-0.00827303
-0.192936
0.195596
-0.00780354
0.196843
-0.00731776
0.198031
-0.00681703
0.19916
-0.00630352
0.200228
-0.00577981
0.201233
-0.00524848
0.202176
-0.00471185
0.203057
-0.00417198
0.203876
-0.00363064
0.204632
-0.00308939
0.205326
-0.00254955
0.205957
-0.00201229
0.206527
-0.00147856
0.207034
-0.000949751
0.207475
-0.000427176
0.207862
9.0677e-05
0.208183
0.00060434
0.208444
0.00110785
0.0016035
0.186539
-0.00961196
-0.1852
0.187826
-0.00909115
0.189059
-0.00855086
0.190235
-0.00799281
0.191352
-0.00742017
0.192408
-0.00683636
0.193404
-0.00624445
0.19434
-0.00564715
0.195214
-0.00504674
0.196029
-0.00444511
0.196783
-0.00384385
0.197478
-0.00324426
0.198113
-0.0026475
0.198689
-0.00205453
0.199206
-0.00146633
0.199662
-0.000883845
0.200061
-0.000307785
0.200403
0.000262268
0.200685
0.000825334
0.00137891
0.179601
-0.0109247
-0.178289
0.180865
-0.0103543
0.182074
-0.0097603
0.183226
-0.00914514
0.18432
-0.00851357
0.185353
-0.00787008
0.186327
-0.00721833
0.187242
-0.0065614
0.188097
-0.00590181
0.188893
-0.00524154
0.189631
-0.00458214
0.190312
-0.00392487
0.190935
-0.00327079
0.191502
-0.00262084
0.192011
-0.00197586
0.192464
-0.00133672
0.19286
-0.000703933
0.193203
-8.04371e-05
0.193489
0.000539113
0.00114791
0.173376
-0.0122083
-0.172093
0.174612
-0.0115901
0.175794
-0.0109425
0.176919
-0.0102696
0.177984
-0.0095786
0.178989
-0.00887527
0.179934
-0.00816386
0.180821
-0.0074479
0.181649
-0.00673008
0.18242
-0.00601238
0.183134
-0.00529627
0.183792
-0.00458289
0.184394
-0.00387322
0.184942
-0.0031681
0.185434
-0.00246832
0.185872
-0.00177471
0.186256
-0.00108799
0.186586
-0.000409762
0.186865
0.000260168
0.000923591
0.167753
-0.0134636
-0.166498
0.168963
-0.0127998
0.170119
-0.0120978
0.171215
-0.0113658
0.17225
-0.0106143
0.173226
-0.00985039
0.174141
-0.00907905
0.174997
-0.00830424
0.175796
-0.00752874
0.176538
-0.00675443
0.177224
-0.00598263
0.177856
-0.00521432
0.178433
-0.00445033
0.178956
-0.00369142
0.179426
-0.00293832
0.179843
-0.00219181
0.180208
-0.00145238
0.180519
-0.000720763
0.180782
-3.72942e-06
0.000714317
0.162633
-0.0146943
-0.161403
0.163822
-0.0139883
0.164954
-0.01323
0.166024
-0.0124362
0.167032
-0.0116223
0.167979
-0.0107965
0.168864
-0.00996432
0.16969
-0.00913037
0.170459
-0.00829736
0.171171
-0.00746691
0.171828
-0.00664009
0.172432
-0.00581768
0.172982
-0.00500032
0.173479
-0.00418865
0.173924
-0.0033833
0.174317
-0.00258501
0.174659
-0.00179445
0.174951
-0.00101291
0.17519
-0.000242198
0.000521711
0.157933
-0.0159072
-0.15672
0.159108
-0.0151631
0.160222
-0.0143446
0.161271
-0.0134852
0.162255
-0.0126058
0.163174
-0.0117153
0.16403
-0.0108208
0.164826
-0.00992688
0.165565
-0.00903612
0.166248
-0.00814973
0.166876
-0.0072684
0.167451
-0.00639257
0.167974
-0.00552262
0.168444
-0.00465904
0.168863
-0.00380237
0.169231
-0.0029533
0.169549
-0.00211259
0.169818
-0.00128118
0.170036
-0.000460197
0.000350614
0.153589
-0.0171147
-0.152381
0.15476
-0.0163347
0.155864
-0.0154485
0.156896
-0.0145175
0.157858
-0.013567
0.15875
-0.0126077
0.159577
-0.0116482
0.160344
-0.0106932
0.161052
-0.00974439
0.161705
-0.00880234
0.162303
-0.00786713
0.162849
-0.00693868
0.163344
-0.00601705
0.163787
-0.00510248
0.16418
-0.00419543
0.164524
-0.00329649
0.164817
-0.00240642
0.165062
-0.00152604
0.165259
-0.000656552
0.000201082
0.149556
-0.0183461
-0.148324
0.150739
-0.0175182
0.151839
-0.016548
0.152857
-0.0155357
0.153794
-0.0145047
0.154657
-0.0134704
0.155452
-0.0124434
0.156186
-0.0114266
0.156861
-0.0104201
0.157482
-0.00942336
0.158051
-0.00843549
0.158568
-0.00745572
0.159034
-0.00648363
0.159451
-0.00551924
0.159819
-0.00456287
0.160137
-0.00361508
0.160407
-0.00267659
0.16063
-0.0017483
0.160804
-0.000831171
7.2436e-05
0.145804
-0.0196659
-0.144484
0.147021
-0.0187356
0.148117
-0.0176439
0.149116
-0.0165344
0.150022
-0.0154105
0.150846
-0.0142951
0.151603
-0.0131998
0.152299
-0.0121226
0.152939
-0.0110605
0.153527
-0.0100114
0.154065
-0.00897305
0.154553
-0.00794386
0.154992
-0.00692296
0.155383
-0.00591017
0.155726
-0.00490573
0.156021
-0.00391019
0.156269
-0.00292432
0.15647
-0.00194917
0.156624
-0.000985734
-3.59485e-05
0.14235
-0.021144
-0.140871
0.143598
-0.0199843
0.144672
-0.0187177
0.145629
-0.0174911
0.146486
-0.0162677
0.147262
-0.0150712
0.147973
-0.0139106
0.148628
-0.0127776
0.149232
-0.0116643
0.149787
-0.0105665
0.150294
-0.00948062
0.150755
-0.00840433
0.151168
-0.00733648
0.151535
-0.00627681
0.151855
-0.00522563
0.152128
-0.00418354
0.152355
-0.0031514
0.152537
-0.00213039
0.152673
-0.00112198
-0.000127742
0.139262
-0.137844
-0.0225621
0.140424
-0.0211462
0.141458
-0.0197515
0.142335
-0.018368
0.143124
-0.0170569
0.143848
-0.0157948
0.144513
-0.0145757
0.145127
-0.0133922
0.145696
-0.0122333
0.146221
-0.0110908
0.1467
-0.00996016
0.147135
-0.00883882
0.147524
-0.00772565
0.147868
-0.00662052
0.148166
-0.0055239
0.148419
-0.00443658
0.148627
-0.00335954
0.14879
-0.00229377
0.148909
-0.00124085
-0.00020828
0.0308331
0.112041
-0.110557
-0.0323172
0.0293217
0.115044
-0.113532
0.0277803
0.118179
-0.116638
0.0262052
0.121471
-0.119896
0.0245932
0.12495
-0.123338
0.0229416
0.12866
-0.127009
0.0212481
0.132659
-0.130965
0.0195115
0.137025
-0.135289
0.0177311
0.141864
-0.140083
0.0159073
0.147305
-0.145481
0.0140417
0.153511
-0.151645
0.0121388
0.160667
-0.158764
0.0102073
0.168976
-0.167044
0.00826406
0.178625
-0.176682
0.00633886
0.189738
-0.187812
0.0044819
0.202278
-0.200421
0.00277299
0.215909
-0.2142
0.00133264
0.229775
-0.228334
0.000330233
0.242092
-0.241089
0.249726
-0.249396
0.030644
0.113517
-0.0321205
0.0291402
0.116548
0.0276066
0.119713
0.0260396
0.123038
0.0244358
0.126554
0.0227925
0.130304
0.0211075
0.134344
0.0193791
0.138754
0.0176066
0.143636
0.0157904
0.149121
0.0139324
0.155369
0.0120371
0.162562
0.010114
0.170899
0.00818068
0.180558
0.00626812
0.19165
0.00442801
0.204118
0.00274164
0.217596
0.00132897
0.231187
0.000353997
0.243067
0.25008
0.0304129
0.114984
-0.0318796
0.028919
0.118042
0.0273954
0.121237
0.0258386
0.124594
0.0242453
0.128147
0.0226126
0.131936
0.020938
0.136018
0.0192201
0.140472
0.0174579
0.145398
0.0156518
0.150927
0.0138036
0.157217
0.0119185
0.164447
0.0100062
0.172811
0.00808522
0.182479
0.00618745
0.193548
0.00436562
0.20594
0.00270154
0.21926
0.00131354
0.232575
0.000357072
0.244023
0.250437
0.0301415
0.116439
-0.0315963
0.0286596
0.119523
0.0271482
0.122748
0.0256037
0.126139
0.0240229
0.129728
0.0224027
0.133556
0.0207408
0.13768
0.0190354
0.142177
0.0172856
0.147148
0.0154917
0.152721
0.0136558
0.159053
0.0117831
0.16632
0.0098839
0.17471
0.00797738
0.184386
0.0060963
0.195429
0.00429409
0.207742
0.0026527
0.220901
0.00128881
0.233939
0.000352007
0.24496
0.250789
0.0298322
0.11788
-0.0312732
0.0283641
0.120992
0.0268667
0.124245
0.0253364
0.127669
0.0237698
0.131295
0.0221641
0.135162
0.0205166
0.139328
0.0188257
0.143868
0.0170903
0.148883
0.0153107
0.154501
0.0134891
0.160874
0.0116309
0.168178
0.00974705
0.176594
0.00785714
0.186276
0.00599476
0.197291
0.004214
0.209523
0.00259685
0.222518
0.00125836
0.235278
0.000343088
0.245875
0.251132
0.0294873
0.119306
-0.030913
0.0280347
0.122444
0.0265529
0.125727
0.0250383
0.129184
0.0234876
0.132845
0.0218978
0.136752
0.0202666
0.140959
0.0185918
0.145543
0.0168726
0.150603
0.0151092
0.156264
0.0133039
0.162679
0.0114624
0.17002
0.00959589
0.17846
0.00772473
0.188147
0.00588319
0.199133
0.00412599
0.21128
0.00253502
0.224109
0.00122356
0.236589
0.000331483
0.246767
0.251464
0.0291098
0.120715
-0.0305191
0.0276737
0.12388
0.0262087
0.127192
0.0247111
0.130681
0.0231776
0.134379
0.0216052
0.138324
0.0199915
0.142573
0.0183346
0.1472
0.0166332
0.152304
0.0148878
0.15801
0.0131007
0.164467
0.0112778
0.171843
0.00943073
0.180307
0.00758045
0.189997
0.00576194
0.200951
0.00403042
0.213012
0.00246762
0.225672
0.00118496
0.237872
0.000317898
0.247634
0.251782
0.0287025
0.122107
-0.0300948
0.0272837
0.125299
0.0258362
0.12864
0.0243565
0.132161
0.0228412
0.135894
0.0212874
0.139878
0.0196925
0.144168
0.0180547
0.148838
0.0163727
0.153986
0.0146469
0.159736
0.0128798
0.166234
0.0110774
0.173645
0.00925184
0.182133
0.00742458
0.191824
0.00563125
0.202745
0.00392758
0.214715
0.00239501
0.227204
0.00114309
0.239124
0.000302936
0.248475
0.252085
0.0282683
0.123483
-0.0296436
0.0268669
0.1267
0.0254374
0.130069
0.0239761
0.133622
0.0224796
0.137391
0.0209452
0.141413
0.0193702
0.145743
0.0177527
0.150455
0.0160915
0.155647
0.0143869
0.16144
0.0126415
0.167979
0.0108615
0.175425
0.00905949
0.183935
0.00725736
0.193627
0.00549141
0.204511
0.00381777
0.216389
0.00231756
0.228705
0.00109843
0.240343
0.000287013
0.249286
0.252372
0.0278099
0.124842
-0.0291689
0.0264255
0.128085
0.0250138
0.131481
0.0235709
0.135065
0.0220937
0.138868
0.0205793
0.142927
0.0190251
0.147297
0.0174291
0.152051
0.01579
0.157286
0.0141081
0.163122
0.0123861
0.169701
0.0106304
0.177181
0.00885386
0.185712
0.007079
0.195401
0.00534265
0.206247
0.00370129
0.21803
0.00223563
0.23017
0.00105133
0.241527
0.000270375
0.250067
0.252642
0.0273298
0.126186
-0.0286741
0.0259612
0.129453
0.0245665
0.132876
0.0231419
0.13649
0.0216841
0.140326
0.0201902
0.144421
0.0186575
0.148829
0.0170839
0.153625
0.0154682
0.158902
0.0138106
0.16478
0.0121136
0.171398
0.0103841
0.17891
0.00863512
0.187461
0.0068897
0.197147
0.0051852
0.207952
0.00357841
0.219637
0.00214952
0.231599
0.00100208
0.242675
0.000253181
0.250816
0.252895
0.0268296
0.127518
-0.0281616
0.0254749
0.130808
0.024096
0.134255
0.0226891
0.137897
0.0212506
0.141764
0.0197775
0.145894
0.0182671
0.15034
0.0167171
0.155175
0.0151261
0.160493
0.0134942
0.166412
0.0118241
0.173068
0.0101227
0.180612
0.00840336