/*--------------------------------*- C++ -*----------------------------------*\
  =========                 |
  \\      /  F ield         | OpenFOAM: The Open Source CFD Toolbox
   \\    /   O peration     | Website:  https://openfoam.org
    \\  /    A nd           | Version:  6.0
     \\/     M anipulation  |
\*---------------------------------------------------------------------------*/
FoamFile
{
    version     2.0;
    format      ascii;
    class       volVectorField;
    location    "3.5";
    object      U;
}
// * * * * * * * * * * * * * * * * * * * * * * * * * * * * * * * * * * * * * //

dimensions      [0 1 -1 0 0 0 0];

internalField   nonuniform List<vector> 
19200
(
(0.816533 -19.4743 -7.84939e-20)
(0.220816 -18.651 3.76127e-20)
(0.206337 -17.8792 1.6988e-20)
(0.238531 -17.1507 1.46973e-20)
(0.234278 -16.4617 1.56921e-20)
(0.229263 -15.8038 9.79857e-22)
(0.22681 -15.1721 2.11496e-20)
(0.22425 -14.564 -1.34274e-21)
(0.221278 -13.9782 1.73926e-20)
(0.218032 -13.4138 7.03006e-21)
(0.214546 -12.8703 3.01748e-22)
(0.210854 -12.3474 1.05282e-20)
(0.207012 -11.8446 1.61996e-20)
(0.203073 -11.3615 -1.06419e-20)
(0.199084 -10.8976 1.31391e-20)
(0.195086 -10.4523 1.06863e-20)
(0.19111 -10.0251 -9.90064e-21)
(0.187184 -9.6154 1.61186e-20)
(0.18333 -9.22258 -1.00472e-20)
(0.17957 -8.8461 4.93097e-21)
(0.175928 -8.48535 6.52547e-21)
(0.172426 -8.13973 -2.02498e-21)
(0.169088 -7.80861 2.7107e-21)
(0.165939 -7.49135 -2.97959e-21)
(0.162994 -7.18728 -1.27881e-22)
(0.160253 -6.8957 1.39976e-21)
(0.157687 -6.61589 -9.60755e-22)
(0.155419 -6.34713 5.79677e-22)
(0.153851 -6.08877 1.27921e-21)
(0.151758 -5.84028 4.67495e-21)
(1.32475 -19.4447 -1.69717e-20)
(0.709889 -18.6404 1.1333e-19)
(0.675459 -17.8714 -5.952e-20)
(0.688432 -17.1437 -7.77667e-20)
(0.666094 -16.4557 -3.3502e-20)
(0.643853 -15.7985 -2.32087e-20)
(0.624855 -15.1671 -4.91008e-20)
(0.606362 -14.5591 6.53409e-21)
(0.58804 -13.9732 -1.03413e-20)
(0.570008 -13.4088 -3.42469e-20)
(0.552289 -12.8652 -7.95232e-20)
(0.534909 -12.3423 3.73138e-20)
(0.517913 -11.8395 -1.36164e-20)
(0.501343 -11.3564 5.12648e-21)
(0.485233 -10.8926 -2.86721e-20)
(0.469608 -10.4473 -9.90187e-21)
(0.454484 -10.0202 1.25166e-21)
(0.439872 -9.6106 3.166e-20)
(0.425779 -9.21791 -1.69679e-20)
(0.41221 -8.84158 -9.15386e-21)
(0.399173 -8.48101 -3.29537e-20)
(0.386675 -8.13559 8.30206e-21)
(0.374725 -7.8047 -4.9015e-21)
(0.363331 -7.4877 8.36344e-21)
(0.352493 -7.18393 -3.64838e-21)
(0.34219 -6.89266 -5.53132e-21)
(0.332376 -6.61316 1.86764e-21)
(0.323185 -6.34469 2.60472e-21)
(0.315068 -6.08653 -4.70526e-21)
(0.306591 -5.83815 2.04027e-21)
(1.83332 -19.4029 -7.86752e-21)
(1.19829 -18.617 2.37426e-20)
(1.14402 -17.8513 3.81597e-20)
(1.13798 -17.1247 2.68592e-19)
(1.09765 -16.4383 -1.49284e-19)
(1.05825 -15.7822 1.36189e-19)
(1.02274 -15.1515 8.13996e-20)
(0.988329 -14.544 5.9841e-20)
(0.954663 -13.9585 -5.4281e-20)
(0.921845 -13.3944 -3.69498e-21)
(0.889891 -12.8512 1.28569e-19)
(0.858821 -12.3286 1.97961e-20)
(0.82867 -11.8261 -5.52513e-20)
(0.799469 -11.3434 4.29143e-20)
(0.771239 -10.8799 5.46701e-22)
(0.74399 -10.4351 1.68183e-20)
(0.717722 -10.0084 1.17066e-20)
(0.69243 -9.59917 3.69204e-20)
(0.668104 -9.20688 -1.65958e-20)
(0.644733 -8.83096 -5.45402e-21)
(0.62231 -8.47082 -1.26582e-20)
(0.600825 -8.12584 5.40029e-20)
(0.580274 -7.79543 -4.41118e-20)
(0.560647 -7.47892 1.42231e-20)
(0.541931 -7.17565 5.70045e-21)
(0.524085 -6.88492 -2.40046e-20)
(0.50704 -6.60595 3.12539e-20)
(0.49094 -6.33798 -3.43997e-21)
(0.476285 -6.08023 -3.37193e-21)
(0.461412 -5.83218 -2.12999e-20)
(2.33989 -19.3483 -2.7688e-19)
(1.68528 -18.5811 -2.39529e-19)
(1.61155 -17.8189 -2.82908e-19)
(1.58677 -17.094 1.15826e-20)
(1.52864 -16.4097 1.76346e-20)
(1.47214 -15.7551 -2.92528e-19)
(1.42017 -15.1256 1.47483e-20)
(1.36988 -14.519 3.53958e-20)
(1.32089 -13.9343 -6.9345e-21)
(1.27329 -13.3709 5.54051e-20)
(1.22711 -12.8284 -2.17231e-19)
(1.18236 -12.3064 -1.2691e-19)
(1.13906 -11.8047 4.88328e-20)
(1.09724 -11.3227 8.76522e-20)
(1.0569 -10.8599 -1.01537e-19)
(1.01804 -10.4158 -1.52101e-20)
(0.980641 -9.98973 -5.54054e-20)
(0.944682 -9.5812 -2.49642e-20)
(0.910136 -9.18959 4.0097e-20)
(0.876978 -8.81434 -5.01661e-20)
(0.845183 -8.45487 4.15546e-20)
(0.814728 -8.11058 -4.90383e-20)
(0.785592 -7.78086 -3.65448e-20)
(0.757751 -7.46506 -2.49135e-20)
(0.73118 -7.16253 -7.6861e-21)
(0.70581 -6.87251 -4.8538e-20)
(0.681562 -6.59429 4.99164e-21)
(0.658577 -6.32703 8.01947e-21)
(0.637401 -6.06991 -2.23998e-20)
(0.616131 -5.8224 5.21616e-21)
(2.84499 -19.2808 -1.6403e-19)
(2.17114 -18.5328 2.29663e-20)
(2.07801 -17.7745 1.98704e-19)
(2.03461 -17.0517 1.99384e-19)
(1.95878 -16.3698 1.38404e-19)
(1.88527 -15.7172 5.55413e-20)
(1.81689 -15.0892 8.36089e-20)
(1.75074 -14.4839 3.63148e-19)
(1.68645 -13.9004 -2.16178e-19)
(1.6241 -13.3381 7.12884e-21)
(1.56371 -12.7967 4.98709e-20)
(1.5053 -12.2758 1.96651e-19)
(1.44887 -11.7751 -1.30602e-19)
(1.39445 -11.2941 8.98885e-20)
(1.34202 -10.8324 -9.50266e-20)
(1.29156 -10.3893 1.58658e-19)
(1.24305 -9.96422 -4.61994e-20)
(1.19645 -9.55666 1.72237e-21)
(1.1517 -9.16601 6.69908e-20)
(1.10878 -8.79169 4.42373e-20)
(1.06763 -8.43314 -4.51888e-20)
(1.02823 -8.08977 5.83846e-20)
(0.990536 -7.76098 -2.51252e-20)
(0.954507 -7.44612 2.88285e-20)
(0.920099 -7.14452 3.64299e-20)
(0.887239 -6.85547 1.21633e-20)
(0.855814 -6.57818 3.67955e-20)
(0.82598 -6.31184 -1.46125e-20)
(0.798307 -6.05554 -5.15206e-21)
(0.770647 -5.8088 -2.02779e-20)
(3.3481 -19.2003 -1.17691e-19)
(2.65548 -18.4721 -7.62541e-20)
(2.54309 -17.7181 -2.21521e-19)
(2.48119 -16.9978 -5.52055e-19)
(2.38778 -16.3188 1.87464e-19)
(2.29736 -15.6686 1.10654e-20)
(2.21261 -15.0425 -1.15757e-19)
(2.13066 -14.439 1.91651e-20)
(2.05109 -13.857 -1.82806e-20)
(1.97402 -13.2962 -2.60577e-19)
(1.89945 -12.7562 1.10254e-19)
(1.8274 -12.2368 1.77721e-19)
(1.75787 -11.7375 1.25356e-21)
(1.69087 -11.2579 6.12667e-20)
(1.62638 -10.7974 1.43193e-19)
(1.56437 -10.3557 -9.5702e-20)
(1.50477 -9.93191 1.62351e-19)
(1.44755 -9.5256 -7.44763e-20)
(1.39263 -9.13617 1.26788e-19)
(1.33997 -8.76304 -9.30187e-20)
(1.28951 -8.40565 4.01847e-20)
(1.24119 -8.06344 9.83249e-20)
(1.19496 -7.73581 2.70387e-21)
(1.15077 -7.4221 -8.68133e-20)
(1.10856 -7.12166 4.7296e-20)
(1.06824 -6.83376 5.00601e-21)
(1.02968 -6.55764 -1.36776e-20)
(0.993031 -6.29241 5.09331e-20)
(0.958898 -6.03715 1.6511e-20)
(0.924864 -5.7914 -1.72463e-20)
(3.84897 -19.1069 3.24721e-19)
(3.13812 -18.3989 -1.70436e-20)
(3.00659 -17.6497 -4.46672e-19)
(2.92628 -16.9324 9.07509e-20)
(2.8154 -16.2566 -1.15231e-19)
(2.70813 -15.6092 9.03958e-20)
(2.60708 -14.9855 1.8147e-19)
(2.50936 -14.384 3.1136e-19)
(2.41457 -13.8041 -3.23332e-19)
(2.32281 -13.2451 7.97217e-20)
(2.2341 -12.707 -4.88038e-20)
(2.14844 -12.1893 3.51423e-20)
(2.06585 -11.6917 -1.57445e-19)
(1.98631 -11.2138 -7.81649e-21)
(1.9098 -10.7551 2.30605e-19)
(1.83625 -10.315 -1.58767e-19)
(1.76561 -9.89279 -9.45871e-20)
(1.69781 -9.48802 -6.35549e-20)
(1.63276 -9.10008 1.16679e-19)
(1.57039 -8.7284 2.3055e-20)
(1.51064 -8.37243 -1.05651e-19)
(1.45343 -8.03161 1.34612e-19)
(1.39871 -7.70535 -1.19375e-19)
(1.3464 -7.39302 7.49104e-20)
(1.29644 -7.09395 -4.21142e-20)
(1.2487 -6.80741 2.54781e-20)
(1.20304 -6.53265 1.76686e-20)
(1.15962 -6.26876 -8.10179e-20)
(1.11907 -6.01473 3.39821e-20)
(1.07868 -5.77019 3.99272e-22)
(4.34724 -19.0005 -3.1526e-19)
(3.61873 -18.3133 2.57847e-19)
(3.46822 -17.5693 -4.42571e-19)
(3.3696 -16.8555 8.37787e-19)
(3.24134 -16.1834 -2.28554e-19)
(3.11731 -15.5392 3.0556e-19)
(3.00003 -14.9182 -1.02594e-20)
(2.8866 -14.3192 -4.53133e-20)
(2.77663 -13.7416 -5.48454e-20)
(2.67023 -13.1849 1.68074e-21)
(2.56741 -12.649 -1.99201e-19)
(2.4682 -12.1334 1.04779e-19)
(2.37259 -11.6379 -1.16529e-19)
(2.28056 -11.1621 -1.00974e-20)
(2.19206 -10.7054 -3.05147e-19)
(2.10703 -10.2672 1.00469e-19)
(2.02539 -9.84689 5.23991e-20)
(1.94704 -9.44395 -6.03277e-20)
(1.8719 -9.05777 -7.31178e-21)
(1.79987 -8.6878 -8.47985e-20)
(1.73087 -8.33349 -2.90469e-20)
(1.66483 -7.99429 1.25764e-21)
(1.60165 -7.66963 -6.65889e-20)
(1.54126 -7.3589 -9.36423e-20)
(1.48358 -7.06141 4.69527e-21)
(1.42848 -6.77646 -1.02768e-20)
(1.37576 -6.50325 2.65036e-20)
(1.32563 -6.2409 -6.31844e-20)
(1.2787 -5.98831 5.21232e-20)
(1.23201 -5.74519 -9.67943e-20)
(4.84261 -18.8813 -7.80543e-19)
(4.09702 -18.2153 9.10937e-19)
(3.92769 -17.4771 -9.26906e-19)
(3.81087 -16.7671 -2.38434e-19)
(3.66535 -16.0991 -1.43556e-19)
(3.52464 -15.4585 -1.52945e-19)
(3.3912 -14.8406 -1.39275e-19)
(3.26212 -14.2446 -3.34428e-20)
(3.13702 -13.6697 -1.35738e-19)
(3.01603 -13.1157 -2.49257e-20)
(2.89916 -12.5822 2.00514e-19)
(2.78645 -12.0692 -1.21883e-19)
(2.67787 -11.5762 -1.31753e-19)
(2.57339 -11.1027 -2.08002e-19)
(2.47297 -10.6483 4.28774e-19)
(2.37651 -10.2124 -1.58972e-19)
(2.28392 -9.79426 5.74429e-20)
(2.19508 -9.39342 -2.0332e-19)
(2.10989 -9.00928 7.85571e-20)
(2.02825 -8.64127 -2.89843e-20)
(1.95006 -8.28886 3.84837e-20)
(1.87521 -7.95151 -1.14059e-20)
(1.80363 -7.62868 1.05702e-19)
(1.73521 -7.31975 -3.64034e-20)
(1.66987 -7.02406 9.63051e-20)
(1.60744 -6.74089 -1.52395e-20)
(1.54774 -6.46946 1.19423e-19)
(1.49094 -6.20882 2.97033e-20)
(1.4377 -5.95788 5.41858e-20)
(1.38473 -5.71641 -1.6929e-19)
(5.33473 -18.7492 1.23339e-18)
(4.57267 -18.1049 -2.39059e-19)
(4.38471 -17.373 3.92582e-19)
(4.24981 -16.6673 -1.07019e-19)
(4.08714 -16.0038 3.74916e-19)
(3.92985 -15.3672 3.37802e-19)
(3.78032 -14.7529 3.67966e-19)
(3.63566 -14.1602 -2.63255e-20)
(3.49549 -13.5884 -3.26767e-19)
(3.35997 -13.0374 4.76818e-19)
(3.22912 -12.5068 -2.79549e-20)
(3.10296 -11.9966 3.12627e-19)
(2.98147 -11.5064 1.08405e-19)
(2.86462 -11.0357 4.12517e-20)
(2.75233 -10.5839 5.93348e-20)
(2.6445 -10.1505 8.06901e-20)
(2.54101 -9.73491 1.25798e-19)
(2.44174 -9.33647 -3.33168e-20)
(2.34657 -8.95462 1.71969e-19)
(2.25537 -8.58883 7.37679e-20)
(2.16803 -8.23857 -1.51885e-19)
(2.08444 -7.90331 2.59198e-19)
(2.0045 -7.58252 -3.30939e-19)
(1.92811 -7.27561 3.02151e-19)
(1.85515 -6.98192 -9.74222e-20)
(1.78546 -6.70074 1.9708e-20)
(1.71883 -6.43129 -1.17959e-19)
(1.65543 -6.17257 6.57319e-20)
(1.59594 -5.92347 2.19237e-20)
(1.53676 -5.68387 -2.60178e-20)
(5.82327 -18.6044 -6.99095e-19)
(5.04537 -17.9823 6.44369e-19)
(4.83899 -17.2571 -1.73061e-19)
(4.68614 -16.5562 4.80798e-19)
(4.50644 -15.8976 4.7304e-20)
(4.33267 -15.2654 8.53794e-20)
(4.16713 -14.655 -7.50012e-19)
(4.00696 -14.066 -1.26787e-19)
(3.8518 -13.4977 4.47634e-19)
(3.70182 -12.95 3.17622e-19)
(3.55705 -12.4228 -5.33231e-19)
(3.41751 -11.9158 2.98927e-19)
(3.28319 -11.4287 -2.92108e-19)
(3.15403 -10.9611 1.87925e-19)
(3.02994 -10.5123 -3.09176e-19)
(2.91081 -10.0817 -2.16555e-19)
(2.79649 -9.6689 1.84239e-20)
(2.68686 -9.27312 -8.92179e-20)
(2.58175 -8.89385 1.63709e-19)
(2.48105 -8.53053 6.18919e-20)
(2.38462 -8.18266 -4.0701e-20)
(2.29235 -7.84971 -1.14483e-20)
(2.20412 -7.53119 4.09375e-20)
(2.11981 -7.2265 -1.39695e-19)
(2.0393 -6.93502 2.2159e-19)
(1.96241 -6.65604 -5.50526e-20)
(1.88891 -6.38875 -2.37011e-21)
(1.819 -6.13219 1.73988e-19)
(1.75332 -5.8851 2.00057e-20)
(1.68799 -5.64759 -2.43844e-20)
(6.30791 -18.447 2.57815e-20)
(5.51481 -17.8475 -3.77511e-19)
(5.29023 -17.1295 -3.27552e-19)
(5.11958 -16.4338 -5.23194e-19)
(4.92297 -15.7805 1.78742e-20)
(4.73282 -15.1531 -3.40751e-19)
(4.55137 -14.5471 4.05115e-19)
(4.37577 -13.9621 -4.08241e-20)
(4.2057 -13.3977 2.88251e-19)
(4.04133 -12.8538 -2.48933e-19)
(3.88272 -12.3302 -1.19693e-19)
(3.72989 -11.8268 6.30803e-20)
(3.5828 -11.3432 3.26649e-20)
(3.44141 -10.8789 -3.12082e-19)
(3.3056 -10.4334 1.817e-19)
(3.17524 -10.006 -8.17481e-20)
(3.05017 -9.59625 2.35058e-19)
(2.93024 -9.20343 -7.35902e-20)
(2.81528 -8.827 7.5302e-20)
(2.70515 -8.46641 1.74726e-20)
(2.5997 -8.12116 1.16882e-19)
(2.4988 -7.79076 -2.47379e-20)
(2.40233 -7.47471 1.78838e-19)
(2.31017 -7.17246 -1.97353e-19)
(2.22218 -6.88339 -6.31944e-20)
(2.13815 -6.6068 4.98373e-20)
(2.05786 -6.34189 -5.9147e-21)
(1.9815 -6.08767 -8.07333e-20)
(1.90972 -5.84281 6.35895e-20)
(1.83832 -5.60759 -7.23902e-20)
(6.78831 -18.277 1.16602e-18)
(5.98067 -17.7005 3.05001e-19)
(5.73813 -16.9902 3.52897e-19)
(5.54983 -16.3001 4.51382e-19)
(5.33646 -15.6526 6.58297e-19)
(5.13005 -15.0304 -1.96332e-20)
(4.93277 -14.4291 9.64409e-20)
(4.74183 -13.8485 6.58467e-19)
(4.55694 -13.2884 -1.38192e-19)
(4.37828 -12.7487 -2.25872e-19)
(4.20591 -12.2291 3.84005e-19)
(4.03986 -11.7296 5.78889e-20)
(3.8801 -11.2498 4.12416e-21)
(3.72656 -10.7892 8.63603e-20)
(3.57912 -10.3473 1.42147e-19)
(3.43761 -9.92345 -2.78138e-19)
(3.30187 -9.51703 2.33017e-19)
(3.17172 -9.12744 3.69022e-20)
(3.04697 -8.75411 2.06189e-19)
(2.92748 -8.3965 -1.11791e-19)
(2.81308 -8.05412 1.72455e-19)
(2.70363 -7.7265 -1.78184e-19)
(2.59899 -7.41314 1.66287e-19)
(2.49905 -7.11353 1.90682e-20)
(2.40364 -6.82706 -1.06278e-19)
(2.31256 -6.55306 -3.09152e-20)
(2.22556 -6.29074 1.84997e-19)
(2.14283 -6.03903 1.31819e-19)
(2.06503 -5.79662 3.35596e-20)
(1.98764 -5.5639 -2.10285e-20)
(7.26415 -18.0945 1.15428e-19)
(6.44265 -17.5415 2.52588e-19)
(6.18239 -16.8394 9.96632e-19)
(5.97661 -16.1553 -1.61016e-18)
(5.74663 -15.514 -1.47185e-19)
(5.52407 -14.8973 -1.63567e-19)
(5.31108 -14.3011 7.34639e-20)
(5.1049 -13.7254 8.77486e-20)
(4.90528 -13.17 1.38984e-19)
(4.71241 -12.6347 -3.66444e-19)
(4.52639 -12.1196 -5.95055e-20)
(4.34722 -11.6243 1.93403e-19)
(4.17488 -11.1487 1.92404e-19)
(4.00928 -10.6921 -1.95027e-19)
(3.85029 -10.2541 -1.74999e-19)
(3.69772 -9.83404 2.93882e-19)
(3.5514 -9.43127 1.77909e-19)
(3.41111 -9.04519 -5.00669e-20)
(3.27667 -8.67523 -1.08016e-19)
(3.14789 -8.32086 1.7169e-20)
(3.02462 -7.9816 -2.25333e-19)
(2.90669 -7.65697 2.63624e-19)
(2.79396 -7.34652 -1.75018e-19)
(2.6863 -7.04975 -4.99854e-21)
(2.58355 -6.76609 1.07489e-19)
(2.4855 -6.49487 -3.21591e-20)
(2.39186 -6.23531 -9.1972e-20)
(2.30286 -5.98634 1.12877e-19)
(2.21913 -5.74656 -3.33313e-21)
(2.13584 -5.51656 1.64361e-20)
(7.7351 -17.8997 -9.18109e-20)
(6.90044 -17.3705 -2.7228e-19)
(6.62273 -16.677 -1.14585e-18)
(6.39963 -15.9994 4.14115e-19)
(6.1532 -15.3646 -1.1438e-19)
(5.91462 -14.7539 3.82825e-19)
(5.68603 -14.1633 2.79806e-20)
(5.46473 -13.5928 -3.94645e-19)
(5.25047 -13.0424 5.82826e-19)
(5.04351 -12.512 -5.12828e-19)
(4.84392 -12.0016 -1.40842e-20)
(4.65173 -11.511 1.1391e-19)
(4.46692 -11.0398 -1.91738e-19)
(4.28936 -10.5876 2.05357e-19)
(4.11892 -10.1539 -3.84682e-19)
(3.9554 -9.73787 -7.68095e-20)
(3.79858 -9.33904 2.21631e-19)
(3.64825 -8.95675 3.47731e-21)
(3.50419 -8.59042 -1.20451e-19)
(3.36622 -8.23954 3.2815e-19)
(3.23415 -7.90362 -1.76378e-19)
(3.10782 -7.58222 -2.21114e-19)
(2.98708 -7.2749 7.04286e-20)
(2.87178 -6.98117 -1.96617e-19)
(2.76177 -6.7005 -4.31611e-20)
(2.65682 -6.43225 -3.61393e-21)
(2.55664 -6.17566 -1.11934e-19)
(2.46146 -5.92961 1.35216e-19)
(2.3719 -5.69265 -7.11726e-20)
(2.28283 -5.46563 7.60408e-20)
(8.20084 -17.6927 -4.14831e-19)
(7.35372 -17.1877 -1.0827e-18)
(7.05884 -16.5032 4.90394e-19)
(6.81862 -15.8326 -4.53696e-19)
(6.55589 -15.2047 -3.18308e-19)
(6.30144 -14.6004 -1.71199e-19)
(6.05737 -14.0156 -6.30686e-19)
(5.82105 -13.4507 4.20038e-19)
(5.59228 -12.9058 -9.92868e-19)
(5.37133 -12.3806 -3.33564e-19)
(5.15829 -11.8753 1.31794e-19)
(4.9532 -11.3897 1.97094e-19)
(4.75601 -10.9233 -9.03955e-21)
(4.5666 -10.4758 -3.46222e-19)
(4.38482 -10.0466 7.95235e-20)
(4.21044 -9.63499 -2.84815e-19)
(4.04323 -9.24039 -1.93673e-19)
(3.88295 -8.86216 -1.07081e-19)
(3.72938 -8.49973 -1.4076e-20)
(3.5823 -8.15259 1.87771e-19)
(3.44152 -7.82026 2.51503e-19)
(3.30687 -7.50231 -7.24506e-20)
(3.17819 -7.19832 -6.46408e-20)
(3.05534 -6.90784 1.25598e-19)
(2.93816 -6.63036 6.63839e-20)
(2.8264 -6.36527 -5.2418e-20)
(2.71977 -6.11182 -5.46508e-20)
(2.61851 -5.86888 7.34611e-21)
(2.52324 -5.63496 5.27971e-20)
(2.42848 -5.4111 6.69046e-20)
(8.66107 -17.4736 -6.56372e-20)
(7.8022 -16.9931 1.34638e-18)
(7.49045 -16.3182 9.8449e-19)
(7.2333 -15.6548 7.35001e-19)
(6.95444 -15.0343 -4.72229e-19)
(6.68425 -14.4367 -9.17816e-20)
(6.42484 -13.8582 8.76464e-20)
(6.17362 -13.2993 5.26381e-19)
(5.93046 -12.7601 1.89117e-19)
(5.69564 -12.2406 4.42593e-19)
(5.46927 -11.7408 -5.93741e-19)
(5.25139 -11.2605 6.49112e-20)
(5.04194 -10.7993 2.26613e-19)
(4.84081 -10.3568 1.2931e-19)
(4.64779 -9.93239 2.53088e-19)
(4.46267 -9.52547 -1.78874e-19)
(4.28517 -9.13537 -1.51244e-19)
(4.11505 -8.76148 3.39049e-20)
(3.95205 -8.40322 3.00899e-19)
(3.79596 -8.06007 -4.72053e-19)
(3.64656 -7.73156 1.62861e-19)
(3.50368 -7.41729 -1.09143e-23)
(3.36715 -7.11685 2.74891e-19)
(3.23683 -6.82982 -1.19534e-19)
(3.11255 -6.55572 -8.23802e-21)
(2.99408 -6.29396 -6.81141e-20)
(2.8811 -6.04385 6.3649e-20)
(2.77387 -5.80421 1.51162e-20)
(2.67298 -5.5735 -6.19615e-20)
(2.57267 -5.35302 1.98734e-19)
(9.11545 -17.2425 -1.45398e-18)
(8.24558 -16.787 -8.10955e-19)
(7.91727 -16.122 -1.98841e-18)
(7.64339 -15.4663 -8.51299e-19)
(7.34857 -14.8535 7.82746e-19)
(7.0628 -14.263 -4.31112e-19)
(6.78818 -13.6912 -8.96477e-20)
(6.5222 -13.1387 -2.60837e-19)
(6.26478 -12.6056 4.40075e-19)
(6.01621 -12.0921 -9.50838e-20)
(5.77663 -11.5981 -1.47214e-19)
(5.54609 -11.1234 -1.71407e-20)
(5.32452 -10.6677 -5.30383e-19)
(5.11177 -10.2306 -6.05707e-21)
(4.90765 -9.81131 1.43e-19)
(4.71189 -9.40937 -1.31404e-20)
(4.52422 -9.02406 -4.7303e-19)
(4.34436 -8.65478 4.46664e-19)
(4.17205 -8.30094 -4.18689e-19)
(4.00704 -7.96203 1.59651e-19)
(3.84911 -7.63759 2.18782e-20)
(3.69809 -7.32722 8.56259e-21)
(3.5538 -7.03054 -1.49348e-19)
(3.41609 -6.74717 4.6434e-20)
(3.28481 -6.47663 -7.61388e-22)
(3.1597 -6.21841 1.34329e-20)
(3.04048 -5.9718 -3.15366e-19)
(2.92738 -5.73564 8.93876e-20)
(2.821 -5.50833 8.90741e-20)
(2.71528 -5.29146 8.64019e-20)
(9.5637 -16.9997 2.80295e-18)
(8.68358 -16.5694 8.87888e-19)
(8.33903 -15.9147 5.02697e-19)
(8.04861 -15.2671 7.87641e-19)
(7.73801 -14.6623 -9.06744e-20)
(7.43683 -14.0793 5.39347e-19)
(7.14714 -13.5146 1.14966e-18)
(6.86654 -12.9688 -1.51858e-19)
(6.59499 -12.4423 5.70029e-20)
(6.33281 -11.9352 1.19018e-18)
(6.08017 -11.4473 -1.63933e-19)
(5.8371 -10.9786 1.51674e-19)
(5.60352 -10.5287 -4.74282e-20)
(5.3793 -10.0972 1.00385e-20)
(5.16419 -9.68343 7.10387e-19)
(4.95792 -9.28675 2.74508e-20)
(4.7602 -8.90652 6.90637e-19)
(4.57072 -8.54212 -9.29054e-20)
(4.38919 -8.19296 -1.36649e-19)
(4.21537 -7.85853 3.12193e-19)
(4.04902 -7.5384 -2.70721e-19)
(3.88994 -7.23215 2.92012e-19)
(3.73798 -6.93945 1.49799e-19)
(3.59297 -6.65993 -1.13936e-19)
(3.45477 -6.39316 1.72577e-19)
(3.32313 -6.13865 1.99583e-20)
(3.19775 -5.89574 -6.1683e-20)
(3.07891 -5.66324 4.00523e-20)
(2.96716 -5.43953 2.21752e-19)
(2.85618 -5.22648 3.11414e-20)
(10.0055 -16.7452 -4.83129e-19)
(9.1159 -16.3405 -9.07724e-19)
(8.75545 -15.6964 3.48093e-19)
(8.4487 -15.0573 -1.39682e-18)
(8.12251 -14.461 6.27772e-19)
(7.80607 -13.8859 -1.11375e-18)
(7.50147 -13.3285 -6.86191e-19)
(7.2064 -12.7899 1.90365e-19)
(6.92087 -12.2703 1.56299e-19)
(6.64523 -11.7698 -8.41294e-19)
(6.37966 -11.2885 -3.42617e-19)
(6.1242 -10.8261 1.42803e-19)
(5.87877 -10.3824 -4.05909e-19)
(5.6432 -9.95684 -1.5222e-19)
(5.41723 -9.54882 -9.65063e-20)
(5.20058 -9.15769 -9.51488e-20)
(4.99293 -8.78281 -3.7534e-19)
(4.79394 -8.42355 -2.1968e-19)
(4.60332 -8.07933 4.68067e-20)
(4.42079 -7.74964 6.98918e-20)
(4.24611 -7.43404 6.5729e-20)
(4.07907 -7.13215 -2.35306e-19)
(3.91952 -6.84364 8.30656e-20)
(3.76731 -6.56817 -1.68777e-19)
(3.62228 -6.30535 1.48315e-19)
(3.4842 -6.05474 -1.95766e-19)
(3.35277 -5.81571 5.4582e-20)
(3.22828 -5.58706 -9.22322e-20)
(3.1113 -5.36714 -1.21458e-19)
(2.99522 -5.15814 -1.14219e-20)
(10.4406 -16.4793 -1.00736e-18)
(9.5423 -16.1004 -8.14967e-19)
(9.16626 -15.4674 -7.55597e-19)
(8.8434 -14.8371 -5.14856e-19)
(8.5018 -14.2496 1.59729e-18)
(8.17027 -13.6827 2.03791e-19)
(7.85092 -13.1331 6.27831e-19)
(7.54154 -12.602 9.15532e-19)
(7.24217 -12.0897 4.10863e-19)
(6.95323 -11.5963 -5.50875e-19)
(6.67489 -11.1218 8.12452e-19)
(6.40718 -10.6661 -7.79581e-19)
(6.15004 -10.2288 6.98078e-19)
(5.90327 -9.80952 7.34525e-20)
(5.66659 -9.40754 1.64016e-19)
(5.4397 -9.02226 5.49414e-20)
(5.22223 -8.653 6.0946e-19)
(5.01386 -8.29915 -9.01318e-20)
(4.81426 -7.96013 7.42802e-20)
(4.62313 -7.63542 2.39477e-19)
(4.44022 -7.32458 -2.62381e-19)
(4.26533 -7.02727 1.96673e-19)
(4.09828 -6.74316 4.41942e-21)
(3.93894 -6.47194 8.22902e-20)
(3.78717 -6.21328 1.43659e-19)
(3.64273 -5.96676 -2.50344e-20)
(3.50535 -5.73179 1.33415e-19)
(3.37534 -5.50717 1.81442e-19)
(3.25326 -5.29124 -1.98444e-19)
(3.13223 -5.0865 -1.07476e-19)
(10.8687 -16.2021 2.88687e-18)
(9.9625 -15.8493 -3.05612e-19)
(9.57122 -15.2277 5.89933e-19)
(9.23244 -14.6066 1.02764e-18)
(8.87562 -14.0282 -2.84334e-18)
(8.52918 -13.4699 2.94476e-19)
(8.19525 -12.9285 -9.88349e-19)
(7.87172 -12.4053 9.32917e-19)
(7.55869 -11.9006 -7.29259e-19)
(7.25659 -11.4146 3.53015e-19)
(6.96563 -10.9473 -1.29399e-18)
(6.68585 -10.4986 5.95164e-20)
(6.41715 -10.0681 -3.72746e-19)
(6.15933 -9.65534 5.67322e-19)
(5.91208 -9.2597 -5.81262e-19)
(5.67508 -8.88053 -3.09678e-20)
(5.44794 -8.51716 -4.26588e-19)
(5.23031 -8.16898 -2.88704e-20)
(5.02184 -7.8354 2.76428e-20)
(4.82222 -7.51591 7.86724e-20)
(4.63119 -7.21008 -4.54678e-19)
(4.44853 -6.91756 -1.09899e-20)
(4.27407 -6.63806 -2.34542e-19)
(4.10769 -6.37131 -5.35037e-20)
(3.94926 -6.11699 -1.32144e-19)
(3.79855 -5.87474 -1.37748e-19)
(3.65532 -5.64403 -1.3484e-19)
(3.5199 -5.42364 2.27531e-19)
(3.39284 -5.21188 5.79473e-20)
(3.26706 -5.01163 -1.02366e-19)
(11.2896 -15.9137 -1.92115e-18)
(10.3763 -15.5875 6.62366e-19)
(9.97006 -14.9775 -1.06553e-18)
(9.61558 -14.3658 1.56111e-19)
(9.24372 -13.7969 1.58477e-18)
(8.88256 -13.2476 -7.86892e-19)
(8.53422 -12.7148 -7.64536e-19)
(8.1967 -12.1998 -6.42478e-19)
(7.87017 -11.7031 3.72084e-20)
(7.5551 -11.2248 3.87703e-19)
(7.2517 -10.7651 -2.58732e-19)
(6.96 -10.3237 2.48344e-20)
(6.67991 -9.90028 7.34433e-19)
(6.41119 -9.49438 -3.64514e-19)
(6.15353 -9.10536 8.19151e-20)
(5.90656 -8.73257 -2.65712e-19)
(5.66989 -8.37537 1.00644e-19)
(5.44313 -8.0331 2.07546e-19)
(5.22591 -7.7052 2.13772e-19)
(5.01791 -7.39117 -2.3231e-19)
(4.81886 -7.09057 3.64083e-20)
(4.62852 -6.80307 1.81572e-19)
(4.44674 -6.5284 3.00571e-19)
(4.27339 -6.26631 7.03149e-20)
(4.10836 -6.01653 -2.89998e-19)
(3.95147 -5.77876 3.23118e-19)
(3.80248 -5.55249 -1.60133e-19)
(3.66174 -5.33652 -1.80984e-19)
(3.52985 -5.12915 -1.07197e-19)
(3.39949 -4.93361 -1.30865e-19)
(11.703 -15.6145 9.96517e-19)
(10.7834 -15.3149 -7.45381e-19)
(10.3626 -14.7169 2.96547e-19)
(9.99255 -14.115 1.39111e-18)
(9.60585 -13.5559 3.59979e-19)
(9.23014 -13.016 -2.92636e-19)
(8.86757 -12.4921 6.97966e-19)
(8.51625 -11.9857 1.79784e-19)
(8.17641 -11.4973 5.97367e-19)
(7.84854 -11.0271 3.15453e-19)
(7.53287 -10.5753 1.78632e-20)
(7.22943 -10.1415 1.81678e-19)
(6.93812 -9.72548 -5.53406e-20)
(6.65867 -9.32673 9.18596e-20)
(6.39075 -8.94461 2.39778e-19)
(6.13397 -8.57848 -1.26236e-19)
(5.88791 -8.22768 2.98235e-19)
(5.65215 -7.89157 2.88917e-19)
(5.42631 -7.5696 -3.16825e-19)
(5.21004 -7.26125 3.20794e-19)
(5.00306 -6.96611 6.41803e-19)
(4.80514 -6.68384 -4.02886e-19)
(4.6161 -6.4142 3.84449e-19)
(4.43585 -6.15698 -2.66245e-19)
(4.2643 -5.91195 -3.46604e-20)
(4.10128 -5.67885 2.58683e-19)
(3.94659 -5.45723 -5.44391e-20)
(3.80065 -5.2459 1.80759e-19)
(3.66403 -5.04313 1.72228e-19)
(3.52929 -4.85258 -3.18699e-19)
(12.1089 -15.3044 -9.52436e-19)
(11.1837 -15.0318 4.40411e-19)
(10.7485 -14.4461 1.61683e-19)
(10.3631 -13.8542 -1.6055e-18)
(9.96176 -13.3053 -7.85324e-19)
(9.57169 -12.7751 5.6473e-19)
(9.19508 -12.2604 -1.50178e-18)
(8.83015 -11.763 1.73927e-18)
(8.47717 -11.2833 -9.44852e-19)
(8.13669 -10.8216 1.08895e-19)
(7.80894 -10.3779 -1.80078e-19)
(7.49395 -9.95213 -4.64818e-19)
(7.1916 -9.54382 9.3885e-19)
(6.9016 -9.15249 3.27851e-19)
(6.62359 -8.77754 -3.45247e-19)
(6.35716 -8.41832 9.49031e-21)
(6.10185 -8.07417 1.7141e-19)
(5.85723 -7.74447 -3.55968e-19)
(5.62289 -7.42864 7.60077e-20)
(5.39847 -7.12619 2.26959e-19)
(5.18366 -6.83672 -9.55018e-20)
(4.97822 -6.55989 1.40902e-19)
(4.782 -6.29549 -2.75497e-19)
(4.59489 -6.04333 3.80123e-19)
(4.41684 -5.80324 7.87213e-20)
(4.24773 -5.57503 -2.28289e-19)
(4.0874 -5.35828 -1.84207e-19)
(3.93631 -5.15181 6.43431e-21)
(3.79507 -4.9539 2.42865e-19)
(3.65608 -4.76867 -5.28507e-20)
(12.507 -14.9837 -2.54997e-19)
(11.5768 -14.7383 -1.69159e-18)
(11.1275 -14.165 1.98429e-18)
(10.727 -13.5836 1.28251e-18)
(10.3112 -13.0453 1.21221e-18)
(9.90695 -12.5251 3.05603e-19)
(9.5165 -12.0201 4.64915e-19)
(9.13815 -11.532 2.23829e-19)
(8.77224 -11.0614 -8.5898e-19)
(8.41935 -10.6084 1.53385e-18)
(8.07972 -10.1733 -1.15487e-18)
(7.75338 -9.75572 -6.00987e-20)
(7.44017 -9.35539 1.6668e-19)
(7.1398 -8.97177 -6.4914e-19)
(6.85189 -8.60425 5.58306e-19)
(6.57596 -8.25218 -1.66951e-19)
(6.31156 -7.91492 -3.94239e-19)
(6.05823 -7.59184 1.39666e-19)
(5.81552 -7.28238 -2.73322e-19)
(5.58305 -6.98604 -2.30173e-19)
(5.36051 -6.70243 -2.31772e-19)
(5.14764 -6.43123 5.13941e-20)
(4.94427 -6.17225 2.21729e-20)
(4.75033 -5.92533 -5.11057e-19)
(4.56578 -5.69037 -1.80355e-19)
(4.39056 -5.46724 1.21726e-19)
(4.22459 -5.2556 1.38861e-19)
(4.06836 -5.05425 -1.87825e-19)
(3.92249 -4.8615 -6.74318e-20)
(3.77935 -4.68179 4.83096e-21)
(12.8976 -14.6528 -2.49762e-19)
(11.9629 -14.4346 1.09675e-18)
(11.4994 -13.874 -3.08559e-19)
(11.084 -13.3032 -3.72382e-19)
(10.6539 -12.7758 -1.86713e-18)
(10.2357 -12.2661 -3.74851e-19)
(9.83156 -11.7711 7.17973e-19)
(9.44 -11.2927 -4.48318e-19)
(9.06138 -10.8315 -4.06421e-20)
(8.69629 -10.3877 -8.74975e-20)
(8.34499 -9.96137 4.32365e-19)
(8.00751 -9.55237 -6.70214e-19)
(7.68366 -9.16031 -4.24687e-19)
(7.37312 -8.78467 4.77731e-19)
(7.07548 -8.42483 -2.59348e-19)
(6.79024 -8.08016 -2.96536e-19)
(6.51692 -7.75 6.20442e-19)
(6.25502 -7.43375 -9.73558e-20)
(6.00407 -7.13085 3.29743e-19)
(5.76368 -6.84082 -2.99548e-19)
(5.5335 -6.56325 -2.26216e-19)
(5.31326 -6.29786 1.9265e-19)
(5.1028 -6.04446 -2.47179e-20)
(4.90203 -5.80295 -1.3247e-19)
(4.71097 -5.57329 1.12818e-19)
(4.52959 -5.35543 -3.32157e-19)
(4.35791 -5.14913 2.02337e-19)
(4.1965 -4.95321 -3.25057e-21)
(4.04599 -4.76588 -1.91426e-19)
(3.89885 -4.59175 2.70113e-19)
(13.2813 -14.3122 8.87228e-19)
(12.3419 -14.121 -2.17497e-18)
(11.864 -13.5729 -1.61918e-19)
(11.4337 -13.0132 9.19842e-19)
(10.9895 -12.497 -2.22937e-19)
(10.5575 -11.9981 -6.0303e-19)
(10.14 -11.5135 2.72385e-19)
(9.73544 -11.0452 2.96185e-19)
(9.34433 -10.5938 2.16291e-20)
(8.96728 -10.1595 3.36306e-19)
(8.60455 -9.74235 1.02354e-18)
(8.25614 -9.34221 -3.61929e-19)
(7.92187 -8.9587 7.91266e-20)
(7.60137 -8.5913 -2.05926e-19)
(7.29421 -8.23939 7.95895e-19)
(6.99985 -7.90234 -1.3513e-19)
(6.71779 -7.5795 4.3034e-19)
(6.44748 -7.27028 -1.58942e-19)
(6.18845 -6.97412 1.64731e-19)
(5.94025 -6.69055 2.38396e-19)
(5.70253 -6.41918 3.70367e-20)
(5.47499 -6.15973 1.47011e-19)
(5.25746 -5.91205 -1.15341e-19)
(5.04985 -5.67608 3.17262e-19)
(4.85221 -5.45186 -1.24933e-19)
(4.66459 -5.23949 4.37455e-19)
(4.48713 -5.03884 -1.26105e-19)
(4.32051 -4.84872 8.10351e-20)
(4.16544 -4.66728 -1.49279e-19)
(4.01467 -4.4996 2.60583e-19)
(13.6592 -13.9625 -1.99269e-18)
(12.7144 -13.797 7.85626e-20)
(12.2211 -13.2617 -1.02382e-18)
(11.7759 -12.7134 1.79523e-19)
(11.3179 -12.209 4.64323e-20)
(10.8723 -11.7215 -7.92513e-19)
(10.4415 -11.2477 -1.42938e-18)
(10.0243 -10.7899 6.8748e-19)
(9.62091 -10.3486 -9.50581e-19)
(9.23214 -9.92406 -4.70405e-19)
(8.85822 -9.5164 -2.53341e-19)
(8.49913 -9.12542 -1.88101e-19)
(8.15466 -8.75073 -1.90551e-21)
(7.82443 -8.39181 -6.49422e-19)
(7.50795 -8.04806 3.88838e-19)
(7.20469 -7.71884 -6.38151e-19)
(6.91406 -7.40353 -1.51993e-19)
(6.63553 -7.10151 1.60619e-19)
(6.36857 -6.81224 1.93949e-19)
(6.11271 -6.53527 1.82937e-19)
(5.86755 -6.27021 1.33655e-19)
(5.63277 -6.0168 -3.27652e-19)
(5.40816 -5.7749 3.17924e-19)
(5.19363 -5.5445 -3.45792e-20)
(4.98919 -5.32577 -8.01714e-20)
(4.79499 -5.11897 -3.02084e-19)
(4.61137 -4.92414 -1.52565e-19)
(4.43922 -4.74023 2.77336e-19)
(4.27917 -4.56602 -9.21141e-20)
(4.12449 -4.40831 -8.51926e-20)
(14.0305 -13.6015 8.87173e-19)
(13.0796 -13.4611 9.61382e-20)
(12.5705 -12.9398 -2.03785e-19)
(12.1102 -12.4042 -2.99295e-20)
(11.6386 -11.9122 -3.16709e-19)
(11.1798 -11.4365 1.07112e-18)
(10.7361 -10.9739 -4.84159e-19)
(10.3064 -10.5269 3.19068e-19)
(9.89103 -10.0961 1.32983e-19)
(9.4908 -9.68169 4.21184e-19)
(9.10593 -9.2838 -1.44278e-19)
(8.7364 -8.90223 8.26921e-19)
(8.38197 -8.53662 -6.77994e-20)
(8.04223 -8.18643 4.86208e-19)
(7.71666 -7.85106 -7.78706e-19)
(7.40469 -7.52987 -4.44308e-20)
(7.10572 -7.22225 4.70788e-19)
(6.81916 -6.92759 -2.77391e-19)
(6.54446 -6.64536 -1.88553e-19)
(6.28111 -6.37509 -3.10431e-19)
(6.02866 -6.1164 -2.52659e-19)
(5.78675 -5.86903 2.77657e-19)
(5.5551 -5.63284 -2.38913e-19)
(5.33352 -5.40786 5.55202e-20)
(5.12194 -5.19432 1.8522e-19)
(4.92045 -4.99263 1.21944e-19)
(4.72945 -4.803 1.09115e-19)
(4.54971 -4.62504 7.68618e-20)
(4.38096 -4.45995 -2.09329e-19)
(4.21896 -4.31545 -8.17337e-20)
(19.593 0.303196 1.08523e-20)
(19.5884 -0.213189 1.0149e-19)
(19.5708 -0.727548 3.52711e-19)
(19.5414 -1.24022 1.90093e-19)
(19.4997 -1.75134 -4.14648e-19)
(19.4449 -2.26079 1.2424e-19)
(19.377 -2.76834 -1.26377e-19)
(19.296 -3.27373 -3.24779e-19)
(19.2018 -3.77668 8.57777e-19)
(19.0946 -4.27691 -2.0511e-19)
(18.9744 -4.77407 -1.968e-19)
(18.8413 -5.26785 -4.33773e-19)
(18.6953 -5.75793 -1.25885e-18)
(18.5366 -6.24397 1.17693e-19)
(18.3652 -6.72567 -3.48778e-20)
(18.1814 -7.20268 -4.22484e-19)
(17.9852 -7.6747 8.53709e-19)
(17.7769 -8.14141 4.79833e-19)
(17.5564 -8.6025 8.90143e-19)
(17.324 -9.05765 4.28867e-19)
(17.0799 -9.50658 -1.02054e-18)
(16.8243 -9.94899 4.56755e-20)
(16.5572 -10.3846 -1.94209e-18)
(16.279 -10.8131 2.96011e-18)
(15.9898 -11.2343 -9.60516e-19)
(15.6899 -11.6479 -1.29311e-18)
(15.3794 -12.0539 -1.91978e-19)
(15.059 -12.4518 -2.75459e-20)
(14.7278 -12.8425 -1.01789e-18)
(14.3893 -13.2243 1.77445e-18)
(18.8842 -0.27052 3.89835e-20)
(18.8661 -0.767039 5.46543e-20)
(18.8345 -1.2614 1.01538e-20)
(18.7904 -1.75379 -4.99212e-19)
(18.7338 -2.24438 -4.45709e-19)
(18.6645 -2.73304 3.90827e-19)
(18.5824 -3.21948 4.85322e-19)