/*--------------------------------*- C++ -*----------------------------------*\
  =========                 |
  \\      /  F ield         | OpenFOAM: The Open Source CFD Toolbox
   \\    /   O peration     | Website:  https://openfoam.org
    \\  /    A nd           | Version:  6.0
     \\/     M anipulation  |
\*---------------------------------------------------------------------------*/
FoamFile
{
    version     2.0;
    format      ascii;
    class       surfaceScalarField;
    location    "10.504";
    object      phi;
}
// * * * * * * * * * * * * * * * * * * * * * * * * * * * * * * * * * * * * * //

dimensions      [0 3 -1 0 0 0 0];

internalField   nonuniform List<scalar> 
38030
(
-8.50757e-06
-0.00797973
0.00798824
-2.72379e-05
-0.00733742
0.00735615
-5.40693e-05
-0.00674973
0.00677656
-8.70338e-05
-0.0062134
0.00624637
-0.000124319
-0.00572484
0.00576213
-0.000164387
-0.00528039
0.00532045
-0.000205961
-0.00487645
0.00491802
-0.000247991
-0.00450959
0.00455162
-0.000289625
-0.00417655
0.00421819
-0.000330183
-0.00387428
0.00391484
-0.000369134
-0.00359993
0.00363888
-0.000406077
-0.00335087
0.00338781
-0.000440724
-0.00312468
0.00315933
-0.000472886
-0.00291915
0.00295131
-0.00050246
-0.00273223
0.0027618
-0.00052942
-0.00256208
0.00258904
-0.000553804
-0.00240703
0.00243142
-0.000575709
-0.00226555
0.00228745
-0.000595283
-0.00213626
0.00215584
-0.000612714
-0.00201793
0.00203537
-0.000628229
-0.00190945
0.00192497
-0.000642083
-0.00180982
0.00182368
-0.000654554
-0.00171814
0.00173061
-0.000665936
-0.00163359
0.00164497
-0.000676534
-0.00155545
0.00156605
-0.000686659
-0.00148313
0.00149326
-0.000696622
-0.00141612
0.00142609
-0.000706723
-0.001354
0.0013641
-0.00071726
-0.00129635
0.00130688
-0.00124275
0.00125402
-0.000728534
-7.50208e-06
-0.00797223
-2.59275e-05
-0.007319
-5.23543e-05
-0.0067233
-8.45549e-05
-0.0061812
-0.000120673
-0.00568872
-0.000159157
-0.0052419
-0.000198722
-0.00483688
-0.000238314
-0.00447
-0.000277082
-0.00413778
-0.000314346
-0.00383701
-0.000349578
-0.0035647
-0.000382382
-0.00331807
-0.000412476
-0.00309459
-0.000439677
-0.00289195
-0.000463892
-0.00270802
-0.000485101
-0.00254087
-0.000503357
-0.00238878
-0.000518767
-0.00225014
-0.000531492
-0.00212354
-0.000541738
-0.00200769
-0.000549748
-0.00190144
-0.000555795
-0.00180378
-0.000560179
-0.00171376
-0.000563216
-0.00163055
-0.000565236
-0.00155343
-0.00056658
-0.00148179
-0.000567585
-0.00141512
-0.000568584
-0.001353
-0.000569904
-0.00129503
-0.00124078
-0.000571877
-7.1142e-06
-0.00796512
-2.49346e-05
-0.00730118
-5.05315e-05
-0.0066977
-8.15478e-05
-0.00615018
-0.000116058
-0.00565421
-0.000152477
-0.00520548
-0.000189501
-0.00479986
-0.000226069
-0.00443343
-0.000261324
-0.00410253
-0.000294588
-0.00380375
-0.000325335
-0.00353395
-0.000353172
-0.00329023
-0.000377821
-0.00306994
-0.000399107
-0.00287066
-0.00041694
-0.00269018
-0.000431312
-0.0025265
-0.000442281
-0.00237781
-0.000449969
-0.00224245
-0.000454548
-0.00211896
-0.000456239
-0.002006
-0.000455303
-0.00190238
-0.000452034
-0.00180704
-0.000446752
-0.00171904
-0.000439799
-0.00163751
-0.000431535
-0.0015617
-0.000422328
-0.001491
-0.000412555
-0.00142489
-0.000402584
-0.00136297
-0.000392779
-0.00130483
-0.00125005
-0.000383509
-6.86367e-06
-0.00795825
-2.39987e-05
-0.00728404
-4.8509e-05
-0.00667319
-7.79961e-05
-0.0061207
-0.000110492
-0.00562172
-0.000144381
-0.0051716
-0.000178344
-0.0047659
-0.00021131
-0.00440046
-0.000242419
-0.00407142
-0.000270991
-0.00377518
-0.000296503
-0.00350844
-0.000318563
-0.00326817
-0.000336898
-0.00305161
-0.000351335
-0.00285622
-0.000361793
-0.00267973
-0.000368266
-0.00252003
-0.000370823
-0.00237525
-0.000369593
-0.00224368
-0.000364761
-0.00212379
-0.000356562
-0.0020142
-0.000345274
-0.00191367
-0.000331212
-0.00182111
-0.00031472
-0.00173553
-0.000296166
-0.00165606
-0.000275938
-0.00158193
-0.000254444
-0.00151249
-0.000232098
-0.00144724
-0.000209314
-0.00138576
-0.000186501
-0.00132764
-0.00127248
-0.000164071
-6.62426e-06
-0.00795163
-2.29917e-05
-0.00726767
-4.62111e-05
-0.00664997
-7.3868e-05
-0.00609304
-0.000103971
-0.00559162
-0.000134887
-0.00514068
-0.000165284
-0.0047355
-0.000194086
-0.00437166
-0.00022043
-0.00404508
-0.000243636
-0.00375197
-0.000263182
-0.00348889
-0.000278679
-0.00325267
-0.000289856
-0.00304043
-0.000296543
-0.00284954
-0.000298661
-0.00267761
-0.000296211
-0.00252248
-0.000289265
-0.0023822
-0.00027796
-0.00225499
-0.000262491
-0.00213926
-0.000243107
-0.00203358
-0.000220101
-0.00193667
-0.000193811
-0.0018474
-0.000164603
-0.00176474
-0.000132876
-0.00168779
-9.90468e-05
-0.00161576
-6.35647e-05
-0.00154797
-2.68881e-05
-0.00148392
1.05203e-05
-0.00142316
4.8197e-05
-0.00136532
-0.00130995
8.56742e-05
-6.35857e-06
-0.00794527
-2.18584e-05
-0.00725217
-4.35934e-05
-0.00662824
-6.91386e-05
-0.0060675
-9.64903e-05
-0.00556426
-0.000124006
-0.00511316
-0.00015035
-0.00470916
-0.000174441
-0.00434757
-0.000195419
-0.0040241
-0.000212604
-0.00373479
-0.000225477
-0.00347602
-0.00023365
-0.0032445
-0.000236853
-0.00303723
-0.00023492
-0.00285147
-0.000227772
-0.00268476
-0.000215412
-0.00253484
-0.000197915
-0.00239969
-0.000175424
-0.00227748
-0.000148141
-0.00216654
-0.000116324
-0.0020654
-8.02823e-05
-0.00197271
-4.03738e-05
-0.00188731
3.00948e-06
-0.00180812
4.94398e-05
-0.00173422
9.84608e-05
-0.00166478
0.000149589
-0.0015991
0.000202313
-0.00153664
0.000256117
-0.00147697
0.000310474
-0.00141968
-0.00136433
0.000364852
-6.05302e-06
-0.00793922
-2.05733e-05
-0.00723765
-4.0631e-05
-0.00660818
-6.37914e-05
-0.00604433
-8.80455e-05
-0.00554001
-0.000111749
-0.00508946
-0.000133564
-0.00468734
-0.000152415
-0.00432872
-0.000167442
-0.00400907
-0.000177972
-0.00372426
-0.000183486
-0.0034705
-0.000183601
-0.00324438
-0.000178048
-0.00304278
-0.00016666
-0.00286286
-0.000149358
-0.00270206
-0.000126146
-0.00255805
-9.71e-05
-0.00242874
-6.23628e-05
-0.00231222
-2.21417e-05
-0.00220676
2.32973e-05
-0.00211084
7.36328e-05
-0.00202305
0.000128492
-0.00194216
0.000187454
-0.00186708
0.000250064
-0.00179683
0.000315825
-0.00173054
0.000384209
-0.00166748
0.000454654
-0.00160708
0.000526579
-0.00154889
0.000599393
-0.00149249
-0.00143742
0.000672484
-5.70377e-06
-0.00793351
-1.91255e-05
-0.00722423
-3.73109e-05
-0.00659
-5.7817e-05
-0.00602383
-7.86337e-05
-0.00551919
-9.81196e-05
-0.00506997
-0.000114944
-0.00467052
-0.000128037
-0.00431563
-0.000136547
-0.00400056
-0.000139806
-0.003721
-0.000137302
-0.00347301
-0.000128653
-0.00325303
-0.000113592
-0.00305784
-9.19518e-05
-0.0028845
-6.36526e-05
-0.00273036
-2.86946e-05
-0.00259301
1.28487e-05
-0.00247028
6.0835e-05
-0.0023602
0.000115057
-0.00226098
0.000175244
-0.00217102
0.000241067
-0.00208887
0.000312138
-0.00201324
0.000388017
-0.00194296
0.000468214
-0.00187703
0.0005522
-0.00181452
0.000639394
-0.00175468
0.000729179
-0.00169687
0.000820909
-0.00164062
0.000913909
-0.00158549
-0.001531
0.00100748
-5.30984e-06
-0.0079282
-1.75107e-05
-0.00721203
-3.36263e-05
-0.00657388
-5.12087e-05
-0.00600625
-6.82517e-05
-0.00550215
-8.31227e-05
-0.0050551
-9.45022e-05
-0.00465914
-0.000101332
-0.0043088
-0.000102772
-0.00399912
-9.81641e-05
-0.00372561
-8.70022e-05
-0.00348417
-6.89107e-05
-0.00327113
-4.3624e-05
-0.00308313
-1.09737e-05
-0.00291715
2.9123e-05
-0.00277045
7.66708e-05
-0.00264056
0.000131602
-0.00252521
0.000193779
-0.00242238
0.000262998
-0.0023302
0.000338991
-0.00224702
0.000421422
-0.0021713
0.000509894
-0.00210171
0.000603948
-0.00203702
0.000703069
-0.00197615
0.000806684
-0.00191814
0.000914174
-0.00186217
0.00102486
-0.00180755
0.00113801
-0.00175378
0.00125288
-0.00170036
-0.00164678
0.00136866
-4.87138e-06
-0.00792333
-1.57263e-05
-0.00720118
-2.95721e-05
-0.00656003
-4.39605e-05
-0.00599186
-5.68943e-05
-0.00548922
-6.67554e-05
-0.00504524
-7.22415e-05
-0.00465365
-7.23113e-05
-0.00430873
-6.61407e-05
-0.00400529
-5.30846e-05
-0.00373866
-3.2648e-05
-0.00350461
-4.46161e-06
-0.00329931
3.1737e-05
-0.00311932
7.61172e-05
-0.00296153
0.000128766
-0.0028231
0.000189695
-0.00270149
0.000258844
-0.00259436
0.000336087
-0.00249962
0.000421229
-0.00241535
0.000514005
-0.00233979
0.000614085
-0.00227138
0.000721065
-0.00220869
0.000834471
-0.00215042
0.000953765
-0.00209544
0.00107834
-0.00204271
0.00120753
-0.00199135
0.00134059
-0.00194061
0.00147672
-0.00188991
0.00161507
-0.00183871
-0.00178644
0.00175473
-4.38801e-06
-0.00791894
-1.37698e-05
-0.00719179
-2.51428e-05
-0.00654866
-3.6064e-05
-0.00598094
-4.45517e-05
-0.00548073
-4.90086e-05
-0.00504079
-4.81553e-05
-0.0046545
-4.09737e-05
-0.00431591
-2.66604e-05
-0.0040196
-4.58875e-06
-0.00376073
2.57222e-05
-0.00353492
6.46323e-05
-0.00333822
0.000112399
-0.00316709
0.000169191
-0.00301832
0.000235101
-0.00288901
0.000310148
-0.00277653
0.000394286
-0.0026785
0.000487399
-0.00259274
0.000589309
-0.00251725
0.000699763
-0.00245025
0.000818438
-0.00239006
0.000944936
-0.00233519
0.00107878
-0.00228426
0.0012194
-0.00223606
0.00136617
-0.00218948
0.00151837
-0.00214355
0.0016752
-0.00209745
0.00183578
-0.0020505
0.00199916
-0.00200209
-0.00195158
0.00216431
-3.85894e-06
-0.00791509
-1.1638e-05
-0.00718401
-2.03309e-05
-0.00653997
-2.75075e-05
-0.00597376
-3.12086e-05
-0.00547703
-2.98647e-05
-0.00504213
-2.22258e-05
-0.00466214
-7.30333e-06
-0.00433083
1.56791e-05
-0.00404259
4.73246e-05
-0.00379238
8.80954e-05
-0.00357569
0.000138338
-0.00338846
0.000198301
-0.00322705
0.000268153
-0.00308817
0.000347989
-0.00296885
0.000437839
-0.00286638
0.00053767
-0.00277833
0.000647386
-0.00270245
0.000766826
-0.00263669
0.000895759
-0.00257918
0.00103388
-0.00252818
0.0011808
-0.00248211
0.00133604
-0.00243951
0.00149904
-0.00239906
0.00166913
-0.00235957
0.00184555
-0.00231998
0.00202745
-0.00227934
0.00221387
-0.00223691
0.00240374
-0.00219196
-0.00214373
0.00259589
-3.28304e-06
-0.0079118
-9.32562e-06
-0.00717797
-1.51264e-05
-0.00653417
-1.82755e-05
-0.00597061
-1.68439e-05
-0.00547846
-9.29728e-06
-0.00504968
5.57683e-06
-0.00467702
2.8731e-05
-0.00435398
6.09076e-05
-0.00407476
0.00010268
-0.00383415
0.000154486
-0.0036275
0.000216654
-0.00345063
0.00028942
-0.00329982
0.000372948
-0.0031717
0.000467336
-0.00306323
0.000572622
-0.00297167
0.000688789
-0.0028945
0.000815764
-0.00282943
0.00095341
-0.00277434
0.00110152
-0.00272729
0.00125983
-0.00268648
0.00142795
-0.00265023
0.00160544
-0.002617
0.00179173
-0.00258535
0.00198614
-0.00255398
0.00218787
-0.00252171
0.00239602
-0.00248749
0.00260954
-0.00245043
0.00282726
-0.00240968
-0.00236434
0.00304787
-2.65845e-06
-0.00790914
-6.82681e-06
-0.0071738
-9.51678e-06
-0.00653148
-8.34787e-06
-0.00597178
-1.42972e-06
-0.00548538
1.27284e-05
-0.00506383
3.52939e-05
-0.00469958
6.71753e-05
-0.00438587
0.000109074
-0.00411666
0.000161526
-0.0038866
0.000224938
-0.00369091
0.000299614
-0.00352531
0.000385772
-0.00338598
0.000483567
-0.00326949
0.000593094
-0.00317276
0.000714402
-0.00309298
0.000847488
-0.00302759
0.000992303
-0.00297424
0.00114874
-0.00293078
0.00131663
-0.00289519
0.00149574
-0.00286559
0.00168573
-0.00284022
0.00188617
-0.00281744
0.00209652
-0.0027957
0.00231609
-0.00277356
0.00254408
-0.0027497
0.00277952
-0.00272293
0.00302129
-0.00269221
0.00326811
-0.0026565
-0.00261475
0.00351852
-1.98305e-06
-0.00790716
-4.13401e-06
-0.00717165
-3.4874e-06
-0.00653212
2.2985e-06
-0.00597757
1.50664e-05
-0.00549815
3.62544e-05
-0.00508502
6.69765e-05
-0.0047303
0.000108089
-0.00442698
0.000160244
-0.00416882
0.000223932
-0.00395029
0.000299522
-0.0037665
0.000387284
-0.00361307
0.000487412
-0.00348611
0.000600045
-0.00338213
0.000725273
-0.00329799
0.000863145
-0.00323085
0.00101368
-0.00317812
0.00117684
-0.0031374
0.00135257
-0.0031065
0.00154073
-0.00308335
0.00174113
-0.00306599
0.0019535
-0.00305259
0.00217744
-0.00304138
0.00241245
-0.00303071
0.00265787
-0.00301898
0.00291288
-0.00300471
0.00317649
-0.00298654
0.00344751
-0.00296322
0.00372454
-0.00293353
-0.00289618
0.00400597
-1.25424e-06
-0.00790591
-1.23891e-06
-0.00717167
2.97807e-06
-0.00653634
1.36896e-05
-0.00598828
3.26806e-05
-0.00551714
6.13279e-05
-0.00511367
0.000100683
-0.00476966
0.000151541
-0.00447784
0.000214496
-0.00423177
0.000289987
-0.00402578
0.000378332
-0.00385484
0.00047976
-0.0037145
0.000594434
-0.00360078
0.000722466
-0.00351016
0.000863932
-0.00343946
0.00101888
-0.0033858
0.00118733
-0.00334657
0.00136929
-0.00331936
0.00156471
-0.00330193
0.00177352
-0.00329216
0.00199559
-0.00328805
0.00223069
-0.00328769
0.00247851
-0.0032892
0.00273859
-0.0032908
0.00301034
-0.00329073
0.00329295
-0.00328732
0.00358541
-0.003279
0.00388648
-0.00326429
0.00419466
-0.00324172
-0.0032097
0.00450818
-4.6949e-07
-0.00790544
1.86707e-06
-0.007174
9.89661e-06
-0.00654437
2.5852e-05
-0.00600423
5.14506e-05
-0.00554273
8.79982e-05
-0.00515022
0.000136475
-0.00481814
0.000197606
-0.00453897
0.000271918
-0.00430608
0.000359789
-0.00411365
0.000461478
-0.00395653
0.000577163
-0.00383018
0.000706962
-0.00373058
0.000850953
-0.00365415
0.00100919
-0.00359769
0.0011817
-0.00355831
0.00136851
-0.00353338
0.00156964
-0.00352049
0.00178509
-0.00351737
0.00201482
-0.00352189
0.00225878
-0.00353201
0.00251681
-0.00354572
0.00278869
-0.00356108
0.00307406
-0.00357616
0.00337238
-0.00358905
0.00368292
-0.00359785
0.00400467
-0.00360075
0.00433638
-0.003596
0.00467645
-0.00358179
-0.00355621
0.00502295
3.73836e-07
-0.00790581
5.19238e-06
-0.00717882
1.72845e-05
-0.00655646
3.88115e-05
-0.00602576
7.14124e-05
-0.00557534
0.000116312
-0.00519512
0.000174411
-0.00487623
0.000246356
-0.00461091
0.000332598
-0.00439233
0.000433441
-0.0042145
0.000549078
-0.00407217
0.000679626
-0.00396073
0.000825145
-0.0038761
0.000985664
-0.00381467
0.0011612
-0.00377322
0.00135175
-0.00374887
0.00155734
-0.00373898
0.00177799
-0.00374114
0.00201372
-0.0037531
0.00226455
-0.00377273
0.00253049
-0.00379794
0.00281148
-0.00382671
0.00310741
-0.00385701
0.00341803
-0.00388678
0.00374291
-0.00391393
0.00408142
-0.00393636
0.00443262
-0.00395195
0.00479526
-0.00395863
0.00516769
-0.00395422
-0.00393636
0.00554784
1.27821e-06
-0.00790709
8.74468e-06
-0.00718629
2.51563e-05
-0.00657287
5.25904e-05
-0.00605319
9.25971e-05
-0.00561534
0.000146311
-0.00524883
0.000214544
-0.00494447
0.000297854
-0.00469422
0.000396611
-0.00449108
0.000511036
-0.00432892
0.000641246
-0.00420238
0.000787281
-0.00410676
0.000949135
-0.00403795
0.00112677
-0.00399231
0.00132015
-0.0039666
0.00152924
-0.00395795
0.00175402
-0.00396376
0.0019945
-0.00398162
0.00225073
-0.00400933
0.00252275
-0.00404475
0.00281065
-0.00408584
0.00311447
-0.00413054
0.00343421
-0.00417676
0.00376979
-0.00422235
0.00412093
-0.00426507
0.00448713
-0.00430257
0.00486761
-0.00433242
0.00526115
-0.00435218
0.0056661
-0.00435917
-0.00435053
0.00608027
2.24535e-06
-0.00790934
1.25298e-05
-0.00719657
3.35232e-05
-0.00659387
6.72058e-05
-0.00608688
0.000115027
-0.00566316
0.000178023
-0.00531183
0.000256907
-0.00502335
0.000352145
-0.00478946
0.000464012
-0.00460295
0.000592644
-0.00445755
0.000738067
-0.0043478
0.00090024
-0.00426894
0.00107907
-0.00421678
0.00127445
-0.00418768
0.00148625
-0.00417841
0.00171439
-0.00418609
0.0019588
-0.00420816
0.00221944
-0.00424226
0.00249635
-0.00428624
0.00278961
-0.00433801
0.00309935
-0.00439557
0.00342571
-0.0044569
0.00376884
-0.00451989
0.00412882
-0.00458233
0.00450559
-0.00464184
0.00489886
-0.00469584
0.00530804
-0.0047416
0.00573205
-0.00477619
0.0061693
-0.00479642
-0.00479875
0.00661752
3.27641e-06
-0.00791261
1.65517e-05
-0.00720985
4.2392e-05
-0.00661971
8.26666e-05
-0.00612715
0.000138714
-0.00571921
0.00021146
-0.00538457
0.000301514
-0.00511341
0.000409242
-0.00489719
0.000534822
-0.00472853
0.000678293
-0.00460102
0.000839588
-0.0045091
0.00101857
-0.00444792
0.00121505
-0.00441327
0.00142883
-0.00440146
0.00165969
-0.00440927
0.00190744
-0.00443385
0.00217195
-0.00447267
0.00245313
-0.00452344
0.00275094
-0.00458406
0.00306548
-0.00465255
0.00339689
-0.00472698
0.0037454
-0.00480541
0.0041113
-0.00488579
0.00449487
-0.0049659
0.0048963
-0.00504327
0.0053156
-0.00511514
0.00575245
-0.00517844
0.00620603
-0.00522978
0.00667489
-0.00526528
-0.00528061
0.00715675
4.37155e-06
-0.00791698
2.08114e-05
-0.00722629
5.17643e-05
-0.00665066
9.89725e-05
-0.00617436
0.000163651
-0.00578389
0.000246609
-0.00546753
0.000348345
-0.00521514
0.000469119
-0.00501796
0.00060901
-0.00486842
0.000767953
-0.00475997
0.000945784
-0.00468693
0.00114226
-0.0046444
0.0013571
-0.0046281
0.00158997
-0.00463433
0.00184057
-0.00465987
0.00210858
-0.00470187
0.00239377
-0.00475785
0.00269592
-0.00482559
0.00301495
-0.00490308
0.00335086
-0.00498846
0.00370379
-0.00507991
0.00407402
-0.00517564
0.00446194
-0.00527372
0.00486805
-0.00537201
0.00529284
-0.00546805
0.00573667
-0.00555898
0.00619965
-0.00564142
0.00668134
-0.00571147
0.00718057
-0.00576451
-0.00579518
0.00769514
5.53018e-06
-0.00792251
2.5308e-05
-0.00724607
6.16362e-05
-0.00668699
0.000116112
-0.00622884
0.000189816
-0.00585759
0.000283431
-0.00556115
0.000397342
-0.00532905
0.0005317
-0.00515232
0.000686479
-0.0050232
0.000861515
-0.004935
0.00105654
-0.00488195
0.0012712
-0.00485906
0.00150511
-0.004862
0.00175782
-0.00488704
0.00202889
-0.00493094
0.00231789
-0.00499087
0.00262443
-0.00506438
0.00294815
-0.00514932
0.00328884
-0.00524377
0.00364636
-0.00534599
0.0040208
-0.00545435
0.00441238
-0.00556722
0.00482157
-0.00568291
0.00524904
-0.00579947
0.00569558
-0.00591459
0.00616201
-0.00602541
0.00664897
-0.00612838
0.00715663
-0.00621912
0.00768429
-0.00629217
-0.00634088
0.00822999
6.75082e-06
-0.00792926
3.00394e-05
-0.00726936
7.19999e-05
-0.00672895
0.000134065
-0.0062909
0.000217166
-0.00594069
0.000321857
-0.00566584
0.000448402
-0.0054556
0.000596846
-0.00530076
0.000767056
-0.00519341
0.000958769
-0.00512672
0.00117161
-0.0050948
0.00140514
-0.00509258
0.00165883
-0.0051157
0.00193213
-0.00516035
0.00222448
-0.00522328
0.00253527
-0.00530167
0.00286396
-0.00539307
0.00321002
-0.00549538
0.00357303
-0.00560678
0.00395269
-0.00572564
0.00434887
-0.00585053
0.00476169
-0.00598005
0.00519157
-0.00611279
0.00563924
-0.00624714
0.00610577
-0.00638113
0.00659247
-0.00651211
0.00710067
-0.00663657
0.00763136
-0.00674982
0.00818468
-0.00684549
-0.00691534
0.00875913
8.03376e-06
-0.0079373
3.50058e-05
-0.00729633
8.28465e-05
-0.00677679
0.0001528
-0.00636085
0.000245638
-0.00603353
0.000361781
-0.00578198
0.000501373
-0.00559519
0.000664349
-0.00546374
0.000850477
-0.00537954
0.00105939
-0.00533563
0.00129063
-0.00532603
0.00154363
-0.00534559
0.00181779
-0.00538985
0.00211243
-0.00545499
0.00242685
-0.0055377
0.00276032
-0.00563513
0.00311209
-0.00574484
0.00348146
-0.00586475
0.00386776
-0.00599307
0.00427042
-0.0061283
0.00468905
-0.00626915
0.00512349
-0.00641449
0.00557393
-0.00656323
0.00604102
-0.00671424
0.00652594
-0.00686605
0.00703041
-0.00701657
0.00755654
-0.0071627
0.00810649
-0.00729977
0.00868167
-0.00742067
-0.00751517
0.00928151
9.38564e-06
-0.00794668
4.02184e-05
-0.00732716
9.41727e-05
-0.00683074
0.000172281
-0.00643896
0.00027515
-0.0061364
0.000403064
-0.00590989
0.000556049
-0.00574818
0.000733932
-0.00564162
0.00093638
-0.00558199
0.00116294
-0.00556219
0.00141304
-0.00557614
0.00168606
-0.00561861
0.00198128
-0.00568507
0.00229793
-0.00577164
0.0026352
-0.00587496
0.00299221
-0.00599215
0.00336809
-0.00612072
0.0037619
-0.00625857
0.00417275
-0.00640392
0.00459976
-0.00655532
0.00504218
-0.00671156
0.00549941
-0.00687172
0.00597123
-0.00703505
0.00645789
-0.0072009
0.00696035
-0.0073685
0.00748046
-0.00753668
0.00802105
-0.00770329
0.0085857
-0.00786443
0.00917782
-0.00801279
-0.00813571
0.00979836
1.08312e-05
-0.00795751
4.57119e-05
-0.00736204
0.000105988
-0.00689102
0.000192469
-0.00652544
0.0003056
-0.00624953
0.000445531
-0.00604982
0.000612171
-0.00591482
0.00080524
-0.00583469
0.00102431
-0.00580105
0.00126882
-0.00580671
0.00153815
-0.00584547
0.00183157
-0.00591203
0.0021483
-0.0060018
0.00248749
-0.00611083
0.00284824
-0.00623572
0.0032296
-0.00637351
0.00363056
-0.00652168
0.00405005
-0.00667806
0.00448696
-0.00684083
0.00494013
-0.00700849
0.00540842
-0.00717985
0.00589074
-0.00735405
0.00638621
-0.00753052
0.00689434
-0.00770903
0.00741536
-0.00788952
0.00795062
-0.00807195
0.00850309
-0.00825576
0.00907764
-0.00843898
0.00968047
-0.00861562
-0.0087705
0.0103153
1.24393e-05
-0.00796995
5.15695e-05
-0.00740117
0.000118326
-0.00695778
0.000213322
-0.00662044
0.000336863
-0.00637307
0.00048897
-0.00620193
0.000669431
-0.00609528
0.000877853
-0.00604311
0.00111371
-0.00603691
0.00137636
-0.00606936
0.00166508
-0.00613419
0.0019791
-0.00622604
0.00231757
-0.00634026
0.00267959
-0.00647286
0.00306423
-0.00662036
0.00347049
-0.00677977
0.00389731
-0.0069485
0.00434357
-0.00712432
0.00480807
-0.00730532
0.00528947
-0.0074899
0.00578638
-0.00767675
0.00629725
-0.00786492
0.00682054
-0.00805381
0.00735476
-0.00824325
0.00789883
-0.00843359
0.00845259
-0.00862571
0.00901767
-0.00882085
0.00959885
-0.00902015
0.0102052
-0.00922196
-0.00941378
0.0108485
1.44336e-05
-0.00798439
5.79911e-05
-0.00744473
0.000131257
-0.00703104
0.000234791
-0.00672397
0.000368787
-0.00650707
0.000533128
-0.00636627
0.000727468
-0.00628962
0.000951291
-0.00626694
0.00120396
-0.00628957
0.00148474
-0.00635014
0.00179284
-0.00644229
0.0021274
-0.00656061
0.00248755
-0.00670042
0.00287237
-0.00685767
0.00328091
-0.00702889
0.00371219
-0.00721105
0.0041652
-0.00740151
0.00463887
-0.007598
0.00513207
-0.00779852
0.00564356
-0.00800138
0.00617194
-0.00820514
0.00671562
-0.0084086
0.00727271
-0.0086109
0.00784101
-0.00881154
0.008418
-0.00901059
0.0090012
-0.0092089
0.00958884
-0.00940849
0.0101819
-0.00961322
0.0107895
-0.00982958
-0.0100705
0.0114462
1.76259e-05
-0.00800201
6.53641e-05
-0.00749247
0.00014484
-0.00711052
0.000256769
-0.0068359
0.000401162
-0.00665146
0.000577706
-0.00654282
0.000785882
-0.00649779
0.00102503
-0.00650608
0.00129438
-0.00655893
0.0015931
-0.00664886
0.00192032
-0.00676951
0.00227511
-0.0069154
0.00265655
-0.00708186
0.00306371
-0.00726483
0.00349565
-0.00746084
0.00395146
-0.00766686
0.00443022
-0.00788028
0.00493105
-0.00809883
0.00545307
-0.00832054
0.0059954
-0.00854371
0.00655713
-0.00876687
0.00713732
-0.00898879
0.00773485
-0.00920843
0.00834835
-0.00942504
0.00897594
-0.00963818
0.00961511
-0.00984807
0.0102624
-0.0100558
0.0109123
-0.0102631
0.0115599
-0.0104772
-0.0107207
0.0122102
0.00899916
4.59227e-05
-0.00904508
0.00895417
4.49889e-05
0.00890946
4.47094e-05
0.00886489
4.457e-05
0.00882048
4.4411e-05
0.0087763
4.41766e-05
0.00873246
4.3845e-05
0.00868905
4.34098e-05
0.00864618
4.2871e-05
0.00860394
4.22319e-05
0.00856245
4.14972e-05
0.00852178
4.06725e-05
0.00848201
3.97641e-05
0.00844323
3.87779e-05
0.00840551
3.77203e-05
0.00836892
3.6597e-05
0.0083335
3.54139e-05
0.00829933
3.41767e-05
0.00826643
3.28905e-05
0.00823487
3.15604e-05
0.00820468
3.01913e-05
0.0081759
2.87878e-05
0.00814854
2.7354e-05
0.00812265
2.58941e-05
0.00809824
2.44103e-05
0.00807534
2.2899e-05
0.008054
2.13411e-05
0.00803432
1.96768e-05
0.00801662
1.76984e-05
1.46082e-05
0.0103014
0.000163993
-0.0104195
0.0101822
0.000164259
0.0100622
0.000164641
0.00994193
0.000164885
0.00982149
0.000164846
0.00970121
0.000164454
0.00958138
0.000163675
0.00946229
0.000162501
0.00934423
0.000160932
0.00922749
0.000158979
0.00911233
0.000156655
0.00899902
0.00015398
0.00888781
0.000150972
0.00877894
0.000147653
0.00867261
0.000144043
0.00856905
0.000140163
0.00846843
0.000136034
0.00837093
0.000131675
0.00827671
0.000127106
0.00818593
0.000122345
0.00809871
0.00011741
0.00801518
0.000112315
0.00793546
0.000107077
0.00785965
0.000101707
0.00778785
9.62116e-05
0.00772016
9.0588e-05
0.00765669
8.48077e-05
0.00759757
7.87935e-05
0.00754292
7.23492e-05
6.50654e-05
0.0115668
0.000342194
-0.011745
0.0113858
0.000345288
0.0112027
0.00034771
0.0110182
0.000349397
0.0108328
0.000350276
0.0106469
0.000350304
0.0104611
0.000349457
0.0102759
0.000347733
0.0100917
0.000345142
0.00990896
0.000341705
0.00972817
0.000337451
0.00954973
0.000332415
0.00937407
0.000326636
0.00920157
0.000320154
0.0090326
0.000313012
0.00886751
0.000305252
0.00870663
0.000296916
0.00855026
0.000288045
0.00839868
0.00027868
0.00825217
0.000268857
0.00811097
0.000258614
0.0079753
0.000247984
0.00784538
0.000236998
0.0077214
0.000225684
0.00760355
0.000214063
0.00749199
0.000202145
0.00738687
0.000189923
0.00728831
0.000177357
0.0071963
0.000164364
0.000150842
0.0127859
0.000569784
-0.0130134
0.0125538
0.00057731
0.0123182
0.000583318
0.0120798
0.000587813
0.0118393
0.000590778
0.0115974
0.000592197
0.0113548
0.000592069
0.0111121
0.000590403
0.01087
0.000587223
0.0106292
0.000582568
0.0103902
0.000576482
0.0101535
0.000569022
0.00991993
0.000560248
0.00968986
0.000550224
0.00946386
0.000539019
0.00924241
0.000526701
0.00902598
0.000513339
0.00881503
0.000499001
0.00860996
0.000483751
0.00841116
0.000467655
0.008219
0.000450771
0.00803383
0.000433158
0.00785596
0.000414869
0.00768569
0.000395955
0.00752329
0.000376462
0.007369
0.000356429
0.00722304
0.000335887
0.00708554
0.00031486
0.00695653
0.000293368
0.000271473
0.0139508
0.000837014
-0.0142181
0.0136774
0.000850734
0.0133987
0.000862025
0.0131156
0.000870909
0.012829
0.000877389
0.0125397
0.000881473
0.0122486
0.000883174
0.0119565
0.000882518
0.0116642
0.000879543
0.0113725
0.000874302
0.0110821
0.000866862
0.0107938
0.000857298
0.0105084
0.000845695
0.0102264
0.000832144
0.00994871
0.00081674
0.00967583
0.000799582
0.0094084
0.000780767
0.00914701
0.000760394
0.0088922
0.000738559
0.0086445
0.000715353
0.00840441
0.000690865
0.00817238
0.000665182
0.00794887
0.000638385
0.00773427
0.000610554
0.00752896
0.000581768
0.00733329
0.000552105
0.00714753
0.000521649
0.0069719
0.000490487
0.00680654
0.000458732
0.000426545
0.0150557
0.00113517
-0.0153539
0.0147495
0.00115697
0.0144362
0.00117536
0.0141167
0.00119037
0.0137921
0.00120199
0.0134633
0.00121024
0.0131314
0.00121514
0.0127972
0.00121672
0.0124617
0.00121503
0.0121258
0.00121015
0.0117906
0.00120215
0.0114567
0.00119114
0.0111252
0.00117721
0.0107968
0.00116049
0.0104725
0.0011411
0.0101529
0.00111917
0.00983883
0.00109483
0.00953101
0.00106821
0.00923014
0.00103943
0.00893686
0.00100863
0.00865182
0.00097591
0.0083756
0.000941399
0.00810878
0.000905208
0.00785188
0.000867451
0.0076054
0.000828245
0.0073698
0.000787713
0.00714545
0.000745994
0.00693269
0.000703246
0.00673176
0.000659662
0.00061549
0.0160962
0.00145647
-0.0164175
0.0157648
0.00148831
0.0154245
0.00151573
0.0150761
0.0015387
0.0147209
0.00155722
0.0143598
0.0015713
0.013994
0.00158095
0.0136245
0.00158621
0.0132524
0.00158714
0.0128788
0.00158381
0.0125046
0.00157633
0.0121309
0.0015648
0.0117588
0.00154935
0.0113892
0.00153012
0.011023
0.00150727
0.0106612
0.00148095
0.0103047
0.00145132
0.0099544
0.00141855
0.00961104
0.0013828
0.00927545
0.00134421
0.00894841
0.00130295
0.00863065
0.00125916
0.00832287
0.00121299
0.00802574
0.00116458
0.00773988
0.0011141
0.00746589
0.00106171
0.00720427
0.00100761
0.00695549
0.000952032
0.0067199
0.000895249
0.000837598
0.0170692
0.00179406
-0.0174068
0.0167196
0.00183791
0.016359
0.00187629
0.0159886
0.00190913
0.0156094
0.0019364
0.0152226
0.00195808
0.0148294
0.00197419
0.0144308
0.00198474
0.0140282
0.00198979
0.0136226
0.00198942
0.0132152
0.00198374
0.0128071
0.00197286
0.0123995
0.00195693
0.0119935
0.00193612
0.0115902
0.0019106
0.0111906
0.00188055
0.0107957
0.00184617
0.0104067
0.00180764
0.0100243
0.00176516
0.0096496
0.00171891
0.00928347
0.00166908
0.00892679
0.00161584
0.00858041
0.00155938
0.00824512
0.00149986
0.00792172
0.0014375
0.00761093
0.0013725
0.00731342
0.00130512
0.00702978
0.00123567
0.00676053
0.0011645
0.00109205
0.0179732
0.00214187
-0.018321
0.0176114
0.00219969
0.0172367
0.00225096
0.0168503
0.00229559
0.0164532
0.0023335
0.0160466
0.00236464
0.0156318
0.00238898
0.01521
0.00240654
0.0147824
0.00241736
0.0143503
0.00242151
0.013915
0.00241909
0.0134776
0.00241023
0.0130395
0.00239509
0.0126017
0.00237384
0.0121657
0.00234667
0.0117324
0.0023138
0.0113032
0.00227543
0.010879
0.0022318
0.0104611
0.00218311
0.0100504
0.00212958
0.00964804
0.00207142
0.00925505
0.00200884
0.00887239
0.00194203
0.00850104
0.00187121
0.00814193
0.00179661
0.00779596
0.00171847
0.00746396
0.00163712
0.00714669
0.00155293
0.00684483
0.00146636
0.00137795
0.0188077
0.00249462
-0.0191604
0.0184391
0.00256828
0.0180557
0.00263435
0.0176586
0.00269267
0.017249
0.0027431
0.0168281
0.00278556
0.0163971
0.00281998
0.0159573
0.00284635
0.01551
0.00286467
0.0150565
0.00287501
0.0145981
0.00287746
0.0141362
0.00287213
0.0136721
0.0028592
0.0132071
0.00283883
0.0127425
0.00281124
0.0122797
0.00277666
0.0118198
0.00273532
0.0113641
0.00268746
0.0109139
0.00263332
0.0104703
0.00257315
0.0100346
0.00250716
0.00960786
0.00243558
0.00919125
0.00235864
0.00878591
0.00227656
0.00839293
0.00218958
0.0080134
0.00209801
0.00764832
0.0020022
0.00729866
0.00190259
0.00696527
0.00179976
0.00169436
0.0195732
0.00284774
-0.0199263
0.0192024
0.00293903
0.018815
0.00302171
0.0184122
0.00309555
0.0179949
0.00316036
0.0175645
0.00321599
0.0171221
0.00326233
0.0166691
0.00329932
0.0162069
0.00332695
0.0157366
0.00334522
0.0152599
0.00335423
0.0147779
0.00335407
0.0142922
0.0033449
0.0138042
0.0033269
0.0133151
0.00330029
0.0128265
0.00326529
0.0123396
0.00322217
0.0118559
0.00317118
0.0113767
0.00311257
0.0109032
0.0030466
0.0104369
0.00297352
0.0099789
0.00289354
0.00953063
0.00280691
0.00909335
0.00271384
0.00866832
0.00261461
0.00825683
0.0025095
0.00786009
0.00239893
0.00747928
0.00228341
0.00711545
0.00216359
0.0020403
0.020271
0.00319736
-0.0206206
0.0199021
0.00330793
0.0195148
0.00340893
0.0191104
0.00350004
0.0186897
0.003581
0.0182541
0.0036516
0.0178048
0.00371168
0.017343
0.00376111
0.0168701
0.00379983
0.0163875
0.00382783
0.0158966
0.00384515
0.0153988
0.00385186
0.0148955
0.00384811
0.0143884
0.00383408
0.0138787
0.00380996
0.013368
0.003776
0.0128577
0.00373246
0.0123493
0.0036796
0.0118442
0.00361769
0.0113438
0.003547
0.0108495
0.00346777
0.0103628
0.00338022
0.00988517
0.00328457