/*--------------------------------*- C++ -*----------------------------------*\
  =========                 |
  \\      /  F ield         | OpenFOAM: The Open Source CFD Toolbox
   \\    /   O peration     | Website:  https://openfoam.org
    \\  /    A nd           | Version:  6.0
     \\/     M anipulation  |
\*---------------------------------------------------------------------------*/
FoamFile
{
    version     2.0;
    format      ascii;
    class       volVectorField;
    location    "10.504";
    object      U;
}
// * * * * * * * * * * * * * * * * * * * * * * * * * * * * * * * * * * * * * //

dimensions      [0 1 -1 0 0 0 0];

internalField   nonuniform List<vector> 
19200
(
(0.00655174 -0.479036 -4.30105e-22)
(0.00479419 -0.44082 2.38451e-22)
(0.00269759 -0.405817 1.22445e-22)
(0.000272451 -0.373842 1.19589e-22)
(-0.00235167 -0.344682 1.46518e-22)
(-0.00503829 -0.318124 7.39919e-24)
(-0.00769354 -0.293958 2.34947e-22)
(-0.0102505 -0.271985 -2.44818e-23)
(-0.0126613 -0.252014 2.33224e-22)
(-0.0148934 -0.233867 1.02067e-22)
(-0.0169266 -0.217377 -1.07285e-23)
(-0.0187504 -0.20239 1.82096e-22)
(-0.0203618 -0.188764 3.44371e-22)
(-0.0217637 -0.176369 -2.5137e-22)
(-0.0229633 -0.165087 3.34925e-22)
(-0.0239713 -0.154807 3.18755e-22)
(-0.024801 -0.145432 -3.13368e-22)
(-0.0254676 -0.136873 5.73669e-22)
(-0.0259873 -0.129048 -3.85119e-22)
(-0.0263774 -0.121885 1.9526e-22)
(-0.0266554 -0.115319 3.02727e-22)
(-0.026839 -0.10929 -1.09563e-22)
(-0.0269456 -0.103746 1.49264e-22)
(-0.0269921 -0.0986385 -1.89589e-22)
(-0.0269945 -0.0939247 4.99016e-24)
(-0.0269692 -0.0895693 1.1299e-22)
(-0.0269313 -0.0855421 -7.68553e-23)
(-0.0268856 -0.0818174 4.2148e-23)
(-0.0268238 -0.07837 1.1755e-22)
(-0.0268335 -0.0751764 5.80892e-22)
(0.0191222 -0.478214 -1.03846e-22)
(0.0163545 -0.439417 7.50502e-22)
(0.013342 -0.404 -4.19186e-22)
(0.010105 -0.371742 -6.41989e-22)
(0.00677043 -0.342411 -3.25135e-22)
(0.00346811 -0.315774 -2.47851e-22)
(0.000284536 -0.291604 -5.76788e-22)
(-0.00272065 -0.269685 6.93327e-23)
(-0.0055064 -0.249814 -1.12795e-22)
(-0.00804673 -0.231802 -4.81937e-22)
(-0.0103276 -0.215472 -1.38194e-21)
(-0.0123443 -0.200663 7.19022e-22)
(-0.014099 -0.187225 -2.88979e-22)
(-0.0155994 -0.175023 1.11062e-22)
(-0.0168575 -0.163933 -7.57813e-22)
(-0.017888 -0.153842 -3.06414e-22)
(-0.0187081 -0.144647 2.96575e-23)
(-0.0193365 -0.136257 1.15465e-21)
(-0.0197928 -0.128588 -5.99167e-22)
(-0.0200973 -0.121565 -3.45819e-22)
(-0.0202703 -0.115121 -1.54911e-21)
(-0.0203323 -0.109197 4.11787e-22)
(-0.0203031 -0.103737 -2.78587e-22)
(-0.0202019 -0.0986937 5.25533e-22)
(-0.0200471 -0.0940242 -2.66943e-22)
(-0.0198569 -0.0896926 -4.34598e-22)
(-0.019649 -0.0856696 1.35585e-22)
(-0.0194282 -0.08193 2.4863e-22)
(-0.0191838 -0.0784485 -4.23222e-22)
(-0.0190165 -0.0752039 2.72724e-22)
(0.031606 -0.477104 -4.96508e-23)
(0.0278092 -0.437745 1.30738e-22)
(0.0238884 -0.401943 2.24555e-22)
(0.0198535 -0.369441 2.22385e-21)
(0.0158269 -0.339979 -1.41614e-21)
(0.0119326 -0.313302 1.3082e-21)
(0.00824986 -0.289164 8.66309e-22)
(0.00483054 -0.267333 7.69913e-22)
(0.00170817 -0.247594 -7.83831e-22)
(-0.00109842 -0.229745 -1.31087e-22)
(-0.00358188 -0.213602 2.23933e-21)
(-0.0057436 -0.198994 4.2824e-22)
(-0.00759157 -0.185767 -1.20486e-21)
(-0.00913875 -0.173778 9.57557e-22)
(-0.0104018 -0.162899 -1.97778e-23)
(-0.0114 -0.153013 4.71828e-22)
(-0.0121546 -0.144013 3.45845e-22)
(-0.012688 -0.135805 1.32992e-21)
(-0.0130234 -0.128303 -5.66374e-22)
(-0.0131842 -0.12143 -1.83275e-22)
(-0.0131939 -0.115116 -5.97899e-22)
(-0.0130757 -0.109302 2.85356e-21)
(-0.0128522 -0.103931 -2.48467e-21)
(-0.012545 -0.0989549 8.00471e-22)
(-0.0121749 -0.0943302 4.70266e-22)
(-0.0117626 -0.0900212 -1.80942e-21)
(-0.0113281 -0.0859992 2.49494e-21)
(-0.0108766 -0.0822393 -2.51206e-22)
(-0.0103939 -0.0787162 -3.00302e-22)
(-0.00999706 -0.0754119 -2.62061e-21)
(0.0440338 -0.475695 -1.56386e-21)
(0.0391809 -0.435818 -1.65025e-21)
(0.0343455 -0.39967 -2.21702e-21)
(0.0295206 -0.366965 8.55068e-24)
(0.0248195 -0.337414 1.39377e-22)
(0.0203582 -0.310735 -3.09201e-21)
(0.0162071 -0.286666 1.19646e-22)
(0.0124096 -0.264957 4.7353e-22)
(0.00899068 -0.245381 -6.30991e-23)
(0.00596145 -0.227726 9.49729e-22)
(0.00332197 -0.211796 -3.81979e-21)
(0.00106418 -0.197415 -2.64507e-21)
(-0.000826022 -0.184421 9.46816e-22)
(-0.00236718 -0.172666 2.21828e-21)
(-0.00358105 -0.162016 -2.60023e-21)
(-0.00449161 -0.152351 -4.33966e-22)
(-0.00512434 -0.143561 -1.77029e-21)
(-0.00550563 -0.135548 -8.86238e-22)
(-0.00566232 -0.128224 1.61842e-21)
(-0.0056213 -0.12151 -2.14085e-21)
(-0.00540922 -0.115335 2.03195e-21)
(-0.00505232 -0.109637 -2.4243e-21)
(-0.004576 -0.104359 -2.05398e-21)
(-0.00400468 -0.0994525 -1.60964e-21)
(-0.00336145 -0.0948727 -4.15762e-22)
(-0.00267005 -0.0905845 -3.58303e-21)
(-0.00195287 -0.086559 3.84542e-22)
(-0.00121537 -0.082772 7.22811e-22)
(-0.000439324 -0.0791976 -2.22774e-21)
(0.000238902 -0.0758225 4.39384e-22)
(0.0564084 -0.473977 -9.09272e-22)
(0.0504763 -0.433639 1.59978e-22)
(0.0447193 -0.397197 1.4766e-21)
(0.0391115 -0.364335 1.69058e-21)
(0.0337539 -0.334738 1.33414e-21)
(0.0287517 -0.308099 5.95519e-22)
(0.0241649 -0.284136 9.5927e-22)
(0.0200267 -0.262586 4.87039e-21)
(0.0163531 -0.243206 -3.00229e-21)
(0.0131464 -0.225773 6.26846e-23)
(0.0103988 -0.210084 7.89054e-22)
(0.00809518 -0.195954 3.94809e-21)
(0.00621482 -0.183215 -2.79453e-21)
(0.00473326 -0.171713 2.15938e-21)
(0.00362341 -0.161311 -2.58994e-21)
(0.00285637 -0.151884 4.68715e-21)
(0.0024022 -0.143319 -1.40008e-21)
(0.00223041 -0.135515 5.44472e-23)
(0.00231032 -0.128381 2.66405e-21)
(0.00261148 -0.121836 2.05335e-21)
(0.00310388 -0.115807 -2.09539e-21)
(0.00375803 -0.110231 3.02174e-21)
(0.00454555 -0.10505 -1.47894e-21)
(0.00543904 -0.100214 1.74725e-21)
(0.00641264 -0.0956795 2.54483e-21)
(0.00744006 -0.091409 1.04126e-21)
(0.00849532 -0.0873751 3.22649e-21)
(0.00957355 -0.0835528 -1.0208e-21)
(0.0106975 -0.0799158 -2.6411e-22)
(0.011708 -0.0764564 -2.24357e-21)
(0.0687254 -0.471953 -6.69094e-22)
(0.0616957 -0.431217 -4.86972e-22)
(0.0550134 -0.394536 -1.6825e-21)
(0.0486322 -0.361569 -4.87015e-21)
(0.0426378 -0.331972 1.63021e-21)
(0.0371228 -0.305417 1.2933e-22)
(0.0321346 -0.281601 -1.33176e-21)
(0.0276954 -0.260244 3.31163e-22)
(0.0238107 -0.241092 -1.63353e-22)
(0.0204734 -0.223911 -4.31847e-21)
(0.0176671 -0.20849 1.80117e-21)
(0.0153691 -0.194636 3.47096e-21)
(0.0135517 -0.182174 -2.58056e-23)
(0.0121842 -0.170946 1.44079e-21)
(0.0112338 -0.16081 3.92187e-21)
(0.0106667 -0.151638 -2.86155e-21)
(0.0104481 -0.143312 5.28891e-21)
(0.0105434 -0.13573 -2.71292e-21)
(0.0109179 -0.128797 5.05412e-21)
(0.0115375 -0.122431 -3.97414e-21)
(0.0123686 -0.116556 1.83082e-21)
(0.0133786 -0.111108 5.31785e-21)
(0.0145354 -0.106029 5.14223e-22)
(0.0158092 -0.101265 -5.36075e-21)
(0.0171704 -0.0967749 3.13281e-21)
(0.0185899 -0.0925193 3.90518e-22)
(0.0200386 -0.0884706 -1.17455e-21)
(0.0215113 -0.0846042 4.54729e-21)
(0.0230368 -0.0808915 1.79638e-21)
(0.0244296 -0.0773326 -1.88073e-21)
(0.0809789 -0.469626 1.96334e-21)
(0.0728379 -0.428559 1.15902e-22)
(0.065231 -0.3917 -3.41443e-21)
(0.0580892 -0.358683 7.34724e-22)
(0.0514809 -0.329137 -1.18873e-21)
(0.0454835 -0.30271 7.91781e-22)
(0.0401309 -0.279081 2.02051e-21)
(0.0354324 -0.257954 4.10562e-21)
(0.0313822 -0.239064 -4.78629e-21)
(0.0279628 -0.222165 1.17436e-21)
(0.0251489 -0.207039 -1.01498e-21)
(0.0229092 -0.193484 7.6786e-22)
(0.0212089 -0.181321 -3.44184e-21)
(0.0200107 -0.170387 -3.27489e-22)
(0.019276 -0.160535 6.38506e-21)
(0.0189655 -0.151633 -4.46278e-21)
(0.0190399 -0.143562 -3.11474e-21)
(0.01946 -0.136214 -2.52355e-21)
(0.0201871 -0.129495 4.51538e-21)
(0.0211833 -0.123317 1.09137e-21)
(0.0224114 -0.117605 -5.07677e-21)
(0.0238353 -0.112291 7.16373e-21)
(0.0254197 -0.107316 -6.70993e-21)
(0.0271311 -0.102628 4.73381e-21)
(0.0289372 -0.0981806 -2.77365e-21)
(0.0308048 -0.0939365 1.92811e-21)
(0.0327016 -0.0898667 1.61166e-21)
(0.0346223 -0.085946 -7.15675e-21)
(0.0366021 -0.0821433 3.14725e-21)
(0.0384259 -0.0784678 7.04508e-23)
(0.0931627 -0.467001 -1.93849e-21)
(0.0839017 -0.425674 1.65901e-21)
(0.0753757 -0.388703 -3.66893e-21)
(0.0674902 -0.355693 7.27425e-21)
(0.0602941 -0.32625 -2.16812e-21)
(0.0538482 -0.299998 3.45724e-21)
(0.0481708 -0.276597 5.73846e-23)
(0.0432574 -0.255738 -4.57224e-22)
(0.0390894 -0.237142 -8.65756e-22)
(0.0356386 -0.220555 -5.52192e-23)
(0.0328696 -0.205749 -3.76047e-21)
(0.0307425 -0.192517 1.98428e-21)
(0.0292146 -0.180675 -2.68228e-21)
(0.0282418 -0.170053 -1.85132e-22)
(0.0277795 -0.160503 -8.45029e-21)
(0.0277829 -0.151887 2.78746e-21)
(0.0282078 -0.144085 1.84201e-21)
(0.0290104 -0.136985 -2.09808e-21)
(0.0301481 -0.13049 -2.37617e-22)
(0.0315789 -0.124511 -3.61729e-21)
(0.033262 -0.11897 -1.37035e-21)
(0.0351576 -0.113797 2.01879e-22)
(0.0372271 -0.108932 -3.69442e-21)
(0.0394335 -0.10432 -5.94586e-21)
(0.0417408 -0.0999155 2.04566e-22)
(0.0441123 -0.0956789 -7.68955e-22)
(0.0465112 -0.0915813 2.1841e-21)
(0.0489329 -0.0875956 -5.65328e-21)
(0.0514189 -0.0836874 5.04841e-21)
(0.0537214 -0.0798766 -1.14908e-20)
(0.105271 -0.464082 -4.72153e-21)
(0.0948862 -0.422571 6.52061e-21)
(0.0854516 -0.385555 -7.56024e-21)
(0.0768438 -0.352614 -2.27852e-21)
(0.0690903 -0.323328 -1.61306e-21)
(0.0622333 -0.297298 -1.87522e-21)
(0.0562741 -0.274168 -1.75261e-21)
(0.0511928 -0.253614 -3.10623e-22)
(0.0469575 -0.235345 -1.96067e-21)
(0.043528 -0.219099 -4.54491e-22)
(0.0408583 -0.204639 4.0489e-21)
(0.0388993 -0.191753 -2.11544e-21)
(0.0376003 -0.18025 -2.86366e-21)
(0.03691 -0.16996 -5.38424e-21)
(0.0367775 -0.160727 1.1778e-20)
(0.0371524 -0.152413 -4.76774e-21)
(0.0379854 -0.144893 1.88857e-21)
(0.0392285 -0.138053 -7.63407e-21)
(0.0408345 -0.131794 2.98293e-21)
(0.0427577 -0.126024 -1.37978e-21)
(0.0449534 -0.120662 1.6751e-21)
(0.0473783 -0.115638 -6.45292e-22)
(0.04999 -0.110887 6.21158e-21)
(0.052748 -0.106355 -2.28097e-21)
(0.0556124 -0.101993 6.82807e-21)
(0.0585426 -0.0977609 -1.70664e-21)
(0.0614975 -0.0936287 9.52916e-21)
(0.0644719 -0.0895674 2.98923e-21)
(0.0675154 -0.0855369 5.79734e-21)
(0.070343 -0.0815711 -2.00467e-20)
(0.117297 -0.460873 7.43495e-21)
(0.105791 -0.419259 -1.53377e-21)
(0.0954638 -0.382268 3.34294e-21)
(0.0861603 -0.34946 -1.01956e-21)
(0.0778842 -0.320386 3.6999e-21)
(0.0706575 -0.294628 3.84681e-21)
(0.0644629 -0.271811 4.66783e-21)
(0.0592641 -0.251599 -4.53409e-22)
(0.0550145 -0.233689 -5.23474e-21)
(0.0516613 -0.217811 7.84209e-21)
(0.0491472 -0.203721 -8.42217e-22)
(0.0474136 -0.191202 6.25541e-21)
(0.0464012 -0.180059 2.45356e-21)
(0.0460514 -0.170117 8.61762e-22)
(0.0463066 -0.161217 1.50211e-21)
(0.047111 -0.153218 2.25891e-21)
(0.0484101 -0.145992 4.11966e-21)
(0.0501512 -0.139425 -1.33294e-21)
(0.0522831 -0.133412 6.83455e-21)
(0.0547561 -0.127861 3.45088e-21)
(0.0575217 -0.122688 -7.36977e-21)
(0.0605328 -0.117819 1.38789e-20)
(0.0637434 -0.113189 -1.92238e-20)
(0.0671089 -0.108739 1.90424e-20)
(0.0705861 -0.104421 -6.5625e-21)
(0.0741291 -0.100191 1.19663e-21)
(0.0776926 -0.0960189 -9.69419e-21)
(0.0812711 -0.0918711 5.50278e-21)
(0.0849218 -0.0877021 2.14395e-21)
(0.0883199 -0.0835602 -2.97195e-21)
(0.129236 -0.45738 -4.24187e-21)
(0.116617 -0.415745 4.92637e-21)
(0.105419 -0.378855 -1.40113e-21)
(0.0954514 -0.346243 4.34718e-21)
(0.0866925 -0.317439 4.55055e-22)
(0.0791419 -0.292001 1.24829e-21)
(0.0727623 -0.26954 -9.20106e-21)
(0.0674996 -0.249706 -1.79971e-21)
(0.0632918 -0.232186 6.80521e-21)
(0.0600723 -0.216702 5.72669e-21)
(0.0577724 -0.203006 -1.01432e-20)
(0.0563231 -0.190874 6.31466e-21)
(0.0556563 -0.180107 -6.56769e-21)
(0.0557057 -0.170527 4.97485e-21)
(0.0564074 -0.161974 -8.70967e-21)
(0.0576994 -0.154303 -7.01025e-21)
(0.0595224 -0.147384 2.19571e-22)
(0.061819 -0.1411 -3.72035e-21)
(0.0645338 -0.135344 6.43979e-21)
(0.0676134 -0.130022 2.80264e-21)
(0.0710054 -0.125047 -1.8315e-21)
(0.0746589 -0.120341 -5.29006e-22)
(0.0785242 -0.115838 2.66365e-21)
(0.0825528 -0.111475 -8.8356e-21)
(0.0866972 -0.107202 1.54017e-20)
(0.090907 -0.102974 -3.71808e-21)
(0.095131 -0.0987562 -4.78442e-22)
(0.099364 -0.0945123 1.55135e-20)
(0.103671 -0.0901885 2.46911e-21)
(0.107683 -0.0858499 -2.48034e-21)
(0.141082 -0.453607 2.03882e-22)
(0.127366 -0.412039 -2.52352e-21)
(0.115324 -0.375325 -2.60172e-21)
(0.10473 -0.342977 -4.70684e-21)
(0.0955337 -0.314499 1.85055e-22)
(0.0877098 -0.289431 -4.0763e-21)
(0.0811997 -0.267367 4.88606e-21)
(0.0759304 -0.247946 -4.90612e-22)
(0.0718235 -0.230846 4.84267e-21)
(0.068798 -0.215782 -3.84709e-21)
(0.0667729 -0.202499 -2.18476e-21)
(0.0656685 -0.190771 1.28246e-21)
(0.0654077 -0.180395 7.43725e-22)
(0.0659162 -0.171191 -8.29302e-21)
(0.0671234 -0.162996 5.00026e-21)
(0.0689615 -0.155663 -2.79839e-21)
(0.071366 -0.149061 7.98135e-21)
(0.0742752 -0.14307 -2.82591e-21)
(0.0776295 -0.137581 3.01418e-21)
(0.0813715 -0.132497 8.38448e-22)
(0.0854454 -0.127728 5.90645e-21)
(0.0897966 -0.123195 -1.15517e-21)
(0.0943714 -0.118826 1.0757e-20)
(0.0991175 -0.114557 -1.22448e-20)
(0.103983 -0.110332 -4.49264e-21)
(0.108912 -0.106105 3.82537e-21)
(0.113848 -0.10184 -2.26484e-22)
(0.118785 -0.0974916 -7.34595e-21)
(0.123796 -0.0929976 6.11155e-21)
(0.128464 -0.0884421 -8.27503e-21)
(0.152832 -0.449559 7.28109e-21)
(0.138039 -0.408149 2.20205e-21)
(0.125189 -0.37169 2.90524e-21)
(0.114012 -0.339672 4.32225e-21)
(0.104428 -0.311578 6.95028e-21)
(0.0963866 -0.286929 -2.33652e-22)
(0.089805 -0.265303 1.03718e-21)
(0.0845904 -0.246328 9.56868e-21)
(0.0806468 -0.229676 -1.95283e-21)
(0.0778784 -0.215053 -4.04726e-21)
(0.0761911 -0.202202 7.51883e-21)
(0.0754941 -0.190893 1.46789e-21)
(0.075701 -0.180921 1.89653e-23)
(0.0767294 -0.172103 2.02654e-21)
(0.0785016 -0.164274 4.04498e-21)
(0.0809443 -0.157288 -8.94919e-21)
(0.0839878 -0.15101 7.84905e-21)
(0.0875659 -0.14532 1.40459e-21)
(0.0916152 -0.140107 8.7656e-21)
(0.0960746 -0.135269 -4.85314e-21)
(0.100885 -0.130717 8.62574e-21)
(0.105987 -0.126365 -9.62083e-21)
(0.111325 -0.122139 9.70676e-21)
(0.116842 -0.11797 1.66157e-21)
(0.122481 -0.1138 -7.04734e-21)
(0.128181 -0.109577 -2.62012e-21)
(0.133879 -0.105261 1.50876e-20)
(0.139568 -0.100803 1.13523e-20)
(0.14533 -0.0961256 3.14407e-21)
(0.150696 -0.0913345 -2.8168e-21)
(0.164479 -0.44524 7.61259e-22)
(0.14864 -0.404081 2.06744e-21)
(0.135023 -0.367957 9.07797e-21)
(0.123314 -0.336339 -1.53562e-20)
(0.113399 -0.308687 -1.72061e-21)
(0.1052 -0.284504 -1.87944e-21)
(0.0986107 -0.263355 8.2833e-22)
(0.093516 -0.244859 1.28751e-21)
(0.0898017 -0.228679 2.36427e-21)
(0.0873563 -0.214518 -6.65058e-21)
(0.0860722 -0.202114 -1.59532e-21)
(0.0858471 -0.191235 4.06396e-21)
(0.0865847 -0.181675 4.91618e-21)
(0.0881946 -0.17325 -4.92241e-21)
(0.0905921 -0.165794 -5.53121e-21)
(0.0936979 -0.159159 8.68994e-21)
(0.0974373 -0.153211 6.23748e-21)
(0.10174 -0.147827 -1.49473e-21)
(0.106539 -0.142895 -4.34963e-21)
(0.111769 -0.138313 8.69904e-22)
(0.117368 -0.133984 -1.13843e-20)
(0.123274 -0.129823 1.42234e-20)
(0.129427 -0.12575 -1.01482e-20)
(0.135765 -0.121692 -5.95228e-22)
(0.142229 -0.117584 7.25099e-21)
(0.14875 -0.113371 -2.41261e-21)
(0.15526 -0.109007 -7.77516e-21)
(0.161748 -0.104436 9.72416e-21)
(0.168306 -0.0995635 -3.17476e-22)
(0.174409 -0.0945203 2.06423e-21)
(0.176022 -0.440656 -5.03111e-22)
(0.159173 -0.399845 -2.07031e-21)
(0.144838 -0.364138 -1.0478e-20)
(0.132654 -0.332987 3.82695e-21)
(0.122471 -0.305834 -1.35512e-21)
(0.114181 -0.282164 4.41723e-21)
(0.107652 -0.261529 3.24652e-22)
(0.102746 -0.243541 -6.10487e-21)
(0.0993307 -0.227856 9.64112e-21)
(0.0972773 -0.214173 -9.13834e-21)
(0.0964642 -0.202228 -5.14125e-22)
(0.0967774 -0.191788 2.52147e-21)
(0.0981103 -0.182645 -4.57507e-21)
(0.100364 -0.174615 5.62702e-21)
(0.103447 -0.167533 -1.1165e-20)
(0.107275 -0.161252 -2.92353e-21)
(0.111766 -0.155635 7.23973e-21)
(0.116848 -0.15056 -2.00591e-22)
(0.122449 -0.145914 -5.5509e-21)
(0.128501 -0.141591 1.51137e-20)
(0.13494 -0.137494 -8.12591e-21)
(0.1417 -0.133533 -1.1851e-20)
(0.148716 -0.129623 4.18397e-21)
(0.155926 -0.125687 -1.27724e-20)
(0.163263 -0.121652 -3.39707e-21)
(0.170654 -0.117458 -6.0097e-22)
(0.178023 -0.113053 -9.72669e-21)
(0.185357 -0.10837 1.16173e-20)
(0.192755 -0.103296 -6.9106e-21)
(0.199634 -0.0979877 8.93341e-21)
(0.187454 -0.435811 -2.5716e-21)
(0.169643 -0.395447 -8.37948e-21)
(0.154647 -0.360239 4.57074e-21)
(0.142051 -0.329624 -4.61772e-21)
(0.131669 -0.303026 -3.74268e-21)
(0.12336 -0.279914 -2.40579e-21)
(0.116964 -0.259829 -8.94365e-21)
(0.112322 -0.242375 6.33577e-21)
(0.109279 -0.227204 -1.67061e-20)
(0.107689 -0.214012 -6.72545e-21)
(0.107418 -0.202535 2.19924e-21)
(0.108337 -0.192536 4.23331e-21)
(0.110332 -0.183811 1.00634e-22)
(0.113293 -0.176175 -9.13735e-21)
(0.117123 -0.169465 2.18759e-21)
(0.121729 -0.163533 -9.41221e-21)
(0.127029 -0.158245 -7.27531e-21)
(0.132943 -0.153478 -4.79709e-21)
(0.139397 -0.149117 -1.31291e-21)
(0.146321 -0.145058 8.05263e-21)
(0.153646 -0.141199 1.24639e-20)
(0.161306 -0.137446 -3.92462e-21)
(0.169233 -0.133711 -4.05412e-21)
(0.17736 -0.129909 7.98815e-21)
(0.185617 -0.125962 4.73752e-21)
(0.193925 -0.121801 -3.7629e-21)
(0.202198 -0.117366 -4.50405e-21)
(0.210423 -0.112577 4.04555e-22)
(0.218705 -0.1073 5.20164e-21)
(0.226397 -0.101719 7.89636e-21)
(0.198774 -0.430711 -6.5496e-22)
(0.180056 -0.390894 1.08466e-20)
(0.164463 -0.356268 9.21911e-21)
(0.151528 -0.326258 7.7141e-21)
(0.141021 -0.30027 -5.16911e-21)
(0.132771 -0.277758 -1.09744e-21)
(0.126587 -0.258255 9.49591e-22)
(0.122286 -0.241359 8.12436e-21)
(0.119692 -0.226718 3.27444e-21)
(0.118642 -0.214027 8.3795e-21)
(0.118985 -0.20302 -1.22776e-20)
(0.120581 -0.193462 1.16574e-21)
(0.123304 -0.185151 5.48104e-21)
(0.127038 -0.177902 3.64142e-21)
(0.131675 -0.171556 8.22973e-21)
(0.137118 -0.165965 -5.44083e-21)
(0.14328 -0.160997 -5.65375e-21)
(0.150077 -0.156531 9.04551e-22)
(0.157433 -0.152453 1.31456e-20)
(0.165275 -0.148656 -2.20424e-20)
(0.173532 -0.145038 7.81189e-21)
(0.182136 -0.141502 -1.26427e-22)
(0.191016 -0.137953 1.66912e-20)
(0.200102 -0.134301 -7.25463e-21)
(0.209322 -0.130459 -2.4654e-22)
(0.218589 -0.126348 -5.15357e-21)
(0.22781 -0.121901 4.98846e-21)
(0.236968 -0.11702 1.2779e-21)
(0.246175 -0.111545 -6.33769e-21)
(0.254716 -0.105692 2.34816e-20)
(0.209979 -0.425361 -1.03126e-20)
(0.190417 -0.386192 -6.69174e-21)
(0.174303 -0.352231 -1.84982e-20)
(0.161107 -0.322893 -9.20639e-21)
(0.150558 -0.297568 8.8701e-21)
(0.142449 -0.275697 -5.75894e-21)
(0.136561 -0.256807 -1.6264e-21)
(0.132683 -0.240489 -4.3388e-21)
(0.130619 -0.22639 7.44229e-21)
(0.130186 -0.214204 -1.81131e-21)
(0.131219 -0.203666 -2.94273e-21)
(0.133565 -0.194544 -4.21254e-22)
(0.137086 -0.186636 -1.4104e-20)
(0.141656 -0.179763 -1.06299e-21)
(0.147161 -0.173766 3.74769e-21)
(0.1535 -0.168501 -5.01217e-22)
(0.160577 -0.16384 -1.74335e-20)
(0.168307 -0.159663 1.76301e-20)
(0.17661 -0.155858 -1.82439e-20)
(0.185412 -0.152318 7.32915e-21)
(0.194642 -0.14894 1.06192e-21)
(0.204227 -0.145624 4.6484e-22)
(0.214098 -0.142272 -8.81908e-21)
(0.224182 -0.138786 3.18065e-21)
(0.234401 -0.13507 7.32358e-23)
(0.244667 -0.131035 1.17048e-21)
(0.254875 -0.1266 -2.64329e-20)
(0.265007 -0.121649 6.86455e-21)
(0.275179 -0.115992 8.03602e-21)
(0.284605 -0.109874 1.0853e-20)
(0.221065 -0.419765 2.04237e-20)
(0.200736 -0.381349 8.21395e-21)
(0.184181 -0.348136 5.06219e-21)
(0.170811 -0.319535 8.26896e-21)
(0.160309 -0.294924 -1.16768e-21)
(0.152431 -0.273732 7.13299e-21)
(0.146927 -0.25548 1.68713e-20)
(0.143559 -0.239757 -2.09676e-21)
(0.142108 -0.226208 1.12195e-21)
(0.142375 -0.214528 2.36405e-20)
(0.144176 -0.204454 -2.99733e-21)
(0.147345 -0.195757 3.6229e-21)
(0.151733 -0.188237 -1.58247e-21)
(0.157206 -0.18172 -5.97993e-22)
(0.163642 -0.176052 2.16408e-20)
(0.170931 -0.171092 8.40011e-22)
(0.178976 -0.166716 2.55608e-20)
(0.187686 -0.162808 -3.07688e-21)
(0.19698 -0.159259 -6.10349e-21)
(0.206781 -0.155963 1.46108e-20)
(0.217018 -0.15282 -1.41981e-20)
(0.227618 -0.149725 1.58938e-20)
(0.238511 -0.146579 9.00433e-21)
(0.249623 -0.143275 -7.8112e-21)
(0.260875 -0.139708 1.18571e-20)
(0.272172 -0.135778 1.3961e-21)
(0.283404 -0.131389 -5.72651e-21)
(0.294546 -0.126401 2.52713e-21)
(0.305721 -0.120587 2.07185e-20)
(0.316065 -0.114226 3.54016e-21)
(0.232031 -0.413929 -3.50428e-21)
(0.211019 -0.376368 -8.06739e-21)
(0.194116 -0.343985 3.66339e-21)
(0.180667 -0.316186 -1.49326e-20)
(0.170306 -0.292337 7.66072e-21)
(0.162754 -0.27186 -1.47236e-20)
(0.157726 -0.254269 -1.05002e-20)
(0.154959 -0.239154 2.96052e-21)
(0.15421 -0.226159 3.53074e-21)
(0.155259 -0.214981 -1.59e-20)
(0.157908 -0.20536 -7.38207e-21)
(0.161977 -0.197071 3.70992e-21)
(0.167305 -0.189919 -1.01934e-20)
(0.173747 -0.183734 -4.33989e-21)
(0.181175 -0.178366 -3.1176e-21)
(0.189472 -0.173682 -3.21975e-21)
(0.198534 -0.169562 -1.42311e-20)
(0.20827 -0.165895 -9.57527e-21)
(0.218594 -0.162576 1.4071e-21)
(0.229429 -0.159505 3.21742e-21)
(0.240702 -0.15658 3.80389e-21)
(0.252344 -0.153702 -1.30735e-20)
(0.264283 -0.150764 5.16088e-21)
(0.276447 -0.147657 -1.09813e-20)
(0.288755 -0.144265 1.09375e-20)
(0.30111 -0.140474 -1.4491e-20)
(0.313395 -0.136173 4.99424e-21)
(0.32558 -0.131193 -7.46993e-21)
(0.337793 -0.125264 -1.12697e-20)
(0.349089 -0.118695 -1.34618e-21)
(0.242876 -0.407857 -7.4735e-21)
(0.221275 -0.371256 -7.27389e-21)
(0.204125 -0.339784 -7.76804e-21)
(0.190698 -0.312848 -6.34917e-21)
(0.180582 -0.289807 1.96173e-20)
(0.173455 -0.270075 3.05192e-21)
(0.169002 -0.253166 9.37068e-21)
(0.166929 -0.238667 1.5213e-20)
(0.166972 -0.226226 7.94634e-21)
(0.168891 -0.215543 -1.05514e-20)
(0.17247 -0.20636 1.86245e-20)
(0.177517 -0.198458 -1.85516e-20)
(0.183857 -0.191647 1.85296e-20)
(0.191336 -0.185762 2.36944e-21)
(0.199818 -0.180661 5.15173e-21)
(0.209178 -0.176215 1.61701e-21)
(0.219309 -0.172312 2.29492e-20)
(0.230113 -0.168847 -3.46993e-21)
(0.241503 -0.165722 3.32254e-21)
(0.253402 -0.162843 1.1853e-20)
(0.265736 -0.160114 -1.34758e-20)
(0.278438 -0.157436 1.13203e-20)
(0.291438 -0.154704 5.20289e-22)
(0.304667 -0.151804 5.49968e-21)
(0.318047 -0.148611 1.04812e-20)
(0.331477 -0.144999 -1.83321e-21)
(0.344836 -0.140836 1.11099e-20)
(0.358092 -0.135922 1.6862e-20)
(0.371375 -0.129936 -1.82864e-20)
(0.383657 -0.123214 -1.31796e-20)
(0.253596 -0.401555 2.25711e-20)
(0.231515 -0.366016 -2.62404e-21)
(0.214226 -0.335533 5.94832e-21)
(0.200932 -0.30952 1.17671e-20)
(0.191167 -0.287329 -3.55183e-20)
(0.184571 -0.268372 4.02536e-21)
(0.180794 -0.25216 -1.51719e-20)
(0.179513 -0.238283 1.60623e-20)
(0.180442 -0.226392 -1.31359e-20)
(0.183319 -0.21619 7.92846e-21)
(0.187913 -0.207427 -2.89743e-20)
(0.194016 -0.199886 3.73498e-22)
(0.201442 -0.193384 -1.1019e-20)
(0.210028 -0.187762 1.66426e-20)
(0.219625 -0.182885 -1.84833e-20)
(0.230106 -0.178632 -1.06733e-21)
(0.241354 -0.174898 -1.65986e-20)
(0.253268 -0.171586 -1.53896e-21)
(0.265759 -0.168608 1.58863e-21)
(0.278747 -0.165877 4.36478e-21)
(0.292161 -0.163304 -2.41213e-20)
(0.305934 -0.160798 -8.63698e-22)
(0.320001 -0.158256 -1.45335e-20)
(0.334298 -0.155564 -3.54595e-21)
(0.34875 -0.152592 -9.65757e-21)
(0.36326 -0.149199 -1.09774e-20)
(0.377704 -0.145234 -1.20059e-20)
(0.392051 -0.14046 1.95536e-20)
(0.406432 -0.134493 5.41304e-21)
(0.419731 -0.127696 -1.26316e-20)
(0.264193 -0.395027 -1.50671e-20)
(0.241748 -0.360651 6.03629e-21)
(0.22444 -0.331234 -1.12111e-20)
(0.211395 -0.306199 1.74108e-21)
(0.202096 -0.284898 2.05946e-20)
(0.19614 -0.266739 -1.07849e-20)
(0.193143 -0.251237 -1.23281e-20)
(0.192755 -0.237983 -1.07854e-20)
(0.194664 -0.226634 4.06172e-22)
(0.198589 -0.216899 7.50409e-21)
(0.204283 -0.208532 -6.0026e-21)
(0.211523 -0.201322 -3.43272e-23)
(0.220111 -0.195092 2.01423e-20)
(0.229871 -0.189692 -1.04491e-20)
(0.240649 -0.184991 3.1295e-21)
(0.252306 -0.180878 -9.4767e-21)
(0.264721 -0.177256 3.62427e-21)
(0.277787 -0.174038 8.40799e-21)
(0.291412 -0.171145 1.01791e-20)
(0.305514 -0.1685 -1.13436e-20)
(0.32002 -0.166028 1.67397e-21)
(0.334868 -0.163646 1.05704e-20)
(0.349998 -0.161261 1.91596e-20)
(0.365351 -0.158763 5.45198e-21)
(0.380862 -0.156022 -2.08758e-20)
(0.396441 -0.152886 2.52509e-20)
(0.411968 -0.149185 -1.27942e-20)
(0.427413 -0.144639 -1.59458e-20)
(0.442914 -0.138793 -1.01178e-20)
(0.457262 -0.132025 -1.6277e-20)
(0.274663 -0.388277 8.26081e-21)
(0.251985 -0.355163 -7.1375e-21)
(0.234785 -0.326886 2.64169e-21)
(0.222114 -0.302881 1.61268e-20)
(0.213398 -0.282504 4.66115e-21)
(0.208196 -0.265164 -4.26995e-21)
(0.206087 -0.25038 1.05514e-20)
(0.206693 -0.237748 2.19049e-21)
(0.209679 -0.226931 1.11487e-20)
(0.214744 -0.217644 6.44955e-21)
(0.221624 -0.209646 1.66248e-22)
(0.230081 -0.202734 4.49284e-21)
(0.239905 -0.196738 -1.49533e-21)
(0.250911 -0.191513 2.72933e-21)
(0.262933 -0.186936 7.97876e-21)
(0.275824 -0.182905 -4.6367e-21)
(0.289457 -0.179329 1.19143e-20)
(0.303719 -0.176134 1.27046e-20)
(0.318511 -0.17325 -1.50853e-20)
(0.333749 -0.170615 1.56876e-20)
(0.34936 -0.168166 3.52311e-20)
(0.365283 -0.165838 -2.34076e-20)
(0.381462 -0.163551 2.45562e-20)
(0.397848 -0.161208 -1.75227e-20)
(0.414389 -0.158685 -2.62546e-21)
(0.431006 -0.155832 2.03201e-20)
(0.44759 -0.152459 -4.02419e-21)
(0.464125 -0.148244 1.62244e-20)
(0.480759 -0.142647 1.66945e-20)
(0.496188 -0.136047 -3.70064e-20)
(0.285007 -0.381309 -8.08792e-21)
(0.262235 -0.349555 3.8651e-21)
(0.245281 -0.322484 1.84592e-21)
(0.233114 -0.299557 -1.91292e-20)
(0.225105 -0.280135 -1.06358e-20)
(0.220772 -0.263631 8.4082e-21)
(0.219661 -0.249569 -2.46898e-20)
(0.221364 -0.237555 3.13067e-20)
(0.225523 -0.227257 -1.83623e-20)
(0.231819 -0.218396 2.29606e-21)
(0.23997 -0.21074 -3.48195e-21)
(0.249725 -0.204092 -1.23578e-20)
(0.260861 -0.198288 2.62109e-20)
(0.273182 -0.19319 1.07065e-20)
(0.286512 -0.188682 -1.10559e-20)
(0.300698 -0.184669 2.73379e-22)
(0.315601 -0.18107 6.82447e-21)
(0.331104 -0.177818 -1.55548e-20)
(0.347101 -0.174856 3.24499e-21)
(0.363502 -0.172136 1.15429e-20)
(0.380232 -0.169612 -4.87618e-21)
(0.397229 -0.167236 8.75413e-21)
(0.414441 -0.164952 -1.7486e-20)
(0.431828 -0.162687 2.61486e-20)
(0.449351 -0.160336 6.61426e-21)
(0.466953 -0.157758 -1.73973e-20)
(0.484546 -0.154764 -1.58581e-20)
(0.502137 -0.150989 -3.49065e-22)
(0.519902 -0.145794 2.2477e-20)
(0.536441 -0.139539 -6.59097e-21)
(0.295225 -0.374126 -2.29498e-21)
(0.272512 -0.343824 -1.79078e-20)
(0.255949 -0.318024 2.1951e-20)
(0.24442 -0.296216 1.57547e-20)
(0.237246 -0.277775 1.6806e-20)
(0.2339 -0.262119 5.19474e-21)
(0.233895 -0.248782 7.80027e-21)
(0.236799 -0.237377 4.21937e-21)
(0.242227 -0.227582 -1.75384e-20)
(0.249844 -0.219125 3.30392e-20)
(0.25935 -0.211782 -2.85678e-20)
(0.27048 -0.205363 -2.32249e-21)
(0.283001 -0.19971 4.24548e-21)
(0.296706 -0.194692 -2.13734e-20)
(0.31141 -0.190199 1.91139e-20)
(0.326949 -0.186142 -5.84693e-21)
(0.34318 -0.182447 -1.59425e-20)
(0.359973 -0.179055 6.61493e-21)
(0.377219 -0.175921 -1.27042e-20)
(0.394818 -0.173007 -1.17356e-20)
(0.412691 -0.170284 -1.31843e-20)
(0.430771 -0.167729 3.07289e-21)
(0.449006 -0.165312 2.06209e-21)
(0.467361 -0.162991 -3.53486e-20)
(0.485812 -0.1607 -1.41847e-20)
(0.504325 -0.158334 8.89355e-21)
(0.522845 -0.155722 1.16903e-20)
(0.541425 -0.152479 -1.64557e-20)
(0.560296 -0.147859 -6.56242e-21)
(0.577971 -0.142171 1.15383e-21)
(0.305318 -0.36673 -1.69992e-21)
(0.28283 -0.337968 1.15754e-20)
(0.266809 -0.313496 -3.35463e-21)
(0.256058 -0.292843 -4.21752e-21)
(0.249845 -0.275404 -2.62911e-20)
(0.247604 -0.260605 -6.34192e-21)
(0.248817 -0.24799 1.20854e-20)
(0.253022 -0.237184 -8.51898e-21)
(0.259814 -0.227874 -1.06251e-21)
(0.268838 -0.219799 -1.7558e-21)
(0.279779 -0.212739 1.09259e-20)
(0.292361 -0.206515 -1.76092e-20)
(0.306338 -0.200974 -1.24429e-20)
(0.321492 -0.195992 1.52612e-20)
(0.337632 -0.191464 -9.1316e-21)
(0.354585 -0.187305 -1.15937e-20)
(0.3722 -0.183447 2.53169e-20)
(0.39034 -0.179837 -4.06013e-21)
(0.408886 -0.176434 1.63715e-20)
(0.427734 -0.173213 -1.51377e-20)
(0.446791 -0.170156 -1.29182e-20)
(0.465985 -0.16726 1.15363e-20)
(0.485257 -0.164524 -1.17368e-21)
(0.504569 -0.161948 -9.17363e-21)
(0.523907 -0.159517 8.33153e-21)
(0.543255 -0.15719 -2.6886e-20)
(0.562599 -0.154866 1.65088e-20)
(0.582064 -0.152185 -2.92158e-22)
(0.601993 -0.148319 -1.826e-20)
(0.620835 -0.143481 2.976e-20)
(0.315294 -0.359125 8.39758e-21)
(0.293206 -0.331982 -2.26056e-20)
(0.277883 -0.308885 -2.13918e-21)
(0.26805 -0.289418 1.19013e-20)
(0.262925 -0.272996 -3.27675e-21)
(0.261907 -0.259059 -9.75759e-21)
(0.264445 -0.247162 4.70942e-21)
(0.270051 -0.236943 5.82179e-21)
(0.278298 -0.228099 5.41876e-22)
(0.288813 -0.22038 7.79853e-21)
(0.301266 -0.213576 2.62604e-20)
(0.315369 -0.207515 -9.23146e-21)
(0.330865 -0.202052 2.7258e-21)
(0.34753 -0.197067 -7.29439e-21)
(0.365163 -0.192461 2.78505e-20)
(0.383587 -0.188152 -5.30823e-21)
(0.402642 -0.184076 1.80599e-20)
(0.422188 -0.18018 -7.36766e-21)
(0.442097 -0.176428 8.17e-21)
(0.462257 -0.172795 1.28473e-20)
(0.482567 -0.169272 2.36276e-21)
(0.502942 -0.165864 9.27705e-21)
(0.523312 -0.162591 -7.97131e-21)
(0.543627 -0.15949 2.25026e-20)
(0.563864 -0.156604 -9.43973e-21)
(0.584015 -0.153984 3.56155e-20)
(0.604091 -0.15166 -1.03367e-20)
(0.624307 -0.149408 7.33054e-21)
(0.645215 -0.146388 -1.41492e-20)
(0.665296 -0.142683 2.83308e-20)
(0.325184 -0.351317 -1.81753e-20)
(0.30367 -0.325853 6.29744e-22)
(0.289193 -0.304169 -1.2852e-20)
(0.280413 -0.285914 2.44049e-21)
(0.276503 -0.270523 7.38714e-22)
(0.276824 -0.257449 -1.30997e-20)
(0.280794 -0.246262 -2.57811e-20)
(0.287897 -0.236615 1.34076e-20)
(0.297685 -0.228217 -1.95878e-20)
(0.309768 -0.22083 -1.09979e-20)
(0.323803 -0.214254 -6.63243e-21)
(0.339489 -0.208327 -5.66334e-21)
(0.356563 -0.202911 3.02286e-22)
(0.37479 -0.197892 -2.12369e-20)
(0.393966 -0.193176 1.50569e-20)
(0.413908 -0.188684 -2.49645e-20)
(0.434455 -0.184353 -6.69188e-21)
(0.455461 -0.18013 7.41838e-21)
(0.476797 -0.175975 9.70046e-21)
(0.498346 -0.17186 1.01491e-20)
(0.520003 -0.167769 8.09639e-21)
(0.541673 -0.163703 -2.07203e-20)
(0.563271 -0.159681 2.15437e-20)
(0.584727 -0.155746 -2.28164e-21)
(0.605989 -0.151972 -6.07466e-21)