/*--------------------------------*- C++ -*----------------------------------*\
| =========                 |                                                 |
| \\      /  F ield         | OpenFOAM: The Open Source CFD Toolbox           |
|  \\    /   O peration     | Version:  v1912                                 |
|   \\  /    A nd           | Website:  www.openfoam.com                      |
|    \\/     M anipulation  |                                                 |
\*---------------------------------------------------------------------------*/
FoamFile
{
    version     2.0;
    format      ascii;
    class       surfaceScalarField;
    location    "13";
    object      phi;
}
// * * * * * * * * * * * * * * * * * * * * * * * * * * * * * * * * * * * * * //

dimensions      [0 3 -1 0 0 0 0];
oriented        oriented;


internalField   nonuniform List<scalar> 
38030
(
-8.40143e-06
-0.00797067
0.00797907
-2.66804e-05
-0.00731083
0.0073291
-5.28405e-05
-0.006706
0.00673216
-8.48966e-05
-0.0061529
0.00618496
-0.000121034
-0.0056479
0.00568404
-0.000159717
-0.00518732
0.00522601
-0.00019967
-0.00476756
0.00480751
-0.000239843
-0.00438516
0.00442533
-0.000279385
-0.00403686
0.00407641
-0.000317617
-0.00371961
0.00375784
-0.000354009
-0.00343055
0.00346694
-0.000388161
-0.00316706
0.00320121
-0.000419788
-0.00292671
0.00295834
-0.000448702
-0.00270729
0.0027362
-0.000474805
-0.00250676
0.00253286
-0.000498071
-0.00232328
0.00234655
-0.000518543
-0.00215518
0.00217565
-0.000536321
-0.00200093
0.00201871
-0.000551557
-0.00185917
0.00187441
-0.000564443
-0.00172866
0.00174154
-0.000575209
-0.00160828
0.00161905
-0.000584114
-0.00149705
0.00150596
-0.000591437
-0.00139409
0.00140141
-0.000597477
-0.0012986
0.00130463
-0.00060254
-0.00120988
0.00121494
-0.000606938
-0.00112733
0.00113173
-0.000610981
-0.0010504
0.00105444
-0.000614969
-0.000978626
0.000982614
-0.000619201
-0.000911566
0.000915798
-0.000848746
0.000853556
-0.000624011
-7.33749e-06
-0.00796333
-2.52662e-05
-0.0072929
-5.09091e-05
-0.00668035
-8.20487e-05
-0.00612176
-0.000116832
-0.00561312
-0.000153711
-0.00515044
-0.000191402
-0.00472987
-0.000228853
-0.00434771
-0.000265213
-0.00400051
-0.000299802
-0.00368502
-0.000332093
-0.00339826
-0.000361692
-0.00313746
-0.000388318
-0.00290009
-0.000411789
-0.00268382
-0.000432015
-0.00248653
-0.00044898
-0.00230632
-0.000462738
-0.00214142
-0.000473399
-0.00199027
-0.00048113
-0.00185144
-0.000486138
-0.00172365
-0.000488672
-0.00160575
-0.000489007
-0.00149672
-0.000487448
-0.00139565
-0.000484314
-0.00130173
-0.000479935
-0.00121426
-0.000474648
-0.00113262
-0.000468782
-0.00105626
-0.000462656
-0.000984752
-0.000456568
-0.000917654
-0.000854448
-0.000450866
-6.91629e-06
-0.00795642
-2.41841e-05
-0.00727563
-4.89021e-05
-0.00665564
-7.87282e-05
-0.00609193
-0.000111745
-0.0055801
-0.00014637
-0.00511582
-0.000181304
-0.00469493
-0.000215486
-0.00431353
-0.000248059
-0.00396793
-0.000278346
-0.00365473
-0.00030582
-0.00337079
-0.000330089
-0.00311319
-0.000350876
-0.0028793
-0.000368007
-0.00266668
-0.000381395
-0.00247315
-0.000391033
-0.00229668
-0.000396983
-0.00213547
-0.000399368
-0.00198789
-0.000398366
-0.00185244
-0.0003942
-0.00172781
-0.000387135
-0.00161281
-0.000377472
-0.00150638
-0.000365535
-0.00140758
-0.000351675
-0.00131559
-0.000336252
-0.00122968
-0.000319635
-0.00114923
-0.00030219
-0.00107371
-0.000284273
-0.00100267
-0.000266185
-0.000935741
-0.000872651
-0.000247982
-6.64611e-06
-0.00794977
-2.31781e-05
-0.0072591
-4.67309e-05
-0.00663208
-7.49227e-05
-0.00606374
-0.000105794
-0.00554923
-0.000137736
-0.00508388
-0.00016943
-0.00466324
-0.000199806
-0.00428315
-0.000228004
-0.00393973
-0.000253345
-0.00362939
-0.000275302
-0.00334883
-0.000293487
-0.00309501
-0.000307625
-0.00286516
-0.000317544
-0.00265677
-0.000323163
-0.00246753
-0.00032448
-0.00229536
-0.000321565
-0.00213839
-0.000314549
-0.0019949
-0.000303621
-0.00186337
-0.000289021
-0.00174241
-0.00027103
-0.0016308
-0.000249969
-0.00152744
-0.000226192
-0.00143136
-0.000200077
-0.0013417
-0.000172026
-0.00125773
-0.000142456
-0.0011788
-0.000111786
-0.00110438
-8.04455e-05
-0.00103401
-4.89443e-05
-0.000967243
-0.000903502
-1.80941e-05
-6.39358e-06
-0.00794338
-2.21189e-05
-0.00724337
-4.43209e-05
-0.00660988
-7.06023e-05
-0.00603746
-9.89812e-05
-0.00552085
-0.00012783
-0.00505503
-0.000155818
-0.00463525
-0.000181869
-0.0042571
-0.00020512
-0.00391648
-0.00022489
-0.00360962
-0.000240655
-0.00333306
-0.000252025
-0.00308364
-0.000258729
-0.00285846
-0.000260597
-0.0026549
-0.00025755
-0.00247057
-0.00024959
-0.00230332
-0.000236791
-0.00215119
-0.000219291
-0.0020124
-0.00019729
-0.00188537
-0.000171038
-0.00176867
-0.000140832
-0.00166101
-0.000107014
-0.00156126
-6.99601e-05
-0.00146841
-3.00765e-05
-0.00138159
1.22066e-05
-0.00130002
5.64432e-05
-0.00122304
0.000102181
-0.00115012
0.000148971
-0.0010808
0.000196401
-0.00101467
-0.000951389
0.000244288
-6.11966e-06
-0.00793726
-2.09509e-05
-0.00722854
-4.16278e-05
-0.0065892
-6.57428e-05
-0.00601335
-9.1301e-05
-0.0054953
-0.000116665
-0.00502967
-0.000140498
-0.00461142
-0.000161722
-0.00423588
-0.000179471
-0.00389873
-0.000193066
-0.00359603
-0.000201984
-0.00332415
-0.000205837
-0.00307978
-0.000204354
-0.00285994
-0.000197365
-0.00266189
-0.000184792
-0.00248315
-0.000166639
-0.00232148
-0.000142983
-0.00217485
-0.000113966
-0.00204142
-7.97925e-05
-0.00191954
-4.0724e-05
-0.00180773
2.92774e-06
-0.00170466
5.0804e-05
-0.00160914
0.000102505
-0.00152011
0.000157594
-0.00143668
0.000215608
-0.00135803
0.000276059
-0.00128349
0.000338446
-0.0012125
0.000402269
-0.00114462
0.000467031
-0.00107944
-0.00101655
0.000532196
-5.8107e-06
-0.00793145
-1.96485e-05
-0.0072147
-3.8627e-05
-0.00657023
-6.03275e-05
-0.00599165
-8.27486e-05
-0.00547287
-0.000104249
-0.00500817
-0.000123493
-0.00459217
-0.0001394
-0.00421997
-0.000151111
-0.00388702
-0.000157948
-0.00358919
-0.000159389
-0.0033227
-0.000155049
-0.00308412
-0.000144655
-0.00287033
-0.00012804
-0.0026785
-0.000105123
-0.00250606
-7.59074e-05
-0.00235069
-4.0469e-05
-0.00221028
1.04778e-06
-0.00208294
4.84347e-05
-0.00196693
0.000101424
-0.00186072
0.000159692
-0.00176293
0.000222862
-0.00167231
0.000290511
-0.00158776
0.000362173
-0.00150834
0.000437342
-0.0014332
0.000515482
-0.00136163
0.000596032
-0.00129305
0.000678417
-0.00122701
0.000762043
-0.00116306
-0.00110078
0.000846273
-5.46293e-06
-0.00792598
-1.82005e-05
-0.00720197
-3.53044e-05
-0.00655312
-5.43455e-05
-0.0059726
-7.3319e-05
-0.0054539
-9.05859e-05
-0.0049909
-0.000104814
-0.00457795
-0.000114932
-0.00420985
-0.000120083
-0.00388187
-0.000119595
-0.00358968
-0.000112952
-0.00332935
-9.97686e-05
-0.00309731
-7.97749e-05
-0.00289033
-5.28003e-05
-0.00270548
-1.8763e-05
-0.0025401
2.23382e-05
-0.00239179
7.04305e-05
-0.00225838
0.000125371
-0.00213788
0.000186952
-0.00202851
0.000254902
-0.00192867
0.000328888
-0.00183691
0.00040852
-0.00175194
0.000493352
-0.0016726
0.000582885
-0.00159787
0.000676573
-0.00152689
0.000773827
-0.00145889
0.000874021
-0.00139325
0.000976501
-0.00132949
0.00108058
-0.00126714
-0.00120575
0.00118555
-5.07548e-06
-0.00792091
-1.6602e-05
-0.00719044
-3.1652e-05
-0.00653807
-4.77875e-05
-0.00595647
-6.30052e-05
-0.00543868
-7.56726e-05
-0.00497823
-8.44681e-05
-0.00456915
-8.83294e-05
-0.00420599
-8.64112e-05
-0.00388379
-7.80501e-05
-0.00359804
-6.27355e-05
-0.00334466
-4.00863e-05
-0.00311996
-9.83309e-06
-0.00292058
2.81966e-05
-0.00274351
7.40883e-05
-0.00258599
0.000127849
-0.00244555
0.000189412
-0.00231994
0.000258641
-0.00220711
0.000335331
-0.0021052
0.000419212
-0.00201255
0.000509946
-0.00192765
0.000607134
-0.00184913
0.000710308
-0.00177577
0.000818942
-0.00170651
0.000932449
-0.00164039
0.00105019
-0.00157662
0.00117146
-0.00151452
0.00129554
-0.00145357
0.00142165
-0.00139325
-0.00133306
0.00154896
-4.64866e-06
-0.00791626
-1.48495e-05
-0.00718024
-2.76627e-05
-0.00652526
-4.0644e-05
-0.00594349
-5.1796e-05
-0.00542753
-5.9499e-05
-0.00497053
-6.24466e-05
-0.0045662
-5.95922e-05
-0.00420885
-5.01055e-05
-0.00389328
-3.33351e-05
-0.00361481
-8.77975e-06
-0.00336922
2.39357e-05
-0.00315267
6.5079e-05
-0.00296172
0.000114824
-0.00279325
0.000173261
-0.00264443
0.000240406
-0.0025127
0.0003162
-0.00239573
0.000400517
-0.00229142
0.000493162
-0.00219785
0.00059387
-0.00211326
0.000702305
-0.00203608
0.000818062
-0.00196488
0.000940661
-0.00189837
0.00106955
-0.00183539
0.0012041
-0.00177495
0.00134362
-0.00171614
0.00148736
-0.00165826
0.00163449
-0.00160069
0.00178414
-0.0015429
-0.0014843
0.00193538
-4.18229e-06
-0.00791208
-1.29396e-05
-0.00717148
-2.33283e-05
-0.00651487
-3.2902e-05
-0.00593391
-3.96748e-05
-0.00542076
-4.20459e-05
-0.00496816
-3.87303e-05
-0.00456952
-2.8703e-05
-0.00421887
-1.11533e-05
-0.00391083
1.45529e-05
-0.00364052
4.89039e-05
-0.00340357
9.22664e-05
-0.00319603
0.000144904
-0.00301436
0.000206991
-0.00285534
0.000278625
-0.00271606
0.000359828
-0.0025939
0.000450556
-0.00248646
0.000550697
-0.00239156
0.000660069
-0.00230722
0.00077842
-0.00223161
0.000905425
-0.00216309
0.00104068
-0.00210014
0.00118369
-0.00204138
0.0013339
-0.0019856
0.00149064
-0.00193169
0.00165318
-0.00187868
0.00182068
-0.00182576
0.00199224
-0.00177226
0.00216689
-0.00171755
-0.00166098
0.00234358
-3.67563e-06
-0.0079084
-1.08672e-05
-0.00716429
-1.86384e-05
-0.0065071
-2.45443e-05
-0.00592801
-2.66177e-05
-0.00541869
-2.32838e-05
-0.00497149
-1.32858e-05
-0.00457952
4.37356e-06
-0.00423653
3.04791e-05
-0.00393693
6.56426e-05
-0.00367568
0.000110335
-0.00344826
0.000164909
-0.00325061
0.000229623
-0.00307907
0.00030465
-0.00293037
0.000390091
-0.0028015
0.000485981
-0.00268979
0.000592289
-0.00259277
0.000708921
-0.0025082
0.000835717
-0.00243401
0.000972444
-0.00236834
0.00111879
-0.00230944
0.00127437
-0.00225571
0.0014387
-0.00220571
0.00161119
-0.00215809
0.00179116
-0.00211166
0.00197784
-0.00206535
0.00217032
-0.00201825
0.00236763
-0.00196957
0.00256868
-0.00191859
-0.00186456
0.00277226
-3.12683e-06
-0.00790528
-8.62553e-06
-0.00715879
-1.35794e-05
-0.00650214
-1.55488e-05
-0.00592604
-1.25936e-05
-0.00542164
-3.17312e-06
-0.00498091
1.39341e-05
-0.00459662
3.96903e-05
-0.00426229
7.48478e-05
-0.00397209
0.00011999
-0.00372082
0.000175563
-0.00350383
0.000241905
-0.00331695
0.00031926
-0.00315643
0.000407799
-0.0030189
0.000507625
-0.00290133
0.000618784
-0.00280095
0.000741262
-0.00271525
0.000874986
-0.00264192
0.00101982
-0.00257885
0.00117557
-0.00252408
0.00134193
-0.00247581
0.00151856
-0.00243234
0.00170497
-0.00239212
0.00190059
-0.00235371
0.00210473
-0.0023158
0.00231657
-0.00227719
0.00253516
-0.00223683
0.00275942
-0.00219383
0.00298816
-0.00214733
-0.00209643
0.00322003
-2.53034e-06
-0.00790275
-6.20454e-06
-0.00715512
-8.13454e-06
-0.00650021
-5.8881e-06
-0.00592829
2.4361e-06
-0.00542996
1.83361e-05
-0.00499681
4.299e-05
-0.00462128
7.73173e-05
-0.00429662
0.00012203
-0.0040168
0.000177677
-0.00377647
0.000244673
-0.00357083
0.000323332
-0.00339561
0.000413883
-0.00324698
0.000516486
-0.00312151
0.000631247
-0.00301609
0.000758217
-0.00292792
0.000897401
-0.00285443
0.00104875
-0.00279327
0.00121216
-0.00274226
0.00138747
-0.00269939
0.00157443
-0.00266276
0.0017727
-0.00263061
0.00198184
-0.00260127
0.00220131
-0.00257318
0.0024304
-0.0025449
0.00266829
-0.00251507
0.00291396
-0.00248251
0.00316628
-0.00244615
0.00342391
-0.00240497
-0.00235789
0.00368537
-1.8635e-06
-0.00790088
-3.59276e-06
-0.00715339
-2.28926e-06
-0.00650152
4.46842e-06
-0.00593504
1.85159e-05
-0.00544401
4.13018e-05
-0.0050196
7.39531e-05
-0.00465393
0.000117339
-0.00434
0.000172123
-0.00407159
0.000238809
-0.00384316
0.000317777
-0.0036498
0.000409306
-0.00348714
0.000513602
-0.00335128
0.000630812
-0.00323872
0.000761033
-0.00314631
0.000904324
-0.00307121
0.0010607
-0.00301081
0.00123015
-0.00296272
0.00141259
-0.00292471
0.00160791
-0.00289471
0.0018159
-0.00287076
0.00203629
-0.00285099
0.00226868
-0.00283366
0.00251254
-0.00281705
0.00276723
-0.00279958
0.00303188
-0.00277973
0.00330548
-0.00275611
0.0035868
-0.00272747
0.0038744
-0.00269257
-0.00265013
0.00416664
-1.09568e-06
-0.00789979
-8.86637e-07
-0.0071536
3.97122e-06
-0.00650638
1.55578e-05
-0.00594663
3.56952e-05
-0.00546415
6.57879e-05
-0.00504969
0.000106903
-0.00469504
0.00015985
-0.00439295
0.000225236
-0.00413697
0.000303513
-0.00392143
0.000395011
-0.0037413
0.000499972
-0.0035921
0.000618568
-0.00346987
0.000750922
-0.00337107
0.000897118
-0.00329251
0.00105721
-0.00323131
0.00123123
-0.00318483
0.00141919
-0.00315067
0.00162104
-0.00312656
0.00183671
-0.00311038
0.00206607
-0.00310011
0.0023089
-0.00309382
0.00256487
-0.00308962
0.00283352
-0.0030857
0.00311423
-0.00308029
0.00340619
-0.00307168
0.00370836
-0.00305828
0.00401946
-0.00303857
0.00433796
-0.00301107
-0.0029742
0.00466203
-3.69141e-07
-0.00789942
2.19588e-06
-0.00715616
1.07188e-05
-0.0065149
2.7421e-05
-0.00596333
5.40264e-05
-0.00549075
9.1861e-05
-0.00508752
0.000141922
-0.00474511
0.00020495
-0.00445598
0.000281488
-0.00421351
0.000371923
-0.00401187
0.000476532
-0.0038459
0.000595503
-0.00371107
0.000728965
-0.00360334
0.000877007
-0.00351911
0.00103969
-0.00345519
0.00121706
-0.00340867
0.00140914
-0.00337692
0.00161596
-0.00335749
0.00183752
-0.00334812
0.0020738
-0.00334666
0.00232473
-0.00335104
0.00259017
-0.00335926
0.00286988
-0.00336934
0.0031635
-0.00337932
0.00347047
-0.00338727
0.00379005
-0.00339126
0.00412121
-0.00338944
0.00446266
-0.00338002
0.00481277
-0.00336118
-0.00333099
0.00516956
4.59515e-07
-0.00789988
5.46994e-06
-0.00716117
1.79419e-05
-0.00652737
4.00894e-05
-0.00598548
7.35559e-05
-0.00552422
0.000119583
-0.00513355
0.00017909
-0.00480461
0.000252738
-0.00452962
0.000340995
-0.00430177
0.00044418
-0.00411505
0.000562499
-0.00396422
0.00069608
-0.00384465
0.000844996
-0.00375225
0.00100929
-0.0036834
0.00118898
-0.00363488
0.00138409
-0.00360378
0.00159464
-0.00358746
0.00182065
-0.00358351
0.00206217
-0.00358964
0.00231922
-0.00360371
0.0025918
-0.00362362
0.00287986
-0.00364733
0.00318329
-0.00367276
0.00350182
-0.00369785
0.00383503
-0.00372048
0.00418227
-0.00373849
0.00454258
-0.00374974
0.00491467
-0.00375211
0.00529687
-0.00374338
-0.00372116
0.00568705
1.3943e-06
-0.00790127
8.94934e-06
-0.00716873
2.56495e-05
-0.00654407
5.35882e-05
-0.00601342
9.43232e-05
-0.00556496
0.000149009
-0.00518824
0.000218475
-0.00487408
0.000303299
-0.00461445
0.000403865
-0.00440233
0.000520411
-0.0042316
0.000653066
-0.00409688
0.000801885
-0.00399347
0.000966871
-0.00391724
0.001148
-0.00386454
0.00134525
-0.00383213
0.00155859
-0.00381712
0.00178801
-0.00381689
0.00203354
-0.00382903
0.00229522
-0.00385132
0.00257312
-0.00388161
0.00286731
-0.00391782
0.00317786
-0.00395787
0.00350476
-0.00399967
0.00384792
-0.00404101
0.00420707
-0.00407962
0.00458169
-0.00411312
0.00497097
-0.00413903
0.00537369
-0.00415483
0.00578815
-0.00415784
-0.00414513
0.00621212
2.26388e-06
-0.00790353
1.26461e-05
-0.00717911
3.38595e-05
-0.00656528
6.7939e-05
-0.0060475
0.000116359
-0.00561338
0.000180177
-0.00525206
0.000260129
-0.00495403
0.000356698
-0.00471102
0.000470178
-0.00451581
0.000600718
-0.00436214
0.00074836
-0.00424452
0.000913073
-0.00415818
0.00109478
-0.00409894
0.00129338
-0.00406314
0.00150877
-0.00404752
0.00174086
-0.00404921
0.00198959
-0.00406562
0.00225496
-0.0040944
0.002537
-0.00413336
0.00283579
-0.0041804
0.00315148
-0.00423351
0.00348423
-0.00429062
0.00383418
-0.00434961
0.0042014
-0.00440824
0.00458586
-0.00446408
0.00498724
-0.00451451
0.00540494
-0.00455672
0.00583787
-0.00458776
0.0062844
-0.00460436
-0.00460293
0.0067422
3.25433e-06
-0.00790679
1.65923e-05
-0.00719245
4.25844e-05
-0.00659128
8.31566e-05
-0.00608807
0.000139682
-0.0056699
0.000213112
-0.00532549
0.00030408
-0.005045
0.00041297
-0.00481991
0.000539978
-0.00464282
0.000685158
-0.00450732
0.000848458
-0.00440782
0.00102975
-0.00433948
0.00122887
-0.00429806
0.00144561
-0.00427988
0.00167978
-0.00428169
0.00193121
-0.00430063
0.00219975
-0.00433416
0.00248533
-0.00437998
0.00278795
-0.00443598
0.00310769
-0.00450014
0.00344472
-0.00457053
0.00379927
-0.00464517
0.00417165
-0.00472199
0.00456213
-0.00479872
0.00497092
-0.00487287
0.00539803
-0.00494162
0.00584313
-0.00500182
0.00630539
-0.00505002
0.00678332
-0.00508229
-0.00509421
0.00727459
4.33134e-06
-0.00791112
2.07899e-05
-0.00720891
5.18285e-05
-0.00662232
9.92446e-05
-0.00613549
0.000164292
-0.00573495
0.00024781
-0.005409
0.00035032
-0.00514751
0.000472103
-0.00494169
0.000613255
-0.00478397
0.000773728
-0.00466779
0.00095337
-0.00458746
0.00115195
-0.00453806
0.0013692
-0.00451531
0.00160481
-0.00451548
0.00185847
-0.00453535
0.00212989
-0.00457205
0.00241882
-0.0046231
0.0027251
-0.00468626
0.00304862
-0.0047595
0.00338941
-0.00484094
0.00374763
-0.00492875
0.00412357
-0.00502111
0.00451763
-0.00511605
0.00493033
-0.00521142
0.00536216
-0.0053047
0.0058135
-0.00539296
0.00628445
-0.00547277
0.00677458
-0.00554015
0.00728269
-0.00559039
-0.00561806
0.00780653
5.47873e-06
-0.0079166
2.5234e-05
-0.00722866
6.15884e-05
-0.00665867
0.000116194
-0.00619009
0.000190172
-0.00580893
0.000284238
-0.00550307
0.000398801
-0.00526207
0.000534034
-0.00507692
0.000689929
-0.00493987
0.000866336
-0.0048442
0.001063
-0.00478413
0.00127959
-0.00475465
0.00151572
-0.00475143
0.00177095
-0.00477072
0.00204487
-0.00480926
0.00233704
-0.00486422
0.00264708
-0.00493314
0.00297466
-0.00501384
0.00331955
-0.00510439
0.00368167
-0.00520305
0.00406108
-0.00530816
0.00445804
-0.00541808
0.00487305
-0.00553106
0.00530677
-0.00564514
0.00576003
-0.00575796
0.00623367
-0.0058666
0.00672833
-0.00596744
0.00724419
-0.00605601
0.00778055
-0.00612675
-0.00617292
0.00833541
6.69049e-06
-0.00792329
2.99209e-05
-0.00725189
7.18569e-05
-0.00670061
0.000133986
-0.00625222
0.000217283
-0.00589222
0.000322333
-0.00560812
0.000449429
-0.00538917
0.000598635
-0.00522613
0.000769839
-0.00511107
0.000962793
-0.00503715
0.00117714
-0.00499847
0.00141244
-0.00498995
0.00166819
-0.00500718
0.00194385
-0.00504638
0.00223885
-0.00510426
0.00255261
-0.00517799
0.00288459
-0.00526512
0.00323427
-0.00536352
0.00360125
-0.00547137
0.00398523
-0.00558703
0.0043861
-0.00570903
0.004804
-0.00583598
0.00523937
-0.00596643
0.00569297
-0.00609874
0.0061659
-0.00623089
0.00665948
-0.00636019
0.00717509
-0.00648305
0.00771375
-0.00659467
0.00827558
-0.00668857
-0.00675642
0.00885907
7.96583e-06
-0.00793126
3.4851e-05
-0.00727878
8.26264e-05
-0.00674838
0.000152591
-0.00632219
0.000245562
-0.00598519
0.000361992
-0.00572455
0.000502054
-0.00552923
0.000665704
-0.00538978
0.00085273
-0.0052981
0.00106278
-0.00524721
0.00129541
-0.0052311
0.00155008
-0.00524461
0.00182617
-0.00528328
0.00212303
-0.00534324
0.00243996
-0.00542119
0.00277624
-0.00551427
0.00313113
-0.00562001
0.00350394
-0.00573633
0.003894
-0.00586143
0.00430075
-0.00599379
0.00472382
-0.0061321
0.00516307
-0.00627522
0.00561871
-0.00642206
0.00609141
-0.00657144
0.00658239
-0.00672187
0.00709341
-0.0068712
0.00762664
-0.00701628
0.00818428
-0.00715231
0.00876776
-0.00727206
-0.00736517
0.00937652
9.31151e-06
-0.00794057
4.00356e-05
-0.0073095
9.38939e-05
-0.00680224
0.000171974
-0.00640027
0.00027493
-0.00608815
0.000403078
-0.0058527
0.000556473
-0.00568262
0.000734966
-0.00556827
0.000938245
-0.00550138
0.00116587
-0.00547483
0.00141729
-0.00548253
0.00169189
-0.00551921
0.00198895
-0.00558034
0.00230773
-0.00566202
0.00264741
-0.00576087
0.00300713
-0.00587399
0.00338601
-0.00599889
0.00378313
-0.00613345
0.00419759
-0.00627589
0.00462853
-0.00642472
0.00507519
-0.00657876
0.00553701
-0.00673704
0.00601376
-0.00689882
0.00650573
-0.00706341
0.00701391
-0.00723005
0.00754022
-0.00739751
0.00808755
-0.0075636
0.00865956
-0.00772431
0.00925972
-0.00787222
-0.00799448
0.00988902
1.07527e-05
-0.00795132
4.55097e-05
-0.00734426
0.000105669
-0.0068624
0.000192096
-0.00648669
0.000305283
-0.00620134
0.000445415
-0.00599283
0.000612429
-0.00584964
0.000806068
-0.00576191
0.00102592
-0.00572123
0.00127147
-0.00572037
0.00154206
-0.00575313
0.00183702
-0.00581416
0.00215555
-0.00589887
0.00249682
-0.00600329
0.00285993
-0.00612399
0.00324395
-0.006258
0.00364785
-0.00640279
0.00407058
-0.00655618
0.00451102
-0.00671633
0.00496802
-0.00688173
0.00544044
-0.00705117
0.00592718
-0.00722379
0.00642739
-0.00739902
0.00694058
-0.0075766
0.00746702
-0.00775649
0.00800812
-0.00793861
0.00856691
-0.00812239
0.00914839
-0.00830579
0.0097589
-0.00848273
-0.0086378
0.0104022
1.23609e-05
-0.00796368
5.13571e-05
-0.00738325
0.000117986
-0.00692903
0.000212915
-0.00658162
0.000336497
-0.00632492
0.000488788
-0.00614512
0.000669607
-0.00603046
0.000878585
-0.00597089
0.00111521
-0.00595786
0.00137887
-0.00598403
0.00166886
-0.00604311
0.0019844
-0.0061297
0.00232466
-0.00623913
0.00268876
-0.00636739
0.00307576
-0.00651099
0.00348468
-0.00666692
0.00391445
-0.00683257
0.00436395
-0.00700569
0.00483198
-0.00718435
0.0053172
-0.00736695
0.00581821
-0.00755217
0.00633346
-0.00773904
0.00686139
-0.00792695
0.00740053
-0.00811574
0.0079498
-0.00830576
0.00850907
-0.00849788
0.00908005
-0.00869337
0.00966763
-0.00889337
0.0102811
-0.00909618
-0.00928919
0.0109325
1.43659e-05
-0.00797805
5.77771e-05
-0.00742667
0.000130911
-0.00700216
0.000234378
-0.00668509
0.000368416
-0.00645896
0.000532943
-0.00630965
0.000727645
-0.00622516
0.00095203
-0.00619528
0.00120548
-0.00621131
0.00148729
-0.00626584
0.00179666
-0.00635249
0.00213278
-0.00646581
0.00249475
-0.00660111
0.00288169
-0.00675432
0.00329263
-0.00692194
0.00372662
-0.00710091
0.00418264
-0.00728859
0.00465963
-0.00748267
0.00515644
-0.00768117
0.00567183
-0.00788235
0.00620441
-0.00808475
0.00675255
-0.00828718
0.00731436
-0.00848876
0.00788762
-0.00868899
0.00846979
-0.00888793
0.00905835
-0.00908645
0.00965157
-0.0092866
0.0102505
-0.00949232
0.0108645
-0.00971017
-0.00995306
0.0115284
1.75387e-05
-0.00799558
6.51504e-05
-0.00747428
0.000144505
-0.00708152
0.000256378
-0.00679696
0.000400827
-0.00660341
0.000577573
-0.0064864
0.000786132
-0.00643372
0.00102587
-0.00643501
0.00129603
-0.00648148
0.00159582
-0.00656562
0.00192436
-0.00668103
0.00228075
-0.00682221
0.00266408
-0.00698444
0.00307342
-0.00716367
0.00350786
-0.00735637
0.00396648
-0.00755952
0.00444837
-0.00777047
0.00495264
-0.00798695
0.00547842
-0.00820695
0.00602484
-0.00842876
0.00659098
-0.00865089
0.00717588
-0.00887208
0.00777842
-0.00909131
0.00839719
-0.00930777
0.00903031
-0.00952104
0.00967518
-0.00973132
0.0103283
-0.0099397
0.0109842
-0.0101482
0.0116379
-0.0103639
-0.0106103
0.0122951
0.00899469
4.61468e-05
-0.00904084
0.00894948
4.52099e-05
0.00890457
4.4915e-05
0.0088598
4.47646e-05
0.00881521
4.45959e-05
0.00877086
4.43517e-05
0.00872685
4.40097e-05
0.00868328
4.35634e-05
0.00864027
4.3013e-05
0.00859791
4.23625e-05
0.00855629
4.16167e-05
0.00851551
4.07811e-05
0.00847565
3.98619e-05
0.00843678
3.88649e-05
0.00839899
3.77964e-05
0.00836232
3.66622e-05
0.00832686
3.54683e-05
0.00829264
3.42202e-05
0.00825971
3.29231e-05
0.00822813
3.15823e-05
0.00819793
3.02024e-05
0.00816914
2.87883e-05
0.0081418
2.73442e-05
0.00811592
2.58744e-05
0.00809154
2.4381e-05
0.00806868
2.28608e-05
0.00804738
2.12943e-05
0.00802776
1.962e-05
0.00801014
1.76246e-05
1.4555e-05
0.0102903
0.000164861
-0.010409
0.0101704
0.000165098
0.0100499
0.000165447
0.00992898
0.000165657
0.00980799
0.000165583
0.00968719
0.000165155
0.00956686
0.000164339
0.0094473
0.000163126
0.00932879
0.000161517
0.00921163
0.000159523
0.00909609
0.000157159
0.00898243
0.000154444
0.00887089
0.000151397
0.00876172
0.000148038
0.00865513
0.000144387
0.00855132
0.000140467
0.00845049
0.000136298
0.00835281
0.000131899
0.00825845
0.000127291
0.00816754
0.00012249
0.00808023
0.000117515
0.00799663
0.000112381
0.00791687
0.000107104
0.00784105
0.000101697
0.00776927
9.61661e-05
0.00770162
9.05091e-05
0.00763821
8.46981e-05
0.00757918
7.8656e-05
0.00752461
7.2188e-05
6.4892e-05
0.0115509
0.000344111
-0.0117301
0.0113688
0.000347143
0.0111848
0.000349501
0.0109993
0.00035112
0.010813
0.00035193
0.0106262
0.000351884
0.0104396
0.00035096
0.0102536
0.000349156
0.0100686
0.000346483
0.00988516
0.000342964
0.0097037
0.000338627
0.00952463
0.000333508
0.00934838
0.000327645
0.00917534
0.00032108
0.00900588
0.000313853
0.00884034
0.000306008
0.00867905
0.000297587
0.00852232
0.000288631
0.00837043
0.00027918
0.00822365
0.000269272
0.00808221
0.000258945
0.00794636
0.000248232
0.0078163
0.000237164
0.00769223
0.00022577
0.00757432
0.000214073
0.00746275
0.000202084
0.00735765
0.000189796
0.00725914
0.000177172
0.00716719
0.000164129
0.00015057
0.0127667
0.000573129
-0.0129957
0.0125333
0.000580559
0.0122963
0.000586463
0.0120566
0.000590851
0.0118148
0.000593703
0.0115717
0.000595004
0.0113279
0.000594751
0.0110841
0.000592956
0.010841
0.000589644
0.0105991
0.000584854
0.0103591
0.000578632
0.0101216
0.000571034
0.00988708
0.00056212
0.0096562
0.000551956
0.00942944
0.00054061
0.0092073
0.000528149
0.00899025
0.000514644
0.00877872
0.000500161
0.00857313
0.000484768
0.00837387
0.000468528
0.00818131
0.000451502
0.0079958
0.000433747
0.00781764
0.00041532
0.00764714
0.000396271
0.00748457
0.000376648
0.00733016
0.000356493
0.00718411
0.00033584
0.00704657
0.000314713
0.00691757
0.000293136
0.000271174
0.0139299
0.000842138
-0.0141989
0.0136547
0.000855726
0.0133743
0.000866874
0.0130896
0.000875607
0.0128013
0.000881928
0.0125105
0.000885845
0.0122179
0.00088737
0.0119243
0.00088653
0.0116306
0.000883366
0.0113375
0.000877932
0.0110458
0.000870295
0.0107563
0.00086053
0.0104697
0.000848723
0.0101867
0.000834966
0.00990798
0.000819354
0.00963414
0.000801985
0.00936582
0.000782959
0.00910361
0.000762373
0.00884806
0.000740324
0.00859968
0.000716904
0.00835898
0.000692204
0.00812642
0.00066631
0.00790243
0.000639305
0.00768743
0.000611273
0.00748178
0.000582293
0.00728583
0.000552447
0.00709985
0.000521821
0.00692405
0.000490508
0.00675857
0.000458624
0.000426335
0.0150341
0.00114239
-0.0153344
0.0147258
0.00116402
0.0144104
0.00118224
0.014089
0.00119706
0.0137624
0.00120847
0.0134318
0.0012165
0.013098
0.00122117
0.012762
0.00122251
0.0124248
0.00122058
0.0120873
0.00121544
0.0117504
0.00120718
0.011415
0.0011959
0.0110821
0.0011817
0.0107523
0.0011647
0.0104266
0.00114503
0.0101058
0.00112282
0.00979058
0.00109819
0.00948169
0.00107127
0.00917981
0.0010422
0.00888561
0.0010111
0.00859972
0.000978094
0.00832274
0.000943293
0.00805523
0.000906816
0.00779772
0.00086878
0.0075507
0.000829305
0.00731463
0.000788518
0.00708989
0.000746563
0.0068768
0.000703603
0.00667558
0.000659838
0.000615522
0.0160748
0.00146609
-0.0163985
0.0157411
0.00149773
0.0153984
0.00152493
0.0150478
0.00154767
0.0146903
0.00156595
0.014327
0.00157976
0.0139591
0.00158913
0.0135875
0.0015941
0.0132133
0.00159472
0.0128377
0.00159108
0.0124616
0.00158326
0.0120861
0.00157139
0.0117122
0.0015556
0.0113409
0.00153602
0.0109731
0.00151281
0.0106098
0.00148612
0.0102519
0.00145612
0.00990019
0.00142298
0.00955554
0.00138685
0.00921876
0.00134788
0.00889062
0.00130624
0.00857183
0.00126207
0.00826312
0.00121553
0.00796514
0.00116676
0.00767853
0.00111592
0.00740385
0.0010632
0.00714163
0.00100878
0.00689231
0.000952925
0.00665625
0.0008959
0.000838054
0.0170489
0.00180632
-0.0173891
0.0166966
0.00184996
0.0163335
0.0018881
0.0159605
0.00192067
0.0155788
0.00194766
0.0151895
0.00196904
0.0147938
0.00198482
0.0143929
0.00199502
0.0139879
0.00199971
0.01358
0.00199896
0.0131704
0.00199289
0.0127602
0.0019816
0.0123505
0.00196526
0.0119425
0.00194401
0.0115373
0.00191805
0.0111358
0.00188756
0.0107392
0.00185272
0.0103485
0.00181373
0.00996457
0.00177078
0.00958839
0.00172406
0.00922087
0.00167376
0.0088629
0.00162005
0.00851531
0.00156312
0.00817892
0.00150315
0.00785451
0.00144034
0.00754279
0.00137491
0.00724444
0.00130714
0.00696004
0.00123732
0.0066901
0.00116584
0.00109314
0.0179546
0.002157
-0.0183052
0.0175899
0.00221459
0.0172124
0.00226561
0.0168231
0.00230996
0.0164233
0.00234755
0.0160139
0.00237835
0.0155964
0.00240233
0.015172
0.0024195
0.0147418
0.00242991
0.0143071
0.00243362
0.0138692
0.00243075
0.0134294
0.00242142
0.0129889
0.00240579
0.0125489
0.00238403
0.0121106
0.00235634
0.0116752
0.00232294
0.0112439
0.00228404
0.0108178
0.00223985
0.0103979
0.0021906
0.00998548
0.00213651
0.00958146
0.00207779
0.00918687
0.00201463
0.00880273
0.00194726
0.00842999
0.00187588
0.00806959
0.00180073
0.00772243
0.00172208
0.00738933
0.00164024
0.00707105
0.0015556
0.00676825
0.00146864
0.00137991
0.0187913
0.0025128
-0.0191471
0.0184196
0.00258624
0.0180332
0.00265205
0.0176331
0.00271007
0.0172205
0.00276017
0.0167966
0.00280227
0.0163626
0.00283629
0.0159199
0.00286223
0.0154697
0.0028801
0.0150133
0.00288996
0.0145522
0.0028919
0.0140875
0.00288605
0.0136208
0.00287256
0.0131532
0.00285162
0.0126861
0.00282344
0.0122208
0.00278825
0.0117585
0.00274629
0.0113006
0.00269779
0.0108482
0.002643
0.0104025
0.00258217
0.00996478
0.00251552
0.00953614
0.00244327
0.00911774
0.00236566
0.00871071
0.00228291
0.00831615
0.00219529
0.00793514
0.00210309
0.00756869
0.00200669
0.00721774
0.00190654
0.00688315
0.00180323
0.00169744
0.0195594
0.00286914
-0.0199157
0.0191854
0.00296021
0.0187948
0.00304264
0.0183887
0.00311618
0.0179683
0.00318065
0.0175346
0.00323591
0.0170891
0.00328184
0.0166329
0.00331838
0.0161675
0.00334551
0.0156942
0.00336327
0.0152144
0.00337173
0.0147294
0.00337099
0.0142408
0.00336121
0.0137498
0.00334258
0.013258
0.00331531
0.0127666
0.00327963
0.0122771
0.00323581
0.0117908
0.00318409
0.011309
0.00312475
0.0108332
0.00305803
0.0103645
0.00298418
0.00990432
0.00290344
0.00945395
0.00281604
0.00901466
0.0027222
0.00858775
0.00262221
0.00817447
0.00251637
0.00777606
0.0024051
0.00739367
0.00228893
0.00702836
0.00216854
0.00204478
0.0202601
0.00322208
-0.0206131
0.0198879
0.00333246
0.0194973
0.00343322
0.0190894
0.00352405
0.0186654
0.00360468
0.0182264
0.00367491
0.0177737
0.00373457
0.0173085
0.00378354
0.0168323
0.00382176
0.0163463
0.00384921
0.0158521
0.00386594
0.0153511
0.00387204
0.0148446
0.00386764