/*--------------------------------*- C++ -*----------------------------------*\
  =========                 |
  \\      /  F ield         | OpenFOAM: The Open Source CFD Toolbox
   \\    /   O peration     | Website:  https://openfoam.org
    \\  /    A nd           | Version:  6.0
     \\/     M anipulation  |
\*---------------------------------------------------------------------------*/
FoamFile
{
    version     2.0;
    format      ascii;
    class       volVectorField;
    location    "1";
    object      U;
}
// * * * * * * * * * * * * * * * * * * * * * * * * * * * * * * * * * * * * * //

dimensions      [0 1 -1 0 0 0 0];

internalField   nonuniform List<vector> 
19200
(
(0.509441 -14.5058 -1.85682e-20)
(0.166263 -13.6404 8.1853e-21)
(0.149404 -12.8191 3.45515e-21)
(0.161687 -12.0401 2.80196e-21)
(0.15363 -11.302 2.77678e-21)
(0.145364 -10.6009 1.89613e-22)
(0.138928 -9.93441 3.15662e-22)
(0.132766 -9.30126 -1.49642e-22)
(0.126664 -8.70056 2.51093e-21)
(0.120682 -8.13173 9.68891e-22)
(0.114836 -7.59425 1.04555e-22)
(0.109157 -7.08757 1.30865e-21)
(0.103698 -6.61103 1.79469e-21)
(0.0985234 -6.16383 -1.10915e-21)
(0.0936978 -5.74501 1.31115e-21)
(0.0892858 -5.3535 9.74768e-22)
(0.0853463 -4.9881 -8.7357e-22)
(0.0819314 -4.64753 1.33276e-21)
(0.0790844 -4.33043 -7.97082e-22)
(0.0768392 -4.03543 3.84062e-22)
(0.0752194 -3.76114 4.68184e-22)
(0.0742387 -3.50621 -1.33576e-22)
(0.0739005 -3.2693 1.77515e-22)
(0.0741994 -3.04914 -1.81887e-22)
(0.0751212 -2.84452 3.77619e-22)
(0.0766398 -2.65431 7.71218e-23)
(0.0787208 -2.47746 -5.25686e-23)
(0.0813631 -2.313 3.32854e-23)
(0.0846153 -2.16006 6.6389e-23)
(0.0881223 -2.0178 2.1747e-22)
(0.888221 -14.4858 -3.84765e-21)
(0.523955 -13.6312 2.42405e-20)
(0.485814 -12.8119 -1.22785e-20)
(0.477701 -12.0336 -1.477e-20)
(0.450393 -11.2964 -5.81294e-21)
(0.423867 -10.5959 -3.81979e-21)
(0.40007 -9.92985 -7.13728e-21)
(0.377408 -9.29694 1.07384e-21)
(0.355646 -8.69641 -1.6434e-21)
(0.334829 -8.12769 -4.80832e-21)
(0.314961 -7.59032 -9.94217e-21)
(0.296062 -7.08377 4.40019e-21)
(0.278168 -6.60741 -1.51686e-21)
(0.261326 -6.16045 5.64452e-22)
(0.245577 -5.74194 -2.81592e-21)
(0.230959 -5.35082 -8.87038e-22)
(0.217501 -4.98589 1.26952e-22)
(0.205224 -4.64585 2.60108e-21)
(0.194136 -4.32936 -1.41175e-21)
(0.184237 -4.03503 -7.32373e-22)
(0.175515 -3.76147 -2.36649e-21)
(0.167949 -3.5073 5.80417e-22)
(0.161509 -3.27119 -3.21958e-22)
(0.156156 -3.05184 5.2293e-22)
(0.151844 -2.84805 -6.12188e-22)
(0.148518 -2.65866 -3.11632e-22)
(0.146113 -2.48261 1.08904e-22)
(0.14461 -2.31893 1.35055e-22)
(0.144051 -2.16671 -2.51112e-22)
(0.14401 -2.02515 9.59899e-23)
(1.26695 -14.4568 -1.77989e-21)
(0.881026 -13.6129 5.62219e-21)
(0.82172 -12.7958 8.52686e-21)
(0.793353 -12.0187 5.11631e-20)
(0.746871 -11.2829 -2.64284e-20)
(0.702134 -10.5836 2.38744e-20)
(0.661006 -9.91838 -1.88429e-20)
(0.621861 -9.28616 8.916e-21)
(0.584446 -8.6862 -7.6098e-21)
(0.548796 -8.11799 -1.51698e-22)
(0.514907 -7.5811 1.61362e-20)
(0.482788 -7.07503 2.18292e-21)
(0.452463 -6.59918 -6.08036e-21)
(0.423959 -6.15277 4.65772e-21)
(0.397297 -5.73488 1.2069e-22)
(0.372488 -5.34442 1.60262e-21)
(0.349532 -4.9802 1.08675e-21)
(0.328416 -4.64094 3.07797e-21)
(0.309115 -4.32529 -1.41562e-21)
(0.291594 -4.03184 -4.63206e-22)
(0.275806 -3.7592 -9.19926e-22)
(0.261693 -3.50599 3.6943e-21)
(0.249192 -3.27085 -2.92523e-21)
(0.238229 -3.05249 9.45343e-22)
(0.228728 -2.84968 1.8507e-21)
(0.220601 -2.66125 -1.39385e-21)
(0.213756 -2.48615 1.77524e-21)
(0.208151 -2.32337 -2.02939e-22)
(0.203824 -2.172 -1.83752e-22)
(0.200273 -2.03125 -1.03099e-21)
(1.64444 -14.4182 -6.54145e-20)
(1.23707 -13.5853 -5.05008e-20)
(1.15682 -12.7711 -5.57988e-20)
(1.10839 -11.9957 3.35643e-21)
(1.04285 -11.2618 3.40189e-21)
(0.979975 -10.5641 -4.89643e-20)
(0.921561 -9.9002 -2.28219e-20)
(0.86596 -9.26908 5.16782e-21)
(0.812909 -8.67008 -1.18351e-21)
(0.762438 -8.10276 7.02183e-21)
(0.714537 -7.5667 -2.72431e-20)
(0.669208 -7.06147 -1.44237e-20)
(0.626463 -6.58645 5.7828e-21)
(0.586313 -6.14089 8.92329e-21)
(0.548755 -5.72388 -1.02858e-20)
(0.513777 -5.33435 -1.45144e-21)
(0.481347 -4.97111 -4.94988e-21)
(0.451422 -4.63287 -2.11504e-21)
(0.423942 -4.31826 3.16297e-21)
(0.398836 -4.02591 -3.85546e-21)
(0.376021 -3.75439 2.97279e-21)
(0.355405 -3.50231 -3.48947e-21)
(0.336886 -3.26832 -2.45564e-21)
(0.320361 -3.05111 -1.56228e-21)
(0.305717 -2.84942 1.73074e-21)
(0.292838 -2.66211 -2.88763e-21)
(0.2816 -2.48808 2.89603e-22)
(0.271942 -2.32634 4.41965e-22)
(0.263891 -2.17594 -1.19306e-21)
(0.256872 -2.0361 2.74623e-22)
(2.0208 -14.37 -3.93707e-20)
(1.59218 -13.5488 4.76068e-21)
(1.49106 -12.7378 4.0421e-20)
(1.42266 -11.9647 3.79629e-20)
(1.33817 -11.2331 2.45018e-20)
(1.25721 -10.5375 9.20766e-21)
(1.18156 -9.87528 5.14031e-21)
(1.10954 -9.24568 5.35133e-20)
(1.04088 -8.64804 -3.12104e-20)
(0.975605 -8.08198 1.17513e-21)
(0.913711 -7.54712 6.62619e-21)
(0.855191 -7.04305 2.29833e-20)
(0.800045 -6.56918 -1.47544e-20)
(0.748269 -6.12479 9.50252e-21)
(0.699842 -5.70895 -9.36792e-21)
(0.654722 -5.32062 1.49187e-20)
(0.612851 -4.9586 -4.29243e-21)
(0.574152 -4.62161 1.46108e-22)
(0.538532 -4.30828 5.38861e-21)
(0.505883 -4.01722 3.2734e-21)
(0.476087 -3.74701 -3.36487e-21)
(0.449014 -3.49626 4.11987e-21)
(0.424529 -3.26358 -1.68118e-21)
(0.402491 -3.04767 1.89444e-21)
(0.382757 -2.84728 1.84346e-21)
(0.365177 -2.66122 6.88045e-22)
(0.349598 -2.4884 2.08036e-21)
(0.335936 -2.32781 -8.7869e-22)
(0.324209 -2.17851 -3.31495e-22)
(0.313765 -2.0397 -1.04401e-21)
(2.39575 -14.3122 -2.81245e-20)
(1.94616 -13.5032 -1.69169e-20)
(1.82425 -12.6959 -4.4944e-20)
(1.73598 -11.9255 -1.03244e-19)
(1.63262 -11.1968 3.52571e-20)
(1.53367 -10.5037 1.7746e-21)
(1.44083 -9.84366 7.36461e-22)
(1.35243 -9.21598 2.45041e-21)
(1.2682 -8.6201 -3.13457e-21)
(1.18815 -8.05567 -3.42497e-20)
(1.11229 -7.52238 1.45802e-20)
(1.04061 -7.0198 2.12573e-20)
(0.973087 -6.54741 3.08685e-22)
(0.909716 -6.10447 6.60467e-21)
(0.850449 -5.69009 1.41474e-20)
(0.795223 -5.30322 -9.0057e-21)
(0.743949 -4.94268 1.45966e-20)
(0.696517 -4.60717 -6.30092e-21)
(0.652802 -4.29534 1.02823e-20)
(0.612658 -4.00578 -7.26208e-21)
(0.57593 -3.73708 3.05016e-21)
(0.542453 -3.48782 6.89088e-21)
(0.512055 -3.25663 -1.71756e-24)
(0.48456 -3.04219 -5.7212e-21)
(0.459791 -2.84323 2.97454e-21)
(0.437565 -2.65856 8.31911e-22)
(0.417698 -2.48709 -7.88669e-22)
(0.400085 -2.32778 2.93616e-21)
(0.384733 -2.17968 8.85177e-22)
(0.370911 -2.04201 -8.99269e-22)
(2.76906 -14.2448 7.54113e-20)
(2.29882 -13.4486 -7.55961e-21)
(2.15624 -12.6455 -9.10378e-20)
(2.04819 -11.8783 1.77333e-20)
(1.92605 -11.153 -1.99322e-20)
(1.80918 -10.4628 1.67786e-20)
(1.69921 -9.80535 -5.74254e-21)
(1.59449 -9.18 4.70076e-20)
(1.49471 -8.58628 -4.56534e-20)
(1.39993 -8.02386 1.12221e-20)
(1.31014 -7.49247 -5.59121e-21)
(1.22532 -6.99174 4.00041e-21)
(1.14547 -6.52114 -1.77528e-20)
(1.07054 -6.07996 -4.63641e-22)
(1.00047 -5.66732 2.28588e-20)
(0.935179 -5.28218 -1.55462e-20)
(0.874546 -4.92336 -8.49722e-21)
(0.81843 -4.58956 -5.1586e-21)
(0.766668 -4.27944 9.69624e-21)
(0.719082 -3.99159 1.73946e-21)
(0.675478 -3.72458 -7.87383e-21)
(0.635653 -3.477 9.61631e-21)
(0.5994 -3.24747 -8.29651e-21)
(0.566507 -3.03465 4.98489e-21)
(0.536762 -2.83727 -2.73266e-21)
(0.509949 -2.65414 7.10169e-22)
(0.485852 -2.48414 1.03049e-21)
(0.464344 -2.32624 -4.7479e-21)
(0.445419 -2.17946 1.97606e-21)
(0.428268 -2.04304 2.83851e-23)
(3.14049 -14.1677 -7.32161e-20)
(2.64996 -13.3849 5.75058e-20)
(2.48682 -12.5867 -8.69678e-20)
(2.35908 -11.8232 1.60308e-19)
(2.21827 -11.1016 -4.16432e-20)
(2.08355 -10.4148 5.05584e-20)
(1.95654 -9.76039 3.69918e-20)
(1.83553 -9.13777 -7.67607e-21)
(1.72028 -8.54658 -7.58365e-21)
(1.61081 -7.98655 6.29352e-22)
(1.50713 -7.45743 -2.46913e-20)
(1.40922 -6.95888 1.28792e-20)
(1.31707 -6.49039 -1.28659e-20)
(1.23062 -6.05127 -1.20071e-21)
(1.1498 -5.64065 -3.04231e-20)
(1.07449 -5.2575 9.96321e-21)
(1.00455 -4.90064 4.62077e-21)
(0.9398 -4.5688 -5.30765e-21)
(0.880048 -4.2606 -6.37905e-22)
(0.825076 -3.97466 -6.77267e-21)
(0.774655 -3.70953 -2.2177e-21)
(0.728545 -3.46381 2.16727e-23)
(0.686498 -3.23609 -4.72383e-21)
(0.64827 -3.02505 -6.27597e-21)
(0.613612 -2.8294 3.42057e-22)
(0.582274 -2.64794 8.36089e-22)
(0.554009 -2.47954 1.62287e-21)
(0.528666 -2.32316 -3.77228e-21)
(0.506224 -2.17781 3.04349e-21)
(0.485795 -2.04275 -5.28098e-21)
(3.50981 -14.081 -1.84513e-19)
(2.99935 -13.3122 1.95167e-19)
(2.8158 -12.5194 -1.85592e-19)
(2.66848 -11.7601 -4.34378e-20)
(2.50911 -11.0428 -2.40948e-20)
(2.35664 -10.3598 -2.41335e-20)
(2.21263 -9.70879 -5.72207e-20)
(2.07542 -9.08932 -5.87912e-21)
(1.94474 -8.50105 -1.96192e-20)
(1.82063 -7.94377 -3.31647e-21)
(1.70311 -7.41727 2.38798e-20)
(1.59216 -6.92124 -1.57846e-20)
(1.48776 -6.45518 -1.52264e-20)
(1.38985 -6.01842 -2.17489e-20)
(1.29833 -5.6101 4.33337e-20)
(1.21306 -5.2292 -1.53656e-20)
(1.13386 -4.87455 5.27162e-21)
(1.06054 -4.54488 -1.74157e-20)
(0.992857 -4.23882 6.65082e-21)
(0.930562 -3.95498 -2.2316e-21)
(0.873388 -3.69192 3.03534e-21)
(0.821057 -3.44823 -8.4161e-22)
(0.773284 -3.2225 7.43184e-21)
(0.729787 -3.01339 -2.51131e-21)
(0.690283 -2.81961 6.28837e-21)
(0.654487 -2.63995 -1.22847e-20)
(0.622118 -2.47328 7.51065e-21)
(0.593002 -2.31854 1.73495e-21)
(0.567104 -2.17473 3.15461e-21)
(0.54345 -2.04113 -9.47059e-21)
(3.87675 -13.9848 2.92634e-19)
(3.34677 -13.2306 -5.36964e-20)
(3.14297 -12.4436 7.61723e-20)
(2.9762 -11.689 -1.99597e-20)
(2.79837 -10.9764 6.79009e-20)
(2.62824 -10.2977 5.65541e-20)
(2.46734 -9.65057 2.36925e-20)
(2.31398 -9.03465 -7.60119e-21)
(2.16794 -8.4497 -4.49211e-20)
(2.02926 -7.89555 6.45922e-20)
(1.89795 -7.37202 -2.35014e-21)
(1.77402 -6.87883 3.80138e-20)
(1.65743 -6.41552 1.22296e-20)
(1.54812 -5.98141 4.78117e-21)
(1.44595 -5.57568 6.42394e-21)
(1.35078 -5.19729 8.06916e-21)
(1.26239 -4.84509 1.16831e-20)
(1.18056 -4.51782 -2.79714e-21)
(1.10501 -4.21412 1.44514e-20)
(1.03546 -3.93258 5.7667e-21)
(0.971602 -3.67177 -1.17035e-20)
(0.913119 -3.43027 1.90958e-20)
(0.859691 -3.20668 -2.3617e-20)
(0.810996 -2.99965 2.09663e-20)
(0.766717 -2.80788 -6.6023e-21)
(0.726532 -2.63016 -2.31026e-21)
(0.690128 -2.46534 -3.74849e-22)
(0.657305 -2.31237 4.14609e-21)
(0.628012 -2.1702 1.34939e-21)
(0.601193 -2.03816 -1.50817e-21)
(4.24108 -13.8791 -1.67153e-19)
(3.69199 -13.14 1.35747e-19)
(3.46812 -12.3595 -3.53492e-20)
(3.28203 -11.6101 9.25672e-20)
(3.08588 -10.9026 8.68204e-21)
(2.8982 -10.2286 1.23562e-20)
(2.72049 -9.58579 -1.21295e-19)
(2.55108 -8.97382 5.38145e-20)
(2.38973 -8.39255 6.41737e-20)
(2.23655 -7.8419 4.14104e-20)
(2.09153 -7.3217 -6.72726e-20)
(1.95468 -6.8317 3.55686e-20)
(1.82596 -6.37144 -3.35064e-20)
(1.7053 -5.94029 1.97601e-20)
(1.59256 -5.53741 -3.12525e-20)
(1.48755 -5.16179 -2.03813e-20)
(1.39004 -4.81229 2.26579e-21)
(1.29977 -4.48764 -7.3821e-21)
(1.21642 -4.18649 1.40428e-20)
(1.13969 -3.90745 4.94414e-21)
(1.06922 -3.64907 -3.26505e-21)
(1.00466 -3.40994 -9.25316e-22)
(0.945651 -3.18865 2.83148e-21)
(0.891834 -2.98385 -9.75208e-21)
(0.842853 -2.79423 1.51397e-20)
(0.798353 -2.61857 -3.75607e-21)
(0.757986 -2.45573 -5.6072e-21)
(0.721526 -2.30462 1.10822e-20)
(0.688905 -2.1642 1.19017e-21)
(0.658982 -2.03382 -1.42402e-21)
(4.60255 -13.764 4.12803e-21)
(4.03479 -13.0405 -8.44252e-20)
(3.79105 -12.267 -6.82027e-20)
(3.58579 -11.5233 -1.0062e-19)
(3.37145 -10.8215 2.70759e-21)
(3.16634 -10.1526 -5.61562e-20)
(2.97191 -9.51446 6.63005e-20)
(2.78653 -8.90685 -2.99339e-20)
(2.60998 -8.32967 3.93131e-20)
(2.44235 -7.78287 -3.51819e-20)
(2.2837 -7.26635 -1.56779e-20)
(2.134 -6.77986 7.72595e-21)
(1.99323 -6.32297 3.68022e-21)
(1.8613 -5.89506 -3.28149e-20)
(1.73805 -5.49531 1.88263e-20)
(1.62328 -5.12272 -7.60893e-21)
(1.51672 -4.77615 2.18589e-20)
(1.41808 -4.45435 -6.47128e-21)
(1.32702 -4.15597 6.54023e-21)
(1.24317 -3.87961 1.35015e-21)
(1.16617 -3.62384 9.0784e-21)
(1.09561 -3.38724 -1.98414e-21)
(1.0311 -3.16841 1.2988e-20)
(0.972235 -2.96598 -1.41153e-20)
(0.918632 -2.77864 -4.29539e-21)
(0.869894 -2.60517 3.3472e-21)
(0.825638 -2.44442 -4.6914e-22)
(0.785614 -2.29529 -8.32202e-21)
(0.749735 -2.15672 4.08467e-21)
(0.716773 -2.0281 -4.31619e-21)
(4.96092 -13.6395 2.78741e-19)
(4.37494 -12.9322 6.80468e-20)
(4.11153 -12.1662 7.2083e-20)
(3.88728 -11.4287 8.61822e-20)
(3.65489 -10.733 1.18107e-19)
(3.43247 -10.0697 -2.88876e-21)
(3.22144 -9.43662 1.66561e-20)
(3.02018 -8.83376 1.50736e-19)
(2.82851 -8.26105 4.01974e-20)
(2.64654 -7.71848 -2.98696e-20)
(2.47433 -7.20598 4.86327e-20)
(2.31187 -6.72334 6.21665e-21)
(2.15912 -6.27014 7.82673e-22)
(2.016 -5.84576 9.75203e-21)
(1.88232 -5.44942 1.46656e-20)
(1.75786 -5.08011 -2.6872e-20)
(1.64233 -4.73671 2.19938e-20)
(1.5354 -4.41797 3.33125e-21)
(1.4367 -4.12255 1.74417e-20)
(1.34583 -3.84906 -9.29525e-21)
(1.26237 -3.59608 1.36384e-20)
(1.18589 -3.36218 -1.36168e-20)
(1.11596 -3.14595 1.24096e-20)
(1.05213 -2.94604 1.2248e-21)
(0.99399 -2.76111 -7.54478e-21)
(0.941095 -2.58996 -2.06372e-21)
(0.893031 -2.43141 1.25338e-20)
(0.849519 -2.28437 -1.88378e-21)
(0.810455 -2.14775 2.22849e-21)
(0.774523 -2.02098 -1.28841e-21)
(5.31594 -13.5057 2.80761e-20)
(4.71221 -12.8151 5.36702e-20)
(4.42938 -12.0572 1.96014e-19)
(4.18629 -11.3263 -3.07726e-19)
(3.93602 -10.6371 -2.48786e-20)
(3.69643 -9.97984 -2.77068e-20)
(3.46891 -9.35231 1.27273e-20)
(3.25188 -8.75461 1.37688e-20)
(3.0452 -8.18676 3.00661e-20)
(2.84897 -7.64876 -4.85551e-20)
(2.66329 -7.14064 -5.98921e-21)
(2.48815 -6.66217 2.39067e-20)
(2.32352 -6.21297 2.12463e-20)
(2.16928 -5.79242 -2.15016e-20)
(2.02526 -5.39975 -1.70329e-20)
(1.8912 -5.03398 2.97187e-20)
(1.76678 -4.69398 1.66444e-20)
(1.65165 -4.37852 -4.82436e-21)
(1.54539 -4.08626 -9.36602e-21)
(1.44757 -3.81584 1.4291e-21)
(1.35775 -3.56581 -1.78521e-20)
(1.27544 -3.33476 2.04768e-20)
(1.20017 -3.12129 -1.32111e-20)
(1.13147 -2.92403 -2.76418e-22)
(1.06886 -2.74165 7.81009e-21)
(1.0119 -2.57293 -2.23425e-21)
(0.960106 -2.4167 -6.23991e-21)
(0.913188 -2.27185 1.10646e-21)
(0.871015 -2.13727 -2.17474e-22)
(0.832186 -2.01245 1.07244e-21)
(5.66738 -13.3628 -2.26226e-20)
(5.04638 -12.6893 -5.86204e-20)
(4.74436 -11.94 -2.26486e-19)
(4.48264 -11.2162 8.12939e-20)
(4.21466 -10.534 -1.96586e-20)
(3.95804 -9.88318 6.71935e-20)
(3.71416 -9.26158 5.06054e-21)
(3.48148 -8.66943 -5.77882e-20)
(3.25987 -8.10681 7.59286e-22)
(3.0495 -7.57378 -6.9526e-20)
(2.85044 -7.07037 -9.84074e-22)
(2.66272 -6.5964 1.38198e-20)
(2.4863 -6.1515 -2.19525e-20)
(2.32105 -5.73507 2.20367e-20)
(2.16677 -5.34634 -3.97377e-20)
(2.02319 -4.98435 -6.83643e-21)
(1.88998 -4.64798 2.15806e-20)
(1.76672 -4.33601 7.6877e-22)
(1.653 -4.04712 -9.95554e-21)
(1.54833 -3.77993 2.7405e-20)
(1.45222 -3.53303 -1.46752e-20)
(1.36416 -3.305 -1.73833e-20)
(1.28365 -3.09443 5.33389e-21)
(1.21016 -2.89996 -1.45471e-20)
(1.14319 -2.72026 -3.02479e-21)
(1.08224 -2.55409 -1.78845e-22)
(1.02681 -2.40029 -7.76119e-21)
(0.976564 -2.25773 9.38187e-21)
(0.931364 -2.12529 -3.03161e-21)
(0.889714 -2.0025 4.92979e-21)
(6.01499 -13.2108 -1.02667e-19)
(5.37723 -12.5549 -2.36654e-19)
(5.05629 -11.8146 9.72969e-20)
(4.77614 -11.0985 -8.66175e-20)
(4.49062 -10.4237 -5.47931e-20)
(4.21712 -9.77973 -2.64431e-20)
(3.95701 -9.16447 -9.86578e-20)
(3.7088 -8.57827 6.358e-20)
(3.47239 -8.02126 -1.02056e-19)
(3.24798 -7.49356 -1.30072e-19)
(3.03566 -6.9952 1.84898e-20)
(2.83546 -6.52606 2.43138e-20)
(2.64734 -6.08576 -1.8336e-21)
(2.47117 -5.67374 -3.80035e-20)
(2.30674 -5.28922 8.5639e-21)
(2.15375 -4.93125 -2.78944e-20)
(2.01183 -4.59875 -1.77643e-20)
(1.88055 -4.29048 -9.01514e-21)
(1.75945 -4.00515 -5.60236e-22)
(1.64801 -3.74138 1.62838e-20)
(1.54571 -3.49777 2.05972e-20)
(1.452 -3.2729 -5.75244e-21)
(1.36633 -3.06538 -4.96685e-21)
(1.28814 -2.87383 9.53028e-21)
(1.2169 -2.69693 4.84509e-21)
(1.15205 -2.53343 -3.84332e-21)
(1.09307 -2.38217 -3.93025e-21)
(1.03959 -2.242 5.62284e-22)
(0.991448 -2.11179 3.12603e-21)
(0.947056 -1.99112 -4.53557e-21)
(6.35853 -13.0497 -1.21422e-20)
(5.70453 -12.412 2.92885e-19)
(5.36496 -11.6813 1.97816e-19)
(5.06659 -10.9733 1.37543e-19)
(4.76372 -10.3063 -8.64544e-20)
(4.4735 -9.66956 -1.58775e-20)
(4.19731 -9.06103 1.52768e-20)
(3.9337 -8.48117 7.94716e-20)
(3.68262 -7.93016 2.64336e-20)
(3.44428 -7.40814 3.57541e-20)
(3.21881 -6.91519 -7.57215e-20)
(3.00624 -6.45119 8.7131e-21)
(2.80654 -6.0158 2.63242e-20)
(2.61956 -5.60847 1.40261e-20)
(2.44508 -5.22842 2.52032e-20)
(2.28277 -4.87473 -1.85041e-20)
(2.13224 -4.5463 -1.40895e-20)
(1.99303 -4.24195 3.50711e-21)
(1.86465 -3.96036 2.63032e-20)
(1.74654 -3.70019 -4.00499e-20)
(1.63815 -3.46003 1.36546e-20)
(1.53888 -3.23848 6.95558e-23)
(1.44814 -3.03414 2.13522e-20)
(1.36535 -2.84564 -9.22556e-21)
(1.28993 -2.67167 -7.08636e-22)
(1.22128 -2.51096 -5.04071e-21)
(1.15884 -2.36234 -4.27175e-21)
(1.10221 -2.22467 8.78395e-22)
(1.05121 -2.09678 -9.24837e-21)
(1.00415 -1.97832 1.34136e-20)
(6.69778 -12.8798 -3.44079e-19)
(6.02807 -12.2606 -1.7512e-19)
(5.67017 -11.54 -4.02351e-19)
(5.3538 -10.8405 -1.5898e-19)
(5.03378 -10.1818 1.42322e-19)
(4.72701 -9.55272 -7.11455e-20)
(4.43489 -8.95133 -1.25881e-20)
(4.15602 -8.37819 -3.77703e-20)
(3.8904 -7.83355 6.39346e-20)
(3.63826 -7.31758 -5.27076e-20)
(3.39977 -6.83038 5.6707e-21)
(3.17495 -6.37183 -2.01035e-21)
(2.96378 -5.94166 -5.93313e-20)
(2.7661 -5.53929 1.2539e-21)
(2.58167 -5.16398 1.59907e-20)
(2.41015 -4.8148 -1.29132e-21)
(2.25112 -4.49068 -4.49619e-20)
(2.10409 -4.19044 4.11487e-20)
(1.96852 -3.91278 -3.70149e-20)
(1.84384 -3.65637 1.38482e-20)
(1.72945 -3.41982 1.85553e-21)
(1.62471 -3.20174 6.80238e-22)
(1.52901 -3.00072 -1.18986e-20)
(1.44171 -2.81541 1.10394e-20)
(1.3622 -2.64448 -4.56243e-21)
(1.28984 -2.48667 4.52619e-21)
(1.22403 -2.34081 -2.32741e-20)
(1.16434 -2.20573 6.65579e-21)
(1.11057 -2.08025 6.47173e-21)
(1.06094 -1.96408 5.9302e-21)
(7.0325 -12.701 6.60917e-19)
(6.34765 -12.1009 1.81897e-19)
(5.97172 -11.3908 9.90452e-20)
(5.63759 -10.7003 1.50714e-19)
(5.30061 -10.0503 -1.48603e-20)
(4.97748 -9.42928 9.11104e-20)
(4.66958 -8.83542 1.82138e-19)
(4.3756 -8.26939 -2.44621e-20)
(4.09558 -7.73149 8.05335e-21)
(3.82979 -7.22192 1.58335e-19)
(3.5784 -6.7408 1.42165e-19)
(3.34146 -6.28805 1.84755e-20)
(3.11894 -5.86338 -4.69867e-21)
(2.91068 -5.46625 2.95989e-21)
(2.71641 -5.09593 7.483e-20)
(2.5358 -4.7515 2.79934e-21)
(2.36838 -4.43191 6.61447e-20)
(2.21363 -4.13598 -9.11886e-21)
(2.07099 -3.86243 -1.21374e-20)
(1.93984 -3.60996 2.7169e-20)
(1.81954 -3.37717 -2.25345e-20)
(1.70943 -3.16269 -2.355e-20)
(1.60885 -2.96514 -1.83591e-21)
(1.51714 -2.78314 -8.78358e-21)
(1.43362 -2.61537 1.34033e-20)
(1.35765 -2.46058 1.57133e-21)
(1.28857 -2.31758 -4.5838e-21)
(1.22592 -2.18519 3.11546e-21)
(1.16946 -2.06221 1.63894e-20)
(1.11736 -1.94841 2.15578e-21)
(7.36246 -12.5136 -1.14288e-19)
(6.66305 -11.933 -1.92633e-19)
(6.26943 -11.2339 6.85099e-20)
(5.91777 -10.5528 -2.68053e-19)
(5.56405 -9.91185 1.12262e-19)
(5.22473 -9.2993 -1.8953e-19)
(4.90123 -8.71336 -1.07155e-19)
(4.5923 -8.15482 2.98595e-20)
(4.29803 -7.62403 1.92116e-20)
(4.01873 -7.12122 -1.16297e-19)
(3.75457 -6.64652 1.53703e-20)
(3.50565 -6.19989 1.39319e-20)
(3.2719 -5.78101 -4.77501e-20)
(3.05319 -5.38939 -1.67415e-20)
(2.84923 -5.02432 -9.87991e-21)
(2.65964 -4.68488 -9.50596e-21)
(2.48394 -4.37002 -3.59502e-20)
(2.32158 -4.0786 -1.9734e-20)
(2.17196 -3.80935 -3.89855e-21)
(2.03443 -3.56096 1.51624e-20)
(1.90832 -3.33209 1.84187e-20)
(1.79294 -3.12135 -1.95327e-20)
(1.68758 -2.92738 6.74109e-21)
(1.59154 -2.74882 -1.34145e-20)
(1.50413 -2.58434 1.15694e-20)
(1.42463 -2.43267 -1.51597e-20)
(1.35238 -2.29265 4.14455e-21)
(1.28686 -2.16305 -7.01858e-21)
(1.22782 -2.04267 -9.16843e-21)
(1.17333 -1.93132 -7.79588e-22)
(7.68745 -12.3177 -2.41153e-19)
(6.97408 -11.7569 -1.76548e-19)
(6.56311 -11.0693 -1.50062e-19)
(6.19418 -10.398 -9.28606e-20)
(5.82392 -9.76653 2.88505e-19)
(5.4686 -9.16285 3.28449e-20)
(5.12967 -8.58523 1.01318e-19)
(4.80596 -8.03455 1.38717e-19)
(4.4976 -7.51123 5.66947e-20)
(4.20494 -7.01553 -7.66544e-20)
(3.92817 -6.54759 1.0211e-19)
(3.6674 -6.10738 3.19663e-20)
(3.42258 -5.6946 8.09465e-20)
(3.19354 -5.30877 7.80068e-21)
(2.98001 -4.94919 1.74355e-20)
(2.78156 -4.61497 6.06588e-21)
(2.5977 -4.30506 -1.26248e-21)
(2.42784 -4.01833 -2.10454e-21)
(2.27135 -3.75354 6.76823e-21)
(2.12755 -3.50941 2.08539e-20)
(1.99573 -3.28459 -2.25785e-20)
(1.87516 -3.07773 1.6385e-20)
(1.76512 -2.88747 3.45608e-22)
(1.66485 -2.71246 6.6319e-21)
(1.57363 -2.55138 1.14037e-20)
(1.49072 -2.40296 -1.94026e-21)
(1.41538 -2.26601 1.03406e-20)
(1.3471 -2.13931 1.39668e-20)
(1.28557 -2.02162 -1.52499e-20)
(1.22878 -1.91281 -7.88196e-21)
(8.00726 -12.1133 6.82483e-19)
(7.28055 -11.5729 -6.93514e-20)
(6.85259 -10.8971 1.20755e-19)
(6.46662 -10.236 1.93742e-19)
(6.08004 -9.61443 -5.1336e-19)
(5.70892 -9.02 5.15013e-20)
(5.35474 -8.45108 -1.57758e-19)
(5.01643 -7.90865 1.41096e-19)
(4.69415 -7.39316 -1.06905e-19)
(4.38829 -6.90491 4.49416e-20)
(4.09907 -6.44407 -1.6617e-19)
(3.8266 -6.01059 1.12619e-20)
(3.57085 -5.60421 -1.50932e-19)
(3.33164 -5.22444 6.33038e-20)
(3.10866 -4.87059 3.08673e-20)
(2.90148 -4.54181 4.15425e-20)
(2.70957 -4.23706 -4.1219e-20)
(2.53232 -3.95521 -2.51052e-21)
(2.36907 -3.69505 2.40937e-21)
(2.2191 -3.45531 6.61966e-21)
(2.08167 -3.23469 -3.93126e-20)
(1.95602 -3.03183 -8.34781e-22)
(1.84139 -2.8454 -1.94043e-20)
(1.73699 -2.67406 -4.29047e-21)
(1.64205 -2.51649 -1.05373e-20)
(1.55581 -2.37142 -1.08699e-20)
(1.47749 -2.23766 -1.05627e-20)
(1.40653 -2.11397 1.7909e-20)
(1.3426 -1.99906 4.55996e-21)
(1.28361 -1.89289 -7.67063e-21)
(8.3217 -11.9006 -4.54794e-19)
(7.5823 -11.381 1.44497e-19)
(7.1377 -10.7174 -2.14246e-19)
(6.73493 -10.0669 2.93655e-20)
(6.33224 -9.4556 2.81928e-19)
(5.94552 -8.87082 -1.35521e-19)
(5.57629 -8.31099 -1.21384e-19)
(5.22355 -7.77718 -9.8097e-20)
(4.88753 -7.2699 6.12904e-21)
(4.56864 -6.78944 5.45252e-20)
(4.26713 -6.33601 -3.25703e-20)
(3.98313 -5.90957 4.70797e-21)
(3.7166 -5.50988 6.27857e-20)
(3.46735 -5.13644 3.56826e-20)
(3.23507 -4.78858 7.99231e-21)
(3.01929 -4.46545 -2.69926e-20)
(2.81947 -4.16605 1.02206e-20)
(2.63495 -3.88926 1.97323e-20)
(2.46506 -3.6339 1.94466e-20)
(2.30903 -3.3987 -2.08433e-20)
(2.16609 -3.18239 3.10173e-21)
(2.03545 -2.98366 1.54446e-20)
(1.91631 -2.80117 2.49383e-20)
(1.80787 -2.6336 5.74122e-21)
(1.70931 -2.47965 -2.36384e-20)
(1.61982 -2.33805 2.60103e-20)
(1.53861 -2.20759 -1.28403e-20)
(1.46506 -2.08702 -1.44278e-20)
(1.39884 -1.975 -8.46579e-21)
(1.33774 -1.87155 -9.97928e-21)
(8.6306 -11.6798 2.34856e-19)
(7.87917 -11.1813 -1.59904e-19)
(7.41827 -10.5304 6.48445e-20)
(6.99894 -9.89081 2.68581e-19)
(6.58035 -9.29014 6.59022e-20)
(6.17824 -8.71539 -4.8914e-20)
(5.79416 -8.16503 1.14626e-19)
(5.42719 -7.64022 3.20468e-20)
(5.0776 -7.1415 8.80919e-20)
(4.74586 -6.66918 4.35811e-20)
(4.43224 -6.22349 3.62683e-21)
(4.13687 -5.8044 2.25787e-20)
(3.85972 -5.41167 -6.40775e-21)
(3.60059 -5.04482 -5.14732e-20)
(3.35916 -4.70319 -7.88622e-21)
(3.13492 -4.38593 -1.28056e-20)
(2.92732 -4.09208 2.93982e-20)
(2.73567 -3.82053 2.72177e-20)
(2.55924 -3.57011 -2.89045e-20)
(2.39726 -3.3396 2.91203e-20)
(2.24891 -3.12773 5.61114e-20)
(2.11338 -2.93322 -3.46686e-20)
(1.98983 -2.75477 3.24568e-20)
(1.87741 -2.59108 -2.21744e-20)
(1.77531 -2.44084 -2.87488e-21)
(1.68267 -2.30281 2.11426e-20)
(1.59865 -2.17577 -4.44196e-21)
(1.5226 -2.05842 1.45672e-20)
(1.45416 -1.9494 1.38842e-20)
(1.39104 -1.84878 -2.4452e-20)
(8.93383 -11.4509 -2.22092e-19)
(8.17103 -10.974 1.00973e-19)
(7.69415 -10.336 3.10608e-20)
(7.25847 -9.70777 -3.09341e-19)
(6.82419 -9.11812 -1.40233e-19)
(6.4069 -8.55378 9.60398e-20)
(6.00817 -8.01329 -2.40301e-19)
(5.62717 -7.49785 2.64374e-19)
(5.26423 -7.00805 -1.36562e-19)
(4.91983 -6.54421 1.5023e-20)
(4.59427 -6.10657 -2.5394e-20)
(4.28771 -5.69513 -5.60696e-20)
(4.00011 -5.30965 1.10981e-19)
(3.73127 -4.94965 3.57452e-20)
(3.48083 -4.61448 4.59659e-20)
(3.2483 -4.30332 1.22507e-21)
(3.03304 -4.0152 1.72039e-20)
(2.83439 -3.74906 -3.38441e-20)
(2.65156 -3.50373 7.39754e-21)
(2.48373 -3.27803 2.06772e-20)
(2.33008 -3.07071 -8.42692e-21)
(2.18974 -2.88052 1.20536e-20)
(2.06186 -2.7062 -2.33659e-20)
(1.94556 -2.54646 3.19863e-20)
(1.83998 -2.40003 6.49386e-21)
(1.74426 -2.26567 -1.88398e-20)
(1.65749 -2.14214 -1.50513e-20)
(1.57903 -2.02814 6.25731e-22)
(1.50845 -1.92224 1.98819e-20)
(1.4434 -1.82456 -4.11751e-21)
(9.2313 -11.2141 -5.6763e-20)
(8.45774 -10.7592 -3.55225e-19)
(7.96516 -10.1345 4.04251e-19)
(7.51334 -9.51787 2.46507e-19)
(7.0636 -8.9396 2.17425e-19)
(6.63133 -8.38609 4.89575e-20)
(6.21818 -7.85584 7.45364e-20)
(5.82336 -7.35015 3.43481e-20)
(5.44726 -6.86962 -1.21793e-19)
(5.09039 -6.41461 2.11765e-19)
(4.7531 -5.98534 -1.47558e-19)
(4.43554 -5.58184 -5.02679e-21)
(4.13767 -5.20388 2.12696e-20)
(3.85928 -4.85099 -7.13264e-20)
(3.60001 -4.52253 1.08188e-19)
(3.35932 -4.21766 1.93633e-20)
(3.13658 -3.93547 -3.93404e-20)
(2.93105 -3.67488 1.31741e-20)
(2.74194 -3.43479 -2.5739e-20)
(2.56839 -3.21401 -2.09575e-20)
(2.40954 -3.01134 -2.05187e-20)
(2.26449 -2.82556 4.47528e-21)
(2.13235 -2.65544 1.85225e-21)
(2.01223 -2.49972 -4.3401e-20)
(1.90325 -2.35717 -1.50481e-20)
(1.8045 -2.22655 1.02397e-20)
(1.71507 -2.10664 1.15432e-20)
(1.63424 -1.9961 -1.54862e-20)
(1.56159 -1.89344 -5.52202e-21)
(1.49467 -1.79881 5.10515e-22)
(9.52308 -10.9695 -6.3984e-20)
(8.73924 -10.5369 2.30391e-19)
(8.23112 -9.92576 -6.26713e-20)
(7.76337 -9.32116 -7.38409e-20)
(7.29838 -8.75468 -3.35926e-19)
(6.85137 -8.21238 -5.91824e-20)
(6.42401 -7.69276 1.17775e-19)
(6.01559 -7.1972 -6.69725e-20)
(5.62655 -6.7263 -4.36206e-21)
(5.25744 -6.28045 -1.2171e-20)
(4.90861 -5.85988 5.44171e-20)
(4.58024 -5.46461 -8.35321e-20)
(4.27229 -5.09444 -4.98875e-20)
(3.98454 -4.7489 5.35527e-20)
(3.71661 -4.42737 -2.7734e-20)
(3.46793 -4.12902 1.32491e-20)
(3.23785 -3.85293 8.10439e-22)
(3.02561 -3.59808 -9.46331e-21)
(2.83034 -3.36334 3.07211e-20)
(2.6512 -3.1476 -2.78096e-20)
(2.48725 -2.94967 -2.0339e-20)
(2.33758 -2.76836 1.69507e-20)
(2.20127 -2.60248 -2.23339e-21)
(2.07741 -2.45083 -1.14262e-20)
(1.96508 -2.3122 9.55822e-21)
(1.86335 -2.18537 -2.79949e-20)
(1.77129 -2.06915 1.69769e-20)
(1.68814 -1.96219 -2.54646e-22)
(1.61348 -1.86288 -1.59859e-20)
(1.54477 -1.77137 2.14144e-20)
(9.80968 -10.7177 2.05832e-19)
(9.01564 -10.3074 -4.72588e-19)
(8.49187 -9.70994 -2.97866e-20)
(8.00834 -9.11766 1.7755e-19)
(7.52832 -8.56336 -4.10086e-20)
(7.0668 -8.0327 -1.01096e-19)
(6.62547 -7.52413 4.57274e-20)
(6.20369 -7.03907 4.50038e-20)
(5.80194 -6.57817 3.06091e-21)
(5.4208 -6.14181 4.61169e-20)
(5.06066 -5.73025 1.3117e-19)
(4.72169 -5.34352 -4.66805e-20)
(4.40386 -4.9814 8.658e-21)
(4.10695 -4.64347 -2.20035e-20)
(3.83054 -4.32908 8.68443e-20)
(3.57405 -4.03745 -1.37512e-20)
(3.3368 -3.76766 1.99134e-20)
(3.11798 -3.51868 -3.07688e-20)
(2.91672 -3.28944 1.55945e-20)
(2.7321 -3.07883 2.18923e-20)
(2.56318 -2.88571 3.24898e-21)
(2.40899 -2.70892 1.29841e-20)
(2.2686 -2.54732 -1.00422e-20)
(2.14106 -2.39975 2.75071e-20)
(2.02543 -2.26504 -1.07362e-20)
(1.92077 -2.14203 3.73012e-20)
(1.82611 -2.02955 -1.0707e-20)
(1.74068 -1.92623 6.8349e-21)
(1.66406 -1.83037 -1.25451e-20)
(1.59369 -1.74212 2.08614e-20)
(10.0921 -10.4589 -4.76051e-19)
(9.28725 -10.0705 1.80226e-20)
(8.74728 -9.4868 -2.02184e-19)
(8.248 -8.90733 3.48303e-20)
(7.75318 -8.36573 7.19499e-21)
(7.27741 -7.84715 -1.34309e-19)
(6.82237 -7.35004 -2.27358e-19)
(6.38749 -6.87588 1.05116e-19)
(5.97328 -6.42534 -1.39953e-19)
(5.58036 -5.99881 -6.41856e-20)
(5.20913 -5.59657 -3.22763e-20)
(4.85978 -5.21865 -2.28937e-20)
(4.53229 -4.86485 -6.33593e-22)
(4.22641 -4.53476 -7.39463e-20)
(3.94171 -4.22774 4.13322e-20)
(3.6776 -3.94302 -6.68214e-20)
(3.43335 -3.67969 -1.49296e-20)
(3.20813 -3.43676 1.68141e-20)
(3.00102 -3.21314 -6.60348e-21)
(2.81108 -3.00777 1.70507e-20)
(2.63731 -2.81952 1.20942e-20)
(2.47872 -2.64729 -2.9307e-20)
(2.33434 -2.48997 2.82063e-20)
(2.20319 -2.34646 -3.01992e-21)
(2.08432 -2.21564 -6.9915e-21)
(1.97676 -2.09641 -2.60084e-20)
(1.87951 -1.98762 -1.30457e-20)
(1.79176 -1.88787 2.36619e-20)
(1.71308 -1.79545 -7.75426e-21)
(1.64099 -1.71098 -6.79018e-21)
(10.3703 -10.1919 2.16657e-19)
(9.55374 -9.82485 2.49857e-20)
(8.99704 -9.25602 -4.2802e-20)
(8.48208 -8.6903 -2.79366e-21)
(7.97279 -8.162 -5.47497e-20)
(7.48309 -7.65599 1.81067e-19)
(7.01463 -7.17076 -7.82804e-20)
(6.56691 -6.70785 5.1165e-20)
(6.1405 -6.268 2.15227e-20)
(5.73604 -5.85162 5.93231e-20)
(5.35396 -5.45899 -1.778e-20)
(4.99446 -5.09016 1.0278e-19)
(4.65751 -4.74493 -8.08718e-21)
(4.34286 -4.42291 5.48945e-20)
(4.05008 -4.12346 -8.37574e-20)
(3.77853 -3.84584 -3.69269e-21)
(3.52746 -3.58915 4.812e-20)
(3.29601 -3.3524 -2.7066e-20)
(3.08322 -3.13454 1.03147e-20)
(2.88811 -2.9345 1.6708e-20)
(2.70964 -2.75119 -2.22759e-20)
(2.5468 -2.58355 2.53112e-20)
(2.39855 -2.43049 -2.11448e-20)
(2.2639 -2.29098 5.02908e-21)
(2.14187 -2.16396 1.6218e-20)
(2.03148 -2.04838 1.05554e-20)
(1.93172 -1.94307 9.52609e-21)
(1.84162 -1.8466 6.59771e-21)
(1.76031 -1.75756 -1.79663e-20)
(1.68577 -1.67712 -6.686e-21)
(14.5726 0.126038 2.67691e-21)
(14.567 -0.258119 2.38299e-20)
(14.5521 -0.640504 8.2822e-20)
(14.5284 -1.02155 4.39735e-20)
(14.4954 -1.40139 -9.85878e-20)
(14.4526 -1.77996 2.92612e-20)
(14.4 -2.15709 -2.88465e-20)
(14.3376 -2.53261 -7.53078e-20)
(14.2655 -2.90628 4.35002e-20)
(14.1835 -3.27789 -4.90549e-20)
(14.0919 -3.64718 -4.49132e-20)
(13.9907 -4.01391 -1.02165e-19)
(13.8799 -4.37784 -2.97481e-19)
(13.7596 -4.73872 2.85853e-20)
(13.6299 -5.09631 -3.40732e-21)
(13.4909 -5.45035 -1.04593e-19)
(13.3428 -5.80062 2.00852e-19)
(13.1855 -6.14689 1.15705e-19)
(13.0193 -6.4889 2.06481e-19)
(12.8443 -6.82645 9.6975e-20)
(12.6605 -7.1593 -2.44583e-19)
(12.4681 -7.48724 1.24505e-20)
(12.2673 -7.81005 -4.60324e-19)
(12.0582 -8.12754 7.02647e-19)
(11.841 -8.43951 -2.24211e-19)
(11.6158 -8.74579 -3.09771e-19)
(11.3828 -9.04625 -4.4614e-20)
(11.1423 -9.34081 -6.45416e-21)
(10.8941 -9.62973 -2.43654e-19)
(10.6401 -9.91229 4.22251e-19)
(13.7723 -0.192902 8.4307e-21)
(13.7601 -0.555084 1.12108e-20)
(13.7381 -0.915644 1.30394e-21)