/*--------------------------------*- C++ -*----------------------------------*\
| =========                 |                                                 |
| \\      /  F ield         | OpenFOAM: The Open Source CFD Toolbox           |
|  \\    /   O peration     | Version:  v1912                                 |
|   \\  /    A nd           | Website:  www.openfoam.com                      |
|    \\/     M anipulation  |                                                 |
\*---------------------------------------------------------------------------*/
FoamFile
{
    version     2.0;
    format      ascii;
    class       volScalarField;
    location    "54.5";
    object      p;
}
// * * * * * * * * * * * * * * * * * * * * * * * * * * * * * * * * * * * * * //

dimensions      [0 2 -2 0 0 0 0];


internalField   nonuniform List<scalar> 
9600
(
-41.4859
-36.2211
-32.9943
-30.2571
-27.7517
-25.4849
-23.4283
-21.5541
-19.8449
-18.2868
-16.8674
-15.5746
-14.3971
-13.3242
-12.3456
-11.4521
-10.6352
-9.887
-9.19991
-8.57178
-42.2458
-36.9634
-33.7006
-30.9205
-28.37
-26.0591
-23.9612
-22.0492
-20.3061
-18.718
-17.2722
-15.9562
-14.7585
-13.6676
-12.6732
-11.7655
-10.9358
-10.1758
-9.47761
-8.84021
-43.0073
-37.7017
-34.4015
-31.5784
-28.9825
-26.6273
-24.488
-22.5384
-20.7616
-19.1438
-17.6718
-16.3331
-15.1153
-14.0068
-12.9967
-12.075
-11.2327
-10.461
-9.75174
-9.10525
-43.7672
-38.4356
-35.0966
-32.2298
-29.5882
-27.1886
-25.0079
-23.0208
-21.2105
-19.5633
-18.0657
-16.7044
-15.4669
-14.341
-13.3156
-12.3801
-11.5253
-10.7421
-10.0219
-9.36657
-44.5226
-39.1635
-35.7848
-32.8735
-30.186
-27.7419
-25.5199
-23.4955
-21.6522
-19.9759
-18.4529
-17.0696
-15.8127
-14.6698
-13.6292
-12.6803
-11.8133
-11.0187
-10.2876
-9.62388
-45.2714
-39.884
-36.4649
-33.5086
-30.7748
-28.2861
-26.023
-23.9616
-22.0856
-20.3808
-18.8329
-17.4278
-16.152
-14.9925
-13.9372
-12.975
-12.0961
-11.2903
-10.5487
-9.87693
-46.0118
-40.5957
-37.1357
-34.1339
-31.3536
-28.8204
-26.5163
-24.4183
-22.51
-20.777
-19.2047
-17.7785
-16.4842
-15.3085
-14.2388
-13.2639
-12.3733
-11.5567
-10.8048
-10.1254
-46.7423
-41.297
-37.7958
-34.7482
-31.9213
-29.3437
-26.999
-24.8646
-22.9245
-21.164
-19.5678
-18.1208
-16.8086
-15.6171
-14.5335
-13.5462
-12.6444
-11.8173
-11.0555
-10.3691
-47.4616
-41.9868
-38.4442
-35.3504
-32.4769
-29.855
-27.4699
-25.2997
-23.3284
-21.5407
-19.9212
-18.4541
-17.1244
-15.9177
-14.8207
-13.8214
-12.9088
-12.0716
-11.3003
-10.6075
-48.1683
-42.6639
-39.0796
-35.9395
-33.0193
-30.3533
-27.9283
-25.7228
-23.7207
-21.9066
-20.2643
-18.7776
-17.431
-16.2095
-15.0996
-14.0888
-13.166
-12.3192
-11.5389
-10.8404
-48.8613
-43.3271
-39.7009
-36.5144
-33.5476
-30.8378
-28.3732
-26.1329
-24.1006
-22.2606
-20.5961
-19.0904
-17.7274
-16.4918
-15.3694
-14.3477
-13.4151
-12.5592
-11.7705
-11.067
-49.5398
-43.9754
-40.3073
-37.0742
-34.0609
-31.3076
-28.8038
-26.5292
-24.4673
-22.602
-20.9159
-19.3917
-18.0128
-16.7635
-15.6292
-14.5971
-13.6553
-12.7909
-11.9943
-11.2866
-50.203
-44.608
-40.8977
-37.6179
-34.5582
-31.7617
-29.2193
-26.9109
-24.82
-22.9299
-21.2227
-19.6806
-18.2863
-17.0237
-15.878
-14.836
-13.8856
-13.0133
-12.2096
-11.4984
-50.8504
-45.2241
-41.4713
-38.1448
-35.0388
-32.1995
-29.6188
-27.2772
-25.1578
-23.2435
-21.5157
-19.956
-18.5467
-17.2713
-16.1145
-15.0631
-14.1046
-13.2251
-12.415
-11.7019
-51.4812
-45.8227
-42.0274
-38.654
-35.502
-32.6202
-30.0019
-27.6276
-25.4802
-23.5421
-21.7941
-20.2171
-18.7931
-17.5049
-16.3373
-15.2766
-14.3103
-13.424
-12.6085
-11.895
-52.0952
-46.4032
-42.5651
-39.1451
-35.9473
-33.0234
-30.3678
-27.9614
-25.7866
-23.8251
-22.0572
-20.4632
-19.0245
-17.7237
-16.5451
-15.4751
-14.5009
-13.608
-12.7873
-12.0724
-52.6936
-46.9656
-43.084
-39.6172
-36.3738
-33.4083
-30.7161
-28.2781
-26.0764
-24.0919
-22.3043
-20.6934
-19.24
-17.9264
-16.7369
-15.6577
-14.676
-13.7769
-12.9502
-12.2308
-53.2807
-47.5107
-43.583
-40.0693
-36.7807
-33.7742
-31.0463
-28.5775
-26.3494
-24.3423
-22.5351
-20.907
-19.4384
-18.1115
-16.9104
-15.8218
-14.833
-13.9281
-13.0965
-12.3815
-53.8586
-48.0382
-44.0608
-40.5002
-37.1676
-34.1213
-31.3586
-28.8598
-26.606
-24.5767
-22.7499
-21.1042
-19.6194
-18.2773
-17.0621
-15.9606
-14.9598
-14.0441
-13.2111
-12.5287
-54.4054
-48.5405
-44.5162
-40.9107
-37.5358
-34.4512
-31.6547
-29.1269
-26.8482
-24.7971
-22.9509
-21.2875
-19.7857
-18.4267
-17.1939
-16.0727
-15.0481
-14.1067
-13.2628
-12.5866
-59.8611
-59.8296
-59.7603
-59.6679
-59.5515
-59.4088
-59.2392
-59.0431
-58.8212
-58.5741
-58.3021
-58.0061
-57.6865
-57.344
-56.9795
-56.5938
-56.188
-55.7637
-55.324
-54.8718
-53.5122
-53.5096
-53.4739
-53.4106
-53.3204
-53.2029
-53.0583
-52.8873
-52.6906
-52.4688
-52.2226
-51.9525
-51.6592
-51.3433
-51.0054
-50.6462
-50.2664
-49.8664
-49.4469
-49.0056
-48.8681
-48.8898
-48.8823
-48.8459
-48.7821
-48.6916
-48.5752
-48.4334
-48.2668
-48.0761
-47.8617
-47.6244
-47.3646
-47.0829
-46.7797
-46.4556
-46.1109
-45.7454
-45.359
-44.9498
-44.6374
-44.677
-44.6898
-44.6756
-44.6351
-44.5695
-44.4793
-44.3652
-44.2277
-44.0673
-43.8845
-43.6799
-43.4541
-43.2073
-42.9402
-42.6528
-42.3455
-42.018
-41.6703
-41.3014
-40.7256
-40.775
-40.8004
-40.8012
-40.7776
-40.7307
-40.6609
-40.5689
-40.455
-40.3199
-40.1639
-39.9877
-39.7916
-39.5761
-39.3416
-39.0881
-38.816
-38.5251
-38.2151
-37.8857
-37.2124
-37.2659
-37.2978
-37.3072
-37.2943
-37.2597
-37.2041
-37.1279
-37.0317
-36.9158
-36.7808
-36.6272
-36.4554
-36.2658
-36.0587
-35.8344
-35.5929
-35.3343
-35.0582
-34.7641
-34.0888
-34.1422
-34.1759
-34.1891
-34.1817
-34.1544
-34.1077
-34.0422
-33.9582
-33.8562
-33.7367
-33.6002
-33.4472
-33.2781
-33.0932
-32.8928
-32.6769
-32.4456
-32.1985
-31.9353
-31.3179
-31.3685
-31.4009
-31.4143
-31.4089
-31.3851
-31.3435
-31.2844
-31.2085
-31.116
-31.0076
-30.8837
-30.7448
-30.5915
-30.424
-30.2428
-30.0478
-29.8392
-29.6167
-29.3796
-28.86
-28.9061
-28.9353
-28.947
-28.9412
-28.9184
-28.8791
-28.8237
-28.7528
-28.6666
-28.5659
-28.4511
-28.3227
-28.1813
-28.0275
-27.8614
-27.6835
-27.4937
-27.2917
-27.077
-26.6752
-26.7162
-26.7413
-26.7501
-26.7426
-26.7194
-26.6807
-26.6272
-26.5592
-26.4771
-26.3817
-26.2734
-26.1528
-26.0205
-25.8772
-25.7234
-25.5593
-25.3851
-25.2006
-25.0051
-24.7264
-24.7622
-24.783
-24.7884
-24.7786
-24.7541
-24.7152
-24.6623
-24.596
-24.5166
-24.4248
-24.3212
-24.2064
-24.0812
-23.9462
-23.8021
-23.6495
-23.4885
-23.3191
-23.1405
-22.9808
-23.0115
-23.028
-23.03
-23.0178
-22.9917
-22.952
-22.8992
-22.8338
-22.7562
-22.667
-22.5668
-22.4564
-22.3366
-22.2082
-22.072
-21.929
-21.7794
-21.6234
-21.46
-21.41
-21.436
-21.4486
-21.4474
-21.4328
-21.405
-21.3644
-21.3115
-21.2465
-21.1701
-21.0828
-20.9852
-20.8782
-20.7626
-20.6394
-20.5098
-20.3747
-20.235
-20.0911
-19.942
-19.9902
-20.0121
-20.0211
-20.017
-20.0002
-19.9709
-19.9294
-19.8761
-19.8115
-19.7359
-19.65
-19.5545
-19.4501
-19.3378
-19.2188
-19.0943
-18.9659
-18.8348
-18.7021
-18.5667
-18.7016
-18.7198
-18.7256
-18.719
-18.7002
-18.6695
-18.6273
-18.5737
-18.5093
-18.4345
-18.3498
-18.2559
-18.1535
-18.0438
-17.9279
-17.8074
-17.6845
-17.5606
-17.4384
-17.3165
-17.5277
-17.5425
-17.5455
-17.5367
-17.5162
-17.4843
-17.4414
-17.3877
-17.3235
-17.2493
-17.1656
-17.0729
-16.9722
-16.8643
-16.7506
-16.633
-16.514
-16.3959
-16.2833
-16.1746
-16.4546
-16.4665
-16.467
-16.4562
-16.4342
-16.4013
-16.3578
-16.3039
-16.2399
-16.1662
-16.0832
-15.9916
-15.8919
-15.7852
-15.6728
-15.5566
-15.4399
-15.3256
-15.2211
-15.1242
-15.4705
-15.48
-15.4786
-15.4663
-15.4432
-15.4097
-15.3658
-15.3119
-15.2482
-15.175
-15.0928
-15.0019
-14.903
-14.7969
-14.6849
-14.5688
-14.4524
-14.3396
-14.2421
-14.1543
-14.5643
-14.5723
-14.57
-14.5572
-14.5341
-14.5008
-14.4577
-14.4049
-14.3426
-14.271
-14.1906
-14.1017
-14.0046
-13.9001
-13.7892
-13.6733
-13.5562
-13.443
-13.3524
-13.2788
-13.7306
-13.7354
-13.7305
-13.7159
-13.6917
-13.6581
-13.6153
-13.5633
-13.5025
-13.4329
-13.3549
-13.2687
-13.1746
-13.0729
-12.9641
-12.8494
-12.7304
-12.6125
-12.5154
-12.4662
-53.5687
-54.1441
-54.6824
-55.2057
-55.711
-56.1924
-56.647
-57.0738
-57.4719
-57.8403
-58.1783
-58.4856
-58.7617
-59.0063
-59.2187
-59.399
-59.5482
-59.6673
-59.7584
-59.8234
-47.0857
-47.6665
-48.2192
-48.7496
-49.2571
-49.7394
-50.195
-50.6232
-51.0233
-51.3948
-51.737
-52.0498
-52.3334
-52.5883
-52.8125
-53.0054
-53.1676
-53.2995
-53.4017
-53.4729
-42.4414
-43.0099
-43.5548
-44.0763
-44.5743
-45.0481
-45.497
-45.9202
-46.3171
-46.6871
-47.0291
-47.3431
-47.6285
-47.8843
-48.1116
-48.3107
-48.4813
-48.6231
-48.7358
-48.8178
-38.3174
-38.8607
-39.3843
-39.8862
-40.366
-40.8233
-41.2576
-41.6681
-42.0542
-42.4154
-42.7503
-43.0585
-43.3409
-43.5969
-43.8267
-44.0301
-44.2067
-44.356
-44.4779
-44.5718
-34.6397
-35.1529
-35.649
-36.1255
-36.5814
-37.0163
-37.4297
-37.8208
-38.189
-38.5338
-38.8557
-39.1544
-39.4283
-39.6776
-39.9025
-40.1028
-40.278
-40.428
-40.5528
-40.6522
-31.4411
-31.9228
-32.3892
-32.8376
-33.2668
-33.6765
-34.0661
-34.435
-34.7828
-35.1092
-35.414
-35.6967
-35.9565
-36.1936
-36.4085
-36.6008
-36.7697
-36.9154
-37.0378
-37.137
-28.6693
-29.1202
-29.5569
-29.9769
-30.3791
-30.7629
-31.1279
-31.4736
-31.7995
-32.1054
-32.3909
-32.6558
-32.8996
-33.1223
-33.3235
-33.505
-33.6651
-33.8033
-33.92
-34.0153
-26.2574
-26.6794
-27.088
-27.481
-27.8572
-28.216
-28.557
-28.8797
-29.1838
-29.4689
-29.735
-29.9817
-30.209
-30.4167
-30.6049
-30.7719
-30.9214
-31.0506
-31.1596
-31.2488
-24.1467
-24.5422
-24.9251
-25.2931
-25.6452
-25.9806
-26.299
-26.5999
-26.8832
-27.1485
-27.3958
-27.625
-27.8359
-28.0284
-28.2027
-28.3585
-28.4948
-28.6139
-28.7146
-28.7966
-22.287
-22.6588
-23.0184
-23.3639
-23.6939
-24.0078
-24.3053
-24.5861
-24.85
-25.0969
-25.3267
-25.5392
-25.7346
-25.9127
-26.0735
-26.2169
-26.3428
-26.4515
-26.5435
-26.6181
-20.6369
-20.9874
-21.3264
-21.6515
-21.9616
-22.256
-22.5345
-22.7969
-23.043
-23.2729
-23.4865
-23.6837
-23.8647
-24.0294
-24.1778
-24.3098
-24.4254
-24.5246
-24.6082
-24.6756
-19.1625
-19.4943
-19.815
-20.1221
-20.4143
-20.691
-20.9521
-21.1977
-21.4276
-21.6419
-21.8407
-22.024
-22.1919
-22.3443
-22.4813
-22.6028
-22.709
-22.7998
-22.8751
-22.9358
-17.837
-18.1522
-18.457
-18.7482
-19.0242
-19.2848
-19.5301
-19.7603
-19.9753
-20.1754
-20.3607
-20.5313
-20.6873
-20.8286
-20.9553
-21.0673
-21.1648
-21.2476
-21.3156
-21.3703
-16.6386
-16.9395
-17.2307
-17.5078
-17.7691
-18.0149
-18.2457
-18.4616
-18.663
-18.8501
-19.0231
-19.1821
-19.3272
-19.4585
-19.5758
-19.6793
-19.769
-19.845
-19.9075
-19.9554
-15.5505
-15.839
-16.1188
-16.3831
-16.6309
-16.863
-17.0803
-17.283
-17.4718
-17.6468
-17.8086
-17.957
-18.0923
-18.2144
-18.3233
-18.4192
-18.5018
-18.5714
-18.6279
-18.6711
-14.5577
-14.8378
-15.1083
-15.3607
-15.5956
-15.8148
-16.0192
-16.2095
-16.3864
-16.5503
-16.7016
-16.8404
-16.9667
-17.0805
-17.1818
-17.2707
-17.347
-17.4108
-17.4622
-17.501
-13.6426
-13.9216
-14.187
-14.428
-14.6502
-14.857
-15.0492
-15.2277
-15.3935
-15.5472
-15.6889
-15.8188
-15.9369
-16.0433
-16.1378
-16.2203
-16.291
-16.3498
-16.3966
-16.4315
-12.7847
-13.0679
-13.3345
-13.5662
-13.7764
-13.9715
-14.1525
-14.3205
-14.4766
-14.6212
-14.7547
-14.8771
-14.9884
-15.0885
-15.1772
-15.2547
-15.3207
-15.3753
-15.4185
-15.4503
-11.9974
-12.2711
-12.5384
-12.7652
-12.9653
-13.149
-13.3196
-13.4781
-13.6254
-13.7621
-13.8884
-14.0044
-14.1098
-14.2046
-14.2887
-14.3619
-14.4243
-14.4757
-14.5161
-14.5457
-11.4067
-11.6575
-11.8853
-12.1021
-12.2905
-12.4564
-12.6104
-12.7546
-12.8886
-13.0128
-13.1276
-13.2328
-13.3284
-13.414
-13.4896
-13.5552
-13.6106
-13.6558
-13.6907
-13.7152
-6.00567
-6.49698
-7.03538
-7.6178
-8.25069
-8.94143
-9.6977
-10.5289
-11.4473
-12.4686
-13.6131
-14.9077
-16.388
-18.1
-20.1041
-22.4796
-25.3078
-28.6108
-32.6082
-38.6041
-6.27627
-6.78112
-7.33004
-7.92453
-8.57119
-9.27711
-10.0501
-10.8998
-11.8388
-12.8829
-14.053
-15.3763
-16.8886
-18.6366
-20.6809
-23.1005
-25.9757
-29.3256
-33.3614
-39.3784
-6.5483
-7.06669
-7.62624
-8.23303
-8.89373
-9.61509
-10.405
-11.2736
-12.2334
-13.3007
-14.4966
-15.8489
-17.3937
-19.1781
-21.2627
-23.7265
-26.6483
-30.0438
-34.1164
-40.1499
-6.82127
-7.35314
-7.92341
-8.54271
-9.21765
-9.95466
-10.7618
-11.6493
-12.6302
-13.7209
-14.943
-16.3245
-17.902
-19.7228
-21.848
-24.3558
-27.324
-30.7651
-34.8755
-40.9301
-7.09474
-7.64
-8.22107
-8.85309
-9.54248
-10.2953
-11.1198
-12.0265
-13.0286
-14.143
-15.3913
-16.8022
-18.4126
-20.27
-22.4357
-24.9876
-28.0021
-31.4887
-35.6376
-41.7167
-7.36834
-7.92687
-8.5188
-9.16375
-9.86777
-10.6366
-11.4786
-12.4046
-13.4281
-14.5662
-15.8411
-17.2815
-18.9248
-20.819
-23.0253
-25.6213
-28.6819
-32.2138
-36.4009
-42.5054
-7.64174
-8.21338
-8.81622
-9.47428
-10.1931
-10.9781
-11.8377
-12.7832
-13.8282
-14.9902
-16.2916
-17.7616
-19.438
-21.369
-23.6158
-26.2558
-29.3624
-32.9392
-37.1638
-43.2938
-7.91471
-8.49925
-9.11302
-9.78434
-10.5181
-11.3193
-12.1967
-13.1617
-14.2283
-15.4142
-16.7422
-18.2419
-19.9514
-21.9192
-24.2066
-26.8903
-30.0425
-33.6638
-37.9251
-44.0806
-8.18708
-8.78427
-9.40893
-10.0937
-10.8425
-11.66
-12.5552
-13.5397
-14.6279
-15.8377
-17.1923
-18.7217
-20.4642
-22.4687
-24.7965
-27.5238
-30.7213
-34.3865
-38.6836
-44.8642
-8.45882
-9.06834
-9.70383
-10.4021
-11.166
-11.9997
-12.9127
-13.9167
-15.0265
-16.2602
-17.6413
-19.2002
-20.9757
-23.0168
-25.3848
-28.1553
-31.3975
-35.106
-39.4379
-45.6432
-8.73004
-9.35148
-9.99764
-10.7094
-11.4884
-12.3383
-13.2689
-14.2924
-15.4235
-16.681
-18.0885
-19.6769
-21.4851
-23.5626
-25.9704
-28.7837
-32.0701
-35.8211
-40.1868
-46.416
-9.00102
-9.63386
-10.2904
-11.0156
-11.8095
-12.6755
-13.6235
-14.6662
-15.8185
-17.0995
-18.5333
-20.1508
-21.9916
-24.1051
-26.5525
-29.408
-32.7379
-36.5306
-40.9289
-47.1813
-9.27226
-9.91578
-10.5823
-11.3206
-12.1292
-13.0109
-13.9761
-15.0377
-16.211
-17.5152
-18.9749
-20.6213
-22.4943
-24.6435
-27.1298
-30.0271
-33.3998
-37.2333
-41.6629
-47.9376
-9.54447
-10.1977
-10.8734
-11.6244
-12.4472
-13.3443
-14.3263
-15.4063
-16.6002
-17.9273
-19.4125
-21.0875
-22.9922
-25.1767
-27.7015
-30.6398
-34.0545
-37.9279
-42.3875
-48.6838
-9.81842
-10.4798
-11.1637
-11.9268
-12.7632
-13.6751
-14.6733
-15.7715
-16.9855
-18.3351
-19.8454
-21.5484
-23.4846
-25.7037
-28.2664
-31.245
-34.7007
-38.6132
-43.1014
-49.4186
-10.0951
-10.7625
-11.453
-12.2272
-13.0766
-14.0026
-15.0166
-16.1324
-17.366
-18.7377
-20.2726
-22.0033
-23.9702
-26.2234
-28.8234
-31.8414
-35.3373
-39.2879
-43.8036
-50.141
-10.3742
-11.0446
-11.7399
-12.5242
-13.3861
-14.3258
-15.3551
-16.488
-17.7409
-19.1341
-20.6932
-22.4509
-24.448
-26.7347
-29.371
-32.4276
-35.9627
-39.9505
-44.4931
-50.8505
-10.6551
-11.3235
-12.0217
-12.8162
-13.6904
-14.6436
-15.6878
-16.8374
-18.1091
-19.5233
-21.1061
-22.8903
-24.917
-27.2363
-29.9082
-33.0023
-36.5754
-40.5996
-45.1686
-51.5469
-10.9305
-11.5911
-12.2925
-13.0995
-13.9873
-14.9541
-16.0131
-17.1793
-18.4694
-19.9042
-21.5101
-23.3202
-25.3757
-27.7269
-30.4334
-33.5638
-37.1737
-41.2332
-45.8289
-52.2319
-11.1818
-11.8272
-12.5477
-13.3753
-14.2774
-15.2572
-16.3306
-17.5129
-18.821
-20.2759
-21.9043
-23.7396
-25.8232
-28.2053
-30.9452
-34.1106
-37.7554
-41.8482
-46.4694
-52.9069
-1.58466
-1.83863
-2.18653
-2.57549
-2.99408
-3.44767
-3.94257
-4.48471
-5.08158
-5.74345
-6.48426
-7.32303
-8.28591
-9.40894
-10.743
-12.3624
-14.3569
-16.7875
-19.9628
-25.3576
-1.73782
-2.00821
-2.37458
-2.76948
-3.1915
-3.65043
-4.15224
-4.70246
-5.30874
-5.9816
-6.73525
-7.58904
-8.56956
-9.71335
-11.0719
-12.72
-14.7474
-17.2135
-20.421
-25.8296
-1.88532
-2.17979
-2.55932
-2.96235
-3.39212
-3.85944
-4.37019
-4.93009
-5.54715
-6.23224
-6.99991
-7.86988
-8.8692
-10.035
-11.4192
-13.097
-15.158
-17.6595
-20.8985
-26.3158
-2.0551
-2.36041
-2.74814
-3.1599
-3.59886
-4.07572
-4.59651
-5.16722
-5.79619
-6.4946
-7.27734
-8.16454
-9.18372
-10.3725
-11.7834
-13.492
-15.5875
-18.1258
-21.3996
-26.8346
-2.23621
-2.5486
-2.94417
-3.3649
-3.81336
-4.3002
-4.83166
-5.41399
-6.05575
-6.7684
-7.56717
-8.47258
-9.51263
-10.7254
-12.1641
-13.9045
-16.0358
-18.6124
-21.9237
-27.3827
-2.42279
-2.7438
-3.14771
-3.57757
-4.0358
-4.5331
-5.07583
-5.67046
-6.32577
-7.05349
-7.86917
-8.79374
-9.85564
-11.0936
-12.5611
-14.3346
-16.5028
-19.1188
-22.4689
-27.955
-2.61637
-2.9469
-3.35906
-3.79806
-4.26636
-4.77453
-5.32907
-5.9366
-6.60615
-7.3497
-8.1831
-9.12771
-10.2124
-11.4765
-12.974
-14.7816
-16.988
-19.6446
-23.0342
-28.5491
-2.81836
-3.15837
-3.57858
-4.02671
-4.50527
-5.02464
-5.59141
-6.21237
-6.89676
-7.6568
-8.5087
-9.47417
-10.5826
-11.8737
-13.4022
-15.2451
-17.4908
-20.189
-23.6189
-29.1638
-3.02851
-3.37807
-3.80629
-4.26361
-4.75259
-5.28343
-5.8628
-6.49765
-7.19741
-7.97459
-8.84568
-9.83279
-10.9658
-12.2849
-13.8454
-15.7246
-18.0107
-20.7514
-24.2224
-29.7982
-3.24624
-3.60566
-4.04198
-4.50859
-5.00818
-5.55077
-6.14308
-6.79224
-7.50789
-8.30277
-9.19371
-10.2032
-11.3616
-12.7096
-14.3031
-16.2196
-18.5469
-21.3311
-24.8439
-30.4511
-3.47111
-3.84079
-4.28536
-4.76138
-5.27178
-5.82639
-6.43199
-7.09588
-7.82789
-8.64103
-9.55243
-10.585
-11.7695
-13.1473
-14.7746
-16.7293
-19.0988
-21.9274
-25.4824
-31.1215
-3.70274
-4.08305
-4.53604
-5.02164
-5.54308
-6.10998
-6.7292
-7.4082
-8.15704
-8.98896
-9.92143
-10.9777
-12.1891
-13.5975
-15.2594
-17.2532
-19.6658
-22.5395
-26.1371
-31.8083
-3.94067
-4.33199
-4.79357
-5.28894
-5.82166
-6.40115
-7.03431
-7.72881
-8.49491
-9.34612
-10.3002
-11.3809
-12.6199
-14.0595
-15.757
-17.7907
-20.2471
-23.1665
-26.8071
-32.5106
-4.18436
-4.58707
-5.05746
-5.56281
-6.10708
-6.69943
-7.34687
-8.05724
-8.84104
-9.71202
-10.6883
-11.7939
-13.0612
-14.5328
-16.2665
-18.3409
-20.8419
-23.8077
-27.4917
-33.2275
-4.43327
-4.84774
-5.32716
-5.84274
-6.39881
-7.00433
-7.66637
-8.393
-9.1949
-10.0861
-11.0851
-12.2163
-13.5124
-15.0167
-16.7874
-18.9032
-21.4495
-24.4622
-28.1898
-33.9581
-4.68685
-5.11343
-5.60211
-6.12816
-6.69632
-7.31531
-7.99229
-8.73552
-9.55594
-10.4679
-11.49
-12.6473
-13.9729
-15.5106
-17.3188
-19.4767
-22.0689
-25.1291
-28.9007
-34.7016
-4.94454
-5.38355
-5.88174
-6.41852
-6.99906
-7.63182
-8.32405
-9.08424
-9.92357
-10.8566
-11.9024
-13.0863
-14.4419
-16.0135
-17.8601
-20.0606
-22.6993
-25.8075
-29.6237
-35.4574
-5.20581
-5.65754
-6.16545
-6.71324
-7.30645
-7.95328
-8.66108
-9.43857
-10.2972
-11.2517
-12.3216
-13.5326
-14.9188
-16.5249
-18.4102
-20.654
-23.3396
-26.4963
-30.3577
-36.2252
-5.47009
-5.9348
-6.45267
-7.01174
-7.6179
-8.27909
-9.00277
-9.79788
-10.6761
-11.6525
-12.747
-13.9855
-15.4026
-17.0437
-18.9683
-21.2558
-23.9888
-27.1943
-31.1017
-37.0056
-5.73688
-6.21481
-6.74285
-7.31347
-7.93287
-8.60871
-9.34855
-10.1616
-11.0598
-12.0585
-13.1778
-14.4443
-15.8928
-17.5692
-19.5335
-21.865
-24.6456
-27.8999
-31.8531
-37.7993
-1.33691
-1.13023
-0.976476
-0.839775
-0.719733
-0.61381
-0.520892
-0.440185
-0.371187
-0.313542
-0.266981
-0.231294
-0.20631
-0.191893
-0.187905
-0.194134
-0.210367
-0.23673
-0.273397
-0.320165
-1.66673
-1.48333
-1.3256
-1.18368
-1.0588
-0.948413
-0.851528
-0.767348
-0.695359
-0.635185
-0.586543
-0.549212
-0.523008
-0.50778
-0.503384
-0.509647
-0.526414
-0.553694
-0.591562
-0.639749
-1.99924
-1.82371
-1.666
-1.52293
-1.39593
-1.28336
-1.18452
-1.09872
-1.02549
-0.964484
-0.915411
-0.878053
-0.852225
-0.837769
-0.834538
-0.842379
-0.861172
-0.890868
-0.931344
-0.98279
-2.38294
-2.20575
-2.045
-1.89897
-1.76839
-1.65232
-1.55026
-1.46168
-1.38615
-1.32334
-1.27297
-1.23483
-1.20872
-1.19448
-1.19195
-1.20098
-1.22146
-1.25331
-1.29641
-1.35079
-2.80163
-2.62199
-2.45727
-2.3073
-2.1725
-2.05237
-1.94657
-1.85469
-1.77637
-1.71132
-1.65926
-1.61998
-1.59329
-1.579
-1.57698
-1.58705
-1.60911
-1.64304
-1.68873
-1.74616
-3.25287
-3.07
-2.90111
-2.7468
-2.60755
-2.48315
-2.37341
-2.27804
-2.19674
-2.12925
-2.07534
-2.0348
-2.00742
-1.99304
-1.99149
-2.00263
-2.02632
-2.06243
-2.11083
-2.17147
-3.74282
-3.55522
-3.38141
-3.22218
-3.07802
-2.94897
-2.83494
-2.73574
-2.65115
-2.58095
-2.52494
-2.4829
-2.45467
-2.44005
-2.4389
-2.45105
-2.47637
-2.51472
-2.56594
-2.63001
-4.27827
-4.08446
-3.90465
-3.73962
-3.58986
-3.45554
-3.33666
-3.23312
-3.14478
-3.07144
-3.01294
-2.96907
-2.93968
-2.92459
-2.92364
-2.93667
-2.96354
-3.00408
-3.05816
-3.12573
-4.86692
-4.66544
-4.4784
-4.3065
-4.15023
-4.00982
-3.88537
-3.77682
-3.6841
-3.60705
-3.54553
-3.49937
-3.46841
-3.45249
-3.45144
-3.46511
-3.49335
-3.53598
-3.59286
-3.66397
-5.51891
-5.3082
-5.11251
-4.93245
-4.76853
-4.621
-4.49002
-4.37559
-4.27768
-4.19617
-4.13095
-4.08187
-4.04878
-4.03152
-4.02994
-4.04388
-4.07318
-4.11766
-4.17717
-4.25172
-6.24797
-6.02623
-5.82021
-5.63046
-5.45745
-5.3015
-5.16277
-5.04133
-4.93716
-4.85021
-4.78038
-4.72753
-4.69153
-4.67224
-4.66949
-4.68315
-4.71303
-4.75896
-4.82077
-4.8985
-7.07283
-6.83794
-6.61958
-6.41823
-6.23438
-6.06834
-5.92031
-5.79039
-5.6786
-5.58492
-5.50926
-5.45151
-5.41156
-5.38926
-5.38447
-5.39702
-5.42677
-5.47349
-5.53703
-5.61747
-8.01923
-7.76865
-7.53551
-7.32023
-7.12332
-6.94509
-6.78577
-6.6455
-6.52431
-6.42221
-6.33913
-6.27498
-6.22966
-6.20303
-6.19494
-6.20526
-6.2338
-6.28035
-6.34473
-6.42708
-9.12271
-8.85336
-8.60245
-8.37036
-8.15763
-7.96459
-7.79148
-7.63845
-7.50557
-7.39285
-7.30027
-7.22774
-7.17516
-7.14241
-7.12935
-7.13583
-7.16168
-7.20664
-7.27054
-7.35358
-10.4335
-10.1417
-9.8694
-9.61698
-9.38504
-9.17391
-8.98386
-8.81506
-8.66758
-8.54147
-8.43669
-8.35319
-8.29088
-8.24963
-8.22933
-8.22981
-8.2509
-8.2923
-8.35384
-8.43575
-12.0254
-11.7067
-11.4086
-11.1317
-10.8765
-10.6433
-10.4325
-10.2443
-10.0786
-9.93565
-9.81532
-9.71759
-9.64238
-9.58958
-9.55906
-9.55068
-9.56424
-9.59944
-9.65606
-9.73435
-13.9874
-13.6371
-13.3087
-13.0027
-12.7198
-12.4603
-12.2246
-12.0129
-11.8251
-11.6614
-11.5218
-11.4062
-11.3145
-11.2467
-11.2026
-11.1821
-11.1851
-11.2111
-11.26
-11.3318
-16.3813
-15.9954
-15.6324
-15.2934
-14.979
-14.6896
-14.4255
-14.1868
-13.9736
-13.7859
-13.6237
-13.487
-13.3758
-13.2899
-13.2293
-13.1939
-13.1835
-13.198
-13.2369
-13.2996
-19.5179
-19.0922
-18.6903
-18.3147
-17.9658
-17.6437
-17.3483
-17.0796
-16.8376
-16.6223
-16.4337
-16.2718
-16.1366
-16.028
-15.9459
-15.8901
-15.8607
-15.8578
-15.8814
-15.9293
-24.8547
-24.3839
-23.9476
-23.5426
-23.1668
-22.8192
-22.4995
-22.2075
-21.9432
-21.7065
-21.4976
-21.3163
-21.1629
-21.0375
-20.94
-20.8706
-20.83
-20.8205
-20.8434
-20.8885
-0.376934
-0.443383
-0.519473
-0.605123
-0.700249
-0.804745
-0.918481
-1.04129
-1.17297
-1.31324
-1.46172
-1.6179
-1.78097
-1.94971
-2.12247
-2.29697
-2.46873
-2.62796
-2.75926
-2.88906
-0.698396
-0.767123
-0.845854
-0.934477
-1.03289
-1.14096
-1.25854
-1.38545
-1.52144
-1.66621
-1.81935
-1.98031
-2.1483
-2.32217
-2.50031
-2.68106
-2.86265
-3.03734
-3.18995
-3.36223
-1.04493
-1.11751
-1.20046
-1.29365
-1.39697
-1.51026
-1.63336
-1.76606
-1.90809
-2.05914
-2.21876
-2.3864
-2.56132
-2.74248
-2.92854
-3.11828
-3.31075
-3.50158
-3.68503
-3.89104
-1.41635
-1.49279
-1.58001
-1.67787
-1.78624
-1.90495
-2.03381
-2.17259
-2.32101
-2.47873
-2.6453
-2.82017
-3.00264
-3.1918
-3.38657
-3.58609
-3.78955
-3.99464
-4.20185
-4.43158
-1.81525
-1.8957
-1.98739
-2.09017
-2.20388
-2.32834
-2.46336
-2.60867
-2.76398
-2.92894
-3.1031
-3.28594
-3.4768
-3.67491
-3.87945
-4.0898
-4.30536
-4.52508
-4.7516
-4.99809
-2.24441
-2.32915
-2.42564
-2.53372
-2.65321
-2.78392
-2.92562
-3.07807
-3.24094
-3.41389
-3.59649
-3.78823
-3.98852
-4.19673
-4.41223
-4.6346
-4.86345
-5.09856
-5.34269
-5.60369
-2.70698
-2.79624
-2.89785
-3.01161
-3.13731
-3.27477
-3.42374
-3.58395
-3.75511
-3.93686
-4.12878
-4.3304
-4.54123
-4.7607
-4.98836
-5.2239
-5.46712
-5.71823
-5.97943
-6.25518
-3.20675
-3.30089
-3.40793
-3.52771
-3.66005
-3.80474
-3.96153
-4.13017
-4.31034
-4.5017
-4.70385
-4.91639
-5.13883
-5.37074
-5.61175
-5.86162
-6.12026
-6.38801
-6.66644
-6.958
-3.74928
-3.84833
-3.961
-4.0871
-4.22644
-4.37881
-4.54397
-4.72164
-4.91154
-5.11332
-5.32662
-5.55105
-5.7862
-6.03169
-6.28721
-6.55256
-6.82771
-7.11293
-7.40922
-7.71797
-4.3413
-4.4453
-4.5638
-4.6964
-4.84303
-5.00346
-5.17745
-5.36473
-5.565
-5.77795
-6.00323
-6.2405
-6.48938
-6.74953
-7.02068
-7.30266
-7.5954
-7.89906
-8.21421
-8.54165
-4.99219
-5.10108
-5.22521
-5.36451
-5.5186
-5.68734
-5.8705
-6.06782
-6.279
-6.50376
-6.74176
-6.9927
-7.25621
-7.53201
-7.81983
-8.11949
-8.43088
-8.75404
-9.0892
-9.43686
-5.71487
-5.82835
-5.95801
-6.10366
-6.26522
-6.44231
-6.63478
-6.84239
-7.06484
-7.30185
-7.55313
-7.81838
-8.09728
-8.38954
-8.6949
-9.01317
-9.3442
-9.68786
-10.0442
-10.4135
-6.52748
-6.64492
-6.77958
-6.93119
-7.09967
-7.2851
-7.48681
-7.70457
-7.93831
-8.18773
-8.45256
-8.73251
-9.02726
-9.33653
-9.66007
-9.99767
-10.3491
-10.7142
-11.0927
-11.4849
-7.45586
-7.57617
-7.71487
-7.87168
-8.04636
-8.23892
-8.45014
-8.67726
-8.92192
-9.18346
-9.46166
-9.75625
-10.0669
-10.3934
-10.7354
-11.0928
-11.4651
-11.8521
-12.2535
-12.6696
-8.5382
-8.6597
-8.80082
-8.96134
-9.14109
-9.33961
-9.55641
-9.79376
-10.0491
-10.3217
-10.6125
-10.9212
-11.2475
-11.591
-11.9513
-12.3282
-12.7214
-13.1304
-13.5549
-13.9952
-9.83445
-9.95459
-10.0957
-10.2576
-10.4403
-10.6433
-10.8661
-11.1089
-11.3718
-11.6553
-11.958
-12.28
-12.621
-12.9803
-13.3577
-13.753
-14.1662
-14.5966
-15.0437
-15.5076
-11.4261
-11.5417
-11.6799
-11.8406
-12.0235
-12.2282
-12.4545
-12.7023
-12.9714
-13.262
-13.5748
-13.9085
-14.2615
-14.6329
-15.0241
-15.4354
-15.8666
-16.3167
-16.7847
-17.2706
-13.3841
-13.4921
-13.6244
-13.7805
-13.9592
-14.1609
-14.3857
-14.6337
-14.9044
-15.1973
-15.5118
-15.8481
-16.208
-16.5919
-16.9982
-17.4255
-17.8733
-18.3414
-18.8288
-19.3345
-15.9995
-16.0915
-16.2075
-16.3489
-16.5172
-16.7116
-16.9312
-17.1757
-17.4447
-17.7378
-18.0545
-18.3944
-18.7578
-19.1452
-19.5564
-19.991
-20.4486
-20.93
-21.4351
-21.9589
-20.9303
-21.0027
-21.106
-21.2378
-21.3972
-21.5833
-21.7957
-22.034
-22.2978
-22.5868
-22.9009
-23.2399
-23.604
-23.9934
-24.4084
-24.8488
-25.3158
-25.8133
-26.3437
-26.8894
-27.4061
-22.4934
-19.858
-17.7745
-15.9885
-14.4511
-13.1003
-11.8909
-10.7958
-9.79691
-8.88127
-8.03912
-7.26283
-6.54619
-5.884
-5.27173
-4.70414
-4.17563
-3.69468
-3.29029
-27.9506
-23.044
-20.3972
-18.2934
-16.4835
-14.9206
-13.5436
-12.3087
-11.1894
-10.1678
-9.23142
-8.37057
-7.5778
-6.84703
-6.17323
-5.55198
-4.97855
-4.45055
-3.9811
-3.57862
-28.5238
-23.6136
-20.9535
-18.8284
-16.9934
-15.4036
-13.9995
-12.7382
-11.5938
-10.5489
-9.59117
-8.71112
-7.90135
-7.15583
-6.46948
-5.83779
-5.25613
-4.72223
-4.24566
-3.82367
-29.1213
-24.2027
-21.5271
-19.3791
-17.5175
-15.8995
-14.4672
-13.1785
-12.0081
-10.9392
-9.95941
-9.05943
-8.23183
-7.47044
-6.76999
-6.12571
-5.53271
-4.98805
-4.49847
-4.05775
-29.7401
-24.8108
-22.1173
-19.9451
-18.0552
-16.4076
-14.946
-13.6289
-12.4317
-11.3379
-10.3353
-9.41464
-8.5684
-7.79024
-7.07464
-6.41652
-5.81069
-5.25363
-4.75026
-4.2934
-30.3787
-25.4382
-22.7222
-20.5253
-18.6057
-16.9273
-15.4351
-14.0887
-12.8637
-11.7442
-10.7181
-9.77608
-8.91051
-8.11486
-7.38338
-6.71069
-6.09139
-5.52161
-5.00496
-4.53402
-31.0359
-26.0836
-23.3413
-21.1186
-19.1682
-17.4576
-15.9338
-14.5569
-13.3035
-12.1575
-11.1072
-10.1433
-9.25782
-8.44422
-7.69645
-7.00891
-6.37603
-5.79372
-5.2645
-4.78086
-31.7104
-26.7448
-23.9746
-21.7243
-19.7419
-17.9978
-16.4412
-15.0331
-13.7502
-12.5772
-11.5021
-10.5157
-9.61004
-8.77818
-8.01391
-7.31143
-6.66505
-6.07049
-5.52926
-5.03386
-32.4009
-27.4205
-24.6212
-22.3416
-20.3257
-18.5471
-16.9566
-15.5162
-14.2033
-13.0025
-11.9023
-10.893
-9.96681
-9.1165
-8.33565
-7.61825
-6.9585
-6.35192
-5.79909
-5.29251
-33.1061
-28.1094
-25.2801
-22.9695
-20.9188
-19.1045
-17.4792
-16.0057
-14.662
-13.4329
-12.307
-11.2747
-10.3277
-9.45886
-8.66139
-7.92912
-7.2561
-6.63766
-6.07349
-5.55609
-33.8247
-28.8105
-25.9502
-23.6071
-21.5202
-19.6691
-18.008
-16.5007
-15.1255
-13.8678
-12.7158
-11.6601
-10.6923
-9.80479
-8.99069
-8.24359
-7.55738
-6.92718
-6.3518
-5.82382
-34.5558
-29.5226
-26.6303
-24.2533
-22.129
-20.2399
-18.5422
-17.0003
-15.5932
-14.3062
-13.128
-12.0488
-11.06
-10.1538
-9.32304
-8.56113
-7.86178
-7.21983
-6.63331
-6.09488
-35.298
-30.2447
-27.3193
-24.9069
-22.7441
-20.8161
-19.0808
-17.5037
-16.0641
-14.7477
-13.5429
-12.44
-11.4301
-10.5052
-9.65782
-8.88114
-8.16864
-7.51496
-6.91731
-6.36853
-36.0505
-30.9755
-28.016
-25.5669
-23.3643
-21.3964
-19.6229
-18.0099
-16.5374
-15.1912
-13.9598
-12.833
-11.802
-10.8584
-9.99441
-9.20296
-8.47733
-7.81188
-7.2031
-6.64402
-36.8119
-31.7137
-28.7191
-26.2321
-23.9887
-21.98
-20.1674
-18.5181
-17.0123
-15.6361
-14.3778
-13.2272
-12.175
-11.2127
-10.3321
-9.52594
-8.78718
-8.10993
-7.48997
-6.92068
-37.5812
-32.4582
-29.4275
-26.9012
-24.6159
-22.5656
-20.7135
-19.0273
-17.4879
-16.0815
-14.7962
-13.6217
-12.5485
-11.5674
-10.6703
-9.84942
-9.09754
-8.40846
-7.7773
-7.19786
-38.3579
-33.2077
-30.1396
-27.573
-25.2449
-23.1522
-21.2598
-19.5365
-17.9633
-16.5265
-15.2143
-14.0159
-12.9216
-11.9219
-11.0083
-10.1728
-9.40776
-8.70682
-8.06444
-7.47495
-39.1432
-33.9617
-30.8541
-28.2459
-25.874
-23.7383
-21.8053
-20.0445
-18.4373
-16.9702
-15.631
-14.4089
-13.2936
-12.2754
-11.3454
-10.4952
-9.71719
-9.0044
-8.3508
-7.75139
-39.9376
-34.7191
-31.5689
-28.9181
-26.5021
-24.3229
-22.3489
-20.5504
-18.9093
-17.4118
-16.0458
-14.8
-13.6638
-12.6273
-11.681
-10.8163
-10.0252
-9.3006
-8.63581
-8.02666
-40.7281
-35.4748
-32.2826
-29.5887
-27.1283
-24.9054
-22.8902
-21.0539
-19.3787
-17.8509
-16.4581
-15.1887
-14.0318
-12.977
-12.0145
-11.1354
-10.3314
-9.59496
-8.91902
-8.30032
-6.77921
-4.67353
-3.31356
-2.26824
-1.53388
-0.994528
-0.607119
-0.332078
-0.141091
-0.0124223
0.0705476
0.120447
0.146857
0.156933
0.155987
0.147888
0.13545
0.120673
0.104966
0.0892965
0.0743082
0.060412
0.0478439
0.0367237
0.0270728
0.0188712
0.0120246
0.00646876
0.00203355
-0.00130919
-0.00382321
-0.00539987
-0.00648833
-0.00667653
-0.00680139
-0.0058644
-0.0054479
-0.0035175
-0.00296702
3.68161e-05
-7.03485
-4.85588
-3.4598
-2.3834
-1.62493
-1.06816
-0.667182
-0.381696
-0.182467
-0.047176
0.0412148
0.0956144
0.125805
0.139083
0.140866
0.135101
0.124663
0.111599
0.0973592
0.0829433
0.0690254
0.0560391
0.0442433
0.0337741
0.0246715
0.0169282
0.0104612