/*--------------------------------*- C++ -*----------------------------------*\
| =========                 |                                                 |
| \\      /  F ield         | OpenFOAM: The Open Source CFD Toolbox           |
|  \\    /   O peration     | Version:  v1912                                 |
|   \\  /    A nd           | Website:  www.openfoam.com                      |
|    \\/     M anipulation  |                                                 |
\*---------------------------------------------------------------------------*/
FoamFile
{
    version     2.0;
    format      ascii;
    class       surfaceScalarField;
    location    "54.5";
    object      phi;
}
// * * * * * * * * * * * * * * * * * * * * * * * * * * * * * * * * * * * * * //

dimensions      [0 3 -1 0 0 0 0];
oriented        oriented;


internalField   nonuniform List<scalar> 
18940
(
0.000358371
-0.23436
0.234002
0.00137938
-0.216319
0.215298
0.00288362
-0.204784
0.20328
0.00470057
-0.197003
0.195186
0.00669938
-0.19125
0.189252
0.0087783
-0.186459
0.18438
0.0108635
-0.18204
0.179955
0.0129056
-0.177698
0.175656
0.0148743
-0.17331
0.171341
0.0167543
-0.168845
0.166965
0.0185409
-0.164326
0.162539
0.0202364
-0.159795
0.158099
0.021848
-0.155299
0.153688
0.0233855
-0.150883
0.149346
0.02486
-0.146582
0.145108
0.0262833
-0.142422
0.140998
0.0276669
-0.138413
0.13703
0.0290212
-0.134555
0.133201
0.0303547
-0.130827
0.129494
-0.12719
0.125872
0.0316728
0.000381799
-0.234742
0.0014227
-0.21736
0.00293767
-0.206299
0.00475893
-0.198824
0.0067522
-0.193244
0.00881579
-0.188523
0.0108771
-0.184101
0.0128884
-0.17971
0.0148213
-0.175242
0.0166622
-0.170686
0.018408
-0.166072
0.0200624
-0.161449
0.0216335
-0.15687
0.0231318
-0.152381
0.024569
-0.148019
0.025957
-0.14381
0.0273075
-0.139764
0.0286315
-0.135879
0.0299378
-0.132134
-0.128484
0.0312325
0.000403227
-0.235145
0.00146036
-0.218417
0.00298404
-0.207823
0.00480586
-0.200646
0.00678995
-0.195228
0.00883455
-0.190567
0.0108684
-0.186135
0.0128454
-0.181687
0.0147392
-0.177136
0.0165382
-0.172485
0.0182408
-0.167774
0.019852
-0.16306
0.0213808
-0.158399
0.0228384
-0.153839
0.0242368
-0.149418
0.0255882
-0.145161
0.0269044
-0.14108
0.0281968
-0.137171
0.0294746
-0.133411
-0.129755
0.0307447
0.000417103
-0.235563
0.00148928
-0.219489
0.00302083
-0.209354
0.00484064
-0.202466
0.00681217
-0.197199
0.00883423
-0.192589
0.010837
-0.188138
0.0127765
-0.183626
0.0146284
-0.178988
0.0163829
-0.174239
0.01804
-0.169432
0.0196061
-0.164627
0.0210911
-0.159884
0.0225066
-0.155254
0.0238649
-0.150776
0.0251785
-0.146475
0.0264594
-0.142361
0.0277191
-0.138431
0.0289675
-0.13466
-0.130999
0.0302122
0.000428374
-0.235991
0.00151282
-0.220574
0.00304939
-0.210891
0.00486392
-0.204281
0.00681934
-0.199155
0.00881529
-0.194585
0.0107837
-0.190106
0.0126825
-0.185525
0.0144896
-0.180795
0.0161972
-0.175947
0.0178068
-0.171041
0.019326
-0.166146
0.0207656
-0.161324
0.0221377
-0.156627
0.0234549
-0.152093
0.0247297
-0.147749
0.0259743
-0.143606
0.0272003
-0.139657
0.0284184
-0.135878
-0.132218
0.029637
0.000437468
-0.236428
0.00153137
-0.221668
0.00306995
-0.212429
0.00487593
-0.206087
0.00681175
-0.201091
0.00877812
-0.196552
0.0107088
-0.192037
0.0125639
-0.18738
0.0143236
-0.182555
0.015982
-0.177605
0.0175421
-0.172601
0.0190128
-0.167616
0.0204056
-0.162716
0.0217331
-0.157954
0.023008
-0.153368
0.0242429
-0.148984
0.0254502
-0.144813
0.0266417
-0.140849
0.0278286
-0.137065
-0.13341
0.0290204
0.00044495
-0.236873
0.00154562
-0.222768
0.00308311
-0.213967
0.00487716
-0.207881
0.00678992
-0.203003
0.0087233
-0.198485
0.0106131
-0.193927
0.0124217
-0.189189
0.0141314
-0.184265
0.0157383
-0.179212
0.0172471
-0.17411
0.0186676
-0.169037
0.0200122
-0.164061
0.0212938
-0.159236
0.0225254
-0.1546
0.0237194
-0.150178
0.0248882
-0.145982
0.0260441
-0.142005
0.0271987
-0.138219
-0.134574
0.0283629
0.000450975
-0.237324
0.00155588
-0.223873
0.00308925
-0.2155
0.00486808
-0.209659
0.00675441
-0.20489
0.00865153
-0.200382
0.0104973
-0.195773
0.0122566
-0.190948
0.013914
-0.185922
0.0154672
-0.180765
0.0169228
-0.175566
0.0182916
-0.170406
0.0195865
-0.165356
0.0208209
-0.16047
0.0220078
-0.155787
0.0231597
-0.15133
0.0242888
-0.147111
0.0254078
-0.143123
0.026529
-0.139341
-0.135709
0.0276644
0.00045565
-0.23778
0.00156246
-0.22498
0.00308882
-0.217027
0.00484927
-0.21142
0.00670591
-0.206746
0.00856361
-0.20224
0.0103625
-0.197572
0.0120699
-0.192655
0.0136724
-0.187525
0.01517
-0.182263
0.0165705
-0.176966
0.0178858
-0.171721
0.0191296
-0.1666
0.0203154
-0.161656
0.0214562
-0.156928
0.0225644
-0.152438
0.0236523
-0.148199
0.0247327
-0.144204
0.0258189
-0.140427
-0.136814
0.026924
0.000459047
-0.238239
0.00156562
-0.226087
0.00308231
-0.218543
0.00482135
-0.213159
0.00664522
-0.20857
0.00846053
-0.204055
0.0102098
-0.199321
0.0118627
-0.194308
0.0134082
-0.18907
0.0148481
-0.183703
0.0161916
-0.17831
0.0174517
-0.172981
0.0186425
-0.167791
0.019778
-0.162791
0.020871
-0.158021
0.0219337
-0.153501
0.0229785
-0.149244
0.0240182
-0.145244
0.025067
-0.141476
-0.137887
0.02614
0.000461274
-0.2387
0.00156573
-0.227191
0.00307028
-0.220048
0.0047851
-0.214874
0.00657329
-0.210358
0.00834342
-0.205825
0.0100404
-0.201018
0.0116365
-0.195904
0.0131228
-0.190556
0.014503
-0.185083
0.0157876
-0.179594
0.0169906
-0.174184
0.0181266
-0.168927
0.0192098
-0.163875
0.0202529
-0.159064
0.0212679
-0.154516
0.0222669
-0.150243
0.0232631
-0.14624
0.0242717
-0.142484
-0.138925
0.0253095
0.000462485
-0.239163
0.00156322
-0.228292
0.00305342
-0.221538
0.00474141
-0.216562
0.00649123
-0.212108
0.00821359
-0.207548
0.00985596
-0.20266
0.011393
-0.197441
0.0128181
-0.191982
0.0141366
-0.186402
0.0153604
-0.180818
0.0165043
-0.175328
0.0175834
-0.170006
0.0186119
-0.164903
0.0196026
-0.160054
0.0205671
-0.155481
0.0215172
-0.151193
0.0224662
-0.147189
0.0234306
-0.143449
-0.139924
0.0244295
0.00046296
-0.239626
0.00155872
-0.229388
0.00303258
-0.223012
0.00469135
-0.21822
0.00640035
-0.213817
0.0080726
-0.20922
0.00965817
-0.204246
0.0111342
-0.198917
0.0124962
-0.193344
0.0137512
-0.187657
0.0149123
-0.181979
0.0159949
-0.176411
0.0170147
-0.171026
0.017986
-0.165874
0.0189212
-0.16099
0.0198318
-0.156391
0.020729
-0.15209
0.0216264
-0.148086
0.0225416
-0.144364
-0.140879
0.0234962
0.000463177
-0.240089
0.00155307
-0.230477
0.00300882
-0.224468
0.00463618
-0.219848
0.00630212
-0.215483
0.00792219
-0.21084
0.00944908
-0.205773
0.0108624
-0.200331
0.0121597
-0.194641
0.0133495
-0.188846
0.014446
-0.183076
0.0154653
-0.17743
0.0164232
-0.171983
0.0173341
-0.166785
0.0182102
-0.161866
0.0190624
-0.157243
0.0199018
-0.152929
0.0207416
-0.148926
0.0216005
-0.145223
-0.141781
0.0225031
0.000463939
-0.240553
0.00154745
-0.231561
0.00298335
-0.225903
0.00457724
-0.221442
0.00619816
-0.217104
0.00776427
-0.212406
0.00923096
-0.207239
0.0105802
-0.20168
0.0118116
-0.195872
0.0129349
-0.18997
0.0139653
-0.184106
0.0149192
-0.178384
0.0158126
-0.172877
0.0166596
-0.167632
0.0174722
-0.162678
0.0182606
-0.158032
0.0190352
-0.153704
0.0198089
-0.1497
0.0206011
-0.146015
-0.142622
0.021442
0.000466392
-0.241019
0.00154316
-0.232638
0.00295738
-0.227318
0.00451591
-0.223
0.00609014
-0.218678
0.00760091
-0.213917
0.00900629
-0.208645
0.0102906
-0.202964
0.0114552
-0.197037
0.0125113
-0.191026
0.0134746
-0.185069
0.0143617
-0.179271
0.0151884
-0.173704
0.0159685
-0.168412
0.0167131
-0.163423
0.0174317
-0.15875
0.0181334
-0.154405
0.0188301
-0.150396
0.0195425
-0.146727
-0.143389
0.0203095
0.000471928
-0.241491
0.00154151
-0.233707
0.00293224
-0.228708
0.00445375
-0.224522
0.00597993
-0.220204
0.00743432
-0.215371
0.00877769
-0.209988
0.00999672
-0.204183
0.0110945
-0.198135
0.0120832
-0.192015
0.012979
-0.185965
0.0137985
-0.180091
0.0145572
-0.174462
0.0152679
-0.169123
0.0159411
-0.164096
0.0165851
-0.159394
0.0172073
-0.155028
0.0178178
-0.151007
0.0184373
-0.147347
-0.144057
0.0191056
0.000482876
-0.241974
0.00154514
-0.23477
0.00291038
-0.230074
0.00439287
-0.226004
0.00586949
-0.221681
0.0072666
-0.216768
0.00854773
-0.211269
0.00970179
-0.205337
0.0107334
-0.199166
0.0116557
-0.192937
0.0124847
-0.186794
0.0132367
-0.180843
0.0139262
-0.175152
0.0145649
-0.169762
0.015162
-0.164693
0.015725
-0.159957
0.0162603
-0.155563
0.0167743
-0.151521
0.0172798
-0.147852
-0.144579
0.0178009
0.000506817
-0.242481
0.00156126
-0.235824
0.00289588
-0.231408
0.00433518
-0.227444
0.00576005
-0.223106
0.00709918
-0.218108
0.00831842
-0.212488
0.00940875
-0.206428
0.0103762
-0.200134
0.0112345
-0.193795
0.0119997
-0.187559
0.0126868
-0.18153
0.0133085
-0.175773
0.0138739
-0.170327
0.0143887
-0.165208
0.0148566
-0.160425
0.0152796
-0.155986
0.0156566
-0.151898
0.0159918
-0.148187
-0.144934
0.0163474
0.000563868
-0.243045
0.00159817
-0.236858
0.00288849
-0.232699
0.0042795
-0.228835
0.00565114
-0.224478
0.00693246
-0.219389
0.00809106
-0.213647
0.0091199
-0.207456
0.0100266
-0.201041
0.0108255
-0.194594
0.0115329
-0.188266
0.012163
-0.18216
0.0127265
-0.176337
0.013229
-0.170829
0.0136703
-0.165649
0.014043
-0.160798
0.0143302
-0.156273
0.0145059
-0.152074
0.0145648
-0.148246
-0.145106
0.0147365
0.250729
0.000415149
-0.251144
0.250341
0.000388792
0.249959
0.000381526
0.249577
0.000381661
0.249193
0.00038461
0.248804
0.000389025
0.24841
0.00039418
0.24801
0.000399489
0.247605
0.000404558
0.247196
0.000409182
0.246783
0.000413265
0.246366
0.000416781
0.245947
0.000419712
0.245525
0.000422034
0.245101
0.000423623
0.244677
0.000424274
0.244254
0.000422939
0.243835
0.00041907
0.243431
0.000403465
0.000386379
0.252702
0.00102378
-0.253311
0.252058
0.00103301
0.251386
0.00105412
0.250686
0.00108112
0.249961
0.00110949
0.249212
0.00113788
0.248441
0.00116581
0.247647
0.00119278
0.246834
0.00121837
0.246001
0.00124233
0.245149
0.00126455
0.244281
0.00128499
0.243397
0.00130366
0.242499
0.00132055
0.241587
0.00133552
0.240663
0.00134836
0.239728
0.00135797
0.238783
0.00136409
0.237826
0.00136043
0.00135366
0.251485
0.00159588
-0.252057
0.250849
0.00166982
0.250159
0.00174399
0.249421
0.00181925
0.248637
0.00189327
0.24781
0.00196482
0.246942
0.00203359
0.246036
0.00209933
0.245092
0.00216181
0.244114
0.00222086
0.243102
0.00227645
0.242058
0.0023286
0.240984
0.00237742
0.239882
0.00242301
0.238752
0.00246538
0.237596
0.00250457
0.236414
0.00254007
0.235206
0.00257211
0.233968
0.0025983
0.00262284
0.247381
0.0020394
-0.247824
0.246867
0.00218302
0.246289
0.00232202
0.245651
0.00245783
0.244954
0.00258981
0.244202
0.00271715
0.243396
0.00283952
0.242539
0.00295677
0.241632
0.00306874
0.240677
0.00317536
0.239677
0.00327666
0.238633
0.00337276
0.237546
0.00346387
0.236419
0.00355027
0.235252
0.00363224
0.234047
0.00371013
0.232803
0.00378406
0.23152
0.00385463
0.230197
0.00392113
0.00398557
0.241133
0.00231851
-0.241412
0.240782
0.00253344
0.240363
0.0027416
0.239877
0.00294383
0.239326
0.00314009
0.238714
0.00332992
0.23804
0.00351299
0.237308
0.00368909
0.236518
0.00385813
0.235674
0.00402005
0.234776
0.00417494
0.233825
0.00432298
0.232825
0.00446452
0.231775
0.00460001
0.230677
0.00472999
0.229532
0.00485516
0.22834
0.00497612
0.227101
0.00509383
0.225814
0.00520843
0.00532162
0.233535
0.00244186
-0.233658
0.233341
0.00272741
0.233078
0.00300503
0.232746
0.00327502
0.232349
0.00353741
0.231887
0.0037919
0.231362
0.00403816
0.230775
0.00427596
0.230128
0.00450516
0.229422
0.00472573
0.22866
0.00493777
0.227841
0.00514154
0.226968
0.00533747
0.226042
0.00552619
0.225063
0.00570851
0.224033
0.00588546
0.222951
0.00605809
0.221817
0.0062278
0.22063
0.00639544
0.00656285
0.225291
0.00244002
-0.225289
0.225225
0.00279363
0.225091
0.00313856
0.224892
0.00347474
0.224627
0.00380209
0.224299
0.00412035
0.223908
0.00442917
0.223455
0.00472827
0.222943
0.00501748
0.222372
0.00529675
0.221743
0.00556619
0.221059
0.00582607
0.22032
0.00607692
0.219526
0.00631954
0.21868
0.00655498
0.217781
0.00678463
0.216829
0.00701005
0.215823
0.00723312
0.214763
0.00745539
0.00767903
0.216929
0.00234919
-0.216838
0.216955
0.00276731
0.216918
0.00317615
0.216817
0.00357542
0.216654
0.00396489
0.21643
0.00434427
0.216146
0.00471316
0.215803
0.00507125
0.215403
0.00541829
0.214945
0.00575419
0.214432
0.00607904
0.213865
0.00639311
0.213245
0.00669701
0.212573
0.00699165
0.21185
0.00727835
0.211075
0.00755887
0.21025
0.00783532
0.209373
0.00811021
0.208443
0.00838591
0.00866511
0.208796
0.0022027
-0.20865
0.208882
0.00268154
0.208907
0.00315053
0.208874
0.00360924
0.208781
0.00405733
0.208631
0.00449443
0.208424
0.00492008
0.208161
0.00533389
0.207844
0.00573555
0.207473
0.0061249
0.207051
0.00650195
0.206577
0.00686697
0.206053
0.00722057
0.205481
0.00756377
0.204861
0.00789813
0.204194
0.00822577
0.20348
0.00854945
0.202718
0.00887245
0.201906
0.00919821
0.00953028
0.201092
0.00202753
-0.200917
0.20121
0.00256351
0.201272
0.00308907
0.201277
0.00360367
0.201228
0.00410687
0.201124
0.0045982
0.200967
0.00507713
0.200758
0.00554319
0.200497
0.00599596
0.200187
0.00643519
0.199828
0.0068608
0.199422
0.00727296
0.198971
0.00767225
0.198475
0.00805972
0.197936
0.00843714
0.197354
0.00880696
0.196731
0.0091727
0.196065
0.00953853
0.195354
0.0099094
0.0102901
0.193911
0.00184356
-0.193727
0.194041
0.00243357
0.194118
0.00301258
0.194142
0.00357992
0.194113
0.00413507
0.194034
0.00467745
0.193905
0.00520646
0.193726
0.0057215
0.1935
0.00622206
0.193228
0.00670773
0.19291
0.00717829
0.192549
0.00763378
0.192147
0.00807466
0.191705
0.00850189
0.191225
0.00891737
0.190708
0.00932378
0.190155
0.00972555
0.189566
0.0101277
0.188938
0.0105375
0.0109614
0.187276
0.00166419
-0.187096
0.187404
0.00230572
0.187481
0.00293565
0.187507
0.00355315
0.187485
0.00415761
0.187414
0.00474836
0.187296
0.00532469
0.187131
0.00588591
0.186922
0.00643134
0.186669
0.00696042
0.186375
0.00747275
0.18604
0.00796809
0.185668
0.00844674
0.185261
0.00890936
0.18482
0.00935793
0.184349
0.00979505
0.183848
0.0102263
0.183319
0.0106573
0.182758
0.0110988
0.0115591
0.181166
0.00149776
-0.181
0.181283
0.00218896
0.181351
0.00286781
0.18137
0.00353341
0.181343
0.00418506
0.181269
0.00482202
0.18115
0.00544347
0.180988
0.00604856
0.180783
0.00663649
0.180536
0.00720649
0.180251
0.0077579
0.179929
0.00829018
0.179573
0.00880326
0.179185
0.00929737
0.178768
0.00977436
0.178327
0.0102363
0.177863
0.0106901
0.177379
0.0111412
0.176872
0.0116061
0.0120941
0.175539
0.0013491
-0.175391
0.17564
0.00208845
0.175693
0.00281466
0.175699
0.00352678
0.175661
0.004224
0.175577
0.00490548
0.17545
0.00557029
0.175281
0.00621747
0.175072
0.00684604
0.174823
0.007455
0.174538
0.00804339
0.174218
0.00861027
0.173866
0.00915513
0.173486
0.00967742
0.173081
0.0101787
0.172658
0.0106596
0.172219
0.011129
0.17177
0.0115899
0.171308
0.0120688
0.0125724
0.170344
0.00122049
-0.170215
0.170425
0.00200689
0.170461
0.00277922
0.170451
0.00353656
0.170397
0.00427803
0.1703
0.00500267
0.17016
0.00570947
0.169981
0.00639733
0.169762
0.0070651
0.169505
0.00771154
0.169213
0.00833536
0.168888
0.00893513
0.168534
0.00950975
0.168153
0.0100577
0.167752
0.0105798
0.167338
0.0110744
0.166914
0.0115524
0.166493
0.0120105
0.16607
0.0124927
0.0129926
0.165524
0.0011127
-0.165417
0.165586
0.00194507
0.165603
0.00276245
0.165576
0.00356392
0.165505
0.00434851
0.165393
0.00511519
0.165239
0.00586284
0.165046
0.00659024
0.164815
0.00729606
0.164548
0.00797883
0.164246
0.00863692
0.163913
0.00926839
0.163552
0.00987145
0.163166
0.0104432
0.162762
0.0109837
0.162349
0.0114872
0.161934
0.0119675
0.161537
0.0124078
0.161148
0.0128814
0.0133427
0.161029
0.00102522
-0.160942
0.161072
0.00190252
0.16107
0.00276394
0.161026
0.00360849
0.160939
0.00443514
0.160811
0.00524277
0.160644
0.00603018
0.160438
0.00679606
0.160195
0.00753891
0.159917
0.00825704
0.159606
0.0089485
0.159263
0.00961084
0.158893
0.0102415
0.1585
0.0108363
0.15809
0.0113936
0.157675
0.0119026
0.157263
0.0123796
0.156886
0.0127847
0.156527
0.0132398
0.0135969
0.156811
0.000956234
-0.156742
0.156835
0.00187767
0.156817
0.00278196
0.156757
0.00366843
0.156657
0.00453594
0.156516
0.00538329
0.156337
0.00620925
0.156121
0.00701241
0.155868
0.00779114
0.155582
0.00854357
0.155263
0.00926748
0.154914
0.00996
0.154537
0.0106179
0.154138
0.0112355
0.153722
0.0118096
0.153302
0.0123225
0.15289
0.0127918
0.152535
0.0131404
0.152201
0.0135737
0.0137239
0.152826
0.000903775
-0.152774
0.152836
0.00186768
0.152805
0.00281333
0.152733
0.00374016
0.152622
0.00464689
0.152473
0.00553231
0.152287
0.00639516
0.152066
0.00723396
0.15181
0.008047
0.151521
0.00883225
0.151201
0.00958732
0.150852
0.010309
0.150476
0.0109937
0.150078
0.0116343
0.149661
0.0122265
0.149238
0.0127451
0.148822
0.0132078
0.148487
0.0134751
0.148194
0.0138667
0.013672
0.149036
-0.148999
0.000866286
0.149035
0.00186859
0.148995
0.00285363
0.148917
0.00381861
0.148801
0.00476216
0.14865
0.00568321
0.148465
0.0065805
0.148247
0.0074525
0.147996
0.00829741
0.147715
0.00911316
0.147405
0.00989729
0.147068
0.0106464
0.146705
0.0113568
0.146319
0.0120203
0.145912
0.0126329
0.145495
0.0131626
0.145071
0.0136313
0.144721
0.0138259
0.144463
0.0141245
0.0130288
0.254368
7.40817e-05
-0.254442
0.254332
3.63946e-05
0.254299
3.25627e-05
0.254258
4.14972e-05
0.254202
5.59308e-05
0.254128
7.37849e-05
0.254034
9.37568e-05
0.253919
0.000114722
0.253784
0.000135867
0.253627
0.000156684
0.25345
0.000176734
0.253254
0.000195736
0.25304
0.000214187
0.252807
0.00023315
0.252557
0.00025044
0.252291
0.000265616
0.252013
0.000278281
0.251724
0.000288342
0.251434
0.00028994
0.000289951
0.256232
-0.000241545
-0.255916
0.256486
-0.000217567
0.256695
-0.000176631
0.256859
-0.000122821
0.256978
-6.2647e-05
0.25705
1.28416e-06
0.257076
6.78303e-05
0.257055
0.000135901
0.256987
0.00020457
0.25687
0.000272904
0.256707
0.000339657
0.2565
0.000403587
0.25625
0.00046345
0.255953
0.000530925
0.25561
0.000592623
0.255226
0.000649776
0.254802
0.000702232
0.254341
0.000749923
0.253842
0.000788196
0.000821271
0.251668
-0.000898319
-0.251011
0.252252
-0.000801402
0.25277
-0.000694633
0.253225
-0.000578181
0.253618
-0.000455559
0.253948
-0.000329009
0.254216
-0.000199679
0.254421
-6.89745e-05
0.254562
6.31127e-05
0.254639
0.000196003
0.254653
0.000325859
0.254604
0.000452309
0.25449
0.000577651
0.254318
0.000702745
0.254087
0.00082365
0.253797
0.000939543
0.253449
0.00104995
0.253045
0.00115476
0.252581
0.00125204
0.00134458
0.243349
-0.00183411
-0.242413
0.244212
-0.00166443
0.245005
-0.00148748
0.245729
-0.00130251
0.246385
-0.00111122
0.246971
-0.000915395
0.247488
-0.000716396
0.247934
-0.000515479
0.248311
-0.000313339
0.248614
-0.000107196
0.248845
9.47336e-05
0.249008
0.000289489
0.249099
0.000486166
0.249122
0.000679822
0.249077
0.000869391
0.248962
0.00105396
0.248779
0.00123279
0.248529
0.00140551
0.24821
0.00157107
0.00173
0.233266
-0.00296883
-0.232131
0.234332
-0.00273092
0.23533
-0.00248549
0.23626
-0.00223212
0.23712
-0.00197173
0.237911
-0.00170581
0.23863
-0.00143578
0.239278
-0.00116287
0.239852
-0.000888029
0.240357
-0.000612048
0.24079
-0.000338155
0.241147
-6.77591e-05
0.241432
0.00020121
0.241645
0.000466843
0.241786
0.000728748
0.241854
0.000985481
0.241851
0.00123631
0.241776
0.00148065
0.241629
0.00171766
0.0019473
0.222709
-0.00423007
-0.221448
0.223907
-0.00392881
0.22504
-0.00361846
0.226107
-0.00329918
0.227107
-0.00297179
0.228039
-0.0026377
0.228902
-0.00229849
0.229694
-0.00195562
0.230417
-0.00161054
0.231069
-0.0012646
0.231651
-0.000919355
0.232159
-0.000576093
0.232596
-0.00023568
0.232962
0.000100353
0.233258
0.000433479
0.23348
0.000762586
0.233632
0.001085
0.233712
0.00140065
0.233721
0.0017089
0.00200951
0.212463
-0.00556022
-0.211133
0.213734
-0.00519979
0.214944
-0.00482818
0.216091
-0.00444601
0.217173
-0.00405435
0.218191
-0.0036548
0.219141
-0.00324917
0.220025
-0.0028392
0.220841
-0.00242655
0.221589
-0.00201266
0.222268
-0.00159894
0.222879
-0.00118682
0.223421
-0.000777072
0.223891
-0.000370445
0.224299
2.53989e-05
0.224635
0.000426722
0.224902
0.000818432
0.2251
0.00120281
0.225229
0.00157979
0.00194897
0.20294
-0.00691747
-0.201583
0.204241
-0.00650121
0.205485
-0.00607136
0.206668
-0.00562894
0.207789
-0.00517545
0.208847
-0.00471288
0.209841
-0.00424338
0.210771
-0.00376896
0.211636
-0.00329146
0.212435
-0.0028125
0.21317
-0.00233355
0.213839
-0.00185598
0.214443
-0.00138087
0.214982
-0.000909175
0.215449
-0.000442255
0.215862
1.37535e-05
0.216204
0.000477288
0.21648
0.000926056
0.216692
0.00136827
0.00180257
0.194298
-0.00827403
-0.192941
0.195601
-0.00780447
0.196848
-0.00731862
0.198037
-0.00681783
0.199166
-0.00630424
0.200234
-0.00578047
0.201239
-0.00524908
0.202183
-0.00471238
0.203064
-0.00417245
0.203882
-0.00363105
0.204638
-0.00308973
0.205332
-0.00254983
0.205964
-0.00201252
0.206534
-0.00147872
0.207041
-0.000949856
0.207482
-0.000427225
0.207869
9.06841e-05
0.20819
0.000604402
0.208451
0.00110797
0.00160367
0.186544
-0.00961311
-0.185205
0.187832
-0.00909222
0.189065
-0.00855186
0.190241
-0.00799374
0.191358
-0.00742102
0.192415
-0.00683713
0.193411
-0.00624516
0.194346
-0.00564778
0.195221
-0.0050473
0.196035
-0.0044456
0.19679
-0.00384427
0.197485
-0.00324462
0.19812
-0.00264779
0.198696
-0.00205475
0.199213
-0.00146649
0.199669
-0.000883943
0.200068
-0.000307822
0.20041
0.000262292
0.200693
0.000825417
0.00137905
0.179607
-0.010926
-0.178294
0.180871
-0.0103555
0.18208
-0.00976144
0.183233
-0.00914619
0.184326
-0.00851454
0.18536
-0.00787097
0.186334
-0.00721913
0.187248
-0.00656213
0.188103
-0.00590246
0.1889
-0.00524211
0.189638
-0.00458264
0.190319
-0.00392529
0.190942
-0.00327114
0.191509
-0.00262112
0.192018
-0.00197607
0.192471
-0.00133686
0.192867
-0.00070401
0.19321
-8.04488e-05
0.193496
0.000539166
0.00114802
0.173382
-0.0122098
-0.172099
0.174618
-0.0115914
0.175801
-0.0109437
0.176925
-0.0102707
0.17799
-0.00957968
0.178996
-0.00887626
0.179941
-0.00816476
0.180828
-0.00744871
0.181656
-0.00673081
0.182427
-0.00601303
0.183141
-0.00529683
0.183799
-0.00458337
0.184402
-0.00387362
0.184949
-0.00316843
0.185442
-0.00246858
0.18588
-0.00177489
0.186264
-0.00108811
0.186593
-0.000409805
0.186872
0.000260194
0.000923685
0.16776
-0.0134652
-0.166505
0.16897
-0.0128013
0.170125
-0.0120992
0.171222
-0.011367
0.172257
-0.0106155
0.173233
-0.00985147
0.174148
-0.00908004
0.175004
-0.00830513
0.175803
-0.00752954
0.176545
-0.00675515
0.177232
-0.00598325
0.177863
-0.00521486
0.17844
-0.00445079
0.178964
-0.0036918
0.179434
-0.00293861
0.179851
-0.00219203
0.180215
-0.00145253
0.180526
-0.000720833
0.18079
-3.72565e-06
0.000714393
0.16264
-0.0146961
-0.161409
0.163829
-0.0139899
0.164961
-0.0132315
0.166032
-0.0124376
0.16704
-0.0116236
0.167986
-0.0107976
0.168871
-0.00996539
0.169697
-0.00913134
0.170466
-0.00829822
0.171179
-0.00746768
0.171836
-0.00664077
0.17244
-0.00581827
0.17299
-0.00500082
0.173487
-0.00418906
0.173932
-0.00338363
0.174325
-0.00258526
0.174667
-0.00179462
0.174959
-0.001013
0.175198
-0.000242213
0.000521773
0.15794
-0.015909
-0.156727
0.159115
-0.0151649
0.16023
-0.0143462
0.161279
-0.0134867
0.162262
-0.0126072
0.163181
-0.0117166
0.164038
-0.0108219
0.164834
-0.00992792
0.165573
-0.00903705
0.166256
-0.00815056
0.166884
-0.00726913
0.167459
-0.0063932
0.167982
-0.00552317
0.168452
-0.00465949
0.168871
-0.00380274
0.169239
-0.00295358
0.169558
-0.00211279
0.169826
-0.00128129
0.170044
-0.000460225
0.000350666
0.153596
-0.0171167
-0.152388
0.154768
-0.0163365
0.155872
-0.0154502
0.156904
-0.0145191
0.157865
-0.0135685
0.158758
-0.012609
0.159585
-0.0116494
0.160352
-0.0106943
0.16106
-0.00974538
0.161713
-0.00880323
0.162312
-0.00786791
0.162858
-0.00693936
0.163352
-0.00601763
0.163796
-0.00510297
0.164189
-0.00419582
0.164532
-0.00329679
0.164826
-0.00240663
0.165071
-0.00152617
0.165267
-0.000656592
0.000201127
0.149563
-0.0183481
-0.148332
0.150747
-0.0175202
0.151847
-0.0165498
0.152865
-0.0155374
0.153803
-0.0145062
0.154665
-0.0134718
0.155461
-0.0124447
0.156194
-0.0114278
0.15687
-0.0104211
0.157491
-0.00942429
0.158059
-0.00843631
0.158576
-0.00745643
0.159043
-0.00648424
0.15946
-0.00551975
0.159827
-0.00456329
0.160146
-0.0036154
0.160416
-0.00267682
0.160638
-0.00174843
0.160813
-0.000831218
7.24776e-05
0.145812
-0.0196681
-0.144492
0.147029
-0.0187377
0.148125
-0.0176457
0.149124
-0.0165362
0.15003
-0.0154121
0.150855
-0.0142966
0.151611
-0.0132011
0.152307
-0.0121238
0.152948
-0.0110616
0.153536
-0.0100124
0.154074
-0.00897391
0.154562
-0.00794461
0.155001
-0.0069236
0.155392
-0.00591071
0.155735
-0.00490617
0.15603
-0.00391052
0.156278
-0.00292455
0.156479
-0.00194931
0.156633
-0.000985785
-3.59081e-05
0.142358
-0.0211464
-0.14088
0.143607
-0.0199864
0.144681
-0.0187197
0.145637
-0.0174929
0.146495
-0.0162694
0.147271
-0.0150728
0.147982
-0.013912
0.148637
-0.0127788
0.149241
-0.0116655
0.149796
-0.0105675
0.150303
-0.0094815
0.150764
-0.0084051
0.151177
-0.00733714
0.151544
-0.00627736
0.151864
-0.00522608
0.152137
-0.00418389
0.152364
-0.00315165
0.152546
-0.00213054
0.152682
-0.00112204
-0.0001277
0.139271
-0.137853
-0.0225646
0.140433
-0.0211485
0.141467
-0.0197536
0.142344
-0.0183699
0.143133
-0.0170586
0.143857
-0.0157964
0.144522
-0.0145771
0.145136
-0.0133935
0.145705
-0.0122344
0.14623
-0.0110918
0.146709
-0.00996106
0.147144
-0.00883961
0.147533
-0.00772632
0.147877
-0.00662108
0.148175
-0.00552436
0.148428
-0.00443694
0.148636
-0.00335979
0.148799
-0.00229391
0.148918
-0.0012409
-0.000208237
0.0308381
0.112046
-0.110562
-0.0323223
0.0293264
0.115049
-0.113537
0.0277847
0.118184
-0.116642
0.0262094
0.121475
-0.1199
0.0245971
0.124954
-0.123342
0.0229452
0.128664
-0.127012
0.0212515
0.132662
-0.130968
0.0195145
0.137028
-0.135291
0.0177339
0.141866
-0.140085
0.0159097
0.147307
-0.145482
0.0140439
0.153512
-0.151646
0.0121406
0.160668
-0.158764
0.0102089
0.168976
-0.167044
0.00826528
0.178626
-0.176682
0.00633979
0.189738
-0.187813
0.00448256
0.202279
-0.200422
0.00277339
0.215911
-0.214202
0.00133284
0.229777
-0.228336
0.000330287
0.242094
-0.241091
0.249727
-0.249397
0.0306488
0.113523
-0.0321255
0.0291448
0.116553
0.0276109
0.119718
0.0260436
0.123042
0.0244396
0.126558
0.0227961
0.130307
0.0211107
0.134347
0.019382
0.138757
0.0176093
0.143638
0.0157928
0.149123
0.0139345
0.15537
0.0120389
0.162563
0.0101155
0.1709
0.00818188
0.180559
0.00626903
0.191651
0.00442865
0.20412
0.00274203
0.217597
0.00132916
0.231189
0.000354048
0.243069
0.250082
0.0304175
0.11499
-0.0318844
0.0289234
0.118047
0.0273996
0.121242
0.0258426
0.124599
0.024249
0.128152
0.022616
0.13194
0.0209412
0.136022
0.019223
0.140475
0.0174605
0.145401
0.0156541
0.15093
0.0138057
0.157218
0.0119203
0.164449
0.0100077
0.172812
0.00808639
0.18248
0.00618834
0.193549
0.00436625
0.205942
0.00270192
0.219262
0.00131372
0.232578
0.00035712
0.244026
0.250439
0.030146
0.116445
-0.031601
0.0286639
0.119529
0.0271522
0.122753
0.0256075
0.126144
0.0240265
0.129733
0.022406
0.133561
0.0207439
0.137684
0.0190382
0.14218
0.0172882
0.147151
0.015494
0.152724
0.0136578
0.159055
0.0117848
0.166322
0.00988533
0.174712
0.00797852
0.184387
0.00609716
0.195431
0.00429469
0.207744
0.00265307
0.220903
0.00128899
0.233942
0.000352054
0.244962
0.250791
0.0298365
0.117886
-0.0312777
0.0283682
0.120998
0.0268706
0.124251
0.0253401
0.127674
0.0237733
0.1313
0.0221673
0.135167
0.0205196
0.139332
0.0188285
0.143872
0.0170928
0.148887
0.0153129
0.154504
0.013491
0.160876
0.0116326
0.16818
0.00974844
0.176596
0.00785824
0.186277
0.00599559
0.197293
0.00421459
0.209525
0.00259721
0.222521
0.00125853
0.23528
0.000343132
0.245878
0.251134
0.0294915
0.119312
-0.0309174
0.0280387
0.12245
0.0265567
0.125733
0.0250419
0.129189
0.023491
0.132851
0.021901
0.136757
0.0202695
0.140963
0.0185945
0.145547
0.016875
0.150606
0.0151114
0.156267
0.0133058
0.162682
0.011464
0.170022
0.00959724
0.178463
0.0077258
0.188149
0.00588401
0.199135
0.00412656
0.211283
0.00253537
0.224112
0.00122372
0.236592
0.000331524
0.24677
0.251465
0.0291139
0.120722
-0.0305233
0.0276776
0.123887
0.0262124
0.127198
0.0247146
0.130687
0.0231809
0.134384
0.0216083
0.138329
0.0199944
0.142577
0.0183372
0.147204
0.0166356
0.152308
0.0148899
0.158013
0.0131025
0.164469
0.0112793
0.171845
0.00943203
0.18031
0.00758149
0.189999
0.00576272
0.200954
0.00403096
0.213014
0.00246795
0.225675
0.00118511
0.237875
0.000317936
0.247637
0.251783
0.0287064
0.122114
-0.0300988
0.0272874
0.125306
0.0258398
0.128646
0.0243599
0.132167
0.0228444
0.1359
0.0212903
0.139883
0.0196952
0.144172
0.0180572
0.148842
0.016375
0.15399
0.0146489
0.159739
0.0128815
0.166237
0.0110789
0.173648
0.00925311
0.182136
0.00742559
0.191827
0.00563201
0.202747
0.0039281
0.214718
0.00239532
0.227208
0.00114324
0.239127
0.000302972
0.248478
0.252086
0.028272
0.12349
-0.0296475
0.0268705
0.126707
0.0254408
0.130076
0.0239793
0.133628
0.0224827
0.137396
0.020948
0.141418
0.0193728
0.145747
0.0177551
0.15046
0.0160937
0.155651
0.0143889
0.161444
0.0126432
0.167982
0.010863
0.175428
0.00906071
0.183938
0.00725833
0.193629
0.00549214
0.204514
0.00381827
0.216392
0.00231786
0.228708
0.00109856
0.240346
0.000287046
0.249289
0.252373
0.0278135
0.124849
-0.0291727
0.026429
0.128092
0.0250171
0.131487
0.0235741
0.135071
0.0220967
0.138874
0.0205821
0.142933
0.0190277
0.147302
0.0174314
0.152056
0.0157921
0.15729
0.01411
0.163126
0.0123877
0.169705
0.0106318
0.177184
0.00885504
0.185715
0.00707994
0.195404
0.00534335
0.20625
0.00370177
0.218034
0.00223592
0.230174
0.00105146
0.241531
0.000270405
0.25007
0.252644
0.0273333
0.126193
-0.0286777
0.0259646
0.12946
0.0245697
0.132882
0.023145
0.136496
0.021687
0.140332
0.0201928
0.144427
0.0186599
0.148835
0.0170862
0.15363
0.0154703
0.158906
0.0138124
0.164784
0.0121152
0.171402
0.0103855
0.178914
0.00863625
0.187464
0.0068906
0.19715
0.00518588
0.207955
0.00357886
0.219641
0.00214979
0.231603
0.0010022
0.242678
0.000253209
0.250819
0.252897
0.0268329
0.127525
-0.0281651
0.0254782
0.130815
0.0240991
0.134261
0.022692
0.137903
0.0212533
0.141771
0.01978
0.1459
0.0182694
0.150345
0.0167193
0.15518
0.0151281
0.160498
0.013496
0.166416
0.0118257
0.173072
0.010124
0.180615
0.00840445
0.189183
0.00669047
0.198864