/*--------------------------------*- C++ -*----------------------------------*\
| =========                 |                                                 |
| \\      /  F ield         | OpenFOAM: The Open Source CFD Toolbox           |
|  \\    /   O peration     | Version:  v1912                                 |
|   \\  /    A nd           | Website:  www.openfoam.com                      |
|    \\/     M anipulation  |                                                 |
\*---------------------------------------------------------------------------*/
FoamFile
{
    version     2.0;
    format      ascii;
    class       volVectorField;
    location    "54.5";
    object      U;
}
// * * * * * * * * * * * * * * * * * * * * * * * * * * * * * * * * * * * * * //

dimensions      [0 1 -1 0 0 0 0];


internalField   nonuniform List<vector> 
9600
(
(0.456547 -9.3617 -1.54165e-19)
(0.159763 -8.6325 0)
(0.242014 -8.1597 -9.05321e-20)
(0.320826 -7.84061 0)
(0.388198 -7.60555 0)
(0.456657 -7.41096 -3.18562e-20)
(0.522219 -7.23279 -5.50428e-22)
(0.581745 -7.0588 2.6631e-20)
(0.634462 -6.88363 0)
(0.680399 -6.70587 -4.51562e-20)
(0.719948 -6.52613 0)
(0.753735 -6.34595 -1.83071e-21)
(0.782497 -6.16714 -2.6076e-21)
(0.806992 -5.9914 -3.15564e-20)
(0.827943 -5.82012 2.6615e-20)
(0.846005 -5.65427 -2.61484e-20)
(0.861732 -5.49433 2.32825e-20)
(0.875667 -5.34021 0)
(0.888594 -5.19116 -1.85214e-20)
(0.900241 -5.04566 2.03025e-20)
(0.824484 -9.35132 -3.0843e-19)
(0.502229 -8.66061 1.17575e-20)
(0.567682 -8.20404 1.86484e-19)
(0.634995 -7.89446 -1.58957e-19)
(0.693364 -7.66401 1.56763e-19)
(0.753786 -7.46991 0)
(0.811478 -7.28943 6.07622e-20)
(0.862961 -7.11143 -6.06236e-20)
(0.907388 -6.93138 -1.05157e-19)
(0.944847 -6.74841 1.33012e-19)
(0.975841 -6.56356 -8.63598e-20)
(1.00112 -6.37862 -3.52602e-20)
(1.02153 -6.19555 7.11715e-20)
(1.03792 -6.01611 0)
(1.05107 -5.84172 0)
(1.06169 -5.67332 9.97738e-20)
(1.07033 -5.51139 -1.69164e-19)
(1.07755 -5.35577 0)
(1.08421 -5.20558 0)
(1.08979 -5.0592 -7.81972e-20)
(1.19276 -9.3274 6.37259e-19)
(0.846967 -8.67587 0)
(0.896908 -8.2357 -3.77346e-19)
(0.953461 -7.93574 -3.42034e-19)
(1.00313 -7.70986 0)
(1.05549 -7.51622 5.46638e-19)
(1.10508 -7.33344 -5.16079e-19)
(1.14817 -7.15155 1.01168e-19)
(1.18391 -6.96679 -2.25218e-19)
(1.21247 -6.77891 -3.74568e-19)
(1.23451 -6.58929 5.1134e-19)
(1.25092 -6.39998 -3.16162e-19)
(1.26267 -6.21306 -1.417e-19)
(1.27069 -6.03035 0)
(1.27584 -5.85327 5.52902e-21)
(1.27885 -5.68275 1.05168e-19)
(1.28027 -5.51923 4.54648e-20)
(1.28069 -5.3625 0)
(1.28103 -5.21156 8.2419e-20)
(1.28044 -5.06473 8.44709e-20)
(1.56028 -9.28958 -8.62135e-19)
(1.19339 -8.67799 -4.04022e-19)
(1.22914 -8.25448 3.91875e-19)
(1.27566 -7.96413 6.73495e-19)
(1.31691 -7.74275 -3.26887e-19)
(1.36118 -7.54951 5.80525e-21)
(1.40242 -7.36448 2.53851e-19)
(1.43676 -7.17882 2.29936e-19)
(1.4634 -6.98961 4.21142e-19)
(1.48267 -6.79712 0)
(1.49538 -6.60313 1.62256e-19)
(1.50259 -6.40988 -1.72192e-19)
(1.5054 -6.21956 1.03535e-20)
(1.50482 -6.03403 2.71453e-19)
(1.50178 -5.8547 2.3273e-19)
(1.49704 -5.68249 -3.28538e-19)
(1.49115 -5.5178 1.08197e-19)
(1.48472 -5.36035 -1.76187e-19)
(1.47873 -5.20905 1.75355e-19)
(1.47189 -5.06219 -8.45147e-20)
(1.92673 -9.23779 4.34798e-19)
(1.5412 -8.66681 0)
(1.56396 -8.26011 3.84855e-19)
(1.60109 -7.97929 0)
(1.63416 -7.76232 0)
(1.67025 -7.56943 -3.00456e-19)
(1.70288 -7.38221 -5.37588e-19)
(1.72811 -7.19297 -4.5583e-19)
(1.74525 -6.99957 1.84508e-20)
(1.75483 -6.80285 -1.96986e-19)
(1.75787 -6.60491 0)
(1.75558 -6.40818 -1.62668e-19)
(1.74919 -6.21494 -2.93039e-19)
(1.73981 -6.02705 2.57711e-19)
(1.72843 -5.84594 -7.32407e-19)
(1.71582 -5.67248 1.18528e-19)
(1.70255 -5.50702 9.39541e-20)
(1.68924 -5.34927 -1.93736e-19)
(1.67692 -5.198 -8.46534e-20)
(1.66382 -5.05155 2.52435e-19)
(2.29156 -9.17194 4.19573e-19)
(1.88991 -8.6421 4.16124e-19)
(1.90086 -8.25228 0)
(1.92918 -7.98091 0)
(1.95426 -7.76823 -6.24605e-19)
(1.98207 -7.57568 3.41362e-19)
(2.00581 -7.38636 8.21573e-19)
(2.02156 -7.19374 0)
(2.02882 -6.99649 2.17126e-19)
(2.02835 -6.79593 1.96986e-19)
(2.02138 -6.59449 -3.48033e-19)
(2.00931 -6.39477 5.04706e-19)
(1.9935 -6.1991 1.48108e-19)
(1.97516 -6.00937 0)
(1.9553 -5.82693 1.23299e-19)
(1.93475 -5.65266 5.535e-19)
(1.91406 -5.48688 -3.29815e-19)
(1.89387 -5.32923 3.70622e-19)
(1.87525 -5.17838 -7.04772e-19)
(1.85587 -5.03278 8.14744e-19)
(2.65425 -9.092 4.26725e-19)
(2.239 -8.60368 -2.25962e-18)
(2.23929 -8.23075 0)
(2.25936 -7.96868 0)
(2.2766 -7.76017 0)
(2.29599 -7.56796 -6.0593e-19)
(2.31054 -7.37666 0)
(2.31645 -7.18092 -9.71272e-19)
(2.31346 -6.98017 8.95921e-19)
(2.30259 -6.77622 -8.32118e-19)
(2.28532 -6.57178 0)
(2.26322 -6.36959 0)
(2.23779 -6.17201 0)
(2.21033 -5.98093 -2.81582e-19)
(2.18192 -5.79766 0)
(2.15336 -5.62304 0)
(2.12522 -5.45736 -4.1333e-19)
(2.09817 -5.3002 4.0611e-19)
(2.07331 -5.15016 0)
(2.04768 -5.00588 0)
(3.01425 -8.99799 -1.38823e-18)
(2.58793 -8.55135 8.99606e-19)
(2.57869 -8.19525 0)
(2.59101 -7.94232 0)
(2.60051 -7.73789 0)
(2.61135 -7.54602 5.76334e-19)
(2.61641 -7.35291 -5.7809e-19)
(2.61212 -7.15434 -8.89759e-21)
(2.59851 -6.95049 -8.97066e-19)
(2.57692 -6.74363 8.39948e-19)
(2.54906 -6.5367 -3.78943e-19)
(2.51672 -6.33258 6.58959e-19)
(2.48151 -6.13364 -4.64192e-20)
(2.44482 -5.94173 -5.96142e-19)
(2.40777 -5.75813 -5.0247e-19)
(2.37117 -5.58361 4.93662e-19)
(2.33558 -5.41845 0)
(2.30171 -5.2622 0)
(2.27069 -5.11336 3.5726e-19)
(2.23888 -4.97085 -3.9315e-19)
(3.37101 -8.88993 9.27849e-19)
(2.93613 -8.485 8.83846e-19)
(2.91844 -8.14559 -1.67529e-18)
(2.92348 -7.9016 7.91367e-19)
(2.92534 -7.70113 0)
(2.92743 -7.50965 6.1671e-19)
(2.9227 -7.31492 -5.41425e-19)
(2.90786 -7.11386 1.53014e-18)
(2.8833 -6.90735 -2.36991e-20)
(2.85068 -6.69807 0)
(2.812 -6.48922 7.64574e-19)
(2.76922 -6.28373 0)
(2.7241 -6.08399 0)
(2.6781 -5.89179 -2.72728e-19)
(2.63236 -5.70834 5.50055e-19)
(2.5877 -5.53439 0)
(2.54469 -5.37018 4.3148e-19)
(2.50405 -5.21524 1.79637e-19)
(2.46695 -5.06799 -3.8974e-19)
(2.42905 -4.92772 3.78448e-19)
(3.72397 -8.76787 -9.55682e-19)
(3.28302 -8.40451 8.9827e-19)
(3.25793 -8.08157 -2.55834e-18)
(3.25612 -7.84631 8.045e-19)
(3.25039 -7.6497 0)
(3.24355 -7.45868 -1.24479e-18)
(3.22872 -7.26256 5.97989e-19)
(3.20298 -7.05938 0)
(3.16715 -6.85068 -4.74805e-19)
(3.12323 -6.63953 -8.2356e-19)
(3.07351 -6.42933 -7.17666e-19)
(3.02014 -6.22305 5.34598e-20)
(2.96501 -6.02308 6.71234e-19)
(2.90963 -5.83112 2.72504e-19)
(2.85517 -5.64834 -3.79544e-20)
(2.80247 -5.47542 -5.13161e-19)
(2.75205 -5.31259 -2.29531e-19)
(2.70472 -5.15935 -2.06939e-19)
(2.66165 -5.01408 5.52049e-19)
(2.61778 -4.87652 -8.22604e-19)
(4.07256 -8.63191 9.55685e-19)
(3.62798 -8.3098 -4.66545e-20)
(3.59652 -8.00305 8.22402e-19)
(3.58824 -7.77628 0)
(3.57494 -7.58344 -6.80923e-19)
(3.55897 -7.39297 1.30841e-18)
(3.53373 -7.19573 -1.11849e-18)
(3.49679 -6.99083 1.10067e-18)
(3.44938 -6.78044 -4.46024e-19)
(3.39393 -6.568 9.05412e-19)
(3.33297 -6.35703 3.92112e-19)
(3.26889 -6.15057 0)
(3.20366 -5.95094 0)
(3.13887 -5.75979 -2.8256e-19)
(3.07569 -5.57818 3.83728e-20)
(3.01495 -5.40675 1.01056e-18)
(2.95718 -5.24572 -2.50017e-19)
(2.90322 -5.09457 8.25805e-19)
(2.8543 -4.95165 1.44548e-19)
(2.8046 -4.81728 -8.4015e-19)
(4.41624 -8.48215 -2.94071e-18)
(3.97043 -8.20085 -9.87189e-19)
(3.93356 -7.90992 -2.63248e-18)
(3.91917 -7.69139 -1.60151e-18)
(3.89828 -7.50224 -7.59671e-19)
(3.87297 -7.31243 -7.42482e-19)
(3.83703 -7.11438 -2.42391e-18)
(3.78856 -6.9082 -4.90836e-20)
(3.72932 -6.69665 -1.94782e-18)
(3.66211 -6.48349 3.02287e-20)
(3.58978 -6.27238 -8.08763e-19)
(3.51488 -6.06634 -7.36996e-19)
(3.43951 -5.86764 6.72795e-19)
(3.36528 -5.67784 -6.153e-19)
(3.2934 -5.49791 -5.6373e-19)
(3.22465 -5.32843 -5.17389e-19)
(3.15957 -5.16962 -1.38927e-18)
(3.09905 -5.02094 4.94252e-19)
(3.04439 -4.88076 1.19952e-18)
(2.98903 -4.75005 -1.27665e-18)
(4.75445 -8.31873 3.95548e-18)
(4.30976 -8.07765 4.85955e-18)
(4.2684 -7.80213 8.34821e-19)
(4.2482 -7.59153 4.00002e-18)
(4.21969 -7.406 -7.84014e-19)
(4.18482 -7.21701 3.9177e-18)
(4.13789 -7.01848 1.14608e-18)
(4.07761 -6.81148 3.21751e-18)
(4.00629 -6.59934 -9.83487e-19)
(3.92714 -6.38607 2.72313e-18)
(3.84331 -6.17543 1.62905e-18)
(3.75753 -5.97042 1.48465e-18)
(3.67199 -5.77324 -2.01009e-18)
(3.58834 -5.58534 1.88302e-18)
(3.50777 -5.4076 1.13616e-18)
(3.43105 -5.24054 1.04298e-18)
(3.35871 -5.08437 9.59066e-19)
(3.2917 -4.93854 7.36784e-21)
(3.23141 -4.80146 8.14157e-19)
(3.17061 -4.67486 8.47293e-19)
(5.08667 -8.14182 -2.93739e-18)
(4.64538 -7.94023 1.0826e-18)
(4.60039 -7.67962 2.67833e-18)
(4.57462 -7.47667 -3.26313e-18)
(4.53844 -7.2947 7.54037e-19)
(4.49378 -7.10671 -2.62107e-18)
(4.43557 -6.90805 1.28465e-18)
(4.36324 -6.70074 -2.15286e-18)
(4.27963 -6.48858 4.90464e-20)
(4.18839 -6.27582 1.19542e-20)
(4.09297 -6.06627 -1.65155e-18)
(3.99627 -5.86291 -7.47656e-19)
(3.90055 -5.66783 1.3748e-18)
(3.80749 -5.48237 8.76363e-21)
(3.71826 -5.30733 -3.72005e-20)
(3.63361 -5.14313 -1.08857e-18)
(3.55404 -4.99 -4.83419e-19)
(3.4806 -4.84741 -2.71548e-20)
(3.41478 -4.71378 -8.48514e-19)
(3.34876 -4.59185 -4.27896e-19)
(5.41239 -7.95159 0)
(4.9767 -7.78865 -2.00039e-18)
(4.92885 -7.54239 2.37563e-20)
(4.89773 -7.34678 3.25869e-18)
(4.85378 -7.16834 1.36402e-18)
(4.79911 -6.98156 -1.4198e-18)
(4.72938 -6.78317 -1.22318e-18)
(4.64475 -6.57606 0)
(4.54868 -6.36448 -9.73723e-19)
(4.44525 -6.15285 9.29309e-19)
(4.33818 -5.94502 -3.90805e-20)
(4.23054 -5.7439 0)
(4.12467 -5.55148 -6.92108e-19)
(4.02223 -5.369 5.99525e-19)
(3.92437 -5.19712 5.00888e-19)
(3.83179 -5.03623 -6.04633e-19)
(3.74498 -4.88653 -5.24556e-19)
(3.6651 -4.74751 9.10945e-19)
(3.59376 -4.61774 -8.40704e-19)
(3.52263 -4.50106 4.42508e-19)
(5.73115 -7.74823 3.03488e-18)
(5.30314 -7.62298 -2.06026e-18)
(5.25313 -7.39046 -1.75841e-18)
(5.21682 -7.20189 8.18725e-19)
(5.165 -7.02697 -1.58839e-18)
(5.1001 -6.84164 0)
(5.01861 -6.64395 0)
(4.92149 -6.43758 0)
(4.81281 -6.22718 -4.44844e-20)
(4.69712 -6.0173 -1.86503e-18)
(4.57839 -5.8118 8.80844e-19)
(4.45984 -5.6135 7.45007e-19)
(4.34385 -5.4243 6.30476e-19)
(4.23208 -5.24528 -2.58716e-18)
(4.12561 -5.07703 1.22655e-18)
(4.0251 -4.91984 0)
(3.93102 -4.77393 -3.04382e-20)
(3.84457 -4.63881 -1.41287e-18)
(3.76753 -4.51323 -5.69855e-21)
(3.69128 -4.40216 -4.42998e-19)
(6.04258 -7.53201 -2.06427e-18)
(5.62415 -7.44335 -1.0862e-18)
(5.57255 -7.2239 8.18531e-19)
(5.53116 -7.04206 -1.43939e-19)
(5.47136 -6.87067 -4.63044e-18)
(5.39602 -6.68706 4.19075e-18)
(5.30255 -6.49051 -4.88138e-20)
(5.19277 -6.28545 1.14789e-18)
(5.07141 -6.07684 1.02994e-18)
(4.94342 -5.86934 9.45742e-19)
(4.81306 -5.66676 8.60649e-19)
(4.68366 -5.47185 1.53815e-18)
(4.55763 -5.28637 -7.4034e-19)
(4.43659 -5.1113 1.91914e-18)
(4.32158 -4.94711 -1.24069e-18)
(4.21318 -4.79404 -5.13275e-19)
(4.11179 -4.6523 2.06161e-18)
(4.01869 -4.52141 1.37741e-18)
(3.93583 -4.40017 -2.79691e-20)
(3.85464 -4.29446 0)
(6.34667 -7.30341 -1.0496e-18)
(5.93935 -7.24994 2.0758e-18)
(5.88644 -7.04277 1.81744e-18)
(5.84001 -6.86735 -1.45917e-19)
(5.77211 -6.69955 -1.57106e-18)
(5.68612 -6.51797 7.06877e-20)
(5.5805 -6.32306 1.31806e-20)
(5.45796 -6.11988 1.17437e-20)
(5.32387 -5.91368 0)
(5.18362 -5.70916 9.25015e-19)
(5.04169 -5.51008 -1.76063e-18)
(4.90152 -5.31908 -7.5346e-19)
(4.76552 -5.13778 7.4799e-19)
(4.63527 -4.96708 -6.5634e-19)
(4.51174 -4.80735 6.07889e-19)
(4.39543 -4.65882 -5.53406e-19)
(4.28674 -4.52169 4.9006e-21)
(4.18706 -4.39535 -4.70166e-19)
(4.09864 -4.27849 -4.34332e-19)
(4.01329 -4.17881 -4.34629e-19)
(6.64375 -7.06292 0)
(6.24846 -7.04269 -1.01212e-18)
(6.19416 -6.847 1.00051e-18)
(6.14263 -6.67784 1.74568e-18)
(6.0665 -6.51378 -1.57975e-18)
(5.9697 -6.33461 1.36477e-18)
(5.85179 -6.14186 -2.62416e-18)
(5.71644 -5.94117 -2.33042e-18)
(5.56965 -5.73799 -1.01668e-18)
(5.41723 -5.53704 4.44321e-20)
(5.26386 -5.34199 -8.41931e-19)
(5.11305 -5.15533 3.49319e-20)
(4.96718 -4.97858 0)
(4.82773 -4.81251 -1.28748e-18)
(4.69552 -4.65747 6.57031e-19)
(4.57094 -4.51369 0)
(4.45446 -4.3813 -5.14591e-19)
(4.34765 -4.25944 -9.25202e-19)
(4.25276 -4.14773 9.09104e-19)
(4.16223 -4.05881 4.48771e-19)
(6.93343 -6.80975 0)
(6.55087 -6.82087 0)
(6.49498 -6.6365 -1.85603e-18)
(6.43825 -6.4738 -1.59595e-18)
(6.35383 -6.31375 3.23918e-18)
(6.24612 -6.13741 0)
(6.11586 -5.94736 0)
(5.9677 -5.74976 1.17077e-18)
(5.80831 -5.55021 0)
(5.64389 -5.3534 0)
(5.47931 -5.16286 0)
(5.31813 -4.98094 0)
(5.16263 -4.80897 0)
(5.01414 -4.64762 0)
(4.87321 -4.49714 0)
(4.73998 -4.35769 0)
(4.61469 -4.22913 0)
(4.49842 -4.11082 0)
(4.39131 -4.0058 0)
(4.2872 -3.93139 0)
(10.0435 0.0877404 1.47361e-19)
(10.023 -0.307647 2.86715e-19)
(9.98714 -0.700356 -2.94473e-19)
(9.93661 -1.09025 5.87119e-19)
(9.87108 -1.47697 -5.87119e-19)
(9.79043 -1.86004 -5.5482e-19)
(9.69476 -2.2389 -5.53271e-19)
(9.58428 -2.61301 1.74243e-18)
(9.45923 -2.98182 -1.16089e-18)
(9.31986 -3.34478 1.15116e-18)
(9.16645 -3.70134 -1.15116e-18)
(8.99932 -4.05096 1.14265e-18)
(8.81879 -4.39313 -2.26598e-18)
(8.62521 -4.72735 3.33697e-18)
(8.41895 -5.05313 0)
(8.20041 -5.37002 -3.27845e-18)
(7.96997 -5.6776 1.63516e-20)
(7.72816 -5.97551 3.3039e-18)
(7.47508 -6.26359 0)
(7.21241 -6.54116 0)
(10.1205 -0.210718 0)
(10.0792 -0.606829 -1.5043e-20)
(10.0211 -0.999139 0)
(9.94697 -1.38731 5.61848e-19)
(9.85694 -1.77091 5.85093e-19)
(9.75124 -2.14935 -1.69345e-18)
(9.63016 -2.52198 2.94822e-18)
(9.49407 -2.88818 -1.16384e-18)
(9.34332 -3.24736 -1.10941e-18)
(9.17832 -3.59893 -1.10488e-18)
(8.99948 -3.94232 4.45752e-20)
(8.80724 -4.27698 1.13202e-18)
(8.60206 -4.60239 -5.62765e-18)
(8.38443 -4.91805 -1.18014e-18)
(8.15482 -5.22351 2.24871e-18)
(7.91377 -5.51832 2.24569e-18)
(7.66175 -5.80211 1.14094e-18)
(7.39932 -6.07453 -2.20008e-18)
(7.12659 -6.33533 1.04187e-18)
(6.8445 -6.58417 0)
(10.0723 -0.149219 1.327e-19)
(10.0344 -0.540896 -2.71747e-19)
(9.97924 -0.929397 7.84752e-19)
(9.90705 -1.31403 -5.55952e-19)
(9.81825 -1.69414 -5.30087e-19)
(9.71321 -2.06901 5.53438e-19)
(9.59229 -2.43792 0)
(9.4559 -2.80017 0)
(9.30447 -3.15511 2.10143e-18)
(9.13843 -3.50208 3.13496e-18)
(8.95826 -3.84046 -9.91528e-19)
(8.76446 -4.16967 3.09996e-18)
(8.55756 -4.48914 -9.87355e-19)
(8.33807 -4.79834 -3.0194e-18)
(8.10657 -5.09676 1.36232e-20)
(7.86362 -5.38394 1.93815e-18)
(7.60974 -5.65944 -8.74838e-19)
(7.34554 -5.92286 -1.90677e-18)
(7.07135 -6.17381 -1.02991e-18)
(6.78792 -6.4118 1.87394e-18)
(9.9062 -0.112499 0)
(9.87518 -0.494946 2.2911e-19)
(9.82688 -0.875047 2.28169e-19)
(9.76149 -1.2519 -9.37395e-19)
(9.67933 -1.62471 0)
(9.58076 -1.9927 0)
(9.46611 -2.3551 0)
(9.33579 -2.71116 0)
(9.19019 -3.06017 -9.91946e-19)
(9.02977 -3.40144 -9.8818e-19)
(8.85499 -3.73431 0)
(8.66638 -4.05812 1.86833e-18)
(8.46444 -4.37228 -4.6193e-18)
(8.24975 -4.6762 3.71432e-18)
(8.02287 -4.96934 -3.60016e-18)
(7.78438 -5.25116 -8.73581e-19)
(7.53486 -5.52119 1.5648e-19)
(7.27493 -5.77894 1.54883e-19)
(7.0051 -6.02396 -1.77915e-18)
(6.72611 -6.25577 -7.08908e-20)
(9.65318 -0.0990169 0)
(9.62958 -0.469236 -2.25954e-19)
(9.58913 -0.837765 0)
(9.5319 -1.2037 4.52032e-19)
(9.45814 -1.5662 4.30907e-19)
(9.36812 -1.92448 3.93954e-19)
(9.26216 -2.27775 0)
(9.1406 -2.62526 0)
(9.00381 -2.96625 0)
(8.8522 -3.30001 0)
(8.68623 -3.62585 8.13792e-19)
(8.50636 -3.94309 8.76745e-19)
(8.31312 -4.2511 8.71743e-19)
(8.10704 -4.54926 -8.85076e-19)
(7.88868 -4.83697 -1.52326e-18)
(7.65861 -5.11367 1.72908e-18)
(7.41744 -5.37883 3.35234e-18)
(7.16577 -5.63193 1.63057e-18)
(6.90419 -5.87245 0)
(6.63341 -6.09992 -1.53678e-18)
(9.34619 -0.0902155 4.64427e-20)
(9.32956 -0.44626 0)
(9.29671 -0.801186 -7.61077e-19)
(9.24764 -1.15414 1.82628e-23)
(9.18252 -1.5043 1.61775e-20)
(9.10158 -1.85087 -6.85486e-20)
(9.00507 -2.19308 0)
(8.89329 -2.53017 3.09399e-20)
(8.76656 -2.86139 -7.72623e-19)
(8.62525 -3.18604 1.50533e-18)
(8.46976 -3.5034 -1.56967e-18)
(8.30055 -3.81279 8.57522e-19)
(8.11806 -4.11356 -4.49502e-18)
(7.92282 -4.40506 2.96474e-18)
(7.71536 -4.6867 1.57156e-18)
(7.49622 -4.95787 0)
(7.26599 -5.21801 -2.90083e-18)
(7.02526 -5.46657 -6.15403e-20)
(6.77463 -5.703 -2.85672e-18)
(6.51475 -5.9268 2.96916e-18)
(9.01386 -0.0854055 4.17674e-20)
(9.00287 -0.426452 -8.7497e-20)
(8.9764 -0.766848 7.17393e-19)
(8.93441 -1.10579 -1.40773e-20)
(8.87701 -1.4425 7.17245e-19)
(8.80438 -1.7762 -1.08333e-18)
(8.71674 -2.10614 0)
(8.61433 -2.43159 7.30302e-19)
(8.49743 -2.75181 6.68684e-19)
(8.36636 -3.06611 -7.26212e-19)
(8.22149 -3.37379 1.3287e-18)
(8.0632 -3.67418 2.81685e-18)
(7.89193 -3.96663 -1.31002e-18)
(7.70815 -4.2505 -1.41995e-18)
(7.51234 -4.52516 1.36173e-18)
(7.30504 -4.79002 0)
(7.0868 -5.0445 6.49574e-20)
(6.85817 -5.28802 9.8148e-21)
(6.61975 -5.52004 2.7066e-18)
(6.37213 -5.73999 1.25834e-18)
(8.67744 -0.0842253 0)
(8.67051 -0.410319 6.25959e-21)
(8.64887 -0.736108 -1.45984e-19)
(8.61247 -1.06084 -6.48312e-19)
(8.56137 -1.38378 6.09408e-19)
(8.49573 -1.70418 0)
(8.41572 -2.02134 1.24036e-18)
(8.32154 -2.33455 -1.36301e-21)
(8.21343 -2.64311 -1.89439e-18)
(8.09168 -2.94634 0)
(7.95661 -3.24358 -1.30754e-18)
(7.80857 -3.53418 4.60196e-20)
(7.64796 -3.81749 -3.67556e-18)
(7.4752 -4.09291 6.47751e-21)
(7.29075 -4.35981 1.23192e-18)
(7.09511 -4.6176 0)
(6.88879 -4.86569 -1.20914e-18)
(6.67234 -5.10352 8.7054e-21)
(6.4463 -5.33051 1.20044e-18)
(6.21124 -5.5461 -1.23829e-18)
(8.35081 -0.0853075 0)
(8.3465 -0.39703 1.49675e-19)
(8.32824 -0.708679 3.10541e-19)
(8.29596 -1.01956 -5.74815e-19)
(8.24972 -1.32896 -2.47351e-20)
(8.18964 -1.6362 -2.87275e-19)
(8.11585 -1.9406 -1.14999e-18)
(8.02855 -2.2415 5.71732e-19)
(7.92792 -2.53823 2.38252e-20)
(7.81424 -2.83014 5.68311e-19)
(7.68778 -3.11662 5.2318e-19)
(7.54887 -3.39703 2.26571e-18)
(7.39786 -3.67077 1.1333e-18)
(7.23516 -3.93724 2.23843e-18)
(7.06119 -4.19584 -1.11628e-18)
(6.87642 -4.44601 3.86834e-20)
(6.68133 -4.68716 -1.1031e-18)
(6.47645 -4.91872 0)
(6.26231 -5.14013 1.04272e-18)
(6.03942 -5.3508 0)
(8.04189 -0.0875263 6.5167e-20)
(8.03904 -0.385749 -1.90856e-19)
(8.02295 -0.68404 5.23481e-19)
(7.99356 -0.981744 -2.61155e-19)
(7.95091 -1.2782 1.89928e-20)
(7.89509 -1.57277 -2.61e-19)
(7.82623 -1.86481 5.42603e-19)
(7.74449 -2.1537 -5.19302e-19)
(7.65005 -2.43881 5.19299e-19)
(7.54314 -2.71953 9.9599e-19)
(7.42402 -2.99528 -1.07323e-18)
(7.29299 -3.26546 -4.51238e-20)
(7.15038 -3.52949 -3.10654e-18)
(6.99656 -3.78683 5.38053e-21)
(6.83194 -4.03689 4.02971e-20)
(6.65696 -4.27914 2.0139e-18)
(6.4721 -4.51302 -9.94803e-19)
(6.27786 -4.73795 -9.47569e-19)
(6.07475 -4.95338 -3.74648e-20)
(5.86325 -5.15871 0)
(7.75427 -0.0901362 0)
(7.75204 -0.375851 2.42439e-19)
(7.73721 -0.661708 -8.33597e-19)
(7.70975 -0.947092 -2.21161e-19)
(7.66966 -1.23139 4.94605e-19)
(7.61705 -1.51398 0)
(7.55202 -1.79428 0)
(7.47471 -2.07169 4.72769e-19)
(7.3853 -2.34563 -4.72766e-19)
(7.284 -2.61553 3.98269e-19)
(7.17103 -2.88084 -4.6972e-19)
(7.04669 -3.14099 9.31493e-19)
(6.91129 -3.39547 -1.85837e-18)
(6.76517 -3.64373 1.84877e-18)
(6.60873 -3.88526 3.46818e-20)
(6.4424 -4.11954 -9.50846e-19)
(6.26664 -4.34603 -9.04813e-19)
(6.08195 -4.56418 1.84315e-18)
(5.88886 -4.77344 8.62847e-19)
(5.68781 -4.97319 0)
(7.48876 -0.0926633 1.87874e-21)
(7.48657 -0.36687 1.5918e-19)
(7.47237 -0.641246 3.34202e-19)
(7.44612 -0.915212 2.33924e-19)
(7.40785 -1.18819 2.16998e-19)
(7.35762 -1.4596 2.01861e-19)
(7.29556 -1.72888 0)
(7.22178 -1.99547 -8.34192e-19)
(7.13645 -2.25884 -4.30025e-19)
(7.03975 -2.51844 3.66869e-19)
(6.93193 -2.77375 0)
(6.81324 -3.02427 8.49346e-19)
(6.68397 -3.2695 -2.51199e-18)
(6.54447 -3.50894 8.44998e-19)
(6.39511 -3.74212 0)
(6.23632 -3.96856 -8.03437e-19)
(6.06857 -4.18774 -1.62272e-18)
(5.89236 -4.39917 7.98496e-19)
(5.70824 -4.60226 -2.92185e-20)
(5.51666 -4.79639 0)
(7.24447 -0.094809 3.46634e-21)
(7.24196 -0.35846 -1.03018e-19)
(7.22797 -0.622273 1.98805e-19)
(7.20246 -0.885703 -1.31288e-20)
(7.16545 -1.1482 3.97259e-19)
(7.11702 -1.40922 -6.10114e-19)
(7.05728 -1.66824 0)
(6.98633 -1.92473 5.60601e-20)
(6.90433 -2.17817 0)
(6.81147 -2.42806 -8.14425e-19)
(6.70796 -2.67393 0)
(6.59404 -2.91529 -7.51622e-19)
(6.47001 -3.15168 2.32304e-18)
(6.33619 -3.38267 -1.53936e-18)
(6.19294 -3.60781 7.67466e-19)
(6.0407 -3.82668 -6.79053e-19)
(5.87995 -4.0388 7.84328e-19)
(5.7112 -4.24371 -7.78965e-19)
(5.53509 -4.44082 0)
(5.35204 -4.62947 0)
(7.0196 -0.0964519 4.71399e-20)
(7.01659 -0.350397 0)
(7.00256 -0.604484 0)
(6.97748 -0.858197 -3.77693e-19)
(6.94138 -1.11101 -3.52509e-19)
(6.89434 -1.36241 0)
(6.83644 -1.6119 0)
(6.76781 -1.85897 4.98805e-20)
(6.6886 -2.10314 6.9808e-19)
(6.59896 -2.34395 -3.36657e-19)
(6.49912 -2.58093 -3.58678e-19)
(6.38929 -2.81366 1.44891e-18)
(6.26976 -3.0417 -2.15151e-18)
(6.14084 -3.26466 1.38741e-18)
(6.00289 -3.48215 0)
(5.85633 -3.69381 2.78733e-18)
(5.70169 -3.89918 -2.02375e-18)
(5.53948 -4.09793 6.88473e-19)
(5.37048 -4.28936 1.3167e-18)
(5.1951 -4.4729 0)
(6.81207 -0.0975272 -4.0529e-20)
(6.80845 -0.342518 0)
(6.79422 -0.587631 -5.22505e-21)
(6.76939 -0.832365 -3.24344e-19)
(6.73397 -1.07622 1.00503e-18)
(6.68803 -1.31871 -1.67185e-19)
(6.63168 -1.55935 0)
(6.56501 -1.79767 1.3318e-18)
(6.48817 -2.03321 -6.85855e-19)
(6.40132 -2.26553 4.45108e-20)
(6.30465 -2.4942 6.35632e-19)
(6.19839 -2.71882 6.51527e-19)
(6.08279 -2.939 -1.29925e-18)
(5.95815 -3.15439 -1.27082e-18)
(5.82482 -3.36464 -1.2413e-18)
(5.68322 -3.5695 -1.32089e-18)
(5.53391 -3.76851 1.31189e-18)
(5.3774 -3.96155 -6.26281e-19)
(5.21474 -4.14773 -6.67356e-19)
(5.04621 -4.32673 0)
(6.61962 -0.0980146 3.98187e-20)
(6.61536 -0.33472 -1.49511e-19)
(6.60089 -0.571517 -1.54775e-19)
(6.5762 -0.807925 4.63442e-19)
(6.54133 -1.04347 -1.64581e-19)
(6.49635 -1.27768 -1.53841e-19)
(6.44133 -1.51009 0)
(6.37639 -1.74027 -6.32345e-19)
(6.30165 -1.96777 0)
(6.21728 -2.19217 6.27456e-19)
(6.12345 -2.41307 -1.20912e-18)
(6.02037 -2.63011 5.98541e-19)
(5.90827 -2.84291 -1.19341e-18)
(5.78744 -3.0512 1.23151e-18)
(5.65821 -3.25464 6.70287e-19)
(5.52096 -3.45312 0)
(5.37632 -3.64617 -5.78578e-19)
(5.22475 -3.83402 5.78578e-19)
(5.06773 -4.01544 0)
(4.90521 -4.1908 0)
(6.44013 -0.0980019 0)
(6.43526 -0.326979 1.46893e-19)
(6.42055 -0.556016 4.72577e-21)
(6.39599 -0.784652 -1.51461e-19)
(6.36162 -1.01243 -1.33563e-19)
(6.31751 -1.23891 -1.41798e-19)
(6.26373 -1.46365 5.48056e-19)
(6.20039 -1.68621 0)
(6.12761 -1.90619 0)
(6.04554 -2.12319 2.78525e-19)
(5.95434 -2.33683 2.95872e-19)
(5.85421 -2.54676 1.07085e-18)
(5.74536 -2.75266 -5.47155e-19)
(5.62803 -2.95427 5.47153e-19)
(5.50253 -3.15132 5.80841e-19)
(5.3692 -3.34382 3.39624e-20)
(5.2287 -3.5313 -1.0668e-18)
(5.08139 -3.71454 3.77976e-21)
(4.92943 -3.89162 5.27626e-19)
(4.77196 -4.06458 0)
(6.2717 -0.0974922 -3.28325e-20)
(6.26628 -0.319264 3.28321e-20)
(6.25138 -0.541068 0)
(6.22698 -0.762459 1.23666e-19)
(6.19312 -0.982998 4.01702e-19)
(6.14987 -1.20226 -5.07708e-19)
(6.09731 -1.41982 -5.38483e-19)
(6.03554 -1.63528 0)
(5.96467 -1.84824 0)
(5.88484 -2.05832 0)
(5.79621 -2.26516 -9.94092e-19)
(5.69894 -2.46845 -6.41655e-20)
(5.59322 -2.66787 -5.04044e-19)
(5.47925 -2.86322 3.02048e-20)
(5.35731 -3.05427 -9.96807e-19)
(5.22763 -3.24115 1.51914e-18)
(5.09092 -3.42343 -1.43944e-18)
(4.94722 -3.60269 4.88631e-19)
(4.79983 -3.77596 9.3675e-19)
(4.64603 -3.94813 0)
(6.11261 -0.096135 2.94968e-20)
(6.10676 -0.311374 0)
(6.09174 -0.526634 -1.21439e-19)
(6.06756 -0.741479 -2.50234e-19)
(6.03426 -0.955488 1.21287e-19)
(5.99189 -1.16825 9.68531e-19)
(5.94054 -1.37938 0)
(5.8803 -1.58846 -4.66468e-19)
(5.81128 -1.79515 -2.38583e-19)
(5.7336 -1.99906 -4.48213e-19)
(5.6474 -2.19988 -1.79339e-19)
(5.55283 -2.39728 -1.41506e-18)
(5.45006 -2.591 -9.34033e-19)
(5.33922 -2.78082 9.60819e-19)
(5.22055 -2.96658 9.197e-19)
(5.09407 -3.14848 -3.88452e-21)
(4.96059 -3.3262 2.99555e-20)
(4.81935 -3.50232 4.50234e-19)
(4.67547 -3.67302 -9.20451e-19)
(4.5222 -3.84822 0)
(5.96125 -0.0944631 -6.16837e-20)
(5.9551 -0.303447 3.03659e-20)
(5.94013 -0.512518 -1.21317e-19)
(5.91632 -0.721287 1.21261e-19)
(5.88371 -0.92936 -3.48763e-19)
(5.84233 -1.13635 -1.086e-18)
(5.79226 -1.34186 0)
(5.73356 -1.54554 4.9356e-19)
(5.66634 -1.74702 -4.61496e-19)
(5.59068 -1.94597 9.77242e-19)
(5.5067 -2.14205 9.71439e-19)
(5.41451 -2.33496 1.43123e-18)
(5.31424 -2.52445 -9.28712e-19)
(5.20592 -2.71029 4.62595e-19)
(5.08982 -2.89233 -4.54939e-19)
(4.96554 -3.07076 4.54962e-19)
(4.8342 -3.24532 0)
(4.6931 -3.41924 4.11917e-19)
(4.55128 -3.58832 -4.03101e-19)
(4.39357 -3.77479 0)
(7.1401 7.2621 0)
(7.42008 6.97229 0)
(7.68715 6.6729 1.08753e-18)
(7.94202 6.36444 2.02627e-20)
(8.18412 6.04661 -1.15058e-18)
(8.41279 5.71948 0)
(8.62762 5.38346 1.18735e-18)
(8.82828 5.03907 -2.24019e-18)
(9.01445 4.6869 -1.13214e-18)
(9.18583 4.32754 -1.14272e-18)
(9.34217 3.96164 1.14272e-18)
(9.48324 3.58986 -1.15482e-18)
(9.60884 3.21286 5.76047e-19)
(9.71878 2.83137 5.49819e-19)
(9.81291 2.44604 5.51968e-19)
(9.89115 2.05755 -5.85777e-19)
(9.9535 1.66654 5.85777e-19)
(10 1.27372 -2.94067e-19)
(10.0307 0.8795 -1.39686e-19)
(10.0459 0.485222 7.35733e-20)
(7.41697 7.07031 0)
(7.69715 6.7809 -9.9658e-19)
(7.96355 6.47991 -2.13062e-18)
(8.21644 6.16803 3.15077e-18)
(8.45559 5.84558 -2.18494e-18)
(8.6805 5.51301 2.19572e-18)
(8.89067 5.17093 1.19372e-18)
(9.08569 4.82 -3.38742e-18)
(9.26519 4.46091 1.10817e-18)
(9.42879 4.09438 2.20298e-18)
(9.57619 3.72114 1.08538e-18)
(9.70713 3.34193 1.09226e-18)
(9.82146 2.95757 -1.1526e-18)
(9.91896 2.56877 1.69723e-18)
(9.99934 2.17632 -2.35471e-18)
(10.0625 1.7811 5.81221e-19)
(10.1085 1.38391 -5.58518e-19)
(10.1374 0.985571 0)
(10.149 0.586613 1.51567e-20)
(10.1438 0.188017 0)
(7.27401 6.94557 -1.75484e-18)
(7.55701 6.67355 9.85178e-19)
(7.82747 6.38867 1.80216e-18)
(8.08494 6.0916 8.15875e-19)
(8.32899 5.78291 2.04324e-18)
(8.55909 5.46321 2.00418e-20)
(8.77472 5.13317 -1.02415e-18)
(8.97539 4.7935 -3.05221e-18)
(9.16065 4.44489 3.01337e-18)
(9.33005 4.08809 -3.09327e-18)
(9.48322 3.72383 -1.03054e-18)
(9.61985 3.35288 -2.06182e-18)
(9.73962 2.97606 0)
(9.84232 2.59412 0)
(9.92782 2.208 0)
(9.99594 1.81857 -5.25556e-19)
(10.0465 1.42669 5.50424e-19)
(10.0796 1.0332 5.27252e-19)
(10.0949 0.638832 6.27037e-21)
(10.0926 0.244545 1.32423e-19)
(7.04675 6.69353 1.82252e-18)
(7.32649 6.44018 -1.65509e-18)
(7.59489 6.1737 -1.6963e-19)
(7.85122 5.89464 -1.70591e-19)
(8.09491 5.60356 4.30277e-18)
(8.32542 5.30108 -7.12648e-20)
(8.5422 4.98782 3.77618e-21)
(8.7447 4.66445 -2.72099e-18)
(8.93245 4.33164 1.7953e-18)
(9.10495 3.99007 0)
(9.26172 3.64054 9.62911e-19)
(9.40241 3.28387 9.69575e-19)
(9.52675 2.92084 0)
(9.63443 2.55229 0)
(9.72522 2.17904 0)
(9.79892 1.8019 0)
(9.85534 1.4217 -2.17146e-20)
(9.89438 1.0393 4.74754e-19)
(9.91589 0.655515 -2.27983e-19)
(9.91989 0.271296 0)
(6.78409 6.37878 1.54361e-18)
(7.05598 6.14329 0)
(7.31763 5.89485 -4.54498e-18)
(7.56826 5.6339 -1.54917e-18)
(7.8072 5.36095 -1.62794e-18)
(8.0339 5.07655 -1.7257e-18)
(8.24778 4.7813 8.1534e-19)
(8.44829 4.47578 -8.56883e-19)
(8.63489 4.16063 2.37935e-18)
(8.80714 3.83654 -7.78952e-19)
(8.9646 3.50428 0)
(9.1068 3.16458 0)
(9.23333 2.81814 0)
(9.34392 2.46575 0)
(9.43832 2.10821 -1.23012e-18)
(9.51626 1.74634 4.22977e-19)
(9.57754 1.38094 -4.46801e-19)
(9.62197 1.01284 0)
(9.64945 0.642892 2.24843e-19)
(9.65989 0.271981 0)
(6.50915 6.05155 1.32059e-18)
(6.77081 5.8322 -4.79963e-20)
(7.02317 5.60033 2.77779e-18)
(7.26545 5.35626 1.38779e-18)
(7.49697 5.10047 0)
(7.71717 4.83345 -1.47369e-18)
(7.92547 4.55574 6.85265e-20)
(8.12133 4.2679 -1.49609e-18)
(8.30422 3.97052 2.06979e-18)
(8.47366 3.66424 3.27449e-20)
(8.62924 3.3497 2.81211e-20)
(8.77048 3.02753 -7.46576e-19)
(8.89699 2.69847 1.4642e-18)
(9.00844 2.36326 0)
(9.10458 2.02263 6.85842e-20)
(9.18508 1.6774 7.47545e-19)
(9.2497 1.32834 1.63908e-21)
(9.29824 0.976228 -1.53494e-20)
(9.33059 0.621874 0)
(9.34659 0.266109 -4.6346e-20)
(6.24329 5.73451 0)
(6.49361 5.52915 -4.89228e-20)
(6.73539 5.31178 1.75814e-20)
(6.96787 5.0827 -2.51109e-18)
(7.19041 4.8423 0)
(7.40243 4.59106 1.27003e-18)
(7.6034 4.32944 1.35277e-18)
(7.79278 4.05796 -3.93578e-18)
(7.97007 3.77717 -6.82979e-20)
(8.1348 3.48763 -1.26381e-18)
(8.28653 3.18994 6.95855e-19)
(8.42484 2.88471 -6.42803e-19)
(8.54933 2.57263 -7.06629e-19)
(8.65962 2.25437 0)
(8.75548 1.93066 3.72798e-19)
(8.83669 1.60211 -1.6913e-20)
(8.90286 1.26958 -3.46086e-19)
(8.95379 0.933802 -1.67749e-20)
(8.98935 0.595522 -8.71194e-20)
(9.00939 0.255516 1.74612e-19)
(5.99774 5.43928 0)
(6.23647 5.24576 1.08585e-18)
(6.46726 5.04081 1.61892e-20)
(6.68938 4.82468 -1.10201e-18)
(6.90222 4.59773 0)
(7.10523 4.36037 1.14649e-18)
(7.29791 4.11303 -1.09463e-18)
(7.47974 3.85619 -1.21176e-18)
(7.65025 3.59034 2.30497e-18)
(7.80899 3.31601 1.24371e-18)
(7.95554 3.03377 0)
(8.08949 2.7442 6.06633e-19)
(8.21047 2.44791 -4.39198e-21)
(8.31816 2.14556 2.18718e-20)
(8.41213 1.83781 0)
(8.49226 1.5253 -5.9713e-19)
(8.55838 1.20863 -3.12835e-19)
(8.61009 0.88861 4.57073e-19)
(8.64725 0.565984 3.08175e-19)
(8.66971 0.241453 -4.11919e-20)
(5.77616 5.17078 0)
(6.00363 4.98725 -9.37869e-19)
(6.22361 4.79285 0)
(6.43542 4.58782 -1.01186e-18)
(6.63849 4.37247 1.99215e-18)
(6.83229 4.14718 -2.03167e-18)
(7.01635 3.91234 3.17913e-18)
(7.19019 3.66838 -3.16999e-18)
(7.35337 3.41578 -2.14175e-18)
(7.50547 3.15503 -1.57968e-18)
(7.64608 2.88666 5.41698e-19)
(7.77482 2.61121 -1.12304e-18)
(7.89135 2.32927 1.86535e-20)
(7.99534 2.04142 1.11637e-18)
(8.08649 1.74828 -2.80853e-19)
(8.16444 1.45055 1.15051e-18)
(8.22909 1.14873 -5.65866e-19)
(8.28027 0.84352 2.60719e-19)
(8.31771 0.53566 -1.48684e-19)
(8.34123 0.225815 0)
(5.57829 4.92943 0)
(5.79514 4.75434 1.8144e-18)
(6.00485 4.56895 8.80128e-19)
(6.20678 4.37346 -9.05957e-19)
(6.40038 4.16814 -1.85585e-18)
(6.58518 3.95333 2.82403e-18)
(6.76072 3.7294 1.12956e-20)
(6.92658 3.49675 -9.20508e-19)
(7.08233 3.25582 1.97617e-18)
(7.22758 3.00709 1.02062e-18)
(7.36197 2.75104 -9.53545e-19)
(7.48512 2.48822 5.00697e-19)
(7.59671 2.21914 2.25446e-20)
(7.69643 1.94439 -5.26851e-19)
(7.784 1.66452 -2.55304e-19)
(7.85914 1.38014 5.11919e-19)
(7.9216 1.09193 -2.56615e-19)
(7.97129 0.800382 -5.17841e-19)
(8.00802 0.50619 6.00072e-20)
(8.03156 0.209997 6.48871e-20)
(5.4019 4.71313 0)