/*--------------------------------*- C++ -*----------------------------------*\
  =========                 |
  \\      /  F ield         | OpenFOAM: The Open Source CFD Toolbox
   \\    /   O peration     | Website:  https://openfoam.org
    \\  /    A nd           | Version:  6.0
     \\/     M anipulation  |
\*---------------------------------------------------------------------------*/
FoamFile
{
    version     2.0;
    format      ascii;
    class       volScalarField;
    location    "23.765";
    object      p;
}
// * * * * * * * * * * * * * * * * * * * * * * * * * * * * * * * * * * * * * //

dimensions      [0 2 -2 0 0 0 0];

internalField   nonuniform List<scalar> 
2400
(
-0.389465
-0.376313
-0.368071
-0.361429
-0.354891
-0.34846
-0.342213
-0.336116
-0.330249
-0.325698
-0.402547
-0.388549
-0.379348
-0.371578
-0.363812
-0.356146
-0.348719
-0.341505
-0.334584
-0.329484
-0.419628
-0.404167
-0.393522
-0.384212
-0.37484
-0.36559
-0.356657
-0.348006
-0.339715
-0.33397
-0.440971
-0.423425
-0.410825
-0.399542
-0.388167
-0.376963
-0.366175
-0.35573
-0.345694
-0.33916
-0.466891
-0.446566
-0.431468
-0.417764
-0.403985
-0.390455
-0.377445
-0.36481
-0.352583
-0.345027
-0.49767
-0.47381
-0.455648
-0.439081
-0.422514
-0.406303
-0.390714
-0.375469
-0.360513
-0.351551
-0.53353
-0.505325
-0.483536
-0.463694
-0.444002
-0.424814
-0.406352
-0.388129
-0.36984
-0.358828
-0.57458
-0.541199
-0.515245
-0.491769
-0.468668
-0.446257
-0.424669
-0.403092
-0.380617
-0.36629
-0.620736
-0.581385
-0.550819
-0.523457
-0.496774
-0.470959
-0.445894
-0.420055
-0.391175
-0.37036
-0.671445
-0.625591
-0.590182
-0.55895
-0.528962
-0.500349
-0.472701
-0.443645
-0.409255
-0.380058
-1.14086
-1.12425
-1.09514
-1.05586
-1.00865
-0.955707
-0.899127
-0.840788
-0.782335
-0.72531
-1.0443
-1.02943
-1.0032
-0.967751
-0.925209
-0.87765
-0.827024
-0.775083
-0.723348
-0.673135
-0.961553
-0.950437
-0.928424
-0.897507
-0.859725
-0.817087
-0.771493
-0.724651
-0.678041
-0.632886
-0.883868
-0.877653
-0.860796
-0.835086
-0.802424
-0.764732
-0.723853
-0.681477
-0.639096
-0.597929
-0.807986
-0.806925
-0.795575
-0.775463
-0.748279
-0.71578
-0.679687
-0.641614
-0.603046
-0.565202
-0.736146
-0.739884
-0.733861
-0.719327
-0.697717
-0.670553
-0.63934
-0.605503
-0.570426
-0.535244
-0.669791
-0.677625
-0.676388
-0.667083
-0.650896
-0.629085
-0.602869
-0.573326
-0.541556
-0.50841
-0.609358
-0.620521
-0.623399
-0.618817
-0.607771
-0.591299
-0.57032
-0.545418
-0.517005
-0.484875
-0.554667
-0.56852
-0.574938
-0.574659
-0.568591
-0.557682
-0.542691
-0.523742
-0.500023
-0.467819
-0.505686
-0.520874
-0.529597
-0.532568
-0.530715
-0.525083
-0.51664
-0.505782
-0.491704
-0.467771
-0.428196
-0.562628
-0.687511
-0.800615
-0.899678
-0.982906
-1.04908
-1.0976
-1.12846
-1.14234
-0.379142
-0.504407
-0.620975
-0.726551
-0.819009
-0.896675
-0.958427
-1.00372
-1.03259
-1.04568
-0.313164
-0.431087
-0.541657
-0.642547
-0.731664
-0.807331
-0.868363
-0.914114
-0.944488
-0.959939
-0.244574
-0.355082
-0.459737
-0.556244
-0.642544
-0.716956
-0.778226
-0.825574
-0.858718
-0.877878
-0.181893
-0.284535
-0.382747
-0.474264
-0.557088
-0.629598
-0.690537
-0.739044
-0.774693
-0.797494
-0.128402
-0.223323
-0.315032
-0.401221
-0.480008
-0.549901
-0.6097
-0.658535
-0.695903
-0.72167
-0.0841385
-0.171925
-0.257539
-0.338432
-0.41292
-0.479712
-0.537706
-0.586071
-0.624288
-0.652144
-0.0473962
-0.128316
-0.208479
-0.284474
-0.354809
-0.418416
-0.474306
-0.521709
-0.56013
-0.589327
-0.0170165
-0.0908869
-0.16617
-0.237791
-0.304316
-0.364862
-0.418551
-0.464711
-0.502896
-0.532875
-0.00026564
-0.06944
-0.139944
-0.206372
-0.268006
-0.324257
-0.374374
-0.417829
-0.454287
-0.483568
0.542813
0.563836
0.586289
0.609312
0.632424
0.654965
0.67596
0.694821
0.716921
0.755995
0.516269
0.534543
0.554513
0.574639
0.594244
0.612602
0.628658
0.641854
0.657909
0.691741
0.482241
0.496794
0.513466
0.529777
0.544804
0.557777
0.567614
0.573885
0.582732
0.610126
0.441032
0.451004
0.463646
0.475297
0.48476
0.491254
0.493715
0.491942
0.492547
0.512378
0.393035
0.397722
0.405723
0.411974
0.415009
0.414077
0.408182
0.397444
0.388977
0.400296
0.338724
0.337625
0.340535
0.340781
0.336683
0.327567
0.312557
0.29218
0.274053
0.276104
0.278656
0.271518
0.269086
0.26289
0.251139
0.233303
0.208678
0.178268
0.150159
0.142391
0.213569
0.200414
0.192606
0.179692
0.159958
0.133106
0.0986424
0.0581068
0.0199756
0.00206099
0.144266
0.125839
0.112834
0.0929281
0.0649912
0.0290338
-0.0152218
-0.0656771
-0.113586
-0.141748
0.069229
0.0484179
0.0306915
0.00382667
-0.0320491
-0.0768117
-0.130483
-0.190337
-0.247547
-0.285972
0.395503
0.398887
0.409338
0.417585
0.424036
0.430423
0.438349
0.450192
0.468836
0.491363
0.444203
0.448875
0.460566
0.471892
0.482239
0.49279
0.504805
0.520336
0.542887
0.571768
0.483325
0.491736
0.505958
0.520736
0.535135
0.549893
0.565964
0.585066
0.611169
0.645682
0.51561
0.52808
0.545164
0.563234
0.581402
0.600093
0.619943
0.642289
0.671421
0.710683
0.541305
0.557467
0.577251
0.598253
0.619731
0.641862
0.664974
0.690007
0.721456
0.764465
0.560133
0.579384
0.601445
0.624838
0.64898
0.673848
0.699475
0.726411
0.759288
0.804924
0.571823
0.593387
0.61712
0.642203
0.668195
0.694901
0.722084
0.749938
0.783191
0.830233
0.576106
0.599076
0.62375
0.649707
0.6766
0.704088
0.731695
0.759306
0.791755
0.838909
0.572765
0.596142
0.620945
0.646876
0.673623
0.70072
0.727485
0.753564
0.783931
0.829867
0.561673
0.584404
0.608471
0.633431
0.658924
0.68438
0.708951
0.732123
0.759062
0.802388
0.350349
0.305445
0.254188
0.202377
0.151038
0.100929
0.0528821
0.00741942
-0.0351365
-0.0745829
0.354903
0.307179
0.254119
0.19951
0.145371
0.0927555
0.0425042
-0.0047504
-0.0485761
-0.0887097
0.358472
0.305036
0.248388
0.190967
0.134491
0.080013
0.0284123
-0.0196198
-0.0636158
-0.103315
0.361121
0.302638
0.242352
0.18202
0.123161
0.0668945
0.0141408
-0.0344011
-0.0782846
-0.117304
0.362927
0.300035
0.236199
0.172969
0.111823
0.0539435
0.000261334
-0.0485564
-0.0921258
-0.130338
0.364858
0.297787
0.230477
0.164472
0.101238
0.0419658
-0.012444
-0.0613965
-0.104606
-0.142089
0.368574
0.297625
0.227043
0.158424
0.0932255
0.0326078
-0.0225931
-0.0718755
-0.115062
-0.152291
0.376623
0.302145
0.228444
0.157175
0.089791
0.0274182
-0.0291669
-0.0795353
-0.123584
-0.161527
0.391101
0.312428
0.234639
0.159473
0.0884192
0.0226301
-0.0370993
-0.090327
-0.136941
-0.17715
0.407015
0.321211
0.236224
0.153951
0.0760083
0.00370241
-0.062016
-0.120574
-0.171776
-0.21575
-0.110883
-0.144094
-0.174455
-0.202306
-0.228042
-0.252067
-0.274676
-0.295872
-0.316158
-0.326326
-0.125101
-0.157779
-0.186988
-0.213066
-0.236392
-0.257324
-0.276054
-0.292404
-0.30602
-0.310201
-0.138711
-0.169863
-0.197096
-0.220828
-0.241524
-0.25963
-0.275454
-0.289056
-0.300392
-0.306149
-0.151552
-0.181163
-0.206589
-0.228362
-0.247057
-0.263229
-0.277316
-0.289571
-0.300034
-0.306844
-0.163424
-0.191608
-0.215482
-0.235695
-0.252911
-0.267766
-0.280771
-0.292245
-0.302186
-0.309441
-0.174226
-0.201321
-0.224092
-0.243268
-0.259563
-0.273636
-0.286007
-0.296979
-0.30652
-0.313924
-0.184074
-0.21075
-0.233122
-0.251947
-0.267937
-0.281725
-0.293788
-0.304389
-0.313489
-0.320681
-0.193953
-0.221178
-0.244034
-0.263262
-0.279536
-0.293436
-0.305385
-0.315609
-0.324098
-0.330656
-0.211503
-0.240337
-0.264455
-0.284581
-0.301371
-0.315377
-0.326993
-0.336434
-0.343751
-0.348891
-0.252783
-0.283614
-0.308909
-0.329464
-0.346026
-0.359201
-0.369399
-0.37685
-0.381678
-0.383892
-0.383296
-0.351944
-0.335291
-0.325759
-0.318604
-0.312546
-0.306441
-0.297761
-0.282653
-0.269228
-0.381484
-0.353421
-0.338361
-0.329494
-0.322541
-0.316374
-0.310161
-0.302209
-0.29039
-0.282683
-0.378724
-0.353801
-0.340336
-0.332265
-0.325815
-0.320062
-0.314421
-0.307868
-0.299576
-0.295707
-0.375566
-0.353556
-0.341609
-0.334335
-0.32843
-0.323134
-0.318005
-0.312356
-0.30586
-0.303106
-0.372616
-0.353195
-0.342619
-0.336077
-0.330683
-0.325821
-0.321165
-0.316245
-0.310914
-0.308404
-0.370444
-0.353229
-0.343816
-0.337874
-0.332874
-0.328323
-0.323982
-0.319529
-0.314898
-0.312293
-0.369597
-0.354162
-0.345653
-0.340117
-0.335326
-0.330894
-0.326651
-0.322378
-0.318059
-0.315187
-0.370622
-0.356488
-0.348577
-0.343208
-0.338397
-0.33386
-0.329486
-0.325129
-0.320814
-0.317588
-0.37405
-0.360681
-0.35302
-0.347543
-0.342454
-0.337563
-0.332821
-0.328136
-0.323557
-0.319931
-0.380291
-0.367163
-0.359385
-0.353495
-0.347843
-0.342332
-0.336973
-0.331713
-0.32662
-0.322555
-0.317148
-0.263992
-0.232236
-0.189698
-0.156823
-0.1265
-0.102258
-0.0821905
-0.0660343
-0.0529775
-0.0422386
-0.0334793
-0.0265538
-0.0207587
-0.0169866
-0.013
-0.0111968
-0.00682592
-0.00328595
0.000711841
-0.322585
-0.265402
-0.233483
-0.190589
-0.15757
-0.127261
-0.103016
-0.0829391
-0.0666863
-0.0534682
-0.0424736
-0.0334515
-0.0263227
-0.0204485
-0.0169144
-0.0132258
-0.011774
-0.00738585
-0.00322349
0.00086713
-0.330003
-0.267572
-0.235387
-0.192083
-0.158784
-0.128409
-0.104062
-0.0839013
-0.0674947
-0.0540795
-0.0428118
-0.033519
-0.0261784
-0.0202136
-0.0168866
-0.0134678
-0.0123291
-0.00791689
-0.00316388
0.001005
-0.339259
-0.270536
-0.237888
-0.194167
-0.16046
-0.129941
-0.105394
-0.0850757
-0.0684593
-0.0548131
-0.043258
-0.0336892
-0.0261293
-0.0200617
-0.0169051
-0.0137228
-0.0128554
-0.00841385
-0.00310908
0.00112429
-0.350102
-0.274356
-0.240912
-0.19681
-0.162582
-0.131845
-0.107007
-0.0864585
-0.0695791
-0.0556698
-0.0438154
-0.0339664
-0.0261806
-0.0199963
-0.0169698
-0.0139876
-0.0133488
-0.0088748
-0.00306083
0.00122513
-0.362131
-0.279114
-0.244372
-0.199953
-0.165114
-0.134093
-0.108884
-0.0880376
-0.0708471
-0.0566461
-0.0444828
-0.0343509
-0.0263334
-0.0200184
-0.0170793
-0.0142591
-0.0138059
-0.00929809
-0.00302086
0.00130753
-0.374942
-0.285116
-0.248329
-0.203602
-0.168067
-0.136691
-0.111031
-0.0898189
-0.0722696
-0.0577484
-0.045267
-0.0348488
-0.0265928
-0.0201306
-0.0172327
-0.0145337
-0.0142232
-0.00968307
-0.00299143
0.00137177
-0.388277
-0.293307
-0.25335
-0.208109
-0.171705
-0.139831
-0.113595
-0.0919105
-0.0739269
-0.0590367
-0.0462142
-0.035495
-0.0269852
-0.020349
-0.0174356
-0.0148094
-0.0145962
-0.010029
-0.00297661
0.00141749
-0.399619
-0.303857
-0.259786
-0.213719
-0.17621
-0.143661
-0.116693
-0.0944045
-0.075886
-0.060556
-0.04735
-0.0363005
-0.0275126
-0.0206723
-0.0176901
-0.0150908
-0.0149328
-0.0103428
-0.00297647
0.00144731
-0.397766
-0.310749
-0.264362
-0.217967
-0.179693
-0.146753
-0.119282
-0.0965417
-0.0775892
-0.0618792
-0.0483235
-0.036975
-0.0279358
-0.0209342
-0.0179267
-0.0153861
-0.0152857
-0.0106556
-0.00296581
0.00147727
-0.371966
-0.308562
-0.264101
-0.218697
-0.18051
-0.147898
-0.120511
-0.0977606
-0.078678
-0.0627694
-0.0489399
-0.0373266
-0.0280457
-0.0209544
-0.0180857
-0.0157953
-0.0158616
-0.0111448
-0.00290879
0.00153347
-0.355512
-0.303296
-0.259769
-0.2168
-0.180078
-0.148652
-0.121852
-0.0993219
-0.0802219
-0.0641547
-0.0501261
-0.0383116
-0.0288363
-0.0216514
-0.0186782
-0.016382
-0.0163
-0.0114405
-0.00287972
0.00148561
-0.336415
-0.291897
-0.250351
-0.211541
-0.177791
-0.148355
-0.122673
-0.10068
-0.0817685
-0.06567
-0.051549
-0.0396093
-0.0299879
-0.0227097
-0.0194889
-0.0170317
-0.0166038
-0.0115863
-0.00290379
0.00134954
-0.306891
-0.273226
-0.236591
-0.203351
-0.173853
-0.147193
-0.123143
-0.101999
-0.0834712
-0.0674555
-0.0533163
-0.0412842
-0.0315168
-0.0241013
-0.0204889
-0.0177413
-0.0167989
-0.0116338
-0.00301511
0.00112135
-0.268226
-0.247784
-0.219216
-0.192435
-0.16801
-0.144896
-0.123072
-0.103174
-0.0852861
-0.0695136
-0.0554564
-0.0433773
-0.0334619
-0.0258474
-0.0216816
-0.0184937
-0.0168638
-0.0115884
-0.00324576
0.000793595
-0.226851
-0.218295
-0.199375
-0.179498
-0.160372
-0.141273
-0.122211
-0.10399
-0.0870438
-0.0717185
-0.0578697
-0.0458101
-0.0357533
-0.027882
-0.0230256
-0.0192614
-0.0168105
-0.0114804
-0.00361397
0.000379589
-0.188862
-0.188589
-0.178743
-0.165679
-0.151622
-0.136532
-0.120486
-0.104271
-0.0885383
-0.0738602
-0.0603438
-0.0483783
-0.0381984
-0.03004
-0.0244327
-0.0200198
-0.0167037
-0.0113647
-0.00410468
-7.98268e-05
-0.157691
-0.162211
-0.159396
-0.152331
-0.142788
-0.131288
-0.118118
-0.103987
-0.0896047
-0.0757008
-0.0625975
-0.0507852
-0.0405128
-0.032082
-0.0257741
-0.0207381
-0.0166318
-0.0112941
-0.00465395
-0.000520796
-0.135076
-0.141941
-0.143692
-0.141123
-0.135155
-0.126493
-0.115661
-0.103338
-0.0902048
-0.0770533
-0.0643584
-0.0527129
-0.0423832
-0.0337352
-0.0268837
-0.0213502
-0.0166467
-0.0112925
-0.00515424
-0.000871377
-0.122391
-0.130166
-0.134204
-0.134162
-0.130329
-0.123372
-0.11395
-0.102762
-0.0904494
-0.0778083
-0.0653947
-0.0538634
-0.0435075
-0.0347248
-0.0275634
-0.0217344
-0.016706
-0.0113308
-0.00547975
-0.00107253
-0.436355
-0.448974
-0.456246
-0.458695
-0.457183
-0.45301
-0.44805
-0.444919
-0.448677
-0.471183
-0.357065
-0.370451
-0.380872
-0.388836
-0.395033
-0.400302
-0.405533
-0.411448
-0.418182
-0.431206
-0.292173
-0.305193
-0.316668
-0.326788
-0.335703
-0.343495
-0.350193
-0.355933
-0.36076
-0.370373
-0.237107
-0.248666
-0.259167
-0.268656
-0.277188
-0.284861
-0.291848
-0.298462
-0.304754
-0.313186
-0.191262
-0.201281
-0.210617
-0.219306
-0.227399
-0.234953
-0.24202
-0.248651
-0.254775
-0.261116
-0.154085
-0.162675
-0.17079
-0.178435
-0.185621
-0.192355
-0.198648
-0.20452
-0.209985
-0.215144
-0.124664
-0.13196
-0.138898
-0.145472
-0.151681
-0.157526
-0.163012
-0.168146
-0.172933
-0.177324
-0.102446
-0.108693
-0.114654
-0.12032
-0.125682
-0.130736
-0.13548
-0.139915
-0.144041
-0.14783
-0.0870043
-0.0924746
-0.0977057
-0.102685
-0.107402
-0.111852
-0.116029
-0.119933
-0.123563
-0.126916
-0.0786235
-0.0836036
-0.0883714
-0.0929173
-0.0972341
-0.101317
-0.105162
-0.108768
-0.112135
-0.115266
-0.0120868
-0.0761723
-0.138838
-0.193507
-0.243294
-0.288797
-0.32934
-0.364518
-0.394151
-0.418113
-0.029762
-0.0793383
-0.126866
-0.167333
-0.203948
-0.237995
-0.268952
-0.296372
-0.320169
-0.340371
-0.0407518
-0.0803627
-0.115441
-0.145208
-0.172274
-0.197593
-0.220894
-0.241923
-0.260712
-0.277408
-0.0456712
-0.0763916
-0.101223
-0.122394
-0.142295
-0.161297
-0.179089
-0.19551
-0.210597
-0.224439
-0.0450743
-0.067829
-0.085343
-0.100555
-0.115413
-0.129955
-0.143809
-0.156837
-0.169063
-0.18053
-0.0403537
-0.0567622
-0.0695338
-0.0810153
-0.0924944
-0.103902
-0.114925
-0.125446
-0.135471
-0.145017
-0.0340792
-0.045992
-0.0557607
-0.0648664
-0.0740318
-0.083183
-0.0921128
-0.100734
-0.109037
-0.117018
-0.0280765
-0.037032
-0.0448813
-0.0524092
-0.0599745
-0.0675248
-0.0749395
-0.0821581
-0.0891598
-0.0959289
-0.0233336
-0.0305045
-0.0371818
-0.0436983
-0.050213
-0.0566968
-0.0630831
-0.0693295
-0.0754121
-0.0813105
-0.0205411
-0.0269153
-0.0330806
-0.039123
-0.0451104
-0.0510321
-0.0568521
-0.0625407
-0.0680768
-0.0734432
0.220001
0.220969
0.223392
0.2267
0.231214
0.234569
0.237114
0.227393
0.203764
0.0990828
0.211716
0.212238
0.213606
0.215181
0.216868
0.216166
0.212267
0.194259
0.15761
0.0592791
0.201833
0.201887
0.202118
0.201834
0.200619
0.196017
0.186542
0.163337
0.121893
0.0404348
0.190225
0.189766
0.18878
0.186571
0.18247
0.174346
0.160285
0.134467
0.0919667
0.0238528
0.176944
0.175968
0.17379
0.169768
0.163095
0.152161
0.134938
0.108309
0.0672806
0.00990293
0.162304
0.160858
0.157638
0.152092
0.143436
0.130601
0.111806
0.0857264
0.0484041
0.000939842
0.146988
0.145167
0.141158
0.134523
0.124624
0.110844
0.0919117
0.0674667
0.0351012
-0.00346519
0.132153
0.130087
0.125602
0.118367
0.107956
0.0940709
0.0760038
0.053805
0.0263583
-0.00496244
0.119535
0.117352
0.112678
0.105265
0.0948769
0.0814152
0.0645954
0.0445975
0.0210756
-0.0050289
0.111561
0.109347
0.104652
0.097276
0.087094
0.0741064
0.0582459
0.039717
0.0185114
-0.00469017
0.255517
0.257599
0.263206
0.271942
0.285604
0.30375
0.330887
0.365887
0.418468
0.485838
0.253013
0.255023
0.260441
0.268853
0.282023
0.299365
0.325292
0.35821
0.40719
0.468504
0.250278
0.25221
0.25742
0.26547
0.278081
0.294482
0.318985
0.349285
0.393787
0.4469
0.247323
0.249176
0.254159
0.261813
0.273801
0.289132
0.312011
0.339167
0.378402
0.421135
0.244162
0.245935
0.250677
0.257904
0.269208
0.283354
0.304414
0.327918
0.361203
0.39131
0.24081
0.242504
0.246992
0.253768
0.264328
0.277185
0.29624
0.315616
0.34237
0.357495
0.237284
0.238905
0.243133
0.249441
0.259209
0.270699
0.287568
0.302399
0.322129
0.319773
0.233603
0.235168
0.239145
0.244994
0.253951
0.264049
0.278595
0.288551
0.300797
0.278149
0.229782
0.231303
0.235035
0.240427
0.248549
0.257231
0.269286
0.274069
0.278167
0.231507
0.225807
0.227214
0.230575
0.235334
0.242323
0.249245
0.258149
0.257312
0.251828
0.17815
0.266833
0.269277
0.275386
0.285061
0.299591
0.318471
0.344851
0.373445
0.411231
0.421183
0.266799
0.269255
0.275482
0.285321
0.300235
0.319752
0.347614
0.37911
0.422909
0.449283
0.266532
0.268963
0.275199
0.285028
0.300019
0.319725
0.348252
0.381635
0.429468
0.469416
0.266033
0.268438
0.274672
0.284484
0.29953
0.319409
0.348492
0.383572
0.434877
0.485725
0.265291
0.26767
0.273892
0.283673
0.298742
0.318754
0.348261
0.384766
0.438916
0.498368
0.2643
0.266648
0.272832
0.282547
0.297571
0.317607
0.347316
0.384817
0.441009
0.50696
0.263055
0.265363
0.271484
0.28109
0.295993
0.315926
0.345595
0.383614
0.440979
0.51138
0.261552
0.263815
0.269846
0.279299
0.294004
0.313701
0.343092
0.381136
0.43876
0.511549
0.259793
0.262002
0.267917
0.277174
0.291606
0.31093
0.339805
0.377362
0.434286
0.507379
0.25778
0.259928
0.265701
0.27472
0.288803
0.30761
0.335733
0.372278
0.427519
0.498811
0.221092
0.219671
0.216644
0.211827
0.205005
0.195958
0.184381
0.170093
0.152763
0.13254
0.226096
0.224869
0.222223
0.217928
0.211683
0.203151
0.19186
0.177468
0.159373
0.137637
0.233585
0.232707
0.230769
0.227485
0.222437
0.215085
0.204683
0.190527
0.171522
0.147425
0.24168
0.241276
0.240338
0.238537
0.235368
0.230036
0.2215
0.208417
0.189031
0.162252
0.249167
0.249315
0.249583
0.249636
0.248959
0.24651
0.241058
0.230308
0.211842
0.182618
0.255396
0.256114
0.257674
0.259774
0.26201
0.263152
0.262017
0.255102
0.239634
0.208887
0.260138
0.26139
0.264209
0.268364
0.27367
0.278841
0.283035
0.281453
0.271524
0.240805
0.263438
0.265152
0.269111
0.275167
0.283443
0.292761
0.302901
0.308011
0.30606
0.276692
0.26549
0.267569
0.272491
0.280177
0.291102
0.304337
0.320503
0.333427
0.341791
0.314809
0.266549
0.268879
0.27454
0.283477
0.296561
0.313142
0.334973
0.356346
0.378744
0.36163
0.117932
0.11178
0.105475
0.0991226
0.0927058
0.0862151
0.0796668
0.0730864
0.0664976
0.059922
0.121458
0.114598
0.107559
0.100532
0.093445
0.0862499
0.0789636
0.0716234
0.0642624
0.0569085
0.128566
0.120189
0.111504
0.103035
0.0946113
0.0860806
0.0774407
0.0687455
0.0600409
0.0513574
0.139849
0.129128
0.117781
0.107054
0.0966173
0.0861044
0.0754652
0.0647817
0.0541192
0.0435082
0.15611
0.142146
0.126912
0.112967
0.0997587
0.0865413
0.0731791
0.0598027
0.0465078
0.0333186
0.178278
0.16014
0.139533
0.121226
0.104368
0.0876131
0.0707026
0.0538542
0.0372035
0.0207555
0.207273
0.184162
0.156498
0.132505
0.110938
0.089597
0.0681347
0.0469163
0.0261089
0.00567669
0.243114
0.214369
0.178043
0.147169
0.119684
0.0924669
0.0653106
0.0387729
0.0130003
-0.0121041
0.285679
0.250279
0.204629
0.166228
0.131334
0.0966488
0.0625093
0.0295857
-0.00198078
-0.0322096
0.333413
0.289476
0.235888
0.188696
0.143797
0.0997431
0.0573693
0.0171977
-0.0205665
-0.0557485
0.0533795
0.0468894
0.04047
0.0341381
0.027909
0.0217968
0.0158138
0.00997113
0.00427871
-0.00125406
0.0495876
0.0423249
0.0351452
0.0280713
0.0211243
0.0143232
0.00768467
0.00122326
-0.00504852
-0.0110963
0.042721
0.0341574
0.0256917
0.0173477
0.00914648
0.0011071
-0.00675381
-0.0144222
-0.0218874
-0.0290621
0.0329686
0.0225211
0.0121877
0.00198865
-0.00805898
-0.0179407
-0.0276445
-0.0371604
-0.0464877
-0.0554944
0.0202392
0.00727808
-0.00555187
-0.0182389
-0.0307742
-0.0431521
-0.0553718
-0.0674383
-0.0793854
-0.0912552
0.00448681
-0.0116151
-0.0275578
-0.043356
-0.0590325
-0.0746136
-0.0901245
-0.105573
-0.121023
-0.137172
-0.0144375
-0.0342626
-0.053818
-0.0731314
-0.0922528
-0.111268
-0.130308
-0.14949
-0.169193
-0.191034
-0.0366443
-0.0607003
-0.0843464
-0.107641
-0.130615
-0.153284
-0.17569
-0.197929
-0.221275
-0.247916
-0.0611337
-0.0888375
-0.115508
-0.141428
-0.166953
-0.192469
-0.218329
-0.244864
-0.274296
-0.305747
-0.0882266
-0.117982
-0.145194
-0.170275
-0.193904
-0.217028
-0.240754
-0.266568
-0.300115
-0.343421
-0.0143751
-0.0330903
-0.0493296
-0.0620017
-0.0704339
-0.0745123
-0.0746081
-0.0714496
-0.0659702
-0.0590974
-0.0516403
-0.0441131
-0.0366334
-0.0293104
-0.0217019
-0.0145788
-0.00805681
-0.00409195
-0.00359037
-0.00283893
-0.0257827
-0.045223
-0.0608079
-0.0719931
-0.0785172
-0.0805348
-0.0786616
-0.0738249
-0.0670889
-0.0594042
-0.0515444
-0.0439001
-0.0364339
-0.029145
-0.0213824
-0.0140584
-0.00724801
-0.0033606
-0.00369069
-0.003095
-0.0465504
-0.0667655
-0.0806887
-0.0889099
-0.0918587
-0.0901869
-0.0849382
-0.0773238
-0.068575
-0.0596432
-0.0512221
-0.0434755
-0.0361175
-0.0289452
-0.0209765
-0.0133227
-0.00602795
-0.00219131
-0.00383205
-0.00341726
-0.0760948
-0.0962053
-0.107052
-0.110605
-0.108264
-0.101525
-0.0919266
-0.0809055
-0.0698084
-0.059516
-0.0505763
-0.0428408
-0.0357333
-0.0287848
-0.0206416
-0.0126236
-0.00477822
-0.000919401
-0.00395688
-0.00362332
-0.112948
-0.131329
-0.137743
-0.13478
-0.125566
-0.112843
-0.0984502
-0.0838791
-0.0704832
-0.0589616
-0.0496474
-0.0420406
-0.0352906
-0.028651
-0.0204363
-0.0121263
-0.00383462
0.000143978
-0.00401787
-0.00362017
-0.15322
-0.168456
-0.169606
-0.158459
-0.141523
-0.12271
-0.10372
-0.0859428
-0.0706061
-0.0581199
-0.0485731
-0.0411432
-0.0347713
-0.0284744
-0.0203308
-0.0118766
-0.00337345
0.000806913
-0.00400771
-0.0034181
-0.190819
-0.203199
-0.198661
-0.178561
-0.154401
-0.130266
-0.10744
-0.0871508
-0.0703813
-0.0572125
-0.0475164
-0.0402305
-0.0341739
-0.0281947
-0.0202571
-0.0118268
-0.00339545
0.00101442
-0.00395297
-0.00307924
-0.221483
-0.232446
-0.221765
-0.19349
-0.163723
-0.135475
-0.109827
-0.087797
-0.0700695
-0.0564378
-0.0466135
-0.0393889
-0.0335387
-0.0278076
-0.0201658
-0.0118979
-0.00378416
0.000828072
-0.00388331
-0.0026714
-0.247615
-0.255326
-0.237978
-0.203559
-0.169991
-0.13879
-0.111265
-0.0881285
-0.0697995
-0.0558571
-0.0459016
-0.0386559
-0.0329051
-0.0273405
-0.0200354
-0.0120204
-0.00438678
0.000371224
-0.00381374
-0.00224592
-0.276499
-0.271213
-0.246985
-0.20877
-0.173087
-0.140113
-0.111648
-0.0880125
-0.069441
-0.0553608
-0.0452884
-0.0379453
-0.0321871
-0.0267013
-0.0197824
-0.0121279
-0.00512992
-0.000306781
-0.00375653
-0.0018177
-0.305022
-0.27537
-0.247506
-0.20845
-0.172724
-0.139552
-0.111196
-0.0877026
-0.0692361
-0.055157
-0.0449153
-0.0373218
-0.031377
-0.0258239
-0.0193424
-0.0121817
-0.00596308
-0.00117914
-0.00373666
-0.00143546
-0.318722
-0.275906
-0.246073
-0.205918
-0.170214
-0.13716
-0.109257
-0.0862281
-0.0681639
-0.0543693
-0.0442534
-0.0366889
-0.030752
-0.0252276
-0.0190152
-0.0121464
-0.00639309
-0.00168375
-0.00371772
-0.00119184
-0.322276
-0.274062
-0.243399
-0.202343
-0.16692
-0.134241
-0.106993
-0.0845696
-0.0670085
-0.0535656
-0.043624
-0.0361164
-0.0301962
-0.0246912
-0.0187079
-0.0121027
-0.00677774
-0.00215995
-0.00369354
-0.000962207
-0.321512
-0.271695
-0.240797
-0.199228
-0.164205
-0.131922
-0.105268
-0.0833572
-0.0661967
-0.0530058
-0.0431472
-0.0356229
-0.0296704
-0.0241632
-0.0184234
-0.012103
-0.00722068
-0.00267867
-0.00366244
-0.000732159
-0.31937
-0.269411
-0.238361
-0.19652
-0.161959
-0.130066
-0.103949
-0.0824767
-0.0656356
-0.0526181
-0.0427682
-0.0351683
-0.0291456
-0.0236243
-0.0181513
-0.0121429
-0.00771991
-0.00323755
-0.00362415
-0.000502373
-0.316721
-0.267304
-0.236103
-0.194136
-0.160049
-0.128541
-0.102919
-0.0818361
-0.0652586
-0.0523597
-0.0424655
-0.0347483
-0.0286278
-0.0230837
-0.017893
-0.0122151
-0.00825739
-0.00382226
-0.00357916
-0.000276496
-0.314231
-0.265494
-0.234166
-0.192156
-0.158512
-0.127362
-0.10218
-0.0814329
-0.0650622
-0.0522296
-0.0422437
-0.0343724
-0.0281294
-0.0225535
-0.0176537
-0.0123176
-0.00882278
-0.00442318
-0.00352818
-5.71939e-05
-0.312572
-0.264146
-0.232711
-0.190674
-0.1574
-0.12656
-0.101747
-0.0812727
-0.0650478
-0.0522294
-0.0421074
-0.0340493
-0.0276613
-0.0220444
-0.0174387
-0.0124496
-0.00940839
-0.0050326
-0.003472
0.000153508
-0.312283
-0.263394
-0.23186
-0.18975
-0.15674
-0.126148
-0.101619
-0.0813508
-0.0652097
-0.0523563
-0.0420593
-0.0337871
-0.0272348
-0.0215678
-0.0172528
-0.012609
-0.0100052
-0.00564158
-0.00341197
0.000353162
-0.313737
-0.263328
-0.231692
-0.189419
-0.156546
-0.126128
-0.101791
-0.0816592
-0.0655407
-0.0526065
-0.0421019
-0.0335941
-0.0268616
-0.0211353
-0.0171006
-0.0127935
-0.0106044
-0.0062421
-0.00334935
0.000539973
)
;

boundaryField
{
    inlet
    {
        type            freestreamPressure;
        freestreamValue uniform 0;
        supersonic      false;
        value           nonuniform List<scalar> 
40
(
0.220001
0.211716
0.201833
0.190225
0.176944
0.162304
0.146988
0.132153
0.119535
0.111561
0.255517
0.253013
0.250278
0.247323
0.244162
0.24081
0.237284
0.233603
0.229782
0.225807
0.266833
0.266799
0.266532
0.266033
0.265291
0.2643
0.263055
0.261552
0.259793
0.25778
0.221092
0.226096
0.233585
0.24168
0.249167
0.255396
0.260138
0.263438
0.26549
0.266549
)
;
    }
    outlet
    {
        type            freestreamPressure;
        freestreamValue uniform 0;
        supersonic      false;
        value           nonuniform List<scalar> 
40
(
1.56629e-07
1.33562e-07
9.95557e-08
6.19472e-08
2.90515e-08
7.81439e-09
-7.39236e-10
-1.59185e-09
-5.56293e-10
-4.60347e-11
4.97615e-08
6.96301e-08
9.00441e-08
1.09585e-07
1.27e-07
1.41257e-07
1.51649e-07
1.57748e-07
1.59763e-07
1.59403e-07
-1.02283e-10
-3.98908e-10
-2.0692e-09
-4.17905e-09
-5.56828e-09
-5.03816e-09
-1.54031e-09
5.66454e-09
1.68491e-08
3.17997e-08
-1.96622e-09
-1.94537e-08
-5.71456e-08
-1.03158e-07
-1.2988e-07
-1.21327e-07
-8.68965e-08
-4.74783e-08
-1.82701e-08
-3.56221e-09
)
;
    }
    top
    {
        type            symmetryPlane;
    }
    bottom
    {
        type            symmetryPlane;
    }
    cylinder
    {
        type            zeroGradient;
    }
    frontandback
    {
        type            empty;
    }
}


// ************************************************************************* //
