/*--------------------------------*- C++ -*----------------------------------*\
  =========                 |
  \\      /  F ield         | OpenFOAM: The Open Source CFD Toolbox
   \\    /   O peration     | Website:  https://openfoam.org
    \\  /    A nd           | Version:  6.0
     \\/     M anipulation  |
\*---------------------------------------------------------------------------*/
FoamFile
{
    version     2.0;
    format      ascii;
    class       surfaceScalarField;
    location    "23.765";
    object      phi;
}
// * * * * * * * * * * * * * * * * * * * * * * * * * * * * * * * * * * * * * //

dimensions      [0 3 -1 0 0 0 0];

internalField   nonuniform List<scalar> 
4670
(
-0.000187372
-0.0216654
0.0218528
-0.000514228
-0.0167984
0.0171252
-0.000856182
-0.0131797
0.0135217
-0.00114462
-0.0104995
0.010788
-0.00134549
-0.00850931
0.00871018
-0.0014482
-0.00701644
0.00711915
-0.00145863
-0.00587534
0.00588578
-0.0013946
-0.00497792
0.00491388
-0.00128294
-0.00424462
0.00413296
-0.0036182
0.00349238
-0.00115712
-0.000172306
-0.0214931
-0.000448551
-0.0165221
-0.000698703
-0.0129296
-0.000853269
-0.010345
-0.000878894
-0.00848368
-0.000765921
-0.00712942
-0.000521448
-0.00611981
-0.00016545
-0.00533391
0.000271145
-0.00468121
-0.00409517
0.000748116
-0.000148597
-0.0213445
-0.000346739
-0.016324
-0.000463794
-0.0128125
-0.000431801
-0.010377
-0.000218824
-0.00869666
0.000184328
-0.00753257
0.000770711
-0.0067062
0.0015199
-0.0060831
0.00239803
-0.00555934
-0.00505454
0.0033574
-0.000114823
-0.0212297
-0.000207914
-0.0162309
-0.000152071
-0.0128684
0.000115935
-0.010645
0.000624799
-0.00920553
0.00138282
-0.00829059
0.00238424
-0.00770761
0.00361042
-0.00730928
0.00502712
-0.00697604
-0.00660746
0.00658004
-6.98925e-05
-0.0211598
-2.97197e-05
-0.0162711
0.00023928
-0.0131374
0.000791389
-0.0111971
0.00164883
-0.010063
0.00281701
-0.00945878
0.00429116
-0.00918176
0.00605661
-0.00907473
0.0080829
-0.00900233
-0.00883726
0.0103127
-1.21361e-05
-0.0211477
0.000192092
-0.0164753
0.00071691
-0.0136622
0.00160247
-0.0120826
0.00285972
-0.0113202
0.00448689
-0.0110859
0.00647734
-0.0111722
0.00882083
-0.0114182
0.0114959
-0.0116774
-0.0117906
0.0144493
6.05312e-05
-0.0212082
0.000462664
-0.0168774
0.00128931
-0.0144888
0.00256101
-0.0133543
0.00427158
-0.0130308
0.00640525
-0.0132196
0.00894655
-0.0137135
0.0118852
-0.0143568
0.0152119
-0.0150041
-0.0154687
0.0188899
0.00014993
-0.0213581
0.000785649
-0.0175132
0.00196196
-0.0156651
0.00367516
-0.0150675
0.00589644
-0.0152521
0.00858789
-0.0159111
0.0117137
-0.0168393
0.0152506
-0.0178937
0.0191971
-0.0189506
-0.0198345
0.0235629
0.000256879
-0.021615
0.00116009
-0.0184164
0.00273072
-0.0172358
0.00493886
-0.0172757
0.00773086
-0.0180441
0.0110415
-0.0192217
0.0148024
-0.0206002
0.0189535
-0.0220449
0.0234786
-0.0234757
-0.0248609
0.028505
0.000381173
-0.0219962
0.00157642
-0.0196116
0.00357246
-0.0192318
0.0063152
-0.0200184
0.00973287
-0.0214617
0.0137453
-0.0232341
0.0182654
-0.0251203
0.0231912
-0.0269707
0.0284067
-0.0286912
-0.0303163
0.0338621
0.0302234
0.00118643
-0.0314098
0.0290325
0.00119094
0.0278639
0.00116858
0.0267432
0.00112072
0.0256924
0.00105074
0.0247297
0.000962748
0.0238689
0.000860778
0.0231208
0.00074814
0.0224938
0.000626968
0.000497614
0.0402007
0.00370732
-0.0427216
0.0375616
0.00382998
0.0348749
0.00385527
0.0322081
0.00378758
0.0296235
0.00363532
0.0271767
0.00340957
0.0249153
0.00312217
0.0228795
0.00278387
0.0211031
0.00240341
0.00198908
0.048995
0.00687839
-0.052166
0.0455549
0.00727009
0.0419389
0.00747121
0.0382431
0.00748345
0.0345618
0.00731663
0.0309844
0.00698695
0.0275927
0.00651384
0.0244605
0.00591613
0.0216541
0.00520982
0.00441133
0.0562615
0.0102222
-0.0596053
0.0524963
0.0110353
0.0484073
0.0115602
0.0441028
0.0117879
0.0396968
0.0117226
0.0353038
0.01138
0.0310343
0.0107833
0.0269944
0.00995601
0.0232878
0.00891641
0.00768071
0.061946
0.0134249
-0.0651487
0.0581921
0.0147892
0.0539744
0.0157779
0.0493983
0.016364
0.0445826
0.0165383
0.0396538
0.0163089
0.034741
0.0156961
0.0299749
0.0147221
0.0254946
0.0133967
0.0117136
0.0661655
0.0163053
-0.0690459
0.0626404
0.0183143
0.0585378
0.0198805
0.0539477
0.0209541
0.0489801
0.0215059
0.0437593
0.0215296
0.0384183
0.0210372
0.0330976
0.0200428
0.0279601
0.0185342
0.0164395
0.0691218
0.0187821
-0.0715986
0.0659467
0.0214894
0.0621158
0.0237114
0.0576964
0.0253736
0.0527792
0.026423
0.0474739
0.0268349
0.0419007
0.0266104
0.036188
0.0257555
0.0304963
0.0242259
0.0218155
0.071041
0.0208427
-0.0731017
0.0682649
0.0242655
0.064792
0.0271843
0.0606646
0.029501
0.0559493
0.0311383
0.0507324
0.0320519
0.0451078
0.0322349
0.0391648
0.0316985
0.0330091
0.0303817
0.0278539
0.072133
0.022517
-0.0738073
0.0697556
0.0266429
0.0666743
0.0302657
0.062909
0.0332663
0.0585029
0.0355444
0.0535178
0.0370369
0.0480175
0.0377352
0.0420318
0.0376842
0.0355245
0.036889
0.0346872
0.0725671
-0.0739091
0.0238591
0.0705554
0.0286546
0.0678605
0.0329606
0.0644863
0.0366405
0.0604581
0.0395726
0.0558202
0.0416749
0.0506196
0.0429359
0.0448527
0.043451
0.038326
0.0434157
0.0426969
0.036775
-0.000324527
-0.0364505
0.0368973
-0.000122273
0.0368126
8.46442e-05
0.036524
0.000288589
0.0360407
0.000483299
0.0353778
0.000662884
0.0345559
0.000821901
0.0336004
0.000955589
0.0325405
0.00105989
0.00113062
0.0509305
-0.00149753
-0.0497575
0.051677
-0.000868759
0.0519852
-0.000223512
0.0518494
0.000424313
0.0512738
0.00105891
0.0502733
0.00166343
0.0488744
0.00222077
0.0471154
0.00271458
0.0450453
0.00313006
0.00345432
0.0589531
-0.00346466
-0.056986
0.0604052
-0.00232078
0.0613152
-0.00113351
0.0616616
7.79164e-05
0.0614323
0.00128814
0.0606276
0.00246812
0.0592617
0.00358672
0.0573638
0.00461242
0.0549789
0.00551505
0.00626714
0.0629398
-0.0060688
-0.0603356
0.065022
-0.00440304
0.0665411
-0.00265257
0.067459
-0.000839977
0.0677463
0.00100083
0.0673849
0.00282946
0.0663705
0.00460115
0.0647141
0.00626884
0.0624437
0.00778541
0.00910559
0.0644
-0.00913329
-0.0613355
0.0669794
-0.00698249
0.0690194
-0.00469255
0.0704684
-0.00228894
0.0712833
0.000185867
0.0714315
0.00268127
0.0708919
0.00514079
0.0696568
0.00750395
0.067734
0.00970821
0.0116908
0.0643917
-0.0125069
-0.0610181
0.067336
-0.00992686
0.0697806
-0.00713709
0.0716635
-0.00417183
0.0729347
-0.00108541
0.0735541
0.00206188
0.0734904
0.00520449
0.0727221
0.00827226
0.0712392
0.0111912
0.0138841
0.0636155
-0.0160873
-0.060035
0.0668222
-0.0131336
0.0695612
-0.00987601
0.0717659
-0.00637656
0.0733886
-0.00270814
0.0743904
0.0010601
0.0747376
0.0048573
0.0744014
0.00860847
0.0733593
0.0122332
0.0156449
0.0625187
-0.0198381
-0.0587679
0.065918
-0.0165329
0.0688542
-0.0128123
0.0712708
-0.00879311
0.0731337
-0.00457103
0.0744133
-0.000219512
0.0750796
0.00419104
0.0751018
0.00858619
0.0744508
0.0128842
0.016994
0.0614051
-0.0237817
-0.0574614
0.064926
-0.0200538
0.0679597
-0.015846
0.0704822
-0.0113156
0.0724817
-0.0065705
0.0739402
-0.00167807
0.0748328
0.00329845
0.0751295
0.00828949
0.0747982
0.0132156
0.0179848
0.0604663
-0.0564057
-0.0278424
0.064009
-0.0235965
0.0670225
-0.0188595
0.069556
-0.0138491
0.0716086
-0.00862311
0.0731662
-0.00323567
0.0742055
0.00225916
0.0746975
0.00779754
0.0746098
0.0133033
0.0186855
0.0423554
0.0134061
-0.00812601
-0.0476356
0.0369908
0.0141412
-0.00877658
0.031543
0.0150152
-0.00956737
0.0260287
0.0160754
-0.0105611
0.0204918
0.017381
-0.0118441
0.0150265
0.0189832
-0.0135179
0.00981297
0.0208888
-0.0156753
0.00516897
0.0229855
-0.0183415
0.00162079
0.0249126
-0.0213644
0.0258433
-0.0242226
0.0421253
0.018659
-0.0473782
0.0367865
0.01948
0.0313637
0.0204379
0.0258739
0.0215653
0.0203612
0.0228937
0.0149206
0.0244238
0.00973358
0.0260758
0.00511905
0.0276
0.00160147
0.0284302
0.0274448
0.0415221
0.0238544
-0.0467174
0.0362404
0.0247617
0.0308762
0.0258021
0.0254476
0.0269938
0.0200003
0.028341
0.014631
0.0297931
0.00952221
0.0311846
0.00499127
0.0321309
0.0015532
0.0318683
0.028998
0.0405491
0.0289643
-0.045659
0.0353543
0.0299566
0.0300812
0.0310751
0.0247503
0.0323248
0.0194097
0.0336817
0.0141584
0.0350443
0.00917993
0.036163
0.00478715
0.0365237
0.00147782
0.0351776
0.0304758
0.0392091
0.0339633
-0.0442081
0.0341296
0.0350361
0.0289798
0.0362249
0.023783
0.0375216
0.0185905
0.0388741
0.0135046
0.0401303
0.00870889
0.0409587
0.00450875
0.0407239
0.00137658
0.0383098
0.0318524
0.0375017
0.0388274
-0.0423659
0.0325656
0.0399722
0.0275717
0.0412188
0.0225464
0.0425468
0.0175449
0.0438756
0.0126724
0.0450027
0.00811234
0.0455188
0.0041589
0.0446773
0.00125092
0.0412177
0.0331033
0.0354198
0.0435322
-0.0401246
0.0306568
0.0447352
0.0258543
0.0460214
0.0210409
0.0473602
0.0162754
0.0486412
0.0116662
0.0496119
0.00739508
0.04979
0.00374157
0.0483308
0.00110278
0.0438565
0.0342061
0.0329441
0.0480456
-0.0374575
0.0283915
0.0492878
0.0238235
0.0505894
0.0192677
0.051916
0.0147866
0.0531224
0.0104925
0.053906
0.00656409
0.0537183
0.00326236
0.0516325
0.000934839
0.046184
0.0351409
0.0300283
0.0523309
-0.0343136
0.0257486
0.0535675
0.0214766
0.0548614
0.0172324
0.0561602
0.013088
0.0572667
0.00916216
0.0578319
0.00562973
0.0572508
0.00272923
0.054533
0.000751008
0.0481623
0.035892
0.0266218
-0.0306965
0.0227279
0.0188214
0.0149466
0.0111952
0.00769157
0.00460674
0.00215376
0.000558507
0.0246413
-0.0358444
0.0401135
-0.0289105
0.0206568
-0.0356472
0.0396317
0.0168155
-0.0351158
0.0389572
0.0131412
-0.0340759
0.0377502
0.00970846
-0.0322021
0.0356348
0.00661469
-0.0290191
0.0321129
0.00397418
-0.0238772
0.0265177
0.00190794
-0.0159327
0.017999
0.000537247
-0.00414103
0.00551172
0.0128075
-0.0122703
0.0280721
-0.0315191
-0.0323975
0.0237984
-0.0313734
0.0196102
-0.0309277
0.0155488
-0.0300145
0.0116875
-0.0283408
0.00812928
-0.0254609
0.00500498
-0.0207529
0.00247319
-0.0134009
0.000723082
-0.00239092
0.0135306
0.0310852
-0.0270404
-0.0355639
0.0265851
-0.0268733
0.0221161
-0.0264587
0.0177292
-0.0256276
0.0134981
-0.0241097
0.00952894
-0.0214917
0.0059674
-0.0171914
0.00300622
-0.0104398
0.000899232
-0.000283939
0.0144298
0.0337144
-0.022393
-0.0383619
0.0290213
-0.0221802
0.0243211
-0.0217585
0.0196622
-0.0209687
0.0151161
-0.0195636
0.0107907
-0.0171663
0.00684293
-0.0132437
0.00349572
-0.00709255
0.00106265
0.00214912
0.0154925
0.0359993
-0.0175854
-0.0408069
0.031133
-0.0173138
0.0262344
-0.0168599
0.0213451
-0.0160794
0.0165318
-0.0147504
0.0119015
-0.012536
0.00761923
-0.00896138
0.00393304
-0.00340637
0.00120986
0.0048723
0.0167024
0.0379464
-0.0126337
-0.0428982
0.0329275
-0.0122949
0.0278593
-0.0117917
0.0227763
-0.0109964
0.0177395
-0.0097135
0.0128531
-0.00764957
0.00828756
-0.00439588
0.00431158
0.000569608
0.00133797
0.00784592
0.0180403
0.0395503
-0.00755923
-0.0446247
0.0344031
-0.00714762
0.0291946
-0.00658326
0.0239532
-0.00575496
0.0187343
-0.00449456
0.0136391
-0.00255434
0.00884138
0.000401793
0.00462622
0.00478477
0.00144465
0.0110275
0.019485
0.0408019
-0.00238804
-0.0459731
0.0355539
-0.00189963
0.0302361
-0.00126539
0.0248717
-0.000390629
0.0195117
0.000865466
0.0142543
0.00270308
0.00927551
0.00538057
0.00487298
0.0091873
0.00152813
0.0143723
0.0210131
0.0416919
0.0028508
-0.0469308
0.0363732
0.00341904
0.0309785
0.00412939
0.0255275
0.00506037
0.0200675
0.00632548
0.0146944
0.00807611
0.00958594
0.0104891
0.00504895
0.0137243
0.00158721
0.0178341
0.0226003
0.0422126
-0.0474878
0.0368551
0.0314171
0.0259164
0.0203978
0.014956
0.00976975
0.00515258
0.00162223
0.0442605
0.0213588
-0.0255057
0.0477639
0.0174244
-0.0209279
0.0506785
0.0129943
-0.0159088
0.053053
0.00824156
-0.010616
0.0548755
0.00331087
-0.00513343
0.0561174
-0.00169719
0.000455305
0.0567398
-0.0066808
0.00605836
0.0567012
-0.0115265
0.0115651
0.0559637
-0.0161096
0.0168471
-0.0202962
0.0544997
0.0217602
0.0434963
0.0174941
0.0469057
0.0140151
0.0497661
0.0101339
0.0520403
0.00596731
0.0537068
0.00164434
0.0547364
-0.00272678
0.0550943
-0.00703868
0.0547464
-0.0111786
0.0536657
-0.0150289
-0.0184703
0.0518397
0.0425416
0.0139097
0.0457282
0.0108285
0.0483881
0.00747406
0.0504477
0.00390764
0.0518635
0.000228579
0.0525992
-0.00346247
0.0526231
-0.00706262
0.0519112
-0.0104667
0.0504522
-0.0135699
-0.0162724
0.0482543
0.0410611
0.0105988
0.0439431
0.00794653
0.0462919
0.00512528
0.0480281
0.00217145
0.0490977
-0.000841036
0.0494623
-0.00382706
0.0490965
-0.00669689
0.0479901
-0.00936023
0.0461512
-0.011731
-0.0137324
0.0436112
0.038629
0.00760459
0.04114
0.00543555
0.0430923
0.00317295
0.0444179
0.000845827
0.0450675
-0.00149058
0.0450097
-0.00376931
0.0442319
-0.00591905
0.0427413
-0.00786964
0.0405677
-0.00955738
-0.0109299
0.0377651
0.0347141
0.00500336
0.0367869
0.00336278
0.0382785
0.00168128
0.0391402
-1.57868e-05
0.0393377
-0.0016881
0.0388556
-0.00328725
0.0376991
-0.00476249
0.0358951
-0.0060657
0.0334936
-0.00715588
-0.00800284
0.0305666
0.0286397
0.00288136
0.0302175
0.00178504
0.0312179
0.000680825
0.031614
-0.000411829
0.0313922
-0.00146632
0.0305569
-0.00245201
0.0291324
-0.00333794
0.0271631
-0.00409638
0.024713
-0.00470577
-0.00515298
0.0218631
0.0195669
0.00131343
0.0206254
0.000726609
0.0211593
0.000146888
0.0211624
-0.000414961
0.0206411
-0.000945047
0.0196172
-0.00142807
0.0181287
-0.00184942
0.0162293
-0.00219699
0.0139863
-0.00246279
-0.00264402
0.0114774
0.00647918
0.000345963
0.00704667
0.000159117
0.00721391
-2.03492e-05
0.00698925
-0.000190295
0.00639078
-0.00034658
0.00544746
-0.000484754
0.00419891
-0.000600871
0.00269397
-0.00069205
0.000988191
-0.000757009
-0.000797121
-0.000858712
-0.0119243
-0.0117652
-0.0117856
-0.0119758
-0.0123224
-0.0128072
-0.0134081
-0.0141001
-0.0148571
-0.0156542
0.0523014
-0.0239688
0.0261671
0.0493848
-0.0269671
0.0298838
0.0457997
-0.0292149
0.0328
0.0416291
-0.0306628
0.0348333
0.0369816
-0.0313204
0.0359679
0.0319734
-0.0312579
0.0362661
0.0266966
-0.0305831
0.03586
0.0211674
-0.0293777
0.0349068
0.0152673
-0.0275098
0.0334099
-0.0240499
0.00848184
0.0308353
0.0492795
-0.0214086
0.0460232
-0.0237109
0.0421427
-0.0253345
0.0377397
-0.0262597
0.0329345
-0.0265152
0.0278465
-0.0261699
0.022566
-0.0253026
0.0171251
-0.0239368
0.0115267
-0.0219113
-0.0186322
0.00610893
0.0453513
-0.0185056
0.0418064
-0.0201659
0.0377127
-0.0212408
0.0331871
-0.0217341
0.0283578
-0.021686
0.023347
-0.0211591
0.0182535
-0.0202091
0.0131527
-0.018836
0.00815982
-0.0169184
-0.0141586
0.00368627
0.0404275
-0.0153219
0.0366861
-0.0164245
0.0324965
-0.0170511
0.0279841
-0.0172217
0.0232784
-0.0169803
0.0184997
-0.0163804
0.0137521
-0.0154615
0.00913522
-0.0142191
0.00479709
-0.0125803
-0.0104193
0.00105778
0.0344106
-0.0119674
0.0306067
-0.0126206
0.0264708
-0.0129152
0.0221276
-0.0128786
0.0176996
-0.0125522
0.0132977
-0.0119786
0.00902131
-0.0111851
0.00497067
-0.0101684
0.00128128
-0.00889093
-0.00731009
-0.00182796
0.0272028
-0.00860354
0.0235116
-0.00892952
0.0196075
-0.00901106
0.0156046
-0.0088757
0.0116095
-0.00855711
0.00771686
-0.00808588
0.00401129
-0.00747953
0.000578804
-0.00673596
-0.00247485
-0.00583728
-0.0047741
-0.00501084
0.0187027
-0.00544315
0.0153365
-0.00556327
0.0118647
-0.00553929
0.00838206
-0.00539306
0.00497277
-0.00514782
0.00170943
-0.00482255
-0.00134332
-0.00442677
-0.00412077
-0.00395851
-0.00654899
-0.00340906
-0.00277835
-0.00854473
0.00877942
-0.00274521
0.00598081
-0.00276465
0.00315871
-0.00271719
0.000381964
-0.00261632
-0.00229114
-0.00247471
-0.00481201
-0.00230168
-0.00713782
-0.00210096
-0.00922586
-0.00187048
-0.0110293
-0.00160562
-0.00130751
-0.0125001
-0.00279259
-0.000811335
-0.00475254
-0.000804696
-0.00669013
-0.000779594
-0.0085648
-0.000741647
-0.0103445
-0.000695062
-0.0120036
-0.000642549
-0.0135198
-0.000584757
-0.01487
-0.000520284
-0.0160285
-0.000447132
-0.000366807
-0.0169692
-0.0164656
-0.0172703
-0.0180499
-0.0187915
-0.0194866
-0.0201291
-0.0207139
-0.0212342
-0.0216813
-0.0220481
0.000266973
-0.0223151
0.000975926
-0.0176781
0.00209078
-0.013615
0.00360199
-0.0100559
0.00550806
-0.00691691
0.00780493
-0.00412483
0.0104793
-0.00161654
0.0134982
0.000667339
0.0168155
0.00279165
0.00484443
0.0204529
0.000180624
-0.0224957
0.000665889
-0.0181634
0.00143972
-0.0143888
0.0024991
-0.0111153
0.00384323
-0.00826104
0.00546845
-0.00575005
0.00736853
-0.00351663
0.00954291
-0.00150704
0.0120281
0.000306493
0.00188489
0.0149876
9.91578e-05
-0.0225948
0.000383676
-0.0184479
0.00085885
-0.014864
0.00153494
-0.0117914
0.00242272
-0.00914881
0.00353277
-0.0068601
0.0048786
-0.00486245
0.00648286
-0.00311131
0.00838331
-0.00159395
-0.000351621
0.0106198
2.7123e-05
-0.022622
0.000137967
-0.0185587
0.000360434
-0.0150865
0.000719277
-0.0121503
0.00123643
-0.00966596
0.00193227
-0.00755594
0.00282801
-0.00575819
0.00394726
-0.00423056
0.00531153
-0.00295822
-0.00195815
0.00691806
-3.46602e-05
-0.0225873
-6.9705e-05
-0.0185237
-5.56721e-05
-0.0151005
4.4968e-05
-0.0122509
0.000261759
-0.00988275
0.000618635
-0.00791282
0.0011356
-0.00627515
0.00182837
-0.00492333
0.00270304
-0.00383289
-0.00299942
0.00374431
-8.6281e-05
-0.022501
-0.000239876
-0.0183701
-0.000392114
-0.0149483
-0.000495415
-0.0121476
-0.000516163
-0.009862
-0.000431045
-0.00799794
-0.000224974
-0.00648122
0.000109006
-0.00525731
0.000566791
-0.00429068
-0.00356122
0.00112859
-0.000127697
-0.0223733
-0.000372563
-0.0181252
-0.000649499
-0.0146713
-0.000903463
-0.0118936
-0.00109923
-0.00966624
-0.00121607
-0.00788109
-0.00124454
-0.00645276
-0.00118486
-0.00531699
-0.00104739
-0.00442815
-0.00375506
-0.000853543
-0.000158487
-0.0222148
-0.000466707
-0.017817
-0.000825893
-0.0143121
-0.00117551
-0.011544
-0.00148005
-0.0093617
-0.00172191
-0.00763923
-0.00189677
-0.0062779
-0.00201054
-0.00520322
-0.00207796
-0.00436073
-0.00371143
-0.00212159
-0.00017787
-0.022037
-0.000520706
-0.0174742
-0.000918522
-0.0139143
-0.00130652
-0.011156
-0.00164943
-0.0090188
-0.00193256
-0.0073561
-0.00215593
-0.00605454
-0.00233012
-0.00502903
-0.00247372
-0.00421712
-0.00357377
-0.00261138
-0.000184172
-0.00053312
-0.000925775
-0.00129382
-0.00160243
-0.00183938
-0.00200814
-0.00212329
-0.00220745
-0.00228885
-0.000982096
-0.00984007
0.00966505
0.001716
-0.0115985
0.00890041
0.00544469
-0.0120486
0.00831988
0.0097879
-0.0129363
0.00859305
0.0144144
-0.0135357
0.00890916
0.0190222
-0.0138858
0.00927799
0.0234761
-0.0144984
0.0100445
0.0276537
-0.0155526
0.011375
0.0314814
-0.0173272
0.0134995
0.0348998
-0.0191148
0.0156963
0.0379131
-0.0207897
0.0177764
0.0405391
-0.019349
0.016723
0.0429248
-0.0152798
0.0128941
0.04509
-0.00512489
0.00295961
0.0473122
0.00731148
-0.00953363
0.049389
0.0110238
-0.0131006
0.0515167
0.00730673
-0.00943439
0.052755
-0.0314021
0.0301638
0.0533506
-0.0474502
0.0468547
-0.0134223
0.0128667
0.00144026
-0.0105322
0.00432731
-0.0144856
0.00811704
-0.0158383
0.0123824
-0.0172017
0.0168593
-0.0180126
0.0212835
-0.01831
0.0255338
-0.0187487
0.0294977
-0.0195165
0.0331029
-0.0209324
0.0362951
-0.022307
0.0390823
-0.0235769
0.0415009
-0.0217676
0.0437134
-0.0174923
0.0457693
-0.00718073
0.0479547
0.00512604
0.0500287
0.00894984
0.0521471
0.00518831
0.0532924
-0.0325474
0.0537214
-0.0478792
-0.0139039
0.00470534
-0.0118801
0.00775796
-0.0175382
0.0115435
-0.0196238
0.0156363
-0.0212945
0.0198597
-0.022236
0.0240026
-0.0224529
0.0279618
-0.0227079
0.0316379
-0.0231926
0.0349606
-0.0242551
0.0378808
-0.0252272
0.0404087
-0.0261048
0.0425957
-0.0239546
0.0446154
-0.0195121
0.0465434
-0.00910869
0.0486712
0.0029982
0.0507247
0.00689639
0.052822
0.00309096
0.0538836
-0.033609
0.0541698
-0.0481653
-0.0143377
0.0086799
-0.01398
0.011851
-0.0207092
0.0155461
-0.023319
0.0193712
-0.0251196
0.0232473
-0.026112
0.0270258
-0.0262313
0.0306236
-0.0263057
0.033955
-0.026524
0.0369524
-0.0272525
0.039571
-0.0278458
0.0418215
-0.0283552
0.0437667
-0.0258998
0.0455861
-0.0213315
0.0473773
-0.0108999
0.0494333
0.000942185
0.0514535
0.00487621
0.0535219
0.0010225
0.0545134
-0.0346005
0.054686
-0.0483379
-0.0147529
0.0131996
-0.0168669
0.0164143
-0.023924
0.0199106
-0.0268152
0.0233747
-0.0285837
0.0268239
-0.0295612
0.0301746
-0.0295821
0.033362
-0.0294931
0.0363131
-0.0294751
0.0389622
-0.0299015
0.0412677
-0.0301513
0.0432394
-0.030327
0.0449474
-0.0276077
0.0465721
-0.0229562
0.0482284
-0.0125562
0.0502065
-0.00103593
0.052187
0.00289576
0.0542244
-0.00101494
0.0551652
-0.0355413
0.0552594
-0.0484321
-0.0151825
0.0180721
-0.0204898
0.021226
-0.0270778
0.0243963
-0.0299855
0.027412
-0.0315995
0.0303745
-0.0325237
0.0332581
-0.0324656
0.0360108
-0.0322459
0.038569
-0.0320332
0.0408676
-0.0322002
0.0428673
-0.032151
0.0445757
-0.0320354
0.0460659
-0.0290979
0.0475149
-0.0244051
0.0490497
-0.014091
0.0509534
-0.00293961
0.0528954
0.00095373
0.0549064
-0.0030259
0.0558218
-0.0364568
0.0558783
-0.0484886
-0.0156629
0.0230705
-0.0246703
0.0260282
-0.0300356
0.0287412
-0.0326985
0.0312363
-0.0340946
0.0336782
-0.0349657
0.036083
-0.0348704
0.0384036
-0.0345664
0.0405803
-0.03421
0.0425478
-0.0341677
0.044267
-0.0338703
0.0457432
-0.0335116
0.0470489
-0.0304036
0.0483538
-0.0257101
0.0497919
-0.0155291
0.0516346
-0.00478239
0.0535481
-0.000959712
0.0555444
-0.00502217
0.0564654
-0.0373778
0.05653
-0.0485532
-0.0162335
0.0279343
-0.0290417
0.0305256
-0.0326269
0.0326672
-0.0348401
0.0345976
-0.036025
0.0365181
-0.0368862
0.0384637
-0.036816
0.0403824
-0.0364851
0.0422133
-0.0360409
0.0438891
-0.0358435
0.0453703
-0.0353515
0.0466594
-0.0348006
0.0478261
-0.0315704
0.0490297
-0.0269137
0.0504062
-0.0169056
0.0522115
-0.00658774
0.0541149
-0.00286311
0.0561158
-0.00702301
0.0570789
-0.0383409
0.057202
-0.0486764
-0.0169371
0.0324942
-0.0330309
0.0344733
-0.0346061
0.0359433
-0.03631
0.0372928
-0.0373745
0.0387202
-0.0383136
0.0402513
-0.0383472
0.0418201
-0.0380539
0.0433592
-0.03758
0.0447983
-0.0372826
0.0460967
-0.0366499
0.0472544
-0.0359582
0.0483365
-0.0326525
0.0494898
-0.028067
0.050848
-0.0182638
0.0526479
-0.00838755
0.0545677
-0.00478296
0.0565994
-0.00905474
0.0576461
-0.0393875
0.0578817
-0.048912
-0.0178186
0.0368224
-0.0359911
0.0378095
-0.0355932
0.0384711
-0.0369716
0.0392386
-0.038142
0.0402075
-0.0392825
0.0413739
-0.0395135
0.0426486
-0.0393286
0.0439543
-0.0388857
0.0452169
-0.0385452
0.0463925
-0.0378255
0.0474793
-0.037045
0.0485353
-0.0337085
0.0496931
-0.0292248
0.0510813
-0.019652
0.0529116
-0.0102178
0.0548817
-0.00675308
0.0569753
-0.0111484
0.058151
-0.0405632
0.0585565
-0.0493174
-0.0189251
0.117849
-0.0273979
-0.126442
0.113267
-0.0310116
0.110589
-0.0342938
0.109006
-0.0365585
0.107994
-0.0382706
0.107474
-0.0389933
0.107277
-0.0391317
0.107265
-0.0388743
0.107264
-0.0385439
0.107143
-0.0377038
0.106789
-0.0366915
0.106294
-0.033214
0.10588
-0.0288101
0.105959
-0.0197307
0.107194
-0.0114535
0.10907
-0.00862868
0.111401
-0.0134801
0.111643
-0.0408044
0.109781
-0.047456
-0.0185393
0.165213
-0.0167884
-0.175823
0.156941
-0.0227396
0.151101
-0.0284534
0.146954
-0.0324119
0.143818
-0.035135
0.141494
-0.036669
0.139742
-0.0373793
0.138362
-0.0374948
0.137148
-0.0373298
0.135935
-0.0364912
0.134598
-0.0353537
0.133222
-0.0318386
0.132012
-0.0276
0.131449
-0.0191678
0.132163
-0.0121674
0.133639
-0.0101042
0.135543
-0.0153847
0.135153
-0.0404138
0.132453
-0.0447561
-0.0177028
0.216492
-0.00617435
-0.227106
0.207402
-0.0136493
0.199618
-0.0206696
0.193287
-0.0260805
0.188058
-0.0299066
0.183769
-0.03238
0.180217
-0.0338268
0.177194
-0.0344721
0.174492
-0.0346279
0.171936
-0.0339352
0.169397
-0.0328141
0.166965
-0.0294068
0.164811
-0.0254462
0.163463
-0.0178202
0.163456
-0.0121598
0.164284
-0.0109326
0.165443
-0.0165434
0.164155
-0.0391266
0.160463
-0.0410639
-0.0163052
0.26805
0.0022999
-0.276524
0.260218
-0.00581738
0.252465
-0.0129171
0.245298
-0.0189138
0.238855
-0.0234631
0.233137
-0.0266618
0.228072
-0.0287621
0.223533
-0.029933
0.219373
-0.0304679
0.215455
-0.0300176
0.211683
-0.029042
0.208176
-0.0258993
0.205066
-0.0223362
0.202909
-0.0156634
0.202053
-0.0113038
0.202027
-0.0109065
0.202102
-0.0166188
0.199655
-0.0366789
0.194895
-0.0363048
-0.0142832
0.31771
0.00756971
-0.32298
0.312121
-0.000228125
0.305945
-0.00674054
0.299467
-0.0124362
0.293093
-0.0170886
0.287007
-0.0205759
0.281265
-0.0230206
0.275846
-0.0245134
0.270702
-0.0253241
0.265785
-0.0251004
0.261066
-0.0243235
0.256731
-0.0215646
0.252884
-0.0184884
0.250093
-0.0128726
0.248439
-0.00965029
0.24749
-0.00995688
0.246255
-0.0153842
0.242467
-0.0328905
0.236714
-0.0305521
-0.0116756
0.366494
0.0096875
-0.368612
0.363182
0.00308387
0.359
-0.00255847
0.354027
-0.00746247
0.348617
-0.0116787
0.343067
-0.0150259
0.337524
-0.017478
0.332039
-0.0190285
0.326639
-0.0199242
0.321369
-0.0198302
0.316268
-0.019223
0.311611
-0.0169076
0.307477
-0.0143538
0.304441
-0.0098369
0.302282
-0.00749118
0.300576
-0.00825055
0.298083
-0.0128919
0.292963
-0.0277702
0.286505
-0.0240938
-0.00868208
0.417411
0.00935765
-0.417081
0.416039
0.00445532
0.41357
-8.92695e-05
0.410129
-0.00402104
0.405917
-0.00746697
0.401228
-0.0103366
0.396281
-0.0125313
0.391197
-0.0139443
0.386046
-0.0147734
0.380951
-0.0147355
0.37599
-0.0142618
0.371516
-0.0124336
0.367578
-0.0104155
0.364742
-0.00700092
0.362523
-0.0052725
0.360443
-0.00617017
0.357122
-0.00957144
0.350933
-0.0215804
0.344268
-0.017429
-0.00567771
0.473878
0.00732135
-0.471842
0.47414
0.0041928
0.473059
0.000992251
0.470869
-0.00183092
0.46771
-0.00430844
0.463806
-0.00643285
0.459406
-0.00813082
0.454715
-0.00925295
0.449857
-0.0099154
0.445035
-0.00991384
0.440352
-0.00957908
0.436223
-0.00830422
0.432675
-0.00686767
0.430239
-0.00456498
0.428292
-0.00332552
0.426212
-0.00408982
0.422722
-0.00608157
0.415894
-0.0147521
0.409572
-0.0111076
-0.00311438
0.539716
0.00410117
-0.536496
0.541317
0.0025921
0.541396
0.000913493
0.540175
-0.000610326
0.537813
-0.00194629
0.534486
-0.0031054
0.530419
-0.00406395
0.525884
-0.00471788
0.521075
-0.00510641
0.516284
-0.00512333
0.511651
-0.00494633
0.507636
-0.00428867
0.504284
-0.0035158
0.502068
-0.00234928
0.50039
-0.00164691
0.498402
-0.00210224
0.495224
-0.00290339
0.488077
-0.00760515
0.482369
-0.00539959
-0.0012803
0.62012
-0.616019
0.622712
0.623626
0.623015
0.621069
0.617964
0.6139
0.609182
0.604075
0.598952
0.594006
0.589717
0.586201
0.583852
0.582205
0.580103
0.577199
0.569594
0.564195
0.167579
0.0228838
-0.166604
0.167775
0.0284584
0.16701
0.0337262
0.165096
0.0385544
0.161866
0.0428022
0.157207
0.0463345
0.151101
0.0490418
0.143684
0.0508678
0.135316
0.0517833
0.0515715
0.19184
0.0209154
-0.189872
0.193496
0.0268026
0.194692
0.0325308
0.195255
0.0379907
0.195001
0.0430568
0.19374
0.0475951
0.191305
0.0514762
0.187573
0.0546004
0.18242
0.0569358
0.0581691
0.217569
0.0183951
-0.215048
0.220205
0.0241666
0.222862
0.0298738
0.225408
0.0354445
0.22767
0.040795
0.229434
0.0458307
0.230462
0.0504485
0.230524
0.0545387
0.229441
0.0580183
0.0605044
0.246092
0.0157325
-0.243429
0.249147
0.0211116
0.252552
0.0264686
0.256239
0.0317577
0.260109
0.0369251
0.264031
0.041908
0.267845
0.0466348
0.271359
0.0510244
0.274367
0.0550107
0.0583475
0.278473
0.0130744
-0.275815
0.281702
0.0178829
0.285492
0.0226787
0.289821
0.0274287
0.294649
0.0320967
0.299914
0.0366434
0.305523
0.0410255
0.311352
0.0451952
0.317258
0.0491054
0.0526247
0.315514
0.0104494
-0.312889
0.318843
0.0145542
0.322874
0.0186475
0.327599
0.0227031
0.333002
0.0266939
0.339054
0.0305917
0.345712
0.0343672
0.352918
0.0379892
0.360598
0.0414257
0.0446103
0.358123
0.00786441
-0.355538
0.361533
0.0111445
0.365766
0.0144142
0.370817
0.0176523
0.376674
0.0208375
0.383317
0.0239481
0.390722
0.0269625
0.398852
0.0298589
0.407663
0.032615
0.0351922
0.40771
0.00530341
-0.405149
0.411219
0.00763567
0.415673
0.0099602
0.421064
0.0122616
0.427377
0.0145242
0.434593
0.0167324
0.442684
0.0188709
0.451619
0.0209244
0.461356
0.0228776
0.0247068
0.466406
0.00271592
-0.463818
0.470077
0.00396467
0.474827
0.00520988
0.480646
0.00644293
0.487515
0.00765516
0.495409
0.00883795
0.504297
0.00998278
0.51414
0.0110813
0.524892
0.0121253
0.013103
0.537616
-0.5349
0.54158
0.54679
0.553233
0.560888
0.569726
0.579709
0.59079
0.602916
0.143407
-0.030191
-0.141058
0.146255
-0.0264445
0.149214
-0.0218189
0.152188
-0.0168233
0.155103
-0.011538
0.157915
-0.00604735
0.160562
-0.000388164
0.162963
0.00539664
0.165017
0.0112491
0.0170991
0.170824
-0.0318579
-0.169157
0.172645
-0.0282655
0.174572
-0.0237461
0.176606
-0.0188572
0.178728
-0.01366
0.180924
-0.00824386
0.183179
-0.00264289
0.185459
0.00311642
0.187714
0.00899448
0.0149411
0.202143
-0.0323142
-0.201687
0.202788
-0.0289108
0.203567
-0.0245251
0.204516
-0.0198062
0.205679
-0.0148226
0.207072
-0.00963735
0.208708
-0.00427793
0.210589
0.00123527
0.212709
0.00687385
0.0126019
0.237224
-0.031465
-0.238073
0.236561
-0.0282487
0.236166
-0.0241295
0.23607
-0.0197104
0.236319
-0.0150717
0.236939
-0.010257
0.237946
-0.00528517
0.239357
-0.000175388
0.241183
0.00504769
0.0103555
0.276012
-0.0293079
-0.278169
0.274083
-0.0263199
0.272561
-0.0226069
0.271487
-0.0186369
0.270895
-0.0144798
0.270806
-0.0101681
0.271238
-0.00571714
0.272208
-0.00114484
0.273729
0.00352596
0.00827
0.3191
-0.0258626
-0.322545
0.315995
-0.0232155
0.313422
-0.0200341
0.31143
-0.0166451
0.310047
-0.013096
0.30929
-0.00941168
0.30918
-0.00560682
0.309733
-0.00169824
0.310966
0.00229367
0.00634675
0.367534
-0.0211654
-0.372231
0.363319
-0.019
0.35975
-0.0164655
0.356876
-0.0137712
0.354726
-0.0109455
0.353321
-0.00800663
0.352682
-0.0049682
0.352829
-0.00184513
0.353777
0.0013455
0.00458538
0.422753
-0.0152655
-0.428653
0.41747
-0.0137172
0.412939
-0.0119343
0.409206
-0.0100383
0.406305
-0.00804468
0.404264
-0.00596582
0.403109
-0.00381254
0.40286
-0.00159646
0.403536
0.000669674
0.00297225
0.486887
-0.00820164
-0.493951
0.480555
-0.00738531
0.47507
-0.00644971
0.470484
-0.00545186
0.466838
-0.00439867
0.464169
-0.00329661
0.462508
-0.00215194
0.461883
-0.000971305
0.462315
0.000238129
0.00146874
0.563298
-0.5715
0.555913
0.549463
0.544011
0.539613
0.536316
0.534164
0.533193
0.533431
0.126774
0.00231415
-0.00222265
0.126517
0.00701995
-0.00676264
0.1261
0.012128
-0.0117113
0.125526
0.0180209
-0.017447
0.12485
0.0250578
-0.0243809
0.124126
0.0342892
-0.0335653
0.123817
0.0456063
-0.0452975
0.124085
0.0633318
-0.0635999
0.128817
0.0812964