/*--------------------------------*- C++ -*----------------------------------*\
  =========                 |
  \\      /  F ield         | OpenFOAM: The Open Source CFD Toolbox
   \\    /   O peration     | Website:  https://openfoam.org
    \\  /    A nd           | Version:  6.0
     \\/     M anipulation  |
\*---------------------------------------------------------------------------*/
FoamFile
{
    version     2.0;
    format      ascii;
    class       volScalarField;
    location    "8.7501";
    object      p;
}
// * * * * * * * * * * * * * * * * * * * * * * * * * * * * * * * * * * * * * //

dimensions      [0 2 -2 0 0 0 0];

internalField   nonuniform List<scalar> 
19200
(
-84.382
-76.1999
-70.0876
-64.9535
-60.1914
-55.8122
-51.7966
-48.1026
-44.6996
-41.5636
-38.6732
-36.0089
-33.5527
-31.288
-29.1993
-27.272
-25.4927
-23.8491
-22.3297
-20.924
-19.6223
-18.416
-17.2971
-16.2581
-15.2927
-14.3949
-13.5595
-12.7812
-12.0559
-11.383
-84.7664
-76.5977
-70.4813
-65.3335
-60.5548
-56.1582
-52.1252
-48.4145
-44.9958
-41.8452
-38.9416
-36.2654
-33.7984
-31.5241
-29.4266
-27.4914
-25.7049
-24.0548
-22.5294
-21.1182
-19.8115
-18.6005
-17.4771
-16.434
-15.4647
-14.5632
-13.7241
-12.9423
-12.2133
-11.5381
-85.1626
-76.9947
-70.8722
-65.7112
-60.9161
-56.5022
-52.4519
-48.7245
-45.2903
-42.1254
-39.2087
-36.5206
-34.0431
-31.7591
-29.653
-27.71
-25.9164
-24.2599
-22.7286
-21.3119
-20.0002
-18.7846
-17.6568
-16.6096
-15.6364
-14.7311
-13.8885
-13.1032
-12.3704
-11.693
-85.5659
-77.3935
-71.2619
-66.0871
-61.2755
-56.8442
-52.7766
-49.0327
-45.583
-42.4039
-39.4742
-36.7745
-34.2864
-31.9929
-29.8782
-27.9275
-26.127
-24.4641
-22.927
-21.505
-20.1883
-18.968
-17.8359
-16.7847
-15.8076
-14.8986
-14.0525
-13.2636
-12.5272
-11.8476
-85.9725
-77.7933
-71.6507
-66.4614
-61.6331
-57.1842
-53.0993
-49.339
-45.8738
-42.6806
-39.7381
-37.0267
-34.5282
-32.2254
-30.1023
-28.144
-26.3366
-24.6673
-23.1245
-21.6972
-20.3756
-19.1508
-18.0144
-16.9592
-15.9782
-15.0656
-14.216
-13.4235
-12.6836
-12.0019
-86.3805
-78.1934
-72.0387
-66.8341
-61.9887
-57.5222
-53.4199
-49.6431
-46.1625
-42.9553
-40.0001
-37.2773
-34.7684
-32.4564
-30.3249
-28.3591
-26.5449
-24.8695
-23.3209
-21.8884
-20.5621
-19.3327
-18.1922
-17.1329
-16.1482
-15.232
-14.3789
-13.5829
-12.8394
-12.1558
-86.7885
-78.5931
-72.4255
-67.2051
-62.3423
-57.8579
-53.7383
-49.9449
-46.4491
-43.2279
-40.26
-37.5259
-35.0069
-32.6857
-30.546
-28.5728
-26.7519
-25.0703
-23.5162
-22.0786
-20.7475
-19.5137
-18.3691
-17.3059
-16.3175
-15.3977
-14.5412
-13.7417
-12.9946
-12.3092
-87.1959
-78.9918
-72.8108
-67.5741
-62.6937
-58.1913
-54.0542
-50.2443
-46.7332
-43.4981
-40.5178
-37.7724
-35.2433
-32.9131
-30.7654
-28.7848
-26.9573
-25.2698
-23.7102
-22.2676
-20.9318
-19.6937
-18.5449
-17.4779
-16.4859
-15.5626
-14.7027
-13.8998
-13.1492
-12.4621
-87.6018
-79.3888
-73.1941
-67.9409
-63.0425
-58.5221
-54.3674
-50.541
-47.0148
-43.7659
-40.7732
-38.0166
-35.4776
-33.1385
-30.9828
-28.9951
-27.1611
-25.4677
-23.9027
-22.4551
-21.1147
-19.8724
-18.7197
-17.6489
-16.6533
-15.7267
-14.8634
-14.0571
-13.303
-12.6144
-88.0058
-79.7838
-73.5751
-68.3051
-63.3887
-58.85
-54.6777
-50.8349
-47.2936
-44.031
-41.0259
-38.2584
-35.7096
-33.3617
-31.1982
-29.2034
-27.3631
-25.6638
-24.0936
-22.6411
-21.2963
-20.0498
-18.8932
-17.8187
-16.8196
-15.8897
-15.0231
-14.2135
-13.4561
-12.7661
-88.4075
-80.1764
-73.9535
-68.6665
-63.7318
-59.1748
-54.9849
-51.1257
-47.5693
-44.2931
-41.2759
-38.4975
-35.939
-33.5825
-31.4113
-29.4096
-27.563
-25.8581
-24.2826
-22.8254
-21.4762
-20.2257
-19.0653
-17.9873
-16.9847
-16.0515
-15.1819
-14.3689
-13.6082
-12.917
-88.8064
-80.566
-74.3289
-69.0247
-64.0716
-59.4963
-55.2888
-51.4132
-47.8418
-44.5522
-41.5229
-38.7337
-36.1657
-33.8007
-31.6218
-29.6134
-27.7606
-26.0502
-24.4697
-23.0079
-21.6544
-20.3999
-19.2358
-18.1543
-17.1485
-16.2122
-15.3395
-14.5233
-13.7594
-13.0672
-89.2022
-80.9526
-74.7009
-69.3794
-64.4079
-59.8142
-55.5891
-51.6971
-48.1109
-44.8078
-41.7666
-38.9669
-36.3894
-34.0161
-31.8298
-29.8146
-27.9559
-26.24
-24.6546
-23.1883
-21.8306
-20.5723
-19.4046
-18.3198
-17.3109
-16.3715
-15.4958
-14.6766
-13.9096
-13.2165
-89.5947
-81.3356
-75.0694
-69.7304
-64.7404
-60.1282
-55.8856
-51.9773
-48.3763
-45.0599
-42.0069
-39.1967
-36.6099
-34.2284
-32.0347
-30.013
-28.1485
-26.4273
-24.8371
-23.3664
-22.0047
-20.7427
-19.5716
-18.4835
-17.4715
-16.5293
-15.6508
-14.8286
-14.0587
-13.3649
-89.9834
-81.7149
-75.4339
-70.0775
-65.0688
-60.4381
-56.1779
-52.2534
-48.6377
-45.3082
-42.2434
-39.4229
-36.827
-34.4374
-32.2366
-30.2085
-28.3382
-26.6118
-25.0169
-23.542
-22.1764
-20.9108
-19.7364
-18.6453
-17.6304
-16.6854
-15.8043
-14.9792
-14.2065
-13.5122
-90.3682
-82.0901
-75.7943
-70.4202
-65.3928
-60.7436
-56.4659
-52.5253
-48.8949
-45.5524
-42.4761
-39.6453
-37.0405
-34.6429
-32.435
-30.4006
-28.5247
-26.7934
-25.1939
-23.7148
-22.3455
-21.0764
-19.8989
-18.8049
-17.7872
-16.8397
-15.956
-15.1283
-14.3529
-13.6585
-90.7488
-82.4611
-76.1504
-70.7584
-65.7123
-61.0446
-56.7494
-52.7926
-49.1477
-45.7922
-42.7045
-39.8637
-37.25
-34.8445
-32.6298
-30.5893
-28.7079
-26.9716
-25.3677
-23.8846
-22.5117
-21.2393
-20.0587
-18.962
-17.9418
-16.9918
-16.1059
-15.2757
-14.4978
-13.8034
-91.1251
-82.8277
-76.5018
-71.0919
-66.0269
-61.3407
-57.028
-53.0552
-49.3959
-46.0276
-42.9285
-40.0778
-37.4553
-35.0422
-32.8206
-30.7741
-28.8873
-27.1462
-25.5381
-24.0511
-22.6747
-21.3991
-20.2157
-19.1163
-18.0938
-17.1416
-16.2536
-15.4211
-14.641
-13.9469
-91.4969
-83.1896
-76.8485
-71.4205
-66.3365
-61.6317
-57.3015
-53.3127
-49.6391
-46.2581
-43.1479
-40.2873
-37.6562
-35.2355
-33.0072
-30.9548
-29.0627
-27.317
-25.7046
-24.2139
-22.8341
-21.5556
-20.3694
-19.2676
-18.2429
-17.2887
-16.3988
-15.5644
-14.7823
-14.0888
-91.8643
-83.5469
-77.1902
-71.7439
-66.6408
-61.9174
-57.5698
-53.5651
-49.8772
-46.4836
-43.3623
-40.492
-37.8524
-35.4242
-33.1894
-31.1311
-29.2339
-27.4835
-25.867
-24.3726
-22.9896
-21.7082
-20.5194
-19.4154
-18.3886
-17.4328
-16.5412
-15.705
-14.9212
-14.2287
-92.2273
-83.8993
-77.5268
-72.062
-66.9397
-62.1975
-57.8325
-53.812
-50.1099
-46.7038
-43.5715
-40.6916
-38.0436
-35.608
-33.3667
-31.3027
-29.4004
-27.6455
-26.0249
-24.527
-23.1407
-21.8565
-20.6653
-19.5592
-18.5306
-17.5732
-16.6803
-15.8426
-15.0575
-14.3663
-92.5861
-84.2469
-77.8582
-72.3746
-67.2329
-62.4719
-58.0894
-54.0531
-50.337
-46.9185
-43.7753
-40.8859
-38.2296
-35.7867
-33.539
-31.4693
-29.5619
-27.8025
-26.178
-24.6764
-23.2871
-22.0001
-20.8066
-19.6984
-18.6682
-17.7095
-16.8155
-15.9767
-15.1905
-14.501
-92.9412
-84.5898
-78.1844
-72.6815
-67.5201
-62.7403
-58.3404
-54.2883
-50.5583
-47.1275
-43.9736
-41.0748
-38.4102
-35.9601
-33.7059
-31.6305
-29.7181
-27.9542
-26.3257
-24.8205
-23.4281
-22.1384
-20.9425
-19.8325
-18.8008
-17.8409
-16.9462
-16.1066
-15.3197
-14.6323
-93.293
-84.928
-78.505
-72.9825
-67.8012
-63.0025
-58.5851
-54.5174
-50.7735
-47.3305
-44.166
-41.2579
-38.5852
-36.1279
-33.8674
-31.7863
-29.8688
-28.1003
-26.4677
-24.9589
-23.5632
-22.2707
-21.0725
-19.9606
-18.9274
-17.9666
-17.0714
-16.2314
-15.4444
-14.76
-93.6418
-85.261
-78.8198
-73.2774
-68.0759
-63.2581
-58.8234
-54.7402
-50.9825
-47.5275
-44.3525
-41.4352
-38.7545
-36.29
-34.0231
-31.9363
-30.0136
-28.2405
-26.6036
-25.0911
-23.692
-22.3965
-21.1958
-20.0817
-19.0471
-18.0853
-17.1896
-16.3496
-15.5631
-14.8828
-93.988
-85.5887
-79.1284
-73.5658
-68.3438
-63.507
-59.055
-54.9563
-51.1851
-47.7183
-44.533
-41.6066
-38.9179
-36.4463
-34.173
-32.0805
-30.1526
-28.3746
-26.7333
-25.2167
-23.8139
-22.5151
-21.3116
-20.1951
-19.1586
-18.1956
-17.2994
-16.4593
-15.6737
-14.9967
-94.3353
-85.9122
-79.4307
-73.8471
-68.6045
-63.7484
-59.2792
-55.1654
-51.381
-47.9026
-44.7071
-41.7719
-39.0753
-36.5967
-34.3171
-32.2187
-30.2854
-28.5025
-26.8565
-25.3355
-23.9286
-22.6262
-21.4193
-20.3
-19.2612
-18.2968
-17.3999
-16.56
-15.7748
-15.0993
-94.694
-86.2351
-79.7262
-74.12
-68.8564
-63.9813
-59.4954
-55.3669
-51.5696
-48.08
-44.8747
-41.9309
-39.2266
-36.7411
-34.4552
-32.351
-30.4122
-28.6241
-26.9731
-25.4474
-24.0359
-22.729
-21.518
-20.3951
-19.3534
-18.3872
-17.49
-16.6507
-15.8674
-15.2012
-95.0682
-86.5565
-80.0121
-74.3825
-69.0991
-64.206
-59.7039
-55.5612
-51.7515
-48.251
-45.0362
-42.084
-39.3722
-36.8799
-34.5878
-32.4777
-30.5334
-28.7398
-27.0836
-25.5525
-24.1357
-22.8234
-21.6068
-20.4784
-19.4315
-18.4608
-17.5599
-16.7186
-15.9427
-15.309
-95.4098
-86.8579
-80.2848
-74.6351
-69.3343
-64.4247
-59.9072
-55.7507
-51.9288
-48.4176
-45.1934
-42.2329
-39.5136
-37.0146
-34.7161
-32.6002
-30.6502
-28.8511
-27.1893
-25.6525
-24.2297
-22.9109
-21.6872
-20.5507
-19.4944
-18.5121
-17.596
-16.7393
-15.9633
-15.3426
-99.8303
-99.8098
-99.7607
-99.7125
-99.6631
-99.6063
-99.5401
-99.4642
-99.3787
-99.2834
-99.1782
-99.063
-98.9379
-98.803
-98.6586
-98.5048
-98.3418
-98.1698
-97.9893
-97.8003
-97.6034
-97.3988
-97.187
-96.9686
-96.7443
-96.5151
-96.283
-96.0508
-95.8246
-95.612
-91.0762
-91.0802
-91.0637
-91.0381
-91.0043
-90.9602
-90.905
-90.8392
-90.763
-90.6766
-90.5799
-90.4733
-90.3567
-90.2303
-90.0944
-89.9492
-89.7949
-89.6317
-89.4599
-89.2798
-89.0916
-88.8958
-88.6927
-88.4828
-88.2667
-88.045
-87.8187
-87.5887
-87.3556
-87.1146
-84.1678
-84.1884
-84.1932
-84.1845
-84.1639
-84.132
-84.0889
-84.035
-83.9706
-83.8958
-83.8109
-83.716
-83.6112
-83.4969
-83.3731
-83.2402
-83.0982
-82.9475
-82.7883
-82.6208
-82.4453
-82.2622
-82.0716
-81.8739
-81.6695
-81.4586
-81.2414
-81.0174
-80.7857
-80.5426
-78.1461
-78.1761
-78.1928
-78.1959
-78.1866
-78.1659
-78.1342
-78.0919
-78.0392
-77.9762
-77.9033
-77.8206
-77.7283
-77.6266
-77.5157
-77.3957
-77.2671
-77.1298
-76.9842
-76.8305
-76.669
-76.4997
-76.323
-76.1391
-75.948
-75.7499
-75.5445
-75.3315
-75.11
-74.8786
-72.4929
-72.5284
-72.5528
-72.5646
-72.5644
-72.5529
-72.5309
-72.4984
-72.4558
-72.4033
-72.3411
-72.2694
-72.1884
-72.0983
-71.9993
-71.8916
-71.7755
-71.651
-71.5185
-71.3781
-71.23
-71.0744
-70.9114
-70.7412
-70.5637
-70.3791
-70.1871
-69.9873
-69.7794
-69.5624
-67.2746
-67.3135
-67.3427
-67.3604
-67.3666
-67.362
-67.3472
-67.3224
-67.2878
-67.2436
-67.1901
-67.1275
-67.056
-66.9758
-66.887
-66.7899
-66.6847
-66.5715
-66.4506
-66.3221
-66.1861
-66.043
-65.8926
-65.7352
-65.5708
-65.3992
-65.2204
-65.0342
-64.84
-64.6374
-62.5
-62.5406
-62.5722
-62.5933
-62.6035
-62.6034
-62.5936
-62.5742
-62.5454
-62.5076
-62.4608
-62.4053
-62.3413
-62.2689
-62.1884
-62.1
-62.0039
-61.9002
-61.789
-61.6707
-61.5453
-61.413
-61.2738
-61.1278
-60.9751
-60.8155
-60.649
-60.4753
-60.2942
-60.1054
-58.1367
-58.1774
-58.2098
-58.2322
-58.2445
-58.247
-58.2403
-58.2244
-58.1996
-58.1662
-58.1242
-58.074
-58.0156
-57.9493
-57.8753
-57.7938
-57.7049
-57.6088
-57.5057
-57.3958
-57.2792
-57.156
-57.0264
-56.8903
-56.7478
-56.5988
-56.4433
-56.2811
-56.1119
-55.9356
-54.1525
-54.1922
-54.224
-54.2464
-54.2592
-54.2629
-54.2577
-54.2439
-54.2216
-54.191
-54.1523
-54.1058
-54.0515
-53.9897
-53.9205
-53.8443
-53.761
-53.671
-53.5744
-53.4713
-53.3619
-53.2463
-53.1247
-52.997
-52.8633
-52.7236
-52.5777
-52.4256
-52.267
-52.1019
-50.5159
-50.5537
-50.584
-50.6055
-50.6179
-50.6216
-50.6169
-50.604
-50.583
-50.5541
-50.5175
-50.4734
-50.4219
-50.3633
-50.2978
-50.2254
-50.1465
-50.0612
-49.9696
-49.872
-49.7685
-49.6592
-49.5442
-49.4235
-49.2973
-49.1655
-49.028
-48.8848
-48.7356
-48.5803
-47.1952
-47.2307
-47.259
-47.2788
-47.2902
-47.2932
-47.2882
-47.2754
-47.2549
-47.2268
-47.1914
-47.1488
-47.0992
-47.0428
-46.9798
-46.9104
-46.8347
-46.753
-46.6654
-46.5722
-46.4734
-46.3692
-46.2597
-46.145
-46.0252
-45.9002
-45.77
-45.6345
-45.4935
-45.3468
-44.1602
-44.1932
-44.2191
-44.237
-44.2468
-44.2487
-44.2429
-44.2297
-44.209
-44.1812
-44.1463
-44.1046
-44.0562
-44.0013
-43.9401
-43.8728
-43.7995
-43.7206
-43.6361
-43.5463
-43.4513
-43.3514
-43.2465
-43.1369
-43.0225
-42.9034
-42.7795
-42.6508
-42.517
-42.3781
-41.3828
-41.4131
-41.4366
-41.4524
-41.4604
-41.4609
-41.4541
-41.44
-41.4189
-41.3909
-41.3562
-41.3148
-41.2671
-41.2131
-41.1532
-41.0874
-41.016
-40.9392
-40.8572
-40.7701
-40.6783
-40.5818
-40.4808
-40.3754
-40.2657
-40.1518
-40.0335
-39.9109
-39.7835
-39.6515
-38.8373
-38.8649
-38.886
-38.8997
-38.9059
-38.9049
-38.8968
-38.8818
-38.86
-38.8316
-38.7966
-38.7554
-38.708
-38.6546
-38.5955
-38.5309
-38.4609
-38.3857
-38.3056
-38.2208
-38.1315
-38.0379
-37.9402
-37.8385
-37.7329
-37.6235
-37.5102
-37.393
-37.2716
-37.1458
-36.5005
-36.5257
-36.5444
-36.556
-36.5604
-36.5578
-36.5485
-36.5324
-36.5098
-36.4808
-36.4456
-36.4042
-36.357
-36.304
-36.2454
-36.1816
-36.1126
-36.0387
-35.9602
-35.8772
-35.7901
-35.6989
-35.604
-35.5055
-35.4035
-35.2982
-35.1894
-35.0771
-34.9611
-34.8412
-34.3519
-34.3747
-34.3912
-34.4008
-34.4034
-34.3994
-34.3888
-34.3717
-34.3482
-34.3186
-34.2829
-34.2414
-34.1941
-34.1413
-34.0832
-34.0199
-33.9517
-33.8789
-33.8016
-33.7201
-33.6348
-33.5457
-33.4532
-33.3575
-33.2587
-33.157
-33.0524
-32.9448
-32.8339
-32.7194
-32.3731
-32.3936
-32.4081
-32.4158
-32.4168
-32.4113
-32.3995
-32.3814
-32.3571
-32.3269
-32.2907
-32.2489
-32.2016
-32.1489
-32.091
-32.0282
-31.9606
-31.8886
-31.8124
-31.7321
-31.6482
-31.561
-31.4706
-31.3773
-31.2814
-31.1831
-31.0823
-30.979
-30.8729
-30.7637
-30.5477
-30.5662
-30.5787
-30.5847
-30.5842
-30.5774
-30.5644
-30.5454
-30.5203
-30.4895
-30.4529
-30.4108
-30.3633
-30.3106
-30.2529
-30.1905
-30.1234
-30.0521
-29.9767
-29.8975
-29.8148
-29.7291
-29.6405
-29.5494
-29.4561
-29.3608
-29.2637
-29.1645
-29.0631
-28.9591
-28.8613
-28.8779
-28.8887
-28.8931
-28.8912
-28.8832
-28.8692
-28.8492
-28.8234
-28.792
-28.755
-28.7126
-28.665
-28.6123
-28.5548
-28.4926
-28.4259
-28.3551
-28.2804
-28.2021
-28.1205
-28.036
-27.949
-27.8598
-27.7688
-27.6763
-27.5825
-27.4874
-27.3906
-27.2917
-27.3011
-27.316
-27.3251
-27.3281
-27.325
-27.3158
-27.3008
-27.2801
-27.2536
-27.2217
-27.1843
-27.1417
-27.0939
-27.0412
-26.9838
-26.9218
-26.8554
-26.7851
-26.7109
-26.6333
-26.5526
-26.4691
-26.3834
-26.2958
-26.2069
-26.1169
-26.0262
-25.935
-25.8428
-25.7492
-25.8557
-25.869
-25.8767
-25.8783
-25.874
-25.8639
-25.848
-25.8265
-25.7995
-25.7671
-25.7293
-25.6865
-25.6386
-25.5859
-25.5285
-25.4667
-25.4006
-25.3306
-25.2569
-25.1799
-25.0998
-25.0172
-24.9325
-24.8463
-24.759
-24.6713
-24.5836
-24.496
-24.4085
-24.3203
-24.515
-24.5269
-24.5332
-24.5336
-24.5283
-24.5172
-24.5006
-24.4784
-24.4509
-24.418
-24.38
-24.3369
-24.2889
-24.2362
-24.1789
-24.1172
-24.0514
-23.9816
-23.9083
-23.8316
-23.7521
-23.6701
-23.5862
-23.501
-23.4151
-23.3293
-23.2442
-23.1602
-23.0774
-22.9949
-23.2699
-23.2804
-23.2855
-23.2849
-23.2786
-23.2667
-23.2493
-23.2266
-23.1986
-23.1653
-23.127
-23.0838
-23.0357
-22.983
-22.9257
-22.8642
-22.7985
-22.729
-22.6559
-22.5796
-22.5004
-22.4188
-22.3354
-22.2508
-22.166
-22.0816
-21.9988
-21.9182
-21.8402
-21.7638
-22.1123
-22.1216
-22.1256
-22.124
-22.1168
-22.1042
-22.0862
-22.063
-22.0345
-22.0009
-21.9624
-21.919
-21.8709
-21.8181
-21.7609
-21.6995
-21.6339
-21.5646
-21.4917
-21.4155
-21.3365
-21.2551
-21.1719
-21.0877
-21.0034
-20.9201
-20.8391
-20.7614
-20.6883
-20.6186
-21.0349
-21.0432
-21.0462
-21.0436
-21.0357
-21.0224
-21.0039
-20.9801
-20.9513
-20.9175
-20.8787
-20.8352
-20.787
-20.7343
-20.6771
-20.6158
-20.5504
-20.4811
-20.4083
-20.3322
-20.2532
-20.1718
-20.0886
-20.0043
-19.92
-19.8371
-19.7572
-19.6821
-19.6138
-19.5514
-20.0313
-20.0386
-20.0406
-20.0372
-20.0286
-20.0147
-19.9956
-19.9714
-19.9423
-19.9082
-19.8692
-19.8256
-19.7773
-19.7246
-19.6675
-19.6062
-19.5408
-19.4717
-19.3989
-19.3228
-19.2437
-19.162
-19.0784
-18.9936
-18.9088
-18.8255
-18.7459
-18.6723
-18.6086
-18.554
-19.0957
-19.1019
-19.103
-19.0989
-19.0895
-19.075
-19.0554
-19.0308
-19.0013
-18.9669
-18.9278
-18.884
-18.8356
-18.7828
-18.7257
-18.6643
-18.5989
-18.5297
-18.4568
-18.3805
-18.301
-18.2188
-18.1345
-18.0487
-17.9626
-17.8779
-17.7972
-17.7238
-17.6636
-17.6164
-18.2224
-18.2279
-18.2284
-18.2237
-18.2138
-18.1989
-18.1789
-18.154
-18.1243
-18.0897
-18.0505
-18.0066
-17.9581
-17.9053
-17.8481
-17.7868
-17.7213
-17.652
-17.5789
-17.5023
-17.4224
-17.3395
-17.2542
-17.1669
-17.0789
-16.9917
-16.9084
-16.8335
-16.7757
-16.7354
-17.4063
-17.4116
-17.4119
-17.4071
-17.3973
-17.3825
-17.3627
-17.3381
-17.3087
-17.2745
-17.2357
-17.1924
-17.1446
-17.0923
-17.0358
-16.9752
-16.9104
-16.8418
-16.7693
-16.6932
-16.6137
-16.531
-16.4455
-16.3576
-16.2681
-16.1786
-16.0916
-16.0134
-15.9571
-15.9322
-16.6441
-16.6476
-16.6463
-16.6402
-16.6292
-16.6135
-16.5931
-16.5679
-16.5382
-16.504
-16.4653
-16.4222
-16.3749
-16.3233
-16.2675
-16.2077
-16.144
-16.0765
-16.0052
-15.9303
-15.8519
-15.7701
-15.6853
-15.5976
-15.5075
-15.4159
-15.324
-15.2377
-15.1679
-15.1657
-93.5291
-93.8715
-94.1773
-94.4958
-94.823
-95.1476
-95.4656
-95.7759
-96.0779
-96.3706
-96.6531
-96.9248
-97.1851
-97.4336
-97.67
-97.8941
-98.1056
-98.3044
-98.4904
-98.6636
-98.8239
-98.9714
-99.1063
-99.2288
-99.3393
-99.4383
-99.527
-99.6072
-99.6826
-99.7575
-84.6785
-85.0478
-85.3941
-85.7363
-86.0752
-86.4066
-86.7288
-87.0415
-87.3447
-87.638
-87.9209
-88.1928
-88.4535
-88.7026
-88.9398
-89.165
-89.3779
-89.5785
-89.7666
-89.9421
-90.1051
-90.2557
-90.3938
-90.5196
-90.6336
-90.7359
-90.8273
-90.9081
-90.9788
-91.0364
-77.7241
-78.1005
-78.4618
-78.8115
-79.1517
-79.4826
-79.8039
-80.1156
-80.4175
-80.7093
-80.9909
-81.2617
-81.5216
-81.7703
-82.0076
-82.2332
-82.4471
-82.6489
-82.8388
-83.0165
-83.1822
-83.3357
-83.4771
-83.6066
-83.7241
-83.8299
-83.924
-84.006
-84.0755
-84.13
-71.7371
-72.1064
-72.465
-72.8113
-73.147
-73.4731
-73.7899
-74.0972
-74.3948
-74.6826
-74.9603
-75.2277
-75.4845
-75.7305
-75.9656
-76.1894
-76.402
-76.6032
-76.7928
-76.9708
-77.1372
-77.2919
-77.435
-77.5663
-77.686
-77.794
-77.8901
-77.9741
-78.0455
-78.1033
-66.1935
-66.5503
-66.8991
-67.2374
-67.5652
-67.8836
-68.1929
-68.4929
-68.7836
-69.0646
-69.3359
-69.5972
-69.8484
-70.0893
-70.3197
-70.5394
-70.7483
-70.9464
-71.1335
-71.3094
-71.4743
-71.628
-71.7704
-71.9017
-72.0216
-72.1301
-72.2271
-72.3123
-72.3855
-72.4462
-61.1442
-61.487
-61.8235
-62.1508
-62.4683
-62.7766
-63.0761
-63.3667
-63.6481
-63.9204
-64.1832
-64.4365
-64.6802
-64.9139
-65.1377
-65.3513
-65.5546
-65.7475
-65.93
-66.1019
-66.2633
-66.4139
-66.5538
-66.683
-66.8012
-66.9086
-67.0049
-67.09
-67.1637
-67.2256
-56.5798
-56.9082
-57.2312
-57.5459
-57.8515
-58.1483
-58.4367
-58.7165
-58.9875
-59.2497
-59.5029
-59.7469
-59.9817
-60.207
-60.4228
-60.6289
-60.8252
-61.0116
-61.188
-61.3544
-61.5106
-61.6567
-61.7925
-61.9181
-62.0332
-62.138
-62.2322
-62.3158
-62.3885
-62.4502
-52.4511
-52.7652
-53.0744
-53.3759
-53.6689
-53.9537
-54.2303
-54.4988
-54.7589
-55.0104
-55.2533
-55.4874
-55.7127
-55.9288
-56.1359
-56.3336
-56.522
-56.701
-56.8704
-57.0303
-57.1805
-57.3209
-57.4516
-57.5725
-57.6835
-57.7845
-57.8755
-57.9564
-58.0271
-58.0875
-48.7119
-49.0122
-49.3078
-49.5963
-49.8768
-50.1495
-50.4145
-50.6716
-50.9206
-51.1614
-51.3939
-51.6179
-51.8334
-52.0402
-52.2382
-52.4273
-52.6074
-52.7785
-52.9405
-53.0933
-53.2369
-53.3711
-53.4961
-53.6116
-53.7177
-53.8144
-53.9015
-53.979
-54.0468
-54.1049
-45.3203
-45.6076
-45.8903
-46.1662
-46.4347
-46.6958
-46.9494
-47.1954
-47.4336
-47.664
-47.8863
-48.1004
-48.3062
-48.5037
-48.6927
-48.8732
-49.0451
-49.2083
-49.3627
-49.5083
-49.645
-49.7729
-49.8918
-50.0017
-50.1026
-50.1944
-50.2772
-50.3508
-50.4152
-50.4705
-42.2378
-42.5129
-42.7835
-43.0477
-43.3048
-43.5548
-43.7976
-44.0331
-44.2611
-44.4814
-44.6939
-44.8985
-45.0951
-45.2836
-45.4639
-45.636
-45.7998
-45.9552
-46.1022
-46.2407
-46.3707
-46.4922
-46.6051
-46.7093
-46.8049
-46.8919
-46.9701
-47.0396
-47.1004
-47.1525
-39.4296
-39.6935
-39.953
-40.2063
-40.4528
-40.6924
-40.9251
-41.1507
-41.369
-41.5798
-41.7831
-41.9787
-42.1665
-42.3465
-42.5186
-42.6827
-42.8388
-42.9868
-43.1267
-43.2584
-43.3819
-43.4971
-43.6042
-43.7029
-43.7933
-43.8754
-43.9491
-44.0146
-44.0716
-44.1204
-36.8654
-37.1189
-37.3681
-37.6113
-37.848
-38.0781
-38.3015
-38.5179
-38.7271
-38.9291
-39.1238
-39.311
-39.4906
-39.6626
-39.8269
-39.9835
-40.1323
-40.2733
-40.4065
-40.5317
-40.6491
-40.7584
-40.8599
-40.9533
-41.0387
-41.1162
-41.1856
-41.247
-41.3004
-41.3458
-34.5183
-34.7624
-35.0022
-35.2363
-35.464
-35.6852
-35.8999
-36.1078
-36.3087
-36.5026
-36.6892
-36.8685
-37.0405
-37.2051
-37.3622
-37.5118
-37.6538
-37.7883
-37.9151
-38.0343
-38.1459
-38.2497
-38.3459
-38.4343
-38.5151
-38.5881
-38.6534
-38.711
-38.7609
-38.8031
-32.3652
-32.6008
-32.832
-33.0577
-33.2771
-33.4903
-33.6971
-33.8971
-34.0904
-34.2766
-34.4558
-34.6279
-34.7928
-34.9505
-35.1008
-35.2439
-35.3797
-35.508
-35.629
-35.7426
-35.8488
-35.9475
-36.0388
-36.1226
-36.199
-36.2679
-36.3293
-36.3833
-36.4299
-36.4691
-30.3861
-30.6138
-30.8373
-31.0553
-31.2673
-31.4731
-31.6725
-31.8654
-32.0515
-32.2308
-32.4031
-32.5684
-32.7268
-32.878
-33.0222
-33.1592
-33.2891
-33.4119
-33.5274
-33.6358
-33.737
-33.831
-33.9177
-33.9973
-34.0696
-34.1346
-34.1925
-34.2432
-34.2867
-34.3231
-28.5634
-28.784
-29.0004
-29.2115
-29.4166
-29.6157
-29.8084
-29.9946
-30.1742
-30.347
-30.5129
-30.6721
-30.8243
-30.9696
-31.108
-31.2394
-31.3639
-31.4815
-31.5921
-31.6956
-31.7922
-31.8818
-31.9644
-32.0399
-32.1085
-32.17
-32.2246
-32.2722
-32.3128
-32.3466
-26.8819
-27.096
-27.306
-27.5108
-27.7098
-27.9026
-28.0892
-28.2693
-28.4428
-28.6095
-28.7696
-28.9229
-29.0695
-29.2093
-29.3423
-29.4686
-29.5881
-29.7008
-29.8067
-29.9059
-29.9982
-30.0837
-30.1624
-30.2343
-30.2994
-30.3578
-30.4093
-30.454
-30.492
-30.5234
-25.3281
-25.5363
-25.7406
-25.9398
-26.1331
-26.3203
-26.5012
-26.6756
-26.8434
-27.0046
-27.1591
-27.307
-27.4483
-27.583
-27.711
-27.8325
-27.9473
-28.0556
-28.1572
-28.2523
-28.3407
-28.4225
-28.4976
-28.5662
-28.6281
-28.6834
-28.7321
-28.7743
-28.8099
-28.839
-23.8904
-24.0933
-24.2924
-24.4865
-24.6748
-24.8568
-25.0324
-25.2015
-25.364
-25.52
-25.6693
-25.8122
-25.9485
-26.0784
-26.2018
-26.3187
-26.4293
-26.5334
-26.631
-26.7222
-26.807
-26.8853
-26.9572
-27.0227
-27.0817
-27.1343
-27.1804
-27.2202
-27.2536
-27.2806
-22.5583
-22.7563
-22.951
-23.1406
-23.3243
-23.5015
-23.6722
-23.8363
-23.9938
-24.1448
-24.2893
-24.4273
-24.559
-24.6844
-24.8035
-24.9162
-25.0227
-25.123
-25.2169
-25.3046
-25.386
-25.4612
-25.53
-25.5926
-25.6489
-25.699
-25.7428
-25.7804
-25.8117
-25.8369
-21.3224
-21.516
-21.707
-21.8928
-22.0722
-22.245
-22.411
-22.5704
-22.7232
-22.8694
-23.0093
-23.1429
-23.2702
-23.3913
-23.5063
-23.6152
-23.7179
-23.8146
-23.9051
-23.9895
-24.0678
-24.14
-24.206
-24.266
-24.3198
-24.3675
-24.4092
-24.4447
-24.4742
-24.4977
-20.1741
-20.364
-20.5521
-20.7347
-20.9102
-21.0788
-21.2405
-21.3953
-21.5436
-21.6853
-21.8208
-21.9501
-22.0733
-22.1905
-22.3016
-22.4068
-22.506
-22.5993
-22.6866
-22.768
-22.8434
-22.9128
-22.9763
-23.0338
-23.0854
-23.1309
-23.1706
-23.2043
-23.2321
-23.254
-19.1056
-19.2926
-19.4789
-19.6589
-19.8309
-19.9954
-20.1528
-20.3033
-20.4472
-20.5847
-20.716
-20.8412
-20.9605
-21.0739
-21.1815
-21.2833
-21.3792
-21.4693
-21.5537
-21.6322
-21.7049
-21.7718
-21.8329
-21.8882
-21.9376
-21.9812
-22.019
-22.051
-22.0772
-22.0977
-18.1099
-18.295
-18.481
-18.6589
-18.8275
-18.9881
-19.1414
-19.2877
-19.4273
-19.5606
-19.6879
-19.8093
-19.9249
-20.0348
-20.139
-20.2376
-20.3304
-20.4177
-20.4992
-20.5751
-20.6453
-20.7098
-20.7687
-20.8218
-20.8693
-20.9111
-20.9472
-20.9776
-21.0024
-21.0215
-17.1802
-17.3662
-17.5535
-17.7295
-17.8947
-18.0515
-18.2007
-18.3427
-18.4782
-18.6075
-18.7309
-18.8487
-18.9608
-19.0673
-19.1683
-19.2638
-19.3538
-19.4382
-19.5172
-19.5905
-19.6584
-19.7207
-19.7774
-19.8286
-19.8742
-19.9143
-19.9488
-19.9777
-20.0011
-20.0191
-16.3053
-16.4992
-16.6913
-16.8653
-17.0268
-17.1796
-17.3246
-17.4625
-17.5939
-17.7193
-17.8391
-17.9534
-18.0622
-18.1655
-18.2635
-18.3561
-18.4434
-18.5252
-18.6016
-18.6727
-18.7383
-18.7985
-18.8533
-18.9026
-18.9465
-18.985
-19.018
-19.0455
-19.0677
-19.0844
-15.4645
-15.6762
-15.88
-16.053
-16.2107
-16.3598
-16.501
-16.635
-16.7628
-16.8848
-17.0015
-17.1127
-17.2187
-17.3194
-17.4149
-17.5051
-17.5901
-17.6698
-17.7442
-17.8133
-17.8772
-17.9357
-17.9889
-18.0368
-18.0794
-18.1166
-18.1484
-18.1749
-18.1961
-18.212
-14.6582
-14.8888
-15.1101
-15.2859
-15.4408
-15.5862
-15.7238
-15.8544
-15.9789
-16.0981
-16.212
-16.3208
-16.4244
-16.523
-16.6163
-16.7046
-16.7878
-16.8658
-16.9386
-17.0063
-17.0688
-17.1261
-17.1782
-17.225
-17.2666
-17.303
-17.3342
-17.3601
-17.3807
-17.3962
-14.027
-14.2647
-14.4757
-14.6512
-14.8003
-14.9367
-15.0664
-15.1901
-15.3081
-15.4209
-15.5289
-15.6318
-15.7299
-15.823
-15.9111
-15.9944
-16.0726
-16.1459
-16.2143
-16.2776
-16.336
-16.3894
-16.4378
-16.4812
-16.5195
-16.5528
-16.5811
-16.6044
-16.6227
-16.6359
-8.49555
-9.09215
-9.73576
-10.4267
-11.1689
-11.967
-12.8254
-13.749
-14.7431
-15.814
-16.9683
-18.2138
-19.559
-21.0139
-22.5894
-24.2986
-26.1561
-28.1793
-30.3883
-32.8069
-35.4631
-38.3902
-41.627
-45.219
-49.2205
-53.696
-58.6804
-64.1583
-70.6894
-79.2378
-8.68118
-9.28245
-9.92853
-10.6225
-11.3684
-12.1704
-13.0329
-13.9609
-14.9599
-16.036
-17.196
-18.4477
-19.7996
-21.2618
-22.8453
-24.5632
-26.4303
-28.464
-30.6846
-33.116
-35.7863
-38.7289
-41.9828
-45.5933
-49.6145
-54.1109
-59.1162
-64.6119
-71.1514
-79.6925
-8.86823
-9.47411
-10.1227
-10.8199
-11.5695
-12.3754
-13.2421
-14.1747
-15.1786
-16.26
-17.4259
-18.6838
-20.0426
-21.5122
-23.1039
-24.8306
-26.7074
-28.7519
-30.9842
-33.4286
-36.1132
-39.0715
-42.3426
-45.9716
-50.0125
-54.529
-59.554
-65.0656
-71.6092
-80.1351
-9.05639
-9.66683
-10.318
-11.0184
-11.7718
-12.5817
-13.4527
-14.3899
-15.3988
-16.4857
-17.6573
-18.9216
-20.2874
-21.7645
-23.3643
-25.1
-26.9867
-29.0419
-31.2861
-33.7436
-36.4425
-39.4166
-42.7048
-46.3523
-50.4126
-54.9489
-59.9929
-65.5209
-72.0732
-80.594
-9.24547
-9.86043
-10.5142
-11.218
-11.9751
-12.7891
-13.6645
-14.6064
-15.6203
-16.7126
-17.8902
-19.161
-20.5337
-22.0183
-23.6265
-25.3712
-27.2678
-29.3338
-31.5899
-34.0604
-36.7738
-39.7636
-43.0689
-46.7348
-50.8145
-55.3705
-60.4335
-65.9788
-72.5435
-81.0663
-9.43533
-10.0547
-10.7111
-11.4183
-12.1794
-12.9975
-13.8773
-14.8239
-15.843
-16.9408
-18.1244
-19.4016
-20.7813
-22.2737
-23.8901
-25.644
-27.5505
-29.6274
-31.8955
-34.3792
-37.107
-40.1125
-43.4349
-47.1192
-51.2183
-55.7941
-60.8764
-66.4393
-73.0175
-81.5454
-9.62579
-10.2496
-10.9086
-11.6193
-12.3844
-13.2067
-14.091
-15.0424
-16.0667
-17.1701
-18.3597
-19.6435
-21.0303
-22.5303
-24.1552
-25.9182
-27.8347
-29.9226
-32.2028
-34.6996
-37.4419
-40.4632
-43.8028
-47.5055
-51.6241
-56.2198
-61.3215
-66.902
-73.4941
-82.0286
-9.8167
-10.4448
-11.1066
-11.8208
-12.5899
-13.4165
-14.3053
-15.2616
-16.2911
-17.4002
-18.5959
-19.8863
-21.2802
-22.7881
-24.4214
-26.1936
-28.1202
-30.2191
-32.5114
-35.0215
-37.7783
-40.8155
-44.1724
-47.8936
-52.0316
-56.6473
-61.7685
-67.3667
-73.973
-82.5151
-10.0079
-10.6403
-11.3047
-12.0227
-12.7959
-13.6268
-14.5202
-15.4814
-16.5162
-17.631
-18.8329
-20.1299
-21.5311
-23.0467
-24.6885
-26.47
-28.4068
-30.5168
-32.8212
-35.3447
-38.116
-41.1692
-44.5433
-48.2831
-52.4407
-57.0763
-62.2171
-67.8332
-74.4538
-83.0044
-10.1993
-10.8358
-11.503
-12.2247
-13.0021
-13.8374
-14.7355
-15.7017
-16.7418
-17.8623
-19.0704
-20.3741
-21.7826
-23.3061
-24.9565
-26.7473
-28.6942
-30.8154
-33.132
-35.6688
-38.4549
-41.524
-44.9154
-48.6738
-52.8509
-57.5066
-62.667
-68.301
-74.9361
-83.4956
-10.3907
-11.0312
-11.7012
-12.4267
-13.2084
-14.0482
-14.951
-15.9222
-16.9677
-18.094
-19.3084
-20.6188
-22.0345
-23.566
-25.225
-27.0252
-28.9823
-31.1147
-33.4435
-35.9938
-38.7945
-41.8797
-45.2885
-49.0654
-53.2621
-57.9379
-63.1179
-68.7698
-75.4195
-83.988
-10.582
-11.2265
-11.8993
-12.6287
-13.4147
-14.259
-15.1666
-16.1429
-17.1938
-18.326
-19.5466
-20.8638
-22.2869
-23.8262
-25.4939
-27.3035
-29.2709
-31.4145
-33.7556
-36.3193
-39.1347
-42.2359
-45.6621
-49.4577
-53.674
-58.3697
-63.5693
-69.239
-75.9033
-84.481
-10.7732
-11.4215
-12.0971
-12.8305
-13.6209
-14.4698
-15.3821
-16.3636
-17.42
-18.558
-19.7849
-21.109
-22.5394
-24.0867
-25.763
-27.582
-29.5597
-31.7145
-34.068
-36.6452
-39.4753
-42.5926
-46.0361
-49.8503
-54.0862
-58.8019
-64.021
-69.7084
-76.387
-84.9738
-10.9641
-11.6161
-12.2946
-13.0321
-13.827
-14.6804
-15.5976
-16.5842
-17.6461
-18.79
-20.0232
-21.3541
-22.7919
-24.3472
-26.0321
-27.8606
-29.8486
-32.0146
-34.3804
-36.9711
-39.816
-42.9493
-46.4102
-50.243
-54.4983
-59.2339
-64.4724
-70.1775
-76.8703
-85.4662
-11.1547
-11.8103
-12.4917
-13.2333
-14.0327
-14.8908
-15.8129
-16.8046
-17.872
-19.0218
-20.2614
-21.599
-23.0442
-24.6075
-26.3011
-28.139
-30.1372
-32.3146
-34.6927
-37.2968
-40.1565
-43.3058
-46.7841
-50.6354
-54.9102
-59.6656
-64.9233
-70.6458
-77.3527
-85.9574
-11.345
-12.0041
-12.6883
-13.4341
-14.2381
-15.1009
-16.0278
-17.0247
-18.0977
-19.2534
-20.4993
-21.8437
-23.2962
-24.8674
-26.5697
-28.417
-30.4255
-32.6141
-35.0045
-37.6221
-40.4965
-43.6619
-47.1575
-51.0272
-55.3214
-60.0964
-65.3733
-71.113
-77.8338
-86.4472
-11.5351
-12.1975
-12.8845
-13.6346
-14.4432
-15.3107
-16.2425
-17.2445
-18.323
-19.4845
-20.7367
-22.0879
-23.5477
-25.1268
-26.8377
-28.6944
-30.7132
-32.913
-35.3157
-37.9467
-40.8358
-44.0172
-47.53
-51.4181
-55.7315
-60.5261
-65.8219
-71.5787
-78.3131
-86.935
-11.725
-12.3905
-13.0804
-13.8347
-14.6479
-15.52
-16.4567
-17.4639
-18.5478
-19.7151
-20.9735
-22.3314
-23.7985
-25.3855
-27.1049
-28.971
-31
-33.211
-35.6259
-38.2703
-41.174
-44.3713
-47.9014
-51.8078
-56.1403
-60.9543
-66.2689
-72.0425
-78.7902
-87.4205
-11.9148
-12.5833
-13.2759
-14.0345
-14.8523
-15.729
-16.6705
-17.6827
-18.7719
-19.945
-21.2096
-22.5741
-24.0484
-25.6432
-27.3712
-29.2465
-31.2857
-33.5078
-35.9349
-38.5927
-41.511
-44.7241
-48.2713
-52.1959
-56.5475
-61.3807
-66.7138
-72.504
-79.2648
-87.9032
-12.1049
-12.7761
-13.4713
-14.2341
-15.0563
-15.9376
-16.8837
-17.9009
-18.9954
-20.1741
-21.4448
-22.8159
-24.2972
-25.8998
-27.6362
-29.5207
-31.57
-33.8031
-36.2424
-38.9134
-41.8462
-45.0752
-48.6393
-52.5821
-56.9525
-61.8048
-67.1563
-72.9629
-79.7366
-88.3829