/*--------------------------------*- C++ -*----------------------------------*\
  =========                 |
  \\      /  F ield         | OpenFOAM: The Open Source CFD Toolbox
   \\    /   O peration     | Website:  https://openfoam.org
    \\  /    A nd           | Version:  6.0
     \\/     M anipulation  |
\*---------------------------------------------------------------------------*/
FoamFile
{
    version     2.0;
    format      ascii;
    class       volScalarField;
    location    "6.755";
    object      p;
}
// * * * * * * * * * * * * * * * * * * * * * * * * * * * * * * * * * * * * * //

dimensions      [0 2 -2 0 0 0 0];

internalField   nonuniform List<scalar> 
2400
(
-0.410124
-0.397041
-0.38885
-0.382198
-0.375594
-0.369055
-0.362677
-0.356444
-0.350447
-0.345815
-0.422944
-0.408895
-0.399644
-0.391771
-0.38385
-0.376
-0.368388
-0.361006
-0.353952
-0.34881
-0.439869
-0.42426
-0.413475
-0.403975
-0.394367
-0.384864
-0.375697
-0.366854
-0.358437
-0.352695
-0.461154
-0.443387
-0.430571
-0.419022
-0.407341
-0.395827
-0.384764
-0.374111
-0.363968
-0.357486
-0.487118
-0.466524
-0.451148
-0.437117
-0.422977
-0.409094
-0.395782
-0.382934
-0.370625
-0.36317
-0.518059
-0.493898
-0.475413
-0.458475
-0.441513
-0.424927
-0.409025
-0.393573
-0.378563
-0.369746
-0.554219
-0.525689
-0.503546
-0.48331
-0.463211
-0.443651
-0.424886
-0.406471
-0.388159
-0.377321
-0.595721
-0.561991
-0.535667
-0.511793
-0.488299
-0.465539
-0.443678
-0.421938
-0.399469
-0.38533
-0.642482
-0.602758
-0.571815
-0.54407
-0.517026
-0.490908
-0.46562
-0.439665
-0.410827
-0.390189
-0.693941
-0.647686
-0.611899
-0.580308
-0.550002
-0.521143
-0.49334
-0.464242
-0.429944
-0.400934
-1.17225
-1.15506
-1.12524
-1.08515
-1.03703
-0.983122
-0.925521
-0.866143
-0.806669
-0.74868
-1.07517
-1.05971
-1.03277
-0.996511
-0.953068
-0.904542
-0.852908
-0.799947
-0.747217
-0.696071
-0.991847
-0.980195
-0.95752
-0.925828
-0.887174
-0.84359
-0.796997
-0.749138
-0.701533
-0.655444
-0.913483
-0.906822
-0.889387
-0.862977
-0.829505
-0.790907
-0.749049
-0.705659
-0.662274
-0.620153
-0.836824
-0.835422
-0.823601
-0.802889
-0.774985
-0.741647
-0.704616
-0.665545
-0.625967
-0.587143
-0.764157
-0.767657
-0.761275
-0.746257
-0.724034
-0.696122
-0.664039
-0.629244
-0.593165
-0.55698
-0.69697
-0.704656
-0.703166
-0.693493
-0.676812
-0.654364
-0.627368
-0.596935
-0.564192
-0.530028
-0.63573
-0.646818
-0.649536
-0.644696
-0.633276
-0.616287
-0.594641
-0.568943
-0.539607
-0.506456
-0.580276
-0.594112
-0.600447
-0.600007
-0.593677
-0.582374
-0.566847
-0.547221
-0.522655
-0.489424
-0.530594
-0.545803
-0.554504
-0.557399
-0.555392
-0.5495
-0.540683
-0.529337
-0.514597
-0.489745
-0.458848
-0.593829
-0.71917
-0.832637
-0.931961
-1.01534
-1.08156
-1.12999
-1.16064
-1.1742
-0.409241
-0.535046
-0.652068
-0.758008
-0.850732
-0.928558
-0.990355
-1.03557
-1.06425
-1.07701
-0.342395
-0.460842
-0.571863
-0.673126
-0.762529
-0.838387
-0.899506
-0.945231
-0.975458
-0.990635
-0.272789
-0.383785
-0.488874
-0.585753
-0.672353
-0.746985
-0.808386
-0.855768
-0.888838
-0.907807
-0.209095
-0.312176
-0.410789
-0.502659
-0.58578
-0.658524
-0.719625
-0.768215
-0.803857
-0.826551
-0.154675
-0.24998
-0.342049
-0.428561
-0.507627
-0.57775
-0.637724
-0.686672
-0.724083
-0.749812
-0.109587
-0.197711
-0.283644
-0.364823
-0.439563
-0.506567
-0.564732
-0.613223
-0.651514
-0.679382
-0.0721106
-0.15333
-0.233783
-0.310027
-0.380581
-0.444377
-0.500424
-0.547953
-0.586463
-0.615705
-0.0410785
-0.115222
-0.190772
-0.26261
-0.32932
-0.390027
-0.443855
-0.490131
-0.528409
-0.558453
-0.0238698
-0.0932889
-0.164017
-0.230621
-0.292398
-0.34877
-0.398993
-0.44254
-0.479079
-0.508427
0.521448
0.542434
0.564848
0.587821
0.610862
0.633302
0.654157
0.67283
0.69474
0.733755
0.494688
0.512877
0.532755
0.552767
0.572228
0.5904
0.606221
0.619133
0.634908
0.668608
0.460429
0.474847
0.491372
0.507504
0.52231
0.535009
0.544513
0.550402
0.558881
0.586072
0.418976
0.428763
0.441203
0.452609
0.461772
0.467903
0.469933
0.467679
0.46783
0.487392
0.370727
0.375179
0.382923
0.388862
0.391519
0.390134
0.383711
0.372396
0.363393
0.374383
0.316154
0.314774
0.317373
0.317243
0.312689
0.303033
0.2874
0.266355
0.247615
0.249282
0.255823
0.24836
0.245567
0.238931
0.226649
0.208187
0.182848
0.151684
0.122893
0.114693
0.190474
0.176958
0.168742
0.155323
0.134984
0.107424
0.072163
0.0307934
-0.00807991
-0.0264678
0.120933
0.102115
0.0886489
0.0681724
0.0395562
0.00281258
-0.0423199
-0.0936798
-0.142383
-0.171052
0.0457044
0.0244699
0.00621458
-0.0212935
-0.0579202
-0.103542
-0.158162
-0.218981
-0.277028
-0.315985
0.374647
0.378116
0.388703
0.397105
0.40372
0.410275
0.41837
0.430401
0.449361
0.472524
0.423469
0.428261
0.440126
0.451646
0.462198
0.472961
0.485187
0.500935
0.523798
0.55327
0.462683
0.471233
0.485644
0.500635
0.515261
0.530257
0.546565
0.565897
0.592298
0.627349
0.495014
0.507631
0.524905
0.54319
0.561593
0.580529
0.600623
0.623198
0.652602
0.69234
0.520708
0.537014
0.556979
0.578186
0.599889
0.622257
0.645601
0.670845
0.702529
0.745946
0.539492
0.558875
0.581098
0.604675
0.629018
0.654096
0.679927
0.707041
0.740103
0.786075
0.551098
0.572774
0.596641
0.621876
0.648033
0.674909
0.702252
0.730233
0.763613
0.810914
0.555263
0.578316
0.60309
0.629157
0.656169
0.683774
0.711482
0.739158
0.771663
0.818997
0.551772
0.575197
0.600059
0.626053
0.652863
0.680012
0.706807
0.732876
0.763223
0.809259
0.540504
0.563244
0.587323
0.612291
0.637783
0.663219
0.687738
0.710816
0.737652
0.780999
0.329266
0.284029
0.232399
0.180183
0.128387
0.0777689
0.0291644
-0.0169014
-0.0601025
-0.100231
0.333929
0.285859
0.232383
0.177299
0.122619
0.0693996
0.0184855
-0.0294846
-0.0740708
-0.115
0.337568
0.283745
0.226623
0.168652
0.111548
0.0563699
0.00400455
-0.0448461
-0.0897023
-0.130288
0.340312
0.281387
0.220557
0.159588
0.100007
0.0429392
-0.0106814
-0.0601395
-0.10497
-0.144946
0.342225
0.278825
0.214367
0.150411
0.0884441
0.029663
-0.0249809
-0.0747985
-0.119381
-0.158593
0.344264
0.276614
0.2086
0.141779
0.0776323
0.0173719
-0.0380761
-0.0880877
-0.132347
-0.17084
0.348091
0.276496
0.205137
0.135625
0.069441
0.00777145
-0.0485161
-0.0988868
-0.14313
-0.181352
0.356286
0.281115
0.206586
0.134376
0.0659635
0.0025068
-0.0551836
-0.106644
-0.151737
-0.190649
0.371076
0.291699
0.213069
0.136947
0.0648522
-0.00203166
-0.0628745
-0.1172
-0.164864
-0.206046
0.387659
0.301174
0.215358
0.132128
0.0531299
-0.0202992
-0.087174
-0.146886
-0.199207
-0.244236
-0.137242
-0.171187
-0.202297
-0.230905
-0.257401
-0.282186
-0.305539
-0.327433
-0.348314
-0.359017
-0.152211
-0.18572
-0.21576
-0.242655
-0.266774
-0.288462
-0.307885
-0.324819
-0.338855
-0.343298
-0.16658
-0.198621
-0.226716
-0.251268
-0.272723
-0.291513
-0.307916
-0.321953
-0.333544
-0.339379
-0.180138
-0.210659
-0.236939
-0.259492
-0.278876
-0.29563
-0.310172
-0.322727
-0.333312
-0.340055
-0.192638
-0.221717
-0.246401
-0.267321
-0.285131
-0.300452
-0.313786
-0.325434
-0.33538
-0.342448
-0.20392
-0.231865
-0.255377
-0.275172
-0.291956
-0.306382
-0.318965
-0.330001
-0.339444
-0.346564
-0.214041
-0.24151
-0.26455
-0.28391
-0.3003
-0.314348
-0.326531
-0.337106
-0.346022
-0.352849
-0.223945
-0.251918
-0.275393
-0.295104
-0.311723
-0.325828
-0.33784
-0.347977
-0.356217
-0.362344
-0.241275
-0.270867
-0.295614
-0.316232
-0.333375
-0.347588
-0.359258
-0.368587
-0.37561
-0.380256
-0.282238
-0.313921
-0.33994
-0.361079
-0.378075
-0.391523
-0.401818
-0.409168
-0.413672
-0.415315
-0.413895
-0.382602
-0.366339
-0.357339
-0.350701
-0.345055
-0.339194
-0.33053
-0.315137
-0.301192
-0.411023
-0.383156
-0.368549
-0.360238
-0.353814
-0.348063
-0.342092
-0.334146
-0.322007
-0.313803
-0.407022
-0.382437
-0.369473
-0.361961
-0.35603
-0.350681
-0.34528
-0.338752
-0.330207
-0.325937
-0.402528
-0.380976
-0.369556
-0.362822
-0.357403
-0.352479
-0.347568
-0.341946
-0.335252
-0.332173
-0.398239
-0.379355
-0.369305
-0.363262
-0.358303
-0.353766
-0.349295
-0.344399
-0.338916
-0.336137
-0.394809
-0.378157
-0.369241
-0.363739
-0.359107
-0.354823
-0.350628
-0.346189
-0.341442
-0.33861
-0.39285
-0.377948
-0.369879
-0.364708
-0.360209
-0.355977
-0.351833
-0.347556
-0.343139
-0.340072
-0.392948
-0.379268
-0.371717
-0.366627
-0.362023
-0.357612
-0.353283
-0.348895
-0.344484
-0.341091
-0.395643
-0.382615
-0.375216
-0.369924
-0.364952
-0.360111
-0.355356
-0.350606
-0.345922
-0.342156
-0.401336
-0.388414
-0.380793
-0.374991
-0.369364
-0.363823
-0.358393
-0.353031
-0.34782
-0.343643
-0.337304
-0.28379
-0.253236
-0.211192
-0.17581
-0.138212
-0.102658
-0.070051
-0.0434809
-0.0238198
-0.010692
-0.00275465
0.00131168
0.00269416
0.00252029
0.00177937
0.00104891
0.00057491
0.000240688
0.000180262
-0.342254
-0.286008
-0.256891
-0.215855
-0.180821
-0.142753
-0.106054
-0.072145
-0.0444567
-0.0240548
-0.0105829
-0.00260273
0.00136791
0.00265438
0.00243884
0.00169977
0.000988402
0.00053594
0.000218663
0.000180631
-0.349299
-0.288961
-0.261006
-0.220771
-0.185906
-0.147382
-0.109625
-0.0745332
-0.045795
-0.0246477
-0.010766
-0.00265239
0.00130355
0.00254935
0.00232413
0.00160388
0.000920219
0.000493433
0.00019526
0.000179927
-0.358286
-0.292632
-0.265425
-0.225806
-0.190953
-0.152026
-0.113335
-0.077196
-0.0474831
-0.0255897
-0.0112371
-0.00290268
0.00111874
0.00237959
0.00217688
0.00149219
0.000844625
0.000447485
0.000170518
0.000178068
-0.368982
-0.297055
-0.270006
-0.230849
-0.195878
-0.156629
-0.11715
-0.0801074
-0.0494962
-0.0268593
-0.0119813
-0.00334562
0.000817223
0.00214709
0.00199822
0.00136526
0.0007618
0.000398148
0.000144437
0.000174972
-0.381018
-0.30231
-0.27463
-0.235797
-0.200608
-0.161135
-0.12103
-0.0832269
-0.0517948
-0.0284216
-0.0129729
-0.00396582
0.000407085
0.00185598
0.00179023
0.00122408
0.000672103
0.000345547
0.000117053
0.000170581
-0.394006
-0.308685
-0.279317
-0.240616
-0.205129
-0.165539
-0.124979
-0.086559
-0.054378
-0.0302707
-0.0142053
-0.00475843
-0.000109014
0.00150784
0.00155407
0.00106945
0.000576041
0.000289955
8.84695e-05
0.000164884
-0.407653
-0.317047
-0.284522
-0.245553
-0.209649
-0.170047
-0.129207
-0.0902934
-0.0573973
-0.0325147
-0.0157503
-0.00576977
-0.000759611
0.00108701
0.00128269
0.000899145
0.000473451
0.000231736
5.89468e-05
0.000157976
-0.419476
-0.327671
-0.290722
-0.250979
-0.21446
-0.174875
-0.133861
-0.094512
-0.0608861
-0.0351608
-0.0176099
-0.00700812
-0.00155865
0.000579799
0.000966664
0.000708169
0.000362164
0.000170111
2.82657e-05
0.000149718
-0.41861
-0.335338
-0.295774
-0.255562
-0.21842
-0.178752
-0.1375
-0.0977532
-0.0635417
-0.0371741
-0.0190392
-0.00798523
-0.00221894
0.000133572
0.000668408
0.000515468
0.000243187
0.00010164
-6.02319e-06
0.000138684
-0.394257
-0.334878
-0.297445
-0.258256
-0.221023
-0.181296
-0.139633
-0.0993866
-0.06466
-0.0378432
-0.0193573
-0.00809725
-0.0022774
3.18044e-05
0.00051024
0.000341268
9.33738e-05
-2.09077e-06
-6.18342e-05
0.000117792
-0.379684
-0.330823
-0.292836
-0.254638
-0.21803
-0.179542
-0.139268
-0.100334
-0.0665073
-0.0400781
-0.0215325
-0.00994329
-0.00369426
-0.000974268
-0.000160703
-8.23853e-05
-0.000160522
-0.000144706
-0.000130783
9.48244e-05
-0.361186
-0.319203
-0.281328
-0.245565
-0.211094
-0.174962
-0.137146
-0.100438
-0.0682074
-0.0426108
-0.024221
-0.0123378
-0.00557787
-0.00231418
-0.00103733
-0.000618448
-0.000470426
-0.000314016
-0.000210999
6.77184e-05
-0.330631
-0.298725
-0.264062
-0.232248
-0.201356
-0.168602
-0.134022
-0.100114
-0.0698837
-0.0453592
-0.0272274
-0.015055
-0.00773555
-0.00386062
-0.00205641
-0.00124673
-0.00083676
-0.000515825
-0.000306625
3.39592e-05
-0.289845
-0.270388
-0.242419
-0.215648
-0.18924
-0.160696
-0.130023
-0.0994128
-0.0715398
-0.0483189
-0.0305612
-0.0181203
-0.0102
-0.00564368
-0.0032392
-0.00197908
-0.00126475
-0.000752027
-0.000418233
-6.48833e-06
-0.246032
-0.237672
-0.218328
-0.197375
-0.175769
-0.151812
-0.125421
-0.0984001
-0.0731072
-0.0513614
-0.0340959
-0.0214401
-0.0129148
-0.00763491
-0.00457304
-0.00280964
-0.00175101
-0.0010205
-0.000544846
-5.30057e-05
-0.205812
-0.20502
-0.194034
-0.179173
-0.162281
-0.142756
-0.120585
-0.0971529
-0.0744744
-0.0542732
-0.0375927
-0.0248045
-0.0157225
-0.00973059
-0.00599713
-0.00370566
-0.00227874
-0.00131281
-0.000682873
-0.000104031
-0.172853
-0.176308
-0.171884
-0.162594
-0.15001
-0.134365
-0.115922
-0.0957557
-0.075518
-0.0568082
-0.040755
-0.0279291
-0.0183901
-0.0117623
-0.00740234
-0.00460241
-0.00281195
-0.00160982
-0.000823618
-0.000156168
-0.148976
-0.154425
-0.154292
-0.149272
-0.140166
-0.127548
-0.111986
-0.0944151
-0.0761834
-0.0587401
-0.0432623
-0.0304709
-0.0206091
-0.0134871
-0.00861714
-0.00538963
-0.00328525
-0.00187534
-0.000949853
-0.000203133
-0.135594
-0.141778
-0.143805
-0.141217
-0.134217
-0.123409
-0.109541
-0.0935202
-0.0765193
-0.0598713
-0.0447693
-0.0320238
-0.0219854
-0.0145726
-0.00939185
-0.00589745
-0.003593
-0.00204912
-0.00103203
-0.00023409
-0.460253
-0.472915
-0.480235
-0.48273
-0.481247
-0.477067
-0.47206
-0.468869
-0.472554
-0.495161
-0.379688
-0.393126
-0.403629
-0.411708
-0.418055
-0.423508
-0.428957
-0.435128
-0.442061
-0.455322
-0.31367
-0.32672
-0.338266
-0.348505
-0.357591
-0.365608
-0.372575
-0.37863
-0.383766
-0.393738
-0.257566
-0.269117
-0.279643
-0.289197
-0.297838
-0.305671
-0.312872
-0.319763
-0.326383
-0.335176
-0.210759
-0.22072
-0.230019
-0.2387
-0.246817
-0.254435
-0.26161
-0.268401
-0.274738
-0.281322
-0.172704
-0.181186
-0.189203
-0.196766
-0.203888
-0.21058
-0.21686
-0.222752
-0.228274
-0.233523
-0.142503
-0.149647
-0.156435
-0.162863
-0.168931
-0.174645
-0.180013
-0.185045
-0.189747
-0.194082
-0.119627
-0.125688
-0.131459
-0.136929
-0.142094
-0.14695
-0.151497
-0.155737
-0.159672
-0.163284
-0.103685
-0.108948
-0.113962
-0.118714
-0.123197
-0.127404
-0.131332
-0.13498
-0.138349
-0.141439
-0.0950098
-0.0997736
-0.104314
-0.10862
-0.112685
-0.116504
-0.120072
-0.12339
-0.126456
-0.129273
-0.0354607
-0.0997391
-0.162465
-0.217201
-0.267038
-0.31257
-0.353135
-0.388333
-0.417986
-0.441975
-0.0525041
-0.102163
-0.149593
-0.190021
-0.226624
-0.260649
-0.291579
-0.318978
-0.342763
-0.36297
-0.0627581
-0.102416
-0.137336
-0.167003
-0.194017
-0.219281
-0.242521
-0.263492
-0.282236
-0.298906
-0.0669378
-0.0976754
-0.122326
-0.143358
-0.163173
-0.182093
-0.199798
-0.216134
-0.231148
-0.244933
-0.0656204
-0.088353
-0.105686
-0.120743
-0.13549
-0.14993
-0.163678
-0.176599
-0.188725
-0.200103
-0.0602094
-0.0765583
-0.0891607
-0.10049
-0.111845
-0.123135
-0.134034
-0.144428
-0.154328
-0.163752
-0.053301
-0.065128
-0.0747429
-0.0837033
-0.0927376
-0.101757
-0.110548
-0.119025
-0.12718
-0.13501
-0.0467525
-0.0556065
-0.0633142
-0.0707013
-0.0781293
-0.0855373
-0.092801
-0.0998601
-0.106695
-0.11329
-0.0415875
-0.0486487
-0.0551919
-0.0615689
-0.0679407
-0.0742742
-0.0805006
-0.0865773
-0.0924804
-0.0981899
-0.0385395
-0.0447978
-0.0508309
-0.0567334
-0.0625741
-0.0683409
-0.0739966
-0.079511
-0.0848629
-0.0900347
0.199643
0.200599
0.202998
0.206261
0.210717
0.213967
0.216387
0.206377
0.182395
0.0765802
0.191401
0.191913
0.19326
0.194796
0.196431
0.195636
0.191621
0.173354
0.136364
0.0371791
0.181572
0.181619
0.181835
0.181522
0.180268
0.175595
0.166028
0.142633
0.10092
0.018961
0.170031
0.169569
0.168574
0.166349
0.162224
0.154058
0.139936
0.114017
0.0713367
0.00298593
0.156833
0.155858
0.153679
0.149654
0.142975
0.132034
0.114788
0.0881438
0.0470285
-0.010414
0.14229
0.14085
0.137636
0.132105
0.123464
0.110658
0.0918853
0.0658607
0.0285491
-0.0188547
0.127082
0.125272
0.121281
0.114676
0.104818
0.0910997
0.0722378
0.0479044
0.0156434
-0.0227595
0.112362
0.110311
0.105855
0.0986661
0.0883199
0.0745267
0.0565735
0.0345331
0.00726975
-0.0238041
0.0998485
0.0976843
0.0930489
0.0856963
0.0753932
0.0620478
0.0453769
0.0255739
0.0022923
-0.0235061
0.0919448
0.0897516
0.0851013
0.0777949
0.0677113
0.0548554
0.0391649
0.0208531
-8.05664e-05
-0.0229427
0.234976
0.237044
0.242621
0.251307
0.264904
0.282962
0.309996
0.34488
0.397317
0.464596
0.232485
0.234481
0.23987
0.248233
0.261341
0.278595
0.304418
0.337208
0.386018
0.447179
0.229764
0.231683
0.236865
0.244867
0.257417
0.273729
0.298128
0.328288
0.372594
0.425486
0.226825
0.228664
0.233621
0.241228
0.253157
0.268397
0.291172
0.318172
0.357186
0.399626
0.223681
0.225439
0.230156
0.237338
0.248584
0.262638
0.283595
0.306925
0.339966
0.369699
0.220346
0.222026
0.22649
0.23322
0.243726
0.256489
0.275441
0.294624
0.321114
0.335771
0.216839
0.218447
0.222651
0.228915
0.238629
0.250024
0.26679
0.281406
0.300858
0.297923
0.213177
0.214729
0.218684
0.224489
0.233396
0.243396
0.257839
0.267555
0.279512
0.256152
0.209375
0.210884
0.214596
0.219946
0.228018
0.236602
0.248554
0.253072
0.256868
0.209333
0.205421
0.206815
0.210156
0.214874
0.221813
0.228636
0.237433
0.236312
0.230514
0.155785
0.246252
0.248678
0.254742
0.264348
0.27878
0.297549
0.323796
0.352296
0.390019
0.400182
0.246214
0.248652
0.254834
0.264604
0.279423
0.298832
0.326567
0.35798
0.401741
0.428379
0.245944
0.248358
0.254552
0.264317
0.279218
0.298822
0.327229
0.360533
0.408326
0.448533
0.245444
0.247834
0.254028
0.263779
0.278739
0.298521
0.327487
0.362489
0.413749
0.464838
0.244704
0.247069
0.253252
0.262974
0.277961
0.297878
0.327273
0.363699
0.417801
0.477466
0.243717
0.24605
0.252198
0.261855
0.276801
0.296745
0.326344
0.363764
0.419901
0.486029
0.242476
0.244771
0.250857
0.260407
0.275234
0.295078
0.324639
0.362574
0.419874
0.490406
0.24098
0.243229
0.249226
0.258626
0.273258
0.292868
0.322153
0.360106
0.417651
0.49052
0.23923
0.241425
0.247307
0.256513
0.270874
0.290111
0.318881
0.356341
0.413167
0.486286
0.237227
0.239362
0.245103
0.254071
0.268086
0.286807
0.314825
0.351264
0.406386
0.477647
0.20108
0.199677
0.196693
0.191945
0.18523
0.176337
0.16498
0.150996
0.134089
0.114437
0.206016
0.204802
0.202188
0.197946
0.191784
0.183374
0.172261
0.158123
0.140393
0.119164
0.213408
0.212536
0.210615
0.207361
0.202361
0.195084
0.184797
0.170816
0.152075
0.12837
0.221403
0.221
0.220063
0.218268
0.215111
0.209805
0.201313
0.188317
0.169073
0.142539
0.228803
0.228946
0.229203
0.22924
0.228543
0.226077
0.220605
0.209863
0.191413
0.16228
0.234962
0.23567
0.237208
0.239278
0.241468
0.242561
0.241357
0.234389
0.218831
0.188047
0.239651
0.24089
0.243681
0.247793
0.253036
0.258135
0.262228
0.260558
0.25047
0.219637
0.242914
0.244612
0.248538
0.254544
0.262747
0.271979
0.282001
0.28701
0.284881
0.255396
0.244938
0.247002
0.251889
0.25952
0.270367
0.28351
0.299556
0.312382
0.320594
0.293554
0.245979
0.248294
0.253916
0.262795
0.275797
0.292282
0.313992
0.335276
0.357568
0.340498
0.100302
0.0943645
0.0882968
0.0821954
0.0760448
0.0698375
0.0635908
0.0573304
0.0510802
0.0448616
0.103412
0.0967564
0.0899573
0.0831826
0.0763603
0.0694493
0.0624686
0.0554553
0.0484422
0.041457
0.109846
0.101659
0.093219
0.0850016
0.0768382
0.0685877
0.0602525
0.0518863
0.043534
0.0352261
0.120332
0.109771
0.0986653
0.0881775
0.0779833
0.0677338
0.0573863
0.0470217
0.0367043
0.0264645
0.135807
0.121955
0.106932
0.093192
0.0801871
0.0671959
0.0540908
0.0410011
0.0280214
0.0151765
0.157313
0.139219
0.11876
0.100593
0.0838744
0.0672817
0.0505645
0.0339387
0.0175398
0.00137412
0.185847
0.1627
0.135085
0.111139
0.0896198
0.0683501
0.0469838
0.0258859
0.00522502
-0.0150333
0.221471
0.19261
0.156209
0.125264
0.0977177
0.0704503
0.0432564
0.0166952
-0.0090853
-0.0341816
0.264038
0.228449
0.182598
0.144007
0.108927
0.0740479
0.0397084
0.00658003
-0.0251966
-0.055643
0.311933
0.267736
0.213833
0.166337
0.121114
0.0767064
0.033951
-0.00662982
-0.044834
-0.0804904
0.0386945
0.0325984
0.0265911
0.0206893
0.0149083
0.00926152
0.00375985
-0.00158591
-0.00676626
-0.0117726
0.0345252
0.0276721
0.0209213
0.0142952
0.00781375
0.00149466
-0.00464619
-0.0105954
-0.0163423
-0.0218564
0.0269884
0.0188461
0.010824
0.00294468
-0.00477164
-0.0123072
-0.0196466
-0.0267773
-0.0336906
-0.0403079
0.0163227
0.00629946
-0.00358381
-0.0133077
-0.0228562
-0.032216
-0.0413765
-0.0503292
-0.0590761
-0.0674972
0.00247148
-0.010085
-0.0224804
-0.0347037
-0.0467471
-0.0586068
-0.0702836
-0.0817848
-0.0931489
-0.104422
-0.0145807
-0.0303366
-0.045902
-0.061292
-0.0765314
-0.0916493
-0.106675
-0.121623
-0.136563
-0.152181
-0.0349455
-0.0545414
-0.0738418
-0.092877
-0.111701
-0.130404
-0.149123
-0.167991
-0.187381
-0.208927
-0.0586981
-0.0827176
-0.106319
-0.12957
-0.152509
-0.175162
-0.197578
-0.219854
-0.243213
-0.269972
-0.0847938
-0.112736
-0.139658
-0.16585
-0.191674
-0.217531
-0.243788
-0.270778
-0.30064
-0.332733
-0.113478
-0.143778
-0.171561
-0.19723
-0.22145
-0.245159
-0.269469
-0.295882
-0.330051
-0.374362
-0.0235647
-0.0398646
-0.0533531
-0.0630304
-0.0684254
-0.0696715
-0.0673323
-0.0621186
-0.0546394
-0.0454001
-0.0350586
-0.0246369
-0.0153653
-0.00821915
-0.00351899
-0.000946557
0.000175612
0.000437683
0.000355757
-6.73248e-06
-0.0351722
-0.0519949
-0.064551
-0.0724552
-0.0757493
-0.0749399
-0.0708808
-0.06442
-0.0561021
-0.0462518
-0.0353926
-0.0245444
-0.0150063
-0.00778559
-0.00315486
-0.000707333
0.000303416
0.00049521
0.000378854
5.3801e-06
-0.0563661
-0.0735741
-0.083905
-0.088271
-0.0876185
-0.0831489
-0.0762302
-0.067868
-0.058373
-0.0476593
-0.0359958
-0.0244376
-0.0144468
-0.00710046
-0.00258526
-0.000339753
0.000494802
0.000579957
0.000410221
2.62822e-05
-0.086692
-0.10319
-0.109493
-0.108259
-0.101742
-0.0922631
-0.0818149
-0.0714009
-0.0608068
-0.0492634
-0.0366989
-0.0242873
-0.0137559
-0.00627937
-0.00192375
7.21352e-05
0.000699652
0.000666271
0.000438582
5.04747e-05
-0.125002
-0.138885
-0.139308
-0.130211
-0.115979
-0.100527
-0.0863017
-0.0740166
-0.0626322
-0.0504828
-0.0371266
-0.0239247
-0.0129197
-0.00538411
-0.00124321
0.00047508
0.000888329
0.000740304
0.000458581
7.45525e-05
-0.167849
-0.177359
-0.170618
-0.151626
-0.12853
-0.106817
-0.0889278
-0.0750354
-0.0631369
-0.0506485
-0.0367949
-0.0231029
-0.0118724
-0.00443659
-0.000583733
0.000840185
0.00104653
0.000796383
0.000468697
9.65566e-05
-0.209344
-0.214463
-0.199975
-0.170146
-0.138471
-0.111012
-0.0898213
-0.0744769
-0.0621197
-0.0494557
-0.0354576
-0.0217016
-0.0105926
-0.00345726
3.16652e-05
0.0011545
0.00116988
0.000833747
0.000469593
0.000115437
-0.244819
-0.246946
-0.224474
-0.184678
-0.146042
-0.11384
-0.089824
-0.0730493
-0.0600866
-0.0472488
-0.0333468
-0.0198717
-0.00916825
-0.00248651
0.00059346
0.00142251
0.00126586
0.000857718
0.000464493
0.000131307
-0.275854
-0.273419
-0.242909
-0.195509
-0.151952
-0.116097
-0.0897568
-0.0715344
-0.0577667
-0.0446618
-0.0309421
-0.0179161
-0.00775239
-0.00157796
0.00109808
0.00165679
0.00134719
0.000876279
0.000457638
0.000145087
-0.308306
-0.292113
-0.25423
-0.202439
-0.156291
-0.118126
-0.0900029
-0.0701658
-0.0551827
-0.0415556
-0.0280551
-0.0156941
-0.00629092
-0.000751399
0.00148966
0.00180122
0.00137483
0.000869043
0.00044116
0.000154063
-0.336435
-0.296591
-0.256359
-0.204948
-0.159573
-0.121042
-0.0915781
-0.0695078
-0.0523723
-0.0376002
-0.0242561
-0.0129137
-0.00472718
-0.00013663
0.00156791
0.00168139
0.00123663
0.000779929
0.00039443
0.000149037
-0.34974
-0.296724
-0.255068
-0.203195
-0.158401
-0.120062
-0.0904461
-0.0677404
-0.0499557
-0.034935
-0.0218777
-0.0111609
-0.00365377
0.000401451
0.00177513
0.00172835
0.001225
0.000759699
0.000378119
0.000150356
-0.352225
-0.293827
-0.25191
-0.19989
-0.156138
-0.118502
-0.0891969
-0.0662391
-0.0480731
-0.0329096
-0.0200764
-0.00981321
-0.00279278
0.000873551
0.00199468
0.0018103
0.00124316
0.000755972
0.000368788
0.000154403
-0.35004
-0.290575
-0.249362
-0.197835
-0.155288
-0.118218
-0.0888974
-0.0653409
-0.0465353
-0.0310838
-0.018412
-0.00857765
-0.00202436
0.00127793
0.00217174
0.00186912
0.00125031
0.000747581
0.000357888
0.000158635
-0.346342
-0.287673
-0.247573
-0.197015
-0.155744
-0.119038
-0.089355
-0.0648677
-0.0451903
-0.0293282
-0.0167765
-0.00737372
-0.00129881
0.00163831
0.00231402
0.00190554
0.00124527
0.000733524
0.00034492
0.000162713
-0.342129
-0.285195
-0.246436
-0.197164
-0.157185
-0.12069
-0.0903989
-0.0647696
-0.0440788
-0.0277221
-0.0152423
-0.00624533
-0.000632673
0.00195461
0.00242756
0.00192561
0.00123209
0.000715795
0.000330658
0.000166698
-0.338176
-0.283282
-0.246053
-0.198271
-0.159528
-0.12309
-0.0919871
-0.0650646
-0.0432616
-0.0263396
-0.0138717
-0.00523229
-4.54188e-05
0.00222002
0.00251129
0.00192996
0.00121145
0.000694775
0.00031525
0.000170482
-0.33524
-0.282112
-0.246541
-0.200333
-0.162706
-0.126163
-0.0940775
-0.0657571
-0.0427752
-0.0252266
-0.0127029
-0.00435849
0.000451196
0.00242967
0.00256327
0.00191773
0.00118293
0.000670246
0.000298598
0.00017389
-0.3339
-0.281795
-0.247939
-0.203268
-0.166588
-0.129795
-0.0966025
-0.0668334
-0.0426417
-0.0244186
-0.0117669
-0.00364339
0.000848039
0.00258023
0.0025824
0.00188854
0.00114631
0.000642095
0.000280641
0.000176756
-0.334528
-0.282364
-0.250204
-0.206941
-0.171013
-0.133855
-0.0994867
-0.0682726
-0.0428751
-0.0239436
-0.0110901
-0.00310424
0.00113708
0.00266912
0.00256819
0.00184239
0.0011016
0.000610312
0.000261345
0.000178928
)
;

boundaryField
{
    inlet
    {
        type            freestreamPressure;
        freestreamValue uniform 0;
        supersonic      false;
        value           nonuniform List<scalar> 
40
(
0.199643
0.191401
0.181572
0.170031
0.156833
0.14229
0.127082
0.112362
0.0998485
0.0919448
0.234976
0.232485
0.229764
0.226825
0.223681
0.220346
0.216839
0.213177
0.209375
0.205421
0.246252
0.246214
0.245944
0.245444
0.244704
0.243717
0.242476
0.24098
0.23923
0.237227
0.20108
0.206016
0.213408
0.221403
0.228803
0.234962
0.239651
0.242914
0.244938
0.245979
)
;
    }
    outlet
    {
        type            freestreamPressure;
        freestreamValue uniform 0;
        supersonic      false;
        value           nonuniform List<scalar> 
40
(
4.3496e-10
3.04545e-10
1.82787e-10
7.37679e-11
-1.07026e-11
-6.13314e-11
-7.53861e-11
-5.92354e-11
-2.8376e-11
-3.66183e-12
1.18523e-09
1.13478e-09
1.07726e-09
1.01368e-09
9.44969e-10
8.72264e-10
7.96851e-10
7.2042e-10
6.43399e-10
5.60687e-10
1.31125e-09
1.30351e-09
1.31435e-09
1.32188e-09
1.3231e-09
1.3185e-09
1.30746e-09
1.28902e-09
1.26261e-09
1.22799e-09
-1.34111e-12
8.24754e-12
8.93301e-11
2.63074e-10
4.98375e-10
7.47144e-10
9.70214e-10
1.15117e-09
1.29371e-09
1.37405e-09
)
;
    }
    top
    {
        type            symmetryPlane;
    }
    bottom
    {
        type            symmetryPlane;
    }
    cylinder
    {
        type            zeroGradient;
    }
    frontandback
    {
        type            empty;
    }
}


// ************************************************************************* //
