/*--------------------------------*- C++ -*----------------------------------*\
| =========                 |                                                 |
| \\      /  F ield         | OpenFOAM: The Open Source CFD Toolbox           |
|  \\    /   O peration     | Version:  v1912                                 |
|   \\  /    A nd           | Website:  www.openfoam.com                      |
|    \\/     M anipulation  |                                                 |
\*---------------------------------------------------------------------------*/
FoamFile
{
    version     2.0;
    format      ascii;
    class       volScalarField;
    location    "42.5";
    object      p;
}
// * * * * * * * * * * * * * * * * * * * * * * * * * * * * * * * * * * * * * //

dimensions      [0 2 -2 0 0 0 0];


internalField   nonuniform List<scalar> 
9600
(
-41.4738
-36.2084
-32.981
-30.2432
-27.7375
-25.4704
-23.4137
-21.5396
-19.8304
-18.2725
-16.8534
-15.5609
-14.3837
-13.3111
-12.333
-11.4399
-10.6233
-9.8755
-9.1888
-8.56108
-42.2325
-36.9496
-33.6863
-30.9057
-28.3549
-26.0438
-23.9458
-22.0339
-20.2909
-18.7031
-17.2576
-15.942
-14.7446
-13.6541
-12.6601
-11.7528
-10.9235
-10.164
-9.46617
-8.82919
-42.9928
-37.6868
-34.3861
-31.5626
-28.9665
-26.6112
-24.4719
-22.5224
-20.7458
-19.1283
-17.6567
-16.3183
-15.1009
-13.9928
-12.9831
-12.0619
-11.22
-10.4488
-9.73997
-9.09392
-43.7516
-38.4195
-35.0802
-32.213
-29.5712
-27.1716
-24.991
-23.004
-21.1941
-19.5472
-18.05
-16.6891
-15.452
-14.3266
-13.3016
-12.3666
-11.5123
-10.7295
-10.0098
-9.35494
-44.5059
-39.1464
-35.7674
-32.8558
-30.1681
-27.724
-25.5022
-23.478
-21.6351
-19.9592
-18.4367
-17.0538
-15.7974
-14.655
-13.6149
-12.6664
-11.7999
-11.0058
-10.2753
-9.61197
-45.2536
-39.8658
-36.4465
-33.4899
-30.7561
-28.2675
-26.0046
-23.9435
-22.0679
-20.3635
-18.8161
-17.4115
-16.1362
-14.9773
-13.9225
-12.9608
-12.0824
-11.2771
-10.5361
-9.86474
-45.9929
-40.5764
-37.1162
-34.1143
-31.334
-28.801
-26.4972
-24.3995
-22.4917
-20.7592
-19.1874
-17.7617
-16.468
-15.2928
-14.2237
-13.2493
-12.3593
-11.5432
-10.7918
-10.113
-46.7224
-41.2768
-37.7754
-34.7277
-31.9009
-29.3235
-26.9792
-24.8453
-22.9057
-21.1456
-19.55
-18.1036
-16.792
-15.6011
-14.5181
-13.5313
-12.63
-11.8035
-11.0422
-10.3564
-47.4405
-41.9656
-38.4228
-35.3291
-32.4557
-29.8341
-27.4494
-25.2798
-23.309
-21.5219
-19.903
-18.4365
-17.1074
-15.9013
-14.8049
-13.8062
-12.8942
-12.0576
-11.2869
-10.5946
-48.1462
-42.6417
-39.0573
-35.9173
-32.9973
-30.3318
-27.9072
-25.7022
-23.7007
-21.8872
-20.2456
-18.7596
-17.4136
-16.1928
-15.0835
-14.0733
-13.1511
-12.3049
-11.5252
-10.8272
-48.8383
-43.3039
-39.6778
-36.4914
-33.5249
-30.8156
-28.3515
-26.1118
-24.0802
-22.2408
-20.577
-19.072
-17.7097
-16.4747
-15.353
-14.3319
-13.3999
-12.5446
-11.7565
-11.0536
-49.5159
-43.9514
-40.2833
-37.0504
-34.0374
-31.2847
-28.7815
-26.5075
-24.4464
-22.5817
-20.8964
-19.3729
-17.9948
-16.7461
-15.6125
-14.581
-13.6399
-12.7761
-11.9801
-11.273
-50.1782
-44.5831
-40.8729
-37.5933
-34.5341
-31.7382
-29.1964
-26.8887
-24.7986
-22.9092
-21.2028
-19.6614
-18.2679
-17.006
-15.861
-14.8197
-13.8699
-12.9983
-12.1952
-11.4847
-50.8246
-45.1983
-41.4457
-38.1195
-35.0141
-32.1754
-29.5954
-27.2546
-25.136
-23.2224
-21.4954
-19.9365
-18.528
-17.2533
-16.0973
-15.0466
-14.0887
-13.2099
-12.4004
-11.6879
-51.4546
-45.7961
-42.001
-38.6281
-35.4767
-32.5956
-29.978
-27.6045
-25.458
-23.5207
-21.7735
-20.1974
-18.7741
-17.4867
-16.3198
-15.2599
-14.2942
-13.4086
-12.5937
-11.8809
-52.0678
-46.3759
-42.5381
-39.1185
-35.9213
-32.9982
-30.3435
-27.9379
-25.764
-23.8033
-22.0363
-20.4431
-19.0052
-17.7052
-16.5274
-15.4582
-14.4846
-13.5924
-12.7724
-12.0581
-52.6653
-46.9374
-43.0562
-39.59
-36.3472
-33.3825
-30.6913
-28.2542
-26.0535
-24.0699
-22.2831
-20.6731
-19.2205
-17.9078
-16.7191
-15.6406
-14.6597
-13.7612
-12.9352
-12.2164
-53.2517
-47.4819
-43.5546
-40.0414
-36.7536
-33.748
-31.021
-28.5532
-26.3261
-24.3199
-22.5136
-20.8864
-19.4187
-18.0926
-16.8924
-15.8045
-14.8165
-13.9123
-13.0814
-12.367
-53.8289
-48.0087
-44.0317
-40.4718
-37.14
-34.0947
-31.3329
-28.8352
-26.5824
-24.554
-22.7282
-21.0834
-19.5996
-18.2583
-17.044
-15.9432
-14.9432
-14.0282
-13.1959
-12.514
-54.3751
-48.5103
-44.4866
-40.8817
-37.5078
-34.4242
-31.6287
-29.102
-26.8243
-24.7742
-22.9291
-21.2665
-19.7657
-18.4076
-17.1757
-16.0553
-15.0315
-14.0908
-13.2477
-12.572
-59.824
-59.7926
-59.7234
-59.631
-59.5148
-59.3722
-59.2028
-59.0069
-58.7853
-58.5385
-58.2668
-57.9711
-57.6519
-57.3099
-56.9458
-56.5606
-56.1553
-55.7315
-55.2923
-54.8408
-53.476
-53.4734
-53.4377
-53.3745
-53.2844
-53.167
-53.0226
-52.8518
-52.6553
-52.4338
-52.1879
-51.9181
-51.6251
-51.3096
-50.9721
-50.6134
-50.234
-49.8346
-49.4155
-48.9748
-48.8332
-48.8549
-48.8474
-48.811
-48.7473
-48.657
-48.5406
-48.399
-48.2326
-48.0421
-47.828
-47.5909
-47.3314
-47.05
-46.7473
-46.4235
-46.0792
-45.7142
-45.3283
-44.9196
-44.6041
-44.6436
-44.6564
-44.6422
-44.6017
-44.5362
-44.4461
-44.3321
-44.1947
-44.0345
-43.852
-43.6476
-43.422
-43.1756
-42.9087
-42.6217
-42.3147
-41.9877
-41.6404
-41.2719
-40.6939
-40.7432
-40.7686
-40.7693
-40.7458
-40.6989
-40.6292
-40.5373
-40.4235
-40.2885
-40.1327
-39.9567
-39.7609
-39.5456
-39.3113
-39.0582
-38.7864
-38.4958
-38.1862
-37.8572
-37.1823
-37.2357
-37.2675
-37.2769
-37.264
-37.2295
-37.1739
-37.0978
-37.0017
-36.8859
-36.7511
-36.5976
-36.426
-36.2366
-36.0298
-35.8057
-35.5645
-35.3061
-35.0304
-34.7367
-34.0601
-34.1135
-34.1472
-34.1603
-34.1529
-34.1256
-34.079
-34.0135
-33.9296
-33.8277
-33.7084
-33.572
-33.4192
-33.2503
-33.0655
-32.8653
-32.6497
-32.4187
-32.1719
-31.9089
-31.2907
-31.3413
-31.3736
-31.387
-31.3816
-31.3578
-31.3162
-31.2572
-31.1813
-31.0889
-30.9806
-30.8568
-30.7181
-30.5649
-30.3976
-30.2166
-30.0219
-29.8135
-29.5912
-29.3544
-28.8341
-28.8802
-28.9093
-28.921
-28.9152
-28.8924
-28.8531
-28.7978
-28.7269
-28.6409
-28.5402
-28.4255
-28.2973
-28.156
-28.0023
-27.8365
-27.6587
-27.4691
-27.2673
-27.0528
-26.6505
-26.6915
-26.7166
-26.7254
-26.7179
-26.6946
-26.656
-26.6025
-26.5346
-26.4526
-26.3572
-26.249
-26.1285
-25.9964
-25.8533
-25.6995
-25.5356
-25.3617
-25.1773
-24.982
-24.703
-24.7387
-24.7594
-24.7648
-24.7551
-24.7306
-24.6917
-24.6389
-24.5725
-24.4932
-24.4015
-24.298
-24.1833
-24.0582
-23.9233
-23.7794
-23.6269
-23.4661
-23.2969
-23.1184
-22.9584
-22.9891
-23.0056
-23.0076
-22.9954
-22.9693
-22.9296
-22.8769
-22.8115
-22.7339
-22.6448
-22.5447
-22.4344
-22.3147
-22.1864
-22.0504
-21.9074
-21.758
-21.6021
-21.439
-21.3887
-21.4147
-21.4272
-21.4261
-21.4115
-21.3837
-21.3431
-21.2902
-21.2253
-21.1489
-21.0617
-20.9642
-20.8573
-20.7418
-20.6187
-20.4891
-20.3542
-20.2146
-20.0708
-19.9219
-19.9699
-19.9918
-20.0008
-19.9967
-19.9799
-19.9506
-19.9091
-19.8559
-19.7913
-19.7158
-19.63
-19.5345
-19.4302
-19.318
-19.1991
-19.0747
-18.9464
-18.8154
-18.6828
-18.5475
-18.6823
-18.7005
-18.7063
-18.6997
-18.6809
-18.6503
-18.608
-18.5545
-18.4901
-18.4154
-18.3307
-18.2369
-18.1346
-18.0249
-17.9091
-17.7888
-17.6659
-17.5421
-17.42
-17.2981
-17.5094
-17.5242
-17.5272
-17.5184
-17.4979
-17.4661
-17.4231
-17.3694
-17.3053
-17.2311
-17.1475
-17.0549
-16.9542
-16.8464
-16.7328
-16.6153
-16.4964
-16.3783
-16.2658
-16.1572
-16.4373
-16.4491
-16.4496
-16.4388
-16.4169
-16.384
-16.3405
-16.2866
-16.2226
-16.149
-16.0661
-15.9745
-15.8749
-15.7682
-15.6559
-15.5398
-15.4232
-15.3089
-15.2044
-15.1076
-15.4541
-15.4635
-15.4621
-15.4498
-15.4268
-15.3932
-15.3494
-15.2955
-15.2318
-15.1587
-15.0765
-14.9857
-14.8869
-14.7809
-14.6689
-14.5528
-14.4365
-14.3237
-14.2263
-14.1385
-14.5487
-14.5567
-14.5544
-14.5416
-14.5185
-14.4853
-14.4422
-14.3893
-14.3271
-14.2556
-14.1752
-14.0863
-13.9893
-13.8849
-13.774
-13.6582
-13.5412
-13.428
-13.3374
-13.2638
-13.7159
-13.7207
-13.7157
-13.7011
-13.677
-13.6434
-13.6006
-13.5486
-13.4878
-13.4183
-13.3403
-13.2542
-13.1601
-13.0585
-12.9498
-12.8351
-12.7162
-12.5983
-12.5013
-12.452
-53.5386
-54.1134
-54.651
-55.1737
-55.6784
-56.1593
-56.6134
-57.0397
-57.4373
-57.8053
-58.143
-58.4499
-58.7257
-58.97
-59.1822
-59.3624
-59.5114
-59.6304
-59.7214
-59.7863
-47.0566
-47.6368
-48.1888
-48.7186
-49.2255
-49.7073
-50.1623
-50.5901
-50.9898
-51.3609
-51.7027
-52.0151
-52.2984
-52.553
-52.7769
-52.9696
-53.1317
-53.2635
-53.3655
-53.4367
-42.4138
-42.9816
-43.5259
-44.0467
-44.5442
-45.0175
-45.4658
-45.8885
-46.285
-46.6546
-46.9963
-47.3098
-47.595
-47.8505
-48.0776
-48.2764
-48.4469
-48.5885
-48.701
-48.7829
-38.2912
-38.8338
-39.3568
-39.8582
-40.3374
-40.7942
-41.228
-41.638
-42.0237
-42.3845
-42.7191
-43.0269
-43.3089
-43.5647
-43.7943
-43.9974
-44.1738
-44.323
-44.4447
-44.5385
-34.6147
-35.1273
-35.6229
-36.0989
-36.5543
-36.9887
-37.4016
-37.7923
-38.1601
-38.5045
-38.8261
-39.1243
-39.3979
-39.647
-39.8717
-40.0717
-40.2467
-40.3966
-40.5213
-40.6205
-31.4173
-31.8985
-32.3643
-32.8122
-33.241
-33.6502
-34.0394
-34.4079
-34.7553
-35.0814
-35.3858
-35.6682
-35.9277
-36.1646
-36.3792
-36.5713
-36.7401
-36.8856
-37.0079
-37.107
-28.6465
-29.0969
-29.5331
-29.9527
-30.3545
-30.7378
-31.1024
-31.4477
-31.7733
-32.0789
-32.3641
-32.6287
-32.8723
-33.0947
-33.2957
-33.477
-33.6369
-33.775
-33.8915
-33.9867
-26.2355
-26.6571
-27.0652
-27.4578
-27.8336
-28.192
-28.5327
-28.855
-29.1588
-29.4437
-29.7094
-29.9559
-30.1829
-30.3905
-30.5784
-30.7453
-30.8946
-31.0237
-31.1326
-31.2217
-24.1257
-24.5208
-24.9033
-25.2709
-25.6226
-25.9576
-26.2757
-26.5763
-26.8593
-27.1244
-27.3714
-27.6003
-27.811
-28.0034
-28.1774
-28.3332
-28.4693
-28.5883
-28.6888
-28.7708
-22.2668
-22.6382
-22.9975
-23.3425
-23.6722
-23.9858
-24.283
-24.5636
-24.8272
-25.0738
-25.3033
-25.5157
-25.7109
-25.8888
-26.0494
-26.1927
-26.3185
-26.4271
-26.519
-26.5935
-20.6174
-20.9676
-21.3062
-21.6311
-21.9408
-22.235
-22.5132
-22.7753
-23.0212
-23.2508
-23.4642
-23.6613
-23.8421
-24.0066
-24.1548
-24.2867
-24.4022
-24.5013
-24.5848
-24.6521
-19.1438
-19.4753
-19.7956
-20.1025
-20.3943
-20.6708
-20.9317
-21.177
-21.4067
-21.6208
-21.8194
-22.0025
-22.1703
-22.3225
-22.4594
-22.5808
-22.6869
-22.7776
-22.8529
-22.9134
-17.819
-18.134
-18.4385
-18.7294
-19.0051
-19.2655
-19.5106
-19.7405
-19.9553
-20.1552
-20.3404
-20.5108
-20.6666
-20.8078
-20.9344
-21.0464
-21.1438
-21.2265
-21.2944
-21.349
-16.6214
-16.922
-17.2129
-17.4897
-17.7508
-17.9964
-18.227
-18.4427
-18.6439
-18.8309
-19.0037
-19.1626
-19.3076
-19.4387
-19.556
-19.6594
-19.749
-19.8249
-19.8873
-19.9352
-15.534
-15.8223
-16.1017
-16.3659
-16.6134
-16.8454
-17.0624
-17.265
-17.4536
-17.6285
-17.7901
-17.9384
-18.0736
-18.1956
-18.3044
-18.4002
-18.4828
-18.5523
-18.6087
-18.6519
-14.5419
-14.8217
-15.092
-15.3442
-15.5789
-15.7979
-16.0022
-16.1923
-16.369
-16.5329
-16.684
-16.8227
-16.9488
-17.0626
-17.1638
-17.2526
-17.3289
-17.3927
-17.4439
-17.4828
-13.6276
-13.9063
-14.1714
-14.4122
-14.6342
-14.8409
-15.0329
-15.2113
-15.377
-15.5305
-15.6721
-15.802
-15.92
-16.0263
-16.1207
-16.2032
-16.2738
-16.3325
-16.3793
-16.4141
-12.7703
-13.0532
-13.3197
-13.5511
-13.7612
-13.9561
-14.137
-14.3049
-14.4608
-14.6054
-14.7388
-14.8611
-14.9723
-15.0723
-15.161
-15.2384
-15.3044
-15.3589
-15.4021
-15.4339
-11.9836
-12.2571
-12.5242
-12.7509
-12.9508
-13.1344
-13.3048
-13.4632
-13.6104
-13.747
-13.8733
-13.9892
-14.0945
-14.1893
-14.2733
-14.3465
-14.4088
-14.4602
-14.5006
-14.5301
-11.3934
-11.6441
-11.8718
-12.0884
-12.2766
-12.4424
-12.5964
-12.7405
-12.8744
-12.9986
-13.1132
-13.2184
-13.3139
-13.3995
-13.4751
-13.5406
-13.596
-13.6412
-13.676
-13.7005
-5.99707
-6.48811
-7.02623
-7.6084
-8.24106
-8.93161
-9.6877
-10.5188
-11.4371
-12.4583
-13.6028
-14.8975
-16.3778
-18.0899
-20.0941
-22.4695
-25.2975
-28.6003
-32.597
-38.5925
-6.26743
-6.77196
-7.32059
-7.9148
-8.56121
-9.26691
-10.0397
-10.8893
-11.8281
-12.8721
-14.0421
-15.3654
-16.8778
-18.6258
-20.6701
-23.0896
-25.9646
-29.314
-33.3493
-39.3657
-6.53921
-7.05726
-7.6165
-8.22299
-8.88341
-9.60451
-10.3942
-11.2626
-12.2222
-13.2894
-14.4853
-15.8375
-17.3823
-19.1666
-21.2511
-23.7147
-26.6363
-30.0313
-34.1033
-40.1362
-6.81193
-7.34344
-7.91338
-8.53236
-9.20699
-9.94371
-10.7506
-11.6379
-12.6185
-13.7091
-14.9311
-16.3125
-17.8899
-19.7107
-21.8356
-24.3433
-27.3111
-30.7517
-34.8613
-40.9154
-7.08516
-7.63004
-8.21076
-8.84243
-9.53149
-10.284
-11.1082
-12.0147
-13.0165
-14.1307
-15.3789
-16.7896
-18.3998
-20.2572
-22.4226
-24.9743
-27.9883
-31.4744
-35.6225
-41.7009
-7.35852
-7.91665
-8.50821
-9.15278
-9.85645
-10.6249
-11.4666
-12.3924
-13.4156
-14.5534
-15.8281
-17.2683
-18.9114
-20.8054
-23.0115
-25.6071
-28.6672
-32.1985
-36.3848
-42.4886
-7.63169
-8.20291
-8.80535
-9.46301
-10.1815
-10.966
-11.8254
-12.7705
-13.8152
-14.9769
-16.278
-17.7478
-19.424
-21.3547
-23.6013
-26.2408
-29.3469
-32.923
-37.1467
-43.276
-7.90443
-8.48853
-9.10188
-9.77278
-10.5062
-11.3069
-12.184
-13.1486
-14.2148
-15.4004
-16.7281
-18.2275
-19.9367
-21.9043
-24.1913
-26.8746
-30.0262
-33.6467
-37.907
-44.0618
-8.17658
-8.77331
-9.39753
-10.0818
-10.8302
-11.6473
-12.542
-13.5262
-14.614
-15.8235
-17.1777
-18.7068
-20.449
-22.4531
-24.7805
-27.5073
-30.7041
-34.3684
-38.6646
-44.8444
-8.44811
-9.05714
-9.69216
-10.3899
-11.1534
-11.9867
-12.8992
-13.9028
-15.0121
-16.2454
-17.6262
-19.1848
-20.9599
-23.0006
-25.3681
-28.138
-31.3795
-35.087
-39.418
-45.6224
-8.71911
-9.34004
-9.98572
-10.697
-11.4755
-12.325
-13.2551
-14.2781
-15.4087
-16.6658
-18.0729
-19.6608
-21.4687
-23.5457
-25.953
-28.7657
-32.0513
-35.8013
-40.1659
-46.3943
-8.98988
-9.6222
-10.2782
-11.0029
-11.7963
-12.6618
-13.6093
-14.6515
-15.8033
-17.0839
-18.5172
-20.1342
-21.9746
-24.0876
-26.5343
-29.3892
-32.7183
-36.5099
-40.9071
-47.1586
-9.26091
-9.90389
-10.5699
-11.3076
-12.1157
-12.9969
-13.9616
-15.0226
-16.1954
-17.4991
-18.9583
-20.6042
-22.4767
-24.6253
-27.111
-30.0076
-33.3793
-37.2118
-41.6402
-47.9141
-9.53292
-10.1856
-10.8607
-11.6112
-12.4334
-13.3299
-14.3113
-15.3909
-16.5842
-17.9108
-19.3954
-21.0698
-22.9741
-25.1579
-27.6821
-30.6195
-34.0332
-37.9055
-42.3639
-48.6593
-9.80667
-10.4675
-11.1508
-11.9133
-12.7492
-13.6604
-14.6581
-15.7557
-16.9691
-18.3181
-19.8278
-21.5303
-23.4658
-25.6843
-28.2463
-31.224
-34.6787
-38.59
-43.077
-49.3933
-10.0831
-10.7499
-11.4399
-12.2134
-13.0622
-13.9877
-15.001
-16.1162
-17.3492
-18.7202
-20.2546
-21.9846
-23.9509
-26.2034
-28.8026
-31.8197
-35.3145
-39.2639
-43.7784
-50.1148
-10.362
-11.0318
-11.7265
-12.5102
-13.3714
-14.3105
-15.3392
-16.4715
-17.7237
-19.1162
-20.6747
-22.4318
-24.4282
-26.7141
-29.3496
-32.4052
-35.9392
-39.9258
-44.4671
-50.8235
-10.6427
-11.3105
-12.0081
-12.8019
-13.6754
-14.628
-15.6715
-16.8205
-18.0915
-19.505
-21.0871
-22.8706
-24.8966
-27.2152
-29.8862
-32.9792
-36.5511
-40.5741
-45.1417
-51.5191
-10.9179
-11.5778
-12.2786
-13.085
-13.9721
-14.9382
-15.9965
-17.162
-18.4514
-19.8856
-21.4907
-23.3001
-25.3548
-27.7052
-30.4108
-33.5401
-37.1488
-41.2069
-45.8013
-52.2033
-11.1689
-11.8136
-12.5335
-13.3605
-14.2619
-15.241
-16.3137
-17.4953
-18.8027
-20.2569
-21.8845
-23.719
-25.8018
-28.1831
-30.922
-34.0862
-37.7298
-41.8212
-46.4411
-52.8776
-1.58111
-1.83518
-2.18321
-2.57233
-2.99114
-3.44501
-3.94026
-4.48281
-5.08017
-5.74261
-6.48408
-7.3236
-8.28732
-9.41126
-10.7463
-12.3667
-14.3621
-16.7937
-19.9695
-25.3646
-1.73411
-2.00459
-2.37105
-2.76609
-3.18831
-3.64749
-4.14963
-4.70024
-5.30699
-5.9804
-6.73468
-7.5892
-8.57052
-9.7152
-11.0747
-12.7237
-14.752
-17.2189
-20.427
-25.8359
-1.88141
-2.17595
-2.55555
-2.95871
-3.38865
-3.85621
-4.36726
-4.92753
-5.54504
-6.23066
-6.99893
-7.8696
-8.8697
-10.0363
-11.4214
-13.1001
-15.162
-17.6643
-20.9038
-26.3213
-2.05096
-2.35632
-2.74411
-3.15598
-3.5951
-4.07218
-4.59325
-5.16431
-5.79371
-6.49262
-7.27594
-8.16381
-9.18374
-10.3733
-11.7851
-13.4945
-15.5909
-18.1299
-21.4041
-26.8393
-2.23182
-2.54426
-2.93987
-3.36069
-3.80929
-4.29634
-4.82807
-5.41072
-6.05288
-6.76601
-7.56533
-8.47139
-9.51214
-10.7257
-12.1652
-13.9065
-16.0385
-18.6157
-21.9274
-27.3866
-2.41815
-2.73919
-3.14313
-3.57306
-4.03143
-4.5289
-5.07188
-5.66681
-6.3225
-7.05067
-7.86688
-8.79205
-9.85463
-11.0933
-12.5616
-14.3359
-16.5049
-19.1214
-22.4718
-27.9581
-2.61148
-2.94202
-3.3542
-3.79325
-4.26166
-4.76999
-5.32475
-5.93257
-6.60247
-7.34643
-8.18034
-9.12552
-10.2109
-11.4756
-12.9739
-14.7822
-16.9893
-19.6464
-23.0363
-28.5513
-2.8132
-3.15321
-3.57342
-4.02159
-4.50023
-5.01975
-5.58672
-6.20794
-6.89265
-7.65309
-8.50546
-9.47147
-10.5805
-11.8723
-13.4015
-15.2451
-17.4914
-20.19
-23.6202
-29.1651
-3.02309
-3.37263
-3.80083
-4.25817
-4.74721
-5.27818
-5.85772
-6.49281
-7.19287
-7.97041
-8.84193
-9.82956
-10.9631
-12.2829
-13.8441
-15.7239
-18.0105
-20.7516
-24.2228
-29.7986
-3.24056
-3.59994
-4.03622
-4.50282
-5.00246
-5.54515
-6.13761
-6.78698
-7.5029
-8.29812
-9.18946
-10.1994
-11.3583
-12.707
-14.301
-16.2181
-18.5459
-21.3305
-24.8434
-30.4506
-3.46516
-3.83478
-4.2793
-4.75529
-5.26572
-5.8204
-6.42612
-7.09019
-7.82244
-8.63589
-9.54766
-10.5807
-11.7657
-13.144
-14.7719
-16.7271
-19.0971
-21.926
-25.481
-31.12
-3.69652
-4.07676
-4.52967
-5.01522
-5.53666
-6.10362
-6.72292
-7.40208
-8.15113
-8.98332
-9.91613
-10.9728
-12.1847
-13.5936
-15.256
-17.2503
-19.6633
-22.5372
-26.1347
-31.8059
-3.93418
-4.32541
-4.78689
-5.28219
-5.81489
-6.3944
-7.02763
-7.72225
-8.48853
-9.33998
-10.2944
-11.3754
-12.6148
-14.0549
-15.7528
-17.787
-20.2437
-23.1633
-26.8039
-32.5072
-4.1776
-4.58019
-5.05047
-5.55573
-6.09995
-6.6923
-7.33977
-8.05024
-8.83419
-9.70538
-10.6819
-11.7879
-13.0555
-14.5276
-16.2617
-18.3364
-20.8377
-23.8036
-27.4874
-33.2231
-4.42624
-4.84057
-5.31985
-5.83532
-6.39132
-6.99681
-7.65886
-8.38555
-9.18758
-10.079
-11.0782
-12.2097
-13.5061
-15.0108
-16.7818
-18.8979
-21.4444
-24.4572
-28.1846
-33.9527
-4.67955
-5.10597
-5.5945
-6.12041
-6.68848
-7.30741
-7.98436
-8.72763
-9.54814
-10.4602
-11.4825
-12.6401
-13.9659
-15.504
-17.3125
-19.4707
-22.063
-25.1232
-28.8946
-34.6952
-4.93698
-5.37581
-5.87381
-6.41044
-6.99085
-7.62353
-8.31571
-9.0759
-9.91528
-10.8484
-11.8944
-13.0785
-14.4343
-16.0062
-17.853
-20.0538
-22.6925
-25.8006
-29.6165
-35.4499
-5.19798
-5.6495
-6.15721
-6.70483
-7.29788
-7.9446
-8.65232
-9.42978
-10.2884
-11.243
-12.313
-13.5242
-14.9106
-16.5169
-18.4024
-20.6463
-23.332
-26.4885
-30.3495
-36.2167
-5.462
-5.92648
-6.44413
-7.003
-7.60898
-8.27003
-8.9936
-9.78865
-10.6668
-11.6433
-12.7378
-13.9765
-15.3938
-17.035
-18.9598
-21.2473
-23.9803
-27.1856
-31.0926
-36.996
-5.72854
-6.20621
-6.734
-7.3044
-7.92359
-8.59926
-9.33897
-10.1519
-11.05
-12.0487
-13.1681
-14.4346
-15.8833
-17.5599
-19.5243
-21.8557
-24.6363
-27.8902
-31.8429
-37.7887
-1.33354
-1.12709
-0.973551
-0.837051
-0.717201
-0.61146
-0.518713
-0.438169
-0.369325
-0.311824
-0.265399
-0.229839
-0.204973
-0.190661
-0.186765
-0.193078
-0.209395
-0.235846
-0.272551
-0.319375
-1.66345
-1.48028
-1.32276
-1.18104
-1.05637
-0.946167
-0.849462
-0.765452
-0.693623
-0.633599
-0.585099
-0.547898
-0.521815
-0.506696
-0.502397
-0.508747
-0.525597
-0.552947
-0.590823
-0.639098
-1.99612
-1.82082
-1.66333
-1.52047
-1.39367
-1.28129
-1.18264
-1.09701
-1.02395
-0.963097
-0.914168
-0.876942
-0.851236
-0.836892
-0.833759
-0.841688
-0.860559
-0.890326
-0.930909
-0.982353
-2.38002
-2.20306
-2.04254
-1.89673
-1.76636
-1.65048
-1.54862
-1.46021
-1.38486
-1.3222
-1.27199
-1.23398
-1.208
-1.19387
-1.19144
-1.20056
-1.22111
-1.25302
-1.29619
-1.35061
-2.79895
-2.61955
-2.45507
-2.30532
-2.17075
-2.05083
-1.94523
-1.85353
-1.77539
-1.7105
-1.6586
-1.61946
-1.59289
-1.57872
-1.5768
-1.58696
-1.6091
-1.64309
-1.68884
-1.74631
-3.25048
-3.06787
-2.89923
-2.74516
-2.60614
-2.48196
-2.37243
-2.27725
-2.19614
-2.12882
-2.07507
-2.03467
-2.00742
-1.99316
-1.99172
-2.00295
-2.02672
-2.06289
-2.11134
-2.17201
-3.74079
-3.55347
-3.37992
-3.22094
-3.07703
-2.94821
-2.8344
-2.7354
-2.651
-2.58099
-2.52514
-2.48325
-2.45515
-2.44066
-2.43961
-2.45186
-2.47726
-2.51567
-2.56694
-2.63103
-4.27668
-4.08315
-3.90363
-3.73886
-3.58936
-3.45528
-3.33664
-3.23332
-3.14517
-3.07202
-3.01369
-2.96998
-2.94073
-2.92577
-2.92492
-2.93805
-2.965
-3.00561
-3.05973
-3.12733
-4.86584
-4.66467
-4.47793
-4.30631
-4.15031
-4.01016
-3.88595
-3.77763
-3.68512
-3.60827
-3.54693
-3.50093
-3.47012
-3.45433
-3.4534
-3.46717
-3.49549
-3.53818
-3.59511
-3.66624
-5.51842
-5.30805
-5.11267
-4.93292
-4.76928
-4.62203
-4.4913
-4.37711
-4.27942
-4.19812
-4.13309
-4.08418
-4.05124
-4.03412
-4.03266
-4.0467
-4.07609
-4.12064
-4.1802
-4.25477
-6.24817
-6.02679
-5.8211
-5.63167
-5.45897
-5.30331
-5.16485
-5.04366
-4.93973
-4.853
-4.78336
-4.7307
-4.69486
-4.67572
-4.6731
-4.68686
-4.71683
-4.76283
-4.82468
-4.90244
-7.0738
-6.8393
-6.6213
-6.42029
-6.23676
-6.07102
-5.92328
-5.79363
-5.6821
-5.58864
-5.51319
-5.45564
-5.41587
-5.39372
-5.38906
-5.40173
-5.43157
-5.47836
-5.54195
-5.62242
-8.02107
-7.77089
-7.53814
-7.32322
-7.12666
-6.94876
-6.78975
-6.64976
-6.52884
-6.42698
-6.34413
-6.28019
-6.23505
-6.20858
-6.20064
-6.21108
-6.23972
-6.28634
-6.35077
-6.43315
-9.12549
-8.85657
-8.60607
-8.37438
-8.16202
-7.96933
-7.79655
-7.64382
-7.51123
-7.39878
-7.30644
-7.23413
-7.18175
-7.14917
-7.13627
-7.14288
-7.16884
-7.21388
-7.27784
-7.36091
-10.4373
-10.146
-9.8741
-9.62211
-9.39056
-9.17981
-8.99011
-8.82164
-8.67447
-8.54864
-8.44413
-8.36087
-8.29877
-8.25771
-8.23758
-8.2382
-8.2594
-8.3009
-8.3625
-8.44446
-12.0302
-11.712
-11.4144
-11.138
-10.8832
-10.6504
-10.44
-10.2521
-10.0868
-9.94414
-9.82409
-9.72662
-9.65165
-9.59906
-9.56872
-9.5605
-9.57419
-9.60949
-9.66618
-9.74453
-13.9933
-13.6435
-13.3156
-13.0101
-12.7276
-12.4686
-12.2334
-12.022
-11.8346
-11.6713
-11.5319
-11.4166
-11.3252
-11.2576
-11.2138
-11.1934
-11.1965
-11.2227
-11.2717
-11.3435
-16.3881
-16.0027
-15.6403
-15.3018
-14.9879
-14.6991
-14.4354
-14.1972
-13.9843
-13.797
-13.6351
-13.4988
-13.3878
-13.3022
-13.2419
-13.2067
-13.1964
-13.2111
-13.2501
-13.3129
-19.5253
-19.1002
-18.6989
-18.3239
-17.9756
-17.654
-17.3591
-17.0909
-16.8493
-16.6344
-16.4462
-16.2847
-16.1498
-16.0414
-15.9596
-15.9041
-15.8748
-15.8722
-15.8958
-15.9439
-24.8624
-24.3924
-23.9566
-23.5523
-23.1771
-22.8301
-22.511
-22.2195
-21.9556
-21.7194
-21.5108
-21.33
-21.1769
-21.0518
-20.9546
-20.8855
-20.8451
-20.8358
-20.8589
-20.9041
-0.376179
-0.442649
-0.518747
-0.60439
-0.699494
-0.803953
-0.917636
-1.04038
-1.17197
-1.31213
-1.4605
-1.61654
-1.77946
-1.94803
-2.12061
-2.29491
-2.46647
-2.62547
-2.75655
-2.88607
-0.697781
-0.766526
-0.845259
-0.93387
-1.03225
-1.14028
-1.2578
-1.38463
-1.52053
-1.66519
-1.8182
-1.979
-2.14683
-2.32052
-2.49846
-2.679
-2.86036
-3.03482
-3.18716
-3.35912
-1.04452
-1.1171
-1.20005
-1.29322
-1.3965
-1.50975
-1.63278
-1.76539
-1.90732
-2.05824
-2.21772
-2.38521
-2.55995
-2.74092
-2.92676
-3.11627
-3.3085
-3.49906
-3.68223
-3.88791
-1.41619
-1.49263
-1.57984
-1.67768
-1.78601
-1.90466
-2.03344
-2.17213
-2.32044
-2.47802
-2.64444
-2.81914
-3.00142
-3.19037
-3.38492
-3.58419
-3.78738
-3.99219
-4.19909
-4.42848
-1.81542
-1.89586
-1.98753
-2.09028
-2.20395
-2.32835
-2.46327
-2.60848
-2.76367
-2.92848
-3.10248
-3.28514
-3.4758
-3.67368
-3.87797
-4.08806
-4.30334
-4.52275
-4.74895
-4.99508
-2.24496
-2.3297
-2.42618
-2.53422
-2.65365
-2.78429
-2.9259
-3.07823
-3.24097
-3.41376
-3.59618
-3.78772
-3.9878
-4.19576
-4.411
-4.63309
-4.86164
-5.09642
-5.3402
-5.60082
-2.708
-2.79727
-2.89886
-3.01257
-3.13822
-3.27559
-3.42445
-3.58454
-3.75556
-3.93713
-4.12886
-4.33028
-4.54086
-4.76008
-4.98746
-5.2227
-5.4656
-5.71635
-5.97719
-6.25254
-3.20837
-3.3025
-3.4095
-3.52923
-3.6615
-3.8061
-3.96278
-4.13128
-4.31129
-4.50247
-4.70442
-4.91673
-5.13892
-5.37056
-5.61126
-5.86081
-6.11911
-6.38649
-6.66452
-6.95567
-3.75157
-3.8506
-3.96324
-4.08927
-4.22854
-4.38081
-4.54585
-4.72337
-4.9131
-5.11468
-5.32777
-5.55195
-5.78684
-6.03203
-6.28723
-6.55225
-6.82702
-7.11185
-7.40773
-7.71603
-4.34436
-4.44834
-4.5668
-4.69934
-4.84588
-5.00621
-5.18007
-5.36719
-5.56728
-5.78002
-6.00507
-6.24208
-6.49067
-6.75051
-7.02133
-7.30294
-7.59529
-7.89853
-8.21325
-8.54021
-4.99613
-5.10501
-5.2291
-5.36833
-5.52232
-5.69095
-5.87397
-6.07112
-6.28212
-6.50665
-6.74441
-6.99507
-7.25829
-7.53375
-7.82121
-8.12048
-8.43146
-8.75418
-9.08887
-9.43604
-5.71982
-5.83328
-5.9629
-6.10848
-6.26994
-6.44691
-6.63923
-6.84667
-7.06892
-7.30569
-7.55671
-7.82167
-8.10025
-8.39216
-8.69714
-9.01501
-9.3456
-9.68879
-10.0446
-10.4134
-6.53356
-6.65098
-6.78559
-6.93714
-7.10551
-7.29081
-7.49238
-7.70995
-7.94347
-8.19265
-8.45721
-8.73685
-9.03126
-9.34017
-9.66331
-10.0005
-10.3515
-10.716
-11.094
-11.4857
-7.4632
-7.58349
-7.72215
-7.87888
-8.05346
-8.2459
-8.45698
-8.68388
-8.9283
-9.18959
-9.46751
-9.76178
-10.0721
-10.3982
-10.7398
-11.0967
-11.4685
-11.855
-12.2558
-12.6714
-8.54692
-8.6684
-8.80947
-8.96992
-9.14957
-9.34795
-9.56455
-9.80173
-10.0568
-10.3292
-10.6197
-10.9281
-11.254
-11.5971
-11.957
-12.3334
-12.7261
-13.1345
-13.5585
-13.9981
-9.84464
-9.96477
-10.1058
-10.2677
-10.4503
-10.6531
-10.8758
-11.1184
-11.381
-11.6643
-11.9666
-12.2883
-12.629
-12.9879
-13.3648
-13.7596
-14.1723
-14.6021
-15.0486
-15.5119
-11.4379
-11.5535
-11.6917
-11.8523
-12.035
-12.2396
-12.4658
-12.7134
-12.9822
-13.2725
-13.585
-13.9184
-14.271
-14.642
-15.0327
-15.4435
-15.8741
-16.3237
-16.7911
-17.2763
-13.3974
-13.5055
-13.6377
-13.7937
-13.9723
-14.1739
-14.3986
-14.6463
-14.9168
-15.2094
-15.5236
-15.8596
-16.2191
-16.6026
-17.0084
-17.4351
-17.8824
-18.3499
-18.8367
-19.3417
-16.0142
-16.1061
-16.2221
-16.3636
-16.5318
-16.7261
-16.9456
-17.1898
-17.4586
-17.7515
-18.0678
-18.4074
-18.7704
-19.1573
-19.5681
-20.0021
-20.4592
-20.94
-21.4444
-21.9675
-20.946
-21.0184
-21.1217
-21.2536
-21.4128
-21.5989
-21.8112
-22.0493
-22.3129
-22.6016
-22.9154
-23.254
-23.6177
-24.0068
-24.4213
-24.8612
-25.3276
-25.8245
-26.3542
-26.8992
-27.4151
-22.5013
-19.8645
-17.7795
-15.9921
-14.4535
-13.1015
-11.8911
-10.7951
-9.79558
-8.87935
-8.03672
-7.26006
-6.54313
-5.88074
-5.26834
-4.70067
-4.17213
-3.6912
-3.28682
-27.9589
-23.0512
-20.4029
-18.2976
-16.4864
-14.9223
-13.5442
-12.3084
-11.1882
-10.166
-9.22899
-8.36769
-7.57457
-6.84354
-6.16956
-5.5482
-4.97471
-4.44669
-3.97727
-3.57482
-28.5312
-23.6199
-20.9585
-18.8319
-16.9956
-15.4046
-13.9994
-12.7372
-11.592
-10.5465
-9.5882
-8.70773
-7.89765
-7.15189
-6.46538
-5.83359
-5.25189
-4.71799
-4.24146
-3.81953
-29.1279
-24.2082
-21.5312
-19.3818
-17.5189
-15.8997
-14.4664
-13.1769
-12.0057
-10.9362
-9.95589
-9.05552
-8.22763
-7.46603
-6.76545
-6.12109
-5.52807
-4.98343
-4.49391
-4.05326
-29.7458
-24.8153
-22.1205
-19.947
-18.0558
-16.4071
-14.9445
-13.6266
-12.4287
-11.3343
-10.3312
-9.4102
-8.56369
-7.78535
-7.06965
-6.41147
-5.80564
-5.24862
-4.74533
-4.28856
-30.3834
-25.4418
-22.7245
-20.5263
-18.6055
-16.926
-15.4329
-14.0856
-12.86
-11.74
-10.7134
-9.77108
-8.90528
-8.10949
-7.37792
-6.7052
-6.08592
-5.51621
-4.99966
-4.52882
-31.0396
-26.0862
-23.3428
-21.1188
-19.1672
-17.4555
-15.9308
-14.5532
-13.2991
-12.1526
-11.102
-10.1377
-9.25207
-8.43835
-7.69051
-7.00297
-6.37014
-5.78791
-5.2588
-4.77529
-31.7131
-26.7464
-23.9751
-21.7236
-19.7399
-17.9949
-16.4374
-15.0286
-13.7451
-12.5716
-11.4962
-10.5096
-9.60374
-8.77179
-8.00749
-7.30504
-6.65873
-6.06426
-5.52317
-5.02792
-32.4025
-27.4211
-24.6207
-22.3399
-20.3229
-18.5433
-16.9521
-15.511
-14.1975
-12.9963
-11.8958
-10.8863
-9.95997
-9.1096
-8.32875
-7.6114
-6.95174
-6.34528
-5.79261
-5.28619
-33.1066
-28.109
-25.2786
-22.9669
-20.9151
-19.0998
-17.4738
-15.9997
-14.6555
-13.4261
-12.2999
-11.2674
-10.3203
-9.45144
-8.654
-7.9218
-7.2489
-6.63061
-6.06661
-5.5494
-33.8242
-28.809
-25.9476
-23.6035
-21.5156
-19.6636
-18.0018
-16.4939
-15.1183
-13.8602
-12.7081
-11.6522
-10.6844
-9.79684
-8.98281
-8.23581
-7.54974
-6.9197
-6.34452
-5.81673
-34.5541
-29.5201
-26.6267
-24.2486
-22.1234
-20.2335
-18.5351
-16.9927
-15.5852
-14.298
-13.1196
-12.0403
-11.0514
-10.1453
-9.31466
-8.55288
-7.85369
-7.21193
-6.62563
-6.08742
-35.2953
-30.241
-27.3147
-24.9013
-22.7375
-20.8088
-19.0729
-17.4953
-16.0554
-14.7388
-13.5339
-12.4309
-11.421
-10.4962
-9.64895
-8.87241
-8.16011
-7.50664
-6.90923
-6.36068
-36.0466
-30.9707
-28.0103
-25.5602
-23.3568
-21.3883
-19.6142
-18.0008
-16.528
-15.1816
-13.9501
-12.8233
-11.7924
-10.8488
-9.98504
-9.19377
-8.46836
-7.80315
-7.19461
-6.6358
-36.8069
-31.7079
-28.7124
-26.2244
-23.9802
-21.9709
-20.1579
-18.5082
-17.0022
-15.6258
-14.3675
-13.2169
-12.1648
-11.2026
-10.3223
-9.51629
-8.77777
-8.10078
-7.4811
-6.91209
-37.575
-32.4512
-29.4196
-26.8925
-24.6065
-22.5557
-20.7031
-19.0166
-17.4771
-16.0705
-14.7853
-13.6109
-12.5377
-11.5569
-10.66
-9.83932
-9.0877
-8.3989
-7.76803
-7.18889
-38.3504
-33.1995
-30.1307
-27.5633
-25.2345
-23.1413
-21.2486
-19.525
-17.9517
-16.5149
-15.2027
-14.0045
-12.9103
-11.9109
-10.9975
-10.1622
-9.39749
-8.69686
-8.05479
-7.46562
-39.1346
-33.9524
-30.8441
-28.2351
-25.8627
-23.7265
-21.7932
-20.0322
-18.425
-16.9579
-15.6188
-14.3969
-13.2817
-12.2639
-11.3341
-10.4842
-9.7065
-8.99404
-8.34077
-7.7417
-39.9278
-34.7086
-31.5578
-28.9063
-26.4898
-24.3102
-22.336
-20.5374
-18.8962
-17.3988
-16.0329
-14.7874
-13.6514
-12.6152
-11.6692
-10.8048
-10.0141
-9.28985
-8.62542
-8.01663
-40.7172
-35.4632
-32.2704
-29.5759
-27.115
-24.8918
-22.8765
-21.0401
-19.365
-17.8373
-16.4447
-15.1755
-14.0189
-12.9644
-12.0023
-11.1235
-10.3199
-9.58383
-8.90826
-8.28995
-6.76979
-4.66627
-3.30804
-2.26422
-1.5311
-0.992704
-0.606046
-0.331564
-0.140987
-0.0126061
0.0701654
0.119938
0.146268
0.1563
0.155333
0.147232
0.134804
0.120044
0.104359
0.0887135
0.0737515
0.0598828
0.0473432
0.0362522
0.0266306
0.0184584
0.0116416
0.00611646
0.00171186
-0.001598
-0.00408119
-0.00562093
-0.00667947
-0.00682332
-0.00692325
-0.00593094
-0.00550531
-0.00350636
-0.00298869
0.000108754
-7.02517
-4.84844
-3.45415
-2.37927
-1.62207
-1.06628
-0.666066
-0.381148
-0.182334
-0.047336
0.0408522
0.0951216
0.125229
0.138461
0.140221
0.134453
0.124022
0.110974
0.0967544
0.0823621
0.0684698
0.055511
0.0437423
0.0333027
0.024229
0.0165149