/*--------------------------------*- C++ -*----------------------------------*\
  =========                 |
  \\      /  F ield         | OpenFOAM: The Open Source CFD Toolbox
   \\    /   O peration     | Website:  https://openfoam.org
    \\  /    A nd           | Version:  6.0
     \\/     M anipulation  |
\*---------------------------------------------------------------------------*/
FoamFile
{
    version     2.0;
    format      ascii;
    class       surfaceScalarField;
    location    "21.5075";
    object      phi;
}
// * * * * * * * * * * * * * * * * * * * * * * * * * * * * * * * * * * * * * //

dimensions      [0 3 -1 0 0 0 0];

internalField   nonuniform List<scalar> 
4670
(
0.00111168
-0.211058
0.209946
0.00459101
-0.174257
0.170778
0.00985091
-0.154101
0.148841
0.0162509
-0.141993
0.135593
0.0232775
-0.133879
0.126852
0.0305562
-0.12765
0.120371
0.0378358
-0.122276
0.114996
0.0449664
-0.117281
0.11015
0.0518749
-0.112417
0.105509
-0.107458
0.100795
0.0585374
0.001313
-0.212371
0.0051042
-0.178049
0.0106556
-0.159652
0.0172604
-0.148598
0.0243778
-0.140996
0.0316308
-0.134903
0.0387809
-0.129426
0.0457005
-0.1242
0.052346
-0.119063
-0.113846
0.0587341
0.00149983
-0.213871
0.00555966
-0.182108
0.0113324
-0.165425
0.0180524
-0.155318
0.0251599
-0.148104
0.0322836
-0.142026
0.0392049
-0.136347
0.0458224
-0.130818
0.0521245
-0.125365
-0.11989
0.0581688
0.00166423
-0.215535
0.00594499
-0.186389
0.0118665
-0.171347
0.0186115
-0.162063
0.0256113
-0.155104
0.0325096
-0.148925
0.0391132
-0.142951
0.0453505
-0.137055
0.0512421
-0.131256
-0.125533
0.0568849
0.00180759
-0.217342
0.00625716
-0.190839
0.0122525
-0.177342
0.0189345
-0.168745
0.0257358
-0.161905
0.0323224
-0.155511
0.0385313
-0.14916
0.0443221
-0.142846
0.0497456
-0.13668
-0.130723
0.0549356
0.00192938
-0.219272
0.00649516
-0.195404
0.0124916
-0.183338
0.0190293
-0.175283
0.0255517
-0.168427
0.0317538
-0.161713
0.0375057
-0.154912
0.0427963
-0.148136
0.0477034
-0.141587
-0.135416
0.0523962
0.00203076
-0.221303
0.0066619
-0.200036
0.0125915
-0.189268
0.0189125
-0.181604
0.0250887
-0.174603
0.0308501
-0.167475
0.0361011
-0.160163
0.0408563
-0.152892
0.0452138
-0.145944
-0.139573
0.0493706
0.00211512
-0.223418
0.00676537
-0.204686
0.012567
-0.19507
0.0186084
-0.187645
0.0243823
-0.180377
0.0296583
-0.172751
0.0343775
-0.164882
0.0385764
-0.157091
0.0423579
-0.149726
-0.14313
0.0459149
0.00219249
-0.22561
0.00682284
-0.209316
0.0124438
-0.200691
0.0181548
-0.193356
0.0234829
-0.185705
0.0282358
-0.177504
0.0323844
-0.169031
0.0359788
-0.160685
0.0391153
-0.152862
-0.146031
0.0420167
0.00228881
-0.227899
0.00685478
-0.213882
0.0122509
-0.206087
0.0176032
-0.198709
0.0224755
-0.190578
0.0267055
-0.181734
0.030272
-0.172597
0.0332051
-0.163618
0.0355767
-0.155234
-0.148211
0.0377568
0.247088
0.00180114
-0.248889
0.245185
0.00190352
0.243181
0.00200379
0.241093
0.00208844
0.238939
0.00215361
0.23674
0.00219875
0.234516
0.00222385
0.232287
0.00222986
0.230076
0.0022105
0.00217709
0.247385
0.00411388
-0.249697
0.244699
0.00458925
0.241677
0.0050261
0.238349
0.00541643
0.234749
0.00575363
0.230912
0.00603526
0.226875
0.0062611
0.222671
0.00643319
0.218332
0.00655038
0.00662655
0.240786
0.00586519
-0.242538
0.238538
0.00683756
0.235819
0.00774523
0.232655
0.00857977
0.229077
0.00933236
0.225115
0.0099971
0.220803
0.0105726
0.216176
0.0110605
0.211261
0.0114655
0.0118007
0.229077
0.00685834
-0.23007
0.227559
0.00835499
0.22553
0.00977428
0.223006
0.011104
0.220006
0.0123327
0.216553
0.0134502
0.212672
0.0144536
0.20839
0.0153416
0.203729
0.0161268
0.0168213
0.215338
0.00723668
-0.215716
0.214457
0.00923611
0.213077
0.0111535
0.211209
0.0129725
0.208863
0.014679
0.206055
0.0162574
0.202804
0.0177047
0.199134
0.0190116
0.195054
0.0202072
0.0212975
0.201521
0.00722525
-0.20151
0.20107
0.00968781
0.200157
0.0120663
0.198789
0.0143409
0.196972
0.0164953
0.194723
0.0185065
0.192054
0.0203736
0.188996
0.0220696
0.185547
0.0236566
0.0251108
0.188665
0.00702308
-0.188463
0.188445
0.00990805
0.187805
0.0127062
0.186751
0.015395
0.18529
0.0179563
0.183439
0.020357
0.181211
0.0226013
0.178655
0.0246265
0.175753
0.0265581
0.0282667
0.177177
0.00676915
-0.176923
0.177043
0.0100421
0.176526
0.0132232
0.175633
0.0162876
0.174373
0.019216
0.172768
0.0219625
0.170832
0.0245378
0.168644
0.0268139
0.16616
0.0290422
0.0308085
0.167085
0.00654243
-0.166858
0.166952
0.0101756
0.166466
0.0137085
0.165639
0.017115
0.164479
0.020376
0.163011
0.0234306
0.16125
0.026299
0.159328
0.0287361
0.157164
0.0312058
0.0327385
0.158231
-0.15807
0.0063822
0.158057
0.0103491
0.157563
0.0142028
0.156761
0.0179167
0.155662
0.0214747
0.154291
0.0248023
0.152649
0.027941
0.150901
0.0304841
0.149018
0.0330891
0.0335449
0.255472
-0.000318808
-0.255153
0.255619
-0.000146917
0.255552
6.67077e-05
0.255257
0.000295654
0.254729
0.000528282
0.25397
0.000758089
0.252991
0.000979322
0.251804
0.0011876
0.25043
0.00137348
0.00154054
0.251357
-0.00221094
-0.249465
0.252864
-0.00165393
0.253974
-0.00104317
0.254665
-0.000395643
0.254924
0.000269498
0.254744
0.000938437
0.254124
0.00159926
0.253069
0.00224207
0.251589
0.00285364
0.00343227
0.235689
-0.00530014
-0.232599
0.238366
-0.00433103
0.240606
-0.00328331
0.242384
-0.00217348
0.243678
-0.00102504
0.244474
0.000142385
0.244762
0.00131175
0.244535
0.0024685
0.243792
0.0035967
0.00468711
0.216281
-0.00909882
-0.212482
0.219694
-0.00774425
0.222685
-0.00627423
0.225226
-0.00471448
0.227295
-0.0030941
0.228874
-0.00143687
0.22995
0.000236065
0.230512
0.0019064
0.230553
0.00355601
0.00517019
0.19763
-0.0132464
-0.193483
0.201421
-0.0115343
0.204809
-0.00966232
0.207769
-0.00767457
0.210282
-0.00560741
0.212333
-0.00348823
0.213911
-0.00134162
0.215006
0.000811653
0.215609
0.00295254
0.00506339
0.181398
-0.0175225
-0.177122
0.185329
-0.0154652
0.188866
-0.0132
0.191991
-0.0107988
0.194687
-0.00830421
0.196948
-0.0057484
0.198765
-0.00315938
0.200135
-0.000558368
0.201052
0.00203613
0.00460521
0.167879
-0.0218298
-0.163572
0.171822
-0.0194075
0.175361
-0.0167392
0.17849
-0.0139281
0.1812
-0.0110138
0.18349
-0.00803805
0.185362
-0.00503161
0.186816
-0.00201289
0.187851
0.00100177
0.00399323
0.156782
-0.0261823
-0.15243
0.160681
-0.0233064
0.16414
-0.0201982
0.167183
-0.0169713
0.169807
-0.0136376
0.172022
-0.0102526
0.173838
-0.00684803
0.175261
-0.00343521
0.176289
-2.65138e-05
0.00335903
0.147682
-0.0305855
-0.143279
0.151484
-0.0271088
0.154804
-0.0235175
0.157701
-0.0198687
0.160187
-0.0161233
0.162276
-0.0123418
0.163984
-0.0085556
0.165316
-0.00476738
0.166274
-0.000984391
0.00277433
0.140106
-0.136367
-0.0343245
0.143757
-0.03076
0.14694
-0.0266997
0.149648
-0.0225777
0.151971
-0.0184455
0.153919
-0.0142906
0.155498
-0.0101345
0.156715
-0.00598363
0.157571
-0.00184099
0.00227516
0.0436121
0.0905786
-0.0850795
-0.0491112
0.0380182
0.0973498
-0.0917559
0.0323577
0.105672
-0.100012
0.0266707
0.116172
-0.110485
0.0210142
0.12963
-0.123973
0.0154728
0.146846
-0.141305
0.0101864
0.168375
-0.163089
0.00541811
0.193933
-0.189165
0.00169813
0.221029
-0.217309
0.243626
-0.241928
0.0435757
0.0960304
-0.0490274
0.0380158
0.10291
0.0323763
0.111312
0.0266947
0.121853
0.0210275
0.135297
0.015464
0.15241
0.0101559
0.173683
0.00538435
0.198705
0.00168812
0.224725
0.245314
0.0432744
0.101415
-0.0486594
0.0377702
0.108414
0.0321762
0.116906
0.0265277
0.127502
0.0208805
0.140944
0.0153278
0.157963
0.0100314
0.17898
0.00528652
0.20345
0.00163909
0.228373
0.246953
0.0427132
0.106721
-0.0480191
0.0372816
0.113846
0.0317546
0.122433
0.0261651
0.133091
0.0205679
0.146541
0.0150591
0.163471
0.0098094
0.184229
0.00512696
0.208132
0.00156365
0.231936
0.248517
0.0418913
0.111943
-0.0471129
0.0365455
0.119191
0.0311058
0.127872
0.0256014
0.138595
0.0200848
0.152058
0.0146545
0.168902
0.00948905
0.189395
0.00490805
0.212713
0.00146531
0.235379
0.249982
0.0407962
0.117081
-0.045934
0.0355483
0.124439
0.0302178
0.133203
0.0248271
0.143986
0.0194245
0.15746
0.0141097
0.174216
0.00906852
0.194436
0.00462992
0.217152
0.00134493
0.238664
0.251327
0.0393896
0.122128
-0.0444375
0.0342623
0.129567
0.0290735
0.138392
0.0238329
0.149227
0.0185817
0.162712
0.013422
0.179376
0.0085474
0.199311
0.00429404
0.221405
0.00120441
0.241753
0.252531
0.0376223
0.127074
-0.0425675
0.0326488
0.13454
0.0276511
0.143389
0.0226063
0.154272
0.017549
0.167769
0.0125879
0.184337
0.00792474
0.203974
0.00390129
0.225428
0.00104497
0.24461
0.253576
0.0353193
0.131787
-0.0400332
0.0306466
0.139213
0.0259479
0.148088
0.0211535
0.159066
0.0163323
0.17259
0.0116132
0.189056
0.00720743
0.20838
0.00346173
0.229174
0.000878852
0.247192
0.254455
0.0323713
-0.036951
0.0283052
0.0239634
0.0194572
0.0149255
0.010499
0.00639611
0.00297079
0.000698386
0.029722
0.0379503
-0.0330676
-0.0346047
0.0252609
0.0444541
-0.039993
0.0212154
0.0531575
-0.0491119
0.0174251
0.0645695
-0.0607792
0.0138007
0.0793374
-0.075713
0.0103011
0.098281
-0.0947815
0.0069343
0.122283
-0.118916
0.00380863
0.152076
-0.14895
0.0012537
0.187533
-0.184978
0.227021
-0.225768
0.0321313
0.0428199
-0.0370009
0.0274476
0.0491378
0.0230199
0.0575852
0.018845
0.0687443
0.014875
0.0833074
0.0110725
0.102083
0.00744569
0.125909
0.00410702
0.155415
0.00138726
0.190252
0.228409
0.0343829
0.0477149
-0.0392779
0.029499
0.0540217
0.0247686
0.0623156
0.0202512
0.0732618
0.0159466
0.087612
0.0118397
0.10619
0.00794642
0.129803
0.00438289
0.158978
0.00148565
0.19315
0.229894
0.0363981
0.0527364
-0.0414196
0.0313457
0.0590741
0.0263789
0.0672824
0.0215765
0.0780642
0.0169724
0.0922161
0.0125776
0.110585
0.00842361
0.133957
0.00463688
0.162765
0.00156856
0.196218
0.231463
0.0381873
0.0579011
-0.0433521
0.0329834
0.064278
0.0278235
0.0724422
0.0227854
0.0831023
0.0179213
0.0970802
0.0132648
0.115242
0.0088663
0.138355
0.00486761
0.166764
0.00163968
0.199446
0.233102
0.0397439
0.0631937
-0.0450365
0.0344076
0.0696144
0.0290884
0.0777615
0.0238563
0.0883343
0.0187715
0.102165
0.0138843
0.120129
0.00926378
0.142976
0.00507043
0.170957
0.00169828
0.202818
0.234801
0.041055
0.0685887
-0.04645
0.0356103
0.075059
0.0301628
0.083209
0.0247742
0.0937229
0.0195065
0.107433
0.0144219
0.125213
0.00960656
0.147791
0.00524101
0.175323
0.00174396
0.206315
0.236545
0.0421084
0.0740562
-0.047576
0.0365832
0.0805843
0.0310383
0.0887539
0.025528
0.0992332
0.0201138
0.112847
0.0148661
0.130461
0.0098864
0.152771
0.00537537
0.179834
0.00177609
0.209914
0.238321
0.0428942
0.0795641
-0.0484021
0.0373184
0.0861601
0.0317072
0.0943652
0.026109
0.104831
0.020584
0.118372
0.0152085
0.135837
0.010098
0.157881
0.0054734
0.184458
0.0017993
0.213588
0.24012
0.0434072
-0.0489226
0.0378114
0.0321649
0.0265118
0.0209107
0.0154424
0.0102348
0.0055282
0.00180757
-0.0286202
0.0268456
-0.031293
-0.0252219
0.0243421
-0.0277404
-0.0224141
0.021358
-0.0241657
-0.0201609
0.0183242
-0.0205775
-0.018459
0.0154806
-0.0171825
-0.0172873
0.0129228
-0.0140946
-0.0166106
0.0106889
-0.0113656
-0.0163821
0.00878206
-0.00901053
-0.0165476
0.00717526
-0.00700972
0.00581423
-0.0170525
-0.00530934
-0.0362277
0.0230803
-0.0328712
0.0209856
-0.0300701
0.0185568
-0.0278423
0.0160964
-0.0261614
0.0137998
-0.0249883
0.0117497
-0.0242764
0.00997692
-0.0239729
0.00847859
-0.0240235
0.00722588
0.00616839
-0.0243777
-0.0455471
0.0195154
-0.0423414
0.0177799
-0.0396276
0.0158431
-0.0374451
0.0139139
-0.0357698
0.0121245
-0.0345584
0.0105383
-0.0337602
0.00917877
-0.0333222
0.00804054
-0.0331931
0.00709679
0.00630394
-0.0333286
-0.0573627
0.016099
-0.0542915
0.0147086
-0.0516659
0.0132175
-0.0495108
0.0117588
-0.0478029
0.0104166
-0.0465003
0.00923566
-0.045554
0.00823249
-0.0449147
0.00740131
-0.0445375
0.00671951
0.0061518
-0.0443853
-0.0724257
0.0128117
-0.0694625
0.0117455
-0.0668911
0.0106461
-0.0647216
0.00958937
-0.0629307
0.00862562
-0.0614798
0.00778485
-0.0603254
0.00707807
-0.0594245
0.00650034
-0.0587392
0.00603422
0.00565303
-0.0582404
-0.0915964
0.00962653
-0.0887098
0.00885885
-0.0861561
0.00809244
-0.0839345
0.00736778
-0.0820222
0.00671336
-0.0803856
0.0061482
-0.078987
0.00567952
-0.0777905
0.00530384
-0.0767651
0.00500876
0.00477566
-0.0758877
-0.115838
0.00654932
-0.113026
0.0060464
-0.110489
0.00555522
-0.108219
0.00509806
-0.106195
0.00468943
-0.104388
0.00434074
-0.102765
0.0040566
-0.101296
0.00383504
-0.0999548
0.00366754
0.00354195
-0.0987211
-0.146078
0.00367651
-0.143428
0.00339676
-0.140999
0.00312634
-0.138781
0.00288035
-0.136755
0.00266263
-0.134893
0.00247904
-0.133168
0.00233211
-0.131554
0.00222095
-0.130026
0.00213937
0.0020774
-0.128562
-0.182587
0.00128634
-0.180371
0.00118067
-0.178324
0.00107901
-0.176436
0.000992374
-0.174689
0.000916023
-0.173062
0.000851886
-0.171531
0.000800724
-0.170072
0.000762429
-0.168666
0.000733112
0.000698519
-0.167287
-0.224481
-0.223301
-0.222222
-0.221229
-0.220313
-0.219461
-0.218661
-0.217898
-0.217165
-0.216466
-0.0178521
0.00462877
-0.00382921
-0.0189101
0.00350702
-0.00244899
-0.0202141
0.00235328
-0.00104927
-0.0217748
0.00106471
0.000495936
-0.0236233
-0.000448492
0.00229705
-0.0258027
-0.00225458
0.00443396
-0.0283524
-0.00440141
0.00695111
-0.0313
-0.00692889
0.00987648
-0.0347064
-0.00989564
0.0133021
-0.0137554
-0.0382753
0.0173243
-0.0249986
0.00524969
-0.0258566
0.00436501
-0.0269452
0.00344193
-0.0282776
0.00239713
-0.0298826
0.00115652
-0.0317957
-0.000341529
-0.0340458
-0.00215129
-0.0366445
-0.00433018
-0.0395677
-0.00697248
-0.0104495
-0.0428736
-0.0337012
0.00562222
-0.0342866
0.00495041
-0.0350833
0.00423871
-0.0361058
0.0034196
-0.0373801
0.00243079
-0.038937
0.00121541
-0.0408053
-0.000282975
-0.0430096
-0.00212587
-0.0455787
-0.00440343
-0.00733058
-0.0486976
-0.0444406
0.00567746
-0.0446838
0.00519366
-0.045118
0.00467294
-0.0457594
0.00406096
-0.0466342
0.00330554
-0.047775
0.00235627
-0.0492199
0.00116195
-0.0510156
-0.000330233
-0.0532335
-0.00218546
-0.00450341
-0.0560607
-0.0579205
0.00535758
-0.0577637
0.00503682
-0.0577772
0.00468647
-0.05798
0.00426379
-0.0584011
0.00372657
-0.059078
0.00303321
-0.0600585
0.00214248
-0.0614037
0.0010149
-0.0631987
-0.000390446
-0.00211096
-0.0655911
-0.0751607
0.0046306
-0.0745702
0.00444631
-0.074127
0.00424322
-0.0738527
0.00398954
-0.0737791
0.00365294
-0.0739476
0.00320174
-0.0744107
0.00260556
-0.0752326
0.00183684
-0.0764939
0.000870801
-0.000303849
-0.078301
-0.0976065
0.00351603
-0.0965966
0.00343641
-0.0957034
0.00335008
-0.09495
0.00323607
-0.0943683
0.00307129
-0.0940001
0.00283355
-0.0938965
0.00250189
-0.094117
0.00205739
-0.0947295
0.00148333
0.00077522
-0.0958086
-0.127177
0.00213155
-0.125857
0.00211597
-0.12461
0.00210346
-0.123458
0.00208424
-0.12243
0.0020429
-0.121562
0.00196566
-0.120899
0.00183928
-0.120493
0.00165113
-0.120397
0.00138739
0.0010388
-0.120661
-0.165927
0.000770901
-0.164585
0.000774467
-0.163266
0.000784346
-0.161982
0.000800225
-0.160752
0.000812926
-0.159603
0.000816455
-0.158568
0.000804668
-0.157688
0.000771377
-0.157008
0.000706759
0.000587957
-0.156557
-0.215696
-0.214921
-0.214137
-0.213337
-0.212524
-0.211707
-0.210902
-0.210131
-0.209424
-0.208836
-0.000596434
-0.20824
-0.000774719
-0.156379
-6.74539e-05
-0.121368
0.00156525
-0.0974413
0.00402519
-0.0807609
0.00718538
-0.0687513
0.0109366
-0.0598119
0.0152264
-0.0529874
0.0201393
-0.0477865
-0.0441809
0.0260449
-0.000471755
-0.207768
-0.000345814
-0.156505
0.000800733
-0.122515
0.00296517
-0.0996058
0.0060191
-0.0838149
0.00981287
-0.0725451
0.0142083
-0.0642074
0.0190856
-0.0578646
0.0243171
-0.0530181
-0.0494926
0.0296288
-0.000334109
-0.207434
0.000119986
-0.156959
0.0017238
-0.124118
0.00442067
-0.102303
0.00804028
-0.0874345
0.0123986
-0.0769034
0.0173219
-0.0691307
0.0226403
-0.0631831
0.0281558
-0.0585336
-0.0549219
0.0335851
-0.000189278
-0.207245
0.000617993
-0.157766
0.0026985
-0.126199
0.00593302
-0.105537
0.0101067
-0.0916081
0.0150026
-0.0817993
0.0204217
-0.0745498
0.0261752
-0.0689366
0.0320607
-0.0644191
-0.0606944
0.0378332
-3.04743e-05
-0.207214
0.00115036
-0.158947
0.00372193
-0.12877
0.00749688
-0.109312
0.0122151
-0.0963264
0.0176297
-0.0872139
0.0235241
-0.0804442
0.029705
-0.0751175
0.035982
-0.0706961
-0.0668523
0.0421398
0.000143122
-0.207357
0.0017141
-0.160518
0.00478403
-0.13184
0.00909384
-0.113622
0.0143381
-0.101571
0.0202418
-0.0931176
0.0265748
-0.0867772
0.0331443
-0.081687
0.0397749
-0.0773267
-0.0733544
0.0462771
0.000331143
-0.207689
0.00230274
-0.162489
0.00586806
-0.135406
0.010694
-0.118448
0.0164298
-0.107306
0.0227744
-0.0994622
0.0294859
-0.0934888
0.0363741
-0.0885751
0.0432791
-0.0842318
-0.0801134
0.0500381
0.000531977
-0.208221
0.00290688
-0.164864
0.00695197
-0.139451
0.0122594
-0.123755
0.0184343
-0.113481
0.0251511
-0.106179
0.032159
-0.100497
0.039272
-0.0956881
0.0463475
-0.0913073
-0.087018
0.0532521
0.000745525
-0.208966
0.00351679
-0.167636
0.00801107
-0.143945
0.0137485
-0.129493
0.0202922
-0.120025
0.0272949
-0.113182
0.0345003
-0.107702
0.0417298
-0.102918
0.0488607
-0.0984382
-0.0939499
0.0557926
0.000979951
0.00412234
0.00901837
0.0151188
0.0219461
0.0291355
0.0364299
0.0436622
0.0507328
0.0575781
0.0675768
-0.455039
0.445999
0.07049
-0.380957
0.378044
0.0719989
-0.325088
0.323579
0.0729094
-0.278672
0.277762
0.0732466
-0.240676
0.240339
0.0732217
-0.207889
0.207914
0.0729345
-0.178816
0.179103
0.0724704
-0.152385
0.152849
0.0718902
-0.128636
0.129216
0.0712857
-0.106594
0.107198
0.0706237
-0.0876896
0.0883516
0.0700609
-0.0696179
0.0701807
0.0694564
-0.0555384
0.056143
0.0689741
-0.0424305
0.0429128
0.0686313
-0.0304053
0.0307481
0.0681802
-0.0263159
0.026767
0.0680359
-0.00783966
0.00798405
0.0681446
-0.0126341
0.0125254
0.0677754
0.00809958
-0.00773033
0.0352373
-0.0343028
0.0644875
-0.460792
0.0664373
-0.382907
0.0678642
-0.326515
0.0690726
-0.27988
0.0697779
-0.241382
0.0701033
-0.208215
0.0701353
-0.178848
0.0699515
-0.152201
0.0696141
-0.128299
0.0692108
-0.10619
0.068718
-0.0871967
0.0682904
-0.0691903
0.0677899
-0.055038
0.0674033
-0.0420438
0.0671181
-0.0301202
0.0667238
-0.0259217
0.0666621
-0.00777808
0.0667989
-0.012771
0.0664506
0.00844796
0.0361133
0.0608057
-0.463429
0.0619157
-0.384017
0.0633449
-0.327944
0.0648785
-0.281414
0.0659712
-0.242474
0.0666626
-0.208906
0.0670301
-0.179215
0.0671441
-0.152315
0.0670678
-0.128222
0.0668849
-0.106007
0.0665814
-0.0868932
0.0663096
-0.0689186
0.0659368
-0.0546651
0.0656689
-0.0417758
0.0654655
-0.0299168
0.0651582
-0.0256143
0.0652052
-0.0078251
0.0653962
-0.012962
0.065105
0.00873915
0.0368904
0.0566275
-0.463172
0.0570087
-0.384398
0.0584855
-0.329421
0.060353
-0.283282
0.0618471
-0.243968
0.0629209
-0.20998
0.0636416
-0.179936
0.0640721
-0.152746
0.0642753
-0.128425
0.0643313
-0.106064
0.0642361
-0.0867981
0.0641393
-0.0688218
0.0639156
-0.0544414
0.0637873
-0.0416475
0.0636885
-0.0298181
0.0634957
-0.0254215
0.0636746
-0.00800395
0.0639441
-0.0132315
0.0637441
0.00893916
0.0375315
0.0520939
-0.46033
0.0518385
-0.384143
0.0533448
-0.330928
0.0555262
-0.285463
0.0574279
-0.24587
0.0589006
-0.211453
0.0599931
-0.181028
0.0607593
-0.153512
0.0612605
-0.128927
0.0615734
-0.106376
0.0617044
-0.0869291
0.0618003
-0.0689176
0.0617453
-0.0543865
0.0617752
-0.0416774
0.061802
-0.0298448
0.0617487
-0.0253683
0.0620797
-0.00833487
0.0624503
-0.0136021
0.0623733
0.00901608
0.038002
0.0473239
-0.455258
0.0464366
-0.383255
0.0479161
-0.332407
0.0503975
-0.287944
0.052725
-0.248198
0.0546202
-0.213348
0.0561065
-0.182515
0.0572289
-0.154635
0.0580467
-0.129745
0.0586343
-0.106964
0.0590081
-0.087303
0.0593131
-0.0692226
0.0594447
-0.0545181
0.0596495
-0.0418822
0.0598211
-0.0300164
0.0599297
-0.0254769
0.0604301
-0.00883533
0.0609227
-0.0140947
0.0609983
0.00894052
0.0382704
0.0419572
-0.447844
0.0404049
-0.381703
0.041966
-0.333968
0.0448634
-0.290842
0.0477042
-0.251039
0.0500769
-0.21572
0.0519926
-0.18443
0.053498
-0.15614
0.054654
-0.130901
0.0555347
-0.107845
0.0561679
-0.0879361
0.0566976
-0.0697524
0.0570321
-0.0548525
0.0574266
-0.0422767
0.0577607
-0.0303504
0.0580507
-0.0257669
0.0587356
-0.00952021
0.0593694
-0.0147286
0.0596243
0.00868558
0.0383084
0.0352167
-0.437146
0.0333217
-0.379808
0.035301
-0.335947
0.038832
-0.294373
0.0423199
-0.254526
0.0452531
-0.218654
0.0476514
-0.186829
0.0495764
-0.158065
0.0510972
-0.132421
0.0522921
-0.10904
0.0532019
-0.0888459
0.053972
-0.0705225
0.0545246
-0.0554051
0.0551225
-0.0428746
0.0556353
-0.0308633
0.0561237
-0.0262552
0.0570055
-0.0104021
0.0577983
-0.0155213
0.0582569
0.00822693
0.0380905
0.0291188
-0.424248
0.0269807
-0.37767
0.028937
-0.337904
0.0327848
-0.29822
0.0367843
-0.258526
0.0402517
-0.222121
0.0431416
-0.189719
0.0455034
-0.160427
0.0474066
-0.134325
0.0489322
-0.110565
0.0501328
-0.0900466
0.0511565
-0.0715462
0.0519405
-0.056189
0.0527532
-0.0436873
0.0534594
-0.0315695
0.0541603
-0.0269561
0.0552495
-0.0114913
0.0562172
-0.0164889
0.0569012
0.0075429
0.0375944
0.0292569
-0.415748
0.024568
-0.372981
0.0246833
-0.338019
0.0276053
-0.301142
0.031538
-0.262459
0.0353141
-0.225897
0.0386013
-0.193006
0.0413616
-0.163187
0.0436353
-0.136598
0.0454915
-0.112421
0.0469884
-0.0915435
0.0482722
-0.07283
0.0492985
-0.0572153
0.0503327
-0.0447215
0.0512475
-0.0324843
0.0521708
-0.0278794
0.0534763
-0.0127968
0.054636
-0.0176487
0.055561
0.00661791
0.0367994
0.240604
-0.355185
-0.301167
0.203364
-0.33574
0.172819
-0.307474
0.150943
-0.279267
0.136617
-0.248133
0.126664
-0.215944
0.119317
-0.185659
0.113779
-0.15765
0.109513
-0.132331
0.106208
-0.109117
0.103621
-0.0889563
0.101691
-0.0708998
0.100211
-0.0557358
0.0992541
-0.0437643
0.098673
-0.0319032
0.0982084
-0.0274148
0.0987695
-0.0133578
0.0989391
-0.0178183
0.0985821
0.00697488
0.0368017
0.273851
-0.292135
-0.336902
0.232303
-0.294192
0.201245
-0.276416
0.177467
-0.255489
0.16048
-0.231146
0.148169
-0.203633
0.138807
-0.176296
0.131615
-0.150458
0.126039
-0.126755
0.12171
-0.104788
0.118322
-0.0855688
0.115752
-0.0683292
0.11381
-0.0537937
0.112459
-0.0424138
0.111631
-0.0310747
0.110954
-0.0267377
0.111489
-0.013893
0.111438
-0.0177674
0.110921
0.00749147
0.0366139
0.315555
-0.232435
-0.375255
0.271017
-0.249655
0.237184
-0.242583
0.209493
-0.227797
0.188297
-0.20995
0.172712
-0.188048
0.160863
-0.164447
0.151682
-0.141277
0.144529
-0.119601
0.138968
-0.099228
0.134615
-0.0812159
0.131273
-0.0649867
0.128758
-0.0512792
0.126917
-0.0405723
0.125761
-0.0299187
0.124809
-0.0257862
0.125241
-0.0143246
0.124857
-0.0173837
0.124201
0.00814724
0.0361145
0.355832
-0.178785
-0.409483
0.309904
-0.203727
0.273864
-0.206543
0.243868
-0.197801
0.219315
-0.185396
0.200385
-0.169118
0.185772
-0.149834
0.174286
-0.129791
0.165227
-0.110543
0.158153
-0.092154
0.152608
-0.075671
0.148319
-0.0606975
0.145092
-0.048052
0.142634
-0.0381147
0.141062
-0.0283465
0.139746
-0.0244697
0.139961
-0.01454
0.139126
-0.0165484
0.138391
0.00888238
0.0351159
0.395423
-0.13312
-0.441087
0.350614
-0.158918
0.312887
-0.168816
0.281071
-0.165986
0.253756
-0.158081
0.231453
-0.146815
0.213786
-0.132167
0.199697
-0.115702
0.188408
-0.0992546
0.179495
-0.0832409
0.172473
-0.0686486
0.167012
-0.0552366
0.162881
-0.0439206
0.159655
-0.0348894
0.157547
-0.0262378
0.155746
-0.0226686
0.155585
-0.0143797
0.154187
-0.0151501
0.153519
0.00955079
0.0333542
0.431795
-0.0954587
-0.469456
0.390806
-0.117929
0.352971
-0.130982
0.320013
-0.133027
0.290898
-0.128966
0.265799
-0.121716
0.245071
-0.111439
0.228184
-0.0988148
0.214402
-0.0854725
0.203326
-0.0721652
0.194503
-0.0598256
0.187595
-0.0483289
0.182308
-0.0386337
0.178131
-0.0307116
0.175313
-0.0234206
0.17287
-0.020225
0.172122
-0.013632
0.170088
-0.0131158
0.169754
0.00988449
0.0304853
0.466232
-0.0651828
-0.496508
0.430669
-0.0823652
0.394595
-0.0949081
0.361249
-0.0996805
0.330944
-0.0986618
0.303689
-0.0944611
0.280078
-0.0878276
0.260235
-0.0789727
0.243712
-0.0689489
0.230164
-0.0586176
0.219204
-0.0488651
0.210535
-0.0396604
0.203793
-0.0318912
0.198443
-0.0253617
0.19468
-0.0196573
0.191393
-0.0169387
0.189801
-0.0120399
0.187137
-0.0104514
0.187539
0.00948254
0.0260996
0.502751
-0.0407114
-0.527223
0.472471
-0.0520847
0.439215
-0.061652
0.406209
-0.0666743
0.374967
-0.0674198
0.345905
-0.0653994
0.319633
-0.0615562
0.296726
-0.0560656
0.277199
-0.0494211
0.260872
-0.0422914
0.247444
-0.0354369
0.236685
-0.0289013
0.228169
-0.0233755
0.221405
-0.018597
0.216407
-0.0146595
0.212051
-0.0125833
0.209349
-0.00933769
0.206171
-0.00727293
0.207782
0.00787148
0.0197676
0.548025
-0.0199099
-0.568827
0.521529
-0.0255886
0.490681
-0.0308036
0.457999
-0.0339928
0.425536
-0.0349571
0.394403
-0.0342658
0.36537
-0.0325235
0.33921
-0.0299054
0.316363
-0.0265746
0.296933
-0.022861
0.28073
-0.0192337
0.267576
-0.015748
0.257007
-0.0128058
0.248594
-0.0101844
0.242092
-0.00815756
0.236465
-0.00695635
0.232462
-0.00533403
0.228957
-0.00376865
0.232151
0.00467766
0.0111311
0.612491
-0.632401
0.586902
0.556099
0.522106
0.487149
0.452883
0.42036
0.390454
0.36388
0.341019
0.321785
0.306037
0.293231
0.283047
0.274889
0.267933
0.262599
0.25883
0.263508
0.332964
0.0039505
-0.330532
0.334434
0.00887885
0.334851
0.0137858
0.334131
0.0186368
0.332182
0.0234239
0.328918
0.0280665
0.324132
0.0327266
0.317758
0.0368583
0.308922
0.041925
0.0412995
0.349909
0.00247591
-0.348435
0.350876
0.007912
0.351292
0.0133698
0.351118
0.0188108
0.350326
0.0242159
0.348901
0.0294914
0.346917
0.0347109
0.344424
0.0393515
0.341841
0.0445079
0.0462388
0.369711
0.00169283
-0.368928
0.370482
0.00714124
0.371258
0.0125934
0.37206
0.018009
0.372916
0.0233605
0.373815
0.0285917
0.37477
0.0337567
0.37549
0.038631
0.376131
0.0438672
0.047115
0.390704
0.00116278
-0.390174
0.391573
0.00627253
0.392788
0.0113783
0.394343
0.0164541
0.396223
0.0214809
0.398383
0.0264312
0.400831
0.0313092
0.403466
0.0359956
0.40661
0.0407237
0.0442418
0.411159
0.000748142
-0.410744
0.412144
0.00528779
0.413704
0.00981765
0.415846
0.0143125
0.418579
0.0187474
0.421915
0.0230954
0.425885
0.0273396
0.430445
0.0314356
0.435704
0.0354642
0.0388591
0.432089
0.000391736
-0.431733
0.433195
0.00418215
0.435061
0.00795205
0.437695
0.0116785
0.441102
0.0153396
0.445283
0.018915
0.450235
0.0223875
0.455935
0.0257355
0.462433
0.0289657
0.0318362
0.455784
0.000120831
-0.455513
0.456903
0.00306263
0.458876
0.00597878
0.461706
0.00884875
0.465393
0.0116527
0.469936
0.014372
0.475334
0.0169893
0.481581
0.0194885
0.488688
0.021859
0.0240159
0.48575
-3.46155e-05
-0.485595
0.486815
0.00199787
0.488789
0.00400497
0.491668
0.0059699
0.495444
0.00787657
0.500106
0.00970986
0.50564
0.0114559
0.512026
0.013102
0.519247
0.0146376
0.0160406
0.527286
-6.438e-05
-0.527256
0.528283
0.0010015
0.530238
0.00204989
0.533137
0.00307042
0.536961
0.00405314
0.541682
0.00498872
0.547269
0.00586856
0.553686
0.00668497
0.560892
0.00743137
0.00810594
0.589146
-0.589211
0.590148
0.592198
0.595268
0.599321
0.60431
0.610178
0.616863
0.624295
0.279725
-0.0328761
-0.281174
0.288201
-0.0392356
0.295393
-0.0338919
0.301541
-0.0287256
0.307536
-0.0244404
0.313279
-0.0200334
0.318541
-0.015396
0.323223
-0.0106658
0.327251
-0.00586964
-0.00100575
0.318557
-0.0360971
-0.315336
0.322858
-0.043537
0.327509
-0.0385421
0.331387
-0.0326041
0.334877
-0.0279306
0.338255
-0.0234116
0.341385
-0.018526
0.344145
-0.0134253
0.346503
-0.00822729
-0.00293789
0.35903
-0.0385557
-0.356571
0.360245
-0.0447523
0.36176
-0.0400573
0.3632
-0.0340437
0.364312
-0.0290427
0.365321
-0.024421
0.366319
-0.0195237
0.367258
-0.0143642
0.36812
-0.00908996
-0.00374567
0.397794
-0.0388405
-0.397509
0.395694
-0.0426521
0.394038
-0.0384016
0.392941
-0.0329468
0.391959
-0.0280607
0.391073
-0.0235353
0.390425
-0.0188751
0.390058
-0.0139969
0.389969
-0.00900157
-0.0039509
0.431886
-0.0365893
-0.434137
0.427081
-0.037847
0.422883
-0.0342044
0.41963
-0.0296937
0.416947
-0.0253773
0.414669
-0.0212573
0.412865
-0.0170712
0.411603
-0.0127353
0.410896
-0.0082948
-0.00379888
0.461464
-0.0318682
-0.466185
0.455078
-0.0314605
0.449372
-0.0284992
0.444694
-0.0250154
0.440834
-0.0215176
0.43763
-0.0180526
0.435082
-0.0145236
0.433238
-0.0108913
0.43212
-0.00717655
-0.00341213
0.490194
-0.0253383
-0.496724
0.483058
-0.0243242
0.47664
-0.0220817
0.471171
-0.0195465
0.466575
-0.016921
0.462764
-0.0142416
0.459729
-0.011489
0.457497
-0.00865892
0.456088
-0.00576731
-0.00283706
0.523633
-0.0177084
-0.531263
0.51608
-0.0167712
0.509262
-0.0152633
0.503305
-0.01359
0.498207
-0.0118229
0.49395
-0.00998473
0.490542
-0.00808072
0.488002
-0.00611921
0.486349
-0.00411428
-0.00208276
0.568731
-0.00928721
-0.577152
0.560721
-0.00876105
0.553455
-0.00799754
0.547017
-0.00715149
0.541439
-0.00624509
0.536744
-0.00529024
0.532958
-0.00429411
0.530103
-0.00326424
0.528198
-0.00220979
-0.0011409
0.635565
-0.644852
0.626804
0.618806
0.611655
0.60541
0.60012
0.595826
0.592561
0.590352
0.127379
0.0120815
-0.0125289
0.128823
0.0368646
-0.0383088
0.131461
0.0624225
-0.06506
0.135374
0.0905181
-0.0944312
0.141524
0.120265
-0.126415
0.149689
0.156595
-0.16476
0.163876
0.192726
-0.206913
0.180581
0.246542
-0.263247
0.221566
0.279101
-0.320085
0.355441
-0.415049
0.148731
0.0114446
0.150692
0.0349042
0.15426
0.0588545
0.159454
0.0853237
0.167662
0.112056
0.178132
0.146125
0.196896
0.173962
0.217985
0.225453
0.26697
0.230116
0.307075
0.173603
0.0106079
0.176148
0.0323593
0.180794
0.054209
0.187477
0.0786407
0.198035
0.101498
0.211137
0.133023
0.234251
0.150848
0.260126
0.199578
0.306295
0.183946
0.256799
0.202586
0.00955681
0.205759
0.0291861
0.211546
0.0484226
0.219799
0.0703878
0.232628
0.0886683
0.248437
0.117214
0.273767
0.125519
0.303914
0.169431
0.342474
0.145387
0.201764
0.236351
0.00827824
0.240174
0.0253623
0.24704
0.0415572
0.256864
0.0605632
0.271321
0.0742114
0.289893
0.0986421
0.314491
0.100921
0.348483
0.135439
0.379809
0.114061
0.147436
0.275657
0.00678868
0.280107
0.0209119
0.287804
0.0338604
0.299073
0.0492943
0.314135
0.0591492
0.334976
0.0778016
0.357432
0.0784643
0.392433
0.100438
0.419892
0.0866026
0.101142
0.321407
0.00515627
0.326367
0.0159522
0.334538
0.0256893
0.34679
0.0370428
0.36175
0.0441889
0.38321
0.056341
0.40408
0.0575948
0.435981
0.0685361
0.461391
0.0611926
0.0658094
0.374699
0.00346882
0.379932
0.010719
0.388302
0.0173196
0.400776
0.0245684
0.415492