/*--------------------------------*- C++ -*----------------------------------*\
| =========                 |                                                 |
| \\      /  F ield         | OpenFOAM: The Open Source CFD Toolbox           |
|  \\    /   O peration     | Version:  v1912                                 |
|   \\  /    A nd           | Website:  www.openfoam.com                      |
|    \\/     M anipulation  |                                                 |
\*---------------------------------------------------------------------------*/
FoamFile
{
    version     2.0;
    format      ascii;
    class       volScalarField;
    location    "13.5";
    object      p;
}
// * * * * * * * * * * * * * * * * * * * * * * * * * * * * * * * * * * * * * //

dimensions      [0 2 -2 0 0 0 0];


internalField   nonuniform List<scalar> 
9600
(
-40.2029
-34.8822
-31.6026
-28.814
-26.2749
-23.9905
-21.9302
-20.0642
-18.3728
-16.8404
-15.4524
-14.1954
-13.0569
-12.0251
-11.0891
-10.2392
-9.46634
-8.76227
-8.1192
-7.53523
-40.8441
-35.5103
-32.2006
-29.3758
-26.7985
-24.4768
-22.3817
-20.4841
-18.7645
-17.2072
-15.7974
-14.5214
-13.3663
-12.3199
-11.3711
-10.5096
-9.72645
-9.01284
-8.36071
-7.7694
-41.4883
-36.1358
-32.7945
-29.9335
-27.3177
-24.9587
-22.8288
-20.8997
-19.1521
-17.5701
-16.1389
-14.8441
-13.6726
-12.6119
-11.6503
-10.7775
-9.98411
-9.26104
-8.5999
-8.00141
-42.1324
-36.7585
-33.3841
-30.4862
-27.8318
-25.4353
-23.2707
-21.3102
-19.5348
-17.9285
-16.476
-15.1628
-13.9752
-12.9003
-11.9263
-11.0424
-10.2389
-9.50645
-8.8364
-8.23097
-42.774
-37.377
-33.9687
-31.0332
-28.3399
-25.9058
-23.7065
-21.7149
-19.912
-18.2816
-16.8083
-15.4769
-14.2735
-13.1848
-12.1986
-11.3037
-10.4904
-9.74872
-9.06989
-8.45782
-43.4109
-37.9901
-34.5473
-31.5736
-28.8411
-26.3694
-24.1356
-22.113
-20.2829
-18.6289
-17.135
-15.7859
-14.567
-13.4648
-12.4666
-11.5611
-10.7381
-9.98748
-9.30008
-8.68173
-44.0418
-38.5966
-35.1188
-32.1065
-29.3346
-26.8253
-24.557
-22.5038
-20.6468
-18.9695
-17.4555
-16.089
-14.8551
-13.7397
-12.7299
-11.8141
-10.9818
-10.2224
-9.52664
-8.90242
-44.6652
-39.1953
-35.6822
-32.6309
-29.8194
-27.2726
-24.9701
-22.8865
-21.0031
-19.3029
-17.7692
-16.3857
-15.1372
-14.009
-12.988
-12.0622
-11.2208
-10.453
-9.74922
-9.11961
-45.28
-39.7851
-36.2364
-33.1458
-30.2947
-27.7104
-25.374
-23.2604
-21.3509
-19.6282
-18.0753
-16.6754
-15.4125
-14.272
-13.2401
-12.3048
-11.4548
-10.6788
-9.96742
-9.33295
-45.8852
-40.3649
-36.7804
-33.6504
-30.7596
-28.138
-25.7679
-23.6246
-21.6895
-19.9449
-18.3732
-16.9571
-15.6805
-14.528
-13.4858
-12.5412
-11.683
-10.8994
-10.1807
-9.54202
-46.4798
-40.9339
-37.3134
-34.1437
-31.2132
-28.5545
-26.1509
-23.9785
-22.0182
-20.252
-18.662
-17.2304
-15.9404
-14.7764
-13.7241
-12.7708
-11.9049
-11.1139
-10.3886
-9.74622
-47.0629
-41.4912
-37.8344
-34.6248
-31.6547
-28.959
-26.5225
-24.3212
-22.3361
-20.5489
-18.941
-17.4942
-16.1912
-15.0162
-13.9543
-12.9927
-12.1195
-11.3218
-10.5902
-9.94478
-47.6341
-42.0359
-38.3427
-35.0931
-32.0834
-29.351
-26.8817
-24.652
-22.6426
-20.8348
-19.2094
-17.7478
-16.4323
-15.2465
-14.1754
-13.2059
-12.3259
-11.5219
-10.7846
-10.1369
-48.1928
-42.5674
-38.8375
-35.5477
-32.4985
-29.7295
-27.2279
-24.9702
-22.9369
-21.1089
-19.4664
-17.9903
-16.6625
-15.4662
-14.3863
-13.4093
-12.5228
-11.7132
-10.9708
-10.322
-48.7384
-43.0849
-39.3181
-35.9881
-32.8993
-30.0942
-27.5606
-25.2753
-23.2185
-21.3706
-19.7113
-18.2209
-16.881
-15.6743
-14.5856
-13.6011
-12.7085
-11.8935
-11.1468
-10.4981
-49.2708
-43.5878
-39.7837
-36.4135
-33.2853
-30.4443
-27.8791
-25.5666
-23.4868
-21.6193
-19.9434
-18.4389
-17.0868
-15.8698
-14.7722
-13.7802
-12.8812
-12.061
-11.3101
-10.6606
-49.791
-44.0759
-40.2339
-36.8233
-33.6559
-30.7793
-28.1829
-25.8438
-23.7412
-21.8544
-20.1621
-18.6435
-17.2793
-16.0518
-14.9451
-13.9457
-13.0407
-12.2154
-11.4596
-10.8065
-50.3035
-44.5504
-40.6677
-37.2164
-34.0101
-31.0984
-28.4716
-26.1063
-23.9815
-22.0758
-20.367
-18.8341
-17.4573
-16.2187
-15.1025
-14.0952
-13.1844
-12.3542
-11.5941
-10.9449
-50.8105
-45.0109
-41.0836
-37.5916
-34.3476
-31.4018
-28.7453
-26.3547
-24.2082
-22.2837
-20.5586
-19.0111
-17.6208
-16.3696
-15.2417
-14.2236
-13.3025
-12.4629
-11.701
-11.079
-51.29
-45.4495
-41.4806
-37.9497
-34.6695
-31.6909
-29.0057
-26.5904
-24.4228
-22.48
-20.7387
-19.1764
-17.772
-16.5068
-15.3642
-14.3299
-13.3889
-12.5275
-11.7566
-11.1392
-56.0857
-56.057
-55.9939
-55.911
-55.8074
-55.6805
-55.5298
-55.3558
-55.1591
-54.9402
-54.6996
-54.4378
-54.1557
-53.8539
-53.5331
-53.1942
-52.8385
-52.4677
-52.0847
-51.6927
-49.821
-49.8189
-49.7868
-49.7305
-49.6506
-49.5463
-49.4179
-49.2662
-49.0919
-48.8954
-48.6775
-48.4388
-48.1798
-47.9013
-47.6039
-47.2883
-46.9552
-46.6052
-46.2388
-45.8542
-45.3129
-45.3325
-45.3258
-45.2934
-45.2366
-45.156
-45.0523
-44.9261
-44.7781
-44.6088
-44.4188
-44.2087
-43.9791
-43.7304
-43.4633
-43.1782
-42.8755
-42.5552
-42.2172
-41.8596
-41.239
-41.2742
-41.2855
-41.2726
-41.2363
-41.1774
-41.0967
-40.9948
-40.8722
-40.7294
-40.5669
-40.3853
-40.1851
-39.9668
-39.7308
-39.4775
-39.207
-38.9194
-38.6144
-38.2914
-37.495
-37.5386
-37.5608
-37.561
-37.5394
-37.4968
-37.4339
-37.3512
-37.2492
-37.1283
-36.9891
-36.832
-36.6576
-36.4662
-36.2584
-36.0342
-35.794
-35.5376
-35.2651
-34.976
-34.1478
-34.1949
-34.2227
-34.2304
-34.2181
-34.1863
-34.1357
-34.0667
-33.9799
-33.8757
-33.7546
-33.617
-33.4635
-33.2944
-33.1101
-32.9109
-32.697
-32.4683
-32.2247
-31.9658
-31.1824
-31.2295
-31.2589
-31.2698
-31.2623
-31.2368
-31.1939
-31.1341
-31.0579
-30.9656
-30.8579
-30.7351
-30.5977
-30.4461
-30.2808
-30.102
-29.9099
-29.7045
-29.4857
-29.253
-28.5604
-28.605
-28.6332
-28.6443
-28.6384
-28.6159
-28.5774
-28.5232
-28.4538
-28.3698
-28.2714
-28.1594
-28.0341
-27.896
-27.7455
-27.583
-27.4086
-27.2225
-27.0245
-26.8141
-26.2419
-26.2826
-26.308
-26.3175
-26.3112
-26.2895
-26.2529
-26.2018
-26.1367
-26.058
-25.9662
-25.8618
-25.7453
-25.6174
-25.4784
-25.3287
-25.1688
-24.9985
-24.8178
-24.6263
-24.1882
-24.2244
-24.2461
-24.2531
-24.2452
-24.223
-24.1869
-24.1372
-24.0745
-23.9992
-23.9118
-23.8128
-23.7029
-23.5825
-23.4524
-23.313
-23.1646
-23.0075
-22.8414
-22.6661
-22.3634
-22.3949
-22.4127
-22.4167
-22.4067
-22.3832
-22.3467
-22.2975
-22.2361
-22.1629
-22.0784
-21.9833
-21.8781
-21.7636
-21.6403
-21.509
-21.3701
-21.224
-21.0706
-20.9093
-20.7356
-20.7626
-20.7766
-20.7775
-20.7652
-20.7402
-20.7028
-20.6535
-20.5927
-20.5208
-20.4383
-20.346
-20.2443
-20.1342
-20.0163
-19.8914
-19.7604
-19.6237
-19.4813
-19.3328
-19.2775
-19.3003
-19.3108
-19.3087
-19.2941
-19.2675
-19.2292
-19.1795
-19.1189
-19.0478
-18.9668
-18.8764
-18.7774
-18.6706
-18.5569
-18.4373
-18.3128
-18.1841
-18.0517
-17.9149
-17.9659
-17.985
-17.9922
-17.9874
-17.9708
-17.9427
-17.9034
-17.8533
-17.7927
-17.7221
-17.6421
-17.5532
-17.4562
-17.352
-17.2415
-17.126
-17.0068
-16.8851
-16.7618
-16.6362
-16.7815
-16.7971
-16.8014
-16.7943
-16.7758
-16.7463
-16.7062
-16.6556
-16.5951
-16.5249
-16.4457
-16.3579
-16.2624
-16.1601
-16.052
-15.9396
-15.8247
-15.7087
-15.5939
-15.4793
-15.7079
-15.7205
-15.7222
-15.7129
-15.6928
-15.6622
-15.6212
-15.5703
-15.5098
-15.4399
-15.3613
-15.2745
-15.1801
-15.0791
-14.9727
-14.8624
-14.7505
-14.639
-14.5318
-14.4279
-14.7315
-14.7414
-14.7408
-14.7297
-14.7081
-14.6764
-14.6348
-14.5835
-14.5229
-14.4533
-14.3752
-14.2889
-14.1953
-14.095
-13.9894
-13.8801
-13.7698
-13.6611
-13.5601
-13.4657
-13.8405
-13.8482
-13.8459
-13.8333
-13.8107
-13.7783
-13.7362
-13.6848
-13.6243
-13.555
-13.4772
-13.3915
-13.2983
-13.1983
-13.0928
-12.9833
-12.873
-12.7652
-12.6693
-12.5819
-13.0239
-13.0304
-13.0272
-13.0141
-12.9914
-12.9591
-12.9176
-12.867
-12.8076
-12.7396
-12.6633
-12.579
-12.4873
-12.3887
-12.284
-12.1747
-12.0637
-11.9556
-11.865
-11.7884
-12.2764
-12.2799
-12.2742
-12.2594
-12.2355
-12.2028
-12.1613
-12.1113
-12.053
-11.9865
-11.9122
-11.8302
-11.7408
-11.6445
-11.5417
-11.4333
-11.3208
-11.2091
-11.1131
-11.0569
-50.4619
-50.9714
-51.447
-51.9111
-52.3605
-52.7892
-53.1946
-53.5755
-53.9312
-54.2607
-54.5632
-54.8383
-55.0858
-55.3054
-55.497
-55.6604
-55.7957
-55.9042
-55.9879
-56.0487
-44.0828
-44.5985
-45.0889
-45.5603
-46.0119
-46.4414
-46.8475
-47.2294
-47.5867
-47.9188
-48.2247
-48.5042
-48.7574
-48.9842
-49.1852
-49.3595
-49.5062
-49.6257
-49.7186
-49.784
-39.5797
-40.0848
-40.5692
-41.033
-41.4761
-41.898
-42.2978
-42.6749
-43.0289
-43.3596
-43.6654
-43.946
-44.2018
-44.4322
-44.636
-44.8138
-44.9664
-45.0935
-45.1946
-45.2682
-35.6036
-36.0865
-36.5523
-36.9991
-37.4262
-37.8335
-38.2206
-38.5867
-38.9314
-39.2534
-39.5528
-39.8281
-40.0806
-40.3097
-40.5149
-40.6964
-40.854
-40.9876
-41.0965
-41.1804
-32.0665
-32.523
-32.9647
-33.3891
-33.7954
-34.183
-34.5517
-34.9008
-35.2295
-35.5373
-35.8245
-36.0917
-36.3366
-36.5595
-36.7605
-36.9393
-37.0958
-37.2298
-37.3411
-37.4297
-28.9948
-29.4238
-29.8394
-30.2393
-30.6222
-30.9879
-31.3358
-31.6654
-31.9763
-32.2681
-32.5406
-32.7936
-33.026
-33.2381
-33.4304
-33.6024
-33.7534
-33.8834
-33.9926
-34.0809
-26.3363
-26.7383
-27.1281
-27.5033
-27.8627
-28.2058
-28.5323
-28.8417
-29.1335
-29.4075
-29.6633
-29.9007
-30.1193
-30.3189
-30.4988
-30.6614
-30.8047
-30.9283
-31.0324
-31.1172
-24.0267
-24.4036
-24.769
-25.1206
-25.4575
-25.7789
-26.0845
-26.3739
-26.6468
-26.9027
-27.1416
-27.3631
-27.5673
-27.7538
-27.9227
-28.0723
-28.2063
-28.3221
-28.4195
-28.4991
-22.0104
-22.3644
-22.7073
-23.0373
-23.3532
-23.6543
-23.9403
-24.2108
-24.4655
-24.7043
-24.9268
-25.1331
-25.3229
-25.4962
-25.6529
-25.793
-25.9152
-26.0222
-26.1123
-26.1856
-20.2396
-20.573
-20.8957
-21.2061
-21.5029
-21.7854
-22.0533
-22.3063
-22.5443
-22.7669
-22.9742
-23.166
-23.3423
-23.503
-23.6479
-23.7772
-23.8906
-23.9882
-24.0707
-24.1375
-18.6746
-18.9895
-19.2944
-19.5872
-19.8667
-20.1323
-20.3838
-20.6208
-20.8433
-21.0512
-21.2444
-21.4229
-21.5867
-21.7356
-21.8697
-21.989
-22.0933
-22.1827
-22.2577
-22.3181
-17.2827
-17.5813
-17.8704
-18.1478
-18.4118
-18.6621
-18.8986
-19.1211
-19.3295
-19.5239
-19.7042
-19.8706
-20.0229
-20.1611
-20.2853
-20.3954
-20.4913
-20.5734
-20.6412
-20.6955
-16.0376
-16.322
-16.5975
-16.8611
-17.1112
-17.3477
-17.5705
-17.7796
-17.9752
-18.1572
-18.3259
-18.4811
-18.623
-18.7515
-18.8667
-18.9684
-19.0568
-19.1318
-19.1933
-19.2422
-14.9181
-15.1899
-15.4539
-15.7055
-15.943
-16.1667
-16.377
-16.5739
-16.7577
-16.9284
-17.0864
-17.2316
-17.364
-17.4837
-17.5907
-17.685
-17.7665
-17.8354
-17.8917
-17.935
-13.9069
-14.1682
-14.4225
-14.6633
-14.8893
-15.1013
-15.2999
-15.4855
-15.6583
-15.8187
-15.9669
-16.1029
-16.2268
-16.3385
-16.4382
-16.5257
-16.601
-16.6643
-16.7154
-16.7544
-12.9894
-13.2434
-13.4902
-13.721
-13.936
-14.1369
-14.3246
-14.4994
-14.6621
-14.8129
-14.952
-15.0796
-15.1957
-15.3002
-15.3932
-15.4746
-15.5444
-15.6026
-15.6491
-15.6842
-12.1484
-12.4019
-12.6449
-12.866
-13.0702
-13.2606
-13.4378
-13.6026
-13.7557
-13.8976
-14.0285
-14.1485
-14.2575
-14.3555
-14.4425
-14.5184
-14.5832
-14.6369
-14.6794
-14.7108
-11.3633
-11.6218
-11.8669
-12.0803
-12.2743
-12.4548
-12.6226
-12.7784
-12.9232
-13.0574
-13.1813
-13.2948
-13.3978
-13.4904
-13.5724
-13.6438
-13.7045
-13.7546
-13.7939
-13.8228
-10.6423
-10.8959
-11.1437
-11.3534
-11.539
-11.71
-11.869
-12.0168
-12.1542
-12.2817
-12.3994
-12.5074
-12.6055
-12.6935
-12.7715
-12.8392
-12.8967
-12.944
-12.9809
-13.0076
-10.1001
-10.3384
-10.5549
-10.7559
-10.9312
-11.087
-11.2318
-11.3671
-11.493
-11.6095
-11.7171
-11.8156
-11.9049
-11.9848
-12.0552
-12.1161
-12.1674
-12.209
-12.2409
-12.2632
-5.17124
-5.62908
-6.13479
-6.68607
-7.28972
-7.95346
-8.68536
-9.49531
-10.3958
-11.4026
-12.5361
-13.8226
-15.2964
-17.0015
-18.9949
-21.3514
-24.1476
-27.4033
-31.334
-37.2745
-5.41666
-5.88576
-6.39989
-6.96094
-7.57582
-8.25199
-8.99764
-9.8229
-10.7405
-11.7665
-12.9215
-14.2324
-15.7336
-17.4696
-19.4975
-21.8921
-24.7291
-28.0254
-31.9895
-37.9474
-5.66387
-6.14427
-6.66694
-7.23799
-7.86435
-8.55319
-9.31286
-10.1537
-11.0887
-12.1341
-13.3111
-14.6466
-16.1755
-17.9427
-20.0055
-22.4382
-25.3155
-28.6514
-32.6471
-38.6181
-5.9124
-6.40407
-6.93538
-7.51664
-8.1547
-8.85643
-9.6303
-10.4869
-11.4395
-12.5047
-13.7037
-15.0641
-16.621
-18.4195
-20.5172
-22.9881
-25.9055
-29.2809
-33.3094
-39.2982
-6.16184
-6.66474
-7.20478
-7.79645
-8.44641
-9.1612
-9.94946
-10.822
-11.7924
-12.8775
-14.0988
-15.4842
-17.0692
-18.8992
-21.0319
-23.5408
-26.4983
-29.9134
-33.9754
-39.9853
-6.41184
-6.92588
-7.47474
-8.07703
-8.73908
-9.4671
-10.2699
-11.1586
-12.1469
-13.252
-14.4958
-15.9063
-17.5195
-19.3812
-21.5488
-24.0959
-27.0935
-30.548
-34.6433
-40.6755
-6.6621
-7.18716
-7.74491
-8.35801
-9.03232
-9.77373
-10.5912
-11.4962
-12.5025
-13.6278
-14.8941
-16.3299
-17.9714
-19.8647
-22.0674
-24.6526
-27.6901
-31.1837
-35.3118
-41.3665
-6.91238
-7.44832
-8.01498
-8.63906
-9.32578
-10.0807
-10.913
-11.8343
-12.8588
-14.0042
-15.2931
-16.7542
-18.4242
-20.3492
-22.5869
-25.21
-28.2872
-31.8196
-35.9797
-42.057
-7.16254
-7.70914
-8.28473
-8.91992
-9.61916
-10.3876
-11.2348
-12.1724
-13.2151
-14.3808
-15.6923
-17.1788
-18.8771
-20.8337
-23.1064
-25.7673
-28.8838
-32.4546
-36.646
-42.7457
-7.41253
-7.96953
-8.55398
-9.20037
-9.91219
-10.6942
-11.5562
-12.5103
-13.5711
-14.757
-16.0911
-17.6029
-19.3295
-21.3176
-23.625
-26.3234
-29.4789
-33.0876
-37.3096
-43.4313
-7.66244
-8.22949
-8.82266
-9.48028
-10.2047
-11.0002
-11.877
-12.8473
-13.9262
-15.1322
-16.4888
-18.0257
-19.7805
-21.8
-24.142
-26.8775
-30.0715
-33.7175
-37.9691
-44.1124
-7.91253
-8.48914
-9.09079
-9.75954
-10.4964
-11.3053
-12.1967
-13.1831
-14.2799
-15.5059
-16.8849
-18.4468
-20.2295
-22.2802
-24.6563
-27.4286
-30.6606
-34.3433
-38.6234
-44.7876
-8.1632
-8.74869
-9.35839
-10.038
-10.7871
-11.6092
-12.5149
-13.5172
-14.6317
-15.8775
-17.2785
-18.8652
-20.6757
-22.7571
-25.1671
-27.9757
-31.245
-34.9637
-39.2713
-45.4557
-8.41504
-9.00844
-9.62551
-10.3157
-11.0765
-11.9114
-12.8311
-13.849
-14.9809
-16.2461
-17.669
-19.2801
-21.118
-23.23
-25.6734
-28.5176
-31.8237
-35.5776
-39.9116
-46.1157
-8.66864
-9.26854
-9.89199
-10.592
-11.3642
-12.2113
-13.1447
-14.1779
-15.3268
-16.6112
-18.0555
-19.6908
-21.5558
-23.6977
-26.1741
-29.0534
-32.3955
-36.184
-40.5432
-46.7663
-8.92458
-9.52887
-10.1573
-10.8664
-11.6493
-12.5083
-13.4549
-14.503
-15.6686
-16.9718
-18.4373
-20.0963
-21.9879
-24.1594
-26.6681
-29.5819
-32.9592
-36.7815
-41.1651
-47.4068
-9.18231
-9.78803
-10.4198
-11.1373
-11.9305
-12.8011
-13.7606
-14.8233
-16.0054
-17.327
-18.8132
-20.4957
-22.4134
-24.6139
-27.1543
-30.1017
-33.5135
-37.369
-41.7765
-48.0367
-9.44018
-10.0429
-10.6767
-11.4027
-12.2065
-13.0885
-14.0608
-15.1378
-16.3361
-17.6758
-19.1825
-20.8878
-22.8311
-25.0601
-27.6315
-30.6117
-34.0569
-37.9448
-42.3762
-48.656
-9.68977
-10.2846
-10.9219
-11.6592
-12.475
-13.369
-14.3542
-15.4455
-16.6597
-18.0173
-19.544
-21.2717
-23.2401
-25.4968
-28.0983
-31.1104
-34.5879
-38.5073
-42.9633
-49.2664
-9.91058
-10.4944
-11.1514
-11.908
-12.7368
-13.6424
-14.6404
-15.7459
-16.9757
-18.3507
-19.8969
-21.6465
-23.6393
-25.9229
-28.5536
-31.5962
-35.1044
-39.0534
-43.5335
-49.8694
-1.2663
-1.52574
-1.88015
-2.27838
-2.71083
-3.18373
-3.70395
-4.27809
-4.91432
-5.62351
-6.42004
-7.32311
-8.35861
-9.56167
-10.9811
-12.6877
-14.7658
-17.2694
-20.4891
-25.9126
-1.40174
-1.67528
-2.0446
-2.44628
-2.88029
-3.35666
-3.8818
-4.46193
-5.10535
-5.82315
-6.62995
-7.54524
-8.59532
-9.81573
-11.2558
-12.9867
-15.0928
-17.6265
-20.8734
-26.3066
-1.52815
-1.82358
-2.20381
-2.61179
-3.05178
-3.53466
-4.06674
-4.65441
-5.30633
-6.0339
-6.85205
-7.78063
-8.84633
-10.0852
-11.547
-13.3031
-15.4376
-18.0013
-21.2747
-26.7121
-1.6736
-1.97853
-2.36547
-2.78057
-3.22806
-3.71865
-4.25877
-4.8551
-5.51661
-6.25498
-7.08547
-8.02829
-9.11056
-10.3688
-11.8532
-13.6354
-15.7994
-18.3941
-21.6972
-27.1479
-1.82915
-2.14001
-2.53331
-2.95574
-3.41098
-3.90968
-4.45847
-5.06423
-5.73614
-6.48617
-7.32987
-8.28783
-9.38758
-10.6661
-12.1741
-13.9835
-16.1779
-18.8052
-22.1403
-27.6109
-1.98976
-2.30784
-2.7079
-3.13773
-3.60094
-4.10815
-4.66613
-5.28194
-5.96496
-6.7274
-7.58512
-8.55907
-9.6772
-10.9769
-12.5095
-14.3471
-16.5732
-19.2342
-22.6026
-28.0959
-2.15696
-2.48297
-2.88965
-3.32687
-3.79825
-4.31431
-4.88193
-5.50832
-6.20305
-6.97858
-7.85105
-8.84178
-9.97915
-11.3011
-12.8592
-14.726
-16.9848
-19.6805
-23.0829
-28.6007
-2.33215
-2.66599
-3.07905
-3.5236
-4.00326
-4.52843
-5.10603
-5.74343
-6.45039
-7.2396
-8.1275
-9.13576
-10.2932
-11.6381
-13.2227
-15.1198
-17.4123
-20.1437
-23.5809
-29.1242
-2.51524
-2.85689
-3.27624
-3.7281
-4.21616
-4.75062
-5.33848
-5.98727
-6.70692
-7.51035
-8.41429
-9.44075
-10.619
-11.9878
-13.5997
-15.528
-17.8552
-20.6231
-24.0958
-29.6657
-2.70575
-3.05543
-3.48113
-3.94034
-4.4369
-4.98084
-5.57923
-6.23975
-6.97251
-7.79065
-8.71119
-9.75651
-10.9562
-12.3497
-13.9899
-15.9502
-18.3129
-21.1183
-24.6271
-30.2242
-2.90333
-3.26136
-3.69347
-4.16012
-4.66533
-5.21895
-5.82813
-6.5007
-7.24696
-8.08027
-9.01795
-10.0827
-11.3047
-12.7235
-14.3927
-16.3859
-18.785
-21.6286
-25.1739
-30.7986
-3.10765
-3.47432
-3.91296
-4.38717
-4.90119
-5.46471
-6.08494
-6.76987
-7.53001
-8.37894
-9.33426
-10.4191
-11.6638
-13.1088
-14.8077
-16.8345
-19.2708
-22.1534
-25.7356
-31.3881
-3.31828
-3.69392
-4.13923
-4.62114
-5.14416
-5.7178
-6.34934
-7.04695
-7.82133
-8.6863
-9.65976
-10.7651
-12.0333
-13.505
-15.2345
-17.2957
-19.7698
-22.6919
-26.3115
-31.992
-3.53475
-3.91967
-4.37183
-4.86162
-5.39385
-5.97785
-6.62097
-7.33157
-8.12055
-9.00197
-9.99402
-11.1205
-12.4127
-13.9118
-15.6724
-17.7687
-20.2813
-23.2435
-26.9008
-32.6094
-3.75657
-4.15109
-4.61028
-5.10815
-5.64982
-6.24442
-6.8994
-7.6233
-8.42724
-9.3255
-10.3366
-11.4847
-12.8015
-14.3285
-16.1209
-18.2529
-20.8047
-23.8076
-27.5028
-33.2396
-3.98322
-4.38765
-4.85408
-5.36024
-5.9116
-6.51707
-7.18418
-7.92169
-8.74092
-9.65642
-10.687
-11.8571
-13.199
-14.7546
-16.5793
-18.7477
-21.3392
-24.3833
-28.1169
-33.8821
-4.21419
-4.62882
-5.10269
-5.61739
-6.17869
-6.79528
-7.47481
-8.22624
-9.0611
-9.9942
-11.0446
-12.2373
-13.6048
-15.1895
-17.0471
-19.2523
-21.8841
-24.9699
-28.7423
-34.5363
-4.44898
-4.87407
-5.3556
-5.87907
-6.45057
-7.07856
-7.77079
-8.53643
-9.38724
-10.3383
-11.409
-12.6246
-14.0181
-15.6323
-17.5234
-19.766
-22.4385
-25.5664
-29.3784
-35.2022
-4.68706
-5.12287
-5.61227
-6.14476
-6.72672
-7.36638
-8.07157
-8.85171
-9.71879
-10.6881
-11.7795
-13.0184
-14.4383
-16.0825
-18.0075
-20.2878
-23.0014
-26.1719
-30.0243
-35.8804
-4.92799
-5.37473
-5.8722
-6.41397
-7.00665
-7.65823
-8.37666
-9.17158
-10.0552
-11.0432
-12.1555
-13.4181
-14.8648
-16.5394
-18.4985
-20.8169
-23.5718
-26.7848
-30.6773
-36.5718
-1.04197
-0.862257
-0.731905
-0.617722
-0.519182
-0.433778
-0.360454
-0.298449
-0.247276
-0.206576
-0.17607
-0.155552
-0.144867
-0.143731
-0.151564
-0.168196
-0.195198
-0.230732
-0.275563
-0.329197
-1.37456
-1.21628
-1.08228
-0.963649
-0.861064
-0.771997
-0.695477
-0.630714
-0.577199
-0.534547
-0.502459
-0.480705
-0.469098
-0.467393
-0.4752
-0.492361
-0.51936
-0.555754
-0.601498
-0.656328
-1.71632
-1.56558
-1.43197
-1.31261
-1.20839
-1.11768
-1.03972
-0.973831
-0.91952
-0.876413
-0.844214
-0.822679
-0.8116
-0.810741
-0.819824
-0.838748
-0.867659
-0.906313
-0.954528
-1.0121
-2.11163
-1.96014
-1.82434
-1.7027
-1.59561
-1.50208
-1.42157
-1.3535
-1.29743
-1.25301
-1.21993
-1.19795
-1.18684
-1.18637
-1.19631
-1.21655
-1.2471
-1.28771
-1.33822
-1.39845
-2.54582
-2.39309
-2.25448
-2.12987
-2.01949
-1.92278
-1.83934
-1.76873
-1.71056
-1.66449
-1.63025
-1.60757
-1.59623
-1.596
-1.60666
-1.6281
-1.66021
-1.70278
-1.75563
-1.81861
-3.01799
-2.86342
-2.72195
-2.59417
-2.48042
-2.38045
-2.29402
-2.22077
-2.1604
-2.11261
-2.07712
-2.0537
-2.0421
-2.04212
-2.05354
-2.0762
-2.10998
-2.15466
-2.21004
-2.27601
-3.53506
-3.37735
-3.23244
-3.10106
-2.98365
-2.88018
-2.79051
-2.71441
-2.65164
-2.60193
-2.56503
-2.54072
-2.52878
-2.52897
-2.54111
-2.56502
-2.60052
-2.64741
-2.70547
-2.77463
-4.10446
-3.94232
-3.79305
-3.65738
-3.53577
-3.42832
-3.33501
-3.25568
-3.19014
-3.1382
-3.09961
-3.07418
-3.06167
-3.06189
-3.07462
-3.09969
-3.13691
-3.18604
-3.24688
-3.31935
-4.73457
-4.56672
-4.41204
-4.27118
-4.14462
-4.03255
-3.93499
-3.85189
-3.78311
-3.72848
-3.6878
-3.66088
-3.64751
-3.64749
-3.66061
-3.68669
-3.72552
-3.77687
-3.84051
-3.91639
-5.43614
-5.26119
-5.09986
-4.95272
-4.82025
-4.70268
-4.6001
-4.51251
-4.43981
-4.38188
-4.33855
-4.30964
-4.29496
-4.29431
-4.30749
-4.33431
-4.37455
-4.42796
-4.49434
-4.57362
-6.22337
-6.03972
-5.87026
-5.71549
-5.57587
-5.45168
-5.34304
-5.25
-5.17249
-5.11044
-5.0637
-5.0321
-5.01548
-5.01364
-5.02637
-5.05349
-5.09478
-5.14997
-5.21885
-5.30141
-7.11521
-6.92097
-6.74158
-6.5775
-6.42919
-6.29693
-6.18088
-6.08112
-5.99764
-5.93036
-5.87918
-5.84395
-5.8245
-5.82065
-5.83222
-5.85899
-5.90073
-5.95719
-6.02814
-6.11362
-8.13719
-7.93008
-7.7386
-7.56314
-7.40418
-7.26201
-7.13683
-7.02872
-6.93771
-6.86375
-6.80675
-6.7666
-6.74312
-6.73615
-6.7455
-6.77096
-6.8123
-6.86923
-6.94153
-7.02929
-9.32397
-9.10125
-8.89501
-8.70563
-8.53358
-8.37919
-8.24266
-8.1241
-8.02357
-7.94104
-7.87643
-7.82964
-7.80052
-7.78889
-7.79459
-7.8174
-7.85708
-7.91331
-7.98586
-8.07488
-10.7239
-10.4823
-10.258
-10.0516
-9.86347
-9.69397
-9.54334
-9.41171
-9.29912
-9.20559
-9.13104
-9.07538
-9.03848
-9.02017
-9.02027
-9.03857
-9.07482
-9.12868
-9.19988
-9.28864
-12.4071
-12.1426
-11.8966
-11.6693
-11.4615
-11.2735
-11.1054
-10.9575
-10.8298
-10.7222
-10.6348
-10.5675
-10.52
-10.4924
-10.4844
-10.4957
-10.5261
-10.5754
-10.6431
-10.7295
-14.4574
-14.1659
-13.8939
-13.6419
-13.4106
-13.2003
-13.0112
-12.8435
-12.6972
-12.5724
-12.4689
-12.3868
-12.3259
-12.286
-12.267
-12.2687
-12.2909
-12.3331
-12.3952
-12.4768
-16.9292
-16.6071
-16.3055
-16.0254
-15.7673
-15.5316
-15.3186
-15.1283
-14.9608
-14.816
-14.6939
-14.5945
-14.5177
-14.4633
-14.4312
-14.4212
-14.4331
-14.4667
-14.5214
-14.5958
-20.1159
-19.7592
-19.4235
-19.1116
-18.8236
-18.5597
-18.3197
-18.1037
-17.9115
-17.7431
-17.5985
-17.4776
-17.3804
-17.3066
-17.2562
-17.2288
-17.2244
-17.2431
-17.2847
-17.3476
-25.4852
-25.0875
-24.7215
-24.3841
-24.0733
-23.7879
-23.5275
-23.292
-23.0813
-22.8953
-22.7341
-22.5975
-22.4857
-22.3987
-22.3364
-22.2988
-22.2866
-22.3019
-22.3459
-22.4081
-0.391368
-0.461739
-0.540235
-0.626705
-0.720994
-0.822929
-0.932315
-1.04894
-1.17254
-1.30282
-1.43942
-1.58182
-1.72929
-1.88072
-2.03459
-2.18878
-2.33894
-2.4757
-2.58361
-2.68421
-0.720083
-0.792358
-0.873043
-0.961958
-1.05893
-1.16377
-1.27627
-1.39618
-1.52324
-1.6571
-1.79736
-1.94349
-2.09476
-2.25008
-2.40794
-2.56676
-2.72485
-2.87459
-3.00021
-3.13977
-1.07892
-1.15458
-1.23895
-1.33185
-1.43307
-1.54241
-1.65964
-1.78451
-1.91673
-2.05592
-2.20167
-2.35343
-2.5105
-2.67188
-2.8363
-3.00261
-3.16987
-3.33372
-3.48762
-3.65921
-1.46832
-1.54737
-1.63548
-1.73243
-1.83803
-1.95204
-2.07423
-2.20431
-2.34196
-2.48683
-2.63845
-2.7963
-2.95968
-3.12772
-3.2994
-3.47385
-3.65029
-3.82633
-4.00179
-4.19583
-1.89165
-1.97425
-2.06629
-2.16755
-2.27779
-2.39678
-2.52426
-2.65993
-2.80347
-2.95448
-3.11253
-3.27708
-3.4475
-3.62303
-3.80286
-3.9864
-4.17302
-4.36156
-4.55421
-4.76364
-2.35248
-2.43894
-2.53525
-2.64118
-2.75648
-2.88091
-3.01419
-3.15601
-3.30604
-3.46389
-3.62911
-3.80121
-3.9796
-4.16363
-4.35272
-4.54642
-4.74433
-4.94612
-5.15429
-5.37654
-2.85478
-2.94538
-3.04629
-3.15727
-3.27807
-3.40843
-3.54805
-3.69664
-3.85383
-4.01925
-4.19247
-4.37302
-4.56037
-4.75399
-4.95342
-5.15834
-5.36854
-5.58415
-5.80725
-6.0423
-3.40341
-3.4984
-3.60423
-3.72063
-3.84735
-3.98412
-4.13064
-4.2866
-4.45166
-4.62542
-4.8075
-4.99744
-5.19478
-5.39907
-5.60994
-5.82715
-6.05062
-6.28062
-6.51869
-6.76737
-4.00451
-4.10409
-4.21509
-4.33724
-4.47028
-4.61392
-4.76788
-4.93184
-5.10545
-5.28835
-5.48014
-5.68042
-5.88877
-6.10481
-6.32821
-6.55881
-6.79653
-7.04167
-7.29523
-7.5587
-4.66577
-4.77017
-4.88652
-5.01468
-5.15437
-5.30531
-5.4672
-5.63972
-5.82254
-6.01531
-6.21765
-6.42919
-6.64954
-6.87835
-7.11537
-7.36041
-7.61342
-7.87458
-8.14449
-8.42407
-5.3976
-5.50658
-5.62847
-5.76278
-5.90934
-6.06788
-6.23809
-6.41966
-6.61225
-6.81554
-7.02917
-7.25279
-7.48604
-7.7286
-7.98022
-8.24073
-8.51004
-8.78819
-9.0755
-9.37257
-6.2136
-6.32708
-6.45417
-6.59467
-6.74816
-6.9144
-7.09314
-7.28405
-7.48682
-7.70113
-7.92665
-8.16302
-8.40992
-8.66705
-8.93415
-9.21105
-9.4976
-9.79371
-10.0995
-10.4154
-7.13251
-7.25004
-7.38197
-7.52812
-7.6886
-7.86236
-8.0495
-8.24979
-8.46289
-8.68847
-8.9262
-9.17577
-9.43684
-9.70912
-9.99238
-10.2864
-10.591
-10.9059
-11.2311
-11.567
-8.1804
-8.30111
-8.43722
-8.58832
-8.7543
-8.93601
-9.13101
-9.34041
-9.56354
-9.80018
-10.0501
-10.3129
-10.5883
-10.876
-11.1758
-11.4873
-11.8104
-12.1447
-12.4901
-12.8469
-9.39501
-9.51744
-9.65638
-9.81147
-9.98225
-10.1684
-10.3716
-10.59
-10.822
-11.069
-11.3305
-11.6063
-11.8958
-12.1989
-12.515
-12.8441
-13.1857
-13.5396
-13.9054
-14.2835
-10.8346
-10.9566
-11.0964
-11.2534
-11.4276
-11.6184
-11.8257
-12.0493
-12.2905
-12.5475
-12.82
-13.108
-13.4108
-13.728
-14.0595
-14.4051
-14.7647
-15.1377
-15.5234
-15.9224
-12.5779
-12.6969
-12.8348
-12.9912
-13.1662
-13.3595
-13.5706
-13.7994
-14.0461
-14.3109
-14.5929
-14.8906
-15.2038
-15.5318
-15.8761
-16.2364
-16.6123
-17.0029
-17.4073
-17.8256
-14.689
-14.8015
-14.9334
-15.0852
-15.2568
-15.448
-15.6586
-15.8881
-16.136
-16.4016
-16.6852
-16.9879
-17.3093
-17.6501
-18.008
-18.3824
-18.7732
-19.18
-19.6018
-20.0377
-17.4282
-17.5276
-17.6489
-17.7923
-17.9574
-18.1438
-18.351
-18.5787
-18.8263
-19.0934
-19.3795
-19.6847
-20.0091
-20.3531
-20.7161
-21.0977
-21.4977
-21.917
-22.3555
-22.808
-22.4625
-22.5437
-22.6525
-22.7865
-22.9439
-23.1239
-23.3256
-23.5486
-23.7925
-24.0569
-24.3417
-24.6468
-24.9724
-25.3187
-25.6855
-26.073
-26.4823
-26.9174
-27.3808
-27.8543
-28.2933
-23.2663
-20.4871
-18.258
-16.3346
-14.6739
-13.2152
-11.9137
-10.7415
-9.67943
-8.71335
-7.83217
-7.02698
-6.29028
-5.61571
-4.99758
-4.42948
-3.90496
-3.43166
-3.03495
-28.7559
-23.7367
-20.9482
-18.7017
-16.7576
-15.0745
-13.5931
-12.2694
-11.0762
-9.9946
-9.01072
-8.11363
-7.29449
-6.54597
-5.86181
-5.23643
-4.664
-4.14137
-3.68069
-3.28684
-29.2431
-24.222
-21.4227
-19.1577
-17.192
-15.4856
-13.9806
-12.634
-11.4192
-10.3176
-9.3155
-8.4021
-7.56864
-6.80776
-6.11318
-5.47922
-4.90021
-4.37314
-3.90671
-3.4954
-29.7511
-24.7233
-21.9106
-19.626
-17.6373
-15.9066
-14.3772
-13.007
-11.7698
-10.6476
-9.62675
-8.69647
-7.84796
-7.07375
-6.36736
-5.72288
-5.13442
-4.59837
-4.12065
-3.69249
-30.2767
-25.2397
-22.4118
-20.1061
-18.0933
-16.3371
-14.7824
-13.3877
-12.1275
-10.9841
-9.94385
-8.99607
-8.13184
-7.34352
-6.62439
-5.96826
-5.36898
-4.82239
-4.33262
-3.89011
-30.818
-25.7704
-22.9258
-20.5977
-18.5593
-16.7766
-15.1956
-13.7757
-12.4918
-11.3265
-10.2663
-9.30043
-8.41992
-7.61689
-6.8844
-6.21599
-5.60535
-5.04796
-4.54667
-4.09183
-31.3738
-26.3147
-23.4518
-21.1002
-19.0349
-17.2245
-15.6163
-14.1703
-12.862
-11.6743
-10.5936
-9.60927
-8.71205
-7.89395
-7.14778
-6.4669
-5.84484
-5.27688
-4.76476
-4.29898
-31.9434
-26.8731
-23.9878
-21.6126
-19.5194
-17.6802
-16.0438
-14.5711
-13.2378
-12.0271
-10.9255
-9.92232
-9.00812
-8.17473
-7.41476
-6.72138
-6.08803
-5.5098
-4.98745
-4.51166
-32.5263
-27.4441
-24.5341
-22.134
-20.0121
-18.1431
-16.4778
-14.9775
-13.6187
-12.3845
-11.2617
-10.2393
-9.30797
-8.45918
-7.68538
-6.97957
-6.3351
-5.74687
-5.21471
-4.7295
-33.1214
-28.0262
-25.0901
-22.664
-20.5122
-18.6126
-16.9174
-15.389
-14.0041
-12.746
-11.6017
-10.56
-9.61135
-8.74712
-7.95951
-7.24136
-6.58591
-5.98787
-5.44617
-4.95195
-33.7277
-28.6183
-25.6554
-23.2017
-21.019
-19.0878
-17.3621
-15.805
-14.3935
-13.1113
-11.9452
-10.884
-9.91796
-9.03826
-8.2369
-7.50649
-6.84016
-6.23241
-5.68136
-5.17836
-34.3445
-29.2196
-26.2289
-23.7465
-21.5318
-19.5682
-17.8113
-16.2248
-14.7864
-13.4797
-12.2916
-11.2108
-10.2274
-9.33225
-8.51716
-7.77456
-7.09742
-6.48003
-5.9197
-5.40809
-34.9707
-29.8291
-26.8099
-24.2975
-22.0499
-20.0531
-18.2643
-16.648
-15.1821
-13.8507
-12.6406
-11.5401
-10.5392
-9.62864
-8.79987
-8.04513
-7.35722
-6.73021
-6.16064
-5.64055
-35.6056
-30.4462
-27.3975
-24.8539
-22.5724
-20.5415
-18.7202
-17.0737
-15.5802
-14.2239
-12.9914
-11.8713
-10.853
-9.92695
-9.08454
-8.31769
-7.61906
-6.98241
-6.40362
-5.87513
-36.2484
-31.0696
-27.9906
-25.4147
-23.0984
-21.0328
-19.1784
-17.5012
-15.9798
-14.5984
-13.3437
-12.2038
-11.168
-10.2267
-9.37067
-8.59176
-7.8824
-7.23611
-6.6481
-6.11131
-36.8981
-31.6984
-28.5882
-25.9791
-23.627
-21.5261
-19.6382
-17.9299
-16.3804
-14.9738
-13.6967
-12.5371
-11.484
-10.5273
-9.65775
-8.86681
-8.14675
-7.49081
-6.89356
-6.34856
-37.5547
-32.3319
-29.1893
-26.546
-24.1574
-22.0204
-20.0985
-18.359
-16.7811
-15.3493
-14.0499
-12.8706
-11.8002
-10.8282
-9.94523
-9.14233
-8.4116
-7.74599
-7.13952
-6.58641
-38.2199
-32.9698
-29.7928
-27.114
-24.6882
-22.5147
-20.5584
-18.7875
-17.1813
-15.7242
-14.4025
-13.2036
-12.116
-11.1289
-10.2325
-9.41776
-8.67642
-8.00116
-7.38548
-6.8244
-38.8941
-33.6112
-30.3968
-27.6817
-25.2183
-23.008
-21.0173
-19.2147
-17.5801
-16.0979
-14.754
-13.5356
-12.4309
-11.4289
-10.5192
-9.69261
-8.94071
-8.25583
-7.63099
-7.06212
-39.5648
-34.2513
-31.0001
-28.2485
-25.7475
-23.5002
-21.4747
-19.6405
-17.9775
-16.4701
-15.1041
-13.8663
-12.7447
-11.7277
-10.8048
-9.96653
-9.20413
-8.50966
-7.8757
-7.29922
-5.88268
-4.00535
-2.82485
-1.93334
-1.32404
-0.881053
-0.568348
-0.348548
-0.197595
-0.0968732
-0.0327239
0.00521115
0.0246608
0.0314121
0.0297149
0.0227311
0.0127569
0.00146515
-0.00990747
-0.0204932
-0.0295674
-0.0366893
-0.0413088
-0.0432775
-0.0420386
-0.0378354
-0.0300451
-0.0195383
-0.00583178
0.00951363
0.0263473
0.0426488
0.0567074
0.0672634
0.0713039
0.0693142
0.0603442
0.0396789
0.0274663
-0.0241386
-6.1089
-4.16605
-2.95584
-2.03642
-1.40604
-0.94753
-0.622646
-0.393456
-0.235054
-0.128338
-0.05929
-0.0172982
0.00555044
0.0151772
0.0159247
0.0110311
0.002848
-0.00690615
-0.0169623
-0.0264181