/*--------------------------------*- C++ -*----------------------------------*\
  =========                 |
  \\      /  F ield         | OpenFOAM: The Open Source CFD Toolbox
   \\    /   O peration     | Website:  https://openfoam.org
    \\  /    A nd           | Version:  6.0
     \\/     M anipulation  |
\*---------------------------------------------------------------------------*/
FoamFile
{
    version     2.0;
    format      ascii;
    class       surfaceScalarField;
    location    "4.7495";
    object      phi;
}
// * * * * * * * * * * * * * * * * * * * * * * * * * * * * * * * * * * * * * //

dimensions      [0 3 -1 0 0 0 0];

internalField   nonuniform List<scalar> 
38030
(
2.44959e-05
-0.0799445
0.07992
0.00012788
-0.0744757
0.0743723
0.000303145
-0.0699967
0.0698215
0.000543687
-0.066317
0.0660765
0.000843174
-0.0632774
0.0629779
0.0011948
-0.0607456
0.0603939
0.00159159
-0.0586145
0.0582177
0.00202672
-0.0567982
0.056363
0.00249365
-0.0552277
0.0547608
0.00298631
-0.0538487
0.0533561
0.00349909
-0.052618
0.0521052
0.00402696
-0.0515017
0.0509738
0.00456543
-0.0504734
0.0499349
0.00511057
-0.0495124
0.0489673
0.00565895
-0.048603
0.0480546
0.00620766
-0.047733
0.0471843
0.00675426
-0.0468931
0.0463465
0.00729673
-0.0460764
0.0455339
0.00783342
-0.0452776
0.0447409
0.00836306
-0.0444929
0.0439632
0.00888464
-0.0437194
0.0431978
0.00939745
-0.0429548
0.042442
0.00990096
-0.0421977
0.0416942
0.0103948
-0.0414465
0.0409526
0.0108789
-0.0407001
0.040216
0.0113529
-0.0399574
0.0394833
0.0118169
-0.0392174
0.0387534
0.0122707
-0.0384792
0.0380254
0.0127141
-0.0377415
0.0372982
-0.0370028
0.0365702
0.0131467
3.21561e-05
-0.0799766
0.000138467
-0.074582
0.00031707
-0.0701753
0.00056215
-0.0665621
0.000866947
-0.0635822
0.00122425
-0.0611029
0.00162675
-0.059017
0.00206734
-0.0572387
0.0025393
-0.0556997
0.00303638
-0.0543458
0.00355288
-0.0531345
0.00408369
-0.0520325
0.00462429
-0.051014
0.00517071
-0.0500589
0.00571956
-0.0491519
0.00626794
-0.0482814
0.00681345
-0.0474386
0.00735413
-0.046617
0.00788839
-0.0458118
0.00841502
-0.0450195
0.00893311
-0.0442374
0.009442
-0.0434637
0.00994128
-0.0426969
0.0104307
-0.0419359
0.0109101
-0.0411795
0.0113795
-0.0404268
0.0118388
-0.0396768
0.0122881
-0.0389285
0.0127271
-0.0381805
-0.0374313
0.0131556
3.542e-05
-0.080012
0.000145851
-0.0746924
0.00032902
-0.0703585
0.000579287
-0.0668124
0.000889682
-0.0638925
0.00125271
-0.0614659
0.00166082
-0.0594251
0.00210669
-0.0576846
0.0025834
-0.0561764
0.00308458
-0.054847
0.00360443
-0.0536544
0.00413779
-0.0525659
0.00468009
-0.0515563
0.00522737
-0.0506061
0.00577624
-0.0497007
0.00632385
-0.048829
0.00686783
-0.0479826
0.00740628
-0.0471555
0.00793768
-0.0463433
0.0084609
-0.0455427
0.0089751
-0.0447516
0.00947972
-0.0439684
0.00997442
-0.0431916
0.010459
-0.0424205
0.0109335
-0.041654
0.011398
-0.0408912
0.0118524
-0.0401312
0.0122969
-0.039373
0.0127314
-0.0386151
-0.0378557
0.0131558
3.75802e-05
-0.0800496
0.000151916
-0.0748068
0.000339851
-0.0705464
0.000595466
-0.067068
0.00091151
-0.0642086
0.00128022
-0.0618346
0.0016938
-0.0598387
0.00214471
-0.0581355
0.00262589
-0.0566576
0.00313084
-0.0553519
0.00365367
-0.0541772
0.00418917
-0.0531014
0.00473275
-0.0520998
0.00528044
-0.0511538
0.00582889
-0.0502492
0.00637527
-0.0493754
0.00691728
-0.0485246
0.00745306
-0.0476913
0.00798119
-0.0468714
0.0085006
-0.0460621
0.00901054
-0.0452616
0.00951052
-0.0444683
0.0100003
-0.0436814
0.0104798
-0.0429
0.0109491
-0.0421233
0.0114084
-0.0413505
0.0118577
-0.0405806
0.0122973
-0.0398126
0.0127272
-0.0390449
-0.0382757
0.0131473
3.9328e-05
-0.0800889
0.000157316
-0.0749247
0.000349967
-0.0707391
0.000610905
-0.0673289
0.000932534
-0.0645302
0.0013068
-0.0622089
0.00172565
-0.0602576
0.00218136
-0.0585912
0.0026667
-0.0571429
0.00317506
-0.0558603
0.00370049
-0.0547026
0.00423771
-0.0536386
0.00478213
-0.0526443
0.0053298
-0.0517015
0.00587737
-0.0507968
0.00642208
-0.0499201
0.00696166
-0.0490642
0.00749435
-0.048224
0.00801879
-0.0473958
0.00853399
-0.0465773
0.00903929
-0.0457669
0.0095343
-0.0449634
0.0100189
-0.044166
0.010493
-0.0433741
0.0109569
-0.0425871
0.0114107
-0.0418043
0.0118547
-0.0410246
0.0122892
-0.0402471
0.0127143
-0.03947
-0.0386915
0.01313
4.08782e-05
-0.0801298
0.000162328
-0.0750462
0.000359577
-0.0709363
0.000625734
-0.0675951
0.000952816
-0.0648573
0.00133245
-0.0625885
0.00175635
-0.0606815
0.00221658
-0.0590515
0.00270576
-0.0576321
0.00321717
-0.0563717
0.00374479
-0.0552302
0.00428332
-0.0541771
0.00482813
-0.0531891
0.00537531
-0.0522487
0.00592155
-0.051343
0.00646412
-0.0504626
0.00700084
-0.0496009
0.00753
-0.0487531
0.00805033
-0.0479161
0.00856093
-0.0470879
0.00906122
-0.0462672
0.00955092
-0.0454531
0.0100299
-0.044645
0.0104984
-0.0438426
0.0109566
-0.0430453
0.0114047
-0.0422524
0.0118433
-0.0414632
0.0122725
-0.0406763
0.0126927
-0.0398902
-0.0391027
0.0131039
4.23223e-05
-0.0801721
0.000167086
-0.075171
0.000368796
-0.071138
0.000640031
-0.0678663
0.000972397
-0.0651897
0.0013572
-0.0629733
0.00178589
-0.0611101
0.00225033
-0.0595159
0.002743
-0.0581248
0.00325708
-0.0568858
0.00378648
-0.0557596
0.00432586
-0.0547165
0.00487063
-0.0537339
0.00541686
-0.0527949
0.0059613
-0.0518874
0.00650128
-0.0510026
0.00703469
-0.0501343
0.00755988
-0.0492783
0.00807568
-0.0484319
0.00858126
-0.0475935
0.00907617
-0.0467621
0.00956019
-0.0459371
0.0100333
-0.0451182
0.0104959
-0.0443051
0.0109481
-0.0434975
0.0113904
-0.0426947
0.0118232
-0.041896
0.0122471
-0.0411002
0.0126623
-0.0403054
-0.0395094
0.0130689
4.36981e-05
-0.0802158
0.000171657
-0.0752989
0.00037769
-0.0713441
0.000653841
-0.0681425
0.000991297
-0.0655271
0.00138103
-0.063363
0.00181423
-0.0615433
0.00228256
-0.0599842
0.00277837
-0.0586206
0.00329471
-0.0574021
0.00382546
-0.0562904
0.00436526
-0.0552563
0.00490951
-0.0542781
0.00545433
-0.0533397
0.00599651
-0.0524296
0.00653344
-0.0515396
0.00706307
-0.0506639
0.00758386
-0.0497991
0.00809471
-0.0489428
0.00859489
-0.0480937
0.00908403
-0.0472512
0.00956202
-0.0464151
0.010029
-0.0455852
0.0104853
-0.0447614
0.0109313
-0.0439435
0.0113675
-0.043131
0.0117946
-0.0423231
0.0122129
-0.0415185
0.0126229
-0.0407154
-0.0399114
0.013025
4.5027e-05
-0.0802609
0.000176075
-0.07543
0.000386293
-0.0715543
0.000667189
-0.0684234
0.00100953
-0.0658695
0.00140394
-0.0637575
0.00184135
-0.0619808
0.00231324
-0.0604561
0.0028118
-0.0591191
0.00333
-0.0579203
0.00386166
-0.0568221
0.00440142
-0.0557961
0.00494469
-0.0548214
0.00548762
-0.0538827
0.00602705
-0.0529691
0.00656046
-0.052073
0.00708588
-0.0511894
0.00760183
-0.0503151
0.00810731
-0.0494483
0.0086017
-0.0485881
0.00908471
-0.0477342
0.00955634
-0.0468867
0.0100168
-0.0460456
0.0104666
-0.0452111
0.0109061
-0.044383
0.0113361
-0.0435609
0.0117571
-0.0427441
0.0121697
-0.0419311
0.0125745
-0.0411202
-0.0403088
0.0129719
4.63161e-05
-0.0803072
0.00018036
-0.075564
0.000394624
-0.0717686
0.000680087
-0.0687088
0.00102709
-0.0662165
0.00142592
-0.0641563
0.00186724
-0.0624221
0.00234233
-0.0609312
0.00284324
-0.0596201
0.00336287
-0.05844
0.003895
-0.0573542
0.00443425
-0.0563353
0.00497605
-0.0553632
0.00551661
-0.0544232
0.00605284
-0.0535053
0.00658226
-0.0526024
0.007103
-0.0517101
0.00761368
-0.0508257
0.00811339
-0.049948
0.00860159
-0.0490763
0.0090781
-0.0482107
0.00954302
-0.0473516
0.0099967
-0.0464993
0.0104396
-0.0456541
0.0108725
-0.0448159
0.0112959
-0.0439844
0.0117107
-0.0431588
0.0121175
-0.0423379
0.012517
-0.0415197
-0.0407013
0.0129095
4.75707e-05
-0.0803548
0.00018452
-0.075701
0.000402692
-0.0719867
0.000692542
-0.0689987
0.00104398
-0.0665679
0.00144695
-0.0645593
0.00189185
-0.062867
0.00236978
-0.0614091
0.00287264
-0.0601229
0.00339328
-0.0589606
0.00392541
-0.0578863
0.00446367
-0.0568736
0.00500353
-0.055903
0.00554124
-0.0549609
0.00607377
-0.0540378
0.00659873
-0.0531274
0.00711434
-0.0522257
0.00761931
-0.0513307
0.00811282
-0.0504415
0.00859443
-0.0495579
0.00906407
-0.0486804
0.00952194
-0.0478095
0.00996847
-0.0469459
0.0104043
-0.0460899
0.0108302
-0.0452418
0.0112469
-0.0444011
0.0116552
-0.0435672
0.0120561
-0.0427388
0.0124501
-0.0419137
-0.0410891
0.0128378
4.87933e-05
-0.0804036
0.000188558
-0.0758407
0.000410502
-0.0722087
0.000704553
-0.0692927
0.00106019
-0.0669235
0.00146702
-0.0649661
0.00191518
-0.0633151
0.00239556
-0.0618895
0.00289997
-0.0606273
0.00342116
-0.0594818
0.00395283
-0.058418
0.00448962
-0.0574104
0.00502705
-0.0564405
0.00556141
-0.0554953
0.00608977
-0.0545662
0.00660981
-0.0536474
0.00711983
-0.0527357
0.00761865
-0.0518295
0.00810553
-0.0509284
0.00858016
-0.0500325
0.00904254
-0.0491427
0.00949299
-0.0482599
0.00993205
-0.0473849
0.0103605
-0.0465183
0.0107791
-0.0456603
0.0111888
-0.0448108
0.0115905
-0.043969
0.0119852
-0.0431335
0.0123737
-0.0423021
-0.0414718
0.0127565
4.99828e-05
-0.0804535
0.000192476
-0.0759832
0.000418054
-0.0724342
0.00071612
-0.0695908
0.00107572
-0.0672831
0.00148612
-0.0653765
0.0019372
-0.0637662
0.00241966
-0.062372
0.00292519
-0.0611329
0.00344648
-0.0600031
0.00397721
-0.0589487
0.00451205
-0.0579452
0.00504655
-0.056975
0.00557708
-0.0560258
0.00610077
-0.0550898
0.00661541
-0.054162
0.00711939
-0.0532397
0.00761161
-0.0523218
0.00809145
-0.0514082
0.00855869
-0.0504998
0.00901343
-0.0495975
0.00945609
-0.0487026
0.00988732
-0.0478161
0.010308
-0.046939
0.010719
-0.0460714
0.0111215
-0.0452133
0.0115164
-0.0443639
0.0119048
-0.0435218
0.0122875
-0.0426848
-0.0418496
0.0126652
5.11395e-05
-0.0805047
0.000196273
-0.0761284
0.000425348
-0.0726633
0.000727243
-0.0698927
0.00109057
-0.0676465
0.00150425
-0.0657902
0.0019579
-0.0642199
0.00244205
-0.0628561
0.00294827
-0.0616391
0.0034692
-0.060524
0.00399852
-0.0594781
0.00453091
-0.0584776
0.00506199
-0.057506
0.00558819
-0.056552
0.00610674
-0.0556084
0.0066155
-0.0546708
0.00711298
-0.0537372
0.00759816
-0.0528069
0.00807054
-0.0518806
0.00852997
-0.0509592
0.00897667
-0.0500442
0.00941117
-0.0491371
0.00983421
-0.0482392
0.0102468
-0.0473515
0.0106499
-0.0464745
0.0110448
-0.0456082
0.0114326
-0.0447517
0.0118144
-0.0439037
0.0121912
-0.0430616
-0.0422222
0.0125638
5.22616e-05
-0.0805569
0.000199947
-0.076276
0.000432385
-0.0728958
0.000737924
-0.0701982
0.00110474
-0.0680133
0.0015214
-0.0662068
0.00197727
-0.0646757
0.00246271
-0.0633416
0.00296919
-0.0621456
0.0034893
-0.0610441
0.00401672
-0.0600055
0.00454618
-0.0590071
0.00507334
-0.0580332
0.00559472
-0.0570734
0.00610764
-0.0561213
0.00661006
-0.0551732
0.00710057
-0.0542277
0.00757828
-0.0532847
0.00804276
-0.0523451
0.00849397
-0.0514104
0.00893224
-0.0504825
0.00935817
-0.049563
0.00977264
-0.0486537
0.0101767
-0.0477556
0.0105716
-0.0468694
0.0109586
-0.0459952
0.011339
-0.0451321
0.011714
-0.0442787
0.0120847
-0.0434324
-0.0425895
0.0124521
5.33485e-05
-0.0806103
0.0002035
-0.0764262
0.000439168
-0.0731314
0.000748171
-0.0705072
0.00111823
-0.0683833
0.00153758
-0.0666262
0.00199532
-0.0651335
0.00248165
-0.0638279
0.00298795
-0.0626519
0.00350676
-0.0615629
0.00403181
-0.0605305
0.00455783
-0.0595331
0.00508058
-0.0585559
0.00559666
-0.0575895
0.00610347
-0.0566281
0.00659908
-0.0556688
0.00708218
-0.0547108
0.00755198
-0.0537545
0.00800813
-0.0528012
0.00845071
-0.051853
0.00888012
-0.0509119
0.00929709
-0.04998
0.00970258
-0.0490592
0.0100978
-0.0481508
0.010484
-0.0472557
0.0108627
-0.0463739
0.0112354
-0.0455047
0.0116033
-0.0446466
0.0119677
-0.0437968
-0.0429514
0.0123295
5.43972e-05
-0.0806647
0.000206931
-0.0765787
0.000445705
-0.0733702
0.000757994
-0.0708195
0.00113107
-0.0687564
0.0015528
-0.0670479
0.00201205
-0.0655927
0.00249886
-0.0643147
0.00300453
-0.0631575
0.00352159
-0.06208
0.00404377
-0.0610527
0.00456588
-0.0600552
0.00508372
-0.0590738
0.00559402
-0.0580998
0.00609425
-0.0571283
0.00658259
-0.0561572
0.00705784
-0.055186
0.00751928
-0.0542159
0.00796669
-0.0532486
0.00840021
-0.0522865
0.00882035
-0.051332
0.00922792
-0.0503876
0.00962399
-0.0494552
0.0100099
-0.0485366
0.010387
-0.0476328
0.010757
-0.0467439
0.0111214
-0.0458692
0.0114818
-0.045007
0.0118395
-0.0441544
-0.0433073
0.0121955
5.54054e-05
-0.0807201
0.000210242
-0.0767336
0.000452007
-0.073612
0.000767416
-0.0711349
0.00114327
-0.0691323
0.00156708
-0.0674717
0.00202748
-0.0660531
0.00251436
-0.0648016
0.00301896
-0.0636621
0.00353379
-0.0625948
0.00405262
-0.0615715
0.00457033
-0.0605729
0.0050828
-0.0595863
0.00558683
-0.0586038
0.00608003
-0.0576215
0.00656066
-0.0566378
0.00702762
-0.055653
0.00748029
-0.0546686
0.00791854
-0.0536869
0.00834258
-0.0527105
0.00875302
-0.0517424
0.00915074
-0.0507853
0.00953691
-0.0498414
0.00991294
-0.0489127
0.0102804
-0.0480003
0.0106411
-0.0471046
0.0109968
-0.0462248
0.0113491
-0.0453593
0.0116995
-0.0445049
-0.0436571
0.0120493
5.63717e-05
-0.0807765
0.000213441
-0.0768906
0.000458097
-0.0738566
0.000776466
-0.0714533
0.00115486
-0.0695107
0.00158046
-0.0678973
0.00204163
-0.0665143
0.00252817
-0.0652881
0.00303124
-0.0641652
0.00354338
-0.063107
0.00405839
-0.0620865
0.00457122
-0.0610857
0.00507784
-0.0600929
0.00557517
-0.0591012
0.00606088
-0.0581072
0.00653338
-0.0571103
0.00699163
-0.0561112
0.00743514
-0.0551121
0.00786382
-0.0541155
0.00827798
-0.0531247
0.00867829
-0.0521428
0.00906571
-0.0511727
0.00944148
-0.0502172
0.00980713
-0.0492783
0.0101644
-0.0483575
0.0105151
-0.0474553
0.0108613
-0.046571
0.0112049
-0.0457028
0.0115475
-0.0448475
-0.0440002
0.0118906
5.72921e-05
-0.0808338
0.000216541
-0.0770499
0.000464007
-0.0741041
0.000785191
-0.0717745
0.0011659
-0.0698914
0.00159296
-0.0683244
0.00205454
-0.0669759
0.0025403
-0.0657739
0.0030414
-0.0646663
0.00355038
-0.0636159
0.0040611
-0.0625973
0.00456859
-0.0615932
0.00506892
-0.0605932
0.0055591
-0.0595913
0.00603692
-0.0585851
0.00650087
-0.0575743
0.00695004
-0.0565604
0.007384
-0.055546
0.00780274
-0.0545343
0.00820665
-0.0535286
0.00859643
-0.0525325
0.0089731
-0.0515494
0.00933797
-0.050582
0.00969265
-0.049633
0.010039
-0.0487039
0.0103791
-0.0477954
0.010715
-0.046907
0.011049
-0.0460369
0.0113831
-0.0451816
-0.0443359
0.0117188
5.81658e-05
-0.0808919
0.000219566
-0.0772113
0.00046979
-0.0743543
0.000793656
-0.0720983
0.00117645
-0.0702742
0.00160464
-0.0687526
0.00206623
-0.0674375
0.00255079
-0.0662585
0.00304946
-0.065165
0.00355483
-0.0641213
0.00406081
-0.0631032
0.00456251
-0.0620949
0.00505612
-0.0610868
0.00553873
-0.060074
0.00600826
-0.0590546
0.00646331
-0.0580293
0.00690304
-0.0570001
0.00732711
-0.0559701
0.00773559
-0.0549428
0.0081289
-0.0539219
0.00850779
-0.0529114
0.0088733
-0.0519149
0.00922678
-0.0509355
0.0095699
-0.0499761
0.00990461
-0.0490386
0.0102331
-0.0481239
0.0105579
-0.0472317
0.0108814
-0.0463603
0.0112059
-0.0455061
-0.0446632
0.0115333
5.89956e-05
-0.0809509
0.00022256
-0.0773748
0.000475525
-0.0746073
0.000801946
-0.0724248
0.00118657
-0.0706588
0.00161556
-0.0691816
0.00207676
-0.0678987
0.00255968
-0.0667414
0.00305547
-0.0656608
0.00355677
-0.0646226
0.00405755
-0.063604
0.00455304
-0.0625904
0.00503951
-0.0615733
0.00551418
-0.0605486
0.00597507
-0.0595155
0.00642088
-0.0584751
0.00685087
-0.0574301
0.00726477
-0.056384
0.00766272
-0.0553407
0.00804515
-0.0543044
0.00841285
-0.0532791
0.00876684
-0.0522689
0.00910849
-0.0512772
0.00943946
-0.0503071
0.0097618
-0.0493609
0.0100779
-0.04844
0.0103904
-0.0475442
0.0107021
-0.0466721
0.0110158
-0.0458198
-0.044981
0.0113336
5.97984e-05
-0.0810107
0.000225603
-0.0775406
0.000481332
-0.074863
0.000810181
-0.0727536
0.00119637
-0.071045
0.00162578
-0.069611
0.00208616
-0.068359
0.00256699
-0.0672222
0.00305944
-0.0661532
0.00355622
-0.0651194
0.00405138
-0.0640992
0.00454024
-0.0630793
0.0050192
-0.0620522
0.00548557
-0.061015
0.00593751
-0.0599674
0.0063738
-0.0589114
0.0067938
-0.0578501
0.00719732
-0.0567875
0.00758453
-0.0557279
0.00795591
-0.0546758
0.00831221
-0.0536354
0.00865444
-0.0526111
0.0089839
-0.0516066
0.00930223
-0.0506254
0.00961146
-0.0496702
0.00991407
-0.0487426
0.010213
-0.0478431
0.0105114
-0.0469705
0.0108126
-0.046121
-0.0452877
0.0111193
6.06176e-05
-0.0810713
0.000228835
-0.0777089
0.000487389
-0.0751216
0.000818514
-0.0730847
0.00120594
-0.0714324
0.00163537
-0.0700404
0.00209446
-0.0688181
0.00257274
-0.0677005
0.0030614
-0.0666419
0.00355321
-0.0656112
0.00404234
-0.0645883
0.00452419
-0.0635611
0.00499527
-0.0625233
0.00545304
-0.0614728
0.00589575
-0.0604101
0.00632229
-0.059338
0.00673213
-0.05826
0.00712513
-0.0571805
0.00750151
-0.0561043
0.00786175
-0.055036
0.00820659
-0.0539803
0.00853695
-0.0529415
0.00885405
-0.0519237
0.00915939
-0.0509308
0.00945491
-0.0499657
0.00974309
-0.0490308
0.010027
-0.0481271
0.0103104
-0.0472539
0.010597
-0.0464076
-0.0455811
0.0108905
6.15698e-05
-0.0811329
0.000232505
-0.0778798
0.000493953
-0.075383
0.000827137
-0.0734179
0.00121541
-0.0718207
0.00164438
-0.0704694
0.00210171
-0.0692754
0.00257694
-0.0681757
0.00306135
-0.0671263
0.00354777
-0.0660976
0.00403045
-0.065071
0.00450492
-0.0640356
0.00496781
-0.0629862
0.0054167
-0.0619217
0.00584995
-0.0608434
0.00626658
-0.0597546
0.00666614
-0.0586595
0.00704857
-0.057563
0.00741412
-0.0564699
0.00776331
-0.0553852
0.00809679
-0.0543137
0.00841543
-0.0532601
0.00872024
-0.0522285
0.00901254
-0.0512231
0.00929402
-0.0502472
0.009567
-0.0493037
0.00983458
-0.0483947
0.0101008
-0.0475201
0.0103703
-0.0466772
-0.0458585
0.0106476
6.29135e-05
-0.0811958
0.000237029
-0.0780539
0.000501378
-0.0756474
0.000836267
-0.0737528
0.00122488
-0.0722093
0.00165284
-0.0708973
0.00210788
-0.0697305
0.00257958
-0.0686474
0.00305928
-0.067606
0.00353987
-0.0665782
0.00401573
-0.0655469
0.00448248
-0.0645023
0.00493688
-0.0634406
0.00537663
-0.0623614
0.00580024
-0.061267
0.00620685
-0.0601612
0.00659608
-0.0590488
0.00696798
-0.0579349
0.00732286
-0.0568247
0.00766121
-0.0557235
0.00798367
-0.0546362
0.00829099
-0.0535674
0.00858398
-0.0525215
0.00886366
-0.0515027
0.00913132
-0.0505148
0.00938885
-0.0495613
0.00963904
-0.0486449
0.00988603
-0.0477671
0.0101354
-0.0469265
-0.0461162
0.0103931
6.51503e-05
-0.081261
0.00024303
-0.0782318
0.000510092
-0.0759144
0.000846117
-0.0740888
0.00123441
-0.0725976
0.00166075
-0.0713237
0.00211294
-0.0701827
0.00258062
-0.0691151
0.00305514
-0.0680805
0.0035295
-0.0670526
0.00399815
-0.0660155
0.00445685
-0.064961
0.00490248
-0.0638862
0.00533289
-0.0627918
0.00574672
-0.0616808
0.00614322
-0.0605577
0.00652215
-0.0594277
0.00688364
-0.0582963
0.00722807
-0.0571692
0.00755598
-0.0560514
0.00786797
-0.0549482
0.00816471
-0.0538641
0.00844682
-0.0528036
0.00871495
-0.0517709
0.00896987
-0.0507697
0.00921274
-0.0498041
0.00944553
-0.0488776
0.00967181
-0.0479933
0.00989768
-0.0471524
-0.0463499
0.0101314
6.92129e-05
-0.0813302
0.000251473
-0.0784141
0.00052064
-0.0761836
0.000856883
-0.0744251
0.00124402
-0.0729847
0.00166805
-0.0717477
0.00211683
-0.0706315
0.00257997
-0.0695783
0.00304888
-0.0685494
0.0035166
-0.0675203
0.00397768
-0.0664766
0.00442801
-0.0654114
0.00486461
-0.0643228
0.00528547
-0.0632127
0.00568938
-0.0620847
0.00607573
-0.060944
0.00644442
-0.0597964
0.00679567
-0.0586476
0.00712997
-0.0575035
0.00744793
-0.0563694
0.00775019
-0.0552505
0.00803738
-0.0541513
0.00830999
-0.0530763
0.00856839
-0.0520293
0.00881278
-0.0510141
0.00904335
-0.0500347
0.00926066
-0.049095
0.00946641
-0.0481991
0.00966576
-0.0473517
-0.0465549
0.00987073
7.75553e-05
-0.0814077
0.000264349
-0.0786009
0.00053382
-0.0764531
0.000868698
-0.07476
0.00125361
-0.0733696
0.00167459
-0.0721687
0.00211937
-0.0710762
0.0025775
-0.0700364
0.00304037
-0.0690123
0.00350106
-0.067981
0.00395422
-0.0669297
0.00439588
-0.065853
0.00482319
-0.0647502
0.00523431
-0.0636238
0.00562817
-0.0624786
0.00600433
-0.0613202
0.00636282
-0.0601549
0.00670401
-0.0589888
0.00702851
-0.057828
0.00733706
-0.0566779
0.00763042
-0.0555438
0.00790929
-0.0544302
0.00817422
-0.0533412
0.00842549
-0.0522805
0.00866296
-0.0512516
0.00888598
-0.0502577
0.00909318
-0.0493022
0.00928234
-0.0483882
0.00945411
-0.0475235
-0.046727
0.00962626
9.79599e-05
-0.0815057
0.000284627
-0.0787875
0.000549901
-0.0767183
0.000881142
-0.0750912
0.00126271
-0.0737512
0.00168
-0.072586
0.00212032
-0.0715166
0.00257303
-0.0704891
0.00302946
-0.0694687
0.00348276
-0.0684343
0.00392767
-0.0673747
0.00436035
-0.0662857
0.00477812
-0.0651679
0.00517929
-0.064025
0.00556296
-0.0628622
0.00592884
-0.0616861
0.00627713
-0.0605032
0.00660835
-0.05932
0.00692329
-0.0581429
0.00722284
-0.0569775
0.00750799
-0.055829
0.00777972
-0.0547019
0.00803892
-0.0536004
0.00828634
-0.0525279
0.00852242
-0.0514877
0.00874701
-0.0504823
0.0089583
-0.0495134
0.00914933
-0.0485793
0.00930513
-0.0476793
-0.0468466
0.00942469
0.0834059
7.65615e-05
-0.0834825
0.08334
6.59036e-05
0.0832776
6.24425e-05
0.083216
6.15496e-05
0.0831543
6.17429e-05
0.0830919
6.24417e-05
0.0830285
6.33315e-05
0.0829643
6.42526e-05
0.0828991
6.51342e-05
0.0828332
6.59492e-05
0.0827665
6.66803e-05
0.0826992
6.73152e-05
0.0826313
6.78518e-05
0.0825631
6.82946e-05
0.0824944
6.86479e-05
0.0824255
6.89134e-05
0.0823564
6.90938e-05
0.0822872
6.91906e-05
0.082218
6.92027e-05
0.0821489
6.91314e-05
0.0820799
6.8974e-05
0.0820112
6.87262e-05
0.0819428
6.83767e-05
0.0818749
6.7909e-05
0.0818076
6.72856e-05
0.0817412
6.64335e-05
0.081676
6.51923e-05
0.0816128
6.31882e-05
0.0815535
5.92513e-05
4.78431e-05
0.083583
0.000211594
-0.083718
0.0834429
0.000206047
0.0833005
0.000204766
0.0831561
0.000205993
0.0830093
0.000208526
0.08286
0.000211771
0.082708
0.000215346
0.0825532
0.000218997
0.0823958
0.000222581
0.0822357
0.00022601
0.0820732
0.000229218
0.0819083
0.000232161
0.0817414
0.000234814
0.0815725
0.000237176
0.0814019
0.000239245
0.0812298
0.00024102
0.0810564
0.000242501
0.0808819
0.00024369
0.0807065
0.000244585
0.0805304
0.000245186
0.0803539
0.000245486
0.0801772
0.000245475
0.0800004
0.000245131
0.0798239
0.000244417
0.0796479
0.000243265
0.0794728
0.000241549
0.079299
0.000239031
0.0791269
0.000235237
0.0789571
0.000229077
0.000217437
0.0835794
0.000380221
-0.083748
0.0834004
0.000385012
0.083214
0.000391214
0.0830213
0.000398663
0.082823
0.000406859
0.0826193
0.000415455
0.0824104
0.000424187
0.0821966
0.000432844
0.0819779
0.000441274
0.0817545
0.000449371
0.0815267
0.000457038
0.0812947
0.000464202
0.0810587
0.000470824
0.080819
0.000476884
0.0805758
0.000482369
0.0803296
0.000487273
0.0800805
0.000491588
0.0798289
0.000495314
0.079575
0.000498447
0.0793192
0.000500983
0.0790618
0.000502914
0.078803
0.000504226
0.0785433
0.000504894
0.0782828
0.000504873
0.078022
0.000504091
0.0777611
0.000502423
0.0775005
0.000499663
0.0772403
0.000495453
0.0769802
0.000489137
0.000479305
0.0833281
0.000563257
-0.0835111
0.083133
0.000580146
0.0829272
0.000596943
0.082712
0.000613875
0.0824881
0.000630827
0.0822559
0.000647642
0.0820159
0.000664176
0.0817684
0.000680292
0.0815138
0.000695876
0.0812524
0.000710833
0.0809843
0.000725061
0.0807101
0.000738475
0.0804299
0.000751035
0.080144
0.000762704
0.0798529
0.000773459
0.0795569
0.000783284
0.0792564
0.000792168
0.0789516
0.000800103
0.0786429
0.000807085
0.0783308
0.000813106
0.0780156
0.000818157
0.0776976
0.000822224
0.0773772
0.000825284
0.0770547
0.000827299
0.0767306
0.000828207
0.0764051
0.000827913
0.0760785
0.000826272
0.0757509
0.000823061
0.0754221
0.000817924
0.000810244
0.0828085
0.000745002
-0.0829902
0.0826133
0.000775291
0.0824056
0.000804713
0.0821859
0.000833501
0.0819551
0.000861663
0.0817136
0.000889134
0.0814619
0.000915841
0.0812005
0.000941701
0.0809298
0.000966637
0.08065
0.000990565
0.0803617
0.0010134
0.0800651
0.00103506
0.0797606
0.0010555
0.0794487
0.00107467
0.0791296
0.00109255
0.0788038
0.00110911
0.0784716
0.00112434
0.0781335
0.00113822
0.0777898
0.00115075
0.077441
0.00116191
0.0770875
0.0011717
0.0767296
0.00118011
0.0763677
0.00118711
0.0760024
0.00119269
0.0756338
0.00119679
0.0752623
0.00119936
0.0748883
0.00120031
0.0745118
0.00119952
0.0741329
0.00119683
0.00119198
0.0820269
0.000914276
-0.0821962
0.0818431
0.000959124
0.0816451
0.00100265
0.0814336
0.00104502
0.081209
0.00108624
0.0809719
0.00112629
0.0807226
0.0011651
0.0804617
0.00120264
0.0801895
0.00123883
0.0799064
0.00127361
0.0796129
0.0013069
0.0793094
0.00133863
0.0789961
0.00136873
0.0786736
0.00139717
0.0783423
0.00142391
0.0780025
0.00144893
0.0776546
0.0014722
0.0772991
0.0014937
0.0769365
0.00151343
0.076567
0.00153137
0.0761912
0.00154752
0.0758094
0.00156186
0.0754222
0.00157438
0.0750298
0.00158507
0.0746326
0.00159391
0.0742311
0.00160087
0.0738255
0.0016059
0.0734161
0.00160897
0.0730029
0.00161
0.00160892
0.0810079
0.00106385
-0.0811575
0.0808428
0.00112422
0.0806625
0.00118296
0.0804674
0.00124015
0.0802578
0.0012958
0.0800342
0.00134986
0.0797971
0.00140228
0.0795467
0.00145301
0.0792835
0.00150202
0.0790079
0.00154921
0.0787203
0.00159451
0.0784211
0.00163784
0.0781106
0.00167916
0.0777894
0.00171841
0.0774577
0.00175556
0.0771161
0.00179057
0.0767649
0.00182342
0.0764045
0.00185408
0.0760354
0.00188254
0.075658
0.00190878
0.0752727
0.00193279
0.07488
0.00195458
0.0744802
0.00197412
0.0740739
0.00199143
0.0736613
0.00200649
0.0732429
0.00201929
0.0728189
0.00202985
0.0723898
0.00203814
0.0719556
0.00204418
0.00204796
0.0797859
0.00118962
-0.0799117
0.0796439
0.00126622
0.0794859
0.00134096
0.0793122
0.00141386
0.0791231
0.0014849
0.078919
0.00155401
0.0787001
0.00162114
0.0784669
0.00168623
0.0782197
0.00174921
0.0779589
0.00181002
0.0776848
0.00186856
0.0773979
0.00192476
0.0770985
0.00197857
0.076787
0.00202993
0.0764638
0.00207878
0.0761292
0.0021251
0.0757838
0.00216885
0.0754279
0.00220999
0.0750619
0.00224851
0.0746863
0.00228439
0.0743015
0.00231763
0.0739078
0.00234821
0.0735058
0.00237614
0.0730958
0.00240142
0.0726783
0.00242405
0.0722535
0.00244406
0.0718219
0.00246145
0.0713838
0.00247626
0.0709394
0.00248853
0.00249829
0.0783997
0.00128987
-0.0785
0.0782828
0.00138315
0.0781494
0.00147439
0.0779996
0.00156358
0.0778339
0.00165066
0.0776524
0.00173554
0.0774554
0.00181813
0.0772432
0.00189836
0.0770163
0.00197618
0.0767748
0.00205148
0.0765192
0.00212418
0.0762497
0.00219421
0.0759668
0.0022615
0.0756708
0.00232597
0.075362
0.00238756
0.0750409
0.00244624
0.0747077
0.00250196
0.0743631
0.00255468
0.0740072
0.00260438
0.0736405
0.00265104
0.0732635
0.00269465
0.0728765
0.00273519
0.07248
0.00277268
0.0720743
0.00280711
0.0716598
0.00283851
0.071237
0.0028669
0.0708061
0.00289232
0.0703676
0.00291481
0.0699217
0.00293444
0.00295125
0.0768881
0.00136457
-0.0769628
0.0767965
0.00147477
0.0766881
0.0015828
0.076563
0.0016886
0.0764216
0.00179208
0.076264
0.00189314
0.0760905
0.00199166
0.0759013
0.00208756
0.0756967
0.00218076
0.075477
0.00227116
0.0752425
0.00235868
0.0749935
0.00244321
0.0747304
0.00252468
0.0744533
0.002603
0.0741628
0.00267811
0.0738591
0.00274995
0.0735426
0.00281847
0.0732136
0.00288363
0.0728726
0.00294539
0.0725199
0.00300373
0.0721559
0.00305863
0.0717811
0.00311009
0.0713956
0.0031581
0.0710001
0.00320267
0.0705948
0.00324383
0.07018
0.00328162
0.0697563
0.00331606
0.0693239
0.00334724
0.0688831
0.00337522
0.00340005
0.0752876
0.00141496
-0.075338
0.0752203
0.00154212
0.0751361
0.001667
0.0750352
0.00178951
0.0749177
0.00190955
0.0747839
0.00202697
0.0746339
0.00214166
0.0744679
0.0022535
0.0742863
0.0023624
0.0740892
0.00246827
0.0738769
0.00257099
0.0736496
0.00267045
0.0734077
0.00276655
0.0731515
0.00285922
0.0728813
0.00294837
0.0725973
0.00303393
0.0722999
0.00311584
0.0719895
0.00319406
0.0716663
0.00326853
0.0713308
0.00333923
0.0709833
0.00340614
0.0706242
0.00346924
0.0702537
0.00352853
0.0698724
0.00358403
0.0694804
0.00363575
0.0690783
0.00368374
0.0686663
0.00372804
0.0682449
0.00376873
0.0678142
0.00380589
0.00383958
0.0736312
0.00144302
-0.0736593
0.0735863
0.00158704
0.0735246
0.00172868
0.0734463
0.00186785
0.0733514
0.00200441
0.0732402
0.00213821
0.0731127
0.0022691
0.0729692
0.00239696
0.0728099
0.0025217
0.072635
0.00264318
0.0724448
0.00276128
0.0722393
0.00287587
0.072019
0.00298686
0.0717841
0.00309415
0.0715348
0.00319764
0.0712715
0.00329727
0.0709944
0.00339295
0.0707038
0.00348462
0.0704001
0.00357225
0.0700835
0.00365578
0.0697545
0.00373519
0.0694133
0.00381046
0.0690602
0.00388159
0.0686957
0.00394858
0.06832
0.00401146
0.0679334
0.00407026
0.0675364
0.00412505
0.0671293
0.0041759
0.0667122
0.0042229
0.00426613
0.0719474
0.00145124
-0.0719556
0.0719225
0.00161189
0.0718811
0.0017701
0.0718232
0.00192574
0.071749
0.00207865
0.0716585
0.00222869
0.0715519
0.00237569
0.0714293
0.00251951
0.071291
0.00266002
0.0711371
0.00279708
0.0709678
0.00293056
0.0707834
0.00306033
0.070584
0.00318626
0.0703699
0.00330827
0.0701413
0.00342623
0.0698985
0.00354007
0.0696417
0.0036497
0.0693713
0.00375506
0.0690874
0.00385608
0.0687905
0.00395271
0.0684808
0.00404493
0.0681585
0.0041327
0.0678241
0.00421602
0.0674778
0.00429489
0.0671199
0.00436934
0.0667508
0.00443939
0.0663707
0.00450512
0.06598
0.0045666
0.065579
0.00462392
0.00467719
0.07026
0.00144232
-0.0702511
0.0702526
0.00161931
0.0702289
0.00179379
0.070189
0.00196563
0.070133
0.00213465
0.070061
0.00230068
0.0699732
0.00246356
0.0698695
0.00262314
0.0697503
0.00277925
0.0696157
0.00293173
0.0694658
0.00308045
0.0693008
0.00322528
0.069121
0.00336608
0.0689265
0.00350274
0.0687176
0.00363515
0.0684945
0.0037632
0.0682574
0.00388681
0.0680065
0.00400589
0.0677422
0.00412038
0.0674647
0.00423023
0.0671743
0.00433538
0.0668712
0.00443582
0.0665557
0.00453152
0.0662281
0.00462248
0.0658887
0.00470872
0.0655378
0.00479028
0.0651757
0.00486722
0.0648027
0.00493962
0.064419
0.00500758
0.00507123
0.0685887
0.00141901
-0.0685654
0.068596
0.00161199
0.0685874
0.00180241
0.0685629
0.00199012
0.0685227
0.00217493
0.0684667
0.00235664
0.0683951
0.0025351
0.0683082
0.00271012
0.0682059
0.00288154
0.0680884
0.00304918
0.067956
0.00321292
0.0678086
0.00337259
0.0676467
0.00352807
0.0674702
0.00367921
0.0672794
0.0038259
0.0670746
0.00396803
0.0668559
0.0041055
0.0666236
0.00423823
0.0663778
0.00436613
0.0661189
0.00448915
0.0658471
0.00460722
0.0655626
0.00472033
0.0652656
0.00482844
0.0649566
0.00493155
0.0646356
0.00502967
0.0643031
0.00512283
0.0639592
0.0052111
0.0636042