/*--------------------------------*- C++ -*----------------------------------*\
  =========                 |
  \\      /  F ield         | OpenFOAM: The Open Source CFD Toolbox
   \\    /   O peration     | Website:  https://openfoam.org
    \\  /    A nd           | Version:  6.0
     \\/     M anipulation  |
\*---------------------------------------------------------------------------*/
FoamFile
{
    version     2.0;
    format      ascii;
    class       volVectorField;
    location    "4.7495";
    object      U;
}
// * * * * * * * * * * * * * * * * * * * * * * * * * * * * * * * * * * * * * //

dimensions      [0 1 -1 0 0 0 0];

internalField   nonuniform List<vector> 
19200
(
(0.0994564 -4.79544 -8.0699e-21)
(0.0625371 -4.46538 4.12519e-21)
(0.06822 -4.19433 1.94544e-21)
(0.0815097 -3.97135 1.74811e-21)
(0.0962129 -3.78696 1.97708e-21)
(0.113851 -3.63323 1.30062e-22)
(0.133931 -3.50373 2.86102e-21)
(0.155647 -3.3933 -2.12015e-22)
(0.178424 -3.29782 2.55916e-21)
(0.201797 -3.214 1.08113e-21)
(0.225369 -3.13924 -5.18413e-24)
(0.248814 -3.0715 1.74753e-21)
(0.271868 -3.00919 2.92983e-21)
(0.294327 -2.95104 -2.01351e-21)
(0.316033 -2.8961 2.60531e-21)
(0.336869 -2.84361 2.28343e-21)
(0.356754 -2.79302 -2.16327e-21)
(0.375639 -2.7439 3.74033e-21)
(0.393494 -2.69591 -2.40039e-21)
(0.410315 -2.64882 1.21188e-21)
(0.426109 -2.60244 1.72345e-21)
(0.440897 -2.55664 -5.64332e-22)
(0.454709 -2.5113 7.65186e-22)
(0.46758 -2.46634 -9.02871e-22)
(0.479552 -2.42169 -3.24667e-24)
(0.490666 -2.37728 4.86313e-22)
(0.50096 -2.33304 -3.20959e-22)
(0.510476 -2.28892 1.96292e-22)
(0.519276 -2.24484 4.64886e-22)
(0.527356 -2.20072 1.96705e-21)
(0.22523 -4.79285 -1.86489e-21)
(0.180155 -4.46841 1.27715e-20)
(0.179114 -4.20164 -6.81462e-21)
(0.186978 -3.98235 -9.44096e-21)
(0.197304 -3.8012 -4.32319e-21)
(0.211368 -3.65019 -3.13961e-21)
(0.228483 -3.5229 -6.87684e-21)
(0.247689 -3.41422 8.67065e-22)
(0.268295 -3.32006 -1.45715e-21)
(0.289742 -3.23717 -5.24417e-21)
(0.311563 -3.163 -1.3375e-20)
(0.33338 -3.09555 6.60134e-21)
(0.354888 -3.03326 -2.48283e-21)
(0.375854 -2.97492 9.46421e-22)
(0.396098 -2.91959 -5.8959e-21)
(0.415491 -2.86658 -2.20329e-21)
(0.433942 -2.81535 2.48676e-22)
(0.451393 -2.76548 7.62614e-21)
(0.467817 -2.71668 -4.01704e-21)
(0.483204 -2.66873 -2.24826e-21)
(0.497564 -2.62147 -8.95414e-21)
(0.510919 -2.57476 2.31665e-21)
(0.523301 -2.52852 -1.47877e-21)
(0.534748 -2.48266 2.63662e-21)
(0.545304 -2.43713 -1.22735e-21)
(0.555011 -2.39185 -1.92833e-21)
(0.563908 -2.34676 6.31004e-22)
(0.572043 -2.3018 9.88446e-22)
(0.579504 -2.2569 -1.76101e-21)
(0.586235 -2.21195 9.38925e-22)
(0.350676 -4.78729 -9.04289e-22)
(0.297694 -4.46861 2.74873e-21)
(0.290273 -4.20628 4.19752e-21)
(0.292989 -3.99084 3.3141e-20)
(0.299152 -3.81305 -1.94412e-20)
(0.309808 -3.66484 1.79225e-20)
(0.324085 -3.53984 1.1149e-20)
(0.340879 -3.43295 8.83864e-21)
(0.359383 -3.34013 -8.57242e-21)
(0.378952 -3.25818 -1.00695e-21)
(0.39905 -3.18459 2.21163e-20)
(0.419248 -3.11742 3.77713e-21)
(0.439205 -3.05515 -1.04382e-20)
(0.45866 -2.9966 8.28376e-21)
(0.477417 -2.94089 -6.72169e-23)
(0.495332 -2.88734 3.61793e-21)
(0.512307 -2.83545 2.65961e-21)
(0.528281 -2.78485 9.01792e-21)
(0.543224 -2.73524 -3.99313e-21)
(0.557128 -2.68645 -1.31794e-21)
(0.570004 -2.63831 -3.56545e-21)
(0.581877 -2.59072 1.59147e-20)
(0.592781 -2.5436 -1.33757e-20)
(0.602757 -2.49688 4.38669e-21)
(0.611851 -2.4505 2.07925e-21)
(0.620109 -2.40439 -8.34716e-21)
(0.627567 -2.3585 1.12323e-20)
(0.634283 -2.31276 -1.22101e-21)
(0.640367 -2.26708 -1.28749e-21)
(0.64571 -2.22136 -9.42954e-21)
(0.475948 -4.77865 -2.98395e-20)
(0.415291 -4.46597 -2.78614e-20)
(0.401735 -4.20827 -3.46305e-20)
(0.399531 -3.99682 1.07953e-21)
(0.401723 -3.8225 2.09856e-21)
(0.409129 -3.67719 -4.04959e-20)
(0.420694 -3.55451 1.80342e-21)
(0.435171 -3.44944 5.36195e-21)
(0.451642 -3.35797 -9.04156e-22)
(0.469376 -3.27696 9.51237e-21)
(0.487774 -3.20395 -3.81019e-20)
(0.506359 -3.13705 -2.42212e-20)
(0.524757 -3.07478 9.00632e-21)
(0.542682 -3.01602 1.83662e-20)
(0.559921 -2.95991 -2.1483e-20)
(0.57632 -2.90583 -3.43503e-21)
(0.591777 -2.85328 -1.30007e-20)
(0.606228 -2.80194 -6.23131e-21)
(0.619641 -2.75154 1.05419e-20)
(0.632012 -2.70191 -1.36291e-20)
(0.643354 -2.65292 1.19577e-20)
(0.653694 -2.60447 -1.42584e-20)
(0.663071 -2.55651 -1.13777e-20)
(0.67153 -2.50895 -8.2138e-21)
(0.679119 -2.46176 -2.39888e-21)
(0.685884 -2.41487 -1.71971e-20)
(0.691867 -2.36823 1.78374e-21)
(0.697128 -2.32175 3.14402e-21)
(0.701801 -2.27536 -9.21087e-21)
(0.705719 -2.22894 1.9839e-21)
(0.601003 -4.76684 -1.79028e-20)
(0.532938 -4.46047 2.65369e-21)
(0.513481 -4.20759 2.40675e-20)
(0.506573 -4.00028 2.56551e-20)
(0.504982 -3.82953 1.8642e-20)
(0.509291 -3.68717 7.76912e-21)
(0.518265 -3.56687 1.21742e-20)
(0.530515 -3.46363 5.69933e-20)
(0.545017 -3.37352 -3.44431e-20)
(0.560956 -3.29345 9.39546e-22)
(0.577675 -3.22102 8.44123e-21)
(0.594651 -3.15437 3.73177e-20)
(0.611478 -3.0921 -2.5706e-20)
(0.627849 -3.03311 1.87281e-20)
(0.643537 -2.9766 -2.11306e-20)
(0.658381 -2.92197 3.64903e-20)
(0.672274 -2.86877 -1.08803e-20)
(0.685153 -2.8167 3.7958e-22)
(0.696987 -2.76552 1.79738e-20)
(0.707773 -2.71507 1.27205e-20)
(0.71753 -2.66525 -1.30462e-20)
(0.726289 -2.61597 1.7808e-20)
(0.734094 -2.56719 -8.23253e-21)
(0.74099 -2.51884 9.51282e-21)
(0.747031 -2.47089 1.28262e-20)
(0.752266 -2.42326 4.74795e-21)
(0.756733 -2.37592 1.45485e-20)
(0.760508 -2.32877 -5.1264e-21)
(0.763738 -2.28172 -1.72187e-21)
(0.7662 -2.23466 -8.92959e-21)
(0.725774 -4.75187 -1.31145e-20)
(0.650591 -4.45208 -8.94781e-21)
(0.625475 -4.20422 -2.75247e-20)
(0.614076 -4.00119 -7.25856e-20)
(0.608885 -3.8341 2.45852e-20)
(0.610247 -3.69475 1.61736e-21)
(0.616747 -3.57685 -1.71979e-20)
(0.626859 -3.47546 3.62658e-21)
(0.639452 -3.38672 -2.41293e-21)
(0.653634 -3.30758 -4.59653e-20)
(0.66869 -3.23571 1.94553e-20)
(0.684054 -3.16931 3.40499e-20)
(0.699295 -3.10702 1.15322e-22)
(0.714086 -3.0478 1.29332e-20)
(0.728188 -2.99088 3.24104e-20)
(0.741435 -2.93571 -2.25088e-20)
(0.753718 -2.88187 4.00413e-20)
(0.764974 -2.82907 -1.92837e-20)
(0.775177 -2.77712 3.46881e-20)
(0.784328 -2.72588 -2.6173e-20)
(0.792449 -2.67525 1.18012e-20)
(0.799579 -2.62518 3.13679e-20)
(0.805763 -2.57562 1.92014e-21)
(0.811054 -2.52652 -2.94012e-20)
(0.815507 -2.47784 1.6702e-20)
(0.819173 -2.42954 1.988e-21)
(0.822094 -2.38155 -5.42394e-21)
(0.824349 -2.33379 2.09234e-20)
(0.826111 -2.28614 7.44389e-21)
(0.827087 -2.23851 -7.66784e-21)
(0.850185 -4.73372 3.68205e-20)
(0.768191 -4.44079 -9.58157e-22)
(0.737666 -4.19814 -5.63438e-20)
(0.721992 -3.99951 1.14838e-20)
(0.713384 -3.83617 -1.64058e-20)
(0.711949 -3.69989 1.19695e-20)
(0.716089 -3.58441 2.70791e-20)
(0.724146 -3.48489 5.00479e-20)
(0.734887 -3.3975 -5.48825e-20)
(0.747345 -3.31929 1.35474e-20)
(0.76075 -3.24797 -9.76909e-21)
(0.774499 -3.18181 7.26099e-21)
(0.788135 -3.11949 -3.21926e-20)
(0.801315 -3.06003 -2.10057e-21)
(0.813793 -3.0027 5.34597e-20)
(0.825398 -2.94698 -3.69832e-20)
(0.836022 -2.8925 -2.36717e-20)
(0.845605 -2.83899 -1.7513e-20)
(0.854124 -2.78629 3.2126e-20)
(0.861588 -2.73428 7.04468e-21)
(0.868023 -2.68288 -3.21614e-20)
(0.873474 -2.63205 4.34121e-20)
(0.877991 -2.58175 -3.93821e-20)
(0.881634 -2.53195 2.64175e-20)
(0.884462 -2.4826 -1.50085e-20)
(0.886526 -2.43367 9.91072e-21)
(0.88787 -2.3851 7.5222e-21)
(0.88858 -2.33679 -3.35997e-20)
(0.888849 -2.28861 1.45725e-20)
(0.888316 -2.24049 2.96803e-22)
(0.974157 -4.71239 -3.64124e-20)
(0.885675 -4.42658 3.07326e-20)
(0.85 -4.18932 -5.82849e-20)
(0.830271 -3.99522 1.12414e-19)
(0.818429 -3.8357 -3.19081e-20)
(0.814342 -3.70252 4.62338e-20)
(0.816235 -3.5895 -1.46866e-22)
(0.822318 -3.49184 -6.37017e-21)
(0.83126 -3.40581 -9.79959e-21)
(0.842022 -3.32851 -1.84741e-22)
(0.853784 -3.25773 -3.87837e-20)
(0.865909 -3.19179 2.02498e-20)
(0.877918 -3.12943 -2.49912e-20)
(0.889455 -3.06972 -1.95919e-21)
(0.900268 -3.01199 -7.16818e-20)
(0.910184 -2.95573 2.35348e-20)
(0.919099 -2.90062 1.39739e-20)
(0.926956 -2.84643 -1.57722e-20)
(0.93374 -2.793 -1.83896e-21)
(0.939463 -2.74025 -2.48987e-20)
(0.944162 -2.68811 -9.02221e-21)
(0.947886 -2.63656 8.73723e-22)
(0.950694 -2.58556 -2.23546e-20)
(0.952648 -2.5351 -3.35287e-20)
(0.953813 -2.48514 1.38847e-21)
(0.954244 -2.43565 -3.81374e-21)
(0.953982 -2.38655 1.08548e-20)
(0.953125 -2.33775 -2.70174e-20)
(0.95188 -2.28912 2.31807e-20)
(0.949818 -2.24057 -4.75722e-20)
(1.09761 -4.68791 -9.09526e-20)
(1.00298 -4.40945 1.14441e-19)
(0.962418 -4.17775 -1.22986e-19)
(0.938856 -3.98828 -3.35853e-20)
(0.923964 -3.83265 -2.20623e-20)
(0.91737 -3.70261 -2.41774e-20)
(0.917126 -3.59205 -2.23365e-20)
(0.921312 -3.49626 -4.75587e-21)
(0.928503 -3.41157 -2.31041e-20)
(0.937594 -3.33518 -5.31972e-21)
(0.947717 -3.26492 4.0505e-20)
(0.958207 -3.19919 -2.30986e-20)
(0.968563 -3.13679 -2.81229e-20)
(0.978421 -3.07683 -4.81727e-20)
(0.987525 -3.01869 1.02136e-19)
(0.995705 -2.96191 -3.97858e-20)
(1.00286 -2.90618 1.49826e-20)
(1.00894 -2.85132 -5.66344e-20)
(1.01393 -2.79719 2.17865e-20)
(1.01786 -2.74373 -9.17983e-21)
(1.02078 -2.69089 1.14563e-20)
(1.02273 -2.63866 -4.15835e-21)
(1.02378 -2.58702 3.72509e-20)
(1.02401 -2.53596 -1.33295e-20)
(1.02348 -2.48545 3.71082e-20)
(1.02225 -2.43544 -7.36697e-21)
(1.02035 -2.38588 4.89984e-20)
(1.01791 -2.33668 1.37166e-20)
(1.01513 -2.28765 2.5968e-20)
(1.01153 -2.23876 -8.48964e-20)
(1.22048 -4.66026 1.43925e-19)
(1.12003 -4.3894 -2.88416e-20)
(1.07486 -4.1634 5.2637e-20)
(1.04769 -3.97867 -1.53953e-20)
(1.02993 -3.82698 5.43642e-20)
(1.02097 -3.70011 5.23984e-20)
(1.0187 -3.59202 6.03646e-20)
(1.02106 -3.49809 -5.13391e-21)
(1.02655 -3.41474 -5.97166e-20)
(1.03399 -3.33923 8.83266e-20)
(1.04247 -3.26949 -7.21013e-21)
(1.05131 -3.20396 6.42309e-20)
(1.05998 -3.14151 2.36212e-20)
(1.06812 -3.0813 8.62802e-21)
(1.07547 -3.02275 1.42644e-20)
(1.08187 -2.96545 1.96313e-20)
(1.08721 -2.90913 3.32716e-20)
(1.09145 -2.85363 -9.72627e-21)
(1.0946 -2.79883 5.00337e-20)
(1.09669 -2.7447 2.34327e-20)
(1.09777 -2.6912 -4.92136e-20)
(1.09791 -2.63834 8.8019e-20)
(1.09717 -2.58611 -1.17303e-19)
(1.09563 -2.5345 1.12063e-19)
(1.09337 -2.4835 -3.73792e-20)
(1.09045 -2.43305 7.14062e-21)
(1.08691 -2.3831 -5.02397e-20)
(1.08285 -2.33355 2.81809e-20)
(1.07854 -2.28421 1.02787e-20)
(1.07337 -2.23506 -1.31661e-20)
(1.34266 -4.62948 -8.27532e-20)
(1.23676 -4.3664 8.46021e-20)
(1.18726 -4.14625 -2.3303e-20)
(1.15671 -3.96634 6.81082e-20)
(1.13627 -3.81865 6.66915e-21)
(1.12509 -3.69497 1.54027e-20)
(1.12089 -3.58936 -1.21932e-19)
(1.12149 -3.49728 -2.17426e-20)
(1.12531 -3.41525 8.08477e-20)
(1.13112 -3.34062 6.29586e-20)
(1.13796 -3.27137 -1.0805e-19)
(1.14513 -3.20603 6.39285e-20)
(1.15209 -3.14353 -6.45481e-20)
(1.15847 -3.08307 4.54309e-20)
(1.16402 -3.02413 -7.63649e-20)
(1.16857 -2.96633 -5.77277e-20)
(1.17205 -2.90944 3.43895e-21)
(1.1744 -2.85331 -2.71941e-20)
(1.17566 -2.79788 4.85407e-20)
(1.17586 -2.74312 1.94584e-20)
(1.17505 -2.68901 -1.28603e-20)
(1.17333 -2.63557 -3.83933e-21)
(1.17075 -2.5828 1.56569e-20)
(1.16742 -2.53071 -5.2317e-20)
(1.1634 -2.47927 8.81463e-20)
(1.15877 -2.42845 -2.1479e-20)
(1.15355 -2.37819 -1.81818e-21)
(1.14788 -2.32837 7.88402e-20)
(1.14201 -2.27878 1.0845e-20)
(1.13529 -2.22945 -1.16473e-20)
(1.4641 -4.59556 2.79308e-21)
(1.3531 -4.34047 -4.69436e-20)
(1.29955 -4.1263 -4.42265e-20)
(1.26585 -3.95128 -7.36119e-20)
(1.24291 -3.80762 2.29524e-21)
(1.22965 -3.68715 -5.48662e-20)
(1.22362 -3.58401 6.55049e-20)
(1.22254 -3.49378 -6.14479e-21)
(1.22473 -3.41305 5.54173e-20)
(1.22892 -3.33927 -4.55566e-20)
(1.23411 -3.27051 -2.40547e-20)
(1.23958 -3.20535 1.32861e-20)
(1.24479 -3.14279 7.27716e-21)
(1.24937 -3.08209 -7.5783e-20)
(1.25307 -3.02277 4.5153e-20)
(1.25573 -2.96449 -2.29922e-20)
(1.25728 -2.90705 6.51559e-20)
(1.2577 -2.85034 -2.17839e-20)
(1.25701 -2.79432 2.30397e-20)
(1.25526 -2.73896 5.69817e-21)
(1.25253 -2.68429 3.99253e-20)
(1.24889 -2.63033 -8.16373e-21)
(1.24445 -2.57709 6.68315e-20)
(1.23929 -2.52458 -7.46673e-20)
(1.23348 -2.47277 -2.55061e-20)
(1.22711 -2.42165 2.11042e-20)
(1.22021 -2.37114 -1.77445e-21)
(1.21291 -2.32113 -3.74577e-20)
(1.20549 -2.27138 3.0567e-20)
(1.19721 -2.22196 -3.76951e-20)
(1.5847 -4.55853 1.41039e-19)
(1.46897 -4.31159 4.01604e-20)
(1.41167 -4.10351 4.82714e-20)
(1.37505 -3.93346 6.68196e-20)
(1.3498 -3.79386 1.01367e-19)
(1.33459 -3.6766 -2.81623e-21)
(1.32683 -3.57593 1.48575e-20)
(1.32412 -3.48752 1.19177e-19)
(1.32472 -3.40808 -2.4512e-20)
(1.32728 -3.33514 -4.50178e-20)
(1.33082 -3.26685 8.08247e-20)
(1.33457 -3.20187 1.40649e-20)
(1.33799 -3.13925 8.53836e-22)
(1.34072 -3.07832 1.9902e-20)
(1.34252 -3.01863 3.64654e-20)
(1.34323 -2.95989 -7.60002e-20)
(1.34281 -2.90194 6.52601e-20)
(1.34123 -2.84468 1.12579e-20)
(1.33854 -2.7881 6.52523e-20)
(1.3348 -2.73221 -3.54334e-20)
(1.33009 -2.67703 5.95318e-20)
(1.32451 -2.6226 -6.36918e-20)
(1.31816 -2.56895 6.22448e-20)
(1.31114 -2.51608 8.87542e-21)
(1.30353 -2.46399 -4.22701e-20)
(1.2954 -2.41264 -1.40541e-20)
(1.28681 -2.36196 8.27105e-20)
(1.27787 -2.31183 6.06341e-20)
(1.2689 -2.26201 1.63008e-20)
(1.25905 -2.21257 -1.19072e-20)
(1.70439 -4.5184 1.46734e-20)
(1.58432 -4.27977 3.52175e-20)
(1.52354 -4.07789 1.44088e-19)
(1.48425 -3.91285 -2.37464e-19)
(1.45686 -3.77733 -2.39028e-20)
(1.43984 -3.66329 -2.60082e-20)
(1.43044 -3.56506 1.18628e-20)
(1.42616 -3.47846 1.66015e-20)
(1.42518 -3.40029 2.75561e-20)
(1.42614 -3.32817 -7.43633e-20)
(1.428 -3.26034 -1.49931e-20)
(1.42999 -3.19553 4.29932e-20)
(1.43159 -3.13286 4.72282e-20)
(1.43243 -3.07171 -4.71042e-20)
(1.43227 -3.01167 -4.7439e-20)
(1.43098 -2.9525 7.73249e-20)
(1.42852 -2.89406 5.13927e-20)
(1.4249 -2.83631 -1.29523e-20)
(1.42016 -2.77922 -3.32654e-20)
(1.41437 -2.72284 6.3154e-21)
(1.40765 -2.66721 -7.86609e-20)
(1.40008 -2.61238 9.57743e-20)
(1.39179 -2.55837 -6.59032e-20)
(1.38288 -2.50522 -2.87093e-21)
(1.37344 -2.45291 4.4273e-20)
(1.36355 -2.40141 -1.38267e-20)
(1.35324 -2.35065 -4.22311e-20)
(1.34267 -2.30049 5.24094e-20)
(1.33215 -2.25067 -1.44936e-21)
(1.32075 -2.2013 9.46541e-21)
(1.82309 -4.4752 -1.04771e-20)
(1.69905 -4.24502 -3.62747e-20)
(1.6351 -4.04941 -1.667e-19)
(1.59336 -3.88943 6.06091e-20)
(1.56402 -3.75801 -1.88167e-20)
(1.54532 -3.64717 6.28573e-20)
(1.53436 -3.55137 4.82075e-21)
(1.52857 -3.46655 -7.44019e-20)
(1.52605 -3.38963 1.14439e-19)
(1.52539 -3.31831 -1.04316e-19)
(1.52555 -3.25093 -4.38422e-21)
(1.52576 -3.1863 2.61699e-20)
(1.52549 -3.12358 -4.52784e-20)
(1.52438 -3.06222 5.26907e-20)
(1.52221 -3.00186 -1.01112e-19)
(1.51887 -2.94229 -2.33251e-20)
(1.51433 -2.88341 6.23944e-20)
(1.5086 -2.82519 -2.67345e-23)
(1.50176 -2.76765 -4.04396e-20)
(1.49389 -2.71084 1.10724e-19)
(1.4851 -2.65482 -5.9679e-20)
(1.47551 -2.59964 -8.08225e-20)
(1.46525 -2.54536 2.71155e-20)
(1.45442 -2.49199 -7.97754e-20)
(1.44313 -2.43954 -1.94572e-20)
(1.43145 -2.38796 -2.53804e-21)
(1.41944 -2.3372 -5.33033e-20)
(1.40724 -2.2871 6.39528e-20)
(1.39517 -2.23736 -3.58559e-20)
(1.38224 -2.18817 4.23873e-20)
(1.94073 -4.42894 -5.10949e-20)
(1.81311 -4.20733 -1.47366e-19)
(1.74628 -4.01806 7.25414e-20)
(1.70232 -3.86318 -7.03856e-20)
(1.6712 -3.73585 -5.23999e-20)
(1.65095 -3.6282 -3.09106e-20)
(1.63853 -3.53481 -1.15008e-19)
(1.63126 -3.45175 7.91134e-20)
(1.62721 -3.37605 -1.97965e-19)
(1.62494 -3.30552 -7.32616e-20)
(1.62338 -3.23858 2.62992e-20)
(1.62177 -3.17412 4.46884e-20)
(1.61959 -3.11136 -6.09737e-22)
(1.61648 -3.04981 -8.72851e-20)
(1.61225 -2.98916 2.06147e-20)
(1.6068 -2.92922 -8.12803e-20)
(1.60012 -2.86994 -5.90257e-20)
(1.59224 -2.81131 -3.59363e-20)
(1.58324 -2.75337 -7.35811e-21)
(1.57323 -2.69619 6.17846e-20)
(1.56234 -2.63984 8.91465e-20)
(1.5507 -2.58439 -2.69692e-20)
(1.53843 -2.52989 -2.63496e-20)
(1.52567 -2.47639 5.12421e-20)
(1.51251 -2.42387 2.86238e-20)
(1.49904 -2.3723 -2.28473e-20)
(1.48531 -2.32163 -2.57567e-20)
(1.47148 -2.27167 2.91183e-21)
(1.45788 -2.22211 2.70991e-20)
(1.44344 -2.17317 3.76011e-20)
(2.05721 -4.37965 -9.86916e-21)
(1.92641 -4.16671 1.87604e-19)
(1.85701 -3.98384 1.46935e-19)
(1.81106 -3.83407 1.15554e-19)
(1.77834 -3.71083 -7.59716e-20)
(1.75666 -3.60634 -1.5336e-20)
(1.74285 -3.51534 1.3837e-20)
(1.73416 -3.43401 1.01022e-19)
(1.72859 -3.35951 3.84171e-20)
(1.72469 -3.28975 9.42027e-20)
(1.72139 -3.22325 -1.32959e-19)
(1.71792 -3.15896 1.3478e-20)
(1.71378 -3.09618 5.50842e-20)
(1.70862 -3.03446 3.43219e-20)
(1.70228 -2.97354 7.22729e-20)
(1.69466 -2.91328 -4.94455e-20)
(1.68578 -2.85365 -4.64233e-20)
(1.6757 -2.79466 8.76859e-21)
(1.6645 -2.73638 1.00889e-19)
(1.65231 -2.67889 -1.63696e-19)
(1.63928 -2.62227 5.73376e-20)
(1.62555 -2.56661 -4.08807e-22)
(1.61125 -2.51198 1.10168e-19)
(1.59652 -2.45841 -4.77784e-20)
(1.58148 -2.40591 -2.5397e-21)
(1.56621 -2.35444 -3.09051e-20)
(1.55077 -2.30393 2.94761e-20)
(1.53531 -2.25421 7.26319e-21)
(1.5202 -2.20492 -3.31091e-20)
(1.50426 -2.15634 1.13752e-19)
(2.17248 -4.32735 -1.89527e-19)
(2.03888 -4.12316 -1.14348e-19)
(1.9672 -3.94675 -2.96244e-19)
(1.9195 -3.80209 -1.36632e-19)
(1.88535 -3.68292 1.28718e-19)
(1.86236 -3.58158 -7.69698e-20)
(1.84724 -3.49292 -1.92316e-20)
(1.83715 -3.41329 -5.21651e-20)
(1.83008 -3.33997 8.9346e-20)
(1.82455 -3.27097 -2.08334e-20)
(1.81947 -3.20489 -3.29159e-20)
(1.81411 -3.14078 -4.14494e-21)
(1.80795 -3.07799 -1.36885e-19)
(1.8007 -3.01614 -6.04413e-21)
(1.79218 -2.95499 3.66894e-20)
(1.78235 -2.89445 -4.34846e-21)
(1.77122 -2.83451 -1.45732e-19)
(1.75888 -2.77522 1.42817e-19)
(1.74543 -2.71666 -1.41385e-19)
(1.73103 -2.65892 5.55539e-20)
(1.71582 -2.6021 7.90362e-21)
(1.69995 -2.54631 3.14671e-21)
(1.68359 -2.49161 -5.97855e-20)
(1.66688 -2.43806 2.03303e-20)
(1.64994 -2.38565 1.42776e-23)
(1.63286 -2.33436 6.76723e-21)
(1.61571 -2.28412 -1.5312e-19)
(1.59864 -2.23473 4.14881e-20)
(1.58202 -2.1858 4.49546e-20)
(1.56462 -2.13767 5.11434e-20)
(2.28644 -4.27208 3.70452e-19)
(2.15046 -4.07671 1.32042e-19)
(2.0768 -3.90677 7.81636e-20)
(2.02757 -3.76722 1.24971e-19)
(1.99216 -3.6521 -1.58048e-20)
(1.96798 -3.55386 9.64638e-20)
(1.9516 -3.46751 2.1682e-19)
(1.94016 -3.38955 -2.76399e-20)
(1.93159 -3.31738 1.28848e-20)
(1.9244 -3.24912 2.6381e-19)
(1.91752 -3.18348 -3.49358e-20)
(1.91021 -3.11955 3.74304e-20)
(1.902 -3.05678 -1.40246e-20)
(1.89259 -2.99481 -1.73707e-21)
(1.88185 -2.93348 1.98599e-19)
(1.86975 -2.87271 7.67809e-21)
(1.85632 -2.81252 2.1465e-19)
(1.84168 -2.75298 -2.70581e-20)
(1.82594 -2.6942 -4.7153e-20)
(1.80928 -2.63628 1.10617e-19)
(1.79185 -2.57934 -1.01847e-19)
(1.77383 -2.52348 1.1234e-19)
(1.75538 -2.4688 6.09484e-20)
(1.73666 -2.41533 -4.97104e-20)
(1.7178 -2.3631 7.58636e-20)
(1.69891 -2.31208 9.01435e-21)
(1.68004 -2.26219 -3.21612e-20)
(1.66136 -2.21323 1.71764e-20)
(1.64327 -2.16476 1.1569e-19)
(1.62443 -2.11719 1.81223e-20)
(2.39903 -4.21385 -6.37696e-20)
(2.26105 -4.02735 -1.33027e-19)
(2.18572 -3.8639 5.5567e-20)
(2.1352 -3.72945 -2.24319e-19)
(2.09869 -3.61835 1.07937e-19)
(2.07342 -3.52316 -1.99554e-19)
(2.05586 -3.43908 -1.32789e-19)
(2.04308 -3.36276 3.7292e-20)
(2.03301 -3.29172 3.7545e-20)
(2.02414 -3.22419 -1.82424e-19)
(2.01542 -3.15898 -7.96943e-20)
(2.00613 -3.09525 3.69713e-20)
(1.99581 -3.03252 -1.02671e-19)
(1.9842 -2.97048 -4.12148e-20)
(1.97119 -2.909 -2.79377e-20)
(1.95676 -2.84804 -2.81865e-20)
(1.94099 -2.78766 -1.19046e-19)
(1.92399 -2.72794 -7.51433e-20)
(1.90592 -2.66901 1.33815e-20)
(1.88696 -2.61098 2.47369e-20)
(1.86728 -2.55398 2.6583e-20)
(1.84707 -2.49813 -9.24256e-20)
(1.82651 -2.44352 3.49027e-20)
(1.80576 -2.39022 -7.24304e-20)
(1.78497 -2.33825 6.85657e-20)
(1.76426 -2.28758 -9.04473e-20)
(1.74367 -2.23814 2.85699e-20)
(1.7234 -2.1897 -4.48182e-20)
(1.70385 -2.14181 -6.39508e-20)
(1.68361 -2.0949 -6.66933e-21)
(2.51016 -4.15271 -1.34805e-19)
(2.3706 -3.97511 -1.2018e-19)
(2.2939 -3.81816 -1.19141e-19)
(2.24231 -3.68877 -8.92658e-20)
(2.20486 -3.58163 2.76419e-19)
(2.17859 -3.48945 3.92544e-20)
(2.1599 -3.4076 1.2056e-19)
(2.14582 -3.33288 1.86146e-19)
(2.13424 -3.26295 9.0552e-20)
(2.12367 -3.19615 -1.20974e-19)
(2.11307 -3.13137 1.96652e-19)
(2.10175 -3.06786 -1.92439e-19)
(2.08928 -3.00519 1.83099e-19)
(2.07541 -2.94312 2.16645e-20)
(2.06007 -2.88154 4.72642e-20)
(2.04327 -2.82045 1.55168e-20)
(2.02511 -2.75994 1.9377e-19)
(2.00572 -2.70011 -2.89889e-20)
(1.98528 -2.64108 2.61398e-20)
(1.96399 -2.58301 8.8628e-20)
(1.94202 -2.52602 -9.92539e-20)
(1.9196 -2.47025 7.94476e-20)
(1.8969 -2.4158 3.02192e-21)
(1.8741 -2.36274 3.62977e-20)
(1.85136 -2.31109 6.66704e-20)
(1.82881 -2.26086 -1.14634e-20)
(1.8065 -2.21196 6.65761e-20)
(1.78465 -2.16415 9.67543e-20)
(1.76366 -2.11693 -1.0521e-19)
(1.74206 -2.07081 -6.551e-20)
(2.61976 -4.08869 3.95569e-19)
(2.47902 -3.92001 -4.4453e-20)
(2.40126 -3.76953 9.24126e-20)
(2.34882 -3.64516 1.71464e-19)
(2.31059 -3.54194 -4.97166e-19)
(2.28342 -3.45271 5.41977e-20)
(2.26364 -3.37304 -1.92783e-19)
(2.24826 -3.29989 1.94121e-19)
(2.23516 -3.23105 -1.55533e-19)
(2.22287 -3.16497 8.46765e-20)
(2.21036 -3.10062 -3.0989e-19)
(2.19697 -3.03736 8.95386e-21)
(2.18228 -2.97479 -1.04011e-19)
(2.16611 -2.91272 1.57977e-19)
(2.1484 -2.85109 -1.6895e-19)
(2.12918 -2.78994 -9.18019e-21)
(2.10859 -2.72936 -1.38641e-19)
(2.08677 -2.66947 -1.14943e-20)
(2.06392 -2.61043 1.15046e-20)
(2.04026 -2.55238 3.1256e-20)
(2.01599 -2.49548 -1.7652e-19)
(1.99132 -2.43985 -5.4181e-21)
(1.96645 -2.38562 -9.95387e-20)
(1.94158 -2.33286 -2.33959e-20)
(1.91688 -2.28162 -6.15711e-20)
(1.89248 -2.2319 -6.75499e-20)
(1.86845 -2.18363 -7.06925e-20)
(1.84501 -2.13655 1.17055e-19)
(1.82261 -2.09013 3.15439e-20)
(1.79969 -2.04491 -6.32393e-20)
(2.72775 -4.02181 -2.63673e-19)
(2.58626 -3.86205 9.87538e-20)
(2.50775 -3.71802 -1.70469e-19)
(2.45467 -3.59862 2.56785e-20)
(2.41578 -3.49925 2.83146e-19)
(2.3878 -3.41292 -1.44684e-19)
(2.36698 -3.33538 -1.53735e-19)
(2.35031 -3.26376 -1.31851e-19)
(2.33568 -3.19599 6.27243e-21)
(2.32163 -3.13062 8.59751e-20)
(2.30717 -3.06674 -6.31713e-20)
(2.29165 -3.00374 2.63395e-21)
(2.27472 -2.9413 1.97487e-19)
(2.2562 -2.87928 -1.00542e-19)
(2.23606 -2.81766 2.65796e-20)
(2.21439 -2.75651 -8.25864e-20)
(2.19132 -2.69592 3.15874e-20)
(2.16704 -2.63605 6.90886e-20)
(2.14175 -2.57706 7.84653e-20)
(2.1157 -2.51911 -8.63554e-20)
(2.08909 -2.46236 1.2746e-20)
(2.06215 -2.40694 7.47203e-20)
(2.0351 -2.35299 1.30223e-19)
(2.00814 -2.3006 3.4598e-20)
(1.98145 -2.24983 -1.35321e-19)
(1.95517 -2.20069 1.58167e-19)
(1.92941 -2.15313 -7.94404e-20)
(1.90438 -2.10688 -9.53018e-20)
(1.88058 -2.06136 -5.87251e-20)
(1.85638 -2.01717 -8.15776e-20)
(2.83407 -3.95212 1.40241e-19)
(2.69224 -3.80128 -1.13773e-19)
(2.61329 -3.66365 4.38702e-20)
(2.55978 -3.54914 2.34272e-19)
(2.52037 -3.45353 6.43263e-20)
(2.49163 -3.37004 -5.56858e-20)
(2.4698 -3.29459 1.35597e-19)
(2.45184 -3.22447 3.16366e-20)
(2.43567 -3.15775 1.30318e-19)
(2.41984 -3.09311 7.23345e-20)
(2.40338 -3.02969 3.09457e-21)
(2.3857 -2.96699 4.62614e-20)
(2.36647 -2.90473 -1.47637e-20)
(2.34555 -2.84282 2.58422e-20)
(2.32295 -2.78126 7.21212e-20)
(2.29878 -2.72016 -4.0008e-20)
(2.2732 -2.65964 9.9356e-20)
(2.24643 -2.59987 1.01549e-19)
(2.21869 -2.541 -1.16389e-19)
(2.19022 -2.48322 1.19883e-19)
(2.16126 -2.42668 2.56272e-19)
(2.13204 -2.37153 -1.66293e-19)
(2.10278 -2.31791 1.67988e-19)
(2.0737 -2.26594 -1.18155e-19)
(2.045 -2.21568 -1.68385e-20)
(2.01683 -2.16718 1.28038e-19)
(1.9893 -2.1204 -2.59754e-20)
(1.96266 -2.07508 9.69633e-20)
(1.93747 -2.03058 9.67819e-20)
(1.91202 -1.98756 -1.95659e-19)
(2.93865 -3.87966 -1.35527e-19)
(2.79692 -3.73771 6.45387e-20)
(2.71783 -3.6064 2.69951e-20)
(2.66408 -3.4967 -2.74245e-19)
(2.62425 -3.40478 -1.43661e-19)
(2.59483 -3.32406 1.08787e-19)
(2.57201 -3.25064 -3.05477e-19)
(2.55276 -3.182 3.71959e-19)
(2.53502 -3.11633 -2.10714e-19)
(2.51737 -3.05242 2.5319e-20)
(2.49888 -2.98949 -4.02307e-20)
(2.479 -2.92712 -1.23244e-19)
(2.45742 -2.86508 2.56172e-19)
(2.43406 -2.80333 9.7621e-20)
(2.40896 -2.74191 -1.01594e-19)
(2.38226 -2.68093 2.75836e-21)
(2.35415 -2.62055 5.71826e-20)
(2.32486 -2.56094 -1.24835e-19)
(2.29464 -2.50227 2.64631e-20)
(2.26374 -2.44472 8.70763e-20)
(2.23241 -2.38846 -3.65076e-20)
(2.2009 -2.33364 6.07136e-20)
(2.16943 -2.28041 -1.20081e-19)
(2.13822 -2.22889 1.74306e-19)
(2.10748 -2.17918 4.09826e-20)
(2.07737 -2.13134 -1.11307e-19)
(2.04804 -2.08538 -9.68613e-20)
(2.01978 -2.04106 1.00883e-22)
(1.99317 -1.99769 1.34376e-19)
(1.9665 -1.95598 -3.30904e-20)
(3.04143 -3.80446 -3.73785e-20)
(2.90026 -3.67137 -2.70752e-19)
(2.82132 -3.54629 3.2554e-19)
(2.76749 -3.44129 2.22478e-19)
(2.72734 -3.35297 2.24498e-19)
(2.69727 -3.27495 6.33505e-20)
(2.67348 -3.20353 9.56879e-20)
(2.65294 -3.13635 4.91303e-20)
(2.6336 -3.07172 -1.96978e-19)
(2.6141 -3.00854 3.62631e-19)
(2.59355 -2.94613 -2.94808e-19)
(2.57141 -2.88413 -1.98747e-20)
(2.54746 -2.82236 4.34575e-20)
(2.52162 -2.76083 -1.94479e-19)
(2.49399 -2.69961 1.71011e-19)
(2.46473 -2.63883 -5.17201e-20)
(2.43406 -2.57867 -1.32674e-19)
(2.40224 -2.51929 5.15064e-20)
(2.36953 -2.4609 -9.95943e-20)
(2.3362 -2.40366 -8.84414e-20)
(2.30251 -2.34773 -9.50186e-20)
(2.2687 -2.2933 2.16905e-20)
(2.235 -2.24049 1.25168e-20)
(2.20165 -2.18945 -2.35769e-19)
(2.16886 -2.14029 -9.01491e-20)
(2.13679 -2.09312 5.81606e-20)
(2.10561 -2.04799 7.25876e-20)
(2.07565 -2.0047 -1.00515e-19)
(2.04758 -1.96254 -3.85242e-20)
(2.01969 -1.92229 3.88117e-21)
(3.1424 -3.72656 -3.23056e-20)
(3.00225 -3.60227 1.75282e-19)
(2.92371 -3.48329 -5.02415e-20)
(2.86993 -3.38287 -6.20462e-20)
(2.82952 -3.29808 -3.48466e-19)
(2.79885 -3.2227 -7.75137e-20)
(2.77409 -3.15324 1.47879e-19)
(2.75225 -3.08749 -9.88176e-20)
(2.73131 -3.02391 -1.0779e-20)
(2.70993 -2.96148 -1.99403e-20)
(2.68726 -2.89963 1.1169e-19)
(2.66284 -2.83804 -1.77051e-19)
(2.63646 -2.7766 -1.19226e-19)
(2.60812 -2.71536 1.40779e-19)
(2.57792 -2.6544 -8.07287e-20)
(2.54608 -2.5939 -9.78973e-20)
(2.51284 -2.53403 2.09976e-19)
(2.47848 -2.47498 -3.33459e-20)
(2.44328 -2.41693 1.24946e-19)
(2.40753 -2.36007 -1.14738e-19)
(2.37148 -2.30455 -9.31075e-20)
(2.33539 -2.25055 8.15335e-20)
(2.29949 -2.1982 -9.17843e-21)
(2.26401 -2.14765 -6.13013e-20)
(2.22915 -2.09903 5.42987e-20)
(2.1951 -2.05249 -1.69693e-19)
(2.16202 -2.00814 1.0382e-19)
(2.13028 -1.96585 -1.66563e-21)
(2.10068 -1.92493 -1.09192e-19)
(2.07156 -1.8862 1.67023e-19)
(3.24165 -3.64602 1.32224e-19)
(3.10292 -3.53043 -3.44018e-19)
(3.02495 -3.41738 -2.91928e-20)
(2.97131 -3.32143 1.63471e-19)
(2.93069 -3.24007 -4.23889e-20)
(2.89944 -3.16728 -1.21414e-19)
(2.87373 -3.09976 5.67524e-20)
(2.85058 -3.03544 6.64195e-20)
(2.828 -2.97291 5.56252e-21)
(2.80471 -2.91126 8.27811e-20)
(2.7799 -2.84999 2.66703e-19)
(2.75315 -2.78886 -9.41179e-20)
(2.72432 -2.72782 2.43785e-20)
(2.69343 -2.66693 -6.43356e-20)
(2.66065 -2.60633 2.46971e-19)
(2.62621 -2.54618 -4.47701e-20)
(2.59039 -2.48669 1.48059e-19)
(2.55349 -2.42804 -5.79012e-20)
(2.51582 -2.37043 6.24033e-20)
(2.47765 -2.31402 9.48098e-20)
(2.43927 -2.25898 1.62977e-20)
(2.40093 -2.20546 6.42242e-20)
(2.36286 -2.15361 -5.33009e-20)
(2.32528 -2.10356 1.4895e-19)
(2.28839 -2.05545 -6.10758e-20)
(2.25236 -2.00944 2.24535e-19)
(2.21735 -1.96574 -6.50359e-20)
(2.18374 -1.92431 4.49939e-20)
(2.1525 -1.88449 -8.52605e-20)
(2.12216 -1.84731 1.62215e-19)
(3.33956 -3.56297 -2.91037e-19)
(3.2024 -3.45581 1.11202e-20)
(3.12497 -3.34847 -1.78578e-19)
(3.07148 -3.25688 3.26023e-20)
(3.03069 -3.17892 9.3559e-21)
(2.99889 -3.1087 -1.61047e-19)
(2.97225 -3.0431 -3.05466e-19)
(2.94779 -2.9802 1.53397e-19)
(2.92356 -2.91873 -2.19006e-19)
(2.89832 -2.85788 -1.16308e-19)
(2.87133 -2.79724 -6.67525e-20)
(2.84223 -2.73664 -5.35161e-20)
(2.81091 -2.67605 1.28079e-21)
(2.77745 -2.61559 -1.93885e-19)
(2.74207 -2.55542 1.27638e-19)
(2.70502 -2.49572 -2.10841e-19)
(2.66662 -2.43669 -5.37691e-20)
(2.6272 -2.37854 5.8319e-20)
(2.58706 -2.32145 7.37512e-20)
(2.54651 -2.26558 7.38849e-20)
(2.50584 -2.21109 5.69207e-20)
(2.4653 -2.15813 -1.43213e-19)
(2.42512 -2.10681 1.44757e-19)
(2.38551 -2.05727 -1.55291e-20)
(2.34665 -2.00963 -3.90964e-20)
(2.30869 -1.96404 -1.55584e-19)
(2.27173 -1.92074 -8.28517e-20)
(2.23614 -1.87971 1.53699e-19)
(2.20295 -1.84049 -5.05999e-20)
(2.17109 -1.80494 -5.26779e-20)
(3.43658 -3.47709 1.26587e-19)
(3.30072 -3.37798 1.20502e-20)
(3.2236 -3.27637 -3.48418e-20)
(3.17026 -3.18919 -7.78804e-21)
(3.12938 -3.11463 -6.39672e-20)
(3.09709 -3.04698 2.17796e-19)
(3.06953 -2.98327 -1.0318e-19)
(3.04375 -2.9218 6.79891e-20)
(3.01785 -2.8614 2.82749e-20)
(2.99064 -2.80139 1.0278e-19)
(2.96144 -2.74143 -4.00107e-20)
(2.92995 -2.6814 2.27245e-19)
(2.89611 -2.62134 -1.96486e-20)
(2.86007 -2.56139 1.48899e-19)
(2.82207 -2.50173 -2.51491e-19)
(2.78241 -2.44257 -1.91891e-20)
(2.74143 -2.38411 1.63902e-19)
(2.69949 -2.32654 -1.02374e-19)
(2.65692 -2.27007 -7.22236e-20)
(2.61403 -2.21483 -1.24777e-19)
(2.57112 -2.16099 -1.09928e-19)
(2.52845 -2.10867 1.18255e-19)
(2.48626 -2.05797 -1.1165e-19)
(2.44475 -2.009 2.43817e-20)
(2.4041 -1.96183 9.07911e-20)
(2.36444 -1.91659 6.31253e-20)
(2.32584 -1.87334 5.99046e-20)
(2.28845 -1.832 4.42674e-20)
(2.2528 -1.79254 -1.19853e-19)
(2.21836 -1.75817 -5.18562e-20)
(5.00722 -0.0294361 1.76264e-21)
(5.00038 -0.161169 1.74237e-20)
(4.99043 -0.291975 6.05354e-20)
(4.97736 -0.422135 3.31239e-20)
(4.96096 -0.551708 -7.01326e-20)
(4.94115 -0.680663 2.12328e-20)
(4.91795 -0.808934 -2.22603e-20)
(4.89137 -0.936443 -5.62649e-20)
(4.86143 -1.06311 1.43771e-19)
(4.82818 -1.18883 -3.42716e-20)
(4.79163 -1.31354 -3.45268e-20)
(4.75184 -1.43715 -7.32288e-20)
(4.70882 -1.55956 -2.10344e-19)
(4.66263 -1.6807 1.93772e-20)
(4.61331 -1.80049 -9.39619e-21)
(4.56091 -1.91885 -6.60565e-20)
(4.50546 -2.03569 1.41313e-19)
(4.44701 -2.15095 7.68191e-20)
(4.38563 -2.26455 1.47175e-19)
(4.32134 -2.37642 7.20171e-20)
(4.25422 -2.48648 -1.61366e-19)
(4.18432 -2.59466 6.4194e-21)
(4.11168 -2.70091 -3.05799e-19)
(4.03637 -2.80515 4.64289e-19)
(3.95845 -2.90733 -1.52422e-19)
(3.87798 -3.00739 -1.9726e-19)
(3.79503 -3.10528 -2.83393e-20)
(3.70966 -3.20098 -2.35924e-21)
(3.62198 -3.29456 -1.49882e-19)
(3.53194 -3.38639 2.65562e-19)
(5.01925 -0.0597195 7.27448e-21)