/*--------------------------------*- C++ -*----------------------------------*\
  =========                 |
  \\      /  F ield         | OpenFOAM: The Open Source CFD Toolbox
   \\    /   O peration     | Website:  https://openfoam.org
    \\  /    A nd           | Version:  6.0
     \\/     M anipulation  |
\*---------------------------------------------------------------------------*/
FoamFile
{
    version     2.0;
    format      ascii;
    class       volScalarField;
    location    "13.251";
    object      p;
}
// * * * * * * * * * * * * * * * * * * * * * * * * * * * * * * * * * * * * * //

dimensions      [0 2 -2 0 0 0 0];

internalField   nonuniform List<scalar> 
19200
(
-7.06118
-6.19514
-5.60416
-5.14508
-4.74094
-4.38597
-4.07246
-3.79183
-3.53807
-3.30683
-3.09478
-2.89933
-2.71841
-2.5504
-2.39392
-2.24788
-2.11132
-1.98345
-1.86356
-1.75104
-1.64536
-1.54603
-1.45262
-1.36474
-1.28205
-1.20422
-1.13099
-1.06207
-0.997193
-0.936279
-7.23987
-6.37314
-5.77992
-5.31739
-4.90913
-4.54964
-4.23136
-3.94584
-3.68716
-3.45104
-3.2342
-3.03408
-2.84863
-2.67624
-2.51556
-2.3655
-2.22509
-2.09355
-1.97017
-1.85433
-1.7455
-1.64318
-1.54693
-1.45637
-1.37113
-1.2909
-1.21539
-1.1443
-1.07729
-1.01464
-7.42327
-6.55435
-5.95832
-5.49213
-5.07959
-4.71543
-4.39225
-4.10172
-3.838
-3.59688
-3.37513
-3.17022
-2.98014
-2.80328
-2.63831
-2.48413
-2.33981
-2.20452
-2.07758
-1.95837
-1.84633
-1.74097
-1.64184
-1.54855
-1.46073
-1.37805
-1.30023
-1.22693
-1.15775
-1.09335
-7.60972
-6.73832
-6.13918
-5.66915
-5.25217
-4.88319
-4.55496
-4.25929
-3.9904
-3.74416
-3.51739
-3.30759
-3.11277
-2.93134
-2.762
-2.60363
-2.4553
-2.31621
-2.18565
-2.063
-1.9477
-1.83925
-1.7372
-1.64114
-1.5507
-1.46555
-1.38538
-1.30983
-1.23847
-1.17231
-7.79881
-6.92477
-6.32232
-5.84826
-5.42668
-5.05273
-4.71933
-4.41837
-4.1442
-3.89272
-3.66081
-3.44601
-3.24636
-3.06027
-2.88646
-2.72381
-2.57141
-2.42845
-2.29421
-2.16807
-2.04946
-1.93789
-1.83288
-1.73401
-1.64091
-1.55325
-1.47072
-1.39289
-1.31931
-1.25138
-7.99022
-7.11344
-6.50752
-6.02928
-5.60295
-5.22389
-4.88517
-4.57881
-4.29921
-4.04238
-3.80522
-3.58531
-3.38072
-3.18989
-3.01152
-2.84453
-2.68799
-2.54109
-2.40311
-2.27343
-2.15148
-2.03673
-1.92872
-1.82702
-1.73124
-1.64104
-1.5561
-1.47597
-1.40016
-1.33046
-8.18367
-7.3041
-6.69458
-6.21201
-5.78079
-5.39648
-5.05231
-4.74041
-4.45527
-4.19296
-3.95045
-3.72533
-3.5157
-3.32003
-3.13703
-2.96561
-2.80486
-2.65397
-2.5122
-2.37893
-2.25358
-2.13563
-2.02459
-1.92002
-1.82153
-1.72878
-1.64142
-1.55897
-1.4809
-1.40942
-8.37893
-7.49651
-6.88328
-6.39626
-5.96001
-5.57032
-5.22056
-4.90299
-4.61219
-4.34429
-4.0963
-3.86586
-3.65111
-3.45051
-3.2628
-3.0869
-2.92187
-2.76692
-2.62132
-2.48442
-2.35564
-2.23445
-2.12035
-2.01289
-1.91168
-1.81634
-1.72656
-1.64176
-1.56142
-1.48817
-8.57576
-7.69045
-7.07341
-6.58181
-6.1404
-5.74519
-5.38972
-5.06635
-4.76977
-4.49616
-4.24259
-4.00675
-3.78678
-3.58117
-3.38867
-3.2082
-3.03885
-2.8798
-2.73031
-2.58975
-2.45751
-2.33304
-2.21586
-2.1055
-2.00154
-1.90362
-1.81138
-1.72424
-1.64161
-1.5666
-8.77392
-7.88568
-7.26474
-6.76845
-6.32177
-5.92092
-5.5596
-5.23032
-4.92783
-4.6484
-4.38915
-4.1478
-3.92252
-3.71182
-3.51446
-3.32937
-3.15564
-2.99243
-2.83903
-2.69476
-2.55903
-2.43128
-2.311
-2.19772
-2.091
-1.99048
-1.89579
-1.80628
-1.72136
-1.6446
-8.9732
-8.08199
-7.45707
-6.95598
-6.5039
-6.09728
-5.73
-5.39468
-5.08617
-4.80081
-4.53578
-4.28882
-4.05815
-3.84229
-3.64
-3.45024
-3.27206
-3.10467
-2.9473
-2.79931
-2.66007
-2.52901
-2.40562
-2.28941
-2.17993
-2.07681
-1.97966
-1.88779
-1.80058
-1.72209
-9.17337
-8.27915
-7.65017
-7.14417
-6.68658
-6.27408
-5.90072
-5.55923
-5.24459
-4.9532
-4.68228
-4.42963
-4.19349
-3.97239
-3.76512
-3.57062
-3.38797
-3.21634
-3.05499
-2.90325
-2.76048
-2.6261
-2.49959
-2.38045
-2.26821
-2.16249
-2.06289
-1.96866
-1.87916
-1.79896
-9.37419
-8.47694
-7.84383
-7.33283
-6.86961
-6.45111
-6.07154
-5.72379
-5.4029
-5.10537
-4.82848
-4.57005
-4.32836
-4.10196
-3.88965
-3.69036
-3.50319
-3.3273
-3.16194
-3.00643
-2.86012
-2.72242
-2.59279
-2.47072
-2.35572
-2.24741
-2.14537
-2.04879
-1.95701
-1.87513
-9.57545
-8.67513
-8.03782
-7.52172
-7.05277
-6.62815
-6.24227
-5.88813
-5.5609
-5.25714
-4.97417
-4.70989
-4.46258
-4.23081
-4.0134
-3.8093
-3.61757
-3.43739
-3.268
-3.1087
-2.95885
-2.81783
-2.68508
-2.56008
-2.44234
-2.33145
-2.22698
-2.12806
-2.03402
-1.95049
-9.77692
-8.87352
-8.23193
-7.71063
-7.23585
-6.805
-6.4127
-6.05207
-5.71839
-5.4083
-5.11918
-4.84896
-4.59596
-4.35878
-4.13623
-3.92726
-3.73095
-3.54646
-3.37302
-3.20993
-3.05653
-2.91218
-2.77633
-2.64842
-2.52795
-2.41449
-2.30762
-2.20638
-2.11009
-2.02496
-9.97838
-9.07187
-8.42594
-7.89936
-7.41864
-6.98146
-6.58262
-6.21539
-5.87517
-5.55866
-5.26331
-4.98709
-4.72834
-4.48569
-4.25795
-4.04408
-3.84316
-3.65435
-3.47686
-3.30997
-3.15301
-3.00536
-2.8664
-2.73559
-2.61241
-2.49642
-2.38716
-2.28364
-2.18512
-2.09843
-10.1796
-9.26998
-8.61964
-8.08769
-7.60092
-7.15731
-6.75182
-6.37791
-6.03105
-5.70803
-5.40638
-5.12409
-4.85954
-4.61137
-4.3784
-4.15961
-3.95407
-3.76091
-3.57936
-3.40867
-3.24817
-3.09721
-2.95517
-2.82149
-2.69562
-2.57711
-2.4655
-2.35971
-2.25899
-2.17079
-10.3804
-9.46763
-8.81282
-8.2754
-7.7825
-7.33234
-6.92012
-6.53942
-6.18583
-5.85624
-5.5482
-5.25978
-4.98938
-4.73566
-4.49744
-4.2737
-4.06351
-3.866
-3.68038
-3.50591
-3.34187
-3.18761
-3.04251
-2.90596
-2.77742
-2.65643
-2.5425
-2.43448
-2.33159
-2.24192
-10.5806
-9.66462
-9.00527
-8.4623
-7.96316
-7.50636
-7.0873
-6.69972
-6.33933
-6.00308
-5.68861
-5.39401
-5.11771
-4.8584
-4.6149
-4.3862
-4.17135
-3.96948
-3.7798
-3.60153
-3.43396
-3.27642
-3.12826
-2.98887
-2.85769
-2.73424
-2.61801
-2.50779
-2.40275
-2.31168
-10.7799
-9.86075
-9.19679
-8.64817
-8.14269
-7.67915
-7.25317
-6.85863
-6.49135
-6.14838
-5.82742
-5.52659
-5.24437
-4.97943
-4.73064
-4.49696
-4.27744
-4.07122
-3.87747
-3.69541
-3.52433
-3.36351
-3.21231
-3.07009
-2.93628
-2.81039
-2.69189
-2.5795
-2.47234
-2.3799
-10.9782
-10.0558
-9.38717
-8.83282
-8.3209
-7.85053
-7.41754
-7.01595
-6.64172
-6.29198
-5.96447
-5.65738
-5.3692
-5.09862
-4.84452
-4.60585
-4.38167
-4.17109
-3.97327
-3.78744
-3.61283
-3.44875
-3.29451
-3.14947
-3.01304
-2.88473
-2.76398
-2.64943
-2.54015
-2.44639
-11.1753
-10.2497
-9.57624
-9.01604
-8.49759
-8.02029
-7.58019
-7.1715
-6.79025
-6.43368
-6.09959
-5.78621
-5.49205
-5.21583
-4.95641
-4.71276
-4.48391
-4.26897
-4.0671
-3.87749
-3.69937
-3.53201
-3.37474
-3.22688
-3.08783
-2.95709
-2.83409
-2.71739
-2.60598
-2.51091
-11.3711
-10.4421
-9.76379
-9.19763
-8.67254
-8.18823
-7.74096
-7.32508
-6.93677
-6.57334
-6.23264
-5.91295
-5.6128
-5.33093
-5.06619
-4.81756
-4.58406
-4.36478
-4.15886
-3.96547
-3.78383
-3.61321
-3.45289
-3.30219
-3.1605
-3.02731
-2.90204
-2.78315
-2.66957
-2.57316
-11.5655
-10.633
-9.94964
-9.3774
-8.84555
-8.35414
-7.89963
-7.47653
-7.08111
-6.71078
-6.36346
-6.03745
-5.73132
-5.4438
-5.17377
-4.92017
-4.68203
-4.45842
-4.24846
-4.0513
-3.86616
-3.69225
-3.52886
-3.3753
-3.23093
-3.09523
-2.96763
-2.8465
-2.73063
-2.63282
-11.7585
-10.8221
-10.1336
-9.55512
-9.01642
-8.51783
-8.05602
-7.62564
-7.2231
-6.84586
-6.49191
-6.15959
-5.84748
-5.55434
-5.27903
-5.0205
-4.77775
-4.54984
-4.33586
-4.13495
-3.94629
-3.76909
-3.60261
-3.44614
-3.29902
-3.16073
-3.03069
-2.90718
-2.78885
-2.6895
-11.95
-11.0094
-10.3154
-9.73056
-9.18491
-8.67908
-8.20993
-7.77226
-7.36257
-6.97842
-6.61785
-6.27924
-5.96119
-5.66246
-5.38192
-5.1185
-4.87118
-4.639
-4.42104
-4.2164
-4.02424
-3.84375
-3.67415
-3.51472
-3.36476
-3.22376
-3.09113
-2.96504
-2.84396
-2.74265
-12.1402
-11.1945
-10.4948
-9.90347
-9.35079
-8.83767
-8.36116
-7.91619
-7.49937
-7.10832
-6.74116
-6.3963
-6.07235
-5.76808
-5.48236
-5.2141
-4.96227
-4.72589
-4.50399
-4.29567
-4.10004
-3.91627
-3.74356
-3.58112
-3.42826
-3.28443
-3.14904
-3.02015
-2.89579
-2.79164
-12.3302
-11.3776
-10.6715
-10.0735
-9.51376
-8.99334
-8.50948
-8.05723
-7.6333
-7.23541
-6.8617
-6.51063
-6.18085
-5.87111
-5.58028
-5.30726
-5.051
-4.81049
-4.58474
-4.37281
-4.17379
-3.98679
-3.81098
-3.64554
-3.48971
-3.34291
-3.20454
-3.0724
-2.94383
-2.83614
-12.5212
-11.5584
-10.8448
-10.2402
-9.67344
-9.14581
-8.65467
-8.1952
-7.76422
-7.35952
-6.97933
-6.62214
-6.28659
-5.97147
-5.67562
-5.39794
-5.13735
-4.89282
-4.66333
-4.4479
-4.2456
-4.0555
-3.8767
-3.70833
-3.54954
-3.39966
-3.2578
-3.12122
-2.98693
-2.87582
-12.7056
-11.7338
-11.0138
-10.4031
-9.82972
-9.29508
-8.79675
-8.33012
-7.89214
-7.48071
-7.0941
-6.73084
-6.38961
-6.0692
-5.76843
-5.48618
-5.22138
-4.97294
-4.73984
-4.52108
-4.31567
-4.12268
-3.94119
-3.77027
-3.60905
-3.45666
-3.31171
-3.17123
-3.03357
-2.91779
-15.7749
-15.7555
-15.7267
-15.6935
-15.655
-15.6105
-15.56
-15.5032
-15.4403
-15.3712
-15.296
-15.2147
-15.1274
-15.0342
-14.9353
-14.8306
-14.7204
-14.6047
-14.4838
-14.3577
-14.2266
-14.0906
-13.9501
-13.805
-13.6556
-13.5022
-13.3451
-13.1847
-13.0215
-12.8584
-14.7378
-14.7233
-14.7003
-14.6709
-14.6353
-14.5933
-14.545
-14.4904
-14.4296
-14.3626
-14.2896
-14.2106
-14.1256
-14.0348
-13.9382
-13.836
-13.7284
-13.6153
-13.497
-13.3736
-13.2453
-13.1122
-12.9744
-12.8322
-12.6858
-12.5353
-12.3811
-12.2233
-12.0624
-11.8989
-13.8987
-13.8879
-13.8695
-13.8441
-13.8123
-13.7739
-13.7293
-13.6784
-13.6213
-13.5581
-13.4889
-13.4138
-13.3327
-13.246
-13.1536
-13.0556
-12.9522
-12.8434
-12.7295
-12.6106
-12.4867
-12.3581
-12.2249
-12.0873
-11.9454
-11.7994
-11.6495
-11.496
-11.3388
-11.1782
-13.1375
-13.1301
-13.1157
-13.0946
-13.0669
-13.0329
-12.9927
-12.9463
-12.8938
-12.8353
-12.7708
-12.7005
-12.6245
-12.5428
-12.4555
-12.3628
-12.2647
-12.1614
-12.0529
-11.9395
-11.8212
-11.6982
-11.5707
-11.4387
-11.3025
-11.1621
-11.0178
-10.8697
-10.7179
-10.5624
-12.3988
-12.3948
-12.3843
-12.3673
-12.344
-12.3144
-12.2788
-12.2372
-12.1896
-12.1361
-12.0768
-12.0118
-11.9412
-11.865
-11.7834
-11.6964
-11.6041
-11.5068
-11.4044
-11.2971
-11.185
-11.0682
-10.947
-10.8213
-10.6914
-10.5574
-10.4195
-10.2776
-10.132
-9.98278
-11.6944
-11.6935
-11.6866
-11.6735
-11.6543
-11.6291
-11.598
-11.561
-11.5183
-11.4698
-11.4157
-11.3561
-11.291
-11.2204
-11.1446
-11.0635
-10.9773
-10.8861
-10.7899
-10.689
-10.5833
-10.4731
-10.3584
-10.2394
-10.1162
-9.98895
-9.8577
-9.7226
-9.58375
-9.44127
-11.029
-11.031
-11.0273
-11.0177
-11.0022
-10.981
-10.9541
-10.9215
-10.8834
-10.8397
-10.7906
-10.7361
-10.6763
-10.6113
-10.5411
-10.4658
-10.3856
-10.3004
-10.2105
-10.1159
-10.0167
-9.913
-9.80496
-9.69266
-9.57623
-9.45577
-9.33139
-9.20321
-9.07132
-8.93583
-10.403
-10.4075
-10.4065
-10.3999
-10.3877
-10.37
-10.3469
-10.3183
-10.2844
-10.2451
-10.2006
-10.151
-10.0962
-10.0363
-9.97147
-9.90173
-9.82718
-9.74788
-9.66394
-9.57545
-9.48249
-9.38518
-9.28361
-9.17788
-9.06811
-8.95438
-8.83682
-8.71551
-8.59057
-8.4621
-9.81634
-9.82279
-9.82406
-9.81998
-9.81059
-9.79594
-9.77608
-9.75103
-9.72084
-9.68556
-9.64525
-9.59996
-9.54974
-9.49467
-9.4348
-9.37021
-9.30098
-9.22717
-9.14887
-9.06617
-8.97915
-8.8879
-8.79253
-8.69311
-8.58974
-8.48253
-8.37157
-8.25696
-8.13879
-8.01718
-9.26853
-9.27651
-9.27957
-9.27754
-9.27046
-9.25836
-9.24129
-9.21927
-9.19234
-9.16055
-9.12394
-9.08256
-9.03646
-8.98571
-8.93036
-8.87047
-8.80612
-8.73737
-8.6643
-8.58699
-8.50551
-8.41995
-8.3304
-8.23693
-8.13965
-8.03863
-7.93397
-7.82575
-7.71408
-7.59906
-8.75847
-8.76756
-8.77197
-8.77155
-8.76632
-8.75632
-8.74157
-8.72211
-8.69797
-8.66918
-8.6358
-8.59785
-8.5554
-8.50849
-8.45719
-8.40154
-8.34161
-8.27747
-8.20918
-8.13681
-8.06044
-7.98015
-7.896
-7.80809
-7.71649
-7.62128
-7.52255
-7.42038
-7.31487
-7.2061
-8.28456
-8.2944
-8.29978
-8.30056
-8.29678
-8.28845
-8.27561
-8.25827
-8.23647
-8.21024
-8.17963
-8.14467
-8.1054
-8.06188
-8.01416
-7.96229
-7.90632
-7.84633
-7.78236
-7.71449
-7.64279
-7.56731
-7.48814
-7.40535
-7.31901
-7.2292
-7.136
-7.03949
-6.93974
-6.83686
-7.84489
-7.85517
-7.86119
-7.86285
-7.86015
-7.85313
-7.8418
-7.8262
-7.80634
-7.78227
-7.75401
-7.72161
-7.6851
-7.64454
-7.59997
-7.55143
-7.499
-7.44271
-7.38262
-7.31881
-7.25132
-7.18023
-7.1056
-7.0275
-6.946
-6.86117
-6.77308
-6.68181
-6.58743
-6.49004
-7.43737
-7.44782
-7.45422
-7.45645
-7.45454
-7.44851
-7.43837
-7.42416
-7.4059
-7.38362
-7.35735
-7.32713
-7.293
-7.255
-7.21318
-7.16758
-7.11826
-7.06526
-7.00864
-6.94846
-6.88477
-6.81764
-6.74713
-6.6733
-6.59622
-6.51595
-6.43256
-6.34613
-6.25672
-6.16442
-7.05978
-7.07021
-7.07676
-7.07933
-7.07796
-7.07265
-7.06343
-7.05033
-7.03336
-7.01256
-6.98796
-6.95959
-6.92749
-6.8917
-6.85227
-6.80924
-6.76266
-6.71257
-6.65904
-6.6021
-6.54183
-6.47826
-6.41147
-6.34151
-6.26845
-6.19234
-6.11326
-6.03126
-5.94643
-5.85883
-6.70991
-6.72015
-6.72668
-6.72941
-6.72837
-6.72358
-6.71505
-6.70281
-6.68688
-6.66729
-6.64408
-6.61727
-6.58691
-6.55303
-6.51567
-6.47489
-6.43071
-6.3832
-6.3324
-6.27836
-6.22113
-6.16077
-6.09733
-6.03087
-5.96146
-5.88913
-5.81398
-5.73604
-5.6554
-5.57213
-6.38558
-6.39552
-6.4019
-6.40464
-6.40377
-6.39932
-6.39129
-6.37972
-6.36462
-6.34603
-6.32397
-6.29848
-6.2696
-6.23736
-6.2018
-6.16297
-6.12092
-6.07568
-6.0273
-5.97584
-5.92133
-5.86385
-5.80343
-5.74013
-5.67401
-5.60513
-5.53354
-5.45931
-5.38251
-5.30321
-6.08471
-6.09426
-6.10039
-6.10303
-6.10222
-6.09797
-6.0903
-6.07923
-6.06479
-6.04701
-6.02591
-6.00154
-5.97392
-5.94309
-5.9091
-5.87199
-5.83179
-5.78855
-5.74233
-5.69316
-5.6411
-5.58619
-5.52849
-5.46804
-5.4049
-5.33914
-5.2708
-5.19995
-5.12665
-5.051
-5.80533
-5.81443
-5.82024
-5.82271
-5.82186
-5.81771
-5.81027
-5.79959
-5.78567
-5.76855
-5.74826
-5.72482
-5.69828
-5.66868
-5.63605
-5.60044
-5.56188
-5.52042
-5.47611
-5.42899
-5.37911
-5.32652
-5.27126
-5.21339
-5.15295
-5.09001
-5.02462
-4.95684
-4.88674
-4.81442
-5.54559
-5.55421
-5.55966
-5.56189
-5.56094
-5.55681
-5.54953
-5.53913
-5.52562
-5.50904
-5.48942
-5.46679
-5.44118
-5.41264
-5.3812
-5.34691
-5.3098
-5.26992
-5.22732
-5.18203
-5.13411
-5.0836
-5.03055
-4.975
-4.91701
-4.85663
-4.79391
-4.72893
-4.66174
-4.59247
-5.30381
-5.31193
-5.31699
-5.31895
-5.31784
-5.31368
-5.30649
-5.29629
-5.28311
-5.26698
-5.24792
-5.22597
-5.20117
-5.17356
-5.14317
-5.11004
-5.07422
-5.03575
-4.99468
-4.95104
-4.90488
-4.85625
-4.8052
-4.75176
-4.69598
-4.63792
-4.57763
-4.51518
-4.45064
-4.38415
-5.07842
-5.08603
-5.09069
-5.09237
-5.09108
-5.08685
-5.07969
-5.06964
-5.05672
-5.04095
-5.02238
-5.00102
-4.97693
-4.95013
-4.92066
-4.88858
-4.85391
-4.8167
-4.77699
-4.73484
-4.69027
-4.64335
-4.5941
-4.54258
-4.48882
-4.43287
-4.37479
-4.31463
-4.25249
-4.18851
-4.86801
-4.87513
-4.87938
-4.88076
-4.87927
-4.87494
-4.86778
-4.85784
-4.84513
-4.82967
-4.81151
-4.79067
-4.76719
-4.74111
-4.71247
-4.68131
-4.64768
-4.6116
-4.57314
-4.53232
-4.48921
-4.44383
-4.39623
-4.34645
-4.29452
-4.2405
-4.18442
-4.12635
-4.06635
-4.00465
-4.67129
-4.67793
-4.68179
-4.68286
-4.68116
-4.67672
-4.66955
-4.65968
-4.64713
-4.63194
-4.61414
-4.59375
-4.57082
-4.54539
-4.51749
-4.48716
-4.45445
-4.41941
-4.38206
-4.34247
-4.30067
-4.2567
-4.2106
-4.16242
-4.11218
-4.05991
-4.00566
-3.94947
-3.89139
-3.83172
-4.48711
-4.49328
-4.49676
-4.49753
-4.49563
-4.49106
-4.48385
-4.47403
-4.46163
-4.44667
-4.42918
-4.40919
-4.38675
-4.3619
-4.33466
-4.30509
-4.27323
-4.23912
-4.20279
-4.16431
-4.12371
-4.08103
-4.03632
-3.9896
-3.94091
-3.89026
-3.83768
-3.78321
-3.72681
-3.66897
-4.31441
-4.32013
-4.32323
-4.32372
-4.3216
-4.3169
-4.30964
-4.29986
-4.28756
-4.27279
-4.25558
-4.23595
-4.21395
-4.18961
-4.16297
-4.13409
-4.10299
-4.06972
-4.03433
-3.99686
-3.95735
-3.91585
-3.8724
-3.82704
-3.77977
-3.73062
-3.67958
-3.62666
-3.57173
-3.5156
-4.15228
-4.15756
-4.1603
-4.16049
-4.15816
-4.15332
-4.14599
-4.13621
-4.124
-4.10939
-4.0924
-4.07308
-4.05145
-4.02757
-4.00146
-3.97317
-3.94275
-3.91023
-3.87567
-3.8391
-3.80058
-3.76015
-3.71784
-3.67369
-3.62773
-3.57995
-3.53031
-3.4788
-3.42504
-3.37056
-3.99984
-4.00478
-4.00724
-4.00722
-4.00473
-3.99981
-3.99247
-3.98274
-3.97064
-3.9562
-3.93946
-3.92045
-3.8992
-3.87575
-3.85015
-3.82243
-3.79265
-3.76084
-3.72704
-3.69132
-3.65371
-3.61426
-3.57301
-3.53
-3.48525
-3.43876
-3.39046
-3.34026
-3.28739
-3.2342
-3.8562
-3.86096
-3.86332
-3.86325
-3.86079
-3.85596
-3.84877
-3.83926
-3.82744
-3.81336
-3.79703
-3.7785
-3.7578
-3.73497
-3.71005
-3.68309
-3.65412
-3.6232
-3.59037
-3.55568
-3.51918
-3.48092
-3.44094
-3.39929
-3.356
-3.31106
-3.26442
-3.2159
-3.16427
-3.11264
-3.72067
-3.72463
-3.72627
-3.7256
-3.72263
-3.71739
-3.70989
-3.70018
-3.68826
-3.67417
-3.65794
-3.6396
-3.6192
-3.59677
-3.57235
-3.54598
-3.51771
-3.48759
-3.45566
-3.42196
-3.38656
-3.3495
-3.31083
-3.27062
-3.2289
-3.18572
-3.14106
-3.09473
-3.04551
-3.00063
-13.2563
-13.4113
-13.558
-13.7046
-13.8495
-13.9912
-14.1292
-14.2631
-14.3926
-14.5172
-14.6369
-14.7513
-14.8603
-14.9637
-15.0613
-15.153
-15.2386
-15.3181
-15.3913
-15.4581
-15.5185
-15.5723
-15.6196
-15.6602
-15.6942
-15.7216
-15.7425
-15.757
-15.7654
-15.7692
-12.2199
-12.3791
-12.5315
-12.6805
-12.826
-12.9676
-13.105
-13.238
-13.3666
-13.4903
-13.6091
-13.7228
-13.831
-13.9338
-14.0309
-14.1221
-14.2074
-14.2867
-14.3598
-14.4266
-14.4871
-14.5412
-14.5888
-14.6299
-14.6644
-14.6925
-14.7141
-14.7292
-14.738
-14.7405
-11.3703
-11.5291
-11.6826
-11.8317
-11.9767
-12.1175
-12.2542
-12.3864
-12.5142
-12.6373
-12.7555
-12.8686
-12.9766
-13.0791
-13.1762
-13.2675
-13.3531
-13.4328
-13.5065
-13.5741
-13.6355
-13.6907
-13.7395
-13.782
-13.8181
-13.8477
-13.8709
-13.8877
-13.898
-13.9016
-10.6017
-10.758
-10.9098
-11.0575
-11.201
-11.3405
-11.4759
-11.6069
-11.7336
-11.8557
-11.973
-12.0855
-12.193
-12.2952
-12.3921
-12.4836
-12.5694
-12.6496
-12.724
-12.7924
-12.8549
-12.9114
-12.9616
-13.0058
-13.0436
-13.0752
-13.1005
-13.1195
-13.132
-13.138
-9.86631
-10.019
-10.1681
-10.3133
-10.4546
-10.5919
-10.7253
-10.8546
-10.9796
-11.1001
-11.2162
-11.3275
-11.434
-11.5356
-11.632
-11.7231
-11.809
-11.8893
-11.964
-12.0331
-12.0965
-12.154
-12.2055
-12.2512
-12.2908
-12.3243
-12.3517
-12.3729
-12.3879
-12.3965
-9.1781
-9.3268
-9.47233
-9.61426
-9.75255
-9.88713
-10.0179
-10.1447
-10.2675
-10.386
-10.5002
-10.6099
-10.715
-10.8153
-10.9108
-11.0012
-11.0865
-11.1666
-11.2414
-11.3107
-11.3745
-11.4327
-11.4852
-11.532
-11.573
-11.6082
-11.6375
-11.6608
-11.6781
-11.6893
-8.5422
-8.6865
-8.82796
-8.9661
-9.10083
-9.23207
-9.3597
-9.48359
-9.60362
-9.71964
-9.83152
-9.93913
-10.0423
-10.141
-10.235
-10.3243
-10.4086
-10.488
-10.5622
-10.6313
-10.6952
-10.7536
-10.8067
-10.8543
-10.8963
-10.9327
-10.9635
-10.9886
-11.0079
-11.0214
-7.95784
-8.0975
-8.23454
-8.36851
-8.4993
-8.62681
-8.75091
-8.87148
-8.98838
-9.10148
-9.21064
-9.31574
-9.41665
-9.51325
-9.60542
-9.69304
-9.77601
-9.85423
-9.92759
-9.99602
-10.0594
-10.1177
-10.1709
-10.2188
-10.2614
-10.2987
-10.3305
-10.357
-10.3779
-10.3933
-7.42316
-7.55803
-7.69048
-7.82007
-7.94667
-8.0702
-8.19051
-8.30747
-8.42096
-8.53084
-8.63698
-8.73926
-8.83755
-8.93174
-9.02171
-9.10736
-9.18858
-9.26527
-9.33734
-9.40472
-9.46731
-9.52504
-9.57785
-9.62566
-9.66844
-9.70611
-9.73863
-9.76596
-9.78805
-9.80489
-6.9355
-7.06556
-7.19334
-7.31844
-7.44074
-7.56014
-7.67651
-7.7897
-7.8996
-8.00606
-8.10897
-8.2082
-8.30364
-8.39517
-8.48269
-8.56608
-8.64525
-8.72012
-8.79058
-8.85656
-8.91799
-8.97479
-9.02689
-9.07425
-9.11679
-9.15448
-9.18726
-9.2151
-9.23795
-9.25581
-6.49157
-6.61685
-6.73998
-6.8606
-6.97857
-7.09381
-7.20616
-7.31551
-7.42172
-7.52466
-7.62422
-7.72027
-7.8127
-7.90141
-7.98628
-8.06722
-8.14413
-8.21693
-8.28554
-8.34987
-8.40986
-8.46543
-8.51654
-8.56311
-8.6051
-8.64247
-8.67516
-8.70314
-8.72638
-8.74488
-6.08776
-6.20837
-6.32694
-6.44313
-6.55683
-6.66793
-6.77629
-6.88179
-6.9843
-7.08369
-7.17984
-7.27265
-7.36199
-7.44777
-7.52989
-7.60825
-7.68276
-7.75334
-7.81991
-7.8824
-7.94074
-7.99488
-8.04474
-8.09028
-8.13145
-8.16821
-8.20052
-8.22835
-8.25165
-8.27045
-5.72044
-5.83652
-5.95066
-6.06254
-6.17205
-6.2791
-6.38354
-6.48525
-6.5841
-6.67996
-6.77273
-6.86228
-6.94852
-7.03134
-7.11065
-7.18636
-7.25839
-7.32665
-7.39108
-7.4516
-7.50815
-7.56068
-7.60913
-7.65345
-7.6936
-7.72953
-7.76122
-7.78864
-7.81175
-7.83055
-5.38604
-5.49777
-5.60763
-5.71535
-5.82083
-5.92395
-6.02459
-6.1226
-6.21787
-6.31028
-6.39972
-6.48606
-6.56922
-6.6491
-6.72561
-6.79865
-6.86816
-6.93406
-6.99628
-7.05475
-7.10943
-7.16024
-7.20716
-7.25012
-7.2891
-7.32405
-7.35494
-7.38174
-7.40444
-7.42304
-5.08122
-5.18877
-5.29454
-5.39827
-5.49988
-5.59923
-5.6962
-5.79065
-5.88247
-5.97153
-6.05772
-6.14093
-6.22108
-6.29806
-6.3718
-6.4422
-6.5092
-6.57273
-6.63273
-6.68913
-6.74187
-6.79093
-6.83623
-6.87775
-6.91545
-6.9493
-6.97926
-7.00531
-7.02744
-7.04565
-4.80286
-4.90642
-5.00829
-5.10823
-5.20614
-5.3019
-5.39536
-5.4864
-5.5749
-5.66073
-5.74379
-5.82398
-5.9012
-5.97536
-6.04639
-6.11421
-6.17874
-6.23993
-6.29772
-6.35205
-6.40286
-6.45012
-6.49379
-6.53382
-6.57018
-6.60285
-6.63179
-6.65699
-6.67843
-6.69612
-4.54813
-4.6479
-4.74606
-4.8424
-4.93681
-5.02915
-5.11928
-5.20707
-5.2924
-5.37514
-5.4552
-5.53248
-5.60688
-5.67832
-5.74672
-5.81203
-5.87416
-5.93307
-5.98869
-6.04097
-6.08987
-6.13535
-6.17737
-6.21589
-6.25089
-6.28234
-6.31021
-6.33449
-6.35516
-6.37224
-4.31447
-4.41064
-4.50529
-4.59823
-4.68933
-4.77843
-4.86541
-4.95012
-5.03243
-5.11224
-5.18943
-5.26392
-5.33561
-5.40444
-5.47033
-5.5332
-5.59301
-5.6497
-5.70322
-5.75351
-5.80054
-5.84427
-5.88466
-5.92168
-5.95531
-5.98553
-6.0123
-6.03563
-6.05549
-6.07189
-4.0996
-4.19234
-4.28368
-4.37342
-4.4614
-4.54747
-4.63147
-4.71326
-4.79272
-4.86973
-4.9442
-5.01603
-5.08514
-5.15146
-5.21493
-5.27548
-5.33306
-5.38761
-5.43909
-5.48746
-5.53267
-5.5747
-5.6135
-5.64906
-5.68134
-5.71033
-5.73601
-5.75836
-5.77738
-5.79307
-3.90148
-3.99096
-4.07919
-4.16593
-4.25099
-4.3342
-4.41541
-4.49445
-4.57121
-4.64557
-4.71744
-4.78674
-4.8534
-4.91733
-4.97849
-5.03682
-5.09226
-5.14476
-5.1943
-5.24081
-5.28427
-5.32465
-5.36192
-5.39605
-5.42701
-5.4548
-5.4794
-5.50078
-5.51896
-5.53393
-3.71829
-3.80467
-3.88999
-3.97393
-4.05628
-4.13682
-4.2154
-4.29185
-4.36605
-4.43791
-4.50732
-4.57422
-4.63854
-4.7002
-4.75916
-4.81537
-4.86877
-4.91932
-4.96699
-5.01173
-5.05352
-5.09232
-5.12811
-5.16086
-5.19055
-5.21718
-5.24072
-5.26116
-5.2785
-5.29275
-3.54842
-3.63184
-3.71447
-3.79584
-3.87566
-3.95372
-4.02983
-4.10384
-4.17564
-4.24512
-4.3122
-4.37682
-4.43891
-4.49842
-4.55529
-4.60948
-4.66094
-4.70964
-4.75553
-4.79858
-4.83877
-4.87606
-4.91044
-4.94187
-4.97035
-4.99585
-5.01837
-5.03789
-5.05442
-5.06796
-3.39037
-3.47101
-3.55121
-3.63023
-3.70772
-3.78347
-3.85728
-3.92899
-3.9985
-4.06574
-4.13061
-4.19307
-4.25305
-4.31051
-4.3654
-4.41768
-4.4673
-4.51423
-4.55844
-4.59989
-4.63855
-4.67441
-4.70744
-4.73762
-4.76493
-4.78936
-4.8109
-4.82954
-4.84528
-4.85813
-3.2428
-3.32083
-3.39893
-3.47584
-3.5512
-3.62481
-3.69646
-3.76601
-3.83337
-3.89847
-3.96125
-4.02166
-4.07964
-4.13516
-4.18817
-4.23864
-4.28651
-4.33177
-4.37438
-4.41431
-4.45154
-4.48604
-4.51779
-4.54678
-4.57298
-4.5964
-4.61701
-4.63481
-4.64979
-4.66198
-3.10446
-3.18017
-3.25655
-3.33161
-3.40505
-3.47668
-3.5463
-3.6138
-3.67912
-3.7422
-3.803
-3.86146
-3.91755
-3.97123
-4.02246
-4.0712
-4.11743
-4.16111
-4.2022
-4.2407
-4.27656
-4.30978
-4.34032
-4.36818
-4.39334
-4.41579
-4.43551
-4.45251
-4.46678
-4.47834
-2.97416
-3.04822
-3.12344
-3.19689
-3.26857
-3.33835
-3.40606
-3.47161
-3.53498
-3.59613
-3.65502
-3.71163
-3.76591
-3.81784
-3.86737
-3.91448
-3.95913
-4.0013
-4.04096
-4.07809
-4.11266
-4.14465
-4.17404
-4.20083
-4.22499
-4.24651
-4.2654
-4.28163
-4.29522
-4.30617
-2.84994
-2.92386
-2.99879
-3.07084
-3.14088
-3.20893
-3.2748
-3.33848
-3.39997
-3.45928
-3.51636
-3.57119
-3.62376
-3.67401
-3.72193
-3.76749
-3.81065
-3.85139
-3.88969
-3.92552
-3.95886
-3.9897
-4.01801
-4.04378
-4.06699
-4.08764
-4.10573
-4.12124
-4.13417
-4.14454
-2.72675
-2.80251
-2.87873
-2.94983
-3.01847
-3.08498
-3.1492
-3.2112
-3.27101
-3.32866
-3.38413
-3.4374
-3.48844
-3.53722
-3.58373
-3.62792
-3.66979
-3.70929
-3.74641
-3.78112
-3.81341
-3.84326
-3.87064
-3.89555
-3.91796
-3.93788
-3.9553
-3.97021
-3.9826
-3.9925
-2.60077
-2.68029
-2.75988
-2.83102
-2.89875
-2.96406
-3.02696
-3.08759
-3.14604
-3.20234
-3.25649
-3.30847
-3.35825
-3.40583
-3.45117
-3.49424
-3.53504
-3.57352
-3.60968
-3.64349
-3.67493
-3.70398
-3.73063
-3.75486
-3.77667
-3.79604
-3.81297
-3.82746
-3.83949
-3.84909
-2.50463
-2.59254
-2.67294
-2.74318
-2.80926
-2.87246
-2.93317
-2.99161
-3.04786
-3.10196
-3.15392
-3.20373
-3.25137
-3.29682
-3.34008
-3.38112
-3.41992
-3.45647
-3.49074
-3.52273
-3.55242
-3.5798
-3.60484
-3.62755
-3.64792
-3.66593
-3.68159
-3.6949
-3.70585
-3.71445
-0.346435
-0.387917
-0.432647
-0.480845
-0.533016
-0.589657
-0.6513
-0.718572
-0.792206
-0.873061
-0.962136
-1.0606
-1.16982
-1.29139
-1.42716
-1.5793
-1.75031
-1.94306
-2.16086
-2.40744
-2.68699
-3.00415
-3.3639
-3.77143
-4.23215
-4.75161
-5.3309
-5.96348
-6.70267
-7.65505
-0.4151
-0.458954
-0.505323
-0.555361
-0.609565
-0.66835
-0.732246
-0.801897
-0.87805
-0.961571
-1.05347
-1.15494
-1.26734
-1.3923
-1.53169
-1.68768
-1.86279
-2.05992
-2.28238
-2.53392
-2.81873
-3.14143
-3.50698
-3.92051
-4.38733
-4.91284
-5.4979
-6.1355
-6.87778
-7.82929
-0.484595
-0.530863
-0.578896
-0.630807
-0.687083
-0.74805
-0.81424
-0.886314
-0.965029
-1.05126
-1.14604
-1.25056
-1.36621
-1.49462
-1.63769
-1.79759
-1.97688
-2.17846
-2.40565
-2.66223
-2.95237
-3.28068
-3.65208
-4.07164
-4.54455
-5.07602
-5.66662
-6.30882
-7.05348
-8.00333
-0.554862
-0.603584
-0.653305
-0.707121
-0.765503
-0.828688
-0.897208
-0.971742
-1.05306
-1.14205
-1.23975
-1.34737
-1.46631
-1.59822
-1.74501
-1.90889
-2.0924
-2.29849
-2.53048
-2.79213
-3.08765
-3.42162
-3.79891
-4.22452
-4.70352
-5.24091
-5.83697
-6.4838
-7.2315
-8.18172
-0.625854
-0.677065
-0.728497
-0.784249
-0.844771
-0.910209
-0.981096
-1.05813
-1.14209
-1.23387
-1.33454
-1.4453
-1.56758
-1.70304
-1.85361
-2.0215
-2.2093
-2.41994
-2.65677
-2.92357
-3.22452
-3.56418
-3.94739
-4.37907
-4.86416
-5.40748
-6.00904
-6.6606
-7.41176
-8.36347
-0.697523
-0.751252
-0.804417
-0.862134
-0.92483
-0.992554
-1.06584
-1.14541
-1.23205
-1.32667
-1.43034
-1.54428
-1.66995
-1.809
-1.96339
-2.13536
-2.32749
-2.54274
-2.78447
-3.05645
-3.36287
-3.70827
-4.09744
-4.53522
-5.02644
-5.57571
-6.1828
-6.83914
-7.59393
-8.54765
-0.769819
-0.82609
-0.881005
-0.940717
-1.00562
-1.07566
-1.15138
-1.23352
-1.32287
-1.42036
-1.52707
-1.64424
-1.77334
-1.91603
-2.07429
-2.25037
-2.44688
-2.66679
-2.91346
-3.19068
-3.50261
-3.85379
-4.24896
-4.69287
-5.19023
-5.74548
-6.35813
-7.01931
-7.77786
-8.73386
-0.842692
-0.901525
-0.958206
-1.01994
-1.08708
-1.15947
-1.23765
-1.32239
-1.41449
-1.51489
-1.62468
-1.74511
-1.87766
-2.02404
-2.18621
-2.36645
-2.56739
-2.79199
-3.04365
-3.32614
-3.64364
-4.00063
-4.40183
-4.85189
-5.35542
-5.91667
-6.53492
-7.20099
-7.96337
-8.92185
-0.916095
-0.977502
-1.03596
-1.09975
-1.16915
-1.24392
-1.32459
-1.41196
-1.50684
-1.61018
-1.72307
-1.8468
-1.98286
-2.13295
-2.29907
-2.48351
-2.6889
-2.91825
-3.17494
-3.46275
-3.78584
-4.14868
-4.55592
-5.01217
-5.52189
-6.08916
-6.71302
-7.38401
-8.15028
-9.11135
-0.989981
-1.05397
-1.11422
-1.18008
-1.25177
-1.32894
-1.41214
-1.50216
-1.59984
-1.70615
-1.82218
-1.94925
-2.08883
-2.24267
-2.41277
-2.60145
-2.81134
-3.04546
-3.30721
-3.60037
-3.92909
-4.29781
-4.71113
-5.17358
-5.68949
-6.26279
-6.89229
-7.56821
-8.33839
-9.3021
-1.0643
-1.13088
-1.19293
-1.26089
-1.33489
-1.41449
-1.50023
-1.59293
-1.69344
-1.80274
-1.92194
-2.05236
-2.1955
-2.35311
-2.52723
-2.72017
-2.9346
-3.17353
-3.44037
-3.73891
-4.07328
-4.4479
-4.86732
-5.33598
-5.8581
-6.43743
-7.07255
-7.7534
-8.5275
-9.49388
-1.13903
-1.20818
-1.27203
-1.34211
-1.41845
-1.50049
-1.5888
-1.6842
-1.78756
-1.89987
-2.02226
-2.15605
-2.30278
-2.4642
-2.64236
-2.83959
-3.05857
-3.30234
-3.5743
-3.87824
-4.21828
-4.59882
-5.02435
-5.49923
-6.02755
-6.61291
-7.25364
-7.9394
-8.71741
-9.68646
-1.21411
-1.28583
-1.35149
-1.4237
-1.5024
-1.5869
-1.67778
-1.7759
-1.88213
-1.99747
-2.12307
-2.26026
-2.41058
-2.57583
-2.75805
-2.95959
-3.18315
-3.43178
-3.70888
-4.01824
-4.36398
-4.75045
-5.18209
-5.66318
-6.1977
-6.78906
-7.43538
-8.12602
-8.90792
-9.87963
-1.28951
-1.36378
-1.43124
-1.50562
-1.58668
-1.67366
-1.76713
-1.86797
-1.97708
-2.09546
-2.22428
-2.36488
-2.51882
-2.68791
-2.8742
-3.08008
-3.30824
-3.56174
-3.844
-4.15879
-4.51023
-4.90263
-5.34039
-5.82769
-6.36838
-6.96572
-7.6176
-8.31307
-9.09882
-10.0732
-1.36522
-1.44201
-1.51126
-1.5878
-1.67124
-1.7607
-1.85677
-1.96034
-2.07234
-2.19377
-2.32581
-2.46983
-2.6274
-2.80034
-2.99072
-3.20094
-3.43371
-3.6921
-3.97952
-4.29976
-4.6569
-5.05523
-5.4991
-5.99258
-6.53943
-7.14271
-7.8001
-8.50037
-9.28992
-10.2669
-1.44121
-1.52048
-1.59151
-1.67021
-1.75604
-1.84798
-1.94664
-2.05295
-2.16783
-2.29232
-2.42759
-2.57503
-2.73623
-2.91302
-3.1075
-3.32207
-3.55946
-3.82273
-4.11533
-4.44102
-4.80386
-5.20811
-5.65806
-6.15772
-6.71068
-7.31986
-7.9827
-8.68771
-9.48101
-10.4607
-1.51748
-1.59917
-1.67195
-1.75282
-1.84103
-1.93544
-2.03668
-2.14572
-2.26348
-2.39101
-2.52951
-2.68037
-2.8452
-3.02585
-3.22443
-3.44335
-3.68535
-3.95352
-4.25129
-4.58241
-4.95095
-5.36111
-5.81713
-6.32292
-6.88196
-7.49698
-8.16522
-8.8749
-9.6719
-10.6542
-1.59402
-1.67807
-1.75256
-1.83558
-1.92615
-2.02301
-2.12683
-2.23858
-2.3592
-2.48976
-2.63148
-2.78575
-2.95421
-3.13871
-3.34138
-3.56465
-3.81127
-4.08433
-4.38726
-4.72382
-5.09803
-5.51408
-5.97614
-6.48802
-7.05309
-7.67389
-8.34746
-9.06174
-9.86238
-10.8472
-1.67084
-1.75717
-1.83331
-1.91845
-2.01135
-2.11064
-2.217
-2.33143
-2.4549
-2.58848
-2.73339
-2.89107
-3.06314
-3.25148
-3.45824
-3.68585
-3.93708
-4.21501
-4.5231
-4.86507
-5.24495
-5.66686
-6.13492
-6.65285
-7.22389
-7.85042
-8.52924
-9.24803
-10.0522
-11.0396
-1.74798
-1.83645
-1.91417
-2.00139
-2.09658
-2.19825
-2.30711
-2.4242
-2.55048
-2.68705
-2.83514
-2.9962
-3.17187
-3.36404
-3.57488
-3.80682
-4.06264
-4.34545
-4.65867
-5.00604
-5.39154
-5.81929
-6.29331
-6.81724
-7.39418