/*--------------------------------*- C++ -*----------------------------------*\
  =========                 |
  \\      /  F ield         | OpenFOAM: The Open Source CFD Toolbox
   \\    /   O peration     | Website:  https://openfoam.org
    \\  /    A nd           | Version:  6.0
     \\/     M anipulation  |
\*---------------------------------------------------------------------------*/
FoamFile
{
    version     2.0;
    format      ascii;
    class       surfaceScalarField;
    location    "13.251";
    object      phi;
}
// * * * * * * * * * * * * * * * * * * * * * * * * * * * * * * * * * * * * * //

dimensions      [0 3 -1 0 0 0 0];

internalField   nonuniform List<scalar> 
38030
(
2.39637e-05
-0.0791113
0.0790873
0.000135806
-0.0722821
0.0721702
0.000334776
-0.0667019
0.066503
0.00061782
-0.0621425
0.0618595
0.000980427
-0.05841
0.0580474
0.00141651
-0.0553421
0.054906
0.00191914
-0.0528063
0.0523037
0.00248104
-0.0506953
0.0501334
0.00309496
-0.0489228
0.0483089
0.00375388
-0.0474195
0.0467605
0.00445116
-0.0461298
0.0454325
0.00518058
-0.0450094
0.04428
0.00593644
-0.044023
0.0432672
0.00671351
-0.0431424
0.0423654
0.0075071
-0.0423452
0.0415516
0.00831299
-0.0416134
0.0408075
0.00912743
-0.0409329
0.0401184
0.00994714
-0.0402924
0.0394727
0.0107692
-0.0396831
0.038861
0.0115912
-0.0390978
0.0382758
0.012411
-0.0385308
0.037711
0.0132268
-0.0379776
0.0371619
0.014037
-0.0374344
0.0366242
0.0148403
-0.0368981
0.0360948
0.0156358
-0.036366
0.0355705
0.0164224
-0.0358354
0.0350488
0.0171993
-0.0353039
0.034527
0.0179657
-0.034769
0.0340026
0.0187206
-0.0342277
0.0334728
-0.0336767
0.0329345
0.0194628
3.29128e-05
-0.0791442
0.000151028
-0.0724002
0.000358168
-0.0669091
0.000651657
-0.062436
0.00102623
-0.0587846
0.00147515
-0.055791
0.00199093
-0.0533221
0.00256584
-0.0512702
0.00319229
-0.0495493
0.00386297
-0.0480901
0.00457102
-0.0468378
0.00531004
-0.0457484
0.00607422
-0.0447872
0.00685823
-0.0439264
0.00765733
-0.0431443
0.00846726
-0.0424233
0.00928428
-0.0417499
0.0101051
-0.0411133
0.010927
-0.0405049
0.0117473
-0.0399182
0.0125642
-0.0393477
0.0133759
-0.0387893
0.0141809
-0.0382394
0.0149781
-0.0376953
0.0157665
-0.0371544
0.0165453
-0.0366142
0.0173138
-0.0360724
0.0180713
-0.0355265
0.018817
-0.0349734
-0.0344097
0.01955
3.74583e-05
-0.0791817
0.000162954
-0.0725257
0.00037936
-0.0671255
0.000683748
-0.0627404
0.00107032
-0.0591711
0.00153179
-0.0562525
0.00206021
-0.0538505
0.00264748
-0.0518575
0.00328565
-0.0501874
0.00396716
-0.0487716
0.00468494
-0.0475556
0.00543246
-0.0464959
0.00620375
-0.0455585
0.00699344
-0.0447161
0.00779673
-0.0439475
0.00860935
-0.0432359
0.00942757
-0.0425681
0.0102481
-0.0419339
0.0110683
-0.0413251
0.0118856
-0.0407355
0.0126982
-0.0401603
0.0135044
-0.0395955
0.0143029
-0.0390379
0.0150926
-0.038485
0.0158726
-0.0379344
0.0166423
-0.037384
0.0174012
-0.0368313
0.0181487
-0.0362739
0.0188842
-0.0357089
-0.0351325
0.0196069
4.08922e-05
-0.0792226
0.00017347
-0.0726582
0.00039919
-0.0673512
0.00071442
-0.0630556
0.00111275
-0.0595695
0.00158637
-0.0567261
0.00212687
-0.054391
0.00272576
-0.0524564
0.00337482
-0.0508365
0.00406621
-0.049463
0.00479268
-0.048282
0.00554755
-0.0472508
0.00632476
-0.0463357
0.00711887
-0.0455102
0.00792504
-0.0447537
0.008739
-0.0440499
0.00955705
-0.0433862
0.010376
-0.0427528
0.0111931
-0.0421422
0.012006
-0.0415485
0.0128129
-0.0409672
0.0136123
-0.0403948
0.014403
-0.0398285
0.0151839
-0.0392659
0.0159544
-0.0387049
0.0167139
-0.0381435
0.0174621
-0.0375795
0.0181985
-0.0370103
0.0189227
-0.0364331
-0.0358439
0.0196342
4.38989e-05
-0.0792665
0.00018322
-0.0727976
0.000418041
-0.067586
0.000743854
-0.0633814
0.00115358
-0.0599792
0.00163884
-0.0572114
0.00219078
-0.0549429
0.00280055
-0.0530662
0.00345961
-0.0514956
0.00415991
-0.0501633
0.004894
-0.0490161
0.00565508
-0.0480119
0.00643699
-0.0471176
0.00723425
-0.0463075
0.00804199
-0.0455615
0.00885597
-0.0448639
0.0096725
-0.0442027
0.0104884
-0.0435687
0.0113011
-0.0429548
0.0121083
-0.0423557
0.0129083
-0.0417672
0.0136997
-0.0411862
0.0144812
-0.0406101
0.0152523
-0.0400369
0.0160121
-0.0394648
0.0167604
-0.0388918
0.0174968
-0.0383159
0.0182212
-0.0377347
0.0189333
-0.0371452
-0.0365434
0.0196328
4.66862e-05
-0.0793131
0.000192465
-0.0729433
0.000436097
-0.0678297
0.00077214
-0.0637175
0.0011928
-0.0603998
0.00168914
-0.0577077
0.00225184
-0.0555056
0.00287169
-0.053686
0.00353985
-0.0521637
0.00424806
-0.0508716
0.00498868
-0.0497568
0.00575481
-0.048778
0.00654022
-0.047903
0.00733936
-0.0471067
0.0081474
-0.0463695
0.00896008
-0.0456766
0.00977378
-0.0450164
0.0105854
-0.0443804
0.0113924
-0.0437618
0.0121926
-0.043156
0.0129845
-0.042559
0.0137666
-0.0419683
0.0145379
-0.0413815
0.015298
-0.0407969
0.0160461
-0.040213
0.0167822
-0.0396279
0.017506
-0.0390398
0.0182176
-0.0384463
0.0189168
-0.0378444
-0.0372301
0.0196035
4.93386e-05
-0.0793625
0.000201323
-0.0730953
0.000453446
-0.0680818
0.000799316
-0.0640634
0.00123041
-0.0608309
0.00173721
-0.0582145
0.00230995
-0.0560784
0.00293905
-0.0543151
0.00361538
-0.0528401
0.00433048
-0.0515866
0.00507655
-0.0505028
0.00584657
-0.049548
0.00663425
-0.0486907
0.00743404
-0.0479064
0.00824109
-0.0471765
0.0090512
-0.0464867
0.00986079
-0.045826
0.0106669
-0.0451864
0.0114669
-0.0445619
0.012259
-0.043948
0.0130415
-0.0433415
0.0138132
-0.04274
0.0145733
-0.0421416
0.0153213
-0.0415449
0.0160569
-0.0409485
0.0167799
-0.0403508
0.0174903
-0.0397502
0.0181883
-0.0391443
0.0188739
-0.0385301
-0.0379034
0.0195472
5.18888e-05
-0.0794144
0.000209847
-0.0732533
0.000470127
-0.0683421
0.000825391
-0.0644186
0.00126638
-0.0612719
0.001783
-0.0587311
0.00236503
-0.0566604
0.00300252
-0.0549526
0.00368608
-0.0535236
0.00440703
-0.0523076
0.00515744
-0.0512533
0.00593019
-0.0503208
0.00671895
-0.0494795
0.00751816
-0.0487056
0.00832298
-0.0479814
0.00912926
-0.0472929
0.0099335
-0.0466302
0.0107328
-0.0459857
0.0115247
-0.0453538
0.0123075
-0.0447307
0.0130795
-0.0441136
0.0138398
-0.0435003
0.0145877
-0.0428896
0.0153228
-0.04228
0.0160449
-0.0416706
0.016754
-0.04106
0.0174503
-0.0404465
0.0181341
-0.0398281
0.0188056
-0.0392016
-0.0385628
0.0194651
5.4353e-05
-0.0794687
0.000218056
-0.073417
0.000486152
-0.0686102
0.000850359
-0.0647828
0.00130068
-0.0617222
0.00182645
-0.0592569
0.00241699
-0.0572509
0.003062
-0.0555976
0.00375183
-0.0542134
0.00447759
-0.0530334
0.00523124
-0.0520069
0.00600557
-0.0510951
0.00679422
-0.0502681
0.00759163
-0.0495031
0.008393
-0.0487827
0.00919425
-0.0480942
0.00999195
-0.0474279
0.0107833
-0.046777
0.011566
-0.0461365
0.0123383
-0.045503
0.0130989
-0.0448741
0.0138468
-0.0442483
0.0145816
-0.0436243
0.0153029
-0.0430013
0.0160108
-0.0423784
0.0167053
-0.0417545
0.0173869
-0.0411281
0.0180559
-0.0404971
0.0187128
-0.0398585
-0.039208
0.019358
5.67346e-05
-0.0795255
0.00022596
-0.0735862
0.00050152
-0.0688857
0.000874202
-0.0651555
0.00133328
-0.0621813
0.00186752
-0.0597911
0.00246577
-0.0578492
0.00311742
-0.0562493
0.00381254
-0.0549086
0.00454208
-0.0537629
0.00529787
-0.0527627
0.00607264
-0.0518699
0.00686001
-0.0510555
0.00765443
-0.0502975
0.00845117
-0.0495795
0.00924621
-0.0488892
0.0100362
-0.0482179
0.0108185
-0.0475593
0.0115909
-0.0469089
0.0123517
-0.0462639
0.0130999
-0.0456223
0.0138346
-0.044983
0.0145554
-0.0443451
0.0152622
-0.0437081
0.0159551
-0.0430714
0.0166345
-0.0424339
0.0173008
-0.0417944
0.0179546
-0.0411509
0.0185965
-0.0405004
-0.0398385
0.019227
5.90356e-05
-0.0795845
0.000233557
-0.0737607
0.000516223
-0.0691684
0.000896903
-0.0655362
0.00136415
-0.0626486
0.00190614
-0.0603331
0.00251132
-0.0584544
0.00316871
-0.0569067
0.00386816
-0.055608
0.00460044
-0.0544952
0.00535727
-0.0535195
0.00613135
-0.052644
0.00691629
-0.0518404
0.00770658
-0.0510878
0.00849753
-0.0503704
0.00928523
-0.0496769
0.0100664
-0.0489992
0.0108386
-0.0483314
0.0115996
-0.04767
0.0123481
-0.0470123
0.0130829
-0.0463571
0.0138035
-0.0457035
0.0145096
-0.0450512
0.0152011
-0.0443997
0.0158785
-0.0437487
0.0165422
-0.0430976
0.0171927
-0.042445
0.0178309
-0.0417891
0.0184575
-0.041127
-0.0404542
0.0190732
6.12551e-05
-0.0796457
0.00024084
-0.0739403
0.000530252
-0.0694578
0.000918445
-0.0659244
0.00139325
-0.0631234
0.00194231
-0.0608822
0.0025536
-0.0590657
0.00321584
-0.0575689
0.00391864
-0.0563108
0.00465262
-0.0552292
0.00540943
-0.0542763
0.00618171
-0.0534162
0.00696309
-0.0526218
0.00774812
-0.0518728
0.00853218
-0.0511545
0.00931146
-0.0504562
0.0100828
-0.0497705
0.0108438
-0.0490924
0.0115926
-0.0484187
0.0123278
-0.0477475
0.0130484
-0.0470778
0.0137541
-0.0464092
0.0144447
-0.0457418
0.0151204
-0.0450754
0.0157817
-0.04441
0.0164291
-0.043745
0.0170636
-0.0430794
0.0176858
-0.0424114
0.0182968
-0.041738
-0.0410548
0.0188974
6.33899e-05
-0.0797091
0.000247806
-0.0741247
0.000543595
-0.0697536
0.000938812
-0.0663196
0.00142058
-0.0636051
0.00197598
-0.0614376
0.00259258
-0.0596823
0.00325877
-0.0582351
0.00396396
-0.057016
0.00469863
-0.0559638
0.00545434
-0.055032
0.00622374
-0.0541856
0.00700048
-0.0533985
0.00777917
-0.0526515
0.00855527
-0.0519306
0.00932508
-0.051226
0.0100856
-0.0505311
0.0108345
-0.0498414
0.0115701
-0.0491543
0.0122911
-0.0484685
0.0129968
-0.0477835
0.0136869
-0.0470993
0.0143615
-0.0464163
0.0150207
-0.0457347
0.0156654
-0.0450546
0.0162962
-0.0443758
0.0169141
-0.0436973
0.0175201
-0.0430174
0.0181153
-0.0423332
-0.0416402
0.0187007
6.54379e-05
-0.0797746
0.000254448
-0.0743138
0.000556244
-0.0700554
0.000957995
-0.0667214
0.00144612
-0.0640933
0.00200715
-0.0619986
0.00262825
-0.0603033
0.00329751
-0.0589043
0.00400413
-0.0577226
0.00473848
-0.0566982
0.00549207
-0.0557856
0.00625753
-0.0549511
0.00702857
-0.0541696
0.00779986
-0.0534228
0.00856698
-0.0526977
0.00932634
-0.0519854
0.0100751
-0.0512798
0.010811
-0.0505773
0.0115326
-0.0498759
0.0122387
-0.0491746
0.0129287
-0.0484736
0.0136026
-0.0477732
0.0142604
-0.0470741
0.0149027
-0.046377
0.0155302
-0.0456822
0.0161439
-0.0449895
0.016745
-0.0442984
0.0173346
-0.043607
0.0179138
-0.0429125
-0.0422104
0.0184839
6.73957e-05
-0.079842
0.000260759
-0.0745071
0.000568195
-0.0703628
0.00097599
-0.0671291
0.00146987
-0.0645872
0.00203583
-0.0625646
0.00266063
-0.0609281
0.00333207
-0.0595758
0.00403919
-0.0584298
0.00477223
-0.0574312
0.00552267
-0.0565361
0.00628317
-0.0557116
0.00704748
-0.0549339
0.00781037
-0.0541857
0.00856754
-0.0534549
0.00931552
-0.0527334
0.0100516
-0.0520159
0.0107737
-0.0512994
0.0114805
-0.0505826
0.0121709
-0.0498651
0.0128446
-0.0491473
0.0135016
-0.0484301
0.0141421
-0.0477147
0.0147669
-0.0470018
0.0153769
-0.0462921
0.0159732
-0.0455858
0.0165571
-0.0448823
0.0171299
-0.0441798
0.0176931
-0.0434756
-0.0427651
0.0182478
6.92611e-05
-0.0799112
0.000266738
-0.0747046
0.000579445
-0.0706755
0.000992803
-0.0675425
0.00149184
-0.0650862
0.00206203
-0.0631347
0.00268973
-0.0615558
0.00336249
-0.0602486
0.00406917
-0.0591364
0.00479994
-0.058162
0.00554625
-0.0572824
0.0063008
-0.0564662
0.00705741
-0.0556905
0.00781095
-0.0549392
0.00855724
-0.0542012
0.00929295
-0.0534691
0.0100155
-0.0527385
0.010723
-0.052007
0.0114143
-0.0512738
0.0120884
-0.0505392
0.0127451
-0.049804
0.0133846
-0.0490696
0.0140074
-0.0483374
0.0146142
-0.0476086
0.0152063
-0.0468842
0.0157847
-0.0461643
0.0163511
-0.0454487
0.016907
-0.0447356
0.0174538
-0.0440224
-0.0433043
0.017993
7.10302e-05
-0.0799823
0.000272382
-0.0749059
0.000590003
-0.0709931
0.00100845
-0.067961
0.00151206
-0.0655898
0.00208578
-0.0637085
0.0027156
-0.0621857
0.00338883
-0.0609218
0.00409416
-0.0598418
0.00482172
-0.0588895
0.00556294
-0.0580236
0.00631059
-0.0572138
0.00705856
-0.0564385
0.00780184
-0.0556825
0.00853639
-0.0549357
0.00925901
-0.0541917
0.00996729
-0.0534467
0.0106595
-0.0526992
0.0113345
-0.0519488
0.0119917
-0.0511964
0.0126309
-0.0504432
0.0132524
-0.0496912
0.0138569
-0.0489419
0.0144453
-0.048197
0.0150189
-0.0474578
0.0155792
-0.0467246
0.0161278
-0.0459972
0.0166663
-0.0452742
0.0171966
-0.0445527
-0.0438278
0.0177202
7.27001e-05
-0.080055
0.000277693
-0.0751109
0.000599881
-0.0713153
0.00102295
-0.068384
0.00153056
-0.0660974
0.00210713
-0.064285
0.0027383
-0.0628168
0.00341115
-0.0615946
0.00411426
-0.0605449
0.00483768
-0.0596129
0.00557291
-0.0587588
0.00631274
-0.0579536
0.00705118
-0.0571769
0.00778335
-0.0564147
0.00850534
-0.0556577
0.00921411
-0.0549005
0.0099074
-0.05414
0.0105836
-0.0533754
0.0112418
-0.052607
0.0118815
-0.051836
0.0125026
-0.0510644
0.0131057
-0.0502942
0.0136914
-0.0495276
0.0142609
-0.0487666
0.0148157
-0.0480125
0.0153573
-0.0472662
0.0158877
-0.0465276
0.0164086
-0.0457952
0.0169221
-0.0450662
-0.0443356
0.0174299
7.42689e-05
-0.0801292
0.000282679
-0.0753193
0.000609104
-0.0716418
0.00103635
-0.0688113
0.0015474
-0.0666085
0.00212615
-0.0648638
0.00275791
-0.0634486
0.00342955
-0.0622663
0.00412956
-0.0612449
0.00484798
-0.0603314
0.00557632
-0.0594872
0.00630748
-0.0586848
0.00703556
-0.057905
0.00775582
-0.0571349
0.0084645
-0.0563664
0.00915872
-0.0555947
0.00983637
-0.0548177
0.010496
-0.0540351
0.0111368
-0.0532478
0.0117585
-0.0524577
0.0123611
-0.051667
0.0129452
-0.0508783
0.0135117
-0.0500941
0.0140619
-0.0493168
0.0145973
-0.048548
0.0151198
-0.0477888
0.0156315
-0.0470392
0.0161345
-0.0462981
0.0166308
-0.0455625
-0.0448273
0.0171225
7.57323e-05
-0.080205
0.000287352
-0.075531
0.00061771
-0.0719721
0.00104872
-0.0692423
0.00156264
-0.0671224
0.0021429
-0.0654441
0.0027745
-0.0640802
0.00344413
-0.0629359
0.00414021
-0.061941
0.00485277
-0.0610439
0.00557339
-0.0602078
0.00629505
-0.0594064
0.00701199
-0.0586219
0.00771961
-0.0578425
0.0084143
-0.0570611
0.00909333
-0.0562737
0.00975478
-0.0554791
0.0103973
-0.0546776
0.0110203
-0.0538708
0.0116235
-0.0530609
0.0122072
-0.0522506
0.0127719
-0.051443
0.0133188
-0.050641
0.0138491
-0.0498471
0.0143647
-0.0490636
0.0148676
-0.0482916
0.01536
-0.0475317
0.0158444
-0.0467825
0.016323
-0.0460412
-0.0453024
0.0167982
7.70895e-05
-0.0802821
0.000291742
-0.0757456
0.000625759
-0.0723061
0.00106012
-0.0696766
0.00157637
-0.0676386
0.00215749
-0.0660252
0.00278818
-0.0647109
0.00345501
-0.0636027
0.00414634
-0.0626323
0.00485223
-0.0617498
0.00556433
-0.0609199
0.00627573
-0.0601178
0.00698081
-0.059327
0.00767511
-0.0585368
0.0083552
-0.0577411
0.0090185
-0.056937
0.00966323
-0.0561239
0.0102883
-0.0553027
0.010893
-0.0544755
0.0114774
-0.0536452
0.0120417
-0.052815
0.0125868
-0.0519881
0.0131136
-0.0511678
0.0136237
-0.0503573
0.014119
-0.0495588
0.0146016
-0.0487743
0.0150741
-0.0480041
0.0155391
-0.0472475
0.0159993
-0.0465014
-0.0457604
0.0164573
7.83435e-05
-0.0803604
0.000295891
-0.0759632
0.00063334
-0.0726436
0.00107066
-0.070114
0.00158871
-0.0681567
0.00217002
-0.0666065
0.00279907
-0.0653399
0.00346231
-0.064266
0.0041481
-0.0633181
0.00484654
-0.0624483
0.00554937
-0.0616227
0.00624981
-0.0608183
0.00694237
-0.0600196
0.00762275
-0.0592172
0.00828769
-0.0584061
0.00893478
-0.0575841
0.0095624
-0.0567515
0.0101695
-0.0559098
0.0107558
-0.0550617
0.0113211
-0.0542105
0.0118659
-0.0533598
0.0123909
-0.0525132
0.0128974
-0.0516743
0.0133869
-0.0508467
0.0138613
-0.0500332
0.0143229
-0.0492359
0.0147746
-0.0484558
0.0152193
-0.0476922
0.0156602
-0.0469423
-0.0462002
0.0161
7.95113e-05
-0.0804399
0.000299886
-0.0761835
0.000640582
-0.0729843
0.00108049
-0.0705539
0.00159978
-0.068676
0.00218061
-0.0671873
0.00280727
-0.0659666
0.00346617
-0.0649249
0.00414565
-0.0639975
0.0048359
-0.0631385
0.00552876
-0.0623156
0.00621756
-0.0615071
0.006897
-0.060699
0.00756294
-0.0598832
0.00821228
-0.0590554
0.00884278
-0.0582146
0.00945296
-0.0573617
0.010042
-0.0564988
0.0106095
-0.0556292
0.0111556
-0.0547566
0.0116807
-0.0538849
0.0121857
-0.0530181
0.0126716
-0.0521603
0.0131402
-0.0513152
0.0135932
-0.0504862
0.0140331
-0.0496758
0.014463
-0.0488856
0.0148862
-0.0481154
0.0153064
-0.0473625
-0.0466207
0.0157269
8.06357e-05
-0.0805205
0.000303868
-0.0764068
0.000647674
-0.0733281
0.00108978
-0.070996
0.00160973
-0.0691959
0.00218937
-0.067767
0.00281291
-0.0665901
0.00346669
-0.0655787
0.00413913
-0.06467
0.00482049
-0.0638199
0.00550271
-0.0629978
0.00617929
-0.0621837
0.00684508
-0.0613648
0.00749612
-0.0605342
0.00812947
-0.0596888
0.00874308
-0.0588282
0.00933561
-0.0579542
0.00990636
-0.0570696
0.0104551
-0.056178
0.0109819
-0.0552835
0.0114874
-0.0543904
0.0119723
-0.0535031
0.0124378
-0.0526258
0.0128852
-0.0517627
0.0133165
-0.0509175
0.0137341
-0.0500935
0.0141412
-0.0492927
0.0145414
-0.0485157
0.0149392
-0.0477602
-0.04702
0.0153385
8.18327e-05
-0.0806024
0.000308089
-0.076633
0.000654887
-0.0736749
0.00109875
-0.0714398
0.0016187
-0.0697159
0.00219643
-0.0683447
0.00281607
-0.0672098
0.00346401
-0.0662266
0.00412869
-0.0653347
0.00480048
-0.0644917
0.00547146
-0.0636688
0.00613527
-0.0628475
0.00678694
-0.0620165
0.00742268
-0.0611699
0.00803975
-0.0603058
0.00863626
-0.0594247
0.00921104
-0.058529
0.0097635
-0.057622
0.0102935
-0.056708
0.0108013
-0.0557913
0.0112874
-0.0548765
0.0117526
-0.0539682
0.0121977
-0.053071
0.0126242
-0.0521892
0.0130337
-0.051327
0.0134285
-0.0504882
0.0138117
-0.0496758
0.0141874
-0.0488914
0.0145605
-0.0481334
-0.0473957
0.0149362
8.3359e-05
-0.0806857
0.000312971
-0.0768626
0.000662591
-0.0740245
0.00110764
-0.0718849
0.00162686
-0.0702351
0.00220189
-0.0689197
0.00281686
-0.0678247
0.00345821
-0.0668679
0.00411445
-0.0659909
0.00477604
-0.0651532
0.00543521
-0.064328
0.00608576
-0.063498
0.00672289
-0.0626536
0.00734302
-0.0617901
0.00794358
-0.0609064
0.00852287
-0.060004
0.00907988
-0.059086
0.00961416
-0.0581563
0.0101257
-0.0572195
0.0106148
-0.0562804
0.011082
-0.0553436
0.0115279
-0.0544141
0.0119534
-0.0534965
0.0123596
-0.0525954
0.0127478
-0.0517152
0.0131198
-0.0508602
0.0134784
-0.0500345
0.0138278
-0.0492408
0.0141738
-0.0484793
-0.0477446
0.0145227
8.57136e-05
-0.0807714
0.000319141
-0.0770961
0.00067123
-0.0743766
0.00111671
-0.0723304
0.00163432
-0.0707527
0.00220579
-0.0694912
0.00281531
-0.0684343
0.00344935
-0.067502
0.00409649
-0.0666381
0.0047473
-0.0658041
0.00539414
-0.0649748
0.00603098
-0.0641349
0.00665322
-0.0632758
0.00725746
-0.0623943
0.00784135
-0.0614903
0.00840337
-0.060566
0.00894269
-0.0596253
0.00945902
-0.0586726
0.00995244
-0.0577129
0.0104233
-0.0567513
0.0108723
-0.0557926
0.0112999
-0.0548418
0.0117069
-0.0539035
0.0120941
-0.0529825
0.0124622
-0.0520833
0.0128124
-0.0512105
0.0131468
-0.0503689
0.0134689
-0.0495628
0.0137848
-0.0487952
-0.0480629
0.0141031
8.98256e-05
-0.0808613
0.000327572
-0.0773338
0.00068137
-0.0747304
0.00112617
-0.0727752
0.00164113
-0.0712677
0.00220814
-0.0700582
0.00281144
-0.0690376
0.00343748
-0.068128
0.0040749
-0.0672755
0.00471436
-0.0664435
0.00534838
-0.0656088
0.00597111
-0.0647576
0.00657814
-0.0638829
0.00716629
-0.0629825
0.0077334
-0.0620574
0.00827816
-0.0611108
0.00879993
-0.0601471
0.00929857
-0.0591713
0.00977434
-0.0581887
0.0102277
-0.0572046
0.0106593
-0.0562242
0.0110699
-0.0552523
0.0114599
-0.0542936
0.01183
-0.0533526
0.0121804
-0.0524337
0.0125115
-0.0515415
0.0128237
-0.0506811
0.013119
-0.0498581
0.0134023
-0.0490785
-0.0483462
0.0136856
9.81446e-05
-0.0809594
0.000340261
-0.0775759
0.000693825
-0.0750839
0.00113619
-0.0732175
0.00164724
-0.0717787
0.00220886
-0.0706198
0.00280516
-0.0696339
0.00342256
-0.0687454
0.00404968
-0.0679026
0.0046773
-0.0670711
0.00529806
-0.0662296
0.0059063
-0.0653658
0.00649784
-0.0644744
0.0070697
-0.0635543
0.00761995
-0.0626076
0.00814749
-0.0616383
0.00865187
-0.0606515
0.00913315
-0.0596526
0.00959175
-0.0586473
0.0100283
-0.0576412
0.0104437
-0.0566396
0.0108386
-0.0556472
0.0112137
-0.0546687
0.0115695
-0.0537083
0.0119059
-0.0527701
0.0122225
-0.0518581
0.0125181
-0.0509767
0.0127905
-0.0501306
0.0130406
-0.0493285
-0.0485913
0.0132856
0.00011845
-0.0810779
0.00036018
-0.0778177
0.000708879
-0.0754326
0.00114638
-0.073655
0.00165223
-0.0722846
0.00220765
-0.0711752
0.00279633
-0.0702226
0.00340452
-0.0693536
0.00402083
-0.0685189
0.00463613
-0.0676864
0.00524322
-0.0668367
0.00583665
-0.0659593
0.00641244
-0.0650502
0.00696784
-0.0641097
0.00750116
-0.063141
0.00801149
-0.0621487
0.00849862
-0.0611386
0.0089628
-0.0601167
0.00940467
-0.0590892
0.00982509
-0.0580616
0.0102251
-0.0570395
0.0106057
-0.0560278
0.0109681
-0.0550311
0.011313
-0.0540533
0.0116411
-0.0530982
0.0119523
-0.0521694
0.0122451
-0.0512695
0.0125128
-0.0503983
0.0127415
-0.0495571
-0.0487782
0.0129284
0.0834689
8.77592e-05
-0.0835567
0.0833914
7.74821e-05
0.083317
7.44081e-05
0.0832431
7.39077e-05
0.0831686
7.44996e-05
0.083093
7.56083e-05
0.0830161
7.69166e-05
0.0829378
7.82598e-05
0.0828583
7.9558e-05
0.0827775
8.07802e-05
0.0826956
8.19126e-05
0.0826126
8.29502e-05
0.0825287
8.38934e-05
0.082444
8.47414e-05
0.0823585
8.54955e-05
0.0822724
8.61549e-05
0.0821856
8.67204e-05
0.0820984
8.71915e-05
0.0820109
8.75654e-05
0.081923
8.78415e-05
0.081835
8.80154e-05
0.0817469
8.80811e-05
0.0816589
8.80254e-05
0.0815711
8.78306e-05
0.0814836
8.74578e-05
0.0813968
8.68336e-05
0.081311
8.57981e-05
0.081227
8.39787e-05
0.0811468
8.02058e-05
6.89353e-05
0.0838448
0.000249193
-0.0840063
0.0836772
0.000245075
0.0835064
0.000245242
0.0833324
0.000247932
0.0831549
0.000251946
0.0829738
0.000256701
0.0827889
0.000261811
0.0826002
0.000267012
0.0824076
0.000272141
0.0822113
0.0002771
0.0820114
0.000281834
0.081808
0.000286309
0.0816014
0.000290502
0.0813917
0.000294403
0.0811792
0.000298
0.0809641
0.000301287
0.0807466
0.000304259
0.0805268
0.00030691
0.0803052
0.000309233
0.0800818
0.00031122
0.0798569
0.000312859
0.0796309
0.000314134
0.0794039
0.000315016
0.0791763
0.000315462
0.0789483
0.000315398
0.0787205
0.000314694
0.0784932
0.000313106
0.078267
0.000310156
0.0780425
0.000304743
0.000293726
0.0840768
0.000454095
-0.0842817
0.0838599
0.000461893
0.083634
0.00047115
0.0834003
0.000481692
0.0831592
0.000493023
0.0829111
0.000504807
0.0826561
0.000516776
0.0823944
0.000528704
0.0821261
0.000540417
0.0818515
0.000551792
0.0815705
0.000562744
0.0812836
0.000573212
0.080991
0.000583153
0.0806929
0.000592534
0.0803895
0.000601331
0.0800813
0.000609526
0.0797685
0.0006171
0.0794513
0.000624042
0.0791302
0.000630334
0.0788055
0.000635961
0.0784774
0.000640902
0.0781464
0.000645129
0.0778129
0.000648604
0.077477
0.000651268
0.0771394
0.000653036
0.0768003
0.00065377
0.0764602
0.000653247
0.0761192
0.000651099
0.0757773
0.00064664
0.000638428
0.0840729
0.000679219
-0.084298
0.0838336
0.000701106
0.0835818
0.000722994
0.0833184
0.000745096
0.0830441
0.000767294
0.0827595
0.000789445
0.0824649
0.0008114
0.0821606
0.000833006
0.0818469
0.000854122
0.081524
0.000874633
0.0811923
0.000894446
0.080852
0.000913491
0.0805035
0.000931709
0.080147
0.000949052
0.0797828
0.000965484
0.0794114
0.000980969
0.079033
0.000995481
0.078648
0.00100899
0.0782569
0.00102148
0.0778599
0.00103292
0.0774575
0.00104328
0.0770502
0.00105252
0.0766382
0.0010606
0.076222
0.00106746
0.075802
0.00107301
0.0753786
0.00107713
0.0749522
0.00107965
0.074523
0.00108033
0.0740909
0.00107876
0.00107428
0.0837962
0.000905799
-0.0840228
0.083554
0.00094339
0.0832967
0.000980268
0.0830251
0.00101664
0.0827399
0.00105252
0.0824415
0.00108785
0.0821304
0.00112255
0.0818068
0.00115652
0.0814713
0.00118965
0.0811241
0.00122184
0.0807656
0.00125301
0.080396
0.00128308
0.0800157
0.00131199
0.079625
0.00133969
0.0792244
0.00136611
0.0788142
0.00139122
0.0783947
0.00141497
0.0779663
0.00143734
0.0775295
0.00145828
0.0770847
0.00147775
0.0766322
0.00149573
0.0761726
0.00151216
0.0757062
0.001527
0.0752335
0.00154018
0.0747549
0.00155163
0.0742708
0.00156124
0.0737815
0.0015689
0.0732874
0.00157444
0.0727885
0.00157765
0.00157821
0.0832433
0.00112039
-0.0834579
0.0830116
0.00117507
0.0827633
0.00122866
0.0824986
0.00128128
0.0822182
0.00133296
0.0819224
0.00138366
0.0816116
0.00143333
0.0812862
0.0014819
0.0809466
0.00152927
0.0805931
0.00157536
0.080226
0.00162009
0.0798457
0.00166339
0.0794525
0.00170517
0.0790468
0.00174539
0.0786289
0.00178397
0.0781993
0.00182086
0.0777583
0.00185601
0.0773062
0.00188938
0.0768436
0.00192091
0.0763708
0.00195057
0.0758882
0.0019783
0.0753963
0.00200405
0.0748955
0.00202777
0.0743863
0.0020494
0.0738691
0.00206887
0.0733442
0.00208609
0.0728122
0.00210098
0.0722732
0.00211343
0.0717275
0.00212332
0.00213048
0.0824331
0.00131414
-0.0826269
0.0822212
0.00138702
0.0819912
0.00145857
0.0817437
0.00152886
0.0814787
0.00159788
0.0811968
0.00166559
0.0808982
0.00173195
0.0805832
0.00179687
0.0802522
0.00186027
0.0799055
0.00192208
0.0795434
0.00198219
0.0791662
0.00204055
0.0787743
0.00209707
0.078368
0.00215167
0.0779477
0.0022043
0.0775137
0.00225487
0.0770664
0.00230334
0.0766061
0.00234964
0.0761333
0.00239371
0.0756484
0.0024355
0.0751517
0.00247496
0.0746438
0.00251201
0.0741249
0.00254661
0.0735956
0.0025787
0.0730563
0.0026082
0.0725073
0.00263504
0.0719491
0.00265916
0.0713821
0.00268048
0.0708065
0.00269893
0.00271439
0.0813976
0.00148185
-0.0815653
0.081211
0.00157371
0.0810054
0.0016641
0.0807812
0.00175303
0.0805387
0.00184047
0.0802779
0.00192635
0.0799992
0.00201062
0.0797029
0.00209319
0.0793892
0.00217397
0.0790584
0.00225288
0.0787108
0.00232982
0.0783466
0.0024047
0.0779662
0.00247745
0.0775699
0.00254798
0.077158
0.00261621
0.0767308
0.00268206
0.0762887
0.00274546
0.075832
0.00280635
0.0753611
0.00286464
0.0748763
0.00292027
0.0743781
0.00297318
0.0738668
0.00302331
0.0733428
0.00307058
0.0728066
0.00311493
0.0722585
0.00315629
0.0716989
0.0031946
0.0711283
0.0032298
0.070547
0.00326182
0.0699553
0.00329061
0.00331608
0.0801752
0.00162108
-0.0803144
0.0800165
0.00173239
0.0798384
0.00184217
0.0796411
0.00195035
0.0794247
0.00205689
0.0791893
0.0021617
0.0789352
0.00226471
0.0786626
0.00236582
0.0783717
0.00246492
0.0780626
0.00256192
0.0777357
0.00265673
0.0773912
0.00274923
0.0770293
0.00283935
0.0766503
0.00292698
0.0762545
0.00301204
0.0758421
0.00309443
0.0754135
0.00317407
0.074969
0.00325087
0.0745088
0.00332477
0.0740334
0.00339567
0.0735431
0.00346351
0.0730382
0.0035282
0.0725191
0.00358967
0.0719862
0.00364786
0.0714398
0.00370268
0.0708803
0.00375408
0.0703081
0.003802
0.0697236
0.00384637
0.0691271
0.00388714
0.00392423
0.0788054
0.00173144
-0.0789158
0.0786754
0.00186242
0.0785257
0.00199182
0.0783565
0.00211956
0.0781679
0.00224556
0.0779598
0.00236972
0.0777326
0.00249195
0.0774863
0.00261213
0.0772211
0.00273014
0.0769371
0.00284589
0.0766346
0.00295925
0.0763137
0.00307013
0.0759746
0.00317841
0.0756176
0.00328398
0.0752429
0.00338676
0.0748507
0.00348662
0.0744413
0.00358348
0.0740149
0.00367725
0.0735719
0.00376782
0.0731124
0.00385512
0.0726369
0.00393904
0.0721456
0.00401952
0.0716388
0.00409645
0.0711169
0.00416978
0.0705801
0.00423941
0.070029
0.00430527
0.0694636
0.00436731
0.0688846
0.00442546
0.068292
0.00447966
0.00452983
0.0773265
0.00181398
-0.0774091
0.0772244
0.0019646
0.0771025
0.00211364
0.0769611
0.00226099
0.0768001
0.00240655
0.0766196
0.00255021
0.0764197
0.00269185
0.0762005
0.00283135
0.0759621
0.00296857
0.0757046
0.0031034
0.0754281
0.00323571
0.0751329
0.00336539
0.0748189
0.00349232
0.0744865
0.00361638
0.0741359
0.00373745
0.0737671
0.00385542
0.0733804
0.00397018
0.072976
0.00408164
0.0725541
0.00418967
0.072115
0.00429419
0.071659
0.00439509
0.0711862
0.00449227
0.070697
0.00458566
0.0701917
0.00467514
0.0696704
0.00476065
0.0691336
0.00484209
0.0685815
0.00491941
0.0680144
0.00499252
0.0674327
0.00506138
0.00512588
0.0757734
0.00187071
-0.0758302
0.0756973
0.00204077
0.0756016
0.00220927
0.0754865
0.00237609
0.075352
0.00254111
0.075198
0.00270419
0.0750246
0.00286521
0.074832
0.00302402
0.07462
0.0031805
0.0743889
0.0033345
0.0741388
0.00348589
0.0738696
0.00363455
0.0735816
0.00378035
0.0732748
0.00392315
0.0729494
0.00406283
0.0726056
0.00419927
0.0722434
0.00433234
0.0718631
0.00446194
0.0714648
0.00458794
0.0710488
0.00471023
0.0706152
0.00482871
0.0701642
0.00494327
0.069696
0.0050538
0.069211
0.0051602
0.0687092
0.00526239
0.0681911
0.00536026
0.0676567
0.00545376
0.0671064
0.00554279
0.0665405
0.00562728
0.00570715
0.0741767
0.00190423
-0.0742102
0.0741241
0.0020934
0.0740523
0.00228104
0.0739613
0.00246703
0.0738512
0.00265123
0.0737219
0.00283349
0.0735735
0.00301367
0.0734059
0.00319163
0.0732192
0.0033672
0.0730134
0.00354026
0.0727886
0.00371066
0.0725449
0.00387826
0.0722823
0.00404292
0.072001
0.0042045
0.071701
0.00436287
0.0713823
0.00451789
0.0710452
0.00466944
0.0706898
0.00481739
0.0703161
0.00496161
0.0699244
0.00510199
0.0695147
0.0052384
0.0690872
0.00537072
0.0686422
0.00549885
0.0681797
0.00562268
0.0677
0.0057421
0.0672032
0.00585701
0.0666897
0.00596732
0.0661595
0.00607296
0.0656129
0.00617385
0.00626988
0.0725622
0.00191744
-0.0725754
0.0725303
0.00212528
0.0724797
0.00233165
0.0724104
0.00253641
0.0723222
0.0027394
0.0722152
0.00294047
0.0720894
0.00313946
0.0719448
0.00333623
0.0717814
0.00353061
0.0715992
0.00372245
0.0713983
0.00391161
0.0711786
0.00409793
0.0709403
0.00428127
0.0706833
0.00446148
0.0704077
0.00463842
0.0701137
0.00481195
0.0698012
0.00498193
0.0694703
0.00514823
0.0691212
0.00531072
0.068754
0.00546926
0.0683686
0.00562373
0.0679654
0.005774
0.0675442
0.00591996
0.0671055
0.00606147
0.0666491
0.00619844
0.0661754
0.00633075
0.0656844
0.0064583
0.0651763
0.00658101
0.0646514
0.00669879
0.00681155
0.0709514
0.00191334
-0.0709473
0.0709374
0.00213935
0.070905
0.00236396
0.0708544
0.002587
0.0707855
0.00280832
0.0706983
0.00302774
0.0705926
0.00324511
0.0704686
0.00346026
0.0703262
0.00367303
0.0701654
0.00388326
0.0699862
0.0040908
0.0697886
0.00429549
0.0695727
0.00449718
0.0693384
0.00469572
0.0690859
0.00489096
0.0688151
0.00508276
0.0685261
0.00527096
0.0682189
0.00545544
0.0678935
0.00563605
0.0675501
0.00581266
0.0671887
0.00598513
0.0668094
0.00615333
0.0664122
0.00631713
0.0659973
0.0064764
0.0655647
0.00663102
0.0651146
0.00678088
0.064647
0.00692586
0.0641622
0.00706588
0.0636601
0.00720085
0.00733068
0.0693613
0.00189484
-0.0693428
0.0693621
0.00213852
0.0693453
0.00238084
0.0693106
0.00262164
0.0692582
0.00286076
0.0691879
0.00309802
0.0690997
0.00333325
0.0689937
0.00356628
0.0688698
0.00379695
0.068728