/*--------------------------------*- C++ -*----------------------------------*\
| =========                 |                                                 |
| \\      /  F ield         | OpenFOAM: The Open Source CFD Toolbox           |
|  \\    /   O peration     | Version:  v1912                                 |
|   \\  /    A nd           | Website:  www.openfoam.com                      |
|    \\/     M anipulation  |                                                 |
\*---------------------------------------------------------------------------*/
FoamFile
{
    version     2.0;
    format      ascii;
    class       volScalarField;
    location    "13";
    object      p;
}
// * * * * * * * * * * * * * * * * * * * * * * * * * * * * * * * * * * * * * //

dimensions      [0 2 -2 0 0 0 0];


internalField   nonuniform List<scalar> 
9600
(
-40.0137
-34.6887
-31.4057
-28.6138
-26.073
-23.7884
-21.7292
-19.8652
-18.1766
-16.6476
-15.2634
-14.0105
-12.8763
-11.849
-10.9175
-10.0721
-9.30368
-8.60404
-7.96533
-7.38568
-40.6447
-35.3071
-31.9944
-29.1669
-26.5886
-24.2673
-22.1738
-20.2787
-18.5624
-17.0089
-15.6033
-14.3318
-13.1813
-12.1396
-11.1955
-10.3388
-9.56023
-8.85123
-8.20362
-7.61678
-41.2789
-35.923
-32.5792
-29.7161
-27.0999
-24.7418
-22.6141
-20.6881
-18.9442
-17.3665
-15.9398
-14.6499
-13.4833
-12.4275
-11.4709
-10.603
-9.81446
-9.09617
-8.43972
-7.84585
-41.9132
-36.5362
-33.1599
-30.2605
-27.6062
-25.2113
-23.0494
-21.0925
-19.3213
-17.7197
-16.2721
-14.9641
-13.7816
-12.712
-11.7432
-10.8644
-10.0659
-9.33845
-8.67325
-8.07259
-42.5451
-37.1455
-33.7358
-30.7993
-28.1068
-25.6749
-23.4788
-21.4913
-19.6931
-18.0678
-16.5997
-15.2738
-14.0759
-12.9927
-12.0119
-11.1224
-10.3142
-9.57773
-8.90392
-8.29677
-43.1727
-37.7496
-34.3058
-31.3318
-28.6007
-26.1317
-23.9017
-21.8837
-20.0587
-18.4102
-16.9219
-15.5786
-14.3655
-13.269
-12.2765
-11.3766
-10.559
-9.81364
-9.13142
-8.51813
-43.7943
-38.3473
-34.869
-31.857
-29.087
-26.5811
-24.3172
-22.269
-20.4176
-18.7461
-17.2381
-15.8777
-14.6499
-13.5405
-12.5365
-11.6265
-10.7998
-10.0458
-9.35543
-8.73641
-44.4088
-38.9374
-35.4243
-32.3739
-29.565
-27.0221
-24.7244
-22.6464
-20.769
-19.075
-17.5477
-16.1706
-14.9284
-13.8064
-12.7915
-11.8716
-11.0361
-10.2739
-9.5756
-8.95131
-45.015
-39.5189
-35.9707
-32.8816
-30.0336
-27.4538
-25.1228
-23.0152
-21.1121
-19.3961
-17.8499
-16.4566
-15.2004
-14.0663
-13.0407
-12.1115
-11.2675
-10.4973
-9.79153
-9.1625
-45.6117
-40.0907
-36.5072
-33.3791
-30.4921
-27.8755
-25.5113
-23.3746
-21.4463
-19.7087
-18.144
-16.7349
-15.4651
-14.3193
-13.2836
-12.3453
-11.4933
-10.7156
-10.0027
-9.36955
-46.1981
-40.6519
-37.0329
-33.8657
-30.9396
-28.2864
-25.8893
-23.7239
-21.7708
-20.012
-18.4293
-17.0049
-15.722
-14.5649
-13.5193
-12.5725
-11.7128
-10.928
-10.2086
-9.57186
-46.7735
-41.2017
-37.5469
-34.3405
-31.3753
-28.6857
-26.256
-24.0622
-22.0848
-20.3053
-18.705
-17.2657
-15.97
-14.802
-13.7471
-12.7921
-11.9253
-11.1339
-10.4083
-9.76867
-47.3371
-41.7392
-38.0485
-34.8026
-31.7983
-29.0726
-26.6107
-24.3889
-22.3875
-20.5877
-18.9703
-17.5164
-16.2084
-15.0299
-13.9659
-13.0033
-12.1298
-11.3322
-10.6011
-9.95922
-47.8885
-42.2638
-38.5369
-35.2514
-32.2081
-29.4464
-26.9526
-24.7032
-22.6784
-20.8587
-19.2244
-17.7563
-16.4362
-15.2474
-14.1747
-13.2047
-12.3249
-11.5218
-10.7857
-10.1428
-48.4273
-42.7748
-39.0114
-35.6861
-32.6039
-29.8065
-27.2813
-25.0046
-22.9567
-21.1174
-19.4666
-17.9845
-16.6525
-15.4535
-14.3722
-13.3948
-12.509
-11.7006
-10.9603
-10.3175
-48.953
-43.2714
-39.4713
-36.1063
-32.9852
-30.1524
-27.596
-25.2926
-23.2219
-21.3634
-19.6962
-18.2002
-16.8563
-15.6472
-14.5571
-13.5724
-12.6804
-11.8668
-11.1224
-10.4788
-49.467
-43.7536
-39.9159
-36.5111
-33.3514
-30.4834
-27.8963
-25.5667
-23.4736
-21.5961
-19.9127
-18.4028
-17.047
-15.8275
-14.7286
-13.7365
-12.8386
-12.0201
-11.2709
-10.6237
-49.9736
-44.2225
-40.3446
-36.8996
-33.7014
-30.7989
-28.1818
-25.8264
-23.7114
-21.8152
-20.1157
-18.5918
-17.2235
-15.9932
-14.8848
-13.885
-12.9813
-12.1581
-11.4045
-10.7612
-50.4749
-44.6776
-40.7555
-37.2705
-34.035
-31.0989
-28.4525
-26.0721
-23.9358
-22.0211
-20.3056
-18.7672
-17.3857
-16.1429
-15.023
-14.0127
-13.0989
-12.2663
-11.5108
-10.8943
-50.9491
-45.1113
-41.148
-37.6244
-34.3533
-31.3848
-28.7101
-26.3054
-24.1483
-22.2156
-20.4841
-18.9312
-17.5358
-16.2793
-15.145
-14.1186
-13.1853
-12.3312
-11.5669
-10.9548
-55.6966
-55.6678
-55.6049
-55.5225
-55.4197
-55.2938
-55.1443
-54.9719
-54.7769
-54.56
-54.3216
-54.0624
-53.783
-53.4842
-53.1667
-52.8314
-52.4795
-52.1127
-51.7341
-51.3468
-49.4393
-49.437
-49.4049
-49.3489
-49.2695
-49.166
-49.0387
-48.8883
-48.7154
-48.5208
-48.3049
-48.0684
-47.812
-47.5362
-47.2418
-46.9295
-46.5999
-46.2537
-45.8915
-45.5113
-44.9431
-44.9623
-44.9554
-44.9231
-44.8666
-44.7865
-44.6836
-44.5584
-44.4117
-44.2438
-44.0556
-43.8474
-43.6199
-43.3737
-43.1092
-42.827
-42.5275
-42.2107
-41.8764
-41.5227
-40.8831
-40.9177
-40.9287
-40.9156
-40.8793
-40.8208
-40.7406
-40.6394
-40.5178
-40.3761
-40.215
-40.035
-39.8367
-39.6204
-39.3867
-39.1359
-38.8682
-38.5835
-38.2818
-37.9623
-37.154
-37.1969
-37.2186
-37.2185
-37.1969
-37.1544
-37.0918
-37.0096
-36.9082
-36.7882
-36.6501
-36.4944
-36.3215
-36.1318
-35.9259
-35.7039
-35.466
-35.2122
-34.9425
-34.6565
-33.8215
-33.8679
-33.8952
-33.9025
-33.89
-33.8582
-33.8078
-33.7392
-33.6529
-33.5494
-33.4291
-33.2927
-33.1404
-32.9727
-32.7901
-32.5927
-32.3807
-32.1542
-31.913
-31.6569
-30.8703
-30.9167
-30.9455
-30.9561
-30.9483
-30.9227
-30.8799
-30.8204
-30.7446
-30.6529
-30.5458
-30.4239
-30.2875
-30.1372
-29.9732
-29.796
-29.6056
-29.4021
-29.1853
-28.955
-28.2616
-28.3056
-28.3332
-28.344
-28.3379
-28.3153
-28.2767
-28.2227
-28.1537
-28.0701
-27.9724
-27.861
-27.7366
-27.5995
-27.4502
-27.289
-27.1161
-26.9316
-26.7353
-26.5269
-25.9557
-25.9958
-26.0207
-26.0299
-26.0234
-26.0015
-25.965
-25.914
-25.8491
-25.7708
-25.6795
-25.5757
-25.4601
-25.333
-25.195
-25.0465
-24.8877
-24.7189
-24.5397
-24.3499
-23.9139
-23.9495
-23.9708
-23.9774
-23.9693
-23.947
-23.9109
-23.8614
-23.7989
-23.7239
-23.6369
-23.5385
-23.4292
-23.3097
-23.1804
-23.0419
-22.8946
-22.7387
-22.574
-22.4001
-22.1003
-22.1312
-22.1487
-22.1523
-22.1422
-22.1186
-22.0821
-22.033
-21.9718
-21.8989
-21.8148
-21.7202
-21.6156
-21.5017
-21.3792
-21.2487
-21.1108
-20.9657
-20.8133
-20.6533
-20.4831
-20.5096
-20.5233
-20.5239
-20.5114
-20.4863
-20.449
-20.3998
-20.3392
-20.2675
-20.1855
-20.0935
-19.9924
-19.8829
-19.7656
-19.6415
-19.5113
-19.3754
-19.2339
-19.0864
-19.0352
-19.0575
-19.0677
-19.0653
-19.0507
-19.024
-18.9857
-18.9361
-18.8757
-18.8048
-18.7241
-18.6342
-18.5356
-18.4294
-18.3163
-18.1973
-18.0734
-17.9454
-17.8138
-17.6778
-17.7333
-17.7519
-17.7589
-17.7539
-17.7371
-17.709
-17.6697
-17.6197
-17.5593
-17.489
-17.4092
-17.3207
-17.2242
-17.1204
-17.0104
-16.8955
-16.7769
-16.6557
-16.533
-16.408
-16.5581
-16.5735
-16.5775
-16.5701
-16.5516
-16.522
-16.4819
-16.4314
-16.371
-16.3011
-16.2221
-16.1348
-16.0397
-15.9377
-15.8302
-15.7182
-15.6038
-15.4883
-15.3738
-15.2597
-15.4935
-15.5058
-15.5073
-15.4978
-15.4776
-15.4469
-15.406
-15.3552
-15.2948
-15.2251
-15.1468
-15.0603
-14.9662
-14.8656
-14.7597
-14.6498
-14.5383
-14.4272
-14.3202
-14.2166
-14.5257
-14.5353
-14.5345
-14.5232
-14.5016
-14.4699
-14.4283
-14.3771
-14.3166
-14.2472
-14.1693
-14.0833
-13.99
-13.8901
-13.7849
-13.676
-13.566
-13.4576
-13.3567
-13.2624
-13.6429
-13.6504
-13.6479
-13.6352
-13.6125
-13.58
-13.538
-13.4866
-13.4262
-13.3571
-13.2796
-13.1941
-13.1012
-13.0016
-12.8965
-12.7874
-12.6774
-12.5699
-12.4739
-12.3863
-12.8343
-12.8406
-12.8371
-12.824
-12.8011
-12.7688
-12.7273
-12.6768
-12.6174
-12.5496
-12.4735
-12.3895
-12.2981
-12.1998
-12.0955
-11.9866
-11.8759
-11.7681
-11.6773
-11.6003
-12.0943
-12.0976
-12.0918
-12.0769
-12.0529
-12.0201
-11.9786
-11.9287
-11.8704
-11.8041
-11.7299
-11.6481
-11.559
-11.4631
-11.3606
-11.2525
-11.1405
-11.0291
-10.933
-10.8761
-50.1307
-50.6347
-51.1052
-51.5643
-52.009
-52.4333
-52.8345
-53.2116
-53.5637
-53.8899
-54.1894
-54.4617
-54.7066
-54.9239
-55.1136
-55.2754
-55.4094
-55.5168
-55.5996
-55.6599
-43.7605
-44.2708
-44.7561
-45.2225
-45.6695
-46.0946
-46.4964
-46.8745
-47.2282
-47.5569
-47.8597
-48.1363
-48.3868
-48.6113
-48.81
-48.9826
-49.1279
-49.2461
-49.338
-49.4027
-39.2697
-39.7695
-40.2488
-40.7079
-41.1464
-41.5639
-41.9596
-42.3328
-42.6831
-43.0106
-43.3133
-43.591
-43.8442
-44.0722
-44.274
-44.4499
-44.6009
-44.7265
-44.8264
-44.8991
-35.3065
-35.7845
-36.2455
-36.6876
-37.1104
-37.5135
-37.8966
-38.259
-38.6002
-38.9188
-39.2152
-39.4876
-39.7375
-39.9643
-40.1674
-40.3468
-40.5027
-40.6348
-40.7425
-40.8253
-31.782
-32.2338
-32.671
-33.0911
-33.4931
-33.8769
-34.2418
-34.5873
-34.9127
-35.2173
-35.5016
-35.766
-36.0085
-36.229
-36.4279
-36.6047
-36.7595
-36.892
-37.0021
-37.0896
-28.7218
-29.1464
-29.5577
-29.9536
-30.3327
-30.6947
-31.0391
-31.3654
-31.6731
-31.9619
-32.2317
-32.4821
-32.7122
-32.922
-33.1123
-33.2825
-33.4318
-33.5604
-33.6683
-33.7556
-26.0736
-26.4716
-26.8575
-27.2289
-27.5848
-27.9245
-28.2477
-28.554
-28.843
-29.1142
-29.3675
-29.6024
-29.8188
-30.0164
-30.1944
-30.3554
-30.4971
-30.6193
-30.7222
-30.806
-23.7736
-24.1467
-24.5084
-24.8567
-25.1902
-25.5085
-25.8111
-26.0977
-26.3679
-26.6213
-26.8578
-27.0772
-27.2793
-27.464
-27.6311
-27.7792
-27.9118
-28.0263
-28.1226
-28.2012
-21.766
-22.1165
-22.4561
-22.7829
-23.0957
-23.394
-23.6772
-23.9452
-24.1975
-24.4339
-24.6543
-24.8586
-25.0465
-25.2181
-25.3733
-25.5119
-25.6328
-25.7387
-25.8278
-25.9002
-20.0035
-20.3336
-20.6533
-20.9608
-21.2547
-21.5346
-21.8
-22.0507
-22.2864
-22.5069
-22.7123
-22.9023
-23.0769
-23.236
-23.3795
-23.5075
-23.6198
-23.7163
-23.7978
-23.8638
-18.4463
-18.7583
-19.0603
-19.3504
-19.6274
-19.8906
-20.1397
-20.3746
-20.5951
-20.8011
-20.9925
-21.1694
-21.3316
-21.4791
-21.612
-21.73
-21.8333
-21.9217
-21.9959
-22.0556
-17.0621
-17.3579
-17.6444
-17.9192
-18.1809
-18.429
-18.6634
-18.8839
-19.0904
-19.2831
-19.4619
-19.6267
-19.7776
-19.9146
-20.0376
-20.1466
-20.2416
-20.3228
-20.3899
-20.4436
-15.8244
-16.1062
-16.3792
-16.6405
-16.8885
-17.1229
-17.3437
-17.5511
-17.745
-17.9255
-18.0926
-18.2465
-18.3872
-18.5146
-18.6287
-18.7295
-18.817
-18.8912
-18.952
-19.0003
-14.7121
-14.9815
-15.2432
-15.4926
-15.7281
-15.95
-16.1585
-16.3538
-16.536
-16.7053
-16.862
-17.0059
-17.1373
-17.256
-17.362
-17.4554
-17.5361
-17.6043
-17.66
-17.7028
-13.7079
-13.9669
-14.2191
-14.4579
-14.682
-14.8923
-15.0893
-15.2734
-15.4449
-15.604
-15.751
-15.8859
-16.0088
-16.1196
-16.2184
-16.3051
-16.3797
-16.4424
-16.4929
-16.5314
-12.7972
-13.0491
-13.2939
-13.5228
-13.7361
-13.9355
-14.1217
-14.2952
-14.4566
-14.6062
-14.7443
-14.8709
-14.9861
-15.0898
-15.182
-15.2627
-15.3318
-15.3895
-15.4355
-15.4701
-11.9629
-12.2143
-12.4554
-12.6748
-12.8775
-13.0664
-13.2423
-13.4059
-13.558
-13.6989
-13.8288
-13.9479
-14.0561
-14.1533
-14.2396
-14.3149
-14.3791
-14.4323
-14.4743
-14.5053
-11.1844
-11.4409
-11.6841
-11.8959
-12.0886
-12.2678
-12.4344
-12.5891
-12.7329
-12.8662
-12.9892
-13.1019
-13.2042
-13.2961
-13.3775
-13.4483
-13.5085
-13.5581
-13.597
-13.6255
-10.4694
-10.7213
-10.9674
-11.1756
-11.36
-11.5299
-11.6878
-11.8347
-11.9712
-12.0979
-12.2149
-12.3221
-12.4195
-12.5069
-12.5843
-12.6515
-12.7085
-12.7553
-12.7919
-12.8182
-9.93168
-10.1688
-10.3843
-10.584
-10.7582
-10.9131
-11.057
-11.1916
-11.3166
-11.4325
-11.5394
-11.6373
-11.726
-11.8054
-11.8753
-11.9357
-11.9866
-12.0278
-12.0594
-12.0813
-5.04238
-5.49689
-5.99929
-6.54735
-7.14789
-7.80867
-8.5378
-9.34518
-10.2433
-11.248
-12.3797
-13.6646
-15.1369
-16.8403
-18.8318
-21.1856
-23.9781
-27.229
-31.1535
-37.089
-5.2857
-5.75128
-6.26193
-6.81958
-7.43116
-8.10415
-8.84679
-9.66923
-10.5842
-11.6078
-12.7607
-14.0696
-15.5689
-17.3028
-19.3283
-21.7198
-24.5526
-27.8435
-31.8009
-37.7535
-5.53084
-6.00754
-6.52657
-7.09404
-7.7169
-8.40234
-9.15875
-9.99651
-10.9286
-11.9714
-13.1459
-14.479
-16.0056
-17.7703
-19.8302
-22.2593
-25.1319
-28.4619
-32.4506
-38.4159
-5.77733
-6.26513
-6.79264
-7.37013
-8.00448
-8.70259
-9.47297
-10.3263
-11.2757
-12.3379
-13.5341
-14.8918
-16.446
-18.2416
-20.3359
-22.8027
-25.7148
-29.0839
-33.1049
-39.0878
-6.02476
-6.52361
-7.05969
-7.64742
-8.29346
-9.00441
-9.78895
-10.6579
-11.6249
-12.7066
-13.9248
-15.3071
-16.889
-18.7158
-20.8446
-23.3489
-26.3007
-29.7089
-33.763
-39.7668
-6.27278
-6.78261
-7.32735
-7.92551
-8.58344
-9.30741
-10.1063
-10.9911
-11.9757
-13.0772
-14.3175
-15.7246
-17.3343
-19.1922
-21.3556
-23.8976
-26.8889
-30.3361
-34.4231
-40.4489
-6.5211
-7.0418
-7.59526
-8.20404
-8.87404
-9.61117
-10.4245
-11.3253
-12.3277
-13.449
-14.7115
-16.1435
-17.7812
-19.6703
-21.8683
-24.4479
-27.4786
-30.9645
-35.0839
-41.132
-6.76948
-7.30089
-7.86311
-8.48269
-9.1649
-9.9153
-10.7431
-11.6601
-12.6803
-13.8216
-15.1063
-16.5633
-18.229
-20.1494
-22.382
-24.999
-28.0689
-31.5931
-35.7442
-41.8146
-7.01777
-7.55969
-8.13068
-8.76119
-9.45571
-10.2195
-11.0619
-11.995
-13.0331
-14.1943
-15.5014
-16.9833
-18.677
-20.6286
-22.8957
-25.55
-28.6588
-32.2209
-36.403
-42.4956
-7.26593
-7.8181
-8.3978
-9.03933
-9.74622
-10.5233
-11.3804
-12.3296
-13.3856
-14.5667
-15.896
-17.4029
-19.1245
-21.1072
-23.4086
-26.1
-29.2473
-32.8469
-37.0591
-43.1735
-7.51405
-8.07611
-8.66439
-9.31696
-10.0362
-10.8267
-11.6982
-12.6634
-13.7372
-14.9382
-16.2897
-17.8214
-19.5708
-21.5845
-23.9199
-26.648
-29.8333
-33.4698
-37.7113
-43.8471
-7.76238
-8.33385
-8.93045
-9.59398
-10.3255
-11.1291
-12.015
-12.9961
-14.0876
-15.3082
-16.6817
-18.2381
-20.0151
-22.0595
-24.4287
-27.1931
-30.416
-34.0887
-38.3584
-44.5149
-8.0113
-8.59152
-9.19602
-9.87028
-10.6138
-11.4303
-12.3304
-13.3272
-14.436
-15.6761
-17.0714
-18.6522
-20.4566
-22.5314
-24.934
-27.7342
-30.994
-34.7024
-38.9992
-45.1759
-8.26141
-8.84941
-9.46113
-10.1457
-10.9008
-11.7299
-12.6438
-13.6559
-14.7819
-16.0412
-17.458
-19.063
-20.8944
-22.9993
-25.4349
-28.2704
-31.5665
-35.3097
-39.6326
-45.8287
-8.51328
-9.10764
-9.72561
-10.4199
-11.1861
-12.0273
-12.9547
-13.9818
-15.1246
-16.4027
-17.8407
-19.4695
-21.3276
-23.4622
-25.9303
-28.8004
-32.1322
-35.9096
-40.2575
-46.4725
-8.76746
-9.36609
-9.98892
-10.6921
-11.4689
-12.3217
-13.2621
-14.3039
-15.4632
-16.7598
-18.2187
-19.8709
-21.7553
-23.9191
-26.4191
-29.3233
-32.6899
-36.5008
-40.8728
-47.1063
-9.02336
-9.6233
-10.2494
-10.9608
-11.7478
-12.612
-13.5651
-14.6212
-15.7967
-17.1116
-18.591
-20.2663
-22.1764
-24.3689
-26.9003
-29.8377
-33.2383
-37.0821
-41.4778
-47.7296
-9.27927
-9.8761
-10.5041
-11.2239
-12.0214
-12.8969
-13.8626
-14.9329
-16.1243
-17.4571
-18.9566
-20.6545
-22.59
-24.8105
-27.3725
-30.3423
-33.776
-37.6519
-42.0713
-48.3426
-9.52669
-10.1157
-10.7472
-11.4783
-12.2875
-13.1748
-14.1533
-15.2378
-16.445
-17.7953
-19.3146
-21.0346
-22.9948
-25.2427
-27.8345
-30.8358
-34.3014
-38.2085
-42.6523
-48.9468
-9.74499
-10.3233
-10.9746
-11.7248
-12.547
-13.4458
-14.4369
-15.5353
-16.7579
-18.1255
-19.6641
-21.4057
-23.39
-25.6645
-28.2851
-31.3165
-34.8125
-38.7489
-43.2167
-49.5439
-1.1811
-1.44046
-1.79472
-2.19294
-2.62575
-3.09942
-3.6209
-4.19683
-4.83545
-5.54768
-6.34796
-7.25549
-8.29617
-9.50503
-10.9308
-12.6438
-14.728
-17.2369
-20.4596
-25.8851
-1.31492
-1.58815
-1.95702
-2.35852
-2.79274
-3.26974
-3.79598
-4.37773
-5.02335
-5.744
-6.55433
-7.47385
-8.52883
-9.75475
-11.2008
-12.9377
-15.0495
-17.588
-20.8375
-26.2723
-1.43951
-1.73441
-2.114
-2.52163
-2.9617
-3.44506
-3.97807
-4.56718
-5.22112
-5.95134
-6.77279
-7.70535
-8.77568
-10.0197
-11.4871
-13.2489
-15.3887
-17.9567
-21.2322
-26.6709
-1.58285
-1.88714
-2.2733
-2.68793
-3.13536
-3.62628
-4.16717
-4.76477
-5.42809
-6.16889
-7.00245
-7.949
-9.03561
-10.2987
-11.7883
-13.5758
-15.7446
-18.3432
-21.6479
-27.0996
-1.73621
-2.04633
-2.43873
-2.86055
-3.31558
-3.81446
-4.36385
-4.97069
-5.64423
-6.39647
-7.243
-8.20442
-9.30823
-10.5913
-12.1041
-13.9184
-16.1172
-18.7478
-22.0842
-27.5552
-1.8946
-2.21181
-2.61084
-3.03994
-3.50278
-4.01001
-4.56842
-5.18512
-5.86957
-6.63399
-7.4943
-8.47143
-9.59332
-10.8973
-12.4343
-14.2763
-16.5063
-19.1702
-22.5394
-28.0328
-2.05955
-2.38456
-2.79009
-3.22642
-3.69728
-4.2132
-4.78107
-5.40816
-6.1041
-6.88138
-7.75619
-8.74983
-9.89065
-11.2164
-12.7786
-14.6495
-16.9117
-19.6098
-23.0125
-28.5299
-2.23247
-2.56517
-2.97694
-3.42045
-3.89944
-4.42429
-5.00195
-5.63986
-6.34782
-7.13855
-8.02852
-9.0394
-10.1999
-11.5484
-13.1367
-15.0374
-17.3328
-20.0661
-23.5031
-29.0458
-2.41327
-2.75363
-3.17156
-3.62223
-4.10945
-4.64341
-5.23115
-5.88023
-6.60066
-7.40536
-8.31111
-9.33991
-10.5209
-11.8929
-13.5082
-15.4395
-17.7692
-20.5385
-24.0105
-29.5795
-2.60148
-2.94973
-3.37385
-3.83173
-4.32728
-4.87054
-5.46861
-6.12921
-6.86251
-7.68168
-8.60376
-9.65111
-10.8533
-12.2496
-13.8926
-15.8556
-18.2203
-21.0266
-24.5342
-30.1299
-2.79676
-3.1532
-3.58359
-4.04875
-4.55277
-5.10553
-5.71419
-6.38662
-7.13318
-7.96727
-8.90621
-9.97271
-11.1968
-12.6181
-14.2897
-16.2851
-18.6857
-21.5297
-25.0734
-30.6963
-2.99878
-3.36371
-3.80048
-4.27303
-4.78569
-5.34815
-5.96765
-6.65222
-7.41242
-8.26186
-9.21816
-10.3044
-11.5509
-12.9979
-14.6989
-16.7275
-19.1647
-22.0471
-25.6273
-31.2777
-3.20713
-3.58085
-4.02414
-4.50423
-5.02571
-5.59809
-6.22868
-6.92571
-7.6999
-8.56511
-9.53925
-10.6457
-11.9154
-13.3887
-15.1198
-17.1822
-19.6568
-22.5783
-26.1953
-31.8733
-3.42133
-3.80416
-4.25414
-4.74194
-5.27245
-5.85498
-6.49694
-7.20672
-7.99526
-8.87664
-9.86907
-10.9963
-12.2896
-13.79
-15.5517
-17.6488
-20.1614
-23.1224
-26.7766
-32.4825
-3.64088
-4.03314
-4.49
-4.98571
-5.52546
-6.1184
-6.77199
-7.49483
-8.29806
-9.19601
-10.2072
-11.3557
-12.6732
-14.2011
-15.9943
-18.1266
-20.6778
-23.679
-27.3707
-33.1044
-3.86528
-4.26727
-4.73121
-5.23504
-5.78429
-6.38788
-7.05338
-7.78959
-8.60785
-9.52275
-10.5531
-11.7233
-13.0656
-14.6216
-16.4467
-18.6148
-21.2053
-24.2471
-27.9767
-33.7385
-4.09402
-4.50603
-4.97726
-5.48944
-6.04844
-6.66294
-7.34063
-8.0905
-8.92414
-9.85635
-10.9062
-12.0987
-13.4661
-15.0509
-16.9084
-19.1129
-21.7431
-24.8261
-28.5941
-34.3843
-4.32659
-4.7489
-5.22761
-5.7484
-6.31739
-6.94308
-7.63324
-8.39707
-9.24639
-10.1963
-11.2661
-12.4811
-13.8743
-15.4881
-17.3786
-19.62
-22.2904
-25.415
-29.2221
-35.0418
-4.56249
-4.99533
-5.48174
-6.01138
-6.59064
-7.22777
-7.93066
-8.70875
-9.57406
-10.5419
-11.6321
-12.8701
-14.2893
-15.9327
-17.8566
-20.1353
-22.8462
-26.0129
-29.8599
-35.7116
-4.80126
-5.24484
-5.73917
-6.2779
-6.86768
-7.51652
-8.23242
-9.02503
-9.90663
-10.8928
-12.0036
-13.2649
-14.7105
-16.3839
-18.3415
-20.6578
-23.4095
-26.6181
-30.5048
-36.3946
-0.959138
-0.781893
-0.653668
-0.541528
-0.444935
-0.361395
-0.289854
-0.229556
-0.18002
-0.140884
-0.11186
-0.0927278
-0.0833713
-0.0835524
-0.0924674
-0.109856
-0.138474
-0.174485
-0.220092
-0.274399
-1.29126
-1.13526
-1.00342
-0.886898
-0.786324
-0.699185
-0.62451
-0.561513
-0.509685
-0.468643
-0.43808
-0.417755
-0.407511
-0.407123
-0.416065
-0.434118
-0.462228
-0.499433
-0.545937
-0.601401
-1.63305
-1.48455
-1.35312
-1.23589
-1.13373
-1.04499
-0.96892
-0.904831
-0.85224
-0.81077
-0.780116
-0.760032
-0.750321
-0.750752
-0.760971
-0.780867
-0.810776
-0.850302
-0.899249
-0.957421
-2.02853
-1.87935
-1.74579
-1.62634
-1.52136
-1.42985
-1.35128
-1.28507
-1.23076
-1.18801
-1.15651
-1.13601
-1.12629
-1.12711
-1.1382
-1.15946
-1.19098
-1.23241
-1.28365
-1.34446
-2.46318
-2.31286
-2.17658
-2.05423
-1.94604
-1.85142
-1.77
-1.7013
-1.64495
-1.6006
-1.56798
-1.54681
-1.53689
-1.53796
-1.54979
-1.57227
-1.60534
-1.64872
-1.70227
-1.7658
-2.93625
-2.78419
-2.64515
-2.51973
-2.40825
-2.31047
-2.22612
-2.15486
-2.09637
-2.05036
-2.01654
-1.99467
-1.98452
-1.98586
-1.99847
-2.02221
-2.05693
-2.10242
-2.15847
-2.22495
-3.45471
-3.29964
-3.15727
-3.02836
-2.91332
-2.81212
-2.72463
-2.6506
-2.58978
-2.54191
-2.50675
-2.48404
-2.47358
-2.47513
-2.48849
-2.51348
-2.54993
-2.59762
-2.65633
-2.72597
-4.02606
-3.86669
-3.7201
-3.58702
-3.4679
-3.36283
-3.27179
-3.19462
-3.13112
-3.08109
-3.0443
-3.02053
-3.00956
-3.01117
-3.02516
-3.05133
-3.08951
-3.13944
-3.20091
-3.27385
-4.65872
-4.49381
-4.34196
-4.20383
-4.07989
-3.97032
-3.87515
-3.79431
-3.72767
-3.67504
-3.63623
-3.61104
-3.59926
-3.60068
-3.61509
-3.64231
-3.68211
-3.73427
-3.79854
-3.8749
-5.36353
-5.19169
-5.03336
-4.8891
-4.7594
-4.64447
-4.5444
-4.45919
-4.38874
-4.33291
-4.29154
-4.26445
-4.25142
-4.25227
-4.2668
-4.29478
-4.33602
-4.39027
-4.4573
-4.53701
-6.15471
-5.97437
-5.80809
-5.65638
-5.5197
-5.3983
-5.29232
-5.20179
-5.12666
-5.06683
-5.02215
-4.99246
-4.97758
-4.97731
-4.99145
-5.01979
-5.06211
-5.11816
-5.18771
-5.27073
-7.05125
-6.86053
-6.68454
-6.52372
-6.37853
-6.24924
-6.13602
-6.03893
-5.95796
-5.89303
-5.84404
-5.81082
-5.79321
-5.79103
-5.80407
-5.83212
-5.87497
-5.93232
-6.00395
-6.0899
-8.07865
-7.87532
-7.68747
-7.51549
-7.35987
-7.22087
-7.0987
-6.99344
-6.90511
-6.83366
-6.77899
-6.74098
-6.71947
-6.71427
-6.72519
-6.75202
-6.79452
-6.8524
-6.92542
-7.01367
-9.27153
-9.05286
-8.85052
-8.66487
-8.4964
-8.34541
-8.21211
-8.09662
-7.99896
-7.91912
-7.85702
-7.81253
-7.78551
-7.77579
-7.78318
-7.80747
-7.8484
-7.90566
-7.97899
-8.06855
-10.678
-10.4408
-10.2208
-10.0183
-9.83407
-9.66825
-9.52111
-9.39277
-9.2833
-9.19268
-9.12084
-9.06768
-9.03306
-9.01682
-9.01876
-9.03867
-9.0763
-9.13129
-9.20337
-9.29275
-12.368
-12.1083
-11.8668
-11.6439
-11.4403
-11.2563
-11.092
-10.9476
-10.8233
-10.7189
-10.6344
-10.5698
-10.5249
-10.4996
-10.4935
-10.5067
-10.5387
-10.5892
-10.6579
-10.745
-14.4249
-14.1385
-13.8715
-13.6242
-13.3975
-13.1915
-13.0066
-12.8428
-12.7002
-12.5789
-12.4787
-12.3996
-12.3415
-12.3041
-12.2874
-12.2911
-12.315
-12.3588
-12.422
-12.5046
-16.9025
-16.586
-16.2898
-16.0148
-15.7617
-15.5308
-15.3224
-15.1364
-14.9729
-14.832
-14.7136
-14.6175
-14.5438
-14.4923
-14.4627
-14.455
-14.4689
-14.5043
-14.5604
-14.6357
-20.0926
-19.742
-19.4121
-19.1058
-18.8232
-18.5644
-18.3294
-18.118
-17.9303
-17.7661
-17.6255
-17.5083
-17.4144
-17.3439
-17.2963
-17.2715
-17.2693
-17.2899
-17.3332
-17.3978
-25.4643
-25.0729
-24.7131
-24.3817
-24.0765
-23.7967
-23.5416
-23.3112
-23.1052
-22.9238
-22.7668
-22.6343
-22.5262
-22.4427
-22.3836
-22.3489
-22.3392
-22.3567
-22.4026
-22.4665
-0.337113
-0.407886
-0.48664
-0.573219
-0.667465
-0.769195
-0.878211
-0.99429
-1.11718
-1.24657
-1.38209
-1.52325
-1.66932
-1.81918
-1.97134
-2.12369
-2.27191
-2.40668
-2.51254
-2.61056
-0.665667
-0.738309
-0.819214
-0.908193
-1.00507
-1.10965
-1.22171
-1.34102
-1.46729
-1.60018
-1.73929
-1.8841
-2.03386
-2.18752
-2.34355
-2.50041
-2.6564
-2.80393
-2.92719
-3.06387
-1.02472
-1.1007
-1.18525
-1.27815
-1.37922
-1.48823
-1.60497
-1.72916
-1.86051
-1.99866
-2.14318
-2.29352
-2.44899
-2.60861
-2.7711
-2.93531
-3.10034
-3.26179
-3.4131
-3.58163
-1.41476
-1.49409
-1.58232
-1.67924
-1.78462
-1.89824
-2.01986
-2.14918
-2.28589
-2.42963
-2.57993
-2.73626
-2.89795
-3.06411
-3.23374
-3.40596
-3.58001
-3.75348
-3.92613
-4.117
-1.83924
-1.92208
-2.0142
-2.11535
-2.22532
-2.34385
-2.47068
-2.60552
-2.74802
-2.89781
-3.05444
-3.21737
-3.38598
-3.5595
-3.73715
-3.91832
-4.10237
-4.28816
-4.47782
-4.68394
-2.30179
-2.38845
-2.48479
-2.59056
-2.70552
-2.82942
-2.96197
-3.10287
-3.25178
-3.4083
-3.57199
-3.74235
-3.9188
-4.10071
-4.28745
-4.47862
-4.67379
-4.87264
-5.07763
-5.29645
-2.80647
-2.89723
-2.99813
-3.10889
-3.22928
-3.35903
-3.49785
-3.64542
-3.80139
-3.96537
-4.13695
-4.31563
-4.50091
-4.69225
-4.88918
-5.0914
-5.29869
-5.51116
-5.73089
-5.96234
-3.35828
-3.45337
-3.55911
-3.67523
-3.80147
-3.93755
-4.08318
-4.23804
-4.40176
-4.57398
-4.75429
-4.94223
-5.13736
-5.3392
-5.54741
-5.76174
-5.9821
-6.20877
-6.44328
-6.68816
-3.96351
-4.06299
-4.17383
-4.29564
-4.42814
-4.57103
-4.72402
-4.88677
-5.05894
-5.24017
-5.43006
-5.62821
-5.83419
-6.04762
-6.26819
-6.49571
-6.73013
-6.97172
-7.22151
-7.48097
-4.62919
-4.73379
-4.85004
-4.97783
-5.11692
-5.26703
-5.42786
-5.59908
-5.78035
-5.97133
-6.17164
-6.38089
-6.59871
-6.82475
-7.05874
-7.30051
-7.55001
-7.80741
-8.07333
-8.34867
-5.36709
-5.47614
-5.59782
-5.7317
-5.87761
-6.03525
-6.20431
-6.38448
-6.57542
-6.7768
-6.98826
-7.20945
-7.44
-7.67961
-7.92802
-8.18506
-8.45064
-8.72481
-9.00788
-9.30047
-6.19011
-6.3036
-6.43049
-6.57048
-6.72324
-6.88853
-7.06606
-7.25549
-7.4565
-7.66878
-7.89199
-8.12579
-8.36983
-8.62383
-8.88753
-9.16074
-9.44334
-9.73523
-10.0365
-10.3477
-7.11714
-7.23468
-7.36638
-7.51203
-7.67162
-7.84454
-8.0304
-8.2291
-8.44032
-8.66375
-8.89905
-9.14589
-9.40395
-9.67292
-9.95258
-10.2427
-10.5431
-10.8535
-11.174
-11.505
-8.17437
-8.2951
-8.43096
-8.58156
-8.74696
-8.92781
-9.12119
-9.32883
-9.55
-9.7844
-10.0317
-10.2917
-10.5639
-10.8482
-11.1442
-11.4516
-11.7703
-12.0999
-12.4403
-12.7918
-9.39948
-9.52198
-9.66071
-9.81532
-9.9853
-10.1701
-10.3722
-10.5887
-10.8188
-11.0635
-11.3224
-11.5952
-11.8814
-12.1808
-12.493
-12.8177
-13.1548
-13.5037
-13.8642
-14.2368
-10.8506
-10.9728
-11.1124
-11.269
-11.4424
-11.632
-11.8379
-12.0601
-12.2992
-12.5536
-12.8235
-13.1083
-13.4077
-13.7211
-14.0484
-14.3896
-14.7444
-15.1122
-15.4924
-15.8856
-12.6063
-12.7255
-12.8633
-13.0194
-13.1937
-13.3859
-13.5956
-13.8227
-14.0674
-14.3299
-14.6089
-14.9034
-15.213
-15.5371
-15.8772
-16.2329
-16.6038
-16.989
-17.3877
-17.8
-14.7298
-14.8425
-14.9744
-15.126
-15.297
-15.4873
-15.6965
-15.9243
-16.1701
-16.4333
-16.7142
-17.0137
-17.3318
-17.6686
-18.022
-18.3917
-18.7773
-19.1786
-19.5945
-20.0241
-17.4793
-17.5797
-17.7013
-17.8448
-18.0095
-18.1951
-18.4012
-18.6273
-18.873
-19.1376
-19.421
-19.723
-20.0439
-20.3839
-20.7426
-21.1194
-21.5142
-21.9279
-22.3603
-22.8064
-22.522
-22.6041
-22.7134
-22.8476
-23.0049
-23.1842
-23.3849
-23.6065
-23.8486
-24.1108
-24.3929
-24.6949
-25.017
-25.3593
-25.7218
-26.1045
-26.5086
-26.938
-27.3953
-27.8624
-28.2944
-23.2579
-20.4668
-18.226
-16.2917
-14.6214
-13.1546
-11.8464
-10.6688
-9.60263
-8.6335
-7.75022
-6.94375
-6.20649
-5.53195
-4.91433
-4.34715
-3.82386
-3.35203
-2.95668
-28.7496
-23.7211
-20.921
-18.6629
-16.7083
-15.0159
-13.5267
-12.1966
-10.9983
-9.91287
-8.9262
-8.02725
-7.20706
-6.45816
-5.77419
-5.14947
-4.57808
-4.05679
-3.59764
-3.20521
-29.2291
-24.1989
-21.3881
-19.112
-17.1359
-15.4206
-13.9081
-12.5555
-11.3359
-10.2307
-9.22611
-8.31111
-7.47682
-6.71577
-6.02155
-5.3884
-4.81055
-4.28493
-3.82015
-3.41044
-29.7291
-24.6923
-21.8684
-19.5729
-17.5743
-15.835
-14.2984
-12.9225
-11.6809
-10.5554
-9.53233
-8.6007
-7.7516
-6.97743
-6.27159
-5.62809
-5.04094
-4.50648
-4.03056
-3.60416
-30.2463
-25.2006
-22.3617
-20.0454
-18.023
-16.2586
-14.6971
-13.2971
-12.0328
-10.8864
-9.84424
-8.89538
-8.0308
-7.24274
-6.52436
-5.86938
-5.27158
-4.72674
-4.2389
-3.79831
-30.779
-25.7228
-22.8675
-20.5291
-18.4816
-16.691
-15.1036
-13.6787
-12.3911
-11.2231
-10.1613
-9.19469
-8.31408
-7.51154
-6.78001
-6.11295
-5.50395
-4.94847
-4.44924
-3.99646
-31.3259
-26.2583
-23.3851
-21.0235
-18.9495
-17.1317
-15.5174
-14.0669
-12.7552
-11.5652
-10.4832
-9.49837
-8.60132
-7.78394
-7.03895
-6.3596
-5.73936
-5.17346
-4.66356
-4.19998
-31.8863
-26.8074
-23.9128
-21.5276
-19.4261
-17.58
-15.938
-14.461
-13.1248
-11.9121
-10.8096
-9.80618
-8.89242
-8.05999
-7.30141
-6.60976
-5.97841
-5.4024
-4.88241
-4.40896
-32.4596
-27.369
-24.4502
-22.0407
-19.9107
-18.0353
-16.3648
-14.8607
-13.4993
-12.2636
-11.1401
-10.1179
-9.18722
-8.33965
-7.56746
-6.86359
-6.2213
-5.63544
-5.10578
-4.62306
-33.045
-27.9416
-24.9973
-22.5621
-20.4027
-18.497
-16.7972
-15.2654
-13.8783
-12.6191
-11.4744
-10.4332
-9.48551
-8.62275
-7.83699
-7.12098
-6.46789
-5.87238
-5.33333
-4.84174
-33.6414
-28.5241
-25.5533
-23.0911
-20.9013
-18.9645
-17.2346
-15.6745
-14.2612
-12.9782
-11.8122
-10.7517
-9.787
-8.90903
-8.10975
-7.38168
-6.7179
-6.11285
-5.56458
-5.06436
-34.2481
-29.1157
-26.1176
-23.627
-21.4057
-19.437
-17.6763
-16.0874
-14.6476
-13.3405
-12.1529
-11.0732
-10.0913
-9.19814
-8.38537
-7.64532
-6.97092
-6.35639
-5.79899
-5.29031
-34.8641
-29.7154
-26.6891
-24.169
-21.9153
-19.9139
-18.1218
-16.5035
-15.0368
-13.7054
-12.496
-11.397
-10.398
-9.48966
-8.66344
-7.91146
-7.22648
-6.60249
-6.03601
-5.51899
-35.4888
-30.3225
-27.2671
-24.7164
-22.4293
-20.3944
-18.5703
-16.9222
-15.4283
-14.0724
-12.8411
-11.7227
-10.7066
-9.78311
-8.94349
-8.17962
-7.48409
-6.85065
-6.2751
-5.74984
-36.1212
-30.936
-27.8507
-25.2682
-22.9468
-20.8777
-19.0211
-17.3428
-15.8214
-14.4409
-13.1877
-12.0498
-11.0166
-10.078
-9.22503
-8.44931
-7.74326
-7.10035
-6.51573
-5.98232
-36.7606
-31.5548
-28.4387
-25.8235
-23.467
-21.363
-19.4734
-17.7646
-16.2155
-14.8102
-13.535
-12.3778
-11.3275
-10.3739
-9.50757
-8.72005
-8.00349
-7.35109
-6.7574
-6.21593
-37.4068
-32.1782
-29.0303
-26.3813
-23.9888
-21.8494
-19.9263
-18.1867
-16.6098
-15.1797
-13.8826
-12.706
-11.6387
-10.6701
-9.79058
-8.99131
-8.26428
-7.60239
-6.99963
-6.45021
-38.0615
-32.8061
-29.6241
-26.9403
-24.5112
-22.3358
-20.3789
-18.6084
-17.0036
-15.5486
-14.2296
-13.0338
-11.9496
-10.9662
-10.0735
-9.26258
-8.52512
-7.85376
-7.24195
-6.68472
-38.7254
-33.4375
-30.2186
-27.4991
-25.0329
-22.8213
-20.8304
-19.0289
-17.3962
-15.9164
-14.5756
-13.3607
-12.2597
-11.2615
-10.3559
-9.53333
-8.78552
-8.10472
-7.48391
-6.91904
-39.3858
-34.0677
-30.8124
-28.057
-25.5538
-23.3058
-21.2807
-19.448
-17.7873
-16.2829
-14.9203
-13.6864
-12.5687
-11.5559
-10.6373
-9.80327
-9.04516
-8.35493
-7.72516
-7.15285
-5.74661
-3.89027
-2.72582
-1.84786
-1.24931
-0.814516
-0.508065
-0.292842
-0.145143
-0.0466772
0.0160464
0.0531215
0.0721601
0.0788355
0.0773128
0.0707059
0.0612753
0.0506828
0.0401639
0.0306021
0.022728
0.0169955
0.0139344
0.0136578
0.0166356
0.022478
0.0316701
0.0430146
0.0570751
0.0713974
0.0863436
0.0981384
0.106603
0.10841
0.103006
0.0898106
0.0686941
0.0387434
0.0175725
-0.029761
-5.97014
-4.04893
-2.85533
-1.94975
-1.33039
-0.880246
-0.561754
-0.337248
-0.182182
-0.0777956
-0.0102276
0.0308548
0.0532488
0.0627611
0.0636511
0.0591053
0.0514394
0.0423587
0.0331355
0.0246819
0.0177505
0.0128189
0.0104312
0.0107192