/*--------------------------------*- C++ -*----------------------------------*\
| =========                 |                                                 |
| \\      /  F ield         | OpenFOAM: The Open Source CFD Toolbox           |
|  \\    /   O peration     | Version:  v1912                                 |
|   \\  /    A nd           | Website:  www.openfoam.com                      |
|    \\/     M anipulation  |                                                 |
\*---------------------------------------------------------------------------*/
FoamFile
{
    version     2.0;
    format      ascii;
    class       volVectorField;
    location    "66";
    object      U;
}
// * * * * * * * * * * * * * * * * * * * * * * * * * * * * * * * * * * * * * //

dimensions      [0 1 -1 0 0 0 0];


internalField   nonuniform List<vector> 
9600
(
(0.456545 -9.36162 -1.54173e-19)
(0.159769 -8.63235 0)
(0.242036 -8.15955 -9.05383e-20)
(0.32087 -7.84049 0)
(0.388264 -7.60547 0)
(0.456743 -7.41093 -3.18594e-20)
(0.522326 -7.2328 -5.50617e-22)
(0.58187 -7.05886 2.66343e-20)
(0.634604 -6.88374 0)
(0.680556 -6.70601 -4.51622e-20)
(0.720117 -6.5263 0)
(0.753914 -6.34616 -1.83088e-21)
(0.782686 -6.16738 -2.60773e-21)
(0.807188 -5.99166 -3.15614e-20)
(0.828146 -5.8204 2.66197e-20)
(0.846215 -5.65457 -2.6153e-20)
(0.861946 -5.49465 2.32869e-20)
(0.875885 -5.34055 0)
(0.888816 -5.19152 -1.85252e-20)
(0.900466 -5.04603 2.03065e-20)
(0.824479 -9.35124 -3.08447e-19)
(0.50223 -8.66048 1.17573e-20)
(0.5677 -8.2039 1.86497e-19)
(0.635035 -7.89436 -1.5897e-19)
(0.693427 -7.66394 1.56776e-19)
(0.753872 -7.4699 0)
(0.811585 -7.28946 6.07687e-20)
(0.863088 -7.11151 -6.06303e-20)
(0.907533 -6.9315 -1.0517e-19)
(0.945008 -6.74857 1.3303e-19)
(0.976014 -6.56375 -8.63717e-20)
(1.0013 -6.37884 -3.52658e-20)
(1.02172 -6.1958 7.11825e-20)
(1.03812 -6.01638 0)
(1.05128 -5.84201 0)
(1.06191 -5.67363 9.97923e-20)
(1.07055 -5.51172 -1.69195e-19)
(1.07777 -5.35611 0)
(1.08444 -5.20594 0)
(1.09002 -5.05958 -7.82131e-20)
(1.19276 -9.32733 6.37295e-19)
(0.846965 -8.67575 0)
(0.896922 -8.23559 -3.77375e-19)
(0.953499 -7.93566 -3.42063e-19)
(1.00319 -7.70982 0)
(1.05558 -7.51622 5.46696e-19)
(1.10519 -7.3335 -5.16136e-19)
(1.1483 -7.15164 1.0118e-19)
(1.18405 -6.96693 -2.25246e-19)
(1.21264 -6.77908 -3.74619e-19)
(1.23469 -6.58949 5.11414e-19)
(1.25111 -6.40021 -3.1621e-19)
(1.26287 -6.21332 -1.41723e-19)
(1.2709 -6.03063 0)
(1.27606 -5.85356 5.52967e-21)
(1.27907 -5.68307 1.05187e-19)
(1.2805 -5.51957 4.54738e-20)
(1.28092 -5.36285 0)
(1.28127 -5.21193 8.24356e-20)
(1.28068 -5.06511 8.44878e-20)
(1.56027 -9.28951 -8.62187e-19)
(1.19338 -8.67788 -4.04052e-19)
(1.22915 -8.25438 3.91902e-19)
(1.2757 -7.96406 6.73555e-19)
(1.31698 -7.74273 -3.26917e-19)
(1.36127 -7.54953 5.80674e-21)
(1.40254 -7.36455 2.5388e-19)
(1.4369 -7.17893 2.29964e-19)
(1.46355 -6.98976 4.21197e-19)
(1.48284 -6.7973 0)
(1.49557 -6.60334 1.62281e-19)
(1.50279 -6.41012 -1.72218e-19)
(1.5056 -6.21983 1.03542e-20)
(1.50504 -6.03431 2.71498e-19)
(1.50201 -5.855 2.32772e-19)
(1.49727 -5.68281 -3.28598e-19)
(1.49139 -5.51814 1.08217e-19)
(1.48496 -5.36071 -1.76222e-19)
(1.47897 -5.20942 1.75389e-19)
(1.47215 -5.06257 -8.45317e-20)
(1.92671 -9.23772 4.34825e-19)
(1.54119 -8.66671 0)
(1.56397 -8.26002 3.84886e-19)
(1.60113 -7.97924 0)
(1.63422 -7.76231 0)
(1.67034 -7.56948 -3.00487e-19)
(1.703 -7.3823 -5.3765e-19)
(1.72825 -7.19309 -4.55889e-19)
(1.74541 -6.99974 1.84514e-20)
(1.75501 -6.80305 -1.97014e-19)
(1.75806 -6.60513 0)
(1.75578 -6.40842 -1.62693e-19)
(1.7494 -6.2152 -2.93087e-19)
(1.74004 -6.02734 2.57755e-19)
(1.72866 -5.84624 -7.32536e-19)
(1.71606 -5.6728 1.18549e-19)
(1.7028 -5.50737 9.39725e-20)
(1.68949 -5.34963 -1.93773e-19)
(1.67718 -5.19837 -8.46705e-20)
(1.66408 -5.05193 2.52486e-19)
(2.29155 -9.17188 4.19603e-19)
(1.8899 -8.64202 4.1616e-19)
(1.90087 -8.25221 0)
(1.92922 -7.98088 0)
(1.95433 -7.76824 -6.24672e-19)
(1.98217 -7.57574 3.41394e-19)
(2.00593 -7.38646 8.21668e-19)
(2.0217 -7.19388 0)
(2.02898 -6.99666 2.17155e-19)
(2.02853 -6.79613 1.97014e-19)
(2.02158 -6.59472 -3.48086e-19)
(2.00953 -6.39502 5.04784e-19)
(1.99372 -6.19938 1.48132e-19)
(1.97539 -6.00966 0)
(1.95554 -5.82724 1.23321e-19)
(1.935 -5.65299 5.53603e-19)
(1.91431 -5.48723 -3.29876e-19)
(1.89413 -5.32959 3.70695e-19)
(1.87551 -5.17875 -7.04914e-19)
(1.85614 -5.03316 8.14907e-19)
(2.65424 -9.09195 4.26757e-19)
(2.23899 -8.6036 -2.2598e-18)
(2.23931 -8.23069 0)
(2.2594 -7.96866 0)
(2.27667 -7.7602 0)
(2.2961 -7.56803 -6.05999e-19)
(2.31067 -7.37678 0)
(2.31661 -7.18108 -9.714e-19)
(2.31363 -6.98036 8.96043e-19)
(2.30278 -6.77644 -8.32237e-19)
(2.28553 -6.57202 0)
(2.26344 -6.36984 0)
(2.23802 -6.17229 0)
(2.21057 -5.98123 -2.81631e-19)
(2.18216 -5.79798 0)
(2.15361 -5.62337 0)
(2.12548 -5.4577 -4.1341e-19)
(2.09844 -5.30056 4.06188e-19)
(2.07358 -5.15054 0)
(2.04796 -5.00626 0)
(3.01424 -8.99794 -1.38833e-18)
(2.58792 -8.55129 8.99679e-19)
(2.5787 -8.19521 0)
(2.59105 -7.94232 0)
(2.60059 -7.73793 0)
(2.61146 -7.54611 5.76402e-19)
(2.61655 -7.35304 -5.78159e-19)
(2.61228 -7.15451 -8.89975e-21)
(2.59869 -6.95069 -8.97192e-19)
(2.57712 -6.74385 8.40069e-19)
(2.54928 -6.53695 -3.79001e-19)
(2.51695 -6.33284 6.59066e-19)
(2.48175 -6.13393 -4.64229e-20)
(2.44507 -5.94203 -5.96243e-19)
(2.40802 -5.75845 -5.02562e-19)
(2.37143 -5.58394 4.93752e-19)
(2.33586 -5.41879 0)
(2.30199 -5.26256 0)
(2.27097 -5.11374 3.57333e-19)
(2.23917 -4.97123 -3.93228e-19)
(3.371 -8.88989 9.27918e-19)
(2.93613 -8.48495 8.83925e-19)
(2.91846 -8.14556 -1.67545e-18)
(2.92353 -7.90161 7.91445e-19)
(2.92543 -7.70119 0)
(2.92755 -7.50975 6.16783e-19)
(2.92285 -7.31506 -5.41495e-19)
(2.90803 -7.11404 1.53034e-18)
(2.88349 -6.90755 -2.3701e-20)
(2.85089 -6.6983 0)
(2.81222 -6.48947 7.64693e-19)
(2.76946 -6.284 0)
(2.72435 -6.08428 0)
(2.67836 -5.89209 -2.72777e-19)
(2.63262 -5.70866 5.50152e-19)
(2.58798 -5.53472 0)
(2.54497 -5.37053 4.31564e-19)
(2.50434 -5.2156 1.79674e-19)
(2.46725 -5.06836 -3.89818e-19)
(2.42935 -4.9281 3.78524e-19)
(3.72395 -8.76784 -9.55758e-19)
(3.28301 -8.40446 8.98352e-19)
(3.25796 -8.08155 -2.55859e-18)
(3.25617 -7.84634 8.04581e-19)
(3.25048 -7.64978 0)
(3.24368 -7.45879 -1.24494e-18)
(3.22887 -7.26271 5.98063e-19)
(3.20316 -7.05956 0)
(3.16735 -6.85089 -4.74872e-19)
(3.12345 -6.63977 -8.23686e-19)
(3.07374 -6.42958 -7.17783e-19)
(3.02039 -6.22332 5.3464e-20)
(2.96527 -6.02336 6.71345e-19)
(2.90989 -5.83143 2.72553e-19)
(2.85545 -5.64866 -3.79583e-20)
(2.80275 -5.47575 -5.13255e-19)
(2.75235 -5.31294 -2.29575e-19)
(2.70502 -5.1597 -2.06979e-19)
(2.66196 -5.01445 5.52161e-19)
(2.61809 -4.8769 -8.22766e-19)
(4.07255 -8.63188 9.5576e-19)
(3.62798 -8.30977 -4.66562e-20)
(3.59655 -8.00305 8.22487e-19)
(3.58831 -7.77632 0)
(3.57504 -7.58353 -6.81004e-19)
(3.55911 -7.39309 1.30857e-18)
(3.5339 -7.1959 -1.11864e-18)
(3.49698 -6.99102 1.10082e-18)
(3.4496 -6.78066 -4.46091e-19)
(3.39416 -6.56824 9.05545e-19)
(3.33322 -6.35729 3.92173e-19)
(3.26915 -6.15084 0)
(3.20393 -5.95123 0)
(3.13914 -5.76009 -2.82611e-19)
(3.07598 -5.5785 3.83768e-20)
(3.01525 -5.40708 1.01075e-18)
(2.95749 -5.24606 -2.50063e-19)
(2.90353 -5.09492 8.25969e-19)
(2.85461 -4.95202 1.4458e-19)
(2.80492 -4.81766 -8.40315e-19)
(4.41622 -8.48213 -2.94095e-18)
(3.97043 -8.20083 -9.87284e-19)
(3.9336 -7.90994 -2.63275e-18)
(3.91924 -7.69144 -1.60169e-18)
(3.89839 -7.50233 -7.59759e-19)
(3.87312 -7.31257 -7.42568e-19)
(3.83721 -7.11455 -2.42422e-18)
(3.78876 -6.90839 -4.90878e-20)
(3.72954 -6.69688 -1.9481e-18)
(3.66235 -6.48374 3.02297e-20)
(3.59003 -6.27264 -8.08891e-19)
(3.51515 -6.06661 -7.37117e-19)
(3.43979 -5.86793 6.7291e-19)
(3.36557 -5.67814 -6.15408e-19)
(3.29369 -5.49823 -5.63832e-19)
(3.22496 -5.32876 -5.17485e-19)
(3.15989 -5.16996 -1.38953e-18)
(3.09937 -5.0213 4.94345e-19)
(3.04471 -4.88113 1.19976e-18)
(2.98937 -4.75042 -1.2769e-18)
(4.75444 -8.31871 3.95581e-18)
(4.30976 -8.07764 4.86001e-18)
(4.26845 -7.80215 8.34909e-19)
(4.24828 -7.5916 4.00046e-18)
(4.21981 -7.40611 -7.84106e-19)
(4.18498 -7.21716 3.91819e-18)
(4.13807 -7.01865 1.14624e-18)
(4.07782 -6.81169 3.21796e-18)
(4.00652 -6.59957 -9.83629e-19)
(3.92739 -6.38632 2.72354e-18)
(3.84357 -6.17569 1.62931e-18)
(3.75781 -5.9707 1.4849e-18)
(3.67228 -5.77353 -2.01043e-18)
(3.58864 -5.58564 1.88335e-18)
(3.50807 -5.40792 1.13636e-18)
(3.43137 -5.24087 1.04318e-18)
(3.35903 -5.08471 9.59249e-19)
(3.29203 -4.93889 7.36909e-21)
(3.23174 -4.80182 8.14319e-19)
(3.17095 -4.67524 8.4746e-19)
(5.08666 -8.1418 -2.93764e-18)
(4.64539 -7.94023 1.0827e-18)
(4.60044 -7.67965 2.67862e-18)
(4.57471 -7.47675 -3.2635e-18)
(4.53857 -7.29482 7.54122e-19)
(4.49394 -7.10686 -2.62141e-18)
(4.43577 -6.90824 1.28482e-18)
(4.36346 -6.70095 -2.15317e-18)
(4.27987 -6.48881 4.90506e-20)
(4.18865 -6.27607 1.19568e-20)
(4.09324 -6.06653 -1.65181e-18)
(3.99655 -5.86318 -7.47779e-19)
(3.90085 -5.66812 1.37504e-18)
(3.8078 -5.48267 8.7653e-21)
(3.71858 -5.30764 -3.72047e-20)
(3.63394 -5.14346 -1.08877e-18)
(3.55437 -4.99034 -4.83511e-19)
(3.48094 -4.84775 -2.71584e-20)
(3.41512 -4.71414 -8.48681e-19)
(3.34911 -4.59221 -4.27981e-19)
(5.41238 -7.95158 0)
(4.97671 -7.78866 -2.00059e-18)
(4.92891 -7.54243 2.37618e-20)
(4.89783 -7.34686 3.25907e-18)
(4.85393 -7.16846 1.36419e-18)
(4.79929 -6.98172 -1.41998e-18)
(4.72959 -6.78336 -1.22334e-18)
(4.64499 -6.57628 0)
(4.54893 -6.36471 -9.7387e-19)
(4.44552 -6.1531 9.29452e-19)
(4.33847 -5.94528 -3.90843e-20)
(4.23084 -5.74417 0)
(4.12498 -5.55177 -6.92226e-19)
(4.02255 -5.36929 5.99633e-19)
(3.92469 -5.19743 5.00984e-19)
(3.83212 -5.03655 -6.04741e-19)
(3.74533 -4.88686 -5.24654e-19)
(3.66545 -4.74785 9.11122e-19)
(3.59411 -4.61809 -8.4087e-19)
(3.523 -4.50142 4.42594e-19)
(5.73114 -7.74822 3.03516e-18)
(5.30316 -7.62299 -2.06046e-18)
(5.2532 -7.39051 -1.7586e-18)
(5.21693 -7.20198 8.18823e-19)
(5.16516 -7.0271 -1.58858e-18)
(5.10029 -6.8418 0)
(5.01883 -6.64414 0)
(4.92173 -6.43779 0)
(4.81308 -6.22741 -4.44886e-20)
(4.6974 -6.01755 -1.86532e-18)
(4.57869 -5.81206 8.80983e-19)
(4.46015 -5.61377 7.45132e-19)
(4.34417 -5.42458 6.30589e-19)
(4.2324 -5.24557 -2.58762e-18)
(4.12594 -5.07733 1.22677e-18)
(4.02545 -4.92016 0)
(3.93137 -4.77426 -3.04422e-20)
(3.84493 -4.63915 -1.41314e-18)
(3.7679 -4.51358 -5.6994e-21)
(3.69165 -4.40251 -4.43085e-19)
(6.04258 -7.532 -2.06446e-18)
(5.62418 -7.44337 -1.0863e-18)
(5.57262 -7.22397 8.18631e-19)
(5.53128 -7.04216 -1.43943e-19)
(5.47153 -6.87081 -4.63101e-18)
(5.39622 -6.68723 4.1913e-18)
(5.30278 -6.49071 -4.88155e-20)
(5.19303 -6.28567 1.14806e-18)
(5.07169 -6.07707 1.03009e-18)
(4.94371 -5.86958 9.45889e-19)
(4.81337 -5.66702 8.60788e-19)
(4.68398 -5.47212 1.53841e-18)
(4.55795 -5.28665 -7.40465e-19)
(4.43693 -5.11159 1.91948e-18)
(4.32193 -4.94741 -1.24091e-18)
(4.21353 -4.79435 -5.13372e-19)
(4.11216 -4.65262 2.06199e-18)
(4.01906 -4.52174 1.37767e-18)
(3.93621 -4.40051 -2.7973e-20)
(3.85502 -4.2948 0)
(6.34667 -7.30341 -1.0497e-18)
(5.93938 -7.24997 2.07601e-18)
(5.88652 -7.04284 1.81764e-18)
(5.84015 -6.86746 -1.45922e-19)
(5.77229 -6.69969 -1.57125e-18)
(5.68633 -6.51814 7.06926e-20)
(5.58074 -6.32325 1.31834e-20)
(5.45823 -6.12009 1.17462e-20)
(5.32416 -5.9139 0)
(5.18392 -5.7094 9.25162e-19)
(5.04201 -5.51033 -1.76091e-18)
(4.90185 -5.31934 -7.53587e-19)
(4.76586 -5.13806 7.48116e-19)
(4.63562 -4.96736 -6.56455e-19)
(4.51209 -4.80764 6.07999e-19)
(4.39579 -4.65912 -5.53509e-19)
(4.28711 -4.52201 4.90126e-21)
(4.18744 -4.39567 -4.70256e-19)
(4.09903 -4.27882 -4.34417e-19)
(4.01369 -4.17915 -4.34715e-19)
(6.64375 -7.06292 0)
(6.2485 -7.04272 -1.01223e-18)
(6.19425 -6.84707 1.00062e-18)
(6.14278 -6.67795 1.74588e-18)
(6.06669 -6.51392 -1.57995e-18)
(5.96992 -6.33478 1.36495e-18)
(5.85205 -6.14205 -2.62452e-18)
(5.71672 -5.94138 -2.33075e-18)
(5.56995 -5.73821 -1.01684e-18)
(5.41754 -5.53728 4.44363e-20)
(5.26419 -5.34223 -8.42069e-19)
(5.11339 -5.15559 3.49355e-20)
(4.96753 -4.97885 0)
(4.82808 -4.81279 -1.28771e-18)
(4.69588 -4.65775 6.57147e-19)
(4.57132 -4.51399 0)
(4.45484 -4.38161 -5.14688e-19)
(4.34804 -4.25976 -9.25381e-19)
(4.25316 -4.14805 9.0928e-19)
(4.16263 -4.05914 4.48859e-19)
(6.93343 -6.80975 0)
(6.55092 -6.82091 0)
(6.49508 -6.63658 -1.85624e-18)
(6.43841 -6.47392 -1.59616e-18)
(6.35404 -6.3139 3.23958e-18)
(6.24636 -6.13758 0)
(6.11613 -5.94755 0)
(5.96799 -5.74997 1.17094e-18)
(5.80862 -5.55043 0)
(5.64421 -5.35363 0)
(5.47965 -5.1631 0)
(5.31847 -4.98119 0)
(5.16299 -4.80923 0)
(5.0145 -4.64789 0)
(4.87359 -4.49741 0)
(4.74036 -4.35798 0)
(4.61508 -4.22943 0)
(4.49882 -4.11112 0)
(4.39171 -4.00612 0)
(4.2876 -3.93171 0)
(10.0435 0.087741 1.47376e-19)
(10.023 -0.307649 2.86746e-19)
(9.9872 -0.700361 -2.94504e-19)
(9.93667 -1.09025 5.87181e-19)
(9.87114 -1.47698 -5.87181e-19)
(9.79049 -1.86005 -5.54881e-19)
(9.69481 -2.23891 -5.53332e-19)
(9.58433 -2.61303 1.74261e-18)
(9.45927 -2.98184 -1.16101e-18)
(9.3199 -3.3448 1.15128e-18)
(9.16649 -3.70135 -1.15128e-18)
(8.99935 -4.05098 1.14277e-18)
(8.81882 -4.39315 -2.26621e-18)
(8.62524 -4.72737 3.33732e-18)
(8.41898 -5.05315 0)
(8.20043 -5.37003 -3.27878e-18)
(7.96999 -5.67761 1.63552e-20)
(7.72817 -5.97552 3.30422e-18)
(7.47509 -6.26359 0)
(7.21242 -6.54116 0)
(10.1207 -0.210716 0)
(10.0794 -0.606835 -1.50435e-20)
(10.0213 -0.999151 0)
(9.94715 -1.38733 5.61915e-19)
(9.85711 -1.77094 5.8516e-19)
(9.7514 -2.14938 -1.69365e-18)
(9.63032 -2.52201 2.94855e-18)
(9.49422 -2.88822 -1.16397e-18)
(9.34347 -3.2474 -1.10954e-18)
(9.17846 -3.59897 -1.10501e-18)
(8.99961 -3.94236 4.45764e-20)
(8.80736 -4.27703 1.13215e-18)
(8.60217 -4.60244 -5.62829e-18)
(8.38453 -4.9181 -1.18026e-18)
(8.15492 -5.22356 2.24896e-18)
(7.91386 -5.51837 2.24593e-18)
(7.66182 -5.80216 1.14106e-18)
(7.39939 -6.07458 -2.20032e-18)
(7.12665 -6.33538 1.04198e-18)
(6.84456 -6.58421 0)
(10.0726 -0.149214 1.32716e-19)
(10.0347 -0.540901 -2.7178e-19)
(9.97952 -0.929412 7.84848e-19)
(9.90732 -1.31405 -5.56018e-19)
(9.81851 -1.69417 -5.30152e-19)
(9.71346 -2.06905 5.53503e-19)
(9.59254 -2.43797 0)
(9.45614 -2.80023 0)
(9.30469 -3.15517 2.10169e-18)
(9.13865 -3.50214 3.13533e-18)
(8.95847 -3.84054 -9.91652e-19)
(8.76466 -4.16975 3.10033e-18)
(8.55774 -4.48922 -9.87478e-19)
(8.33825 -4.79842 -3.01976e-18)
(8.10674 -5.09685 1.36261e-20)
(7.86377 -5.38403 1.93838e-18)
(7.60988 -5.65953 -8.74951e-19)
(7.34567 -5.92294 -1.90699e-18)
(7.07148 -6.17389 -1.03003e-18)
(6.78803 -6.41188 1.87416e-18)
(9.90654 -0.11249 0)
(9.87551 -0.49495 2.2914e-19)
(9.82721 -0.875063 2.28198e-19)
(9.76182 -1.25193 -9.37516e-19)
(9.67965 -1.62475 0)
(9.58107 -1.99275 0)
(9.46642 -2.35516 0)
(9.33609 -2.71123 0)
(9.19048 -3.06025 -9.92069e-19)
(9.03005 -3.40153 -9.88302e-19)
(8.85527 -3.7344 0)
(8.66664 -4.05822 1.86857e-18)
(8.4647 -4.37239 -4.61988e-18)
(8.24999 -4.67631 3.71479e-18)
(8.02309 -4.96945 -3.60061e-18)
(7.78459 -5.25128 -8.7369e-19)
(7.53506 -5.52131 1.56487e-19)
(7.27512 -5.77906 1.5489e-19)
(7.00528 -6.02408 -1.77937e-18)
(6.72628 -6.25589 -7.08919e-20)
(9.65355 -0.0990075 0)
(9.62995 -0.46924 -2.25983e-19)
(9.58949 -0.837781 0)
(9.53227 -1.20373 4.5209e-19)
(9.4585 -1.56624 4.30965e-19)
(9.36848 -1.92453 3.94008e-19)
(9.26251 -2.27782 0)
(9.14094 -2.62533 0)
(9.00414 -2.96633 0)
(8.85253 -3.30011 0)
(8.68654 -3.62595 8.13901e-19)
(8.50667 -3.94321 8.76858e-19)
(8.31342 -4.25122 8.71854e-19)
(8.10733 -4.54939 -8.8519e-19)
(7.88895 -4.8371 -1.52347e-18)
(7.65888 -5.11381 1.72929e-18)
(7.41769 -5.37898 3.35277e-18)
(7.16601 -5.63207 1.63078e-18)
(6.90442 -5.8726 0)
(6.63362 -6.10007 -1.53698e-18)
(9.34658 -0.0902064 4.64492e-20)
(9.32995 -0.446265 0)
(9.2971 -0.801204 -7.61183e-19)
(9.24803 -1.15417 1.82698e-23)
(9.18291 -1.50434 1.61789e-20)
(9.10196 -1.85092 -6.8554e-20)
(9.00545 -2.19315 0)
(8.89366 -2.53025 3.09423e-20)
(8.76692 -2.86149 -7.72729e-19)
(8.62561 -3.18614 1.50554e-18)
(8.47011 -3.50351 -1.56988e-18)
(8.30089 -3.81291 8.57634e-19)
(8.11839 -4.11369 -4.49564e-18)
(7.92314 -4.40521 2.96515e-18)
(7.71567 -4.68685 1.57177e-18)
(7.49652 -4.95803 0)
(7.26627 -5.21817 -2.90123e-18)
(7.02554 -5.46673 -6.15433e-20)
(6.77489 -5.70317 -2.85711e-18)
(6.515 -5.92697 2.96956e-18)
(9.01426 -0.0853975 4.17736e-20)
(9.00327 -0.426458 -8.75095e-20)
(8.9768 -0.766868 7.17495e-19)
(8.93481 -1.10583 -1.40785e-20)
(8.87741 -1.44255 7.17347e-19)
(8.80478 -1.77626 -1.08348e-18)
(8.71714 -2.10621 0)
(8.61472 -2.43167 7.30405e-19)
(8.49781 -2.75191 6.68782e-19)
(8.36674 -3.06622 -7.26314e-19)
(8.22185 -3.37391 1.32889e-18)
(8.06356 -3.67432 2.81725e-18)
(7.89228 -3.96677 -1.31021e-18)
(7.70849 -4.25065 -1.42015e-18)
(7.51268 -4.52532 1.36193e-18)
(7.30537 -4.79019 0)
(7.08711 -5.04468 6.49627e-20)
(6.85848 -5.2882 9.81678e-21)
(6.62004 -5.52022 2.70698e-18)
(6.37241 -5.74018 1.25852e-18)
(8.67785 -0.0842189 0)
(8.67092 -0.410326 6.26017e-21)
(8.64928 -0.736129 -1.46007e-19)
(8.61288 -1.06088 -6.48407e-19)
(8.56178 -1.38383 6.095e-19)
(8.49614 -1.70425 0)
(8.41612 -2.02142 1.24055e-18)
(8.32194 -2.33464 -1.36323e-21)
(8.21383 -2.64321 -1.89467e-18)
(8.09207 -2.94645 0)
(7.95699 -3.24371 -1.30774e-18)
(7.80895 -3.53431 4.60235e-20)
(7.64833 -3.81764 -3.67611e-18)
(7.47556 -4.09306 6.4787e-21)
(7.2911 -4.35998 1.2321e-18)
(7.09545 -4.61778 0)
(6.88912 -4.86588 -1.20931e-18)
(6.67266 -5.10371 8.7071e-21)
(6.44661 -5.33071 1.20061e-18)
(6.21154 -5.5463 -1.23847e-18)
(8.35123 -0.0853029 0)
(8.34692 -0.397039 1.49697e-19)
(8.32866 -0.708703 3.10587e-19)
(8.29638 -1.01959 -5.74903e-19)
(8.25014 -1.32901 -2.47374e-20)
(8.19006 -1.63627 -2.87319e-19)
(8.11627 -1.94068 -1.15017e-18)
(8.02895 -2.24159 5.7182e-19)
(7.92833 -2.53833 2.38273e-20)
(7.81464 -2.83026 5.68398e-19)
(7.68817 -3.11675 5.23263e-19)
(7.54925 -3.39717 2.26605e-18)
(7.39824 -3.67092 1.13348e-18)
(7.23553 -3.9374 2.23877e-18)
(7.06155 -4.19602 -1.11645e-18)
(6.87677 -4.44619 3.86866e-20)
(6.68168 -4.68735 -1.10327e-18)
(6.47679 -4.91892 0)
(6.26264 -5.14034 1.04288e-18)
(6.03974 -5.35102 0)
(8.04231 -0.0875235 6.51773e-20)
(8.03946 -0.38576 -1.90886e-19)
(8.02338 -0.684065 5.23564e-19)
(7.99399 -0.981783 -2.61196e-19)
(7.95133 -1.27826 1.89948e-20)
(7.89551 -1.57284 -2.61042e-19)
(7.82665 -1.86489 5.42688e-19)
(7.74491 -2.15379 -5.19384e-19)
(7.65046 -2.43892 5.19381e-19)
(7.54355 -2.71965 9.96149e-19)
(7.42442 -2.99541 -1.07339e-18)
(7.29338 -3.2656 -4.51283e-20)
(7.15077 -3.52965 -3.10703e-18)
(6.99694 -3.787 5.38146e-21)
(6.83231 -4.03708 4.03014e-20)
(6.65733 -4.27933 2.01422e-18)
(6.47246 -4.51322 -9.94959e-19)
(6.27821 -4.73816 -9.4772e-19)
(6.07509 -4.9536 -3.74678e-20)
(5.86358 -5.15893 0)
(7.75471 -0.090135 0)
(7.75247 -0.375864 2.42478e-19)
(7.73765 -0.661735 -8.33732e-19)
(7.71018 -0.947133 -2.21197e-19)
(7.6701 -1.23144 4.94684e-19)
(7.61748 -1.51405 0)
(7.55245 -1.79436 0)
(7.47514 -2.07179 4.72845e-19)
(7.38573 -2.34574 -4.72843e-19)
(7.28441 -2.61566 3.98338e-19)
(7.17145 -2.88097 -4.69796e-19)
(7.0471 -3.14114 9.31644e-19)
(6.91169 -3.39563 -1.85867e-18)
(6.76556 -3.64391 1.84907e-18)
(6.60911 -3.88545 3.46851e-20)
(6.44277 -4.11973 -9.50997e-19)
(6.26701 -4.34623 -9.0496e-19)
(6.08232 -4.5644 1.84344e-18)
(5.88921 -4.77367 8.62989e-19)
(5.68815 -4.97342 0)
(7.48921 -0.0926636 1.87896e-21)
(7.48702 -0.366885 1.59207e-19)
(7.47282 -0.641275 3.34257e-19)
(7.44657 -0.915256 2.33962e-19)
(7.40829 -1.18824 2.17034e-19)
(7.35807 -1.45967 2.01895e-19)
(7.296 -1.72896 0)
(7.22222 -1.99557 -8.34332e-19)
(7.13688 -2.25895 -4.30097e-19)
(7.04018 -2.51857 3.66933e-19)
(6.93236 -2.7739 0)
(6.81365 -3.02443 8.49488e-19)
(6.68438 -3.26966 -2.51241e-18)
(6.54487 -3.50912 8.45139e-19)
(6.3955 -3.74231 0)
(6.23671 -3.96876 -8.03572e-19)
(6.06895 -4.18796 -1.623e-18)
(5.89273 -4.3994 7.9863e-19)
(5.70861 -4.6025 -2.92213e-20)
(5.51701 -4.79663 0)
(7.24493 -0.0948104 3.46675e-21)
(7.24242 -0.358477 -1.03035e-19)
(7.22843 -0.622304 1.98839e-19)
(7.20292 -0.885749 -1.31305e-20)
(7.16591 -1.14826 3.97327e-19)
(7.11748 -1.4093 -6.10217e-19)
(7.05773 -1.66833 0)
(6.98678 -1.92483 5.60668e-20)
(6.90478 -2.17829 0)
(6.81191 -2.4282 -8.14562e-19)
(6.70839 -2.67407 0)
(6.59447 -2.91545 -7.51751e-19)
(6.47043 -3.15185 2.32344e-18)
(6.3366 -3.38286 -1.53962e-18)
(6.19335 -3.60801 7.67597e-19)
(6.0411 -3.82689 -6.79173e-19)
(5.88034 -4.03902 7.8446e-19)
(5.71159 -4.24395 -7.79096e-19)
(5.53546 -4.44106 0)
(5.3524 -4.62972 0)
(7.02008 -0.0964542 4.7148e-20)
(7.01707 -0.350414 0)
(7.00303 -0.604517 0)
(6.97795 -0.858245 -3.77757e-19)
(6.94185 -1.11107 -3.5257e-19)
(6.8948 -1.36249 0)
(6.83691 -1.61199 0)
(6.76827 -1.85908 4.98869e-20)
(6.68905 -2.10327 6.98202e-19)
(6.59941 -2.34409 -3.36716e-19)
(6.49956 -2.58109 -3.58741e-19)
(6.38973 -2.81382 1.44916e-18)
(6.27019 -3.04188 -2.15188e-18)
(6.14126 -3.26485 1.38766e-18)
(6.0033 -3.48235 0)
(5.85674 -3.69402 2.78781e-18)
(5.70209 -3.89941 -2.0241e-18)
(5.53987 -4.09817 6.88594e-19)
(5.37087 -4.28961 1.31693e-18)
(5.19547 -4.47316 0)
(6.81256 -0.0975303 -4.05362e-20)
(6.80893 -0.342537 0)
(6.79471 -0.587666 -5.22578e-21)
(6.76987 -0.832415 -3.24402e-19)
(6.73445 -1.07629 1.00521e-18)
(6.68851 -1.31879 -1.67214e-19)
(6.63215 -1.55945 0)
(6.56548 -1.79778 1.33203e-18)
(6.48864 -2.03334 -6.85975e-19)
(6.40178 -2.26567 4.45168e-20)
(6.30511 -2.49436 6.35745e-19)
(6.19884 -2.71899 6.51642e-19)
(6.08323 -2.93918 -1.29948e-18)
(5.95858 -3.15459 -1.27105e-18)
(5.82525 -3.36485 -1.24152e-18)
(5.68363 -3.56972 -1.32112e-18)
(5.53432 -3.76875 1.31212e-18)
(5.3778 -3.96179 -6.26393e-19)
(5.21513 -4.14799 -6.67473e-19)
(5.04659 -4.32699 0)
(6.62012 -0.0980183 3.98257e-20)
(6.61586 -0.334739 -1.49537e-19)
(6.60139 -0.571553 -1.54803e-19)
(6.5767 -0.807977 4.63524e-19)
(6.54183 -1.04354 -1.64609e-19)
(6.49684 -1.27776 -1.53868e-19)
(6.44182 -1.51019 0)
(6.37687 -1.74038 -6.32457e-19)
(6.30213 -1.9679 0)
(6.21775 -2.19231 6.27567e-19)
(6.12392 -2.41323 -1.20934e-18)
(6.02083 -2.63028 5.98649e-19)
(5.90873 -2.8431 -1.19362e-18)
(5.78788 -3.0514 1.23173e-18)
(5.65864 -3.25486 6.70404e-19)
(5.52139 -3.45335 0)
(5.37674 -3.64642 -5.78683e-19)
(5.22516 -3.83427 5.78683e-19)
(5.06813 -4.01571 0)
(4.9056 -4.19108 0)
(6.44064 -0.0980061 0)
(6.43577 -0.326999 1.46919e-19)
(6.42106 -0.556053 4.72647e-21)
(6.3965 -0.784706 -1.51488e-19)
(6.36213 -1.0125 -1.33587e-19)
(6.31801 -1.239 -1.41823e-19)
(6.26423 -1.46375 5.48156e-19)
(6.20088 -1.68633 0)
(6.1281 -1.90633 0)
(6.04602 -2.12334 2.78575e-19)
(5.95482 -2.337 2.95925e-19)
(5.85468 -2.54694 1.07105e-18)
(5.74582 -2.75285 -5.47254e-19)
(5.62848 -2.95448 5.47253e-19)
(5.50297 -3.15154 5.80946e-19)
(5.36964 -3.34405 3.39676e-20)
(5.22913 -3.53155 -1.067e-18)
(5.08181 -3.7148 3.78004e-21)
(4.92984 -3.8919 5.27724e-19)
(4.77236 -4.06486 0)
(6.27222 -0.0974966 -3.28385e-20)
(6.2668 -0.319285 3.2838e-20)
(6.2519 -0.541107 0)
(6.2275 -0.762514 1.23689e-19)
(6.19364 -0.98307 4.01775e-19)
(6.15038 -1.20235 -5.07801e-19)
(6.09782 -1.41993 -5.38581e-19)
(6.03604 -1.6354 0)
(5.96517 -1.84838 0)
(5.88533 -2.05847 0)
(5.79669 -2.26533 -9.94275e-19)
(5.69941 -2.46863 -6.41756e-20)
(5.59369 -2.66807 -5.04137e-19)
(5.47971 -2.86344 3.02097e-20)
(5.35776 -3.05449 -9.96991e-19)
(5.22807 -3.24139 1.51942e-18)
(5.09135 -3.42368 -1.43971e-18)
(4.94765 -3.60296 4.88722e-19)
(4.80025 -3.77624 9.36927e-19)
(4.64643 -3.94842 0)
(6.11314 -0.0961396 2.95022e-20)
(6.10728 -0.311396 0)
(6.09227 -0.526673 -1.21462e-19)
(6.06809 -0.741535 -2.50279e-19)
(6.03478 -0.955562 1.21309e-19)
(5.99241 -1.16834 9.68708e-19)
(5.94106 -1.37948 0)
(5.88081 -1.58859 -4.66554e-19)
(5.81178 -1.79529 -2.38627e-19)
(5.7341 -1.99922 -4.48296e-19)
(5.64789 -2.20005 -1.79374e-19)
(5.55332 -2.39747 -1.41533e-18)
(5.45054 -2.5912 -9.34206e-19)
(5.33968 -2.78104 9.60996e-19)
(5.22101 -2.96681 9.19872e-19)
(5.09452 -3.14873 -3.88492e-21)
(4.96103 -3.32646 2.99602e-20)
(4.81978 -3.50259 4.50318e-19)
(4.67589 -3.67331 -9.20625e-19)
(4.52261 -3.84852 0)
(5.96179 -0.0944678 -6.1695e-20)
(5.95563 -0.303469 3.03714e-20)
(5.94066 -0.512558 -1.21339e-19)
(5.91686 -0.721344 1.21283e-19)
(5.88424 -0.929434 -3.48827e-19)
(5.84286 -1.13644 -1.0862e-18)
(5.79278 -1.34197 0)
(5.73408 -1.54567 4.9365e-19)
(5.66685 -1.74717 -4.61581e-19)
(5.59118 -1.94612 9.77422e-19)
(5.5072 -2.14222 9.71618e-19)
(5.415 -2.33515 1.4315e-18)
(5.31472 -2.52465 -9.28884e-19)
(5.2064 -2.71051 4.62681e-19)
(5.09028 -2.89257 -4.55024e-19)
(4.96599 -3.07101 4.55047e-19)
(4.83465 -3.24559 0)
(4.69353 -3.41952 4.11996e-19)
(4.5517 -3.58861 -4.03178e-19)
(4.39398 -3.7751 0)
(7.14018 7.26217 0)
(7.42015 6.97236 0)
(7.68722 6.67297 1.08764e-18)
(7.9421 6.3645 2.02668e-20)
(8.1842 6.04667 -1.15069e-18)
(8.41288 5.71954 0)
(8.62771 5.38351 1.18747e-18)
(8.82836 5.03912 -2.24042e-18)
(9.01453 4.68694 -1.13225e-18)
(9.18592 4.32758 -1.14284e-18)
(9.34226 3.96168 1.14283e-18)
(9.48332 3.58989 -1.15494e-18)
(9.60893 3.21289 5.76107e-19)
(9.71887 2.8314 5.49879e-19)
(9.81299 2.44606 5.52029e-19)
(9.89123 2.05756 -5.85839e-19)
(9.95358 1.66655 5.85839e-19)
(10.0001 1.27373 -2.94098e-19)
(10.0307 0.879507 -1.39702e-19)
(10.046 0.485226 7.3581e-20)
(7.41713 7.07047 0)
(7.69732 6.78105 -9.96689e-19)
(7.96372 6.48005 -2.13085e-18)
(8.21662 6.16817 3.15112e-18)
(8.45578 5.84571 -2.18518e-18)
(8.68069 5.51313 2.19596e-18)
(8.89086 5.17104 1.19384e-18)
(9.08589 4.82011 -3.3878e-18)
(9.26539 4.46101 1.10829e-18)
(9.42899 4.09448 2.20324e-18)
(9.57639 3.72122 1.08551e-18)
(9.70734 3.34201 1.09239e-18)
(9.82167 2.95764 -1.15273e-18)
(9.91917 2.56882 1.69743e-18)
(9.99954 2.17637 -2.35498e-18)
(10.0627 1.78114 5.81287e-19)
(10.1087 1.38394 -5.58584e-19)
(10.1376 0.985596 0)
(10.1492 0.58663 1.51573e-20)
(10.144 0.188026 0)
(7.27421 6.94577 -1.75504e-18)
(7.55723 6.67374 9.85286e-19)
(7.8277 6.38886 1.80237e-18)
(8.08518 6.09178 8.15976e-19)
(8.32923 5.78308 2.04348e-18)
(8.55935 5.46337 2.00457e-20)
(8.77498 5.13333 -1.02427e-18)
(8.97566 4.79364 -3.05257e-18)
(9.16092 4.44503 3.01372e-18)
(9.33033 4.08822 -3.09363e-18)
(9.4835 3.72395 -1.03066e-18)
(9.62013 3.35299 -2.06207e-18)
(9.7399 2.97615 0)
(9.84261 2.59421 0)
(9.92811 2.20807 0)
(9.99623 1.81863 -5.2562e-19)
(10.0468 1.42673 5.50489e-19)
(10.0798 1.03324 5.27316e-19)
(10.0952 0.638859 6.27067e-21)
(10.0928 0.244561 1.32439e-19)
(7.04697 6.69374 1.82272e-18)
(7.32673 6.44038 -1.65529e-18)
(7.59514 6.1739 -1.69641e-19)
(7.85148 5.89483 -1.70602e-19)
(8.09519 5.60375 4.3033e-18)
(8.32571 5.30126 -7.12683e-20)
(8.54249 4.98799 3.77776e-21)
(8.745 4.66461 -2.72133e-18)
(8.93275 4.33179 1.79552e-18)
(9.10526 3.99022 0)
(9.26204 3.64067 9.63029e-19)
(9.40274 3.28399 9.69694e-19)
(9.52708 2.92095 0)
(9.63476 2.55239 0)
(9.72555 2.17912 0)
(9.79926 1.80198 0)
(9.85569 1.42176 -2.17162e-20)
(9.89472 1.03935 4.74814e-19)
(9.91623 0.655549 -2.28013e-19)
(9.92023 0.271317 0)
(6.78433 6.37898 1.5438e-18)
(7.05623 6.14349 0)
(7.31789 5.89505 -4.54554e-18)
(7.56853 5.63409 -1.54937e-18)
(7.80749 5.36113 -1.62815e-18)
(8.0342 5.07673 -1.72591e-18)
(8.24809 4.78147 8.15441e-19)
(8.4486 4.47594 -8.56992e-19)
(8.63521 4.16079 2.37966e-18)
(8.80747 3.83669 -7.79055e-19)
(8.96494 3.50441 0)
(9.10714 3.16471 0)
(9.23368 2.81825 0)
(9.34428 2.46585 0)
(9.43868 2.1083 -1.23028e-18)
(9.51663 1.74642 4.23033e-19)
(9.57791 1.381 -4.46859e-19)
(9.62235 1.01289 0)
(9.64983 0.642928 2.24872e-19)
(9.66027 0.272003 0)
(6.50939 6.05174 1.32076e-18)
(6.77106 5.83239 -4.79982e-20)
(7.02344 5.60052 2.77815e-18)
(7.26572 5.35645 1.38797e-18)
(7.49726 5.10065 0)
(7.71747 4.83363 -1.47389e-18)
(7.92578 4.55591 6.85324e-20)
(8.12165 4.26806 -1.49629e-18)
(8.30455 3.97067 2.07008e-18)
(8.474 3.66438 3.27469e-20)
(8.62959 3.34983 2.8123e-20)
(8.77084 3.02765 -7.46678e-19)
(8.89735 2.69858 1.4644e-18)
(9.00881 2.36336 0)
(9.10495 2.02272 6.85895e-20)
(9.18547 1.67747 7.47649e-19)
(9.25009 1.3284 1.63937e-21)
(9.29863 0.976277 -1.53506e-20)
(9.33098 0.62191 0)
(9.34698 0.266132 -4.63526e-20)
(6.24354 5.7347 0)
(6.49387 5.52933 -4.8925e-20)
(6.73566 5.31196 1.75846e-20)
(6.96815 5.08288 -2.51144e-18)
(7.1907 4.84248 0)
(7.40274 4.59123 1.27021e-18)
(7.60371 4.3296 1.35295e-18)
(7.79311 4.05812 -3.93633e-18)
(7.97041 3.77731 -6.83038e-20)
(8.13515 3.48777 -1.26399e-18)
(8.28689 3.19007 6.95951e-19)
(8.4252 2.88483 -6.42896e-19)
(8.5497 2.57274 -7.06727e-19)
(8.66 2.25447 0)
(8.75586 1.93075 3.72849e-19)
(8.83707 1.60219 -1.69145e-20)
(8.90326 1.26964 -3.46136e-19)
(8.95418 0.933851 -1.67764e-20)
(8.98975 0.595558 -8.71319e-20)
(9.00979 0.255537 1.74637e-19)
(5.99799 5.43946 0)
(6.23673 5.24594 1.08601e-18)
(6.46753 5.04099 1.61921e-20)
(6.68966 4.82486 -1.10217e-18)
(6.90251 4.5979 0)
(7.10554 4.36053 1.14665e-18)
(7.29823 4.11319 -1.09479e-18)
(7.48007 3.85634 -1.21194e-18)
(7.65059 3.59048 2.30531e-18)
(7.80934 3.31615 1.24389e-18)
(7.9559 3.0339 0)
(8.08986 2.74432 6.06722e-19)
(8.21085 2.44802 -4.39275e-21)
(8.31854 2.14566 2.18736e-20)
(8.41252 1.8379 0)
(8.49266 1.52537 -5.9722e-19)
(8.55878 1.20868 -3.12881e-19)
(8.61049 0.888657 4.57142e-19)
(8.64765 0.566017 3.08221e-19)
(8.67011 0.241473 -4.11979e-20)
(5.77642 5.17097 0)
(6.0039 4.98743 -9.38011e-19)
(6.22389 4.79303 0)
(6.43572 4.588 -1.01202e-18)
(6.63879 4.37264 1.99246e-18)
(6.83261 4.14734 -2.03198e-18)
(7.01667 3.9125 3.17961e-18)
(7.19053 3.66854 -3.17047e-18)
(7.35372 3.41593 -2.14208e-18)
(7.50582 3.15517 -1.57993e-18)
(7.64644 2.88678 5.4178e-19)
(7.7752 2.61133 -1.12321e-18)
(7.89173 2.32937 1.8655e-20)
(7.99573 2.04152 1.11654e-18)
(8.08689 1.74836 -2.80896e-19)
(8.16484 1.45062 1.15069e-18)
(8.22949 1.14879 -5.65953e-19)
(8.28068 0.843565 2.6076e-19)
(8.31813 0.535692 -1.48706e-19)
(8.34165 0.225834 0)
(5.57856 4.92961 0)
(5.79543 4.75452 1.81468e-18)
(6.00515 4.56913 8.80267e-19)
(6.20709 4.37364 -9.06098e-19)
(6.4007 4.16832 -1.85614e-18)
(6.58551 3.9535 2.82447e-18)
(6.76106 3.72956 1.12976e-20)
(6.92693 3.4969 -9.20655e-19)
(7.08269 3.25596 1.97647e-18)
(7.22795 3.00722 1.02078e-18)
(7.36234 2.75117 -9.53697e-19)
(7.4855 2.48833 5.00775e-19)
(7.5971 2.21925 2.25468e-20)
(7.69683 1.94448 -5.26933e-19)
(7.78441 1.66461 -2.55344e-19)
(7.85955 1.38021 5.12e-19)
(7.92202 1.09198 -2.56655e-19)
(7.9717 0.800425 -5.17923e-19)
(8.00844 0.50622 6.00169e-20)