/*--------------------------------*- C++ -*----------------------------------*\
  =========                 |
  \\      /  F ield         | OpenFOAM: The Open Source CFD Toolbox
   \\    /   O peration     | Website:  https://openfoam.org
    \\  /    A nd           | Version:  6.0
     \\/     M anipulation  |
\*---------------------------------------------------------------------------*/
FoamFile
{
    version     2.0;
    format      ascii;
    class       surfaceScalarField;
    location    "24.745";
    object      phi;
}
// * * * * * * * * * * * * * * * * * * * * * * * * * * * * * * * * * * * * * //

dimensions      [0 3 -1 0 0 0 0];

internalField   nonuniform List<scalar> 
4670
(
-0.000187158
-0.0216632
0.0218503
-0.000513557
-0.0167954
0.0171218
-0.000854964
-0.0131783
0.0135197
-0.00114288
-0.0105012
0.0107891
-0.00134332
-0.00851496
0.0087154
-0.00144574
-0.00702676
0.00712919
-0.00145607
-0.00589077
0.0059011
-0.00139212
-0.00499874
0.00493478
-0.00128074
-0.00427098
0.0041596
-0.00365016
0.00352481
-0.00115539
-0.00017201
-0.0214911
-0.000447635
-0.0165198
-0.000697047
-0.0129289
-0.000850894
-0.0103473
-0.000875918
-0.00848993
-0.000762527
-0.00714015
-0.000517856
-0.00613544
-0.000161897
-0.0053547
0.000274418
-0.0047073
-0.00412661
0.000750866
-0.000148218
-0.0213429
-0.000345577
-0.0163224
-0.000461687
-0.0128128
-0.000428757
-0.0103802
-0.000214969
-0.00870372
0.000188789
-0.00754391
0.000775528
-0.00672218
0.0015248
-0.00610397
0.00240274
-0.00558524
-0.00508552
0.00336165
-0.000114368
-0.0212286
-0.000206521
-0.0162303
-0.000149532
-0.0128698
0.000119635
-0.0106494
0.000629541
-0.00921362
0.00138839
-0.00830276
0.00239037
-0.00772415
0.0036168
-0.00733041
0.00503346
-0.00700189
-0.0066381
0.00658604
-6.93739e-05
-0.0211592
-2.81313e-05
-0.0162715
0.000242189
-0.0131401
0.000795663
-0.0112029
0.00165436
-0.0100723
0.00282359
-0.00947199
0.0042985
-0.00919906
0.00606438
-0.00909629
0.00809076
-0.00902827
-0.00886767
0.0103203
-1.15743e-05
-0.0211476
0.000193814
-0.0164769
0.000720078
-0.0136664
0.00160716
-0.01209
0.00286584
-0.011331
0.00449422
-0.0111004
0.00648559
-0.0111904
0.00882963
-0.0114403
0.0115048
-0.0117035
-0.0118208
0.014458
6.11102e-05
-0.0212087
0.00046444
-0.0168802
0.00129258
-0.0144945
0.00256587
-0.0133633
0.00427795
-0.0130431
0.00641292
-0.0132353
0.0089552
-0.0137327
0.0118944
-0.0143795
0.0152212
-0.0150303
-0.0154985
0.0188988
0.000150497
-0.0213592
0.000787387
-0.0175171
0.00196516
-0.0156723
0.00367991
-0.015078
0.00590265
-0.0152658
0.00859536
-0.015928
0.0117221
-0.0168594
0.0152594
-0.0179168
0.0192058
-0.0189767
-0.0198635
0.0235708
0.000257408
-0.0216166
0.0011617
-0.0184214
0.00273367
-0.0172443
0.0049432
-0.0172875
0.00773647
-0.0180591
0.0110482
-0.0192397
0.0148097
-0.0206209
0.018961
-0.0220682
0.0234856
-0.0235012
-0.0248887
0.0285107
0.000381642
-0.0219983
0.00157783
-0.0196176
0.003575
-0.0192414
0.00631884
-0.0200314
0.00973744
-0.0214777
0.0137505
-0.0232528
0.0182708
-0.0251413
0.0231963
-0.0269936
0.0284107
-0.0287157
-0.0303421
0.0338642
0.0302266
0.00118627
-0.0314129
0.0290358
0.00119083
0.0278673
0.00116852
0.0267466
0.00112072
0.0256958
0.0010508
0.0247329
0.000962864
0.0238719
0.000860956
0.0231236
0.000748385
0.0224963
0.000627285
0.000498006
0.0402076
0.00370661
-0.0427279
0.037569
0.00382942
0.0348826
0.00385487
0.032216
0.00378736
0.0296315
0.0036353
0.0271846
0.00340975
0.024923
0.00312257
0.0228868
0.00278451
0.0211098
0.00240431
0.00199024
0.0490037
0.00687674
-0.0521738
0.0455644
0.00726868
0.0419492
0.00747009
0.0382539
0.00748267
0.034573
0.00731622
0.0309958
0.00698696
0.0276041
0.00651429
0.0244715
0.00591707
0.0216645
0.00521128
0.00441334
0.0562708
0.0102193
-0.0596133
0.0525067
0.0110327
0.0484188
0.011558
0.0441153
0.0117862
0.0397101
0.0117214
0.0353176
0.0113795
0.0310484
0.0107835
0.0270085
0.00995698
0.0233015
0.00891824
0.00768346
0.0619549
0.0134205
-0.0651562
0.0582025
0.0147851
0.0539863
0.0157742
0.0494115
0.0163609
0.0445969
0.0165359
0.0396691
0.0163073
0.034757
0.0156956
0.0299913
0.0147227
0.025511
0.0133985
0.0117168
0.0661735
0.0162993
-0.0690523
0.0626501
0.0183085
0.0585492
0.0198752
0.0539608
0.0209494
0.0489947
0.021502
0.0437754
0.0215266
0.0384356
0.0210354
0.0331158
0.0200425
0.0279787
0.0185355
0.0164428
0.0691287
0.0187744
-0.0716039
0.0659554
0.0214819
0.0621263
0.0237042
0.0577088
0.0253669
0.0527936
0.0264172
0.0474901
0.0268301
0.0419185
0.026607
0.0362073
0.0257537
0.0305167
0.0242262
0.0218182
0.0710467
0.0208335
-0.0731058
0.0682723
0.0242562
0.0648013
0.0271752
0.060676
0.0294923
0.0559628
0.0311303
0.0507481
0.0320449
0.0451257
0.0322294
0.0391847
0.0316947
0.0330307
0.0303801
0.0278554
0.0721374
0.0225064
-0.0738103
0.0697617
0.0266319
0.0666823
0.0302546
0.0629191
0.0332555
0.0585152
0.0355342
0.0535325
0.0370276
0.0480347
0.0377272
0.0420516
0.0376778
0.0355468
0.0368849
0.0346865
0.0725704
-0.0739111
0.0238471
0.0705602
0.0286421
0.0678672
0.0329477
0.064495
0.0366276
0.0604691
0.0395601
0.0558337
0.041663
0.0506357
0.0429251
0.0448718
0.0434418
0.0383482
0.0434085
0.0426925
0.0367755
-0.000324803
-0.0364507
0.036898
-0.000122567
0.0368137
8.43364e-05
0.0365254
0.000288273
0.0360424
0.000482981
0.0353799
0.000662572
0.0345583
0.000821603
0.033603
0.000955312
0.0325433
0.00105965
0.00113042
0.0509308
-0.00149835
-0.0497572
0.0516778
-0.00086965
0.0519866
-0.000224464
0.0518516
0.000423313
0.0512767
0.00105788
0.0502769
0.00166239
0.0488787
0.00221974
0.0471205
0.00271359
0.045051
0.00312914
0.00345348
0.0589526
-0.00346611
-0.0569849
0.0604053
-0.00232239
0.0613161
-0.00113525
0.0616634
7.60585e-05
0.0614351
0.00128619
0.0606314
0.0024661
0.0592664
0.00358468
0.0573696
0.0046104
0.0549857
0.0055131
0.00626531
0.0629384
-0.00607088
-0.0603336
0.0650214
-0.00440536
0.0665412
-0.00265511
0.06746
-0.000842733
0.0677483
0.000997891
0.067388
0.00282637
0.0663748
0.00459795
0.0647196
0.0062656
0.0624505
0.00778219
0.00910249
0.0643979
-0.00913592
-0.0613328
0.066978
-0.00698545
0.0690187
-0.00469584
0.0704685
-0.00229254
0.0712844
0.000181968
0.0714337
0.00267711
0.0708952
0.00513642
0.0696614
0.00749943
0.06774
0.00970362
0.0116863
0.064389
-0.01251
-0.061015
0.067334
-0.00993038
0.0697792
-0.00714104
0.0716628
-0.00417619
0.0729349
-0.00109018
0.0735553
0.00205673
0.0734927
0.005199
0.0727257
0.0082665
0.0712441
0.0111852
0.0138781
0.0636125
-0.0160908
-0.0600316
0.0668197
-0.0131376
0.0695592
-0.00988051
0.0717646
-0.00638157
0.073388
-0.00271366
0.0743907
0.00105408
0.0747389
0.0048508
0.0744038
0.00860155
0.0733631
0.0122259
0.0156374
0.0625155
-0.0198419
-0.0587644
0.0659152
-0.0165373
0.0688519
-0.0128172
0.071269
-0.00879866
0.0731325
-0.0045772
0.0744129
-0.000226291
0.07508
0.00418365
0.0751033
0.00857823
0.0744535
0.0128757
0.0169851
0.0614018
-0.0237858
-0.0574579
0.064923
-0.0200585
0.0679571
-0.0158513
0.07048
-0.0113216
0.07248
-0.0065772
0.0739392
-0.00168549
0.0748326
0.00329031
0.0751302
0.00828063
0.0747999
0.013206
0.0179747
0.060463
-0.0564022
-0.0278466
0.0640059
-0.0236014
0.0670197
-0.0188651
0.0695536
-0.0138555
0.0716066
-0.00863025
0.0731648
-0.00324362
0.0742047
0.00225037
0.0746974
0.00778792
0.0746107
0.0132928
0.0186742
0.042355
0.0134019
-0.0081218
-0.0476351
0.0369904
0.0141368
-0.0087722
0.0315426
0.0150106
-0.00956284
0.0260284
0.0160708
-0.0105565
0.0204915
0.0173763
-0.0118395
0.0150263
0.0189787
-0.0135134
0.00981284
0.0208846
-0.0156712
0.0051689
0.0229819
-0.018338
0.00162077
0.0249101
-0.0213619
0.0258423
-0.0242215
0.0421253
0.0186548
-0.0473781
0.0367865
0.0194756
0.0313637
0.0204333
0.0258739
0.0215606
0.0203612
0.022889
0.0149206
0.0244192
0.0097336
0.0260716
0.00511908
0.0275964
0.00160148
0.0284277
0.0274438
0.0415224
0.0238502
-0.0467178
0.0362407
0.0247573
0.0308765
0.0257976
0.0254479
0.0269892
0.0200006
0.0283364
0.0146312
0.0297886
0.00952238
0.0311804
0.00499138
0.0321274
0.00155324
0.0318658
0.028997
0.0405498
0.0289601
-0.0456598
0.035355
0.0299522
0.0300819
0.0310706
0.0247509
0.0323202
0.0194102
0.0336771
0.0141588
0.0350399
0.00918026
0.036159
0.00478735
0.0365204
0.0014779
0.0351753
0.0304749
0.0392103
0.0339592
-0.0442093
0.0341307
0.0350318
0.0289808
0.0362205
0.0237839
0.0375171
0.0185913
0.0388696
0.0135053
0.040126
0.00870937
0.0409549
0.00450904
0.0407207
0.00137669
0.0383076
0.0318516
0.0375033
0.0388234
-0.0423675
0.0325671
0.039968
0.027573
0.0412145
0.0225476
0.0425425
0.017546
0.0438713
0.0126733
0.0449987
0.00811299
0.0455152
0.00415928
0.0446744
0.00125106
0.0412158
0.0331027
0.0354218
0.0435282
-0.0401267
0.0306587
0.0447312
0.025856
0.0460172
0.0210425
0.047356
0.0162767
0.0486371
0.0116673
0.0496081
0.00739588
0.0497866
0.00374205
0.0483282
0.00110295
0.0438549
0.0342056
0.0329466
0.0480418
-0.0374601
0.0283938
0.0492839
0.0238257
0.0505854
0.0192697
0.051912
0.0147882
0.0531185
0.0104938
0.0539025
0.00656506
0.0537154
0.00326293
0.0516303
0.00093504
0.0461828
0.0351407
0.0300313
0.0523272
-0.0343167
0.0257514
0.0535637
0.0214792
0.0548577
0.0172347
0.0561565
0.01309
0.0572632
0.00916374
0.0578288
0.00563086
0.0572483
0.00272988
0.0545313
0.000751237
0.0481615
0.0358919
0.0266253
-0.0307002
0.0227311
0.0188244
0.0149493
0.0111975
0.0076934
0.00460804
0.00215451
0.000558761
0.0246357
-0.0358472
0.040116
-0.0289045
0.0206516
-0.0356498
0.0396339
0.0168108
-0.0351183
0.0389591
0.0131371
-0.0340781
0.0377517
0.00970507
-0.0322038
0.0356358
0.00661211
-0.0290202
0.0321131
0.00397244
-0.0238776
0.0265172
0.001907
-0.0159324
0.0179979
0.000536952
-0.00414032
0.00551037
0.0128081
-0.0122711
0.0280672
-0.0315221
-0.0323922
0.0237938
-0.0313764
0.0196061
-0.0309306
0.0155451
-0.0300171
0.0116845
-0.0283431
0.00812693
-0.0254626
0.00500338
-0.020754
0.00247231
-0.0134014
0.000722802
-0.00239081
0.0135309
0.0310808
-0.0270437
-0.0355592
0.0265811
-0.0268766
0.0221124
-0.026462
0.017726
-0.0256307
0.0134953
-0.0241125
0.00952683
-0.0214941
0.00596595
-0.0171931
0.00300542
-0.0104408
0.000898972
-0.00028436
0.0144298
0.0337107
-0.0223965
-0.0383579
0.0290178
-0.0221838
0.0243179
-0.021762
0.0196594
-0.0209722
0.0151137
-0.0195668
0.0107888
-0.0171692
0.00684164
-0.013246
0.003495
-0.00709419
0.00106242
0.00214822
0.0154923
0.0359961
-0.0175892
-0.0408035
0.03113
-0.0173176
0.0262317
-0.0168637
0.0213427
-0.0160832
0.0165298
-0.014754
0.0118999
-0.0125393
0.00761811
-0.00896417
0.00393242
-0.0034085
0.00120966
0.00487098
0.0167019
0.0379438
-0.0126375
-0.0428954
0.032925
-0.0122989
0.027857
-0.0117958
0.0227743
-0.0110004
0.0177378
-0.00971742
0.0128517
-0.00765322
0.00828661
-0.00439908
0.00431105
0.000567064
0.00133779
0.00784424
0.0180397
0.0395481
-0.00756324
-0.0446225
0.034401
-0.00715176
0.0291928
-0.00658749
0.0239516
-0.00575921
0.0187329
-0.00449874
0.0136379
-0.00255828
0.0088406
0.000398262
0.00462578
0.00478188
0.00144451
0.0110255
0.0194842
0.0408002
-0.00239214
-0.0459713
0.0355523
-0.00190388
0.0302346
-0.00126975
0.0248704
-0.000395046
0.0195106
0.000861096
0.0142534
0.0026989
0.0092749
0.00537678
0.00487263
0.00918415
0.00152801
0.0143701
0.0210122
0.0416907
0.00284663
-0.0469294
0.0363721
0.00341471
0.0309774
0.00412493
0.0255265
0.00505583
0.0200666
0.00632097
0.0146938
0.00807175
0.00958549
0.0104851
0.0050487
0.0137209
0.00158713
0.0178317
0.0225993
0.0422118
-0.047487
0.0368543
0.0314164
0.0259157
0.0203972
0.0149555
0.00976946
0.00515242
0.00162218
0.0442625
0.0213525
-0.025499
0.0477656
0.0174175
-0.0209205
0.0506795
0.0129867
-0.0159006
0.0530533
0.00823322
-0.010607
0.0548751
0.0033019
-0.00512362
0.0561159
-0.00170673
0.000465851
0.0567372
-0.00669079
0.00606956
0.0566972
-0.0115368
0.0115769
0.055958
-0.01612
0.0168591
-0.0203064
0.0544921
0.0217723
0.0434981
0.0174883
0.0469069
0.0140087
0.0497666
0.0101269
0.05204
0.00595978
0.0537056
0.00163634
0.054734
-0.00273518
0.0550906
-0.00704735
0.0547411
-0.0111874
0.0536586
-0.0150375
-0.0184786
0.0518308
0.0425429
0.0139045
0.0457289
0.0108228
0.0483879
0.00746788
0.0504466
0.00390107
0.0518613
0.000221678
0.0525957
-0.0034696
0.0526182
-0.00706984
0.0519047
-0.0104738
0.0504439
-0.0135767
-0.0162787
0.0482441
0.041062
0.0105942
0.0439431
0.00794163
0.0462909
0.00512004
0.0480261
0.00216595
0.0490944
-0.000846717
0.0494577
-0.00383283
0.0490904
-0.0067026
0.0479823
-0.00936574
0.0461417
-0.0117361
-0.013737
0.0436
0.0386292
0.00760089
0.0411392
0.00543158
0.0430905
0.00316877
0.0444149
0.000841505
0.0450632
-0.00149497
0.045004
-0.00377367
0.0442247
-0.00592327
0.0427325
-0.00787359
0.0405573
-0.00956091
-0.0109328
0.0377532
0.0347135
0.00500058
0.0367852
0.00335983
0.0382758
0.00167821
0.0391362
-1.89027e-05
0.0393324
-0.0016912
0.038849
-0.00329026
0.037691
-0.00476532
0.0358857
-0.00606824
0.0334828
-0.00715806
-0.00800455
0.0305545
0.0286383
0.00287951
0.030215
0.00178311
0.0312144
0.000678858
0.0316093
-0.000413793
0.0313863
-0.00146823
0.0305499
-0.00245381
0.0291241
-0.00333958
0.0271537
-0.00409779
0.0247025
-0.00470691
-0.0051538
0.0218518
0.0195649
0.00131245
0.0206224
0.000725607
0.0211554
0.000145886
0.0211575
-0.000415939
0.0206353
-0.000945973
0.0196104
-0.00142892
0.018121
-0.00185016
0.0162208
-0.0021976
0.0139771
-0.00246324
-0.0026443
0.0114676
0.00647715
0.000345661
0.00704395
0.000158813
0.00721048
-2.06465e-05
0.00698512
-0.000190577
0.00638598
-0.000346838
0.00544205
-0.000484981
0.00419295
-0.000601059
0.00268754
-0.000692192
0.000981405
-0.000757102
-0.000797161
-0.000865737
-0.0119254
-0.0117666
-0.0117873
-0.0119779
-0.0123247
-0.0128097
-0.0134107
-0.0141029
-0.01486
-0.0156572
0.0522917
-0.0239785
0.0261789
0.0493728
-0.0269758
0.0298948
0.0457852
-0.0292223
0.0328098
0.0416122
-0.0306684
0.0348415
0.0369622
-0.0313241
0.035974
0.0319517
-0.0312593
0.0362699
0.0266726
-0.0305821
0.0358612
0.0211414
-0.0293739
0.0349051
0.0152395
-0.0275031
0.0334051
-0.0240406
0.00845264
0.0308274
0.0492684
-0.0214161
0.0460099
-0.0237173
0.0421272
-0.0253396
0.037722
-0.0262632
0.0329147
-0.0265168
0.0278248
-0.0261694
0.0225426
-0.0252999
0.0171004
-0.0239317
0.0115011
-0.0219038
-0.0186226
0.00608319
0.0453391
-0.0185111
0.0417922
-0.0201704
0.0376965
-0.021244
0.0331691
-0.0217358
0.0283383
-0.021686
0.0233261
-0.0211573
0.0182317
-0.0202054
0.0131302
-0.0188303
0.0081373
-0.0169109
-0.0141496
0.00366429
0.0404145
-0.0153256
0.0366714
-0.0164273
0.0324802
-0.0170528
0.0279665
-0.0172221
0.0232597
-0.0169792
0.0184803
-0.0163779
0.0137324
-0.0154575
0.00911557
-0.0142135
0.00477801
-0.0125733
-0.0104114
0.00103976
0.0343972
-0.0119696
0.030592
-0.0126221
0.0264549
-0.0129157
0.022111
-0.0128781
0.0176824
-0.0125506
0.0132804
-0.0119759
0.00900423
-0.0111813
0.00495421
-0.0101635
0.00126587
-0.00888498
-0.00730352
-0.00184198
0.0271896
-0.00860471
0.0234976
-0.00893007
0.0195928
-0.00901094
0.0155896
-0.00887487
0.0115945
-0.00855553
0.00770211
-0.00808352
0.00399719
-0.00747636
0.000565732
-0.00673202
-0.00248657
-0.00583268
-0.00476911
-0.00502098
0.0186907
-0.0054436
0.0153239
-0.00556332
0.0118519
-0.00553893
0.00836928
-0.00539226
0.00496031
-0.00514656
0.0016976
-0.00482081
-0.00135423
-0.00442454
-0.00413045
-0.0039558
-0.00655717
-0.00340595
-0.00277501
-0.00855127
0.00876931
-0.0027453
0.00597053
-0.00276455
0.00314848
-0.00271688
0.000372012
-0.00261579
-0.00230058
-0.00247397
-0.0048207
-0.0023007
-0.0071455
-0.00209973
-0.0092323
-0.001869
-0.0110343
-0.00160394
-0.0013057
-0.0125036
-0.00279972
-0.000811318
-0.00475964
-0.000804625
-0.00669704
-0.000779467
-0.00857138
-0.000741462
-0.0103505
-0.000694814
-0.012009
-0.000642233
-0.0135244
-0.000584365
-0.0148735
-0.000519813
-0.0160309
-0.00044659
-0.000366219
-0.0169704
-0.0164685
-0.0172731
-0.0180526
-0.0187941
-0.0194889
-0.0201311
-0.0207155
-0.0212353
-0.0216819
-0.0220481
0.000266376
-0.0223145
0.000974115
-0.0176781
0.00208745
-0.013617
0.00359702
-0.0100608
0.00550147
-0.00692543
0.00779688
-0.00413738
0.01047
-0.00163338
0.0134882
0.000646094
0.0168055
0.00276591
0.00481407
0.020444
0.000180063
-0.0224945
0.000664209
-0.0181623
0.00143666
-0.0143894
0.00249457
-0.0111188
0.0038373
-0.00826815
0.00546128
-0.00576136
0.00736041
-0.00353251
0.00953426
-0.00152775
0.0120194
0.000280734
0.00185387
0.0149796
9.86669e-05
-0.0225932
0.00038223
-0.0184458
0.000856255
-0.0148634
0.00153117
-0.0117937
0.00241785
-0.00915483
0.00352701
-0.00687052
0.0048722
-0.00487771
0.00647618
-0.00313173
0.00837671
-0.0016198
-0.000383079
0.0106137
2.67243e-05
-0.0226199
0.000136814
-0.0185559
0.000358404
-0.015085
0.000716387
-0.0121517
0.00123279
-0.00967123
0.00192807
-0.00756579
0.00282347
-0.00577311
0.00394264
-0.0042509
0.00530707
-0.00298423
-0.00198996
0.00691394
-3.49586e-05
-0.022585
-7.05477e-05
-0.0185203
-5.712e-05
-0.0150985
4.29626e-05
-0.0122517
0.000259313
-0.00988758
0.000615908
-0.00792239
0.00113277
-0.00628997
0.00182561
-0.00494374
0.00270051
-0.00385913
-0.00303157
0.00374212
-8.64809e-05
-0.0224985
-0.000240421
-0.0183664
-0.000393017
-0.0149459
-0.000496618
-0.0121481
-0.000517565
-0.00986664
-0.000432521
-0.00800743
-0.000226397
-0.00649609
0.000107751
-0.00527789
0.0005658
-0.00431718
-0.0035937
0.00112794
-0.000127805
-0.0223707
-0.000372836
-0.0181214
-0.000649918
-0.0146688
-0.000903974
-0.0118941
-0.00109976
-0.00967085
-0.00121655
-0.00789064
-0.00124489
-0.00646776
-0.00118502
-0.00533776
-0.00104733
-0.00445487
-0.00378782
-0.000853212
-0.000158512
-0.0222122
-0.000466733
-0.0178131
-0.000825881
-0.0143096
-0.00117543
-0.0115445
-0.00147986
-0.00936642
-0.0017216
-0.0076489
-0.00189632
-0.00629303
-0.00200996
-0.00522412
-0.00207726
-0.00438758
-0.0037443
-0.00212078
-0.000177815
-0.0220344
-0.000520501
-0.0174704
-0.000918113
-0.013912
-0.0013059
-0.0111568
-0.0016486
-0.00902371
-0.00193157
-0.00736593
-0.00215483
-0.00606977
-0.00232898
-0.00504998
-0.00247261
-0.00424394
-0.00360653
-0.00261038
-0.000184039
-0.000532687
-0.000924971
-0.00129265
-0.00160097
-0.00183771
-0.00200638
-0.00212158
-0.00220592
-0.00228764
-0.000987288
-0.0100997
0.00993161
0.00169469
-0.0121074
0.00942539
0.00539889
-0.0127866
0.00908236
0.00971115
-0.0137621
0.00944982
0.0143057
-0.0141675
0.009573
0.0188895
-0.0139283
0.00934447
0.0233397
-0.0135528
0.00910269
0.0275478
-0.0133415
0.00913339
0.0314499
-0.0139854
0.0100833
0.03498
-0.015332
0.0118019
0.0381076
-0.0179628
0.0148353
0.0407897
-0.01976
0.0170779
0.0431341
-0.0200959
0.0177514
0.0451342
-0.0160454
0.0140453
0.0471062
-0.00350737
0.00153536
0.0489274
0.00660174
-0.00842294
0.0509972
0.0198942
-0.021964
0.0527201
-0.000122282
-0.00160066
0.0536621
-0.0404057
0.0394637
-0.0254307
0.0249705
0.00143313
-0.010782
0.00429785
-0.0149721
0.00805419
-0.0165429
0.0122785
-0.0179864
0.0167152
-0.0186043
0.0211132
-0.0183262
0.0253665
-0.0178061
0.0293779
-0.0173529
0.0330826
-0.0176901
0.0364141
-0.0186635
0.0393375
-0.0208862
0.0418161
-0.0222387
0.0439668
-0.0222466
0.0458044
-0.0178829
0.0476819
-0.00538488
0.0494737
0.0048099
0.0515651
0.0178028
0.0532895
-0.0018467
0.0541165
-0.0412327
-0.0258096
0.00469752
-0.0121178
0.00772283
-0.0179974
0.0114677
-0.0202877
0.0155113
-0.02203
0.0196883
-0.0227812
0.0238036
-0.0224416
0.0277721
-0.0217746
0.03151
-0.0210908
0.0349526
-0.0211328
0.0380339
-0.0217448
0.0407146
-0.0235669
0.0429638
-0.0244879
0.0449035
-0.0241863
0.0465674
-0.0195469
0.0483382
-0.0071556
0.0500892
0.00305882
0.0521892
0.0157028
0.0539133
-0.00357072
0.0546427
-0.0419622
-0.0261342
0.0086724
-0.0142042
0.0118126
-0.0211376
0.0154616
-0.0239368
0.0192319
-0.0258002
0.0230575
-0.0266069
0.0268085
-0.0261926
0.0304213
-0.0253874
0.033826
-0.0244955
0.0369583
-0.0242651
0.0397527
-0.0245393
0.0421667
-0.0259808
0.0441737
-0.0264949
0.0458976
-0.0259102
0.0473875
-0.0210367
0.0490473
-0.0088155
0.050752
0.00135415
0.0528516
0.0136032
0.0545764
-0.0052955
0.0552302
-0.0426159
-0.026435
0.0131929
-0.0170768
0.0163745
-0.0243192
0.0198214
-0.0273836
0.0232275
-0.0292064
0.0266249
-0.0300043
0.0299499
-0.0295176
0.0331576
-0.0285951
0.0361902
-0.0275281
0.0389835
-0.0270583
0.0414726
-0.0270284
0.043612
-0.0281202
0.0453785
-0.0282615
0.0468949
-0.0274267
0.0482217
-0.0223635
0.049776
-0.0103697
0.0514354
-0.00030528
0.0535308
0.0115078
0.0552622
-0.00702689
0.0558674
-0.0432211
-0.026746
0.018066
-0.0206848
0.0211858
-0.027439
0.0243054
-0.0305033
0.0272627
-0.0321637
0.0301747
-0.0329163
0.0330358
-0.0323787
0.0358141
-0.0313734
0.0384593
-0.0301733
0.0409062
-0.0295053
0.0430903
-0.0292125
0.0449639
-0.0299937
0.0465064
-0.029804
0.0478366
-0.0287569
0.049023
-0.0235498
0.0504866
-0.0118334
0.05211
-0.00192862
0.0542037
0.00941399
0.0559529
-0.00877603
0.0565419
-0.0438101
-0.0271046
0.0230641
-0.0248501
0.0259877
-0.0303626
0.0286505
-0.0331661
0.0310892
-0.0346024
0.0334843
-0.0353114
0.0358718
-0.0347661
0.038223
-0.0337246
0.0404901
-0.0324404
0.0426053
-0.0316205
0.0445038
-0.031111
0.0461366
-0.0316266
0.0474853
-0.0311527
0.0486627
-0.0299342
0.049742
-0.0246291
0.0511399
-0.0132313
0.0527447
-0.00353339
0.0548467
0.00731198
0.0566306
-0.0105599
0.0572409
-0.0444204
-0.0275514
0.0279265
-0.0292057
0.0304841
-0.0329202
0.0325773
-0.0352593
0.0344553
-0.0364803
0.0363349
-0.037191
0.0382698
-0.0367011
0.0402247
-0.0356795
0.0421478
-0.0343635
0.0439672
-0.03344
0.0456173
-0.0327611
0.0470494
-0.0330586
0.0482467
-0.0323501
0.0493153
-0.0310028
0.0503303
-0.0256441
0.0516965
-0.0145974
0.0533085
-0.00514536
0.0554361
0.00518439
0.0572777
-0.0124016
0.0579515
-0.0450942
-0.0281297
0.0324837
-0.0331787
0.0344303
-0.0348668
0.0358549
-0.0366838
0.0371573
-0.0377827
0.0385511
-0.0385848
0.0400792
-0.0382292
0.0416898
-0.0372901
0.0433216
-0.0359953
0.0448976
-0.035016
0.0463508
-0.0342142
0.0476336
-0.0343414
0.0487317
-0.0334482
0.0497435
-0.0320145
0.0507443
-0.0266449
0.0521198
-0.015973
0.0537718
-0.00679735
0.0559493
0.00300689
0.0578775
-0.0143297
0.0586611
-0.0458778
-0.0288853
0.0368085
-0.0361231
0.0377651
-0.0358233
0.0383857
-0.0373045
0.0391127
-0.0385098
0.0400562
-0.0395282
0.0412273
-0.0394003
0.0425488
-0.0386115
0.043946
-0.0373925
0.045336
-0.036406
0.0466491
-0.0355274
0.0478403
-0.0355326
0.0488967
-0.0345046
0.0499076
-0.0330255
0.050949
-0.0276863
0.0523784
-0.0174024
0.054109
-0.00852794
0.0563661
0.000749747
0.0584133
-0.0163769
0.0593565
-0.046821
-0.029867
0.11788
-0.0275247
-0.126479
0.113266
-0.0312093
0.11052
-0.0345583
0.108837
-0.0368265
0.107713
-0.0384041
0.107103
-0.0387904
0.106884
-0.0383925
0.106964
-0.0374726
0.107192
-0.036634
0.107419
-0.0357546
0.107458
-0.0355716
0.107208
-0.0342542
0.106736
-0.0325536
0.106165
-0.0271158
0.106381
-0.0176187
0.107413
-0.00955924
0.109822
-0.00165966
0.111946
-0.0185008
0.111312
-0.0461869
-0.0291985
0.165224
-0.0169034
-0.175845
0.156917
-0.0229023
0.151009
-0.0286502
0.146767
-0.0325844
0.143528
-0.0351653
0.141127
-0.03639
0.139371
-0.036636
0.138103
-0.036205
0.137136
-0.0356672
0.136286
-0.0349044
0.13534
-0.0346257
0.134193
-0.0331071
0.132882
-0.0312426
0.131582
-0.025816
0.131185
-0.017221
0.131782
-0.0101567
0.13388
-0.00375782
0.135632
-0.0202524
0.134269
-0.0448239
-0.0280133
0.216475
-0.00627168
-0.227107
0.207347
-0.0137749
0.199501
-0.0208034
0.193086
-0.0261693
0.187773
-0.0298523
0.183432
-0.0320491
0.179902
-0.0331059
0.177015
-0.0333181
0.174572
-0.0332248
0.172374
-0.032706
0.170195
-0.032447
0.167941
-0.030853
0.165619
-0.0289207
0.163459
-0.0236556
0.162301
-0.0160628
0.162291
-0.0101469
0.163815
-0.00528212
0.164888
-0.0213249
0.162566
-0.0425025
-0.0261731
0.268006
0.00222421
-0.276502
0.260136
-0.0059053
0.252329
-0.0129958
0.245096
-0.0189362
0.238595
-0.0233511
0.232858
-0.0263122
0.227849
-0.0280974
0.223471
-0.0289402
0.219575
-0.0293285
0.215989
-0.0291202
0.212512
-0.0289697
0.209091
-0.0274321
0.205716
-0.0255458
0.202689
-0.020629
0.200722
-0.0140951
0.2
-0.00942557
0.200694
-0.00597596
0.200741
-0.021372
0.197257
-0.0390178
-0.0235742
0.317648
0.00751652
-0.322941
0.312024
-0.00028151
0.305804
-0.00677506
0.29928
-0.0124129
0.292878
-0.0169487
0.286809
-0.0202433
0.281158
-0.0224463
0.275921
-0.0237038
0.271036
-0.0244429
0.266406
-0.0244904
0.261889
-0.0244528
0.257517
-0.0230597
0.253284
-0.0213133
0.24959
-0.0169348
0.246951
-0.0114566
0.245563
-0.00803706
0.245286
-0.00569941
0.244027
-0.0201122
0.239272
-0.0342631
-0.0201977
0.366424
0.00965468
-0.368562
0.363084
0.00305802
0.358871
-0.00256206
0.353873
-0.00741435
0.348462
-0.011538
0.342959
-0.01474
0.337531
-0.0170187
0.33224
-0.0184124
0.327081
-0.0192839
0.322041
-0.0194509
0.317041
-0.0194526
0.312215
-0.0182335
0.307578
-0.0166761
0.303633
-0.0129907
0.30069
-0.00851265
0.298882
-0.00622991
0.297748
-0.00456545
0.295112
-0.0174761
0.289173
-0.0283238
-0.0161725
0.417341
0.00934084
-0.417027
0.415951
0.00444797
0.413465
-7.59257e-05
0.410017
-0.00396679
0.405825
-0.00734594
0.401201
-0.0101156
0.396379
-0.0121962
0.391481
-0.013515
0.386542
-0.0143445
0.381617
-0.0145261
0.376669
-0.0145044
0.371921
-0.0134854
0.3674
-0.0121554
0.363684
-0.00927496
0.360916
-0.0057448
0.359075
-0.00438822
0.357505
-0.00299547
0.353744
-0.0137157
0.346956
-0.0215352
-0.0118099
0.473816
0.00731503
-0.47179
0.474069
0.00419482
0.472983
0.00100995
0.470802
-0.00178529
0.467676
-0.00422041
0.463845
-0.00628418
0.459564
-0.0079154
0.455038
-0.00898862
0.450353
-0.00966003
0.445643
-0.00981612
0.440912
-0.00977318
0.436451
-0.00902404
0.432302
-0.00800608
0.429048
-0.00602124
0.42678
-0.00347656
0.425187
-0.00279584
0.423742
-0.00155025
0.419359
-0.00933235
0.41222
-0.0143968
-0.00753272
0.539666
0.00409992
-0.536451
0.541265
0.00259574
0.541349
0.000925665
0.540148
-0.000583918
0.537827
-0.00189927
0.534573
-0.00303012
0.530616
-0.00395826
0.52622
-0.00459285
0.521549
-0.00498857
0.516822
-0.0050892
0.512103
-0.00505482
0.507736
-0.00465634
0.503808
-0.00407851
0.500848
-0.00306095
0.499035
-0.001664
0.497661
-0.0014218
0.496688
-0.000576969
0.492118
-0.00476256
0.48499
-0.00726855
-0.00364598
0.620077
-0.615978
0.622673
0.623599
0.623015
0.621116
0.618086
0.614127
0.609534
0.604546
0.599457
0.594402
0.589745
0.585667
0.582606
0.580942
0.57952
0.578943
0.574181
0.566912
0.167582
0.0228708
-0.166605
0.167779
0.0284446
0.167015
0.0337116
0.165104
0.0385392
0.161877
0.0427867
0.157221
0.046319
0.15112
0.0490266
0.143708
0.0508534
0.135346
0.0517703
0.0515602
0.191839
0.0209024
-0.18987
0.193495
0.0267884
0.194691
0.0325156
0.195256
0.0379744
0.195002
0.0430397
0.193744
0.0475774
0.191313
0.0514581
0.187584
0.0545821
0.182437
0.0569178
0.0581517
0.217563
0.0183827
-0.215043
0.220198
0.0241532
0.222854
0.0298592
0.2254
0.0354287
0.227662
0.0407781
0.229426
0.0458127
0.230455
0.0504294
0.230518
0.0545188
0.229438
0.0579978
0.0604834
0.246081
0.0157215
-0.24342
0.249134
0.0210996
0.252538
0.0264556
0.256223
0.0317436
0.260091
0.0369098
0.264012
0.0418916
0.267825
0.0466171
0.271338
0.0510056
0.274345
0.0549908
0.0583265
0.278458
0.0130652
-0.275801
0.281684
0.017873
0.285472
0.0226679
0.289799
0.027417
0.294624
0.0320841
0.299886
0.0366298
0.305492
0.0410108
0.311319
0.0451795
0.317221
0.0490885
0.0526068
0.315494
0.0104422
-0.312871
0.318821
0.0145465
0.32285
0.0186393
0.327572
0.0226943
0.332972
0.0266844
0.33902
0.0305815
0.345675
0.0343563
0.352877
0.0379776
0.360552
0.0414133
0.044597
0.358101
0.00785933
-0.355518
0.361508
0.0111391
0.365739
0.0144084
0.370787
0.0176462
0.37664
0.0208311
0.383281
0.0239414
0.390682
0.0269554
0.398808
0.0298514
0.407614
0.032607
0.0351838
0.407686
0.00530026
-0.405127
0.411192
0.00763237
0.415644
0.00995674
0.421032
0.0122579
0.427343
0.0145204
0.434556
0.0167285
0.442644
0.0188669
0.451576
0.0209202
0.461309
0.0228733
0.0247025
0.46638
0.00271445
-0.463795
0.47005
0.00396314
0.474798
0.0052083
0.480615
0.0064413
0.487482
0.0076535
0.495374
0.00883626
0.50426
0.00998108
0.5141
0.0110796
0.52485
0.0121237
0.0131014
0.537589
-0.534875
0.541552
0.546761
0.553202
0.560856
0.569692
0.579673
0.590753
0.602876
0.143406
-0.0301953
-0.141057
0.146254
-0.0264496
0.149213
-0.0218247
0.152188
-0.0168298
0.155103
-0.0115454
0.157915
-0.00605552
0.160562
-0.000397229
0.162964
0.00538663
0.165018
0.0112381
0.0170871
0.170822
-0.0318623
-0.169156
0.172643
-0.0282706
0.174571
-0.0237519
0.176605
-0.0188637
0.178726
-0.0136672
0.180923
-0.00825194
0.183177
-0.00265185
0.185458
0.00310652
0.187712
0.00898358
0.0149291
0.202141
-0.0323185
-0.201685
0.202786
-0.0289158
0.203565
-0.0245307
0.204514
-0.0198124
0.205676
-0.0148295
0.207069
-0.00964504
0.208704
-0.00428642
0.210584
0.00122591
0.212704
0.00686356
0.0125906
0.23722
-0.0314692
-0.23807
0.236558
-0.0282534
0.236162
-0.0241347
0.236066
-0.0197162
0.236314
-0.0150781
0.236933
-0.010264
0.23794
-0.00529287
0.239349
-0.000183832
0.241175
0.00503845
0.0103454
0.276007
-0.0293117
-0.278165
0.274078
-0.0263241
0.272555
-0.0226115
0.271481
-0.018642
0.270888
-0.0144853
0.270798
-0.0101742
0.271229
-0.00572376
0.272197
-0.00115204
0.273717
0.00351813
0.0082615
0.319093
-0.0258658
-0.322539
0.315988
-0.023219
0.313414
-0.020038
0.311421
-0.0166493
0.310037
-0.0131005
0.309279
-0.00941662
0.309167
-0.00561216
0.309719
-0.00170399
0.31095
0.00228748
0.00634008
0.367525
-0.021168
-0.372223
0.363309
-0.0190028
0.35974
-0.0164685
0.356865
-0.0137744
0.354713
-0.0109489
0.353307
-0.0080103
0.352667
-0.00497213
0.352812
-0.00184934
0.353758
0.00134102
0.00458061
0.422742
-0.0152673
-0.428643
0.417458
-0.0137192
0.412926
-0.0119364
0.409192
-0.0100404
0.40629
-0.00804695
0.404248
-0.00596823
0.403091
-0.00381509
0.402841
-0.00159915
0.403515
0.000666835
0.00296926
0.486874
-0.00820261
-0.493939
0.480542
-0.00738631
0.475056
-0.00645076
0.470469
-0.00545295
0.466821
-0.00439981
0.464151
-0.00329781
0.462489
-0.00215319
0.461862
-0.000972608
0.462293
0.000236769
0.00146732
0.563284
-0.571487
0.555898
0.549447
0.543994
0.539594
0.536297
0.534143
0.533171
0.533408
0.126774
0.00231498
-0.00222351
0.126517
0.00702162
-0.00676438
0.1261
0.0121296
-0.011713
0.125527
0.0180215
-0.0174476
0.12485
0.0250565
-0.0243795
0.124126
0.0342849
-0.0335608
0.123816
0.0455985
-0.0452893
0.124084
0.0633191
-0.0635868
0.128815
0.0812793
-0.0860106
0.120694