/*--------------------------------*- C++ -*----------------------------------*\
| =========                 |                                                 |
| \\      /  F ield         | OpenFOAM: The Open Source CFD Toolbox           |
|  \\    /   O peration     | Version:  v1912                                 |
|   \\  /    A nd           | Website:  www.openfoam.com                      |
|    \\/     M anipulation  |                                                 |
\*---------------------------------------------------------------------------*/
FoamFile
{
    version     2.0;
    format      ascii;
    class       volScalarField;
    location    "3.5";
    object      p;
}
// * * * * * * * * * * * * * * * * * * * * * * * * * * * * * * * * * * * * * //

dimensions      [0 2 -2 0 0 0 0];


internalField   nonuniform List<scalar> 
9600
(
-32.2861
-26.7547
-23.3149
-20.4081
-17.8568
-15.6537
-13.7502
-12.1009
-10.6706
-9.42973
-8.35239
-7.4162
-6.60171
-5.8921
-5.27286
-4.73158
-4.25766
-3.8414
-3.47427
-3.15548
-32.4283
-26.9015
-23.4561
-20.5401
-17.9789
-15.766
-13.8536
-12.1964
-10.7592
-9.51242
-8.43009
-7.48964
-6.67149
-5.95868
-5.3366
-4.79276
-4.31648
-3.89789
-3.52835
-3.2084
-32.5771
-27.0488
-23.5974
-20.6722
-18.101
-15.8784
-13.9571
-12.2921
-10.8483
-9.59577
-8.5086
-7.56404
-6.74237
-6.0265
-5.40171
-4.85542
-4.37687
-3.95602
-3.58415
-3.26316
-32.7303
-27.198
-23.7393
-20.8045
-18.2232
-15.9909
-14.0609
-12.3882
-10.9377
-9.67966
-8.58782
-7.63931
-6.81428
-6.0955
-5.46813
-4.91951
-4.43879
-4.01578
-3.64165
-3.31972
-32.8865
-27.3487
-23.8818
-20.9371
-18.3455
-16.1035
-14.1647
-12.4844
-11.0275
-9.76408
-8.66772
-7.71543
-6.88719
-6.16565
-5.53584
-4.98502
-4.50225
-4.07715
-3.70086
-3.37809
-33.0446
-27.5007
-24.0251
-21.07
-18.4679
-16.2161
-14.2686
-12.5808
-11.1176
-9.84891
-8.74819
-7.79228
-6.961
-6.23685
-5.60475
-5.05187
-4.56718
-4.1401
-3.76175
-3.43826
-33.2041
-27.6537
-24.1687
-21.203
-18.5903
-16.3286
-14.3724
-12.6772
-11.2078
-9.93402
-8.82911
-7.86974
-7.03558
-6.309
-5.67477
-5.11998
-4.63349
-4.20456
-3.82426
-3.50019
-33.3645
-27.8072
-24.3126
-21.3359
-18.7124
-16.4407
-14.4759
-12.7734
-11.298
-10.0192
-8.91026
-7.94761
-7.11075
-6.3819
-5.74572
-5.18919
-4.70107
-4.27041
-3.8883
-3.56382
-33.5255
-27.9611
-24.4564
-21.4684
-18.834
-16.5524
-14.5789
-12.8692
-11.3878
-10.1042
-8.99142
-8.02566
-7.18627
-6.45532
-5.81737
-5.25928
-4.76971
-4.3375
-3.95373
-3.62902
-33.6868
-28.1149
-24.5999
-21.6004
-18.9548
-16.6631
-14.6811
-12.9642
-11.477
-10.1888
-9.0723
-8.10358
-7.26184
-6.52898
-5.88944
-5.32999
-4.83916
-4.40558
-4.02031
-3.69559
-33.8481
-28.2685
-24.7427
-21.7314
-19.0746
-16.7728
-14.7822
-13.0583
-11.5654
-10.2726
-9.15256
-8.18105
-7.33711
-6.60252
-5.96157
-5.40095
-4.90908
-4.47434
-4.08778
-3.76328
-34.0093
-28.4214
-24.8846
-21.8613
-19.1929
-16.8811
-14.8819
-13.151
-11.6525
-10.3553
-9.23183
-8.25765
-7.41166
-6.67549
-6.03332
-5.47173
-4.97903
-4.54337
-4.15575
-3.83174
-34.1704
-28.5736
-25.0252
-21.9896
-19.3096
-16.9875
-14.9798
-13.242
-11.738
-10.4365
-9.30967
-8.33294
-7.48501
-6.74739
-6.10415
-5.54177
-5.04846
-4.61213
-4.2237
-3.90045
-34.3312
-28.7247
-25.1643
-22.116
-19.4242
-17.0919
-15.0756
-13.3309
-11.8215
-10.5158
-9.38567
-8.40644
-7.55663
-6.81763
-6.17341
-5.61038
-5.11666
-4.67989
-4.29089
-3.96874
-34.4916
-28.8743
-25.3015
-22.2402
-19.5364
-17.1937
-15.169
-13.4175
-11.9027
-10.5927
-9.45937
-8.47765
-7.62596
-6.88557
-6.24037
-5.67672
-5.18266
-4.74561
-4.35625
-4.03552
-34.6517
-29.022
-25.4363
-22.3618
-19.6458
-17.2928
-15.2596
-13.5013
-11.9811
-10.667
-9.53038
-8.54613
-7.69248
-6.9506
-6.30432
-5.73995
-5.2455
-4.80821
-4.41851
-4.09892
-34.8127
-29.1679
-25.5685
-22.4804
-19.752
-17.3886
-15.347
-13.582
-12.0565
-10.7383
-9.59836
-8.61147
-7.7557
-7.01214
-6.36456
-5.79929
-5.30438
-4.86685
-4.47644
-4.15707
-34.9791
-29.313
-25.6975
-22.5951
-19.8543
-17.4806
-15.4307
-13.6592
-12.1286
-10.8063
-9.66301
-8.67333
-7.8152
-7.06958
-6.42026
-5.85366
-5.35792
-4.91963
-4.52789
-4.21035
-35.1531
-29.457
-25.8218
-22.705
-19.9522
-17.5686
-15.5108
-13.733
-12.1975
-10.8711
-9.72444
-8.73181
-7.87094
-7.12269
-6.47077
-5.90159
-5.40295
-4.96111
-4.56705
-4.25738
-35.3138
-29.5937
-25.9399
-22.8104
-20.0466
-17.6537
-15.5882
-13.8044
-12.2639
-10.9336
-9.78355
-8.78787
-7.92404
-7.17272
-6.51743
-5.94405
-5.43932
-4.99005
-4.59302
-4.28208
-36.5277
-36.5517
-36.5562
-36.5546
-36.5456
-36.5264
-36.4967
-36.4569
-36.4076
-36.3489
-36.2815
-36.2059
-36.1227
-36.0326
-35.9363
-35.8349
-35.7295
-35.6219
-35.5153
-35.413
-30.6635
-30.7021
-30.7253
-30.7379
-30.7399
-30.7305
-30.7101
-30.6794
-30.6389
-30.5891
-30.5306
-30.4638
-30.3895
-30.3083
-30.2208
-30.1277
-30.03
-29.9282
-29.8229
-29.7123
-26.8278
-26.8751
-26.9091
-26.9313
-26.9419
-26.9411
-26.9297
-26.9083
-26.8774
-26.8374
-26.7889
-26.7323
-26.6684
-26.5975
-26.5203
-26.4373
-26.3489
-26.2554
-26.1568
-26.0521
-23.537
-23.5875
-23.6265
-23.6543
-23.6708
-23.6763
-23.6718
-23.6578
-23.6346
-23.6029
-23.563
-23.5154
-23.4606
-23.3992
-23.3316
-23.2583
-23.1795
-23.0954
-23.0062
-22.9116
-20.6512
-20.7019
-20.7425
-20.7729
-20.7925
-20.8018
-20.8016
-20.7925
-20.7748
-20.749
-20.7154
-20.6747
-20.6272
-20.5734
-20.5137
-20.4485
-20.3782
-20.3029
-20.2226
-20.1376
-18.1773
-18.2264
-18.2662
-18.2967
-18.317
-18.3277
-18.3295
-18.3229
-18.3083
-18.286
-18.2566
-18.2204
-18.178
-18.1297
-18.0759
-18.0171
-17.9535
-17.8854
-17.8127
-17.7359
-16.0652
-16.1114
-16.149
-16.1778
-16.1972
-16.2075
-16.2095
-16.2037
-16.1903
-16.1698
-16.1426
-16.1091
-16.0698
-16.0251
-15.9755
-15.9212
-15.8626
-15.8
-15.7335
-15.6632
-14.2599
-14.3027
-14.3374
-14.3636
-14.3809
-14.3897
-14.3908
-14.3844
-14.371
-14.3509
-14.3245
-14.2923
-14.2547
-14.2121
-14.1651
-14.1139
-14.059
-14.0005
-13.9386
-13.8735
-12.7157
-12.7548
-12.7861
-12.8092
-12.8239
-12.8307
-12.8301
-12.8225
-12.8081
-12.7875
-12.761
-12.729
-12.6921
-12.6506
-12.6051
-12.5559
-12.5034
-12.4479
-12.3895
-12.3285
-11.3928
-11.4281
-11.4559
-11.4758
-11.4878
-11.4921
-11.4895
-11.4801
-11.4644
-11.4427
-11.4155
-11.3831
-11.3461
-11.305
-11.2601
-11.2121
-11.1612
-11.1078
-11.0521
-10.9943
-10.2572
-10.2884
-10.3127
-10.3296
-10.3387
-10.3406
-10.3358
-10.3245
-10.3072
-10.2841
-10.2558
-10.2226
-10.1851
-10.1437
-10.0991
-10.0516
-10.0017
-9.94989
-9.8963
-9.84111
-9.27868
-9.30635
-9.32759
-9.34147
-9.34792
-9.34743
-9.34045
-9.32727
-9.30821
-9.28367
-9.25406
-9.21986
-9.18156
-9.13968
-9.09478
-9.04742
-8.99814
-8.94741
-8.8955
-8.84258
-8.43318
-8.45804
-8.47601
-8.48711
-8.49108
-8.48834
-8.47929
-8.46424
-8.4435
-8.41746
-8.38653
-8.35119
-8.31193
-8.26931
-8.22392
-8.17641
-8.12737
-8.07741
-8.02689
-7.97602
-7.70005
-7.72209
-7.73734
-7.74595
-7.74764
-7.74281
-7.73185
-7.71504
-7.69271
-7.66521
-7.63298
-7.59646
-7.55617
-7.51268
-7.46663
-7.41871
-7.36965
-7.32018
-7.27084
-7.22194
-7.062
-7.08143
-7.09429
-7.10071
-7.10033
-7.09359
-7.08088
-7.06247
-7.03865
-7.0098
-6.97631
-6.93864
-6.8973
-6.85286
-6.80599
-6.75746
-6.70811
-6.65888
-6.61053
-6.56361
-6.50466
-6.52175
-6.53229
-6.5368
-6.53457
-6.52613
-6.51183
-6.49194
-6.46677
-6.43665
-6.40198
-6.36319
-6.32077
-6.27531
-6.22749
-6.17813
-6.12818
-6.07885
-6.0312
-5.98634
-6.01597
-6.03102
-6.03999
-6.04215
-6.03821
-6.02822
-6.01246
-5.99121
-5.96476
-5.93345
-5.89763
-5.85772
-5.81419
-5.7676
-5.71862
-5.66814
-5.61719
-5.56723
-5.51961
-5.47647
-5.58552
-5.5988
-5.60596
-5.60678
-5.60147
-5.59017
-5.57318
-5.55079
-5.52327
-5.49093
-5.45411
-5.41319
-5.36861
-5.3209
-5.2707
-5.2189
-5.16659
-5.11562
-5.06738
-5.02477
-5.20415
-5.21619
-5.22234
-5.22236
-5.21618
-5.2041
-5.18646
-5.16354
-5.13559
-5.10288
-5.06574
-5.02452
-4.97962
-4.93152
-4.88081
-4.82834
-4.7752
-4.72372
-4.6756
-4.63507
-4.86625
-4.8757
-4.8798
-4.87832
-4.87051
-4.85699
-4.83816
-4.8143
-4.78563
-4.7524
-4.71488
-4.67339
-4.6283
-4.57999
-4.52895
-4.47591
-4.42178
-4.36895
-4.31898
-4.28718
-32.9248
-33.1986
-33.454
-33.711
-33.9662
-34.2142
-34.4528
-34.6812
-34.8985
-35.1041
-35.2974
-35.4779
-35.6452
-35.7991
-35.9395
-36.0663
-36.18
-36.2814
-36.3723
-36.4548
-27.0613
-27.3424
-27.6116
-27.8745
-28.1302
-28.3769
-28.6134
-28.8394
-29.0544
-29.258
-29.4496
-29.6292
-29.7964
-29.9509
-30.0922
-30.2201
-30.335
-30.4373
-30.527
-30.603
-23.291
-23.5659
-23.8319
-24.089
-24.3374
-24.5767
-24.8065
-25.0264
-25.2357
-25.4341
-25.6209
-25.7961
-25.9602
-26.1131
-26.2543
-26.3822
-26.4974
-26.5999
-26.6896
-26.7659
-20.1269
-20.3884
-20.6429
-20.8891
-21.127
-21.3562
-21.5767
-21.7879
-21.9895
-22.1811
-22.3624
-22.5331
-22.6921
-22.8391
-22.974
-23.0972
-23.2095
-23.3101
-23.3984
-23.4743
-17.4059
-17.6522
-17.8928
-18.1262
-18.3517
-18.5691
-18.7782
-18.9785
-19.1698
-19.3516
-19.5235
-19.685
-19.8358
-19.9756
-20.1047
-20.2238
-20.3323
-20.4295
-20.5152
-20.5894
-15.113
-15.3446
-15.5713
-15.7914
-16.0042
-16.2094
-16.4067
-16.5957
-16.7761
-16.9475
-17.1096
-17.262
-17.4046
-17.5373
-17.6601
-17.7728
-17.8744
-17.9656
-18.0471
-18.1181
-13.1825
-13.4006
-13.6142
-13.8218
-14.0225
-14.2158
-14.4017
-14.5798
-14.7496
-14.9109
-15.0633
-15.2067
-15.3408
-15.4656
-15.5808
-15.6863
-15.7819
-15.8676
-15.9426
-16.0093
-11.5506
-11.7567
-11.9584
-12.1545
-12.344
-12.5265
-12.7019
-12.8697
-13.0296
-13.1812
-13.3245
-13.4591
-13.5849
-13.7017
-13.8094
-13.9079
-13.9971
-14.077
-14.1473
-14.2081
-10.1665
-10.3619
-10.5532
-10.739
-10.9185
-11.0913
-11.2571
-11.4155
-11.5663
-11.7092
-11.844
-11.9704
-12.0884
-12.1978
-12.2985
-12.3903
-12.4733
-12.5474
-12.6125
-12.6688
-8.9886
-9.17471
-9.35683
-9.53366
-9.70432
-9.8684
-10.0256
-10.1757
-10.3183
-10.4532
-10.5803
-10.6993
-10.8102
-10.9127
-11.0069
-11.0926
-11.1698
-11.2385
-11.2986
-11.3503
-7.98272
-8.16071
-8.33488
-8.50387
-8.66674
-8.82309
-8.97268
-9.11522
-9.25046
-9.37821
-9.49831
-9.61063
-9.71503
-9.81141
-9.89969
-9.9798
-10.0517
-10.1154
-10.1708
-10.2183
-7.12068
-7.29159
-7.45894
-7.6211
-7.77708
-7.92656
-8.06931
-8.20509
-8.3337
-8.455
-8.56885
-8.67512
-8.77371
-8.86452
-8.94748
-9.02253
-9.08963
-9.14878
-9.2
-9.24344
-6.37926
-6.54404
-6.70561
-6.86184
-7.0117
-7.15499
-7.29158
-7.42126
-7.5439
-7.65937
-7.76758
-7.86841
-7.96178
-8.04758
-8.12575
-8.19624
-8.25901
-8.31407
-8.36144
-8.40126
-5.73923
-5.89877
-6.05558
-6.20663
-6.35098
-6.48868
-6.61966
-6.7438
-6.861
-6.9712
-7.07432
-7.17025
-7.2589
-7.34019
-7.41406
-7.48044
-7.53932
-7.59069
-7.63459
-7.67114
-5.18459
-5.33985
-5.49291
-5.63941
-5.77873
-5.91128
-6.03712
-6.15617
-6.26842
-6.37383
-6.47232
-6.56381
-6.6482
-6.72541
-6.79539
-6.85807
-6.91343
-6.96148
-7.00224
-7.03583
-4.70184
-4.85448
-5.00489
-5.1472
-5.2818
-5.40958
-5.53062
-5.64495
-5.75261
-5.8536
-5.94785
-6.03527
-6.11577
-6.18926
-6.25568
-6.31498
-6.36714
-6.41216
-6.45007
-6.48097
-4.2776
-4.43107
-4.58051
-4.7188
-4.84882
-4.97207
-5.08861
-5.19852
-5.30193
-5.39884
-5.48919
-5.57287
-5.64979
-5.71986
-5.78304
-5.83925
-5.88849
-5.93076
-5.96607
-5.99453
-3.89519
-4.05395
-4.20547
-4.34046
-4.4663
-4.58548
-4.698
-4.80402
-4.90372
-4.9971
-5.08408
-5.16456
-5.23843
-5.30562
-5.36604
-5.41966
-5.46645
-5.50641
-5.53954
-5.56595
-3.54659
-3.71225
-3.86855
-4.00212
-4.1247
-4.2403
-4.34933
-4.45202
-4.54856
-4.63895
-4.7231
-4.8009
-4.87223
-4.93702
-4.99519
-5.04671
-5.09154
-5.12968
-5.16113
-5.18598
-3.29335
-3.46511
-3.6143
-3.74299
-3.86009
-3.9692
-4.072
-4.16891
-4.25991
-4.34494
-4.42394
-4.49679
-4.56339
-4.62367
-4.67757
-4.72506
-4.76614
-4.80078
-4.829
-4.85085
-0.452131
-0.666279
-0.919233
-1.21181
-1.55129
-1.94596
-2.40491
-2.93884
-3.56063
-4.2859
-5.13377
-6.12789
-7.29777
-8.68039
-10.3232
-12.29
-14.6527
-17.4437
-20.8739
-26.455
-0.58015
-0.798057
-1.05292
-1.34784
-1.69009
-2.08783
-2.55022
-3.08809
-3.71449
-4.44518
-5.29945
-6.30117
-7.4801
-8.87348
-10.529
-12.5107
-14.8901
-17.6988
-21.1449
-26.7311
-0.711538
-0.933378
-1.19032
-1.48781
-1.83305
-2.23409
-2.70016
-3.24224
-3.87351
-4.6099
-5.47088
-6.48054
-7.66889
-9.07341
-10.742
-12.7388
-15.1349
-17.9608
-21.4222
-27.0096
-0.845963
-1.07187
-1.33104
-1.63129
-1.97974
-2.38428
-2.85424
-3.40074
-4.03711
-4.77943
-5.64737
-6.66522
-7.86324
-9.27917
-10.9611
-12.9732
-15.3863
-18.2298
-21.7075
-27.3015
-0.983139
-1.21324
-1.47478
-1.77798
-2.12985
-2.53808
-3.01213
-3.56325
-4.20491
-4.95337
-5.82849
-6.85477
-8.06271
-9.49031
-11.1859
-13.2136
-15.6441
-18.5058
-22.0005
-27.6048
-1.12281
-1.3572
-1.62125
-1.9276
-2.28307
-2.69519
-3.17351
-3.72944
-4.37659
-5.1314
-6.0139
-7.04884
-8.26695
-9.70647
-11.4159
-13.4597
-15.9079
-18.7881
-22.3
-27.9162
-1.26476
-1.50351
-1.77019
-2.07986
-2.43912
-2.85531
-3.33807
-3.89898
-4.55181
-5.31314
-6.20323
-7.24704
-8.47555
-9.92724
-11.6509
-13.7108
-16.177
-19.0761
-22.6052
-28.2342
-1.40878
-1.65194
-1.92135
-2.23451
-2.59771
-3.01812
-3.50548
-4.07153
-4.73019
-5.49821
-6.39607
-7.44894
-8.68805
-10.1521
-11.8902
-13.9665
-16.451
-19.3692
-22.9154
-28.5576
-1.55473
-1.80229
-2.07451
-2.3913
-2.75858
-3.18334
-3.67543
-4.24675
-4.91136
-5.68622
-6.59199
-7.65409
-8.90399
-10.3807
-12.1333
-14.2263
-16.7292
-19.6666
-23.2298
-28.8857
-1.70251
-1.95443
-2.22948
-2.55001
-2.92148
-3.35067
-3.84758
-4.42426
-5.09494
-5.87675
-6.79056
-7.86202
-9.12286
-10.6123
-12.3796
-14.4894
-17.0109
-19.9677
-23.5477
-29.2174
-1.85208
-2.10824
-2.38609
-2.71041
-3.08612
-3.51979
-4.02158
-4.60368
-5.2805
-6.06935
-6.99129
-8.07222
-9.34412
-10.8464
-12.6287
-14.7553
-17.2954
-20.2717
-23.8684
-29.5518
-2.00345
-2.26362
-2.54417
-2.87226
-3.25221
-3.69037
-4.19703
-4.78459
-5.46759
-6.26352
-7.19367
-8.28416
-9.56721
-11.0825
-12.8797
-15.0234
-17.5821
-20.578
-24.1909
-29.8882
-2.15666
-2.42047
-2.70349
-3.03527
-3.41937
-3.86196
-4.37348
-4.96648
-5.65567
-6.45872
-7.39714
-8.49725
-9.79154
-11.3199
-13.1322
-15.2928
-17.8702
-20.8856
-24.5146
-30.2256
-2.31173
-2.57861
-2.86374
-3.19901
-3.58714
-4.03405
-4.55036
-5.14879
-5.84418
-6.65439
-7.6011
-8.7109
-10.0165
-11.558
-13.3853
-15.5629
-18.159
-21.194
-24.8388
-30.5633
-2.46855
-2.73765
-3.02437
-3.36285
-3.75483
-4.20596
-4.72702
-5.33087
-6.03249
-6.84988
-7.80493
-8.92444
-10.2413
-11.796
-13.6384
-15.833
-18.4477
-21.5022
-25.1629
-30.9008
-2.62661
-2.8967
-3.18439
-3.52583
-3.92154
-4.37685
-4.90267
-5.51198
-6.21988
-7.04451
-8.00796
-9.13723
-10.4655
-12.0333
-13.8908
-16.1023
-18.7354
-21.8093
-25.4863
-31.2375
-2.7846
-3.054
-3.34213
-3.6865
-4.08604
-4.54568
-5.07642
-5.69133
-6.40563
-7.2376
-8.20951
-9.34858
-10.6882
-12.2691
-14.1417
-16.37
-19.0214
-22.1144
-25.8089
-31.5733
-2.93926
-3.20605
-3.49485
-3.84294
-4.24696
-4.71138
-5.24739
-5.86818
-6.58907
-7.42851
-8.40895
-9.55784
-10.9088
-12.5028
-14.3903
-16.6353
-19.3048
-22.4166
-26.1296
-31.9084
-3.08288
-3.34653
-3.63897
-3.99321
-4.40303
-4.87302
-5.41484
-6.04189
-6.7696
-7.61661
-8.60563
-9.76432
-11.1265
-12.7335
-14.6357
-16.8972
-19.5845
-22.715
-26.4475
-32.2447
-3.19836
-3.46323
-3.77173
-4.13752
-4.55454
-5.03076
-5.57887
-6.21241
-6.94704
-7.80167
-8.79923
-9.96764
-11.341
-12.9606
-14.8772
-17.1549
-19.8594
-23.0074
-26.7595
-32.5844
0.954042
0.77339
0.528936
0.248591
-0.0723768
-0.443541
-0.873796
-1.37278
-1.95197
-2.62521
-3.40923
-4.3246
-5.39687
-6.65815
-8.15023
-9.93142
-12.072
-14.611
-17.7694
-23.1573
0.925307
0.746893
0.504951
0.229458
-0.0877095
-0.456425
-0.884853
-1.38233
-1.9603
-2.63259
-3.41598
-4.33109
-5.40359
-6.66577
-8.15963
-9.94379
-12.0888
-14.6335
-17.794
-23.1738
0.907392
0.725044
0.484141
0.209934
-0.106328
-0.474304
-0.902018
-1.39884
-1.9763
-2.64827
-3.43162
-4.34706
-5.42041
-6.68413
-8.18042
-9.96805
-12.1176
-14.6678
-17.8296
-23.1964
0.888014
0.704506
0.46342
0.188487
-0.1284
-0.496755
-0.924692
-1.42168
-1.99932
-2.6716
-3.45547
-4.3718
-5.44654
-6.71234
-8.21161
-10.0033
-12.1579
-14.7145
-17.8814
-23.2443
0.863638
0.679789
0.438143
0.162242
-0.155543
-0.524684
-0.953348
-1.45104
-2.02941
-2.70253
-3.48746
-4.40519
-5.48186
-6.7503
-8.25317
-10.0495
-12.2102
-14.7743
-17.9494
-23.3149
0.833701
0.649011
0.40672
0.129919
-0.188814
-0.558927
-0.988603
-1.48736
-2.06687
-2.74127
-3.52773
-4.44737
-5.52651
-6.7982
-8.30534
-10.1072
-12.2747
-14.8475
-18.0322
-23.4033
0.796913
0.61121
0.368399
0.0907901
-0.228904
-0.600084
-1.03094
-1.531
-2.11196
-2.78802
-3.57644
-4.49848
-5.58062
-6.85617
-8.36827
-10.1765
-12.3517
-14.9338
-18.1296
-23.508
0.75233
0.565698
0.322539
0.0442414
-0.276367
-0.648632
-1.08076
-1.58229
-2.16494
-2.84296
-3.63371
-4.55858
-5.64425
-6.92422
-8.44196
-10.2573
-12.441
-15.0328
-18.242
-23.6283
0.699724
0.512182
0.268789
-0.0100951
-0.33156
-0.7049
-1.13835
-1.64145
-2.22598
-2.90623
-3.69964
-4.62775
-5.71742
-7.00239
-8.52642
-10.3496
-12.5427
-15.1452
-18.3684
-23.7636
0.639198
0.450659
0.207082
-0.0723337
-0.394629
-0.769047
-1.20385
-1.70864
-2.29521
-2.97791
-3.7743
-4.70603
-5.80015
-7.09066
-8.6216
-10.4534
-12.6568
-15.2707
-18.5084
-23.9135
0.570975
0.38129
0.137526
-0.142418
-0.465559
-0.841089
-1.27732
-1.7839
-2.37266
-3.05804
-3.85768
-4.7934
-5.89242
-7.18898
-8.72743
-10.5685
-12.783
-15.4093
-18.662
-24.0775
0.495363
0.304346
0.0603432
-0.220175
-0.544221
-0.920931
-1.35867
-1.86716
-2.45829
-3.14656
-3.94974
-4.88979
-5.99412
-7.29724
-8.8438
-10.6948
-12.9212
-15.5606
-18.8288
-24.2554
0.412739
0.220169
-0.0241679
-0.305349
-0.630399
-1.00839
-1.44776
-1.95829
-2.55196
-3.24336
-4.05036
-4.99507
-6.10514
-7.41531
-8.97053
-10.8322
-13.0711
-15.7244
-19.0086
-24.4468
0.323511
0.129143
-0.115659
-0.397628
-0.723815
-1.10323
-1.54436
-2.0571
-2.6535
-3.34825
-4.15935
-5.10908
-6.22529
-7.54299
-9.10744
-10.9803
-13.2325
-15.9004
-19.2012
-24.6515
0.228096
0.0316676
-0.213753
-0.496664
-0.824149
-1.20514
-1.64821
-2.16334
-2.76267
-3.46102
-4.27651
-5.2316
-6.35435
-7.68005
-9.25426
-11.139
-13.4051
-16.0884
-19.4063
-24.8692
0.126903
-0.0718504
-0.318063
-0.602091
-0.931056
-1.31381
-1.759
-2.27671
-2.8792
-3.5814
-4.40156
-5.36235
-6.49205
-7.82622
-9.41072
-11.3079
-13.5886
-16.288
-19.6236
-25.0996
0.0203347
-0.181009
-0.428197
-0.71353
-1.04417
-1.42888
-1.8764
-2.3969
-3.00278
-3.70908
-4.53422
-5.50104
-6.63808
-7.98116
-9.57648
-11.4866
-13.7826
-16.4988
-19.853
-25.3428
-0.0912248
-0.295417
-0.543768
-0.830605
-1.16313
-1.55002
-2.00006
-2.52358
-3.13309
-3.84375
-4.67416
-5.64735
-6.7921
-8.14452
-9.75114
-11.6749
-13.9867
-16.7204
-20.0941
-25.599
-0.207397
-0.414682
-0.664384
-0.95293
-1.28756
-1.67682
-2.12962
-2.65638
-3.26975
-3.98503
-4.821
-5.80088
-6.9537
-8.31586
-9.93421
-11.872
-14.2004
-16.9523
-20.3463
-25.8693
-0.32785
-0.53847
-0.789716
-1.08018
-1.41713
-1.80901
-2.26478
-2.79502
-3.41249
-4.13267
-4.97447
-5.96135
-7.12258
-8.49484
-10.1253
-12.0776
-14.423
-17.1938
-20.6072
-26.155
0.988
0.999622
0.9861
0.965332
0.93311
0.892065
0.843377
0.78768
0.725404
0.65693
0.582643
0.502947
0.418282
0.329111
0.235918
0.139193
0.0394299
-0.0628811
-0.167267
-0.273322
0.779891
0.786425
0.774578
0.75129
0.718769
0.677898
0.62926
0.573415
0.510813
0.441865
0.366973
0.286558
0.201065
0.110962
0.0167327
-0.0811268
-0.182121
-0.285752
-0.391535
-0.499059
0.543337
0.546271
0.5344
0.511476
0.47869
0.437244
0.387825
0.331015
0.267296
0.197105
0.120869
0.0390212
-0.0479884
-0.139691
-0.235603
-0.335233
-0.438091
-0.543678
-0.651507
-0.761179
0.2611
0.262012
0.250116
0.227589
0.195022
0.153498
0.103741
0.0463607
-0.0181346
-0.0892787
-0.166623
-0.249717
-0.338099
-0.431294
-0.528817
-0.630174
-0.734875
-0.842417
-0.952308
-1.06416
-0.0639962
-0.0653141
-0.077917
-0.100781
-0.133539
-0.175368
-0.225611
-0.283684
-0.34907
-0.421286
-0.499867
-0.584348
-0.674257
-0.769111
-0.868419
-0.971688
-1.07842
-1.18811
-1.30025
-1.41448
-0.43813
-0.441597
-0.455274
-0.479101
-0.512541
-0.555058
-0.606108
-0.665155
-0.731692
-0.805232
-0.885302
-0.971424
-1.06312
-1.1599
-1.26126
-1.36671
-1.47575
-1.58787
-1.70255
-1.81944
-0.87061
-0.876014
-0.891132
-0.916152
-0.95051
-0.993995
-1.04612
-1.1064
-1.17433
-1.24943
-1.33123
-1.41924
-1.51297
-1.61194
-1.71564
-1.82356
-1.9352
-2.05003
-2.16755
-2.28742
-1.37148
-1.37866
-1.39533
-1.4219
-1.45722
-1.50191
-1.55536
-1.6171
-1.68665
-1.76355
-1.84732
-1.93747
-2.03351
-2.13495
-2.24127
-2.35196
-2.46652
-2.5844
-2.70509
-2.82828
-1.95231
-1.96114
-1.97925
-2.00647
-2.04391
-2.09015
-2.14516
-2.20859
-2.28
-2.35894
-2.44493
-2.53749
-2.63613
-2.74034
-2.8496
-2.9634
-3.08122
-3.20251
-3.32674
-3.45364
-2.62694
-2.63723
-2.65687
-2.68581
-2.72463
-2.77231
-2.82906
-2.8944
-2.96789
-3.04911
-3.13759
-3.23284
-3.33438
-3.44169
-3.55425
-3.67153
-3.793
-3.91809
-4.04627
-4.17731
-3.41206
-3.4236
-3.44463
-3.47507
-3.51496
-3.56476
-3.62343
-3.69084
-3.76662
-3.85035
-3.94158
-4.03983
-4.14459
-4.25535
-4.37157
-4.49273
-4.61827
-4.74759
-4.88018
-5.01582
-4.3282
-4.34068
-4.3629
-4.39473
-4.43622
-4.48779
-4.54831
-4.61786
-4.69609
-4.78254
-4.87678
-4.9783
-5.08661
-5.20116
-5.32144
-5.44689
-5.57694
-5.71096
-5.84842
-5.98918
-5.40078
-5.41381
-5.43689
-5.4699
-5.51272
-5.56518
-5.62841
-5.70015
-5.78091
-5.87025
-5.96769
-6.07273
-6.18486
-6.30356
-6.42826
-6.55842
-6.69342
-6.8326
-6.97544
-7.12181
-6.66177
-6.67474
-6.69814
-6.73186
-6.77584
-6.82974
-6.89363
-6.96845
-7.05184
-7.14404
-7.24473
-7.35345
-7.46965
-7.59279
-7.72227
-7.85753
-7.99791
-8.14272
-8.29139
-8.44388
-8.15267
-8.16469
-8.18757
-8.22124
-8.26571
-8.32068
-8.3858
-8.46152
-8.54813
-8.64294
-8.74692
-8.8595
-8.98004
-9.10788
-9.24243
-9.3831
-9.52925
-9.6801
-9.83504
-9.99407
-9.93137
-9.94114
-9.9623
-9.99483
-10.0388
-10.094
-10.16
-10.2363
-10.3233
-10.4219
-10.5298
-10.6465
-10.7714
-10.9038
-11.0434
-11.1895
-11.3417
-11.4989
-11.6604
-11.8262
-12.0676
-12.0736
-12.0915
-12.1216
-12.164
-12.2186
-12.285
-12.3629
-12.4522
-12.5528
-12.663
-12.7825
-12.9105
-13.0463
-13.1902
-13.3415
-13.4995
-13.6632
-13.8314
-14.004
-14.6005
-14.6002
-14.6121
-14.6371
-14.6753
-14.7267
-14.7908
-14.867
-14.9546
-15.0531
-15.1634
-15.2846
-15.4163
-15.5581
-15.7083
-15.866
-16.0306
-16.2014
-16.3772
-16.5569
-17.7475
-17.7359
-17.7381
-17.7557
-17.7885
-17.8358
-17.8972
-17.9719
-18.0593
-18.1585
-18.2693
-18.3912
-18.5239
-18.667
-18.8195
-18.9807
-19.1499
-19.3272
-19.5118
-19.7
-23.1009
-23.0666
-23.056
-23.0658
-23.093
-23.1362
-23.1943
-23.2665
-23.3522
-23.4507
-23.5616
-23.6843
-23.8186
-23.9638
-24.1195
-24.285
-24.4604
-24.6479
-24.848
-25.0488
-0.380694
-0.488774
-0.59733
-0.706009
-0.8145
-0.922489
-1.02967
-1.13571
-1.24031
-1.34313
-1.44383
-1.54205
-1.63736
-1.7292
-1.81681
-1.89892
-1.97327
-2.03442
-2.06554
-2.06232
-0.607998
-0.71767
-0.82784
-0.938121
-1.04819
-1.1577
-1.26635
-1.37379
-1.4797
-1.58372
-1.6855
-1.78466
-1.88073
-1.97313
-2.06095
-2.14315
-2.21877
-2.28279
-2.3194
-2.34183
-0.872387
-0.984401
-1.09699
-1.20976
-1.32235
-1.43443
-1.54565
-1.65567
-1.76415
-1.87073
-1.97502
-2.07664
-2.17512
-2.26985
-2.36002
-2.44476
-2.52353
-2.59309
-2.64496
-2.69091
-1.17768
-1.29209
-1.40716
-1.52246
-1.63765
-1.75236
-1.86623
-1.97892
-2.09005
-2.19927
-2.30618
-2.41035
-2.51134
-2.60854
-2.70123
-2.7887
-2.87036
-2.94404
-3.00663
-3.0679
-1.53051
-1.64749
-1.76522
-1.88325
-2.00121
-2.11873
-2.23543
-2.35094
-2.4649
-2.57692
-2.6866
-2.79352
-2.8972
-2.99709
-3.09256
-3.18305
-3.26795
-3.34586
-3.41629
-3.48678
-1.93826
-2.05812
-2.17881
-2.29985
-2.42088
-2.54149
-2.66132
-2.77997
-2.89706
-3.0122
-3.12498
-3.23498
-3.34172
-3.44471
-3.5434
-3.63734
-3.72604
-3.80873
-3.88592
-3.96279
-2.40936
-2.53242
-2.65638
-2.78077
-2.9052
-3.02926
-3.15255
-3.27469
-3.39527
-3.5139
-3.63017
-3.74365
-3.85389
-3.96043
-4.06281
-4.16069
-4.25371
-4.34151
-4.42494
-4.50731
-2.95369
-3.0803
-3.2079
-3.33601
-3.46421
-3.5921
-3.71925
-3.84528
-3.96977
-4.09231
-4.2125
-4.32992
-4.44415
-4.55476
-4.66137
-4.76371
-4.86153
-4.95474
-5.04415
-5.13191
-3.58293
-3.71349
-3.84515
-3.97739
-4.1098
-4.24195
-4.37342
-4.50379
-4.63266
-4.75961
-4.88424
-5.00614
-5.12491
-5.24018
-5.35161
-5.45898
-5.56213
-5.66108
-5.7565
-5.84984
-4.31092
-4.44589
-4.58207
-4.71891
-4.85601
-4.99292
-5.12922
-5.26447
-5.39826
-5.53019
-5.65984
-5.78682
-5.91077
-6.03133
-6.14822
-6.26125
-6.3703
-6.47541
-6.57708
-6.67642
-5.15425
-5.29413
-5.43532
-5.57729
-5.71962
-5.86183
-6.00351
-6.14422
-6.28354
-6.42106
-6.55638
-6.68912
-6.81893
-6.94547
-7.06851
-7.18785
-7.30341
-7.41519
-7.52355
-7.62943
-6.13294
-6.27824
-6.425
-6.57265
-6.72076
-6.86887
-7.01654
-7.16334
-7.30883
-7.45261
-7.59429
-7.73348
-7.86986
-8.00311
-8.13301
-8.25938
-8.3821
-8.50113
-8.61673
-8.72977
-7.27145
-7.42271
-7.57556
-7.72945
-7.88393
-8.03854
-8.19282
-8.34634
-8.49867
-8.6494
-8.79813
-8.94451
-9.08819
-9.22889
-9.36637
-9.50048
-9.63105
-9.75797
-9.88141
-10.0023
-8.59989
-8.75761
-8.91708
-9.07773
-9.23913
-9.4008
-9.5623
-9.72316
-9.88297
-10.0413
-10.1978
-10.352
-10.5037
-10.6526
-10.7984
-10.9409
-11.0801
-11.2155
-11.3474
-11.4768
-10.1569
-10.3215
-10.488
-10.6558
-10.8246
-10.9938
-11.1631
-11.3318
-11.4997
-11.6662
-11.8311
-11.9938
-12.1542
-12.3118
-12.4666
-12.6182
-12.7665
-12.9112
-13.0522
-13.1906
-11.996
-12.1677
-12.3414
-12.5167
-12.6931
-12.8702
-13.0476
-13.2246
-13.401
-13.5762
-13.7498
-13.9215
-14.091
-14.258
-14.4222
-14.5835
-14.7416
-14.8961
-15.0467
-15.1944
-14.1807
-14.3592
-14.5399
-14.7224
-14.9065
-15.0915
-15.277
-15.4624
-15.6474
-15.8314
-16.014
-16.1949
-16.3738
-16.5503
-16.7243
-16.8956
-17.0639
-17.2287
-17.3893
-17.5464
-16.7396
-16.9243
-17.1113
-17.3007
-17.4918
-17.6844
-17.8777
-18.0713
-18.2646
-18.4571
-18.6485
-18.8384
-19.0264
-19.2124
-19.396
-19.5771
-19.7554
-19.9307
-20.1022
-20.2689
-19.8859
-20.0734
-20.2639
-20.4579
-20.6547
-20.8535
-21.0535
-21.2541
-21.4546
-21.6546
-21.8536
-22.0513
-22.2475
-22.4418
-22.634
-22.8239
-23.0117
-23.1986
-23.3847
-23.5643
-25.2222
-25.4041
-25.5947
-25.7914
-25.9921
-26.1954
-26.4002
-26.6057
-26.8114
-27.0167
-27.2211
-27.4244
-27.6265
-27.8274
-28.0271
-28.2256
-28.4246
-28.6285
-28.8398
-29.0392
-29.18
-23.7288
-20.4304
-17.7007
-15.3398
-13.3268
-11.6041
-10.1211
-8.84075
-7.73333
-6.77401
-5.94188
-5.21921
-4.59082
-4.04371
-3.56653
-3.14837
-2.77941
-2.45998
-2.19866
-29.3251
-23.8866
-20.5863
-17.8498
-15.4805
-13.4588
-11.7274
-10.2362
-8.94825
-7.834
-6.8686
-6.0312
-5.30407
-4.67214
-4.12253
-3.64398
-3.2262
-2.86239
-2.55651
-2.30105
-29.4765
-24.0413
-20.7385
-17.9955
-15.6181
-13.5877
-11.8477
-10.3483
-9.05292
-7.93188
-6.96047
-6.11782
-5.38623
-4.7506
-4.19805
-3.71731
-3.29829
-2.93451
-2.62805
-2.36496
-29.631
-24.195
-20.8882
-18.1383
-15.7527
-13.7136
-11.9651
-10.4576
-9.15469
-8.02686
-7.0494
-6.2014
-5.46511
-4.8254
-4.26927
-3.78539
-3.36363
-2.99725
-2.68643
-2.4149
-29.7863
-24.3477
-21.0359
-18.2788
-15.8848
-13.837
-12.0798
-10.5642
-9.25374
-8.11908
-7.13547
-6.28197
-5.54078
-4.89664
-4.33647
-3.84881
-3.42346
-3.05336
-2.73742
-2.45899
-29.9414
-24.4996
-21.182
-18.4173
-16.0147
-13.958
-12.1921
-10.6683
-9.35024
-8.20869
-7.21885
-6.35975
-5.61349
-4.96473
-4.40027
-3.90857
-3.47938
-3.10541
-2.78464
-2.50068
-30.0959
-24.6504
-21.3266
-18.554
-16.1426
-14.0769
-12.3022
-10.7701
-9.44446
-8.29596
-7.29985
-6.43509
-5.6837
-5.03024
-4.46143
-3.96565
-3.53266
-3.15502
-2.82989
-2.54144
-30.2496
-24.8003
-21.4701
-18.6893
-16.2689
-14.194
-12.4105
-10.87
-9.53666
-8.3812
-7.37882
-6.50839
-5.75186
-5.09373
-4.52062
-4.02087
-3.58424
-3.20317
-2.87412
-2.58193
-30.4027
-24.9495
-21.6125
-18.8233
-16.3938
-14.3096
-12.5171
-10.9682
-9.62716
-8.46474
-7.45609
-6.58003
-5.81843
-5.1557
-4.57839
-4.07482
-3.63475
-3.25049
-2.91784
-2.62242
-30.5554
-25.0981
-21.7542
-18.9564
-16.5175
-14.4239
-12.6223
-11.065
-9.71626
-8.5469
-7.53203
-6.65041
-5.88382
-5.21659
-4.63522
-4.12796
-3.68461
-3.29733
-2.96134
-2.66306
-30.7078
-25.2463
-21.8954
-19.0887
-16.6403
-14.5371
-12.7264
-11.1606
-9.80423
-8.62798
-7.60696
-6.71986
-5.94838
-5.27676
-4.69144
-4.18064
-3.73415
-3.34398
-3.00479
-2.70393
-30.8605
-25.3944
-22.0362
-19.2205
-16.7625
-14.6496
-12.8297
-11.2554
-9.89136
-8.70826
-7.68117
-6.78868
-6.01241
-5.33653
-4.74738
-4.23315
-3.78362
-3.39064
-3.04837
-2.74512
-31.0137
-25.5428
-22.1771
-19.3521
-16.8841
-14.7615
-12.9323
-11.3496
-9.97789
-8.78801
-7.75492
-6.85714
-6.07619
-5.39615
-4.80328
-4.28572
-3.83322
-3.4375
-3.09223
-2.78675
-31.1679
-25.6916
-22.3181
-19.4835
-17.0055
-14.873
-13.0345
-11.4433
-10.0641
-8.86745
-7.82846
-6.92549
-6.13996
-5.45586
-4.85937
-4.33856
-3.88317
-3.48474
-3.13653
-2.82896
-31.3235
-25.8411
-22.4594
-19.615
-17.1268
-14.9843
-13.1365
-11.5369
-10.15
-8.9468
-7.90199
-6.99393
-6.20394
-5.51588
-4.91585
-4.39187
-3.93365
-3.53255
-3.18145
-2.87191
-31.4808
-25.9913
-22.6012
-19.7468
-17.2482
-15.0956
-13.2384
-11.6303
-10.236
-9.02623
-7.97571
-7.06267
-6.26831
-5.57639
-4.97292
-4.44585
-3.98485
-3.58111
-3.22718
-2.9158
-31.6409
-26.1428
-22.7437
-19.8789
-17.3696
-15.2068
-13.3403
-11.7238
-10.3221
-9.10586
-8.04975
-7.13185
-6.33324
-5.63757
-5.03075
-4.50067
-4.03695
-3.6306
-3.2739
-2.9608
-31.8069
-26.2964
-22.8867
-20.011
-17.491
-15.3179
-13.4421
-11.8173
-10.4083
-9.18577
-8.1242
-7.20157
-6.39883
-5.69953
-5.08947
-4.55647
-4.09009
-3.6812
-3.32178
-3.00708
-31.9803
-26.4522
-23.0299
-20.143
-17.6123
-15.4291
-13.544
-11.911
-10.4948
-9.26609
-8.19918
-7.27195
-6.46522
-5.7624
-5.1492
-4.61338
-4.14443
-3.73304
-3.37099
-3.05482
-32.1493
-26.6067
-23.1727
-20.2753
-17.7341
-15.5409
-13.6466
-12.0054
-10.5822
-9.34731
-8.27515
-7.3434
-6.53275
-5.82649
-5.21024
-4.67166
-4.2002
-3.78636
-3.42175
-3.10423
-2.30522
-1.51807
-1.08745
-0.788486
-0.607105
-0.472161
-0.3791
-0.307836
-0.253875
-0.21076
-0.175539
-0.145367
-0.118618
-0.0946382
-0.0732252
-0.0548865
-0.0397722
-0.0279679
-0.019235
-0.0130677
-0.00886498
-0.00606728
-0.0042209
-0.00299972
-0.00218229
-0.00162315
-0.00123292
-0.00095259
-0.000747366
-0.000593452
-0.000476382
-0.00038611
-0.000314371
-0.000254282
-0.000205377
-0.000157713
-0.000120051
-7.39455e-05
-5.05931e-05
7.67864e-06
-2.3653
-1.54877
-1.11474
-0.804238
-0.618044
-0.478233
-0.382262
-0.308768
-0.253354
-0.209284
-0.173574
-0.143321