/*--------------------------------*- C++ -*----------------------------------*\
| =========                 |                                                 |
| \\      /  F ield         | OpenFOAM: The Open Source CFD Toolbox           |
|  \\    /   O peration     | Version:  v1912                                 |
|   \\  /    A nd           | Website:  www.openfoam.com                      |
|    \\/     M anipulation  |                                                 |
\*---------------------------------------------------------------------------*/
FoamFile
{
    version     2.0;
    format      ascii;
    class       volVectorField;
    location    "3.5";
    object      U;
}
// * * * * * * * * * * * * * * * * * * * * * * * * * * * * * * * * * * * * * //

dimensions      [0 1 -1 0 0 0 0];


internalField   nonuniform List<vector> 
9600
(
(0.463619 -9.58998 -1.19425e-19)
(0.142431 -8.9963 0)
(0.176295 -8.47809 -6.349e-20)
(0.191759 -8.01921 0)
(0.196271 -7.60094 0)
(0.202911 -7.21028 -1.91554e-20)
(0.209638 -6.84038 4.47824e-23)
(0.215076 -6.48789 1.43444e-20)
(0.219156 -6.15137 0)
(0.221976 -5.83036 -2.31195e-20)
(0.223674 -5.52485 0)
(0.224442 -5.23489 -1.04196e-21)
(0.224494 -4.96045 -1.76663e-21)
(0.224047 -4.70132 -1.4227e-20)
(0.223297 -4.45707 1.11925e-20)
(0.222401 -4.22708 -1.09963e-20)
(0.221454 -4.01057 9.25675e-21)
(0.220655 -3.80666 0)
(0.220478 -3.61443 -6.91157e-21)
(0.219946 -3.43299 7.75892e-21)
(0.839291 -9.56605 -2.33341e-19)
(0.496482 -8.9913 1.23448e-20)
(0.51056 -8.47659 1.31883e-19)
(0.508418 -8.02031 -1.03293e-19)
(0.496824 -7.60368 1.0187e-19)
(0.488312 -7.21355 0)
(0.480601 -6.84343 3.53986e-20)
(0.472212 -6.49031 -3.45098e-20)
(0.463047 -6.15296 -5.70108e-20)
(0.45321 -5.83108 6.69328e-20)
(0.442855 -5.52477 -4.3068e-20)
(0.43219 -5.23413 -1.58294e-20)
(0.42144 -4.95919 3.28248e-20)
(0.410819 -4.69974 0)
(0.400514 -4.45536 0)
(0.390661 -4.22541 4.00486e-20)
(0.381325 -4.00908 -6.73748e-20)
(0.372703 -3.80543 0)
(0.365317 -3.61343 0)
(0.357921 -3.43217 -2.87781e-20)
(1.21425 -9.52805 4.81686e-19)
(0.850245 -8.97273 0)
(0.844916 -8.46216 -2.57029e-19)
(0.825438 -8.00909 -2.22345e-19)
(0.797888 -7.59469 0)
(0.774278 -7.20562 3.21512e-19)
(0.752118 -6.8358 -2.96823e-19)
(0.729854 -6.48255 5.40774e-20)
(0.707376 -6.14488 -1.21566e-19)
(0.68481 -5.82263 -1.88262e-19)
(0.662337 -5.51599 2.46116e-19)
(0.640186 -5.22515 -1.47534e-19)
(0.618592 -4.95015 -6.28282e-20)
(0.597771 -4.69082 0)
(0.577902 -4.44673 2.72949e-21)
(0.559096 -4.21722 4.27203e-20)
(0.541389 -4.00146 1.6962e-20)
(0.524971 -3.79845 0)
(0.5104 -3.60705 3.01255e-20)
(0.49614 -3.42637 3.08029e-20)
(1.58733 -9.47569 -6.44762e-19)
(1.20307 -8.94057 -2.79927e-19)
(1.17879 -8.43489 2.75177e-19)
(1.14231 -7.98567 4.31656e-19)
(1.09898 -7.57405 -2.06428e-19)
(1.06035 -7.18654 1.1727e-21)
(1.02374 -6.81753 1.43718e-19)
(0.987565 -6.46467 1.24582e-19)
(0.951724 -6.12717 2.17233e-19)
(0.916376 -5.80503 0)
(0.881736 -5.49855 7.37516e-20)
(0.84806 -5.20796 -8.14101e-20)
(0.815599 -4.93336 6.63333e-21)
(0.784571 -4.67458 1.17604e-19)
(0.755144 -4.43119 9.35681e-20)
(0.727408 -4.20253 -1.3066e-19)
(0.701366 -3.98773 4.27757e-20)
(0.677199 -3.78574 -6.49946e-20)
(0.655489 -3.59532 6.43502e-20)
(0.634389 -3.41558 -3.07995e-20)
(1.95821 -9.40903 3.23143e-19)
(1.55468 -8.89495 0)
(1.51182 -8.39482 2.58573e-19)
(1.4586 -7.95002 0)
(1.39967 -7.54171 0)
(1.34607 -7.15628 -1.77815e-19)
(1.29503 -6.78858 -3.01172e-19)
(1.24492 -6.4366 -2.37456e-19)
(1.19568 -6.09978 1.45523e-20)
(1.14751 -5.77826 -9.57521e-20)
(1.10067 -5.47242 0)
(1.05545 -5.18256 -7.31403e-20)
(1.01211 -4.9088 -1.27678e-19)
(0.970883 -4.65099 1.06595e-19)
(0.931923 -4.40872 -2.97958e-19)
(0.895297 -4.18132 4.83935e-20)
(0.860974 -3.96788 3.49498e-20)
(0.829125 -3.76729 -7.28206e-20)
(0.800341 -3.57821 -3.0612e-20)
(0.772452 -3.3998 8.96307e-20)
(2.32633 -9.32808 2.98384e-19)
(1.90457 -8.83586 2.73093e-19)
(1.84352 -8.34197 0)
(1.77386 -7.90217 0)
(1.69949 -7.49767 -3.66896e-19)
(1.63101 -7.11483 2.12145e-19)
(1.56555 -6.74894 4.58717e-19)
(1.50149 -6.39835 0)
(1.43882 -6.06271 1.09954e-19)
(1.3778 -5.74231 9.5752e-20)
(1.31875 -5.4376 -1.58805e-19)
(1.26198 -5.14895 2.29211e-19)
(1.20778 -4.87649 6.41791e-20)
(1.15637 -4.62009 0)
(1.10792 -4.37935 4.98408e-20)
(1.06246 -4.1536 2.13273e-19)
(1.01993 -3.94191 -1.27029e-19)
(0.980481 -3.7431 1.34137e-19)
(0.944715 -3.55574 -2.51897e-19)
(0.910113 -3.37904 2.90418e-19)
(2.69116 -9.23293 2.99923e-19)
(2.25228 -8.76336 -1.54967e-18)
(2.17346 -8.27638 0)
(2.08762 -7.84212 0)
(1.99799 -7.44195 0)
(1.91471 -7.06219 -3.41418e-19)
(1.83485 -6.69861 0)
(1.75684 -6.34992 -4.98164e-19)
(1.68073 -6.01598 4.47291e-19)
(1.60686 -5.6972 -4.01329e-19)
(1.53559 -5.39412 0)
(1.46728 -5.10715 0)
(1.40224 -4.83644 0)
(1.3407 -4.58189 -1.15577e-19)
(1.28281 -4.3431 0)
(1.22859 -4.11939 0)
(1.17794 -3.90984 -1.52699e-19)
(1.131 -3.7132 1.50031e-19)
(1.08836 -3.52792 0)
(1.04715 -3.35331 0)
(3.05216 -9.12369 -9.87445e-19)
(2.59731 -8.67749 6.0926e-19)
(2.50115 -8.19808 0)
(2.39944 -7.76991 0)
(2.29472 -7.37456 0)
(2.19672 -6.99837 3.19916e-19)
(2.10249 -6.63761 -3.17302e-19)
(2.01054 -6.29133 -1.9378e-21)
(1.921 -5.9596 -4.37036e-19)
(1.83428 -5.64296 4.03041e-19)
(1.75081 -5.34201 -1.71821e-19)
(1.67099 -5.05719 2.84166e-19)
(1.59515 -4.78869 -2.90376e-20)
(1.52353 -4.53642 -2.47157e-19)
(1.45627 -4.29999 -1.9573e-19)
(1.39337 -4.07872 1.92299e-19)
(1.3347 -3.87169 0)
(1.28039 -3.6776 0)
(1.23101 -3.49478 1.24299e-19)
(1.18332 -3.32266 -1.3944e-19)
(3.40878 -9.00051 6.58827e-19)
(2.93916 -8.57836 5.7612e-19)
(2.82613 -8.10713 -1.06848e-18)
(2.70885 -7.68557 4.9261e-19)
(2.58922 -7.29551 0)
(2.47659 -6.92339 3.4375e-19)
(2.36804 -6.56595 -2.81697e-19)
(2.26216 -6.2226 7.8107e-19)
(2.1592 -5.89361 -1.56901e-20)
(2.05965 -5.57962 0)
(1.96401 -5.2813 3.45197e-19)
(1.87273 -4.99912 0)
(1.78615 -4.7333 0)
(1.70452 -4.48374 -1.06684e-19)
(1.62797 -4.25007 2.19678e-19)
(1.55649 -4.03164 0)
(1.48992 -3.82751 1.57348e-19)
(1.42837 -3.63634 6.034e-20)
(1.3724 -3.45636 -1.38297e-19)
(1.31838 -3.28712 1.30991e-19)
(3.76049 -8.86354 -6.6518e-19)
(3.27732 -8.46605 5.79388e-19)
(3.14791 -8.00361 -1.61055e-18)
(3.01537 -7.58914 4.95565e-19)
(2.88101 -7.20487 0)
(2.75385 -6.83729 -6.7507e-19)
(2.63103 -6.48368 3.2169e-19)
(2.51127 -6.14379 0)
(2.39492 -5.81805 -2.28819e-19)
(2.28258 -5.50724 -3.76258e-19)
(2.17482 -5.21206 -3.08252e-19)
(2.07213 -4.93301 3.41709e-20)
(1.97487 -4.67031 2.84925e-19)
(1.88332 -4.42389 1.06659e-19)
(1.79758 -4.19339 -2.14648e-20)
(1.71763 -3.97818 -1.97302e-19)
(1.64328 -3.77734 -8.41939e-20)
(1.57464 -3.58946 -7.41934e-20)
(1.51224 -3.41268 1.89788e-19)
(1.45209 -3.24673 -2.88722e-19)
(4.10676 -8.71298 6.65182e-19)
(3.61131 -8.3407 -4.01194e-20)
(3.46603 -7.8876 4.98804e-19)
(3.31854 -7.48071 0)
(3.16964 -7.10267 -3.79203e-19)
(3.02805 -6.74013 7.22017e-19)
(2.89102 -6.39086 -5.71449e-19)
(2.75742 -6.05494 5.62353e-19)
(2.62773 -5.733 -2.05047e-19)
(2.50266 -5.42588 4.26607e-19)
(2.38285 -5.13434 1.74924e-19)
(2.26882 -4.85891 0)
(2.16098 -4.59979 0)
(2.05958 -4.35694 -1.09313e-19)
(1.96476 -4.13002 2.15108e-20)
(1.87645 -3.91841 3.81125e-19)
(1.79446 -3.72122 -9.39376e-20)
(1.71888 -3.53701 2.90689e-19)
(1.65025 -3.36381 4.38814e-20)
(1.58415 -3.20155 -2.93775e-19)
(4.44709 -8.54901 -2.01302e-18)
(3.94065 -8.20245 -6.29473e-19)
(3.78001 -7.7592 -1.62295e-18)
(3.61788 -7.36033 -9.40293e-19)
(3.45463 -6.98899 -4.32633e-19)
(3.29873 -6.63197 -4.19624e-19)
(3.14756 -6.28755 -1.26468e-18)
(3.00018 -5.95614 -3.19135e-20)
(2.85722 -5.63852 -9.30036e-19)
(2.71949 -5.33562 2.38917e-20)
(2.5877 -5.04824 -3.55926e-19)
(2.46243 -4.7769 -3.12993e-19)
(2.3441 -4.52183 2.76155e-19)
(2.23297 -4.28297 -2.44489e-19)
(2.12917 -4.06001 -2.17204e-19)
(2.03263 -3.85238 -1.93636e-19)
(1.94313 -3.6592 -5.02256e-19)
(1.86078 -3.47904 1.83342e-19)
(1.7861 -3.30979 4.16915e-19)
(1.7143 -3.15163 -4.43525e-19)
(4.78096 -8.37187 2.69249e-18)
(4.26484 -8.05146 3.10027e-18)
(4.08938 -7.61854 5.01654e-19)
(3.91293 -7.22812 2.32905e-18)
(3.73553 -6.86392 -4.41777e-19)
(3.56542 -6.51291 2.0823e-18)
(3.4002 -6.17385 5.73214e-19)
(3.23913 -5.84747 1.57403e-18)
(3.08298 -5.53471 -4.68944e-19)
(2.93268 -5.23656 1.24838e-18)
(2.78901 -4.95384 7.14809e-19)
(2.65261 -4.68708 6.28794e-19)
(2.5239 -4.43649 -8.18911e-19)
(2.40315 -4.20204 7.50871e-19)
(2.29048 -3.98343 4.36917e-19)
(2.18582 -3.78014 3.8971e-19)
(2.08895 -3.59134 3.48804e-19)
(1.99999 -3.41558 2.31698e-21)
(1.91945 -3.25067 2.81737e-19)
(1.84221 -3.09703 2.91859e-19)
(5.1079 -8.18181 -1.97093e-18)
(4.58345 -7.88791 6.99805e-19)
(4.39369 -7.46575 1.60979e-18)
(4.20322 -7.08418 -1.8985e-18)
(4.01185 -6.72755 4.34642e-19)
(3.82768 -6.38303 -1.38073e-18)
(3.64851 -6.04986 6.64168e-19)
(3.47383 -5.72905 -1.0446e-18)
(3.30459 -5.42167 3.18153e-20)
(3.14183 -5.12879 3.0506e-21)
(2.98641 -4.85124 -7.20639e-19)
(2.839 -4.58953 -3.15802e-19)
(2.70003 -4.34388 5.60303e-19)
(2.56977 -4.11424 2.5169e-21)
(2.44834 -3.90036 -2.00143e-20)
(2.33568 -3.70175 -4.12082e-19)
(2.23156 -3.51766 -1.75591e-19)
(2.13612 -3.34666 -1.3112e-20)
(2.04992 -3.18647 -2.97054e-19)
(1.96752 -3.03781 -1.47225e-19)
(5.42747 -7.97908 0)
(4.89601 -7.712 -1.26553e-18)
(4.69247 -7.30096 5.90797e-21)
(4.48828 -6.92863 1.85264e-18)
(4.28313 -6.58001 7.17145e-19)
(4.08503 -6.24247 -7.65715e-19)
(3.89203 -5.9157 -6.20571e-19)
(3.70386 -5.60099 0)
(3.52166 -5.29953 -4.46933e-19)
(3.34657 -5.01244 4.18946e-19)
(3.17954 -4.74055 -2.32926e-20)
(3.02125 -4.48436 0)
(2.87215 -4.24407 -2.81459e-19)
(2.73252 -4.01964 2.28685e-19)
(2.60245 -3.81084 1.78869e-19)
(2.48188 -3.61723 -2.35656e-19)
(2.37061 -3.43817 -1.95113e-19)
(2.2688 -3.27227 3.22122e-19)
(2.1771 -3.11718 -2.90543e-19)
(2.08979 -2.97395 1.52209e-19)
(5.73926 -7.76392 1.99601e-18)
(5.2021 -7.52391 -1.29857e-18)
(4.98527 -7.12433 -1.02964e-18)
(4.76765 -6.7616 4.5749e-19)
(4.54892 -6.42143 -8.88775e-19)
(4.33703 -6.09137 0)
(4.13033 -5.77152 0)
(3.92881 -5.46344 0)
(3.73379 -5.16843 -2.74474e-20)
(3.54653 -4.88764 -8.36994e-19)
(3.36805 -4.62189 3.87843e-19)
(3.19904 -4.37168 3.06442e-19)
(3.03998 -4.13717 2.41937e-19)
(2.89109 -3.91832 -1.01656e-18)
(2.75249 -3.71492 4.74525e-19)
(2.62411 -3.52661 0)
(2.50574 -3.35286 -1.49711e-20)
(2.39762 -3.19234 -5.03488e-19)
(2.30051 -3.04272 -2.00439e-21)
(2.20852 -2.90532 -1.52238e-19)
(6.04295 -7.53665 -1.36841e-18)
(5.5013 -7.32386 -6.83301e-19)
(5.27161 -6.93603 4.49377e-19)
(5.04084 -6.58325 -1.248e-19)
(4.80873 -6.25197 -2.51693e-18)
(4.58321 -5.92987 2.18333e-18)
(4.36297 -5.61747 -4.04422e-20)
(4.14827 -5.31656 5.50053e-19)
(3.9406 -5.02853 4.7742e-19)
(3.74136 -4.75454 4.20743e-19)
(3.55161 -4.49541 3.69755e-19)
(3.37208 -4.25161 6.34968e-19)
(3.20321 -4.02328 -3.03506e-19)
(3.04523 -3.81037 7.4392e-19)
(2.89822 -3.61267 -4.78887e-19)
(2.76209 -3.42991 -1.85649e-19)
(2.63667 -3.26168 7.50118e-19)
(2.52226 -3.10683 4.83316e-19)
(2.41981 -2.96296 -1.31868e-20)
(2.32343 -2.83165 0)
(6.33858 -7.2978 -6.89074e-19)
(5.79335 -7.11211 1.28494e-18)
(5.55105 -6.73621 1.04942e-18)
(5.30737 -6.39371 -1.25373e-19)
(5.06207 -6.07176 -8.50433e-19)
(4.82311 -5.75813 5.17116e-20)
(4.5895 -5.45373 3.36173e-21)
(4.36181 -5.16053 3.05028e-21)
(4.1417 -4.88 0)
(3.9307 -4.61331 4.02464e-19)
(3.72991 -4.36126 -7.62826e-19)
(3.54007 -4.12429 -3.08891e-19)
(3.3616 -3.9025 3.05758e-19)
(3.19469 -3.69584 -2.56498e-19)
(3.03938 -3.5041 2.30697e-19)
(2.89557 -3.3271 -2.04885e-19)
(2.76311 -3.16459 1.70277e-21)
(2.64238 -3.01554 -1.66102e-19)
(2.53463 -2.87759 -1.50167e-19)
(2.43431 -2.75292 -1.48965e-19)
(6.62654 -7.04786 0)
(6.07812 -6.88865 -6.07601e-19)
(5.82312 -6.52488 6.00639e-19)
(5.56672 -6.19309 9.7603e-19)
(5.30847 -5.88099 -8.45915e-19)
(5.05626 -5.57639 6.8961e-19)
(4.8095 -5.28053 -1.31391e-18)
(4.56904 -4.99558 -1.10916e-18)
(4.33675 -4.72308 -4.58331e-19)
(4.11424 -4.46417 2.7318e-20)
(3.90267 -4.21964 -3.54407e-19)
(3.70277 -3.98988 1.99313e-20)
(3.51493 -3.77497 0)
(3.33928 -3.57481 -4.95329e-19)
(3.17578 -3.38922 2.55955e-19)
(3.02429 -3.21807 0)
(2.88463 -3.0612 -1.85889e-19)
(2.75726 -2.91771 -3.23497e-19)
(2.64359 -2.78573 3.17867e-19)
(2.53894 -2.66951 1.53597e-19)
(6.90653 -6.7861 0)
(6.35517 -6.6529 0)
(6.08725 -6.30201 -1.05938e-18)
(5.81835 -5.98167 -8.49586e-19)
(5.54742 -5.68002 1.75269e-18)
(5.28223 -5.38501 0)
(5.02258 -5.09824 0)
(4.76963 -4.82208 5.56048e-19)
(4.52544 -4.55809 0)
(4.29172 -4.30744 0)
(4.06968 -4.07085 0)
(3.86005 -3.84867 0)
(3.66315 -3.64092 0)
(3.47904 -3.44746 0)
(3.30759 -3.26809 0)
(3.14853 -3.10266 0)
(3.00164 -2.95093 0)
(2.86701 -2.81214 0)
(2.74493 -2.68618 0)
(2.63234 -2.5797 0)
(9.79581 0.0865107 8.99742e-20)
(9.78441 -0.299547 1.72903e-19)
(9.7582 -0.68364 -1.80018e-19)
(9.71772 -1.06565 3.59997e-19)
(9.66266 -1.44527 -3.59997e-19)
(9.5928 -1.82206 -3.31447e-19)
(9.50824 -2.19548 -3.312e-19)
(9.40913 -2.56502 1.07675e-18)
(9.29567 -2.93015 -7.17672e-19)
(9.16805 -3.29031 7.15368e-19)
(9.02651 -3.64498 -7.1537e-19)
(8.87131 -3.99364 7.13218e-19)
(8.7027 -4.33578 -1.42139e-18)
(8.521 -4.6709 2.07527e-18)
(8.32652 -4.99852 0)
(8.11959 -5.3182 -2.05992e-18)
(7.90056 -5.62951 4.19488e-21)
(7.66989 -5.93209 2.10732e-18)
(7.42765 -6.22579 0)
(7.1754 -6.5099 0)
(9.4268 -0.215174 0)
(9.40224 -0.585232 -1.33117e-20)
(9.36237 -0.952916 0)
(9.30783 -1.31792 3.16919e-19)
(9.23886 -1.67993 3.37638e-19)
(9.15542 -2.03845 -9.59843e-19)
(9.05776 -2.39291 1.71873e-18)
(8.94609 -2.74279 -6.74387e-19)
(8.82068 -3.08754 -6.32152e-19)
(8.68179 -3.42663 -6.31167e-19)
(8.5297 -3.75957 4.00597e-20)
(8.36473 -4.08585 6.66956e-19)
(8.18721 -4.40499 -3.29774e-18)
(7.99748 -4.71654 -7.25587e-19)
(7.7959 -5.02007 1.32991e-18)
(7.58287 -5.31517 1.34687e-18)
(7.3587 -5.60148 6.97707e-19)
(7.12384 -5.87867 -1.3174e-18)
(6.87829 -6.14652 6.15302e-19)
(6.62268 -6.40456 0)
(9.02378 -0.166035 7.28997e-20)
(9.00319 -0.518805 -1.51098e-19)
(8.96751 -0.869883 4.29608e-19)
(8.91723 -1.21871 -3.13111e-19)
(8.85265 -1.5648 -2.9252e-19)
(8.77383 -1.90758 3.133e-19)
(8.68106 -2.24647 0)
(8.57461 -2.58091 0)
(8.45472 -2.91036 1.17371e-18)
(8.3217 -3.2343 1.75431e-18)
(8.17583 -3.55221 -5.40806e-19)
(8.01746 -3.86361 1.74105e-18)
(7.84691 -4.16801 -5.39894e-19)
(7.66455 -4.46498 -1.6969e-18)
(7.47075 -4.75407 3.48005e-21)
(7.26589 -5.03489 1.07557e-18)
(7.05031 -5.30706 -4.63678e-19)
(6.82441 -5.57022 -1.07241e-18)
(6.5884 -5.82406 -6.08253e-19)
(6.34268 -6.06802 1.06402e-18)
(8.59444 -0.142431 0)
(8.57801 -0.477023 1.18766e-19)
(8.54709 -0.81045 1.17942e-19)
(8.50203 -1.14208 -4.91728e-19)
(8.44307 -1.47132 0)
(8.37027 -1.79758 0)
(8.28393 -2.1203 0)
(8.18427 -2.4389 0)
(8.07155 -2.75283 -5.41811e-19)
(7.94606 -3.06158 -5.41042e-19)
(7.80808 -3.36461 0)
(7.65795 -3.66145 1.0073e-18)
(7.49599 -3.95162 -2.48503e-18)
(7.32256 -4.23465 2.01278e-18)
(7.13803 -4.51012 -1.93965e-18)
(6.94277 -4.77761 -4.71663e-19)
(6.73714 -5.03673 1.28109e-19)
(6.52153 -5.28707 1.27721e-19)
(6.29628 -5.52832 -9.84658e-19)
(6.06173 -5.75993 -6.58063e-20)
(8.15471 -0.135307 0)
(8.14193 -0.451391 -1.17131e-19)
(8.1154 -0.7667 0)
(8.0754 -1.08062 2.34988e-19)
(8.02207 -1.39253 2.19904e-19)
(7.95544 -1.70185 1.94015e-19)
(7.87579 -2.008 0)
(7.78332 -2.31044 0)
(7.67826 -2.60863 0)
(7.56087 -2.90203 0)
(7.43142 -3.19014 4.12254e-19)
(7.29022 -3.47246 4.61992e-19)
(7.13758 -3.74852 4.64242e-19)
(6.97384 -4.01786 -4.67568e-19)
(6.79936 -4.28005 -7.57685e-19)
(6.61449 -4.53466 9.24723e-19)
(6.41959 -4.78128 1.7819e-18)
(6.21506 -5.01951 8.65833e-19)
(6.00127 -5.24901 0)
(5.77853 -5.46927 -8.01313e-19)
(7.71722 -0.129095 2.23075e-20)
(7.70769 -0.426889 0)
(7.6852 -0.724209 -3.69835e-19)
(7.64996 -1.02049 -2.64357e-22)
(7.60203 -1.31512 1.08665e-20)
(7.54145 -1.60752 -4.7898e-20)
(7.46845 -1.89715 0)
(7.3832 -2.18348 2.17862e-20)
(7.28591 -2.46598 -3.81658e-19)
(7.17681 -2.74413 7.39871e-19)
(7.05614 -3.01744 -7.86956e-19)
(6.92418 -3.28542 4.48248e-19)
(6.78122 -3.5476 -2.22899e-18)
(6.62758 -3.80354 1.46859e-18)
(6.46359 -4.05279 8.04478e-19)
(6.28959 -4.29493 0)
(6.10593 -4.52956 -1.45179e-18)
(5.91299 -4.75627 -4.92937e-20)
(5.71114 -4.9747 -1.44013e-18)
(5.50068 -5.18436 1.53038e-18)
(7.29182 -0.124309 1.92986e-20)
(7.28489 -0.404387 -4.12637e-20)
(7.26578 -0.684223 3.42432e-19)
(7.23465 -0.963295 -9.10133e-21)
(7.19152 -1.24102 3.43335e-19)
(7.13642 -1.51685 -5.20662e-19)
(7.06955 -1.79027 0)
(6.99106 -2.06076 3.54351e-19)
(6.90111 -2.32783 3.13646e-19)
(6.79992 -2.59097 -3.53625e-19)
(6.68769 -2.8497 6.2536e-19)
(6.56468 -3.10357 1.36491e-18)
(6.43117 -3.35211 -6.15805e-19)
(6.28743 -3.59488 -6.99142e-19)
(6.13377 -3.83147 6.56603e-19)
(5.97052 -4.06143 0)
(5.79801 -4.28439 4.44612e-20)
(5.61659 -4.49993 2.65044e-21)
(5.42664 -4.70769 1.33564e-18)
(5.22843 -4.9072 6.06295e-19)
(6.88515 -0.121248 0)
(6.88013 -0.384442 3.97108e-21)
(6.86368 -0.647563 -6.43712e-20)
(6.83593 -0.91013 -2.99111e-19)
(6.79686 -1.1716 2.74751e-19)
(6.74652 -1.43144 0)
(6.68506 -1.68919 5.65423e-19)
(6.61261 -1.94433 -1.99787e-22)
(6.52932 -2.19641 -8.73455e-19)
(6.43536 -2.44495 0)
(6.33093 -2.6895 -6.15407e-19)
(6.21626 -2.9296 3.0618e-20)
(6.09159 -3.16482 -1.6955e-18)
(5.95719 -3.39475 1.80851e-21)
(5.81333 -3.61895 5.72991e-19)
(5.66032 -3.83704 0)
(5.49848 -4.04861 -5.6658e-19)
(5.32814 -4.25327 2.43122e-21)
(5.14965 -4.45068 5.64156e-19)
(4.96329 -4.64035 -5.96643e-19)
(6.50105 -0.119284 0)
(6.49734 -0.36656 6.71988e-20)
(6.48292 -0.613889 1.41406e-19)
(6.45787 -0.860818 -2.54367e-19)
(6.42218 -1.10684 -1.55929e-20)
(6.37588 -1.35146 -1.27383e-19)
(6.3191 -1.59424 -5.11996e-19)
(6.25196 -1.83471 2.54526e-19)
(6.17457 -2.07241 1.54703e-20)
(6.08711 -2.30692 2.5371e-19)
(5.98973 -2.5378 2.26614e-19)
(5.88266 -2.76462 1.0159e-18)
(5.7661 -2.98697 5.09623e-19)
(5.64031 -3.20446 1.00494e-18)
(5.50554 -3.41668 -5.0161e-19)
(5.36208 -3.62325 2.54937e-20)
(5.21024 -3.82378 -4.97714e-19)
(5.05031 -4.0179 0)
(4.88265 -4.20525 4.65744e-19)
(4.70751 -4.38539 0)
(6.14131 -0.117903 2.7855e-20)
(6.13844 -0.350305 -8.08838e-20)
(6.12553 -0.582845 2.24706e-19)
(6.10262 -0.815089 -1.12115e-19)
(6.0697 -1.04657 1.11209e-20)
(6.0268 -1.27683 -1.12193e-19)
(5.97405 -1.50546 2.37542e-19)
(5.91152 -1.73201 -2.2404e-19)
(5.83933 -1.95607 2.2404e-19)
(5.75762 -2.17722 4.24424e-19)
(5.66655 -2.39506 -4.72287e-19)
(5.56632 -2.60919 -2.71574e-20)
(5.45711 -2.81922 -1.35581e-18)
(5.33916 -3.02478 1.67915e-21)
(5.21271 -3.22548 2.34236e-20)
(5.07804 -3.42097 8.79699e-19)
(4.93542 -3.61088 -4.34894e-19)
(4.78515 -3.79484 -4.09237e-19)
(4.62757 -3.97251 -2.51801e-20)
(4.46293 -4.14345 0)
(5.80633 -0.116861 0)
(5.80391 -0.335416 1.01563e-19)
(5.79211 -0.554168 -3.47292e-19)
(5.7709 -0.772701 -8.97956e-20)
(5.74026 -0.990578 2.09561e-19)
(5.70024 -1.20738 0)
(5.65092 -1.42272 0)
(5.5924 -1.63617 1.9803e-19)
(5.52476 -1.84736 -1.9803e-19)
(5.44814 -2.0559 1.55681e-19)
(5.36269 -2.2614 -1.97148e-19)
(5.26857 -2.46349 3.91759e-19)
(5.16597 -2.66182 -7.82004e-19)
(5.05511 -2.85603 7.78841e-19)
(4.93622 -3.04576 2.15546e-20)
(4.80954 -3.23068 -4.08318e-19)
(4.67537 -3.41043 -3.83009e-19)
(4.53398 -3.58468 7.87379e-19)
(4.3857 -3.75309 3.60851e-19)
(4.23078 -3.91522 0)
(5.49561 -0.115991 1.02443e-21)
(5.49343 -0.321667 6.39351e-20)
(5.48243 -0.527614 1.36772e-19)
(5.46257 -0.733402 9.75568e-20)
(5.43382 -0.938613 8.81783e-20)
(5.39622 -1.14286 8.01116e-20)
(5.34986 -1.34578 0)
(5.29482 -1.54698 -3.35742e-19)
(5.23117 -1.74611 -1.75378e-19)
(5.15905 -1.94279 1.40145e-19)
(5.07858 -2.13668 0)
(4.98992 -2.32743 3.47163e-19)
(4.89325 -2.51471 -1.02293e-18)
(4.78876 -2.69818 3.45651e-19)
(4.67669 -2.87753 0)
(4.55727 -3.05242 -3.25035e-19)
(4.43077 -3.22256 -6.61749e-19)
(4.29749 -3.38759 3.2322e-19)
(4.15774 -3.54721 -1.80038e-20)
(4.01177 -3.70099 0)
(5.20822 -0.115116 1.82998e-21)
(5.20612 -0.308905 -4.11773e-20)
(5.19568 -0.502991 7.86198e-20)
(5.1769 -0.696954 -6.80235e-21)
(5.14973 -0.890403 1.57383e-19)
(5.11421 -1.08298 -2.44061e-19)
(5.07041 -1.27433 0)
(5.0184 -1.46411 2.99016e-20)
(4.95826 -1.65197 0)
(4.89011 -1.83758 -3.28236e-19)
(4.81407 -2.0206 0)
(4.73029 -2.20071 -2.95716e-19)
(4.63893 -2.37761 9.2602e-19)
(4.54017 -2.55098 -6.13152e-19)
(4.43424 -2.72055 3.05761e-19)
(4.32138 -2.88601 -2.58976e-19)
(4.20184 -3.04708 3.17569e-19)
(4.07593 -3.20344 -3.15704e-19)
(3.94396 -3.35479 0)
(3.80622 -3.50072 0)
(4.94295 -0.114189 1.83715e-20)
(4.94082 -0.297033 0)
(4.9308 -0.480139 0)
(4.91291 -0.663142 -1.47878e-19)
(4.88707 -0.845688 -1.35258e-19)
(4.85332 -1.02744 0)
(4.81175 -1.20805 0)
(4.7624 -1.38721 2.55438e-20)
(4.70537 -1.56459 2.68388e-19)
(4.64074 -1.73987 -1.28034e-19)
(4.56865 -1.91275 -1.39327e-19)
(4.48923 -2.08292 5.66555e-19)
(4.40263 -2.25011 -8.39583e-19)
(4.30903 -2.41404 5.36202e-19)
(4.20863 -2.57445 0)
(4.10168 -2.73107 1.08482e-18)
(3.98843 -2.88365 -7.80546e-19)
(3.8692 -3.03191 2.67577e-19)
(3.74432 -3.17556 5.05822e-19)
(3.61411 -3.3142 0)
(4.6985 -0.113184 -1.51778e-20)
(4.69628 -0.285904 0)
(4.68658 -0.458874 -2.5312e-21)
(4.66942 -0.631755 -1.22081e-19)
(4.6447 -0.804219 3.81959e-19)
(4.6125 -0.975943 -6.35037e-20)
(4.57288 -1.14662 0)
(4.52589 -1.31593 5.07131e-19)
(4.4716 -1.48358 -2.63688e-19)
(4.41013 -1.64927 2.19948e-20)
(4.34157 -1.81271 2.39464e-19)
(4.26607 -1.97364 2.47605e-19)
(4.18375 -2.13179 -4.93676e-19)
(4.09479 -2.28692 -4.81049e-19)
(3.99939 -2.43878 -4.6659e-19)
(3.89777 -2.58717 -5.07507e-19)
(3.7902 -2.73186 5.03987e-19)
(3.677 -2.87261 -2.3747e-19)
(3.55855 -3.00917 -2.59491e-19)
(3.43523 -3.14116 0)
(4.47358 -0.112094 1.49118e-20)
(4.47122 -0.275455 -5.51882e-20)
(4.46177 -0.439034 -5.77358e-20)
(4.44521 -0.602598 1.73073e-19)
(4.42147 -0.765759 -6.24814e-20)
(4.39062 -0.928219 -5.74095e-20)
(4.35272 -1.08969 0)
(4.30783 -1.2499 -2.38365e-19)
(4.25602 -1.40854 0)
(4.19738 -1.56535 2.36465e-19)
(4.13202 -1.72006 -4.51561e-19)
(4.06005 -1.87241 2.23011e-19)
(3.98161 -2.02218 -4.44477e-19)
(3.89686 -2.16914 4.6338e-19)
(3.80598 -2.31309 2.58077e-19)
(3.70918 -2.45384 0)
(3.60674 -2.59125 -2.14628e-19)
(3.49899 -2.7251 2.14629e-19)
(3.38633 -2.85524 0)
(3.26927 -2.98131 0)
(4.26692 -0.110941 0)
(4.26441 -0.26567 5.42218e-20)
(4.25512 -0.420618 2.12658e-21)
(4.23904 -0.575547 -5.64897e-20)
(4.21619 -0.7301 -4.84416e-20)
(4.18656 -0.883999 -5.21103e-20)
(4.15022 -1.03698 2.00169e-19)
(4.10723 -1.18876 0)
(4.05767 -1.33908 0)
(4.00162 -1.48769 1.02187e-19)
(3.93917 -1.63432 1.1032e-19)
(3.87045 -1.77876 3.89462e-19)
(3.79557 -1.92079 -2.00067e-19)
(3.71468 -2.06021 2.00067e-19)
(3.62794 -2.19686 2.16104e-19)
(3.53555 -2.33058 1.54426e-20)
(3.43778 -2.46131 -3.88152e-19)
(3.33493 -2.58886 1.68552e-21)
(3.22752 -2.71326 1.91521e-19)
(3.11606 -2.83418 0)
(4.07729 -0.109696 -1.18647e-20)
(4.0746 -0.256507 1.18646e-20)
(4.06544 -0.403568 0)
(4.04984 -0.550527 4.43562e-20)
(4.02777 -0.69715 1.46355e-19)
(3.99924 -0.843177 -1.83237e-19)
(3.96433 -0.988345 -1.96673e-19)
(3.9231 -1.1324 0)
(3.87563 -1.27507 0)
(3.82198 -1.41614 0)
(3.76225 -1.55537 -3.57154e-19)
(3.69655 -1.69255 -2.82929e-20)
(3.62499 -1.82748 -1.81428e-19)
(3.54769 -1.95999 1.31172e-20)
(3.4648 -2.08996 -3.57801e-19)
(3.37647 -2.21727 5.47667e-19)
(3.28298 -2.34193 -5.12052e-19)
(3.18456 -2.4638 1.74517e-19)
(3.08191 -2.58318 3.3079e-19)
(2.97529 -2.69946 0)
(3.90349 -0.108172 1.04986e-20)
(3.90062 -0.247852 0)
(3.8916 -0.387793 -4.35483e-20)
(3.87644 -0.527595 -9.02902e-20)
(3.85509 -0.667081 4.35221e-20)
(3.82758 -0.806027 3.47866e-19)
(3.79399 -0.944185 0)
(3.75438 -1.0813 -1.66428e-19)
(3.70882 -1.21715 -8.53745e-20)
(3.65739 -1.35149 -1.586e-19)
(3.60016 -1.48413 -6.01284e-20)
(3.53723 -1.61486 -5.04875e-19)
(3.46869 -1.74351 -3.3213e-19)
(3.39465 -1.86994 3.43667e-19)
(3.31522 -1.99404 3.25563e-19)
(3.23052 -2.11574 -1.7613e-21)
(3.14078 -2.23514 1.30844e-20)
(3.04607 -2.35218 1.58417e-19)
(2.94749 -2.46764 -3.25034e-19)
(2.84451 -2.57978 0)
(3.74427 -0.106615 -2.19419e-20)
(3.74126 -0.239634 1.07852e-20)
(3.73243 -0.373034 -4.32007e-20)
(3.71778 -0.506293 4.31899e-20)
(3.69718 -0.639271 -1.23641e-19)
(3.6707 -0.771822 -3.87172e-19)
(3.63841 -0.903716 0)
(3.60038 -1.03471 1.76546e-19)
(3.55665 -1.16458 -1.63122e-19)
(3.50729 -1.29312 3.48688e-19)
(3.45238 -1.42013 3.46031e-19)
(3.39198 -1.54543 5.07617e-19)
(3.32616 -1.66886 -3.27388e-19)
(3.255 -1.79029 1.62878e-19)
(3.17857 -1.90963 -1.59296e-19)
(3.09691 -2.02683 1.59319e-19)
(3.01019 -2.14205 0)
(2.91817 -2.25534 1.40162e-19)
(2.82291 -2.36815 -1.35969e-19)
(2.72203 -2.47821 0)
(6.88785 7.00856 0)
(7.15948 6.73017 0)
(7.41906 6.44287 6.64095e-19)
(7.66725 6.1469 1.00897e-20)
(7.90355 5.84187 -7.21112e-19)
(8.12736 5.52788 0)
(8.33827 5.20527 7.40249e-19)
(8.53597 4.87449 -1.36188e-18)
(8.72015 4.53605 -6.87466e-19)
(8.89051 4.1905 -6.93418e-19)
(9.04679 3.83839 6.93416e-19)
(9.18874 3.48031 -7.00521e-19)
(9.31614 3.11687 3.49436e-19)
(9.42882 2.74868 3.24027e-19)
(9.5266 2.37636 3.25414e-19)
(9.60938 2.0005 -3.5579e-19)
(9.67707 1.62171 3.55791e-19)
(9.7297 1.24064 -1.78899e-19)
(9.76722 0.857652 -8.27475e-20)
(9.78995 0.474018 4.47809e-20)
(6.81428 6.4843 0)
(7.07148 6.21701 -5.59606e-19)
(7.31633 5.93994 -1.21916e-18)
(7.54936 5.65345 1.79033e-18)
(7.77056 5.3576 -1.25942e-18)
(7.97938 5.05281 1.25217e-18)
(8.17544 4.73954 7.03502e-19)
(8.35839 4.4183 -1.94225e-18)
(8.52788 4.08962 6.31401e-19)
(8.68361 3.75407 1.24174e-18)
(8.82527 3.41222 6.05297e-19)
(8.95262 3.06469 6.09192e-19)
(9.06543 2.71212 -6.5635e-19)
(9.16348 2.35516 9.54545e-19)
(9.24659 1.99448 -1.35382e-18)
(9.31464 1.63065 3.31277e-19)
(9.36758 1.26431 -3.12323e-19)
(9.40541 0.896102 0)
(9.428 0.526462 1.332e-20)
(9.43537 0.156209 0)
(6.44901 6.15447 -9.43587e-19)
(6.69793 5.90867 5.53202e-19)
(6.93581 5.65248 9.66531e-19)
(7.16264 5.38627 4.12805e-19)
(7.37827 5.11038 1.13855e-18)
(7.58218 4.82538 1.01902e-20)
(7.77398 4.53177 -5.68629e-19)
(7.95332 4.23006 -1.67698e-18)
(8.11982 3.92078 1.64195e-18)
(8.27314 3.60449 -1.69897e-18)
(8.41298 3.28177 -5.65268e-19)
(8.53907 2.95321 -1.12732e-18)
(8.65123 2.6194 0)
(8.74923 2.28093 0)
(8.83278 1.93836 0)
(8.90168 1.59237 -2.87127e-19)
(8.95586 1.24366 3.07566e-19)
(8.99528 0.892886 2.88309e-19)
(9.01982 0.540578 5.1451e-21)
(9.02932 0.187494 7.25639e-20)
(6.08572 5.78887 9.95149e-19)
(6.32344 5.56237 -8.68848e-19)
(6.55137 5.32563 -1.27447e-19)
(6.76923 5.07898 -1.27954e-19)
(6.9767 4.82279 2.24575e-18)
(7.17326 4.55759 -5.44369e-20)
(7.35854 4.28387 -5.538e-22)
(7.53216 4.0021 -1.43135e-18)
(7.69374 3.71279 9.38748e-19)
(7.84295 3.41648 0)
(7.97945 3.11369 5.14716e-19)
(8.10293 2.80499 5.18423e-19)
(8.2131 2.49088 0)
(8.30974 2.17193 0)
(8.39269 1.84873 0)
(8.46179 1.52202 0)
(8.51689 1.19244 -1.58562e-20)
(8.55781 0.86059 2.49381e-19)
(8.58446 0.527061 -1.17759e-19)
(8.5966 0.192533 0)
(5.73781 5.41704 7.94221e-19)
(5.9629 5.20764 0)
(6.17918 4.98847 -2.28529e-18)
(6.3863 4.75977 -7.81444e-19)
(6.58386 4.52188 -8.3535e-19)
(6.77135 4.27529 -8.98784e-19)
(6.94841 4.02043 4.18275e-19)
(7.11464 3.75773 -4.39568e-19)
(7.26968 3.48767 1.18705e-18)
(7.41318 3.2107 -3.84003e-19)
(7.5448 2.92734 0)
(7.66424 2.63808 0)
(7.77119 2.34349 0)
(7.8654 2.04414 0)
(7.94674 1.74065 -6.12711e-19)
(8.01502 1.4336 2.13215e-19)
(8.07004 1.12349 -2.3031e-19)
(8.11162 0.81089 0)
(8.13968 0.496478 1.16138e-19)
(8.15396 0.180875 0)
(5.40493 5.06184 6.34758e-19)
(5.6171 4.86779 -3.54257e-20)
(5.82127 4.66452 1.35133e-18)
(6.01709 4.4522 6.70976e-19)
(6.20412 4.23115 0)
(6.38186 4.00181 -7.251e-19)
(6.54997 3.76455 4.54532e-20)
(6.70806 3.51978 -7.33248e-19)
(6.85577 3.26792 9.77975e-19)
(6.99275 3.0094 2.35274e-20)
(7.1187 2.74469 1.94956e-20)
(7.23329 2.47428 -3.61206e-19)
(7.33625 2.19867 7.02529e-19)
(7.42734 1.9184 0)
(7.50636 1.63402 4.71665e-20)
(7.57308 1.346 3.60088e-19)
(7.62731 1.05487 1.00421e-21)
(7.66897 0.761209 -1.03848e-20)
(7.69797 0.465566 0)
(7.71397 0.168595 -2.22326e-20)
(5.09254 4.72854 0)
(5.29202 4.54819 -3.57639e-20)
(5.48418 4.35918 8.643e-21)
(5.66866 4.16166 -1.17094e-18)
(5.84503 3.95591 0)
(6.01282 3.7423 5.87238e-19)
(6.1717 3.5212 6.3992e-19)
(6.3213 3.29297 -1.83651e-18)
(6.46127 3.05798 -4.53345e-20)
(6.59129 2.81665 -5.76656e-19)
(6.71105 2.56939 3.30219e-19)
(6.82026 2.31665 -2.94211e-19)
(6.91864 2.0589 -3.3609e-19)
(7.00597 1.7966 0)
(7.08201 1.53026 1.80779e-19)
(7.14657 1.26034 -1.13131e-20)
(7.19945 0.987403 -1.62353e-19)
(7.24048 0.711955 -1.12703e-20)
(7.26964 0.434486 -4.0976e-20)
(7.28671 0.155508 8.22505e-20)
(4.80271 4.41865 0)
(4.99003 4.25055 4.78917e-19)
(5.17059 4.07434 8.03394e-21)
(5.34406 3.89015 -4.8694e-19)
(5.51 3.69824 0)
(5.66799 3.49894 5.09457e-19)
(5.81771 3.29257 -4.77061e-19)
(5.9588 3.07947 -5.48795e-19)
(6.09095 2.85997 1.01984e-18)
(6.21385 2.63445 5.67483e-19)
(6.3272 2.4033 0)
(6.43072 2.16692 2.7332e-19)
(6.52417 1.92575 -2.44935e-21)
(6.60731 1.68021 1.39143e-20)
(6.67992 1.43077 0)
(6.74181 1.17787 -2.65605e-19)
(6.7928 0.922006 -1.41721e-19)
(6.83272 0.663667 2.0493e-19)
(6.86145 0.403388 1.38806e-19)
(6.87886 0.141559 -1.90745e-20)
(4.53495 4.13213 0)
(4.71082 3.97507 -3.88213e-19)
(4.88042 3.81043 0)
(5.04343 3.63832 -4.30198e-19)
(5.19941 3.45898 8.39974e-19)
(5.348 3.2727 -8.60381e-19)
(5.48887 3.07977 1.37033e-18)
(5.62171 2.88048 -1.3619e-18)
(5.74621 2.67516 -9.23548e-19)
(5.86208 2.46416 -6.74263e-19)
(5.96905 2.24781 2.33913e-19)
(6.06685 2.02652 -4.91567e-19)
(6.15526 1.80066 1.145e-20)
(6.23403 1.57064 4.86885e-19)
(6.30296 1.33688 -1.22593e-19)
(6.36188 1.09981 5.0731e-19)
(6.41061 0.859881 -2.477e-19)
(6.449 0.617534 1.10137e-19)
(6.47692 0.373248 -6.64602e-20)
(6.49419 0.127506 0)
(4.28792 3.8678 0)
(4.45316 3.72078 7.43676e-19)
(4.61255 3.56668 3.52671e-19)
(4.76576 3.4056 -3.68959e-19)
(4.91241 3.23774 -7.61849e-19)
(5.05213 3.06336 1.16323e-18)
(5.18464 2.88272 6.00161e-21)
(5.30962 2.69609 -3.72978e-19)
(5.42681 2.50377 8.27818e-19)
(5.53593 2.30607 4.32983e-19)
(5.63672 2.10333 -3.92258e-19)
(5.72894 1.8959 2.10041e-19)
(5.81236 1.68415 1.36366e-20)
(5.88677 1.46845 -2.25746e-19)
(5.95198 1.24918 -1.079e-19)
(6.0078 1.02676 2.16594e-19)
(6.05408 0.8016 -1.08694e-19)
(6.09067 0.57411 -2.20458e-19)