/*--------------------------------*- C++ -*----------------------------------*\
| =========                 |                                                 |
| \\      /  F ield         | OpenFOAM: The Open Source CFD Toolbox           |
|  \\    /   O peration     | Version:  v1912                                 |
|   \\  /    A nd           | Website:  www.openfoam.com                      |
|    \\/     M anipulation  |                                                 |
\*---------------------------------------------------------------------------*/
FoamFile
{
    version     2.0;
    format      ascii;
    class       volScalarField;
    location    "48.5";
    object      p;
}
// * * * * * * * * * * * * * * * * * * * * * * * * * * * * * * * * * * * * * //

dimensions      [0 2 -2 0 0 0 0];


internalField   nonuniform List<scalar> 
9600
(
-41.4824
-36.2174
-32.9904
-30.253
-27.7475
-25.4806
-23.424
-21.5499
-19.8406
-18.2826
-16.8632
-15.5706
-14.3932
-13.3203
-12.3419
-11.4485
-10.6317
-9.88361
-9.19663
-8.56862
-42.2419
-36.9593
-33.6964
-30.9162
-28.3656
-26.0546
-23.9567
-22.0447
-20.3016
-18.7136
-17.2679
-15.952
-14.7544
-13.6636
-12.6693
-11.7618
-10.9322
-10.1723
-9.47424
-8.83696
-43.003
-37.6973
-34.397
-31.5738
-28.9778
-26.6226
-24.4833
-22.5337
-20.7569
-19.1392
-17.6674
-16.3287
-15.111
-14.0027
-12.9927
-12.0711
-11.229
-10.4574
-9.74827
-9.10191
-43.7626
-38.4309
-35.0918
-32.2248
-29.5832
-27.1836
-25.0029
-23.0158
-21.2057
-19.5586
-18.0611
-16.6999
-15.4625
-14.3368
-13.3114
-12.3761
-11.5215
-10.7384
-10.0183
-9.36314
-44.5177
-39.1585
-35.7797
-32.8683
-30.1807
-27.7366
-25.5147
-23.4903
-21.6471
-19.971
-18.4481
-17.0649
-15.8082
-14.6655
-13.625
-12.6762
-11.8093
-11.0149
-10.284
-9.62038
-45.2662
-39.8787
-36.4595
-33.5031
-30.7693
-28.2807
-26.0176
-23.9563
-22.0804
-20.3757
-18.8279
-17.423
-16.1474
-14.988
-13.9329
-12.9709
-12.092
-11.2865
-10.545
-9.87334
-46.0063
-40.59
-37.13
-34.1281
-31.3478
-28.8147
-26.5107
-24.4128
-22.5046
-20.7718
-19.1996
-17.7736
-16.4794
-15.3039
-14.2344
-13.2596
-12.3692
-11.5527
-10.801
-10.1218
-46.7365
-41.2911
-37.7899
-34.7422
-31.9153
-29.3378
-26.9931
-24.8589
-22.919
-21.1586
-19.5625
-18.1158
-16.8037
-15.6124
-14.529
-13.5418
-12.6402
-11.8132
-11.0516
-10.3653
-47.4554
-41.9806
-38.4379
-35.3442
-32.4707
-29.8489
-27.4639
-25.2939
-23.3227
-21.5352
-19.9158
-18.449
-17.1194
-15.9129
-14.8161
-13.8169
-12.9045
-12.0675
-11.2964
-10.6037
-48.1618
-42.6574
-39.073
-35.933
-33.0129
-30.347
-27.9221
-25.7167
-23.7148
-21.9009
-20.2588
-18.7723
-17.4259
-16.2046
-15.0949
-14.0843
-13.1616
-12.315
-11.5348
-10.8365
-48.8546
-43.3203
-39.6941
-36.5076
-33.5409
-30.8313
-28.3668
-26.1267
-24.0946
-22.2548
-20.5905
-19.085
-17.7222
-16.4867
-15.3646
-14.3431
-13.4106
-12.5549
-11.7664
-11.0631
-49.5328
-43.9684
-40.3002
-37.0672
-34.054
-31.3009
-28.7973
-26.5228
-24.4612
-22.596
-20.9101
-19.3862
-18.0075
-16.7584
-15.6243
-14.5924
-13.6507
-12.7865
-11.9902
-11.2826
-50.1958
-44.6007
-40.8904
-37.6107
-34.5511
-31.7548
-29.2125
-26.9044
-24.8137
-22.9238
-21.2168
-19.675
-18.2809
-17.0185
-15.873
-14.8312
-13.881
-13.0089
-12.2053
-11.4944
-50.8428
-45.2165
-41.4638
-38.1373
-35.0316
-32.1924
-29.612
-27.2706
-25.1514
-23.2373
-21.5097
-19.9503
-18.5412
-17.266
-16.1095
-15.0582
-14.0999
-13.2206
-12.4107
-11.6978
-51.4734
-45.8149
-42.0197
-38.6464
-35.4946
-32.613
-29.9949
-27.6208
-25.4737
-23.5358
-21.788
-20.2113
-18.7875
-17.4996
-16.3322
-15.2717
-14.3055
-13.4195
-12.6041
-11.8909
-52.0872
-46.3952
-42.5572
-39.1373
-35.9396
-33.016
-30.3607
-27.9545
-25.78
-23.8187
-22.051
-20.4573
-19.0188
-17.7182
-16.5399
-15.4701
-14.4961
-13.6034
-12.7829
-12.0682
-52.6853
-46.9573
-43.0758
-39.6092
-36.366
-33.4007
-30.7088
-28.2711
-26.0697
-24.0855
-22.2981
-20.6874
-19.2342
-17.9209
-16.7317
-15.6527
-14.6712
-13.7723
-12.9458
-12.2266
-53.2722
-47.5023
-43.5747
-40.0611
-36.7727
-33.7665
-31.0389
-28.5703
-26.3426
-24.3357
-22.5288
-20.9009
-19.4326
-18.1059
-16.9051
-15.8167
-14.8281
-13.9235
-13.0921
-12.3772
-53.8499
-48.0296
-44.0523
-40.4919
-37.1595
-34.1135
-31.351
-28.8526
-26.5991
-24.57
-22.7435
-21.0981
-19.6136
-18.2718
-17.0568
-15.9555
-14.9549
-14.0394
-13.2067
-12.5244
-54.3965
-48.5317
-44.5075
-40.9022
-37.5276
-34.4433
-31.6471
-29.1196
-26.8412
-24.7904
-22.9445
-21.2813
-19.7799
-18.4211
-17.1886
-16.0676
-15.0432
-14.102
-13.2584
-12.5823
-59.8502
-59.8187
-59.7495
-59.6571
-59.5408
-59.3981
-59.2285
-59.0325
-58.8107
-58.5636
-58.2918
-57.9958
-57.6763
-57.334
-56.9696
-56.5841
-56.1784
-55.7543
-55.3147
-54.8627
-53.5016
-53.499
-53.4633
-53.4
-53.3098
-53.1924
-53.0478
-52.8769
-52.6803
-52.4586
-52.2124
-51.9424
-51.6492
-51.3334
-50.9956
-50.6366
-50.2569
-49.8571
-49.4377
-48.9966
-48.8578
-48.8796
-48.872
-48.8357
-48.7719
-48.6815
-48.5651
-48.4233
-48.2568
-48.0661
-47.8518
-47.6146
-47.3549
-47.0733
-46.7702
-46.4462
-46.1016
-45.7363
-45.35
-44.941
-44.6277
-44.6672
-44.68
-44.6658
-44.6253
-44.5597
-44.4696
-44.3555
-44.218
-44.0577
-43.875
-43.6705
-43.4447
-43.198
-42.9309
-42.6437
-42.3365
-42.0091
-41.6615
-41.2927
-40.7163
-40.7657
-40.7911
-40.7918
-40.7683
-40.7214
-40.6516
-40.5596
-40.4458
-40.3107
-40.1548
-39.9786
-39.7826
-39.5672
-39.3327
-39.0794
-38.8073
-38.5165
-38.2067
-37.8773
-37.2036
-37.2571
-37.2889
-37.2983
-37.2854
-37.2508
-37.1953
-37.1191
-37.0229
-36.9071
-36.7721
-36.6186
-36.4468
-36.2573
-36.0502
-35.826
-35.5846
-35.326
-35.05
-34.7561
-34.0804
-34.1338
-34.1675
-34.1806
-34.1733
-34.146
-34.0993
-34.0338
-33.9498
-33.8478
-33.7284
-33.592
-33.439
-33.2699
-33.0851
-32.8847
-32.669
-32.4377
-32.1907
-31.9275
-31.3099
-31.3605
-31.3929
-31.4063
-31.4009
-31.3771
-31.3355
-31.2765
-31.2005
-31.1081
-30.9997
-30.8758
-30.737
-30.5837
-30.4163
-30.2351
-30.0402
-29.8317
-29.6092
-29.3722
-28.8524
-28.8985
-28.9277
-28.9394
-28.9336
-28.9108
-28.8715
-28.8162
-28.7452
-28.6591
-28.5584
-28.4436
-28.3153
-28.1739
-28.0201
-27.8541
-27.6762
-27.4865
-27.2846
-27.0699
-26.668
-26.709
-26.7341
-26.7429
-26.7354
-26.7121
-26.6735
-26.62
-26.552
-26.47
-26.3745
-26.2662
-26.1457
-26.0135
-25.8702
-25.7164
-25.5524
-25.3783
-25.1938
-24.9983
-24.7196
-24.7553
-24.7761
-24.7815
-24.7717
-24.7472
-24.7083
-24.6555
-24.5891
-24.5098
-24.418
-24.3144
-24.1996
-24.0744
-23.9395
-23.7954
-23.6428
-23.482
-23.3126
-23.134
-22.9743
-23.0049
-23.0214
-23.0235
-23.0113
-22.9851
-22.9455
-22.8927
-22.8273
-22.7497
-22.6605
-22.5603
-22.45
-22.3302
-22.2018
-22.0657
-21.9227
-21.7731
-21.6171
-21.4539
-21.4037
-21.4298
-21.4423
-21.4412
-21.4266
-21.3988
-21.3582
-21.3052
-21.2403
-21.1639
-21.0766
-20.979
-20.8721
-20.7565
-20.6334
-20.5037
-20.3687
-20.229
-20.0852
-19.9361
-19.9842
-20.0061
-20.0151
-20.0111
-19.9943
-19.9649
-19.9235
-19.8702
-19.8056
-19.73
-19.6442
-19.5487
-19.4443
-19.332
-19.213
-19.0886
-18.9602
-18.8291
-18.6965
-18.5611
-18.6959
-18.7141
-18.7199
-18.7134
-18.6946
-18.6639
-18.6216
-18.5681
-18.5037
-18.4289
-18.3442
-18.2503
-18.148
-18.0382
-17.9224
-17.8019
-17.679
-17.5552
-17.433
-17.3111
-17.5223
-17.5371
-17.5401
-17.5313
-17.5108
-17.479
-17.436
-17.3823
-17.3181
-17.244
-17.1603
-17.0677
-16.9669
-16.859
-16.7454
-16.6278
-16.5089
-16.3908
-16.2782
-16.1695
-16.4496
-16.4614
-16.4619
-16.4511
-16.4291
-16.3963
-16.3527
-16.2988
-16.2348
-16.1611
-16.0782
-15.9866
-15.8869
-15.7802
-15.6678
-15.5516
-15.435
-15.3207
-15.2162
-15.1193
-15.4657
-15.4752
-15.4738
-15.4615
-15.4384
-15.4049
-15.361
-15.3071
-15.2434
-15.1703
-15.088
-14.9972
-14.8983
-14.7922
-14.6802
-14.5641
-14.4478
-14.3349
-14.2374
-14.1497
-14.5597
-14.5678
-14.5654
-14.5526
-14.5295
-14.4963
-14.4532
-14.4003
-14.338
-14.2665
-14.1861
-14.0972
-14.0001
-13.8957
-13.7847
-13.6689
-13.5518
-13.4386
-13.348
-13.2744
-13.7263
-13.7311
-13.7262
-13.7116
-13.6874
-13.6538
-13.611
-13.559
-13.4982
-13.4287
-13.3507
-13.2645
-13.1703
-13.0687
-12.9599
-12.8452
-12.7262
-12.6084
-12.5113
-12.462
-53.5599
-54.1351
-54.6732
-55.1963
-55.7014
-56.1827
-56.6372
-57.0638
-57.4617
-57.83
-58.1679
-58.4751
-58.7511
-58.9956
-59.2079
-59.3883
-59.5374
-59.6565
-59.7476
-59.8125
-47.0772
-47.6578
-48.2103
-48.7405
-49.2478
-49.7299
-50.1854
-50.6134
-51.0135
-51.3849
-51.727
-52.0396
-52.3231
-52.5779
-52.802
-52.9949
-53.157
-53.2889
-53.3911
-53.4622
-42.4333
-43.0016
-43.5463
-44.0676
-44.5654
-45.0391
-45.4879
-45.9109
-46.3077
-46.6775
-47.0195
-47.3333
-47.6187
-47.8744
-48.1016
-48.3007
-48.4712
-48.613
-48.7256
-48.8076
-38.3097
-38.8528
-39.3762
-39.878
-40.3576
-40.8148
-41.2489
-41.6593
-42.0453
-42.4064
-42.7412
-43.0492
-43.3315
-43.5874
-43.8172
-44.0205
-44.197
-44.3463
-44.4682
-44.562
-34.6324
-35.1454
-35.6414
-36.1177
-36.5735
-37.0082
-37.4214
-37.8124
-38.1805
-38.5252
-38.847
-39.1455
-39.4194
-39.6686
-39.8935
-40.0937
-40.2688
-40.4188
-40.5436
-40.6429
-31.4342
-31.9157
-32.3819
-32.8302
-33.2593
-33.6688
-34.0582
-34.4271
-34.7748
-35.101
-35.4057
-35.6883
-35.948
-36.1851
-36.3999
-36.5921
-36.761
-36.9067
-37.0291
-37.1282
-28.6626
-29.1134
-29.5499
-29.9698
-30.3719
-30.7556
-31.1204
-31.466
-31.7918
-32.0976
-32.383
-32.6478
-32.8916
-33.1142
-33.3153
-33.4968
-33.6569
-33.795
-33.9116
-34.0069
-26.251
-26.6728
-27.0813
-27.4742
-27.8503
-28.209
-28.5498
-28.8725
-29.1764
-29.4615
-29.7275
-29.9741
-30.2014
-30.409
-30.5971
-30.7641
-30.9135
-31.0427
-31.1517
-31.2409
-24.1405
-24.536
-24.9187
-25.2866
-25.6386
-25.9739
-26.2921
-26.593
-26.8762
-27.1414
-27.3887
-27.6177
-27.8286
-28.0211
-28.1953
-28.3511
-28.4873
-28.6064
-28.707
-28.7891
-22.2811
-22.6528
-23.0123
-23.3576
-23.6875
-24.0014
-24.2988
-24.5795
-24.8433
-25.0901
-25.3198
-25.5323
-25.7276
-25.9057
-26.0664
-26.2098
-26.3357
-26.4444
-26.5363
-26.6109
-20.6312
-20.9816
-21.3205
-21.6455
-21.9555
-22.2498
-22.5282
-22.7905
-23.0366
-23.2664
-23.4799
-23.6772
-23.8581
-24.0227
-24.171
-24.303
-24.4186
-24.5178
-24.6013
-24.6687
-19.157
-19.4887
-19.8093
-20.1164
-20.4084
-20.6851
-20.9461
-21.1916
-21.4214
-21.6357
-21.8344
-22.0177
-22.1855
-22.3379
-22.4749
-22.5964
-22.7025
-22.7933
-22.8686
-22.9292
-17.8317
-18.1469
-18.4516
-18.7427
-19.0186
-19.2791
-19.5244
-19.7544
-19.9694
-20.1695
-20.3548
-20.5253
-20.6812
-20.8225
-20.9491
-21.0612
-21.1586
-21.2415
-21.3094
-21.3641
-16.6336
-16.9343
-17.2255
-17.5025
-17.7637
-18.0095
-18.2402
-18.4561
-18.6574
-18.8444
-19.0174
-19.1764
-19.3215
-19.4527
-19.57
-19.6735
-19.7632
-19.8391
-19.9015
-19.9495
-15.5456
-15.8341
-16.1138
-16.3781
-16.6258
-16.8579
-17.075
-17.2777
-17.4664
-17.6415
-17.8031
-17.9515
-18.0868
-18.2089
-18.3178
-18.4136
-18.4963
-18.5658
-18.6223
-18.6655
-14.5531
-14.833
-15.1035
-15.3558
-15.5907
-15.8098
-16.0142
-16.2045
-16.3813
-16.5452
-16.6965
-16.8352
-16.9614
-17.0752
-17.1765
-17.2654
-17.3417
-17.4055
-17.4568
-17.4957
-13.6382
-13.9171
-14.1824
-14.4233
-14.6455
-14.8522
-15.0444
-15.2229
-15.3887
-15.5423
-15.684
-15.8139
-15.932
-16.0383
-16.1327
-16.2153
-16.286
-16.3447
-16.3915
-16.4264
-12.7805
-13.0636
-13.3302
-13.5617
-13.7719
-13.967
-14.148
-14.3159
-14.4719
-14.6166
-14.7501
-14.8724
-14.9837
-15.0837
-15.1725
-15.2499
-15.3159
-15.3705
-15.4136
-15.4455
-11.9933
-12.267
-12.5342
-12.761
-12.961
-13.1447
-13.3152
-13.4737
-13.621
-13.7577
-13.884
-13.9999
-14.1053
-14.2001
-14.2842
-14.3574
-14.4197
-14.4711
-14.5115
-14.5411
-11.4028
-11.6536
-11.8813
-12.0981
-12.2864
-12.4523
-12.6063
-12.7505
-12.8845
-13.0086
-13.1234
-13.2286
-13.3241
-13.4097
-13.4854
-13.5509
-13.6063
-13.6515
-13.6864
-13.7109
-6.00315
-6.49439
-7.03271
-7.61506
-8.24788
-8.93857
-9.69478
-10.526
-11.4444
-12.4656
-13.6101
-14.9048
-16.385
-18.0971
-20.1012
-22.4767
-25.3048
-28.6078
-32.6049
-38.6007
-6.27369
-6.77844
-7.32728
-7.92169
-8.56828
-9.27414
-10.0471
-10.8968
-11.8357
-12.8798
-14.0498
-15.3731
-16.8855
-18.6335
-20.6777
-23.0973
-25.9725
-29.3222
-33.3579
-39.3747
-6.54564
-7.06393
-7.6234
-8.2301
-8.89071
-9.612
-10.4019
-11.2704
-12.2301
-13.2974
-14.4933
-15.8456
-17.3904
-19.1747
-21.2593
-23.7231
-26.6448
-30.0402
-34.1126
-40.1459
-6.81854
-7.3503
-7.92048
-8.53969
-9.21454
-9.95146
-10.7585
-11.646
-12.6268
-13.7175
-14.9395
-16.321
-17.8985
-19.7193
-21.8444
-24.3522
-27.3202
-30.7612
-34.8713
-40.9258
-7.09194
-7.63708
-8.21805
-8.84997
-9.53927
-10.292
-11.1164
-12.0231
-13.0251
-14.1394
-15.3877
-16.7985
-18.4088
-20.2663
-22.4319
-24.9838
-27.9981
-31.4846
-35.6332
-41.7121
-7.36546
-7.92388
-8.5157
-9.16054
-9.86446
-10.6332
-11.4751
-12.4011
-13.4245
-14.5625
-15.8373
-17.2776
-18.9209
-20.8151
-23.0212
-25.6171
-28.6776
-32.2094
-36.3962
-42.5005
-7.6388
-8.21031
-8.81304
-9.47098
-10.1897
-10.9745
-11.8341
-12.7795
-13.8244
-14.9863
-16.2876
-17.7576
-19.4339
-21.3648
-23.6116
-26.2514
-29.3579
-32.9345
-37.1588
-43.2886
-7.9117
-8.49611
-9.10975
-9.78096
-10.5146
-11.3157
-12.193
-13.1579
-14.2244
-15.4102
-16.7381
-18.2377
-19.9471
-21.9148
-24.2021
-26.8857
-30.0378
-33.6588
-37.9198
-44.0751
-8.184
-8.78105
-9.40559
-10.0902
-10.8389
-11.6563
-12.5513
-13.5358
-14.6238
-15.8335
-17.1881
-18.7173
-20.4598
-22.4642
-24.7919
-27.519
-30.7163
-34.3812
-38.678
-44.8584
-8.45568
-9.06505
-9.70041
-10.3985
-11.1623
-11.9959
-12.9087
-13.9127
-15.0223
-16.2558
-17.6369
-19.1957
-20.9711
-23.0121
-25.3799
-28.1503
-31.3923
-35.1004
-39.4321
-45.6371
-8.72683
-9.34812
-9.99414
-10.7057
-11.4846
-12.3344
-13.2649
-14.2882
-15.4192
-16.6765
-18.084
-19.6722
-21.4803
-23.5577
-25.9653
-28.7785
-32.0646
-35.8153
-40.1807
-46.4096
-8.99775
-9.63043
-10.2868
-11.0118
-11.8056
-12.6715
-13.6194
-14.6619
-15.8141
-17.0949
-18.5286
-20.146
-21.9866
-24.1
-26.5472
-29.4025
-32.7322
-36.5246
-40.9225
-47.1746
-9.26892
-9.91229
-10.5786
-11.3168
-12.1252
-13.0068
-13.9719
-15.0333
-16.2064
-17.5105
-18.97
-20.6163
-22.4891
-24.6382
-27.1243
-30.0214
-33.3938
-37.227
-41.6562
-47.9307
-9.54108
-10.1941
-10.8697
-11.6205
-12.4432
-13.3401
-14.3219
-15.4018
-16.5955
-17.9225
-19.4075
-21.0823
-22.9869
-25.1712
-27.6958
-30.6339
-34.0483
-37.9214
-42.3806
-48.6766
-9.81497
-10.4762
-11.1599
-11.9228
-12.7591
-13.6708
-14.6689
-15.7669
-16.9807
-18.3301
-19.8403
-21.5431
-23.4791
-25.698
-28.2605
-31.2389
-34.6943
-38.6064
-43.0943
-49.4112
-10.0916
-10.7588
-11.4492
-12.2231
-13.0724
-13.9982
-15.0121
-16.1276
-17.3611
-18.7325
-20.2674
-21.9978
-23.9645
-26.2176
-28.8173
-31.835
-35.3306
-39.2808
-43.7963
-50.1333
-10.3706
-11.0408
-11.7359
-12.5201
-13.3818
-14.3213
-15.3504
-16.4832
-17.7359
-19.1288
-20.6878
-22.4453
-24.4422
-26.7287
-29.3648
-32.421
-35.9558
-39.9433
-44.4855
-50.8426
-10.6515
-11.3197
-12.0177
-12.812
-13.686
-14.639
-15.683
-16.8324
-18.1039
-19.5179
-21.1005
-22.8845
-24.911
-27.2301
-29.9018
-32.9955
-36.5683
-40.5921
-45.1607
-51.5388
-10.9268
-11.5871
-12.2884
-13.0952
-13.9828
-14.9494
-16.0082
-17.1742
-18.4641
-19.8987
-21.5044
-23.3143
-25.3696
-27.7206
-30.4268
-33.5569
-37.1664
-41.2255
-45.8208
-52.2235
-11.178
-11.8232
-12.5435
-13.371
-14.2729
-15.2524
-16.3256
-17.5078
-18.8156
-20.2703
-21.8985
-23.7335
-25.8169
-28.1988
-30.9384
-34.1034
-37.7479
-41.8403
-46.4611
-52.8983
-1.58363
-1.83762
-2.18556
-2.57457
-2.99322
-3.4469
-3.94191
-4.48417
-5.08119
-5.74322
-6.48423
-7.32322
-8.28634
-9.40964
-10.744
-12.3637
-14.3584
-16.7894
-19.9648
-25.3597
-1.73674
-2.00715
-2.37355
-2.76849
-3.19057
-3.64958
-4.15149
-4.70183
-5.30825
-5.98127
-6.7351
-7.58911
-8.56986
-9.71392
-11.0727
-12.7211
-14.7488
-17.2151
-20.4228
-25.8315
-1.88418
-2.17867
-2.55822
-2.96129
-3.39111
-3.8585
-4.36934
-4.92936
-5.54655
-6.2318
-6.99964
-7.86982
-8.86937
-10.0354
-11.4198
-13.0979
-15.1592
-17.661
-20.9001
-26.3174
-2.05389
-2.35921
-2.74696
-3.15876
-3.59777
-4.0747
-4.59557
-5.16638
-5.79548
-6.49404
-7.27695
-8.16435
-9.18375
-10.3728
-11.7839
-13.4927
-15.5885
-18.127
-21.401
-26.836
-2.23493
-2.54734
-2.94292
-3.36368
-3.81218
-4.29908
-4.83063
-5.41305
-6.05493
-6.76772
-7.56665
-8.47226
-9.51251
-10.7256
-12.1645
-13.9051
-16.0366
-18.6134
-21.9248
-27.3839
-2.42143
-2.74246
-3.14638
-3.57626
-4.03453
-4.53188
-5.07469
-5.66941
-6.32483
-7.05269
-7.86852
-8.79327
-9.85537
-11.0935
-12.5613
-14.335
-16.5035
-19.1196
-22.4698
-27.9559
-2.61495
-2.94548
-3.35765
-3.79667
-4.26499
-4.77321
-5.32782
-5.93544
-6.60509
-7.34876
-8.18232
-9.12709
-10.212
-11.4762
-12.974
-14.7818
-16.9884
-19.6451
-23.0348
-28.5497
-2.81685
-3.15687
-3.57708
-4.02523
-4.50381
-5.02322
-5.59005
-6.21109
-6.89557
-7.65574
-8.50777
-9.4734
-10.582
-11.8733
-13.4021
-15.2452
-17.491
-20.1893
-23.6193
-29.1642
-3.02693
-3.37648
-3.8047
-4.26202
-4.75103
-5.28191
-5.86133
-6.49625
-7.1961
-7.97339
-8.8446
-9.83187
-10.965
-12.2844
-13.8451
-15.7245
-18.0107
-20.7515
-24.2226
-29.7983
-3.24458
-3.60399
-4.04031
-4.50691
-5.00652
-5.54914
-6.1415
-6.79072
-7.50645
-8.30143
-9.19249
-10.2021
-11.3607
-12.7089
-14.3025
-16.2192
-18.5466
-21.331
-24.8437
-30.451
-3.46938
-3.83904
-4.2836
-4.75961
-5.27002
-5.82466
-6.43029
-7.09423
-7.82631
-8.63954
-9.55106
-10.5838
-11.7684
-13.1464
-14.7738
-16.7287
-19.0984
-21.927
-25.482
-31.1211
-3.70093
-4.08122
-4.53419
-5.01977
-5.54122
-6.10814
-6.72738
-7.40643
-8.15533
-8.98733
-9.9199
-10.9763
-12.1879
-13.5964
-15.2585
-17.2524
-19.6651
-22.5388
-26.1364
-31.8076
-3.93878
-4.33007
-4.79163
-5.28698
-5.8197
-6.39919
-7.03237
-7.72691
-8.49306
-9.34434
-10.2985
-11.3793
-12.6184
-14.0582
-15.7558
-17.7896
-20.2462
-23.1656
-26.8062
-32.5097
-4.18239
-4.58507
-5.05542
-5.56075
-6.105
-6.69736
-7.34481
-8.05521
-8.83905
-9.7101
-10.6864
-11.7922
-13.0595
-14.5313
-16.2651
-18.3396
-20.8407
-23.8065
-27.4905
-33.2263
-4.43122
-4.84565
-5.32503
-5.84058
-6.39663
-7.00214
-7.66419
-8.39083
-9.19278
-10.084
-11.0831
-12.2144
-13.5106
-15.015
-16.7858
-18.9017
-21.448
-24.4607
-28.1883
-33.9566
-4.68472
-5.11125
-5.59989
-6.1259
-6.69404
-7.31301
-7.98998
-8.73323
-9.55367
-10.4656
-11.4878
-12.6452
-13.9709
-15.5087
-17.317
-19.475
-22.0672
-25.1274
-28.899
-34.6997
-4.94234
-5.38129
-5.87942
-6.41617
-6.99667
-7.62941
-8.32162
-9.08182
-9.92116
-10.8542
-11.9001
-13.084
-14.4397
-16.0114
-17.858
-20.0586
-22.6973
-25.8055
-29.6216
-35.4552
-5.20352
-5.65519
-6.16305
-6.71079
-7.30395
-7.95075
-8.65853
-9.43601
-10.2946
-11.2492
-12.3191
-13.5302
-14.9164
-16.5226
-18.408
-20.6518
-23.3374
-26.4941
-30.3553
-36.2227
-5.46773
-5.93237
-6.45018
-7.00919
-7.6153
-8.27645
-9.00009
-9.7952
-10.6734
-11.6499
-12.7443
-13.9829
-15.4001
-17.0412
-18.9659
-21.2533
-23.9864
-27.1918
-31.0991
-37.0028
-5.73444
-6.2123
-6.74027
-7.31083
-7.93016
-8.60595
-9.34576
-10.1588
-11.0569
-12.0556
-13.175
-14.4415
-15.8901
-17.5665
-19.5309
-21.8623
-24.6429
-27.8971
-31.8501
-37.7962
-1.33592
-1.12931
-0.975617
-0.838974
-0.718988
-0.613117
-0.520248
-0.439588
-0.370635
-0.313031
-0.266509
-0.230858
-0.205908
-0.191521
-0.187559
-0.193812
-0.21007
-0.236458
-0.273131
-0.319917
-1.66577
-1.48243
-1.32477
-1.1829
-1.05809
-0.947751
-0.850918
-0.766788
-0.694845
-0.634714
-0.586113
-0.548819
-0.522649
-0.507452
-0.503084
-0.509372
-0.526162
-0.553462
-0.591321
-0.639541
-1.99832
-1.82287
-1.66522
-1.52221
-1.39527
-1.28275
-1.18396
-1.09822
-1.02504
-0.964073
-0.915041
-0.877721
-0.851927
-0.837503
-0.8343
-0.842166
-0.86098
-0.890697
-0.931215
-0.982649
-2.38209
-2.20497
-2.04428
-1.89832
-1.7678
-1.65178
-1.54978
-1.46125
-1.38577
-1.323
-1.27268
-1.23458
-1.2085
-1.19429
-1.19179
-1.20085
-1.22135
-1.25321
-1.29633
-1.35072
-2.80085
-2.62128
-2.45663
-2.30672
-2.17199
-2.05192
-1.94618
-1.85435
-1.77609
-1.71108
-1.65906
-1.61982
-1.59316
-1.57892
-1.57692
-1.58702
-1.6091
-1.64305
-1.68875
-1.74619
-3.25218
-3.06938
-2.90056
-2.74632
-2.60714
-2.4828
-2.37313
-2.27781
-2.19656
-2.12913
-2.07526
-2.03476
-2.00742
-1.99307
-1.99155
-2.00272
-2.02643
-2.06256
-2.11097
-2.17162
-3.74224
-3.55472
-3.38098
-3.22182
-3.07774
-2.94875
-2.83479
-2.73564
-2.65111
-2.58096
-2.525
-2.483
-2.4548
-2.44022
-2.4391
-2.45128
-2.47663
-2.51499
-2.56622
-2.6303
-4.27782
-4.08409
-3.90436
-3.73941
-3.58972
-3.45547
-3.33666
-3.23319
-3.1449
-3.07162
-3.01316
-2.96934
-2.93999
-2.92493
-2.92401
-2.93707
-2.96396
-3.00453
-3.05862
-3.12619
-4.86662
-4.66523
-4.47828
-4.30646
-4.15026
-4.00993
-3.88554
-3.77707
-3.6844
-3.60741
-3.54594
-3.49983
-3.46892
-3.45303
-3.45201
-3.46571
-3.49397
-3.53663
-3.59352
-3.66463
-5.51878
-5.30817
-5.11257
-4.9326
-4.76876
-4.62132
-4.49041
-4.37605
-4.2782
-4.19675
-4.13158
-4.08255
-4.0495
-4.03228
-4.03074
-4.04471
-4.07403
-4.11854
-4.17806
-4.25261
-6.24805
-6.02641
-5.82049
-5.63083
-5.45791
-5.30204
-5.16339
-5.04202
-4.93793
-4.85104
-4.78126
-4.72847
-4.69252
-4.67326
-4.67056
-4.68424
-4.71415
-4.7601
-4.82192
-4.89966
-7.07314
-6.83836
-6.62011
-6.41885
-6.23509
-6.06914
-5.92119
-5.79135
-5.67964
-5.58602
-5.51042
-5.45273
-5.41283
-5.39057
-5.38582
-5.39841
-5.42818
-5.47492
-5.53847
-5.61892
-8.0198
-7.76933
-7.5363
-7.32113
-7.12431
-6.94618
-6.78696
-6.64676
-6.52565
-6.42362
-6.3406
-6.27652
-6.23125
-6.20466
-6.19662
-6.20698
-6.23555
-6.28211
-6.34651
-6.42886
-9.12355
-8.85432
-8.60353
-8.37156
-8.15894
-7.966
-7.79298
-7.64004
-7.50725
-7.39461
-7.30209
-7.22962
-7.1771
-7.1444
-7.13139
-7.13791
-7.16379
-7.20877
-7.27269
-7.35573
-10.4347
-10.143
-9.8708
-9.61851
-9.38668
-9.17566
-8.98572
-8.81701
-8.66962
-8.54359
-8.43889
-8.35546
-8.29321
-8.25202
-8.23176
-8.23229
-8.2534
-8.29483
-8.35639
-8.43831
-12.0268
-11.7083
-11.4104
-11.1336
-10.8785
-10.6454
-10.4348
-10.2466
-10.081
-9.93816
-9.81791
-9.72026
-9.64512
-9.59238
-9.56191
-9.55357
-9.56717
-9.6024
-9.65904
-9.73735
-13.9892
-13.639
-13.3107
-13.0049
-12.7221
-12.4628
-12.2272
-12.0156
-11.8279
-11.6643
-11.5248
-11.4093
-11.3177
-11.2499
-11.2059
-11.1855
-11.1884
-11.2145
-11.2634
-11.3352
-16.3833
-15.9976
-15.6348
-15.2959
-14.9816
-14.6924
-14.4285
-14.1899
-13.9768
-13.7892
-13.6271
-13.4905
-13.3793
-13.2935
-13.233
-13.1977
-13.1873
-13.2018
-13.2408
-13.3035
-19.5201
-19.0946
-18.6928
-18.3174
-17.9687
-17.6468
-17.3515
-17.0829
-16.8411
-16.6259
-16.4374
-16.2756
-16.1405
-16.032
-15.9499
-15.8942
-15.8648
-15.8621
-15.8856
-15.9336
-24.857
-24.3864
-23.9502
-23.5454
-23.1698
-22.8225
-22.5029
-22.2111
-21.9469
-21.7103
-21.5015
-21.3203
-21.1671
-21.0417
-20.9443
-20.875
-20.8345
-20.825
-20.848
-20.8931
-0.376696
-0.44315
-0.519241
-0.604888
-0.700007
-0.804491
-0.91821
-1.041
-1.17265
-1.31289
-1.46133
-1.61747
-1.7805
-1.94919
-2.1219
-2.29634
-2.46804
-2.6272
-2.75844
-2.88815
-0.698199
-0.76693
-0.845661
-0.93428
-1.03268
-1.14074
-1.25831
-1.38519
-1.52115
-1.66589
-1.81899
-1.9799
-2.14784
-2.32166
-2.49974
-2.68042
-2.86195
-3.03657
-3.1891
-3.36129
-1.0448
-1.11738
-1.20032
-1.29351
-1.39681
-1.51009
-1.63317
-1.76584
-1.90784
-2.05885
-2.21843
-2.38603
-2.56089
-2.742
-2.92799
-3.11766
-3.31007
-3.50081
-3.68418
-3.8901
-1.41629
-1.49272
-1.57994
-1.6778
-1.78615
-1.90484
-2.03368
-2.17243
-2.32082
-2.4785
-2.64502
-2.81985
-3.00226
-3.19135
-3.38606
-3.5855
-3.78888
-3.99389
-4.20101
-4.43064
-1.81529
-1.89573
-1.98741
-2.09018
-2.20388
-2.32833
-2.46331
-2.60859
-2.76387
-2.92878
-3.1029
-3.28568
-3.47648
-3.67453
-3.87899
-4.08927
-4.30474
-4.52437
-4.7508
-4.99718
-2.24456
-2.3293
-2.42578
-2.53385
-2.65332
-2.78401
-2.92569
-3.07809
-3.24093
-3.41383
-3.59637
-3.78805
-3.98829
-4.19642
-4.41184
-4.63413
-4.86289
-5.09791
-5.34193
-5.60282
-2.70726
-2.79653
-2.89814
-3.01188
-3.13756
-3.27499
-3.42393
-3.58411
-3.75522
-3.93692
-4.12878
-4.33035
-4.5411
-4.7605
-4.98807
-5.22352
-5.46665
-5.71765
-5.97875
-6.25438
-3.20722
-3.30135
-3.40838
-3.52815
-3.66046
-3.80512
-3.96188
-4.13048
-4.3106
-4.5019
-4.704
-4.91646
-5.13884
-5.37067
-5.61158
-5.86136
-6.1199
-6.38754
-6.66585
-6.95729
-3.74995
-3.84899
-3.96165
-4.08772
-4.22704
-4.37938
-4.5445
-4.72214
-4.91198
-5.1137
-5.32693
-5.55129
-5.78636
-6.03177
-6.28719
-6.55245
-6.82749
-7.11259
-7.40876
-7.71737
-4.34219
-4.44619
-4.56468
-4.69725
-4.84385
-5.00426
-5.17821
-5.36543
-5.56565
-5.77854
-6.00376
-6.24095
-6.48974
-6.7498
-7.02085
-7.30272
-7.59534
-7.89888
-8.21391
-8.5412
-4.99334
-5.10223
-5.22635
-5.36563
-5.51968
-5.68839
-5.87151
-6.06878
-6.2799
-6.50459
-6.74253
-6.99338
-7.25681
-7.5325
-7.82022
-8.11976
-8.43103
-8.75406
-9.08908
-9.4366
-5.71632
-5.8298
-5.95944
-6.10507
-6.2666
-6.44365
-6.63608
-6.84364
-7.06603
-7.30296
-7.55417
-7.81933
-8.09814
-8.39029
-8.69554
-9.01369
-9.34459
-9.68811
-10.0443
-10.4135
-6.52927
-6.6467
-6.78135
-6.93294
-7.10139
-7.28677
-7.48844
-7.70615
-7.93981
-8.18916
-8.45392
-8.73377
-9.02842
-9.33758
-9.66101
-9.99848
-10.3498
-10.7147
-11.093
-11.4851
-7.45802
-7.57832
-7.71701
-7.87379
-8.04844
-8.24097
-8.45215
-8.6792
-8.92378
-9.18525
-9.46337
-9.75786
-10.0684
-10.3948
-10.7367
-11.0939
-11.4661
-11.8529
-12.2541
-12.6701
-8.54077
-8.66226
-8.80336
-8.96386
-9.14358
-9.34206
-9.5588
-9.7961
-10.0513
-10.3239
-10.6146
-10.9232
-11.2494
-11.5928
-11.953
-12.3297
-12.7227
-13.1316
-13.5559
-13.996
-9.83745
-9.95758
-10.0987
-10.2606
-10.4432
-10.6462
-10.869
-11.1117
-11.3745
-11.6579
-11.9605
-12.2824
-12.6234
-12.9825
-13.3597
-13.755
-14.168
-14.5982
-15.0451
-15.5089
-11.4296
-11.5452
-11.6834
-11.8441
-12.0269
-12.2315
-12.4578
-12.7055
-12.9746
-13.2651
-13.5778
-13.9114
-14.2642
-14.6356
-15.0266
-15.4378
-15.8688
-16.3187
-16.7866
-17.2723
-13.388
-13.496
-13.6283
-13.7844
-13.963
-14.1647
-14.3895
-14.6374
-14.908
-15.2008
-15.5152
-15.8515
-16.2113
-16.5951
-17.0012
-17.4283
-17.876
-18.3439
-18.8311
-19.3366
-16.0038
-16.0958
-16.2118
-16.3532
-16.5215
-16.7158
-16.9354
-17.1798
-17.4488
-17.7418
-18.0584
-18.3982
-18.7615
-19.1487
-19.5599
-19.9943
-20.4517
-20.9329
-21.4378
-21.9614
-20.9349
-21.0073
-21.1106
-21.2425
-21.4018
-21.5879
-21.8003
-22.0385
-22.3022
-22.5912
-22.9051
-23.244
-23.608
-23.9974
-24.4122
-24.8525
-25.3193
-25.8166
-26.3468
-26.8922
-27.4087
-22.4957
-19.8599
-17.7759
-15.9895
-14.4518
-13.1006
-11.8909
-10.7956
-9.7965
-8.88069
-8.03839
-7.26199
-6.54527
-5.88302
-5.27071
-4.70309
-4.17457
-3.69363
-3.28924
-27.953
-23.0461
-20.3988
-18.2946
-16.4844
-14.9211
-13.5438
-12.3086
-11.189
-10.1673
-9.23069
-8.3697
-7.57682
-6.84598
-6.17213
-5.55085
-4.9774
-4.44939
-3.97995
-3.57748
-28.5259
-23.6155
-20.955
-18.8294
-16.994
-15.4039
-13.9995
-12.7379
-11.5932
-10.5482
-9.59028
-8.7101
-7.90024
-7.15465
-6.46825
-5.83653
-5.25486
-4.72096
-4.2444
-3.82243
-29.1232
-24.2043
-21.5283
-19.3799
-17.5179
-15.8996
-14.467
-13.178
-12.0074
-10.9383
-9.95836
-9.05826
-8.23057
-7.46912
-6.76864
-6.12433
-5.53132
-4.98666
-4.4971
-4.0564
-29.7418
-24.8121
-22.1183
-19.9457
-18.0553
-16.4075
-14.9456
-13.6282
-12.4308
-11.3368
-10.3341
-9.41331
-8.567
-7.78878
-7.07315
-6.41501
-5.80918
-5.25213
-4.74879
-4.29195
-30.3801
-25.4393
-22.7229
-20.5256
-18.6056
-16.9269
-15.4344
-14.0877
-12.8626
-11.7429
-10.7167
-9.77459
-8.90895
-8.11326
-7.38175
-6.70905
-6.08976
-5.52
-5.00338
-4.53246
-31.037
-26.0843
-23.3418
-21.1187
-19.1679
-17.457
-15.9329
-14.5558
-13.3022
-12.1561
-11.1057
-10.1416
-9.25611
-8.44247
-7.69468
-7.00714
-6.37427
-5.79199
-5.2628
-4.7792
-31.7112
-26.7453
-23.9748
-21.7241
-19.7413
-17.997
-16.4401
-15.0317
-13.7487
-12.5755
-11.5004
-10.5139
-9.60817
-8.77628
-8.012
-7.30953
-6.66317
-6.06863
-5.52745
-5.03209
-32.4014
-27.4206
-24.6211
-22.3411
-20.3248
-18.546
-16.9553
-15.5147
-14.2016
-13.0007
-11.9003
-10.891
-9.96478
-9.11445
-8.3336
-7.61622
-6.95649
-6.34995
-5.79716
-5.29063
-33.1062
-28.1093
-25.2797
-22.9688
-20.9177
-19.1031
-17.4776
-16.0039
-14.6601
-13.4309
-12.3049
-11.2725
-10.3255
-9.45666
-8.65919
-7.92695
-7.25396
-6.63557
-6.07144
-5.5541
-33.8246
-28.8101
-25.9494
-23.606
-21.5189
-19.6674
-18.0062
-16.4987
-15.1234
-13.8655
-12.7135
-11.6578
-10.6899
-9.80243
-8.98836
-8.24128
-7.55512
-6.92496
-6.34964
-5.82171
-34.5553
-29.5219
-26.6292
-24.2519
-22.1274
-20.238
-18.5401
-16.9981
-15.5908
-14.3038
-13.1256
-12.0463
-11.0574
-10.1513
-9.32055
-8.55869
-7.85938
-7.21749
-6.63103
-6.09266
-35.2972
-30.2436
-27.3179
-24.9052
-22.7421
-20.8139
-19.0785
-17.5012
-16.0615
-14.745
-13.5403
-12.4373
-11.4274
-10.5025
-9.6552
-8.87855
-8.16612
-7.51249
-6.91492
-6.3662
-36.0493
-30.9741
-28.0143
-25.5649
-23.3621
-21.394
-19.6203
-18.0072
-16.5346
-15.1884
-13.9569
-12.8302
-11.7992
-10.8555
-9.99164
-9.20024
-8.47468
-7.80929
-7.20058
-6.64158
-36.8104
-31.712
-28.7172
-26.2298
-23.9862
-21.9773
-20.1646
-18.5152
-17.0093
-15.6331
-14.3747
-13.2242
-12.172
-11.2097
-10.3292
-9.52308
-8.7844
-8.10722
-7.48735
-6.91814
-37.5794
-32.4561
-29.4251
-26.8986
-24.6132
-22.5627
-20.7104
-19.0242
-17.4847
-16.0782
-14.793
-13.6185
-12.5453
-11.5643
-10.6673
-9.84644
-9.09463
-8.40563
-7.77456
-7.19521
-38.3557
-33.2053
-30.137
-27.5702
-25.2418
-23.149
-21.2565
-19.5331
-17.9599
-16.5231
-15.2108
-14.0125
-12.9182
-11.9187
-11.0052
-10.1696
-9.40473
-8.70388
-8.06159
-7.47219
-39.1407
-33.959
-30.8511
-28.2427
-25.8707
-23.7349
-21.8017
-20.0409
-18.4337
-16.9666
-15.6274
-14.4053
-13.2901
-12.272
-11.3421
-10.492
-9.71404
-9.00134
-8.34784
-7.74853
-39.9347
-34.716
-31.5657
-28.9146
-26.4984
-24.3192
-22.3451
-20.5466
-18.9054
-17.408
-16.042
-14.7962
-13.6602
-12.6237
-11.6775
-10.8129
-10.0219
-9.29742
-8.63274
-8.0237
-40.7249
-35.4714
-32.279
-29.585
-27.1244
-24.9014
-22.8862
-21.0499
-19.3747
-17.8469
-16.4541
-15.1848
-14.028
-12.9733
-12.0109
-11.1319
-10.328
-9.59167
-8.91585
-8.29726
-6.77643
-4.67138
-3.31192
-2.26704
-1.53305
-0.993975
-0.606788
-0.331912
-0.141048
-0.0124666
0.0704432
0.120304
0.146689
0.156751
0.155797
0.147697
0.13526
0.120487
0.104784
0.0891189
0.0741357
0.0602449
0.0476827
0.0365689
0.0269244
0.0187293
0.0118896
0.00634101
0.00191362
-0.00142088
-0.0039266
-0.00549348
-0.00657328
-0.00674883
-0.00686546
-0.00591157
-0.00548909
-0.00353612
-0.00298698
4.9042e-05
-7.032
-4.85368
-3.45812
-2.38217
-1.62407
-1.06759
-0.666838
-0.381521
-0.182416
-0.0472135
0.0411159
0.095476
0.125641
0.138904
0.140679
0.134911
0.124474
0.111413
0.097177
0.082766
0.0688528
0.0558721
0.0440818
0.0336195
0.024523
0.0167854