/*--------------------------------*- C++ -*----------------------------------*\
| =========                 |                                                 |
| \\      /  F ield         | OpenFOAM: The Open Source CFD Toolbox           |
|  \\    /   O peration     | Version:  v1912                                 |
|   \\  /    A nd           | Website:  www.openfoam.com                      |
|    \\/     M anipulation  |                                                 |
\*---------------------------------------------------------------------------*/
FoamFile
{
    version     2.0;
    format      ascii;
    class       surfaceScalarField;
    location    "24.5";
    object      phi;
}
// * * * * * * * * * * * * * * * * * * * * * * * * * * * * * * * * * * * * * //

dimensions      [0 3 -1 0 0 0 0];
oriented        oriented;


internalField   nonuniform List<scalar> 
18940
(
0.000346964
-0.234566
0.234219
0.00133859
-0.216675
0.215683
0.00280071
-0.205147
0.203684
0.00456677
-0.197296
0.19553
0.00650951
-0.191437
0.189494
0.00852999
-0.186525
0.184505
0.0105565
-0.181986
0.179959
0.012541
-0.177529
0.175545
0.0144543
-0.173036
0.171122
0.0162816
-0.168477
0.166649
0.0180182
-0.163873
0.162136
0.0196668
-0.159266
0.157618
0.021234
-0.154703
0.153136
0.0227297
-0.150226
0.14873
0.0241646
-0.145869
0.144434
0.0255502
-0.141658
0.140272
0.0268978
-0.137601
0.136254
0.0282177
-0.133698
0.132378
0.0295179
-0.129927
0.128627
-0.12625
0.124964
0.0308037
0.000370147
-0.234936
0.00138152
-0.217686
0.00285429
-0.206619
0.00462505
-0.199067
0.00656305
-0.193375
0.00856939
-0.188532
0.0105735
-0.18399
0.012529
-0.179485
0.0144085
-0.174915
0.0161987
-0.170267
0.0178967
-0.165571
0.0195063
-0.160876
0.0210351
-0.156232
0.0224936
-0.151684
0.0238931
-0.147269
0.0252453
-0.14301
0.0265616
-0.138918
0.0278528
-0.134989
0.0291275
-0.131202
-0.127514
0.0303914
0.000391382
-0.235327
0.00141886
-0.218714
0.00290046
-0.208101
0.00467228
-0.200838
0.00660203
-0.195304
0.00859069
-0.19052
0.0105689
-0.185968
0.0124921
-0.181408
0.0143345
-0.176758
0.016085
-0.172017
0.017742
-0.167228
0.0193104
-0.162444
0.0207991
-0.15772
0.0222188
-0.153104
0.0235814
-0.148631
0.0248987
-0.144327
0.0261825
-0.140202
0.0274437
-0.13625
0.0286915
-0.13245
-0.128755
0.0299324
0.000405089
-0.235732
0.00144755
-0.219756
0.00293727
-0.209591
0.00470772
-0.202609
0.00662597
-0.197223
0.0085935
-0.192488
0.0105425
-0.187917
0.01243
-0.183296
0.0142326
-0.17856
0.0159407
-0.173725
0.0175544
-0.168842
0.0190799
-0.16397
0.0205268
-0.159167
0.0219064
-0.154484
0.0232308
-0.149956
0.0245121
-0.145608
0.0257622
-0.141452
0.0269924
-0.137481
0.0282123
-0.13367
-0.129972
0.0294293
0.000416227
-0.236148
0.00147098
-0.220811
0.00296607
-0.211086
0.00473202
-0.204375
0.00663531
-0.199126
0.00857826
-0.194431
0.0104946
-0.189833
0.0123435
-0.185144
0.0141034
-0.18032
0.0157668
-0.175389
0.0173352
-0.17041
0.0188159
-0.16545
0.0202195
-0.160571
0.0215576
-0.155822
0.0228427
-0.151241
0.0240869
-0.146853
0.0253023
-0.142667
0.0265005
-0.138679
0.0276916
-0.134861
-0.131165
0.0288841
0.000425223
-0.236574
0.00148953
-0.221875
0.00298711
-0.212583
0.00474537
-0.206133
0.00663034
-0.201011
0.00854531
-0.196346
0.0104258
-0.191714
0.0122331
-0.186952
0.0139478
-0.182035
0.0155641
-0.177005
0.0170852
-0.171931
0.0185195
-0.166885
0.0198782
-0.16193
0.0211736
-0.157117
0.0224182
-0.152485
0.0236243
-0.148059
0.024804
-0.143847
0.0259691
-0.139844
0.0271306
-0.136022
-0.132332
0.0282977
0.000432645
-0.237006
0.0015039
-0.222947
0.00300095
-0.21408
0.00474826
-0.20788
0.00661153
-0.202874
0.00849519
-0.198229
0.0103367
-0.193555
0.0120995
-0.188715
0.0137664
-0.183702
0.0153335
-0.178572
0.0168054
-0.173403
0.0181916
-0.168271
0.0195041
-0.163242
0.0207555
-0.158369
0.0219585
-0.153688
0.0231253
-0.149225
0.0242681
-0.14499
0.0253991
-0.140975
0.0265298
-0.137153
-0.133473
0.0276708
0.000438647
-0.237445
0.00151441
-0.224022
0.00300799
-0.215574
0.00474114
-0.209614
0.00657941
-0.204712
0.00842856
-0.200078
0.0102281
-0.195355
0.0119437
-0.19043
0.0135604
-0.185318
0.0150761
-0.180088
0.0164968
-0.174824
0.0178333
-0.169607
0.0190981
-0.164507
0.0203041
-0.159575
0.0214641
-0.154848
0.0225904
-0.150352
0.0236951
-0.146094
0.0247906
-0.14207
0.0258893
-0.138252
-0.134586
0.0270029
0.000443336
-0.237888
0.00152132
-0.2251
0.00300864
-0.217061
0.00472455
-0.211329
0.00653464
-0.206523
0.00834619
-0.20189
0.0101008
-0.197109
0.0117667
-0.192096
0.0133308
-0.186882
0.0147929
-0.18155
0.0161607
-0.176192
0.0174457
-0.170892
0.0186612
-0.165722
0.0198203
-0.160734
0.0209359
-0.155964
0.0220201
-0.151436
0.023085
-0.147159
0.0241434
-0.143129
0.0252085
-0.139317
-0.135671
0.0262932
0.000446784
-0.238335
0.00152494
-0.226179
0.00300339
-0.21854
0.00469911
-0.213025
0.00647799
-0.208301
0.00824899
-0.203661
0.00995602
-0.198816
0.0115695
-0.19371
0.0130788
-0.188392
0.0144853
-0.182957
0.0157982
-0.177504
0.01703
-0.172124
0.0181944
-0.166887
0.0193049
-0.161844
0.0203743
-0.157033
0.0214146
-0.152476
0.0224377
-0.148182
0.0234568
-0.144148
0.024486
-0.140346
-0.136725
0.0255398
0.000449095
-0.238784
0.00152558
-0.227255
0.00299277
-0.220007
0.00466555
-0.214698
0.00641037
-0.210046
0.00813805
-0.205389
0.00979489
-0.200473
0.0113537
-0.195268
0.0128059
-0.189844
0.0141549
-0.184305
0.0154109
-0.17876
0.0165875
-0.173301
0.0176989
-0.167998
0.0187589
-0.162904
0.0197799
-0.158054
0.0207739
-0.15347
0.0217527
-0.149161
0.0227297
-0.145125
0.0237199
-0.141336
-0.137745
0.0247399
0.000450423
-0.239235
0.0015237
-0.228328
0.00297747
-0.221461
0.00462474
-0.216345
0.00633285
-0.211754
0.00801466
-0.20707
0.00961892
-0.202077
0.0111208
-0.19677
0.012514
-0.191237
0.0138033
-0.185595
0.0150005
-0.179958
0.0161199
-0.17442
0.0171762
-0.169054
0.0181832
-0.163911
0.0191534
-0.159025
0.0200983
-0.154415
0.0210296
-0.150093
0.0219607
-0.146056
0.022908
-0.142283
-0.138727
0.0238904
0.000451043
-0.239686
0.0015199
-0.229397
0.00295831
-0.222899
0.00457773
-0.217965
0.0062467
-0.213423
0.00788031
-0.208704
0.00942982
-0.203627
0.0108728
-0.198213
0.012205
-0.192569
0.0134329
-0.186823
0.0145693
-0.181094
0.0156293
-0.17548
0.0166281
-0.170053
0.0175795
-0.164863
0.0184958
-0.159941
0.0193881
-0.155307
0.020268
-0.150972
0.0211487
-0.146937
0.0220481
-0.143183
-0.139667
0.0229874
0.000451431
-0.240137
0.00151502
-0.230461
0.00293634
-0.22432
0.00452574
-0.219554
0.00615334
-0.215051
0.00773668
-0.210287
0.00922955
-0.20512
0.0106119
-0.199596
0.0118814
-0.193839
0.0130462
-0.187988
0.01412
-0.182168
0.0151185
-0.176479
0.0160571
-0.170992
0.0169497
-0.165755
0.0178084
-0.1608
0.0186439
-0.156143
0.0194672
-0.151796
0.0202917
-0.147761
0.021136
-0.144027
-0.140555
0.0220246
0.000452386
-0.240589
0.00151022
-0.231519
0.00291273
-0.225723
0.00447008
-0.221111
0.00605435
-0.216635
0.00758564
-0.211819
0.00902032
-0.206555
0.0103407
-0.200916
0.0115463
-0.195044
0.0126466
-0.189088
0.0136561
-0.183177
0.0145911
-0.177414
0.0154669
-0.171868
0.0162973
-0.166586
0.017094
-0.161596
0.0178672
-0.156916
0.0186271
-0.152556
0.0193868
-0.148521
0.0201656
-0.144806
-0.141383
0.0209938
0.000455051
-0.241044
0.0015068
-0.23257
0.0028887
-0.227105
0.00441209
-0.222635
0.00595136
-0.218174
0.00742919
-0.213297
0.00880454
-0.20793
0.010062
-0.202174
0.0112029
-0.196185
0.0122378
-0.190123
0.0131821
-0.184122
0.014052
-0.178283
0.0148629
-0.172678
0.015628
-0.167351
0.0163584
-0.162327
0.0170633
-0.157621
0.0177518
-0.153244
0.0184359
-0.149205
0.0191363
-0.145506
-0.142139
0.0198918
0.00046081
-0.241505
0.00150605
-0.233616
0.00286551
-0.228464
0.0043533
-0.224123
0.00584619
-0.219667
0.00726949
-0.21472
0.00858478
-0.209245
0.00977894
-0.203368
0.0108549
-0.197261
0.0118243
-0.191092
0.012703
-0.185
0.0135071
-0.179088
0.0142515
-0.173423
0.014949
-0.168048
0.0156096
-0.162987
0.0162414
-0.158253
0.016852
-0.153855
0.0174514
-0.149804
0.0180604
-0.146115
-0.142797
0.018719
0.000471992
-0.241977
0.00151059
-0.234654
0.00284564
-0.229799
0.00429579
-0.225573
0.00574075
-0.221112
0.00710857
-0.216088
0.0083635
-0.2105
0.00949459
-0.204499
0.0105062
-0.198273
0.011411
-0.191997
0.0122247
-0.185814
0.012963
-0.179826
0.01364
-0.1741
0.0142671
-0.168676
0.0148534
-0.163574
0.015406
-0.158805
0.0159312
-0.15438
0.0164356
-0.150309
0.0169323
-0.146612
-0.143312
0.0174464
0.000496182
-0.242473
0.00152764
-0.235686
0.00283311
-0.231105
0.00424142
-0.226981
0.00563624
-0.222507
0.00694782
-0.217399
0.00814268
-0.211695
0.00921185
-0.205568
0.0101611
-0.199222
0.0110037
-0.19284
0.0117552
-0.186565
0.0124303
-0.180501
0.0130412
-0.174711
0.0135967
-0.169231
0.0141027
-0.16408
0.0145624
-0.159265
0.0149777
-0.154795
0.0153474
-0.150678
0.015676
-0.146941
-0.143662
0.0160262
0.000553483
-0.243027
0.00156557
-0.236698
0.00282766
-0.232367
0.004189
-0.228342
0.00553215
-0.22385
0.00678761
-0.218655
0.00792356
-0.212831
0.00893295
-0.206577
0.00982306
-0.200112
0.0106079
-0.193625
0.011303
-0.187261
0.0119225
-0.18112
0.0124767
-0.175265
0.0129711
-0.169725
0.0134055
-0.164514
0.0137725
-0.159632
0.0140554
-0.155078
0.0142284
-0.150851
0.0142854
-0.146998
-0.143827
0.0144505
0.250555
0.000408579
-0.250963
0.250172
0.000382067
0.249798
0.000374616
0.249423
0.000374576
0.249046
0.000377374
0.248664
0.000381637
0.248278
0.000386639
0.247886
0.000391792
0.247489
0.000396705
0.247088
0.000401169
0.246683
0.000405089
0.246274
0.000408435
0.245863
0.000411189
0.24545
0.000413327
0.245035
0.000414722
0.24462
0.000415167
0.244206
0.000413613
0.243797
0.000409507
0.243403
0.000393653
0.00037632
0.252228
0.00100617
-0.252826
0.251596
0.00101458
0.250935
0.00103492
0.250249
0.00106119
0.249537
0.00108888
0.248802
0.00111659
0.248045
0.00114385
0.247267
0.00117016
0.246468
0.0011951
0.245651
0.0012184
0.244816
0.00123995
0.243965
0.00125972
0.243099
0.00127769
0.242218
0.00129387
0.241325
0.00130811
0.24042
0.00132019
0.239504
0.00132901
0.238579
0.00133428
0.237643
0.00132972
0.00132194
0.250791
0.00156744
-0.251352
0.250166
0.00163981
0.249488
0.00171234
0.248763
0.00178601
0.247994
0.0018585
0.247182
0.00192856
0.24633
0.00199584
0.24544
0.00206011
0.244514
0.00212112
0.243553
0.00217871
0.242561
0.00223282
0.241537
0.0022835
0.240484
0.00233081
0.239403
0.00237485
0.238295
0.00241564
0.237162
0.0024532
0.236004
0.00248701
0.234821
0.00251729
0.233609
0.00254166
0.00256432
0.246542
0.00200316
-0.246977
0.246037
0.00214415
0.245469
0.00228047
0.244841
0.00241364
0.244157
0.00254306
0.243418
0.00266788
0.242626
0.00278774
0.241783
0.00290249
0.240892
0.00301197
0.239955
0.00311611
0.238973
0.00321492
0.237948
0.0033085
0.236882
0.00339706
0.235776
0.00348086
0.234631
0.00356016
0.233449
0.00363532
0.23223
0.00370642
0.230973
0.00377406
0.229677
0.00383755
0.00389886
0.240207
0.00227805
-0.240482
0.239862
0.00248922
0.239449
0.00269357
0.238971
0.00289204
0.238429
0.00308462
0.237826
0.0032708
0.237164
0.00345024
0.236443
0.00362273
0.235667
0.00378816
0.234837
0.00394646
0.233954
0.00409771
0.23302
0.00424209
0.232038
0.0043799
0.231007
0.0045116
0.229929
0.0046377
0.228806
0.00475889
0.227636
0.00487574
0.226421
0.00498919
0.225159
0.0050994
0.00520801
0.232561
0.00240036
-0.232683
0.232369
0.00268102
0.232109
0.00295372
0.231782
0.00321884
0.231391
0.00347644
0.230935
0.00372616
0.230418
0.00396767
0.22984
0.00420072
0.229203
0.00442517
0.228508
0.00464098
0.227758
0.00484823
0.226953
0.00504715
0.226094
0.00523816
0.225184
0.00542187
0.224223
0.00559906
0.223211
0.00577073
0.222149
0.00593791
0.221036
0.00610196
0.219872
0.00626374
0.00642505
0.22429
0.0023998
-0.22429
0.224224
0.00274746
0.224091
0.00308643
0.223893
0.0034167
0.223632
0.00373821
0.223307
0.00405065
0.222921
0.00435365
0.222475
0.00464694
0.22197
0.00493032
0.221407
0.00520374
0.220788
0.00546726
0.220114
0.00572117
0.219386
0.00596596
0.218606
0.00620238
0.217773
0.00643148
0.216889
0.0066546
0.215954
0.00687325
0.214967
0.00708928
0.213926
0.00730424
0.00752024
0.21591
0.00231167
-0.215822
0.215935
0.00272288
0.215896
0.00312482
0.215796
0.00351723
0.215634
0.0038999
0.215412
0.00427249
0.215131
0.0046346
0.214792
0.0049859
0.214397
0.00532612
0.213945
0.00565517
0.213439
0.00597309
0.21288
0.00628016
0.212269
0.00657693
0.211607
0.0068643
0.210895
0.00714354
0.210134
0.00741637
0.209322
0.00768483
0.20846
0.00795139
0.207546
0.0082184
0.00848848
0.20776
0.00216852
-0.207617
0.207843
0.00263958
0.207867
0.00310082
0.207833
0.00355183
0.20774
0.00399226
0.207591
0.00442171
0.207386
0.00483971
0.207126
0.00524586
0.206812
0.00563982
0.206446
0.00602142
0.206029
0.00639065
0.205561
0.00674775
0.205045
0.00709329
0.204481
0.00742826
0.20387
0.00775417
0.203213
0.00807308
0.202511
0.0083877
0.201761
0.00870121
0.200962
0.00901702
0.00933858
0.200037
0.00199676
-0.199865
0.200152
0.0025242
0.200212
0.00304123
0.200216
0.00354736
0.200166
0.00404214
0.200063
0.00452505
0.199907
0.00499556
0.1997
0.00545318
0.199442
0.00589748
0.199135
0.00632818
0.198781
0.00674518
0.19838
0.00714862
0.197934
0.00753905
0.197445
0.00791748
0.196914
0.0082856
0.196341
0.00864582
0.195727
0.00900156
0.195071
0.0093569
0.194372
0.00971669
0.0100857
0.192832
0.00181591
-0.192651
0.192959
0.00239667
0.193034
0.00296646
0.193057
0.00352464
0.193028
0.00407068
0.19295
0.00460396
0.192821
0.00512386
0.192645
0.00562977
0.192421
0.00612117
0.192151
0.00659763
0.191838
0.0070589
0.191481
0.00750499
0.191084
0.00793632
0.190648
0.00835381
0.190174
0.0087593
0.189665
0.00915538
0.18912
0.00954638
0.188539
0.00993724
0.187921
0.010335
0.010746
0.186169
0.0016392
-0.185992
0.186295
0.00227081
0.18637
0.00289088
0.186396
0.00349859
0.186374
0.0040933
0.186303
0.00467432
0.186186
0.00524093
0.186023
0.00579241
0.185817
0.00632807
0.185567
0.00684734
0.185276
0.00734977
0.184946
0.00783513
0.184579
0.00830364
0.184176
0.00875595
0.183742
0.00919396
0.183277
0.00962019
0.182783
0.01004
0.182261
0.0104591
0.181709
0.0108878
0.0113343
0.180028
0.00147488
-0.179864
0.180144
0.00215555
0.180211
0.00282394
0.18023
0.00347915
0.180203
0.00412047
0.18013
0.00474712
0.180013
0.00535827
0.179852
0.00595307
0.179649
0.00653068
0.179406
0.00709032
0.179125
0.0076313
0.178807
0.00815307
0.178455
0.00865553
0.178072
0.00913886
0.177661
0.00960484
0.177226
0.0100554
0.176769
0.0104974
0.176292
0.0109362
0.175792
0.0113876
0.0118611
0.17437
0.0013278
-0.174223
0.174469
0.00205604
0.174522
0.00277121
0.174529
0.00347238
0.17449
0.00415872
0.174408
0.00482935
0.174283
0.00548334
0.174117
0.00611969
0.17391
0.00673743
0.173665
0.00733553
0.173383
0.00791302
0.173067
0.00846894
0.17272
0.00900274
0.172345
0.00951387
0.171946
0.0100038
0.171528
0.0104731
0.171095
0.0109304
0.170653
0.0113787
0.170197
0.0118438
0.0123322
0.169142
0.00120026
-0.169015
0.169223
0.001975
0.169259
0.00273574
0.169249
0.00348161
0.169196
0.00421167
0.169101
0.00492496
0.168964
0.00562043
0.168786
0.00629698
0.16857
0.00695344
0.168317
0.00758855
0.168029
0.00820101
0.167709
0.0087894
0.167359
0.00935259
0.166984
0.00988901
0.166588
0.0103995
0.166179
0.0108824
0.165761
0.0113481
0.165346
0.0117938
0.164928
0.0122618
0.0127464
0.164292
0.0010931
-0.164185
0.164354
0.00191327
0.164371
0.00271855
0.164344
0.00350804
0.164275
0.00428074
0.164165
0.00503558
0.164014
0.00577142
0.163824
0.00648704
0.163596
0.0071811
0.163332
0.00785211
0.163035
0.00849842
0.162706
0.00911811
0.162349
0.00970937
0.161969
0.0102694
0.161571
0.0107979
0.161163
0.0112898
0.160754
0.0117578
0.160361
0.0121861
0.159978
0.0126454
0.013092
0.159768
0.00100585
-0.159681
0.159811
0.00187042
0.15981
0.00271927
0.159767
0.00355137
0.159682
0.00436567
0.159556
0.005161
0.159392
0.00593616
0.159189
0.00668982
0.158949
0.00742047
0.158675
0.00812641
0.158368
0.00880568
0.15803
0.00945587
0.157665
0.0100744
0.157277
0.0106571
0.156873
0.0112024
0.156463
0.0116997
0.156056
0.0121644
0.155684
0.0125586
0.15533
0.0129992
0.0133437
0.155524
0.0009367
-0.155455
0.155549
0.00184496
0.155532
0.00273625
0.155474
0.00360983
0.155375
0.00446455
0.155237
0.00529918
0.15506
0.00611247
0.154847
0.00690298
0.154599
0.0076691
0.154316
0.00840893
0.154002
0.00912025
0.153657
0.00980022
0.153286
0.0104456
0.152892
0.0110509
0.152482
0.0116127
0.152068
0.0121141
0.151661
0.0125711
0.151309
0.0129106
0.150979
0.013329
0.0134716
0.151518
0.000883777
-0.151465
0.151529
0.00183409
0.151499
0.00276633
0.151428
0.0036799
0.15132
0.00457345
0.151173
0.00544575
0.15099
0.00629553
0.150772
0.0071213
0.150519
0.00792131
0.150235
0.00869357
0.149919
0.00943566
0.149575
0.0101444
0.149205
0.0108162
0.148811
0.0114442
0.1484
0.0120238
0.147983
0.012531
0.147573
0.0129814
0.147241
0.0132421
0.146952
0.0136185
0.0134259
0.147711
-0.147673
0.000845455
0.147711
0.00183391
0.147672
0.0028052
0.147596
0.00375656
0.147482
0.00468659
0.147334
0.00559418
0.147152
0.00647804
0.146936
0.00733663
0.146689
0.00816816
0.146412
0.00897054
0.146107
0.00974132
0.145774
0.0104771
0.145416
0.0111742
0.145035
0.0118248
0.144635
0.0124244
0.144223
0.0129426
0.143806
0.0133985
0.143459
0.0135891
0.143205
0.0138729
0.0128037
0.254114
7.37583e-05
-0.254188
0.254078
3.5728e-05
0.254047
3.14314e-05
0.254007
3.99252e-05
0.253953
5.39965e-05
0.253881
7.14825e-05
0.25379
9.10901e-05
0.253679
0.000111705
0.253546
0.000132518
0.253393
0.000153033
0.25322
0.00017281
0.253029
0.000191544
0.252819
0.00020962
0.252591
0.000227983
0.252346
0.000245118
0.252086
0.000260171
0.251813
0.000272653
0.251531
0.00028251
0.251247
0.00028391
0.000283731
0.255673
-0.000237039
-0.255362
0.255923
-0.000214512
0.256129
-0.000174985
0.256292
-0.000122567
0.256409
-6.36705e-05
0.256482
-1.00568e-06
0.256509
6.42908e-05
0.256489
0.000131129
0.256423
0.000198618
0.25631
0.00026587
0.256152
0.000331612
0.255948
0.000394696
0.255704
0.000454031
0.255414
0.000518385
0.255079
0.000579888
0.254703
0.000636319
0.254287
0.000687968
0.253835
0.000734856
0.253347
0.000772299
0.000804465
0.250953
-0.00088349
-0.250307
0.251528
-0.00078891
0.252037
-0.000684681
0.252485
-0.000570771
0.252872
-0.000450572
0.253198
-0.000326425
0.253461
-0.000199468
0.253664
-7.11718e-05
0.253804
5.84778e-05
0.253881
0.000189282
0.253895
0.000317069
0.253848
0.000441417
0.253738
0.000564576
0.253569
0.000687097
0.253343
0.000806143
0.253059
0.000920262
0.252718
0.00102886
0.252321
0.00113189
0.251866
0.00122741
0.00131821
0.242575
-0.00180329
-0.241655
0.243423
-0.00163714
0.244202
-0.00146392
0.244914
-0.00128274
0.245559
-0.00109513
0.246136
-0.00090297
0.246644
-0.000707611
0.247083
-0.000510303
0.247453
-0.000311722
0.247752
-0.000109307
0.247979
8.96453e-05
0.24814
0.000280865
0.24823
0.000474214
0.248252
0.000664549
0.248208
0.000850943
0.248095
0.0010325
0.247916
0.00120838
0.24767
0.0013782
0.247356
0.00154091
0.00169703
0.232482
-0.00291796
-0.231367
0.23353
-0.00268483
0.23451
-0.00244437
0.235424
-0.00219602
0.236269
-0.00194058
0.237046
-0.00167959
0.237752
-0.00141447
0.238389
-0.00114643
0.238953
-0.000876409
0.239449
-0.000605199
0.239875
-0.000335853
0.240226
-7.00763e-05
0.240505
0.00019438
0.240714
0.000455539
0.240852
0.000713082
0.240919
0.000965599
0.240915
0.0012123
0.240841
0.00145258
0.240696
0.00168559
0.00191127
0.221933
-0.0041567
-0.220694
0.22311
-0.00386144
0.224223
-0.00355729
0.225271
-0.00324424
0.226253
-0.00292303
0.227169
-0.00259511
0.228016
-0.00226203
0.228795
-0.00192525
0.229505
-0.00158619
0.230146
-0.00124618
0.230717
-0.000906762
0.231216
-0.000569247
0.231645
-0.000234489
0.232005
9.58601e-05
0.232294
0.000423484
0.232513
0.000747297
0.23266
0.00106444
0.232738
0.00137489
0.232746
0.00167801
0.00197356
0.211694
-0.00546318
-0.210388
0.212943
-0.00510996
0.214131
-0.00474571
0.215258
-0.00437097
0.216321
-0.00398669
0.217321
-0.0035945
0.218255
-0.00319619
0.219123
-0.00279348
0.219925
-0.00238799
0.22066
-0.00198118
0.221328
-0.00157443
0.221928
-0.00116916
0.222459
-0.000766159
0.222921
-0.000366155
0.223322
2.27679e-05
0.223651
0.000418049
0.223912
0.000803331
0.224106
0.00118146
0.224232
0.00155227
0.00191534
0.202167
-0.00679652
-0.200834
0.203446
-0.00638863
0.204667
-0.00596733
0.20583
-0.0055335
0.206932
-0.00508857
0.207972
-0.00463453
0.208949
-0.0041735
0.209863
-0.00370746
0.210713
-0.00323823
0.211499
-0.00276743
0.212221
-0.00229651
0.212879
-0.00182685
0.213473
-0.00135952
0.214002
-0.000895507
0.214461
-0.000436221
0.214866
1.25304e-05
0.215201
0.000468684
0.215472
0.00091025
0.215679
0.00134533
0.00177259
0.193508
-0.00812951
-0.192175
0.194788
-0.00766949
0.196014
-0.00719336
0.197183
-0.00670233
0.198293
-0.00619848
0.199343
-0.00568439
0.200332
-0.00516258
0.20126
-0.00463537
0.202127
-0.00410477
0.202932
-0.00357257
0.203676
-0.0030403
0.204358
-0.00250929
0.204979
-0.00198072
0.205539
-0.00145553
0.206038
-0.000935139
0.206471
-0.000420799
0.206851
8.88884e-05
0.207167
0.000594524
0.207422
0.00109009
0.00157788
0.185725
-0.00944572
-0.184409
0.186991
-0.00893555
0.188204
-0.00840609
0.18936
-0.00785892
0.190459
-0.00729711
0.191498
-0.00672405
0.192479
-0.00614279
0.193399
-0.00555596
0.19426
-0.00496586
0.195062
-0.00437436
0.195805
-0.00378304
0.196489
-0.00319321
0.197114
-0.00260603
0.197681
-0.00202246
0.198189
-0.00144353
0.198639
-0.000870133
0.199031
-0.000303034
0.199367
0.000258179
0.199645
0.000812509
0.00135744
0.178749
-0.0107366
-0.177458
0.179992
-0.010178
0.181182
-0.00959607
0.182316
-0.00899299
0.183392
-0.00837344
0.18441
-0.00774185
0.185369
-0.00710183
0.18627
-0.00645644
0.187112
-0.00580816
0.187896
-0.00515898
0.188624
-0.00451044
0.189294
-0.0038638
0.189909
-0.00322016
0.190467
-0.00258044
0.190968
-0.00194551
0.191415
-0.00131624
0.191805
-0.000693178
0.192142
-7.92677e-05
0.192424
0.000530814
0.00113025
0.17248
-0.0119992
-0.171218
0.173696
-0.011394
0.17486
-0.0107597
0.175967
-0.0101002
0.177016
-0.00942242
0.178006
-0.00873214
0.178938
-0.00803356
0.179812
-0.00733016
0.180628
-0.00662463
0.181388
-0.00591895
0.182092
-0.00521457
0.182741
-0.00451268
0.183335
-0.00381424
0.183875
-0.00312014
0.184361
-0.00243117
0.184793
-0.00174816
0.185171
-0.00107189
0.185496
-0.000403945
0.185771
0.000255832
0.000909216
0.166811
-0.0132344
-0.165575
0.168002
-0.012585
0.16914
-0.0118976
0.170219
-0.0111801
0.17124
-0.0104431
0.172201
-0.00969338
0.173104
-0.00893594
0.173948
-0.00817469
0.174736
-0.00741243
0.175468
-0.00665102
0.176145
-0.0058918
0.176769
-0.00513578
0.177338
-0.00438381
0.177855
-0.00363667
0.178319
-0.00289509
0.17873
-0.0021599
0.17909
-0.0014316
0.179397
-0.000710945
0.179658
-4.70022e-06
0.000702652
0.161643
-0.0144459
-0.160432
0.162814
-0.0137556
0.16393
-0.0130133
0.164985
-0.0122353
0.165979
-0.0114371
0.166912
-0.0106265
0.167785
-0.0098093
0.1686
-0.00898989
0.169359
-0.00817101
0.170062
-0.00735433
0.170711
-0.00654092
0.171307
-0.00573158
0.17185
-0.00492699
0.172342
-0.0041278
0.172781
-0.00333469
0.17317
-0.00254841
0.173508
-0.00176963
0.173796
-0.00099969
0.174032
-0.000240412
0.0005122
0.156897
-0.0156403
-0.155703
0.158055
-0.0149135
0.159154
-0.0141123
0.160188
-0.01327
0.161159
-0.0124073
0.162065
-0.0115332
0.162911
-0.0106546
0.163697
-0.00977619
0.164426
-0.00890046
0.165101
-0.00802869
0.165722
-0.00716157
0.16629
-0.00629958
0.166806
-0.00544315
0.167271
-0.00459277
0.167685
-0.00374902
0.168049
-0.00291261
0.168364
-0.00208433
0.168629
-0.00126514
0.168845
-0.0004562
0.000342729
0.15251
-0.0168301
-0.15132
0.153665
-0.0160689
0.154754
-0.0152012
0.155773
-0.0142885
0.156721
-0.0133559
0.157602
-0.012414
0.158419
-0.0114715
0.159176
-0.0105329
0.159875
-0.00960009
0.16052
-0.00867352
0.161112
-0.00775333
0.161652
-0.00683949
0.162141
-0.0059321
0.162579
-0.00503143
0.162968
-0.00413795
0.163308
-0.00325232
0.163599
-0.0023753
0.163842
-0.00150773
0.164036
-0.000650852
0.000194329
0.148437
-0.0180439
-0.147223
0.149605
-0.0172366
0.15069
-0.0162861
0.151694
-0.0152931
0.15262
-0.0142812
0.153471
-0.0132656
0.154257
-0.0122567
0.154981
-0.0112575
0.155649
-0.0102679
0.156263
-0.00928752
0.156825
-0.00831549
0.157337
-0.00735107
0.157799
-0.00639391
0.158211
-0.00544408
0.158575
-0.00450192
0.158891
-0.00356802
0.159159
-0.00264315
0.159379
-0.00172822
0.159553
-0.000824243
6.63552e-05
0.144649
-0.0193452
-0.143348
0.14585
-0.0184375
0.146931
-0.017367
0.147916
-0.0162783
0.14881
-0.0151751
0.149624
-0.01408
0.150372
-0.0130042
0.15106
-0.0119456
0.151694
-0.0109014
0.152276
-0.00986952
0.152808
-0.00884777
0.153291
-0.00783462
0.153727
-0.00682929
0.154114
-0.00583164
0.154454
-0.00484197
0.154747
-0.00386086
0.154993
-0.00288912
0.155193
-0.00192784
0.155347
-0.000978052
-4.17035e-05
0.14116
-0.0208022
-0.139703
0.14239
-0.0196676
0.143449
-0.0184256
0.144393
-0.0172221
0.145239
-0.0160217
0.146006
-0.0148473
0.14671
-0.0137075
0.147358
-0.0125942
0.147956
-0.0114997
0.148507
-0.0104198
0.14901
-0.00935114
0.149467
-0.00829146
0.149877
-0.00723969
0.150241
-0.00619566
0.150559
-0.00515972
0.150831
-0.00413252
0.151057
-0.00311498
0.151237
-0.00210827
0.151373
-0.00111392
-0.000133542
0.138034
-0.136638
-0.0221979
0.139177
-0.0208107
0.140196
-0.0194448
0.141063
-0.0180892
0.141845
-0.016803
0.142562
-0.0155643
0.143221
-0.0143671
0.143831
-0.0132042
0.144396
-0.0120647
0.144917
-0.0109406
0.145393
-0.00982761
0.145825
-0.00872328
0.146212
-0.00762657
0.146554
-0.00653746
0.146851
-0.00545647
0.147103
-0.00438442
0.14731
-0.00332235
0.147473
-0.00227129
0.147592
-0.00123286
-0.000214233
0.0301149
0.111248
-0.109797
-0.031566
0.0286381
0.114306
-0.11283
0.027133
0.117501
-0.115996
0.0255959
0.120855
-0.119318
0.0240232
0.1244
-0.122828
0.0224123
0.128178
-0.126567
0.0207607
0.132247
-0.130595
0.0190669
0.136684
-0.13499
0.0173302
0.14159
-0.139853
0.0155506
0.147095
-0.145315
0.0137297
0.153355
-0.151534
0.0118716
0.160552
-0.158694
0.00998472
0.168884
-0.166997
0.0080855
0.178532
-0.176633
0.0062031
0.189618
-0.187735
0.00438665
0.202105
-0.200289
0.00271435
0.215669
-0.213996
0.00130434
0.229475
-0.228065
0.000322591
0.241788
-0.240806
0.249546
-0.249224
0.0299462
0.112693
-0.0313912
0.0284756
0.115777
0.0269769
0.119
0.0254463
0.122385
0.0238805
0.125966
0.0222765
0.129782
0.0206319
0.133892
0.0189451
0.13837
0.017215
0.14332
0.0154419
0.148868
0.0136274
0.155169
0.0117759
0.162404
0.00989653
0.170763
0.00800636
0.180423
0.00613576
0.191488
0.00433536
0.203906
0.00268477
0.217319
0.00130161
0.230858
0.00034669
0.242743
0.249893
0.0297359
0.11413
-0.0311726
0.0282738
0.117239
0.0267836
0.12049
0.0252618
0.123907
0.023705
0.127523
0.0221102
0.131377
0.0204748
0.135527
0.0187971
0.140048
0.017076
0.145041
0.0153117
0.150632
0.0135061
0.156975
0.0116636
0.164246
0.00979409
0.172633
0.00791532
0.182301
0.00605865
0.193345
0.00427567
0.205689
0.00264653
0.218948
0.00128721
0.232218
0.000350119
0.24368
0.250243
0.0294857
0.115556
-0.030912
0.0280341
0.118691
0.0265546
0.121969
0.0250438
0.125418
0.023498
0.129069
0.0219143
0.132961
0.0202901
0.137151
0.0186236
0.141715
0.0169137
0.146751
0.0151605
0.152385
0.0133658
0.15877
0.0115348
0.166077
0.00967731
0.17449
0.00781209
0.184167
0.00597119
0.195186
0.00420695
0.207453
0.00259962
0.220556
0.00126357
0.233554
0.000345424
0.244598
0.250589
0.0291977
0.11697
-0.0306115
0.0277585
0.12013
0.0262916
0.123436
0.0247935
0.126916
0.0232606
0.130601
0.0216899
0.134532
0.0200788
0.138762
0.0184255
0.143368
0.0167287
0.148448
0.0149885
0.154125
0.013207
0.160551
0.0113894
0.167895
0.0095462
0.176333
0.00769661
0.186016
0.00587348
0.197009
0.00412977
0.209197
0.00254578
0.22214
0.00123424
0.234865
0.00033688
0.245496
0.250926
0.0288742
0.11837
-0.0302742
0.0274491
0.121555
0.0259964
0.124889
0.0245126
0.1284
0.0229941
0.13212
0.0214381
0.136088
0.0198418
0.140358
0.0182033
0.145007
0.0165214
0.15013
0.0147962
0.155851
0.0130299
0.162317
0.0112278
0.169697
0.00940093
0.17816
0.0075691
0.187848
0.00576585
0.198812
0.00404475
0.210918
0.00248601
0.223698
0.00120058
0.236151
0.00032566
0.246371
0.251251
0.0285181
0.119755
-0.0299031
0.0271081
0.122965
0.0256709
0.126326
0.0242027
0.129868
0.0227
0.133622
0.02116
0.137628
0.01958
0.141938
0.0179579
0.146629
0.0162926
0.151795
0.0145842
0.157559
0.0128348
0.164067
0.0110503
0.171482
0.0092418
0.179969
0.00742984
0.18966
0.00564863
0.200593
0.00395224
0.212614
0.0024207
0.22523
0.00116315
0.237408
0.000312465
0.247221
0.251564
0.0281321
0.121124
-0.0295014
0.026738
0.124359
0.025317
0.127747
0.0238653
0.13132
0.0223795
0.135108
0.0208567
0.139151
0.0192942
0.143501
0.01769
0.148233
0.0160428
0.153442
0.0143528
0.159249
0.0126223
0.165797
0.0108571
0.173247
0.00906905
0.181757
0.00727908
0.19145
0.00552206
0.20235
0.00385252
0.214284
0.00235021
0.226732
0.00112247
0.238636
0.000297897
0.248046
0.251862
0.027719
0.122478
-0.0290726
0.0263411
0.125737
0.0249366
0.129151
0.023502
0.132754
0.0220338
0.136576
0.0205291
0.140655
0.0189852
0.145045
0.0174
0.149818
0.0157724
0.15507
0.0141024
0.160919
0.0123924
0.167507
0.0106485
0.174991
0.00888293
0.183522
0.00711706
0.193216
0.00538639
0.204081
0.00374588
0.215924
0.00227493
0.228203
0.001079
0.239832
0.00028237
0.248842
0.252144
0.0272815
0.123817
-0.02862
0.0259192
0.127099
0.0245313
0.130539
0.0231139
0.134172
0.0216637
0.138027
0.0201777
0.142141
0.0186533
0.146569
0.0170884
0.151383
0.0154816
0.156677
0.0138332
0.162568
0.0121454
0.169195
0.0104248
0.176711
0.00868361
0.185264
0.00694396
0.194955
0.00524187
0.205783
0.00363261
0.217534
0.00219518
0.229641
0.00103311
0.240994
0.000266129
0.249609
0.25241
0.0268218
0.125142
-0.0281468
0.0254742
0.128447
0.0241021
0.131911
0.0227017
0.135572
0.0212696
0.139459
0.0198029
0.143608
0.0182988
0.148073
0.0167552
0.152926
0.0151707
0.158261
0.0135453
0.164193
0.0118815
0.170859
0.0101859
0.178407
0.00847123
0.186978
0.00675999
0.196667
0.00508871
0.207454
0.00351297
0.219109
0.00211128
0.231042
0.000985079
0.24212
0.000249334
0.250345
0.252659
0.0263414
0.126455
-0.0276554
0.0250066
0.129782
0.0236492
0.133269
0.0222653
0.136956
0.0208514
0.140873
0.0194044
0.145055
0.0179215
0.149556
0.0164003
0.154448
0.0148393
0.159822
0.0132386
0.165794
0.0116006
0.172497
0.00993197
0.180076
0.00824589
0.188664
0.00656527
0.198347