/*--------------------------------*- C++ -*----------------------------------*\
| =========                 |                                                 |
| \\      /  F ield         | OpenFOAM: The Open Source CFD Toolbox           |
|  \\    /   O peration     | Version:  v1912                                 |
|   \\  /    A nd           | Website:  www.openfoam.com                      |
|    \\/     M anipulation  |                                                 |
\*---------------------------------------------------------------------------*/
FoamFile
{
    version     2.0;
    format      ascii;
    class       surfaceScalarField;
    location    "2";
    object      phi;
}
// * * * * * * * * * * * * * * * * * * * * * * * * * * * * * * * * * * * * * //

dimensions      [0 3 -1 0 0 0 0];
oriented        oriented;


internalField   nonuniform List<scalar> 
38030
(
-1.08546e-05
-0.00800283
0.00801369
-3.48539e-05
-0.00741392
0.00743792
-6.86811e-05
-0.00688563
0.00691946
-0.000109359
-0.00641355
0.00645423
-0.000154261
-0.00599304
0.00603794
-0.000201186
-0.00561952
0.00566644
-0.0002483
-0.00528858
0.00533569
-0.00029408
-0.00499606
0.00504184
-0.000337261
-0.00473806
0.00478125
-0.000376805
-0.00451097
0.00455052
-0.000411856
-0.00431145
0.0043465
-0.000441725
-0.00413642
0.00416629
-0.000465859
-0.00398307
0.00400721
-0.000483829
-0.00384883
0.0038668
-0.000495316
-0.00373136
0.00374285
-0.000500094
-0.00362853
0.00363331
-0.00049803
-0.0035384
0.00353634
-0.000489066
-0.00345923
0.00345027
-0.000473221
-0.00338944
0.0033736
-0.000450577
-0.00332761
0.00330497
-0.00042128
-0.00327246
0.00324316
-0.000385531
-0.00322286
0.00318711
-0.000343582
-0.0031778
0.00313585
-0.000295728
-0.00313639
0.00308853
-0.000242302
-0.00309785
0.00304442
-0.000183672
-0.0030615
0.00300287
-0.000120228
-0.00302679
0.00296335
-5.23709e-05
-0.00299325
0.00292539
1.94675e-05
-0.00296044
0.0028886
-0.00292791
0.00285259
9.47889e-05
-9.60247e-06
-0.00799323
-3.27011e-05
-0.00739082
-6.51938e-05
-0.00685314
-0.000103906
-0.00637484
-0.000146215
-0.00595073
-0.000189948
-0.00557579
-0.0002333
-0.00524523
-0.000274775
-0.00495458
-0.000313141
-0.0046997
-0.000347381
-0.00447673
-0.000376668
-0.00428216
-0.000400333
-0.00411276
-0.000417845
-0.00396556
-0.000428796
-0.00383788
-0.000432881
-0.00372728
-0.000429895
-0.00363152
-0.000419715
-0.00354858
-0.000402302
-0.00347665
-0.000377685
-0.00341406
-0.000345962
-0.00335933
-0.000307292
-0.00331113
-0.000261892
-0.00326826
-0.000210029
-0.00322966
-0.000152016
-0.0031944
-8.82069e-05
-0.00316165
-1.89886e-05
-0.00313072
5.52262e-05
-0.00310101
0.000134006
-0.00307203
0.000216904
-0.00304333
-0.0030145
0.000303489
-8.94169e-06
-0.00798429
-3.07312e-05
-0.00736904
-6.13182e-05
-0.00682255
-9.74599e-05
-0.0063387
-0.000136521
-0.00591167
-0.000176338
-0.00553597
-0.00021513
-0.00520644
-0.00025143
-0.00491828
-0.000284032
-0.0046671
-0.000311949
-0.00444882
-0.000334376
-0.00425974
-0.000350669
-0.00409646
-0.00036032
-0.00395591
-0.000362936
-0.00383527
-0.000358232
-0.00373198
-0.000346016
-0.00364373
-0.000326182
-0.00356842
-0.0002987
-0.00350413
-0.000263615
-0.00344914
-0.000221036
-0.00340191
-0.000171137
-0.00336103
-0.000114148
-0.00332525
-5.03536e-05
-0.00329346
1.99131e-05
-0.00326467
9.62762e-05
-0.00323802
0.000178323
-0.00321277
0.000265609
-0.0031883
0.000357672
-0.00316409
0.000454028
-0.00313969
-0.00311463
0.000554157
-8.39042e-06
-0.0079759
-2.86976e-05
-0.00734873
-5.69888e-05
-0.00679426
-9.00484e-05
-0.00630564
-0.000125257
-0.00587646
-0.000160475
-0.00550075
-0.000193949
-0.00517296
-0.000224241
-0.00488799
-0.000250176
-0.00464116
-0.000270795
-0.0044282
-0.00028532
-0.00424521
-0.000293133
-0.00408865
-0.000293743
-0.0039553
-0.000286781
-0.00384223
-0.000271975
-0.00374679
-0.000249149
-0.00366656
-0.000218208
-0.00359936
-0.000179135
-0.0035432
-0.000131986
-0.00349629
-7.68825e-05
-0.00345701
-1.40103e-05
-0.0034239
5.63847e-05
-0.00339565
0.000134001
-0.00337107
0.000218484
-0.00334915
0.000309433
-0.00332897
0.000406404
-0.00330974
0.000508919
-0.00329081
0.000616473
-0.00327165
0.000728531
-0.00325175
-0.00323062
0.000844523
-7.82145e-06
-0.00796808
-2.64844e-05
-0.00733006
-5.21579e-05
-0.00676859
-8.16866e-05
-0.00627611
-0.000112493
-0.00584566
-0.000142475
-0.00547077
-0.000169916
-0.00514552
-0.000193415
-0.00486449
-0.000211829
-0.00462275
-0.000224231
-0.0044158
-0.000229873
-0.00423957
-0.000228161
-0.00409036
-0.000218627
-0.00396483
-0.00020092
-0.00385994
-0.000174786
-0.00377292
-0.000140061
-0.00370128
-9.66627e-05
-0.00364276
-4.45847e-05
-0.00359528
1.61079e-05
-0.00355699
8.52823e-05
-0.00352619
0.00016274
-0.00350136
0.000248222
-0.00348113
0.000341408
-0.00346426
0.000441922
-0.00344966
0.000549335
-0.00343638
0.000663171
-0.00342358
0.000782911
-0.00341055
0.000908004
-0.00339674
0.00103786
-0.0033816
-0.00336461
0.00117186
-7.20025e-06
-0.00796088
-2.40502e-05
-0.00731321
-4.68118e-05
-0.00674583
-7.24015e-05
-0.00625052
-9.82996e-05
-0.00581976
-0.000122455
-0.00544661
-0.000143196
-0.00512478
-0.000159166
-0.00484852
-0.00016926
-0.00461265
-0.000172587
-0.00441247
-0.00016843
-0.00424372
-0.000156222
-0.00410257
-0.000135519
-0.00398553
-0.00010599
-0.00388947
-6.73951e-05
-0.00381152
-1.95855e-05
-0.00374909
3.75105e-05
-0.00369985
0.00010389
-0.00366166
0.000179478
-0.00363257
0.000264133
-0.00361084
0.000357647
-0.00359487
0.000459745
-0.00358322
0.00057009
-0.0035746
0.000688285
-0.00356786
0.000813872
-0.00356197
0.000946339
-0.00355604
0.00108512
-0.00354934
0.00122962
-0.00354124
0.00137919
-0.00353117
-0.00351855
0.00153313
-6.51783e-06
-0.00795436
-2.13855e-05
-0.00729835
-4.09588e-05
-0.00672625
-6.2232e-05
-0.00622924
-8.27539e-05
-0.00579924
-0.000100534
-0.00542883
-0.000113958
-0.00511136
-0.000121716
-0.00484077
-0.000122749
-0.00461162
-0.000116205
-0.00441901
-0.000101402
-0.00425853
-7.78033e-05
-0.00412617
-4.49904e-05
-0.00401835
-2.65106e-06
-0.00393181
4.94349e-05
-0.0038636
0.000111405
-0.00381106
0.000183319
-0.00377177
0.000265167
-0.0037435
0.000356866
-0.00372427
0.000458266
-0.00371224
0.000569149
-0.00370576
0.00068923
-0.00370331
0.000818155
-0.00370353
0.000955503
-0.00370521
0.00110079
-0.00370725
0.00125346
-0.00370872
0.00141292
-0.00370879
0.00157849
-0.00370681
0.00174947
-0.00370215
-0.00369416
0.00192508
-5.77563e-06
-0.00794858
-1.8496e-05
-0.00728563
-3.4621e-05
-0.00671013
-5.12267e-05
-0.00621264
-6.5939e-05
-0.00578452
-7.68379e-05
-0.00541794
-8.23711e-05
-0.00510582
-8.1286e-05
-0.00484185
-7.25742e-05
-0.00462033
-5.54279e-05
-0.00443616
-2.92045e-05
-0.00428475
6.6014e-06
-0.00416198
5.23792e-05
-0.00406413
0.000108419
-0.00398785
0.000174922
-0.00393011
0.000252014
-0.00388815
0.000339744
-0.0038595
0.000438092
-0.00384185
0.000546971
-0.00383315
0.000666225
-0.0038315
0.000795628
-0.00383516
0.000934885
-0.00384256
0.00108363
-0.00385227
0.00124141
-0.00386299
0.00140773
-0.00387357
0.00158199
-0.00388298
0.00176353
-0.00389033
0.00195163
-0.00389491
0.00214551
-0.00389603
-0.00389296
0.00234431
-4.97827e-06
-0.0079436
-1.5395e-05
-0.00727521
-2.78275e-05
-0.0066977
-3.94391e-05
-0.00620103
-4.794e-05
-0.00577602
-5.14888e-05
-0.00541439
-4.8604e-05
-0.00510871
-3.8096e-05
-0.00485236
-1.90129e-05
-0.00463942
9.40337e-06
-0.00446458
4.77523e-05
-0.0043231
9.65021e-05
-0.00421073
0.000156012
-0.00412363
0.000226545
-0.00405838
0.000308286
-0.00401185
0.000401343
-0.00398121
0.000505756
-0.00396391
0.000621499
-0.0039576
0.000748478
-0.00396013
0.000886533
-0.00396955
0.00103543
-0.00398406
0.00119488
-0.00400201
0.00136448
-0.00402188
0.00154379
-0.0040423
0.00173226
-0.00406204
0.00192927
-0.00407998
0.0021341
-0.00409517
0.00234598
-0.00410679
0.00256402
-0.00411407
-0.00411622
0.00278728
-4.13098e-06
-0.00793947
-1.20972e-05
-0.00726724
-2.061e-05
-0.00668918
-2.69234e-05
-0.00619471
-2.88408e-05
-0.0057741
-2.46074e-05
-0.00541862
-1.28192e-05
-0.0051205
7.64319e-06
-0.00487282
3.7669e-05
-0.00466944
7.7961e-05
-0.00450487
0.00012907
-0.00437421
0.000191423
-0.00427308
0.000265345
-0.00419756
0.00035107
-0.0041441
0.000448761
-0.00410954
0.000558509
-0.00409096
0.000680345
-0.00408574
0.000814233
-0.00409148
0.000960078
-0.00410598
0.00111772
-0.00412719
0.00128692
-0.00415326
0.00146737
-0.00418246
0.0016587
-0.0042132
0.00186041
-0.00424401
0.00207194
-0.00427358
0.00229264
-0.00430068
0.00252175
-0.00432427
0.0027584
-0.00434344
0.00300164
-0.00435731
-0.004365
0.00325042
-3.23605e-06
-0.00793624
-8.61541e-06
-0.00726186
-1.29986e-05
-0.0066848
-1.37319e-05
-0.00619398
-8.7213e-06
-0.00577912
3.69294e-06
-0.00543103
2.483e-05
-0.00514163
5.57323e-05
-0.00490372
9.722e-05
-0.00471093
0.000149934
-0.00455758
0.000214372
-0.00443865
0.000290913
-0.00434962
0.000379843
-0.00428648
0.000481364
-0.00424563
0.000595612
-0.00422379
0.000722662
-0.00421801
0.00086253
-0.00422561
0.00101517
-0.00424413
0.0011805
-0.0042713
0.00135834
-0.00430503
0.00154846
-0.00434339
0.00175056
-0.00438456
0.00196424
-0.00442688
0.00218902
-0.0044688
0.00242432
-0.00450887
0.00266943
-0.0045458
0.00292356
-0.0045784
0.00318577
-0.00460565
0.00345502
-0.00462657
-0.00464012
0.00373015
-2.27997e-06
-0.00793396
-4.95619e-06
-0.00725919
-5.02387e-06
-0.00668473
8.86349e-08
-0.00619909
1.23455e-05
-0.00579137
3.33077e-05
-0.005452
6.42021e-05
-0.00517253
0.000105987
-0.00494551
0.000159408
-0.00476435
0.000225036
-0.00462321
0.000303308
-0.00451692
0.000394551
-0.00444086
0.000499005
-0.00439094
0.000616836
-0.00436346
0.000748149
-0.0043551
0.000892998
-0.00436286
0.00105138
-0.004384
0.00122326
-0.004416
0.00140851
-0.00445656
0.001607
-0.00450352
0.00181848
-0.00455487
0.00204267
-0.00460874
0.00227915
-0.00466337
0.00252746
-0.0047171
0.00278698
-0.0047684
0.00305701
-0.00481582
0.00333667
-0.00485806
0.00362499
-0.00489397
0.00392083
-0.0049224
-0.00494219
0.00422289
-1.16806e-06
-0.00793279
-1.21833e-06
-0.00725914
3.28146e-06
-0.00668923
1.44948e-05
-0.00621031
3.4294e-05
-0.00581117
6.41428e-05
-0.00548185
0.00010517
-0.00521355
0.000158242
-0.00499858
0.000224021
-0.00483013
0.000303003
-0.00470219
0.000395559
-0.00460947
0.000501953
-0.00454726
0.000622374
-0.00451136
0.000756946
-0.00449803
0.000905737
-0.00450389
0.00106877
-0.0045259
0.00124604
-0.00456126
0.00143748
-0.00460744
0.00164298
-0.00466206
0.00186239
-0.00472293
0.0020955
-0.00478798
0.00234201
-0.00485525
0.00260153
-0.0049229
0.0028736
-0.00498917
0.00315759
-0.00505239
0.00345278
-0.005111
0.00375826
-0.00516355
0.004073
-0.00520871
0.00439577
-0.00524517
-0.00527157
0.00472515
-1.76387e-07
-0.00793261
2.79428e-06
-0.00726211
1.19394e-05
-0.00669838
2.94569e-05
-0.00622782
5.70687e-05
-0.00583878
9.61158e-05
-0.00552089
0.000147619
-0.00526506
0.000212348
-0.00506331
0.000290872
-0.00490865
0.000383604
-0.00479493
0.000490839
-0.00471671
0.000612775
-0.00466919
0.00074954
-0.00464813
0.000901206
-0.00464969
0.0010678
-0.00467048
0.00124932
-0.00470741
0.00144572
-0.00475766
0.00165692
-0.00481865
0.00188284
-0.00488797
0.0021233
-0.00496339
0.00237811
-0.00504279
0.00264699
-0.00512413
0.00292958
-0.00520549
0.00322541
-0.005285
0.00353388
-0.00536086
0.00385425
-0.00543137
0.0041856
-0.0054949
0.00452683
-0.00554994
0.00487663
-0.00559497
-0.00562841
0.00523347
9.2634e-07
-0.00793354
6.93157e-06
-0.00726811
2.09046e-05
-0.00671235
4.49391e-05
-0.00625186
8.06176e-05
-0.00587446
0.000129153
-0.00556943
0.000191451
-0.00532736
0.000268175
-0.00514003
0.000359794
-0.00500027
0.000466633
-0.00490176
0.000588899
-0.00483897
0.000726715
-0.00480701
0.000880141
-0.00480155
0.00104919
-0.00481874
0.00123383
-0.00485513
0.00143403
-0.00490761
0.00164971
-0.00497334
0.00188078
-0.00504972
0.00212712
-0.00513432
0.0023886
-0.00522487
0.00266502
-0.0053192
0.00295613
-0.00541524
0.00326159
-0.00551095
0.00358097
-0.00560438
0.0039137
-0.00569359
0.00425902
-0.0057767
0.00461603
-0.00585191
0.00498358
-0.00591749
0.00536029
-0.00597167
-0.00601262
0.0057445
1.99349e-06
-0.00793553
1.11649e-05
-0.00727729
3.01515e-05
-0.00673134
6.09094e-05
-0.00628262
0.000104894
-0.00591845
0.000163189
-0.00562772
0.000236577
-0.00540075
0.000325607
-0.00522906
0.000430643
-0.00510531
0.000551908
-0.00502303
0.000689518
-0.00497658
0.00084351
-0.004961
0.00101386
-0.00497191
0.00120052
-0.0050054
0.0014034
-0.00505801
0.0016224
-0.00512661
0.00185741
-0.00520835
0.00210832
-0.00530062
0.002375
-0.005401
0.00265731
-0.00550718
0.00295508
-0.00561697
0.00326808
-0.00572824
0.00359602
-0.00583889
0.00393851
-0.00594686
0.00429501
-0.00605009
0.00466482
-0.00614651
0.00504703
-0.00623412
0.00544047
-0.00631093
0.0058437
-0.00637491
-0.00642389
0.00625497
3.08368e-06
-0.00793862
1.5522e-05
-0.00728972
3.96704e-05
-0.00675549
7.73425e-05
-0.00632029
0.000129859
-0.00597096
0.000198166
-0.00569603
0.000282919
-0.0054855
0.000384544
-0.00533069
0.00050329
-0.00522405
0.000639272
-0.00515901
0.000792505
-0.00512982
0.00096293
-0.00513143
0.00115044
-0.00515941
0.00135489
-0.00520985
0.00157612
-0.00527924
0.00181398
-0.00536446
0.0020683
-0.00546267
0.00233894
-0.00557126
0.00262574
-0.0056878
0.00292857
-0.00581001
0.00324727
-0.00593567
0.00358165
-0.00606262
0.00393146
-0.00618871
0.00429638
-0.00631178
0.00467594
-0.00642964
0.00506949
-0.00654006
0.00547616
-0.00664078
0.00589479
-0.00672956
0.00632392
-0.00680404
-0.00686167
0.00676169
4.24963e-06
-0.00794287
2.00101e-05
-0.00730548
4.9451e-05
-0.00678493
9.42163e-05
-0.00636505
0.000155476
-0.00603222
0.000234033
-0.00577459
0.000330405
-0.00558187
0.00044489
-0.00544517
0.000577616
-0.00535678
0.00072858
-0.00530998
0.000897688
-0.00529892
0.00108477
-0.00531851
0.00128963
-0.00536427
0.00151201
-0.00543223
0.00175169
-0.00551892
0.00200841
-0.00562119
0.00228196
-0.00573622
0.00257214
-0.00586143
0.00287876
-0.00599443
0.00320167
-0.00613292
0.00354074
-0.00627473
0.0038958
-0.00641768
0.00426668
-0.00655959
0.00465313
-0.00669823
0.00505477
-0.00683128
0.00547104
-0.00695633
0.00590115
-0.00707089
0.006344
-0.00717241
0.00679811
-0.00725815
-0.00732513
0.00726157
5.45802e-06
-0.00794832
2.462e-05
-0.00732465
5.94816e-05
-0.00681979
0.000111509
-0.00641708
0.000181711
-0.00610242
0.000270738
-0.00586361
0.000378965
-0.0056901
0.000506555
-0.00557276
0.000653506
-0.00550373
0.000819694
-0.00547616
0.0010049
-0.00548413
0.00120885
-0.00552246
0.00143122
-0.00558663
0.00167166
-0.00567268
0.00192983
-0.00577709
0.0022054
-0.00589676
0.00249806
-0.00602888
0.00280753
-0.00617091
0.00313359
-0.00632049
0.00347607
-0.0064754
0.00383481
-0.00663348
0.00420972
-0.00679259
0.00460066
-0.00695054
0.0050075
-0.00710506
0.00542997
-0.00725375
0.00586765
-0.00739401
0.00631988
-0.00752312
0.00678566
-0.00763819
0.00726355
-0.00773604
-0.00781319
0.0077516
6.69823e-06
-0.00795502
2.93435e-05
-0.00734729
6.97501e-05
-0.00686019
0.000129199
-0.00647653
0.000208528
-0.00618175
0.000308229
-0.00596331
0.000428527
-0.0058104
0.000569443
-0.00571368
0.000730842
-0.00566513
0.000912469
-0.00565779
0.00111398
-0.00568564
0.00133497
-0.00574345
0.001575
-0.00582666
0.0018336
-0.00593128
0.00211031
-0.0060538
0.00240468
-0.00619113
0.0027163
-0.0063405
0.00304481
-0.00649942
0.0033899
-0.00666558
0.00375136
-0.00683685
0.00412901
-0.00701113
0.00452278
-0.00718636
0.00493262
-0.00736038
0.00535849
-0.00753093
0.00580028
-0.00769554
0.00625776
-0.0078515
0.00673046
-0.00799582
0.00721752
-0.00812526
0.00771765
-0.00823616
-0.00832444
0.0082289
7.96682e-06
-0.00796299
3.4175e-05
-0.0073735
8.02449e-05
-0.00690626
0.000147264
-0.00654355
0.00023589
-0.00627038
0.000346448
-0.00607387
0.000479008
-0.00594296
0.000633447
-0.00586812
0.000809489
-0.00584117
0.00100674
-0.00585505
0.00122474
-0.00590364
0.00146293
-0.00598165
0.00172076
-0.00608448
0.00199761
-0.00620813
0.00229289
-0.00634908
0.00260603
-0.00650427
0.00293648
-0.00667095
0.00328377
-0.0068467
0.00364748
-0.0070293
0.00402731
-0.00721668
0.00442307
-0.00740689
0.00483465
-0.00759794
0.00526207
-0.0077878
0.00570542
-0.00797427
0.00616476
-0.00815489
0.00664011
-0.00832685
0.00713125
-0.00848696
0.0076376
-0.0086316
0.00815804
-0.0087566
-0.00885714
0.00869073
9.26203e-06
-0.00797225
3.91092e-05
-0.00740335
9.09538e-05
-0.00695811
0.000165678
-0.00661827
0.000263752
-0.00636845
0.000385328
-0.00619545
0.000530315
-0.00608794
0.000698441
-0.00603624
0.000889289
-0.00603202
0.00110233
-0.00606809
0.00133695
-0.00613826
0.00159249
-0.00623718
0.00186822
-0.00636021
0.0021634
-0.00650332
0.00247731
-0.00666299
0.0028092
-0.00683616
0.00315838
-0.00702014
0.00352424
-0.00721255
0.00390621
-0.00741127
0.00430387
-0.00761435
0.00471693
-0.00781995
0.00514526
-0.00802627
0.00558889
-0.00823144
0.00604802
-0.0084334
0.00652292
-0.00862979
0.00701388
-0.00881781
0.00752105
-0.00899413
0.00804423
-0.00915478
0.00858263
-0.009295
-0.0094091
0.00913459
1.05825e-05
-0.00798283
4.41412e-05
-0.00743691
0.000101864
-0.00701583
0.000184415
-0.00670082
0.000292066
-0.0064761
0.00042479
-0.00632817
0.000582334
-0.00624549
0.000764273
-0.00621818
0.000970046
-0.00623779
0.00119899
-0.00629703
0.00145035
-0.00638962
0.00172332
-0.00651016
0.00201705
-0.00665394
0.00233064
-0.00681691
0.00266322
-0.00699556
0.00301387
-0.00718681
0.00338175
-0.00738801
0.00376604
-0.00759684
0.00416601
-0.00781124
0.00458107
-0.00802941
0.00501077
-0.00824965
0.00545488
-0.00847038
0.00591339
-0.00868995
0.00638655
-0.00890656
0.00687484
-0.00911808
0.00737888
-0.00932184
0.00789926
-0.00951451
0.00843633
-0.00969185
0.00898981
-0.00984847
-0.00997768
0.00955838
1.19268e-05
-0.00799476
4.92675e-05
-0.00747425
0.000112963
-0.00707953
0.000203444
-0.00679131
0.000320773
-0.00659343
0.00046474
-0.00647214
0.000634928
-0.00641568
0.000830757
-0.00641401
0.00105152
-0.00645856
0.00129643
-0.00654193
0.00156458
-0.00665778
0.00185504
-0.00680061
0.00216681
-0.00696571
0.00249886
-0.00714897
0.00285015
-0.00734685
0.00321961
-0.00755627
0.0036062
-0.0077746
0.00400891
-0.00799955
0.0044268
-0.00822913
0.00485903
-0.00846164
0.00530494
-0.00869557
0.0057641
-0.00892954
0.00623637
-0.00916221
0.00672195
-0.00939214
0.00722145
-0.00961758
0.00773582
-0.00983621
0.0082662
-0.0100449
0.00881368
-0.0102393
0.00937874
-0.0104135
-0.0105596
0.00996066
1.3296e-05
-0.00800806
5.44894e-05
-0.00751544
0.000124243
-0.00714928
0.000222734
-0.0068898
0.000349808
-0.00672051
0.000505069
-0.0066274
0.000687933
-0.00659854
0.000897669
-0.00662375
0.00113343
-0.00669432
0.00139428
-0.00680278
0.00167921
-0.0069427
0.00198714
-0.00710854
0.00231694
-0.00729551
0.00266745
-0.00749948
0.00303747
-0.00771687
0.00342579
-0.00794459
0.00383118
-0.00817999
0.00425241
-0.00842078
0.00468832
-0.00866503
0.00513779
-0.00891111
0.00559986
-0.00915764
0.00607379
-0.00940347
0.00655916
-0.00964758
0.00705596
-0.00988895
0.00756477
-0.0101264
0.00808676
-0.0103582
0.00862366
-0.0105818
0.00917749
-0.0107932
0.00974993
-0.010986
-0.0111509
0.0103412
1.46982e-05
-0.00802275
5.98218e-05
-0.00756056
0.000135707
-0.00722517
0.000242257
-0.00699635
0.000379098
-0.00685735
0.000545649
-0.00679395
0.000741159
-0.00679405
0.000964747
-0.00684734
0.00121543
-0.006945
0.00149213
-0.00707948
0.00179371
-0.00724429
0.00211899
-0.00743381
0.00246671
-0.00764323
0.00283559
-0.00786836
0.0032243
-0.00810558
0.00363149
-0.00835178
0.00405577
-0.00860427
0.00449573
-0.00886074
0.00494997
-0.00911927
0.00541709
-0.00937823
0.00589578
-0.00963633
0.00638488
-0.00989257
0.00688351
-0.0101462
0.00739123
-0.0103967
0.00790826
-0.0106434
0.00843571
-0.0108856
0.00897574
-0.0111218
0.00953147
-0.0113489
0.0101063
-0.0115608
-0.0117465
0.010702
1.61612e-05
-0.00803891
6.53056e-05
-0.00760971
0.000147374
-0.00730723
0.000261989
-0.00711096
0.000408563
-0.00700392
0.000586333
-0.00697172
0.000794384
-0.0070021
0.00103168
-0.00708464
0.00129711
-0.00721043
0.00158946
-0.00737183
0.00190747
-0.0075623
0.00224984
-0.00777619
0.00261522
-0.00800862
0.00300224
-0.00825537
0.00340945
-0.0085128
0.00383541
-0.00877775
0.00427862
-0.00904748
0.00473753
-0.00931965
0.00521054
-0.00959228
0.00569603
-0.00986372
0.00619236
-0.0101327
0.0066979
-0.0103981
0.00721119
-0.0106595
0.00773106
-0.0109165
0.00825696
-0.0111693
0.00878936
-0.011418
0.00933024
-0.0116627
0.00988354
-0.0119022
0.0104549
-0.0121322
-0.0123403
0.0110487
1.77603e-05
-0.00805668
7.10336e-05
-0.00766298
0.000159293
-0.00739549
0.00028191
-0.00723358
0.00043811
-0.00716012
0.000626952
-0.00716056
0.000847357
-0.00722251
0.00109814
-0.00733542
0.00137803
-0.00749031
0.00168569
-0.0076795
0.00201976
-0.00789637
0.00237882
-0.00813525
0.00276143
-0.00839123
0.00316614
-0.00866008
0.00359146
-0.00893812
0.00403587
-0.00922216
0.00449782
-0.00950943
0.00497572
-0.00979755
0.00546791
-0.0100845
0.00597262
-0.0103684
0.00648802
-0.0106481
0.00701215
-0.0109222
0.00754296
-0.0111903
0.00807844
-0.011452
0.00861681
-0.0117077
0.00915706
-0.0119583
0.00969968
-0.0122053
0.010248
-0.0124505
0.0108097
-0.0126938
-0.0129266
0.0113961
1.97322e-05
-0.00807641
7.72164e-05
-0.00772046
0.000171549
-0.00748983
0.000301997
-0.00736403
0.000467626
-0.00732575
0.000667313
-0.00736025
0.000899801
-0.00745499
0.00116373
-0.00759935
0.00145769
-0.00778427
0.00178021
-0.00800201
0.0021298
-0.00824595
0.00250494
-0.00851039
0.00290413
-0.00879042
0.00332584
-0.00908178
0.00376854
-0.00938082
0.00423073
-0.00968434
0.00471086
-0.00998957
0.00520739
-0.0102941
0.00571874
-0.0105958
0.00624324
-0.0108929
0.00677912
-0.0111839
0.00732441
-0.0114675
0.00787689
-0.0117428
0.00843398
-0.0120091
0.00899277
-0.0122665
0.00955015
-0.0125157
0.0101035
-0.0127587
0.0106523
-0.0129994
0.0112032
-0.0132447
-0.0135087
0.0117853
2.28608e-05
-0.00809927
8.42452e-05
-0.00778185
0.000184218
-0.0075898
0.000322171
-0.00750198
0.000496945
-0.00750053
0.00070718
-0.00757048
0.000951404
-0.00769922
0.00122807
-0.00787602
0.0015356
-0.0080918
0.00187238
-0.00833879
0.00223679
-0.00861036
0.00262721
-0.00890082
0.00304206
-0.00920526
0.00347975
-0.00951948
0.00393875
-0.00983982
0.00441755
-0.0101631
0.0049147
-0.0104867
0.00542878
-0.0108082
0.00595843
-0.0111255
0.00650231
-0.0114368
0.0070591
-0.0117407
0.00762745
-0.0120359
0.0082059
-0.0123212
0.00879272
-0.0125959
0.00938572
-0.0128595
0.00998195
-0.0131119
0.0105774
-0.0133541
0.0111657
-0.0135877
0.0117396
-0.0138187
-0.0140682
0.0122991
0.0091262
4.17791e-05
-0.00916798
0.00908505
4.11442e-05
0.00904388
4.11749e-05
0.00900251
4.13701e-05
0.00896094
4.15625e-05
0.00891925
4.16917e-05
0.00887752
4.17327e-05
0.00883584
4.16768e-05
0.00879432
4.15221e-05
0.00875305
4.12702e-05
0.00871213
4.09239e-05
0.00867164
4.04869e-05
0.00863168
3.99632e-05
0.00859232
3.93571e-05
0.00855365
3.8673e-05
0.00851573
3.79151e-05
0.00847864
3.70879e-05
0.00844245
3.61957e-05
0.00840721
3.52427e-05
0.00837297
3.42329e-05
0.0083398
3.31705e-05
0.00830774
3.20592e-05
0.00827684
3.09026e-05
0.00824714
2.97041e-05
0.00821867
2.84648e-05
0.00819149
2.71797e-05
0.00816566
2.58272e-05
0.00814132
2.43422e-05
0.00811882
2.25055e-05
1.95489e-05
0.0106358
0.000147257
-0.0107413
0.0105284
0.000148601
0.0104194
0.000150128
0.0103092
0.00015158
0.010198
0.000152805
0.0100859
0.000153725
0.00997338
0.000154299
0.00986055
0.000154509
0.00974772
0.000154351
0.00963516
0.000153827
0.00952314
0.000152946
0.00941191
0.000151719
0.00930171
0.000150156
0.0091928
0.000148272
0.00908539
0.000146081
0.00897971
0.000143598
0.00887596
0.000140838
0.00877434
0.000137815
0.00867504
0.000134544
0.00857823
0.000131038
0.00848409
0.000127311
0.00839278
0.000123375
0.00830444
0.000119243
0.00821922
0.000114921
0.00813727
0.000110413
0.00805874
0.000105711
0.00798379
0.000100778
0.0079126
9.55295e-05
0.00784535
8.97576e-05
8.30476e-05
0.012069
0.000304405
-0.0122262
0.0119079
0.000309711
0.0117435
0.00031449
0.0115764
0.000318667
0.0114071
0.000322161
0.0112359
0.000324912
0.0110633
0.000326887
0.0108898
0.000328066
0.0107157
0.000328447
0.0105415
0.000328038
0.0103675
0.000326851
0.0101944
0.000324907
0.0100223
0.000322229
0.00985172
0.000318842
0.00968302
0.000314774
0.00951657
0.000310054
0.00935269
0.00030471
0.00919174
0.000298773
0.00903401
0.00029227
0.00887982
0.000285229
0.00872945
0.000277678
0.00858319
0.00026964
0.00844129
0.000261139
0.00830402
0.000252194
0.00817162
0.000242814
0.00804433
0.000233
0.00792238
0.000222729
0.00780596
0.000211946
0.00769517
0.000200549
0.000188418
0.0134209
0.000502578
-0.0136191
0.0132169
0.000513677
0.0130079
0.000523509
0.0127945
0.000532066
0.0125774
0.000539315
0.0123571
0.000545222
0.0121342
0.000549763
0.0119093
0.000552928
0.0116831
0.000554718
0.0114559
0.000555147
0.0112286
0.000554235
0.0110015
0.000552014
0.0107752
0.000548516
0.0105502
0.000543783
0.0103271
0.000537855
0.0101064
0.000530778
0.00988854
0.000522596
0.00967396
0.000513357
0.00946312
0.000503106
0.00925646
0.000491887
0.00905439
0.000479744
0.00885732
0.000466715
0.00866562
0.00045284
0.00847966
0.000438151
0.0082998
0.000422675
0.00812637
0.000406432
0.00795967
0.000389429
0.00779996
0.00037166
0.00764739
0.000353116
0.000333826
0.0146878
0.000732233
-0.0149174
0.0144505
0.000750998
0.0142062
0.000767726
0.0139559
0.000782421
0.0137001
0.000795067
0.0134397
0.000805645
0.0131753
0.000814141
0.0129077
0.00082055
0.0126375
0.000824879
0.0123655
0.000827147
0.0120924
0.000827383
0.0118188
0.000825626
0.0115454
0.000821922
0.0112728
0.000816324
0.0110018
0.000808887
0.0107329
0.000799674
0.0104668
0.000788747
0.0102039
0.00077617
0.00994504
0.000762006
0.00969061
0.000746317
0.00944119
0.000729164
0.0091973
0.000710605
0.00895945
0.000690694
0.00872812
0.000669483
0.00850377
0.000647022
0.00828685
0.000623355
0.00807775
0.000598527
0.00787683
0.000572584
0.00768435
0.000545589
0.000517654
0.0158671
0.000984969
-0.0161198
0.0156048
0.0010133
0.0153337
0.00103879
0.0150547
0.00106143
0.0147686
0.0010812
0.0144761
0.00109809
0.0141782
0.00111208
0.0138756
0.00112317
0.0135691
0.00113137
0.0132595
0.0011367
0.0129477
0.00113919
0.0126344
0.00113889
0.0123205
0.00113586
0.0120067
0.00113015
0.0116937
0.00112185
0.0113824
0.00111101
0.0110734
0.00109773
0.0107675
0.00108209
0.0104653
0.00106416
0.0101676
0.00104402
0.00987502
0.00102176
0.00958818
0.000997444
0.00930773
0.000971149
0.00903427
0.000942946
0.00876838
0.000912908
0.00851063
0.000881109
0.00826152
0.000847631
0.00802154
0.000812571
0.00779107
0.000776051
0.000738243
0.0169577
0.00125344
-0.0172261
0.0166777
0.0012932
0.0163872
0.00132931
0.0160869
0.00136172
0.0157777
0.0013904
0.0154605
0.00141531
0.0151362
0.00143643
0.0148056
0.00145377
0.0144696
0.00146731
0.0141293
0.00147709
0.0137853
0.00148312
0.0134387
0.00148548
0.0130904
0.0014842
0.0127412
0.00147938
0.0123919
0.00147108
0.0120436
0.00145939
0.0116969
0.00144442
0.0113527
0.00142625
0.0110119
0.00140497
0.0106752
0.00138069
0.0103435
0.0013535
0.0100174
0.00132349
0.00969785
0.00129075
0.00938544
0.00125536
0.00908092
0.00121743
0.00878498
0.00117705
0.00849826
0.00113435
0.00822138
0.00108946
0.00795486
0.00104256
0.000993891
0.0179595
0.00153128
-0.0182374
0.0176684
0.00158429
0.0173649
0.00163283
0.0170498
0.0016768
0.0167241
0.00171614
0.0163886
0.00175081
0.0160443
0.00178076
0.0156921
0.00180597
0.015333
0.00182643
0.0149679
0.00184215
0.0145979
0.00185316
0.0142238
0.00185951
0.0138468
0.00186126
0.0134676
0.00185849
0.0130874
0.00185128
0.0127071
0.00183972
0.0123276
0.00182393
0.0119498
0.00180401
0.0115748
0.00178006
0.0112033
0.00175219
0.0108363
0.00172051
0.0104746
0.00168512
0.0101192
0.00164612
0.00977099
0.00160362
0.00943069
0.00155773
0.00909917
0.00150857
0.00877723
0.00145629
0.0084656
0.00140108
0.00816499
0.00134318
0.00128286
0.0188738
0.00181303
-0.0191555
0.0185771
0.001881
0.0182662
0.00194368
0.017942
0.00200095
0.0176055
0.00205269
0.0172575
0.00209883
0.0168989
0.0021393
0.0165309
0.00217404
0.0161542
0.00220304
0.0157701
0.00222628
0.0153795
0.00224379
0.0149834
0.0022556
0.0145829
0.00226176
0.014179
0.00226236
0.0137728
0.00225747
0.0133654
0.00224721
0.0129576
0.00223167
0.0125507
0.00221097
0.0121455
0.00218522
0.0117432
0.00215454
0.0113446
0.00211904
0.0109509
0.00207883
0.010563
0.00203401
0.010182
0.00198469
0.00980867
0.00193101
0.00944415
0.00187309
0.00908933
0.00181111
0.0087451
0.00174531
0.00841233
0.00167595
0.00160339
0.0197025
0.00209404
-0.0199835
0.0194049
0.00217857
0.0190916
0.00225702
0.0187633
0.00232922
0.018421
0.00239502
0.0180655
0.00245429
0.0176979
0.00250693
0.017319
0.00255286
0.0169301
0.00259202
0.0165319
0.00262439
0.0161258
0.00264996
0.0157126
0.00266876
0.0152935
0.00268082
0.0148697
0.00268621
0.0144421
0.00268502
0.014012
0.00267733
0.0135804
0.00266327
0.0131484
0.00264294
0.0127172
0.00261645
0.0122878
0.00258393
0.0118614
0.00254549
0.011439
0.00250122
0.0110217
0.00245123
0.0106108
0.00239564
0.0102073
0.00233455
0.00981224
0.00226811
0.00942684
0.00219652
0.00905213
0.00212002
0.00868913
0.00203895
0.00195373
0.0204484
0.00237045
-0.0207248
0.020154
0.00247298
0.0198424
0.00256869
0.0195142
0.00265735
0.0191705
0.00273876
0.018812
0.00281274
0.0184398
0.00287915
0.0180548
0.00293787
0.017658
0.00298881
0.0172505
0.0030319
0.0168334
0.00306712
0.0164077
0.00309446
0.0159745
0.00311394
0.0155351
0.00312563
0.0150906
0.00312957
0.014642
0.00312588
0.0141907
0.00311463
0.0137376
0.00309596
0.0132841
0.00306995
0.0128313
0.00303673
0.0123804
0.00299639
0.0119326
0.00294903
0.0114891
0.00289473
0.0110512
0.00283359
0.01062
0.00276569
0.010197
0.00269118
0.00978322
0.00261025
0.00938009
0.00252315
0.00898876
0.00243028
0.00233213
0.0211152
0.0026391
-0.0213838
0.0208272
0.0027609
0.0205207
0.0028752
0.0201964
0.00298171
0.0198549
0.00308016
0.0194974
0.00317033
0.0191245
0.00325202
0.0187373
0.00332507
0.0183368
0.00338932
0.017924
0.0034447
0.0175
0.00349113
0.0170659
0.00352857
0.0166228
0.00355703
0.0161719
0.00357653
0.0157143
0.00358713
0.0152513
0.00358889
0.014784
0.00358191
0.0143137
0.00356627
0.0138416
0.00354209
0.0133688
0.00350945
0.0128968
0.00346844
0.0124267
0.00341911
0.0119599
0.00336155
0.0114977
0.00329578
0.0110415
0.00322188
0.0105928
0.00313994