/*--------------------------------*- C++ -*----------------------------------*\
  =========                 |
  \\      /  F ield         | OpenFOAM: The Open Source CFD Toolbox
   \\    /   O peration     | Website:  https://openfoam.org
    \\  /    A nd           | Version:  6.0
     \\/     M anipulation  |
\*---------------------------------------------------------------------------*/
FoamFile
{
    version     2.0;
    format      ascii;
    class       volScalarField;
    location    "7";
    object      p;
}
// * * * * * * * * * * * * * * * * * * * * * * * * * * * * * * * * * * * * * //

dimensions      [0 2 -2 0 0 0 0];

internalField   nonuniform List<scalar> 
19200
(
-139.81
-125.131
-114.163
-104.915
-96.3704
-88.5642
-81.4623
-74.9867
-69.0762
-63.6798
-58.7511
-54.2475
-50.1302
-46.3635
-42.9153
-39.756
-36.8592
-34.2006
-31.7586
-29.5134
-27.4475
-25.5447
-23.7907
-22.1725
-20.6784
-19.2979
-18.0218
-16.8408
-15.7463
-14.7407
-140.132
-125.483
-114.517
-105.257
-96.6962
-88.8737
-81.7559
-75.2653
-69.3409
-63.9321
-58.9923
-54.4787
-50.3525
-46.5778
-43.1223
-39.9565
-37.0536
-34.3895
-31.9424
-29.6926
-27.6223
-25.7154
-23.9576
-22.3357
-20.8381
-19.4543
-18.1749
-16.9906
-15.8925
-14.8852
-140.474
-125.832
-114.866
-105.595
-97.0192
-89.1808
-82.0473
-75.542
-69.6041
-64.1831
-59.2323
-54.709
-50.5739
-46.7914
-43.3288
-40.1565
-37.2477
-34.5782
-32.1261
-29.8717
-27.797
-25.8861
-24.1244
-22.4989
-20.9978
-19.6107
-18.3281
-17.1404
-16.0387
-15.0298
-140.829
-126.186
-115.213
-105.931
-97.3399
-89.4856
-82.3367
-75.8168
-69.8656
-64.4326
-59.471
-54.938
-50.7943
-47.0041
-43.5344
-40.3558
-37.4412
-34.7664
-32.3094
-30.0503
-27.9714
-26.0565
-24.2911
-22.662
-21.1574
-19.767
-18.4812
-17.2902
-16.1849
-15.1746
-141.191
-126.542
-115.56
-106.265
-97.6588
-89.7885
-82.6241
-76.0898
-70.1254
-64.6805
-59.7083
-55.1659
-51.0137
-47.2158
-43.7393
-40.5544
-37.6341
-34.9541
-32.4922
-30.2287
-28.1455
-26.2267
-24.4575
-22.8249
-21.317
-19.9233
-18.6343
-17.4399
-16.3311
-15.3195
-141.556
-126.9
-115.907
-106.598
-97.9759
-90.0894
-82.9096
-76.3609
-70.3835
-64.9268
-59.9442
-55.3924
-51.2319
-47.4265
-43.9432
-40.7522
-37.8263
-35.1411
-32.6744
-30.4065
-28.3192
-26.3965
-24.6237
-22.9876
-21.4763
-20.0794
-18.7873
-17.5896
-16.4773
-15.4645
-141.924
-127.259
-116.254
-106.93
-98.2913
-90.3885
-83.1931
-76.63
-70.6396
-65.1714
-60.1784
-55.6174
-51.4487
-47.6359
-44.146
-40.949
-38.0176
-35.3273
-32.856
-30.5837
-28.4924
-26.5659
-24.7895
-23.15
-21.6355
-20.2354
-18.9402
-17.7391
-16.6234
-15.6097
-142.292
-127.618
-116.6
-107.26
-98.6048
-90.6855
-83.4744
-76.8971
-70.8938
-65.414
-60.4108
-55.8408
-51.664
-47.844
-44.3476
-41.1446
-38.2078
-35.5126
-33.0367
-30.7602
-28.665
-26.7348
-24.9549
-23.312
-21.7943
-20.3911
-19.0929
-17.8886
-16.7695
-15.7549
-142.659
-127.977
-116.945
-107.588
-98.9162
-90.9803
-83.7536
-77.1619
-71.1458
-65.6546
-60.6413
-56.0624
-51.8776
-48.0505
-44.5478
-41.339
-38.397
-35.6969
-33.2166
-30.9359
-28.8368
-26.903
-25.1197
-23.4737
-21.9528
-20.5467
-19.2454
-18.0379
-16.9156
-15.9003
-143.026
-128.334
-117.288
-107.915
-99.2255
-91.2726
-84.0302
-77.4243
-71.3955
-65.893
-60.8698
-56.282
-52.0894
-48.2554
-44.7464
-41.532
-38.5848
-35.88
-33.3954
-31.1107
-29.0079
-27.0705
-25.284
-23.6348
-22.1109
-20.7019
-19.3978
-18.1871
-17.0616
-16.0459
-143.391
-128.689
-117.629
-108.239
-99.5322
-91.5624
-84.3043
-77.6841
-71.6426
-66.129
-61.0959
-56.4994
-52.2992
-48.4584
-44.9432
-41.7234
-38.7712
-36.0618
-33.5729
-31.2844
-29.1779
-27.2372
-25.4475
-23.7953
-22.2686
-20.8567
-19.5499
-18.3362
-17.2075
-16.1916
-143.754
-129.043
-117.967
-108.56
-99.836
-91.8493
-84.5754
-77.941
-71.8869
-66.3622
-61.3194
-56.7145
-52.5067
-48.6592
-45.1381
-41.9129
-38.9558
-36.2421
-33.7491
-31.4568
-29.3469
-27.4029
-25.6102
-23.9551
-22.4257
-21.0112
-19.7017
-18.485
-17.3534
-16.3375
-144.114
-129.393
-118.303
-108.879
-100.137
-92.133
-84.8434
-78.1949
-72.1283
-66.5926
-61.5403
-56.9269
-52.7118
-48.8578
-45.3309
-42.1004
-39.1386
-36.4206
-33.9237
-31.6278
-29.5145
-27.5675
-25.7719
-24.1141
-22.5821
-21.1651
-19.8531
-18.6337
-17.4993
-16.4836
-144.472
-129.741
-118.636
-109.194
-100.434
-92.4133
-85.108
-78.4454
-72.3664
-66.8199
-61.7581
-57.1364
-52.9141
-49.0537
-45.5211
-42.2856
-39.3193
-36.5971
-34.0964
-31.7971
-29.6807
-27.7308
-25.9324
-24.2721
-22.7377
-21.3185
-20.0041
-18.7821
-17.6451
-16.6298
-144.826
-130.086
-118.965
-109.506
-100.728
-92.69
-85.3689
-78.6923
-72.601
-67.0438
-61.9726
-57.3428
-53.1134
-49.2468
-45.7087
-42.4682
-39.4975
-36.7713
-34.2671
-31.9645
-29.8451
-27.8925
-26.0916
-24.429
-22.8924
-21.4711
-20.1547
-18.9302
-17.7908
-16.7762
-145.178
-130.427
-119.291
-109.814
-101.018
-92.9627
-85.6259
-78.9354
-72.8318
-67.2639
-62.1835
-57.5458
-53.3094
-49.4366
-45.8932
-42.648
-39.673
-36.943
-34.4354
-32.1297
-30.0075
-28.0524
-26.2492
-24.5845
-23.046
-21.6228
-20.3046
-19.0779
-17.9364
-16.9229
-145.525
-130.764
-119.613
-110.118
-101.304
-93.2312
-85.8787
-79.1743
-73.0586
-67.4801
-62.3906
-57.745
-53.5018
-49.623
-46.0743
-42.8245
-39.8454
-37.1118
-34.6009
-32.2923
-30.1676
-28.2101
-26.4049
-24.7384
-23.1982
-21.7735
-20.4536
-19.2251
-18.0817
-17.0697
-145.869
-131.098
-119.931
-110.418
-101.585
-93.4952
-86.1271
-79.4087
-73.2809
-67.692
-62.5935
-57.9401
-53.6901
-49.8056
-46.2517
-42.9974
-40.0144
-37.2773
-34.7633
-32.452
-30.3249
-28.3653
-26.5583
-24.8902
-23.3486
-21.9227
-20.6017
-19.3716
-18.2267
-17.2166
-146.21
-131.427
-120.244
-110.713
-101.862
-93.7545
-86.3707
-79.6385
-73.4986
-67.8993
-62.7919
-58.1308
-53.8742
-49.9838
-46.425
-43.1663
-40.1794
-37.4389
-34.9221
-32.6082
-30.4789
-28.5175
-26.709
-25.0396
-23.4969
-22.0701
-20.7483
-19.5171
-18.3712
-17.3634
-146.547
-131.753
-120.554
-111.003
-102.134
-94.0089
-86.6093
-79.8632
-73.7113
-68.1017
-62.9854
-58.3167
-54.0535
-50.1575
-46.5937
-43.3307
-40.3401
-37.5963
-35.0766
-32.7604
-30.6291
-28.6661
-26.8563
-25.1859
-23.6426
-22.2153
-20.8931
-19.6613
-18.5149
-17.51
-146.881
-132.074
-120.858
-111.289
-102.4
-94.258
-86.8426
-80.0827
-73.9188
-68.2989
-63.1738
-58.4975
-54.2278
-50.3261
-46.7574
-43.4902
-40.4958
-37.7489
-35.2265
-32.908
-30.7748
-28.8104
-26.9995
-25.3285
-23.7848
-22.3575
-21.0354
-19.8035
-18.6573
-17.656
-147.212
-132.392
-121.159
-111.57
-102.662
-94.5017
-87.0704
-80.2966
-74.1207
-68.4906
-63.3567
-58.6729
-54.3967
-50.4893
-46.9157
-43.6442
-40.6461
-37.8961
-35.3709
-33.0502
-30.9153
-28.9496
-27.1379
-25.4664
-23.9228
-22.4959
-21.1745
-19.9432
-18.7977
-17.8006
-147.542
-132.706
-121.455
-111.846
-102.918
-94.7396
-87.2923
-80.5046
-74.3168
-68.6765
-63.5338
-58.8425
-54.5597
-50.6467
-47.0682
-43.7923
-40.7905
-38.0371
-35.5093
-33.1863
-31.0496
-29.0827
-27.2703
-25.5987
-24.0554
-22.6295
-21.3094
-20.0794
-18.9356
-17.9437
-147.87
-133.017
-121.746
-112.116
-103.168
-94.9715
-87.5082
-80.7066
-74.5069
-68.8563
-63.7049
-59.006
-54.7168
-50.798
-47.2144
-43.9341
-40.9283
-38.1716
-35.6408
-33.3153
-31.1768
-29.2085
-27.3954
-25.7238
-24.1812
-22.7567
-21.4386
-20.2108
-19.07
-18.0852
-148.197
-133.323
-122.031
-112.381
-103.412
-95.1972
-87.7177
-80.9022
-74.6907
-69.03
-63.8699
-59.1634
-54.8675
-50.943
-47.3542
-44.0692
-41.0593
-38.2988
-35.7648
-33.4366
-31.2958
-29.3259
-27.5118
-25.8399
-24.298
-22.8751
-21.5594
-20.3347
-19.1985
-18.2232
-148.524
-133.624
-122.311
-112.64
-103.65
-95.4162
-87.9205
-81.0912
-74.8679
-69.1971
-64.0284
-59.3144
-55.0119
-51.0814
-47.4872
-44.1973
-41.1829
-38.4184
-35.8807
-33.5492
-31.4057
-29.4336
-27.618
-25.9454
-24.4037
-22.982
-21.6687
-20.4475
-19.3169
-18.3502
-148.86
-133.925
-122.586
-112.892
-103.88
-95.6273
-88.1155
-81.2726
-75.0378
-69.3573
-64.1801
-59.4587
-55.1496
-51.213
-47.6133
-44.3182
-41.299
-38.5299
-35.9879
-33.6526
-31.5056
-29.5305
-27.7126
-26.0387
-24.4967
-23.0762
-21.7657
-20.5486
-19.4231
-18.4624
-149.222
-134.233
-122.855
-113.134
-104.101
-95.8292
-88.3017
-81.4459
-75.2001
-69.5102
-64.3248
-59.5962
-55.2805
-51.3379
-47.7325
-44.432
-41.4075
-38.6333
-36.0863
-33.7461
-31.5943
-29.6149
-27.7932
-26.1164
-24.5732
-23.1539
-21.8474
-20.6365
-19.5204
-18.5815
-149.613
-134.543
-123.115
-113.366
-104.312
-96.0231
-88.4808
-81.6125
-75.3561
-69.657
-64.4637
-59.7278
-55.4056
-51.4569
-47.8456
-44.5394
-41.5093
-38.7293
-36.1764
-33.8301
-31.672
-29.6859
-27.8573
-26.1738
-24.6246
-23.2012
-21.8927
-20.6851
-19.5919
-18.7187
-149.951
-134.827
-123.36
-113.588
-104.517
-96.2131
-88.657
-81.7764
-75.5095
-69.8013
-64.5997
-59.8566
-55.5275
-51.5724
-47.955
-44.6428
-41.6065
-38.8202
-36.2607
-33.9073
-31.7413
-29.7463
-27.9074
-26.2115
-24.6474
-23.2049
-21.8717
-20.6406
-19.5516
-18.7075
-153.72
-153.69
-153.62
-153.558
-153.505
-153.449
-153.386
-153.314
-153.235
-153.148
-153.052
-152.949
-152.837
-152.717
-152.588
-152.452
-152.308
-152.157
-152
-151.835
-151.665
-151.489
-151.308
-151.124
-150.936
-150.748
-150.561
-150.381
-150.218
-150.081
-138.408
-138.411
-138.39
-138.364
-138.333
-138.294
-138.245
-138.187
-138.119
-138.043
-137.958
-137.864
-137.761
-137.65
-137.531
-137.404
-137.27
-137.128
-136.98
-136.825
-136.664
-136.497
-136.325
-136.148
-135.968
-135.786
-135.603
-135.42
-135.238
-135.046
-126.623
-126.649
-126.658
-126.654
-126.64
-126.614
-126.579
-126.533
-126.478
-126.414
-126.341
-126.259
-126.169
-126.07
-125.963
-125.849
-125.727
-125.597
-125.461
-125.319
-125.17
-125.015
-124.855
-124.69
-124.52
-124.346
-124.167
-123.984
-123.793
-123.587
-116.51
-116.546
-116.569
-116.579
-116.576
-116.561
-116.537
-116.503
-116.459
-116.407
-116.345
-116.275
-116.196
-116.11
-116.015
-115.913
-115.803
-115.687
-115.563
-115.433
-115.297
-115.155
-115.007
-114.854
-114.695
-114.531
-114.361
-114.184
-113.998
-113.801
-107.136
-107.176
-107.206
-107.224
-107.229
-107.223
-107.208
-107.183
-107.148
-107.105
-107.053
-106.992
-106.924
-106.847
-106.763
-106.671
-106.573
-106.467
-106.355
-106.237
-106.113
-105.982
-105.846
-105.704
-105.556
-105.403
-105.243
-105.076
-104.901
-104.716
-98.584
-98.6255
-98.6587
-98.6811
-98.6918
-98.6918
-98.6822
-98.663
-98.6348
-98.5981
-98.5533
-98.5
-98.4389
-98.3703
-98.2944
-98.2114
-98.1217
-98.0254
-97.9227
-97.814
-97.6994
-97.5791
-97.4531
-97.3214
-97.184
-97.0407
-96.8912
-96.7348
-96.5708
-96.3981
-90.8359
-90.8774
-90.9114
-90.9356
-90.9488
-90.9518
-90.9454
-90.93
-90.9058
-90.8736
-90.8335
-90.7853
-90.7296
-90.6667
-90.5969
-90.5204
-90.4374
-90.3482
-90.253
-90.152
-90.0454
-89.9333
-89.8158
-89.6929
-89.5645
-89.4305
-89.2904
-89.144
-88.9905
-88.8291
-83.8119
-83.852
-83.8852
-83.9091
-83.9228
-83.9268
-83.9219
-83.9083
-83.8864
-83.8568
-83.8196
-83.7747
-83.7226
-83.6637
-83.5981
-83.5262
-83.4482
-83.3643
-83.2747
-83.1797
-83.0794
-82.974
-82.8635
-82.7479
-82.6271
-82.5011
-82.3695
-82.232
-82.088
-81.937
-77.4402
-77.478
-77.5091
-77.5316
-77.5445
-77.5483
-77.5435
-77.5304
-77.5095
-77.4811
-77.4454
-77.4024
-77.3525
-77.2961
-77.2334
-77.1647
-77.0902
-77.0101
-76.9248
-76.8343
-76.7389
-76.6388
-76.5339
-76.4244
-76.3101
-76.191
-76.0667
-75.9372
-75.8016
-75.6599
-71.6559
-71.6909
-71.7195
-71.7399
-71.7511
-71.7539
-71.7483
-71.7348
-71.7139
-71.6859
-71.6507
-71.6086
-71.5599
-71.505
-71.4442
-71.3775
-71.3054
-71.2281
-71.1459
-71.0588
-70.9673
-70.8713
-70.771
-70.6665
-70.5577
-70.4445
-70.3267
-70.2041
-70.0762
-69.9427
-66.3987
-66.4308
-66.4566
-66.4744
-66.4837
-66.4849
-66.478
-66.4636
-66.4423
-66.4139
-66.3786
-66.3367
-66.2886
-66.2345
-66.1746
-66.1094
-66.0389
-65.9635
-65.8835
-65.7991
-65.7104
-65.6178
-65.5213
-65.421
-65.3169
-65.2089
-65.0968
-64.9805
-64.8593
-64.7331
-61.6139
-61.643
-61.6659
-61.6812
-61.6883
-61.6876
-61.6793
-61.6637
-61.6414
-61.6123
-61.5765
-61.5345
-61.4864
-61.4326
-61.3733
-61.3088
-61.2394
-61.1654
-61.087
-61.0046
-60.9183
-60.8283
-60.735
-60.6383
-60.5382
-60.4348
-60.3279
-60.2171
-60.1022
-59.9826
-57.2523
-57.2785
-57.2986
-57.3114
-57.3163
-57.3137
-57.3038
-57.2868
-57.2635
-57.2335
-57.197
-57.1545
-57.1062
-57.0524
-56.9933
-56.9293
-56.8605
-56.7874
-56.7103
-56.6293
-56.5449
-56.4572
-56.3665
-56.2728
-56.1764
-56.0771
-55.9749
-55.8694
-55.7601
-55.6468
-53.2704
-53.2939
-53.3114
-53.3217
-53.3245
-53.32
-53.3084
-53.2902
-53.2656
-53.2346
-53.1974
-53.1543
-53.1057
-53.0516
-52.9925
-52.9287
-52.8603
-52.7878
-52.7115
-52.6318
-52.5488
-52.463
-52.3745
-52.2836
-52.1905
-52.095
-51.9971
-51.8965
-51.7927
-51.6853
-49.6296
-49.6505
-49.6656
-49.6736
-49.6744
-49.6682
-49.6551
-49.6355
-49.6098
-49.5778
-49.5398
-49.496
-49.4469
-49.3925
-49.3333
-49.2694
-49.2013
-49.1292
-49.0535
-48.9746
-48.8929
-48.8086
-48.7221
-48.6336
-48.5434
-48.4515
-48.3577
-48.2618
-48.1633
-48.0617
-46.2959
-46.3145
-46.3273
-46.3333
-46.3322
-46.3243
-46.3098
-46.289
-46.2621
-46.2292
-46.1903
-46.1459
-46.0963
-46.0415
-45.982
-45.9181
-45.85
-45.7782
-45.7029
-45.6247
-45.5439
-45.4608
-45.376
-45.2897
-45.2022
-45.1135
-45.0237
-44.9325
-44.8392
-44.7433
-43.2393
-43.2558
-43.2665
-43.2706
-43.2678
-43.2584
-43.2425
-43.2206
-43.1927
-43.1588
-43.1192
-43.0742
-43.0239
-42.9688
-42.909
-42.8449
-42.7767
-42.705
-42.63
-42.5522
-42.4721
-42.3901
-42.3067
-42.2223
-42.1372
-42.0516
-41.9656
-41.8789
-41.7909
-41.7008
-40.4331
-40.4477
-40.4565
-40.4589
-40.4546
-40.4437
-40.4267
-40.4037
-40.3748
-40.3401
-40.2997
-40.2541
-40.2034
-40.1478
-40.0877
-40.0233
-39.9551
-39.8833
-39.8084
-39.7309
-39.6513
-39.5701
-39.4878
-39.405
-39.322
-39.2394
-39.157
-39.0749
-38.9922
-38.908
-37.8538
-37.8667
-37.8738
-37.8746
-37.8689
-37.8568
-37.8387
-37.8148
-37.785
-37.7494
-37.7085
-37.6623
-37.6111
-37.5551
-37.4946
-37.4299
-37.3615
-37.2895
-37.2146
-37.1372
-37.0579
-36.9772
-36.8958
-36.8142
-36.7332
-36.6532
-36.5744
-36.4967
-36.4196
-36.3417
-35.4806
-35.4918
-35.4975
-35.4969
-35.4899
-35.4767
-35.4576
-35.4328
-35.4022
-35.366
-35.3244
-35.2776
-35.226
-35.1696
-35.1087
-35.0437
-34.975
-34.9029
-34.8278
-34.7503
-34.671
-34.5906
-34.5097
-34.4291
-34.3497
-34.272
-34.1966
-34.1234
-34.052
-33.9809
-33.2947
-33.3046
-33.3088
-33.307
-33.2989
-33.2847
-33.2646
-33.239
-33.2077
-33.1709
-33.1288
-33.0815
-33.0294
-32.9726
-32.9114
-32.8461
-32.777
-32.7046
-32.6292
-32.5515
-32.472
-32.3915
-32.3108
-32.2308
-32.1526
-32.0769
-32.0046
-31.9359
-31.8705
-31.8067
-31.2796
-31.2882
-31.2912
-31.2882
-31.2791
-31.264
-31.2432
-31.2169
-31.1849
-31.1475
-31.1049
-31.0572
-31.0047
-30.9475
-30.886
-30.8203
-30.7508
-30.678
-30.6022
-30.5241
-30.4442
-30.3634
-30.2825
-30.2026
-30.125
-30.0509
-29.9814
-29.9171
-29.858
-29.8023
-29.4204
-29.4278
-29.4297
-29.4256
-29.4156
-29.3997
-29.3782
-29.3513
-29.3188
-29.2809
-29.2378
-29.1898
-29.1369
-29.0793
-29.0174
-28.9513
-28.8815
-28.8082
-28.7319
-28.6532
-28.5727
-28.4912
-28.4097
-28.3295
-28.2519
-28.1786
-28.1114
-28.0513
-27.999
-27.9522
-27.7036
-27.71
-27.7109
-27.7059
-27.6951
-27.6785
-27.6564
-27.6289
-27.5958
-27.5575
-27.5141
-27.4657
-27.4124
-27.3546
-27.2923
-27.2258
-27.1555
-27.0817
-27.0048
-26.9254
-26.844
-26.7615
-26.679
-26.5978
-26.5196
-26.4464
-26.3807
-26.3242
-26.2792
-26.2425
-26.1173
-26.1227
-26.1227
-26.117
-26.1054
-26.0882
-26.0655
-26.0375
-26.004
-25.9653
-25.9215
-25.8728
-25.8193
-25.7611
-25.6985
-25.6317
-25.5609
-25.4865
-25.409
-25.3286
-25.2462
-25.1624
-25.0785
-24.9957
-24.916
-24.8418
-24.7765
-24.7227
-24.6852
-24.66
-24.6507
-24.6552
-24.6543
-24.6478
-24.6356
-24.6178
-24.5946
-24.5661
-24.5323
-24.4932
-24.4491
-24.4001
-24.3462
-24.2877
-24.2248
-24.1575
-24.0863
-24.0113
-23.9329
-23.8516
-23.7679
-23.6826
-23.5966
-23.5115
-23.4293
-23.3528
-23.2865
-23.2339
-23.2036
-23.191
-23.294
-23.2976
-23.296
-23.2887
-23.2758
-23.2574
-23.2338
-23.2048
-23.1705
-23.1311
-23.0866
-23.0372
-22.983
-22.9241
-22.8607
-22.793
-22.7212
-22.6454
-22.5661
-22.4836
-22.3983
-22.311
-22.2225
-22.1342
-22.0483
-21.9677
-21.898
-21.8443
-21.82
-21.8193
-22.0379
-22.041
-22.0388
-22.0311
-22.0178
-21.9991
-21.9751
-21.9458
-21.9112
-21.8715
-21.8268
-21.7771
-21.7227
-21.6634
-21.5997
-21.5314
-21.459
-21.3825
-21.3021
-21.2183
-21.1313
-21.0417
-20.9504
-20.8583
-20.7674
-20.6808
-20.6046
-20.5467
-20.5276
-20.5395
-20.8734
-20.8765
-20.8744
-20.8668
-20.8538
-20.8354
-20.8118
-20.7829
-20.7488
-20.7096
-20.6654
-20.6163
-20.5624
-20.5037
-20.4404
-20.3727
-20.3006
-20.2244
-20.1441
-20.0601
-19.9726
-19.8819
-19.7887
-19.6938
-19.5985
-19.5055
-19.4202
-19.3533
-19.3364
-19.3791
-19.7952
-19.7964
-19.7926
-19.7836
-19.7694
-19.7501
-19.7258
-19.6964
-19.6621
-19.6228
-19.5788
-19.53
-19.4766
-19.4186
-19.3561
-19.2892
-19.2181
-19.1428
-19.0635
-18.9802
-18.8933
-18.8028
-18.7091
-18.6126
-18.514
-18.4149
-18.3174
-18.2315
-18.1843
-18.2638
-147.183
-147.511
-147.782
-148.078
-148.398
-148.722
-149.042
-149.355
-149.662
-149.961
-150.251
-150.53
-150.799
-151.057
-151.303
-151.536
-151.758
-151.967
-152.163
-152.346
-152.517
-152.676
-152.823
-152.958
-153.082
-153.196
-153.302
-153.404
-153.506
-153.615
-131.744
-132.111
-132.448
-132.785
-133.126
-133.463
-133.79
-134.109
-134.419
-134.719
-135.01
-135.29
-135.56
-135.818
-136.064
-136.299
-136.521
-136.732
-136.93
-137.116
-137.289
-137.451
-137.601
-137.739
-137.866
-137.983
-138.09
-138.189
-138.28
-138.356
-119.928
-120.309
-120.675
-121.028
-121.373
-121.709
-122.036
-122.353
-122.661
-122.96
-123.248
-123.526
-123.794
-124.05
-124.296
-124.53
-124.752
-124.962
-125.161
-125.348
-125.523
-125.687
-125.839
-125.979
-126.108
-126.227
-126.334
-126.43
-126.512
-126.578
-109.896
-110.272
-110.637
-110.988
-111.328
-111.659
-111.98
-112.292
-112.594
-112.887
-113.171
-113.444
-113.706
-113.959
-114.2
-114.43
-114.65
-114.858
-115.054
-115.24
-115.414
-115.576
-115.728
-115.868
-115.997
-116.114
-116.22
-116.314
-116.395
-116.461
-100.689
-101.05
-101.405
-101.748
-102.08
-102.402
-102.714
-103.018
-103.312
-103.597
-103.872
-104.137
-104.392
-104.638
-104.872
-105.096
-105.31
-105.513
-105.705
-105.886
-106.056
-106.215
-106.364
-106.501
-106.627
-106.743
-106.846
-106.938
-107.018
-107.085
-92.3612
-92.7069
-93.048
-93.3798
-93.7009
-94.0119
-94.3139
-94.6069
-94.8907
-95.1653
-95.4304
-95.686
-95.932
-96.1681
-96.3942
-96.6103
-96.8161
-97.0117
-97.197
-97.3718
-97.5362
-97.6902
-97.8336
-97.9664
-98.0886
-98.1999
-98.3004
-98.3896
-98.4672
-98.5327
-84.8697
-85.2002
-85.5271
-85.8458
-86.1545
-86.4535
-86.7436
-87.025
-87.2974
-87.5609
-87.8152
-88.0602
-88.2959
-88.5221
-88.7387
-88.9456
-89.1427
-89.33
-89.5074
-89.6748
-89.8321
-89.9795
-90.1167
-90.2437
-90.3605
-90.467
-90.563
-90.6483
-90.7227
-90.7858
-78.1147
-78.4308
-78.7434
-79.0486
-79.3445
-79.6311
-79.9092
-80.1787
-80.4397
-80.6918
-80.935
-81.1693
-81.3944
-81.6104
-81.8171
-82.0145
-82.2025
-82.381
-82.5499
-82.7093
-82.859
-82.9991
-83.1295
-83.2501
-83.3609
-83.4619
-83.5527
-83.6335
-83.704
-83.764
-72.0106
-72.313
-72.6121
-72.9042
-73.1875
-73.4622
-73.7285
-73.9866
-74.2362
-74.4773
-74.7097
-74.9333
-75.1482
-75.3541
-75.5511
-75.739
-75.9178
-76.0875
-76.248
-76.3993
-76.5413
-76.674
-76.7974
-76.9114
-77.0159
-77.111
-77.1966
-77.2725
-77.3386
-77.395
-66.4837
-66.7736
-67.0601
-67.3399
-67.6114
-67.8746
-68.1298
-68.377
-68.6159
-68.8464
-69.0685
-69.2821
-69.4871
-69.6834
-69.871
-70.0498
-70.2198
-70.381
-70.5333
-70.6767
-70.8112
-70.9367
-71.0532
-71.1607
-71.2591
-71.3484
-71.4286
-71.4996
-71.5613
-71.6139
-61.4687
-61.7472
-62.0221
-62.2906
-62.5512
-62.8038
-63.0487
-63.2856
-63.5145
-63.7352
-63.9477
-64.1518
-64.3475
-64.5348
-64.7136
-64.8838
-65.0455
-65.1987
-65.3432
-65.4792
-65.6065
-65.7251
-65.8351
-65.9363
-66.0289
-66.1127
-66.1877
-66.254
-66.3114
-66.36
-56.9085
-57.1766
-57.4412
-57.6993
-57.9499
-58.1928
-58.4281
-58.6556
-58.8753
-59.0869
-59.2904
-59.4857
-59.6728
-59.8517
-60.0223
-60.1845
-60.3385
-60.4842
-60.6215
-60.7505
-60.8711
-60.9834
-61.0872
-61.1827
-61.2697
-61.3483
-61.4185
-61.4803
-61.5335
-61.5784
-52.7535
-53.0123
-53.2674
-53.5163
-53.7578
-53.9918
-54.2183
-54.4372
-54.6483
-54.8515
-55.0468
-55.234
-55.4131
-55.5842
-55.7473
-55.9022
-56.0491
-56.1878
-56.3185
-56.4411
-56.5555
-56.6618
-56.76
-56.8501
-56.9321
-57.0059
-57.0715
-57.1291
-57.1785
-57.2199
-48.9607
-49.2112
-49.4578
-49.6982
-49.9315
-50.1574
-50.376
-50.587
-50.7903
-50.9857
-51.1734
-51.3531
-51.5249
-51.6889
-51.845
-51.9931
-52.1334
-52.2658
-52.3904
-52.507
-52.6158
-52.7167
-52.8098
-52.8949
-52.9722
-53.0416
-53.1032
-53.1569
-53.2027
-53.2409
-45.4927
-45.7357
-45.9747
-46.2076
-46.4334
-46.652
-46.8632
-47.067
-47.2631
-47.4515
-47.6321
-47.8049
-47.97
-48.1274
-48.277
-48.419
-48.5532
-48.6798
-48.7987
-48.91
-49.0136
-49.1095
-49.1979
-49.2785
-49.3516
-49.417
-49.4748
-49.525
-49.5676
-49.6027
-42.3168
-42.5531
-42.7853
-43.0114
-43.2306
-43.4425
-43.6471
-43.8442
-44.0337
-44.2155
-44.3896
-44.5561
-44.7149
-44.8662
-45.0099
-45.1461
-45.2748
-45.3961
-45.5098
-45.6162
-45.715
-45.8065
-45.8905
-45.9671
-46.0362
-46.098
-46.1524
-46.1994
-46.239
-46.2714
-39.4045
-39.6349
-39.861
-40.0811
-40.2942
-40.5001
-40.6986
-40.8896
-41.0729
-41.2486
-41.4167
-41.5773
-41.7303
-41.876
-42.0142
-42.1451
-42.2687
-42.385
-42.494
-42.5958
-42.6904
-42.7777
-42.8577
-42.9306
-42.9962
-43.0547
-43.106
-43.1501
-43.187
-43.217
-36.7307
-36.9557
-37.1765
-37.3913
-37.599
-37.7993
-37.9922
-38.1775
-38.3551
-38.5251
-38.6876
-38.8426
-38.9903
-39.1307
-39.2639
-39.3898
-39.5087
-39.6205
-39.7251
-39.8228
-39.9133
-39.9968
-40.0733
-40.1428
-40.2052
-40.2606
-40.3091
-40.3506
-40.3851
-40.4128
-34.2731
-34.4934
-34.7095
-34.9196
-35.1224
-35.3178
-35.5054
-35.6854
-35.8576
-36.0223
-36.1795
-36.3293
-36.4719
-36.6074
-36.7358
-36.8573
-36.9717
-37.0793
-37.1799
-37.2737
-37.3606
-37.4407
-37.5139
-37.5802
-37.6397
-37.6924
-37.7383
-37.7774
-37.8097
-37.8353
-32.012
-32.2282
-32.4403
-32.6463
-32.8448
-33.0354
-33.2182
-33.3931
-33.5603
-33.7199
-33.8721
-34.017
-34.1549
-34.2857
-34.4097
-34.5269
-34.6372
-34.7409
-34.8378
-34.9281
-35.0116
-35.0885
-35.1586
-35.2221
-35.279
-35.3292
-35.3727
-35.4096
-35.4399
-35.4637
-29.9296
-30.1423
-30.3512
-30.5537
-30.7483
-30.9346
-31.1127
-31.2828
-31.4451
-31.5999
-31.7473
-31.8875
-32.0209
-32.1474
-32.2672
-32.3804
-32.487
-32.587
-32.6805
-32.7674
-32.8478
-32.9218
-32.9892
-33.0501
-33.1045
-33.1524
-33.1938
-33.2288
-33.2572
-33.2794
-28.0101
-28.22
-28.4265
-28.6262
-28.8172
-28.9993
-29.173
-29.3384
-29.496
-29.646
-29.7888
-29.9247
-30.0537
-30.1762
-30.292
-30.4015
-30.5045
-30.6011
-30.6914
-30.7754
-30.8529
-30.9242
-30.989
-31.0476
-31.0997
-31.1456
-31.185
-31.2182
-31.245
-31.2656
-26.2389
-26.4468
-26.652
-26.8495
-27.0372
-27.2153
-27.3846
-27.5454
-27.6984
-27.8438
-27.9822
-28.1138
-28.2388
-28.3573
-28.4695
-28.5755
-28.6752
-28.7687
-28.8561
-28.9372
-29.0121
-29.0809
-29.1434
-29.1998
-29.2499
-29.2938
-29.3315
-29.3631
-29.3884
-29.4076
-24.6028
-24.8096
-25.015
-25.211
-25.3955
-25.5696
-25.7344
-25.8907
-26.0391
-26.1801
-26.3142
-26.4417
-26.5629
-26.6778
-26.7866
-26.8893
-26.9859
-27.0765
-27.1611
-27.2397
-27.3122
-27.3787
-27.4391
-27.4934
-27.5417
-27.5839
-27.62
-27.65
-27.674
-27.692
-23.09
-23.2972
-23.5044
-23.6993
-23.8805
-24.0505
-24.2109
-24.3626
-24.5064
-24.6431
-24.7731
-24.8968
-25.0143
-25.1258
-25.2313
-25.331
-25.4248
-25.5128
-25.5948
-25.671
-25.7413
-25.8057
-25.8641
-25.9166
-25.9632
-26.0038
-26.0384
-26.0671
-26.0898
-26.1067
-21.6889
-21.9005
-22.1115
-22.3052
-22.4827
-22.6484
-22.8042
-22.9512
-23.0905
-23.2229
-23.349
-23.469
-23.583
-23.6913
-23.7939
-23.8907
-23.9818
-24.0672
-24.1469
-24.2209
-24.2891
-24.3515
-24.4081
-24.4589
-24.5038
-24.543
-24.5762
-24.6036
-24.6252
-24.641
-20.3819
-20.608
-20.8274
-21.0191
-21.1921
-21.3531
-21.5041
-21.6463
-21.7812
-21.9095
-22.0319
-22.1484
-22.2592
-22.3645
-22.4643
-22.5584
-22.6471
-22.7301
-22.8076
-22.8795
-22.9457
-23.0063
-23.0612
-23.1104
-23.1539
-23.1916
-23.2236
-23.2499
-23.2703
-23.2851
-19.1396
-19.3934
-19.6309
-19.8221
-19.9903
-20.1466
-20.293
-20.4309
-20.5618
-20.6866
-20.8058
-20.9195
-21.0277
-21.1306
-21.2281
-21.3202
-21.4069
-21.4882
-21.564
-21.6343
-21.6991
-21.7583
-21.812
-21.86
-21.9025
-21.9392
-21.9704
-21.9958
-22.0155
-22.0297
-17.9693
-18.2461
-18.508
-18.7049
-18.8693
-19.0205
-19.1625
-19.2965
-19.4238
-19.5455
-19.662
-19.7733
-19.8793
-19.9802
-20.0759
-20.1664
-20.2516
-20.3314
-20.406
-20.4752
-20.539
-20.5973
-20.6502
-20.6976
-20.7394
-20.7757
-20.8065
-20.8316
-20.8512
-20.8652
-17.0705
-17.3403
-17.5778
-17.7767
-17.9342
-18.0725
-18.2042
-18.3296
-18.4487
-18.5628
-18.6722
-18.7767
-18.8764
-18.9711
-19.0609
-19.1456
-19.2253
-19.2999
-19.3694
-19.4338
-19.493
-19.547
-19.5958
-19.6394
-19.6776
-19.7106
-19.7382
-19.7605
-19.7774
-19.7891
-11.2002
-12.1307
-13.1438
-14.2389
-15.4241
-16.7081
-18.0993
-19.6069
-21.2414
-23.0145
-24.939
-27.0293
-29.3014
-31.7732
-34.4648
-37.3988
-40.6008
-44.1001
-47.9301
-52.1298
-56.7443
-61.8271
-67.4405
-73.6578
-80.5692
-88.286
-96.8756
-106.321
-117.623
-132.671
-11.387
-12.3221
-13.337
-14.4347
-15.623
-16.9104
-18.3051
-19.8167
-21.4555
-23.2332
-25.1627
-27.2584
-29.5364
-32.0146
-34.7132
-37.6548
-40.8652
-44.3737
-48.2139
-52.425
-57.0522
-62.1491
-67.7783
-74.0132
-80.9438
-88.6815
-97.2926
-106.755
-118.062
-133.097
-11.5761
-12.5156
-13.5325
-14.6327
-15.8243
-17.1151
-18.5136
-20.0292
-21.6724
-23.4548
-25.3895
-27.4908
-29.7748
-32.2596
-34.9654
-37.9148
-41.1338
-44.6518
-48.5026
-52.7253
-57.3656
-62.4769
-68.1221
-74.3747
-81.3243
-89.082
-97.7129
-107.19
-118.494
-133.5
-11.7669
-12.7108
-13.7296
-14.8326
-16.0275
-17.3218
-18.7241
-20.2438
-21.8914
-23.6787
-25.6186
-27.7255
-30.0157
-32.5072
-35.2202
-38.1776
-41.4053
-44.9329
-48.7943
-53.0289
-57.6822
-62.8081
-68.4694
-74.7396
-81.7079
-89.485
-98.1348
-107.628
-118.936
-133.928
-11.9593
-12.9075
-13.9281
-15.034
-16.2322
-17.5301
-18.9362
-20.4601
-22.1122
-23.9044
-25.8496
-27.9623
-30.2586
-32.7568
-35.4772
-38.4426
-41.6791
-45.2164
-49.0885
-53.3348
-58.0013
-63.1418
-68.8191
-75.1067
-82.0938
-89.8901
-98.559
-108.07
-119.39
-134.379
-12.153
-13.1054
-14.128
-15.2367
-16.4384
-17.74
-19.15
-20.6781
-22.3348
-24.1319
-26.0824
-28.2009
-30.5035
-33.0085
-35.7363
-38.7098
-41.9551
-45.5021
-49.385
-53.6432
-58.3228
-63.4778
-69.1712
-75.4763
-82.4822
-90.2981
-98.9866
-108.516
-119.851
-134.843
-12.3479
-13.3044
-14.3289
-15.4407
-16.6458
-17.9511
-19.3651
-20.8975
-22.5589
-24.361
-26.3169
-28.4413
-30.7503
-33.2621
-35.9973
-38.979
-42.2333
-45.7901
-49.6837
-53.9539
-58.6468
-63.8164
-69.5259
-75.8487
-82.8735
-90.7093
-99.4177
-108.966
-120.316
-135.314
-12.5438
-13.5042
-14.5307
-15.6456
-16.8544
-18.1635
-19.5815
-21.1183
-22.7843
-24.5915
-26.5529
-28.6832
-30.9986
-33.5174
-36.2602
-39.2501
-42.5134
-46.0801
-49.9847
-54.2669
-58.9731
-64.1574
-69.8832
-76.2237
-83.2678
-91.1237
-99.8522
-109.419
-120.785
-135.79
-12.7404
-13.7046
-14.7332
-15.8513
-17.0638
-18.3767
-19.7989
-21.3401
-23.0109
-24.8233
-26.7902
-28.9265
-31.2484
-33.7742
-36.5246
-39.5228
-42.7952
-46.3719
-50.2874
-54.5818
-59.3014
-64.5006
-70.2428
-76.6013
-83.6647
-91.5408
-100.29
-109.876
-121.258
-136.272
-12.9376
-13.9056
-14.9362
-16.0576
-17.2739
-18.5908
-20.0172
-21.5628
-23.2385
-25.0561
-27.0287
-29.171
-31.4994
-34.0323
-36.7904
-39.797
-43.0786
-46.6653
-50.5919
-54.8985
-59.6316
-64.8458
-70.6045
-76.981
-84.0639
-91.9606
-100.73
-110.336
-121.734
-136.758
-13.1353
-14.1068
-15.1396
-16.2644
-17.4845
-18.8055
-20.2361
-21.7864
-23.467
-25.2898
-27.268
-29.4165
-31.7515
-34.2916
-37.0574
-40.0725
-43.3632
-46.9601
-50.8979
-55.2167
-59.9635
-65.1928
-70.9681
-77.3628
-84.4652
-92.3825
-101.173
-110.799
-122.213
-137.247
-13.3333
-14.3083
-15.3432
-16.4715
-17.6956
-19.0207
-20.4557
-22.0105
-23.6961
-25.5242
-27.5082
-29.6628
-32.0045
-34.5518
-37.3254
-40.3489
-43.649
-47.2561
-51.2051
-55.5364
-60.2969
-65.5413
-71.3332
-77.7462
-84.8684
-92.8064
-101.618
-111.263
-122.694
-137.739
-13.5315
-14.5097
-15.5469
-16.6788
-17.907
-19.2363
-20.6756
-22.2352
-23.9258
-25.7593
-27.7491
-29.9098
-32.2582
-34.8127
-37.5942
-40.6263
-43.9357
-47.553
-51.5133
-55.8571
-60.6313
-65.891
-71.6997
-78.1311
-85.2731
-93.2319
-102.064
-111.729
-123.177
-138.233
-13.7297
-14.7112
-15.7505
-16.8862
-18.1186
-19.4521
-20.896
-22.4603
-24.1559
-25.9949
-27.9904
-30.1574
-32.5125
-35.0743
-37.8637
-40.9044
-44.2232
-47.8508
-51.8223
-56.1786
-60.9667
-66.2417
-72.0673
-78.5171
-85.6789
-93.6586
-102.512
-112.197
-123.661
-138.728
-13.9281
-14.9126
-15.9542
-17.0937
-18.3304
-19.6682
-21.1166
-22.6857
-24.3864
-26.2308
-28.2322
-30.4054
-32.7673
-35.3363
-38.1336
-41.1829
-44.5111
-48.149
-52.132
-56.5007
-61.3028
-66.5931
-72.4356
-78.9039
-86.0856
-94.0862
-102.96
-112.665
-124.146
-139.223
-14.1265
-15.1138
-16.1577
-17.3013
-18.5423
-19.8845
-21.3374
-22.9113
-24.6171
-26.467
-28.4742
-30.6537
-33.0223
-35.5987
-38.4038
-41.4617
-44.7993
-48.4475
-52.4419
-56.8233
-61.6392
-66.9449
-72.8044
-79.2912
-86.4928
-94.5143
-103.41
-113.134
-124.631
-139.719
-14.3249
-15.315
-16.3612
-17.5088
-18.7543
-20.1009
-21.5584
-23.1371
-24.8481
-26.7034
-28.7164
-30.9022
-33.2775
-35.8611
-38.6742
-41.7406
-45.0876
-48.7462
-52.7519
-57.1459
-61.9758
-67.2969
-73.1733
-79.6787
-86.9002
-94.9425
-103.859
-113.602
-125.116
-140.214
-14.5236
-15.5162
-16.5647
-17.7165
-18.9664
-20.3175
-21.7796
-23.3631
-25.0791
-26.9398
-28.9586
-31.1506
-33.5326
-36.1234
-38.9444
-42.0194
-45.3758
-49.0447
-53.0617
-57.4683
-62.3121
-67.6486
-73.5421
-80.0659
-87.3074
-95.3705
-104.307
-114.071
-125.6
-140.709
-14.7227
-15.7177
-16.7684
-17.9245
-19.1788
-20.5343
-22.0009
-23.5892
-25.3103
-27.1763
-29.2008
-31.3989
-33.7875
-36.3855
-39.2142
-42.2978
-45.6635
-49.3426
-53.371
-57.7902
-62.6478
-67.9998
-73.9102
-80.4526
-87.7139
-95.7978
-104.756
-114.538
-126.083
-141.203
-14.9224
-15.9196
-16.9725
-18.1328
-19.3916
-20.7514
-22.2224
-23.8154
-25.5414
-27.4127
-29.4428
-31.647
-34.0421
-36.6472
-39.4836
-42.5756
-45.9505
-49.6398
-53.6796
-58.1112
-62.9828
-68.3501
-74.2775
-80.8384
-88.1196
-96.2242
-105.203