/*--------------------------------*- C++ -*----------------------------------*\
  =========                 |
  \\      /  F ield         | OpenFOAM: The Open Source CFD Toolbox
   \\    /   O peration     | Website:  https://openfoam.org
    \\  /    A nd           | Version:  6.0
     \\/     M anipulation  |
\*---------------------------------------------------------------------------*/
FoamFile
{
    version     2.0;
    format      ascii;
    class       volVectorField;
    location    "7";
    object      U;
}
// * * * * * * * * * * * * * * * * * * * * * * * * * * * * * * * * * * * * * //

dimensions      [0 1 -1 0 0 0 0];

internalField   nonuniform List<vector> 
19200
(
(0.814733 -19.4408 -9.32094e-20)
(0.226162 -18.6452 4.52771e-20)
(0.223731 -17.9558 2.09148e-20)
(0.270174 -17.3378 1.84848e-20)
(0.281137 -16.7706 2.02547e-20)
(0.291392 -16.2354 1.2271e-21)
(0.303708 -15.7216 2.81611e-20)
(0.315077 -15.224 -1.99262e-21)
(0.325029 -14.7402 2.39942e-20)
(0.33366 -14.2697 9.85211e-21)
(0.341035 -13.8123 1.5446e-22)
(0.347261 -13.3687 1.52658e-20)
(0.352482 -12.9391 2.45093e-20)
(0.356851 -12.524 -1.64535e-20)
(0.36051 -12.1233 2.06579e-20)
(0.363585 -11.7371 1.74008e-20)
(0.366182 -11.3651 -1.63098e-20)
(0.368391 -11.0071 2.72753e-20)
(0.370286 -10.6626 -1.72673e-20)
(0.371929 -10.3313 8.54438e-21)
(0.373376 -10.0126 1.17259e-20)
(0.374675 -9.70612 -3.76409e-21)
(0.375876 -9.41118 5.05563e-21)
(0.37703 -9.12722 -5.75254e-21)
(0.378184 -8.85354 -1.46708e-22)
(0.379371 -8.58936 2.8703e-21)
(0.380589 -8.33377 -1.95122e-21)
(0.381979 -8.08581 1.16282e-21)
(0.383976 -7.84448 2.69003e-21)
(0.385454 -7.6088 1.01827e-20)
(1.32225 -19.414 -2.05862e-20)
(0.715472 -18.6414 1.37603e-19)
(0.695418 -17.9576 -7.29557e-20)
(0.725636 -17.342 -9.8142e-20)
(0.721732 -16.7765 -4.3608e-20)
(0.717947 -16.2421 -3.07549e-20)
(0.716739 -15.7284 -6.61755e-20)
(0.714972 -15.2303 8.60281e-21)
(0.712132 -14.7459 -1.37562e-20)
(0.708308 -14.2745 -4.77064e-20)
(0.703575 -13.8164 -1.15629e-19)
(0.698058 -13.372 5.54085e-20)
(0.691917 -12.9418 -2.05993e-20)
(0.685314 -12.5261 7.77875e-21)
(0.678395 -12.125 -4.55249e-20)
(0.671283 -11.7384 -1.63026e-20)
(0.664081 -11.3661 1.9433e-21)
(0.656867 -11.0079 5.40233e-20)
(0.649703 -10.6632 -2.86935e-20)
(0.64264 -10.3318 -1.57264e-20)
(0.635717 -10.0131 -5.9552e-20)
(0.628969 -9.70651 1.51821e-20)
(0.622432 -9.4116 -9.27408e-21)
(0.616138 -9.12773 1.61959e-20)
(0.61012 -8.85421 -7.32527e-21)
(0.604387 -8.59024 -1.12894e-20)
(0.598915 -8.33492 3.73775e-21)
(0.593853 -8.08725 5.55702e-21)
(0.589704 -7.84615 -9.90796e-21)
(0.585071 -7.61061 4.56412e-21)
(1.83026 -19.3751 -9.60039e-21)
(1.20447 -18.625 2.79246e-20)
(1.16705 -17.9469 4.53185e-20)
(1.18132 -17.3341 3.39272e-19)
(1.16269 -16.7708 -1.93406e-19)
(1.14492 -16.2375 1.766e-19)
(1.13021 -15.7241 1.07554e-19)
(1.11529 -15.226 8.20588e-20)
(1.09963 -14.7412 -7.61657e-20)
(1.08331 -14.2693 -6.7345e-21)
(1.06643 -13.8108 1.87237e-19)
(1.04913 -13.366 3.02347e-20)
(1.03159 -12.9354 -8.4243e-20)
(1.01399 -12.5194 6.57216e-20)
(0.996465 -12.1182 3.55311e-22)
(0.979147 -11.7315 2.70688e-20)
(0.962128 -11.3592 1.9101e-20)
(0.945478 -11.001 6.29095e-20)
(0.929247 -10.6564 -2.79285e-20)
(0.91347 -10.3251 -9.16328e-21)
(0.898173 -10.0065 -2.29813e-20)
(0.883378 -9.70015 1.00608e-19)
(0.869102 -9.40548 -8.33557e-20)
(0.855365 -9.12191 2.69158e-20)
(0.842182 -8.84873 1.18616e-20)
(0.829542 -8.58517 -4.85806e-20)
(0.817394 -8.33032 6.41455e-20)
(0.805898 -8.08313 -6.94595e-21)
(0.795613 -7.84246 -7.10655e-21)
(0.784844 -7.60729 -4.67035e-20)
(2.33642 -19.3233 -3.30697e-19)
(1.69242 -18.5959 -2.93141e-19)
(1.63814 -17.924 -3.54336e-19)
(1.63683 -17.3142 1.19053e-20)
(1.60366 -16.7535 2.20318e-20)
(1.57201 -16.2217 -3.86855e-19)
(1.54381 -15.709 1.85507e-20)
(1.51574 -15.211 4.89622e-20)
(1.48723 -14.7262 -8.93765e-21)
(1.45839 -14.2542 8.06033e-20)
(1.42933 -13.7955 -3.17205e-19)
(1.40022 -13.3506 -1.92271e-19)
(1.37126 -12.92 7.26399e-20)
(1.34263 -12.5041 1.38379e-19)
(1.31449 -12.1029 -1.60476e-19)
(1.28695 -11.7164 -2.46528e-20)
(1.26011 -11.3444 -9.2e-20)
(1.23402 -10.9865 -4.24974e-20)
(1.20872 -10.6423 7.02813e-20)
(1.18423 -10.3113 -8.90586e-20)
(1.16056 -9.99306 7.61465e-20)
(1.13772 -9.68711 -9.0045e-20)
(1.11571 -9.39289 -6.92524e-20)
(1.09454 -9.10979 -4.87831e-20)
(1.07421 -8.83717 -1.44841e-20)
(1.05468 -8.5742 -9.81264e-20)
(1.03588 -8.32001 1.01697e-20)
(1.01797 -8.0735 1.70228e-20)
(1.00157 -7.83346 -4.86636e-20)
(0.98465 -7.59888 1.0639e-20)
(2.84127 -19.2587 -1.95174e-19)
(2.1796 -18.5545 2.81969e-20)
(2.10865 -17.889 2.46203e-19)
(2.09194 -17.2825 2.53079e-19)
(2.04439 -16.7247 1.79975e-19)
(1.99891 -16.1947 7.37153e-20)
(1.95726 -15.6829 1.12258e-19)
(1.91604 -15.1855 5.02997e-19)
(1.87466 -14.7009 -3.01033e-19)
(1.83327 -14.2291 9.21619e-21)
(1.79201 -13.7706 7.12412e-20)
(1.75106 -13.3259 2.95439e-19)
(1.71066 -12.8956 -1.98747e-19)
(1.671 -12.48 1.40288e-19)
(1.63223 -12.0793 -1.52577e-19)
(1.59447 -11.6932 2.59208e-19)
(1.5578 -11.3217 -7.58898e-20)
(1.52227 -10.9644 2.85038e-21)
(1.48791 -10.6207 1.17259e-19)
(1.45471 -10.2903 8.03672e-20)
(1.42268 -9.97269 -8.19353e-20)
(1.39181 -9.66736 1.08733e-19)
(1.36209 -9.37378 -4.83272e-20)
(1.3335 -9.09138 5.57467e-20)
(1.30603 -8.81948 7.29148e-20)
(1.27963 -8.55731 2.56642e-20)
(1.2542 -8.30395 7.79226e-20)
(1.22992 -8.05832 -2.92376e-20)
(1.20743 -7.81911 -9.9152e-21)
(1.18436 -7.58534 -4.37071e-20)
(3.34427 -19.1812 -1.40582e-19)
(2.66563 -18.5006 -9.19077e-20)
(2.57828 -17.8417 -2.75528e-19)
(2.54635 -17.239 -7.0633e-19)
(2.48456 -16.6843 2.38621e-19)
(2.42533 -16.1564 1.49297e-20)
(2.37025 -15.6459 -1.55493e-19)
(2.31588 -15.1493 2.81979e-20)
(2.26164 -14.6653 -2.35368e-20)
(2.20768 -14.1941 -3.76541e-19)
(2.1542 -13.736 1.586e-19)
(2.10141 -13.2918 2.65519e-19)
(2.04956 -12.8621 1.08545e-21)
(1.99885 -12.4472 9.52415e-20)
(1.94945 -12.0472 2.30388e-19)
(1.90148 -11.6619 -1.56946e-19)
(1.85499 -11.2912 2.71559e-19)
(1.81004 -10.9346 -1.27791e-19)
(1.76662 -10.5918 2.22358e-19)
(1.72473 -10.2622 -1.65674e-19)
(1.68436 -9.94541 7.2732e-20)
(1.64547 -9.64091 1.85633e-19)
(1.60805 -9.34818 8.29459e-21)
(1.57206 -9.06666 -1.68993e-19)
(1.53748 -8.79568 9.37209e-20)
(1.50424 -8.53449 1.0388e-20)
(1.47222 -8.28218 -2.88554e-20)
(1.4416 -8.03761 1.08632e-19)
(1.41306 -7.79941 3.70105e-20)
(1.38384 -7.56668 -3.71812e-20)
(3.8452 -19.0907 3.92309e-19)
(3.15031 -18.4342 -1.25679e-20)
(3.04681 -17.7824 -5.55855e-19)
(2.99982 -17.1837 1.14094e-19)
(2.92389 -16.6324 -1.51874e-19)
(2.85099 -16.1068 1.15212e-19)
(2.78251 -15.5979 2.42084e-19)
(2.71499 -15.1025 4.29545e-19)
(2.64787 -14.6195 -4.56587e-19)
(2.58134 -14.149 1.1233e-19)
(2.51563 -13.6918 -7.42654e-20)
(2.45099 -13.2484 5.38802e-20)
(2.38769 -12.8196 -2.41003e-19)
(2.32595 -12.4057 -1.43091e-20)
(2.26593 -12.0066 3.72235e-19)
(2.20775 -11.6224 -2.56812e-19)
(2.15147 -11.2527 -1.58708e-19)
(2.0971 -10.8972 -1.11704e-19)
(2.04465 -10.5555 2.03426e-19)
(1.99409 -10.227 4.22818e-20)
(1.94539 -9.91122 -1.9397e-19)
(1.89851 -9.60777 2.53533e-19)
(1.85341 -9.31609 -2.27624e-19)
(1.81005 -9.03565 1.47188e-19)
(1.7684 -8.76579 -8.34478e-20)
(1.72835 -8.50576 5.23818e-20)
(1.68977 -8.25467 3.81063e-20)
(1.65285 -8.01135 -1.72676e-19)
(1.61832 -7.77438 7.33506e-20)
(1.58296 -7.54291 9.95737e-22)
(4.34368 -18.9873 -3.81699e-19)
(3.63332 -18.3554 3.10916e-19)
(3.51394 -17.7109 -5.59641e-19)
(3.45204 -17.1165 1.067e-18)
(3.36211 -16.5689 -2.95848e-19)
(3.27559 -16.0461 4.09606e-19)
(3.19375 -15.539 -9.68057e-21)
(3.11309 -15.0451 -5.9378e-20)
(3.03309 -14.5633 -7.84816e-20)
(2.95399 -14.094 7.4201e-22)
(2.87605 -13.6379 -2.95884e-19)
(2.79956 -13.1957 1.55485e-19)
(2.72482 -12.7681 -1.80664e-19)
(2.65205 -12.3554 -1.49472e-20)
(2.58143 -11.9577 -4.92794e-19)
(2.51306 -11.5748 1.62063e-19)
(2.447 -11.2064 8.95198e-20)
(2.38325 -10.8523 -1.02529e-19)
(2.32179 -10.5118 -1.2267e-20)
(2.26258 -10.1846 -1.51499e-19)
(2.20558 -9.87014 -5.32178e-20)
(2.15074 -9.56795 3.63839e-21)
(2.09799 -9.27754 -1.26856e-19)
(2.0473 -8.99836 -1.84493e-19)
(1.9986 -8.7298 8.49238e-21)
(1.95179 -8.47113 -2.09571e-20)
(1.90669 -8.22144 5.57008e-20)
(1.86354 -7.97957 -1.35559e-19)
(1.82305 -7.74401 1.13953e-19)
(1.78159 -7.51404 -2.14356e-19)
(4.83942 -18.871 -9.40618e-19)
(4.11437 -18.264 1.11939e-18)
(3.97939 -17.6273 -1.16647e-18)
(3.90274 -17.0375 -3.09817e-19)
(3.79891 -16.494 -1.92476e-19)
(3.69885 -15.9741 -2.08756e-19)
(3.60367 -15.4693 -1.90569e-19)
(3.50989 -14.9771 -4.32326e-20)
(3.41702 -14.4969 -1.90537e-19)
(3.32535 -14.029 -3.67376e-20)
(3.23518 -13.5744 3.02674e-19)
(3.14686 -13.1337 -1.77463e-19)
(3.06068 -12.7076 -2.0145e-19)
(2.97691 -12.2965 -3.31104e-19)
(2.89571 -11.9003 6.913e-19)
(2.81719 -11.519 -2.61518e-19)
(2.74137 -11.1523 9.6533e-20)
(2.66827 -10.7997 -3.52863e-19)
(2.59783 -10.4608 1.36429e-19)
(2.53001 -10.1352 -5.33564e-20)
(2.46475 -9.8222 6.90668e-20)
(2.40197 -9.52149 -2.20389e-20)
(2.34162 -9.23253 2.04817e-19)
(2.28362 -8.95482 -7.16685e-20)
(2.22792 -8.68775 1.95426e-19)
(2.17438 -8.43061 -3.5319e-20)
(2.12283 -8.18251 2.49428e-19)
(2.07349 -7.94227 6.59795e-20)
(2.02711 -7.70832 1.221e-19)
(1.97959 -7.48007 -3.75722e-19)
(5.33205 -18.7419 1.48479e-18)
(4.59312 -18.1602 -2.8787e-19)
(4.44284 -17.5316 4.99148e-19)
(4.35161 -16.9468 -1.3852e-19)
(4.234 -16.4075 4.88398e-19)
(4.12046 -15.8909 4.52655e-19)
(4.01198 -15.3886 5.03553e-19)
(3.9051 -14.8985 -3.85344e-20)
(3.79938 -14.4202 -4.69214e-19)
(3.69514 -13.9541 6.87259e-19)
(3.59276 -13.5013 -4.7224e-20)
(3.49262 -13.0624 4.69456e-19)
(3.39504 -12.6382 1.67383e-19)
(3.3003 -12.2289 6.25282e-20)
(3.20855 -11.8346 9.37969e-20)
(3.1199 -11.4552 1.3059e-19)
(3.03437 -11.0904 2.11256e-19)
(2.95195 -10.7396 -5.88125e-20)
(2.87258 -10.4026 3.02561e-19)
(2.79619 -10.0787 1.35286e-19)
(2.7227 -9.76742 -2.80775e-19)
(2.65203 -9.46839 4.91038e-19)
(2.58411 -9.1811 -6.39815e-19)
(2.51885 -8.90504 5.96356e-19)
(2.45619 -8.63965 -1.9544e-19)
(2.39598 -8.38422 3.85553e-20)
(2.33802 -8.13791 -2.48943e-19)
(2.28256 -7.89948 1.39224e-19)
(2.23035 -7.66733 4.83305e-20)
(2.17682 -7.44103 -5.74786e-20)
(5.82127 -18.6 -8.4086e-19)
(5.06928 -18.044 8.00044e-19)
(4.90399 -17.4239 -2.16858e-19)
(4.79835 -16.8443 6.14996e-19)
(4.66709 -16.3096 6.12918e-20)
(4.54015 -15.7965 1.21074e-19)
(4.41841 -15.297 -1.01805e-18)
(4.29845 -14.8094 -1.77454e-19)
(4.17988 -14.3333 6.34344e-19)
(4.0631 -13.8693 4.66969e-19)
(3.94853 -13.4186 -7.92326e-19)
(3.8366 -12.9818 4.54388e-19)
(3.72764 -12.5598 -4.49942e-19)
(3.62195 -12.1526 3.00715e-19)
(3.5197 -11.7606 -5.0161e-19)
(3.42097 -11.3833 -3.63365e-19)
(3.32577 -11.0206 2.59919e-20)
(3.23408 -10.672 -1.59547e-19)
(3.14582 -10.337 2.87512e-19)
(3.0609 -10.0151 1.12528e-19)
(2.97923 -9.70584 -7.38259e-20)
(2.90072 -9.40871 -2.09891e-20)
(2.82527 -9.12328 8.18029e-20)
(2.7528 -8.84906 -2.76156e-19)
(2.68323 -8.58553 4.49188e-19)
(2.6164 -8.33201 -1.10647e-19)
(2.55209 -8.08764 -6.98509e-21)
(2.49059 -7.85122 3.75723e-19)
(2.43263 -7.62104 4.72853e-20)
(2.37315 -7.39693 -5.25343e-20)
(6.30673 -18.4455 3.41125e-20)
(5.5425 -17.9154 -4.57034e-19)
(5.36254 -17.3041 -4.08044e-19)
(5.24267 -16.73 -6.68995e-19)
(5.09787 -16.2003 2.41073e-20)
(4.9576 -15.6911 -4.6078e-19)
(4.82264 -15.1947 5.477e-19)
(4.68963 -14.7097 -5.56772e-20)
(4.55825 -14.2361 4.17561e-19)
(4.42895 -13.7747 -3.53625e-19)
(4.30223 -13.3264 -1.75857e-19)
(4.17853 -12.8921 9.49421e-20)
(4.05824 -12.4725 5.05356e-20)
(3.94165 -12.0678 -4.99794e-19)
(3.82893 -11.6782 2.92915e-19)
(3.72017 -11.3034 -1.39153e-19)
(3.61535 -10.9432 3.98434e-19)
(3.51444 -10.5969 -1.28571e-19)
(3.41734 -10.2642 1.32834e-19)
(3.32395 -9.94458 3.23357e-20)
(3.23415 -9.63748 2.18824e-19)
(3.14784 -9.34247 -4.5313e-20)
(3.06492 -9.0591 3.49963e-19)
(2.98529 -8.78693 -3.88795e-19)
(2.90886 -8.52543 -1.28949e-19)
(2.83547 -8.27398 1.03712e-19)
(2.76488 -8.03176 -1.06516e-20)
(2.69741 -7.79751 -1.7559e-19)
(2.63377 -7.56951 1.40209e-19)
(2.56842 -7.3478 -1.60809e-19)
(6.78811 -18.2783 1.40615e-18)
(6.01248 -17.7745 3.72045e-19)
(5.81816 -17.1723 4.42976e-19)
(5.68425 -16.6041 5.81922e-19)
(5.52605 -16.0796 8.66051e-19)
(5.37252 -15.5745 -2.70427e-20)
(5.2244 -15.0815 1.2744e-19)
(5.07838 -14.5996 9.22675e-19)
(4.93421 -14.1289 -1.92444e-19)
(4.79243 -13.6702 -3.31167e-19)
(4.65358 -13.2247 5.73146e-19)
(4.51816 -12.7932 9.20876e-20)
(4.38658 -12.3763 4.98607e-21)
(4.25914 -11.9744 1.34103e-19)
(4.13602 -11.5876 2.3086e-19)
(4.01727 -11.2156 -4.65526e-19)
(3.9029 -10.858 3.94019e-19)
(3.79283 -10.5144 6.43435e-20)
(3.68695 -10.1843 3.69701e-19)
(3.58514 -9.86709 -2.01208e-19)
(3.48727 -9.5624 3.22143e-19)
(3.39322 -9.26971 -3.39269e-19)
(3.30287 -8.98861 3.23057e-19)
(3.21614 -8.71866 4.16689e-20)
(3.13291 -8.45939 -2.13145e-19)
(3.05302 -8.21019 -6.6267e-20)
(2.97623 -7.97028 3.91749e-19)
(2.90286 -7.73839 2.82998e-19)
(2.83364 -7.51275 7.37266e-20)
(2.76249 -7.29369 -4.808e-20)
(7.26507 -18.0986 1.39211e-19)
(6.47889 -17.6213 3.15118e-19)
(6.27055 -17.0286 1.27385e-18)
(6.12278 -16.4665 -2.0745e-18)
(5.95132 -15.9475 -1.98082e-19)
(5.78462 -15.4468 -2.19135e-19)
(5.62339 -14.9576 9.75167e-20)
(5.46439 -14.479 1.22169e-19)
(5.30747 -14.0115 2.01147e-19)
(5.15325 -13.556 -5.3816e-19)
(5.00232 -13.1135 -9.65918e-20)
(4.85523 -12.6851 2.92347e-19)
(4.71242 -12.2713 3.04893e-19)
(4.57419 -11.8726 -3.07782e-19)
(4.44071 -11.4888 -2.92227e-19)
(4.31206 -11.1198 4.81197e-19)
(4.18819 -10.7652 3.03806e-19)
(4.06902 -10.4244 -8.22977e-20)
(3.95442 -10.0971 -1.90869e-19)
(3.84426 -9.7827 3.22534e-20)
(3.73838 -9.48063 -4.22134e-19)
(3.63665 -9.19049 5.02129e-19)
(3.53894 -8.91186 -3.39551e-19)
(3.44517 -8.64433 -1.22827e-20)
(3.3552 -8.38745 2.16961e-19)
(3.26887 -8.14067 -6.67015e-20)
(3.18594 -7.90325 -1.96838e-19)
(3.10677 -7.6739 2.42551e-19)
(3.03206 -7.45082 -7.27708e-21)
(2.95521 -7.23462 3.73404e-20)
(7.73728 -17.9065 -1.08869e-19)
(6.94142 -17.456 -3.36452e-19)
(6.7194 -16.873 -1.46351e-18)
(6.55797 -16.3174 5.28818e-19)
(6.37337 -15.8041 -1.53751e-19)
(6.1936 -15.3081 5.09388e-19)
(6.01932 -14.823 3.68703e-20)
(5.8474 -14.3481 -5.60056e-19)
(5.67778 -13.8841 8.36816e-19)
(5.51115 -13.432 -7.48344e-19)
(5.3482 -12.993 -2.52264e-20)
(5.18949 -12.568 1.74114e-19)
(5.0355 -12.1576 -2.98702e-19)
(4.88655 -11.7622 3.30219e-19)
(4.7428 -11.3818 -6.27224e-19)
(4.60429 -11.0161 -1.34628e-19)
(4.471 -10.6647 3.71366e-19)
(4.3428 -10.3272 1.82222e-21)
(4.21956 -10.0029 -2.20927e-19)
(4.10111 -9.69144 6.00133e-19)
(3.98729 -9.39223 -3.22325e-19)
(3.87794 -9.10485 -4.20458e-19)
(3.77294 -8.82889 1.37578e-19)
(3.67218 -8.56397 -3.9332e-19)
(3.57554 -8.30967 -9.11425e-20)
(3.48285 -8.06549 -9.97405e-21)
(3.39386 -7.83072 -2.41912e-19)
(3.30898 -7.60408 2.90842e-19)
(3.22888 -7.38372 -1.58058e-19)
(3.14645 -7.17066 1.70555e-19)
(8.20444 -17.7022 -4.95433e-19)
(7.39974 -17.2786 -1.33476e-18)
(7.1644 -16.7057 6.26841e-19)
(6.98951 -16.1567 -5.8827e-19)
(6.79192 -15.6494 -4.27218e-19)
(6.59916 -15.1585 -2.38802e-19)
(6.41189 -14.6777 -8.76575e-19)
(6.2271 -14.2069 5.90532e-19)
(6.04483 -13.7467 -1.42895e-18)
(5.86587 -13.2984 -5.00391e-19)
(5.69094 -12.8631 1.88992e-19)
(5.52069 -12.4418 2.98972e-19)
(5.35559 -12.0352 -8.9456e-21)
(5.19598 -11.6435 -5.51178e-19)
(5.04203 -11.2667 1.27649e-19)
(4.89376 -10.9046 -4.78928e-19)
(4.75111 -10.5567 -3.36699e-19)
(4.61396 -10.2226 -1.95359e-19)
(4.48215 -9.90166 -3.3628e-20)
(4.35549 -9.59338 3.36741e-19)
(4.23379 -9.29726 4.68601e-19)
(4.1169 -9.01285 -1.3818e-19)
(4.00467 -8.73977 -1.28328e-19)
(3.89699 -8.47765 2.4991e-19)
(3.79375 -8.22611 1.36227e-19)
(3.69477 -7.98469 -1.07686e-19)
(3.59981 -7.75275 -1.16464e-19)
(3.5093 -7.52899 1.42616e-20)
(3.42393 -7.31156 1.17712e-19)
(3.33603 -7.10183 1.49981e-19)
(8.6662 -17.4856 -8.73287e-20)
(7.85354 -17.0893 1.66688e-18)
(7.60525 -16.5266 1.25499e-18)
(7.41709 -15.9847 9.60089e-19)
(7.20665 -15.4836 -6.20725e-19)
(7.001 -14.998 -1.22992e-19)
(6.80082 -14.5219 1.15841e-19)
(6.60322 -14.0554 7.42262e-19)
(6.40837 -13.5994 2.73889e-19)
(6.21713 -13.1552 6.53086e-19)
(6.0303 -12.724 -8.92134e-19)
(5.84857 -12.3068 9.45574e-20)
(5.67244 -11.9042 3.52938e-19)
(5.50226 -11.5165 2.08596e-19)
(5.33818 -11.1436 4.2409e-19)
(5.18022 -10.7853 -2.9367e-19)
(5.02831 -10.4412 -2.6222e-19)
(4.88229 -10.1108 5.42303e-20)
(4.74198 -9.79341 5.42521e-19)
(4.60718 -9.48857 -8.65879e-19)
(4.47769 -9.19577 3.00561e-19)
(4.35332 -8.91455 -1.26027e-21)
(4.23394 -8.64455 5.40609e-19)
(4.11941 -8.38542 -2.34789e-19)
(4.00964 -8.13682 -1.41178e-20)
(3.90443 -7.89835 -1.41939e-19)
(3.80358 -7.66939 1.33861e-19)
(3.70755 -7.44868 3.24226e-20)
(3.617 -7.23434 -1.39728e-19)
(3.52377 -7.02819 4.46719e-19)
(9.12226 -17.2571 -1.77481e-18)
(8.30252 -16.888 -1.00749e-18)
(8.04163 -16.3359 -2.52883e-18)
(7.84042 -15.8012 -1.1154e-18)
(7.61727 -15.3067 1.03375e-18)
(7.39883 -14.8267 -5.8998e-19)
(7.18582 -14.3555 -1.3082e-19)
(6.97549 -13.8937 -3.7416e-19)
(6.76811 -13.4423 6.30543e-19)
(6.56466 -13.0025 -1.39225e-19)
(6.36601 -12.5757 -2.18232e-19)
(6.17288 -12.1628 -2.68603e-20)
(5.98581 -11.7646 -8.44227e-19)
(5.80513 -11.3811 -2.34907e-20)
(5.63102 -11.0125 2.26164e-19)
(5.46346 -10.6584 -2.27192e-20)
(5.30237 -10.3183 -8.15431e-19)
(5.14757 -9.9918 7.83375e-19)
(4.99885 -9.67823 -7.53595e-19)
(4.85599 -9.37707 2.9107e-19)
(4.71878 -9.08781 4.04952e-20)
(4.58701 -8.81001 1.63093e-20)
(4.46054 -8.5433 -2.9129e-19)
(4.33924 -8.28736 9.43886e-20)
(4.223 -8.04188 -4.92879e-22)
(4.11165 -7.80652 2.92135e-20)
(4.00499 -7.58072 -6.76133e-19)
(3.90353 -7.36322 1.86982e-19)
(3.80793 -7.15216 1.94502e-19)
(3.70951 -6.94982 1.96398e-19)
(9.5723 -17.0167 3.43104e-18)
(8.74638 -16.6751 1.12806e-18)
(8.47327 -16.1338 6.47616e-19)
(8.2592 -15.6065 1.02304e-18)
(8.02348 -15.1188 -1.24089e-19)
(7.79236 -14.6447 7.3326e-19)
(7.5666 -14.1788 1.59881e-18)
(7.34361 -13.722 -2.08683e-19)
(7.12379 -13.2754 8.35651e-20)
(6.90821 -12.8403 1.767e-18)
(6.69781 -12.4183 -2.37956e-19)
(6.49337 -12.0101 2.34014e-19)
(6.29544 -11.6165 -8.02406e-20)
(6.10438 -11.2376 2.66231e-21)
(5.92032 -10.8735 1.16497e-18)
(5.74325 -10.5238 4.51752e-20)
(5.57307 -10.188 1.19016e-18)
(5.40958 -9.8657 -1.55715e-19)
(5.25254 -9.55619 -2.47255e-19)
(5.10171 -9.25895 5.71653e-19)
(4.95685 -8.97346 -5.11623e-19)
(4.81777 -8.69929 5.56863e-19)
(4.68428 -8.43608 2.93561e-19)
(4.55628 -8.18352 -2.31674e-19)
(4.43365 -7.94135 3.50522e-19)
(4.31622 -7.70927 4.07442e-20)
(4.20383 -7.4868 -1.36412e-19)
(4.09704 -7.27269 7.98594e-20)
(3.99651 -7.06508 4.89601e-19)
(3.89306 -6.86679 7.02021e-20)
(10.016 -16.7645 -5.90674e-19)
(9.18481 -16.4505 -1.13926e-18)
(8.89986 -15.9202 4.50249e-19)
(8.67313 -15.4007 -1.81561e-18)
(8.42499 -14.92 8.37762e-19)
(8.1813 -14.452 -1.51138e-18)
(7.94288 -13.9917 -9.61277e-19)
(7.70731 -13.5402 2.66263e-19)
(7.47513 -13.0988 2.39922e-19)
(7.2475 -12.6688 -1.23108e-18)
(7.02546 -12.2518 -5.16849e-19)
(6.8098 -11.8486 2.24886e-19)
(6.60112 -11.46 -6.3394e-19)
(6.39976 -11.086 -2.45304e-19)
(6.20585 -10.7267 -1.60725e-19)
(6.01938 -10.3817 -1.60266e-19)
(5.84021 -10.0505 -6.49919e-19)
(5.66811 -9.73256 -3.9541e-19)
(5.50284 -9.42734 7.64282e-20)
(5.34412 -9.13425 1.27145e-19)
(5.19171 -8.85277 1.27639e-19)
(5.04538 -8.58245 -4.50834e-19)
(4.90496 -8.32295 1.64103e-19)
(4.77031 -8.07397 -3.37724e-19)
(4.64136 -7.83529 3.07378e-19)
(4.51794 -7.60667 -4.05686e-19)
(4.3999 -7.3877 1.20236e-19)
(4.28788 -7.17714 -1.95713e-19)
(4.18253 -6.97317 -2.67821e-19)
(4.07422 -6.77918 -2.58645e-20)
(10.4532 -16.5008 -1.22868e-18)
(9.61755 -16.2145 -1.01704e-18)
(9.32112 -15.6954 -9.7296e-19)
(9.08193 -15.1837 -6.87719e-19)
(8.82151 -14.7104 2.12679e-18)
(8.56536 -14.2489 2.83178e-19)
(8.31437 -13.7944 8.70204e-19)
(8.06631 -13.3485 1.29895e-18)
(7.82186 -12.9126 6.04177e-19)
(7.58229 -12.4881 -8.05752e-19)
(7.34869 -12.0764 1.24005e-18)
(7.12193 -11.6786 -1.19936e-18)
(6.90259 -11.2952 1.10205e-18)
(6.69104 -10.9264 1.21455e-19)
(6.4874 -10.5721 2.69671e-19)
(6.29163 -10.232 8.83051e-20)
(6.10356 -9.90565 1.0507e-18)
(5.92296 -9.59243 -1.56214e-19)
(5.74954 -9.29175 1.33845e-19)
(5.58303 -9.00305 4.44468e-19)
(5.42314 -8.72579 -4.91354e-19)
(5.26964 -8.45955 3.80224e-19)
(5.12235 -8.20396 1.09443e-20)
(4.98114 -7.95878 1.65785e-19)
(4.84592 -7.72378 2.96633e-19)
(4.71657 -7.4988 -5.16752e-20)
(4.59296 -7.28349 2.85677e-19)
(4.4758 -7.07666 4.01131e-19)
(4.36575 -6.87651 -4.36893e-19)
(4.25275 -6.68707 -2.43763e-19)
(10.8834 -16.2257 3.54557e-18)
(10.0443 -15.9672 -3.75181e-19)
(9.73677 -15.4594 7.51935e-19)
(9.48531 -14.9559 1.34905e-18)
(9.21276 -14.49 -3.7908e-18)
(8.94426 -14.0352 3.97681e-19)
(8.6808 -13.587 -1.37719e-18)
(8.42035 -13.1471 1.32835e-18)
(8.16373 -12.7169 -1.04847e-18)
(7.91231 -12.2982 5.36713e-19)
(7.66727 -11.8922 -1.95942e-18)
(7.42951 -11.5 7.42229e-20)
(7.19964 -11.1221 -6.05196e-19)
(6.97802 -10.7588 9.14662e-19)
(6.76475 -10.4098 -9.57474e-19)
(6.55978 -10.075 -5.28978e-20)
(6.36292 -9.75368 -7.40983e-19)
(6.17391 -9.44538 -5.46468e-20)
(5.99244 -9.14947 5.33195e-20)
(5.81822 -8.86538 1.5109e-19)
(5.65093 -8.59259 -8.57624e-19)
(5.49034 -8.33063 -2.3561e-20)
(5.33625 -8.07919 -4.62142e-19)
(5.18853 -7.83799 -1.07589e-19)
(5.04712 -7.60688 -2.72949e-19)
(4.91189 -7.38573 -2.91561e-19)
(4.78278 -7.17426 -2.94707e-19)
(4.66055 -6.97132 4.91156e-19)
(4.54592 -6.77519 1.28415e-19)
(4.4284 -6.59052 -2.32398e-19)
(11.3065 -15.9393 -2.3589e-18)
(10.4649 -15.7087 8.2584e-19)
(10.1465 -15.2124 -1.36903e-18)
(9.88299 -14.7171 2.0478e-19)
(9.59844 -14.2591 2.12754e-18)
(9.31772 -13.8113 -1.06745e-18)
(9.0419 -13.3696 -1.07085e-18)
(8.76916 -12.9359 -9.10218e-19)
(8.50047 -12.5119 4.94713e-20)
(8.23732 -12.0992 5.66224e-19)
(7.98095 -11.6992 -3.95462e-19)
(7.73231 -11.313 2.82529e-20)
(7.49203 -10.9409 1.16276e-18)
(7.26045 -10.5833 -5.82777e-19)
(7.03768 -10.24 1.41736e-19)
(6.82363 -9.9106 -4.4994e-19)
(6.61809 -9.59461 1.70226e-19)
(6.42077 -9.29147 3.63933e-19)
(6.23135 -9.00056 3.90607e-19)
(6.04949 -8.72132 -4.27355e-19)
(5.87489 -8.45319 6.66914e-20)
(5.70727 -8.19575 3.50975e-19)
(5.54644 -7.94866 5.96671e-19)
(5.39227 -7.71167 1.47908e-19)
(5.24471 -7.48465 -5.95234e-19)
(5.10366 -7.26752 6.79201e-19)
(4.9691 -7.06009 -3.38442e-19)
(4.84188 -6.86122 -3.93649e-19)
(4.72276 -6.66928 -2.38063e-19)
(4.60093 -6.48964 -2.96964e-19)
(11.7224 -15.6419 1.22893e-18)
(10.8789 -15.4392 -9.36954e-19)
(10.5502 -14.9545 3.67466e-19)
(10.2747 -14.4677 1.81484e-18)
(9.97829 -14.0176 4.79113e-19)
(9.68545 -13.5771 -4.02058e-19)
(9.39738 -13.1422 9.63539e-19)
(9.11246 -12.7151 2.37299e-19)
(8.83182 -12.2976 8.60141e-19)
(8.55706 -11.8913 4.64818e-19)
(8.28949 -11.4977 2.12391e-20)
(8.0301 -11.1176 2.79697e-19)
(7.77954 -10.7517 -8.74799e-20)
(7.53814 -10.4001 1.48439e-19)
(7.30599 -10.0627 3.96339e-19)
(7.08297 -9.73896 -2.14912e-19)
(6.86886 -9.42852 5.17783e-19)
(6.66334 -9.13077 5.15634e-19)
(6.46606 -8.84508 -5.78479e-19)
(6.27666 -8.57088 5.88557e-19)
(6.09481 -8.30765 1.21782e-18)
(5.92023 -8.05493 -7.76572e-19)
(5.7527 -7.8124 7.61326e-19)
(5.59212 -7.57983 -5.31943e-19)
(5.43843 -7.35711 -7.20715e-20)
(5.29159 -7.14422 5.43942e-19)
(5.15161 -6.94103 -1.12322e-19)
(5.01947 -6.74644 3.95519e-19)
(4.89596 -6.55892 3.85224e-19)
(4.77001 -6.38464 -7.17064e-19)
(12.1307 -15.3336 -1.18017e-18)
(11.2864 -15.1589 5.39081e-19)
(10.9474 -14.6858 2.11866e-19)
(10.6602 -14.2076 -2.09939e-18)
(10.352 -13.7658 -1.05606e-18)
(10.0472 -13.3329 7.7327e-19)
(9.74697 -12.9051 -2.10204e-18)
(9.44999 -12.4849 2.48137e-18)
(9.15752 -12.0742 -1.37294e-18)
(8.87128 -11.6746 1.61553e-19)
(8.59266 -11.2876 -2.61813e-19)
(8.32266 -10.9141 -7.2772e-19)
(8.06196 -10.5546 1.48277e-18)
(7.81088 -10.2092 5.39407e-19)
(7.56948 -9.8779 -5.65414e-19)
(7.33763 -9.56015 1.42198e-20)
(7.11507 -9.25549 2.95754e-19)
(6.90145 -8.96333 -6.33063e-19)
(6.6964 -8.68307 1.33224e-19)
(6.49954 -8.41413 4.19476e-19)
(6.3105 -8.15598 -1.77837e-19)
(6.129 -7.90818 2.7671e-19)
(5.95482 -7.67041 -5.44169e-19)
(5.78783 -7.44246 7.67517e-19)
(5.62802 -7.22424 1.69311e-19)
(5.47535 -7.0158 -4.75068e-19)
(5.32995 -6.81707 -3.98153e-19)
(5.19288 -6.627 6.19675e-21)
(5.06498 -6.44419 5.36369e-19)
(4.935 -6.27569 -1.19439e-19)
(12.5313 -15.0146 -3.21746e-19)
(11.6869 -14.8678 -2.15192e-18)
(11.3379 -14.4065 2.54668e-18)
(11.0391 -13.9371 1.68119e-18)
(10.7193 -13.5037 1.63039e-18)
(10.4026 -13.0787 4.29269e-19)
(10.0904 -12.6583 6.50985e-19)
(9.78148 -12.2454 3.19539e-19)
(9.47732 -11.8418 -1.25991e-18)
(9.17975 -11.4492 2.27161e-18)
(8.89022 -11.0691 -1.7676e-18)
(8.60977 -10.7024 -1.0693e-19)
(8.33908 -10.3496 2.54255e-19)
(8.07847 -10.0108 -1.06616e-18)
(7.82796 -9.68584 9.24524e-19)
(7.58742 -9.37426 -2.79596e-19)
(7.35653 -9.07558 -6.82852e-19)
(7.13493 -8.78922 2.52626e-19)
(6.92221 -8.51458 -4.91955e-19)
(6.71797 -8.25107 -4.25686e-19)
(6.52181 -7.99819 -4.41966e-19)
(6.33344 -7.75549 9.95409e-20)
(6.15261 -7.52267 4.9373e-20)
(5.97921 -7.29952 -1.03118e-18)
(5.81321 -7.08599 -3.79049e-19)
(5.65466 -6.8822 2.49176e-19)
(5.50373 -6.68815 2.97552e-19)
(5.36161 -6.50283 -4.07549e-19)
(5.22917 -6.32503 -1.51473e-19)
(5.0951 -6.16253 1.11376e-20)
(12.9246 -14.6851 -2.96329e-19)
(12.0803 -14.5662 1.39466e-18)
(11.7215 -14.1166 -3.95913e-19)
(11.4112 -13.6561 -4.81155e-19)
(11.08 -13.2315 -2.51113e-18)
(10.7515 -12.8146 -5.28555e-19)
(10.4274 -12.402 9.98914e-19)
(10.1066 -11.9966 -6.4539e-19)
(9.79095 -11.6005 -6.50064e-20)
(9.48221 -11.2153 -1.28524e-19)
(9.18193 -10.8424 6.66152e-19)
(8.8912 -10.4829 -1.03719e-18)
(8.6107 -10.137 -6.7528e-19)
(8.34071 -9.80498 7.76742e-19)
(8.08127 -9.48657 -4.32364e-19)
(7.83217 -9.18138 -5.09421e-19)
(7.59309 -8.88889 1.07531e-18)
(7.36363 -8.60851 -1.70696e-19)
(7.14335 -8.33965 6.03297e-19)
(6.9318 -8.08174 -5.49212e-19)
(6.7286 -7.83428 -4.29624e-19)
(6.53339 -7.59684 3.71917e-19)
(6.34592 -7.36912 -4.46505e-20)
(6.16609 -7.15094 -2.66114e-19)
(5.99387 -6.94229 2.31694e-19)
(5.82934 -6.74336 -7.01602e-19)
(5.67277 -6.55424 4.28061e-19)
(5.52545 -6.37398 -6.98886e-21)
(5.38832 -6.2014 -4.26934e-19)
(5.2503 -6.0447 6.0432e-19)
(13.311 -14.3459 1.10704e-18)
(12.467 -14.2542 -2.73377e-18)
(12.0978 -13.8161 -2.16578e-19)
(11.7761 -13.3648 1.20774e-18)
(11.4336 -12.9492 -2.98494e-19)
(11.0934 -12.5407 -8.33458e-19)
(10.7576 -12.1363 3.76763e-19)
(10.4252 -11.7388 4.25093e-19)
(10.0981 -11.3505 3.2098e-20)
(9.77839 -10.9729 5.01935e-19)
(9.46755 -10.6076 1.57001e-18)
(9.16673 -10.2554 -5.52101e-19)
(8.87659 -9.91682 1.30566e-19)
(8.59742 -9.59182 -3.44376e-19)
(8.3292 -9.28022 1.3169e-18)
(8.07172 -8.98162 -2.32045e-19)
(7.82461 -8.69549 7.4705e-19)
(7.58742 -8.42125 -2.84825e-19)
(7.35969 -8.15832 2.99485e-19)
(7.14093 -7.90614 4.44536e-19)
(6.93072 -7.66421 7.27676e-20)
(6.72869 -7.43214 2.86852e-19)
(6.53458 -7.20964 -2.31243e-19)
(6.34824 -6.99657 6.4002e-19)
(6.16969 -6.79299 -2.57043e-19)
(5.99906 -6.59919 9.21952e-19)
(5.83677 -6.41538 -2.6627e-19)
(5.68428 -6.24058 1.77818e-19)
(5.54265 -6.07366 -3.32537e-19)
(5.40123 -5.92396 5.83354e-19)
(13.6918 -13.9974 -2.45663e-18)
(12.8472 -13.9316 9.5678e-20)
(12.4669 -13.5049 -1.33592e-18)
(12.1336 -13.0631 2.36072e-19)
(11.7798 -12.6569 6.54853e-20)
(11.4282 -12.2573 -1.09282e-18)
(11.0807 -11.8614 -2.01614e-18)
(10.7369 -11.4722 9.84668e-19)
(10.3986 -11.0919 -1.37872e-18)
(10.0681 -10.7224 -7.03568e-19)
(9.74689 -10.3649 -3.89905e-19)
(9.43617 -10.0204 -2.96797e-19)
(9.1366 -9.68927 8.65982e-22)
(8.84843 -9.37152 -1.0529e-18)
(8.57164 -9.06695 6.57325e-19)
(8.30595 -8.77512 -1.0842e-18)
(8.05097 -8.49552 -2.68133e-19)
(7.80621 -8.22756 2.84097e-19)
(7.57116 -7.97067 3.51089e-19)
(7.34531 -7.7243 3.40917e-19)
(7.12816 -7.48796 2.56413e-19)
(6.91931 -7.26128 -6.36432e-19)
(6.71844 -7.04399 6.28492e-19)
(6.52537 -6.83601 -6.81891e-20)
(6.34009 -6.6375 -1.63713e-19)
(6.16277 -6.44893 -6.35066e-19)
(5.99411 -6.2706 -3.29676e-19)
(5.83592 -6.10166 6.04998e-19)
(5.68913 -5.94224 -2.00818e-19)
(5.54376 -5.80492 -1.90159e-19)
(14.0659 -13.6375 1.08265e-18)
(13.2202 -13.5966 1.1059e-19)
(12.8282 -13.1826 -2.60363e-19)
(12.4832 -12.7512 -4.77819e-20)
(12.1185 -12.355 -4.34757e-19)
(11.7556 -11.9648 1.4784e-18)
(11.3967 -11.5776 -6.79537e-19)
(11.0416 -11.197 4.47293e-19)
(10.6924 -10.8252 1.84719e-19)
(10.3512 -10.464 6.22405e-19)
(10.0199 -10.1146 -2.26124e-19)
(9.69945 -9.77806 1.28871e-18)
(9.39064 -9.45462 -1.07788e-19)
(9.09369 -9.14435 7.94366e-19)
(8.80851 -8.84699 -1.30611e-18)
(8.53481 -8.56211 -8.67244e-20)
(8.27215 -8.28919 8.15321e-19)
(8.02001 -8.02763 -4.95617e-19)
(7.77783 -7.77687 -3.42505e-19)
(7.54504 -7.53635 -5.77366e-19)
(7.3211 -7.30559 -4.88733e-19)
(7.10553 -7.0842 5.2967e-19)
(6.89791 -6.87193 -4.78023e-19)
(6.69792 -6.66871 1.06718e-19)
(6.50536 -6.47477 3.78519e-19)
(6.32024 -6.29065 2.56396e-19)
(6.14322 -6.11673 2.34751e-19)
(5.97584 -5.95304 1.70513e-19)
(5.81777 -5.80347 -4.61946e-19)
(5.66223 -5.68275 -1.83935e-19)
(19.715 0.303254 1.33829e-20)
(19.7082 -0.216297 1.28074e-19)
(19.6883 -0.733704 4.45084e-19)
(19.6564 -1.2493 2.41483e-19)
(19.6121 -1.76323 -5.20229e-19)
(19.5548 -2.27536 1.56554e-19)
(19.4842 -2.78545 -1.61445e-19)
(19.4004 -3.29325 -4.12027e-19)
(19.3035 -3.79848 1.07429e-18)
(19.1934 -4.30084 -2.56498e-19)
(19.0703 -4.8 -2.51339e-19)
(18.9342 -5.29564 -5.45939e-19)
(18.7853 -5.78744 -1.58085e-18)
(18.6235 -6.27507 1.46158e-19)
(18.4492 -6.7582 -5.5475e-20)
(18.2623 -7.23651 -5.18244e-19)
(18.063 -7.70968 1.07265e-18)
(17.8515 -8.1774 5.95648e-19)
(17.6279 -8.63935 1.12363e-18)
(17.3925 -9.09523 5.46817e-19)
(17.1453 -9.54474 -1.26787e-18)
(16.8865 -9.98758 5.3358e-20)
(16.6164 -10.4235 -2.42084e-18)
(16.3351 -10.8521 3.68643e-18)
(16.0428 -11.2733 -1.20451e-18)
(15.7399 -11.6868 -1.60046e-18)
(15.4264 -12.0925 -2.3919e-19)
(15.1031 -12.49 -3.26799e-20)
(14.7689 -12.8801 -1.25525e-18)
(14.4276 -13.2612 2.19659e-18)
(19.2358 -0.269476 4.99585e-20)
(19.2134 -0.775006 7.16102e-20)
(19.1771 -1.27814 1.52973e-20)
(19.128 -1.77907 -6.41426e-19)
(19.066 -2.27794 -5.74365e-19)
(18.9912 -2.77461 5.05656e-19)
(18.9033 -3.26877 6.26967e-19)
(18.8026 -3.76013 3.36158e-19)