/*--------------------------------*- C++ -*----------------------------------*\
| =========                 |                                                 |
| \\      /  F ield         | OpenFOAM: The Open Source CFD Toolbox           |
|  \\    /   O peration     | Version:  v1912                                 |
|   \\  /    A nd           | Website:  www.openfoam.com                      |
|    \\/     M anipulation  |                                                 |
\*---------------------------------------------------------------------------*/
FoamFile
{
    version     2.0;
    format      ascii;
    class       volVectorField;
    location    "34.5";
    object      U;
}
// * * * * * * * * * * * * * * * * * * * * * * * * * * * * * * * * * * * * * //

dimensions      [0 1 -1 0 0 0 0];


internalField   nonuniform List<vector> 
9600
(
(0.456599 -9.36349 -1.53994e-19)
(0.159632 -8.63562 0)
(0.241527 -8.16291 -9.03935e-20)
(0.31988 -7.84324 0)
(0.386788 -7.60727 0)
(0.454788 -7.41164 -3.17864e-20)
(0.519914 -7.23242 -5.46359e-22)
(0.579041 -7.05743 2.65597e-20)
(0.631401 -6.88135 0)
(0.677026 -6.70275 -4.50246e-20)
(0.716304 -6.52227 0)
(0.749858 -6.34142 -1.82695e-21)
(0.778422 -6.16201 -2.60471e-21)
(0.802747 -5.98574 -3.1445e-20)
(0.823555 -5.81396 2.65117e-20)
(0.841495 -5.64766 -2.60469e-20)
(0.857116 -5.4873 2.31859e-20)
(0.870962 -5.33279 0)
(0.883812 -5.18337 -1.84372e-20)
(0.895393 -5.03751 2.02136e-20)
(0.824597 -9.35301 -3.08048e-19)
(0.5022 -8.66349 1.17628e-20)
(0.567294 -8.2069 1.86205e-19)
(0.634124 -7.89669 -1.5866e-19)
(0.691996 -7.6653 1.5647e-19)
(0.751927 -7.47017 0)
(0.809153 -7.28866 6.06204e-20)
(0.860212 -7.10969 -6.04761e-20)
(0.904262 -6.92875 -1.04878e-19)
(0.941391 -6.74499 1.32614e-19)
(0.972099 -6.55943 -8.60981e-20)
(0.997132 -6.37386 -3.51366e-20)
(1.01733 -6.19022 7.09301e-20)
(1.03354 -6.01026 0)
(1.04655 -5.8354 0)
(1.05703 -5.66658 9.93674e-20)
(1.06556 -5.50424 -1.68468e-19)
(1.07268 -5.34824 0)
(1.07926 -5.19769 0)
(1.08476 -5.05098 -7.78441e-20)
(1.19293 -9.32898 6.36459e-19)
(0.847022 -8.67849 0)
(0.896593 -8.23822 -3.76707e-19)
(0.952635 -7.93757 -3.41387e-19)
(1.00177 -7.71074 0)
(1.05361 -7.51606 5.45377e-19)
(1.10271 -7.33228 -5.1484e-19)
(1.14535 -7.14944 1.00893e-19)
(1.18069 -6.96384 -2.24617e-19)
(1.20891 -6.77519 -3.73449e-19)
(1.23065 -6.5849 5.09716e-19)
(1.24681 -6.395 -3.15115e-19)
(1.25834 -6.20754 -1.41199e-19)
(1.26618 -6.02434 0)
(1.27117 -5.84681 5.51501e-21)
(1.27403 -5.67589 1.04748e-19)
(1.27533 -5.51198 4.52668e-20)
(1.27565 -5.35489 0)
(1.2759 -5.2036 8.20507e-20)
(1.27522 -5.05645 8.40955e-20)
(1.56049 -9.29105 -8.60999e-19)
(1.1935 -8.68035 -4.03362e-19)
(1.22887 -8.25666 3.91264e-19)
(1.27485 -7.96557 6.7218e-19)
(1.31554 -7.74322 -3.26227e-19)
(1.35925 -7.54896 5.77344e-21)
(1.39998 -7.36294 2.53224e-19)
(1.43385 -7.17637 2.29326e-19)
(1.46007 -6.98635 4.19934e-19)
(1.47898 -6.79314 0)
(1.49139 -6.59851 1.61703e-19)
(1.49834 -6.4047 -1.71635e-19)
(1.50092 -6.21387 1.03383e-20)
(1.50015 -6.02788 2.70467e-19)
(1.49695 -5.84813 2.31808e-19)
(1.49205 -5.67553 -3.27216e-19)
(1.48604 -5.51046 1.0776e-19)
(1.47949 -5.35267 -1.75413e-19)
(1.4734 -5.20104 1.74584e-19)
(1.46648 -5.05386 -8.41386e-20)
(1.92697 -9.23914 4.3421e-19)
(1.54136 -8.66892 0)
(1.56371 -8.26194 3.84174e-19)
(1.60027 -7.98035 0)
(1.63274 -7.7624 0)
(1.66824 -7.5685 -2.99767e-19)
(1.70033 -7.38032 -5.36231e-19)
(1.72507 -7.1902 -4.54543e-19)
(1.74179 -6.99603 1.84383e-20)
(1.75101 -6.79863 -1.96373e-19)
(1.75373 -6.60008 0)
(1.75117 -6.40281 -1.62108e-19)
(1.74455 -6.20909 -2.91989e-19)
(1.73498 -6.02078 2.56727e-19)
(1.72342 -5.83926 -7.29557e-19)
(1.71066 -5.66542 1.18067e-19)
(1.69726 -5.49962 9.35478e-20)
(1.68383 -5.34154 -1.92912e-19)
(1.6714 -5.18994 -8.42756e-20)
(1.6582 -5.04319 2.51296e-19)
(2.29183 -9.17318 4.18918e-19)
(1.8901 -8.64396 4.15336e-19)
(1.90061 -8.25378 0)
(1.92832 -7.98159 0)
(1.95277 -7.76793 -6.23145e-19)
(1.97996 -7.57438 3.40648e-19)
(2.00314 -7.38413 8.19485e-19)
(2.01838 -7.19067 0)
(2.02521 -6.99268 2.16488e-19)
(2.02437 -6.79148 1.96373e-19)
(2.01708 -6.58947 -3.46859e-19)
(2.00474 -6.38925 5.02993e-19)
(1.98869 -6.19313 1.47574e-19)
(1.97014 -6.00298 0)
(1.95012 -5.82017 1.22818e-19)
(1.9294 -5.64555 5.51227e-19)
(1.90857 -5.47943 -3.28463e-19)
(1.88826 -5.32145 3.68996e-19)
(1.86952 -5.17029 -7.01639e-19)
(1.85004 -5.0244 8.11141e-19)
(2.65454 -9.09314 4.26031e-19)
(2.2392 -8.60528 -2.25573e-18)
(2.23902 -8.23191 0)
(2.25844 -7.969 0)
(2.275 -7.75951 0)
(2.29376 -7.56632 -6.04406e-19)
(2.30773 -7.37412 0)
(2.31312 -7.17758 -9.68468e-19)
(2.30968 -6.97613 8.93236e-19)
(2.29844 -6.77157 -8.29511e-19)
(2.28084 -6.5666 0)
(2.25847 -6.36393 0)
(2.2328 -6.16593 0)
(2.20514 -5.97446 -2.80514e-19)
(2.17654 -5.79083 0)
(2.14782 -5.61587 0)
(2.11953 -5.44987 -4.11571e-19)
(2.09235 -5.2924 4.04382e-19)
(2.06737 -5.14207 0)
(2.04164 -4.9975 0)
(3.01456 -8.99901 -1.38601e-18)
(2.58812 -8.5527 8.98003e-19)
(2.57836 -8.1961 0)
(2.58999 -7.9423 0)
(2.5988 -7.73688 0)
(2.60897 -7.54406 5.74853e-19)
(2.61343 -7.35008 -5.76575e-19)
(2.60861 -7.15075 -8.85155e-21)
(2.59455 -6.94624 -8.94295e-19)
(2.57258 -6.7388 8.37301e-19)
(2.5444 -6.53138 -3.77665e-19)
(2.51178 -6.32681 6.56599e-19)
(2.47633 -6.12747 -4.63401e-20)
(2.43943 -5.93519 -5.93917e-19)
(2.40219 -5.75125 -5.00461e-19)
(2.36543 -5.57641 4.91688e-19)
(2.3297 -5.41094 0)
(2.29569 -5.2544 0)
(2.26454 -5.10527 3.55659e-19)
(2.23261 -4.96249 -3.91438e-19)
(3.37132 -8.89084 9.26356e-19)
(2.93629 -8.48611 8.82117e-19)
(2.91804 -8.14612 -1.67187e-18)
(2.92235 -7.90125 7.89675e-19)
(2.92348 -7.6998 0)
(2.92488 -7.50739 6.1513e-19)
(2.91954 -7.31183 -5.39891e-19)
(2.90416 -7.11005 1.52569e-18)
(2.87915 -6.90291 -2.36586e-20)
(2.84614 -6.6931 0)
(2.80714 -6.48378 7.61987e-19)
(2.76408 -6.27787 0)
(2.71873 -6.07775 0)
(2.67251 -5.8852 -2.71651e-19)
(2.62658 -5.70143 5.47923e-19)
(2.58176 -5.52717 0)
(2.53859 -5.36267 4.29647e-19)
(2.49781 -5.20744 1.78817e-19)
(2.46058 -5.05992 -3.88041e-19)
(2.42256 -4.91938 3.7677e-19)
(3.72427 -8.76867 -9.54043e-19)
(3.28313 -8.40538 8.96464e-19)
(3.25744 -8.08181 -2.55295e-18)
(3.25485 -7.84564 8.02739e-19)
(3.24836 -7.64808 0)
(3.24081 -7.45615 -1.24146e-18)
(3.22535 -7.25923 5.9637e-19)
(3.19908 -7.05537 0)
(3.16279 -6.84608 -4.73321e-19)
(3.11849 -6.63443 -8.20816e-19)
(3.06844 -6.42379 -7.15106e-19)
(3.0148 -6.21712 5.33702e-20)
(2.95943 -6.01679 6.68806e-19)
(2.90383 -5.82451 2.71428e-19)
(2.84918 -5.64142 -3.78723e-20)
(2.79631 -5.4682 -5.11104e-19)
(2.74574 -5.30509 -2.2857e-19)
(2.69826 -5.15158 -2.06048e-19)
(2.65506 -5.00605 5.49583e-19)
(2.61106 -4.86823 -8.19038e-19)
(4.07285 -8.6326 9.54045e-19)
(3.62803 -8.31045 -4.66172e-20)
(3.59592 -8.00301 8.20547e-19)
(3.58683 -7.77532 0)
(3.57273 -7.58154 -6.79166e-19)
(3.55603 -7.39019 1.30499e-18)
(3.53015 -7.1922 -1.11524e-18)
(3.49266 -6.98665 1.09747e-18)
(3.44481 -6.77571 -4.44552e-19)
(3.38897 -6.5628 9.02507e-19)
(3.3277 -6.35142 3.90771e-19)
(3.26334 -6.14459 0)
(3.19787 -5.94463 0)
(3.13286 -5.75316 -2.81441e-19)
(3.06949 -5.57126 3.82876e-20)
(3.00858 -5.39955 1.00645e-18)
(2.95065 -5.23825 -2.48999e-19)
(2.89654 -5.08684 8.22223e-19)
(2.84747 -4.94368 1.43839e-19)
(2.79765 -4.80906 -8.36517e-19)
(4.41651 -8.48274 -2.9354e-18)
(3.9704 -8.20128 -9.85128e-19)
(3.93283 -7.90962 -2.62667e-18)
(3.91758 -7.69016 -1.59768e-18)
(3.89587 -7.50008 -7.57767e-19)
(3.86981 -7.30943 -7.40604e-19)
(3.83323 -7.11066 -2.41705e-18)
(3.78422 -6.90387 -4.89941e-20)
(3.72452 -6.69181 -1.94167e-18)
(3.65693 -6.47821 3.02069e-20)
(3.58429 -6.26672 -8.05967e-19)
(3.50912 -6.06033 -7.3435e-19)
(3.43351 -5.86132 6.70293e-19)
(3.35907 -5.67122 -6.12936e-19)
(3.28699 -5.49101 -5.61498e-19)
(3.21806 -5.32127 -5.15283e-19)
(3.15282 -5.1622 -1.38342e-18)
(3.09215 -5.01328 4.92225e-19)
(3.03733 -4.87285 1.19428e-18)
(2.98185 -4.7419 -1.27113e-18)
(4.75469 -8.31922 3.94824e-18)
(4.30964 -8.07787 4.84943e-18)
(4.26752 -7.80158 8.32901e-19)
(4.24642 -7.59006 3.99031e-18)
(4.21706 -7.40362 -7.82008e-19)
(4.18143 -7.21382 3.90688e-18)
(4.13384 -7.0146 1.14267e-18)
(4.07303 -6.80703 3.20765e-18)
(4.00126 -6.59442 -9.80376e-19)
(3.92174 -6.38074 2.71414e-18)
(3.8376 -6.16974 1.62341e-18)
(3.75155 -5.96442 1.47931e-18)
(3.66577 -5.76694 -2.00256e-18)
(3.58191 -5.57876 1.87582e-18)
(3.50114 -5.40075 1.13166e-18)
(3.42425 -5.23343 1.03874e-18)
(3.35173 -5.07701 9.55066e-19)
(3.28457 -4.93095 7.34173e-21)
(3.22412 -4.79363 8.10609e-19)
(3.16319 -4.66681 8.43617e-19)
(5.08688 -8.14221 -2.93182e-18)
(4.64516 -7.94026 1.08037e-18)
(4.59934 -7.67884 2.67212e-18)
(4.57264 -7.47497 -3.25519e-18)
(4.53557 -7.29211 7.52182e-19)
(4.49014 -7.10335 -2.61374e-18)
(4.43129 -6.90405 1.28096e-18)
(4.35841 -6.6962 -2.1462e-18)
(4.27436 -6.4836 4.89561e-20)
(4.18276 -6.27047 1.18993e-20)
(4.08704 -6.06058 -1.64581e-18)
(3.99007 -5.85692 -7.44963e-19)
(3.89412 -5.66156 1.36968e-18)
(3.80085 -5.47584 8.72815e-21)
(3.71142 -5.30053 -3.71098e-20)
(3.62659 -5.13609 -1.0842e-18)
(3.54684 -4.98273 -4.81405e-19)
(3.47324 -4.8399 -2.70757e-20)
(3.40726 -4.70606 -8.44862e-19)
(3.34111 -4.5839 -4.26041e-19)
(5.41256 -7.95189 0)
(4.97636 -7.7885 -1.99614e-18)
(4.92763 -7.5414 2.36376e-20)
(4.89553 -7.34488 3.25045e-18)
(4.85068 -7.16558 1.3602e-18)
(4.79523 -6.97806 -1.41594e-18)
(4.72485 -6.77907 -1.21959e-18)
(4.63968 -6.57146 0)
(4.54318 -6.35947 -9.70518e-19)
(4.43939 -6.14749 9.26191e-19)
(4.33203 -5.93935 -3.89981e-20)
(4.22413 -5.73795 0)
(4.11802 -5.54527 -6.89523e-19)
(4.01537 -5.36253 5.97152e-19)
(3.91731 -5.1904 4.98782e-19)
(3.82454 -5.02928 -6.02283e-19)
(3.73756 -4.87935 -5.22425e-19)
(3.65751 -4.74011 9.07081e-19)
(3.58602 -4.61013 -8.37069e-19)
(3.51476 -4.49323 4.40605e-19)
(5.73127 -7.74844 3.02883e-18)
(5.30267 -7.62266 -2.05582e-18)
(5.25172 -7.38928 -1.75415e-18)
(5.21439 -7.19981 8.16596e-19)
(5.16165 -7.02406 -1.58428e-18)
(5.09596 -6.83803 0)
(5.01382 -6.63977 0)
(4.91617 -6.43294 0)
(4.80708 -6.22216 -4.43946e-20)
(4.69103 -6.01196 -1.85875e-18)
(4.57202 -5.80617 8.77818e-19)
(4.45321 -5.60761 7.42265e-19)
(4.33699 -5.41816 6.28001e-19)
(4.225 -5.2389 -2.57722e-18)
(4.11833 -5.07041 1.22177e-18)
(4.01764 -4.913 0)
(3.92338 -4.76686 -3.03519e-20)
(3.83677 -4.63153 -1.40693e-18)
(3.75957 -4.50575 -5.68118e-21)
(3.68318 -4.39447 -4.4109e-19)
(6.04266 -7.53214 -2.06022e-18)
(5.62356 -7.44288 -1.08384e-18)
(5.57094 -7.22256 8.16357e-19)
(5.52849 -7.03983 -1.43842e-19)
(5.46775 -6.86765 -4.61796e-18)
(5.39161 -6.68337 4.17884e-18)
(5.2975 -6.48629 -4.87774e-20)
(5.18721 -6.2808 1.14429e-18)
(5.06544 -6.07184 1.02659e-18)
(4.93711 -5.86405 9.42535e-19)
(4.80647 -5.6612 8.57626e-19)
(4.67682 -5.46605 1.53253e-18)
(4.55056 -5.28033 -7.37613e-19)
(4.42931 -5.10503 1.91169e-18)
(4.31409 -4.9406 -1.23585e-18)
(4.2055 -4.78731 -5.11151e-19)
(4.10394 -4.64536 2.05313e-18)
(4.01067 -4.51426 1.37157e-18)
(3.92765 -4.39284 -2.78844e-20)
(3.84633 -4.28692 0)
(6.34669 -7.30347 -1.04749e-18)
(5.9386 -7.24934 2.07117e-18)
(5.88462 -7.04128 1.81292e-18)
(5.8371 -6.865 -1.45811e-19)
(5.76824 -6.69643 -1.56679e-18)
(5.68145 -6.51422 7.05831e-20)
(5.57519 -6.31881 1.31195e-20)
(5.45215 -6.11525 1.16906e-20)
(5.31766 -5.90873 0)
(5.17708 -5.70394 9.21813e-19)
(5.03488 -5.50461 -1.7545e-18)
(4.89446 -5.31337 -7.50685e-19)
(4.75824 -5.13186 7.45233e-19)
(4.62778 -4.96093 -6.53813e-19)
(4.50405 -4.80098 6.05492e-19)
(4.38755 -4.65223 -5.51169e-19)
(4.27868 -4.5149 4.88676e-21)
(4.17883 -4.38835 -4.68187e-19)
(4.09025 -4.27131 -4.32471e-19)
(4.00477 -4.17144 -4.32758e-19)
(6.64371 -7.06291 0)
(6.24757 -7.04196 -1.00975e-18)
(6.19212 -6.84538 9.98158e-19)
(6.13946 -6.67538 1.74113e-18)
(6.06236 -6.51059 -1.5754e-18)
(5.96476 -6.33084 1.36074e-18)
(5.84622 -6.13763 -2.61634e-18)
(5.71038 -5.93658 -2.32307e-18)
(5.56321 -5.73311 -1.01329e-18)
(5.41047 -5.53191 4.43415e-20)
(5.25684 -5.33663 -8.3892e-19)
(5.10579 -5.14976 3.4853e-20)
(4.9597 -4.97279 0)
(4.82004 -4.80651 -1.28247e-18)
(4.68763 -4.65125 6.54508e-19)
(4.56287 -4.50727 0)
(4.4462 -4.37467 -5.12473e-19)
(4.33922 -4.25262 -9.21296e-19)
(4.24417 -4.14073 9.05266e-19)
(4.15351 -4.05159 4.46848e-19)
(6.93333 -6.80967 0)
(6.54982 -6.82004 0)
(6.49272 -6.63478 -1.85133e-18)
(6.43483 -6.47127 -1.59153e-18)
(6.34942 -6.31052 3.23038e-18)
(6.24091 -6.13364 0)
(6.11004 -5.94316 0)
(5.9614 -5.74524 1.16707e-18)
(5.80164 -5.54543 0)
(5.63691 -5.34839 0)
(5.47208 -5.15764 0)
(5.31067 -4.97551 0)
(5.15495 -4.80334 0)
(5.00625 -4.64178 0)
(4.86513 -4.4911 0)
(4.73171 -4.35145 0)
(4.60626 -4.2227 0)
(4.48984 -4.10419 0)
(4.38258 -3.99899 0)
(4.27837 -3.92432 0)
(10.0419 0.0877274 1.47024e-19)
(10.0215 -0.307601 2.86046e-19)
(9.98571 -0.700256 -2.93799e-19)
(9.93524 -1.0901 5.8578e-19)
(9.86979 -1.47678 -5.85779e-19)
(9.78921 -1.85981 -5.53501e-19)
(9.69361 -2.23864 -5.51959e-19)
(9.5832 -2.61272 1.73849e-18)
(9.45822 -2.98151 -1.15827e-18)
(9.31893 -3.34445 1.14858e-18)
(9.1656 -3.701 -1.14858e-18)
(8.99855 -4.05062 1.14011e-18)
(8.8181 -4.3928 -2.26098e-18)
(8.6246 -4.72703 3.3295e-18)
(8.41842 -5.05282 0)
(8.19995 -5.36973 -3.27124e-18)
(7.96959 -5.67734 1.62753e-20)
(7.72785 -5.97528 3.29683e-18)
(7.47484 -6.2634 0)
(7.21224 -6.54102 0)
(10.1163 -0.210755 0)
(10.0751 -0.606712 -1.50323e-20)
(10.0172 -0.998875 0)
(9.94313 -1.38691 5.60408e-19)
(9.85323 -1.77038 5.83634e-19)
(9.74766 -2.1487 -1.68912e-18)
(9.62674 -2.52122 2.94096e-18)
(9.49079 -2.88733 -1.16095e-18)
(9.34021 -3.24643 -1.10659e-18)
(9.17537 -3.59793 -1.10208e-18)
(8.9967 -3.94126 4.45485e-20)
(8.80463 -4.27588 1.12927e-18)
(8.59962 -4.60126 -5.61386e-18)
(8.38216 -4.91691 -1.17745e-18)
(8.15274 -5.22236 2.24327e-18)
(7.91186 -5.51719 2.24037e-18)
(7.66001 -5.801 1.13832e-18)
(7.39776 -6.07347 -2.19486e-18)
(7.1252 -6.33433 1.03935e-18)
(6.84328 -6.58324 0)
(10.0662 -0.149333 1.3235e-19)
(10.0284 -0.540788 -2.7104e-19)
(9.97336 -0.929075 7.82666e-19)
(9.90129 -1.3135 -5.54526e-19)
(9.81263 -1.69341 -5.2869e-19)
(9.70774 -2.0681 5.52022e-19)
(9.58699 -2.43684 0)
(9.45078 -2.79894 0)
(9.29953 -3.15373 2.09595e-18)
(9.13369 -3.50057 3.12679e-18)
(8.95373 -3.83884 -9.8886e-19)
(8.76015 -4.16796 3.09191e-18)
(8.55346 -4.48735 -9.84705e-19)
(8.3342 -4.79649 -3.01157e-18)
(8.10293 -5.09487 1.35622e-20)
(7.8602 -5.38202 1.93303e-18)
(7.60656 -5.65752 -8.72401e-19)
(7.34259 -5.92096 -1.90183e-18)
(7.06864 -6.17195 -1.02742e-18)
(6.78543 -6.40999 1.86916e-18)
(9.89885 -0.112683 0)
(9.8679 -0.494866 2.28464e-19)
(9.81969 -0.874709 2.27521e-19)
(9.75441 -1.25131 -9.34778e-19)
(9.67238 -1.62388 0)
(9.57394 -1.99164 0)
(9.45945 -2.35381 0)
(9.3293 -2.70967 0)
(9.18388 -3.05849 -9.89286e-19)
(9.02365 -3.39958 -9.85535e-19)
(8.84909 -3.73228 0)
(8.66069 -4.05596 1.86323e-18)
(8.45899 -4.36999 -4.60665e-18)
(8.24454 -4.6738 3.70424e-18)
(8.0179 -4.96685 -3.59031e-18)
(7.77966 -5.24861 -8.71196e-19)
(7.5304 -5.51859 1.56319e-19)
(7.27072 -5.77633 1.54731e-19)
(7.00115 -6.02135 -1.77445e-18)
(6.72243 -6.25318 -7.08674e-20)
(9.64509 -0.0992199 0)
(9.62153 -0.469153 -2.25316e-19)
(9.58114 -0.8374 0)
(9.52399 -1.20306 4.50756e-19)
(9.45032 -1.56529 4.29665e-19)
(9.36042 -1.92331 3.92773e-19)
(9.25459 -2.27633 0)
(9.13318 -2.62359 0)
(8.99655 -2.96435 0)
(8.84512 -3.2979 0)
(8.67934 -3.62354 8.11411e-19)
(8.49969 -3.9406 8.74287e-19)
(8.30667 -4.24844 8.69325e-19)
(8.10082 -4.54645 -8.82602e-19)
(7.88269 -4.83403 -1.5187e-18)
(7.65288 -5.11063 1.7243e-18)
(7.41196 -5.37571 3.34302e-18)
(7.16055 -5.62874 1.62603e-18)
(6.89924 -5.86923 0)
(6.62872 -6.09668 -1.53241e-18)
(9.33769 -0.0904111 4.63011e-20)
(9.32107 -0.446161 0)
(9.28825 -0.800794 -7.58775e-19)
(9.23924 -1.15346 1.8465e-23)
(9.17419 -1.50333 1.61488e-20)
(9.09333 -1.84962 -6.8432e-20)
(8.99693 -2.19156 0)
(8.88527 -2.52838 3.08877e-20)
(8.75868 -2.85936 -7.70308e-19)
(8.61753 -3.18376 1.50079e-18)
(8.46222 -3.50089 -1.56503e-18)
(8.29318 -3.81007 8.55098e-19)
(8.1109 -4.11064 -4.48154e-18)
(7.91588 -4.40197 2.95584e-18)
(7.70863 -4.68344 1.567e-18)
(7.48973 -4.95447 0)
(7.25974 -5.21449 -2.89219e-18)
(7.01927 -5.46294 -6.14744e-20)
(6.7689 -5.69931 -2.84827e-18)
(6.50928 -5.92305 2.96061e-18)
(9.00513 -0.0855768 4.1635e-20)
(8.99413 -0.426326 -8.72252e-20)
(8.96767 -0.766425 7.15184e-19)
(8.92571 -1.10508 -1.40509e-20)
(8.86836 -1.44149 7.15036e-19)
(8.7958 -1.7749 -1.08e-18)
(8.70824 -2.10455 0)
(8.60593 -2.42972 7.28075e-19)
(8.48915 -2.74968 6.66571e-19)
(8.35821 -3.06372 -7.24e-19)
(8.21349 -3.37116 1.3245e-18)
(8.05537 -3.67131 2.8082e-18)
(7.88428 -3.96354 -1.30587e-18)
(7.70069 -4.2472 -1.41565e-18)
(7.50509 -4.52167 1.35752e-18)
(7.29801 -4.78637 0)
(7.07999 -5.04069 6.48441e-20)
(6.8516 -5.28408 9.77312e-21)
(6.61342 -5.51599 2.69841e-18)
(6.36606 -5.73586 1.25442e-18)
(8.66855 -0.0843618 0)
(8.6616 -0.410157 6.24691e-21)
(8.63995 -0.735647 -1.455e-19)
(8.60357 -1.06008 -6.46245e-19)
(8.55251 -1.38272 6.07417e-19)
(8.48692 -1.70283 0)
(8.40697 -2.0197 1.23634e-18)
(8.31287 -2.33262 -1.35841e-21)
(8.20487 -2.6409 -1.8883e-18)
(8.08324 -2.94386 0)
(7.9483 -3.24084 -1.30342e-18)
(7.80041 -3.53119 4.5935e-20)
(7.63996 -3.81427 -3.6637e-18)
(7.46738 -4.08946 6.4527e-21)
(7.28312 -4.35615 1.22797e-18)
(7.08768 -4.61375 0)
(6.88157 -4.86167 -1.20528e-18)
(6.66534 -5.09934 8.6697e-21)
(6.43953 -5.32619 1.19661e-18)
(6.2047 -5.54167 -1.23445e-18)
(8.34176 -0.0854051 0)
(8.33743 -0.396828 1.49186e-19)
(8.31915 -0.708176 3.09539e-19)
(8.28689 -1.01875 -5.72906e-19)
(8.24068 -1.32785 -2.46855e-20)
(8.18064 -1.6348 -2.86321e-19)
(8.10691 -1.9389 -1.14618e-18)
(8.01968 -2.2395 5.69832e-19)
(7.91915 -2.53595 2.37789e-20)
(7.80557 -2.82759 5.66423e-19)
(7.67924 -3.1138 5.21389e-19)
(7.54046 -3.39395 2.25819e-18)
(7.3896 -3.66743 1.12955e-18)
(7.22707 -3.93366 2.231e-18)
(7.05327 -4.19205 -1.11258e-18)
(6.86869 -4.442 3.86124e-20)
(6.6738 -4.68296 -1.09945e-18)
(6.46913 -4.91434 0)
(6.2552 -5.1356 1.03922e-18)
(6.03252 -5.34613 0)
(8.03265 -0.0875855 6.49442e-20)
(8.02978 -0.385505 -1.90198e-19)
(8.01368 -0.683491 5.21694e-19)
(7.9843 -0.980891 -2.60261e-19)
(7.94168 -1.27705 1.89503e-20)
(7.8859 -1.57131 -2.60107e-19)
(7.8171 -1.86305 5.40774e-19)
(7.73543 -2.15164 -5.17524e-19)
(7.64107 -2.43646 5.17521e-19)
(7.53427 -2.7169 9.92532e-19)
(7.41526 -2.99237 -1.06961e-18)
(7.28436 -3.26228 -4.50271e-20)
(7.1419 -3.52606 -3.09596e-18)
(6.98823 -3.78314 5.36166e-21)
(6.82378 -4.03297 4.02063e-20)
(6.64898 -4.275 2.00702e-18)
(6.46431 -4.50866 -9.91399e-19)
(6.27026 -4.7334 -9.44281e-19)
(6.06735 -4.94866 -3.73999e-20)
(5.85606 -5.15383 0)
(7.74482 -0.0901601 0)
(7.74256 -0.375567 2.41593e-19)
(7.72774 -0.661114 -8.30671e-19)
(7.70028 -0.946188 -2.20364e-19)
(7.66022 -1.23017 4.9289e-19)
(7.60765 -1.51246 0)
(7.54268 -1.79245 0)
(7.46545 -2.06956 4.71105e-19)
(7.37612 -2.34321 -4.71102e-19)
(7.27492 -2.61282 3.96779e-19)
(7.16207 -2.87784 -4.68066e-19)
(7.03786 -3.13772 9.2821e-19)
(6.90259 -3.39192 -1.85182e-18)
(6.75663 -3.63993 1.84225e-18)
(6.60035 -3.88121 3.461e-20)
(6.43419 -4.11526 -9.47543e-19)
(6.25862 -4.34152 -9.01621e-19)
(6.07412 -4.55947 1.8367e-18)
(5.88122 -4.76854 8.5976e-19)
(5.68037 -4.96811 0)
(7.47906 -0.0926567 1.87393e-21)
(7.47685 -0.366548 1.58603e-19)
(7.46265 -0.640608 3.3301e-19)
(7.43642 -0.914257 2.33102e-19)
(7.39817 -1.18692 2.16216e-19)
(7.348 -1.45801 2.01117e-19)
(7.28599 -1.72698 0)
(7.21229 -1.99327 -8.31151e-19)
(7.12705 -2.25633 -4.28473e-19)
(7.03046 -2.51563 3.6547e-19)
(6.92275 -2.77066 0)
(6.80419 -3.02089 8.46274e-19)
(6.67506 -3.26584 -2.50287e-18)
(6.53571 -3.50502 8.4194e-19)
(6.38652 -3.73794 0)
(6.2279 -3.96414 -8.00489e-19)
(6.06033 -4.18309 -1.6168e-18)
(5.88431 -4.3943 7.95562e-19)
(5.70038 -4.59719 -2.91578e-20)
(5.509 -4.79113 0)
(7.23449 -0.0947766 3.45731e-21)
(7.23197 -0.358104 -1.02643e-19)
(7.21798 -0.621593 1.98074e-19)
(7.19249 -0.884698 -1.30935e-20)
(7.15552 -1.14687 3.95797e-19)
(7.10715 -1.40757 -6.07884e-19)
(7.04747 -1.66627 0)
(6.9766 -1.92244 5.59143e-20)
(6.8947 -2.17557 0)
(6.80194 -2.42517 -8.11452e-19)
(6.69855 -2.67073 0)
(6.58477 -2.9118 -7.48813e-19)
(6.46088 -3.14791 2.31444e-18)
(6.32721 -3.37863 -1.53365e-18)
(6.18414 -3.6035 7.64618e-19)
(6.03207 -3.82212 -6.76433e-19)
(5.8715 -4.03399 7.81448e-19)
(5.70294 -4.23868 -7.76101e-19)
(5.52702 -4.43557 0)
(5.34416 -4.62402 0)
(7.00934 -0.0963984 4.6965e-20)
(7.00632 -0.350011 0)
(6.9923 -0.603765 0)
(6.96724 -0.857144 -3.76291e-19)
(6.93119 -1.10963 -3.51176e-19)
(6.8842 -1.3607 0)
(6.82638 -1.60986 0)
(6.75784 -1.85661 4.97427e-20)
(6.67872 -2.10046 6.95431e-19)
(6.5892 -2.34096 -3.35367e-19)
(6.48948 -2.57764 -3.57326e-19)
(6.37979 -2.81006 1.44346e-18)
(6.26041 -3.03781 -2.1434e-18)
(6.13165 -3.26049 1.38214e-18)
(5.99387 -3.4777 0)
(5.84749 -3.6891 2.77675e-18)
(5.69304 -3.89422 -2.01599e-18)
(5.53102 -4.09273 6.8585e-19)
(5.36221 -4.28393 1.31161e-18)
(5.18702 -4.46726 0)
(6.80152 -0.0974567 -4.03737e-20)
(6.79789 -0.342106 0)
(6.78369 -0.586876 -5.20905e-21)
(6.75888 -0.831268 -3.231e-19)
(6.72351 -1.07478 1.0012e-18)
(6.67764 -1.31693 -1.66547e-19)
(6.62136 -1.55724 0)
(6.55478 -1.79523 1.32671e-18)
(6.47805 -2.03044 -6.83253e-19)
(6.39132 -2.26244 4.43811e-20)
(6.29478 -2.4908 6.33174e-19)
(6.18866 -2.71511 6.49019e-19)
(6.07322 -2.93499 -1.29425e-18)
(5.94874 -3.1501 -1.2659e-18)
(5.81559 -3.36006 -1.23646e-18)
(5.67417 -3.56465 -1.31582e-18)
(5.52505 -3.7634 1.30685e-18)
(5.36874 -3.95618 -6.23838e-19)
(5.20627 -4.14212 -6.64802e-19)
(5.03794 -4.32089 0)
(6.6088 -0.097931 3.96661e-20)
(6.60454 -0.334285 -1.48931e-19)
(6.59009 -0.570731 -1.54179e-19)
(6.56544 -0.806788 4.61654e-19)
(6.53062 -1.04198 -1.63953e-19)
(6.4857 -1.27584 -1.53246e-19)
(6.43077 -1.50792 0)
(6.36592 -1.73775 -6.29911e-19)
(6.2913 -1.96492 0)
(6.20705 -2.18899 6.25033e-19)
(6.11335 -2.40958 -1.20442e-18)
(6.01042 -2.6263 5.96201e-19)
(5.89849 -2.8388 -1.18874e-18)
(5.77782 -3.04678 1.22672e-18)
(5.64877 -3.24994 6.67726e-19)
(5.51172 -3.44813 0)
(5.36727 -3.64091 -5.76286e-19)
(5.21591 -3.82849 5.76287e-19)
(5.05908 -4.00966 0)
(4.89676 -4.18478 0)
(6.42906 -0.0979084 0)
(6.42419 -0.326526 1.46323e-19)
(6.40951 -0.555203 4.71076e-21)
(6.38499 -0.783481 -1.50876e-19)
(6.35068 -1.0109 -1.33036e-19)
(6.30663 -1.23703 -1.41243e-19)
(6.25294 -1.46141 5.45899e-19)
(6.1897 -1.68363 0)
(6.11703 -1.90327 0)
(6.03509 -2.11994 2.77426e-19)
(5.94404 -2.33325 2.94718e-19)
(5.84406 -2.54285 1.0666e-18)
(5.73537 -2.74844 -5.44982e-19)
(5.61822 -2.94974 5.4498e-19)
(5.49291 -3.14649 5.78561e-19)
(5.35977 -3.3387 3.38506e-20)
(5.21948 -3.5259 -1.06252e-18)
(5.07238 -3.70886 3.77359e-21)
(4.92062 -3.88568 5.25495e-19)
(4.76335 -4.05837 0)
(6.26041 -0.0973917 -3.27033e-20)
(6.255 -0.318796 3.27029e-20)
(6.24012 -0.540233 0)
(6.21577 -0.761257 1.23176e-19)
(6.18197 -0.981433 4.00123e-19)
(6.13879 -1.20033 -5.05697e-19)
(6.08632 -1.41754 -5.36364e-19)
(6.02465 -1.63264 0)
(5.9539 -1.84525 0)
(5.8742 -2.05499 0)
(5.78571 -2.2615 -9.90113e-19)
(5.6886 -2.46446 -6.39475e-20)
(5.58305 -2.66356 -5.0202e-19)
(5.46926 -2.8586 3.00999e-20)
(5.34751 -3.04934 -9.92784e-19)
(5.21804 -3.23592 1.51302e-18)
(5.08153 -3.41791 -1.43356e-18)
(4.93806 -3.59688 4.8664e-19)
(4.79087 -3.76987 9.32882e-19)
(4.63728 -3.94175 0)
(6.10113 -0.0960316 2.93798e-20)
(6.09529 -0.310896 0)
(6.08031 -0.525782 -1.20958e-19)
(6.05618 -0.740253 -2.49244e-19)
(6.02293 -0.953892 1.20806e-19)
(5.98064 -1.16629 9.64683e-19)
(5.92938 -1.37705 0)
(5.86924 -1.58578 -4.64602e-19)
(5.80034 -1.7921 -2.37628e-19)
(5.72279 -1.99567 -4.46406e-19)
(5.63675 -2.19614 -1.78593e-19)
(5.54234 -2.39321 -1.40937e-18)
(5.43974 -2.5866 -9.30256e-19)
(5.32908 -2.77611 9.56945e-19)
(5.21061 -2.96155 9.15955e-19)
(5.08434 -3.14315 -3.87633e-21)
(4.95107 -3.32057 2.98522e-20)
(4.81007 -3.49638 4.48381e-19)
(4.6664 -3.66679 -9.1665e-19)
(4.51337 -3.84165 0)
(5.94963 -0.0943591 -6.14389e-20)
(5.9435 -0.302962 3.02453e-20)
(5.92856 -0.511653 -1.20835e-19)
(5.9048 -0.720042 1.20779e-19)
(5.87225 -0.927737 -3.47372e-19)
(5.83095 -1.13435 -1.08167e-18)
(5.78097 -1.33949 0)
(5.72238 -1.5428 4.91592e-19)
(5.65527 -1.74392 -4.59642e-19)
(5.57975 -1.94251 9.73328e-19)
(5.49592 -2.13824 9.67539e-19)
(5.40389 -2.33081 1.42546e-18)
(5.3038 -2.51996 -9.24947e-19)
(5.19568 -2.70548 4.60717e-19)
(5.07977 -2.8872 -4.53077e-19)
(4.95572 -3.06531 4.531e-19)
(4.8246 -3.23957 0)
(4.68375 -3.41316 4.10198e-19)
(4.54215 -3.58195 -4.01395e-19)
(4.38474 -3.76799 0)
(7.13855 7.26052 0)
(7.41847 6.97078 0)
(7.68548 6.67146 1.0852e-18)
(7.94031 6.36307 2.01754e-20)
(8.18237 6.04532 -1.14821e-18)
(8.41101 5.71827 0)
(8.62581 5.38233 1.18483e-18)
(8.82644 5.03803 -2.23526e-18)
(9.0126 4.68594 -1.12962e-18)
(9.18397 4.32667 -1.14016e-18)
(9.34031 3.96086 1.14016e-18)
(9.48138 3.58916 -1.15221e-18)
(9.607 3.21225 5.74748e-19)
(9.71696 2.83085 5.48517e-19)
(9.81111 2.4456 5.50658e-19)
(9.88938 2.05718 -5.8444e-19)
(9.95176 1.66625 5.84441e-19)
(9.99832 1.27351 -2.93395e-19)
(10.029 0.879357 -1.39353e-19)
(10.0443 0.485146 7.3405e-20)
(7.41348 7.06695 0)
(7.69352 6.77764 -9.94222e-19)
(7.95977 6.47677 -2.12564e-18)
(8.21253 6.16502 3.14333e-18)
(8.45156 5.84271 -2.17983e-18)
(8.67636 5.5103 2.19046e-18)
(8.88643 5.16838 1.19094e-18)
(9.08137 4.81761 -3.3793e-18)
(9.2608 4.4587 1.10549e-18)
(9.42434 4.09235 2.19754e-18)
(9.5717 3.71929 1.08265e-18)
(9.70261 3.34027 1.0895e-18)
(9.81692 2.95609 -1.14975e-18)
(9.91441 2.56748 1.69295e-18)
(9.9948 2.17523 -2.34893e-18)
(10.058 1.7802 5.79774e-19)
(10.104 1.38319 -5.57089e-19)
(10.133 0.98503 0)
(10.1447 0.586247 1.51454e-20)
(10.1395 0.187819 0)
(7.26951 6.94135 -1.7505e-18)
(7.55231 6.66944 9.82848e-19)
(7.82256 6.38468 1.79763e-18)
(8.07983 6.08775 8.13678e-19)
(8.3237 5.77921 2.03825e-18)
(8.55363 5.45968 1.99577e-20)
(8.7691 5.12983 -1.02163e-18)
(8.96962 4.79034 -3.04449e-18)
(9.15475 4.44194 3.00566e-18)
(9.32405 4.08536 -3.08538e-18)
(9.47712 3.72132 -1.02789e-18)
(9.61367 3.3506 -2.05649e-18)
(9.73338 2.97402 0)
(9.83604 2.59233 0)
(9.92151 2.20645 0)
(9.98962 1.81727 -5.24176e-19)
(10.0402 1.42563 5.49018e-19)
(10.0733 1.03239 5.25865e-19)
(10.0886 0.638255 6.26382e-21)
(10.0864 0.244202 1.32074e-19)
(7.04181 6.68907 1.81808e-18)
(7.3213 6.4358 -1.65088e-18)
(7.58946 6.16942 -1.69404e-19)
(7.84555 5.89048 -1.70361e-19)
(8.08902 5.59955 4.29145e-18)
(8.31931 5.29723 -7.11892e-20)
(8.53589 4.98415 3.74252e-21)
(8.7382 4.66097 -2.71378e-18)
(8.92577 4.32836 1.7905e-18)
(9.09811 3.98702 0)
(9.25474 3.63771 9.60368e-19)
(9.39532 3.28129 9.67005e-19)
(9.51956 2.91851 0)
(9.62715 2.55022 0)
(9.71787 2.17723 0)
(9.79152 1.80036 0)
(9.84792 1.42043 -2.1679e-20)
(9.88694 1.0383 4.73447e-19)
(9.90847 0.65479 -2.27342e-19)
(9.91249 0.270842 0)
(6.77899 6.37439 1.53961e-18)
(7.0506 6.13896 0)
(7.312 5.89061 -4.53267e-18)
(7.56236 5.62975 -1.54495e-18)
(7.80106 5.35692 -1.62358e-18)
(8.02752 5.07267 -1.72112e-18)
(8.24117 4.77757 8.13153e-19)
(8.44147 4.47223 -8.54526e-19)
(8.62786 4.15728 2.37265e-18)
(8.79993 3.83341 -7.76716e-19)
(8.95722 3.50137 0)
(9.09926 3.1619 0)
(9.22566 2.81571 0)
(9.33613 2.46358 0)
(9.43043 2.10631 -1.22656e-18)
(9.50829 1.74471 4.21767e-19)
(9.5695 1.37959 -4.45548e-19)
(9.6139 1.01178 0)
(9.64135 0.642113 2.24211e-19)
(9.65179 0.27149 0)
(6.50397 6.04734 1.31688e-18)
(6.76536 5.82803 -4.79564e-20)
(7.01745 5.59622 2.76999e-18)
(7.25946 5.35224 1.38383e-18)
(7.49073 5.09655 0)
(7.71068 4.82966 -1.46954e-18)
(7.91875 4.5521 6.83995e-20)
(8.11438 4.26442 -1.49181e-18)
(8.29705 3.96722 2.06362e-18)
(8.4663 3.66114 3.27007e-20)
(8.62168 3.34681 2.80814e-20)
(8.76276 3.02487 -7.4437e-19)
(8.88911 2.69605 1.45983e-18)
(9.00042 2.36109 0)
(9.09643 2.02072 6.8468e-20)
(9.17683 1.67576 7.45299e-19)
(9.24136 1.32698 1.63247e-21)
(9.28983 0.975155 -1.5324e-20)
(9.32213 0.621091 0)
(9.3381 0.265619 -4.62049e-20)
(6.23803 5.73046 0)
(6.48808 5.52513 -4.88779e-20)
(6.72959 5.30781 1.75099e-20)
(6.96181 5.07881 -2.50369e-18)
(7.18409 4.83851 0)
(7.39587 4.58738 1.2662e-18)
(7.5966 4.3259 1.34875e-18)
(7.78575 4.05457 -3.92392e-18)
(7.96282 3.77395 -6.81711e-20)
(8.12734 3.4846 -1.25988e-18)
(8.27888 3.18711 6.93768e-19)
(8.41701 2.8821 -6.40795e-19)
(8.54133 2.57025 -7.045e-19)
(8.65147 2.25224 0)
(8.74719 1.92879 3.71692e-19)
(8.82828 1.60051 -1.68814e-20)
(8.89436 1.26825 -3.45015e-19)
(8.9452 0.932755 -1.67436e-20)
(8.9807 0.594763 -8.68491e-20)
(9.00069 0.255049 1.74071e-19)
(5.99232 5.43531 0)
(6.23079 5.24182 1.08249e-18)
(6.46132 5.03693 1.61244e-20)
(6.68318 4.82087 -1.09858e-18)
(6.89577 4.59401 0)
(7.09855 4.35676 1.14288e-18)
(7.29099 4.10956 -1.09113e-18)
(7.47259 3.85287 -1.208e-18)
(7.64289 3.58719 2.29761e-18)
(7.80142 3.31305 1.23985e-18)
(7.94778 3.03101 0)
(8.08155 2.74165 6.0471e-19)
(8.20236 2.44559 -4.37517e-21)
(8.30989 2.14348 2.18343e-20)
(8.40373 1.83599 0)
(8.48373 1.52373 -5.95188e-19)
(8.54975 1.20733 -3.11832e-19)
(8.60136 0.887599 4.55593e-19)
(8.63845 0.56526 3.07178e-19)
(8.66085 0.241021 -4.10619e-20)
(5.77051 5.16681 0)
(5.99773 4.98331 -9.34781e-19)
(6.21745 4.78897 0)
(6.42902 4.58402 -1.00857e-18)
(6.63184 4.36877 1.98561e-18)
(6.82541 4.14359 -2.02497e-18)
(7.00924 3.90889 3.1688e-18)
(7.18286 3.66509 -3.15961e-18)
(7.34583 3.41266 -2.13473e-18)
(7.49773 3.1521 -1.57443e-18)
(7.63815 2.88392 5.39915e-19)
(7.76672 2.60869 -1.11937e-18)
(7.88308 2.32698 1.862e-20)
(7.98692 2.03938 1.11269e-18)
(8.07794 1.74649 -2.79924e-19)
(8.15576 1.44902 1.14674e-18)
(8.2203 1.14747 -5.63993e-19)
(8.27139 0.842546 2.59826e-19)
(8.30876 0.534973 -1.48199e-19)
(8.33222 0.225421 0)
(5.57234 4.92535 0)
(5.78894 4.75032 1.80836e-18)
(5.99841 4.565 8.77104e-19)
(6.2001 4.3696 -9.02901e-19)
(6.39347 4.16439 -1.84958e-18)
(6.57803 3.9497 2.81448e-18)
(6.75336 3.72591 1.12535e-20)
(6.919 3.49343 -9.17322e-19)
(7.07455 3.25268 1.96951e-18)
(7.21961 3.00414 1.01721e-18)
(7.35381 2.7483 -9.50252e-19)
(7.47679 2.4857 4.98991e-19)
(7.58823 2.21686 2.24965e-20)
(7.6878 1.94235 -5.25084e-19)
(7.77525 1.66275 -2.54433e-19)
(7.85026 1.37863 5.10172e-19)
(7.91262 1.0907 -2.55739e-19)
(7.96222 0.799436 -5.16076e-19)
(7.99888 0.505535 5.97966e-20)
(8.02237 0.209638 6.46654e-20)
(5.39561 4.7089 0)