/*--------------------------------*- C++ -*----------------------------------*\
  =========                 |
  \\      /  F ield         | OpenFOAM: The Open Source CFD Toolbox
   \\    /   O peration     | Website:  https://openfoam.org
    \\  /    A nd           | Version:  6.0
     \\/     M anipulation  |
\*---------------------------------------------------------------------------*/
FoamFile
{
    version     2.0;
    format      ascii;
    class       volScalarField;
    location    "17.75";
    object      p;
}
// * * * * * * * * * * * * * * * * * * * * * * * * * * * * * * * * * * * * * //

dimensions      [0 2 -2 0 0 0 0];

internalField   nonuniform List<scalar> 
19200
(
-7.27545
-6.4088
-5.81552
-5.35423
-4.9477
-4.59018
-4.27405
-3.99079
-3.7344
-3.50057
-3.28597
-3.08801
-2.90465
-2.73425
-2.57545
-2.42715
-2.28841
-2.15841
-2.03646
-1.92196
-1.81435
-1.71316
-1.61796
-1.52836
-1.444
-1.36457
-1.28979
-1.21938
-1.15309
-1.09084
-7.45395
-6.58665
-5.99112
-5.52636
-5.1157
-4.75363
-4.43272
-4.14455
-3.88322
-3.64448
-3.42505
-3.22239
-3.03447
-2.85967
-2.69664
-2.54429
-2.40167
-2.26797
-2.14251
-2.02466
-1.91388
-1.80968
-1.71163
-1.61932
-1.5324
-1.45054
-1.37347
-1.30088
-1.23244
-1.16845
-7.63704
-6.76757
-6.16922
-5.7008
-5.28584
-4.91909
-4.59325
-4.30005
-4.03365
-3.78989
-3.56553
-3.35806
-3.16548
-2.98618
-2.81883
-2.66234
-2.51577
-2.37832
-2.24927
-2.12802
-2.01402
-1.90676
-1.80581
-1.71075
-1.62123
-1.53692
-1.45753
-1.38271
-1.31211
-1.24635
-7.82305
-6.95111
-6.34966
-5.87739
-5.45798
-5.0864
-4.7555
-4.45713
-4.18555
-3.93664
-3.70724
-3.49485
-3.29751
-3.11361
-2.94186
-2.78116
-2.63056
-2.48928
-2.3566
-2.23189
-2.11461
-2.00425
-1.90036
-1.80253
-1.71037
-1.62357
-1.54183
-1.46475
-1.39195
-1.32443
-8.01157
-7.13701
-6.53225
-6.05596
-5.63194
-5.25537
-4.91928
-4.61562
-4.33873
-4.08456
-3.85
-3.63259
-3.43039
-3.24181
-3.06557
-2.90057
-2.74589
-2.60071
-2.46433
-2.33612
-2.21552
-2.10202
-1.99515
-1.8945
-1.79969
-1.71037
-1.62625
-1.54689
-1.47188
-1.40257
-8.20229
-7.32502
-6.71679
-6.23631
-5.80754
-5.42586
-5.08444
-4.77534
-4.49302
-4.23348
-3.99365
-3.77112
-3.56396
-3.37061
-3.1898
-3.02044
-2.86159
-2.71246
-2.57233
-2.44057
-2.31661
-2.19992
-2.09005
-1.98656
-1.88906
-1.7972
-1.71068
-1.62902
-1.55176
-1.48068
-8.39493
-7.5149
-6.90307
-6.41826
-5.9846
-5.59766
-5.25078
-4.93614
-4.64826
-4.38323
-4.13802
-3.91026
-3.69805
-3.49985
-3.31439
-3.14059
-2.97752
-2.82438
-2.68045
-2.54509
-2.41773
-2.29783
-2.18492
-2.07856
-1.97835
-1.88393
-1.79499
-1.71101
-1.63149
-1.55864
-8.58927
-7.70642
-7.09089
-6.60162
-6.16293
-5.77061
-5.41814
-5.09781
-4.80426
-4.53362
-4.28293
-4.04984
-3.83249
-3.62935
-3.43917
-3.26086
-3.09351
-2.93631
-2.78854
-2.64954
-2.51874
-2.39561
-2.27964
-2.17039
-2.06745
-1.97046
-1.87908
-1.79276
-1.71098
-1.63636
-8.78507
-7.89935
-7.28002
-6.78619
-6.34234
-5.9445
-5.58631
-5.26019
-4.96084
-4.68449
-4.4282
-4.18969
-3.96711
-3.75895
-3.56397
-3.3811
-3.20941
-3.0481
-2.89644
-2.75378
-2.61952
-2.49311
-2.37406
-2.26191
-2.15623
-2.05665
-1.96283
-1.87417
-1.79011
-1.71374
-8.9821
-8.09348
-7.47027
-6.97175
-6.52263
-6.11915
-5.75511
-5.42307
-5.11781
-4.83563
-4.57366
-4.32963
-4.10173
-3.88847
-3.68863
-3.50113
-3.32506
-3.15959
-3.00401
-2.85765
-2.7199
-2.59021
-2.46807
-2.353
-2.24457
-2.14241
-2.04614
-1.95513
-1.86879
-1.79068
-9.18014
-8.28859
-7.66141
-7.1581
-6.70359
-6.29435
-5.92435
-5.58626
-5.27498
-4.98687
-4.71911
-4.46947
-4.23617
-4.01775
-3.81298
-3.6208
-3.4403
-3.27064
-3.11111
-2.96102
-2.81977
-2.68678
-2.56154
-2.44355
-2.33237
-2.22761
-2.1289
-2.03554
-1.94692
-1.86709
-9.37899
-8.48446
-7.85323
-7.34503
-6.88502
-6.4699
-6.09382
-5.74958
-5.43217
-5.13802
-4.86437
-4.60904
-4.37027
-4.14662
-3.93686
-3.73995
-3.55497
-3.38109
-3.21758
-3.06375
-2.91898
-2.78268
-2.65433
-2.53343
-2.4195
-2.31216
-2.21101
-2.1153
-2.0244
-1.94288
-9.5784
-8.68087
-8.04553
-7.53234
-7.06672
-6.6456
-6.26333
-5.91282
-5.58917
-5.28889
-5.00926
-4.74816
-4.50384
-4.27489
-4.0601
-3.85841
-3.66892
-3.49079
-3.32328
-3.16569
-3.01739
-2.87779
-2.74634
-2.62251
-2.50584
-2.39593
-2.29236
-2.19431
-2.10116
-2.01797
-9.77817
-8.87761
-8.23809
-7.71981
-7.24848
-6.82126
-6.43268
-6.07579
-5.7458
-5.43929
-5.1536
-4.88665
-4.63672
-4.40241
-4.18253
-3.97603
-3.78199
-3.59959
-3.42806
-3.26671
-3.11488
-2.97197
-2.83742
-2.71069
-2.59129
-2.47882
-2.37284
-2.27248
-2.17707
-2.09226
-9.97808
-9.07447
-8.43069
-7.90724
-7.43009
-6.99665
-6.60166
-6.23829
-5.90186
-5.58903
-5.2972
-5.02432
-4.76872
-4.529
-4.30399
-4.09264
-3.89404
-3.70734
-3.53178
-3.36666
-3.2113
-3.06509
-2.92745
-2.79783
-2.67573
-2.56072
-2.45235
-2.34969
-2.25206
-2.16566
-10.1779
-9.27123
-8.62313
-8.09442
-7.61134
-7.17159
-6.77008
-6.40014
-6.05717
-5.73793
-5.43989
-5.16102
-4.89968
-4.65451
-4.42432
-4.2081
-4.0049
-3.8139
-3.63431
-3.46541
-3.30653
-3.15703
-3.01631
-2.88382
-2.75903
-2.6415
-2.53078
-2.42586
-2.32602
-2.23808
-10.3775
-9.46769
-8.8152
-8.28114
-7.79204
-7.34587
-6.93774
-6.56112
-6.21153
-5.88581
-5.58147
-5.29655
-5.02943
-4.77876
-4.54337
-4.32224
-4.11444
-3.91912
-3.73549
-3.56282
-3.40042
-3.24764
-3.10387
-2.96853
-2.84107
-2.72106
-2.60801
-2.50085
-2.39884
-2.3094
-10.5765
-9.66363
-9.00669
-8.46719
-7.97198
-7.51929
-7.10444
-6.72105
-6.36476
-6.03247
-5.72178
-5.43075
-5.1578
-4.90159
-4.66098
-4.43493
-4.22251
-4.02286
-3.83519
-3.65876
-3.49285
-3.33681
-3.19
-3.05182
-2.92173
-2.79926
-2.68391
-2.57455
-2.47039
-2.37951
-10.7749
-9.85886
-9.19741
-8.65238
-8.15096
-7.69166
-7.26999
-6.87975
-6.51667
-6.17775
-5.86064
-5.56346
-5.28463
-5.02287
-4.777
-4.54601
-4.32896
-4.12499
-3.93329
-3.75309
-3.58369
-3.42439
-3.27456
-3.13357
-3.00087
-2.87597
-2.75835
-2.64682
-2.54054
-2.44828
-10.9723
-10.0532
-9.38715
-8.83651
-8.32878
-7.86276
-7.4342
-7.03702
-6.66708
-6.32147
-5.99789
-5.69451
-5.40978
-5.14243
-4.89129
-4.65536
-4.43367
-4.22538
-4.02964
-3.84569
-3.6728
-3.51026
-3.35742
-3.21364
-3.07834
-2.95103
-2.83119
-2.71751
-2.60914
-2.51553
-11.1688
-10.2464
-9.57574
-9.01938
-8.50524
-8.03242
-7.59687
-7.19268
-6.81582
-6.46346
-6.13337
-5.82375
-5.5331
-5.26013
-5.00372
-4.76283
-4.53652
-4.3239
-4.12414
-3.93644
-3.76007
-3.5943
-3.43845
-3.29189
-3.15401
-3.02431
-2.90224
-2.78644
-2.67599
-2.58107
-11.364
-10.4384
-9.76296
-9.20079
-8.68015
-8.20044
-7.75782
-7.34654
-6.9627
-6.60354
-6.26691
-5.95103
-5.65443
-5.37586
-5.11417
-4.86833
-4.63739
-4.42045
-4.21667
-4.02523
-3.84538
-3.67638
-3.51754
-3.36819
-3.22772
-3.09563
-2.97135
-2.85342
-2.74087
-2.64467
-11.5579
-10.6289
-9.94866
-9.38056
-8.8533
-8.36661
-7.91685
-7.49843
-7.10756
-6.74157
-6.39836
-6.07621
-5.77367
-5.48948
-5.22251
-4.97173
-4.73618
-4.51493
-4.30714
-4.11197
-3.92864
-3.75641
-3.59456
-3.44241
-3.29934
-3.16483
-3.03831
-2.91825
-2.80355
-2.70603
-11.7503
-10.8179
-10.1326
-9.55848
-9.02451
-8.53075
-8.07378
-7.64817
-7.25023
-6.87739
-6.52759
-6.19916
-5.89067
-5.60087
-5.32865
-5.07295
-4.8328
-4.60727
-4.39548
-4.19658
-4.00978
-3.83431
-3.66943
-3.51445
-3.36874
-3.23176
-3.10295
-2.98067
-2.86374
-2.76483
-11.9414
-11.0052
-10.3147
-9.73434
-9.19355
-8.69265
-8.22843
-7.79558
-7.39055
-7.01084
-6.65445
-6.31975
-6.00533
-5.70996
-5.4325
-5.17191
-4.92719
-4.6974
-4.48163
-4.27903
-4.08876
-3.91003
-3.7421
-3.58425
-3.43583
-3.2963
-3.16509
-3.04047
-2.92111
-2.82068
-12.1309
-11.1905
-10.4946
-9.90791
-9.36022
-8.85212
-8.38059
-7.94049
-7.52836
-7.14177
-6.77881
-6.43786
-6.11755
-5.81663
-5.53398
-5.26854
-5.0193
-4.78529
-4.56559
-4.35929
-4.16556
-3.98359
-3.81258
-3.65181
-3.5006
-3.35839
-3.22462
-3.09747
-2.97539
-2.87301
-12.3191
-11.3737
-10.6721
-10.079
-9.52427
-9.00892
-8.53007
-8.08271
-7.66349
-7.27006
-6.90055
-6.55339
-6.22723
-5.92082
-5.63304
-5.36281
-5.1091
-4.87093
-4.64734
-4.43741
-4.24026
-4.05504
-3.88096
-3.71723
-3.56315
-3.41815
-3.28166
-3.15174
-3.02644
-2.92126
-12.5072
-11.5548
-10.8468
-10.2471
-9.68541
-9.1628
-8.67665
-8.22206
-7.79577
-7.39554
-7.01953
-6.66622
-6.33426
-6.02244
-5.7296
-5.45466
-5.19657
-4.95431
-4.72691
-4.51342
-4.31291
-4.12451
-3.94737
-3.78068
-3.62366
-3.47574
-3.33632
-3.2032
-3.07376
-2.96506
-12.6962
-11.7337
-11.0183
-10.4119
-9.84327
-9.3135
-8.82011
-8.35834
-7.92505
-7.51807
-7.13563
-6.77624
-6.43857
-6.1214
-5.8236
-5.54404
-5.28167
-5.03544
-4.80435
-4.5874
-4.38366
-4.19219
-4.01211
-3.84252
-3.68259
-3.53162
-3.38874
-3.25122
-3.11609
-3.00386
-12.8787
-11.9072
-11.1854
-10.573
-9.99774
-9.461
-8.96048
-8.4916
-8.05136
-7.63769
-7.24888
-6.88348
-6.54018
-6.21777
-5.91509
-5.63103
-5.36448
-5.1144
-4.87974
-4.6595
-4.4527
-4.25839
-4.07564
-3.90355
-3.74121
-3.58776
-3.44181
-3.3004
-3.16183
-3.04482
-15.9056
-15.887
-15.8591
-15.8267
-15.7891
-15.7456
-15.6961
-15.6404
-15.5785
-15.5106
-15.4365
-15.3565
-15.2705
-15.1786
-15.081
-14.9777
-14.8689
-14.7548
-14.6353
-14.5108
-14.3814
-14.2471
-14.1082
-13.9649
-13.8173
-13.6658
-13.5105
-13.3519
-13.1907
-13.0295
-14.8695
-14.8558
-14.8336
-14.8051
-14.7704
-14.7293
-14.682
-14.6284
-14.5687
-14.5028
-14.431
-14.3531
-14.2694
-14.1799
-14.0846
-13.9839
-13.8776
-13.766
-13.6493
-13.5274
-13.4007
-13.2692
-13.1332
-12.9927
-12.848
-12.6993
-12.5469
-12.391
-12.232
-12.0703
-14.0293
-14.0193
-14.0017
-13.9772
-13.9462
-13.9088
-13.8651
-13.8152
-13.7592
-13.6971
-13.6291
-13.5551
-13.4753
-13.3898
-13.2987
-13.2021
-13.1001
-12.9928
-12.8804
-12.763
-12.6407
-12.5137
-12.3821
-12.2462
-12.106
-11.9618
-11.8137
-11.662
-11.5067
-11.3479
-13.2675
-13.2609
-13.2473
-13.227
-13.2002
-13.1671
-13.1278
-13.0823
-13.0309
-12.9734
-12.9101
-12.841
-12.7661
-12.6856
-12.5997
-12.5082
-12.4115
-12.3096
-12.2026
-12.0907
-11.9739
-11.8525
-11.7266
-11.5962
-11.4617
-11.323
-11.1805
-11.0341
-10.8841
-10.7304
-12.5282
-12.5249
-12.5151
-12.4989
-12.4764
-12.4478
-12.4131
-12.3724
-12.3257
-12.2733
-12.2151
-12.1512
-12.0817
-12.0067
-11.9263
-11.8406
-11.7497
-11.6537
-11.5527
-11.4469
-11.3363
-11.221
-11.1013
-10.9773
-10.849
-10.7167
-10.5804
-10.4403
-10.2965
-10.149
-11.823
-11.8228
-11.8166
-11.8043
-11.7859
-11.7615
-11.7313
-11.6952
-11.6534
-11.606
-11.5529
-11.4943
-11.4303
-11.3609
-11.2862
-11.2064
-11.1215
-11.0315
-10.9368
-10.8372
-10.733
-10.6243
-10.5111
-10.3937
-10.272
-10.1464
-10.0168
-9.88335
-9.7462
-9.60544
-11.1568
-11.1595
-11.1565
-11.1476
-11.1329
-11.1125
-11.0864
-11.0547
-11.0174
-10.9747
-10.9266
-10.8731
-10.8144
-10.7504
-10.6814
-10.6073
-10.5283
-10.4444
-10.3558
-10.2625
-10.1647
-10.0624
-9.95584
-9.84504
-9.73014
-9.61124
-9.48846
-9.3619
-9.23166
-9.09786
-10.53
-10.5351
-10.5348
-10.5289
-10.5174
-10.5005
-10.4781
-10.4504
-10.4173
-10.379
-10.3354
-10.2867
-10.2329
-10.1741
-10.1104
-10.0418
-9.96838
-9.8903
-9.80761
-9.7204
-9.62878
-9.53283
-9.43267
-9.32839
-9.22009
-9.10787
-8.99185
-8.87212
-8.74877
-8.62193
-9.94251
-9.94957
-9.95146
-9.94805
-9.93935
-9.92542
-9.9063
-9.88204
-9.85267
-9.81825
-9.77883
-9.73447
-9.68522
-9.63114
-9.57232
-9.50881
-9.44069
-9.36804
-9.29094
-9.20947
-9.12373
-9.03379
-8.93976
-8.84173
-8.73979
-8.63403
-8.52456
-8.41146
-8.29484
-8.1748
-9.39392
-9.40247
-9.40612
-9.40472
-9.39829
-9.38688
-9.37052
-9.34924
-9.32309
-9.29211
-9.25635
-9.21585
-9.17067
-9.12087
-9.0665
-9.00765
-8.94436
-8.87672
-8.80479
-8.72866
-8.6484
-8.5641
-8.47583
-8.3837
-8.28778
-8.18816
-8.08493
-7.97818
-7.868
-7.7545
-8.8831
-8.89274
-8.89771
-8.89787
-8.89326
-8.88391
-8.86984
-8.85108
-8.82767
-8.79966
-8.76707
-8.72996
-8.68838
-8.64238
-8.59201
-8.53734
-8.47842
-8.41533
-8.34813
-8.27689
-8.20169
-8.12259
-8.03968
-7.95304
-7.86275
-7.76888
-7.67153
-7.57077
-7.46669
-7.35939
-8.40847
-8.41882
-8.42473
-8.42608
-8.42287
-8.41515
-8.40295
-8.38628
-8.36517
-8.33967
-8.30981
-8.27564
-8.2372
-8.19454
-8.14771
-8.09676
-8.04176
-7.98276
-7.91983
-7.85304
-7.78244
-7.70811
-7.63012
-7.54854
-7.46346
-7.37493
-7.28305
-7.18789
-7.08953
-6.98806
-7.96812
-7.97888
-7.98541
-7.98758
-7.98543
-7.97898
-7.96826
-7.95329
-7.93409
-7.9107
-7.88316
-7.8515
-7.81578
-7.77603
-7.7323
-7.68464
-7.63312
-7.57777
-7.51867
-7.45588
-7.38944
-7.31944
-7.24594
-7.169
-7.08869
-7.00509
-6.91827
-6.8283
-6.73525
-6.63922
-7.55995
-7.57086
-7.57773
-7.58046
-7.57906
-7.57357
-7.564
-7.55039
-7.53275
-7.51111
-7.48552
-7.456
-7.42261
-7.38537
-7.34435
-7.29958
-7.25112
-7.19902
-7.14334
-7.08412
-7.02144
-6.95535
-6.88591
-6.81318
-6.73724
-6.65815
-6.57598
-6.49079
-6.40265
-6.31166
-7.18175
-7.1926
-7.1996
-7.20265
-7.20176
-7.19696
-7.18828
-7.17573
-7.15935
-7.13916
-7.11519
-7.08749
-7.05608
-7.02102
-6.98235
-6.9401
-6.89434
-6.8451
-6.79245
-6.73643
-6.67711
-6.61453
-6.54876
-6.47985
-6.40788
-6.3329
-6.25497
-6.17417
-6.09055
-6.00421
-6.8313
-6.84195
-6.8489
-6.85208
-6.85149
-6.84718
-6.83916
-6.82744
-6.81206
-6.79305
-6.77044
-6.74426
-6.71455
-6.68136
-6.64471
-6.60467
-6.56127
-6.51456
-6.46459
-6.41142
-6.3551
-6.29567
-6.23321
-6.16775
-6.09937
-6.02812
-5.95407
-5.87728
-5.79781
-5.71574
-6.50644
-6.51676
-6.52353
-6.52669
-6.52626
-6.52226
-6.51471
-6.50363
-6.48905
-6.471
-6.44951
-6.42461
-6.39634
-6.36475
-6.32987
-6.29174
-6.25041
-6.20593
-6.15835
-6.10771
-6.05406
-5.99746
-5.93797
-5.87562
-5.81049
-5.74263
-5.6721
-5.59896
-5.52328
-5.44514
-6.20506
-6.21497
-6.22147
-6.22451
-6.2241
-6.22028
-6.21306
-6.20246
-6.18851
-6.17124
-6.15068
-6.12686
-6.09982
-6.0696
-6.03625
-5.99979
-5.96028
-5.91777
-5.87229
-5.82391
-5.77265
-5.71859
-5.66176
-5.60222
-5.54003
-5.47523
-5.4079
-5.33809
-5.26587
-5.19132
-5.9252
-5.93464
-5.94081
-5.94364
-5.94318
-5.93943
-5.93242
-5.92218
-5.90872
-5.89208
-5.87229
-5.84938
-5.82339
-5.79436
-5.76233
-5.72734
-5.68944
-5.64866
-5.60506
-5.55868
-5.50957
-5.45777
-5.40334
-5.34633
-5.28679
-5.22478
-5.16035
-5.09356
-5.0245
-4.95324
-5.66502
-5.67396
-5.67974
-5.68232
-5.68173
-5.67798
-5.6711
-5.66112
-5.64804
-5.63192
-5.61277
-5.59063
-5.56554
-5.53754
-5.50667
-5.47296
-5.43647
-5.39724
-5.3553
-5.31072
-5.26352
-5.21377
-5.16151
-5.10678
-5.04964
-4.99014
-4.92834
-4.86431
-4.79811
-4.72985
-5.42281
-5.43124
-5.43661
-5.43891
-5.43814
-5.43434
-5.42752
-5.41772
-5.40494
-5.38924
-5.37063
-5.34915
-5.32484
-5.29773
-5.26787
-5.2353
-5.20007
-5.1622
-5.12176
-5.07878
-5.03331
-4.9854
-4.9351
-4.88244
-4.82747
-4.77025
-4.71084
-4.6493
-4.5857
-4.52017
-5.19703
-5.20493
-5.20989
-5.21187
-5.2109
-5.20701
-5.20021
-5.19053
-5.178
-5.16263
-5.14448
-5.12357
-5.09993
-5.07361
-5.04465
-5.01309
-4.97897
-4.94233
-4.90323
-4.8617
-4.81779
-4.77154
-4.723
-4.67222
-4.61923
-4.56408
-4.50683
-4.44755
-4.3863
-4.32325
-4.98625
-4.99363
-4.99817
-4.99984
-4.99865
-4.99464
-4.98783
-4.97823
-4.96588
-4.95081
-4.93304
-4.91262
-4.88957
-4.86395
-4.83578
-4.80512
-4.772
-4.73647
-4.69857
-4.65835
-4.61585
-4.57111
-4.52419
-4.47511
-4.42392
-4.37066
-4.31537
-4.25813
-4.19899
-4.13818
-4.78918
-4.79606
-4.80019
-4.80154
-4.80013
-4.79599
-4.78914
-4.7796
-4.76739
-4.75256
-4.73513
-4.71514
-4.69262
-4.66761
-4.64016
-4.6103
-4.57808
-4.54355
-4.50674
-4.46771
-4.42649
-4.38313
-4.33767
-4.29015
-4.24061
-4.18907
-4.13558
-4.08018
-4.02292
-3.96411
-4.60466
-4.61107
-4.6148
-4.61584
-4.6142
-4.60992
-4.60302
-4.59351
-4.58143
-4.5668
-4.54966
-4.53005
-4.508
-4.48355
-4.45674
-4.42761
-4.39621
-4.36258
-4.32676
-4.28881
-4.24876
-4.20666
-4.16255
-4.11646
-4.06843
-4.01848
-3.96662
-3.9129
-3.85729
-3.80028
-4.43164
-4.43759
-4.44093
-4.44166
-4.4398
-4.43538
-4.4284
-4.41891
-4.40692
-4.39247
-4.37559
-4.35631
-4.33467
-4.31071
-4.28448
-4.25601
-4.22534
-4.19253
-4.15762
-4.12065
-4.08167
-4.04072
-3.99785
-3.95308
-3.90644
-3.85795
-3.80759
-3.7554
-3.70121
-3.64588
-4.2692
-4.2747
-4.27767
-4.27809
-4.276
-4.27142
-4.26437
-4.25486
-4.24294
-4.22862
-4.21195
-4.19296
-4.17168
-4.14815
-4.12242
-4.09453
-4.06452
-4.03244
-3.99833
-3.96224
-3.92421
-3.88429
-3.84253
-3.79895
-3.75358
-3.70642
-3.65744
-3.60661
-3.55358
-3.49986
-4.11648
-4.12162
-4.12429
-4.12449
-4.12224
-4.11756
-4.11047
-4.101
-4.08917
-4.07502
-4.05858
-4.03987
-4.01895
-3.99584
-3.9706
-3.94325
-3.91386
-3.88246
-3.84909
-3.81382
-3.77668
-3.73772
-3.69698
-3.65451
-3.61032
-3.56442
-3.51675
-3.4672
-3.41502
-3.36258
-3.97259
-3.97755
-3.9801
-3.98025
-3.97801
-3.9734
-3.96645
-3.95718
-3.94562
-3.93181
-3.91576
-3.89752
-3.87713
-3.85462
-3.83004
-3.80342
-3.77483
-3.74429
-3.71187
-3.6776
-3.64154
-3.60374
-3.56425
-3.52311
-3.48035
-3.43598
-3.38993
-3.34203
-3.29106
-3.24016
-3.83684
-3.84099
-3.84284
-3.84237
-3.83962
-3.8346
-3.82734
-3.81786
-3.80618
-3.79235
-3.77638
-3.75833
-3.73821
-3.71608
-3.69198
-3.66594
-3.63802
-3.60826
-3.57671
-3.54341
-3.50842
-3.4718
-3.43359
-3.39386
-3.35264
-3.30999
-3.26589
-3.22015
-3.17156
-3.12734
-13.3746
-13.5298
-13.6767
-13.8235
-13.9687
-14.1107
-14.2489
-14.383
-14.5127
-14.6377
-14.7576
-14.8724
-14.9817
-15.0854
-15.1833
-15.2754
-15.3614
-15.4413
-15.5149
-15.5821
-15.643
-15.6973
-15.7451
-15.7863
-15.8209
-15.8489
-15.8704
-15.8855
-15.8946
-15.8992
-12.3393
-12.4987
-12.6513
-12.8005
-12.9462
-13.088
-13.2257
-13.359
-13.4878
-13.6118
-13.7309
-13.8448
-13.9534
-14.0565
-14.1539
-14.2455
-14.3312
-14.4109
-14.4844
-14.5517
-14.6126
-14.6672
-14.7153
-14.7569
-14.7921
-14.8207
-14.8429
-14.8587
-14.8681
-14.8715
-11.4889
-11.6479
-11.8015
-11.9508
-12.096
-12.2371
-12.374
-12.5066
-12.6346
-12.7579
-12.8764
-12.9898
-13.0981
-13.201
-13.2983
-13.3901
-13.4761
-13.5561
-13.6303
-13.6983
-13.7601
-13.8158
-13.8651
-13.9081
-13.9447
-13.975
-13.9988
-14.0162
-14.0272
-14.0315
-10.72
-10.8764
-11.0285
-11.1763
-11.3201
-11.4598
-11.5954
-11.7267
-11.8536
-11.976
-12.0936
-12.2064
-12.3141
-12.4167
-12.5139
-12.6057
-12.692
-12.7725
-12.8473
-12.9162
-12.9791
-13.036
-13.0868
-13.1314
-13.1698
-13.202
-13.2279
-13.2475
-13.2606
-13.2673
-9.98425
-10.1372
-10.2865
-10.4318
-10.5733
-10.7109
-10.8445
-10.974
-11.0993
-11.2201
-11.3364
-11.448
-11.5548
-11.6567
-11.7534
-11.8449
-11.9311
-12.0118
-12.0869
-12.1564
-12.2202
-12.2781
-12.3302
-12.3763
-12.4164
-12.4505
-12.4784
-12.5003
-12.5159
-12.5252
-9.29569
-9.44458
-9.59031
-9.73246
-9.87095
-10.0057
-10.1367
-10.2638
-10.3868
-10.5056
-10.62
-10.73
-10.8354
-10.936
-11.0318
-11.1225
-11.2082
-11.2886
-11.3637
-11.4334
-11.4976
-11.5563
-11.6093
-11.6566
-11.6981
-11.7338
-11.7636
-11.7875
-11.8054
-11.8172
-8.65943
-8.80392
-8.94557
-9.08391
-9.21884
-9.35029
-9.47814
-9.60226
-9.72252
-9.83878
-9.95092
-10.0588
-10.1623
-10.2612
-10.3555
-10.4451
-10.5298
-10.6095
-10.6841
-10.7536
-10.8178
-10.8767
-10.9302
-10.9782
-11.0207
-11.0576
-11.0889
-11.1146
-11.1344
-11.1486
-8.0747
-8.21454
-8.35177
-8.48594
-8.61692
-8.74464
-8.86896
-8.98974
-9.10687
-9.2202
-9.32961
-9.43496
-9.53613
-9.63301
-9.72546
-9.81338
-9.89666
-9.97521
-10.0489
-10.1177
-10.1815
-10.2402
-10.2937
-10.3421
-10.3852
-10.4229
-10.4553
-10.4822
-10.5037
-10.5196
-7.53965
-7.67471
-7.80734
-7.93711
-8.06391
-8.18764
-8.30815
-8.42533
-8.53904
-8.64914
-8.75552
-8.85804
-8.95659
-9.05104
-9.14129
-9.22722
-9.30874
-9.38574
-9.45814
-9.52586
-9.5888
-9.64691
-9.70011
-9.74834
-9.79155
-9.82967
-9.86267
-9.89049
-9.91311
-9.93049
-7.05164
-7.18187
-7.30983
-7.43512
-7.55761
-7.6772
-7.79377
-7.90717
-8.01727
-8.12396
-8.22709
-8.32656
-8.42224
-8.51403
-8.6018
-8.68547
-8.76493
-8.84009
-8.91087
-8.97718
-9.03894
-9.0961
-9.14858
-9.19632
-9.23928
-9.27739
-9.31063
-9.33894
-9.36228
-9.38066
-6.60736
-6.73281
-6.85612
-6.97692
-7.09508
-7.2105
-7.32305
-7.4326
-7.53901
-7.64216
-7.74194
-7.83822
-7.93088
-8.01983
-8.10495
-8.18616
-8.26334
-8.33643
-8.40533
-8.46998
-8.53029
-8.5862
-8.63766
-8.68461
-8.72699
-8.76476
-8.79788
-8.82631
-8.85002
-8.869
-6.20322
-6.324
-6.44275
-6.55911
-6.67299
-6.78427
-6.89282
-6.99851
-7.10122
-7.20081
-7.29718
-7.3902
-7.47977
-7.56579
-7.64815
-7.72676
-7.80153
-7.87238
-7.93924
-8.00202
-8.06068
-8.11513
-8.16533
-8.21123
-8.25277
-8.28991
-8.32262
-8.35087
-8.37462
-8.39387
-5.83559
-5.95183
-6.06614
-6.17819
-6.28788
-6.39511
-6.49973
-6.60163
-6.70067
-6.79673
-6.8897
-6.97947
-7.06592
-7.14897
-7.22852
-7.30447
-7.37674
-7.44526
-7.50996
-7.57076
-7.62761
-7.68045
-7.72921
-7.77387
-7.81437
-7.85067
-7.88274
-7.91055
-7.93408
-7.95332
-5.50089
-5.61278
-5.7228
-5.83069
-5.93634
-6.03964
-6.14045
-6.23865
-6.33411
-6.42672
-6.51635
-6.6029
-6.68627
-6.76636
-6.84309
-6.91637
-6.98612
-7.05226
-7.11474
-7.17348
-7.22844
-7.27955
-7.32677
-7.37005
-7.40935
-7.44465
-7.4759
-7.50308
-7.52618
-7.54518
-5.19578
-5.30349
-5.40942
-5.51333
-5.6151
-5.71462
-5.81176
-5.9064
-5.99839
-6.08764
-6.17402
-6.25744
-6.33779
-6.41498
-6.48893
-6.55955
-6.62678
-6.69055
-6.75079
-6.80745
-6.86047
-6.9098
-6.95539
-6.99721
-7.03522
-7.0694
-7.0997
-7.12611
-7.14861
-7.16721
-4.91715
-5.02088
-5.12291
-5.22301
-5.32108
-5.417
-5.51064
-5.60185
-5.69053
-5.77654
-5.85979
-5.94017
-6.01759
-6.09195
-6.16319
-6.23122
-6.29598
-6.35739
-6.41542
-6.46999
-6.52106
-6.56859
-6.61252
-6.65284
-6.6895
-6.72247
-6.75174
-6.77728
-6.79907
-6.81713
-4.66217
-4.7621
-4.86042
-4.95692
-5.05149
-5.14399
-5.23429
-5.32225
-5.40775
-5.49067
-5.57091
-5.64837
-5.72296
-5.7946
-5.86321
-5.92872
-5.99106
-6.05019
-6.10603
-6.15855
-6.2077
-6.25343
-6.29571
-6.3345
-6.36978
-6.40152
-6.4297
-6.4543
-6.47531
-6.49273
-4.42828
-4.5246
-4.61941
-4.7125
-4.80376
-4.89302
-4.98016
-5.06504
-5.14752
-5.2275
-5.30487
-5.37954
-5.45142
-5.52043
-5.58651
-5.64959
-5.7096
-5.7665
-5.82023
-5.87075
-5.91801
-5.96198
-6.00262
-6.03991
-6.07381
-6.1043
-6.13136
-6.15499
-6.17516
-6.1919
-4.21318
-4.30607
-4.39757
-4.48746
-4.5756
-4.66182
-4.74598
-4.82794
-4.90756
-4.98474
-5.05938
-5.13139
-5.20068
-5.26719
-5.33084
-5.39158
-5.44936
-5.50411
-5.5558
-5.60439
-5.64982
-5.69207
-5.73111
-5.76692
-5.79945
-5.82871
-5.85466
-5.8773
-5.89662
-5.91263
-4.01485
-4.10447
-4.19286
-4.27975
-4.36496
-4.44833
-4.52969
-4.6089
-4.68582
-4.76034
-4.83239
-4.90186
-4.96868
-5.0328
-5.09414
-5.15265
-5.20828
-5.26098
-5.31071
-5.35744
-5.40111
-5.44171
-5.4792
-5.51356
-5.54477
-5.57281
-5.59767
-5.61933
-5.63779
-5.65305
-3.83146
-3.91798
-4.00345
-4.08755
-4.17004
-4.25074
-4.32947
-4.40608
-4.48044
-4.55246
-4.62204
-4.6891
-4.75359
-4.81543
-4.87456
-4.93095
-4.98453
-5.03528
-5.08313
-5.12808
-5.17007
-5.20908
-5.24508
-5.27805
-5.30798
-5.33484
-5.35863
-5.37933
-5.39694
-5.41147
-3.66139
-3.74496
-3.82774
-3.90926
-3.98922
-4.06744
-4.1437
-4.21786
-4.28981
-4.35945
-4.4267
-4.49148
-4.55374
-4.61341
-4.67046
-4.72482
-4.77646
-4.82534
-4.87141
-4.91466
-4.95504
-4.99253
-5.02711
-5.05876
-5.08746
-5.11319
-5.13594
-5.15571
-5.17249
-5.18629
-3.50317
-3.58394
-3.66429
-3.74346
-3.8211
-3.89699
-3.97095
-4.04281
-4.11248
-4.17987
-4.2449
-4.30752
-4.36767
-4.42529
-4.48034
-4.53279
-4.58258
-4.62969
-4.67407
-4.71571
-4.75456
-4.79061
-4.82384
-4.85422
-4.88174
-4.90639
-4.92815
-4.94703
-4.96301
-4.97611
-3.35542
-3.43359
-3.51183
-3.58888
-3.66439
-3.73815
-3.80994
-3.87964
-3.94715
-4.01241
-4.07534
-4.13591
-4.19405
-4.24973
-4.3029
-4.35353
-4.40157
-4.447
-4.48978
-4.52989
-4.5673
-4.60198
-4.63393
-4.66311
-4.68951
-4.71313
-4.73395
-4.75198
-4.76719
-4.77962
-3.2169
-3.29276
-3.36928
-3.44448
-3.51806
-3.58983
-3.6596
-3.72725
-3.79272
-3.85595
-3.9169
-3.97552
-4.03176
-4.0856
-4.13698
-4.18589
-4.23227
-4.27611
-4.31738
-4.35604
-4.39208
-4.42547
-4.4562
-4.48425
-4.5096
-4.53224
-4.55217
-4.56938
-4.58387
-4.59565
-3.08643
-3.16064
-3.23601
-3.3096
-3.38141
-3.45134
-3.51918
-3.58488
-3.6484
-3.7097
-3.76874
-3.8255
-3.87993
-3.93201
-3.98169
-4.02896
-4.07377
-4.1161
-4.15592
-4.19321
-4.22795
-4.26011
-4.28968
-4.31664
-4.34099
-4.3627
-4.38178
-4.39822
-4.41201
-4.42317
-2.96206
-3.03613
-3.11119
-3.18338
-3.25356
-3.32175
-3.38776
-3.45158
-3.51322
-3.57267
-3.6299
-3.68488
-3.73759
-3.788
-3.83607
-3.88177
-3.92509
-3.96599
-4.00444
-4.04043
-4.07394
-4.10494
-4.13341
-4.15935
-4.18274
-4.20358
-4.22185
-4.23755
-4.25068
-4.26125
-2.83875
-2.91469
-2.99102
-3.06224
-3.13102
-3.19767
-3.26203
-3.32417
-3.38413
-3.44192
-3.49753
-3.55094
-3.60212
-3.65105
-3.6977
-3.74204
-3.78405
-3.8237
-3.86098
-3.89584
-3.92829
-3.95829
-3.98583
-4.0109
-4.03349
-4.05358
-4.07117
-4.08626
-4.09884
-4.10893
-2.71249
-2.79235
-2.87206
-2.94329
-3.01115
-3.0766
-3.13964
-3.2004
-3.259
-3.31544
-3.36973
-3.42185
-3.47177
-3.51949
-3.56497
-3.60819
-3.64913
-3.68777
-3.72407
-3.75803
-3.78962
-3.81882
-3.84563
-3.87002
-3.89199
-3.91153
-3.92863
-3.94328
-3.9555
-3.96528
-2.61542
-2.70395
-2.7846
-2.85493
-2.92114
-2.9845
-3.04536
-3.10394
-3.16035
-3.21461
-3.26672
-3.31668
-3.36448
-3.41009
-3.45351
-3.49471
-3.53367
-3.57038
-3.60481
-3.63697
-3.66682
-3.69436
-3.71957
-3.74245
-3.76299
-3.78118
-3.79702
-3.8105
-3.82164
-3.83043
-0.4534
-0.494996
-0.539854
-0.588215
-0.64056
-0.69738
-0.759211
-0.82668
-0.900522
-0.981594
-1.0709
-1.1696
-1.27907
-1.4009
-1.53695
-1.68937
-1.86066
-2.05371
-2.2718
-2.51867
-2.79852
-3.11597
-3.476
-3.8838
-4.34478
-4.86449
-5.44394
-6.07673
-6.81659
-7.76807
-0.52226
-0.566202
-0.612695
-0.662897
-0.717273
-0.776234
-0.840315
-0.910161
-0.986518
-1.07025
-1.16238
-1.26408
-1.37674
-1.50196
-1.64161
-1.79788
-1.97328
-2.1707
-2.39345
-2.64529
-2.9304
-3.25339
-3.61922
-4.03302
-4.50011
-5.02587
-5.61111
-6.24892
-6.99188
-7.94248
-0.591951
-0.63828
-0.686435
-0.738511
-0.794956
-0.856097
-0.922469
-0.994734
-1.07365
-1.1601
-1.2551
-1.35985
-1.47575
-1.60442
-1.74774
-1.90793
-2.0875
-2.28937
-2.51686
-2.77373
-3.06417
-3.39277
-3.76446
-4.1843
-4.65749
-5.18921
-5.77999
-6.4224
-7.16775
-8.1167
-0.662414
-0.711169
-0.761011
-0.814992
-0.873541
-0.936897
-1.0056
-1.08032
-1.16184
-1.25104
-1.34896
-1.45681
-1.57599
-1.70816
-1.85521
-2.01936
-2.20316
-2.40953
-2.64182
-2.90377
-3.19959
-3.53386
-3.91144
-4.33733
-4.8166
-5.35425
-5.95051
-6.59756
-7.34595
-8.29526
-0.733602
-0.784819
-0.836371
-0.892287
-0.952976
-1.01858
-1.08965
-1.16687
-1.25102
-1.34302
-1.4439
-1.55488
-1.67741
-1.81312
-1.96395
-2.13212
-2.3202
-2.53113
-2.76825
-3.03535
-3.3366
-3.67656
-4.06006
-4.49203
-4.9774
-5.52098
-6.12274
-6.77453
-7.52638
-8.47718
-0.805468
-0.859175
-0.912457
-0.97034
-1.0332
-1.10109
-1.17455
-1.25431
-1.34114
-1.43597
-1.53985
-1.65402
-1.77992
-1.91923
-2.07388
-2.24612
-2.43853
-2.65406
-2.89609
-3.16837
-3.47509
-3.82079
-4.21026
-4.64833
-5.13983
-5.68937
-6.29666
-6.95323
-7.70873
-8.66153
-0.877959
-0.934182
-0.989213
-1.04909
-1.11416
-1.18436
-1.26026
-1.34257
-1.43212
-1.52982
-1.63674
-1.75413
-1.88346
-2.0264
-2.18492
-2.36128
-2.55806
-2.77826
-3.02522
-3.30274
-3.61498
-3.96646
-4.36193
-4.80613
-5.30378
-5.8593
-6.47216
-7.13358
-7.89282
-8.84791
-0.951028
-1.00978
-1.06658
-1.12848
-1.19578
-1.26834
-1.34669
-1.43161
-1.5239
-1.6245
-1.7345
-1.85515
-1.98794
-2.13456
-2.29699
-2.4775
-2.67871
-2.9036
-3.15556
-3.43835
-3.75615
-4.11345
-4.51494
-4.96531
-5.46913
-6.03065
-6.64911
-7.31542
-8.07851
-9.03608
-1.02463
-1.08593
-1.14451
-1.20846
-1.27802
-1.35295
-1.4338
-1.52134
-1.61641
-1.71994
-1.83305
-1.957
-2.09328
-2.24362
-2.40999
-2.5947
-2.80037
-3.03001
-3.28699
-3.5751
-3.89849
-4.26164
-4.66919
-5.12574
-5.63575
-6.2033
-6.82738
-7.49861
-8.2656
-9.22574
-1.09871
-1.16256
-1.22293
-1.28896
-1.36081
-1.43814
-1.52151
-1.6117
-1.70957
-1.81608
-1.93232
-2.0596
-2.19941
-2.35349
-2.52385
-2.71279
-2.92296
-3.15737
-3.41941
-3.71287
-4.04189
-4.41092
-4.82455
-5.28731
-5.80352
-6.3771
-7.00681
-7.68298
-8.45389
-9.41667
-1.17322
-1.23964
-1.30181
-1.36994
-1.4441
-1.52385
-1.60976
-1.70263
-1.80333
-1.91282
-2.03223
-2.16286
-2.30623
-2.46409
-2.63846
-2.83166
-3.04636
-3.28558
-3.55272
-3.85156
-4.18623
-4.56116
-4.9809
-5.44986
-5.97228
-6.5519
-7.18724
-7.86834
-8.64317
-9.60861
-1.24814
-1.3171
-1.38107
-1.45133
-1.52783
-1.61002
-1.69849
-1.79406
-1.89761
-2.01011
-2.13271
-2.26672
-2.41367
-2.57533
-2.75373
-2.95123
-3.17048
-3.41454
-3.68679
-3.99104
-4.33139
-4.71224
-5.13808
-5.61327
-6.1419
-6.72754
-7.3685
-8.05451
-8.83325
-9.80137
-1.32341
-1.39491
-1.46069
-1.53309
-1.61194
-1.6966
-1.78764
-1.88593
-1.99234
-2.10787
-2.23367
-2.37108
-2.52163
-2.68711
-2.86958
-3.07138
-3.29522
-3.54413
-3.82152
-4.13119
-4.47723
-4.86401
-5.29597
-5.77738
-6.31221
-6.90386
-7.55041
-8.2413
-9.02394
-9.99471
-1.39901
-1.47303
-1.54061
-1.61517
-1.69639
-1.78352
-1.87715
-1.97816
-2.08746
-2.20603
-2.33504
-2.47586
-2.63002
-2.79934
-2.98589
-3.19202
-3.42045
-3.67424
-3.95679
-4.27189
-4.62364
-5.01635
-5.45443
-5.94204
-6.48305
-7.08068
-7.73279
-8.42853
-9.21501
-10.1884
-1.47491
-1.55142
-1.6208
-1.69752
-1.78112
-1.87073
-1.96695
-2.0707
-2.18288
-2.3045
-2.43674
-2.58097
-2.73876
-2.91193
-3.10256
-3.31304
-3.54608
-3.80475
-4.09247
-4.41301
-4.77046
-5.16911
-5.61329
-6.1071
-6.65426
-7.25784
-7.91546
-8.61599
-9.40629
-10.3824
-1.55109
-1.63005
-1.70121
-1.7801
-1.86608
-1.95817
-2.05699
-2.16347
-2.27853
-2.4032
-2.53867
-2.68632
-2.84774
-3.02477
-3.21949
-3.43432
-3.67198
-3.93554
-4.22843
-4.55442
-4.91757
-5.32215
-5.77242
-6.27239
-6.82567
-7.43515
-8.09823
-8.8035
-9.59756
-10.5763
-1.62754
-1.7089
-1.78181
-1.86287
-1.95123
-2.04579
-2.14719
-2.2564
-2.37434
-2.50205
-2.64075
-2.79182
-2.95687
-3.13775
-3.33657
-3.55575
-3.79802
-4.06648
-4.36454
-4.69597
-5.06482
-5.4753
-5.93164
-6.43776
-6.99711
-7.61244
-8.28092
-8.99086
-9.78863
-10.7699
-1.70426
-1.78796
-1.86258
-1.94579
-2.03651
-2.13353
-2.2375
-2.34942
-2.47022
-2.60097
-2.74288
-2.89736
-3.06603
-3.25076
-3.45368
-3.67721
-3.92409
-4.19743
-4.50066
-4.83752
-5.21205
-5.62843
-6.09081
-6.60302
-7.16841
-7.78953
-8.46333
-9.17788
-9.97928
-10.9631
-1.78127
-1.86721
-1.94349
-2.02883
-2.12188
-2.22132
-2.32783
-2.44243
-2.56608
-2.69984
-2.84495
-3.00283
-3.17512
-3.36369
-3.57069
-3.79856
-4.05006
-4.32828
-4.63666
-4.97894
-5.35913
-5.78137
-6.24975
-6.76801
-7.33937
-7.96621
-8.64528
-9.36435
-10.1693
-11.1557
-1.85858
-1.94665
-2.02451
-2.11193
-2.20727
-2.30909
-2.4181
-2.53536
-2.66182
-2.79857
-2.94685
-3.10812
-3.284
-3.47641
-3.68748
-3.91968
-4.17577
-4.45886
-4.77238
-5.12006
-5.50588