/*--------------------------------*- C++ -*----------------------------------*\
  =========                 |
  \\      /  F ield         | OpenFOAM: The Open Source CFD Toolbox
   \\    /   O peration     | Website:  https://openfoam.org
    \\  /    A nd           | Version:  6.0
     \\/     M anipulation  |
\*---------------------------------------------------------------------------*/
FoamFile
{
    version     2.0;
    format      ascii;
    class       surfaceScalarField;
    location    "20";
    object      phi;
}
// * * * * * * * * * * * * * * * * * * * * * * * * * * * * * * * * * * * * * //

dimensions      [0 3 -1 0 0 0 0];

internalField   nonuniform List<scalar> 
4670
(
0.00847597
-0.708949
0.700473
0.0233821
-0.710995
0.696089
0.0387042
-0.714012
0.69869
0.0526376
-0.699255
0.685322
0.0652002
-0.677742
0.66518
0.076898
-0.654952
0.643254
0.0882258
-0.633738
0.62241
0.0995045
-0.615282
0.604003
0.110965
-0.599817
0.588356
-0.587492
0.575534
0.122923
0.00862052
-0.71757
0.0230382
-0.725413
0.0375352
-0.728509
0.0505487
-0.712269
0.0622175
-0.689411
0.0730945
-0.665829
0.0836596
-0.644303
0.0941837
-0.625806
0.104855
-0.610488
-0.598573
0.115935
0.00853814
-0.726108
0.0222598
-0.739135
0.0357616
-0.742011
0.047677
-0.724184
0.0582721
-0.700006
0.0681498
-0.675707
0.0777726
-0.653926
0.0873511
-0.635385
0.0970121
-0.620149
-0.608511
0.106951
0.00822449
-0.734332
0.0210782
-0.751988
0.0334496
-0.754382
0.0441437
-0.734878
0.0535274
-0.70939
0.0622485
-0.684428
0.0707859
-0.662463
0.0793586
-0.643957
0.0881068
-0.628897
-0.617615
0.0972112
0.0077031
-0.742035
0.019517
-0.763802
0.0306543
-0.76552
0.0400558
-0.74428
0.0481441
-0.717478
0.0555513
-0.691835
0.0627365
-0.669648
0.0699858
-0.651207
0.0776097
-0.636521
-0.625976
0.0859702
0.00699071
-0.749026
0.0176142
-0.774426
0.0273982
-0.775304
0.0354358
-0.752318
0.0422143
-0.724257
0.0483085
-0.697929
0.0540471
-0.675387
0.0596919
-0.656851
0.0658209
-0.64265
-0.633483
0.0733283
0.00616096
-0.755187
0.0154881
-0.783753
0.0237745
-0.78359
0.0302613
-0.758804
0.0355741
-0.72957
0.0403601
-0.702715
0.0448596
-0.679886
0.0490602
-0.661052
0.0532656
-0.646856
-0.638165
0.0579471
0.00534465
-0.760532
0.0134119
-0.79182
0.0201401
-0.790318
0.0248403
-0.763505
0.0282321
-0.732961
0.0311859
-0.705669
0.0342841
-0.682985
0.0375158
-0.664284
0.0399371
-0.649277
-0.636475
0.0382472
0.00469769
-0.765229
0.0117028
-0.798825
0.0170526
-0.795668
0.020054
-0.766506
0.0212458
-0.734153
0.0212905
-0.705714
0.0209579
-0.682652
0.0213092
-0.664635
0.0226847
-0.650652
-0.634664
0.0208731
0.00435799
-0.769587
0.0105352
-0.805003
0.0148898
-0.800023
0.0167924
-0.768409
0.0165485
-0.733909
0.0140933
-0.703258
0.00888344
-0.677442
0.00116895
-0.65692
-0.00385222
-0.645631
-0.656001
0.0174856
0.809602
0.00557386
-0.815176
0.804084
0.0055177
0.798708
0.00537635
0.79358
0.00512815
0.788778
0.00480128
0.784357
0.0044218
0.780304
0.00405235
0.776565
0.00373929
0.773037
0.00352836
0.00344911
0.852133
0.00949635
-0.856055
0.847569
0.0100811
0.842573
0.0103727
0.837312
0.0103886
0.831926
0.0101876
0.826532
0.0098157
0.821191
0.00939379
0.815907
0.00902313
0.810574
0.00886157
0.00902037
0.827925
0.0106587
-0.829087
0.82603
0.0119765
0.823548
0.0128542
0.820657
0.0132801
0.817493
0.013351
0.814185
0.013124
0.810821
0.0127573
0.807412
0.0124329
0.803889
0.0123842
0.0128867
0.781732
0.0108154
-0.781889
0.780966
0.0127425
0.77968
0.014141
0.778105
0.0148553
0.776337
0.0151184
0.77457
0.0148914
0.772873
0.0144545
0.771339
0.0139661
0.769948
0.013776
0.0144257
0.741607
0.0112559
-0.742048
0.740705
0.0136446
0.739329
0.015517
0.737885
0.0162995
0.736322
0.0166817
0.735061
0.016152
0.734008
0.0155078
0.733508
0.014466
0.733569
0.0137147
0.0140857
0.710218
0.0124198
-0.711382
0.70874
0.015123
0.706704
0.0175534
0.704876
0.0181271
0.702792
0.0187653
0.701496
0.017448
0.700343
0.0166613
0.700422
0.0143867
0.701209
0.0129283
0.0120359
0.684941
0.0143327
-0.686854
0.682902
0.0171623
0.680075
0.0203803
0.677842
0.0203595
0.674814
0.0217934
0.673335
0.0189272
0.671426
0.0185701
0.672491
0.0133217
0.673222
0.0121972
0.00781597
0.663343
0.0169201
-0.665931
0.660911
0.0195941
0.657358
0.0239341
0.654975
0.0227422
0.650754
0.0260145
0.649106
0.0205745
0.645308
0.0223685
0.648408
0.0102216
0.648857
0.0117481
-0.000247076
0.644046
0.0202048
-0.647331
0.641358
0.0222825
0.637206
0.0280854
0.635005
0.0249434
0.629713
0.0313062
0.627982
0.0223057
0.621047
0.0293035
0.625341
0.00592799
0.627456
0.00963307
-0.0184226
0.626653
-0.630915
0.0244668
0.623643
0.0252924
0.619002
0.032726
0.617104
0.0268422
0.61126
0.0371494
0.609442
0.0241242
0.599616
0.0391298
0.599711
0.00583241
0.601411
0.00793322
-0.0730129
0.836098
-0.00184423
-0.834254
0.837272
-0.00117441
0.837549
-0.000276994
0.836823
0.000726654
0.835079
0.00174333
0.832405
0.0026747
0.828914
0.00349112
0.824765
0.00414892
0.820116
0.00464826
0.00494072
0.842013
-0.00960708
-0.83425
0.848673
-0.00783421
0.854108
-0.00571225
0.858191
-0.00335644
0.860881
-0.000946744
0.862231
0.00132475
0.862317
0.00340497
0.861246
0.00521998
0.859116
0.00677827
0.00800162
0.790731
-0.0199298
-0.780408
0.800035
-0.0171389
0.808095
-0.0137723
0.814795
-0.0100565
0.820152
-0.00630353
0.824236
-0.00275893
0.827105
0.000535438
0.828818
0.00350707
0.829448
0.00614854
0.00836224
0.738424
-0.0307302
-0.727623
0.74822
-0.0269354
0.756673
-0.022225
0.763714
-0.0170979
0.769472
-0.0120607
0.77406
-0.00734754
0.777515
-0.00291975
0.779917
0.0011054
0.781328
0.00473745
0.00780135
0.702941
-0.0415337
-0.692137
0.712501
-0.0364958
0.720411
-0.0301351
0.726817
-0.0235035
0.731981
-0.0172245
0.736005
-0.011372
0.7389
-0.00581485
0.740813
-0.000807126
0.741796
0.00375461
0.00754897
0.678519
-0.0527436
-0.667309
0.687808
-0.0457854
0.694928
-0.0372542
0.700564
-0.02914
0.705033
-0.021693
0.708299
-0.0146379
0.710384
-0.00790037
0.711542
-0.00196509
0.711785
0.00351123
0.00795222
0.659567
-0.0649759
-0.647335
0.668621
-0.0548389
0.674863
-0.0434966
0.679905
-0.0341819
0.683838
-0.025626
0.686409
-0.0172087
0.687769
-0.00926098
0.688278
-0.00247431
0.687856
0.00393319
0.00895491
0.643369
-0.077873
-0.630472
0.652045
-0.0635153
0.657548
-0.0489992
0.662178
-0.0388117
0.665569
-0.0290175
0.667481
-0.0191204
0.668282
-0.0100624
0.668333
-0.00252495
0.667396
0.00487061
0.0104198
0.629119
-0.087278
-0.619714
0.636858
-0.0712545
0.642899
-0.0550397
0.647002
-0.0429145
0.649342
-0.0313576
0.650523
-0.020302
0.65089
-0.0104288
0.650608
-0.00224337
0.649217
0.00626151
0.0123066
0.616617
-0.625128
-0.0787668
0.619081
-0.0737185
0.632358
-0.0683164
0.635551
-0.0461083
0.635492
-0.0312983
0.635808
-0.0206183
0.635899
-0.0105195
0.635322
-0.00166603
0.633438
0.00814513
0.0148298
0.080745
0.526457
-0.522373
-0.0848298
0.0750633
0.538368
-0.532686
0.0680982
0.549823
-0.542858
0.0599857
0.561775
-0.553663
0.0507703
0.575528
-0.566313
0.0403968
0.593709
-0.583335
0.0287842
0.622442
-0.61083
0.0162569
0.672748
-0.660221
0.00492894
0.742817
-0.731489
0.796566
-0.791637
0.0824524
0.532082
-0.0880767
0.0758245
0.544996
0.0682383
0.557409
0.0597545
0.570259
0.0503377
0.584945
0.0398815
0.604165
0.0282791
0.634045
0.0158772
0.68515
0.00481604
0.753878
0.801382
0.0800218
0.536806
-0.0847464
0.0741806
0.550837
0.0672064
0.564383
0.0590849
0.57838
0.0498299
0.5942
0.0394243
0.614571
0.0278555
0.645613
0.0155535
0.697452
0.00468795
0.764743
0.80607
0.0847704
0.54417
-0.092134
0.0769684
0.558639
0.0686088
0.572743
0.0596172
0.587372
0.0498568
0.603961
0.0391895
0.625238
0.0275261
0.657277
0.0152737
0.709705
0.00457496
0.775442
0.810645
0.0811721
0.54869
-0.0856916
0.0751749
0.564636
0.0679139
0.580004
0.0593593
0.595927
0.0496587
0.613661
0.0389182
0.635979
0.0271963
0.668999
0.0149897
0.721911
0.00445793
0.785974
0.815103
0.0879463
0.556978
-0.0962347
0.0790921
0.573491
0.0697642
0.589332
0.0599889
0.605702
0.0496676
0.623983
0.0386433
0.647003
0.0268262
0.680816
0.0146823
0.734055
0.0043334
0.796323
0.819436
0.0833518
0.559844
-0.0862175
0.0771646
0.579678
0.0690543
0.597442
0.0596301
0.615126
0.0493052
0.634308
0.0381791
0.658129
0.0263137
0.692681
0.014264
0.746105
0.00415035
0.806436
0.823587
0.0942244
0.57078
-0.105161
0.0818527
0.592049
0.0702227
0.609072
0.0594649
0.625884
0.0486928
0.64508
0.0374031
0.669419
0.025554
0.70453
0.0137082
0.757951
0.0039096
0.816235
0.827496
0.091239
0.580713
-0.101172
0.0790768
0.604212
0.0688535
0.619296
0.0585813
0.636156
0.047618
0.656043
0.0361699
0.680867
0.0244211
0.716279
0.0129045
0.769467
0.00357174
0.825568
0.831068
0.094547
-0.138962
0.0790442
0.067868
0.0566895
0.0454234
0.0341529
0.0228084
0.0118678
0.00318571
0.121728
0.452933
-0.458676
-0.115985
0.106783
0.459714
-0.444769
0.0901086
0.46176
-0.445085
0.0747709
0.465221
-0.449883
0.060909
0.470941
-0.457079
0.0478809
0.480412
-0.467384
0.0350192
0.499207
-0.486345
0.0217525
0.540312
-0.527045
0.00849558
0.61625
-0.602993
0.728441
-0.719945
0.109544
0.465027
-0.121638
0.0987461
0.470512
0.0871165
0.473389
0.0747243
0.477613
0.0619934
0.483672
0.049072
0.493333
0.0358569
0.512422
0.0221191
0.55405
0.0085554
0.629814
0.736996
0.103333
0.478656
-0.116962
0.0934008
0.480445
0.0832747
0.483515
0.0725033
0.488384
0.060995
0.495181
0.0487482
0.50558
0.0357417
0.525428
0.0219397
0.567852
0.00832239
0.643431
0.745319
0.100002
0.487253
-0.108599
0.0909237
0.489523
0.0810574
0.493382
0.0706267
0.498815
0.059592
0.506215
0.047789
0.517383
0.0350596
0.538158
0.0213729
0.581538
0.00791345
0.656891
0.753232
0.0968715
0.493487
-0.103106
0.0886195
0.497775
0.0792476
0.502754
0.0691211
0.508942
0.058325
0.517011
0.0467416
0.528966
0.0341867
0.550713
0.0206367
0.595088
0.0074363
0.670091
0.760668
0.0935986
0.49956
-0.0996715
0.0859113
0.505462
0.0771596
0.511505
0.06753
0.518571
0.0570718
0.52747
0.0457078
0.54033
0.0332973
0.563123
0.0198831
0.608503
0.00696815
0.683006
0.767637
0.0902301
0.505702
-0.0963712
0.0830286
0.512664
0.0748079
0.519726
0.0656724
0.527707
0.055622
0.53752
0.0445628
0.55139
0.0323625
0.575323
0.0191279
0.621737
0.00652706
0.695607
0.774164
0.088107
0.511847
-0.0942525
0.0810379
0.519733
0.0730205
0.527744
0.064118
0.536609
0.054304
0.547334
0.0434644
0.562229
0.031454
0.587334
0.0184175
0.634774
0.00613207
0.707892
0.780296
0.0849985
0.517213
-0.0903643
0.0785381
0.526193
0.0709943
0.535287
0.0624654
0.545138
0.0529567
0.556843
0.0423676
0.572818
0.0305649
0.599136
0.0177442
0.647595
0.00579054
0.719846
0.786086
0.0840893
-0.0892492
0.0775961
0.0700254
0.0615009
0.0520304
0.0415132
0.0298201
0.0171936
0.00555085
-0.40823
0.123938
-0.174385
-0.399259
0.0870308
-0.0960025
-0.393425
0.0799433
-0.0857767
-0.393682
0.0481159
-0.0478587
-0.39271
0.0384124
-0.0393849
-0.394374
0.0178104
-0.0161458
-0.396471
0.00616343
-0.00406723
-0.400737
-0.00961553
0.0138816
-0.406144
-0.0212724
0.0266792
-0.0330183
-0.413033
0.0399074
-0.421187
0.100357
-0.411498
0.0773412
-0.401635
0.0700805
-0.400491
0.0469722
-0.39868
0.0366014
-0.400139
0.0192691
-0.402122
0.0081468
-0.406244
-0.00549369
-0.411452
-0.0160646
-0.0264887
-0.417982
-0.428044
0.0833155
-0.419924
0.0692215
-0.410301
0.0604567
-0.407706
0.0443779
-0.405389
0.0342838
-0.406408
0.0202885
-0.408302
0.0100412
-0.412267
-0.00152888
-0.417391
-0.0109408
-0.0200726
-0.423807
-0.435927
0.0693593
-0.427292
0.0605864
-0.418906
0.0520711
-0.415208
0.0406793
-0.412531
0.0316068
-0.412909
0.0206664
-0.414558
0.0116904
-0.418245
0.00215798
-0.423218
-0.005967
-0.0137544
-0.429537
-0.444747
0.0570266
-0.435326
0.0511652
-0.427502
0.044247
-0.422926
0.0361034
-0.419898
0.0285794
-0.419526
0.0202942
-0.420741
0.0129058
-0.423957
0.00537348
-0.428608
-0.00131538
-0.00767734
-0.434685
-0.455704
0.0453473
-0.445866
0.0413266
-0.43795
0.036331
-0.432524
0.0306775
-0.428942
0.0249974
-0.427675
0.0190271
-0.428178
0.0134091
-0.43062
0.00781522
-0.434619
0.00268413
-0.00218144
-0.440115
-0.474668
0.0336704
-0.46444
0.0310983
-0.455991
0.0278826
-0.449573
0.0242595
-0.445038
0.0204622
-0.442548
0.0165364
-0.441861
0.0127226
-0.443011
0.00896513
-0.445763
0.00543635
0.00208968
-0.450034
-0.514825
0.0214498
-0.503811
0.0200847
-0.494311
0.0183822
-0.486493
0.0164417
-0.480394
0.0143632
-0.476073
0.0122155
-0.47344
0.0100891
-0.472475
0.00800031
-0.473043
0.00600431
0.00410229
-0.475055
-0.590387
0.00884344
-0.578705
0.00840331
-0.568175
0.00785195
-0.558962
0.00722798
-0.551126
0.00652763
-0.544709
0.0057987
-0.539681
0.00506112
-0.536018
0.00433741
-0.533645
0.00363118
0.00291825
-0.532461
-0.711102
-0.702699
-0.694847
-0.687619
-0.681091
-0.675292
-0.670231
-0.665894
-0.662263
-0.659344
-0.420464
-0.041999
0.0494303
-0.428366
-0.0501405
0.0580425
-0.436629
-0.0568874
0.0651504
-0.445181
-0.0624026
0.0709546
-0.453965
-0.0664962
0.0752807
-0.463217
-0.0687124
0.0779639
-0.471902
-0.0695687
0.0782541
-0.475964
-0.0697495
0.0738112
-0.481218
-0.0675881
0.0728419
-0.0622462
-0.495047
0.0760757
-0.425191
-0.03479
-0.432983
-0.042348
-0.441195
-0.048675
-0.44973
-0.0538678
-0.458442
-0.0577845
-0.466956
-0.0601984
-0.474792
-0.0617324
-0.481781
-0.0627611
-0.487892
-0.0614773
-0.0585817
-0.491556
-0.431049
-0.0275478
-0.438985
-0.0344126
-0.447442
-0.0402174
-0.456276
-0.0450339
-0.465276
-0.0487846
-0.474009
-0.0514656
-0.482304
-0.0534371
-0.490419
-0.0546464
-0.497299
-0.054597
-0.0548966
-0.500984
-0.436824
-0.0202601
-0.444929
-0.0263075
-0.453662
-0.0314848
-0.462839
-0.0358571
-0.472223
-0.0394
-0.481501
-0.0421878
-0.490592
-0.0443459
-0.499447
-0.0457917
-0.507222
-0.0468215
-0.0488323
-0.513287
-0.44188
-0.0130658
-0.45003
-0.0181573
-0.458929
-0.022586
-0.468378
-0.026408
-0.478153
-0.0296253
-0.488039
-0.0323018
-0.497918
-0.0344665
-0.507546
-0.0361636
-0.516492
-0.0378758
-0.0404528
-0.524871
-0.446869
-0.00631209
-0.454718
-0.0103088
-0.463456
-0.0138474
-0.472897
-0.0169673
-0.482844
-0.0196778
-0.493131
-0.0220153
-0.503593
-0.0240042
-0.513983
-0.0257741
-0.524144
-0.0277141
-0.03025
-0.534347
-0.455667
-0.000679382
-0.462499
-0.00347692
-0.470356
-0.00598995
-0.479084
-0.00823994
-0.488524
-0.0102373
-0.498535
-0.0120043
-0.508956
-0.0135834
-0.519616
-0.0151142
-0.530482
-0.0168476
-0.0189754
-0.541757
-0.47844
0.00270487
-0.483028
0.00111157
-0.488706
-0.000311573
-0.495366
-0.00158013
-0.502894
-0.00270973
-0.511181
-0.00371686
-0.520115
-0.00465006
-0.529615
-0.00561416
-0.539698
-0.006764
-0.00819195
-0.550482
-0.532378
0.0026214
-0.533327
0.00206083
-0.535221
0.00158296
-0.537998
0.00119661
-0.541574
0.000866126
-0.545885
0.000593739
-0.55088
0.000345353
-0.556568
7.39821e-05
-0.563024
-0.00030776
-0.000895722
-0.570321
-0.656723
-0.654662
-0.653079
-0.651882
-0.651016
-0.650423
-0.650077
-0.650003
-0.650311
-0.651207
0.00100173
-0.652208
0.00924068
-0.57856
0.0209553
-0.562196
0.032954
-0.553756
0.0437503
-0.545143
0.0527246
-0.533846
0.0596042
-0.520166
0.0642416
-0.505622
0.0650819
-0.492396
-0.480421
0.0504556
0.00179421
-0.654003
0.0111248
-0.58789
0.0237518
-0.574823
0.0365163
-0.56652
0.0480567
-0.556684
0.0580725
-0.543862
0.0669085
-0.529003
0.0750653
-0.513778
0.0818771
-0.499208
-0.485437
0.086893
0.00267768
-0.65668
0.0131546
-0.598367
0.0267295
-0.588398
0.040303
-0.580094
0.0526765
-0.569057
0.0636373
-0.554822
0.0732637
-0.538629
0.0814257
-0.52194
0.0880702
-0.505853
-0.491675
0.094308
0.00359364
-0.660274
0.0152253
-0.609999
0.0296966
-0.602869
0.0440109
-0.594408
0.0571393
-0.582186
0.0690289
-0.566712
0.0800519
-0.549652
0.0908361
-0.532725
0.102175
-0.517191
-0.504073
0.114573
0.00455868
-0.664833
0.0172567
-0.622697
0.0325009
-0.618114
0.0474023
-0.60931
0.0610585
-0.595842
0.0734682
-0.579122
0.0849598
-0.561144
0.0959105
-0.543675
0.106559
-0.527839
-0.514252
0.116738
0.00550972
-0.670342
0.0191454
-0.636332
0.0349882
-0.633957
0.0502965
-0.624618
0.0643303
-0.609876
0.07722
-0.592011
0.089412
-0.573336
0.101384
-0.555648
0.113457
-0.539912
-0.526475
0.125679
0.00641852
-0.676761
0.0208064
-0.65072
0.0370312
-0.650181
0.0525211
-0.640108
0.0666842
-0.624039
0.0797143
-0.605041
0.0920211
-0.585642
0.103933
-0.56756
0.115561
-0.55154
-0.537661
0.126747
0.00723649
-0.683997
0.0221633
-0.665647
0.0385339
-0.666552
0.0539797
-0.655554
0.0680835
-0.638142
0.0811511
-0.618109
0.0936602
-0.598151
0.105995
-0.579895
0.118378
-0.563922
-0.550243
0.13096
0.00794314
-0.691941
0.0231637
-0.680868
0.0394194
-0.682808
0.0545661
-0.6707
0.0683472
-0.651924
0.0811433
-0.630905
0.0934415
-0.61045
0.105598
-0.592051
0.117805
-0.576129
-0.562634
0.130196
0.00853262
0.0237541
0.0396365
0.0542583
0.0675143
0.0798633
0.0918237
0.103776
0.116003
0.128903
0.0764534
-2.79454
2.84101
0.0603927
-2.44729
2.46335
0.0542294
-2.07877
2.08493
0.0432144
-1.81836
1.82938
0.0392987
-1.51621
1.52012
0.0373537
-1.16592
1.16787
0.033035
-0.851189
0.855508
0.0295267
-0.596214
0.599722
0.0270439
-0.409419
0.411902
0.0256381
-0.280088
0.281494
0.0252165
-0.195351
0.195772
0.0254723
-0.13951
0.139254
0.0260283
-0.100706
0.10015
0.0265079
-0.069832
0.0693524
0.0266279
-0.046253
0.0461329
0.0263873
-0.0224558
0.0226964
0.0258913
-0.00395691
0.00445292
0.0252099
0.016225
-0.0155435
0.0248355
0.0350186
-0.0346443
0.0551324
-0.0550697
0.0639178
-2.74252
0.0396643
-2.42303
0.0328344
-2.07194
0.0259469
-1.81147
0.0249508
-1.51521
0.0266076
-1.16758
0.0253683
-0.84995
0.0239177
-0.594763
0.0228536
-0.408355
0.0223323
-0.279567
0.0224219
-0.19544
0.022967
-0.140055
0.0236781
-0.101418
0.0242187
-0.0703727
0.0243415
-0.0463757
0.024098
-0.0222123
0.0236019
-0.00346068
0.0229883
0.0168386
0.0227367
0.0352702
0.055149
0.0494964
-2.68507
0.0194803
-2.39302
0.011917
-2.06437
0.00890023
-1.80846
0.0111451
-1.51745
0.0161026
-1.17254
0.0178523
-0.8517
0.0184209
-0.595332
0.018747
-0.408681
0.0190916
-0.279911
0.0196745
-0.196023
0.0204971
-0.140877
0.0213611
-0.102282
0.0219689
-0.0709805
0.0221103
-0.046517
0.0218826
-0.0219846
0.0214076
-0.00298565
0.0208837
0.0173625
0.0207572
0.0353966
0.0551202
0.0360895
-2.62394
0.0040178
-2.36094
-0.00470414
-2.05565
-0.00607604
-1.80709
-0.00169033
-1.52184
0.00589615
-1.18012
0.0104574
-0.856261
0.0130272
-0.597902
0.0147288
-0.410382
0.0159291
-0.281112
0.0169919
-0.197086
0.0180817
-0.141967
0.0190963
-0.103296
0.019777
-0.0716612
0.0199516
-0.0466917
0.0197556
-0.0217886
0.0193199
-0.00254992
0.0189009
0.0177814
0.0188954
0.0354022
0.0550497
0.0250966
-2.56307
-0.00478219
-2.33107
-0.0170547
-2.04338
-0.0198812
-1.80426
-0.0145462
-1.52718
-0.00449328
-1.19018
0.00303264
-0.863787
0.00770494
-0.602574
0.0107974
-0.413475
0.0128538
-0.283168
0.0143887
-0.198621
0.0157376
-0.143316
0.0169006
-0.104459
0.0176596
-0.0724202
0.0178804
-0.0469125
0.0177295
-0.0216377
0.0173478
-0.0021682
0.0170428
0.0180864
0.0171489
0.0352961
0.0549439
0.0179143
-2.50766
-0.01548
-2.29767
-0.0345049
-2.02435
-0.0387317
-1.80003
-0.0308092
-1.5351
-0.0163388
-1.20465
-0.00474301
-0.875383
0.00238963
-0.609706
0.00694113
-0.418026
0.00986959
-0.286097
0.0118763
-0.200628
0.0134789
-0.144919
0.0147889
-0.105769
0.0156312
-0.0732625
0.0159094
-0.0471908
0.015814
-0.0215423
0.0154976
-0.00185174
0.0153098
0.0182742
0.0155144
0.0350914
0.0548104
-0.0100783
-2.43963
-0.0569058
-2.25084
-0.0734261
-2.00783
-0.0701656
-1.80329
-0.0533235
-1.55194
-0.0305023
-1.22747
-0.013097
-0.892788
-0.00298558
-0.619818
0.0031353
-0.424147
0.00697118
-0.289932
0.00946023
-0.203117
0.0113159
-0.146774
0.0127728
-0.107226
0.0137034
-0.0741931
0.0140484
-0.0475358
0.0140165
-0.0215103
0.0137731
-0.00160835
0.0137008
0.0183465
0.0139884
0.0348038
0.0546577
-0.078988
-2.3224
-0.122901
-2.20693
-0.122498
-2.00823
-0.105492
-1.8203
-0.0765473
-1.58089
-0.0446604
-1.25935
-0.021465
-0.915983
-0.00833057
-0.632952
-0.000614428
-0.431863
0.00415572
-0.294703
0.00714333
-0.206104
0.00925575
-0.148887
0.010861
-0.108831
0.0118848
-0.0752169
0.0123043
-0.0479553
0.0123413
-0.0215472
0.0121756
-0.00144272
0.012213
0.0183091
0.0125669
0.0344499
0.054494
-0.0932982
-2.20822
-0.122327
-2.1779
-0.125986
-2.00458
-0.112185
-1.8341
-0.0842101
-1.60886
-0.0526668
-1.2909
-0.0281302
-0.94052
-0.0131807
-0.647902
-0.00415912
-0.440885
0.00147355
-0.300335
0.00494847
-0.209579
0.00731311
-0.151251
0.009065
-0.110583
0.0101848
-0.0763367
0.0106835
-0.048454
0.0107919
-0.0216556
0.0107052
-0.00135604
0.0108428
0.0181715
0.0112461
0.0340466
0.0543268
0.219594
-2.41033
0.097236
-2.05554
0.00631022
-1.91365
-0.0365996
-1.79119
-0.0541967
-1.59126
-0.0486674
-1.29643
-0.0315633
-0.957624
-0.0169415
-0.662524
-0.00724343
-0.450583
-0.000965309
-0.306613
0.00293015
-0.213475
0.00552055
-0.153842
0.00740602
-0.112469
0.00861965
-0.0775503
0.00919668
-0.049031
0.00937415
-0.0218331
0.00936289
-0.00134479
0.00958733
0.0179471
0.0100242
0.0336097
0.0541647
0.70304
-1.92245
-1.19092
0.561928
-1.91443
0.574177
-1.9259
0.452391
-1.6694
0.297391
-1.43626
0.18045
-1.17949
0.113813
-0.890986
0.0730359
-0.621747
0.0475784
-0.425126
0.0338371
-0.292872
0.0264948
-0.206132
0.0225646
-0.149912
0.0202938
-0.110198
0.0185592
-0.0758157
0.0168553
-0.0473271
0.0154214
-0.0203992
0.0144664
-0.00038979
0.0145054
0.0179081
0.0151298
0.0329853
0.0538934
0.994825
-1.59276
-1.32451
0.788487
-1.70809
0.566598
-1.70401
0.426307
-1.52911
0.300998
-1.31096
0.198431
-1.07692
0.127148
-0.819704
0.0827961
-0.577395
0.0544689
-0.396799
0.0380216
-0.276425
0.0287981
-0.196909
0.0235083
-0.144622
0.0201982
-0.106888
0.0176815
-0.073299
0.0153908
-0.0450364
0.0136196
-0.018628
0.0126186
0.000611252
0.012856
0.0176707
0.0135805
0.0322608
0.0536357
1.18601
-1.26297
-1.5158
0.899136
-1.42122
0.683796
-1.48867
0.536655
-1.38197
0.389802
-1.1641
0.252741
-0.939857
0.154238
-0.721201
0.0967924
-0.519949
0.0625539
-0.36256
0.0423283
-0.256199
0.0307915
-0.185372
0.0238812
-0.137711
0.0192881
-0.102295
0.0158108
-0.0698217
0.0128522
-0.0420778
0.0107477
-0.0165235
0.00977893
0.00157997
0.010256
0.0171937
0.0110517
0.031465
0.0533189
1.28173
-0.942085
-1.60261
1.00937
-1.14886
0.760978
-1.24028
0.554336
-1.17533
0.400948
-1.01071
0.269939
-0.808847
0.16902
-0.620282
0.107429
-0.458359
0.0705428
-0.325674
0.0469502
-0.232607
0.0326005
-0.171022
0.0236341
-0.128745
0.0174156
-0.0960762
0.0127729
-0.065179
0.00908179
-0.0383866
0.00668891
-0.0141306
0.00585361
0.00241527
0.0065908
0.0164565
0.00744565
0.0306102
0.052715
1.39023
-0.71587
-1.61644
1.12057
-0.879205
0.852271
-0.971979
0.656652
-0.979711
0.491896
-0.845958
0.328051
-0.645002
0.199307
-0.491538
0.122715
-0.381767
0.0798256
-0.282784
0.0522109
-0.204992
0.0343927
-0.153204
0.0227792
-0.117132
0.0145042
-0.0878012
0.00846406
-0.0591389
0.00400126
-0.0339238
0.00141177
-0.0115411
0.000815473
0.00301156
0.00182035
0.0154516
0.00277299
0.0296575
0.0512988
1.42979
-0.516519
-1.62915
1.1509
-0.600314
0.892217
-0.713293
0.647988
-0.735481
0.429547
-0.627517
0.283032
-0.498487
0.193601
-0.402107
0.132779
-0.320946
0.0892979
-0.239303
0.0580318
-0.173726
0.0363401
-0.131512
0.0214291
-0.102221
0.0105962
-0.0769683
0.00290191
-0.0514446
-0.00234736
-0.0286745
-0.00500179
-0.0088867
-0.00526877
0.00327855
-0.00394394
0.0141268
-0.00273557
0.0284492
0.0481619
1.35114
-0.329134
-1.53852
1.13669
-0.385863
0.9028
-0.479405
0.664086
-0.496767
0.488412
-0.451843
0.36801
-0.378085
0.259245
-0.293341
0.165919
-0.22762
0.103124
-0.176508
0.0646164
-0.135218
0.0386652
-0.105561
0.0198455
-0.0834008
0.0058978
-0.0630207
-0.00373183
-0.041815
-0.00976719
-0.0226392
-0.0123391
-0.00631476
-0.0122085
0.00314791
-0.010335
0.0122533
-0.00650818
0.0246224
0.0417158
1.19499
-0.188404
-1.33572
1.03096
-0.221829
0.817247
-0.265697
0.604563
-0.284083
0.434418
-0.281698
0.302888
-0.246555
0.209177
-0.199631
0.145686
-0.164128
0.102744
-0.133567
0.0699249
-0.102399
0.0417499
-0.077386
0.0184476
-0.0600985
0.000759126
-0.0453322
-0.0110877
-0.0299681
-0.0178982
-0.0158287
-0.0202618
-0.00395114
-0.0196749
0.00256103
-0.0169349
0.00951321
-0.0105914
0.0182789
0.031594
1.05275
-0.0871595
-1.15399
0.928526
-0.0976079
0.783545
-0.120716
0.641662
-0.1422
0.508365
-0.1484
0.393054
-0.131244
0.297866
-0.104443
0.214699
-0.080961
0.144108
-0.0629753
0.0891047
-0.0473959
0.0479497
-0.0362309
0.0173927
-0.0295416
-0.00454791
-0.0233915
-0.0186903
-0.0158257
-0.0262298
-0.00828924
-0.0283284
-0.00185254
-0.0272221
0.00145473
-0.0232895
0.00558058
-0.0148531
0.00984248
0.0176763
1.01516
-1.10232
0.917552
0.796836
0.654636
0.506235
0.374991
0.270549
0.189588
0.126613
0.0792166
0.0429857
0.0134441
-0.00994741
-0.0257732
-0.0340624
-0.0359149
-0.0344602
-0.0288796
-0.0190371
1.40054
0.000412807
-1.37648
1.4195
0.00633166
1.42943
0.0227902
1.43518
0.0210942
1.42971
0.0426234
1.41864
0.0351958
1.38891
0.0688518
1.34693
0.0478175
1.27101
0.0838464
0.00707914
1.4851
-0.0164227
-1.46826
1.49557
-0.00414268
1.50261
0.015756
1.49908
0.0246186
1.49153
0.0501729
1.46763
0.0590964
1.44429
0.0921931
1.40524
0.0868653
1.38496
0.104128
0.0675259
1.52504
-0.021102
-1.52036
1.52689
-0.00598608
1.52803
0.0146179
1.52393
0.0287129
1.52211
0.0519912
1.5192
0.0620114
1.52782
0.0835661
1.53427
0.0804222
1.5438
0.0946004
0.0955195
1.51351
-0.0214972
-1.51312
1.51545
-0.00792003
1.52229
0.00777787
1.53165
0.0193554
1.54921
0.0344228
1.56821
0.0430175
1.59072
0.0610554
1.59956
0.0715805
1.60167
0.0924878
0.0945817
1.52668
-0.0238499
-1.52433
1.53225
-0.013494
1.54241
-0.00237876
1.55348
0.00828468
1.56577
0.0221381
1.57296
0.0358274
1.58036
0.0536486
1.58646
0.0654823
1.60167
0.0772846
0.0798038
1.52082
-0.0232849
-1.52138
1.52165
-0.0143217
1.52374
-0.00447288
1.52613
0.0058926
1.5312
0.0170673
1.54015
0.0268799
1.55754
0.0362576
1.58025
0.0427712
1.60667
0.0508633
0.0573326
1.4187
-0.0180294
-1.42395
1.41618
-0.0118007
1.41731
-0.00560015
1.42291
0.000289942
1.43405
0.00592084
1.44986
0.0110763
1.4695
0.0166127
1.49031
0.0219689
1.51293
0.0282371
0.0317392
1.26041
-0.0124098
-1.26603
1.25781
-0.00920391
1.25825
-0.00603863
1.26147
-0.00293038
1.26724
0.000158185
1.27514
0.0031767
1.28562
0.00613041
1.29889
0.00870128
1.31597
0.0111481
0.011995
1.12559
-0.00625017
-1.13175
1.12127
-0.00489211
1.1188
-0.00356497
1.11818
-0.0023064
1.11948
-0.00114786
1.12278
-0.000117973
1.12813
0.000774147
1.13533
0.00150946
1.14432
0.00215743
0.00231908
1.10759
-1.11384
1.1027
1.09913
1.09683
1.09568
1.09556
1.09633
1.09784
1.1
1.09111
0.293468
-1.46335
1.15448
-0.137086
1.21459
-0.128426
1.23127
-0.0627864
1.24638
-0.0464135
1.26947
-0.0437092
1.29518
-0.036228
1.32162
-0.0281033
1.34848
-0.0187115
-0.0131754
1.28361
0.189424
-1.17956
1.31256
-0.166037
1.33844
-0.154313
1.36017
-0.0845135
1.37098
-0.057218
1.38658
-0.0593123
1.40732
-0.0569655
1.42868
-0.0494662
1.44963
-0.0396665
-0.0318027
1.41134
0.175784
-1.3977
1.44556
-0.200253
1.45716
-0.165915
1.46622
-0.0935717
1.47417
-0.0651676
1.48223
-0.0673756
1.49318
-0.0679173
1.50471
-0.0609885
1.51438
-0.04934
-0.0377887
1.51208
0.156018
-1.49231
1.50933
-0.19751
1.50718
-0.163763
1.50938
-0.0957649
1.51117
-0.0669574
1.51143
-0.0676416
1.51253
-0.0690157
1.51385
-0.0623089
1.51433
-0.0498242
-0.0365736
1.59671
0.133231
-1.57392
1.56818
-0.168975
1.54924
-0.144828
1.54641
-0.092931
1.54492
-0.0654717
1.53955
-0.0622739
1.53337
-0.0628299
1.52848
-0.0574238
1.52555
-0.0468921
-0.0353503
1.65094
0.101888
-1.6196
1.60888
-0.126919
1.57699
-0.112935
1.56471
-0.0806454
1.55912
-0.0598861
1.55051
-0.0536645
1.53978
-0.0521025
1.53052
-0.0481576
1.5245
-0.0408728
-0.0322364
1.60034
0.05628
-1.55473
1.55286
-0.0794466
1.51428
-0.0743547
1.49345
-0.0598082
1.48155
-0.0479891
1.46965
-0.0417646
1.45599
-0.0384414
1.44275
-0.0349231
1.43194
-0.0300616
-0.0242477
1.44107
0.0124792
-1.39727
1.40243
-0.0408064
1.36845
-0.0403744
1.34486
-0.0362186
1.32817
-0.0312968
1.31367
-0.0272706
1.29945
-0.0242145
1.28604
-0.0215132
1.27466
-0.0186838
-0.015621
1.27228
-0.00353992
-1.25626
1.24814
-0.0166618
1.22473
-0.0169614
1.20463
-0.0161224
1.18792
-0.0145923
1.17361
-0.0129533
1.16088
-0.0114841
1.14954
-0.0101739
1.13976
-0.00890735
-0.00760483
1.2293
-1.23284
1.21264
1.19568
1.17955
1.16496
1.15201
1.14052
1.13035
1.12144
0.13439
0.0804243
-0.0862488
0.154902
0.244717
-0.265229
0.200433
0.441677
-0.487208
0.260921
0.695872
-0.756359
0.323367
0.939306
-1.00175
0.390889
1.14939
-1.21691
0.497094
1.35208
-1.45829
0.636548
1.62742
-1.76688
0.865908
1.75358
-1.98294
1.69637
-2.29381
0.157326
0.0730122
0.179266
0.222777
0.22973
0.391212
0.303764
0.621838
0.38661
0.856459
0.47001
1.06599
0.597792
1.2243
0.758234
1.46698
0.976583
1.53523
1.49339
0.183836
0.0633922
0.20821
0.198404
0.262221
0.3372
0.350588
0.533472
0.460161
0.746887
0.567602
0.958549
0.725312
1.06659
0.912253
1.28004
1.07725
1.37023
1.17294
0.21399
0.0520709
0.241835
0.170559
0.297136
0.281899
0.389696
0.440912
0.53711
0.599473
0.669468
0.826191
0.829349
0.906709
1.08504
1.02435
1.24584
1.20943
0.926464
0.249238
0.0394679
0.278656
0.141141
0.338531
0.222024
0.423615
0.355827
0.574116
0.448973
0.778726
0.621581
0.901473
0.783962
1.19061
0.735208
1.4905
0.909543
0.843043
0.290398
0.0279529
0.322888
0.108651
0.374187
0.170725
0.474133
0.255882
0.563475
0.35963
0.802783
0.382273
0.979967
0.606778
1.2024
0.512773
1.51275
0.599199
0.736192
0.337733
0.0235014
0.374024
0.0723605
0.408995
0.135754
0.510486
0.15439
0.595654
0.274462
0.755169
0.222758
0.997728
0.364219
1.15221
0.358288
1.37993
0.371483
0.561391
0.394463
0.0200573
0.424977
0.0418458
0.47026
0.0904715
0.536929
0.0877218
0.655321
0.15607
0.731138
0.146941
0.912697
0.18266
1.0486
0.222383
1.21626
0.203828
0.380382
0.455483
0.0103812
0.477338
0.0199909
0.527284
0.040525
0.56936
0.0456456
0.661159
0.0642711
0.728605
0.0794954
0.83498
0.0762841
0.957992
0.0993705
1.08235
0.0794685
0.206469
0.52132
0.541311
0.581836
0.627481
0.691752
0.771248
0.847532
0.946902
1.02637
0.0748202
0.0984908
-0.10248
0.085895
0.311248
-0.322323
0.0993079
0.555035
-0.568448
0.108448
0.783824
-0.792964
0.114255
0.973119
-0.978926
0.121689
1.17203
-1.17947
0.128098
1.43188
-1.43828
0.132102
1.70701
-1.71101
0.129096
2.03778
-2.03478
2.48306
-2.43879
0.0743801
0.0949751
0.0844014
0.301227
0.0970422
0.542394
0.105373
0.775493
0.109607
0.968884
0.11517
1.16647
0.119421
1.42763
0.121123
1.70531
0.122208