/*--------------------------------*- C++ -*----------------------------------*\
| =========                 |                                                 |
| \\      /  F ield         | OpenFOAM: The Open Source CFD Toolbox           |
|  \\    /   O peration     | Version:  v1912                                 |
|   \\  /    A nd           | Website:  www.openfoam.com                      |
|    \\/     M anipulation  |                                                 |
\*---------------------------------------------------------------------------*/
FoamFile
{
    version     2.0;
    format      ascii;
    class       surfaceScalarField;
    location    "1";
    object      phi;
}
// * * * * * * * * * * * * * * * * * * * * * * * * * * * * * * * * * * * * * //

dimensions      [0 3 -1 0 0 0 0];
oriented        oriented;


internalField   nonuniform List<scalar> 
18940
(
-3.34642e-05
-0.23786
0.237893
-1.41838e-05
-0.217701
0.217681
4.00637e-05
-0.199162
0.199108
0.000121324
-0.18214
0.182058
0.000210513
-0.166475
0.166385
0.000301805
-0.152033
0.151941
0.000391097
-0.138732
0.138642
0.000478393
-0.126512
0.126424
0.000566793
-0.115319
0.11523
0.000661281
-0.105096
0.105001
0.000767861
-0.0957816
0.095675
0.000892863
-0.08731
0.087185
0.00104238
-0.0796127
0.0794631
0.00122187
-0.0726207
0.0724412
0.00143583
-0.0662674
0.0660534
0.0016877
-0.0604895
0.0602376
0.00197972
-0.0552292
0.0549372
0.00231291
-0.0504347
0.0501015
0.00268717
-0.0460601
0.0456858
-0.0420656
0.0416513
0.00310145
-1.76276e-05
-0.237842
9.35615e-06
-0.217728
7.2601e-05
-0.199225
0.000162086
-0.182229
0.000260201
-0.166573
0.000358892
-0.152131
0.000454915
-0.138828
0.00054853
-0.126605
0.000642979
-0.115413
0.000743487
-0.105196
0.000856332
-0.0958945
0.000988111
-0.0874418
0.00114517
-0.0797697
0.0013332
-0.0728087
0.00155687
-0.066491
0.00181976
-0.0607524
0.00212415
-0.0555336
0.0024711
-0.0507816
0.00286046
-0.0464494
-0.0424962
0.00329103
-3.05279e-06
-0.237839
3.25921e-05
-0.217763
0.000105888
-0.199298
0.000202596
-0.182326
0.000308667
-0.166679
0.0004148
-0.152238
0.000517453
-0.13893
0.000617122
-0.126705
0.000717299
-0.115513
0.000823484
-0.105303
0.00094225
-0.0960132
0.0010805
-0.0875801
0.00124486
-0.0799341
0.00144127
-0.0730051
0.00167464
-0.0667244
0.00194869
-0.0610264
0.00226581
-0.0558507
0.00262706
-0.0511429
0.00303225
-0.0468546
-0.042944
0.00348008
4.92018e-06
-0.237844
5.1362e-05
-0.21781
0.000135885
-0.199383
0.000241281
-0.182431
0.00035542
-0.166793
0.000468886
-0.152351
0.000577927
-0.139039
0.000683258
-0.12681
0.000788687
-0.115619
0.00090003
-0.105414
0.00102418
-0.0961374
0.00116835
-0.0877242
0.0013395
-0.0801052
0.00154383
-0.0732095
0.00178652
-0.0669671
0.00207147
-0.0613114
0.00240119
-0.0561805
0.00277678
-0.0515185
0.003198
-0.0472758
-0.0434094
0.00366345
1.13999e-05
-0.237855
6.80068e-05
-0.217866
0.000162754
-0.199478
0.000277798
-0.182546
0.000400122
-0.166915
0.000520588
-0.152471
0.000635555
-0.139154
0.000745986
-0.126921
0.000856027
-0.115729
0.000971832
-0.10553
0.00110063
-0.0962662
0.00124996
-0.0878736
0.00142711
-0.0802824
0.0016386
-0.073421
0.00188987
-0.0672184
0.00218505
-0.0616066
0.00252679
-0.0565222
0.00291627
-0.051908
0.0033532
-0.0477128
-0.0438923
0.00383604
1.6737e-05
-0.237872
8.28053e-05
-0.217932
0.000187532
-0.199582
0.000312121
-0.182671
0.000442448
-0.167045
0.000569432
-0.152598
0.000689684
-0.139274
0.000804484
-0.127036
0.000918327
-0.115843
0.00103772
-0.105649
0.00117022
-0.0963987
0.00132372
-0.0880271
0.00150582
-0.0804645
0.00172338
-0.0736385
0.00198216
-0.0674772
0.00228652
-0.0619109
0.00263929
-0.056875
0.00304174
-0.0523104
0.00349356
-0.0481646
-0.0443918
0.00399308
2.15011e-05
-0.237893
9.64429e-05
-0.218007
0.000210814
-0.199697
0.000344441
-0.182805
0.000482221
-0.167183
0.000615026
-0.152731
0.000739746
-0.139399
0.00085801
-0.127154
0.000974678
-0.115959
0.00109661
-0.105771
0.00123169
-0.0965338
0.00138813
-0.0881835
0.00157388
-0.0806502
0.00179615
-0.0738608
0.00206101
-0.067742
0.00237312
-0.062223
0.00273554
-0.0572374
0.00314962
-0.0527245
0.00361506
-0.04863
-0.0449068
0.00413007
2.58356e-05
-0.237919
0.000109183
-0.218091
0.00023277
-0.19982
0.0003748
-0.182947
0.000519282
-0.167328
0.000657041
-0.152869
0.000785256
-0.139527
0.000905931
-0.127274
0.0010243
-0.116078
0.00114755
-0.105894
0.0012839
-0.0966701
0.00144186
-0.0883415
0.00162971
-0.0808381
0.00185503
-0.0740861
0.00212423
-0.0680112
0.00244233
-0.0625411
0.00281262
-0.0576077
0.0032366
-0.0531485
0.00371399
-0.0491074
-0.0454357
0.00424286
2.98307e-05
-0.237949
0.000121202
-0.218182
0.000253525
-0.199953
0.000403229
-0.183096
0.000553521
-0.167478
0.000695221
-0.153011
0.000825825
-0.139658
0.000947729
-0.127396
0.00106653
-0.116197
0.00118976
-0.106018
0.00132589
-0.0968063
0.00148376
-0.0884993
0.00167194
-0.0810263
0.00189837
-0.0743125
0.00216987
-0.0682827
0.00249182
-0.0628631
0.00286784
-0.0579837
0.00329961
-0.0535802
0.00378689
-0.0495947
-0.0459764
0.00432764
3.35249e-05
-0.237983
0.000132622
-0.218281
0.000273182
-0.200093
0.000429761
-0.183253
0.000584867
-0.167633
0.000729386
-0.153155
0.00086117
-0.13979
0.000983016
-0.127518
0.00110089
-0.116314
0.00122261
-0.106139
0.00135694
-0.0969406
0.00151292
-0.0886553
0.00169945
-0.0812128
0.0019248
-0.0745379
0.00219622
-0.0685541
0.00251953
-0.0631864
0.00289875
-0.0583629
0.00333583
-0.0540173
0.00383059
-0.0500895
-0.0465267
0.00438086
3.69699e-05
-0.23802
0.000143579
-0.218388
0.000291875
-0.200242
0.000454475
-0.183416
0.000613318
-0.167792
0.000759454
-0.153301
0.000891126
-0.139921
0.00101155
-0.127639
0.00112705
-0.11643
0.00124572
-0.106258
0.00137653
-0.0970714
0.00152872
-0.0888075
0.00171141
-0.0813955
0.00193323
-0.0747597
0.00220188
-0.0688228
0.00252368
-0.0635082
0.00290315
-0.0587424
0.00334261
-0.0544568
0.00384205
-0.0505889
-0.0470838
0.00439915
4.0242e-05
-0.23806
0.000154265
-0.218502
0.0003098
-0.200397
0.000477514
-0.183583
0.000638951
-0.167953
0.000785438
-0.153448
0.000915659
-0.140052
0.00103326
-0.127756
0.0011449
-0.116542
0.00125892
-0.106372
0.00138445
-0.0971969
0.00153084
-0.0889539
0.0017074
-0.081572
0.00192302
-0.0749753
0.00218585
-0.0690856
0.00250283
-0.0638252
0.0028791
-0.0591187
0.00331753
-0.0548952
0.00381837
-0.0510897
-0.0476446
0.00437917
4.35152e-05
-0.238103
0.000164986
-0.218623
0.00032726
-0.200559
0.000499112
-0.183755
0.000661939
-0.168116
0.000807466
-0.153593
0.000934868
-0.140179
0.00104822
-0.12787
0.00115453
-0.116648
0.00126231
-0.10648
0.0013808
-0.0973154
0.00151939
-0.0890925
0.00168742
-0.0817401
0.00189399
-0.0751819
0.00214768
-0.0693393
0.00245607
-0.0641336
0.0028251
-0.0594877
0.00325841
-0.0553285
0.00375672
-0.0515881
-0.0482054
0.00431751
4.71345e-05
-0.23815
0.000176246
-0.218752
0.000344695
-0.200728
0.000519605
-0.18393
0.000682536
-0.168279
0.00082576
-0.153737
0.000948976
-0.140302
0.0010567
-0.127977
0.00115623
-0.116747
0.00125628
-0.10658
0.00136607
-0.0974252
0.00149492
-0.0892213
0.00165209
-0.0818972
0.0018467
-0.0753765
0.00208765
-0.0695803
0.00238318
-0.0644291
0.00274021
-0.0598447
0.00316346
-0.0557518
0.00365441
-0.052079
-0.0487615
0.00421057
5.17415e-05
-0.238202
0.000188795
-0.21889
0.000362672
-0.200902
0.00053939
-0.184107
0.000701061
-0.168441
0.000840619
-0.153876
0.000958308
-0.14042
0.00105907
-0.128078
0.00115052
-0.116839
0.00124147
-0.106671
0.00134111
-0.0975248
0.00145854
-0.0893388
0.00160273
-0.0820414
0.00178259
-0.0755564
0.00200712
-0.0698048
0.00228511
-0.0647071
0.00262459
-0.0601842
0.0030317
-0.0561589
0.00350917
-0.0525565
-0.049307
0.00405468
5.83026e-05
-0.23826
0.000203509
-0.219035
0.000381751
-0.20108
0.000558866
-0.184284
0.000717867
-0.1686
0.000852399
-0.154011
0.000963273
-0.140531
0.00105586
-0.128171
0.00113806
-0.116921
0.00121881
-0.106751
0.00130717
-0.0976132
0.0014119
-0.0894435
0.00154148
-0.082171
0.00170429
-0.0757192
0.00190902
-0.0700095
0.00216471
-0.0649628
0.00248041
-0.0604999
0.00286405
-0.0565425
0.0033204
-0.0530128
-0.0498345
0.00384785
6.79912e-05
-0.238328
0.000221299
-0.219188
0.000402542
-0.201261
0.000578522
-0.18446
0.00073338
-0.168755
0.000861506
-0.154139
0.000964307
-0.140634
0.00104762
-0.128254
0.00111962
-0.116993
0.00118936
-0.106821
0.00126575
-0.0976896
0.00135714
-0.0895349
0.00147129
-0.0822851
0.00161572
-0.0758636
0.00179826
-0.070192
0.00202756
-0.0651921
0.00231322
-0.0607856
0.00266504
-0.0568943
0.00309108
-0.0534388
-0.0503354
0.00359201
8.28259e-05
-0.238411
0.000244312
-0.21935
0.000426512
-0.201443
0.000599218
-0.184633
0.000748062
-0.168904
0.000868219
-0.154259
0.000961688
-0.140727
0.00103474
-0.128327
0.00109584
-0.117054
0.00115414
-0.10688
0.00121843
-0.0977539
0.00129662
-0.0896131
0.00139565
-0.0823842
0.00152182
-0.0759898
0.00168147
-0.0703517
0.00188194
-0.0653925
0.00213225
-0.0610359
0.00244308
-0.0572052
0.00282624
-0.053822
-0.050799
0.00328982
0.000110063
-0.238521
0.000278684
-0.219518
0.00045653
-0.201621
0.000621785
-0.184798
0.00076187
-0.169044
0.000872289
-0.154369
0.000955232
-0.14081
0.00101723
-0.128389
0.00106701
-0.117104
0.00111387
-0.106926
0.00116656
-0.0978066
0.00123269
-0.0896792
0.00131845
-0.0824699
0.00142878
-0.0761001
0.00156802
-0.0704909
0.00174093
-0.0655655
0.0019537
-0.0612487
0.00221413
-0.0574656
0.00253531
-0.0541432
-0.05121
0.00294636
0.000170417
-0.238692
0.000330455
-0.219678
0.000493216
-0.201784
0.000644797
-0.184949
0.000773546
-0.169172
0.000872858
-0.154469
0.00094439
-0.140882
0.000994781
-0.128439
0.00103301
-0.117142
0.00106866
-0.106962
0.00111069
-0.0978486
0.00116676
-0.0897353
0.00124286
-0.082546
0.00134332
-0.0762006
0.00147116
-0.0706188
0.00162889
-0.0657232
0.00181875
-0.0614385
0.00203994
-0.0576868
0.00228911
-0.0543924
-0.0515319
0.00261097
0.239938
0.000109657
-0.240047
0.239858
8.00657e-05
0.239788
6.99819e-05
0.239721
6.66887e-05
0.239655
6.59867e-05
0.239588
6.70153e-05
0.239519
6.88724e-05
0.239448
7.09307e-05
0.239375
7.27955e-05
0.239301
7.42603e-05
0.239226
7.52052e-05
0.23915
7.55618e-05
0.239075
7.52625e-05
0.239001
7.42265e-05
0.238929
7.2274e-05
0.238859
6.91359e-05
0.238796
6.37785e-05
0.23874
5.55295e-05
0.238705
3.54935e-05
1.27989e-05
0.221905
0.000152837
-0.221949
0.221842
0.000143077
0.22177
0.000142816
0.221688
0.000148475
0.221597
0.00015641
0.221499
0.000165444
0.221393
0.000174812
0.22128
0.000183926
0.221161
0.000192294
0.221035
0.000199579
0.220905
0.000205555
0.22077
0.000210046
0.220633
0.00021288
0.220493
0.000213856
0.220353
0.000212652
0.220213
0.000208839
0.220076
0.000201276
0.219942
0.000189412
0.219809
0.000168126
0.000143625
0.203831
0.000118638
-0.203797
0.203837
0.000136891
0.203823
0.000157686
0.20379
0.000181304
0.20374
0.000205847
0.203676
0.000229938
0.203598
0.000253114
0.203506
0.000275036
0.203403
0.000295239
0.20329
0.000313363
0.203166
0.000329148
0.203034
0.000342367
0.202894
0.000352786
0.202748
0.000360165
0.202596
0.000364175
0.20244
0.000364448
0.202281
0.000360214
0.20212
0.000351168
0.201953
0.000334707
0.000312781
0.186228
5.60151e-06
-0.186115
0.186312
5.27908e-05
0.186373
9.66679e-05
0.186412
0.00014239
0.186429
0.000188758
0.186426
0.00023258
0.186405
0.000274238
0.186367
0.000313519
0.186312
0.000349917
0.186242
0.000383125
0.186159
0.000412882
0.186062
0.000438914
0.185954
0.000460965
0.185835
0.000478798
0.185707
0.000492146
0.185571
0.000500739
0.185427
0.000504138
0.185276
0.000502171
0.185117
0.000493863
0.000480337
0.169483
-0.000178284
-0.169299
0.16964
-0.000104581
0.169775
-3.80831e-05
0.169886
3.11155e-05
0.169972
0.00010312
0.170036
0.000168503
0.170078
0.000232256
0.170099
0.000291836
0.170102
0.000347315
0.170087
0.000398505
0.170054
0.000445188
0.170006
0.000487033
0.169943
0.000523755
0.169867
0.000555134
0.169778
0.000580961
0.169678
0.000601062
0.169567
0.000615236
0.169446
0.000623448
0.169314
0.000625496
0.000621905
0.153847
-0.000427252
-0.153598
0.154069
-0.00032716
0.154261
-0.000230306
0.154427
-0.000134542
0.154575
-4.49987e-05
0.154702
4.20692e-05
0.154802
0.000131985
0.15488
0.000213676
0.154937
0.000290365
0.154974
0.000361589
0.154992
0.000427233
0.154992
0.000486963
0.154975
0.000540466
0.154943
0.000587535
0.154896
0.00062801
0.154835
0.000661795
0.154761
0.000688848
0.154676
0.000709256
0.154578
0.000723192
0.000731051
0.139482
-0.000726289
-0.139183
0.139754
-0.000598996
0.139998
-0.000474766
0.140217
-0.000353733
0.140409
-0.000236646
0.140574
-0.000122778
0.140725
-1.89438e-05
0.140849
8.98946e-05
0.14095
0.00018877
0.14103
0.000281653
0.14109
0.000367708
0.14113
0.000446709
0.141152
0.00051837
0.141157
0.000582496
0.141146
0.000638973
0.14112
0.000687768
0.14108
0.00072895
0.141026
0.000762718
0.14096
0.000789469
0.000809616
0.126484
-0.00106125
-0.126149
0.126791
-0.000906529
0.127072
-0.000755174
0.127326
-0.000607532
0.127553
-0.000464
0.127756
-0.000325354
0.127929
-0.000192633
0.128084
-6.52396e-05
0.128219
5.43567e-05
0.128329
0.000171536
0.128418
0.00027899
0.128486
0.000378149
0.128536
0.000468839
0.128567
0.00055083
0.128582
0.000624047
0.128582
0.000688524
0.128566
0.000744415
0.128537
0.000792025
0.128494
0.000831914
0.000864595
0.114876
-0.00141843
-0.114519
0.115205
-0.00123561
0.115507
-0.00105646
0.115781
-0.000881534
0.116028
-0.000711344
0.116249
-0.000546566
0.116444
-0.000387892
0.116615
-0.000235843
0.116761
-9.16088e-05
0.11689
4.24547e-05
0.116994
0.000174937
0.117078
0.00029455
0.117142
0.000404731
0.117188
0.00050502
0.117216
0.000595297
0.117229
0.000675653
0.117227
0.000746323
0.117212
0.000807719
0.117183
0.000860554
0.000905545
0.104627
-0.00178484
-0.10426
0.104964
-0.00157297
0.105273
-0.00136518
0.105553
-0.00116215
0.105807
-0.000964501
0.106033
-0.00077293
0.106233
-0.00058824
0.106409
-0.000411011
0.106559
-0.000242326
0.106685
-8.36249e-05
0.106794
6.62896e-05
0.106879
0.000209108
0.106945
0.000338903
0.106993
0.000457588
0.107023
0.000564949
0.107038
0.00066105
0.107038
0.000746181
0.107025
0.000820874
0.106999
0.000886012
0.000942654
0.0956635
-0.0021488
-0.0952995
0.0959973
-0.00190674
0.0963014
-0.00166928
0.0965764
-0.00143721
0.0968232
-0.00121124
0.0970424
-0.000992159
0.097235
-0.000780819
0.0974019
-0.000577931
0.097544
-0.00038441
0.0976615
-0.000201131
0.0977583
-3.05317e-05
0.0978343
0.000133065
0.0978901
0.000283153
0.0979275
0.000420157
0.0979481
0.000544354
0.0979534
0.000655798
0.0979448
0.000754769
0.0979237
0.000841913
0.0978915
0.000918299
0.000985521
0.087888
-0.0025002
-0.0875366
0.088208
-0.0022267
0.0884972
-0.00195846
0.0887563
-0.00169635
0.0889863
-0.00144118
0.0891879
-0.00119384
0.0893623
-0.000955205
0.0895105
-0.000726098
0.0896335
-0.000507404
0.0897325
-0.000300159
0.0898077
-0.000105706
0.089864
7.67324e-05
0.0898997
0.000247501
0.0899172
0.000402604
0.0899183
0.000543279
0.0899046
0.00066948
0.089878
0.000781434
0.08984
0.000879878
0.0897922
0.000966062
0.00104244
0.0811865
-0.00283077
-0.080856
0.0814844
-0.00252458
0.0817504
-0.00222441
0.0819853
-0.00193126
0.0821901
-0.00164603
0.082366
-0.00136969
0.0825139
-0.00110317
0.0826352
-0.000847318
0.0827308
-0.000603031
0.082802
-0.000371383
0.0828498
-0.000153534
0.0828774
4.91314e-05
0.0828851
0.000239885
0.0828748
0.000412822
0.0828486
0.000569534
0.0828083
0.000709787
0.082756
0.000833698
0.0826938
0.000942044
0.0826237
0.00103622
0.00112011
0.0754389
-0.00313421
-0.0751355
0.0757085
-0.00279409
0.075945
-0.00246091
0.0761494
-0.00213576
0.0763231
-0.00181966
0.0764671
-0.00151366
0.0765826
-0.00121872
0.0766709
-0.000935647
0.0767332
-0.000665339
0.0767709
-0.000409032
0.0767854
-0.000168078
0.0767784
5.61771e-05
0.0767524
0.000265891
0.0767087
0.000456511
0.0766494
0.000628782
0.0765769
0.000782334
0.0764935
0.000917085
0.0764018
0.00103376
0.0763042
0.00113385
0.00122369
0.0705259
-0.00340618
-0.0702539
0.0707628
-0.003031
0.0709657
-0.0026638
0.0711357
-0.00230578
0.0712741
-0.0019581
0.0713824
-0.00162189
0.0714617
-0.00129808
0.0715135
-0.00098739
0.0715388
-0.000690648
0.0715392
-0.000409435
0.0715164
-0.000145335
0.0714718
0.000100808
0.0714085
0.000329169
0.0713279
0.000537177
0.0712321
0.000724534
0.0711238
0.000890643
0.0710058
0.00103512
0.070881
0.00115849
0.0707525
0.00126236
0.00135745
0.0663336
-0.00364428
-0.0660955
0.0665357
-0.00323304
0.0667028
-0.00283094
0.0668363
-0.00243929
0.0669376
-0.00205942
0.0670083
-0.00169254
0.0670498
-0.00133958
0.0670634
-0.00100099
0.0670502
-0.000677412
0.0670117
-0.000370983
0.0669501
-8.37468e-05
0.0668669
0.000184029
0.0667649
0.000431126
0.066646
0.000656155
0.0665123
0.000858153
0.0663668
0.00103617
0.0662126
0.00118938
0.0660531
0.001318
0.0658914
0.00142399
0.00152569
0.0627577
-0.00384786
-0.0625541
0.0629244
-0.00339973
0.0630554
-0.00296197
0.0631522
-0.00253606
0.0632163
-0.00212352
0.0632494
-0.00172571
0.0632533
-0.0013435
0.0632292
-0.000976842
0.0631779
-0.00062609
0.0631011
-0.000294177
0.0630014
1.59656e-05
0.0628802
0.000305183
0.0627404
0.000570928
0.0625839
0.000812654
0.0624131
0.00102891
0.062231
0.00121833
0.0620407
0.00137964
0.0618459
0.00151276
0.0616485
0.00162142
0.00173569
0.0597043
-0.00401785
-0.0595343
0.0598368
-0.00353219
0.059933
-0.00305819
0.0599945
-0.00259754
0.060023
-0.002152
0.0600205
-0.00172321
0.0599889
-0.00131194
0.0599292
-0.000917134
0.0598417
-0.00053859
0.0597299
-0.000182394
0.0595939
0.000151938
0.0594378
0.000461357
0.059263
0.000745707
0.0590718
0.00100382
0.0588667
0.001234
0.0586505
0.00143452
0.0584264
0.0016038
0.058197
0.0017421
0.0579584
0.00186001
0.00200734
0.0570909
-0.00415663
-0.0569521
0.0571917
-0.00363302
0.0572559
-0.00312239
0.057285
-0.00262661
0.0572808
-0.00214786
0.057246
-0.00168836
0.057183
-0.00124898
0.0570925
-0.000826606
0.056972
-0.000418045
0.0568295
-3.99461e-05
0.0566618
0.000319671
0.0564752
0.000647886
0.0562704
0.000950578
0.0560494
0.00122478
0.0558149
0.00146855
0.0555694
0.00167999
0.0553155
0.00185769
0.0550539
0.00200367
0.0547686
0.00214538
0.00238353
0.0548453
-0.0547342
-0.00426773
0.0549183
-0.00370599
0.0549544
-0.00315848
0.054955
-0.00262724
0.0549221
-0.00211493
0.0548588
-0.00162506
0.0547697
-0.00115988
0.0546558
-0.000712748
0.0545136
-0.000275834
0.0543345
0.000139128
0.0541464
0.00050779
0.053936
0.00085832
0.0537073
0.00117923
0.053463
0.00146905
0.0532057
0.00172593
0.0529376
0.00194805
0.0526601
0.00213518
0.0523676
0.00229622
0.0520237
0.00248927
0.0028753
0.23961
9.7309e-06
-0.23962
0.239652
-4.23406e-05
0.239712
-5.99297e-05
0.239777
-6.45618e-05
0.239841
-6.44725e-05
0.239902
-6.06193e-05
0.239956
-5.4439e-05
0.240003
-4.70076e-05
0.240042
-3.90242e-05
0.240073
-3.08726e-05
0.240096
-2.27877e-05
0.240111
-1.49165e-05
0.240118
-7.38401e-06
0.240119
-3.02422e-07
0.240113
6.155e-06
0.240101
1.17687e-05
0.240085
1.58743e-05
0.240067
1.80908e-05
0.240054
1.31146e-05
6.42532e-06
0.219732
-0.000235931
-0.219486
0.219955
-0.000266075
0.220172
-0.000276577
0.220381
-0.000273309
0.22058
-0.000263653
0.220769
-0.000249507
0.220946
-0.000231915
0.221111
-0.00021187
0.221262
-0.000190217
0.221399
-0.000167587
0.221521
-0.000144447
0.221627
-0.000121176
0.221718
-9.81165e-05
0.221793
-7.56175e-05
0.221853
-5.41084e-05
0.221899
-3.41053e-05
0.221932
-1.65416e-05
0.221951
-1.78743e-06
0.221957
7.45932e-06
1.49581e-05
0.199602
-0.00063559
-0.199202
0.199974
-0.000637963
0.200328
-0.000630774
0.200668
-0.000613213
0.200993
-0.000589254
0.201305
-0.000560686
0.201601
-0.000528204
0.201881
-0.000492487
0.202145
-0.00045424
0.202392
-0.00041413
0.20262
-0.000372736
0.20283
-0.000330572
0.20302
-0.000288132
0.20319
-0.000245926
0.20334
-0.000204533
0.203471
-0.000164646
0.203582
-0.000127406
0.203674
-9.41212e-05
0.203746
-6.40521e-05
-3.6435e-05
0.180138
-0.00112894
-0.179644
0.180612
-0.00111185
0.181069
-0.00108812
0.181512
-0.00105613
0.18194
-0.00101764
0.182354
-0.000973935
0.182751
-0.000925622
0.183132
-0.00087325
0.183495
-0.000817443
0.18384
-0.000758864
0.184165
-0.000698144
0.18447
-0.000635889
0.184755
-0.000572701
0.185018
-0.000509194
0.18526
-0.000446037
0.185479
-0.000383939
0.185675
-0.000323724
0.185847
-0.000265895
0.185994
-0.000210665
-0.00015757
0.161814
-0.00168918
-0.161253
0.162361
-0.00165893
0.162895
-0.00162215
0.163416
-0.00157759
0.163925
-0.00152594
0.164419
-0.00146807
0.164898
-0.00140453
0.16536
-0.00133587
0.165806
-0.0012627
0.166232
-0.0011857
0.16664
-0.00110557
0.167027
-0.00102299
0.167393
-0.000938628
0.167737
-0.000853191
0.168058
-0.000767387
0.168356
-0.000681917
0.16863
-0.000597464
0.168879
-0.00051457
0.169102
-0.000433678
-0.000354816
0.144865
-0.0023029
-0.144251
0.14547
-0.0022637
0.146064
-0.00221691
0.146648
-0.00216176
0.147221
-0.00209847
0.147781
-0.00202763
0.148326
-0.00194976
0.148855
-0.00186544
0.149368
-0.00177535
0.149863
-0.00168021
0.150338
-0.0015808
0.150793
-0.00147787
0.151226
-0.00137219
0.151638
-0.00126455
0.152026
-0.0011557
0.15239
-0.00104641
0.15273
-0.000937403
0.153045
-0.000829348
0.153334
-0.000722781
-0.000618224
0.129419
-0.00296506
-0.128757
0.130075
-0.00291938
0.130722
-0.00286453
0.131361
-0.00280007
0.131988
-0.002726
0.132603
-0.00264278
0.133205
-0.00255093
0.13379
-0.00245111
0.134359
-0.0023441
0.134909
-0.00223071
0.13544
-0.00211178
0.135951
-0.00198819
0.136439
-0.0018608
0.136905
-0.00173049
0.137348
-0.00159811
0.137766
-0.0014645
0.138159
-0.00133049
0.138526
-0.00119683
0.138868
-0.00106417
-0.000933266
0.115534
-0.00367499
-0.114824
0.116238
-0.00362379
0.116935
-0.00356158
0.117623
-0.00348803
0.1183
-0.00340307
0.118965
-0.00330711
0.119614
-0.00320076
0.120248
-0.0030848
0.120864
-0.00296011
0.121461
-0.00282762
0.122037
-0.00268829
0.122592
-0.00254312
0.123125
-0.00239308
0.123633
-0.00223916
0.124118
-0.00208231
0.124577
-0.0019235
0.12501
-0.00176361
0.125416
-0.00160353
0.125796
-0.00144403
-0.001286
0.103213
-0.0044332
-0.102454
0.103965
-0.00437621
0.10471
-0.00430614
0.105444
-0.00422264
0.106167
-0.00412564
0.106875
-0.00401562
0.107568
-0.00389331
0.108243
-0.00375966
0.108898
-0.00361568
0.109533
-0.00346246
0.110146
-0.00330112
0.110736
-0.00313276
0.111301
-0.0029585
0.111841
-0.00277945
0.112356
-0.00259669
0.112843
-0.00241128
0.113304
-0.00222424
0.113737
-0.00203656
0.114142
-0.00184913
-0.00166297
0.092417
-0.00523932
-0.0916109
0.0932161
-0.00517532
0.0940059
-0.00509593
0.0947839
-0.00500069
0.0955479
-0.00488961
0.0962956
-0.00476331
0.097025
-0.00462274
0.0977344
-0.00446902
0.0984221
-0.00430339
0.0990867
-0.0041271
0.099727
-0.00394143
0.100342
-0.00374765
0.10093
-0.00354704
0.101492
-0.00334083
0.102025
-0.00313024
0.102531
-0.00291643
0.103007
-0.00270057
0.103454
-0.00248374
0.103872
-0.00226698
-0.00205143
0.0830729
-0.00609111
-0.0822211
0.0839159
-0.00601833
0.0847475
-0.00592751
0.0855648
-0.00581802
0.0863653
-0.0056901
0.0871466
-0.00554459
0.0879066
-0.00538272
0.0886435
-0.00520591
0.0893557
-0.00501561
0.0900419
-0.00481332
0.090701
-0.00460052
0.091332
-0.00437864
0.091934
-0.00414911
0.0925065
-0.00391332
0.0930489
-0.00367262
0.0935608
-0.00342831
0.0940419
-0.00318166
0.094492
-0.0029339
0.0949112
-0.00268618
-0.00243974
0.0750776
-0.00698435
-0.0741843
0.0759602
-0.006901
0.076829
-0.00679625
0.0776805
-0.00666951
0.0785118
-0.0065214
0.0793203
-0.00635315
0.080104
-0.0061664
0.080861
-0.00596293
0.0815899
-0.00574454
0.0822896
-0.00551295
0.0829589
-0.00526985
0.0835971
-0.00501689
0.0842037
-0.00475564
0.084778
-0.00448764
0.0853198
-0.00421438
0.0858287
-0.00393729
0.0863048
-0.00365776
0.0867481
-0.00337714
0.0871586
-0.0030967
-0.00281778
0.0683075
-0.00791333
-0.0673785
0.0692246
-0.00781814
0.0701252
-0.00769679
0.071005
-0.00754934
0.0718608
-0.00737718
0.0726898
-0.00718215
0.0734899
-0.00696652
0.0742595
-0.00673254
0.0749974
-0.00648237
0.0757024
-0.006218
0.0763739
-0.00594134
0.0770112
-0.00565422
0.077614
-0.00535838
0.0781818
-0.0050555
0.0787147
-0.00474719
0.0792124
-0.00443503
0.0796751
-0.0041205
0.0801031
-0.00380509
0.0804966
-0.00349017
-0.00317719
0.0626268
-0.00887179
-0.0616683
0.0635731
-0.00876444
0.0644999
-0.00862358
0.065402
-0.00845144
0.0662756
-0.00825081
0.067118
-0.00802457
0.0679273
-0.0077758
0.0687021
-0.00750733
0.0694414
-0.00722166
0.0701444
-0.00692106
0.0708107
-0.00660764
0.0714399
-0.00628338
0.0720317
-0.00595018
0.0725861
-0.00560985
0.073103
-0.00526413
0.0735827
-0.0049147
0.0740253
-0.00456317
0.0744314
-0.00421112
0.0748012
-0.00386004
-0.00351147
0.0578954
-0.00985396
-0.0569132
0.0588663
-0.00973532
0.059814
-0.00957133
0.0607323
-0.00936966
0.061617
-0.00913559
0.0624658
-0.00887339
0.0632772
-0.00858718
0.0640502
-0.00828032
0.0647842
-0.00795563
0.0654787
-0.00761558
0.0661335
-0.00726243
0.0667484
-0.0068983
0.0673235
-0.00652522
0.0678587
-0.0061451
0.0683544
-0.00575981
0.0688108
-0.00537112
0.0692284
-0.00498076
0.0696077
-0.0045904
0.0699493
-0.00420163
-0.00381608
0.0539763
-0.0108558
-0.0529745
0.0549684
-0.0107274
0.0559322
-0.0105351
0.0568604
-0.0102979
0.0577496
-0.0100248
0.058598
-0.00972186
0.059405
-0.00939413
0.06017
-0.00904537
0.0608929
-0.00867852
0.0615735
-0.00829617
0.0622117
-0.00790068
0.0628077
-0.00749429
0.0633616
-0.00707912
0.0638737
-0.00665719
0.0643444
-0.00623045
0.064774
-0.00580079
0.0651633
-0.00537001
0.0655128
-0.00493989
0.0658232
-0.0045121
-0.00408838
0.0507406
-0.0118774
-0.049719
0.0517524
-0.0117392
0.0527273
-0.01151
0.0536592
-0.0112297
0.0545462
-0.0109118
0.055388
-0.0105637
0.0561849
-0.010191
0.0569369
-0.00979734
0.0576441
-0.00938571
0.0583066
-0.0089587
0.0589246
-0.00851872
0.0594984
-0.00806809
0.0600283
-0.00760901
0.0605147
-0.00714358
0.0609581
-0.00667387
0.0613592
-0.00620181
0.0617185
-0.00572932
0.0620368
-0.00525824
0.062315
-0.00479034
-0.00432744
0.0480722
-0.0129303
-0.0470193
0.0491032
-0.0127702
0.0500837
-0.0124906
0.0510125
-0.0121585
0.0518911
-0.0117904
0.052721
-0.0113936
0.0535032
-0.0109732
0.0542382
-0.0105324
0.0549265
-0.0100739
0.0555682
-0.00960041
0.0561637
-0.00911424
0.0567134
-0.00861781
0.0572178
-0.00811339
0.0576774
-0.00760319
0.0580928
-0.0070893
0.0584648
-0.00657377
0.058794
-0.00605856
0.0590814
-0.00554561
0.0593278
-0.00503677
-0.00453393
0.0458778
-0.0140356
-0.0447725
0.0469193
-0.0138117
0.047897
-0.0134682
0.0488158
-0.0130773
0.0496806
-0.0126553
0.0504945
-0.0122075
0.0512589
-0.0117375
0.0519745
-0.0112479
0.0526417
-0.0107412
0.053261
-0.0102198
0.053833
-0.00968615
0.054358
-0.00914281
0.0548366
-0.00859206
0.0552696
-0.00803616
0.0556576
-0.00747729
0.0560013
-0.00691754
0.0563017
-0.00635896
0.0565597
-0.00580353
0.0567761
-0.00525319
-0.00470993
0.0440739
-0.0429661
-0.0151434
0.0451046
-0.0148424
0.0460706
-0.0144343
0.0469752
-0.0139819
0.0478236
-0.0135037
0.0486195
-0.0130034
0.0493644
-0.0124825
0.0500593
-0.0119428
0.0507048
-0.0113866
0.0513014
-0.0108164
0.0518497
-0.0102345
0.0523504
-0.00964353
0.0528042
-0.00904584
0.0532118
-0.00844373
0.0535739
-0.00783941
0.0538914
-0.00723505
0.0541652
-0.00663275
0.0543962
-0.00603457
0.0545856
-0.0054425
-0.00485859
0.0112053
0.0197731
-0.0185106
-0.0124677
0.00998589
0.0219399
-0.0207205
0.00882364
0.0246343
-0.023472
0.0077328
0.0279668
-0.026876
0.00672672
0.0320543
-0.0310482
0.00581661
0.0370143
-0.0361041
0.0050101
0.0429598
-0.0421533
0.00430988
0.0499925
-0.0492923
0.00371267
0.0581965
-0.0575993
0.00320876
0.0676344
-0.0671305
0.00278237
0.0783467
-0.0779204
0.00241295
0.0903563
-0.0899869
0.00207744
0.103678
-0.103342
0.00175323
0.118331
-0.118007
0.00142191
0.134354
-0.134023
0.00107335
0.151816
-0.151468
0.000710899
0.170812
-0.17045
0.000358344
0.19144
-0.191087
8.00176e-05
0.213656
-0.213378
0.237024
-0.236944
0.0117115
0.0210458
-0.0129843
0.0104784
0.023173
0.00929835
0.0258143
0.00818523
0.0290799
0.00715222
0.0330873
0.00621069
0.0379558
0.00536881
0.0438017
0.00463017
0.0507312
0.00399266
0.058834
0.00344796
0.0681791
0.00298171
0.078813
0.00257467
0.0907634
0.00220484
0.104048
0.0018505
0.118685
0.00149392
0.134711
0.00112588
0.152185
0.00075105
0.171187
0.000395337
0.191795
0.000116267
0.213935
0.23714
0.0121827
0.022326
-0.0134629
0.0109387
0.024417
0.00974381
0.0270091
0.00861148
0.0302122
0.00755464
0.0341441
0.00658477
0.0389257
0.00571047
0.044676
0.00493612
0.0515055
0.00426074
0.0595094
0.0036773
0.0687626
0.00317284
0.0793175
0.00272945
0.0912068
0.00232631
0.104451
0.00194257
0.119069
0.00156123
0.135092
0.00117359
0.152572
0.000784776
0.171576
0.000420056
0.19216
0.000131647
0.214224
0.237272
0.0126181
0.0236112
-0.0139033
0.0113659
0.0256692
0.0101591
0.028216
0.00901045
0.0313609
0.0079328
0.0352218
0.00693759
0.0399209
0.0060338
0.0455798
0.0052265
0.0523128
0.00451572
0.0602202
0.0038957
0.0693826
0.00335481
0.0798583
0.00287648
0.0916851
0.00244101
0.104886
0.00202852
0.119481
0.00162263
0.135498
0.0012151
0.15298
0.000811203
0.17198
0.000435815
0.192536
0.000139061
0.21452
0.237411
0.0130175
0.024899
-0.0143053
0.0117597
0.026927
0.0105435
0.0294322
0.00938138
0.032523
0.00828577
0.0363174
0.00726811
0.0409385
0.00633766
0.0465102
0.00550013
0.0531503
0.00475646
0.0609639
0.00410208
0.070037
0.00352667
0.0804338
0.00301494
0.0921968
0.00254838
0.105353
0.00210805
0.119922
0.00167828
0.135928
0.00125131
0.153407
0.000832651
0.172399
0.000447037
0.192921
0.000143425
0.214824
0.237554
0.013381
0.0261873
-0.0146693
0.0121198
0.0281882
0.0108967
0.0306552
0.00972371
0.033696
0.00861286
0.0374282
0.00757554
0.0419758
0.00662122
0.0474645
0.00575614
0.0540154
0.0049821
0.0617379
0.00429563
0.0707235
0.00368768
0.0810417
0.00314426
0.0927402
0.00264805
0.105849
0.00218108
0.120389
0.00172844
0.136381
0.00128287
0.153852
0.000850134
0.172831
0.000454796
0.193316
0.000145296
0.215133
0.2377
0.0137087
0.0274741
-0.0149956
0.0124461
0.0294508
0.0112184
0.0318829
0.0100369
0.0348774
0.00891346
0.0385517
0.00785919
0.0430301
0.00688373
0.04844
0.00599378
0.0549054
0.0051919
0.0625398
0.00447567
0.0714397
0.00383726
0.0816801
0.00326396
0.0933135
0.00273965
0.106373
0.00224738
0.120881
0.00177304
0.136855
0.00130992
0.154315
0.000863989
0.173277
0.00045975
0.193721
0.000145533
0.215448
0.237845
0.0140008
0.0287581
-0.0152847
0.0127386
0.030713
0.0115083
0.0331133