/*--------------------------------*- C++ -*----------------------------------*\
| =========                 |                                                 |
| \\      /  F ield         | OpenFOAM: The Open Source CFD Toolbox           |
|  \\    /   O peration     | Version:  v1912                                 |
|   \\  /    A nd           | Website:  www.openfoam.com                      |
|    \\/     M anipulation  |                                                 |
\*---------------------------------------------------------------------------*/
FoamFile
{
    version     2.0;
    format      ascii;
    class       volVectorField;
    location    "1";
    object      U;
}
// * * * * * * * * * * * * * * * * * * * * * * * * * * * * * * * * * * * * * //

dimensions      [0 1 -1 0 0 0 0];


internalField   nonuniform List<vector> 
9600
(
(0.461693 -9.50947 -7.97108e-20)
(0.130135 -8.70842 0)
(0.150519 -7.9654 -3.55873e-20)
(0.150272 -7.28372 0)
(0.137994 -6.65694 0)
(0.129535 -6.07918 -8.24541e-21)
(0.122354 -5.54711 1.38736e-22)
(0.115513 -5.05831 5.21691e-21)
(0.109232 -4.61053 0)
(0.103679 -4.20145 -7.64738e-21)
(0.0989815 -3.82859 0)
(0.0952731 -3.4893 -4.42331e-22)
(0.0926657 -3.18085 -7.4314e-22)
(0.0912385 -2.90049 -3.74203e-21)
(0.0910333 -2.64556 2.61958e-21)
(0.0920474 -2.41357 -2.57366e-21)
(0.0942378 -2.20223 2.00451e-21)
(0.0976122 -2.00947 0)
(0.102292 -1.8335 -1.33953e-21)
(0.107618 -1.67274 1.50783e-21)
(0.834027 -9.483 -1.53113e-19)
(0.472554 -8.69741 1.166e-20)
(0.464176 -7.95565 7.54919e-20)
(0.437573 -7.27557 -5.17638e-20)
(0.401074 -6.65008 5.10509e-20)
(0.370199 -6.07312 0)
(0.342367 -5.54164 1.45945e-20)
(0.316532 -5.05338 -1.39044e-20)
(0.292839 -4.60621 -2.10623e-20)
(0.271386 -4.1979 2.16833e-20)
(0.252217 -3.82598 -1.37972e-20)
(0.235371 -3.48783 -4.29627e-21)
(0.22086 -3.1807 9.20797e-21)
(0.208662 -2.90182 0)
(0.198715 -2.64848 0)
(0.19092 -2.41816 8.93198e-21)
(0.185137 -2.2085 -1.48713e-20)
(0.181303 -2.01742 0)
(0.179498 -1.84304 0)
(0.178896 -1.68381 -5.45598e-21)
(1.20544 -9.44259 3.19661e-19)
(0.814202 -8.6733 0)
(0.777185 -7.93385 -1.43133e-19)
(0.724365 -7.25627 -1.14904e-19)
(0.663817 -6.63303 0)
(0.610573 -6.05773 1.40071e-19)
(0.562111 -5.52762 -1.24543e-19)
(0.517305 -5.04063 1.92191e-20)
(0.47623 -4.59476 -4.58903e-20)
(0.438918 -4.18784 -6.26248e-20)
(0.405336 -3.81745 7.63451e-20)
(0.37543 -3.48098 -4.3512e-20)
(0.349114 -3.17567 -1.71195e-20)
(0.326258 -2.89872 0)
(0.306701 -2.6474 9.72423e-22)
(0.290238 -2.41913 9.86119e-21)
(0.276634 -2.21152 3.50485e-21)
(0.265747 -2.02243 0)
(0.257611 -1.84995 6.06927e-21)
(0.25123 -1.6925 6.00665e-21)
(1.5748 -9.38802 -4.26851e-19)
(1.15446 -8.6362 -1.62286e-19)
(1.08908 -7.90022 1.59989e-19)
(1.01025 -7.22606 2.19172e-19)
(0.925812 -6.60597 -1.02832e-19)
(0.850291 -6.03317 3.57936e-22)
(0.781249 -5.50518 5.89891e-20)
(0.717515 -5.02018 4.74839e-20)
(0.659107 -4.57626 7.70282e-20)
(0.605998 -4.17134 0)
(0.55808 -3.80305 2.14409e-20)
(0.515209 -3.46878 -2.52185e-20)
(0.477198 -3.16577 2.68446e-21)
(0.443814 -2.8912 3.12638e-20)
(0.414787 -2.64231 2.23893e-20)
(0.389808 -2.41648 -3.04976e-20)
(0.368542 -2.21128 9.95572e-21)
(0.350767 -2.02451 -1.34702e-20)
(0.33646 -1.8542 1.3419e-20)
(0.324449 -1.6988 -6.00551e-21)
(1.94177 -9.31932 2.13627e-19)
(1.49305 -8.58619 0)
(1.39952 -7.85478 1.43572e-19)
(1.29487 -7.18497 0)
(1.18667 -6.56891 0)
(1.08899 -5.99942 -8.08073e-20)
(0.999437 -5.47433 -1.25931e-19)
(0.916839 -4.99201 -8.74999e-20)
(0.841167 -4.5507 8.3987e-21)
(0.77234 -4.14839 -3.17365e-20)
(0.710181 -3.78276 0)
(0.654457 -3.45122 -2.13556e-20)
(0.604879 -3.15099 -3.50559e-20)
(0.561109 -2.87926 2.69868e-20)
(0.522767 -2.63321 -7.35468e-20)
(0.489435 -2.4102 1.18537e-20)
(0.460676 -2.20774 7.42552e-21)
(0.436183 -2.02361 -1.59607e-20)
(0.41587 -1.85577 -6.25251e-21)
(0.398386 -1.70268 1.76103e-20)
(2.3058 -9.23652 1.8818e-19)
(1.8295 -8.52332 1.51201e-19)
(1.70811 -7.79756 0)
(1.57785 -7.13307 0)
(1.44603 -6.5219 -1.68452e-19)
(1.3263 -5.95653 1.04902e-19)
(1.21634 -5.43508 1.92925e-19)
(1.11496 -4.95615 0)
(1.02211 -4.51811 3.89996e-20)
(0.937663 -4.11902 3.17364e-20)
(0.861375 -3.75661 -4.80299e-20)
(0.792924 -3.4283 6.85586e-20)
(0.731922 -3.13135 1.76715e-20)
(0.677921 -2.86288 0)
(0.63043 -2.62008 1.23259e-20)
(0.588922 -2.40026 4.96538e-20)
(0.552849 -2.2009 -2.97547e-20)
(0.521816 -2.01972 2.86621e-20)
(0.49567 -1.85462 -5.29396e-20)
(0.472872 -1.7041 5.92695e-20)
(2.66637 -9.13973 1.88668e-19)
(2.16337 -8.44765 -9.33692e-19)
(2.01441 -7.72862 0)
(1.85879 -7.07041 0)
(1.70352 -6.46498 0)
(1.56187 -5.90452 -1.50083e-19)
(1.43161 -5.38747 0)
(1.31155 -4.91264 -1.86711e-19)
(1.20163 -4.47851 1.59841e-19)
(1.10168 -4.08324 -1.36014e-19)
(1.01139 -3.7246 0)
(0.930361 -3.40005 0)
(0.858091 -3.10682 0)
(0.794029 -2.84206 -3.0646e-20)
(0.737568 -2.60291 0)
(0.688068 -2.38664 0)
(0.64487 -2.19072 -3.45014e-20)
(0.607487 -2.0128 3.38986e-20)
(0.575689 -1.85073 0)
(0.547743 -1.70304 0)
(3.02296 -9.02906 -6.46539e-19)
(2.4942 -8.35926 3.62178e-19)
(2.31802 -7.64803 0)
(2.13729 -6.99705 0)
(1.95875 -6.3982 0)
(1.79535 -5.84346 1.36086e-19)
(1.64491 -5.33153 -1.3484e-19)
(1.5063 -4.86149 -7.82794e-22)
(1.37943 -4.43193 -1.53295e-19)
(1.26412 -4.04108 1.36744e-19)
(1.15997 -3.68677 -5.39914e-20)
(1.06652 -3.36647 8.19963e-20)
(0.98315 -3.07743 -1.20813e-20)
(0.909207 -2.81679 -6.79571e-20)
(0.843968 -2.58168 -4.8752e-20)
(0.786673 -2.36934 4.78974e-20)
(0.73655 -2.17718 0)
(0.693014 -2.00282 0)
(0.655754 -1.84404 2.67283e-20)
(0.622836 -1.69943 -3.00505e-20)
(3.37502 -8.90466 4.31209e-19)
(2.82151 -8.25824 3.29747e-19)
(2.61848 -7.55588 -5.9091e-19)
(2.41294 -6.91305 2.61568e-19)
(2.21136 -6.32162 0)
(2.02637 -5.77337 1.50937e-19)
(1.85591 -5.26733 -1.11415e-19)
(1.69888 -4.80278 2.98691e-19)
(1.55521 -4.37842 -8.81817e-21)
(1.42468 -3.99258 0)
(1.30685 -3.64313 1.08729e-19)
(1.20114 -3.32758 0)
(1.10686 -3.04319 0)
(1.02323 -2.78709 -2.76272e-20)
(0.949415 -2.55639 5.7903e-20)
(0.884532 -2.34832 0)
(0.827695 -2.16025 3.68134e-20)
(0.778214 -1.98975 1.28874e-20)
(0.73569 -1.83454 -3.12921e-20)
(0.697985 -1.69325 2.83535e-20)
(3.72203 -8.7667 -4.33474e-19)
(3.14484 -8.14473 3.30911e-19)
(2.91539 -7.45226 -8.86505e-19)
(2.68535 -6.81848 2.62626e-19)
(2.46095 -6.23532 0)
(2.25458 -5.69434 -2.91373e-19)
(2.06426 -5.19492 1.36539e-19)
(1.88898 -4.73653 0)
(1.72868 -4.31803 -8.17676e-20)
(1.5831 -3.93779 -1.22878e-19)
(1.45175 -3.59374 -9.12355e-20)
(1.33398 -3.28341 1.51345e-20)
(1.22899 -3.0041 8.34238e-20)
(1.13587 -2.75294 2.76207e-20)
(1.05369 -2.52703 -7.87769e-21)
(0.981438 -2.32357 -5.04934e-20)
(0.918104 -2.13991 -2.05482e-20)
(0.862896 -1.97356 -1.72113e-20)
(0.815319 -1.82217 4.2359e-20)
(0.77302 -1.68445 -6.50838e-20)
(4.06348 -8.61536 4.33475e-19)
(3.46371 -8.01885 -3.48582e-20)
(3.20831 -7.33729 2.59592e-19)
(2.95411 -6.71346 0)
(2.70717 -6.13936 -1.7293e-19)
(2.47961 -5.60644 3.23107e-19)
(2.26963 -5.11436 -2.26199e-19)
(2.07628 -4.66284 2.22599e-19)
(1.89953 -4.25082 -6.91657e-20)
(1.73909 -3.87675 1.48408e-19)
(1.59443 -3.53862 5.55011e-20)
(1.46479 -3.234 0)
(1.34929 -2.9602 0)
(1.24691 -2.71436 -2.90512e-20)
(1.15658 -2.49359 7.89678e-21)
(1.07718 -2.29508 9.72799e-20)
(1.00757 -2.11614 -2.40805e-20)
(0.946863 -1.95422 6.85314e-20)
(0.894453 -1.80691 8.47308e-21)
(0.847765 -1.67299 -6.77457e-20)
(4.39885 -8.45086 -1.30699e-18)
(3.77768 -7.88077 -3.69484e-19)
(3.49682 -7.21109 -8.85862e-19)
(3.21883 -6.59806 -4.76778e-19)
(2.94961 -6.03384 -2.09418e-19)
(2.70111 -5.50974 -1.99473e-19)
(2.47168 -5.02574 -5.26835e-19)
(2.26047 -4.58176 -1.77985e-20)
(2.06746 -4.17686 -3.35403e-19)
(1.89238 -3.80954 1.25439e-20)
(1.73461 -3.47784 -1.14111e-19)
(1.59333 -3.17939 -9.54472e-20)
(1.46753 -2.9115 8.045e-20)
(1.3561 -2.67135 -6.8329e-20)
(1.25785 -2.45607 -5.84701e-20)
(1.17153 -2.26282 -5.03999e-20)
(1.09589 -2.08889 -1.25069e-19)
(1.02991 -1.93169 4.70433e-20)
(0.972894 -1.78872 9.90049e-20)
(0.922033 -1.65884 -1.04661e-19)
(4.72767 -8.27342 1.74594e-18)
(4.08629 -7.73068 1.80998e-18)
(3.78049 -7.0738 2.60644e-19)
(3.47909 -6.47242 1.17267e-18)
(3.1879 -5.91886 -2.15951e-19)
(2.91872 -5.40434 9.02517e-19)
(2.67007 -4.92915 2.23915e-19)
(2.44122 -4.4934 5.96592e-19)
(2.2322 -4.09623 -1.70264e-19)
(2.0427 -3.73622 4.28082e-19)
(1.87205 -3.41146 2.29776e-19)
(1.71935 -3.11961 1.9242e-19)
(1.58349 -2.85803 -2.38168e-19)
(1.46324 -2.62393 2.12569e-19)
(1.35728 -2.41445 1.18364e-19)
(1.26427 -2.22676 1.02183e-19)
(1.18282 -2.05815 8.8836e-20)
(1.11181 -1.90594 1.28991e-21)
(1.05043 -1.76756 6.82807e-20)
(0.995623 -1.64196 6.97401e-20)
(5.04945 -8.08331 -1.25943e-18)
(4.38911 -7.56876 4.32215e-19)
(4.05894 -6.92557 8.66416e-19)
(3.7345 -6.33665 -9.63892e-19)
(3.42167 -5.79454 2.13121e-19)
(3.13208 -5.29037 -5.95251e-19)
(2.86447 -4.82471 2.81746e-19)
(2.61824 -4.39784 -3.94537e-19)
(2.39345 -4.00902 1.77065e-20)
(2.18977 -3.65689 1.56063e-21)
(2.0065 -3.33955 -2.32864e-19)
(1.84262 -3.05473 -9.69729e-20)
(1.69693 -2.79983 1.65367e-19)
(1.56808 -2.5721 1.44293e-21)
(1.45466 -2.36872 -7.14767e-21)
(1.35518 -2.18688 -1.10681e-19)
(1.26816 -2.02386 -4.50875e-20)
(1.19234 -1.87693 -4.09857e-21)
(1.12683 -1.74341 -7.36067e-20)
(1.06831 -1.62232 -3.55637e-20)
(5.36376 -7.88077 0)
(4.68574 -7.39522 -7.41573e-19)
(4.33173 -6.76656 2.29423e-21)
(3.98468 -6.19089 9.21049e-19)
(3.65053 -5.66101 3.08446e-19)
(3.34083 -5.16794 -3.48164e-19)
(3.05455 -4.71252 -2.53666e-19)
(2.79121 -4.29522 0)
(2.55092 -3.91536 -1.57349e-19)
(2.33335 -3.57163 1.44864e-19)
(2.13772 -3.2622 -1.13225e-20)
(1.96292 -2.98481 0)
(1.80764 -2.73694 -8.3422e-20)
(1.67043 -2.51588 6.38604e-20)
(1.54976 -2.31886 4.53891e-20)
(1.44403 -2.14313 -6.6161e-20)
(1.35164 -1.98595 -5.22777e-20)
(1.27125 -1.84457 8.27673e-20)
(1.20184 -1.71617 -7.31497e-20)
(1.13985 -1.59986 3.8263e-20)
(5.67019 -7.66605 1.26959e-18)
(4.97576 -7.21025 -7.70578e-19)
(4.59848 -6.59694 -5.3657e-19)
(4.22921 -6.0353 2.26142e-19)
(3.8741 -5.51841 -4.33938e-19)
(3.54462 -5.03719 0)
(3.23998 -4.59273 0)
(2.95984 -4.18565 0)
(2.70436 -3.81535 -1.41624e-20)
(2.47319 -3.48056 -2.88484e-19)
(2.26548 -3.17949 1.30006e-19)
(2.08003 -2.90993 9.39221e-20)
(1.91543 -2.6694 6.79852e-20)
(1.7701 -2.45527 -2.95337e-19)
(1.64239 -2.26484 1.35445e-19)
(1.53061 -2.09542 0)
(1.43305 -1.94432 -4.90743e-21)
(1.34828 -1.80875 -1.32119e-19)
(1.2752 -1.68575 -1.11977e-21)
(1.20995 -1.57447 -3.82682e-20)
(5.96845 -7.43948 -8.81945e-19)
(5.2588 -7.0141 -4.09836e-19)
(4.85877 -6.41688 2.11836e-19)
(4.46771 -5.87002 -9.85035e-20)
(4.09201 -5.3669 -1.18523e-18)
(3.7431 -4.89828 9.58763e-19)
(3.42043 -4.46549 -2.65674e-20)
(3.12382 -4.06929 2.11619e-19)
(2.85348 -3.70914 1.73051e-19)
(2.60904 -3.38382 1.45049e-19)
(2.38957 -3.09156 1.21572e-19)
(2.19378 -2.83019 1.98095e-19)
(2.02013 -2.59729 -9.36712e-20)
(1.86692 -2.39031 2.15832e-19)
(1.73239 -2.20663 -1.38055e-19)
(1.61475 -2.04367 -4.98529e-20)
(1.5122 -1.89882 2.03971e-19)
(1.42322 -1.7693 1.27575e-19)
(1.34667 -1.65199 -4.24731e-21)
(1.27845 -1.54593 0)
(6.25856 -7.20157 -4.43118e-19)
(5.53461 -6.80702 7.49258e-19)
(5.11218 -6.22654 5.49408e-19)
(4.69973 -5.6952 -9.8714e-20)
(4.30384 -5.20662 -4.03559e-19)
(3.93588 -4.75136 3.56203e-20)
(3.59556 -4.33096 1.46061e-21)
(3.28286 -3.9463 1.42178e-21)
(2.99803 -3.59689 0)
(2.74066 -3.28154 1.36504e-19)
(2.50978 -2.99852 -2.54401e-19)
(2.30398 -2.7457 -9.53482e-20)
(2.12158 -2.5207 9.4997e-20)
(1.96076 -2.32104 -7.53163e-20)
(1.81964 -2.14422 6.64532e-20)
(1.69632 -1.98777 -5.69711e-20)
(1.58891 -1.84925 1.06122e-21)
(1.49586 -1.72593 -4.42835e-20)
(1.41606 -1.61454 -3.93076e-20)
(1.34525 -1.51404 -3.90197e-20)
(6.5409 -6.95282 0)
(5.80309 -6.58902 -3.41781e-19)
(5.35833 -6.02595 3.37866e-19)
(4.92485 -5.51094 4.90483e-19)
(4.50919 -5.03773 -3.95745e-19)
(4.12259 -4.59663 2.92487e-19)
(3.76503 -4.18934 -5.47925e-19)
(3.43664 -3.81687 -4.27448e-19)
(3.13772 -3.47878 -1.63177e-19)
(2.86784 -3.17391 1.40177e-20)
(2.62593 -2.90056 -1.15134e-19)
(2.41048 -2.65662 9.05412e-21)
(2.21967 -2.43975 0)
(2.05154 -2.24755 -1.45447e-19)
(1.90407 -2.0776 7.64461e-20)
(1.77524 -1.9276 0)
(1.66305 -1.79525 -5.11506e-20)
(1.56588 -1.67795 -8.69592e-20)
(1.48273 -1.57243 8.54456e-20)
(1.40945 -1.47822 4.10313e-20)
(6.81525 -6.69253 0)
(6.06386 -6.35952 0)
(5.59674 -5.8151 -5.53116e-19)
(5.14262 -5.31751 -3.91396e-19)
(4.70767 -4.86059 8.36578e-19)
(4.30292 -4.43441 0)
(3.92857 -4.04093 0)
(3.58493 -3.68129 2.14406e-19)
(3.27235 -3.35508 0)
(2.99037 -3.06118 0)
(2.73786 -2.79791 0)
(2.51318 -2.56318 0)
(2.31437 -2.35469 0)
(2.13932 -2.17006 0)
(1.98587 -2.00697 0)
(1.85186 -1.8632 0)
(1.73518 -1.73655 0)
(1.63394 -1.62452 0)
(1.54668 -1.52444 0)
(1.46986 -1.43685 0)
(9.60541 0.0876528 5.56566e-20)
(9.59749 -0.290995 1.04932e-19)
(9.57511 -0.667938 -1.11566e-19)
(9.53865 -1.04311 2.23953e-19)
(9.4878 -1.4162 -2.23953e-19)
(9.4224 -1.78674 -1.97794e-19)
(9.34249 -2.15422 -1.98064e-19)
(9.24819 -2.51812 6.748e-19)
(9.13968 -2.8779 -4.49906e-19)
(9.01714 -3.23302 4.50125e-19)
(8.88079 -3.58295 -4.50126e-19)
(8.73085 -3.92717 4.49989e-19)
(8.56759 -4.26516 -8.99168e-19)
(8.39128 -4.59642 1.29554e-18)
(8.20224 -4.92047 0)
(8.00078 -5.23685 -1.292e-18)
(7.78724 -5.54516 1.09521e-21)
(7.56206 -5.845 1.34281e-18)
(7.32534 -6.13624 0)
(7.07854 -6.41813 0)
(8.87656 -0.212617 0)
(8.85898 -0.561431 -1.20258e-20)
(8.82723 -0.90841 0)
(8.78169 -1.25337 1.71841e-19)
(8.72241 -1.59597 1.90187e-19)
(8.64951 -1.93574 -5.23434e-19)
(8.56309 -2.27215 9.83677e-19)
(8.46332 -2.60467 -3.81668e-19)
(8.35041 -2.93281 -3.4707e-19)
(8.22456 -3.25606 -3.473e-19)
(8.08601 -3.57391 3.50844e-20)
(7.93501 -3.88587 3.82232e-19)
(7.77186 -4.19148 -1.87618e-18)
(7.59685 -4.49028 -4.41405e-19)
(7.41029 -4.78184 7.63564e-19)
(7.21252 -5.06577 7.87323e-19)
(7.00385 -5.3417 4.14891e-19)
(6.78464 -5.60928 -7.60553e-19)
(6.55492 -5.86833 3.44435e-19)
(6.31517 -6.11827 0)
(8.15264 -0.165003 3.76227e-20)
(8.14056 -0.48438 -7.97852e-20)
(8.11513 -0.802751 2.20747e-19)
(8.07649 -1.11961 -1.69327e-19)
(8.02482 -1.4345 -1.524e-19)
(7.96032 -1.74692 1.70776e-19)
(7.88311 -2.05636 0)
(7.79338 -2.36231 0)
(7.69132 -2.66428 6.23322e-19)
(7.57713 -2.96178 9.31928e-19)
(7.45106 -3.25434 -2.72866e-19)
(7.31334 -3.54149 9.24426e-19)
(7.16425 -3.8228 -2.73007e-19)
(7.00407 -4.09782 -8.95764e-19)
(6.8331 -4.36615 7.2147e-22)
(6.65165 -4.6274 5.52168e-19)
(6.46 -4.88121 -2.16771e-19)
(6.25846 -5.12721 -5.57389e-19)
(6.04725 -5.36514 -3.4049e-19)
(5.8266 -5.59437 5.54762e-19)
(7.44704 -0.143922 0)
(7.43955 -0.434725 5.52535e-20)
(7.4198 -0.725084 5.45022e-20)
(7.38779 -1.01437 -2.34219e-19)
(7.34365 -1.30208 0)
(7.28753 -1.58774 0)
(7.21955 -1.87085 0)
(7.13988 -2.15095 0)
(7.0487 -2.42756 -2.76661e-19)
(6.9462 -2.70021 -2.76928e-19)
(6.8326 -2.96845 0)
(6.70811 -3.23182 4.98974e-19)
(6.573 -3.48991 -1.2249e-18)
(6.42752 -3.7423 1.00256e-18)
(6.27196 -3.98858 -9.51185e-19)
(6.10658 -4.22839 -2.31303e-19)
(5.93169 -4.46135 9.939e-20)
(5.74755 -4.68708 9.93299e-20)
(5.55448 -4.90531 -4.93557e-19)
(5.35261 -5.11541 -5.41416e-20)
(6.77564 -0.139941 0)
(6.77181 -0.403361 -5.44928e-20)
(6.75682 -0.666664 0)
(6.73064 -0.929385 1.10163e-19)
(6.69328 -1.19109 9.97336e-20)
(6.64481 -1.45119 8.27711e-20)
(6.58539 -1.70913 0)
(6.51513 -1.9645 0)
(6.43418 -2.21685 0)
(6.34273 -2.46576 0)
(6.24096 -2.7108 1.84367e-19)
(6.12907 -2.95153 2.19281e-19)
(6.00729 -3.18755 2.23835e-19)
(5.87585 -3.41845 -2.24312e-19)
(5.735 -3.64386 -3.2353e-19)
(5.58501 -3.86339 4.46592e-19)
(5.42615 -4.0767 8.46548e-19)
(5.25867 -4.28341 4.09255e-19)
(5.08291 -4.48323 0)
(4.89899 -4.67561 -3.62963e-19)
(6.14872 -0.13632 9.02625e-21)
(6.14819 -0.374323 0)
(6.13738 -0.612465 -1.53603e-19)
(6.11618 -0.850318 -4.40291e-22)
(6.08483 -1.08746 6.50574e-21)
(6.04347 -1.32347 -3.07923e-20)
(5.99204 -1.55791 0)
(5.93057 -1.79017 1.37232e-20)
(5.85922 -2.01984 -1.6373e-19)
(5.77815 -2.24652 3.14686e-19)
(5.68754 -2.46982 -3.45843e-19)
(5.58755 -2.68936 2.08911e-19)
(5.47839 -2.90473 -9.5748e-19)
(5.36026 -3.11556 6.28704e-19)
(5.23339 -3.32147 3.62392e-19)
(5.09802 -3.52212 0)
(4.95441 -3.71716 -6.23961e-19)
(4.80279 -3.90623 -3.44872e-20)
(4.64349 -4.08903 -6.1975e-19)
(4.47662 -4.26509 6.8096e-19)
(5.57295 -0.134601 7.30803e-21)
(5.57498 -0.349356 -1.61958e-20)
(5.56767 -0.564495 1.37999e-19)
(5.55097 -0.779519 -4.98318e-21)
(5.52494 -0.993963 1.39572e-19)
(5.48953 -1.20752 -2.13273e-19)
(5.44498 -1.41988 0)
(5.39136 -1.63064 1.47706e-19)
(5.32862 -1.83928 1.23864e-19)
(5.25692 -2.04532 -1.48204e-19)
(5.17641 -2.24843 2.48077e-19)
(5.08723 -2.44823 5.65747e-19)
(4.98957 -2.64438 -2.41715e-19)
(4.88362 -2.83653 -2.95472e-19)
(4.76958 -3.02431 2.68374e-19)
(4.64766 -3.20739 0)
(4.51811 -3.38544 2.7857e-20)
(4.38114 -3.55812 1.0215e-21)
(4.23705 -3.72516 5.56935e-19)
(4.08597 -3.88609 2.41732e-19)
(5.05211 -0.134969 0)
(5.05601 -0.328571 2.10794e-21)
(5.05142 -0.522706 -2.28151e-20)
(5.03827 -0.716957 -1.14288e-19)
(5.01659 -0.910934 1.018e-19)
(4.9864 -1.10423 0)
(4.9477 -1.29639 2.1365e-19)
(4.90061 -1.48725 2.33762e-22)
(4.84528 -1.67642 -3.36184e-19)
(4.78175 -1.8635 0)
(4.71009 -2.04802 -2.4413e-19)
(4.63043 -2.22964 1.65694e-20)
(4.54295 -2.40805 -6.50302e-19)
(4.44781 -2.58291 5.62176e-22)
(4.34522 -2.75392 2.21582e-19)
(4.23535 -2.92073 0)
(4.11842 -3.08304 -2.19129e-19)
(3.99466 -3.24054 1.04037e-21)
(3.86433 -3.39295 2.18092e-19)
(3.72755 -3.53987 -2.37884e-19)
(4.58716 -0.136738 0)
(4.59227 -0.311361 2.45096e-20)
(4.58963 -0.48662 5.27271e-20)
(4.57918 -0.662147 -9.14716e-20)
(4.56092 -0.837577 -8.12319e-21)
(4.53486 -1.01254 -4.6126e-20)
(4.50103 -1.18669 -1.87326e-19)
(4.4595 -1.3596 9.30722e-20)
(4.41032 -1.53101 8.2967e-21)
(4.35364 -1.70067 9.31317e-20)
(4.28953 -1.86824 7.99783e-20)
(4.21806 -2.03326 3.75411e-19)
(4.13938 -2.19542 1.89319e-19)
(4.05366 -2.35445 3.69845e-19)
(3.96106 -2.51003 -1.84605e-19)
(3.86178 -2.66188 1.28541e-20)
(3.75599 -2.8097 -1.82973e-19)
(3.64391 -2.9532 0)
(3.52579 -3.09212 1.66989e-19)
(3.40176 -3.22609 0)
(4.17679 -0.139374 9.48354e-21)
(4.18252 -0.297153 -2.73244e-20)
(4.18113 -0.455625 7.75737e-20)
(4.17259 -0.614453 -3.88495e-20)
(4.15689 -0.773296 4.97629e-21)
(4.13403 -0.931819 -3.90482e-20)
(4.10405 -1.0897 8.4914e-20)
(4.06699 -1.24658 -7.87e-20)
(4.02291 -1.40216 7.86999e-20)
(3.97188 -1.55608 1.47107e-19)
(3.91402 -1.7082 -1.70214e-19)
(3.84946 -1.85815 -1.33417e-20)
(3.77826 -2.00555 -4.8199e-19)
(3.70057 -2.15015 7.05623e-22)
(3.61656 -2.29167 1.08915e-20)
(3.52641 -2.42983 3.10759e-19)
(3.43029 -2.56438 -1.52531e-19)
(3.3284 -2.69504 -1.40324e-19)
(3.22097 -2.82157 -1.27542e-20)
(3.10813 -2.94364 0)
(3.81812 -0.142451 0)
(3.82393 -0.285397 3.39319e-20)
(3.82319 -0.429057 -1.15807e-19)
(3.81587 -0.573114 -2.93492e-20)
(3.80195 -0.717251 7.16813e-20)
(3.78144 -0.861159 0)
(3.75438 -1.00453 0)
(3.72081 -1.14707 6.72576e-20)
(3.68078 -1.28846 -6.72575e-20)
(3.63435 -1.42842 4.86743e-20)
(3.58163 -1.56663 -6.71034e-20)
(3.52274 -1.70296 1.33308e-19)
(3.45777 -1.83703 -2.65972e-19)
(3.38683 -1.96856 2.64562e-19)
(3.3101 -2.09732 1.00348e-20)
(3.22772 -2.22305 -1.41046e-19)
(3.13987 -2.34552 -1.29025e-19)
(3.04674 -2.46447 2.68036e-19)
(2.94855 -2.57968 1.18893e-19)
(2.84545 -2.69086 0)
(3.50719 -0.145598 4.20264e-22)
(3.51263 -0.275567 2.05189e-20)
(3.51202 -0.406236 4.48623e-20)
(3.50531 -0.537309 3.27188e-20)
(3.49251 -0.668491 2.89126e-20)
(3.47363 -0.79949 2.5816e-20)
(3.4487 -0.930022 0)
(3.41776 -1.05981 -1.09697e-19)
(3.38086 -1.18857 -5.79934e-20)
(3.33808 -1.31604 4.32884e-20)
(3.28948 -1.44191 0)
(3.23519 -1.56601 1.14635e-19)
(3.17533 -1.68809 -3.3622e-19)
(3.10999 -1.80787 1.13934e-19)
(3.03932 -1.92512 0)
(2.96348 -2.03962 -1.05e-19)
(2.88264 -2.15114 -2.14103e-19)
(2.79697 -2.25948 1.03962e-19)
(2.70669 -2.36442 -7.81674e-21)
(2.61197 -2.46569 0)
(3.23939 -0.148518 6.90374e-22)
(3.24412 -0.267187 -1.31232e-20)
(3.24321 -0.386517 2.50094e-20)
(3.23664 -0.506231 -2.52996e-21)
(3.22441 -0.62605 5.04146e-20)
(3.20655 -0.745702 -7.90367e-20)
(3.18308 -0.86492 0)
(3.15405 -0.983441 1.17061e-20)
(3.11952 -1.10101 0)
(3.07954 -1.21737 -1.07401e-19)
(3.0342 -1.33229 0)
(2.98361 -1.44551 -9.44861e-20)
(2.92789 -1.55687 2.98318e-19)
(2.86713 -1.66612 -1.96683e-19)
(2.80147 -1.77304 9.79174e-20)
(2.73107 -1.87743 -7.89002e-20)
(2.6561 -1.9791 1.02144e-19)
(2.57673 -2.07786 -1.01051e-19)
(2.49317 -2.17354 0)
(2.40561 -2.26584 0)
(3.0099 -0.150986 5.70091e-21)
(3.01364 -0.259848 0)
(3.01212 -0.369315 0)
(3.00531 -0.479125 -4.68037e-20)
(2.99323 -0.589013 -4.23639e-20)
(2.9759 -0.698726 0)
(2.95336 -0.808012 0)
(2.92566 -0.916623 9.52476e-21)
(2.89286 -1.02432 8.46398e-20)
(2.85501 -1.13086 -4.00753e-20)
(2.8122 -1.23604 -4.41825e-20)
(2.76454 -1.33962 1.79979e-19)
(2.71213 -1.44145 -2.65642e-19)
(2.65509 -1.54131 1.67892e-19)
(2.59355 -1.639 0)
(2.52766 -1.73436 3.3807e-19)
(2.45758 -1.82721 -2.39455e-19)
(2.38349 -1.91739 8.24241e-20)
(2.3056 -2.00475 1.52494e-19)
(2.22412 -2.089 0)
(2.8139 -0.152853 -4.5878e-21)
(2.81649 -0.253219 0)
(2.81413 -0.354123 -9.19585e-22)
(2.80681 -0.455315 -3.77367e-20)
(2.79456 -0.556546 1.18916e-19)
(2.7774 -0.657577 -1.97865e-20)
(2.75539 -0.758168 0)
(2.72857 -0.858084 1.58959e-19)
(2.69699 -0.957094 -8.31575e-20)
(2.66074 -1.05499 7.91896e-21)
(2.61988 -1.15158 7.43238e-20)
(2.57451 -1.24665 7.69259e-20)
(2.52476 -1.34003 -1.53055e-19)
(2.47074 -1.43155 -1.48073e-19)
(2.41257 -1.52105 -1.42225e-19)
(2.3504 -1.60836 -1.56385e-19)
(2.28438 -1.69335 1.54281e-19)
(2.21469 -1.77588 -7.10387e-20)
(2.14156 -1.85584 -7.87844e-20)
(2.06522 -1.93287 0)
(2.64681 -0.154037 4.50739e-21)
(2.64815 -0.247045 -1.66667e-20)
(2.64482 -0.340518 -1.76029e-20)
(2.63683 -0.434217 5.3203e-20)
(2.62419 -0.527909 -1.94125e-20)
(2.60696 -0.621366 -1.77087e-20)
(2.58518 -0.714363 0)
(2.55891 -0.80667 -7.42369e-20)
(2.52821 -0.898067 0)
(2.49313 -0.988367 7.3551e-20)
(2.45377 -1.07739 -1.39431e-19)
(2.41023 -1.16496 6.83963e-20)
(2.36261 -1.2509 -1.35986e-19)
(2.31105 -1.33507 1.42471e-19)
(2.25565 -1.41732 8.0089e-20)
(2.19655 -1.49752 0)
(2.13391 -1.57556 -6.36173e-20)
(2.06789 -1.65132 6.36175e-20)
(1.99875 -1.72474 0)
(1.92672 -1.79527 0)
(2.5044 -0.15452 0)
(2.50448 -0.241145 1.63748e-20)
(2.50013 -0.328162 6.68712e-22)
(2.49139 -0.415343 -1.73713e-20)
(2.47826 -0.502469 -1.46916e-20)
(2.4608 -0.589325 -1.59481e-20)
(2.43908 -0.675694 6.12595e-20)
(2.41315 -0.761352 0)
(2.38307 -0.846084 0)
(2.34889 -0.929735 3.1264e-20)
(2.31072 -1.01212 3.39829e-20)
(2.26864 -1.09312 1.18059e-19)
(2.22278 -1.17254 -6.03885e-20)
(2.17325 -1.25025 6.03885e-20)
(2.12016 -1.32614 6.55986e-20)
(2.06364 -1.40009 5.11738e-21)
(2.00384 -1.47201 -1.13928e-19)
(1.94089 -1.54181 1.10358e-21)
(1.87512 -1.60946 5.5324e-20)
(1.80663 -1.67402 0)
(2.3829 -0.154315 -3.53142e-21)
(2.38176 -0.235413 3.5314e-21)
(2.37643 -0.31683 0)
(2.36692 -0.398353 1.33222e-20)
(2.35326 -0.479776 4.45211e-20)
(2.33551 -0.560898 -5.56731e-20)
(2.31375 -0.641511 -6.01894e-20)
(2.28805 -0.72138 0)
(2.25846 -0.800277 0)
(2.22501 -0.878108 0)
(2.18781 -0.954735 -1.08e-19)
(2.14695 -1.03001 -9.32903e-21)
(2.10257 -1.10376 -5.42809e-20)
(2.05478 -1.17586 4.22069e-21)
(2.00366 -1.24621 -1.05826e-19)
(1.94936 -1.31471 1.61407e-19)
(1.89198 -1.3813 -1.47881e-19)
(1.83165 -1.44587 5.03466e-20)
(1.76877 -1.50838 9.31243e-20)
(1.70309 -1.56696 0)
(2.27896 -0.153437 3.08649e-21)
(2.27672 -0.229796 0)
(2.27048 -0.30641 -1.30719e-20)
(2.26025 -0.383078 -2.73104e-20)
(2.24608 -0.459612 1.3126e-20)
(2.22803 -0.535833 1.05422e-19)
(2.20619 -0.611553 0)
(2.18067 -0.686499 -5.03923e-20)
(2.1515 -0.760373 -2.58629e-20)
(2.11869 -0.833067 -4.77886e-20)
(2.08225 -0.90487 -1.75826e-20)
(2.04242 -0.975309 -1.51669e-19)
(1.9993 -1.04424 -9.9047e-20)
(1.95298 -1.11158 1.0252e-19)
(1.90354 -1.17723 9.55892e-20)
(1.85109 -1.24112 -9.97657e-22)
(1.79575 -1.3032 4.2251e-21)
(1.7376 -1.36329 4.52839e-20)
(1.67723 -1.42116 -9.15035e-20)
(1.61365 -1.47302 0)
(2.18968 -0.152031 -6.46562e-21)
(2.18649 -0.224176 3.18069e-21)
(2.17949 -0.296543 -1.29188e-20)
(2.16868 -0.368941 1.29156e-20)
(2.15409 -0.441198 -3.70009e-20)
(2.13579 -0.513168 -1.16756e-19)
(2.11392 -0.584698 0)
(2.08867 -0.655522 5.35341e-20)
(2.05999 -0.725323 -4.89689e-20)
(2.02763 -0.793888 1.05422e-19)
(1.99185 -0.861467 1.04178e-19)
(1.95304 -0.927831 1.51725e-19)
(1.91106 -0.992785 -9.70765e-20)
(1.866 -1.05623 4.81237e-20)
(1.81797 -1.11809 -4.62308e-20)
(1.76708 -1.1783 4.62344e-20)
(1.71339 -1.23676 0)
(1.65701 -1.29322 3.86867e-20)
(1.59887 -1.34689 -3.61723e-20)
(1.53679 -1.39129 0)
(6.72131 6.84362 0)
(6.98715 6.57247 0)
(7.24151 6.29276 3.95494e-19)
(7.48496 6.00466 7.27083e-21)
(7.71693 5.70769 -4.48532e-19)
(7.9369 5.402 0)
(8.14447 5.08785 4.63068e-19)
(8.33932 4.76567 -8.16408e-19)
(8.52115 4.43594 -4.13408e-19)
(8.68966 4.09916 -4.18347e-19)
(8.84458 3.75586 4.18346e-19)
(8.98567 3.40661 -4.24506e-19)
(9.11269 3.05196 2.11517e-19)
(9.22546 2.69251 1.87716e-19)
(9.32381 2.32882 1.89029e-19)
(9.40762 1.96149 -2.17553e-19)
(9.47679 1.5911 2.17553e-19)
(9.5313 1.21826 -1.09895e-19)
(9.57109 0.843336 -4.87891e-20)
(9.59644 0.467544 2.75402e-20)
(6.36991 6.05379 0)
(6.6104 5.80374 -2.79243e-19)
(6.83986 5.54488 -6.39572e-19)
(7.05864 5.27746 9.27003e-19)
(7.26652 5.00145 -6.77513e-19)
(7.46326 4.71723 6.63916e-19)
(7.64842 4.42515 4.01913e-19)
(7.82169 4.12564 -1.04796e-18)
(7.98275 3.81916 3.3597e-19)
(8.1313 3.50618 6.53662e-19)
(8.26703 3.18721 3.13748e-19)
(8.38969 2.86278 3.17045e-19)
(8.49904 2.53344 -3.56759e-19)
(8.59489 2.19973 5.07127e-19)
(8.67706 1.86223 -7.51846e-19)
(8.74543 1.5215 1.81278e-19)
(8.79989 1.17809 -1.65628e-19)
(8.84039 0.832576 0)
(8.86678 0.485341 1.19973e-20)
(8.87902 0.13712 0)
(5.77488 5.50581 -4.2283e-19)
(5.99791 5.2848 2.76047e-19)
(6.21158 5.05478 4.38792e-19)
(6.41561 4.81606 1.62408e-19)
(6.60982 4.56896 5.71912e-19)
(6.794 4.31392 7.60291e-21)
(6.96774 4.0513 -2.83959e-19)
(7.13073 3.78151 -8.32741e-19)
(7.28266 3.50497 8.03193e-19)
(7.42322 3.22212 -8.50289e-19)
(7.55211 2.93342 -2.84897e-19)
(7.66907 2.63934 -5.64734e-19)
(7.77385 2.34039 0)
(7.86623 2.03707 0)
(7.94602 1.7299 0)
(8.01304 1.41942 -1.45432e-19)
(8.06718 1.10614 1.62552e-19)
(8.10832 0.790588 1.46614e-19)
(8.13638 0.473197 4.31473e-21)
(8.15113 0.15458 3.7184e-20)
(5.21755 4.95893 4.62102e-19)
(5.42196 4.76355 -3.69129e-19)
(5.61843 4.55964 -9.37895e-20)
(5.80647 4.34749 -9.41579e-20)
(5.98587 4.12748 9.77196e-19)
(6.15635 3.89995 -3.8168e-20)
(6.31755 3.66524 -2.20913e-21)
(6.46916 3.42371 -6.46e-19)
(6.61086 3.17575 4.20027e-19)
(6.74235 2.92173 0)
(6.86336 2.66208 2.45039e-19)
(6.9736 2.39722 2.48122e-19)
(7.07284 2.12761 0)
(7.16083 1.85369 0)
(7.23738 1.57594 0)
(7.3023 1.29484 0)
(7.35543 1.01089 -1.14647e-20)
(7.39658 0.724556 1.17594e-19)
(7.42565 0.436293 -5.40685e-20)
(7.44235 0.146642 0)
(4.7034 4.4338 3.2002e-19)
(4.88937 4.2613 0)
(5.06856 4.08095 -8.94032e-19)
(5.24046 3.89301 -3.13948e-19)
(5.40482 3.69777 -3.4902e-19)
(5.56133 3.49553 -3.91139e-19)
(5.70967 3.28658 1.7486e-19)
(5.84951 3.07122 -1.91015e-19)
(5.98056 2.8498 4.8081e-19)
(6.10253 2.62264 -1.53427e-19)
(6.21511 2.39013 0)
(6.31807 2.15262 0)
(6.41113 1.91052 0)
(6.49408 1.66423 0)
(6.56669 1.41417 -2.58455e-19)
(6.62877 1.16079 9.21087e-20)
(6.68015 0.904508 -1.04669e-19)
(6.72064 0.645794 0)
(6.75014 0.385131 5.33242e-20)
(6.76837 0.123036 0)
(4.22824 3.94793 2.17163e-19)
(4.39698 3.79619 -2.0094e-20)
(4.5599 3.63731 4.88784e-19)
(4.71656 3.47145 2.44576e-19)
(4.86666 3.29887 0)
(5.00991 3.1198 -2.78162e-19)
(5.14598 2.9345 2.73105e-20)
(5.27457 2.74323 -2.82828e-19)
(5.39539 2.54627 3.52533e-19)
(5.50814 2.34392 1.49402e-20)
(5.61255 2.1365 1.11618e-20)
(5.70837 1.92434 -1.41405e-19)
(5.79534 1.70778 2.71369e-19)
(5.87323 1.48718 0)
(5.94184 1.26294 2.95404e-20)
(6.00096 1.03542 1.43328e-19)
(6.05042 0.805047 9.42916e-22)
(6.09003 0.572234 -6.06944e-21)
(6.1197 0.337425 0)
(6.13917 0.101074 -8.94374e-21)
(3.79625 3.5041 0)
(3.94929 3.37114 -2.02901e-20)
(4.09733 3.23165 6.11596e-21)
(4.23999 3.08577 -3.86503e-19)
(4.37696 2.93369 0)
(4.50794 2.77561 1.9752e-19)
(4.63262 2.61174 2.3023e-19)
(4.75072 2.44231 -6.42011e-19)
(4.86194 2.26757 -2.72888e-20)
(4.96601 2.08775 -1.9746e-19)
(5.06267 1.90315 1.23162e-19)
(5.15165 1.71405 -1.03436e-19)
(5.23273 1.52076 -1.27972e-19)
(5.30567 1.3236 0)
(5.37026 1.12291 7.20774e-20)
(5.42631 0.919045 -6.91295e-21)
(5.47365 0.71237 -6.20149e-20)
(5.51209 0.503266 -6.91956e-21)
(5.54154 0.29213 -1.58837e-20)
(5.56175 0.0793593 3.2039e-20)
(3.40959 3.10324 0)
(3.54857 2.98716 1.35883e-19)
(3.68327 2.86508 5.68999e-21)
(3.81332 2.73711 -1.41571e-19)
(3.93842 2.6034 0)
(4.05827 2.46412 1.57971e-19)
(4.17258 2.31946 -1.4138e-19)
(4.28108 2.1696 -1.79816e-19)
(4.38347 2.01474 3.24547e-19)
(4.4795 1.85512 1.94319e-19)
(4.56892 1.69097 0)
(4.65147 1.52256 9.33731e-20)
(4.72693 1.35016 -2.02495e-21)
(4.79507 1.17405 6.5306e-21)
(4.85569 0.994546 0)
(4.9086 0.811966 -9.21892e-20)
(4.95363 0.626643 -5.10999e-20)
(4.99061 0.438921 7.27793e-20)
(5.01943 0.249164 5.00287e-20)
(5.03987 0.0577293 -7.23178e-21)
(3.06828 2.74553 0)
(3.19487 2.64449 -9.45221e-20)
(3.31777 2.53789 0)
(3.43663 2.42583 -1.17719e-19)
(3.55117 2.30844 2.27581e-19)
(3.66108 2.18584 -2.42522e-19)
(3.76609 2.05819 4.04525e-19)
(3.86592 1.92566 -4.05773e-19)
(3.96031 1.78842 -2.82364e-19)
(4.04901 1.64669 -2.05869e-19)
(4.13175 1.50066 7.3023e-20)
(4.20832 1.35058 -1.60473e-19)
(4.27848 1.19669 4.78389e-21)
(4.34203 1.03927 1.61276e-19)
(4.39877 0.878582 -4.11393e-20)
(4.44852 0.714926 1.7372e-19)
(4.4911 0.548608 -8.45031e-20)
(4.52637 0.379946 3.57191e-20)
(4.55422 0.209271 -2.37262e-20)
(4.57442 0.0369152 0)
(2.77118 2.42993 0)
(2.88695 2.34216 1.78404e-19)
(2.99952 2.2492 8.51721e-20)
(3.10857 2.15113 -9.04046e-20)
(3.21379 2.04806 -1.9771e-19)
(3.31491 1.94009 3.11684e-19)
(3.41164 1.82736 4.47438e-21)
(3.50373 1.71002 -1.00427e-19)
(3.59091 1.58822 2.3982e-19)
(3.67294 1.46214 1.30623e-19)
(3.74958 1.33199 -1.14802e-19)
(3.82062 1.19797 6.44665e-20)
(3.88582 1.06033 6.58315e-21)
(3.94501 0.919299 -7.276e-20)