/*--------------------------------*- C++ -*----------------------------------*\
| =========                 |                                                 |
| \\      /  F ield         | OpenFOAM: The Open Source CFD Toolbox           |
|  \\    /   O peration     | Version:  v1912                                 |
|   \\  /    A nd           | Website:  www.openfoam.com                      |
|    \\/     M anipulation  |                                                 |
\*---------------------------------------------------------------------------*/
FoamFile
{
    version     2.0;
    format      ascii;
    class       surfaceScalarField;
    location    "30.5";
    object      phi;
}
// * * * * * * * * * * * * * * * * * * * * * * * * * * * * * * * * * * * * * //

dimensions      [0 3 -1 0 0 0 0];
oriented        oriented;


internalField   nonuniform List<scalar> 
18940
(
0.000353839
-0.234441
0.234087
0.0013632
-0.216457
0.215448
0.00285075
-0.204923
0.203436
0.00464756
-0.197113
0.195317
0.00662419
-0.191317
0.189341
0.00868002
-0.186477
0.184422
0.0107421
-0.18201
0.179948
0.0127614
-0.177622
0.175603
0.0147084
-0.173191
0.171244
0.0165676
-0.168688
0.166829
0.0183346
-0.164135
0.162368
0.0200117
-0.159574
0.157897
0.0216059
-0.155051
0.153457
0.023127
-0.15061
0.149089
0.0245861
-0.146287
0.144828
0.0259947
-0.142106
0.140697
0.0273642
-0.138078
0.136709
0.0287051
-0.134202
0.132861
0.0300257
-0.130457
0.129137
-0.126804
0.125499
0.0313312
0.000377174
-0.234818
0.00140637
-0.217486
0.00290463
-0.206422
0.00470591
-0.198915
0.00667734
-0.193289
0.00871833
-0.188518
0.0107571
-0.184049
0.0127464
-0.179611
0.0146583
-0.175103
0.0164793
-0.17051
0.0182063
-0.165862
0.0198431
-0.161211
0.0213977
-0.156606
0.0228805
-0.152093
0.0243029
-0.14771
0.0256769
-0.14348
0.0270141
-0.139416
0.0283253
-0.135513
0.0296193
-0.131751
-0.128087
0.030902
0.000398528
-0.235216
0.00144391
-0.218532
0.00295094
-0.207929
0.00475299
-0.200717
0.00671561
-0.195251
0.00873815
-0.190541
0.0107501
-0.186061
0.0127059
-0.181567
0.0145795
-0.176976
0.0163594
-0.172289
0.0180441
-0.167547
0.0196386
-0.162805
0.0211517
-0.158119
0.0225945
-0.153536
0.0239789
-0.149094
0.025317
-0.144818
0.0266206
-0.140719
0.0279008
-0.136794
0.029167
-0.133017
-0.129346
0.0304257
0.00041234
-0.235629
0.00147276
-0.219592
0.00298776
-0.209444
0.00478806
-0.202517
0.00673856
-0.197202
0.00873912
-0.192542
0.0107207
-0.188042
0.0126398
-0.183486
0.0144723
-0.178809
0.0162086
-0.174026
0.0178487
-0.169187
0.0193989
-0.164355
0.0208689
-0.159589
0.0222704
-0.154937
0.0236155
-0.150439
0.0249165
-0.146119
0.0261854
-0.141988
0.0274336
-0.138042
0.0286709
-0.134255
-0.13058
0.0299049
0.000423562
-0.236052
0.00149626
-0.220665
0.00301643
-0.210964
0.00481177
-0.204312
0.00674662
-0.199137
0.00872168
-0.194517
0.0106696
-0.18999
0.0125488
-0.185365
0.0143374
-0.180598
0.0160276
-0.175716
0.0176211
-0.170781
0.0191252
-0.165859
0.0205507
-0.161014
0.0219096
-0.156296
0.0232142
-0.151744
0.0244771
-0.147382
0.0257103
-0.143221
0.0269255
-0.139257
0.0281331
-0.135462
-0.131788
0.0293415
0.000432621
-0.236485
0.00151482
-0.221747
0.0030372
-0.212486
0.00482434
-0.2061
0.00674011
-0.201053
0.00868622
-0.196463
0.0105971
-0.191901
0.0124335
-0.187202
0.0141755
-0.18234
0.0158174
-0.177358
0.0173622
-0.172326
0.0188187
-0.167316
0.0201982
-0.162394
0.0215131
-0.157611
0.0227762
-0.153007
0.0239999
-0.148606
0.0251964
-0.144418
0.0263777
-0.140438
0.0275546
-0.136639
-0.13297
0.0287369
0.000440082
-0.236925
0.00152913
-0.222836
0.00305065
-0.214008
0.00482625
-0.207875
0.0067195
-0.202946
0.0086333
-0.198376
0.0105041
-0.193772
0.0122947
-0.188992
0.0139876
-0.184033
0.0155789
-0.178949
0.0170732
-0.17382
0.0184804
-0.168723
0.0198124
-0.163726
0.0210823
-0.158881
0.0223026
-0.154227
0.023486
-0.149789
0.0246447
-0.145577
0.0257909
-0.141584
0.0269363
-0.137785
-0.134125
0.0280914
0.000446101
-0.237371
0.00153949
-0.22393
0.00305716
-0.215525
0.00481797
-0.209636
0.00668536
-0.204813
0.00856359
-0.200255
0.0103912
-0.195599
0.0121334
-0.190734
0.0137747
-0.185674
0.0153133
-0.180488
0.0167552
-0.175262
0.0181114
-0.170079
0.0193945
-0.165009
0.0206179
-0.160104
0.0217943
-0.155404
0.0229362
-0.150931
0.0240558
-0.146696
0.0251656
-0.142694
0.0262781
-0.138897
-0.135252
0.027405
0.000450784
-0.237822
0.00154621
-0.225025
0.00305717
-0.217036
0.00480005
-0.211379
0.00663836
-0.206651
0.0084779
-0.202094
0.0102594
-0.197381
0.0119505
-0.192426
0.013538
-0.187261
0.0150217
-0.181971
0.0164093
-0.17665
0.0177128
-0.171383
0.0189455
-0.166242
0.0201209
-0.16128
0.0212519
-0.156535
0.0223507
-0.15203
0.0234297
-0.147775
0.0245016
-0.143766
0.0255795
-0.139975
-0.13635
0.0266767
0.000454203
-0.238276
0.00154956
-0.22612
0.00305117
-0.218538
0.00477313
-0.213101
0.00657928
-0.208458
0.00837717
-0.203892
0.0101098
-0.199113
0.0117473
-0.194063
0.0132786
-0.188793
0.0147054
-0.183398
0.0160369
-0.177981
0.017286
-0.172632
0.0184665
-0.167422
0.0195922
-0.162405
0.020676
-0.157618
0.02173
-0.153084
0.0227663
-0.148812
0.023798
-0.144798
0.0248392
-0.141016
-0.137415
0.0259047
0.000456466
-0.238733
0.00154989
-0.227214
0.00303971
-0.220028
0.00473796
-0.214799
0.00650907
-0.210229
0.00826251
-0.205646
0.00994375
-0.200795
0.0115252
-0.195644
0.0129982
-0.190266
0.0143661
-0.184766
0.0156396
-0.179254
0.0168322
-0.173824
0.0179587
-0.168549
0.0190327
-0.16348
0.0200673
-0.158653
0.0210741
-0.15409
0.0220652
-0.149803
0.0230539
-0.145786
0.0240553
-0.142018
-0.138446
0.0250862
0.000457725
-0.23919
0.00154764
-0.228304
0.00302347
-0.221504
0.00469542
-0.216471
0.00642883
-0.211962
0.00813525
-0.207352
0.00976265
-0.202422
0.0112859
-0.197168
0.0126985
-0.191678
0.0140056
-0.186073
0.015219
-0.180468
0.0163533
-0.174959
0.0174235
-0.169619
0.0184437
-0.1645
0.0194263
-0.159636
0.0203832
-0.155047
0.0213259
-0.150745
0.022268
-0.146729
0.0232258
-0.142975
-0.139438
0.0242182
0.000458259
-0.239649
0.00154341
-0.229389
0.0030033
-0.222963
0.00464658
-0.218114
0.00633983
-0.213655
0.00799689
-0.209009
0.00956831
-0.203994
0.0110314
-0.198631
0.0123817
-0.193029
0.0136261
-0.187318
0.0147776
-0.181619
0.0158514
-0.176032
0.016863
-0.17063
0.0178265
-0.165463
0.0187543
-0.160563
0.0196578
-0.155951
0.0205482
-0.151636
0.0214391
-0.147619
0.0223481
-0.143884
-0.140387
0.0232968
0.000458546
-0.240107
0.00153807
-0.230468
0.00298025
-0.224406
0.00459267
-0.219727
0.00624353
-0.215306
0.00784917
-0.210615
0.00936271
-0.205507
0.0107639
-0.200032
0.0120503
-0.194315
0.0132304
-0.188498
0.014318
-0.182707
0.0153291
-0.177044
0.0162795
-0.171581
0.0171833
-0.166367
0.0180526
-0.161433
0.0188983
-0.156797
0.0197314
-0.152469
0.0205652
-0.148453
0.0214184
-0.144738
-0.141284
0.0223156
0.000459385
-0.240566
0.00153278
-0.231542
0.00295552
-0.225828
0.00453503
-0.221306
0.00614153
-0.216913
0.00769397
-0.212167
0.0091481
-0.206961
0.0104861
-0.20137
0.0117073
-0.195536
0.0128217
-0.189612
0.0138439
-0.183729
0.0147904
-0.17799
0.015677
-0.172467
0.0165175
-0.167207
0.0173239
-0.162239
0.0181064
-0.157579
0.0188753
-0.153238
0.0196435
-0.149222
0.0204305
-0.145525
-0.14212
0.0212664
0.000461923
-0.241028
0.00152883
-0.232609
0.00293032
-0.22723
0.00447502
-0.222851
0.0060355
-0.218473
0.00753334
-0.213665
0.00892694
-0.208355
0.0102007
-0.202644
0.0113561
-0.196692
0.0124039
-0.19066
0.0133598
-0.184685
0.0142402
-0.178871
0.0150607
-0.173288
0.015835
-0.167982
0.0165741
-0.162978
0.0172873
-0.158292
0.0179839
-0.153934
0.0186756
-0.149913
0.0193833
-0.146232
-0.142883
0.0201459
0.000467547
-0.241496
0.00152754
-0.233669
0.00290595
-0.228608
0.00441419
-0.224359
0.00592728
-0.219986
0.00736946
-0.215107
0.00870183
-0.209687
0.00991112
-0.203853
0.0110004
-0.197781
0.0119816
-0.191641
0.0128707
-0.185574
0.0136842
-0.179684
0.0144373
-0.174041
0.0151428
-0.168687
0.0158111
-0.163647
0.0164504
-0.158932
0.0170681
-0.154552
0.0176743
-0.150519
0.0182897
-0.146848
-0.143547
0.0189542
0.000478588
-0.241975
0.00153153
-0.234722
0.00288487
-0.229962
0.00435463
-0.225829
0.00581881
-0.221451
0.00720442
-0.216493
0.00847528
-0.210958
0.00962035
-0.204998
0.0106442
-0.198805
0.0115596
-0.192556
0.0123827
-0.186397
0.0131294
-0.180431
0.013814
-0.174726
0.0144482
-0.169321
0.0150411
-0.164239
0.0156
-0.15949
0.0161314
-0.155084
0.0166417
-0.15103
0.0171438
-0.14735
-0.144066
0.0176622
0.000502625
-0.242477
0.00154801
-0.235767
0.00287115
-0.231285
0.00429825
-0.227256
0.00571131
-0.222864
0.00703962
-0.217821
0.0082493
-0.212168
0.00933136
-0.20608
0.0102917
-0.199765
0.0111439
-0.193409
0.0119037
-0.187157
0.0125862
-0.181113
0.0132037
-0.175343
0.0137653
-0.169883
0.0142766
-0.164751
0.0147414
-0.159955
0.0151615
-0.155504
0.0155356
-0.151404
0.0158684
-0.147683
-0.144419
0.0162219
0.000559774
-0.243037
0.00158532
-0.236793
0.00286451
-0.232564
0.00424384
-0.228635
0.00560428
-0.224224
0.00687545
-0.219092
0.00802517
-0.213317
0.00904641
-0.207101
0.00994661
-0.200665
0.0107401
-0.194202
0.0114427
-0.18786
0.0120686
-0.181739
0.0126286
-0.175903
0.0131279
-0.170382
0.0135666
-0.165189
0.0139371
-0.160326
0.0142228
-0.155789
0.0143975
-0.151579
0.0144558
-0.147741
-0.144588
0.014625
0.250659
0.000412514
-0.251072
0.250273
0.00038609
0.249894
0.000378758
0.249516
0.000378832
0.249134
0.000381723
0.248748
0.000386079
0.248357
0.000391177
0.24796
0.000396427
0.247559
0.000401437
0.247153
0.000406002
0.246743
0.000410024
0.246329
0.000413476
0.245913
0.00041634
0.245494
0.000418592
0.245074
0.000420108
0.244653
0.00042068
0.244234
0.000419261
0.243819
0.0004153
0.243419
0.000399599
0.000382415
0.252512
0.00101672
-0.253116
0.251873
0.00102561
0.251205
0.00104643
0.250511
0.00107316
0.249791
0.00110126
0.249048
0.00112939
0.248282
0.00115706
0.247495
0.00118378
0.246687
0.00120912
0.24586
0.00123283
0.245015
0.00125479
0.244154
0.00127497
0.243277
0.00129338
0.242385
0.00131
0.241481
0.00132469
0.240564
0.00133724
0.239637
0.00134654
0.2387
0.00135233
0.237751
0.00134832
0.00134116
0.251207
0.00158448
-0.251775
0.250575
0.00165778
0.24989
0.00173132
0.249157
0.00180597
0.248379
0.00187939
0.247558
0.00195036
0.246696
0.00201854
0.245796
0.00208372
0.24486
0.00214563
0.243889
0.00220412
0.242884
0.00225914
0.241849
0.00231072
0.240783
0.00235896
0.239689
0.00240395
0.238568
0.00244572
0.237421
0.00248428
0.236248
0.00251913
0.23505
0.00255048
0.233823
0.00257597
0.00259977
0.247044
0.00202488
-0.247484
0.246534
0.00216744
0.24596
0.00230539
0.245326
0.00244018
0.244634
0.00257115
0.243887
0.0026975
0.243087
0.00281889
0.242235
0.00293517
0.241335
0.00304617
0.240387
0.00315183
0.239394
0.00325217
0.238358
0.0033473
0.237279
0.00343742
0.23616
0.00352282
0.235002
0.00360376
0.233806
0.00368059
0.232572
0.00375342
0.231299
0.00382286
0.229987
0.00388819
0.0039514
0.240761
0.0023023
-0.241039
0.240413
0.00251572
0.239996
0.0027224
0.239513
0.00292316
0.238966
0.00311796
0.238357
0.00330636
0.237688
0.003488
0.236961
0.0036627
0.236177
0.00383033
0.235338
0.00399084
0.234445
0.00414432
0.233502
0.00429094
0.232508
0.00443103
0.231466
0.00456505
0.230376
0.00469353
0.22924
0.00481716
0.228056
0.00493653
0.226827
0.00505258
0.225549
0.00516547
0.00527687
0.233144
0.00242524
-0.233267
0.232951
0.00270883
0.232689
0.00298452
0.232359
0.0032526
0.231964
0.00351309
0.231505
0.00376571
0.230983
0.0040101
0.230399
0.00424604
0.229756
0.00447339
0.229055
0.00469211
0.228297
0.00490228
0.227484
0.00510417
0.226617
0.00529819
0.225697
0.00548496
0.224725
0.00566529
0.223702
0.00584019
0.222628
0.00601071
0.221502
0.00617822
0.220324
0.00634357
0.00650859
0.224889
0.00242391
-0.224888
0.224823
0.00277515
0.224689
0.00311772
0.22449
0.00345158
0.224227
0.00377662
0.2239
0.00409258
0.223511
0.00439912
0.223061
0.00469594
0.222552
0.00498288
0.221984
0.00525987
0.221359
0.005527
0.220679
0.00578456
0.219944
0.00603305
0.219156
0.00627327
0.218315
0.00650625
0.217421
0.00673336
0.216476
0.00695614
0.215478
0.00717648
0.214425
0.0073959
0.00761655
0.216519
0.00233415
-0.216429
0.216545
0.00274951
0.216507
0.00315562
0.216406
0.00355218
0.216244
0.00393897
0.216021
0.00431567
0.215738
0.0046819
0.215396
0.00503733
0.214998
0.0053817
0.214543
0.00571493
0.214033
0.00603708
0.213469
0.00634843
0.212852
0.00664956
0.212184
0.00694137
0.211465
0.00722518
0.210696
0.00750271
0.209876
0.00777605
0.209005
0.00804771
0.20808
0.00832002
0.00859565
0.208379
0.00218896
-0.208233
0.208463
0.0026647
0.208488
0.00313063
0.208454
0.0035863
0.208362
0.00403137
0.208212
0.00446545
0.208006
0.00488809
0.207744
0.0052989
0.207429
0.00569755
0.20706
0.00608387
0.206639
0.00645788
0.206167
0.00681982
0.205647
0.00717029
0.205078
0.00751029
0.204462
0.00784137
0.203799
0.00816562
0.203089
0.00848578
0.202332
0.00880509
0.201525
0.00912698
0.00945494
0.200666
0.00201512
-0.200493
0.200783
0.0025477
0.200844
0.00306988
0.200849
0.00358113
0.2008
0.00408101
0.200696
0.00456902
0.20054
0.00504465
0.200331
0.00550739
0.200072
0.00595686
0.199763
0.00639276
0.199406
0.00681501
0.199002
0.00722378
0.198552
0.00761963
0.198059
0.00800359
0.197523
0.00837741
0.196945
0.0087435
0.196326
0.00910537
0.195664
0.00946712
0.194957
0.00983368
0.0102098
0.193475
0.00183234
-0.193293
0.193604
0.00241867
0.19368
0.00299403
0.193704
0.00355775
0.193675
0.0041093
0.193596
0.0046481
0.193467
0.00517353
0.19329
0.00568499
0.193065
0.00618197
0.192793
0.00666405
0.192477
0.00713099
0.192118
0.00758283
0.191718
0.00802001
0.191278
0.00844346
0.1908
0.00885507
0.190286
0.00925748
0.189737
0.00965508
0.189151
0.0100529
0.188527
0.010458
0.0108769
0.186828
0.00165397
-0.18665
0.186955
0.00229156
0.187032
0.00291758
0.187058
0.00353121
0.187036
0.00413182
0.186965
0.00471874
0.186847
0.00529126
0.186684
0.00584866
0.186475
0.00639027
0.186224
0.00691553
0.185931
0.007424
0.185598
0.00791547
0.185228
0.00839019
0.184823
0.00884882
0.184384
0.00929331
0.183916
0.00972621
0.183418
0.010153
0.182891
0.0105794
0.182333
0.0110159
0.0114709
0.180706
0.00148832
-0.18054
0.180822
0.00217534
0.180889
0.00285004
0.180909
0.00351153
0.180882
0.00415911
0.180809
0.00479201
0.18069
0.00540941
0.180529
0.00601047
0.180324
0.00659437
0.18008
0.00716034
0.179796
0.00770769
0.179476
0.00823589
0.179121
0.00874486
0.178735
0.00923481
0.178321
0.00970754
0.177882
0.0101651
0.177421
0.0106143
0.176939
0.0110607
0.176435
0.0115204
0.0120027
0.175066
0.00134022
-0.174918
0.175166
0.00207516
0.175219
0.002797
0.175226
0.00350479
0.175187
0.00419771
0.175104
0.00487492
0.174978
0.00553548
0.17481
0.00617843
0.174602
0.00680277
0.174355
0.0074075
0.174071
0.00799165
0.173752
0.00855429
0.173402
0.00909487
0.173024
0.00961285
0.172622
0.0101097
0.172201
0.0105862
0.171764
0.0110509
0.171318
0.011507
0.170858
0.0119805
0.0124782
0.169857
0.00121197
-0.169729
0.169939
0.00199374
0.169974
0.00276148
0.169965
0.00351428
0.169911
0.00425125
0.169815
0.00497143
0.169676
0.00567378
0.169498
0.00635722
0.16928
0.00702057
0.169025
0.0076626
0.168734
0.00828201
0.168411
0.00887737
0.168059
0.00944758
0.16768
0.00999106
0.167281
0.0105087
0.166869
0.0109988
0.166448
0.0114721
0.166029
0.0119255
0.165607
0.0124022
0.0128962
0.165025
0.00110437
-0.164918
0.165087
0.00193189
0.165104
0.00274448
0.165077
0.00354122
0.165007
0.00432112
0.164896
0.00508314
0.164743
0.00582615
0.164552
0.00654895
0.164322
0.00725018
0.164056
0.00792837
0.163756
0.00858189
0.163425
0.0092088
0.163065
0.0098073
0.162682
0.0103745
0.16228
0.0109104
0.161869
0.0114095
0.161456
0.0118851
0.161061
0.0123208
0.160674
0.0127889
0.0132446
0.160519
0.00101693
-0.160431
0.160561
0.00188916
0.16056
0.00274561
0.160516
0.00358524
0.16043
0.00440702
0.160304
0.00520981
0.160137
0.00599242
0.159933
0.00675351
0.159691
0.00749161
0.159415
0.008205
0.159105
0.00889172
0.158764
0.00954937
0.158396
0.0101754
0.158005
0.0107655
0.157598
0.0113182
0.157184
0.0118228
0.156774
0.012295
0.156399
0.0126961
0.156043
0.0131456
0.0134979
0.15629
0.000947822
-0.156221
0.156315
0.00186402
0.156298
0.00276317
0.156238
0.00364454
0.156138
0.00450701
0.155999
0.00534936
0.155821
0.00617035
0.155606
0.00696856
0.155355
0.00774238
0.15507
0.0084899
0.154753
0.00920893
0.154406
0.0098966
0.154031
0.0105497
0.153634
0.0111625
0.153221
0.0117319
0.152803
0.0122405
0.152393
0.0127051
0.152039
0.0130504
0.151706
0.013478
0.0136254
0.152297
0.000895136
-0.152244
0.152307
0.00185364
0.152277
0.00279398
0.152206
0.00371557
0.152096
0.00461711
0.151948
0.00549737
0.151763
0.0063551
0.151543
0.0071888
0.151288
0.00799676
0.151001
0.00877695
0.150683
0.00952699
0.150336
0.0102437
0.149962
0.0109234
0.149566
0.0115591
0.149151
0.0121466
0.148731
0.0126609
0.148317
0.0131189
0.147983
0.0133839
0.147692
0.0137696
0.0135762
0.148501
-0.148463
0.000857275
0.1485
0.00185409
0.148461
0.00283368
0.148383
0.00379327
0.148269
0.0047315
0.148119
0.00564726
0.147934
0.00653929
0.147717
0.00740604
0.147468
0.00824574
0.147189
0.00905629
0.146881
0.00983524
0.146545
0.0105792
0.146184
0.0112845
0.1458
0.011943
0.145396
0.0125507
0.144981
0.013076
0.14456
0.0135399
0.144211
0.0137333
0.143954
0.0140262
0.0129417
0.254266
7.39678e-05
-0.25434
0.25423
3.61203e-05
0.254198
3.21175e-05
0.254157
4.08903e-05
0.254102
5.51678e-05
0.254029
7.28689e-05
0.253936
9.26918e-05
0.253823
0.000113514
0.253688
0.000134523
0.253533
0.000155217
0.253358
0.000175155
0.253164
0.000194048
0.252952
0.000212349
0.25272
0.000231072
0.252472
0.000248298
0.252209
0.000263425
0.251933
0.000276017
0.251647
0.000285998
0.251359
0.000287517
0.000287458
0.256008
-0.000239665
-0.255694
0.25626
-0.000216315
0.256468
-0.000175929
0.256632
-0.000122653
0.25675
-6.30088e-05
0.256823
4.02998e-07
0.256849
6.64392e-05
0.256828
0.000134008
0.256761
0.000202197
0.256646
0.000270089
0.256484
0.00033643
0.256278
0.000400015
0.256031
0.00045966
0.255736
0.00052589
0.255397
0.000587504
0.255016
0.000644366
0.254596
0.000696499
0.254138
0.000743869
0.253644
0.000781811
0.000814534
0.251382
-0.000892227
-0.250729
0.251962
-0.000796302
0.252476
-0.000690541
0.252929
-0.000575088
0.253319
-0.000453456
0.253647
-0.000327887
0.253913
-0.000199524
0.254117
-6.98013e-05
0.254258
6.13025e-05
0.254335
0.000193338
0.254349
0.000322352
0.254301
0.00044795
0.254188
0.00057241
0.254018
0.000696467
0.253789
0.000816621
0.253501
0.000931799
0.253156
0.00104148
0.252754
0.00114558
0.252294
0.00124215
0.00133401
0.243039
-0.00182153
-0.24211
0.243896
-0.00165332
0.244683
-0.00147786
0.245403
-0.0012944
0.246054
-0.0011046
0.246636
-0.000910271
0.247149
-0.000712752
0.247593
-0.000513303
0.247967
-0.000312607
0.248268
-0.000107976
0.248498
9.27364e-05
0.24866
0.000286064
0.248751
0.000481394
0.248773
0.000673708
0.248728
0.000861997
0.248615
0.00104536
0.248433
0.001223
0.248184
0.00139455
0.247867
0.00155897
0.00171679
0.232952
-0.00294814
-0.231825
0.234011
-0.00271219
0.235002
-0.00246876
0.235925
-0.0022174
0.236779
-0.00195901
0.237564
-0.0016951
0.238278
-0.00142706
0.238921
-0.00115613
0.239492
-0.000883249
0.239993
-0.000609204
0.240423
-0.000337157
0.240778
-6.86316e-05
0.24106
0.000198512
0.241272
0.000462338
0.241411
0.000722483
0.241479
0.000977517
0.241475
0.00122669
0.241401
0.00146939
0.241255
0.00170481
0.00193287
0.222398
-0.00420029
-0.221146
0.223587
-0.00390149
0.224712
-0.00359363
0.225771
-0.00327686
0.226764
-0.00295197
0.22769
-0.00262038
0.228546
-0.00228366
0.229333
-0.00194327
0.230051
-0.00160063
0.230699
-0.00125709
0.231276
-0.000914209
0.23178
-0.000573274
0.232214
-0.000235149
0.232578
9.859e-05
0.232871
0.000429498
0.233092
0.000756468
0.233242
0.00107676
0.233321
0.00139032
0.233329
0.00169652
0.00199511
0.212154
-0.0055209
-0.210834
0.213416
-0.00516342
0.214617
-0.00479477
0.215756
-0.00441559
0.216831
-0.00402692
0.217841
-0.00363036
0.218785
-0.00322769
0.219662
-0.00282067
0.220473
-0.00241092
0.221215
-0.0019999
0.22189
-0.00158901
0.222497
-0.00117966
0.223034
-0.000772643
0.223501
-0.000368692
0.223906
2.43744e-05
0.22424
0.000423249
0.224504
0.000812377
0.2247
0.00119425
0.224828
0.00156876
0.0019355
0.202628
-0.00686855
-0.201281
0.203921
-0.00645569
0.205155
-0.00602928
0.20633
-0.00559033
0.207443
-0.0051403
0.208494
-0.00468119
0.209482
-0.00421512
0.210405
-0.0037441
0.211264
-0.00326995
0.212058
-0.0027943
0.212788
-0.0023186
0.213453
-0.00184423
0.214052
-0.00137227
0.214587
-0.000903675
0.215051
-0.000439831
0.215461
1.32506e-05
0.2158
0.000473818
0.216075
0.000919695
0.216284
0.00135905
0.00179054
0.193978
-0.00821564
-0.192631
0.195273
-0.00774996
0.196511
-0.00726803
0.197692
-0.00677118
0.198814
-0.00626153
0.199874
-0.00574168
0.200873
-0.00521417
0.20181
-0.00468132
0.202686
-0.00414517
0.203499
-0.0036075
0.20425
-0.00306984
0.204939
-0.00253354
0.205567
-0.00199976
0.206133
-0.00146944
0.206637
-0.000943987
0.207075
-0.000424695
0.207459
8.99077e-05
0.207778
0.000600383
0.208036
0.00110075
0.00159329
0.186212
-0.00954556
-0.184882
0.187491
-0.00902902
0.188716
-0.00849305
0.189884
-0.00793935
0.190994
-0.00737105
0.192044
-0.00679155
0.193034
-0.00620392
0.193963
-0.00561082
0.194832
-0.00501454
0.195642
-0.00441698
0.196392
-0.0038197
0.197082
-0.00322401
0.197714
-0.00263108
0.198286
-0.00204187
0.198799
-0.00145737
0.199253
-0.000878503
0.199649
-0.000306008
0.199989
0.000260535
0.20027
0.00082014
0.0013703
0.179259
-0.0108497
-0.177955
0.180514
-0.010284
0.181716
-0.0096948
0.182861
-0.00908447
0.183948
-0.00845772
0.184975
-0.007819
0.185943
-0.00717195
0.186852
-0.00651965
0.187702
-0.0058646
0.188494
-0.00520877
0.189228
-0.00455372
0.189904
-0.0039007
0.190524
-0.0032508
0.191087
-0.00260493
0.191594
-0.00196396
0.192044
-0.00132875
0.192438
-0.000699835
0.192779
-8.01419e-05
0.193063
0.000535654
0.00114075
0.173016
-0.012125
-0.17174
0.174244
-0.011512
0.175418
-0.0108697
0.176536
-0.0102021
0.177595
-0.00951643
0.178594
-0.00881833
0.179534
-0.00811206
0.180416
-0.00740114
0.181239
-0.00668825
0.182006
-0.00597536
0.182716
-0.00526395
0.183371
-0.00455516
0.18397
-0.00384998
0.184514
-0.00314927
0.185004
-0.0024538
0.18544
-0.00176441
0.185822
-0.00108184
0.186149
-0.000407693
0.186427
0.000258213
0.000917669
0.167374
-0.0133723
-0.166126
0.168576
-0.0127143
0.169725
-0.0120182
0.170814
-0.0112919
0.171844
-0.0105462
0.172814
-0.009788
0.173724
-0.00902224
0.174576
-0.00825286
0.17537
-0.00748267
0.176108
-0.00671353
0.176791
-0.00594676
0.177419
-0.00518337
0.177994
-0.00442418
0.178514
-0.00366997
0.178982
-0.00292146
0.179397
-0.00217946
0.17976
-0.00144445
0.180069
-0.000717183
0.180332
-4.42234e-06
0.000709398
0.162235
-0.0145955
-0.161011
0.163416
-0.0138958
0.164542
-0.0131438
0.165606
-0.0123563
0.166609
-0.0115488
0.16755
-0.010729
0.16843
-0.00990286
0.169252
-0.00907473
0.170017
-0.00824738
0.170726
-0.00742244
0.17138
-0.00660099
0.17198
-0.00578381
0.172528
-0.00497155
0.173023
-0.00416486
0.173466
-0.00336438
0.173857
-0.00257088
0.174198
-0.00178499
0.174488
-0.00100805
0.174726
-0.000241873
0.000517572
0.157516
-0.015801
-0.15631
0.158684
-0.0150639
0.159792
-0.0142523
0.160836
-0.0133997
0.161814
-0.0125271
0.162728
-0.0116431
0.16358
-0.010755
0.164373
-0.00986727
0.165108
-0.00898253
0.165787
-0.00810199
0.166413
-0.00722635
0.166985
-0.00635605
0.167505
-0.0054915
0.167973
-0.00463318
0.16839
-0.00378166
0.168757
-0.00293763
0.169074
-0.00210185
0.169341
-0.00127529
0.169558
-0.000459068
0.000347048
0.153154
-0.0170016
-0.151954
0.15432
-0.0162291
0.155418
-0.0153503
0.156444
-0.0144267
0.157401
-0.0134833
0.158289
-0.012531
0.159112
-0.0115783
0.159875
-0.0106299
0.160579
-0.00968746
0.161229
-0.0087516
0.161825
-0.00782239
0.162369
-0.00689978
0.162861
-0.00598383
0.163303
-0.0050748
0.163694
-0.00417316
0.164036
-0.00327951
0.164329
-0.00239462
0.164573
-0.00151932
0.164769
-0.000654819
0.000197896
0.149106
-0.018226
-0.147881
0.150283
-0.0174064
0.151377
-0.0164441
0.15239
-0.0154395
0.153322
-0.0144162
0.154181
-0.0133893
0.154972
-0.0123696
0.155702
-0.0113598
0.156375
-0.0103601
0.156993
-0.00936991
0.157559
-0.00838837
0.158074
-0.00741473
0.158539
-0.00644859
0.158954
-0.00549001
0.15932
-0.00453929
0.159638
-0.00359702
0.159907
-0.00266394
0.160129
-0.00174094
0.160303
-0.000829013
6.94539e-05
0.14534
-0.0195385
-0.144027
0.146551
-0.0186173
0.147641
-0.0175341
0.148634
-0.0164329
0.149535
-0.0153173
0.150356
-0.0142101
0.151109
-0.0131225
0.151802
-0.0120528
0.15244
-0.0109979
0.153025
-0.00995563
0.153561
-0.00892391
0.154047
-0.00790112
0.154485
-0.00688643
0.154875
-0.00587967
0.155217
-0.0048811
0.155511
-0.00389129
0.155758
-0.00291103
0.155958
-0.00194137
0.156113
-0.000983333
-3.88511e-05
0.141872
-0.0210084
-0.140402
0.143113
-0.0198587
0.144181
-0.018602
0.145133
-0.0173846
0.145986
-0.0161704
0.146759
-0.0149827
0.147467
-0.0138305
0.148119
-0.0127053
0.148721
-0.0115996
0.149274
-0.0105089
0.14978
-0.00942987
0.150239
-0.00836021
0.150651
-0.00729876
0.151017
-0.00624532
0.151336
-0.0052002
0.151609
-0.00416403
0.151835
-0.00313768
0.152016
-0.00212233
0.152153
-0.00111948
-0.000130705
0.13877
-0.13736
-0.0224177
0.139924
-0.0210132
0.140952
-0.0196301
0.141825
-0.0182577
0.142611
-0.0169565
0.143332
-0.0157038
0.143995
-0.0144934
0.144608
-0.0133182
0.145176
-0.012167
0.145699
-0.0110318
0.146177
-0.00990825
0.146611
-0.00879369
0.146999
-0.00768707
0.147342
-0.00658832
0.14764
-0.00549791
0.147892
-0.00441666
0.1481
-0.00334555
0.148263
-0.0022856
0.148382
-0.00123841
-0.000211322
0.0305483
0.111719
-0.110248
-0.0320194
0.0290505
0.114743
-0.113246
0.0275234
0.117902
-0.116375
0.0259633
0.121218
-0.119658
0.0243668
0.124724
-0.123128
0.0227313
0.128462
-0.126826
0.0210544
0.132489
-0.130812
0.0193348
0.136884
-0.135164
0.0175717
0.14175
-0.139987
0.0157654
0.147217
-0.145411
0.0139176
0.153445
-0.151598
0.0120325
0.160619
-0.158734
0.0101187
0.168938
-0.167024
0.00819292
0.178588
-0.176663
0.00628472
0.189691
-0.187783
0.00444388
0.202211
-0.200371
0.00274954
0.215816
-0.214122
0.0013213
0.229658
-0.22823
0.00032716
0.241973
-0.240979
0.249656
-0.249328
0.0303672
0.113183
-0.0318314
0.0288765
0.116234
0.0273566
0.119422
0.025804
0.122771
0.0242152
0.126313
0.0225875
0.130089
0.0209184
0.134158
0.0192065
0.138596
0.0174509
0.143505
0.0156518
0.149016
0.013811
0.155286
0.0119331
0.162497
0.0100274
0.170844
0.00811119
0.180505
0.00621531
0.191587
0.004391
0.204036
0.00271888
0.217488
0.001318
0.231059
0.000351056
0.24294
0.250007
0.0301444
0.114638
-0.0315993
0.0286629
0.117716
0.0271525
0.120933
0.0256095
0.124314
0.0240306
0.127892
0.0224128
0.131707
0.0207538
0.135817
0.0190518
0.140298
0.017306
0.145251
0.0155164
0.150806
0.0136852
0.157117
0.011817
0.164365
0.00992168
0.172739
0.00801746
0.182409
0.00613603
0.193468
0.00432967
0.205842
0.00267951
0.219138
0.00130297
0.232435
0.000354269
0.243889
0.250361
0.0298813
0.116082
-0.031325
0.0284113
0.119186
0.0269125
0.122431
0.0253812
0.125845
0.0238142
0.129459
0.0222085
0.133313
0.0205615
0.137464
0.0188716
0.141988
0.0171376
0.146985
0.0153598
0.152584
0.0135403
0.158937
0.0116841
0.166222
0.00980152
0.174622
0.00791142
0.184299
0.00604632
0.195333
0.00425923
0.207629
0.00263143
0.220766
0.00127867
0.233788
0.00034935
0.244818
0.25071
0.0295804
0.117512
-0.0310108
0.0281237
0.120642
0.0266383
0.123917
0.0251206
0.127363
0.0235674
0.131012
0.0219755
0.134905
0.0203424
0.139097
0.0186664
0.143664
0.0169463
0.148705
0.0151824
0.154348
0.0133767
0.160743
0.0115346
0.168064
0.00966692
0.17649
0.00779304
0.186173
0.00594628
0.19718
0.00418029
0.209395
0.00257638
0.22237
0.00124866
0.235116
0.000340581
0.245726
0.251051
0.029244
0.118928
-0.0306596
0.0278022
0.122084
0.0263318
0.125387
0.0248293
0.128865
0.0232914
0.13255
0.0217149
0.136481
0.0200975
0.140714
0.0184371
0.145324
0.0167327
0.15041
0.0149845
0.156096
0.0131947
0.162533
0.0113688
0.16989
0.00951807
0.17834
0.00766255
0.188028
0.00583626
0.199007
0.00409345
0.211138
0.00251535
0.223948
0.00121431
0.236417
0.000329129
0.246611
0.25138
0.028875
0.120327
-0.0302747
0.0274491
0.12351
0.025995
0.126841
0.024509
0.130351
0.0229877
0.134072
0.0214281
0.138041
0.0198277
0.142314
0.0181846
0.146967
0.0164975
0.152097
0.0147668
0.157827
0.0129947
0.164305
0.011187
0.171697
0.00935527
0.180172
0.00752024
0.189863
0.00571659
0.20081
0.00399908
0.212855
0.00244878
0.225498
0.00117618
0.23769
0.000315699
0.247472
0.251696
0.0284761
0.121711
-0.0298594
0.027067
0.124919
0.0256299
0.128278
0.0241612
0.13182
0.0226576
0.135575
0.021116
0.139582
0.0195339
0.143896
0.0179094
0.148592
0.0162412
0.153765
0.0145296
0.159538
0.012777
0.166057
0.0109894
0.173485
0.00917881
0.181983
0.00736639
0.191676
0.00558752
0.202589
0.00389747
0.214545
0.002377
0.227019
0.00113478
0.238932
0.000300893
0.248306
0.251997
0.0280502
0.123078
-0.029417
0.026658
0.126311
0.0252384
0.129698
0.0237876
0.133271
0.0223023
0.137061
0.0207795
0.141105
0.0192168
0.145459
0.0176122
0.150196
0.0159643
0.155413
0.0142734
0.161229
0.0125421
0.167789
0.0107765
0.17525
0.00898891
0.18377
0.00720121
0.193463
0.00544933
0.204341
0.00378891
0.216206
0.00230041
0.228507
0.00109059
0.240142
0.000285128
0.249111
0.252282
0.0276001
0.124429
-0.0289511
0.0262244
0.127687
0.024822
0.1311
0.0233892
0.134704
0.0219226
0.138527
0.0204194
0.142608
0.018877
0.147002
0.0172933
0.15178
0.015667
0.157039
0.0139984
0.162898
0.01229
0.169497
0.0105482
0.176992
0.00878577
0.185533
0.00702494
0.195224
0.00530224
0.206064
0.0036737
0.217834
0.00221935
0.229962
0.00104397
0.241317
0.000268649
0.249886
0.25255
0.0271282
0.125765
-0.0284649
0.0257678
0.129048
0.0243819
0.132486
0.0229668
0.136119
0.0215192
0.139975
0.020036
0.144092
0.0185146
0.148523
0.0169529
0.153342
0.0153495
0.158642
0.0137047
0.164542
0.0120209
0.171181
0.0103049
0.178708
0.00856955
0.187268
0.00683774
0.196956
0.0051465
0.207755
0.00355211
0.219429
0.00213411
0.23138
0.000995208
0.242456
0.000251614
0.25063
0.252802
0.0266358
0.12709
-0.0279608
0.0252889
0.130394
0.0239184
0.133857
0.0225205
0.137517
0.0210917
0.141404
0.0196289
0.145554
0.0181294
0.150023
0.0165908
0.15488
0.0150117
0.160221
0.0133921
0.166162
0.0117348
0.172838
0.0100464
0.180397
0.00834033