/*--------------------------------*- C++ -*----------------------------------*\
| =========                 |                                                 |
| \\      /  F ield         | OpenFOAM: The Open Source CFD Toolbox           |
|  \\    /   O peration     | Version:  v1912                                 |
|   \\  /    A nd           | Website:  www.openfoam.com                      |
|    \\/     M anipulation  |                                                 |
\*---------------------------------------------------------------------------*/
FoamFile
{
    version     2.0;
    format      ascii;
    class       volVectorField;
    location    "30.5";
    object      U;
}
// * * * * * * * * * * * * * * * * * * * * * * * * * * * * * * * * * * * * * //

dimensions      [0 1 -1 0 0 0 0];


internalField   nonuniform List<vector> 
9600
(
(0.456642 -9.365 -1.53853e-19)
(0.159521 -8.63827 0)
(0.241115 -8.16562 -9.02791e-20)
(0.31908 -7.84546 0)
(0.385595 -7.60872 0)
(0.453208 -7.41222 -3.17286e-20)
(0.517966 -7.23212 -5.4292e-22)
(0.576756 -7.05629 2.65006e-20)
(0.628816 -6.87943 0)
(0.674176 -6.70013 -4.49158e-20)
(0.713226 -6.51901 0)
(0.746583 -6.33761 -1.82378e-21)
(0.774979 -6.1577 -2.60228e-21)
(0.799161 -5.98096 -3.1353e-20)
(0.819847 -5.80877 2.64264e-20)
(0.837683 -5.64209 -2.59631e-20)
(0.853216 -5.48137 2.31062e-20)
(0.866986 -5.32652 0)
(0.879772 -5.17679 -1.8368e-20)
(0.891295 -5.03065 2.01406e-20)
(0.824692 -9.35443 -3.07733e-19)
(0.502176 -8.66592 1.17672e-20)
(0.566967 -8.20932 1.85973e-19)
(0.633387 -7.89858 -1.58414e-19)
(0.69084 -7.6664 1.56227e-19)
(0.750356 -7.47039 0)
(0.807189 -7.28801 6.0503e-20)
(0.85789 -7.10823 -6.0354e-20)
(0.901621 -6.92654 -1.04647e-19)
(0.938472 -6.74211 1.32285e-19)
(0.968939 -6.55595 -8.58815e-20)
(0.993765 -6.36984 -3.50343e-20)
(1.01379 -6.18572 7.07304e-20)
(1.02985 -6.00534 0)
(1.04272 -5.83008 0)
(1.0531 -5.66089 9.90319e-20)
(1.06153 -5.49822 -1.67895e-19)
(1.06856 -5.34189 0)
(1.07507 -5.19104 0)
(1.08051 -5.04405 -7.75537e-20)
(1.19307 -9.33032 6.35797e-19)
(0.847068 -8.68071 0)
(0.896327 -8.24035 -3.76177e-19)
(0.951937 -7.93912 -3.40852e-19)
(1.00063 -7.71148 0)
(1.05203 -7.51594 5.44331e-19)
(1.10071 -7.3313 -5.13812e-19)
(1.14297 -7.14767 1.00666e-19)
(1.17797 -6.96135 -2.24119e-19)
(1.2059 -6.77207 -3.72523e-19)
(1.2274 -6.58121 5.08371e-19)
(1.24334 -6.3908 -3.14247e-19)
(1.25468 -6.20289 -1.40783e-19)
(1.26236 -6.01928 0)
(1.26722 -5.84137 5.50317e-21)
(1.26996 -5.6701 1.04401e-19)
(1.27116 -5.50587 4.51034e-20)
(1.27139 -5.34847 0)
(1.27156 -5.19689 8.1747e-20)
(1.27081 -5.04946 8.37863e-20)
(1.56067 -9.29229 -8.60058e-19)
(1.19361 -8.68235 -4.02816e-19)
(1.22864 -8.25849 3.90759e-19)
(1.27417 -7.96679 6.71089e-19)
(1.31438 -7.74363 -3.2568e-19)
(1.35762 -7.54849 5.74654e-21)
(1.39791 -7.36165 2.52704e-19)
(1.43139 -7.17432 2.28819e-19)
(1.45726 -6.9836 4.18933e-19)
(1.47587 -6.78979 0)
(1.48802 -6.59462 1.61244e-19)
(1.49475 -6.40033 -1.71173e-19)
(1.49714 -6.20907 1.03256e-20)
(1.49621 -6.02269 2.6965e-19)
(1.49286 -5.84258 2.31046e-19)
(1.48785 -5.66966 -3.26123e-19)
(1.48172 -5.50428 1.07399e-19)
(1.47508 -5.34619 -1.74774e-19)
(1.4689 -5.19428 1.73949e-19)
(1.4619 -5.04683 -8.38289e-20)
(1.92718 -9.24029 4.33722e-19)
(1.5415 -8.6707 0)
(1.56351 -8.26348 3.8361e-19)
(1.59957 -7.98125 0)
(1.63154 -7.76247 0)
(1.66655 -7.56772 -2.99194e-19)
(1.69818 -7.37873 -5.35104e-19)
(1.72251 -7.18787 -4.53474e-19)
(1.73887 -6.99305 1.84277e-20)
(1.74778 -6.79506 -1.95864e-19)
(1.75024 -6.59601 0)
(1.74745 -6.39829 -1.61644e-19)
(1.74063 -6.20417 -2.91118e-19)
(1.73089 -6.01548 2.55913e-19)
(1.71919 -5.83363 -7.27197e-19)
(1.7063 -5.65948 1.17686e-19)
(1.69279 -5.49338 9.32121e-20)
(1.67926 -5.33501 -1.9223e-19)
(1.66674 -5.18315 -8.39638e-20)
(1.65345 -5.03613 2.50358e-19)
(2.29207 -9.17424 4.18373e-19)
(1.89026 -8.64552 4.14681e-19)
(1.9004 -8.25504 0)
(1.9276 -7.98217 0)
(1.95151 -7.76768 -6.21932e-19)
(1.97819 -7.5733 3.40054e-19)
(2.00088 -7.38226 8.1775e-19)
(2.0157 -7.18809 0)
(2.02216 -6.98948 2.15958e-19)
(2.021 -6.78773 1.95865e-19)
(2.01345 -6.58525 -3.45885e-19)
(2.00088 -6.3846 5.01571e-19)
(1.98463 -6.1881 1.47133e-19)
(1.96591 -5.9976 0)
(1.94573 -5.81447 1.22419e-19)
(1.92489 -5.63954 5.49346e-19)
(1.90394 -5.47314 -3.27344e-19)
(1.88352 -5.31489 3.67652e-19)
(1.86469 -5.16347 -6.99051e-19)
(1.84512 -5.01733 8.08168e-19)
(2.65479 -9.0941 4.25454e-19)
(2.23936 -8.60663 -2.25249e-18)
(2.23878 -8.2329 0)
(2.25765 -7.96927 0)
(2.27366 -7.75896 0)
(2.29188 -7.56494 -6.03139e-19)
(2.30535 -7.37198 0)
(2.31031 -7.17477 -9.66138e-19)
(2.3065 -6.97273 8.91006e-19)
(2.29493 -6.76766 -8.27345e-19)
(2.27706 -6.56223 0)
(2.25445 -6.35916 0)
(2.22859 -6.1608 0)
(2.20075 -5.969 -2.79629e-19)
(2.172 -5.78507 0)
(2.14314 -5.60983 0)
(2.11473 -5.44355 -4.10116e-19)
(2.08744 -5.28583 4.02951e-19)
(2.06236 -5.13524 0)
(2.03653 -4.99043 0)
(3.01482 -8.99987 -1.38416e-18)
(2.58828 -8.55385 8.96669e-19)
(2.57809 -8.19681 0)
(2.58913 -7.94228 0)
(2.59735 -7.73604 0)
(2.60696 -7.54241 5.73621e-19)
(2.61091 -7.3477 -5.75314e-19)
(2.60565 -7.14773 -8.8126e-21)
(2.59121 -6.94266 -8.91991e-19)
(2.56891 -6.73474 8.35101e-19)
(2.54046 -6.52689 -3.76603e-19)
(2.5076 -6.32195 6.54641e-19)
(2.47196 -6.12227 -4.62736e-20)
(2.43488 -5.92968 -5.9207e-19)
(2.39749 -5.74545 -4.98795e-19)
(2.36058 -5.57033 4.90051e-19)
(2.32472 -5.40461 0)
(2.2906 -5.24781 0)
(2.25934 -5.09845 3.54336e-19)
(2.22732 -4.95543 -3.90024e-19)
(3.37158 -8.8916 9.25114e-19)
(2.93643 -8.48704 8.80677e-19)
(2.91771 -8.14657 -1.66902e-18)
(2.9214 -7.90095 7.88266e-19)
(2.92191 -7.69869 0)
(2.92273 -7.50549 6.13815e-19)
(2.91686 -7.30923 -5.38615e-19)
(2.90104 -7.10683 1.52199e-18)
(2.87564 -6.89917 -2.36243e-20)
(2.84232 -6.68891 0)
(2.80303 -6.47919 7.59836e-19)
(2.75975 -6.27293 0)
(2.71419 -6.07249 0)
(2.66779 -5.87965 -2.70757e-19)
(2.6217 -5.6956 5.46154e-19)
(2.57674 -5.52108 0)
(2.53344 -5.35634 4.28128e-19)
(2.49254 -5.20087 1.78139e-19)
(2.4552 -5.05312 -3.86633e-19)
(2.41708 -4.91235 3.75384e-19)
(3.72453 -8.76935 -9.52676e-19)
(3.28322 -8.40612 8.9496e-19)
(3.25703 -8.08201 -2.54846e-18)
(3.25379 -7.84509 8.01271e-19)
(3.24665 -7.6467 0)
(3.2385 -7.45401 -1.23868e-18)
(3.22251 -7.25643 5.95022e-19)
(3.19578 -7.05198 0)
(3.15911 -6.8422 -4.72086e-19)
(3.11449 -6.63013 -8.18534e-19)
(3.06417 -6.41912 -7.12979e-19)
(3.01029 -6.21212 5.32947e-20)
(2.95471 -6.01149 6.66787e-19)
(2.89894 -5.81893 2.70536e-19)
(2.84413 -5.63558 -3.78032e-20)
(2.79111 -5.46212 -5.09396e-19)
(2.74041 -5.29877 -2.27773e-19)
(2.6928 -5.14503 -2.0531e-19)
(2.64949 -4.99927 5.47543e-19)
(2.60538 -4.86124 -8.16088e-19)
(4.0731 -8.63319 9.52679e-19)
(3.62808 -8.31099 -4.65857e-20)
(3.59541 -8.00297 8.19e-19)
(3.58563 -7.77452 0)
(3.57086 -7.57994 -6.77701e-19)
(3.55355 -7.38785 1.30214e-18)
(3.52713 -7.18921 -1.11254e-18)
(3.48919 -6.98312 1.09481e-18)
(3.44095 -6.77172 -4.43327e-19)
(3.38479 -6.55841 9.00088e-19)
(3.32325 -6.34669 3.89656e-19)
(3.25865 -6.13955 0)
(3.19299 -5.93931 0)
(3.1278 -5.74758 -2.80513e-19)
(3.06426 -5.56543 3.82159e-20)
(3.0032 -5.39348 1.00304e-18)
(2.94514 -5.23195 -2.48154e-19)
(2.8909 -5.08032 8.19255e-19)
(2.84171 -4.93694 1.43253e-19)
(2.79178 -4.80211 -8.33511e-19)
(4.41674 -8.48323 -2.93098e-18)
(3.97038 -8.20164 -9.83407e-19)
(3.93221 -7.90937 -2.62183e-18)
(3.91624 -7.68913 -1.59449e-18)
(3.89383 -7.49826 -7.56179e-19)
(3.86715 -7.3069 -7.39036e-19)
(3.83001 -7.10752 -2.41134e-18)
(3.78055 -6.90021 -4.89185e-20)
(3.72047 -6.68773 -1.93655e-18)
(3.65257 -6.47376 3.01887e-20)
(3.57965 -6.26194 -8.0364e-19)
(3.50425 -6.05527 -7.32148e-19)
(3.42844 -5.85599 6.68212e-19)
(3.35382 -5.66564 -6.10971e-19)
(3.28158 -5.4852 -5.59644e-19)
(3.2125 -5.31523 -5.13535e-19)
(3.14712 -5.15594 -1.37857e-18)
(3.08632 -5.00681 4.90543e-19)
(3.03138 -4.86618 1.18994e-18)
(2.97579 -4.73502 -1.26656e-18)
(4.7549 -8.31963 3.94219e-18)
(4.30954 -8.07806 4.84099e-18)
(4.26678 -7.80111 8.31299e-19)
(4.24492 -7.58882 3.98221e-18)
(4.21484 -7.40161 -7.80333e-19)
(4.17856 -7.21113 3.89785e-18)
(4.13043 -7.01133 1.13982e-18)
(4.06916 -6.80328 3.19943e-18)
(3.99702 -6.59027 -9.77785e-19)
(3.91719 -6.37625 2.70664e-18)
(3.83278 -6.16495 1.61871e-18)
(3.7465 -5.95935 1.47487e-18)
(3.66053 -5.76162 -1.99631e-18)
(3.57648 -5.5732 1.86983e-18)
(3.49555 -5.39497 1.12792e-18)
(3.4185 -5.22743 1.03522e-18)
(3.34584 -5.0708 9.51747e-19)
(3.27855 -4.92454 7.31963e-21)
(3.21797 -4.78703 8.07669e-19)
(3.15693 -4.66001 8.40573e-19)
(5.08706 -8.14254 -2.92718e-18)
(4.64497 -7.94029 1.07851e-18)
(4.59846 -7.67818 2.66694e-18)
(4.57096 -7.47354 -3.24855e-18)
(4.53316 -7.28993 7.50634e-19)
(4.48708 -7.10052 -2.60763e-18)
(4.42767 -6.90067 1.27789e-18)
(4.35434 -6.69237 -2.14065e-18)
(4.26992 -6.4794 4.888e-20)
(4.17802 -6.26595 1.18529e-20)
(4.08203 -6.05579 -1.64102e-18)
(3.98484 -5.85187 -7.42721e-19)
(3.88869 -5.65627 1.36541e-18)
(3.79524 -5.47032 8.69812e-21)
(3.70564 -5.2948 -3.70335e-20)
(3.62066 -5.13015 -1.08057e-18)
(3.54077 -4.97659 -4.79733e-19)
(3.46703 -4.83357 -2.70091e-20)
(3.40092 -4.69954 -8.41834e-19)
(3.33465 -4.57719 -4.24506e-19)
(5.41271 -7.95214 0)
(4.97608 -7.78837 -1.99259e-18)
(4.9266 -7.54056 2.35375e-20)
(4.89367 -7.34327 3.24358e-18)
(4.84806 -7.16325 1.35701e-18)
(4.79195 -6.97511 -1.41273e-18)
(4.72102 -6.7756 -1.2166e-18)
(4.63541 -6.56758 0)
(4.53854 -6.35524 -9.67847e-19)
(4.43445 -6.14297 9.23591e-19)
(4.32683 -5.93457 -3.89286e-20)
(4.21872 -5.73293 0)
(4.11241 -5.54003 -6.87373e-19)
(4.00958 -5.35707 5.95179e-19)
(3.91135 -5.18474 4.97034e-19)
(3.81843 -5.02341 -6.00329e-19)
(3.7313 -4.87329 -5.20654e-19)
(3.65111 -4.73387 9.03875e-19)
(3.57948 -4.60371 -8.34054e-19)
(3.50811 -4.48662 4.39028e-19)
(5.73138 -7.74862 3.02378e-18)
(5.30229 -7.62239 -2.05211e-18)
(5.25053 -7.38829 -1.75059e-18)
(5.21234 -7.19806 8.14817e-19)
(5.15882 -7.02161 -1.58085e-18)
(5.09246 -6.83498 0)
(5.00977 -6.63624 0)
(4.91169 -6.42903 0)
(4.80224 -6.21793 -4.43189e-20)
(4.6859 -6.00746 -1.85352e-18)
(4.56664 -5.80143 8.75296e-19)
(4.44762 -5.60265 7.39983e-19)
(4.3312 -5.41298 6.25942e-19)
(4.21903 -5.23351 -2.56894e-18)
(4.1122 -5.06482 1.21779e-18)
(4.01134 -4.90722 0)
(3.91693 -4.7609 -3.02792e-20)
(3.83018 -4.62539 -1.40201e-18)
(3.75285 -4.49944 -5.66645e-21)
(3.67635 -4.38797 -4.39509e-19)
(6.04272 -7.53225 -2.05684e-18)
(5.62305 -7.44248 -1.08187e-18)
(5.56958 -7.22143 8.14542e-19)
(5.52624 -7.03795 -1.43762e-19)
(5.4647 -6.86509 -4.60753e-18)
(5.38789 -6.68025 4.16889e-18)
(5.29324 -6.48273 -4.87469e-20)
(5.18252 -6.27688 1.14129e-18)
(5.0604 -6.06763 1.0238e-18)
(4.93179 -5.85958 9.39861e-19)
(4.8009 -5.65652 8.55106e-19)
(4.67104 -5.46115 1.52784e-18)
(4.54459 -5.27523 -7.35342e-19)
(4.42316 -5.09973 1.90549e-18)
(4.30778 -4.93512 -1.23183e-18)
(4.19903 -4.78164 -5.09387e-19)
(4.09731 -4.6395 2.04609e-18)
(4.00391 -4.50824 1.36673e-18)
(3.92075 -4.38665 -2.78131e-20)
(3.83932 -4.28055 0)
(6.34671 -7.30351 -1.04573e-18)
(5.93798 -7.24882 2.06731e-18)
(5.88309 -7.04003 1.80915e-18)
(5.83464 -6.86301 -1.45721e-19)
(5.76497 -6.6938 -1.56323e-18)
(5.67751 -6.51106 7.04949e-20)
(5.57071 -6.31524 1.3068e-20)
(5.44725 -6.11134 1.16458e-20)
(5.31242 -5.90455 0)
(5.17157 -5.69953 9.19143e-19)
(5.02913 -5.5 -1.74939e-18)
(4.88851 -5.30857 -7.48374e-19)
(4.7521 -5.12686 7.42937e-19)
(4.62146 -4.95574 -6.51711e-19)
(4.49756 -4.7956 6.03499e-19)
(4.3809 -4.64667 -5.4931e-19)
(4.27188 -4.50916 4.87499e-21)
(4.17188 -4.38245 -4.66544e-19)
(4.08316 -4.26526 -4.30928e-19)
(3.99758 -4.16521 -4.31208e-19)
(6.64368 -7.0629 0)
(6.24681 -7.04135 -1.00776e-18)
(6.1904 -6.84402 9.96194e-19)
(6.13679 -6.67331 1.73733e-18)
(6.05886 -6.5079 -1.57177e-18)
(5.96059 -6.32765 1.35738e-18)
(5.84153 -6.13406 -2.6098e-18)
(5.70527 -5.93271 -2.31694e-18)
(5.55777 -5.72899 -1.01046e-18)
(5.40477 -5.52758 4.42651e-20)
(5.25091 -5.33211 -8.36411e-19)
(5.09967 -5.14505 3.47864e-20)
(4.95339 -4.96791 0)
(4.81355 -4.80144 -1.2783e-18)
(4.68097 -4.646 6.52408e-19)
(4.55605 -4.50184 0)
(4.43923 -4.36907 -5.10714e-19)
(4.33211 -4.24686 -9.18054e-19)
(4.23692 -4.13481 9.0208e-19)
(4.14615 -4.04549 4.45254e-19)
(6.93324 -6.80961 0)
(6.54893 -6.81933 0)
(6.49082 -6.63333 -1.8474e-18)
(6.43194 -6.46913 -1.58784e-18)
(6.3457 -6.3078 3.22302e-18)
(6.23652 -6.13045 0)
(6.10512 -5.93962 0)
(5.95608 -5.74142 1.16399e-18)
(5.79601 -5.54139 0)
(5.63103 -5.34416 0)
(5.46598 -5.15323 0)
(5.30437 -4.97093 0)
(5.14847 -4.7986 0)
(4.9996 -4.63686 0)
(4.85832 -4.48601 0)
(4.72474 -4.34618 0)
(4.59914 -4.21727 0)
(4.48259 -4.0986 0)
(4.37521 -3.99323 0)
(4.27092 -3.91836 0)
(10.0406 0.0877164 1.46741e-19)
(10.0202 -0.307562 2.85485e-19)
(9.9845 -0.700171 -2.93236e-19)
(9.93409 -1.08997 5.84658e-19)
(9.86869 -1.47662 -5.84657e-19)
(9.78817 -1.85961 -5.52397e-19)
(9.69264 -2.23841 -5.5086e-19)
(9.58229 -2.61247 1.73519e-18)
(9.45738 -2.98125 -1.15607e-18)
(9.31815 -3.34417 1.14642e-18)
(9.16489 -3.70072 -1.14642e-18)
(8.9979 -4.05033 1.13798e-18)
(8.81751 -4.39251 -2.25679e-18)
(8.62408 -4.72675 3.32324e-18)
(8.41797 -5.05256 0)
(8.19957 -5.36949 -3.26521e-18)
(7.96926 -5.67712 1.62109e-20)
(7.72759 -5.97509 3.29091e-18)
(7.47464 -6.26325 0)
(7.2121 -6.54091 0)
(10.1128 -0.210786 0)
(10.0717 -0.606612 -1.50233e-20)
(10.0138 -0.998652 0)
(9.93989 -1.38657 5.59201e-19)
(9.85009 -1.76994 5.82412e-19)
(9.74465 -2.14816 -1.6855e-18)
(9.62384 -2.52059 2.93488e-18)
(9.48803 -2.88662 -1.15853e-18)
(9.33758 -3.24564 -1.10423e-18)
(9.17288 -3.59708 -1.09973e-18)
(8.99435 -3.94037 4.4526e-20)
(8.80242 -4.27495 1.12696e-18)
(8.59756 -4.6003 -5.60231e-18)
(8.38025 -4.91594 -1.1752e-18)
(8.15098 -5.22139 2.23872e-18)
(7.91025 -5.51623 2.23592e-18)
(7.65855 -5.80007 1.13614e-18)
(7.39644 -6.07257 -2.1905e-18)
(7.12403 -6.33348 1.03724e-18)
(6.84226 -6.58246 0)
(10.061 -0.149429 1.32057e-19)
(10.0234 -0.540697 -2.70448e-19)
(9.96839 -0.928802 7.8092e-19)
(9.89643 -1.31305 -5.53331e-19)
(9.80789 -1.6928 -5.27519e-19)
(9.70313 -2.06734 5.50836e-19)
(9.58252 -2.43593 0)
(9.44646 -2.79789 0)
(9.29537 -3.15256 2.09136e-18)
(9.12969 -3.4993 3.11995e-18)
(8.94991 -3.83747 -9.86627e-19)
(8.7565 -4.16651 3.08518e-18)
(8.55 -4.48583 -9.82487e-19)
(8.33093 -4.79492 -3.00501e-18)
(8.09985 -5.09327 1.35106e-20)
(7.85732 -5.38041 1.92876e-18)
(7.60388 -5.6559 -8.70362e-19)
(7.34011 -5.91935 -1.8977e-18)
(7.06635 -6.17037 -1.02534e-18)
(6.78334 -6.40847 1.86516e-18)
(9.89265 -0.112839 0)
(9.86176 -0.494799 2.27923e-19)
(9.81363 -0.874424 2.2698e-19)
(9.74843 -1.25082 -9.32588e-19)
(9.6665 -1.62318 0)
(9.56818 -1.99074 0)
(9.45383 -2.35273 0)
(9.32382 -2.70842 0)
(9.17856 -3.05707 -9.87059e-19)
(9.0185 -3.39801 -9.83321e-19)
(8.84411 -3.73058 0)
(8.6559 -4.05413 1.85897e-18)
(8.45439 -4.36806 -4.59607e-18)
(8.24014 -4.67178 3.6958e-18)
(8.01371 -4.96475 -3.58208e-18)
(7.77568 -5.24646 -8.69202e-19)
(7.52663 -5.5164 1.56184e-19)
(7.26718 -5.77412 1.54602e-19)
(6.99783 -6.01915 -1.77052e-18)
(6.71932 -6.251 -7.08477e-20)
(9.63827 -0.0993916 0)
(9.61474 -0.469084 -2.24783e-19)
(9.57439 -0.837093 0)
(9.51731 -1.20252 4.49689e-19)
(9.44372 -1.56452 4.28625e-19)
(9.35392 -1.92232 3.91785e-19)
(9.2482 -2.27512 0)
(9.12691 -2.62218 0)
(8.99043 -2.96275 0)
(8.83915 -3.29612 0)
(8.67354 -3.62159 8.0942e-19)
(8.49406 -3.93849 8.72231e-19)
(8.30122 -4.24619 8.67302e-19)
(8.09557 -4.54408 -8.80532e-19)
(7.87765 -4.83156 -1.5149e-18)
(7.64804 -5.10806 1.72031e-18)
(7.40734 -5.37307 3.33523e-18)
(7.15615 -5.62605 1.62224e-18)
(6.89507 -5.8665 0)
(6.62477 -6.09394 -1.52876e-18)
(9.33052 -0.0905767 4.61828e-20)
(9.31391 -0.446078 0)
(9.28111 -0.800464 -7.56851e-19)
(9.23214 -1.15288 1.86298e-23)
(9.16715 -1.50251 1.61245e-20)
(9.08637 -1.84857 -6.83336e-20)
(8.99005 -2.19027 0)
(8.8785 -2.52688 3.08437e-20)
(8.75203 -2.85764 -7.68372e-19)
(8.61101 -3.18184 1.49699e-18)
(8.45584 -3.49878 -1.56115e-18)
(8.28697 -3.80778 8.53071e-19)
(8.10486 -4.10818 -4.47027e-18)
(7.91002 -4.39935 2.94839e-18)
(7.70296 -4.68069 1.56319e-18)
(7.48426 -4.9516 0)
(7.25448 -5.21152 -2.88498e-18)
(7.01422 -5.45989 -6.1419e-20)
(6.76406 -5.69619 -2.84122e-18)
(6.50466 -5.91989 2.95346e-18)
(8.99776 -0.085722 4.15243e-20)
(8.98676 -0.42622 -8.69979e-20)
(8.9603 -0.766068 7.13337e-19)
(8.91837 -1.10447 -1.40287e-20)
(8.86106 -1.44063 7.13188e-19)
(8.78855 -1.7738 -1.07722e-18)
(8.70106 -2.10322 0)
(8.59884 -2.42815 7.26212e-19)
(8.48216 -2.74788 6.64804e-19)
(8.35134 -3.06171 -7.2215e-19)
(8.20674 -3.36893 1.32099e-18)
(8.04876 -3.66889 2.80097e-18)
(7.87783 -3.96093 -1.30241e-18)
(7.6944 -4.24441 -1.41206e-18)
(7.49898 -4.51873 1.35401e-18)
(7.29208 -4.78328 0)
(7.07425 -5.03748 6.47486e-20)
(6.84606 -5.28076 9.73793e-21)
(6.60809 -5.51257 2.69157e-18)
(6.36093 -5.73237 1.25116e-18)
(8.66104 -0.0844778 0)
(8.65408 -0.410022 6.23622e-21)
(8.63243 -0.735259 -1.45095e-19)
(8.59606 -1.05944 -6.44517e-19)
(8.54503 -1.38183 6.05753e-19)
(8.47948 -1.70169 0)
(8.39959 -2.01831 1.23298e-18)
(8.30557 -2.33099 -1.35454e-21)
(8.19765 -2.63904 -1.88321e-18)
(8.07612 -2.94177 0)
(7.9413 -3.23853 -1.29997e-18)
(7.79353 -3.52867 4.58637e-20)
(7.63322 -3.81155 -3.65378e-18)
(7.46078 -4.08655 6.43178e-21)
(7.27669 -4.35307 1.22467e-18)
(7.08141 -4.6105 0)
(6.87548 -4.85827 -1.20205e-18)
(6.65943 -5.09581 8.63957e-21)
(6.43382 -5.32255 1.19342e-18)
(6.19918 -5.53793 -1.23123e-18)
(8.33413 -0.0854883 0)
(8.32977 -0.396658 1.48778e-19)
(8.31149 -0.707753 3.08702e-19)
(8.27924 -1.01807 -5.71311e-19)
(8.23305 -1.32692 -2.46437e-20)
(8.17304 -1.63361 -2.85524e-19)
(8.09937 -1.93747 -1.14299e-18)
(8.0122 -2.23783 5.68245e-19)
(7.91175 -2.53403 2.37399e-20)
(7.79826 -2.82544 5.64845e-19)
(7.67203 -3.11141 5.19893e-19)
(7.53337 -3.39135 2.25192e-18)
(7.38264 -3.66462 1.12642e-18)
(7.22024 -3.93065 2.22479e-18)
(7.04659 -4.18884 -1.10948e-18)
(6.86216 -4.43862 3.85526e-20)
(6.66744 -4.67942 -1.09639e-18)
(6.46294 -4.91065 0)
(6.24919 -5.13178 1.0363e-18)
(6.0267 -5.34219 0)
(8.02487 -0.0876362 6.47583e-20)
(8.02197 -0.3853 -1.89648e-19)
(8.00587 -0.68303 5.20202e-19)
(7.97649 -0.980172 -2.59515e-19)
(7.93389 -1.27607 1.89146e-20)
(7.87814 -1.57008 -2.59362e-19)
(7.80939 -1.86157 5.39247e-19)
(7.72778 -2.14991 -5.16039e-19)
(7.6335 -2.43448 5.16036e-19)
(7.52678 -2.71468 9.89647e-19)
(7.40788 -2.98991 -1.06659e-18)
(7.27709 -3.2596 -4.49456e-20)
(7.13474 -3.52316 -3.08712e-18)
(6.98121 -3.78003 5.34575e-21)
(6.8169 -4.02966 4.01298e-20)
(6.64225 -4.2715 2.00127e-18)
(6.45774 -4.50499 -9.88559e-19)
(6.26385 -4.72957 -9.41538e-19)
(6.06111 -4.94468 -3.73453e-20)
(5.85 -5.14971 0)
(7.73685 -0.090181 0)
(7.73457 -0.375328 2.40887e-19)
(7.71974 -0.660614 -8.2823e-19)
(7.69229 -0.945426 -2.197e-19)
(7.65226 -1.22915 4.91459e-19)
(7.59973 -1.51118 0)
(7.5348 -1.79091 0)
(7.45763 -2.06777 4.69716e-19)
(7.36838 -2.34116 -4.69714e-19)
(7.26726 -2.61053 3.95536e-19)
(7.15451 -2.87531 -4.66685e-19)
(7.03041 -3.13495 9.25471e-19)
(6.89526 -3.38894 -1.84636e-18)
(6.74942 -3.63673 1.83681e-18)
(6.59328 -3.8778 3.45496e-20)
(6.42727 -4.11164 -9.44787e-19)
(6.25185 -4.33773 -8.98958e-19)
(6.06751 -4.5555 1.83131e-18)
(5.87478 -4.76441 8.57185e-19)
(5.6741 -4.96383 0)
(7.47087 -0.0926516 1.86989e-21)
(7.46865 -0.366277 1.58122e-19)
(7.45445 -0.64007 3.32014e-19)
(7.42823 -0.913452 2.32416e-19)
(7.39001 -1.18584 2.15564e-19)
(7.33987 -1.45667 2.00498e-19)
(7.27792 -1.72538 0)
(7.20428 -1.99141 -8.28616e-19)
(7.11912 -2.25422 -4.27178e-19)
(7.02262 -2.51327 3.64305e-19)
(6.91501 -2.76805 0)
(6.79656 -3.01804 8.43713e-19)
(6.66755 -3.26276 -2.49526e-18)
(6.52833 -3.50171 8.3939e-19)
(6.37927 -3.73442 0)
(6.2208 -3.96041 -7.98032e-19)
(6.05339 -4.17917 -1.61186e-18)
(5.87752 -4.39019 7.93117e-19)
(5.69375 -4.59291 -2.91066e-20)
(5.50253 -4.78669 0)
(7.22607 -0.0947496 3.44971e-21)
(7.22354 -0.357805 -1.02331e-19)
(7.20956 -0.621019 1.97464e-19)
(7.18409 -0.883851 -1.30637e-20)
(7.14715 -1.14575 3.94578e-19)
(7.09882 -1.40618 -6.06025e-19)
(7.03919 -1.66461 0)
(6.96839 -1.92052 5.57915e-20)
(6.88657 -2.17339 0)
(6.79391 -2.42272 -8.08973e-19)
(6.69062 -2.66803 0)
(6.57695 -2.90886 -7.46472e-19)
(6.45319 -3.14473 2.30728e-18)
(6.31965 -3.37522 -1.5289e-18)
(6.17671 -3.59987 7.62245e-19)
(6.02479 -3.81827 -6.74251e-19)
(5.86438 -4.02994 7.79046e-19)
(5.69597 -4.23443 -7.73714e-19)
(5.52021 -4.43114 0)
(5.33751 -4.61943 0)
(7.00067 -0.0963534 4.68192e-20)
(6.99766 -0.349685 0)
(6.98365 -0.603158 0)
(6.95861 -0.856256 -3.75122e-19)
(6.92259 -1.10846 -3.50066e-19)
(6.87565 -1.35925 0)
(6.81789 -1.60814 0)
(6.74942 -1.85461 4.96267e-20)
(6.67039 -2.0982 6.93224e-19)
(6.58096 -2.33843 -3.34293e-19)
(6.48135 -2.57485 -3.562e-19)
(6.37178 -2.80703 1.43893e-18)
(6.25252 -3.03453 -2.13665e-18)
(6.1239 -3.25697 1.37774e-18)
(5.98626 -3.47395 0)
(5.84003 -3.68513 2.76794e-18)
(5.68573 -3.89004 -2.00953e-18)
(5.52387 -4.08834 6.83665e-19)
(5.35523 -4.27935 1.30738e-18)
(5.18021 -4.4625 0)
(6.79262 -0.0973974 -4.02444e-20)
(6.78899 -0.341758 0)
(6.7748 -0.58624 -5.19558e-21)
(6.75002 -0.830343 -3.22064e-19)
(6.71469 -1.07357 9.98014e-19)
(6.66887 -1.31544 -1.66016e-19)
(6.61266 -1.55546 0)
(6.54616 -1.79317 1.32247e-18)
(6.46951 -2.02811 -6.81085e-19)
(6.38288 -2.25984 4.42718e-20)
(6.28645 -2.48793 6.31128e-19)
(6.18046 -2.71198 6.46931e-19)
(6.06514 -2.93161 -1.29008e-18)
(5.9408 -3.14647 -1.2618e-18)
(5.8078 -3.3562 -1.23243e-18)
(5.66654 -3.56056 -1.3116e-18)
(5.51758 -3.75908 1.30265e-18)
(5.36143 -3.95165 -6.21806e-19)
(5.19913 -4.13739 -6.62676e-19)
(5.03096 -4.31597 0)
(6.59966 -0.0978605 3.9539e-20)
(6.59541 -0.333918 -1.48448e-19)
(6.58098 -0.570068 -1.53683e-19)
(6.55636 -0.805829 4.60166e-19)
(6.52159 -1.04073 -1.63431e-19)
(6.47672 -1.2743 -1.52751e-19)
(6.42186 -1.50608 0)
(6.35709 -1.73563 -6.27884e-19)
(6.28256 -1.96252 0)
(6.19841 -2.18631 6.23017e-19)
(6.10483 -2.40663 -1.2005e-18)
(6.00203 -2.62308 5.94254e-19)
(5.89023 -2.83532 -1.18485e-18)
(5.76971 -3.04306 1.22274e-18)
(5.64081 -3.24597 6.65593e-19)
(5.50392 -3.44393 0)
(5.35963 -3.63647 -5.74381e-19)
(5.20844 -3.82383 5.74381e-19)
(5.05178 -4.00479 0)
(4.88963 -4.1797 0)
(6.41971 -0.0978293 0)
(6.41486 -0.326143 1.45849e-19)
(6.40019 -0.554517 4.69811e-21)
(6.37571 -0.782492 -1.50389e-19)
(6.34144 -1.00961 -1.32599e-19)
(6.29746 -1.23544 -1.40782e-19)
(6.24383 -1.45953 5.44106e-19)
(6.18068 -1.68146 0)
(6.10811 -1.90081 0)
(6.02627 -2.11719 2.76513e-19)
(5.93534 -2.33022 2.93757e-19)
(5.83549 -2.53956 1.06306e-18)
(5.72694 -2.74487 -5.43175e-19)
(5.60993 -2.94592 5.43174e-19)
(5.48478 -3.14242 5.76664e-19)
(5.35182 -3.33438 3.37563e-20)
(5.21169 -3.52134 -1.05896e-18)
(5.06477 -3.70407 3.76829e-21)
(4.91318 -3.88067 5.23724e-19)
(4.75609 -4.05314 0)
(6.25087 -0.0973067 -3.25959e-20)
(6.24548 -0.318401 3.25955e-20)
(6.23063 -0.539529 0)
(6.20631 -0.760244 1.22769e-19)
(6.17256 -0.980111 3.9881e-19)
(6.12944 -1.19871 -5.04026e-19)
(6.07705 -1.41561 -5.34602e-19)
(6.01546 -1.63042 0)
(5.94481 -1.84273 0)
(5.86522 -2.05218 0)
(5.77685 -2.25841 -9.86808e-19)
(5.67987 -2.46109 -6.37637e-20)
(5.57446 -2.65992 -5.00338e-19)
(5.46083 -2.8547 3.00114e-20)
(5.33925 -3.04518 -9.89443e-19)
(5.20994 -3.23151 1.50793e-18)
(5.07361 -3.41325 -1.42868e-18)
(4.93032 -3.59197 4.84987e-19)
(4.78331 -3.76473 9.29671e-19)
(4.6299 -3.93637 0)
(6.09144 -0.095944 2.92827e-20)
(6.08561 -0.310493 0)
(6.07066 -0.525062 -1.20558e-19)
(6.04656 -0.739219 -2.48422e-19)
(6.01337 -0.952544 1.20406e-19)
(5.97114 -1.16463 9.61487e-19)
(5.91996 -1.37508 0)
(5.85991 -1.58351 -4.63053e-19)
(5.79111 -1.78953 -2.36835e-19)
(5.71367 -1.99281 -4.44907e-19)
(5.62775 -2.19299 -1.77976e-19)
(5.53348 -2.38978 -1.40464e-18)
(5.43102 -2.58289 -9.27121e-19)
(5.32052 -2.77213 9.53727e-19)
(5.20222 -2.95731 9.12846e-19)
(5.07612 -3.13865 -3.86938e-21)
(4.94304 -3.31582 2.97651e-20)
(4.80223 -3.49136 4.46843e-19)
(4.65874 -3.66154 -9.13495e-19)
(4.50591 -3.83611 0)
(5.93982 -0.094271 -6.12357e-20)
(5.9337 -0.302553 3.01452e-20)
(5.91879 -0.510923 -1.20435e-19)
(5.89507 -0.718991 1.20379e-19)
(5.86257 -0.926367 -3.46219e-19)
(5.82134 -1.13266 -1.07809e-18)
(5.77143 -1.33749 0)
(5.71294 -1.54049 4.89958e-19)
(5.64593 -1.74131 -4.58104e-19)
(5.57052 -1.93959 9.7008e-19)
(5.48682 -2.13503 9.64302e-19)
(5.39493 -2.32731 1.42067e-18)
(5.29499 -2.51617 -9.21824e-19)
(5.18703 -2.70142 4.59159e-19)
(5.07129 -2.88286 -4.51533e-19)
(4.94742 -3.06071 4.51557e-19)
(4.8165 -3.23471 0)
(4.67586 -3.40803 4.08775e-19)
(4.53444 -3.57657 -3.99984e-19)
(4.37729 -3.76225 0)
(7.13724 7.25919 0)
(7.4171 6.96951 0)
(7.68407 6.67025 1.08325e-18)
(7.93886 6.36192 2.01017e-20)
(8.18089 6.04423 -1.14623e-18)
(8.4095 5.71725 0)
(8.62428 5.38138 1.18272e-18)
(8.82489 5.03715 -2.23113e-18)
(9.01103 4.68513 -1.12751e-18)
(9.1824 4.32594 -1.13801e-18)
(9.33874 3.9602 1.13801e-18)
(9.47981 3.58857 -1.15002e-18)
(9.60544 3.21174 5.73659e-19)
(9.71541 2.8304 5.47426e-19)
(9.80958 2.44522 5.4956e-19)
(9.88789 2.05687 -5.83321e-19)
(9.95029 1.666 5.83321e-19)
(9.99689 1.27333 -2.92832e-19)
(10.0276 0.879235 -1.39073e-19)
(10.043 0.485081 7.3264e-20)
(7.41054 7.06411 0)
(7.69045 6.77489 -9.9225e-19)
(7.95658 6.47412 -2.12147e-18)
(8.20923 6.16249 3.13711e-18)
(8.44816 5.8403 -2.17556e-18)
(8.67286 5.50801 2.18606e-18)
(8.88286 5.16622 1.18862e-18)
(9.07773 4.8156 -3.3725e-18)
(9.25709 4.45683 1.10326e-18)
(9.42059 4.09063 2.19299e-18)
(9.5679 3.71773 1.08037e-18)
(9.6988 3.33886 1.08719e-18)
(9.81309 2.95485 -1.14736e-18)
(9.91057 2.5664 1.68937e-18)
(9.99098 2.17431 -2.34408e-18)
(10.0542 1.77943 5.78562e-19)
(10.1003 1.38258 -5.55893e-19)
(10.1292 0.984573 0)
(10.141 0.585937 1.51358e-20)
(10.1359 0.187652 0)
(7.26572 6.93779 -1.74688e-18)
(7.54833 6.66597 9.80898e-19)
(7.81841 6.38131 1.79384e-18)
(8.07552 6.0845 8.11841e-19)
(8.31923 5.77609 2.03406e-18)
(8.54901 5.4567 1.98868e-20)
(8.76435 5.127 -1.01951e-18)
(8.96475 4.78768 -3.03803e-18)
(9.14978 4.43946 2.9992e-18)
(9.31898 4.08305 -3.07878e-18)
(9.47196 3.71921 -1.02567e-18)
(9.60845 3.34868 -2.05203e-18)
(9.72811 2.9723 0)
(9.83073 2.59082 0)
(9.91618 2.20514 0)
(9.98428 1.81617 -5.23021e-19)
(10.0349 1.42473 5.47842e-19)
(10.068 1.0317 5.24705e-19)
(10.0834 0.637768 6.25829e-21)
(10.0812 0.243913 1.31782e-19)
(7.03764 6.6853 1.81438e-18)
(7.31692 6.4321 -1.64735e-18)
(7.58487 6.16581 -1.69213e-19)
(7.84076 5.88698 -1.70166e-19)
(8.08404 5.59617 4.28198e-18)
(8.31415 5.29398 -7.11252e-20)
(8.53055 4.98105 3.71416e-21)
(8.73271 4.65803 -2.70775e-18)
(8.92013 4.3256 1.78648e-18)
(9.09235 3.98444 0)
(9.24886 3.63533 9.58239e-19)
(9.38933 3.27911 9.64854e-19)
(9.51348 2.91654 0)
(9.621 2.54847 0)
(9.71166 2.1757 0)
(9.78528 1.79906 0)
(9.84165 1.41936 -2.1649e-20)
(9.88066 1.03746 4.72354e-19)
(9.9022 0.654177 -2.26805e-19)
(9.90625 0.270459 0)
(6.77468 6.37068 1.53626e-18)
(7.04607 6.1353 0)
(7.30724 5.88702 -4.52239e-18)
(7.55738 5.62625 -1.54143e-18)
(7.79587 5.35353 -1.61994e-18)
(8.02213 5.06939 -1.71729e-18)
(8.23559 4.77443 8.11325e-19)
(8.43571 4.46924 -8.52554e-19)
(8.62193 4.15446 2.36704e-18)
(8.79384 3.83076 -7.74847e-19)
(8.95099 3.49891 0)
(9.0929 3.15964 0)
(9.21918 2.81366 0)
(9.32956 2.46175 0)
(9.42377 2.1047 -1.22358e-18)
(9.50156 1.74333 4.20756e-19)
(9.56272 1.37845 -4.44499e-19)
(9.60708 1.01088 0)
(9.63452 0.641455 2.23681e-19)
(9.64495 0.271075 0)
(6.4996 6.04378 1.31378e-18)
(6.76075 5.82451 -4.79227e-20)
(7.01262 5.59275 2.76348e-18)
(7.25441 5.34884 1.38052e-18)
(7.48547 5.09324 0)
(7.70521 4.82646 -1.46607e-18)
(7.91307 4.54902 6.82924e-20)
(8.10851 4.26148 -1.48824e-18)
(8.291 3.96443 2.05846e-18)
(8.46008 3.65852 3.26634e-20)
(8.6153 3.34437 2.80479e-20)
(8.75623 3.02262 -7.42526e-19)
(8.88245 2.694 1.45618e-18)
(8.99364 2.35926 0)
(9.08955 2.01911 6.837e-20)
(9.16986 1.67438 7.43422e-19)
(9.23432 1.32583 1.62691e-21)
(9.28274 0.974249 -1.53025e-20)
(9.31499 0.62043 0)
(9.33094 0.265205 -4.60869e-20)
(6.23358 5.72703 0)
(6.48341 5.52173 -4.88399e-20)
(6.7247 5.30447 1.74496e-20)
(6.9567 5.07552 -2.49751e-18)
(7.17876 4.83531 0)
(7.39033 4.58427 1.26299e-18)
(7.59086 4.32291 1.34539e-18)
(7.77982 4.05171 -3.91402e-18)
(7.9567 3.77123 -6.80641e-20)
(8.12105 3.48204 -1.2566e-18)
(8.27242 3.18473 6.92024e-19)
(8.4104 2.8799 -6.39118e-19)
(8.53458 2.56825 -7.0272e-19)
(8.64459 2.25044 0)
(8.7402 1.92721 3.70766e-19)
(8.82119 1.59916 -1.68547e-20)
(8.88718 1.26713 -3.44119e-19)
(8.93795 0.93187 -1.67172e-20)
(8.97339 0.594121 -8.66233e-20)
(8.99334 0.254654 1.73618e-19)
(5.98774 5.43195 0)
(6.226 5.2385 1.07968e-18)
(6.4563 5.03365 1.60699e-20)
(6.67795 4.81766 -1.09572e-18)
(6.89034 4.59088 0)
(7.0929 4.35372 1.13987e-18)
(7.28515 4.10663 -1.0882e-18)
(7.46656 3.85007 -1.20486e-18)
(7.63667 3.58453 2.29147e-18)
(7.79504 3.31055 1.23662e-18)
(7.94123 3.02867 0)
(8.07485 2.7395 6.03104e-19)
(8.19552 2.44363 -4.361e-21)
(8.30292 2.14173 2.18027e-20)
(8.39664 1.83445 0)
(8.47654 1.52241 -5.93566e-19)
(8.54246 1.20624 -3.10994e-19)
(8.594 0.886746 4.54357e-19)
(8.63103 0.564648 3.06346e-19)
(8.65338 0.240655 -4.09533e-20)
(5.76574 5.16345 0)
(5.99275 4.97998 -9.32208e-19)
(6.21226 4.7857 0)
(6.42362 4.58081 -1.00583e-18)
(6.62623 4.36565 1.98015e-18)
(6.8196 4.14057 -2.01939e-18)
(7.00324 3.90598 3.16018e-18)
(7.17668 3.66231 -3.15095e-18)
(7.33947 3.41002 -2.12887e-18)
(7.4912 3.14962 -1.57005e-18)
(7.63146 2.88162 5.38427e-19)
(7.75988 2.60657 -1.1163e-18)
(7.87611 2.32505 1.85918e-20)
(7.97982 2.03765 1.10962e-18)
(8.07072 1.74497 -2.79149e-19)
(8.14844 1.44773 1.14359e-18)
(8.21289 1.14641 -5.62429e-19)
(8.26391 0.841724 2.5908e-19)
(8.30122 0.534393 -1.47794e-19)
(8.32462 0.225088 0)
(5.56733 4.92192 0)
(5.78372 4.74693 1.80333e-18)
(5.99298 4.56167 8.74585e-19)
(6.19446 4.36634 -9.00354e-19)
(6.38763 4.16122 -1.84436e-18)
(6.57201 3.94664 2.80651e-18)
(6.74715 3.72298 1.12179e-20)
(6.91261 3.49062 -9.14665e-19)
(7.06799 3.25003 1.96396e-18)
(7.21289 3.00165 1.01436e-18)
(7.34693 2.74599 -9.47506e-19)
(7.46977 2.48358 4.97568e-19)
(7.58108 2.21494 2.2456e-20)
(7.68053 1.94064 -5.23609e-19)
(7.76786 1.66125 -2.53706e-19)
(7.84278 1.37736 5.08715e-19)
(7.90505 1.08966 -2.55008e-19)
(7.95458 0.798638 -5.14603e-19)
(7.99118 0.504982 5.96209e-20)