/*--------------------------------*- C++ -*----------------------------------*\
  =========                 |
  \\      /  F ield         | OpenFOAM: The Open Source CFD Toolbox
   \\    /   O peration     | Website:  https://openfoam.org
    \\  /    A nd           | Version:  6.0
     \\/     M anipulation  |
\*---------------------------------------------------------------------------*/
FoamFile
{
    version     2.0;
    format      ascii;
    class       volVectorField;
    location    "11.7425";
    object      U;
}
// * * * * * * * * * * * * * * * * * * * * * * * * * * * * * * * * * * * * * //

dimensions      [0 1 -1 0 0 0 0];

internalField   nonuniform List<vector> 
2400
(
(0.434162 -4.18721 -1.64264e-19)
(0.160527 -3.42119 6.27236e-20)
(0.235059 -2.98756 -4.84428e-20)
(0.351265 -2.72471 -2.85473e-20)
(0.450888 -2.55075 -3.52903e-20)
(0.543196 -2.42057 5.15259e-20)
(0.627563 -2.31155 1.57015e-20)
(0.701431 -2.21266 1.15257e-20)
(0.765112 -2.1178 -2.54806e-20)
(0.818716 -2.0216 -2.38046e-21)
(0.767012 -4.16356 2.01919e-19)
(0.445754 -3.46946 -4.58934e-21)
(0.496303 -3.06683 4.1832e-20)
(0.598404 -2.81803 2.72894e-19)
(0.687244 -2.64884 -1.89806e-19)
(0.769079 -2.51649 -4.56402e-21)
(0.842328 -2.40101 -4.1876e-21)
(0.904385 -2.29365 -2.23886e-20)
(0.955992 -2.18982 -2.38646e-20)
(0.997373 -2.08523 -6.74939e-22)
(1.09996 -4.11737 3.92828e-19)
(0.740009 -3.49988 2.83871e-19)
(0.77053 -3.12875 -7.01864e-19)
(0.859581 -2.89283 2.00702e-19)
(0.936941 -2.72686 2.62875e-19)
(1.00656 -2.59103 -1.46061e-19)
(1.06649 -2.46829 -1.18272e-19)
(1.1145 -2.35226 7.75029e-20)
(1.15204 -2.23992 -1.57458e-19)
(1.17942 -2.12823 1.58305e-19)
(1.4314 -4.04798 -1.35195e-18)
(1.04224 -3.51037 4.82796e-19)
(1.05636 -3.17044 -4.73282e-19)
(1.13287 -2.94596 1.94034e-19)
(1.19756 -2.78172 -1.85341e-19)
(1.2529 -2.64146 2.53242e-19)
(1.29716 -2.51119 7.8245e-20)
(1.32895 -2.38686 -3.60514e-19)
(1.35064 -2.26696 -2.77905e-19)
(1.36257 -2.14997 2.98593e-19)
(1.75987 -3.95485 6.29277e-20)
(1.35112 -3.49884 -2.0209e-19)
(1.35197 -3.18909 -1.03049e-19)
(1.41588 -2.97444 -9.93801e-20)
(1.46631 -2.81074 -5.12297e-19)
(1.50509 -2.66557 6.04554e-20)
(1.53134 -2.52802 -4.76756e-20)
(1.54487 -2.39629 3.9287e-19)
(1.54916 -2.27026 -2.67446e-19)
(1.54456 -2.15011 -1.45684e-19)
(2.0837 -3.83747 1.31707e-18)
(1.66482 -3.46322 -1.15591e-19)
(1.65504 -3.18211 1.38653e-18)
(1.7058 -2.97575 -1.92404e-19)
(1.74007 -2.81174 6.55132e-19)
(1.75999 -2.6617 -8.94847e-20)
(1.76602 -2.51771 1.29774e-20)
(1.75947 -2.37995 3.56296e-19)
(1.74507 -2.24951 -1.95153e-19)
(1.72319 -2.12843 2.56035e-19)
(2.4011 -3.69548 -5.25554e-19)
(1.98119 -3.40167 9.72924e-20)
(1.96281 -3.14723 -3.63042e-19)
(1.99945 -2.94777 -3.55859e-19)
(2.01554 -2.78309 1.62282e-20)
(2.01439 -2.62885 1.05689e-18)
(1.9983 -2.47982 -3.6189e-19)
(1.97028 -2.33784 1.08708e-19)
(1.93633 -2.20487 -5.01665e-19)
(1.89698 -2.08491 -2.25133e-19)
(2.71028 -3.52878 2.31668e-18)
(2.29778 -3.31267 -3.33163e-19)
(2.27218 -3.08259 -2.06426e-18)
(2.29337 -2.88892 1.0447e-19)
(2.28917 -2.7237 3.8148e-19)
(2.26493 -2.56645 -5.0885e-19)
(2.22517 -2.41431 -6.19947e-19)
(2.1748 -2.27025 8.85305e-19)
(2.12106 -2.13677 -7.79821e-20)
(2.06469 -2.02055 -6.45036e-19)
(3.00957 -3.33747 -1.94957e-18)
(2.61202 -3.19495 9.91857e-19)
(2.57988 -2.98677 1.37406e-18)
(2.584 -2.79813 3.14004e-19)
(2.55743 -2.63295 -1.11434e-18)
(2.50819 -2.47424 6.75741e-19)
(2.44332 -2.32104 3.5662e-19)
(2.36969 -2.17693 7.21131e-19)
(2.29549 -2.0452 -4.62032e-19)
(2.22157 -1.93752 -5.69703e-19)
(3.29698 -3.12135 6.48388e-19)
(2.92107 -3.04737 -2.41022e-19)
(2.88257 -2.85896 -5.59694e-20)
(2.86797 -2.6751 3.1967e-19)
(2.8173 -2.51096 2.46003e-19)
(2.74167 -2.35248 -1.84234e-19)
(2.65059 -2.19994 -3.03388e-19)
(2.55224 -2.05729 4.81943e-19)
(2.45405 -1.92984 -3.8326e-19)
(2.35694 -1.83473 3.43562e-19)
(4.97258 0.140511 4.27024e-20)
(4.93038 -0.248468 1.327e-19)
(4.85579 -0.629442 -4.19806e-19)
(4.75043 -0.999859 3.80898e-19)
(4.61575 -1.35728 1.51621e-19)
(4.45347 -1.69945 1.8997e-18)
(4.26551 -2.02437 -7.5055e-19)
(4.05401 -2.33029 -1.03701e-18)
(3.82095 -2.61581 1.1478e-18)
(3.56907 -2.87953 -1.99054e-18)
(4.97539 -0.133649 1.25063e-19)
(4.89922 -0.512501 -5.79717e-20)
(4.78741 -0.879451 -3.62857e-19)
(4.64214 -1.23109 9.75907e-19)
(4.46575 -1.5643 -3.34992e-19)
(4.26102 -1.87624 2.57616e-18)
(4.03094 -2.16447 -1.68108e-18)
(3.77876 -2.42703 2.38556e-18)
(3.50763 -2.66239 -1.67697e-18)
(3.22111 -2.86941 -8.43895e-19)
(4.84146 -0.101685 -2.36405e-19)
(4.77935 -0.461164 1.56864e-20)
(4.68114 -0.810892 -1.02033e-18)
(4.54846 -1.147 7.75835e-19)
(4.38344 -1.46588 -8.38752e-19)
(4.18873 -1.7642 -1.63275e-18)
(3.96727 -2.039 -5.59e-19)
(3.72242 -2.28776 -3.91371e-19)
(3.45757 -2.50838 1.59587e-18)
(3.17656 -2.69917 9.11132e-19)
(4.60303 -0.0559701 9.68884e-20)
(4.56131 -0.389502 -1.68152e-19)
(4.48528 -0.716335 -2.31325e-19)
(4.37594 -1.03262 -9.47411e-19)
(4.23491 -1.33466 6.21236e-19)
(4.06429 -1.61901 1.69714e-18)
(3.86658 -1.88246 6.90728e-19)
(3.64474 -2.12217 1.46703e-19)
(3.40201 -2.33556 3.91987e-19)
(3.14193 -2.52047 4.85406e-20)
(4.32344 -0.042419 -1.02567e-19)
(4.29717 -0.348076 -4.0357e-19)
(4.2395 -0.649465 3.71083e-20)
(4.151 -0.943039 7.5649e-19)
(4.03278 -1.22534 8.15175e-19)
(3.88642 -1.49307 -5.50799e-19)
(3.71395 -1.74307 -9.77398e-19)
(3.51779 -1.97251 -5.02236e-19)
(3.30085 -2.17857 5.46783e-19)
(3.06621 -2.35885 8.45777e-19)
(4.04368 -0.0387024 2.51684e-20)
(4.02757 -0.317589 3.31156e-19)
(3.98325 -0.593878 -7.76513e-19)
(3.91103 -0.864437 9.49886e-19)
(3.81168 -1.12616 5.73711e-19)
(3.68637 -1.37611 1.08456e-18)
(3.53675 -1.61132 -2.3112e-19)
(3.36474 -1.82931 -6.42467e-19)
(3.17303 -2.0271 1.49971e-18)
(2.9641 -2.20252 -1.28413e-18)
(3.78471 -0.037655 4.89111e-20)
(3.77434 -0.292236 -3.60029e-19)
(3.73877 -0.545236 -2.31809e-19)
(3.6782 -0.793936 -5.06155e-19)
(3.5932 -1.03561 -7.14482e-20)
(3.48463 -1.26777 -7.20402e-19)
(3.35392 -1.48772 -4.67482e-19)
(3.20248 -1.69359 -7.71317e-20)
(3.03316 -1.8822 -8.91315e-19)
(2.84753 -2.05237 1.2232e-18)
(3.55428 -0.0377604 -4.04207e-20)
(3.54649 -0.271049 2.97903e-19)
(3.51612 -0.503254 -1.31679e-19)
(3.46336 -0.732019 2.88503e-19)
(3.38867 -0.954967 6.9314e-19)
(3.29275 -1.1701 1.15526e-18)
(3.17683 -1.37498 -3.09367e-19)
(3.04194 -1.56874 -1.09768e-18)
(2.89133 -1.74763 3.23991e-19)
(2.72515 -1.91263 -1.87096e-18)
(3.35247 -0.0370476 5.7485e-20)
(3.34541 -0.252382 -6.83762e-20)
(3.31795 -0.466849 -6.62247e-19)
(3.27027 -0.678376 1.99596e-19)
(3.20285 -0.884879 -4.76363e-19)
(3.11619 -1.08478 -2.04878e-19)
(3.01144 -1.27587 -1.31454e-19)
(2.88906 -1.45866 5.02721e-19)
(2.7531 -1.62852 4.85565e-19)
(2.60132 -1.79058 3.79592e-19)
(3.17562 -0.0369204 -1.32644e-19)
(3.1683 -0.236613 2.30871e-19)
(3.14245 -0.436034 1.12517e-19)
(3.09814 -0.633345 3.14708e-19)
(3.0358 -0.826681 -3.27781e-20)
(2.95555 -1.01472 -2.76757e-20)
(2.85867 -1.19532 -7.54846e-19)
(2.74415 -1.37021 9.90271e-19)
(2.61813 -1.53342 -6.18891e-19)
(2.47529 -1.69979 1.73666e-19)
(3.52914 3.71619 -1.24102e-18)
(3.8127 3.43132 1.2962e-18)
(4.06951 3.12279 -6.94922e-20)
(4.29777 2.79316 -2.21532e-18)
(4.4954 2.44492 1.60598e-18)
(4.66067 2.08099 -1.11699e-18)
(4.79232 1.70458 -2.51323e-19)
(4.88961 1.31908 -2.3674e-19)
(4.9521 0.927776 3.77348e-19)
(4.98006 0.534448 2.68902e-20)
(3.70421 3.38724 1.49542e-18)
(3.97956 3.11394 2.83036e-19)
(4.22773 2.81454 -1.50908e-18)
(4.44605 2.4917 -1.58119e-18)
(4.63193 2.1483 1.31173e-18)
(4.78315 1.78778 -1.0435e-18)
(4.89791 1.41391 1.16306e-18)
(4.97502 1.03073 -3.2773e-19)
(5.01369 0.642292 -9.71202e-19)
(5.01396 0.252966 -6.68389e-20)
(3.51362 3.11608 -2.68677e-19)
(3.78204 2.87962 -2.01726e-19)
(4.02709 2.61642 8.69693e-19)
(4.24559 2.32867 7.93634e-19)
(4.43471 2.01901 1.71934e-18)
(4.59194 1.69058 5.46929e-19)
(4.71515 1.34687 -3.86824e-19)
(4.80267 0.991725 -8.25775e-19)
(4.85326 0.629097 6.60674e-19)
(4.86632 0.263269 4.7385e-20)
(3.2534 2.81585 3.5602e-19)
(3.50668 2.61463 -8.39539e-19)
(3.74054 2.38776 -3.32801e-19)
(3.95179 2.13693 -1.46678e-18)
(4.13762 1.86435 -7.84976e-19)
(4.29556 1.57269 1.44686e-18)
(4.4234 1.26498 9.35088e-19)
(4.5193 0.944575 -7.87226e-19)
(4.58179 0.615042 3.3809e-20)
(4.6099 0.280234 -3.35116e-20)
(3.0182 2.51565 -1.27244e-18)
(3.25146 2.34215 1.44833e-18)
(3.46825 2.14492 -3.65464e-19)
(3.66567 1.92521 7.64747e-19)
(3.84113 1.68486 -5.0632e-19)
(3.99237 1.42615 -8.5903e-19)
(4.11731 1.15169 4.03194e-19)
(4.21417 0.864369 -4.33896e-19)
(4.2815 0.567323 -4.1862e-19)
(4.31816 0.263901 1.76966e-19)
(2.81777 2.25215 -1.71019e-19)
(3.03081 2.09989 2.69058e-19)
(3.22928 1.92613 -3.12362e-19)
(3.41068 1.7315 -1.47969e-18)
(3.57284 1.51764 8.00211e-19)
(3.71373 1.28659 1.29774e-19)
(3.83154 1.04062 -7.20409e-19)
(3.92465 0.782275 -2.45394e-19)
(3.99172 0.514307 2.24791e-19)
(4.03163 0.23963 -6.54131e-20)
(2.65248 2.03163 -6.56894e-19)
(2.84755 1.89566 4.36585e-21)
(3.02874 1.7403 3.17588e-19)
(3.19413 1.56556 8.36204e-19)
(3.34227 1.37304 1.73312e-19)
(3.47147 1.16459 4.19766e-19)
(3.58014 0.942259 8.21836e-19)
(3.66687 0.708347 -3.46538e-19)
(3.73049 0.465328 2.95203e-19)
(3.76999 0.215766 -1.10971e-19)
(2.51685 1.84989 -2.37047e-19)
(2.69646 1.72761 2.73263e-19)
(2.86249 1.58666 2.6533e-19)
(3.0132 1.42758 -3.97309e-19)
(3.14794 1.25207 -2.20557e-19)
(3.26556 1.06174 -4.74847e-19)
(3.36468 0.858547 4.56528e-20)
(3.44405 0.644706 -1.05476e-19)
(3.50265 0.422494 -6.28066e-19)
(3.53958 0.194212 8.44132e-20)
(2.40622 1.70121 -8.63471e-20)
(2.56904 1.5929 -4.47634e-19)
(2.72158 1.46299 -1.79294e-19)
(2.85969 1.31597 8.63502e-20)
(2.98257 1.15401 -4.96318e-20)
(3.08965 0.978192 4.20787e-19)
(3.17991 0.790398 1.68102e-19)
(3.2522 0.592844 2.51374e-19)
(3.30554 0.387684 2.95461e-19)
(3.33912 0.177011 -1.2117e-19)
(2.33527 1.56621 -3.06917e-19)
(2.47448 1.46914 5.42509e-19)
(2.60908 1.34793 -8.94124e-19)
(2.7344 1.21151 -1.60694e-20)
(2.84534 1.06225 7.41824e-19)
(2.94132 0.900325 3.58794e-20)
(3.02219 0.727237 3.28388e-19)
(3.08699 0.545045 -6.8213e-19)
(3.13465 0.355729 -6.09642e-21)
(3.16434 0.161133 6.09229e-20)
(0.678729 1.74021 6.99052e-21)
(0.63964 1.87628 -1.83766e-21)
(0.598124 2.04342 -2.70297e-21)
(0.550861 2.25458 2.31328e-20)
(0.498402 2.52572 -1.01425e-20)
(0.440499 2.87335 -4.47429e-20)
(0.380276 3.30913 6.09458e-20)
(0.335653 3.82789 2.4563e-20)
(0.259958 4.38376 4.21235e-20)
(-0.111715 4.86971 1.7799e-19)
(0.825029 1.79077 1.83818e-20)
(0.79807 1.93148 -6.2862e-20)
(0.769941 2.10291 6.69495e-20)
(0.739607 2.31789 1.65028e-20)
(0.708573 2.59193 -3.78244e-20)
(0.677574 2.9409 3.84929e-20)
(0.650514 3.37503 1.64505e-19)
(0.644722 3.88518 -2.16932e-19)
(0.60969 4.42407 1.20602e-20)
(0.272282 4.89751 -2.20578e-19)
(0.979838 1.82793 1.0664e-19)
(0.965483 1.97244 -1.41011e-19)
(0.951244 2.14731 -5.71598e-20)
(0.938383 2.36499 -5.98046e-21)
(0.92923 2.64049 -7.31379e-20)
(0.925384 2.98891 -3.34621e-20)
(0.93129 3.41882 5.82462e-20)
(0.963121 3.91715 1.71103e-19)
(0.966046 4.43565 1.34168e-19)
(0.659254 4.89421 -4.21483e-19)
(1.14202 1.85057 1.21497e-19)
(1.14051 1.99799 -1.35518e-19)
(1.14053 2.17532 -1.40484e-19)
(1.14559 2.39444 7.48424e-20)
(1.15866 2.6698 4.54357e-19)
(1.18206 3.01563 -1.91274e-19)
(1.22054 3.43872 1.57083e-19)
(1.28858 3.92211 -5.66129e-19)
(1.3266 4.41716 -6.63099e-19)
(1.04674 4.85926 7.93412e-19)
(1.31029 1.85785 1.01094e-19)
(1.32158 2.00726 -6.64999e-20)
(1.33611 2.18595 1.99897e-19)
(1.3594 2.40506 -1.77383e-19)
(1.39489 2.67853 1.50308e-19)
(1.44547 3.01962 1.29136e-19)
(1.51591 3.43322 1.25017e-19)
(1.61851 3.89863 1.12935e-19)
(1.68858 4.36743 4.47963e-19)
(1.43202 4.79203 3.92024e-19)
(1.48313 1.84913 -3.54055e-19)
(1.5069 1.99955 -8.682e-20)
(1.53598 2.17836 3.97142e-19)
(1.57771 2.39587 -4.45464e-19)
(1.6357 2.66556 -2.05179e-19)
(1.7132 2.99963 -5.41238e-19)
(1.81477 3.40103 2.23544e-20)
(1.95001 3.84549 -6.15551e-19)
(2.0489 4.28559 -7.17829e-20)
(1.81215 4.69217 -1.21472e-18)
(1.65876 1.82444 5.77913e-19)
(1.69443 1.97472 -9.04253e-19)
(1.73797 2.15213 5.03621e-19)
(1.79824 2.36617 2.44881e-19)
(1.87865 2.63 -6.46854e-20)
(1.98262 2.95468 7.73945e-19)
(2.11422 3.34113 -4.86604e-19)
(2.2799 3.76177 -1.31443e-18)
(2.4042 4.171 -1.92466e-19)
(2.1841 4.55975 1.12021e-18)
(1.8348 1.78311 -4.97452e-21)
(1.88152 1.93223 4.52114e-19)
(1.93943 2.10669 -2.09902e-19)
(2.01833 2.31535 2.33664e-19)
(2.12102 2.5712 2.2009e-19)
(2.25084 2.88405 -3.90006e-19)
(2.41114 3.25283 2.88022e-19)
(2.60479 3.64697 -6.83034e-19)
(2.75102 4.02364 1.79203e-18)
(2.54478 4.39528 -6.10598e-19)
(2.00798 1.72805 -3.09437e-19)
(2.06504 1.87303 -1.43465e-19)
(2.13771 2.04207 6.45884e-19)
(2.2356 2.24309 -9.37143e-19)
(2.36024 2.48874 9.37577e-19)
(2.51498 2.78736 -4.91563e-19)
(2.70227 3.13574 -8.34275e-19)
(2.92121 3.50089 1.97176e-19)
(3.08576 3.84343 -3.16576e-18)
(2.89117 4.19929 2.22237e-18)
(2.17481 1.65697 8.29882e-19)
(2.23942 1.79485 -6.8163e-19)
(2.32905 1.95696 7.02855e-19)
(2.44698 2.14895 -5.87176e-20)
(2.59316 2.38247 -7.39857e-19)
(2.77169 2.66446 -3.84628e-19)
(2.98413 2.98992 4.35058e-19)
(3.22537 3.32374 1.20219e-18)
(3.40477 3.63136 1.53715e-18)
(3.22003 3.97368 1.47902e-20)
(-0.175448 0.814096 2.43935e-19)
(-0.29244 0.879722 -1.71998e-19)
(-0.440122 0.981853 5.75599e-20)
(-0.625226 1.12366 -1.22823e-19)
(-0.857248 1.31383 -6.99358e-20)
(-1.14915 1.5632 -7.62364e-20)
(-1.51169 1.88634 -1.48076e-21)
(-1.94241 2.30626 6.24501e-20)
(-2.47415 2.79104 1.46893e-19)
(-3.28475 3.13641 -1.61685e-19)
(-0.144198 0.91947 -1.19782e-19)
(-0.255077 0.991463 -1.01132e-19)
(-0.392168 1.09937 1.84926e-19)
(-0.565602 1.24864 7.2111e-20)
(-0.783094 1.45043 7.91558e-20)
(-1.05591 1.71668 -8.39542e-20)
(-1.39319 2.06193 -1.10714e-20)
(-1.78951 2.50726 -1.47287e-19)
(-2.27734 3.02011 -2.20218e-19)
(-3.04472 3.4052 4.11465e-19)
(-0.100733 1.02554 4.92127e-20)
(-0.205995 1.10543 -1.00126e-20)
(-0.333338 1.21981 1.73651e-19)
(-0.494602 1.37643 -1.11066e-19)
(-0.696532 1.58866 -4.57704e-20)
(-0.948955 1.86981 2.22003e-20)
(-1.25937 2.23454 -1.13581e-20)
(-1.61967 2.70171 3.00863e-19)
(-2.06226 3.23778 1.49321e-19)
(-2.78462 3.65676 -3.03156e-19)
(-0.0449321 1.13117 2.44775e-19)
(-0.14478 1.21904 -1.0206e-19)
(-0.262764 1.34051 3.53973e-20)
(-0.411462 1.50482 -2.54082e-20)
(-0.596952 1.72682 7.73646e-20)
(-0.82779 2.02119 -2.47562e-20)
(-1.1099 2.40285 -2.30539e-20)
(-1.43278 2.88834 4.12032e-20)
(-1.82915 3.44295 3.17082e-21)
(-2.50533 3.8899 4.63272e-19)
(0.0232017 1.23487 -1.69876e-19)
(-0.0707908 1.33064 -3.94066e-21)
(-0.179419 1.45952 4.59e-20)
(-0.315225 1.6317 1.10013e-21)
(-0.483598 1.86296 -3.146e-21)
(-0.691882 2.16911 -8.75533e-21)
(-0.944489 2.56532 3.64918e-20)
(-1.22881 3.06567 -4.56935e-20)
(-1.57825 3.63407 -5.96828e-21)
(-2.20765 4.10293 -5.74464e-19)
(0.103451 1.33545 7.87228e-21)
(0.0161615 1.43894 -5.81128e-20)
(-0.082778 1.5752 3.98179e-20)
(-0.205279 1.75516 -4.29142e-21)
(-0.355909 1.99512 -1.28316e-20)
(-0.540803 2.31171 4.82589e-20)
(-0.762909 2.72018 2.69287e-20)
(-1.00783 3.23196 1.32313e-20)
(-1.31004 3.80944 1.32881e-19)
(-1.89268 4.29418 1.15817e-19)
(0.19571 1.43156 3.50399e-20)
(0.116106 1.5425 -2.53705e-20)
(0.0273659 1.68588 -2.29045e-21)
(-0.0813205 1.8733 2.27675e-20)
(-0.213585 2.1213 -2.5513e-20)
(-0.374337 2.44701 3.67234e-20)
(-0.56512 2.86549 -4.73488e-20)
(-0.770087 3.38532 1.66186e-19)
(-1.02518 3.96722 1.88169e-19)
(-1.56178 4.46205 2.83366e-19)
(0.299798 1.52166 5.71985e-21)
(0.228898 1.63969 2.84058e-21)
(0.150966 1.78982 -4.75509e-21)
(0.0566738 1.98421 -7.08834e-21)
(-0.0565905 2.23947 4.07923e-20)
(-0.192511 2.57293 -6.95408e-20)
(-0.351305 2.99919 -7.48801e-20)
(-0.516028 3.52373 3.22758e-19)
(-0.724566 4.10554 -7.56332e-20)
(-1.21654 4.60504 -3.18555e-19)
(0.415367 1.60419 -7.19142e-21)
(0.354171 1.72884 5.84647e-21)
(0.287709 1.88524 2.72402e-21)
(0.208443 2.08599 -1.50911e-21)
(0.114822 2.34762 -2.73185e-20)
(0.00436568 2.68738 1.14259e-19)
(-0.121902 3.11916 -1.45562e-19)
(-0.246322 3.64509 -3.07553e-20)
(-0.409228 4.22242 -7.45475e-22)
(-0.858601 4.72164 -2.69919e-19)
(0.541911 1.67754 7.74734e-21)
(0.491359 1.80823 1.63161e-21)
(0.437048 1.97032 -3.10713e-21)
(0.373465 2.1767 -8.55981e-21)
(0.300128 2.44365 -2.49291e-20)
(0.215706 2.78815 2.10588e-20)
(0.12234 3.22312 1.39435e-20)
(0.0380042 3.74714 3.36914e-20)
(-0.080643 4.31591 -5.97761e-20)
(-0.490231 4.81063 5.7663e-20)
(-0.179975 0.695695 3.15033e-19)
(-0.203335 0.604827 -1.4159e-19)
(-0.220123 0.514362 4.25956e-20)
(-0.234621 0.430804 2.49344e-19)
(-0.246728 0.355623 1.59357e-19)
(-0.257441 0.288959 1.39363e-20)
(-0.268119 0.230254 8.00969e-20)
(-0.279828 0.178377 1.59025e-20)
(-0.293215 0.131739 2.6529e-20)
(-0.308484 0.0884223 -1.08749e-20)
(-0.314452 0.771787 1.4091e-19)
(-0.339101 0.675647 1.598e-19)
(-0.358708 0.579129 1.73619e-19)
(-0.37603 0.48947 -5.37235e-20)
(-0.390883 0.408073 -8.26927e-20)
(-0.404096 0.334902 -1.35037e-19)
(-0.416702 0.269245 6.1212e-20)
(-0.429504 0.209891 -1.99428e-19)
(-0.442972 0.155273 -1.75749e-20)
(-0.45721 0.103598 1.62049e-20)
(-0.476503 0.869728 -4.17433e-19)
(-0.506448 0.765163 6.93851e-20)
(-0.531283 0.661903 -3.2306e-19)
(-0.552897 0.56493 -9.46959e-20)
(-0.571406 0.475372 3.07177e-19)
(-0.587535 0.393189 1.8956e-19)
(-0.602036 0.317691 7.30645e-20)
(-0.615476 0.24777 -3.07976e-20)
(-0.628168 0.182049 7.03807e-20)
(-0.640161 0.119003 -1.02483e-20)
(-0.673491 1.00297 -9.73381e-20)
(-0.71283 0.886731 -1.78888e-19)
(-0.745886 0.773007 -2.73953e-20)
(-0.77402 0.664861 -1.01922e-19)
(-0.797655 0.563055 -1.68126e-19)
(-0.817437 0.467569 -1.5469e-20)
(-0.833935 0.377856 -1.00994e-19)
(-0.847566 0.293038 -4.80708e-20)
(-0.858563 0.212044 -8.28988e-20)
(-0.866993 0.133702 9.28186e-21)
(-0.91945 1.17978 -1.99325e-19)
(-0.971543 1.04827 2.5418e-19)
(-1.01547 0.919299 2.5897e-20)
(-1.05231 0.794819 -4.06788e-20)
(-1.0826 0.675408 6.36829e-20)
(-1.10691 0.561144 1.04097e-19)
(-1.12567 0.451723 1.75238e-19)
(-1.13921 0.346602 -1.29356e-19)
(-1.14776 0.245101 1.65146e-20)
(-1.15144 0.146468 7.76576e-22)
(-1.22927 1.41027 2.14455e-19)
(-1.2977 1.25839 -1.41116e-19)
(-1.35558 1.10816 -5.7823e-20)
(-1.40379 0.960937 -1.09328e-20)
(-1.44282 0.817292 -5.71469e-20)
(-1.47313 0.677507 8.34753e-20)
(-1.49505 0.541601 8.61175e-20)
(-1.50886 0.40944 1.27173e-20)
(-1.51477 0.280794 -2.03924e-20)
(-1.513 0.155386 -1.46606e-20)
(-1.61533 1.70888 -1.85867e-20)
(-1.70515 1.5306 3.11174e-20)
(-1.78165 1.35221 7.83384e-21)
(-1.84547 1.17491 -5.41494e-20)
(-1.89698 0.999375 1.1838e-19)
(-1.93649 0.826161 1.62416e-20)
(-1.96421 0.655665 -7.73805e-20)
(-1.98034 0.488198 -2.43064e-20)
(-1.98505 0.324017 -1.544e-20)
(-1.97858 0.163357 8.03825e-21)
(-2.07844 2.09994 -1.10595e-19)
(-2.19797 1.89001 -5.40068e-20)
(-2.30119 1.67722 5.44007e-20)
(-2.38844 1.46283 2.90204e-22)
(-2.45989 1.24771 -5.4247e-20)
(-2.51564 1.03271 -8.53036e-21)
(-2.55569 0.818629 3.96063e-20)
(-2.58009 0.606228 -4.75685e-20)
(-2.58889 0.396256 1.52078e-20)
(-2.58224 0.189437 -5.75912e-21)
(-2.65185 2.55165 -3.90441e-20)
(-2.80955 2.30463 1.77017e-19)
(-2.94787 2.05087 -1.48179e-19)
(-3.06668 1.79178 1.43536e-19)
(-3.16591 1.52847 -1.07254e-19)
(-3.24529 1.26212 8.86891e-21)
(-3.30457 0.99393 -3.78532e-20)
(-3.34355 0.725139 4.84572e-21)
(-3.36213 0.456962 8.48479e-21)
(-3.36018 0.190571 1.55449e-22)
(-3.50264 2.85069 1.10872e-19)
(-3.6951 2.55283 -3.32865e-19)
(-3.86464 2.24328 1.35715e-19)
(-4.01011 1.92393 -9.93985e-20)
(-4.131 1.59634 6.16759e-20)
(-4.2267 1.26222 2.34259e-19)
(-4.29672 0.923315 2.99593e-20)
(-4.3407 0.581443 5.88222e-20)
(-4.3585 0.238403 -3.49546e-20)
(-4.34985 -0.104066 -6.64055e-21)
(-0.325426 0.0462953 -1.19921e-20)
(-0.343426 0.00310814 4.48442e-20)
(-0.361535 -0.0433348 -1.89712e-19)
(-0.378669 -0.0951281 1.24485e-19)
(-0.393641 -0.154145 -1.24288e-20)
(-0.40518 -0.221919 8.25966e-20)
(-0.411919 -0.299694 -4.29375e-19)
(-0.412149 -0.388641 -1.16963e-20)
(-0.401488 -0.488264 9.45683e-20)
(-0.371313 -0.596827 -1.97386e-19)
(-0.472012 0.0529336 -3.37167e-20)
(-0.486847 0.0012906 7.92684e-20)
(-0.500904 -0.0532258 7.27008e-20)
(-0.513296 -0.112418 4.39972e-20)
(-0.523014 -0.1779 1.04892e-19)
(-0.528914 -0.251032 2.20279e-21)
(-0.529676 -0.332957 3.34697e-20)
(-0.523406 -0.424628 -5.57214e-20)
(-0.505544 -0.525677 -1.8961e-19)
(-0.469425 -0.637799 5.03563e-20)
(-0.651299 0.0570189 2.07443e-20)
(-0.661189 -0.00555118 -1.45767e-19)
(-0.669192 -0.070255 -2.78071e-20)
(-0.674646 -0.138582 1.22169e-20)
(-0.676747 -0.211907 -1.14762e-19)
(-0.674503 -0.291438 -4.85754e-20)
(-0.666675 -0.378271 -7.92947e-20)
(-0.651466 -0.473325 8.47056e-20)
(-0.625512 -0.57693 1.31708e-19)
(-0.585083 -0.6922 2.6175e-19)
(-0.872817 0.0567753 -2.18655e-20)
(-0.875833 -0.0200169 6.55019e-20)
(-0.875602 -0.0978705 -7.079e-20)
(-0.871726 -0.177982 1.50876e-19)
(-0.863647 -0.261507 7.99974e-20)
(-0.850631 -0.349545 3.8439e-20)
(-0.831693 -0.443179 1.50206e-19)
(-0.80543 -0.543423 6.40476e-20)
(-0.769756 -0.651189 -8.52357e-21)
(-0.723107 -0.769297 -7.54591e-20)
(-1.15037 0.0498873 -7.48675e-21)
(-1.1446 -0.0455221 1.03508e-21)
(-1.1339 -0.140591 -4.62929e-20)
(-1.11819 -0.236221 -1.16814e-19)
(-1.09723 -0.333342 1.94994e-20)
(-1.07065 -0.432933 1.29998e-19)
(-1.03788 -0.536018 -2.09419e-19)
(-0.998081 -0.64366 5.68739e-20)
(-0.950175 -0.757024 1.6407e-20)
(-0.893634 -0.878282 8.91625e-22)
(-1.50382 0.0328798 2.37889e-20)
(-1.48755 -0.0871615 -1.55075e-20)
(-1.4642 -0.20517 -5.84237e-20)
(-1.43401 -0.3217 6.12993e-20)
(-1.39714 -0.437424 -7.39921e-20)
(-1.35364 -0.553113 1.08033e-20)
(-1.30343 -0.669661 -7.67107e-21)
(-1.24626 -0.78806 -3.03703e-20)
(-1.18174 -0.909474 -1.90062e-20)
(-1.10979 -1.03551 1.06506e-20)
(-1.96133 0.00641965 -2.53466e-21)
(-1.93387 -0.146672 3.45895e-21)
(-1.89639 -0.295893 -5.7054e-20)
(-1.84949 -0.441358 6.74502e-20)
(-1.7937 -0.583361 1.3056e-19)
(-1.72952 -0.722359 -3.9142e-20)
(-1.65736 -0.858975 2.90342e-20)
(-1.57751 -0.99398 -9.71425e-21)
(-1.49013 -1.12835 -2.12268e-20)
(-1.39543 -1.26323 3.82867e-20)
(-2.56042 -0.0134171 -1.40642e-21)
(-2.52418 -0.211338 9.41227e-21)
(-2.47383 -0.403805 -1.7659e-20)
(-2.41024 -0.59034 -1.75759e-20)
(-2.33425 -0.770693 3.77261e-20)
(-2.24675 -0.944827 1.01398e-20)
(-2.14859 -1.11286 -1.29602e-20)
(-2.04058 -1.27516 -4.6115e-20)
(-1.92338 -1.43233 6.33688e-20)
(-1.7975 -1.5851 4.8433e-20)
(-3.3375 -0.0725308 -2.0064e-21)
(-3.29472 -0.330043 2.66014e-20)
(-3.23246 -0.581124 2.28102e-20)
(-3.15161 -0.824526 -4.32791e-20)
(-3.05315 -1.05928 5.17687e-20)
(-2.93817 -1.28455 -9.83493e-20)
(-2.80793 -1.49978 4.84412e-20)
(-2.66366 -1.70464 -4.58962e-20)
(-2.50654 -1.8992 -3.55094e-20)
(-2.33742 -2.0837 -1.78765e-19)
(-4.31378 -0.444026 -3.35708e-21)
(-4.25077 -0.777022 -3.91251e-20)
(-4.16201 -1.10286 3.74947e-20)
(-4.0481 -1.41928 3.3174e-20)
(-3.90993 -1.72448 -6.74556e-20)
(-3.7486 -2.01672 6.73571e-20)
(-3.56542 -2.29446 -1.11722e-19)
(-3.36193 -2.5565 9.35302e-20)
(-3.1398 -2.80204 -2.05946e-19)
(-2.90029 -3.03037 2.16721e-19)
(-2.64375 -3.23973 3.38286e-19)
(-2.15692 -2.25772 -1.20711e-19)
(-1.66338 -1.73395 -3.59377e-20)
(-1.29365 -1.39943 3.50127e-20)
(-1.03083 -1.16734 8.31216e-21)
(-0.829503 -1.00955 -5.32735e-20)
(-0.667482 -0.902451 -2.38951e-20)
(-0.533229 -0.829934 8.35836e-20)
(-0.420352 -0.783685 -1.99673e-19)
(-0.331801 -0.760219 2.17204e-20)
(-2.37493 -3.42692 -3.87148e-19)
(-1.96721 -2.42057 4.79399e-19)
(-1.52163 -1.87902 -6.69059e-20)
(-1.1846 -1.53682 -2.49426e-20)
(-0.944637 -1.30366 -6.76044e-21)
(-0.75867 -1.14724 4.13383e-20)
(-0.606751 -1.04235 -7.47611e-20)
(-0.479533 -0.972104 1.06277e-19)
(-0.373383 -0.926617 6.52541e-22)
(-0.292156 -0.899466 -1.01983e-19)
(-2.09398 -3.59446 2.6501e-19)
(-1.76821 -2.57311 -2.59583e-19)
(-1.3714 -2.02047 1.09743e-19)
(-1.06671 -1.67516 -2.13193e-20)
(-0.848848 -1.44374 1.53215e-20)
(-0.677572 -1.28994 -1.25901e-20)
(-0.535338 -1.18698 1.47507e-20)
(-0.41462 -1.11708 -2.3296e-20)
(-0.312812 -1.06937 7.66908e-20)
(-0.232728 -1.03632 -1.31033e-19)
(-1.8025 -3.74162 -5.59147e-19)
(-1.56027 -2.71561 7.83484e-20)
(-1.21209 -2.15863 7.46625e-20)
(-0.938605 -1.81448 6.61567e-20)
(-0.741396 -1.58722 -1.12322e-19)
(-0.583501 -1.4371 -2.23943e-21)
(-0.449834 -1.33607 1.57728e-21)
(-0.334467 -1.26582 5.48847e-20)
(-0.235274 -1.21504 -9.18977e-20)
(-0.154298 -1.17598 -5.7682e-20)
(-1.50174 -3.86822 4.32682e-19)
(-1.34334 -2.84832 7.5112e-20)
(-1.04276 -2.29354 1.53217e-19)
(-0.79876 -1.9544 1.15263e-20)
(-0.620393 -1.73332 1.06126e-19)
(-0.474355 -1.58758 4.67284e-20)
(-0.348098 -1.48839 2.55257e-20)
(-0.237245 -1.41729 -1.15049e-20)
(-0.140087 -1.36294 9.2942e-21)
(-0.0581535 -1.31757 4.56417e-20)
(-1.19294 -3.97406 3.29028e-19)
(-1.11727 -2.97126 -2.32388e-19)
(-0.862438 -2.42493 -7.47715e-21)
(-0.645747 -2.09412 -3.73134e-20)
(-0.484264 -1.88069 -2.88382e-20)
(-0.34863 -1.7396 -1.98094e-20)
(-0.228878 -1.64182 4.15786e-20)
(-0.122185 -1.56916 -2.20438e-20)
(-0.0272746 -1.51053 1.76538e-20)
(0.054721 -1.45823 -5.12751e-21)
(-0.877262 -4.05901 -6.04734e-19)
(-0.881809 -3.08423 -1.69848e-19)
(-0.670106 -2.55207 2.91168e-19)
(-0.478289 -2.23232 -7.56496e-20)
(-0.331779 -2.02739 7.4694e-20)
(-0.205356 -1.89071 -1.73295e-19)
(-0.0916136 -1.79349 1.27412e-19)
(0.0107639 -1.71824 -2.80128e-20)
(0.102625 -1.65437 2.18314e-20)
(0.183176 -1.59433 -3.39607e-20)
(-0.555801 -4.12304 2.80122e-19)
(-0.636629 -3.18675 -8.38939e-20)
(-0.464834 -2.6738 -8.60996e-20)
(-0.295341 -2.3671 -3.67309e-20)
(-0.162101 -2.17092 2.70538e-20)
(-0.0441005 -2.03788 3.68967e-20)
(0.0636303 -1.93999 -5.101e-20)
(0.161028 -1.86085 3.6713e-20)
(0.248565 -1.79064 5.90719e-20)
(0.325745 -1.72207 -5.48629e-20)
(-0.229512 -4.16614 2.42136e-19)
(-0.381349 -3.27805 -9.28773e-21)
(-0.245828 -2.78845 1.63403e-19)
(-0.0961914 -2.49602 -1.25251e-19)
(0.025127 -2.30824 3.74722e-20)
(0.134998 -2.17767 -3.8675e-20)
(0.236176 -2.07762 -1.05324e-20)
(0.327437 -1.99318 -5.51565e-20)
(0.409 -1.91554 5.46551e-20)
(0.480615 -1.83784 3.49657e-20)
(0.100796 -4.18799 -5.02437e-20)
(-0.115592 -3.35684 -3.66075e-20)
(-0.0125486 -2.89388 -1.94522e-20)
(0.11943 -2.61627 -6.04618e-20)
(0.229712 -2.43602 5.32619e-20)
(0.3312 -2.30644 1.03089e-20)
(0.42475 -2.20266 -3.05423e-20)
(0.508283 -2.11155 2.18772e-21)
(0.581946 -2.02558 -9.94736e-21)
(0.645691 -1.93852 1.78508e-21)
(0.93499 -1.69104 -1.42186e-21)
(0.95291 -1.32467 -1.90749e-23)
(0.992003 -1.05324 1.63362e-22)
(1.00301 -0.841243 2.24981e-22)
(1.00659 -0.677 2.44505e-22)
(1.00523 -0.544549 4.56287e-22)
(0.99975 -0.434961 -1.97722e-22)
(0.99119 -0.342756 2.81993e-22)
(0.980267 -0.263557 -1.702e-22)
(0.967455 -0.195229 -4.8046e-23)
(0.954408 -0.137017 2.00867e-22)
(0.936505 -0.0859305 -6.12999e-23)
(0.91853 -0.0383202 5.7843e-23)
(0.906257 -0.0230748 1.6314e-22)
(0.900888 -0.0573505 -2.99436e-23)
(0.868703 -0.136781 3.73646e-23)
(0.799506 -0.157941 -1.55257e-23)
(0.722351 -0.127097 2.79967e-23)
(0.652998 0.0630397 -1.33448e-22)
(0.724997 0.181338 -1.3727e-22)
(1.06733 -1.7325 1.30388e-20)
(1.01572 -1.33998 1.99428e-21)
(1.02369 -1.06056 -1.26191e-21)
(1.01941 -0.845686 -2.08886e-22)
(1.01275 -0.678988 6.94892e-22)
(1.0046 -0.545061 -7.11443e-23)
(0.994387 -0.434526 1.04029e-22)
(0.982482 -0.341719 4.00802e-22)
(0.969261 -0.262163 -2.40239e-22)
(0.954969 -0.193692 -9.06827e-23)
(0.940996 -0.135236 -3.88369e-23)
(0.922925 -0.0839182 -4.22688e-22)
(0.905323 -0.0367185 5.42073e-22)
(0.893566 -0.0220198 1.41424e-22)
(0.887317 -0.0552958 -1.20325e-22)
(0.854471 -0.131845 -6.05086e-23)
(0.78397 -0.151631 3.94474e-23)
(0.708369 -0.121323 5.5543e-22)
(0.638202 0.0630724 3.00999e-22)
(0.716024 0.178591 3.15507e-22)
(1.19898 -1.76171 -2.64345e-20)
(1.08046 -1.35277 1.24872e-20)
(1.05635 -1.06785 8.87829e-21)
(1.03685 -0.850877 -1.78968e-21)
(1.01986 -0.681806 6.31623e-22)
(1.00468 -0.546281 5.22734e-22)
(0.989577 -0.434698 -1.80164e-22)
(0.974247 -0.341206 5.51572e-22)
(0.958682 -0.261227 1.83731e-22)
(0.942885 -0.192547 2.11354e-22)
(0.927979 -0.133809 7.16888e-23)
(0.909752 -0.0822485 -2.08783e-23)
(0.892528 -0.0353466 -5.42526e-22)
(0.881235 -0.0209192 2.55243e-22)
(0.874157 -0.0529859 2.92733e-22)
(0.840839 -0.126711 -2.27888e-22)
(0.769408 -0.145365 -7.03368e-23)
(0.695559 -0.115752 -3.91042e-22)
(0.624832 0.0627936 -9.75582e-22)
(0.707956 0.175624 4.73806e-22)
(1.32928 -1.77929 -8.85375e-21)
(1.14805 -1.36335 2.20155e-20)
(1.09087 -1.07536 -8.58019e-21)
(1.05574 -0.856853 -1.38965e-21)
(1.02815 -0.685477 6.60311e-22)
(1.00562 -0.548235 2.18723e-22)
(0.985451 -0.435496 -2.12991e-22)
(0.966595 -0.341233 3.45585e-22)
(0.948626 -0.260762 -6.11604e-22)
(0.931283 -0.191804 -4.15758e-22)
(0.91542 -0.132746 8.90251e-22)
(0.897034 -0.0809273 -1.18156e-22)
(0.880181 -0.0342053 7.92153e-23)
(0.869304 -0.0197904 -4.01549e-22)
(0.86146 -0.0504711 -1.6186e-22)
(0.827847 -0.121445 1.8658e-22)
(0.755822 -0.139186 1.89927e-24)
(0.683894 -0.110386 -7.32505e-22)
(0.612852 0.062247 1.4141e-21)
(0.700768 0.172471 -9.98631e-22)
(1.45753 -1.78529 4.17425e-21)
(1.21931 -1.37069 3.10851e-21)
(1.12801 -1.0823 8.34994e-22)
(1.07638 -0.863141 4.50821e-21)
(1.03781 -0.689809 1.06736e-21)
(1.00757 -0.550859 3.73267e-22)
(0.982122 -0.436903 2.58744e-22)
(0.959625 -0.3418 -2.09506e-22)
(0.939179 -0.260768 -3.67864e-22)
(0.920239 -0.191465 -3.89202e-22)
(0.903382 -0.13205 6.55114e-23)
(0.884818 -0.0799574 7.45871e-22)
(0.868315 -0.0332948 1.63039e-22)
(0.857815 -0.0186455 -6.11934e-22)
(0.849278 -0.0477849 -5.35802e-22)
(0.815537 -0.116094 1.41285e-22)
(0.743224 -0.133129 -1.30342e-22)
(0.673351 -0.10525 2.0034e-22)
(0.602225 0.0614329 4.39285e-22)
(0.694415 0.169147 -5.76959e-23)
(1.58327 -1.77811 -9.64768e-20)
(1.29485 -1.37225 -1.30857e-20)
(1.16816 -1.08711 9.01773e-21)
(1.09883 -0.868943 -1.44966e-20)
(1.0489 -0.694423 -4.32681e-21)
(1.01063 -0.553976 -2.70531e-21)
(0.979686 -0.438831 1.85638e-22)
(0.953424 -0.34286 -2.0579e-22)
(0.930417 -0.26122 3.65815e-22)
(0.909815 -0.191516 3.47411e-22)
(0.891919 -0.131712 2.17156e-22)
(0.873143 -0.0793303 -5.73849e-22)
(0.85696 -0.0326116 3.02675e-22)
(0.846803 -0.0175031 4.09199e-22)
(0.837654 -0.0449732 3.7793e-22)
(0.803937 -0.110712 -3.38995e-22)