/*--------------------------------*- C++ -*----------------------------------*\
  =========                 |
  \\      /  F ield         | OpenFOAM: The Open Source CFD Toolbox
   \\    /   O peration     | Website:  https://openfoam.org
    \\  /    A nd           | Version:  6.0
     \\/     M anipulation  |
\*---------------------------------------------------------------------------*/
FoamFile
{
    version     2.0;
    format      ascii;
    class       volVectorField;
    location    "4.25";
    object      U;
}
// * * * * * * * * * * * * * * * * * * * * * * * * * * * * * * * * * * * * * //

dimensions      [0 1 -1 0 0 0 0];

internalField   nonuniform List<vector> 
19200
(
(0.0997939 -4.80894 -5.99865e-21)
(0.0628213 -4.49948 2.92705e-21)
(0.0678424 -4.24381 1.36881e-21)
(0.0801851 -4.03195 1.22073e-21)
(0.0935325 -3.85519 1.36828e-21)
(0.109451 -3.70626 8.81287e-23)
(0.127516 -3.57928 2.36114e-22)
(0.146971 -3.46954 -1.4412e-22)
(0.167292 -3.37328 1.71812e-21)
(0.188058 -3.28754 7.20081e-22)
(0.208914 -3.20997 -3.21672e-24)
(0.22957 -3.13874 1.14918e-21)
(0.249796 -3.07241 1.91329e-21)
(0.269415 -3.00988 -1.3073e-21)
(0.288293 -2.9503 1.6795e-21)
(0.306336 -2.89302 1.46214e-21)
(0.323482 -2.83756 -1.37931e-21)
(0.339694 -2.78356 2.37009e-21)
(0.354957 -2.73073 -1.51497e-21)
(0.369274 -2.67888 7.60492e-22)
(0.382662 -2.62786 1.07604e-21)
(0.395145 -2.57757 -3.51496e-22)
(0.406758 -2.5279 4.74692e-22)
(0.417539 -2.47879 -5.57444e-22)
(0.427527 -2.43019 1.22334e-21)
(0.436762 -2.38203 2.97036e-22)
(0.44528 -2.33427 -1.96451e-22)
(0.453124 -2.28686 1.18973e-22)
(0.460345 -2.23974 2.82157e-22)
(0.466911 -2.19284 1.10969e-21)
(0.225909 -4.80621 -1.37995e-21)
(0.181277 -4.50203 9.04429e-21)
(0.179907 -4.25029 -4.79017e-21)
(0.187033 -4.04175 -6.57822e-21)
(0.196117 -3.86789 -2.98735e-21)
(0.208502 -3.72136 -2.15007e-21)
(0.223584 -3.59631 -4.37545e-21)
(0.240471 -3.48807 5.87671e-22)
(0.258531 -3.39292 -9.75683e-22)
(0.277261 -3.30793 -3.48998e-21)
(0.296242 -3.23081 -8.82595e-21)
(0.315136 -3.15974 4.32497e-21)
(0.333678 -3.09335 -1.61938e-21)
(0.351666 -3.03057 6.13961e-22)
(0.368948 -2.97058 -3.78874e-21)
(0.385417 -2.91276 -1.40577e-21)
(0.401003 -2.85666 1.58512e-22)
(0.415666 -2.80195 4.81398e-21)
(0.429388 -2.74835 -2.52817e-21)
(0.442171 -2.69571 -1.40777e-21)
(0.454034 -2.64388 -5.57287e-21)
(0.465002 -2.59276 1.43591e-21)
(0.475112 -2.54228 -9.10661e-22)
(0.484404 -2.49237 1.61794e-21)
(0.492919 -2.44298 -2.02535e-21)
(0.500698 -2.39406 -1.17527e-21)
(0.507779 -2.34555 3.83447e-22)
(0.514208 -2.29741 5.99204e-22)
(0.520063 -2.24956 -1.06305e-21)
(0.525261 -2.20194 5.25498e-22)
(0.35169 -4.80049 -6.65784e-22)
(0.299627 -4.50169 1.92548e-21)
(0.292192 -4.25402 2.94627e-21)
(0.294362 -4.04895 2.30419e-20)
(0.29938 -3.8781 -1.34017e-20)
(0.308383 -3.73407 1.22604e-20)
(0.3206 -3.61102 -1.10685e-20)
(0.335008 -3.50432 5.9545e-21)
(0.350871 -3.4103 -5.71895e-21)
(0.367606 -3.32609 -6.54772e-22)
(0.384735 -3.24941 1.45509e-20)
(0.401874 -3.17852 2.46341e-21)
(0.418728 -3.11207 -6.78455e-21)
(0.435069 -3.04904 5.3494e-21)
(0.45073 -2.98863 -3.58504e-23)
(0.465594 -2.93028 2.30752e-21)
(0.479585 -2.87356 1.68136e-21)
(0.492659 -2.81814 5.67802e-21)
(0.504798 -2.7638 -2.50353e-21)
(0.516005 -2.71038 -8.22555e-22)
(0.5263 -2.65776 -2.20878e-21)
(0.535711 -2.60585 9.8247e-21)
(0.544277 -2.55458 -8.22716e-21)
(0.55204 -2.50391 2.68393e-21)
(0.559044 -2.45378 6.20946e-21)
(0.565333 -2.40414 -5.0765e-21)
(0.570941 -2.35494 6.80454e-21)
(0.575926 -2.30612 -7.35486e-22)
(0.580383 -2.2576 -7.74544e-22)
(0.58418 -2.20932 -5.27838e-21)
(0.477286 -4.79166 -2.20594e-20)
(0.418006 -4.49846 -1.9677e-20)
(0.40473 -4.25501 -2.42256e-20)
(0.402155 -4.05356 7.43324e-22)
(0.403285 -3.88582 1.4535e-21)
(0.409051 -3.74436 -2.7627e-20)
(0.418516 -3.62336 -1.37694e-20)
(0.43053 -3.51824 3.60642e-21)
(0.444256 -3.42539 -6.07763e-22)
(0.459036 -3.34195 6.28977e-21)
(0.474333 -3.26573 -2.50124e-20)
(0.489724 -3.19501 -1.57659e-20)
(0.504881 -3.12851 5.84023e-21)
(0.519557 -3.06522 1.18005e-20)
(0.53357 -3.00441 -1.37301e-20)
(0.546797 -2.94554 -2.17834e-21)
(0.559155 -2.88819 -8.21361e-21)
(0.570599 -2.83209 -3.90922e-21)
(0.581113 -2.77702 6.58518e-21)
(0.590701 -2.72284 -8.46935e-21)
(0.599384 -2.66946 7.39991e-21)
(0.607196 -2.61679 -8.78735e-21)
(0.614178 -2.56478 -6.97263e-21)
(0.620374 -2.51339 -5.01746e-21)
(0.625832 -2.46256 5.83795e-21)
(0.630595 -2.41225 -1.042e-20)
(0.6347 -2.36241 1.07922e-21)
(0.63821 -2.31296 1.89066e-21)
(0.641243 -2.26384 -5.52139e-21)
(0.643609 -2.21495 1.11135e-21)
(0.602655 -4.77964 -1.31985e-20)
(0.536402 -4.49232 1.8782e-21)
(0.517501 -4.25327 1.6821e-20)
(0.510377 -4.05556 1.77488e-20)
(0.50779 -3.89103 1.27988e-20)
(0.510457 -3.75221 5.29649e-21)
(0.517281 -3.63331 3.27648e-21)
(0.526983 -3.5298 3.81476e-20)
(0.53863 -3.43811 -2.29069e-20)
(0.551491 -3.35546 6.27709e-22)
(0.564976 -3.2797 5.5415e-21)
(0.57862 -3.20916 2.42632e-20)
(0.59207 -3.1426 -1.65987e-20)
(0.605059 -3.07907 1.20107e-20)
(0.617397 -3.01786 -1.34547e-20)
(0.62895 -2.95847 2.31211e-20)
(0.639636 -2.90051 -6.8524e-21)
(0.649409 -2.84374 2.4112e-22)
(0.658254 -2.78796 1.11883e-20)
(0.666179 -2.73306 7.87938e-21)
(0.673209 -2.67894 -8.04739e-21)
(0.67938 -2.62555 1.09306e-20)
(0.684737 -2.57284 -5.02308e-21)
(0.689329 -2.52077 5.79002e-21)
(0.693205 -2.4693 6.45746e-21)
(0.696411 -2.41837 2.86418e-21)
(0.698984 -2.36793 8.74782e-21)
(0.700993 -2.31793 -3.08606e-21)
(0.702577 -2.26825 -1.02758e-21)
(0.703486 -2.21883 -4.97113e-21)
(0.727728 -4.76444 -9.64843e-21)
(0.654769 -4.48323 -6.2892e-21)
(0.630462 -4.24877 -1.91835e-20)
(0.618983 -4.05493 -5.01523e-20)
(0.612846 -3.8937 1.68609e-20)
(0.612553 -3.75758 1.10004e-21)
(0.616842 -3.64082 2.22741e-22)
(0.624312 -3.53894 2.39668e-21)
(0.633935 -3.44843 -1.6188e-21)
(0.64491 -3.36658 -3.02258e-20)
(0.656596 -3.29127 1.27157e-20)
(0.668493 -3.22091 2.2079e-20)
(0.680222 -3.1543 7.09326e-23)
(0.691502 -3.09052 8.27068e-21)
(0.702132 -3.02892 2.05923e-20)
(0.711976 -2.96902 -1.42269e-20)
(0.720949 -2.91047 2.51505e-20)
(0.729007 -2.85305 -1.2053e-20)
(0.73614 -2.79659 2.1538e-20)
(0.742358 -2.74099 -1.61884e-20)
(0.747691 -2.68618 7.25655e-21)
(0.75218 -2.6321 1.91829e-20)
(0.755874 -2.57873 1.15278e-21)
(0.758826 -2.52603 -1.78509e-20)
(0.761088 -2.47395 9.8792e-21)
(0.762708 -2.42246 3.04239e-21)
(0.763721 -2.3715 -3.25597e-21)
(0.764205 -2.32099 1.24962e-20)
(0.76432 -2.27083 4.4314e-21)
(0.763749 -2.22095 -4.26015e-21)
(0.852428 -4.74604 2.70946e-20)
(0.773044 -4.4712 -6.52222e-22)
(0.74356 -4.24149 -3.91902e-20)
(0.727924 -4.05165 7.94708e-21)
(0.718403 -3.8938 -1.12093e-20)
(0.715284 -3.76043 8.14758e-21)
(0.717143 -3.64584 -3.88971e-21)
(0.722457 -3.54561 3.33531e-20)
(0.730108 -3.45629 -3.62868e-20)
(0.739227 -3.37523 8.90437e-21)
(0.749125 -3.30039 -6.35093e-21)
(0.759272 -3.23021 4.68476e-21)
(0.769264 -3.16354 -2.06996e-20)
(0.778809 -3.09952 -1.34406e-21)
(0.787698 -3.03753 3.3872e-20)
(0.795793 -2.97714 -2.33349e-20)
(0.803011 -2.91802 -1.48469e-20)
(0.809311 -2.85997 -1.09042e-20)
(0.814686 -2.80286 1.99001e-20)
(0.819153 -2.74659 4.33265e-21)
(0.822747 -2.69112 -1.97351e-20)
(0.825514 -2.6364 2.64875e-20)
(0.827508 -2.58241 -2.39484e-20)
(0.828785 -2.52913 1.59736e-20)
(0.829402 -2.47651 -9.05588e-21)
(0.829407 -2.42451 2.79526e-21)
(0.828837 -2.37308 4.48921e-21)
(0.827776 -2.32214 -2.00297e-20)
(0.826402 -2.27155 8.65046e-21)
(0.824333 -2.22128 1.58963e-22)
(0.976675 -4.72445 -2.67367e-20)
(0.891163 -4.45622 2.15524e-20)
(0.856737 -4.23143 -4.04347e-20)
(0.837144 -4.04569 7.73653e-20)
(0.824407 -3.8913 -2.17715e-20)
(0.818595 -3.76073 3.12393e-20)
(0.818125 -3.64833 2.47594e-20)
(0.821357 -3.54976 -4.27631e-21)
(0.827083 -3.46164 -6.45175e-21)
(0.834373 -3.38138 -1.06632e-22)
(0.842493 -3.30699 -2.51772e-20)
(0.85088 -3.23699 1.30942e-20)
(0.859117 -3.17027 -1.60047e-20)
(0.866898 -3.10602 -1.25419e-21)
(0.87401 -3.04366 -4.53348e-20)
(0.880317 -2.98278 1.48282e-20)
(0.885736 -2.92311 8.71808e-21)
(0.890233 -2.86446 -9.82195e-21)
(0.893806 -2.80672 -1.14422e-21)
(0.896478 -2.74983 -1.53115e-20)
(0.898291 -2.69373 -5.51639e-21)
(0.899296 -2.63842 5.2119e-22)
(0.899554 -2.58387 -1.35537e-20)
(0.899124 -2.53005 -2.02385e-20)
(0.898067 -2.47695 8.4242e-22)
(0.896433 -2.42451 2.91562e-21)
(0.894258 -2.37267 6.47347e-21)
(0.891633 -2.32135 -1.60532e-20)
(0.888756 -2.27042 1.37286e-20)
(0.885174 -2.21983 -2.62016e-20)
(1.10039 -4.69967 -6.66255e-20)
(1.00906 -4.43826 8.00046e-20)
(0.969932 -4.21855 -8.51405e-20)
(0.946584 -4.03702 -2.30585e-20)
(0.930798 -3.88615 -1.49696e-20)
(0.922426 -3.75842 -1.63013e-20)
(0.919728 -3.64824 -3.7537e-20)
(0.920947 -3.55135 -3.1766e-21)
(0.924794 -3.46443 -1.52493e-20)
(0.930277 -3.38496 -3.42285e-21)
(0.936622 -3.31103 2.62508e-20)
(0.943242 -3.2412 -1.49143e-20)
(0.9497 -3.17444 -1.79675e-20)
(0.955686 -3.10996 -3.05584e-20)
(0.960985 -3.04724 6.44427e-20)
(0.96546 -2.9859 -2.49366e-20)
(0.969037 -2.9257 9.34328e-21)
(0.971685 -2.86648 -3.51052e-20)
(0.973411 -2.80815 1.34691e-20)
(0.974245 -2.75067 -5.62037e-21)
(0.974235 -2.694 7.01579e-21)
(0.973441 -2.63813 -2.50568e-21)
(0.971927 -2.58307 2.251e-20)
(0.969759 -2.52878 -8.01671e-21)
(0.967001 -2.47525 2.22503e-20)
(0.963704 -2.42243 -4.55021e-20)
(0.959906 -2.37025 2.91638e-20)
(0.955704 -2.31864 8.12425e-21)
(0.951313 -2.26742 1.53196e-20)
(0.946207 -2.21658 -4.66301e-20)
(1.2235 -4.67172 1.05382e-19)
(1.12665 -4.41735 -2.0188e-20)
(1.08308 -4.20285 3.64657e-20)
(1.05618 -4.02563 -1.05305e-20)
(1.03752 -3.87835 3.69494e-20)
(1.02672 -3.75348 3.52786e-20)
(1.02189 -3.64554 1.70623e-20)
(1.02116 -3.55032 -6.31639e-21)
(1.02317 -3.4646 -3.92205e-20)
(1.02687 -3.38593 5.76463e-20)
(1.03144 -3.31245 -4.62479e-21)
(1.03627 -3.24281 4.12838e-20)
(1.04093 -3.176 1.50797e-20)
(1.04509 -3.11131 5.49401e-21)
(1.04853 -3.04824 8.95045e-21)
(1.05113 -2.98646 1.23103e-20)
(1.05282 -2.92576 2.07039e-20)
(1.05358 -2.866 -6.01044e-21)
(1.05341 -2.80712 3.08049e-20)
(1.05236 -2.74908 1.43281e-20)
(1.05049 -2.69189 -2.99642e-20)
(1.04786 -2.63552 5.33573e-20)
(1.04454 -2.58 -7.07861e-20)
(1.0406 -2.5253 6.73073e-20)
(1.03612 -2.4714 -2.23644e-20)
(1.03114 -2.41826 -9.27917e-21)
(1.0257 -2.36582 -2.48631e-21)
(1.01991 -2.31397 1.66791e-20)
(1.014 -2.26255 6.04954e-21)
(1.00736 -2.21155 -7.20968e-21)
(1.34591 -4.64062 -6.04563e-20)
(1.24389 -4.39346 5.89159e-20)
(1.19612 -4.18432 -1.60843e-20)
(1.16588 -4.01148 4.65618e-20)
(1.1445 -3.86784 4.54606e-21)
(1.1314 -3.74588 1.02832e-20)
(1.12453 -3.64017 -8.13003e-20)
(1.12193 -3.54664 3.83698e-20)
(1.12214 -3.46211 5.30323e-20)
(1.12406 -3.38423 4.08821e-20)
(1.12686 -3.31121 -6.97568e-20)
(1.12989 -3.24174 4.09681e-20)
(1.13272 -3.1749 -4.11057e-20)
(1.13501 -3.11001 2.8678e-20)
(1.13656 -3.04661 -4.80002e-20)
(1.13725 -2.98442 -3.60117e-20)
(1.137 -2.92325 2.16302e-21)
(1.13582 -2.86298 -1.67472e-20)
(1.13371 -2.80359 2.9793e-20)
(1.13074 -2.74505 1.18933e-20)
(1.12696 -2.68737 -7.82577e-21)
(1.12246 -2.63057 -2.31442e-21)
(1.1173 -2.57464 9.41297e-21)
(1.11157 -2.51959 -3.1389e-20)
(1.10534 -2.4654 5.25839e-20)
(1.09866 -2.41201 -1.27909e-20)
(1.09158 -2.35937 -2.20889e-20)
(1.08419 -2.30737 4.64944e-20)
(1.07675 -2.2558 6.35307e-21)
(1.06858 -2.20471 -6.38792e-21)
(1.46755 -4.60637 2.12013e-21)
(1.36068 -4.3666 -3.27541e-20)
(1.30897 -4.16293 -3.04751e-20)
(1.2756 -3.99457 -5.03689e-20)
(1.25168 -3.8546 1.60241e-21)
(1.23641 -3.73556 -3.68239e-20)
(1.2276 -3.63211 4.36711e-20)
(1.22317 -3.54025 -2.16188e-20)
(1.22162 -3.45692 3.62123e-20)
(1.22178 -3.37982 -2.96888e-20)
(1.22279 -3.30725 -1.551e-20)
(1.22401 -3.23797 8.51442e-21)
(1.22498 -3.1711 4.63336e-21)
(1.22537 -3.10602 -4.78159e-20)
(1.22499 -3.04232 2.83197e-20)
(1.22371 -2.97974 -1.42792e-20)
(1.22148 -2.91813 4.03571e-20)
(1.21831 -2.8574 -1.34057e-20)
(1.21422 -2.79754 1.40925e-20)
(1.20928 -2.73854 3.47749e-21)
(1.20356 -2.68044 2.41919e-20)
(1.19715 -2.62325 -4.93245e-21)
(1.19013 -2.56698 4.01282e-20)
(1.18258 -2.51165 -4.46963e-20)
(1.17458 -2.45722 -1.52061e-20)
(1.16619 -2.40366 1.25197e-20)
(1.15744 -2.3509 -1.23461e-21)
(1.14845 -2.29881 -3.46878e-20)
(1.13948 -2.24719 1.79206e-20)
(1.12978 -2.19609 -2.05712e-20)
(1.58835 -4.56899 1.02788e-19)
(1.47696 -4.33677 2.78453e-20)
(1.42158 -4.13869 3.32574e-20)
(1.38529 -3.97486 4.54844e-20)
(1.35899 -3.83861 6.84748e-20)
(1.34168 -3.7225 -1.93076e-21)
(1.33101 -3.6213 9.92126e-21)
(1.32482 -3.53111 1.18819e-19)
(1.32153 -3.44897 3.45159e-20)
(1.31994 -3.37265 -2.91932e-20)
(1.31917 -3.30053 5.19594e-20)
(1.31855 -3.23144 8.9417e-21)
(1.31762 -3.16456 5.22529e-22)
(1.31607 -3.09931 1.25676e-20)
(1.3137 -3.03533 2.28063e-20)
(1.31041 -2.97239 -4.72244e-20)
(1.30616 -2.91037 4.03442e-20)
(1.30095 -2.84923 6.89654e-21)
(1.29484 -2.78894 3.98601e-20)
(1.28789 -2.72955 -2.15856e-20)
(1.2802 -2.67107 3.6002e-20)
(1.27184 -2.61355 -3.83687e-20)
(1.26293 -2.55701 3.73071e-20)
(1.25353 -2.50146 5.27541e-21)
(1.24375 -2.44687 -2.51556e-20)
(1.23363 -2.39321 -8.30824e-21)
(1.22321 -2.34039 4.87602e-20)
(1.21262 -2.28831 -7.34263e-21)
(1.20213 -2.2367 9.53327e-21)
(1.19091 -2.18569 -6.48114e-21)
(1.70821 -4.5285 1.06212e-20)
(1.59266 -4.30398 2.43468e-20)
(1.53387 -4.11158 9.89045e-20)
(1.49488 -3.95234 -1.61705e-19)
(1.46637 -3.81983 -1.61085e-20)
(1.44713 -3.70667 -1.74503e-20)
(1.4347 -3.60771 7.87837e-21)
(1.4268 -3.51919 1.08427e-20)
(1.42179 -3.43822 2.69812e-20)
(1.41846 -3.36268 -4.81226e-20)
(1.41588 -3.29101 -9.5696e-21)
(1.41339 -3.22212 2.73763e-20)
(1.41054 -3.15523 2.98225e-20)
(1.40701 -3.08983 -2.96538e-20)
(1.40262 -3.0256 -2.96127e-20)
(1.39727 -2.96234 4.80819e-20)
(1.39094 -2.89996 3.17008e-20)
(1.38366 -2.83844 -8.01948e-21)
(1.37548 -2.77778 -2.03361e-20)
(1.36648 -2.71804 3.80348e-21)
(1.35677 -2.65925 -4.75254e-20)
(1.34644 -2.60147 5.75709e-20)
(1.3356 -2.54472 -3.9456e-20)
(1.32434 -2.48902 -1.69685e-21)
(1.31276 -2.43434 2.62561e-20)
(1.3009 -2.38065 -8.17812e-21)
(1.28881 -2.32787 -2.48622e-20)
(1.27661 -2.27586 3.87327e-21)
(1.26461 -2.22436 -9.92628e-22)
(1.25188 -2.1735 5.126e-21)
(1.82706 -4.48493 -7.66825e-21)
(1.7077 -4.26823 -2.51818e-20)
(1.64577 -4.08159 -1.14312e-19)
(1.60429 -3.92699 4.12375e-20)
(1.57374 -3.79824 -1.26571e-20)
(1.5527 -3.68802 4.19301e-20)
(1.53857 -3.59131 3.16947e-21)
(1.52901 -3.50444 -4.88053e-20)
(1.52232 -3.42464 4.48508e-21)
(1.51724 -3.34987 -6.73961e-20)
(1.51285 -3.27865 -2.77338e-21)
(1.50847 -3.20996 1.66285e-20)
(1.50365 -3.14309 -2.86418e-20)
(1.49809 -3.07757 3.30266e-20)
(1.49163 -3.01311 -6.30811e-20)
(1.48418 -2.94956 -1.4419e-20)
(1.47573 -2.88687 3.84758e-20)
(1.46632 -2.82501 -1.64254e-23)
(1.45603 -2.76404 -2.46166e-20)
(1.44495 -2.70401 6.70956e-20)
(1.43318 -2.64498 -3.60281e-20)
(1.42085 -2.58699 -4.85268e-20)
(1.40806 -2.5301 1.62081e-20)
(1.39492 -2.47432 -4.74467e-20)
(1.38152 -2.41963 -1.15059e-20)
(1.36791 -2.36599 -1.48677e-21)
(1.35415 -2.31332 -3.12905e-20)
(1.34036 -2.26147 3.74505e-20)
(1.32685 -2.21015 -1.33932e-20)
(1.31263 -2.15955 2.29709e-20)
(1.94483 -4.43829 -3.70605e-20)
(1.822 -4.22953 -1.01952e-19)
(1.75722 -4.04873 4.96416e-20)
(1.71346 -3.8988 -4.76711e-20)
(1.68102 -3.77382 -3.52304e-20)
(1.6583 -3.66654 -2.05631e-20)
(1.64257 -3.57206 -7.58894e-20)
(1.63139 -3.48683 5.18027e-20)
(1.62303 -3.40818 -9.34791e-20)
(1.6162 -3.33418 -1.30696e-19)
(1.60997 -3.26342 1.68894e-20)
(1.60367 -3.19494 2.8402e-20)
(1.59685 -3.1281 -4.17075e-22)
(1.58922 -3.06247 -5.47308e-20)
(1.58064 -2.99783 1.28454e-20)
(1.57104 -2.93404 -5.02588e-20)
(1.56043 -2.87107 -3.62761e-20)
(1.54885 -2.80894 -2.1929e-20)
(1.5364 -2.74771 -4.43358e-21)
(1.52319 -2.68745 3.74203e-20)
(1.50934 -2.62823 5.36921e-20)
(1.49498 -2.57011 -1.61631e-20)
(1.48022 -2.51315 -1.5682e-20)
(1.46517 -2.45737 3.04214e-20)
(1.44994 -2.40274 1.69291e-20)
(1.43459 -2.34923 -1.34612e-20)
(1.41916 -2.29676 -1.50971e-20)
(1.40378 -2.24516 1.7072e-21)
(1.38878 -2.19411 1.35606e-20)
(1.37309 -2.14384 -2.04262e-20)
(2.06143 -4.38862 -7.13516e-21)
(1.9355 -4.18789 1.29501e-19)
(1.86813 -4.01298 1.00376e-19)
(1.8223 -3.86775 7.82452e-20)
(1.78815 -3.74654 -5.10107e-20)
(1.76386 -3.6422 -1.02219e-20)
(1.74659 -3.54993 9.20999e-21)
(1.73384 -3.46632 6.60271e-20)
(1.72382 -3.38882 2.49191e-20)
(1.71524 -3.31557 3.81589e-20)
(1.70715 -3.24526 -8.48924e-20)
(1.69889 -3.17701 8.59681e-21)
(1.69003 -3.11023 3.47109e-20)
(1.6803 -3.04453 2.14316e-20)
(1.66955 -2.97974 4.48355e-20)
(1.65775 -2.91575 -3.05624e-20)
(1.64492 -2.85256 -2.849e-20)
(1.63114 -2.79021 5.39864e-21)
(1.61649 -2.72878 6.12237e-20)
(1.60112 -2.66835 -9.88959e-20)
(1.58516 -2.60901 3.4501e-20)
(1.56873 -2.55083 -2.41551e-22)
(1.55197 -2.49387 6.55913e-20)
(1.53501 -2.43815 -2.83684e-20)
(1.51794 -2.38367 -1.51126e-21)
(1.50084 -2.33037 -1.81674e-20)
(1.48374 -2.27818 -1.60304e-20)
(1.46679 -2.22691 3.39666e-21)
(1.45032 -2.17622 -3.97709e-20)
(1.43317 -2.12638 6.1467e-20)
(2.17679 -4.33593 -1.37093e-19)
(2.04812 -4.14332 -7.88738e-20)
(1.97843 -3.97434 -2.02326e-19)
(1.93076 -3.83383 -9.23264e-20)
(1.89505 -3.71639 8.62643e-20)
(1.8693 -3.61495 -5.10805e-20)
(1.85056 -3.52488 -1.25511e-20)
(1.83627 -3.44287 -3.40296e-20)
(1.82461 -3.3665 5.78354e-20)
(1.81427 -3.29401 -5.38139e-20)
(1.80429 -3.22417 6.33215e-21)
(1.79405 -3.15616 -2.62854e-21)
(1.7831 -3.08945 -8.59476e-20)
(1.77121 -3.02372 -3.6814e-21)
(1.75826 -2.95882 2.28285e-20)
(1.74421 -2.89467 -2.65289e-21)
(1.72913 -2.83132 -8.92981e-20)
(1.71309 -2.76881 8.70552e-20)
(1.69621 -2.70724 -8.56929e-20)
(1.67864 -2.6467 3.35098e-20)
(1.66053 -2.58731 4.74241e-21)
(1.64202 -2.52914 1.88888e-21)
(1.62325 -2.47225 -3.55444e-20)
(1.60435 -2.41668 3.57868e-20)
(1.58544 -2.36241 -1.52651e-20)
(1.56658 -2.30941 1.67123e-20)
(1.54781 -2.25759 -8.95191e-20)
(1.52929 -2.20675 2.42155e-20)
(1.51136 -2.1565 2.61262e-20)
(1.49279 -2.10719 2.76019e-20)
(2.29082 -4.28026 2.67636e-19)
(2.15979 -4.09583 9.08648e-20)
(2.08806 -3.93283 5.32246e-20)
(2.03875 -3.79703 8.44214e-20)
(2.00164 -3.68334 -1.05886e-20)
(1.97453 -3.5848 6.39188e-20)
(1.95439 -3.49689 1.42469e-19)
(1.9386 -3.41647 -1.80955e-20)
(1.9253 -3.34122 8.26602e-21)
(1.91318 -3.26948 1.69131e-19)
(1.9013 -3.20011 1.58246e-19)
(1.88902 -3.13236 2.36092e-20)
(1.87595 -3.06575 -8.7524e-21)
(1.86186 -3.00003 -9.90205e-22)
(1.84665 -2.93505 1.2305e-19)
(1.83032 -2.87081 4.74064e-21)
(1.81294 -2.80734 1.31375e-19)
(1.7946 -2.74473 -1.65515e-20)
(1.77546 -2.68308 -2.85297e-20)
(1.75567 -2.62251 6.66248e-20)
(1.73538 -2.56313 -6.10383e-20)
(1.71475 -2.50503 -6.58899e-20)
(1.69394 -2.44829 -5.84865e-21)
(1.67309 -2.39294 -2.93833e-20)
(1.65231 -2.33897 4.46703e-20)
(1.63169 -2.28635 5.28113e-21)
(1.61126 -2.23499 -1.8749e-20)
(1.59118 -2.18467 1.0028e-20)
(1.57182 -2.13497 6.7105e-20)
(1.55186 -2.08628 9.7613e-21)
(2.40346 -4.22164 -4.60666e-20)
(2.27043 -4.04544 -9.1482e-20)
(2.19694 -3.88843 3.77441e-20)
(2.14621 -3.75734 -1.51323e-19)
(2.10784 -3.64738 7.20772e-20)
(2.07948 -3.5517 -1.3215e-19)
(2.058 -3.46593 -8.70944e-20)
(2.04072 -3.38707 2.42711e-20)
(2.02579 -3.31293 2.41077e-20)
(2.01187 -3.24194 -1.16958e-19)
(1.99805 -3.17305 1.78165e-20)
(1.98372 -3.10558 1.99042e-20)
(1.96848 -3.03912 -6.44048e-20)
(1.95214 -2.97343 -2.56665e-20)
(1.93464 -2.90844 -1.72822e-20)
(1.91598 -2.84414 -1.73511e-20)
(1.89625 -2.78062 -7.27399e-20)
(1.87559 -2.71797 -4.56309e-20)
(1.85415 -2.65631 -9.93669e-21)
(1.83209 -2.59578 3.72813e-20)
(1.8096 -2.53648 5.06385e-20)
(1.78683 -2.47852 -5.50646e-20)
(1.76396 -2.42199 2.06766e-20)
(1.74113 -2.36693 -4.27746e-20)
(1.71848 -2.31334 4.02769e-20)
(1.69608 -2.26119 -5.29941e-20)
(1.67399 -2.21038 1.66362e-20)
(1.65238 -2.16067 -2.60858e-20)
(1.63161 -2.11162 -3.7045e-20)
(1.6103 -2.06366 -3.59573e-21)
(2.51462 -4.1601 -9.7155e-20)
(2.37996 -3.99216 -8.24828e-20)
(2.30501 -3.84116 -8.09788e-20)
(2.25305 -3.71477 -5.99604e-20)
(2.21358 -3.6085 1.84352e-19)
(2.18407 -3.51563 2.58802e-20)
(2.16129 -3.43197 7.89874e-20)
(2.14255 -3.35466 1.20923e-19)
(2.12597 -3.28161 5.83025e-20)
(2.11025 -3.21138 -7.74326e-20)
(2.09446 -3.14298 1.24701e-19)
(2.07802 -3.07582 3.6144e-20)
(2.06058 -3.00952 1.14563e-19)
(2.04196 -2.94392 1.34116e-20)
(2.02211 -2.87896 2.91882e-20)
(2.00108 -2.81468 9.52877e-21)
(1.97898 -2.75117 -1.24499e-22)
(1.95596 -2.68854 -3.4801e-21)
(1.93218 -2.62694 1.57661e-20)
(1.90782 -2.5665 5.32246e-20)
(1.88309 -2.50735 -5.93487e-20)
(1.85816 -2.44961 4.72483e-20)
(1.8332 -2.39336 1.75666e-21)
(1.80838 -2.33866 2.13919e-20)
(1.78384 -2.28552 3.91203e-20)
(1.75968 -2.23391 -6.71934e-21)
(1.73593 -2.18374 3.87871e-20)
(1.71278 -2.13475 5.61203e-20)
(1.69063 -2.08645 -6.08799e-20)
(1.66802 -2.03934 -3.51976e-20)
(2.62423 -4.09567 2.8464e-19)
(2.48833 -3.93603 -3.04551e-20)
(2.41218 -3.79102 6.27367e-20)
(2.35922 -3.66929 1.15337e-19)
(2.31878 -3.56668 -3.31231e-19)
(2.28819 -3.47659 3.57378e-20)
(2.26416 -3.395 -1.2619e-19)
(2.24398 -3.31921 1.25829e-19)
(2.22576 -3.24725 -1.0013e-19)
(2.2082 -3.17777 5.3993e-20)
(2.19041 -3.10989 -1.96484e-19)
(2.17184 -3.04306 7.05977e-21)
(2.15215 -2.97697 -2.15538e-19)
(2.1312 -2.9115 9.80514e-20)
(2.10897 -2.84663 5.03312e-20)
(2.08553 -2.78241 7.69872e-20)
(2.06102 -2.71897 -8.45082e-20)
(2.03559 -2.65644 -6.91346e-21)
(2.00944 -2.59496 6.88206e-21)
(1.98277 -2.53469 1.87207e-20)
(1.95578 -2.47576 -1.05356e-19)
(1.92866 -2.41829 -3.20254e-21)
(1.9016 -2.36239 -5.88714e-20)
(1.87477 -2.30812 -1.37978e-20)
(1.84833 -2.2555 -3.61137e-20)
(1.82238 -2.20451 -3.94519e-20)
(1.79697 -2.15506 -4.11003e-20)
(1.77231 -2.10689 6.78905e-20)
(1.74879 -2.05946 1.82175e-20)
(1.72491 -2.0133 -3.3933e-20)
(2.73222 -4.02839 -1.89681e-19)
(2.59545 -3.87705 6.76692e-20)
(2.5184 -3.73803 -1.15602e-19)
(2.46463 -3.62092 1.73015e-20)
(2.42335 -3.5219 1.88392e-19)
(2.39177 -3.43455 -9.5498e-20)
(2.36653 -3.355 -1.00354e-19)
(2.34491 -3.2807 -8.55322e-20)
(2.32503 -3.20982 4.09975e-21)
(2.30562 -3.14111 5.49497e-20)
(2.2858 -3.07376 -4.00252e-20)
(2.26505 -3.00729 1.75279e-21)
(2.24308 -2.94146 9.0495e-20)
(2.21976 -2.87617 5.6496e-20)
(2.19511 -2.81144 1.6323e-20)
(2.16922 -2.74736 -5.05888e-20)
(2.14226 -2.68406 1.92477e-20)
(2.11441 -2.62169 4.19038e-20)
(2.08586 -2.5604 4.72042e-20)
(2.05685 -2.50036 -5.17559e-20)
(2.02758 -2.4417 7.66271e-21)
(1.99826 -2.38458 4.43406e-20)
(1.96908 -2.32908 7.69337e-20)
(1.94023 -2.27529 2.02843e-20)
(1.91186 -2.22325 -7.92741e-20)
(1.88411 -2.17295 9.22873e-20)
(1.85703 -2.12431 -4.62077e-20)
(1.83084 -2.07706 -5.52017e-20)
(1.80598 -2.0306 -3.39055e-20)
(1.78087 -1.98552 -4.37362e-20)
(2.83851 -3.95831 1.00657e-19)
(2.70128 -3.81527 -7.78554e-20)
(2.62361 -3.68219 2.98312e-20)
(2.56922 -3.56964 1.57211e-19)
(2.52722 -3.47415 4.27283e-20)
(2.49471 -3.38948 -3.66894e-20)
(2.46829 -3.31194 8.86462e-20)
(2.44524 -3.23913 2.06379e-20)
(2.42369 -3.16932 8.36902e-20)
(2.40239 -3.10139 4.61191e-20)
(2.38051 -3.03459 1.95056e-21)
(2.35755 -2.96853 2.90583e-20)
(2.33325 -2.90299 -9.22071e-21)
(2.30752 -2.83793 -8.19401e-20)
(2.28042 -2.77341 -1.17265e-20)
(2.25206 -2.70953 -2.44729e-20)
(2.22262 -2.64643 6.0383e-20)
(2.19231 -2.58429 6.13804e-20)
(2.16136 -2.52326 -7.00041e-20)
(2.12999 -2.46352 7.17759e-20)
(2.09843 -2.40521 1.52616e-19)
(2.06689 -2.34848 -9.86042e-20)
(2.03557 -2.29344 9.91126e-20)
(2.00468 -2.24018 -6.94903e-20)
(1.97437 -2.18877 -9.842e-21)
(1.94479 -2.1392 7.46209e-20)
(1.91602 -2.09144 -1.51126e-20)
(1.88829 -2.04519 5.6105e-20)
(1.86209 -1.99983 5.57909e-20)
(1.83579 -1.95596 -1.04787e-19)
(2.94304 -3.88545 -9.72347e-20)
(2.80575 -3.75071 4.41534e-20)
(2.72776 -3.62351 1.82811e-20)
(2.67291 -3.51544 -1.83797e-19)
(2.6303 -3.42343 -9.53408e-20)
(2.59691 -3.34139 7.15246e-20)
(2.56933 -3.26582 -1.99106e-19)
(2.54485 -3.19446 2.40398e-19)
(2.52162 -3.12574 -1.35185e-19)
(2.49842 -3.05859 1.61341e-20)
(2.47444 -2.99238 -2.554e-20)
(2.44923 -2.92676 -7.72624e-20)
(2.42256 -2.86157 1.59543e-19)
(2.3944 -2.79681 6.03174e-20)
(2.3648 -2.73255 7.77348e-20)
(2.33394 -2.66894 1.66938e-21)
(2.30201 -2.60612 3.47132e-20)
(2.26923 -2.54428 -7.54335e-20)
(2.23586 -2.48359 1.59096e-20)
(2.20212 -2.42421 5.20428e-20)
(2.16826 -2.3663 -2.17813e-20)
(2.13449 -2.31001 3.59363e-20)
(2.10103 -2.25547 -7.08388e-20)
(2.06807 -2.20278 1.02323e-19)
(2.03581 -2.15202 2.39022e-20)
(2.00437 -2.10323 -6.48668e-20)
(1.97388 -2.05638 -5.61909e-20)
(1.94458 -2.01121 8.83379e-23)
(1.91702 -1.96704 7.74231e-20)
(1.88955 -1.92454 -1.77262e-20)
(3.04575 -3.80987 -2.68169e-20)
(2.90884 -3.68339 -1.8464e-19)
(2.83078 -3.56199 2.20038e-19)
(2.77564 -3.45831 1.48895e-19)
(2.7325 -3.3697 1.48772e-19)
(2.69827 -3.29024 4.14823e-20)
(2.66956 -3.21661 6.22858e-20)
(2.64364 -3.14671 3.16595e-20)
(2.61871 -3.07907 -1.26163e-19)
(2.59357 -3.01273 2.30572e-19)
(2.56746 -2.94714 -1.85851e-19)
(2.53997 -2.882 -1.23963e-20)
(2.5109 -2.81721 2.70531e-20)
(2.48027 -2.75281 -1.20046e-19)
(2.44816 -2.68889 1.89014e-19)
(2.41477 -2.62562 3.60118e-20)
(2.38033 -2.56315 -8.05108e-20)
(2.34508 -2.50168 3.10321e-20)
(2.30928 -2.44139 -5.98234e-20)
(2.27317 -2.38245 -5.28553e-20)
(2.23701 -2.325 -5.6468e-20)
(2.20102 -2.26921 1.28402e-20)
(2.16541 -2.2152 7.31632e-21)
(2.13039 -2.1631 -1.38303e-19)
(2.09614 -2.113 -5.26185e-20)
(2.06282 -2.06497 3.38803e-20)
(2.03055 -2.01904 4.20779e-20)
(1.99963 -1.97499 -5.80941e-20)
(1.97068 -1.9321 -2.21799e-20)
(1.94204 -1.8911 2.08058e-21)
(3.14664 -3.73158 -2.32455e-20)
(3.01053 -3.61333 1.19552e-19)
(2.93265 -3.49763 -3.39871e-20)
(2.87733 -3.39824 -4.16146e-20)
(2.83371 -3.31295 -2.30711e-19)
(2.79869 -3.23603 -5.0805e-20)
(2.76884 -3.16432 9.61398e-20)
(2.74149 -3.09586 -6.37399e-20)
(2.71484 -3.02931 -6.88744e-21)
(2.68774 -2.96381 -1.27163e-20)
(2.65947 -2.89887 7.03909e-20)
(2.62966 -2.83426 -1.10831e-19)
(2.59817 -2.76994 -7.40921e-20)
(2.56503 -2.70596 8.69231e-20)
(2.53039 -2.64246 -4.95209e-20)
(2.49447 -2.5796 2.34965e-20)
(2.4575 -2.51756 4.74364e-21)
(2.41977 -2.45655 -2.01577e-20)
(2.38154 -2.39673 7.4921e-20)
(2.34308 -2.33829 -6.85067e-20)
(2.30464 -2.28137 -5.52786e-20)
(2.26644 -2.22612 4.82288e-20)
(2.2287 -2.17267 -5.43206e-21)
(2.19162 -2.12116 -3.59266e-20)
(2.15539 -2.0717 3.17085e-20)
(2.12016 -2.02439 -9.86412e-20)
(2.08607 -1.97933 6.01826e-20)
(2.05345 -1.93637 -9.66821e-22)
(2.02303 -1.8948 -6.28032e-20)
(1.99322 -1.85537 8.9189e-20)
(3.24579 -3.65066 9.44605e-20)
(3.11086 -3.54056 -2.34393e-19)
(3.0333 -3.43039 -1.96595e-20)
(2.97788 -3.33518 1.09122e-19)
(2.93383 -3.25316 -2.79803e-20)
(2.89803 -3.17874 -7.95444e-20)
(2.86707 -3.10893 3.68087e-20)
(2.83828 -3.04192 4.27344e-20)
(2.80989 -2.97648 3.52401e-21)
(2.7808 -2.91184 5.24578e-20)
(2.75035 -2.8476 1.67798e-19)
(2.71819 -2.78358 -5.88851e-20)
(2.68425 -2.71978 1.50799e-20)
(2.64859 -2.6563 -3.96375e-20)
(2.6114 -2.59328 1.51376e-19)
(2.57292 -2.53092 -2.72858e-20)
(2.53343 -2.4694 4.08339e-20)
(2.49322 -2.40892 -6.85377e-20)
(2.45259 -2.34966 3.73862e-20)
(2.41179 -2.29178 5.6527e-20)
(2.37109 -2.23545 9.65711e-21)
(2.33071 -2.18079 3.79278e-20)
(2.29088 -2.12794 -3.13259e-20)
(2.25178 -2.07702 8.72268e-20)
(2.21359 -2.02816 -3.56228e-20)
(2.17645 -1.98148 1.30426e-19)
(2.14051 -1.93717 -3.76714e-20)
(2.10609 -1.89515 2.59471e-20)
(2.07412 -1.85478 -4.90176e-20)
(2.04314 -1.81696 8.65224e-20)
(3.34358 -3.56725 -2.07933e-19)
(3.20996 -3.46503 7.63832e-21)
(3.13268 -3.36019 -1.20186e-19)
(3.07715 -3.26909 2.1714e-20)
(3.03271 -3.1903 6.19147e-21)
(2.99617 -3.11837 -1.05352e-19)
(2.96411 -3.05046 -1.98217e-19)
(2.93387 -2.9849 9.87174e-20)
(2.90374 -2.92059 -1.39928e-19)
(2.87264 -2.85685 -7.3692e-20)
(2.83997 -2.79335 -4.19674e-20)
(2.80544 -2.72997 -3.3324e-20)
(2.76902 -2.66677 7.35762e-22)
(2.73082 -2.60385 -1.19487e-19)
(2.69106 -2.54141 7.80084e-20)
(2.65003 -2.47963 -1.28336e-19)
(2.60802 -2.41871 -3.25423e-20)
(2.56536 -2.35885 3.71807e-20)
(2.52233 -2.30023 -1.47366e-20)
(2.47923 -2.24301 4.39827e-20)
(2.43631 -2.18733 3.37299e-20)
(2.39381 -2.13332 -8.45243e-20)
(2.35194 -2.08111 8.50479e-20)
(2.31089 -2.03079 -9.10446e-21)
(2.2708 -1.98248 -2.27905e-20)
(2.23181 -1.93631 -9.03288e-20)
(2.19399 -1.89248 -4.79066e-20)
(2.15767 -1.85097 8.8581e-20)
(2.12381 -1.81129 -2.91167e-20)
(2.0914 -1.77516 -2.80614e-20)
(3.44046 -3.48101 9.05112e-20)
(3.30785 -3.38632 8.30124e-21)
(3.23061 -3.28684 -2.34155e-20)
(3.17497 -3.19992 -5.14514e-21)
(3.1302 -3.12439 -4.2116e-20)
(3.09298 -3.05495 1.4249e-19)
(3.05984 -2.98893 -6.69166e-20)
(3.02817 -2.92484 4.38263e-20)
(2.99627 -2.86167 1.81001e-20)
(2.96314 -2.79886 6.5089e-20)
(2.92823 -2.73615 -2.50828e-20)
(2.8913 -2.67349 1.41776e-19)
(2.85238 -2.61095 -1.21669e-20)
(2.81163 -2.54868 9.16147e-20)
(2.7693 -2.48689 -1.53794e-19)
(2.72571 -2.42578 -1.15839e-20)
(2.68119 -2.36556 9.91023e-20)
(2.63608 -2.30641 -6.15696e-20)
(2.59069 -2.24853 2.53396e-20)
(2.54532 -2.19205 4.33224e-20)
(2.50024 -2.13712 -6.35178e-20)
(2.4557 -2.08385 6.98019e-20)
(2.41189 -2.03233 -6.55459e-20)
(2.36901 -1.98266 1.42814e-20)
(2.32721 -1.93491 5.29082e-20)
(2.28659 -1.88915 3.66365e-20)
(2.2472 -1.84546 3.46122e-20)
(2.20914 -1.80373 2.54745e-20)
(2.1729 -1.76389 -6.88205e-20)
(2.138 -1.72893 -2.76121e-20)
(5.003 -0.0293125 1.23956e-21)
(4.99643 -0.160947 1.22264e-20)
(4.98677 -0.291668 4.24924e-20)
(4.97399 -0.421758 2.32498e-20)
(4.95788 -0.551278 -4.92825e-20)
(4.93837 -0.680195 1.49155e-20)
(4.91546 -0.808444 -1.56307e-20)
(4.88919 -0.935948 -3.95353e-20)
(4.85956 -1.06262 2.0676e-20)
(4.82662 -1.18838 -2.41251e-20)
(4.79038 -1.31313 -2.42667e-20)
(4.75089 -1.4368 -5.1572e-20)
(4.70819 -1.55929 -1.48293e-19)
(4.66231 -1.68053 1.36491e-20)
(4.6133 -1.80043 -6.54275e-21)
(4.56119 -1.91892 -4.67384e-20)
(4.50604 -2.03591 9.97818e-20)
(4.44789 -2.15133 5.43341e-20)
(4.38679 -2.26511 1.04049e-19)
(4.32279 -2.37717 5.09233e-20)
(4.25595 -2.48745 -1.14339e-19)
(4.18631 -2.59586 4.55539e-21)
(4.11393 -2.70235 -2.16944e-19)
(4.03886 -2.80686 3.29478e-19)
(3.96118 -2.90931 -1.08163e-19)
(3.88094 -3.00966 -1.40282e-19)
(3.7982 -3.10785 -2.02616e-20)
(3.71303 -3.20387 -1.80929e-21)
(3.62554 -3.29778 -1.06969e-19)
(3.53567 -3.38996 1.89295e-19)