/*--------------------------------*- C++ -*----------------------------------*\
| =========                 |                                                 |
| \\      /  F ield         | OpenFOAM: The Open Source CFD Toolbox           |
|  \\    /   O peration     | Version:  v1912                                 |
|   \\  /    A nd           | Website:  www.openfoam.com                      |
|    \\/     M anipulation  |                                                 |
\*---------------------------------------------------------------------------*/
FoamFile
{
    version     2.0;
    format      ascii;
    class       surfaceScalarField;
    location    "12.5";
    object      phi;
}
// * * * * * * * * * * * * * * * * * * * * * * * * * * * * * * * * * * * * * //

dimensions      [0 3 -1 0 0 0 0];
oriented        oriented;


internalField   nonuniform List<scalar> 
18940
(
0.000277907
-0.235701
0.235423
0.00109416
-0.218559
0.217743
0.00230794
-0.206946
0.205733
0.00377602
-0.198581
0.197113
0.00539244
-0.19201
0.190394
0.00707437
-0.186323
0.184641
0.0087618
-0.181019
0.179332
0.0104147
-0.175847
0.174194
0.0120091
-0.170702
0.169107
0.0135329
-0.165559
0.164035
0.0149823
-0.160436
0.158987
0.0163598
-0.155367
0.15399
0.0176713
-0.150392
0.14908
0.018925
-0.145544
0.144291
0.0201303
-0.140851
0.139646
0.0212973
-0.136331
0.135164
0.0224356
-0.131987
0.130849
0.0235541
-0.127814
0.126695
0.0246595
-0.123789
0.122684
-0.119878
0.118782
0.0257552
0.000299784
-0.236
0.00113549
-0.219395
0.0023597
-0.208171
0.00383512
-0.200057
0.00545174
-0.193627
0.00712655
-0.187998
0.00880044
-0.182693
0.0104346
-0.177481
0.0120064
-0.172274
0.0135049
-0.167058
0.0149279
-0.161859
0.0162784
-0.156718
0.0175633
-0.151677
0.0187914
-0.146772
0.0199723
-0.142032
0.0211164
-0.137475
0.0222338
-0.133104
0.0233336
-0.128914
0.0244232
-0.124879
-0.120961
0.0255066
0.000320053
-0.23632
0.00117155
-0.220246
0.00240559
-0.209405
0.00388541
-0.201536
0.00549946
-0.195241
0.00716434
-0.189663
0.00882179
-0.184351
0.0104344
-0.179094
0.0119808
-0.17382
0.0134517
-0.168529
0.0148459
-0.163253
0.0161676
-0.15804
0.0174242
-0.152933
0.0186249
-0.147973
0.0197799
-0.143187
0.0208997
-0.138595
0.0219947
-0.134199
0.0230745
-0.129993
0.0241468
-0.125951
-0.122031
0.0252167
0.000332945
-0.236653
0.00119943
-0.221113
0.00244351
-0.210649
0.00392608
-0.203019
0.00553502
-0.19685
0.00718716
-0.191315
0.00882534
-0.185989
0.0104136
-0.180682
0.0119321
-0.175339
0.0133731
-0.169969
0.0147364
-0.164616
0.0160274
-0.159331
0.0172539
-0.15416
0.0184259
-0.149145
0.0195536
-0.144315
0.0206479
-0.139689
0.0217192
-0.135271
0.0227777
-0.131052
0.0238317
-0.127005
-0.123087
0.0248871
0.000343484
-0.236997
0.00122275
-0.221992
0.00247476
-0.211901
0.00395764
-0.204502
0.00555868
-0.198451
0.00719521
-0.192952
0.00881127
-0.187605
0.0103724
-0.182243
0.0118606
-0.176827
0.0132693
-0.171378
0.0145998
-0.165947
0.0158582
-0.160589
0.0170532
-0.155355
0.0181949
-0.150287
0.019294
-0.145414
0.0203614
-0.140756
0.0214079
-0.136317
0.022444
-0.132088
0.0234786
-0.12804
-0.124127
0.0245187
0.00035209
-0.237349
0.00124189
-0.222882
0.00249954
-0.213158
0.0039802
-0.205983
0.00557055
-0.200041
0.00718858
-0.19457
0.0087797
-0.189196
0.0103112
-0.183775
0.0117665
-0.178282
0.0131408
-0.172752
0.0144364
-0.167243
0.0156605
-0.161813
0.0168223
-0.156517
0.0179324
-0.151397
0.0190015
-0.146483
0.0200408
-0.141795
0.0210612
-0.137338
0.0220737
-0.1331
0.0230879
-0.129054
-0.125151
0.0241117
0.000359346
-0.237708
0.00125753
-0.22378
0.00251836
-0.214419
0.00399411
-0.207458
0.00557091
-0.201618
0.00716756
-0.196166
0.00873096
-0.190759
0.0102301
-0.185274
0.0116502
-0.179702
0.0129878
-0.17409
0.0142467
-0.168502
0.0154346
-0.163001
0.0165617
-0.157644
0.0176386
-0.152474
0.0186764
-0.147521
0.0196862
-0.142805
0.0206793
-0.138331
0.0216667
-0.134088
0.0226593
-0.130047
-0.126157
0.0236658
0.000365407
-0.238074
0.00126998
-0.224684
0.00253156
-0.215681
0.0039997
-0.208926
0.00556011
-0.203178
0.00713254
-0.197739
0.00866546
-0.192292
0.0101297
-0.186738
0.0115122
-0.181085
0.012811
-0.175389
0.014031
-0.169722
0.0151811
-0.164151
0.0162717
-0.158734
0.017314
-0.153516
0.0183189
-0.148526
0.0192977
-0.143784
0.0202618
-0.139295
0.0212228
-0.135049
0.0221921
-0.131016
-0.127145
0.02318
0.000370373
-0.238444
0.00127947
-0.225593
0.00253947
-0.216941
0.00399736
-0.210384
0.00553859
-0.204719
0.00708401
-0.199284
0.00858377
-0.193792
0.0100105
-0.188165
0.0113531
-0.182427
0.0126109
-0.176647
0.0137902
-0.170901
0.0149005
-0.165261
0.0159529
-0.159787
0.0169587
-0.154522
0.0179291
-0.149497
0.0188751
-0.14473
0.0198084
-0.140228
0.020741
-0.135981
0.0216852
-0.13196
-0.128113
0.0226528
0.000374309
-0.238818
0.00128624
-0.226505
0.00254248
-0.218197
0.00398757
-0.211829
0.00550692
-0.206239
0.00702262
-0.2008
0.00848663
-0.195256
0.0098735
-0.189552
0.0111738
-0.183728
0.0123885
-0.177861
0.0135249
-0.172037
0.0145934
-0.16633
0.0156056
-0.160799
0.0165731
-0.155489
0.0175069
-0.15043
0.0184181
-0.145641
0.0193183
-0.141128
0.02022
-0.136883
0.0211367
-0.132877
-0.129058
0.0220817
0.000377308
-0.239196
0.00129059
-0.227419
0.00254104
-0.219448
0.00397089
-0.213259
0.00546577
-0.207734
0.00694917
-0.202283
0.00837492
-0.196682
0.00971954
-0.190896
0.0109753
-0.184983
0.0121447
-0.179031
0.0132361
-0.173129
0.0142608
-0.167355
0.0152307
-0.161769
0.0161576
-0.156416
0.0170525
-0.151325
0.0179264
-0.146515
0.0187907
-0.141993
0.0196585
-0.137751
0.0205445
-0.133763
-0.129977
0.0214637
0.000379508
-0.239575
0.0012929
-0.228332
0.00253571
-0.22069
0.00394804
-0.214672
0.00541599
-0.209202
0.00686464
-0.203732
0.00824979
-0.198067
0.00954988
-0.192196
0.010759
-0.186192
0.0118809
-0.180153
0.0129253
-0.174173
0.0139039
-0.168333
0.0148292
-0.162694
0.015713
-0.1573
0.0165663
-0.152179
0.0173998
-0.147349
0.0182249
-0.142818
0.0190549
-0.138581
0.019906
-0.134614
-0.130866
0.0207955
0.000381167
-0.239956
0.00129371
-0.229245
0.00252721
-0.221924
0.00391988
-0.216064
0.00535859
-0.21064
0.00677021
-0.205144
0.00811256
-0.199409
0.00936605
-0.19345
0.0105264
-0.187353
0.0115989
-0.181225
0.012594
-0.175168
0.0135243
-0.169263
0.0144024
-0.163572
0.0152404
-0.158138
0.016049
-0.152987
0.0168386
-0.148138
0.0176203
-0.143599
0.0184078
-0.139368
0.0192186
-0.135425
-0.131721
0.020073
0.000382741
-0.240339
0.00129381
-0.230156
0.00251644
-0.223147
0.00388741
-0.217435
0.00529474
-0.212048
0.00666725
-0.206516
0.00796484
-0.200707
0.00916986
-0.194655
0.0102797
-0.188463
0.0113008
-0.182246
0.0122447
-0.176112
0.0131242
-0.170143
0.0139525
-0.164401
0.0147415
-0.158927
0.0155017
-0.153747
0.016243
-0.14888
0.0169763
-0.144333
0.0177152
-0.140107
0.0184787
-0.136188
-0.132532
0.0192901
0.000385003
-0.240724
0.00129428
-0.231065
0.00250447
-0.224357
0.00385176
-0.218783
0.00522575
-0.213422
0.0065573
-0.207848
0.00780843
-0.201958
0.00896342
-0.19581
0.0100212
-0.18952
0.0109895
-0.183215
0.0118802
-0.177003
0.012707
-0.17097
0.0134828
-0.165177
0.0142194
-0.159663
0.0149269
-0.154455
0.0156148
-0.149567
0.016293
-0.145011
0.016975
-0.140789
0.0176809
-0.136894
-0.133291
0.0184394
0.000389068
-0.241113
0.00129635
-0.231972
0.00249234
-0.225553
0.00381408
-0.220104
0.00515297
-0.214761
0.00644202
-0.209137
0.00764536
-0.203161
0.00874916
-0.196914
0.00975385
-0.190525
0.0106681
-0.184129
0.0115046
-0.177839
0.0122769
-0.171742
0.012998
-0.165898
0.0136792
-0.160345
0.01433
-0.155106
0.0149588
-0.150196
0.0155745
-0.145626
0.0161895
-0.141404
0.0168252
-0.13753
-0.133984
0.0175186
0.000396291
-0.241509
0.00130123
-0.232877
0.00248121
-0.226733
0.00377566
-0.221399
0.00507796
-0.216063
0.00632321
-0.210382
0.00747776
-0.204316
0.00852965
-0.197966
0.00948073
-0.191476
0.0103405
-0.184989
0.0111221
-0.178621
0.011839
-0.172459
0.0125039
-0.166563
0.0131274
-0.160968
0.0137183
-0.155697
0.0142837
-0.150762
0.0148308
-0.146173
0.0153701
-0.141944
0.0159234
-0.138083
-0.134591
0.0165304
0.000408987
-0.241918
0.00131147
-0.23378
0.00247339
-0.227895
0.0037384
-0.222664
0.00500233
-0.217327
0.00620256
-0.211582
0.00730767
-0.205421
0.00830752
-0.198966
0.00920522
-0.192374
0.010011
-0.185795
0.010738
-0.179348
0.0113995
-0.17312
0.0120072
-0.16717
0.0125708
-0.161532
0.013098
-0.156224
0.0135946
-0.151258
0.0140664
-0.146645
0.0145202
-0.142397
0.0149713
-0.138534
-0.13507
0.0154505
0.000434768
-0.242353
0.00133432
-0.234679
0.00247287
-0.229033
0.00370396
-0.223895
0.00492702
-0.21855
0.00608113
-0.212736
0.00713664
-0.206477
0.00808508
-0.199914
0.00893074
-0.19322
0.0096844
-0.186548
0.0103591
-0.180022
0.0109672
-0.173728
0.011519
-0.167722
0.0120221
-0.162035
0.0124809
-0.156683
0.0128981
-0.151675
0.0132744
-0.147022
0.0136082
-0.142731
0.0139055
-0.138832
-0.135397
0.014232
0.000493639
-0.242847
0.00137859
-0.235564
0.0024791
-0.230134
0.00367082
-0.225087
0.00485119
-0.21973
0.0059589
-0.213844
0.00696549
-0.207483
0.00786405
-0.200813
0.00866012
-0.194016
0.00936522
-0.187253
0.00999246
-0.18065
0.0105537
-0.17429
0.0110579
-0.168226
0.0115096
-0.162487
0.0119087
-0.157082
0.0122486
-0.152015
0.012514
-0.147287
0.0126799
-0.142897
0.0127353
-0.138887
-0.135534
0.0128729
0.24948
0.000371068
-0.249851
0.249136
0.000343588
0.248801
0.000334978
0.248467
0.000334028
0.248131
0.000336132
0.247792
0.000339615
0.247448
0.000343791
0.2471
0.000348098
0.246748
0.000352142
0.246392
0.000355712
0.246033
0.0003587
0.245672
0.000361073
0.245309
0.000362803
0.244945
0.000363857
0.244581
0.000364097
0.244218
0.000363303
0.243858
0.000360413
0.243503
0.000354858
0.243165
0.000337454
0.000318567
0.249304
0.000904868
-0.249838
0.248739
0.000908415
0.24815
0.000924415
0.247537
0.000946714
0.246902
0.000970827
0.246247
0.000994929
0.245572
0.00101858
0.244879
0.00104129
0.244169
0.0010626
0.243442
0.00108225
0.242701
0.00110008
0.241946
0.00111605
0.241178
0.0011301
0.2404
0.00114222
0.239612
0.00115221
0.238815
0.00115983
0.238012
0.00116395
0.237202
0.00116424
0.236386
0.00115421
0.00114016
0.246479
0.00140226
-0.246977
0.245922
0.00146577
0.245317
0.00152931
0.244669
0.00159429
0.243982
0.00165857
0.243256
0.00172047
0.242495
0.00177964
0.241701
0.00183584
0.240874
0.0018888
0.240018
0.0019383
0.239134
0.00198425
0.238224
0.00202662
0.237288
0.00206545
0.23633
0.00210077
0.235349
0.00213254
0.234348
0.00216071
0.233328
0.00218471
0.232287
0.0022047
0.231223
0.00221828
0.00222966
0.24129
0.00179073
-0.241679
0.240839
0.0019172
0.240329
0.00203885
0.239766
0.00215755
0.239152
0.00227298
0.238488
0.00238393
0.237778
0.00249003
0.237023
0.00259109
0.236225
0.0026869
0.235386
0.00277731
0.234508
0.00286228
0.233592
0.00294185
0.232642
0.00301614
0.231657
0.00308531
0.23064
0.00314954
0.229592
0.00320909
0.228512
0.00326395
0.227403
0.00331467
0.22626
0.00336053
0.00340336
0.234364
0.00203864
-0.234611
0.234052
0.00222902
0.233678
0.00241251
0.233245
0.00259028
0.232756
0.00276262
0.232211
0.00292872
0.231613
0.00308819
0.230963
0.00324079
0.230264
0.00338631
0.229516
0.00352464
0.228723
0.00365575
0.227885
0.00377973
0.227004
0.00389677
0.226082
0.00400722
0.22512
0.00411146
0.22412
0.00421004
0.22308
0.00430341
0.222002
0.00439239
0.220886
0.00447709
0.00455897
0.22636
0.00215222
-0.226474
0.226184
0.00240584
0.225945
0.00265151
0.225645
0.00288975
0.225287
0.00312087
0.224871
0.00334428
0.2244
0.00355959
0.223874
0.00376648
0.223296
0.00396472
0.222666
0.00415419
0.221987
0.00433486
0.22126
0.00450685
0.220486
0.00467044
0.219667
0.00482608
0.218805
0.00497439
0.217898
0.0051162
0.216949
0.00525235
0.215958
0.00538404
0.214923
0.005512
0.00563784
0.21787
0.00215666
-0.217874
0.217804
0.00247141
0.217678
0.00277751
0.217493
0.00307508
0.21725
0.00336423
0.216949
0.00364445
0.216594
0.00391532
0.216184
0.00417648
0.215721
0.00442764
0.215206
0.00466863
0.214642
0.00489941
0.214028
0.00512011
0.213368
0.00533107
0.212661
0.00553285
0.211909
0.00572629
0.211113
0.00591248
0.210273
0.00609271
0.209388
0.0062686
0.208459
0.00644148
0.00661324
0.209335
0.00208226
-0.209261
0.209351
0.00245519
0.20931
0.00281893
0.209212
0.00317331
0.209058
0.00351825
0.208849
0.00385324
0.208586
0.0041778
0.208271
0.00449149
0.207905
0.00479398
0.207488
0.00508502
0.207023
0.00536454
0.206511
0.00563265
0.205952
0.00588972
0.205349
0.00613641
0.204701
0.00637374
0.204011
0.00660312
0.203277
0.0068263
0.2025
0.00704541
0.201679
0.00726247
0.00747985
0.201049
0.00195717
-0.200924
0.201119
0.00238512
0.201135
0.00280336
0.201097
0.00321155
0.201005
0.00360944
0.200862
0.00399646
0.200668
0.00437206
0.200424
0.00473573
0.200131
0.00508703
0.19979
0.00542566
0.199403
0.00575146
0.198971
0.00606449
0.198496
0.00636512
0.197978
0.00665408
0.197419
0.00693256
0.19682
0.00720227
0.196181
0.00746547
0.195501
0.00772494
0.19478
0.00798362
0.00824459
0.193184
0.00180452
-0.193031
0.193285
0.00228447
0.193334
0.00275421
0.193332
0.00321324
0.19328
0.00366119
0.193179
0.00409738
0.19303
0.00452119
0.192834
0.00493202
0.192592
0.00532933
0.192305
0.0057127
0.191974
0.00608187
0.191602
0.00643682
0.191189
0.00677785
0.190738
0.00710569
0.190248
0.00742168
0.189723
0.00772778
0.189161
0.00802688
0.188564
0.00832249
0.187929
0.0086188
0.00891999
0.185821
0.00164164
-0.185658
0.185935
0.00217097
0.185999
0.00268957
0.186016
0.00319681
0.185985
0.00369216
0.185907
0.00417489
0.185784
0.00464427
0.185617
0.00509959
0.185406
0.00554019
0.185153
0.00596551
0.18486
0.00637516
0.184527
0.00676895
0.184158
0.00714708
0.183754
0.00751017
0.183316
0.00785963
0.182846
0.0081976
0.182345
0.00852766
0.181814
0.0088541
0.181249
0.00918295
0.00951985
0.178983
0.00148058
-0.178822
0.179097
0.00205716
0.179164
0.00262247
0.179185
0.00317571
0.179161
0.00371626
0.179093
0.00424328
0.178981
0.00475594
0.178827
0.00525341
0.178633
0.0057349
0.178398
0.00619969
0.178126
0.00664719
0.177818
0.00707701
0.177476
0.00748911
0.177103
0.0078839
0.176699
0.00826275
0.176269
0.00862777
0.175814
0.00898336
0.175333
0.00933439
0.174826
0.00968971
0.0100566
0.172656
0.00132914
-0.172505
0.172762
0.00195137
0.172823
0.00256167
0.172839
0.00315917
0.172812
0.00374312
0.172743
0.00431261
0.172632
0.00486669
0.172481
0.0054044
0.172291
0.0059248
0.172064
0.00642699
0.171801
0.00691014
0.171504
0.00737357
0.171177
0.00781693
0.17082
0.0082402
0.170439
0.00864459
0.170035
0.00903178
0.169611
0.00940712
0.16917
0.00977546
0.168709
0.0101502
0.0105396
0.166805
0.00119202
-0.166668
0.166898
0.00185865
0.166947
0.00251262
0.166953
0.00315302
0.166917
0.003779
0.16684
0.00438953
0.166723
0.00498356
0.166568
0.00556001
0.166375
0.00611776
0.166146
0.00665572
0.165883
0.00717278
0.165589
0.00766789
0.165266
0.00814028
0.164917
0.00858932
0.164545
0.00901578
0.164157
0.00942038
0.163754
0.00980952
0.163343
0.0101866
0.162921
0.0105725
0.010974
0.161387
0.00107172
-0.161266
0.161463
0.00178178
0.161498
0.00247837
0.16149
0.00316062
0.161442
0.00382752
0.161353
0.00447797
0.161226
0.0051108
0.161061
0.00572481
0.16086
0.00631872
0.160625
0.00689119
0.160357
0.00744085
0.160058
0.00796621
0.159733
0.00846595
0.159383
0.00893863
0.159015
0.00938429
0.158633
0.00980188
0.158244
0.0101988
0.157856
0.0105742
0.157467
0.0109619
0.011359
0.156354
0.000969279
-0.156251
0.156414
0.00172183
0.156432
0.00246021
0.156409
0.0031834
0.156346
0.00389032
0.156245
0.00457975
0.156105
0.00525044
0.155929
0.00590105
0.155717
0.00653015
0.155472
0.00713618
0.155196
0.00771745
0.15489
0.00827204
0.154558
0.008798
0.154204
0.00929284
0.153832
0.00975552
0.153452
0.0101823
0.153069
0.0105815
0.152701
0.0109431
0.152341
0.0113213
0.0116848
0.151662
0.000884624
-0.151577
0.151705
0.00167861
0.151707
0.00245802
0.151669
0.00322136
0.151592
0.00396745
0.151477
0.00469498
0.151325
0.00540263
0.151137
0.00608894
0.150915
0.00675234
0.15066
0.00739108
0.150374
0.00800316
0.15006
0.00858624
0.14972
0.0091377
0.149359
0.00965391
0.148982
0.0101323
0.148599
0.0105655
0.148219
0.0109618
0.147866
0.011296
0.147532
0.0116549
0.0119303
0.14727
0.000815383
-0.1472
0.147297
0.00165096
0.147285
0.00247049
0.147233
0.00327306
0.147143
0.00405735
0.147016
0.00482197
0.146853
0.00556554
0.146656
0.00628652
0.146425
0.0069832
0.146162
0.00765368
0.14587
0.00829573
0.145549
0.00890661
0.145204
0.0094831
0.144837
0.0100204
0.144455
0.0105143
0.144068
0.0109526
0.143688
0.011342
0.143351
0.0116326
0.143039
0.0119672
0.0120722
0.143139
0.000760882
-0.143085
0.143154
0.00163645
0.143129
0.0024949
0.143067
0.00333542
0.142968
0.00415654
0.142833
0.00495683
0.142664
0.00573485
0.142461
0.00648903
0.142227
0.00721756
0.141962
0.00791841
0.141669
0.00858918
0.141348
0.00922687
0.141004
0.00982783
0.140638
0.0103863
0.140255
0.0108966
0.139867
0.0113411
0.139485
0.011724
0.139166
0.0119521
0.13889
0.0122431
0.0120747
0.139236
-0.139194
0.00071902
0.139241
0.00163158
0.139208
0.00252731
0.13914
0.00340383
0.139037
0.0042597
0.1389
0.00509349
0.138731
0.00590378
0.138531
0.00668892
0.138302
0.00744708
0.138044
0.00817613
0.13776
0.00887362
0.13745
0.00953639
0.137117
0.0101607
0.136764
0.01074
0.136392
0.0112683
0.13601
0.0117233
0.135624
0.0121093
0.135295
0.0122817
0.135054
0.012484
0.0115944
0.252577
7.08125e-05
-0.252647
0.252546
3.0615e-05
0.252522
2.38448e-05
0.252492
3.01042e-05
0.25245
4.21656e-05
0.252392
5.7607e-05
0.252317
7.51664e-05
0.252223
9.38012e-05
0.252111
0.000112703
0.251979
0.00013154
0.251829
0.000149878
0.251662
0.000167173
0.251479
0.000183404
0.25128
0.000198836
0.251066
0.000213933
0.250837
0.000228364
0.250597
0.000240095
0.250348
0.000248919
0.250099
0.000249238
0.000248129
0.252224
-0.000215451
-0.251938
0.252456
-0.000201493
0.252649
-0.000169569
0.252804
-0.000124525
0.252919
-7.2765e-05
0.252994
-1.71685e-05
0.253028
4.11245e-05
0.253021
0.000100925
0.252972
0.000161433
0.25288
0.00022302
0.252747
0.000283207
0.252573
0.000341296
0.252359
0.000397215
0.252108
0.00045012
0.251819
0.000502659
0.25149
0.000556963
0.251126
0.000604581
0.250728
0.000647144
0.250297
0.000680042
0.000707274
0.246466
-0.000807195
-0.245875
0.246991
-0.00072616
0.247457
-0.000635755
0.247868
-0.000535637
0.248225
-0.000429019
0.248526
-0.000318323
0.248772
-0.000204562
0.248962
-8.9383e-05
0.2491
2.37647e-05
0.249177
0.00014542
0.249199
0.000261554
0.249166
0.000373907
0.249078
0.000485153
0.248934
0.000594198
0.248736
0.00070106
0.248487
0.000805365
0.248188
0.000904245
0.247837
0.00099744
0.247434
0.00108329
0.00116471
0.237623
-0.00164032
-0.23679
0.238391
-0.00149436
0.239097
-0.00134171
0.239743
-0.00118132
0.240328
-0.00101441
0.240853
-0.000842859
0.241316
-0.000668002
0.241718
-0.000491148
0.242055
-0.000313197
0.242332
-0.00013148
0.242541
5.2187e-05
0.242693
0.000222498
0.24278
0.000397325
0.242805
0.000569176
0.242769
0.000737631
0.242672
0.00090222
0.242514
0.00106173
0.242296
0.00121547
0.242017
0.00136245
0.00150312
0.227374
-0.00264498
-0.226369
0.228318
-0.00243903
0.229203
-0.00222611
0.230027
-0.00200563
0.230791
-0.00177809
0.231493
-0.00154495
0.232133
-0.00130756
0.232708
-0.001067
0.233219
-0.000824277
0.233668
-0.000579855
0.234056
-0.000335728
0.234374
-9.61019e-05
0.234629
0.000142852
0.234819
0.0003789
0.234944
0.00061222
0.235006
0.000841002
0.235003
0.00106461
0.234936
0.00128229
0.234805
0.00149315
0.00169697
0.216795
-0.00375919
-0.21568
0.217854
-0.003498
0.218856
-0.00322828
0.2198
-0.00295005
0.220686
-0.00266375
0.221512
-0.00237069
0.222276
-0.0020723
0.222979
-0.0017699
0.22362
-0.00146485
0.224198
-0.00115834
0.224714
-0.000851669
0.225165
-0.000546479
0.225551
-0.000243451
0.225876
5.41899e-05
0.226136
0.000352108
0.226331
0.000645642
0.226462
0.000933232
0.22653
0.00121472
0.226534
0.0014894
0.00175682
0.206539
-0.00493385
-0.205365
0.207663
-0.00462138
0.208733
-0.00429831
0.209748
-0.00396516
0.210707
-0.0036226
0.211608
-0.00327205
0.212451
-0.00291514
0.213234
-0.00255346
0.213958
-0.00218853
0.214621
-0.00182172
0.215224
-0.00145424
0.215765
-0.00108763
0.216244
-0.000722786
0.216659
-0.00036046
0.21702
-8.53875e-06
0.217314
0.000351032
0.217547
0.000700621
0.217718
0.00104388
0.217827
0.00138035
0.00170945
0.196952
-0.00613337
-0.195752
0.198103
-0.00577277
0.199204
-0.00539928
0.200253
-0.0050137
0.201247
-0.00461715
0.202187
-0.00421136
0.20307
-0.00379826
0.203896
-0.00337966
0.204665
-0.00295727
0.205376
-0.00253262
0.206028
-0.00210708
0.206623
-0.00168205
0.207159
-0.00125863
0.207636
-0.000837867
0.208049
-0.000421077
0.208413
-1.36407e-05
0.208713
0.000400967
0.208954
0.000802497
0.209137
0.00119782
0.00158572
0.188168
-0.007334
-0.186968
0.189323
-0.00692779
0.19043
-0.00650609
0.191486
-0.00606996
0.19249
-0.0056211
0.193441
-0.00516178
0.194337
-0.00469428
0.195178
-0.00422073
0.195964
-0.00374303
0.196694
-0.00326286
0.197369
-0.00278171
0.197987
-0.00230091
0.19855
-0.00182166
0.199058
-0.00134496
0.199509
-0.000872118
0.199899
-0.000404297
0.200242
5.83745e-05
0.200525
0.000519556
0.200752
0.000970304
0.00141387
0.1802
-0.00852142
-0.179013
0.181344
-0.00807161
0.182441
-0.00760329
0.183489
-0.00711772
0.184485
-0.00661754
0.185429
-0.00610575
0.18632
-0.0055851
0.187157
-0.00505803
0.187941
-0.00452669
0.188671
-0.00399288
0.189347
-0.00345814
0.18997
-0.00292379
0.19054
-0.00239102
0.191055
-0.00186084
0.191518
-0.00133433
0.191926
-0.000812439
0.19228
-0.000296119
0.192584
0.000215382
0.192834
0.000720571
0.00121686
0.172991
-0.00968818
-0.171824
0.174116
-0.00919665
0.175195
-0.00868267
0.176225
-0.00814805
0.177205
-0.00759685
0.178132
-0.00703302
0.179007
-0.00645987
0.179829
-0.00588021
0.180599
-0.0052964
0.181316
-0.00471035
0.181982
-0.0041236
0.182595
-0.00353744
0.183157
-0.00295301
0.183668
-0.00237133
0.184127
-0.00179335
0.184534
-0.00122
0.18489
-0.000651945
0.185197
-9.16765e-05
0.185453
0.000464797
0.00101159
0.166456
-0.0108317
-0.165313
0.16756
-0.0103005
0.168619
-0.00974128
0.169628
-0.00915719
0.170586
-0.0085546
0.171491
-0.00793858
0.172345
-0.00731304
0.173146
-0.00668122
0.173895
-0.00604567
0.174593
-0.00540835
0.17524
-0.00477074
0.175837
-0.00413407
0.176383
-0.00349942
0.176879
-0.00286776
0.177326
-0.00223999
0.177723
-0.00161702
0.178071
-0.00099975
0.178369
-0.000389604
0.17862
0.000213296
0.00080978
0.160507
-0.011953
-0.159386
0.161591
-0.0113848
0.16263
-0.0107799
0.163618
-0.010145
0.164553
-0.00948993
0.165435
-0.00882094
0.166265
-0.00814257
0.167042
-0.00745855
0.167768
-0.00677158
0.168443
-0.00608356
0.169068
-0.00539586
0.169644
-0.00470962
0.17017
-0.00402578
0.170648
-0.00334527
0.171077
-0.00266895
0.171458
-0.00199772
0.17179
-0.00133233
0.172074
-0.000673675
0.172314
-2.63428e-05
0.000619039
0.155059
-0.0130555
-0.153956
0.156128
-0.0124541
0.15715
-0.0118018
0.158119
-0.0111137
0.159033
-0.0104042
0.159893
-0.00968055
0.160698
-0.00894827
0.161451
-0.00821154
0.162153
-0.00747309
0.162804
-0.00673463
0.163406
-0.00599735
0.163958
-0.00526218
0.164462
-0.00452994
0.164918
-0.00380145
0.165327
-0.00307749
0.165688
-0.00235897
0.166003
-0.0016467
0.166271
-0.000941989
0.166491
-0.000246437
0.00044211
0.150042
-0.0141458
-0.148951
0.151103
-0.0135159
0.152114
-0.0128123
0.153067
-0.0120667
0.153962
-0.0112992
0.1548
-0.0105182
0.155582
-0.00973025
0.15631
-0.0089399
0.156986
-0.00814967
0.157613
-0.00736092
0.15819
-0.00657447
0.158719
-0.00579098
0.1592
-0.00501103
0.159634
-0.00423529
0.160021
-0.00346449
0.160361
-0.00269949
0.160656
-0.00194119
0.160904
-0.00119068
0.161107
-0.000449174
0.000282867
0.1454
-0.0152353
-0.144311
0.146464
-0.0145795
0.147468
-0.0138165
0.148408
-0.013007
0.149285
-0.0121759
0.1501
-0.0113334
0.150857
-0.0104874
0.15156
-0.00964254
0.152211
-0.00880042
0.152812
-0.00796175
0.153364
-0.0071268
0.153869
-0.00629573
0.154327
-0.00546886
0.154738
-0.00464666
0.155103
-0.00382979
0.155423
-0.00301904
0.155697
-0.00221534
0.155926
-0.00141967
0.15611
-0.00063344
0.000141597
0.141095
-0.0163498
-0.13998
0.142172
-0.0156571
0.143174
-0.0148179
0.144101
-0.0139343
0.144956
-0.0130313
0.145745
-0.0121224
0.146475
-0.0112168
0.147149
-0.0103173
0.147773
-0.00942395
0.148348
-0.00853645
0.148875
-0.00765417
0.149356
-0.00677666
0.149791
-0.00590386
0.15018
-0.00503609
0.150524
-0.00417393
0.150824
-0.00331815
0.151078
-0.00246971
0.151288
-0.0016296
0.151453
-0.000798917
1.77498e-05
0.137094
-0.0175449
-0.135899
0.1382
-0.0167629
0.139195
-0.0158131
0.140103
-0.0148422
0.14093
-0.0138579
0.141686
-0.0128788
0.142383
-0.011914
0.143028
-0.0109617
0.143623
-0.0100194
0.144172
-0.00908508
0.144675
-0.00815723
0.145133
-0.00723471
0.145546
-0.00631714
0.145915
-0.00540473
0.146239
-0.00449805
0.146519
-0.00359792
0.146754
-0.00270537
0.146946
-0.00182161
0.147096
-0.00094803
-8.70015e-05
0.133401
-0.0188778
-0.132069
0.134524
-0.0178855
0.135495
-0.016784
0.136366
-0.0157132
0.137153
-0.0146447
0.137871
-0.0135969
0.138533
-0.0125763
0.139147
-0.0115754
0.139715
-0.0105875
0.140239
-0.00960918
0.14072
-0.00863773
0.141157
-0.00767162
0.14155
-0.00671034
0.141899
-0.00575412
0.142205
-0.00480365
0.142467
-0.00385986
0.142685
-0.00292387
0.142861
-0.00199707
0.142994
-0.00108108
-0.000177933
0.130046
-0.128785
-0.0201379
0.131081
-0.0189207
0.132018
-0.0177213
0.132831
-0.0165265
0.13357
-0.0153837
0.134252
-0.014279
0.134884
-0.0132075
0.13547
-0.0121614
0.136014
-0.0111315
0.136516
-0.0101114
0.136976
-0.00909772
0.137393
-0.00808896
0.137767
-0.00708469
0.138099
-0.00608533
0.138387
-0.00509175
0.138632
-0.00410506
0.138835
-0.0031265
0.138995
-0.0021574
0.139113
-0.00119953
-0.000258486
0.0261283
0.105653
-0.10438
-0.0274014
0.02484
0.10903
-0.107742
0.0235331
0.112568
-0.111261
0.0222033
0.116289
-0.114959
0.0208464
0.120221
-0.118864
0.0194589
0.124402
-0.123015
0.0180377
0.128885
-0.127463
0.0165803
0.133737
-0.132279
0.0150851
0.139048
-0.137553
0.0135512
0.144932
-0.143398
0.011979
0.151524
-0.149952
0.0103715
0.158981
-0.157373
0.00873534
0.167471
-0.165834
0.00708436
0.177151
-0.1755
0.00544365
0.188129
-0.186489
0.00385591
0.200384
-0.198796
0.00238962
0.213652
-0.212186
0.00114918
0.227249
-0.226008
0.000281406
0.239706
-0.238839
0.24839
-0.248108
0.0260725
0.106928
-0.0273474
0.0247825
0.11032
0.0234741
0.113876
0.0221432
0.11762
0.0207856
0.121579
0.0193976
0.12579
0.0179762
0.130306
0.0165188
0.135194
0.0150236
0.140543
0.0134898
0.146466
0.0119181
0.153096
0.0103116
0.160587
0.00867752
0.169105
0.00703049
0.178798
0.00539663
0.189763
0.00382002
0.20196
0.00237048
0.215101
0.00115181
0.228467
0.000307352
0.240551
0.248697
0.0259771
0.108203
-0.0272515
0.0246876
0.111609
0.02338
0.115184
0.0220501
0.11895
0.0206939
0.122935
0.0193076
0.127177
0.0178881
0.131725
0.0164328
0.136649
0.0149398
0.142036
0.0134084
0.147997
0.0118394
0.154665
0.0102361
0.162191
0.00860641
0.170734
0.00696549
0.180439
0.00534041
0.191388
0.00377613
0.203524
0.00234295
0.216535
0.00114328
0.229667
0.000312745
0.241381
0.24901
0.0258432
0.109474
-0.0271149
0.0245565
0.112896
0.0232518
0.116489
0.0219251
0.120276
0.0205723
0.124288
0.0191897
0.128559
0.0177741
0.133141
0.016323
0.138101
0.0148343
0.143525
0.0133074
0.149524
0.0117431
0.156229
0.0101453
0.163788
0.00852199
0.172358
0.00688917
0.182072
0.00527456
0.193003
0.00372377
0.205075
0.00230721
0.217951
0.00112581
0.230849
0.000310094
0.242197
0.24932
0.0256724
0.110741
-0.0269394
0.0243905
0.114178
0.0230907
0.117788
0.0217691
0.121598
0.0204216
0.125635
0.0190446
0.129936
0.0176348
0.134551
0.0161896
0.139546
0.0147072
0.145008
0.0131868
0.151045
0.0116294
0.157786
0.0100389
0.165379
0.00842412
0.173972
0.00680137
0.183695
0.00519908
0.194605
0.00366343
0.206611
0.00226483
0.21935
0.00110279
0.232011
0.000303607
0.242996
0.249623
0.0254667
0.112002
-0.0267274
0.0241912
0.115454
0.0228981
0.119082
0.0215832
0.122913
0.0202427
0.126976
0.0188729
0.131306
0.0174706
0.135953
0.0160333
0.140983
0.0145589
0.146482
0.0130468
0.152557
0.0114981
0.159335
0.00991712
0.16696
0.00831281
0.175577
0.00670214
0.185306
0.00511416
0.196193
0.00359558
0.20813
0.00221673
0.220729
0.00107557
0.233152
0.000294498
0.243777
0.249918
0.0252284
0.113255
-0.0264814
0.0239606
0.116721
0.0226754
0.120367
0.0213686
0.124219
0.0200365
0.128308
0.0186754
0.132667
0.0172822
0.137346
0.0158543
0.142411
0.0143896
0.147947
0.0128877
0.154059
0.0113497
0.160873
0.00978005
0.16853
0.00818821
0.177169
0.00659166
0.186902
0.00502005
0.197765
0.00352054
0.209629
0.00216329
0.222086
0.00104467
0.23427
0.000283448
0.244539
0.250201
0.0249596
0.1145
-0.0262043
0.0237004
0.117981
0.0224241
0.121643
0.0211266
0.125517
0.019804
0.12963
0.0184529
0.134018
0.0170702
0.138729
0.0156531
0.143828
0.0141998
0.1494
0.0127097
0.155549
0.0111842
0.162399
0.00962785
0.170086
0.0080505
0.178746
0.00647012
0.188483
0.00491695
0.199318
0.00343854
0.211107
0.00210482
0.22342
0.00101059
0.235365
0.000271043
0.245278
0.250472
0.0246626
0.115736
-0.0258987
0.0234124
0.119231
0.0221456
0.12291
0.020858
0.126805
0.019546
0.130943
0.018206
0.135358
0.0168349
0.1401
0.0154301
0.145233
0.0139897
0.15084
0.0125131
0.157025
0.0110018
0.16391
0.00946067
0.171627
0.0078998
0.180307
0.00633767
0.190045
0.00480505
0.20085
0.00334984
0.212563
0.00204169
0.224728
0.000973788
0.236432
0.00025769
0.245994
0.25073
0.0243396
0.116964
-0.0255675
0.0230982
0.120472
0.021841
0.124167
0.0205638
0.128082
0.0192628
0.132243
0.0179348
0.136686
0.0165765
0.141458
0.0151853
0.146624
0.0137593
0.152266
0.0122979
0.158487
0.0108026
0.165405
0.00927858
0.173151
0.00773622
0.181849
0.00619446
0.191586
0.00468455
0.20236
0.0032547
0.213992
0.0019742
0.226008
0.00093461
0.237472
0.000243629
0.246685
0.250974
0.0239921
0.118185
-0.025213
0.0227588
0.121705
0.0215108
0.125415
0.020244
0.129349
0.0189547
0.133533
0.0176394
0.138002
0.016295
0.142803
0.0149187
0.148
0.0135086
0.153676
0.012064
0.159931
0.0105866
0.166882
0.00908163
0.174656
0.00755984
0.183371
0.00604061
0.193106
0.00455563
0.203845
0.00315336
0.215395
0.00190265
0.227259
0.000893321
0.238481
0.000229018
0.24735
0.251203
0.023621
0.119401
-0.024837
0.0223943
0.122932
0.0211548
0.126655
0.0198983
0.130605
0.0186211
0.13481
0.0173194
0.139303
0.01599
0.144132
0.0146299
0.14936
0.0132373
0.155069
0.0118113
0.161357
0.0103537