/*--------------------------------*- C++ -*----------------------------------*\
| =========                 |                                                 |
| \\      /  F ield         | OpenFOAM: The Open Source CFD Toolbox           |
|  \\    /   O peration     | Version:  v1912                                 |
|   \\  /    A nd           | Website:  www.openfoam.com                      |
|    \\/     M anipulation  |                                                 |
\*---------------------------------------------------------------------------*/
FoamFile
{
    version     2.0;
    format      ascii;
    class       volVectorField;
    location    "16";
    object      U;
}
// * * * * * * * * * * * * * * * * * * * * * * * * * * * * * * * * * * * * * //

dimensions      [0 1 -1 0 0 0 0];


internalField   nonuniform List<vector> 
19200
(
(0.00654455 -0.479276 -2.71714e-22)
(0.0047828 -0.441377 0)
(0.00267868 -0.406568 0)
(0.000227679 -0.374678 0)
(-0.0024291 -0.34551 0)
(-0.00515286 -0.318866 0)
(-0.00784885 -0.294547 -8.5529e-23)
(-0.0104489 -0.272364 8.42447e-23)
(-0.0129038 -0.252132 0)
(-0.0151802 -0.233681 0)
(-0.0172572 -0.216851 -1.57237e-22)
(-0.0191235 -0.201491 8.65451e-25)
(-0.0207757 -0.187464 1.51657e-22)
(-0.0222163 -0.174645 0)
(-0.0234521 -0.162916 1.44692e-22)
(-0.0244938 -0.152172 -7.82909e-25)
(-0.0253544 -0.142317 -1.39627e-22)
(-0.026049 -0.133263 0)
(-0.0265938 -0.124933 0)
(-0.027006 -0.117255 0)
(-0.0273031 -0.110164 0)
(-0.0275029 -0.103605 0)
(-0.0276227 -0.0975258 1.23089e-22)
(-0.0276794 -0.0918809 -1.21341e-22)
(-0.0276892 -0.0866302 0)
(-0.0276685 -0.081738 0)
(-0.0276329 -0.0771731 -2.27872e-22)
(-0.0275871 -0.0729081 2.24745e-22)
(-0.0275205 -0.0689175 0)
(-0.0275179 -0.065177 0)
(0.019121 -0.478447 -3.65827e-22)
(0.0163552 -0.439962 1.94782e-22)
(0.0133356 -0.404729 0)
(0.0100696 -0.372549 0)
(0.00669617 -0.343206 0)
(0.00334802 -0.316479 0)
(0.000113064 -0.292153 -6.92557e-22)
(-0.00294732 -0.270021 3.39766e-22)
(-0.00579056 -0.249889 -2.43157e-24)
(-0.00838949 -0.231574 -1.93812e-24)
(-0.0107291 -0.214904 -6.35506e-22)
(-0.0128037 -0.199724 6.22205e-22)
(-0.014615 -0.185887 -3.05496e-22)
(-0.0161701 -0.173263 0)
(-0.0174806 -0.16173 0)
(-0.018561 -0.151177 0)
(-0.0194281 -0.141506 0)
(-0.0201006 -0.132626 0)
(-0.0205979 -0.124455 0)
(-0.0209403 -0.116921 0)
(-0.0211481 -0.109958 -2.58743e-22)
(-0.0212416 -0.103507 0)
(-0.0212407 -0.0975167 -4.94443e-22)
(-0.0211645 -0.0919409 4.8742e-22)
(-0.0210313 -0.0867391 -4.75328e-22)
(-0.0208595 -0.0818756 4.68689e-22)
(-0.0206668 -0.0773199 0)
(-0.020458 -0.073045 4.48503e-22)
(-0.0202196 -0.0690249 -4.42405e-22)
(-0.0200479 -0.0652368 4.76749e-22)
(0.0316095 -0.477331 -7.41961e-22)
(0.0278201 -0.438274 -3.88888e-22)
(0.023893 -0.402646 3.38519e-24)
(0.0198252 -0.370215 3.74601e-22)
(0.0157529 -0.340735 0)
(0.0118035 -0.313963 -7.11365e-22)
(0.00805823 -0.289666 3.52263e-22)
(0.00457103 -0.267622 6.85654e-22)
(0.00137732 -0.247621 -3.38999e-22)
(-0.0015026 -0.229469 -6.5258e-22)
(-0.00406016 -0.212988 6.42687e-22)
(-0.00629575 -0.198011 0)
(-0.00821656 -0.184388 -6.11988e-22)
(-0.00983493 -0.17198 6.02746e-22)
(-0.011167 -0.160662 -5.9048e-22)
(-0.0122317 -0.150318 0)
(-0.01305 -0.140846 0)
(-0.0136441 -0.132153 0)
(-0.0140369 -0.124154 0)
(-0.014252 -0.116775 1.05614e-21)
(-0.0143126 -0.109948 -7.82046e-22)
(-0.0142419 -0.103612 1.01371e-21)
(-0.0140624 -0.0977163 -9.99195e-22)
(-0.0137958 -0.092213 -9.73662e-22)
(-0.0134626 -0.0870618 1.91446e-21)
(-0.0130836 -0.0822272 -1.87714e-21)
(-0.0126787 -0.0776792 9.22997e-22)
(-0.0122531 -0.0733914 0)
(-0.0117887 -0.0693379 4.43326e-22)
(-0.0113943 -0.0654978 0)
(0.0440414 -0.475915 -1.49158e-21)
(0.0392008 -0.436327 7.95296e-22)
(0.0343592 -0.400343 -7.68046e-22)
(0.0294969 -0.3677 6.04886e-24)
(0.0247425 -0.338124 7.4005e-22)
(0.0202163 -0.311347 0)
(0.015991 -0.287116 0)
(0.0121124 -0.265192 0)
(0.0086078 -0.245355 2.02342e-21)
(0.00549005 -0.227397 -4.29368e-24)
(0.00276064 -0.211131 -6.48464e-22)
(0.000412669 -0.196384 -1.2609e-21)
(-0.00156703 -0.182997 1.24181e-21)
(-0.00319625 -0.170827 1.20742e-21)
(-0.00449615 -0.159742 -5.9877e-22)
(-0.00549027 -0.149625 0)
(-0.00620374 -0.140369 0)
(-0.00666268 -0.131876 0)
(-0.00689373 -0.124062 0)
(-0.00692367 -0.116847 0)
(-0.00677908 -0.110164 1.04029e-21)
(-0.00648607 -0.103951 -1.02528e-21)
(-0.00607004 -0.0981546 0)
(-0.00555535 -0.0927267 -9.7816e-22)
(-0.00496522 -0.0876267 1.92306e-21)
(-0.00432297 -0.0828196 -1.8851e-21)
(-0.00365147 -0.078276 9.26801e-22)
(-0.00295686 -0.0739705 9.03257e-22)
(-0.00221531 -0.0698776 -2.22077e-21)
(-0.00154491 -0.0659811 -9.60161e-22)
(0.0564196 -0.474189 7.48507e-22)
(0.0505035 -0.434126 1.60789e-21)
(0.0447397 -0.397836 1.56971e-21)
(0.0390893 -0.365027 7.59409e-22)
(0.0336703 -0.335398 1.49384e-21)
(0.0285927 -0.308656 8.38414e-24)
(0.0239194 -0.284529 1.43885e-21)
(0.0196866 -0.262762 2.10181e-21)
(0.0159125 -0.243119 6.92755e-22)
(0.0126018 -0.225386 1.34111e-21)
(0.00974809 -0.209363 1.10151e-23)
(0.0073376 -0.19487 1.28088e-21)
(0.00535076 -0.181743 1.00835e-23)
(0.00376396 -0.169831 3.67021e-21)
(0.00255075 -0.158999 -3.59032e-21)
(0.00168281 -0.149126 2.34717e-21)
(0.00113057 -0.1401 0)
(0.000863857 -0.131823 0)
(0.000852242 -0.124205 1.09947e-21)
(0.00106542 -0.117166 0)
(0.00147348 -0.110636 1.05316e-21)
(0.00204713 -0.104552 1.02461e-21)
(0.00275791 -0.0988593 -1.00993e-21)
(0.00357854 -0.0935091 9.88745e-22)
(0.00448297 -0.0884603 0)
(0.00544495 -0.0836778 0)
(0.0064382 -0.0791329 9.30242e-22)
(0.00745427 -0.0748007 9.11732e-22)
(0.00852095 -0.0706536 8.85905e-22)
(0.00951518 -0.0666807 -1.92843e-21)
(0.0687395 -0.472156 -7.62467e-22)
(0.0617286 -0.431679 -1.60789e-21)
(0.0550381 -0.395136 -2.35603e-21)
(0.0486082 -0.362212 -7.62108e-22)
(0.0425437 -0.332576 -1.48758e-21)
(0.0369422 -0.305913 1.43319e-23)
(0.0318549 -0.281929 -1.43377e-21)
(0.0273069 -0.260354 -1.40215e-21)
(0.0233066 -0.240941 -1.37128e-21)
(0.0198493 -0.223461 -2.68445e-21)
(0.0169205 -0.207709 2.31621e-23)
(0.0144987 -0.193496 2.5894e-21)
(0.0125575 -0.18065 -1.2438e-21)
(0.0110673 -0.169017 1.24848e-21)
(0.0099961 -0.158458 3.61223e-21)
(0.00931047 -0.148846 -1.17306e-21)
(0.00897632 -0.140066 0)
(0.00895924 -0.132018 1.13235e-21)
(0.00922491 -0.124608 2.20716e-21)
(0.00973937 -0.117756 -3.23511e-21)
(0.0104692 -0.111388 1.06731e-21)
(0.0113819 -0.10544 3.09881e-21)
(0.0124458 -0.0998559 1.0019e-21)
(0.0136307 -0.0945859 -3.96034e-21)
(0.0149074 -0.0895882 2.92225e-21)
(0.0162467 -0.0848276 0)
(0.0176195 -0.0802759 4.43619e-24)
(0.0190189 -0.0759074 1.82521e-21)
(0.0204784 -0.0716921 -6.14863e-24)
(0.0218373 -0.0676286 1.93848e-21)
(0.080995 -0.469819 1.53483e-21)
(0.0728746 -0.428993 -1.6516e-21)
(0.0652573 -0.392258 0)
(0.0580599 -0.359273 -1.57446e-21)
(0.0513717 -0.32968 -1.52177e-21)
(0.0452765 -0.303139 -1.49137e-21)
(0.0398114 -0.279338 1.4653e-21)
(0.0349897 -0.257993 0)
(0.0308085 -0.238842 -1.40316e-21)
(0.0272529 -0.221646 0)
(0.0242996 -0.206192 -2.66549e-21)
(0.0219191 -0.192282 -2.6054e-21)
(0.0200776 -0.179741 -1.26679e-21)
(0.0187392 -0.168408 -1.23852e-21)
(0.0178659 -0.15814 1.21291e-21)
(0.0174193 -0.148805 -3.57155e-21)
(0.0173605 -0.140288 0)
(0.0176507 -0.132482 -1.13235e-21)
(0.0182516 -0.125294 8.67036e-24)
(0.0191255 -0.118639 -1.0835e-21)
(0.0202354 -0.112442 0)
(0.0215454 -0.106637 1.03678e-21)
(0.0230205 -0.101166 -3.0601e-21)
(0.0246272 -0.0959794 5.9024e-24)
(0.0263333 -0.0910334 9.72516e-22)
(0.0281061 -0.0862927 -1.26047e-23)
(0.029913 -0.0817292 -9.47039e-22)
(0.0317477 -0.0773172 -4.5871e-21)
(0.0336483 -0.0730254 9.07387e-22)
(0.0354217 -0.0688622 0)
(0.0931798 -0.467182 -1.22183e-23)
(0.08394 -0.426078 0)
(0.0754004 -0.389213 -1.61574e-21)
(0.0674514 -0.356224 4.7641e-21)
(0.0601653 -0.326725 -1.76197e-23)
(0.0536093 -0.300353 1.50751e-21)
(0.0478059 -0.276778 2.96141e-21)
(0.0427543 -0.2557 -1.14993e-23)
(0.0384397 -0.236843 -1.41982e-23)
(0.0348363 -0.219962 1.37398e-21)
(0.031911 -0.204832 -2.69796e-21)
(0.0296257 -0.19125 3.9539e-21)
(0.0279391 -0.179035 -2.56311e-21)
(0.0268085 -0.168021 2.5244e-21)
(0.0261899 -0.158061 -2.44701e-21)
(0.0260395 -0.149021 1.91616e-23)
(0.0263135 -0.140781 2.35551e-21)
(0.0269688 -0.133231 0)
(0.0279629 -0.126277 1.11648e-21)
(0.0292543 -0.11983 -2.20003e-21)
(0.0308024 -0.113813 2.13475e-21)
(0.0325676 -0.108159 -1.58749e-23)
(0.0345114 -0.102808 -2.05816e-21)
(0.0365971 -0.0977071 -1.00018e-21)
(0.0387888 -0.0928132 0)
(0.0410502 -0.0880897 9.64286e-22)
(0.0433445 -0.0835084 0)
(0.0456651 -0.0790427 0)
(0.0480556 -0.0746581 0)
(0.0502918 -0.0703721 0)
(0.105287 -0.46425 -3.22422e-21)
(0.0949235 -0.422942 3.40464e-21)
(0.0854714 -0.386015 -3.3211e-21)
(0.0767914 -0.353081 -1.59706e-21)
(0.0689368 -0.32373 -4.43761e-24)
(0.061957 -0.297575 1.74217e-23)
(0.0558576 -0.274268 -1.48872e-21)
(0.0506231 -0.253493 0)
(0.0462252 -0.234964 0)
(0.0426265 -0.218426 -3.00333e-23)
(0.0397835 -0.203646 -2.73971e-21)
(0.037649 -0.190415 5.3343e-21)
(0.0361738 -0.178547 -2.1887e-23)
(0.035308 -0.167871 -2.5522e-21)
(0.0350015 -0.158237 2.49564e-21)
(0.035205 -0.149507 -2.41424e-21)
(0.0358696 -0.141557 4.73655e-21)
(0.0369479 -0.134278 -2.32334e-21)
(0.0383931 -0.127569 0)
(0.0401599 -0.12134 1.83607e-23)
(0.0422038 -0.115514 1.75153e-23)
(0.0444817 -0.110018 5.28115e-25)
(0.0469516 -0.104792 0)
(0.0495727 -0.0997814 0)
(0.052306 -0.0949402 0)
(0.0551105 -0.0902313 -9.64284e-22)
(0.0579452 -0.0856258 0)
(0.0608028 -0.0810951 3.69372e-21)
(0.0637331 -0.0766003 -1.98928e-23)
(0.066479 -0.0721696 -7.86511e-21)
(0.117312 -0.461028 4.83116e-21)
(0.105825 -0.419594 -1.69786e-21)
(0.0954751 -0.382674 -1.73712e-21)
(0.0860896 -0.349859 0)
(0.0777007 -0.320711 0)
(0.070338 -0.294821 0)
(0.0639888 -0.271823 0)
(0.0586213 -0.251389 -5.94807e-21)
(0.054193 -0.23322 2.91198e-21)
(0.0506539 -0.217053 2.81191e-21)
(0.0479495 -0.202648 0)
(0.0460231 -0.18979 -2.6809e-21)
(0.0448171 -0.178287 -2.62142e-21)
(0.0442741 -0.167967 2.28831e-23)
(0.0443379 -0.158674 2.47905e-23)
(0.0449533 -0.150269 -2.4388e-21)
(0.0460666 -0.142624 2.40243e-21)
(0.0476256 -0.135627 -2.32522e-21)
(0.0495797 -0.129175 2.29094e-21)
(0.0518793 -0.123176 -2.21848e-21)
(0.0544765 -0.117549 -2.18586e-21)
(0.0573242 -0.112221 6.35561e-21)
(0.0603767 -0.107126 -6.26295e-21)
(0.0635896 -0.102209 4.04999e-21)
(0.0669197 -0.0974221 -3.99294e-21)
(0.0703217 -0.0927258 0)
(0.0737495 -0.08809 0)
(0.0771951 -0.0834836 -1.86943e-21)
(0.0807152 -0.0788614 0)
(0.0840167 -0.0742647 -5.93905e-21)
(0.129248 -0.457521 -1.69023e-21)
(0.116644 -0.416043 -2.33955e-23)
(0.105418 -0.379203 1.66412e-21)
(0.0953575 -0.34657 -1.65278e-21)
(0.0864733 -0.317682 -1.64011e-21)
(0.078773 -0.292105 3.18963e-21)
(0.072224 -0.26946 -3.87517e-23)
(0.066777 -0.249402 -3.03575e-21)
(0.0623742 -0.231625 2.95448e-21)
(0.0589523 -0.215855 2.85657e-21)
(0.056445 -0.201847 -5.63314e-21)
(0.0547857 -0.189382 2.75072e-21)
(0.0539079 -0.178263 -2.6832e-21)
(0.0537469 -0.168314 0)
(0.0542397 -0.159377 0)
(0.0553254 -0.151308 -4.95556e-21)
(0.0569455 -0.14398 2.45261e-21)
(0.0590431 -0.137277 -2.34896e-21)
(0.0615633 -0.131094 2.13226e-23)
(0.064453 -0.125335 -1.2752e-25)
(0.0676602 -0.119918 4.3907e-21)
(0.0711342 -0.114765 2.11639e-21)
(0.0748255 -0.109809 -2.12129e-21)
(0.0786857 -0.104991 0)
(0.0826675 -0.100261 3.9876e-21)
(0.0867208 -0.095576 -1.96745e-21)
(0.0907942 -0.0909051 0)
(0.0948786 -0.0862132 1.86943e-21)
(0.099038 -0.0814472 5.49861e-21)
(0.10294 -0.0766632 -1.98916e-21)
(0.141089 -0.453733 1.60191e-21)
(0.127383 -0.412298 -2.44453e-23)
(0.115307 -0.375612 -1.87829e-23)
(0.104608 -0.343228 -1.69817e-21)
(0.095273 -0.314655 3.26882e-21)
(0.0872852 -0.289442 -6.38977e-21)
(0.0805907 -0.267189 6.26482e-21)
(0.0751214 -0.247543 3.04559e-21)
(0.0708032 -0.230187 -2.88998e-23)
(0.0675586 -0.21484 -2.83076e-23)
(0.0653093 -0.201251 -3.36473e-23)
(0.0639778 -0.189196 4.99915e-24)
(0.0634889 -0.178475 -2.71815e-21)
(0.0637698 -0.168911 2.60861e-23)
(0.0647511 -0.160341 2.5486e-23)
(0.066366 -0.152621 5.0081e-21)
(0.0685509 -0.145621 -2.42994e-21)
(0.0712444 -0.139222 2.37097e-21)
(0.0743877 -0.133317 4.62798e-21)
(0.0779238 -0.127809 -2.30181e-21)
(0.0817971 -0.12261 -2.20484e-21)
(0.0859531 -0.117642 2.15309e-21)
(0.0903385 -0.112833 0)
(0.094901 -0.108121 -4.10732e-21)
(0.0995889 -0.103451 3.48104e-23)
(0.104347 -0.098779 1.99413e-21)
(0.109118 -0.09407 3.83978e-21)
(0.113891 -0.0892842 -3.7871e-21)
(0.118739 -0.0843589 1.84367e-21)
(0.123285 -0.0793673 3.27666e-23)
(0.152831 -0.449669 8.5506e-21)
(0.138042 -0.408367 1.85532e-21)
(0.125151 -0.371912 -1.7345e-21)
(0.113857 -0.339844 3.45817e-21)
(0.10412 -0.311645 6.72179e-21)
(0.0959 -0.286842 1.21826e-23)
(0.0891187 -0.265024 0)
(0.0836882 -0.245823 0)
(0.0795171 -0.228915 0)
(0.076513 -0.214013 2.97915e-21)
(0.0745848 -0.20086 0)
(0.073644 -0.189231 0)
(0.0736059 -0.178921 2.75689e-21)
(0.07439 -0.169751 -2.65433e-21)
(0.0759197 -0.161558 5.20157e-21)
(0.0781228 -0.154196 -5.09939e-21)
(0.0809303 -0.147531 7.40313e-21)
(0.0842768 -0.141445 -2.4209e-21)
(0.0880993 -0.135827 2.3622e-21)
(0.0923373 -0.130579 -4.55966e-21)
(0.0969316 -0.125609 1.11879e-20)
(0.101824 -0.120834 -4.38416e-21)
(0.106958 -0.116182 6.37579e-21)
(0.112277 -0.111583 -2.12633e-21)
(0.117724 -0.106981 -2.04177e-21)
(0.123239 -0.102325 1.99148e-21)
(0.128759 -0.097577 5.81064e-21)
(0.134271 -0.0926914 -3.81071e-21)
(0.139854 -0.0875933 1.85759e-21)
(0.145087 -0.0823749 -2.0374e-21)
(0.164469 -0.445335 7.06154e-23)
(0.148626 -0.404258 7.24987e-23)
(0.134961 -0.368112 3.63048e-21)
(0.123119 -0.336428 -3.48518e-21)
(0.113037 -0.30866 4.96007e-23)
(0.104645 -0.284316 -3.29992e-21)
(0.0978405 -0.262971 -3.22769e-21)
(0.0925139 -0.244247 6.36915e-21)
(0.088556 -0.227813 0)
(0.0858586 -0.213375 -2.97916e-21)
(0.0843171 -0.200675 -2.90964e-21)
(0.0838317 -0.189482 2.86554e-21)
(0.084308 -0.179593 -2.75689e-21)
(0.0856572 -0.170824 0)
(0.0877961 -0.163014 -2.58805e-21)
(0.0906463 -0.156014 7.71335e-21)
(0.0941341 -0.149691 -2.48612e-21)
(0.0981898 -0.143923 4.87601e-21)
(0.102747 -0.1386 -1.18629e-20)
(0.107741 -0.133619 9.2608e-21)
(0.11311 -0.128887 -1.12752e-20)
(0.118792 -0.124317 4.42575e-21)
(0.124727 -0.11983 -2.13814e-21)
(0.130854 -0.115355 -2.08366e-21)
(0.137113 -0.110828 5.50379e-23)
(0.143437 -0.106195 6.00392e-21)
(0.149755 -0.101411 -7.79975e-21)
(0.156055 -0.096423 3.83531e-21)
(0.162421 -0.0911415 -1.85759e-21)
(0.168382 -0.0856798 2.06719e-21)
(0.175998 -0.440736 5.28753e-24)
(0.159138 -0.399981 -7.52511e-21)
(0.144747 -0.364223 -7.27591e-21)
(0.132415 -0.332991 -1.52569e-23)
(0.122049 -0.305711 -3.4611e-21)
(0.113551 -0.281872 3.41001e-21)
(0.106791 -0.261037 0)
(0.101638 -0.242819 -3.18994e-21)
(0.0979626 -0.226881 0)
(0.0956411 -0.212925 0)
(0.0945545 -0.200688 -2.95514e-21)
(0.0945913 -0.18994 5.78766e-21)
(0.0956471 -0.180476 -2.83376e-21)
(0.0976246 -0.172113 5.45505e-21)
(0.100434 -0.164687 -1.3337e-20)
(0.10399 -0.158051 5.23161e-21)
(0.108215 -0.152071 0)
(0.113035 -0.146626 -7.35586e-21)
(0.11838 -0.141601 4.83198e-21)
(0.124183 -0.136894 0)
(0.130378 -0.132407 -2.29232e-21)
(0.1369 -0.128051 0)
(0.143687 -0.123742 2.13363e-21)
(0.150673 -0.119402 -8.45441e-21)
(0.157794 -0.114962 2.11133e-23)
(0.164977 -0.110361 -4.00795e-21)
(0.172144 -0.105548 -3.89628e-21)
(0.179279 -0.10046 3.86087e-21)
(0.186474 -0.0949883 -3.74573e-21)
(0.193203 -0.0892705 4.05009e-21)
(0.187415 -0.435878 0)
(0.169582 -0.395539 0)
(0.154525 -0.360251 3.71985e-21)
(0.141762 -0.329542 -5.80883e-23)
(0.131181 -0.302805 -3.52833e-21)
(0.122649 -0.279516 3.47625e-21)
(0.116007 -0.259226 -3.34545e-21)
(0.111101 -0.241541 6.6018e-21)
(0.107782 -0.226118 -3.21794e-21)
(0.105909 -0.212656 -3.08575e-21)
(0.105348 -0.200891 3.58947e-23)
(0.105976 -0.190592 5.87995e-21)
(0.107678 -0.181554 2.80937e-21)
(0.110347 -0.173594 -2.79634e-21)
(0.113888 -0.16655 -5.38543e-21)
(0.11821 -0.160275 5.30471e-21)
(0.123228 -0.154637 2.58306e-21)
(0.128867 -0.149511 0)
(0.135052 -0.144787 0)
(0.141713 -0.140356 2.38046e-21)
(0.148783 -0.136122 6.87454e-21)
(0.156195 -0.131989 -8.97994e-21)
(0.163881 -0.127869 2.22688e-21)
(0.171774 -0.123679 1.06711e-20)
(0.179804 -0.11934 -2.11056e-21)
(0.187893 -0.114785 0)
(0.195956 -0.109956 3.9623e-21)
(0.203973 -0.104774 0)
(0.212042 -0.0991116 3.76857e-21)
(0.219579 -0.0931302 -6.11657e-21)
(0.19872 -0.430765 -3.64108e-21)
(0.179965 -0.390935 7.93368e-21)
(0.164306 -0.35621 3.86366e-21)
(0.151184 -0.326089 0)
(0.140463 -0.299949 -3.65884e-21)
(0.131973 -0.277252 0)
(0.125527 -0.25754 -3.46368e-21)
(0.120947 -0.240411 1.04564e-23)
(0.118061 -0.225518 -4.90483e-23)
(0.116712 -0.21256 -3.18737e-21)
(0.11675 -0.20127 -3.09955e-21)
(0.11804 -0.191419 -3.01391e-21)
(0.120456 -0.182802 0)
(0.123883 -0.175239 2.8127e-21)
(0.128217 -0.168569 -6.97347e-23)
(0.133362 -0.162648 -5.3818e-21)
(0.13923 -0.157342 -7.75146e-21)
(0.14574 -0.152531 2.54491e-21)
(0.152814 -0.148103 4.89104e-21)
(0.160382 -0.14395 -1.19591e-20)
(0.168373 -0.139971 2.34611e-21)
(0.176717 -0.136069 0)
(0.185347 -0.13215 0)
(0.194191 -0.128124 2.13682e-21)
(0.203176 -0.123906 -6.32472e-21)
(0.212217 -0.119416 0)
(0.221221 -0.114588 -1.98833e-21)
(0.230164 -0.109327 0)
(0.239151 -0.103481 0)
(0.247534 -0.0972356 8.3225e-21)
(0.209915 -0.4254 -7.61073e-21)
(0.190293 -0.386182 -3.96971e-21)
(0.174101 -0.352104 -3.86367e-21)
(0.160704 -0.322637 0)
(0.149924 -0.297147 7.39523e-21)
(0.141559 -0.275084 -3.57342e-21)
(0.135393 -0.255978 3.50814e-21)
(0.13122 -0.239425 3.42351e-21)
(0.128849 -0.225075 3.33965e-21)
(0.128102 -0.212625 6.3829e-21)
(0.128816 -0.20181 -4.75143e-23)
(0.130841 -0.1924 4.06432e-23)
(0.13404 -0.184195 5.94805e-21)
(0.138291 -0.177017 -5.70603e-21)
(0.14348 -0.170707 5.62014e-21)
(0.149507 -0.165123 5.39093e-21)
(0.156278 -0.160137 -1.05508e-20)
(0.163709 -0.155628 1.02916e-20)
(0.171721 -0.151487 -4.95302e-21)
(0.180238 -0.147605 4.88049e-21)
(0.189192 -0.143882 3.12417e-23)
(0.19851 -0.140216 9.17451e-21)
(0.208122 -0.13651 -4.49229e-21)
(0.217957 -0.132666 6.50168e-21)
(0.227936 -0.128588 -2.15123e-21)
(0.23797 -0.124189 0)
(0.247957 -0.119387 0)
(0.25787 -0.114071 -5.82028e-21)
(0.267818 -0.108056 7.6812e-21)
(0.277084 -0.101556 2.05491e-21)
(0.220993 -0.41979 7.74291e-21)
(0.20058 -0.381291 0)
(0.18393 -0.347936 3.96671e-21)
(0.170345 -0.319189 -3.90987e-21)
(0.159594 -0.294402 8.12033e-23)
(0.151443 -0.27301 3.64725e-21)
(0.145645 -0.254538 -3.59288e-21)
(0.141967 -0.238578 0)
(0.140195 -0.224778 -3.33966e-21)
(0.140132 -0.212836 6.50898e-21)
(0.1416 -0.20249 -6.4103e-21)
(0.144434 -0.193511 3.07804e-21)
(0.148489 -0.185702 -1.20203e-20)
(0.153629 -0.178889 8.02567e-23)
(0.159737 -0.172918 1.13444e-20)
(0.166703 -0.167651 -5.5486e-21)
(0.174431 -0.162962 5.31622e-21)
(0.182832 -0.158737 -7.81959e-21)
(0.191824 -0.154866 -5.01857e-21)
(0.201333 -0.151244 4.94507e-21)
(0.211285 -0.14777 -7.11215e-21)
(0.221611 -0.144342 4.67181e-21)
(0.23224 -0.140857 0)
(0.243098 -0.137211 -2.18331e-21)
(0.254106 -0.133299 0)
(0.265169 -0.12902 0)
(0.276178 -0.124279 -8.05537e-21)
(0.2871 -0.11894 5.97804e-21)
(0.298049 -0.112784 7.67894e-21)
(0.308236 -0.106051 -1.67612e-20)
(0.231953 -0.413937 -3.94696e-21)
(0.210833 -0.376261 4.24726e-21)
(0.193812 -0.343713 4.05707e-21)
(0.180131 -0.315752 -3.99893e-21)
(0.169505 -0.291716 -3.81762e-21)
(0.161663 -0.27103 -3.72449e-21)
(0.156326 -0.253214 5.02329e-23)
(0.153233 -0.23786 7.07981e-21)
(0.152148 -0.224614 -3.46237e-21)
(0.152854 -0.213177 0)
(0.155157 -0.203288 0)
(0.158878 -0.194723 6.25415e-21)
(0.16386 -0.18729 -6.15946e-21)
(0.169959 -0.180817 0)
(0.177047 -0.175157 0)
(0.185011 -0.170177 0)
(0.193747 -0.165757 0)
(0.203164 -0.161786 0)
(0.213178 -0.158159 -5.08793e-21)
(0.223713 -0.154777 5.01342e-21)
(0.234697 -0.151539 4.7992e-21)
(0.246059 -0.148343 -4.72994e-21)
(0.25773 -0.145084 0)
(0.269637 -0.141652 0)
(0.281699 -0.137932 0)
(0.29382 -0.133809 0)
(0.305883 -0.129171 0)
(0.317851 -0.123855 0)
(0.329839 -0.117599 0)
(0.340983 -0.110671 0)
(0.242792 -0.407846 0)
(0.22106 -0.371099 0)
(0.203764 -0.339442 0)
(0.190089 -0.312328 0)
(0.179689 -0.289087 7.98217e-21)
(0.172257 -0.269139 7.75015e-21)
(0.167478 -0.252 3.82899e-21)
(0.165065 -0.23726 1.09432e-20)
(0.164758 -0.224568 0)
(0.166321 -0.213627 0)
(0.169542 -0.20418 1.32383e-20)
(0.174229 -0.196009 -1.28325e-20)
(0.180212 -0.188923 1.87386e-20)
(0.187337 -0.18276 9.6605e-24)
(0.19547 -0.177376 5.91558e-21)
(0.204488 -0.172645 9.08684e-23)
(0.214284 -0.168454 1.11317e-20)
(0.224762 -0.164698 5.31864e-21)
(0.235836 -0.161281 2.41902e-25)
(0.247429 -0.158107 5.00909e-21)
(0.259469 -0.15508 -4.93625e-21)
(0.271888 -0.152101 0)
(0.284618 -0.149065 4.64536e-21)
(0.297589 -0.145858 4.50912e-21)
(0.310723 -0.142355 4.37825e-21)
(0.323922 -0.138428 4.25376e-21)
(0.337063 -0.133946 8.17813e-21)
(0.350107 -0.128713 -1.25551e-22)
(0.36317 -0.122416 -1.56048e-20)
(0.375307 -0.115347 -2.12777e-22)
(0.253504 -0.401524 1.26249e-20)
(0.231268 -0.365812 -4.45866e-21)
(0.213807 -0.335124 4.41724e-21)
(0.200245 -0.308915 -4.22565e-21)
(0.19018 -0.286514 -2.01555e-20)
(0.183261 -0.267331 4.1223e-21)
(0.179143 -0.250884 -1.12988e-20)
(0.177508 -0.236764 3.87484e-21)
(0.178073 -0.224623 -1.28742e-22)
(0.180582 -0.214166 -7.00083e-21)
(0.184806 -0.205141 -6.55739e-21)
(0.190539 -0.197336 6.58884e-21)
(0.197598 -0.190566 -6.28465e-21)
(0.20582 -0.184674 6.21772e-21)
(0.215061 -0.179524 -1.19292e-20)
(0.225191 -0.174996 9.98184e-23)
(0.236098 -0.170986 -1.1138e-20)
(0.24768 -0.167397 5.3999e-21)
(0.25985 -0.16414 -8.04602e-25)
(0.272528 -0.161128 -8.12176e-23)
(0.285645 -0.158274 -1.49399e-20)
(0.299133 -0.155484 4.85719e-21)
(0.31293 -0.152657 -9.3502e-21)
(0.32697 -0.149677 5.33861e-23)
(0.34118 -0.146414 -1.31139e-20)
(0.355463 -0.142725 4.3599e-21)
(0.369696 -0.13846 -8.24108e-21)
(0.383838 -0.133384 8.128e-21)
(0.398006 -0.127126 3.91483e-21)
(0.411173 -0.119995 0)
(0.26409 -0.394976 2.17764e-22)
(0.241466 -0.360403 9.1566e-21)
(0.223958 -0.330759 -8.66728e-21)
(0.210627 -0.305513 -2.02116e-22)
(0.201009 -0.28399 1.65252e-20)
(0.194714 -0.265598 1.81717e-22)
(0.191361 -0.249856 -7.86197e-21)
(0.190605 -0.236357 -7.46053e-21)
(0.192138 -0.224758 7.23724e-21)
(0.195684 -0.214769 -7.16618e-21)
(0.200998 -0.206143 -6.80851e-21)
(0.207858 -0.198674 0)
(0.21607 -0.192183 6.41386e-21)
(0.22546 -0.186519 -1.88538e-20)
(0.235873 -0.181554 0)
(0.247174 -0.177177 -5.83894e-21)
(0.259243 -0.173289 0)
(0.271973 -0.169806 -9.32157e-23)
(0.285273 -0.166647 -1.11637e-24)
(0.299062 -0.163738 -5.24395e-21)
(0.31327 -0.161 4.93042e-24)
(0.327834 -0.158352 9.77232e-21)
(0.342694 -0.1557 -7.09831e-23)
(0.357794 -0.152934 4.5411e-21)
(0.373067 -0.149921 -1.34511e-20)
(0.388426 -0.14651 0)
(0.40375 -0.142529 0)
(0.419001 -0.137702 -4.07337e-21)
(0.4343 -0.131585 -3.91484e-21)
(0.44853 -0.124499 -8.71916e-21)
(0.274549 -0.388208 -8.6994e-21)
(0.251664 -0.354873 -1.37538e-20)
(0.234239 -0.326348 -4.56845e-21)
(0.221261 -0.302117 8.61697e-21)
(0.212209 -0.281507 -8.35849e-21)
(0.206651 -0.263927 -8.10684e-21)
(0.204172 -0.248898 7.86202e-21)
(0.204397 -0.236019 7.793e-21)
(0.206995 -0.224951 0)
(0.211671 -0.215411 7.16622e-21)
(0.218161 -0.207159 0)
(0.22623 -0.199992 0)
(0.235672 -0.19374 0)
(0.246301 -0.188258 6.32715e-21)
(0.257953 -0.183425 0)
(0.270484 -0.179137 0)
(0.283767 -0.175307 5.76386e-21)
(0.29769 -0.171857 5.58638e-21)
(0.312156 -0.168721 0)
(0.327081 -0.165834 0)
(0.342393 -0.163136 5.16142e-21)
(0.358033 -0.160558 -4.99719e-21)
(0.373946 -0.158022 4.8372e-21)
(0.390083 -0.155431 0)
(0.406392 -0.152659 4.4757e-21)
(0.422798 -0.149552 0)
(0.439191 -0.145922 0)
(0.455544 -0.141449 8.17373e-21)
(0.471989 -0.135605 0)
(0.487317 -0.128705 0)
(0.284879 -0.381223 0)
(0.261874 -0.349224 0)
(0.244668 -0.321888 9.10115e-21)
(0.232173 -0.29872 0)
(0.223811 -0.279054 -4.2941e-21)
(0.219106 -0.262303 4.23071e-21)
(0.21761 -0.247992 -8.06584e-21)
(0.21892 -0.235728 1.59356e-20)
(0.222682 -0.225179 2.1237e-23)
(0.228579 -0.216067 -7.47623e-21)
(0.236332 -0.208159 1.43475e-20)
(0.245692 -0.201259 1.45183e-23)
(0.25644 -0.195204 6.79231e-21)
(0.268379 -0.189856 0)
(0.281337 -0.185099 1.26274e-20)
(0.29516 -0.180838 -1.22224e-20)
(0.309712 -0.176992 1.19446e-20)
(0.324875 -0.173496 -1.13652e-20)
(0.340546 -0.170293 1.1202e-20)
(0.356635 -0.167333 5.4233e-21)
(0.373069 -0.164573 8.7466e-23)
(0.389786 -0.161963 4.99722e-21)
(0.406736 -0.159449 -4.83723e-21)
(0.42388 -0.156954 4.74885e-21)
(0.441179 -0.154375 4.58893e-21)
(0.45858 -0.151568 0)
(0.475993 -0.148342 -4.15093e-21)
(0.493418 -0.144334 2.1929e-22)
(0.51101 -0.13892 1.98843e-20)
(0.527467 -0.132387 -4.26521e-21)
(0.295083 -0.374025 4.81784e-21)
(0.272109 -0.343456 -9.77986e-21)
(0.255266 -0.317372 8.26285e-23)
(0.24339 -0.295311 9.34606e-21)
(0.235843 -0.276616 8.86924e-21)
(0.23211 -0.260706 4.3604e-21)
(0.231708 -0.247116 8.41714e-21)
(0.234206 -0.235459 8.17221e-21)
(0.239228 -0.225412 -2.33272e-20)
(0.246437 -0.216706 1.50975e-20)
(0.255539 -0.209113 -1.46377e-20)
(0.26627 -0.202446 1.47745e-22)
(0.278399 -0.196546 -6.79235e-21)
(0.29172 -0.191283 -6.71218e-21)
(0.30605 -0.186547 -6.37105e-21)
(0.321227 -0.182249 1.2468e-20)
(0.337106 -0.178315 -1.81506e-20)
(0.353562 -0.174688 0)
(0.370484 -0.17132 -5.60224e-21)
(0.387776 -0.168178 -5.42333e-21)
(0.405356 -0.165231 -1.04943e-20)
(0.423161 -0.162455 5.16964e-21)
(0.44114 -0.159822 9.80473e-21)
(0.459258 -0.15729 -1.44143e-20)
(0.477494 -0.154792 -4.58895e-21)
(0.495815 -0.15222 -8.82263e-21)
(0.514168 -0.149403 4.41813e-21)
(0.532598 -0.145956 -1.22863e-20)
(0.551314 -0.141151 4.08816e-21)
(0.568928 -0.135212 -4.2596e-21)
(0.30516 -0.366616 1.95461e-22)
(0.282381 -0.337566 4.81576e-21)
(0.266056 -0.312793 9.80988e-21)
(0.254936 -0.291874 -4.61787e-21)
(0.248332 -0.274172 -9.08542e-21)
(0.24569 -0.259113 -8.61571e-21)
(0.246492 -0.246242 -4.12251e-21)
(0.250281 -0.235183 -8.15014e-21)
(0.256658 -0.225621 8.06903e-21)
(0.265268 -0.217296 0)
(0.2758 -0.20999 7.39659e-21)
(0.28798 -0.203521 -7.161e-21)
(0.301562 -0.197738 -7.07895e-21)
(0.316333 -0.192515 6.71223e-21)
(0.332099 -0.187748 -6.63162e-21)
(0.348692 -0.183354 -6.29165e-21)
(0.365959 -0.179263 5.97506e-21)
(0.383767 -0.175424 -6.00648e-21)
(0.401995 -0.171796 0)
(0.42054 -0.168353 0)
(0.439312 -0.16508 0)
(0.458238 -0.161974 1.03259e-20)
(0.477261 -0.159034 -1.0178e-20)
(0.496345 -0.156262 0)
(0.515476 -0.153641 0)
(0.534643 -0.151131 0)
(0.553832 -0.148627 0)
(0.573161 -0.145776 -4.18873e-21)
(0.592952 -0.141764 -7.90921e-21)
(0.611759 -0.136712 4.29576e-21)
(0.315119 -0.358999 5.09373e-21)
(0.292711 -0.331548 -5.20021e-21)
(0.277058 -0.308135 -1.47326e-20)
(0.266835 -0.288392 1.45888e-20)
(0.261302 -0.2717 -4.61203e-21)
(0.259868 -0.257497 4.54395e-21)
(0.261983 -0.24534 1.79395e-22)
(0.267164 -0.234866 2.53981e-20)
(0.274988 -0.225771 -1.63019e-20)
(0.285083 -0.217804 7.98372e-21)
(0.297124 -0.210756 7.72383e-21)
(0.310823 -0.204453 7.32801e-21)
(0.325926 -0.19875 7.09226e-21)
(0.342208 -0.193529 -6.86251e-21)
(0.359472 -0.188689 1.35198e-20)
(0.37754 -0.184149 6.5418e-21)
(0.396254 -0.179845 6.21301e-21)
(0.415474 -0.175725 -6.0195e-21)
(0.435074 -0.171752 1.1755e-20)
(0.454941 -0.167902 -5.73899e-21)
(0.474976 -0.164168 0)
(0.495094 -0.160555 0)
(0.515226 -0.157086 0)
(0.535323 -0.153796 9.80157e-21)
(0.555363 -0.150732 -9.6635e-21)
(0.575343 -0.147946 0)
(0.595276 -0.145465 0)
(0.615368 -0.143076 4.18875e-21)
(0.636152 -0.139958 -7.87921e-21)
(0.656226 -0.136086 1.27097e-20)
(0.324992 -0.35118 6.8906e-23)
(0.303128 -0.325392 -5.33898e-21)
(0.288294 -0.303378 -1.0316e-20)
(0.279104 -0.284836 -4.85334e-21)
(0.274769 -0.269168 4.83952e-21)
(0.274659 -0.255824 -9.33393e-21)
(0.278195 -0.244375 -8.81783e-21)
(0.284865 -0.234472 -8.53065e-21)
(0.294224 -0.225823 0)
(0.305884 -0.218189 -1.59846e-20)
(0.319505 -0.211372 8.05091e-21)
(0.334787 -0.205206 -7.48682e-21)
(0.351469 -0.199554 7.52991e-21)
(0.369318 -0.194302 0)
(0.388131 -0.189356 -6.77029e-21)
(0.407725 -0.184637 6.69052e-21)
(0.42794 -0.180081 6.47479e-21)
(0.448631 -0.175637 0)
(0.46967 -0.171264 0)
(0.49094 -0.166935 0)
(0.512337 -0.162635 5.68069e-21)
(0.533765 -0.158366 -5.2611e-21)
(0.55514 -0.154147 1.06027e-20)
(0.576393 -0.150024 5.13225e-21)
(0.597473 -0.146074 0)
(0.618341 -0.142425 0)
(0.638978 -0.139265 -4.24411e-21)
(0.659616 -0.136602 1.29921e-20)
(0.681098 -0.133727 0)
(0.702423 -0.130711 0)
(0.334843 -0.343132 -1.02518e-20)
(0.313665 -0.31905 5.4795e-21)
(0.299778 -0.298482 5.14204e-21)
(0.291751 -0.281174 9.55983e-23)
(0.288741 -0.266545 -4.7205e-21)
(0.290074 -0.25406 9.33401e-21)
(0.295135 -0.243309 0)
(0.303387 -0.233959 0)
(0.314365 -0.225734 0)
(0.327662 -0.218409 -8.18035e-21)
(0.342926 -0.211796 1.60944e-22)
(0.359846 -0.20574 0)
(0.378154 -0.200113 -7.38689e-21)
(0.397611 -0.194809 0)
(0.418009 -0.189736 0)
(0.439166 -0.184821 -1.33925e-20)
(0.46092 -0.18 1.27123e-22)
(0.483128 -0.175221 0)
(0.505665 -0.170438 0)
(0.528419 -0.165616 5.88194e-21)
(0.551292 -0.160723 -1.14771e-20)
(0.574194 -0.155739 -1.65124e-20)
(0.597045 -0.150653 1.0859e-20)
(0.619775 -0.145467 -5.13228e-21)
(0.642318 -0.140207 0)
(0.664599 -0.134957 0)
(0.686516 -0.129885 -4.55731e-21)
(0.708161 -0.12503 -4.31155e-21)
(0.730389 -0.11989 7.69396e-21)
(0.752805 -0.115787 -8.28068e-21)
(0.540885 -0.0058577 8.06006e-22)
(0.537804 -0.0199716 1.06217e-21)
(0.534393 -0.033874 3.18209e-21)
(0.53065 -0.0475969 4.20749e-21)
(0.526567 -0.0611449 -2.11877e-21)
(0.522153 -0.0745144 2.09529e-21)
(0.517418 -0.0876999 4.04686e-23)
(0.512377 -0.100696 -4.15493e-21)
(0.507041 -0.113498 8.05511e-21)
(0.501423 -0.126101 -1.20923e-20)
(0.495534 -0.138503 7.86338e-21)
(0.489387 -0.150699 -1.17085e-20)
(0.482993 -0.162687 -1.14669e-20)
(0.476362 -0.174466 1.27578e-22)
(0.469505 -0.186035 1.74879e-22)
(0.46243 -0.197393 0)
(0.455148 -0.208539 7.12483e-21)
(0.447666 -0.219473 1.40379e-20)
(0.439993 -0.230196 -1.3825e-20)
(0.432135 -0.240708 6.6349e-21)
(0.424101 -0.25101 0)
(0.415895 -0.261102 -1.908e-20)
(0.407524 -0.270985 2.9441e-22)
(0.398993 -0.280661 1.24378e-20)