/*--------------------------------*- C++ -*----------------------------------*\
  =========                 |
  \\      /  F ield         | OpenFOAM: The Open Source CFD Toolbox
   \\    /   O peration     | Website:  https://openfoam.org
    \\  /    A nd           | Version:  6.0
     \\/     M anipulation  |
\*---------------------------------------------------------------------------*/
FoamFile
{
    version     2.0;
    format      ascii;
    class       volVectorField;
    location    "23";
    object      U;
}
// * * * * * * * * * * * * * * * * * * * * * * * * * * * * * * * * * * * * * //

dimensions      [0 1 -1 0 0 0 0];

internalField   nonuniform List<vector> 
2400
(
(1.33274 -8.32189 -8.88359e-19)
(0.376841 -7.60307 3.48401e-19)
(0.575482 -7.28483 -2.9795e-19)
(0.815908 -7.02383 -1.72491e-19)
(0.947848 -6.75667 -2.43729e-19)
(1.03745 -6.46915 3.36939e-19)
(1.10543 -6.17205 1.148e-19)
(1.15562 -5.88142 8.51563e-20)
(1.19651 -5.60862 -1.91652e-19)
(1.23048 -5.35894 -1.26511e-20)
(2.00206 -8.27078 1.03959e-18)
(1.00093 -7.72064 -4.63812e-20)
(1.17227 -7.42044 2.13915e-19)
(1.38338 -7.14126 1.64841e-18)
(1.48344 -6.85082 -1.13326e-18)
(1.54001 -6.54023 -5.22092e-20)
(1.57577 -6.22377 -1.50651e-20)
(1.59638 -5.91902 -1.2534e-19)
(1.61178 -5.63682 -1.66217e-19)
(1.62246 -5.38263 -1.87906e-20)
(2.67248 -8.16854 1.8999e-18)
(1.64292 -7.78552 1.50375e-18)
(1.78827 -7.50108 -3.82241e-18)
(1.96662 -7.20369 1.11508e-18)
(2.03072 -6.89193 1.5231e-18)
(2.0507 -6.56163 -8.56372e-19)
(2.05158 -6.22986 -6.46809e-19)
(2.04104 -5.91499 4.84369e-19)
(2.03005 -5.62694 -1.00672e-18)
(2.01588 -5.37201 9.45495e-19)
(3.33847 -8.01314 -6.55117e-18)
(2.29753 -7.79387 2.4652e-18)
(2.41761 -7.52319 -2.34406e-18)
(2.55961 -7.20833 1.0053e-18)
(2.58394 -6.87805 -1.00779e-18)
(2.56418 -6.53205 1.39286e-18)
(2.52801 -6.1894 5.12228e-19)
(2.4852 -5.86861 -1.97702e-18)
(2.4473 -5.57846 -1.60172e-18)
(2.407 -5.32726 1.6446e-18)
(3.99598 -7.80352 3.53381e-19)
(2.95947 -7.74293 -9.79329e-19)
(3.05439 -7.48432 -4.20822e-19)
(3.15647 -7.15361 -4.86628e-19)
(3.13761 -6.80834 -2.54276e-18)
(3.07545 -6.4511 3.62386e-19)
(3.00043 -6.10215 -2.25945e-19)
(2.92435 -5.77951 2.04884e-18)
(2.85877 -5.49093 -1.40036e-18)
(2.79099 -5.24806 -7.70487e-19)
(4.63977 -7.53882 5.94578e-18)
(3.62243 -7.63027 -4.81098e-19)
(3.69196 -7.38253 6.53587e-18)
(3.75087 -7.03844 -8.71147e-19)
(3.68611 -6.68257 3.1146e-18)
(3.57982 -6.31926 -3.7749e-19)
(3.46494 -5.969 1.90192e-20)
(3.35493 -5.64861 1.74361e-18)
(3.2606 -5.36487 -9.43069e-19)
(3.16392 -5.13382 1.2657e-18)
(5.26493 -7.21904 -2.34636e-18)
(4.2802 -7.45452 5.04686e-19)
(4.32355 -7.21662 -1.76751e-18)
(4.33604 -6.86219 -1.59833e-18)
(4.22313 -6.50073 2.18973e-20)
(4.07185 -6.13722 4.78773e-18)
(3.91753 -5.79147 -1.67662e-18)
(3.77461 -5.47804 5.74284e-19)
(3.65205 -5.20233 -2.34353e-18)
(3.52662 -4.98562 -1.03524e-18)
(5.86678 -6.84508 9.88375e-18)
(4.92682 -7.21512 -1.27044e-18)
(4.9426 -6.98602 -9.01562e-18)
(4.90523 -6.62445 4.73913e-19)
(4.74153 -6.26233 1.63152e-18)
(4.54384 -5.90433 -2.26531e-18)
(4.35047 -5.56886 -2.67633e-18)
(4.17731 -5.2675 3.92305e-18)
(4.03057 -5.00481 -3.58437e-19)
(3.88029 -4.81091 -2.84891e-18)
(6.44117 -6.41848 -8.13231e-18)
(5.55714 -6.91239 4.16121e-18)
(5.54382 -6.69122 5.68667e-18)
(5.45341 -6.32567 1.35816e-18)
(5.23606 -5.96711 -4.68746e-18)
(4.98883 -5.61866 2.83592e-18)
(4.75293 -5.29672 1.52897e-18)
(4.54683 -5.0109 3.03663e-18)
(4.37524 -4.77043 -1.9097e-18)
(4.2021 -4.62235 -2.42586e-18)
(6.98333 -5.94041 2.64056e-18)
(6.16589 -6.54736 -1.05287e-18)
(6.12268 -6.33405 -2.86054e-19)
(5.97766 -5.96788 1.30481e-18)
(5.70612 -5.61626 9.73549e-19)
(5.40813 -5.27916 -7.36768e-19)
(5.12457 -4.9706 -1.26085e-18)
(4.87169 -4.70138 1.9205e-18)
(4.64985 -4.49287 -1.56632e-18)
(4.42928 -4.40377 1.36245e-18)
(9.79275 0.831202 1.51217e-19)
(9.76614 0.0575978 4.74145e-19)
(9.67346 -0.708367 -1.49713e-18)
(9.52066 -1.4615 1.37166e-18)
(9.3112 -2.19415 5.40639e-19)
(9.04625 -2.90221 7.02404e-18)
(8.72799 -3.58196 -2.76999e-18)
(8.36003 -4.2293 -3.98117e-18)
(7.94434 -4.84081 4.52892e-18)
(7.48652 -5.41203 -7.85353e-18)
(9.90824 -0.315133 4.33847e-19)
(9.7917 -1.07414 -2.0693e-19)
(9.60647 -1.82028 -1.29065e-18)
(9.35707 -2.54703 3.44169e-18)
(9.04786 -3.24356 -1.20637e-18)
(8.68253 -3.90549 9.38029e-18)
(8.26488 -4.52859 -6.15266e-18)
(7.8 -5.10854 8.977e-18)
(7.29189 -5.64111 -6.49953e-18)
(6.7465 -6.12252 -3.39637e-18)
(9.54638 -0.304351 -8.14995e-19)
(9.46186 -1.02378 5.7074e-20)
(9.31194 -1.73658 -3.55798e-18)
(9.09792 -2.43462 2.7023e-18)
(8.82267 -3.10702 -3.00268e-18)
(8.49017 -3.74933 -5.91121e-18)
(8.10415 -4.35652 -2.08167e-18)
(7.66962 -4.9241 -1.50923e-18)
(7.19104 -5.44627 6.01451e-18)
(6.67392 -5.91768 3.52468e-18)
(8.93723 -0.221261 3.33098e-19)
(8.88576 -0.88792 -5.79647e-19)
(8.7743 -1.55224 -8.0787e-19)
(8.60227 -2.20614 -3.3226e-18)
(8.37208 -2.84073 2.19039e-18)
(8.0867 -3.45176 6.1073e-18)
(7.75018 -4.03423 2.47454e-18)
(7.36609 -4.58279 5.32013e-19)
(6.93902 -5.09117 1.45629e-18)
(6.47476 -5.55478 1.50171e-19)
(8.31961 -0.209963 -3.53319e-19)
(8.28275 -0.824563 -1.39226e-18)
(8.19129 -1.43801 1.24074e-19)
(8.04425 -2.04391 2.62344e-18)
(7.84421 -2.63501 2.86224e-18)
(7.59277 -3.20807 -1.9676e-18)
(7.29422 -3.75717 -3.52137e-18)
(6.95084 -4.27829 -1.87878e-18)
(6.56872 -4.76536 2.04705e-18)
(6.15202 -5.21355 3.28256e-18)
(7.77641 -0.204979 8.51017e-20)
(7.74363 -0.773449 1.13878e-18)
(7.66129 -1.34061 -2.68029e-18)
(7.52797 -1.90227 3.28868e-18)
(7.347 -2.45159 2.00556e-18)
(7.11804 -2.98719 3.85845e-18)
(6.84697 -3.50181 -8.22717e-19)
(6.53322 -3.99496 -2.40354e-18)
(6.18703 -4.45813 5.64766e-18)
(5.80887 -4.88914 -4.96037e-18)
(7.31965 -0.195458 1.67948e-19)
(7.28605 -0.724424 -1.23771e-18)
(7.20751 -1.25143 -8.01682e-19)
(7.08123 -1.77443 -1.75577e-18)
(6.9126 -2.28569 -2.51423e-19)
(6.69735 -2.78725 -2.54852e-18)
(6.44608 -3.26893 -1.68434e-18)
(6.15161 -3.73726 -2.78836e-19)
(5.83394 -4.17684 -3.3643e-18)
(5.48402 -4.59296 4.71037e-18)
(6.93684 -0.183732 -1.38338e-19)
(6.90058 -0.679619 1.01885e-18)
(6.82375 -1.17252 -4.54905e-19)
(6.70076 -1.66252 9.90339e-19)
(6.54098 -2.13965 2.40086e-18)
(6.33326 -2.6112 4.06474e-18)
(6.09738 -3.06129 -1.08192e-18)
(5.81192 -3.51 -3.98596e-18)
(5.51882 -3.92805 1.20844e-18)
(5.18386 -4.33829 -7.23255e-18)
(6.60989 -0.16617 1.95388e-19)
(6.57067 -0.635547 -2.32589e-19)
(6.49535 -1.10109 -2.24891e-18)
(6.37354 -1.56482 6.80794e-19)
(6.22145 -2.01364 -1.64247e-18)
(6.0163 -2.46088 -7.22217e-19)
(5.7935 -2.88199 -4.62597e-19)
(5.50504 -3.31774 1.82561e-18)
(5.23453 -3.71756 1.7644e-18)
(4.88799 -4.15312 1.44597e-18)
(6.32176 -0.152927 -4.407e-19)
(6.27845 -0.598906 7.65764e-19)
(6.20444 -1.04191 3.78335e-19)
(6.08159 -1.48616 1.04888e-18)
(5.9365 -1.91491 -1.085e-19)
(5.72807 -2.34764 -8.4382e-20)
(5.51554 -2.7482 -2.56545e-18)
(5.20793 -3.18063 3.47383e-18)
(4.95489 -3.55875 -2.24001e-18)
(4.55855 -4.06731 6.73065e-19)
(6.52049 7.73334 -4.56985e-18)
(7.11035 7.20351 4.74958e-18)
(7.64993 6.62295 -2.60908e-19)
(8.13597 5.99735 -7.95561e-18)
(8.56437 5.33178 5.74477e-18)
(8.9317 4.632 -3.96959e-18)
(9.23538 3.90353 -8.89123e-19)
(9.47406 3.15335 -8.34408e-19)
(9.64594 2.3882 1.33068e-18)
(9.75218 1.61206 9.47498e-20)
(7.29891 6.63944 5.52225e-18)
(7.83749 6.10182 1.05042e-18)
(8.32443 5.51352 -5.44117e-18)
(8.75504 4.8797 -5.60318e-18)
(9.1246 4.20539 4.61305e-18)
(9.42954 3.49726 -3.64704e-18)
(9.66674 2.7613 4.03684e-18)
(9.83407 2.00506 -1.13894e-18)
(9.93019 1.23831 -3.35909e-18)
(9.95511 0.460806 -2.31582e-19)
(6.86885 6.03728 -9.47177e-19)
(7.38477 5.56946 -7.40834e-19)
(7.85671 5.0516 3.05593e-18)
(8.27936 4.48727 2.81346e-18)
(8.64789 3.88063 6.05701e-18)
(8.95859 3.23784 1.90565e-18)
(9.20789 2.56401 -1.36403e-18)
(9.39278 1.86662 -2.85467e-18)
(9.51194 1.15381 2.27401e-18)
(9.56373 0.425492 1.62575e-19)
(6.30864 5.46365 1.39828e-18)
(6.78785 5.05854 -3.16725e-18)
(7.22942 4.60633 -1.22654e-18)
(7.62846 4.10917 -5.27307e-18)
(7.98074 3.57082 -2.74741e-18)
(8.28274 2.99673 5.13042e-18)
(8.53097 2.39154 3.24479e-18)
(8.72236 1.76168 -2.73168e-18)
(8.85558 1.11318 1.17012e-19)
(8.92787 0.448213 -1.15055e-19)
(5.88444 4.94836 -4.93843e-18)
(6.32103 4.58605 5.50101e-18)
(6.72315 4.18024 -1.38841e-18)
(7.0872 3.73187 2.78711e-18)
(7.41001 3.24502 -1.85116e-18)
(7.68837 2.7248 -3.02096e-18)
(7.91912 2.17551 1.42544e-18)
(8.09948 1.60237 -1.5264e-18)
(8.22801 1.01042 -1.44982e-18)
(8.30178 0.403325 6.10538e-19)
(5.56367 4.54176 -6.70464e-19)
(5.96284 4.21073 1.04399e-18)
(6.32775 3.83854 -1.21867e-18)
(6.65716 3.42567 -5.46731e-18)
(6.94952 2.97741 2.92367e-18)
(7.20184 2.49863 4.60513e-19)
(7.41116 1.99305 -2.56093e-18)
(7.5749 1.4651 -8.68933e-19)
(7.69175 0.919608 7.80776e-19)
(7.75906 0.360633 -2.24153e-19)
(5.31154 4.2241 -2.67569e-18)
(5.68087 3.91834 -1.011e-20)
(6.0148 3.57074 1.22146e-18)
(6.31402 3.1843 3.10318e-18)
(6.57917 2.76623 6.27004e-19)
(6.80766 2.32018 1.50326e-18)
(6.99665 1.84913 2.89449e-18)
(7.14364 1.35735 -1.22307e-18)
(7.24774 0.849755 1.02477e-18)
(7.30635 0.330246 -3.83019e-19)
(5.1018 3.97089 -9.18693e-19)
(5.44298 3.69043 1.05475e-18)
(5.75335 3.35973 1.01728e-18)
(6.02929 2.99322 -1.46049e-18)
(6.27232 2.59994 -7.87414e-19)
(6.4807 2.18011 -1.70871e-18)
(6.65246 1.73622 1.53824e-19)
(6.78503 1.27317 -3.76778e-19)
(6.87801 0.796248 -2.1768e-18)
(6.92826 0.308891 2.90515e-19)
(4.94175 3.75706 -3.3555e-19)
(5.23519 3.51282 -1.80167e-18)
(5.5217 3.19328 -6.90094e-19)
(5.78164 2.84319 3.07737e-19)
(6.00751 2.47224 -1.83527e-19)
(6.19874 2.07464 1.51125e-18)
(6.35617 1.65283 5.91948e-19)
(6.47725 1.21297 8.68298e-19)
(6.56172 0.760938 1.01824e-18)
(6.6051 0.299601 -4.14183e-19)
(4.90029 3.52678 -1.25371e-18)
(5.11375 3.32291 2.13263e-18)
(5.34738 3.01331 -3.36059e-18)
(5.58789 2.68042 -7.52247e-20)
(5.79543 2.33312 2.66515e-18)
(5.96481 1.9603 1.26005e-19)
(6.10367 1.56355 1.13079e-18)
(6.21084 1.14901 -2.32534e-18)
(6.28569 0.722866 -1.88948e-20)
(6.32129 0.287336 2.0287e-19)
(1.12502 4.59582 7.11052e-20)
(1.08139 4.79123 -2.53783e-20)
(1.04142 5.01171 -1.69022e-20)
(0.986901 5.27345 1.90225e-19)
(0.918457 5.60587 -8.54228e-20)
(0.835295 6.05821 -3.08214e-19)
(0.744654 6.70127 3.55827e-19)
(0.709919 7.59814 1.2219e-19)
(0.56303 8.6767 1.8676e-19)
(-0.790019 9.62489 7.91999e-19)
(1.48115 4.62589 1.84991e-19)
(1.45647 4.83289 -5.25081e-19)
(1.43476 5.06468 5.26639e-19)
(1.40264 5.33876 1.10613e-19)
(1.36273 5.68428 -2.25158e-19)
(1.31741 6.14967 2.4852e-19)
(1.27902 6.80256 8.87969e-19)
(1.31468 7.69404 -1.12945e-18)
(1.24909 8.74966 3.91657e-20)
(-0.0352327 9.72244 -9.47168e-19)
(1.84639 4.62912 7.97492e-19)
(1.84135 4.84545 -9.98638e-19)
(1.83918 5.08603 -3.94157e-19)
(1.83126 5.36967 -3.42657e-20)
(1.82183 5.72529 -3.95554e-19)
(1.81619 6.20023 -1.71569e-19)
(1.83129 6.85831 2.93431e-19)
(1.93635 7.73819 8.17936e-19)
(1.94791 8.76393 6.1803e-19)
(0.729387 9.75715 -1.74086e-18)
(2.22219 4.59247 7.83292e-19)
(2.23631 4.81847 -8.43938e-19)
(2.25404 5.06826 -8.32652e-19)
(2.27131 5.36091 4.8495e-19)
(2.29343 5.72504 2.52563e-18)
(2.32847 6.20668 -9.88595e-19)
(2.39753 6.86556 7.76748e-19)
(2.57034 7.72795 -2.59106e-18)
(2.65433 8.71772 -2.90386e-18)
(1.49856 9.72839 3.31638e-18)
(2.59978 4.53323 5.94932e-19)
(2.63337 4.76488 -3.79543e-19)
(2.67233 5.01925 1.10535e-18)
(2.71665 5.31625 -9.67097e-19)
(2.77207 5.68449 7.28214e-19)
(2.84921 6.16834 6.26981e-19)
(2.97274 6.8227 6.08118e-19)
(3.21142 7.66134 4.70675e-19)
(3.36281 8.60932 1.83719e-18)
(2.26676 9.63511 1.56956e-18)
(2.98864 4.42043 -1.8551e-18)
(3.03894 4.66302 -4.73948e-19)
(3.09752 4.92562 2.00966e-18)
(3.16793 5.22803 -2.20216e-18)
(3.25607 5.59931 -1.01395e-18)
(3.37498 6.08247 -2.47448e-18)
(3.55228 6.72773 1.31258e-19)
(3.85403 7.53686 -2.58109e-18)
(4.06729 8.43788 -3.04884e-19)
(3.02809 9.47697 -4.80639e-18)
(3.36791 4.29939 2.74294e-18)
(3.43627 4.54409 -4.32264e-18)
(3.51642 4.80576 2.37684e-18)
(3.61519 5.10545 1.20379e-18)
(3.7379 5.4733 -2.73597e-19)
(3.89959 5.95009 3.39498e-18)
(4.13026 6.58032 -2.17356e-18)
(4.49213 7.35372 -5.36107e-18)
(4.76133 8.20275 -7.359e-19)
(3.77662 9.25372 4.42635e-18)
(3.77025 4.10175 -1.84076e-20)
(3.84619 4.36545 2.06896e-18)
(3.93947 4.63649 -9.73267e-19)
(4.06155 4.93741 9.92129e-19)
(4.21625 5.30162 1.00041e-18)
(4.41914 5.76914 -1.64087e-18)
(4.7013 6.3795 1.17055e-18)
(5.1194 7.11161 -2.59617e-18)
(5.4384 7.90455 7.01009e-18)
(4.50609 8.96681 -2.29877e-18)
(4.14371 3.93493 -1.31378e-18)
(4.23263 4.19292 -6.35973e-19)
(4.34301 4.45167 2.82821e-18)
(4.4932 4.7389 -4.02048e-18)
(4.68261 5.0903 3.93694e-18)
(4.92694 5.54183 -1.99852e-18)
(5.25905 6.12611 -3.35763e-18)
(5.72914 6.81098 7.21966e-19)
(6.09155 7.54378 -1.20956e-17)
(5.21071 8.61635 8.44369e-18)
(4.5628 3.67491 3.43274e-18)
(4.62334 3.95046 -2.87052e-18)
(4.73615 4.21749 2.93224e-18)
(4.91203 4.49773 -2.34013e-19)
(5.13403 4.83583 -3.01162e-18)
(5.4176 5.26767 -1.55394e-18)
(5.79702 5.8203 1.7589e-18)
(6.31473 6.45229 4.64104e-18)
(6.71454 7.12181 5.76736e-18)
(5.88395 8.20628 2.74082e-20)
(-1.48095 3.0517 -5.82304e-19)
(-1.61898 3.05596 4.11058e-19)
(-1.76835 3.11293 -2.05388e-19)
(-1.95022 3.20746 4.83758e-19)
(-2.18932 3.3485 4.32206e-19)
(-2.52326 3.57067 7.73284e-19)
(-3.00361 3.94036 1.22842e-18)
(-3.65988 4.58559 7.44066e-19)
(-4.65298 5.45382 1.21951e-18)
(-6.73488 5.76116 -8.76657e-19)
(-1.3476 3.26764 3.77402e-19)
(-1.47869 3.29864 4.21898e-19)
(-1.61134 3.37952 -6.42454e-19)
(-1.78044 3.49199 -3.7306e-19)
(-2.00714 3.65173 -7.20748e-19)
(-2.32431 3.89885 1.43049e-18)
(-2.77789 4.30376 -6.71203e-19)
(-3.38502 4.99414 -1.73568e-18)
(-4.30235 5.91877 -1.49964e-18)
(-6.32172 6.32923 2.23236e-18)
(-1.1554 3.46614 -1.13181e-19)
(-1.28644 3.52828 1.12323e-19)
(-1.41447 3.62996 -1.03209e-18)
(-1.57766 3.76104 6.78437e-19)
(-1.79477 3.94219 6.73865e-19)
(-2.09516 4.21638 -4.5646e-19)
(-2.5197 4.65682 -1.2921e-20)
(-3.07392 5.38925 3.14304e-18)
(-3.91122 6.36285 5.88121e-19)
(-5.86197 6.86709 -1.75053e-18)
(-0.935582 3.66672 -1.10687e-18)
(-1.06466 3.75073 6.81588e-19)
(-1.18819 3.86897 -1.78989e-19)
(-1.34487 4.01774 5.53681e-19)
(-1.55148 4.22038 -1.4964e-18)
(-1.83382 4.52162 -4.28674e-21)
(-2.22687 4.99648 2.76038e-19)
(-2.72505 5.76728 7.93724e-21)
(-3.47934 6.78235 -1.55077e-19)
(-5.35747 7.37126 2.36403e-18)
(-0.696841 3.85964 9.98733e-19)
(-0.820887 3.96157 3.26198e-20)
(-0.937644 4.09552 -5.95192e-19)
(-1.08547 4.26166 1.57484e-20)
(-1.27914 4.48518 1.04129e-19)
(-1.5408 4.81244 -1.1281e-18)
(-1.89925 5.31977 3.31928e-19)
(-2.33807 6.1245 -3.66449e-19)
(-3.00689 7.17312 -5.53481e-20)
(-4.80983 7.83751 -2.99499e-18)
(-0.438332 4.03592 -2.70291e-20)
(-0.554567 4.15571 8.0755e-19)
(-0.662765 4.30577 -7.83177e-19)
(-0.799906 4.48941 7.50359e-20)
(-0.978369 4.73339 -1.92009e-19)
(-1.21665 5.08559 1.03817e-18)
(-1.53735 5.62314 2.18673e-19)
(-1.91367 6.45691 1.26187e-19)
(-2.49528 7.5309 8.96926e-19)
(-4.22154 8.26168 6.14748e-19)
(-0.159617 4.19303 -6.41034e-19)
(-0.265592 4.33056 6.87093e-19)
(-0.363686 4.49658 3.24964e-20)
(-0.488415 4.69755 1.10471e-18)
(-0.649535 4.96151 -6.48356e-19)
(-0.861876 5.33745 4.88001e-19)
(-1.14177 5.90262 -4.73675e-19)
(-1.45308 6.76036 1.15593e-18)
(-1.9464 7.85133 1.1872e-18)
(-3.59547 8.63981 1.36011e-18)
(0.138048 4.32956 -4.39232e-19)
(0.044633 4.48371 5.04893e-19)
(-0.041693 4.66496 -2.46548e-19)
(-0.152077 4.88274 -1.93985e-19)
(-0.293573 5.16592 4.65035e-19)
(-0.477382 5.56414 -8.10593e-19)
(-0.713677 6.15405 -6.05614e-19)
(-0.957846 7.03033 2.16027e-18)
(-1.36284 8.13016 -4.33979e-19)
(-2.93547 8.96849 -1.56555e-18)
(0.452406 4.44435 -4.77394e-19)
(0.373785 4.61359 9.88394e-20)
(0.301138 4.80897 6.17828e-20)
(0.207267 5.04257 2.15565e-22)
(0.087803 5.3437 -3.10996e-19)
(-0.0648784 5.76226 1.03839e-18)
(-0.254903 6.37362 -1.02991e-18)
(-0.430263 7.26276 -1.42271e-19)
(-0.74759 8.36331 1.96443e-20)
(-2.24487 9.24426 -1.26723e-18)
(0.782093 4.53324 1.56767e-19)
(0.720187 4.71624 2.32716e-20)
(0.663023 4.92488 -5.24569e-20)
(0.587791 5.17338 -7.87245e-20)
(0.492713 5.49115 -2.15635e-19)
(0.373644 5.92791 1.66628e-19)
(0.232271 6.55708 1.04715e-19)
(0.126872 7.45315 2.03201e-19)
(-0.104326 8.54685 -2.81666e-19)
(-1.52916 9.46449 2.5767e-19)
(-1.52411 2.74826 -4.75742e-19)
(-1.74898 2.41398 1.95211e-19)
(-1.87927 2.1172 -1.08107e-19)
(-2.02838 1.82813 -1.20685e-19)
(-2.14982 1.54091 -5.82818e-20)
(-2.26201 1.2539 3.35562e-21)
(-2.36025 0.964649 -3.20971e-20)
(-2.44791 0.671963 -2.86608e-20)
(-2.52473 0.374516 -1.82263e-20)
(-2.59091 0.0713901 1.05642e-20)
(-1.71325 2.78115 -3.78471e-19)
(-1.89481 2.46731 -1.92378e-19)
(-2.02252 2.16845 -3.19032e-19)
(-2.15984 1.87419 2.40821e-20)
(-2.27521 1.58258 1.02282e-19)
(-2.38233 1.29284 1.3368e-19)
(-2.47706 1.00194 -4.23706e-20)
(-2.56236 0.70866 1.38015e-19)
(-2.63783 0.411202 1.9934e-20)
(-2.70351 0.108261 -1.47028e-20)
(-1.90014 2.82446 1.06367e-18)
(-2.05804 2.51846 -1.02503e-19)
(-2.18507 2.2205 4.6707e-19)
(-2.31168 1.92306 8.98494e-20)
(-2.42138 1.62834 -4.19259e-19)
(-2.5225 1.3359 -2.0891e-19)
(-2.61257 1.04316 -8.91032e-20)
(-2.69382 0.748861 4.66981e-20)
(-2.76599 0.450955 -9.96181e-20)
(-2.82902 0.14787 1.28388e-20)
(-2.10007 2.90615 2.7037e-19)
(-2.24992 2.59651 5.72217e-19)
(-2.37749 2.29272 2.57785e-20)
(-2.49744 1.98895 2.26353e-19)
(-2.60271 1.68835 2.93427e-19)
(-2.69811 1.3902 2.95353e-20)
(-2.78292 1.09272 2.05462e-19)
(-2.85884 0.794572 9.06552e-20)
(-2.92592 0.493713 1.2548e-19)
(-2.98421 0.188393 -2.08364e-20)
(-2.35089 3.03366 9.67471e-19)
(-2.50026 2.71392 -1.06165e-18)
(-2.62935 2.39757 -8.85459e-20)
(-2.74585 2.08225 1.15441e-19)
(-2.84753 1.77061 -1.52061e-19)
(-2.93754 1.46187 -2.53233e-19)
(-3.01637 1.15487 -3.95772e-19)
(-3.08549 0.848298 3.40441e-19)
(-3.14535 0.540255 -3.5609e-20)
(-3.19622 0.228942 -1.55223e-20)
(-2.69827 3.23454 -1.74684e-18)
(-2.85351 2.89528 9.67118e-19)
(-2.98708 2.55762 3.4451e-19)
(-3.10366 2.22189 5.22885e-20)
(-3.20336 1.89012 3.15093e-19)
(-3.28873 1.5619 -4.33341e-19)
(-3.36095 1.23658 -3.7798e-19)
(-3.42152 0.913042 -8.49257e-21)
(-3.47126 0.589689 7.11806e-20)
(-3.51071 0.264866 4.96501e-20)
(-3.20064 3.57002 -4.84989e-19)
(-3.37172 3.1969 -2.69142e-19)
(-3.51719 2.82408 -9.45663e-20)
(-3.64052 2.45343 3.34654e-19)
(-3.7429 2.08661 -1.03598e-18)
(-3.82672 1.72389 -3.79482e-19)
(-3.89355 1.36516 5.12366e-19)
(-3.94501 1.00973 1.1839e-19)
(-3.98223 0.65654 8.73336e-20)
(-4.00606 0.304287 -5.20192e-20)
(-3.9004 4.16742 -1.51382e-18)
(-4.10842 3.74432 -1.35893e-18)
(-4.28467 3.31889 2.17623e-18)
(-4.4321 2.89403 4.32991e-19)
(-4.55235 2.47146 1.58344e-18)
(-4.64755 2.05231 4.03867e-20)
(-4.7194 1.63716 -4.32406e-19)
(-4.76953 1.22612 5.74208e-19)
(-4.79927 0.818835 1.04019e-20)
(-4.80969 0.414685 1.41235e-19)
(-4.96234 4.972 8.57004e-20)
(-5.23109 4.47921 2.20613e-18)
(-5.46045 3.97856 -2.12307e-18)
(-5.65241 3.47368 1.44342e-18)
(-5.80854 2.96678 -1.96123e-18)
(-5.93022 2.46006 2.30474e-19)
(-6.01888 1.9551 -6.75681e-19)
(-6.07588 1.4532 2.36527e-19)
(-6.10255 0.955182 4.49396e-20)
(-6.09977 0.461575 -7.84811e-20)
(-7.09798 5.16573 6.62847e-19)
(-7.40817 4.55212 -1.9393e-18)
(-7.67034 3.92222 8.54633e-19)
(-7.88286 3.28113 -6.73199e-19)
(-8.04672 2.63189 3.36813e-19)
(-8.16187 1.9782 1.45781e-18)
(-8.229 1.32322 1.77064e-19)
(-8.24884 0.670126 3.87903e-19)
(-8.22238 0.021761 -2.00949e-19)
(-8.14999 -0.619199 -4.48876e-20)
(-2.64544 -0.238033 2.71828e-21)
(-2.68675 -0.554039 -2.86477e-20)
(-2.71289 -0.87636 2.09359e-19)
(-2.72145 -1.20387 -1.43426e-19)
(-2.70959 -1.53448 1.28564e-20)
(-2.67388 -1.86519 -1.91505e-19)
(-2.60882 -2.19343 8.63021e-19)
(-2.50612 -2.51819 1.16708e-19)
(-2.36122 -2.83145 -3.4556e-19)
(-2.18285 -3.11386 7.12554e-19)
(-2.75827 -0.201272 3.52267e-20)
(-2.80034 -0.518062 -1.03175e-19)
(-2.82748 -0.842188 -8.40782e-20)
(-2.83688 -1.17291 -7.85046e-20)
(-2.82531 -1.50864 -2.52069e-19)
(-2.78936 -1.847 -3.40063e-20)
(-2.725 -2.18549 -2.56216e-20)
(-2.62587 -2.52158 3.71905e-19)
(-2.48401 -2.8511 7.37692e-19)
(-2.30157 -3.17779 -1.77628e-20)
(-2.88187 -0.161875 -3.04263e-20)
(-2.92281 -0.479292 2.65531e-19)
(-2.94963 -0.804865 5.53626e-20)
(-2.95955 -1.13837 -9.72497e-21)
(-2.94934 -1.47886 2.84414e-19)
(-2.9156 -1.82482 1.36324e-19)
(-2.85458 -2.1742 3.15031e-19)
(-2.76146 -2.52408 -1.97628e-19)
(-2.63086 -2.87256 -6.76799e-19)
(-2.46185 -3.2266 -1.75942e-18)
(-3.03292 -0.123135 4.92989e-20)
(-3.07053 -0.442224 -1.27273e-19)
(-3.09501 -0.769793 1.91839e-19)
(-3.10378 -1.1062 -4.81483e-19)
(-3.09373 -1.45119 -2.76811e-19)
(-3.06146 -1.804 -1.06281e-19)
(-3.00309 -2.16314 -7.29787e-19)
(-2.91432 -2.5263 -3.19425e-19)
(-2.79147 -2.89259 1.10171e-20)
(-2.63361 -3.2653 6.00136e-19)
(-3.23763 -0.0875167 3.57101e-20)
(-3.2684 -0.410723 9.41094e-21)
(-3.28676 -0.741958 1.431e-19)
(-3.29046 -1.08208 4.78689e-19)
(-3.27667 -1.43148 -8.80857e-20)
(-3.24208 -1.79001 -8.1662e-19)
(-3.18296 -2.1568 1.36677e-18)
(-3.09529 -2.53049 -4.31169e-19)
(-2.97593 -2.91055 -4.53644e-19)
(-2.82358 -3.29733 -2.25116e-19)
(-3.5398 -0.0632376 -9.20454e-20)
(-3.55785 -0.396297 1.0492e-19)
(-3.56343 -0.735765 2.81444e-19)
(-3.55485 -1.08287 -2.56128e-19)
(-3.52964 -1.43842 6.52993e-19)
(-3.48501 -1.80284 -6.79617e-20)
(-3.41761 -2.17594 6.55947e-20)
(-3.32386 -2.55716 4.47391e-19)
(-3.20083 -2.94616 3.45768e-19)
(-3.04662 -3.34207 1.8557e-19)
(-4.01689 -0.0485002 1.84615e-20)
(-4.01475 -0.403213 -1.94045e-20)
(-3.99858 -0.761202 5.27472e-19)
(-3.9675 -1.12377 -6.2532e-19)
(-3.91975 -1.49195 -1.12203e-18)
(-3.85325 -1.86652 6.12378e-19)
(-3.7654 -2.24786 -3.00531e-19)
(-3.65338 -2.63604 3.87773e-19)
(-3.51454 -3.03097 1.11193e-18)
(-3.34664 -3.43174 -1.13579e-18)
(-4.80147 0.0130084 -3.13879e-20)
(-4.77547 -0.386566 -4.36633e-19)
(-4.73105 -0.784916 5.76745e-19)
(-4.66838 -1.18293 3.14638e-19)
(-4.58666 -1.58154 -1.02833e-18)
(-4.48474 -1.98134 -8.43749e-19)
(-4.36125 -2.38301 -9.47306e-20)
(-4.21439 -2.78692 3.93002e-20)
(-4.04222 -3.19332 3.87909e-19)
(-3.8427 -3.60179 -3.7742e-19)
(-6.06778 -0.0265523 4.00951e-20)
(-6.00825 -0.507661 7.01162e-19)
(-5.92146 -0.98179 2.89711e-19)
(-5.80847 -1.44862 -9.17718e-19)
(-5.66956 -1.90825 9.19986e-19)
(-5.5049 -2.36048 -1.29603e-18)
(-5.31439 -2.80525 1.50841e-18)
(-5.09802 -3.24293 -1.83083e-18)
(-4.85525 -3.67381 -9.99721e-19)
(-4.58484 -4.09747 -3.04327e-18)
(-8.03099 -1.24966 -1.98682e-20)
(-7.86756 -1.86379 -2.8527e-19)
(-7.66194 -2.46226 2.32235e-19)
(-7.41539 -3.0415 2.41359e-19)
(-7.12942 -3.59983 -5.25158e-19)
(-6.80559 -4.13496 5.3559e-19)
(-6.44569 -4.64513 -7.16018e-19)
(-6.0518 -5.12904 6.07587e-19)
(-5.62599 -5.58583 -1.5034e-18)
(-5.16927 -6.01386 1.59803e-18)
(-4.68174 -6.40949 2.50295e-18)
(-4.28565 -4.51176 -1.46144e-18)
(-3.61378 -4.01059 -1.19901e-18)
(-3.1476 -3.83572 1.51614e-18)
(-2.85986 -3.74117 -6.83518e-20)
(-2.6384 -3.6867 1.25676e-18)
(-2.44339 -3.64201 3.85269e-20)
(-2.26185 -3.5918 -8.4768e-19)
(-2.09235 -3.53203 1.26369e-18)
(-1.97107 -3.44988 -2.46516e-19)
(-4.17011 -6.76874 -2.81799e-18)
(-3.95866 -4.91459 5.73134e-18)
(-3.3541 -4.41681 -4.01847e-19)
(-2.91524 -4.23887 -1.34198e-18)
(-2.63869 -4.13781 9.08547e-19)
(-2.41984 -4.07007 -1.85155e-18)
(-2.22411 -4.00712 1.89566e-18)
(-2.04362 -3.93596 -1.26576e-18)
(-1.88254 -3.85381 3.47352e-19)
(-1.77408 -3.74798 7.21313e-19)
(-3.63341 -7.09572 1.75483e-18)
(-3.60207 -5.30494 -3.53563e-18)
(-3.06105 -4.81748 1.25718e-18)
(-2.64714 -4.63727 -5.4361e-19)
(-2.38094 -4.52774 8.64694e-19)
(-2.16529 -4.44382 -6.0715e-19)
(-1.97027 -4.35966 -4.67087e-19)
(-1.79131 -4.26482 5.17238e-19)
(-1.632 -4.15847 -1.03755e-18)
(-1.51752 -4.03299 1.18973e-18)
(-3.07439 -7.38747 -3.91219e-18)
(-3.21526 -5.68063 4.74139e-19)
(-2.73317 -5.20908 1.19047e-18)
(-2.34194 -5.02613 1.39611e-18)
(-2.08592 -4.90536 -2.16113e-18)
(-1.87517 -4.80186 1.31171e-19)
(-1.68383 -4.69333 -7.60786e-19)
(-1.50945 -4.57264 -1.31482e-18)
(-1.3544 -4.44152 2.47626e-18)
(-1.23755 -4.29714 5.72258e-19)
(-2.49399 -7.64331 2.89457e-18)
(-2.79691 -6.03918 5.75245e-19)
(-2.3688 -5.58747 1.71612e-18)
(-1.99845 -5.40036 -6.46826e-20)
(-1.75302 -5.2654 1.73197e-18)
(-1.54916 -5.13934 7.76729e-19)
(-1.36419 -5.00415 1.47636e-18)
(-1.1972 -4.8563 -1.35838e-18)
(-1.0495 -4.70005 -6.53417e-20)
(-0.934263 -4.53642 -8.78203e-19)
(-1.89401 -7.86133 2.11609e-18)
(-2.34639 -6.37694 -1.87858e-18)
(-1.96715 -5.94772 -2.50751e-19)
(-1.61652 -5.75438 -4.8713e-19)
(-1.3829 -5.60222 -4.7142e-19)
(-1.18869 -5.45106 -5.08792e-19)
(-1.01354 -5.28764 7.90898e-19)
(-0.857404 -5.11231 -8.51104e-19)
(-0.720318 -4.93159 7.49068e-19)
(-0.610334 -4.74913 4.40788e-20)
(-1.27609 -8.04002 -3.78653e-18)
(-1.8634 -6.69006 -1.3835e-18)
(-1.52805 -6.28455 2.33497e-18)
(-1.19673 -6.08249 -7.14674e-19)
(-0.976891 -5.91038 8.71396e-19)
(-0.795602 -5.73225 -2.27398e-18)
(-0.634008 -5.53989 1.63555e-18)
(-0.492374 -5.33747 -5.03651e-19)
(-0.369264 -5.1334 7.21803e-19)
(-0.268281 -4.93272 -7.832e-19)
(-0.642196 -8.17771 1.75569e-18)
(-1.34826 -6.97415 -5.97698e-19)
(-1.05221 -6.59232 -7.5949e-19)
(-0.740682 -6.37887 -2.98311e-19)
(-0.537324 -6.18456 1.94451e-19)
(-0.372732 -5.97839 3.81425e-19)
(-0.228658 -5.75733 -6.89722e-19)
(-0.105043 -5.52915 4.19913e-19)
(0.00125543 -5.30374 9.94177e-19)
(0.0900566 -5.08672 -8.2099e-19)
(0.00562645 -8.27261 1.42024e-18)
(-0.801795 -7.22457 -3.15316e-20)
(-0.541143 -6.86537 1.24273e-18)
(-0.250824 -6.63795 -9.8286e-19)
(-0.0673229 -6.41983 2.78188e-19)
(0.0764739 -6.18547 -2.90749e-19)
(0.198999 -5.93685 -1.1741e-19)
(0.301168 -5.68499 -6.04221e-19)
(0.387952 -5.44076 6.13692e-19)
(0.461387 -5.2098 4.55575e-19)
(0.66506 -8.32203 -2.7704e-19)
(-0.225659 -7.4361 -2.04286e-19)
(0.00265191 -7.09804 -1.3653e-19)
(0.269444 -6.85454 -4.3988e-19)
(0.429217 -6.61182 4.01838e-19)
(0.54799 -6.35004 1.02279e-19)
(0.645056 -6.07581 -2.50134e-19)
(0.722634 -5.80298 1.9008e-20)
(0.787523 -5.54291 -1.02715e-19)
(0.842629 -5.30106 4.16783e-21)
(1.16896 -4.64685 -1.21882e-20)
(1.00996 -3.68009 -3.50909e-21)
(0.981487 -3.01078 8.4466e-21)
(0.960523 -2.4407 -3.2719e-21)
(0.907484 -1.91904 1.72105e-22)
(0.853576 -1.47813 -6.84381e-23)
(0.800369 -1.11455 -1.23907e-22)
(0.754067 -0.823598 2.46545e-22)
(0.716276 -0.596801 -1.30333e-22)
(0.687469 -0.424309 5.47963e-24)
(0.667182 -0.296072 8.88118e-23)
(0.653212 -0.203007 1.76271e-23)
(0.646372 -0.136772 -4.25955e-24)
(0.642575 -0.0926652 -6.37176e-23)
(0.646325 -0.0611142 9.94847e-24)
(0.651961 -0.0440013 -4.30194e-23)
(0.660354 -0.0252626 1.59134e-23)
(0.668183 -0.0136645 1.64642e-23)
(0.670904 0.00411496 -3.61128e-23)
(0.655368 0.0358258 -5.33888e-23)
(1.47755 -4.68075 8.44244e-20)
(1.2076 -3.70971 2.16751e-20)
(1.09003 -3.01983 -1.63835e-20)
(1.02456 -2.44321 3.28203e-21)
(0.943308 -1.91701 -3.89941e-21)
(0.867927 -1.47239 -6.95123e-22)
(0.80058 -1.10845 -8.19223e-23)
(0.744904 -0.818312 2.85588e-22)
(0.701004 -0.59274 -2.30871e-22)
(0.66821 -0.421463 -9.66372e-23)
(0.645293 -0.294222 -4.77932e-23)
(0.629647 -0.201964 2.84631e-23)
(0.621623 -0.136326 -1.49885e-22)
(0.61712 -0.0927266 -8.94544e-23)
(0.620291 -0.0616302 5.76836e-23)
(0.625479 -0.0446489 6.24321e-23)
(0.632891 -0.0259389 -1.49022e-22)
(0.640308 -0.0140628 2.60386e-22)
(0.640509 0.00460152 8.33941e-23)
(0.625486 0.0363799 1.25329e-22)
(1.78838 -4.69334 -1.74309e-19)
(1.41245 -3.73444 7.09335e-20)
(1.20451 -3.03172 7.98088e-20)
(1.0912 -2.44839 -2.28024e-20)
(0.981383 -1.91805 1.81389e-21)
(0.884359 -1.46951 -3.01254e-21)
(0.802468 -1.10457 -4.53978e-22)
(0.737251 -0.814733 2.82608e-22)
(0.687158 -0.58992 1.41649e-22)
(0.650308 -0.419465 1.02449e-22)
(0.624691 -0.292924 -2.4912e-23)
(0.607305 -0.201255 -1.42539e-23)
(0.598044 -0.136066 2.08078e-22)
(0.59281 -0.0928783 -1.20847e-22)
(0.595371 -0.0621679 -1.695e-22)
(0.600034 -0.0452642 1.86548e-22)
(0.606461 -0.0265687 -6.53764e-23)
(0.6133 -0.0143501 -1.49615e-22)
(0.611 0.00515858 -3.0052e-22)
(0.596684 0.0369193 2.03902e-22)
(2.09983 -4.68712 -5.21814e-20)
(1.62473 -3.75153 1.41156e-19)
(1.32623 -3.04182 -5.83742e-20)
(1.16155 -2.45332 -1.20559e-20)
(1.02227 -1.92068 7.31219e-21)
(0.903322 -1.46904 -3.07935e-23)
(0.806364 -1.10282 7.08606e-22)
(0.731323 -0.812843 2.66408e-22)
(0.674889 -0.588333 -3.21842e-22)
(0.633871 -0.41831 -4.11435e-23)
(0.605456 -0.292168 5.11965e-23)
(0.586247 -0.200874 -2.00435e-24)
(0.575677 -0.135983 -5.06399e-23)
(0.56967 -0.0931155 2.08723e-22)
(0.571571 -0.0627211 6.93813e-23)
(0.575632 -0.0458447 -1.37682e-22)
(0.581061 -0.0271474 -1.4444e-22)
(0.587163 -0.0145257 -3.63551e-22)
(0.58242 0.00577333 4.59641e-22)
(0.568991 0.0374343 -4.3327e-22)
(2.41031 -4.65828 1.42265e-20)
(1.84513 -3.74936 1.27168e-20)
(1.45594 -3.03952 3.95416e-21)
(1.23586 -2.45218 2.71719e-20)
(1.0659 -1.92224 9.45417e-21)
(0.924936 -1.46996 5.72189e-21)
(0.812478 -1.10286 -1.36563e-21)
(0.727284 -0.812516 4.92171e-23)
(0.664314 -0.587932 -1.48432e-22)
(0.618983 -0.417972 4.48336e-23)
(0.587651 -0.29194 3.51854e-23)
(0.566516 -0.200808 -2.99505e-22)
(0.554555 -0.136071 -1.48909e-22)
(0.54772 -0.0934319 3.57585e-22)
(0.548894 -0.0632838 3.52911e-22)
(0.552276 -0.0463885 -1.99257e-22)
(0.556685 -0.027672 5.67638e-22)
(0.561907 -0.0145925 1.07069e-22)
(0.554816 0.00643033 1.54206e-22)
(0.542437 0.0379139 -4.07016e-23)
(2.71976 -4.59451 -4.36692e-19)
(2.07362 -3.71673 -5.88801e-20)
(1.59256 -3.02125 4.62159e-20)
(1.31303 -2.44552 -7.41371e-20)
(1.11151 -1.92347 -2.58648e-20)
(0.948982 -1.47244 -1.84145e-20)
(0.820876 -1.10459 2.43332e-21)
(0.725235 -0.813634 1.33792e-22)
(0.655513 -0.588641 -2.02953e-22)
(0.605703 -0.418408 -3.75108e-23)
(0.571315 -0.292211 -1.6272e-22)
(0.548142 -0.201039 2.57596e-22)
(0.534698 -0.136319 -2.01399e-22)
(0.526968 -0.093819 -2.94459e-22)
(0.527338 -0.0638494 -2.32163e-22)
(0.529967 -0.046894 3.6754e-22)
(0.533328 -0.0281402 5.41232e-23)
(0.537544 -0.0145557 2.06749e-22)
(0.528232 0.00711403 -3.07237e-22)
(0.517046 0.0383485 1.55153e-22)
(3.02857 -4.49788 4.43272e-19)
(2.30707 -3.67999 1.43286e-19)
(1.73415 -3.01576 -8.956e-21)
(1.39267 -2.45336 9.4483e-20)
(1.15916 -1.93476 -2.87283e-20)
(0.975628 -1.48065 3.61756e-21)
(0.831726 -1.10944 5.90049e-21)