/*--------------------------------*- C++ -*----------------------------------*\
| =========                 |                                                 |
| \\      /  F ield         | OpenFOAM: The Open Source CFD Toolbox           |
|  \\    /   O peration     | Version:  v1912                                 |
|   \\  /    A nd           | Website:  www.openfoam.com                      |
|    \\/     M anipulation  |                                                 |
\*---------------------------------------------------------------------------*/
FoamFile
{
    version     2.0;
    format      ascii;
    class       volScalarField;
    location    "26.5";
    object      p;
}
// * * * * * * * * * * * * * * * * * * * * * * * * * * * * * * * * * * * * * //

dimensions      [0 2 -2 0 0 0 0];


internalField   nonuniform List<scalar> 
9600
(
-41.3418
-36.0699
-32.8359
-30.0917
-27.5813
-25.3114
-23.2534
-21.3793
-19.6712
-18.1153
-16.6988
-15.4096
-14.2361
-13.1674
-12.1934
-11.3046
-10.4925
-9.74911
-9.06692
-8.44375
-42.087
-36.798
-33.5288
-30.7426
-28.188
-25.8748
-23.7763
-21.8651
-20.1239
-18.5386
-17.0963
-15.7844
-14.5911
-13.5049
-12.5154
-11.6128
-10.7882
-10.0334
-9.34033
-8.70814
-42.834
-37.5224
-34.2166
-31.3881
-28.789
-26.4324
-24.2933
-22.3452
-20.571
-18.9567
-17.4889
-16.1547
-14.9417
-13.8384
-12.8336
-11.9173
-11.0804
-10.3142
-9.61031
-8.96928
-43.5796
-38.2425
-34.8986
-32.0272
-29.3833
-26.9832
-24.8035
-22.8187
-21.0118
-19.3687
-17.8757
-16.5196
-15.2874
-14.1671
-13.1472
-12.2175
-11.3685
-10.591
-9.87644
-9.22684
-44.321
-38.9569
-35.574
-32.659
-29.97
-27.5262
-25.3061
-23.2847
-21.4455
-19.774
-18.2562
-16.8785
-15.6274
-14.4905
-13.4559
-12.513
-11.652
-10.8634
-10.1384
-9.48054
-45.0559
-39.6641
-36.2415
-33.2824
-30.5479
-28.0605
-25.8
-23.7425
-21.8712
-20.1717
-18.6296
-17.2307
-15.9611
-14.808
-13.759
-12.8032
-11.9306
-11.1312
-10.3958
-9.73012
-45.7827
-40.3627
-36.8999
-33.8962
-31.1161
-28.585
-26.2845
-24.191
-22.2881
-20.5612
-18.9952
-17.5755
-16.2879
-15.1189
-14.056
-13.0877
-12.2038
-11.3937
-10.6483
-9.97531
-46.5
-41.0513
-37.5481
-34.4993
-31.6735
-29.0989
-26.7584
-24.6295
-22.6955
-20.9415
-19.3521
-17.9122
-16.6071
-15.4227
-14.3462
-13.3659
-12.471
-11.6507
-10.8956
-10.2158
-47.2062
-41.7287
-38.1847
-35.0907
-32.2191
-29.601
-27.2211
-25.057
-23.0924
-21.3119
-19.6997
-18.2402
-16.918
-15.7187
-14.6291
-13.6371
-12.7317
-11.9016
-11.1373
-10.4512
-47.9003
-42.3937
-38.8087
-35.6693
-32.7519
-30.0906
-27.6714
-25.4727
-23.478
-21.6716
-20.0372
-18.5585
-17.2198
-16.0062
-14.904
-13.9008
-12.9854
-12.1459
-11.3728
-10.6812
-48.5811
-43.0451
-39.4191
-36.234
-33.2709
-30.5666
-28.1087
-25.8758
-23.8516
-22.0198
-20.3637
-18.8664
-17.5117
-16.2842
-15.1699
-14.1561
-13.2312
-12.3828
-11.6015
-10.9052
-49.2477
-43.6821
-40.0148
-36.784
-33.7752
-31.0282
-28.5319
-26.2655
-24.2122
-22.3557
-20.6785
-19.1631
-17.7929
-16.552
-15.4261
-14.4021
-13.4682
-12.6116
-11.8226
-11.1222
-49.8994
-44.3037
-40.595
-37.3183
-34.264
-31.4746
-28.9404
-26.6408
-24.5592
-22.6784
-20.9805
-19.4476
-18.0623
-16.8085
-15.6715
-14.6379
-13.6956
-12.8313
-12.0353
-11.3317
-50.5357
-44.9092
-41.1588
-37.8361
-34.7365
-31.905
-29.3333
-27.0012
-24.8916
-22.9871
-21.269
-19.7189
-18.319
-17.0527
-15.9048
-14.862
-13.9119
-13.0406
-12.2384
-11.5329
-51.1559
-45.4978
-41.7054
-38.3368
-35.1919
-32.3188
-29.71
-27.3459
-25.2089
-23.2811
-21.5432
-19.9763
-18.5619
-17.2832
-16.1247
-15.0729
-14.1151
-13.2372
-12.4298
-11.724
-51.7597
-46.0685
-42.2341
-38.8196
-35.6297
-32.7153
-30.0701
-27.6744
-25.5105
-23.5598
-21.8025
-20.2188
-18.7901
-17.499
-16.3299
-15.269
-14.3036
-13.4192
-12.6067
-11.8996
-52.3483
-46.6216
-42.7444
-39.284
-36.0492
-33.0939
-30.4128
-27.9862
-25.7959
-23.8227
-22.046
-20.4458
-19.0027
-17.6992
-16.5193
-15.4494
-14.4768
-13.5863
-12.768
-12.0564
-52.926
-47.1579
-43.2353
-39.7286
-36.4495
-33.454
-30.7377
-28.2809
-26.0648
-24.0694
-22.2736
-20.6565
-19.1986
-17.8819
-16.6908
-15.6117
-14.6321
-13.736
-12.9128
-12.2056
-53.495
-47.677
-43.7052
-40.1526
-36.8302
-33.7956
-31.0452
-28.559
-26.3176
-24.3004
-22.4854
-20.8512
-19.3774
-18.0459
-16.8409
-15.7492
-14.7578
-13.851
-13.0265
-12.3512
-54.0334
-48.1713
-44.1533
-40.5564
-37.1926
-34.1204
-31.3368
-28.8221
-26.5563
-24.5178
-22.6839
-21.0322
-19.5418
-18.1938
-16.9715
-15.8605
-14.8458
-13.9139
-13.0787
-12.4094
-59.4062
-59.375
-59.3065
-59.2152
-59.1004
-58.9597
-58.7924
-58.5991
-58.3804
-58.1368
-57.8688
-57.577
-57.2622
-56.9249
-56.5659
-56.186
-55.7865
-55.369
-54.9364
-54.4918
-53.0677
-53.0651
-53.0297
-52.9673
-52.8783
-52.7625
-52.6199
-52.4513
-52.2574
-52.0389
-51.7962
-51.53
-51.2411
-50.9299
-50.5971
-50.2434
-49.8695
-49.4758
-49.0629
-48.6288
-48.44
-48.4614
-48.454
-48.4181
-48.3551
-48.2658
-48.151
-48.0111
-47.8469
-47.6588
-47.4476
-47.2137
-46.9577
-46.6801
-46.3815
-46.0623
-45.7228
-45.3631
-44.9828
-44.5801
-44.2283
-44.2672
-44.2799
-44.2658
-44.2258
-44.161
-44.072
-43.9594
-43.8238
-43.6656
-43.4854
-43.2837
-43.0611
-42.8179
-42.5547
-42.2716
-41.9689
-41.6465
-41.3041
-40.941
-40.3366
-40.3852
-40.4102
-40.4109
-40.3876
-40.3411
-40.2722
-40.1814
-40.069
-39.9356
-39.7818
-39.608
-39.4147
-39.2022
-38.971
-38.7213
-38.4532
-38.1666
-37.8614
-37.537
-36.8431
-36.8958
-36.9271
-36.9363
-36.9235
-36.8893
-36.8343
-36.7591
-36.664
-36.5496
-36.4164
-36.2648
-36.0953
-35.9083
-35.7041
-35.483
-35.245
-34.9901
-34.7181
-34.4285
-33.7382
-33.7908
-33.824
-33.8369
-33.8295
-33.8024
-33.7562
-33.6914
-33.6084
-33.5077
-33.3897
-33.255
-33.104
-32.9371
-32.7547
-32.557
-32.3441
-32.1161
-31.8726
-31.6132
-30.9848
-31.0347
-31.0666
-31.0797
-31.0742
-31.0506
-31.0094
-30.951
-30.8759
-30.7845
-30.6774
-30.5551
-30.4179
-30.2665
-30.1012
-29.9224
-29.7301
-29.5243
-29.3049
-29.0712
-28.5432
-28.5887
-28.6175
-28.6289
-28.623
-28.6004
-28.5615
-28.5067
-28.4365
-28.3513
-28.2518
-28.1383
-28.0115
-27.8718
-27.7199
-27.5559
-27.3803
-27.193
-26.9937
-26.7819
-26.3738
-26.4142
-26.439
-26.4475
-26.4401
-26.417
-26.3787
-26.3257
-26.2583
-26.1772
-26.0828
-25.9757
-25.8565
-25.7258
-25.5842
-25.4322
-25.2701
-25.0982
-24.916
-24.723
-24.4396
-24.4748
-24.4952
-24.5005
-24.4908
-24.4664
-24.4279
-24.3755
-24.3098
-24.2313
-24.1404
-24.0379
-23.9244
-23.8006
-23.6671
-23.5247
-23.3738
-23.2148
-23.0474
-22.871
-22.7078
-22.738
-22.7542
-22.7562
-22.744
-22.7181
-22.6787
-22.6264
-22.5616
-22.4848
-22.3964
-22.2973
-22.1881
-22.0695
-21.9425
-21.8078
-21.6663
-21.5184
-21.3641
-21.2027
-21.1502
-21.1759
-21.1882
-21.187
-21.1724
-21.1448
-21.1046
-21.0521
-20.9877
-20.912
-20.8255
-20.7289
-20.623
-20.5085
-20.3866
-20.2582
-20.1246
-19.9863
-19.8439
-19.6964
-19.7432
-19.7648
-19.7736
-19.7695
-19.7527
-19.7236
-19.6825
-19.6296
-19.5655
-19.4907
-19.4056
-19.3109
-19.2075
-19.0963
-18.9784
-18.8551
-18.7279
-18.598
-18.4665
-18.3324
-18.467
-18.4849
-18.4905
-18.4839
-18.4652
-18.4347
-18.3928
-18.3397
-18.2758
-18.2016
-18.1176
-18.0245
-17.9231
-17.8143
-17.6995
-17.5801
-17.4582
-17.3353
-17.2141
-17.0931
-17.305
-17.3196
-17.3225
-17.3136
-17.2932
-17.2616
-17.2189
-17.1656
-17.1019
-17.0283
-16.9453
-16.8534
-16.7535
-16.6465
-16.5339
-16.4172
-16.2991
-16.1819
-16.07
-15.962
-16.2435
-16.2551
-16.2556
-16.2447
-16.2229
-16.1902
-16.1469
-16.0934
-16.0299
-15.9567
-15.8744
-15.7835
-15.6846
-15.5787
-15.4672
-15.3519
-15.2361
-15.1225
-15.0185
-14.922
-15.2705
-15.2798
-15.2783
-15.266
-15.2431
-15.2097
-15.1661
-15.1126
-15.0493
-14.9767
-14.895
-14.8049
-14.7067
-14.6015
-14.4903
-14.375
-14.2594
-14.1473
-14.05
-13.9623
-14.3751
-14.3829
-14.3805
-14.3677
-14.3447
-14.3116
-14.2688
-14.2163
-14.1543
-14.0833
-14.0034
-13.9151
-13.8188
-13.7151
-13.605
-13.49
-13.3737
-13.2611
-13.1705
-13.0966
-13.5518
-13.5564
-13.5514
-13.5369
-13.5128
-13.4793
-13.4367
-13.385
-13.3245
-13.2554
-13.1779
-13.0923
-12.9988
-12.8978
-12.7898
-12.6759
-12.5578
-12.4407
-12.3438
-12.2937
-53.2012
-53.7681
-54.2982
-54.8138
-55.3118
-55.7864
-56.2346
-56.6554
-57.0479
-57.4112
-57.7447
-58.0477
-58.3201
-58.5614
-58.7711
-58.9492
-59.0965
-59.2142
-59.3043
-59.3686
-46.7308
-47.3032
-47.8478
-48.3705
-48.8708
-49.3462
-49.7954
-50.2176
-50.6122
-50.9785
-51.316
-51.6244
-51.904
-52.1552
-52.3765
-52.5669
-52.7271
-52.8573
-52.9583
-53.0286
-42.1035
-42.6638
-43.2008
-43.7148
-44.2057
-44.6728
-45.1154
-45.5326
-45.924
-46.2888
-46.6261
-46.9357
-47.2174
-47.4698
-47.694
-47.8903
-48.0586
-48.1984
-48.3095
-48.3905
-37.9969
-38.5323
-39.0485
-39.5433
-40.0163
-40.4672
-40.8953
-41.3001
-41.6808
-42.037
-42.3673
-42.6712
-42.9497
-43.2022
-43.4288
-43.6294
-43.8035
-43.9508
-44.071
-44.1636
-34.3354
-34.8413
-35.3304
-35.8002
-36.2497
-36.6785
-37.0861
-37.4718
-37.835
-38.175
-38.4925
-38.787
-39.0572
-39.3031
-39.5249
-39.7224
-39.8952
-40.0432
-40.1662
-40.2642
-31.1512
-31.6262
-32.086
-32.5282
-32.9515
-33.3555
-33.7397
-34.1036
-34.4466
-34.7686
-35.0693
-35.3481
-35.6044
-35.8383
-36.0503
-36.24
-36.4066
-36.5503
-36.671
-36.7688
-28.392
-28.8367
-29.2673
-29.6816
-30.0783
-30.4569
-30.817
-31.158
-31.4796
-31.7814
-32.0631
-32.3244
-32.5651
-32.7848
-32.9833
-33.1624
-33.3204
-33.4567
-33.5718
-33.6657
-25.9914
-26.4077
-26.8107
-27.1985
-27.5696
-27.9237
-28.2601
-28.5786
-28.8787
-29.1601
-29.4227
-29.6662
-29.8906
-30.0956
-30.2813
-30.4461
-30.5936
-30.7212
-30.8287
-30.9167
-23.8911
-24.2814
-24.6592
-25.0224
-25.3698
-25.7008
-26.0151
-26.3121
-26.5918
-26.8537
-27.0979
-27.3241
-27.5323
-27.7225
-27.8945
-28.0484
-28.1828
-28.3005
-28.3998
-28.4808
-22.0413
-22.4082
-22.7632
-23.1041
-23.4299
-23.7398
-24.0336
-24.3108
-24.5714
-24.8152
-25.0421
-25.2521
-25.445
-25.6209
-25.7797
-25.9214
-26.0457
-26.153
-26.2438
-26.3175
-20.4006
-20.7467
-21.0813
-21.4023
-21.7085
-21.9993
-22.2743
-22.5335
-22.7766
-23.0037
-23.2147
-23.4096
-23.5884
-23.7512
-23.8977
-24.0281
-24.1423
-24.2403
-24.3228
-24.3894
-18.9355
-19.2631
-19.5798
-19.8831
-20.1717
-20.4451
-20.7031
-20.9457
-21.1729
-21.3847
-21.5812
-21.7623
-21.9283
-22.0789
-22.2143
-22.3344
-22.4393
-22.5291
-22.6034
-22.6633
-17.6191
-17.9304
-18.2315
-18.5192
-18.7919
-19.0495
-19.2919
-19.5194
-19.732
-19.9298
-20.113
-20.2817
-20.4359
-20.5756
-20.7009
-20.8117
-20.908
-20.9899
-21.0571
-21.111
-16.4297
-16.7269
-17.0147
-17.2885
-17.5468
-17.7899
-18.0181
-18.2316
-18.4308
-18.6158
-18.7869
-18.9442
-19.0877
-19.2175
-19.3336
-19.436
-19.5247
-19.5998
-19.6615
-19.7089
-15.3504
-15.6355
-15.912
-16.1734
-16.4184
-16.6481
-16.863
-17.0635
-17.2503
-17.4235
-17.5835
-17.7304
-17.8643
-17.9851
-18.0929
-18.1877
-18.2695
-18.3383
-18.3942
-18.4369
-14.3663
-14.6431
-14.9106
-15.1603
-15.3927
-15.6096
-15.8119
-16.0003
-16.1754
-16.3377
-16.4875
-16.6249
-16.7499
-16.8625
-16.9629
-17.0508
-17.1263
-17.1895
-17.2403
-17.2787
-13.4598
-13.7356
-13.9982
-14.2367
-14.4566
-14.6614
-14.8517
-15.0285
-15.1928
-15.345
-15.4853
-15.614
-15.731
-15.8363
-15.9299
-16.0117
-16.0817
-16.1398
-16.1861
-16.2206
-12.6104
-12.8905
-13.1544
-13.3838
-13.592
-13.7853
-13.9647
-14.1312
-14.2858
-14.4292
-14.5615
-14.6828
-14.7931
-14.8922
-14.9802
-15.0569
-15.1223
-15.1763
-15.2191
-15.2505
-11.8307
-12.1019
-12.3669
-12.5916
-12.7899
-12.972
-13.1411
-13.2983
-13.4444
-13.58
-13.7053
-13.8202
-13.9248
-14.0188
-14.1021
-14.1747
-14.2365
-14.2874
-14.3274
-14.3567
-11.2456
-11.4949
-11.7214
-11.9362
-12.123
-12.2877
-12.4405
-12.5837
-12.7167
-12.84
-12.9538
-13.0583
-13.1531
-13.238
-13.313
-13.378
-13.433
-13.4778
-13.5123
-13.5366
-5.90376
-6.39162
-6.92673
-7.50612
-8.13628
-8.82464
-9.57894
-10.4087
-11.3261
-12.3469
-13.4915
-14.7867
-16.2679
-17.9808
-19.9855
-22.3606
-25.1867
-28.4856
-32.476
-38.4659
-6.1712
-6.6723
-7.21766
-7.80881
-8.45241
-9.1556
-9.92623
-10.7741
-11.7116
-12.7548
-13.9244
-15.2477
-16.7604
-18.5087
-20.5528
-22.9713
-25.8436
-29.1885
-33.2168
-39.2272
-6.44012
-6.95447
-7.51018
-8.11333
-8.77063
-9.4889
-10.2761
-11.1423
-12.1002
-13.1662
-14.3612
-15.7129
-17.2574
-19.0414
-21.1252
-23.5871
-26.5052
-29.895
-33.9593
-39.9858
-6.71003
-7.23756
-7.80372
-8.41908
-9.0903
-9.82384
-10.6279
-11.5126
-12.4912
-13.58
-14.8007
-16.1811
-17.7577
-19.5775
-21.7011
-24.2063
-27.17
-30.6045
-34.706
-40.7532
-6.98048
-7.52113
-8.09781
-8.72559
-9.41092
-10.1599
-10.9809
-11.8845
-12.8838
-13.9958
-15.2422
-16.6514
-18.2603
-20.1161
-22.2795
-24.828
-27.8372
-31.3165
-35.4558
-41.527
-7.25112
-7.80476
-8.39203
-9.03243
-9.73207
-10.4967
-11.3348
-12.2573
-13.2776
-14.4128
-15.6852
-17.1234
-18.7646
-20.6565
-22.8598
-25.4516
-28.5061
-32.03
-36.2069
-42.303
-7.52162
-8.0881
-8.68601
-9.33922
-10.0533
-10.8337
-11.6891
-12.6306
-13.672
-14.8306
-16.129
-17.5963
-19.2699
-21.198
-23.4412
-26.0761
-29.1759
-32.7439
-36.9576
-43.0789
-7.79175
-8.37086
-8.97943
-9.64561
-10.3743
-11.1706
-12.0434
-13.004
-14.0664
-15.2486
-16.5731
-18.0694
-19.7756
-21.7398
-24.0228
-26.7008
-29.8454
-33.4571
-37.7069
-43.8533
-8.06134
-8.65283
-9.27204
-9.95133
-10.6948
-11.507
-12.3971
-13.3769
-14.4605
-15.6661
-17.0167
-18.5421
-20.2807
-22.281
-24.6037
-27.3245
-30.5136
-34.1685
-38.4535
-44.6246
-8.33036
-8.93392
-9.5637
-10.2562
-11.0144
-11.8426
-12.7501
-13.7489
-14.8536
-16.0826
-17.4592
-19.0137
-20.7847
-22.8209
-25.183
-27.9463
-31.1794
-34.8768
-39.1962
-45.3915
-8.59892
-9.21415
-9.85434
-10.56
-11.333
-12.177
-13.1018
-14.1196
-15.2453
-16.4976
-17.9001
-19.4834
-21.2866
-23.3585
-25.7599
-28.5652
-31.8417
-35.581
-39.9335
-46.1525
-8.86729
-9.49369
-10.144
-10.8628
-11.6504
-12.5101
-13.4519
-14.4886
-15.6351
-16.9104
-18.3386
-19.9506
-21.7857
-23.893
-26.3332
-29.1801
-32.4994
-36.2797
-40.6643
-46.9061
-9.13597
-9.7728
-10.4328
-11.1645
-11.9664
-12.8415
-13.8002
-14.8553
-16.0223
-17.3204
-18.774
-20.4144
-22.2811
-24.4235
-26.902
-29.7899
-33.1513
-36.9718
-41.3871
-47.6511
-9.40565
-10.0519
-10.7209
-11.465
-12.2808
-13.1709
-14.146
-15.2193
-16.4064
-17.727
-19.2057
-20.874
-22.772
-24.949
-27.4653
-30.3936
-33.7962
-37.656
-42.1008
-48.3861
-9.67707
-10.3313
-11.0082
-11.7641
-12.5932
-13.4978
-14.4888
-15.5798
-16.7867
-18.1293
-19.6326
-21.3286
-23.2573
-25.4684
-28.022
-30.9898
-34.4329
-38.3311
-42.8041
-49.11
-9.95116
-10.6112
-11.2945
-12.0612
-12.903
-13.8215
-14.8279
-15.9361
-17.1623
-18.5265
-20.054
-21.7771
-23.7361
-25.9807
-28.5708
-31.5774
-35.06
-38.9958
-43.496
-49.8218
-10.2276
-10.8904
-11.5783
-12.355
-13.2089
-14.1408
-15.1622
-16.2873
-17.5323
-18.9176
-20.4689
-22.2185
-24.2072
-26.4847
-29.1106
-32.1551
-35.6763
-39.6488
-44.1753
-50.521
-10.5057
-11.1664
-11.8571
-12.6436
-13.5096
-14.4547
-15.4907
-16.6322
-17.8957
-19.3017
-20.8762
-22.6519
-24.6696
-26.9792
-29.6401
-32.7215
-36.28
-40.2884
-44.841
-51.2074
-10.7779
-11.4306
-12.1246
-12.9235
-13.803
-14.7614
-15.812
-16.9697
-18.2513
-19.6776
-21.2748
-23.0759
-25.122
-27.4629
-30.1578
-33.275
-36.8697
-40.9128
-45.4918
-51.8827
-11.0253
-11.6634
-12.3765
-13.1959
-14.0895
-15.0608
-16.1255
-17.2991
-18.5984
-20.0444
-21.6637
-23.4896
-25.5632
-27.9346
-30.6623
-33.8138
-37.4429
-41.5189
-46.1232
-52.5484
-1.54641
-1.80171
-2.15131
-2.54243
-2.96382
-3.42094
-3.9202
-4.46757
-5.07066
-5.73978
-6.48894
-7.33718
-8.31061
-9.44517
-10.7915
-12.4234
-14.43
-16.8714
-20.0537
-25.4532
-1.69756
-1.96905
-2.33668
-2.73341
-3.15797
-3.62019
-4.1261
-4.6813
-5.29351
-5.97334
-6.73503
-7.59796
-8.58866
-9.74359
-11.1139
-12.7741
-14.813
-17.2892
-20.5032
-25.9159
-1.84251
-2.13787
-2.5184
-2.92304
-3.35513
-3.82551
-4.3401
-4.90471
-5.52743
-6.21919
-6.99457
-7.87334
-8.88248
-10.059
-11.4545
-13.1438
-15.2157
-17.7267
-20.9716
-26.3924
-2.00935
-2.3154
-2.70396
-3.11713
-3.5582
-4.0379
-4.56228
-5.13744
-5.77178
-6.47656
-7.26669
-8.16233
-9.19094
-10.39
-11.8118
-13.5313
-15.6371
-18.1842
-21.4633
-26.9013
-2.18736
-2.50037
-2.89658
-3.31851
-3.76887
-4.25832
-4.79313
-5.37963
-6.02647
-6.74517
-7.55099
-8.46448
-9.51355
-10.7362
-12.1853
-13.9361
-16.0771
-18.6617
-21.9776
-27.4391
-2.37078
-2.69224
-3.09659
-3.52744
-3.98735
-4.487
-5.03283
-5.63136
-6.29145
-7.0249
-7.84728
-8.77954
-9.85005
-11.0974
-12.5748
-14.3581
-16.5354
-19.1588
-22.5127
-28.0008
-2.56114
-2.89191
-3.30432
-3.74409
-4.21382
-4.7241
-5.28146
-5.89261
-6.56663
-7.31556
-8.15532
-9.10722
-10.2001
-11.4731
-12.9799
-14.7968
-17.0116
-19.6748
-23.0677
-28.584
-2.75983
-3.09989
-3.52013
-3.96881
-4.44855
-4.96976
-5.53907
-6.16335
-6.85188
-7.61698
-8.47485
-9.44721
-10.5634
-11.863
-13.4003
-15.2518
-17.5052
-20.2093
-23.6418
-29.1876
-2.96665
-3.31604
-3.74407
-4.20169
-4.6916
-5.22402
-5.80563
-6.44348
-7.14706
-7.92892
-8.8056
-9.79919
-10.9395
-12.2666
-13.8353
-15.7225
-18.0156
-20.7616
-24.2344
-29.8105
-3.18102
-3.54004
-3.97595
-4.44261
-4.94286
-5.48673
-6.08099
-6.73282
-7.45194
-8.25114
-9.14727
-10.1628
-11.328
-12.6835
-14.2846
-16.2085
-18.5422
-21.3309
-24.8447
-30.4518
-3.40251
-3.77154
-4.21547
-4.69129
-5.20208
-5.75767
-6.36489
-7.03112
-7.76624
-8.58332
-9.4995
-10.5377
-11.7286
-13.1133
-14.7476
-16.7091
-19.0842
-21.9165
-25.4719
-31.1103
-3.63075
-4.01017
-4.46227
-4.9474
-5.46894
-6.03652
-6.65703
-7.33803
-8.08961
-8.92507
-9.86189
-10.9234
-12.1406
-13.5553
-15.2238
-17.2236
-19.6411
-22.5177
-26.115
-31.785
-3.86528
-4.25545
-4.7159
-5.21053
-5.74306
-6.32291
-6.95703
-7.65316
-8.42163
-9.27597
-10.234
-11.3194
-12.5637
-14.0091
-15.7125
-17.7515
-20.2122
-23.1337
-26.7733
-32.475
-4.10558
-4.50687
-4.97587
-5.48022
-6.02398
-6.61638
-7.26443
-7.97607
-8.76184
-9.63554
-10.6153
-11.7251
-12.9972
-14.4741
-16.213
-18.2921
-20.7966
-23.7637
-27.446
-33.1794
-4.35111
-4.76388
-5.24165
-5.75594
-6.31121
-6.91644
-7.57875
-8.30626
-9.10974
-10.0032
-11.0052
-12.1402
-13.4405
-14.9496
-16.7248
-18.8446
-21.3936
-24.4069
-28.132
-33.8974
-4.60132
-5.02592
-5.51269
-6.03717
-6.60422
-7.22258
-7.89946
-8.6432
-9.46478
-10.3785
-11.4033
-12.5638
-13.8931
-15.4348
-17.2471
-19.4082
-22.0023
-25.0623
-28.8308
-34.6282
-4.85568
-5.29242
-5.78841
-6.32335
-6.90246
-7.53425
-8.22601
-8.98632
-9.82639
-10.7608
-11.8087
-12.9953
-14.3541
-15.9292
-17.779
-19.9821
-22.6219
-25.7292
-29.5414
-35.3711
-5.11362
-5.5628
-6.06825
-6.6139
-7.20535
-7.85087
-8.55783
-9.33505
-10.194
-11.1495
-12.221
-13.4342
-14.8229
-16.4319
-18.3199
-20.5655
-23.2514
-26.4063
-30.263
-36.126
-5.37462
-5.83648
-6.35162
-6.90825
-7.51233
-8.17186
-8.89433
-9.68876
-10.5669
-11.5438
-12.6393
-13.8795
-15.2987
-16.942
-18.8686
-21.1571
-23.8897
-27.0926
-30.9946
-36.8934
-5.63817
-6.11295
-6.63798
-7.20587
-7.82286
-8.49668
-9.23494
-10.0469
-10.9445
-11.9432
-13.0632
-14.3307
-15.7808
-17.4588
-19.4244
-21.7562
-24.5355
-27.7864
-31.7335
-37.6741
-1.30095
-1.09729
-0.946197
-0.812054
-0.694456
-0.590851
-0.500131
-0.421507
-0.354477
-0.298685
-0.253865
-0.219804
-0.196326
-0.183287
-0.180539
-0.18787
-0.205119
-0.232542
-0.269921
-0.317322
-1.632
-1.45144
-1.2964
-1.15713
-1.03479
-0.926817
-0.832227
-0.750218
-0.680278
-0.622029
-0.57519
-0.539536
-0.51488
-0.501067
-0.497948
-0.505349
-0.523135
-0.551344
-0.589886
-0.638735
-1.96661
-1.79391
-1.63894
-1.49857
-1.37417
-1.26408
-1.16759
-1.08402
-1.0129
-0.953863
-0.90663
-0.87098
-0.846723
-0.833698
-0.831755
-0.840741
-0.860546
-0.891136
-0.932418
-0.984337
-2.35281
-2.17857
-2.02067
-1.87743
-1.74953
-1.63601
-1.53639
-1.4501
-1.37674
-1.31596
-1.26748
-1.23109
-1.20658
-1.19379
-1.19256
-1.20275
-1.22423
-1.25694
-1.30075
-1.35562
-2.77453
-2.59799
-2.43628
-2.28921
-2.15721
-2.03974
-1.93647
-1.84698
-1.77091
-1.70795
-1.65785
-1.62037
-1.59532
-1.58252
-1.58182
-1.59306
-1.61612
-1.65089
-1.69724
-1.75512
-3.22953
-3.04994
-2.88422
-2.73297
-2.59664
-2.47503
-2.36793
-2.27505
-2.19609
-2.13079
-2.0789
-2.04021
-2.01452
-2.00167
-2.00148
-2.01379
-2.03849
-2.07543
-2.12447
-2.18555
-3.72406
-3.53995
-3.3695
-3.21348
-3.0724
-2.94627
-2.83501
-2.73841
-2.65627
-2.58835
-2.53443
-2.49433
-2.46784
-2.4548
-2.45503
-2.46839
-2.49472
-2.53388
-2.58572
-2.65019
-4.265
-4.0749
-3.89865
-3.73702
-3.5905
-3.45926
-3.34329
-3.24249
-3.1567
-3.08575
-3.02943
-2.98758
-2.96001
-2.94654
-2.94702
-2.96128
-2.98918
-3.03054
-3.08521
-3.15316
-4.86012
-4.6626
-4.47934
-4.31104
-4.1582
-4.02104
-3.89965
-3.79399
-3.70395
-3.6294
-3.57018
-3.52612
-3.49705
-3.48282
-3.48325
-3.49819
-3.52748
-3.57094
-3.62841
-3.69987
-5.51964
-5.31314
-5.12147
-4.94524
-4.78495
-4.64087
-4.51312
-4.40173
-4.30665
-4.22777
-4.16496
-4.11809
-4.08698
-4.07149
-4.07145
-4.08671
-4.11709
-4.16242
-4.22253
-4.29742
-6.25735
-6.0401
-5.83836
-5.65267
-5.48353
-5.33122
-5.19592
-5.0777
-4.97653
-4.89235
-4.82506
-4.77453
-4.74063
-4.72319
-4.72206
-4.73709
-4.7681
-4.81491
-4.87733
-4.95541
-7.09199
-6.86189
-6.64809
-6.45108
-6.27133
-6.10917
-5.96478
-5.83827
-5.72967
-5.63892
-5.56596
-5.51067
-5.47293
-5.45259
-5.4495
-5.46351
-5.49444
-5.54208
-5.60626
-5.68706
-8.04929
-7.80383
-7.57556
-7.3649
-7.17237
-6.99828
-6.84285
-6.70621
-6.58841
-6.48943
-6.40922
-6.34769
-6.30472
-6.28017
-6.27391
-6.28577
-6.31558
-6.3631
-6.42816
-6.51091
-9.16468
-8.90081
-8.65511
-8.42798
-8.21994
-8.03132
-7.86237
-7.71322
-7.58397
-7.4746
-7.38509
-7.31536
-7.2653
-7.23479
-7.22369
-7.23183
-7.25905
-7.30507
-7.36973
-7.4532
-10.4882
-10.2023
-9.93554
-9.68845
-9.46155
-9.25518
-9.0696
-8.90498
-8.7614
-8.6389
-8.53744
-8.45696
-8.39738
-8.35856
-8.34038
-8.34268
-8.36526
-8.40785
-8.47023
-8.55267
-12.093
-11.7807
-11.4887
-11.2175
-10.9677
-10.7397
-10.5338
-10.3501
-10.1886
-10.0496
-9.93286
-9.83843
-9.7662
-9.71607
-9.68789
-9.68152
-9.69676
-9.73329
-9.7909
-9.86983
-14.0677
-13.7243
-13.4024
-13.1027
-12.8257
-12.5718
-12.3414
-12.1346
-11.9515
-11.7921
-11.6565
-11.5445
-11.4561
-11.3913
-11.3498
-11.3316
-11.3364
-11.364
-11.4141
-11.4867
-16.4729
-16.0945
-15.7387
-15.4064
-15.0985
-14.8153
-14.5569
-14.3237
-14.1156
-13.9326
-13.7748
-13.6422
-13.5346
-13.4521
-13.3945
-13.3617
-13.3536
-13.3699
-13.4104
-13.4741
-19.6173
-19.1997
-18.8055
-18.4373
-18.0954
-17.7799
-17.4908
-17.2281
-16.9916
-16.7815
-16.5978
-16.4404
-16.3093
-16.2044
-16.1257
-16.0729
-16.046
-16.0453
-16.0706
-16.1198
-24.9592
-24.497
-24.0688
-23.6716
-23.3033
-22.9629
-22.65
-22.3643
-22.106
-21.875
-21.6713
-21.4949
-21.3461
-21.2247
-21.131
-21.065
-21.0274
-21.0204
-21.0454
-21.0921
-0.374545
-0.441282
-0.517489
-0.603078
-0.697957
-0.802012
-0.915104
-1.03706
-1.16768
-1.30666
-1.45365
-1.60812
-1.76928
-1.93591
-2.10638
-2.27842
-2.44756
-2.60404
-2.73246
-2.85871
-0.697806
-0.766773
-0.845562
-0.934055
-1.03214
-1.13968
-1.25653
-1.38247
-1.51729
-1.66066
-1.81217
-1.97128
-2.1372
-2.3088
-2.48446
-2.66253
-2.84126
-3.01291
-3.16218
-3.33048
-1.04684
-1.11959
-1.20253
-1.29552
-1.39842
-1.51109
-1.63335
-1.76499
-1.90573
-2.05525
-2.21311
-2.37877
-2.55147
-2.73019
-2.91359
-3.10046
-3.28985
-3.47737
-3.6572
-3.85903
-1.4215
-1.49806
-1.5852
-1.68278
-1.79065
-1.90864
-2.03656
-2.17416
-2.32117
-2.47723
-2.6419
-2.81464
-2.99473
-3.18127
-3.37319
-3.56963
-3.76977
-3.9713
-4.17462
-4.40002
-1.8245
-1.90501
-1.99655
-2.09897
-2.2121
-2.33575
-2.4697
-2.61371
-2.76748
-2.93064
-3.10275
-3.28329
-3.4716
-3.6669
-3.86838
-4.07543
-4.28742
-4.50332
-4.72569
-4.96768
-2.25869
-2.34344
-2.43972
-2.54736
-2.66617
-2.79596
-2.9365
-3.08752
-3.24871
-3.41971
-3.60009
-3.78935
-3.98691
-4.1921
-4.40433
-4.62315
-4.84819
-5.07921
-5.31894
-5.57522
-2.7273
-2.81655
-2.9179
-3.03113
-3.15607
-3.2925
-3.44018
-3.59884
-3.76817
-3.94782
-4.13735
-4.33632
-4.5442
-4.76045
-4.98461
-5.21636
-5.45551
-5.70224
-5.95878
-6.22956
-3.23438
-3.32839
-3.43508
-3.55426
-3.68574
-3.82929
-3.98469
-4.15164
-4.32983
-4.51893
-4.71853
-4.92821
-5.14751
-5.37598
-5.61324
-5.85907
-6.11337
-6.37647
-6.64995
-6.93627
-3.78532
-3.88425
-3.99649
-4.12191
-4.2603
-4.41144
-4.57508
-4.75094
-4.93872
-5.13807
-5.34864
-5.57003
-5.80182
-6.04364
-6.29517
-6.55622
-6.82675
-7.10703
-7.39808
-7.70128
-4.3871
-4.4909
-4.60894
-4.74081
-4.88642
-5.04553
-5.21789
-5.40321
-5.60122
-5.81159
-6.03397
-6.26799
-6.5133
-6.76955
-7.03646
-7.31387
-7.6017
-7.90013
-8.20973
-8.5313
-5.04917
-5.15786
-5.28152
-5.41999
-5.57297
-5.74029
-5.92171
-6.11696
-6.32575
-6.54776
-6.78268
-7.03018
-7.28991
-7.56157
-7.8449
-8.13972
-8.44592
-8.76354
-9.09282
-9.43428
-5.78453
-5.89779
-6.02692
-6.17175
-6.3321
-6.50768
-6.69832
-6.90376
-7.12367
-7.35778
-7.60581
-7.86743
-8.14234
-8.43023
-8.73085
-9.04401
-9.36955
-9.70737
-10.0575
-10.4203
-6.61139
-6.7286
-6.86271
-7.01344
-7.1807
-7.36448
-7.56434
-7.77981
-8.01088
-8.25726
-8.51867
-8.7948
-9.08535
-9.39003
-9.70859
-10.0408
-10.3865
-10.7454
-11.1173
-11.5027
-7.5556
-7.67571
-7.81385
-7.96973
-8.14315
-8.33418
-8.54347
-8.76809
-9.00992
-9.26829
-9.54292
-9.83352
-10.1398
-10.4615
-10.7983
-11.15
-11.5162
-11.8968
-12.2913
-12.7001
-8.6553
-8.77663
-8.91721
-9.07682
-9.2553
-9.45214
-9.66677
-9.9018
-10.1541
-10.4236
-10.7107
-11.0152
-11.3369
-11.6754
-12.0303
-12.4013
-12.7881
-13.1904
-13.6077
-14.0404
-9.97021
-10.0903
-10.2309
-10.392
-10.5734
-10.7747
-10.9954
-11.2356
-11.4957
-11.7759
-12.0747
-12.3924
-12.7287
-13.0828
-13.4545
-13.8437
-14.2503
-14.6737
-15.1132
-15.5692
-11.5815
-11.6972
-11.835
-11.995
-12.1766
-12.3796
-12.6038
-12.8491
-13.1153
-13.4024
-13.7114
-14.0407
-14.3887
-14.7547
-15.1401
-15.5451
-15.9695
-16.4123
-16.8725
-17.3501
-13.5592
-13.6675
-13.7995
-13.9548
-14.1322
-14.3323
-14.5551
-14.8006
-15.0683
-15.3577
-15.6682
-16.0003
-16.3553
-16.7339
-17.1342
-17.5549
-17.9958
-18.4564
-18.9357
-19.4329
-16.191
-16.2833
-16.3993
-16.5406
-16.7083
-16.9014
-17.1193
-17.3614
-17.6276
-17.9174
-18.2301
-18.5656
-18.9241
-19.3061
-19.7113
-20.1393
-20.5899
-21.0637
-21.5605
-22.0756
-21.135
-21.2081
-21.3115
-21.4432
-21.6019
-21.7869
-21.9978
-22.2339
-22.495
-22.7808
-23.0911
-23.4258
-23.785
-24.1691
-24.5781
-25.012
-25.4718
-25.9616
-26.4838
-27.0207
-27.5279
-22.6008
-19.9473
-17.8453
-16.0417
-14.4883
-13.1232
-11.9014
-10.7956
-9.78782
-8.86477
-8.01661
-7.23559
-6.51534
-5.85055
-5.23654
-4.66792
-4.139
-3.65817
-3.254
-28.0624
-23.1417
-20.4769
-18.355
-16.5279
-14.9493
-13.5586
-12.3117
-11.182
-10.1519
-9.20847
-8.34196
-7.54478
-6.81071
-6.13457
-5.51181
-4.93755
-4.40933
-3.94018
-3.53806
-28.6251
-23.701
-21.0233
-18.8804
-17.0286
-15.4236
-14.0061
-12.7332
-11.5789
-10.5259
-9.56151
-8.67617
-7.86234
-7.11381
-6.4254
-5.79244
-5.21019
-4.67627
-4.20017
-3.7788
-29.2117
-24.2794
-21.5864
-19.421
-17.543
-15.9103
-14.4651
-13.1653
-11.9855
-10.9088
-9.9228
-9.01792
-8.1866
-7.42254
-6.72033
-6.07505
-5.4817
-4.93726
-4.44838
-4.00852
-29.8191
-24.8762
-22.1658
-19.9766
-18.0707
-16.409
-14.9349
-13.6072
-12.401
-11.2999
-10.2915
-9.36637
-8.51679
-7.7363
-7.01925
-6.36041
-5.7545
-5.1979
-4.69546
-4.23968
-30.4458
-25.4916
-22.7597
-20.5459
-18.6109
-16.9188
-15.4147
-14.0581
-12.8248
-11.6984
-10.667
-9.72087
-8.85235
-8.05473
-7.32212
-6.64902
-6.02991
-5.46085
-4.94536
-4.47572
-31.0906
-26.1248
-23.3674
-21.1282
-19.1629
-17.4391
-15.9038
-14.5174
-13.256
-12.1038
-11.0486
-10.081
-9.19298
-8.37778
-7.62922
-6.94157
-6.30917
-5.72783
-5.19999
-4.7179
-31.7523
-26.7735
-23.9887
-21.7225
-19.7256
-17.969
-16.4015
-14.9843
-13.6941
-12.5153
-11.4358
-10.4462
-9.53839
-8.70532
-7.94061
-7.23835
-6.59274
-5.9994
-5.4598
-4.96617
-32.4296
-27.4364
-24.623
-22.328
-20.2983
-18.5076
-16.9069
-15.4581
-14.1384
-12.9323
-11.8281
-10.8162
-9.88828
-9.03715
-8.25622
-7.53936
-6.88067
-6.27559
-5.72461
-5.22003
-33.1213
-28.1123
-25.2693
-22.944
-20.88
-19.0542
-17.4193
-15.938
-14.5881
-13.3543
-12.225
-11.1904
-10.2422
-9.37294
-8.57576
-7.84436
-7.1727
-6.55603
-5.99395
-5.47879
-33.8263
-28.8001
-25.9266
-23.5693
-21.4698
-19.6079
-17.9379
-16.4233
-15.0426
-13.7807
-12.6259
-11.5684
-10.5998
-9.71227
-8.89884
-8.15294
-7.46839
-6.84023
-6.26718
-5.74167
-34.5433
-29.4987
-26.5936
-24.203
-22.0669
-20.1677
-18.4616
-16.9132
-15.501
-14.2106
-13.0301
-11.9496
-10.9604
-10.0546
-9.22493
-8.46457
-7.76718
-7.12756
-6.54362
-6.0079
-35.2714
-30.2069
-27.2694
-24.8441
-22.67
-20.7326
-18.9897
-17.4067
-15.9628
-14.6434
-13.4369
-12.3333
-11.3235
-10.3994
-9.55347
-8.77867
-8.06846
-7.41737
-6.82255
-6.27672
-36.0094
-30.9238
-27.9527
-25.4914
-23.2783
-21.3017
-19.5212
-17.9031
-16.4269
-15.0784
-13.8457
-12.7188
-11.6884
-10.746
-9.88383
-9.09461
-8.37158
-7.709
-7.10329
-6.54742
-36.7563
-31.648
-28.6424
-26.1437
-23.8906
-21.8739
-20.0552
-18.4014
-16.8926
-15.5147
-14.2557
-13.1055
-12.0544
-11.0937
-10.2154
-9.41175
-8.6759
-8.0018
-7.38518
-6.81934
-37.5109
-32.3782
-29.3371
-26.8
-24.5057
-22.4482
-20.5906
-18.9007
-17.359
-15.9515
-14.6662
-13.4926
-12.4208
-11.4419
-10.5474
-9.72944
-8.98078
-8.29514
-7.66757
-7.09183
-38.2728
-33.1135
-30.0356
-27.4589
-25.1225
-23.0234
-21.1264
-19.4
-17.8252
-16.388
-15.0763
-13.8794
-12.7871
-11.79
-10.8794
-10.0471
-9.2856
-8.58839
-7.94986
-7.36432
-39.0434
-33.8532
-30.7364
-28.1189
-25.7396
-23.5983
-21.6614
-19.8983
-18.2902
-16.8233
-15.4853
-14.2651
-13.1523
-12.1371
-11.2105
-10.3639
-9.58972
-8.88094
-8.23145
-7.63625
-39.823
-34.5963
-31.4376
-28.7782
-26.3555
-24.1716
-22.1945
-20.3946
-18.7532
-17.2565
-15.8923
-14.6489
-13.5158
-12.4827
-11.5401
-10.6794
-9.89253
-9.17221
-8.5118
-7.90711
-40.5988
-35.3377
-32.1377
-29.4361
-26.9698
-24.743
-22.7255
-20.8885
-19.2138
-17.6874
-16.297
-15.0306
-13.8772
-12.8263
-11.8679
-10.9931
-10.1936
-9.46176
-8.79046
-8.17647
-6.66704
-4.58807
-3.24951
-2.22274
-1.50374
-0.976311
-0.598217
-0.330112
-0.144197
-0.0190961
0.0614142
0.109744
0.135159
0.144702
0.143521
0.135405
0.123095
0.108546
0.0931341
0.0778039
0.0631872
0.0496862
0.0375334
0.0268454
0.0176423
0.00990001
0.00352397
-0.00156286
-0.00552944
-0.00844215
-0.0105409
-0.0118129
-0.0125893
-0.0126841
-0.0125504
-0.0117177
-0.0107476
-0.00891328
-0.00640559
-0.00341092
-6.91928
-4.76798
-3.39409
-2.33662
-1.59386
-1.04923
-0.657717
-0.379278
-0.185199
-0.05354
0.032337
0.085127
0.114282
0.126996
0.128516
0.12271
0.11238
0.0995262
0.0855671
0.0714798
0.0579242
0.0453266
0.03394
0.0238996
0.0152419
0.00795552
0.00196002
-0.00281287