/*--------------------------------*- C++ -*----------------------------------*\
  =========                 |
  \\      /  F ield         | OpenFOAM: The Open Source CFD Toolbox
   \\    /   O peration     | Website:  https://openfoam.org
    \\  /    A nd           | Version:  6.0
     \\/     M anipulation  |
\*---------------------------------------------------------------------------*/
FoamFile
{
    version     2.0;
    format      ascii;
    class       surfaceScalarField;
    location    "15";
    object      phi;
}
// * * * * * * * * * * * * * * * * * * * * * * * * * * * * * * * * * * * * * //

dimensions      [0 3 -1 0 0 0 0];

internalField   nonuniform List<scalar> 
38030
(
-8.53833e-06
-0.00798027
0.00798881
-2.73539e-05
-0.00733688
0.0073557
-5.43127e-05
-0.00674633
0.00677328
-8.74315e-05
-0.00620564
0.00623875
-0.000124881
-0.00571145
0.0057489
-0.000165109
-0.00526032
0.00530054
-0.000206822
-0.0048488
0.00489051
-0.000248954
-0.00447361
0.00451574
-0.000290641
-0.0041316
0.00417328
-0.000331192
-0.00381981
0.00386036
-0.000370063
-0.0035355
0.00357437
-0.000406846
-0.0032761
0.00331288
-0.000441243
-0.00303925
0.00307365
-0.00047306
-0.00282279
0.00285461
-0.000502187
-0.00262474
0.00265386
-0.000528592
-0.00244328
0.00246969
-0.000552309
-0.00227678
0.0023005
-0.000573433
-0.00212376
0.00214488
-0.000592105
-0.00198285
0.00200153
-0.000608514
-0.00185287
0.00186928
-0.000622882
-0.00173271
0.00174708
-0.000635463
-0.00162141
0.00163399
-0.000646531
-0.00151812
0.00152919
-0.000656381
-0.0014221
0.00143195
-0.000665317
-0.00133268
0.00134162
-0.000673649
-0.00124927
0.0012576
-0.000681681
-0.00117133
0.00117936
-0.000689711
-0.00109838
0.00110642
-0.000698031
-0.00103002
0.00103834
-0.000965808
0.000974711
-0.000706934
-7.53817e-06
-0.00797273
-2.60621e-05
-0.00731836
-5.26344e-05
-0.00671975
-8.50094e-05
-0.00617326
-0.000121312
-0.00567515
-0.000159972
-0.00522166
-0.000199686
-0.00480909
-0.000239385
-0.00443391
-0.000278201
-0.00409278
-0.00031544
-0.00378257
-0.000350564
-0.00350038
-0.000383164
-0.0032435
-0.000412949
-0.00300947
-0.00043973
-0.00279601
-0.000463404
-0.00260106
-0.000483948
-0.00242274
-0.000501407
-0.00225933
-0.000515885
-0.00210928
-0.00052754
-0.0019712
-0.000536573
-0.00184383
-0.000543225
-0.00172606
-0.000547769
-0.00161687
-0.000550504
-0.00151539
-0.000551745
-0.00142086
-0.000551825
-0.0013326
-0.000551076
-0.00125002
-0.000549834
-0.00117257
-0.000548424
-0.0010998
-0.000547167
-0.00103127
-0.000966589
-0.000546387
-7.15731e-06
-0.00796558
-2.50939e-05
-0.00730042
-5.08616e-05
-0.00669399
-8.2082e-05
-0.00614204
-0.000116808
-0.00564043
-0.000153433
-0.00518503
-0.000190634
-0.00477188
-0.00022733
-0.00439721
-0.000262648
-0.00405746
-0.000295893
-0.00374933
-0.000326526
-0.00346974
-0.000354142
-0.00321588
-0.000378452
-0.00298516
-0.000399271
-0.00277519
-0.000416503
-0.00258383
-0.000430132
-0.00240911
-0.000440211
-0.00224925
-0.000446856
-0.00210263
-0.000450235
-0.00196782
-0.000450567
-0.0018435
-0.000448108
-0.00172852
-0.000443153
-0.00162182
-0.000436022
-0.00152252
-0.000427062
-0.00142982
-0.000416631
-0.00134303
-0.000405095
-0.00126156
-0.00039282
-0.00118485
-0.000380166
-0.00111245
-0.000367493
-0.00104395
-0.000978921
-0.000355161
-6.91542e-06
-0.00795866
-2.41891e-05
-0.00728315
-4.89027e-05
-0.00666927
-7.86335e-05
-0.00611231
-0.000111388
-0.00560767
-0.000145529
-0.00515089
-0.000179712
-0.0047377
-0.000212847
-0.00436408
-0.000244053
-0.00402626
-0.000272634
-0.00372075
-0.000298051
-0.00344433
-0.000319899
-0.00319404
-0.000337893
-0.00296716
-0.000351851
-0.00276123
-0.00036168
-0.002574
-0.000367369
-0.00240342
-0.00036898
-0.00224764
-0.000366637
-0.00210498
-0.000360519
-0.00197394
-0.000350858
-0.00185316
-0.000337929
-0.00174145
-0.000322046
-0.00163771
-0.000303554
-0.00154101
-0.000282831
-0.00145054
-0.000260269
-0.0013656
-0.000236267
-0.00128556
-0.000211231
-0.00120988
-0.000185561
-0.00113812
-0.000159661
-0.00106985
-0.00100464
-0.000133936
-6.68645e-06
-0.00795197
-2.32196e-05
-0.00726662
-4.66822e-05
-0.00664581
-7.4632e-05
-0.00608436
-0.00010505
-0.00557725
-0.000136276
-0.00511966
-0.000166953
-0.00470702
-0.000195982
-0.00433505
-0.000222478
-0.00399976
-0.000245744
-0.00369748
-0.000265239
-0.00342483
-0.000280561
-0.00317871
-0.000291424
-0.0029563
-0.000297648
-0.00275501
-0.000299144
-0.00257251
-0.000295905
-0.00240666
-0.000287997
-0.00225554
-0.000275549
-0.00211742
-0.000258753
-0.00199073
-0.000237851
-0.00187406
-0.000213135
-0.00176616
-0.000184937
-0.00166591
-0.000153632
-0.00157232
-0.000119623
-0.00148455
-8.33443e-05
-0.00140187
-4.52341e-05
-0.00132367
-5.74134e-06
-0.00124938
3.46852e-05
-0.00117855
7.55927e-05
-0.00111075
-0.00104557
0.000116517
-6.4329e-06
-0.00794554
-2.21301e-05
-0.00725092
-4.41552e-05
-0.00662378
-7.00518e-05
-0.00605846
-9.77853e-05
-0.00554952
-0.000125684
-0.00509177
-0.000152383
-0.00468032
-0.000176778
-0.00431065
-0.000197983
-0.00397856
-0.0002153
-0.00368016
-0.00022819
-0.00341194
-0.00023625
-0.00317065
-0.000239196
-0.00295335
-0.000236848
-0.00275736
-0.000229118
-0.00258024
-0.000215999
-0.00241978
-0.000197561
-0.00227398
-0.000173938
-0.00214105
-0.000145328
-0.00201934
-0.000111984
-0.00190741
-7.42133e-05
-0.00180393
-3.23662e-05
-0.00170775
1.31586e-05
-0.00161784
6.19245e-05
-0.00153331
0.000113463
-0.00145341
0.000167284
-0.00137749
0.000222894
-0.00130498
0.000279785
-0.00123544
0.000337445
-0.00116841
-0.00110347
0.000395347
-6.1412e-06
-0.0079394
-2.08948e-05
-0.00723617
-4.12963e-05
-0.00660338
-6.48755e-05
-0.00603488
-8.95891e-05
-0.00552481
-0.00011376
-0.00506759
-0.000136021
-0.00465806
-0.000155268
-0.00429141
-0.000170618
-0.00396321
-0.000181373
-0.00366941
-0.000186996
-0.00340632
-0.000187085
-0.00317056
-0.000181358
-0.00295908
-0.000169632
-0.00276908
-0.00015182
-0.00259805
-0.000127914
-0.00244368
-9.79823e-05
-0.00230391
-6.21621e-05
-0.00217687
-2.06547e-05
-0.00206085
2.62781e-05
-0.00195434
7.83184e-05
-0.00185597
0.000135096
-0.00176453
0.000196191
-0.00167894
0.000261133
-0.00159826
0.000329418
-0.0015217
0.000400507
-0.00144858
0.000473846
-0.00137832
0.00054887
-0.00131046
0.000624995
-0.00124454
-0.00118009
0.000701617
-5.80739e-06
-0.00793359
-1.95025e-05
-0.00722247
-3.80914e-05
-0.00658479
-5.90916e-05
-0.00601388
-8.04554e-05
-0.00550344
-0.000100506
-0.00504754
-0.00011788
-0.00464069
-0.000131478
-0.00427781
-0.000140422
-0.00395426
-0.000144019
-0.00366581
-0.000141736
-0.0034086
-0.000133173
-0.00317913
-0.000118046
-0.00297421
-9.61742e-05
-0.00279096
-6.74652e-05
-0.00262676
-3.1909e-05
-0.00247924
1.04292e-05
-0.00234625
5.94143e-05
-0.00222585
0.000114844
-0.00211628
0.000176454
-0.00201595
0.000243916
-0.00192343
0.000316845
-0.00183746
0.0003948
-0.00175689
0.000477282
-0.00168074
0.000563744
-0.00160816
0.0006536
-0.00153843
0.000746234
-0.00147096
0.000841011
-0.00140524
0.000937269
-0.0013408
-0.00127714
0.00103432
-5.43027e-06
-0.00792816
-1.7948e-05
-0.00720995
-3.45322e-05
-0.00656821
-5.26911e-05
-0.00599572
-7.03774e-05
-0.00548576
-8.59203e-05
-0.005032
-9.79653e-05
-0.00462864
-0.000105423
-0.00427035
-0.000107423
-0.00395226
-0.000103284
-0.00366995
-9.24751e-05
-0.00341941
-7.4602e-05
-0.003197
-4.93814e-05
-0.00299943
-1.66296e-05
-0.00282371
2.37491e-05
-0.00266714
7.17703e-05
-0.00252726
0.000127375
-0.00240186
0.000190434
-0.00228891
0.000260749
-0.0021866
0.000338055
-0.00209326
0.000422021
-0.0020074
0.000512252
-0.00192769
0.000608288
-0.00185293
0.000709604
-0.00178206
0.000815614
-0.00171417
0.000925677
-0.0016485
0.00103911
-0.0015844
0.00115522
-0.00152134
0.00127323
-0.00145881
-0.00139629
0.00139237
-5.00974e-06
-0.00792315
-1.62279e-05
-0.00719874
-3.06118e-05
-0.00655383
-4.56647e-05
-0.00598067
-5.93452e-05
-0.00547208
-6.99941e-05
-0.00502135
-7.62716e-05
-0.00462237
-7.71029e-05
-0.00426952
-7.16333e-05
-0.00395773
-5.91908e-05
-0.00368239
-3.92564e-05
-0.00343935
-1.14393e-05
-0.00322482
2.45412e-05
-0.00303541
6.88706e-05
-0.00286804
0.00012165
-0.00271991
0.000182902
-0.00258851
0.000252577
-0.00247153
0.000330556
-0.00236689
0.000416649
-0.00227269
0.000510598
-0.00218721
0.000612075
-0.00210888
0.000720677
-0.00203629
0.000835935
-0.00196818
0.000957299
-0.00190342
0.00108415
-0.00184102
0.00121579
-0.00178014
0.00135148
-0.00172008
0.00149042
-0.00166028
0.00163177
-0.00160016
-0.00153914
0.00177463
-4.54514e-06
-0.00791861
-1.43388e-05
-0.00718894
-2.63224e-05
-0.00654184
-3.80006e-05
-0.00596899
-4.73439e-05
-0.00546273
-5.27112e-05
-0.00501599
-5.27832e-05
-0.00462229
-4.65063e-05
-0.0042758
-3.30452e-05
-0.00397119
-1.17445e-05
-0.0037037
1.79019e-05
-0.00346899
5.62764e-05
-0.00326319
0.000103656
-0.00308279
0.000160227
-0.00292461
0.000226096
-0.00278578
0.000301295
-0.00266371
0.000385788
-0.00255602
0.000479468
-0.00246057
0.000582161
-0.00237538
0.000693621
-0.00229867
0.000813527
-0.00222878
0.000941484
-0.00216425
0.00107701
-0.00210371
0.00121955
-0.00204596
0.00136844
-0.00198991
0.00152295
-0.00193465
0.00168226
-0.00187939
0.00184548
-0.00182351
0.00201168
-0.00176636
-0.00170729
0.00217983
-4.03534e-06
-0.00791457
-1.2276e-05
-0.0071807
-2.16542e-05
-0.00653246
-2.96833e-05
-0.00596096
-3.43525e-05
-0.00545806
-3.40458e-05
-0.00501629
-2.74717e-05
-0.00462887
-1.36039e-05
-0.00428966
8.36735e-06
-0.00399316
3.90754e-05
-0.0037344
7.90089e-05
-0.00350893
0.000128538
-0.00331272
0.000187932
-0.00314218
0.000257379
-0.00299405
0.000336987
-0.00286539
0.000426802
-0.00275353
0.0005268
-0.00265602
0.000636894
-0.00257066
0.00075693
-0.00249542
0.000886682
-0.00242842
0.00102585
-0.00236795
0.00117404
-0.00231244
0.00133078
-0.00226046
0.00149551
-0.00221068
0.00166755
-0.00216195
0.00184611
-0.00211321
0.00203032
-0.0020636
0.0022192
-0.00201239
0.0024117
-0.00195886
-0.00190224
0.00260665
-3.4789e-06
-0.00791109
-1.00334e-05
-0.00717415
-1.65949e-05
-0.0065259
-2.06928e-05
-0.00595687
-2.03434e-05
-0.00545841
-1.39634e-05
-0.00502267
-2.96462e-07
-0.00464254
2.16492e-05
-0.00431161
5.2651e-05
-0.00402417
9.33139e-05
-0.00377507
0.000144103
-0.00355971
0.000205372
-0.00337399
0.000277379
-0.00321419
0.000360306
-0.00307698
0.000454269
-0.00295935
0.00055932
-0.00285858
0.000675454
-0.00277216
0.000802606
-0.00269782
0.000940648
-0.00263346
0.00108938
-0.00257715
0.00124853
-0.0025271
0.00141773
-0.00248164
0.00159653
-0.00243925
0.00178435
-0.0023985
0.00198051
-0.00235811
0.0021842
-0.0023169
0.00239448
-0.00227388
0.00261028
-0.0022282
0.00283044
-0.00217901
-0.00212544
0.00305364
-2.87361e-06
-0.00790822
-7.60375e-06
-0.00716942
-1.11294e-05
-0.00652238
-1.10051e-05
-0.00595699
-5.28278e-06
-0.00546413
7.5796e-06
-0.00503553
2.87954e-05
-0.00466375
5.93136e-05
-0.00434213
9.98721e-05
-0.00406472
0.00015104
-0.00382623
0.000213253
-0.00362193
0.00028684
-0.00344758
0.000372044
-0.00329939
0.000469038
-0.00317398
0.000577937
-0.00306825
0.000698804
-0.00297944
0.00083165
-0.002905
0.000976435
-0.0028426
0.00113306
-0.00279009
0.00130137
-0.00274546
0.00148112
-0.00270685
0.00167198
-0.0026725
0.00187352
-0.00264079
0.0020852
-0.00261018
0.00230633
-0.00257924
0.00253608
-0.00254665
0.00277347
-0.00251127
0.00301735
-0.00247208
0.00326643
-0.00242809
-0.00237824
0.00351923
-2.217e-06
-0.007906
-4.97827e-06
-0.00716665
-5.24024e-06
-0.00652211
-5.92435e-07
-0.00596164
1.08685e-05
-0.0054756
3.06342e-05
-0.0050553
5.98664e-05
-0.00469298
9.94633e-05
-0.00438173
0.000150115
-0.00411538
0.000212346
-0.00388847
0.000286555
-0.00369614
0.000373039
-0.00353406
0.000472017
-0.00339837
0.000583649
-0.00328561
0.000708044
-0.00319265
0.000845269
-0.00311667
0.000995352
-0.00305509
0.00115828
-0.00300553
0.00133398
-0.00296579
0.00152235
-0.00293383
0.0017232
-0.00290769
0.00193623
-0.00288554
0.00216108
-0.00286564
0.00239722
-0.00284632
0.002644
-0.00282602
0.00290059
-0.00280324
0.00316597
-0.00277665
0.00343894
-0.00274504
0.00371806
-0.00270721
-0.0026619
0.00400171
-1.50617e-06
-0.0079045
-2.14747e-06
-0.00716601
1.09126e-06
-0.00652535
1.05753e-05
-0.00597112
2.81529e-05
-0.00549317
5.52565e-05
-0.0050824
9.29867e-05
-0.00473071
0.000142182
-0.00443092
0.000203476
-0.00417667
0.000277341
-0.00396233
0.000364128
-0.00378292
0.000464094
-0.00363403
0.000577426
-0.0035117
0.000704261
-0.00341244
0.000844694
-0.00333308
0.000998791
-0.00327077
0.00116659
-0.00322289
0.00134811
-0.00318704
0.00154331
-0.003161
0.00175213
-0.00314265
0.00197443
-0.00313
0.00221001
-0.00312112
0.00245855
-0.00311417
0.00271959
-0.00310736
0.00299251
-0.00309894
0.00327652
-0.00308725
0.00357059
-0.00307072
0.00387345
-0.00304791
0.00418359
-0.00301735
-0.00297751
0.0044992
-7.38218e-07
-0.00790376
8.98413e-07
-0.00716765
7.88456e-06
-0.00653234
2.25288e-05
-0.00598577
4.66142e-05
-0.00551726
8.1504e-05
-0.00511729
0.000128229
-0.00477744
0.000187558
-0.00449025
0.00026006
-0.00424917
0.000346145
-0.00404842
0.000446108
-0.00388289
0.000560155
-0.00374807
0.000688431
-0.00363998
0.000831036
-0.00355505
0.000988045
-0.00349009
0.00115951
-0.00344223
0.00134548
-0.00340885
0.00154597
-0.00338754
0.00176101
-0.00337603
0.00199056
-0.0033722
0.00223458
-0.00337401
0.00249292
-0.00337946
0.00276535
-0.00338661
0.00305151
-0.00339352
0.00335085
-0.00339829
0.00366264
-0.00339904
0.00398586
-0.00339394
0.00431923
-0.00338128
0.00466114
-0.00335926
-0.003326
0.00500964
8.97737e-08
-0.00790385
4.16888e-06
-0.00717173
1.51582e-05
-0.00654333
3.52977e-05
-0.00600591
6.62943e-05
-0.00554826
0.000109432
-0.00516043
0.000165663
-0.00483367
0.000235678
-0.00456027
0.000319971
-0.00433346
0.000418883
-0.00414733
0.000532639
-0.00399664
0.000661384
-0.00387682
0.00080521
-0.0037838
0.000964168
-0.00371401
0.0011383
-0.00366422
0.00132763
-0.00363156
0.00153219
-0.00361341
0.00175202
-0.00360737
0.00198716
-0.00361117
0.00223765
-0.00362269
0.00250349
-0.00363985
0.00278464
-0.00366061
0.00308098
-0.00368294
0.00339225
-0.0037048
0.00371805
-0.00372408
0.0040577
-0.00373869
0.00441028
-0.00374652
0.00477451
-0.0037455
0.00514872
-0.00373347
-0.00370809
0.0055308
9.80559e-07
-0.00790483
7.6726e-06
-0.00717842
2.29288e-05
-0.00655859
4.89078e-05
-0.00603189
8.72294e-05
-0.00558658
0.000139089
-0.00521229
0.000205349
-0.00489993
0.000286618
-0.00464153
0.000383303
-0.00443015
0.000495665
-0.00425969
0.000623853
-0.00412483
0.000767941
-0.00402091
0.000927948
-0.00394381
0.00110387
-0.00388993
0.00129568
-0.00385604
0.00150338
-0.00383926
0.00172697
-0.003837
0.00196648
-0.00384688
0.00222196
-0.00386666
0.0024935
-0.00389422
0.00278116
-0.00392751
0.00308501
-0.00396446
0.00340506
-0.00400299
0.00374121
-0.00404094
0.00409319
-0.00407606
0.00446049
-0.004106
0.00484231
-0.00412834
0.00523742
-0.00414062
0.00564414
-0.00414019
-0.00412421
0.00606026
1.93607e-06
-0.00790676
1.14162e-05
-0.0071879
3.12094e-05
-0.00657838
6.33792e-05
-0.00606406
0.000109447
-0.00563264
0.000170509
-0.00527335
0.000247333
-0.00497675
0.000340432
-0.00473463
0.000450123
-0.00453984
0.000576579
-0.00438614
0.000719862
-0.00426811
0.000879961
-0.004181
0.00105681
-0.00412067
0.00125034
-0.00408345
0.00146044
-0.00406614
0.00168705
-0.00406587
0.00193013
-0.00408008
0.00218966
-0.00410641
0.0024657
-0.0041427
0.00275835
-0.00418687
0.00306774
-0.0042369
0.00339404
-0.00429077
0.0037374
-0.00434636
0.0040979
-0.00440144
0.00447549
-0.00445364
0.00486986
-0.00450037
0.0052804
-0.00453887
0.00570603
-0.00456625
0.00614512
-0.00457929
-0.00457446
0.00659537
2.95766e-06
-0.00790972
1.54044e-05
-0.00720035
4.00081e-05
-0.00660298
7.87234e-05
-0.00610277
0.000132961
-0.00568688
0.00020371
-0.0053441
0.000291633
-0.00506468
0.000397144
-0.00484014
0.000520464
-0.00466316
0.000661669
-0.00452735
0.000820728
-0.00442717
0.000997534
-0.00435781
0.00119193
-0.00431506
0.00140374
-0.00429526
0.00163279
-0.00429519
0.00187891
-0.00431199
0.00214197
-0.00434314
0.00242193
-0.00438636
0.00271877
-0.00443954
0.0030326
-0.0045007
0.00336359
-0.00456789
0.00371198
-0.00463916
0.00407807
-0.00471245
0.00446214
-0.00478552
0.0048644
-0.0048559
0.00528484
-0.00492081
0.00572314
-0.00497717
0.00617845
-0.00502156
0.00664929
-0.00505013
-0.00505852
0.00713336
4.0456e-06
-0.00791377
1.96386e-05
-0.00721594
4.93277e-05
-0.00663267
9.4942e-05
-0.00614838
0.00015777
-0.00574971
0.000238684
-0.00542502
0.000338237
-0.00516423
0.000456738
-0.00495864
0.000594307
-0.00480073
0.000750919
-0.00468396
0.000926443
-0.0046027
0.00112067
-0.00455204
0.00133335
-0.00452774
0.00156418
-0.00452609
0.00181288
-0.00454389
0.00207917
-0.00457829
0.00236283
-0.0046268
0.00266369
-0.00468722
0.00298167
-0.00475752
0.00331681
-0.00483583
0.00366927
-0.00492035
0.00403934
-0.00500923
0.00442745
-0.00510055
0.00483409
-0.00519216
0.00525975
-0.00528157
0.00570482
-0.00536588
0.00616937
-0.00544171
0.00665296
-0.00550515
0.00715438
-0.00555155
-0.00557554
0.00767139
5.19939e-06
-0.00791897
2.41183e-05
-0.00723486
5.91651e-05
-0.00666772
0.000112025
-0.00620124
0.000183852
-0.00582154
0.000275395
-0.00551656
0.000387091
-0.00527593
0.000519142
-0.0050907
0.000671562
-0.00495315
0.000844228
-0.00485663
0.0010369
-0.00479537
0.00124928
-0.00476441
0.00148098
-0.00475944
0.0017316
-0.00477672
0.00200074
-0.00481302
0.00228797
-0.00486552
0.00259293
-0.00493177
0.00291532
-0.00500961
0.00325492
-0.00509712
0.00361165
-0.00519256
0.00398559
-0.00529429
0.00437701
-0.00540066
0.00478641
-0.00550995
0.00521445
-0.0056202
0.00566196
-0.00572907
0.00612975
-0.00583367
0.00661846
-0.00593042
0.00712823
-0.00601492
0.00765836
-0.00608168
-0.00612401
0.00820682
6.41758e-06
-0.00792538
2.88414e-05
-0.00725728
6.95125e-05
-0.00670839
0.000129952
-0.00626168
0.000211167
-0.00590275
0.000313774
-0.00561917
0.000438095
-0.00540025
0.00058422
-0.00523682
0.000752062
-0.00512099
0.000941395
-0.00504596
0.00115188
-0.00500586
0.00138311
-0.00499564
0.00163459
-0.00501092
0.0019058
-0.00504793
0.00219619
-0.00510341
0.00250521
-0.00517454
0.00283233
-0.00525888
0.00317705
-0.00535433
0.00353898
-0.00545905
0.00391784
-0.00557142
0.00431354
-0.00568999
0.00472624
-0.00581335
0.00515636
-0.00594008
0.00560469
-0.00606853
0.0060723
-0.00619668
0.00656052
-0.00632189
0.00707067
-0.00644058
0.00760376
-0.00654801
0.00815986
-0.00663778
-0.00670161
0.00873747
7.70042e-06
-0.00793308
3.38082e-05
-0.00728339
8.03613e-05
-0.00675494
0.000148693
-0.00633002
0.000239651
-0.00599371
0.000353718
-0.00573323
0.000491097
-0.00553763
0.000651769
-0.00539749
0.000835545
-0.00530477
0.0010421
-0.00525252
0.00127101
-0.00523477
0.00152174
-0.00524637
0.00179372
-0.0052829
0.0020863
-0.00534051
0.0023988
-0.00541592
0.00273053
-0.00550627
0.00308078
-0.00560912
0.00344885
-0.0057224
0.0038341
-0.00584431
0.00423602
-0.00597334
0.00465423
-0.0061082
0.0050886
-0.00624773
0.00553938
-0.00639085
0.00600722
-0.00653637
0.00649335
-0.00668281
0.00699951
-0.00682804
0.00752784
-0.0069689
0.00808049
-0.00710066
0.00865884
-0.00721614
-0.00730504
0.00926227
9.05443e-06
-0.00794214
3.90295e-05
-0.00731337
9.17074e-05
-0.00680762
0.00016821
-0.00640652
0.00026922
-0.00609472
0.000395086
-0.0058591
0.00054589
-0.00568843
0.000721507
-0.00557311
0.000921649
-0.00550491
0.0011459
-0.00547677
0.00139373
-0.0054826
0.00166454
-0.00551718
0.00195765
-0.00557601
0.00227232
-0.00565518
0.00260776
-0.00575135
0.00296313
-0.00586164
0.00333756
-0.00598356
0.00373017
-0.00611501
0.00414008
-0.00625422
0.00456645
-0.00639971
0.00500854
-0.00655029
0.00546582
-0.00670501
0.00593808
-0.00686311
0.00642562
-0.00702391
0.00692943
-0.00718663
0.00745143
-0.00735004
0.00799446
-0.00751193
0.00856213
-0.00766833
0.00915783
-0.00781184
-0.00792968
0.00978247
1.05041e-05
-0.00795264
4.45394e-05
-0.0073474
0.00010356
-0.00686664
0.000188463
-0.00649142
0.000299771
-0.00620603
0.0004377
-0.00599703
0.000602213
-0.00585294
0.000793078
-0.00576397
0.00100991
-0.00572174
0.0012522
-0.00571906
0.00151935
-0.00574975
0.00181066
-0.0058085
0.00212539
-0.00589074
0.00246272
-0.00599251
0.00282178
-0.00611041
0.00320164
-0.00624149
0.00360131
-0.00638323
0.00401975
-0.00653346
0.00445588
-0.00669035
0.00490857
-0.0068524
0.0053767
-0.00701842
0.00585922
-0.00718753
0.00635528
-0.00735917
0.00686445
-0.00753307
0.007387
-0.00770918
0.00792433
-0.00788738
0.00847948
-0.00806708
0.00905736
-0.00824621
0.00966419
-0.00841868
-0.0085691
0.0103036
1.21181e-05
-0.00796476
5.04202e-05
-0.0073857
0.00011595
-0.00693217
0.000209408
-0.00658488
0.000331178
-0.0063278
0.000481344
-0.00614719
0.000659751
-0.00603135
0.000866057
-0.00597028
0.00109978
-0.00595546
0.00136031
-0.00597959
0.00164698
-0.00603641
0.00195903
-0.00612055
0.00229565
-0.00622736
0.00265598
-0.00635284
0.00303911
-0.00649353
0.00344406
-0.00664644
0.0038698
-0.00680898
0.00431524
-0.00697889
0.00477918
-0.00715429
0.00526034
-0.00733356
0.00575733
-0.0075154
0.00626864
-0.00769884
0.00679275
-0.00788328
0.00732822
-0.00806855
0.00787402
-0.00825498
0.00843006
-0.00844341
0.00899803
-0.00863505
0.00958281
-0.00883098
0.0101935
-0.00902941
-0.00921755
0.010842
1.41194e-05
-0.00797888
5.68713e-05
-0.00742846
0.000128946
-0.00700424
0.000230994
-0.00668693
0.000363283
-0.00646009
0.000525762
-0.00630967
0.00071814
-0.00622373
0.000939954
-0.00619209
0.00119061
-0.00620611
0.00146941
-0.0062584
0.00177561
-0.00634261
0.00210838
-0.00645332
0.00246688
-0.00658586
0.00285022
-0.00673618
0.00325747
-0.00690079
0.00368769
-0.00707667
0.00413989
-0.00726117
0.00461302
-0.00745203
0.00510598
-0.00764725
0.00561754
-0.00784512
0.00614634
-0.00804419
0.00669079
-0.00824329
0.00724903
-0.00844153
0.0078189
-0.00863842
0.00839793
-0.00883401
0.00898367
-0.00902914
0.00957444
-0.00922583
0.0101713
-0.00942788
0.0107837
-0.00964173
-0.00988006
0.0114462
1.73195e-05
-0.0079962
6.42787e-05
-0.00747542
0.000142608
-0.00708257
0.000253111
-0.00679743
0.000395874
-0.00660285
0.000570647
-0.00648445
0.00077697
-0.00643005
0.00101423
-0.00642936
0.00128172
-0.0064736
0.00157863
-0.00655531
0.00190412
-0.00666811
0.00225732
-0.00680652
0.00263734
-0.00696587
0.00304326
-0.0071421
0.00347419
-0.00733172
0.00392924
-0.00753171
0.00440752
-0.00773945
0.00490816
-0.00795267
0.00543031
-0.0081694
0.00597311
-0.00838792
0.00653569
-0.00860677
0.00711711
-0.00882471
0.00771629
-0.0090407
0.00833185
-0.00925399
0.00896199
-0.00946414
0.0096042
-0.00967136
0.0102551
-0.00987671
0.0109093
-0.0100821
0.0115621
-0.0102946
-0.0105369
0.0122189
0.00899128
4.60994e-05
-0.00903738
0.00894613
4.51516e-05
0.00890127
4.4857e-05
0.00885657
4.47018e-05
0.00881204
4.45265e-05
0.00876777
4.42753e-05
0.00872384
4.3926e-05
0.00868037
4.34723e-05
0.00863746
4.29146e-05
0.0085952
4.22569e-05
0.00855369
4.15042e-05
0.00851303
4.06621e-05
0.0084733
3.97366e-05
0.00843456
3.87335e-05
0.0083969
3.76591e-05
0.00836038
3.65192e-05
0.00832506
3.53198e-05
0.008291
3.40664e-05
0.00825823
3.27641e-05
0.00822682
3.14182e-05
0.00819678
3.00333e-05
0.00816817
2.86142e-05
0.008141
2.71649e-05
0.00811531
2.56898e-05
0.00809112
2.4191e-05
0.00806846
2.2665e-05
0.00804736
2.1093e-05
0.00802795
1.94153e-05
0.00801052
1.74248e-05
1.43239e-05
0.0102807
0.000164721
-0.0103993
0.0101609
0.000164935
0.0100405
0.000165261
0.00991975
0.000165447
0.00979893
0.000165348
0.00967831
0.000164894
0.00955819
0.000164051
0.00943885
0.00016281
0.00932059
0.000161174
0.0092037
0.000159152
0.00908844
0.000156762
0.00897508
0.000154021
0.00886387
0.000150948
0.00875504
0.000147564
0.0086488
0.00014389
0.00854538
0.000139947
0.00844494
0.000135754
0.00834768
0.000131333
0.00825374
0.000126702
0.00816328
0.00012188
0.00807643
0.000116883
0.00799331
0.000111728
0.00791405
0.00010643
0.00783874
0.000101001
0.00776748
9.54478e-05
0.00770038
8.97677e-05
0.00763754
8.39329e-05
0.00757909
7.78667e-05
0.00752514
7.13738e-05
6.40455e-05
0.0115356
0.00034386
-0.0117147
0.0113537
0.000346843
0.0111698
0.00034915
0.0109845
0.000350716
0.0107984
0.00035147
0.0106119
0.000351367
0.0104256
0.000350386
0.0102399
0.000348523
0.0100553
0.00034579
0.0098722
0.000342211
0.00969115
0.000337815
0.00951253
0.000332638
0.00933676
0.000326719
0.00916423
0.000320097
0.0089953
0.000312815
0.00883033
0.000304916
0.00866965
0.000296442
0.00851355
0.000287434
0.00836232
0.000277932
0.00821622
0.000267975
0.00807551
0.000257597
0.0079404
0.000246834
0.00781111
0.000235717
0.00768784
0.000224273
0.00757077
0.000212524
0.00746005
0.000200482
0.00735584
0.00018814
0.00725825
0.00017546
0.00716727
0.000162359
0.000148737
0.0127463
0.000572777
-0.0129752
0.012513
0.000580122
0.0122762
0.000585939
0.0120367
0.000590235
0.0117952
0.000592993
0.0115524
0.000594197
0.0113089
0.000593844
0.0110655
0.000591947
0.0108227
0.000588532
0.0105813
0.000583639
0.0103418
0.000577314
0.0101048
0.000569614
0.00987094
0.000560599
0.00964071
0.000550335
0.00941463
0.00053889
0.00919322
0.000526332
0.00897693
0.000512731
0.00876621
0.000498155
0.00856147
0.000482669
0.00836311
0.000466337
0.00817148
0.00044922
0.00798694
0.000431374
0.00780981
0.000412856
0.00764036
0.000393716
0.00747889
0.000374
0.00732562
0.00035375
0.00718076
0.000332999
0.00704445
0.000311772
0.00691671
0.000290091
0.000268021
0.0139048
0.000841719
-0.0141737
0.0136297
0.00085518
0.0133495
0.000866197
0.0130649
0.000874793
0.0127769
0.000880973
0.0124864
0.000884743
0.0121941
0.000886117
0.0119009
0.000885122
0.0116077
0.000881801
0.0113151
0.000876209
0.011024
0.000868413
0.0107351
0.00085849
0.0104492
0.000846527
0.0101669
0.000832613
0.00988897
0.000816846
0.00961598
0.000799325
0.00934856
0.000780147
0.00908731
0.000759411
0.00883276
0.000737214
0.00858545
0.000713648
0.00834587
0.000688802
0.00811448
0.000662763
0.00789172
0.000635614
0.007678
0.000607435
0.0074737
0.000578307
0.00727913
0.000548311
0.0070946
0.000517532
0.00692031
0.000486062
0.00675639
0.000454015
0.000421558
0.0150048
0.00114196
-0.0153051
0.0146966
0.00116342
0.0143813
0.00118146
0.0140601
0.00119608
0.0137337
0.0012073
0.0134033
0.00121513
0.0130699
0.00121958
0.0127343
0.00122071
0.0123975
0.00121856
0.0120605
0.0012132
0.0117242
0.00120471
0.0113895
0.0011932
0.0110573
0.00117878
0.0107283
0.00116156
0.0104035
0.00114166
0.0100836
0.00111922
0.0097694
0.00109437
0.00946157
0.00106724
0.00916083
0.00103796
0.00886783
0.00100664
0.00858322
0.000973419
0.00830757
0.000938405
0.00804147
0.000901715
0.00778544
0.000863465
0.00753998
0.000823773
0.00730552
0.000782768
0.00708246
0.00074059
0.00687112
0.000697402
0.00667173
0.000653404
0.000608846
0.0160418
0.00146572
-0.0163656
0.0157081
0.00149714
0.0153655
0.0015241
0.015015
0.0015466
0.0146576
0.00156462
0.0142946
0.00157816
0.0139269
0.00158725
0.0135557
0.00159194
0.013182
0.00159227
0.0128069
0.00158832
0.0124314
0.00158021
0.0120566
0.00156804
0.0116834
0.00155193
0.0113129
0.00153205
0.010946
0.00150853
0.0105837
0.00148154
0.0102268
0.00145125
0.00987628
0.0014178
0.00953287
0.00138137
0.0091974
0.00134211
0.00887065
0.00130017
0.00855335
0.00125571
0.0082462
0.00120887
0.00794986
0.0011598
0.00766498
0.00110866
0.00739211
0.00105563
0.00713178
0.00100092
0.00688444
0.000944747
0.00665044
0.000887404
0.000829232
0.0170127
0.00180609
-0.0173531
0.0166604
0.00184945
0.0162972
0.0018873
0.0159242
0.00191957
0.0155426
0.00194624
0.0151535
0.00196728
0.014758
0.00198271
0.0143574
0.00199255
0.0139528
0.00199687
0.0135454
0.00199574
0.0131363
0.00198928
0.0127267
0.0019776
0.0123178
0.00196086
0.0119106
0.00193922
0.0115063
0.00191286
0.0111059
0.00188197
0.0107104
0.00184673
0.0103208
0.00180735
0.00993821
0.001764
0.00956343
0.00171689
0.00919741
0.00166619
0.00884102
0.00161209
0.00849512
0.00155477
0.00816052
0.0014944
0.00783798
0.0014312
0.00752824
0.00136537
0.00723197
0.00129719
0.00694974
0.00122697
0.00668207
0.00115507
0.00108195
0.0179156
0.00215701
-0.0182665
0.0175508
0.00221427
0.0171731
0.00226494
0.0167838
0.00230892
0.0163839
0.00234612
0.0159747
0.00237651
0.0155573
0.00240007
0.0151331
0.0024168
0.0147032
0.00242675
0.0142689
0.00242999
0.0138316
0.00242664
0.0133923
0.00241682
0.0129525
0.00240069
0.0125133
0.00237844
0.0120759
0.00235025
0.0116415
0.00231634
0.0112113
0.00227693
0.0107864
0.00223224
0.010368
0.00218249
0.00995695
0.00212789
0.00955448
0.00206866
0.00916157
0.00200501
0.00877921
0.00193713
0.00840837
0.00186524
0.00804998
0.00178958
0.00770494
0.00171042
0.00737407
0.00162806
0.00705814
0.0015429
0.0067578
0.00145541
0.00136615
0.0187499
0.00251315
-0.0191061
0.018378
0.0025862
0.0179913
0.00265161
0.017591
0.0027092
0.0171783
0.00275884
0.0167544
0.00280045
0.0163205
0.00283397
0.0158779
0.00285939
0.0154279
0.00287671
0.0149719
0.00288601
0.0145112
0.00288737
0.0140471
0.00288092
0.0135809
0.00286683
0.0131141
0.00284528
0.0126479
0.00281649
0.0121835
0.00278067
0.0117224
0.00273808
0.0112657
0.00268896
0.0108146
0.00263354
0.0103704
0.00257207
0.00993431
0.00250479
0.0095074
0.00243191
0.00909086
0.00235367
0.00868581
0.00227029
0.00829337
0.00218203
0.00791459
0.00208919
0.00755051
0.00199214
0.00720206
0.00189135
0.00687009
0.00178738
0.00168093
0.019516
0.00286993
-0.0198728
0.0191417
0.00296057
0.0187508
0.00304253
0.0183444
0.00311558
0.0179237
0.00317953
0.0174899
0.00323423
0.0170443
0.00327957
0.0165882
0.0033155
0.0161229
0.00334199
0.0156498
0.00335909
0.0151703
0.00336686
0.0146858
0.00336542
0.0141977
0.00335492
0.0137075
0.00333556
0.0132164
0.00330754
0.012726
0.00327112
0.0122375
0.00322654
0.0117524
0.00317406
0.011272
0.00311395
0.0107976
0.00304646
0.0103306
0.00297184
0.00987216
0.00289032
0.00942369
0.00280214
0.00898645
0.00270753
0.00856172
0.00260675
0.00815078
0.00250013
0.00775485
0.00238808
0.00737508
0.00227112
0.00701254
0.00214993
0.00202536
0.0202151
0.00322342
-0.0205686
0.0198424
0.00333333
0.0194514
0.00343357
0.0190431
0.00352384
0.0186187
0.00360389
0.0181795
0.00367348
0.0177266
0.00373247
0.0172613
0.00378074
0.0167851
0.00381822
0.0162993
0.00384491
0.0158053
0.00386085
0.0153046
0.00386613
0.0147986
0.00386089
0.0142889
0.0038453
0.0137768
0.00381959
0.0132639
0.003784
0.0127517
0.00373879
0.0122415
0.00368422
0.0117349
0.00362059
0.0112332
0.00354813
0.0107379
0.00346712
0.0102505