/*--------------------------------*- C++ -*----------------------------------*\
| =========                 |                                                 |
| \\      /  F ield         | OpenFOAM: The Open Source CFD Toolbox           |
|  \\    /   O peration     | Version:  v1912                                 |
|   \\  /    A nd           | Website:  www.openfoam.com                      |
|    \\/     M anipulation  |                                                 |
\*---------------------------------------------------------------------------*/
FoamFile
{
    version     2.0;
    format      ascii;
    class       surfaceScalarField;
    location    "43.5";
    object      phi;
}
// * * * * * * * * * * * * * * * * * * * * * * * * * * * * * * * * * * * * * //

dimensions      [0 3 -1 0 0 0 0];
oriented        oriented;


internalField   nonuniform List<scalar> 
18940
(
0.000357815
-0.23437
0.234012
0.0013774
-0.216336
0.215316
0.00287959
-0.204801
0.203299
0.00469407
-0.197017
0.195202
0.00669016
-0.191259
0.189262
0.00876625
-0.186461
0.184385
0.0108486
-0.182036
0.179954
0.0128879
-0.177689
0.17565
0.014854
-0.173295
0.171329
0.0167314
-0.168826
0.166948
0.0185156
-0.164303
0.162518
0.0202089
-0.159768
0.158074
0.0218183
-0.155269
0.153659
0.0233538
-0.150849
0.149314
0.0248265
-0.146546
0.145073
0.0262479
-0.142383
0.140961
0.0276298
-0.138372
0.13699
0.0289824
-0.134512
0.133159
0.0303144
-0.130782
0.12945
-0.127142
0.125826
0.0316309
0.000381232
-0.234752
0.0014207
-0.217375
0.00293361
-0.206314
0.00475243
-0.198835
0.00674301
-0.193249
0.00880384
-0.188522
0.0108624
-0.184095
0.012871
-0.179697
0.0148013
-0.175225
0.0166397
-0.170664
0.0183832
-0.166046
0.0200355
-0.16142
0.0216046
-0.156838
0.023101
-0.152346
0.0245364
-0.147981
0.0259227
-0.143769
0.0272716
-0.139721
0.028594
-0.135834
0.0298988
-0.132087
-0.128436
0.031192
0.00040265
-0.235154
0.00145834
-0.218431
0.00297998
-0.207836
0.00479938
-0.200655
0.00678083
-0.195231
0.00882273
-0.190564
0.0108539
-0.186126
0.0128283
-0.181672
0.0147197
-0.177117
0.0165163
-0.172461
0.0182167
-0.167746
0.0198258
-0.163029
0.0213528
-0.158365
0.0228085
-0.153802
0.0242052
-0.149378
0.0255549
-0.145119
0.0268697
-0.141036
0.0281605
-0.137125
0.0294369
-0.133363
-0.129704
0.0307056
0.000416518
-0.235571
0.00148726
-0.219502
0.00301678
-0.209365
0.00483419
-0.202472
0.00680314
-0.1972
0.00882257
-0.192583
0.0108228
-0.188126
0.0127598
-0.183609
0.0146093
-0.178966
0.0163615
-0.174213
0.0180166
-0.169401
0.0195807
-0.164593
0.0210639
-0.159848
0.0224776
-0.155215
0.0238344
-0.150735
0.0251464
-0.146431
0.0264259
-0.142315
0.0276841
-0.138383
0.0289311
-0.13461
-0.130948
0.0301745
0.000427784
-0.235998
0.00151079
-0.220585
0.00304534
-0.2109
0.00485752
-0.204284
0.00681042
-0.199152
0.00880381
-0.194577
0.0107697
-0.190092
0.0126661
-0.185505
0.014471
-0.180771
0.0161764
-0.175919
0.017784
-0.171009
0.0193014
-0.166111
0.0207393
-0.161286
0.0221098
-0.156586
0.0234254
-0.15205
0.0246987
-0.147704
0.0259419
-0.143558
0.0271666
-0.139608
0.0283834
-0.135827
-0.132165
0.0296008
0.000436873
-0.236435
0.00152934
-0.221677
0.00306594
-0.212436
0.0048696
-0.206088
0.00680297
-0.201086
0.00876685
-0.196541
0.0106951
-0.19202
0.0125479
-0.187358
0.0143055
-0.182528
0.0159618
-0.177575
0.0175201
-0.172567
0.018989
-0.16758
0.0203802
-0.162677
0.0217061
-0.157912
0.0229796
-0.153324
0.0242132
-0.148938
0.0254191
-0.144764
0.0266093
-0.140798
0.027795
-0.137012
-0.133356
0.0289856
0.000444353
-0.23688
0.00154359
-0.222777
0.00307913
-0.213972
0.00487091
-0.20788
0.00678129
-0.202996
0.00871227
-0.198472
0.0105997
-0.193908
0.0124061
-0.189164
0.0141138
-0.184236
0.0157187
-0.17918
0.0172257
-0.174074
0.0186447
-0.168998
0.0199877
-0.16402
0.0212679
-0.159192
0.0224981
-0.154554
0.0236908
-0.15013
0.0248584
-0.145932
0.0260131
-0.141953
0.0271666
-0.138166
-0.134519
0.0283296
0.000450377
-0.23733
0.00155387
-0.22388
0.00308531
-0.215503
0.00486194
-0.209656
0.00674594
-0.20488
0.00864074
-0.200366
0.0104843
-0.195751
0.0122415
-0.190922
0.0138969
-0.185892
0.0154484
-0.180731
0.0169022
-0.175528
0.0182695
-0.170366
0.019563
-0.165313
0.0207961
-0.160425
0.0219817
-0.15574
0.0231323
-0.151281
0.0242603
-0.14706
0.0253781
-0.143071
0.0264983
-0.139286
-0.135653
0.0276326
0.000455053
-0.237785
0.00156047
-0.224985
0.00308494
-0.217028
0.00484323
-0.211415
0.00669762
-0.206735
0.00855311
-0.202222
0.0103499
-0.197548
0.0120552
-0.192627
0.013656
-0.187492
0.0151519
-0.182227
0.0165507
-0.176927
0.0178646
-0.17168
0.019107
-0.166556
0.0202915
-0.16161
0.0214311
-0.156879
0.0225382
-0.152388
0.023625
-0.148147
0.0247044
-0.14415
0.0257896
-0.140371
-0.136757
0.0268938
0.000458453
-0.238244
0.00156366
-0.226091
0.00307849
-0.218542
0.00481544
-0.213152
0.00663713
-0.208556
0.00845031
-0.204035
0.0101975
-0.199295
0.0118485
-0.194278
0.0133923
-0.189036
0.0148306
-0.183665
0.0161726
-0.178269
0.0174314
-0.172938
0.0186209
-0.167745
0.0197552
-0.162744
0.0208471
-0.157971
0.0219088
-0.15345
0.0229525
-0.14919
0.0239912
-0.145189
0.0250391
-0.141419
-0.137829
0.0261111
0.000460684
-0.238704
0.00156379
-0.227194
0.00306653
-0.220045
0.00477932
-0.214864
0.00656541
-0.210342
0.0083335
-0.205803
0.0100286
-0.20099
0.0116228
-0.195872
0.0131076
-0.190521
0.0144862
-0.185044
0.0157695
-0.179552
0.0169712
-0.17414
0.018106
-0.16888
0.0191881
-0.163826
0.0202301
-0.159013
0.0212441
-0.154464
0.0222422
-0.150188
0.0232374
-0.146184
0.0242452
-0.142427
-0.138866
0.0252821
0.000461901
-0.239166
0.00156131
-0.228293
0.00304975
-0.221534
0.00473577
-0.21655
0.00648358
-0.21209
0.00820399
-0.207524
0.00984452
-0.202631
0.0113799
-0.197408
0.0128035
-0.191944
0.0141206
-0.186361
0.0153431
-0.180775
0.0164858
-0.175283
0.0175638
-0.169958
0.0185913
-0.164853
0.019581
-0.160003
0.0205446
-0.155427
0.0214937
-0.151138
0.0224419
-0.147132
0.0234055
-0.14339
-0.139864
0.0244036
0.000462384
-0.239629
0.00155684
-0.229388
0.00302899
-0.223006
0.00468587
-0.218207
0.00639293
-0.213797
0.00806332
-0.209194
0.00964716
-0.204215
0.0111216
-0.198882
0.0124822
-0.193305
0.0137359
-0.187615
0.0148958
-0.181935
0.0159773
-0.176364
0.0169961
-0.170977
0.0179664
-0.165824
0.0189008
-0.160937
0.0198105
-0.156337
0.0207069
-0.152034
0.0216035
-0.148029
0.0225179
-0.144305
-0.140818
0.0234717
0.000462609
-0.240091
0.00155123
-0.230476
0.00300531
-0.22446
0.00463085
-0.219833
0.00629494
-0.215461
0.00791324
-0.210812
0.0094385
-0.20574
0.0108503
-0.200294
0.0121463
-0.194601
0.0133349
-0.188804
0.0144303
-0.18303
0.0154486
-0.177383
0.0164056
-0.171934
0.0173156
-0.166734
0.0181909
-0.161812
0.0190423
-0.157188
0.0198809
-0.152873
0.02072
-0.148868
0.0215782
-0.145163
-0.14172
0.0224802
0.000463381
-0.240555
0.00154565
-0.231559
0.00297994
-0.225894
0.00457207
-0.221425
0.00619121
-0.21708
0.00775565
-0.212377
0.00922081
-0.207205
0.0105687
-0.201642
0.0117988
-0.195831
0.012921
-0.189926
0.0139504
-0.18406
0.0149034
-0.178336
0.015796
-0.172827
0.0166422
-0.16758
0.017454
-0.162624
0.0182417
-0.157976
0.0190156
-0.153647
0.0197886
-0.149641
0.0205802
-0.145955
-0.142561
0.0214205
0.000465844
-0.24102
0.0015414
-0.232634
0.00295406
-0.227307
0.0045109
-0.222982
0.00608344
-0.218653
0.00759263
-0.213886
0.00899656
-0.208609
0.0102796
-0.202925
0.0114431
-0.196994
0.0124982
-0.190981
0.0134605
-0.185022
0.0143468
-0.179222
0.0151728
-0.173653
0.0159521
-0.168359
0.0166961
-0.163368
0.0174141
-0.158694
0.0181151
-0.154348
0.0188112
-0.150337
0.019523
-0.146666
-0.143327
0.0202894
0.000471391
-0.241492
0.0015398
-0.233702
0.00292901
-0.228696
0.0044489
-0.224502
0.00597348
-0.220178
0.00742637
-0.215339
0.0087684
-0.209951
0.00998623
-0.204143
0.011083
-0.198091
0.0120708
-0.191969
0.0129657
-0.185917
0.0137845
-0.180041
0.0145425
-0.174411
0.0152526
-0.169069
0.0159252
-0.164041
0.0165686
-0.159338
0.0171903
-0.154969
0.0178003
-0.150947
0.0184192
-0.147285
-0.143995
0.0190871
0.00048235
-0.241974
0.00154347
-0.234764
0.00290726
-0.23006
0.00438819
-0.225983
0.00586328
-0.221653
0.00725898
-0.216734
0.00853885
-0.211231
0.00969181
-0.205296
0.0107225
-0.199122
0.0116439
-0.19289
0.0124722
-0.186745
0.0132236
-0.180792
0.0139124
-0.175099
0.0145506
-0.169708
0.0151472
-0.164637
0.0157097
-0.1599
0.0162445
-0.155504
0.016758
-0.151461
0.0172631
-0.14779
-0.144516
0.0177839
0.000506303
-0.24248
0.00155964
-0.235817
0.00289285
-0.231393
0.00433066
-0.22742
0.00575408
-0.223076
0.00709188
-0.218072
0.00830995
-0.212449
0.00939927
-0.206385
0.0103659
-0.200089
0.0112234
-0.193748
0.0119879
-0.18751
0.0126745
-0.181479
0.0132957
-0.175721
0.0138606
-0.170272
0.014375
-0.165152
0.0148425
-0.160368
0.0152652
-0.155927
0.0156418
-0.151837
0.0159767
-0.148125
-0.144871
0.0163321
0.000563366
-0.243044
0.00159659
-0.23685
0.00288555
-0.232682
0.00427513
-0.22881
0.0056454
-0.224446
0.00692548
-0.219352
0.00808299
-0.213607
0.0091109
-0.207413
0.0100168
-0.200994
0.0108151
-0.194546
0.0115218
-0.188216
0.0121514
-0.182108
0.0127145
-0.176284
0.0132166
-0.170775
0.0136576
-0.165593
0.0140301
-0.16074
0.0143171
-0.156214
0.0144926
-0.152013
0.0145515
-0.148184
-0.145042
0.0147229
0.250721
0.000414826
-0.251136
0.250332
0.000388461
0.249951
0.000381187
0.24957
0.000381315
0.249185
0.000384256
0.248797
0.000388664
0.248403
0.000393812
0.248004
0.000399114
0.2476
0.000404175
0.247191
0.000408793
0.246778
0.000412868
0.246362
0.000416376
0.245942
0.000419298
0.245521
0.000421612
0.245098
0.000423192
0.244674
0.000423834
0.244251
0.000422488
0.243833
0.000418607
0.24343
0.000402991
0.000385893
0.252679
0.00102292
-0.253287
0.252035
0.0010321
0.251363
0.00105317
0.250665
0.00108014
0.24994
0.00110849
0.249192
0.00113684
0.248421
0.00116474
0.247629
0.00119168
0.246816
0.00121724
0.245983
0.00124117
0.245133
0.00126335
0.244265
0.00128376
0.243382
0.0013024
0.242485
0.00131926
0.241574
0.00133419
0.24065
0.001347
0.239716
0.00135657
0.238772
0.00136265
0.237816
0.00135895
0.00135213
0.251451
0.00159448
-0.252023
0.250815
0.00166835
0.250126
0.00174244
0.249388
0.00181762
0.248605
0.00189157
0.247779
0.00196305
0.246912
0.00203174
0.246006
0.00209741
0.245064
0.00215982
0.244086
0.00221881
0.243075
0.00227432
0.242032
0.00232641
0.24096
0.00237516
0.239858
0.00242067
0.238729
0.00246297
0.237574
0.00250209
0.236393
0.0025375
0.235187
0.00256946
0.23395
0.00259557
0.00262002
0.247339
0.00203763
-0.247782
0.246827
0.00218112
0.246249
0.00231999
0.245611
0.00245567
0.244915
0.00258752
0.244163
0.00271475
0.243358
0.002837
0.242501
0.00295412
0.241595
0.00306598
0.240642
0.00317248
0.239642
0.00327366
0.238599
0.00336964
0.237513
0.00346063
0.236387
0.00354691
0.235221
0.00362875
0.234017
0.00370652
0.232774
0.0037803
0.231493
0.00385074
0.230171
0.0039171
0.00398139
0.241087
0.00231653
-0.241366
0.240737
0.00253128
0.240318
0.00273926
0.239832
0.00294131
0.239282
0.00313739
0.23867
0.00332704
0.237997
0.00350993
0.237265
0.00368586
0.236476
0.00385473
0.235632
0.00401648
0.234735
0.00417119
0.233786
0.00431906
0.232786
0.00446042
0.231737
0.00459573
0.23064
0.00472552
0.229496
0.00485051
0.228305
0.00497127
0.227067
0.00508878
0.225781
0.00520317
0.00531614
0.233487
0.00243984
-0.23361
0.233293
0.00272515
0.23303
0.00300253
0.232699
0.00327228
0.232302
0.00353444
0.23184
0.0037887
0.231315
0.00403473
0.230729
0.0042723
0.230082
0.00450127
0.229377
0.00472162
0.228615
0.00493343
0.227797
0.00513697
0.226925
0.00533266
0.225999
0.00552114
0.225022
0.00570322
0.223992
0.00587992
0.222911
0.00605229
0.221778
0.00622173
0.220592
0.00638909
0.0065562
0.225242
0.00243806
-0.22524
0.225176
0.00279138
0.225042
0.00313602
0.224842
0.00347192
0.224578
0.00379899
0.22425
0.00411696
0.223859
0.0044255
0.223407
0.00472432
0.222895
0.00501325
0.222324
0.00529224
0.221696
0.00556139
0.221012
0.00582099
0.220273
0.00607156
0.219481
0.00631388
0.218635
0.00654902
0.217736
0.00677836
0.216785
0.00700345
0.215781
0.00722618
0.214722
0.00744811
0.00767138
0.216879
0.00234737
-0.216788
0.216905
0.00276515
0.216867
0.00317366
0.216767
0.00357259
0.216604
0.00396173
0.21638
0.00434078
0.216096
0.00470935
0.215753
0.00506711
0.215353
0.00541382
0.214896
0.0057494
0.214383
0.00607391
0.213817
0.00638765
0.213197
0.00669121
0.212525
0.0069855
0.211802
0.00727185
0.211029
0.007552
0.210204
0.00782807
0.209328
0.00810256
0.208398
0.00837785
0.00865661
0.208745
0.00220104
-0.208598
0.20883
0.0026795
0.208856
0.00314811
0.208822
0.00360645
0.20873
0.00405417
0.20858
0.0044909
0.208373
0.00491618
0.20811
0.00532962
0.207793
0.00573092
0.207423
0.00611989
0.207
0.00649657
0.206526
0.00686121
0.206003
0.00721442
0.205431
0.00755723
0.204812
0.00789119
0.204146
0.00821841
0.203432
0.00854166
0.20267
0.00886421
0.201859
0.0091895
0.00952105
0.20104
0.00202604
-0.200865
0.201158
0.0025616
0.201219
0.00308675
0.201225
0.00360093
0.201175
0.00410373
0.201072
0.00459464
0.200915
0.00507317
0.200705
0.00553882
0.200445
0.00599119
0.200135
0.00643001
0.199776
0.0068552
0.199371
0.00726695
0.198919
0.00766582
0.198424
0.00805286
0.197885
0.00842983
0.197304
0.0087992
0.196681
0.00916447
0.196016
0.00952979
0.195305
0.00990013
0.0102803
0.193858
0.00184221
-0.193674
0.193988
0.00243177
0.194064
0.00301033
0.194088
0.00357723
0.19406
0.00413194
0.19398
0.00467388
0.193851
0.00520245
0.193673
0.00571705
0.193447
0.00621717
0.193174
0.0067024
0.192857
0.00717252
0.192497
0.00762756
0.192094
0.00806799
0.191652
0.00849474
0.191173
0.00890975
0.190656
0.00931567
0.190104
0.00971693
0.189515
0.0101186
0.188887
0.0105278
0.0109511
0.187221
0.00166297
-0.187042
0.187349
0.00230401
0.187425
0.00293346
0.187452
0.00355049
0.18743
0.00415448
0.187359
0.00474476
0.187241
0.00532062
0.187076
0.00588137
0.186867
0.00642633
0.186615
0.00695495
0.18632
0.0074668
0.185986
0.00796167
0.185614
0.00843983
0.185207
0.00890196
0.184767
0.00935003
0.184296
0.00978663
0.183795
0.0102173
0.183266
0.0106478
0.182705
0.0110886
0.0115483
0.181109
0.00149663
-0.180943
0.181226
0.00218732
0.181294
0.00286567
0.181314
0.00353076
0.181286
0.00418191
0.181213
0.00481837
0.181094
0.00543932
0.180931
0.00604392
0.180726
0.00663136
0.18048
0.00720086
0.180195
0.00775177
0.179874
0.00828355
0.179517
0.00879613
0.179129
0.00928973
0.178713
0.00976619
0.178272
0.0102276
0.177809
0.0106808
0.177325
0.0111314
0.176818
0.0115956
0.0120829
0.175481
0.00134804
-0.175333
0.175582
0.00208686
0.175635
0.00281253
0.175641
0.00352412
0.175602
0.00422081
0.175519
0.00490177
0.175392
0.00556605
0.175224
0.00621271
0.175014
0.00684077
0.174766
0.00744921
0.17448
0.00803708
0.174161
0.00860344
0.173809
0.00914777
0.173429
0.00966953
0.173025
0.0101703
0.172602
0.0106506
0.172163
0.0111195
0.171715
0.0115798
0.171253
0.012058
0.0125609
0.170284
0.00121948
-0.170155
0.170365
0.00200531
0.170401
0.00277707
0.170391
0.00353386
0.170337
0.00427478
0.17024
0.00499888
0.170101
0.00570513
0.169921
0.00639245
0.169702
0.00705968
0.169446
0.00770557
0.169154
0.00832885
0.16883
0.00892807
0.168475
0.00950216
0.168095
0.0100495
0.167694
0.0105711
0.16728
0.0110651
0.166857
0.0115426
0.166436
0.0120001
0.166013
0.0124817
0.0129808
0.165463
0.00111171
-0.165355
0.165525
0.00194349
0.165542
0.00276028
0.165514
0.00356117
0.165444
0.00434519
0.165332
0.0051113
0.165178
0.00585837
0.164986
0.00658521
0.164755
0.00729047
0.164488
0.00797268
0.164186
0.00863021
0.163853
0.00926112
0.163492
0.00986361
0.163107
0.0104348
0.162703
0.0109747
0.16229
0.0114777
0.161875
0.0119575
0.161478
0.0123972
0.16109
0.0128701
0.0133307
0.160966
0.00102424
-0.160879
0.161009
0.00190091
0.161008
0.00276172
0.160963
0.00360567
0.160877
0.00443173
0.160749
0.00523876
0.160582
0.00602558
0.160376
0.00679087
0.160133
0.00753315
0.159855
0.00825069
0.159544
0.00894157
0.159202
0.00960334
0.158832
0.0102335
0.158439
0.0108276
0.15803
0.0113844
0.157614
0.0118929
0.157203
0.0123693
0.156826
0.0127739
0.156468
0.0132283
0.0135848
0.156747
0.000955239
-0.156678
0.156772
0.00187603
0.156754
0.0027797
0.156694
0.00366554
0.156593
0.00453243
0.156453
0.00537917
0.156274
0.00620452
0.156058
0.00700707
0.155805
0.0077852
0.155519
0.00853703
0.1552
0.00926034
0.154851
0.00995226
0.154475
0.0106096
0.154076
0.0112265
0.153661
0.0118001
0.153241
0.0123125
0.152829
0.0127812
0.152474
0.0131294
0.15214
0.013562
0.0137119
0.152761
0.000902752
-0.152709
0.152771
0.00186599
0.15274
0.00281099
0.152668
0.00373718
0.152557
0.00464327
0.152409
0.00552806
0.152223
0.00639028
0.152001
0.00722846
0.151746
0.00804087
0.151457
0.0088255
0.151138
0.00957996
0.150789
0.010301
0.150413
0.0109851
0.150015
0.0116251
0.149598
0.0122168
0.149176
0.0127348
0.14876
0.013197
0.148425
0.0134639
0.148133
0.0138548
0.0136603
0.148971
-0.148933
0.000865218
0.14897
0.00186685
0.14893
0.00285122
0.148851
0.00381554
0.148736
0.00475844
0.148585
0.00567884
0.1484
0.00657549
0.148182
0.00744684
0.147931
0.00829111
0.147651
0.00910622
0.147341
0.00988971
0.147004
0.0106382
0.146641
0.0113479
0.146255
0.0120108
0.145849
0.0126229
0.145432
0.013152
0.145009
0.0136202
0.144658
0.0138146
0.1444
0.0141125
0.0130182
0.254356
7.40692e-05
-0.25443
0.254319
3.63624e-05
0.254287
3.25096e-05
0.254245
4.14243e-05
0.254189
5.58386e-05
0.254116
7.36739e-05
0.254022
9.36275e-05
0.253908
0.000114575
0.253772
0.000135704
0.253615
0.000156506
0.253439
0.000176541
0.253243
0.00019553
0.253029
0.000213963
0.252796
0.000232896
0.252546
0.000250178
0.252281
0.000265348
0.252003
0.000278004
0.251715
0.000288056
0.251425
0.000289644
0.000289646
0.256204
-0.000241309
-0.255889
0.256458
-0.000217408
0.256667
-0.00017654
0.256831
-0.000122796
0.25695
-6.26875e-05
0.257023
1.17979e-06
0.257048
6.76634e-05
0.257027
0.000135672
0.256959
0.000204283
0.256843
0.000272562
0.25668
0.000339265
0.256472
0.000403152
0.256223
0.000462988
0.255926
0.000530312
0.255584
0.000591999
0.2552
0.000649116
0.254777
0.000701532
0.254316
0.000749184
0.253818
0.000787416
0.000820448
0.251633
-0.000897562
-0.250976
0.252216
-0.000800767
0.252734
-0.000694122
0.253189
-0.000577793
0.253581
-0.000455292
0.253911
-0.000328863
0.254179
-0.000199652
0.254383
-6.90677e-05
0.254525
6.28994e-05
0.254602
0.000195684
0.254615
0.000325436
0.254567
0.000451782
0.254453
0.000577016
0.254281
0.000701983
0.25405
0.000822796
0.253761
0.0009386
0.253413
0.00104892
0.253009
0.00115364
0.252546
0.00125083
0.00134329
0.243311
-0.00183255
-0.242376
0.244173
-0.00166305
0.244965
-0.00148628
0.245689
-0.0013015
0.246344
-0.00111039
0.24693
-0.000914753
0.247446
-0.000715935
0.247893
-0.000515199
0.248269
-0.000313236
0.248572
-0.000107278
0.248803
9.45005e-05
0.248965
0.000289082
0.249057
0.000485593
0.24908
0.000679084
0.249034
0.000868496
0.24892
0.00105292
0.248737
0.0012316
0.248486
0.00140418
0.248168
0.00156959
0.00172839
0.233227
-0.00296627
-0.232094
0.234293
-0.0027286
0.23529
-0.00248342
0.236219
-0.00223029
0.237079
-0.00197015
0.237868
-0.00170447
0.238587
-0.00143469
0.239234
-0.00116203
0.239808
-0.000887425
0.240313
-0.000611682
0.240745
-0.000338016
0.241102
-6.78491e-05
0.241387
0.000200896
0.241599
0.000466308
0.24174
0.000727996
0.241808
0.00098452
0.241805
0.00123514
0.24173
0.00147928
0.241583
0.0017161
0.00194554
0.222671
-0.00422639
-0.221411
0.223868
-0.00392543
0.225
-0.00361539
0.226066
-0.00329642
0.227065
-0.00296933
0.227996
-0.00263555
0.228858
-0.00229665
0.22965
-0.00195408
0.230372
-0.0016093
0.231024
-0.00126366
0.231605
-0.000918702
0.232112
-0.000575726
0.232549
-0.000235594
0.232915
0.000100158
0.23321
0.000433012
0.233433
0.000761855
0.233584
0.00108401
0.233664
0.0013994
0.233672
0.0017074
0.00200776
0.212425
-0.00555536
-0.211096
0.213695
-0.0051953
0.214904
-0.00482405
0.21605
-0.00444225
0.217131
-0.00405096
0.218148
-0.00365177
0.219098
-0.00324651
0.21998
-0.0028369
0.220796
-0.0024246
0.221543
-0.00201107
0.222222
-0.0015977
0.222832
-0.00118592
0.223373
-0.000776505
0.223843
-0.000370208
0.224251
2.53007e-05
0.224587
0.000426319
0.224853
0.000817712
0.225051
0.00120178
0.22518
0.00157846
0.00194734
0.202902
-0.00691143
-0.201546
0.204202
-0.00649559
0.205444
-0.00606616
0.206626
-0.00562417
0.207746
-0.0051711
0.208804
-0.00470896
0.209797
-0.00423988
0.210726
-0.00376588
0.21159
-0.00328879
0.212389
-0.00281023
0.213123
-0.00233169
0.213792
-0.00185451
0.214395
-0.00137979
0.214933
-0.000908474
0.215401
-0.00044193
0.215813
1.37175e-05
0.216154
0.000476888
0.216431
0.0009253
0.216642
0.00136716
0.00180112
0.194259
-0.00826682
-0.192903
0.195561
-0.00779774
0.196807
-0.00731238
0.197995
-0.00681207
0.199123
-0.00629897
0.20019
-0.00577568
0.201194
-0.00524476
0.202137
-0.00470854
0.203017
-0.00416907
0.203835
-0.00362813
0.204591
-0.00308726
0.205284
-0.0025478
0.205915
-0.00201092
0.206484
-0.00147756
0.206991
-0.000949108
0.207432
-0.000426887
0.207818
9.0617e-05
0.20814
0.000603936
0.2084
0.00110711
0.00160242
0.186503
-0.00960478
-0.185166
0.18779
-0.00908443
0.189022
-0.0085446
0.190197
-0.00798703
0.191313
-0.00741485
0.192369
-0.00683151
0.193364
-0.00624006
0.194299
-0.00564321
0.195173
-0.00504324
0.195987
-0.00444206
0.196741
-0.00384123
0.197435
-0.00324206
0.19807
-0.00264571
0.198646
-0.00205314
0.199162
-0.00146535
0.199618
-0.000883246
0.200017
-0.00030757
0.200358
0.000262105
0.200641
0.000824799
0.00137801
0.179565
-0.0109166
-0.178253
0.180827
-0.0103467
0.182035
-0.00975322
0.183187
-0.00913858
0.18428
-0.00850753
0.185313
-0.00786455
0.186286
-0.00721331
0.1872
-0.00655688
0.188054
-0.00589778
0.18885
-0.00523799
0.189588
-0.00457906
0.190268
-0.00392224
0.190891
-0.00326861
0.191457
-0.0026191
0.191966
-0.00197456
0.192419
-0.00133584
0.192815
-0.000703468
0.193157
-8.03815e-05
0.193443
0.000538766
0.00114716
0.173337
-0.0121993
-0.172055
0.174572
-0.0115816
0.175754
-0.0109346
0.176877
-0.0102623
0.177942
-0.00957188
0.178946
-0.00886911
0.179891
-0.00815826
0.180777
-0.00744284
0.181605
-0.00672555
0.182375
-0.00600837
0.183089
-0.00529276
0.183747
-0.00457988
0.184349
-0.00387069
0.184896
-0.00316605
0.185388
-0.00246674
0.185826
-0.00177357
0.186209
-0.00108731
0.186539
-0.000409514
0.186817
0.000259983
0.000922978
0.167713
-0.0134538
-0.166458
0.168922
-0.0127906
0.170076
-0.0120892
0.171172
-0.0113578
0.172207
-0.0106069
0.173181
-0.00984364
0.174096
-0.00907291
0.174952
-0.00829868
0.17575
-0.00752375
0.176492
-0.00675
0.177178
-0.00597874
0.177809
-0.00521096
0.178385
-0.00444749
0.178909
-0.00368909
0.179378
-0.00293648
0.179795
-0.00219045
0.180159
-0.0014515
0.18047
-0.000720353
0.180734
-3.77873e-06
0.000713813
0.16259
-0.0146837
-0.16136
0.163778
-0.0139783
0.16491
-0.0132207
0.165979
-0.0124276
0.166987
-0.0116144
0.167932
-0.0107892
0.168817
-0.00995768
0.169643
-0.00912436
0.170411
-0.00829195
0.171123
-0.00746209
0.17178
-0.00663586
0.172383
-0.00581401
0.172933
-0.0049972
0.17343
-0.00418606
0.173875
-0.00338124
0.174268
-0.00258347
0.17461
-0.0017934
0.174902
-0.00101236
0.17514
-0.000242138
0.000521291
0.157888
-0.0158957
-0.156676
0.159062
-0.0151524
0.160176
-0.0143346
0.161224
-0.013476
0.162207
-0.0125973
0.163126
-0.0117075
0.163982
-0.0108137
0.164778
-0.00992043
0.165516
-0.00903032
0.166198
-0.00814456
0.166826
-0.00726385
0.167401
-0.00638861
0.167923
-0.00551925
0.168393
-0.00465623
0.168812
-0.00380012
0.16918
-0.00295159
0.169498
-0.00211141
0.169766
-0.00128052
0.169984
-0.00046005
0.000350256
0.153542
-0.0171025
-0.152335
0.154713
-0.0163233
0.155816
-0.0154379
0.156848
-0.0145077
0.157808
-0.013558
0.1587
-0.0125994
0.159527
-0.0116406
0.160293
-0.0106864
0.161001
-0.00973824
0.161653
-0.00879685
0.162252
-0.00786228
0.162798
-0.00693447
0.163292
-0.00601344
0.163735
-0.00509948
0.164128
-0.004193
0.164471
-0.00329464
0.164765
-0.00240513
0.16501
-0.00152529
0.165206
-0.00065634
0.000200766
0.149507
-0.0183331
-0.148277
0.15069
-0.0175062
0.151789
-0.0165368
0.152807
-0.0155253
0.153744
-0.0144951
0.154606
-0.0134616
0.155401
-0.0124354
0.156134
-0.0114194
0.156809
-0.0104136
0.15743
-0.00941758
0.157998
-0.00843039
0.158515
-0.00745128
0.158981
-0.00647983
0.159398
-0.00551607
0.159765
-0.00456031
0.160083
-0.00361311
0.160354
-0.0026752
0.160576
-0.00174748
0.16075
-0.000830912
7.21426e-05
0.145754
-0.0196521
-0.144435
0.146971
-0.0187228
0.148066
-0.017632
0.149064
-0.0165234
0.149969
-0.0154004
0.150794
-0.0142859
0.15155
-0.0131915
0.152245
-0.0121151
0.152885
-0.0110538
0.153473
-0.0100054
0.154011
-0.00896774
0.154499
-0.00793923
0.154938
-0.006919
0.155329
-0.00590686
0.155671
-0.00490305
0.155966
-0.00390813
0.156214
-0.00292286
0.156415
-0.0019483
0.156569
-0.000985448
-3.6233e-05
0.142298
-0.0211294
-0.140821
0.143546
-0.0199707
0.144619
-0.0187052
0.145575
-0.0174796
0.146432
-0.0162572
0.147208
-0.0150617
0.147919
-0.013902
0.148573
-0.0127698
0.149177
-0.0116573
0.149732
-0.0105603
0.150239
-0.00947512
0.150699
-0.00839955
0.151113
-0.00733239
0.151479
-0.0062734
0.151799
-0.00522287
0.152072
-0.00418142
0.152299
-0.0031499
0.152481
-0.00212949
0.152617
-0.00112169
-0.000128033
0.139209
-0.137792
-0.0225465
0.14037
-0.0211318
0.141404
-0.0197384
0.14228
-0.0183561
0.143069
-0.017046
0.143792
-0.015785
0.144457
-0.0145668
0.145072
-0.0133842
0.14564
-0.0122261
0.146164
-0.0110844
0.146644
-0.00995454
0.147078
-0.00883393
0.147467
-0.00772147
0.147811
-0.00661702
0.148109
-0.00552108
0.148362
-0.00443441
0.14857
-0.003358
0.148734
-0.00229286
0.148853
-0.00124056
-0.000208579
0.0308024
0.112006
-0.110524
-0.0322851
0.0292925
0.115011
-0.113502
0.0277526
0.118149
-0.11661
0.0261791
0.121444
-0.11987
0.0245688
0.124926
-0.123316
0.0229189
0.128639
-0.126989
0.0212272
0.132641
-0.130949
0.0194924
0.13701
-0.135275
0.0177139
0.141851
-0.140073
0.015892
0.147296
-0.145474
0.0140283
0.153504
-0.15164
0.0121273
0.160662
-0.158761
0.0101978
0.168972
-0.167042
0.00825638
0.178621
-0.17668
0.00633302
0.189733
-0.187809
0.0044778
0.202271
-0.200416
0.00277045
0.215899
-0.214192
0.00133141
0.229762
-0.228323
0.0003299
0.242079
-0.241078
0.249719
-0.249389
0.0306142
0.113481
-0.0320893
0.0291118
0.116514
0.0275796
0.119682
0.0260142
0.123009
0.024412
0.126528
0.0227704
0.13028
0.0210871
0.134324
0.0193605
0.138737
0.0175898
0.143622
0.0157755
0.14911
0.0139193
0.15536
0.0120259
0.162555
0.0101047
0.170893
0.00817318
0.180553
0.00626242
0.191643
0.00442402
0.204109
0.00273918
0.217584
0.00132778
0.231174
0.000353678
0.243053
0.250072
0.0303839
0.114947
-0.0318494
0.0288913
0.118006
0.0273692
0.121204
0.0258139
0.124564
0.0242221
0.12812
0.022591
0.131912
0.0209182
0.135997
0.019202
0.140453
0.0174415
0.145382
0.0156372
0.150914
0.0137909
0.157206
0.0119075
0.164439
0.00999711
0.172803
0.00807791
0.182472
0.0061819
0.193539
0.00436174
0.20593
0.00269916
0.219247
0.0013124
0.23256
0.000356768
0.244009
0.250429
0.0301135
0.1164
-0.0315671
0.0286328
0.119487
0.0271227
0.122714
0.0255797
0.126107
0.0240004
0.129699
0.0223817
0.13353
0.0207214
0.137657
0.0190177
0.142157
0.0172696
0.147131
0.0154775
0.152707
0.0136433
0.15904
0.0117724
0.16631
0.00987501
0.174701
0.00797026
0.184377
0.0060909
0.195419
0.00429032
0.20773
0.0026504
0.220887
0.00128771
0.233923
0.000351719
0.244945
0.250781
0.029805
0.11784
-0.0312449
0.0283382
0.120954
0.0268421
0.12421
0.0253131
0.127636
0.023748
0.131264
0.0221437
0.135135
0.0204978
0.139303
0.0188085
0.143846
0.0170748
0.148864
0.0152968
0.154484
0.013477
0.16086
0.0116205
0.168166
0.0097384
0.176583
0.00785021
0.186265
0.00598952
0.19728
0.00421036
0.209509
0.00259464
0.222502
0.00125731
0.23526
0.000342817
0.245859
0.251124
0.0294611
0.119265
-0.0308857
0.0280096
0.122405
0.026529
0.125691
0.0250158
0.12915
0.0234664
0.132814
0.0218781
0.136723
0.0202483
0.140933
0.0185751
0.145519
0.0168575
0.150582
0.0150958
0.156246
0.0132921
0.162664
0.0114523
0.170006
0.00958749
0.178448
0.00771801
0.188134
0.00587812
0.199119
0.00412247
0.211265
0.0025329
0.224092
0.00122256
0.236571
0.000331228
0.246751
0.251455
0.0290845
0.120673
-0.0304928
0.0276495
0.12384
0.0261857
0.127154
0.0246893
0.130646
0.0231571
0.134346
0.0215861
0.138294
0.0199739
0.142545
0.0183184
0.147175
0.0166186
0.152282
0.0148747
0.15799
0.0130892
0.164449
0.011268
0.171827
0.00942258
0.180293
0.00757395
0.189983
0.00575704
0.200936
0.00402703
0.212995
0.00246558
0.225653
0.00118401
0.237852
0.000317659
0.247617
0.251773
0.0286781
0.122065
-0.0300694
0.0272603
0.125258
0.025814
0.128601
0.0243355
0.132124
0.0228214
0.13586
0.0212689
0.139846
0.0196754
0.144138
0.018039
0.148811
0.0163585
0.153962
0.0146343
0.159714
0.0128687
0.166215
0.0110679
0.173628
0.00924396
0.182117
0.00741829
0.191808
0.00562653
0.202728
0.00392432
0.214697
0.00239306
0.227185
0.00114219
0.239103
0.000302714
0.248456
0.252075
0.0282447
0.123439
-0.0296191
0.0268444
0.126659
0.0254159
0.130029
0.0239557
0.133585
0.0224605
0.137355
0.0209273
0.14138
0.0193536
0.145712
0.0177375
0.150427
0.0160778
0.155622
0.0143747
0.161417
0.0126308
0.167959
0.0108523
0.175406
0.00905186
0.183917
0.00725129
0.193609
0.00548686
0.204493
0.00381465
0.216369
0.00231571
0.228684
0.00109758
0.240321
0.000286808
0.249267
0.252362
0.0277873
0.124797
-0.0291454
0.0264038
0.128042
0.0249931
0.13144
0.0235513
0.135026
0.0220753
0.138831
0.0205621
0.142893
0.0190091
0.147265
0.0174144
0.152022
0.0157767
0.15726
0.0140963
0.163098
0.0123757
0.169679
0.0106215
0.17716
0.00884651
0.185692
0.00707316
0.195382
0.00533828
0.206227
0.00369831
0.218009
0.00223387
0.230148
0.00105054
0.241505
0.000270187
0.250048
0.252632
0.0273081
0.126141
-0.0286515
0.0259404
0.12941
0.0245466
0.132834
0.023123
0.13645
0.0216663
0.140288
0.0201735
0.144386
0.018642
0.148796
0.0170698
0.153594
0.0154554
0.158874
0.0137991
0.164754
0.0121036
0.171375
0.0103755
0.178889
0.00862803
0.18744
0.00688408
0.197126
0.00518102
0.20793
0.00357556
0.219615
0.00214785
0.231576
0.00100134
0.242651
0.000253011
0.250796
0.252885
0.0268087
0.127472
-0.02814
0.0254549
0.130764
0.0240769
0.134212
0.0226709
0.137856
0.0212334
0.141725
0.0197614
0.145858
0.0182522
0.150306
0.0167034
0.155143
0.0151137
0.160464
0.0134832
0.166385
0.0118145
0.173044
0.0101145
0.180589
0.00839655
0.189158
0.00668422
0.198839