/*--------------------------------*- C++ -*----------------------------------*\
  =========                 |
  \\      /  F ield         | OpenFOAM: The Open Source CFD Toolbox
   \\    /   O peration     | Website:  https://openfoam.org
    \\  /    A nd           | Version:  6.0
     \\/     M anipulation  |
\*---------------------------------------------------------------------------*/
FoamFile
{
    version     2.0;
    format      ascii;
    class       volScalarField;
    location    "25";
    object      p;
}
// * * * * * * * * * * * * * * * * * * * * * * * * * * * * * * * * * * * * * //

dimensions      [0 2 -2 0 0 0 0];

internalField   nonuniform List<scalar> 
2400
(
-40.3791
-32.6773
-27.8057
-24.0831
-20.8359
-18.0604
-15.7274
-13.761
-12.0866
-10.6591
-42.2289
-34.3283
-29.234
-25.3126
-21.9041
-19.0033
-16.5738
-14.5315
-12.7946
-11.3187
-44.0384
-35.9332
-30.6144
-26.4955
-22.9293
-19.908
-17.3869
-15.2728
-13.477
-11.9569
-45.7894
-37.4778
-31.9342
-27.6201
-23.9005
-20.7634
-18.1552
-15.9737
-14.1243
-12.5682
-47.4643
-38.9471
-33.1811
-28.6763
-24.8087
-21.5608
-18.8691
-16.6229
-14.7242
-13.1393
-49.0483
-40.3269
-34.3423
-29.6532
-25.6461
-22.2955
-19.5266
-17.2187
-15.2709
-13.6549
-50.5309
-41.605
-35.404
-30.536
-26.398
-22.957
-20.1248
-17.7667
-15.7747
-14.1249
-51.9093
-42.7746
-36.3547
-31.3076
-27.0401
-23.5129
-20.6275
-18.2376
-16.2323
-14.602
-53.1833
-43.8349
-37.193
-31.9628
-27.5558
-23.9238
-20.9604
-18.5254
-16.5452
-15.0606
-54.3421
-44.788
-37.9298
-32.5179
-27.9641
-24.2022
-21.11
-18.5565
-16.5241
-15.0911
-60.5136
-60.3681
-60.0853
-59.6864
-59.1865
-58.5922
-57.9091
-57.142
-56.2942
-55.3647
-49.3497
-49.3189
-49.1736
-48.9256
-48.5835
-48.1536
-47.6416
-47.0513
-46.3842
-45.6338
-41.1795
-41.2071
-41.1418
-40.9904
-40.7582
-40.4521
-40.079
-39.6428
-39.1441
-38.5771
-34.9652
-34.9974
-34.953
-34.837
-34.6548
-34.4144
-34.1246
-33.7908
-33.4167
-32.9971
-29.9602
-29.9726
-29.9194
-29.8054
-29.6377
-29.4241
-29.1775
-28.9048
-28.6167
-28.308
-25.9278
-25.915
-25.8441
-25.7196
-25.5501
-25.3429
-25.116
-24.877
-24.6493
-24.4258
-22.6441
-22.6088
-22.5205
-22.383
-22.2058
-21.9936
-21.772
-21.5479
-21.3677
-21.21
-19.9142
-19.8622
-19.7609
-19.6133
-19.4278
-19.2044
-18.9758
-18.7479
-18.6117
-18.5122
-17.5975
-17.5356
-17.4286
-17.279
-17.0917
-16.8594
-16.6159
-16.3606
-16.2543
-16.2455
-15.6271
-15.5499
-15.4345
-15.2842
-15.0977
-14.8629
-14.599
-14.2938
-14.1288
-14.2189
-53.6526
-55.0046
-56.2145
-57.2866
-58.2125
-58.9833
-59.5952
-60.0503
-60.3533
-60.5047
-42.4563
-43.7202
-44.8702
-45.8983
-46.7962
-47.5588
-48.1844
-48.675
-49.0316
-49.2549
-34.8089
-35.943
-36.9808
-37.9087
-38.7206
-39.4153
-39.9943
-40.459
-40.8089
-41.0481
-29.4063
-30.4079
-31.3197
-32.1278
-32.8303
-33.4302
-33.9303
-34.3316
-34.6346
-34.8454
-25.2303
-26.1195
-26.9152
-27.6082
-28.2048
-28.7113
-29.1296
-29.4604
-29.7061
-29.8726
-21.9209
-22.7287
-23.4267
-24.0167
-24.5203
-24.9456
-25.2912
-25.5584
-25.7513
-25.8744
-19.2186
-19.9754
-20.5971
-21.1002
-21.5263
-21.8839
-22.1687
-22.383
-22.5323
-22.6196
-16.9647
-17.6608
-18.217
-18.6562
-19.0234
-19.3249
-19.5594
-19.7329
-19.8499
-19.911
-15.2004
-15.7287
-16.1713
-16.5688
-16.8949
-17.1427
-17.3301
-17.471
-17.565
-17.6085
-14.1395
-14.3923
-14.5425
-14.8848
-15.1788
-15.3566
-15.4778
-15.5742
-15.6383
-15.6584
-7.26776
-8.32492
-9.58843
-11.0532
-12.7869
-14.9165
-17.632
-21.2545
-26.9059
-36.3642
-7.82711
-8.95676
-10.2918
-11.8417
-13.6791
-15.935
-18.8054
-22.6183
-28.4917
-38.1577
-8.39351
-9.59634
-11.0038
-12.6408
-14.5846
-16.9691
-19.997
-24.0021
-30.0956
-39.96
-8.96964
-10.2446
-11.7235
-13.4485
-15.4996
-18.0141
-21.2007
-25.3989
-31.7115
-41.7708
-9.55169
-10.8996
-12.4504
-14.2643
-16.4231
-19.067
-22.4116
-26.8017
-33.3309
-43.5802
-10.1436
-11.5624
-13.1831
-15.085
-17.3504
-20.1228
-23.6237
-28.2029
-34.9435
-45.3752
-10.7521
-12.2458
-13.9331
-15.9173
-18.2837
-21.1794
-24.8319
-29.5946
-36.5386
-47.143
-11.3893
-12.948
-14.6894
-16.7484
-19.2124
-22.228
-26.0268
-30.9658
-38.1039
-48.8705
-12.1264
-13.7276
-15.4796
-17.5903
-20.1395
-23.264
-27.1986
-32.3037
-39.6256
-50.5438
-12.991
-14.4933
-16.2252
-18.4062
-21.0456
-24.2714
-28.3316
-33.5916
-41.0844
-52.1462
-2.66968
-3.04595
-3.63191
-4.38615
-5.29464
-6.42172
-7.88787
-9.91428
-13.558
-20.942
-3.05586
-3.49667
-4.15429
-4.9555
-5.90758
-7.09286
-8.64049
-10.7808
-14.5806
-22.1414
-3.35971
-3.90948
-4.65173
-5.52054
-6.54088
-7.80583
-9.45245
-11.7219
-15.6903
-23.4324
-3.74318
-4.36297
-5.16916
-6.10522
-7.20253
-8.55846
-10.3164
-12.7285
-16.8803
-24.8166
-4.18825
-4.85973
-5.72369
-6.72661
-7.90339
-9.35519
-11.2319
-13.7967
-18.1435
-26.2846
-4.65732
-5.3843
-6.31001
-7.38322
-8.64327
-10.1959
-12.198
-14.9233
-19.4736
-27.8261
-5.14251
-5.93146
-6.92243
-8.06948
-9.41737
-11.0765
-13.2107
-16.1041
-20.8648
-29.4326
-5.64832
-6.50195
-7.55935
-8.78257
-10.2222
-11.9929
-14.2654
-17.3338
-22.311
-31.097
-6.17461
-7.09393
-8.2185
-9.51993
-11.0545
-12.9412
-15.3573
-18.6067
-23.8059
-32.8127
-6.71667
-7.70354
-8.89662
-10.2784
-11.9111
-13.9175
-16.4815
-19.9161
-25.3411
-34.5725
-1.90113
-1.41483
-1.1229
-0.90345
-0.754013
-0.657144
-0.612009
-0.61546
-0.66703
-0.766001
-2.49613
-2.0496
-1.71642
-1.46745
-1.2966
-1.1864
-1.13462
-1.13707
-1.19259
-1.29985
-3.10175
-2.67825
-2.3319
-2.0673
-1.88101
-1.76165
-1.70625
-1.71057
-1.77288
-1.89148
-3.84312
-3.39908
-3.03197
-2.74774
-2.54291
-2.41102
-2.34899
-2.35293
-2.42067
-2.55025
-4.72823
-4.24831
-3.84986
-3.53816
-3.30999
-3.16135
-3.08924
-3.09015
-3.16168
-3.30169
-5.81261
-5.28654
-4.84676
-4.4984
-4.2397
-4.06803
-3.9806
-3.97424
-4.04635
-4.19473
-7.21029
-6.61952
-6.12182
-5.72177
-5.41913
-5.21229
-5.09876
-5.0756
-5.14015
-5.29025
-9.13429
-8.44788
-7.86333
-7.38523
-7.01444
-6.74997
-6.58967
-6.53094
-6.5712
-6.7083
-12.6272
-11.799
-11.0844
-10.4886
-10.0124
-9.65513
-9.41496
-9.29
-9.278
-9.37533
-19.8215
-18.8194
-17.9476
-17.2079
-16.6004
-16.1241
-15.7775
-15.56
-15.4695
-15.4974
-0.911438
-1.10194
-1.33595
-1.61089
-1.92244
-2.26244
-2.6154
-2.96251
-3.29577
-3.63726
-1.45765
-1.66425
-1.91766
-2.2148
-2.55101
-2.9202
-3.31311
-3.71052
-4.09166
-4.5144
-2.06489
-2.29109
-2.56792
-2.89222
-3.25963
-3.66501
-4.10136
-4.55556
-5.01906
-5.53234
-2.73992
-2.98737
-3.29038
-3.64591
-4.05014
-4.49854
-4.98496
-5.50139
-6.04877
-6.652
-3.50819
-3.77865
-4.11089
-4.50212
-4.9491
-5.44791
-5.99346
-6.58114
-7.21462
-7.90823
-4.41727
-4.71121
-5.07455
-5.50479
-5.9992
-6.55452
-7.16703
-7.8343
-8.55946
-9.35008
-5.52375
-5.83745
-6.22968
-6.69818
-7.24072
-7.85476
-8.53776
-9.28861
-10.1094
-11.0038
-6.93969
-7.26133
-7.67224
-8.17059
-8.75455
-9.42214
-10.1718
-11.0034
-11.9184
-12.9188
-9.57643
-9.87941
-10.2847
-10.7909
-11.3963
-12.0994
-12.8999
-13.7989
-14.7987
-15.8975
-15.6283
-15.876
-16.2412
-16.7214
-17.3147
-18.0203
-18.8394
-19.776
-20.8327
-22
-23.2541
-17.0883
-14.0027
-11.9716
-10.2072
-8.6669
-7.32847
-6.15046
-5.12121
-4.2652
-24.6177
-18.3686
-15.1639
-13.0071
-11.124
-9.47898
-8.05401
-6.81194
-5.74133
-4.83457
-26.0901
-19.7368
-16.3985
-14.1053
-12.0952
-10.34
-8.82472
-7.51114
-6.37672
-5.39662
-27.662
-21.1869
-17.6998
-15.2588
-13.1134
-11.2416
-9.6304
-8.23891
-7.03777
-5.99886
-29.323
-22.7098
-19.0593
-16.4597
-14.171
-12.177
-10.4655
-8.99247
-7.72262
-6.6246
-31.0609
-24.2945
-20.4672
-17.6986
-15.2596
-13.1387
-11.3237
-9.76749
-8.42884
-7.27312
-32.8632
-25.9291
-21.9122
-18.9654
-16.3702
-14.1191
-12.199
-10.5586
-9.15036
-7.93614
-34.7167
-27.6007
-23.3819
-20.2489
-17.4931
-15.1101
-13.0848
-11.3605
-9.88337
-8.6121
-36.6055
-29.295
-24.8634
-21.5375
-18.6185
-16.1033
-13.9735
-12.1668
-10.6222
-9.29645
-38.5043
-30.9943
-26.3432
-22.8199
-19.7365
-17.09
-14.8574
-12.9699
-11.3597
-9.98229
-6.94216
-3.23868
-1.53742
-0.662521
-0.166689
0.0515166
0.12872
0.134627
0.110963
0.0781882
0.0469647
0.0207424
0.0016988
-0.0113747
-0.0195657
-0.0229543
-0.026018
-0.0235264
-0.0210815
-0.0138246
-7.52151
-3.62624
-1.73607
-0.791714
-0.258206
-0.00938805
0.0863738
0.104792
0.0900002
0.0636511
0.0370423
0.0141105
-0.00264268
-0.0141456
-0.0212934
-0.0240469
-0.0266805
-0.0239638
-0.0213545
-0.0138424
-8.09738
-4.03638
-1.95539
-0.926316
-0.351051
-0.0700073
0.04544
0.0764744
0.0703238
0.050096
0.0278182
0.00794844
-0.00668428
-0.0167328
-0.0229142
-0.0250792
-0.027309
-0.0243831
-0.0216078
-0.0138403
-8.67542
-4.45629
-2.17946
-1.0576
-0.441576
-0.129565
0.00584381
0.049503
0.0517885
0.03742
0.0192258
0.00221427
-0.0104513
-0.019151
-0.0244365
-0.0260558
-0.0279045
-0.0247857
-0.0218402
-0.0138195
-9.23105
-4.84371
-2.37839
-1.17223
-0.524795
-0.186638
-0.0321672
0.0238513
0.0343115
0.0255479
0.011211
-0.0031274
-0.0139657
-0.0214135
-0.0258678
-0.0269806
-0.0284692
-0.0251719
-0.0220518
-0.0137801
-9.70874
-5.17538
-2.5575
-1.28067
-0.606337
-0.243135
-0.0691556
-0.000669638
0.0177909
0.0144101
0.00372689
-0.00810708
-0.0172464
-0.0235319
-0.0272147
-0.027857
-0.0290047
-0.0255416
-0.022243
-0.0137228
-10.1523
-5.58544
-2.82823
-1.44663
-0.714083
-0.309193
-0.10863
-0.0253172
0.00172841
0.00377818
-0.00334352
-0.0127886
-0.0203289
-0.0255258
-0.0284877
-0.0286903
-0.0295144
-0.025896
-0.0224153
-0.0136487
-10.8739
-6.34671
-3.33948
-1.7378
-0.87586
-0.396637
-0.155847
-0.0523977
-0.0149154
-0.00685543
-0.0102644
-0.0173154
-0.0232922
-0.0274384
-0.0297104
-0.0294926
-0.0300066
-0.0262401
-0.0225737
-0.0135608
-11.9614
-7.32018
-3.95244
-2.06113
-1.04692
-0.490186
-0.206434
-0.0806154
-0.0317599
-0.0173914
-0.0170171
-0.0216894
-0.0261431
-0.0292765
-0.0308882
-0.030268
-0.030483
-0.0265747
-0.0227191
-0.0134597
-11.9555
-7.42374
-4.03895
-2.09266
-1.07976
-0.527312
-0.233837
-0.0981737
-0.0432961
-0.0250618
-0.0221262
-0.0250889
-0.0284218
-0.0307894
-0.0318821
-0.0309462
-0.0308869
-0.0268571
-0.0228156
-0.0133234
-10.154
-6.63416
-3.61747
-1.85169
-0.979816
-0.505493
-0.234934
-0.102724
-0.048037
-0.0290116
-0.025151
-0.0273232
-0.0301041
-0.032046
-0.0327818
-0.031636
-0.0312568
-0.0271095
-0.0228226
-0.0130455
-8.22459
-5.72532
-3.23815
-1.67876
-0.9158
-0.510348
-0.26274
-0.128816
-0.0683559
-0.0439331
-0.0355495
-0.0342555
-0.0346424
-0.0349504
-0.0345863
-0.0328223
-0.0318835
-0.0274835
-0.0228322
-0.0126555
-6.50809
-4.81186
-2.87738
-1.53614
-0.852227
-0.502016
-0.283364
-0.15296
-0.0883244
-0.0593086
-0.0466962
-0.0418457
-0.0396429
-0.0381363
-0.0365426
-0.0340841
-0.0325224
-0.0278194
-0.0227571
-0.012155
-4.90403
-3.85574
-2.48096
-1.41133
-0.806187
-0.492617
-0.299539
-0.175429
-0.107236
-0.0737785
-0.0572936
-0.0491308
-0.0444733
-0.0412277
-0.0384454
-0.0353088
-0.033095
-0.0280633
-0.0225542
-0.0115189
-3.623
-2.9999
-2.08138
-1.27084
-0.753896
-0.474556
-0.306707
-0.193465
-0.124336
-0.087122
-0.0671834
-0.0560105
-0.0490616
-0.0441682
-0.0402525
-0.0364537
-0.0335639
-0.0281796
-0.0222009
-0.0107455
-2.65871
-2.27058
-1.68211
-1.11713
-0.711372
-0.465357
-0.312213
-0.207407
-0.138983
-0.0989517
-0.0760442
-0.0622598
-0.0532636
-0.0468624
-0.0418983
-0.0374598
-0.0338879
-0.0281363
-0.0216862
-0.00985376
-1.98705
-1.73364
-1.36519
-0.984121
-0.67072
-0.452786
-0.310814
-0.215002
-0.150072
-0.108832
-0.0835598
-0.0676007
-0.0568761
-0.049174
-0.0432906
-0.038258
-0.0340311
-0.0279208
-0.0210246
-0.00889149
-1.56829
-1.38205
-1.13402
-0.867322
-0.627056
-0.441357
-0.311266
-0.221447
-0.158868
-0.116742
-0.0895197
-0.0718053
-0.0597191
-0.0509827
-0.0443495
-0.0388009
-0.0339907
-0.0275646
-0.0202736
-0.00794492
-1.32828
-1.17392
-0.987344
-0.786073
-0.594128
-0.432788
-0.310957
-0.224248
-0.163489
-0.121589
-0.0934666
-0.074665
-0.0616684
-0.0522158
-0.0450381
-0.0390943
-0.0338219
-0.0271642
-0.0195455
-0.00714777
-1.21473
-1.07438
-0.914882
-0.743378
-0.574963
-0.427062
-0.310582
-0.225806
-0.166071
-0.124376
-0.0957427
-0.0762679
-0.0627276
-0.0528705
-0.0453792
-0.0392091
-0.033649
-0.0268841
-0.0190192
-0.0066755
-12.9257
-12.7778
-12.6007
-12.4051
-12.1719
-11.9023
-11.5559
-11.1722
-10.7315
-10.6594
-9.77211
-9.57934
-9.36636
-9.14773
-8.90775
-8.66305
-8.39681
-8.20301
-8.0852
-8.30994
-7.20237
-7.04666
-6.88841
-6.74349
-6.61333
-6.51714
-6.44886
-6.43425
-6.42947
-6.5375
-5.28721
-5.19677
-5.11364
-5.04431
-4.98678
-4.93949
-4.88514
-4.82553
-4.76171
-4.79379
-3.89258
-3.83969
-3.78777
-3.73511
-3.6795
-3.62176
-3.56352
-3.51704
-3.49336
-3.52347
-2.90513
-2.86892
-2.83144
-2.79269
-2.75449
-2.71953
-2.68932
-2.66428
-2.64463
-2.63749
-2.25572
-2.23228
-2.20717
-2.18044
-2.15251
-2.12365
-2.09389
-2.0634
-2.03432
-2.00985
-1.84727
-1.82983
-1.80972
-1.78711
-1.76231
-1.73571
-1.70776
-1.67889
-1.64988
-1.62124
-1.6072
-1.59288
-1.57577
-1.55605
-1.53396
-1.50976
-1.48371
-1.45606
-1.42713
-1.39727
-1.49197
-1.4791
-1.46345
-1.44517
-1.42441
-1.40137
-1.37623
-1.3492
-1.32049
-1.29031
-13.0613
-13.431
-12.7668
-12.8558
-13.1004
-13.1558
-13.1287
-13.1081
-13.0848
-13.0307
-11.3929
-11.5644
-10.4506
-10.1187
-10.2916
-10.3586
-10.2653
-10.1473
-10.0444
-9.9291
-9.23092
-9.18212
-8.00801
-7.50766
-7.62416
-7.76578
-7.72531
-7.59739
-7.46796
-7.34301
-6.95307
-6.86447
-5.90929
-5.435
-5.49725
-5.66094
-5.6852
-5.59699
-5.48382
-5.38166
-4.96678
-4.93361
-4.32243
-3.97171
-3.9793
-4.09642
-4.14018
-4.09631
-4.02078
-3.95105
-3.4539
-3.47304
-3.17629
-2.97909
-2.96048
-3.01426
-3.04281
-3.02533
-2.98483
-2.94287
-2.44777
-2.48544
-2.3849
-2.30804
-2.29497
-2.31252
-2.32396
-2.31776
-2.29986
-2.27816
-1.86574
-1.90373
-1.88879
-1.87322
-1.87271
-1.87972
-1.88412
-1.8819
-1.87391
-1.86203
-1.57021
-1.6038
-1.61444
-1.61893
-1.62433
-1.62971
-1.63252
-1.63155
-1.62677
-1.61855
-1.44422
-1.47505
-1.49063
-1.49914
-1.50573
-1.51083
-1.51338
-1.51278
-1.50893
-1.50195
0.381537
0.34909
0.273305
0.129864
-0.111235
-0.527204
-1.21282
-2.41334
-4.38878
-8.65532
0.258992
0.224005
0.146016
-0.0014322
-0.245417
-0.667976
-1.34288
-2.56017
-4.39862
-8.07127
0.127675
0.0920609
0.0163886
-0.127088
-0.354917
-0.755973
-1.34519
-2.44946
-3.93264
-6.67225
-0.00996476
-0.045657
-0.116888
-0.252999
-0.453508
-0.816038
-1.28681
-2.17028
-3.29637
-5.17009
-0.150142
-0.184969
-0.250274
-0.375528
-0.547228
-0.852559
-1.22726
-1.84617
-2.67522
-3.84779
-0.288053
-0.319479
-0.378583
-0.486159
-0.635561
-0.866744
-1.17332
-1.56765
-2.1383
-2.82927
-0.417196
-0.442067
-0.494882
-0.580346
-0.70942
-0.872198
-1.11137
-1.36189
-1.72594
-2.12492
-0.528305
-0.546341
-0.591103
-0.657246
-0.761289
-0.87839
-1.05025
-1.22236
-1.45035
-1.68926
-0.611775
-0.625697
-0.661488
-0.714268
-0.794014
-0.885676
-1.00832
-1.13804
-1.29246
-1.45434
-0.659581
-0.671887
-0.701443
-0.746706
-0.811734
-0.890718
-0.988579
-1.09683
-1.21829
-1.34857
1.17736
1.16054
1.11814
1.03119
0.870132
0.578923
0.0826971
-0.77002
-2.16507
-4.64526
1.09073
1.07225
1.02586
0.933014
0.764626
0.462933
-0.0474195
-0.923387
-2.36823
-4.96936
1.00603
0.985972
0.935789
0.837206
0.66156
0.349427
-0.175554
-1.0751
-2.56815
-5.28851
0.923406
0.901861
0.848116
0.743987
0.561149
0.238594
-0.301457
-1.22545
-2.76814
-5.6084
0.84298
0.82006
0.763011
0.653534
0.463554
0.130502
-0.425114
-1.37436
-2.96788
-5.91996
0.764842
0.740679
0.680606
0.565983
0.368887
0.0251493
-0.546714
-1.5222
-3.17209
-6.23203
0.689066
0.663817
0.601003
0.481431
0.277219
-0.0775087
-0.666372
-1.66826
-3.3749
-6.52413
0.615718
0.589607
0.52435
0.399981
0.188588
-0.177614
-0.784813
-1.81643
-3.59151
-6.85692
0.544787
0.518089
0.450771
0.321794
0.103053
-0.275392
-0.901742
-1.96608
-3.7943
-7.20883
0.475959
0.448387
0.379149
0.245858
0.019697
-0.372967
-1.02521
-2.14801
-4.07273
-7.87651
2.10199
2.10106
2.101
2.07792
1.99618
1.80057
1.43362
0.837893
-0.185991
-1.81853
2.00822
2.00453
1.9982
1.96361
1.8641
1.64059
1.22465
0.570079
-0.502009
-2.22792
1.91439
1.90968
1.89965
1.85899
1.75325
1.5278
1.11407
0.472178
-0.53575
-2.2317
1.82036
1.81476
1.80156
1.75653
1.64758
1.42523
1.02151
0.386635
-0.603363
-2.37294
1.72631
1.71946
1.7026
1.65252
1.5383
1.31236
0.90368
0.240688
-0.800062
-2.67063
1.63254
1.62418
1.60321
1.54721
1.42543
1.18956
0.764432
0.0565736
-1.05218
-2.99832
1.53933
1.52935
1.50407
1.4418
1.31166
1.06376
0.620908
-0.127122
-1.29557
-3.31578
1.44696
1.43529
1.40566
1.33709
1.19878
0.939335
0.481859
-0.296991
-1.52145
-3.63727
1.35568
1.34229
1.30833
1.23353
1.08744
0.817217
0.347109
-0.457592
-1.74022
-3.97158
1.26574
1.25062
1.21238
1.13146
0.97782
0.697101
0.214323
-0.614742
-1.95567
-4.31194
4.10292
4.1325
4.18987
4.26907
4.35789
4.44244
4.51198
4.56131
4.59108
4.60604
3.98769
4.01927
4.08098
4.16691
4.26482
4.36066
4.44281
4.50484
4.5466
4.57438
3.79977
3.83327
3.89905
3.99101
4.09657
4.20126
4.29353
4.36597
4.41458
4.44919
3.56949
3.60338
3.67007
3.76331
3.87015
3.97494
4.06236
4.11995
4.14589
4.16665
3.32026
3.35248
3.41572
3.50289
3.59942
3.68751
3.74911
3.76869
3.74493
3.72628
3.06969
3.09837
3.15425
3.22908
3.30663
3.36729
3.38695
3.33558
3.21296
3.11954
2.83003
2.85387
2.89971
2.95729
3.00729
3.02736
2.98908
2.84636
2.59134
2.38633
2.60881
2.62707
2.66148
2.69955
2.71826
2.69137
2.58877
2.34152
1.89973
1.50016
2.40977
2.42234
2.44467
2.46112
2.44476
2.36257
2.1831
1.82702
1.17907
0.504902
2.23323
2.24005
2.25157
2.24766
2.19672
2.0551
1.78306
1.30615
0.438858
-0.71037
4.60947
4.61053
4.61141
4.61202
4.61237
4.61248
4.61233
4.61186
4.61095
4.60946
4.59298
4.59813
4.60177
4.60439
4.60614
4.607
4.60691
4.6058
4.60353
4.59993
4.4861
4.49823
4.50785
4.51492
4.51982
4.52255
4.52306
4.52125
4.51696
4.50998
4.21917
4.24218
4.26181
4.27668
4.28739
4.29398
4.29631
4.29426
4.28765
4.27622
3.79291
3.8309
3.86264
3.88689
3.9044
3.91515
3.919
3.91573
3.90507
3.88671
3.20406
3.26505
3.31383
3.35187
3.37959
3.39688
3.40348
3.39904
3.38316
3.35548
2.48846
2.57569
2.64164
2.69453
2.73311
2.75702
2.76581
2.75903
2.73623
2.69706
1.61189
1.74338
1.83535
1.90867
1.96094
1.99348
2.00614
1.99845
1.96938
1.91789
0.609282
0.784408
0.903668
1.00545
1.07954
1.1271
1.14652
1.13682
1.09631
1.02357
-0.591658
-0.294375
-0.117878
0.0277094
0.126195
0.18569
0.205215
0.185146
0.124457
0.022558
4.6072
4.60395
4.59944
4.59341
4.58558
4.57566
4.56338
4.5485
4.53088
4.5104
4.59479
4.58785
4.57882
4.56739
4.55329
4.53625
4.51598
4.49199
4.46384
4.43289
4.50007
4.4869
4.47011
4.44936
4.42449
4.39543
4.36129
4.3194
4.26875
4.22191
4.25969
4.23762
4.20949
4.17504
4.13492
4.08968
4.03576
3.96321
3.87198
3.80971
3.86028
3.82514
3.78038
3.72602
3.66467
3.59873
3.51882
3.39872
3.2396
3.1587
3.31579
3.26333
3.19664
3.11572
3.02573
2.93292
2.82124
2.63798
2.3776
2.25792
2.64144
2.56851
2.47573
2.36164
2.23226
2.09887
1.94324
1.6841
1.29631
1.10867
1.84352
1.74506
1.61902
1.46175
1.27741
1.08156
0.863638
0.528475
0.0281629
-0.220475
0.918416
0.780368
0.606909
0.394689
0.145624
-0.123219
-0.403942
-0.775817
-1.30625
-1.54403
-0.120001
-0.302677
-0.525578
-0.788344
-1.08843
-1.41243
-1.73545
-2.08077
-2.52647
-2.70496
4.45071
4.28405
4.08424
3.8268
3.49023
3.07867
2.6166
2.13669
1.67275
1.25351
0.898721
0.616522
0.404732
0.253292
0.150127
0.0821056
0.0402141
0.0152071
0.00332776
-0.000671654
4.351
4.1617
3.96917
3.70091
3.34657
2.92536
2.46489
1.99571
1.54925
1.15141
0.818821
0.55704
0.362057
0.223796
0.130108
0.0690141
0.0317417
0.00979952
0.000141392
-0.00267006
4.1316
3.93271
3.74172
3.45972
3.09595
2.67668
2.22982
1.78453
1.36958
1.00656
0.70802
0.47617
0.305218
0.185337
0.104566
0.0528272
0.0214447
0.00349688
-0.00336971
-0.00453322
3.75992
3.59114
3.39866
3.124
2.77719
2.38142
1.96449
1.5556
1.18118
0.858898
0.59779
0.397332
0.250962
0.149305
0.0811267
0.0383542
0.012287
-0.00185934
-0.00634968
-0.00618938
3.20108
3.12682
2.95898
2.72574
2.42539
2.0751
1.70242
1.33798
1.0074
0.725988
0.500515
0.328843
0.204541
0.118806
0.0615674
0.0264112
0.00470241
-0.00614416
-0.00890029
-0.00772507
2.40755
2.50583
2.42794
2.28029
2.05892
1.77557
1.45873
1.1431
0.856108
0.61272
0.418925
0.2721
0.166478
0.0939656
0.0457903
0.0168048
-0.00140426
-0.00952953
-0.0110788
-0.00905867
1.34051
1.68552
1.80081
1.79893
1.69079
1.49255
1.23946
0.974096
0.728391
0.518956
0.352317
0.226244
0.135948
0.074142
0.033284
0.00919463
-0.00623026
-0.0121904
-0.0128961
-0.0101509
0.0688377
0.706762
1.11662
1.31368
1.33919
1.23325
1.0456
0.829049
0.621344
0.441779
0.298223
0.189367
0.111567
0.0583938
0.0234032
0.00318565
-0.0100259
-0.0142909
-0.0143919
-0.0110194
-1.15616
-0.24134
0.498374
0.893699
1.03719
1.01098
0.880083
0.70626
0.531717
0.377869
0.25387
0.159383
0.0918773
0.0457515
0.0155164
-0.00160206
-0.013033
-0.015968
-0.0156188
-0.0116998
-1.93887
-0.877806
0.109316
0.623877
0.826072
0.84687
0.75253
0.609331
0.460213
0.326668
0.218316
0.135374
0.0761445
0.0356789
0.00925575
-0.00539871
-0.0154051
-0.0172983
-0.0166075
-0.0122204
-2.05988
-1.03525
-0.000219796
0.544966
0.740588
0.772309
0.690107
0.559927
0.423038
0.29966
0.199299
0.122336
0.067455
0.0300121
0.00566674
-0.00763531
-0.0168259
-0.0181168
-0.017239
-0.0125348
-2.20042
-1.09619
-0.125841
0.457338
0.648279
0.689159
0.620847
0.505299
0.382429
0.270805
0.179572
0.109293
0.0591028
0.0248042
0.00252298
-0.00950506
-0.0179497
-0.0187375
-0.0176972
-0.0127549
-2.57599
-1.20606
-0.291945
0.350862
0.556934
0.608551
0.554876
0.452837
0.342713
0.242048
0.159592
0.0959338
0.0504914
0.0194247
-0.000714095
-0.0114242
-0.0190863
-0.0193623
-0.0181499
-0.0129575
-3.03517
-1.33791
-0.457536
0.23021
0.465058
0.528916
0.491639
0.403914
0.306337
0.215995
0.141571
0.0838809
0.0426932
0.0145263
-0.00368289
-0.0132032
-0.0201473
-0.0199592
-0.0185845
-0.0131385
-3.54199
-1.50819
-0.614447
0.101857
0.374626
0.452372
0.431335
0.357836
0.272367
0.191847
0.124957
0.0728031
0.0355292
0.0100205
-0.00642337
-0.0148575
-0.0211385
-0.0205293
-0.0189999
-0.0132981
-4.06691
-1.71108
-0.76116
-0.0295959
0.284378
0.378958
0.373975
0.314483
0.240558
0.16929
0.109452
0.0624676
0.0288409
0.00581031
-0.00898962
-0.0164151
-0.0220734
-0.0210772
-0.0193967
-0.013437
-4.60996
-1.9497
-0.903739
-0.160751
0.193999
0.308647
0.31956
0.273783
0.210863
0.148283
0.095017
0.0528379
0.0225989
0.00187436
-0.0113954
-0.0178838
-0.0229562
-0.0216048
-0.0197745
-0.0135553
-5.17141
-2.22239
-1.04711
-0.289304
0.103545
0.241154
0.268014
0.235615
0.183187
0.128764
0.0816144
0.0438918
0.0167894
-0.00179622
-0.0136465
-0.019267
-0.0237893
-0.0221125
-0.0201325
-0.013653
-5.75422
-2.53111
-1.19739
-0.414753
0.013325
0.176119
0.219189
0.199823
0.157406
0.110642
0.0691833
0.0355899
0.0113881
-0.00521639
-0.0157518
-0.0205694
-0.0245753
-0.0226013
-0.0204703
-0.0137302
-6.35031
-2.87232
-1.35931
-0.538153
-0.0765525
0.113108
0.172861
0.166228
0.133381
0.0938175
0.0576563
0.0278882
0.0063672
-0.0084034
-0.0177215
-0.0217966
-0.0253173
-0.0230718
-0.0207872
-0.0137872
)
;

boundaryField
{
    inlet
    {
        type            freestreamPressure;
        freestreamValue uniform 0;
        supersonic      false;
        value           nonuniform List<scalar> 
40
(
0.381537
0.258992
0.127675
-0.00996476
-0.150142
-0.288053
-0.417196
-0.528305
-0.611775
-0.659581
1.17736
1.09073
1.00603
0.923406
0.84298
0.764842
0.689066
0.615718
0.544787
0.475959
2.10199
2.00822
1.91439
1.82036
1.72631
1.63254
1.53933
1.44696
1.35568
1.26574
4.10292
3.98769
3.79977
3.56949
3.32026
3.06969
2.83003
2.60881
2.40977
2.23323
)
;
    }
    outlet
    {
        type            freestreamPressure;
        freestreamValue uniform 0;
        supersonic      false;
        value           nonuniform List<scalar> 
40
(
-6.24027e-06
-8.12401e-06
-1.0772e-05
-1.43272e-05
-1.86908e-05
-2.30339e-05
-2.5237e-05
-2.22132e-05
-1.26869e-05
-1.90773e-06
-1.35802e-06
-1.56325e-06
-1.8101e-06
-2.1046e-06
-2.45286e-06
-2.86055e-06
-3.33255e-06
-3.87198e-06
-4.47835e-06
-5.14909e-06
-5.32708e-07
-5.67037e-07
-6.05653e-07
-6.50036e-07
-7.02423e-07
-7.65376e-07
-8.41815e-07
-9.35119e-07
-1.04921e-06
-1.18846e-06
-4.90582e-10
-1.94132e-08
-7.09788e-08
-1.39719e-07
-2.15792e-07
-2.87444e-07
-3.48141e-07
-3.99293e-07
-4.45455e-07
-4.91274e-07
)
;
    }
    top
    {
        type            symmetryPlane;
    }
    bottom
    {
        type            symmetryPlane;
    }
    cylinder
    {
        type            zeroGradient;
    }
    frontandback
    {
        type            empty;
    }
}


// ************************************************************************* //
