/*--------------------------------*- C++ -*----------------------------------*\
| =========                 |                                                 |
| \\      /  F ield         | OpenFOAM: The Open Source CFD Toolbox           |
|  \\    /   O peration     | Version:  v1912                                 |
|   \\  /    A nd           | Website:  www.openfoam.com                      |
|    \\/     M anipulation  |                                                 |
\*---------------------------------------------------------------------------*/
FoamFile
{
    version     2.0;
    format      ascii;
    class       volScalarField;
    location    "70.5";
    object      p;
}
// * * * * * * * * * * * * * * * * * * * * * * * * * * * * * * * * * * * * * //

dimensions      [0 2 -2 0 0 0 0];


internalField   nonuniform List<scalar> 
9600
(
-41.4882
-36.2234
-32.9967
-30.2596
-27.7543
-25.4875
-23.431
-21.5568
-19.8475
-18.2894
-16.87
-15.5771
-14.3996
-13.3266
-12.348
-11.4544
-10.6375
-9.88913
-9.20196
-8.57376
-42.2482
-36.966
-33.7032
-30.9233
-28.3728
-26.062
-23.964
-22.052
-20.3089
-18.7208
-17.2749
-15.9589
-14.761
-13.6701
-12.6756
-11.7679
-10.9381
-10.178
-9.47973
-8.84225
-43.0099
-37.7045
-34.4044
-31.5813
-28.9855
-26.6303
-24.491
-22.5413
-20.7645
-19.1466
-17.6747
-16.3358
-15.1179
-14.0094
-12.9992
-12.0774
-11.235
-10.4633
-9.75392
-9.10735
-43.7701
-38.4385
-35.0997
-32.2329
-29.5914
-27.1918
-25.011
-23.0239
-21.2136
-19.5663
-18.0686
-16.7073
-15.4697
-14.3437
-13.3181
-12.3826
-11.5277
-10.7444
-10.0241
-9.36872
-44.5257
-39.1667
-35.7881
-32.8768
-30.1893
-27.7452
-25.5232
-23.4987
-21.6553
-19.979
-18.456
-17.0725
-15.8155
-14.6726
-13.6319
-12.6829
-11.8158
-11.0211
-10.2899
-9.62609
-45.2747
-39.8874
-36.4684
-33.5121
-30.7783
-28.2896
-26.0264
-23.965
-22.0889
-20.384
-18.836
-17.4308
-16.155
-14.9953
-13.9399
-12.9777
-12.0986
-11.2928
-10.5511
-9.87919
-46.0153
-40.5992
-37.1393
-34.1375
-31.3572
-28.824
-26.5199
-24.4218
-22.5134
-20.7803
-19.2079
-17.7816
-16.4872
-15.3114
-14.2416
-13.2666
-12.3759
-11.5592
-10.8072
-10.1277
-46.7461
-41.3008
-37.7996
-34.752
-31.9251
-29.3474
-27.0026
-24.8682
-22.9281
-21.1674
-19.5711
-18.124
-16.8117
-15.6201
-14.5364
-13.5489
-12.647
-11.8198
-11.0579
-10.3714
-47.4655
-41.9908
-38.4482
-35.3544
-32.4808
-29.8589
-27.4737
-25.3035
-23.332
-21.5443
-19.9246
-18.4574
-17.1276
-15.9208
-14.8237
-13.8242
-12.9115
-12.0742
-11.3028
-10.6099
-48.1724
-42.668
-39.0837
-35.9436
-33.0234
-30.3574
-27.9322
-25.7266
-23.7244
-21.9102
-20.2677
-18.781
-17.4342
-16.2127
-15.1026
-14.0917
-13.1687
-12.3218
-11.5414
-10.8428
-48.8656
-43.3314
-39.7053
-36.5187
-33.5518
-30.842
-28.3773
-26.1368
-24.1044
-22.2643
-20.5997
-19.0939
-17.7307
-16.4949
-15.3725
-14.3506
-13.4179
-12.5619
-11.7731
-11.0695
-49.5443
-43.9799
-40.3118
-37.0786
-34.0652
-31.3119
-28.808
-26.5332
-24.4712
-22.6057
-20.9195
-19.3952
-18.0162
-16.7667
-15.6323
-14.6001
-13.6581
-12.7936
-11.997
-11.2891
-50.2077
-44.6127
-40.9023
-37.6225
-34.5627
-31.7661
-29.2235
-26.915
-24.824
-22.9337
-21.2264
-19.6841
-18.2897
-17.027
-15.8812
-14.8391
-13.8885
-13.0161
-12.2122
-11.501
-50.8552
-45.2289
-41.4761
-38.1495
-35.0435
-32.204
-29.6232
-27.2814
-25.1619
-23.2474
-21.5195
-19.9596
-18.5502
-17.2746
-16.1177
-15.0662
-14.1075
-13.2279
-12.4177
-11.7045
-51.4862
-45.8277
-42.0323
-38.6589
-35.5068
-32.6249
-30.0064
-27.6319
-25.4844
-23.5461
-21.7979
-20.2208
-18.7966
-17.5083
-16.3406
-15.2797
-14.3133
-13.4269
-12.6112
-11.8976
-52.1004
-46.4084
-42.5702
-39.1501
-35.9521
-33.0281
-30.3724
-27.9658
-25.7908
-23.8292
-22.0611
-20.4669
-19.0281
-17.7271
-16.5484
-15.4783
-14.5039
-13.6109
-12.79
-12.0751
-52.6989
-46.9708
-43.0892
-39.6223
-36.3787
-33.4131
-30.7208
-28.2826
-26.0807
-24.0961
-22.3083
-20.6972
-19.2436
-17.9299
-16.7403
-15.6609
-14.6791
-13.7798
-12.953
-12.2335
-53.2861
-47.5161
-43.5884
-40.0745
-36.7857
-33.7791
-31.051
-28.582
-26.3538
-24.3465
-22.5391
-20.9108
-19.4421
-18.115
-16.9138
-15.825
-14.8361
-13.9311
-13.0993
-12.3842
-53.8641
-48.0438
-44.0662
-40.5055
-37.1728
-34.1263
-31.3634
-28.8644
-26.6105
-24.5809
-22.7539
-21.1081
-19.6231
-18.2809
-17.0655
-15.9638
-14.9629
-14.047
-13.214
-12.5314
-54.4111
-48.5461
-44.5218
-40.9161
-37.5411
-34.4563
-31.6596
-29.1316
-26.8526
-24.8013
-22.955
-21.2914
-19.7895
-18.4303
-17.1973
-16.076
-15.0512
-14.1096
-13.2657
-12.5893
-59.868
-59.8366
-59.7673
-59.6748
-59.5585
-59.4157
-59.246
-59.0499
-58.828
-58.5808
-58.3088
-58.0126
-57.6929
-57.3504
-56.9858
-56.6
-56.1941
-55.7698
-55.3299
-54.8776
-53.5191
-53.5165
-53.4807
-53.4174
-53.3272
-53.2096
-53.065
-52.894
-52.6972
-52.4754
-52.2291
-51.959
-51.6656
-51.3496
-51.0116
-50.6524
-50.2725
-49.8724
-49.4527
-49.0113
-48.8746
-48.8964
-48.8888
-48.8525
-48.7886
-48.6982
-48.5817
-48.4399
-48.2732
-48.0825
-47.8681
-47.6307
-47.3708
-47.089
-46.7858
-46.4616
-46.1168
-45.7513
-45.3648
-44.9555
-44.6437
-44.6832
-44.6961
-44.6819
-44.6414
-44.5757
-44.4856
-44.3714
-44.2339
-44.0734
-43.8906
-43.686
-43.4601
-43.2133
-42.9461
-42.6586
-42.3512
-42.0237
-41.6759
-41.3069
-40.7316
-40.781
-40.8064
-40.8072
-40.7836
-40.7366
-40.6669
-40.5748
-40.4609
-40.3257
-40.1698
-39.9935
-39.7974
-39.5819
-39.3472
-39.0938
-38.8216
-38.5305
-38.2206
-37.891
-37.2181
-37.2716
-37.3035
-37.3129
-37.2999
-37.2654
-37.2098
-37.1336
-37.0373
-36.9214
-36.7864
-36.6328
-36.4609
-36.2713
-36.0642
-35.8398
-35.5983
-35.3395
-35.0634
-34.7693
-34.0941
-34.1476
-34.1813
-34.1945
-34.1871
-34.1598
-34.1131
-34.0475
-33.9635
-33.8615
-33.742
-33.6055
-33.4525
-33.2833
-33.0984
-32.8979
-32.682
-32.4507
-32.2035
-31.9402
-31.323
-31.3737
-31.406
-31.4195
-31.414
-31.3902
-31.3486
-31.2895
-31.2136
-31.1211
-31.0126
-30.8887
-30.7499
-30.5965
-30.429
-30.2477
-30.0527
-29.8441
-29.6215
-29.3843
-28.8648
-28.911
-28.9402
-28.9519
-28.9461
-28.9233
-28.884
-28.8286
-28.7576
-28.6715
-28.5707
-28.4559
-28.3275
-28.1861
-28.0322
-27.8661
-27.6882
-27.4983
-27.2963
-27.0815
-26.6798
-26.7208
-26.746
-26.7548
-26.7473
-26.724
-26.6854
-26.6318
-26.5638
-26.4817
-26.3863
-26.2779
-26.1573
-26.0251
-25.8817
-25.7278
-25.5637
-25.3895
-25.205
-25.0094
-24.7308
-24.7666
-24.7874
-24.7928
-24.7831
-24.7585
-24.7196
-24.6667
-24.6004
-24.521
-24.4292
-24.3255
-24.2107
-24.0855
-23.9504
-23.8063
-23.6537
-23.4927
-23.3233
-23.1446
-22.985
-23.0157
-23.0322
-23.0343
-23.022
-22.9959
-22.9562
-22.9034
-22.838
-22.7603
-22.6711
-22.5709
-22.4605
-22.3407
-22.2122
-22.0761
-21.933
-21.7834
-21.6273
-21.464
-21.414
-21.44
-21.4526
-21.4514
-21.4368
-21.409
-21.3684
-21.3154
-21.2505
-21.174
-21.0867
-20.9891
-20.8821
-20.7665
-20.6433
-20.5136
-20.3785
-20.2388
-20.0949
-19.9458
-19.994
-20.0159
-20.0249
-20.0208
-20.004
-19.9747
-19.9332
-19.8799
-19.8152
-19.7397
-19.6538
-19.5583
-19.4538
-19.3415
-19.2225
-19.098
-18.9696
-18.8384
-18.7057
-18.5703
-18.7052
-18.7234
-18.7292
-18.7226
-18.7038
-18.6731
-18.6309
-18.5773
-18.5129
-18.4381
-18.3534
-18.2594
-18.1571
-18.0473
-17.9314
-17.8109
-17.6879
-17.5641
-17.4418
-17.3199
-17.5311
-17.5459
-17.5489
-17.5401
-17.5196
-17.4878
-17.4448
-17.3911
-17.3269
-17.2527
-17.1689
-17.0763
-16.9755
-16.8676
-16.754
-16.6363
-16.5173
-16.3992
-16.2866
-16.1779
-16.4579
-16.4697
-16.4703
-16.4594
-16.4375
-16.4046
-16.361
-16.3071
-16.2431
-16.1694
-16.0864
-15.9948
-15.8951
-15.7883
-15.6759
-15.5597
-15.4431
-15.3287
-15.2242
-15.1273
-15.4736
-15.4831
-15.4817
-15.4694
-15.4463
-15.4128
-15.3689
-15.315
-15.2513
-15.1781
-15.0958
-15.005
-14.9061
-14.7999
-14.6879
-14.5718
-14.4554
-14.3425
-14.245
-14.1573
-14.5672
-14.5752
-14.5729
-14.5601
-14.537
-14.5038
-14.4606
-14.4078
-14.3455
-14.2739
-14.1935
-14.1045
-14.0075
-13.903
-13.792
-13.6761
-13.559
-13.4458
-13.3552
-13.2816
-13.7334
-13.7382
-13.7333
-13.7187
-13.6945
-13.6609
-13.618
-13.5661
-13.5052
-13.4357
-13.3577
-13.2714
-13.1773
-13.0756
-12.9668
-12.8521
-12.7331
-12.6151
-12.5181
-12.4689
-53.5743
-54.1499
-54.6883
-55.2117
-55.7171
-56.1986
-56.6534
-57.0802
-57.4783
-57.8468
-58.185
-58.4923
-58.7684
-59.0131
-59.2255
-59.4059
-59.5551
-59.6742
-59.7654
-59.8303
-47.0911
-47.672
-48.2249
-48.7554
-49.263
-49.7454
-50.2011
-50.6294
-51.0296
-51.4012
-51.7435
-52.0563
-52.3399
-52.5949
-52.8191
-53.0121
-53.1743
-53.3063
-53.4085
-53.4797
-42.4466
-43.0152
-43.5602
-44.0818
-44.5799
-45.0539
-45.5029
-45.9261
-46.3232
-46.6932
-47.0353
-47.3493
-47.6348
-47.8906
-48.118
-48.3172
-48.4878
-48.6296
-48.7423
-48.8243
-38.3224
-38.8657
-39.3894
-39.8915
-40.3714
-40.8288
-41.2631
-41.6737
-42.06
-42.4212
-42.7562
-43.0645
-43.3469
-43.6029
-43.8328
-44.0363
-44.2129
-44.3622
-44.4841
-44.578
-34.6443
-35.1577
-35.6539
-36.1305
-36.5865
-37.0215
-37.4349
-37.8262
-38.1945
-38.5393
-38.8613
-39.16
-39.4339
-39.6833
-39.9083
-40.1086
-40.2839
-40.4339
-40.5588
-40.6581
-31.4456
-31.9274
-32.3939
-32.8424
-33.2717
-33.6814
-34.0711
-34.4401
-34.788
-35.1144
-35.4193
-35.702
-35.9619
-36.1991
-36.414
-36.6063
-36.7753
-36.921
-37.0435
-37.1427
-28.6735
-29.1245
-29.5613
-29.9814
-30.3837
-30.7676
-31.1327
-31.4784
-31.8044
-32.1103
-32.3959
-32.6608
-32.9048
-33.1275
-33.3287
-33.5103
-33.6704
-33.8086
-33.9253
-34.0206
-26.2615
-26.6835
-27.0922
-27.4853
-27.8616
-28.2205
-28.5615
-28.8843
-29.1885
-29.4737
-29.7398
-29.9866
-30.2139
-30.4217
-30.6098
-30.7769
-30.9264
-31.0557
-31.1647
-31.2539
-24.1506
-24.5463
-24.9292
-25.2973
-25.6494
-25.9849
-26.3033
-26.6043
-26.8877
-27.1531
-27.4004
-27.6296
-27.8405
-28.0331
-28.2074
-28.3633
-28.4996
-28.6187
-28.7194
-28.8015
-22.2908
-22.6627
-23.0224
-23.3679
-23.6979
-24.0119
-24.3095
-24.5904
-24.8543
-25.1012
-25.331
-25.5436
-25.739
-25.9172
-26.078
-26.2215
-26.3474
-26.4561
-26.5481
-26.6227
-20.6405
-20.9911
-21.3301
-21.6554
-21.9655
-22.26
-22.5385
-22.8009
-23.0471
-23.277
-23.4906
-23.688
-23.869
-24.0337
-24.1821
-24.3141
-24.4297
-24.529
-24.6126
-24.68
-19.166
-19.4979
-19.8186
-20.1258
-20.418
-20.6948
-20.956
-21.2015
-21.4315
-21.6458
-21.8447
-22.028
-22.1959
-22.3484
-22.4854
-22.607
-22.7131
-22.804
-22.8793
-22.9399
-17.8403
-18.1556
-18.4605
-18.7518
-19.0278
-19.2884
-19.5338
-19.764
-19.979
-20.1792
-20.3645
-20.5352
-20.6911
-20.8325
-20.9592
-21.0713
-21.1687
-21.2516
-21.3196
-21.3743
-16.6419
-16.9428
-17.234
-17.5111
-17.7725
-18.0184
-18.2492
-18.4652
-18.6666
-18.8537
-19.0267
-19.1858
-19.3309
-19.4622
-19.5796
-19.6831
-19.7728
-19.8488
-19.9112
-19.9592
-15.5535
-15.8422
-16.1219
-16.3864
-16.6342
-16.8664
-17.0836
-17.2864
-17.4752
-17.6503
-17.812
-17.9605
-18.0958
-18.2179
-18.3269
-18.4227
-18.5054
-18.575
-18.6315
-18.6747
-14.5606
-14.8408
-15.1113
-15.3638
-15.5987
-15.818
-16.0224
-16.2127
-16.3897
-16.5536
-16.7049
-16.8437
-16.97
-17.0838
-17.1852
-17.274
-17.3504
-17.4142
-17.4656
-17.5045
-13.6455
-13.9245
-14.1899
-14.4309
-14.6532
-14.86
-15.0522
-15.2308
-15.3966
-15.5503
-15.692
-15.822
-15.9401
-16.0465
-16.141
-16.2236
-16.2942
-16.353
-16.3998
-16.4347
-12.7874
-13.0706
-13.3373
-13.569
-13.7792
-13.9744
-14.1554
-14.3234
-14.4795
-14.6242
-14.7577
-14.8801
-14.9914
-15.0915
-15.1803
-15.2577
-15.3237
-15.3783
-15.4215
-15.4534
-11.9999
-12.2737
-12.5411
-12.7679
-12.968
-13.1518
-13.3223
-13.4808
-13.6282
-13.7649
-13.8912
-14.0072
-14.1126
-14.2075
-14.2916
-14.3648
-14.4272
-14.4786
-14.519
-14.5486
-11.4092
-11.66
-11.8879
-12.1047
-12.293
-12.459
-12.613
-12.7572
-12.8913
-13.0155
-13.1303
-13.2355
-13.3311
-13.4167
-13.4924
-13.5579
-13.6134
-13.6586
-13.6935
-13.718
-6.00726
-6.49863
-7.03708
-7.61955
-8.25247
-8.94325
-9.69955
-10.5308
-11.4492
-12.4705
-13.615
-14.9096
-16.3899
-18.1019
-20.106
-22.4815
-25.3097
-28.6128
-32.6102
-38.6062
-6.27791
-6.78281
-7.33179
-7.92633
-8.57304
-9.279
-10.052
-10.9018
-11.8408
-12.8849
-14.055
-15.3782
-16.8906
-18.6386
-20.6829
-23.1025
-25.9778
-29.3277
-33.3637
-39.3807
-6.54999
-7.06844
-7.62805
-8.23489
-8.89564
-9.61705
-10.407
-11.2756
-12.2354
-13.3028
-14.4987
-15.851
-17.3958
-19.1802
-21.2648
-23.7286
-26.6505
-30.0461
-34.1188
-40.1524
-6.82301
-7.35493
-7.92527
-8.54464
-9.21963
-9.95669
-10.7639
-11.6514
-12.6323
-13.7231
-14.9452
-16.3267
-17.9042
-19.7251
-21.8502
-24.3581
-27.3264
-30.7676
-34.8781
-40.9329
-7.09652
-7.64185
-8.22299
-8.85507
-9.54453
-10.2974
-11.122
-12.0287
-13.0309
-14.1452
-15.3937
-16.8045
-18.4149
-20.2724
-22.4381
-24.9901
-28.0047
-31.4914
-35.6404
-41.7196
-7.37016
-7.92876
-8.52077
-9.16578
-9.86988
-10.6388
-11.4808
-12.4069
-13.4305
-14.5686
-15.8435
-17.2839
-18.9273
-20.8215
-23.0278
-25.6239
-28.6846
-32.2167
-36.4039
-42.5085
-7.64361
-8.21533
-8.81824
-9.47637
-10.1953
-10.9803
-11.84
-12.7856
-13.8306
-14.9927
-16.2941
-17.7641
-19.4406
-21.3716
-23.6185
-26.2586
-29.3653
-32.9422
-37.167
-43.2971
-7.91662
-8.50124
-9.11509
-9.78649
-10.5204
-11.3216
-12.1991
-13.1642
-14.2308
-15.4168
-16.7448
-18.2446
-19.9541
-21.9219
-24.2094
-26.8933
-30.0456
-33.667
-37.9285
-44.0841
-8.18903
-8.7863
-9.41105
-10.0959
-10.8448
-11.6623
-12.5576
-13.5422
-14.6305
-15.8404
-17.1951
-18.7244
-20.467
-22.4716
-24.7995
-27.5269
-30.7245
-34.3898
-38.6871
-44.8679
-8.46081
-9.07042
-9.706
-10.4043
-11.1683
-12.0022
-12.9152
-13.9193
-15.0291
-16.2629
-17.6441
-19.2031
-20.9787
-23.0199
-25.3879
-28.1585
-31.4009
-35.1095
-39.4416
-45.647
-8.73207
-9.3536
-9.99985
-10.7117
-11.4908
-12.3408
-13.2715
-14.295
-15.4263
-16.6838
-18.0914
-19.6798
-21.4882
-23.5657
-25.9737
-28.7871
-32.0736
-35.8248
-40.1907
-46.42
-9.00309
-9.63603
-10.2927
-11.0179
-11.8119
-12.6781
-13.6262
-14.6689
-15.8214
-17.1024
-18.5363
-20.1539
-21.9948
-24.1084
-26.5558
-29.4116
-32.7416
-36.5345
-40.933
-47.1855
-9.27436
-9.91799
-10.5846
-11.323
-12.1317
-13.0135
-13.9788
-15.0405
-16.2139
-17.5182
-18.978
-20.6245
-22.4976
-24.6469
-27.1334
-30.0308
-33.4036
-37.2373
-41.6671
-47.942
-9.54662
-10.1999
-10.8757
-11.6269
-12.4498
-13.347
-14.329
-15.4092
-16.6032
-17.9304
-19.4157
-21.0908
-22.9956
-25.1802
-27.7052
-30.6436
-34.0585
-37.9321
-42.3919
-48.6883
-9.8206
-10.4821
-11.1661
-11.9293
-12.7659
-13.6778
-14.6762
-15.7745
-16.9886
-18.3383
-19.8487
-21.5518
-23.4881
-25.7073
-28.2702
-31.2489
-34.7049
-38.6175
-43.106
-49.4233
-10.0973
-10.7648
-11.4555
-12.2297
-13.0793
-14.0054
-15.0195
-16.1354
-17.3692
-18.7409
-20.276
-22.0068
-23.9738
-26.2272
-28.8272
-31.8454
-35.3415
-39.2923
-43.8084
-50.1459
-10.3765
-11.0469
-11.7424
-12.5269
-13.3888
-14.3287
-15.3581
-16.4911
-17.7441
-19.1374
-20.6967
-22.4545
-24.4517
-26.7385
-29.375
-32.4318
-35.9671
-39.9552
-44.498
-50.8555
-10.6574
-11.326
-12.0243
-12.8188
-13.6932
-14.6465
-15.6908
-16.8406
-18.1124
-19.5267
-21.1096
-22.8939
-24.9208
-27.2403
-29.9123
-33.0066
-36.5799
-40.6044
-45.1736
-51.5521
-10.9329
-11.5935
-12.2951
-13.1022
-13.9901
-14.957
-16.0162
-17.1825
-18.4727
-19.9077
-21.5137
-23.3239
-25.3796
-27.731
-30.4376
-33.5683
-37.1784
-41.2381
-45.8341
-52.2372
-11.1843
-11.8297
-12.5503
-13.3781
-14.2803
-15.2602
-16.3338
-17.5162
-18.8244
-20.2795
-21.908
-23.7434
-25.8272
-28.2095
-30.9496
-34.1151
-37.7602
-41.8532
-46.4747
-52.9124
-1.5853
-1.83924
-2.18712
-2.57604
-2.99459
-3.44813
-3.94297
-4.48503
-5.08181
-5.74356
-6.48425
-7.32287
-8.28559
-9.40844
-10.7423
-12.3616
-14.3558
-16.7863
-19.9615
-25.3562
-1.73848
-2.00886
-2.37521
-2.77008
-3.19206
-3.65094
-4.15269
-4.70284
-5.30903
-5.98178
-6.73531
-7.58897
-8.56932
-9.71295
-11.0713
-12.7192
-14.7464
-17.2124
-20.4198
-25.8284
-1.88602
-2.18048
-2.55999
-2.963
-3.39273
-3.86
-4.3707
-4.93053
-5.54751
-6.2325
-7.00004
-7.86988
-8.86905
-10.0346
-11.4187
-13.0963
-15.1571
-17.6586
-20.8975
-26.3147
-2.05585
-2.36114
-2.74886
-3.1606
-3.59953
-4.07635
-4.59708
-5.16772
-5.79661
-6.49493
-7.27755
-8.16463
-9.18366
-10.3723
-11.783
-13.4914
-15.5868
-18.1249
-21.3987
-26.8336
-2.237
-2.54939
-2.94494
-3.36566
-3.81408
-4.30089
-4.8323
-5.41456
-6.05625
-6.76881
-7.56747
-8.47276
-9.51267
-10.7253
-12.1638
-13.9041
-16.0352
-18.6117
-21.9229
-27.3819
-2.42362
-2.74463
-3.14854
-3.57838
-4.03659
-4.53385
-5.07654
-5.67111
-6.32635
-7.05398
-7.86956
-8.79401
-9.85577
-11.0935
-12.5609
-14.3342
-16.5024
-19.1183
-22.4683
-27.9543
-2.61726
-2.94778
-3.35994
-3.79893
-4.26721
-4.77535
-5.32985
-5.93733
-6.60681
-7.35027
-8.18358
-9.12807
-10.2127
-11.4766
-12.9739
-14.7814
-16.9877
-19.6442
-23.0337
-28.5486
-2.81929
-3.1593
-3.57951
-4.02764
-4.50618
-5.02552
-5.59226
-6.21317
-6.89749
-7.65746
-8.50927
-9.47463
-10.5829
-11.8739
-13.4023
-15.2451
-17.4907
-20.1887
-23.6186
-29.1635
-3.0295
-3.37906
-3.80728
-4.26459
-4.75356
-5.28439
-5.86372
-6.49853
-7.19823
-7.97533
-8.84634
-9.83335
-10.9662
-12.2853
-13.8456
-15.7247
-18.0106
-20.7513
-24.2223
-29.798
-3.24728
-3.6067
-4.04303
-4.50964
-5.00922
-5.55179
-6.14407
-6.7932
-7.5088
-8.30361
-9.19447
-10.2039
-11.3621
-12.7101
-14.3034
-16.2198
-18.547
-21.3312
-24.8439
-30.4511
-3.4722
-3.84188
-4.28647
-4.76249
-5.27289
-5.82749
-6.43306
-7.09691
-7.82888
-8.64196
-9.55329
-10.5858
-11.7702
-13.1479
-14.7751
-16.7297
-19.0991
-21.9276
-25.4826
-31.1217
-3.70388
-4.08421
-4.53721
-5.02281
-5.54426
-6.11115
-6.73034
-7.40932
-8.15811
-8.98998
-9.92238
-10.9786
-12.1899
-13.5982
-15.26
-17.2537
-19.6663
-22.5398
-26.1375
-31.8087
-3.94186
-4.3332
-4.7948
-5.29018
-5.82291
-6.40239
-7.03553
-7.73001
-8.49608
-9.34724
-10.3013
-11.3819
-12.6208
-14.0603
-15.7577
-17.7913
-20.2477
-23.167
-26.8077
-32.5112
-4.1856
-4.58834
-5.05875
-5.56411
-6.10839
-6.70074
-7.34817
-8.05853
-8.84229
-9.71323
-10.6895
-11.795
-13.0622
-14.5338
-16.2674
-18.3417
-20.8427
-23.8084
-27.4924
-33.2283
-4.43456
-4.84906
-5.32851
-5.8441
-6.40019
-7.00571
-7.66775
-8.39436
-9.19625
-10.0874
-11.0864
-12.2175
-13.5135
-15.0178
-16.7884
-18.9041
-21.4504
-24.463
-28.1907
-33.9591
-4.68819
-5.1148
-5.60352
-6.12959
-6.69777
-7.31677
-7.99374
-8.73697
-9.55737
-10.4693
-11.4914
-12.6486
-13.9741
-15.5118
-17.32
-19.4778
-22.07
-25.1301
-28.9019
-34.7028
-4.94594
-5.38498
-5.8832
-6.42001
-7.00057
-7.63335
-8.32558
-9.08578
-9.92509
-10.8581
-11.9039
-13.0877
-14.4433
-16.0149
-17.8613
-20.0618
-22.7005
-25.8087
-29.625
-35.4587
-5.20725
-5.65902
-6.16697
-6.7148
-7.30803
-7.95488
-8.66269
-9.44019
-10.2988
-11.2533
-12.3232
-13.5342
-14.9203
-16.5263
-18.4116
-20.6554
-23.341
-26.4977
-30.3592
-36.2268
-5.47158
-5.93634
-6.45425
-7.01336
-7.61955
-8.28077
-9.00446
-9.79959
-10.6778
-11.6542
-12.7487
-13.9872
-15.4043
-17.0453
-18.9699
-21.2573
-23.9904
-27.1959
-31.1034
-37.0073
-5.73842
-6.2164
-6.74449
-7.31515
-7.93458
-8.61045
-9.35032
-10.1634
-11.0616
-12.0603
-13.1796
-14.446
-15.8946
-17.571
-19.5353
-21.8667
-24.6474
-27.9016
-31.8549
-37.8012
-1.3375
-1.13078
-0.97699
-0.84025
-0.720173
-0.614216
-0.521265
-0.440527
-0.371501
-0.313827
-0.267241
-0.231529
-0.206523
-0.192086
-0.18808
-0.194292
-0.210507
-0.236852
-0.273516
-0.32027
-1.66731
-1.48387
-1.3261
-1.18413
-1.05922
-0.948797
-0.851878
-0.767666
-0.695647
-0.635444
-0.586776
-0.549419
-0.523192
-0.507943
-0.503528
-0.509774
-0.526523
-0.55379
-0.591671
-0.639827
-1.99978
-1.82422
-1.66647
-1.52335
-1.39632
-1.28371
-1.18483
-1.099
-1.02574
-0.964705
-0.915605
-0.878221
-0.852369
-0.837892
-0.834641
-0.842465
-0.861242
-0.890923
-0.931362
-0.982821
-2.38345
-2.20622
-2.04543
-1.89935
-1.76874
-1.65262
-1.55053
-1.46191
-1.38635
-1.32351
-1.27312
-1.23495
-1.20882
-1.19455
-1.192
-1.20101
-1.22148
-1.25331
-1.29639
-1.35077
-2.8021
-2.62241
-2.45765
-2.30763
-2.17279
-2.05262
-1.94678
-1.85487
-1.77652
-1.71143
-1.65934
-1.62003
-1.59332
-1.57901
-1.57696
-1.58702
-1.60906
-1.64299
-1.68866
-1.74607
-3.25328
-3.07036
-2.90142
-2.74707
-2.60777
-2.48333
-2.37355
-2.27814
-2.19681
-2.12929
-2.07535
-2.03477
-2.00737
-1.99297
-1.9914
-2.00252
-2.02619
-2.06229
-2.11068
-2.17132
-3.74316
-3.55551
-3.38165
-3.22237
-3.07817
-2.94907
-2.835
-2.73576
-2.65113
-2.5809
-2.52485
-2.48279
-2.45452
-2.43989
-2.43871
-2.45085
-2.47615
-2.51448
-2.5657
-2.62976
-4.27853
-4.08466
-3.9048
-3.73971
-3.58991
-3.45554
-3.33662
-3.23304
-3.14466
-3.07128
-3.01274
-2.96885
-2.93943
-2.92432
-2.92334
-2.93635
-2.96321
-3.00374
-3.05781
-3.12537
-4.86708
-4.66554
-4.47845
-4.30649
-4.15017
-4.00971
-3.88521
-3.77662
-3.68385
-3.60677
-3.54521
-3.49903
-3.46804
-3.45209
-3.45102
-3.46467
-3.49289
-3.53551
-3.59238
-3.66348
-5.51895
-5.30818
-5.11243
-4.93232
-4.76834
-4.62076
-4.48973
-4.37526
-4.2773
-4.19575
-4.13049
-4.08138
-4.04826
-4.03097
-4.02936
-4.04328
-4.07257
-4.11704
-4.17654
-4.25108
-6.24789
-6.02608
-5.82
-5.63018
-5.45712
-5.30111
-5.16233
-5.04084
-4.93663
-4.84963
-4.77976
-4.72688
-4.69085
-4.67152
-4.66876
-4.68239
-4.71226
-4.75817
-4.81997
-4.8977
-7.0726
-6.83764
-6.61921
-6.41779
-6.23388
-6.06778
-5.91969
-5.78972
-5.67789
-5.58416
-5.50845
-5.45067
-5.41069
-5.38836
-5.38354
-5.39608
-5.4258
-5.47251
-5.53604
-5.61647
-8.01884
-7.76818
-7.53496
-7.31961
-7.12263
-6.94434
-6.78497
-6.64464
-6.5234
-6.42125
-6.33812
-6.27394
-6.22858
-6.20192
-6.19381
-6.2041
-6.23262
-6.27915
-6.34352
-6.42587
-9.12213
-8.8527
-8.6017
-8.36955
-8.15674
-7.96363
-7.79046
-7.63737
-7.50444
-7.39167
-7.29904
-7.22647
-7.17385
-7.14107
-7.12798
-7.13444
-7.16026
-7.20521
-7.2691
-7.35213
-10.4328
-10.1409
-9.86845
-9.61596
-9.38394
-9.17274
-8.98262
-8.81375
-8.66622
-8.54005
-8.43522
-8.35168
-8.28932
-8.24804
-8.2277
-8.22816
-8.24922
-8.29061
-8.35213
-8.43404
-12.0244
-11.7056
-11.4075
-11.1305
-10.8751
-10.6419
-10.4311
-10.2427
-10.077
-9.93398
-9.8136
-9.71582
-9.64056
-9.58772
-9.55717
-9.54876
-9.56229
-9.59747
-9.65407
-9.73236
-13.9863
-13.6358
-13.3073
-13.0012
-12.7182
-12.4587
-12.2229
-12.0111
-11.8233
-11.6595
-11.5198
-11.4042
-11.3124
-11.2446
-11.2005
-11.1799
-11.1828
-11.2089
-11.2577
-11.3295
-16.38
-15.994
-15.6309
-15.2917
-14.9772
-14.6878
-14.4236
-14.1848
-13.9715
-13.7837
-13.6215
-13.4847
-13.3734
-13.2875
-13.2269
-13.1914
-13.181
-13.1954
-13.2344
-13.297
-19.5165
-19.0906
-18.6886
-18.3129
-17.9639
-17.6417
-17.3462
-17.0774
-16.8353
-16.62
-16.4313
-16.2693
-16.134
-16.0254
-15.9432
-15.8874
-15.8579
-15.8551
-15.8786
-15.9265
-24.8531
-24.3823
-23.9458
-23.5407
-23.1648
-22.8171
-22.4973
-22.2052
-21.9408
-21.704
-21.495
-21.3137
-21.1602
-21.0347
-20.9372
-20.8677
-20.8271
-20.8175
-20.8404
-20.8855
-0.37703
-0.443473
-0.519561
-0.605212
-0.700341
-0.804844
-0.918589
-1.04141
-1.17311
-1.31339
-1.4619
-1.6181
-1.7812
-1.94997
-2.12277
-2.2973
-2.4691
-2.62837
-2.75972
-2.88957
-0.698464
-0.767186
-0.845916
-0.934541
-1.03296
-1.14104
-1.25863
-1.38555
-1.52156
-1.66635
-1.81951
-1.9805
-2.14852
-2.32243
-2.5006
-2.68139
-2.86302
-3.03776
-3.19042
-3.36276
-1.04496
-1.11754
-1.20049
-1.29368
-1.397
-1.5103
-1.63341
-1.76613
-1.90818
-2.05925
-2.2189
-2.38657
-2.56153
-2.74272
-2.92881
-3.1186
-3.31112
-3.50199
-3.6855
-3.89158
-1.41633
-1.49276
-1.57998
-1.67785
-1.78623
-1.90495
-2.03382
-2.17262
-2.32106
-2.4788
-2.6454
-2.82031
-3.00282
-3.19201
-3.38683
-3.58639
-3.7899
-3.99504
-4.20231
-4.4321
-1.81517
-1.89561
-1.9873
-2.09009
-2.20381
-2.32829
-2.46331
-2.60864
-2.76398
-2.92896
-3.10316
-3.28603
-3.47694
-3.67509
-3.87967
-4.09007
-4.30568
-4.52546
-4.75204
-4.9986
-2.24425
-2.32898
-2.42548
-2.53356
-2.65307
-2.78379
-2.92551
-3.07798
-3.24088
-3.41386
-3.59648
-3.78826
-3.9886
-4.19685
-4.4124
-4.63482
-4.86373
-5.0989
-5.3431
-5.60417
-2.70673
-2.79598
-2.8976
-3.01136
-3.13708
-3.27455
-3.42354
-3.58378
-3.75497
-3.93674
-4.1287
-4.33037
-4.54123
-4.76076
-4.98847
-5.22406
-5.46734
-5.71851
-5.97979
-6.25561
-3.20638
-3.30053
-3.40758
-3.52736
-3.65972
-3.80442
-3.96124
-4.1299
-4.3101
-4.50149
-4.70368
-4.91626
-5.13875
-5.37071
-5.61178
-5.86171
-6.12041
-6.38823
-6.66673
-6.95837
-3.74879
-3.84784
-3.96052
-4.08662
-4.22598
-4.37837
-4.54355
-4.72125
-4.91118
-5.11299
-5.32633
-5.55081
-5.78601
-6.03155
-6.28713
-6.55256
-6.82777
-7.11306
-7.40944
-7.71826
-4.34067
-4.44467
-4.56318
-4.69578
-4.84242
-5.00288
-5.17689
-5.36419
-5.5645
-5.77749
-6.00282
-6.24013
-6.48906
-6.74927
-7.02049
-7.30253
-7.59535
-7.89909
-8.21433
-8.54185
-4.99138
-5.10028
-5.22441
-5.36373
-5.51783
-5.68659
-5.86978
-6.06712
-6.27835
-6.50314
-6.74119
-6.99218
-7.25575
-7.53161
-7.8195
-8.11922
-8.4307
-8.75394
-9.08919
-9.43694
-5.71387
-5.82736
-5.95702
-6.10269
-6.26426
-6.44137
-6.63387
-6.84151
-7.064
-7.30105
-7.55238
-7.81768
-8.09664
-8.38897
-8.6944
-9.01275
-9.34386
-9.68761
-10.044
-10.4135
-6.52627
-6.64371
-6.77838
-6.93
-7.0985
-7.28396
-7.48569
-7.70349
-7.93726
-8.18673
-8.45161
-8.73161
-9.02642
-9.33576
-9.65938
-9.99706
-10.3486
-10.7137
-11.0923
-11.4847
-7.45441
-7.57472
-7.71343
-7.87025
-8.04495
-8.23753
-8.44878
-8.67594
-8.92063
-9.18223
-9.46048
-9.75513
-10.0659
-10.3924
-10.7345
-11.0919
-11.4643
-11.8514
-12.2529
-12.6691
-8.53649
-8.65799
-8.79911
-8.95965
-9.13942
-9.33796
-9.5548
-9.79218
-10.0475
-10.3202
-10.6111
-10.9198
-11.2462
-11.5897
-11.9502
-12.3271
-12.7204
-13.1295
-13.5541
-13.9945
-9.83245
-9.95259
-10.0937
-10.2556
-10.4383
-10.6413
-10.8642
-11.107
-11.37
-11.6535
-11.9562
-12.2784
-12.6195
-12.9788
-13.3563
-13.7517
-14.165
-14.5955
-15.0427
-15.5067
-11.4238
-11.5394
-11.6777
-11.8384
-12.0212
-12.2259
-12.4523
-12.7001
-12.9693
-13.2599
-13.5727
-13.9066
-14.2596
-14.6311
-15.0223
-15.4338
-15.8651
-16.3153
-16.7834
-17.2694
-13.3815
-13.4895
-13.6218
-13.7779
-13.9566
-14.1583
-14.3832
-14.6312
-14.9019
-15.1949
-15.5095
-15.8459
-16.2058
-16.5898
-16.9962
-17.4236
-17.8715
-18.3397
-18.8272
-19.3331
-15.9967
-16.0886
-16.2046
-16.3461
-16.5144
-16.7088
-16.9284
-17.1729
-17.442
-17.7352
-18.0519
-18.3918
-18.7553
-19.1428
-19.5541
-19.9888
-20.4465
-20.928
-21.4332
-21.9571
-20.9272
-20.9996
-21.1029
-21.2348
-21.3941
-21.5803
-21.7927
-22.031
-22.2949
-22.5839
-22.898
-23.2371
-23.6013
-23.9908
-24.4059
-24.8464
-25.3135
-25.8111
-26.3416
-26.8874
-27.4043
-22.4918
-19.8567
-17.7735
-15.9877
-14.4506
-13.0999
-11.8907
-10.7958
-9.79709
-8.88157
-8.0395
-7.26329
-6.5467
-5.88455
-5.27231
-4.70473
-4.17623
-3.69529
-3.29088
-27.949
-23.0426
-20.396
-18.2925
-16.4829
-14.9202
-13.5435
-12.3087
-11.1895
-10.1681
-9.23182
-8.37105
-7.57834
-6.84762
-6.17386
-5.55264
-4.97922
-4.45122
-3.98177
-3.57929
-28.5223
-23.6123
-20.9525
-18.8276
-16.9929
-15.4033
-13.9995
-12.7383
-11.594
-10.5493
-9.59166
-8.71169
-7.90199
-7.15651
-6.47019
-5.83852
-5.25688
-4.72297
-4.24639
-3.8244
-29.12
-24.2016
-21.5263
-19.3786
-17.5171
-15.8994
-14.4673
-13.1788
-12.0085
-10.9397
-9.96001
-9.0601
-8.23256
-7.47121
-6.77079
-6.12652
-5.53353
-4.98886
-4.49927
-4.05854
-29.739
-24.8098
-22.1166
-19.9447
-18.055
-16.4077
-14.9462
-13.6293
-12.4322
-11.3385
-10.336
-9.41542
-8.56923
-7.7911
-7.07553
-6.41741
-5.81158
-5.25452
-4.75114
-4.29426
-30.3778
-25.4375
-22.7216
-20.525
-18.6057
-16.9275
-15.4355
-14.0892
-12.8644
-11.745
-10.7189
-9.77696
-8.91143
-8.11582
-7.38435
-6.71167
-6.09237
-5.52258
-5.00591
-4.53494
-31.0351
-26.083
-23.341
-21.1185
-19.1684
-17.4579
-15.9343
-14.5576
-13.3042
-12.1584
-11.1082
-10.1442
-9.25885
-8.44527
-7.69751
-7.00997
-6.37709
-5.79476
-5.26552
-4.78186
-31.7098
-26.7444
-23.9745
-21.7244
-19.7421
-17.9983
-16.4419
-15.0338
-13.7511
-12.5781
-11.5032
-10.5168
-9.61117
-8.77932
-8.01506
-7.31258
-6.66619
-6.07161
-5.53036
-5.03493
-32.4005
-27.4203
-24.6212
-22.3419
-20.3261
-18.5477
-16.9574
-15.5172
-14.2043
-13.0036
-11.9034
-10.8942
-9.96805
-9.11775
-8.3369
-7.61949
-6.95973
-6.35312
-5.80027
-5.29365
-33.1059
-28.1094
-25.2803
-22.97
-20.9194
-19.1053
-17.4801
-16.0068
-14.6631
-13.4342
-12.3083
-11.276
-10.3291
-9.4602
-8.66273
-7.93045
-7.25741
-6.63894
-6.07474
-5.55731
-33.8248
-28.8107
-25.9506
-23.6077
-21.521
-19.67
-18.0091
-16.5019
-15.1268
-13.8691
-12.7172
-11.6616
-10.6937
-9.80623
-8.99213
-8.24501
-7.55877
-6.92853
-6.35312
-5.8251
-34.556
-29.523
-26.6309
-24.2541
-22.13
-20.2411
-18.5434
-17.0016
-15.5946
-14.3077
-13.1296
-12.0503
-11.0615
-10.1553
-9.32457
-8.56264
-7.86325
-7.22127
-6.63471
-6.09624
-35.2985
-30.2453
-27.3201
-24.9079
-22.7452
-20.8174
-19.0822
-17.5052
-16.0656
-14.7493
-13.5446
-12.4416
-11.4317
-10.5068
-9.65945
-8.88273
-8.1702
-7.51648
-6.91879
-6.36996
-36.0512
-30.9763
-28.017
-25.5681
-23.3657
-21.3979
-19.6245
-18.0116
-16.5391
-15.193
-13.9615
-12.8348
-11.8038
-10.8601
-9.99613
-9.20464
-8.47898
-7.81348
-7.20465
-6.64552
-36.8128
-31.7148
-28.7203
-26.2334
-23.9902
-21.9816
-20.1692
-18.5199
-17.0142
-15.638
-14.3797
-13.2291
-12.1769
-11.2145
-10.334
-9.52771
-8.78891
-8.11161
-7.4916
-6.92226
-37.5823
-32.4594
-29.4289
-26.9028
-24.6177
-22.5675
-20.7154
-19.0293
-17.4899
-16.0835
-14.7982
-13.6237
-12.5504
-11.5694
-10.6723
-9.85128
-9.09935
-8.41021
-7.779
-7.1995
-38.3592
-33.2091
-30.1412
-27.5748
-25.2468
-23.1542
-21.2619
-19.5386
-17.9654
-16.5286
-15.2164
-14.018
-12.9236
-11.924
-11.0103
-10.1747
-9.40965
-8.70866
-8.06622
-7.47666
-39.1448
-33.9634
-30.8559
-28.2478
-25.8761
-23.7405
-21.8075
-20.0467
-18.4396
-16.9725
-15.6333
-14.4111
-13.2958
-12.2776
-11.3475
-10.4973
-9.71916
-9.00631
-8.35265
-7.75317
-39.9394
-34.721
-31.571
-28.9203
-26.5043
-24.3252
-22.3513
-20.5529
-18.9117
-17.4142
-16.0481
-14.8023
-13.6661
-12.6295
-11.6832
-10.8184
-10.0273
-9.30258
-8.63773
-8.02851
-40.7302
-35.4769
-32.2848
-29.5911
-27.1307
-24.9079
-22.8927
-21.0565
-19.3812
-17.8534
-16.4606
-15.1912
-14.0342
-12.9793
-12.0168
-11.1376
-10.3335
-9.59702
-8.92101
-8.30224
-6.78094
-4.67485
-3.31456
-2.26896
-1.53436
-0.994823
-0.607272
-0.332123
-0.141058
-0.0123351
0.070673
0.120597
0.147024
0.157109
0.156166
0.148069
0.13563
0.12085
0.105139
0.0894643
0.0744703
0.0605681
0.0479942
0.0368682
0.0272112
0.0190032
0.0121503
0.00658769
0.00214596
-0.00120421
-0.00372554
-0.00531071
-0.00640716
-0.006605
-0.00673839
-0.00581284
-0.0054048
-0.00348916
-0.00294546
3.74139e-05
-7.03664
-4.85725
-3.46082
-2.38413
-1.62542
-1.06846
-0.667343
-0.381748
-0.18244
-0.0470932
0.0413365
0.0957617
0.125969
0.139256
0.141044
0.13528
0.124841
0.111775
0.0975313
0.0831108
0.0691871
0.0561954
0.0443932
0.033919
0.0248098