/*--------------------------------*- C++ -*----------------------------------*\
  =========                 |
  \\      /  F ield         | OpenFOAM: The Open Source CFD Toolbox
   \\    /   O peration     | Website:  https://openfoam.org
    \\  /    A nd           | Version:  6.0
     \\/     M anipulation  |
\*---------------------------------------------------------------------------*/
FoamFile
{
    version     2.0;
    format      ascii;
    class       volScalarField;
    location    "15";
    object      p;
}
// * * * * * * * * * * * * * * * * * * * * * * * * * * * * * * * * * * * * * //

dimensions      [0 2 -2 0 0 0 0];

internalField   nonuniform List<scalar> 
19200
(
-92.4381
-84.285
-78.2121
-73.0881
-68.3023
-63.8666
-59.7649
-55.9597
-52.4252
-49.1419
-46.0927
-43.2613
-40.6325
-38.192
-35.9257
-33.8206
-31.8643
-30.0449
-28.3516
-26.7744
-25.3038
-23.9313
-22.6491
-21.4499
-20.3273
-19.2754
-18.2889
-17.3629
-16.493
-15.6785
-93.0074
-84.8633
-78.7799
-73.6347
-68.8242
-64.3629
-60.2358
-56.4062
-52.8489
-49.5446
-46.4761
-43.6272
-40.9827
-38.5279
-36.2487
-34.1319
-32.1649
-30.3357
-28.6335
-27.048
-25.5698
-24.1902
-22.9012
-21.6957
-20.5671
-19.5095
-18.5175
-17.5862
-16.7109
-15.8924
-93.5859
-85.4384
-79.3424
-74.1764
-69.3415
-64.8548
-60.7024
-56.8487
-53.2687
-49.9435
-46.856
-43.9898
-41.3297
-38.8608
-36.5689
-34.4405
-32.4629
-30.6241
-28.913
-27.3193
-25.8335
-24.4468
-23.1512
-21.9394
-20.8048
-19.7415
-18.7442
-17.8075
-16.9268
-16.1044
-94.1688
-86.0125
-79.9011
-74.7138
-69.8544
-65.3421
-61.1646
-57.2868
-53.6843
-50.3385
-47.232
-44.3488
-41.6733
-39.1904
-36.8859
-34.746
-32.758
-30.9097
-29.1899
-27.5881
-26.0947
-24.701
-23.3988
-22.1808
-21.0403
-19.9714
-18.9687
-18.0267
-17.1405
-16.3144
-94.7522
-86.5849
-80.4562
-75.2468
-70.3627
-65.8249
-61.6222
-57.7205
-54.0956
-50.7292
-47.6041
-44.704
-42.0131
-39.5165
-37.1995
-35.0484
-33.0501
-31.1924
-29.464
-27.8542
-26.3534
-24.9527
-23.644
-22.4198
-21.2735
-20.199
-19.1909
-18.2436
-17.352
-16.5224
-95.334
-87.1547
-81.0075
-75.7755
-70.8663
-66.3028
-62.075
-58.1494
-54.5023
-51.1155
-47.9719
-45.055
-42.3491
-39.8389
-37.5096
-35.3474
-33.339
-31.472
-29.735
-28.1173
-26.6092
-25.2016
-23.8865
-22.6562
-21.5041
-20.4241
-19.4107
-18.4581
-17.5613
-16.7283
-95.9128
-87.7211
-81.5547
-76.2994
-71.365
-66.7757
-62.5227
-58.5733
-54.9042
-51.4972
-48.3352
-45.4018
-42.681
-40.1574
-37.816
-35.6428
-33.6244
-31.7483
-30.0029
-28.3774
-26.862
-25.4477
-24.1262
-22.89
-21.7322
-20.6467
-19.6281
-18.6702
-17.7681
-16.9319
-96.4878
-88.2832
-82.0973
-76.8184
-71.8584
-67.2432
-62.9652
-58.992
-55.3009
-51.8738
-48.6937
-45.744
-43.0085
-40.4717
-38.1184
-35.9344
-33.9061
-32.021
-30.2673
-28.6342
-27.1118
-25.6908
-24.363
-23.1209
-21.9575
-20.8667
-19.8429
-18.8797
-17.9725
-17.1332
-97.058
-88.8405
-82.6346
-77.3319
-72.3462
-67.7051
-63.402
-59.4052
-55.6923
-52.2453
-49.0473
-46.0814
-43.3315
-40.7816
-38.4165
-36.2219
-34.184
-32.2901
-30.5283
-28.8876
-27.3582
-25.9307
-24.5968
-23.3488
-22.1799
-21.0838
-20.0549
-19.0867
-18.1743
-17.3322
-97.623
-89.3924
-83.1664
-77.8396
-72.8282
-68.1611
-63.8329
-59.8126
-56.078
-52.6114
-49.3956
-46.4138
-43.6496
-41.0868
-38.7103
-36.5052
-34.4578
-32.5552
-30.7854
-29.1374
-27.6011
-26.1672
-24.8273
-23.5737
-22.3993
-21.2981
-20.2643
-19.291
-18.3735
-17.5288
-98.1822
-89.9384
-83.6922
-78.3412
-73.3038
-68.6108
-64.2576
-60.2139
-56.4579
-52.9718
-49.7384
-46.7409
-43.9626
-41.3873
-38.9994
-36.7841
-34.7274
-32.8162
-31.0386
-29.3834
-27.8404
-26.4003
-25.0545
-23.7953
-22.6157
-21.5094
-20.4707
-19.4924
-18.5701
-17.7229
-98.735
-90.4781
-84.2115
-78.8362
-73.7729
-69.054
-64.6759
-60.6089
-56.8315
-53.3261
-50.0755
-47.0625
-44.2703
-41.6826
-39.2836
-37.0582
-34.9924
-33.073
-31.2877
-29.6255
-28.0759
-26.6296
-25.2781
-24.0136
-22.8288
-21.7177
-20.6742
-19.6911
-18.764
-17.9146
-99.2812
-91.011
-84.7239
-79.3242
-74.235
-69.4902
-65.0873
-60.9972
-57.1987
-53.6743
-50.4065
-47.3782
-44.5725
-41.9726
-39.5626
-37.3274
-35.2527
-33.3251
-31.5324
-29.8633
-28.3073
-26.8551
-25.4981
-24.2283
-23.0385
-21.9227
-20.8746
-19.8868
-18.955
-18.1038
-99.8202
-91.5367
-85.2292
-79.8051
-74.6899
-69.9193
-65.4917
-61.3786
-57.5592
-54.0159
-50.7312
-47.6879
-44.8688
-42.2569
-39.8363
-37.5914
-35.508
-33.5725
-31.7725
-30.0967
-28.5345
-27.0766
-25.7141
-24.4392
-23.2447
-22.1243
-21.0719
-20.0795
-19.1433
-18.2904
-100.352
-92.055
-85.7268
-80.2783
-75.1372
-70.3408
-65.8886
-61.7528
-57.9126
-54.3507
-51.0494
-47.9913
-45.159
-42.5354
-40.1043
-37.85
-35.758
-33.8148
-32.0077
-30.3254
-28.7572
-27.2937
-25.9261
-24.6463
-23.4472
-22.3225
-21.2658
-20.2691
-19.3286
-18.4743
-100.876
-92.5655
-86.2167
-80.7436
-75.5766
-70.7545
-66.2779
-62.1195
-58.2588
-54.6784
-51.3608
-48.2881
-45.4428
-42.8078
-40.3663
-38.1029
-36.0026
-34.0518
-32.2378
-30.5492
-28.9752
-27.5063
-26.1337
-24.8493
-23.6458
-22.5169
-21.4563
-20.4555
-19.511
-18.6556
-101.391
-93.0679
-86.6984
-81.2008
-76.0079
-71.1602
-66.6593
-62.4784
-58.5974
-54.9988
-51.665
-48.578
-45.72
-43.0737
-40.6222
-38.3497
-36.2413
-34.2831
-32.4625
-30.7677
-29.1881
-27.7141
-26.3367
-25.0478
-23.8402
-22.7075
-21.6431
-20.6385
-19.6902
-18.8341
-101.899
-93.562
-87.1718
-81.6496
-76.4308
-71.5575
-67.0324
-62.8293
-58.9282
-55.3116
-51.9618
-48.8607
-45.9903
-43.3329
-40.8715
-38.5902
-36.4739
-34.5085
-32.6814
-30.9807
-29.3957
-27.9167
-26.5347
-25.2417
-24.0302
-22.8938
-21.826
-20.8178
-19.866
-19.0097
-102.398
-94.0477
-87.6365
-82.0896
-76.845
-71.9462
-67.3971
-63.1719
-59.2509
-55.6165
-52.251
-49.136
-46.2533
-43.585
-41.114
-38.8241
-36.7
-34.7277
-32.8942
-31.1877
-29.5975
-28.1137
-26.7274
-25.4304
-24.2153
-23.0757
-22.0048
-20.9933
-20.0384
-19.1822
-102.889
-94.5247
-88.0925
-82.5209
-77.2502
-72.3261
-67.7531
-63.506
-59.5652
-55.9134
-52.5323
-49.4037
-46.5089
-43.8299
-41.3494
-39.051
-36.9193
-34.9401
-33.1005
-31.3884
-29.7932
-28.3048
-26.9144
-25.6136
-24.3952
-23.2525
-22.1789
-21.1645
-20.2069
-19.3514
-103.371
-94.993
-88.5396
-82.943
-77.6464
-72.6969
-68.1001
-63.8313
-59.871
-56.2018
-52.8055
-49.6633
-46.7567
-44.0672
-41.5774
-39.2706
-37.1314
-35.1455
-33.2998
-31.5823
-29.9821
-28.4894
-27.095
-25.7908
-24.5693
-23.4239
-22.3479
-21.331
-20.3712
-19.5168
-103.845
-95.4527
-88.9777
-83.3559
-78.0333
-73.0584
-68.438
-64.1475
-60.1679
-56.4816
-53.0702
-49.9148
-46.9964
-44.2966
-41.7976
-39.4826
-37.336
-35.3435
-33.4918
-31.7689
-30.1639
-28.6669
-27.2687
-25.9613
-24.7369
-23.5892
-22.5111
-21.4923
-20.5307
-19.6779
-104.312
-95.9037
-89.4067
-83.7595
-78.4105
-73.4104
-68.7664
-64.4546
-60.4558
-56.7527
-53.3264
-50.1579
-47.228
-44.5179
-42.0098
-39.6866
-37.5327
-35.5336
-33.676
-31.9477
-30.338
-28.8367
-27.4349
-26.1242
-24.8973
-23.7476
-22.6679
-21.6475
-20.6848
-19.8342
-104.771
-96.346
-89.8263
-84.1533
-78.778
-73.7526
-69.0851
-64.7521
-60.7345
-57.0147
-53.5738
-50.3924
-47.4511
-44.7309
-42.2137
-39.8825
-37.7212
-35.7155
-33.8518
-32.1182
-30.5036
-28.998
-27.5925
-26.2788
-25.0495
-23.8979
-22.8171
-21.7958
-20.8326
-19.9857
-105.224
-96.7795
-90.2363
-84.5373
-79.1355
-74.0848
-69.3941
-65.0401
-61.0039
-57.2676
-53.8123
-50.6182
-47.6656
-44.9354
-42.4093
-40.0699
-37.9013
-35.8888
-34.019
-32.2798
-30.6601
-29.1501
-27.7407
-26.4237
-25.1919
-24.0386
-22.9568
-21.9351
-20.9725
-20.1309
-105.67
-97.2036
-90.6364
-84.9112
-79.4827
-74.4067
-69.6929
-65.3183
-61.2637
-57.5113
-54.0418
-50.8352
-47.8716
-45.1315
-42.5964
-40.2488
-38.0728
-36.0534
-34.1772
-32.4321
-30.8071
-29.2922
-27.8786
-26.558
-25.3232
-24.1679
-23.0849
-22.0629
-21.1015
-20.2642
-106.113
-97.6199
-91.0264
-85.2744
-79.819
-74.7177
-69.9811
-65.5861
-61.5136
-57.7455
-54.2621
-51.0433
-48.0688
-45.3189
-42.7749
-40.4192
-38.2356
-36.2091
-34.3262
-32.5749
-30.944
-29.4237
-28.0053
-26.6806
-25.4425
-24.285
-23.201
-22.179
-21.2183
-20.3827
-106.564
-98.0318
-91.4059
-85.6254
-80.143
-75.0168
-70.2579
-65.8431
-61.7532
-57.9698
-54.473
-51.2424
-48.2572
-45.4978
-42.945
-40.5811
-38.3897
-36.3559
-34.466
-32.7078
-31.0703
-29.5438
-28.1195
-26.7897
-25.5475
-24.3876
-23.3033
-22.2825
-21.325
-20.5024
-107.027
-98.4384
-91.772
-85.9623
-80.4542
-75.3043
-70.5238
-66.0899
-61.9832
-58.185
-54.6752
-51.433
-48.4375
-45.6686
-43.107
-40.735
-38.5358
-36.4943
-34.5969
-32.8313
-31.1863
-29.6521
-28.22
-26.8823
-25.6329
-24.4667
-23.3775
-22.3546
-21.4086
-20.6318
-107.453
-98.821
-92.1212
-86.2858
-80.7546
-75.5826
-70.7815
-66.3291
-62.2059
-58.3932
-54.8706
-51.617
-48.6113
-45.833
-43.2628
-40.8825
-38.6754
-36.6262
-34.721
-32.9473
-31.2939
-29.7506
-28.3085
-26.9594
-25.6967
-24.5143
-23.4039
-22.3597
-21.4126
-20.6542
-112.886
-112.876
-112.833
-112.788
-112.739
-112.68
-112.608
-112.524
-112.427
-112.318
-112.195
-112.06
-111.912
-111.752
-111.578
-111.393
-111.195
-110.986
-110.765
-110.532
-110.289
-110.035
-109.77
-109.496
-109.212
-108.921
-108.623
-108.322
-108.023
-107.735
-103.981
-103.997
-103.989
-103.969
-103.938
-103.893
-103.835
-103.763
-103.677
-103.579
-103.467
-103.343
-103.206
-103.056
-102.893
-102.719
-102.532
-102.334
-102.124
-101.903
-101.67
-101.428
-101.174
-100.911
-100.639
-100.357
-100.068
-99.7717
-99.469
-99.1546
-96.8424
-96.8774
-96.8934
-96.8928
-96.8775
-96.8479
-96.8043
-96.747
-96.6763
-96.5925
-96.4957
-96.3861
-96.2638
-96.1292
-95.9823
-95.8234
-95.6527
-95.4703
-95.2766
-95.0718
-94.856
-94.6296
-94.3928
-94.1459
-93.8891
-93.6227
-93.3467
-93.0607
-92.7635
-92.4514
-90.521
-90.5675
-90.5979
-90.6118
-90.6103
-90.5947
-90.5653
-90.5225
-90.4666
-90.3977
-90.3162
-90.2221
-90.1158
-89.9973
-89.8669
-89.7248
-89.5712
-89.4063
-89.2304
-89.0435
-88.8459
-88.6378
-88.4193
-88.1907
-87.9519
-87.703
-87.4438
-87.1737
-86.8919
-86.5966
-84.5278
-84.5815
-84.6213
-84.6459
-84.6558
-84.6517
-84.6344
-84.6041
-84.561
-84.5054
-84.4375
-84.3575
-84.2657
-84.1622
-84.0472
-83.9209
-83.7836
-83.6353
-83.4764
-83.3069
-83.127
-82.9369
-82.7367
-82.5264
-82.306
-82.0755
-81.8346
-81.5829
-81.3199
-81.0444
-78.9501
-79.0083
-79.0541
-79.0859
-79.1038
-79.1082
-79.1
-79.0793
-79.0463
-79.0013
-78.9446
-78.8763
-78.7967
-78.7059
-78.6042
-78.4917
-78.3686
-78.2351
-78.0913
-77.9375
-77.7737
-77.6001
-77.4167
-77.2235
-77.0206
-76.8079
-76.585
-76.3517
-76.1075
-75.8517
-73.8106
-73.8707
-73.9196
-73.9556
-73.9783
-73.9884
-73.9863
-73.9724
-73.9468
-73.9098
-73.8616
-73.8024
-73.7325
-73.6519
-73.5609
-73.4597
-73.3484
-73.2273
-73.0965
-72.956
-72.8062
-72.647
-72.4785
-72.3007
-72.1135
-71.917
-71.7107
-71.4946
-71.2682
-71.031
-69.0858
-69.1459
-69.1956
-69.2331
-69.2582
-69.2714
-69.2731
-69.2636
-69.243
-69.2115
-69.1694
-69.1169
-69.0542
-68.9814
-68.8988
-68.8065
-68.7047
-68.5937
-68.4734
-68.3441
-68.206
-68.059
-67.9032
-67.7387
-67.5654
-67.3832
-67.1919
-66.9913
-66.781
-66.5607
-64.7488
-64.8073
-64.856
-64.8933
-64.919
-64.9334
-64.9369
-64.9298
-64.9122
-64.8843
-64.8463
-64.7984
-64.7409
-64.6739
-64.5976
-64.5121
-64.4177
-64.3146
-64.2028
-64.0826
-63.954
-63.8172
-63.6722
-63.519
-63.3576
-63.1878
-63.0096
-62.8227
-62.6268
-62.4216
-60.7705
-60.8265
-60.873
-60.9089
-60.9337
-60.948
-60.9519
-60.9457
-60.9296
-60.9037
-60.8683
-60.8235
-60.7695
-60.7066
-60.6348
-60.5545
-60.4658
-60.3688
-60.2638
-60.1508
-60.0301
-59.9016
-59.7656
-59.6219
-59.4706
-59.3116
-59.1448
-58.9699
-58.7867
-58.5949
-57.1203
-57.173
-57.2167
-57.2503
-57.2735
-57.2866
-57.29
-57.2837
-57.268
-57.243
-57.209
-57.166
-57.1144
-57.0543
-56.9859
-56.9093
-56.8248
-56.7326
-56.6329
-56.5257
-56.4113
-56.2898
-56.1612
-56.0256
-55.8829
-55.7332
-55.5762
-55.4119
-55.2398
-55.0598
-53.7677
-53.8168
-53.8573
-53.8882
-53.9092
-53.9206
-53.9228
-53.9158
-53.8997
-53.8749
-53.8414
-53.7995
-53.7493
-53.6911
-53.6249
-53.5511
-53.4699
-53.3814
-53.2857
-53.1832
-53.074
-52.9581
-52.8358
-52.707
-52.5718
-52.4301
-52.2818
-52.1268
-51.9646
-51.7951
-50.6839
-50.7294
-50.7665
-50.7945
-50.813
-50.8225
-50.823
-50.8148
-50.7981
-50.7729
-50.7394
-50.6979
-50.6485
-50.5915
-50.527
-50.4552
-50.3764
-50.2907
-50.1984
-50.0996
-49.9946
-49.8835
-49.7664
-49.6435
-49.5148
-49.3801
-49.2395
-49.0927
-48.9394
-48.7793
-47.8424
-47.8843
-47.9181
-47.9431
-47.9591
-47.9664
-47.9652
-47.9556
-47.9378
-47.912
-47.8782
-47.8368
-47.7878
-47.7315
-47.6681
-47.5978
-47.5208
-47.4374
-47.3477
-47.252
-47.1505
-47.0434
-46.9309
-46.8131
-46.69
-46.5616
-46.4279
-46.2886
-46.1434
-45.9919
-45.2192
-45.2576
-45.2882
-45.3103
-45.3239
-45.329
-45.326
-45.315
-45.2961
-45.2694
-45.2351
-45.1935
-45.1447
-45.0888
-45.0262
-44.957
-44.8814
-44.7998
-44.7123
-44.6191
-44.5206
-44.4169
-44.3083
-44.195
-44.0769
-43.9542
-43.8268
-43.6944
-43.5566
-43.4132
-42.7928
-42.828
-42.8556
-42.875
-42.8861
-42.8892
-42.8844
-42.8719
-42.8518
-42.8243
-42.7894
-42.7475
-42.6986
-42.6431
-42.581
-42.5126
-42.4382
-42.358
-42.2722
-42.1812
-42.0853
-41.9846
-41.8794
-41.77
-41.6564
-41.5389
-41.4172
-41.2913
-41.1607
-41.0248
-40.5442
-40.5763
-40.6011
-40.6179
-40.6268
-40.628
-40.6216
-40.6076
-40.5864
-40.558
-40.5225
-40.4802
-40.4313
-40.3758
-40.3141
-40.2464
-40.1729
-40.0939
-40.0097
-39.9205
-39.8267
-39.7285
-39.6264
-39.5205
-39.4111
-39.2983
-39.182
-39.0622
-38.9384
-38.8099
-38.4565
-38.4858
-38.508
-38.5225
-38.5293
-38.5286
-38.5206
-38.5054
-38.4831
-38.4538
-38.4178
-38.3751
-38.326
-38.2706
-38.2092
-38.142
-38.0693
-37.9913
-37.9083
-37.8207
-37.7287
-37.6328
-37.5333
-37.4306
-37.3249
-37.2165
-37.1054
-36.9914
-36.8742
-36.7529
-36.5149
-36.5416
-36.5613
-36.5737
-36.5786
-36.5762
-36.5668
-36.5503
-36.527
-36.497
-36.4604
-36.4173
-36.3681
-36.3127
-36.2516
-36.1848
-36.1127
-36.0356
-35.9536
-35.8673
-35.777
-35.683
-35.5858
-35.4859
-35.3836
-35.2792
-35.173
-35.0647
-34.9539
-34.8399
-34.7061
-34.7304
-34.7479
-34.7583
-34.7614
-34.7576
-34.7468
-34.7293
-34.705
-34.6743
-34.6372
-34.5938
-34.5444
-34.4891
-34.4281
-34.3617
-34.2901
-34.2137
-34.1327
-34.0475
-33.9585
-33.8661
-33.771
-33.6735
-33.5742
-33.4735
-33.3718
-33.2691
-33.1649
-33.0582
-33.0185
-33.0406
-33.0561
-33.0646
-33.0662
-33.0609
-33.049
-33.0304
-33.0054
-32.974
-32.9364
-32.8927
-32.8432
-32.7879
-32.7271
-32.661
-32.5899
-32.5141
-32.4338
-32.3495
-32.2616
-32.1706
-32.0771
-31.9817
-31.885
-31.7877
-31.6903
-31.5929
-31.4953
-31.3964
-31.4417
-31.4618
-31.4755
-31.4824
-31.4825
-31.4759
-31.4629
-31.4434
-31.4177
-31.3857
-31.3477
-31.3038
-31.2541
-31.1988
-31.1382
-31.0724
-31.0017
-30.9263
-30.8467
-30.7631
-30.6761
-30.5862
-30.494
-30.4002
-30.3057
-30.2113
-30.1178
-30.0256
-29.9348
-29.8439
-29.9666
-29.9849
-29.9968
-30.0022
-30.0009
-29.9933
-29.9792
-29.959
-29.9325
-29.9001
-29.8617
-29.8176
-29.7678
-29.7126
-29.652
-29.5865
-29.5161
-29.4412
-29.362
-29.279
-29.1927
-29.1035
-29.0122
-28.9197
-28.8269
-28.7349
-28.6449
-28.5576
-28.4737
-28.3914
-28.5849
-28.6015
-28.6119
-28.6159
-28.6134
-28.6047
-28.5898
-28.5688
-28.5418
-28.5089
-28.4702
-28.4258
-28.376
-28.3208
-28.2604
-28.1951
-28.125
-28.0504
-27.9716
-27.889
-27.8031
-27.7144
-27.6237
-27.5319
-27.4401
-27.3499
-27.2627
-27.18
-27.1031
-27.0302
-27.2893
-27.3043
-27.3133
-27.316
-27.3124
-27.3028
-27.287
-27.2654
-27.2379
-27.2046
-27.1656
-27.1211
-27.0712
-27.0161
-26.9559
-26.8907
-26.8208
-26.7465
-26.668
-26.5857
-26.5
-26.4115
-26.3209
-26.2293
-26.138
-26.0486
-25.9635
-25.8846
-25.8149
-25.7523
-26.0731
-26.0867
-26.0943
-26.0958
-26.0913
-26.0807
-26.0643
-26.042
-26.014
-25.9804
-25.9412
-25.8966
-25.8466
-25.7915
-25.7314
-25.6664
-25.5967
-25.5225
-25.4442
-25.362
-25.2763
-25.1877
-25.097
-25.005
-24.9133
-24.8238
-24.7396
-24.6632
-24.6004
-24.5488
-24.9306
-24.9428
-24.9491
-24.9495
-24.944
-24.9326
-24.9155
-24.8926
-24.8641
-24.8301
-24.7906
-24.7458
-24.6958
-24.6406
-24.5805
-24.5156
-24.4459
-24.3718
-24.2935
-24.2112
-24.1253
-24.0362
-23.9447
-23.8517
-23.7586
-23.6677
-23.5825
-23.5069
-23.45
-23.4087
-23.856
-23.8672
-23.8726
-23.8721
-23.8658
-23.8538
-23.8362
-23.8129
-23.7841
-23.7498
-23.7102
-23.6653
-23.6152
-23.56
-23.4999
-23.435
-23.3654
-23.2913
-23.2129
-23.1304
-23.044
-22.9543
-22.8617
-22.767
-22.6717
-22.5777
-22.4894
-22.4123
-22.3602
-22.3287
-22.844
-22.8547
-22.8597
-22.8591
-22.8527
-22.8407
-22.8232
-22.8001
-22.7717
-22.7379
-22.6988
-22.6546
-22.6052
-22.5509
-22.4917
-22.4276
-22.359
-22.2858
-22.2082
-22.1264
-22.0406
-21.9512
-21.8584
-21.763
-21.6658
-21.5689
-21.4757
-21.3941
-21.3453
-21.3348
-21.8916
-21.9
-21.9031
-21.9008
-21.893
-21.88
-21.8616
-21.8381
-21.8094
-21.7756
-21.7367
-21.693
-21.6443
-21.5909
-21.5328
-21.4701
-21.4029
-21.3313
-21.2553
-21.1752
-21.091
-21.003
-20.9113
-20.8163
-20.7184
-20.6188
-20.519
-20.4263
-20.3589
-20.3782
-104.769
-105.218
-105.627
-106.046
-106.47
-106.889
-107.299
-107.697
-108.084
-108.458
-108.819
-109.167
-109.499
-109.816
-110.118
-110.405
-110.675
-110.929
-111.168
-111.39
-111.596
-111.786
-111.961
-112.119
-112.263
-112.392
-112.507
-112.611
-112.707
-112.799
-95.7459
-96.2219
-96.6714
-97.1139
-97.5501
-97.976
-98.3895
-98.7905
-99.1789
-99.5543
-99.9161
-100.264
-100.597
-100.916
-101.219
-101.507
-101.78
-102.037
-102.278
-102.504
-102.714
-102.908
-103.087
-103.25
-103.398
-103.532
-103.651
-103.757
-103.85
-103.926
-88.5436
-89.0256
-89.4895
-89.9387
-90.3756
-90.8003
-91.2125
-91.612
-91.9988
-92.3726
-92.733
-93.0797
-93.4124
-93.7308
-94.0347
-94.3238
-94.5981
-94.8573
-95.1014
-95.3303
-95.544
-95.7424
-95.9258
-96.0941
-96.2475
-96.3861
-96.5099
-96.6187
-96.712
-96.7871
-82.2597
-82.7323
-83.1913
-83.6354
-84.066
-84.4843
-84.8905
-85.2843
-85.6657
-86.0343
-86.39
-86.7325
-87.0615
-87.3767
-87.6781
-87.9654
-88.2384
-88.4971
-88.7412
-88.9709
-89.1859
-89.3864
-89.5722
-89.7435
-89.9002
-90.0422
-90.1695
-90.2818
-90.3785
-90.4587
-76.4027
-76.8593
-77.3056
-77.7387
-78.1588
-78.5669
-78.9631
-79.3475
-79.7197
-80.0797
-80.4272
-80.762
-81.0839
-81.3928
-81.6884
-81.9705
-82.2391
-82.494
-82.7352
-82.9625
-83.1759
-83.3753
-83.5607
-83.7322
-83.8896
-84.0328
-84.1618
-84.2762
-84.3759
-84.4602
-71.0418
-71.4804
-71.9106
-72.3292
-72.7355
-73.1302
-73.5135
-73.8855
-74.2458
-74.5943
-74.9309
-75.2553
-75.5675
-75.8672
-76.1543
-76.4286
-76.6901
-76.9385
-77.1739
-77.3961
-77.6051
-77.8008
-77.9832
-78.1522
-78.3077
-78.4497
-78.5781
-78.6927
-78.7933
-78.8795
-66.1762
-66.5961
-67.0086
-67.4106
-67.8011
-68.1806
-68.5492
-68.9069
-69.2535
-69.5889
-69.9128
-70.2251
-70.5257
-70.8145
-71.0912
-71.3558
-71.6081
-71.8481
-72.0756
-72.2906
-72.4931
-72.6829
-72.8601
-73.0245
-73.1762
-73.3149
-73.4407
-73.5535
-73.653
-73.739
-61.76
-62.1611
-62.5555
-62.9401
-63.314
-63.6775
-64.0307
-64.3734
-64.7054
-65.0267
-65.3371
-65.6363
-65.9244
-66.2011
-66.4663
-66.72
-66.962
-67.1922
-67.4106
-67.6171
-67.8116
-67.9942
-68.1646
-68.323
-68.4692
-68.6031
-68.7248
-68.8341
-68.9309
-69.0151
-57.7475
-58.1304
-58.5069
-58.8743
-59.2316
-59.5791
-59.9167
-60.2443
-60.5617
-60.8687
-61.1652
-61.4511
-61.7263
-61.9906
-62.2439
-62.4861
-62.7172
-62.937
-63.1456
-63.3428
-63.5286
-63.7029
-63.8658
-64.0171
-64.1569
-64.285
-64.4015
-64.5062
-64.5992
-64.6803
-54.0955
-54.4611
-54.8205
-55.1713
-55.5126
-55.8445
-56.167
-56.4798
-56.7829
-57.0759
-57.3588
-57.6316
-57.8939
-58.1458
-58.3872
-58.618
-58.8381
-59.0474
-59.2459
-59.4336
-59.6103
-59.7761
-59.931
-60.0748
-60.2076
-60.3294
-60.4401
-60.5396
-60.628
-60.7052
-50.7635
-51.113
-51.4563
-51.7914
-52.1175
-52.4347
-52.7427
-53.0415
-53.3307
-53.6104
-53.8803
-54.1403
-54.3903
-54.6302
-54.86
-55.0796
-55.2889
-55.4879
-55.6765
-55.8547
-56.0225
-56.1798
-56.3266
-56.4629
-56.5886
-56.7038
-56.8084
-56.9024
-56.9858
-57.0587
-47.715
-48.0494
-48.3778
-48.6983
-49.0103
-49.3135
-49.608
-49.8935
-50.1698
-50.4368
-50.6943
-50.9423
-51.1806
-51.4091
-51.6279
-51.8368
-52.0358
-52.2249
-52.4039
-52.573
-52.7321
-52.8811
-53.02
-53.1489
-53.2677
-53.3763
-53.4749
-53.5634
-53.6417
-53.71
-44.9177
-45.2383
-45.5529
-45.86
-46.1587
-46.4491
-46.731
-47.0041
-47.2683
-47.5235
-47.7694
-48.006
-48.2333
-48.4511
-48.6595
-48.8583
-49.0476
-49.2273
-49.3973
-49.5578
-49.7086
-49.8497
-49.9811
-50.1029
-50.2149
-50.3173
-50.41
-50.4931
-50.5665
-50.6303
-42.3437
-42.6515
-42.9535
-43.2482
-43.5348
-43.8133
-44.0835
-44.3452
-44.5982
-44.8422
-45.0774
-45.3034
-45.5204
-45.7283
-45.9269
-46.1163
-46.2965
-46.4674
-46.629
-46.7813
-46.9243
-47.058
-47.1824
-47.2975
-47.4032
-47.4996
-47.5868
-47.6646
-47.7332
-47.7927
-39.9687
-40.2649
-40.5553
-40.8386
-41.1142
-41.3818
-41.6412
-41.8923
-42.1348
-42.3686
-42.5937
-42.81
-43.0174
-43.2159
-43.4055
-43.5862
-43.7578
-43.9206
-44.0743
-44.2191
-44.3548
-44.4816
-44.5994
-44.7082
-44.808
-44.8989
-44.9808
-45.0538
-45.1179
-45.1732
-37.772
-38.0575
-38.3375
-38.6104
-38.8757
-39.1332
-39.3828
-39.624
-39.8569
-40.0813
-40.297
-40.5042
-40.7027
-40.8926
-41.0738
-41.2463
-41.4101
-41.5652
-41.7117
-41.8494
-41.9784
-42.0988
-42.2105
-42.3135
-42.4078
-42.4935
-42.5705
-42.639
-42.6989
-42.7503
-35.7356
-36.0115
-36.2818
-36.5452
-36.8013
-37.0496
-37.2899
-37.5221
-37.746
-37.9616
-38.1687
-38.3674
-38.5577
-38.7395
-38.9129
-39.0778
-39.2343
-39.3824
-39.5221
-39.6533
-39.7761
-39.8905
-39.9965
-40.0942
-40.1834
-40.2643
-40.3369
-40.4012
-40.4572
-40.505
-33.8441
-34.1111
-34.3727
-34.6275
-34.875
-35.1148
-35.3467
-35.5706
-35.7862
-35.9935
-36.1926
-36.3834
-36.566
-36.7403
-36.9064
-37.0643
-37.2141
-37.3556
-37.4889
-37.6141
-37.7312
-37.8401
-37.9409
-38.0335
-38.1181
-38.1946
-38.263
-38.3234
-38.3758
-38.4203
-32.0841
-32.343
-32.5966
-32.8437
-33.0834
-33.3154
-33.5394
-33.7554
-33.9633
-34.163
-34.3545
-34.538
-34.7134
-34.8807
-35.04
-35.1914
-35.3347
-35.4702
-35.5977
-35.7173
-35.829
-35.9328
-36.0287
-36.1168
-36.197
-36.2694
-36.334
-36.3909
-36.44
-36.4814
-30.4437
-30.6952
-30.9417
-31.1817
-31.4143
-31.6391
-31.8559
-32.0645
-32.2651
-32.4576
-32.6421
-32.8186
-32.9872
-33.148
-33.301
-33.4462
-33.5837
-33.7135
-33.8355
-33.9499
-34.0567
-34.1557
-34.2472
-34.331
-34.4072
-34.4758
-34.5369
-34.5905
-34.6365
-34.6751
-28.9126
-29.1574
-29.3976
-29.6313
-29.8573
-30.0754
-30.2854
-30.4872
-30.6809
-30.8666
-31.0444
-31.2143
-31.3766
-31.5312
-31.6782
-31.8177
-31.9497
-32.0741
-32.1911
-32.3007
-32.4028
-32.4975
-32.5847
-32.6646
-32.7371
-32.8023
-32.8601
-32.9106
-32.9538
-32.9899
-27.4815
-27.7203
-27.955
-28.1831
-28.4032
-28.615
-28.8185
-29.0138
-29.201
-29.3802
-29.5516
-29.7154
-29.8716
-30.0204
-30.1618
-30.2959
-30.4227
-30.5422
-30.6544
-30.7595
-30.8573
-30.9479
-31.0313
-31.1075
-31.1765
-31.2385
-31.2933
-31.341
-31.3816
-31.4153
-26.1419
-26.3754
-26.6058
-26.8291
-27.0437
-27.2495
-27.4469
-27.6359
-27.8168
-27.9898
-28.1551
-28.313
-28.4636
-28.6069
-28.743
-28.872
-28.9939
-29.1087
-29.2165
-29.3173
-29.4111
-29.4979
-29.5777
-29.6505
-29.7164
-29.7753
-29.8273
-29.8724
-29.9107
-29.9421
-24.8862
-25.1152
-25.3425
-25.5618
-25.7712
-25.9714
-26.1628
-26.3458
-26.5206
-26.6876
-26.8471
-26.9994
-27.1445
-27.2826
-27.4138
-27.538
-27.6553
-27.7658
-27.8694
-27.9663
-28.0563
-28.1395
-28.216
-28.2856
-28.3485
-28.4047
-28.4541
-28.4968
-28.5329
-28.5623
-23.7076
-23.9333
-24.1589
-24.3748
-24.5794
-24.774
-24.9596
-25.1366
-25.3055
-25.4667
-25.6207
-25.7676
-25.9076
-26.0407
-26.1671
-26.2868
-26.3999
-26.5062
-26.606
-26.6991
-26.7856
-26.8655
-26.9389
-27.0056
-27.0657
-27.1193
-27.1663
-27.2068
-27.2408
-27.2683
-22.5992
-22.8247
-23.0507
-23.2633
-23.463
-23.6521
-23.8318
-24.0028
-24.1659
-24.3215
-24.4701
-24.6118
-24.7469
-24.8754
-24.9973
-25.1127
-25.2216
-25.3241
-25.4202
-25.5098
-25.593
-25.6697
-25.7401
-25.804
-25.8616
-25.9127
-25.9575
-25.9959
-26.028
-26.0538
-21.5486
-21.782
-22.0122
-22.2216
-22.4158
-22.5993
-22.7731
-22.9382
-23.0956
-23.2457
-23.3892
-23.526
-23.6564
-23.7804
-23.8981
-24.0095
-24.1146
-24.2134
-24.306
-24.3923
-24.4724
-24.5462
-24.6138
-24.6752
-24.7303
-24.7792
-24.8218
-24.8583
-24.8886
-24.9127
-20.5335
-20.7846
-21.0272
-21.2346
-21.4234
-21.6013
-21.7696
-21.9293
-22.0814
-22.2268
-22.3657
-22.4983
-22.6247
-22.7449
-22.859
-22.967
-23.0688
-23.1646
-23.2543
-23.338
-23.4155
-23.4869
-23.5523
-23.6115
-23.6647
-23.7117
-23.7527
-23.7876
-23.8165
-23.8393
-19.5626
-19.8259
-20.0861
-20.2965
-20.4808
-20.653
-20.8161
-20.9708
-21.1182
-21.2593
-21.3942
-21.5231
-21.646
-21.763
-21.874
-21.9791
-22.0783
-22.1716
-22.2589
-22.3403
-22.4158
-22.4853
-22.5489
-22.6066
-22.6583
-22.7041
-22.7439
-22.7778
-22.8058
-22.8279
-18.8029
-19.0582
-19.2996
-19.5108
-19.6877
-19.8477
-20.0004
-20.1459
-20.2845
-20.4172
-20.5442
-20.6655
-20.7811
-20.891
-20.9952
-21.0937
-21.1865
-21.2736
-21.3551
-21.4309
-21.501
-21.5655
-21.6244
-21.6775
-21.7251
-21.7669
-21.8031
-21.8337
-21.8586
-21.8779
-12.0023
-12.7174
-13.4816
-14.2943
-15.1595
-16.0816
-17.0646
-18.1131
-19.2322
-20.4275
-21.7054
-23.0731
-24.5385
-26.1111
-27.8016
-29.6222
-31.5877
-33.7152
-36.0252
-38.5421
-41.2953
-44.3199
-47.6577
-51.3575
-55.4772
-60.0846
-65.2156
-70.8491
-77.5252
-86.1876
-12.2365
-12.9583
-13.7265
-14.5439
-15.4146
-16.3424
-17.3317
-18.3869
-19.5132
-20.7163
-22.0025
-23.3792
-24.8544
-26.4376
-28.1395
-29.9727
-31.9519
-34.0943
-36.4206
-38.9554
-41.7282
-44.7744
-48.1356
-51.8607
-56.0074
-60.6429
-65.8019
-71.4598
-78.1493
-86.8074
-12.4717
-13.2
-13.9722
-14.7945
-15.6708
-16.6046
-17.6001
-18.6621
-19.7957
-21.0066
-22.3014
-23.6872
-25.1724
-26.7663
-28.4799
-30.3257
-32.3187
-34.4762
-36.819
-39.3719
-42.1646
-45.2324
-48.6173
-52.3677
-56.5412
-61.2041
-66.3898
-72.0698
-78.7682
-87.4139
-12.7075
-13.4422
-14.2185
-15.0458
-15.9277
-16.8675
-17.8694
-18.9382
-20.0792
-21.2981
-22.6014
-23.9965
-25.4916
-27.0964
-28.8217
-30.6803
-32.6872
-34.8599
-37.2193
-39.7904
-42.603
-45.6925
-49.1009
-52.8766
-57.0766
-61.7665
-66.9781
-72.6806
-79.3924
-88.0359
-12.9437
-13.6847
-14.4652
-15.2975
-16.1851
-17.1309
-18.1393
-19.2151
-20.3635
-21.5904
-22.9024
-24.3068
-25.812
-27.4276
-29.1647
-31.0362
-33.057
-35.2449
-37.621
-40.2104
-43.0429
-46.1541
-49.586
-53.3869
-57.6132
-62.3299
-67.5675
-73.2933
-80.0221
-88.6704
-13.1801
-13.9274
-14.712
-15.5495
-16.4428
-17.3948
-18.4098
-19.4925
-20.6485
-21.8834
-23.2041
-24.6178
-26.1332
-27.7598
-29.5088
-31.3931
-33.428
-35.6313
-38.0241
-40.6317
-43.4841
-46.6171
-50.0724
-53.8984
-58.1512
-62.8947
-68.1583
-73.9077
-80.6546
-89.3107
-13.4165
-14.17
-14.9588
-15.8015
-16.7007
-17.6589
-18.6805
-19.7703
-20.9338
-22.1769
-23.5064
-24.9296
-26.4551
-28.0927
-29.8536
-31.751
-33.8
-36.0186
-38.4282
-41.0541
-43.9265
-47.0812
-50.5601
-54.4112
-58.6904
-63.4607
-68.7504
-74.5234
-81.2887
-89.954
-13.6528
-14.4123
-15.2053
-16.0534
-16.9586
-17.9231
-18.9513
-20.0482
-21.2194
-22.4707
-23.809
-25.2417
-26.7775
-28.4262
-30.1991
-32.1095
-34.1726
-36.4067
-38.8331
-41.4774
-44.3699
-47.5464
-51.0488
-54.925
-59.2305
-64.0278
-69.3435
-75.14
-81.9238
-90.5994
-13.8887
-14.6542
-15.4515
-16.3049
-17.2162
-18.187
-19.222
-20.3261
-21.505
-22.7646
-24.1117
-25.554
-27.1001
-28.7599
-30.5449
-32.4684
-34.5457
-36.7953
-39.2386
-41.9013
-44.8139
-48.0122
-51.5381
-55.4395
-59.7714
-64.5954
-69.9372
-75.7572
-82.5597
-91.2463
-14.1242
-14.8955
-15.697
-16.556
-17.4734
-18.4507
-19.4924
-20.6038
-21.7904
-23.0583
-24.4144
-25.8663
-27.4227
-29.0938
-30.8909
-32.8274
-34.919
-37.1841
-39.6444
-42.3256
-45.2582
-48.4783
-52.0278
-55.9543
-60.3125
-65.1634
-70.5312
-76.3746
-83.1959
-91.8937
-14.3591
-15.1361
-15.9419
-16.8065
-17.73
-18.7138
-19.7624
-20.8811
-22.0755
-23.3518
-24.7168
-26.1784
-27.7452
-29.4275
-31.2367
-33.1864
-35.2923
-37.573
-40.0502
-42.7498
-45.7026
-48.9445
-52.5176
-56.4692
-60.8537
-65.7312
-71.1249
-76.9917
-83.8316
-92.5409
-14.5933
-15.3758
-16.1859
-17.0562
-17.986
-18.9763
-20.0318
-21.1579
-22.3602
-23.6449
-25.0189
-26.4901
-28.0674
-29.7608
-31.5822
-33.5451
-35.6654
-37.9616
-40.4557
-43.1739
-46.1467
-49.4105
-53.0071
-56.9838
-61.3944
-66.2986
-71.718
-77.608
-84.4664
-93.1871
-14.8267
-15.6145
-16.4289
-17.305
-18.2412
-19.2381
-20.3006
-21.434
-22.6442
-23.9373
-25.3204
-26.8013
-28.389
-30.0937
-31.9273
-33.9033
-36.0379
-38.3497
-40.8608
-43.5974
-46.5904
-49.876
-53.496
-57.4977
-61.9344
-66.865
-72.31
-78.2229
-85.0996
-93.8317
-15.0591
-15.8522
-16.6709
-17.5529
-18.4955
-19.499
-20.5685
-21.7094
-22.9275
-24.229
-25.6211
-27.1117
-28.7098
-30.4258
-32.2716
-34.2608
-36.4096
-38.737
-41.2651
-44.0201
-47.0332
-50.3406
-53.984
-58.0106
-62.4733
-67.4301
-72.9005
-78.8361
-85.7308
-94.474
-15.2907
-16.0887
-16.9118
-17.7997
-18.7488
-19.7591
-20.8355
-21.9839
-23.2099
-24.5199
-25.921
-27.4213
-29.0298
-30.757
-32.6149
-34.6173
-36.7804
-39.1233
-41.6683
-44.4418
-47.4749
-50.804
-54.4708
-58.5221
-63.0106
-67.9935
-73.489
-79.447
-86.3594
-95.1135
-15.5213
-16.3242
-17.1516
-18.0455
-19.0011
-20.0181
-21.1016
-22.2574
-23.4913
-24.8097
-26.2198
-27.7298
-29.3487
-31.0871
-32.9571
-34.9726
-37.15
-39.5083
-42.0702
-44.8621
-47.9152
-51.2658
-54.9559
-59.0319
-63.546
-68.5548
-74.0751
-80.0552
-86.9849
-95.7497
-15.7509
-16.5585
-17.3902
-18.2903
-19.2524
-20.2761
-21.3667
-22.5299
-23.7717
-25.0985
-26.5176
-28.0371
-29.6664
-31.4159
-33.2979
-35.3265
-37.5181
-39.8918
-42.4705
-45.2807
-48.3537
-51.7259
-55.439
-59.5395
-64.0791
-69.1135
-74.6583
-80.6602
-87.6069
-96.382
-15.9799
-16.7919
-17.6279
-18.534
-19.5027
-20.5332
-21.6307
-22.8013
-24.0509
-25.386
-26.814
-28.343
-29.9826
-31.7432
-33.6372
-35.6787
-37.8844
-40.2735
-42.8689
-45.6973
-48.7901
-52.1837
-55.9198
-60.0446
-64.6095
-69.6692
-75.2383
-81.2616
-88.2248
-97.0101
-16.2082
-17.0244
-17.8646
-18.7769
-19.7521
-20.7892
-21.8936
-23.0715
-24.3288
-25.6722
-27.109
-28.6475
-30.2972
-32.0687
-33.9746
-36.029
-38.2487
-40.6531
-43.2651
-46.1116
-49.224
-52.6389
-56.3979
-60.5469
-65.1367
-70.2215
-75.8145
-81.8588
-88.8383
-97.6334
-16.4362
-17.2563
-18.1006
-19.0189
-20.0006
-21.0442
-22.1555
-23.3405
-24.6054
-25.9569
-27.4024
-28.9502
-30.6099
-32.3923
-34.31
-36.3772
-38.6107
-41.0303
-43.6588
-46.5232
-49.6552
-53.0913
-56.8729
-61.0458
-65.6604
-70.77
-76.3866
-82.4516
-89.447
-98.2516