/*--------------------------------*- C++ -*----------------------------------*\
  =========                 |
  \\      /  F ield         | OpenFOAM: The Open Source CFD Toolbox
   \\    /   O peration     | Website:  https://openfoam.org
    \\  /    A nd           | Version:  6.0
     \\/     M anipulation  |
\*---------------------------------------------------------------------------*/
FoamFile
{
    version     2.0;
    format      ascii;
    class       surfaceScalarField;
    location    "15";
    object      phi;
}
// * * * * * * * * * * * * * * * * * * * * * * * * * * * * * * * * * * * * * //

dimensions      [0 3 -1 0 0 0 0];

internalField   nonuniform List<scalar> 
38030
(
7.88188e-05
-0.241886
0.241807
0.000373526
-0.23074
0.230445
0.00082681
-0.222315
0.221862
0.00139021
-0.215618
0.215055
0.00202653
-0.210006
0.209369
0.00270558
-0.205018
0.204339
0.00340395
-0.200365
0.199666
0.00410449
-0.195874
0.195174
0.00479528
-0.191455
0.190764
0.00546862
-0.187064
0.186391
0.00612012
-0.182692
0.18204
0.00674779
-0.178345
0.177717
0.00735145
-0.174037
0.173434
0.00793205
-0.169789
0.169208
0.00849129
-0.165616
0.165057
0.00903127
-0.161535
0.160995
0.00955425
-0.157559
0.157036
0.0100625
-0.153697
0.153189
0.0105581
-0.149956
0.14946
0.0110431
-0.14634
0.145855
0.0115195
-0.14285
0.142374
0.011989
-0.139486
0.139017
0.0124532
-0.136246
0.135782
0.0129139
-0.133125
0.132665
0.0133724
-0.130117
0.129659
0.0138303
-0.127213
0.126756
0.0142886
-0.124403
0.123945
0.0147481
-0.121673
0.121214
0.0152088
-0.119008
0.118547
-0.116389
0.115928
0.0156697
9.40243e-05
-0.24198
0.000391956
-0.231037
0.000846464
-0.22277
0.00141019
-0.216182
0.00204544
-0.210641
0.00272209
-0.205695
0.00341686
-0.201059
0.00411269
-0.19657
0.00479783
-0.19214
0.00546479
-0.187731
0.00610937
-0.183336
0.00672979
-0.178965
0.00732603
-0.174634
0.00789919
-0.170362
0.00845107
-0.166168
0.00898385
-0.162068
0.00949983
-0.158075
0.0100013
-0.154198
0.0104904
-0.150445
0.0109691
-0.146818
0.0114394
-0.14332
0.011903
-0.13995
0.0123614
-0.136705
0.0128164
-0.13358
0.0132695
-0.13057
0.0137222
-0.127666
0.0141756
-0.124857
0.0146306
-0.122128
0.0150874
-0.119464
-0.116846
0.0155451
0.000106788
-0.242087
0.000408534
-0.231339
0.000863765
-0.223225
0.00142753
-0.216746
0.00206166
-0.211275
0.00273578
-0.206369
0.00342667
-0.20175
0.00411743
-0.197261
0.00479653
-0.192819
0.00545668
-0.188391
0.00609393
-0.183974
0.00670671
-0.179578
0.00729515
-0.175222
0.0078605
-0.170927
0.00840469
-0.166712
0.00892995
-0.162593
0.00943864
-0.158584
0.00993306
-0.154693
0.0104154
-0.150927
0.0108876
-0.147291
0.0113515
-0.143784
0.0118088
-0.140407
0.0122613
-0.137157
0.0127104
-0.134029
0.0131578
-0.131018
0.0136049
-0.128113
0.0140531
-0.125305
0.0145033
-0.122578
0.0149559
-0.119917
-0.117301
0.0154102
0.00011254
-0.242199
0.000419576
-0.231646
0.000877337
-0.223683
0.00144178
-0.21731
0.0020749
-0.211908
0.00274637
-0.20704
0.00343311
-0.202437
0.00411847
-0.197946
0.00479113
-0.193491
0.00544411
-0.189044
0.00607365
-0.184603
0.00667841
-0.180183
0.0072587
-0.175802
0.00781593
-0.171484
0.00835211
-0.167248
0.00886956
-0.163111
0.00937069
-0.159085
0.0098578
-0.15518
0.0103331
-0.151403
0.0107985
-0.147756
0.0112558
-0.144241
0.0117067
-0.140858
0.0121529
-0.137603
0.0125959
-0.134472
0.0130373
-0.131459
0.0134786
-0.128554
0.0139213
-0.125747
0.0143665
-0.123024
0.0148146
-0.120365
-0.117752
0.0152653
0.000116665
-0.242316
0.000428153
-0.231958
0.000888449
-0.224143
0.00145349
-0.217875
0.00208542
-0.21254
0.00275398
-0.207709
0.00343626
-0.203119
0.00411585
-0.198626
0.00478171
-0.194157
0.00542712
-0.18969
0.00604858
-0.185225
0.00664497
-0.180779
0.00721678
-0.176374
0.00776555
-0.172033
0.00829342
-0.167776
0.00880278
-0.16362
0.00929607
-0.159578
0.00977562
-0.155659
0.0102436
-0.15187
0.0107019
-0.148214
0.0111525
-0.144692
0.0115968
-0.141302
0.0120365
-0.138043
0.0124731
-0.134909
0.0129083
-0.131894
0.0133436
-0.12899
0.0137806
-0.126184
0.0142204
-0.123463
0.0146638
-0.120809
-0.118198
0.0151107
0.000119581
-0.242436
0.000434707
-0.232273
0.000897312
-0.224605
0.00146281
-0.218441
0.00209331
-0.213171
0.00275865
-0.208374
0.00343612
-0.203797
0.00410957
-0.199299
0.00476826
-0.194816
0.00540572
-0.190327
0.00601874
-0.185838
0.0066064
-0.181367
0.0071694
-0.176937
0.00770941
-0.172573
0.00822868
-0.168295
0.00872967
-0.164121
0.00921486
-0.160063
0.0096866
-0.156131
0.010147
-0.152331
0.0105981
-0.148665
0.0110416
-0.145135
0.0114791
-0.14174
0.0119121
-0.138476
0.0123422
-0.135339
0.0127709
-0.132323
0.0132
-0.129419
0.013631
-0.126615
0.0140653
-0.123898
0.0145038
-0.121247
-0.118641
0.0149466
0.000121908
-0.242558
0.000439978
-0.232591
0.000904427
-0.22507
0.00147002
-0.219006
0.00209875
-0.213799
0.00276051
-0.209036
0.00343279
-0.204469
0.00409971
-0.199966
0.00475083
-0.195467
0.00537997
-0.190956
0.00598418
-0.186442
0.00656278
-0.181945
0.00711664
-0.177491
0.00764758
-0.173104
0.00815795
-0.168806
0.00865029
-0.164613
0.00912713
-0.16054
0.00959082
-0.156595
0.0100435
-0.152784
0.0104871
-0.149109
0.0109233
-0.145572
0.0113537
-0.14217
0.0117799
-0.138902
0.0122032
-0.135762
0.0126253
-0.132745
0.0130479
-0.129842
0.0134728
-0.12704
0.0139013
-0.124326
0.0143347
-0.12168
-0.11908
0.0147732
0.000123808
-0.242681
0.00044425
-0.232911
0.000910056
-0.225536
0.00147534
-0.219572
0.00210189
-0.214426
0.00275966
-0.209694
0.00342634
-0.205136
0.00408633
-0.200626
0.00472948
-0.19611
0.00534993
-0.191577
0.00594497
-0.187037
0.00651416
-0.182514
0.00705855
-0.178035
0.00758011
-0.173626
0.00808131
-0.169307
0.00856473
-0.165097
0.00903296
-0.161008
0.00948835
-0.15705
0.00993306
-0.153228
0.010369
-0.149545
0.0107977
-0.146
0.0112209
-0.142593
0.0116399
-0.139321
0.0120562
-0.136179
0.0124716
-0.13316
0.0128875
-0.130257
0.013306
-0.127459
0.0137285
-0.124749
0.0141566
-0.122108
-0.119514
0.0145907
0.000125401
-0.242807
0.000447726
-0.233234
0.000914412
-0.226002
0.00147894
-0.220136
0.00210287
-0.21505
0.00275622
-0.210347
0.00341688
-0.205796
0.00406952
-0.201279
0.0047043
-0.196745
0.00531567
-0.192188
0.00590117
-0.187622
0.00646061
-0.183074
0.00699521
-0.17857
0.0075071
-0.174137
0.00799882
-0.169799
0.00847306
-0.165571
0.00893241
-0.161468
0.00937927
-0.157497
0.00981576
-0.153665
0.0102437
-0.149973
0.0106648
-0.146422
0.0110805
-0.143009
0.0114923
-0.139733
0.0119015
-0.136588
0.0123097
-0.133569
0.0127188
-0.130667
0.0131307
-0.12787
0.0135471
-0.125165
0.0139696
-0.122531
-0.119943
0.0143991
0.000126738
-0.242934
0.000450527
-0.233558
0.000917633
-0.22647
0.00148095
-0.2207
0.00210183
-0.215671
0.00275031
-0.210996
0.00340451
-0.206451
0.00404937
-0.201924
0.00467538
-0.197371
0.00527728
-0.19279
0.00585289
-0.188198
0.00640222
-0.183623
0.00692671
-0.179095
0.00742861
-0.174639
0.00791057
-0.170281
0.00837535
-0.166036
0.00882556
-0.161918
0.00926363
-0.157935
0.00969167
-0.154093
0.0101115
-0.150393
0.0105247
-0.146835
0.0109328
-0.143417
0.011337
-0.140137
0.0117388
-0.13699
0.0121399
-0.13397
0.0125419
-0.131069
0.0129469
-0.128275
0.013357
-0.125575
0.0137737
-0.122948
-0.120368
0.0141985
0.000127854
-0.243061
0.000452726
-0.233882
0.00091983
-0.226937
0.0014815
-0.221261
0.00209887
-0.216288
0.00274204
-0.211639
0.00338933
-0.207098
0.00402599
-0.20256
0.00464282
-0.197988
0.00523486
-0.193382
0.00580021
-0.188763
0.0063391
-0.184162
0.00685315
-0.179609
0.00734474
-0.175131
0.00781665
-0.170752
0.00827167
-0.166491
0.00871248
-0.162359
0.0091415
-0.158364
0.00956083
-0.154512
0.00997228
-0.150804
0.0103774
-0.14724
0.0107776
-0.143817
0.0111741
-0.140533
0.0115684
-0.137384
0.0119619
-0.134363
0.0123567
-0.131463
0.0127547
-0.128673
0.0131581
-0.125979
0.013569
-0.123358
-0.120788
0.0139888
0.000128771
-0.24319
0.000454376
-0.234208
0.000921087
-0.227403
0.00148069
-0.221821
0.00209412
-0.216902
0.00273153
-0.212276
0.00337147
-0.207738
0.0039995
-0.203188
0.00460674
-0.198595
0.00518853
-0.193964
0.00574325
-0.189318
0.00627134
-0.18469
0.00677462
-0.180112
0.0072556
-0.175612
0.00771713
-0.171214
0.00816211
-0.166936
0.00859322
-0.16279
0.00901291
-0.158784
0.00942327
-0.154923
0.00982609
-0.151207
0.0102229
-0.147637
0.0106149
-0.144209
0.0110035
-0.140922
0.01139
-0.137771
0.0117759
-0.134749
0.0121631
-0.131851
0.0125539
-0.129064
0.0129505
-0.126375
0.0133552
-0.123763
-0.121203
0.01377
0.000129495
-0.24332
0.000455523
-0.234534
0.000921476
-0.227869
0.00147862
-0.222378
0.00208767
-0.217511
0.00271888
-0.212907
0.00335103
-0.20837
0.00397001
-0.203807
0.00456726
-0.199192
0.00513842
-0.194535
0.00568213
-0.189862
0.00619909
-0.185207
0.00669125
-0.180604
0.00716128
-0.176082
0.00761213
-0.171665
0.00804675
-0.16737
0.00846787
-0.163211
0.00887793
-0.159194
0.00927903
-0.155324
0.00967292
-0.151601
0.0100611
-0.148025
0.0104448
-0.144593
0.0108252
-0.141302
0.0112036
-0.138149
0.0115816
-0.135127
0.0119611
-0.13223
0.0123443
-0.129447
0.0127338
-0.126765
0.0131322
-0.124162
-0.121612
0.0135417
0.000130035
-0.24345
0.000456199
-0.23486
0.000921071
-0.228334
0.00147537
-0.222932
0.00207964
-0.218115
0.00270421
-0.213532
0.00332816
-0.208994
0.00393767
-0.204417
0.00452452
-0.199779
0.00508467
-0.195095
0.00561701
-0.190394
0.00612246
-0.185713
0.00660316
-0.181085
0.00706191
-0.176541
0.00750175
-0.172105
0.00792568
-0.167794
0.00833648
-0.163622
0.00873659
-0.159594
0.00912812
-0.155715
0.00951278
-0.151986
0.00989202
-0.148404
0.0102671
-0.144968
0.010639
-0.141674
0.0110092
-0.138519
0.011379
-0.135497
0.0117504
-0.132602
0.0121258
-0.129823
0.0125079
-0.127147
0.0128997
-0.124553
-0.122016
0.0133036
0.000130393
-0.24358
0.000456443
-0.235186
0.000919943
-0.228798
0.00147106
-0.223483
0.00207014
-0.218714
0.00268767
-0.21415
0.00330299
-0.209609
0.00390262
-0.205016
0.00447868
-0.200355
0.00502743
-0.195644
0.00554804
-0.190915
0.00604163
-0.186206
0.00651052
-0.181554
0.00695764
-0.176988
0.00738612
-0.172533
0.00779902
-0.168207
0.00819914
-0.164022
0.00858896
-0.159984
0.00897055
-0.156097
0.00934564
-0.152361
0.00971562
-0.148774
0.0100817
-0.145334
0.0104449
-0.142038
0.0108064
-0.138881
0.0111676
-0.135858
0.0115306
-0.132965
0.0118979
-0.13019
0.0122723
-0.127521
0.0126571
-0.124938
-0.122414
0.0130553
0.000130577
-0.243711
0.000456301
-0.235512
0.000918179
-0.22926
0.00146579
-0.224031
0.00205932
-0.219307
0.0026694
-0.21476
0.00327568
-0.210216
0.00386503
-0.205606
0.00442992
-0.20092
0.0049669
-0.196181
0.0054754
-0.191423
0.00595677
-0.186688
0.00641351
-0.18201
0.00684864
-0.177423
0.0072654
-0.17295
0.00766689
-0.168609
0.00805596
-0.164411
0.00843509
-0.160363
0.00880637
-0.156468
0.00917148
-0.152726
0.00953181
-0.149134
0.00988848
-0.145691
0.0102425
-0.142392
0.010595
-0.139233
0.0109474
-0.136211
0.0113016
-0.133319
0.0116602
-0.130549
0.0120264
-0.127888
0.0124039
-0.125316
-0.122807
0.0127961
0.000130588
-0.243841
0.000455823
-0.235837
0.000915879
-0.22972
0.00145969
-0.224575
0.00204731
-0.219895
0.00264956
-0.215362
0.0032464
-0.210812
0.0038251
-0.206184
0.00437844
-0.201474
0.00490327
-0.196706
0.00539931
-0.191919
0.00586811
-0.187156
0.00631232
-0.182455
0.0067351
-0.177846
0.00713976
-0.173355
0.00752946
-0.168998
0.00790707
-0.164788
0.00827509
-0.160731
0.0086356
-0.156829
0.0089903
-0.15308
0.00934052
-0.149485
0.00968735
-0.146038
0.0100318
-0.142736
0.0103748
-0.139576
0.0107178
-0.136554
0.0110627
-0.133664
0.0114122
-0.130898
0.0117697
-0.128245
0.0121393
-0.125685
-0.123192
0.0125251
0.000130437
-0.243972
0.00045508
-0.236162
0.000913161
-0.230178
0.00145291
-0.225115
0.00203428
-0.220476
0.00262832
-0.215956
0.00321537
-0.211399
0.00378303
-0.206752
0.00432445
-0.202015
0.00483679
-0.197218
0.00532001
-0.192403
0.00577588
-0.187612
0.00620721
-0.182886
0.00661726
-0.178256
0.00700944
-0.173747
0.00738693
-0.169376
0.00775265
-0.165154
0.00810909
-0.161088
0.00845835
-0.157178
0.0088021
-0.153424
0.00914168
-0.149824
0.00947813
-0.146374
0.00981237
-0.14307
0.0101454
-0.139909
0.0104785
-0.136887
0.0108135
-0.133999
0.0111532
-0.131238
0.0115014
-0.128593
0.0118625
-0.126046
-0.123571
0.0122412
0.00013015
-0.244102
0.000454174
-0.236486
0.00091018
-0.230634
0.00144563
-0.22565
0.00202042
-0.221051
0.00260591
-0.216541
0.00318279
-0.211976
0.00373907
-0.207308
0.00426822
-0.202544
0.00476771
-0.197717
0.00523778
-0.192873
0.00568037
-0.188055
0.00609845
-0.183304
0.00649542
-0.178653
0.0068747
-0.174126
0.00723956
-0.169741
0.00759291
-0.165507
0.00793727
-0.161432
0.00827472
-0.157515
0.00860696
-0.153756
0.00893527
-0.150152
0.00926071
-0.1467
0.00958413
-0.143394
0.00990645
-0.140231
0.0102289
-0.137209
0.0105533
-0.134323
0.0108825
-0.131567
0.0112205
-0.128931
0.0115723
-0.126398
-0.123942
0.0119431
0.000129762
-0.244232
0.000453235
-0.236809
0.00090712
-0.231088
0.00143805
-0.226181
0.00200595
-0.221619
0.00258254
-0.217118
0.00314892
-0.212543
0.00369347
-0.207853
0.00421001
-0.203061
0.00469634
-0.198204
0.00515291
-0.193329
0.0055819
-0.188484
0.0059864
-0.183708
0.0063699
-0.179036
0.0067359
-0.174492
0.00708768
-0.170092
0.00742818
-0.165848
0.00775991
-0.161764
0.00808496
-0.15784
0.00840501
-0.154077
0.00872135
-0.150469
0.00903501
-0.147013
0.00934681
-0.143706
0.00965761
-0.140542
0.00996856
-0.13752
0.0102815
-0.134636
0.0105992
-0.131885
0.0109259
-0.129258
0.0112672
-0.126739
-0.124304
0.0116293
0.000129346
-0.244361
0.000452448
-0.237132
0.000904209
-0.231539
0.00143041
-0.226707
0.00199112
-0.22218
0.00255847
-0.217685
0.00311402
-0.213098
0.00364652
-0.208385
0.00415015
-0.203564
0.004623
-0.198677
0.00506578
-0.193772
0.00548085
-0.188899
0.00587144
-0.184099
0.00624112
-0.179406
0.00659344
-0.174844
0.00693171
-0.170431
0.00725885
-0.166175
0.00757738
-0.162082
0.00788938
-0.158152
0.00819651
-0.154384
0.00850007
-0.150772
0.00880106
-0.147314
0.00910029
-0.144005
0.00939857
-0.140841
0.00969696
-0.137819
0.00999722
-0.134936
0.0103022
-0.13219
0.0106163
-0.129572
0.0109456
-0.127069
-0.124656
0.0112975
0.000129026
-0.24449
0.000452066
-0.237455
0.00090174
-0.231989
0.00142299
-0.227228
0.0019762
-0.222733
0.002534
-0.218243
0.00307839
-0.213643
0.00359853
-0.208906
0.00408895
-0.204055
0.00454803
-0.199136
0.00497675
-0.194201
0.00537762
-0.1893
0.00575401
-0.184475
0.00610956
-0.179762
0.00644785
-0.175183
0.00677218
-0.170755
0.00708547
-0.166488
0.00739021
-0.162387
0.00768846
-0.158451
0.00798187
-0.154677
0.00827174
-0.151062
0.00855904
-0.147601
0.00884457
-0.14429
0.0091291
-0.141125
0.00941364
-0.138103
0.00969984
-0.135222
0.00999054
-0.13248
0.0102903
-0.129872
0.0106059
-0.127384
-0.124996
0.0109459
0.00012903
-0.244619
0.000452463
-0.237779
0.000900084
-0.232437
0.00141615
-0.227744
0.00196152
-0.223278
0.00250943
-0.218791
0.00304234
-0.214176
0.00354983
-0.209413
0.00402676
-0.204532
0.00447183
-0.199581
0.00488624
-0.194615
0.00527269
-0.189686
0.00563463
-0.184837
0.00597578
-0.180103
0.00629972
-0.175507
0.00660973
-0.171065
0.00690871
-0.166787
0.00719909
-0.162677
0.0074829
-0.158734
0.00776175
-0.154956
0.00803691
-0.151337
0.00830935
-0.147874
0.00857985
-0.144561
0.00884916
-0.141394
0.00911822
-0.138372
0.00938863
-0.135493
0.00966318
-0.132755
0.00994659
-0.130155
0.0102462
-0.127684
-0.125321
0.0105717
0.000129741
-0.244749
0.000454195
-0.238103
0.000899731
-0.232882
0.00141028
-0.228255
0.00194743
-0.223816
0.00248508
-0.219329
0.00300619
-0.214697
0.00350073
-0.209908
0.00396394
-0.204995
0.00439478
-0.200012
0.0047947
-0.195015
0.00516654
-0.190058
0.00551387
-0.185185
0.00584042
-0.180429
0.00614977
-0.175816
0.00644517
-0.17136
0.00672944
-0.167072
0.00700495
-0.162953
0.00727365
-0.159003
0.00753709
-0.155219
0.00779647
-0.151597
0.00805274
-0.14813
0.00830665
-0.144815
0.00855891
-0.141647
0.00881044
-0.138624
0.00906278
-0.135745
0.00931868
-0.133011
0.00958291
-0.13042
0.0098633
-0.127964
-0.125629
0.0101711
0.000131826
-0.244881
0.000458042
-0.23843
0.000901247
-0.233325
0.00140578
-0.22876
0.00193425
-0.224344
0.00246126
-0.219856
0.00297024
-0.215206
0.00345157
-0.210389
0.00390082
-0.205444
0.00431728
-0.200428
0.00470257
-0.1954
0.00505972
-0.190415
0.00539234
-0.185517
0.00570419
-0.180741
0.00599883
-0.176111
0.00627943
-0.171641
0.00654872
-0.167341
0.00680897
-0.163213
0.007062
-0.159256
0.00730925
-0.155467
0.00755182
-0.151839
0.00779055
-0.148369
0.00802611
-0.14505
0.00825913
-0.14188
0.00849049
-0.138855
0.00872166
-0.135976
0.00895532
-0.133245
0.00919619
-0.13066
0.00945244
-0.128221
-0.125915
0.00973812
0.000136266
-0.245017
0.000464885
-0.238758
0.000905145
-0.233766
0.00140303
-0.229257
0.00192232
-0.224863
0.00243827
-0.220372
0.00293479
-0.215702
0.00340264
-0.210857
0.00383776
-0.205879
0.00423969
-0.20083
0.00461031
-0.195771
0.00495274
-0.190758
0.00527068
-0.185835
0.00556787
-0.181038
0.00584782
-0.17639
0.0061136
-0.171907
0.00636784
-0.167595
0.00661263
-0.163458
0.00684965
-0.159493
0.00708015
-0.155697
0.00730504
-0.152064
0.00752499
-0.148589
0.00774048
-0.145266
0.00795197
-0.142091
0.00816014
-0.139063
0.00836634
-0.136183
0.0085731
-0.133451
0.00878512
-0.130872
0.0090113
-0.128447
-0.126173
0.00926961
0.000144234
-0.245161
0.000475552
-0.23909
0.000911998
-0.234202
0.0014025
-0.229748
0.00191203
-0.225373
0.00241643
-0.220876
0.00290008
-0.216186
0.00335418
-0.211311
0.003775
-0.2063
0.00416237
-0.201217
0.00451833
-0.196127
0.00484614
-0.191085
0.00514953
-0.186139
0.00543225
-0.181321
0.00569771
-0.176656
0.00594889
-0.172158
0.00618823
-0.167835
0.00641766
-0.163687
0.00663862
-0.159714
0.00685211
-0.155911
0.00705878
-0.152271
0.00725901
-0.148789
0.00745298
-0.14546
0.00764084
-0.142279
0.00782295
-0.139245
0.00800039
-0.13636
0.00817553
-0.133626
0.00835302
-0.13105
0.00854272
-0.128636
-0.126393
0.00876252
0.000157452
-0.245319
0.000491991
-0.239424
0.000923408
-0.234634
0.00140517
-0.23023
0.00190389
-0.225872
0.00239597
-0.221368
0.00286626
-0.216656
0.00330631
-0.211751
0.0037127
-0.206706
0.0040855
-0.20159
0.00442692
-0.196468
0.00474032
-0.191399
0.00502947
-0.186428
0.00529807
-0.18159
0.00554948
-0.176907
0.00578652
-0.172395
0.00601148
-0.168059
0.00622603
-0.163902
0.00643133
-0.159919
0.00662803
-0.156107
0.00681636
-0.152459
0.00699622
-0.148969
0.00716724
-0.145631
0.00732902
-0.142441
0.00748142
-0.139398
0.00762522
-0.136504
0.00776269
-0.133764
0.00789751
-0.131185
0.00803707
-0.128776
-0.126546
0.00819061
0.000182192
-0.245501
0.000520251
-0.239762
0.000942424
-0.235056
0.00141202
-0.230699
0.00189795
-0.226358
0.00237671
-0.221847
0.00283313
-0.217113
0.00325891
-0.212177
0.00365085
-0.207098
0.00400918
-0.201948
0.00433629
-0.196795
0.0046356
-0.191698
0.00491094
-0.186703
0.00516597
-0.181845
0.00540399
-0.177145
0.00562771
-0.172619
0.00583921
-0.168271
0.00603994
-0.164103
0.00623074
-0.16011
0.0064118
-0.156288
0.00658275
-0.15263
0.00674263
-0.149129
0.00688994
-0.145778
0.00702278
-0.142574
0.0071393
-0.139514
0.00723852
-0.136603
0.00732102
-0.133846
0.00738832
-0.131252
0.00744562
-0.128833
-0.126608
0.00750696
0.000239157
-0.24574
0.000566446
-0.240089
0.000968573
-0.235458
0.00142156
-0.231152
0.00189306
-0.226829
0.00235792
-0.222312
0.00280029
-0.217555
0.00321181
-0.212588
0.0035894
-0.207476
0.00393349
-0.202293
0.0042466
-0.197109
0.00453226
-0.191984
0.00479433
-0.186965
0.00503651
-0.182087
0.00526201
-0.177371
0.00547347
-0.17283
0.00567288
-0.16847
0.00586151
-0.164291
0.00603995
-0.160289
0.00620807
-0.156456
0.00636495
-0.152787
0.00650875
-0.149273
0.00663645
-0.145906
0.00674365
-0.142681
0.0068243
-0.139595
0.00687042
-0.136649
0.00687193
-0.133848
0.00681784
-0.131198
0.00671234
-0.128728
-0.126613
0.00671765
0.24895
0.00016574
-0.249116
0.248817
0.000133103
0.248698
0.000119562
0.248585
0.000112816
0.248476
0.000109139
0.248368
0.000107515
0.248261
0.000107249
0.248153
0.000107764
0.248044
0.000108662
0.247935
0.00010972
0.247824
0.000110807
0.247712
0.00011185
0.247599
0.000112816
0.247486
0.000113683
0.247371
0.000114447
0.247256
0.000115102
0.24714
0.000115652
0.247024
0.000116098
0.246908
0.000116433
0.246791
0.000116654
0.246674
0.000116743
0.246558
0.000116673
0.246441
0.00011638
0.246326
0.000115779
0.246211
0.000114661
0.246098
0.000112755
0.245989
0.000108969
0.245887
0.000102669
0.245802
8.44359e-05
6.23052e-05
0.247362
0.000368859
-0.247565
0.247147
0.000347556
0.24693
0.000336621
0.246711
0.000332455
0.246488
0.000331422
0.246263
0.000332373
0.246036
0.000334847
0.245805
0.00033835
0.245571
0.000342442
0.245334
0.000346806
0.245094
0.000351248
0.24485
0.000355639
0.244603
0.000359886
0.244353
0.000363937
0.2441
0.000367752
0.243843
0.000371305
0.243584
0.000374583
0.243323
0.000377575
0.243059
0.000380261
0.242793
0.000382625
0.242525
0.000384626
0.242256
0.000386208
0.241985
0.000387255
0.241713
0.000387593
0.241441
0.000386878
0.241169
0.000384645
0.240898
0.000379581
0.24063
0.000371032
0.240361
0.000353514
0.00033373
0.244744
0.000571487
-0.244946
0.244522
0.000569868
0.244286
0.000571839
0.244041
0.000577778
0.243787
0.000585856
0.243524
0.000595114
0.243253
0.000605249
0.242976
0.000616
0.242691
0.000627076
0.2424
0.000638225
0.242102
0.000649267
0.241797
0.000660073
0.241487
0.000670549
0.24117
0.000680625
0.240847
0.000690253
0.240519
0.000699397
0.240186
0.000708032
0.239847
0.000716142
0.239504
0.0007237
0.239156
0.000730683
0.238803
0.000737045
0.238447
0.000742713
0.238087
0.000747565
0.237723
0.000751416
0.237356
0.000753933
0.236986
0.000754724
0.236612
0.000752912
0.236235
0.000748242
0.23585
0.000738426
0.000726094
0.241013
0.00074905
-0.24119
0.240816
0.000766798
0.240603
0.00078516
0.240375
0.000805104
0.240135
0.000826089
0.239883
0.000847536
0.239619
0.000869197
0.239344
0.000890919
0.239058
0.000912515
0.238763
0.000933805
0.238457
0.000954645
0.238142
0.000974925
0.237818
0.000994565
0.237486
0.0010135
0.237144
0.0010317
0.236794
0.00104911
0.236437
0.00106573
0.236071
0.00108152
0.235699
0.0010965
0.235319
0.00111062
0.234932
0.00112385
0.234538
0.00113614
0.234139
0.00114739
0.233733
0.00115747
0.23332
0.00116613
0.232902
0.00117313
0.232477
0.00117799
0.232045
0.00118059
0.231603
0.0011799
0.00117687
0.236356
0.000884336
-0.236491
0.236202
0.000920908
0.23603
0.000956825
0.235843
0.000992852
0.23564
0.00102899
0.235422
0.00106498
0.235191
0.00110064
0.234946
0.00113584
0.234688
0.00117045
0.234417
0.00120434
0.234135
0.0012374
0.23384
0.00126954
0.233534
0.00130069
0.233217
0.00133079
0.232889
0.00135981
0.23255
0.00138773
0.232201
0.00141453
0.231842
0.00144021
0.231474
0.00146478
0.231097
0.00148821
0.23071
0.00151051
0.230314
0.00153165
0.22991
0.00155158
0.229497
0.00157021
0.229076
0.00158744
0.228646
0.00160314
0.228207
0.00161705
0.227758
0.00162915
0.227299
0.00163901
0.00164721
0.230999
0.000971046
-0.231085
0.230893
0.00102618
0.23077
0.00108008
0.23063
0.00113322
0.230473
0.00118575
0.2303
0.0012376
0.230112
0.00128865
0.229909
0.00133878
0.229692
0.00138792
0.22946
0.00143594
0.229215
0.00148277
0.228956
0.00152832
0.228684
0.00157254
0.2284
0.00161538
0.228103
0.00165682
0.227794
0.00169683
0.227473
0.00173542
0.22714
0.00177259
0.226797
0.00180836
0.226442
0.00184274
0.226077
0.00187577
0.225701
0.00190744
0.225315
0.00193776
0.224918
0.00196674
0.224512
0.00199433
0.224094
0.00202051
0.223666
0.00204522
0.223227
0.00206849
0.222775
0.00209022
0.0021109
0.225181
0.00101105
-0.225221
0.225122
0.00108447
0.225046
0.00115632
0.224952
0.00122687
0.224842
0.00129629
0.224715
0.00136456
0.224572
0.00143163
0.224413
0.0014974
0.224239
0.0015618
0.224051
0.00162474
0.223847
0.00168616
0.22363
0.00174598
0.223398
0.00180415
0.223153
0.00186062
0.222894
0.00191539
0.222623
0.00196844
0.222338
0.00201978
0.222041
0.00206942
0.221732
0.00211741
0.221411
0.00216378
0.221078
0.00220859
0.220734
0.00225189
0.220378
0.00229375
0.220011
0.00233421
0.219631
0.00237334
0.219241
0.0024112
0.218838
0.00244783
0.218423
0.00248337
0.217996
0.00251785
0.00255171
0.219122
0.00101076
-0.219121
0.219104
0.001102
0.219069
0.00119145
0.219017
0.00127923
0.218947
0.00136549
0.218862
0.00145023
0.21876
0.00153342
0.218642
0.00161498
0.218509
0.00169485
0.218361
0.00177295
0.218198
0.00184923
0.21802
0.00192362
0.217828
0.00199606
0.217623
0.00206653
0.217403
0.00213501
0.21717
0.0022015
0.216924
0.00226601
0.216665
0.00232858
0.216393
0.00238925
0.216108
0.00244811
0.215812
0.00250523
0.215503
0.00256071
0.215182
0.00261466
0.214849
0.00266721
0.214504
0.00271848
0.214146
0.00276863
0.213776
0.00281778
0.213394
0.00286615
0.212998
0.00291383
0.00296125
0.213
0.000978427
-0.212968
0.213015
0.00108686
0.213013
0.00119333
0.212995
0.00129788
0.21296
0.0014006
0.212908
0.00150151
0.212841
0.00160056
0.212758
0.00169771
0.21266
0.00179288
0.212547
0.00188601
0.21242
0.00197704
0.212277
0.00206591
0.212121
0.00215256
0.21195
0.00223698
0.211766
0.00231915
0.211569
0.00239907
0.211358
0.00247676
0.211134
0.00255228
0.210898
0.00262569
0.210649
0.00269709
0.210387
0.00276659
0.210114
0.00283434
0.209828
0.0029005
0.20953
0.00296526
0.20922
0.00302882
0.208897
0.0030914
0.208561
0.00315321
0.208213
0.00321453
0.207851
0.00327551
0.00333657
0.206949
0.000922442
-0.206893
0.206989
0.00104736
0.207012
0.00117017
0.207019
0.00129086
0.20701
0.00140949
0.206985
0.00152606
0.206945
0.00164052
0.20689
0.00175283
0.20682
0.0018629
0.206736
0.00197068
0.206637
0.0020761
0.206523
0.0021791
0.206396
0.00227965
0.206256
0.00237771
0.206101
0.00247326
0.205934
0.00256633
0.205754
0.00265692
0.205561
0.00274512
0.205356
0.00283099
0.205138
0.00291467
0.204909
0.0029963
0.204667
0.00307607
0.204413
0.00315419
0.204147
0.00323092
0.20387
0.00330652
0.20358
0.00338131
0.203278
0.00345556
0.202962
0.00352962
0.202634
0.00360371
0.00367823
0.20106
0.000850421
-0.200988
0.201116
0.000991098
0.201157
0.00112954
0.201182
0.0012657
0.201192
0.00139961
0.201187
0.00153123
0.201167
0.00166053
0.201132
0.00178744
0.201083
0.00191189
0.20102
0.0020338
0.200943
0.00215312
0.200852
0.00226979
0.200748
0.00238375
0.200631
0.00249497
0.200501
0.00260345
0.200358
0.00270919
0.200203
0.00281223
0.200035
0.00291263
0.199856
0.0030105
0.199664
0.00310598
0.199461
0.00319925
0.199247
0.00329054
0.199021
0.00338012
0.198784
0.00346831
0.198535
0.00355545
0.198274
0.00364194
0.198002
0.00372814
0.197717
0.00381448
0.197419
0.00390125
0.00398885
0.195391
0.000768762
-0.195309
0.195457
0.000924505
0.195509
0.0010779
0.195546
0.00122886
0.195568
0.00137739
0.195576
0.00152346
0.195569
0.00166699
0.195549
0.00180792
0.195515
0.00194617
0.195467
0.00208167
0.195405
0.00221433
0.195331
0.0023441
0.195244
0.00247093
0.195144
0.00259478
0.195032
0.00271563
0.194908
0.00283349
0.194771
0.0029484
0.194624
0.00306044
0.194464
0.00316971
0.194294
0.00327637
0.194113
0.00338065
0.19392
0.00348281
0.193717
0.00358318
0.193503
0.00368214
0.193279
0.00378013
0.193043
0.00387762
0.192796
0.00397509
0.192538
0.00407305
0.192267
0.0041719
0.00427206
0.189972
0.000682511
-0.189885
0.190043
0.000852693
0.190101
0.00102041
0.190144
0.00118556
0.190173
0.00134811
0.190189
0.00150802
0.190191
0.00166521
0.190179
0.0018196
0.190154
0.00197108
0.190116
0.0021196
0.190065
0.00226505
0.190002
0.00240738
0.189927
0.00254652
0.189839
0.00268243
0.189739
0.00281508
0.189628
0.00294448
0.189506
0.00307066
0.189373
0.0031937
0.189229
0.00331373
0.189074
0.00343091
0.18891
0.00354549
0.188735
0.00365777
0.18855
0.00376815
0.188355
0.00387707
0.18815
0.00398507
0.187935
0.00409272
0.187709
0.00420064
0.187473
0.00430945
0.187225
0.00441967
0.00453177
0.184814
0.000595446
-0.184727
0.184888
0.000779517
0.184947
0.000961003
0.184993
0.00113979
0.185025
0.00131583
0.185044
0.00148905
0.18505
0.00165936
0.185043
0.00182667
0.185023
0.00199088
0.184991
0.0021519
0.184946
0.00230962
0.18489
0.00246398
0.184821
0.00261491
0.184741
0.00276233
0.18465
0.00290623
0.184548
0.0030466
0.184435
0.00318347
0.184312
0.0033169
0.184179
0.00344702
0.184036
0.00357402
0.183883
0.00369816
0.183721
0.00381978
0.18355
0.00393933
0.183369
0.00405733
0.18318
0.00417443
0.182982
0.00429131
0.182773
0.00440876
0.182555
0.00452752
0.182327
0.0046483
0.00477166
0.179918
0.000510237
-0.179833
0.17999
0.000707728
0.180048
0.000902514
0.180094
0.00109447
0.180126
0.00128352
0.180145
0.00146959
0.180152
0.00165257
0.180147
0.00183234
0.180129
0.00200881
0.180099
0.00218187
0.180057
0.0023514
0.180004
0.00251732
0.179939
0.00267955
0.179863
0.002838
0.179777
0.00299265
0.17968
0.00314346
0.179573
0.00329045
0.179456
0.00343369
0.17933
0.00357328
0.179195
0.00370943
0.17905
0.0038424
0.178898
0.00397257
0.178736
0.00410043
0.178567
0.00422659
0.17839
0.0043518
0.178204
0.00447691
0.17801
0.00460286
0.177807
0.00473062
0.177594
0.00486109
0.00499499
0.175273
0.000428649
-0.175191
0.175341
0.000639172
0.175397
0.000846866
0.17544
0.00105159
0.17547
0.00125327
0.175488
0.00145179
0.175493
0.00164704
0.175487
0.00183889
0.175468
0.00202723
0.175438
0.00221192
0.175397
0.00239287
0.175344
0.00256995
0.175281
0.00274306
0.175207
0.00291212
0.175122
0.00307706
0.175028
0.00323785
0.174924
0.00339447
0.174811
0.00354698
0.174688
0.00369547
0.174558
0.00384013
0.174419
0.00398123
0.174272
0.00411917
0.174118
0.00425448
0.173957
0.00438786
0.173789
0.00452016
0.173613
0.00465242
0.17343
0.00478578
0.173239
0.00492147
0.17304
0.00506069
0.00520438
0.170864
0.000351751
-0.170787
0.170928
0.000574987
0.17098
0.000795268
0.171019
0.00101244
0.171046
0.00122642
0.171061
0.00143707
0.171063
0.00164427
0.171054
0.00184787
0.171034
0.00204775
0.171002
0.00224377
0.170959
0.00243579
0.170905
0.00262368
0.170841
0.00280734
0.170767
0.00298664
0.170682
0.00316151
0.170588
0.00333187
0.170485
0.0034977
0.170373
0.00365901
0.170253
0.00381588
0.170124
0.00396847
0.169988
0.00411705
0.169846
0.00426202
0.169696
0.00440394
0.16954
0.00454357
0.169379
0.0046819
0.169211
0.00482014
0.169037
0.00495973
0.168856
0.00510219
0.168668
0.00524912
0.00540179
0.166676
0.0002801
-0.166604
0.166735
0.000515793
0.166782
0.000748404
0.166816
0.000977771
0.166839
0.00120378
0.16685
0.0014263
0.166849
0.00164519
0.166837
0.00186028
0.166813
0.00207144
0.166778
0.0022785
0.166733