/*--------------------------------*- C++ -*----------------------------------*\
| =========                 |                                                 |
| \\      /  F ield         | OpenFOAM: The Open Source CFD Toolbox           |
|  \\    /   O peration     | Version:  v1912                                 |
|   \\  /    A nd           | Website:  www.openfoam.com                      |
|    \\/     M anipulation  |                                                 |
\*---------------------------------------------------------------------------*/
FoamFile
{
    version     2.0;
    format      ascii;
    class       volScalarField;
    location    "11";
    object      p;
}
// * * * * * * * * * * * * * * * * * * * * * * * * * * * * * * * * * * * * * //

dimensions      [0 2 -2 0 0 0 0];


internalField   nonuniform List<scalar> 
19200
(
-154.574
-137.318
-128.266
-118.528
-109.792
-101.824
-94.4917
-87.7478
-81.546
-75.8414
-70.5932
-65.7637
-61.3174
-57.2215
-53.4455
-49.9614
-46.7438
-43.7691
-41.0162
-38.4658
-36.1006
-33.9049
-31.8643
-29.9659
-28.1983
-26.5511
-25.0151
-23.5812
-22.2416
-20.9966
-155.103
-137.881
-128.817
-119.055
-110.295
-102.301
-94.9444
-88.177
-81.9538
-76.23
-70.9645
-66.1194
-61.6592
-57.5508
-53.7635
-50.2692
-47.0421
-44.0588
-41.2979
-38.7402
-36.3682
-34.166
-32.1194
-30.2154
-28.4425
-26.7902
-25.2493
-23.8106
-22.466
-21.2182
-155.65
-138.437
-129.36
-119.577
-110.792
-102.774
-95.3924
-88.6021
-82.3579
-76.615
-71.3325
-66.4722
-61.9983
-57.8776
-54.0791
-50.5747
-47.3383
-44.3465
-41.5778
-39.0128
-36.6339
-34.4254
-32.3728
-30.4632
-28.6849
-27.0276
-25.4819
-24.0383
-22.6886
-21.4381
-156.208
-138.992
-129.9
-120.095
-111.285
-103.242
-95.8359
-89.0229
-82.758
-76.9964
-71.6971
-66.8217
-62.3344
-58.2015
-54.3921
-50.8777
-47.6322
-44.6319
-41.8554
-39.2832
-36.8976
-34.6828
-32.6243
-30.7091
-28.9255
-27.2631
-25.7125
-24.264
-22.9091
-21.6559
-156.771
-139.546
-130.435
-120.609
-111.774
-103.705
-96.2749
-89.4394
-83.1539
-77.3739
-72.058
-67.1679
-62.6672
-58.5224
-54.7022
-51.1779
-47.9234
-44.9149
-42.1307
-39.5513
-37.1591
-34.938
-32.8736
-30.9528
-29.1639
-27.4964
-25.9409
-24.4875
-23.1275
-21.8714
-157.335
-140.098
-130.968
-121.119
-112.258
-104.163
-96.7093
-89.8515
-83.5456
-77.7473
-72.4151
-67.5104
-62.9967
-58.8401
-55.0092
-51.4753
-48.2119
-45.1951
-42.4034
-39.8169
-37.4181
-35.1908
-33.1206
-31.1943
-29.4001
-27.7275
-26.1671
-24.7086
-23.3434
-22.0847
-157.899
-140.647
-131.497
-121.625
-112.737
-104.617
-97.1389
-90.2588
-83.9328
-78.1164
-72.7681
-67.849
-63.3224
-59.1542
-55.3129
-51.7694
-48.4973
-45.4725
-42.6732
-40.0798
-37.6745
-35.4411
-33.3651
-31.4333
-29.6338
-27.9562
-26.3909
-24.9273
-23.5569
-22.2955
-158.459
-141.193
-132.022
-122.125
-113.212
-105.066
-97.5635
-90.6612
-84.3152
-78.4809
-73.1167
-68.1834
-63.6442
-59.4647
-55.613
-52.0602
-48.7795
-45.7467
-42.9401
-40.3399
-37.9281
-35.6887
-33.607
-31.6697
-29.8651
-28.1825
-26.6122
-25.1436
-23.7679
-22.5039
-159.016
-141.736
-132.542
-122.621
-113.681
-105.509
-97.9828
-91.0584
-84.6926
-78.8407
-73.4608
-68.5135
-63.9618
-59.7711
-55.9094
-52.3473
-49.0582
-46.0177
-43.2039
-40.5969
-38.1788
-35.9335
-33.8461
-31.9036
-30.0938
-28.4062
-26.8312
-25.3575
-23.9766
-22.7101
-159.569
-142.273
-133.057
-123.111
-114.144
-105.947
-98.3965
-91.4502
-85.0648
-79.1954
-73.8
-68.839
-64.275
-60.0733
-56.2017
-52.6306
-49.3332
-46.2851
-43.4643
-40.8507
-38.4265
-36.1753
-34.0825
-32.1347
-30.3199
-28.6275
-27.0477
-25.569
-24.183
-22.9141
-160.116
-142.805
-133.567
-123.595
-114.602
-106.379
-98.8043
-91.8363
-85.4313
-79.5447
-74.134
-69.1595
-64.5835
-60.3711
-56.4897
-52.9098
-49.6044
-46.5488
-43.7211
-41.1011
-38.6709
-36.414
-34.3159
-32.363
-30.5434
-28.8463
-27.2618
-25.7783
-24.3872
-23.1161
-160.657
-143.331
-134.071
-124.073
-115.053
-106.804
-99.2059
-92.2163
-85.792
-79.8883
-74.4626
-69.4748
-64.887
-60.664
-56.7732
-53.1847
-49.8714
-46.8086
-43.9741
-41.3479
-38.9119
-36.6496
-34.5463
-32.5885
-30.7642
-29.0626
-27.4736
-25.9854
-24.5894
-23.3162
-161.192
-143.85
-134.568
-124.544
-115.498
-107.223
-99.601
-92.5899
-86.1466
-80.226
-74.7855
-69.7846
-65.1853
-60.9519
-57.0518
-53.4549
-50.1339
-47.0642
-44.2232
-41.591
-39.1493
-36.8818
-34.7735
-32.8111
-30.9823
-29.2763
-27.6831
-26.1904
-24.7896
-23.5145
-161.72
-144.363
-135.058
-125.009
-115.935
-107.635
-99.9892
-92.9567
-86.4946
-80.5574
-75.1023
-70.0886
-65.4779
-61.2345
-57.3253
-53.7202
-50.3918
-47.3152
-44.468
-41.83
-39.383
-37.1105
-34.9975
-33.0306
-31.1976
-29.4876
-27.8904
-26.3934
-24.988
-23.7114
-162.241
-144.868
-135.541
-125.465
-116.365
-108.04
-100.37
-93.3166
-86.8358
-80.8822
-75.4128
-70.3864
-65.7646
-61.5113
-57.5933
-53.9803
-50.6447
-47.5615
-44.7083
-42.0648
-39.6126
-37.3353
-35.218
-33.2469
-31.41
-29.6963
-28.0954
-26.5945
-25.1849
-23.907
-162.754
-145.366
-136.016
-125.914
-116.788
-108.436
-100.744
-93.6691
-87.1698
-81.2001
-75.7164
-70.6777
-66.045
-61.782
-57.8554
-54.2347
-50.8921
-47.8026
-44.9437
-42.2948
-39.8379
-37.5561
-35.4347
-33.4598
-31.6193
-29.9023
-28.2981
-26.7936
-25.3803
-24.1015
-163.26
-145.855
-136.483
-126.355
-117.202
-108.825
-101.109
-94.0139
-87.4963
-81.5106
-76.013
-70.9621
-66.3187
-62.0463
-58.1113
-54.4831
-51.1337
-48.0382
-45.1737
-42.5199
-40.0583
-37.7725
-35.6472
-33.669
-31.8253
-30.1053
-28.4984
-26.9908
-25.574
-24.2946
-163.757
-146.337
-136.942
-126.787
-117.608
-109.206
-101.466
-94.3506
-87.815
-81.8135
-76.3022
-71.2393
-66.5853
-62.3037
-58.3605
-54.7249
-51.3691
-48.2676
-45.3979
-42.7393
-40.2736
-37.9839
-35.8553
-33.874
-32.0276
-30.3051
-28.6959
-27.1857
-25.7661
-24.4866
-164.247
-146.811
-137.393
-127.211
-118.005
-109.578
-101.815
-94.6791
-88.1254
-82.1083
-76.5835
-71.5088
-66.8445
-62.5538
-58.6025
-54.9598
-51.5976
-48.4905
-45.6157
-42.9527
-40.4829
-38.1898
-36.0582
-34.0743
-32.2257
-30.5013
-28.8904
-27.3784
-25.9565
-24.6773
-164.728
-147.276
-137.835
-127.626
-118.393
-109.941
-102.156
-94.9988
-88.4274
-82.3949
-76.8566
-71.7702
-67.0958
-62.7961
-58.8369
-55.1872
-51.8188
-48.7062
-45.8265
-43.1592
-40.6858
-38.3895
-36.2552
-34.2691
-32.4188
-30.6931
-29.0812
-27.5681
-26.1448
-24.8669
-165.203
-147.733
-138.268
-128.032
-118.773
-110.295
-102.487
-95.3097
-88.7206
-82.6727
-77.1212
-72.0233
-67.3387
-63.0301
-59.0632
-55.4066
-52.032
-48.914
-46.0296
-43.3581
-40.8812
-38.582
-36.4454
-34.4576
-32.606
-30.8797
-29.2675
-27.7541
-26.3303
-25.0548
-165.669
-148.182
-138.693
-128.429
-119.143
-110.639
-102.808
-95.6112
-89.0047
-82.9416
-77.3769
-72.2675
-67.573
-63.2556
-59.2808
-55.6173
-52.2366
-49.1132
-46.224
-43.5486
-41.0683
-38.7663
-36.6276
-34.6384
-32.7861
-31.0596
-29.4478
-27.9351
-26.5117
-25.239
-166.13
-148.623
-139.11
-128.816
-119.503
-110.974
-103.12
-95.9033
-89.2793
-83.2012
-77.6234
-72.5027
-67.7982
-63.472
-59.4894
-55.8189
-52.432
-49.3031
-46.4091
-43.7296
-41.2458
-38.9412
-36.8006
-34.8102
-32.9575
-31.2315
-29.6209
-28.1098
-26.6879
-25.4189
-166.585
-149.055
-139.517
-129.195
-119.854
-111.299
-103.423
-96.1857
-89.5444
-83.4513
-77.8606
-72.7285
-68.014
-63.6789
-59.6884
-56.0108
-52.6175
-49.4829
-46.584
-43.9
-41.4126
-39.1051
-36.9624
-34.9709
-33.1181
-31.393
-29.7843
-28.2759
-26.8569
-25.593
-167.035
-149.479
-139.916
-129.563
-120.194
-111.614
-103.715
-96.4581
-89.7997
-83.6918
-78.0882
-72.9449
-68.2204
-63.8764
-59.8778
-56.1928
-52.7929
-49.6522
-46.7478
-44.0591
-41.5676
-39.2567
-37.1115
-35.1185
-33.2653
-31.541
-29.9345
-28.4294
-27.0145
-25.7576
-167.481
-149.894
-140.306
-129.923
-120.524
-111.919
-103.997
-96.7203
-90.0449
-83.9224
-78.3061
-73.1516
-68.4171
-64.0641
-60.0572
-56.3646
-52.9576
-49.8104
-46.9
-44.2058
-41.7095
-39.3946
-37.2462
-35.2511
-33.3969
-31.6729
-30.0684
-28.567
-27.1573
-25.9073
-167.932
-150.303
-140.686
-130.271
-120.843
-112.211
-104.267
-96.9713
-90.2795
-84.1427
-78.514
-73.3485
-68.604
-64.2419
-60.2266
-56.5261
-53.1116
-49.9572
-47.0401
-44.3395
-41.8373
-39.5172
-37.3645
-35.3662
-33.5105
-31.787
-30.1855
-28.6897
-27.2874
-26.0447
-168.409
-150.709
-141.055
-130.608
-121.149
-112.491
-104.525
-97.2108
-90.503
-84.3525
-78.7117
-73.5354
-68.7812
-64.41
-60.3861
-56.6774
-53.2549
-50.0927
-47.1678
-44.4596
-41.9499
-39.6226
-37.4633
-35.4593
-33.5998
-31.8757
-30.2778
-28.7905
-27.4013
-26.1812
-168.918
-151.108
-141.405
-130.932
-121.444
-112.76
-104.772
-97.4403
-90.7171
-84.5532
-78.9006
-73.7137
-68.9498
-64.5694
-60.5369
-56.8197
-53.3887
-50.218
-47.2844
-44.5671
-42.0479
-39.7104
-37.5404
-35.5252
-33.6546
-31.9206
-30.3152
-28.8247
-27.4472
-26.2789
-169.369
-151.479
-141.736
-131.24
-121.729
-113.021
-105.013
-97.664
-90.9258
-84.7486
-79.0842
-73.8866
-69.1128
-64.7232
-60.6817
-56.9557
-53.5159
-50.3362
-47.3931
-44.6657
-42.1354
-39.7855
-37.6009
-35.5684
-33.6765
-31.9154
-30.2733
-28.7384
-27.3331
-26.1731
-174.477
-174.446
-174.371
-174.305
-174.246
-174.181
-174.105
-174.018
-173.919
-173.809
-173.688
-173.554
-173.409
-173.253
-173.084
-172.905
-172.715
-172.514
-172.304
-172.083
-171.853
-171.614
-171.367
-171.113
-170.852
-170.587
-170.321
-170.06
-169.814
-169.592
-156.294
-156.315
-156.309
-156.288
-156.257
-156.213
-156.156
-156.085
-156.002
-155.907
-155.799
-155.679
-155.547
-155.404
-155.249
-155.083
-154.906
-154.719
-154.521
-154.314
-154.097
-153.871
-153.637
-153.395
-153.145
-152.89
-152.629
-152.362
-152.088
-151.797
-146.118
-146.158
-146.18
-146.18
-146.165
-146.135
-146.093
-146.037
-145.969
-145.888
-145.795
-145.691
-145.574
-145.446
-145.307
-145.158
-144.997
-144.826
-144.645
-144.455
-144.255
-144.046
-143.828
-143.602
-143.368
-143.126
-142.876
-142.616
-142.345
-142.054
-135.104
-135.154
-135.185
-135.201
-135.202
-135.189
-135.163
-135.124
-135.073
-135.009
-134.933
-134.846
-134.746
-134.636
-134.514
-134.382
-134.24
-134.087
-133.924
-133.752
-133.571
-133.38
-133.18
-132.971
-132.754
-132.528
-132.292
-132.046
-131.79
-131.522
-125.185
-125.238
-125.278
-125.304
-125.316
-125.315
-125.299
-125.272
-125.232
-125.18
-125.116
-125.041
-124.955
-124.858
-124.75
-124.633
-124.505
-124.367
-124.22
-124.064
-123.899
-123.725
-123.542
-123.35
-123.15
-122.94
-122.721
-122.493
-122.253
-122
-116.12
-116.178
-116.225
-116.258
-116.277
-116.283
-116.275
-116.256
-116.224
-116.181
-116.127
-116.062
-115.987
-115.901
-115.805
-115.699
-115.584
-115.46
-115.326
-115.184
-115.033
-114.874
-114.706
-114.529
-114.344
-114.15
-113.947
-113.734
-113.511
-113.274
-107.833
-107.892
-107.941
-107.976
-107.998
-108.008
-108.005
-107.99
-107.964
-107.927
-107.88
-107.822
-107.754
-107.677
-107.589
-107.493
-107.388
-107.273
-107.151
-107.02
-106.88
-106.733
-106.578
-106.414
-106.243
-106.063
-105.874
-105.676
-105.467
-105.247
-100.274
-100.331
-100.378
-100.414
-100.436
-100.447
-100.446
-100.434
-100.411
-100.378
-100.335
-100.281
-100.219
-100.147
-100.066
-99.976
-99.8778
-99.7714
-99.657
-99.5347
-99.4048
-99.2673
-99.1223
-98.9698
-98.8096
-98.6415
-98.4652
-98.2801
-98.0858
-97.8813
-93.3797
-93.4336
-93.4785
-93.5122
-93.5338
-93.544
-93.5432
-93.5319
-93.5105
-93.4791
-93.438
-93.3876
-93.3281
-93.2598
-93.1831
-93.0981
-93.0051
-92.9044
-92.7962
-92.6808
-92.5582
-92.4286
-92.2921
-92.1486
-91.998
-91.8402
-91.6748
-91.5015
-91.3196
-91.1285
-87.0872
-87.1373
-87.1789
-87.2098
-87.2293
-87.238
-87.2363
-87.2246
-87.2032
-87.1722
-87.1322
-87.0832
-87.0255
-86.9596
-86.8856
-86.8039
-86.7146
-86.6181
-86.5146
-86.4044
-86.2876
-86.1644
-86.0347
-85.8988
-85.7564
-85.6075
-85.4516
-85.2886
-85.1177
-84.9385
-81.3364
-81.3824
-81.4201
-81.4478
-81.4647
-81.4712
-81.4679
-81.455
-81.4328
-81.4016
-81.3616
-81.3131
-81.2565
-81.1918
-81.1196
-81.04
-80.9534
-80.86
-80.7601
-80.6539
-80.5416
-80.4235
-80.2997
-80.1701
-80.0347
-79.8935
-79.7461
-79.5921
-79.4311
-79.2626
-76.072
-76.114
-76.1478
-76.172
-76.186
-76.1901
-76.1848
-76.1703
-76.147
-76.1149
-76.0745
-76.026
-75.9696
-75.9056
-75.8345
-75.7563
-75.6715
-75.5804
-75.4832
-75.3802
-75.2716
-75.1578
-75.0387
-74.9146
-74.7854
-74.6509
-74.5111
-74.3654
-74.2134
-74.0545
-71.2442
-71.2824
-71.3125
-71.3332
-71.3442
-71.3458
-71.3384
-71.3222
-71.2974
-71.2643
-71.2231
-71.1742
-71.1177
-71.0541
-70.9835
-70.9063
-70.8228
-70.7333
-70.6382
-70.5377
-70.4322
-70.3219
-70.207
-70.0876
-69.9639
-69.8356
-69.7026
-69.5646
-69.4209
-69.271
-66.8087
-66.8433
-66.8699
-66.8873
-66.8955
-66.8946
-66.8851
-66.867
-66.8408
-66.8065
-66.7645
-66.7149
-66.6582
-66.5945
-66.5242
-66.4476
-66.3651
-66.2769
-66.1834
-66.085
-65.982
-65.8747
-65.7634
-65.6483
-65.5294
-65.4068
-65.2802
-65.1494
-65.0136
-64.8722
-62.7264
-62.7576
-62.7809
-62.7953
-62.8008
-62.7975
-62.7859
-62.7662
-62.7385
-62.703
-62.66
-62.6098
-62.5527
-62.4888
-62.4186
-62.3424
-62.2605
-62.1733
-62.0811
-61.9844
-61.8835
-61.7788
-61.6707
-61.5593
-61.445
-61.3276
-61.2071
-61.0831
-60.9549
-60.8218
-58.9628
-58.9905
-59.0109
-59.0226
-59.0255
-59.0201
-59.0066
-58.9852
-58.9561
-58.9194
-58.8756
-58.8247
-58.767
-58.703
-58.6328
-58.5568
-58.4753
-58.3889
-58.2977
-58.2024
-58.1033
-58.0008
-57.8954
-57.7875
-57.6772
-57.5648
-57.45
-57.3327
-57.2119
-57.087
-55.4872
-55.512
-55.5296
-55.5387
-55.5393
-55.5319
-55.5166
-55.4936
-55.4632
-55.4255
-55.3807
-55.3292
-55.2711
-55.2067
-55.1364
-55.0605
-54.9794
-54.8935
-54.8032
-54.7089
-54.6113
-54.5107
-54.4077
-54.3028
-54.1963
-54.0884
-53.9792
-53.8684
-53.7551
-53.6384
-52.273
-52.295
-52.3099
-52.3166
-52.3151
-52.3058
-52.2889
-52.2646
-52.2329
-52.1942
-52.1486
-52.0964
-52.0379
-51.9732
-51.9028
-51.8269
-51.746
-51.6605
-51.5707
-51.4773
-51.3808
-51.2818
-51.1809
-51.0786
-50.9755
-50.872
-50.7681
-50.6637
-50.5579
-50.4496
-49.2962
-49.3157
-49.3281
-49.3326
-49.3292
-49.3182
-49.2998
-49.2742
-49.2415
-49.2018
-49.1555
-49.1027
-49.0437
-48.9787
-48.9081
-48.8322
-48.7514
-48.6661
-48.5767
-48.484
-48.3883
-48.2905
-48.1912
-48.0912
-47.9911
-47.8915
-47.7928
-47.6947
-47.5965
-47.497
-46.5355
-46.5529
-46.563
-46.5655
-46.5604
-46.5479
-46.5281
-46.5013
-46.4676
-46.4271
-46.3801
-46.3267
-46.2673
-46.202
-46.1312
-46.0552
-45.9744
-45.8892
-45.8001
-45.7076
-45.6126
-45.5156
-45.4175
-45.3193
-45.2218
-45.1258
-45.0319
-44.9401
-44.8498
-44.7594
-43.9723
-43.9876
-43.9958
-43.9965
-43.9898
-43.9759
-43.9549
-43.9271
-43.8924
-43.8512
-43.8036
-43.7497
-43.6899
-43.6243
-43.5533
-43.4771
-43.3962
-43.3109
-43.2219
-43.1296
-43.0348
-42.9383
-42.841
-42.7441
-42.6486
-42.5556
-42.4662
-42.3806
-42.2985
-42.218
-41.5907
-41.6034
-41.6097
-41.6089
-41.6007
-41.5855
-41.5635
-41.5346
-41.4992
-41.4573
-41.4091
-41.3548
-41.2945
-41.2287
-41.1574
-41.0811
-41
-40.9146
-40.8255
-40.7331
-40.6382
-40.5418
-40.4448
-40.3486
-40.2545
-40.1639
-40.0785
-39.9989
-39.9252
-39.8555
-39.3742
-39.3852
-39.3898
-39.3875
-39.3781
-39.3617
-39.3386
-39.3089
-39.2728
-39.2302
-39.1815
-39.1268
-39.0663
-39.0001
-38.9286
-38.8521
-38.7708
-38.6852
-38.5957
-38.503
-38.4078
-38.3111
-38.2139
-38.1176
-38.0241
-37.9352
-37.8531
-37.779
-37.7143
-37.6562
-37.3101
-37.3195
-37.3226
-37.3189
-37.3083
-37.2909
-37.2669
-37.2365
-37.1996
-37.1566
-37.1074
-37.0523
-36.9915
-36.9251
-36.8534
-36.7766
-36.695
-36.6091
-36.5192
-36.426
-36.3302
-36.2327
-36.1347
-36.0377
-35.944
-35.8556
-35.7758
-35.7066
-35.6511
-35.606
-35.3863
-35.3942
-35.396
-35.391
-35.3793
-35.3609
-35.3361
-35.305
-35.2676
-35.2241
-35.1745
-35.1191
-35.058
-34.9914
-34.9194
-34.8424
-34.7605
-34.6742
-34.5838
-34.4899
-34.3932
-34.2945
-34.1952
-34.0968
-34.0016
-33.9125
-33.8337
-33.7682
-33.7222
-33.6915
-33.5918
-33.5984
-33.5988
-33.5926
-33.5799
-33.5607
-33.5351
-33.5034
-33.4654
-33.4215
-33.3716
-33.3159
-33.2545
-33.1877
-33.1155
-33.0382
-32.956
-32.8692
-32.7782
-32.6834
-32.5855
-32.4853
-32.384
-32.2832
-32.1855
-32.0939
-32.0142
-31.9503
-31.9134
-31.8984
-31.9168
-31.922
-31.9212
-31.914
-31.9003
-31.8802
-31.8539
-31.8215
-31.783
-31.7386
-31.6883
-31.6323
-31.5706
-31.5034
-31.4309
-31.3532
-31.2705
-31.1831
-31.0913
-30.9954
-30.896
-30.7938
-30.6899
-30.5857
-30.4838
-30.3877
-30.3042
-30.2386
-30.2089
-30.2085
-30.3523
-30.3564
-30.3546
-30.3466
-30.3321
-30.3115
-30.2847
-30.2518
-30.213
-30.1683
-30.1177
-30.0615
-29.9996
-29.9322
-29.8594
-29.7814
-29.6982
-29.6102
-29.5175
-29.4204
-29.3193
-29.2148
-29.1077
-28.9992
-28.8918
-28.7887
-28.6977
-28.6261
-28.6005
-28.6097
-28.8886
-28.8925
-28.8907
-28.8827
-28.8684
-28.848
-28.8216
-28.7892
-28.751
-28.7069
-28.6571
-28.6016
-28.5405
-28.474
-28.402
-28.3248
-28.2424
-28.155
-28.0627
-27.9657
-27.8643
-27.7588
-27.6498
-27.5383
-27.4257
-27.3151
-27.2135
-27.1315
-27.1066
-27.1314
-27.5201
-27.5219
-27.5184
-27.5089
-27.4933
-27.4717
-27.4445
-27.4116
-27.373
-27.3289
-27.2793
-27.2242
-27.1638
-27.098
-27.0271
-26.951
-26.8699
-26.7838
-26.6929
-26.5972
-26.4969
-26.3922
-26.2833
-26.1707
-26.0549
-25.9381
-25.8233
-25.7233
-25.6759
-25.7539
-165.899
-166.343
-166.722
-167.129
-167.561
-167.995
-168.421
-168.838
-169.244
-169.638
-170.02
-170.387
-170.74
-171.078
-171.399
-171.705
-171.994
-172.267
-172.522
-172.76
-172.981
-173.186
-173.374
-173.547
-173.705
-173.849
-173.982
-174.108
-174.232
-174.36
-147.526
-148.02
-148.482
-148.94
-149.396
-149.843
-150.279
-150.701
-151.11
-151.507
-151.89
-152.258
-152.612
-152.951
-153.274
-153.582
-153.874
-154.15
-154.408
-154.651
-154.876
-155.086
-155.282
-155.462
-155.627
-155.777
-155.914
-156.036
-156.144
-156.232
-137.356
-137.87
-138.351
-138.816
-139.27
-139.714
-140.146
-140.566
-140.973
-141.367
-141.748
-142.115
-142.467
-142.806
-143.131
-143.441
-143.735
-144.012
-144.272
-144.513
-144.737
-144.944
-145.137
-145.315
-145.48
-145.63
-145.765
-145.885
-145.987
-146.066
-126.319
-126.812
-127.299
-127.767
-128.219
-128.656
-129.082
-129.494
-129.893
-130.279
-130.65
-131.008
-131.351
-131.679
-131.994
-132.298
-132.59
-132.87
-133.134
-133.382
-133.616
-133.835
-134.038
-134.225
-134.396
-134.552
-134.693
-134.818
-134.928
-135.024
-116.64
-117.124
-117.6
-118.058
-118.499
-118.927
-119.342
-119.745
-120.135
-120.513
-120.878
-121.23
-121.569
-121.896
-122.208
-122.504
-122.783
-123.046
-123.295
-123.532
-123.756
-123.966
-124.161
-124.341
-124.506
-124.657
-124.794
-124.916
-125.024
-125.115
-107.883
-108.343
-108.795
-109.235
-109.66
-110.072
-110.472
-110.86
-111.236
-111.599
-111.95
-112.288
-112.613
-112.925
-113.223
-113.505
-113.774
-114.03
-114.273
-114.503
-114.72
-114.926
-115.116
-115.293
-115.455
-115.603
-115.737
-115.856
-115.961
-116.05
-99.9369
-100.375
-100.807
-101.228
-101.636
-102.031
-102.415
-102.787
-103.147
-103.495
-103.831
-104.154
-104.465
-104.763
-105.047
-105.319
-105.578
-105.825
-106.059
-106.281
-106.489
-106.682
-106.863
-107.033
-107.19
-107.333
-107.461
-107.576
-107.677
-107.763
-92.7392
-93.1569
-93.5694
-93.972
-94.3624
-94.7409
-95.108
-95.4637
-95.8079
-96.1405
-96.4612
-96.77
-97.0666
-97.351
-97.6231
-97.8829
-98.1303
-98.3655
-98.5884
-98.7988
-98.9966
-99.1817
-99.3541
-99.512
-99.6599
-99.7961
-99.919
-100.028
-100.124
-100.206
-86.2089
-86.6079
-87.0018
-87.3862
-87.7593
-88.1211
-88.4719
-88.8117
-89.1404
-89.4578
-89.7637
-90.058
-90.3406
-90.6115
-90.8705
-91.1176
-91.3528
-91.5761
-91.7874
-91.9869
-92.1744
-92.3498
-92.5129
-92.6638
-92.8014
-92.9278
-93.0442
-93.1481
-93.2386
-93.3162
-80.2686
-80.6503
-81.0266
-81.394
-81.7507
-82.0966
-82.432
-82.7567
-83.0706
-83.3734
-83.6651
-83.9456
-84.2147
-84.4724
-84.7187
-84.9535
-85.1767
-85.3885
-85.5888
-85.7776
-85.9549
-86.1206
-86.2746
-86.4169
-86.5475
-86.666
-86.7721
-86.8698
-86.9552
-87.0279
-74.8509
-75.2166
-75.5769
-75.9285
-76.27
-76.6012
-76.9221
-77.2327
-77.5327
-77.8219
-78.1003
-78.3677
-78.6241
-78.8694
-79.1036
-79.3267
-79.5387
-79.7395
-79.9293
-80.1079
-80.2754
-80.4318
-80.577
-80.711
-80.8338
-80.9454
-81.0456
-81.1336
-81.2132
-81.2813
-69.897
-70.2481
-70.5938
-70.9311
-71.2587
-71.5762
-71.8838
-72.1813
-72.4684
-72.745
-73.011
-73.2663
-73.5108
-73.7446
-73.9675
-74.1797
-74.3811
-74.5717
-74.7515
-74.9206
-75.079
-75.2265
-75.3634
-75.4895
-75.6048
-75.7094
-75.8031
-75.8858
-75.9579
-76.021
-65.356
-65.694
-66.0265
-66.3508
-66.6656
-66.9707
-67.2661
-67.5516
-67.8268
-68.0917
-68.3462
-68.5903
-68.8238
-69.0468
-69.2593
-69.4613
-69.6529
-69.834
-70.0046
-70.1649
-70.3147
-70.4542
-70.5833
-70.702
-70.8103
-70.9083
-70.9959
-71.0731
-71.1393
-71.1972
-61.1841
-61.5102
-61.8308
-62.1433
-62.4465
-62.7404
-63.0246
-63.299
-63.5633
-63.8175
-64.0614
-64.295
-64.5184
-64.7315
-64.9344
-65.127
-65.3095
-65.4818
-65.6439
-65.796
-65.938
-66.07
-66.1919
-66.3039
-66.4058
-66.4977
-66.5797
-66.6519
-66.7142
-66.7658
-57.3434
-57.6588
-57.9686
-58.2705
-58.5633
-58.8469
-59.1208
-59.3851
-59.6394
-59.8836
-60.1178
-60.3418
-60.5558
-60.7597
-60.9537
-61.1376
-61.3117
-61.4759
-61.6303
-61.7749
-61.9097
-62.0348
-62.1501
-62.2558
-62.3518
-62.4382
-62.5151
-62.5823
-62.6398
-62.6873
-53.8012
-54.1069
-54.4071
-54.6994
-54.9828
-55.2569
-55.5216
-55.7765
-56.0215
-56.2566
-56.4817
-56.6968
-56.9021
-57.0976
-57.2832
-57.4592
-57.6255
-57.7822
-57.9294
-58.0671
-58.1953
-58.314
-58.4234
-58.5234
-58.614
-58.6953
-58.7674
-58.8302
-58.8839
-58.9287
-50.5289
-50.8259
-51.1174
-51.4011
-51.676
-51.9416
-52.1977
-52.444
-52.6804
-52.907
-53.1237
-53.3306
-53.5277
-53.7153
-53.8933
-54.0618
-54.221
-54.3708
-54.5113
-54.6427
-54.7648
-54.8777
-54.9816
-55.0763
-55.162
-55.2387
-55.3063
-55.3651
-55.415
-55.4559
-47.5014
-47.7907
-48.0744
-48.3505
-48.6177
-48.8755
-49.1237
-49.3621
-49.5905
-49.8091
-50.018
-50.2171
-50.4067
-50.5869
-50.7578
-50.9194
-51.0719
-51.2153
-51.3497
-51.4752
-51.5917
-51.6993
-51.798
-51.888
-51.9691
-52.0415
-52.1052
-52.1602
-52.2066
-52.2443
-44.6969
-44.9791
-45.2561
-45.5254
-45.7858
-46.0365
-46.2773
-46.5082
-46.7292
-46.9403
-47.1418
-47.3337
-47.5162
-47.6895
-47.8536
-48.0088
-48.1551
-48.2926
-48.4213
-48.5413
-48.6526
-48.7553
-48.8494
-48.9349
-49.0119
-49.0803
-49.1403
-49.1919
-49.2351
-49.27
-42.0956
-42.3718
-42.6429
-42.9064
-43.1605
-43.4047
-43.6387
-43.8626
-44.0765
-44.2806
-44.475
-44.66
-44.8358
-45.0026
-45.1605
-45.3096
-45.4501
-45.582
-45.7054
-45.8203
-45.9268
-46.0249
-46.1147
-46.1962
-46.2693
-46.3342
-46.3908
-46.4393
-46.4795
-46.5117
-39.6803
-39.951
-40.2174
-40.476
-40.7246
-40.9626
-41.1902
-41.4075
-41.6146
-41.8119
-41.9996
-42.178
-42.3475
-42.5081
-42.66
-42.8035
-42.9385
-43.0652
-43.1836
-43.2939
-43.3959
-43.4898
-43.5756
-43.6533
-43.7229
-43.7844
-43.838
-43.8836
-43.9212
-43.9509
-37.4351
-37.7013
-37.9641
-38.2187
-38.4623
-38.6946
-38.9161
-39.1269
-39.3275
-39.5182
-39.6995
-39.8716
-40.035
-40.1897
-40.3361
-40.4741
-40.6041
-40.7259
-40.8397
-40.9455
-41.0434
-41.1334
-41.2155
-41.2897
-41.356
-41.4145
-41.4652
-41.5081
-41.5433
-41.5709
-35.3455
-35.6083
-35.8692
-36.1208
-36.3598
-36.5866
-36.802
-37.0066
-37.2008
-37.3851
-37.5601
-37.7262
-37.8837
-38.0329
-38.1739
-38.3069
-38.432
-38.5493
-38.6587
-38.7605
-38.8545
-38.9408
-39.0195
-39.0904
-39.1538
-39.2094
-39.2575
-39.298
-39.3309
-39.3564
-33.3981
-33.6589
-33.92
-34.1698
-34.4044
-34.6257
-34.8351
-35.0335
-35.2213
-35.3993
-35.5683
-35.7286
-35.8805
-36.0244
-36.1604
-36.2886
-36.4091
-36.5221
-36.6275
-36.7254
-36.8158
-36.8988
-36.9743
-37.0423
-37.1028
-37.1559
-37.2015
-37.2397
-37.2705
-37.2941
-31.5809
-31.8417
-32.1058
-32.3544
-32.5845
-32.8002
-33.0037
-33.1957
-33.3772
-33.5491
-33.7122
-33.8668
-34.0135
-34.1523
-34.2835
-34.4072
-34.5235
-34.6324
-34.7341
-34.8284
-34.9155
-34.9953
-35.0678
-35.1331
-35.1911
-35.2417
-35.2851
-35.3213
-35.3501
-35.3719
-29.882
-30.1481
-30.4187
-30.6659
-30.8908
-31.1008
-31.2981
-31.4836
-31.6587
-31.8245
-31.9817
-32.131
-32.2725
-32.4065
-32.5332
-32.6526
-32.7649
-32.87
-32.9681
-33.0591
-33.143
-33.2199
-33.2897
-33.3524
-33.4079
-33.4564
-33.4977
-33.5318
-33.5589
-33.5789
-28.283
-28.5679
-28.8512
-29.0957
-29.3142
-29.5179
-29.7086
-29.8874
-30.056
-30.2158
-30.3674
-30.5115
-30.6481
-30.7775
-30.8999
-31.0153
-31.1237
-31.2253
-31.32
-31.4079
-31.4889
-31.563
-31.6302
-31.6905
-31.7438
-31.7901
-31.8294
-31.8617
-31.887
-31.9055
-26.7494
-27.0747
-27.3826
-27.6243
-27.8352
-28.0323
-28.2165
-28.3887
-28.5514
-28.7057
-28.8525
-28.9919
-29.1244
-29.2499
-29.3686
-29.4806
-29.5859
-29.6845
-29.7765
-29.8618
-29.9404
-30.0123
-30.0775
-30.1359
-30.1875
-30.2322
-30.27
-30.3009
-30.3249
-30.342
-25.268
-25.6434
-25.9863
-26.2297
-26.4348
-26.6258
-26.8039
-26.9706
-27.1282
-27.2781
-27.421
-27.5569
-27.6861
-27.8087
-27.9248
-28.0344
-28.1374
-28.234
-28.3242
-28.4078
-28.4849
-28.5555
-28.6195
-28.6769
-28.7275
-28.7715
-28.8085
-28.8388
-28.8622
-28.8788
-24.0259
-24.4428
-24.7791
-25.0204
-25.2187
-25.3976
-25.5643
-25.7212
-25.8698
-26.0114
-26.1466
-26.2753
-26.3976
-26.5136
-26.6233
-26.7268
-26.824
-26.9151
-26.9999
-27.0784
-27.1507
-27.2168
-27.2766
-27.33
-27.377
-27.4174
-27.4513
-27.4785
-27.4991
-27.513
-16.723
-17.8672
-19.1
-20.4203
-21.8359
-23.3551
-24.9859
-26.7375
-28.6195
-30.6433
-32.8209
-35.166
-37.6939
-40.4215
-43.3678
-46.5545
-50.0062
-53.751
-57.822
-62.2575
-67.1032
-72.4131
-78.2524
-84.6989
-91.8406
-99.7722
-108.673
-118.793
-128.405
-146.271
-16.9685
-18.1198
-19.3562
-20.681
-22.1018
-23.6266
-25.2634
-27.0213
-28.9102
-30.9413
-33.1269
-35.4805
-38.0176
-40.7551
-43.7122
-46.9107
-50.3751
-54.1341
-58.2206
-62.6732
-67.5379
-72.8689
-78.7314
-85.2037
-92.3736
-100.335
-109.265
-119.414
-129.037
-146.885
-17.2162
-18.3742
-19.6143
-20.9436
-22.3698
-23.9002
-25.543
-27.3074
-29.2033
-31.2419
-33.4355
-35.7978
-38.3443
-41.0919
-44.0601
-47.2705
-50.748
-54.5213
-58.6236
-63.0937
-67.9776
-73.33
-79.2161
-85.7142
-92.9121
-100.903
-109.861
-120.031
-129.664
-147.474
-17.4657
-18.6302
-19.8737
-21.2077
-22.6391
-24.1752
-25.8241
-27.595
-29.498
-31.5441
-33.7459
-36.117
-38.6729
-41.4308
-44.4101
-47.6326
-51.1233
-54.9111
-59.0293
-63.517
-68.4203
-73.7941
-79.7038
-86.2276
-93.4529
-101.473
-110.457
-120.649
-130.298
-148.091
-17.7166
-18.8873
-20.1342
-21.4728
-22.9096
-24.4515
-26.1065
-27.884
-29.794
-31.8477
-34.0577
-36.4377
-39.0031
-41.7714
-44.7618
-47.9964
-51.5004
-55.3027
-59.4369
-63.9421
-68.8649
-74.2601
-80.1932
-86.7425
-93.995
-102.043
-111.055
-121.271
-130.94
-148.733
-17.9686
-19.1453
-20.3956
-21.7389
-23.1811
-24.7287
-26.3899
-28.174
-30.0912
-32.1526
-34.3708
-36.7597
-39.3348
-42.1134
-45.115
-48.3619
-51.8792
-55.6961
-59.8462
-64.3691
-69.3113
-74.7279
-80.6845
-87.2592
-94.539
-102.615
-111.655
-121.897
-131.588
-149.388
-18.2212
-19.4038
-20.6575
-22.0056
-23.4534
-25.0068
-26.6743
-28.465
-30.3894
-32.4586
-34.6851
-37.083
-39.6677
-42.4567
-45.4697
-48.7289
-52.2596
-56.0911
-60.2573
-64.7979
-69.7595
-75.1976
-81.1777
-87.778
-95.0851
-103.19
-112.257
-122.526
-132.239
-150.048
-18.4743
-19.6625
-20.9197
-22.2727
-23.7261
-25.2855
-26.9592
-28.7567
-30.6884
-32.7654
-35.0003
-37.4072
-40.0017
-42.8012
-45.8256
-49.0971
-52.6413
-56.4876
-60.6699
-65.2283
-70.2095
-75.669
-81.6727
-88.2987
-95.6333
-103.767
-112.863
-123.158
-132.892
-150.712
-18.7275
-19.9212
-21.1819
-22.5399
-23.9991
-25.5645
-27.2446
-29.0489
-30.9879
-33.0728
-35.3162
-37.7322
-40.3365
-43.1466
-46.1824
-49.4664
-53.0241
-56.8852
-61.0838
-65.6599
-70.6608
-76.1419
-82.1694
-88.821
-96.1832
-104.345
-113.469
-123.792
-133.548
-151.381
-18.9806
-20.1797
-21.4439
-22.8071
-24.2721
-25.8436
-27.5302
-29.3415
-31.2878
-33.3807
-35.6326
-38.0578
-40.6719
-43.4927
-46.54
-49.8365
-53.4078
-57.2837
-61.4986
-66.0927
-71.1132
-76.616
-82.6672
-89.3447
-96.7345
-104.925
-114.078
-124.428
-134.205
-152.052
-19.2334
-20.4377
-21.7056
-23.0741
-24.545
-26.1227
-27.8159
-29.6341
-31.588
-33.6888
-35.9494
-38.3838
-41.0078
-43.8393
-46.8982
-50.2071
-53.7921
-57.683
-61.9142
-66.5262
-71.5665
-77.0911
-83.1661
-89.8694
-97.2869
-105.507
-114.687
-125.066
-134.864
-152.725
-19.4858
-20.6952
-21.9667
-23.3407
-24.8177
-26.4017
-28.1015
-29.9268
-31.8882
-33.9971
-36.2663
-38.7099
-41.344
-44.1862
-47.2566
-50.5782
-54.1769
-58.0827
-62.3303
-66.9603
-72.0204
-77.5667
-83.6656
-90.3949
-97.8401
-106.089
-115.298
-125.704
-135.524
-153.399
-19.7376
-20.9519
-22.2271
-23.6068
-25.09
-26.6804
-28.3869
-30.2194
-32.1884
-34.3054
-36.5833
-39.0362
-41.6802
-44.5331
-47.6152
-50.9494
-54.5618
-58.4826
-62.7466
-67.3946
-72.4746
-78.0427
-84.1655
-90.9207
-98.3937
-106.671
-115.908
-126.343
-136.183
-154.072
-19.9888
-21.2079
-22.4869
-23.8724
-25.3619
-26.9588
-28.6721
-30.5118
-32.4884
-34.6136
-36.9001
-39.3624
-42.0164
-44.8801
-47.9738
-51.3206
-54.9467
-58.8824
-63.1629
-67.829
-72.9288
-78.5188
-84.6654
-91.4466
-98.9473
-107.253
-116.518
-126.981
-136.842
-154.745
-20.2394
-21.4631
-22.746
-24.1374
-25.6334
-27.2368
-28.957
-30.8039
-32.7882
-34.9215
-37.2168
-39.6883
-42.3523
-45.2268
-48.3321
-51.6915
-55.3313
-59.282
-63.5789
-68.263
-73.3827
-78.9945
-85.165
-91.972
-99.5004
-107.835
-117.128
-127.619
-137.499
-155.417
-20.4896
-21.7177
-23.0045
-24.402
-25.9045
-27.5146
-29.2416
-31.0958
-33.0878
-35.2292
-37.5331
-40.014
-42.6879
-45.5731
-48.69
-52.0619
-55.7154
-59.681
-63.9943
-68.6965
-73.8359
-79.4695
-85.6639
-92.4968
-100.053
-108.416
-117.736
-128.255
-138.155
-156.087
-20.7396
-21.9718
-23.2626
-24.6662
-26.1754
-27.7921
-29.526
-31.3874
-33.387
-35.5365
-37.8491
-40.3391
-43.0229
-45.9188
-49.0472
-52.4316
-56.0987
-60.0793
-64.4088
-69.129
-74.2882
-79.9436
-86.1617
-93.0204
-100.604
-108.995
-118.343
-128.89
-138.809
-156.754
-20.9896
-22.2258
-23.5205
-24.9304
-26.4461
-28.0695
-29.8102
-31.6788
-33.6859
-35.8435
-38.1645
-40.6637
-43.3573
-46.2637
-49.4035
-52.8004
-56.481
-60.4764
-64.8222
-69.5602
-74.7392
-80.4162
-86.658
-93.5424
-101.153
-109.573
-118.947
-129.522
-139.461
-157.419
-21.2403
-22.4801
-23.7786
-25.1947
-26.717
-28.3469
-30.0943
-31.9699
-33.9845
-36.1499
-38.4794
-40.9875
-43.6908
-46.6076
-49.7588
-53.1679
-56.862
-60.872
-65.234
-69.9899
-75.1885
-80.8871
-87.1525
-94.0624
-101.7
-110.148
-119.549
-130.151
-140.109
-158.08
-21.4923
-22.7352
-24.0373
-25.4596
-26.9883
-28.6245
-30.3785
-32.2609