/*--------------------------------*- C++ -*----------------------------------*\
  =========                 |
  \\      /  F ield         | OpenFOAM: The Open Source CFD Toolbox
   \\    /   O peration     | Website:  https://openfoam.org
    \\  /    A nd           | Version:  6.0
     \\/     M anipulation  |
\*---------------------------------------------------------------------------*/
FoamFile
{
    version     2.0;
    format      ascii;
    class       surfaceScalarField;
    location    "6.25";
    object      phi;
}
// * * * * * * * * * * * * * * * * * * * * * * * * * * * * * * * * * * * * * //

dimensions      [0 3 -1 0 0 0 0];

internalField   nonuniform List<scalar> 
4670
(
0.00215247
-0.817967
0.815815
0.00614303
-0.783948
0.779957
0.0102423
-0.736213
0.732114
0.0139557
-0.678548
0.674834
0.0173378
-0.623876
0.620494
0.0205426
-0.573787
0.570582
0.0237
-0.528577
0.525419
0.0269054
-0.488323
0.485118
0.0302712
-0.452855
0.449489
-0.421883
0.418208
0.0339459
0.00229185
-0.820259
0.00621516
-0.787871
0.0101521
-0.74015
0.0137046
-0.6821
0.0169415
-0.627113
0.0200216
-0.576867
0.0230724
-0.531628
0.0261795
-0.49143
0.0294515
-0.456127
-0.425461
0.0330298
0.00233337
-0.822593
0.00613878
-0.791677
0.00987756
-0.743889
0.0132041
-0.685427
0.0162265
-0.630136
0.0191184
-0.579759
0.0220056
-0.534515
0.0249587
-0.494383
0.0280739
-0.459242
-0.428895
0.0315072
0.00229968
-0.824892
0.00594104
-0.795318
0.00942824
-0.747376
0.0124737
-0.688472
0.0152178
-0.63288
0.0178533
-0.582394
0.0205173
-0.537179
0.0232815
-0.497147
0.0262409
-0.462202
-0.432238
0.0295843
0.00219551
-0.827088
0.00560719
-0.79873
0.00880778
-0.750576
0.0115366
-0.691201
0.0139515
-0.635295
0.0162512
-0.584694
0.0185836
-0.539511
0.0210451
-0.499609
0.0237656
-0.464922
-0.435492
0.0270194
0.00202627
-0.829114
0.00514682
-0.80185
0.00800466
-0.753434
0.0103811
-0.693578
0.0124471
-0.637361
0.0143827
-0.58663
0.0163075
-0.541436
0.0183279
-0.501629
0.0206616
-0.467256
-0.438565
0.0237347
0.00180803
-0.830922
0.00457978
-0.804622
0.00702138
-0.755876
0.00895777
-0.695514
0.0106084
-0.639011
0.0121743
-0.588196
0.0137376
-0.542999
0.0153228
-0.503214
0.0171037
-0.469037
-0.440827
0.0193659
0.00159694
-0.832519
0.00401392
-0.807039
0.00597053
-0.757832
0.00731945
-0.696863
0.00833228
-0.640024
0.00930452
-0.589168
0.0104267
-0.544122
0.0116896
-0.504477
0.0128597
-0.470207
-0.441032
0.013065
0.00147309
-0.833992
0.00358833
-0.809154
0.00508166
-0.759326
0.0058069
-0.697588
0.00597302
-0.64019
0.00582613
-0.589021
0.00566511
-0.543961
0.00584468
-0.504657
0.00641302
-0.470775
-0.440747
0.00612735
0.00152895
-0.835521
0.0033714
-0.810997
0.00452831
-0.760483
0.00485523
-0.697915
0.00443038
-0.639765
0.00318323
-0.587774
0.000906177
-0.541683
-0.00229373
-0.501457
-0.00463884
-0.46843
-0.448335
0.00294983
0.848436
0.00196324
-0.8504
0.846547
0.00188969
0.844718
0.00182914
0.842973
0.00174433
0.841341
0.00163183
0.839855
0.00148596
0.838526
0.00132975
0.837359
0.00116651
0.836351
0.00100804
0.000829966
0.825843
0.00311802
-0.826998
0.824416
0.00331662
0.82282
0.00342576
0.821119
0.00344514
0.819365
0.00338602
0.817614
0.00323714
0.815901
0.00304227
0.814256
0.00281107
0.812647
0.00261755
0.00248027
0.768834
0.00329203
-0.769008
0.768363
0.00378818
0.767649
0.00413929
0.766769
0.00432556
0.765777
0.00437754
0.764733
0.00428156
0.763686
0.00408856
0.762652
0.00384565
0.761621
0.00364859
0.00361832
0.701593
0.00312343
-0.701424
0.701506
0.00387505
0.701184
0.00446057
0.700726
0.00478383
0.700159
0.00494423
0.699592
0.00484866
0.699051
0.0046296
0.698609
0.0042877
0.698262
0.00399582
0.00396523
0.641671
0.00302188
-0.641569
0.641557
0.00398863
0.641214
0.0048042
0.640793
0.00520438
0.640254
0.00548342
0.639819
0.00528335
0.639424
0.00502465
0.639318
0.0043939
0.639444
0.00386963
0.0036441
0.589559
0.00313259
-0.589669
0.589263
0.00428409
0.588709
0.00535831
0.588145
0.00576881
0.587381
0.00624686
0.58689
0.00577461
0.586352
0.00556265
0.586438
0.00430819
0.58676
0.003547
0.00263076
0.543984
0.00348598
-0.544338
0.543473
0.00479519
0.542645
0.00618667
0.541881
0.00653307
0.540727
0.00740082
0.54008
0.00642095
0.539123
0.0065205
0.539507
0.00392401
0.539646
0.00340736
0.000593628
0.503873
0.00407734
-0.504465
0.503164
0.00550449
0.502065
0.00728595
0.501122
0.00747526
0.499485
0.0090386
0.498617
0.00728875
0.496836
0.00830119
0.497816
0.00294456
0.497529
0.00369382
-0.00333433
0.468271
0.00491168
-0.469105
0.467398
0.00637749
0.466068
0.00861545
0.465031
0.00851216
0.462957
0.0111131
0.461868
0.00837747
0.458839
0.0113303
0.460112
0.00167141
0.45992
0.00388638
-0.0118447
0.436453
-0.43762
0.006079
0.435381
0.00744922
0.433856
0.0101404
0.432771
0.00959711
0.430473
0.0134108
0.429229
0.00962131
0.425094
0.0154656
0.424781
0.00198484
0.423467
0.00519993
-0.0367131
0.856087
-0.00065483
-0.855433
0.856607
-0.000519366
0.856847
-0.000240035
0.856748
9.90817e-05
0.856302
0.000445972
0.855544
0.000758229
0.854511
0.00103267
0.853262
0.00124849
0.851857
0.00140493
0.00145789
0.819567
-0.0036774
-0.816545
0.822158
-0.00311006
0.824325
-0.00240693
0.826029
-0.00160482
0.827254
-0.000779101
0.828016
-3.65387e-06
0.828338
0.000710489
0.828259
0.00132773
0.827802
0.0018615
0.00226184
0.753454
-0.00753066
-0.749601
0.756935
-0.00659011
0.759972
-0.00544476
0.762545
-0.00417747
0.764669
-0.00290334
0.766355
-0.00168957
0.76762
-0.000554462
0.76847
0.000477674
0.768931
0.00140024
0.00218507
0.684294
-0.0114777
-0.680347
0.687892
-0.0101886
0.691022
-0.00857457
0.693682
-0.00683763
0.695926
-0.00514693
0.69777
-0.00353343
0.699223
-0.00200777
0.7003
-0.00059982
0.701023
0.000677392
0.00178419
0.625807
-0.0153787
-0.621906
0.629276
-0.013658
0.632203
-0.0115007
0.634656
-0.00929075
0.636713
-0.00720434
0.638377
-0.00519778
0.639666
-0.00329671
0.640611
-0.0015444
0.641233
5.51535e-05
0.00144796
0.57592
-0.0193982
-0.571901
0.579232
-0.0169693
0.581888
-0.0141573
0.584111
-0.0115138
0.585943
-0.00903616
0.587353
-0.00660705
0.588393
-0.00433756
0.589113
-0.00226372
0.589528
-0.00036057
0.00130698
0.532499
-0.0238563
-0.528041
0.535649
-0.020119
0.538048
-0.0165563
0.540114
-0.0135795
0.541748
-0.0106708
0.542905
-0.00776353
0.543706
-0.00513904
0.544207
-0.00276417
0.54441
-0.000564051
0.00137924
0.494384
-0.0288926
-0.489348
0.497389
-0.0231245
0.499597
-0.0187637
0.501525
-0.0155077
0.502932
-0.0120782
0.503838
-0.00866888
0.504423
-0.0057246
0.50473
-0.00307107
0.504736
-0.000570249
0.0016511
0.460934
-0.033107
-0.456719
0.463883
-0.026074
0.466077
-0.0209574
0.467615
-0.0170458
0.468607
-0.0130703
0.469243
-0.00930492
0.469623
-0.00610498
0.469753
-0.00320119
0.469568
-0.000384501
0.0021136
0.430615
-0.435576
-0.028146
0.43378
-0.0292387
0.437316
-0.0244933
0.437913
-0.0176431
0.438163
-0.0133198
0.438585
-0.0097275
0.438812
-0.00633187
0.438761
-0.00314994
0.438352
2.48552e-05
0.00284533
0.0235199
0.395327
-0.393726
-0.0251212
0.0216736
0.426016
-0.424169
0.0196256
0.460247
-0.458199
0.0173851
0.498423
-0.496182
0.0149079
0.541126
-0.538648
0.0121012
0.589345
-0.586538
0.00885691
0.645407
-0.642162
0.00517913
0.712965
-0.709287
0.00163121
0.783508
-0.77996
0.839594
-0.837963
0.0252371
0.397368
-0.027278
0.023046
0.428207
0.0207172
0.462576
0.0182308
0.500909
0.0155328
0.543824
0.0125309
0.592347
0.00912337
0.648814
0.00533587
0.716752
0.00175399
0.78709
0.841348
0.0262155
0.39956
-0.0284074
0.023932
0.43049
0.0215146
0.464993
0.0189145
0.503509
0.0160762
0.546662
0.0129223
0.595501
0.00937222
0.652364
0.00547203
0.720652
0.00181393
0.790748
0.843162
0.0284101
0.402331
-0.0311813
0.025604
0.433296
0.0227535
0.467844
0.0198035
0.506459
0.0166862
0.549779
0.0133126
0.598874
0.00959323
0.656084
0.00557422
0.724671
0.00184463
0.794477
0.845007
0.0285231
0.40476
-0.0309526
0.0259751
0.435844
0.0232661
0.470553
0.02032
0.509405
0.017112
0.552987
0.0136042
0.602382
0.00974811
0.65994
0.00562508
0.728794
0.00185034
0.798252
0.846857
0.0314636
0.408178
-0.0348811
0.027988
0.43932
0.0245353
0.474005
0.0210853
0.512855
0.0175567
0.556516
0.0138376
0.606101
0.00983988
0.663937
0.00563663
0.732998
0.00183973
0.802049
0.848697
0.0303908
0.410498
-0.0327111
0.0276352
0.442076
0.0245952
0.477045
0.0212888
0.516162
0.0177366
0.560068
0.013922
0.609916
0.00983086
0.668029
0.0055754
0.737253
0.00179343
0.805831
0.85049
0.0352983
0.415726
-0.0405259
0.0301038
0.44727
0.0256328
0.481516
0.0216796
0.520115
0.017821
0.563927
0.01385
0.613887
0.00969575
0.672183
0.0054591
0.74149
0.0017269
0.809563
0.852217
0.0322956
0.420044
-0.0366142
0.0283858
0.45118
0.0251032
0.484799
0.021495
0.523723
0.0175867
0.567835
0.0135466
0.617927
0.00939984
0.67633
0.00523972
0.74565
0.00163624
0.813167
0.853854
0.0353762
-0.0509082
0.0298371
0.0252883
0.0209702
0.0169043
0.012925
0.00890806
0.00495691
0.001579
0.0289238
0.384463
-0.388998
-0.0243887
0.0249172
0.41325
-0.409243
0.0203169
0.44494
-0.44034
0.0164724
0.481005
-0.477161
0.0134073
0.521425
-0.51836
0.0107909
0.566629
-0.564013
0.00824311
0.618509
-0.615961
0.00539681
0.680955
-0.678109
0.00217847
0.749456
-0.746238
0.819184
-0.817005
0.0217263
0.386457
-0.02372
0.0202102
0.414766
0.0183086
0.446841
0.0160661
0.483248
0.013685
0.523806
0.0112367
0.569077
0.0086262
0.621119
0.0056484
0.683933
0.00234052
0.752764
0.821524
0.0188078
0.388203
-0.020554
0.0176613
0.415912
0.0164273
0.448075
0.0149739
0.484701
0.0132215
0.525558
0.0111393
0.57116
0.00866614
0.623592
0.00568349
0.686916
0.0023231
0.756125
0.823847
0.0180145
0.388643
-0.0184543
0.0170951
0.416832
0.0158546
0.449316
0.0144522
0.486104
0.0128436
0.527167
0.0109168
0.573086
0.00853489
0.625974
0.00556892
0.689882
0.00221644
0.759477
0.826064
0.017997
0.388793
-0.0181468
0.0171536
0.417675
0.0159276
0.450542
0.0144808
0.487551
0.0128173
0.528831
0.0108486
0.575055
0.00843055
0.628392
0.00542799
0.692884
0.00209354
0.762812
0.828157
0.0183153
0.389199
-0.0187216
0.0174002
0.41859
0.0161726
0.45177
0.01471
0.489013
0.0129915
0.530549
0.0109376
0.577109
0.00842369
0.630906
0.00534315
0.695965
0.00200018
0.766155
0.830157
0.0190347
0.389951
-0.0197864
0.0179481
0.419677
0.0166108
0.453107
0.0150647
0.490559
0.0132646
0.532349
0.0111163
0.579257
0.00849408
0.633529
0.00531426
0.699145
0.00194035
0.769528
0.832098
0.0200829
0.391014
-0.0211463
0.0187736
0.420986
0.0172582
0.454622
0.0155619
0.492256
0.0136314
0.53428
0.0113619
0.581527
0.00862346
0.636267
0.00534605
0.702422
0.00191844
0.772956
0.834016
0.0212235
0.392282
-0.0224913
0.0197342
0.422475
0.0180427
0.456314
0.0161747
0.494124
0.0140835
0.536371
0.0116666
0.583944
0.00879572
0.639138
0.00540974
0.705808
0.00193224
0.776434
0.835949
0.0225539
-0.0239977
0.0208596
0.0189745
0.0169161
0.0146385
0.0120442
0.00901985
0.00554079
0.00201465
-0.365528
0.0326255
-0.0560957
-0.365392
0.0148185
-0.0149542
-0.365019
0.0135704
-0.0139437
-0.367578
0.00183632
0.000722827
-0.368691
0.000273174
0.00083994
-0.370705
-0.00546571
0.00747926
-0.372406
-0.00740387
0.00910544
-0.374643
-0.0108698
0.0131062
-0.377003
-0.0128229
0.0151837
-0.0148727
-0.379698
0.0175669
-0.400081
0.0234632
-0.398991
0.0137286
-0.397071
0.0116506
-0.398904
0.00366961
-0.399808
0.00117647
-0.401701
-0.00357265
-0.403327
-0.00577769
-0.405413
-0.00878341
-0.407575
-0.0106612
-0.012487
-0.409961
-0.435143
0.0182664
-0.434285
0.0128707
-0.432561
0.00992696
-0.433546
0.00465448
-0.434241
0.0018716
-0.435871
-0.00194282
-0.437418
-0.00423054
-0.439374
-0.00682818
-0.441426
-0.00860912
-0.0102528
-0.44366
-0.473721
0.0148269
-0.47251
0.0116596
-0.471322
0.00873881
-0.471747
0.0050793
-0.472297
0.00242191
-0.473654
-0.000586401
-0.475122
-0.0027626
-0.476981
-0.00496909
-0.47898
-0.00661026
-0.00807283
-0.48116
-0.515835
0.012302
-0.514387
0.0102118
-0.513473
0.00782462
-0.51358
0.00518668
-0.514047
0.00288874
-0.51518
0.000545953
-0.516571
-0.00137124
-0.518346
-0.00319447
-0.52031
-0.00464568
-0.00591256
-0.52247
-0.561898
0.0101874
-0.560402
0.00871585
-0.559527
0.00694917
-0.559394
0.00505369
-0.559741
0.00323611
-0.560657
0.0014614
-0.561926
-0.000101291
-0.563576
-0.00154516
-0.565464
-0.00275706
-0.00380656
-0.56757
-0.613887
0.00811288
-0.612279
0.00710838
-0.611233
0.00590284
-0.610785
0.00460633
-0.610859
0.0033098
-0.611451
0.0020531
-0.612453
0.000900913
-0.613839
-0.000159569
-0.615507
-0.0010882
-0.00189412
-0.61742
-0.675715
0.00571936
-0.673695
0.00508798
-0.67217
0.00437777
-0.671167
0.00360353
-0.670683
0.00282605
-0.670692
0.00206208
-0.67114
0.00134815
-0.671982
0.000682918
-0.673145
7.52455e-05
-0.000468109
-0.674572
-0.743229
0.00271048
-0.740559
0.00241774
-0.738316
0.00213491
-0.736556
0.00184382
-0.735271
0.00154092
-0.734448
0.00123866
-0.734048
0.000948549
-0.73404
0.000674763
-0.734372
0.000406913
0.000113928
-0.734954
-0.814295
-0.811877
-0.809742
-0.807898
-0.806357
-0.805119
-0.80417
-0.803495
-0.803088
-0.802975
-0.382423
-0.0159226
0.0186476
-0.385132
-0.0167868
0.0194962
-0.387776
-0.0172441
0.019888
-0.390311
-0.0173142
0.0198491
-0.39268
-0.0169686
0.0193383
-0.395033
-0.0160235
0.0183765
-0.397066
-0.0148214
0.0168543
-0.397022
-0.0138468
0.013802
-0.396989
-0.0123983
0.0123659
-0.0103731
-0.40102
0.0144042
-0.412385
-0.0134977
-0.414804
-0.0143683
-0.417165
-0.0148836
-0.419435
-0.0150443
-0.42155
-0.0148534
-0.423377
-0.0141958
-0.424759
-0.0134399
-0.425673
-0.0129331
-0.426012
-0.0120583
-0.0109091
-0.425476
-0.445966
-0.0111913
-0.448281
-0.0120535
-0.450566
-0.0125985
-0.452778
-0.0128323
-0.454854
-0.0127775
-0.456632
-0.0124173
-0.458065
-0.012007
-0.459344
-0.0116547
-0.460168
-0.0112339
-0.0111373
-0.45994
-0.483447
-0.00890446
-0.485767
-0.00973305
-0.488083
-0.010282
-0.490345
-0.0105711
-0.492489
-0.0106331
-0.494404
-0.0105028
-0.496088
-0.0103222
-0.497619
-0.0101238
-0.498813
-0.0100398
-0.0104466
-0.499504
-0.524774
-0.00660086
-0.527142
-0.0073651
-0.529529
-0.00789492
-0.531881
-0.00821874
-0.534144
-0.00837047
-0.536252
-0.00839451
-0.538205
-0.00836932
-0.539989
-0.00834014
-0.541543
-0.00848525
-0.00903351
-0.542956
-0.569864
-0.00430741
-0.572259
-0.0049699
-0.574702
-0.00545165
-0.577144
-0.0057772
-0.579538
-0.00597613
-0.581847
-0.00608559
-0.584057
-0.00615961
-0.586133
-0.00626432
-0.588081
-0.00653646
-0.00708017
-0.590035
-0.619576
-0.00215112
-0.621871
-0.00267494
-0.624254
-0.00306898
-0.626681
-0.00335011
-0.629118
-0.00353867
-0.631539
-0.00366534
-0.633923
-0.00377538
-0.636248
-0.00393918
-0.638539
-0.00424561
-0.00472638
-0.640893
-0.676289
-0.000433743
-0.678161
-0.000803268
-0.680166
-0.00106374
-0.682266
-0.00124943
-0.684439
-0.00136655
-0.686657
-0.00144696
-0.688911
-0.00152157
-0.691198
-0.00165206
-0.693542
-0.0019019
-0.00228195
-0.695986
-0.735724
0.000336159
-0.736673
0.000145651
-0.73777
3.39799e-05
-0.738995
-2.4539e-05
-0.740311
-5.08952e-05
-0.741701
-5.72038e-05
-0.743161
-6.08402e-05
-0.74472
-9.29774e-05
-0.746418
-0.000204185
-0.000462843
-0.748237
-0.802638
-0.802493
-0.802459
-0.802483
-0.802534
-0.802591
-0.802652
-0.802745
-0.802949
-0.803412
-1.62416e-05
-0.803396
0.0019632
-0.750217
0.00472126
-0.698744
0.00735414
-0.643526
0.00957
-0.592251
0.011287
-0.544673
0.0124871
-0.500704
0.0133142
-0.460767
0.0135928
-0.425755
-0.395513
0.00808569
0.000293749
-0.80369
0.00252497
-0.752448
0.00546311
-0.701682
0.00828623
-0.646349
0.0107152
-0.59468
0.0127766
-0.546735
0.0146972
-0.502625
0.0167182
-0.462788
0.0184302
-0.427467
-0.396508
0.019425
0.000574844
-0.804265
0.00310093
-0.754974
0.00627878
-0.70486
0.00932524
-0.649395
0.0120159
-0.59737
0.0143789
-0.549098
0.0164636
-0.50471
0.0181425
-0.464467
0.0191596
-0.428484
-0.396916
0.0195681
0.000846063
-0.805111
0.00369473
-0.757823
0.0071099
-0.708275
0.010375
-0.65266
0.0133179
-0.600313
0.016007
-0.551787
0.018582
-0.507285
0.021193
-0.467078
0.0239512
-0.431242
-0.399868
0.0269031
0.00112322
-0.806234
0.00427025
-0.76097
0.00791724
-0.711922
0.0113761
-0.656119
0.0144995
-0.603436
0.0173396
-0.554627
0.0199866
-0.509932
0.022508
-0.469599
0.024906
-0.43364
-0.402046
0.0270836
0.00139842
-0.807632
0.00482202
-0.764393
0.00866461
-0.715765
0.012287
-0.659741
0.0155818
-0.606731
0.0186368
-0.557682
0.0215886
-0.512883
0.0245608
-0.472571
0.0275969
-0.436676
-0.405066
0.0306166
0.00166464
-0.809297
0.0053253
-0.768054
0.00932377
-0.719763
0.0130595
-0.663477
0.0164525
-0.610124
0.0195903
-0.56082
0.0225842
-0.515877
0.0255131
-0.4755
0.0283945
-0.439558
-0.407823
0.0311515
0.00191761
-0.811215
0.00577684
-0.771913
0.00987942
-0.723866
0.0136829
-0.667281
0.0171534
-0.613595
0.0204051
-0.564072
0.023567
-0.519039
0.0267373
-0.478671
0.0299726
-0.442793
-0.411102
0.0332518
0.00216583
-0.81338
0.00616793
-0.775915
0.010308
-0.728006
0.0141105
-0.671083
0.0175801
-0.617064
0.0208413
-0.567333
0.0240193
-0.522217
0.0272076
-0.481859
0.0304796
-0.446065
-0.414496
0.0338731
0.00243453
0.00647642
0.0105841
0.0143353
0.017765
0.0210144
0.0242165
0.0274751
0.0308995
0.0346122
0.0119166
-1.72147
1.7435
0.0139532
-1.19474
1.1927
0.0164019
-0.882784
0.880335
0.0232884
-0.666426
0.65954
0.0273549
-0.516405
0.512338
0.0292084
-0.415152
0.413298
0.0283466
-0.341157
0.342019
0.0249133
-0.284675
0.288108
0.0211116
-0.228261
0.232062
0.0209931
-0.143564
0.143683
0.0268774
-0.0216489
0.0157646
0.0370729
0.105363
-0.115558
0.0480985
0.195708
-0.206733
0.0573513
0.233631
-0.242883
0.0638609
0.228356
-0.234866
0.0678164
0.197258
-0.201213
0.0698718
0.157604
-0.159659
0.0706759
0.115724
-0.116528
0.0707619
0.0850066
-0.0850926
0.0436307
-0.0432025
0.00593637
-1.69437
0.00618146
-1.19499
0.00985856
-0.886461
0.0178355
-0.674403
0.0232455
-0.521815
0.0260544
-0.417961
0.0261034
-0.341206
0.0235809
-0.282152
0.0205741
-0.225254
0.0209557
-0.143946
0.0270563
-0.0277495
0.0372776
0.0951412
0.0481939
0.184792
0.0572904
0.224534
0.0636738
0.221973
0.0675626
0.193369
0.069606
0.15556
0.0704356
0.114894
0.0705737
0.0848684
0.0440042
0.000223196
-1.66309
-0.00155226
-1.19321
0.00318251
-0.891195
0.0122449
-0.683466
0.01901
-0.52858
0.0228242
-0.421775
0.0238266
-0.342208
0.0222489
-0.280574
0.0200475
-0.223052
0.0208952
-0.144794
0.0271296
-0.0339838
0.0373025
0.0849684
0.0480816
0.174012
0.0570289
0.215587
0.0633092
0.215692
0.0671604
0.189518
0.0692242
0.153497
0.0701148
0.114003
0.070344
0.0846392
0.0442798
-0.00521409
-1.62829
-0.00848831
-1.18994
-0.00317481
-0.896509
0.00661596
-0.693256
0.0146311
-0.536595
0.0194841
-0.426628
0.0214749
-0.344199
0.0208692
-0.279969
0.0194851
-0.221668
0.0207839
-0.146092
0.027095
-0.040295
0.0371582
0.0749052
0.0477742
0.163396
0.0565771
0.206784
0.0627744
0.209495
0.0666148
0.185677
0.0687294
0.151382
0.0697153
0.113017
0.0700737
0.0842808
0.0444152
-0.00946607
-1.59181
-0.0136277
-1.18578
-0.00900423
-0.901132
0.000878322
-0.703139
0.0100344
-0.545751
0.015989
-0.432582
0.0190079
-0.347218
0.0193968
-0.280357
0.0188414
-0.221113
0.020592
-0.147843
0.0269488
-0.0466518
0.0368565
0.0649975
0.0472864
0.152967
0.0559473
0.198123
0.0620784
0.203364
0.0659316
0.181824
0.0681254
0.149188
0.0692394
0.111903
0.069764
0.0837563
0.0443692
-0.0123837
-1.55569
-0.0190502
-1.17911
-0.0159821
-0.904201
-0.00572663
-0.713394
0.0049531
-0.556431
0.0122455
-0.439875
0.0163748
-0.351347
0.0177869
-0.28177
0.0180723
-0.221398
0.0202878
-0.150058
0.0266846
-0.0530486
0.0364095
0.0552727
0.0466344
0.142742
0.0551537
0.189604
0.0612315
0.197286
0.0651179
0.177938
0.0674167
0.14689
0.0686898
0.11063
0.0694163
0.0830298
0.0441015
-0.0222125
-1.51411
-0.0325135
-1.16881
-0.0273726
-0.909342
-0.014325
-0.726442
-0.00100416
-0.569752
0.00809622
-0.448975
0.0134936
-0.356744
0.015983
-0.284259
0.0171297
-0.222545
0.0198337
-0.152762
0.0262894
-0.0595043
0.035826
0.0457361
0.0458349
0.132733
0.0542117
0.181227
0.0602453
0.191253
0.0641816
0.174002
0.0666085
0.144463
0.0680698
0.109169
0.0690321
0.0820674
0.0435736
-0.0488513
-1.45219
-0.0545169
-1.16314
-0.0415225
-0.922336
-0.0240235
-0.743941
-0.00762988
-0.586145
0.00351233
-0.460117
0.0103084
-0.36354
0.0139369
-0.287887
0.0159696
-0.224578
0.0191891
-0.155982
0.0257409
-0.0660561
0.035108
0.036369
0.0449023
0.122938
0.0531368
0.172992
0.0591322
0.185257
0.0631313
0.170002
0.0657064
0.141887
0.0673827
0.107493
0.0686133
0.0808369
0.0427487
-0.0570491
-1.38902
-0.0572256
-1.16297
-0.045981
-0.933581
-0.0297607
-0.760161
-0.0131721
-0.602734
-0.000938477
-0.472351
0.00702854
-0.371508
0.0117311
-0.29259
0.0146245
-0.227471
0.0183625
-0.15972
0.0250427
-0.0727363
0.0342687
0.027143
0.0438562
0.113351
0.0519476
0.164901
0.0579062
0.179299
0.0619765
0.165932
0.0647167
0.139147
0.0666326
0.105577
0.0681617
0.0793078
0.0415916
0.0468124
-1.43288
-0.00838774
-1.10777
-0.027505
-0.914463
-0.026414
-0.761252
-0.0157865
-0.613361
-0.00439086
-0.483746
0.00412798
-0.380026
0.00963257
-0.298095
0.0132741
-0.231113
0.01749
-0.163936
0.0242975
-0.0795438
0.0333856
0.0180548
0.0427515
0.103985
0.0506774
0.156975
0.0565846
0.173392
0.0607258
0.161791
0.0636441
0.136229
0.0658229
0.103398
0.0676789
0.0774518
0.0400692
0.454122
-1.12917
-0.757833
0.353458
-1.0071
0.259393
-0.820398
0.173169
-0.675029
0.125424
-0.565616
0.101567
-0.45989
0.0854373
-0.363896
0.0727497
-0.285407
0.0622734
-0.220636
0.0552694
-0.156932
0.0548129
-0.0790873
0.0619721
0.0108956
0.0742947
0.0916624
0.0879453
0.143324
0.100042
0.161294
0.109321
0.152512
0.115803
0.129747
0.119956
0.0992451
0.122636
0.0747715
0.0388387
0.514216
-0.855697
-0.787685
0.351269
-0.844155
0.261906
-0.731035
0.196924
-0.610047
0.15232
-0.521012
0.125178
-0.432748
0.105878
-0.344596
0.0903168
-0.269846
0.0776788
-0.207998
0.0690436
-0.148297
0.0674811
-0.0775248
0.0743493
0.00402736
0.0872806
0.0787312
0.102183
0.128422
0.115779
0.147699
0.126476
0.141815
0.134137
0.122086
0.139167
0.0942159
0.142483
0.0714554
0.037284
0.615848
-0.64493
-0.826615
0.449232
-0.67754
0.339455
-0.621258
0.256938
-0.527529
0.195624
-0.459698
0.15686
-0.393984
0.131451
-0.319187
0.112075
-0.250469
0.0968762
-0.1928
0.0864458
-0.137866
0.0835433
-0.0746224
0.0897707
-0.00220003
0.102995
0.0655073
0.118978
0.112439
0.134065
0.132612
0.146291
0.129589
0.155298
0.113079
0.161369
0.0881448
0.165469
0.0673551
0.0353214
0.616442
-0.452926
-0.808446
0.444557
-0.505655
0.339341
-0.516042
0.282488
-0.470676
0.234283
-0.411493
0.192519
-0.35222
0.161702
-0.28837
0.138552
-0.22732
0.120685
-0.174933
0.108336
-0.125517
0.103878
-0.0701641
0.109067
-0.00738958
0.122152
0.0524222
0.138922
0.0956695
0.155401
0.116133
0.169221
0.115768
0.179734
0.102565
0.18703
0.0808491
0.192085
0.0623
0.03285
0.665826
-0.327994
-0.790759
0.549416
-0.389244
0.45326
-0.419886
0.373641
-0.391057
0.299889
-0.337741
0.2394
-0.291731
0.19829
-0.24726
0.170525
-0.199555
0.149962
-0.15437
0.135612
-0.111167
0.129419
-0.0639718
0.133177
-0.0111475
0.145604
0.039995
0.162732
0.078542
0.180395
0.09847
0.195816
0.100347
0.207984
0.0903981
0.2167
0.0721331
0.222905
0.0560947
0.0297516
0.705278
-0.229823
-0.803449
0.590799
-0.274765
0.476926
-0.306013
0.387731
-0.301862
0.324162
-0.274172
0.275304
-0.242872
0.237423
-0.20938
0.208452
-0.170583
0.185701
-0.131619
0.16922
-0.0946858
0.161073
-0.0558254
0.163035
-0.0131088
0.174272
0.0287582
0.191252
0.0615619
0.209799
0.0799228
0.226765
0.0833806
0.240709
0.0764542
0.251045
0.0617971
0.258616
0.0485239
0.0258926
0.735592
-0.150665
-0.81475
0.645768
-0.184941
0.553776
-0.214021
0.473179
-0.221265
0.406234
-0.207228
0.347405
-0.184044
0.297292
-0.159267
0.258609
-0.1319
0.230076
-0.103086
0.21019
-0.0747998
0.199598
-0.0452338
0.199426
-0.012936
0.209031
0.0191533
0.225391
0.0452011
0.244499
0.0608145
0.262918
0.064962
0.27874
0.0606321
0.290893
0.0496444
0.300056
0.0393603
0.021129
0.76133
-0.0894899
-0.822506
0.688014
-0.111626
0.606255
-0.132262
0.526646
-0.141656
0.457418
-0.138
0.398915
-0.125541
0.349519
-0.10987
0.309789
-0.092169
0.279426
-0.0727234
0.257605
-0.0529791
0.244974
-0.032603
0.242692
-0.0106533
0.250502
0.0113427
0.265989
0.0297146
0.28546
0.0413438
0.305289
0.0451329
0.323106
0.0428146
0.337277
0.0354735
0.348267
0.0283709
0.0153143
0.795612
-0.0416607
-0.843441
0.736492
-0.0525058
0.667896
-0.0636665
0.596265
-0.0700244
0.528347
-0.0700816
0.467692
-0.0648864
0.414982
-0.0571603
0.371144
-0.0483307
0.336924
-0.0385035
0.312153
-0.0282084
0.297135
-0.0175854
0.292729
-0.00624696
0.298879
0.00519311
0.313644
0.0149488
0.333629
0.0213594
0.355051
0.0237104
0.375094
0.0227724
0.391525
0.0190425
0.404575
0.0153203
0.00830888
0.865592
-0.907253
0.813086
0.74942
0.679395
0.609314
0.544427
0.487267
0.438936
0.400433
0.372224
0.354639
0.348392
0.353585
0.368534
0.389893
0.413604
0.436376
0.455419
0.470739
0.900048
-0.00571883
-0.888251
0.9085
-0.00100234
0.912713
0.00592726
0.913185
0.00912509
0.9083
0.0182961
0.899023
0.0188976
0.880704
0.0337854
0.854228
0.0284603
0.8068
0.0526278
0.0122538
0.8734
-0.0105351
-0.868584
0.875891
-0.00349292
0.876602
0.00521582
0.873203
0.0125243
0.867939
0.02356
0.856026
0.0308106
0.844949
0.0448627
0.826597
0.046812
0.820235
0.0589899
0.0448035
0.824523
-0.0102954
-0.824763
0.823574
-0.00254392
0.822692
0.00609774
0.820932
0.0142845
0.820965
0.0235275
0.821435
0.0303406
0.827202
0.0390956
0.831365
0.0426482
0.836807
0.053548
0.0549957
0.781215
-0.00903141
-0.782479
0.780823
-0.00215132
0.78203
0.00489037
0.78465
0.0116643
0.789501
0.018676
0.794586
0.0252563
0.800224
0.0334578
0.802278
0.040594
0.805524
0.0503016
0.0520739
0.767282
-0.0069033
-0.76941
0.766064
-0.000933594
0.765786
0.00516854
0.766067
0.0113826
0.766917
0.0178263
0.767982
0.0241913
0.770768
0.0306714
0.775282
0.0360807
0.783575
0.0420086
0.04489
0.771258
-0.00393773
-0.774224
0.769305
0.00102002
0.768477
0.00599644
0.768932
0.0109269
0.771002
0.0157565
0.774813
0.020381
0.780566
0.0249181
0.787463
0.0291837
0.795636
0.0338355
0.0370771
0.775684
-0.00186209
-0.777759
0.774923
0.00178058
0.775508
0.00541108
0.777434
0.00900127
0.780657
0.0125335
0.785055
0.0159827
0.790627
0.0193466
0.797293
0.0225173
0.805514
0.0256152
0.0278408
0.778052
-0.000551033
-0.779363
0.777989
0.00184349
0.779173
0.00422683
0.781604
0.0065704
0.785291
0.00884636
0.790248
0.011026
0.796507
0.013087
0.804026
0.0149988
0.812851
0.0167896
0.0181865
0.796746
-1.51999e-05
-0.797281
0.797409
0.00118048
0.79927
0.00236562
0.802318
0.00352228
0.806531
0.0046336
0.811873
0.00568388
0.818301
0.00665913
0.825754
0.00754512
0.834207
0.00833717
0.00895257
0.858373
-0.858388
0.859553
0.861919
0.865441
0.870075
0.875759
0.882418
0.889963
0.8983
0.703136
0.0810009
-0.812283
0.75026
-0.0763628
0.77909
-0.053323
0.793083
-0.0316367
0.808602
-0.0288388
0.826105
-0.0272301
0.84302
-0.0232472
0.858983
-0.0191128
0.87412
-0.0151121
-0.0112852
0.783726
0.0498179
-0.752543
0.79457
-0.0872074
0.811744
-0.0704972
0.82103
-0.0409229
0.827242
-0.0350508
0.836018
-0.0360057
0.845878
-0.0331069
0.8548
-0.0280349
0.862456
-0.022768
-0.0174134
0.797921
0.0233604
-0.771464
0.798109
-0.0873952
0.802467
-0.0748546
0.809695
-0.0481517
0.813514
-0.0388695
0.816274
-0.0387657
0.819736
-0.0365687
0.822752
-0.0310509
0.824446
-0.0244616
-0.0177308
0.799398
0.00299749
-0.779035
0.790838
-0.0788359
0.786312
-0.070328
0.788911
-0.0507511
0.790537
-0.0404953
0.7894
-0.0376289
0.787606
-0.0347742
0.785982
-0.0294273
0.784279
-0.0227584
-0.0159309
0.822259
-0.0118786
-0.807383
0.808101
-0.0646778
0.797169
-0.0593959
0.793308
-0.0468904
0.790743
-0.0379294
0.786391
-0.033277
0.781118
-0.0295013
0.77633
-0.0246392
0.772446
-0.018875
-0.0128942
0.85181
-0.0214988
-0.84219
0.834887
-0.0477538
0.819962
-0.0444714
0.810408
-0.0373362
0.803473
-0.0309949
0.796621
-0.026425
0.789652
-0.0225319
0.783368
-0.0183559
0.77823
-0.0137366
-0.00888824
0.857452
-0.0214954
-0.857455
0.84133
-0.0316316
0.826471
-0.029613
0.815065
-0.02593
0.806227
-0.0221567
0.798605
-0.0188029
0.791739
-0.0156659
0.785834
-0.0124505
0.781146
-0.00904891
-0.0055017
0.847555
-0.0151294
-0.853921
0.834528
-0.0186039
0.822415
-0.0175002
0.812221
-0.0157363
0.803801
-0.013737
0.796699
-0.0117006
0.790669
-0.00963619
0.785716
-0.00749692
0.781926
-0.00525975
-0.0029378
0.852424
-0.00737999
-0.860174
0.842294
-0.00847354
0.83282
-0.00802648
0.824414
-0.00733069
0.81716
-0.00648203
0.811005
-0.0055461
0.805914
-0.00454557
0.801902
-0.00348476
0.799011
-0.00236849
-0.00120823
0.905854
-0.913234
0.897381
0.889354
0.882023
0.875541
0.869995
0.86545
0.861965
0.859596
0.129124
0.0388036
-0.0406226
0.134678
0.11747
-0.123024
0.144477
0.197816
-0.207614
0.158371
0.28553
-0.299424
0.177131
0.376536
-0.395296
0.199873
0.480042
-0.502784
0.22843
0.577017
-0.605574
0.282739
0.696503
-0.750813
0.472259
0.849578
-1.0391
1.14644
-1.48646
0.151121
0.0363144
0.15824
0.110351
0.171039
0.185016
0.188895
0.267674
0.214768
0.350662
0.244428
0.450382
0.290971
0.530475
0.328203
0.659271
0.549744
0.628036
0.943637
0.176693
0.0331073
0.185501
0.101543
0.202185
0.168333
0.224066
0.245793
0.260288
0.31444
0.294811
0.41586
0.37612
0.449165
0.408671
0.62672
0.592939
0.443768
0.765112
0.206408
0.0292366
0.216718
0.0912334
0.238085
0.146966
0.262507
0.221371
0.313273
0.263674
0.346227
0.382905
0.459169
0.336224
0.512721
0.573167
0.625851
0.330638
0.611928
0.240837
0.0247831
0.252375
0.0796953
0.278807
0.120534
0.303971
0.196207
0.367902
0.199743
0.405074
0.345733
0.510502
0.230796
0.611922
0.471748
0.659112
0.283449
0.463657
0.280421
0.0196592
0.293374
0.0667417
0.3226
0.0913079
0.352287
0.16652
0.412896
0.139134
0.475913
0.282716
0.536423
0.170285
0.666603
0.341568
0.707254
0.242797
0.32872
0.325605
0.0140718
0.341105
0.0512415
0.367873
0.0645398
0.408714
0.125679
0.450057
0.0977917
0.535181
0.197592
0.568037
0.137429
0.687868
0.221738
0.749669
0.180996
0.220934
0.37782
0.00885949
0.395519
0.0335423
0.4175
0.0425588
0.46372
0.0794597
0.492365
0.0691463
0.572521
0.117436
0.60957
0.10038
0.702097
0.129211
0.769418
0.113674
0.136431
0.439416
0.00435867
0.456675
0.0162831
0.476981
0.0222531
0.518599
0.0378419
0.549519
0.038226
0.612774
0.0541817
0.660525
0.0526288
0.730057
0.0596792
0.789575
0.0541561
0.0658324
0.512152
0.528435
0.550688
0.58853
0.626756
0.680938
0.733566
0.793246
0.847402
0.0716037
0.038065
-0.0389214
0.0723199
0.113555