/*--------------------------------*- C++ -*----------------------------------*\
  =========                 |
  \\      /  F ield         | OpenFOAM: The Open Source CFD Toolbox
   \\    /   O peration     | Website:  https://openfoam.org
    \\  /    A nd           | Version:  6.0
     \\/     M anipulation  |
\*---------------------------------------------------------------------------*/
FoamFile
{
    version     2.0;
    format      ascii;
    class       volVectorField;
    location    "9.25";
    object      U;
}
// * * * * * * * * * * * * * * * * * * * * * * * * * * * * * * * * * * * * * //

dimensions      [0 1 -1 0 0 0 0];

internalField   nonuniform List<vector> 
19200
(
(0.813954 -19.4216 -9.92131e-20)
(0.2288 -18.6301 4.84065e-20)
(0.232102 -17.9686 2.25215e-20)
(0.285258 -17.39 2.00385e-20)
(0.303294 -16.866 2.21344e-20)
(0.320553 -16.3739 1.32805e-21)
(0.339561 -15.9008 3.10679e-20)
(0.357164 -15.4404 -2.26881e-21)
(0.372831 -14.9903 2.67552e-20)
(0.386654 -14.55 1.1037e-20)
(0.398724 -14.12 7.82695e-23)
(0.409195 -13.7012 1.72761e-20)
(0.418262 -13.2945 2.80947e-20)
(0.426129 -12.9005 -1.89834e-20)
(0.432988 -12.5197 2.39509e-20)
(0.439007 -12.1522 2.03859e-20)
(0.444331 -11.7981 -1.91758e-20)
(0.44908 -11.4572 3.23242e-20)
(0.453353 -11.1291 -2.05611e-20)
(0.45723 -10.8135 1.01965e-20)
(0.460781 -10.51 1.41481e-20)
(0.464066 -10.2181 -4.59027e-21)
(0.467143 -9.93718 6.17115e-21)
(0.47007 -9.66674 -7.09591e-21)
(0.472902 -9.40607 -1.4382e-22)
(0.475682 -9.15436 3.60401e-21)
(0.478419 -8.91068 -2.44578e-21)
(0.481258 -8.67396 1.44875e-21)
(0.484643 -8.44303 3.40658e-21)
(0.487506 -8.21667 1.30307e-20)
(1.32106 -19.3962 -2.20683e-20)
(0.717898 -18.6297 1.47535e-19)
(0.704367 -17.9751 -7.84536e-20)
(0.74235 -17.3995 -1.06512e-19)
(0.746639 -16.8777 -4.77787e-20)
(0.750946 -16.3864 -3.388e-20)
(0.757431 -15.913 -7.32761e-20)
(0.762799 -15.4519 9.45834e-21)
(0.766474 -15.0008 -1.51641e-20)
(0.768551 -14.5593 -5.33463e-20)
(0.769149 -14.1282 -1.30976e-19)
(0.768449 -13.7083 6.31558e-20)
(0.766678 -13.3006 -2.36125e-20)
(0.764058 -12.9058 8.92449e-21)
(0.760795 -12.5243 -5.29284e-20)
(0.757061 -12.1563 -1.91564e-20)
(0.752999 -11.8017 2.2426e-21)
(0.748723 -11.4604 6.41612e-20)
(0.744321 -11.132 -3.39852e-20)
(0.739863 -10.8162 -1.87117e-20)
(0.735403 -10.5125 -7.19482e-20)
(0.730987 -10.2205 1.84075e-20)
(0.726659 -9.9395 -1.13565e-20)
(0.722459 -9.66905 1.99734e-20)
(0.718427 -9.40845 -9.13448e-21)
(0.714583 -9.15688 -1.41485e-20)
(0.710909 -8.91341 4.65539e-21)
(0.707559 -8.67694 7.06248e-21)
(0.705049 -8.44621 -1.25345e-20)
(0.70202 -8.21999 5.8764e-21)
(1.82873 -19.3588 -1.03135e-20)
(1.20686 -18.6168 2.96424e-20)
(1.17682 -17.9691 4.82375e-20)
(1.19995 -17.3969 3.68333e-19)
(1.19064 -16.8776 -2.1162e-19)
(1.18205 -16.3874 1.93275e-19)
(1.17602 -15.9141 1.18384e-19)
(1.16912 -15.4526 9.13407e-20)
(1.16076 -15.0007 -8.5366e-20)
(1.15103 -14.5584 -8.07373e-21)
(1.14009 -14.1264 2.12172e-19)
(1.12817 -13.7058 3.47429e-20)
(1.1155 -13.2974 -9.67749e-20)
(1.10235 -12.9021 7.55873e-20)
(1.08893 -12.5202 2.41375e-22)
(1.07541 -12.1519 3.15925e-20)
(1.06194 -11.7971 2.23736e-20)
(1.04862 -11.4556 7.46663e-20)
(1.03553 -11.1272 -3.30158e-20)
(1.02272 -10.8114 -1.08219e-20)
(1.01024 -10.5077 -2.77871e-20)
(0.998116 -10.2157 1.226e-19)
(0.986378 -9.93489 -1.02014e-19)
(0.975051 -9.66464 3.29383e-20)
(0.964158 -9.40429 1.49366e-20)
(0.953697 -9.15305 -6.07006e-20)
(0.943622 -8.90997 8.04765e-20)
(0.934098 -8.67393 -8.66065e-21)
(0.925703 -8.4436 -8.98555e-21)
(0.91675 -8.21774 -5.97599e-20)
(2.33462 -19.3084 -3.52749e-19)
(1.69496 -18.5912 -3.15123e-19)
(1.64898 -17.9509 -3.83698e-19)
(1.65763 -17.3824 1.20148e-20)
(1.63494 -16.8657 2.38348e-20)
(1.61354 -16.3769 -4.25947e-19)
(1.59501 -15.9041 2.01043e-20)
(1.57583 -15.4424 5.46426e-20)
(1.55537 -14.9901 -9.75489e-21)
(1.53379 -14.5472 9.13059e-20)
(1.51127 -14.1147 -3.59717e-19)
(1.48807 -13.6936 -2.20406e-19)
(1.46448 -13.2849 8.28228e-20)
(1.44076 -12.8893 1.60561e-19)
(1.41715 -12.5073 -1.86256e-19)
(1.39383 -12.1389 -2.88199e-20)
(1.37093 -11.7842 -1.08339e-19)
(1.34855 -11.4429 -5.04046e-20)
(1.32676 -11.1146 8.40879e-20)
(1.30559 -10.799 -1.06946e-19)
(1.28509 -10.4956 9.23129e-20)
(1.26526 -10.2039 -1.09214e-19)
(1.24611 -9.92342 -8.47716e-20)
(1.22766 -9.65354 -6.03128e-20)
(1.20992 -9.39363 -1.76833e-20)
(1.19285 -9.14289 -1.22461e-19)
(1.1764 -8.90039 1.27262e-20)
(1.16072 -8.66497 2.15549e-20)
(1.14646 -8.43524 -6.20565e-20)
(1.13156 -8.20994 1.3287e-20)
(2.83928 -19.2453 -2.07954e-19)
(2.18246 -18.5532 3.03378e-20)
(2.12079 -17.9204 2.65716e-19)
(2.1152 -17.3558 2.75207e-19)
(2.07927 -16.8422 1.97159e-19)
(2.04512 -16.355 8.1249e-20)
(2.0141 -15.8829 1.24169e-19)
(1.98261 -15.4213 5.61561e-19)
(1.95004 -14.9689 -3.36617e-19)
(1.91655 -14.5257 1.00582e-20)
(1.88241 -14.093 8.02544e-20)
(1.84789 -13.6717 3.37832e-19)
(1.81333 -13.263 -2.28118e-19)
(1.77903 -12.8675 1.62211e-19)
(1.74521 -12.4856 -1.77882e-19)
(1.71206 -12.1175 3.03746e-19)
(1.67973 -11.7631 -8.90566e-20)
(1.64829 -11.4222 3.35306e-21)
(1.61779 -11.0943 1.4018e-19)
(1.58828 -10.7792 9.71307e-20)
(1.55976 -10.4762 -9.89708e-20)
(1.53222 -10.185 1.32365e-19)
(1.50568 -9.90504 -5.93795e-20)
(1.48012 -9.63573 6.86147e-20)
(1.45553 -9.37644 9.06725e-20)
(1.43188 -9.12639 3.24073e-20)
(1.40906 -8.88465 9.85212e-20)
(1.38727 -8.65004 -3.63438e-20)
(1.36717 -8.42108 -1.21284e-20)
(1.34631 -8.19658 -5.5533e-20)
(3.34217 -19.1692 -1.4999e-19)
(2.66899 -18.5027 -9.83356e-20)
(2.59196 -17.8777 -2.9775e-19)
(2.57233 -17.3173 -7.69994e-19)
(2.52331 -16.8069 2.59714e-19)
(2.47649 -16.3217 1.65406e-20)
(2.43299 -15.8505 -1.7202e-19)
(2.38918 -15.3894 3.20277e-20)
(2.34445 -14.9371 -2.56786e-20)
(2.29903 -14.494 -4.25657e-19)
(2.25322 -14.0613 1.79033e-19)
(2.20736 -13.6402 3.03086e-19)
(2.16181 -13.2317 9.60656e-22)
(2.1169 -12.8366 1.09976e-19)
(2.07286 -12.4551 2.68713e-19)
(2.02989 -12.0876 -1.84086e-19)
(1.98811 -11.7337 3.20326e-19)
(1.94761 -11.3934 -1.51876e-19)
(1.90843 -11.0663 2.65901e-19)
(1.87057 -10.7518 -1.99029e-19)
(1.83403 -10.4495 8.77627e-20)
(1.79881 -10.159 2.26768e-19)
(1.76488 -9.87977 1.12801e-20)
(1.73222 -9.61121 -2.08323e-19)
(1.70082 -9.35273 1.16112e-19)
(1.6706 -9.10355 1.30296e-20)
(1.64145 -8.86275 -3.64278e-20)
(1.61357 -8.62912 1.37512e-19)
(1.58767 -8.40114 4.75459e-20)
(1.56086 -8.17766 -4.72141e-20)
(3.84306 -19.0803 4.20098e-19)
(3.15435 -18.4397 -1.07056e-20)
(3.06226 -17.8228 -6.00828e-19)
(3.02876 -17.2669 1.23708e-19)
(2.96679 -16.76 -1.67072e-19)
(2.90735 -16.2769 1.25431e-19)
(2.85138 -15.807 2.67254e-19)
(2.79523 -15.3465 4.78993e-19)
(2.73832 -14.8947 -5.12649e-19)
(2.68094 -14.452 1.26026e-19)
(2.62343 -14.0197 -8.52021e-20)
(2.56621 -13.599 6.19673e-20)
(2.50966 -13.1911 -2.77044e-19)
(2.45412 -12.7966 -1.72674e-20)
(2.39986 -12.4159 4.34497e-19)
(2.34706 -12.0491 -2.99945e-19)
(2.29586 -11.6961 -1.8736e-19)
(2.24631 -11.3567 -1.33626e-19)
(2.19844 -11.0305 2.42765e-19)
(2.15225 -10.7169 5.11938e-20)
(2.10772 -10.4155 -2.34988e-19)
(2.06482 -10.1259 3.09377e-19)
(2.02352 -9.84761 -2.78781e-19)
(1.98379 -9.58 1.81802e-19)
(1.94559 -9.3225 -1.0335e-19)
(1.90884 -9.07436 6.55412e-20)
(1.87339 -8.83468 4.83471e-20)
(1.83947 -8.60223 -2.1843e-19)
(1.80781 -8.37541 9.30986e-20)
(1.77506 -8.15317 1.30407e-21)
(4.34159 -18.9783 -4.09048e-19)
(3.63822 -18.3642 3.32742e-19)
(3.53139 -17.7556 -6.07955e-19)
(3.48421 -17.2045 1.16166e-18)
(3.40939 -16.7013 -3.23684e-19)
(3.33739 -16.2207 4.52877e-19)
(3.26897 -15.7522 -9.34424e-21)
(3.20047 -15.2928 -6.51811e-20)
(3.13136 -14.8417 -8.84647e-20)
(3.06199 -14.3997 2.94033e-22)
(2.99277 -13.9681 -3.37128e-19)
(2.92416 -13.5482 1.77114e-19)
(2.85659 -13.1411 -2.08409e-19)
(2.79043 -12.7475 -1.69937e-20)
(2.72596 -12.3678 -5.7522e-19)
(2.66335 -12.0021 1.89109e-19)
(2.60272 -11.6503 1.06187e-19)
(2.54414 -11.312 -1.21463e-19)
(2.48761 -10.9869 -1.44676e-20)
(2.43311 -10.6745 -1.8202e-19)
(2.38061 -10.3743 -6.43935e-20)
(2.33006 -10.0858 4.87808e-21)
(2.28141 -9.80858 -1.55237e-19)
(2.23464 -9.5421 -2.2798e-19)
(2.18968 -9.28576 1.02257e-20)
(2.14642 -9.03885 -2.61927e-20)
(2.10472 -8.80046 7.01214e-20)
(2.06481 -8.56937 -1.71668e-19)
(2.02744 -8.3439 1.45106e-19)
(1.98876 -8.12312 -2.73834e-19)
(4.83744 -18.8635 -1.00658e-18)
(4.12028 -18.2761 1.20531e-18)
(3.99906 -17.6763 -1.26538e-18)
(3.93837 -17.1301 -3.39359e-19)
(3.85083 -16.6309 -2.12819e-19)
(3.76632 -16.153 -2.32024e-19)
(3.68546 -15.6863 -2.11979e-19)
(3.6046 -15.2281 -4.72412e-20)
(3.52328 -14.7781 -2.13563e-19)
(3.4419 -14.3371 -4.17335e-20)
(3.36095 -13.9065 3.46449e-19)
(3.28095 -13.4877 -2.00984e-19)
(3.20237 -13.0817 -2.31422e-19)
(3.12559 -12.6894 -3.84813e-19)
(3.05091 -12.311 8.06391e-19)
(2.9785 -11.9467 -3.06802e-19)
(2.90848 -11.5963 1.13947e-19)
(2.84089 -11.2594 -4.2037e-19)
(2.77572 -10.9357 1.6259e-19)
(2.71294 -10.6246 -6.4632e-20)
(2.65249 -10.3257 8.30784e-20)
(2.59432 -10.0386 -2.70272e-20)
(2.53837 -9.76269 2.51741e-19)
(2.48458 -9.49753 -8.84788e-20)
(2.43288 -9.24254 2.43434e-19)
(2.38317 -8.99703 -4.56247e-20)
(2.33526 -8.76011 3.13262e-19)
(2.28941 -8.53054 8.43303e-20)
(2.24639 -8.3066 1.56681e-19)
(2.20182 -8.08753 -4.79908e-19)
(5.33028 -18.7359 1.5884e-18)
(4.60023 -18.1755 -3.07958e-19)
(4.46495 -17.5847 5.43148e-19)
(4.39094 -17.0438 -1.51571e-19)
(4.29079 -16.5488 5.35418e-19)
(4.19383 -16.0738 5.00436e-19)
(4.10055 -15.6092 5.6016e-19)
(4.00733 -15.1526 -4.37018e-20)
(3.91377 -14.7039 -5.29345e-19)
(3.82038 -14.2642 7.76189e-19)
(3.7277 -13.835 -5.56796e-20)
(3.6363 -13.4175 5.3651e-19)
(3.54671 -13.0131 1.92821e-19)
(3.45934 -12.6223 7.163e-20)
(3.37447 -12.2455 1.08731e-19)
(3.29229 -11.8828 1.52461e-19)
(3.2129 -11.534 2.49264e-19)
(3.13633 -11.1988 -7.03888e-20)
(3.06256 -10.8767 3.61764e-19)
(2.99153 -10.5673 1.63658e-19)
(2.92317 -10.27 -3.40426e-19)
(2.85741 -9.98436 5.99547e-19)
(2.79418 -9.70996 -7.85693e-19)
(2.73341 -9.44631 7.36566e-19)
(2.67503 -9.19284 -2.42513e-19)
(2.61889 -8.94891 4.74869e-20)
(2.56483 -8.71364 -3.13362e-19)
(2.5131 -8.48577 1.75443e-19)
(2.46449 -8.26355 6.1585e-20)
(2.41409 -8.04641 -7.3246e-20)
(5.81976 -18.5955 -8.99346e-19)
(5.07774 -18.0624 8.64324e-19)
(4.92874 -17.4809 -2.34954e-19)
(4.84161 -16.9455 6.70514e-19)
(4.72897 -16.455 6.70967e-20)
(4.61962 -15.9832 1.36033e-19)
(4.51393 -15.5209 -1.12979e-18)
(4.40835 -15.0662 -1.9874e-19)
(4.30256 -14.6192 7.12899e-19)
(4.19714 -14.1811 5.3036e-19)
(4.09273 -13.7535 -9.02687e-19)
(3.98995 -13.3378 5.21068e-19)
(3.88937 -12.9351 -5.17908e-19)
(3.79141 -12.5461 3.4989e-19)
(3.69639 -12.1712 -5.86011e-19)
(3.60447 -11.8105 -4.28537e-19)
(3.51575 -11.4636 2.89832e-20)
(3.43024 -11.1303 -1.91539e-19)
(3.3479 -10.8101 3.43446e-19)
(3.26866 -10.5025 1.35785e-19)
(3.19244 -10.207 -8.90048e-20)
(3.11913 -9.92313 -2.53482e-20)
(3.04866 -9.65044 1.01336e-19)
(2.98095 -9.38848 -3.4117e-19)
(2.91592 -9.13671 5.587e-19)
(2.85342 -8.89452 -1.37298e-19)
(2.79325 -8.66108 -9.48941e-21)
(2.73572 -8.4351 4.75727e-19)
(2.68159 -8.21477 6.13551e-20)
(2.6254 -7.99978 -6.64597e-20)
(6.30557 -18.4423 3.75232e-20)
(5.55248 -17.9369 -4.89825e-19)
(5.39014 -17.365 -4.41302e-19)
(5.29007 -16.8353 -7.29311e-19)
(5.16505 -16.3495 2.66917e-20)
(5.04337 -15.8812 -5.10797e-19)
(4.9253 -15.4215 6.07108e-19)
(4.80736 -14.969 -6.18698e-20)
(4.68934 -14.5239 4.72216e-19)
(4.5719 -14.0878 -3.97648e-19)
(4.45576 -13.6621 -1.99706e-19)
(4.34162 -13.2484 1.08573e-19)
(4.23007 -12.8478 5.8229e-20)
(4.12156 -12.461 -5.81639e-19)
(4.01641 -12.0883 3.41508e-19)
(3.9148 -11.7297 -1.64713e-19)
(3.81679 -11.3851 4.71165e-19)
(3.72239 -11.0539 -1.53344e-19)
(3.63153 -10.7359 1.58819e-19)
(3.54413 -10.4303 3.91981e-20)
(3.46007 -10.1368 2.66074e-19)
(3.37927 -9.85493 -5.4751e-20)
(3.30161 -9.58416 4.3084e-19)
(3.22701 -9.32407 -4.79599e-19)
(3.15538 -9.07418 -1.60667e-19)
(3.08656 -8.83391 1.29913e-19)
(3.02035 -8.60245 -1.27685e-20)
(2.95708 -8.37853 -2.22668e-19)
(2.89751 -8.16027 1.7845e-19)
(2.8356 -7.94768 -2.05037e-19)
(6.78736 -18.2765 1.50531e-18)
(6.02413 -17.799 3.99759e-19)
(5.8488 -17.2369 4.80211e-19)
(5.73599 -16.7132 6.36008e-19)
(5.59873 -16.2324 9.52287e-19)
(5.46477 -15.7677 -3.0142e-20)
(5.33435 -15.3109 1.40288e-19)
(5.20407 -14.8609 1.03348e-18)
(5.07382 -14.4182 -2.15152e-19)
(4.94437 -13.9843 -3.75831e-19)
(4.81652 -13.5609 6.53728e-19)
(4.69104 -13.1495 1.06893e-19)
(4.56855 -12.7513 5.25882e-21)
(4.44953 -12.367 1.54673e-19)
(4.33431 -11.9967 2.69682e-19)
(4.22304 -11.6407 -5.48427e-19)
(4.11579 -11.2985 4.65515e-19)
(4.01254 -10.9697 7.66388e-20)
(3.91322 -10.654 4.43999e-19)
(3.8177 -10.3508 -2.41955e-19)
(3.72588 -10.0596 3.91313e-19)
(3.63762 -9.77982 -4.14373e-19)
(3.55282 -9.51115 3.96739e-19)
(3.47138 -9.25312 5.28054e-20)
(3.39321 -9.00529 -2.64133e-19)
(3.31813 -8.7671 -8.36387e-20)
(3.24594 -8.53781 4.92759e-19)
(3.177 -8.3161 3.57331e-19)
(3.11209 -8.10011 9.36595e-20)
(3.04454 -7.89013 -6.18106e-20)
(7.26481 -18.0982 1.49058e-19)
(6.49236 -17.6487 3.41001e-19)
(6.30442 -17.0967 1.38864e-18)
(6.17907 -16.5792 -2.26689e-18)
(6.02968 -16.1036 -2.19244e-19)
(5.88352 -15.6429 -2.42262e-19)
(5.74078 -15.1893 1.07492e-19)
(5.59817 -14.742 1.36572e-19)
(5.45571 -14.302 2.27388e-19)
(5.31426 -13.8706 -6.10975e-19)
(5.17473 -13.4498 -1.12686e-19)
(5.03794 -13.0412 3.34597e-19)
(4.90455 -12.6457 3.5364e-19)
(4.77507 -12.264 -3.56631e-19)
(4.64981 -11.8966 -3.44017e-19)
(4.52894 -11.5433 5.63331e-19)
(4.41251 -11.2038 3.59872e-19)
(4.30048 -10.8778 -9.64515e-20)
(4.19274 -10.5647 -2.28292e-19)
(4.08918 -10.264 3.91863e-20)
(3.98964 -9.9752 -5.13113e-19)
(3.89398 -9.69783 6.13092e-19)
(3.80209 -9.43146 -4.16729e-19)
(3.71387 -9.17569 -1.59885e-20)
(3.62921 -8.93009 2.6914e-19)
(3.54793 -8.69415 -8.34008e-20)
(3.46983 -8.46718 -2.48259e-19)
(3.39531 -8.24787 3.06245e-19)
(3.32514 -8.03432 -9.26552e-21)
(3.25204 -7.82718 4.78212e-20)
(7.73758 -17.9075 -1.15904e-19)
(6.95684 -17.4862 -3.62979e-19)
(6.75667 -16.9445 -1.59506e-18)
(6.61898 -16.4335 5.76331e-19)
(6.4576 -15.9633 -1.70156e-19)
(6.2993 -15.5068 5.62e-19)
(6.14427 -15.0566 4.05417e-20)
(5.98936 -14.6125 -6.29571e-19)
(5.83471 -14.1753 9.43839e-19)
(5.6813 -13.7469 -8.4798e-19)
(5.53012 -13.329 -3.01319e-20)
(5.38205 -12.9233 1.99903e-19)
(5.23781 -12.5308 -3.44821e-19)
(5.09791 -12.1523 3.84561e-19)
(4.96268 -11.7879 -7.33347e-19)
(4.83228 -11.4376 -1.60565e-19)
(4.70673 -11.1011 4.37454e-19)
(4.58597 -10.778 7.26156e-22)
(4.46989 -10.4678 -2.66884e-19)
(4.35833 -10.1699 7.24384e-19)
(4.25113 -9.8838 -3.88921e-19)
(4.14814 -9.60902 -5.1301e-19)
(4.04923 -9.34516 1.69131e-19)
(3.95428 -9.09182 -4.86634e-19)
(3.86318 -8.84862 -1.14424e-19)
(3.77577 -8.61511 -1.33366e-20)
(3.69183 -8.39062 -3.05693e-19)
(3.61183 -8.17388 3.6707e-19)
(3.53649 -7.96293 -2.01265e-19)
(3.45796 -7.7589 2.17645e-19)
(8.20535 -17.7045 -5.28769e-19)
(7.41726 -17.3115 -1.43903e-18)
(7.20524 -16.7803 6.83363e-19)
(7.05542 -16.2759 -6.44083e-19)
(6.88216 -15.8114 -4.72531e-19)
(6.7118 -15.3594 -2.67066e-19)
(6.54453 -14.913 -9.79431e-19)
(6.37735 -14.4722 6.62032e-19)
(6.21053 -14.0383 -1.6127e-18)
(6.04518 -13.6131 -5.71365e-19)
(5.88239 -13.1985 2.13014e-19)
(5.7231 -12.7961 3.42487e-19)
(5.56807 -12.407 -8.62338e-21)
(5.41782 -12.0317 -6.40067e-19)
(5.27268 -11.6707 1.48559e-19)
(5.1328 -11.3237 -5.64654e-19)
(4.99819 -10.9905 -4.00662e-19)
(4.86878 -10.6706 -2.35529e-19)
(4.74442 -10.3635 -4.31544e-20)
(4.62494 -10.0686 4.04109e-19)
(4.51015 -9.78542 5.68381e-19)
(4.39989 -9.51345 -1.68678e-19)
(4.29401 -9.25229 -1.58326e-19)
(4.19239 -9.00158 3.0859e-19)
(4.09493 -8.76096 1.69678e-19)
(4.00145 -8.53004 -1.34131e-19)
(3.91175 -8.3082 -1.46525e-19)
(3.82634 -8.09417 1.74413e-20)
(3.74595 -7.88602 1.49992e-19)
(3.66209 -7.68531 1.91327e-19)
(8.6678 -17.4892 -9.63119e-20)
(7.8733 -17.1247 1.79952e-18)
(7.64982 -16.6042 1.36705e-18)
(7.48806 -16.1067 1.05347e-18)
(7.30306 -15.6481 -6.82363e-19)
(7.1207 -15.2008 -1.35987e-19)
(6.94124 -14.7584 1.27531e-19)
(6.76182 -14.3213 8.32802e-19)
(6.58288 -13.891 3.0963e-19)
(6.40564 -13.4694 7.42298e-19)
(6.23129 -13.0584 -1.01916e-18)
(6.06083 -12.6595 1.07053e-19)
(5.89506 -12.274 4.07267e-19)
(5.73452 -11.9025 2.43069e-19)
(5.57955 -11.5451 4.99398e-19)
(5.43027 -11.2017 -3.43861e-19)
(5.28668 -10.872 -3.11748e-19)
(5.14869 -10.5556 6.29775e-20)
(5.01612 -10.2518 6.51918e-19)
(4.88879 -9.96016 -1.04547e-18)
(4.76648 -9.68011 3.63499e-19)
(4.64902 -9.41116 -1.96856e-21)
(4.53624 -9.15291 6.65265e-19)
(4.42802 -8.90502 -2.88845e-19)
(4.32425 -8.66717 -1.66174e-20)
(4.22477 -8.439 -1.77435e-19)
(4.12939 -8.21998 1.67742e-19)
(4.03866 -8.00883 4.08543e-20)
(3.95331 -7.80364 -1.7846e-19)
(3.86426 -7.60648 5.69928e-19)
(9.12461 -17.2619 -1.9076e-18)
(8.32463 -16.9259 -1.08882e-18)
(8.09008 -16.4163 -2.75269e-18)
(7.91659 -15.9259 -1.22499e-18)
(7.71998 -15.4734 1.13798e-18)
(7.52571 -15.0311 -6.56238e-19)
(7.3341 -14.593 -1.48123e-19)
(7.1425 -14.1599 -4.2183e-19)
(6.95147 -13.7335 7.10628e-19)
(6.76239 -13.3157 -1.57841e-19)
(6.57653 -12.9086 -2.48288e-19)
(6.39497 -12.5137 -3.10732e-20)
(6.21853 -12.1322 -9.79966e-19)
(6.04778 -11.7646 -3.17981e-20)
(5.88305 -11.4111 2.62032e-19)
(5.72445 -11.0715 -2.69348e-20)
(5.57196 -10.7457 -9.67646e-19)
(5.42546 -10.4329 9.34031e-19)
(5.28477 -10.1328 -9.0491e-19)
(5.14965 -9.84463 3.50736e-19)
(5.0199 -9.56794 4.89776e-20)
(4.8953 -9.30223 1.99209e-20)
(4.77569 -9.0471 -3.57487e-19)
(4.66093 -8.80222 1.17115e-19)
(4.55093 -8.56731 -2.38039e-22)
(4.44551 -8.34207 3.69026e-20)
(4.34452 -8.12602 -8.51414e-19)
(4.24857 -7.91792 2.33817e-19)
(4.15838 -7.71585 2.46167e-19)
(4.06428 -7.5225 2.51309e-19)
(9.57546 -17.0227 3.69105e-18)
(8.77096 -16.7152 1.22752e-18)
(8.52573 -16.2167 7.07676e-19)
(8.3407 -15.7336 1.12065e-18)
(8.13261 -15.2873 -1.38003e-19)
(7.92652 -14.8503 8.14034e-19)
(7.72282 -14.4168 1.78656e-18)
(7.51907 -13.9881 -2.324e-19)
(7.31601 -13.5659 9.4757e-20)
(7.11515 -13.1523 2.01145e-18)
(6.91785 -12.7494 -2.69134e-19)
(6.72525 -12.3588 2.69239e-19)
(6.53822 -11.9815 -9.4667e-20)
(6.35735 -11.6181 -1.25562e-21)
(6.18293 -11.2688 1.36336e-18)
(6.0151 -10.9334 5.28999e-20)
(5.85379 -10.6116 1.41197e-18)
(5.69887 -10.3028 -1.83313e-19)
(5.55013 -10.0065 -2.9728e-19)
(5.40731 -9.72206 6.8949e-19)
(5.27018 -9.44896 -6.22471e-19)
(5.13852 -9.18671 6.7913e-19)
(5.01214 -8.93491 3.60659e-19)
(4.89091 -8.69324 -2.87523e-19)
(4.77474 -8.46146 4.34798e-19)
(4.66346 -8.23931 5.0575e-20)
(4.55693 -8.02641 -1.73117e-19)
(4.45586 -7.82151 9.83989e-20)
(4.36094 -7.62275 6.21205e-19)
(4.26194 -7.43343 8.95239e-20)
(10.0201 -16.7717 -6.35197e-19)
(9.21198 -16.4928 -1.23514e-18)
(8.95647 -16.0055 4.92609e-19)
(8.7601 -15.5298 -1.98929e-18)
(8.54064 -15.09 9.25043e-19)
(8.32281 -14.6585 -1.67696e-18)
(8.10709 -14.2299 -1.07635e-18)
(7.89125 -13.8058 2.98018e-19)
(7.67623 -13.3881 2.75524e-19)
(7.46364 -12.9791 -1.39561e-18)
(7.25497 -12.5807 -5.90944e-19)
(7.05142 -12.1947 2.60188e-19)
(6.85389 -11.8219 -7.31851e-19)
(6.66297 -11.4631 -2.85675e-19)
(6.47897 -11.1183 -1.8887e-19)
(6.30198 -10.7873 -1.8894e-19)
(6.13195 -10.4698 -7.71886e-19)
(5.96869 -10.1652 -4.74598e-19)
(5.81198 -9.873 8.91769e-20)
(5.66154 -9.59253 1.53045e-19)
(5.51711 -9.32325 1.56331e-19)
(5.37846 -9.06467 -5.50349e-19)
(5.24538 -8.81641 2.01962e-19)
(5.11775 -8.57815 -4.1714e-19)
(4.99546 -8.34968 3.83215e-19)
(4.87838 -8.13082 -5.05815e-19)
(4.7664 -7.92121 1.52362e-19)
(4.66028 -7.71968 -2.45564e-19)
(4.56074 -7.52441 -3.39531e-19)
(4.45702 -7.33937 -3.30425e-20)
(10.4581 -16.509 -1.32032e-18)
(9.6474 -16.2587 -1.10072e-18)
(9.38199 -15.7828 -1.06305e-18)
(9.17447 -15.3147 -7.59509e-19)
(8.94378 -14.8816 2.34675e-18)
(8.71429 -14.4559 3.16287e-19)
(8.48661 -14.0325 9.71354e-19)
(8.25876 -13.6133 1.45962e-18)
(8.03182 -13.2005 6.85796e-19)
(7.80759 -12.7963 -9.13225e-19)
(7.58763 -12.4028 1.42226e-18)
(7.37322 -12.0216 -1.37869e-18)
(7.16528 -11.6537 1.27586e-18)
(6.96441 -11.2997 1.42348e-19)
(6.77092 -10.9596 3.1569e-19)
(6.58488 -10.6333 1.02646e-19)
(6.4062 -10.3204 1.24615e-18)
(6.2347 -10.0203 -1.85542e-19)
(6.07009 -9.73236 1.60614e-19)
(5.91211 -9.45607 5.37826e-19)
(5.76046 -9.19084 -5.95972e-19)
(5.61488 -8.93616 4.65134e-19)
(5.47517 -8.69165 1.41407e-20)
(5.34119 -8.45701 2.05042e-19)
(5.21286 -8.23206 3.69304e-19)
(5.09004 -8.01665 -6.4375e-20)
(4.97267 -7.81052 3.59206e-19)
(4.86159 -7.61252 5.08657e-19)
(4.75754 -7.42092 -5.53416e-19)
(4.64924 -7.24041 -3.11246e-19)
(10.8893 -16.2349 3.81832e-18)
(10.0769 -16.0133 -4.03991e-19)
(9.80201 -15.5488 8.19036e-19)
(9.58352 -15.0883 1.48241e-18)
(9.34172 -14.6622 -4.18433e-18)
(9.10066 -14.2424 4.40586e-19)
(8.8611 -13.8245 -1.53959e-18)
(8.62129 -13.4106 1.49404e-18)
(8.38253 -13.0029 -1.18246e-18)
(8.14673 -12.6039 6.1483e-19)
(7.91558 -12.2156 -2.24232e-18)
(7.69039 -11.8396 7.97655e-20)
(7.47215 -11.4769 -7.05939e-19)
(7.26143 -11.1279 1.06493e-18)
(7.05855 -10.7929 -1.12139e-18)
(6.86355 -10.4715 -6.26245e-20)
(6.67633 -10.1634 -8.80483e-19)
(6.49666 -9.86798 -6.63323e-20)
(6.32426 -9.58463 6.50699e-20)
(6.15881 -9.31276 1.84432e-19)
(6 -9.05179 -1.0419e-18)
(5.84757 -8.80123 -2.95589e-20)
(5.70129 -8.56069 -5.68052e-19)
(5.56102 -8.32989 -1.33025e-19)
(5.42669 -8.10864 -3.39804e-19)
(5.29818 -7.89689 -3.65341e-19)
(5.17547 -7.69442 -3.72428e-19)
(5.0595 -7.50012 6.18613e-19)
(4.95104 -7.31236 1.62844e-19)
(4.83836 -7.13663 -2.96694e-19)
(11.3135 -15.9495 -2.54016e-18)
(10.5004 -15.7565 8.9353e-19)
(10.2163 -15.3034 -1.49477e-18)
(9.98696 -14.8508 2.24985e-19)
(9.73416 -14.4318 2.35308e-18)
(9.48162 -14.0183 -1.18419e-18)
(9.23026 -13.6061 -1.19875e-18)
(8.97857 -13.1977 -1.02228e-18)
(8.72806 -12.7956 5.44706e-20)
(8.48079 -12.4021 6.41439e-19)
(8.23854 -12.0193 -4.53745e-19)
(8.0027 -11.6487 2.93115e-20)
(7.77425 -11.2915 1.34689e-18)
(7.55381 -10.9479 -6.76835e-19)
(7.34164 -10.6182 1.68127e-19)
(7.13779 -10.302 -5.30877e-19)
(6.94212 -9.99895 2.00725e-19)
(6.75438 -9.70844 4.33549e-19)
(6.57426 -9.42987 4.70356e-19)
(6.40142 -9.16263 -5.15603e-19)
(6.23552 -8.90615 8.0479e-20)
(6.07629 -8.65993 4.29086e-19)
(5.92349 -8.42358 7.34734e-19)
(5.77698 -8.19682 1.84812e-19)
(5.63669 -7.9795 -7.39443e-19)
(5.50254 -7.7716 8.49165e-19)
(5.37454 -7.57299 -4.23738e-19)
(5.25375 -7.38258 -4.96633e-19)
(5.14097 -7.19884 -3.02049e-19)
(5.02409 -7.02812 -3.78996e-19)
(11.7303 -15.653 1.32515e-18)
(10.9174 -15.4886 -1.01629e-18)
(10.6244 -15.047 3.96804e-19)
(10.3845 -14.6023 1.99047e-18)
(10.1208 -14.1906 5.2854e-19)
(9.85688 -13.7836 -4.47634e-19)
(9.5938 -13.3775 1.07418e-18)
(9.33032 -12.975 2.60961e-19)
(9.06815 -12.5787 9.7037e-19)
(8.80951 -12.1909 5.27756e-19)
(8.55628 -11.8139 2.24218e-20)
(8.30989 -11.4492 3.21457e-19)
(8.07136 -11.0977 -1.01278e-19)
(7.8413 -10.7598 1.7289e-19)
(7.61997 -10.4356 4.64425e-19)
(7.40738 -10.1249 -2.53906e-19)
(7.20336 -9.82707 6.14869e-19)
(7.00765 -9.5417 6.16881e-19)
(6.81989 -9.26813 -6.96405e-19)
(6.63972 -9.00573 7.09371e-19)
(6.4668 -8.75395 1.48113e-18)
(6.30081 -8.51227 -9.48459e-19)
(6.14153 -8.28032 9.36488e-19)
(5.9888 -8.05782 -6.55967e-19)
(5.84257 -7.84466 -8.98046e-20)
(5.70279 -7.64083 6.79859e-19)
(5.56954 -7.4463 -1.39663e-19)
(5.44397 -7.25998 4.99641e-19)
(5.32696 -7.0805 4.89481e-19)
(5.20609 -6.91516 -9.12526e-19)
(12.1397 -15.3456 -1.27445e-18)
(11.3278 -15.2096 5.79915e-19)
(11.0263 -14.7795 2.3269e-19)
(10.7758 -14.3429 -2.30406e-18)
(10.5014 -13.9387 -1.16849e-18)
(10.2262 -13.5385 8.60034e-19)
(9.95143 -13.1387 -2.35251e-18)
(9.67625 -12.7424 2.79198e-18)
(9.40253 -12.3522 -1.55283e-18)
(9.13263 -11.9706 1.83853e-19)
(8.86853 -11.5997 -2.96127e-19)
(8.61173 -11.2411 -8.40235e-19)
(8.36326 -10.8956 1.71595e-18)
(8.12371 -10.5636 6.31222e-19)
(7.89333 -10.2452 -6.60915e-19)
(7.67212 -9.94013 1.61162e-20)
(7.45987 -9.64785 3.50517e-19)
(7.25627 -9.36782 -7.56603e-19)
(7.06096 -9.09944 1.58499e-19)
(6.87354 -8.84209 5.0642e-19)
(6.69364 -8.59519 -2.15241e-19)
(6.52093 -8.35826 3.39542e-19)
(6.35518 -8.13091 -6.68869e-19)
(6.19622 -7.91288 9.48735e-19)
(6.04403 -7.70408 2.12719e-19)
(5.89858 -7.50456 -5.92009e-19)
(5.76004 -7.31433 -5.01209e-19)
(5.62967 -7.13235 5.12561e-21)
(5.5084 -6.95743 6.78955e-19)
(5.38359 -6.79795 -1.52241e-19)
(12.5415 -15.0273 -3.49387e-19)
(11.7314 -14.9197 -2.34242e-18)
(11.4215 -14.5011 2.7795e-18)
(11.1607 -14.0727 1.84635e-18)
(10.8756 -13.6762 1.80395e-18)
(10.5891 -13.2831 4.80786e-19)
(10.3029 -12.8899 7.28543e-19)
(10.0161 -12.5001 3.59542e-19)
(9.73093 -12.1164 -1.42859e-18)
(9.4499 -11.7412 2.58251e-18)
(9.17507 -11.3768 -2.0278e-18)
(8.90799 -11.0245 -1.27535e-19)
(8.64971 -10.6853 2.91275e-19)
(8.40082 -10.3595 -1.24681e-18)
(8.16153 -10.0472 1.08359e-18)
(7.93182 -9.74792 -3.28792e-19)
(7.71145 -9.46135 -8.1007e-19)
(7.50007 -9.18687 3.03136e-19)
(7.29729 -8.92387 -5.89667e-19)
(7.10269 -8.67173 -5.13995e-19)
(6.91586 -8.42989 -5.37948e-19)
(6.73647 -8.19787 1.21691e-19)
(6.56424 -7.9753 6.24211e-20)
(6.39903 -7.76193 -1.27407e-18)
(6.24081 -7.55769 -4.73389e-19)
(6.08959 -7.36268 3.08987e-19)
(5.94562 -7.17697 3.7356e-19)
(5.8103 -6.9996 -5.13414e-19)
(5.68454 -6.82958 -1.92602e-19)
(5.55565 -6.67615 1.43225e-20)
(12.9359 -14.6985 -3.15612e-19)
(12.1281 -14.6191 1.51794e-18)
(11.8098 -14.2119 -4.32075e-19)
(11.5388 -13.7918 -5.26197e-19)
(11.2431 -13.4033 -2.77831e-18)
(10.9455 -13.0174 -5.92658e-19)
(10.6478 -12.6312 1.11583e-18)
(10.3495 -12.2482 -7.27942e-19)
(10.0531 -11.8713 -7.5404e-20)
(9.76104 -11.5029 -1.458e-19)
(9.47563 -11.1452 7.65616e-19)
(9.19844 -10.7996 -1.19339e-18)
(8.93051 -10.4669 -7.8273e-19)
(8.67242 -10.1476 9.05808e-19)
(8.42438 -9.84149 -5.07619e-19)
(8.18631 -9.54834 -6.03007e-19)
(7.95794 -9.26767 1.27578e-18)
(7.7389 -8.9989 -2.03223e-19)
(7.52875 -8.74143 7.2615e-19)
(7.32703 -8.49466 -6.61339e-19)
(7.13332 -8.25803 -5.222e-19)
(6.94726 -8.03108 4.54119e-19)
(6.76856 -7.81345 -5.34844e-20)
(6.59707 -7.60491 -3.28283e-19)
(6.43275 -7.40542 2.87552e-19)
(6.27567 -7.21515 -8.77154e-19)
(6.12615 -7.03426 5.35419e-19)
(5.98569 -6.86181 -8.78731e-21)
(5.85525 -6.69687 -5.41594e-19)
(5.7224 -6.54922 7.67129e-19)
(13.3236 -14.36 1.19795e-18)
(12.518 -14.308 -2.96489e-18)
(12.191 -13.9119 -2.39234e-19)
(11.9097 -13.5002 1.32692e-18)
(11.6036 -13.1199 -3.29776e-19)
(11.295 -12.7416 -9.29274e-19)
(10.9859 -12.3627 4.2008e-19)
(10.6763 -11.9869 4.78954e-19)
(10.3686 -11.6171 3.64621e-20)
(10.0658 -11.2558 5.717e-19)
(9.76997 -10.9052 1.80182e-18)
(9.48283 -10.5665 -6.3258e-19)
(9.20543 -10.2407 1.52758e-19)
(8.93833 -9.92797 -4.0462e-19)
(8.68169 -9.62835 1.54265e-18)
(8.43542 -9.34148 -2.74607e-19)
(8.1992 -9.06688 8.8639e-19)
(7.97261 -8.80398 -3.40883e-19)
(7.75519 -8.55218 3.59736e-19)
(7.54643 -8.31088 5.37617e-19)
(7.34588 -8.07957 8.92124e-20)
(7.15313 -7.85778 3.51077e-19)
(6.9679 -7.64519 -2.85051e-19)
(6.79003 -7.44162 7.9021e-19)
(6.61949 -7.24708 -3.19021e-19)
(6.4564 -7.06188 1.15152e-18)
(6.30125 -6.88625 -3.32758e-19)
(6.15573 -6.71917 2.24515e-19)
(6.02088 -6.5598 -4.21636e-19)
(5.88474 -6.41923 7.40402e-19)
(13.7056 -14.0121 -2.64844e-18)
(12.9014 -13.986 1.02762e-19)
(12.5649 -13.6009 -1.46501e-18)
(12.2732 -13.198 2.59472e-19)
(11.9567 -12.8262 7.34112e-20)
(11.6372 -12.456 -1.21751e-18)
(11.3169 -12.0847 -2.26066e-18)
(10.996 -11.7164 1.10885e-18)
(10.6774 -11.354 -1.55797e-18)
(10.3639 -11.0002 -8.01819e-19)
(10.0579 -10.6569 -4.47848e-19)
(9.76099 -10.3254 -3.431e-19)
(9.4743 -10.0067 2.20318e-21)
(9.19837 -9.70086 -1.2265e-18)
(8.93332 -9.40792 7.74194e-19)
(8.67902 -9.12751 -1.27894e-18)
(8.43511 -8.85913 -3.19513e-19)
(8.20114 -8.60222 3.38628e-19)
(7.97656 -8.35617 4.21101e-19)
(7.76085 -8.12042 4.12011e-19)
(7.5535 -7.89443 3.12332e-19)
(7.35405 -7.6778 -7.7779e-19)
(7.16215 -7.47021 7.71518e-19)
(6.97758 -7.27155 -8.36761e-20)
(6.8003 -7.08196 -2.02678e-19)
(6.63048 -6.90192 -7.92398e-19)
(6.46892 -6.73174 -4.14387e-19)
(6.31771 -6.57049 7.62364e-19)
(6.17775 -6.4188 -2.53105e-19)
(6.03768 -6.29159 -2.41032e-19)
(14.081 -13.6526 1.16347e-18)
(13.2777 -13.6516 1.16601e-19)
(12.9311 -13.2786 -2.83725e-19)
(12.6288 -12.8853 -5.5232e-20)
(12.3022 -12.5226 -4.83668e-19)
(11.972 -12.1608 1.64756e-18)
(11.6406 -11.7975 -7.6087e-19)
(11.3088 -11.437 5.0063e-19)
(10.9793 -11.0825 2.06112e-19)
(10.6553 -10.7363 7.0685e-19)
(10.3393 -10.4006 -2.60939e-19)
(10.0328 -10.0767 1.48504e-18)
(9.73704 -9.7652 -1.24858e-19)
(9.45247 -9.4665 9.2705e-19)
(9.17922 -9.18043 -1.53516e-18)
(8.91708 -8.90664 -1.05801e-19)
(8.66567 -8.64463 9.66384e-19)
(8.42448 -8.39382 -5.92394e-19)
(8.19294 -8.1536 -4.11158e-19)
(7.97045 -7.9234 -6.97437e-19)
(7.75644 -7.7027 -5.96479e-19)
(7.55037 -7.49108 6.44029e-19)
(7.35178 -7.28824 -5.88579e-19)
(7.16029 -7.09408 1.2989e-19)
(6.97562 -6.90882 4.6865e-19)
(6.79775 -6.73301 3.19865e-19)
(6.62741 -6.56701 2.94499e-19)
(6.46635 -6.4109 2.15744e-19)
(6.31408 -6.26958 -5.83665e-19)
(6.16267 -6.16043 -2.33902e-19)
(19.7661 0.303364 1.44049e-20)
(19.7584 -0.217513 1.3881e-19)
(19.7375 -0.7362 4.82426e-19)
(19.7047 -1.25303 2.62289e-19)
(19.6594 -1.76815 -5.6298e-19)
(19.6011 -2.28141 1.69641e-19)
(19.5295 -2.79258 -1.75675e-19)
(19.4446 -3.30141 -4.47441e-19)
(19.3465 -3.80761 1.16231e-18)
(19.2353 -4.31089 -2.77387e-19)
(19.111 -4.81091 -2.73519e-19)
(18.9738 -5.30736 -5.91638e-19)
(18.8236 -5.7999 -1.71228e-18)
(18.6606 -6.28822 1.57735e-19)
(18.485 -6.77197 -6.38936e-20)
(18.2968 -7.25085 -5.57449e-19)
(18.0963 -7.72453 1.16227e-18)
(17.8835 -8.19269 6.43112e-19)
(17.6586 -8.65502 1.21943e-18)
(17.4218 -9.11122 5.95269e-19)
(17.1733 -9.56098 -1.3695e-18)
(16.9132 -10.004 5.64977e-20)
(16.6418 -10.44 -2.61789e-18)
(16.3592 -10.8688 3.98543e-18)
(16.0656 -11.29 -1.30501e-18)
(15.7614 -11.7034 -1.72718e-18)
(15.4466 -12.1089 -2.58739e-19)
(15.122 -12.5062 -3.4877e-20)
(14.7865 -12.8961 -1.35335e-18)
(14.4439 -13.2768 2.37093e-18)
(19.3776 -0.269101 5.43844e-20)
(19.3536 -0.778268 7.84581e-20)
(19.3156 -1.28496 1.73882e-20)
(19.2646 -1.78934 -6.98938e-19)
(19.2007 -2.29158 -6.26483e-19)
(19.1238 -2.7915 5.52159e-19)
(19.0337 -3.28882 6.84414e-19)
(18.9307 -3.78323 3.6473e-19)