/*--------------------------------*- C++ -*----------------------------------*\
| =========                 |                                                 |
| \\      /  F ield         | OpenFOAM: The Open Source CFD Toolbox           |
|  \\    /   O peration     | Version:  v1912                                 |
|   \\  /    A nd           | Website:  www.openfoam.com                      |
|    \\/     M anipulation  |                                                 |
\*---------------------------------------------------------------------------*/
FoamFile
{
    version     2.0;
    format      ascii;
    class       surfaceScalarField;
    location    "17";
    object      phi;
}
// * * * * * * * * * * * * * * * * * * * * * * * * * * * * * * * * * * * * * //

dimensions      [0 3 -1 0 0 0 0];
oriented        oriented;


internalField   nonuniform List<scalar> 
18940
(
0.00032054
-0.235038
0.234717
0.00124423
-0.217487
0.216563
0.00260918
-0.205962
0.204597
0.00425794
-0.197936
0.196287
0.00607155
-0.191816
0.190003
0.0079575
-0.186614
0.184728
0.00984884
-0.181782
0.179891
0.0117008
-0.17705
0.175198
0.0134865
-0.172303
0.170518
0.0151922
-0.167516
0.165811
0.0168138
-0.162709
0.161087
0.0183537
-0.15792
0.15638
0.0198186
-0.153194
0.151729
0.0212175
-0.148571
0.147172
0.0225607
-0.144081
0.142738
0.0238591
-0.139747
0.138448
0.0251233
-0.135576
0.134312
0.0263631
-0.131565
0.130326
0.0275859
-0.127693
0.12647
-0.123922
0.122711
0.0287964
0.000343165
-0.235381
0.0012863
-0.21843
0.0026617
-0.207337
0.00431601
-0.19959
0.00612666
-0.193627
0.0080011
-0.188488
0.00987344
-0.183655
0.0117004
-0.178877
0.0134566
-0.174059
0.0151299
-0.169189
0.0167176
-0.164297
0.0182233
-0.159426
0.0196544
-0.154625
0.0210207
-0.149937
0.0223327
-0.145393
0.0236018
-0.141016
0.0248387
-0.136813
0.0260536
-0.13278
0.0272546
-0.128894
-0.125114
0.0284468
0.000363963
-0.235745
0.00132293
-0.219389
0.00270739
-0.208722
0.0043639
-0.201247
0.00616837
-0.195431
0.00802804
-0.190348
0.00987811
-0.185505
0.0116769
-0.180676
0.0134006
-0.175783
0.0150389
-0.170828
0.0165904
-0.165848
0.0180598
-0.160895
0.0194554
-0.156021
0.0207873
-0.151269
0.0220667
-0.146673
0.023305
-0.142254
0.0245133
-0.138021
0.025702
-0.133969
0.0268797
-0.130072
-0.126287
0.0280525
0.00037729
-0.236122
0.00135111
-0.220363
0.00274426
-0.210115
0.00440085
-0.202903
0.00619617
-0.197227
0.00803789
-0.192189
0.0098625
-0.187329
0.01163
-0.182443
0.0133186
-0.177472
0.0149194
-0.172429
0.0164325
-0.167361
0.0178637
-0.162327
0.0192221
-0.157379
0.0205183
-0.152565
0.0217637
-0.147918
0.02297
-0.14346
0.0241485
-0.1392
0.0253098
-0.13513
0.0264633
-0.131225
-0.127439
0.0276157
0.000388131
-0.23651
0.00137429
-0.221349
0.00277365
-0.211514
0.00442745
-0.204557
0.00621044
-0.19901
0.00803096
-0.19401
0.00982699
-0.189125
0.0115604
-0.184177
0.0132111
-0.179122
0.014772
-0.173989
0.0162446
-0.168834
0.0176359
-0.163718
0.0189555
-0.158699
0.0202146
-0.153824
0.0214249
-0.149128
0.022598
-0.144633
0.0237455
-0.140347
0.0248784
-0.136263
0.0260067
-0.132354
-0.12857
0.027138
0.00039691
-0.236907
0.00139287
-0.222345
0.00279578
-0.212917
0.00444387
-0.206205
0.00621138
-0.200777
0.00800753
-0.195806
0.00977191
-0.19089
0.0114683
-0.185873
0.0130786
-0.180733
0.0145974
-0.175508
0.0160276
-0.170264
0.0173771
-0.165067
0.0186564
-0.159978
0.0198771
-0.155045
0.021051
-0.150302
0.0221898
-0.145772
0.0233052
-0.141463
0.0244087
-0.137367
0.0255108
-0.133456
-0.12968
0.0266201
0.000404201
-0.237311
0.00140753
-0.223348
0.0028112
-0.214321
0.00445054
-0.207845
0.0061994
-0.202526
0.00796804
-0.197575
0.00969779
-0.192619
0.0113544
-0.18753
0.0129218
-0.1823
0.0143963
-0.176983
0.0157821
-0.17165
0.0170882
-0.166373
0.0183258
-0.161216
0.0195066
-0.156226
0.0206428
-0.151438
0.0217461
-0.146875
0.0228282
-0.142545
0.0239011
-0.13844
0.0249758
-0.13453
-0.130766
0.0260623
0.00041016
-0.237722
0.00141859
-0.224357
0.00282027
-0.215722
0.00444787
-0.209472
0.00617497
-0.204253
0.00791303
-0.199313
0.00960524
-0.194312
0.0112195
-0.189144
0.0127415
-0.183822
0.0141695
-0.178411
0.015509
-0.172989
0.01677
-0.167634
0.0179642
-0.16241
0.0191038
-0.157365
0.0202009
-0.152535
0.0212673
-0.147942
0.0223148
-0.143592
0.0233556
-0.13948
0.0244016
-0.135576
-0.131829
0.025464
0.000414889
-0.238136
0.00142631
-0.225368
0.0028234
-0.217119
0.00443634
-0.211085
0.00613867
-0.205956
0.00784318
-0.201017
0.00949504
-0.195963
0.0110643
-0.190713
0.0125387
-0.185297
0.013918
-0.17979
0.0152093
-0.174281
0.0164233
-0.168849
0.0175725
-0.163559
0.0186693
-0.158462
0.0197258
-0.153592
0.0207536
-0.148969
0.0217648
-0.144604
0.0227717
-0.140487
0.0237873
-0.136592
-0.132865
0.024824
0.000418459
-0.238555
0.00143095
-0.226381
0.00282102
-0.218509
0.00441651
-0.212681
0.00609118
-0.20763
0.0077593
-0.202685
0.00936813
-0.197572
0.0108899
-0.192235
0.0123143
-0.186721
0.0136429
-0.181119
0.014884
-0.175522
0.0160493
-0.170014
0.0171516
-0.164662
0.0182038
-0.159514
0.0192177
-0.154606
0.0202051
-0.149957
0.0211778
-0.145576
0.0221486
-0.141458
0.0231314
-0.137575
-0.133874
0.0241403
0.000420971
-0.238976
0.00143285
-0.227393
0.00281364
-0.21989
0.00438908
-0.214256
0.00603332
-0.209275
0.00766237
-0.204314
0.00922563
-0.199136
0.0106975
-0.193707
0.0120698
-0.188093
0.0133456
-0.182394
0.0145345
-0.17671
0.0156489
-0.171128
0.0167025
-0.165715
0.0177079
-0.16052
0.0186771
-0.155575
0.0196217
-0.150901
0.0205532
-0.146508
0.021485
-0.14239
0.0224319
-0.138522
-0.134853
0.0234101
0.000422572
-0.239398
0.00143241
-0.228403
0.0028019
-0.22126
0.00435483
-0.215809
0.00596609
-0.210886
0.00755355
-0.205902
0.00906888
-0.200651
0.0104887
-0.195127
0.0118067
-0.189411
0.0130277
-0.183615
0.0141623
-0.177845
0.0152239
-0.17219
0.0162263
-0.166718
0.0171826
-0.161476
0.0181046
-0.156497
0.0190034
-0.1518
0.0198905
-0.147395
0.0207795
-0.143279
0.0216866
-0.139429
-0.135796
0.0226301
0.000423532
-0.239822
0.00143022
-0.229409
0.00278659
-0.222616
0.00431475
-0.217337
0.00589065
-0.212462
0.00743423
-0.207445
0.00889945
-0.202116
0.0102651
-0.196492
0.011527
-0.190673
0.0126912
-0.184779
0.0137695
-0.178923
0.014776
-0.173196
0.0157249
-0.167666
0.0166293
-0.16238
0.0175009
-0.157369
0.0183505
-0.15265
0.0191893
-0.148234
0.020031
-0.14412
0.020893
-0.140291
-0.136699
0.0217964
0.000424319
-0.240246
0.0014271
-0.230412
0.00276868
-0.223958
0.00426997
-0.218838
0.00580834
-0.214
0.00730596
-0.208943
0.00871916
-0.203529
0.010029
-0.197802
0.0112329
-0.191877
0.0123385
-0.185885
0.0133586
-0.179943
0.0143078
-0.174146
0.0152006
-0.168559
0.01605
-0.16323
0.0168676
-0.158186
0.0176636
-0.153446
0.018449
-0.149019
0.0192372
-0.144909
0.0200471
-0.141101
-0.137555
0.0209028
0.000425722
-0.240672
0.00142418
-0.23141
0.00274933
-0.225283
0.00422174
-0.220311
0.00572061
-0.215499
0.00717048
-0.210393
0.00853006
-0.204889
0.00978253
-0.199055
0.0109272
-0.193022
0.0119728
-0.186931
0.0129331
-0.180904
0.0138229
-0.175035
0.0146569
-0.169393
0.0154479
-0.164021
0.0162071
-0.158945
0.0169442
-0.154183
0.0176694
-0.149744
0.0183959
-0.145635
0.0191433
-0.141848
-0.138353
0.0199414
0.000428873
-0.241101
0.00142273
-0.232404
0.00272966
-0.22659
0.00417132
-0.221753
0.00562901
-0.216957
0.00702967
-0.211794
0.00833442
-0.206194
0.00952856
-0.200249
0.010613
-0.194106
0.0115978
-0.187916
0.012497
-0.181803
0.0133259
-0.175864
0.0140989
-0.170166
0.0148285
-0.16475
0.015525
-0.159642
0.0161974
-0.154855
0.0168546
-0.150402
0.0175088
-0.146289
0.018181
-0.14252
-0.139082
0.0189093
0.000435145
-0.241536
0.00142402
-0.233393
0.00271092
-0.227877
0.00412016
-0.223162
0.00553525
-0.218372
0.00688555
-0.213144
0.00813464
-0.207443
0.00926992
-0.201384
0.0102939
-0.19513
0.0112175
-0.188839
0.0120552
-0.182641
0.0128224
-0.176632
0.0135329
-0.170877
0.0141986
-0.165416
0.0148292
-0.160272
0.0154323
-0.155458
0.0160152
-0.150985
0.0165882
-0.146862
0.0171724
-0.143105
-0.139717
0.0178079
0.000446862
-0.241983
0.00143063
-0.234377
0.00269552
-0.229142
0.00407025
-0.224536
0.00544112
-0.219743
0.00674002
-0.214443
0.00793302
-0.208636
0.00900955
-0.202461
0.00997353
-0.196094
0.0108366
-0.189702
0.0116135
-0.183418
0.0123188
-0.177337
0.0129658
-0.171524
0.0135653
-0.166016
0.0141256
-0.160833
0.0146535
-0.155986
0.0151549
-0.151486
0.0156365
-0.147344
0.0161124
-0.14358
-0.140214
0.0166098
0.000471617
-0.242455
0.00144981
-0.235355
0.00268746
-0.230379
0.0040234
-0.225872
0.00534773
-0.221067
0.00659434
-0.215689
0.00773138
-0.209773
0.00875012
-0.203479
0.00965578
-0.197
0.0104606
-0.190507
0.0111791
-0.184136
0.011825
-0.177983
0.01241
-0.172109
0.0129421
-0.166548
0.0134267
-0.161317
0.0138668
-0.156426
0.0142638
-0.151883
0.0146163
-0.147696
0.0149295
-0.143894
-0.140552
0.0152671
0.000529479
-0.242984
0.00149006
-0.236316
0.00268637
-0.231576
0.00397827
-0.227164
0.00525442
-0.222343
0.00644872
-0.216884
0.00753078
-0.210855
0.00849364
-0.204442
0.00934389
-0.19785
0.0100945
-0.191258
0.0107602
-0.184802
0.011354
-0.178577
0.0118857
-0.17264
0.0123605
-0.167023
0.012778
-0.161735
0.0131313
-0.15678
0.0134042
-0.152156
0.013571
-0.147863
0.0136237
-0.143946
-0.140702
0.013774
0.250145
0.000393004
-0.250538
0.249779
0.000366087
0.249421
0.000358155
0.249063
0.00035775
0.248703
0.000360279
0.248338
0.000364235
0.247969
0.000368914
0.247596
0.000373738
0.247217
0.000378317
0.246835
0.00038244
0.246449
0.000386005
0.24606
0.000388985
0.245669
0.000391358
0.245276
0.000393094
0.244881
0.000394061
0.244487
0.000394051
0.244095
0.000392008
0.243708
0.000387374
0.243337
0.000370952
0.000353049
0.251107
0.000963867
-0.251678
0.250503
0.000970286
0.249873
0.000988846
0.249217
0.0010135
0.248537
0.00103975
0.247836
0.00106601
0.247113
0.00109183
0.24637
0.00111671
0.245608
0.00114021
0.244828
0.00116207
0.244032
0.00118218
0.24322
0.00120047
0.242395
0.00121694
0.241556
0.00123156
0.240706
0.00124418
0.239846
0.00125458
0.238976
0.00126163
0.238098
0.00126504
0.237211
0.00125844
0.00124833
0.249137
0.00149813
-0.249671
0.24854
0.00156685
0.247894
0.0016357
0.247201
0.00170581
0.246466
0.00177497
0.24569
0.00184172
0.244876
0.00190573
0.244026
0.00196676
0.243142
0.00202455
0.242225
0.00207892
0.241278
0.0021298
0.240301
0.00217721
0.239297
0.0022212
0.238266
0.00226186
0.237211
0.00229916
0.236133
0.00233311
0.235031
0.00236317
0.233907
0.00238953
0.232755
0.00240981
0.0024282
0.24453
0.00191344
-0.244945
0.244048
0.00204845
0.243505
0.00217875
0.242905
0.00230599
0.24225
0.0024297
0.241543
0.00254887
0.240786
0.00266315
0.23998
0.00277237
0.239128
0.00287635
0.238232
0.00297498
0.237294
0.00306827
0.236315
0.00315629
0.235297
0.00323921
0.234241
0.00331726
0.23315
0.00339068
0.232023
0.00345977
0.230862
0.00352458
0.229665
0.00358571
0.228433
0.00364244
0.00369668
0.237973
0.00217604
-0.238236
0.237643
0.00237865
0.237247
0.00257444
0.236789
0.00276442
0.23627
0.00294872
0.235692
0.0031267
0.235057
0.00329801
0.234367
0.00346243
0.233623
0.00361981
0.232828
0.00377007
0.231983
0.00391324
0.23109
0.00404947
0.23015
0.00417903
0.229165
0.00430232
0.228136
0.00441981
0.227064
0.00453214
0.225949
0.00463983
0.22479
0.00474379
0.223589
0.00484413
0.00494244
0.230196
0.0022934
-0.230313
0.230012
0.00256293
0.229762
0.00282453
0.229448
0.00307861
0.229071
0.00332536
0.228633
0.00356432
0.228136
0.00379514
0.227581
0.00401755
0.226969
0.00423138
0.226303
0.00443654
0.225583
0.00463308
0.224811
0.0048212
0.223989
0.00500126
0.223118
0.00517381
0.222198
0.00533957
0.221231
0.00549947
0.220216
0.00565449
0.219154
0.0058059
0.218043
0.00595452
0.00610208
0.221847
0.00229341
-0.221847
0.221782
0.00262752
0.221654
0.00295298
0.221463
0.00326981
0.22121
0.00357804
0.220897
0.00387729
0.220525
0.00416716
0.220095
0.00444736
0.219609
0.00471764
0.219068
0.00497792
0.218472
0.00522823
0.217825
0.00546878
0.217126
0.00570001
0.216377
0.00592261
0.215579
0.00613754
0.214733
0.00634605
0.213838
0.00654956
0.212894
0.00674986
0.2119
0.00694837
0.00714715
0.213412
0.00220933
-0.213328
0.213435
0.00260477
0.213397
0.00299099
0.213299
0.00336776
0.213142
0.00373495
0.212927
0.00409212
0.212656
0.00443887
0.212328
0.00477482
0.211946
0.00509968
0.211511
0.0054133
0.211023
0.00571569
0.210485
0.00600705
0.209897
0.00628787
0.209261
0.00655896
0.208577
0.0068215
0.207846
0.00707709
0.207068
0.00732766
0.206242
0.00757556
0.205367
0.00782299
0.00807249
0.205214
0.00207194
-0.205077
0.205293
0.00252523
0.205316
0.00296877
0.205281
0.00340215
0.205191
0.00382511
0.205046
0.00423714
0.204847
0.00463778
0.204595
0.00502657
0.204292
0.00540314
0.203938
0.00576727
0.203535
0.0061189
0.203084
0.0064582
0.202586
0.00678566
0.202043
0.00710218
0.201455
0.00740915
0.200824
0.00770849
0.200149
0.00800274
0.199429
0.00829495
0.198664
0.00858832
0.00888617
0.197438
0.00190632
-0.197273
0.197549
0.00241417
0.197606
0.00291172
0.19761
0.00339846
0.197561
0.00387397
0.197461
0.0043377
0.197309
0.00478907
0.197108
0.00522754
0.196859
0.00565266
0.196562
0.00606409
0.196219
0.00646168
0.195832
0.0068455
0.195402
0.00721601
0.19493
0.00757411
0.194417
0.00792137
0.193866
0.00826002
0.193275
0.00859329
0.192645
0.00892503
0.191974
0.00925986
0.00960226
0.190174
0.00173113
-0.189998
0.190297
0.00229067
0.190369
0.00283935
0.190391
0.00337654
0.190364
0.00390171
0.190287
0.00441421
0.190163
0.00491338
0.189992
0.00539857
0.189775
0.0058692
0.189515
0.00632482
0.189211
0.0067651
0.188867
0.00719
0.188483
0.00759984
0.188061
0.00799543
0.187604
0.00837846
0.187113
0.00875134
0.186588
0.00911812
0.18603
0.0094835
0.185436
0.00985412
0.0102361
0.183443
0.00155913
-0.183271
0.183566
0.00216804
0.18364
0.00276551
0.183665
0.00335075
0.183644
0.00392314
0.183576
0.00448193
0.183463
0.00502638
0.183306
0.0055557
0.183106
0.0060692
0.182865
0.00656622
0.182583
0.00704629
0.182264
0.0075091
0.181909
0.00795479
0.181521
0.00838391
0.181101
0.00879816
0.180653
0.00919991
0.180177
0.00959418
0.179674
0.00998627
0.179142
0.010386
0.0108013
0.17723
0.00139844
-0.177069
0.177343
0.00205499
0.177409
0.00269937
0.177429
0.00333074
0.177404
0.0039484
0.177334
0.00455149
0.177221
0.00513916
0.177067
0.00571051
0.176871
0.00626468
0.176637
0.00680083
0.176365
0.00731823
0.176057
0.00781628
0.175717
0.00829478
0.175348
0.00875386
0.174951
0.00919505
0.17453
0.00962024
0.174089
0.0100356
0.173629
0.0104464
0.173147
0.0108676
0.011308
0.171496
0.00125387
-0.171351
0.171594
0.00195665
0.171647
0.00264649
0.171655
0.00332253
0.17162
0.00398393
0.171541
0.00462976
0.171421
0.00525903
0.171261
0.00587075
0.171062
0.00646387
0.170826
0.00703734
0.170554
0.00759015
0.170249
0.0081213
0.169913
0.00863016
0.169551
0.00911616
0.169165
0.00958048
0.168762
0.0100238
0.168344
0.0104539
0.167916
0.0108738
0.167476
0.0113076
0.0117618
0.166193
0.00112783
-0.166066
0.166273
0.00187577
0.16631
0.00260992
0.166303
0.00332943
0.166254
0.00403335
0.166163
0.00472067
0.166032
0.00539029
0.165861
0.00604107
0.165653
0.00667182
0.165409
0.00728123
0.165131
0.007868
0.164822
0.00843067
0.164484
0.00896804
0.164122
0.00947862
0.163739
0.00996289
0.163344
0.0104195
0.16294
0.0108577
0.162538
0.0112753
0.162135
0.0117115
0.0121616
0.16127
0.00102122
-0.161163
0.161332
0.00181329
0.161351
0.00259078
0.161328
0.00335276
0.161263
0.00409819
0.161158
0.00482595
0.161013
0.00553486
0.160831
0.00622365
0.160612
0.00689096
0.160357
0.00753526
0.160071
0.00815491
0.159753
0.00874799
0.159409
0.00931263
0.159041
0.00984616
0.158656
0.010348
0.158262
0.0108136
0.157866
0.0112539
0.157485
0.0116555
0.157114
0.0120826
0.0124963
0.156678
0.000933793
-0.156591
0.156723
0.00176887
0.156725
0.00258882
0.156685
0.00339233
0.156605
0.0041783
0.156485
0.00494552
0.156328
0.00569272
0.156133
0.00641854
0.155902
0.00712144
0.155638
0.00779972
0.155341
0.0084514
0.155015
0.0090741
0.154662
0.00966525
0.154288
0.0102209
0.153897
0.0107389
0.1535
0.0112103
0.153107
0.0116474
0.152745
0.0120174
0.152402
0.0124255
0.0127422
0.152374
0.000863225
-0.152304
0.152402
0.00174114
0.152388
0.0026025
0.152334
0.0034465
0.15224
0.00427193
0.152108
0.00507747
0.151939
0.00586184
0.151734
0.00662355
0.151495
0.00736097
0.151222
0.0080722
0.150919
0.00875502
0.150586
0.00940665
0.150228
0.0100239
0.149847
0.0106014
0.14945
0.0111355
0.149049
0.0116113
0.148656
0.0120409
0.148313
0.0123604
0.147993
0.0127454
0.012872
0.148317
0.000808413
-0.148262
0.148331
0.00172744
0.148304
0.00262885
0.148239
0.00351193
0.148136
0.0043753
0.147996
0.00521764
0.14782
0.00603759
0.14761
0.00683365
0.147367
0.00760407
0.147092
0.00834682
0.146787
0.00905952
0.146455
0.00973907
0.146097
0.0103818
0.145717
0.0109814
0.14532
0.0115327
0.144917
0.0120144
0.14452
0.0124372
0.144197
0.0126843
0.143916
0.0130264
0.0128412
0.14447
-0.144429
0.000767289
0.144473
0.00172408
0.144438
0.0026637
0.144367
0.00358376
0.144259
0.00448285
0.144117
0.00535967
0.143942
0.00621289
0.143734
0.00704094
0.143497
0.00784203
0.143229
0.00861406
0.142934
0.00935457
0.142613
0.0100603
0.142267
0.0107275
0.1419
0.0113489
0.141513
0.0119193
0.141116
0.0124118
0.140714
0.012839
0.140377
0.0130218
0.140131
0.0132723
0.0122695
0.253511
7.24086e-05
-0.253583
0.253477
3.3459e-05
0.253449
2.81543e-05
0.253413
3.57443e-05
0.253364
4.89822e-05
0.253299
6.56253e-05
0.253214
8.43944e-05
0.25311
0.000104197
0.252986
0.00012424
0.252842
0.000144062
0.252679
0.000163239
0.252497
0.000181367
0.252299
0.000198541
0.252083
0.000215407
0.251851
0.000232235
0.251604
0.000247053
0.251345
0.00025914
0.251076
0.000268534
0.250807
0.000269476
0.000268911
0.254327
-0.000228759
-0.254026
0.25457
-0.00020977
0.254771
-0.000173347
0.254931
-0.000123933
0.255048
-6.79868e-05
0.255122
-8.23916e-06
0.255152
5.41751e-05
0.255138
0.000118149
0.25508
0.000182849
0.254976
0.000247673
0.254828
0.000311147
0.254637
0.000372348
0.254405
0.000430616
0.254133
0.000487032
0.253817
0.000548406
0.253461
0.000603264
0.253067
0.000653106
0.252637
0.000698179
0.252173
0.000733727
0.000763866
0.249213
-0.00085333
-0.248588
0.249768
-0.000764385
0.25026
-0.000665816
0.250694
-0.000557554
0.251069
-0.000442963
0.251385
-0.000324369
0.251642
-0.000202889
0.25184
-8.00745e-05
0.251979
4.34491e-05
0.252057
0.000169819
0.252076
0.000292948
0.252036
0.000412353
0.251936
0.000530415
0.251776
0.000646829
0.251563
0.000761652
0.251294
0.000871755
0.250971
0.000976245
0.250594
0.00107518
0.250161
0.0011667
0.00125365
0.240667
-0.00173842
-0.239782
0.241483
-0.00158063
0.242233
-0.00141585
0.242919
-0.00124319
0.24354
-0.00106411
0.244096
-0.000880444
0.244587
-0.000693527
0.245011
-0.000504596
0.245369
-0.000314387
0.24566
-0.000120811
0.245881
7.20345e-05
0.246039
0.000254545
0.246129
0.000440208
0.246153
0.000622838
0.246113
0.00080192
0.246008
0.000976578
0.245838
0.0011457
0.245605
0.00130886
0.245306
0.00146508
0.00161484
0.230527
-0.00280904
-0.229457
0.231534
-0.00258713
0.232476
-0.00235797
0.233354
-0.00212105
0.234167
-0.00187709
0.234914
-0.00162756
0.235594
-0.00137383
0.236207
-0.0011171
0.23675
-0.000858311
0.237228
-0.000598184
0.237639
-0.000339202
0.237978
-8.42163e-05
0.238248
0.000169715
0.238451
0.000420461
0.238585
0.000668002
0.23865
0.000910802
0.238648
0.00114801
0.238578
0.00137895
0.23844
0.00160283
0.0018195
0.219978
-0.00399796
-0.218789
0.221108
-0.00371674
0.222177
-0.0034267
0.223184
-0.00312794
0.224128
-0.00282108
0.225007
-0.00250749
0.225822
-0.00218867
0.226571
-0.00186604
0.227254
-0.00154096
0.22787
-0.00121475
0.22842
-0.000888823
0.2289
-0.000564629
0.229313
-0.00024294
0.22966
7.38924e-05
0.229939
0.000389166
0.230149
0.000700614
0.230291
0.00100559
0.230366
0.00130409
0.230373
0.00159548
0.00187943
0.209742
-0.00525177
-0.208488
0.21094
-0.00491532
0.212082
-0.00456796
0.213164
-0.00421027
0.214186
-0.00384313
0.215147
-0.00346805
0.216045
-0.00308675
0.21688
-0.0027009
0.217651
-0.00231209
0.218358
-0.00192174
0.219
-0.00153116
0.219577
-0.00114182
0.220089
-0.000754516
0.220533
-0.000369985
0.220919
3.30552e-06
0.221235
0.000384227
0.221486
0.000754721
0.221671
0.00111848
0.221792
0.00147514
0.0018242
0.200197
-0.0065317
-0.198917
0.201425
-0.00614326
0.202599
-0.00574156
0.203716
-0.00532752
0.204775
-0.00490245
0.205776
-0.00446823
0.206716
-0.00402688
0.207595
-0.00358034
0.208413
-0.00313036
0.20917
-0.00267855
0.209865
-0.0022263
0.210499
-0.00177502
0.21107
-0.00132577
0.211579
-0.000879599
0.212021
-0.000437903
0.212411
-6.09965e-06
0.212733
0.000432842
0.212993
0.000857979
0.213192
0.00127667
0.00168768
0.191493
-0.00781191
-0.190213
0.192724
-0.00737401
0.193903
-0.0069202
0.195027
-0.00645169
0.196095
-0.00597041
0.197105
-0.0054788
0.198058
-0.0049793
0.198952
-0.00447413
0.199786
-0.00396527
0.200562
-0.00345447
0.201279
-0.00294324
0.201937
-0.0024329
0.202536
-0.00192465
0.203076
-0.00141945
0.203557
-0.00091866
0.203974
-0.000423429
0.20434
6.65718e-05
0.204644
0.000554165
0.20489
0.0010312
0.00150072
0.18364
-0.00907679
-0.182375
0.184857
-0.00859143
0.186024
-0.00808704
0.187138
-0.00756514
0.188196
-0.00702863
0.189198
-0.00648072
0.190143
-0.00592434
0.191031
-0.00536206
0.191862
-0.0047961
0.192635
-0.00422833
0.193353
-0.00366029
0.194013
-0.00309331
0.194617
-0.00252855
0.195164
-0.00196699
0.195655
-0.00140968
0.19609
-0.000857546
0.196468
-0.000311413
0.196792
0.00022935
0.19706
0.000763408
0.00128823
0.176574
-0.0103182
-0.175333
0.17777
-0.00978719
0.178916
-0.00923312
0.180009
-0.00865812
0.181047
-0.00806662
0.182029
-0.00746284
0.182955
-0.00685027
0.183825
-0.00623188
0.184639
-0.0056101
0.185397
-0.00498688
0.186101
-0.00436377
0.18675
-0.00374205
0.187344
-0.00312281
0.187884
-0.00250703
0.18837
-0.00189561
0.188802
-0.00128944
0.189179
-0.000689116
0.189506
-9.7079e-05
0.189779
0.00049067
0.00106835
0.170202
-0.0115334
-0.168986
0.171373
-0.0109586
0.172495
-0.0103551
0.173563
-0.00972648
0.174576
-0.00907957
0.175533
-0.00841976
0.176434
-0.00775117
0.177279
-0.00707717
0.17807
-0.00640041
0.178806
-0.00572285
0.179488
-0.00504596
0.180117
-0.00437094
0.180693
-0.00369881
0.181216
-0.00303047
0.181687
-0.00236678
0.182106
-0.00170858
0.182474
-0.0010567
0.182789
-0.000412504
0.183056
0.000223953
0.000853491
0.164422
-0.0127231
-0.163233
0.165571
-0.0121071
0.166669
-0.0114536
0.167713
-0.0107699
0.1687
-0.0100665
0.16963
-0.00934995
0.170504
-0.00862497
0.171322
-0.00789545
0.172086
-0.00716415
0.172796
-0.00643294
0.173453
-0.00570318
0.174058
-0.00497592
0.174611
-0.00425206
0.175113
-0.00353242
0.175564
-0.00281781
0.175965
-0.00210906
0.176315
-0.00140684
0.176614
-0.000711991
0.176867
-2.88794e-05
0.000651521
0.159145
-0.0138911
-0.157977
0.160275
-0.0132374
0.161354
-0.012532
0.162374
-0.0117909
0.163337
-0.011029
0.164241
-0.0102541
0.165088
-0.00947181
0.165879
-0.00868637
0.166615
-0.00790056
0.167298
-0.00711607
0.167929
-0.00633402
0.168509
-0.00555527
0.169037
-0.00478054
0.169515
-0.00401055
0.169944
-0.00324603
0.170322
-0.00248778
0.170652
-0.00173655
0.170933
-0.000993552
0.171165
-0.000260301
0.00046532
0.154292
-0.0150438
-0.153139
0.155412
-0.0143569
0.156475
-0.0135958
0.157478
-0.0127932
0.158418
-0.0119696
0.159298
-0.0111337
0.160118
-0.0102923
0.160882
-0.00945003
0.161591
-0.00860947
0.162246
-0.00777186
0.16285
-0.00693799
0.163404
-0.00610837
0.163907
-0.00528352
0.16436
-0.00446398
0.164764
-0.00365041
0.16512
-0.00284355
0.165428
-0.00204424
0.165688
-0.00125348
0.1659
-0.000472388
0.000298628
0.149805
-0.0161934
-0.148655
0.150923
-0.0154757
0.151979
-0.0146511
0.152966
-0.0137807
0.153886
-0.0128897
0.154741
-0.0119886
0.155535
-0.0110857
0.15627
-0.0101856
0.156951
-0.00929006
0.157579
-0.00839966
0.158155
-0.0075146
0.158682
-0.00663492
0.159159
-0.00576079
0.159588
-0.00489257
0.159968
-0.0040308
0.160301
-0.00317618
0.160586
-0.00232953
0.160824
-0.00149176
0.161016
-0.000664158
0.000151683
0.14564
-0.0173674
-0.144466
0.146772
-0.0166075
0.147823
-0.0157028
0.148797
-0.0147547
0.149695
-0.0137874
0.150522
-0.0128154
0.151285
-0.0118489
0.15199
-0.0108906
0.152641
-0.00994056
0.153239
-0.00899842
0.153788
-0.00806338
0.154288
-0.00713484
0.15474
-0.00621256
0.155144
-0.00529669
0.155501
-0.00438768
0.155811
-0.00348617
0.156074
-0.00259301
0.156292
-0.00170911
0.156463
-0.000835474
2.38735e-05
0.141768
-0.0186264
-0.140509
0.142931
-0.0177706
0.143978
-0.0167497
0.144932
-0.0157091
0.145799
-0.0146545
0.146591
-0.0136068
0.147318
-0.0125764
0.147989
-0.0115615
0.148608
-0.0105591
0.149177
-0.00956743
0.149698
-0.00858442
0.150172
-0.00760872
0.150599
-0.0066397
0.150979
-0.00567737
0.151314
-0.00472213
0.151602
-0.00377464
0.151845
-0.00283581
0.152043
-0.00190673
0.152196
-0.000988654
-8.37992e-05
0.138198
-0.0200343
-0.13679
0.139385
-0.018958
0.140409
-0.0177733
0.141323
-0.0166238
0.142146
-0.0154771
0.142893
-0.0143544
0.143581
-0.0132634
0.144215
-0.0121962
0.144802
-0.0111456
0.145342
-0.0101075
0.145836
-0.00907901
0.146286
-0.00805804
0.14669
-0.00704377
0.147049
-0.00603618
0.147362
-0.00503575
0.147631
-0.00404324
0.147855
-0.00305963
0.148034
-0.0020862
0.14817
-0.00112446
-0.000176303
0.13498
-0.133637
-0.021377
0.13608
-0.0200579
0.137066
-0.0187595
0.137911
-0.0174693
0.138676
-0.0162414
0.139378
-0.0150573
0.140027
-0.0139116
0.140627
-0.0127967
0.141184
-0.0117022
0.141697
-0.0106211
0.142167
-0.00954919
0.142594
-0.00848447
0.142976
-0.00742613
0.143314
-0.00637433
0.143608
-0.00532971
0.143858
-0.00429323
0.144065
-0.00326597
0.144228
-0.00224913
0.144348
-0.00124437
-0.000257597
0.0284909
0.109174
-0.107797
-0.0298682
0.027092
0.112359
-0.11096
0.0256685
0.11569
-0.114266
0.0242166
0.119188
-0.117737
0.0227326
0.122886
-0.121402
0.0212133
0.126823
-0.125304
0.019656
0.131054
-0.129497
0.0180589
0.135654
-0.134057
0.0164208
0.140719
-0.139081
0.0147412
0.146371
-0.144692
0.0130214
0.15276
-0.15104
0.0112649
0.160056
-0.1583
0.0094795
0.168445
-0.16666
0.00768054
0.1781
-0.176301
0.00589565
0.189133
-0.187348
0.00417147
0.201516
-0.199792
0.00258236
0.214946
-0.213357
0.00124103
0.22865
-0.227308
0.000305678
0.240997
-0.240062
0.249098
-0.248792
0.0283688
0.110549
-0.0297434
0.0269728
0.113755
0.0255524
0.11711
0.0241039
0.120637
0.0226235
0.124367
0.021108
0.128339
0.0195547
0.132608
0.0179616
0.137247
0.0163273
0.142353
0.0146517
0.148047
0.0129358
0.154476
0.0111836
0.161809
0.00940344
0.170226
0.00761147
0.179892
0.00583641
0.190908
0.00412632
0.203226
0.00255698
0.216516
0.00124048
0.229966
0.000330535
0.241907
0.249428
0.028206
0.111918
-0.0295756
0.0268151
0.115146
0.0254
0.118525
0.0239571
0.12208
0.0224825
0.125841
0.020973
0.129848
0.0194258
0.134155
0.0178389
0.138834
0.0162108
0.143981
0.0145412
0.149717
0.0128316
0.156185
0.0110861
0.163554
0.00931355
0.171998
0.00753085
0.181674
0.00576765
0.192671
0.00407296
0.204921
0.00252304
0.218065
0.00122846
0.231261
0.000334769
0.242801
0.249763
0.0280039
0.113281
-0.0293663
0.0266203
0.11653
0.0252127
0.119933
0.0237773
0.123515
0.0223106
0.127308
0.0208091
0.13135
0.0192701
0.135694
0.0176914
0.140413
0.0160716
0.145601
0.0144103
0.151378
0.0127092
0.157887
0.0109725
0.165291
0.00920979
0.173761
0.00743843
0.183446
0.00568887
0.194421
0.00401082
0.206599
0.00248065
0.219596
0.00120733
0.232534
0.000330917
0.243677
0.250094
0.0277644
0.114634
-0.0291176
0.0263899
0.117904
0.0249917
0.121331
0.0235659
0.124941
0.0221089
0.128765
0.0206173
0.132841
0.0190884
0.137223
0.0175198
0.141981
0.0159102
0.147211
0.0142593
0.153029
0.0125686
0.159577
0.010843
0.167016
0.00909211
0.175512
0.00733412
0.185204
0.00560013
0.196155
0.00394046
0.208258
0.00243147
0.221105
0.00118058
0.233785
0.000323226
0.244534
0.250417
0.0274896
0.115976
-0.0288321
0.0261261
0.119268
0.0247389
0.122718
0.0233242
0.126356
0.0218785
0.130211
0.0203985
0.134321
0.0188813
0.13874
0.0173246
0.143538
0.0157271
0.148808
0.0140883
0.154667
0.0124102
0.161255
0.0106975
0.168729
0.0089606
0.177249
0.00721805
0.186946
0.0055017
0.197871
0.0038624
0.209898
0.00237645
0.222591
0.00114956
0.235012
0.00031288
0.245371
0.25073
0.0271823
0.117307
-0.0285128
0.0258308
0.120619
0.0244559
0.124093
0.0230537
0.127758
0.0216207
0.131644
0.0201536
0.135788
0.0186497
0.140244
0.0171065
0.145081
0.0155227
0.150392
0.0138979
0.156292
0.0122341
0.162919
0.0105365
0.170427
0.00881549
0.17897
0.00709048
0.188671
0.00539386
0.199568
0.003777
0.211515
0.00231598
0.224052
0.00111482
0.236213
0.000300575
0.246185
0.251031
0.0268448
0.118625
-0.0281627
0.0255061
0.121958
0.0241444
0.125455
0.0227557
0.129147
0.0213365
0.133063
0.0198836
0.137241
0.0183942
0.141733
0.016866
0.146609
0.0152975
0.151961
0.0136884
0.157901
0.0120408
0.164567
0.01036
0.172108
0.00865701
0.180673
0.00695161
0.190377
0.00527685
0.201243
0.0036845
0.213107
0.00225042
0.225486
0.00107685
0.237387
0.000286904
0.246975
0.251318
0.0264798
0.11993
-0.0277849
0.0251543
0.123283
0.0238062
0.126803
0.0224316
0.130521
0.021027
0.134468
0.0195893
0.138679
0.0181156
0.143207
0.0166036
0.148121
0.0150518
0.153512
0.01346
0.159493
0.0118304
0.166196
0.0101683
0.17377
0.00848534
0.182356
0.00680164
0.19206
0.00515088
0.202893
0.0035852
0.214673
0.00218011
0.226891
0.00103613
0.238531
0.000272279
0.247739
0.25159
0.0260896
0.121223
-0.0273826
0.024777
0.124596
0.0234425
0.128137
0.0220823
0.131881
0.0206928
0.135857
0.019271
0.140101
0.017814
0.144664
0.0163195
0.149616
0.0147859
0.155046
0.013213
0.161066
0.011603
0.167806
0.00996163
0.175411
0.00830062
0.184017
0.00664075
0.19372
0.00501617
0.204518
0.00347935
0.216209
0.00210541
0.228265
0.00099301
0.239643
0.000256943
0.248475
0.251847
0.0256765
0.122505
-0.0269586
0.0243757
0.125897
0.0230543
0.129459
0.0217083
0.133227
0.0203343
0.137231
0.018929
0.141506
0.0174896
0.146103
0.0160137
0.151092
0.0144997
0.15656
0.0129473
0.162618
0.0113587
0.169395
0.00973993
0.17703
0.00810298
0.185654
0.00646911
0.195354
0.00487294
0.206114
0.00336722
0.217715
0.00202658
0.229605
0.000947761
0.240722
0.000241056
0.249182
0.252088
0.0252414
0.123779
-0.0265151
0.0239508
0.127187
0.0226415
0.130768
0.0213094
0.134559
0.019951
0.13859
0.0185629
0.142894
0.0171421
0.147524
0.0156861
0.152548
0.014193
0.158053
0.0126628
0.164149
0.0110975
0.17096
0.00950326
0.178624