/*--------------------------------*- C++ -*----------------------------------*\
  =========                 |
  \\      /  F ield         | OpenFOAM: The Open Source CFD Toolbox
   \\    /   O peration     | Website:  https://openfoam.org
    \\  /    A nd           | Version:  6.0
     \\/     M anipulation  |
\*---------------------------------------------------------------------------*/
FoamFile
{
    version     2.0;
    format      ascii;
    class       volScalarField;
    location    "9.2505";
    object      p;
}
// * * * * * * * * * * * * * * * * * * * * * * * * * * * * * * * * * * * * * //

dimensions      [0 2 -2 0 0 0 0];

internalField   nonuniform List<scalar> 
19200
(
-7.23547
-6.37262
-5.78621
-5.33242
-4.93385
-4.58446
-4.27635
-4.00086
-3.7519
-3.52511
-3.31715
-3.12542
-2.94787
-2.78288
-2.6291
-2.48545
-2.35098
-2.22493
-2.1066
-1.9954
-1.89081
-1.79236
-1.69965
-1.61229
-1.52996
-1.45235
-1.3792
-1.31026
-1.24525
-1.18411
-7.41822
-6.55466
-5.96597
-5.50869
-5.10596
-4.75199
-4.43906
-4.15861
-3.90467
-3.67293
-3.46009
-3.2636
-3.08143
-2.91197
-2.75389
-2.60611
-2.46769
-2.33786
-2.21593
-2.1013
-1.99345
-1.8919
-1.79624
-1.70609
-1.6211
-1.54098
-1.46546
-1.39423
-1.32701
-1.26403
-7.60588
-6.74009
-6.14855
-5.68758
-5.28052
-4.92182
-4.60392
-4.3184
-4.05933
-3.82251
-3.60468
-3.40331
-3.21641
-3.04238
-2.8799
-2.7279
-2.58545
-2.45176
-2.32615
-2.20803
-2.09686
-1.99216
-1.8935
-1.80051
-1.71283
-1.63016
-1.55222
-1.47868
-1.40919
-1.34437
-7.79679
-6.92847
-6.33379
-5.86893
-5.45738
-5.0938
-4.77079
-4.48004
-4.21573
-3.9737
-3.75075
-3.54439
-3.35265
-3.17394
-3.00697
-2.85066
-2.70409
-2.56647
-2.43712
-2.31544
-2.20089
-2.09298
-1.99129
-1.89541
-1.805
-1.71973
-1.63934
-1.56345
-1.49167
-1.425
-7.99053
-7.11953
-6.5215
-6.05257
-5.63635
-5.26774
-4.93947
-4.64336
-4.37367
-4.12631
-3.89813
-3.68666
-3.48997
-3.30649
-3.13493
-2.97422
-2.82345
-2.68183
-2.54868
-2.42338
-2.30539
-2.19423
-2.08945
-1.99065
-1.89747
-1.80958
-1.72671
-1.64844
-1.57434
-1.5058
-8.1868
-7.31302
-6.71148
-6.2383
-5.81727
-5.44347
-5.10981
-4.8082
-4.533
-4.28018
-4.04663
-3.82995
-3.6282
-3.43984
-3.2636
-3.09842
-2.94337
-2.79768
-2.66066
-2.53169
-2.41022
-2.29576
-2.18785
-2.08609
-1.99011
-1.89957
-1.81419
-1.73351
-1.65706
-1.58666
-8.38532
-7.5087
-6.9035
-6.42594
-5.99995
-5.62082
-5.28162
-4.97437
-4.69352
-4.43512
-4.19609
-3.97408
-3.76717
-3.57384
-3.39283
-3.22308
-3.06369
-2.91387
-2.77291
-2.64022
-2.51522
-2.39741
-2.28635
-2.1816
-2.08278
-1.98957
-1.90165
-1.81854
-1.73974
-1.66747
-8.58586
-7.70633
-7.09736
-6.61528
-6.18418
-5.79959
-5.4547
-5.14168
-4.85506
-4.59094
-4.34633
-4.11886
-3.90669
-3.7083
-3.52244
-3.34805
-3.18424
-3.03022
-2.88528
-2.74881
-2.62024
-2.49906
-2.3848
-2.27703
-2.17536
-2.07945
-1.98899
-1.90343
-1.82225
-1.74811
-8.78816
-7.90568
-7.29285
-6.80611
-6.36978
-5.97957
-5.62887
-5.30995
-5.01742
-4.74747
-4.49714
-4.26413
-4.04659
-3.84304
-3.65224
-3.47315
-3.30485
-3.14657
-2.9976
-2.85732
-2.72514
-2.60055
-2.48307
-2.37227
-2.26773
-2.1691
-2.07607
-1.98805
-1.90448
-1.82848
-8.99201
-8.10654
-7.48974
-6.99823
-6.55653
-6.16058
-5.80393
-5.47897
-5.18041
-4.9045
-4.64835
-4.40968
-4.18669
-3.97789
-3.78208
-3.5982
-3.42536
-3.26277
-3.10972
-2.96558
-2.82976
-2.70174
-2.58103
-2.46716
-2.35974
-2.25839
-2.16279
-2.0723
-1.98633
-1.90848
-9.19718
-8.30866
-7.68781
-7.19142
-6.74423
-6.3424
-5.97967
-5.64854
-5.34383
-5.06185
-4.79976
-4.55534
-4.32679
-4.11267
-3.91176
-3.72303
-3.54559
-3.37864
-3.22148
-3.07345
-2.93397
-2.80249
-2.67852
-2.56159
-2.45127
-2.3472
-2.24903
-2.15606
-2.06769
-1.98801
-9.40343
-8.51183
-7.88685
-7.38546
-6.93265
-6.52483
-6.15588
-5.81846
-5.50747
-5.21931
-4.95118
-4.7009
-4.46671
-4.24718
-4.04111
-3.84748
-3.66538
-3.49404
-3.33272
-3.18077
-3.0376
-2.90266
-2.77542
-2.65542
-2.54221
-2.43541
-2.33467
-2.23922
-2.14846
-2.06698
-9.61054
-8.71583
-8.08662
-7.58014
-7.1216
-6.70765
-6.33237
-5.98853
-5.67115
-5.37668
-5.10241
-4.84618
-4.60626
-4.38125
-4.16996
-3.97136
-3.78457
-3.60878
-3.44328
-3.2874
-3.14053
-3.0021
-2.8716
-2.74852
-2.63242
-2.52291
-2.4196
-2.32169
-2.22854
-2.14528
-9.81827
-8.92042
-8.28692
-7.77523
-7.31084
-6.89064
-6.5089
-6.15853
-5.83464
-5.53377
-5.25326
-4.99098
-4.74526
-4.5147
-4.29812
-4.09451
-3.90298
-3.72272
-3.55301
-3.39317
-3.24259
-3.10068
-2.96691
-2.84076
-2.72178
-2.60956
-2.50371
-2.40335
-2.30782
-2.22283
-10.0264
-9.12538
-8.4875
-7.97052
-7.50016
-7.0736
-6.68529
-6.32826
-5.99775
-5.69038
-5.40352
-5.13512
-4.88352
-4.64734
-4.42542
-4.21675
-4.02045
-3.83569
-3.66175
-3.49795
-3.34364
-3.19825
-3.06122
-2.93202
-2.81017
-2.69526
-2.58687
-2.48409
-2.38621
-2.29951
-10.2347
-9.33048
-8.68817
-8.16578
-7.68935
-7.25631
-6.8613
-6.49752
-6.16028
-5.8463
-5.55302
-5.27841
-5.02086
-4.779
-4.55169
-4.33793
-4.13681
-3.94754
-3.76935
-3.60157
-3.44355
-3.29468
-3.15439
-3.02215
-2.89745
-2.77987
-2.66898
-2.56379
-2.46358
-2.37522
-10.443
-9.53551
-8.88868
-8.3608
-7.87819
-7.43856
-7.03674
-6.66608
-6.32202
-6.00134
-5.70154
-5.42066
-5.15709
-4.90951
-4.67677
-4.45787
-4.25192
-4.0581
-3.87567
-3.70391
-3.54217
-3.38982
-3.24629
-3.11102
-2.98349
-2.86327
-2.7499
-2.64233
-2.53981
-2.44985
-10.6509
-9.74025
-9.08883
-8.55536
-8.06646
-7.62013
-7.2114
-6.83376
-6.48277
-6.1553
-5.84892
-5.56169
-5.29205
-5.03869
-4.80048
-4.57642
-4.36561
-4.16724
-3.98054
-3.8048
-3.63934
-3.48354
-3.33678
-3.19849
-3.06815
-2.94532
-2.8295
-2.71959
-2.61478
-2.52327
-10.8584
-9.94447
-9.28841
-8.74924
-8.25395
-7.8008
-7.38505
-7.00034
-6.64234
-6.308
-5.99495
-5.70131
-5.42555
-5.16637
-4.92266
-4.69341
-4.47774
-4.2748
-4.08384
-3.90411
-3.73494
-3.57568
-3.4257
-3.28443
-3.1513
-3.02587
-2.90764
-2.79541
-2.68835
-2.59533
-11.0652
-10.148
-9.48719
-8.94224
-8.44045
-7.98038
-7.55751
-7.16563
-6.80052
-6.45923
-6.13946
-5.83937
-5.55744
-5.29241
-5.04316
-4.80871
-4.58815
-4.38064
-4.18541
-4.00171
-3.82883
-3.66612
-3.51294
-3.36868
-3.23278
-3.10478
-2.98416
-2.86964
-2.76034
-2.66587
-11.2712
-10.3506
-9.68498
-9.13413
-8.62574
-8.15865
-7.72856
-7.32942
-6.95713
-6.60883
-6.28228
-5.97567
-5.68754
-5.41663
-5.16184
-4.92217
-4.69672
-4.48464
-4.28513
-4.09745
-3.92087
-3.75471
-3.59833
-3.4511
-3.31244
-3.18188
-3.05888
-2.94209
-2.83057
-2.73468
-11.476
-10.5521
-9.88157
-9.32472
-8.80961
-8.3354
-7.898
-7.49152
-7.11198
-6.75661
-6.42323
-6.11008
-5.81572
-5.53891
-5.27856
-5.03366
-4.80332
-4.58667
-4.38289
-4.19123
-4.01095
-3.84135
-3.68176
-3.53155
-3.39012
-3.257
-3.13162
-3.01256
-2.89881
-2.80151
-11.6797
-10.7523
-10.0768
-9.51379
-8.99185
-8.51042
-8.06562
-7.65173
-7.26489
-6.90239
-6.56214
-6.24243
-5.94182
-5.6591
-5.39319
-5.14308
-4.90784
-4.68662
-4.47858
-4.28295
-4.09896
-3.9259
-3.7631
-3.6099
-3.46568
-3.32997
-3.20219
-3.08083
-2.96479
-2.86606
-11.8821
-10.951
-10.2703
-9.70113
-9.17225
-8.6835
-8.23123
-7.80986
-7.41566
-7.04601
-6.69887
-6.37257
-6.06571
-5.77709
-5.50562
-5.2503
-5.01019
-4.78442
-4.57213
-4.37252
-4.18482
-4.0083
-3.84227
-3.68603
-3.53899
-3.40063
-3.2704
-3.14667
-3.02823
-2.928
-12.0832
-11.1482
-10.4621
-9.88651
-9.35058
-8.85443
-8.39462
-7.96573
-7.56413
-7.1873
-6.83325
-6.50037
-6.18727
-5.89276
-5.61576
-5.35525
-5.11029
-4.87998
-4.66346
-4.45989
-4.26849
-4.0885
-3.9192
-3.75989
-3.60995
-3.46885
-3.33605
-3.20982
-3.0888
-2.98693
-12.2829
-11.3435
-10.6518
-10.0697
-9.5266
-9.02299
-8.55559
-8.11914
-7.71012
-7.3261
-6.96516
-6.6257
-6.30638
-6.00601
-5.72351
-5.45786
-5.20809
-4.97329
-4.75256
-4.54506
-4.34996
-4.16649
-3.9939
-3.83147
-3.67854
-3.53459
-3.39905
-3.27011
-3.14622
-3.04227
-12.4814
-11.5368
-10.8392
-10.2504
-9.70008
-9.18893
-8.71392
-8.26989
-7.85346
-7.46226
-7.09444
-6.74844
-6.42293
-6.11676
-5.82881
-5.55806
-5.30354
-5.0643
-4.83942
-4.62803
-4.42928
-4.24235
-4.06646
-3.90087
-3.74488
-3.59795
-3.45951
-3.32763
-3.20032
-3.0934
-12.6797
-11.7281
-11.024
-10.4283
-9.87069
-9.352
-8.86937
-8.41779
-7.99396
-7.59561
-7.22095
-6.86845
-6.53683
-6.2249
-5.93157
-5.65582
-5.39662
-5.15302
-4.92407
-4.70886
-4.50652
-4.31618
-4.13703
-3.96826
-3.80914
-3.6591
-3.51754
-3.38226
-3.25059
-3.13997
-12.8791
-11.9172
-11.2054
-10.6029
-10.0381
-9.5119
-9.02172
-8.56262
-8.13144
-7.726
-7.34455
-6.98562
-6.64795
-6.33035
-6.03174
-5.75106
-5.48729
-5.23943
-5.00653
-4.78763
-4.58181
-4.38818
-4.20588
-4.03403
-3.8718
-3.71852
-3.57332
-3.43343
-3.29584
-3.18164
-13.072
-12.1009
-11.3826
-10.7737
-10.2021
-9.66862
-9.17096
-8.70442
-8.26594
-7.85344
-7.46526
-7.09998
-6.75633
-6.43315
-6.12934
-5.84384
-5.57561
-5.32363
-5.08689
-4.86445
-4.65535
-4.45867
-4.2735
-4.09896
-3.93417
-3.77824
-3.62982
-3.48588
-3.34476
-3.22573
-16.361
-16.3367
-16.3027
-16.2641
-16.22
-16.1697
-16.1131
-16.0502
-15.9808
-15.9051
-15.8231
-15.7348
-15.6404
-15.5399
-15.4335
-15.3212
-15.2032
-15.0797
-14.9508
-14.8166
-14.6774
-14.5332
-14.3843
-14.2308
-14.0731
-13.9112
-13.7456
-13.5766
-13.4049
-13.2333
-15.3208
-15.3015
-15.2735
-15.2388
-15.1977
-15.15
-15.0957
-15.035
-14.9679
-14.8945
-14.8148
-14.7289
-14.6369
-14.5389
-14.435
-14.3253
-14.2101
-14.0893
-13.9632
-13.8319
-13.6955
-13.5542
-13.4083
-13.2579
-13.1031
-12.9443
-12.7817
-12.6156
-12.4463
-12.2743
-14.4775
-14.4621
-14.4388
-14.4084
-14.3712
-14.3274
-14.277
-14.2202
-14.157
-14.0875
-14.0118
-13.93
-13.8422
-13.7485
-13.649
-13.5437
-13.4329
-13.3167
-13.1951
-13.0684
-12.9367
-12.8002
-12.659
-12.5133
-12.3633
-12.2092
-12.0511
-11.8894
-11.724
-11.5552
-13.7107
-13.6989
-13.6799
-13.6539
-13.6213
-13.582
-13.5363
-13.4842
-13.4259
-13.3614
-13.2907
-13.2141
-13.1315
-13.0431
-12.9489
-12.8492
-12.744
-12.6334
-12.5176
-12.3966
-12.2708
-12.1401
-12.0048
-11.865
-11.7209
-11.5727
-11.4204
-11.2643
-11.1045
-10.941
-12.965
-12.9568
-12.942
-12.9205
-12.8924
-12.8579
-12.8172
-12.7701
-12.717
-12.6578
-12.5926
-12.5215
-12.4447
-12.3621
-12.2739
-12.1802
-12.0812
-11.9768
-11.8673
-11.7529
-11.6335
-11.5094
-11.3806
-11.2475
-11.11
-10.9684
-10.8227
-10.6731
-10.5198
-10.3628
-12.2524
-12.2477
-12.2368
-12.2194
-12.1958
-12.1659
-12.13
-12.088
-12.04
-11.9862
-11.9265
-11.8611
-11.79
-11.7134
-11.6314
-11.5439
-11.4512
-11.3534
-11.2505
-11.1427
-11.0301
-10.9128
-10.791
-10.6648
-10.5343
-10.3996
-10.261
-10.1185
-9.9722
-9.82226
-11.5779
-11.5764
-11.569
-11.5554
-11.5358
-11.5103
-11.4788
-11.4416
-11.3985
-11.3498
-11.2955
-11.2356
-11.1702
-11.0994
-11.0233
-10.9421
-10.8556
-10.7642
-10.6679
-10.5667
-10.4609
-10.3505
-10.2357
-10.1165
-9.99309
-9.86561
-9.73417
-9.59887
-9.45984
-9.3172
-10.9421
-10.9434
-10.9389
-10.9287
-10.9127
-10.891
-10.8636
-10.8307
-10.7922
-10.7482
-10.6988
-10.6441
-10.584
-10.5188
-10.4484
-10.373
-10.2927
-10.2074
-10.1174
-10.0228
-9.92354
-9.81985
-9.71182
-9.59954
-9.48314
-9.36273
-9.23843
-9.11034
-8.97856
-8.84325
-10.3452
-10.3487
-10.3468
-10.3394
-10.3264
-10.3081
-10.2843
-10.2552
-10.2207
-10.1811
-10.1362
-10.0861
-10.031
-9.97092
-9.90587
-9.83595
-9.76125
-9.68186
-9.59785
-9.50933
-9.41638
-9.3191
-9.2176
-9.11198
-9.00233
-8.88877
-8.7714
-8.65033
-8.52566
-8.39751
-9.78695
-9.7922
-9.79233
-9.78721
-9.77686
-9.76133
-9.74064
-9.71484
-9.68395
-9.64805
-9.60717
-9.56137
-9.51071
-9.45523
-9.39502
-9.33014
-9.26067
-9.18667
-9.10823
-9.02544
-8.93837
-8.84713
-8.75179
-8.65246
-8.54923
-8.44219
-8.33145
-8.21711
-8.09926
-7.97803
-9.26632
-9.2729
-9.27462
-9.27134
-9.26309
-9.24991
-9.23181
-9.20883
-9.18101
-9.1484
-9.11105
-9.06898
-9.02226
-8.97095
-8.91509
-8.85477
-8.79004
-8.72097
-8.64764
-8.57012
-8.48849
-8.40284
-8.31324
-8.21979
-8.12257
-8.02168
-7.9172
-7.80922
-7.69785
-7.58318
-8.7819
-8.78942
-8.79232
-8.79046
-8.78388
-8.7726
-8.75665
-8.73604
-8.71082
-8.68104
-8.64672
-8.60791
-8.56466
-8.51702
-8.46505
-8.4088
-8.34833
-8.28372
-8.21502
-8.14231
-8.06566
-7.98515
-7.90084
-7.81283
-7.7212
-7.62602
-7.52738
-7.42537
-7.32008
-7.21161
-8.33187
-8.34001
-8.34373
-8.34294
-8.33764
-8.32788
-8.31367
-8.29502
-8.27198
-8.24459
-8.21288
-8.17688
-8.13666
-8.09224
-8.04369
-7.99106
-7.9344
-7.87378
-7.80925
-7.74089
-7.66876
-7.59292
-7.51346
-7.43044
-7.34395
-7.25405
-7.16083
-7.06437
-6.96475
-6.86207
-7.91421
-7.92269
-7.92695
-7.92691
-7.92258
-7.914
-7.90118
-7.88412
-7.86289
-7.83751
-7.80802
-7.77444
-7.73682
-7.69522
-7.64967
-7.60022
-7.54694
-7.48988
-7.42909
-7.36464
-7.29659
-7.225
-7.14994
-7.07147
-6.98968
-6.90464
-6.81641
-6.72507
-6.63071
-6.5334
-7.52679
-7.53537
-7.53993
-7.54039
-7.53676
-7.52908
-7.51734
-7.50158
-7.48184
-7.45814
-7.43051
-7.399
-7.36363
-7.32446
-7.28154
-7.2349
-7.1846
-7.1307
-7.07324
-7.01229
-6.9479
-6.88014
-6.80907
-6.73475
-6.65724
-6.57663
-6.49297
-6.40635
-6.31683
-6.2245
-7.1674
-7.17592
-7.1806
-7.18135
-7.1782
-7.17118
-7.16029
-7.14556
-7.12703
-7.10472
-7.07867
-7.04891
-7.01548
-6.97842
-6.93778
-6.8936
-6.84594
-6.79483
-6.74034
-6.68252
-6.62142
-6.55711
-6.48963
-6.41906
-6.34546
-6.26888
-6.18941
-6.1071
-6.02203
-5.93429
-6.83392
-6.84224
-6.84688
-6.84776
-6.84492
-6.83838
-6.82813
-6.81421
-6.79667
-6.77552
-6.7508
-6.72253
-6.69076
-6.65553
-6.61688
-6.57485
-6.52951
-6.48088
-6.42903
-6.374
-6.31585
-6.25463
-6.1904
-6.12322
-6.05315
-5.98024
-5.90458
-5.82622
-5.74523
-5.66171
-6.52425
-6.53228
-6.53677
-6.53767
-6.535
-6.52878
-6.51901
-6.50574
-6.489
-6.46881
-6.44519
-6.4182
-6.38785
-6.35421
-6.31729
-6.27716
-6.23386
-6.18743
-6.13792
-6.08539
-6.02988
-5.97144
-5.91014
-5.84602
-5.77915
-5.70958
-5.63739
-5.56263
-5.48537
-5.40572
-6.23644
-6.24411
-6.24838
-6.24919
-6.24659
-6.24058
-6.23117
-6.2184
-6.2023
-6.18291
-6.16023
-6.13432
-6.10521
-6.07293
-6.03754
-5.99908
-5.95758
-5.9131
-5.86568
-5.81538
-5.76224
-5.70631
-5.64765
-5.5863
-5.52233
-5.45579
-5.38674
-5.31526
-5.24141
-5.1653
-5.96865
-5.97591
-5.9799
-5.98057
-5.97795
-5.97206
-5.96291
-5.95053
-5.93496
-5.91623
-5.89435
-5.86937
-5.84132
-5.81025
-5.77619
-5.73919
-5.6993
-5.65656
-5.61101
-5.56271
-5.5117
-5.45803
-5.40175
-5.34291
-5.28156
-5.21777
-5.15158
-5.08308
-5.01234
-4.93947
-5.71917
-5.726
-5.72967
-5.73015
-5.72747
-5.72163
-5.71266
-5.70059
-5.68545
-5.66727
-5.64607
-5.62189
-5.59477
-5.56475
-5.53187
-5.49618
-5.45772
-5.41652
-5.37265
-5.32615
-5.27706
-5.22543
-5.1713
-5.11474
-5.05578
-4.99448
-4.9309
-4.86511
-4.79718
-4.72727
-5.48643
-5.49282
-5.49616
-5.49642
-5.49363
-5.48781
-5.47895
-5.46712
-5.45234
-5.43462
-5.414
-5.39053
-5.36422
-5.33514
-5.3033
-5.26877
-5.23159
-5.19179
-5.14942
-5.10454
-5.05719
-5.0074
-4.95524
-4.90074
-4.84396
-4.78493
-4.72371
-4.66037
-4.595
-4.52777
-5.26901
-5.27496
-5.27796
-5.27799
-5.27507
-5.26922
-5.26045
-5.2488
-5.23431
-5.21699
-5.19688
-5.17402
-5.14843
-5.12017
-5.08928
-5.05579
-5.01975
-4.9812
-4.9402
-4.89679
-4.85101
-4.80291
-4.75253
-4.69992
-4.64511
-4.58815
-4.52908
-4.46798
-4.4049
-4.34009
-5.06561
-5.07113
-5.07379
-5.07358
-5.07051
-5.06461
-5.05589
-5.0444
-5.03016
-5.01319
-4.99352
-4.9712
-4.94626
-4.91873
-4.88868
-4.85612
-4.82112
-4.78372
-4.74395
-4.70187
-4.65753
-4.61096
-4.56222
-4.51133
-4.45833
-4.40327
-4.34616
-4.28707
-4.22605
-4.16341
-4.87506
-4.88016
-4.88249
-4.88203
-4.87882
-4.87286
-4.86417
-4.8528
-4.83876
-4.8221
-4.80282
-4.78098
-4.75662
-4.72976
-4.70047
-4.66876
-4.6347
-4.59833
-4.55969
-4.51884
-4.4758
-4.43064
-4.38339
-4.33409
-4.28277
-4.22944
-4.17413
-4.11688
-4.05766
-3.99696
-4.69629
-4.70098
-4.70298
-4.70229
-4.69892
-4.69288
-4.6842
-4.67292
-4.65907
-4.64266
-4.62374
-4.60233
-4.57848
-4.55222
-4.52361
-4.49267
-4.45947
-4.42404
-4.38642
-4.34668
-4.30484
-4.26097
-4.21509
-4.16725
-4.11747
-4.06576
-4.0121
-3.95652
-3.89887
-3.83998
-4.52837
-4.53267
-4.53435
-4.53341
-4.52987
-4.52374
-4.51505
-4.50384
-4.49013
-4.47394
-4.45531
-4.43428
-4.41088
-4.38515
-4.35714
-4.32689
-4.29444
-4.25984
-4.22315
-4.1844
-4.14364
-4.10093
-4.05629
-4.00978
-3.9614
-3.91116
-3.85902
-3.80495
-3.74858
-3.6914
-4.37042
-4.37441
-4.37585
-4.37474
-4.3711
-4.36493
-4.35628
-4.34517
-4.33163
-4.31568
-4.29735
-4.27669
-4.25373
-4.22851
-4.20108
-4.17147
-4.13974
-4.10592
-4.07008
-4.03225
-3.99249
-3.95085
-3.90737
-3.86208
-3.81502
-3.76617
-3.71548
-3.66282
-3.60742
-3.55157
-4.22152
-4.22538
-4.22675
-4.22564
-4.22206
-4.21603
-4.20759
-4.19675
-4.18355
-4.168
-4.15015
-4.13004
-4.10769
-4.08315
-4.05647
-4.02768
-3.99684
-3.964
-3.92919
-3.89248
-3.85391
-3.81354
-3.77141
-3.72758
-3.68206
-3.63488
-3.58595
-3.53509
-3.48101
-3.42668
-4.08098
-4.08406
-4.08475
-4.08308
-4.07903
-4.07264
-4.06394
-4.05295
-4.03969
-4.0242
-4.00651
-3.98665
-3.96467
-3.9406
-3.91449
-3.88637
-3.85631
-3.82433
-3.79051
-3.75487
-3.71749
-3.67841
-3.63769
-3.59539
-3.55156
-3.50623
-3.4594
-3.41087
-3.35935
-3.31179
-13.8724
-14.0301
-14.1791
-14.3278
-14.4746
-14.618
-14.7574
-14.8924
-15.0228
-15.1482
-15.2683
-15.3829
-15.4918
-15.5948
-15.6918
-15.7827
-15.8672
-15.9453
-16.0169
-16.0818
-16.14
-16.1914
-16.236
-16.2738
-16.3046
-16.3286
-16.3458
-16.3563
-16.3605
-16.36
-12.8312
-12.993
-13.1478
-13.2989
-13.4463
-13.5896
-13.7284
-13.8627
-13.9922
-14.1166
-14.2359
-14.3498
-14.458
-14.5605
-14.657
-14.7475
-14.8318
-14.9097
-14.9812
-15.0463
-15.1047
-15.1564
-15.2014
-15.2397
-15.2712
-15.2959
-15.3139
-15.3251
-15.3298
-15.3281
-11.9739
-12.1353
-12.2912
-12.4425
-12.5894
-12.732
-12.8702
-13.0037
-13.1325
-13.2564
-13.3752
-13.4886
-13.5966
-13.699
-13.7956
-13.8864
-13.971
-14.0496
-14.1218
-14.1877
-14.2472
-14.3002
-14.3466
-14.3864
-14.4195
-14.446
-14.4658
-14.4789
-14.4853
-14.4848
-11.1953
-11.3542
-11.5085
-11.6584
-11.804
-11.9453
-12.0822
-12.2146
-12.3424
-12.4654
-12.5834
-12.6963
-12.804
-12.9062
-13.0028
-13.0938
-13.1789
-13.258
-13.3311
-13.3981
-13.4588
-13.5133
-13.5613
-13.603
-13.6381
-13.6668
-13.6889
-13.7044
-13.7132
-13.7153
-10.4482
-10.6036
-10.7552
-10.9027
-11.046
-11.1853
-11.3203
-11.451
-11.5772
-11.6988
-11.8156
-11.9275
-12.0343
-12.1359
-12.2322
-12.323
-12.4082
-12.4877
-12.5614
-12.6292
-12.691
-12.7467
-12.7962
-12.8396
-12.8767
-12.9075
-12.9319
-12.95
-12.9615
-12.9665
-9.74739
-9.89878
-10.0468
-10.1911
-10.3314
-10.4679
-10.6004
-10.7287
-10.8528
-10.9724
-11.0875
-11.1978
-11.3034
-11.4039
-11.4994
-11.5896
-11.6744
-11.7539
-11.8277
-11.8959
-11.9583
-12.015
-12.0657
-12.1105
-12.1492
-12.1819
-12.2085
-12.2289
-12.243
-12.2508
-9.09839
-9.24535
-9.38929
-9.52973
-9.66657
-9.79974
-9.92911
-10.0545
-10.1759
-10.2931
-10.4059
-10.5143
-10.618
-10.717
-10.8111
-10.9003
-10.9843
-11.0632
-11.1367
-11.2049
-11.2675
-11.3246
-11.3761
-11.4219
-11.4619
-11.4961
-11.5244
-11.5468
-11.5632
-11.5736
-8.50078
-8.64305
-8.78254
-8.91879
-9.05167
-9.18111
-9.30696
-9.4291
-9.54737
-9.66166
-9.77183
-9.87774
-9.97926
-10.0763
-10.1687
-10.2563
-10.3391
-10.4169
-10.4897
-10.5574
-10.6198
-10.6769
-10.7286
-10.7749
-10.8157
-10.851
-10.8806
-10.9046
-10.9229
-10.9354
-7.95297
-8.0904
-8.22524
-8.35706
-8.48573
-8.61117
-8.73322
-8.85175
-8.96663
-9.07772
-9.1849
-9.28804
-9.387
-9.48168
-9.57196
-9.65772
-9.73886
-9.81529
-9.8869
-9.95362
-10.0154
-10.0721
-10.1236
-10.17
-10.2112
-10.247
-10.2775
-10.3026
-10.3223
-10.3366
-7.4525
-7.58503
-7.71514
-7.84242
-7.96675
-8.08802
-8.2061
-8.32085
-8.43213
-8.53982
-8.64378
-8.7439
-8.84005
-8.93212
-9.02
-9.10358
-9.18276
-9.25745
-9.32756
-9.39301
-9.45371
-9.50961
-9.56063
-9.60672
-9.64781
-9.68385
-9.71481
-9.74064
-9.7613
-9.77678
-6.99616
-7.12384
-7.24922
-7.37195
-7.4919
-7.60896
-7.72299
-7.83387
-7.94145
-8.04561
-8.14622
-8.24317
-8.33634
-8.42562
-8.5109
-8.59208
-8.66906
-8.74177
-8.81011
-8.874
-8.93338
-8.98817
-9.03832
-9.08376
-9.12444
-9.16033
-9.19136
-9.21752
-9.23876
-9.25507
-6.58045
-6.70336
-6.8241
-6.94233
-7.05794
-7.17081
-7.28081
-7.3878
-7.49165
-7.59224
-7.68944
-7.78315
-7.87324
-7.95962
-8.04217
-8.12081
-8.19544
-8.26598
-8.33236
-8.39449
-8.45231
-8.50576
-8.55477
-8.5993
-8.6393
-8.67472
-8.70552
-8.73167
-8.75315
-8.76994
-6.20174
-6.32003
-6.43625
-6.5501
-6.66146
-6.77022
-6.87625
-6.9794
-7.07956
-7.1766
-7.2704
-7.36084
-7.44783
-7.53126
-7.61102
-7.68704
-7.75922
-7.82749
-7.89177
-7.952
-8.0081
-8.06003
-8.10772
-8.15113
-8.19022
-8.22493
-8.25525
-8.28113
-8.30255
-8.31952
-5.85649
-5.97033
-6.0822
-6.19181
-6.29906
-6.40384
-6.506
-6.60542
-6.70196
-6.79551
-6.88596
-6.97318
-7.05708
-7.13756
-7.21453
-7.2879
-7.35759
-7.42353
-7.48565
-7.54388
-7.59817
-7.64845
-7.69469
-7.73683
-7.77483
-7.80866
-7.83829
-7.86369
-7.88483
-7.90172
-5.54134
-5.65092
-5.75861
-5.86416
-5.96747
-6.06841
-6.16685
-6.26266
-6.3557
-6.44587
-6.53304
-6.61712
-6.69799
-6.77557
-6.84977
-6.92051
-6.98771
-7.0513
-7.11123
-7.16743
-7.21984
-7.26841
-7.3131
-7.35387
-7.39068
-7.4235
-7.4523
-7.47705
-7.49774
-7.51436
-5.25316
-5.35867
-5.46238
-5.56406
-5.66361
-5.76089
-5.85577
-5.94812
-6.0378
-6.12471
-6.20872
-6.28974
-6.36767
-6.44242
-6.51391
-6.58206
-6.64681
-6.70809
-6.76583
-6.81998
-6.8705
-6.91733
-6.96044
-6.99978
-7.03532
-7.06704
-7.0949
-7.11889
-7.13899
-7.15521
-4.98911
-5.09075
-5.19068
-5.28868
-5.38466
-5.47847
-5.56996
-5.65901
-5.74548
-5.82926
-5.91024
-5.98832
-6.06341
-6.13542
-6.20429
-6.26993
-6.33228
-6.39128
-6.44687
-6.49901
-6.54765
-6.59273
-6.63424
-6.67213
-6.70636
-6.73693
-6.76379
-6.78695
-6.80637
-6.82207
-4.74661
-4.84456
-4.9409
-5.03544
-5.12804
-5.21856
-5.30685
-5.39277
-5.47618
-5.55699
-5.63507
-5.71033
-5.7827
-5.85208
-5.91841
-5.98162
-6.04165
-6.09844
-6.15195
-6.20211
-6.2489
-6.29227
-6.33219
-6.36862
-6.40155
-6.43094
-6.45677
-6.47904
-6.49772
-6.51284
-4.52334
-4.61778
-4.71075
-4.80202
-4.89145
-4.97887
-5.06413
-5.14709
-5.22761
-5.30558
-5.3809
-5.45348
-5.52324
-5.59011
-5.65401
-5.71488
-5.77268
-5.82734
-5.87882
-5.92708
-5.97207
-6.01377
-6.05213
-6.08713
-6.11875
-6.14697
-6.17176
-6.19312
-6.21103
-6.22551
-4.31724
-4.40835
-4.49813
-4.58635
-4.6728
-4.75732
-4.83974
-4.9199
-4.99768
-5.07296
-5.14566
-5.21569
-5.28297
-5.34743
-5.40901
-5.46765
-5.5233
-5.57592
-5.62546
-5.67188
-5.71514
-5.75521
-5.79206
-5.82567
-5.85602
-5.88308
-5.90684
-5.92729
-5.94442
-5.95824
-4.12647
-4.2144
-4.30122
-4.38659
-4.47027
-4.55207
-4.63182
-4.70935
-4.78453
-4.85728
-4.92749
-4.99509
-5.06
-5.12217
-5.18154
-5.23805
-5.29166
-5.34233
-5.39001
-5.43466
-5.47626
-5.51478
-5.55018
-5.58244
-5.61155
-5.63748
-5.66023
-5.67978
-5.69613
-5.70929
-3.94938
-4.03429
-4.11837
-4.20111
-4.28222
-4.3615
-4.43874
-4.51379
-4.58653
-4.65686
-4.72471
-4.79
-4.85268
-4.91267
-4.96994
-5.02442
-5.07609
-5.12489
-5.1708
-5.21378
-5.25379
-5.29081
-5.32482
-5.35579
-5.38371
-5.40856
-5.43033
-5.44901
-5.46459
-5.4771
-3.78448
-3.86654
-3.94813
-4.02848
-4.10723
-4.18415
-4.25904
-4.33176
-4.40218
-4.47024
-4.53585
-4.59896
-4.6595
-4.71743
-4.77269
-4.82526
-4.87508
-4.92212
-4.96634
-5.00772
-5.04622
-5.08183
-5.11451
-5.14425
-5.17103
-5.19484
-5.21567
-5.2335
-5.24835
-5.26021
-3.63037
-3.70977
-3.78921
-3.86741
-3.944
-4.01874
-4.09144
-4.16195
-4.23019
-4.29609
-4.35958
-4.42061
-4.47913
-4.5351
-4.58848
-4.63922
-4.68729
-4.73265
-4.77528
-4.81514
-4.85222
-4.88648
-4.9179
-4.94647
-4.97217
-4.99499
-5.01492
-5.03195
-5.04608
-5.05733
-3.48578
-3.56281
-3.64052
-3.71684
-3.79146
-3.86419
-3.93483
-4.00326
-4.06943
-4.13328
-4.19475
-4.25382
-4.31042
-4.36453
-4.41611
-4.46513
-4.51154
-4.55532
-4.59644
-4.63487
-4.67059
-4.70357
-4.7338
-4.76126
-4.78594
-4.80782
-4.8269
-4.84316
-4.85662
-4.86727
-3.34952
-3.42486
-3.5014
-3.57609
-3.64892
-3.71977
-3.78846
-3.85491
-3.9191
-3.98098
-4.04053
-4.09772
-4.15249
-4.20484
-4.2547
-4.30207
-4.3469
-4.38917
-4.42885
-4.46592
-4.50035
-4.53212
-4.56122
-4.58762
-4.61132
-4.63231
-4.65057
-4.6661
-4.6789
-4.68899
-3.21955
-3.29476
-3.37102
-3.4443
-3.51546
-3.58455
-3.65137
-3.71592
-3.77821
-3.83821
-3.89593
-3.95132
-4.00435
-4.05501
-4.10325
-4.14906
-4.19239
-4.23323
-4.27155
-4.30732
-4.34053
-4.37116
-4.39918
-4.42458
-4.44736
-4.46749
-4.48498
-4.49981
-4.51199
-4.52153
-3.09067
-3.16781
-3.24544
-3.31776
-3.3875
-3.45503
-3.52018
-3.58301
-3.64359
-3.70193
-3.758
-3.8118
-3.8633
-3.91248
-3.95929
-4.00373
-4.04576
-4.08536
-4.12251
-4.15717
-4.18933
-4.21898
-4.24609
-4.27065
-4.29264
-4.31207
-4.32891
-4.34317
-4.35485
-4.36395
-2.95908
-3.04006
-3.12122
-3.1936
-3.26243
-3.32874
-3.39254
-3.45399
-3.51318
-3.57014
-3.62488
-3.67738
-3.72761
-3.77556
-3.82121
-3.86453
-3.90549
-3.94407
-3.98026
-4.01402
-4.04534
-4.07421
-4.1006
-4.1245
-4.14591
-4.16481
-4.18119
-4.19506
-4.2064
-4.21524
-2.85841
-2.94787
-3.02983
-3.10132
-3.16845
-3.23259
-3.29415
-3.35334
-3.41028
-3.46499
-3.5175
-3.56778
-3.61583
-3.66162
-3.70515
-3.7464
-3.78534
-3.82196
-3.85624
-3.88817
-3.91773
-3.94491
-3.9697
-3.99208
-4.01205
-4.02959
-4.04472
-4.05742
-4.0677
-4.07556
-0.648675
-0.693108
-0.740914
-0.792316
-0.847829
-0.907958
-0.973239
-1.0443
-1.12189
-1.20687
-1.30025
-1.40319
-1.51709
-1.64355
-1.78444
-1.94194
-2.11857
-2.31723
-2.54126
-2.79441
-3.0809
-3.40537
-3.7728
-4.18834
-4.6573
-5.18503
-5.77232
-6.41216
-7.1571
-8.11275
-0.719483
-0.766382
-0.815902
-0.869226
-0.926865
-0.989233
-1.05687
-1.13042
-1.21065
-1.29841
-1.39475
-1.50083
-1.61807
-1.74808
-1.89275
-2.05428
-2.23521
-2.43845
-2.66736
-2.92569
-3.21767
-3.54793
-3.92141
-4.3432
-4.8185
-5.35252
-5.94579
-6.59083
-7.339
-8.29387
-0.791103
-0.84051
-0.891769
-0.947049
-1.00685
-1.0715
-1.14153
-1.21761
-1.30051
-1.39112
-1.49046
-1.59974
-1.72037
-1.85399
-2.00251
-2.16813
-2.35343
-2.56132
-2.79518
-3.05877
-3.35632
-3.69243
-4.07201
-4.50008
-4.98171
-5.52191
-6.12093
-6.77073
-7.52141
-8.47471
-0.863478
-0.915432
-0.968453
-1.02572
-1.08772
-1.15468
-1.22714
-1.3058
-1.39142
-1.4849
-1.58729
-1.69981
-1.82388
-1.96116
-2.11357
-2.28335
-2.47306
-2.68566
-2.92452
-3.19342
-3.49658
-3.83859
-4.22431
-4.65866
-5.14662
-5.69297
-6.29765
-6.95226
-7.7061
-8.65985
-0.936561
-0.991094
-1.0459
-1.10519
-1.16941
-1.23873
-1.31366
-1.39492
-1.48329
-1.57969
-1.68518
-1.80098
-1.92854
-2.06953
-2.22588
-2.39986
-2.59404
-2.8114
-3.05531
-3.32958
-3.63839
-3.98633
-4.37821
-4.81888
-5.31317
-5.86567
-6.47605
-7.13554
-7.89296
-8.84828
-1.0103
-1.06744
-1.12405
-1.18539
-1.25188
-1.32357
-1.401
-1.48491
-1.57608
-1.67543
-1.78405
-1.90318
-2.03427
-2.17901
-2.33936
-2.51758
-2.71628
-2.93845
-3.18747
-3.46714
-3.78166
-4.13557
-4.53365
-4.98066
-5.4813
-6.03996
-6.65606
-7.3205
-8.08167
-9.03908
-1.08464
-1.14442
-1.20285
-1.26626
-1.33505
-1.40915
-1.48912
-1.5757
-1.66969
-1.77205
-1.88384
-2.00633
-2.14099
-2.28952
-2.4539
-2.63642
-2.83969
-3.06671
-3.32088
-3.60601
-3.92627
-4.2862
-4.6905
-5.14388
-5.65089
-6.21574
-6.83759
-7.50702
-8.27205
-9.23184
-1.15954
-1.22196
-1.28224
-1.34775
-1.41886
-1.49541
-1.57794
-1.66722
-1.76408
-1.86946
-1.98446
-2.11035
-2.24861
-2.40098
-2.56944
-2.75629
-2.96417
-3.19609
-3.45545
-3.74607
-4.07212
-4.43809
-4.84865
-5.30842
-5.82182
-6.39288
-7.02051
-7.69497
-8.46395
-9.42629
-1.23495
-1.30003
-1.36215
-1.4298
-1.50326
-1.58228
-1.6674
-1.75942
-1.85917
-1.9676
-2.08583
-2.21516
-2.35707
-2.5133
-2.68588
-2.8771
-3.08962
-3.32648
-3.59107
-3.88722
-4.21908
-4.59113
-5.00798
-5.47415
-5.99395
-6.57124
-7.20466
-7.88418
-8.65716
-9.62216
-1.31081
-1.37855
-1.44254
-1.51234
-1.58818
-1.6697
-1.75744
-1.85221
-1.95488
-2.0664
-2.1879
-2.32068
-2.46626
-2.6264
-2.80312
-2.99874
-3.21595
-3.45777
-3.72763
-4.02934
-4.36705
-4.7452
-5.16835
-5.64094
-6.16716
-6.75067
-7.38989
-8.07448
-8.85148
-9.81919
-1.38709
-1.45749
-1.52335
-1.59533
-1.67357
-1.7576
-1.84798
-1.94554
-2.05115
-2.16577
-2.29056
-2.42683
-2.57612
-2.74018
-2.92107
-3.12113
-3.34305
-3.58987
-3.86503
-4.17232
-4.51589
-4.90016
-5.32963
-5.80866
-6.34129
-6.93102
-7.57603
-8.26568
-9.0467
-10.0171
-1.46374
-1.5368
-1.60453
-1.67871
-1.75937
-1.84594
-1.93898
-2.03934
-2.1479
-2.26566
-2.39376
-2.53354
-2.68654
-2.85456
-3.03964
-3.24416
-3.47081
-3.72266
-4.00313
-4.31603
-4.66549
-5.0559
-5.49169
-5.97714
-6.51618
-7.11212
-7.7629
-8.45759
-9.24261
-10.2158
-1.54072
-1.61642
-1.68602
-1.76242
-1.84552
-1.93464
-2.03035
-2.13353
-2.24507
-2.36597
-2.49739
-2.6407
-2.79744
-2.96943
-3.15873
-3.36773
-3.59914
-3.85602
-4.14183
-4.46036
-4.81572
-5.21226
-5.65438
-6.14625
-6.69168
-7.2938
-7.95033
-8.65002
-9.43901
-10.4149
-1.618
-1.69632
-1.76779
-1.84642
-1.93198
-2.02366
-2.12205
-2.22805
-2.34258
-2.46663
-2.60139
-2.74824
-2.90873
-3.0847
-3.27824
-3.49173
-3.7279
-3.98985
-4.281
-4.60516
-4.96642
-5.3691
-5.81754
-6.31582
-6.86762
-7.47589
-8.13812
-8.84276
-9.63569
-10.6143
-1.69555
-1.77646
-1.84978
-1.93066
-2.01868
-2.11292
-2.21401
-2.32284
-2.44035
-2.56757
-2.70567
-2.85606
-3.02032
-3.20028
-3.39805
-3.61605
-3.857
-4.12401
-4.42051
-4.75031
-5.11747
-5.52629
-5.98104
-6.4857
-7.04383
-7.65821
-8.32608
-9.03563
-9.83243
-10.8138
-1.77336
-1.85682
-1.93198
-2.01509
-2.10558
-2.20239
-2.30616
-2.41782
-2.53832
-2.66869
-2.81015
-2.96408
-3.13209
-3.31605
-3.51807
-3.74057
-3.9863
-4.25837
-4.56023
-4.89566
-5.26873
-5.68366
-6.14469
-6.65571
-7.22013
-7.84057
-8.51403
-9.22842
-10.029
-11.0131
-1.85142
-1.93737
-2.01433
-2.09969
-2.19263
-2.292
-2.39844
-2.51293
-2.6364
-2.76992
-2.91471
-3.07219
-3.24396
-3.43191
-3.63817
-3.86517
-4.11569
-4.39283
-4.70003
-5.04109
-5.42004
-5.84107
-6.30836
-6.82569
-7.39636
-8.02279
-8.70177
-9.42092
-10.2253
-11.212
-1.92972
-2.01809
-2.09683
-2.18441
-2.27979
-2.38169
-2.49079
-2.60807
-2.73451
-2.87117
-3.01928
-3.18028
-3.35581
-3.54774
-3.75824
-3.98974
-4.24503
-4.52722
-4.83977
-5.18643
-5.57125
-5.99836
-6.47186
-6.99546
-7.57232
-8.20468
-8.88911
-9.61294
-10.421
-11.4103
-2.00829
-2.09899
-2.17943
-2.2692
-2.36699
-2.4714
-2.58312
-2.70318
-2.83255
-2.97232
-3.12375
-3.28826
-3.46752
-3.66343
-3.87814
-4.11414
-4.37419
-4.66142
-4.97929
-5.33155
-5.7222
-6.15535
-6.63503
-7.16485
-7.74783
-8.38604
-9.07584
-9.80427
-10.616
-11.6079
-2.08714
-2.18004
-2.26211
-2.35403
-2.45418
-2.56104
-2.67534
-2.79814
-2.93042
-3.07328
-3.22798
-3.39599
-3.57897
-3.77883
-3.99776
-4.23823
-4.50303
-4.79529
-5.11845
-5.47628
-5.87274
-6.31189
-6.7977
-7.33368
-7.92271
-8.5667
-9.26176
-9.99471
-10.81