/*--------------------------------*- C++ -*----------------------------------*\
| =========                 |                                                 |
| \\      /  F ield         | OpenFOAM: The Open Source CFD Toolbox           |
|  \\    /   O peration     | Version:  v1912                                 |
|   \\  /    A nd           | Website:  www.openfoam.com                      |
|    \\/     M anipulation  |                                                 |
\*---------------------------------------------------------------------------*/
FoamFile
{
    version     2.0;
    format      ascii;
    class       volVectorField;
    location    "20";
    object      U;
}
// * * * * * * * * * * * * * * * * * * * * * * * * * * * * * * * * * * * * * //

dimensions      [0 1 -1 0 0 0 0];


internalField   nonuniform List<vector> 
9600
(
(0.457046 -9.37898 -1.52863e-19)
(0.158537 -8.66288 0)
(0.237415 -8.19114 -8.945e-20)
(0.311848 -7.86667 0)
(0.3748 -7.62305 0)
(0.438889 -7.41866 -3.13022e-20)
(0.500294 -7.23056 -5.11344e-22)
(0.556006 -7.04709 2.60579e-20)
(0.605311 -6.86318 0)
(0.648248 -6.6775 -4.4107e-20)
(0.685192 -6.49065 0)
(0.716736 -6.30412 -1.79504e-21)
(0.743577 -6.11961 -2.58094e-21)
(0.766431 -5.93872 -3.06829e-20)
(0.78598 -5.76275 2.58132e-20)
(0.802843 -5.59257 -2.53606e-20)
(0.817538 -5.4286 2.25368e-20)
(0.830589 -5.27068 0)
(0.84276 -5.11803 -1.78873e-20)
(0.853731 -4.96918 1.96394e-20)
(0.825576 -9.36762 -3.05447e-19)
(0.502003 -8.68862 1.1809e-20)
(0.564057 -8.23219 1.84294e-19)
(0.626767 -7.91672 -1.56591e-19)
(0.68041 -7.67747 1.5443e-19)
(0.736152 -7.47358 0)
(0.789402 -7.28332 5.96292e-20)
(0.836827 -7.09611 -5.94329e-20)
(0.877639 -6.90762 -1.02916e-19)
(0.91193 -6.71707 1.29833e-19)
(0.94018 -6.52545 -8.42668e-20)
(0.963098 -6.33448 -3.42762e-20)
(0.981486 -6.14599 6.92539e-20)
(0.996143 -5.96166 0)
(1.00781 -5.78281 0)
(1.01715 -5.61029 9.66138e-20)
(1.02467 -5.4445 -1.63763e-19)
(1.03093 -5.28522 0)
(1.03675 -5.13157 0)
(1.04157 -4.98194 -7.55599e-20)
(1.19437 -9.3427 6.3094e-19)
(0.847561 -8.70146 0)
(0.894007 -8.26056 -3.72206e-19)
(0.9457 -7.95421 -3.36806e-19)
(0.990325 -7.71936 0)
(1.0377 -7.51595 5.36396e-19)
(1.08259 -7.32359 -5.0601e-19)
(1.1214 -7.13276 9.89741e-20)
(1.15333 -6.9399 -2.20328e-19)
(1.17859 -6.74478 -3.65537e-19)
(1.19777 -6.54874 4.98251e-19)
(1.21172 -6.35371 -3.07738e-19)
(1.22136 -6.16166 -1.37681e-19)
(1.22758 -5.97431 0)
(1.23117 -5.79299 5.39581e-21)
(1.23282 -5.61855 1.0188e-19)
(1.23305 -5.45134 4.39242e-20)
(1.23243 -5.2911 0)
(1.23187 -5.13681 7.95753e-20)
(1.23044 -4.98682 8.16183e-20)
(1.56233 -9.30383 -8.53047e-19)
(1.19461 -8.70113 -3.98699e-19)
(1.22671 -8.27604 3.87011e-19)
(1.26809 -7.97887 6.62817e-19)
(1.30398 -7.74838 -3.21512e-19)
(1.34296 -7.54544 5.49969e-21)
(1.37924 -7.35104 2.48747e-19)
(1.4091 -7.15675 2.24966e-19)
(1.43179 -6.95978 4.113e-19)
(1.44763 -6.76041 0)
(1.45739 -6.56033 1.57773e-19)
(1.46207 -6.36167 -1.6766e-19)
(1.4627 -6.1665 1.0213e-20)
(1.46025 -5.97658 2.63542e-19)
(1.45559 -5.79322 2.25391e-19)
(1.44943 -5.61727 -3.18066e-19)
(1.44229 -5.44905 1.04731e-19)
(1.43475 -5.28824 -1.70166e-19)
(1.42777 -5.13371 1.69344e-19)
(1.42003 -4.98379 -8.1656e-20)
(1.92913 -9.25098 4.30056e-19)
(1.54288 -8.68751 0)
(1.56177 -8.27839 3.79318e-19)
(1.59344 -7.99037 0)
(1.62082 -7.76418 0)
(1.65134 -7.56172 -2.94778e-19)
(1.67878 -7.36537 -5.26393e-19)
(1.69935 -7.16781 -4.45252e-19)
(1.71241 -6.96701 1.83363e-20)
(1.71847 -6.76376 -1.91956e-19)
(1.71848 -6.56006 0)
(1.7136 -6.35822 -1.58108e-19)
(1.70498 -6.1604 -2.8454e-19)
(1.69368 -5.96837 2.49814e-19)
(1.68062 -5.78343 -7.09586e-19)
(1.66654 -5.6064 1.14847e-19)
(1.65196 -5.43758 9.07713e-20)
(1.63748 -5.2766 -1.87237e-19)
(1.62411 -5.12221 -8.17158e-20)
(1.61002 -4.9728 2.43749e-19)
(2.29424 -9.18406 4.14186e-19)
(1.89185 -8.66035 4.09569e-19)
(1.89867 -8.26734 0)
(1.9212 -7.98841 0)
(1.94026 -7.76647 -6.12494e-19)
(1.96222 -7.56448 3.35453e-19)
(1.98056 -7.3663 8.04277e-19)
(1.99149 -7.1657 0)
(1.99457 -6.96141 2.11871e-19)
(1.9905 -6.75467 1.91956e-19)
(1.98046 -6.54781 -3.38423e-19)
(1.96575 -6.34328 4.90701e-19)
(1.94767 -6.14329 1.43783e-19)
(1.92736 -5.94963 0)
(1.90579 -5.76357 1.19434e-19)
(1.88371 -5.58591 5.35358e-19)
(1.86166 -5.4169 -3.19003e-19)
(1.84024 -5.25615 3.5782e-19)
(1.8205 -5.10229 -6.80191e-19)
(1.80008 -4.95383 7.86883e-19)
(2.65713 -9.10305 4.20967e-19)
(2.24104 -8.61951 -2.22727e-18)
(2.23688 -8.24266 0)
(2.25079 -7.97273 0)
(2.26168 -7.75494 0)
(2.27497 -7.55347 -5.93175e-19)
(2.28393 -7.3536 0)
(2.2849 -7.15023 -9.47918e-19)
(2.27764 -6.9428 8.73636e-19)
(2.26312 -6.73302 -8.10496e-19)
(2.24273 -6.52348 0)
(2.21797 -6.31676 0)
(2.19025 -6.11512 0)
(2.16079 -5.92032 -2.72876e-19)
(2.13062 -5.73362 0)
(2.10049 -5.55576 0)
(2.07094 -5.387 -3.99309e-19)
(2.04261 -5.22687 3.92333e-19)
(2.01657 -5.07394 0)
(1.98985 -4.92687 0)
(3.01725 -9.00795 -1.36965e-18)
(2.58989 -8.5648 8.8624e-19)
(2.57582 -8.2041 0)
(2.58161 -7.94305 0)
(2.58445 -7.72937 0)
(2.58894 -7.52844 5.63971e-19)
(2.58824 -7.32707 -5.65377e-19)
(2.57891 -7.12123 -8.45366e-21)
(2.56097 -6.91106 -8.73937e-19)
(2.5357 -6.69871 8.17941e-19)
(2.50471 -6.487 -3.68334e-19)
(2.46969 -6.27863 6.39536e-19)
(2.43217 -6.07586 -4.56813e-20)
(2.39346 -5.88044 -5.7787e-19)
(2.35461 -5.69357 -4.86176e-19)
(2.31641 -5.51597 4.77653e-19)
(2.27937 -5.34787 0)
(2.24417 -5.18877 0)
(2.21191 -5.03715 3.44617e-19)
(2.17895 -4.89194 -3.79704e-19)
(3.37404 -8.89882 9.15339e-19)
(2.93784 -8.49612 8.69264e-19)
(2.91491 -8.15148 -1.64641e-18)
(2.91304 -7.89917 7.7708e-19)
(2.90792 -7.68951 0)
(2.90344 -7.4892 6.03406e-19)
(2.89281 -7.28653 -5.2852e-19)
(2.87284 -7.07856 1.49279e-18)
(2.84392 -6.86609 -2.33157e-20)
(2.80761 -6.65168 0)
(2.76579 -6.43834 7.43044e-19)
(2.72033 -6.22887 0)
(2.67289 -6.02552 0)
(2.62485 -5.83 -2.63914e-19)
(2.57729 -5.64345 5.32601e-19)
(2.531 -5.46656 0)
(2.48649 -5.29954 4.16734e-19)
(2.44447 -5.14186 1.73147e-19)
(2.40608 -4.99194 -3.76158e-19)
(2.36699 -4.84906 3.65313e-19)
(3.72696 -8.77572 -9.41763e-19)
(3.28431 -8.41337 8.82957e-19)
(3.25354 -8.08462 -2.51256e-18)
(3.24442 -7.84089 7.89548e-19)
(3.23141 -7.63518 0)
(3.21779 -7.43558 -1.21652e-18)
(3.19694 -7.23187 5.84277e-19)
(3.16603 -7.02214 0)
(3.12582 -6.80784 -4.62299e-19)
(3.07821 -6.59189 -8.00594e-19)
(3.02536 -6.37749 -6.96375e-19)
(2.96932 -6.16748 5.26222e-20)
(2.91187 -5.96411 6.51078e-19)
(2.85443 -5.76902 2.63705e-19)
(2.79813 -5.58329 -3.71863e-20)
(2.74376 -5.40756 -4.96342e-19)
(2.69182 -5.24204 -2.21731e-19)
(2.64306 -5.08618 -1.99783e-19)
(2.59866 -4.93835 5.32445e-19)
(2.55355 -4.79826 -7.94334e-19)
(4.07545 -8.63872 9.41765e-19)
(3.62871 -8.31649 -4.63016e-20)
(3.59109 -8.00341 8.06574e-19)
(3.5751 -7.76806 0)
(3.55422 -7.56625 -6.65949e-19)
(3.53129 -7.36748 1.27931e-18)
(3.49993 -7.16299 -1.09093e-18)
(3.45778 -6.95191 1.07355e-18)
(3.406 -6.73628 -4.33615e-19)
(3.34688 -6.51934 8.80916e-19)
(3.28283 -6.30446 3.80891e-19)
(3.21609 -6.09451 0)
(3.14854 -5.89168 0)
(3.08169 -5.69755 -2.73343e-19)
(3.01665 -5.51314 3.75749e-20)
(2.95422 -5.33903 9.76938e-19)
(2.89488 -5.17543 -2.41678e-19)
(2.83946 -5.02177 7.96961e-19)
(2.78915 -4.8764 1.39064e-19)
(2.73818 -4.73958 -8.11235e-19)
(4.41894 -8.48796 -2.89528e-18)
(3.97045 -8.20546 -9.69421e-19)
(3.9269 -7.90775 -2.58269e-18)
(3.9044 -7.68056 -1.56863e-18)
(3.87566 -7.4826 -7.43304e-19)
(3.84322 -7.28479 -7.26334e-19)
(3.80109 -7.07984 -2.36538e-18)
(3.74741 -6.86784 -4.82356e-20)
(3.68382 -6.6514 -1.89571e-18)
(3.61297 -6.43406 3.00356e-20)
(3.53758 -6.2193 -7.85215e-19)
(3.46005 -6.00999 -7.14805e-19)
(3.38238 -5.80828 6.51909e-19)
(3.30609 -5.61566 -5.95664e-19)
(3.23232 -5.43305 -5.45288e-19)
(3.16186 -5.26102 -5.00086e-19)
(3.09518 -5.09974 -1.34165e-18)
(3.03317 -4.94867 4.77605e-19)
(2.97707 -4.80613 1.15736e-18)
(2.92042 -4.67305 -1.2326e-18)
(4.7569 -8.32358 3.89323e-18)
(4.30893 -8.08029 4.77255e-18)
(4.26036 -7.79758 8.1837e-19)
(4.23165 -7.57831 3.91655e-18)
(4.19502 -7.38416 -7.66662e-19)
(4.15287 -7.18748 3.82495e-18)
(4.09971 -6.98241 1.1169e-18)
(4.03423 -6.76996 3.13346e-18)
(3.9586 -6.55326 -9.57086e-19)
(3.87587 -6.33611 2.64691e-18)
(3.78903 -6.12207 1.58145e-18)
(3.70065 -5.914 1.43981e-18)
(3.61282 -5.71398 -1.94726e-18)
(3.52711 -5.5234 1.82309e-18)
(3.44464 -5.34311 1.09893e-18)
(3.36618 -5.17359 1.00807e-18)
(3.29221 -5.01506 9.26348e-19)
(3.22367 -4.86694 7.11283e-21)
(3.16191 -4.7276 7.85513e-19)
(3.09979 -4.59872 8.17936e-19)
(5.08881 -8.14574 -2.88943e-18)
(4.64357 -7.94101 1.06324e-18)
(4.59081 -7.67287 2.62466e-18)
(4.55614 -7.46126 -3.19462e-18)
(4.51159 -7.2709 7.38138e-19)
(4.45954 -7.07555 -2.55811e-18)
(4.39508 -6.87071 1.25293e-18)
(4.31757 -6.6583 -2.09598e-18)
(4.22971 -6.44191 4.81915e-20)
(4.13496 -6.22555 1.14223e-20)
(4.03658 -6.01284 -1.60296e-18)
(3.93732 -5.80662 -7.25008e-19)
(3.83934 -5.60886 1.33182e-18)
(3.74422 -5.42086 8.41836e-21)
(3.65308 -5.24336 -3.63501e-20)
(3.56666 -5.07682 -1.05248e-18)
(3.48543 -4.92142 -4.6692e-19)
(3.41043 -4.77663 -2.64129e-20)
(3.3431 -4.64085 -8.1888e-19)
(3.27574 -4.51669 -4.13059e-19)
(5.41416 -7.95463 0)
(4.97381 -7.78769 -1.96361e-18)
(4.91761 -7.53363 2.26146e-20)
(4.8772 -7.32942 3.18737e-18)
(4.82465 -7.14284 1.33111e-18)
(4.76249 -6.94903 -1.38651e-18)
(4.6865 -6.74483 -1.19236e-18)
(4.59675 -6.53297 0)
(4.49651 -6.31747 -9.4639e-19)
(4.38964 -6.10251 9.02732e-19)
(4.27968 -5.89174 -3.82995e-20)
(4.16953 -5.68794 0)
(4.06141 -5.493 -6.70425e-19)
(3.95691 -5.30808 5.79769e-19)
(3.85714 -5.13386 4.83606e-19)
(3.76277 -4.97071 -5.85014e-19)
(3.67428 -4.81883 -5.06949e-19)
(3.59281 -4.67771 8.79379e-19)
(3.51993 -4.54588 -8.11201e-19)
(3.44745 -4.42704 4.27205e-19)
(5.73249 -7.75043 2.98228e-18)
(5.29905 -7.62042 -2.02171e-18)
(5.24011 -7.37988 -1.72148e-18)
(5.19412 -7.18281 8.00213e-19)
(5.1335 -7.00002 -1.55274e-18)
(5.06103 -6.80801 0)
(4.9733 -6.60487 0)
(4.87113 -6.3941 0)
(4.75837 -6.18007 -4.36334e-20)
(4.63933 -5.96712 -1.81144e-18)
(4.51778 -5.7589 8.55081e-19)
(4.39677 -5.55809 7.21874e-19)
(4.27856 -5.36649 6.09801e-19)
(4.16474 -5.18516 -2.50383e-18)
(4.05635 -5.01465 1.18657e-18)
(3.95403 -4.85529 0)
(3.85825 -4.70727 -2.96275e-20)
(3.7702 -4.57014 -1.36419e-18)
(3.69161 -4.4426 -5.52774e-21)
(3.614 -4.32941 -4.27651e-19)
(6.04345 -7.53343 -2.02901e-18)
(5.61878 -7.43932 -1.06561e-18)
(5.55764 -7.2117 7.99625e-19)
(5.5062 -7.0215 -1.43051e-19)
(5.43741 -6.84254 -4.522e-18)
(5.35445 -6.6526 4.08746e-18)
(5.25478 -6.45096 -4.84841e-20)
(5.14005 -6.24183 1.11689e-18)
(5.01471 -6.02988 1.00124e-18)
(4.88347 -5.81955 9.18306e-19)
(4.75036 -5.61445 8.34889e-19)
(4.61855 -5.41719 1.49052e-18)
(4.49033 -5.22944 -7.17285e-19)
(4.36725 -5.05216 1.85671e-18)
(4.25031 -4.8858 -1.2002e-18)
(4.14009 -4.73062 -4.95761e-19)
(4.03699 -4.58683 1.99157e-18)
(3.94227 -4.454 1.32963e-18)
(3.85785 -4.33089 -2.71728e-20)
(3.77534 -4.22314 0)
(6.34701 -7.30411 -1.03117e-18)
(5.9326 -7.24458 2.03545e-18)
(5.86956 -7.02914 1.77802e-18)
(5.81273 -6.84555 -1.44934e-19)
(5.73565 -6.67048 -1.5339e-18)
(5.64202 -6.48294 6.96982e-20)
(5.53026 -6.28329 1.25894e-20)
(5.40287 -6.07637 1.12286e-20)
(5.26491 -5.86711 0)
(5.12151 -5.65999 8.97605e-19)
(4.97692 -5.45857 -1.70831e-18)
(4.8344 -5.26536 -7.29997e-19)
(4.69625 -5.08193 7.24643e-19)
(4.56398 -4.9091 -6.35122e-19)
(4.43852 -4.74728 5.87838e-19)
(4.32038 -4.5967 -5.34823e-19)
(4.20996 -4.45758 4.76209e-21)
(4.10863 -4.32934 -4.53925e-19)
(4.01863 -4.2107 -4.19161e-19)
(3.93196 -4.10905 -4.19621e-19)
(6.64353 -7.06296 0)
(6.24028 -7.03615 -9.91313e-19)
(6.17522 -6.83214 9.79937e-19)
(6.11295 -6.65503 1.70593e-18)
(6.0275 -6.48404 -1.5418e-18)
(5.92305 -6.29927 1.3298e-18)
(5.79908 -6.10214 -2.55629e-18)
(5.65899 -5.89802 -2.26691e-18)
(5.50846 -5.69204 -9.87507e-19)
(5.353 -5.48871 4.35731e-20)
(5.19706 -5.2915 -8.16278e-19)
(5.04396 -5.10278 3.41836e-20)
(4.89598 -4.92401 0)
(4.75453 -4.75591 -1.24544e-18)
(4.62042 -4.59885 6.35781e-19)
(4.49403 -4.45307 0)
(4.37582 -4.31873 -4.97074e-19)
(4.26735 -4.19502 -8.9318e-19)
(4.17088 -4.08154 8.77639e-19)
(4.07904 -3.99052 4.33268e-19)
(6.93261 -6.80918 0)
(6.54118 -6.8133 0)
(6.47393 -6.62062 -1.81483e-18)
(6.40612 -6.45023 -1.55737e-18)
(6.31226 -6.28359 3.16228e-18)
(6.19692 -6.10202 0)
(6.06069 -5.90794 0)
(5.90792 -5.7072 1.13878e-18)
(5.74493 -5.50512 0)
(5.57757 -5.30613 0)
(5.41051 -5.1136 0)
(5.2471 -4.92976 0)
(5.08954 -4.75589 0)
(4.93908 -4.59261 0)
(4.7963 -4.4402 0)
(4.6613 -4.29883 0)
(4.53437 -4.16839 0)
(4.41656 -4.04827 0)
(4.30806 -3.94141 0)
(4.20295 -3.86456 0)
(10.0289 0.0876179 1.44342e-19)
(10.0089 -0.307213 2.80723e-19)
(9.97369 -0.699415 -2.88445e-19)
(9.92379 -1.08884 5.75137e-19)
(9.85892 -1.47516 -5.75136e-19)
(9.77894 -1.85787 -5.43039e-19)
(9.68396 -2.23642 -5.41555e-19)
(9.57419 -2.61028 1.70727e-18)
(9.44986 -2.9789 -1.13748e-18)
(9.31123 -3.34172 1.12816e-18)
(9.15856 -3.6982 -1.12816e-18)
(8.99217 -4.0478 1.12002e-18)
(8.81239 -4.39001 -2.22153e-18)
(8.61956 -4.72433 3.27061e-18)
(8.41403 -5.05028 0)
(8.19622 -5.36739 -3.21465e-18)
(7.96649 -5.67525 1.56136e-20)
(7.72538 -5.97351 3.24144e-18)
(7.47297 -6.262 0)
(7.21095 -6.54005 0)
(10.081 -0.211072 0)
(10.0407 -0.605724 -1.49423e-20)
(9.98369 -0.996656 0)
(9.91069 -1.38353 5.48982e-19)
(9.82191 -1.76593 5.72061e-19)
(9.71754 -2.14326 -1.65483e-18)
(9.59786 -2.5149 2.88341e-18)
(9.46323 -2.88022 -1.13804e-18)
(9.314 -3.23863 -1.08428e-18)
(9.15056 -3.58955 -1.07994e-18)
(8.97333 -3.93241 4.43285e-20)
(8.78272 -4.26668 1.10758e-18)
(8.5792 -4.59182 -5.50516e-18)
(8.36324 -4.90736 -1.15631e-18)
(8.13533 -5.21283 2.20049e-18)
(7.89596 -5.50779 2.19862e-18)
(7.64561 -5.79187 1.11784e-18)
(7.38484 -6.06473 -2.15402e-18)
(7.11374 -6.32612 1.01969e-18)
(6.83325 -6.5757 0)
(10.0144 -0.150332 1.29574e-19)
(9.97757 -0.539902 -2.65433e-19)
(9.92346 -0.926375 7.6615e-19)
(9.85249 -1.30907 -5.43209e-19)
(9.76505 -1.68733 -5.17621e-19)
(9.66149 -2.06047 5.40803e-19)
(9.54218 -2.42777 0)
(9.4075 -2.78854 0)
(9.25787 -3.14213 2.05264e-18)
(9.09373 -3.4879 3.06234e-18)
(8.91553 -3.82524 -9.67845e-19)
(8.72378 -4.15356 3.02854e-18)
(8.51897 -4.47232 -9.63846e-19)
(8.30164 -4.78097 -2.95005e-18)
(8.07232 -5.07903 1.30293e-20)
(7.83158 -5.36603 1.89298e-18)
(7.57992 -5.64154 -8.53374e-19)
(7.31794 -5.90516 -1.86328e-18)
(7.04597 -6.15651 -1.00799e-18)
(6.76471 -6.3951 1.83194e-18)
(9.83635 -0.114323 0)
(9.80604 -0.494253 2.23368e-19)
(9.7586 -0.871904 2.22419e-19)
(9.69425 -1.24639 -9.14126e-19)
(9.6133 -1.6169 0)
(9.51608 -1.9827 0)
(9.40294 -2.34302 0)
(9.27426 -2.69713 0)
(9.13045 -3.04433 -9.68299e-19)
(8.97193 -3.38393 -9.64688e-19)
(8.79917 -3.71528 0)
(8.61267 -4.03774 1.82318e-18)
(8.41294 -4.35073 -4.50742e-18)
(8.20054 -4.65367 3.62515e-18)
(7.976 -4.94601 -3.51329e-18)
(7.73991 -5.22725 -8.52598e-19)
(7.49283 -5.4969 1.54974e-19)
(7.23537 -5.75449 1.53458e-19)
(6.96802 -5.99957 -1.73788e-18)
(6.6915 -6.23167 -7.06866e-20)
(9.57611 -0.101059 0)
(9.55292 -0.468551 -2.20291e-19)
(9.51305 -0.834397 0)
(9.45659 -1.1977 4.40704e-19)
(9.38378 -1.55764 4.19893e-19)
(9.29488 -1.91343 3.83526e-19)
(9.19021 -2.26432 0)
(9.0701 -2.60954 0)
(8.93491 -2.94837 0)
(8.78506 -3.2801 0)
(8.62097 -3.60406 7.9278e-19)
(8.44311 -3.91958 8.55022e-19)
(8.25199 -4.22603 8.50408e-19)
(8.04813 -4.52281 -8.63193e-19)
(7.83208 -4.80934 -1.48325e-18)
(7.60441 -5.08507 1.68704e-18)
(7.36568 -5.34946 3.27041e-18)
(7.11652 -5.602 1.59075e-18)
(6.85748 -5.84221 0)
(6.58926 -6.06959 -1.49858e-18)
(9.26505 -0.0922281 4.51942e-20)
(9.24857 -0.445454 0)
(9.21604 -0.797584 -7.40757e-19)
(9.16749 -1.14777 1.76017e-23)
(9.10306 -1.49521 1.59029e-20)
(9.02299 -1.83912 -6.74419e-20)
(8.92753 -2.17875 0)
(8.81696 -2.51334 3.04471e-20)
(8.69161 -2.84218 -7.52201e-19)
(8.55184 -3.16454 1.46532e-18)
(8.39803 -3.47975 -1.52873e-18)
(8.23063 -3.78713 8.36097e-19)
(8.0501 -4.08604 -4.37653e-18)
(7.85692 -4.37586 2.88652e-18)
(7.65162 -4.65599 1.53146e-18)
(7.43475 -4.92584 0)
(7.20686 -5.18486 -2.82523e-18)
(6.96855 -5.43251 -6.09293e-20)
(6.72038 -5.66827 -2.78299e-18)
(6.46301 -5.89161 2.89439e-18)
(8.93041 -0.087225 4.06041e-20)
(8.91937 -0.425423 -8.51044e-20)
(8.89303 -0.762976 6.97928e-19)
(8.85135 -1.0991 -1.38255e-20)
(8.79444 -1.433 6.97785e-19)
(8.72248 -1.76395 -1.05402e-18)
(8.63567 -2.09119 0)
(8.53427 -2.41401 7.1068e-19)
(8.41854 -2.73169 6.50149e-19)
(8.28879 -3.04354 -7.06743e-19)
(8.14539 -3.34888 1.29194e-18)
(7.98873 -3.64706 2.74094e-18)
(7.81921 -3.93742 -1.27374e-18)
(7.6373 -4.21936 -1.38228e-18)
(7.44349 -4.49226 1.32488e-18)
(7.23829 -4.75553 0)
(7.02223 -5.0086 6.3883e-20)
(6.79587 -5.25091 9.40853e-21)
(6.55978 -5.48193 2.63517e-18)
(6.31454 -5.70111 1.22437e-18)
(8.59241 -0.0857469 0)
(8.58532 -0.408983 6.1392e-21)
(8.56368 -0.731909 -1.41757e-19)
(8.52746 -1.05379 -6.30176e-19)
(8.47672 -1.37388 5.91996e-19)
(8.4116 -1.69148 0)
(8.33227 -2.00587 1.20517e-18)
(8.23894 -2.31636 -1.31618e-21)
(8.13184 -2.62228 -1.84109e-18)
(8.01125 -2.92295 0)
(7.87749 -3.21773 -1.27138e-18)
(7.7309 -3.50596 4.52223e-20)
(7.57188 -3.78704 -3.57202e-18)
(7.40083 -4.06034 6.23415e-21)
(7.2182 -4.32528 1.19746e-18)
(7.02449 -4.58126 0)
(6.8202 -4.82772 -1.17556e-18)
(6.60585 -5.06409 8.35703e-21)
(6.382 -5.28983 1.16721e-18)
(6.14917 -5.50436 -1.20487e-18)
(8.26431 -0.0864844 0)
(8.25979 -0.395336 1.45401e-19)
(8.24147 -0.704105 3.01762e-19)
(8.20931 -1.0121 -5.58157e-19)
(8.16335 -1.31863 -2.4264e-20)
(8.10371 -1.62302 -2.78949e-19)
(8.03052 -1.92461 -1.11672e-18)
(7.94396 -2.22274 5.5517e-19)
(7.84424 -2.51676 2.33875e-20)
(7.73161 -2.80604 5.51864e-19)
(7.60635 -3.08995 5.07654e-19)
(7.46877 -3.3679 2.20032e-18)
(7.31923 -3.63928 1.10067e-18)
(7.15811 -3.9035 2.17387e-18)
(6.98584 -4.16 -1.08411e-18)
(6.80286 -4.40819 3.80178e-20)
(6.60967 -4.64753 -1.07141e-18)
(6.40676 -4.87744 0)
(6.19467 -5.09738 1.01251e-18)
(5.97387 -5.30677 0)
(7.95369 -0.0883564 6.32321e-20)
(7.95063 -0.38368 -1.85148e-19)
(7.93449 -0.67906 5.07955e-19)
(7.9052 -0.973852 -2.53395e-19)
(7.8628 -1.26741 1.85895e-20)
(7.80739 -1.55909 -2.53244e-19)
(7.73909 -1.84827 5.26687e-19)
(7.65806 -2.13434 -5.03872e-19)
(7.56447 -2.41668 5.03869e-19)
(7.45856 -2.6947 9.66078e-19)
(7.34058 -2.96781 -1.04179e-18)
(7.21081 -3.23545 -4.42052e-20)
(7.06959 -3.49703 -3.01484e-18)
(6.91727 -3.75202 5.19558e-21)
(6.75426 -3.99986 3.94358e-20)
(6.581 -4.24 1.95444e-18)
(6.39794 -4.47192 -9.65445e-19)
(6.20556 -4.69504 -9.19317e-19)
(6.00439 -4.90883 -3.6858e-20)
(5.79489 -5.1127 0)
(7.66406 -0.0906445 0)
(7.66165 -0.373414 2.3512e-19)
(7.64679 -0.656314 -8.083e-19)
(7.61944 -0.938739 -2.14311e-19)
(7.57963 -1.22008 4.79749e-19)
(7.52743 -1.49974 0)
(7.46297 -1.77713 0)
(7.38637 -2.05167 4.58399e-19)
(7.2978 -2.32279 -4.58397e-19)
(7.19748 -2.58993 3.85542e-19)
(7.08563 -2.85254 -4.55444e-19)
(6.96253 -3.11008 9.03194e-19)
(6.82848 -3.36202 -1.80192e-18)
(6.68383 -3.60785 1.79263e-18)
(6.52896 -3.84705 3.4007e-20)
(6.36428 -4.07912 -9.22381e-19)
(6.19027 -4.30352 -8.77401e-19)
(6.0074 -4.51974 1.78771e-18)
(5.81617 -4.72722 8.3644e-19)
(5.61704 -4.92535 0)
(7.39623 -0.0928874 1.83325e-21)
(7.3939 -0.364085 1.54226e-19)
(7.37971 -0.635443 3.23922e-19)
(7.35362 -0.90639 2.26818e-19)
(7.31565 -1.17635 2.10274e-19)
(7.26588 -1.44477 1.955e-19)
(7.2044 -1.71108 0)
(7.13135 -1.97475 -8.08118e-19)
(7.04689 -2.23524 -4.16689e-19)
(6.9512 -2.49201 3.54986e-19)
(6.8445 -2.74457 0)
(6.72705 -2.9924 8.22996e-19)
(6.59914 -3.23502 -2.43383e-18)
(6.4611 -3.47195 8.18782e-19)
(6.31331 -3.70271 0)
(6.15616 -3.92684 -7.78275e-19)
(5.99014 -4.14384 -1.57215e-18)
(5.81572 -4.35321 7.73477e-19)
(5.63343 -4.55439 -2.865e-20)
(5.44372 -4.74677 0)
(7.14939 -0.0947934 3.38076e-21)
(7.14679 -0.355358 -9.98032e-20)
(7.13286 -0.616078 1.92546e-19)
(7.10756 -0.876417 -1.27941e-20)
(7.0709 -1.13583 3.84747e-19)
(7.02297 -1.3938 -5.91003e-19)
(6.96385 -1.64978 0)
(6.89368 -1.90327 5.46816e-20)
(6.81258 -2.15377 0)
(6.72076 -2.40077 -7.88953e-19)
(6.6184 -2.64381 0)
(6.50576 -2.88241 -7.27708e-19)
(6.38311 -3.11612 2.24969e-18)
(6.25078 -3.34452 -1.4907e-18)
(6.10912 -3.56716 7.43199e-19)
(5.95853 -3.78363 -6.56937e-19)
(5.79952 -3.99346 7.59761e-19)
(5.63256 -4.19621 -7.54565e-19)
(5.45827 -4.39129 0)
(5.27706 -4.57807 0)
(6.92186 -0.0962363 4.56471e-20)
(6.91882 -0.34701 0)
(6.90489 -0.597923 0)
(6.88006 -0.848465 -3.65723e-19)
(6.84437 -1.09812 -3.41197e-19)
(6.79786 -1.34639 0)
(6.74065 -1.59277 0)
(6.67284 -1.83677 4.85786e-20)
(6.59457 -2.07793 6.75621e-19)
(6.50601 -2.31577 -3.25757e-19)
(6.40737 -2.54986 -3.4719e-19)
(6.29886 -2.77975 1.40262e-18)
(6.18076 -3.00503 -2.08265e-18)
(6.05336 -3.22532 1.34273e-18)
(5.91703 -3.44023 0)
(5.77217 -3.6494 2.69776e-18)
(5.61929 -3.85239 -1.95825e-18)
(5.45889 -4.04887 6.66288e-19)
(5.29173 -4.23815 1.27387e-18)
(5.11819 -4.4197 0)
(6.71166 -0.0971486 -3.92186e-20)
(6.70804 -0.338882 0)
(6.69398 -0.580735 -5.07408e-21)
(6.66944 -0.822216 -3.13845e-19)
(6.63447 -1.06283 9.72628e-19)
(6.58912 -1.30211 -1.61789e-19)
(6.53349 -1.53956 0)
(6.46769 -1.77474 1.28878e-18)
(6.39184 -2.00719 -6.6379e-19)
(6.30612 -2.23647 4.32866e-20)
(6.2107 -2.46217 6.14935e-19)
(6.1058 -2.68388 6.30368e-19)
(5.99168 -2.90123 -1.25703e-18)
(5.86861 -3.11387 -1.22941e-18)
(5.73695 -3.32146 -1.20066e-18)
(5.59709 -3.52373 -1.2781e-18)
(5.44959 -3.72027 1.26934e-18)
(5.29494 -3.91091 -6.05761e-19)
(5.13413 -4.09484 -6.45798e-19)
(4.96746 -4.27172 0)
(6.51663 -0.097509 3.85313e-20)
(6.51242 -0.33087 -1.44647e-19)
(6.49815 -0.564323 -1.4976e-19)
(6.4738 -0.797395 4.48403e-19)
(6.43942 -1.02962 -1.59272e-19)
(6.39507 -1.26053 -1.48838e-19)
(6.34082 -1.48969 0)
(6.27678 -1.71665 -6.1182e-19)
(6.20309 -1.94098 0)
(6.11989 -2.16227 6.07048e-19)
(6.02735 -2.38012 -1.16961e-18)
(5.92568 -2.59418 5.7892e-19)
(5.81511 -2.80408 -1.15426e-18)
(5.6959 -3.00954 1.19128e-18)
(5.56839 -3.21024 6.4859e-19)
(5.43295 -3.40604 0)
(5.29016 -3.59652 -5.59432e-19)
(5.14051 -3.78186 5.59433e-19)
(4.98536 -3.96091 0)
(4.82474 -4.134 0)
(6.33474 -0.0973963 0)
(6.32996 -0.32295 1.42114e-19)
(6.31548 -0.548564 4.58375e-21)
(6.2913 -0.773786 -1.46539e-19)
(6.25746 -0.998171 -1.29196e-19)
(6.21401 -1.22128 -1.37165e-19)
(6.16103 -1.44268 5.30105e-19)
(6.09864 -1.66195 0)
(6.02694 -1.87869 0)
(5.94608 -2.09251 2.69366e-19)
(5.85622 -2.30303 2.86186e-19)
(5.75754 -2.50991 1.0355e-18)
(5.65026 -2.71283 -5.29067e-19)
(5.5346 -2.91154 5.29066e-19)
(5.41088 -3.10577 5.61743e-19)
(5.27942 -3.29551 3.29101e-20)
(5.14083 -3.48033 -1.03124e-18)
(4.99551 -3.66093 3.71568e-21)
(4.84546 -3.83554 5.09951e-19)
(4.68994 -4.00604 0)
(6.16417 -0.096817 -3.17608e-20)
(6.15887 -0.315091 3.17605e-20)
(6.14423 -0.533399 0)
(6.12024 -0.751303 1.19632e-19)
(6.08693 -0.968375 3.88572e-19)
(6.04438 -1.1842 -4.91092e-19)
(5.99266 -1.39836 -5.20846e-19)
(5.93186 -1.61046 0)
(5.8621 -1.82011 0)
(5.78351 -2.02694 0)
(5.69624 -2.2306 -9.61279e-19)
(5.60046 -2.43078 -6.21093e-20)
(5.49634 -2.62716 -4.87318e-19)
(5.3841 -2.81954 2.92157e-20)
(5.26398 -3.0077 -9.63604e-19)
(5.13623 -3.19175 1.46851e-18)
(5.00149 -3.37129 -1.39115e-18)
(4.85987 -3.54777 4.72229e-19)
(4.71442 -3.71845 9.05035e-19)
(4.56267 -3.88791 0)
(6.00325 -0.0954287 2.85378e-20)
(5.99754 -0.307098 0)
(5.98281 -0.518791 -1.17478e-19)
(5.95907 -0.73008 -2.42058e-19)
(5.92634 -0.940555 1.17327e-19)
(5.88469 -1.14981 9.36868e-19)
(5.8342 -1.35747 0)
(5.77495 -1.56313 -4.51186e-19)
(5.70706 -1.76644 -2.30733e-19)
(5.63065 -1.96705 -4.33487e-19)
(5.54585 -2.16462 -1.73459e-19)
(5.4528 -2.35884 -1.3683e-18)
(5.35167 -2.54946 -9.03051e-19)
(5.24258 -2.73626 9.28924e-19)
(5.12578 -2.91906 8.89026e-19)
(5.00129 -3.09806 -3.80435e-21)
(4.86985 -3.27299 2.89829e-20)
(4.73082 -3.44616 4.3509e-19)
(4.58892 -3.61416 -8.89287e-19)
(4.43795 -3.78618 0)
(5.85044 -0.0937478 -5.96821e-20)
(5.84445 -0.299099 2.9382e-20)
(5.82978 -0.504541 -1.17383e-19)
(5.80643 -0.70969 1.1733e-19)
(5.77441 -0.91416 -3.37492e-19)
(5.73377 -1.11757 -1.05073e-18)
(5.68457 -1.31955 0)
(5.62689 -1.51973 4.77449e-19)
(5.56082 -1.71776 -4.46463e-19)
(5.48645 -1.91331 9.45232e-19)
(5.4039 -2.10606 9.39555e-19)
(5.31326 -2.29571 1.38415e-18)
(5.21467 -2.482 -8.9811e-19)
(5.10817 -2.66473 4.47334e-19)
(4.99399 -2.84374 -4.39838e-19)
(4.87179 -3.01918 4.39863e-19)
(4.74258 -3.19087 0)
(4.60391 -3.36169 3.98167e-19)
(4.46414 -3.52802 -3.89487e-19)
(4.30926 -3.71047 0)
(7.12531 7.24713 0)
(7.40474 6.95796 0)
(7.67132 6.65924 1.0667e-18)
(7.92576 6.35149 1.94548e-20)
(8.16749 6.0344 -1.12939e-18)
(8.39585 5.70804 0)
(8.61043 5.3728 1.16474e-18)
(8.81089 5.02921 -2.19599e-18)
(8.99693 4.67785 -1.10958e-18)
(9.16824 4.31932 -1.11977e-18)
(9.32456 3.95425 1.11977e-18)
(9.46568 3.58328 -1.13142e-18)
(9.59139 3.20709 5.64398e-19)
(9.70151 2.82638 5.38148e-19)
(9.79588 2.44183 5.40223e-19)
(9.87443 2.05409 -5.73792e-19)
(9.93711 1.66381 5.73792e-19)
(9.98401 1.2717 -2.88039e-19)
(10.0151 0.878145 -1.36699e-19)
(10.0308 0.484501 7.20648e-20)
(7.38365 7.03811 0)
(7.66242 6.74975 -9.75622e-19)
(7.92748 6.44993 -2.0862e-18)
(8.17914 6.13932 3.08446e-18)
(8.41717 5.81825 -2.13934e-18)
(8.64106 5.48715 2.14876e-18)
(8.85033 5.14661 1.16889e-18)
(9.04458 4.79728 -3.31479e-18)
(9.22343 4.43986 1.08429e-18)
(9.38651 4.07505 2.15434e-18)
(9.53351 3.70355 1.06098e-18)
(9.66418 3.32613 1.0676e-18)
(9.77834 2.94355 -1.12704e-18)
(9.87581 2.55659 1.65893e-18)
(9.95636 2.16597 -2.3029e-18)
(10.0198 1.77253 5.68266e-19)
(10.0662 1.37708 -5.45742e-19)
(10.0956 0.980443 0)
(10.1079 0.583137 1.50491e-20)
(10.1034 0.186135 0)
(7.23084 6.9049 -1.71653e-18)
(7.51183 6.63395 9.64461e-19)
(7.78036 6.35029 1.76198e-18)
(8.03599 6.05459 7.96468e-19)
(8.27831 5.74741 1.99867e-18)
(8.50681 5.42936 1.92625e-20)
(8.72096 5.1011 -1.00164e-18)
(8.92029 4.76331 -2.98337e-18)
(9.10436 4.41669 2.9446e-18)
(9.27274 4.06197 -3.02287e-18)
(9.42503 3.69987 -1.00689e-18)
(9.56095 3.33114 -2.01424e-18)
(9.6802 2.9566 0)
(9.78252 2.57703 0)
(9.86777 2.19325 0)
(9.93583 1.80616 -5.13234e-19)
(9.98655 1.4166 5.37855e-19)
(10.0199 1.02542 5.14869e-19)
(10.0357 0.63332 6.20785e-21)
(10.0339 0.241261 1.29306e-19)
(6.99915 6.65021 1.78323e-18)
(7.2765 6.39775 -1.61789e-18)
(7.54258 6.13233 -1.6745e-19)
(7.79668 5.85451 -1.68368e-19)
(8.03824 5.56486 4.20245e-18)
(8.26674 5.26396 -7.0522e-20)
(8.48162 4.95244 3.46305e-21)
(8.68237 4.63095 -2.65693e-18)
(8.8685 4.30015 1.75265e-18)
(9.03954 3.96072 0)
(9.19503 3.61342 9.40251e-19)
(9.3346 3.25909 9.46666e-19)
(9.458 2.89848 0)
(9.56491 2.53239 0)
(9.65509 2.16166 0)
(9.72837 1.7871 0)
(9.78456 1.4095 -2.13778e-20)
(9.82355 1.02971 4.63119e-19)
(9.84521 0.648536 -2.22281e-19)
(9.84952 0.266907 0)
(6.73474 6.33592 1.50836e-18)
(7.00407 6.1011 0)
(7.26322 5.85352 -4.43671e-18)
(7.51142 5.59362 -1.51197e-18)
(7.74802 5.32191 -1.5894e-18)
(7.97248 5.03894 -1.68508e-18)
(8.18422 4.74527 7.96007e-19)
(8.38272 4.44151 -8.35968e-19)
(8.56744 4.12828 2.32012e-18)
(8.73794 3.80625 -7.59205e-19)
(8.89381 3.47616 0)
(9.03458 3.13876 0)
(9.15986 2.79472 0)
(9.26937 2.44482 0)
(9.36284 2.08985 -1.1986e-18)
(9.44005 1.73062 4.1225e-19)
(9.50077 1.36791 -4.35659e-19)
(9.54485 1.00255 0)
(9.57215 0.635346 2.1922e-19)
(9.58261 0.267189 0)
(6.45904 6.01024 1.28819e-18)
(6.7181 5.79139 -4.75907e-20)
(6.96791 5.5602 2.70943e-18)
(7.2077 5.31703 1.35307e-18)
(7.4368 5.06232 0)
(7.65466 4.79657 -1.4371e-18)
(7.86072 4.52032 6.73108e-20)
(8.05443 4.2341 -1.45839e-18)
(8.2353 3.9385 2.0156e-18)
(8.40285 3.63416 3.23161e-20)
(8.55666 3.32171 2.77353e-20)
(8.6963 3.00176 -7.27111e-19)
(8.82135 2.67502 1.42569e-18)
(8.9315 2.34226 0)
(9.0265 2.00416 6.7473e-20)
(9.10605 1.66155 7.27724e-19)
(9.16987 1.31517 1.57882e-21)
(9.21781 0.965808 -1.51048e-20)
(9.24973 0.614236 0)
(9.2655 0.261277 -4.51012e-20)
(6.19237 5.69467 0)
(6.44013 5.48971 -4.84701e-20)
(6.67938 5.27294 1.69138e-20)
(6.90939 5.04466 -2.4465e-18)
(7.12951 4.80525 0)
(7.33918 4.55518 1.2365e-18)
(7.53789 4.29492 1.31749e-18)
(7.7251 4.02497 -3.83186e-18)
(7.90032 3.74587 -6.70842e-20)
(8.0631 3.45819 -1.22942e-18)
(8.213 3.1625 6.77496e-19)
(8.34962 2.85941 -6.25213e-19)
(8.47255 2.54959 -6.87876e-19)
(8.58143 2.23371 0)
(8.67603 1.9125 3.63025e-19)
(8.75615 1.58652 -1.66119e-20)
(8.82139 1.25664 -3.36659e-19)
(8.87156 0.92357 -1.64772e-20)
(8.90654 0.58806 -8.47408e-20)
(8.92616 0.250861 1.69848e-19)
(5.94545 5.40027 0)
(6.18169 5.20714 1.05673e-18)
(6.41 5.00277 1.55839e-20)
(6.6297 4.78742 -1.07228e-18)
(6.84017 4.56143 0)
(7.04088 4.32521 1.11511e-18)
(7.23132 4.0792 -1.06424e-18)
(7.41101 3.82385 -1.17891e-18)
(7.57948 3.55966 2.24089e-18)
(7.73628 3.28715 1.20987e-18)
(7.881 3.00687 0)
(8.01325 2.7194 5.89826e-19)
(8.13266 2.42534 -4.23594e-21)
(8.2389 2.12534 2.15102e-20)
(8.33158 1.82004 0)
(8.41055 1.51006 -5.80162e-19)
(8.47569 1.19601 -3.0405e-19)
(8.52656 0.878696 4.44123e-19)
(8.56305 0.558825 2.99453e-19)
(8.585 0.237095 -4.00504e-20)
(5.72182 5.13178 0)
(5.94686 4.94869 -9.11372e-19)
(6.16443 4.75492 0)
(6.37388 4.5507 -9.83429e-19)
(6.57464 4.33635 1.93568e-18)
(6.76621 4.11223 -1.97378e-18)
(6.9481 3.87874 3.08953e-18)
(7.11985 3.6363 -3.08001e-18)
(7.28104 3.38538 -2.0808e-18)
(7.43124 3.12646 -1.53412e-18)
(7.57007 2.86006 5.26204e-19)
(7.69714 2.58672 -1.09107e-18)
(7.81213 2.30701 1.83311e-20)
(7.9147 2.02151 1.08431e-18)
(8.00457 1.73081 -2.72757e-19)
(8.08137 1.43563 1.11758e-18)
(8.14502 1.13644 -5.49529e-19)
(8.19536 0.833934 2.52967e-19)
(8.23212 0.528832 -1.44446e-19)
(8.25509 0.221794 0)
(5.52129 4.88966 0)
(5.73576 4.7151 1.76262e-18)
(5.94312 4.53043 8.54228e-19)
(6.14276 4.33584 -8.79739e-19)
(6.33412 4.13161 -1.80197e-18)
(6.51674 3.91805 2.74174e-18)
(6.69018 3.69554 1.09011e-20)
(6.85402 3.46447 -8.9309e-19)
(7.00784 3.22529 1.91863e-18)
(7.15127 2.97844 9.91056e-19)
(7.28392 2.72443 -9.25124e-19)
(7.40546 2.46376 4.85925e-19)
(7.51556 2.19697 2.20864e-20)
(7.61391 1.9246 -5.11497e-19)
(7.70025 1.64723 -2.4775e-19)
(7.77428 1.36542 4.96766e-19)
(7.83578 1.07987 -2.49016e-19)
(7.88464 0.79106 -5.02515e-19)
(7.92071 0.499654 5.81875e-20)
(7.94373 0.206295 6.29622e-20)
(5.3418 4.67198 0)