/*--------------------------------*- C++ -*----------------------------------*\
  =========                 |
  \\      /  F ield         | OpenFOAM: The Open Source CFD Toolbox
   \\    /   O peration     | Website:  https://openfoam.org
    \\  /    A nd           | Version:  6.0
     \\/     M anipulation  |
\*---------------------------------------------------------------------------*/
FoamFile
{
    version     2.0;
    format      ascii;
    class       volVectorField;
    location    "6.2499";
    object      U;
}
// * * * * * * * * * * * * * * * * * * * * * * * * * * * * * * * * * * * * * //

dimensions      [0 1 -1 0 0 0 0];

internalField   nonuniform List<vector> 
19200
(
(0.510888 -14.5806 -2.25646e-20)
(0.177789 -13.949 1.02399e-20)
(0.176326 -13.4107 4.68098e-21)
(0.207621 -12.9384 4.09673e-21)
(0.220133 -12.5128 4.4534e-21)
(0.232902 -12.1182 2.68732e-22)
(0.247262 -11.7441 6.88905e-22)
(0.261127 -11.3845 -4.28471e-22)
(0.273942 -11.0358 5.1201e-21)
(0.285577 -10.6962 2.09003e-21)
(0.295958 -10.3649 3.07937e-23)
(0.305092 -10.0419 3.20051e-21)
(0.313048 -9.7272 5.11567e-21)
(0.319932 -9.42121 -3.417e-21)
(0.325862 -9.12419 4.27296e-21)
(0.330961 -8.83638 3.58712e-21)
(0.335346 -8.55794 -3.34643e-21)
(0.339127 -8.28896 5.58024e-21)
(0.342404 -8.02941 -3.51896e-21)
(0.345268 -7.77921 1.73606e-21)
(0.347802 -7.53819 2.37864e-21)
(0.350081 -7.30611 -7.6172e-22)
(0.352175 -7.08265 1.01997e-21)
(0.354146 -6.86741 -1.16042e-21)
(0.356048 -6.65994 2.49523e-21)
(0.357918 -6.45971 5.7995e-22)
(0.359775 -6.26614 -3.91795e-22)
(0.36169 -6.07865 2.3314e-22)
(0.363799 -5.89664 5.40173e-22)
(0.36546 -5.71951 1.91439e-21)
(0.891785 -14.5636 -5.00231e-21)
(0.543912 -13.9473 3.11648e-20)
(0.528726 -13.4141 -1.63328e-20)
(0.547737 -12.9446 -2.17781e-20)
(0.549201 -12.5212 -9.59978e-21)
(0.551694 -12.1277 -6.71826e-21)
(0.556263 -11.7541 -1.34039e-20)
(0.560669 -11.3943 1.8436e-21)
(0.564274 -11.0451 -2.93564e-21)
(0.566912 -10.7048 -1.01228e-20)
(0.568499 -10.3727 -2.44273e-20)
(0.569045 -10.0488 1.16441e-20)
(0.568634 -9.73333 -4.30222e-21)
(0.567381 -9.42657 1.61562e-21)
(0.565417 -9.12884 -9.43374e-21)
(0.562873 -8.84041 -3.36783e-21)
(0.559872 -8.56143 3.98178e-22)
(0.556524 -8.29199 1.10778e-20)
(0.552931 -8.03206 -5.85244e-21)
(0.54918 -7.78156 -3.19771e-21)
(0.545348 -7.54032 -1.21045e-20)
(0.541505 -7.30809 3.07722e-21)
(0.53771 -7.08455 -1.88016e-21)
(0.534017 -6.86931 3.27846e-21)
(0.530469 -6.6619 -4.05935e-21)
(0.527089 -6.46178 -2.28271e-21)
(0.523881 -6.26836 7.52012e-22)
(0.52092 -6.08102 1.12327e-21)
(0.518387 -5.89911 -1.99521e-21)
(0.515473 -5.72203 8.65152e-22)
(1.27279 -14.5375 -2.33969e-21)
(0.90982 -13.9362 6.34985e-21)
(0.881199 -13.4084 1.01356e-20)
(0.888186 -12.9419 7.53678e-20)
(0.878747 -12.5209 -4.26132e-20)
(0.871048 -12.1289 3.85521e-20)
(0.865862 -11.7558 -3.3763e-20)
(0.86081 -11.3961 1.76689e-20)
(0.855184 -11.0467 -1.63134e-20)
(0.84879 -10.7059 -1.45995e-21)
(0.84154 -10.3732 3.9616e-20)
(0.833455 -10.0487 6.37264e-21)
(0.824632 -9.73258 -1.76282e-20)
(0.815201 -9.42526 1.3684e-20)
(0.805307 -9.12705 6.21654e-23)
(0.795087 -8.8382 5.59013e-21)
(0.784671 -8.55889 3.93557e-21)
(0.774172 -8.28918 1.29174e-20)
(0.763689 -8.02907 -5.70694e-21)
(0.753307 -7.77846 -1.86465e-21)
(0.743099 -7.53717 -4.6845e-21)
(0.733125 -7.30497 2.04598e-20)
(0.723438 -7.08152 -1.69093e-20)
(0.714081 -6.86643 5.44734e-21)
(0.705087 -6.65923 1.22416e-20)
(0.696464 -6.45938 -9.82723e-21)
(0.688198 -6.26627 1.29639e-20)
(0.680371 -6.07923 -1.39868e-21)
(0.673204 -5.89758 -1.434e-21)
(0.665701 -5.72071 -8.82498e-21)
(1.65272 -14.5018 -8.02949e-20)
(1.27509 -13.9157 -6.65191e-20)
(1.23342 -13.3935 -7.96033e-20)
(1.22869 -12.9304 2.62006e-21)
(1.20853 -12.512 4.83322e-21)
(1.19073 -12.1216 -8.46531e-20)
(1.17583 -11.7494 -4.1271e-20)
(1.16133 -11.3901 1.05547e-20)
(1.14646 -11.0405 -1.90183e-21)
(1.131 -10.6994 1.71801e-20)
(1.11488 -10.3664 -6.71965e-20)
(1.09812 -10.0415 -4.05598e-20)
(1.08085 -9.72499 1.52115e-20)
(1.06321 -9.41733 2.89061e-20)
(1.04535 -9.11885 -3.3347e-20)
(1.02743 -8.8298 -5.1077e-21)
(1.00958 -8.55036 -1.89721e-20)
(0.991907 -8.28059 -8.74321e-21)
(0.974521 -8.02049 1.44131e-20)
(0.957499 -7.76994 -1.82117e-20)
(0.940908 -7.52878 1.55385e-20)
(0.924802 -7.29676 -1.83127e-20)
(0.909224 -7.07356 -1.40801e-20)
(0.894209 -6.85879 -9.90915e-21)
(0.879776 -6.65196 1.13567e-20)
(0.86592 -6.45253 -1.98883e-20)
(0.852611 -6.25987 2.05517e-21)
(0.839936 -6.0733 3.45329e-21)
(0.828149 -5.89207 -9.88138e-21)
(0.81605 -5.71556 1.98418e-21)
(2.03166 -14.4564 -4.74367e-20)
(1.63982 -13.886 6.39915e-21)
(1.58533 -13.3695 5.53034e-20)
(1.56907 -12.9101 5.63739e-20)
(1.53834 -12.4945 3.97417e-20)
(1.51053 -12.106 1.614e-20)
(1.48596 -11.7348 9.67309e-21)
(1.46201 -11.376 1.08706e-19)
(1.43788 -11.0266 -6.45627e-20)
(1.41333 -10.6855 1.94912e-21)
(1.3883 -10.3523 1.50843e-20)
(1.36285 -10.0272 6.23492e-20)
(1.33709 -9.71053 -4.17314e-20)
(1.31121 -9.40276 2.9328e-20)
(1.28537 -9.10421 -3.17811e-20)
(1.25972 -8.81518 5.37411e-20)
(1.23442 -8.53581 -1.56729e-20)
(1.20957 -8.26618 5.8179e-22)
(1.18527 -8.00627 2.40945e-20)
(1.1616 -7.75598 1.64825e-20)
(1.13863 -7.51512 -1.6742e-20)
(1.11639 -7.28346 2.21852e-20)
(1.09493 -7.06068 -9.86245e-21)
(1.07426 -6.84637 1.13368e-20)
(1.05441 -6.64007 1.22884e-20)
(1.03533 -6.44121 5.23771e-21)
(1.017 -6.24916 1.58729e-20)
(0.999499 -6.0632 -5.88271e-21)
(0.983113 -5.88255 -1.98051e-21)
(0.966419 -5.70659 -8.26015e-21)
(2.40934 -14.4014 -3.42126e-20)
(2.00379 -13.8469 -2.08862e-20)
(1.93674 -13.3365 -6.19916e-20)
(1.90913 -12.8809 -1.57513e-19)
(1.86797 -12.4685 5.26542e-20)
(1.83023 -12.0819 3.27468e-21)
(1.79602 -11.7121 8.22102e-22)
(1.76264 -11.3539 6.15216e-21)
(1.72923 -11.0049 -5.01462e-21)
(1.69558 -10.664 -8.04757e-20)
(1.66162 -10.3308 3.36643e-20)
(1.62743 -10.0058 5.61104e-20)
(1.59317 -9.68919 2.29499e-22)
(1.55902 -9.38152 1.99405e-20)
(1.52517 -9.08315 4.80488e-20)
(1.49179 -8.79433 -3.25879e-20)
(1.45902 -8.51525 5.61974e-20)
(1.42699 -8.24596 -2.6355e-20)
(1.39578 -7.98643 4.57629e-20)
(1.36547 -7.73657 -3.39771e-20)
(1.33611 -7.4962 1.48874e-20)
(1.30775 -7.26506 3.79942e-20)
(1.28042 -7.04285 1.76015e-21)
(1.25412 -6.82917 -3.44378e-20)
(1.22885 -6.62355 1.86782e-20)
(1.20458 -6.42541 5.57787e-21)
(1.18125 -6.23412 -5.88169e-21)
(1.15895 -6.04894 2.21446e-20)
(1.13799 -5.86902 7.57927e-21)
(1.11671 -5.69377 -7.03347e-21)
(2.78555 -14.3366 9.55504e-20)
(2.36682 -13.7985 -2.77603e-21)
(2.28744 -13.2945 -1.25202e-19)
(2.24867 -12.8429 2.53974e-20)
(2.19721 -12.4337 -3.36431e-20)
(2.14962 -12.0495 2.51915e-20)
(2.10581 -11.6811 -1.12525e-20)
(2.063 -11.3239 9.30287e-20)
(2.02031 -10.9754 -9.82752e-20)
(1.97753 -10.6349 2.39982e-20)
(1.93462 -10.3021 -1.58305e-20)
(1.89168 -9.97726 1.14235e-20)
(1.84889 -9.66097 -5.07274e-20)
(1.80646 -9.35363 -3.00354e-21)
(1.76459 -9.05563 7.77619e-20)
(1.72346 -8.76726 -5.33587e-20)
(1.68323 -8.48867 -3.28749e-20)
(1.644 -8.21992 -2.31083e-20)
(1.60588 -7.96097 4.19158e-20)
(1.56893 -7.71173 8.71414e-21)
(1.53321 -7.47201 -3.97862e-20)
(1.49874 -7.24157 5.19596e-20)
(1.46554 -7.0201 -4.65201e-20)
(1.43362 -6.8072 3.00958e-20)
(1.40297 -6.6024 -1.70079e-20)
(1.37354 -6.40514 4.93368e-21)
(1.34523 -6.21477 7.81667e-21)
(1.31817 -6.03051 -3.52389e-20)
(1.29267 -5.85147 1.49689e-20)
(1.26682 -5.67712 1.9969e-22)
(3.16003 -14.2621 -9.30788e-20)
(2.72869 -13.7408 7.07185e-20)
(2.63725 -13.2434 -1.26326e-19)
(2.58748 -12.7961 2.38357e-19)
(2.52584 -12.3904 -6.55188e-20)
(2.46847 -12.0086 9.01394e-20)
(2.4151 -11.6419 6.92727e-20)
(2.36288 -11.2858 -1.27884e-20)
(2.31091 -10.9382 -1.69373e-20)
(2.25898 -10.5982 1.27598e-22)
(2.2071 -10.2659 -6.3085e-20)
(2.15538 -9.94163 3.29042e-20)
(2.10405 -9.62586 -3.8123e-20)
(2.05333 -9.31907 -3.12466e-21)
(2.00344 -9.02169 -1.03058e-19)
(1.95456 -8.73397 3.36986e-20)
(1.90686 -8.45608 1.86131e-20)
(1.86045 -8.18807 -2.11845e-20)
(1.81542 -7.9299 -2.51566e-21)
(1.77185 -7.68146 -3.11843e-20)
(1.72977 -7.44257 -1.0939e-20)
(1.6892 -7.213 7.78269e-22)
(1.65017 -6.99242 -2.59735e-20)
(1.61266 -6.78046 -3.77747e-20)
(1.57665 -6.57664 1.71005e-21)
(1.54207 -6.38041 5.18385e-21)
(1.50883 -6.1911 1.13977e-20)
(1.47704 -6.00792 -2.7749e-20)
(1.44704 -5.82992 2.33366e-20)
(1.41664 -5.65662 -4.09638e-20)
(3.53254 -14.1779 -2.29556e-19)
(3.08916 -13.6737 2.55348e-19)
(2.98593 -13.1832 -2.63529e-19)
(2.92534 -12.7405 -6.93794e-20)
(2.85365 -12.3385 -4.28383e-20)
(2.78658 -11.9594 -4.6035e-20)
(2.72369 -11.5945 -1.05421e-19)
(2.66206 -11.2397 -9.33217e-21)
(2.60079 -10.8931 -4.10408e-20)
(2.53972 -10.554 -7.9617e-21)
(2.47885 -10.2225 6.46159e-20)
(2.41835 -9.8989 -3.7573e-20)
(2.35846 -9.58386 -4.25572e-20)
(2.29944 -9.27787 -6.96805e-20)
(2.24152 -8.98131 1.44771e-19)
(2.1849 -8.69446 -5.45753e-20)
(2.12974 -8.41748 2.00658e-20)
(2.07616 -8.15042 -7.3169e-20)
(2.02425 -7.89322 2.81409e-20)
(1.97406 -7.64577 -1.10318e-20)
(1.92564 -7.40789 1.41659e-20)
(1.879 -7.17934 -4.56286e-21)
(1.83415 -6.95982 4.20837e-20)
(1.79107 -6.74895 -1.47106e-20)
(1.74973 -6.54627 4.00906e-20)
(1.71005 -6.35121 -8.08686e-20)
(1.67191 -6.16311 5.10723e-20)
(1.63544 -5.98116 1.35967e-20)
(1.60098 -5.80436 2.51816e-20)
(1.56608 -5.63229 -7.19664e-20)
(3.90282 -14.0841 3.6241e-19)
(3.44801 -13.5973 -6.55601e-20)
(3.33327 -13.114 1.12773e-19)
(3.26203 -12.676 -3.10751e-20)
(3.18042 -12.2779 1.08423e-19)
(3.10373 -11.9017 9.98023e-20)
(3.03134 -11.5388 4.58513e-20)
(2.96032 -11.1856 -1.63986e-20)
(2.88977 -10.8403 -1.0142e-19)
(2.81953 -10.5022 1.47489e-19)
(2.74966 -10.1717 -1.01703e-20)
(2.68037 -9.84905 9.97134e-20)
(2.61193 -9.535 3.53831e-20)
(2.54462 -9.23002 1.31174e-20)
(2.47867 -8.93451 1.97012e-20)
(2.41432 -8.64875 2.72318e-20)
(2.35171 -8.3729 4.39715e-20)
(2.29097 -8.10698 -1.22283e-20)
(2.23219 -7.85095 6.26055e-20)
(2.17541 -7.60467 2.79894e-20)
(2.12068 -7.36798 -5.79098e-20)
(2.06799 -7.14063 1.01109e-19)
(2.01735 -6.92233 -1.31573e-19)
(1.96874 -6.7127 1.22549e-19)
(1.9221 -6.51129 -4.01129e-20)
(1.87735 -6.31756 -1.60432e-20)
(1.83436 -6.13083 -3.78045e-21)
(1.79325 -5.95026 2.85317e-20)
(1.75439 -5.7748 9.95588e-21)
(1.71501 -5.60414 -1.10241e-20)
(4.27063 -13.9807 -2.05454e-19)
(3.80499 -13.5116 1.83003e-19)
(3.67903 -13.0358 -4.90618e-20)
(3.59734 -12.6028 1.37907e-19)
(3.50593 -12.2088 1.35781e-20)
(3.41968 -11.8356 2.69012e-20)
(3.33785 -11.475 -2.22945e-19)
(3.25745 -11.1235 1.0261e-19)
(3.17761 -10.7797 1.37154e-19)
(3.09821 -10.4429 1.00561e-19)
(3.01934 -10.1135 -1.69474e-19)
(2.94126 -9.79212 9.67057e-20)
(2.86426 -9.47928 -9.52507e-20)
(2.78865 -9.17554 6.3483e-20)
(2.7147 -8.88131 -1.05305e-19)
(2.64262 -8.59686 -7.60953e-20)
(2.57259 -8.32234 5.34659e-21)
(2.50471 -8.05778 -3.32623e-20)
(2.43908 -7.8031 5.96094e-20)
(2.37574 -7.55819 2.3278e-20)
(2.31472 -7.32286 -1.52155e-20)
(2.25602 -7.09688 -4.32851e-21)
(2.19962 -6.87995 1.69108e-20)
(2.1455 -6.67172 -5.68025e-20)
(2.09361 -6.47174 9.24864e-20)
(2.04384 -6.27947 -2.2667e-20)
(1.99604 -6.09425 -3.75228e-20)
(1.95035 -5.91521 7.74076e-20)
(1.90714 -5.74125 9.87339e-21)
(1.86334 -5.57218 -1.00174e-20)
(4.63572 -13.8678 8.26166e-21)
(4.15986 -13.4167 -1.04261e-19)
(4.02298 -12.9485 -9.23681e-20)
(3.93102 -12.5207 -1.49942e-19)
(3.82995 -12.131 5.297e-21)
(3.73423 -11.7611 -1.01815e-19)
(3.64298 -11.4029 1.19929e-19)
(3.55322 -11.0535 -5.82489e-20)
(3.4641 -10.7113 9.05454e-20)
(3.37554 -10.376 -7.59314e-20)
(3.28768 -10.0481 -3.76331e-20)
(3.2008 -9.72812 2.02021e-20)
(3.11526 -9.41672 1.07003e-20)
(3.03137 -9.11445 -1.05542e-19)
(2.94942 -8.82173 6.15693e-20)
(2.86964 -8.53881 -2.92406e-20)
(2.7922 -8.26584 8.32063e-20)
(2.71722 -8.00283 -2.6797e-20)
(2.64477 -7.74971 2.76136e-20)
(2.5749 -7.50635 6.70066e-21)
(2.50762 -7.27256 4.53225e-20)
(2.44294 -7.0481 -9.33207e-21)
(2.38082 -6.83271 7.23014e-20)
(2.32123 -6.62603 -8.0083e-20)
(2.26413 -6.42762 -2.65794e-20)
(2.20938 -6.23697 2.13909e-20)
(2.15682 -6.05341 -2.41224e-21)
(2.10661 -5.87604 -5.72803e-20)
(2.05911 -5.70373 2.89712e-20)
(2.01096 -5.53641 -3.0937e-20)
(4.99785 -13.7454 3.44074e-19)
(4.51239 -13.3125 8.51949e-20)
(4.3649 -12.8523 1.00325e-19)
(4.26286 -12.4299 1.30867e-19)
(4.15225 -12.0447 1.93023e-19)
(4.04713 -11.6782 -5.9161e-21)
(3.94652 -11.3227 2.78578e-20)
(3.84743 -10.9754 3.0646e-19)
(3.74903 -10.6351 8.66744e-20)
(3.65131 -10.3016 -7.13652e-20)
(3.55446 -9.97538 1.22919e-19)
(3.45881 -9.65706 1.97157e-20)
(3.36473 -9.34734 1.07991e-21)
(3.27258 -9.04678 2.82868e-20)
(3.18265 -8.75579 4.86244e-20)
(3.0952 -8.47463 -9.77396e-20)
(3.01038 -8.20342 8.23841e-20)
(2.92832 -7.94217 1.34512e-20)
(2.84909 -7.6908 7.69805e-20)
(2.77272 -7.44917 -4.16963e-20)
(2.69923 -7.21709 6.68092e-20)
(2.62859 -6.99434 -7.02047e-20)
(2.56079 -6.78064 6.67984e-20)
(2.49579 -6.57565 8.7108e-21)
(2.43351 -6.37897 -4.39238e-20)
(2.37383 -6.19007 -1.37524e-20)
(2.31658 -6.00831 8.09493e-20)
(2.26191 -5.83277 -1.22491e-20)
(2.21019 -5.66226 1.52576e-20)
(2.15774 -5.49687 -9.34094e-21)
(5.35675 -13.6136 3.41884e-20)
(4.86234 -13.1992 7.23757e-20)
(4.70454 -12.7472 2.89385e-19)
(4.59262 -12.3304 -4.66408e-19)
(4.47261 -11.9498 -4.42678e-20)
(4.35818 -11.5869 -4.84076e-20)
(4.24824 -11.2343 2.13861e-20)
(4.13984 -10.8894 2.6782e-20)
(4.03219 -10.5512 6.64277e-20)
(3.92532 -10.2197 -1.16126e-19)
(3.81948 -9.8954 -2.08485e-20)
(3.71506 -9.57899 6.24618e-20)
(3.61247 -9.27118 6.49282e-20)
(3.51208 -8.97256 -6.5071e-20)
(3.41421 -8.68352 -6.16697e-20)
(3.31911 -8.40434 1.00919e-19)
(3.22696 -8.1351 6.36428e-20)
(3.13786 -7.87582 -1.7042e-20)
(3.05188 -7.6264 -3.96944e-20)
(2.96906 -7.38669 6.76013e-21)
(2.88938 -7.1565 -8.76262e-20)
(2.81284 -6.93562 1.04084e-19)
(2.7394 -6.72376 -7.02629e-20)
(2.66902 -6.52063 -2.60643e-21)
(2.60161 -6.3258 4.48675e-20)
(2.53706 -6.1388 -1.37849e-20)
(2.47517 -5.95898 -4.07749e-20)
(2.4161 -5.78541 6.48543e-21)
(2.36025 -5.61685 -1.69797e-21)
(2.30358 -5.45358 7.27187e-21)
(5.7122 -13.4725 -2.65468e-20)
(5.20947 -13.0768 -7.70536e-20)
(5.04168 -12.6331 -3.32649e-19)
(4.92008 -12.2222 1.18888e-19)
(4.79081 -11.8464 -3.43848e-20)
(4.66714 -11.4873 1.1287e-19)
(4.54792 -11.1377 8.13436e-21)
(4.43023 -10.7955 -1.22521e-19)
(4.31334 -10.4597 8.57174e-21)
(4.19734 -10.1304 -1.61622e-19)
(4.08255 -9.80819 -5.49196e-21)
(3.96938 -9.49392 3.72598e-20)
(3.85829 -9.18827 -6.35155e-20)
(3.7497 -8.89181 7.00443e-20)
(3.64392 -8.60497 -1.3234e-19)
(3.54121 -8.32797 -2.84074e-20)
(3.44176 -8.06093 7.77578e-20)
(3.34566 -7.80382 3.45312e-22)
(3.25298 -7.55654 -4.61734e-20)
(3.16374 -7.31894 1.24965e-19)
(3.07794 -7.09082 -6.68414e-20)
(2.99553 -6.87197 -8.72255e-20)
(2.9165 -6.66212 2.85232e-20)
(2.84078 -6.46098 -8.15532e-20)
(2.7683 -6.26816 -1.89787e-20)
(2.69892 -6.08319 -2.13986e-21)
(2.63245 -5.90546 -5.03025e-20)
(2.56907 -5.734 6.02581e-20)
(2.50915 -5.56754 -2.09304e-20)
(2.44834 -5.40656 3.3088e-20)
(6.06395 -13.3221 -1.21433e-19)
(5.55354 -12.9453 -3.0623e-19)
(5.37609 -12.5103 1.42656e-19)
(5.24501 -12.1053 -1.3273e-19)
(5.1066 -11.7345 -9.55809e-20)
(4.97378 -11.3794 -5.31219e-20)
(4.84534 -11.0331 -1.93338e-19)
(4.71839 -10.6937 1.2929e-19)
(4.59229 -10.3604 -2.25487e-19)
(4.46718 -10.0336 -3.07496e-19)
(4.34344 -9.71379 4.05308e-20)
(4.22155 -9.4019 6.39613e-20)
(4.10201 -9.09864 -1.83753e-21)
(3.98523 -8.80459 -1.1686e-19)
(3.87158 -8.52016 2.69457e-20)
(3.76131 -8.24558 -1.00912e-19)
(3.6546 -7.98093 -7.07627e-20)
(3.55156 -7.7262 -4.10405e-20)
(3.45223 -7.48126 -7.17183e-21)
(3.35662 -7.24595 7.00652e-20)
(3.26473 -7.02008 9.74794e-20)
(3.17651 -6.80342 -2.87151e-20)
(3.09193 -6.59574 -2.67403e-20)
(3.01093 -6.39674 5.18744e-20)
(2.93343 -6.20607 2.82862e-20)
(2.85928 -6.02327 -2.2308e-20)
(2.78829 -5.84776 -2.42143e-20)
(2.72066 -5.67856 2.91022e-21)
(2.65676 -5.51436 2.10367e-20)
(2.59192 -5.35584 -2.96481e-20)
(6.41175 -13.1626 -2.16318e-20)
(5.89432 -12.8048 3.83041e-19)
(5.70753 -12.3786 2.8587e-19)
(5.56718 -11.9797 2.16749e-19)
(5.41977 -11.6142 -1.38835e-19)
(5.27789 -11.2632 -2.7273e-20)
(5.14027 -10.9204 2.53743e-20)
(5.0041 -10.584 1.62719e-19)
(4.86881 -10.2536 5.96662e-20)
(4.73461 -9.92938 8.84718e-20)
(4.60196 -9.61224 -1.92204e-19)
(4.47138 -9.30297 2.01703e-20)
(4.34341 -9.00234 7.52411e-20)
(4.21851 -8.71093 4.43685e-20)
(4.09703 -8.42914 8.99002e-20)
(3.97924 -8.15719 -6.18533e-20)
(3.86533 -7.89516 -5.51663e-20)
(3.75539 -7.643 1.12572e-20)
(3.64945 -7.4006 1.1357e-19)
(3.54754 -7.16777 -1.80763e-19)
(3.44961 -6.94432 6.25339e-20)
(3.35563 -6.73003 -2.87049e-22)
(3.26555 -6.52467 1.12524e-19)
(3.17931 -6.32796 -4.86721e-20)
(3.09684 -6.13957 -2.85815e-21)
(3.01798 -5.95908 -2.95197e-20)
(2.94254 -5.78593 -2.57812e-20)
(2.87074 -5.61913 5.4003e-21)
(2.80294 -5.45733 -6.10575e-20)
(2.73416 -5.30145 8.69625e-20)
(6.75536 -12.994 -4.36472e-19)
(6.23157 -12.6554 -2.31735e-19)
(6.03579 -12.2382 -5.76051e-19)
(5.88637 -11.8457 -2.52177e-19)
(5.7301 -11.4855 2.3154e-19)
(5.57922 -11.1388 -1.31321e-19)
(5.43248 -10.7997 -2.91275e-20)
(5.28713 -10.4665 -8.21682e-20)
(5.14268 -10.1391 1.37502e-19)
(4.99943 -9.81786 -1.24038e-19)
(4.8579 -9.50359 1.47797e-20)
(4.71867 -9.19718 -5.75776e-21)
(4.58232 -8.89942 -1.80504e-19)
(4.44933 -8.61088 -5.19582e-21)
(4.32007 -8.33195 4.77739e-20)
(4.19483 -8.06286 -4.84179e-21)
(4.07377 -7.80365 -1.71716e-19)
(3.95698 -7.55428 1.64444e-19)
(3.8445 -7.3146 -1.57899e-19)
(3.73633 -7.08444 6.08228e-20)
(3.63242 -6.86359 8.44441e-21)
(3.53273 -6.65183 3.38697e-21)
(3.4372 -6.44894 -6.06653e-20)
(3.34578 -6.25466 5.968e-20)
(3.25838 -6.0687 -2.52429e-20)
(3.17487 -5.89066 2.67686e-20)
(3.09505 -5.72 -1.41042e-19)
(3.01915 -5.55574 3.87183e-20)
(2.94755 -5.39649 4.04718e-20)
(2.87495 -5.24344 3.83904e-20)
(7.09455 -12.8165 8.44564e-19)
(6.56507 -12.4972 2.60198e-19)
(6.36064 -12.0891 1.47889e-19)
(6.20235 -11.7031 2.31223e-19)
(6.03735 -11.3484 -2.78537e-20)
(5.87757 -11.0063 1.6333e-19)
(5.72176 -10.6709 3.53597e-19)
(5.56727 -10.3413 -4.56629e-20)
(5.4137 -10.0171 1.83501e-20)
(5.26143 -9.69904 3.83716e-19)
(5.11106 -9.38789 3.53685e-19)
(4.96323 -9.08459 5.03443e-20)
(4.81854 -8.78992 -1.72566e-20)
(4.67751 -8.50448 3.66072e-22)
(4.54054 -8.22865 2.47056e-19)
(4.40789 -7.96263 9.51959e-21)
(4.27974 -7.70646 2.50857e-19)
(4.15617 -7.46007 -3.25341e-20)
(4.03721 -7.22331 -5.19013e-20)
(3.92283 -6.996 1.19634e-19)
(3.813 -6.77792 -1.06982e-19)
(3.70765 -6.56886 -1.14127e-19)
(3.60673 -6.3686 -1.00276e-20)
(3.51018 -6.1769 -4.83861e-20)
(3.41791 -5.9935 7.30161e-20)
(3.3298 -5.81804 8.48139e-21)
(3.24566 -5.65001 -2.86551e-20)
(3.16574 -5.48842 1.64205e-20)
(3.09043 -5.33187 1.02248e-19)
(3.01412 -5.18184 1.36831e-20)
(7.42909 -12.6302 -1.4539e-19)
(6.89459 -12.3303 -2.62634e-19)
(6.68187 -11.9315 1.03019e-19)
(6.5149 -11.5521 -4.10727e-19)
(6.3413 -11.203 1.88172e-19)
(6.1727 -10.8656 -3.3675e-19)
(6.00788 -10.5343 -2.12913e-19)
(5.8443 -10.2083 5.85147e-20)
(5.68165 -9.88769 5.2702e-20)
(5.52041 -9.573 -2.67256e-19)
(5.36124 -9.2652 3.95258e-20)
(5.20485 -8.96524 4.1211e-20)
(5.05188 -8.67391 -1.3559e-19)
(4.90288 -8.3918 -5.2279e-20)
(4.75825 -8.11929 -3.41389e-20)
(4.61826 -7.85655 -3.38841e-20)
(4.48309 -7.60362 -1.37197e-19)
(4.3528 -7.36042 -8.33597e-20)
(4.22742 -7.12678 -1.74371e-20)
(4.1069 -6.9025 6.65441e-20)
(3.9912 -6.68736 8.75706e-20)
(3.88025 -6.48116 -9.42163e-20)
(3.77399 -6.28369 3.43349e-20)
(3.67235 -6.09472 -7.04902e-20)
(3.57527 -5.91401 6.43251e-20)
(3.48261 -5.74125 -8.45955e-20)
(3.3942 -5.57599 2.52785e-20)
(3.31034 -5.41722 -4.07266e-20)
(3.23142 -5.26353 -5.6006e-20)
(3.15153 -5.1167 -5.04315e-21)
(7.75875 -12.4352 -3.02777e-19)
(7.21994 -12.1547 -2.34648e-19)
(6.99926 -11.7654 -2.22456e-19)
(6.82381 -11.3927 -1.56255e-19)
(6.64173 -11.0494 4.78051e-19)
(6.4644 -10.7168 6.33567e-20)
(6.29063 -10.3898 1.92816e-19)
(6.118 -10.0678 2.85982e-19)
(5.94632 -9.75085 1.32322e-19)
(5.77615 -9.43978 -1.75125e-19)
(5.60823 -9.13557 2.68531e-19)
(5.44334 -8.8392 7.88463e-20)
(5.28216 -8.55144 2.36208e-19)
(5.12525 -8.2729 2.60199e-20)
(4.97303 -8.00392 5.73384e-20)
(4.82577 -7.74469 1.8677e-20)
(4.68364 -7.4952 -1.69347e-21)
(4.54671 -7.25538 -6.79673e-21)
(4.41497 -7.02504 2.81629e-20)
(4.28838 -6.80397 9.334e-20)
(4.16687 -6.59196 -1.02896e-19)
(4.05037 -6.38878 7.9653e-20)
(3.93882 -6.19424 2.38436e-21)
(3.83215 -6.00815 3.46982e-20)
(3.7303 -5.83027 6.21249e-20)
(3.63314 -5.66035 -1.07684e-20)
(3.54052 -5.49797 5.98129e-20)
(3.45278 -5.34216 8.42647e-20)
(3.37034 -5.19147 -9.14566e-20)
(3.287 -5.04804 -4.78349e-20)
(8.08333 -12.2315 8.75054e-19)
(7.54089 -11.9707 -8.65125e-20)
(7.31261 -11.5909 1.71958e-19)
(7.12886 -11.225 3.0592e-19)
(6.93842 -10.8876 -8.52741e-19)
(6.75244 -10.5601 8.88442e-20)
(6.56978 -10.2375 -3.05396e-19)
(6.38816 -9.91962 2.92931e-19)
(6.20749 -9.60666 -2.29538e-19)
(6.02845 -9.29946 1.17057e-19)
(5.85185 -8.99909 -4.24292e-19)
(5.67852 -8.70653 1.84103e-20)
(5.50919 -8.42259 -4.41135e-19)
(5.34444 -8.14783 1.95445e-19)
(5.18471 -7.88261 9.93895e-20)
(5.03025 -7.62708 1.46671e-19)
(4.88124 -7.38125 -1.56764e-19)
(4.73773 -7.145 -1.16491e-20)
(4.5997 -6.91814 1.13548e-20)
(4.4671 -6.70047 3.18752e-20)
(4.33985 -6.49174 -1.80007e-19)
(4.21786 -6.29176 -5.00464e-21)
(4.10107 -6.10031 -9.68277e-20)
(3.98941 -5.91723 -2.2498e-20)
(3.88282 -5.74232 -5.71918e-20)
(3.78121 -5.57536 -6.11606e-20)
(3.68443 -5.416 -6.20107e-20)
(3.59287 -5.26328 1.02858e-19)
(3.50699 -5.11575 2.69637e-20)
(3.42034 -4.97589 -4.56859e-20)
(8.40262 -12.0194 -5.82263e-19)
(7.85728 -11.7783 1.90707e-19)
(7.62173 -11.4081 -3.13438e-19)
(7.42985 -11.0491 4.63842e-20)
(7.23115 -10.7178 4.79192e-19)
(7.0366 -10.3955 -2.38363e-19)
(6.84511 -10.0776 -2.37973e-19)
(6.65456 -9.76398 -2.00599e-19)
(6.46496 -9.4552 1.07213e-20)
(6.27711 -9.15212 1.23192e-19)
(6.09189 -8.85583 -8.56904e-20)
(5.91019 -8.56733 5.90269e-21)
(5.73279 -8.28742 1.83057e-19)
(5.56029 -8.01667 1.12107e-19)
(5.39311 -7.75542 3.03193e-20)
(5.23155 -7.50381 -9.5533e-20)
(5.07573 -7.26182 3.59863e-20)
(4.92572 -7.02933 7.67161e-20)
(4.78148 -6.80615 8.24638e-20)
(4.64293 -6.59203 -8.98729e-20)
(4.51 -6.38677 1.38728e-20)
(4.38257 -6.19012 7.369e-20)
(4.26058 -6.00192 1.25249e-19)
(4.14397 -5.82199 3.12688e-20)
(4.03269 -5.65018 -1.24816e-19)
(3.92665 -5.48632 1.42527e-19)
(3.82575 -5.3301 -7.08754e-20)
(3.73042 -5.18059 -8.26484e-20)
(3.64118 -5.03637 -5.00244e-20)
(3.55137 -4.9003 -5.84587e-20)
(8.71646 -11.799 3.03885e-19)
(8.16893 -11.5776 -2.16649e-19)
(7.92642 -11.217 8.38245e-20)
(7.72655 -10.8651 4.12068e-19)
(7.5197 -10.5399 1.07993e-19)
(7.31666 -10.223 -8.99426e-20)
(7.11642 -9.90991 2.13804e-19)
(6.91699 -9.60091 5.20117e-20)
(6.71853 -9.29656 1.8865e-19)
(6.52192 -8.99784 1.01333e-19)
(6.32816 -8.70586 4.59895e-21)
(6.13817 -8.42165 6.03625e-20)
(5.95278 -8.14601 -1.87761e-20)
(5.77261 -7.8795 -1.61018e-19)
(5.59809 -7.62243 -2.3713e-20)
(5.42949 -7.37493 -4.56971e-20)
(5.26696 -7.13698 1.09843e-19)
(5.11053 -6.90843 1.0913e-19)
(4.96014 -6.68909 -1.2215e-19)
(4.81572 -6.47871 1.23884e-19)
(4.67716 -6.27705 2.56313e-19)
(4.54435 -6.08391 -1.63158e-19)
(4.41721 -5.8991 1.60027e-19)
(4.29568 -5.72247 -1.11506e-19)
(4.17973 -5.55388 -1.51774e-20)
(4.06928 -5.39324 1.14311e-19)
(3.96428 -5.24028 -2.34456e-20)
(3.86521 -5.09414 8.32124e-20)
(3.77268 -4.95338 8.11888e-20)
(3.67985 -4.82131 -1.40822e-19)
(9.02471 -11.5703 -2.92024e-19)
(8.47568 -11.3687 1.2444e-19)
(8.22648 -11.0178 4.86115e-20)
(8.01876 -10.6729 -4.77163e-19)
(7.80386 -10.3541 -2.38305e-19)
(7.5924 -10.0427 1.73216e-19)
(7.38347 -9.73471 -4.67623e-19)
(7.17523 -9.43052 5.48412e-19)
(6.96797 -9.13083 -3.01405e-19)
(6.7627 -8.83669 3.52313e-20)
(6.56047 -8.54927 -5.66096e-20)
(6.36228 -8.26959 -1.57341e-19)
(6.169 -7.99845 3.19001e-19)
(5.98124 -7.73638 1.15755e-19)
(5.79947 -7.4837 1.48134e-19)
(5.62394 -7.24051 3.04033e-21)
(5.45478 -7.00678 6.27973e-20)
(5.29201 -6.78235 -1.34008e-19)
(5.13557 -6.56702 2.80834e-20)
(4.98534 -6.36053 8.85042e-20)
(4.84122 -6.16264 -3.73032e-20)
(4.70307 -5.97314 5.83409e-20)
(4.57081 -5.79186 -1.14376e-19)
(4.44438 -5.61865 1.6142e-19)
(4.32376 -5.45343 3.58733e-20)
(4.2089 -5.29612 -9.97278e-20)
(4.09979 -5.14655 -8.38872e-20)
(3.99699 -5.00389 1.04333e-21)
(3.90117 -4.86677 1.12903e-19)
(3.80541 -4.73898 -2.35323e-20)
(9.32728 -11.3336 -7.97366e-20)
(8.7774 -11.1518 -4.99276e-19)
(8.52172 -10.8106 5.84366e-19)
(8.30627 -10.4728 3.82547e-19)
(8.0834 -10.1604 3.68287e-19)
(7.8636 -9.85473 9.65553e-20)
(7.64605 -9.55204 1.44974e-19)
(7.42907 -9.25288 7.07812e-20)
(7.2131 -8.95809 -2.76996e-19)
(6.99923 -8.66879 4.96306e-19)
(6.78863 -8.38616 -3.84547e-19)
(6.58234 -8.11125 -2.32674e-20)
(6.38126 -7.84482 5.46881e-20)
(6.18603 -7.58742 -2.28987e-19)
(5.99711 -7.33933 3.5643e-19)
(5.81475 -7.10064 6.61596e-20)
(5.63906 -6.8713 -1.45062e-19)
(5.47005 -6.65116 5.36857e-20)
(5.30762 -6.43998 -1.03948e-19)
(5.15167 -6.23753 -8.9824e-20)
(5.00204 -6.04355 -9.32813e-20)
(4.8586 -5.85783 2.09638e-20)
(4.72125 -5.6802 1.06155e-20)
(4.58993 -5.51054 -2.17074e-19)
(4.46463 -5.34878 -8.00497e-20)
(4.34533 -5.19492 5.22467e-20)
(4.23206 -5.04885 6.26942e-20)
(4.12545 -4.9098 -8.57788e-20)
(4.02628 -4.77648 -3.19832e-20)
(3.92758 -4.65312 2.31483e-21)
(9.62424 -11.0889 -7.2919e-20)
(9.07398 -10.9269 3.23591e-19)
(8.81193 -10.5953 -9.07882e-20)
(8.58883 -10.2647 -1.09239e-19)
(8.35808 -9.95885 -5.67623e-19)
(8.13002 -9.65917 -1.1881e-19)
(7.90392 -9.36198 2.22608e-19)
(7.67829 -9.06809 -1.42886e-19)
(7.45368 -8.77845 -1.43444e-20)
(7.23132 -8.49423 -2.80143e-20)
(7.01244 -8.21664 1.44972e-19)
(6.79817 -7.94671 -2.24489e-19)
(6.5894 -7.68523 -1.4557e-19)
(6.38681 -7.4327 1.66748e-19)
(6.19086 -7.18939 -9.2511e-20)
(6.00178 -6.95538 4.37505e-20)
(5.81967 -6.73061 7.693e-21)
(5.64451 -6.51491 -3.60942e-20)
(5.4762 -6.30804 1.27842e-19)
(5.3146 -6.10976 -1.15964e-19)
(5.15953 -5.91981 -9.07746e-20)
(5.01085 -5.73798 7.83842e-20)
(4.86844 -5.56411 -9.27637e-21)
(4.73223 -5.3981 -5.60767e-20)
(4.60223 -5.23991 4.87915e-20)
(4.47844 -5.0896 -1.48055e-19)
(4.36094 -4.94714 9.00667e-20)
(4.25043 -4.81182 -1.46272e-21)
(4.14781 -4.6824 -9.01904e-20)
(4.04627 -4.56341 1.18745e-19)
(9.91611 -10.8367 2.74872e-19)
(9.36555 -10.6943 -6.34073e-19)
(9.09692 -10.372 -4.99364e-20)
(8.86621 -10.0487 2.7535e-19)
(8.62766 -9.74957 -6.76079e-20)
(8.3914 -9.45605 -1.87263e-19)
(8.15684 -9.16461 8.40995e-20)
(7.92264 -8.87624 9.42938e-20)
(7.6895 -8.592 7.12575e-21)
(7.45875 -8.31311 1.09977e-19)
(7.23172 -8.0408 3.42149e-19)
(7.00957 -7.7761 -1.19524e-19)
(6.79325 -7.51977 2.82841e-20)
(6.58343 -7.27232 -7.4131e-20)
(6.38057 -7.03398 2.81947e-19)
(6.18489 -6.80483 -4.95279e-20)
(5.99648 -6.58479 7.22016e-20)
(5.81529 -6.37367 -1.19409e-19)
(5.6412 -6.17124 6.35123e-20)
(5.47403 -5.97724 9.41281e-20)
(5.3136 -5.79143 1.54509e-20)
(5.15972 -5.61359 6.06471e-20)
(5.01227 -5.44356 -4.89234e-20)
(4.87118 -5.28128 1.35096e-19)
(4.73643 -5.12675 -5.42505e-20)
(4.60808 -4.9801 1.94767e-19)
(4.48626 -4.8414 -5.60827e-20)
(4.37179 -4.70996 3.75892e-20)
(4.26574 -4.58457 -7.02587e-20)
(4.16165 -4.4705 1.14676e-19)
(10.2039 -10.5775 -6.0933e-19)
(9.65237 -10.4536 2.20719e-20)
(9.37653 -10.1405 -3.07748e-19)
(9.13811 -9.82464 5.39099e-20)
(8.89185 -9.53259 1.48468e-20)
(8.6475 -9.24551 -2.458e-19)
(8.40458 -8.96007 -4.50141e-19)
(8.16192 -8.67748 2.1836e-19)
(7.92036 -8.39889 -3.03649e-19)
(7.68134 -8.12558 -1.54182e-19)
(7.44628 -7.85878 -8.50285e-20)
(7.21639 -7.59953 -6.45601e-20)
(6.99265 -7.34858 3.10113e-22)
(6.77574 -7.1064 -2.26426e-19)
(6.56611 -6.87323 1.41237e-19)
(6.36397 -6.6491 -2.31661e-19)
(6.16939 -6.43394 -5.71657e-20)
(5.9823 -6.22754 6.40615e-20)
(5.80254 -6.02966 -2.56651e-20)
(5.62991 -5.84005 7.23507e-20)
(5.46419 -5.65844 5.43715e-20)
(5.30518 -5.48463 -1.34663e-19)
(5.1527 -5.31849 1.32946e-19)
(5.00665 -5.15994 -1.43378e-20)
(4.86701 -5.00907 -3.45851e-20)
(4.73385 -4.86611 -1.34317e-19)
(4.6074 -4.73121 -6.98249e-20)
(4.48863 -4.60371 1.27981e-19)
(4.37858 -4.48303 -4.22648e-20)
(4.27148 -4.3765 -3.73373e-20)
(10.4874 -10.3097 2.68156e-19)
(9.93404 -10.2036 2.52722e-20)
(9.6504 -9.90051 -5.99791e-20)
(9.40423 -9.59279 -1.10893e-20)
(9.15043 -9.30818 -9.8789e-20)
(8.89816 -9.02781 3.32507e-19)
(8.64701 -8.74864 -1.51755e-19)
(8.396 -8.47206 9.90233e-20)
(8.14614 -8.19937 4.05913e-20)
(7.89899 -7.93186 1.36423e-19)
(7.65603 -7.67081 -4.94508e-20)
(7.41854 -7.41723 2.79777e-19)
(7.18752 -7.17185 -2.33119e-20)
(6.96366 -6.93514 1.71129e-19)
(6.74741 -6.7073 -2.80405e-19)
(6.53896 -6.48836 -1.88028e-20)
(6.33835 -6.27821 1.73913e-19)
(6.1455 -6.07666 -1.05511e-19)
(5.96021 -5.88343 4.25513e-20)
(5.78225 -5.69828 7.14009e-20)
(5.61137 -5.52092 -1.0131e-19)
(5.44731 -5.35115 1.11923e-19)
(5.28985 -5.18882 -1.01365e-19)
(5.13882 -5.03387 2.24456e-20)
(4.99409 -4.88644 8.00289e-20)
(4.85566 -4.74679 5.4283e-20)
(4.72378 -4.6151 4.99005e-20)
(4.59917 -4.49105 3.6253e-20)
(4.48185 -4.3761 -9.78756e-20)
(4.36794 -4.27934 -3.62228e-20)
(14.8258 0.125729 3.3455e-21)
(14.8173 -0.265009 3.21255e-20)
(14.7991 -0.653823 1.1165e-19)
(14.772 -1.04113 6.06416e-20)
(14.7355 -1.42707 -1.30395e-19)
(14.6891 -1.81156 3.92665e-20)
(14.6327 -2.19444 -4.05748e-20)
(14.5664 -2.57551 -1.03444e-19)
(14.4901 -2.95457 5.56767e-20)
(14.404 -3.33137 -6.42526e-20)
(14.3081 -3.70567 -6.31573e-20)
(14.2025 -4.07722 -1.36851e-19)
(14.0872 -4.44578 -3.96005e-19)
(13.9623 -4.8111 3.65823e-20)
(13.828 -5.17293 -1.43224e-20)
(13.6842 -5.53103 -1.29263e-19)
(13.5313 -5.88516 2.68512e-19)
(13.3691 -6.23509 1.48781e-19)
(13.198 -6.58057 2.812e-19)
(13.0179 -6.92139 1.36962e-19)
(12.8291 -7.25732 -3.16369e-19)
(12.6317 -7.58813 1.32232e-20)
(12.4258 -7.91363 -6.03772e-19)
(12.2116 -8.23361 9.19166e-19)
(11.9892 -8.54787 -3.00524e-19)
(11.7588 -8.85624 -3.98261e-19)
(11.5206 -9.1586 -5.93456e-20)
(11.275 -9.45487 -7.84498e-21)
(11.0216 -9.74529 -3.11537e-19)
(10.7625 -10.0292 5.45769e-19)
(14.5095 -0.194385 1.17238e-20)
(14.4911 -0.575619 1.68569e-20)
(14.4622 -0.954913 3.66971e-21)
(14.4237 -1.33248 -1.50614e-19)
(14.3754 -1.70842 -1.3493e-19)
(14.3174 -2.08259 1.18855e-19)
(14.2496 -2.45477 1.47312e-19)