/*--------------------------------*- C++ -*----------------------------------*\
  =========                 |
  \\      /  F ield         | OpenFOAM: The Open Source CFD Toolbox
   \\    /   O peration     | Website:  https://openfoam.org
    \\  /    A nd           | Version:  6.0
     \\/     M anipulation  |
\*---------------------------------------------------------------------------*/
FoamFile
{
    version     2.0;
    format      ascii;
    class       volScalarField;
    location    "1.25";
    object      p;
}
// * * * * * * * * * * * * * * * * * * * * * * * * * * * * * * * * * * * * * //

dimensions      [0 2 -2 0 0 0 0];

internalField   nonuniform List<scalar> 
2400
(
-68.3075
-40.4587
-25.3746
-16.3687
-10.4232
-6.61549
-4.22713
-2.71631
-1.74468
-1.14022
-68.4383
-40.5794
-25.4876
-16.4779
-10.5319
-6.72596
-4.33924
-2.82848
-1.85506
-1.2471
-68.5956
-40.7127
-25.6106
-16.5977
-10.6518
-6.84763
-4.46256
-2.95186
-1.97671
-1.36532
-68.7733
-40.8578
-25.7411
-16.7246
-10.7791
-6.97695
-4.59376
-3.08349
-2.1072
-1.4931
-68.9637
-41.0099
-25.8763
-16.8559
-10.9108
-7.11068
-4.72949
-3.22008
-2.24351
-1.62774
-69.1623
-41.1642
-26.0111
-16.9869
-11.0432
-7.24551
-4.86659
-3.35836
-2.38217
-1.76545
-69.3706
-41.3183
-26.1403
-17.1117
-11.1706
-7.37732
-5.00228
-3.4964
-2.52155
-1.90493
-69.5921
-41.4718
-26.2595
-17.2231
-11.2848
-7.49759
-5.12913
-3.62906
-2.66024
-2.05109
-69.8173
-41.6226
-26.3684
-17.318
-11.3784
-7.59405
-5.23011
-3.73722
-2.78319
-2.19902
-70.0035
-41.7601
-26.4695
-17.4005
-11.4528
-7.66272
-5.2923
-3.79541
-2.84924
-2.28136
-70.1604
-70.2613
-70.3082
-70.3285
-70.3296
-70.3107
-70.2724
-70.2196
-70.1588
-70.0925
-41.757
-41.8589
-41.9291
-41.976
-42.0016
-42.0067
-41.9931
-41.9643
-41.9217
-41.8598
-26.4631
-26.5568
-26.6267
-26.6734
-26.6972
-26.7006
-26.6865
-26.6582
-26.6149
-26.5554
-17.4607
-17.5421
-17.5998
-17.6335
-17.6442
-17.6358
-17.6118
-17.5753
-17.5286
-17.472
-11.5944
-11.6619
-11.7048
-11.7237
-11.7206
-11.6996
-11.6646
-11.6201
-11.5701
-11.5153
-7.88252
-7.93664
-7.96591
-7.97165
-7.95624
-7.92359
-7.87824
-7.8257
-7.77179
-7.71731
-5.57936
-5.62166
-5.63928
-5.6338
-5.6075
-5.56436
-5.50912
-5.44847
-5.39008
-5.33529
-4.13214
-4.16466
-4.17287
-4.15837
-4.12315
-4.0711
-4.00666
-3.93814
-3.87575
-3.82212
-3.19755
-3.22284
-3.22453
-3.20411
-3.16315
-3.10513
-3.03346
-2.95774
-2.89162
-2.84759
-2.5833
-2.6007
-2.59611
-2.57082
-2.52596
-2.46417
-2.38711
-2.3031
-2.22404
-2.18984
-66.8463
-67.2808
-67.6758
-68.066
-68.4518
-68.8194
-69.1577
-69.4621
-69.7328
-69.9693
-38.8143
-39.1916
-39.5593
-39.9215
-40.2716
-40.6002
-40.9008
-41.1704
-41.4072
-41.6068
-23.877
-24.2183
-24.5579
-24.8875
-25.1982
-25.4845
-25.7436
-25.9739
-26.1728
-26.338
-15.1327
-15.4527
-15.7692
-16.0717
-16.352
-16.6071
-16.836
-17.0376
-17.2098
-17.3517
-9.45389
-9.75856
-10.0579
-10.3404
-10.599
-10.8324
-11.0403
-11.2218
-11.3752
-11.4999
-5.89601
-6.18917
-6.47551
-6.74163
-6.98244
-7.19836
-7.38937
-7.55439
-7.69199
-7.80175
-3.73201
-4.01734
-4.29282
-4.54262
-4.76609
-4.96573
-5.14128
-5.29137
-5.41473
-5.51099
-2.40607
-2.68681
-2.95333
-3.18726
-3.39455
-3.57946
-3.74122
-3.87823
-3.98933
-4.07415
-1.57362
-1.84918
-2.10798
-2.32913
-2.52317
-2.69538
-2.84515
-2.97103
-3.07199
-3.14763
-1.1113
-1.37415
-1.61046
-1.81393
-1.99118
-2.14612
-2.2795
-2.39063
-2.47859
-2.54291
0.979879
0.625724
-0.0537647
-1.25335
-3.32435
-6.79805
-12.3502
-20.846
-35.3074
-62.6261
0.836401
0.470031
-0.217721
-1.42234
-3.49535
-6.97012
-12.5256
-21.0311
-35.517
-62.8854
0.671147
0.290877
-0.406537
-1.61795
-3.69494
-7.1731
-12.7355
-21.2553
-35.7667
-63.1738
0.485395
0.0898976
-0.618227
-1.83782
-3.92033
-7.40355
-12.9756
-21.5148
-36.0595
-63.512
0.280358
-0.131173
-0.850589
-2.07938
-4.16856
-7.65802
-13.2413
-21.8039
-36.3904
-63.9
0.0577441
-0.369726
-1.10041
-2.33912
-4.43612
-7.93312
-13.5295
-22.1192
-36.7537
-64.3286
-0.180395
-0.622605
-1.36382
-2.61292
-4.71888
-8.22481
-13.8359
-22.4556
-37.1435
-64.7897
-0.427044
-0.881062
-1.63258
-2.89384
-5.01102
-8.52785
-14.1556
-22.8075
-37.5543
-65.2779
-0.675694
-1.13844
-1.90089
-3.17696
-5.30765
-8.83695
-14.482
-23.168
-37.98
-65.7906
-0.887611
-1.36442
-2.1544
-3.45543
-5.6039
-9.14772
-14.8104
-23.5296
-38.4086
-66.322
1.20189
0.925187
0.2834
-0.938115
-3.07089
-6.62335
-12.2502
-20.7926
-35.232
-62.3987
1.22596
0.937127
0.294391
-0.912938
-3.02322
-6.54952
-12.1464
-20.6527
-35.0499
-62.1844
1.28304
0.980643
0.330641
-0.874129
-2.9754
-6.48835
-12.0679
-20.5492
-34.9082
-61.9978
1.32232
1.01397
0.361934
-0.839223
-2.93378
-6.43822
-12.008
-20.4758
-34.8126
-61.8748
1.34114
1.02851
0.375068
-0.822152
-2.90963
-6.40601
-11.9682
-20.4304
-34.7611
-61.8188
1.34018
1.02308
0.36724
-0.827498
-2.90899
-6.39815
-11.9543
-20.4149
-34.7509
-61.8212
1.31702
0.994985
0.336138
-0.857365
-2.93437
-6.4179
-11.9703
-20.4328
-34.7817
-61.8765
1.2696
0.941721
0.279253
-0.91399
-2.98772
-6.4671
-12.0177
-20.486
-34.8547
-61.9843
1.19733
0.862311
0.195334
-0.99872
-3.07027
-6.54664
-12.097
-20.5739
-34.9697
-62.1467
1.10041
0.756637
0.0839715
-1.11223
-3.18291
-6.65744
-12.2085
-20.6959
-35.1245
-62.3646
1.33846
1.35631
1.21869
1.00952
0.754206
0.471786
0.172658
-0.135682
-0.447624
-0.757979
0.980884
0.975715
0.848968
0.6454
0.387805
0.0972806
-0.214141
-0.53748
-0.865965
-1.19334
0.295598
0.247941
0.110918
-0.0971921
-0.360799
-0.661152
-0.98575
-1.32454
-1.66969
-2.01388
-0.964952
-1.04687
-1.20103
-1.42
-1.69301
-2.00472
-2.34302
-2.69716
-3.05835
-3.41828
-3.13545
-3.24835
-3.42278
-3.65636
-3.94132
-4.26535
-4.61701
-4.98525
-5.36055
-5.73381
-6.72393
-6.86773
-7.06528
-7.3165
-7.61582
-7.95329
-8.31821
-8.69943
-9.08712
-9.47192
-12.3871
-12.5624
-12.7854
-13.0569
-13.3734
-13.7266
-14.1066
-14.5024
-14.9045
-15.3037
-20.9678
-21.1732
-21.422
-21.7169
-22.0559
-22.4316
-22.8347
-23.2553
-23.6837
-24.1097
-35.436
-35.6661
-35.9438
-36.274
-36.6524
-37.0712
-37.5217
-37.9946
-38.4778
-38.952
-62.5891
-62.8325
-63.1483
-63.5327
-63.9756
-64.4667
-64.9968
-65.5564
-66.1262
-66.666
-1.0605
-1.34609
-1.60303
-1.81561
-1.9661
-2.03835
-2.02318
-1.91927
-1.72202
-1.43392
-1.51224
-1.81232
-2.08113
-2.30254
-2.45942
-2.53769
-2.53065
-2.43408
-2.239
-1.97587
-2.3486
-2.66245
-2.9428
-3.17393
-3.34033
-3.43012
-3.4377
-3.35832
-3.18811
-2.96232
-3.76715
-4.09239
-4.38132
-4.61885
-4.7911
-4.88765
-4.90285
-4.83334
-4.68453
-4.49314
-6.09394
-6.42719
-6.72114
-6.96159
-7.13632
-7.23602
-7.25516
-7.19315
-7.06285
-6.89907
-9.84146
-10.1807
-10.4779
-10.7198
-10.8961
-10.9986
-11.0223
-10.9697
-10.8577
-10.7167
-15.6858
-16.0334
-16.3359
-16.5817
-16.762
-16.8695
-16.9013
-16.8623
-16.7707
-16.653
-24.5146
-24.8772
-25.1911
-25.4465
-25.6358
-25.7533
-25.7989
-25.7801
-25.715
-25.6255
-39.3884
-39.7726
-40.1035
-40.3737
-40.5753
-40.7047
-40.767
-40.7746
-40.7419
-40.6768
-67.1255
-67.5338
-67.8885
-68.1779
-68.3929
-68.533
-68.6092
-68.64
-68.6339
-68.5681
-68.4035
-40.572
-25.5203
-16.5277
-10.5733
-6.74032
-4.3185
-2.7757
-1.78844
-1.17778
-68.2314
-40.4423
-25.4019
-16.4027
-10.4395
-6.60119
-4.17955
-2.64447
-1.66838
-1.06178
-68.0846
-40.3203
-25.2919
-16.293
-10.3272
-6.48802
-4.06806
-2.53537
-1.55851
-0.953821
-67.973
-40.2217
-25.2016
-16.2063
-10.2427
-6.40705
-3.99204
-2.46395
-1.48897
-0.886402
-67.9002
-40.1535
-25.1384
-16.1475
-10.1879
-6.35674
-3.94671
-2.42272
-1.44972
-0.849905
-67.8695
-40.119
-25.1047
-16.118
-10.1631
-6.33727
-3.9324
-2.41242
-1.44135
-0.843466
-67.8858
-40.1208
-25.1012
-16.1169
-10.1668
-6.34608
-3.94602
-2.42955
-1.45997
-0.862999
-67.9531
-40.1607
-25.1276
-16.1426
-10.1965
-6.38073
-3.98494
-2.47122
-1.50237
-0.905091
-68.0657
-40.2376
-25.184
-16.1942
-10.2505
-6.43881
-4.04649
-2.53465
-1.56568
-0.966931
-68.1965
-40.3431
-25.2694
-16.2714
-10.3274
-6.5182
-4.12821
-2.61723
-1.64727
-1.04605
-0.0746326
-0.091488
0.0120454
0.024484
0.03362
0.0281474
0.0205517
0.0139479
0.00897282
0.00553992
0.00328194
0.00186243
0.00100768
0.000517954
0.00025166
0.000114632
5.04217e-05
2.25312e-05
8.79908e-06
5.31854e-06
-0.16794
-0.103949
0.00197485
0.0217214
0.0309667
0.0260019
0.0187692
0.0124656
0.00775939
0.00455975
0.00250659
0.0012603
0.000549346
0.000175089
5.52328e-06
-6.12155e-05
-6.50851e-05
-5.1735e-05
-3.19628e-05
-5.10687e-06
-0.273579
-0.122848
-0.0111422
0.0169353
0.0272723
0.02333
0.0167248
0.0108534
0.00648038
0.00354754
0.00171387
0.000648583
8.60614e-05
-0.00016834
-0.000243499
-0.000235443
-0.00018319
-0.000126056
-7.16908e-05
-1.64492e-05
-0.391595
-0.149115
-0.0273702
0.00994485
0.0225025
0.0201214
0.014416
0.00911188
0.00513757
0.0025033
0.000904808
2.83995e-05
-0.000381724
-0.000514315
-0.000493726
-0.000410656
-0.00030159
-0.000200522
-0.000111944
-2.78159e-05
-0.519609
-0.182412
-0.0464596
0.000684959
0.0166315
0.0163648
0.0118388
0.00724035
0.00373134
0.00142759
7.98086e-05
-0.000599925
-0.00085372
-0.000862486
-0.000744965
-0.000586516
-0.000420186
-0.000275097
-0.000152491
-3.92751e-05
-0.652105
-0.221981
-0.0681685
-0.010792
0.009676
0.0120718
0.00900085
0.00524371
0.0022648
0.000322334
-0.000759934
-0.00123564
-0.0013294
-0.00121241
-0.000996973
-0.000762689
-0.000538896
-0.000349737
-0.000193113
-5.09027e-05
-0.793476
-0.274438
-0.0948475
-0.0250599
0.00148428
0.00722227
0.00591218
0.00313507
0.000748275
-0.000805262
-0.00160969
-0.00187574
-0.00180688
-0.00156293
-0.00124907
-0.000938792
-0.000657519
-0.000424352
-0.000233786
-6.27066e-05
-0.978091
-0.357571
-0.132868
-0.0443495
-0.00885534
0.00147244
0.00245519
0.000879644
-0.000824787
-0.00195336
-0.00246597
-0.0025171
-0.00228385
-0.00191248
-0.00150025
-0.00111424
-0.000775746
-0.000498802
-0.000274465
-7.46905e-05
-1.20899
-0.462844
-0.179892
-0.0690391
-0.0222501
-0.00580692
-0.0017258
-0.00171359
-0.00255656
-0.00317743
-0.0033594
-0.00317683
-0.00276981
-0.00226629
-0.00175331
-0.00129044
-0.000894237
-0.000573362
-0.000315257
-8.69037e-05
-1.27793
-0.502739
-0.20245
-0.0866475
-0.0343358
-0.0132377
-0.00631342
-0.00466029
-0.00453905
-0.0045667
-0.00435821
-0.00390237
-0.00329605
-0.00264404
-0.00202005
-0.00147403
-0.00101642
-0.000649552
-0.000356751
-9.95409e-05
-1.06002
-0.453676
-0.179057
-0.0822334
-0.0367839
-0.0168694
-0.00976573
-0.00757401
-0.00687285
-0.00639183
-0.0057626
-0.0049655
-0.00408578
-0.00321775
-0.00242641
-0.00175268
-0.00120018
-0.000762524
-0.000417453
-0.000118062
-0.934025
-0.473666
-0.208357
-0.104266
-0.0538342
-0.028745
-0.0178176
-0.0131116
-0.0107424
-0.00913778
-0.00773319
-0.00638545
-0.00510571
-0.00394322
-0.00293466
-0.00210023
-0.0014301
-0.000904979
-0.000494289
-0.000141034
-0.773906
-0.452993
-0.225215
-0.122329
-0.07062
-0.0418061
-0.0270891
-0.0196054
-0.0153037
-0.0123603
-0.0100239
-0.00801838
-0.00626708
-0.00476275
-0.00350555
-0.00248936
-0.00168715
-0.00106432
-0.000580196
-0.000166704
-0.636752
-0.421274
-0.236427
-0.13755
-0.085766
-0.0548284
-0.0369464
-0.0267704
-0.0204628
-0.0160581
-0.0126687
-0.00990546
-0.00760654
-0.00570478
-0.00415917
-0.00293323
-0.00197927
-0.00124489
-0.000677218
-0.000195731
-0.516759
-0.376262
-0.237333
-0.149128
-0.0990228
-0.0673865
-0.0471573
-0.0344937
-0.02616
-0.0202027
-0.0156537
-0.0120385
-0.00911807
-0.00676446
-0.00489167
-0.00342895
-0.00230444
-0.00144542
-0.000784612
-0.000227806
-0.411688
-0.324901
-0.22782
-0.155426
-0.109381
-0.0785087
-0.0570629
-0.0424129
-0.0321916
-0.0246771
-0.0189104
-0.0143746
-0.0107733
-0.00792216
-0.00568935
-0.00396713
-0.00265642
-0.00166203
-0.000900242
-0.000262223
-0.323168
-0.273074
-0.21004
-0.155532
-0.115977
-0.0872938
-0.0658473
-0.0499718
-0.0382035
-0.0292557
-0.0222949
-0.0168211
-0.0125106
-0.00913645
-0.00652413
-0.00452891
-0.00302287
-0.0018871
-0.00101998
-0.000297714
-0.252527
-0.226068
-0.188183
-0.150322
-0.118634
-0.0932566
-0.0728195
-0.0565365
-0.0437122
-0.0335878
-0.0255604
-0.0192073
-0.0142132
-0.0103277
-0.00734218
-0.00507846
-0.00338058
-0.00210639
-0.00113626
-0.000332017
-0.201421
-0.188939
-0.167589
-0.14258
-0.118259
-0.0964895
-0.0775742
-0.061495
-0.0481258
-0.0371819
-0.0283281
-0.0212555
-0.0156843
-0.0113596
-0.00805107
-0.00555432
-0.00368993
-0.00229577
-0.00123634
-0.000361388
-0.172748
-0.166927
-0.154129
-0.136469
-0.116902
-0.0977111
-0.080028
-0.0643133
-0.050767
-0.0393984
-0.0300667
-0.022557
-0.0166254
-0.0120221
-0.00850687
-0.00586045
-0.0038889
-0.00241751
-0.00130035
-0.00038002
-1.91404
-1.90778
-1.88348
-1.84202
-1.78392
-1.71024
-1.62001
-1.5164
-1.39238
-1.30095
-1.39244
-1.38376
-1.36379
-1.33372
-1.2947
-1.24825
-1.19555
-1.14047
-1.08221
-1.04377
-1.05311
-1.0498
-1.04048
-1.02603
-1.00718
-0.98457
-0.958375
-0.928929
-0.894116
-0.862537
-0.787435
-0.788843
-0.786289
-0.780124
-0.770623
-0.758052
-0.742666
-0.72503
-0.705344
-0.689138
-0.582161
-0.586578
-0.588326
-0.587665
-0.584867
-0.580212
-0.573968
-0.566415
-0.557551
-0.549768
-0.425781
-0.432105
-0.436579
-0.43935
-0.440567
-0.440373
-0.438902
-0.43629
-0.432635
-0.429147
-0.308683
-0.315823
-0.321575
-0.326016
-0.329238
-0.331332
-0.332399
-0.332537
-0.331842
-0.330811
-0.223891
-0.231225
-0.237458
-0.242631
-0.246801
-0.25002
-0.252358
-0.253879
-0.254658
-0.254883
-0.166793
-0.174001
-0.180278
-0.18565
-0.190149
-0.193807
-0.196687
-0.19883
-0.200293
-0.201151
-0.136564
-0.143537
-0.149678
-0.155004
-0.15954
-0.163313
-0.16636
-0.168717
-0.170424
-0.17152
-0.965881
-1.16526
-1.29405
-1.42829
-1.55314
-1.6587
-1.74634
-1.81664
-1.86855
-1.90118
-0.776987
-0.922856
-0.995147
-1.07582
-1.16235
-1.23638
-1.29477
-1.33948
-1.37084
-1.38846
-0.611995
-0.731707
-0.784542
-0.836682
-0.896379
-0.948856
-0.988632
-1.01763
-1.03768
-1.04936
-0.468694
-0.562013
-0.599413
-0.63142
-0.670089
-0.706358
-0.734696
-0.755735
-0.771155
-0.78165
-0.344233
-0.410468
-0.437602
-0.459277
-0.485639
-0.511859
-0.533731
-0.550956
-0.564485
-0.574843
-0.237269
-0.281656
-0.303207
-0.321108
-0.341406
-0.361735
-0.379617
-0.394608
-0.407125
-0.417482
-0.151793
-0.181981
-0.200284
-0.216425
-0.233364
-0.249995
-0.265104
-0.278396
-0.290015
-0.300094
-0.0885695
-0.110313
-0.126333
-0.141039
-0.155735
-0.169938
-0.183099
-0.195051
-0.205816
-0.215426
-0.0459369
-0.0629359
-0.0774033
-0.0909668
-0.104152
-0.116779
-0.128611
-0.139547
-0.149561
-0.158646
-0.0233346
-0.0383024
-0.0520623
-0.0650338
-0.0774392
-0.0892339
-0.100314
-0.110612
-0.120096
-0.12875
0.726501
0.727368
0.727957
0.726654
0.72012
0.700639
0.656237
0.552208
0.328299
-0.261913
0.69424
0.693328
0.6905
0.683434
0.668176
0.635885
0.57431
0.445509
0.203757
-0.312641
0.656903
0.65432
0.648055
0.635347
0.611928
0.56905
0.495677
0.361021
0.136764
-0.235832
0.614427
0.610179
0.600506
0.582567
0.552059
0.501625
0.421752
0.295007
0.098881
-0.172289
0.567409
0.561671
0.549029
0.526872
0.491224
0.436899
0.356013
0.242241
0.0747555
-0.132614
0.517298
0.510437
0.495659
0.470785
0.432556
0.37782
0.300739
0.200756
0.0627076
-0.0964339
0.46662
0.459129
0.443274
0.41738
0.379123
0.326792
0.256937
0.171042
0.0615741
-0.0587421
0.419131
0.41152
0.395618
0.370214
0.333867
0.285801
0.224642
0.15223
0.0665392
-0.024759
0.379924
0.372563
0.357306
0.333283
0.299691
0.256317
0.203074
0.14165
0.0727072
0.000894393
0.355694
0.348646
0.334091
0.311338
0.27991
0.239864
0.191665
0.13686
0.0770295
0.0155061
0.883638
0.89091
0.906474
0.931541
0.967033
1.01559
1.07378
1.16404
1.21134
1.42092
0.870712
0.877492
0.891819
0.914846
0.947051
0.99088
1.04096
1.1207
1.14359
1.32754
0.857135
0.863406
0.876442
0.897305
0.926027
0.964645
1.00605
1.07337
1.06947
1.22016
0.842975
0.848726
0.860434
0.879021
0.904094
0.937043
0.969353
1.02228
0.990005
1.09933
0.828303
0.833529
0.843885
0.860103
0.881391
0.908246
0.931159
0.967696
0.906382
0.965161
0.813191
0.817893
0.826889
0.840666
0.858053
0.878439
0.89176
0.909865
0.819914
0.817066
0.797714
0.801909
0.809555
0.820839
0.834235
0.847842
0.851438
0.849105
0.731967
0.653748
0.781952
0.785688
0.792031
0.800808
0.810144
0.816743
0.81047
0.785741
0.643669
0.473196
0.765961
0.769282
0.774376
0.780635
0.785819
0.785194
0.768744
0.719626
0.554847
0.273056
0.749716
0.752424
0.756075
0.759595
0.760332
0.752193
0.724988
0.650991
0.463626
0.0454583
0.9677
0.97824
1.00113
1.03809
1.09165
1.16234
1.25631
1.3607
1.47443
1.46397
0.963259
0.973695
0.996467
1.03321
1.08664
1.15731
1.25167
1.35819
1.46933
1.4968
0.957938
0.968136
0.990437
1.02636
1.07866
1.14803
1.24111
1.35077
1.46968
1.56754
0.951729
0.961667
0.983446
1.0185
1.06959
1.13769
1.22937
1.34217
1.4656
1.61564
0.944623
0.954279
0.975475
1.00958
1.05932
1.12598
1.21565
1.33027
1.45337
1.64009
0.936616
0.945956
0.966468
0.999475
1.04758
1.11239
1.19912
1.314
1.43329
1.64695
0.927713
0.936702
0.95642
0.988159
1.03431
1.09683
1.17966
1.29321
1.40536
1.63655
0.917932
0.926535
0.945354
0.975662
1.01957
1.07933
1.15731
1.26782
1.3692
1.60824
0.907299
0.915486
0.933308
0.962023
1.00339
1.05991
1.13214
1.23778
1.32465
1.56227
0.895852
0.903595
0.920327
0.947293
0.985848
1.03864
1.10424
1.20314
1.27189
1.49947
0.882535
0.8782
0.86912
0.85447
0.833057
0.803549
0.764415
0.71453
0.652522
0.578959
0.897095
0.893694
0.886411
0.87426
0.855737
0.829046
0.791862
0.742183
0.677127
0.596578
0.918033
0.916273
0.912205
0.90471
0.891912
0.871319
0.839362
0.792165
0.724162
0.632487
0.939215
0.939597
0.939825
0.93881
0.934487
0.923691
0.90173
0.861583
0.794904
0.690476
0.956888
0.959632
0.964713
0.971289
0.977478
0.979716
0.973017
0.946087
0.889799
0.774391
0.96935
0.974385
0.984285
0.998654
1.01619
1.03341
1.04626
1.039
1.00515
0.885175
0.976372
0.983406
0.997616
1.01917
1.0476
1.08009
1.11462
1.13276
1.13268
1.018
0.978594
0.98722
1.00497
1.03258
1.0705
1.11691
1.17255
1.22006
1.26366
1.16652
0.977033
0.986807
1.00723
1.03951
1.08494
1.14271
1.21599
1.29232
1.38903
1.34201
0.972757
0.983172
1.00531
1.04072
1.09136
1.15728
1.24318
1.33989
1.48009
1.53921
0.525118
0.502558
0.479615
0.456602
0.433518
0.410401
0.387367
0.364561
0.342117
0.320156
0.534787
0.508605
0.481914
0.455359
0.428794
0.40214
0.375526
0.34916
0.323236
0.297918
0.556393
0.52239
0.487193
0.452784
0.418793
0.384804
0.350902
0.317413
0.284646
0.252835
0.595881
0.549511
0.499597
0.451544
0.404912
0.358526
0.312272
0.266688
0.222325
0.179561
0.662947
0.599625
0.526201
0.456012
0.389175
0.322945
0.256714
0.191452
0.128213
0.0676609
0.770303
0.686554
0.578307
0.474727
0.377214
0.280071
0.182056
0.0850923
-0.00889207
-0.0986751
0.927354
0.821655
0.668403
0.521606
0.382394
0.241174
0.0971572
-0.0462249
-0.186192
-0.320819
1.13864
1.01168
0.81617
0.629728
0.447754
0.259972
0.0683027
-0.123024
-0.311311
-0.4944
1.43816
1.3123
1.10919
0.903869
0.68991
0.465104
0.234402
0.00172732
-0.230328
-0.459336
1.74572
1.64489
1.45031
1.22159
0.967489
0.696813
0.416452
0.131221
-0.155168
-0.439222
0.298789
0.278115
0.258219
0.239174
0.221034
0.203849
0.187646
0.17244
0.158238
0.145036
0.273351
0.249664
0.226969
0.205358
0.184906
0.165659
0.147653
0.1309
0.115398
0.101113
0.22217
0.192811
0.164897
0.138537
0.11381
0.0907605
0.0694155
0.0497767
0.0318419
0.015436
0.138668
0.0998703
0.0633624
0.0292989
-0.00220169
-0.0311072
-0.0573886
-0.0810875
-0.102154
-0.121447
0.0102317
-0.0437209
-0.0938943
-0.140044
-0.181985
-0.219574
-0.252692
-0.281368
-0.305178
-0.327146
-0.183321
-0.261974
-0.333898
-0.398512
-0.455382
-0.50416
-0.544458
-0.575956
-0.597456
-0.613862
-0.44824
-0.566392
-0.673213
-0.766703
-0.844971
-0.906237
-0.948748
-0.97077
-0.971894
-0.946557
-0.66979
-0.834311
-0.98427
-1.1152
-1.22176
-1.29776
-1.33699
-1.33714
-1.29849
-1.17903
-0.682369
-0.895186
-1.09199
-1.26456
-1.40208
-1.49212
-1.52743
-1.51611
-1.45245
-1.2464
-0.716595
-0.980828
-1.22307
-1.43102
-1.58951
-1.68232
-1.70047
-1.65828
-1.56848
-1.32762
0.115094
0.0797618
0.0563744
0.0436165
0.0377298
0.0349269
0.0328807
0.0305717
0.0276714
0.0242295
0.0204982
0.0167687
0.013277
0.0101776
0.00754619
0.00539296
0.00368089
0.00233613
0.00127484
0.000376162
0.0683712
0.0385649
0.0260216
0.0240369
0.0260018
0.0281172
0.0290194
0.0283869
0.0263386
0.0232959
0.0197633
0.016158
0.0127685
0.00976557
0.0072256
0.00515524
0.00351429
0.00222873
0.00121651
0.000359
-0.0211987
-0.0352277
-0.0239013
-0.00564621
0.00924423
0.0187694
0.0239116
0.0255528
0.0245648
0.021984
0.01868
0.0152311
0.0119854
0.00912728
0.00672794
0.00478597
0.00325549
0.00206193
0.00112544
0.000332076
-0.157095
-0.13512
-0.0835388
-0.0372044
-0.00710748
0.0102246
0.0195327
0.0231542
0.0229368
0.0206431
0.0174871
0.0141709
0.011076
0.00838294
0.00614761
0.00435604
0.00295461
0.00186817
0.0010194
0.000300663
-0.334961
-0.248214
-0.143051
-0.064475
-0.0195341
0.00445642
0.0168956
0.0216497
0.0216814
0.0194185
0.0162996
0.0130779
0.0101286
0.00760684
0.00554396
0.0039102
0.00264332
0.00166802
0.000909683
0.00026811
-0.513177
-0.350803
-0.194114
-0.0837701
-0.0263234
0.00220162
0.0161796
0.0210282
0.0207894
0.0183309
0.015159
0.0120032
0.00919369
0.00684333
0.00495268
0.00347533
0.0023406
0.00147379
0.000803094
0.000236447
-0.603006
-0.415651
-0.227386
-0.0925705
-0.0272826
0.00318594
0.016998
0.0210281
0.0201423
0.0173451
0.0140729
0.010972
0.00830006
0.00611804
0.00439429
0.00306667
0.00205708
0.00129232
0.000703433
0.000206822
-0.557706
-0.430052
-0.22782
-0.0880384
-0.0229828
0.00664878
0.0188193
0.0214041
0.0196583
0.0164533
0.0130629
0.0100127
0.00747301
0.0054507
0.00388298
0.0026939
0.00179908
0.00112744
0.000612801
0.00017989
-0.489929
-0.403704
-0.192411
-0.0725604
-0.0148045
0.0118495
0.0213635
0.0221217
0.0193732
0.0157044
0.0121734
0.00915876
0.00673568
0.00485628
0.00342807
0.00236254
0.00156981
0.000980923
0.000532115
0.000155973
-0.403036
-0.328901
-0.135943
-0.0532531
-0.00529571
0.0170785
0.0235304
0.0224776
0.0188335
0.0148118
0.0112237
0.00829619
0.00601629
0.00429016
0.00300246
0.0020567
0.00136041
0.00084823
0.000459348
0.000134423
-0.104013
-0.194395
-0.0660197
-0.0313846
0.000811245
0.0169349
0.0214924
0.0202016
0.0168097
0.0131456
0.0099058
0.00728452
0.00525996
0.00373939
0.00261205
0.0017888
0.00118373
0.000739668
0.000400852
0.000116778
0.0382016
-0.146205
-0.0316005
-0.0164365
0.00947941
0.020867
0.0227915
0.0202436
0.0163314
0.0125159
0.0092938
0.00675818
0.00483739
0.00341608
0.00237419
0.0016205
0.00106978
0.000667879
0.000361402
0.000104859
0.121629
-0.128271
-0.0135099
-0.00616004
0.017462
0.0250217
0.0243745
0.0204883
0.0159901
0.0119827
0.00875134
0.00628118
0.00444854
0.00311467
0.00214966
0.00145972
0.000959685
0.000597822
0.000322705
9.33553e-05
0.172438
-0.114783
-0.000682888
0.00144101
0.023267
0.0277622
0.0251711
0.0203298
0.0154497
0.011353
0.00816207
0.00578136
0.00404845
0.00280765
0.00192227
0.00129744
0.000848828
0.000527409
0.00028392
8.20108e-05
0.193947
-0.103058
0.0100534
0.00817326
0.027765
0.0295488
0.02542
0.0198842
0.0147618
0.010646
0.0075309
0.00525796
0.00363476
0.00249273
0.00169035
0.00113263
0.000736654
0.000456397
0.000244949
7.07753e-05
0.191515
-0.0939284
0.0179451
0.014088
0.0313303
0.0307391
0.0253432
0.0192699
0.0139871
0.00989345
0.00687491
0.00472052
0.00321291
0.00217302
0.00145566
0.000966237
0.00062365
0.000385006
0.000205874
5.96532e-05
0.169061
-0.0872271
0.0227042
0.0189001
0.0338964
0.0313602
0.024969
0.0185033
0.013135
0.00910093
0.00619764
0.0041714
0.00278449
0.00184958
0.00121883
0.000798646
0.000510024
0.000313339
0.000166725
4.86332e-05
0.12962
-0.0830092
0.0244611
0.0224682
0.0353993
0.0313936
0.0242912
0.0175817
0.0122044
0.00826784
0.00549879
0.00361049
0.0023495
0.00152246
0.000979964
0.000629906
0.000395812
0.000241409
0.000127494
3.76944e-05
0.0750445
-0.081812
0.0232809
0.024687
0.0358429
0.0308547
0.0233202
0.0165105
0.0111978
0.00739547
0.00477902
0.00303815
0.00190812
0.00119176
0.000738986
0.00046008
0.000280897
0.000169113
8.83063e-05
2.67286e-05
0.00659271
-0.0843801
0.0191479
0.0254151
0.0352463
0.0297672
0.0220703
0.0152975
0.0101193
0.00648591
0.0040395
0.00245508
0.0014607
0.000857701
0.000495884
0.000289252
0.000165162
9.63249e-05
4.92842e-05
1.56274e-05
)
;

boundaryField
{
    inlet
    {
        type            freestreamPressure;
        freestreamValue uniform 0;
        supersonic      false;
        value           nonuniform List<scalar> 
40
(
0.726501
0.69424
0.656903
0.614427
0.567409
0.517298
0.46662
0.419131
0.379924
0.355694
0.883638
0.870712
0.857135
0.842975
0.828303
0.813191
0.797714
0.781952
0.765961
0.749716
0.9677
0.963259
0.957938
0.951729
0.944623
0.936616
0.927713
0.917932
0.907299
0.895852
0.882535
0.897095
0.918033
0.939215
0.956888
0.96935
0.976372
0.978594
0.977033
0.972757
)
;
    }
    outlet
    {
        type            freestreamPressure;
        freestreamValue uniform 0;
        supersonic      false;
        value           nonuniform List<scalar> 
40
(
-1.12195e-11
-1.25481e-11
-1.35697e-11
-1.41513e-11
-1.40027e-11
-1.28423e-11
-1.05023e-11
-7.09352e-12
-3.2639e-12
-4.25828e-13
5.9366e-13
-5.6535e-13
-1.80355e-12
-3.01487e-12
-4.20242e-12
-5.36934e-12
-6.51158e-12
-7.62512e-12
-8.71027e-12
-9.7766e-12
1.31637e-11
1.1894e-11
1.06335e-11
9.36695e-12
8.09418e-12
6.8209e-12
5.55162e-12
4.2896e-12
3.02793e-12
1.75856e-12
6.82096e-13
5.12011e-12
1.07879e-11
1.54476e-11
1.83027e-11
1.94208e-11
1.92142e-11
1.8162e-11
1.66806e-11
1.49464e-11
)
;
    }
    top
    {
        type            symmetryPlane;
    }
    bottom
    {
        type            symmetryPlane;
    }
    cylinder
    {
        type            zeroGradient;
    }
    frontandback
    {
        type            empty;
    }
}


// ************************************************************************* //
