/*--------------------------------*- C++ -*----------------------------------*\
  =========                 |
  \\      /  F ield         | OpenFOAM: The Open Source CFD Toolbox
   \\    /   O peration     | Website:  https://openfoam.org
    \\  /    A nd           | Version:  6.0
     \\/     M anipulation  |
\*---------------------------------------------------------------------------*/
FoamFile
{
    version     2.0;
    format      ascii;
    class       surfaceScalarField;
    location    "24.25";
    object      phi;
}
// * * * * * * * * * * * * * * * * * * * * * * * * * * * * * * * * * * * * * //

dimensions      [0 3 -1 0 0 0 0];

internalField   nonuniform List<scalar> 
38030
(
8.52414e-05
-0.159922
0.159837
0.000377527
-0.150286
0.149993
0.00083999
-0.143181
0.142719
0.00143805
-0.13787
0.137271
0.00214115
-0.133806
0.133103
0.0029216
-0.130581
0.1298
0.00375525
-0.127899
0.127065
0.00462171
-0.125554
0.124688
0.00550421
-0.123406
0.122523
0.00638942
-0.121359
0.120474
0.00726702
-0.119355
0.118478
0.00812939
-0.11736
0.116497
0.00897116
-0.115354
0.114512
0.00978886
-0.113331
0.112513
0.0105806
-0.111292
0.1105
0.0113455
-0.109242
0.108477
0.012084
-0.107189
0.10645
0.0127969
-0.105142
0.104429
0.0134857
-0.103109
0.10242
0.0141522
-0.101099
0.100432
0.0147985
-0.0991185
0.0984722
0.0154266
-0.0971744
0.0965462
0.0160389
-0.0952708
0.0946585
0.0166375
-0.0934105
0.0928119
0.0172246
-0.0915946
0.0910075
0.0178023
-0.0898222
0.0892446
0.0183723
-0.0880906
0.0875206
0.0189359
-0.0863948
0.0858312
0.0194941
-0.0847277
0.0841695
-0.0830794
0.0825265
0.020047
9.70772e-05
-0.160019
0.000393772
-0.150582
0.000860063
-0.143647
0.00146173
-0.138471
0.00216746
-0.134512
0.00294919
-0.131362
0.00378252
-0.128732
0.00464693
-0.126419
0.0055257
-0.124284
0.00640557
-0.122239
0.00727641
-0.120226
0.00813078
-0.118214
0.00896356
-0.116186
0.00977148
-0.114139
0.0105528
-0.112073
0.0113071
-0.109996
0.0120347
-0.107916
0.0127367
-0.105844
0.0134147
-0.103787
0.0140705
-0.101754
0.0147063
-0.0997543
0.0153243
-0.0977924
0.0159268
-0.0958733
0.0165161
-0.0939998
0.0170943
-0.0921728
0.0176636
-0.0903915
0.0182256
-0.0886527
0.018782
-0.0869512
0.0193337
-0.0852793
-0.0836266
0.0198809
0.000104707
-0.160124
0.000406952
-0.150885
0.000877556
-0.144118
0.00148286
-0.139076
0.00219105
-0.13522
0.00297369
-0.132145
0.00380619
-0.129565
0.00466797
-0.12728
0.00554236
-0.125159
0.00641624
-0.123113
0.00727965
-0.12109
0.0081254
-0.11906
0.00894858
-0.11701
0.00974618
-0.114936
0.0105167
-0.112844
0.0112598
-0.110739
0.0119761
-0.108633
0.0126668
-0.106534
0.0133335
-0.104453
0.0139783
-0.102399
0.0146034
-0.100379
0.015211
-0.0984
0.0158035
-0.0964658
0.0163831
-0.0945794
0.0169522
-0.0927419
0.0175128
-0.0909521
0.0180668
-0.0892066
0.0186156
-0.0875001
0.0191605
-0.0858242
-0.0841678
0.0197017
0.00010936
-0.160233
0.000417189
-0.151193
0.000892517
-0.144593
0.00150148
-0.139685
0.00221191
-0.13593
0.00299505
-0.132928
0.00382618
-0.130396
0.00468474
-0.128139
0.00555411
-0.126028
0.00642135
-0.12398
0.00727672
-0.121945
0.00811324
-0.119896
0.00892626
-0.117823
0.009713
-0.115723
0.0104722
-0.113603
0.0112037
-0.111471
0.0119083
-0.109337
0.0125873
-0.107213
0.0132425
-0.105109
0.013876
-0.103033
0.01449
-0.100993
0.015087
-0.0989969
0.0156692
-0.097048
0.016239
-0.0951492
0.0167987
-0.0933016
0.0173504
-0.0915037
0.017896
-0.0897522
0.0184371
-0.0880412
0.0189749
-0.086362
-0.0847029
0.01951
0.000112766
-0.160346
0.0004256
-0.151505
0.000905481
-0.145073
0.00151786
-0.140298
0.00223013
-0.136643
0.0030133
-0.133711
0.00384252
-0.131225
0.00469725
-0.128994
0.00556098
-0.126892
0.00642095
-0.12484
0.00726766
-0.122792
0.00809437
-0.120723
0.00889668
-0.118625
0.00967206
-0.116498
0.0104195
-0.11435
0.0111389
-0.11219
0.0118314
-0.11003
0.0124984
-0.10788
0.0131418
-0.105752
0.0137637
-0.103655
0.0143665
-0.101596
0.0149526
-0.099583
0.0155243
-0.0976197
0.016084
-0.095709
0.0166341
-0.0938516
0.0171766
-0.0920463
0.0177136
-0.0902893
0.0182468
-0.0885744
0.0187774
-0.0868926
-0.0852315
0.0193061
0.00011551
-0.160462
0.000432749
-0.151823
0.000916789
-0.145557
0.00153218
-0.140913
0.00224585
-0.137356
0.00302851
-0.134494
0.00385525
-0.132052
0.00470553
-0.129844
0.005563
-0.127749
0.00641509
-0.125692
0.00725254
-0.123629
0.00806887
-0.121539
0.00885995
-0.119416
0.00962349
-0.117262
0.0103587
-0.115085
0.0110657
-0.112897
0.0117457
-0.11071
0.0124004
-0.108535
0.0130316
-0.106383
0.0136417
-0.104265
0.014233
-0.102188
0.014808
-0.100158
0.015369
-0.0981807
0.0159184
-0.0962584
0.0164586
-0.0943919
0.0169919
-0.0925795
0.0175201
-0.0908175
0.0180452
-0.0890995
0.0185683
-0.0874158
-0.0857536
0.0190904
0.000117855
-0.16058
0.000438973
-0.152144
0.000926695
-0.146045
0.00154463
-0.141531
0.00225917
-0.138071
0.00304077
-0.135276
0.00386442
-0.132875
0.00470964
-0.130689
0.00556023
-0.1286
0.00640383
-0.126536
0.00723144
-0.124457
0.00803686
-0.122345
0.0088162
-0.120195
0.00956743
-0.118013
0.0102899
-0.115808
0.0109842
-0.113592
0.0116514
-0.111377
0.0122934
-0.109177
0.0129123
-0.107002
0.0135103
-0.104863
0.0140899
-0.102767
0.0146535
-0.100722
0.0152036
-0.0987308
0.0157425
-0.0967974
0.0162727
-0.094922
0.0167964
-0.0931032
0.0173157
-0.0913368
0.0178324
-0.0896161
0.0183479
-0.0879313
-0.0862689
0.0188632
0.00011992
-0.160699
0.000444462
-0.152468
0.000935376
-0.146536
0.00155533
-0.142151
0.0022702
-0.138786
0.00305016
-0.136055
0.00387011
-0.133695
0.00470965
-0.131529
0.00555275
-0.129443
0.00638727
-0.12737
0.00720448
-0.125274
0.00799844
-0.123139
0.00876555
-0.120962
0.00950402
-0.118752
0.0102135
-0.116517
0.0108946
-0.114273
0.0115487
-0.112031
0.0121778
-0.109806
0.012784
-0.107608
0.0133697
-0.105448
0.0139373
-0.103335
0.0144894
-0.101274
0.0150284
-0.0992697
0.0155566
-0.0973256
0.0160766
-0.095442
0.0165905
-0.0936171
0.0171006
-0.0918469
0.0176088
-0.0901243
0.0181165
-0.088439
-0.0867773
0.0186249
0.00012177
-0.160821
0.000449324
-0.152796
0.000942948
-0.14703
0.0015644
-0.142773
0.00227903
-0.1395
0.00305676
-0.136833
0.00387241
-0.134511
0.00470566
-0.132362
0.00554065
-0.130278
0.00636551
-0.128195
0.00717176
-0.12608
0.00795375
-0.123921
0.00870815
-0.121717
0.00943344
-0.119477
0.0101295
-0.117213
0.0107971
-0.11494
0.0114378
-0.112672
0.0120536
-0.110422
0.0126469
-0.108202
0.0132201
-0.106022
0.0137756
-0.10389
0.0143159
-0.101814
0.0148436
-0.0997974
0.015361
-0.097843
0.0158705
-0.0959515
0.0163745
-0.0941211
0.0168752
-0.0923476
0.0173746
-0.0906237
0.0178744
-0.0889388
-0.0872786
0.0183757
0.000123433
-0.160945
0.000453631
-0.153126
0.000949496
-0.147525
0.00157193
-0.143395
0.00228577
-0.140214
0.00306066
-0.137608
0.0038714
-0.135322
0.00469775
-0.133188
0.00552405
-0.131104
0.00633866
-0.12901
0.00713341
-0.126875
0.00790293
-0.12469
0.00864418
-0.122458
0.00935587
-0.120189
0.0100381
-0.117896
0.0106918
-0.115594
0.0113188
-0.113299
0.0119212
-0.111024
0.0125014
-0.108782
0.0130618
-0.106582
0.0136049
-0.104433
0.0141333
-0.102342
0.0146495
-0.100313
0.0151558
-0.0983493
0.0156547
-0.0964504
0.0161486
-0.094615
0.0166397
-0.0928387
0.0171301
-0.0911142
0.0176217
-0.0894304
-0.0877726
0.0181157
0.000124931
-0.16107
0.000457422
-0.153459
0.000955083
-0.148023
0.00157799
-0.144018
0.00229047
-0.140927
0.00306195
-0.13838
0.00386718
-0.136127
0.00468603
-0.134007
0.00550304
-0.131921
0.00630686
-0.129814
0.00708958
-0.127658
0.00784616
-0.125447
0.0085738
-0.123186
0.00927148
-0.120886
0.00993951
-0.118564
0.0105791
-0.116234
0.0111921
-0.113912
0.0117808
-0.111613
0.0123475
-0.109348
0.012895
-0.107129
0.0134256
-0.104964
0.0139418
-0.102859
0.0144463
-0.100818
0.0149413
-0.0988444
0.0154293
-0.0969385
0.0159129
-0.0950985
0.0163942
-0.09332
0.0168755
-0.0915955
0.0173587
-0.0899136
-0.0882592
0.0178452
0.000126276
-0.161196
0.000460729
-0.153793
0.000959758
-0.148522
0.00158265
-0.144641
0.00229324
-0.141637
0.00306073
-0.139147
0.00385985
-0.136926
0.00467061
-0.134818
0.00547776
-0.132728
0.00627024
-0.130606
0.00704043
-0.128428
0.00778358
-0.12619
0.00849719
-0.123899
0.00918049
-0.12157
0.00983399
-0.119217
0.0104591
-0.116859
0.0110578
-0.114511
0.0116325
-0.112187
0.0121856
-0.109902
0.0127199
-0.107664
0.0132377
-0.105482
0.0137416
-0.103363
0.0142341
-0.10131
0.0147177
-0.0993279
0.0151947
-0.0974155
0.0156676
-0.0955714
0.0161388
-0.0937913
0.0166107
-0.0920674
0.0170853
-0.0903882
-0.0887381
0.0175643
0.000127469
-0.161323
0.000463576
-0.154129
0.000963567
-0.149022
0.00158596
-0.145263
0.00229414
-0.142345
0.00305708
-0.13991
0.00384953
-0.137718
0.00465161
-0.13562
0.00544836
-0.133525
0.00622896
-0.131387
0.00698613
-0.129185
0.00771541
-0.126919
0.00841457
-0.124599
0.0090831
-0.122238
0.00972173
-0.119856
0.0103321
-0.117469
0.0109162
-0.115095
0.0114766
-0.112748
0.0120159
-0.110441
0.0125367
-0.108184
0.0130415
-0.105987
0.0135329
-0.103854
0.0140133
-0.101791
0.0144851
-0.0997997
0.0149508
-0.0978812
0.0154128
-0.0960335
0.0158737
-0.0942522
0.016336
-0.0925296
0.0168017
-0.090854
-0.0892092
0.0172728
0.000128518
-0.161452
0.00046598
-0.154467
0.000966555
-0.149523
0.00158801
-0.145885
0.00229326
-0.143051
0.00305112
-0.140668
0.00383632
-0.138504
0.00462918
-0.136413
0.00541497
-0.134311
0.0061832
-0.132155
0.00692687
-0.129929
0.00764183
-0.127634
0.00832614
-0.125283
0.00897955
-0.122892
0.00960298
-0.120479
0.0101982
-0.118064
0.0107675
-0.115664
0.0113134
-0.113294
0.0118386
-0.110966
0.0123457
-0.108692
0.0128373
-0.106478
0.0133159
-0.104333
0.0137839
-0.102259
0.0142437
-0.100259
0.0146978
-0.0983352
0.0151486
-0.0964843
0.0155989
-0.0947024
0.0160512
-0.0929819
0.0165078
-0.0913106
-0.0896722
0.0169708
0.000129421
-0.161581
0.000467964
-0.154805
0.000968767
-0.150023
0.00158886
-0.146505
0.00229071
-0.143752
0.00304294
-0.14142
0.00382036
-0.139281
0.00460346
-0.137196
0.00537777
-0.135085
0.00613312
-0.13291
0.00686284
-0.130658
0.00756307
-0.128334
0.00823215
-0.125952
0.00887008
-0.123529
0.00947799
-0.121087
0.0100578
-0.118644
0.010612
-0.116218
0.0111431
-0.113825
0.011654
-0.111477
0.0121472
-0.109185
0.0126253
-0.106956
0.0130908
-0.104798
0.0135462
-0.102714
0.0139937
-0.100707
0.0144358
-0.0987774
0.0148751
-0.0969237
0.0153144
-0.0951417
0.0157563
-0.0934238
0.0162034
-0.0917577
-0.0901269
0.0166581
0.000130183
-0.161711
0.000469551
-0.155144
0.000970259
-0.150524
0.00158859
-0.147123
0.00228657
-0.14445
0.00303268
-0.142166
0.00380179
-0.14005
0.0045746
-0.137969
0.00533694
-0.135848
0.00607895
-0.133652
0.00679427
-0.131374
0.00747936
-0.12902
0.00813285
-0.126605
0.00875495
-0.124152
0.00934703
-0.121679
0.00991118
-0.119208
0.0104499
-0.116757
0.010966
-0.114341
0.0114622
-0.111973
0.0119413
-0.109664
0.0124057
-0.107421
0.0128579
-0.10525
0.0133002
-0.103156
0.0137351
-0.101142
0.0141649
-0.0992072
0.0145923
-0.097351
0.0150201
-0.0955694
0.0154511
-0.0938548
0.0158884
-0.092195
-0.0905728
0.0163343
0.000130803
-0.161842
0.000470769
-0.155484
0.000971097
-0.151024
0.0015873
-0.147739
0.00228098
-0.145144
0.00302047
-0.142906
0.00378075
-0.14081
0.00454278
-0.138731
0.00529267
-0.136597
0.00602088
-0.13438
0.00672139
-0.132074
0.00739097
-0.129689
0.0080285
-0.127243
0.00863447
-0.124758
0.00921041
-0.122255
0.00975858
-0.119756
0.0102817
-0.11728
0.0107824
-0.114842
0.0112637
-0.112455
0.0117283
-0.110128
0.0121786
-0.107871
0.0126172
-0.105689
0.0130463
-0.103586
0.0134681
-0.101564
0.0138852
-0.0996243
0.0143002
-0.097766
0.0147159
-0.0959852
0.0151356
-0.0942745
0.0155624
-0.0926217
-0.0910095
0.0159991
0.000131281
-0.161974
0.000471656
-0.155825
0.00097136
-0.151524
0.00158511
-0.148353
0.00227405
-0.145833
0.00300646
-0.143638
0.00375743
-0.141561
0.00450819
-0.139482
0.00524517
-0.137334
0.00595916
-0.135094
0.00664447
-0.13276
0.00729817
-0.130343
0.00791942
-0.127864
0.00850893
-0.125347
0.00906845
-0.122815
0.00960038
-0.120288
0.0101075
-0.117787
0.0105927
-0.115327
0.0110588
-0.112921
0.0115086
-0.110578
0.0119446
-0.108307
0.0123691
-0.106113
0.0127845
-0.104001
0.0131929
-0.101972
0.0135968
-0.100028
0.0139987
-0.098168
0.0144018
-0.0963883
0.0148094
-0.0946821
0.015225
-0.0930373
-0.0914364
0.0156518
0.000131625
-0.162105
0.000472266
-0.156165
0.00097115
-0.152023
0.00158213
-0.148964
0.00226595
-0.146517
0.00299081
-0.144363
0.003732
-0.142303
0.00447103
-0.140221
0.00519467
-0.138058
0.00589404
-0.135794
0.00656378
-0.133429
0.00720126
-0.13098
0.00780593
-0.128469
0.0083787
-0.12592
0.00892152
-0.123357
0.00943693
-0.120804
0.0099278
-0.118278
0.0103971
-0.115796
0.0108477
-0.113371
0.0112824
-0.111013
0.0117037
-0.108728
0.0121139
-0.106524
0.0125151
-0.104402
0.0129096
-0.102367
0.0132997
-0.100418
0.013688
-0.0985562
0.0140776
-0.0967779
0.0144723
-0.0950767
0.0148758
-0.0934409
-0.0918526
0.015292
0.000131843
-0.162237
0.000472672
-0.156506
0.000970596
-0.152521
0.00157853
-0.149572
0.00225682
-0.147195
0.0029737
-0.14508
0.00370466
-0.143034
0.00443152
-0.140947
0.00514141
-0.138768
0.00582578
-0.136478
0.00647961
-0.134083
0.00710057
-0.131601
0.00768837
-0.129057
0.00824414
-0.126476
0.00877001
-0.123883
0.00926866
-0.121302
0.00974304
-0.118752
0.0101962
-0.116249
0.010631
-0.113806
0.0110503
-0.111432
0.0114565
-0.109135
0.0118519
-0.106919
0.0122385
-0.104789
0.0126185
-0.102747
0.0129941
-0.100794
0.013368
-0.0989301
0.0137433
-0.0971532
0.0141239
-0.0954574
0.0145143
-0.0938313
-0.0922571
0.0149188
0.000131958
-0.162369
0.000472983
-0.156847
0.000969861
-0.153018
0.00157449
-0.150177
0.00224687
-0.147868
0.00295532
-0.145788
0.00367561
-0.143754
0.0043899
-0.141662
0.00508565
-0.139464
0.00575467
-0.137147
0.00639228
-0.134721
0.00699644
-0.132205
0.00756712
-0.129627
0.00810567
-0.127014
0.00861437
-0.124392
0.00909603
-0.121784
0.0095537
-0.11921
0.00999044
-0.116686
0.0104092
-0.114225
0.0108127
-0.111836
0.0112034
-0.109525
0.0115836
-0.107299
0.0119551
-0.10516
0.01232
-0.103112
0.0126804
-0.101154
0.0130389
-0.0992885
0.0133987
-0.097513
0.0137641
-0.0958227
0.01414
-0.0942071
-0.0926486
0.0145315
0.00013202
-0.162501
0.000473356
-0.157189
0.00096916
-0.153514
0.00157022
-0.150778
0.0022363
-0.148534
0.00293589
-0.146488
0.00364509
-0.144463
0.00434639
-0.142363
0.00502764
-0.140145
0.00568101
-0.137801
0.00630212
-0.135342
0.00688924
-0.132793
0.00744258
-0.130181
0.00796372
-0.127535
0.00845508
-0.124883
0.00891957
-0.122249
0.00936032
-0.119651
0.00978043
-0.117106
0.0101829
-0.114627
0.0105703
-0.112223
0.0109452
-0.1099
0.0113096
-0.107664
0.0116655
-0.105516
0.0120146
-0.103461
0.012359
-0.101499
0.0127012
-0.0996307
0.0130443
-0.0978561
0.0133928
-0.0961713
0.0137524
-0.0945667
-0.0930253
0.0141291
0.000132132
-0.162633
0.000474031
-0.157531
0.000968766
-0.154008
0.00156598
-0.151375
0.00222534
-0.149193
0.00291562
-0.147178
0.0036133
-0.145161
0.00430125
-0.143051
0.00496767
-0.140811
0.00560508
-0.138438
0.00620945
-0.135946
0.00677933
-0.133362
0.00731518
-0.130717
0.00781876
-0.128039
0.00829265
-0.125357
0.00873985
-0.122696
0.00916354
-0.120075
0.00956683
-0.11751
0.00995268
-0.115013
0.0103238
-0.112594
0.0106824
-0.110259
0.0110307
-0.108012
0.0113703
-0.105856
0.0117031
-0.103793
0.0120306
-0.101826
0.0123553
-0.0999553
0.0126802
-0.0981811
0.0130102
-0.0965012
0.0133513
-0.0949079
-0.093385
0.013711
0.000132487
-0.162766
0.000475375
-0.157873
0.000969045
-0.154502
0.00156207
-0.151968
0.00221424
-0.149845
0.00289475
-0.147859
0.00358049
-0.145846
0.00425471
-0.143725
0.00490598
-0.141463
0.00552718
-0.139059
0.00611461
-0.136534
0.00666709
-0.133915
0.00718534
-0.131235
0.00767129
-0.128525
0.00812764
-0.125814
0.00855748
-0.123126
0.00896404
-0.120481
0.00935042
-0.117896
0.00971954
-0.115382
0.010074
-0.112949
0.0104161
-0.110601
0.0107478
-0.108343
0.0110707
-0.106179
0.0113863
-0.104109
0.0116962
-0.102136
0.0120022
-0.100261
0.0123074
-0.0984863
0.0126166
-0.0968103
0.0129367
-0.095228
-0.0937247
0.0132764
0.000133477
-0.162899
0.000477951
-0.158218
0.000970459
-0.154995
0.00155882
-0.152556
0.00220325
-0.15049
0.00287349
-0.148529
0.00354686
-0.14652
0.00420699
-0.144385
0.00484282
-0.142099
0.0054476
-0.139664
0.00601791
-0.137104
0.00655291
-0.13445
0.00705349
-0.131735
0.00752179
-0.128993
0.00796062
-0.126252
0.00837314
-0.123538
0.00876258
-0.120871
0.00913205
-0.118265
0.00948441
-0.115735
0.00982219
-0.113286
0.0101476
-0.110926
0.0104623
-0.108658
0.010768
-0.106484
0.0110658
-0.104407
0.011357
-0.102427
0.0116432
-0.100547
0.0119269
-0.09877
0.0122127
-0.0970961
0.0125081
-0.0955234
-0.0940406
0.0128239
0.000135774
-0.163035
0.000482527
-0.158565
0.000973518
-0.155486
0.00155655
-0.153139
0.00219261
-0.151126
0.00285204
-0.149188
0.0035126
-0.14718
0.00415829
-0.145031
0.00477842
-0.142719
0.00536657
-0.140252
0.00591967
-0.137657
0.00643712
-0.134967
0.00692006
-0.132218
0.00737078
-0.129444
0.00779219
-0.126674
0.00818752
-0.123933
0.00855999
-0.121243
0.00891269
-0.118618
0.00924838
-0.11607
0.00956952
-0.113607
0.00987812
-0.111235
0.0101759
-0.108956
0.010464
-0.106773
0.0107435
-0.104686
0.0110153
-0.102699
0.0112804
-0.100813
0.0115408
-0.0990304
0.0118004
-0.0973557
0.012067
-0.09579
-0.094328
0.0123544
0.000140391
-0.163175
0.000489995
-0.158914
0.000978742
-0.155974
0.00155557
-0.153716
0.00218252
-0.151753
0.00283056
-0.149836
0.00347786
-0.147828
0.00410877
-0.145662
0.00471295
-0.143323
0.00528433
-0.140823
0.00582013
-0.138193
0.00632005
-0.135467
0.00678543
-0.132684
0.00721871
-0.129877
0.00762292
-0.127078
0.0080013
-0.124312
0.00835709
-0.121599
0.00869332
-0.118954
0.00901266
-0.11639
0.00931743
-0.113912
0.0096095
-0.111527
0.00989033
-0.109237
0.0101609
-0.107043
0.010422
-0.104948
0.0106741
-0.102951
0.0109175
-0.101056
0.0111533
-0.0992662
0.0113844
-0.0975868
0.0116184
-0.096024
-0.0945807
0.0118711
0.000148884
-0.163324
0.000501784
-0.159267
0.000987014
-0.15646
0.00155633
-0.154285
0.00217322
-0.15237
0.00280918
-0.150472
0.00344272
-0.148461
0.00405851
-0.146278
0.00464652
-0.143911
0.005201
-0.141378
0.0057195
-0.138711
0.00620195
-0.13595
0.00664993
-0.133132
0.00706601
-0.130293
0.00745331
-0.127465
0.00781513
-0.124674
0.00815469
-0.121938
0.00847494
-0.119275
0.00877847
-0.116693
0.00906745
-0.114201
0.00934353
-0.111803
0.00960793
-0.109501
0.00986136
-0.107297
0.0101041
-0.10519
0.0103363
-0.103183
0.0105576
-0.101277
0.0107682
-0.0994768
0.0109688
-0.0977874
0.0111641
-0.0962193
-0.094786
0.0113694
0.000165684
-0.16349
0.000521641
-0.159623
0.00100004
-0.156938
0.00155937
-0.154845
0.00216475
-0.152975
0.00278782
-0.151095
0.0034071
-0.14908
0.00400745
-0.146878
0.00457911
-0.144482
0.00511664
-0.141915
0.00561787
-0.139213
0.00608299
-0.136415
0.00651378
-0.133562
0.00691298
-0.130692
0.00728378
-0.127836
0.00762954
-0.125019
0.00795347
-0.122262
0.00825847
-0.11958
0.00854704
-0.116982
0.00882116
-0.114475
0.00908229
-0.112064
0.0093313
-0.10975
0.00956847
-0.107534
0.00979351
-0.105415
0.0100056
-0.103395
0.0102036
-0.101475
0.0103859
-0.0996591
0.0105493
-0.0979508
0.0106929
-0.0963629
-0.0949289
0.0108358
0.000205119
-0.163695
0.000554313
-0.159972
0.00101796
-0.157402
0.00156389
-0.155391
0.00215641
-0.153567
0.00276598
-0.151705
0.00337069
-0.149685
0.00395543
-0.147463
0.00451066
-0.145038
0.00503124
-0.142436
0.00551529
-0.139697
0.00596326
-0.136863
0.00637714
-0.133976
0.00675982
-0.131075
0.00711461
-0.128191
0.00744492
-0.12535
0.00775397
-0.122571
0.00804465
-0.11987
0.00831939
-0.117257
0.0085801
-0.114736
0.00882805
-0.112312
0.00906386
-0.109986
0.00928738
-0.107757
0.00949759
-0.105626
0.0096925
-0.10359
0.0098689
-0.101652
0.0100212
-0.0998114
0.0101384
-0.0980679
0.0102055
-0.0964301
-0.0949955
0.0102722
0.167112
0.000144044
-0.167256
0.16699
0.000122141
0.166876
0.000113695
0.166766
0.000110202
0.166657
0.000109027
0.166547
0.000109239
0.166437
0.000110224
0.166326
0.000111576
0.166213
0.000113053
0.166098
0.000114539
0.165982
0.00011597
0.165865
0.000117317
0.165746
0.00011857
0.165627
0.000119723
0.165506
0.000120779
0.165384
0.000121737
0.165261
0.000122601
0.165138
0.000123372
0.165014
0.000124046
0.164889
0.00012462
0.164764
0.000125085
0.164639
0.000125422
0.164513
0.000125596
0.164388
0.000125551
0.164263
0.000125174
0.164138
0.000124251
0.164016
0.00012232
0.163898
0.000118371
0.163788
0.0001093
9.33915e-05
0.168033
0.000363015
-0.168252
0.167804
0.000350799
0.167572
0.000346044
0.167336
0.000345941
0.167097
0.000348234
0.166854
0.000352087
0.166607
0.000356987
0.166356
0.000362489
0.166101
0.000368266
0.165842
0.0003741
0.165578
0.000379864
0.16531
0.000385474
0.165037
0.000390872
0.164761
0.000396029
0.164481
0.000400925
0.164197
0.000405545
0.16391
0.000409883
0.163619
0.000413935
0.163325
0.000417686
0.163029
0.000421128
0.16273
0.000424234
0.162428
0.00042697
0.162125
0.000429265
0.161819
0.000431007
0.161512
0.000432006
0.161205
0.000431927
0.160897
0.00043017
0.160589
0.000425762
0.160282
0.00041665
0.000403145
0.168217
0.000610065
-0.168464
0.167952
0.000615335
0.167675
0.00062313
0.167388
0.000633415
0.167091
0.000645141
0.166785
0.000657783
0.166471
0.000671063
0.166149
0.000684703
0.165818
0.000698451
0.16548
0.000712116
0.165135
0.000725556
0.164782
0.000738671
0.164421
0.000751389
0.164053
0.000763657
0.163679
0.000775441
0.163298
0.000786716
0.16291
0.00079746
0.162516
0.000807664
0.162117
0.000817308
0.161712
0.000826372
0.161301
0.000834828
0.160885
0.000842625
0.160465
0.000849685
0.16004
0.000855887
0.159611
0.000861039
0.159178
0.000864844
0.158741
0.000866854
0.158301
0.000866505
0.157854
0.000862793
0.000856
0.167523
0.000852293
-0.167765
0.167262
0.000876248
0.166985
0.000900483
0.166693
0.000925512
0.166387
0.000951025
0.166068
0.000976745
0.165737
0.00100252
0.165393
0.00102818
0.165038
0.00105358
0.164672
0.00107858
0.164294
0.00110305
0.163906
0.00112692
0.163507
0.0011501
0.163098
0.00117256
0.162679
0.00119425
0.162251
0.00121514
0.161813
0.00123521
0.161366
0.00125445
0.160911
0.00127283
0.160447
0.00129034
0.159975
0.00130694
0.159495
0.0013226
0.159007
0.00133723
0.158512
0.00135076
0.15801
0.00136301
0.157501
0.00137379
0.156986
0.00138282
0.156462
0.00138978
0.155931
0.00139417
0.00139618
0.16599
0.00106543
-0.166203
0.165757
0.00110883
0.165506
0.00115151
0.165238
0.00119396
0.164952
0.00123613
0.164651
0.00127792
0.164335
0.00131922
0.164003
0.00135995
0.163656
0.00139998
0.163296
0.00143922
0.162921
0.00147759
0.162533
0.00151501
0.162132
0.00155142
0.161718
0.00158678
0.161291
0.00162105
0.160852
0.0016542
0.160401
0.00168623
0.159938
0.0017171
0.159464
0.00174682
0.158979
0.00177536
0.158483
0.0018027
0.157977
0.00182882
0.157461
0.00185367
0.156934
0.00187718
0.156398
0.00189925
0.155852
0.00191976
0.155296
0.00193855
0.154731
0.00195546
0.154154
0.00197029
0.00198325
0.163725
0.00123584
-0.163895
0.163534
0.00129941
0.163324
0.00136177
0.163095
0.00142324
0.162847
0.00148389
0.162581
0.00154368
0.162298
0.00160254
0.161997
0.00166039
0.16168
0.00171717
0.161347
0.00177279
0.160997
0.00182719
0.160632
0.0018803
0.160251
0.00193208
0.159855
0.00198248
0.159445
0.00203147
0.15902
0.00207903
0.158581
0.00212515
0.158128
0.00216981
0.157662
0.00221302
0.157183
0.00225476
0.15669
0.00229503
0.156185
0.00233382
0.155668
0.0023711
0.155138
0.00240686
0.154597
0.00244104
0.154043
0.00247358
0.153477
0.00250442
0.152899
0.00253352
0.152308
0.0025608
0.00258654
0.160877
0.0013585
-0.161
0.160734
0.00144268
0.16057
0.00152536
0.160387
0.00160674
0.160184
0.00168688
0.159961
0.00176579
0.159721
0.0018434
0.159461
0.00191966
0.159184
0.00199452
0.158889
0.0020679
0.158576
0.00213975
0.158247
0.00221
0.1579
0.00227862
0.157537
0.00234556
0.157158
0.0024108
0.156762
0.00247432
0.156351
0.00253611
0.155925
0.00259615
0.155484
0.00265447
0.155027
0.00271106
0.154556
0.00276593
0.154071
0.00281909
0.153572
0.00287055
0.153058
0.00292032
0.152531
0.0029684
0.15199
0.00301479
0.151435
0.00305948
0.150866
0.0031025
0.150283
0.00314387
0.00318386
0.157604
0.0014342
-0.15768
0.157508
0.00153908
0.157391
0.00164226
0.157254
0.00174385
0.157096
0.00184391
0.15692
0.00194243
0.156724
0.00203938
0.156509
0.00213469
0.156275
0.00222832
0.156023
0.00232021
0.155752
0.00241029
0.155464
0.00249852
0.155157
0.00258485
0.154834
0.00266924
0.154493
0.00275167
0.154135
0.00283212
0.153761
0.00291059
0.15337
0.00298707
0.152963
0.00306157
0.15254
0.00313411
0.152101
0.00320473
0.151646
0.00327345
0.151177
0.0033403
0.150692
0.00340533
0.150191
0.00346857
0.149676
0.00353009
0.149146
0.00358992
0.1486
0.00364814
0.148039
0.00370481
0.00376021
0.154052
0.00146733
-0.154086
0.153999
0.00159265
0.153925
0.00171614
0.153831
0.00183784
0.153717
0.00195779
0.153584
0.00207597
0.153431
0.00219234
0.153258
0.00230686
0.153067
0.00241947
0.152857
0.00253011
0.152629
0.00263872
0.152382
0.00274525
0.152117
0.00284966
0.151835
0.0029519
0.151534
0.00305197
0.151217
0.00314982
0.150882
0.00324548
0.15053
0.00333893
0.150161
0.0034302
0.149776
0.00351932
0.149375
0.00360632
0.148957
0.00369127
0.148523
0.00377423
0.148073
0.00385526
0.147607
0.00393445
0.147125
0.00401189
0.146627
0.00408767
0.146114
0.00416191
0.145584
0.00423469
0.00430628
0.150348
0.00146413
-0.150345
0.150332
0.0016094
0.150295
0.00175274
0.150239
0.00189415
0.150163
0.00203364
0.150068
0.00217119
0.149953
0.00230676
0.14982
0.00244028
0.149668
0.0025717
0.149497
0.00270096
0.149307
0.002828
0.1491
0.00295278
0.148874
0.00307524
0.148631
0.00319535
0.14837
0.00331308
0.148091
0.00342842
0.147795
0.00354135
0.147482
0.00365191
0.147152
0.00376011
0.146806
0.00386599
0.146442
0.0039696
0.146063
0.00407104
0.145667
0.00417037
0.145254
0.00426772
0.144825
0.00436318
0.14438
0.00445691
0.143919
0.00454902
0.143441
0.00463967
0.142947
0.00472897
0.0048172
0.146594
0.0014315
-0.146561
0.146607
0.00159608
0.146601
0.00175865
0.146576
0.00191919
0.146532
0.00207769
0.146469
0.0022341
0.146388
0.00238837
0.146287
0.00254044
0.146169
0.00269026
0.146032
0.00283776
0.145877
0.00298288
0.145704
0.00312556
0.145514
0.00326576
0.145306
0.00340345
0.14508
0.00353858
0.144838
0.00367116
0.144578
0.00380117
0.144301
0.00392863
0.144007
0.00405359
0.143697
0.00417608
0.143371
0.00429618
0.143028
0.00441399
0.142669
0.00452962
0.142293
0.00464321
0.141901
0.00475492
0.141493
0.00486491
0.141069
0.00497336
0.140628
0.00508047
0.140171
0.00518637
0.00529134
0.142866
0.00137625
-0.142811
0.142903
0.00155943
0.142921
0.00174053
0.142921
0.00191951
0.142902
0.00209634
0.142865
0.00227097
0.14281
0.00244333
0.142738
0.00261337
0.142647
0.002781
0.142538
0.00294618
0.142412
0.00310883
0.142269
0.00326891
0.142108
0.00342635
0.141931
0.00358112
0.141736
0.00373319
0.141525
0.00388255
0.141297
0.00402919
0.141052
0.00417314
0.140791
0.00431443
0.140514
0.00445313
0.140221
0.00458933
0.139912
0.00472314
0.139587
0.0048547
0.139246
0.00498419
0.138889
0.00511179
0.138516
0.00523773
0.138127
0.00536224
0.137722
0.00548554
0.137301
0.00560784
0.00572939
0.139223
0.00130461
-0.139151
0.139277
0.00150564
0.139313
0.00170453
0.139331
0.00190123
0.139332
0.00209569
0.139315
0.00228784
0.139281
0.00247761
0.139229
0.00266494
0.13916
0.00284974
0.139074
0.00303195
0.138972
0.0032115
0.138852
0.00338834
0.138716
0.0035624
0.138564
0.00373365
0.138395
0.00390206
0.13821
0.0040676
0.138009
0.00423029
0.137792
0.00439013
0.137559
0.00454719
0.137311
0.00470152
0.137047
0.00485324
0.136767
0.00500247
0.136473
0.00514939
0.136163
0.0052942
0.135837
0.00543714
0.135497
0.00557848
0.13514
0.0057185
0.134768
0.00585751
0.13438
0.00599575
0.00613351
0.135702
0.00122194
-0.135619
0.135767
0.00144011
0.135816
0.0016561
0.135847
0.0018698
0.135862
0.00208118
0.135859
0.00229015
0.13584
0.00249664
0.135805
0.00270057
0.135753
0.00290185
0.135684
0.00310041
0.135599
0.00329619
0.135499
0.00348911
0.135382
0.00367913
0.135249
0.00386619
0.135101
0.00405026
0.134937
0.00423132
0.134758
0.00440938
0.134564
0.00458446
0.134355
0.00475659
0.13413
0.00492587
0.133891
0.00509241
0.133637
0.00525636
0.133369
0.00541792
0.133085
0.00557733
0.132788
0.00573488
0.132475
0.0058909
0.132148
0.00604573
0.131806
0.00619976
0.131448
0.00635331
0.00650671
0.132326
0.00113272
-0.132237
0.132399
0.00136738
0.132455
0.00159979
0.132495
0.00182984
0.132519
0.00205747
0.132527
0.0022826
0.132518
0.00250513
0.132494
0.00272499
0.132453
0.00294208
0.132397
0.00315633
0.132326
0.00336766
0.132239
0.003576
0.132137
0.00378129
0.13202
0.00398347
0.131887
0.00418253
0.13174
0.00437842
0.131579
0.00457115
0.131402
0.00476073
0.131212
0.00494723
0.131007
0.00513071
0.130788
0.00531132
0.130555
0.0054892
0.130308
0.0056646
0.130048
0.00583778
0.129774
0.0060091
0.129486
0.00617895
0.129184
0.00634775
0.128867
0.00651598
0.128537
0.00668407
0.00685242
0.129109
0.00104053
-0.129017
0.129186
0.0012911
0.129246
0.00153933
0.129291
0.00178512
0.12932
0.0020284
0.129333
0.00226907
0.129331
0.00250703
0.129314
0.00274219
0.129282
0.00297447
0.129234
0.00320376
0.129172
0.00343
0.129095
0.00365311
0.129003
0.00387303
0.128897
0.00408969
0.128776
0.00430305
0.128642
0.00451308
0.128493
0.00471979
0.128331
0.00492318
0.128155
0.0051233
0.127965
0.00532024
0.127762
0.00551412
0.127546
0.00570513
0.127317
0.00589352
0.127076
0.0060796
0.126821
0.00626377
0.126553
0.0064465
0.126273
0.00662834
0.125979
0.00680984
0.125671
0.00699159
0.0071741
0.126055
0.00094813
-0.125962
0.126132
0.00121409
0.126193
0.00147763
0.12624
0.00173863
0.126271
0.00199701
0.126288
0.00225267
0.126289
0.00250551
0.126276
0.00275542
0.126248
0.0030023
0.126206
0.00324607
0.126149
0.00348664
0.126078
0.00372393
0.125993
0.00395785
0.125895
0.00418837
0.125782
0.00441541
0.125657
0.00463894
0.125517
0.00485896
0.125365
0.00507547
0.1252
0.00528851
0.125022
0.00549816
0.124832
0.00570456
0.124629
0.00590788
0.124414
0.0061084
0.124187
0.00630647
0.123948
0.00650255
0.123698
0.00669717
0.123435
0.00689101
0.12316
0.00708479
0.122872
0.00727923
0.00747503
0.123161
0.000857602
-0.12307
0.123236
0.00113851
0.123297
0.00141691
0.123343
0.00169266
0.123374
0.00196568
0.123391
0.00223586
0.123394
0.00250307
0.123382
0.00276723
0.123356
0.00302822
0.123316
0.00328594
0.123262
0.00354031
0.123195