/*--------------------------------*- C++ -*----------------------------------*\
  =========                 |
  \\      /  F ield         | OpenFOAM: The Open Source CFD Toolbox
   \\    /   O peration     | Website:  https://openfoam.org
    \\  /    A nd           | Version:  6.0
     \\/     M anipulation  |
\*---------------------------------------------------------------------------*/
FoamFile
{
    version     2.0;
    format      ascii;
    class       volScalarField;
    location    "21.75";
    object      p;
}
// * * * * * * * * * * * * * * * * * * * * * * * * * * * * * * * * * * * * * //

dimensions      [0 2 -2 0 0 0 0];

internalField   nonuniform List<scalar> 
2400
(
-178.236
-154.611
-137.504
-123.164
-110.38
-99.205
-89.4973
-80.9804
-73.3835
-66.5579
-183.232
-158.934
-141.16
-126.304
-113.159
-101.731
-91.8345
-83.1597
-75.4163
-68.4845
-187.984
-163.029
-144.608
-129.251
-115.756
-104.081
-93.9984
-85.1652
-77.2764
-70.2483
-192.421
-166.841
-147.802
-131.97
-118.144
-106.229
-95.9597
-86.9666
-78.951
-71.8816
-196.476
-170.306
-150.689
-134.421
-120.299
-108.171
-97.7224
-88.564
-80.4309
-73.3649
-200.096
-173.365
-153.201
-136.532
-122.161
-109.878
-99.3011
-90.0023
-81.7478
-74.6485
-203.265
-175.98
-155.272
-138.205
-123.6
-111.208
-100.587
-91.2505
-82.9492
-75.7959
-206.003
-178.155
-156.884
-139.377
-124.473
-111.903
-101.22
-91.952
-83.8815
-77.0877
-208.352
-179.934
-158.086
-140.091
-124.772
-111.822
-100.816
-91.4498
-83.8341
-78.2615
-210.342
-181.381
-158.978
-140.491
-124.7
-111.224
-99.6068
-89.6539
-81.7927
-76.6068
-221.136
-220.792
-220.159
-219.319
-218.331
-217.232
-216.048
-214.79
-213.451
-211.993
-187.8
-187.751
-187.482
-187.046
-186.49
-185.844
-185.132
-184.36
-183.515
-182.549
-162.857
-162.846
-162.668
-162.367
-161.983
-161.553
-161.105
-160.652
-160.182
-159.651
-143.263
-143.143
-142.888
-142.541
-142.151
-141.76
-141.409
-141.122
-140.904
-140.724
-126.905
-126.643
-126.267
-125.818
-125.36
-124.939
-124.617
-124.423
-124.393
-124.517
-113.001
-112.607
-112.114
-111.554
-111.015
-110.53
-110.207
-110.068
-110.203
-110.603
-100.982
-100.472
-99.8758
-99.2083
-98.5854
-97.9968
-97.6316
-97.4913
-97.8234
-98.4879
-90.4176
-89.8074
-89.1259
-88.3678
-87.6772
-86.9465
-86.4709
-86.1935
-86.7881
-87.8314
-80.9975
-80.2907
-79.541
-78.7306
-78.019
-77.163
-76.5076
-75.8759
-76.5977
-78.4057
-72.6247
-71.762
-70.8968
-70.037
-69.3103
-68.3839
-67.4868
-66.3408
-66.4746
-69.1002
-200.753
-204.769
-208.409
-211.645
-214.431
-216.725
-218.517
-219.821
-220.668
-221.095
-168.344
-171.991
-175.338
-178.327
-180.907
-183.051
-184.765
-186.068
-186.991
-187.561
-145.893
-149.124
-152.093
-154.723
-156.962
-158.799
-160.258
-161.367
-162.154
-162.643
-129.112
-132.01
-134.644
-136.922
-138.801
-140.3
-141.461
-142.315
-142.885
-143.192
-115.239
-117.931
-120.319
-122.285
-123.826
-125.009
-125.897
-126.514
-126.874
-126.994
-103.321
-105.938
-108.183
-109.884
-111.116
-112.026
-112.682
-113.094
-113.272
-113.231
-92.8373
-95.4453
-97.6092
-99.0876
-100.068
-100.764
-101.233
-101.474
-101.502
-101.328
-83.7756
-86.2338
-88.1746
-89.422
-90.2322
-90.7865
-91.1068
-91.2119
-91.1274
-90.8562
-76.8214
-78.7941
-79.925
-80.7891
-81.4773
-81.8992
-82.0522
-82.0277
-81.8581
-81.5174
-72.3149
-74.1573
-73.4418
-73.6097
-74.1533
-74.3462
-74.2191
-74.0009
-73.7126
-73.2777
-53.8065
-59.6824
-66.2472
-73.4084
-81.2441
-89.9636
-99.8966
-111.701
-128.185
-154.98
-54.379
-60.5426
-67.3716
-74.8207
-82.9897
-92.097
-102.486
-114.84
-131.983
-159.442
-55.0841
-61.5218
-68.5896
-76.3123
-84.8083
-94.3007
-105.147
-118.053
-135.847
-163.935
-55.9317
-62.583
-69.8695
-77.8691
-86.6996
-96.5814
-107.886
-121.347
-139.788
-168.486
-57.0079
-63.8624
-71.3287
-79.5739
-88.7142
-98.9661
-110.717
-124.725
-143.808
-173.1
-58.097
-65.159
-72.8506
-81.3776
-90.8383
-101.455
-113.641
-128.187
-147.899
-177.765
-59.3841
-66.7282
-74.6216
-83.3778
-93.1098
-104.057
-116.656
-131.722
-152.044
-182.463
-60.7093
-68.4048
-76.5379
-85.5148
-95.4996
-106.759
-119.75
-135.309
-156.216
-187.162
-62.9288
-70.8404
-78.8732
-87.8574
-98.015
-109.55
-122.895
-138.911
-160.372
-191.823
-66.4347
-73.7684
-81.3184
-90.2918
-100.636
-112.405
-126.044
-142.467
-164.445
-196.384
-47.6478
-50.0223
-53.7248
-58.4933
-63.8231
-69.5894
-75.932
-83.218
-93.7772
-113.715
-49.1912
-51.9711
-55.8682
-60.6127
-65.8793
-71.6614
-78.136
-85.6826
-96.6664
-117.18
-49.1307
-52.8744
-57.348
-62.3724
-67.8046
-73.7561
-80.4586
-88.3287
-99.7838
-120.901
-49.3904
-53.5734
-58.4276
-63.7776
-69.5127
-75.7695
-82.804
-91.0741
-103.064
-124.834
-50.0445
-54.4061
-59.4885
-65.0976
-71.1337
-77.7311
-85.1483
-93.873
-106.452
-128.919
-50.7408
-55.3234
-60.6327
-66.4727
-72.7814
-79.7072
-87.5154
-96.719
-109.92
-133.108
-51.3556
-56.2198
-61.789
-67.8774
-74.4647
-81.7207
-89.9248
-99.6191
-113.456
-137.373
-51.9623
-57.093
-62.9181
-69.268
-76.153
-83.7568
-92.3724
-102.573
-117.058
-141.699
-52.5907
-57.9608
-64.0289
-70.6445
-77.84
-85.8072
-94.8511
-105.574
-120.719
-146.081
-53.2169
-58.8197
-65.1289
-72.0144
-79.5287
-87.8705
-97.3563
-108.618
-124.432
-150.512
-42.3783
-39.9926
-39.1018
-38.9244
-38.983
-39.1781
-39.5347
-40.0553
-40.7736
-41.6214
-47.0857
-45.1888
-43.9127
-43.5184
-43.4032
-43.5514
-43.8757
-44.3865
-45.0811
-45.9102
-51.5602
-50.0775
-48.8477
-48.3115
-48.066
-48.1522
-48.4427
-48.9462
-49.6322
-50.467
-56.5609
-55.1363
-53.9932
-53.3596
-53.0221
-53.0318
-53.2791
-53.7662
-54.4496
-55.304
-61.9683
-60.486
-59.3462
-58.6274
-58.2243
-58.165
-58.3751
-58.8482
-59.5413
-60.4316
-67.7239
-66.1673
-64.9666
-64.1541
-63.6845
-63.5623
-63.7406
-64.2054
-64.9194
-65.86
-73.9573
-72.283
-70.9661
-70.0314
-69.4666
-69.2661
-69.3995
-69.8478
-70.58
-71.5723
-81.0129
-79.1236
-77.6053
-76.4838
-75.7624
-75.4346
-75.4795
-75.8766
-76.5988
-77.6212
-91.1727
-88.9155
-87.0642
-85.6474
-84.6726
-84.1339
-84.0151
-84.2961
-84.9505
-85.9472
-110.534
-107.761
-105.453
-103.633
-102.306
-101.465
-101.094
-101.173
-101.671
-102.542
-42.5515
-43.5109
-44.5241
-45.6007
-46.7567
-47.9085
-48.9098
-49.8449
-51.0767
-51.56
-46.8443
-47.8425
-48.9109
-50.0376
-51.2167
-52.4037
-53.5473
-54.5671
-55.2902
-55.5043
-51.424
-52.4726
-53.6067
-54.8058
-56.0546
-57.3309
-58.6122
-59.7729
-60.5591
-60.963
-56.3007
-57.4133
-58.6271
-59.9188
-61.2708
-62.6663
-64.076
-65.3861
-66.4357
-67.2726
-61.4886
-62.6869
-64.0056
-65.4218
-66.9164
-68.4686
-70.0381
-71.5415
-72.9109
-74.2065
-66.9964
-68.3022
-69.7539
-71.3289
-73.0064
-74.7606
-76.5487
-78.3168
-80.0465
-81.7906
-72.7948
-74.2191
-75.821
-77.5779
-79.4673
-81.4611
-83.522
-85.6173
-87.7469
-89.95
-78.9126
-80.4417
-82.1859
-84.1223
-86.2267
-88.4715
-90.8279
-93.2772
-95.8246
-98.4961
-87.2477
-88.8242
-90.6566
-92.7211
-94.9919
-97.4438
-100.057
-102.826
-105.757
-108.863
-103.729
-105.234
-107.036
-109.105
-111.414
-113.942
-116.68
-119.633
-122.812
-126.21
-129.806
-112.15
-101.316
-92.2719
-83.6329
-75.5964
-68.2345
-61.5156
-55.4907
-49.9076
-133.673
-115.638
-104.302
-94.7463
-85.6352
-77.1903
-69.4962
-62.4927
-56.0726
-49.8798
-137.834
-119.349
-107.474
-97.401
-87.8373
-79.0228
-71.0313
-63.7618
-57.0914
-50.8121
-142.283
-123.289
-110.838
-100.244
-90.2451
-81.093
-72.8553
-65.4275
-58.6989
-52.4824
-147.002
-127.442
-114.384
-103.263
-92.8404
-83.366
-74.8951
-67.31
-60.4848
-54.2234
-151.956
-131.782
-118.09
-106.436
-95.5991
-85.8174
-77.1278
-69.3921
-62.4556
-56.1047
-157.103
-136.273
-121.919
-109.728
-98.4849
-88.4052
-79.4977
-71.595
-64.5082
-58.0124
-162.388
-140.865
-125.83
-113.098
-101.457
-91.0915
-81.9766
-73.9165
-66.6932
-60.0861
-167.739
-145.502
-129.771
-116.498
-104.467
-93.8239
-84.5072
-76.2943
-68.9453
-62.254
-173.058
-150.112
-133.685
-119.875
-107.463
-96.5496
-87.0364
-78.6748
-71.2102
-64.4657
-47.6231
-24.1261
-10.8292
-5.30623
-2.42618
-0.826003
-0.293777
-0.152304
-0.148028
-0.171228
-0.195689
-0.21383
-0.226911
-0.233101
-0.232966
-0.223907
-0.206087
-0.175824
-0.131016
-0.0615379
-49.4389
-25.9824
-12.0074
-5.7601
-2.67805
-0.985821
-0.364507
-0.190652
-0.170317
-0.184382
-0.203316
-0.218232
-0.229382
-0.23441
-0.233571
-0.224117
-0.206153
-0.175992
-0.131694
-0.0621394
-51.1557
-27.7681
-13.2281
-6.27141
-2.92179
-1.13748
-0.434002
-0.226336
-0.190636
-0.196302
-0.210198
-0.222193
-0.231595
-0.235577
-0.234101
-0.224296
-0.206218
-0.176174
-0.132442
-0.0627957
-52.9362
-29.4713
-14.3056
-6.68148
-3.08493
-1.25343
-0.496135
-0.259036
-0.209193
-0.207161
-0.21644
-0.225769
-0.23358
-0.236614
-0.234565
-0.224451
-0.206285
-0.176371
-0.133265
-0.0635112
-54.7059
-30.8327
-15.0033
-6.86435
-3.13591
-1.3299
-0.550655
-0.289049
-0.22614
-0.217074
-0.222116
-0.229
-0.23536
-0.237536
-0.234969
-0.224583
-0.206354
-0.176583
-0.134166
-0.0642899
-56.0101
-31.6523
-15.4373
-7.00064
-3.22263
-1.43832
-0.61742
-0.320204
-0.242123
-0.22621
-0.227301
-0.231924
-0.236953
-0.238352
-0.23532
-0.224698
-0.206428
-0.176809
-0.135145
-0.0651344
-56.9783
-32.9627
-16.5709
-7.72197
-3.68555
-1.71506
-0.734943
-0.361146
-0.259093
-0.235119
-0.232203
-0.234631
-0.238404
-0.239087
-0.235634
-0.224804
-0.206512
-0.177052
-0.136208
-0.066048
-59.7285
-36.8256
-19.5435
-9.58039
-4.71851
-2.20839
-0.918208
-0.417804
-0.27926
-0.244677
-0.237221
-0.237307
-0.239808
-0.239801
-0.235954
-0.224938
-0.206633
-0.177332
-0.137369
-0.0670385
-65.387
-42.4352
-23.4904
-11.8705
-5.79822
-2.6602
-1.09181
-0.474634
-0.299037
-0.253964
-0.242123
-0.239893
-0.241146
-0.240484
-0.236277
-0.225098
-0.206794
-0.17765
-0.13863
-0.0681064
-64.804
-42.56
-24.1973
-12.1171
-5.68306
-2.57517
-1.09862
-0.487542
-0.303691
-0.257173
-0.244368
-0.241222
-0.241805
-0.240734
-0.236278
-0.225011
-0.206759
-0.177816
-0.139835
-0.0691839
-52.2505
-36.558
-21.486
-10.3241
-4.52813
-2.05019
-0.957375
-0.454945
-0.28782
-0.249907
-0.241334
-0.239874
-0.240902
-0.239858
-0.235333
-0.224125
-0.20607
-0.177534
-0.141212
-0.0705956
-39.762
-29.8118
-18.1027
-8.73377
-3.62653
-1.63121
-0.86082
-0.466716
-0.301913
-0.258348
-0.246507
-0.242584
-0.242002
-0.239988
-0.234803
-0.223316
-0.205308
-0.177264
-0.143471
-0.0727166
-29.8872
-23.5164
-14.8517
-7.43905
-3.0301
-1.31793
-0.755855
-0.465964
-0.313821
-0.265947
-0.251734
-0.245508
-0.243147
-0.240036
-0.2341
-0.222287
-0.204331
-0.176892
-0.146471
-0.0756167
-20.989
-17.5462
-11.6709
-6.15679
-2.58686
-1.11422
-0.6738
-0.463136
-0.326365
-0.272521
-0.255637
-0.247666
-0.243728
-0.239614
-0.232989
-0.220926
-0.203102
-0.176431
-0.14944
-0.0792426
-14.2383
-12.4863
-8.68179
-4.80286
-2.14623
-0.958285
-0.602083
-0.44749
-0.333458
-0.277769
-0.258395
-0.249091
-0.243766
-0.238731
-0.231489
-0.219262
-0.201646
-0.17592
-0.152253
-0.0829563
-9.26505
-8.16371
-5.85051
-3.49702
-1.80687
-0.91715
-0.578262
-0.431991
-0.335141
-0.281765
-0.260316
-0.249818
-0.243292
-0.237422
-0.229646
-0.217347
-0.200006
-0.175409
-0.154866
-0.0864884
-5.74794
-5.06034
-3.88934
-2.62513
-1.53942
-0.828041
-0.511422
-0.396174
-0.329904
-0.284982
-0.261948
-0.249981
-0.24237
-0.235772
-0.227559
-0.215283
-0.198267
-0.174964
-0.157216
-0.0896458
-3.73188
-3.29487
-2.65001
-1.89139
-1.20266
-0.745371
-0.514238
-0.405947
-0.337727
-0.290208
-0.263587
-0.249746
-0.241184
-0.233984
-0.225432
-0.213245
-0.196574
-0.174664
-0.159222
-0.0922483
-2.82787
-2.45886
-2.01786
-1.54668
-1.11609
-0.768705
-0.529505
-0.396319
-0.327307
-0.287186
-0.263257
-0.249291
-0.240133
-0.232419
-0.223582
-0.211497
-0.195136
-0.174588
-0.160766
-0.0941193
-2.4976
-2.14131
-1.77254
-1.39102
-1.01729
-0.703632
-0.49604
-0.386062
-0.328709
-0.291832
-0.266484
-0.25036
-0.239879
-0.231516
-0.222415
-0.210393
-0.194223
-0.174764
-0.161663
-0.0950805
-60.665
-59.3297
-57.9944
-56.8767
-55.8136
-54.6703
-53.0642
-51.2432
-49.5838
-51.1109
-45.1476
-43.3089
-41.4828
-39.9671
-38.4625
-37.0251
-35.3621
-34.383
-34.3313
-37.1344
-31.1073
-29.4255
-27.887
-26.7201
-25.8303
-25.3242
-25.1787
-25.649
-26.5113
-28.2997
-20.9133
-19.9343
-19.2093
-18.8401
-18.7567
-18.8903
-19.0224
-19.0255
-18.8707
-19.3747
-14.1972
-13.8223
-13.6101
-13.5075
-13.3883
-13.1558
-12.7493
-12.3235
-12.158
-12.712
-9.33109
-9.14137
-8.97353
-8.77317
-8.5194
-8.26017
-8.07932
-8.06191
-8.21932
-8.57313
-6.14338
-6.01557
-5.90122
-5.79555
-5.71029
-5.65822
-5.63673
-5.6169
-5.59192
-5.59789
-4.51417
-4.44448
-4.37747
-4.30817
-4.23269
-4.14749
-4.05251
-3.95034
-3.85894
-3.79013
-3.70027
-3.64127
-3.57578
-3.50381
-3.42611
-3.34427
-3.26034
-3.17549
-3.09165
-3.00774
-3.37644
-3.32488
-3.26662
-3.2022
-3.13212
-3.05689
-2.97703
-2.89305
-2.80574
-2.71579
-64.2182
-70.42
-65.975
-64.4321
-64.6604
-64.4102
-63.6944
-63.0321
-62.4249
-61.7265
-59.0625
-59.936
-54.4659
-51.4981
-51.1664
-50.8369
-49.8705
-48.811
-47.8057
-46.6906
-49.5944
-47.0992
-40.1033
-37.0114
-36.8667
-36.9313
-36.2129
-35.1007
-33.9217
-32.649
-37.6637
-34.5931
-27.6745
-24.6027
-24.7266
-25.3201
-25.0754
-24.1801
-23.0899
-21.9985
-26.4297
-23.7986
-18.2461
-15.5079
-15.5677
-16.3987
-16.6357
-16.1767
-15.4413
-14.7472
-16.6007
-14.8116
-11.1457
-9.1742
-9.12163
-9.83718
-10.312
-10.277
-9.95221
-9.60008
-9.21392
-8.48356
-6.75516
-5.73639
-5.67161
-6.08158
-6.44758
-6.55467
-6.45993
-6.29641
-5.19424
-5.13832
-4.7079
-4.40716
-4.37636
-4.50674
-4.63859
-4.6874
-4.65706
-4.58862
-3.72309
-3.85757
-3.86652
-3.82973
-3.81026
-3.81645
-3.82647
-3.82076
-3.79442
-3.75229
-3.32435
-3.47648
-3.53892
-3.53818
-3.52141
-3.5085
-3.49757
-3.4814
-3.45586
-3.42049
1.24811
1.11873
0.840122
0.204226
-1.06845
-3.27566
-6.79271
-13.4554
-23.7162
-44.3
0.938676
0.807631
0.523183
-0.105988
-1.36569
-3.62604
-7.24532
-13.7739
-23.613
-40.8798
0.6115
0.491007
0.219154
-0.347045
-1.47428
-3.59077
-6.82183
-12.5034
-20.9069
-34.4517
0.278581
0.170979
-0.0740321
-0.565807
-1.45749
-3.24752
-5.86934
-10.2335
-16.922
-27.2525
-0.0450376
-0.14289
-0.357169
-0.766906
-1.43365
-2.76015
-4.77124
-7.88476
-12.7952
-20.1466
-0.341858
-0.439748
-0.621265
-0.947726
-1.42967
-2.34691
-3.76717
-5.83991
-8.91433
-13.2518
-0.592994
-0.715535
-0.850348
-1.12634
-1.45455
-2.1091
-2.95439
-4.08851
-5.5736
-7.55498
-0.818089
-0.95414
-1.05344
-1.27532
-1.48867
-1.88874
-2.30202
-2.83314
-3.5183
-4.42008
-1.02435
-1.11763
-1.19221
-1.33082
-1.46538
-1.68453
-1.93849
-2.2582
-2.70406
-3.27172
-1.14753
-1.19306
-1.24666
-1.33475
-1.44672
-1.60769
-1.82672
-2.09359
-2.44695
-2.91038
3.37047
3.29286
3.01356
2.35176
1.09593
-0.964908
-4.43699
-10.055
-20.028
-38.1219
3.12492
3.04036
2.7627
2.11004
0.875748
-1.13647
-4.5442
-9.94083
-19.463
-37.7168
2.88914
2.79746
2.52207
1.8774
0.657542
-1.31455
-4.69695
-9.94631
-19.0081
-37.4048
2.66287
2.56431
2.29151
1.65422
0.442039
-1.4926
-4.87813
-10.0878
-18.7944
-37.43
2.44578
2.34101
2.07089
1.44097
0.230228
-1.66714
-5.05585
-10.329
-18.6701
-37.5655
2.23758
2.12758
1.86002
1.23776
0.023045
-1.8444
-5.21332
-10.6604
-18.7076
-37.7699
2.03798
1.92398
1.65873
1.0437
-0.17757
-2.03454
-5.33399
-11.0304
-18.8013
-37.6302
1.84676
1.7301
1.46686
0.857921
-0.368724
-2.25022
-5.45217
-11.4331
-19.3574
-37.5401
1.66372
1.54595
1.28386
0.675756
-0.553542
-2.49752
-5.62273
-11.8077
-20.2126
-37.716
1.48793
1.36994
1.11008
0.497186
-0.745705
-2.79943
-6.02024
-12.4527
-21.9811
-40.3134
6.31714
6.2497
5.9941
5.20469
3.65932
0.96837
-3.98664
-12.5198
-25.3405
-40.9909
5.99517
5.91698
5.63024
4.75547
3.05163
0.249409
-4.6157
-13.0345
-26.3041
-42.2793
5.67574
5.59926
5.3104
4.46503
2.85111
0.325804
-3.89773
-11.2621
-23.2802
-39.0483
5.36029
5.29052
5.01249
4.23982
2.78807
0.551019
-3.17344
-9.75582
-21.074
-37.8287
5.05031
4.98637
4.71755
4.00269
2.65679
0.535515
-3.06208
-9.47404
-20.8168
-38.1962
4.7474
4.68655
4.41968
3.73078
2.41466
0.268012
-3.42741
-9.92455
-21.25
-38.5026
4.45281
4.39235
4.12197
3.43809
2.1159
-0.0870591
-3.87789
-10.362
-21.4078
-38.4323
4.1674
4.10504
3.82982
3.14615
1.82176
-0.394764
-4.17517
-10.4957
-21.2388
-38.3494
3.8917
3.8256
3.54698
2.86726
1.55808
-0.621771
-4.3091
-10.4051
-20.9312
-38.3552
3.62603
3.55471
3.27487
2.60335
1.3205
-0.799374
-4.37115
-10.2315
-20.5492
-38.3638
12.458
12.5236
12.6378
12.7724
12.8921
12.9744
13.0168
13.0371
13.046
13.0368
12.1778
12.2608
12.4065
12.5727
12.701
12.7713
12.8161
12.8384
12.8176
12.7966
11.6876
11.7844
11.9517
12.1496
12.3251
12.412
12.3489
12.1196
11.8199
11.6555
11.0494
11.1586
11.3447
11.5432
11.6569
11.5643
11.1507
10.4145
9.57689
9.07783
10.314
10.4163
10.5778
10.7192
10.7221
10.3881
9.45546
7.88627
6.10422
5.04416
9.53553
9.61832
9.73546
9.79834
9.65993
8.99357
7.34218
4.64977
1.62133
-0.146895
8.76256
8.81604
8.86409
8.80501
8.47761
7.45401
5.06263
1.15895
-3.39729
-6.44272
8.03055
8.05292
8.02205
7.81138
7.26512
5.88846
2.77136
-2.42044
-8.85481
-13.984
7.36177
7.3502
7.23551
6.84513
6.02823
4.28414
0.49864
-5.98636
-14.4565
-22.0724
6.76524
6.72442
6.53049
5.93553
4.76822
2.56144
-1.8982
-9.61802
-20.3122
-31.7617
13.0218
13.0127
13.0033
12.9943
12.986
12.9789
12.9731
12.969
12.9666
12.9659
12.8428
12.8421
12.8393
12.835
12.8299
12.8244
12.819
12.8139
12.8091
12.8045
11.8106
11.8502
11.8677
11.8739
11.8723
11.8645
11.8508
11.8313
11.8048
11.7687
9.41089
9.52167
9.54938
9.5522
9.53698
9.50631
9.45627
9.38784
9.29885
9.18406
5.63717
5.90717
5.99039
6.01194
5.97247
5.89493
5.78061
5.6402
5.46592
5.24768
0.836541
1.34369
1.43463
1.4072
1.28875
1.15695
0.989231
0.780271
0.487091
0.101049
-5.38742
-4.71836
-4.67906
-4.70404
-4.82618
-4.95961
-5.19216
-5.53976
-6.07379
-6.76224
-13.2148
-12.2011
-12.049
-12.0414
-12.2794
-12.5793
-13.0338
-13.6416
-14.4965
-15.5205
-21.7159
-20.3685
-20.4863
-20.7498
-21.3154
-21.819
-22.4553
-23.2126
-24.223
-25.3786
-32.0524
-30.7273
-31.0054
-31.2035
-31.6498
-31.9939
-32.5091
-33.1465
-34.0219
-35.0227
12.967
12.9697
12.9734
12.9776
12.9814
12.984
12.9853
12.9859
12.9828
12.9611
12.7994
12.7927
12.7843
12.7745
12.7638
12.7494
12.7223
12.6685
12.5802
12.4856
11.7193
11.6551
11.5843
11.5253
11.4906
11.4508
11.3177
11.001
10.5601
10.3653
9.03457
8.84879
8.65228
8.51005
8.47563
8.46926
8.20494
7.37588
6.16585
5.77168
4.97
4.62481
4.24014
3.92976
3.83643
3.89013
3.56453
2.14411
-0.211384
-1.12198
-0.37467
-0.938205
-1.58379
-2.19341
-2.53287
-2.56088
-2.95723
-4.94766
-8.59417
-10.1797
-7.53325
-8.34872
-9.25236
-10.1998
-10.939
-11.2504
-11.7796
-14.2001
-18.9228
-20.9399
-16.5689
-17.5739
-18.6362
-19.822
-20.9656
-21.7019
-22.4084
-24.9169
-29.9502
-31.7994
-26.5224
-27.5767
-28.6603
-29.8906
-31.2389
-32.3368
-33.1478
-35.2419
-39.6607
-40.5727
-36.0467
-37.0268
-38.0436
-39.1611
-40.4307
-41.6562
-42.5099
-43.7168
-46.8447
-46.8302
12.824
12.4655
12.0998
11.0985
9.70812
8.0653
6.31294
4.62212
3.15055
1.99392
1.17051
0.629261
0.292151
0.0862362
-0.0357854
-0.103126
-0.127713
-0.12086
-0.0853898
-0.0297668
12.2683
11.8519
11.4301
10.4294
8.97205
7.35207
5.66766
4.07459
2.71857
1.67636
0.948512
0.47738
0.187905
0.0143094
-0.0857304
-0.137238
-0.151544
-0.137584
-0.0981725
-0.0397812
10.5049
10.3004
9.99317
9.25238
7.78505
6.30007
4.78374
3.37142
2.19306
1.3079
0.702907
0.31795
0.0848355
-0.0524022
-0.128838
-0.164537
-0.169379
-0.149659
-0.106337
-0.0432129
6.96089
7.57199
7.70215
7.54921
6.37885
5.16229
3.89928
2.71097
1.72324
0.992133
0.500959
0.192894
0.00828632
-0.0990421
-0.157033
-0.18136
-0.180107
-0.156852
-0.111106
-0.0456659
1.44189
3.64449
4.60909
5.32303
4.84677
4.05295
3.09695
2.1407
1.33261
0.737459
0.342262
0.0972465
-0.0486357
-0.132662
-0.176845
-0.193155
-0.187807
-0.162106
-0.115113
-0.048415
-5.97299
-1.4165
0.92137
2.75169
3.23273
3.00576
2.39734
1.66904
1.02109
0.539732
0.221579
0.0257995
-0.0905121
-0.157001
-0.19113
-0.201729
-0.193479
-0.166104
-0.11851
-0.0508483
-14.4711
-7.28163
-3.0829
0.0967218
1.65293
2.0612
1.80789
1.28947
0.778075
0.389034
0.131199
-0.027008
-0.121134
-0.17461
-0.20143
-0.207878
-0.19755
-0.169076
-0.121209
-0.0528156
-23.2958
-13.3291
-6.83514
-2.22705
0.297822
1.27323
1.32792
0.986953
0.587981
0.273195
0.0627515
-0.0665429
-0.14385
-0.187567
-0.208961
-0.21233
-0.200489
-0.171301
-0.12334
-0.0544012
-30.5094
-17.9108
-9.34024
-3.65988
-0.594325
0.717554
0.971204
0.753757
0.439843
0.183034
0.00978111
-0.096919
-0.161181
-0.197381
-0.214615
-0.21563
-0.202645
-0.172987
-0.12504
-0.0556876
-33.332
-19.0287
-9.90611
-3.81885
-0.876747
0.435329
0.751462
0.58967
0.331257
0.116069
-0.0298765
-0.119745
-0.174202
-0.204691
-0.218742
-0.217944
-0.204086
-0.174138
-0.1263
-0.056701
-30.8584
-17.1829
-9.32675
-3.23153
-0.717338
0.357075
0.667417
0.513538
0.280552
0.0857201
-0.0478774
-0.130324
-0.180371
-0.208142
-0.220614
-0.218875
-0.204589
-0.174582
-0.126952
-0.0573348
-29.6855
-15.2012
-9.03241
-3.07971
-0.6284
0.21467
0.53819
0.411885
0.212491
0.0459907
-0.0700311
-0.142426
-0.186959
-0.211638
-0.22238
-0.219651
-0.204871
-0.174737
-0.127262
-0.0577146
-31.1435
-14.2517
-8.95528
-3.39164
-0.608085
0.0911435
0.417448
0.32546
0.151478
0.00828536
-0.0919589
-0.154731
-0.19376
-0.215276
-0.224206
-0.220421
-0.205097
-0.174819
-0.127515
-0.0580575
-33.1899
-14.0401
-8.71467
-3.86174
-0.704598
-0.0148256
0.291661
0.243846
0.0974739
-0.0242133
-0.11072
-0.165325
-0.199672
-0.218465
-0.225811
-0.221098
-0.205299
-0.174918
-0.127809
-0.0584118
-35.2297
-14.5487
-8.41562
-4.27398
-0.908817
-0.0967451
0.179613
0.16972
0.049416
-0.0530147
-0.127245
-0.174652
-0.204885
-0.221277
-0.227221
-0.221686
-0.205474
-0.175031
-0.128141
-0.0587819
-37.0217
-15.4002
-8.16994
-4.53064
-1.18692
-0.183963
0.079876
0.101768
0.00658382
-0.0787446
-0.142057
-0.183048
-0.209587
-0.223811
-0.228481
-0.222199
-0.205621
-0.175146
-0.128507
-0.0591683
-38.8254
-16.5946
-8.12578
-4.65364
-1.4795
-0.285165
-0.00685256
0.0401174
-0.0315862
-0.101681
-0.155314
-0.190606
-0.213831
-0.226096
-0.229607
-0.222648
-0.205745
-0.175266
-0.12891
-0.0595759
-40.8104
-18.0919
-8.34729
-4.71012
-1.74675
-0.403397
-0.0843416
-0.0155424
-0.0656494
-0.122113
-0.167156
-0.197388
-0.217649
-0.228149
-0.230608
-0.223037
-0.20585
-0.175391
-0.129357
-0.0600109
-43.0959
-19.9865
-8.90719
-4.79616
-1.97989
-0.533801
-0.155791
-0.0656462
-0.0961083
-0.140336
-0.177737
-0.203472
-0.221077
-0.229988
-0.231495
-0.223373
-0.205939
-0.175525
-0.129853
-0.0604791
-45.4772
-22.086
-9.76427
-4.98143
-2.1969
-0.674386
-0.224609
-0.110923
-0.123425
-0.156623
-0.187204
-0.208931
-0.224153
-0.231632
-0.232277
-0.22366
-0.206017
-0.175669
-0.130404
-0.0609862
)
;

boundaryField
{
    inlet
    {
        type            freestreamPressure;
        freestreamValue uniform 0;
        supersonic      false;
        value           nonuniform List<scalar> 
40
(
1.24811
0.938676
0.6115
0.278581
-0.0450376
-0.341858
-0.592994
-0.818089
-1.02435
-1.14753
3.37047
3.12492
2.88914
2.66287
2.44578
2.23758
2.03798
1.84676
1.66372
1.48793
6.31714
5.99517
5.67574
5.36029
5.05031
4.7474
4.45281
4.1674
3.8917
3.62603
12.458
12.1778
11.6876
11.0494
10.314
9.53553
8.76256
8.03055
7.36177
6.76524
)
;
    }
    outlet
    {
        type            freestreamPressure;
        freestreamValue uniform 0;
        supersonic      false;
        value           nonuniform List<scalar> 
40
(
-0.0208123
-0.0320977
0
0
0
0
0
0
0
0
-0.000542461
-0.000725324
-0.000986093
-0.00136486
-0.00192528
-0.00276843
-0.00405143
-0.00600289
-0.00890553
-0.0129879
-5.96521e-05
-7.10251e-05
-8.52213e-05
-0.000103284
-0.000126457
-0.000156457
-0.000195714
-0.000247682
-0.000317337
-0.000411971
-5.23491e-08
-1.84939e-06
-4.29958e-06
-6.72988e-06
-9.84349e-06
-1.37412e-05
-1.8814e-05
-2.56819e-05
-3.4912e-05
-4.70257e-05
)
;
    }
    top
    {
        type            symmetryPlane;
    }
    bottom
    {
        type            symmetryPlane;
    }
    cylinder
    {
        type            zeroGradient;
    }
    frontandback
    {
        type            empty;
    }
}


// ************************************************************************* //
