/*--------------------------------*- C++ -*----------------------------------*\
  =========                 |
  \\      /  F ield         | OpenFOAM: The Open Source CFD Toolbox
   \\    /   O peration     | Website:  https://openfoam.org
    \\  /    A nd           | Version:  6.0
     \\/     M anipulation  |
\*---------------------------------------------------------------------------*/
FoamFile
{
    version     2.0;
    format      ascii;
    class       surfaceScalarField;
    location    "20";
    object      phi;
}
// * * * * * * * * * * * * * * * * * * * * * * * * * * * * * * * * * * * * * //

dimensions      [0 3 -1 0 0 0 0];

internalField   nonuniform List<scalar> 
38030
(
9.87361e-05
-0.282261
0.282163
0.000455385
-0.269987
0.26963
0.000992023
-0.260878
0.260341
0.0016455
-0.253644
0.25299
0.00237
-0.247507
0.246783
0.0031302
-0.241935
0.241175
0.00390025
-0.236614
0.235844
0.00466246
-0.23138
0.230618
0.0054057
-0.226162
0.225419
0.00612378
-0.220943
0.220225
0.00681407
-0.215735
0.215044
0.00747647
-0.210564
0.209901
0.00811242
-0.20546
0.204824
0.00872433
-0.20045
0.199838
0.009315
-0.195558
0.194968
0.00988732
-0.190803
0.190231
0.0104441
-0.186196
0.185639
0.0109878
-0.181745
0.181202
0.0115206
-0.177455
0.176922
0.0120445
-0.173325
0.172801
0.0125611
-0.169354
0.168837
0.0130719
-0.165538
0.165027
0.0135782
-0.161872
0.161365
0.0140814
-0.158348
0.157845
0.0145829
-0.154958
0.154457
0.015084
-0.151691
0.15119
0.0155859
-0.148533
0.148031
0.0160895
-0.145466
0.144962
0.0165949
-0.142469
0.141963
-0.139517
0.13901
0.017101
0.000116359
-0.282378
0.000475731
-0.270346
0.00101223
-0.261414
0.00166429
-0.254296
0.00238551
-0.248229
0.00314085
-0.242691
0.00390474
-0.237378
0.00465972
-0.232135
0.0053949
-0.226897
0.00610434
-0.221652
0.00678565
-0.216416
0.00743893
-0.211217
0.00806581
-0.206086
0.00866878
-0.201053
0.00925074
-0.19614
0.00981464
-0.191367
0.0103633
-0.186745
0.0108991
-0.182281
0.0114243
-0.17798
0.0119409
-0.173842
0.0124503
-0.169863
0.012954
-0.166042
0.0134533
-0.162371
0.0139497
-0.158845
0.0144443
-0.155453
0.0149387
-0.152186
0.015434
-0.149028
0.0159314
-0.145963
0.0164311
-0.142968
-0.140018
0.0169325
0.000132239
-0.28251
0.000494604
-0.270708
0.00102995
-0.26195
0.00168004
-0.254946
0.0023979
-0.248946
0.00314825
-0.243441
0.00390569
-0.238135
0.00465307
-0.232882
0.00537977
-0.227624
0.00608014
-0.222352
0.00675207
-0.217088
0.00739584
-0.211861
0.00801325
-0.206704
0.00860693
-0.201647
0.00917986
-0.196713
0.00973501
-0.191922
0.0102752
-0.187285
0.0108029
-0.182809
0.0113203
-0.178498
0.0118292
-0.17435
0.0123311
-0.170365
0.0128275
-0.166538
0.0133197
-0.162863
0.0138088
-0.159334
0.0142963
-0.155941
0.0147836
-0.152673
0.0152722
-0.149517
0.015763
-0.146454
0.0162568
-0.143462
-0.140514
0.0167531
0.000138531
-0.282648
0.000506361
-0.271076
0.00104316
-0.262487
0.00169213
-0.255595
0.00240678
-0.249661
0.00315201
-0.244186
0.00390275
-0.238886
0.00464217
-0.233622
0.00536003
-0.228342
0.00605096
-0.223043
0.00671313
-0.21775
0.00734704
-0.212495
0.00795466
-0.207311
0.00853874
-0.202231
0.00910233
-0.197277
0.00964845
-0.192468
0.0101799
-0.187816
0.0106992
-0.183328
0.0112085
-0.179007
0.0117095
-0.174851
0.0122038
-0.17086
0.0126927
-0.167027
0.0131773
-0.163348
0.0136591
-0.159815
0.0141392
-0.156421
0.0146193
-0.153153
0.0151007
-0.149998
0.0155849
-0.146938
0.0160724
-0.14395
-0.141005
0.0165634
0.000143295
-0.282792
0.000515399
-0.271448
0.00105356
-0.263025
0.00170128
-0.256243
0.00241249
-0.250372
0.00315233
-0.244926
0.00389603
-0.23963
0.00462716
-0.234353
0.00533579
-0.22905
0.00601691
-0.223724
0.00666896
-0.218402
0.00729266
-0.213118
0.00789016
-0.207909
0.00846433
-0.202805
0.00901828
-0.197831
0.00955511
-0.193005
0.0100776
-0.188339
0.0105883
-0.183839
0.0110892
-0.179508
0.0115821
-0.175344
0.0120685
-0.171346
0.0125496
-0.167508
0.0130266
-0.163825
0.0135007
-0.16029
0.0139733
-0.156893
0.0144459
-0.153626
0.01492
-0.150472
0.0153972
-0.147415
0.0158784
-0.144431
-0.141491
0.0163639
0.000146403
-0.282938
0.000521816
-0.271824
0.00106117
-0.263564
0.00170754
-0.256889
0.00241509
-0.25108
0.00314923
-0.24566
0.00388556
-0.240366
0.00460801
-0.235075
0.00530705
-0.229749
0.005978
-0.224395
0.00661958
-0.219044
0.00723275
-0.213732
0.00781981
-0.208496
0.00838376
-0.203369
0.0089278
-0.198375
0.00945505
-0.193532
0.00996834
-0.188852
0.0104701
-0.184341
0.0109625
-0.18
0.0114471
-0.175829
0.0119254
-0.171824
0.0123985
-0.167981
0.0128676
-0.164294
0.013334
-0.160756
0.0137988
-0.157358
0.0142637
-0.15409
0.0147303
-0.150939
0.0152004
-0.147885
0.015675
-0.144905
-0.14197
0.0161548
0.000148855
-0.283087
0.000526719
-0.272202
0.0010667
-0.264104
0.00171133
-0.257534
0.00241483
-0.251783
0.00314289
-0.246388
0.00387145
-0.241095
0.00458484
-0.235789
0.00527391
-0.230438
0.00593433
-0.225056
0.00656508
-0.219674
0.00716738
-0.214334
0.00774369
-0.209072
0.00829714
-0.203922
0.00883099
-0.198909
0.0093484
-0.19405
0.00985222
-0.189356
0.0103449
-0.184833
0.0108284
-0.180484
0.0113045
-0.176305
0.0117745
-0.172294
0.0122395
-0.168446
0.0127006
-0.164755
0.013159
-0.161214
0.0136159
-0.157815
0.014073
-0.154548
0.0145319
-0.151398
0.0149946
-0.148348
0.0154625
-0.145373
-0.142444
0.0159365
0.000150754
-0.283238
0.00053037
-0.272581
0.0010704
-0.264644
0.00171284
-0.258176
0.00241187
-0.252482
0.00313343
-0.24711
0.0038538
-0.241815
0.00455773
-0.236493
0.00523645
-0.231117
0.00588595
-0.225705
0.00650555
-0.220294
0.00709665
-0.214925
0.0076619
-0.209638
0.00820454
-0.204465
0.00872793
-0.199432
0.00923524
-0.194557
0.00972934
-0.18985
0.0102126
-0.185317
0.0106872
-0.180958
0.0111545
-0.176772
0.011616
-0.172756
0.0120727
-0.168903
0.0125257
-0.165208
0.0129759
-0.161664
0.0134248
-0.158264
0.0138738
-0.154997
0.014325
-0.151849
0.0147802
-0.148803
0.0152412
-0.145834
-0.142912
0.0157093
0.000152275
-0.28339
0.00053305
-0.272962
0.00107257
-0.265184
0.00171231
-0.258816
0.00240639
-0.253176
0.00312099
-0.247824
0.00383275
-0.242527
0.0045268
-0.237187
0.00519477
-0.231785
0.005833
-0.226344
0.00644107
-0.220902
0.00702064
-0.215505
0.00757453
-0.210191
0.00810608
-0.204996
0.00861872
-0.199945
0.00911567
-0.195054
0.00959979
-0.190334
0.0100735
-0.18579
0.0105388
-0.181423
0.0109972
-0.177231
0.01145
-0.173209
0.0118983
-0.169351
0.0123428
-0.165653
0.0127848
-0.162106
0.0132255
-0.158705
0.0136664
-0.155438
0.0141096
-0.152292
0.0145572
-0.149251
0.0150112
-0.146288
-0.143374
0.0154733
0.000153469
-0.283543
0.000534895
-0.273343
0.00107337
-0.265722
0.0017099
-0.259452
0.00239856
-0.253865
0.00310573
-0.248532
0.00380842
-0.243229
0.00449217
-0.23787
0.00514899
-0.232442
0.00577557
-0.22697
0.00637177
-0.221498
0.00693948
-0.216072
0.00748169
-0.210734
0.00800184
-0.205517
0.00850344
-0.200446
0.00898975
-0.19554
0.00946364
-0.190808
0.00992752
-0.186254
0.0103833
-0.181879
0.0108326
-0.17768
0.0112765
-0.173653
0.0117161
-0.169791
0.0121522
-0.166089
0.0125857
-0.16254
0.013018
-0.159137
0.0134507
-0.15587
0.0138858
-0.152727
0.0143257
-0.149691
0.0147726
-0.146735
-0.14383
0.0152285
0.000154382
-0.283698
0.000536001
-0.273725
0.00107294
-0.266259
0.00170577
-0.260085
0.00238851
-0.254548
0.00308778
-0.249231
0.00378096
-0.243923
0.00445398
-0.238543
0.00509925
-0.233087
0.00571379
-0.227585
0.00629777
-0.222082
0.00685328
-0.216628
0.00738348
-0.211264
0.00789193
-0.206025
0.0083822
-0.200937
0.00885758
-0.196016
0.00932096
-0.191271
0.00977473
-0.186708
0.0102208
-0.182325
0.0106607
-0.17812
0.0110956
-0.174087
0.0115263
-0.170221
0.0119537
-0.166516
0.0123787
-0.162965
0.0128025
-0.159561
0.0132268
-0.156294
0.0136536
-0.153154
0.0140856
-0.150123
0.0145253
-0.147175
-0.14428
0.0149751
0.000155039
-0.283853
0.000536431
-0.274106
0.00107138
-0.266794
0.00170004
-0.260714
0.00237639
-0.255224
0.0030673
-0.249922
0.00375051
-0.244606
0.00441237
-0.239205
0.00504568
-0.23372
0.00564781
-0.228187
0.0062192
-0.222654
0.00676216
-0.217171
0.00728002
-0.211782
0.00777644
-0.206521
0.00825507
-0.201415
0.00871922
-0.19648
0.00917179
-0.191724
0.00961518
-0.187151
0.0100513
-0.182761
0.0104815
-0.17855
0.0109071
-0.174513
0.0113287
-0.170643
0.0117472
-0.166935
0.0121635
-0.163381
0.0125787
-0.159976
0.0129944
-0.15671
0.0134129
-0.153573
0.0138369
-0.150546
0.0142693
-0.147607
-0.144724
0.0147128
0.000155449
-0.284008
0.000536248
-0.274487
0.00106879
-0.267327
0.00169283
-0.261338
0.00236233
-0.255894
0.00304441
-0.250604
0.00371721
-0.245279
0.00436749
-0.239855
0.00498844
-0.234341
0.00557777
-0.228776
0.00613621
-0.223212
0.00666627
-0.217701
0.00717144
-0.212287
0.0076555
-0.207006
0.00812215
-0.201882
0.00857475
-0.196932
0.0090162
-0.192165
0.00944888
-0.187584
0.00987467
-0.183187
0.010295
-0.178971
0.010711
-0.174929
0.0111233
-0.171055
0.0115328
-0.167344
0.0119401
-0.163789
0.0123464
-0.160382
0.0127535
-0.157117
0.0131634
-0.153983
0.0135792
-0.150962
0.0140042
-0.148032
-0.145161
0.0144414
0.000155624
-0.284164
0.000535492
-0.274867
0.00106526
-0.267856
0.00168427
-0.261957
0.00234647
-0.256556
0.00301928
-0.251277
0.00368123
-0.24594
0.00431952
-0.240494
0.00492771
-0.23495
0.00550386
-0.229352
0.00604896
-0.223757
0.00656577
-0.218218
0.0070579
-0.212779
0.00752924
-0.207477
0.00798356
-0.202336
0.00842425
-0.197373
0.00885421
-0.192595
0.00927583
-0.188006
0.00969099
-0.183602
0.0101011
-0.179381
0.0105071
-0.175335
0.0109099
-0.171458
0.01131
-0.167744
0.0117082
-0.164187
0.0121055
-0.16078
0.0125036
-0.157515
0.0129048
-0.154384
0.0133123
-0.15137
0.0137296
-0.14845
-0.145592
0.0141605
0.00015557
-0.28432
0.000534219
-0.275246
0.00106089
-0.268383
0.00167447
-0.26257
0.00232897
-0.25721
0.00299207
-0.25194
0.00364276
-0.246591
0.00426863
-0.24112
0.00486367
-0.235545
0.00542626
-0.229915
0.00595766
-0.224289
0.00646083
-0.218721
0.00693955
-0.213258
0.0073978
-0.207935
0.00783941
-0.202778
0.0082678
-0.197801
0.00868589
-0.193013
0.00909605
-0.188416
0.00950017
-0.184007
0.00989961
-0.17978
0.0102954
-0.175731
0.0106882
-0.171851
0.0110787
-0.168135
0.0114674
-0.164576
0.0118554
-0.161168
0.0122443
-0.157904
0.0126366
-0.154776
0.0130355
-0.151769
0.013445
-0.148859
-0.146016
0.0138694
0.000155297
-0.284475
0.000532487
-0.275623
0.00105578
-0.268906
0.0016636
-0.263178
0.00230998
-0.257857
0.00296297
-0.252593
0.00360198
-0.24723
0.00421505
-0.241733
0.00479655
-0.236126
0.00534519
-0.230464
0.00586251
-0.224806
0.00635167
-0.21921
0.0068166
-0.213723
0.00726136
-0.20838
0.00768985
-0.203206
0.00810552
-0.198217
0.00851129
-0.193419
0.00890955
-0.188814
0.00930217
-0.184399
0.00969051
-0.180169
0.0100756
-0.176116
0.010458
-0.172233
0.0108384
-0.168515
0.0112173
-0.164954
0.0115957
-0.161546
0.0119751
-0.158284
0.0123581
-0.155159
0.0127481
-0.152159
0.0131496
-0.149261
-0.146434
0.0135673
0.000154813
-0.28463
0.000530367
-0.275999
0.00105005
-0.269426
0.00165178
-0.26378
0.00228968
-0.258495
0.00293217
-0.253235
0.00355912
-0.247857
0.00415901
-0.242333
0.00472658
-0.236694
0.0052609
-0.230998
0.00576377
-0.225309
0.00623853
-0.219685
0.00668926
-0.214173
0.00712013
-0.208811
0.00753507
-0.203621
0.00793755
-0.19862
0.00833052
-0.193812
0.00871637
-0.1892
0.00909695
-0.18478
0.00947365
-0.180545
0.00984745
-0.17649
0.010219
-0.172605
0.0105888
-0.168885
0.0109574
-0.165323
0.0113258
-0.161914
0.0116953
-0.158653
0.0120685
-0.155532
0.0124493
-0.152539
0.0128422
-0.149654
-0.146845
0.0132529
0.000154141
-0.284784
0.000527954
-0.276372
0.00104387
-0.269942
0.00163923
-0.264375
0.00226829
-0.259124
0.00289992
-0.253867
0.00351443
-0.248472
0.00410076
-0.242919
0.00465405
-0.237247
0.00517368
-0.231518
0.00566172
-0.225797
0.00612171
-0.220145
0.00655784
-0.21461
0.00697437
-0.209227
0.00737529
-0.204022
0.00776409
-0.199008
0.00814371
-0.194192
0.00851657
-0.189573
0.00888451
-0.185148
0.00924893
-0.18091
0.00961081
-0.176851
0.00997081
-0.172965
0.0103294
-0.169244
0.0106871
-0.165681
0.0110448
-0.162272
0.0114038
-0.159012
0.0117668
-0.155895
0.0121377
-0.15291
0.0125217
-0.150038
-0.147248
0.012925
0.00015332
-0.284937
0.000525377
-0.276744
0.0010374
-0.270454
0.00162614
-0.264964
0.00224605
-0.259744
0.00286646
-0.254487
0.00346819
-0.249073
0.00404062
-0.243491
0.00457927
-0.237786
0.00508386
-0.232022
0.0055567
-0.22627
0.00600152
-0.22059
0.00642265
-0.215031
0.00682442
-0.209629
0.00721082
-0.204409
0.0075854
-0.199383
0.00795109
-0.194558
0.0083103
-0.189932
0.00866489
-0.185502
0.00901628
-0.181261
0.00936545
-0.177201
0.00971309
-0.173313
0.0100597
-0.16959
0.0104057
-0.166027
0.0107519
-0.162618
0.0110997
-0.15936
0.0114517
-0.156247
0.011812
-0.153271
0.0121863
-0.150412
-0.147643
0.0125816
0.000152408
-0.28509
0.000522803
-0.277115
0.00103089
-0.270962
0.00161277
-0.265546
0.00222322
-0.260354
0.00283209
-0.255096
0.00342071
-0.249662
0.0039789
-0.24405
0.00450259
-0.238309
0.0049918
-0.232511
0.00544909
-0.226727
0.00587839
-0.221019
0.00628411
-0.215436
0.00667066
-0.210016
0.00704206
-0.20478
0.00740184
-0.199743
0.00775296
-0.194909
0.0080978
-0.190277
0.00843825
-0.185843
0.00877572
-0.181599
0.00911124
-0.177536
0.00944552
-0.173647
0.00977906
-0.169924
0.0101123
-0.16636
0.0104461
-0.162952
0.0107817
-0.159696
0.0111217
-0.156587
0.0114703
-0.153619
0.0118338
-0.150775
-0.14803
0.0122202
0.000151512
-0.285241
0.00052046
-0.277484
0.00102459
-0.271466
0.00159941
-0.266121
0.00220011
-0.260955
0.00279714
-0.255693
0.00337234
-0.250237
0.00391599
-0.244593
0.0044244
-0.238818
0.00489792
-0.232985
0.00533935
-0.227168
0.00575277
-0.221432
0.0061427
-0.215826
0.00651359
-0.210387
0.00686948
-0.205136
0.0072139
-0.200087
0.00754976
-0.195245
0.00787946
-0.190607
0.00820487
-0.186168
0.00852743
-0.181921
0.00884819
-0.177857
0.0091679
-0.173967
0.00948711
-0.170243
0.00980632
-0.166679
0.0101263
-0.163272
0.0104483
-0.160018
0.0107749
-0.156914
0.0111104
-0.153955
0.0114617
-0.151127
-0.148406
0.0118379
0.000150803
-0.285392
0.00051865
-0.277852
0.00101885
-0.271966
0.0015864
-0.266688
0.00217707
-0.261545
0.00276196
-0.256278
0.00332345
-0.250799
0.00385227
-0.245122
0.00434512
-0.239311
0.00480267
-0.233442
0.00522795
-0.227594
0.00562518
-0.221829
0.00599899
-0.2162
0.00635382
-0.210741
0.00669373
-0.205476
0.0070222
-0.200416
0.00734212
-0.195564
0.00765586
-0.19092
0.00796526
-0.186478
0.00827177
-0.182228
0.00857648
-0.178162
0.00888018
-0.17427
0.00918348
-0.170546
0.00948695
-0.166983
0.00979133
-0.163576
0.010098
-0.160324
0.0104094
-0.157225
0.0107301
-0.154275
0.0110673
-0.151464
-0.14877
0.0114313
0.000150576
-0.285542
0.000517819
-0.278219
0.00101411
-0.272463
0.00157416
-0.267248
0.0021545
-0.262126
0.00272696
-0.256851
0.00327445
-0.251346
0.00378817
-0.245636
0.00426522
-0.239788
0.00470656
-0.233884
0.00511544
-0.228003
0.00549625
-0.22221
0.00585363
-0.216558
0.00619207
-0.21108
0.00651557
-0.205799
0.00682757
-0.200728
0.00713089
-0.195868
0.00742782
-0.191217
0.00772019
-0.18677
0.00800942
-0.182517
0.0082966
-0.178449
0.00858258
-0.174556
0.00886805
-0.170832
0.00915365
-0.167268
0.00944022
-0.163863
0.00972916
-0.160613
0.0100231
-0.157519
0.0103265
-0.154579
0.0106472
-0.151785
-0.149119
0.0109965
0.00015131
-0.285694
0.00051862
-0.278586
0.00101093
-0.272955
0.00156317
-0.267801
0.00213284
-0.262695
0.00269254
-0.25741
0.00322574
-0.251879
0.00372412
-0.246134
0.00418515
-0.240249
0.00461009
-0.234309
0.00500242
-0.228395
0.00536662
-0.222574
0.00570739
-0.216898
0.00602918
-0.211402
0.00633595
-0.206106
0.00663104
-0.201023
0.00691717
-0.196154
0.00719653
-0.191497
0.00747085
-0.187044
0.00774149
-0.182787
0.00800952
-0.178717
0.00827579
-0.174823
0.00854104
-0.171097
0.00880603
-0.167533
0.00907171
-0.164129
0.00933969
-0.160881
0.00961269
-0.157792
0.00989541
-0.154862
0.0101959
-0.152085
-0.14945
0.0105268
0.000153796
-0.285847
0.000521924
-0.278954
0.00100993
-0.273443
0.00155389
-0.268344
0.00211248
-0.263254
0.00265908
-0.257957
0.00317773
-0.252398
0.00366055
-0.246617
0.00410539
-0.240693
0.00451383
-0.234717
0.00488951
-0.228771
0.00523703
-0.222922
0.0055611
-0.217222
0.00586614
-0.211707
0.00615599
-0.206396
0.00643388
-0.201301
0.00670239
-0.196422
0.00696355
-0.191758
0.00721894
-0.1873
0.00746977
-0.183038
0.007717
-0.178964
0.00796142
-0.175067
0.00820371
-0.171339
0.00844466
-0.167774
0.00868535
-0.164369
0.00892757
-0.161123
0.00917434
-0.158039
0.0094305
-0.155118
0.00970445
-0.152359
-0.149758
0.0100127
0.000159101
-0.286007
0.0005286
-0.279324
0.00101162
-0.273926
0.00154671
-0.26888
0.00209383
-0.263801
0.002627
-0.25849
0.00313082
-0.252902
0.00359787
-0.247084
0.00402641
-0.241122
0.00441829
-0.235109
0.00477734
-0.22913
0.00510823
-0.223253
0.00541567
-0.21753
0.00570401
-0.211995
0.00597697
-0.206669
0.00623761
-0.201561
0.00648831
-0.196673
0.0067309
-0.192
0.00696672
-0.187535
0.00719678
-0.183268
0.0074218
-0.179189
0.00764237
-0.175288
0.00785899
-0.171556
0.00807229
-0.167988
0.00828326
-0.16458
0.00849375
-0.161334
0.00870702
-0.158252
0.0089285
-0.155339
0.00916799
-0.152599
-0.150038
0.00944722
0.000168374
-0.286175
0.000539421
-0.279695
0.00101665
-0.274403
0.00154228
-0.269405
0.00207743
-0.264336
0.00259673
-0.259009
0.00308536
-0.25339
0.00353643
-0.247535
0.00394859
-0.241534
0.00432394
-0.235484
0.00466649
-0.229472
0.00498094
-0.223567
0.00527201
-0.217821
0.00554393
-0.212267
0.00580028
-0.206925
0.00604391
-0.201805
0.00627696
-0.196906
0.00650098
-0.192224
0.006717
-0.187751
0.00692568
-0.183477
0.0071274
-0.179391
0.00732239
-0.175483
0.00751086
-0.171744
0.00769311
-0.16817
0.00786984
-0.164757
0.00804273
-0.161507
0.00821521
-0.158425
0.00839342
-0.155517
0.00858912
-0.152794
-0.150269
0.00882073
0.000183362
-0.286358
0.00055674
-0.280068
0.00102717
-0.274874
0.00154195
-0.26992
0.00206398
-0.264858
0.00256859
-0.259514
0.00304154
-0.253863
0.00347641
-0.24797
0.00387215
-0.24193
0.00423112
-0.235843
0.00455742
-0.229798
0.00485581
-0.223866
0.00513096
-0.218096
0.00538701
-0.212523
0.00562736
-0.207166
0.00585464
-0.202032
0.0060707
-0.197122
0.00627673
-0.19243
0.00647332
-0.187948
0.00666062
-0.183664
0.0068384
-0.179569
0.00700622
-0.17565
0.00716357
-0.171902
0.00731012
-0.168316
0.00744614
-0.164893
0.00757334
-0.161634
0.00769552
-0.158547
0.00781817
-0.15564
0.00794961
-0.152926
-0.150409
0.00808956
0.00021136
-0.28657
0.000587947
-0.280445
0.00104695
-0.275333
0.00154689
-0.27042
0.00205352
-0.265365
0.00254236
-0.260003
0.00299917
-0.25432
0.00341771
-0.248388
0.00379715
-0.242309
0.00413999
-0.236186
0.00445045
-0.230109
0.00473332
-0.224149
0.00499323
-0.218356
0.00523422
-0.212764
0.00545955
-0.207391
0.00567162
-0.202244
0.00587203
-0.197323
0.00606156
-0.19262
0.00624033
-0.188127
0.00640777
-0.183832
0.00656269
-0.179723
0.00670333
-0.175791
0.00682738
-0.172026
0.00693226
-0.168421
0.00701581
-0.164976
0.00707753
-0.161696
0.00711975
-0.158589
0.0071475
-0.155668
0.00716989
-0.152948
-0.150433
0.007194
0.000276291
-0.286846
0.000639573
-0.280808
0.00107494
-0.275768
0.00155515
-0.2709
0.00204465
-0.265854
0.00251721
-0.260475
0.00295784
-0.254761
0.00336022
-0.248791
0.00372363
-0.242673
0.00405076
-0.236513
0.00434592
-0.230404
0.00461395
-0.224417
0.00485947
-0.218601
0.00508645
-0.212991
0.00529803
-0.207603
0.0054965
-0.202443
0.00568322
-0.197509
0.00585877
-0.192796
0.00602288
-0.188291
0.00617449
-0.183983
0.00631155
-0.17986
0.00643089
-0.17591
0.00652781
-0.172123
0.00659567
-0.168489
0.00662541
-0.165006
0.00660509
-0.161675
0.00652017
-0.158504
0.00635947
-0.155507
0.00614704
-0.152736
-0.150446
0.00615975
0.290435
0.000190752
-0.290626
0.290282
0.00015316
0.290144
0.000137434
0.290015
0.000129356
0.28989
0.000124591
0.289768
0.000122117
0.289647
0.000121257
0.289526
0.00012139
0.289404
0.000122053
0.289281
0.000122971
0.289157
0.000123977
0.289032
0.000124975
0.288906
0.000125915
0.288779
0.000126765
0.288652
0.000127516
0.288523
0.00012816
0.288395
0.000128699
0.288266
0.000129134
0.288136
0.000129459
0.288006
0.00012967
0.287877
0.000129748
0.287747
0.000129662
0.287618
0.000129332
0.287489
0.000128676
0.287362
0.000127389
0.287236
0.000125314
0.287116
0.000120684
0.287002
0.000113846
0.286911
9.07796e-05
6.50045e-05
0.28876
0.000413811
-0.288983
0.288525
0.000388976
0.288286
0.000375868
0.288045
0.000370668
0.2878
0.000368942
0.287553
0.000369301
0.287303
0.000371326
0.28705
0.000374551
0.286794
0.000378495
0.286534
0.000382798
0.28627
0.000387235
0.286004
0.000391663
0.285734
0.000395973
0.28546
0.000400106
0.285184
0.000404015
0.284904
0.000407673
0.284622
0.000411066
0.284337
0.000414182
0.284049
0.000417004
0.28376
0.000419514
0.283468
0.00042167
0.283174
0.000423412
0.282879
0.000424596
0.282582
0.000425046
0.282285
0.000424282
0.281989
0.000421909
0.281694
0.000415958
0.281401
0.000406409
0.281106
0.000385494
0.000363211
0.28568
0.000626338
-0.285893
0.285446
0.000623428
0.285197
0.000624512
0.284937
0.000630356
0.284668
0.000638719
0.284389
0.000648328
0.284101
0.000658841
0.283806
0.000670023
0.283502
0.00068158
0.283192
0.000693238
0.282874
0.000704796
0.28255
0.000716118
0.282219
0.000727107
0.281881
0.000737692
0.281537
0.000747825
0.281188
0.000757476
0.280832
0.00076662
0.280471
0.000775249
0.280105
0.000783343
0.279733
0.000790881
0.279357
0.000797822
0.278977
0.00080409
0.278592
0.00080954
0.278203
0.000813984
0.27781
0.000816982
0.277414
0.000818174
0.277013
0.00081633
0.276608
0.000811567
0.276193
0.000800875
0.000787958
0.281144
0.000802308
-0.28132
0.280947
0.000820771
0.280731
0.000839879
0.280501
0.000860915
0.280256
0.000883245
0.279999
0.000906096
0.279728
0.000929148
0.279446
0.000952251
0.279152
0.00097522
0.278848
0.000997864
0.278533
0.00102002
0.278207
0.00104158
0.277872
0.00106246
0.277527
0.0010826
0.277173
0.00110197
0.27681
0.00112054
0.276438
0.00113829
0.276058
0.00115524
0.27567
0.00117137
0.275274
0.00118667
0.274871
0.00120113
0.27446
0.0012147
0.274043
0.00122726
0.273618
0.0012387
0.273186
0.00124871
0.272747
0.00125709
0.2723
0.00126321
0.271845
0.00126714
0.271378
0.0012676
0.0012658
0.275466
0.000925443
-0.275589
0.275322
0.000964394
0.27516
0.00100257
0.27498
0.00104092
0.274783
0.00107947
0.274572
0.00111789
0.274345
0.00115594
0.274104
0.00119349
0.273848
0.0012304
0.27358
0.00126653
0.273298
0.00130176
0.273004
0.001336
0.272697
0.00136918
0.272378
0.00140126
0.272048
0.0014322
0.271707
0.00146201
0.271354
0.00149067
0.270991
0.00151821
0.270618
0.00154465
0.270235
0.00157
0.269841
0.00159427
0.269439
0.00161746
0.269026
0.00163955
0.268605
0.00166046
0.268173
0.00168008
0.267732
0.00169831
0.26728
0.00171488
0.266818
0.00172982
0.266343
0.00174263
0.00175401
0.268974
0.000992199
-0.269041
0.268888
0.00105104
0.268782
0.00110847
0.268658
0.00116505
0.268516
0.00122099
0.268358
0.00127621
0.268183
0.00133055
0.267993
0.00138389
0.267787
0.00143614
0.267566
0.0014872
0.267331
0.00153696
0.267082
0.00158535
0.266819
0.00163232
0.266542
0.00167782
0.266253
0.00172186
0.26595
0.00176441
0.265635
0.00180552
0.265308
0.0018452
0.264969
0.0018835
0.264619
0.00192048
0.264257
0.00195618
0.263884
0.00199066
0.263499
0.00202397
0.263104
0.00205612
0.262697
0.00208712
0.262278
0.00211699
0.261847
0.00214566
0.261404
0.00217327
0.260947
0.00219966
0.00222545
0.261996
0.00100791
-0.262011
0.261961
0.00108607
0.261907
0.00116246
0.261834
0.00123739
0.261744
0.00131105
0.261637
0.00138347
0.261513
0.00145456
0.261373
0.00152424
0.261216
0.00159242
0.261044
0.00165902
0.260857
0.00172396
0.260656
0.00178719
0.260439
0.00184865
0.260209
0.00190832
0.259964
0.00196619
0.259707
0.00202228
0.259436
0.00207663
0.259151
0.00212927
0.258855
0.00218029
0.258545
0.00222978
0.258224
0.00227782
0.25789
0.00232454
0.257544
0.00237003
0.257185
0.00241444
0.256815
0.00245785
0.256431
0.0025004
0.256035
0.00254217
0.255625
0.00258338
0.2552
0.00262409
0.00266482
0.254812
0.000982206
-0.254786
0.254819
0.00107898
0.254808
0.00117374
0.254778
0.00126662
0.254732
0.00135777
0.254668
0.00144725
0.254587
0.00153502
0.254491
0.00162101
0.254378
0.00170513
0.25425
0.00178733
0.254106
0.00186754
0.253948
0.00194571
0.253774
0.0020218
0.253587
0.00209579
0.253385
0.00216769
0.25317
0.00223751
0.252942
0.0023053
0.2527
0.00237115
0.252445
0.00243514
0.252177
0.00249741
0.251897
0.00255809
0.251604
0.00261736
0.251299
0.0026754
0.250981
0.00273243
0.25065
0.00278863
0.250306
0.00284425
0.249949
0.00289949
0.249578
0.00295466
0.249192
0.00300989
0.00306569
0.247639
0.000925862
-0.247582
0.247677
0.00104042
0.247698
0.00115277
0.247702
0.00126294
0.247689
0.00137103
0.247659
0.00147711
0.247613
0.00158113
0.247551
0.00168304
0.247473
0.00178277
0.24738
0.00188026
0.247272
0.00197545
0.247149
0.0020683
0.247013
0.00215876
0.246861
0.00224684
0.246697
0.00233253
0.246518
0.00241586
0.246327
0.00249691
0.246122
0.00257576
0.245905
0.00265254
0.245675
0.00272741
0.245432
0.00280056
0.245177
0.00287223
0.24491
0.00294267
0.24463
0.00301217
0.244338
0.00308103
0.244033
0.0031496
0.243714
0.00321819
0.243381
0.00328716
0.243034
0.00335677
0.00342747
0.240626
0.000848916
-0.240549
0.240686
0.000980406
0.240729
0.00110951
0.240756
0.0012362
0.240766
0.00136054
0.240761
0.00148256
0.24074
0.00160224
0.240703
0.00171951
0.240652
0.0018343
0.240585
0.00194656
0.240505
0.00205623
0.24041
0.00216326
0.240301
0.00226762
0.240178
0.0023693
0.240043
0.00246831
0.239894
0.00256468
0.239732
0.0026585
0.239558
0.00274988
0.239372
0.00283896
0.239173
0.00292594
0.238963
0.00301107
0.23874
0.00309463
0.238506
0.00317696
0.23826
0.00325843
0.238001
0.00333945
0.23773
0.00342047
0.237447
0.0035019
0.23715
0.00358421
0.236839
0.00366773
0.00375292
0.233868
0.000759843
-0.233779
0.233941
0.000907442
0.233998
0.00105249
0.234039
0.00119493
0.234065
0.00133478
0.234075
0.00147206
0.234071
0.00160672
0.234052
0.00173871
0.234018
0.00186794
0.23397
0.00199436
0.233908
0.0021179
0.233833
0.00223852
0.233745
0.00235617
0.233643
0.00247086
0.233529
0.00258259
0.233402
0.00269139
0.233263
0.00279736
0.233113
0.00290062
0.23295
0.00300135
0.232776
0.00309976
0.232591
0.00319615
0.232395
0.00329088
0.232188
0.00338435
0.231969
0.00347703
0.231739
0.00356943
0.231497
0.00366212
0.231244
0.00375565
0.230977
0.00385058
0.230698
0.00394735
0.00404644
0.227416
0.000665277
-0.227321
0.227495
0.000828241
0.227559
0.000988503
0.227608
0.00114597
0.227642
0.00130064
0.227661
0.0014525
0.227667
0.00160149
0.227658
0.00174755
0.227635
0.00189059
0.227599
0.00203055
0.227549
0.00216734
0.227487
0.00230093
0.227412
0.00243126
0.227325
0.00255832
0.227225
0.00268211
0.227114
0.00280269
0.226991
0.00292012
0.226857
0.00303455
0.226712
0.00314617
0.226557
0.00325524
0.226391
0.00336208
0.226215
0.00346711
0.226028
0.00357082
0.225831
0.00367378
0.225624
0.00377662
0.225406
0.00388004
0.225177
0.00398472
0.224936
0.00409139
0.224683
0.0042006
0.00431289
0.221289
0.000570075
-0.221194
0.22137
0.000747758
0.221435
0.00092259
0.221487
0.00109445
0.221524
0.00126331
0.221548
0.00142914
0.221557
0.00159187
0.221553
0.00175142
0.221536
0.00190768
0.221506
0.00206059
0.221464
0.00221006
0.221408
0.00235602
0.221341
0.00249843
0.221262
0.00263725
0.221172
0.00277249
0.22107
0.00290417
0.220958
0.00303239
0.220836
0.00315727
0.220703
0.00327902
0.22056
0.00339792
0.220408
0.00351434
0.220246
0.00362875
0.220075
0.00374172
0.219895
0.00385393
0.219706
0.00396615
0.219506
0.00407922
0.219297
0.00419401
0.219077
0.00431141
0.218845
0.00443217
0.00455689
0.215488
0.000477558
-0.215395
0.215566
0.00066942
0.21563
0.000858274
0.215681
0.00104398
0.215718
0.00122651
0.215741
0.00140578
0.215751
0.00158173
0.215748
0.00175424
0.215733
0.00192321
0.215705
0.00208856
0.215665
0.00225018
0.215613
0.002408
0.215549
0.00256194
0.215474
0.00271197
0.215389
0.00285807
0.215293
0.00300026
0.215186
0.00313861
0.21507
0.00327326
0.214945
0.0034044
0.214811
0.00353234
0.214668
0.00365747
0.214516
0.00378032
0.214356
0.00390153
0.214188
0.00402191
0.214012
0.00414235
0.213827
0.00426391
0.213634
0.00438767
0.21343
0.00451472
0.213216
0.00464605
0.00478241
0.209998
0.000389813
-0.20991
0.210072
0.000595403
0.210132
0.00079783
0.210179
0.000996944
0.210213
0.00119268
0.210234
0.00138496
0.210242
0.00157368
0.210237
0.00175873
0.210221
0.00193998
0.210192
0.00211733
0.210151
0.00229066
0.210099
0.00245988
0.210036
0.0026249
0.209963
0.00278566
0.209879
0.00294212
0.209785
0.00309428
0.209681
0.00324219
0.209568
0.00338598
0.209447
0.00352583
0.209317
0.00366204
0.20918
0.00379505
0.209035
0.0039254
0.208882
0.00405382
0.208723
0.00418123
0.208557
0.00430871
0.208383
0.00443751
0.208202
0.00456898
0.208012
0.0047045
0.207813
0.00484536
0.00499256
0.204799
0.000307983
-0.204717
0.204867
0.000526938
0.204923
0.000742574
0.204965
0.000954728
0.204994
0.00116332
0.205011
0.00136825
0.205015
0.00156939
0.205007
0.00176661
0.204987
0.00195979
0.204956
0.00214878
0.204913
0.00233346
0.204859
0.00251372
0.204795
0.00268943
0.20472
0.00286052
0.204635
0.00302692
0.204541
0.00318859
0.204438
0.00334557
0.204326
0.00349795
0.204205
0.00364589
0.204078
0.00378969
0.203943
0.00392977
0.203802
0.00406671
0.203654
0.00420133
0.203501
0.00433463
0.203342
0.00446788
0.203177
0.00460258
0.203005
0.0047404
0.202827
0.0048831
0.20264
0.00503239
0.00518957
0.199868
0.000232543
-0.199792
0.19993
0.000464573
0.19998
0.000693126
0.200016
0.000918029
0.200041
0.00113918
0.200052
0.00135647
0.200052
0.00156975
0.20004
0.00177887
0.200016
0.00198369
0.199981
0.00218405
0.199934
0.0023798
0.199877
0.00257079
0.19981
0.0027569
0.199732
0.002938
0.199645
0.00311399
0.199549
0.00328481
0.199444
0.00345045
0.199331
0.00361095
0.19921
0.00376645
0.199083
0.00391721
0.198949
0.00406362
0.198809
0.00420631
0.198665
0.00434609
0.198515
0.00448411
0.198361
0.00462181
0.198203
0.00476095
0.19804
0.00490364
0.197871
0.00505208
0.197695
0.00520853
0.0053748
0.195181
0.000163526
-0.195112
0.195237
0.000408396
0.195281
0.000649635
0.195312
0.000887059
0.195331
0.00112055
0.195337
0.00134997
0.195332
0.00157517
0.195315
0.00179597
0.195286
0.00201222
0.195246
0.00222372
0.195196
0.00243032
0.195135
0.00263183
0.195064
0.0028281
0.194983
0.00301897
0.194892