/*--------------------------------*- C++ -*----------------------------------*\
  =========                 |
  \\      /  F ield         | OpenFOAM: The Open Source CFD Toolbox
   \\    /   O peration     | Website:  https://openfoam.org
    \\  /    A nd           | Version:  6.0
     \\/     M anipulation  |
\*---------------------------------------------------------------------------*/
FoamFile
{
    version     2.0;
    format      ascii;
    class       surfaceScalarField;
    location    "9";
    object      phi;
}
// * * * * * * * * * * * * * * * * * * * * * * * * * * * * * * * * * * * * * //

dimensions      [0 3 -1 0 0 0 0];

internalField   nonuniform List<scalar> 
4670
(
-0.000196452
-0.0217932
0.0219897
-0.00054432
-0.0171
0.0174478
-0.000915827
-0.0136059
0.0139774
-0.00124002
-0.0110162
0.0113404
-0.00148111
-0.009091
0.0093321
-0.00162725
-0.00764308
0.00778922
-0.0016834
-0.00653022
0.00658637
-0.00166672
-0.0056467
0.00563001
-0.00160359
-0.00491466
0.00485153
-0.00427831
0.00420194
-0.00152722
-0.000184396
-0.0216088
-0.000488216
-0.0167961
-0.000777031
-0.013317
-0.000978562
-0.0108146
-0.00105749
-0.00901207
-0.00100275
-0.00769783
-0.00082037
-0.0067126
-0.000529508
-0.00593756
-0.000160417
-0.00528375
-0.00468596
0.000247227
-0.000162403
-0.0214464
-0.000391943
-0.0165666
-0.000553057
-0.0131559
-0.000574768
-0.0107929
-0.000423054
-0.00916379
-8.71991e-05
-0.00803368
0.000427043
-0.00722684
0.00110025
-0.00661076
0.00189948
-0.00608298
-0.00556442
0.00277794
-0.000129054
-0.0213174
-0.000254654
-0.016441
-0.000244584
-0.013166
-3.25683e-05
-0.0110049
0.000412194
-0.00960855
0.00109959
-0.00872108
0.00202515
-0.0081524
0.00317144
-0.00775705
0.00450538
-0.00741693
-0.00703304
0.005974
-8.34305e-05
-0.021234
-7.45178e-05
-0.0164499
0.00015021
-0.0133907
0.000647941
-0.0115027
0.00144294
-0.0104035
0.0025422
-0.00982034
0.00394234
-0.00955254
0.00563
-0.0094447
0.00757614
-0.00936307
-0.00918201
0.00972512
-2.41611e-05
-0.0212098
0.000151811
-0.0166259
0.000636277
-0.0138752
0.00147203
-0.0123384
0.00267192
-0.0116034
0.00423569
-0.0113841
0.00615813
-0.011475
0.00843036
-0.0117169
0.0110325
-0.0119652
-0.0120627
0.0139132
5.04817e-05
-0.0212603
0.000428399
-0.0170038
0.00122007
-0.0146669
0.00244834
-0.0135667
0.00410872
-0.0132638
0.00618687
-0.0134623
0.00866863
-0.0139567
0.0115451
-0.0145934
0.0148085
-0.0152287
-0.0156785
0.0184243
0.00014197
-0.0214022
0.000757835
-0.0176197
0.00190504
-0.0158141
0.00358183
-0.0152435
0.00576089
-0.0154429
0.00840556
-0.0161069
0.0114812
-0.0170324
0.0149657
-0.0180779
0.0188591
-0.0191221
-0.0199922
0.0231728
0.000250839
-0.0216531
0.00113829
-0.0185071
0.00268539
-0.0173612
0.00486383
-0.0174219
0.00762124
-0.0182003
0.0108935
-0.0193792
0.0146133
-0.0207521
0.0187214
-0.0221861
0.0232025
-0.0236031
-0.0249752
0.0281855
0.000376702
-0.0220298
0.00155962
-0.01969
0.00353684
-0.0193384
0.00625557
-0.0201406
0.0096452
-0.0215899
0.0136266
-0.0233606
0.0181135
-0.0252391
0.0230045
-0.0270771
0.0281838
-0.0287824
-0.030393
0.0336016
0.0302339
0.00118305
-0.031417
0.029046
0.00118789
0.0278802
0.00116583
0.026762
0.00111824
0.0257135
0.00104847
0.0247529
0.000960608
0.0238942
0.000858662
0.0231483
0.000745882
0.022524
0.000624323
0.000494235
0.040212
0.00369542
-0.0427244
0.0375809
0.00381893
0.0349017
0.00384504
0.0322419
0.00377807
0.029664
0.00362638
0.0272237
0.00340094
0.0249688
0.0031135
0.0229401
0.00277459
0.0211717
0.00239272
0.00197592
0.0489967
0.00685437
-0.0521556
0.0455683
0.00724732
0.0419636
0.0074497
0.0382786
0.00746309
0.0346078
0.00729715
0.0310408
0.00696792
0.0276598
0.00649453
0.0245389
0.00589546
0.0217454
0.00518627
0.00438291
0.056249
0.0101839
-0.0595786
0.0524979
0.0109984
0.0484228
0.0115248
0.0441321
0.0117538
0.0397397
0.0116895
0.0353603
0.0113474
0.0311049
0.0107499
0.0270801
0.00992028
0.0233903
0.00887603
0.00763258
0.0619181
0.0133716
-0.0651058
0.0581796
0.014737
0.0539774
0.015727
0.0494169
0.0163143
0.0446169
0.0164895
0.0397042
0.0162601
0.0348081
0.015646
0.03006
0.0146684
0.0255997
0.0133363
0.0116424
0.0661229
0.0162369
-0.0689883
0.0626134
0.0182465
0.0585268
0.0198135
0.0539532
0.0208879
0.0490026
0.0214401
0.0437995
0.0214632
0.038477
0.0209685
0.0331763
0.0199691
0.028061
0.0184516
0.0163427
0.0690661
0.0186994
-0.0715286
0.0659061
0.0214065
0.062091
0.0236286
0.0576881
0.0252908
0.0527883
0.0263399
0.0475012
0.0267503
0.0419475
0.0265222
0.0362561
0.0256605
0.0305881
0.0241197
0.0216917
0.0709741
0.0207469
-0.0730217
0.0682121
0.0241685
0.0647542
0.0270865
0.0606427
0.0294023
0.0559444
0.0310383
0.0507456
0.0319491
0.0451407
0.0321271
0.0392194
0.0315818
0.033088
0.0302511
0.0277026
0.0720568
0.0224094
-0.0737193
0.0696923
0.0265331
0.0666248
0.030154
0.0628743
0.0331528
0.0584841
0.0354285
0.0535163
0.036917
0.048035
0.0376083
0.0420709
0.0375459
0.0355884
0.0367336
0.0345087
0.0724835
-0.073815
0.0237408
0.0704832
0.0285333
0.0678007
0.0328366
0.0644399
0.0365137
0.0604261
0.0394423
0.0558039
0.0415391
0.0506209
0.0427913
0.0448746
0.0432923
0.0383739
0.0432343
0.0424895
0.0367419
-0.000329036
-0.0364129
0.0368688
-0.000126936
0.036789
7.9874e-05
0.0365052
0.000283776
0.0360267
0.000478514
0.0353685
0.000658201
0.0345511
0.000817388
0.0335998
0.000951306
0.0325439
0.00105589
0.00112692
0.0508474
-0.00151055
-0.0496659
0.0516029
-0.000882408
0.0519204
-0.000237676
0.0517944
0.000409796
0.0512287
0.00104423
0.0502381
0.00164879
0.0488491
0.00220637
0.0470998
0.00270059
0.0450391
0.00311666
0.00344162
0.0588351
-0.00348731
-0.0568584
0.0602975
-0.00234476
0.0612185
-0.00115867
0.0615764
5.18353e-05
0.0613592
0.00126143
0.0605669
0.0024411
0.0592136
0.00355972
0.0573284
0.00458576
0.054956
0.00548904
0.00624203
0.0627996
-0.00610077
-0.0601861
0.0648919
-0.00443712
0.0664219
-0.00268863
0.0673515
-0.000877715
0.0676511
0.000961794
0.0673027
0.00278952
0.0663017
0.00456073
0.0646591
0.00622837
0.0624028
0.00774531
0.00906626
0.0642472
-0.00917362
-0.0611743
0.0668358
-0.00702576
0.0688858
-0.00473866
0.0703457
-0.00233752
0.0711722
0.000135215
0.0713328
0.00262898
0.0708062
0.00508731
0.0695848
0.00744977
0.0676763
0.00965384
0.0116368
0.0642328
-0.0125544
-0.060852
0.0671853
-0.0099782
0.0696387
-0.0071921
0.0715313
-0.00423009
0.072813
-0.00114651
0.0734437
0.00199834
0.073392
0.00513897
0.0726365
0.00820524
0.0711672
0.0111232
0.0138157
0.0634547
-0.0161408
-0.0598683
0.0666684
-0.0131919
0.0694151
-0.00993881
0.0716283
-0.00644329
0.0732603
-0.00277845
0.074272
0.000986593
0.07463
0.00478098
0.0743054
0.0085298
0.0732759
0.0121526
0.015563
0.0623582
-0.0198961
-0.058603
0.0657634
-0.0165971
0.0687065
-0.0128819
0.0711304
-0.00886726
0.0730014
-0.0046494
0.0742898
-0.000301794
0.0749656
0.00410516
0.0749983
0.0084971
0.0743585
0.0127924
0.0168999
0.0612458
-0.0238413
-0.0573006
0.0647716
-0.0201229
0.0678114
-0.0159216
0.0703404
-0.0113963
0.072347
-0.00665601
0.0738134
-0.00176813
0.0747144
0.0032041
0.0750204
0.00819114
0.0746991
0.0131136
0.0178798
0.0603063
-0.0562512
-0.0278964
0.0638552
-0.0236717
0.066874
-0.0189405
0.0694137
-0.013936
0.0714728
-0.00871515
0.0730374
-0.00333273
0.0740843
0.0021572
0.0745845
0.00769093
0.0745058
0.0131923
0.0185706
0.0423849
0.0132236
-0.0079416
-0.0476669
0.037018
0.0139513
-0.00858444
0.0315677
0.0148177
-0.00936735
0.0260503
0.0158708
-0.0103535
0.0205098
0.0171708
-0.0116303
0.0150405
0.018771
-0.0133017
0.00982266
0.0206823
-0.0154644
0.00517435
0.0227985
-0.0181502
0.00162258
0.0247683
-0.0212165
0.0257775
-0.0241549
0.0421561
0.0184784
-0.0474108
0.036815
0.0192923
0.0313897
0.0202431
0.0258967
0.0213638
0.0203804
0.0226871
0.0149357
0.0242157
0.00974412
0.0258738
0.005125
0.0274176
0.00160349
0.0282898
0.0273809
0.0415548
0.0236757
-0.0467521
0.0362708
0.0245763
0.0309038
0.02561
0.025472
0.0267956
0.020021
0.0281381
0.0146474
0.0295894
0.00953377
0.0309874
0.00499787
0.0319535
0.00155547
0.0317322
0.0289364
0.0405843
0.0287877
-0.0456963
0.035387
0.0297735
0.0301111
0.0308859
0.0247768
0.0321299
0.0194322
0.0334828
0.0141763
0.0348452
0.00919265
0.0359711
0.00479448
0.0363517
0.00148038
0.0350463
0.0304168
0.0392474
0.0337889
-0.0442485
0.0341653
0.0348557
0.0290124
0.0360388
0.0238119
0.0373304
0.0186152
0.0386795
0.0135242
0.0399362
0.00872289
0.0407724
0.00451686
0.0405577
0.00137943
0.0381837
0.0317962
0.0375437
0.0386554
-0.0424102
0.0326047
0.0397947
0.0276073
0.0410362
0.0225781
0.0423596
0.0175719
0.0436857
0.012694
0.0448141
0.00812774
0.0453387
0.00416783
0.0445177
0.00125407
0.0410975
0.0330503
0.0354661
0.0433628
-0.0401734
0.0306998
0.044561
0.0258934
0.0458425
0.0210757
0.0471774
0.0163049
0.0484565
0.0116898
0.0494292
0.00741191
0.0496165
0.00375135
0.0481782
0.00110623
0.0437426
0.0341565
0.0329951
0.0478793
-0.0375117
0.0284387
0.0491174
0.0238663
0.0504148
0.0193056
0.0517381
0.0148188
0.0529433
0.0105181
0.0537299
0.00658239
0.0535522
0.00327297
0.0514876
0.000938575
0.046077
0.0350951
0.0300844
0.0521689
-0.0343739
0.0257999
0.0534019
0.0215231
0.0546917
0.0172735
0.0559877
0.0131229
0.0570939
0.00918988
0.057663
0.00564947
0.0570926
0.00274065
0.0543964
0.000755016
0.0480627
0.0358501
0.0266815
-0.0307638
0.0227829
0.0188715
0.0149909
0.0112327
0.00772136
0.00462789
0.00216597
0.000562756
0.0246862
-0.0360503
0.0403226
-0.0289585
0.0206988
-0.0358655
0.0398529
0.0168526
-0.0353472
0.0391934
0.0131718
-0.0343205
0.0380014
0.00973152
-0.0324578
0.0358981
0.00663004
-0.0292802
0.0323817
0.00398259
-0.0241322
0.0267797
0.00191116
-0.016162
0.0182335
0.000537734
-0.0043147
0.00568813
0.0127309
-0.0121932
0.0281136
-0.0317227
-0.0324412
0.0238364
-0.0315883
0.0196438
-0.0311546
0.0155767
-0.0302534
0.0117089
-0.0285901
0.00814388
-0.0257152
0.00501326
-0.0210016
0.00247656
-0.0136253
0.000723674
-0.00256182
0.0134546
0.0311237
-0.0272413
-0.0356052
0.0266201
-0.0270847
0.0221469
-0.0266814
0.0177549
-0.0258615
0.013518
-0.0243531
0.00954279
-0.02174
0.00597549
-0.0174343
0.00300967
-0.0106595
0.000899916
-0.000452065
0.0143545
0.0337505
-0.0225909
-0.0384008
0.029054
-0.0223882
0.0243498
-0.0219771
0.0196862
-0.0211979
0.0151348
-0.0198018
0.0108039
-0.017409
0.00685082
-0.0134813
0.00349923
-0.00730792
0.00106342
0.00198374
0.0154179
0.0360332
-0.0177806
-0.0408434
0.0311636
-0.0175186
0.0262613
-0.0170748
0.0213677
-0.0163043
0.0165496
-0.0149838
0.0119142
-0.0127736
0.00762698
-0.00919405
0.00393663
-0.00361756
0.00121072
0.00470965
0.0166286
0.0379783
-0.0128264
-0.0429326
0.0329564
-0.0124967
0.0278848
-0.0120032
0.0227978
-0.0112173
0.0177565
-0.00994248
0.0128654
-0.00788245
0.00829528
-0.00462391
0.00431527
0.000362449
0.00133891
0.00768601
0.0179675
0.0395806
-0.00774965
-0.0446573
0.0344306
-0.00734679
0.029219
-0.0067916
0.023974
-0.00597229
0.0187509
-0.00471944
0.0136513
-0.00278279
0.00884917
0.000178198
0.00463007
0.00458155
0.00144571
0.0108704
0.0194132
0.0408311
-0.00257635
-0.0460044
0.0355806
-0.00209633
0.0302598
-0.00147081
0.0248921
-0.000604566
0.0195282
0.000644436
0.0142666
0.00247883
0.00928352
0.00516127
0.00487707
0.008988
0.00152932
0.0142181
0.0209426
0.0417205
0.00266447
-0.0469613
0.0363995
0.00322466
0.031002
0.00392672
0.0255478
0.00484964
0.0200841
0.00610812
0.014707
0.00785591
0.00959431
0.010274
0.00505336
0.0135289
0.00158856
0.0176829
0.0225311
0.0422413
-0.0475184
0.0368815
0.0314409
0.0259371
0.0204149
0.0149691
0.00977864
0.00515738
0.00162376
0.0444711
0.0214149
-0.0255634
0.0479831
0.0174908
-0.0210028
0.0509075
0.0130697
-0.0159941
0.053295
0.00832479
-0.0107122
0.0551335
0.00340041
-0.00523891
0.0563948
-0.00160394
0.000342675
0.0570404
-0.0065878
0.00594215
0.0570289
-0.0114394
0.0114509
0.0563221
-0.0160356
0.0167425
-0.0202446
0.0548914
0.0216753
0.0437238
0.017544
0.0471419
0.0140727
0.0500137
0.0101979
0.052302
0.00603649
0.0539855
0.00171688
0.0550353
-0.00265375
0.0554167
-0.00696919
0.0550954
-0.011118
0.0540435
-0.0149838
-0.0184485
0.0522474
0.0427854
0.013952
0.0459821
0.010876
0.0486543
0.00752567
0.0507288
0.00396194
0.0521621
0.00028358
0.052918
-0.00340964
0.0529646
-0.00701578
0.0522772
-0.0104306
0.0508436
-0.0135501
-0.0162751
0.0486701
0.0413208
0.0106325
0.0442135
0.00798331
0.0465752
0.00516404
0.0483263
0.00221075
0.0494131
-0.000803142
0.0497966
-0.00379321
0.0494512
-0.00667039
0.0483656
-0.00934497
0.0465467
-0.0117312
-0.0137525
0.0440241
0.0389014
0.00762922
0.0414232
0.00546147
0.0433881
0.00319917
0.0447278
0.000871034
0.0453928
-0.00146811
0.0453513
-0.00375175
0.0445899
-0.00590897
0.0431148
-0.00786988
0.0409544
-0.0095708
-0.0109591
0.038161
0.0349918
0.0050191
0.0370747
0.0033786
0.0385775
0.00169635
0.0394511
-2.52856e-06
0.0396609
-0.00167798
0.039191
-0.00328185
0.0380456
-0.00476355
0.0362507
-0.00607498
0.0338549
-0.00717502
-0.00803314
0.030929
0.0289093
0.00288946
0.0304953
0.00179264
0.0315043
0.000687321
0.031909
-0.000407164
0.0316953
-0.00146434
0.0308671
-0.00245365
0.0294478
-0.00334418
0.0274809
-0.00410811
0.0250296
-0.00472371
-0.00517754
0.022174
0.0198067
0.00131617
0.0208706
0.000728822
0.0214096
0.000148242
0.0214173
-0.000414846
0.0208996
-0.000946583
0.0198776
-0.00143168
0.0183889
-0.0018555
0.0164866
-0.00220585
0.0142375
-0.0024746
-0.00265881
0.0117188
0.00665812
0.000346178
0.00722784
0.000159099
0.00739679
-2.07038e-05
0.00717304
-0.000191095
0.00657439
-0.000347934
0.00562947
-0.000486764
0.00437759
-0.000603616
0.00286732
-0.000695576
0.00115403
-0.000761313
-0.000802141
-0.000702644
-0.011847
-0.0116879
-0.0117086
-0.0118997
-0.0122476
-0.0127344
-0.013338
-0.0140336
-0.0147949
-0.015597
0.0527273
-0.02395
0.0261141
0.0498432
-0.026992
0.0298761
0.0462855
-0.029294
0.0328517
0.0421335
-0.0308055
0.0349575
0.0374916
-0.0315347
0.0361766
0.0324724
-0.0315505
0.0365698
0.0271645
-0.0309607
0.0362685
0.021581
-0.0298484
0.0354319
0.0155976
-0.0280845
0.0340679
-0.0247362
0.00868716
0.0316467
0.0497159
-0.0214185
0.0464845
-0.0237605
0.0426216
-0.0254311
0.0382255
-0.0264093
0.0334132
-0.0267224
0.0283012
-0.0264385
0.0229775
-0.025637
0.0174723
-0.0243431
0.0117849
-0.0223972
-0.0192025
0.00625124
0.0457884
-0.0185368
0.042259
-0.0202311
0.0381721
-0.0213442
0.0336417
-0.0218789
0.0287937
-0.0218744
0.0237483
-0.0213931
0.0186033
-0.020492
0.0134328
-0.0191726
0.00835047
-0.0173148
-0.0146184
0.00376633
0.040853
-0.0153658
0.0371171
-0.0164952
0.0329235
-0.0171506
0.0283958
-0.0173512
0.0236619
-0.0171405
0.0188413
-0.0165725
0.0140375
-0.0156882
0.00934933
-0.0144845
0.00492398
-0.0128895
-0.0107751
0.00108066
0.03481
-0.0120147
0.031002
-0.0126872
0.0268528
-0.0130015
0.0224863
-0.0129847
0.0180238
-0.0126781
0.0135764
-0.0121251
0.00924268
-0.0113545
0.00512274
-0.0103645
0.00135124
-0.00911798
-0.00757046
-0.00185337
0.0275603
-0.00864597
0.0238572
-0.0089841
0.0199332
-0.00907754
0.0159022
-0.00895362
0.0118704
-0.0086463
0.00793238
-0.00818702
0.00417251
-0.00759463
0.000676264
-0.00686827
-0.00245137
-0.00599035
-0.00494994
-0.00507188
0.0190025
-0.00547455
0.0156195
-0.00560106
0.012125
-0.00558299
0.0086135
-0.00544217
0.0051694
-0.00520219
0.00186514
-0.00488277
-0.00123504
-0.00449445
-0.00406716
-0.00403614
-0.00655816
-0.00349935
-0.00288295
-0.00862515
0.00900718
-0.00276291
0.00619093
-0.00278482
0.00334736
-0.00273942
0.000545485
-0.00264029
-0.00215636
-0.00250035
-0.00470975
-0.00232938
-0.00707245
-0.00213175
-0.00920268
-0.00190591
-0.0110546
-0.00164742
-0.00135686
-0.0125807
-0.00264854
-0.000817021
-0.00462253
-0.000810823
-0.00657596
-0.000785995
-0.00846805
-0.000748192
-0.0102667
-0.000701723
-0.0119466
-0.000649462
-0.013486
-0.000592309
-0.0148628
-0.000529096
-0.0160524
-0.000457897
-0.000380088
-0.0170291
-0.016414
-0.0172249
-0.0180109
-0.0187591
-0.0194608
-0.0201102
-0.0207025
-0.0212316
-0.0216895
-0.0220696
0.000282856
-0.0223525
0.00103264
-0.0177789
0.00220882
-0.0137569
0.00379867
-0.010215
0.00579843
-0.00707164
0.00820237
-0.00425731
0.0109959
-0.00171287
0.0141453
0.000616888
0.0176043
0.00279228
0.00489564
0.0213958
0.000198691
-0.0225512
0.000728211
-0.0183085
0.00156716
-0.0145958
0.00270928
-0.0113571
0.0041516
-0.00851396
0.00588885
-0.00599456
0.00791336
-0.00373737
0.010223
-0.00169272
0.0128521
0.000163123
0.00178673
0.015961
0.000118437
-0.0226696
0.000448343
-0.0186384
0.00098908
-0.0151366
0.00174764
-0.0121157
0.00273271
-0.00949903
0.00395333
-0.00721518
0.00542147
-0.00520551
0.00715803
-0.00342928
0.0091985
-0.00187735
-0.00059455
0.0115798
4.62838e-05
-0.0227159
0.000200776
-0.0187928
0.000485295
-0.0154211
0.000921522
-0.0125519
0.00152958
-0.0101071
0.00232854
-0.00801414
0.00333833
-0.00621531
0.00458116
-0.0046721
0.00607675
-0.00337294
-0.00233806
0.00782026
-1.71082e-05
-0.0226988
-1.32977e-05
-0.0187967
5.52237e-05
-0.0154896
0.000223391
-0.0127201
0.000519381
-0.0104031
0.000966223
-0.00846098
0.00158309
-0.00683218
0.00238477
-0.00547378
0.00337621
-0.00436437
-0.00350246
0.00454061
-7.17712e-05
-0.022627
-0.000194129
-0.0186743
-0.000303098
-0.0153806
-0.000352979
-0.0126702
-0.000310956
-0.0104451
-0.000154138
-0.0086178
0.00013219
-0.0071185
0.000554512
-0.00589611
0.00110804
-0.00491791
-0.00416644
0.00177202
-0.000117405
-0.0225096
-0.000340876
-0.0184508
-0.000588582
-0.0151329
-0.000806477
-0.0124523
-0.000959523
-0.0102921
-0.00102695
-0.00855037
-0.000999276
-0.00714618
-0.000876842
-0.00601854
-0.000670334
-0.00512441
-0.00443503
-0.000401744
-0.000153172
-0.0223564
-0.00045118
-0.0181528
-0.000796804
-0.0147873
-0.00112956
-0.0121195
-0.00141351
-0.0100081
-0.00163063
-0.00833325
-0.00177622
-0.00700059
-0.00185606
-0.0059387
-0.00188495
-0.00509552
-0.0044342
-0.00188578
-0.000177771
-0.0221787
-0.000521868
-0.0178087
-0.000922037
-0.0143871
-0.00131261
-0.011729
-0.00165734
-0.00966337
-0.00194078
-0.00804982
-0.00216234
-0.00677903
-0.00233225
-0.00576879
-0.00246901
-0.00495877
-0.00430584
-0.00259737
-0.000188983
-0.000549882
-0.000959653
-0.00134828
-0.00167955
-0.00194015
-0.0021328
-0.00227157
-0.00237881
-0.00248271
-0.00149767
-0.0131268
0.0130973
0.00119423
-0.0128187
0.0101268
0.00511225
-0.00867619
0.00475818
0.00988625
-0.0030813
-0.00169271
0.0152261
0.00288895
-0.00822875
0.0208837
0.0062764
-0.011934
0.0267731
0.00358251
-0.0094719
0.0326918
-0.00708965
0.00117094
0.0382842
-0.0245684
0.018976
0.0431479
-0.0442349
0.0393712
0.0471358
-0.0599751
0.0559872
0.0505288
-0.0665679
0.0631749
0.0538726
-0.0610795
0.0577358
0.0575217
-0.0442192
0.04057
0.0613358
-0.0208189
0.0170048
0.0648091
0.00109954
-0.00457282
0.0674942
0.0164471
-0.0191322
0.0691532
0.0216979
-0.023357
0.0699792
0.0228738
-0.0236998
0.0152181
-0.0151619
0.00073453
-0.0136141
0.0035884
-0.0156726
0.00759614
-0.0126839
0.012395
-0.00788021
0.0177583
-0.00247432
0.0234342
0.000600526
0.0292839
-0.00226718
0.0350515
-0.0128572
0.0403646
-0.0298816
0.0448565
-0.0487268
0.0484322
-0.0635507
0.0514089
-0.0695446
0.0543638
-0.0640344
0.0576964
-0.0475518
0.0613038
-0.0244263
0.0646795
-0.00227616
0.0673445
0.0137821
0.0690247
0.0200177
0.0698932
0.0220052
0.015226
0.00387559
-0.0147118
0.00687022
-0.0186672
0.0108953
-0.016709
0.0156038
-0.0125888
0.0208509
-0.00772139
0.0263965
-0.00494504
0.0320573
-0.00792799
0.0375388
-0.0183388
0.0424687
-0.0348115
0.0465264
-0.0527845
0.0496658
-0.0666901
0.0522254
-0.0721041
0.0547947
-0.0666038
0.057806
-0.0505632
0.0611954
-0.0278157
0.0644657
-0.00554646
0.0671142
0.0111336
0.0688334
0.0182985
0.0697734
0.0210652
0.0151463
0.00779387
-0.0165317
0.010886
-0.0217593
0.0148348
-0.0206577
0.0193344
-0.0170884
0.0243293
-0.0127163
0.0296038
-0.0102196
0.0349395
-0.0132636
0.0400179
-0.0234172
0.0444819
-0.0392755
0.0480642
-0.0563667
0.0507625
-0.0693884
0.0529227
-0.0742643
0.0551278
-0.0688088
0.0578292
-0.0532646
0.0610012
-0.0309877
0.0641652
-0.00871045
0.066804
0.00849478
0.0685805
0.016522
0.0696207
0.020025
0.0149402
0.0123186
-0.0191251
0.0154395
-0.0248802
0.019197
-0.0244152
0.0233704
-0.0212619
0.0279897
-0.0173356
0.0328701
-0.0151
0.0377663
-0.0181598
0.0423498
-0.0280007
0.0462907
-0.0432164
0.0493791
-0.0594552
0.051651
-0.0716603
0.0534456
-0.076059
0.0553232
-0.0706864
0.0577408
-0.0556822
0.0607079
-0.0339548
0.0637725
-0.011775
0.0664123
0.005855
0.0682659
0.0146684
0.0694351
0.0188558
0.0145695
0.0172444
-0.0224562
0.0202976
-0.0279335
0.0237329
-0.0278505
0.0274715
-0.0250005
0.0316137
-0.0214777
0.0360039
-0.0194902
0.040376
-0.0225319
0.0444027
-0.0320274
0.0477911
-0.0466048
0.05039
-0.0620541
0.0522672
-0.0735375
0.0537442
-0.077536
0.0553439
-0.0722861
0.0575163
-0.0578546
0.0603023
-0.0367408
0.063282
-0.0147547
0.0659377
0.00319934
0.06789
0.012716
0.0692173
0.0175285
0.0139969
0.0223271
-0.026359
0.025187
-0.0307935
0.0281676
-0.0308311
0.0313827
-0.0282155
0.0349788
-0.0250738
0.0388183
-0.0233297
0.0426175
-0.0263311
0.0460586
-0.0354685
0.0488931
-0.0494393
0.0510282
-0.0641892
0.0525572
-0.0750665
0.0537752
-0.078754
0.0551565
-0.0736673
0.0571328
-0.0598309
0.059771
-0.0393791
0.062688
-0.0176716
0.0653787
0.000508579
0.067453
0.0106418
0.0689676
0.0160139
0.0131855
0.0272875
-0.0304736
0.0297929
-0.033299
0.0322066
-0.0332448
0.0348439
-0.0308529
0.0378678
-0.0280977
0.041139
-0.0266009
0.044356
-0.0295482
0.047217
-0.0383295
0.0495232
-0.0517455
0.0512392
-0.0659053
0.0524788
-0.0763061
0.0535044
-0.0797795
0.0547334
-0.0748963
0.0565702
-0.0616677
0.0591022
-0.0419111
0.061985
-0.0205545
0.0647342
-0.00224064
0.0669554
0.00842063
0.0686865
0.0142828
0.0120999
0.0319442
-0.0342324
0.0338568
-0.0352115
0.0356036
-0.0349916
0.0376386
-0.0328879
0.0401
-0.030559
0.0428212
-0.0293222
0.045482
-0.0322089
0.0477999
-0.0406474
0.0496289
-0.0535745
0.0509881
-0.0672645
0.0520071
-0.0773252
0.0529115
-0.0806839
0.0540574
-0.0760423
0.055815
-0.0634252
0.058287
-0.0443831
0.0611693
-0.0234367
0.0640036
-0.00507492
0.0663979
0.00602629
0.0683748
0.0123059
0.0107059
0.0363696
-0.0370003
0.0373154
-0.0361574
0.038254
-0.0359301
0.0396705
-0.0343044
0.0415824
-0.032471
0.0437814
-0.0315212
0.0459273
-0.0343547
0.04776
-0.0424801
0.0491837
-0.0549982
0.0502642
-0.0683449
0.0511394
-0.0782005
0.0519954
-0.0815398
0.0531261
-0.077173
0.054864
-0.0651631
0.0573233
-0.0468424
0.0602402
-0.0263537
0.0631875
-0.00802222
0.0657821
0.00343174
0.0680329
0.0100551
0.00897004
0.117269
-0.0280203
-0.126249
0.112323
-0.0312112
0.109582
-0.0331892
0.108599
-0.0333212
0.109085
-0.0329578
0.110924
-0.0333593
0.113541
-0.0369718
0.116132
-0.0450712
0.117904
-0.0567701
0.118405
-0.0688466
0.117633
-0.077428
0.116013
-0.0799201
0.114366
-0.0755254
0.113662
-0.0644594
0.114512
-0.0476922
0.116715
-0.0285568
0.119538
-0.0108454
0.122089
0.000880762
0.12413
0.00801426
0.00791835
0.164622
-0.0171402
-0.175502
0.156122
-0.0227117
0.15035
-0.0274164
0.146905
-0.029877
0.145318
-0.03137
0.145316
-0.0333574
0.146218
-0.0378739
0.14715
-0.0460032
0.147305
-0.0569253
0.146255
-0.0677972
0.144023
-0.0751952
0.141035
-0.0769321
0.138101
-0.072592
0.136236
-0.0625938
0.136157
-0.0476135
0.137759
-0.0301588
0.140307
-0.0133936
0.142808
-0.00161983
0.144917
0.00590514
0.00678192
0.215919
-0.00636881
-0.226691
0.206744
-0.0135366
0.199174
-0.0198463
0.193625
-0.0243278
0.189906
-0.0276507
0.187744
-0.0311963
0.186474
-0.0366039
0.185227
-0.0447556
0.183233
-0.0549316
0.18013
-0.0646934
0.176
-0.071066
0.171293
-0.0722253
0.166786
-0.0680845
0.163477
-0.0592852
0.162165
-0.0463009
0.162859
-0.0308535
0.164877
-0.0154114
0.167156
-0.00389849
0.169238
0.00382281
0.00559141
0.267506
0.00216196
-0.276037
0.259712
-0.00574239
0.252286
-0.0124202
0.245924
-0.0179666
0.240844
-0.0225702
0.236886
-0.0272385
0.233504
-0.0332222
0.229947
-0.0411981
0.225573
-0.0505574
0.220146
-0.0592665
0.213864
-0.0647843
0.207228
-0.0655892
0.200974
-0.0618307
0.196036
-0.054347
0.193239
-0.0435044
0.192728
-0.0303421
0.193931
-0.0166144
0.195778
-0.00574511
0.197704
0.00189674
0.00439239
0.317174
0.00741471
-0.322427
0.311701
-0.000268938
0.305886
-0.00660565
0.300138
-0.0122185
0.294859
-0.0172909
0.290018
-0.022398
0.285193
-0.0283966
0.279784
-0.0357892
0.273327
-0.0441008
0.265757
-0.0516965
0.257425
-0.0564516
0.248924
-0.0570885
0.240971
-0.0538775
0.234399
-0.0477754
0.23001
-0.0391153
0.228076
-0.0284081
0.228204
-0.0167422
0.229398
-0.00693949
0.231018
0.000277256
0.00324447
0.365908
0.00948321
-0.367977
0.362732
0.00290769
0.358861
-0.00273491
0.354436
-0.00779339
0.349752
-0.0126071
0.344854
-0.0174996
0.339417
-0.0229603
0.33296
-0.0293313
0.325149
-0.0362903
0.316054
-0.0426018
0.306164
-0.0465609
0.296184
-0.047109
0.286842
-0.044535
0.278865
-0.0397991
0.272982
-0.0332323
0.26957
-0.0249958
0.268458
-0.0156308
0.268819
-0.00729968
0.269987
-0.000890595
0.00221369
0.416686
0.00911509
-0.416318
0.415413
0.00418145
0.413137
-0.000459658
0.409996
-0.00465173
0.406097
-0.00870852
0.401476
-0.0128785
0.395914
-0.0173987
0.389033
-0.0224501
0.380575
-0.0278325
0.370663
-0.0326897
0.359855
-0.0357523
0.348942
-0.0361964
0.338675
-0.0342684
0.329689
-0.0308122
0.3226
-0.0261438
0.317845
-0.0202405
0.315481
-0.0132668
0.314914
-0.00673312
0.315525
-0.00150186
0.00135926
0.472914
0.00708874
-0.470887
0.47319
0.00390487
0.472145
0.000585087
0.469984
-0.00249047
0.466739
-0.00546311
0.462389
-0.00852883
0.456799
-0.0118086
0.449711
-0.0153625
0.440938
-0.0190592
0.430616
-0.0223672
0.419317
-0.0244535
0.407877
-0.0247566
0.397064
-0.0234553
0.387431
-0.0211789
0.379472
-0.0181848
0.373624
-0.0143926
0.370132
-0.00977511
0.368657
-0.00525761
0.368674
-0.00151956
0.000717615
0.538426
0.00395002
-0.535288
0.539933
0.00239836
0.53988
0.000638262
0.538431
-0.00104234
0.53563
-0.00266148
0.531426
-0.00432506
0.525715
-0.0060975
0.518338
-0.00798584
0.509191
-0.00991179
0.49844
-0.0116161
0.486672
-0.0126856
0.474751
-0.0128358
0.463459
-0.0121638
0.453292
-0.0110116
0.444636
-0.00952883
0.437897
-0.00765337
0.433446
-0.00532374
0.431159
-0.00297068
0.430621
-0.000982278
0.000286393
0.618474
-0.614524
0.620873
0.621511
0.620468
0.617807
0.613482
0.607384
0.599399
0.589487
0.577871
0.565185
0.552349
0.540186
0.529174
0.519645
0.511992
0.506668
0.503697
0.502715
0.167355
0.0227607
-0.166375
0.167558
0.0283307
0.1668
0.0335943
0.164895
0.0384184
0.161676
0.042662
0.157025
0.0461893
0.150927
0.0488898
0.143513
0.0507064
0.135138
0.0516087
0.0513789
0.191554
0.020792
-0.189586
0.193211
0.0266739
0.194408
0.0323973
0.194974
0.0378529
0.194721
0.0429152
0.19346
0.0474499
0.191023
0.051327
0.187283
0.0544461
0.182119
0.0567732
0.0579954
0.21722
0.0182757
-0.214704
0.219852
0.0240418
0.222505
0.029744
0.225048
0.0353104
0.227306
0.0406574
0.229065
0.04569
0.230087
0.050305
0.230141
0.0543924
0.229046
0.0578681
0.060351
0.24568
0.0156201
-0.243024
0.248728
0.0209935
0.252126
0.0263455
0.255807
0.0316302
0.25967
0.0367938
0.263586
0.0417739
0.267393
0.0464985
0.270899
0.0508868
0.273895
0.054872
0.058209
0.277992
0.0129707
-0.275343
0.281212
0.0177737
0.284993
0.0225643
0.289314
0.0273095
0.294134
0.0319735
0.299391
0.0365169
0.304993
0.0408966
0.310815
0.0450649
0.316713
0.0489745
0.0524947
0.314954
0.0103568
-0.31234
0.318271
0.014456
0.322292
0.0185439
0.327007
0.0225944
0.3324
0.0265805
0.338443
0.0304741
0.345093
0.0342461
0.352292
0.0378656
0.359967
0.0413003
0.0444843
0.35747
0.00778628
-0.354899
0.360865
0.0110611
0.365083
0.0143254
0.370119
0.0175581
0.375962
0.0207381
0.382592
0.0238438
0.389985
0.0268536
0.398104
0.0297458
0.406906
0.0324983
0.0350725
0.406944
0.00524484
-0.404402
0.410432
0.00757265
0.414865
0.00989254
0.420234
0.0121891
0.426525
0.0144468
0.433719
0.0166501
0.441789
0.0187836
0.450703
0.0208322
0.46042
0.0227807
0.0246054
0.465503
0.00268341
-0.462942
0.469147
0.00392948
0.473867
0.0051718
0.479655
0.00640179
0.486491
0.00761078
0.494351
0.00879018
0.503203
0.00993149
0.513009
0.0110264
0.523723
0.0120667
0.0130405
0.536555
-0.533872
0.540485
0.545656
0.552058
0.559669
0.568459
0.578391
0.589417
0.601484
0.14319
-0.030257
-0.14083
0.146034
-0.0265149
0.148989
-0.0218964
0.151961
-0.0169072
0.154873
-0.0116273
0.157682
-0.00614232
0.160329
-0.000489044
0.16273
0.00528986
0.164785
0.0111366
0.0169811
0.17057
-0.0319214
-0.168906
0.172383
-0.0283279
0.174304
-0.0238171
0.176333
-0.0189363
0.178451
-0.0137453
0.180644
-0.00833549
0.182896
-0.00274117
0.185175
0.0030115
0.187428
0.0088831
0.0148235
0.201843
-0.032371
-0.201394
0.202483
-0.0289677
0.203256
-0.0245903
0.2042
-0.0198795
0.205357
-0.0149027
0.206746
-0.0097241
0.208376
-0.00437146
0.210253
0.00113495
0.212369
0.0067669
0.0124886
0.236869
-0.0315174
-0.237723
0.236203
-0.0283019
0.235803
-0.0241903
0.235702
-0.0197783
0.235946
-0.0151463
0.23656
-0.0103379
0.237561
-0.00537256
0.238965
-0.00026927
0.240784
0.00494741
0.010249
0.275599
-0.0293569
-0.277759
0.273667
-0.0263702
0.27214
-0.0226634
0.271061
-0.0186993
0.270463
-0.0145479
0.270367
-0.0102421
0.270791
-0.00579702
0.271753
-0.0012307
0.273266
0.00343408
0.00817216
0.318624
-0.0259074
-0.322074
0.315516
-0.0232616
0.312937
-0.020085
0.310939
-0.0167006
0.309547
-0.0131563
0.308782
-0.00947698
0.308662
-0.00567731
0.309206
-0.0017741
0.310427
0.00221231
0.00625978
0.366991
-0.0212044
-0.371694
0.362769
-0.0190398
0.359193
-0.0165087
0.35631
-0.0138178
0.35415
-0.0109958
0.352734
-0.00806094
0.352083
-0.00502679
0.352217
-0.00190827
0.353152
0.00127759
0.00451246
0.422132
-0.0152959
-0.42804
0.41684
-0.0137479
0.412298
-0.0119671
0.408554
-0.0100732
0.40564
-0.00808215
0.403585
-0.00600609
0.402414
-0.0038559
0.402149
-0.00164319
0.402808
0.000619271
0.0029179
0.486175
-0.00821958
-0.493252
0.47983
-0.00740314
0.474332
-0.00646838
0.46973
-0.00547153
0.466067
-0.00441953
0.46338
-0.00331888
0.4617
-0.00217583
0.461054
-0.000997022
0.461463
0.000210363
0.00143871
0.562477
-0.570696
0.555074
0.548605
0.543134
0.538714
0.535395
0.53322
0.532223
0.532433
0.126775
0.00227643
-0.00218344
0.126513
0.00689409
-0.00663226
0.126089
0.0119097
-0.011486
0.125505
0.0177066
-0.0171224
0.124814
0.0246465
-0.0239555
0.124072
0.0337828
-0.0330406
0.123738
0.0450114
-0.0446776
0.123979
0.0626529
-0.0628936
0.128656
0.0805668
-0.0852444
0.119985
-0.132158
0.147933
0.00234086
0.147745