/*--------------------------------*- C++ -*----------------------------------*\
| =========                 |                                                 |
| \\      /  F ield         | OpenFOAM: The Open Source CFD Toolbox           |
|  \\    /   O peration     | Version:  v1912                                 |
|   \\  /    A nd           | Website:  www.openfoam.com                      |
|    \\/     M anipulation  |                                                 |
\*---------------------------------------------------------------------------*/
FoamFile
{
    version     2.0;
    format      ascii;
    class       volVectorField;
    location    "9.75";
    object      U;
}
// * * * * * * * * * * * * * * * * * * * * * * * * * * * * * * * * * * * * * //

dimensions      [0 1 -1 0 0 0 0];


internalField   nonuniform List<vector> 
2400
(
(0.0178691 -0.436584 -9.44022e-21)
(0.00547401 -0.343405 8.62601e-23)
(-0.00412284 -0.273617 3.01507e-21)
(-0.0114477 -0.221681 -5.68709e-21)
(-0.0163671 -0.182982 0)
(-0.0189531 -0.153906 5.01416e-21)
(-0.0196413 -0.131718 0)
(-0.0189354 -0.114392 4.36086e-21)
(-0.0172841 -0.100449 -8.30131e-21)
(-0.0156138 -0.0888489 8.64398e-21)
(0.051618 -0.430083 6.35967e-21)
(0.032231 -0.335465 3.8966e-22)
(0.0185261 -0.266393 2.58461e-22)
(0.00919519 -0.216277 2.87346e-20)
(0.00381308 -0.179805 -1.09167e-20)
(0.00187234 -0.152912 -5.01407e-21)
(0.00260294 -0.132581 1.88256e-20)
(0.00525229 -0.116592 -1.80413e-20)
(0.00919538 -0.103311 0)
(0.0133172 -0.0916254 -1.73569e-20)
(0.0845639 -0.421352 2.75183e-20)
(0.0584658 -0.32663 2.78873e-20)
(0.0416214 -0.259261 -1.28719e-20)
(0.0315523 -0.211703 2.4235e-20)
(0.0271252 -0.177997 2.26029e-20)
(0.0273157 -0.153684 2.10773e-20)
(0.0309776 -0.135504 0)
(0.0371143 -0.121047 1.83676e-20)
(0.0449686 -0.108483 1.71689e-20)
(0.0529123 -0.0966454 1.7732e-20)
(0.116673 -0.410654 -5.64836e-20)
(0.0844664 -0.317429 2.26388e-22)
(0.0656983 -0.252799 -5.29969e-20)
(0.0563251 -0.208495 5.03552e-20)
(0.0543736 -0.178013 -4.59044e-20)
(0.0582212 -0.156596 -2.10769e-20)
(0.0663087 -0.140813 3.92829e-20)
(0.0773844 -0.128082 -5.60131e-20)
(0.090547 -0.116344 -5.14568e-20)
(0.103629 -0.104363 1.83043e-20)
(0.147972 -0.398266 -7.96363e-22)
(0.110673 -0.308265 0)
(0.09153 -0.247416 -1.15163e-21)
(0.0844937 -0.206939 -2.70528e-20)
(0.0866552 -0.179966 -7.28973e-20)
(0.0957222 -0.161592 -2.25325e-20)
(0.109693 -0.148317 0)
(0.127064 -0.137436 0)
(0.146816 -0.126614 0)
(0.16618 -0.114481 0)
(0.178638 -0.384474 6.55061e-20)
(0.137708 -0.299424 -9.62386e-20)
(0.120076 -0.243298 1.75812e-19)
(0.117287 -0.207016 -8.40409e-20)
(0.125325 -0.183583 7.53863e-20)
(0.1412 -0.168119 -2.43726e-20)
(0.162451 -0.157215 4.31493e-20)
(0.187334 -0.148147 -3.96801e-20)
(0.214773 -0.138299 0)
(0.241345 -0.126134 3.67086e-20)
(0.208942 -0.369413 -6.55067e-20)
(0.166451 -0.291084 6.51895e-20)
(0.15248 -0.240441 3.63226e-21)
(0.156079 -0.208433 -2.93424e-22)
(0.171889 -0.188214 2.32286e-21)
(0.196176 -0.175138 9.59413e-20)
(0.226007 -0.16608 -1.37534e-22)
(0.25942 -0.158491 3.62086e-20)
(0.295382 -0.149571 -3.81656e-20)
(0.329842 -0.13763 3.69398e-20)
(0.239072 -0.353171 1.47034e-19)
(0.197795 -0.283334 -1.11363e-19)
(0.190021 -0.238642 4.09636e-21)
(0.202311 -0.210634 0)
(0.227845 -0.192901 5.65193e-20)
(0.262096 -0.181205 -4.90367e-20)
(0.301637 -0.172915 -4.6897e-20)
(0.344284 -0.165938 1.64918e-19)
(0.389231 -0.157536 -4.09916e-20)
(0.432069 -0.146039 -1.5397e-19)
(0.269314 -0.335902 -1.95839e-19)
(0.232618 -0.27603 1.54049e-19)
(0.23392 -0.237434 4.55563e-21)
(0.257293 -0.212846 0)
(0.294478 -0.196517 3.35173e-21)
(0.340118 -0.184695 -5.43672e-20)
(0.390206 -0.17532 9.62302e-20)
(0.442221 -0.166908 4.13904e-20)
(0.495725 -0.157079 -8.05487e-20)
(0.546869 -0.14509 0)
(0.300069 -0.317622 8.12924e-20)
(0.271747 -0.268752 6.20884e-22)
(0.285139 -0.236126 -7.64567e-20)
(0.321984 -0.214234 -3.58614e-21)
(0.372742 -0.198164 -1.2323e-19)
(0.431344 -0.184628 5.43657e-20)
(0.493274 -0.171901 -1.47741e-19)
(0.555466 -0.158735 1.82301e-19)
(0.617035 -0.143236 -8.4405e-20)
(0.675057 -0.127522 0)
(0.618128 -0.00981411 2.58849e-20)
(0.591711 -0.0557738 -1.74604e-20)
(0.562156 -0.0979011 -6.64746e-20)
(0.530415 -0.136152 9.91274e-20)
(0.497323 -0.17063 6.24829e-20)
(0.463601 -0.201575 0)
(0.429825 -0.229333 0)
(0.39641 -0.254324 -1.51664e-19)
(0.363631 -0.277029 2.44457e-19)
(0.331598 -0.297976 -9.431e-20)
(0.833969 0.0167512 -7.16804e-22)
(0.781429 -0.0418735 -8.20936e-22)
(0.723241 -0.0930669 -6.23638e-20)
(0.661566 -0.136475 3.28612e-21)
(0.598453 -0.172157 0)
(0.535766 -0.200562 1.6645e-19)
(0.475088 -0.222473 -1.11159e-19)
(0.417661 -0.23895 1.51035e-19)
(0.36436 -0.251258 -1.89869e-19)
(0.315684 -0.260771 5.66633e-21)
(1.01958 0.0663415 -7.78335e-21)
(0.956482 -0.00143086 -2.30345e-21)
(0.884432 -0.0609255 3.00439e-20)
(0.806093 -0.111205 1.12181e-19)
(0.724204 -0.151872 -5.19654e-20)
(0.641425 -0.183079 -2.51582e-19)
(0.560185 -0.205511 5.57932e-21)
(0.48254 -0.220339 5.6501e-21)
(0.410103 -0.229145 5.55625e-21)
(0.344038 -0.233793 8.72888e-20)
(1.16932 0.115961 1.31203e-20)
(1.1056 0.0431419 -6.54912e-20)
(1.02978 -0.0220873 -5.06419e-20)
(0.944492 -0.0782287 -9.82742e-20)
(0.852655 -0.124314 5.27251e-20)
(0.757339 -0.159977 1.37283e-19)
(0.661539 -0.185501 -4.91775e-21)
(0.567978 -0.20184 0)
(0.47896 -0.210597 -7.48629e-20)
(0.396384 -0.213938 7.88323e-20)
(1.28352 0.158165 0)
(1.22538 0.0839813 2.40515e-20)
(1.15271 0.0159246 -4.49557e-20)
(1.06767 -0.0441026 9.10583e-20)
(0.97297 -0.0946155 1.30965e-19)
(0.871675 -0.134674 -1.2234e-19)
(0.767005 -0.16401 -5.23683e-22)
(0.662069 -0.183149 -7.19895e-20)
(0.55965 -0.193506 1.40039e-19)
(0.462242 -0.197468 6.7535e-20)
(1.36588 0.191199 -1.01037e-20)
(1.31674 0.118503 1.01032e-20)
(1.25158 0.0501932 -3.98619e-20)
(1.17187 -0.0116192 3.98612e-20)
(1.07978 -0.0650709 3.76538e-20)
(0.978027 -0.108699 3.45928e-20)
(0.869684 -0.141628 -1.41075e-19)
(0.757908 -0.16381 3.63489e-21)
(0.645574 -0.176295 6.15596e-20)
(0.535324 -0.181694 -6.14873e-20)
(1.42151 0.215007 0)
(1.38272 0.145732 -3.41625e-20)
(1.32739 0.0791535 -3.53501e-20)
(1.25623 0.0174012 3.53492e-20)
(1.17068 -0.0374509 0)
(1.07285 -0.0835253 -6.51573e-20)
(0.965399 -0.119343 2.98443e-21)
(0.851169 -0.144161 5.92694e-20)
(0.732615 -0.15846 -1.15265e-19)
(0.611556 -0.165089 1.62217e-19)
(1.45577 0.23058 -7.35697e-21)
(1.42724 0.165807 3.27391e-20)
(1.3825 0.102276 -3.13806e-20)
(1.32156 0.041983 3.13795e-20)
(1.24509 -0.0129565 0)
(1.15448 -0.0603891 5.89524e-20)
(1.05179 -0.0982711 -5.57907e-20)
(0.939331 -0.125006 -2.19901e-19)
(0.818614 -0.140094 -4.97503e-20)
(0.688963 -0.146385 -1.99519e-19)
(1.47342 0.239504 7.05697e-21)
(1.45421 0.179543 0)
(1.41976 0.11966 -2.79109e-20)
(1.36949 0.0615998 8.17643e-20)
(1.30339 0.00736249 2.74007e-20)
(1.22217 -0.0407845 -2.74003e-20)
(1.12725 -0.0803204 5.64777e-20)
(1.02046 -0.10861 5.58812e-20)
(0.902347 -0.123282 9.9694e-20)
(0.767753 -0.125378 9.37378e-20)
(1.47819 0.243313 -5.9271e-21)
(1.46692 0.188265 2.43547e-20)
(1.44179 0.132293 -2.58634e-20)
(1.40182 0.0767997 -2.7997e-20)
(1.34642 0.0235211 0)
(1.27569 -0.0253641 -4.71688e-20)
(1.19053 -0.0670904 -5.07911e-20)
(1.09266 -0.098129 1.95738e-19)
(0.98278 -0.113689 0)
(0.850049 -0.108951 0)
(0.537334 0.49908 -6.17565e-20)
(0.577371 0.459652 1.04338e-19)
(0.610937 0.414705 5.56443e-21)
(0.637405 0.365431 0)
(0.656444 0.312837 0)
(0.667764 0.258021 -6.05118e-20)
(0.671372 0.202186 3.37741e-20)
(0.667569 0.146511 -6.60549e-20)
(0.656923 0.0920738 -1.74784e-20)
(0.640208 0.0397624 9.04918e-21)
(0.751135 0.672265 1.03788e-19)
(0.811658 0.629983 -1.31168e-19)
(0.862911 0.577636 3.07116e-20)
(0.903197 0.516831 -1.00056e-19)
(0.931289 0.449192 4.97773e-20)
(0.946446 0.376764 0)
(0.94833 0.301699 1.22497e-19)
(0.937112 0.226181 5.40825e-22)
(0.913491 0.15231 -6.48807e-20)
(0.878642 0.0819736 7.28525e-22)
(0.884589 0.752018 3.89579e-20)
(0.956892 0.715945 1.39353e-20)
(1.01988 0.667569 1.29304e-20)
(1.07138 0.608264 1.16223e-20)
(1.10953 0.53991 4.82717e-20)
(1.13305 0.464579 4.7433e-20)
(1.14102 0.38456 -1.07836e-19)
(1.1331 0.302305 -2.97294e-20)
(1.10956 0.220297 2.63587e-21)
(1.07128 0.14092 7.77713e-21)
(0.965888 0.771202 2.90883e-20)
(1.04403 0.743405 -3.67023e-20)
(1.11403 0.702786 0)
(1.17355 0.650486 -1.3363e-19)
(1.22039 0.588044 -5.08716e-20)
(1.25277 0.517197 1.20156e-19)
(1.26939 0.440049 9.60115e-20)
(1.26938 0.358904 -4.77364e-20)
(1.25241 0.276202 3.82355e-20)
(1.21879 0.194421 1.29195e-20)
(1.0139 0.754469 -2.55185e-20)
(1.09377 0.734392 3.89394e-20)
(1.16709 0.70207 -3.89368e-20)
(1.23139 0.658283 1.18562e-19)
(1.28447 0.60407 -9.32963e-20)
(1.32435 0.540892 -4.2989e-20)
(1.34943 0.470464 -1.10528e-21)
(1.35847 0.394754 -4.08206e-20)
(1.35062 0.315923 -2.32896e-20)
(1.32558 0.236276 0)
(1.04163 0.718701 -2.04438e-20)
(1.12067 0.70486 5.08575e-20)
(1.19462 0.679937 9.51764e-21)
(1.261 0.64427 -8.86901e-20)
(1.31771 0.598556 2.03931e-20)
(1.36286 0.543888 2.83639e-20)
(1.39478 0.481603 3.47685e-20)
(1.41203 0.413309 -3.47665e-20)
(1.41342 0.340795 9.70061e-21)
(1.39817 0.26605 -9.70019e-21)
(1.05766 0.674545 -2.03643e-21)
(1.13475 0.665398 -3.82994e-20)
(1.2076 0.646593 2.35853e-20)
(1.2739 0.617954 7.36269e-20)
(1.33187 0.57991 -4.00787e-20)
(1.37993 0.533263 0)
(1.41654 0.479078 8.31348e-20)
(1.44021 0.418647 -2.96069e-20)
(1.44962 0.353371 3.12046e-20)
(1.44368 0.284887 0)
(1.06754 0.628341 2.55232e-20)
(1.14237 0.622978 4.28029e-20)
(1.21301 0.609177 -3.88688e-21)
(1.27754 0.58627 1.51352e-20)
(1.33484 0.554582 3.29505e-20)
(1.38374 0.514796 0)
(1.42293 0.467845 -2.60406e-20)
(1.45102 0.414797 -2.52551e-20)
(1.46665 0.356661 -2.99051e-20)
(1.46861 0.294758 7.09807e-21)
(1.07533 0.584384 -9.08455e-21)
(1.14732 0.582626 -2.36968e-20)
(1.21455 0.572858 1.40119e-20)
(1.27592 0.554304 -7.28002e-20)
(1.33107 0.527488 -1.65223e-20)
(1.37926 0.493136 1.6521e-20)
(1.41941 0.452147 -1.73004e-20)
(1.45013 0.405472 -2.15866e-20)
(1.47016 0.353743 0)
(1.47834 0.298019 -1.29958e-20)
(1.08672 0.544728 0)
(1.15408 0.544618 0)
(1.21587 0.537353 -6.2096e-20)
(1.27245 0.521859 -2.41759e-20)
(1.32404 0.498835 7.68496e-20)
(1.37008 0.469063 0)
(1.40974 0.433196 5.89533e-20)
(1.44155 0.392052 -1.96011e-20)
(1.46423 0.346144 -2.14887e-20)
(1.47686 0.296271 1.19083e-20)
(0.596449 0.18843 -2.5564e-22)
(0.555767 0.203853 1.28227e-20)
(0.509149 0.22226 -6.81701e-21)
(0.4558 0.244823 0)
(0.394811 0.273065 7.94185e-21)
(0.325678 0.308584 0)
(0.24883 0.352441 -9.24378e-21)
(0.166532 0.403797 -5.23687e-21)
(0.0869121 0.45736 -2.4665e-22)
(0.0321943 0.498968 -5.25542e-21)
(0.618712 0.246064 -2.49243e-20)
(0.579868 0.266296 0)
(0.535147 0.289966 2.67712e-20)
(0.484062 0.317985 -2.79336e-20)
(0.425753 0.351392 -7.94177e-21)
(0.359701 0.390817 1.68145e-20)
(0.286231 0.435562 -2.633e-20)
(0.207251 0.481859 -4.51335e-22)
(0.129982 0.519648 3.92598e-20)
(0.0746226 0.527079 1.06972e-20)
(0.648471 0.300909 2.25519e-20)
(0.61218 0.325728 2.14247e-20)
(0.570052 0.354428 2.306e-20)
(0.521984 0.387605 2.47842e-20)
(0.467113 0.42582 2.65448e-20)
(0.404778 0.468738 2.829e-20)
(0.334969 0.513929 2.99376e-20)
(0.258838 0.554785 1.70935e-20)
(0.181976 0.576725 -3.89242e-21)
(0.121186 0.550817 3.30103e-20)
(0.685354 0.351985 -6.60516e-20)
(0.652243 0.381049 1.88039e-20)
(0.613341 0.414411 2.12179e-20)
(0.56898 0.452283 -7.0984e-20)
(0.51823 0.494749 -2.65444e-20)
(0.460161 0.540533 -1.76578e-21)
(0.39421 0.585542 -6.00917e-20)
(0.320397 0.620502 5.79664e-20)
(0.242027 0.626743 -6.33432e-20)
(0.171298 0.569212 -4.80439e-20)
(0.728828 0.398403 0)
(0.699412 0.43126 -1.64527e-20)
(0.664284 0.468784 0)
(0.624228 0.510723 0)
(0.578171 0.556692 -1.91627e-20)
(0.524789 0.604514 2.42516e-20)
(0.462759 0.648537 -6.88358e-20)
(0.390643 0.677089 -2.35343e-20)
(0.308904 0.66801 0)
(0.22415 0.581402 -2.33112e-20)
(0.778198 0.439391 3.62497e-20)
(0.752857 0.475496 1.64524e-20)
(0.721946 0.516552 -2.81927e-20)
(0.686677 0.561768 2.91352e-20)
(0.645741 0.610311 -1.04465e-20)
(0.597301 0.65916 4.92292e-20)
(0.53909 0.70125 2.4914e-20)
(0.467936 0.722853 -2.44028e-20)
(0.381045 0.699065 -8.03013e-21)
(0.278759 0.586687 0)
(0.83258 0.474338 2.94553e-20)
(0.811546 0.513054 6.81658e-20)
(0.785176 0.556874 -1.79871e-20)
(0.755047 0.604416 -5.46036e-20)
(0.719495 0.654442 4.98122e-20)
(0.676058 0.703155 -5.23337e-20)
(0.621369 0.74226 5.24232e-20)
(0.550326 0.756381 -1.42127e-20)
(0.456622 0.718738 2.50262e-20)
(0.334006 0.584557 0)
(0.890842 0.502897 -3.6474e-21)
(0.874192 0.543419 -2.24231e-20)
(0.852584 0.589059 -8.91088e-22)
(0.827832 0.637819 -1.22626e-20)
(0.797763 0.688103 -9.91061e-21)
(0.75918 0.735412 7.2919e-21)
(0.707512 0.770425 0)
(0.635611 0.776589 -1.48222e-20)
(0.533597 0.726198 7.57668e-21)
(0.388687 0.574717 -9.9415e-21)
(0.951521 0.525191 0)
(0.939242 0.566476 1.9313e-20)
(0.922642 0.612714 -3.34753e-20)
(0.90343 0.661371 1.55567e-20)
(0.878741 0.710547 -1.03579e-20)
(0.844621 0.755107 -7.29178e-21)
(0.795244 0.784925 -1.02541e-20)
(0.721413 0.782765 -1.51059e-20)
(0.609813 0.720982 -3.25755e-20)
(0.441584 0.557121 4.71564e-20)
(1.01109 0.538782 0)
(1.00312 0.579976 4.36608e-21)
(0.992662 0.626216 -4.74593e-21)
(0.979601 0.67398 -3.09151e-21)
(0.960259 0.720976 6.53296e-23)
(0.930108 0.761596 -1.32963e-20)
(0.882141 0.785252 3.67521e-21)
(0.805254 0.77458 1.02944e-20)
(0.683095 0.702982 5.44891e-20)
(0.491554 0.531921 -2.75781e-20)
(0.771957 -0.32134 0)
(0.742858 -0.342864 -7.18987e-20)
(0.705975 -0.362355 1.51712e-19)
(0.660495 -0.37483 -1.23335e-19)
(0.601636 -0.375559 4.60363e-20)
(0.523348 -0.356947 -4.59709e-20)
(0.417994 -0.308004 -5.35162e-20)
(0.275973 -0.214269 -5.82148e-20)
(0.0858809 -0.0574501 -5.88219e-21)
(-0.16672 0.185367 6.16635e-20)
(0.729411 -0.288168 0)
(0.699096 -0.308261 -8.14488e-20)
(0.660285 -0.326914 3.96537e-20)
(0.613093 -0.339661 9.17863e-20)
(0.553729 -0.341657 -4.83145e-20)
(0.476874 -0.325275 -1.0767e-19)
(0.375878 -0.279376 5.23783e-20)
(0.24255 -0.189005 -8.2525e-21)
(0.0678402 -0.034703 1.31928e-19)
(-0.158043 0.208859 -9.9441e-20)
(0.689358 -0.248576 -1.35752e-21)
(0.657116 -0.266671 -4.80917e-20)
(0.616645 -0.283789 1.88285e-19)
(0.567868 -0.295852 -4.85436e-20)
(0.507719 -0.298063 -5.32665e-21)
(0.431729 -0.28298 5.57241e-20)
(0.334374 -0.239654 0)
(0.209089 -0.153159 -7.47123e-21)
(0.049537 -0.00371648 -1.09063e-19)
(-0.148823 0.235012 7.00154e-20)
(0.654224 -0.204607 5.13796e-20)
(0.619652 -0.219943 -5.10031e-20)
(0.577294 -0.23445 5.23325e-20)
(0.526781 -0.244566 -2.71845e-21)
(0.465561 -0.245724 1.19204e-19)
(0.389977 -0.230829 -1.23502e-21)
(0.295653 -0.1894 3.78663e-21)
(0.177732 -0.107054 -6.44007e-21)
(0.0327682 0.0354227 8.57813e-20)
(-0.138232 0.263828 0)
(0.624819 -0.156195 -1.5551e-19)
(0.587899 -0.168209 2.57495e-20)
(0.543625 -0.179322 -5.29491e-20)
(0.491372 -0.186487 5.72403e-20)
(0.42899 -0.185482 -2.91165e-20)
(0.353556 -0.169714 1.02456e-19)
(0.261806 -0.129459 -1.10417e-19)
(0.15058 -0.051388 2.00198e-19)
(0.0193157 0.0822388 -1.29295e-19)
(-0.125462 0.295086 0)
(0.601758 -0.103676 0)
(0.562748 -0.111938 -2.57501e-20)
(0.516759 -0.11906 0)
(0.462961 -0.122464 0)
(0.399531 -0.118344 -3.27638e-20)
(0.324208 -0.100749 -1.09866e-19)
(0.23475 -0.0609719 -4.14954e-20)
(0.129586 0.012776 4.21691e-20)
(0.0108647 0.135892 0)
(-0.109747 0.328364 4.75087e-20)
(0.585451 -0.0477213 2.90348e-20)
(0.544848 -0.0519064 -8.00168e-20)
(0.497567 -0.0545633 -2.94308e-20)
(0.44262 -0.0535483 -3.20109e-20)
(0.378467 -0.0455183 -3.48367e-20)
(0.303425 -0.0252755 -7.63146e-20)
(0.216154 0.0146424 8.09083e-20)
(0.116479 0.0840529 -8.9066e-20)
(0.00892008 0.195222 -1.32728e-21)
(-0.090403 0.363057 -2.48164e-20)
(0.576175 0.0101265 2.81902e-20)
(0.534672 0.0106267 2.70999e-20)
(0.486718 0.0129658 2.94313e-20)
(0.43119 0.0189846 3.20115e-20)
(0.366823 0.0315884 3.48373e-20)
(0.292421 0.0551542 3.79081e-20)
(0.207394 0.0957198 4.12112e-20)
(0.1127 0.160774 -2.30203e-20)
(0.0147437 0.258788 4.83776e-20)
(-0.066872 0.398401 4.93533e-20)
(0.575093 0.0692049 2.76133e-20)
(0.533113 0.0747518 0)
(0.484919 0.0824082 -3.01233e-20)
(0.429383 0.0938234 3.14312e-20)
(0.3654 0.111466 -8.63809e-21)
(0.292127 0.138834 -1.93853e-20)
(0.209525 0.180399 5.1477e-20)
(0.119358 0.241041 8.6141e-22)
(0.0293077 0.324922 5.9061e-22)
(-0.0387453 0.433513 1.20764e-20)
(0.581884 0.129072 -6.77402e-21)
(0.54015 0.139584 -6.78754e-21)
(0.492372 0.152619 7.07589e-21)
(0.437543 0.169597 0)
(0.374666 0.192516 8.63822e-21)
(0.303129 0.223942 0)
(0.223235 0.26667 -1.01904e-20)
(0.137191 0.322776 5.53526e-21)
(0.0532653 0.391777 2.82563e-22)
(-0.00576935 0.467418 -1.78492e-20)
(0.831767 -0.354518 0)
(0.881877 -0.376668 0)
(0.927912 -0.393314 1.02635e-21)
(0.970018 -0.402685 -1.48363e-20)
(1.00824 -0.404881 3.91075e-20)
(1.04225 -0.400478 0)
(1.07022 -0.389752 -2.01668e-21)
(1.0901 -0.372656 -3.63511e-22)
(1.10077 -0.349588 2.51227e-21)
(1.1006 -0.321098 1.5238e-22)
(0.79564 -0.37208 6.29666e-20)
(0.847825 -0.393617 5.34149e-20)
(0.896702 -0.40866 1.85862e-20)
(0.940963 -0.41596 1.32677e-20)
(0.979927 -0.415415 0)
(1.01291 -0.407386 0)
(1.0381 -0.392784 2.17577e-21)
(1.05384 -0.371429 1.82613e-22)
(1.05878 -0.34402 0)
(1.05144 -0.311545 -2.61537e-21)
(0.75712 -0.389238 -1.3185e-19)
(0.809203 -0.408342 -3.07398e-20)
(0.858496 -0.420195 -8.91813e-20)
(0.902738 -0.424027 -1.22294e-20)
(0.940549 -0.419674 1.37461e-20)
(0.970728 -0.407459 0)
(0.991604 -0.388194 -1.05055e-21)
(1.00161 -0.362292 8.98586e-22)
(0.99942 -0.330746 -4.58756e-21)
(0.98388 -0.294896 1.45153e-21)
(0.710773 -0.400244 1.00753e-19)
(0.761357 -0.416709 -5.72475e-20)
(0.80899 -0.424787 2.55787e-20)
(0.85109 -0.424259 -3.47432e-21)
(0.885754 -0.415209 -1.32934e-20)
(0.911386 -0.398143 0)
(0.926363 -0.373958 1.58506e-22)
(0.929255 -0.343607 0)
(0.918986 -0.308438 4.78697e-21)
(0.894887 -0.27013 0)
(0.650596 -0.39894 -3.30052e-20)
(0.698558 -0.412277 3.30027e-20)
(0.742767 -0.416158 1.94242e-20)
(0.780658 -0.410859 -3.21962e-20)
(0.810124 -0.396857 9.56624e-21)
(0.829419 -0.374996 3.20603e-21)
(0.837048 -0.34647 -2.50882e-21)
(0.831873 -0.312679 2.50869e-21)
(0.813243 -0.275332 -1.78644e-21)
(0.78107 -0.236392 1.78639e-21)
(0.56949 -0.377465 7.28344e-20)
(0.613225 -0.387207 -7.51247e-21)
(0.652105 -0.38686 -2.69256e-20)
(0.683755 -0.377125 -3.17552e-21)
(0.706137 -0.358932 -1.49691e-20)
(0.717639 -0.333506 4.28602e-21)
(0.717063 -0.302405 -5.60726e-21)
(0.70371 -0.267402 3.33997e-21)
(0.677467 -0.230481 -3.70162e-21)
(0.638862 -0.193753 0)
(0.458663 -0.325284 3.68464e-20)
(0.495747 -0.331691 -3.61747e-20)
(0.527052 -0.328105 0)
(0.550484 -0.315589 4.1647e-21)
(0.564325 -0.295476 1.76038e-20)
(0.567318 -0.269356 3.80845e-24)
(0.558706 -0.239066 2.1899e-21)
(0.538312 -0.206604 4.09888e-21)
(0.506585 -0.174049 1.02952e-20)
(0.464587 -0.143445 -2.2801e-21)
(0.307236 -0.228974 3.99017e-20)
(0.334339 -0.233752 -9.04743e-21)
(0.355432 -0.229691 -8.84246e-21)
(0.368869 -0.218085 -8.44604e-21)
(0.373393 -0.200509 -2.6671e-20)
(0.36822 -0.178742 1.73924e-21)
(0.353105 -0.154694 -6.41559e-21)
(0.328372 -0.130319 -3.2863e-21)
(0.294902 -0.107515 3.29174e-22)
(0.254076 -0.0880061 1.4613e-21)
(0.101871 -0.0722076 -4.10765e-21)
(0.114345 -0.0795936 -7.36148e-20)
(0.122006 -0.0807434 4.53153e-20)
(0.123769 -0.0769262 -1.28109e-20)
(0.118913 -0.0695784 1.69964e-20)
(0.107176 -0.0602702 0)
(0.0887391 -0.0505914 -1.92664e-21)
(0.0642181 -0.0420658 4.60056e-21)
(0.0346256 -0.0360651 -5.33557e-22)
(0.00128495 -0.0337356 2.19984e-22)
(-0.17569 0.164246 -4.13051e-20)
(-0.18522 0.145463 5.41903e-20)
(-0.195902 0.128367 -4.37806e-20)
(-0.208067 0.112301 1.10641e-20)
(-0.221831 0.0966178 -1.1064e-20)
(-0.237107 0.0806587 4.4157e-21)
(-0.253606 0.063793 -7.57149e-21)
(-0.27086 0.0454682 6.9651e-21)
(-0.288258 0.0252458 3.29032e-21)
(-0.305108 0.00281125 -4.95333e-21)
(1.08794 -0.288012 1.48655e-21)
(1.06145 -0.25156 -7.4473e-21)
(1.02041 -0.213408 9.8947e-21)
(0.964938 -0.175712 -3.14721e-20)
(0.896185 -0.141064 0)
(0.816348 -0.112334 2.2604e-20)
(0.728331 -0.0923783 2.68322e-20)
(0.634896 -0.0836192 1.38086e-21)
(0.534669 -0.0880659 0)
(0.415774 -0.10234 0)
(1.03048 -0.275264 1.8121e-21)
(0.995126 -0.236838 0)
(0.945304 -0.198291 1.04262e-20)
(0.881871 -0.161976 1.11547e-20)
(0.806658 -0.130434 0)
(0.722295 -0.106163 0)
(0.631703 -0.0912847 8.44687e-20)
(0.537065 -0.0870382 -2.94374e-20)
(0.437209 -0.0932842 6.08786e-20)
(0.326306 -0.10353 6.1834e-20)
(0.954179 -0.256369 -1.88916e-21)
(0.910188 -0.217147 9.68314e-21)
(0.852582 -0.179447 1.13029e-20)
(0.782915 -0.145617 -1.13028e-20)
(0.703564 -0.117935 0)
(0.61744 -0.0983467 -2.82714e-20)
(0.527448 -0.0881087 -3.04515e-20)
(0.435657 -0.0872908 -4.5909e-22)
(0.342016 -0.0941695 -9.43687e-20)
(0.245205 -0.102256 -1.28556e-19)
(0.85677 -0.230612 0)
(0.805226 -0.192062 -1.01043e-20)
(0.741646 -0.15672 0)
(0.668177 -0.126741 0)
(0.587575 -0.103988 0)
(0.502877 -0.0897698 2.97674e-20)
(0.416916 -0.0845379 -6.0156e-20)
(0.331779 -0.0875323 -3.22362e-20)
(0.248349 -0.0964097 6.53532e-20)
(0.167521 -0.105979 3.37609e-20)
(0.735837 -0.197966 2.66557e-21)
(0.678819 -0.162259 -2.6655e-21)
(0.612004 -0.131344 1.32001e-20)
(0.53794 -0.107015 -1.32e-20)
(0.459541 -0.0906024 -1.50243e-20)
(0.379769 -0.0827678 -1.64831e-20)
(0.301261 -0.0832987 6.43002e-20)
(0.226005 -0.0909204 -3.27929e-20)
(0.155274 -0.103169 -6.95255e-20)
(0.0905347 -0.116054 3.4838e-20)
(0.58899 -0.159322 0)
(0.529666 -0.129216 6.36577e-21)
(0.463255 -0.105152 1.42449e-20)
(0.392445 -0.0884349 7.74561e-22)
(0.320055 -0.0798189 1.57596e-20)
(0.248767 -0.0793806 4.95985e-20)
(0.180866 -0.0864167 -6.82267e-20)
(0.118077 -0.0993877 3.59637e-20)
(0.0616255 -0.115941 3.71915e-20)
(0.0127761 -0.132988 8.15901e-22)
(0.413856 -0.116677 -3.20244e-21)
(0.356493 -0.0953829 -1.03946e-20)
(0.294952 -0.0807884 1.54092e-20)
(0.23177 -0.0736457 -3.09834e-20)
(0.16942 -0.0741662 -4.97046e-20)
(0.110123 -0.0819688 1.72683e-20)
(0.0556929 -0.0960571 7.22521e-20)
(0.00747174 -0.114837 0)
(-0.0335904 -0.136205 3.94118e-20)
(-0.0666582 -0.157739 -3.83983e-20)
(0.207593 -0.0732415 -1.71376e-21)
(0.157512 -0.0642946 -4.46016e-22)
(0.106045 -0.0618333 8.40884e-21)
(0.0552997 -0.0660879 3.50169e-20)
(0.00719713 -0.0768396 -3.6735e-20)
(-0.0366305 -0.0934305 3.47501e-22)
(-0.0749104 -0.114784 1.33885e-21)
(-0.106734 -0.139446 1.13805e-21)
(-0.131488 -0.165669 9.26118e-22)
(-0.148732 -0.191579 -4.07372e-20)
(-0.0343224 -0.0359311 -2.3861e-22)
(-0.0705631 -0.0430409 1.67479e-20)
(-0.105816 -0.0552342 1.32433e-21)
(-0.13865 -0.0723517 -3.7599e-20)
(-0.167847 -0.0939371 0)
(-0.192441 -0.119283 -2.27853e-20)
(-0.211724 -0.147462 4.34877e-20)
(-0.225216 -0.177355 -2.18242e-20)
(-0.232619 -0.207695 9.25857e-20)
(-0.233763 -0.237172 -9.26031e-20)
(-0.320655 -0.0220504 -2.4809e-21)
(-0.334175 -0.0489925 4.41271e-21)
(-0.345043 -0.0779312 2.0716e-20)
(-0.352733 -0.108578 -4.25451e-20)
(-0.356856 -0.140531 -4.96452e-22)
(-0.357156 -0.173321 4.68465e-20)
(-0.353484 -0.206423 -4.6847e-20)
(-0.345767 -0.239269 4.99203e-20)
(-0.333995 -0.271255 -1.2227e-19)
(-0.318175 -0.301774 4.91181e-20)
(-0.298227 -0.330209 4.91527e-20)
(-0.228632 -0.264588 -9.39848e-20)
(-0.158178 -0.215587 -4.20643e-20)
(-0.0907882 -0.177404 1.01752e-21)
(-0.0263853 -0.147736 1.90599e-22)
(0.0355913 -0.125213 3.57829e-20)
(0.095284 -0.108512 3.2317e-20)
(0.152891 -0.096718 -1.24022e-19)
(0.209732 -0.089951 5.83505e-20)
(0.265378 -0.0854077 0)
(-0.27481 -0.355677 -7.35563e-20)
(-0.217738 -0.288958 9.52743e-20)
(-0.159995 -0.236803 -3.49056e-22)
(-0.105434 -0.194687 0)
(-0.0538485 -0.160623 3.75438e-20)
(-0.00456782 -0.1332 -7.21337e-20)
(0.0427689 -0.111016 6.76833e-20)
(0.0887339 -0.093056 -9.41056e-20)
(0.134816 -0.0795679 5.96315e-20)
(0.17953 -0.0701956 0)
(-0.248331 -0.378085 2.53485e-20)
(-0.201806 -0.309825 -2.29556e-20)
(-0.155054 -0.254753 -2.43623e-22)
(-0.111625 -0.209377 0)
(-0.0710173 -0.172025 3.85382e-20)
(-0.0324227 -0.141383 -3.66191e-20)
(0.00466327 -0.116243 -3.40631e-20)
(0.0408686 -0.0958759 7.45573e-22)
(0.0771761 -0.0805557 -2.93002e-20)
(0.111702 -0.0702784 1.26061e-19)
(-0.219255 -0.397284 -4.8344e-20)
(-0.181702 -0.326854 4.77332e-20)
(-0.144569 -0.269085 -1.8476e-22)
(-0.110889 -0.221118 8.2912e-20)
(-0.0798297 -0.181513 -7.86578e-20)
(-0.050509 -0.149007 7.35897e-20)
(-0.0224057 -0.122503 -6.9303e-20)
(0.00500727 -0.101366 -3.13435e-20)
(0.0323419 -0.0856835 9.25803e-20)
(0.0579871 -0.075224 3.22658e-20)
(-0.187996 -0.413137 4.83436e-20)
(-0.158323 -0.339877 -2.41769e-20)
(-0.129834 -0.279568 6.69719e-23)
(-0.104746 -0.229594 2.15039e-20)
(-0.0820218 -0.188529 5.89821e-20)
(-0.06076 -0.155065 -1.83258e-20)
(-0.040475 -0.128057 3.48874e-20)
(-0.0207605 -0.106758 -3.29117e-20)
(-0.00122896 -0.0909416 0)
(0.016893 -0.0801625 -9.80066e-20)
(-0.155035 -0.425461 4.78498e-20)
(-0.132654 -0.348942 0)
(-0.112049 -0.286169 -4.44785e-20)
(-0.0945264 -0.23467 -6.26222e-20)
(-0.0790558 -0.192763 2.02017e-20)
(-0.0647466 -0.158963 -1.86451e-20)
(-0.0511556 -0.131967 0)
(-0.0379953 -0.110827 0)
(-0.0250272 -0.0949997 0)
(-0.0131381 -0.0838824 0)
(-0.120981 -0.434204 -3.58737e-20)
(-0.105571 -0.354165 -4.78145e-20)
(-0.0921395 -0.289084 4.50482e-20)
(-0.0813145 -0.236466 -4.25525e-20)
(-0.0720882 -0.194229 5.12071e-23)
(-0.0636192 -0.160565 -1.89627e-20)
(-0.0555432 -0.13394 0)
(-0.0476871 -0.113176 -1.69671e-20)
(-0.0399388 -0.09746 1.57815e-20)
(-0.032968 -0.0860779 -5.03528e-20)
(-0.086328 -0.439494 2.39033e-20)
(-0.0777541 -0.355757 -2.50379e-23)
(-0.0708998 -0.288683 1.14568e-20)
(-0.0659455 -0.235393 2.12755e-20)
(-0.0619367 -0.193292 2.00751e-20)
(-0.0581425 -0.160171 1.89629e-20)
(-0.054318 -0.134216 0)
(-0.050413 -0.114025 1.69673e-20)
(-0.0464501 -0.0985696 1.60658e-20)
(-0.0430646 -0.0870253 1.67948e-20)
(-0.0514581 -0.441513 6.0783e-21)
(-0.0497458 -0.354137 2.42462e-20)
(-0.0489285 -0.285513 -2.03925e-22)
(-0.0489953 -0.232059 -1.61875e-20)
(-0.0491297 -0.19057 1.02767e-20)
(-0.0487827 -0.158387 -4.84683e-21)
(-0.0478792 -0.133391 -1.80674e-20)
(-0.0465216 -0.113963 1.73148e-20)
(-0.0448723 -0.0989048 0)
(-0.0435958 -0.0872951 1.69432e-20)
(-0.0166657 -0.440488 -3.06657e-21)
(-0.0219263 -0.349834 -8.50293e-23)
(-0.0266088 -0.280243 -2.9471e-21)
(-0.0307963 -0.227212 -5.45218e-21)
(-0.0339336 -0.186845 0)
(-0.0357358 -0.156006 4.84686e-21)
(-0.0363541 -0.132263 0)
(-0.0360744 -0.113788 -4.31154e-21)
(-0.0351993 -0.0992391 4.13571e-21)
(-0.0344971 -0.0876166 -4.26486e-21)
(-0.016315 -0.0579461 -1.83081e-21)
(-0.0106831 -0.0601158 8.11879e-22)
(0.0417158 -0.0509457 0)
(0.0876789 -0.0345847 -1.92905e-22)
(0.151328 -0.010811 3.92811e-22)
(0.215312 0.0148864 -2.47966e-22)
(0.284582 0.0327767 2.31261e-22)
(0.356506 0.0335479 0)
(0.432757 0.0119688 0)
(0.510299 -0.0276175 0)
(0.58183 -0.0712862 0)
(0.639682 -0.102866 4.30058e-23)
(0.683749 -0.111399 -4.01463e-23)
(0.72355 -0.0945866 -7.44198e-24)
(0.769885 -0.0589603 6.95091e-24)
(0.824832 -0.01985 -9.61972e-24)
(0.879737 0.0103679 0)
(0.927083 0.0230554 -1.37839e-26)
(0.958317 0.0270139 1.28931e-26)
(0.98347 0.0175832 0)
(0.0182823 -0.0593154 3.91215e-21)
(0.0244506 -0.0697353 0)
(0.0779228 -0.0635432 0)
(0.121915 -0.0485095 9.91169e-22)
(0.182532 -0.025159 -2.85004e-21)
(0.244297 0.000908305 1.20001e-21)
(0.312801 0.019191 5.70997e-22)
(0.385606 0.0204759 -3.91172e-22)
(0.46333 -0.000385394 2.73062e-22)
(0.541376 -0.0385442 -4.05056e-22)
(0.611357 -0.0799558 1.77304e-22)
(0.665588 -0.10912 0)
(0.704358 -0.116118 -5.31193e-23)
(0.73772 -0.0990892 2.00724e-23)
(0.777602 -0.063933 2.75561e-23)
(0.827639 -0.0249128 9.6321e-24)
(0.879778 0.0059739 9.84075e-25)
(0.926188 0.0199094 2.83072e-25)
(0.95725 0.0249396 0)
(0.9828 0.0166922 0)
(0.0663738 -0.0626446 0)
(0.0738906 -0.0797782 -5.62764e-21)
(0.128433 -0.0759511 1.02982e-20)
(0.169929 -0.0619456 -4.13636e-21)
(0.226289 -0.039072 0)
(0.284465 -0.012864 0)
(0.350636 0.00592962 5.78842e-22)
(0.422676 0.00762041 -1.08017e-21)
(0.500133 -0.0124221 -4.11048e-23)
(0.577003 -0.0489106 -4.1291e-23)
(0.644077 -0.0879262 0)
(0.693848 -0.114653 0)
(0.726982 -0.120155 0)
(0.753825 -0.102982 -5.91001e-23)
(0.787121 -0.068431 -2.27015e-23)
(0.831903 -0.0296774 0)
(0.880825 0.0017239 0)
(0.925887 0.0168144 -1.20405e-24)
(0.956505 0.0228697 5.27333e-25)
(0.982252 0.0157944 -1.99598e-25)
(0.128091 -0.0682635 1.04931e-21)
(0.13728 -0.0902797 4.9758e-21)
(0.192246 -0.0880007 -5.97447e-21)
(0.23048 -0.0746136 4.65429e-22)
(0.281329 -0.0522118 0)
(0.334632 -0.0261108 0)
(0.396941 -0.00707285 -1.19935e-21)
(0.466532 -0.0048493 1.51987e-21)
(0.542034 -0.0238432 -3.01177e-22)
(0.616148 -0.0584953 -2.26042e-22)
(0.679099 -0.0950631 -5.88926e-22)
(0.723721 -0.119409 3.58574e-22)
(0.751015 -0.123494 6.58338e-23)
(0.771404 -0.106254 1.63553e-22)
(0.798134 -0.0724263 2.25168e-23)
(0.837457 -0.0341025 0)
(0.882804 -0.00234231 0)
(0.926151 0.0137985 0)
(0.956073 0.0208217 -3.13148e-25)
(0.981824 0.0148965 0)
(0.203405 -0.0766088 -1.06913e-21)
(0.214074 -0.100971 -5.92219e-21)
(0.267965 -0.0994059 5.50517e-21)
(0.301886 -0.0862183 -2.53105e-21)
(0.34599 -0.0642592 3.98422e-21)
(0.393168 -0.0384158 0)
(0.450251 -0.0195067 -4.4875e-22)
(0.515898 -0.0166243 7.3638e-22)
(0.587833 -0.0343779 -1.52577e-23)
(0.657749 -0.0671077 0)
(0.715541 -0.101261 0)
(0.754487 -0.123353 2.41734e-22)
(0.77587 -0.126138 -2.91328e-22)
(0.78999 -0.108913 6.10219e-23)
(0.810311 -0.0759083 -2.72379e-23)
(0.844102 -0.0381602 -4.00826e-23)
(0.885617 -0.00619346 2.48507e-23)
(0.926939 0.0108867 -3.12424e-24)
(0.955938 0.0188122 1.40911e-25)
(0.981511 0.0140055 0)
(0.292144 -0.0877071 -1.90645e-20)
(0.303453 -0.111461 1.30852e-20)
(0.353797 -0.10975 -1.84205e-21)
(0.382058 -0.0964268 -9.8936e-21)
(0.418266 -0.0749185 -6.26259e-21)
(0.458264 -0.0494972 5.12686e-21)
(0.508944 -0.0307017 -6.58732e-24)
(0.569311 -0.0273008 -1.5144e-21)
(0.636272 -0.0438077 -5.50147e-22)
(0.700762 -0.0745992 1.08809e-21)
(0.752569 -0.106447 -2.65929e-22)
(0.785483 -0.126471 3.51884e-22)
(0.801002 -0.128107 5.58523e-23)
(0.809139 -0.110979 2.21942e-22)
(0.82332 -0.0788788 0)
(0.851629 -0.0418324 0)
(0.88915 -0.00980374 -1.32195e-23)