/*--------------------------------*- C++ -*----------------------------------*\
  =========                 |
  \\      /  F ield         | OpenFOAM: The Open Source CFD Toolbox
   \\    /   O peration     | Website:  https://openfoam.org
    \\  /    A nd           | Version:  6.0
     \\/     M anipulation  |
\*---------------------------------------------------------------------------*/
FoamFile
{
    version     2.0;
    format      ascii;
    class       volVectorField;
    location    "8";
    object      U;
}
// * * * * * * * * * * * * * * * * * * * * * * * * * * * * * * * * * * * * * //

dimensions      [0 1 -1 0 0 0 0];

internalField   nonuniform List<vector> 
19200
(
(0.00655488 -0.479824 -4.27813e-22)
(0.0047731 -0.442802 2.3718e-22)
(0.00260803 -0.408682 1.21746e-22)
(8.55078e-05 -0.377328 1.18989e-22)
(-0.00265618 -0.348566 1.45711e-22)
(-0.00547453 -0.322215 7.24013e-24)
(-0.00827041 -0.298093 2.33714e-22)
(-0.0109726 -0.27602 -2.44823e-23)
(-0.0135297 -0.255827 2.31971e-22)
(-0.0159063 -0.237348 1.01444e-22)
(-0.0180801 -0.220433 -1.07805e-23)
(-0.0200388 -0.204937 1.81054e-22)
(-0.0217782 -0.190729 3.42582e-22)
(-0.0233 -0.177687 -2.50135e-22)
(-0.024611 -0.165699 3.32957e-22)
(-0.0257214 -0.154662 3.16803e-22)
(-0.0266441 -0.144484 -3.11589e-22)
(-0.0273942 -0.135082 5.70095e-22)
(-0.0279881 -0.126377 -3.82887e-22)
(-0.0284431 -0.118303 1.93924e-22)
(-0.028777 -0.110797 3.0063e-22)
(-0.0290075 -0.103804 -1.08948e-22)
(-0.0291525 -0.097279 1.4838e-22)
(-0.029229 -0.09118 -1.88359e-22)
(-0.0292538 -0.0854728 4.77885e-24)
(-0.0292434 -0.0801214 1.11967e-22)
(-0.0292136 -0.0750939 -7.63941e-23)
(-0.0291686 -0.0703606 4.16959e-23)
(-0.0291004 -0.0658965 1.1662e-22)
(-0.0290985 -0.0616781 5.7573e-22)
(0.019144 -0.47898 -1.02763e-22)
(0.0163766 -0.441342 7.45047e-22)
(0.013307 -0.406778 -4.1646e-22)
(0.00997438 -0.375119 -6.37665e-22)
(0.00651655 -0.34617 -3.23034e-22)
(0.00307076 -0.319728 -2.46097e-22)
(-0.000269979 -0.295593 -5.73085e-22)
(-0.00344069 -0.27357 6.89975e-23)
(-0.006396 -0.253475 -1.11761e-22)
(-0.00910653 -0.235134 -4.78612e-22)
(-0.0115555 -0.218382 -1.37227e-21)
(-0.0137359 -0.20307 7.1378e-22)
(-0.0156485 -0.189057 -2.87228e-22)
(-0.0172996 -0.176216 1.10375e-22)
(-0.0187002 -0.16443 -7.52002e-22)
(-0.0198646 -0.153592 -3.03908e-22)
(-0.0208093 -0.143605 2.94241e-23)
(-0.021553 -0.134383 1.14474e-21)
(-0.0221151 -0.125847 -5.94309e-22)
(-0.0225159 -0.117924 -3.42875e-22)
(-0.022776 -0.110553 -1.53522e-21)
(-0.0229158 -0.103677 4.08017e-22)
(-0.0229556 -0.0972485 -2.75611e-22)
(-0.0229147 -0.0912262 5.1998e-22)
(-0.022812 -0.0855744 -2.64219e-22)
(-0.022666 -0.080259 -4.29998e-22)
(-0.0224945 -0.0752473 1.34114e-22)
(-0.0223023 -0.070511 2.46016e-22)
(-0.0220788 -0.0660249 -4.18361e-22)
(-0.0219264 -0.0617682 2.68883e-22)
(0.0316452 -0.477845 -4.89065e-23)
(0.0278712 -0.439604 1.28301e-22)
(0.0239035 -0.404624 2.22725e-22)
(0.019774 -0.372697 2.2051e-21)
(0.0156179 -0.343598 -1.4043e-21)
(0.0115684 -0.317103 1.29693e-21)
(0.00771214 -0.292991 8.59181e-22)
(0.00410735 -0.271052 7.64012e-22)
(0.000792638 -0.251087 -7.76694e-22)
(-0.00220913 -0.232911 -1.29339e-22)
(-0.00488737 -0.216351 2.21926e-21)
(-0.00724092 -0.201247 4.24254e-22)
(-0.00927577 -0.187453 -1.19508e-21)
(-0.0110034 -0.174835 9.49048e-22)
(-0.0124392 -0.163271 -1.89188e-23)
(-0.0136018 -0.15265 4.67505e-22)
(-0.0145118 -0.142871 3.4175e-22)
(-0.0151911 -0.133845 1.3161e-21)
(-0.0156629 -0.125489 -5.60199e-22)
(-0.0159505 -0.11773 -1.8117e-22)
(-0.0160774 -0.110504 -5.90654e-22)
(-0.016067 -0.103752 2.82054e-21)
(-0.015942 -0.0974263 -2.45598e-21)
(-0.0157243 -0.0914843 7.90082e-22)
(-0.0154351 -0.0858906 4.64382e-22)
(-0.0150954 -0.080611 -1.78738e-21)
(-0.0147251 -0.0756139 2.46299e-21)
(-0.0143293 -0.0708713 -2.47444e-22)
(-0.013894 -0.0663576 -2.96142e-22)
(-0.0135378 -0.0620555 -2.58387e-21)
(0.044089 -0.476408 -1.54718e-21)
(0.0392792 -0.437604 -1.63406e-21)
(0.0344055 -0.402244 -2.19439e-21)
(0.0294861 -0.370086 7.57969e-24)
(0.0246489 -0.340877 1.38577e-22)
(0.0200204 -0.314367 -3.06143e-21)
(0.0156796 -0.290315 1.18868e-22)
(0.011677 -0.268494 4.69498e-22)
(0.00804357 -0.248692 -6.26363e-23)
(0.00479486 -0.230712 9.40603e-22)
(0.00193468 -0.214371 -3.78019e-21)
(-0.000542093 -0.199501 -2.61617e-21)
(-0.00264727 -0.185949 9.36746e-22)
(-0.00439762 -0.173576 2.19336e-21)
(-0.00581353 -0.162254 -2.57027e-21)
(-0.00691799 -0.151868 -4.28395e-22)
(-0.00773575 -0.142314 -1.74968e-21)
(-0.00829271 -0.133498 -8.74817e-22)
(-0.00861539 -0.125336 1.59847e-21)
(-0.00873055 -0.117752 -2.11306e-21)
(-0.00866485 -0.11068 2.00623e-21)
(-0.0084445 -0.104061 -2.39281e-21)
(-0.00809509 -0.0978427 -2.02514e-21)
(-0.00764123 -0.0919847 -1.58775e-21)
(-0.00710679 -0.0864504 -4.09505e-22)
(-0.00651524 -0.0812058 -3.53026e-21)
(-0.0058894 -0.0762208 3.79262e-22)
(-0.00523406 -0.071467 7.11342e-22)
(-0.00453117 -0.0669181 -2.19139e-21)
(-0.00391878 -0.0625614 4.33861e-22)
(0.0564778 -0.474661 -8.9739e-22)
(0.0506066 -0.435347 1.58525e-22)
(0.0448183 -0.399653 1.46014e-21)
(0.0391151 -0.367309 1.67007e-21)
(0.0336143 -0.338033 1.31912e-21)
(0.0284327 -0.311548 5.89381e-22)
(0.0236401 -0.287593 9.48472e-22)
(0.0192777 -0.265926 4.81311e-21)
(0.0153679 -0.24632 -2.96763e-21)
(0.0119182 -0.228565 6.22637e-23)
(0.00892485 -0.21247 7.80218e-22)
(0.006376 -0.19786 3.90071e-21)
(0.00425358 -0.184574 -2.75933e-21)
(0.00253513 -0.172467 2.13159e-21)
(0.00119508 -0.161407 -2.55498e-21)
(0.000205715 -0.151274 4.62548e-21)
(-0.000462054 -0.141961 -1.3803e-21)
(-0.000838127 -0.13337 5.419e-23)
(-0.000952753 -0.125415 2.62469e-21)
(-0.000836164 -0.118018 2.02317e-21)
(-0.000518309 -0.11111 -2.0637e-21)
(-2.84061e-05 -0.10463 2.97467e-21)
(0.000604833 -0.0985266 -1.45391e-21)
(0.00135407 -0.0927555 1.71876e-21)
(0.0021926 -0.087281 2.5029e-21)
(0.00309361 -0.0820704 1.02306e-21)
(0.00403191 -0.0770928 3.16888e-21)
(0.00500224 -0.0723218 -1.00554e-21)
(0.0060279 -0.0677281 -2.5893e-22)
(0.00694812 -0.0633054 -2.20387e-21)
(0.0688074 -0.472604 -6.59133e-22)
(0.0618535 -0.432839 -4.80228e-22)
(0.0551451 -0.396866 -1.66024e-21)
(0.0486664 -0.364386 -4.80777e-21)
(0.042521 -0.335087 1.60934e-21)
(0.0368142 -0.30867 1.27864e-22)
(0.0316044 -0.284852 -1.31423e-21)
(0.0269222 -0.263374 3.25309e-22)
(0.0227802 -0.243995 -1.61944e-22)
(0.019177 -0.226497 -4.26009e-21)
(0.0161009 -0.210677 1.77614e-21)
(0.0135325 -0.196352 3.42249e-21)
(0.011447 -0.183355 -2.62084e-23)
(0.009816 -0.171535 1.41935e-21)
(0.00860847 -0.160756 3.86361e-21)
(0.00779175 -0.150894 -2.81944e-21)
(0.00733222 -0.141838 5.20753e-21)
(0.00719582 -0.133487 -2.67158e-21)
(0.00734844 -0.125752 4.97086e-21)
(0.00775622 -0.118553 -3.90998e-21)
(0.0083858 -0.111819 1.79912e-21)
(0.00920458 -0.105487 5.22246e-21)
(0.010181 -0.0995026 5.02893e-22)
(0.0112843 -0.0938227 -5.26442e-21)
(0.0124853 -0.0884081 3.07362e-21)
(0.0137536 -0.0832286 3.81528e-22)
(0.0150605 -0.0782542 -1.15211e-21)
(0.0164013 -0.0734572 4.45306e-21)
(0.0178043 -0.0688075 1.75851e-21)
(0.0190831 -0.0643051 -1.84498e-21)
(0.0810714 -0.470242 1.93445e-21)
(0.0730183 -0.43009 1.15988e-22)
(0.0653885 -0.393896 -3.36425e-21)
(0.0581457 -0.361332 7.25721e-22)
(0.0513779 -0.332061 -1.17193e-21)
(0.0451762 -0.305754 7.81477e-22)
(0.0395861 -0.282113 1.99027e-21)
(0.0346263 -0.260861 4.04484e-21)
(0.0302985 -0.241745 -4.71527e-21)
(0.0265914 -0.224532 1.15698e-21)
(0.0234843 -0.209014 -9.99551e-22)
(0.0209501 -0.194999 7.55332e-22)
(0.0189569 -0.182313 -3.38977e-21)
(0.0174699 -0.170802 -3.23655e-22)
(0.0164523 -0.160323 6.27918e-21)
(0.0158663 -0.15075 -4.3904e-21)
(0.0156736 -0.141966 -3.06398e-21)
(0.015836 -0.133869 -2.48002e-21)
(0.0163152 -0.126368 4.43328e-21)
(0.0170737 -0.119378 1.07016e-21)
(0.0180746 -0.112827 -4.98296e-21)
(0.0192818 -0.106651 7.0235e-21)
(0.0206603 -0.100793 -6.5799e-21)
(0.0221764 -0.0952062 4.63569e-21)
(0.0237975 -0.0898537 -2.71836e-21)
(0.0254903 -0.0847025 1.88488e-21)
(0.0272218 -0.0797253 1.57451e-21)
(0.0289875 -0.0748935 -6.99911e-21)
(0.0308219 -0.0701743 3.07442e-21)
(0.0325092 -0.0655762 6.72207e-23)
(0.0932635 -0.467579 -1.90679e-21)
(0.0840995 -0.427109 1.63339e-21)
(0.0755516 -0.390756 -3.60995e-21)
(0.0675603 -0.358166 7.15983e-21)
(0.0601955 -0.328972 -2.134e-21)
(0.0535325 -0.302823 3.4022e-21)
(0.047602 -0.279401 5.33687e-23)
(0.0424093 -0.258411 -4.51684e-22)
(0.0379441 -0.239589 -8.51034e-22)
(0.0341844 -0.222693 -5.38552e-23)
(0.0311002 -0.207503 -3.69674e-21)
(0.0286555 -0.193822 1.9526e-21)
(0.0268111 -0.18147 -2.63609e-21)
(0.0255255 -0.170287 -1.82334e-22)
(0.0247559 -0.160127 -8.30054e-21)
(0.0244592 -0.150858 2.73948e-21)
(0.0245924 -0.142363 1.80641e-21)
(0.0251127 -0.134535 -2.06051e-21)
(0.0259779 -0.127279 -2.34007e-22)
(0.0271467 -0.12051 -3.54507e-21)
(0.0285783 -0.114152 -1.3417e-21)
(0.0302333 -0.108139 1.96093e-22)
(0.032073 -0.102413 -3.61531e-21)
(0.0340605 -0.0969244 -5.81574e-21)
(0.0361597 -0.0916339 2.01346e-22)
(0.0383333 -0.0865094 -7.54466e-22)
(0.0405449 -0.0815232 2.13233e-21)
(0.0427893 -0.076647 -5.51588e-21)
(0.0451081 -0.0718435 4.92343e-21)
(0.0472527 -0.0671322 -1.12025e-20)
(0.105378 -0.464621 -4.63602e-21)
(0.0950958 -0.423905 6.40672e-21)
(0.0856381 -0.38746 -7.42709e-21)
(0.0769185 -0.354903 -2.24065e-21)
(0.0689862 -0.325839 -1.58418e-21)
(0.061899 -0.299896 -1.84412e-21)
(0.0556711 -0.276733 -1.72335e-21)
(0.0502931 -0.256044 -3.05637e-22)
(0.0457417 -0.237549 -1.92891e-21)
(0.0419832 -0.220998 -4.42593e-22)
(0.0389772 -0.206162 3.97825e-21)
(0.0366789 -0.192838 -2.07841e-21)
(0.0350411 -0.180841 -2.80897e-21)
(0.0340152 -0.170005 -5.28083e-21)
(0.0335525 -0.160181 1.15516e-20)
(0.0336043 -0.151233 -4.67243e-21)
(0.0341226 -0.143041 1.85095e-21)
(0.0350601 -0.135495 -7.47809e-21)
(0.0363706 -0.128498 2.92468e-21)
(0.0380089 -0.121961 -1.34886e-21)
(0.0399305 -0.115806 1.64141e-21)
(0.0420923 -0.109965 -6.27495e-22)
(0.0444522 -0.104377 6.06579e-21)
(0.0469692 -0.09899 -2.22531e-21)
(0.0496041 -0.0937626 6.66321e-21)
(0.0523154 -0.0886622 -1.66392e-21)
(0.0550616 -0.0836616 9.2902e-21)
(0.0578383 -0.0787301 2.91011e-21)
(0.0606937 -0.0738272 5.63872e-21)
(0.0633433 -0.0689837 -1.95068e-20)
(0.117408 -0.461372 7.29797e-21)
(0.106007 -0.420488 -1.50731e-21)
(0.0956531 -0.38402 3.28646e-21)
(0.08623 -0.351558 -1.00022e-21)
(0.0777644 -0.32268 3.63358e-21)
(0.0702941 -0.296989 3.77727e-21)
(0.0638155 -0.274129 4.58149e-21)
(0.0583031 -0.253776 -4.44039e-22)
(0.0537191 -0.235641 -5.13921e-21)
(0.0500178 -0.219463 7.69917e-21)
(0.0471475 -0.205006 -8.2508e-22)
(0.0450542 -0.192061 6.13546e-21)
(0.043682 -0.180438 2.40648e-21)
(0.0429754 -0.169967 8.46204e-22)
(0.0428791 -0.160494 1.46742e-21)
(0.0433388 -0.151882 2.21386e-21)
(0.0443016 -0.144007 4.03214e-21)
(0.0457157 -0.136756 -1.30343e-21)
(0.0475308 -0.130029 6.68484e-21)
(0.0496975 -0.123735 3.37059e-21)
(0.052168 -0.117794 -7.19616e-21)
(0.0548952 -0.112133 1.3548e-20)
(0.0578333 -0.10669 -1.87541e-20)
(0.060938 -0.10141 1.85617e-20)
(0.0641655 -0.096249 -6.394e-21)
(0.0674705 -0.0911706 1.16845e-21)
(0.0708062 -0.0861496 -9.43031e-21)
(0.0741679 -0.0811529 5.35431e-21)
(0.0776117 -0.0761338 2.08172e-21)
(0.0808129 -0.0711384 -2.88585e-21)
(0.129348 -0.457838 -4.15749e-21)
(0.116833 -0.416868 4.82952e-21)
(0.105603 -0.380449 -1.37377e-21)
(0.0955066 -0.348146 4.26174e-21)
(0.0865465 -0.319509 4.47502e-22)
(0.0787388 -0.29412 1.22252e-21)
(0.07206 -0.271604 -9.0255e-21)
(0.0664672 -0.251624 -1.76735e-21)
(0.0619077 -0.233879 6.67337e-21)
(0.058322 -0.2181 5.61016e-21)
(0.0556472 -0.204046 -9.93972e-21)
(0.0538189 -0.1915 6.18546e-21)
(0.052773 -0.180268 -6.43209e-21)
(0.052446 -0.170177 4.86629e-21)
(0.0527762 -0.16107 -8.52439e-21)
(0.0537038 -0.152808 -6.85373e-21)
(0.0551707 -0.145261 2.16313e-22)
(0.0571206 -0.138317 -3.63156e-21)
(0.0594991 -0.131872 6.28662e-21)
(0.062253 -0.125832 2.73628e-21)
(0.0653306 -0.120114 -1.7874e-21)
(0.0686812 -0.114643 -5.14379e-22)
(0.0722552 -0.109353 2.59278e-21)
(0.0760044 -0.104186 -8.60626e-21)
(0.0798813 -0.0990941 1.49777e-20)
(0.0838351 -0.0940388 -3.61882e-21)
(0.0878145 -0.0889924 -4.62252e-22)
(0.0918136 -0.0839209 1.50573e-20)
(0.0958968 -0.0787689 2.39051e-21)
(0.0996951 -0.0736009 -2.41102e-21)
(0.141194 -0.454022 2.03266e-22)
(0.127576 -0.413052 -2.47515e-21)
(0.115494 -0.376759 -2.54802e-21)
(0.104761 -0.34468 -4.61649e-21)
(0.095351 -0.316342 1.84026e-22)
(0.087256 -0.291303 -3.99682e-21)
(0.0804318 -0.269172 4.79172e-21)
(0.0748167 -0.2496 -4.84573e-22)
(0.0703415 -0.232275 4.74264e-21)
(0.0669328 -0.21692 -3.77225e-21)
(0.0645153 -0.203289 -2.13869e-21)
(0.0630143 -0.191159 1.25582e-21)
(0.0623564 -0.180334 7.28509e-22)
(0.0624705 -0.170636 -8.11015e-21)
(0.0632882 -0.161908 4.88752e-21)
(0.0647438 -0.154005 -2.72975e-21)
(0.0667743 -0.146799 7.79211e-21)
(0.069319 -0.140172 -2.75616e-21)
(0.0723192 -0.134019 2.93654e-21)
(0.0757182 -0.128243 8.18076e-22)
(0.0794605 -0.122758 5.75067e-21)
(0.0834918 -0.117487 -1.1249e-21)
(0.0877586 -0.112358 1.0461e-20)
(0.0922087 -0.107311 -1.19094e-20)
(0.0967905 -0.102293 -4.36717e-21)
(0.101448 -0.0972633 3.71367e-21)
(0.106124 -0.0921891 -2.23204e-22)
(0.110812 -0.0870341 -7.1214e-21)
(0.115585 -0.0817338 5.9188e-21)
(0.120025 -0.0763723 -8.01793e-21)
(0.152941 -0.449931 7.12661e-21)
(0.138238 -0.409051 2.15293e-21)
(0.125337 -0.37296 2.84582e-21)
(0.114009 -0.341173 4.22945e-21)
(0.104198 -0.31319 6.80575e-21)
(0.0958716 -0.28855 -2.3114e-22)
(0.0889611 -0.266845 1.01722e-21)
(0.0833854 -0.247714 9.36376e-21)
(0.0790579 -0.230836 -1.91277e-21)
(0.0758903 -0.215928 -3.96169e-21)
(0.0737945 -0.202737 7.35303e-21)
(0.0726847 -0.191039 1.43378e-21)
(0.0724781 -0.180633 1.68312e-23)
(0.0730958 -0.171339 1.98177e-21)
(0.0744624 -0.162998 3.94843e-21)
(0.0765065 -0.155464 -8.7304e-21)
(0.07916 -0.148606 7.65512e-21)
(0.0823578 -0.142305 1.36676e-21)
(0.0860375 -0.136452 8.53566e-21)
(0.0901386 -0.13095 -4.72865e-21)
(0.0946021 -0.125709 8.38889e-21)
(0.0993701 -0.120646 -9.35495e-21)
(0.104385 -0.115689 9.42937e-21)
(0.109592 -0.110771 1.60945e-21)
(0.114933 -0.105834 -6.84276e-21)
(0.120348 -0.100833 -2.5379e-21)
(0.125774 -0.0957322 1.46154e-20)
(0.131202 -0.0904876 1.09931e-20)
(0.136712 -0.0850253 3.04008e-21)
(0.141838 -0.0794506 -2.72577e-21)
(0.164583 -0.445569 7.42776e-22)
(0.148822 -0.404872 2.02024e-21)
(0.135141 -0.369064 8.88201e-21)
(0.123267 -0.337636 -1.50291e-20)
(0.113112 -0.310066 -1.68421e-21)
(0.104613 -0.285872 -1.84165e-21)
(0.0976805 -0.264632 8.10433e-22)
(0.0922101 -0.245974 1.25586e-21)
(0.0880972 -0.229569 2.31092e-21)
(0.0852378 -0.215127 -6.50409e-21)
(0.0835305 -0.202392 -1.55763e-21)
(0.0828778 -0.191136 3.9683e-21)
(0.0831874 -0.181158 4.79724e-21)
(0.084372 -0.172275 -4.80723e-21)
(0.0863495 -0.164327 -5.39566e-21)
(0.0890425 -0.157166 8.47918e-21)
(0.0923781 -0.150662 6.07701e-21)
(0.0962869 -0.144693 -1.46237e-21)
(0.100703 -0.139149 -4.23696e-21)
(0.105561 -0.133929 8.4259e-22)
(0.110801 -0.128939 -1.1066e-20)
(0.11636 -0.124095 1.38137e-20)
(0.122178 -0.119319 -9.85218e-21)
(0.128195 -0.11454 -5.74834e-22)
(0.134349 -0.109694 7.02606e-21)
(0.140575 -0.104729 -2.33802e-21)
(0.146801 -0.0996057 -7.52512e-21)
(0.153018 -0.0942694 9.40991e-21)
(0.159316 -0.0886337 -3.0939e-22)
(0.165169 -0.0828293 1.9915e-21)
(0.176117 -0.440942 -4.93055e-22)
(0.159332 -0.400524 -2.02596e-21)
(0.144918 -0.36508 -1.02475e-20)
(0.132554 -0.33408 3.74304e-21)
(0.122115 -0.30698 -1.32522e-21)
(0.113512 -0.283279 4.31755e-21)
(0.106625 -0.262541 3.16329e-22)
(0.10133 -0.244384 -5.96895e-21)
(0.0975023 -0.228474 9.42087e-21)
(0.0950213 -0.214515 -8.93016e-21)
(0.0937716 -0.202247 -5.00889e-22)
(0.093644 -0.191442 2.46042e-21)
(0.0945361 -0.181896 -4.4668e-21)
(0.0963521 -0.173427 5.48617e-21)
(0.0990029 -0.165874 -1.08872e-20)
(0.102405 -0.159089 -2.84592e-21)
(0.106481 -0.15294 7.05286e-21)
(0.111158 -0.147306 -1.95199e-22)
(0.116365 -0.142074 -5.39583e-21)
(0.122035 -0.137141 1.46862e-20)
(0.128104 -0.132412 -7.89655e-21)
(0.134507 -0.127797 -1.1503e-20)
(0.14118 -0.123213 4.05814e-21)
(0.148058 -0.118585 -1.23755e-20)
(0.155077 -0.113841 -3.28613e-21)
(0.162164 -0.108924 -5.79116e-22)
(0.169241 -0.103785 -9.39824e-21)
(0.176297 -0.0983599 1.12268e-20)
(0.183428 -0.0925438 -6.67199e-21)
(0.19005 -0.0864967 8.62146e-21)
(0.18754 -0.436055 -2.51154e-21)
(0.169773 -0.396015 -8.18898e-21)
(0.154681 -0.361018 4.46717e-21)
(0.14189 -0.330515 -4.51136e-21)
(0.131236 -0.303941 -3.65957e-21)
(0.122599 -0.280777 -2.35173e-21)
(0.115832 -0.260576 -8.73897e-21)
(0.110787 -0.242948 6.18969e-21)
(0.107318 -0.227551 -1.63169e-20)
(0.105289 -0.214087 -6.56432e-21)
(0.104569 -0.202295 2.14881e-21)
(0.105036 -0.191944 4.13126e-21)
(0.106579 -0.182831 9.6398e-23)
(0.109091 -0.174775 -8.9095e-21)
(0.112478 -0.167613 2.13204e-21)
(0.11665 -0.1612 -9.16303e-21)
(0.121525 -0.155404 -7.07738e-21)
(0.127024 -0.150103 -4.66044e-21)
(0.133076 -0.145184 -1.2711e-21)
(0.13961 -0.140543 7.82467e-21)
(0.146558 -0.13608 1.20973e-20)
(0.153854 -0.131703 -3.80604e-21)
(0.161431 -0.127323 -3.92375e-21)
(0.169221 -0.122859 7.73358e-21)
(0.177153 -0.118232 4.58357e-21)
(0.185151 -0.113376 -3.6393e-21)
(0.193127 -0.108235 -4.34876e-21)
(0.201068 -0.10273 3.92115e-22)
(0.209079 -0.0967332 5.01796e-21)
(0.21651 -0.0904352 7.61848e-21)
(0.198848 -0.430912 -6.39989e-22)
(0.180152 -0.391353 1.05943e-20)
(0.164444 -0.356887 9.0055e-21)
(0.151296 -0.326949 7.53747e-21)
(0.140502 -0.300956 -5.0504e-21)
(0.131909 -0.278373 -1.07249e-21)
(0.125341 -0.258741 9.29537e-22)
(0.120624 -0.241664 7.93328e-21)
(0.117593 -0.226796 3.19742e-21)
(0.116092 -0.213837 8.17924e-21)
(0.115976 -0.202523 -1.19775e-20)
(0.11711 -0.192625 1.13881e-21)
(0.119372 -0.18394 5.34424e-21)
(0.122648 -0.176289 3.54572e-21)
(0.126834 -0.169511 8.00855e-21)
(0.131835 -0.163462 -5.29649e-21)
(0.137564 -0.158011 -5.49684e-21)
(0.143941 -0.153037 8.83062e-22)
(0.150888 -0.148427 1.2763e-20)
(0.158334 -0.144076 -2.13918e-20)
(0.16621 -0.139883 7.57995e-21)
(0.174445 -0.135751 -1.21653e-22)
(0.182971 -0.131588 1.6159e-20)
(0.191717 -0.127302 -7.02516e-21)
(0.20061 -0.122811 -2.41081e-22)
(0.209564 -0.118035 -4.97764e-21)
(0.218486 -0.11291 4.8169e-21)
(0.227359 -0.107339 1.23333e-21)
(0.236293 -0.10117 -6.10572e-21)
(0.244572 -0.0946208 2.26352e-20)
(0.210038 -0.42552 -1.00696e-20)
(0.190475 -0.386545 -6.53551e-21)
(0.174223 -0.352693 -1.80681e-20)
(0.160796 -0.323388 -8.9918e-21)
(0.149944 -0.298029 8.66326e-21)
(0.141477 -0.276068 -5.62397e-21)
(0.135192 -0.257035 -1.58609e-21)
(0.130886 -0.24053 -4.23532e-21)
(0.128374 -0.226203 7.26258e-21)
(0.127481 -0.213753 -1.76594e-21)
(0.128046 -0.202916 -2.86933e-21)
(0.129922 -0.193465 -4.10463e-22)
(0.132974 -0.185198 -1.37376e-20)
(0.137079 -0.177939 -1.02972e-21)
(0.142128 -0.17153 3.65145e-21)
(0.148018 -0.165829 -4.86289e-22)
(0.154658 -0.160709 -1.69433e-20)
(0.161963 -0.156049 1.71255e-20)
(0.169855 -0.151739 -1.77067e-20)
(0.178259 -0.147674 7.10977e-21)
(0.187104 -0.14375 1.02971e-21)
(0.196321 -0.139869 4.50581e-22)
(0.205837 -0.135931 -8.53488e-21)
(0.21558 -0.131842 3.07253e-21)
(0.225474 -0.127506 7.01308e-23)
(0.235428 -0.122835 1.12773e-21)
(0.245338 -0.11775 -2.54928e-20)
(0.255187 -0.112137 6.62773e-21)
(0.265088 -0.105811 7.74571e-21)
(0.274254 -0.0990205 1.04612e-20)
(0.221109 -0.419884 1.99394e-20)
(0.20075 -0.381597 8.02149e-21)
(0.184035 -0.348444 4.94307e-21)
(0.170414 -0.319839 8.07513e-21)
(0.159592 -0.295166 -1.14073e-21)
(0.151342 -0.273864 6.96363e-21)
(0.145427 -0.255457 1.64686e-20)
(0.141621 -0.23954 -2.04763e-21)
(0.139713 -0.225761 1.09323e-21)
(0.13951 -0.21382 2.30542e-20)
(0.140836 -0.203455 -2.92378e-21)
(0.143528 -0.194439 3.52907e-21)
(0.147442 -0.186574 -1.53849e-21)
(0.152446 -0.179688 -5.76551e-22)
(0.158421 -0.173627 2.10561e-20)
(0.165259 -0.168253 8.18019e-22)
(0.172864 -0.163441 2.48353e-20)
(0.181148 -0.159076 -2.9942e-21)
(0.190029 -0.155049 -5.92005e-21)
(0.199432 -0.151257 1.41672e-20)
(0.209286 -0.147596 -1.37533e-20)
(0.219519 -0.143966 1.53906e-20)
(0.23006 -0.140264 8.71053e-21)
(0.240836 -0.136387 -7.54659e-21)
(0.251767 -0.13223 1.14535e-20)
(0.262757 -0.127693 1.34767e-21)
(0.273696 -0.122682 -5.51386e-21)
(0.284561 -0.11706 2.44482e-21)
(0.295471 -0.110602 1.99509e-20)
(0.30556 -0.103592 3.4063e-21)
(0.232057 -0.414009 -3.421e-21)
(0.210985 -0.376516 -7.87673e-21)
(0.193898 -0.344146 3.57633e-21)
(0.180176 -0.316305 -1.45799e-20)
(0.169479 -0.292367 7.47869e-21)
(0.16154 -0.27176 -1.43728e-20)
(0.15609 -0.254002 -1.02471e-20)
(0.152874 -0.238686 2.88853e-21)
(0.151659 -0.22546 3.44078e-21)
(0.152232 -0.214023 -1.55069e-20)
(0.1544 -0.204118 -7.19573e-21)
(0.157987 -0.19552 3.61212e-21)
(0.162837 -0.188036 -9.92861e-21)
(0.168808 -0.181498 -4.22376e-21)
(0.175772 -0.175756 -3.032e-21)
(0.183617 -0.170679 -3.13037e-21)
(0.19224 -0.166146 -1.3822e-20)
(0.20155 -0.162047 -9.28915e-21)
(0.211463 -0.158277 1.37062e-21)
(0.221903 -0.154736 3.11949e-21)
(0.232798 -0.151324 3.67945e-21)
(0.244077 -0.14794 -1.26532e-20)
(0.25567 -0.144477 4.98841e-21)
(0.267505 -0.140828 -1.06112e-20)
(0.2795 -0.136876 1.05533e-20)
(0.291557 -0.132508 -1.39835e-20)
(0.303559 -0.127613 4.80755e-21)
(0.315477 -0.122026 -7.20287e-21)
(0.327435 -0.115478 -1.08479e-20)
(0.338485 -0.108285 -1.296e-21)
(0.242882 -0.407901 -7.29552e-21)
(0.22119 -0.371308 -7.10146e-21)
(0.203829 -0.339802 -7.58406e-21)
(0.190109 -0.312789 -6.19816e-21)
(0.179638 -0.289633 1.91501e-20)
(0.17211 -0.269753 2.97846e-21)
(0.167223 -0.252664 9.14467e-21)
(0.164692 -0.237957 1.48416e-20)
(0.164262 -0.225283 7.74823e-21)
(0.165699 -0.214343 -1.02892e-20)
(0.168793 -0.204882 1.81468e-20)
(0.173355 -0.19668 -1.80725e-20)
(0.179215 -0.18955 1.80403e-20)
(0.186222 -0.183327 2.30416e-21)
(0.194241 -0.17787 5.01056e-21)
(0.20315 -0.173051 1.574e-21)
(0.212844 -0.168757 2.22892e-20)
(0.223225 -0.164885 -3.36979e-21)
(0.23421 -0.161336 3.22246e-21)
(0.245719 -0.158015 1.14835e-20)
(0.257681 -0.154827 -1.30516e-20)
(0.270028 -0.151673 1.09509e-20)
(0.282692 -0.148447 5.00136e-22)
(0.295602 -0.145036 5.31164e-21)
(0.30868 -0.141314 1.01125e-20)
(0.321824 -0.137155 -1.76897e-21)
(0.334914 -0.132428 1.07041e-20)
(0.347916 -0.126935 1.62243e-20)
(0.360959 -0.120355 -1.7598e-20)
(0.373008 -0.113031 -1.26897e-20)
(0.253582 -0.401563 2.20365e-20)
(0.231375 -0.365976 -2.56196e-21)
(0.213848 -0.335416 5.80793e-21)
(0.200239 -0.309292 1.14876e-20)
(0.190101 -0.286961 -3.46729e-20)
(0.183091 -0.267836 3.92916e-21)
(0.178868 -0.251432 -1.48047e-20)
(0.177121 -0.237341 1.5669e-20)
(0.17757 -0.225214 -1.28128e-20)
(0.179961 -0.214758 7.72586e-21)
(0.184067 -0.205721 -2.82341e-20)
(0.189684 -0.197889 3.69925e-22)
(0.196631 -0.19108 -1.07212e-20)
(0.204745 -0.185135 1.61935e-20)
(0.213882 -0.179919 -1.79749e-20)
(0.223915 -0.175312 -1.03702e-21)
(0.234731 -0.171208 -1.61169e-20)
(0.246229 -0.167513 -1.4913e-21)
(0.258321 -0.164136 1.53755e-21)
(0.270928 -0.16099 4.22399e-21)
(0.283979 -0.157988 -2.33548e-20)
(0.297408 -0.155035 -8.33266e-22)
(0.311151 -0.152031 -1.40486e-20)
(0.325142 -0.148859 -3.42481e-21)
(0.339306 -0.145389 -9.3175e-21)
(0.353547 -0.141481 -1.05804e-20)
(0.367739 -0.136982 -1.15561e-20)
(0.381849 -0.131656 1.88296e-20)
(0.396007 -0.125122 5.2055e-21)
(0.409091 -0.117747 -1.2162e-20)
(0.264157 -0.395001 -1.47106e-20)
(0.24155 -0.360525 5.89416e-21)
(0.223975 -0.330989 -1.09469e-20)
(0.210593 -0.305811 1.69927e-21)
(0.200903 -0.284345 2.01041e-20)
(0.194519 -0.266002 -1.05267e-20)
(0.191066 -0.250296 -1.20304e-20)
(0.190205 -0.236821 -1.05227e-20)
(0.191629 -0.225235 3.97645e-22)
(0.195065 -0.215246 7.31712e-21)
(0.20027 -0.20661 -5.84758e-21)
(0.207025 -0.199117 -3.00764e-23)
(0.215135 -0.192591 1.96091e-20)
(0.224427 -0.18688 -1.01708e-20)
(0.23475 -0.181856 3.0403e-21)
(0.245965 -0.177407 -9.20896e-21)
(0.257955 -0.173436 3.52275e-21)
(0.270613 -0.169857 8.16109e-21)
(0.283848 -0.166589 9.86796e-21)
(0.297579 -0.163557 -1.09935e-20)
(0.311736 -0.160683 1.62174e-21)
(0.326253 -0.157885 1.02259e-20)
(0.341073 -0.155068 1.85147e-20)
(0.356137 -0.152123 5.25779e-21)
(0.371378 -0.148916 -2.01454e-20)
(0.386707 -0.145296 2.43428e-20)
(0.402001 -0.141093 -1.23315e-20)
(0.41723 -0.136025 -1.53495e-20)
(0.43253 -0.129638 -9.7299e-21)
(0.446685 -0.122317 -1.56766e-20)
(0.274604 -0.38822 8.06857e-21)
(0.251726 -0.354956 -6.97013e-21)
(0.234231 -0.32652 2.57982e-21)
(0.221199 -0.302342 1.57483e-20)
(0.212076 -0.281778 4.55172e-21)
(0.206432 -0.264237 -4.16745e-21)
(0.203858 -0.249238 1.02985e-20)
(0.203984 -0.236379 2.14047e-21)
(0.206481 -0.225321 1.08757e-20)
(0.211056 -0.215782 6.28941e-21)
(0.217447 -0.207519 1.6437e-22)
(0.225421 -0.200332 4.37734e-21)
(0.234771 -0.194049 -1.45601e-21)
(0.245315 -0.188525 2.65608e-21)
(0.256888 -0.18364 7.76046e-21)
(0.269347 -0.179289 -4.50517e-21)
(0.282564 -0.175384 1.15714e-20)
(0.296428 -0.171848 1.23284e-20)
(0.310842 -0.168613 -1.46253e-20)
(0.325723 -0.165615 1.52082e-20)
(0.340998 -0.162792 3.41118e-20)
(0.356606 -0.160077 -2.26498e-20)
(0.372493 -0.157389 2.37367e-20)
(0.388608 -0.154631 -1.69304e-20)
(0.4049 -0.151676 -2.53231e-21)
(0.421289 -0.148372 1.95908e-20)
(0.437664 -0.14453 -3.88349e-21)
(0.454008 -0.139824 1.56132e-20)
(0.470466 -0.133714 1.60515e-20)
(0.485726 -0.126586 -3.56099e-20)
(0.284925 -0.381223 -7.89988e-21)
(0.261915 -0.349273 3.7764e-21)
(0.244635 -0.322008 1.8016e-21)
(0.232084 -0.298879 -1.86836e-20)
(0.223651 -0.279248 -1.03854e-20)
(0.218863 -0.262527 8.20916e-21)
(0.217277 -0.24824 -2.40984e-20)
(0.218495 -0.235992 3.0549e-20)
(0.222163 -0.225451 -1.79106e-20)
(0.227969 -0.216338 2.23753e-21)
(0.235633 -0.208421 -3.39616e-21)
(0.244909 -0.201504 -1.20355e-20)
(0.255577 -0.195422 2.55261e-20)
(0.267443 -0.190037 1.04161e-20)
(0.280334 -0.185234 -1.07555e-20)
(0.294098 -0.180916 2.68352e-22)
(0.308597 -0.177005 6.63179e-21)
(0.323716 -0.173431 -1.50966e-20)
(0.339349 -0.17014 3.15323e-21)
(0.355408 -0.167081 1.1191e-20)
(0.371819 -0.164208 -4.72332e-21)
(0.388519 -0.161473 8.46666e-21)
(0.405459 -0.158819 -1.69047e-20)
(0.422596 -0.15617 2.52612e-20)
(0.439893 -0.15342 6.37412e-21)
(0.457292 -0.150426 -1.67831e-20)
(0.474702 -0.146997 -1.52698e-20)
(0.492131 -0.142764 -3.18479e-22)
(0.50975 -0.137087 2.16191e-20)
(0.526147 -0.130331 -6.35243e-21)
(0.295119 -0.374013 -2.24047e-21)
(0.272129 -0.343473 -1.75004e-20)
(0.255209 -0.317445 2.14479e-20)
(0.243274 -0.29541 1.53921e-20)
(0.235657 -0.27674 1.64152e-20)
(0.231844 -0.260853 5.07302e-21)
(0.231358 -0.247281 7.6159e-21)
(0.233771 -0.235636 4.11963e-21)
(0.238707 -0.225595 -1.71072e-20)
(0.245835 -0.216887 3.22252e-20)
(0.254858 -0.209286 -2.78473e-20)
(0.265516 -0.202603 -2.256e-21)
(0.277577 -0.19668 4.14139e-21)
(0.290837 -0.191385 -2.08012e-20)
(0.305113 -0.186608 1.85981e-20)
(0.320243 -0.182261 -5.68461e-21)
(0.336084 -0.178269 -1.54928e-20)
(0.352509 -0.174573 6.42104e-21)
(0.369407 -0.171128 -1.23303e-20)
(0.386683 -0.167896 -1.1378e-20)
(0.404256 -0.164849 -1.27708e-20)
(0.422059 -0.16196 2.97352e-21)
(0.440043 -0.159201 1.98936e-21)
(0.458172 -0.156528 -3.41612e-20)
(0.476422 -0.153871 -1.36834e-20)
(0.494758 -0.151124 8.59122e-21)
(0.513124 -0.148114 1.12638e-20)
(0.531574 -0.144448 -1.58438e-20)
(0.550333 -0.13938 -6.30685e-21)
(0.567898 -0.133221 1.12675e-21)
(0.305187 -0.366593 -1.66021e-21)
(0.282382 -0.337554 1.13121e-20)
(0.265975 -0.312824 -3.27703e-21)
(0.254794 -0.291921 -4.11966e-21)
(0.248122 -0.274234 -2.56864e-20)
(0.245402 -0.259191 -6.19087e-21)
(0.246126 -0.246332 1.18056e-20)
(0.249837 -0.235281 -8.31373e-21)
(0.256137 -0.225723 -1.03439e-21)
(0.264675 -0.217396 -1.71179e-21)
(0.27514 -0.210082 1.0648e-20)
(0.287257 -0.203599 -1.71639e-20)
(0.300784 -0.197795 -1.21212e-20)
(0.315505 -0.192544 1.48583e-20)
(0.331231 -0.187743 -8.88516e-21)
(0.34779 -0.183306 -1.12691e-20)
(0.365032 -0.179164 2.46053e-20)
(0.382822 -0.175265 -3.9417e-21)
(0.401041 -0.171569 1.5886e-20)
(0.419585 -0.168048 -1.46909e-20)
(0.438364 -0.164687 -1.25217e-20)
(0.457305 -0.161481 1.11709e-20)
(0.476349 -0.158428 -1.14129e-21)
(0.49546 -0.155528 -8.87289e-21)
(0.514623 -0.152763 8.04767e-21)
(0.533823 -0.150091 -2.59385e-20)
(0.553044 -0.147405 1.59247e-20)
(0.572411 -0.144341 -2.82191e-22)
(0.592265 -0.140064 -1.75581e-20)
(0.611035 -0.13479 2.86201e-20)
(0.315138 -0.358966 8.2137e-21)
(0.292693 -0.331512 -2.21056e-20)
(0.276954 -0.308129 -2.08961e-21)
(0.266668 -0.288391 1.16361e-20)
(0.261068 -0.271706 -3.20504e-21)
(0.259561 -0.257512 -9.53263e-21)
(0.261603 -0.245363 4.60517e-21)
(0.266713 -0.234894 5.68662e-21)
(0.274469 -0.225801 5.30243e-22)
(0.284502 -0.217831 7.61133e-21)
(0.296486 -0.210775 2.56105e-20)
(0.310133 -0.20446 -9.00595e-21)
(0.325193 -0.198739 2.65591e-21)
(0.341439 -0.193493 -7.0975e-21)
(0.358675 -0.188623 2.71168e-20)
(0.376722 -0.184046 -5.16063e-21)
(0.395424 -0.179698 1.75637e-20)
(0.414641 -0.175527 -7.15575e-21)
(0.434245 -0.171495 7.93488e-21)
(0.454125 -0.167579 1.2465e-20)
(0.474181 -0.163768 2.2885e-21)
(0.494328 -0.160069 8.9876e-21)
(0.514497 -0.156501 -7.71424e-21)
(0.534638 -0.1531 2.17732e-20)
(0.554728 -0.149908 -9.12518e-21)
(0.574761 -0.146975 3.43886e-20)
(0.594746 -0.144327 -9.97798e-21)
(0.6149 -0.141734 7.05613e-21)
(0.635774 -0.138346 -1.36067e-20)
(0.655824 -0.134245 2.72356e-20)
(0.325003 -0.351139 -1.77849e-20)
(0.303092 -0.325334 6.14748e-22)
(0.288169 -0.30334 -1.25693e-20)
(0.278914 -0.284794 2.38778e-21)
(0.274513 -0.269126 7.2069e-22)
(0.274335 -0.255786 -1.28061e-20)
(0.277803 -0.24434 -2.51869e-20)
(0.284409 -0.234438 1.30962e-20)
(0.29371 -0.225789 -1.91286e-20)
(0.305317 -0.218152 -1.07337e-20)
(0.318891 -0.211327 -6.46906e-21)
(0.334134 -0.205149 -5.52623e-21)
(0.350784 -0.199482 2.94787e-22)
(0.368609 -0.194209 -2.0694e-20)
(0.387406 -0.189237 1.46637e-20)
(0.406992 -0.184486 -2.42986e-20)
(0.427208 -0.179892 -6.50436e-21)
(0.447909 -0.175404 7.21763e-21)
(0.468965 -0.170982 9.42998e-21)
(0.490262 -0.166596 9.85931e-21)
(0.511693 -0.162231 7.85411e-21)
(0.533164 -0.157889 -2.009e-20)
(0.55459 -0.153588 2.08836e-20)
(0.575902 -0.149371 -2.20998e-21)