/*--------------------------------*- C++ -*----------------------------------*\
| =========                 |                                                 |
| \\      /  F ield         | OpenFOAM: The Open Source CFD Toolbox           |
|  \\    /   O peration     | Version:  v1912                                 |
|   \\  /    A nd           | Website:  www.openfoam.com                      |
|    \\/     M anipulation  |                                                 |
\*---------------------------------------------------------------------------*/
FoamFile
{
    version     2.0;
    format      ascii;
    class       surfaceScalarField;
    location    "21";
    object      phi;
}
// * * * * * * * * * * * * * * * * * * * * * * * * * * * * * * * * * * * * * //

dimensions      [0 3 -1 0 0 0 0];
oriented        oriented;


internalField   nonuniform List<scalar> 
18940
(
0.000338511
-0.234718
0.23438
0.0013084
-0.21694
0.21597
0.00273939
-0.205416
0.203985
0.00446785
-0.197512
0.195784
0.00636918
-0.191572
0.189671
0.0083465
-0.18657
0.184593
0.0103296
-0.181939
0.179956
0.0122716
-0.177396
0.175454
0.0141439
-0.172822
0.17095
0.0159321
-0.168191
0.166403
0.0176319
-0.163523
0.161823
0.0192455
-0.158858
0.157244
0.0207799
-0.154243
0.152708
0.0222445
-0.149719
0.148254
0.02365
-0.14532
0.143914
0.0250077
-0.141068
0.139711
0.0263285
-0.136975
0.135655
0.0276226
-0.133037
0.131743
0.0288981
-0.129234
0.127958
-0.125525
0.124264
0.0301596
0.000361518
-0.23508
0.00135106
-0.21793
0.00279264
-0.206858
0.00452609
-0.199246
0.00642326
-0.19347
0.0083873
-0.188534
0.0103492
-0.183901
0.0122634
-0.17931
0.0141033
-0.174662
0.015856
-0.169944
0.0175186
-0.165185
0.0190948
-0.160434
0.0205924
-0.15574
0.0220213
-0.151148
0.0233927
-0.146691
0.0247182
-0.142394
0.0260091
-0.138266
0.0272758
-0.134304
0.0285268
-0.130485
-0.126766
0.0297677
0.000382613
-0.235462
0.00138817
-0.218935
0.00283867
-0.208308
0.00457356
-0.200981
0.00646315
-0.195359
0.00841046
-0.190481
0.0103476
-0.185838
0.0122308
-0.181193
0.0140352
-0.176466
0.0157497
-0.171658
0.0173728
-0.166808
0.0189095
-0.161971
0.0203683
-0.157199
0.02176
-0.152539
0.0230959
-0.148027
0.0243878
-0.143686
0.0256474
-0.139526
0.0268853
-0.135542
0.0281106
-0.13171
-0.127985
0.0293297
0.0003962
-0.235859
0.0014167
-0.219956
0.00287552
-0.209767
0.0046095
-0.202715
0.00648837
-0.197238
0.00841558
-0.192408
0.0103247
-0.187747
0.0121737
-0.183042
0.0139398
-0.178232
0.0156135
-0.173332
0.0171949
-0.16839
0.0186902
-0.163466
0.0201087
-0.158618
0.0214616
-0.153892
0.0227607
-0.149326
0.024018
-0.144943
0.0252451
-0.140753
0.0264532
-0.13675
0.0276517
-0.132908
-0.129182
0.028848
0.000407244
-0.236266
0.00144005
-0.220989
0.00290452
-0.211231
0.00463456
-0.204445
0.00649932
-0.199103
0.00840305
-0.194312
0.0102808
-0.189625
0.0120927
-0.184854
0.0138177
-0.179957
0.0154482
-0.174962
0.0169859
-0.169927
0.018438
-0.164918
0.0198146
-0.159994
0.0211274
-0.155205
0.0223885
-0.150587
0.02361
-0.146165
0.0248036
-0.141947
0.0259808
-0.137927
0.0271517
-0.134079
-0.130354
0.0283246
0.000416173
-0.236682
0.00145862
-0.222031
0.00292592
-0.212699
0.00464892
-0.206168
0.00649628
-0.20095
0.00837319
-0.196189
0.0102165
-0.191468
0.0119882
-0.186626
0.0136695
-0.181638
0.0152546
-0.176547
0.0167465
-0.171419
0.0181537
-0.166325
0.019487
-0.161328
0.0207585
-0.156477
0.0219804
-0.151809
0.0231649
-0.147349
0.024324
-0.143106
0.0254693
-0.139072
0.0266117
-0.135222
-0.131503
0.0277603
0.000423555
-0.237106
0.0014731
-0.22308
0.00294028
-0.214166
0.00465304
-0.20788
0.00647969
-0.202777
0.00832652
-0.198036
0.0101322
-0.193274
0.0118611
-0.188355
0.0134961
-0.183274
0.0150335
-0.178085
0.0164778
-0.172864
0.0178384
-0.167686
0.0191269
-0.162616
0.0203557
-0.157705
0.0215373
-0.152991
0.0226837
-0.148496
0.0238071
-0.144229
0.0249194
-0.140185
0.0260321
-0.136334
-0.132626
0.0271556
0.000429545
-0.237535
0.00148378
-0.224135
0.00294797
-0.21563
0.00464736
-0.20958
0.00645006
-0.204579
0.00826365
-0.199849
0.0100288
-0.195039
0.011712
-0.190038
0.0132984
-0.18486
0.014786
-0.179572
0.0161807
-0.174259
0.017493
-0.168998
0.0187352
-0.163858
0.01992
-0.15889
0.0210599
-0.154131
0.0221669
-0.149603
0.0232532
-0.145315
0.0243312
-0.141263
0.025413
-0.137416
-0.133724
0.0265101
0.000434248
-0.237969
0.00149096
-0.225191
0.00294943
-0.217088
0.00463241
-0.211263
0.00640802
-0.206355
0.00818532
-0.201627
0.00990707
-0.196761
0.011542
-0.191673
0.0130774
-0.186395
0.014513
-0.181008
0.0158563
-0.175602
0.0171186
-0.170261
0.0183129
-0.165053
0.0194521
-0.160029
0.0205487
-0.155227
0.0216148
-0.150669
0.0226625
-0.146363
0.0237044
-0.142305
0.0247535
-0.138465
-0.134793
0.0258228
0.000437737
-0.238407
0.00149491
-0.226249
0.0029451
-0.218539
0.00460878
-0.212926
0.00635432
-0.208101
0.00809241
-0.203365
0.00976803
-0.198436
0.0113522
-0.193257
0.0128343
-0.187877
0.0142159
-0.18239
0.0155058
-0.176892
0.0167163
-0.171471
0.0178608
-0.166197
0.0189527
-0.161121
0.0200043
-0.156279
0.0210276
-0.151692
0.0220345
-0.14737
0.0230381
-0.143308
0.0240523
-0.13948
-0.135832
0.0250917
0.000440114
-0.238847
0.00149596
-0.227304
0.00293554
-0.219978
0.00457719
-0.214568
0.00628985
-0.209813
0.00798598
-0.205061
0.00961289
-0.200063
0.0111439
-0.194788
0.0125705
-0.189304
0.0138961
-0.183715
0.0151306
-0.178126
0.0162873
-0.172628
0.0173802
-0.16729
0.0184227
-0.162164
0.0194272
-0.157283
0.0204053
-0.15267
0.0213689
-0.148334
0.0223313
-0.144271
0.0233076
-0.140456
-0.136839
0.0243141
0.00044153
-0.239289
0.00149454
-0.228357
0.00292138
-0.221405
0.00453849
-0.216185
0.00621563
-0.21149
0.00786728
-0.206713
0.00944309
-0.201639
0.0109188
-0.196264
0.0122879
-0.190673
0.0135554
-0.184983
0.0147325
-0.179303
0.0158334
-0.173729
0.0168724
-0.168329
0.0178632
-0.163154
0.0188179
-0.158238
0.019748
-0.1536
0.0206652
-0.149251
0.0215827
-0.145188
0.022517
-0.14139
-0.137809
0.0234869
0.00044226
-0.239731
0.00149126
-0.229406
0.00290346
-0.222817
0.00449371
-0.217775
0.00613292
-0.21313
0.00773774
-0.208317
0.0092603
-0.203161
0.0106786
-0.197682
0.0119882
-0.191983
0.0131958
-0.18619
0.0143136
-0.180421
0.0153565
-0.174772
0.0163393
-0.169312
0.0172756
-0.164091
0.0181776
-0.15914
0.0190562
-0.154479
0.0199228
-0.150118
0.020791
-0.146056
0.0216783
-0.142277
-0.138736
0.0226061
0.000442777
-0.240174
0.00148695
-0.230451
0.00288278
-0.224213
0.00444403
-0.219337
0.0060431
-0.214729
0.00759904
-0.209873
0.00906643
-0.204629
0.0104256
-0.199041
0.0116741
-0.193231
0.01282
-0.187336
0.0138766
-0.181478
0.0148593
-0.175754
0.0157832
-0.170236
0.016662
-0.16497
0.0175075
-0.159986
0.0183303
-0.155302
0.0191414
-0.150929
0.0199542
-0.146869
0.0207874
-0.143111
-0.139614
0.0216654
0.000443876
-0.240618
0.00148275
-0.23149
0.00286054
-0.225591
0.00439074
-0.220867
0.00594772
-0.216286
0.00745297
-0.211379
0.00886365
-0.206039
0.0101623
-0.20034
0.0113484
-0.194417
0.0124312
-0.188419
0.013425
-0.182472
0.0143455
-0.176675
0.0152079
-0.171098
0.0160256
-0.165787
0.0168103
-0.16077
0.0175719
-0.156063
0.0183207
-0.151677
0.0190696
-0.147618
0.0198383
-0.143879
-0.140433
0.0206568
0.000446697
-0.241064
0.00147996
-0.232523
0.00283791
-0.226949
0.00433517
-0.222364
0.00584837
-0.217799
0.00730153
-0.212832
0.0086543
-0.207392
0.00989153
-0.201577
0.0110143
-0.19554
0.0120332
-0.189438
0.0129631
-0.183401
0.0138199
-0.177531
0.0146186
-0.171897
0.0153723
-0.166541
0.0160918
-0.16149
0.0167863
-0.156758
0.0174647
-0.152356
0.0181391
-0.148292
0.0188304
-0.144571
-0.14118
0.0195771
0.00045262
-0.241517
0.00147986
-0.23355
0.00281614
-0.228285
0.00427882
-0.223827
0.00574684
-0.219267
0.0071468
-0.214232
0.00844092
-0.208686
0.00961625
-0.202752
0.0106755
-0.1966
0.0116303
-0.190392
0.0124959
-0.184267
0.0132881
-0.178324
0.0140217
-0.17263
0.0147089
-0.167228
0.0153598
-0.162141
0.0159824
-0.15738
0.0165841
-0.152957
0.0171749
-0.148883
0.0177759
-0.145172
-0.141831
0.018427
0.000463973
-0.241981
0.00148506
-0.234571
0.00279769
-0.229598
0.00422373
-0.225253
0.00564501
-0.220688
0.0069908
-0.215578
0.00822592
-0.209921
0.00933955
-0.203866
0.0103359
-0.197596
0.0112274
-0.191284
0.0120292
-0.185069
0.012757
-0.179051
0.0134243
-0.173298
0.0140425
-0.167847
0.0146204
-0.162719
0.015165
-0.157925
0.0156825
-0.153475
0.0161795
-0.14938
0.0166695
-0.145662
-0.142339
0.0171781
0.000488341
-0.242469
0.00150279
-0.235586
0.00278659
-0.230882
0.00417177
-0.226638
0.00554405
-0.22206
0.00683485
-0.216868
0.00801121
-0.211098
0.00906424
-0.204919
0.00999955
-0.198531
0.01083
-0.192114
0.0115709
-0.18581
0.0122366
-0.179717
0.0128392
-0.1739
0.0133871
-0.168395
0.0138862
-0.163218
0.0143395
-0.158378
0.0147489
-0.153884
0.0151129
-0.149744
0.0154364
-0.145985
-0.142685
0.0157824
0.000545818
-0.243015
0.00154145
-0.236581
0.00278252
-0.232123
0.00412166
-0.227977
0.00544338
-0.223382
0.00667928
-0.218104
0.00779798
-0.212217
0.00879247
-0.205913
0.00966981
-0.199409
0.0104437
-0.192888
0.0111293
-0.186495
0.0117406
-0.180328
0.0122875
-0.174447
0.0127755
-0.168883
0.0132044
-0.163646
0.0135669
-0.158741
0.0138465
-0.154164
0.0140174
-0.149915
0.0140728
-0.14604
-0.142845
0.014233
0.250425
0.00040356
-0.250829
0.250048
0.00037691
0.249679
0.000369294
0.24931
0.000369145
0.248938
0.00037187
0.248562
0.000376041
0.248181
0.000380947
0.247795
0.000385998
0.247404
0.000390806
0.247009
0.000395166
0.24661
0.000398978
0.246208
0.000402209
0.245803
0.000404842
0.245396
0.000406854
0.244988
0.000408118
0.24458
0.00040842
0.244173
0.00040671
0.24377
0.000402437
0.243384
0.000386402
0.000368886
0.251875
0.000992502
-0.252464
0.251251
0.00100026
0.250601
0.00102003
0.249924
0.00104579
0.249223
0.00107305
0.248498
0.00110031
0.247752
0.00112712
0.246985
0.00115298
0.246199
0.00117748
0.245393
0.00120033
0.244571
0.00122142
0.243733
0.00124073
0.242879
0.00125824
0.242012
0.00127393
0.241133
0.00128766
0.240242
0.00129921
0.239341
0.00130746
0.238431
0.00131215
0.237511
0.00130694
0.00129842
0.25027
0.00154501
-0.250822
0.249654
0.0016162
0.248986
0.00168757
0.248272
0.00176012
0.247513
0.00183156
0.246713
0.00190058
0.245873
0.00196684
0.244996
0.00203009
0.244084
0.00209009
0.243137
0.00214667
0.242159
0.00219977
0.24115
0.00224941
0.240113
0.00229568
0.239048
0.00233866
0.237957
0.00237835
0.236842
0.00241478
0.235702
0.0024474
0.234538
0.00247644
0.233345
0.00249951
0.00252081
0.245909
0.00197409
-0.246338
0.245412
0.00211317
0.244852
0.00224758
0.244233
0.00237887
0.243558
0.00250648
0.242829
0.00262951
0.242048
0.00274761
0.241218
0.00286062
0.240339
0.00296837
0.239415
0.00307077
0.238447
0.00316784
0.237437
0.00325967
0.236386
0.00334645
0.235296
0.00342844
0.234169
0.00350589
0.233004
0.00357913
0.231804
0.00364824
0.230566
0.00371382
0.229291
0.00377516
0.00383422
0.239505
0.00224495
-0.239776
0.239165
0.00245338
0.238758
0.00265502
0.238286
0.00285079
0.237752
0.00304074
0.237157
0.00322432
0.236503
0.00340118
0.235793
0.00357112
0.235027
0.003734
0.234208
0.00388977
0.233337
0.00403846
0.232417
0.00418027
0.231448
0.00431548
0.230432
0.00444452
0.22937
0.0045679
0.228263
0.00468629
0.227111
0.00480024
0.225914
0.00491068
0.224671
0.00501776
0.00512309
0.23182
0.00236558
-0.23194
0.23163
0.00264269
0.231373
0.00291187
0.231051
0.00317347
0.230664
0.00342761
0.230214
0.00367392
0.229703
0.00391203
0.229133
0.00414171
0.228504
0.0043628
0.227819
0.00457524
0.227078
0.0047791
0.226284
0.00497461
0.225437
0.00516216
0.224539
0.00534234
0.223591
0.00551591
0.222593
0.00568386
0.221547
0.00584718
0.22045
0.00600723
0.219303
0.00616482
0.00632175
0.223525
0.00236512
-0.223525
0.22346
0.00270847
0.223328
0.00304314
0.223133
0.00336912
0.222874
0.0036864
0.222553
0.00399464
0.222172
0.00429347
0.221731
0.0045826
0.221232
0.00486184
0.220676
0.00513109
0.220065
0.00539043
0.219399
0.00564011
0.218681
0.00588061
0.21791
0.00611266
0.217089
0.00633727
0.216217
0.00655576
0.215295
0.00676961
0.214321
0.00698065
0.213296
0.00719038
0.0074009
0.215129
0.00227821
-0.215042
0.215153
0.00268439
0.215115
0.00308132
0.215015
0.00346874
0.214855
0.00384647
0.214636
0.00421415
0.214358
0.00457138
0.214023
0.0049178
0.213631
0.00525316
0.213185
0.00557731
0.212685
0.00589031
0.212133
0.00619241
0.211529
0.00648413
0.210876
0.00676635
0.210173
0.0070403
0.209421
0.00730766
0.20862
0.00757044
0.207769
0.00783109
0.206868
0.00809187
0.00835539
0.206964
0.00213681
-0.206823
0.207047
0.00260221
0.20707
0.0030578
0.207036
0.00350318
0.206944
0.00393804
0.206796
0.00436194
0.206593
0.00477442
0.206336
0.00517505
0.206026
0.0055635
0.205663
0.00593956
0.205251
0.00630321
0.204788
0.00665467
0.204278
0.00699449
0.203721
0.00732361
0.203117
0.00764352
0.202469
0.00795623
0.201775
0.00826438
0.201035
0.00857113
0.200247
0.0088798
0.00919382
0.199225
0.00196693
-0.199055
0.199339
0.00248811
0.199398
0.00299893
0.199402
0.00349887
0.199353
0.0039875
0.19925
0.00446429
0.199096
0.00492872
0.198891
0.00538025
0.198636
0.00581847
0.198332
0.00624306
0.197982
0.0066539
0.197585
0.00705113
0.197145
0.00743525
0.196661
0.00780723
0.196136
0.00816874
0.19557
0.00852212
0.194963
0.00887073
0.194316
0.00921858
0.193625
0.00957043
0.00993094
0.192001
0.00178779
-0.191822
0.192128
0.00236177
0.192202
0.00292482
0.192224
0.0034763
0.192196
0.00401568
0.192118
0.00454233
0.191991
0.00505564
0.191817
0.00555497
0.191595
0.00603978
0.191329
0.00650962
0.191018
0.00696424
0.190666
0.00740362
0.190273
0.00782814
0.189841
0.00823869
0.189373
0.00863706
0.18887
0.00902578
0.188331
0.0094091
0.187758
0.00979187
0.187147
0.010181
0.0105828
0.185317
0.00161249
-0.185141
0.185442
0.00223684
0.185517
0.00284969
0.185543
0.00345022
0.185521
0.0040378
0.185451
0.00461174
0.185336
0.0051713
0.185175
0.00571574
0.18497
0.00624436
0.184723
0.00675658
0.184436
0.00725192
0.184109
0.00773013
0.183746
0.00819141
0.183348
0.00863638
0.182918
0.00906686
0.182459
0.00948532
0.181971
0.00989706
0.181455
0.0103075
0.180909
0.010727
0.0111636
0.179153
0.00144923
-0.17899
0.179268
0.00212218
0.179335
0.00278289
0.179354
0.00343048
0.179328
0.00406425
0.179256
0.00468339
0.17914
0.00528707
0.178982
0.00587442
0.178782
0.00644459
0.178541
0.00699677
0.178263
0.00753028
0.177949
0.00804454
0.177601
0.00853941
0.177222
0.00901506
0.176816
0.00947318
0.176385
0.00991572
0.175933
0.0103493
0.175461
0.0107791
0.174967
0.011221
0.0116839
0.17347
0.00130284
-0.173324
0.173569
0.00202292
0.173622
0.00272999
0.17363
0.00342313
0.173592
0.00410151
0.173512
0.00476423
0.173388
0.00541036
0.173224
0.00603889
0.17302
0.00664881
0.172777
0.0072391
0.172499
0.00780876
0.172186
0.00835683
0.171843
0.00888274
0.171472
0.00938591
0.171078
0.0098677
0.170665
0.0103288
0.170237
0.0107774
0.169799
0.0112167
0.169348
0.0116718
0.0121494
0.168218
0.00117566
-0.168091
0.168299
0.00194181
0.168335
0.00269405
0.168327
0.00343149
0.168275
0.00415321
0.168181
0.00485822
0.168046
0.00554547
0.167871
0.00621383
0.167658
0.00686213
0.167408
0.00748909
0.167123
0.00809341
0.166806
0.00867365
0.16646
0.00922866
0.166089
0.0097569
0.165698
0.0102591
0.165293
0.0107336
0.16488
0.0111906
0.164469
0.0116274
0.164056
0.0120853
0.0125589
0.163344
0.00106856
-0.163237
0.163406
0.00187973
0.163424
0.00267612
0.163399
0.00345682
0.163331
0.00422081
0.163222
0.00496702
0.163074
0.0056943
0.162886
0.00640139
0.162661
0.00708696
0.162401
0.00774949
0.162107
0.00838736
0.161782
0.00899862
0.161429
0.00958145
0.161053
0.0101331
0.160659
0.0106532
0.160256
0.0111367
0.159851
0.0115959
0.159462
0.0120157
0.159083
0.0124648
0.0129009
0.158798
0.000981127
-0.158711
0.158842
0.00183628
0.158842
0.00267588
0.1588
0.00349884
0.158717
0.00430409
0.158593
0.00509046
0.158431
0.00585673
0.158231
0.00660154
0.157994
0.00732338
0.157723
0.00802054
0.157419
0.00869107
0.157085
0.00933256
0.156724
0.00994243
0.156341
0.0105166
0.155941
0.0110532
0.155535
0.0115423
0.155133
0.0119982
0.154764
0.0123848
0.154414
0.012815
0.0131506
0.154534
0.000911469
-0.154465
0.15456
0.00181
0.154545
0.0026917
0.154488
0.00355583
0.154391
0.00440119
0.154254
0.00522655
0.154081
0.00603063
0.15387
0.00681199
0.153625
0.007569
0.153345
0.00829975
0.153034
0.00900204
0.152694
0.00967304
0.152327
0.0103095
0.151937
0.010906
0.151531
0.011459
0.151121
0.0119523
0.150719
0.0124007
0.15037
0.0127338
0.150043
0.0131415
0.0132789
0.150511
0.000857885
-0.150457
0.150523
0.00179815
0.150494
0.00272051
0.150426
0.00362431
0.150319
0.00450822
0.150174
0.00537098
0.149994
0.00621126
0.149778
0.00702758
0.149529
0.0078182
0.149247
0.00858109
0.148936
0.00931387
0.148595
0.0100134
0.148229
0.010676
0.14784
0.011295
0.147433
0.0118657
0.147021
0.0123648
0.146615
0.0128064
0.146286
0.0130628
0.145999
0.0134282
0.0132377
0.14669
-0.146651
0.000818581
0.146692
0.00179689
0.146654
0.00275801
0.146579
0.00369934
0.146468
0.00461949
0.146322
0.00551727
0.146141
0.00639137
0.145929
0.00724025
0.145685
0.00806211
0.145411
0.00885486
0.145109
0.00961604
0.14478
0.0103423
0.144426
0.01103
0.14405
0.0116713
0.143654
0.0122617
0.143247
0.0127717
0.142834
0.0132185
0.142491
0.0134067
0.142239
0.0136798
0.0126314
0.253922
7.3315e-05
-0.253995
0.253887
3.49561e-05
0.253857
3.03461e-05
0.253818
3.85666e-05
0.253766
5.23648e-05
0.253696
6.95773e-05
0.253607
8.89144e-05
0.253498
0.000109264
0.253368
0.000129827
0.253218
0.000150116
0.253048
0.000169698
0.25286
0.000188234
0.252654
0.00020602
0.25243
0.000223908
0.252189
0.000240943
0.251933
0.000255919
0.251665
0.000268275
0.251387
0.000277984
0.251108
0.000279236
0.000278943
0.255246
-0.000234384
-0.254938
0.255494
-0.000213055
0.255698
-0.000174514
0.25586
-0.000123033
0.255978
-6.50965e-05
0.256051
-3.38118e-06
0.256078
6.09765e-05
0.256061
0.000126888
0.255997
0.00019348
0.255887
0.000259932
0.255732
0.000324933
0.255533
0.000387402
0.255293
0.00044638
0.255008
0.000508227
0.25468
0.000569665
0.25431
0.000625585
0.253902
0.000676656
0.253457
0.000722962
0.252976
0.000759801
0.000791337
0.250403
-0.000873775
-0.249764
0.250971
-0.000781088
0.251475
-0.000678659
0.251919
-0.000566541
0.252302
-0.000448174
0.252624
-0.000325835
0.252886
-0.000200661
0.253087
-7.41532e-05
0.253227
5.35702e-05
0.253304
0.000182869
0.25332
0.000309154
0.253275
0.000431903
0.253168
0.000553416
0.253003
0.000673975
0.252781
0.000791652
0.252502
0.000904475
0.252167
0.00101176
0.251776
0.00111347
0.251328
0.00120772
0.0012973
0.241974
-0.00178238
-0.241066
0.242812
-0.001619
0.243582
-0.00144849
0.244286
-0.00127003
0.244923
-0.0010852
0.245493
-0.000895805
0.245995
-0.000703189
0.24643
-0.000508599
0.246796
-0.000312722
0.247092
-0.000113211
0.247317
8.37723e-05
0.247477
0.000272181
0.247568
0.000463039
0.247591
0.000650886
0.247547
0.000834913
0.247438
0.00101425
0.247261
0.00118796
0.247019
0.00135564
0.246711
0.00151627
0.00167037
0.231869
-0.00288285
-0.230769
0.232904
-0.00265341
0.233872
-0.00241659
0.234774
-0.00217191
0.235609
-0.00192021
0.236376
-0.00166295
0.237074
-0.00140153
0.237703
-0.00113716
0.238261
-0.000870784
0.238751
-0.000603175
0.239172
-0.000337186
0.239519
-7.48996e-05
0.239796
0.000186146
0.240003
0.000443935
0.240139
0.000698231
0.240206
0.000947627
0.240203
0.00119129
0.24013
0.00142856
0.239987
0.00165865
0.00188145
0.221323
-0.00410554
-0.2201
0.222484
-0.00381488
0.223583
-0.00351528
0.224618
-0.00320684
0.225588
-0.0028903
0.226492
-0.00256704
0.227329
-0.00223859
0.228098
-0.0019064
0.228799
-0.00157188
0.229432
-0.00123635
0.229997
-0.000901298
0.23049
-0.000568094
0.230913
-0.000237563
0.231269
8.84162e-05
0.231555
0.000411946
0.231771
0.000731876
0.231917
0.00104511
0.231994
0.00135171
0.232002
0.00165107
0.00194289
0.211086
-0.00539507
-0.209797
0.212318
-0.00504733
0.213492
-0.00468853
0.214604
-0.0043193
0.215655
-0.00394059
0.216641
-0.00355397
0.217564
-0.00316118
0.218422
-0.00276394
0.219214
-0.00236386
0.21994
-0.00196239
0.220599
-0.00156088
0.221192
-0.00116076
0.221717
-0.000762816
0.222173
-0.000367747
0.222569
1.56997e-05
0.222895
0.000406778
0.223152
0.000787215
0.223343
0.00116071
0.223468
0.00152698
0.00188555
0.201554
-0.00671123
-0.200238
0.202817
-0.00630969
0.204023
-0.00589472
0.205171
-0.0054673
0.206259
-0.00502882
0.207286
-0.00458122
0.208252
-0.00412657
0.209155
-0.00366686
0.209995
-0.00320388
0.210772
-0.00273923
0.211485
-0.00227436
0.212135
-0.00181065
0.212721
-0.00134916
0.213245
-0.000890936
0.213698
-0.000437425
0.214098
5.97456e-06
0.214429
0.000456581
0.214697
0.00089285
0.214901
0.00132266
0.0017447
0.192882
-0.00802725
-0.191565
0.194146
-0.00757444
0.195357
-0.00710554
0.196512
-0.0066218
0.197608
-0.00612528
0.198645
-0.00561849
0.199623
-0.00510393
0.20054
-0.00458386
0.201396
-0.00406032
0.202192
-0.00353506
0.202927
-0.0030096
0.203602
-0.00248528
0.204216
-0.00196329
0.20477
-0.00144457
0.205263
-0.000930526
0.205691
-0.000422331
0.206067
8.10344e-05
0.206379
0.000580851
0.206631
0.00107046
0.00155238
0.185077
-0.00932696
-0.183777
0.186327
-0.00882488
0.187525
-0.00830354
0.188668
-0.00776456
0.189753
-0.00721097
0.190781
-0.00664607
0.19175
-0.00607288
0.19266
-0.00549402
0.193512
-0.00491175
0.194304
-0.00432795
0.195039
-0.00374417
0.195715
-0.00316174
0.196334
-0.00258181
0.196895
-0.00200536
0.197398
-0.00143342
0.197842
-0.000866877
0.19823
-0.000306521
0.198563
0.000248113
0.198837
0.000795905
0.00133439
0.178072
-0.010602
-0.176797
0.1793
-0.0100524
0.180476
-0.00947943
0.181597
-0.00888546
0.182661
-0.00827502
0.183667
-0.00765245
0.184616
-0.00702134
0.185506
-0.00638471
0.18634
-0.00574503
0.187116
-0.00510427
0.187836
-0.00446397
0.188499
-0.00382539
0.189107
-0.00318964
0.189659
-0.00255766
0.190156
-0.00193033
0.190598
-0.00130852
0.190984
-0.000692786
0.191318
-8.58884e-05
0.191597
0.00051695
0.00110944
0.17177
-0.0118493
-0.170523
0.172972
-0.0112541
0.174122
-0.0106297
0.175217
-0.0099802
0.176254
-0.00931246
0.177234
-0.00863207
0.178156
-0.00794322
0.179021
-0.00724937
0.179829
-0.00655317
0.180581
-0.0058566
0.181278
-0.00516113
0.181921
-0.00446794
0.182509
-0.00377801
0.183044
-0.00309224
0.183525
-0.00241144
0.183953
-0.00173643
0.184328
-0.00106801
0.18465
-0.000407717
0.184922
0.000244434
0.000890301
0.166066
-0.0130699
-0.164845
0.167243
-0.0124314
0.168368
-0.011755
0.169437
-0.0110485
0.170446
-0.0103223
0.171398
-0.00958338
0.172291
-0.00883648
0.173127
-0.00808552
0.173907
-0.0073333
0.174632
-0.00658168
0.175303
-0.00583201
0.175921
-0.00508531
0.176485
-0.00434243
0.176997
-0.00360418
0.177457
-0.00287132
0.177865
-0.00214466
0.178222
-0.00142474
0.178526
-0.000712308
0.178785
-1.39861e-05
0.000685206
0.160863
-0.0142674
-0.159666
0.162021
-0.013589
0.163124
-0.0128587
0.164169
-0.0120927
0.165153
-0.0113063
0.166076
-0.0105073
0.166941
-0.00970136
0.167749
-0.00889297
0.1685
-0.00808482
0.169197
-0.00727857
0.16984
-0.00647533
0.170431
-0.0056759
0.17097
-0.00488098
0.171457
-0.00409124
0.171893
-0.00330736
0.172278
-0.00253012
0.172614
-0.00176021
0.1729
-0.000998964
0.173134
-0.000248186
0.000495911
0.156082
-0.0154484
-0.154901
0.157228
-0.0147346
0.158316
-0.0139464
0.15934
-0.0131169
0.160301
-0.012267
0.161199
-0.0114053
0.162036
-0.0105387
0.162815
-0.00967204
0.163538
-0.00880772
0.164206
-0.00794703
0.164822
-0.00709069
0.165385
-0.00623919
0.165897
-0.00539298
0.166358
-0.00455258
0.16677
-0.00371858
0.167131
-0.00289172
0.167444
-0.00207279
0.167708
-0.00126276
0.167922
-0.000462805
0.000327203
0.151663
-0.0166252
-0.150486
0.152807
-0.0158782
0.153885
-0.0150245
0.154893
-0.0141255
0.155833
-0.0132064
0.156705
-0.0122777
0.157515
-0.0113481
0.158265
-0.010422
0.158958
-0.00950127
0.159598
-0.00858643
0.160185
-0.00767763
0.16072
-0.00677486
0.161205
-0.00587824
0.161641
-0.00498807
0.162027
-0.00410485
0.162365
-0.00322924
0.162654
-0.00236202
0.162895
-0.00150406
0.163089
-0.000656614
0.000179192
0.147561
-0.0178262
-0.14636
0.148717
-0.0170344
0.149791
-0.0160987
0.150786
-0.0151203
0.151702
-0.0141228
0.152546
-0.0131214
0.153324
-0.0121263
0.154042
-0.0111403
0.154705
-0.0101635
0.155314
-0.00919556
0.155872
-0.00823553
0.156379
-0.00728274
0.156838
-0.00633689
0.157248
-0.00539805
0.15761
-0.00446661
0.157924
-0.00354318
0.15819
-0.00262855
0.15841
-0.00172363
0.158583
-0.000829452
5.12521e-05
0.143745
-0.0191139
-0.142458
0.144934
-0.0182231
0.146004
-0.0171687
0.146979
-0.0160955
0.147864
-0.0150081
0.148671
-0.0139284
0.149412
-0.0128673
0.150095
-0.0118229
0.150724
-0.0107923
0.151302
-0.0097734
0.15183
-0.00876422
0.152311
-0.00776321
0.152744
-0.00676965
0.153129
-0.00578344
0.153467
-0.00480492
0.153759
-0.00383468
0.154004
-0.00287357
0.154203
-0.00192268
0.154356
-0.000983101
-5.68283e-05
0.14023
-0.0205552
-0.138788
0.141446
-0.0194395
0.142493
-0.018216
0.143428
-0.01703
0.144267
-0.0158469
0.145027
-0.0146893
0.145726
-0.0135653
0.14637
-0.0124669
0.146964
-0.0113867
0.147511
-0.0103204
0.148012
-0.00926476
0.148466
-0.00821764
0.148874
-0.00717804
0.149237
-0.00614582
0.149553
-0.00512138
0.149824
-0.0041054
0.150049
-0.00309882
0.150229
-0.00210285
0.150365
-0.001119
-0.000148977
0.137074
-0.135695
-0.021934
0.138203
-0.0205686
0.139211
-0.0192245
0.140071
-0.01789
0.140847
-0.0166227
0.141559
-0.0154017
0.142215
-0.0142212
0.142822
-0.0130739
0.143385
-0.011949
0.143903
-0.0108388
0.144377
-0.00973919
0.144807
-0.00864772
0.145193
-0.00756347
0.145534
-0.00648646
0.145829
-0.00541725
0.146081
-0.00435672
0.146288
-0.0033059
0.146451
-0.00226589
0.14657
-0.00123833
-0.00022986
0.0295866
0.110608
-0.109182
-0.0310134
0.0281354
0.113707
-0.112256
0.0266571
0.116946
-0.115467
0.0251479
0.120346
-0.118837
0.0236042
0.123941
-0.122397
0.0220232
0.12777
-0.126189
0.0204024
0.13189
-0.130269
0.0187401
0.136379
-0.134717
0.0170355
0.141336
-0.139631
0.0152884
0.146888
-0.14514
0.0135003
0.153188
-0.1514
0.0116751
0.160417
-0.158592
0.0098211
0.168766
-0.166912
0.00795431
0.178415
-0.176549
0.00610344
0.189482
-0.187631
0.00431683
0.201934
-0.200148
0.00267146
0.215452
-0.213807
0.00128372
0.229222
-0.227834
0.000317063
0.241541
-0.240575
0.249405
-0.249088
0.0294332
0.11203
-0.030855
0.0279871
0.115153
0.026514
0.118419
0.0250103
0.12185
0.0234724
0.125478
0.0218973
0.129345
0.0202825
0.133505
0.0186262
0.138035
0.0169273
0.143035
0.0151859
0.148629
0.0134034
0.154971
0.0115841
0.162236
0.0097368
0.170613
0.0078784
0.180274
0.00603871
0.191322
0.00426752
0.203705
0.00264324
0.217076
0.0012817
0.230584
0.000341408
0.242482
0.249746
0.0292385
0.113445
-0.0306531
0.0277997
0.116592
0.0263341
0.119884
0.0248381
0.123346
0.0233082
0.127008
0.0217412
0.130912
0.0201346
0.135112
0.0184864
0.139683
0.0167956
0.144725
0.0150621
0.150362
0.0132876
0.156745
0.0114765
0.164047
0.00963839
0.172451
0.00779071
0.182121
0.00596427
0.193148
0.00420986
0.20546
0.00260638
0.21868
0.00126807
0.231922
0.000345097
0.243405
0.250091
0.029004
0.11485
-0.0304092
0.0275747
0.118022
0.0261188
0.12134
0.0246326
0.124832
0.0231126
0.128528
0.0215557
0.132469
0.0199593
0.136708
0.0183214
0.141321
0.0166408
0.146406
0.0149174
0.152086
0.0131531
0.15851
0.0113526
0.165848
0.0095258
0.174278
0.00769095
0.183956
0.0058796
0.19496
0.00414325
0.207196
0.00256093
0.220262
0.00124524
0.233238
0.000340678
0.244309
0.250432
0.0287318
0.116244
-0.0301258
0.0273139
0.11944
0.0258695
0.122785
0.024395
0.126307
0.0228869
0.130036
0.021342
0.134014
0.0197577
0.138292
0.0181319
0.142947
0.0164634
0.148075
0.0147522
0.153797
0.0130002
0.160262
0.0112124
0.167636
0.00939903
0.176092
0.00757908
0.185776
0.00578479
0.196754
0.00406828
0.208913
0.0025086
0.221822
0.00121675
0.234529
0.000332414
0.245194
0.250764
0.0284244
0.117625
-0.0298055
0.0270194
0.120845
0.0255882
0.124216
0.0241269
0.127768
0.0226322
0.131531
0.0211009
0.135545
0.0195304
0.139863
0.0179185
0.144559
0.016264
0.149729
0.0145669
0.155494
0.0128291
0.161999
0.011056
0.169409
0.00925822
0.177889
0.00745528
0.187579
0.00568014
0.198529
0.00398552
0.210607
0.00245037
0.223357
0.00118395
0.235796
0.00032148
0.246056
0.251086
0.0280843
0.118992
-0.0294513
0.0266935
0.122235
0.0252766
0.125633
0.0238299
0.129214
0.02235
0.133011
0.0208337
0.137061
0.0192784
0.141418
0.017682
0.146155
0.0160432
0.151368
0.0143619
0.157175
0.0126402
0.163721
0.0108838
0.171165
0.00910364
0.179669
0.0073198
0.189363
0.00556596
0.200283
0.00389532
0.212278
0.00238663
0.224866
0.0011474
0.237035
0.000308577
0.246895
0.251394
0.0277142
0.120345
-0.0290666
0.0263383
0.123611
0.0249366
0.127034
0.0235055
0.130646
0.0220414
0.134475
0.0205413
0.138561
0.0190026
0.142957
0.017423
0.147735
0.0158014
0.15299
0.0141376
0.158839
0.0124339
0.165425
0.0106961
0.172903
0.00893553
0.18143
0.00717291
0.191126
0.00544249
0.202013
0.00379794
0.213923
0.00231775
0.226346
0.0011076
0.238245
0.000294304
0.247708
0.251689
0.0273169
0.121682
-0.0286546
0.0259561
0.124972
0.0245701
0.12842
0.023155
0.132061
0.0217075
0.135923
0.0202246
0.140044
0.0187035
0.144478
0.0171421
0.149296
0.015539
0.154593
0.0138944
0.160484
0.0122104
0.167109
0.010493
0.17462
0.0087541
0.183169
0.0070148
0.192865
0.00530998
0.203718
0.00369369
0.215539
0.00224409
0.227795
0.00106503
0.239424
0.000279074
0.248494
0.251968
0.0268949
0.123006
-0.0282185
0.0255489
0.126318
0.0241784
0.129791
0.0227796
0.133459
0.0213492
0.137353
0.019884
0.141509
0.0183815
0.14598
0.0168394
0.150838
0.0152564
0.156176
0.0136324
0.162108
0.0119698
0.168771
0.0102748
0.176315
0.00855953
0.184884
0.00684568
0.194579
0.00516866
0.205395
0.00358284
0.217125
0.00216599
0.229212
0.00102005
0.24057
0.00026313
0.249251
0.252231
0.0264505
0.124317
-0.0277615
0.0251182
0.12765
0.0237626
0.131146
0.0223799
0.134842
0.0209667
0.138766
0.01952
0.142956
0.0180369
0.147464
0.0165152
0.15236
0.0149535
0.157737
0.0133517
0.16371
0.0117123
0.170411
0.0100415
0.177986
0.00835196
0.186574
0.00666572
0.196265
0.00501873
0.207042
0.00346565
0.218678
0.00208375
0.230594
0.000972929
0.241681
0.000246632
0.249977
0.252478
0.025985
0.125618
-0.0272858
0.0246646
0.128971
0.0233229
0.132488
0.0219558
0.136209
0.02056
0.140162
0.0191321
0.144384
0.0176693
0.148926
0.0161692
0.15386
0.0146302
0.159276
0.0130523
0.165288
0.0114378
0.172025
0.0097932
0.179631
0.00813146