/*--------------------------------*- C++ -*----------------------------------*\
  =========                 |
  \\      /  F ield         | OpenFOAM: The Open Source CFD Toolbox
   \\    /   O peration     | Website:  https://openfoam.org
    \\  /    A nd           | Version:  6.0
     \\/     M anipulation  |
\*---------------------------------------------------------------------------*/
FoamFile
{
    version     2.0;
    format      ascii;
    class       surfaceScalarField;
    location    "2.2505";
    object      phi;
}
// * * * * * * * * * * * * * * * * * * * * * * * * * * * * * * * * * * * * * //

dimensions      [0 3 -1 0 0 0 0];

internalField   nonuniform List<scalar> 
38030
(
4.36269e-06
-0.0808956
0.0808912
4.7395e-05
-0.0767288
0.0766857
0.000123416
-0.0730832
0.0730072
0.000228258
-0.0698685
0.0697636
0.000358639
-0.0670069
0.0668765
0.000511085
-0.0644323
0.0642799
0.000682062
-0.0620908
0.0619198
0.00086814
-0.0599388
0.0597528
0.00106611
-0.0579419
0.0577439
0.00127305
-0.0560726
0.0558657
0.00148639
-0.0543098
0.0540965
0.0017039
-0.0526369
0.0524194
0.00192369
-0.0510411
0.0508213
0.00214425
-0.0495126
0.0492921
0.00236433
-0.0480439
0.0478238
0.002583
-0.046629
0.0464103
0.00279956
-0.0452635
0.0450469
0.00301352
-0.0439437
0.0437297
0.00322457
-0.0426667
0.0424556
0.00343252
-0.04143
0.0412221
0.00363731
-0.0402317
0.0400269
0.0038389
-0.0390698
0.0388682
0.00403732
-0.037943
0.0377446
0.00423258
-0.0368501
0.0366548
0.00442473
-0.0357902
0.035598
0.00461379
-0.0347621
0.034573
0.00479976
-0.0337642
0.0335783
0.00498256
-0.0327952
0.0326124
0.00516205
-0.0318536
0.0316742
-0.0309383
0.0307624
0.00533797
1.12574e-05
-0.0809068
5.52864e-05
-0.0767728
0.000132014
-0.07316
0.000238376
-0.0699748
0.000370898
-0.0671394
0.000525888
-0.0645873
0.000699624
-0.0622645
0.000888524
-0.0601277
0.00108927
-0.0581426
0.00129886
-0.0562822
0.00151466
-0.0545256
0.00173443
-0.0528567
0.00195627
-0.051263
0.00217865
-0.049735
0.00240036
-0.0482656
0.00262048
-0.0468491
0.00283835
-0.0454813
0.00305352
-0.0441588
0.00326572
-0.0428789
0.00347481
-0.0416391
0.00368077
-0.0404377
0.00388362
-0.0392727
0.00408341
-0.0381428
0.0042802
-0.0370469
0.00447404
-0.035984
0.00466501
-0.034953
0.00485316
-0.0339524
0.00503846
-0.0329805
0.00522079
-0.032036
-0.0311175
0.00539992
1.37788e-05
-0.0809206
6.01206e-05
-0.0768191
0.000138944
-0.0732388
0.000247679
-0.0700836
0.000382873
-0.0672746
0.000540743
-0.0647452
0.00071745
-0.0624412
0.000909312
-0.0603196
0.00111292
-0.0583462
0.00132521
-0.0564945
0.00154351
-0.0547439
0.00176554
-0.0530787
0.00198941
-0.0514868
0.0022136
-0.0499592
0.0024369
-0.0484889
0.00265844
-0.0470707
0.00287758
-0.0457005
0.00309391
-0.0443752
0.0033072
-0.0430921
0.00351738
-0.0418493
0.00372447
-0.0406447
0.00392855
-0.0394768
0.00412971
-0.0383439
0.00432804
-0.0372452
0.00452361
-0.0361796
0.0047165
-0.0351459
0.00490686
-0.0341427
0.0050947
-0.0331683
0.00527992
-0.0322212
-0.0312999
0.00546234
1.52179e-05
-0.0809358
6.37614e-05
-0.0768677
0.000145045
-0.0733201
0.000256518
-0.070195
0.000394681
-0.0674128
0.00055565
-0.0649062
0.000735489
-0.0626211
0.000930418
-0.0605145
0.00113695
-0.0585527
0.00135197
-0.0567095
0.00157277
-0.0549647
0.00179705
-0.053303
0.00202292
-0.0517127
0.00224887
-0.0501851
0.00247372
-0.0487137
0.00269661
-0.0472936
0.00291694
-0.0459208
0.00313436
-0.0445926
0.00334868
-0.0433065
0.00355987
-0.0420605
0.00376802
-0.0408529
0.00397326
-0.039682
0.00417578
-0.0385464
0.00437563
-0.037445
0.00457291
-0.0363769
0.00476776
-0.0353408
0.00496032
-0.0343353
0.00515071
-0.0333587
0.00533887
-0.0324094
-0.0314856
0.00552462
1.62692e-05
-0.0809521
6.68585e-05
-0.0769183
0.000150708
-0.0734039
0.000265097
-0.0703094
0.000406402
-0.0675541
0.000570616
-0.0650704
0.000753691
-0.0628042
0.000951754
-0.0607126
0.00116125
-0.0587622
0.001379
-0.0569273
0.00160228
-0.055188
0.00182878
-0.0535295
0.00205659
-0.0519405
0.00228423
-0.0504128
0.00251054
-0.0489401
0.0027347
-0.0475177
0.00295615
-0.0461423
0.00317456
-0.044811
0.00338981
-0.0435217
0.00360192
-0.0422726
0.00381103
-0.041062
0.00401737
-0.0398883
0.00422112
-0.0387502
0.00442245
-0.0376464
0.00462141
-0.0365758
0.00481821
-0.0355376
0.00501298
-0.0345301
0.00520592
-0.0335517
0.00539701
-0.0326005
-0.0316747
0.0055861
1.71524e-05
-0.0809692
6.96908e-05
-0.0769708
0.000156139
-0.0734904
0.000273538
-0.0704268
0.000418086
-0.0676986
0.000585632
-0.0652379
0.000772004
-0.0629905
0.000973234
-0.0609138
0.00118569
-0.0589747
0.00140616
-0.0571477
0.00163187
-0.0554137
0.00186051
-0.0537581
0.00209019
-0.0521702
0.00231943
-0.050642
0.0025471
-0.0491677
0.00277242
-0.047743
0.00299487
-0.0463647
0.00321417
-0.0450303
0.00343024
-0.0437378
0.00364316
-0.0424855
0.00385313
-0.041272
0.00406043
-0.0400956
0.00426529
-0.0389551
0.00446794
-0.037849
0.00466854
-0.0367764
0.0048672
-0.0357362
0.00506421
-0.0347271
0.00525968
-0.0337471
0.00545369
-0.0327945
-0.0318672
0.00564612
1.79618e-05
-0.0809872
7.23953e-05
-0.0770252
0.000161453
-0.0735794
0.00028191
-0.0705473
0.000429759
-0.0678465
0.000600683
-0.0654089
0.000790378
-0.0631802
0.000994775
-0.0611182
0.00121017
-0.0591901
0.0014333
-0.0573709
0.00166138
-0.0556418
0.00189207
-0.0539888
0.00212351
-0.0524016
0.00235423
-0.0508727
0.00258314
-0.0493966
0.00280948
-0.0479694
0.00303279
-0.046588
0.00325283
-0.0452503
0.00346957
-0.0439545
0.00368316
-0.0426991
0.00389384
-0.0414826
0.00410193
-0.0403037
0.00430777
-0.0391609
0.00451162
-0.0380529
0.00471371
-0.0369785
0.00491423
-0.0359368
0.00511335
-0.0349262
0.00531132
-0.0339451
0.00550821
-0.0329914
-0.0320629
0.00570396
1.87372e-05
-0.0810059
7.50406e-05
-0.0770816
0.000166713
-0.0736711
0.000290252
-0.0706708
0.000441429
-0.0679976
0.000615746
-0.0655832
0.000808759
-0.0633732
0.00101629
-0.0613257
0.00123457
-0.0594084
0.00146029
-0.0575966
0.00169063
-0.0558721
0.00192326
-0.0542214
0.00215632
-0.0526347
0.00238838
-0.0511048
0.00261837
-0.0496266
0.00284558
-0.0481966
0.00306958
-0.046812
0.00329018
-0.0454709
0.00350743
-0.0441718
0.00372149
-0.0429132
0.00393269
-0.0416938
0.0041414
-0.0405124
0.00434804
-0.0393675
0.00455299
-0.0382578
0.00475648
-0.037182
0.0049587
-0.036139
0.00515988
-0.0351274
0.00536021
-0.0341454
0.00555991
-0.0331911
-0.0322619
0.00575893
1.95005e-05
-0.0810254
7.76603e-05
-0.0771397
0.000171951
-0.0737654
0.000298581
-0.0707975
0.000453089
-0.0681522
0.000630789
-0.0657609
0.000827089
-0.0635695
0.0010377
-0.0615364
0.00125879
-0.0596294
0.00148698
-0.0578248
0.00171946
-0.0561046
0.00195389
-0.0544559
0.00218842
-0.0528692
0.00242165
-0.051338
0.00265254
-0.0498575
0.00288043
-0.0484245
0.00310493
-0.0470365
0.00332591
-0.0456919
0.00354344
-0.0443893
0.00375778
-0.0431275
0.00396928
-0.0419053
0.00417841
-0.0407216
0.00438568
-0.0395748
0.00459151
-0.0384636
0.00479624
-0.0373867
0.00500004
-0.0363428
0.00520315
-0.0353305
0.00540577
-0.0343481
0.00560816
-0.0333934
-0.0324641
0.00581034
2.02591e-05
-0.0810457
8.02734e-05
-0.0771997
0.00017718
-0.0738623
0.0003069
-0.0709272
0.000464727
-0.06831
0.000645779
-0.0659419
0.000845311
-0.0637691
0.00105893
-0.06175
0.00128271
-0.0598532
0.00151326
-0.0580553
0.00174772
-0.0563391
0.00198378
-0.0546919
0.0022196
-0.0531051
0.0024538
-0.0515722
0.0026854
-0.0500891
0.00291376
-0.0486528
0.00313854
-0.0472613
0.00335967
-0.045913
0.00357728
-0.0446069
0.00379166
-0.0433419
0.00400326
-0.0421169
0.00421258
-0.0409309
0.0044202
-0.0397824
0.00462665
-0.0386701
0.00483237
-0.0375924
0.00503758
-0.036548
0.00524245
-0.0355354
0.00544729
-0.0345529
0.00565225
-0.0335984
-0.0326693
0.00585749
2.10178e-05
-0.0810667
8.28853e-05
-0.0772616
0.000182404
-0.0739618
0.000315202
-0.07106
0.000476322
-0.0684711
0.000660676
-0.0661263
0.000863366
-0.0639718
0.00107988
-0.0619665
0.00130623
-0.0600796
0.00153898
-0.0582881
0.00177526
-0.0565753
0.00201276
-0.0549294
0.00224966
-0.053342
0.00248462
-0.0518072
0.00271669
-0.0503212
0.00294528
-0.0488814
0.00317011
-0.0474861
0.00339115
-0.0461341
0.00360858
-0.0448244
0.00382277
-0.0435561
0.00403419
-0.0423284
0.00424343
-0.0411401
0.00445112
-0.0399901
0.00465792
-0.0388769
0.0048643
-0.0377988
0.00507066
-0.0367543
0.00527715
-0.0357419
0.00548404
-0.0347598
0.00569147
-0.0338058
-0.0328775
0.00589964
2.17786e-05
-0.0810885
8.54967e-05
-0.0773253
0.000187621
-0.0740639
0.000323477
-0.0711958
0.000487851
-0.0686355
0.000675444
-0.0663139
0.000881197
-0.0641775
0.00110049
-0.0621858
0.00132926
-0.0603083
0.00156403
-0.0585229
0.00180193
-0.0568132
0.00204065
-0.0551681
0.0022784
-0.0535797
0.00251388
-0.0520427
0.00274618
-0.0505535
0.00297475
-0.04911
0.00319936
-0.0477107
0.00342003
-0.0463547
0.00363701
-0.0450413
0.00385071
-0.0437698
0.00406168
-0.0425393
0.00427055
-0.041349
0.00447804
-0.0401976
0.00468484
-0.0390837
0.00489158
-0.0380056
0.00509875
-0.0369615
0.00530659
-0.0359497
0.00551528
-0.0349685
0.00572508
-0.0340156
-0.0330884
0.00593601
2.25397e-05
-0.081111
8.8107e-05
-0.0773909
0.000192825
-0.0741687
0.000331712
-0.0713347
0.000499289
-0.0688031
0.000690042
-0.0665046
0.000898748
-0.0643862
0.00112068
-0.0624077
0.00135169
-0.0605394
0.00158829
-0.0587594
0.00182759
-0.0570525
0.00206729
-0.0554079
0.00230566
-0.0538181
0.00254139
-0.0522784
0.00277364
-0.0507857
0.00300191
-0.0493382
0.00322601
-0.0479348
0.00344602
-0.0465748
0.00366225
-0.0452576
0.00387515
-0.0439827
0.00408534
-0.0427495
0.00429353
-0.0415572
0.00450046
-0.0404045
0.00470693
-0.0392902
0.00491369
-0.0382123
0.00512128
-0.0371691
0.00533013
-0.0361586
0.0055404
-0.0351787
0.00575228
-0.0342275
-0.033302
0.00596584
2.33005e-05
-0.0811343
9.07101e-05
-0.0774583
0.000198007
-0.074276
0.000339893
-0.0714766
0.000510614
-0.0689738
0.000704435
-0.0666984
0.000915969
-0.0645978
0.00114037
-0.0626321
0.00137344
-0.0607724
0.00161165
-0.0589977
0.00185211
-0.057293
0.00209255
-0.0556483
0.00233124
-0.0540568
0.00256695
-0.0525141
0.00279886
-0.0510176
0.00302653
-0.0495659
0.00324981
-0.0481581
0.00346885
-0.0467938
0.00368399
-0.0454727
0.00389575
-0.0441945
0.00410482
-0.0429586
0.00431196
-0.0417643
0.004518
-0.0406106
0.00472378
-0.0394959
0.00493014
-0.0384187
0.00513777
-0.0373767
0.0053472
-0.036368
0.0055587
-0.0353902
0.00577236
-0.0344412
-0.033518
0.00598839
2.40583e-05
-0.0811584
9.33025e-05
-0.0775275
0.00020316
-0.0743858
0.000348008
-0.0716215
0.000521807
-0.0691476
0.000718593
-0.0668952
0.000932812
-0.064812
0.00115951
-0.0628588
0.00139443
-0.0610073
0.00163401
-0.0592372
0.00187537
-0.0575344
0.00211627
-0.0558892
0.00235502
-0.0542955
0.0025904
-0.0527495
0.00282167
-0.0512489
0.00304841
-0.0497927
0.00327055
-0.0483802
0.00348826
-0.0470115
0.00370196
-0.0456864
0.00391223
-0.0444047
0.00411979
-0.0431662
0.0043255
-0.04197
0.00453023
-0.0408153
0.00473492
-0.0397006
0.00494047
-0.0386242
0.00514771
-0.037584
0.00535726
-0.0365775
0.00556957
-0.0356025
0.00578476
-0.0346564
-0.0337362
0.00600293
2.48111e-05
-0.0811832
9.58798e-05
-0.0775986
0.000208279
-0.0744982
0.00035605
-0.0717692
0.000532853
-0.0693244
0.00073249
-0.0670949
0.000949239
-0.0650287
0.00117804
-0.0630876
0.00141458
-0.0612439
0.00165528
-0.0594779
0.00189728
-0.0577764
0.00213835
-0.0561303
0.00237684
-0.054534
0.00261159
-0.0529842
0.00284188
-0.0514792
0.00306737
-0.0500181
0.00328801
-0.0486009
0.00350404
-0.0472275
0.00371593
-0.0458983
0.0039243
-0.0446131
0.00412995
-0.0433718
0.0043338
-0.0421739
0.0045368
-0.0410183
0.00473997
-0.0399038
0.00494428
-0.0388285
0.00515067
-0.0377904
0.00535991
-0.0367868
0.00557254
-0.0358152
0.0057888
-0.0348726
-0.033956
0.00600863
2.55551e-05
-0.0812088
9.84377e-05
-0.0776715
0.000213363
-0.0746131
0.000364014
-0.0719199
0.000543744
-0.0695041
0.000746107
-0.0672972
0.000965217
-0.0652478
0.00119591
-0.0633183
0.00143383
-0.0614818
0.00167539
-0.0597195
0.00191773
-0.0580187
0.00215867
-0.0563712
0.00239659
-0.0547719
0.00263038
-0.053218
0.00285937
-0.0517082
0.00308325
-0.050242
0.00330204
-0.0488197
0.00351602
-0.0474415
0.00372569
-0.0461079
0.00393175
-0.0448192
0.00413505
-0.0435751
0.00433656
-0.0423754
0.00453735
-0.0412191
0.0047385
-0.040105
0.00494109
-0.0390311
0.00514614
-0.0379954
0.00535454
-0.0369952
0.0055669
-0.0360275
0.00578358
-0.0350893
-0.034177
0.00600457
2.62867e-05
-0.081235
0.000100974
-0.0777462
0.000218413
-0.0747306
0.000371909
-0.0720734
0.00055448
-0.0696867
0.000759436
-0.0675022
0.000980722
-0.0654691
0.00121309
-0.0635507
0.00145213
-0.0617208
0.00169426
-0.0599616
0.00193665
-0.0582611
0.00217714
-0.0566117
0.00241417
-0.0550089
0.00264667
-0.0534505
0.00287401
-0.0519355
0.00309595
-0.050464
0.00331252
-0.0490363
0.00352406
-0.0476531
0.00373111
-0.046315
0.00393441
-0.0450225
0.00413487
-0.0437756
0.00433353
-0.042574
0.00453153
-0.0414171
0.00473007
-0.0403035
0.00493032
-0.0392314
0.00513341
-0.0381985
0.00534031
-0.0372021
0.00555178
-0.036239
0.00576824
-0.0353058
-0.0343986
0.00598984
2.70032e-05
-0.081262
0.000103493
-0.0778227
0.000223443
-0.0748505
0.000379748
-0.0722297
0.000565074
-0.069872
0.000772474
-0.0677096
0.000995737
-0.0656924
0.00122953
-0.0637845
0.00146942
-0.0619607
0.00171184
-0.060204
0.00195397
-0.0585032
0.0021937
-0.0568514
0.0024295
-0.0552448
0.00266038
-0.0536814
0.00288574
-0.0521609
0.00310537
-0.0506836
0.00331936
-0.0492502
0.00352808
-0.0478618
0.00373209
-0.046519
0.00393218
-0.0452225
0.0041293
-0.0439727
0.00432455
-0.0427693
0.00451914
-0.0416117
0.00471437
-0.0404987
0.00491153
-0.0394285
0.00511189
-0.0383989
0.00531656
-0.0374067
0.00552642
-0.0364489
0.00574205
-0.0355214
-0.0346202
0.00596363
2.76991e-05
-0.0812897
0.000106001
-0.077901
0.000228476
-0.074973
0.000387562
-0.0723888
0.000575548
-0.07006
0.000785231
-0.0679193
0.00101025
-0.0659174
0.00124522
-0.0640194
0.00148568
-0.0622012
0.00172807
-0.0604464
0.00196962
-0.0587448
0.00220827
-0.0570901
0.00244253
-0.055479
0.00267145
-0.0539103
0.00289449
-0.0523839
0.00311148
-0.0509006
0.00332254
-0.0494613
0.00352806
-0.0480673
0.00372863
-0.0467196
0.00392506
-0.045419
0.00411834
-0.044166
0.0043096
-0.0429606
0.00450012
-0.0418022
0.00469129
-0.0406899
0.00488455
-0.0396218
0.0050813
-0.0385956
0.00528284
-0.0376083
0.00549024
-0.0366563
0.00570422
-0.0357354
-0.034841
0.00592507
2.83724e-05
-0.0813181
0.00010852
-0.0779811
0.000233556
-0.075098
0.000395401
-0.0725506
0.000585941
-0.0702505
0.000797727
-0.0681311
0.00102427
-0.066144
0.00126013
-0.0642553
0.00150086
-0.0624419
0.00174292
-0.0606885
0.00198358
-0.0589854
0.00222082
-0.0573273
0.00245321
-0.0557114
0.00267986
-0.054137
0.00290026
-0.0526043
0.00311428
-0.0511146
0.00332208
-0.0496691
0.00352405
-0.0482693
0.00372081
-0.0469163
0.00391316
-0.0456113
0.00410211
-0.0443549
0.00428881
-0.0431473
0.0044746
-0.041988
0.00466093
-0.0408762
0.00484937
-0.0398103
0.00504153
-0.0387878
0.00523889
-0.0378056
0.00544276
-0.0368601
0.00565408
-0.0359467
-0.0350602
0.00587326
2.90245e-05
-0.0813471
0.000111086
-0.0780632
0.000238752
-0.0752257
0.000403337
-0.0727152
0.000596309
-0.0704435
0.00080999
-0.0683447
0.0010378
-0.0663718
0.00127426
-0.0644918
0.00151494
-0.0626826
0.00175634
-0.0609299
0.00199579
-0.0592249
0.0022313
-0.0575628
0.00246152
-0.0559416
0.00268558
-0.054361
0.00290304
-0.0528218
0.0031138
-0.0513254
0.00331803
-0.0498733
0.00351615
-0.0484674
0.00370877
-0.047109
0.00389669
-0.0457993
0.00408088
-0.0445391
0.0042625
-0.0433289
0.00444289
-0.0421684
0.00462359
-0.0410569
0.00480626
-0.0399929
0.0049927
-0.0389742
0.00518464
-0.0379976
0.0053837
-0.0370592
0.00559108
-0.0361541
-0.0352765
0.00580738
2.9671e-05
-0.0813768
0.000113778
-0.0781473
0.000244176
-0.0753561
0.000411473
-0.0728825
0.000606722
-0.0706387
0.000822055
-0.0685601
0.00105083
-0.0666005
0.00128757
-0.0647285
0.00152789
-0.0629229
0.00176831
-0.0611703
0.00200622
-0.0594628
0.00223969
-0.0577963
0.00246743
-0.0561694
0.00268862
-0.0545822
0.00290286
-0.053036
0.0031101
-0.0515326
0.00331051
-0.0500738
0.00350453
-0.0486614
0.00369275
-0.0472972
0.00387594
-0.0459824
0.00405503
-0.0447182
0.00423113
-0.043505
0.00440557
-0.0423428
0.00457987
-0.0412312
0.0047558
-0.0401689
0.0049353
-0.0391537
0.0051204
-0.0381827
0.00531306
-0.0372518
0.00551488
-0.0363559
-0.0354884
0.00572673
3.03538e-05
-0.0814072
0.00011673
-0.0782337
0.000249997
-0.0754894
0.000419951
-0.0730524
0.000617268
-0.0708361
0.000833959
-0.0687768
0.00106337
-0.0668299
0.00130006
-0.0649652
0.00153966
-0.0631625
0.00177877
-0.0614094
0.00201482
-0.0596988
0.00224596
-0.0580274
0.00247093
-0.0563943
0.00268898
-0.0548003
0.00289976
-0.0532468
0.00310324
-0.0517361
0.00329965
-0.0502702
0.00348939
-0.0488511
0.00367304
-0.0474808
0.00385132
-0.0461607
0.0040251
-0.044892
0.0041954
-0.0436753
0.00436345
-0.0425109
0.00453073
-0.0413985
0.00469899
-0.0403371
0.0048703
-0.039325
0.00504696
-0.0383593
0.00523132
-0.0374362
0.00542553
-0.0365501
-0.0356937
0.00563089
3.11888e-05
-0.0814384
0.000120186
-0.0783227
0.000256464
-0.0756256
0.000428949
-0.0732249
0.000628043
-0.0710352
0.000845733
-0.0689945
0.00107541
-0.0670596
0.00131167
-0.0652015
0.00155021
-0.0634011
0.00178768
-0.0616469
0.00202156
-0.0599327
0.00225006
-0.0582559
0.00247198
-0.0566163
0.00268665
-0.0550149
0.00289376
-0.0534539
0.00309331
-0.0519356
0.00328556
-0.0504624
0.00347092
-0.0490365
0.00364995
-0.0476598
0.00382329
-0.0463341
0.00399173
-0.0450604
0.00415616
-0.0438397
0.00431765
-0.0426724
0.00447752
-0.0415584
0.00463742
-0.040497
0.00479939
-0.039487
0.00496591
-0.0385259
0.00513981
-0.0376101
0.00532387
-0.0367342
-0.03589
0.00552009
3.24333e-05
-0.0814708
0.00012456
-0.0784148
0.000263924
-0.075765
0.000438673
-0.0733997
0.000639134
-0.0712356
0.000857386
-0.0692127
0.0010869
-0.0672891
0.00132235
-0.0654369
0.00155947
-0.0636382
0.00179496
-0.0618824
0.00202635
-0.0601641
0.00225193
-0.0584815
0.00247055
-0.0568349
0.00268161
-0.055226
0.00288485
-0.0536572
0.00308035
-0.0521311
0.00326837
-0.0506504
0.00344933
-0.0492175
0.00362379
-0.0478343
0.00379233
-0.0465026
0.00395562
-0.0452237
0.00411441
-0.0439985
0.00426955
-0.0428275
0.00442209
-0.0417109
0.00457339
-0.0406483
0.00472528
-0.0396389
0.00488018
-0.0386808
0.00504126
-0.0377712
0.00521214
-0.0369051
-0.0360737
0.00539589
3.45877e-05
-0.0815054
0.000130472
-0.0785107
0.0002728
-0.0759073
0.000449328
-0.0735762
0.000650594
-0.0714369
0.00086889
-0.069431
0.0010978
-0.067518
0.00133203
-0.0656711
0.00156736
-0.0638735
0.00180053
-0.0621155
0.00202912
-0.0603927
0.00225149
-0.0587039
0.00246656
-0.05705
0.00267379
-0.0554332
0.00287302
-0.0538564
0.00306434
-0.0523224
0.00324809
-0.0508342
0.00342473
-0.0493941
0.00359477
-0.0480043
0.00375879
-0.0466666
0.00391737
-0.0453823
0.00407111
-0.0441522
0.00422061
-0.042977
0.00436658
-0.0418569
0.00450991
-0.0407917
0.0046519
-0.0397808
0.0047945
-0.0388234
0.00494074
-0.0379174
0.00509504
-0.0370594
-0.0362409
0.00526228
3.8583e-05
-0.081544
0.000138883
-0.078611
0.000283632
-0.0760521
0.000461099
-0.0737537
0.000662423
-0.0716382
0.000880162
-0.0696487
0.00110797
-0.0677458
0.00134058
-0.0659038
0.00157375
-0.0641067
0.00180426
-0.0623461
0.00202975
-0.0606182
0.00224862
-0.0589227
0.0024599
-0.0572612
0.0026631
-0.0556364
0.00285815
-0.0540514
0.00304521
-0.0525095
0.00322469
-0.0510137
0.00339708
-0.0495665
0.00356294
-0.0481702
0.00372285
-0.0468265
0.00387736
-0.0455368
0.00402695
-0.0443018
0.00417205
-0.0431221
0.00431303
-0.0419978
0.00445021
-0.0409288
0.00458408
-0.0399147
0.00471548
-0.0389548
0.00484618
-0.0380481
0.0049804
-0.0371936
-0.0363871
0.00512658
4.68751e-05
-0.0815908
0.00015179
-0.0787159
0.00029722
-0.0761975
0.000474112
-0.0739306
0.000674491
-0.0718386
0.000891013
-0.0698653
0.00111724
-0.0679721
0.00134782
-0.0661343
0.00157848
-0.0643374
0.00180601
-0.0625736
0.00202809
-0.0608403
0.00224319
-0.0591378
0.00245042
-0.0574685
0.00264938
-0.0558354
0.00284007
-0.0542421
0.00302277
-0.0526922
0.00319795
-0.0511888
0.00336618
-0.0497347
0.0035281
-0.0483321
0.00368434
-0.0469828
0.0038355
-0.045688
0.00398209
-0.0444484
0.0041245
-0.0432645
0.00426293
-0.0421363
0.00439734
-0.0410633
0.00452738
-0.0400448
0.00465223
-0.0390796
0.00477045
-0.0381663
0.00488311
-0.0373063
-0.0365085
0.00500449
6.72638e-05
-0.0816581
0.000172178
-0.0788208
0.000313837
-0.0763392
0.00048794
-0.0741047
0.000686335
-0.072037
0.000901072
-0.07008
0.00112533
-0.0681963
0.00135354
-0.0663625
0.00158137
-0.0645652
0.0018056
-0.0627978
0.00202397
-0.0610587
0.00223501
-0.0593489
0.00243792
-0.0576714
0.00263241
-0.0560299
0.00281856
-0.0544283
0.00299674
-0.0528704
0.00316753
-0.0513596
0.0033316
-0.0498988
0.00348969
-0.0484902
0.00364256
-0.0471357
0.00379097
-0.0458364
0.00393564
-0.0445931
0.00407723
-0.0434061
0.00421633
-0.0422754
0.00435337
-0.0412003
0.00448844
-0.0401798
0.00462037
-0.0392116
0.00474366
-0.0382896
0.00484586
-0.0374084
-0.0365896
0.00492695
0.0827171
5.02942e-05
-0.0827674
0.0826776
3.94533e-05
0.0826418
3.57997e-05
0.0826071
3.4697e-05
0.0825724
3.46649e-05
0.0825373
3.51212e-05
0.0825016
3.57629e-05
0.0824651
3.64438e-05
0.082428
3.71077e-05
0.0823903
3.77268e-05
0.082352
3.82738e-05
0.0823133
3.87236e-05
0.0822742
3.90715e-05
0.0822349
3.93312e-05
0.0821954
3.95101e-05
0.0821558
3.9611e-05
0.0821161
3.96371e-05
0.0820765
3.959e-05
0.0820371
3.94685e-05
0.0819978
3.92736e-05
0.0819588
3.90026e-05
0.0819201
3.86505e-05
0.0818819
3.82054e-05
0.0818443
3.76506e-05
0.0818073
3.69484e-05
0.0817713
3.60249e-05
0.0817366
3.47179e-05
0.0817039
3.26514e-05
0.0816753
2.86538e-05
1.71888e-05
0.0814585
0.000122057
-0.0815302
0.0813827
0.000115279
0.0813056
0.000112816
0.0812274
0.000112892
0.0811478
0.000114294
0.0810665
0.000116415
0.0809834
0.000118887
0.0808984
0.000121473
0.0808114
0.000124056
0.0807226
0.000126547
0.080632
0.000128846
0.0805399
0.000130896
0.0804463
0.000132671
0.0803514
0.000134184
0.0802555
0.000135435
0.0801587
0.000136428
0.0800611
0.000137165
0.0799631
0.000137645
0.0798647
0.000137869
0.0797661
0.000137834
0.0796676
0.000137534
0.0795693
0.000136958
0.0794714
0.000136083
0.0793742
0.000134871
0.0792779
0.000133254
0.0791828
0.000131104
0.0790893
0.000128181
0.078998
0.000124007
0.0789091
0.000117493
0.000105529
0.0800369
0.000202066
-0.0801169
0.0799484
0.000203812
0.0798541
0.000207069
0.0797553
0.000211664
0.0796525
0.000217088
0.079546
0.000222976
0.0794358
0.00022907
0.0793221
0.000235188
0.0792049
0.000241194
0.0790845
0.000246964
0.078961
0.000252371
0.0788346
0.000257326
0.0787055
0.000261798
0.0785739
0.000265775
0.07844
0.000269249
0.0783043
0.000272215
0.0781668
0.000274668
0.0780278
0.000276608
0.0778876
0.00027803
0.0777465
0.00027893
0.0776048
0.0002793
0.0774626
0.000279123
0.0773203
0.000278375
0.0771782
0.00027701
0.0770365
0.000274955
0.0768955
0.000272084
0.0767555
0.000268188
0.0766166
0.00026291
0.0764785
0.000255591
0.000244835
0.0784404
0.000280423
-0.0785188
0.0783525
0.00029178
0.0782563
0.000303188
0.0781531
0.000314878
0.0780435
0.00032673
0.0779279
0.00033857
0.0778067
0.000350272
0.0776802
0.000361714
0.0775486
0.000372788
0.0774122
0.000383381
0.0772712
0.000393347
0.0771259
0.000402602
0.0769766
0.000411125
0.0768235
0.000418876
0.0766669
0.000425833
0.0765071
0.00043198
0.0763445
0.00043731
0.0761793
0.000441814
0.0760118
0.000445487
0.0758424
0.000448322
0.0756714
0.000450309
0.0754991
0.000451434
0.0753258
0.000451672
0.0751518
0.000450986
0.0749775
0.000449312
0.074803
0.000446556
0.0746286
0.000442572
0.0744544
0.000437138
0.0742801
0.000429899
0.000420258
0.0766824
0.00034872
-0.0767507
0.0766037
0.000370415
0.0765155
0.000391426
0.0764184
0.000411995
0.076313
0.000432131
0.0761998
0.000451761
0.0760792
0.00047083
0.0759517
0.000489275
0.0758175
0.000507011
0.0756769
0.00052391
0.0755304
0.000539872
0.0753782
0.000554833
0.0752206
0.000568746
0.0750579
0.000581565
0.0748904
0.000593262
0.0747186
0.000603817
0.0745427
0.000613212
0.0743631
0.000621436
0.0741801
0.00062848
0.0739941
0.000634335
0.0738054
0.000638993
0.0736144
0.00064244
0.0734214
0.000644659
0.0732268
0.000645622
0.0730308
0.000645289
0.0728337
0.000643599
0.0726358
0.000640468
0.0724372
0.000635777
0.0722377
0.000629366
0.000621009
0.0747876
0.000401343
-0.0748402
0.0747239
0.000434072
0.0746496
0.000465698
0.0745652
0.000496387
0.0744712
0.000526166
0.074368
0.000554995
0.0742559
0.000582857
0.0741355
0.000609721
0.074007
0.000635483
0.0738709
0.000660043
0.0737274
0.000683324
0.073577
0.000705252
0.07342
0.000725786
0.0732567
0.000744881
0.0730874
0.000762503
0.0729126
0.000778625
0.0727326
0.000793226
0.0725477
0.000806288
0.0723584
0.0008178
0.072165
0.000827751
0.0719679
0.000836132
0.0717674
0.000842936
0.0715639
0.000848152
0.0713577
0.000851764
0.0711493
0.000853754
0.0709388
0.000854094
0.0707265
0.000852749
0.0705126
0.000849676
0.0702971
0.000844827
0.000838148
0.0727876
0.00043516
-0.0728214
0.0727421
0.000479534
0.0726853
0.000522522
0.0726175
0.000564216
0.072539
0.000604622
0.0724503
0.000643705
0.0723517
0.000681446
0.0722436
0.000717829
0.0721263
0.000752755
0.0720003
0.000786091
0.0718658
0.00081778
0.0717233
0.000847761
0.0715731
0.000875995
0.0714156
0.000902433
0.071251
0.000927037
0.0710799
0.000949771
0.0709025
0.000970612
0.0707192
0.000989535
0.0705305
0.00100653
0.0703367
0.00102157
0.0701382
0.00103467
0.0699353
0.00104581
0.0697285
0.00105498
0.069518
0.0010622
0.0693043
0.00106745
0.0690877
0.00107074
0.0688684
0.00107206
0.0686466
0.00107143
0.0684226
0.00106887
0.00106439
0.0707163
0.000448946
-0.0707301
0.0706904
0.000505445
0.0706526
0.000560341
0.0706031
0.000613672
0.0705423
0.000665417
0.0704705
0.000715513
0.070388
0.000763958
0.0702951
0.000810693
0.0701923
0.000855597
0.0700798
0.000898569
0.0699581
0.000939542
0.0698273
0.000978471
0.069688
0.0010153
0.0695405
0.00104998
0.0693851
0.00108247
0.0692221
0.00111271
0.069052
0.00114068
0.0688752
0.00116636
0.068692
0.00118972
0.0685029
0.00121075
0.0683081
0.00122944
0.0681081
0.00124579
0.0679033
0.0012598
0.067694
0.00127148
0.0674806
0.00128084
0.0672634
0.00128791
0.0670428
0.00129271
0.066819
0.00129528
0.0665921
0.00129568
0.00129398
0.0686066
0.000442864
-0.0686005
0.0686002
0.000511829
0.0685815
0.000579014
0.0685508
0.000644416
0.0685082
0.000707986
0.0684541
0.000769654
0.0683887
0.000829354
0.0683124
0.000887011
0.0682254
0.00094252
0.0681283
0.000995759
0.0680211
0.00104668
0.0679043
0.00109526
0.0677782
0.0011414
0.0676432
0.00118504
0.0674995
0.00122613
0.0673476
0.00126461
0.0671878
0.00130045
0.0670206
0.00133362
0.0668462
0.0013641
0.0666651
0.00139186
0.0664776
0.00141689
0.0662842
0.00143921
0.0660852
0.0014588
0.065881
0.00147569
0.0656719
0.00148991
0.0654584
0.00150148
0.0652406
0.00151046
0.065019
0.00151691
0.0647937
0.00152091
0.00152255
0.0664884
0.000418049
-0.0664636
0.0665005
0.00049969
0.0665002
0.000579399
0.0664874
0.000657143
0.0664626
0.000732852
0.0664258
0.000806422
0.0663774
0.000877754
0.0663177
0.000946751
0.0662469
0.00101327
0.0661654
0.00107724
0.0660735
0.00113865
0.0659713
0.00119738
0.0658594
0.00125335
0.065738
0.00130648
0.0656074
0.00135672
0.065468
0.001404
0.0653201
0.00144829
0.0651642
0.00148954
0.0650006
0.00152772
0.0648296
0.00156282
0.0646517
0.00159481
0.0644672
0.00162371
0.0642765
0.0016495
0.06408
0.00167223
0.063878
0.00169191
0.0636709
0.0017086
0.063459
0.00172235
0.0632426
0.00173325
0.0630222
0.00174139
0.00174688
0.0643878
0.000376272
-0.064346
0.0644168
0.000470689
0.0644332
0.000563039
0.0644371
0.000653264
0.0644286
0.000741269
0.0644081
0.000826933
0.0643758
0.000910127
0.0643318
0.00099069
0.0642766
0.00106854
0.0642102
0.00114361
0.064133
0.0012158
0.0640454
0.00128502
0.0639476
0.00135117
0.0638399
0.00141417
0.0637226
0.00147396
0.0635962
0.00153045
0.0634609
0.00158361
0.063317
0.00163338
0.063165
0.00167972
0.0630052
0.00172261
0.062838
0.00176204
0.0626637
0.00179799
0.0624827
0.00183048
0.0622954
0.00185953
0.0621022
0.00188517
0.0619033
0.00190746
0.0616992
0.00192646
0.0614902
0.00194228
0.0612766
0.00195502
0.00196479
0.0623266
0.000319685
-0.06227
0.0623704
0.000426891
0.0624016
0.000531906
0.0624202
0.000634649
0.0624264
0.000734999
0.0624205
0.000832834
0.0624027
0.000927992
0.0623731
0.0010203
0.062332
0.00110966
0.0622796
0.00119597
0.0622162
0.00127914
0.0621422
0.00135905
0.0620578
0.00143561
0.0619632
0.00150872
0.0618589
0.00157831
0.061745
0.00164429
0.061622
0.00170661
0.0614902
0.0017652
0.0613499
0.00182002
0.0612015
0.00187105
0.0610453
0.00191825
0.0608816
0.00196162
0.060711
0.00200116
0.0605336
0.00203689
0.0603499
0.00206885
0.0601603
0.00209711
0.059965
0.00212173
0.0597645
0.00214282
0.059559
0.0021605
0.0021749
0.0603223
0.000250623
-0.0602533
0.0603786
0.00037057
0.0604223
0.000488211
0.0604536
0.000603436
0.0604724
0.000716107
0.0604792
0.000826106
0.0604739
0.000933268
0.0604568
0.00103737
0.0604282
0.00113827
0.0603883
0.00123589
0.0603373
0.0013301
0.0602756
0.0014208
0.0602033
0.00150788
0.0601208
0.00159123
0.0600283
0.00167077
0.0599262
0.0017464
0.0598148
0.00181805
0.0596943
0.00188565
0.0595652
0.00194916
0.0594277
0.00200853
0.0592822
0.00206373
0.0591291
0.00211474
0.0589687
0.00216158
0.0588013
0.00220424
0.0586274
0.00224279
0.0584473
0.00227726
0.0582612
0.00230774
0.0580697
0.00233435
0.057873
0.00235722
0.00237649
0.0583884
0.00017147
-0.0583092
0.0584549
0.000304067
0.0585088
0.000434247
0.0585504
0.000561875
0.0585797
0.00068681
0.0585969
0.000808903
0.0586022
0.000927996
0.0585957
0.00104384
0.0585777
0.00115625
0.0585485
0.00126513
0.0585082
0.00137039
0.0584571
0.00147189
0.0583955
0.00156951
0.0583236
0.00166314
0.0582416
0.00175267
0.05815
0.00183801
0.058049
0.00191907
0.0579389
0.00199578
0.05782
0.00206806
0.0576926
0.00213589
0.0575571
0.00219921
0.0574139
0.002258
0.0572632
0.00231227
0.0571054
0.00236202
0.0569409
0.00240728
0.05677
0.00244812
0.0565932
0.00248462
0.0564106
0.0025169
0.0562227
0.00254509
0.00256937
0.0565345
8.45488e-05
-0.0564476
0.0566089
0.000229677
0.0566709
0.000372281
0.0567205
0.000512216
0.056758
0.000649297
0.0567835
0.0007834
0.0567972
0.000914299
0.0567994
0.00104172
0.0567901
0.00116551