/*--------------------------------*- C++ -*----------------------------------*\
| =========                 |                                                 |
| \\      /  F ield         | OpenFOAM: The Open Source CFD Toolbox           |
|  \\    /   O peration     | Version:  v1912                                 |
|   \\  /    A nd           | Website:  www.openfoam.com                      |
|    \\/     M anipulation  |                                                 |
\*---------------------------------------------------------------------------*/
FoamFile
{
    version     2.0;
    format      ascii;
    class       surfaceScalarField;
    location    "26";
    object      phi;
}
// * * * * * * * * * * * * * * * * * * * * * * * * * * * * * * * * * * * * * //

dimensions      [0 3 -1 0 0 0 0];
oriented        oriented;


internalField   nonuniform List<scalar> 
18940
(
0.000349322
-0.23452
0.23417
0.00134711
-0.216594
0.215596
0.00281812
-0.205061
0.20359
0.00459501
-0.197223
0.195446
0.00654975
-0.191385
0.189431
0.00858281
-0.186498
0.184465
0.010622
-0.181984
0.179945
0.012619
-0.177552
0.175554
0.0145445
-0.17308
0.171154
0.0163833
-0.168541
0.166702
0.018131
-0.163955
0.162207
0.0197899
-0.159364
0.157705
0.021367
-0.154815
0.153237
0.0228719
-0.15035
0.148845
0.0243157
-0.146005
0.144562
0.0257097
-0.141804
0.14041
0.0270653
-0.137758
0.136402
0.0283929
-0.133864
0.132536
0.0297006
-0.130102
0.128795
-0.126434
0.125141
0.0309935
0.000372567
-0.234892
0.00139015
-0.217611
0.00287186
-0.206543
0.0046534
-0.199005
0.00660326
-0.193335
0.00862196
-0.188517
0.0106385
-0.184
0.0126062
-0.179519
0.0144973
-0.174971
0.0162987
-0.170342
0.0180073
-0.165663
0.0196268
-0.160983
0.0211651
-0.156353
0.0226325
-0.151818
0.0240404
-0.147413
0.0254005
-0.143164
0.0267245
-0.139082
0.028023
-0.135162
0.0293048
-0.131384
-0.127704
0.0305756
0.000393851
-0.235286
0.00142759
-0.218645
0.00291813
-0.208033
0.00470066
-0.200787
0.00664211
-0.195277
0.00864288
-0.190518
0.0106332
-0.185991
0.0125681
-0.181454
0.0144219
-0.176825
0.0161831
-0.172103
0.0178502
-0.16733
0.0194281
-0.162561
0.0209258
-0.157851
0.022354
-0.153246
0.0237246
-0.148784
0.0250495
-0.144489
0.0263406
-0.140373
0.0276088
-0.136431
0.0288633
-0.132639
-0.128952
0.0301107
0.000407603
-0.235694
0.00145636
-0.219694
0.002955
-0.209532
0.00473605
-0.202568
0.0066658
-0.197206
0.00864518
-0.192497
0.0106059
-0.187951
0.0125048
-0.183353
0.0143183
-0.178638
0.0160367
-0.173822
0.0176601
-0.168954
0.0191946
-0.164096
0.02065
-0.159306
0.0220377
-0.154633
0.0233697
-0.150116
0.0246582
-0.145778
0.0259153
-0.14163
0.0271521
-0.137667
0.0283783
-0.133865
-0.130175
0.0296016
0.000418779
-0.236113
0.00147984
-0.220755
0.00298381
-0.211036
0.00476022
-0.204345
0.0066748
-0.199121
0.0086293
-0.194452
0.010557
-0.189879
0.0124169
-0.185213
0.0141873
-0.180409
0.0158605
-0.175495
0.0174381
-0.170531
0.0189274
-0.165585
0.020339
-0.160718
0.0216848
-0.155979
0.0229771
-0.151408
0.0242282
-0.147029
0.0254502
-0.142852
0.0266546
-0.138872
0.0278518
-0.135062
-0.131374
0.0290502
0.000427806
-0.23654
0.00149842
-0.221825
0.00300481
-0.212542
0.00477337
-0.206113
0.00666939
-0.201017
0.00859558
-0.196378
0.0104871
-0.191771
0.0123049
-0.187031
0.0140296
-0.182133
0.0156553
-0.17712
0.0171851
-0.172061
0.0186276
-0.167028
0.019994
-0.162084
0.0212966
-0.157282
0.0225481
-0.15266
0.0237606
-0.148242
0.0249465
-0.144038
0.0261176
-0.140043
0.0272848
-0.136229
-0.132546
0.0284575
0.00043525
-0.236976
0.0015128
-0.222903
0.00301855
-0.214048
0.00477599
-0.207871
0.00665004
-0.202891
0.00854459
-0.198272
0.0103967
-0.193623
0.0121697
-0.188804
0.0138461
-0.18381
0.0154221
-0.178696
0.0169022
-0.173541
0.0182962
-0.168422
0.0196159
-0.163404
0.0208742
-0.15854
0.0220835
-0.153869
0.0232565
-0.149414
0.0244052
-0.145187
0.0255418
-0.141179
0.0266779
-0.137365
-0.133692
0.0278241
0.000441266
-0.237417
0.00152328
-0.223985
0.00302545
-0.21555
0.00476852
-0.209614
0.0066173
-0.20474
0.00847698
-0.200132
0.0102867
-0.195432
0.0120121
-0.190529
0.0136378
-0.185435
0.0151619
-0.18022
0.0165905
-0.17497
0.0179343
-0.169765
0.0192058
-0.164675
0.0204183
-0.159753
0.0215844
-0.155035
0.0227164
-0.150546
0.0238267
-0.146297
0.0249275
-0.14228
0.0260313
-0.138469
-0.134811
0.0271498
0.000445961
-0.237863
0.00153015
-0.225069
0.00302592
-0.217046
0.00475153
-0.21134
0.00657182
-0.20656
0.00839353
-0.201954
0.010158
-0.197197
0.0118331
-0.192204
0.0134058
-0.187008
0.0148759
-0.181691
0.016251
-0.176345
0.0175429
-0.171057
0.0187648
-0.165897
0.01993
-0.160918
0.0210513
-0.156156
0.0221409
-0.151636
0.023211
-0.147367
0.0242744
-0.143344
0.0253442
-0.139539
-0.1359
0.0264336
0.000449406
-0.238312
0.00153369
-0.226154
0.00302044
-0.218533
0.00472562
-0.213045
0.00651439
-0.208349
0.00829518
-0.203735
0.0100116
-0.198913
0.0116339
-0.193826
0.0131513
-0.188525
0.0145654
-0.183105
0.0158852
-0.177665
0.0171233
-0.172295
0.0182938
-0.167068
0.01941
-0.162034
0.0204847
-0.157231
0.0215301
-0.152681
0.0225581
-0.148395
0.0235819
-0.144367
0.0246155
-0.140573
-0.136958
0.0256736
0.000451708
-0.238764
0.00153425
-0.227236
0.00300957
-0.220008
0.00469155
-0.214727
0.00644592
-0.210103
0.00818301
-0.205472
0.0098488
-0.200579
0.011416
-0.195394
0.0128759
-0.189985
0.0142319
-0.184461
0.0154944
-0.178927
0.016677
-0.173478
0.017794
-0.168185
0.0188592
-0.163099
0.0198853
-0.158257
0.0208841
-0.15368
0.0218675
-0.149378
0.0228488
-0.145349
0.0238431
-0.141567
-0.137982
0.0248672
0.000453018
-0.239217
0.00153226
-0.228315
0.00299397
-0.22147
0.00465018
-0.216383
0.0063675
-0.211821
0.00805832
-0.207163
0.0096711
-0.202192
0.0111809
-0.196903
0.0125813
-0.191386
0.0138773
-0.185757
0.0150805
-0.180131
0.0162055
-0.174603
0.017267
-0.169246
0.0182789
-0.164111
0.0192538
-0.159232
0.0202031
-0.15463
0.0211387
-0.150314
0.0220739
-0.146284
0.023025
-0.142518
-0.138969
0.0240111
0.000453615
-0.239671
0.00152832
-0.22939
0.00297449
-0.222916
0.00460257
-0.218011
0.0062804
-0.213498
0.00792262
-0.208805
0.00948021
-0.20375
0.0109307
-0.198354
0.0122696
-0.192725
0.0135037
-0.186991
0.0146457
-0.181273
0.0157109
-0.175668
0.0167145
-0.17025
0.0176704
-0.165067
0.0185911
-0.160153
0.0194876
-0.155526
0.0203714
-0.151198
0.0212559
-0.147169
0.0221588
-0.143421
-0.139911
0.0231016
0.000453974
-0.240125
0.0015233
-0.230459
0.00295216
-0.224345
0.00454994
-0.219609
0.00618605
-0.215134
0.00777759
-0.210396
0.00927811
-0.20525
0.0106675
-0.199743
0.0119433
-0.194
0.0131138
-0.188161
0.0141928
-0.182352
0.0151961
-0.176671
0.0161391
-0.171193
0.0170359
-0.165964
0.0178986
-0.161015
0.018738
-0.156365
0.0195649
-0.152025
0.0203929
-0.147996
0.0212405
-0.144269
-0.140803
0.0221323
0.000454894
-0.240579
0.00151834
-0.231523
0.00292819
-0.225755
0.00449361
-0.221174
0.00608603
-0.216727
0.00762512
-0.211935
0.00906703
-0.206692
0.010394
-0.20107
0.0116054
-0.195212
0.012711
-0.189267
0.0137254
-0.183366
0.0146647
-0.177611
0.0155446
-0.172073
0.0163788
-0.166798
0.0171792
-0.161816
0.0179559
-0.157142
0.0187192
-0.152788
0.019482
-0.148759
0.0202639
-0.145051
-0.141634
0.021095
0.000457519
-0.241037
0.00151475
-0.23258
0.00290376
-0.227144
0.00443494
-0.222705
0.005982
-0.218274
0.00746723
-0.213421
0.00884938
-0.208074
0.010113
-0.202334
0.0112593
-0.196358
0.0122991
-0.190307
0.0132478
-0.184315
0.0141217
-0.178485
0.0149363
-0.172887
0.0157048
-0.167567
0.0164385
-0.162549
0.0171466
-0.15785
0.0178381
-0.15348
0.0185251
-0.149446
0.0192282
-0.145754
-0.142392
0.0199864
0.000463235
-0.2415
0.00151382
-0.233631
0.00288018
-0.22851
0.00437545
-0.224201
0.00587578
-0.219774
0.00730608
-0.214851
0.00862774
-0.209396
0.00982759
-0.203534
0.0109085
-0.197439
0.0118825
-0.191281
0.0127651
-0.185197
0.0135728
-0.179292
0.0143206
-0.173635
0.0150211
-0.168267
0.0156847
-0.163213
0.0163194
-0.158485
0.0169326
-0.154093
0.0175346
-0.150048
0.018146
-0.146365
-0.143053
0.0188069
0.00047437
-0.241975
0.00151817
-0.234674
0.00285989
-0.229852
0.00431723
-0.225658
0.00576928
-0.221226
0.00714372
-0.216225
0.00840461
-0.210657
0.00954098
-0.20467
0.0105573
-0.198455
0.0114661
-0.192189
0.0122834
-0.186015
0.013025
-0.180034
0.0137049
-0.174315
0.0143347
-0.168897
0.0149236
-0.163802
0.0154786
-0.15904
0.0160062
-0.15462
0.0165129
-0.150555
0.0170116
-0.146864
-0.143569
0.0175274
0.000498507
-0.242473
0.00153502
-0.235711
0.00284695
-0.231164
0.00426216
-0.227073
0.00566372
-0.222628
0.00698154
-0.217543
0.00818197
-0.211857
0.00925602
-0.205744
0.0102095
-0.199409
0.0110558
-0.193036
0.0118105
-0.186769
0.0124885
-0.180712
0.013102
-0.174928
0.0136599
-0.169455
0.0141679
-0.16431
0.0146297
-0.159502
0.0150469
-0.155038
0.0154183
-0.150926
0.0157486
-0.147194
-0.143921
0.0161001
0.000555755
-0.243029
0.00157273
-0.236728
0.00284108
-0.232432
0.00420903
-0.228441
0.00555859
-0.223977
0.00681992
-0.218805
0.00796106
-0.212998
0.00897496
-0.206758
0.00986894
-0.200303
0.0106571
-0.193824
0.0113552
-0.187467
0.0119772
-0.181334
0.0125337
-0.175485
0.0130301
-0.169951
0.0134661
-0.164746
0.0138346
-0.15987
0.0141187
-0.155322
0.0142926
-0.1511
0.0143503
-0.147252
-0.144087
0.0145171
0.250591
0.000409976
-0.251001
0.250207
0.000383485
0.249831
0.000376088
0.249455
0.000376102
0.249076
0.000378935
0.248693
0.000383233
0.248305
0.000388273
0.247911
0.000393464
0.247513
0.000398414
0.24711
0.000402918
0.246703
0.000406877
0.246293
0.000410263
0.24588
0.000413059
0.245464
0.00041524
0.245048
0.00041668
0.24463
0.000417171
0.244215
0.000415666
0.243803
0.000411612
0.243407
0.000395811
0.000378528
0.252327
0.00100993
-0.252927
0.251692
0.00101849
0.251029
0.00103903
0.25034
0.00106549
0.249625
0.00109333
0.248887
0.0011212
0.248127
0.00114862
0.247345
0.00117508
0.246544
0.00120017
0.245723
0.00122363
0.244884
0.00124534
0.244029
0.00126526
0.243159
0.0012834
0.242275
0.00129975
0.241377
0.00131415
0.240468
0.0013264
0.239548
0.00133539
0.238619
0.00134085
0.237678
0.00133649
0.00132892
0.250936
0.00157356
-0.2515
0.250308
0.00164624
0.249628
0.00171916
0.248901
0.00179322
0.248128
0.00186605
0.247313
0.00193644
0.246457
0.00200406
0.245564
0.00206867
0.244634
0.00213002
0.243669
0.00218795
0.242672
0.00224241
0.241644
0.00229342
0.240586
0.00234108
0.239501
0.00238548
0.238388
0.00242663
0.23725
0.00246456
0.236087
0.00249874
0.234898
0.00252941
0.23368
0.00255418
0.00257724
0.246718
0.00201103
-0.247155
0.246211
0.00215256
0.245641
0.0022895
0.245011
0.00242329
0.244324
0.00255327
0.243582
0.00267865
0.242786
0.00279908
0.241941
0.0029144
0.241046
0.00302445
0.240105
0.00312916
0.239119
0.00322854
0.23809
0.0033227
0.237019
0.00341184
0.235908
0.00349623
0.234759
0.00357614
0.233571
0.00365192
0.232346
0.00372365
0.231084
0.00379194
0.229782
0.00385609
0.00391808
0.240402
0.00228694
-0.240678
0.240056
0.0024989
0.239641
0.00270412
0.239161
0.00290344
0.238617
0.00309683
0.238012
0.00328383
0.237347
0.00346408
0.236624
0.00363738
0.235845
0.00380363
0.235011
0.00396276
0.234125
0.00411483
0.233188
0.00426005
0.232201
0.00439871
0.231166
0.00453127
0.230084
0.00465825
0.228955
0.00478034
0.227781
0.00489811
0.22656
0.0050125
0.225293
0.00512368
0.00523328
0.232766
0.00240962
-0.232889
0.232574
0.00269131
0.232313
0.00296511
0.231985
0.00323133
0.231592
0.00348998
0.231135
0.00374076
0.230616
0.00398333
0.230036
0.00421745
0.229396
0.00444297
0.228699
0.00465986
0.227946
0.00486819
0.227138
0.00506821
0.226276
0.00526034
0.225362
0.00544519
0.224397
0.00562353
0.223381
0.00579639
0.222314
0.0059648
0.221197
0.00613011
0.220027
0.00629318
0.00645582
0.224501
0.00240893
-0.224501
0.224435
0.00275786
0.224302
0.00309815
0.224103
0.00342974
0.223841
0.00375253
0.223515
0.00406625
0.223128
0.00437055
0.22268
0.00466514
0.222174
0.00494984
0.221609
0.00522458
0.220988
0.00548944
0.220311
0.00574471
0.219581
0.00599087
0.218797
0.0062287
0.217961
0.00645923
0.217074
0.00668382
0.216135
0.00690398
0.215143
0.00712159
0.214098
0.00733816
0.00755584
0.216125
0.00232036
-0.216036
0.21615
0.00273305
0.216111
0.00313651
0.21601
0.00353043
0.215848
0.0039146
0.215626
0.00428869
0.215344
0.00465232
0.215004
0.00500513
0.214607
0.00534689
0.214154
0.00567749
0.213647
0.00599697
0.213086
0.00630563
0.212473
0.00660402
0.211808
0.00689304
0.211094
0.00717397
0.210329
0.00744853
0.209514
0.00771879
0.208648
0.00798721
0.20773
0.00825614
0.00852823
0.207978
0.00217661
-0.207834
0.208062
0.00264935
0.208086
0.00311229
0.208051
0.00356499
0.207959
0.00400711
0.207809
0.00443825
0.207604
0.00485795
0.207343
0.00526582
0.207028
0.00566151
0.206661
0.00604486
0.206242
0.00641586
0.205773
0.00677476
0.205255
0.00712214
0.204689
0.00745898
0.204076
0.0077868
0.203417
0.00810769
0.202711
0.00842434
0.201958
0.00873998
0.201157
0.009058
0.00938187
0.200258
0.00200422
-0.200086
0.200374
0.00253349
0.200434
0.00305239
0.200438
0.00356038
0.200388
0.00405701
0.200285
0.00454179
0.200129
0.00501418
0.199921
0.00547369
0.199662
0.0059199
0.199355
0.00635253
0.198999
0.00677148
0.198597
0.0071769
0.19815
0.00756935
0.197659
0.00794984
0.197126
0.00832007
0.196551
0.00868247
0.195935
0.00904047
0.195276
0.00939816
0.194574
0.00976043
0.010132
0.193057
0.00182276
-0.192876
0.193185
0.00240551
0.19326
0.00297732
0.193283
0.00353751
0.193255
0.00408555
0.193176
0.00462085
0.193047
0.00514278
0.19287
0.00565075
0.192646
0.00614421
0.192375
0.00662276
0.192061
0.00708614
0.191703
0.00753437
0.191305
0.00796789
0.190867
0.0083876
0.190392
0.00879537
0.18988
0.0091938
0.189334
0.00958724
0.188751
0.00998066
0.18813
0.0103811
0.010795
0.186399
0.00164551
-0.186222
0.186525
0.00227926
0.186601
0.00290149
0.186627
0.00351135
0.186605
0.00410821
0.186534
0.00469139
0.186417
0.00526017
0.186254
0.00581383
0.186046
0.00635171
0.185796
0.0068732
0.185504
0.00737788
0.185173
0.00786553
0.184804
0.00833636
0.184401
0.00879104
0.183965
0.00923147
0.183498
0.00966018
0.183003
0.0100826
0.182479
0.0105044
0.181924
0.0109359
0.0113855
0.180264
0.00148075
-0.180099
0.18038
0.0021637
0.180447
0.00283438
0.180466
0.00349186
0.180439
0.00413546
0.180366
0.00476441
0.180248
0.00537786
0.180087
0.00597497
0.179884
0.00655492
0.17964
0.00711691
0.179358
0.00766028
0.179039
0.00818446
0.178686
0.00868936
0.178302
0.00917517
0.17789
0.00964368
0.177453
0.0100969
0.176994
0.0105416
0.176515
0.0109831
0.176014
0.0114376
0.0119143
0.174611
0.00133332
-0.174464
0.174711
0.00206396
0.174764
0.00278156
0.174771
0.00348513
0.174732
0.00417388
0.17465
0.00484692
0.174524
0.00550333
0.174357
0.00614212
0.17415
0.00676231
0.173904
0.00736289
0.173621
0.00794287
0.173304
0.00850131
0.172956
0.00903766
0.17258
0.00955137
0.17218
0.0100439
0.171761
0.0105159
0.171326
0.010976
0.170882
0.0114272
0.170424
0.0118954
0.0123872
0.16939
0.00120554
-0.169262
0.169471
0.0019828
0.169506
0.00274608
0.169497
0.00349447
0.169444
0.00422705
0.169348
0.00494287
0.16921
0.00564088
0.169033
0.00631998
0.168816
0.00697901
0.168562
0.0076167
0.168273
0.00823177
0.167952
0.00882278
0.167601
0.00938862
0.167224
0.00992771
0.166827
0.0104409
0.166417
0.0109265
0.165998
0.0113951
0.165581
0.0118436
0.165162
0.0123149
0.012803
0.164545
0.00109822
-0.164438
0.164607
0.00192103
0.164624
0.00272896
0.164598
0.00352109
0.164528
0.00429642
0.164417
0.0050539
0.164266
0.00579239
0.164075
0.00651067
0.163847
0.0072074
0.163582
0.0078811
0.163284
0.00853012
0.162954
0.00915253
0.162596
0.00974652
0.162215
0.0103093
0.161815
0.0108406
0.161406
0.0113352
0.160995
0.0118061
0.160602
0.0122372
0.160217
0.0126998
0.0131498
0.160027
0.00101088
-0.15994
0.16007
0.00187822
0.160069
0.00272982
0.160025
0.00356467
0.15994
0.0043817
0.159814
0.00517978
0.159649
0.00595769
0.159445
0.00671411
0.159205
0.00744754
0.15893
0.00815627
0.158622
0.00883835
0.158283
0.00949135
0.157917
0.0101127
0.157528
0.0106982
0.157122
0.0112463
0.156711
0.0117465
0.156303
0.012214
0.155929
0.0126109
0.155574
0.0130548
0.0134023
0.155788
0.000941743
-0.155719
0.155813
0.00185287
0.155796
0.002747
0.155737
0.00362343
0.155638
0.00448098
0.155499
0.00531846
0.155322
0.00613459
0.155109
0.00692797
0.154859
0.00769696
0.154576
0.00843968
0.15426
0.0091539
0.153915
0.00983679
0.153542
0.0104851
0.153147
0.0110932
0.152736
0.0116579
0.15232
0.0121621
0.151912
0.0126221
0.151559
0.0129638
0.151228
0.0133857
0.0135303
0.151786
0.000888897
-0.151733
0.151797
0.00184216
0.151767
0.00277735
0.151696
0.00369384
0.151587
0.00459031
0.15144
0.00546555
0.151256
0.00631828
0.151037
0.00714699
0.150784
0.00794998
0.150498
0.00872521
0.150182
0.0094703
0.149837
0.0101821
0.149465
0.0108569
0.14907
0.0114878
0.148658
0.0120705
0.14824
0.0125804
0.147828
0.0130337
0.147496
0.0132962
0.147205
0.0136762
0.0134836
0.147983
-0.147945
0.000850742
0.147983
0.00184221
0.147944
0.00281651
0.147867
0.00377088
0.147753
0.00470391
0.147604
0.00561451
0.147421
0.0065014
0.147205
0.00736303
0.146957
0.00819762
0.146679
0.00900307
0.146373
0.00977692
0.146039
0.0105158
0.14568
0.011216
0.145298
0.0118697
0.144896
0.0124724
0.144483
0.0129933
0.144065
0.0134523
0.143717
0.0136442
0.143461
0.0139315
0.0128575
0.254167
7.38683e-05
-0.254241
0.254131
3.58655e-05
0.2541
3.16968e-05
0.254059
4.03131e-05
0.254005
5.44398e-05
0.253933
7.19934e-05
0.253841
9.16726e-05
0.253729
0.000112356
0.253596
0.000133235
0.253442
0.00015381
0.253268
0.000173641
0.253076
0.000192429
0.252865
0.000210584
0.252636
0.000229074
0.25239
0.000246241
0.252129
0.000261319
0.251855
0.000273841
0.251571
0.000283742
0.251286
0.000285185
0.000285057
0.255791
-0.00023779
-0.255479
0.256041
-0.000215053
0.256248
-0.0001752
0.256411
-0.000122442
0.256529
-6.33095e-05
0.256601
-4.00007e-07
0.256628
6.51431e-05
0.256608
0.000132226
0.256541
0.000199951
0.256428
0.000267418
0.256268
0.000333361
0.256064
0.000396613
0.255818
0.000456051
0.255526
0.000521071
0.25519
0.000582606
0.254812
0.000639186
0.254395
0.000691006
0.253941
0.000738063
0.25345
0.000775685
0.000808065
0.251105
-0.000886204
-0.250457
0.251681
-0.000791243
0.252192
-0.000686458
0.252642
-0.000571973
0.25303
-0.000451302
0.253356
-0.000326681
0.253621
-0.000199254
0.253823
-7.04808e-05
0.253964
5.96695e-05
0.25404
0.000190884
0.254054
0.000319079
0.254007
0.000443855
0.253896
0.000567462
0.253726
0.000690517
0.253499
0.000809946
0.253214
0.000924432
0.252871
0.00103341
0.252473
0.00113681
0.252016
0.00123271
0.0013239
0.242741
-0.00180911
-0.241818
0.243592
-0.00164233
0.244374
-0.00146832
0.245088
-0.00128632
0.245735
-0.00109797
0.246313
-0.000905089
0.246823
-0.000709004
0.247263
-0.000510976
0.247635
-0.000311679
0.247934
-0.000108495
0.248162
9.1013e-05
0.248323
0.000282973
0.248413
0.000477
0.248436
0.000668016
0.248391
0.000855067
0.248278
0.00103725
0.248098
0.00121374
0.24785
0.00138417
0.247535
0.00154748
0.00170422
0.232651
-0.00292773
-0.231532
0.233702
-0.0026937
0.234686
-0.0024522
0.235603
-0.00220279
0.236451
-0.00194635
0.23723
-0.00168438
0.237939
-0.00141828
0.238578
-0.00114926
0.239144
-0.000878272
0.239642
-0.0006061
0.240069
-0.000335847
0.240421
-6.9131e-05
0.240702
0.000196249
0.240911
0.000458329
0.24105
0.000716771
0.241117
0.000970155
0.241113
0.00121772
0.241038
0.00145884
0.240893
0.0016927
0.00191924
0.222101
-0.00417092
-0.220857
0.223281
-0.00387451
0.224398
-0.00356907
0.22545
-0.00325473
0.226436
-0.00293227
0.227355
-0.00260312
0.228205
-0.00226881
0.228987
-0.00193081
0.229699
-0.00159053
0.230342
-0.00124933
0.230915
-0.000908735
0.231416
-0.000570056
0.231847
-0.00023415
0.232208
9.73824e-05
0.232498
0.000426159
0.232717
0.000751032
0.232866
0.00106927
0.232944
0.00138081
0.232951
0.00168502
0.00198165
0.21186
-0.00548212
-0.210549
0.213113
-0.00512749
0.214306
-0.00476173
0.215436
-0.00438545
0.216504
-0.00399969
0.217507
-0.00360602
0.218444
-0.00320623
0.219315
-0.00280206
0.22012
-0.00239513
0.220858
-0.0019869
0.221528
-0.00157874
0.22213
-0.00117208
0.222663
-0.000767713
0.223127
-0.000366372
0.223529
2.41247e-05
0.223859
0.000420505
0.224122
0.000807154
0.224316
0.00118659
0.224442
0.0015587
0.00192309
0.202333
-0.00682026
-0.200995
0.203616
-0.00641072
0.204842
-0.00598766
0.206009
-0.00555207
0.207114
-0.00510541
0.208158
-0.00464965
0.209139
-0.00418692
0.210056
-0.00371919
0.210909
-0.0032483
0.211698
-0.00277585
0.212423
-0.0023033
0.213083
-0.00183204
0.213678
-0.00136312
0.214209
-0.000897531
0.21467
-0.000436641
0.215077
1.35731e-05
0.215413
0.00047127
0.215685
0.000914338
0.215893
0.00135093
0.00177968
0.193676
-0.008158
-0.192338
0.194962
-0.00769609
0.196192
-0.00721797
0.197365
-0.00672494
0.198478
-0.00621913
0.199532
-0.00570309
0.200524
-0.00517935
0.201455
-0.00465022
0.202325
-0.00411775
0.203133
-0.00358369
0.203879
-0.00304958
0.204564
-0.00251676
0.205187
-0.00198641
0.205749
-0.00145946
0.20625
-0.000937311
0.206684
-0.000421266
0.207066
9.01554e-05
0.207382
0.000597457
0.207639
0.00109472
0.00158419
0.185898
-0.00947884
-0.184577
0.187169
-0.00896653
0.188386
-0.00843485
0.189546
-0.00788545
0.190648
-0.00732144
0.191691
-0.0067462
0.192675
-0.00616277
0.193598
-0.00557383
0.194462
-0.00498163
0.195267
-0.00438807
0.196012
-0.00379472
0.196698
-0.00320289
0.197325
-0.00261374
0.197894
-0.00202823
0.198404
-0.00144737
0.198855
-0.000872077
0.199248
-0.0003031
0.199586
0.000259971
0.199864
0.000816163
0.00136295
0.178929
-0.0107742
-0.177634
0.180176
-0.0102132
0.18137
-0.00962881
0.182508
-0.00902327
0.183588
-0.00840128
0.184609
-0.00776727
0.185571
-0.00712487
0.186474
-0.00647714
0.187319
-0.00582657
0.188106
-0.00517513
0.188836
-0.00452437
0.189509
-0.00387555
0.190125
-0.00322976
0.190684
-0.00258793
0.191188
-0.00195091
0.191635
-0.00131958
0.192027
-0.000694472
0.192365
-7.85637e-05
0.192648
0.000533559
0.00113499
0.172668
-0.0120412
-0.171401
0.173888
-0.0114333
0.175056
-0.0107963
0.176166
-0.010134
0.177219
-0.00945358
0.178212
-0.00876064
0.179147
-0.00805946
0.180023
-0.00735352
0.180842
-0.00664549
0.181604
-0.00593736
0.182311
-0.00523058
0.182961
-0.00452634
0.183557
-0.00382559
0.184098
-0.00312921
0.184586
-0.00243799
0.185019
-0.00175277
0.185399
-0.00107431
0.185724
-0.000404199
0.186
0.00025775
0.000913284
0.167007
-0.0132805
-0.165768
0.168202
-0.0126282
0.169344
-0.0119378
0.170427
-0.0112173
0.171451
-0.0104774
0.172415
-0.00972478
0.17332
-0.00896452
0.174167
-0.00820052
0.174957
-0.00743557
0.175691
-0.00667154
0.17637
-0.00590974
0.176995
-0.00515121
0.177566
-0.00439676
0.178084
-0.00364718
0.17855
-0.00290321
0.178962
-0.00216566
0.179323
-0.00143502
0.179631
-0.000712048
0.179892
-3.50351e-06
0.000706145
0.161849
-0.014496
-0.160633
0.163023
-0.0138025
0.164142
-0.0130569
0.1652
-0.0122757
0.166197
-0.0114743
0.167133
-0.0106606
0.168009
-0.00984039
0.168827
-0.00901803
0.169587
-0.00819628
0.170293
-0.00737679
0.170944
-0.00656064
0.171541
-0.00574862
0.172086
-0.0049414
0.172578
-0.00413964
0.173019
-0.00334398
0.173408
-0.00255518
0.173747
-0.00177393
0.174037
-0.00100153
0.174273
-0.000239821
0.00051522
0.157111
-0.0156942
-0.155913
0.158272
-0.0149639
0.159375
-0.0141591
0.160412
-0.0133134
0.161385
-0.0124473
0.162295
-0.0115699
0.163142
-0.0106881
0.163931
-0.0098065
0.164662
-0.00892772
0.165338
-0.00805297
0.165961
-0.00718294
0.16653
-0.00631812
0.167048
-0.0054589
0.167514
-0.00460578
0.167929
-0.00375935
0.168294
-0.00292029
0.16861
-0.0020894
0.168876
-0.00126762
0.169092
-0.000456107
0.000345377
0.152732
-0.0168877
-0.151539
0.153891
-0.0161227
0.154983
-0.0152513
0.156005
-0.0143348
0.156956
-0.0133986
0.157839
-0.0124531
0.158658
-0.0115072
0.159417
-0.0105653
0.160118
-0.0096292
0.160765
-0.00869948
0.161358
-0.00777621
0.161899
-0.00685938
0.16239
-0.00594905
0.162829
-0.0050455
0.163219
-0.0041492
0.16356
-0.00326078
0.163851
-0.00238101
0.164094
-0.00151073
0.164289
-0.000651158
0.000196706
0.148667
-0.0181052
-0.14745
0.149838
-0.0172937
0.150926
-0.0163392
0.151934
-0.0153423
0.152862
-0.0143265
0.153716
-0.0133071
0.154503
-0.0122946
0.15523
-0.0112917
0.155899
-0.0102987
0.156515
-0.009315
0.157078
-0.00833973
0.157591
-0.00737216
0.158054
-0.00641192
0.158467
-0.00545907
0.158832
-0.00451395
0.159148
-0.00357714
0.159417
-0.0026494
0.159638
-0.00173163
0.159811
-0.000824848
6.85605e-05
0.144887
-0.0194104
-0.143582
0.146091
-0.0184981
0.147175
-0.0174233
0.148163
-0.0163303
0.14906
-0.0152229
0.149876
-0.0141238
0.150625
-0.0130439
0.151315
-0.0119816
0.15195
-0.0109338
0.152534
-0.00989832
0.153067
-0.00887318
0.153552
-0.00785673
0.153988
-0.00684818
0.154376
-0.00584739
0.154717
-0.00485464
0.15501
-0.0038705
0.155257
-0.00289578
0.155457
-0.00193156
0.155611
-0.00097885
-3.96053e-05
0.141405
-0.0208718
-0.139943
0.142639
-0.0197321
0.1437
-0.0184851
0.144647
-0.0172768
0.145496
-0.0160718
0.146265
-0.0148929
0.14697
-0.0137489
0.14762
-0.0126315
0.148219
-0.0115333
0.148771
-0.0104497
0.149275
-0.00937748
0.149733
-0.00831437
0.150144
-0.00725928
0.150508
-0.006212
0.150827
-0.00517288
0.151099
-0.00414256
0.151325
-0.00312193
0.151506
-0.00211219
0.151641
-0.00111483
-0.000131464
0.138287
-0.136886
-0.0222723
0.139434
-0.0208791
0.140456
-0.0195074
0.141325
-0.018146
0.142108
-0.0168548
0.142827
-0.0156113
0.143487
-0.0144097
0.144098
-0.0132426
0.144664
-0.0120991
0.145186
-0.0109713
0.145663
-0.00985463
0.146095
-0.0087468
0.146483
-0.00764669
0.146825
-0.00655424
0.147122
-0.00546999
0.147374
-0.00439474
0.147582
-0.00332949
0.147745
-0.0022753
0.147864
-0.00123377
-0.000212159
0.0302623
0.111409
-0.109951
-0.0317203
0.0287784
0.114456
-0.112972
0.0272657
0.117639
-0.116126
0.0257208
0.12098
-0.119435
0.02414
0.124513
-0.122932
0.0225207
0.128278
-0.126659
0.0208605
0.132333
-0.130673
0.0191579
0.136757
-0.135054
0.0174123
0.14165
-0.139905
0.0156236
0.147144
-0.145355
0.0137935
0.153394
-0.151564
0.0119262
0.160584
-0.158717
0.0100301
0.168912
-0.167016
0.00812187
0.178562
-0.176654
0.00623067
0.189653
-0.187762
0.00440593
0.202152
-0.200327
0.00272615
0.215729
-0.214049
0.00131
0.229546
-0.22813
0.000324103
0.241857
-0.240871
0.249586
-0.249262
0.0300893
0.112861
-0.0315409
0.0286118
0.115934
0.0271058
0.119145
0.0255677
0.122518
0.0239941
0.126087
0.0223821
0.12989
0.0207292
0.133986
0.0190338
0.138452
0.0172951
0.143389
0.0155131
0.148926
0.0136897
0.155217
0.0118292
0.162445
0.00994082
0.170801
0.00804178
0.180461
0.00616259
0.191533
0.00435407
0.203961
0.0026962
0.217387
0.00130707
0.230935
0.000348131
0.242816
0.249934
0.0298746
0.114304
-0.0313176
0.0284058
0.117402
0.0269087
0.120642
0.0253798
0.124047
0.0238154
0.127651
0.0222128
0.131493
0.0205694
0.13563
0.0188834
0.140138
0.0171539
0.145119
0.0153811
0.150698
0.0135667
0.157032
0.0117155
0.164296
0.0098372
0.172679
0.00794978
0.182348
0.0060847
0.193398
0.00429379
0.205752
0.00265756
0.219023
0.00129245
0.2323
0.000351482
0.243757
0.250286
0.02962
0.115736
-0.0310522
0.028162
0.11886
0.0266759
0.122128
0.0251581
0.125565
0.0236051
0.129204
0.0220139
0.133084
0.020382
0.137261
0.0187075
0.141813
0.0169895
0.146837
0.0152279
0.15246
0.0134248
0.158835
0.0115852
0.166136
0.00971921
0.174545
0.00784554
0.184222
0.00599643
0.195247
0.00422446
0.207524
0.00261023
0.220637
0.00126857
0.233642
0.000346708
0.244679
0.250632
0.0293274
0.117156
-0.030747
0.0278822
0.120306
0.026409
0.123601
0.0249042
0.12707
0.0233644
0.130744
0.0217865
0.134662
0.020168
0.13888
0.0185069
0.143474
0.0168022
0.148541
0.015054
0.154208
0.0132643
0.160624
0.0114384
0.167962
0.00958685
0.176397
0.00772902
0.18608
0.00589789
0.197078
0.00414665
0.209275
0.00255596
0.222228
0.001239
0.234959
0.000338089
0.24558
0.25097
0.0289995
0.118561
-0.0304049
0.0275686
0.121736
0.0261099
0.12506
0.0246197
0.12856
0.0230946
0.132269
0.0215316
0.136225
0.0199282
0.140483
0.0182823
0.14512
0.0165927
0.150231
0.0148597
0.155941
0.0130854
0.162399
0.0112753
0.169772
0.00944031
0.178232
0.00760045
0.18792
0.00578941
0.198889
0.00406099
0.211003
0.00249574
0.223793
0.00120511
0.236249
0.000326788
0.246458
0.251297
0.028639
0.119951
-0.030029
0.0272235
0.123152
0.0257805
0.126503
0.0243062
0.130035
0.0227972
0.133778
0.0212505
0.137771
0.0196636
0.14207
0.0180344
0.146749
0.0163617
0.151904
0.0146457
0.157657
0.0128886
0.164156
0.0110962
0.171564
0.00927988
0.180048
0.00746012
0.18974
0.00567132
0.200678
0.00396783
0.212707
0.00242999
0.225331
0.00116743
0.237512
0.000313513
0.247312
0.251611
0.0282485
0.121325
-0.0296227
0.0268493
0.124551
0.0254228
0.127929
0.0239653
0.131492
0.0224734
0.13527
0.0209441
0.139301
0.019375
0.14364
0.0177639
0.14836
0.0161096
0.153558
0.0144123
0.159354
0.0126743
0.165894
0.0109015
0.173337
0.00910582
0.181844
0.00730827
0.191537
0.00554388
0.202442
0.00386744
0.214383
0.00235906
0.226839
0.0011265
0.238744
0.000298863
0.248139
0.251909
0.0278311
0.122684
-0.0291892
0.0264482
0.125934
0.0250386
0.129339
0.0235984
0.132932
0.0221243
0.136744
0.0206134
0.140812
0.0190632
0.14519
0.0174714
0.149952
0.0158369
0.155192
0.0141598
0.161032
0.0124426
0.167611
0.0106914
0.175088
0.00891838
0.183617
0.00714514
0.19331
0.00540733
0.20418
0.00376013
0.21603
0.00228332
0.228316
0.00108278
0.239945
0.000283255
0.248939
0.252193
0.0273892
0.124026
-0.0287321
0.0260223
0.127301
0.0246294
0.130732
0.0232067
0.134355
0.0217509
0.1382
0.0202591
0.142303
0.0187286
0.14672
0.0171573
0.151523
0.0155439
0.156806
0.0138886
0.162687
0.0121939
0.169306
0.0104661
0.176816
0.00871773
0.185365
0.00697094
0.195057
0.00526192
0.205889
0.00364619
0.217646
0.00220312
0.229759
0.00103665
0.241111
0.000266933
0.249709
0.25246
0.0269254
0.125355
-0.0282544
0.0255733
0.128653
0.0241965
0.132109
0.0227911
0.13576
0.0213536
0.139637
0.0198813
0.143776
0.0183714
0.14823
0.0168216
0.153073
0.0152307
0.158397
0.0135987
0.164319
0.0119282
0.170976
0.0102257
0.178518
0.00850401
0.187087
0.00678584
0.196775
0.00510786
0.207567
0.00352588
0.219228
0.00211876
0.231166
0.000988362
0.242242
0.000250056
0.250447
0.25271
0.0264409
0.126673
-0.0277587
0.0251019
0.129992
0.02374
0.133471
0.0223513
0.137149
0.0209322
0.141056
0.0194799
0.145228
0.0179913
0.149719
0.0164642
0.1546
0.0148971
0.159964
0.01329
0.165926
0.0116454
0.172621
0.00997016
0.180194
0.00827733
0.188779
0.00659