/*--------------------------------*- C++ -*----------------------------------*\
  =========                 |
  \\      /  F ield         | OpenFOAM: The Open Source CFD Toolbox
   \\    /   O peration     | Website:  https://openfoam.org
    \\  /    A nd           | Version:  6.0
     \\/     M anipulation  |
\*---------------------------------------------------------------------------*/
FoamFile
{
    version     2.0;
    format      ascii;
    class       surfaceScalarField;
    location    "1.75";
    object      phi;
}
// * * * * * * * * * * * * * * * * * * * * * * * * * * * * * * * * * * * * * //

dimensions      [0 3 -1 0 0 0 0];

internalField   nonuniform List<scalar> 
4670
(
-0.000238818
-0.021921
0.0221599
-0.000597733
-0.0178004
0.0181593
-0.00088784
-0.0150322
0.0153223
-0.000998661
-0.0132272
0.013338
-0.000864776
-0.0120879
0.0119541
-0.000451369
-0.0113879
0.0109745
0.000252934
-0.010957
0.0102527
0.00123932
-0.0106681
0.00968169
0.00247984
-0.0104261
0.00918555
-0.0101613
0.00871299
0.00392815
-0.000198735
-0.0217223
-0.000456499
-0.0175426
-0.000593862
-0.0148948
-0.000510153
-0.0133109
-0.00014843
-0.0124497
0.000519987
-0.0120564
0.00150265
-0.0119397
0.00278856
-0.011954
0.00434788
-0.0119854
-0.0119444
0.00613102
-0.000142559
-0.0215797
-0.000257459
-0.0174277
-0.00018326
-0.014969
0.00016639
-0.0136605
0.000837378
-0.0131207
0.00185085
-0.0130698
0.00321016
-0.013299
0.00490265
-0.0136465
0.0068976
-0.0139803
-0.0141892
0.00914235
-7.21549e-05
-0.0215076
-9.98014e-06
-0.0174899
0.000323855
-0.0153028
0.00099674
-0.0143334
0.00203997
-0.0141639
0.00346448
-0.0144943
0.00526784
-0.0151024
0.00743547
-0.0158141
0.0099368
-0.0164817
-0.0169698
0.0127174
9.81035e-06
-0.0215174
0.000276569
-0.0177567
0.000907854
-0.0159341
0.00194723
-0.0153728
0.00340694
-0.0156236
0.00528361
-0.016371
0.00756572
-0.0173845
0.0102353
-0.0184836
0.0132629
-0.0195093
-0.0203023
0.0165954
0.000101184
-0.0216186
0.000594391
-0.0182499
0.00155204
-0.0168918
0.00298889
-0.0168097
0.00489298
-0.0175277
0.00724105
-0.0187191
0.0100072
-0.0201506
0.0131664
-0.0216429
0.0166914
-0.0230342
-0.0241455
0.0205345
0.000200603
-0.0218192
0.000937583
-0.0189869
0.00224301
-0.0181972
0.0040982
-0.0186648
0.00646179
-0.0198913
0.00928432
-0.0215416
0.0125181
-0.0233843
0.0161243
-0.0252491
0.0200755
-0.0269854
-0.0284081
0.024338
0.000307292
-0.0221265
0.00130124
-0.0199808
0.00296869
-0.0198646
0.00525392
-0.0209501
0.00808213
-0.0227195
0.0113719
-0.0248314
0.0150452
-0.0270576
0.0190386
-0.0292426
0.0233173
-0.0312641
-0.0329706
0.0278799
0.000420753
-0.0225472
0.00167975
-0.0212398
0.00371487
-0.0218998
0.00643209
-0.0236673
0.00972238
-0.0260098
0.0134705
-0.0285795
0.0175619
-0.031149
0.0218923
-0.033573
0.0263996
-0.0357715
-0.0377301
0.0311591
0.000540995
-0.0230882
0.00206386
-0.0227627
0.00445845
-0.0242943
0.0075944
-0.0268033
0.0113349
-0.0297502
0.0155434
-0.0327881
0.020085
-0.0356905
0.0248167
-0.0383047
0.0295823
-0.0405371
-0.0424212
0.0342734
0.0316169
0.00105798
-0.0326749
0.0305236
0.00109331
0.0294188
0.00110479
0.0283264
0.00109236
0.0272685
0.00105789
0.0262646
0.00100397
0.0253311
0.000933466
0.0244822
0.000848907
0.0237303
0.000751879
0.000642091
0.043111
0.00318915
-0.0452422
0.0408063
0.00339802
0.038387
0.00352416
0.0359112
0.00356808
0.0334357
0.00353343
0.0310134
0.00342632
0.0286929
0.00325388
0.0265186
0.00302326
0.0245302
0.00274028
0.0024096
0.0525585
0.00573414
-0.0551035
0.0496933
0.00626321
0.0465803
0.00663712
0.0432964
0.00685198
0.0399203
0.00690955
0.0365302
0.00681641
0.0332017
0.00658237
0.0300072
0.00621778
0.0270161
0.00573138
0.00513136
0.0598717
0.00826751
-0.0624051
0.056891
0.00924395
0.053533
0.00999513
0.0498777
0.0105072
0.0460126
0.0107747
0.042029
0.0108
0.0380205
0.0105909
0.0340813
0.010157
0.0303083
0.00950439
0.00863635
0.0652033
0.0105413
-0.0674771
0.0623897
0.0120576
0.0590936
0.0132913
0.0553862
0.0142146
0.0513508
0.0148101
0.0470798
0.015071
0.0426719
0.0149988
0.0382327
0.0145962
0.0338791
0.013858
0.0127652
0.0688367
0.01244
-0.0707354
0.0663448
0.0145495
0.0632994
0.0163367
0.0597555
0.0177584
0.055783
0.0187826
0.0514637
0.0193904
0.0468892
0.0195732
0.0421616
0.0193238
0.0374032
0.0186164
0.0173803
0.0710991
0.0139387
-0.0725978
0.0689897
0.016659
0.0662912
0.0190352
0.06304
0.0210096
0.0592873
0.0225353
0.0550971
0.0235806
0.0505424
0.0241279
0.0457045
0.0241617
0.0406879
0.0236331
0.0223777
0.072304
0.0150668
-0.0734321
0.0705755
0.0183874
0.0682533
0.0213573
0.0653567
0.0239063
0.0619179
0.0259741
0.0579803
0.0275182
0.0535913
0.0285169
0.0487936
0.0289594
0.0436343
0.0287923
0.0277073
0.0727167
0.0158813
-0.0735312
0.0713313
0.0197729
0.0693711
0.0233175
0.0668426
0.0264348
0.0637632
0.0290534
0.0601586
0.0311227
0.0560522
0.0326234
0.0514388
0.0335728
0.0462471
0.033984
0.0334174
0.0725404
-0.0731093
0.0164503
0.0714399
0.0208734
0.0697994
0.024958
0.0676182
0.028616
0.064905
0.0317666
0.0616764
0.0343513
0.0579461
0.0363537
0.0536886
0.0378303
0.048717
0.0389556
0.0397132
0.0363113
-0.000491802
-0.0358195
0.0366153
-0.000303999
0.0367247
-0.000109398
0.0366394
8.53223e-05
0.0363646
0.000274784
0.0359108
0.000453834
0.0352932
0.000617606
0.0345315
0.000761692
0.0336494
0.000882134
0.000974491
0.0495097
-0.00198676
-0.0480147
0.0506148
-0.00140908
0.0513164
-0.000810993
0.0516053
-0.000203602
0.05148
0.000400061
0.050948
0.000985796
0.0500267
0.00153897
0.048743
0.00204533
0.0471335
0.00249165
0.0028658
0.0566922
-0.00432098
-0.0543579
0.0585618
-0.0032787
0.0599405
-0.00218976
0.0608056
-0.0010687
0.0611417
6.39964e-05
0.0609432
0.00118428
0.060216
0.00226617
0.0589781
0.0032832
0.05726
0.00420984
0.0050223
0.0600309
-0.00727605
-0.0570759
0.0625209
-0.00576863
0.0645072
-0.00417616
0.065954
-0.00251542
0.0668319
-0.000813913
0.0671213
0.000894908
0.0668134
0.00257405
0.0659117
0.00418491
0.0644324
0.00568909
0.0070496
0.0610467
-0.0106472
-0.0576755
0.0639897
-0.00871162
0.0664545
-0.00664096
0.0683936
-0.0044545
0.0697678
-0.00218814
0.0705472
0.000115444
0.0707119
0.00240943
0.070252
0.00464478
0.0691692
0.0067719
0.00874166
0.0607709
-0.0142753
-0.0571427
0.0640229
-0.0119636
0.0668325
-0.00945055
0.0691433
-0.00676536
0.0709122
-0.00395699
0.0721055
-0.00107789
0.072698
0.0018169
0.0726721
0.00467075
0.072018
0.00742599
0.0100242
0.0598638
-0.0180606
-0.0560786
0.0633219
-0.0154217
0.0663625
-0.0124911
0.0689258
-0.00932871
0.0709726
-0.00600378
0.0724735
-0.00257876
0.0734044
0.000886026
0.0737451
0.00433002
0.0734797
0.0076914
0.0109061
0.0587316
-0.0219712
-0.054821
0.0623297
-0.0190198
0.0655071
-0.0156685
0.0682146
-0.0120362
0.070428
-0.00821724
0.0721286
-0.0042793
0.0732977
-0.000283101
0.0739165
0.00371119
0.0739667
0.00764122
0.0114407
0.0576417
-0.0260326
-0.0535804
0.0613126
-0.0226907
0.0645328
-0.0188887
0.0672856
-0.014789
0.069569
-0.0105006
0.0713759
-0.00608614
0.0726929
-0.00160019
0.0735035
0.00290063
0.073789
0.00735567
0.0116985
0.0567524
-0.0526138
-0.0301712
0.0604019
-0.0263402
0.063556
-0.0220428
0.0662701
-0.0175031
0.0685511
-0.0127816
0.0703946
-0.00792964
0.0717888
-0.00299433
0.0727177
0.0019717
0.0731639
0.0069095
0.011753
0.0426919
0.00939312
-0.00411307
-0.047972
0.0373195
0.00989738
-0.00452496
0.0318547
0.0105411
-0.00507632
0.0263129
0.0113906
-0.00584881
0.0207374
0.0125386
-0.00696304
0.0152227
0.0140949
-0.00858023
0.0099515
0.0161588
-0.0108875
0.00524727
0.0187538
-0.0140495
0.00164712
0.0217045
-0.0181043
0.0244166
-0.0227694
0.0425299
0.0146467
-0.0477834
0.0371821
0.0152451
0.0317403
0.0159829
0.0262197
0.0169112
0.0206631
0.0180952
0.0151651
0.0195928
0.00990933
0.0214146
0.00522065
0.0234424
0.00163664
0.0252885
0.0260532
0.0420185
0.0198453
-0.0472171
0.0367247
0.020539
0.0313372
0.0213704
0.0258719
0.0223764
0.0203726
0.0235945
0.0149349
0.0250305
0.00974292
0.0266066
0.00512058
0.0280648
0.00159876
0.0288103
0.027652
0.0411623
0.0249627
-0.0462798
0.0359502
0.0257511
0.0306473
0.0266733
0.0252712
0.0277525
0.0198674
0.0289983
0.0145334
0.0303646
0.00945367
0.0316863
0.00494868
0.0325698
0.00153529
0.0322237
0.0291872
0.0399651
0.0299751
-0.0449775
0.0348611
0.0308551
0.0296725
0.0318618
0.0244193
0.0330058
0.0191493
0.0342683
0.0139626
0.0355513
0.00904382
0.036605
0.00470692
0.0369067
0.00144735
0.0354833
0.0306346
0.0384269
0.0348602
-0.0433119
0.0334571
0.0358248
0.0284131
0.0369059
0.0233172
0.0381017
0.0182206
0.0393649
0.0132256
0.0405464
0.00851652
0.0413141
0.0043979
0.0410253
0.0013362
0.0385449
0.0319708
0.0365407
0.0395945
-0.0412751
0.0317332
0.0406324
0.0268669
0.0417722
0.0219659
0.0430026
0.017084
0.0442468
0.0123265
0.0453039
0.00787625
0.0457643
0.00402519
0.0448763
0.00120359
0.0413666
0.0331744
0.034287
0.0441474
-0.0388399
0.0296776
0.0452418
0.0250301
0.0464197
0.0203667
0.047666
0.0157443
0.0488692
0.0112717
0.0497766
0.00712948
0.0499065
0.00359391
0.0484119
0.00105187
0.0439086
0.0342262
0.0316216
0.0484827
-0.0359568
0.0272707
0.0495927
0.0229008
0.0507896
0.0185257
0.0520411
0.0142111
0.0531838
0.0100716
0.053916
0.00628587
0.0536922
0.00311129
0.0515865
0.000884616
0.0461353
0.0351109
0.0285181
-0.0326493
0.0245304
0.0204991
0.0164616
0.0125027
0.00874317
0.00535956
0.00258812
0.000708678
0.0250549
-0.0400191
0.0442504
-0.0292863
0.0210664
-0.0401265
0.0441151
0.0171779
-0.0399169
0.0438054
0.0134276
-0.0391807
0.0429311
0.0099045
-0.0375376
0.0410607
0.00672167
-0.0344316
0.0376144
0.00400957
-0.0290975
0.0318096
0.00190283
-0.0205427
0.0226494
0.000525708
-0.00755222
0.00892934
0.011352
-0.0108263
0.0284534
-0.0356818
-0.0327906
0.0241544
-0.0358276
0.0199206
-0.0356831
0.0157944
-0.0350545
0.0118571
-0.0336004
0.00822315
-0.0307976
0.0050369
-0.0259112
0.00246893
-0.0179747
0.000712566
-0.00579585
0.0120646
0.0314488
-0.0311714
-0.0359592
0.026911
-0.0312898
0.0223938
-0.0311659
0.0179475
-0.0306082
0.0136496
-0.0293025
0.00961423
-0.0267623
0.00599785
-0.0222948
0.00300375
-0.0149806
0.000890128
-0.00368224
0.0129547
0.0340552
-0.0264891
-0.0387374
0.0293223
-0.0265569
0.0245751
-0.0264187
0.0198617
-0.0258948
0.0152559
-0.0246968
0.0108716
-0.0223779
0.00687429
-0.0182975
0.00349619
-0.0116025
0.00105539
-0.00124144
0.0140101
0.0363127
-0.0216513
-0.0411505
0.0314103
-0.0216545
0.0264694
-0.0214778
0.0215314
-0.0209568
0.0166651
-0.0198305
0.0119818
-0.0176947
0.00765399
-0.0139697
0.00393778
-0.00788629
0.00120495
0.00149139
0.015215
0.0382331
-0.0166765
-0.0432079
0.0331847
-0.016606
0.0280804
-0.0163735
0.022955
-0.0158314
0.0178711
-0.0147466
0.0129368
-0.0127603
0.00832849
-0.00936138
0.00432218
-0.00387998
0.00133596
0.00447761
0.016551
0.0398168
-0.0115866
-0.0449067
0.034647
-0.0114362
0.029409
-0.0111355
0.0241312
-0.0105536
0.0188704
-0.00948582
0.0137309
-0.00762085
0.00889177
-0.00452221
0.00464456
0.000367234
0.00144623
0.00767593
0.0179972
0.0410597
-0.00640638
-0.0462399
0.0357953
-0.00617185
0.0304535
-0.00579368
0.0250578
-0.00515782
0.0196597
-0.00408777
0.0143601
-0.00232124
0.00933936
0.000498546
0.00490132
0.00480527
0.00153407
0.0110432
0.0195313
0.0419563
-0.00116336
-0.0471993
0.0366259
-0.000841475
0.0312114
-0.000379134
0.0257322
0.000321283
0.0202362
0.00140825
0.0148211
0.00309392
0.00966799
0.00565162
0.00508996
0.0093833
0.00159842
0.0145347
0.0211297
0.042502
-0.0477784
0.0371355
0.0316801
0.0261526
0.0205978
0.0151115
0.00987555
0.00520932
0.00163973
0.0484786
0.0220545
-0.0262827
0.0521039
0.0183099
-0.0219352
0.0551781
0.014063
-0.0171372
0.0577572
0.00949648
-0.0120756
0.0598391
0.0047471
-0.00682897
0.061406
-9.94786e-05
-0.00146751
0.0624298
-0.00496189
0.00393817
0.0628768
-0.00975211
0.00930505
0.0627132
-0.0143745
0.0145382
-0.0187259
0.0619077
0.0195314
0.0480857
0.0180839
0.0516365
0.0147591
0.0546776
0.0110218
0.0571791
0.00699498
0.059128
0.00279822
0.0605036
-0.00147507
0.061278
-0.00573633
0.0614206
-0.00989466
0.0609019
-0.0138558
-0.0175227
0.0596987
0.0475033
0.014386
0.0508449
0.0114174
0.0537003
0.00816644
0.0560016
0.0046937
0.057711
0.0010888
0.0587975
-0.00256151
0.0592314
-0.00617027
0.0589863
-0.00964959
0.058042
-0.0129114
-0.0158694
0.0563887
0.0463628
0.0109542
0.0494053
0.00837494
0.0519535
0.00561827
0.0539313
0.00271593
0.0552876
-0.000267508
0.0559845
-0.00325841
0.0559937
-0.00617942
0.0552965
-0.00895239
0.0538863
-0.0115013
-0.0137553
0.0517722
0.0441776
0.00783736
0.046844
0.00570848
0.0489849
0.00347742
0.0505331
0.00116767
0.0514387
-0.00117313
0.0516668
-0.00348649
0.0511969
-0.0057095
0.0500236
-0.00777912
0.0481584
-0.00963613
-0.0112284
0.0456316
0.0403274
0.00512435
0.042536
0.0034999
0.0441871
0.00182639
0.0452303
0.000124398
0.045628
-0.00157082
0.0453577
-0.00321621
0.0444139
-0.00476567
0.042809
-0.00617418
0.0405743
-0.00740142
-0.0084146
0.0377605
0.0340167
0.00291718
0.0356937
0.00182292
0.0368059
0.000714168
0.0373228
-0.000392453
0.0372252
-0.0014732
0.036509
-0.00250003
0.0351872
-0.00344389
0.0332907
-0.00427765
0.0308679
-0.00497869
-0.00553081
0.0279841
0.024263
0.00130356
0.0253721
0.000713848
0.0259589
0.000127361
0.0260129
-0.000446417
0.0255344
-0.000994712
0.0245374
-0.00150308
0.0230508
-0.00195727
0.021118
-0.00234487
0.0187961
-0.00265672
-0.00288802
0.0161533
0.00990186
0.000331034
0.0104733
0.000142433
0.0106407
-4.00979e-05
0.010409
-0.000214686
0.00979167
-0.000377378
0.00881241
-0.000523818
0.00750515
-0.000650008
0.00591309
-0.000752812
0.00408684
-0.000830465
-0.00088363
0.00208245
-0.0104952
-0.0103528
-0.0103929
-0.0106076
-0.010985
-0.0115088
-0.0121588
-0.0129116
-0.0137421
-0.0146257
0.0604389
-0.0227187
0.0241875
0.0582947
-0.0262046
0.0283488
0.0554837
-0.0291111
0.0319222
0.0520363
-0.0313685
0.0348159
0.0480033
-0.0329462
0.0369793
0.0434464
-0.0338616
0.0384185
0.038412
-0.0341752
0.0392096
0.0328709
-0.033965
0.0395061
0.0266132
-0.0331676
0.0394253
-0.0308493
0.01899
0.0384726
0.0578004
-0.0208204
0.0552109
-0.0236151
0.0519571
-0.0258573
0.048089
-0.0275004
0.0436753
-0.0285326
0.0387906
-0.0289769
0.0334917
-0.0288763
0.0277785
-0.0282519
0.0215883
-0.0269773
-0.0244449
0.0151838
0.054033
-0.0184648
0.0510008
-0.0205829
0.0473416
-0.0221981
0.0431269
-0.0232858
0.0384445
-0.0238502
0.033386
-0.0239184
0.0280318
-0.0235221
0.0224397
-0.0226598
0.016689
-0.0212266
-0.0189009
0.011145
0.0489817
-0.0156742
0.045565
-0.0171663
0.0415943
-0.0182274
0.0371605
-0.018852
0.0323664
-0.0190561
0.0273172
-0.0188692
0.0221114
-0.0183162
0.0168446
-0.017393
0.0116514
-0.0160334
-0.0140868
0.00683733
0.042492
-0.0125347
0.0388128
-0.013487
0.0346836
-0.0140981
0.0302076
-0.014376
0.0254945
-0.014343
0.0206524
-0.0140272
0.0157857
-0.0134495
0.0110011
-0.0126084
0.0064352
-0.0114676
-0.00996536
0.00231379
0.0344338
-0.00920802
0.0306831
-0.00973632
0.0266064
-0.0100214
0.0223084
-0.010078
0.0178943
-0.00992889
0.0134646
-0.00959755
0.00911498
-0.00909985
0.00494268
-0.00843608
0.00106349
-0.00758839
-0.00653376
-0.00236811
0.0247135
-0.00593736
0.0211498
-0.00617263
0.0173871
-0.00625871
0.0135197
-0.00621062
0.00963725
-0.00604647
0.0058224
-0.0057827
0.00215218
-0.00542964
-0.00129628
-0.00498762
-0.00443724
-0.00444743
-0.00380055
-0.00717045
0.0132589
-0.00304297
0.0101984
-0.00311209
0.00704916
-0.00310951
0.00388464
-0.0030461
0.000770802
-0.00293263
-0.00223365
-0.00277825
-0.00507558
-0.00258771
-0.00770257
-0.00236063
-0.0100577
-0.00209231
-0.00177939
-0.0120788
-4.873e-05
-0.000911798
-0.00224413
-0.000916686
-0.00445239
-0.000901258
-0.00662796
-0.000870529
-0.00873216
-0.000828424
-0.0107327
-0.000777697
-0.0126007
-0.000719743
-0.0143073
-0.00065403
-0.0158211
-0.000578451
-0.000493218
-0.0171073
-0.0155375
-0.0164542
-0.0173554
-0.018226
-0.0190544
-0.0198321
-0.0205518
-0.0212059
-0.0217843
-0.0222775
0.000382994
-0.0226605
0.00141392
-0.0181382
0.00305607
-0.013721
0.00529823
-0.0094126
0.00812805
-0.00519793
0.0115186
-0.00107673
0.01542
0.00293584
0.0197482
0.00681686
0.0243818
0.0105502
0.0141547
0.0292171
0.00027872
-0.0229393
0.00104502
-0.0189045
0.00229503
-0.014971
0.00403678
-0.0111544
0.00627072
-0.00743187
0.00898125
-0.00378726
0.0121358
-0.000218729
0.0156935
0.0032592
0.0196404
0.00660331
0.00969644
0.0240987
0.000172164
-0.0231114
0.000681928
-0.0194143
0.00156009
-0.0158492
0.00283935
-0.0124336
0.00454267
-0.00913519
0.0066805
-0.00592509
0.00925394
-0.00279216
0.0122635
0.000249669
0.0157209
0.00314591
0.005771
0.0196463
7.00168e-05
-0.0231814
0.00034093
-0.0196852
0.000880202
-0.0163884
0.00174584
-0.0132993
0.00298258
-0.0103719
0.0046225
-0.007565
0.00668832
-0.00485798
0.00919738
-0.0022594
0.0121603
0.000182997
0.00237205
0.0155592
-2.37836e-05
-0.0231576
3.35595e-05
-0.0197426
0.00027503
-0.0166299
0.000781161
-0.0138054
0.00161346
-0.0112042
0.00281734
-0.00876889
0.00442497
-0.00646561
0.00645605
-0.00429048
0.0089128
-0.00227375
-0.000479626
0.0117645
-0.000105845
-0.0230518
-0.000230108
-0.0196183
-0.000238113
-0.0166219
-3.15576e-05
-0.0140119
0.000461806
-0.0116976
0.00129338
-0.00960046
0.00249668
-0.0076689
0.00408749
-0.00588129
0.00605975
-0.00424601
-0.00279714
0.00837725
-0.000172739
-0.0228791
-0.000440076
-0.019351
-0.0006415
-0.0164205
-0.000666416
-0.013987
-0.000437283
-0.0119267
9.79868e-05
-0.0101357
0.000969906
-0.00854082
0.00218842
-0.00709981
0.00374095
-0.00579854
-0.00464525
0.00558907
-0.000221077
-0.022658
-0.000586715
-0.0189853
-0.000917657
-0.0160895
-0.00109633
-0.0138084
-0.00104415
-0.0119789
-0.000711582
-0.0104683
-7.2966e-05
-0.00917944
0.00087566
-0.00804843
0.0021166
-0.00703948
-0.0061388
0.00361015
-0.000247863
-0.0224101
-0.000662182
-0.018571
-0.00105251
-0.0156992
-0.00129892
-0.0135619
-0.0013249
-0.0119529
-0.00108513
-0.0107081
-0.000559209
-0.00970536
0.000251507
-0.00885915
0.00132515
-0.00811312
-0.00743414
0.00262048
-0.000250272
-0.00066194
-0.00103889
-0.00126282
-0.00126169
-0.000995223
-0.000447883
0.000374655
0.00144708
0.00272594
0.0112639
-0.0454708
0.0381351
0.0239486
-0.0426666
0.0299819
0.0377933
-0.0303689
0.0165242
0.0499548
-0.0170607
0.00489917
0.0592468
-0.00693881
-0.00235316
0.0656565
-0.000757348
-0.00565238
0.0697559
0.0023471
-0.00644648
0.0722207
0.00358309
-0.00604789
0.0736119
0.00386006
-0.00525126
0.0743224
0.00370599
-0.00441646
0.0746018
0.00338109
-0.00366052
0.0746026
0.00299797
-0.00299874
0.0744173
0.00260712
-0.00242184
0.0741024
0.00223564
-0.00192078
0.0736928
0.00190638
-0.00149671
0.0732093
0.0016225
-0.00113905
0.0726624
0.00139772
-0.000850755
0.0720585
0.00119959
-0.000595703
0.0714031
0.00106135
-0.000405947
0.00088448
-0.000176456
0.0133544
-0.0526941
0.0252534
-0.0545657
0.0383624
-0.0434779
0.0500217
-0.0287201
0.0590465
-0.0159635
0.0653428
-0.00705368
0.0694074
-0.00171748
0.0718716
0.00111887
0.0732755
0.00245617
0.0740038
0.00297765
0.0743038
0.00308112
0.0743273
0.0029745
0.074167
0.00276742
0.0738796
0.00252305
0.0735
0.00228601
0.0730492
0.00207325
0.0725377
0.00190926
0.0719721
0.00176518
0.071358
0.00167545
0.00154811
0.0162269
-0.0597787
0.0270569
-0.0653957
0.0391059
-0.0555269
0.0500062
-0.0396203
0.0586012
-0.0245586
0.0647028
-0.0131552
0.0687037
-0.00571842
0.0711669
-0.00134437
0.0725967
0.00102641
0.0733622
0.00221214
0.0737051
0.00273825
0.0737757
0.00290388
0.0736667
0.00287639
0.0734351
0.00275465
0.073116
0.00260511
0.0727308
0.00245849
0.07229
0.00235
0.0718008
0.0022544
0.0712689
0.00220734
0.0021233
0.019591
-0.0666523
0.0291401
-0.0749448
0.0398846
-0.0662713
0.0498355
-0.0495712
0.0578804
-0.0326035
0.0637273
-0.019002
0.067645
-0.00963618
0.0701103
-0.00380961
0.0715799
-0.000443232
0.0724018
0.00139026
0.0728096
0.00233046
0.0729514
0.00276208
0.0729197
0.00290809
0.0727718
0.00290253
0.0725433
0.00283359
0.072256
0.00274581
0.071921
0.00268503
0.0715457
0.00262967
0.0711365
0.00261656
0.00256657
0.0231281
-0.073185
0.0312517
-0.0830684
0.0405332
-0.0755528
0.0494203
-0.0584584
0.0568453
-0.0400285
0.0624046
-0.0245613
0.0662319
-0.0134635
0.0687067
-0.00628441
0.0702315
-0.001968
0.0711289
0.000492821
0.0716232
0.00183617
0.0718597
0.00252558
0.0719306
0.00283713
0.0718939
0.0029393
0.0717855
0.00294197
0.0716279
0.00290342
0.0714328
0.00288009
0.0712084
0.00285408
0.0709615
0.00286345
0.00283525
0.0265319
-0.0791823
0.0331392
-0.0896757
0.0408829
-0.0832965
0.0486676
-0.066243
0.055455
-0.0468159
0.0607229
-0.0298293
0.0644659
-0.0172065
0.066963
-0.00878149
0.0685595
-0.00356453
0.0695516
-0.00049929
0.0701535
0.00123435
0.0705075
0.00217154
0.0707058
0.00263884
0.0708067
0.00283836
0.0708472
0.00290152
0.0708503
0.00290034
0.0708286
0.00290178
0.070791
0.00289169
0.0707451
0.00290933
0.00288774
0.0295183
-0.0843626
0.0345528
-0.0947102
0.0407647
-0.0895084
0.0474825
-0.0729608
0.053667
-0.0530005
0.0586697
-0.034832
0.0623492
-0.0208859
0.0648872
-0.0113194
0.0665739
-0.00525123
0.0676798
-0.00160526
0.0684097
0.000504521
0.0689033
0.00167789
0.0692527
0.0022894
0.0695171
0.00257395
0.0697342
0.00268447
0.0699279
0.00270663
0.0701119
0.00271779
0.0702959
0.00270769
0.0704885
0.00271677
0.00268376
0.0318314
-0.0883141
0.0352535
-0.0981324
0.0400175
-0.0942724
0.0457717
-0.0787149
0.0514368
-0.0586657
0.0562302
-0.0396254
0.0598825
-0.0245383
0.0624871
-0.013924
0.064285
-0.0070491
0.0655245
-0.00284475
0.0664024
-0.000373413
0.067057
0.00102332
0.0675805
0.00176588
0.0680331
0.00212138
0.0684534
0.00226414
0.0688665
0.00229349
0.0692873
0.00229707
0.0697263
0.00226863
0.0701933
0.00224978
0.00218461
0.0334573
-0.0906123
0.0352227
-0.0998977
0.0386337
-0.0976834
0.0435271
-0.0836083
0.0487594
-0.0638979
0.0534056
-0.0442716
0.057073
-0.0282056
0.0597734
-0.0166244
0.0617049
-0.00898066
0.0630979
-0.00423772
0.0641436
-0.00141914
0.0649797
0.000187257
0.0656992
0.00104633
0.0663636
0.00145702
0.0670127
0.00161508
0.0676727
0.00163349
0.0683597
0.00161004
0.0690857
0.00154264
0.0698614
0.00147408
0.00135344
0.0347708
-0.0911097
0.0348372
-0.0999641
0.0368933
-0.0997396
0.0409358
-0.0876508
0.0457455
-0.0687077
0.0502599
-0.048786
0.0539586
-0.0319044
0.056771
-0.0194368
0.0588523
-0.011062
0.0604155
-0.00580094
0.061647
-0.00265056
0.0626838
-0.000849593
0.0636202
0.000109941
0.0645188
0.00055846
0.0654207
0.000713164
0.0663535
0.000700632
0.0673349
0.000628692
0.0683779
0.000499597
0.0694947
0.000357266
0.000155382
0.131522
-0.0813805
-0.141252
0.124213
-0.092655
0.118753
-0.0942794
0.116213
-0.0851103
0.116152
-0.0686467
0.117625
-0.0502592
0.119673
-0.0339529
0.121657
-0.0214203
0.123282
-0.0126872
0.124491
-0.00700953
0.125336
-0.0034955
0.125902
-0.00141592
0.12627
-0.000257889
0.126503
0.00032564
0.126647
0.000569176
0.126734
0.000613499
0.126784
0.000578117
0.126812
0.000471957
0.126828
0.000341462
0.00014886
0.169622
-0.0680547
-0.182948
0.158096
-0.0811286
0.148791
-0.0849749
0.14283
-0.0791489
0.140227
-0.0660443
0.140071
-0.0501025
0.141225
-0.0351066
0.142797
-0.0229933
0.144277
-0.014167
0.145462
-0.00819436
0.146328
-0.00436183
0.146927
-0.00201412
0.147323
-0.000654509
0.147578
7.05196e-05
0.147738
0.000409071
0.147837
0.000515115
0.147896
0.000519023
0.14793
0.000438115
0.147949
0.000321789
0.00014082
0.208933
-0.0532992
-0.223688
0.195244
-0.0674393
0.183235
-0.072966
0.174315
-0.0702292
0.169119
-0.0608485
0.167043
-0.0480265
0.16697
-0.0350329
0.167863
-0.0238871
0.169018
-0.0153219
0.170072
-0.00924795
0.170899
-0.00518914
0.171497
-0.00261175
0.171906
-0.00106321
0.172175
-0.000198745
0.172347
0.000236409
0.172456
0.000406725
0.172524
0.000451154
0.172565
0.000397272
0.172589
0.000297547
0.000130974
0.248367
-0.0393608
-0.262305
0.23419
-0.0532623
0.221018
-0.0597935
0.210278
-0.0594896
0.203022
-0.0535922
0.199107
-0.0441119
0.197637
-0.0335634
0.197609
-0.0238586
0.198226
-0.0159391
0.198997
-0.0100189
0.199689
-0.0058815
0.20023
-0.0031522
0.200619
-0.00145255
0.200886
-0.000465616
0.201063
5.91434e-05
0.201178
0.000291737
0.201254
0.000375357
0.201302
0.00034922
0.201331
0.000268236
0.000119045
0.288427
-0.0276299
-0.300158
0.275104
-0.0399391
0.262099
-0.0467886
0.250763
-0.0481544
0.242233
-0.0450615
0.236805
-0.0386847
0.233947
-0.0307045
0.232832
-0.0227439
0.232704
-0.0158117
0.233016
-0.01033
0.233446
-0.00631189
0.233847
-0.00355348
0.234169
-0.00177379
0.234406
-0.000703063
0.234574
-0.000108966
0.234689
0.000176424
0.234771
0.000294156
0.234825
0.00029466
0.23486
0.000233713
0.000104818
0.331061
-0.0185219
-0.340169
0.31948
-0.0283581
0.307478
-0.0347871
0.296423
-0.0370994
0.287338
-0.0359764
0.280792
-0.0321384
0.276653
-0.0265655
0.274372
-0.0204632
0.273331
-0.01477
0.273004
-0.0100031
0.273027
-0.00633511
0.273187
-0.0037131
0.273375
-0.00196172
0.273545
-0.000873024
0.273683
-0.000247539
0.273789
7.05027e-05
0.273871
0.000212085
0.27393
0.000235312
0.27397
0.000194264
8.82057e-05
0.378679
-0.0117654
-0.385436
0.369186
-0.0188642
0.358606
-0.024208
0.34829
-0.0267826
0.339153
-0.0268403
0.331853
-0.0248379
0.326591
-0.0213031
0.323133
-0.0170053
0.321059
-0.0126966
0.319937
-0.00888129
0.319407
-0.00580494
0.319212
-0.00351794
0.319189
-0.00193917
0.319245
-0.000928064
0.319327
-0.000329921
0.31941
-1.2715e-05
0.319487
0.000135619
0.319548
0.000173801
0.319592
0.000150574
6.92951e-05
0.43363
-0.00683339
-0.438562
0.426118
-0.011352
0.417058
-0.0151485
0.407621
-0.0173455
0.398678
-0.017897
0.390891
-0.0170509
0.38467
-0.0150823
0.380074
-0.0124094
0.376911
-0.00953334
0.374881
-0.00685186
0.373674
-0.00459772
0.373018
-0.00286223
0.372708
-0.00162861
0.372598
-0.000817867
0.372594
-0.000326576
0.372639
-5.7804e-05
0.372703
7.2287e-05
0.372763
0.00011323
0.37281
0.00010354
4.82952e-05
0.498459
-0.00313976
-0.502152
0.492454
-0.00534711
0.484647
-0.00734182
0.47593
-0.00862828
0.467134
-0.00910131
0.458937
-0.00885397
0.451861
-0.00800623
0.446186
-0.00673416
0.441934
-0.00528182
0.438954
-0.00387126
0.437003
-0.0026474
0.435821
-0.00167987
0.435169
-0.000976673
0.434857
-0.000505489
0.434745
-0.000214892
0.43474
-5.25436e-05
0.434784
2.78724e-05
0.434842
5.58582e-05
0.434891
5.37014e-05
2.53253e-05
0.576418
-0.579558
0.571071
0.563729
0.555101
0.545999
0.537145
0.529139
0.522405
0.517123
0.513252
0.510605
0.508925
0.507948
0.507443
0.507228
0.507175
0.507203
0.507259
0.507313
0.164674
0.0149762
-0.163199
0.165575
0.0199721
0.165776
0.0247565
0.165147
0.0292458
0.163561
0.0333518
0.160925
0.0369879
0.1572
0.0400785
0.152458
0.0425722
0.146964
0.0444492
0.0454261
0.186195
0.0129817
-0.1842
0.187997
0.0181704
0.189514
0.0232395
0.190641
0.0281187
0.191263
0.0327296
0.191262
0.0369891
0.190524
0.0408162
0.188952
0.0441445
0.186439
0.0469618
0.0489173
0.209362
0.0108566
-0.207237
0.211618
0.0159146
0.213951
0.020906
0.216288
0.0257817
0.21853
0.0304878
0.220553
0.0349666
0.222212
0.0391571
0.223362
0.0429946
0.223895
0.0464287
0.0491234
0.235575
0.00888588
-0.233605
0.237878
0.0136115
0.240492
0.0182929
0.243379
0.0228945
0.246488
0.0273785
0.249751
0.0317034
0.253083
0.0358248
0.256383
0.0396954
0.259539
0.0432726
0.0463569
0.265865
0.00712194
-0.264101
0.268101
0.0113761
0.270801
0.0155922
0.273954
0.0197416
0.277538
0.023795
0.281518
0.0277228
0.285848
0.0314949
0.290463
0.0350805
0.295288
0.0384474
0.0414877
0.301076
0.00553824
-0.299492
0.303249
0.00920261
0.306008
0.0128333
0.309344
0.0164063
0.313241
0.0198973
0.317681
0.0232828
0.322637
0.0265392
0.328074
0.0296437
0.333949
0.0325719
0.0352685
0.342232
0.00409599
-0.340789
0.344382
0.00705198
0.347235
0.00998017
0.350781
0.0128606
0.355005
0.0156736
0.359888
0.0183999
0.365406
0.0210208
0.371531
0.0235184
0.378228
0.0258748
0.0280608
0.390765
0.00274117
-0.38941
0.392955
0.00486183
0.395973
0.00696234
0.399806
0.00902787
0.404436
0.0110438
0.40984
0.0129958
0.415991
0.0148701
0.422855
0.0166537
0.430396
0.0183338
0.0198954
0.448589
0.00140409
-0.447252
0.450903
0.00254752
0.454185
0.00368017
0.458419
0.00479365
0.463583
0.00587965
0.469649
0.0069301
0.476582
0.00793722
0.484342
0.00889362
0.492883
0.00979238
0.0106267
0.518477
-0.517073
0.521024
0.524704
0.529498
0.535378
0.542308
0.550245
0.559139
0.568931
0.139227
-0.0325748
-0.136824
0.142024
-0.029137
0.144956
-0.0249749
0.147927
-0.020474
0.150857
-0.0157122
0.153713
-0.010785
0.156445
-0.00572684
0.15899
-0.000573215
0.161271
0.00462855
0.00982473
0.165948
-0.0342021
-0.164321
0.167711
-0.0308995
0.169559
-0.0268227
0.171505
-0.0224205
0.17353
-0.0177367
0.175618
-0.0128729
0.177758
-0.00786728
0.179928
-0.00274312
0.182092
0.00246518
0.00771587
0.196443
-0.0345842
-0.196061
0.196998
-0.0314542
0.197653
-0.0274776
0.198445
-0.0232123
0.199417
-0.0187089
0.200581
-0.0140372
0.201945
-0.00923079
0.203512
-0.00431039
0.20528
0.000697202
0.00575915
0.230605
-0.0336254
-0.231563
0.229811
-0.0306609
0.229238
-0.0269044
0.228913
-0.0228871
0.22888
-0.0186764
0.22916
-0.0143174
0.229764
-0.00983402
0.230701
-0.00524722
0.23198
-0.000581839
0.00413403
0.2685
-0.0313115
-0.270814
0.266385
-0.0285458
0.264618
-0.0251378
0.263235
-0.0215042
0.262266
-0.0177074
0.261729
-0.0137796
0.261633
-0.00973889
0.261991
-0.00560526
0.262812
-0.00140229
0.00284451
0.310832
-0.0276482
-0.314496
0.307469
-0.0251827
0.304574
-0.0222423
0.302187
-0.0191171
0.300331
-0.0158519
0.299023
-0.0124709
0.298274
-0.00899029
0.298097
-0.00542833
0.298501
-0.00180628
0.0018533
0.358738
-0.0226576
-0.363728
0.35418
-0.0206256
0.350204
-0.0182655
0.346848
-0.0157612
0.344137
-0.0131407
0.342088
-0.010422
0.340717
-0.00761937
0.340037
-0.0047489
0.340059
-0.00182835
0.0011235
0.413686
-0.0163749
-0.419968
0.40797
-0.0149102
0.402942
-0.0132371
0.398641
-0.0114605
0.395097
-0.00959634
0.392332
-0.007657
0.390367
-0.00565398
0.389217
-0.0035996
0.388896
-0.00150721
0.000609165
0.477682
-0.00882314
-0.485234
0.470816
-0.00804415
0.464738
-0.00715911
0.459494
-0.00621641
0.455121
-0.00522337
0.45165
-0.00418676
0.44911
-0.00311329
0.44752
-0.00201003
0.446897
-0.00088459
0.000255101
0.553655
-0.562478
0.545611
0.538452
0.532236
0.527012
0.522825
0.519712
0.517702
0.516817
0.126761
0.00201212
-0.0019152
0.126494
0.00585571
-0.00558849
0.12604
0.0100037
-0.00954928
0.12536
0.0149316
-0.0142516
0.124435
0.0210009
-0.0200756
0.123335
0.0286486
-0.0275487
0.122431
0.0378765
-0.0369731
0.122005
0.0524848
-0.0520584