/*--------------------------------*- C++ -*----------------------------------*\
  =========                 |
  \\      /  F ield         | OpenFOAM: The Open Source CFD Toolbox
   \\    /   O peration     | Website:  https://openfoam.org
    \\  /    A nd           | Version:  6.0
     \\/     M anipulation  |
\*---------------------------------------------------------------------------*/
FoamFile
{
    version     2.0;
    format      ascii;
    class       volVectorField;
    location    "1.75";
    object      U;
}
// * * * * * * * * * * * * * * * * * * * * * * * * * * * * * * * * * * * * * //

dimensions      [0 1 -1 0 0 0 0];

internalField   nonuniform List<vector> 
2400
(
(0.0173762 -0.440666 -1.30745e-20)
(0.00457796 -0.359602 5.82901e-21)
(-0.00411926 -0.303629 -6.40652e-21)
(-0.00838144 -0.265723 -4.13335e-21)
(-0.00798258 -0.240354 -6.92777e-21)
(-0.00303995 -0.223286 9.64013e-21)
(0.00590214 -0.211354 3.76973e-21)
(0.0181414 -0.202237 3.33966e-21)
(0.0328945 -0.19425 -7.6915e-21)
(0.0488337 -0.186237 -5.78624e-22)
(0.0516446 -0.433477 1.47127e-20)
(0.0337175 -0.351607 -1.45968e-21)
(0.0233866 -0.298002 3.25749e-21)
(0.0196435 -0.264121 3.89078e-20)
(0.0218864 -0.243577 -2.94186e-20)
(0.029448 -0.231579 -1.43422e-21)
(0.0413973 -0.22458 -4.04439e-22)
(0.056788 -0.219933 -3.97077e-21)
(0.0747128 -0.215637 -6.22181e-21)
(0.0935284 -0.210293 -1.72174e-21)
(0.0852138 -0.424586 2.78476e-20)
(0.0628276 -0.343581 2.78834e-20)
(0.0523749 -0.293243 -7.9973e-20)
(0.0510268 -0.263787 2.61379e-20)
(0.0571345 -0.248134 4.22343e-20)
(0.0693742 -0.24107 -2.42549e-20)
(0.0863635 -0.238765 -2.0829e-20)
(0.106877 -0.238309 1.81491e-20)
(0.129869 -0.237397 -3.99553e-20)
(0.15326 -0.234405 4.24265e-20)
(0.118188 -0.414325 -9.74819e-20)
(0.0923564 -0.336127 4.83517e-20)
(0.0834024 -0.289978 -4.81086e-20)
(0.0862905 -0.26524 2.41739e-20)
(0.0981393 -0.254376 -2.73426e-20)
(0.116877 -0.251914 4.28e-20)
(0.140616 -0.253873 2.10189e-20)
(0.16783 -0.257171 -6.87117e-20)
(0.197329 -0.259218 -6.31142e-20)
(0.226493 -0.258199 7.36061e-20)
(0.150718 -0.402924 3.65689e-21)
(0.122895 -0.329603 -1.9171e-20)
(0.117218 -0.288514 -9.02977e-21)
(0.126159 -0.268636 -1.06325e-20)
(0.14546 -0.262249 -6.99449e-20)
(0.172233 -0.263823 1.06064e-20)
(0.20405 -0.269389 -7.55023e-21)
(0.239072 -0.275812 7.52186e-20)
(0.275985 -0.28027 -5.26448e-20)
(0.311558 -0.280811 -3.58077e-20)
(0.183007 -0.390522 9.68031e-20)
(0.155141 -0.324115 -1.00271e-20)
(0.154711 -0.288815 1.48718e-19)
(0.171501 -0.273729 -1.95089e-20)
(0.199789 -0.271261 9.12763e-20)
(0.235823 -0.276031 -1.10377e-20)
(0.276621 -0.284267 1.35658e-22)
(0.320038 -0.292949 6.35517e-20)
(0.364692 -0.29912 -3.56937e-20)
(0.406737 -0.300798 6.23111e-20)
(0.21529 -0.377161 -3.67489e-20)
(0.189854 -0.319525 1.27716e-20)
(0.196828 -0.290507 -3.79343e-20)
(0.223234 -0.279893 -4.7792e-20)
(0.261846 -0.280508 -4.22146e-21)
(0.308039 -0.287332 1.55933e-19)
(0.358272 -0.296991 -5.55913e-20)
(0.410124 -0.306787 2.45686e-20)
(0.462252 -0.313803 -9.19348e-20)
(0.510313 -0.316189 -5.41236e-20)
(0.24782 -0.362799 1.78567e-19)
(0.227786 -0.315456 -2.07598e-20)
(0.244477 -0.292905 -2.10934e-19)
(0.282189 -0.286156 1.17907e-20)
(0.332225 -0.288745 5.11257e-20)
(0.389102 -0.296184 -7.51244e-20)
(0.448741 -0.305672 -1.01145e-19)
(0.508483 -0.315065 1.51709e-19)
(0.567216 -0.321732 -1.29804e-20)
(0.620454 -0.324277 -1.33835e-19)
(0.280872 -0.34732 -1.5011e-19)
(0.269623 -0.311317 8.84432e-20)
(0.298402 -0.295053 1.40133e-19)
(0.348969 -0.291302 3.79687e-20)
(0.411252 -0.294545 -1.48405e-19)
(0.478962 -0.30092 9.81934e-20)
(0.547492 -0.308242 6.00952e-20)
(0.613911 -0.31499 1.26671e-19)
(0.677466 -0.319036 -7.87982e-20)
(0.734365 -0.320398 -1.11408e-19)
(0.314703 -0.330484 5.10249e-20)
(0.315869 -0.306289 -2.11503e-20)
(0.359028 -0.295792 -8.7036e-22)
(0.423775 -0.294031 4.32428e-20)
(0.498898 -0.29664 3.67592e-20)
(0.577506 -0.300401 -2.6057e-20)
(0.654645 -0.303564 -5.15714e-20)
(0.72704 -0.304891 8.2708e-20)
(0.79357 -0.302874 -6.93699e-20)
(0.851391 -0.300355 6.45733e-20)
(0.643799 -0.0112564 4.04444e-21)
(0.619432 -0.0591533 1.20013e-20)
(0.59115 -0.103412 -3.98514e-20)
(0.559853 -0.143832 3.56686e-20)
(0.526377 -0.180359 1.33314e-20)
(0.491492 -0.213084 1.71711e-19)
(0.455871 -0.242225 -6.56225e-20)
(0.420053 -0.268097 -9.03545e-20)
(0.38447 -0.29111 9.49423e-20)
(0.349385 -0.311753 -1.64212e-19)
(0.886307 0.00933481 1.43187e-20)
(0.840199 -0.0529863 -5.10249e-21)
(0.787002 -0.108554 -4.09929e-20)
(0.728631 -0.15672 1.06783e-19)
(0.666989 -0.197212 -3.64995e-20)
(0.603908 -0.23013 2.7795e-19)
(0.541043 -0.255922 -1.72123e-19)
(0.479837 -0.275342 2.49519e-19)
(0.421419 -0.2894 -1.71614e-19)
(0.366619 -0.299312 -8.82568e-20)
(1.08186 0.0483351 -2.84589e-20)
(1.02908 -0.0233855 4.35275e-21)
(0.965973 -0.0878697 -1.27566e-19)
(0.894741 -0.143893 9.81868e-20)
(0.817763 -0.190695 -1.02845e-19)
(0.73746 -0.228003 -1.9426e-19)
(0.656178 -0.256046 -6.41001e-20)
(0.576036 -0.275526 -5.50979e-20)
(0.498873 -0.287601 1.73999e-19)
(0.426165 -0.293796 9.06438e-20)
(1.23016 0.0856628 1.29241e-20)
(1.17969 0.00919554 -2.29259e-20)
(1.11626 -0.0609198 -3.22195e-20)
(1.04192 -0.122987 -1.27033e-19)
(0.959014 -0.175737 7.49643e-20)
(0.870134 -0.218401 2.19924e-19)
(0.777936 -0.250766 9.43436e-20)
(0.684987 -0.273221 1.84845e-20)
(0.593636 -0.286778 5.10787e-20)
(0.505935 -0.29304 -1.56051e-21)
(1.33576 0.115036 -1.4979e-20)
(1.29252 0.0375429 -6.04008e-20)
(1.23466 -0.0350901 7.10097e-21)
(1.16373 -0.100879 1.08279e-19)
(1.08174 -0.158154 1.13771e-19)
(0.99106 -0.205668 -7.62749e-20)
(0.894326 -0.242702 -1.42057e-19)
(0.794214 -0.269186 -6.99652e-20)
(0.693299 -0.285815 8.16126e-20)
(0.593982 -0.294138 1.12878e-19)
(1.40564 0.135742 3.22778e-21)
(1.37177 0.0598879 5.10742e-20)
(1.32262 -0.0127495 -1.21523e-19)
(1.2591 -0.080085 1.52715e-19)
(1.18268 -0.140205 9.1896e-20)
(1.09528 -0.191478 1.70645e-19)
(0.999198 -0.232697 -3.6506e-20)
(0.896915 -0.263268 -9.9791e-20)
(0.79086 -0.28345 2.36036e-19)
(0.683302 -0.294664 -1.9348e-19)
(1.44733 0.148508 7.59036e-21)
(1.42309 0.0759731 -6.01352e-20)
(1.38375 0.00513211 -3.88932e-20)
(1.32964 -0.0619863 -8.40612e-20)
(1.26159 -0.12338 -1.21258e-20)
(1.18094 -0.177161 -1.25313e-19)
(1.0895 -0.221693 -7.90817e-20)
(0.989247 -0.255819 -1.58874e-20)
(0.882122 -0.279254 -1.45929e-19)
(0.769425 -0.29321 2.06643e-19)
(1.46777 0.154757 -6.59201e-21)
(1.45229 0.0863912 4.98741e-20)
(1.42252 0.018456 -2.33221e-20)
(1.37831 -0.0471908 5.06964e-20)
(1.31993 -0.108595 1.26596e-19)
(1.24814 -0.163745 2.10658e-19)
(1.16414 -0.210647 -5.96147e-20)
(1.06939 -0.247523 -2.09613e-19)
(0.96497 -0.273276 5.831e-20)
(0.850027 -0.288634 -3.35888e-19)
(1.47268 0.156244 9.51371e-21)
(1.4645 0.0922046 -1.16192e-20)
(1.44326 0.0276084 -1.20175e-19)
(1.40843 -0.035929 3.71279e-20)
(1.35984 -0.0966116 -8.83759e-20)
(1.29775 -0.152431 -3.78848e-20)
(1.22288 -0.201144 -2.87938e-20)
(1.13622 -0.240263 8.95304e-20)
(1.0382 -0.267246 9.87775e-20)
(0.924594 -0.280831 6.4748e-20)
(1.46631 0.154458 -2.30818e-20)
(1.46384 0.0948575 4.18971e-20)
(1.44971 0.0338513 2.01798e-20)
(1.42316 -0.0272386 6.08437e-20)
(1.3837 -0.0868642 -6.95315e-21)
(1.3312 -0.143163 -4.36185e-21)
(1.26603 -0.193833 -1.60175e-19)
(1.18906 -0.235854 2.09829e-19)
(1.10107 -0.264964 -1.31362e-19)
(0.993951 -0.275067 3.04153e-20)
(0.530564 0.490737 -4.17219e-20)
(0.572527 0.453985 5.02465e-20)
(0.608708 0.411565 1.9745e-21)
(0.638375 0.364333 -1.40591e-19)
(0.660924 0.313276 1.06118e-19)
(0.676 0.259504 -8.19589e-20)
(0.683495 0.204178 -2.05162e-20)
(0.683555 0.148447 -2.01637e-20)
(0.676571 0.0933852 3.34565e-20)
(0.663142 0.0399226 2.35294e-21)
(0.733343 0.646941 5.98174e-20)
(0.797332 0.609853 1.74084e-20)
(0.853184 0.562345 -9.47513e-20)
(0.899294 0.505762 -1.23363e-19)
(0.934296 0.441704 9.8601e-20)
(0.957196 0.372008 -9.15799e-20)
(0.967431 0.298678 1.12723e-19)
(0.964895 0.223786 -2.87523e-20)
(0.949956 0.149375 -1.01927e-19)
(0.923423 0.0773384 -7.85445e-21)
(0.85917 0.710516 -3.27054e-21)
(0.935081 0.680071 4.91505e-21)
(1.00308 0.637061 6.59856e-20)
(1.06104 0.582763 6.76036e-20)
(1.1071 0.518754 1.58791e-19)
(1.13976 0.446912 5.93041e-20)
(1.15794 0.36936 -3.85985e-20)
(1.16105 0.28839 -9.0025e-20)
(1.14903 0.206369 7.46762e-20)
(1.12235 0.125623 5.34513e-21)
(0.935361 0.71717 1.42157e-20)
(1.01648 0.694589 -3.6371e-20)
(1.09095 0.659008 -2.00913e-20)
(1.15641 0.611424 -1.25218e-19)
(1.21074 0.553129 -8.10381e-20)
(1.25215 0.485743 1.55097e-19)
(1.27917 0.41117 1.1017e-19)
(1.29079 0.331546 -9.29449e-20)
(1.28645 0.249175 4.41931e-21)
(1.26611 0.166433 -4.38286e-21)
(0.980357 0.691882 -3.24237e-20)
(1.06234 0.676123 7.14571e-20)
(1.13916 0.647961 -1.88553e-20)
(1.2084 0.608028 6.67959e-20)
(1.2679 0.557272 -4.69636e-20)
(1.31574 0.496966 -9.3766e-20)
(1.35032 0.428678 5.08778e-20)
(1.37034 0.354233 -5.38038e-20)
(1.37486 0.275673 -5.57806e-20)
(1.36337 0.195188 2.49499e-20)
(1.0067 0.65094 -6.86227e-21)
(1.08703 0.640375 1.24584e-20)
(1.16345 0.618551 -1.05837e-20)
(1.23357 0.585707 -1.23096e-19)
(1.29534 0.542451 7.27981e-20)
(1.34699 0.489741 1.56588e-20)
(1.38692 0.428811 -8.53798e-20)
(1.41375 0.361147 -3.21316e-20)
(1.42632 0.288461 3.11636e-20)
(1.4238 0.212653 -9.13059e-21)
(1.02251 0.604219 3.17313e-21)
(1.10013 0.597345 5.21861e-21)
(1.1745 0.580594 1.69291e-20)
(1.24336 0.553731 6.84658e-20)
(1.30503 0.517088 1.83552e-20)
(1.35803 0.471395 4.80632e-20)
(1.40095 0.417621 1.05672e-19)
(1.43246 0.35696 -4.50732e-20)
(1.45135 0.29081 4.36656e-20)
(1.45659 0.220752 -1.67938e-20)
(1.03287 0.557357 -7.83852e-21)
(1.10755 0.553378 1.27751e-20)
(1.17885 0.540706 1.19891e-20)
(1.24489 0.518614 -3.60625e-20)
(1.30464 0.487366 -2.48745e-20)
(1.35704 0.447589 -5.11746e-20)
(1.40089 0.400088 8.0597e-21)
(1.43502 0.345842 -1.2104e-20)
(1.45825 0.285989 -9.22061e-20)
(1.4695 0.22182 1.3168e-20)
(1.04151 0.514072 -6.40691e-23)
(1.11267 0.512832 -1.71964e-21)
(1.17979 0.503389 -1.19691e-20)
(1.24181 0.484839 7.66282e-21)
(1.29839 0.457648 -2.75306e-21)
(1.34881 0.422502 4.52712e-20)
(1.3921 0.380117 2.12146e-20)
(1.42721 0.331313 3.47733e-20)
(1.45305 0.27702 4.38036e-20)
(1.46855 0.218281 -1.91423e-20)
(1.05403 0.475482 6.54083e-21)
(1.11992 0.474928 7.54469e-21)
(1.18105 0.467281 -3.83471e-20)
(1.23758 0.451122 -4.34949e-21)
(1.28978 0.427053 6.28995e-20)
(1.33705 0.395782 3.02121e-21)
(1.37847 0.35791 4.19363e-20)
(1.4131 0.314078 -9.48954e-20)
(1.43995 0.26501 -1.23222e-21)
(1.45802 0.211508 1.01678e-20)
(0.598119 0.111798 -8.44768e-21)
(0.557367 0.122578 2.93382e-21)
(0.510562 0.136375 1.01976e-21)
(0.456942 0.154708 -1.60006e-20)
(0.395553 0.179753 7.17862e-21)
(0.325887 0.214246 2.12716e-20)
(0.248415 0.261041 -2.0062e-20)
(0.165527 0.321941 -5.26055e-21)
(0.0857295 0.39525 -6.25131e-21)
(0.0316465 0.471307 -2.32452e-20)
(0.615103 0.169514 -2.32869e-20)
(0.575911 0.185282 4.94706e-20)
(0.530733 0.204549 -4.57753e-20)
(0.47911 0.228572 -7.89451e-21)
(0.420188 0.259046 1.33244e-20)
(0.353521 0.297714 -1.55964e-20)
(0.279589 0.345628 -4.43511e-20)
(0.200599 0.401574 5.16929e-20)
(0.124402 0.458934 -8.65393e-23)
(0.0720463 0.500133 2.397e-20)
(0.639899 0.224738 -7.89991e-20)
(0.603011 0.245292 8.46054e-20)
(0.560174 0.269833 2.95426e-20)
(0.511322 0.299303 1.64484e-21)
(0.455649 0.334911 1.96934e-20)
(0.392635 0.377412 7.6553e-21)
(0.322532 0.426067 -1.28451e-20)
(0.246946 0.47671 -2.92774e-20)
(0.172321 0.51799 -2.10318e-20)
(0.11674 0.524908 3.28482e-20)
(0.672172 0.276435 -6.64973e-20)
(0.638254 0.301461 6.28705e-20)
(0.598419 0.330954 5.10064e-20)
(0.553058 0.365465 -3.46492e-20)
(0.50135 0.405719 -1.30755e-19)
(0.44257 0.451501 4.3008e-20)
(0.376509 0.500341 -3.0938e-20)
(0.303776 0.545266 8.54229e-20)
(0.228722 0.570572 7.75044e-20)
(0.165197 0.544662 -6.8082e-20)
(0.711431 0.323664 -4.82786e-20)
(0.681042 0.352744 2.22661e-20)
(0.64479 0.386737 -6.23847e-20)
(0.603558 0.425725 4.9266e-20)
(0.556433 0.469947 -2.52909e-20)
(0.502353 0.518262 -2.11766e-20)
(0.440429 0.56656 -2.09994e-20)
(0.369918 0.605306 -5.54501e-21)
(0.29248 0.614972 -3.32561e-20)
(0.216673 0.558525 -2.04454e-20)
(0.757016 0.36561 1.24345e-19)
(0.730586 0.398229 2.54518e-20)
(0.6984 0.436143 -8.82606e-20)
(0.661828 0.478878 8.43237e-20)
(0.619775 0.526214 3.82922e-20)
(0.570713 0.576132 6.63937e-20)
(0.512873 0.623024 -4.14161e-21)
(0.443853 0.655098 4.46279e-20)
(0.362147 0.6497 9.05793e-21)
(0.27025 0.56578 4.70496e-20)
(0.80806 0.401616 -1.40503e-19)
(0.785876 0.437161 1.67017e-19)
(0.758134 0.478279 -8.24717e-20)
(0.726642 0.523871 -4.52124e-20)
(0.690005 0.573301 2.15121e-21)
(0.646106 0.623744 -7.0012e-20)
(0.592119 0.668254 4.68891e-20)
(0.523751 0.69318 6.47696e-20)
(0.436011 0.673537 7.83773e-21)
(0.32487 0.565877 -3.82807e-20)
(0.863445 0.431298 -9.02461e-21)
(0.845652 0.468983 -6.77577e-20)
(0.822638 0.512402 2.91296e-20)
(0.796548 0.559798 -1.08946e-20)
(0.765526 0.610166 -2.4064e-20)
(0.726744 0.659941 1.82751e-20)
(0.676196 0.701047 -9.58625e-21)
(0.607537 0.718396 3.15678e-21)
(0.512142 0.685575 -2.48336e-20)
(0.379387 0.558475 -1.31644e-21)
(0.92173 0.454654 2.78947e-20)
(0.908354 0.493461 9.86378e-21)
(0.890384 0.538011 -5.66654e-20)
(0.869976 0.585958 5.39267e-20)
(0.844599 0.635973 -3.64028e-20)
(0.810676 0.68382 8.07829e-21)
(0.762944 0.720492 1.01201e-20)
(0.69295 0.72994 -4.27012e-21)
(0.588494 0.685267 -2.38496e-22)
(0.432618 0.543456 4.1367e-21)
(0.979902 0.46927 -4.87736e-20)
(0.970705 0.508352 3.63686e-20)
(0.958895 0.553403 -2.33601e-20)
(0.944853 0.601147 -1.44199e-21)
(0.925191 0.649816 6.87022e-21)
(0.895753 0.694631 3.40143e-21)
(0.850064 0.72597 -2.43564e-21)
(0.777638 0.727363 1.3913e-20)
(0.662974 0.6724 2.44535e-20)
(0.48343 0.520902 7.34857e-21)
(0.830849 -0.376 1.22453e-19)
(0.806154 -0.401772 -7.51381e-20)
(0.773547 -0.426294 2.81227e-20)
(0.731757 -0.443805 -6.47212e-20)
(0.675243 -0.448745 -4.05701e-20)
(0.596974 -0.432267 -6.31649e-20)
(0.487969 -0.381563 -7.65746e-20)
(0.33695 -0.279824 -3.53349e-20)
(0.130666 -0.106065 -4.9251e-20)
(-0.147529 0.164891 2.56735e-20)
(0.783358 -0.347574 -7.48394e-20)
(0.756713 -0.37218 -6.0654e-20)
(0.721335 -0.39582 1.05881e-19)
(0.677193 -0.41343 5.26909e-20)
(0.619825 -0.419454 7.67394e-20)
(0.543005 -0.40504 -1.28372e-19)
(0.438857 -0.357191 4.27686e-20)
(0.297637 -0.258473 8.82278e-20)
(0.108558 -0.0864677 6.18828e-20)
(-0.140396 0.186831 -6.66924e-20)
(0.737855 -0.311825 3.69441e-20)
(0.70868 -0.33465 -1.48733e-20)
(0.671026 -0.356809 1.5493e-19)
(0.624779 -0.3737 -9.194e-20)
(0.566309 -0.379857 -7.62028e-20)
(0.490342 -0.366638 4.26254e-20)
(0.390268 -0.321215 -2.33494e-22)
(0.258122 -0.22609 -1.88303e-19)
(0.0859894 -0.0583073 -6.28499e-21)
(-0.132857 0.21156 5.93319e-20)
(0.696897 -0.2712 2.44497e-19)
(0.664926 -0.29138 -1.13816e-19)
(0.624904 -0.310952 3.92191e-20)
(0.576481 -0.325877 -6.52495e-20)
(0.516646 -0.330929 1.68633e-19)
(0.441052 -0.317817 -9.7514e-21)
(0.344391 -0.27418 -3.16638e-20)
(0.220581 -0.182982 2.81229e-21)
(0.0647728 -0.0216401 1.626e-20)
(-0.124072 0.239097 -8.18945e-20)
(0.661457 -0.225679 -2.14075e-19)
(0.626729 -0.242569 -1.81508e-21)
(0.584383 -0.258733 8.67778e-20)
(0.533836 -0.27068 -4.79987e-21)
(0.472565 -0.273521 -9.24624e-21)
(0.397084 -0.259473 1.13297e-19)
(0.303338 -0.216916 -2.07661e-20)
(0.187134 -0.129821 2.76598e-20)
(0.0467264 0.0230765 5.69087e-21)
(-0.113226 0.269247 1.09977e-19)
(0.632304 -0.175673 7.89287e-21)
(0.595089 -0.188755 -1.26605e-19)
(0.550652 -0.200865 1.1447e-19)
(0.498205 -0.208994 -9.83862e-21)
(0.435629 -0.20866 2.0036e-20)
(0.360206 -0.192715 -9.72328e-20)
(0.269061 -0.150557 -1.45877e-20)
(0.159775 -0.067649 -6.40652e-21)
(0.0335569 0.0750414 -5.1151e-20)
(-0.099532 0.301607 -2.42594e-20)
(0.610074 -0.121906 1.12746e-19)
(0.570814 -0.130734 -1.07937e-19)
(0.524683 -0.138259 -5.05761e-21)
(0.470728 -0.14188 -1.27803e-19)
(0.407167 -0.137553 7.01385e-20)
(0.331957 -0.11888 -4.45206e-20)
(0.243266 -0.0764997 3.70853e-20)
(0.140275 0.00217091 -7.08565e-20)
(0.0268108 0.133118 -6.76379e-20)
(-0.0822924 0.335599 -4.92562e-20)
(0.59526 -0.0652537 7.14307e-20)
(0.554534 -0.0694624 -7.29741e-20)
(0.507235 -0.0719868 3.23658e-20)
(0.45231 -0.0705551 2.28179e-20)
(0.388256 -0.061581 -4.23832e-20)
(0.313595 -0.0395018 7.26998e-20)
(0.22738 0.00360541 4.43153e-20)
(0.13012 0.0779995 -1.34951e-19)
(0.0277912 0.195902 2.29411e-20)
(-0.060921 0.370478 5.87955e-20)
(0.58821 -0.00670214 7.67161e-20)
(0.546706 -0.00602828 -1.17253e-20)
(0.498863 -0.00325187 -6.59011e-21)
(0.443622 0.00362634 -4.46472e-22)
(0.379706 0.017727 2.85227e-20)
(0.306085 0.0437117 -8.48678e-20)
(0.222503 0.0879134 7.05374e-20)
(0.130474 0.157957 5.47209e-21)
(0.0375198 0.261754 -2.60009e-21)
(-0.0349817 0.405387 4.42505e-20)
(0.589137 0.0526834 -2.24783e-20)
(0.547613 0.0583921 -2.35086e-21)
(0.499923 0.0666493 6.24815e-21)
(0.445101 0.0792133 7.04145e-21)
(0.382053 0.0987345 1.76568e-20)
(0.310076 0.128926 -1.28659e-20)
(0.229388 0.174419 -7.45907e-21)
(0.142139 0.239991 -1.1783e-20)
(0.0567111 0.328854 1.10432e-20)
(-0.00418554 0.439368 -7.98016e-21)
(0.897149 -0.401489 1.17173e-19)
(0.954176 -0.417559 -4.06996e-20)
(1.00694 -0.427719 9.31547e-21)
(1.05585 -0.430049 3.70204e-20)
(1.10126 -0.424823 1.68737e-20)
(1.14241 -0.41254 1.46764e-21)
(1.1781 -0.393525 -3.26919e-21)
(1.20699 -0.368137 -4.00052e-21)
(1.22761 -0.33686 -3.57878e-21)
(1.23841 -0.300352 2.06692e-21)
(0.865603 -0.424598 5.19779e-20)
(0.92512 -0.440274 4.02697e-20)
(0.981283 -0.449012 3.28094e-20)
(1.03296 -0.449475 -1.08055e-20)
(1.07967 -0.441762 -5.14635e-21)
(1.12053 -0.426316 1.76829e-21)
(1.1543 -0.403604 -3.255e-21)
(1.17955 -0.374219 1.96118e-20)
(1.1948 -0.338939 3.5314e-21)
(1.19854 -0.298762 -3.50859e-21)
(0.831943 -0.447211 -1.53675e-19)
(0.891648 -0.460502 1.32296e-20)
(0.948622 -0.466194 -6.5619e-20)
(1.00071 -0.463419 -6.57516e-21)
(1.04666 -0.452135 1.81457e-20)
(1.08522 -0.432752 -2.93214e-21)
(1.11501 -0.405886 -8.49322e-21)
(1.13455 -0.372377 1.93615e-21)
(1.14241 -0.333308 -1.45756e-20)
(1.13732 -0.290025 2.44496e-21)
(0.789617 -0.463672 -4.21263e-20)
(0.848016 -0.474438 -5.40678e-20)
(0.903579 -0.476487 -5.02234e-21)
(0.953752 -0.469544 -1.29743e-20)
(0.996707 -0.453772 -7.40874e-21)
(1.03082 -0.42974 -6.41262e-22)
(1.05455 -0.398312 8.79057e-21)
(1.06646 -0.360633 5.82339e-21)
(1.06534 -0.31813 1.61949e-20)
(1.05025 -0.272501 -2.82854e-21)
(0.731907 -0.466912 -8.33985e-20)
(0.787708 -0.474714 8.25269e-20)
(0.83982 -0.472708 2.94349e-21)
(0.885686 -0.461161 -1.99898e-22)
(0.923187 -0.440605 6.19295e-21)
(0.950529 -0.411931 -8.50164e-21)
(0.966173 -0.376345 -2.69301e-20)
(0.968873 -0.335352 2.61255e-20)
(0.957749 -0.29073 -3.41063e-21)
(0.932396 -0.244484 -1.11298e-21)
(0.650647 -0.447809 1.16955e-19)
(0.701923 -0.452187 -6.30052e-20)
(0.748294 -0.446109 -1.66792e-20)
(0.787347 -0.430288 -4.71139e-21)
(0.816993 -0.405676 3.62411e-22)
(0.835517 -0.373553 -1.12828e-20)
(0.841592 -0.335504 -2.02817e-20)
(0.834331 -0.293378 -4.5447e-21)
(0.813355 -0.249237 5.50634e-21)
(0.778866 -0.205272 5.24905e-21)
(0.535546 -0.394104 1.78673e-20)
(0.579391 -0.395364 8.65356e-21)
(0.617265 -0.386268 5.70214e-22)
(0.647008 -0.367891 1.33154e-21)
(0.666795 -0.341577 -8.95211e-22)
(0.675225 -0.308965 -9.29144e-21)
(0.671377 -0.271942 1.78309e-20)
(0.654868 -0.232583 5.37884e-21)
(0.625889 -0.193069 6.40807e-21)
(0.585232 -0.15557 -4.08585e-21)
(0.373897 -0.290185 5.35659e-20)
(0.406431 -0.290242 2.89806e-20)
(0.432635 -0.281115 -4.90239e-20)
(0.450771 -0.264139 -7.74994e-21)
(0.459458 -0.240897 1.09381e-20)
(0.45778 -0.213204 -2.06239e-22)
(0.445334 -0.183035 -2.11567e-20)
(0.422263 -0.152439 2.75133e-20)
(0.389257 -0.123437 -9.16638e-22)
(0.347525 -0.0979076 8.54508e-21)
(0.150474 -0.117354 -1.03616e-20)
(0.166463 -0.120995 -5.75805e-20)
(0.17727 -0.118139 3.30188e-20)
(0.181743 -0.110093 1.99584e-22)
(0.17909 -0.0983273 -8.534e-21)
(0.168935 -0.0844413 3.25311e-21)
(0.151343 -0.0700867 -1.9858e-20)
(0.126819 -0.0568772 5.72403e-21)
(0.0962763 -0.0462991 9.63393e-23)
(0.060968 -0.0396338 -4.28451e-21)
(-0.155123 0.145449 -7.86343e-21)
(-0.163473 0.128447 3.12541e-20)
(-0.173176 0.113206 -1.15438e-20)
(-0.184587 0.099071 -1.86259e-21)
(-0.197864 0.0853696 -2.93346e-21)
(-0.212956 0.0714158 1.51595e-20)
(-0.229612 0.0565463 2.96232e-21)
(-0.247392 0.0401651 9.68016e-21)
(-0.265706 0.0217814 -4.49185e-21)
(-0.283866 0.00102208 -1.39046e-21)
(1.23784 -0.259479 2.49678e-21)
(1.2245 -0.215428 -1.16315e-20)
(1.1973 -0.169737 6.10617e-20)
(1.15566 -0.124352 -4.27322e-20)
(1.09982 -0.0816601 4.55528e-21)
(1.03078 -0.0444609 -4.02996e-20)
(0.950435 -0.0158946 1.98952e-19)
(0.861078 0.00058086 1.06781e-20)
(0.762042 0.000790943 -5.69027e-20)
(0.640166 -0.0155599 1.25318e-19)
(1.18938 -0.254935 8.60341e-21)
(1.16626 -0.209047 -2.39802e-20)
(1.12859 -0.163004 -2.30136e-20)
(1.07643 -0.119027 -1.66028e-20)
(1.01065 -0.0795931 -4.60336e-20)
(0.932906 -0.0473288 -1.8135e-21)
(0.8453 -0.0248229 -1.31296e-20)
(0.749906 -0.01434 3.74074e-20)
(0.645998 -0.0175255 1.13409e-19)
(0.526975 -0.0302954 -2.40138e-20)
(1.11821 -0.244133 -5.8522e-21)
(1.08454 -0.197559 4.86978e-20)
(1.03635 -0.152455 1.13241e-20)
(0.974406 -0.111144 -3.08636e-21)
(0.900267 -0.0759892 5.03072e-20)
(0.816119 -0.0492014 2.20985e-20)
(0.724415 -0.0325963 4.15863e-20)
(0.627328 -0.027152 -4.19858e-20)
(0.525177 -0.03246 -8.26878e-20)
(0.416185 -0.0435182 -1.88565e-19)
(1.02064 -0.225672 7.22096e-21)
(0.976611 -0.179818 -2.18177e-20)
(0.918938 -0.1372 2.94598e-20)
(0.849101 -0.100066 -6.70164e-20)
(0.769272 -0.070482 -3.81037e-20)
(0.682078 -0.0501178 -1.75636e-20)
(0.590265 -0.0399698 -8.58756e-20)
(0.496164 -0.0400334 -3.8204e-20)
(0.401121 -0.0488539 4.01837e-21)
(0.305889 -0.0620342 5.84098e-20)
(0.892879 -0.198764 3.5851e-21)
(0.840007 -0.155848 1.52704e-22)
(0.775266 -0.117925 1.96983e-20)
(0.700748 -0.0869821 5.84591e-20)
(0.619067 -0.0646285 -1.00179e-20)
(0.533096 -0.0519067 -8.161e-20)
(0.445614 -0.0490858 1.35029e-19)
(0.35907 -0.0554295 -4.00605e-20)
(0.275181 -0.0690062 -2.83492e-20)
(0.195568 -0.0861106 -1.24352e-20)
(0.731579 -0.163693 -9.91934e-21)
(0.672951 -0.126676 9.65775e-21)
(0.60503 -0.0961367 3.06025e-20)
(0.530299 -0.0736277 -2.96292e-20)
(0.451525 -0.0602032 5.61734e-20)
(0.371561 -0.0562717 -6.99825e-21)
(0.293013 -0.0614964 5.46303e-21)
(0.218102 -0.0746684 3.21603e-20)
(0.148533 -0.0936698 2.35279e-20)
(0.0858472 -0.115382 7.19081e-21)
(0.534161 -0.122129 1.51444e-21)
(0.474575 -0.0945924 -1.88876e-21)
(0.408813 -0.074416 4.41431e-20)
(0.339414 -0.0626057 -5.2749e-20)
(0.269008 -0.0596315 -9.54178e-20)
(0.200105 -0.0653581 4.57559e-20)
(0.134922 -0.0790088 -2.38709e-20)
(0.0752643 -0.0991553 2.34408e-20)
(0.0225292 -0.12371 6.44057e-20)
(-0.0221803 -0.150063 -6.87646e-20)
(0.298621 -0.0774818 -1.61892e-21)
(0.244554 -0.0634487 -2.8718e-20)
(0.187578 -0.0566914 3.89103e-20)
(0.129937 -0.0576476 2.25322e-20)
(0.0737959 -0.0662743 -6.95876e-20)
(0.021098 -0.0820583 -5.31095e-20)
(-0.026499 -0.104015 -4.31345e-21)
(-0.0677311 -0.130727 7.32924e-21)
(-0.101643 -0.160364 8.39793e-21)
(-0.127541 -0.190806 -2.69671e-20)
(0.0223344 -0.0378896 2.63939e-21)
(-0.0179502 -0.0416239 3.8967e-20)
(-0.0581526 -0.0511556 1.44008e-20)
(-0.0966747 -0.0664518 -4.9785e-20)
(-0.132089 -0.0871469 4.73026e-20)
(-0.163164 -0.112579 -5.97433e-20)
(-0.188964 -0.141842 7.85747e-20)
(-0.208732 -0.17378 -9.13149e-20)
(-0.221993 -0.207038 -4.7791e-20)
(-0.228398 -0.240106 -1.24761e-19)
(-0.301114 -0.0223909 -6.51504e-22)
(-0.316683 -0.0481756 -1.08123e-20)
(-0.329874 -0.0762981 7.94236e-21)
(-0.340075 -0.106505 9.12677e-21)
(-0.346803 -0.138413 -2.03761e-20)
(-0.349702 -0.171549 1.89219e-20)
(-0.348519 -0.205375 -2.35938e-20)
(-0.343122 -0.239302 1.73132e-20)
(-0.333423 -0.272683 -4.3474e-20)
(-0.319385 -0.304847 4.86141e-20)
(-0.300865 -0.335052 6.74942e-20)
(-0.22779 -0.271471 -5.00064e-20)
(-0.14496 -0.22002 -5.17278e-20)
(-0.0576913 -0.175645 7.02343e-20)
(0.0322607 -0.136421 -6.08634e-21)
(0.123913 -0.101721 8.33076e-20)
(0.215795 -0.0710446 1.0037e-20)
(0.306387 -0.0443061 -7.40162e-20)
(0.395161 -0.022285 1.36687e-19)
(0.479278 -0.00203614 -1.95075e-20)
(-0.278455 -0.362244 -7.00136e-20)
(-0.220536 -0.299741 1.91528e-19)
(-0.153827 -0.24654 -7.6775e-21)
(-0.0831009 -0.199209 -6.32494e-20)
(-0.00969992 -0.156247 5.00445e-20)
(0.0658049 -0.116998 -1.12545e-19)
(0.142451 -0.0808337 1.28471e-19)
(0.219393 -0.0475295 -1.06858e-19)
(0.296653 -0.0180465 1.9321e-20)
(0.370837 0.0077103 8.23247e-20)
(-0.252502 -0.386126 4.00401e-20)
(-0.207246 -0.324083 -1.19101e-19)
(-0.154749 -0.269425 4.17684e-20)
(-0.0988754 -0.220045 -2.27474e-20)
(-0.040407 -0.174789 4.16706e-20)
(0.0205511 -0.133042 -3.00212e-20)
(0.0835218 -0.0943092 -3.00941e-20)
(0.14804 -0.0586128 3.82439e-20)
(0.213887 -0.0270731 -8.84039e-20)
(0.277383 -0.0004673 1.30467e-19)
(-0.223478 -0.40632 -8.26707e-20)
(-0.188803 -0.34389 8.9601e-21)
(-0.148784 -0.288015 4.30548e-20)
(-0.106154 -0.237536 5.59704e-20)
(-0.0611138 -0.191488 -8.57586e-20)
(-0.0133889 -0.149239 7.5565e-21)
(0.0368621 -0.110359 -4.58033e-20)
(0.0893382 -0.0749778 -9.67925e-20)
(0.143642 -0.0441082 1.8223e-19)
(0.196556 -0.0185363 6.56945e-20)
(-0.191962 -0.422558 5.74885e-20)
(-0.16623 -0.358799 1.27408e-20)
(-0.137136 -0.301914 5.07625e-20)
(-0.10619 -0.251215 -6.05057e-21)
(-0.0730471 -0.205695 6.57131e-20)
(-0.0371476 -0.16455 3.13122e-20)
(0.00155691 -0.127234 7.98079e-20)
(0.04285 -0.093731 -7.96469e-20)
(0.0862628 -0.0647152 -7.73092e-21)
(0.129215 -0.0407615 -8.39132e-20)
(-0.158576 -0.434726 3.69052e-20)
(-0.140582 -0.368728 -4.39481e-20)
(-0.121004 -0.311037 -1.0107e-20)
(-0.100186 -0.260906 -1.66818e-20)
(-0.0773265 -0.217018 -1.83396e-20)
(-0.0516791 -0.178228 -2.31937e-20)
(-0.0230808 -0.143707 3.62141e-20)
(0.00828797 -0.113134 -4.72832e-20)
(0.0419354 -0.0867471 4.26662e-20)
(0.0758695 -0.0648339 5.30404e-21)
(-0.123934 -0.442859 -6.39904e-20)
(-0.112851 -0.373889 -3.19715e-20)
(-0.101477 -0.315639 5.52706e-20)
(-0.0891857 -0.266774 -2.03244e-20)
(-0.0748598 -0.225418 2.97796e-20)
(-0.0576752 -0.189931 -8.81481e-20)
(-0.0374392 -0.159084 6.5997e-20)
(-0.014339 -0.132167 -2.42611e-20)
(0.0111183 -0.108974 4.21328e-20)
(0.0373962 -0.0894818 -4.98616e-20)
(-0.0886041 -0.447149 2.93741e-20)
(-0.083902 -0.374771 -1.24497e-20)
(-0.0794603 -0.31629 -1.93228e-20)
(-0.0740138 -0.269323 -7.59686e-21)
(-0.0663136 -0.231223 4.36846e-21)
(-0.0555757 -0.199744 1.248e-20)
(-0.0416618 -0.173183 -2.9242e-20)
(-0.0248133 -0.15041 1.74822e-20)
(-0.00556869 -0.130802 5.1199e-20)
(0.0148284 -0.11403 -4.82949e-20)
(-0.0530696 -0.447933 2.1764e-20)
(-0.0544159 -0.372096 4.1144e-23)
(-0.0556397 -0.313825 2.9531e-20)
(-0.0552705 -0.269339 -2.52291e-20)
(-0.0521482 -0.235071 7.58956e-21)
(-0.0456547 -0.208107 -8.46492e-21)
(-0.035793 -0.186238 -4.63874e-21)
(-0.0229087 -0.167915 -2.59718e-20)
(-0.00759685 -0.152133 2.77561e-20)
(0.00902578 -0.138272 2.71322e-20)
(-0.0176831 -0.445644 -3.83687e-21)
(-0.0248472 -0.366738 -3.27459e-21)
(-0.0304583 -0.309248 -2.93677e-21)
(-0.0333367 -0.26779 -1.10261e-20)
(-0.0326564 -0.237805 1.1605e-20)
(-0.0280984 -0.215696 4.01373e-21)
(-0.0198943 -0.198756 -8.72422e-21)
(-0.00854382 -0.185033 6.01127e-22)
(0.00527576 -0.173173 -4.78704e-21)
(0.0204137 -0.162277 -2.01811e-22)
(0.0969636 -0.159603 -8.09249e-22)
(0.217981 -0.12952 -2.16402e-22)
(0.405819 -0.077862 4.61632e-22)
(0.574888 -0.0340948 -3.29374e-23)
(0.715938 -0.00687996 1.03024e-22)
(0.817474 0.00614944 1.5575e-22)
(0.885757 0.0104838 -5.60714e-23)
(0.929431 0.0106681 5.87403e-23)
(0.956671 0.00933256 -2.40972e-23)
(0.973529 0.00767045 -1.10122e-25)
(0.983962 0.00611262 1.77043e-23)
(0.990412 0.00476684 -1.54413e-24)
(0.99437 0.0036408 2.30274e-24)
(0.996771 0.00271869 2.52102e-24)
(0.998188 0.0019885 -4.15152e-25)
(0.99901 0.00141717 3.42825e-25)
(0.99946 0.000990723 -1.59336e-25)
(0.999654 0.000648561 -7.75744e-26)
(0.999732 0.00041187 1.02295e-25)
(0.999788 0.000166429 1.28902e-25)
(0.147132 -0.188925 4.73565e-21)
(0.256109 -0.174839 1.41858e-21)
(0.430493 -0.123344 -9.54634e-22)
(0.587973 -0.0712902 -7.58526e-23)
(0.721717 -0.0334505 4.06598e-22)
(0.819549 -0.011134 3.72627e-24)
(0.88623 -6.25971e-05 5.97807e-23)
(0.929335 0.00448089 8.22425e-23)
(0.95643 0.00577173 -6.43355e-23)
(0.97329 0.00563235 -1.87231e-23)
(0.983763 0.00494719 -6.32837e-24)
(0.990257 0.0041027 -2.01533e-23)
(0.994252 0.00326584 1.5213e-23)
(0.996683 0.0025107 1.6939e-25)
(0.998124 0.00187588 -9.85806e-25)
(0.998964 0.00135799 -5.28964e-25)
(0.999427 0.000962885 7.21355e-25)
(0.999631 0.000637617 -8.43745e-25)
(0.999717 0.00040685 -2.15962e-25)
(0.999778 0.000164388 -2.79329e-25)
(0.215898 -0.217596 -1.18548e-20)
(0.311634 -0.216787 5.46627e-21)
(0.468665 -0.165718 4.23568e-21)
(0.610071 -0.106431 -3.91527e-22)
(0.732728 -0.0589331 3.16349e-22)
(0.824378 -0.0279297 4.81483e-22)
(0.888042 -0.0104182 1.21876e-23)
(0.929857 -0.00164006 1.9108e-22)
(0.956471 0.00223227 5.57233e-23)
(0.973183 0.00360131 3.20277e-23)
(0.983631 0.0037847 8.64047e-25)
(0.990137 0.00344045 -3.22591e-24)
(0.994153 0.00289217 -1.16253e-23)
(0.996606 0.00230331 3.70487e-24)
(0.998066 0.00176336 4.85565e-25)
(0.998922 0.0012987 -9.63731e-25)
(0.999397 0.000934883 -1.9354e-27)
(0.999611 0.000626498 5.93679e-25)
(0.999703 0.000401674 5.72443e-25)
(0.99977 0.000162278 -3.20352e-25)
(0.300048 -0.245336 -3.11237e-21)
(0.381515 -0.254454 8.96234e-21)
(0.517879 -0.204001 -3.62183e-21)
(0.639716 -0.138783 -1.17438e-22)
(0.748242 -0.0828756 -1.57471e-22)
(0.831654 -0.0440007 8.95949e-23)
(0.891083 -0.0204757 -2.17552e-22)
(0.930967 -0.00765166 3.31164e-23)
(0.95679 -0.00127058 -1.55453e-22)
(0.973212 0.00158241 -3.74014e-23)
(0.983567 0.00262702 7.80905e-23)
(0.990054 0.00278066 -9.28632e-24)
(0.994076 0.00251992 -5.77838e-25)
(0.996542 0.00209679 -4.96964e-24)
(0.998016 0.00165131 -1.05356e-24)
(0.998884 0.00123951 4.72732e-25)
(0.999369 0.000906651 1.16688e-25)
(0.999592 0.000615005 4.94643e-25)
(0.999692 0.000396173 -6.76947e-25)
(0.999763 0.00016004 6.62024e-25)
(0.396087 -0.271674 -3.80508e-22)