/*--------------------------------*- C++ -*----------------------------------*\
| =========                 |                                                 |
| \\      /  F ield         | OpenFOAM: The Open Source CFD Toolbox           |
|  \\    /   O peration     | Version:  v1912                                 |
|   \\  /    A nd           | Website:  www.openfoam.com                      |
|    \\/     M anipulation  |                                                 |
\*---------------------------------------------------------------------------*/
FoamFile
{
    version     2.0;
    format      ascii;
    class       volScalarField;
    location    "11.25";
    object      p;
}
// * * * * * * * * * * * * * * * * * * * * * * * * * * * * * * * * * * * * * //

dimensions      [0 2 -2 0 0 0 0];


internalField   nonuniform List<scalar> 
2400
(
-0.411914
-0.398366
-0.390311
-0.383704
-0.377167
-0.370748
-0.364528
-0.358466
-0.352568
-0.347984
-0.426236
-0.411706
-0.402683
-0.394933
-0.387169
-0.379533
-0.372168
-0.365054
-0.358066
-0.352908
-0.444557
-0.428358
-0.417922
-0.408608
-0.399232
-0.390024
-0.381167
-0.372618
-0.364374
-0.358617
-0.467166
-0.448489
-0.436268
-0.424932
-0.413526
-0.40237
-0.391667
-0.381335
-0.37138
-0.364825
-0.49445
-0.472176
-0.457985
-0.444097
-0.430233
-0.416744
-0.40382
-0.391304
-0.379166
-0.371543
-0.52656
-0.500206
-0.482842
-0.466217
-0.449561
-0.433377
-0.417865
-0.402737
-0.387867
-0.378767
-0.563172
-0.532605
-0.511438
-0.49155
-0.471755
-0.452573
-0.43417
-0.416051
-0.397843
-0.3866
-0.604717
-0.569289
-0.543793
-0.520246
-0.497027
-0.474596
-0.453039
-0.431549
-0.409148
-0.394451
-0.65135
-0.610114
-0.579917
-0.552462
-0.525638
-0.499768
-0.474692
-0.44891
-0.420074
-0.398626
-0.702499
-0.654818
-0.619742
-0.588393
-0.558232
-0.529518
-0.501802
-0.472721
-0.43819
-0.408007
-1.17085
-1.15489
-1.1263
-1.08742
-1.04049
-0.987695
-0.931137
-0.872704
-0.814053
-0.756739
-1.07246
-1.05818
-1.03244
-0.99737
-0.955099
-0.907698
-0.85712
-0.80512
-0.75322
-0.702737
-0.99012
-0.979597
-0.958079
-0.927546
-0.89003
-0.84754
-0.801975
-0.755051
-0.708254
-0.662817
-0.912032
-0.90642
-0.890078
-0.864783
-0.832425
-0.794918
-0.754105
-0.71168
-0.669142
-0.627721
-0.835527
-0.835067
-0.824253
-0.804593
-0.777765
-0.745512
-0.70955
-0.671491
-0.632825
-0.594779
-0.763086
-0.767411
-0.761933
-0.747884
-0.726681
-0.69983
-0.668825
-0.635082
-0.599983
-0.564671
-0.696159
-0.70455
-0.703853
-0.695052
-0.679315
-0.657882
-0.631954
-0.602597
-0.570896
-0.537716
-0.635189
-0.646863
-0.650258
-0.646183
-0.635614
-0.619572
-0.598956
-0.57433
-0.546089
-0.514071
-0.580049
-0.594356
-0.601252
-0.60146
-0.595874
-0.585424
-0.570849
-0.552254
-0.528802
-0.496846
-0.530698
-0.546302
-0.555477
-0.558921
-0.557552
-0.55241
-0.544453
-0.534057
-0.520315
-0.496473
-0.449883
-0.585562
-0.711624
-0.825016
-0.924609
-1.00862
-1.07569
-1.12511
-1.15686
-1.17158
-0.400438
-0.525811
-0.642678
-0.749217
-0.84249
-0.920964
-0.983549
-1.02967
-1.05934
-1.07317
-0.334486
-0.452919
-0.564161
-0.665999
-0.755693
-0.832079
-0.893907
-0.940468
-0.971632
-0.987826
-0.265771
-0.376792
-0.482031
-0.579084
-0.666256
-0.741412
-0.803443
-0.851573
-0.885483
-0.905369
-0.202896
-0.305989
-0.404748
-0.496867
-0.580419
-0.653611
-0.715268
-0.764518
-0.800892
-0.824383
-0.149206
-0.244543
-0.336781
-0.423552
-0.502949
-0.57352
-0.634005
-0.683549
-0.721593
-0.747997
-0.104766
-0.192966
-0.279098
-0.36054
-0.435613
-0.503032
-0.561662
-0.610699
-0.649529
-0.677952
-0.0678749
-0.149309
-0.229991
-0.306489
-0.377368
-0.44159
-0.498058
-0.546086
-0.585012
-0.614669
-0.0369569
-0.111637
-0.187493
-0.25958
-0.326587
-0.387663
-0.442056
-0.48897
-0.527548
-0.557856
-0.01814
-0.0886609
-0.159976
-0.226973
-0.289092
-0.345716
-0.396751
-0.441702
-0.478671
-0.508229
0.524092
0.545051
0.567415
0.590392
0.613475
0.635994
0.656979
0.675802
0.697732
0.737185
0.497283
0.515558
0.535474
0.555567
0.575152
0.593496
0.609547
0.622711
0.638612
0.672801
0.462997
0.47762
0.494265
0.510551
0.525565
0.538532
0.548367
0.554611
0.56332
0.591048
0.421503
0.431632
0.44428
0.45591
0.465366
0.471859
0.474321
0.472524
0.473007
0.493147
0.373195
0.378148
0.386186
0.392417
0.395449
0.39452
0.388625
0.377864
0.369288
0.380893
0.318564
0.317858
0.320829
0.321047
0.316945
0.307831
0.292817
0.272413
0.254183
0.2565
0.25819
0.251585
0.249222
0.242979
0.231214
0.213372
0.18873
0.158282
0.130069
0.122554
0.192824
0.180358
0.172605
0.159605
0.139836
0.112958
0.0784579
0.037864
-0.000384655
-0.0180476
0.123333
0.105738
0.092721
0.0726685
0.0446621
0.00864496
-0.0356824
-0.086223
-0.134273
-0.162185
0.0486479
0.0283555
0.0104176
-0.0166275
-0.0526082
-0.0974825
-0.151275
-0.211239
-0.268575
-0.306878
0.377262
0.381225
0.391727
0.399959
0.406427
0.412832
0.420769
0.4326
0.451128
0.473747
0.42587
0.431027
0.442784
0.454094
0.464454
0.475021
0.487044
0.502554
0.524951
0.554018
0.465001
0.47372
0.488009
0.502788
0.517196
0.531963
0.548039
0.567109
0.593031
0.627811
0.497263
0.509926
0.527074
0.545153
0.563327
0.582019
0.601868
0.624177
0.653118
0.6927
0.522897
0.539177
0.55903
0.58005
0.601528
0.623654
0.64676
0.671748
0.702993
0.746372
0.541775
0.561021
0.583131
0.606536
0.630665
0.655516
0.68113
0.708017
0.740683
0.78672
0.553826
0.575164
0.598804
0.623831
0.649779
0.676451
0.703613
0.731415
0.764456
0.811916
0.557834
0.580843
0.605328
0.631198
0.658051
0.685508
0.713095
0.740655
0.772896
0.820474
0.554599
0.577852
0.602429
0.628257
0.654953
0.682014
0.708758
0.734789
0.764956
0.811311
0.54326
0.565862
0.589779
0.614666
0.640118
0.665544
0.690097
0.713226
0.739978
0.783709
0.333518
0.288945
0.23798
0.186276
0.135221
0.0859592
0.0364397
-0.0090951
-0.0513452
-0.0905174
0.337547
0.289987
0.237106
0.182671
0.128706
0.0763454
0.0258126
-0.0212172
-0.0646942
-0.104528
0.341073
0.287814
0.231355
0.17412
0.117795
0.063495
0.0119612
-0.0358486
-0.0795583
-0.118984
0.343735
0.285468
0.225391
0.165259
0.106586
0.0505249
-0.00209046
-0.0504337
-0.0940686
-0.132836
0.345542
0.282871
0.219255
0.156247
0.0953078
0.0376517
-0.0158412
-0.0644453
-0.107775
-0.145749
0.347476
0.280626
0.213548
0.147798
0.0847711
0.025734
-0.0284515
-0.0771746
-0.12015
-0.157408
0.351198
0.280467
0.210104
0.141708
0.0767853
0.0164183
-0.0385453
-0.0875953
-0.130557
-0.167578
0.35924
0.284975
0.211464
0.140476
0.0733803
0.0112737
-0.0450584
-0.0951858
-0.139009
-0.176748
0.373649
0.295279
0.217882
0.142985
0.0722181
0.00673428
-0.0526931
-0.105632
-0.151977
-0.191941
0.389551
0.303911
0.219081
0.137009
0.0592622
-0.0128536
-0.0783887
-0.136771
-0.187807
-0.231622
-0.126581
-0.15958
-0.189743
-0.217406
-0.242963
-0.266817
-0.28926
-0.310291
-0.330382
-0.340437
-0.14065
-0.173077
-0.202051
-0.227907
-0.251022
-0.271756
-0.290298
-0.306464
-0.319931
-0.324163
-0.154123
-0.185036
-0.212048
-0.235579
-0.256093
-0.274038
-0.289718
-0.303189
-0.314426
-0.320191
-0.166846
-0.196238
-0.221467
-0.243069
-0.261619
-0.277672
-0.291665
-0.303844
-0.314259
-0.321072
-0.178613
-0.206597
-0.230299
-0.25037
-0.267476
-0.28225
-0.295202
-0.306646
-0.316583
-0.323862
-0.189341
-0.216258
-0.238882
-0.257944
-0.274158
-0.288181
-0.30053
-0.311506
-0.321076
-0.328535
-0.199176
-0.225696
-0.247942
-0.266674
-0.282603
-0.296359
-0.308417
-0.319038
-0.328183
-0.335451
-0.208995
-0.236069
-0.258805
-0.277943
-0.294156
-0.308022
-0.319962
-0.330201
-0.338732
-0.34537
-0.226079
-0.254729
-0.278694
-0.298699
-0.315396
-0.329336
-0.340909
-0.350328
-0.357645
-0.36282
-0.268503
-0.299195
-0.324365
-0.344804
-0.36126
-0.374335
-0.384439
-0.391808
-0.396579
-0.398787
-0.398285
-0.365958
-0.350142
-0.34065
-0.333289
-0.326944
-0.320453
-0.311298
-0.295394
-0.280279
-0.39675
-0.36758
-0.35345
-0.344617
-0.337451
-0.331011
-0.32448
-0.316259
-0.304097
-0.295544
-0.394538
-0.368141
-0.355777
-0.347737
-0.341066
-0.335047
-0.329085
-0.322208
-0.313551
-0.308982
-0.392099
-0.36817
-0.357542
-0.350288
-0.344163
-0.338619
-0.333192
-0.327224
-0.320345
-0.317
-0.389598
-0.368579
-0.359137
-0.352629
-0.347045
-0.341964
-0.337049
-0.331859
-0.326154
-0.323125
-0.387758
-0.36974
-0.361037
-0.35514
-0.350002
-0.345269
-0.34073
-0.33611
-0.330986
-0.327878
-0.387597
-0.37174
-0.363714
-0.35823
-0.353345
-0.348778
-0.344374
-0.339926
-0.335323
-0.332107
-0.389566
-0.375144
-0.367592
-0.362277
-0.35741
-0.352784
-0.348302
-0.343819
-0.339325
-0.335942
-0.394091
-0.380453
-0.373071
-0.367645
-0.362529
-0.357591
-0.352792
-0.348036
-0.343346
-0.339655
-0.401519
-0.388073
-0.380521
-0.374677
-0.369016
-0.363492
-0.358122
-0.352845
-0.347695
-0.343614
-0.341394
-0.284483
-0.25408
-0.20734
-0.171965
-0.138324
-0.112342
-0.0917592
-0.0768421
-0.0659652
-0.0574742
-0.049088
-0.0395046
-0.0288728
-0.0191298
-0.011778
-0.00685497
-0.00304206
-0.00127861
0.00175495
-0.348183
-0.287036
-0.255765
-0.207823
-0.171234
-0.136788
-0.110499
-0.0902644
-0.0763311
-0.0666904
-0.0591507
-0.0510522
-0.0410847
-0.0297688
-0.019391
-0.0116312
-0.00659696
-0.00284471
-0.00119862
0.00176812
-0.356704
-0.290273
-0.258082
-0.208983
-0.171146
-0.135908
-0.109208
-0.0892377
-0.0760939
-0.0675458
-0.060827
-0.0529482
-0.042602
-0.030654
-0.0196949
-0.0115488
-0.00639318
-0.0026798
-0.00113282
0.0017707
-0.366977
-0.29411
-0.26093
-0.210828
-0.171745
-0.13574
-0.10854
-0.0886631
-0.0761384
-0.0685042
-0.0624768
-0.0547521
-0.0440446
-0.031525
-0.0200407
-0.0115312
-0.00624453
-0.00254842
-0.0010816
0.00176275
-0.378691
-0.298646
-0.264226
-0.213347
-0.173053
-0.136313
-0.108531
-0.0885951
-0.0765376
-0.069543
-0.0640832
-0.0564466
-0.0454065
-0.0323808
-0.0204267
-0.0115763
-0.00614992
-0.00245048
-0.0010449
0.00174446
-0.39139
-0.304012
-0.267885
-0.216487
-0.175047
-0.137611
-0.109176
-0.0890271
-0.0771785
-0.0706601
-0.0655997
-0.0580202
-0.0466847
-0.0332201
-0.0208498
-0.0116805
-0.00610688
-0.00238514
-0.00102224
0.00171616
-0.4046
-0.310426
-0.271902
-0.220213
-0.177717
-0.139623
-0.110467
-0.0899396
-0.0780452
-0.071815
-0.067015
-0.0594585
-0.0478767
-0.0340457
-0.0213123
-0.0118449
-0.00611598
-0.00235298
-0.00101337
0.0016782
-0.418036
-0.318724
-0.276791
-0.22485
-0.181337
-0.142559
-0.11256
-0.0914264
-0.0792091
-0.072984
-0.0682991
-0.0607431
-0.0489863
-0.0348753
-0.0218339
-0.0120851
-0.00618817
-0.00236024
-0.00102101
0.00163069
-0.429444
-0.329738
-0.283176
-0.230791
-0.186185
-0.146626
-0.115611
-0.0936097
-0.080765
-0.0742638
-0.0695223
-0.0619352
-0.0500565
-0.0357276
-0.0224134
-0.0123921
-0.00631637
-0.00240382
-0.00104544
0.00157403
-0.427637
-0.338009
-0.287959
-0.235373
-0.189928
-0.149897
-0.118189
-0.0956154
-0.0823826
-0.0757493
-0.0709814
-0.063287
-0.0511549
-0.0364984
-0.0228678
-0.0125853
-0.00636502
-0.00240897
-0.00105088
0.00151272
-0.400093
-0.335644
-0.287161
-0.235401
-0.189713
-0.149841
-0.118178
-0.095927
-0.0833381
-0.0775469
-0.0733609
-0.0655792
-0.0527953
-0.0373612
-0.0231257
-0.0124618
-0.00610986
-0.00222964
-0.000971278
0.00142814
-0.382854
-0.328434
-0.280912
-0.232216
-0.188705
-0.150806
-0.120309
-0.0986004
-0.0859436
-0.0797317
-0.074946
-0.066641
-0.0534962
-0.0378744
-0.0235403
-0.0127662
-0.00629803
-0.00235781
-0.00104042
0.00127271
-0.361692
-0.31474
-0.269533
-0.225895
-0.186396
-0.151518
-0.122843
-0.10189
-0.0889838
-0.0818678
-0.0760471
-0.0670577
-0.0536911
-0.0381582
-0.0239697
-0.0132252
-0.00666314
-0.00262327
-0.00117664
0.00107384
-0.330373
-0.294207
-0.254302
-0.217126
-0.182978
-0.15194
-0.125562
-0.105502
-0.0922284
-0.0839501
-0.076871
-0.0671307
-0.0536406
-0.0383593
-0.0244461
-0.0138
-0.00714614
-0.0029883
-0.00136178
0.000829054
-0.288881
-0.26715
-0.23602
-0.206121
-0.178108
-0.151638
-0.128065
-0.10911
-0.095447
-0.0858433
-0.0773444
-0.0668268
-0.0533406
-0.0384947
-0.0249978
-0.0145229
-0.00777781
-0.00347666
-0.00160985
0.000537331
-0.246397
-0.236469
-0.215615
-0.193424
-0.171655
-0.1501
-0.129742
-0.112183
-0.0982922
-0.0874238
-0.0775233
-0.0662726
-0.0528995
-0.0386255
-0.025649
-0.015399
-0.008559
-0.00408736
-0.0019234
0.000208764
-0.207449
-0.206045
-0.194685
-0.179932
-0.163993
-0.147156
-0.130146
-0.114268
-0.10048
-0.0886656
-0.0775993
-0.0657312
-0.0525145
-0.0388367
-0.0264012
-0.0163889
-0.00944648
-0.0047844
-0.00228731
-0.000134762
-0.175651
-0.179253
-0.175235
-0.166878
-0.155973
-0.143223
-0.129307
-0.115234
-0.101909
-0.0895891
-0.0777197
-0.0654043
-0.0523317
-0.0391643
-0.0272029
-0.0174028
-0.0103555
-0.00550007
-0.00266908
-0.000460763
-0.152746
-0.158813
-0.159526
-0.155859
-0.148826
-0.139222
-0.127777
-0.11532
-0.102647
-0.090206
-0.0779082
-0.0653281
-0.052358
-0.03955
-0.0279363
-0.0182965
-0.0111572
-0.00613302
-0.00301394
-0.000728842
-0.14
-0.147036
-0.150073
-0.148983
-0.144212
-0.136458
-0.126485
-0.115058
-0.102899
-0.0905194
-0.0780653
-0.0653757
-0.0524652
-0.0398491
-0.0284253
-0.0188762
-0.0116765
-0.00654482
-0.00323952
-0.000891758
-0.46037
-0.473258
-0.480886
-0.483749
-0.482694
-0.47902
-0.474612
-0.472081
-0.476368
-0.500246
-0.380245
-0.393856
-0.404582
-0.412922
-0.41954
-0.425239
-0.430881
-0.437193
-0.444263
-0.458329
-0.314502
-0.327671
-0.339318
-0.349627
-0.358732
-0.366716
-0.373622
-0.379628
-0.384714
-0.39493
-0.258563
-0.270193
-0.280757
-0.290311
-0.298915
-0.306672
-0.313762
-0.320505
-0.326927
-0.335605
-0.211995
-0.222029
-0.231357
-0.240027
-0.248092
-0.255608
-0.262622
-0.269185
-0.275223
-0.281476
-0.174237
-0.182787
-0.190845
-0.198423
-0.205531
-0.212181
-0.218383
-0.224159
-0.229522
-0.234574
-0.144384
-0.1516
-0.158447
-0.164922
-0.171024
-0.176756
-0.182122
-0.18713
-0.191783
-0.196034
-0.121804
-0.127953
-0.133809
-0.139361
-0.144603
-0.14953
-0.154141
-0.158437
-0.162416
-0.166052
-0.106116
-0.111485
-0.116607
-0.121471
-0.126068
-0.13039
-0.134435
-0.138202
-0.141688
-0.144891
-0.0976118
-0.102492
-0.107156
-0.111591
-0.115792
-0.119753
-0.123473
-0.126948
-0.130181
-0.133172
-0.0297947
-0.0953974
-0.159365
-0.214675
-0.264934
-0.310872
-0.351586
-0.387897
-0.417938
-0.441976
-0.0500714
-0.100538
-0.14857
-0.189215
-0.225962
-0.260218
-0.291473
-0.318657
-0.342836
-0.363349
-0.0624684
-0.102536
-0.13755
-0.16721
-0.194275
-0.219628
-0.242919
-0.263677
-0.282634
-0.299567
-0.0678097
-0.0983947
-0.122863
-0.143812
-0.163628
-0.182582
-0.200322
-0.216666
-0.231824
-0.245793
-0.0665989
-0.0890138
-0.106257
-0.121396
-0.136266
-0.150827
-0.164695
-0.177739
-0.189796
-0.201233
-0.0611746
-0.0773318
-0.0899725
-0.101442
-0.11293
-0.124321
-0.135305
-0.145772
-0.155701
-0.165198
-0.0544732
-0.0662512
-0.0759448
-0.0850232
-0.0941624
-0.103269
-0.11214
-0.120693
-0.128909
-0.136812
-0.0481709
-0.0570436
-0.0648273
-0.0723052
-0.0798184
-0.0873066
-0.0946496
-0.101789
-0.108701
-0.115379
-0.0431858
-0.0502907
-0.0569064
-0.0633669
-0.0698224
-0.0762397
-0.0825522
-0.0887182
-0.094713
-0.100519
-0.0402781
-0.0465964
-0.0526975
-0.0586785
-0.0646028
-0.0704559
-0.0762011
-0.0818092
-0.0872587
-0.0925285
0.200689
0.201679
0.204065
0.207322
0.211776
0.215027
0.217436
0.207293
0.183063
0.0753311
0.192364
0.192887
0.194218
0.195736
0.197352
0.196531
0.192491
0.174147
0.137555
0.0395704
0.182437
0.182475
0.182664
0.182319
0.181025
0.176303
0.166712
0.143383
0.102245
0.0209912
0.17078
0.170288
0.169251
0.166979
0.162795
0.15456
0.140381
0.114449
0.0717997
0.00345582
0.157447
0.156425
0.154188
0.150102
0.143348
0.132307
0.114932
0.0881324
0.0467405
-0.010688
0.142753
0.141253
0.137969
0.132365
0.123632
0.110696
0.0917509
0.0655372
0.0279803
-0.0193714
0.127387
0.12551
0.121438
0.114753
0.104789
0.0909376
0.0719149
0.0474232
0.0149725
-0.0235169
0.11252
0.110398
0.105857
0.0985812
0.0881321
0.0742155
0.0561159
0.0339079
0.00642448
-0.0248826
0.099893
0.0976596
0.0929375
0.0855007
0.0751007
0.0616289
0.0447906
0.0247747
0.00122703
-0.024856
0.0919231
0.0896666
0.0849386
0.0775594
0.0673841
0.0543925
0.038509
0.0199497
-0.00127952
-0.0244485
0.236515
0.238677
0.244253
0.252963
0.266615
0.284726
0.311882
0.346875
0.399598
0.467062
0.233975
0.236062
0.241448
0.249832
0.262988
0.280289
0.306228
0.339121
0.388185
0.44955
0.231204
0.233211
0.238388
0.246407
0.259002
0.275356
0.299868
0.33013
0.374687
0.427873
0.228215
0.23014
0.235089
0.242711
0.254679
0.26996
0.292848
0.319955
0.359233
0.402054
0.225022
0.226863
0.231569
0.238764
0.250046
0.264139
0.285211
0.308649
0.341972
0.37213
0.221638
0.223397
0.227848
0.234589
0.245127
0.257927
0.276995
0.296279
0.323072
0.33815
0.218083
0.219764
0.223953
0.230225
0.239964
0.251393
0.268269
0.282973
0.302746
0.300214
0.214373
0.215992
0.21993
0.225737
0.23466
0.244686
0.259229
0.269026
0.281344
0.25841
0.210525
0.212094
0.215788
0.221138
0.229223
0.237834
0.24988
0.254495
0.258799
0.21183
0.206526
0.207974
0.211304
0.216028
0.222987
0.229848
0.238731
0.237679
0.232602
0.158604
0.248227
0.25076
0.256913
0.266806
0.281592
0.300662
0.32727
0.356062
0.394126
0.403745
0.248153
0.250694
0.256891
0.26661
0.281674
0.301695
0.329583
0.36108
0.405164
0.431554
0.247846
0.250362
0.256568
0.266353
0.281301
0.301071
0.330289
0.363514
0.411503
0.451549
0.247305
0.249797
0.25601
0.265816
0.280851
0.300639
0.330082
0.365759
0.417035
0.467874
0.246523
0.248989
0.255187
0.264958
0.280031
0.299997
0.329469
0.36729
0.421303
0.480448
0.245491
0.247925
0.254084
0.26378
0.278802
0.298802
0.328449
0.365281
0.423546
0.489397
0.244206
0.2466
0.252693
0.262278
0.277172
0.297063
0.326709
0.364511
0.421442
0.495034
0.242664
0.245011
0.251013
0.260444
0.27514
0.294797
0.324191
0.362207
0.419637
0.4908
0.240866
0.243158
0.249044
0.258279
0.272701
0.29199
0.320879
0.358424
0.415455
0.488142
0.238815
0.241045
0.246788
0.255783
0.269858
0.288633
0.316777
0.353319
0.408744
0.480149
0.203233
0.201818
0.198829
0.194076
0.187325
0.178352
0.166841
0.152598
0.13526
0.114958
0.208218
0.206989
0.204364
0.200115
0.193928
0.185457
0.174229
0.1599
0.141836
0.120102
0.215658
0.214773
0.212843
0.209592
0.204597
0.197305
0.186971
0.172907
0.153988
0.129981
0.223687
0.22328
0.222345
0.22057
0.217452
0.212187
0.203722
0.190735
0.171468
0.144857
0.231093
0.231249
0.231524
0.2316
0.230976
0.228597
0.223236
0.212567
0.194218
0.16517
0.237229
0.237971
0.239547
0.241674
0.243966
0.245183
0.244163
0.237336
0.222016
0.191311
0.241872
0.243165
0.246009
0.250195
0.255565
0.260816
0.265143
0.263676
0.254045
0.223254
0.245076
0.246847
0.250835
0.256922
0.265269
0.274668
0.284939
0.290149
0.28868
0.25943
0.247038
0.249198
0.254154
0.261869
0.272859
0.286169
0.302446
0.315382
0.324169
0.297435
0.248014
0.250443
0.256153
0.265174
0.278358
0.295013
0.316965
0.338327
0.360741
0.342502
0.100136
0.0939617
0.0876849
0.0813516
0.0749385
0.0684442
0.0618892
0.055299
0.0486988
0.0421041
0.103824
0.0969648
0.0899568
0.082942
0.0758514
0.0686486
0.0613531
0.0540012
0.0466309
0.0392557
0.111078
0.102716
0.0940898
0.0856437
0.0772182
0.0686804
0.0600331
0.0513288
0.0426457
0.0339508
0.122448
0.111753
0.100535
0.0898687
0.0794449
0.0689358
0.0583054
0.0476367
0.0369999
0.0263785
0.138694
0.124757
0.109767
0.0959585
0.082791
0.0695986
0.0562803
0.042985
0.029684
0.0164686
0.160694
0.142521
0.122336
0.104294
0.0875283
0.0708379
0.0540368
0.0374051
0.0207886
0.0042896
0.189504
0.166133
0.13906
0.115451
0.0939583
0.0725993
0.0511255
0.0305139
0.00987371
-0.0105774
0.225531
0.196227
0.160672
0.130297
0.102979
0.0760044
0.0494267
0.0227042
-0.00316267
-0.0282108
0.268368
0.232079
0.187052
0.14886
0.113899
0.0792849
0.0460163
0.0131661
-0.0183025
-0.0483129
0.317552
0.273483
0.220273
0.173008
0.128065
0.08393
0.0410839
0.000615417
-0.0369215
-0.071752
0.0355344
0.0290112
0.0225538
0.0161789
0.00990164
0.00373604
-0.00230526
-0.00821087
-0.0139706
-0.0195746
0.0319035
0.0246044
0.0173844
0.0102658
0.00326933
-0.00358594
-0.0102828
-0.0168064
-0.0231435
-0.0292586
0.0252803
0.016677
0.00816998
-0.000218988
-0.00847011
-0.0165645
-0.0244849
-0.032217
-0.0397494
-0.0469909
0.015808
0.00532422
-0.0050489
-0.0152935
-0.0253935
-0.0353346
-0.0451038
-0.0546906
-0.0640931
-0.0731724
0.00336528
-0.00961784
-0.0224739
-0.0351944
-0.0477709
-0.0601976
-0.0724737
-0.084604
-0.0966186
-0.108559
-0.0120232
-0.0281491
-0.0441134
-0.0599401
-0.0756511
-0.0912686
-0.106815
-0.122296
-0.13777
-0.153996
-0.0306959
-0.0504935
-0.0700162
-0.089306
-0.108417
-0.127435
-0.146485
-0.165672
-0.18533
-0.207285
-0.0526655
-0.0766425
-0.100204
-0.123395
-0.146242
-0.168762
-0.191007
-0.21308
-0.23626
-0.263322
-0.0770278
-0.104567
-0.131097
-0.156877
-0.182248
-0.207583
-0.23321
-0.259405
-0.288392
-0.32042
-0.103917
-0.133395
-0.160337
-0.185143
-0.208496
-0.231351
-0.254819
-0.280369
-0.313828
-0.35803
-0.0329252
-0.0519069
-0.0682444
-0.0809084
-0.0891607
-0.0926612
-0.0914584
-0.0860134
-0.0771458
-0.0660864
-0.0543221
-0.0434244
-0.0347046
-0.0287397
-0.0245251
-0.0203135
-0.0146538
-0.00871598
-0.00349144
-0.00137339
-0.0442054
-0.0640319
-0.0799564
-0.091457
-0.0981448
-0.0998701
-0.0968107
-0.0894894
-0.0788809
-0.0663302
-0.0534329
-0.0419112
-0.0332149
-0.027845
-0.024372
-0.0206213
-0.0150023
-0.00888956
-0.0035323
-0.00125965
-0.0648084
-0.08563
-0.100288
-0.109387
-0.113145
-0.111719
-0.105444
-0.0950244
-0.0815639
-0.0665556
-0.0517818
-0.0392353
-0.0306225
-0.0263066
-0.0241043
-0.021112
-0.0155691
-0.00915837
-0.00362226
-0.00104095
-0.0941688
-0.115179
-0.127241
-0.132395
-0.131721
-0.126061
-0.115742
-0.101549
-0.0846543
-0.0666924
-0.0496609
-0.0359023
-0.027433
-0.0243979
-0.0236948
-0.0215494
-0.0161055
-0.00938188
-0.00371266
-0.000743061
-0.130548
-0.150158
-0.15836
-0.157947
-0.15174
-0.140933
-0.126231
-0.108157
-0.0877983
-0.0668658
-0.0475754
-0.0326356
-0.0243012
-0.0224164
-0.0229984
-0.0216016
-0.0163228
-0.00941293
-0.00374382
-0.000400581
-0.169908
-0.186808
-0.190345
-0.182748
-0.169975
-0.154143
-0.13544
-0.113959
-0.0906554
-0.0672436
-0.0461053
-0.0302244
-0.0219224
-0.0207039
-0.0220336
-0.0211341
-0.0160865
-0.00919038
-0.00368458
-5.04787e-05
-0.205985
-0.220662
-0.218674
-0.202982
-0.184069
-0.164073
-0.142218
-0.118238
-0.0928988
-0.0678323
-0.0455259
-0.029087
-0.0207135
-0.0195901
-0.0210111
-0.0202598
-0.015453
-0.00874961
-0.00353995
0.000277429
-0.234579
-0.248708
-0.240287
-0.216793
-0.193474
-0.170324
-0.146286
-0.120798
-0.0943812
-0.0685196
-0.0457477
-0.0291505
-0.0206688
-0.0191791
-0.0201442
-0.0191926
-0.0145913
-0.00818311
-0.00333859
0.000565509
-0.258163
-0.270184
-0.254567
-0.225549
-0.199125
-0.173578
-0.148163
-0.121915
-0.0951386
-0.0691497
-0.0464685
-0.0300313
-0.021432
-0.0193303
-0.0195251
-0.0181669
-0.0136795
-0.00758717
-0.00311553
0.000807185
-0.283948
-0.285617
-0.262915
-0.229996
-0.201304
-0.173918
-0.147704
-0.121259
-0.094782
-0.069394
-0.0474655
-0.0315912
-0.0228932
-0.019995
-0.0190937
-0.0171128
-0.0126975
-0.006951
-0.0028782
0.0010017
-0.318755
-0.289084
-0.263026
-0.228735
-0.199048
-0.170543
-0.144085
-0.118141
-0.0929017
-0.0691874
-0.0490096
-0.0343256
-0.0257007
-0.0213545
-0.0188053
-0.0158651
-0.0114921
-0.00624171
-0.00263622
0.00112113
-0.332287
-0.288987
-0.261564
-0.225784
-0.195764
-0.166912
-0.140639
-0.115174
-0.0907749
-0.0681292
-0.0490664
-0.0351882
-0.0266961
-0.0218765
-0.0186061
-0.0152282
-0.0108677
-0.00583293
-0.00247069
0.00121153
-0.336026
-0.287885
-0.259635
-0.222474
-0.192317
-0.163231
-0.137169
-0.112147
-0.0885202
-0.0668799
-0.0488937
-0.0358241
-0.0275111
-0.0223756
-0.0185143
-0.0147523
-0.010361
-0.00547775
-0.00231204
0.0013024
-0.33618
-0.284054
-0.257988
-0.219588
-0.18914
-0.159697
-0.133817
-0.10928
-0.0865188
-0.0659825
-0.0491211
-0.0368231
-0.0286574
-0.0229998
-0.0184696
-0.0142865
-0.00985523
-0.00512742
-0.00215752
0.00138761
-0.335205
-0.283134
-0.256362
-0.217149
-0.186112
-0.156157
-0.130423
-0.106439
-0.0846681
-0.0653677
-0.0497001
-0.0381396
-0.0299801
-0.0237159
-0.0184501
-0.0138177
-0.00934353
-0.00477838
-0.00200698
0.00146585
-0.333853
-0.281796
-0.254002
-0.213103
-0.182542
-0.152643
-0.127002
-0.103612
-0.0829263
-0.0649638
-0.0505355
-0.0396742
-0.0314261
-0.0244937
-0.0184623
-0.0133689
-0.00884431
-0.004439
-0.00186214
0.00153666
-0.332606
-0.280969
-0.253195
-0.211368
-0.17971
-0.149041
-0.123633
-0.100855
-0.08132
-0.0647665
-0.0515954
-0.0413837
-0.0329704
-0.0253201
-0.0185126
-0.012954
-0.00837
-0.00411487
-0.00172478
0.0015993
-0.332129
-0.280906
-0.252679
-0.209657
-0.177265
-0.14577
-0.120396
-0.0982288
-0.0798812
-0.0647782
-0.0528563
-0.0432343
-0.0345824
-0.0261835
-0.0186035
-0.012581
-0.00792788
-0.00380972
-0.00159642
0.001653
-0.333254
-0.281541
-0.252517
-0.208279
-0.175069
-0.142935
-0.117347
-0.0957978
-0.078638
-0.0649914
-0.0542838
-0.0451813
-0.036229
-0.0270711
-0.0187362
-0.0122568
-0.00752439
-0.00352705
-0.00147848
0.00169714
-0.336307
-0.282663
-0.253065
-0.207499
-0.173268
-0.140416
-0.114642
-0.093625
-0.0776171
-0.0653926
-0.0558372
-0.0470871
-0.0378787
-0.027971
-0.0189115
-0.0119876
-0.00716516
-0.00327019
-0.00137217
0.00173123
)
;

boundaryField
{
    inlet
    {
        type            freestreamPressure;
        freestreamValue uniform 0;
        value           nonuniform List<scalar> 
40
(
0.200689
0.192364
0.182437
0.17078
0.157447
0.142753
0.127387
0.11252
0.099893
0.0919231
0.236515
0.233975
0.231204
0.228215
0.225022
0.221638
0.218083
0.214373
0.210525
0.206526
0.248227
0.248153
0.247846
0.247305
0.246523
0.245491
0.244206
0.242664
0.240866
0.238815
0.203233
0.208218
0.215658
0.223687
0.231093
0.237229
0.241872
0.245076
0.247038
0.248014
)
;
    }
    outlet
    {
        type            freestreamPressure;
        freestreamValue uniform 0;
        value           nonuniform List<scalar> 
40
(
1.30009e-08
4.60895e-09
6.91657e-10
3.70796e-11
5.92372e-10
5.50265e-10
-4.66417e-10
-1.37644e-09
-1.12864e-09
-1.89682e-10
2.22781e-07
1.90621e-07
1.59821e-07
1.31182e-07
1.05293e-07
8.25211e-08
6.30262e-08
4.67736e-08
3.35994e-08
2.33158e-08
3.83645e-07
3.92494e-07
3.96021e-07
3.92491e-07
3.82056e-07
3.6538e-07
3.4329e-07
3.16795e-07
2.87056e-07
2.55308e-07
-1.19388e-08
-8.81249e-08
-1.6987e-07
-1.92796e-07
-1.35059e-07
-1.94913e-08
1.12826e-07
2.29051e-07
3.13921e-07
3.656e-07
)
;
    }
    top
    {
        type            symmetryPlane;
    }
    bottom
    {
        type            symmetryPlane;
    }
    cylinder
    {
        type            zeroGradient;
    }
    frontandback
    {
        type            empty;
    }
}


// ************************************************************************* //
