/*--------------------------------*- C++ -*----------------------------------*\
| =========                 |                                                 |
| \\      /  F ield         | OpenFOAM: The Open Source CFD Toolbox           |
|  \\    /   O peration     | Version:  v1912                                 |
|   \\  /    A nd           | Website:  www.openfoam.com                      |
|    \\/     M anipulation  |                                                 |
\*---------------------------------------------------------------------------*/
FoamFile
{
    version     2.0;
    format      ascii;
    class       volScalarField;
    location    "14.5";
    object      p;
}
// * * * * * * * * * * * * * * * * * * * * * * * * * * * * * * * * * * * * * //

dimensions      [0 2 -2 0 0 0 0];


internalField   nonuniform List<scalar> 
2400
(
-0.402102
-0.388659
-0.380621
-0.374027
-0.367501
-0.361084
-0.354853
-0.348769
-0.342855
-0.338255
-0.414993
-0.400662
-0.391685
-0.383951
-0.37618
-0.368513
-0.361092
-0.353892
-0.346898
-0.341639
-0.43193
-0.416038
-0.405676
-0.39639
-0.386998
-0.377736
-0.368802
-0.360161
-0.351839
-0.346005
-0.453223
-0.435008
-0.422844
-0.411564
-0.400145
-0.388924
-0.378128
-0.367696
-0.357654
-0.351032
-0.479293
-0.457721
-0.443427
-0.429676
-0.41582
-0.402265
-0.389246
-0.376631
-0.364419
-0.356749
-0.510424
-0.484622
-0.467427
-0.450892
-0.434242
-0.418003
-0.402407
-0.387194
-0.372273
-0.363163
-0.54623
-0.516096
-0.495213
-0.475435
-0.455664
-0.43645
-0.417986
-0.399808
-0.381582
-0.370377
-0.587022
-0.552081
-0.526883
-0.503471
-0.480305
-0.457876
-0.436296
-0.414788
-0.392411
-0.377804
-0.63306
-0.592342
-0.562452
-0.535159
-0.508426
-0.482603
-0.457558
-0.431812
-0.403041
-0.381719
-0.68378
-0.636614
-0.601853
-0.570699
-0.540676
-0.512071
-0.484457
-0.45548
-0.421045
-0.390985
-1.15521
-1.13842
-1.10908
-1.06957
-1.02212
-0.968944
-0.912131
-0.853573
-0.794926
-0.737747
-1.05693
-1.04186
-1.01541
-0.979754
-0.937015
-0.889273
-0.838485
-0.786402
-0.734548
-0.684236
-0.974953
-0.963638
-0.941416
-0.910288
-0.872296
-0.829458
-0.783676
-0.736665
-0.689909
-0.644638
-0.897398
-0.890988
-0.873925
-0.848004
-0.815132
-0.777235
-0.736161
-0.693607
-0.65107
-0.609775
-0.821509
-0.820258
-0.808709
-0.788393
-0.761005
-0.728305
-0.692016
-0.653758
-0.615024
-0.577037
-0.749706
-0.753263
-0.747054
-0.73233
-0.710528
-0.68317
-0.651765
-0.617738
-0.582482
-0.547134
-0.6834
-0.691063
-0.689655
-0.680179
-0.663819
-0.641832
-0.615435
-0.585706
-0.553746
-0.520413
-0.623009
-0.634006
-0.636728
-0.631996
-0.620802
-0.60418
-0.583041
-0.557963
-0.529362
-0.497058
-0.568399
-0.582086
-0.588358
-0.587944
-0.581751
-0.570718
-0.555592
-0.536485
-0.512587
-0.480209
-0.519521
-0.534574
-0.543187
-0.546063
-0.544131
-0.538435
-0.529937
-0.519013
-0.504789
-0.480453
-0.443045
-0.578109
-0.703386
-0.815988
-0.914722
-0.997808
-1.0639
-1.11234
-1.14309
-1.15685
-0.393421
-0.518164
-0.634369
-0.740105
-0.832533
-0.9101
-0.971738
-1.0169
-1.04561
-1.05851
-0.327475
-0.445331
-0.555906
-0.656944
-0.745901
-0.82144
-0.882364
-0.927999
-0.958234
-0.973521
-0.258793
-0.369297
-0.473952
-0.570392
-0.656758
-0.731115
-0.792306
-0.839562
-0.872582
-0.891587
-0.19593
-0.298562
-0.396791
-0.488314
-0.571178
-0.643662
-0.704556
-0.752999
-0.78854
-0.811192
-0.142237
-0.23716
-0.328923
-0.415161
-0.493975
-0.563893
-0.623688
-0.6725
-0.70978
-0.735402
-0.0977855
-0.185612
-0.271319
-0.352287
-0.426837
-0.493685
-0.551694
-0.600077
-0.638216
-0.665922
-0.0608863
-0.141981
-0.222279
-0.298353
-0.368768
-0.432501
-0.488403
-0.535843
-0.574148
-0.603157
-0.0299659
-0.104336
-0.179843
-0.251546
-0.318132
-0.378746
-0.432691
-0.47907
-0.517087
-0.546811
-0.0111075
-0.0813367
-0.152329
-0.218975
-0.280709
-0.336917
-0.387625
-0.432085
-0.468551
-0.497588
0.529419
0.550357
0.572692
0.595636
0.618679
0.641152
0.662082
0.680845
0.702714
0.742115
0.502717
0.520965
0.540839
0.560884
0.580412
0.598689
0.614664
0.627748
0.643566
0.677676
0.468548
0.483136
0.499729
0.515952
0.530893
0.543776
0.553517
0.559663
0.568272
0.595896
0.427179
0.437268
0.449854
0.46141
0.470781
0.477176
0.479529
0.477622
0.477993
0.498009
0.379008
0.383918
0.391888
0.398036
0.400974
0.399937
0.393926
0.383048
0.374353
0.385816
0.324528
0.32378
0.326677
0.32681
0.322609
0.313385
0.298253
0.277733
0.259385
0.261547
0.264323
0.257678
0.255241
0.248913
0.237052
0.219103
0.194351
0.163797
0.135472
0.127794
0.199143
0.186645
0.178822
0.165743
0.145887
0.118915
0.0843193
0.0436386
0.00529377
-0.0125365
0.12986
0.112242
0.0991644
0.0790459
0.0509696
0.014879
-0.0295176
-0.0801156
-0.128238
-0.156318
0.0554009
0.0350971
0.0171175
-0.00997076
-0.045996
-0.0909135
-0.144739
-0.204721
-0.262096
-0.300567
0.381261
0.385243
0.395792
0.404073
0.410591
0.417046
0.425034
0.436923
0.455553
0.478393
0.430037
0.435219
0.447033
0.458404
0.468824
0.479454
0.49154
0.507115
0.529612
0.558881
0.469329
0.478076
0.492425
0.507267
0.521741
0.536577
0.552722
0.571861
0.597876
0.632836
0.501738
0.51443
0.531636
0.549778
0.568017
0.586778
0.606697
0.629072
0.658097
0.697834
0.527493
0.543806
0.563718
0.584798
0.606337
0.628527
0.651697
0.676744
0.708059
0.751565
0.54649
0.565763
0.587932
0.61139
0.635572
0.660475
0.686141
0.713074
0.745793
0.79193
0.558729
0.580057
0.603728
0.628787
0.654768
0.681475
0.708672
0.736502
0.769575
0.817105
0.562823
0.585862
0.610351
0.636233
0.663103
0.690577
0.718179
0.745747
0.777998
0.825615
0.559743
0.582988
0.607549
0.633368
0.660061
0.687117
0.713853
0.739869
0.770023
0.816386
0.548497
0.57108
0.594976
0.619843
0.645274
0.670673
0.695196
0.718287
0.745001
0.788709
0.337297
0.292506
0.241312
0.189373
0.138107
0.0889346
0.0386921
-0.00717932
-0.0497267
-0.0892282
0.341377
0.293594
0.240472
0.185784
0.131549
0.0789435
0.0279491
-0.0194154
-0.0632246
-0.10342
0.344929
0.291431
0.23471
0.177193
0.120553
0.0659203
0.0139978
-0.0341772
-0.0782581
-0.11807
0.347623
0.289099
0.228737
0.168292
0.109276
0.0528556
-0.000159525
-0.0489041
-0.0929412
-0.132113
0.349465
0.286518
0.222592
0.159244
0.097928
0.0398807
-0.0140324
-0.0630623
-0.106813
-0.1452
0.351433
0.284284
0.216874
0.150775
0.087323
0.0278622
-0.0267618
-0.0759253
-0.11933
-0.156999
0.355188
0.284138
0.213412
0.144594
0.0792739
0.0184698
-0.0369448
-0.0864411
-0.129832
-0.167254
0.363276
0.288679
0.214798
0.143388
0.0758611
0.0133043
-0.0434829
-0.0940555
-0.138302
-0.176432
0.377788
0.299081
0.221301
0.145996
0.0747908
0.00885329
-0.0510301
-0.104415
-0.151185
-0.191542
0.393924
0.307958
0.222753
0.140273
0.0620849
-0.0104927
-0.076498
-0.135347
-0.186833
-0.231074
-0.12564
-0.159
-0.189541
-0.217596
-0.243561
-0.267839
-0.290721
-0.312199
-0.332712
-0.343128
-0.139918
-0.172728
-0.202092
-0.228341
-0.251851
-0.272977
-0.291905
-0.30844
-0.322231
-0.326717
-0.153602
-0.184904
-0.2123
-0.236202
-0.257072
-0.275353
-0.291343
-0.305087
-0.31654
-0.322441
-0.166521
-0.196297
-0.221889
-0.243828
-0.262683
-0.279006
-0.293228
-0.305589
-0.316122
-0.322963
-0.178458
-0.206809
-0.230844
-0.251208
-0.268563
-0.28354
-0.296647
-0.308193
-0.318167
-0.325395
-0.189313
-0.216573
-0.239495
-0.258805
-0.275216
-0.289385
-0.301828
-0.312843
-0.322388
-0.329737
-0.199216
-0.226053
-0.248567
-0.267512
-0.283601
-0.297464
-0.309577
-0.320196
-0.329276
-0.336395
-0.209029
-0.236406
-0.259393
-0.27873
-0.295089
-0.309049
-0.321033
-0.331258
-0.339709
-0.34618
-0.226036
-0.254995
-0.279223
-0.299442
-0.316306
-0.330364
-0.342004
-0.351432
-0.358687
-0.363706
-0.268348
-0.299392
-0.324872
-0.345579
-0.362261
-0.375519
-0.385757
-0.3932
-0.397964
-0.400053
-0.399286
-0.366567
-0.35067
-0.341326
-0.334252
-0.328286
-0.322232
-0.313529
-0.298014
-0.283268
-0.397309
-0.367766
-0.353548
-0.344865
-0.337988
-0.331926
-0.325813
-0.317993
-0.306186
-0.297852
-0.394474
-0.367742
-0.355283
-0.347386
-0.340993
-0.335336
-0.32978
-0.323307
-0.315006
-0.310726
-0.391297
-0.366979
-0.35628
-0.349163
-0.343292
-0.338082
-0.333029
-0.32744
-0.320898
-0.317801
-0.387897
-0.366389
-0.356974
-0.350573
-0.345206
-0.340419
-0.335836
-0.330978
-0.325592
-0.322823
-0.384895
-0.366529
-0.357806
-0.351998
-0.347042
-0.342559
-0.33829
-0.33392
-0.329147
-0.326259
-0.38346
-0.367367
-0.359302
-0.353886
-0.349146
-0.344775
-0.340591
-0.336364
-0.331986
-0.328956
-0.384075
-0.369503
-0.361914
-0.356646
-0.351884
-0.3474
-0.343077
-0.338757
-0.33442
-0.331174
-0.387186
-0.373478
-0.36607
-0.360675
-0.355626
-0.350777
-0.346075
-0.341415
-0.336818
-0.333209
-0.393163
-0.379732
-0.372172
-0.366347
-0.360722
-0.355239
-0.349909
-0.344666
-0.339547
-0.335495
-0.331642
-0.275126
-0.247136
-0.204184
-0.173219
-0.142933
-0.118055
-0.0960081
-0.0775142
-0.0622356
-0.0504765
-0.0419861
-0.035962
-0.0313553
-0.0273057
-0.0225132
-0.0168293
-0.00913617
-0.0052878
0.00240018
-0.336823
-0.276593
-0.248782
-0.206013
-0.17514
-0.144895
-0.119738
-0.0970995
-0.0777822
-0.0616355
-0.0492296
-0.0406111
-0.0351342
-0.0314949
-0.0282354
-0.0236408
-0.0176113
-0.00944878
-0.00524688
0.00246792
-0.343896
-0.278889
-0.251032
-0.208328
-0.177374
-0.147106
-0.121589
-0.0983536
-0.0782376
-0.061256
-0.0482079
-0.039423
-0.0344267
-0.0316855
-0.0291503
-0.0247183
-0.0183537
-0.00975653
-0.00522055
0.00250865
-0.352937
-0.28193
-0.253799
-0.211105
-0.179896
-0.149532
-0.123597
-0.0997745
-0.078899
-0.0611266
-0.047447
-0.0384536
-0.0338531
-0.0319213
-0.0300354
-0.0257336
-0.0190513
-0.0100575
-0.0052082
0.00252295
-0.363652
-0.285822
-0.256997
-0.2143
-0.182671
-0.152147
-0.125756
-0.101367
-0.0797798
-0.0612674
-0.0469706
-0.0377246
-0.0334217
-0.0321954
-0.0308787
-0.0266784
-0.0197012
-0.0103505
-0.00520872
0.00251209
-0.375598
-0.290706
-0.26054
-0.217852
-0.185663
-0.154926
-0.128055
-0.103128
-0.0808819
-0.0616836
-0.0467877
-0.0372452
-0.0331344
-0.0324998
-0.03167
-0.0275469
-0.0203019
-0.0106345
-0.00522088
0.00247768
-0.388301
-0.296785
-0.264412
-0.221721
-0.188862
-0.157861
-0.130501
-0.105069
-0.0822204
-0.0623906
-0.0469134
-0.0370264
-0.0329894
-0.0328233
-0.0323959
-0.0283314
-0.0208521
-0.0109096
-0.00524474
0.00242121
-0.40147
-0.304836
-0.269054
-0.226151
-0.192467
-0.161115
-0.133238
-0.107317
-0.083906
-0.0634819
-0.0474225
-0.0371192
-0.0329805
-0.0331536
-0.033034
-0.0290181
-0.0213508
-0.0111784
-0.00528379
0.00234303
-0.412859
-0.315725
-0.275098
-0.231541
-0.196766
-0.164903
-0.13643
-0.109987
-0.0860099
-0.0649923
-0.0483277
-0.0375305
-0.0331238
-0.0335093
-0.0336021
-0.0296263
-0.0218093
-0.0114433
-0.00533526
0.00224654
-0.411195
-0.324318
-0.280045
-0.23608
-0.200372
-0.168119
-0.139127
-0.112206
-0.0877004
-0.0661425
-0.0489555
-0.0377869
-0.033839
-0.0339667
-0.0342923
-0.0303079
-0.0222677
-0.0116877
-0.0053549
0.00215325
-0.383495
-0.32243
-0.280167
-0.237337
-0.201629
-0.169632
-0.140493
-0.11325
-0.088238
-0.0661044
-0.0483942
-0.037041
-0.0334221
-0.0346497
-0.0356715
-0.0315768
-0.0229801
-0.011993
-0.00527827
0.00205295
-0.368849
-0.317545
-0.275926
-0.235277
-0.200633
-0.169596
-0.140951
-0.114043
-0.0892207
-0.067206
-0.0495263
-0.0381431
-0.0344757
-0.035686
-0.0365566
-0.0322282
-0.0233237
-0.0122185
-0.00525544
0.00177514
-0.350533
-0.306448
-0.266418
-0.229549
-0.197378
-0.168044
-0.140502
-0.114446
-0.0902904
-0.0688047
-0.0514495
-0.0400969
-0.0360925
-0.0368444
-0.0372047
-0.0325019
-0.0234136
-0.0123699
-0.00525019
0.00138952
-0.321568
-0.288087
-0.2524
-0.220626
-0.192211
-0.16539
-0.139556
-0.114806
-0.0916813
-0.0709944
-0.0541134
-0.0427588
-0.0381714
-0.038088
-0.0376553
-0.0325042
-0.0233186
-0.0124776
-0.0052561
0.000906722
-0.282467
-0.262602
-0.234617
-0.208789
-0.184983
-0.1615
-0.138049
-0.11511
-0.0934063
-0.0737975
-0.0575394
-0.0461409
-0.0406986
-0.0393453
-0.0378122
-0.0321706
-0.0230123
-0.0125413
-0.00528912
0.000336424
-0.240937
-0.232454
-0.214157
-0.194892
-0.175992
-0.156388
-0.135907
-0.115238
-0.095293
-0.0769907
-0.0614724
-0.0499997
-0.0434902
-0.0405337
-0.0376685
-0.0315305
-0.022527
-0.0125786
-0.00536969
-0.000285977
-0.202738
-0.202586
-0.192942
-0.180145
-0.166062
-0.150417
-0.133182
-0.115063
-0.0970657
-0.080172
-0.0654346
-0.0538888
-0.0462798
-0.0416294
-0.0373633
-0.0307487
-0.0219704
-0.0126233
-0.00551294
-0.000900013
-0.171337
-0.175901
-0.173066
-0.166014
-0.156296
-0.144248
-0.130104
-0.114518
-0.0984586
-0.0829307
-0.0689349
-0.0573485
-0.0487853
-0.0426368
-0.037093
-0.0300439
-0.021479
-0.0127042
-0.00571501
-0.00143565
-0.148608
-0.155425
-0.157002
-0.15424
-0.147988
-0.138807
-0.127169
-0.113714
-0.0993139
-0.0849398
-0.0715621
-0.0599817
-0.0507457
-0.0434973
-0.0369761
-0.0295762
-0.0211544
-0.0128201
-0.00593869
-0.00183217
-0.135933
-0.143606
-0.147345
-0.146955
-0.142764
-0.135315
-0.125192
-0.113046
-0.0996873
-0.0860381
-0.0730457
-0.061487
-0.0518978
-0.044056
-0.0369891
-0.0293775
-0.0210154
-0.0129243
-0.00611
-0.00204783
-0.449868
-0.462338
-0.469527
-0.471933
-0.470406
-0.466253
-0.461364
-0.458348
-0.4622
-0.485641
-0.370588
-0.383944
-0.394406
-0.402474
-0.408811
-0.414223
-0.419565
-0.425556
-0.432306
-0.44601
-0.305659
-0.318714
-0.330248
-0.340445
-0.349437
-0.357303
-0.36408
-0.369937
-0.374861
-0.384907
-0.250499
-0.262097
-0.272644
-0.282191
-0.290791
-0.298547
-0.305634
-0.312369
-0.318771
-0.327414
-0.204594
-0.21467
-0.22405
-0.232783
-0.240924
-0.248528
-0.255643
-0.26232
-0.268483
-0.274869
-0.16741
-0.17604
-0.184186
-0.191861
-0.199075
-0.20584
-0.212164
-0.218069
-0.223566
-0.22875
-0.138065
-0.145375
-0.152326
-0.158913
-0.165136
-0.170996
-0.1765
-0.181654
-0.186459
-0.190864
-0.115873
-0.122123
-0.128088
-0.133757
-0.139123
-0.144182
-0.148931
-0.153371
-0.157501
-0.161291
-0.100466
-0.105935
-0.111165
-0.116143
-0.120859
-0.125307
-0.129483
-0.133386
-0.137013
-0.140361
-0.0921142
-0.0970924
-0.101859
-0.106404
-0.110719
-0.114801
-0.118646
-0.122252
-0.12562
-0.12875
-0.0225643
-0.0879077
-0.151583
-0.206597
-0.256536
-0.302113
-0.342383
-0.37854
-0.408243
-0.431881
-0.0427289
-0.0929734
-0.14078
-0.181215
-0.21776
-0.251829
-0.282926
-0.309793
-0.333681
-0.35394
-0.0550492
-0.0949424
-0.129801
-0.159319
-0.186245
-0.211461
-0.234617
-0.255223
-0.274029
-0.290839
-0.0604098
-0.0908747
-0.115252
-0.136113
-0.15584
-0.174702
-0.192343
-0.208574
-0.223801
-0.237768
-0.0593369
-0.0816867
-0.0989004
-0.114012
-0.12886
-0.143409
-0.157284
-0.170353
-0.182366
-0.193802
-0.054124
-0.0702544
-0.0829011
-0.0943774
-0.105872
-0.117278
-0.128284
-0.138783
-0.148748
-0.158299
-0.047684
-0.0594646
-0.069188
-0.0782978
-0.0874701
-0.0966171
-0.105537
-0.114148
-0.122429
-0.130408
-0.0416505
-0.050545
-0.0583692
-0.0658905
-0.0734503
-0.0809915
-0.0883955
-0.0956037
-0.102592
-0.109355
-0.0368959
-0.044034
-0.0506941
-0.0572034
-0.0637122
-0.0701889
-0.0765676
-0.0828069
-0.0888816
-0.0947745
-0.0341297
-0.040487
-0.0466342
-0.0526661
-0.0586462
-0.0645607
-0.0703731
-0.0760543
-0.0815829
-0.086939
0.206398
0.207398
0.209812
0.213112
0.217633
0.220971
0.223506
0.213516
0.189511
0.0820963
0.198133
0.198669
0.200029
0.201595
0.203284
0.202558
0.198657
0.180479
0.144147
0.0464804
0.188272
0.188325
0.188545
0.188252
0.187036
0.182416
0.172972
0.149821
0.108956
0.0280224
0.176686
0.176209
0.175206
0.172986
0.168882
0.160752
0.146721
0.120967
0.0785769
0.0105356
0.163426
0.162419
0.160215
0.156183
0.149506
0.138567
0.12133
0.0946964
0.0535251
-0.0036524
0.148803
0.147318
0.144065
0.138512
0.129849
0.117007
0.0981788
0.0721045
0.0347126
-0.0124628
0.133502
0.131639
0.127596
0.120954
0.111051
0.0972756
0.0783431
0.0539527
0.0216053
-0.0167888
0.118691
0.116581
0.112063
0.104822
0.0944192
0.0805585
0.0625186
0.04037
0.0129315
-0.0183555
0.106105
0.103881
0.0991763
0.0917653
0.0813972
0.0679608
0.0511545
0.0311608
0.00761078
-0.0185107
0.0981582
0.0959087
0.0911938
0.0838334
0.0736801
0.0607101
0.0448404
0.02628
0.00502052
-0.0182196
0.241841
0.244004
0.249582
0.258297
0.271953
0.290072
0.317235
0.352234
0.404956
0.47243
0.239341
0.24143
0.246821
0.255213
0.268381
0.285698
0.311656
0.34457
0.393648
0.455021
0.23661
0.23862
0.243804
0.251836
0.264449
0.280828
0.305371
0.335669
0.380254
0.433462
0.23366
0.235588
0.240548
0.248187
0.260181
0.275495
0.298425
0.325583
0.364906
0.407767
0.230505
0.23235
0.237071
0.244286
0.255601
0.269735
0.290863
0.314366
0.347752
0.377969
0.227159
0.228923
0.233391
0.240158
0.250734
0.263586
0.28272
0.302086
0.32896
0.34412
0.223641
0.225328
0.229537
0.235838
0.245624
0.257111
0.274068
0.288868
0.308744
0.306322
0.219967
0.221593
0.225554
0.231395
0.24037
0.250465
0.265102
0.27501
0.287453
0.264662
0.216154
0.217731
0.22145
0.226839
0.234985
0.243675
0.25583
0.260572
0.265029
0.218241
0.212189
0.213646
0.217003
0.221769
0.228795
0.235744
0.244749
0.243843
0.238953
0.165192
0.253174
0.255701
0.261829
0.271685
0.286407
0.305399
0.331886
0.36055
0.398431
0.407873
0.253135
0.255669
0.261841
0.27152
0.286529
0.306499
0.334273
0.365655
0.409585
0.435835
0.252863
0.255373
0.261558
0.271309
0.286213
0.305893
0.335075
0.3682
0.416046
0.455967
0.252359
0.254845
0.26104
0.270818
0.285814
0.305554
0.334856
0.37053
0.421707
0.472416
0.251614
0.254075
0.260259
0.270006
0.285045
0.304973
0.334385
0.371969
0.42607
0.485094
0.25062
0.25305
0.259197
0.268875
0.283869
0.303836
0.333445
0.370312
0.42823
0.494206
0.249373
0.251765
0.257849
0.267419
0.282293
0.302158
0.331769
0.369538
0.426505
0.500268
0.247871
0.250216
0.256212
0.265633
0.280314
0.299954
0.32932
0.367295
0.42467
0.495468
0.246113
0.248404
0.254286
0.263516
0.27793
0.29721
0.326082
0.363599
0.420579
0.49322
0.244101
0.246332
0.252074
0.261068
0.275141
0.293916
0.322055
0.358587
0.413991
0.485419
0.207587
0.206164
0.20316
0.198386
0.191609
0.182611
0.171079
0.156827
0.139505
0.119255
0.212597
0.211358
0.208714
0.204438
0.198216
0.189706
0.178441
0.164081
0.146008
0.124296
0.220081
0.219184
0.21723
0.213943
0.2089
0.201549
0.191152
0.177023
0.158051
0.134014
0.228169
0.227748
0.226784
0.224965
0.221787
0.216445
0.207889
0.194799
0.175425
0.148715
0.235644
0.235785
0.236029
0.236055
0.235361
0.232891
0.227414
0.216609
0.198099
0.168885
0.241854
0.24258
0.244124
0.246199
0.248416
0.249535
0.248383
0.241396
0.225869
0.194937
0.246572
0.247849
0.250661
0.254796
0.260091
0.26524
0.269428
0.267792
0.257924
0.226865
0.249848
0.251606
0.255563
0.261601
0.269874
0.279176
0.289309
0.294352
0.292636
0.263106
0.251877
0.254025
0.258953
0.266625
0.277546
0.290764
0.306913
0.319693
0.328243
0.301242
0.252914
0.255334
0.261019
0.270001
0.283123
0.299694
0.321527
0.342752
0.364955
0.346466
0.104499
0.0983567
0.0921183
0.0858279
0.0794621
0.0730201
0.0665228
0.0599956
0.0534637
0.046943
0.10806
0.101228
0.0942566
0.0872829
0.0802376
0.0730858
0.0658478
0.0585601
0.0512598
0.0439622
0.115112
0.106767
0.0981759
0.0897678
0.0813836
0.0728939
0.064303
0.0556637
0.0470453
0.0384265
0.126243
0.115546
0.10435
0.0937074
0.0833084
0.07283
0.0622372
0.0516117
0.0410646
0.030526
0.142282
0.128319
0.113334
0.0995307
0.0863715
0.0731954
0.0599042
0.0466451
0.0333731
0.0202093
0.164122
0.14589
0.125674
0.107603
0.0908098
0.074097
0.0572799
0.0406343
0.0240261
0.00755729
0.192859
0.169393
0.142249
0.118579
0.0970365
0.0756483
0.0541711
0.0334334
0.012727
-0.00775498
0.228894
0.199448
0.163759
0.133254
0.105802
0.0786694
0.051888
0.0252285
-0.00069018
-0.0258475
0.271833
0.235375
0.190178
0.151836
0.116746
0.0820236
0.0485891
0.0155185
-0.0161602
-0.0463699
0.321141
0.276871
0.223438
0.175938
0.130702
0.0861669
0.0433478
0.00268398
-0.0351122
-0.0702119
0.0404529
0.0340146
0.0276474
0.0213678
0.0151908
0.00912996
0.00319773
-0.00259488
-0.00823806
-0.0137223
0.0366949
0.0294872
0.022365
0.0153505
0.00846423
0.00172509
-0.00485
-0.0112465
-0.0174515
-0.0234296
0.0298427
0.0213347
0.0129317
0.00465546
-0.00347415
-0.0114381
-0.0192192
-0.0268029
-0.0341779
-0.0412546
0.0200378
0.00964655
-0.000621037
-0.0107475
-0.0207173
-0.0305153
-0.0401283
-0.0495452
-0.0587642
-0.0676513
0.00717523
-0.00572601
-0.0184877
-0.0311
-0.0435533
-0.0558415
-0.0679634
-0.0799237
-0.0917536
-0.103501
-0.00871295
-0.0247861
-0.0406856
-0.0564339
-0.0720524
-0.0875637
-0.102991
-0.118343
-0.13368
-0.149766
-0.0278925
-0.0477001
-0.0672234
-0.0865052
-0.105601
-0.1246
-0.143631
-0.162805
-0.18246
-0.204438
-0.050408
-0.0744823
-0.0981416
-0.121439
-0.144405
-0.167064
-0.189478
-0.211754
-0.235158
-0.262524
-0.0752853
-0.103036
-0.129794
-0.155826
-0.18148
-0.20714
-0.233147
-0.259784
-0.289254
-0.321899
-0.102663
-0.132452
-0.159732
-0.184903
-0.208648
-0.231923
-0.255845
-0.281883
-0.315834
-0.360555
-0.0267705
-0.0452534
-0.0611196
-0.0734656
-0.0817816
-0.0860507
-0.0866787
-0.0843687
-0.0798139
-0.0735539
-0.0657347
-0.056414
-0.0455538
-0.0340829
-0.0231037
-0.0149572
-0.0100925
-0.00862936
-0.00686764
-0.0034133
-0.037997
-0.0571381
-0.0723294
-0.0831837
-0.0895882
-0.0918163
-0.0905944
-0.0868904
-0.0814243
-0.0747105
-0.0666757
-0.057096
-0.0457686
-0.033662
-0.0220482
-0.0137105
-0.00927594
-0.00842662
-0.00719308
-0.00353079
-0.0585793
-0.0783773
-0.0917927
-0.0995777
-0.102331
-0.100921
-0.096579
-0.0904793
-0.0836396
-0.076406
-0.0682089
-0.058328
-0.0462754
-0.0331062
-0.0204247
-0.0117483
-0.00800038
-0.00802973
-0.00770318
-0.00360499
-0.0880853
-0.107602
-0.117634
-0.120442
-0.117706
-0.111247
-0.102747
-0.0938664
-0.0856522
-0.078109
-0.0699745
-0.0599184
-0.0470891
-0.0326654
-0.0187263
-0.00964865
-0.00661314
-0.00747639
-0.0081487
-0.00349157
-0.125044
-0.142631
-0.147736
-0.143526
-0.133668
-0.121009
-0.107902
-0.096231
-0.0868824
-0.079334
-0.0715342
-0.0615144
-0.0480685
-0.0325167
-0.0174524
-0.00798471
-0.00545381
-0.0068525
-0.00832813
-0.00314105
-0.165633
-0.179999
-0.179233
-0.166261
-0.148042
-0.128975
-0.111482
-0.0973151
-0.0870909
-0.0797219
-0.0724295
-0.0626825
-0.048942
-0.0326539
-0.0168656
-0.00711146
-0.00477195
-0.00629143
-0.00821746
-0.00259977
-0.203768
-0.215485
-0.208315
-0.185442
-0.159489
-0.134881
-0.113657
-0.0974173
-0.0864729
-0.0792448
-0.0724417
-0.0631277
-0.0494674
-0.0329448
-0.01695
-0.00709444
-0.00479022
-0.00591623
-0.00791126
-0.00195552
-0.235074
-0.245835
-0.231419
-0.199812
-0.168025
-0.139045
-0.114932
-0.0970707
-0.0854669
-0.0782013
-0.0717147
-0.0628599
-0.0495618
-0.0332524
-0.0175181
-0.00775436
-0.00535526
-0.00577188
-0.00752896
-0.00129438
-0.261411
-0.270355
-0.248086
-0.210046
-0.17419
-0.141952
-0.115789
-0.096691
-0.0844359
-0.0769335
-0.0705488
-0.062081
-0.0492843
-0.033489
-0.0183409
-0.00881845
-0.0062335
-0.00582374
-0.00715426
-0.000676328
-0.287281
-0.287119
-0.258184
-0.216109
-0.177894
-0.143676
-0.116358
-0.096398
-0.0834731
-0.0754579
-0.0688579
-0.0606175
-0.0484415
-0.0335071
-0.0193187
-0.0102167
-0.00735984
-0.00603746
-0.00679817
-0.000102625
-0.323646
-0.289804
-0.2585
-0.216426
-0.178759
-0.144579
-0.117263
-0.0968024
-0.0829508
-0.0736785
-0.0662113
-0.057989
-0.0467014
-0.0331884
-0.0205047
-0.0120756
-0.00881319
-0.00639748
-0.00646652
0.000394816
-0.335652
-0.289361
-0.257044
-0.213899
-0.176507
-0.142587
-0.115765
-0.0955524
-0.0815864
-0.0720515
-0.0645536
-0.0564049
-0.0455683
-0.0327946
-0.0209438
-0.0129586
-0.0095591
-0.00660494
-0.00628421
0.000694235
-0.338516
-0.286715
-0.25452
-0.210542
-0.173716
-0.14033
-0.114221
-0.0944801
-0.0804375
-0.0708823
-0.0631636
-0.0550062
-0.0445094
-0.0323662
-0.0212676
-0.0137238
-0.0102367
-0.00681672
-0.00613106
0.000960434
-0.337818
-0.28393
-0.252226
-0.207851
-0.17178
-0.138928
-0.113428
-0.0936919
-0.0796982
-0.0697452
-0.0617257
-0.0535369
-0.0434434
-0.0320231
-0.0217276
-0.0146109
-0.0109799
-0.00705575
-0.00598513
0.00121222
-0.335629
-0.281237
-0.250152
-0.205665
-0.170464
-0.138124
-0.11316
-0.0932746
-0.07904
-0.0685473
-0.0601338
-0.0519502
-0.04234
-0.0317511
-0.0223186
-0.0156126
-0.01178
-0.00731775
-0.00584609
0.00144902
-0.332852
-0.278642
-0.248332
-0.203933
-0.169655
-0.137849
-0.113039
-0.0932282
-0.0784637
-0.0673355
-0.0585125
-0.0502835
-0.0412144
-0.0315362
-0.0230028
-0.0166888
-0.0126121
-0.00759717
-0.00571787
0.00166679
-0.329956
-0.276634
-0.246955
-0.202757
-0.169404
-0.138164
-0.113375
-0.0933867
-0.0780026
-0.0661479
-0.056833
-0.0485712
-0.040087
-0.0313789
-0.0237634
-0.0178178
-0.0134625
-0.00789059
-0.00560265
0.00186292
-0.327718
-0.275355
-0.246102
-0.202204
-0.169707
-0.138506
-0.114193
-0.093753
-0.0776692
-0.0650125
-0.0551329
-0.0468457
-0.0389768
-0.031282
-0.0245892
-0.0189836
-0.0143204
-0.00819475
-0.00550145
0.00203566
-0.327031
-0.274172
-0.245795
-0.202236
-0.170274
-0.139737
-0.115263
-0.0943219
-0.0774705
-0.0639592
-0.0534738
-0.0451451
-0.0379045
-0.0312464
-0.0254658
-0.0201673
-0.0151747
-0.00850606
-0.00541505
0.00218347
-0.328294
-0.274356
-0.246102
-0.202829
-0.171585
-0.14123
-0.116557
-0.0950793
-0.0774152
-0.0630218
-0.0519061
-0.043511
-0.0368921
-0.0312715
-0.026377
-0.0213499
-0.0160144
-0.008821
-0.00534379
0.00230526
)
;

boundaryField
{
    inlet
    {
        type            freestreamPressure;
        freestreamValue uniform 0;
        value           nonuniform List<scalar> 
40
(
0.206398
0.198133
0.188272
0.176686
0.163426
0.148803
0.133502
0.118691
0.106105
0.0981582
0.241841
0.239341
0.23661
0.23366
0.230505
0.227159
0.223641
0.219967
0.216154
0.212189
0.253174
0.253135
0.252863
0.252359
0.251614
0.25062
0.249373
0.247871
0.246113
0.244101
0.207587
0.212597
0.220081
0.228169
0.235644
0.241854
0.246572
0.249848
0.251877
0.252914
)
;
    }
    outlet
    {
        type            freestreamPressure;
        freestreamValue uniform 0;
        value           nonuniform List<scalar> 
40
(
9.16327e-07
7.91067e-07
5.96342e-07
3.57123e-07
1.13916e-07
-7.62044e-08
-1.66694e-07
-1.5259e-07
-7.75863e-08
-1.02872e-08
4.58612e-07
5.61385e-07
6.60636e-07
7.51061e-07
8.28105e-07
8.88275e-07
9.29162e-07
9.49133e-07
9.48864e-07
9.37295e-07
1.14934e-09
2.81386e-11
1.78444e-09
1.07348e-08
3.08684e-08
6.53118e-08
1.15872e-07
1.82761e-07
2.64468e-07
3.57901e-07
-2.11821e-08
-1.74949e-07
-4.0255e-07
-5.71299e-07
-5.77535e-07
-4.37651e-07
-2.51484e-07
-1.0568e-07
-2.77634e-08
-1.43718e-09
)
;
    }
    top
    {
        type            symmetryPlane;
    }
    bottom
    {
        type            symmetryPlane;
    }
    cylinder
    {
        type            zeroGradient;
    }
    frontandback
    {
        type            empty;
    }
}


// ************************************************************************* //
