/*--------------------------------*- C++ -*----------------------------------*\
  =========                 |
  \\      /  F ield         | OpenFOAM: The Open Source CFD Toolbox
   \\    /   O peration     | Website:  https://openfoam.org
    \\  /    A nd           | Version:  6.0
     \\/     M anipulation  |
\*---------------------------------------------------------------------------*/
FoamFile
{
    version     2.0;
    format      ascii;
    class       volScalarField;
    location    "9";
    object      p;
}
// * * * * * * * * * * * * * * * * * * * * * * * * * * * * * * * * * * * * * //

dimensions      [0 2 -2 0 0 0 0];

internalField   nonuniform List<scalar> 
19200
(
-38.6956
-35.1018
-32.4689
-30.2873
-28.2733
-26.4233
-24.723
-23.1508
-21.6915
-20.3346
-19.0716
-17.8952
-16.7993
-15.7784
-14.8273
-13.9412
-13.1158
-12.3467
-11.6301
-10.9621
-10.3393
-9.7583
-9.21606
-8.70971
-8.23662
-7.79439
-7.3808
-6.99376
-6.63137
-6.29322
-39.0282
-35.4382
-32.8004
-30.6089
-28.5829
-26.7198
-25.0062
-23.4206
-21.9484
-20.5791
-19.3044
-18.1173
-17.0114
-15.9812
-15.0217
-14.1279
-13.2955
-12.52
-11.7976
-11.1242
-10.4965
-9.911
-9.36459
-8.85436
-8.37766
-7.93204
-7.51527
-7.12515
-6.75968
-6.41929
-39.3673
-35.7753
-33.1313
-30.9299
-28.8918
-27.0157
-25.2886
-23.6896
-22.2044
-20.8228
-19.5365
-18.3385
-17.2226
-16.1833
-15.2154
-14.314
-13.4746
-12.6928
-11.9645
-11.2859
-10.6534
-10.0634
-9.51283
-8.99876
-8.51847
-8.06948
-7.64955
-7.25635
-6.88781
-6.54524
-39.7099
-36.1136
-33.4622
-31.2503
-29.2
-27.3107
-25.5701
-23.9576
-22.4594
-21.0654
-19.7675
-18.5587
-17.4329
-16.3845
-15.4082
-14.4993
-13.653
-12.8649
-12.1309
-11.4471
-10.8097
-10.2153
-9.66063
-9.14277
-8.65892
-8.2066
-7.78352
-7.38725
-7.01565
-6.67097
-40.0541
-36.4525
-33.7928
-31.5702
-29.5074
-27.6047
-25.8504
-24.2245
-22.7132
-21.3069
-19.9974
-18.7778
-17.6421
-16.5846
-15.6001
-14.6836
-13.8305
-13.0362
-12.2965
-11.6075
-10.9654
-10.3666
-9.80792
-9.28629
-8.79893
-8.3433
-7.91709
-7.51777
-7.14314
-6.79641
-40.399
-36.7916
-34.1231
-31.8893
-29.8138
-27.8976
-26.1295
-24.49
-22.9657
-21.5469
-20.2259
-18.9956
-17.8501
-16.7836
-15.7909
-14.8669
-14.007
-13.2066
-12.4613
-11.7671
-11.1203
-10.5172
-9.95456
-9.42922
-8.93838
-8.47949
-8.05018
-7.64783
-7.27018
-6.92148
-40.7438
-37.1305
-34.4528
-32.2076
-30.119
-28.1891
-26.4072
-24.7541
-23.2167
-21.7855
-20.4529
-19.212
-18.0566
-16.9812
-15.9804
-15.049
-14.1824
-13.3759
-12.6251
-11.9259
-11.2744
-10.6671
-10.1005
-9.57146
-9.07719
-8.61507
-8.1827
-7.77734
-7.3967
-7.0461
-41.0881
-37.4687
-34.7816
-32.5246
-30.423
-28.4792
-26.6833
-25.0165
-23.4659
-22.0224
-20.6783
-19.4267
-18.2616
-17.1773
-16.1684
-15.2298
-14.3565
-13.544
-12.7877
-12.0836
-11.4275
-10.816
-10.2455
-9.7129
-9.21525
-8.74994
-8.31455
-7.90621
-7.52261
-7.17019
-41.4316
-37.8059
-35.1092
-32.8403
-30.7253
-28.7676
-26.9576
-25.2771
-23.7133
-22.2575
-20.9018
-19.6397
-18.4649
-17.3718
-16.3549
-15.4091
-14.5293
-13.7108
-12.9491
-12.2401
-11.5796
-10.9639
-10.3896
-9.85342
-9.35244
-8.88401
-8.44564
-8.03435
-7.64783
-7.29367
-41.7738
-38.1418
-35.4353
-33.1544
-31.0259
-29.054
-27.2299
-25.5356
-23.9587
-22.4905
-21.1233
-19.8507
-18.6663
-17.5645
-16.5397
-15.5867
-14.7005
-13.8761
-13.1092
-12.3953
-11.7303
-11.1106
-10.5326
-9.99292
-9.48868
-9.01717
-8.57588
-8.16167
-7.77227
-7.41647
-42.1145
-38.4762
-35.7598
-33.4665
-31.3245
-29.3384
-27.5001
-25.7919
-24.2018
-22.7212
-21.3427
-20.0596
-18.8657
-17.7552
-16.7226
-15.7626
-14.8699
-14.0399
-13.2677
-12.549
-11.8798
-11.2561
-10.6743
-10.1313
-9.62383
-9.14931
-8.70514
-8.28808
-7.89584
-7.53849
-42.4534
-38.8086
-36.0822
-33.7766
-31.6208
-29.6204
-27.7678
-26.0457
-24.4425
-22.9496
-21.5597
-20.2662
-19.0628
-17.9438
-16.9035
-15.9365
-15.0376
-14.2018
-13.4245
-12.7012
-12.0277
-11.4001
-10.8147
-10.2683
-9.75777
-9.28031
-8.83334
-8.41347
-8.01845
-7.65965
-42.7902
-39.1389
-36.4023
-34.0842
-31.9146
-29.8998
-28.0329
-26.2969
-24.6806
-23.1754
-21.7742
-20.4703
-19.2576
-18.1301
-17.0822
-16.1083
-15.2032
-14.3618
-13.5795
-12.8516
-12.1739
-11.5425
-10.9537
-10.404
-9.89038
-9.41005
-8.96035
-8.53773
-8.13999
-7.77986
-43.1246
-39.4668
-36.72
-34.3893
-32.2057
-30.1765
-28.2952
-26.5453
-24.9158
-23.3984
-21.986
-20.6718
-19.4498
-18.314
-17.2585
-16.2778
-15.3666
-14.5198
-13.7325
-13.0001
-12.3183
-11.6832
-11.0909
-10.5381
-10.0215
-9.5384
-9.08604
-8.66075
-8.26036
-7.899
-43.4565
-39.7921
-37.035
-34.6915
-32.4939
-30.4502
-28.5544
-26.7907
-25.148
-23.6184
-22.1948
-20.8705
-19.6393
-18.4952
-17.4323
-16.4449
-15.5277
-14.6755
-13.8833
-13.1465
-12.4608
-11.822
-11.2264
-10.6705
-10.151
-9.6652
-9.21027
-8.78239
-8.37942
-8.01697
-43.7856
-40.1146
-37.347
-34.9907
-32.779
-30.7206
-28.8104
-27.0328
-25.377
-23.8353
-22.4006
-21.0662
-19.8259
-18.6736
-17.6033
-16.6094
-15.6863
-14.8288
-14.0318
-13.2907
-12.6011
-11.9587
-11.3599
-10.8009
-10.2787
-9.79028
-9.33289
-8.9025
-8.49705
-8.13363
-44.1117
-40.4339
-37.6558
-35.2866
-33.0606
-30.9877
-29.063
-27.2714
-25.6026
-24.0489
-22.6031
-21.2587
-20.0094
-18.849
-17.7715
-16.7711
-15.8422
-14.9794
-14.1778
-13.4325
-12.739
-12.0932
-11.4912
-10.9293
-10.4044
-9.91347
-9.4537
-9.02091
-8.61306
-8.24882
-44.4346
-40.7501
-37.9613
-35.5791
-33.3388
-31.2511
-29.3119
-27.5065
-25.8247
-24.2589
-22.8021
-21.4478
-20.1896
-19.0212
-17.9365
-16.9298
-15.9951
-15.1273
-14.3211
-13.5716
-12.8744
-12.2252
-11.6201
-11.0554
-10.5279
-10.0345
-9.57251
-9.13741
-8.72727
-8.36235
-44.7541
-41.0628
-38.2633
-35.8678
-33.6131
-31.5107
-29.557
-27.7377
-26.0429
-24.4651
-22.9975
-21.6334
-20.3664
-19.1901
-18.0984
-17.0853
-16.1451
-15.2722
-14.4614
-13.7079
-13.007
-12.3545
-11.7463
-11.1789
-10.6489
-10.1533
-9.68907
-9.25178
-8.83945
-8.474
-45.0702
-41.3719
-38.5615
-36.1527
-33.8835
-31.7662
-29.798
-27.9648
-26.2572
-24.6675
-23.1891
-21.8153
-20.5395
-19.3554
-18.2568
-17.2375
-16.2917
-15.4139
-14.5986
-13.8411
-13.1366
-12.4808
-11.8698
-11.2997
-10.7672
-10.2694
-9.8031
-9.36373
-8.94931
-8.58349
-45.3827
-41.6773
-38.8558
-36.4336
-34.1498
-32.0176
-30.0348
-28.1878
-26.4673
-24.8659
-23.3768
-21.9933
-20.7089
-19.5171
-18.4116
-17.3862
-16.4349
-15.5522
-14.7326
-13.9711
-13.263
-12.604
-11.9901
-11.4174
-10.8825
-10.3825
-9.91429
-9.47293
-9.05652
-8.69047
-45.6916
-41.9789
-39.1461
-36.7103
-34.4117
-32.2645
-30.2672
-28.4064
-26.6731
-25.06
-23.5603
-22.1673
-20.8744
-19.675
-18.5627
-17.5312
-16.5746
-15.687
-14.863
-14.0976
-13.386
-12.7238
-12.107
-11.5317
-10.9945
-10.4924
-10.0223
-9.57901
-9.16068
-8.79449
-45.997
-42.2766
-39.4322
-36.9825
-34.669
-32.5068
-30.4949
-28.6204
-26.8744
-25.2496
-23.7395
-22.3371
-21.0358
-19.8289
-18.7099
-17.6725
-16.7105
-15.8181
-14.9898
-14.2204
-13.5053
-12.8399
-12.2202
-11.6423
-11.1028
-10.5986
-10.1266
-9.68152
-9.26131
-8.89507
-46.2992
-42.5704
-39.714
-37.2501
-34.9215
-32.7443
-30.7178
-28.8297
-27.071
-25.4348
-23.9142
-22.5026
-21.193
-19.9787
-18.8531
-17.8098
-16.8425
-15.9453
-15.1127
-14.3394
-13.6208
-12.9521
-12.3295
-11.7489
-11.207
-10.7007
-10.2269
-9.77998
-9.3579
-8.99178
-46.5983
-42.86
-39.9912
-37.5129
-35.1691
-32.9767
-30.9358
-29.034
-27.2628
-25.6152
-24.0844
-22.6636
-21.3459
-20.1243
-18.9922
-17.9431
-16.9705
-16.0686
-15.2317
-14.4545
-13.7322
-13.0603
-12.4345
-11.8512
-11.3068
-10.7983
-10.3225
-9.87371
-9.44977
-9.08389
-46.8946
-43.1453
-40.2635
-37.7705
-35.4114
-33.2038
-31.1484
-29.2332
-27.4496
-25.7908
-24.25
-22.8202
-21.4944
-20.2657
-19.1272
-18.0723
-17.0946
-16.1879
-15.3466
-14.5655
-13.8395
-13.1641
-12.5353
-11.949
-11.4019
-10.8909
-10.4129
-9.96207
-9.53607
-9.16977
-47.1891
-43.4264
-40.5306
-38.0227
-35.648
-33.4253
-31.3556
-29.427
-27.6312
-25.9615
-24.4108
-22.9721
-21.6385
-20.4028
-19.258
-18.1975
-17.2146
-16.3032
-15.4576
-14.6724
-13.9427
-13.2638
-12.6315
-12.0421
-11.4921
-10.9784
-10.498
-10.0449
-9.61617
-9.24793
-47.4865
-43.7044
-40.7921
-38.2686
-35.8783
-33.6406
-31.5567
-29.6151
-27.8074
-26.1269
-24.5665
-23.1193
-21.778
-20.5355
-19.3846
-18.3185
-17.3306
-16.4146
-15.5647
-14.7754
-14.0418
-13.3592
-12.7234
-12.1305
-11.5771
-11.0604
-10.5774
-10.1215
-9.68945
-9.32105
-47.7898
-43.979
-41.0465
-38.5071
-36.1017
-33.8494
-31.7518
-29.7974
-27.9781
-26.2871
-24.7174
-23.2618
-21.9131
-20.6639
-19.507
-18.4355
-17.4426
-16.5221
-15.6679
-14.8745
-14.137
-13.4505
-12.8108
-12.2141
-11.6568
-11.1362
-10.6489
-10.1882
-9.75307
-9.39261
-48.0757
-44.2409
-41.2912
-38.7378
-36.3187
-34.0526
-31.9416
-29.9748
-28.1441
-26.4428
-24.8639
-23.4002
-22.0442
-20.7885
-19.6259
-18.5491
-17.5514
-16.6263
-15.7679
-14.9705
-14.229
-13.5386
-12.8949
-12.2939
-11.7321
-11.2062
-10.7117
-10.2429
-9.80586
-9.44665
-52.2084
-52.1925
-52.1581
-52.12
-52.0763
-52.0244
-51.9636
-51.8938
-51.8149
-51.7268
-51.6295
-51.5232
-51.4077
-51.2834
-51.1503
-51.0086
-50.8584
-50.7001
-50.5337
-50.3595
-50.1777
-49.9887
-49.7926
-49.5898
-49.3808
-49.1661
-48.9465
-48.7237
-48.5006
-48.2819
-48.221
-48.2196
-48.2029
-48.177
-48.1422
-48.0978
-48.0436
-47.98
-47.907
-47.8247
-47.7332
-47.6326
-47.5231
-47.4046
-47.2775
-47.1419
-46.9979
-46.8457
-46.6856
-46.5177
-46.3423
-46.1596
-45.9699
-45.7735
-45.5707
-45.3619
-45.1478
-44.9288
-44.7055
-44.4766
-45.0118
-45.0205
-45.0164
-45.001
-44.9753
-44.9396
-44.8941
-44.8391
-44.7747
-44.701
-44.6182
-44.5263
-44.4256
-44.3162
-44.1982
-44.0718
-43.9371
-43.7944
-43.6439
-43.4856
-43.3199
-43.1469
-42.9669
-42.7801
-42.5868
-42.3871
-42.1813
-41.9695
-41.7513
-41.5256
-42.1547
-42.1706
-42.1752
-42.1687
-42.1518
-42.1251
-42.0887
-42.0429
-41.9878
-41.9236
-41.8505
-41.7685
-41.6778
-41.5785
-41.4709
-41.3551
-41.2311
-41.0993
-40.9598
-40.8127
-40.6582
-40.4966
-40.3279
-40.1525
-39.9704
-39.7818
-39.5867
-39.3851
-39.1768
-38.9613
-39.4281
-39.4496
-39.4611
-39.4621
-39.4531
-39.4345
-39.4066
-39.3694
-39.3232
-39.2682
-39.2044
-39.1321
-39.0513
-38.9622
-38.865
-38.7597
-38.6467
-38.5259
-38.3977
-38.262
-38.1192
-37.9693
-37.8126
-37.6491
-37.4789
-37.3022
-37.1191
-36.9293
-36.733
-36.5296
-36.8728
-36.8987
-36.9155
-36.9225
-36.9199
-36.9081
-36.8873
-36.8576
-36.8192
-36.7723
-36.717
-36.6534
-36.5816
-36.5019
-36.4143
-36.3191
-36.2162
-36.1059
-35.9884
-35.8638
-35.7321
-35.5937
-35.4485
-35.2967
-35.1384
-34.9737
-34.8026
-34.6251
-34.4411
-34.2505
-34.5027
-34.5317
-34.5523
-34.5637
-34.5659
-34.5594
-34.5443
-34.5207
-34.4888
-34.4487
-34.4005
-34.3444
-34.2806
-34.209
-34.13
-34.0435
-33.9498
-33.849
-33.7413
-33.6266
-33.5053
-33.3774
-33.243
-33.1023
-32.9552
-32.8019
-32.6424
-32.4768
-32.3048
-32.1266
-32.3119
-32.3427
-32.3656
-32.3799
-32.3856
-32.383
-32.3721
-32.3532
-32.3264
-32.2917
-32.2494
-32.1995
-32.1422
-32.0776
-32.0058
-31.9269
-31.8412
-31.7486
-31.6494
-31.5436
-31.4315
-31.313
-31.1884
-31.0576
-30.9208
-30.7781
-30.6294
-30.4748
-30.3142
-30.1477
-30.2925
-30.3241
-30.3482
-30.3642
-30.3721
-30.372
-30.3642
-30.3488
-30.3257
-30.2953
-30.2575
-30.2126
-30.1605
-30.1015
-30.0357
-29.9632
-29.8841
-29.7985
-29.7067
-29.6085
-29.5043
-29.3942
-29.2781
-29.1562
-29.0286
-28.8953
-28.7564
-28.6118
-28.4617
-28.3059
-28.4353
-28.4668
-28.4912
-28.508
-28.517
-28.5185
-28.5127
-28.4995
-28.4792
-28.4519
-28.4175
-28.3764
-28.3285
-28.274
-28.213
-28.1457
-28.072
-27.9923
-27.9066
-27.8149
-27.7175
-27.6145
-27.5058
-27.3917
-27.2721
-27.1472
-27.017
-26.8815
-26.7407
-26.5946
-26.7295
-26.7602
-26.7842
-26.8009
-26.8103
-26.8126
-26.8078
-26.7962
-26.7777
-26.7525
-26.7207
-26.6824
-26.6376
-26.5866
-26.5295
-26.4663
-26.3971
-26.3222
-26.2415
-26.1553
-26.0637
-25.9666
-25.8644
-25.7569
-25.6444
-25.5268
-25.4042
-25.2767
-25.1442
-25.0068
-25.1633
-25.1928
-25.2158
-25.2319
-25.2411
-25.2435
-25.2392
-25.2284
-25.211
-25.1873
-25.1572
-25.1209
-25.0786
-25.0303
-24.9761
-24.9161
-24.8506
-24.7795
-24.7031
-24.6214
-24.5345
-24.4426
-24.3457
-24.244
-24.1375
-24.0263
-23.9105
-23.79
-23.6648
-23.535
-23.725
-23.7529
-23.7747
-23.7898
-23.7984
-23.8005
-23.7962
-23.7856
-23.7688
-23.7459
-23.717
-23.6822
-23.6416
-23.5953
-23.5434
-23.486
-23.4233
-23.3554
-23.2824
-23.2044
-23.1216
-23.0339
-22.9417
-22.8449
-22.7436
-22.638
-22.5279
-22.4136
-22.2949
-22.1719
-22.4032
-22.4294
-22.4497
-22.4636
-22.4713
-22.4727
-22.4681
-22.4574
-22.4408
-22.4184
-22.3902
-22.3563
-22.317
-22.2721
-22.222
-22.1667
-22.1063
-22.0409
-21.9707
-21.8957
-21.8162
-21.7322
-21.6439
-21.5513
-21.4545
-21.3537
-21.2488
-21.1398
-21.0269
-20.9099
-21.1872
-21.2116
-21.2302
-21.2428
-21.2493
-21.25
-21.2447
-21.2337
-21.217
-21.1948
-21.167
-21.1338
-21.0952
-21.0515
-21.0027
-20.949
-20.8904
-20.827
-20.7591
-20.6867
-20.61
-20.5291
-20.4441
-20.3551
-20.2622
-20.1655
-20.0651
-19.961
-19.8532
-19.7416
-20.0669
-20.0894
-20.1064
-20.1176
-20.123
-20.1226
-20.1167
-20.1052
-20.0882
-20.0659
-20.0383
-20.0054
-19.9675
-19.9246
-19.8768
-19.8243
-19.7672
-19.7055
-19.6395
-19.5692
-19.4948
-19.4165
-19.3343
-19.2484
-19.1589
-19.0659
-18.9695
-18.8697
-18.7664
-18.6597
-19.0332
-19.0539
-19.0693
-19.079
-19.0832
-19.0819
-19.0751
-19.063
-19.0457
-19.0232
-18.9955
-18.9629
-18.9254
-18.8831
-18.8361
-18.7845
-18.7286
-18.6683
-18.6038
-18.5353
-18.463
-18.3868
-18.3071
-18.2239
-18.1374
-18.0476
-17.9547
-17.8587
-17.7596
-17.6573
-18.0778
-18.0968
-18.1106
-18.1189
-18.1219
-18.1196
-18.112
-18.0993
-18.0815
-18.0587
-18.0309
-17.9984
-17.9612
-17.9193
-17.8729
-17.8222
-17.7672
-17.708
-17.6449
-17.5779
-17.5072
-17.433
-17.3554
-17.2745
-17.1906
-17.1037
-17.014
-16.9215
-16.8261
-16.7279
-17.1932
-17.2106
-17.2229
-17.2299
-17.2317
-17.2284
-17.22
-17.2066
-17.1884
-17.1652
-17.1374
-17.1048
-17.0678
-17.0262
-16.9804
-16.9303
-16.876
-16.8179
-16.7559
-16.6902
-16.6209
-16.5484
-16.4726
-16.3938
-16.3122
-16.2279
-16.141
-16.0517
-15.9598
-15.8654
-16.3729
-16.3887
-16.3995
-16.4053
-16.406
-16.4017
-16.3926
-16.3786
-16.3598
-16.3364
-16.3083
-16.2758
-16.2388
-16.1975
-16.1521
-16.1025
-16.049
-15.9916
-15.9306
-15.866
-15.7981
-15.7269
-15.6528
-15.5758
-15.4962
-15.4142
-15.33
-15.2435
-15.1549
-15.0641
-15.6107
-15.625
-15.6346
-15.6391
-15.6388
-15.6336
-15.6237
-15.6091
-15.5899
-15.5662
-15.5379
-15.5054
-15.4685
-15.4274
-15.3823
-15.3332
-15.2803
-15.2237
-15.1635
-15.0999
-15.0331
-14.9632
-14.8904
-14.8151
-14.7373
-14.6573
-14.5754
-14.4916
-14.4061
-14.3188
-14.9014
-14.9144
-14.9226
-14.9261
-14.9248
-14.9188
-14.9083
-14.8931
-14.8735
-14.8494
-14.821
-14.7884
-14.7516
-14.7107
-14.6659
-14.6172
-14.5648
-14.5089
-14.4494
-14.3867
-14.3208
-14.2521
-14.1805
-14.1066
-14.0304
-13.9522
-13.8724
-13.7912
-13.7085
-13.6246
-14.2402
-14.2519
-14.2591
-14.2615
-14.2593
-14.2526
-14.2414
-14.2257
-14.2057
-14.1813
-14.1528
-14.1201
-14.0834
-14.0427
-13.9981
-13.9499
-13.898
-13.8426
-13.7838
-13.7219
-13.6569
-13.589
-13.5186
-13.4458
-13.371
-13.2944
-13.2165
-13.1375
-13.0577
-12.977
-13.6229
-13.6335
-13.6395
-13.641
-13.6381
-13.6306
-13.6188
-13.6027
-13.5823
-13.5577
-13.529
-13.4963
-13.4597
-13.4192
-13.3749
-13.327
-13.2755
-13.2207
-13.1625
-13.1012
-13.037
-12.97
-12.9005
-12.8287
-12.755
-12.6798
-12.6035
-12.5266
-12.4494
-12.372
-13.0457
-13.0552
-13.0603
-13.061
-13.0572
-13.0492
-13.0368
-13.0203
-12.9996
-12.9748
-12.946
-12.9133
-12.8767
-12.8364
-12.7923
-12.7448
-12.6937
-12.6394
-12.5818
-12.5211
-12.4575
-12.3913
-12.3225
-12.2516
-12.1788
-12.1047
-12.0297
-11.9546
-11.8798
-11.8059
-12.5053
-12.5137
-12.5179
-12.5178
-12.5134
-12.5047
-12.4919
-12.475
-12.454
-12.429
-12.4001
-12.3674
-12.3309
-12.2907
-12.2469
-12.1997
-12.149
-12.0951
-12.038
-11.9779
-11.9149
-11.8493
-11.7812
-11.7109
-11.6388
-11.5655
-11.4915
-11.4178
-11.3451
-11.2746
-11.9986
-12.0061
-12.0095
-12.0086
-12.0035
-11.9943
-11.981
-11.9637
-11.9425
-11.9173
-11.8883
-11.8555
-11.8191
-11.779
-11.7354
-11.6884
-11.6381
-11.5845
-11.5278
-11.4681
-11.4056
-11.3404
-11.2728
-11.2029
-11.1312
-11.0583
-10.9847
-10.9119
-10.8406
-10.7734
-11.5229
-11.5297
-11.5324
-11.5309
-11.5253
-11.5157
-11.5021
-11.4846
-11.4631
-11.4378
-11.4088
-11.3761
-11.3397
-11.2998
-11.2564
-11.2097
-11.1597
-11.1065
-11.0502
-10.9909
-10.9288
-10.8639
-10.7966
-10.727
-10.6555
-10.5826
-10.509
-10.4365
-10.3659
-10.3011
-11.0755
-11.0819
-11.0843
-11.0826
-11.077
-11.0673
-11.0538
-11.0364
-11.0151
-10.9902
-10.9615
-10.9292
-10.8934
-10.8541
-10.8114
-10.7654
-10.7162
-10.6638
-10.6084
-10.5501
-10.4889
-10.425
-10.3586
-10.2898
-10.2189
-10.1465
-10.0732
-10.0012
-9.93149
-9.87128
-10.6547
-10.6596
-10.6607
-10.6579
-10.6512
-10.6408
-10.6266
-10.6087
-10.5871
-10.562
-10.5333
-10.5012
-10.4657
-10.4268
-10.3847
-10.3394
-10.2911
-10.2397
-10.1854
-10.1282
-10.0683
-10.0057
-9.94052
-9.87297
-9.80319
-9.73154
-9.65844
-9.5859
-9.51426
-9.46615
-47.239
-47.5247
-47.7895
-48.0581
-48.3271
-48.5913
-48.8491
-49.0998
-49.3428
-49.5775
-49.8033
-50.02
-50.227
-50.4242
-50.6113
-50.7882
-50.9546
-51.1104
-51.2556
-51.39
-51.5137
-51.6265
-51.7285
-51.8199
-51.9006
-51.9711
-52.0318
-52.0834
-52.1279
-52.1679
-43.2002
-43.5005
-43.7855
-44.0648
-44.3388
-44.6055
-44.8646
-45.1157
-45.3587
-45.5931
-45.8188
-46.0353
-46.2423
-46.4397
-46.6272
-46.8047
-46.972
-47.1289
-47.2754
-47.4114
-47.5368
-47.6516
-47.7558
-47.8495
-47.9327
-48.0057
-48.0687
-48.1218
-48.1656
-48.1988
-39.9493
-40.2517
-40.5429
-40.8249
-41.099
-41.3653
-41.6237
-41.874
-42.1161
-42.3498
-42.5748
-42.7909
-42.9979
-43.1954
-43.3834
-43.5617
-43.7301
-43.8885
-44.0368
-44.175
-44.3028
-44.4204
-44.5277
-44.6246
-44.7113
-44.7878
-44.8541
-44.9101
-44.9556
-44.9897
-37.0887
-37.3858
-37.6742
-37.9535
-38.2246
-38.488
-38.7435
-38.9912
-39.2309
-39.4623
-39.6854
-39.8998
-40.1053
-40.3019
-40.4893
-40.6673
-40.8359
-40.9949
-41.1441
-41.2836
-41.4132
-41.5329
-41.6426
-41.7424
-41.8321
-41.9118
-41.9814
-42.0408
-42.0898
-42.1279
-34.4043
-34.693
-34.9748
-35.2484
-35.5142
-35.7724
-36.0232
-36.2663
-36.5016
-36.7291
-36.9484
-37.1594
-37.3621
-37.556
-37.7413
-37.9176
-38.0849
-38.243
-38.3918
-38.5313
-38.6613
-38.7818
-38.8928
-38.9942
-39.0859
-39.1679
-39.2402
-39.3025
-39.3548
-39.3968
-31.9342
-32.2132
-32.4864
-32.7523
-33.0108
-33.2621
-33.5063
-33.7431
-33.9726
-34.1944
-34.4085
-34.6147
-34.8129
-35.0029
-35.1845
-35.3577
-35.5222
-35.678
-35.825
-35.963
-36.0921
-36.2121
-36.323
-36.4247
-36.5171
-36.6003
-36.674
-36.7383
-36.793
-36.838
-29.6847
-29.9534
-30.2168
-30.4737
-30.7236
-30.9667
-31.2031
-31.4325
-31.6549
-31.87
-32.0777
-32.278
-32.4706
-32.6553
-32.8322
-33.0009
-33.1615
-33.3138
-33.4577
-33.5931
-33.7199
-33.8381
-33.9476
-34.0484
-34.1403
-34.2234
-34.2976
-34.3627
-34.4187
-34.4655
-27.6407
-27.8987
-28.1519
-28.399
-28.6396
-28.8739
-29.1017
-29.323
-29.5375
-29.7452
-29.9458
-30.1393
-30.3255
-30.5042
-30.6754
-30.8389
-30.9946
-31.1424
-31.2822
-31.4139
-31.5375
-31.6529
-31.7601
-31.8588
-31.9492
-32.0312
-32.1046
-32.1695
-32.2258
-32.2734
-25.7855
-26.0328
-26.2756
-26.5128
-26.7439
-26.969
-27.188
-27.4008
-27.6071
-27.8069
-28
-28.1862
-28.3655
-28.5377
-28.7026
-28.8603
-29.0105
-29.1532
-29.2883
-29.4157
-29.5353
-29.6471
-29.7511
-29.8471
-29.9351
-30.015
-30.0869
-30.1507
-30.2063
-30.2537
-24.102
-24.3389
-24.5715
-24.7988
-25.0205
-25.2364
-25.4466
-25.6508
-25.8489
-26.0406
-26.226
-26.4049
-26.5771
-26.7425
-26.9009
-27.0524
-27.1968
-27.334
-27.464
-27.5866
-27.7017
-27.8095
-27.9097
-28.0023
-28.0873
-28.1647
-28.2344
-28.2963
-28.3505
-28.397
-22.5729
-22.7998
-23.0227
-23.2405
-23.4529
-23.66
-23.8615
-24.0573
-24.2472
-24.4311
-24.6089
-24.7804
-24.9455
-25.1041
-25.256
-25.4012
-25.5397
-25.6712
-25.7958
-25.9134
-26.0239
-26.1272
-26.2234
-26.3123
-26.394
-26.4683
-26.5353
-26.595
-26.6473
-26.6923
-21.182
-21.3995
-21.613
-21.8218
-22.0254
-22.2239
-22.4171
-22.6048
-22.7869
-22.9632
-23.1335
-23.2979
-23.456
-23.6079
-23.7534
-23.8925
-24.025
-24.1509
-24.2701
-24.3826
-24.4883
-24.5872
-24.6791
-24.7642
-24.8422
-24.9133
-24.9774
-25.0345
-25.0845
-25.1276
-19.9141
-20.1227
-20.3275
-20.5277
-20.7231
-20.9135
-21.0988
-21.2788
-21.4534
-21.6224
-21.7857
-21.9431
-22.0946
-22.24
-22.3793
-22.5124
-22.6391
-22.7595
-22.8735
-22.9809
-23.0819
-23.1762
-23.264
-23.3451
-23.4195
-23.4873
-23.5483
-23.6026
-23.6502
-23.6911
-18.7558
-18.9561
-19.1527
-19.3449
-19.5325
-19.7153
-19.8932
-20.066
-20.2335
-20.3956
-20.5521
-20.703
-20.8481
-20.9874
-21.1207
-21.248
-21.3693
-21.4843
-21.5932
-21.6958
-21.7921
-21.8821
-21.9658
-22.043
-22.1138
-22.1782
-22.2361
-22.2876
-22.3326
-22.3713
-17.6949
-17.8874
-18.0765
-18.2612
-18.4416
-18.6173
-18.7883
-18.9543
-19.1151
-19.2707
-19.421
-19.5657
-19.7048
-19.8382
-19.9659
-20.0878
-20.2037
-20.3137
-20.4178
-20.5157
-20.6076
-20.6934
-20.773
-20.8465
-20.9137
-20.9748
-21.0297
-21.0784
-21.1209
-21.1572
-16.7208
-16.9062
-17.0882
-17.2661
-17.4397
-17.6088
-17.7733
-17.933
-18.0877
-18.2372
-18.3815
-18.5204
-18.6539
-18.7819
-18.9042
-19.0209
-19.1319
-19.2371
-19.3365
-19.4301
-19.5177
-19.5995
-19.6753
-19.7452
-19.8091
-19.867
-19.9189
-19.9649
-20.0049
-20.039
-15.8243
-16.0031
-16.1785
-16.35
-16.5174
-16.6804
-16.8389
-16.9927
-17.1416
-17.2855
-17.4242
-17.5577
-17.6859
-17.8087
-17.9261
-18.038
-18.1443
-18.245
-18.34
-18.4294
-18.5131
-18.5911
-18.6633
-18.7297
-18.7904
-18.8453
-18.8944
-18.9378
-18.9754
-19.0072
-14.9973
-15.1698
-15.3392
-15.5048
-15.6665
-15.8239
-15.9768
-16.1251
-16.2686
-16.4072
-16.5408
-16.6692
-16.7925
-16.9104
-17.0231
-17.1304
-17.2323
-17.3288
-17.4198
-17.5053
-17.5852
-17.6596
-17.7284
-17.7917
-17.8493
-17.9014
-17.9478
-17.9887
-18.024
-18.0538
-14.2326
-14.3993
-14.5631
-14.7234
-14.8797
-15.0319
-15.1797
-15.3229
-15.4614
-15.5951
-15.7238
-15.8474
-15.966
-16.0795
-16.1878
-16.2909
-16.3887
-16.4811
-16.5683
-16.6501
-16.7266
-16.7976
-16.8632
-16.9235
-16.9783
-17.0276
-17.0716
-17.1101
-17.1432
-17.171
-13.524
-13.6854
-13.844
-13.9994
-14.1508
-14.2982
-14.4412
-14.5797
-14.7135
-14.8425
-14.9667
-15.0859
-15.2001
-15.3094
-15.4135
-15.5126
-15.6065
-15.6953
-15.7789
-15.8573
-15.9304
-15.9984
-16.061
-16.1184
-16.1705
-16.2174
-16.259
-16.2953
-16.3264
-16.3523
-12.866
-13.0224
-13.1764
-13.3272
-13.4742
-13.6172
-13.7557
-13.8898
-14.0192
-14.1439
-14.2638
-14.3788
-14.489
-14.5942
-14.6945
-14.7898
-14.8801
-14.9654
-15.0457
-15.1208
-15.1909
-15.2559
-15.3158
-15.3705
-15.4202
-15.4647
-15.5041
-15.5384
-15.5676
-15.5917
-12.2538
-12.4054
-12.5553
-12.7021
-12.8451
-12.9839
-13.1183
-13.2482
-13.3735
-13.4941
-13.6099
-13.721
-13.8273
-13.9288
-14.0255
-14.1173
-14.2042
-14.2862
-14.3633
-14.4355
-14.5027
-14.565
-14.6222
-14.6745
-14.7218
-14.7642
-14.8015
-14.8339
-14.8614
-14.8839
-11.6828
-11.8302
-11.9765
-12.1198
-12.259
-12.394
-12.5246
-12.6506
-12.7719
-12.8886
-13.0007
-13.1081
-13.2107
-13.3087
-13.402
-13.4905
-13.5742
-13.6532
-13.7273
-13.7967
-13.8612
-13.9209
-13.9757
-14.0257
-14.0709
-14.1112
-14.1466
-14.1772
-14.203
-14.2241
-11.1491
-11.2926
-11.4361
-11.5763
-11.7122
-11.8436
-11.9706
-12.0929
-12.2105
-12.3236
-12.432
-12.5359
-12.6351
-12.7298
-12.8198
-12.9052
-12.986
-13.062
-13.1335
-13.2002
-13.2622
-13.3195
-13.3721
-13.4199
-13.463
-13.5014
-13.5351
-13.5641
-13.5884
-13.608
-10.6489
-10.7893
-10.9309
-11.0685
-11.2013
-11.3295
-11.4529
-11.5717
-11.6858
-11.7954
-11.9004
-12.001
-12.097
-12.1885
-12.2755
-12.3579
-12.4359
-12.5093
-12.5781
-12.6423
-12.702
-12.7571
-12.8075
-12.8534
-12.8946
-12.9313
-12.9633
-12.9908
-13.0136
-13.032
-10.1789
-10.3176
-10.4586
-10.5941
-10.7239
-10.849
-10.9691
-11.0845
-11.1952
-11.3014
-11.4031
-11.5005
-11.5934
-11.6819
-11.766
-11.8457
-11.921
-11.9918
-12.0582
-12.1201
-12.1775
-12.2305
-12.279
-12.3229
-12.3624
-12.3974
-12.4279
-12.4539
-12.4755
-12.4926
-9.73299
-9.87409
-10.0167
-10.1501
-10.2771
-10.3991
-10.516
-10.6281
-10.7355
-10.8385
-10.9371
-11.0314
-11.1214
-11.2071
-11.2885
-11.3655
-11.4383
-11.5067
-11.5708
-11.6305
-11.6858
-11.7368
-11.7834
-11.8256
-11.8634
-11.8969
-11.9259
-11.9506
-11.971
-11.987
-9.29879
-9.44796
-9.59618
-9.72848
-9.85296
-9.97219
-10.0862
-10.1952
-10.2997
-10.3998
-10.4957
-10.5873
-10.6747
-10.758
-10.837
-10.9118
-10.9824
-11.0488
-11.1109
-11.1688
-11.2224
-11.2717
-11.3167
-11.3575
-11.394
-11.4261
-11.454
-11.4776
-11.497
-11.5121
-8.87258
-9.03273
-9.19099
-9.32439
-9.44705
-9.56386
-9.67528
-9.78176
-9.88374
-9.98148
-10.0751
-10.1645
-10.2498
-10.331
-10.4081
-10.4811
-10.5499
-10.6146
-10.6751
-10.7315
-10.7837
-10.8317
-10.8756
-10.9152
-10.9507
-10.9819
-11.009
-11.0319
-11.0506
-11.0652
-8.53694
-8.70881
-8.86522
-8.9976
-9.11644
-9.22797
-9.33442
-9.43618
-9.53355
-9.62677
-9.71595
-9.80109
-9.88221
-9.95931
-10.0324
-10.1015
-10.1666
-10.2276
-10.2846
-10.3377
-10.3866
-10.4316
-10.4725
-10.5094
-10.5422
-10.571
-10.5957
-10.6165
-10.6332
-10.6459
-4.25145
-4.51678
-4.80091
-5.10422
-5.42847
-5.77552
-6.14724
-6.54574
-6.97339
-7.4329
-7.92734
-8.46023
-9.03565
-9.65833
-10.3338
-11.0686
-11.8703
-12.7481
-13.7124
-14.7759
-15.9534
-17.2619
-18.7212
-20.3533
-22.1833
-24.2392
-26.5327
-29.0492
-32.0235
-35.867
-4.39812
-4.66752
-4.95419
-5.26051
-5.58815
-5.93881
-6.31438
-6.71701
-7.1491
-7.6134
-8.11301
-8.6515
-9.23298
-9.86224
-10.5449
-11.2874
-12.0976
-12.9846
-13.9589
-15.0334
-16.2227
-17.544
-19.0171
-20.6638
-22.5091
-24.5805
-26.8893
-29.419
-32.4008
-36.2413
-4.54571
-4.8192
-5.10846
-5.41784
-5.74895
-6.10329
-6.48278
-6.8896
-7.32622
-7.79538
-8.30024
-8.8444
-9.43203
-10.068
-10.7578
-11.5083
-12.327
-13.2233
-14.2078
-15.2933
-16.4945
-17.8288
-19.3157
-20.977
-22.8375
-24.9242
-27.2474
-29.7891
-32.7763
-36.6108
-4.69406
-4.97163
-5.26354
-5.57604
-5.91067
-6.26876
-6.65222
-7.0633
-7.50449
-7.97857
-8.48874
-9.03863
-9.63247
-10.2751
-10.9723
-11.7307
-12.5581
-13.4637
-14.4584
-15.555
-16.7682
-18.1154
-19.6162
-21.2921
-23.1676
-25.2693
-27.6066
-30.1605
-33.1552
-36.9893
-4.84304
-5.12472
-5.41929
-5.73499
-6.0732
-6.43508
-6.82257
-7.23797
-7.68378
-8.16285
-8.67838
-9.23407
-9.83417
-10.4836
-11.1881
-11.9545
-12.7906
-13.7056
-14.7106
-15.8183
-17.0436
-18.4037
-19.9183
-21.6088
-23.4993
-25.6158
-27.9673
-30.5336
-33.5374
-37.3745
-4.99256
-5.27832
-5.5756
-5.89455
-6.23641
-6.60214
-6.99372
-7.41349
-7.86398
-8.34808
-8.86903
-9.43057
-10.037
-10.6933
-11.4052
-12.1796
-13.0244
-13.949
-14.9643
-16.0831
-17.3205
-18.6936
-20.222
-21.927
-23.8325
-25.9639
-28.3296
-30.9083
-33.9217
-37.7633
-5.14249
-5.43233
-5.73235
-6.05461
-6.40017
-6.76981
-7.16553
-7.58972
-8.04495
-8.53413
-9.06055
-9.62798
-10.2408
-10.9039
-11.6233
-12.4058
-13.2594
-14.1935
-15.2192
-16.3492
-17.5987
-18.9848
-20.527
-22.2466
-24.167
-26.3134
-28.6933
-31.2845
-34.3076
-38.1545
-5.29273
-5.58662
-5.88942
-6.21504
-6.56436
-6.93796
-7.33787
-7.76653
-8.22655
-8.72086
-9.2528
-9.82617
-10.4454
-11.1155
-11.8424
-12.633
-13.4955
-14.4391
-15.4752
-16.6165
-17.8781
-19.2772
-20.8333
-22.5674
-24.5028
-26.6641
-29.0582
-31.662
-34.6948
-38.5476
-5.44317
-5.74109
-6.04668
-6.37574
-6.72886
-7.10647
-7.51062
-7.94379
-8.40864
-8.90813
-9.44562
-10.025
-10.6506
-11.3277
-12.0622
-12.861
-13.7323
-14.6856
-15.732
-16.8846
-18.1584
-19.5706
-21.1406
-22.8892
-24.8395
-27.0157
-29.424
-32.0403
-35.0832
-38.9421
-5.59372
-5.89562
-6.20404
-6.53658
-6.89356
-7.27522
-7.68366
-8.12139
-8.5911
-9.0958
-9.63889
-10.2243
-10.8564
-11.5405
-12.2826
-13.0896
-13.9698
-14.9327
-15.9896
-17.1535
-18.4395
-19.8648
-21.4486
-23.2118
-25.177
-27.3681
-29.7904
-32.4194
-35.4721
-39.3373
-5.74429
-6.05013
-6.36139
-6.69746
-7.05835
-7.44411
-7.85687
-8.29919
-8.77381
-9.28376
-9.83247
-10.4239
-11.0626
-11.7537
-12.5033
-13.3186
-14.2077
-15.1804
-16.2477
-17.423
-18.7212
-20.1595
-21.7571
-23.5348
-25.5149
-27.7208
-30.1572
-32.7987
-35.8614
-39.7329
-5.89479
-6.20452
-6.51863
-6.85829
-7.22314
-7.61303
-8.03014
-8.47709
-8.95664
-9.47186
-10.0262
-10.6237
-11.2689
-11.9671
-12.7244
-13.5479
-14.446
-15.4283
-16.5062
-17.6927
-19.0031
-20.4545
-22.066
-23.8581
-25.8531
-28.0737
-30.5241
-33.178
-36.2505
-40.1283
-6.04517
-6.35872
-6.6757
-7.01899
-7.38783
-7.78189
-8.20337
-8.65498
-9.13948
-9.65998
-10.22
-10.8236
-11.4753
-12.1806
-12.9455
-13.7773
-14.6843
-15.6763
-16.7647
-17.9626
-19.2852
-20.7496
-22.3749
-24.1815
-26.1912
-28.4264
-30.8908
-33.5569
-36.6391
-40.5231
-6.19536
-6.51266
-6.8325
-7.17947
-7.55234
-7.95059
-8.37647
-8.83274
-9.32221
-9.84802
-10.4137
-11.0234
-11.6817
-12.394
-13.1666
-14.0066
-14.9226
-15.9243
-17.0232
-18.2324
-19.5671
-21.0446
-22.6836
-24.5046
-26.529
-28.7788
-31.2569
-33.9351
-37.0269
-40.917
-6.34533
-6.6663
-6.989
-7.33968
-7.7166
-8.11905
-8.54935
-9.01029
-9.50472
-10.0358
-10.6072
-11.223
-11.8878
-12.6072
-13.3874
-14.2357
-15.1606
-16.172
-17.2814
-18.5019
-19.8488
-21.3392
-22.992
-24.8272
-26.8661
-29.1304
-31.6221
-34.3123
-37.4135
-41.3096
-6.49507
-6.81961
-7.14515
-7.49956
-7.88055
-8.2872
-8.72191
-9.18751
-9.68691
-10.2233
-10.8003
-11.4222
-12.0935
-12.82
-13.6078
-14.4644
-15.3982
-16.4192
-17.539
-18.7708
-20.1298
-21.6332
-23.2996
-25.149
-27.2024
-29.4809
-31.9861
-34.6881
-37.7985
-41.7005
-6.64459
-6.97259
-7.30093
-7.65909
-8.04413
-8.45498
-8.89407
-9.36432
-9.86865
-10.4103
-10.993
-11.6208
-12.2987
-13.0322
-13.8276
-14.6924
-15.6351
-16.6658
-17.796
-19.039
-20.4101
-21.9263
-23.6063
-25.4698
-27.5376
-29.8302
-32.3486
-35.0622
-38.1816
-42.0893
-6.79394
-7.12525
-7.45635
-7.81823
-8.20732
-8.62232
-9.06576
-9.54061
-10.0498
-10.5967
-11.1849
-11.8188
-12.5032
-13.2436
-14.0466
-14.9195
-15.8711
-16.9114
-18.052
-19.3062
-20.6893
-22.2183
-23.9118
-25.7893
-27.8713
-30.1778
-32.7093
-35.4343
-38.5625
-42.4758
-6.9432
-7.27765
-7.6114
-7.97697
-8.37005
-8.78915
-9.23687
-9.71626
-10.2303
-10.7823
-11.3761
-12.016
-12.7068
-13.4541
-14.2646
-15.1457
-16.1061
-17.1559
-18.3068
-19.5722
-20.9672
-22.5089
-24.2158
-26.1072
-28.2032
-30.5236
-33.068
-35.8041
-38.9409
-42.8597
-7.0925
-7.42987
-7.76613
-8.13531
-8.53228
-8.95538
-9.4073
-9.89115
-10.41
-10.9671
-11.5663
-12.2121
-12.9092
-13.6635
-14.4814
-15.3706
-16.3398
-17.3991
-18.5603
-19.8367
-21.2436
-22.7979
-24.518
-26.4232
-28.5331
-30.8671