/*--------------------------------*- C++ -*----------------------------------*\
  =========                 |
  \\      /  F ield         | OpenFOAM: The Open Source CFD Toolbox
   \\    /   O peration     | Website:  https://openfoam.org
    \\  /    A nd           | Version:  6.0
     \\/     M anipulation  |
\*---------------------------------------------------------------------------*/
FoamFile
{
    version     2.0;
    format      ascii;
    class       volScalarField;
    location    "17";
    object      p;
}
// * * * * * * * * * * * * * * * * * * * * * * * * * * * * * * * * * * * * * //

dimensions      [0 2 -2 0 0 0 0];

internalField   nonuniform List<scalar> 
19200
(
-41.1092
-37.5381
-34.9535
-32.8161
-30.8381
-29.0141
-27.3287
-25.7601
-24.2942
-22.9214
-21.6342
-20.4269
-19.2942
-18.2316
-17.235
-16.3005
-15.4242
-14.6027
-13.8323
-13.1097
-12.4319
-11.7956
-11.1982
-10.6369
-10.1093
-9.61295
-9.14589
-8.70609
-8.29166
-7.90198
-41.5579
-37.9884
-35.3956
-33.2445
-31.2503
-29.4088
-27.7055
-26.1191
-24.6358
-23.2464
-21.9436
-20.7216
-19.5753
-18.5002
-17.4921
-16.547
-15.661
-14.8306
-14.0521
-13.3221
-12.6374
-11.9949
-11.3916
-10.8249
-10.2921
-9.79106
-9.31953
-8.87542
-8.45674
-8.06374
-42.0121
-38.4384
-35.8363
-33.6712
-31.6608
-29.8018
-28.0804
-26.4762
-24.9755
-23.5695
-22.251
-21.0144
-19.8545
-18.7669
-17.7474
-16.7918
-15.8962
-15.057
-14.2704
-13.5331
-12.8416
-12.1928
-11.5837
-11.0116
-10.4738
-9.968
-9.492
-9.04361
-8.62068
-8.22441
-42.4686
-38.8885
-36.2756
-34.0964
-32.0693
-30.1927
-28.4532
-26.831
-25.3129
-23.8903
-22.5562
-21.305
-20.1316
-19.0316
-18.0007
-17.0346
-16.1296
-15.2816
-14.4871
-13.7424
-13.0442
-12.3892
-11.7744
-11.1969
-10.6541
-10.1436
-9.66318
-9.2105
-8.78335
-8.38389
-42.9255
-39.3379
-36.7136
-34.5197
-32.4759
-30.5813
-28.8237
-27.1834
-25.6479
-24.2087
-22.859
-21.5932
-20.4065
-19.2941
-18.2518
-17.2754
-16.3609
-15.5044
-14.7019
-13.95
-13.2451
-12.584
-11.9635
-11.3807
-10.8329
-10.3178
-9.83294
-9.37598
-8.94462
-8.54207
-43.3816
-39.7863
-37.15
-34.9409
-32.8801
-30.9675
-29.1916
-27.5332
-25.9802
-24.5244
-23.1591
-21.8789
-20.6787
-19.5541
-18.5006
-17.514
-16.5901
-15.725
-14.9148
-14.1557
-13.4442
-12.777
-12.1509
-11.5628
-11.0102
-10.4904
-10.0012
-9.53996
-9.10441
-8.69884
-43.8364
-40.2329
-37.5843
-35.3599
-33.2818
-31.351
-29.5566
-27.8801
-26.3096
-24.8372
-23.4564
-22.1617
-20.9483
-19.8115
-18.7468
-17.7501
-16.817
-15.9434
-15.1254
-14.3593
-13.6413
-12.9681
-12.3364
-11.7432
-11.1856
-10.6613
-10.1677
-9.70231
-9.26261
-8.85412
-44.2891
-40.6774
-38.0161
-35.7762
-33.6806
-31.7315
-29.9185
-28.2238
-26.6359
-25.1468
-23.7505
-22.4415
-21.2149
-20.066
-18.9903
-17.9835
-17.0413
-16.1594
-15.3338
-14.5607
-13.8363
-13.1571
-12.5199
-11.9216
-11.3593
-10.8304
-10.3326
-9.86295
-9.41912
-9.00782
-44.7393
-41.1193
-38.4453
-36.1895
-34.0763
-32.1087
-30.2771
-28.5642
-26.9587
-25.4531
-24.0414
-22.7181
-21.4784
-20.3175
-19.2309
-18.2142
-17.2629
-16.3727
-15.5396
-14.7596
-14.0289
-13.3439
-12.7013
-12.0979
-11.5309
-10.9976
-10.4955
-10.0217
-9.57384
-9.15983
-45.1866
-41.5583
-38.8712
-36.5995
-34.4685
-32.4823
-30.6321
-28.9008
-27.2779
-25.7558
-24.3287
-22.9912
-21.7385
-20.5658
-19.4684
-18.4418
-17.4816
-16.5833
-15.7428
-14.956
-14.2191
-13.5284
-12.8805
-12.2721
-11.7004
-11.1627
-10.6565
-10.1786
-9.72669
-9.31009
-45.6306
-41.9938
-39.2937
-37.0059
-34.857
-32.8521
-30.9831
-29.2336
-27.5931
-26.0546
-24.6122
-23.2607
-21.9951
-20.8106
-19.7025
-18.6663
-17.6973
-16.791
-15.9432
-15.1497
-14.4067
-13.7103
-13.0572
-12.444
-11.8677
-11.3257
-10.8154
-10.3335
-9.87756
-9.4585
-46.071
-42.4257
-39.7124
-37.4083
-35.2415
-33.2178
-31.33
-29.5622
-27.9043
-26.3494
-24.8918
-23.5263
-22.2479
-21.0518
-19.9332
-18.8874
-17.9097
-16.9956
-16.1406
-15.3406
-14.5915
-13.8896
-13.2313
-12.6134
-12.0326
-11.4864
-10.9721
-10.4862
-10.0264
-9.60497
-46.5074
-42.8536
-40.127
-37.8065
-35.6216
-33.5791
-31.6725
-29.8864
-28.2111
-26.6399
-25.1672
-23.7878
-22.4968
-21.2892
-20.1602
-19.1049
-18.1187
-17.1968
-16.3348
-15.5284
-14.7734
-14.0661
-13.4028
-12.7801
-12.195
-11.6446
-11.1264
-10.6366
-10.173
-9.74942
-46.9394
-43.2771
-40.5372
-38.2002
-35.9972
-33.9358
-32.0103
-30.2059
-28.5132
-26.9258
-25.4381
-24.045
-22.7415
-21.5225
-20.3833
-19.3188
-18.3241
-17.3946
-16.5257
-15.7129
-14.9522
-14.2396
-13.5714
-12.9441
-12.3547
-11.8004
-11.2783
-10.7847
-10.3174
-9.89174
-47.3669
-43.6959
-40.9426
-38.5891
-36.3678
-34.2875
-32.3432
-30.5206
-28.8106
-27.207
-25.7044
-24.2977
-22.9818
-21.7517
-20.6023
-19.5286
-18.5257
-17.5888
-16.7131
-15.8941
-15.1277
-14.4099
-13.7369
-13.1052
-12.5117
-11.9534
-11.4276
-10.9303
-10.4593
-10.0318
-47.7894
-44.1099
-41.343
-38.9729
-36.7333
-34.634
-32.6709
-30.8301
-29.1028
-27.4832
-25.9659
-24.5457
-23.2176
-21.9764
-20.8171
-19.7344
-18.7234
-17.7791
-16.8967
-16.0717
-15.2998
-14.5769
-13.8992
-13.2632
-12.6656
-12.1035
-11.5742
-11.0733
-10.5988
-10.1696
-48.2068
-44.5186
-41.7382
-39.3514
-37.0934
-34.9751
-32.9931
-31.1342
-29.3898
-27.7543
-26.2223
-24.7888
-23.4486
-22.1965
-21.0274
-19.9359
-18.9169
-17.9654
-17.0765
-16.2455
-15.4682
-14.7403
-14.0581
-13.4178
-12.8163
-12.2506
-11.7178
-11.2135
-10.7355
-10.3048
-48.6188
-44.922
-42.1278
-39.7243
-37.4478
-35.3105
-33.3098
-31.4327
-29.6713
-28.02
-26.4735
-25.0268
-23.6746
-22.4118
-21.233
-20.1328
-19.106
-18.1474
-17.2521
-16.4153
-15.6327
-14.9
-14.2133
-13.569
-12.9637
-12.3944
-11.8583
-11.3506
-10.8694
-10.4373
-49.0253
-45.3197
-42.5118
-40.0914
-37.7964
-35.6401
-33.6205
-31.7254
-29.947
-28.28
-26.7192
-25.2595
-23.8956
-22.6222
-21.4338
-20.3251
-19.2905
-18.325
-17.4234
-16.581
-15.7931
-15.0557
-14.3647
-13.7163
-13.1073
-12.5347
-11.9954
-11.4845
-11.0001
-10.567
-49.426
-45.7116
-42.8898
-40.4524
-38.1388
-35.9635
-33.9251
-32.012
-30.2169
-28.5343
-26.9593
-25.4866
-24.1111
-22.8273
-21.6296
-20.5124
-19.4703
-18.498
-17.5902
-16.7422
-15.9492
-15.2072
-14.5119
-13.8597
-13.2471
-12.6712
-12.1288
-11.6149
-11.1275
-10.6934
-49.8208
-46.0975
-43.2617
-40.8072
-38.4749
-36.2805
-34.2234
-32.2925
-30.4806
-28.7826
-27.1935
-25.7082
-24.3212
-23.0271
-21.8202
-20.6948
-19.6452
-18.6661
-17.7523
-16.8987
-16.1008
-15.3541
-14.6547
-13.9987
-13.3827
-12.8036
-12.2582
-11.7414
-11.2512
-10.8164
-50.2098
-46.4773
-43.6273
-41.1555
-38.8045
-36.591
-34.5152
-32.5665
-30.738
-29.0247
-27.4218
-25.9239
-24.5257
-23.2214
-22.0054
-20.8719
-19.815
-18.8293
-17.9094
-17.0504
-16.2475
-15.4964
-14.7928
-14.1331
-13.5137
-12.9315
-12.3833
-11.8637
-11.3708
-10.9353
-50.593
-46.8509
-43.9864
-41.4971
-39.1273
-36.8947
-34.8003
-32.8339
-30.9889
-29.2606
-27.6439
-26.1337
-24.7243
-23.4101
-22.1852
-21.0436
-19.9795
-18.9872
-18.0615
-17.1971
-16.3893
-15.6336
-14.926
-14.2625
-13.6397
-13.0545
-12.5036
-11.9814
-11.4857
-11.0498
-50.9705
-47.2182
-44.3389
-41.8319
-39.4432
-37.1914
-35.0785
-33.0945
-31.2332
-29.4899
-27.8597
-26.3373
-24.9171
-23.5931
-22.3593
-21.2098
-20.1386
-19.1399
-18.2082
-17.3385
-16.5258
-15.7656
-15.0539
-14.3867
-13.7605
-13.1722
-12.6186
-12.0938
-11.5956
-11.1595
-51.3427
-47.5791
-44.6845
-42.1596
-39.7518
-37.4809
-35.3495
-33.3481
-31.4707
-29.7127
-28.0692
-26.5348
-25.1038
-23.7702
-22.5278
-21.3705
-20.2922
-19.2871
-18.3496
-17.4745
-16.6568
-15.8921
-15.1762
-14.5051
-13.8755
-13.2841
-12.7277
-12.2003
-11.6996
-11.2637
-51.7095
-47.9333
-45.0229
-42.4799
-40.0529
-37.7629
-35.6131
-33.5945
-31.7012
-29.9287
-28.2721
-26.726
-25.2844
-23.9414
-22.6905
-21.5256
-20.4403
-19.4289
-18.4855
-17.605
-16.7823
-16.013
-15.2927
-14.6177
-13.9843
-13.3896
-12.8303
-12.3
-11.7967
-11.3603
-52.0724
-48.2809
-45.3538
-42.7924
-40.3461
-38.0371
-35.8691
-33.8335
-31.9245
-30.1378
-28.4684
-26.9108
-25.459
-24.1067
-22.8475
-21.6751
-20.583
-19.5652
-18.616
-17.7301
-16.9023
-16.1282
-15.4034
-14.7241
-14.0868
-13.4885
-12.926
-12.3928
-11.8863
-11.4474
-52.4357
-48.6232
-45.6768
-43.0964
-40.6308
-38.3029
-36.117
-34.0647
-32.1404
-30.3399
-28.658
-27.0891
-25.6273
-24.266
-22.9988
-21.8189
-20.7201
-19.6961
-18.7411
-17.8497
-17.0168
-16.2377
-15.5081
-14.8243
-14.1827
-13.5805
-13.0146
-12.4781
-11.9678
-11.5292
-52.8026
-48.9597
-45.9903
-43.3907
-40.9063
-38.5601
-36.3567
-34.2881
-32.3489
-30.5348
-28.8408
-27.261
-25.7895
-24.4195
-23.1443
-21.9573
-20.8519
-19.8218
-18.8611
-17.9642
-17.1259
-16.3417
-15.607
-14.918
-14.2713
-13.6641
-13.0931
-12.551
-12.0381
-11.6117
-53.1495
-49.2809
-46.2918
-43.6748
-41.1731
-38.8094
-36.5892
-34.5047
-32.5509
-30.7236
-29.0176
-27.4273
-25.9463
-24.5677
-23.2849
-22.0909
-20.9791
-19.943
-18.9766
-18.0742
-17.2307
-16.441
-15.7009
-15.0061
-14.3533
-13.739
-13.1587
-12.6066
-12.0918
-11.669
-58.0959
-58.0825
-58.0484
-58.0086
-57.9613
-57.9038
-57.8353
-57.7559
-57.6654
-57.5638
-57.451
-57.3271
-57.1922
-57.0463
-56.8896
-56.7223
-56.5445
-56.3564
-56.1582
-55.9502
-55.7324
-55.5052
-55.2688
-55.0236
-54.7699
-54.5083
-54.2397
-53.9655
-53.6887
-53.414
-54.0373
-54.0393
-54.0239
-53.9973
-53.9599
-53.9109
-53.8502
-53.7781
-53.6946
-53.5999
-53.494
-53.377
-53.2491
-53.1103
-52.9608
-52.8008
-52.6304
-52.4498
-52.2592
-52.0588
-51.8487
-51.6292
-51.4006
-51.1631
-50.9171
-50.663
-50.4011
-50.1322
-49.8568
-49.5734
-50.7292
-50.7428
-50.7414
-50.7269
-50.7001
-50.6614
-50.611
-50.5491
-50.4759
-50.3915
-50.296
-50.1896
-50.0724
-49.9445
-49.806
-49.6572
-49.4982
-49.3291
-49.1501
-48.9614
-48.7632
-48.5556
-48.339
-48.1134
-47.8791
-47.6364
-47.3854
-47.1261
-46.8582
-46.5804
-47.7376
-47.7598
-47.7688
-47.7648
-47.7485
-47.7205
-47.681
-47.6302
-47.5683
-47.4954
-47.4117
-47.3172
-47.2122
-47.0967
-46.9709
-46.835
-46.6891
-46.5334
-46.3679
-46.193
-46.0087
-45.8151
-45.6126
-45.4012
-45.181
-44.9522
-44.7149
-44.4688
-44.2139
-43.9494
-44.8544
-44.8836
-44.9009
-44.906
-44.8992
-44.8811
-44.8517
-44.8114
-44.7603
-44.6986
-44.6263
-44.5437
-44.4508
-44.3477
-44.2347
-44.1119
-43.9794
-43.8373
-43.6858
-43.525
-43.3552
-43.1763
-42.9886
-42.7921
-42.587
-42.3733
-42.1511
-41.9202
-41.6805
-41.4316
-42.1305
-42.1651
-42.1889
-42.2012
-42.2022
-42.1923
-42.1716
-42.1405
-42.0989
-42.0471
-41.9852
-41.9132
-41.8315
-41.74
-41.6389
-41.5284
-41.4085
-41.2794
-41.1413
-40.9942
-40.8383
-40.6737
-40.5005
-40.3188
-40.1287
-39.9302
-39.7233
-39.5079
-39.284
-39.0513
-39.5862
-39.6246
-39.653
-39.6706
-39.6775
-39.674
-39.6604
-39.6366
-39.603
-39.5595
-39.5064
-39.4438
-39.3717
-39.2904
-39.1999
-39.1003
-38.9918
-38.8745
-38.7486
-38.614
-38.471
-38.3197
-38.1601
-37.9923
-37.8164
-37.6324
-37.4403
-37.24
-37.0315
-36.8147
-37.2205
-37.2611
-37.2924
-37.3136
-37.3246
-37.3259
-37.3174
-37.2994
-37.272
-37.2353
-37.1894
-37.1344
-37.0704
-36.9976
-36.9161
-36.826
-36.7274
-36.6204
-36.5052
-36.3818
-36.2504
-36.111
-35.9637
-35.8086
-35.6457
-35.4751
-35.2967
-35.1106
-34.9166
-34.7148
-35.0289
-35.0705
-35.1032
-35.1264
-35.1401
-35.1445
-35.1398
-35.126
-35.1032
-35.0716
-35.0313
-34.9824
-34.9251
-34.8593
-34.7852
-34.703
-34.6128
-34.5146
-34.4086
-34.2948
-34.1734
-34.0445
-33.9081
-33.7643
-33.6131
-33.4546
-33.2887
-33.1155
-32.9348
-32.7468
-33.0043
-33.0457
-33.0787
-33.1028
-33.1179
-33.1242
-33.1218
-33.1109
-33.0914
-33.0637
-33.0276
-32.9834
-32.9312
-32.871
-32.803
-32.7273
-32.6439
-32.5531
-32.4548
-32.3493
-32.2365
-32.1167
-31.9897
-31.8558
-31.7149
-31.5671
-31.4124
-31.2508
-31.0822
-30.9066
-31.1369
-31.1773
-31.2097
-31.2337
-31.2492
-31.2564
-31.2553
-31.2462
-31.229
-31.2039
-31.1709
-31.1303
-31.082
-31.0262
-30.963
-30.8925
-30.8148
-30.73
-30.6382
-30.5395
-30.4341
-30.3219
-30.2032
-30.0778
-29.946
-29.8076
-29.6628
-29.5114
-29.3535
-29.1891
-29.4153
-29.4541
-29.4854
-29.5086
-29.5238
-29.5311
-29.5306
-29.5224
-29.5066
-29.4832
-29.4525
-29.4144
-29.369
-29.3166
-29.2572
-29.1908
-29.1176
-29.0378
-28.9514
-28.8585
-28.7592
-28.6536
-28.5418
-28.4239
-28.2999
-28.1697
-28.0336
-27.8913
-27.7429
-27.5884
-27.8279
-27.8647
-27.8943
-27.9163
-27.9307
-27.9376
-27.937
-27.9292
-27.9141
-27.8918
-27.8625
-27.8262
-27.7831
-27.7332
-27.6767
-27.6136
-27.5441
-27.4683
-27.3863
-27.2982
-27.2041
-27.1041
-26.9983
-26.8867
-26.7694
-26.6465
-26.518
-26.3837
-26.2438
-26.0981
-26.3628
-26.3975
-26.4252
-26.4457
-26.4589
-26.465
-26.464
-26.4561
-26.4412
-26.4195
-26.3911
-26.3561
-26.3146
-26.2666
-26.2124
-26.1519
-26.0854
-26.0129
-25.9345
-25.8504
-25.7606
-25.6653
-25.5646
-25.4585
-25.3471
-25.2305
-25.1087
-24.9816
-24.8491
-24.7113
-25.009
-25.0414
-25.0672
-25.086
-25.0978
-25.1029
-25.1012
-25.0928
-25.0779
-25.0564
-25.0285
-24.9944
-24.954
-24.9075
-24.855
-24.7966
-24.7324
-24.6626
-24.5873
-24.5065
-24.4204
-24.3292
-24.2328
-24.1315
-24.0253
-23.9142
-23.7982
-23.6775
-23.5518
-23.4211
-23.756
-23.7861
-23.8098
-23.8269
-23.8373
-23.8412
-23.8386
-23.8297
-23.8144
-23.793
-23.7654
-23.7317
-23.6921
-23.6468
-23.5956
-23.5389
-23.4767
-23.4091
-23.3363
-23.2583
-23.1754
-23.0876
-22.995
-22.8979
-22.7961
-22.6899
-22.5793
-22.4642
-22.3445
-22.2203
-22.5942
-22.6221
-22.6438
-22.6591
-22.6681
-22.6707
-22.6672
-22.6576
-22.6419
-22.6203
-22.5927
-22.5594
-22.5205
-22.4759
-22.4259
-22.3705
-22.3099
-22.2442
-22.1735
-22.098
-22.0177
-21.9329
-21.8437
-21.7501
-21.6524
-21.5506
-21.4447
-21.3347
-21.2206
-21.1022
-21.5149
-21.5407
-21.5605
-21.5741
-21.5816
-21.583
-21.5786
-21.5682
-21.552
-21.5301
-21.5026
-21.4695
-21.4309
-21.387
-21.3379
-21.2836
-21.2244
-21.1603
-21.0914
-21.018
-20.9401
-20.8579
-20.7715
-20.6812
-20.587
-20.4891
-20.3875
-20.2822
-20.1732
-20.0603
-20.5104
-20.5341
-20.5521
-20.5641
-20.5702
-20.5705
-20.565
-20.5539
-20.5372
-20.515
-20.4874
-20.4544
-20.4162
-20.3728
-20.3244
-20.2712
-20.2131
-20.1503
-20.0831
-20.0114
-19.9356
-19.8557
-19.7719
-19.6845
-19.5935
-19.4991
-19.4014
-19.3005
-19.1962
-19.0884
-19.5737
-19.5954
-19.6117
-19.6222
-19.6269
-19.6261
-19.6198
-19.608
-19.5908
-19.5682
-19.5405
-19.5076
-19.4696
-19.4267
-19.379
-19.3265
-19.2695
-19.2079
-19.1421
-19.0721
-18.998
-18.9202
-18.8387
-18.7538
-18.6656
-18.5745
-18.4804
-18.3835
-18.2836
-18.1808
-18.6985
-18.7185
-18.7331
-18.7422
-18.7457
-18.7439
-18.7367
-18.7242
-18.7065
-18.6837
-18.6558
-18.6229
-18.5852
-18.5427
-18.4956
-18.4438
-18.3877
-18.3272
-18.2627
-18.1941
-18.1217
-18.0456
-17.9662
-17.8835
-17.798
-17.7097
-17.6189
-17.5257
-17.4302
-17.332
-17.8793
-17.8977
-17.9108
-17.9186
-17.921
-17.9182
-17.9102
-17.8971
-17.879
-17.8559
-17.8279
-17.7951
-17.7575
-17.7154
-17.6688
-17.6178
-17.5624
-17.503
-17.4395
-17.3722
-17.3013
-17.2269
-17.1492
-17.0686
-16.9853
-16.8996
-16.8118
-16.7222
-16.6307
-16.5372
-17.1114
-17.1282
-17.1399
-17.1465
-17.1479
-17.1442
-17.1355
-17.1218
-17.1033
-17.0799
-17.0518
-17.0191
-16.9818
-16.94
-16.8939
-16.8435
-16.7889
-16.7304
-16.668
-16.6018
-16.5322
-16.4592
-16.3832
-16.3043
-16.223
-16.1397
-16.0546
-15.9682
-15.8807
-15.7918
-16.3902
-16.4056
-16.4161
-16.4215
-16.422
-16.4175
-16.4081
-16.394
-16.3751
-16.3515
-16.3234
-16.2907
-16.2536
-16.2122
-16.1665
-16.1167
-16.0629
-16.0052
-15.9437
-15.8786
-15.8101
-15.7384
-15.6638
-15.5865
-15.507
-15.4256
-15.343
-15.2596
-15.1757
-15.0915
-15.712
-15.7261
-15.7355
-15.7399
-15.7394
-15.7342
-15.7243
-15.7097
-15.6905
-15.6668
-15.6386
-15.606
-15.5691
-15.528
-15.4828
-15.4336
-15.3804
-15.3235
-15.2629
-15.1988
-15.1314
-15.0608
-14.9874
-14.9114
-14.8333
-14.7537
-14.6731
-14.5923
-14.512
-14.4325
-15.0734
-15.0863
-15.0945
-15.098
-15.0968
-15.0909
-15.0804
-15.0654
-15.046
-15.0221
-14.9939
-14.9614
-14.9247
-14.8839
-14.8391
-14.7904
-14.7379
-14.6817
-14.6219
-14.5587
-14.4922
-14.4226
-14.3502
-14.2753
-14.1984
-14.12
-14.041
-13.9624
-13.8854
-13.8107
-14.4713
-14.4831
-14.4903
-14.4929
-14.4909
-14.4844
-14.4734
-14.458
-14.4383
-14.4142
-14.386
-14.3535
-14.317
-14.2765
-14.2321
-14.1839
-14.1319
-14.0763
-14.0172
-13.9547
-13.889
-13.8202
-13.7486
-13.6745
-13.5983
-13.5208
-13.4427
-13.3655
-13.2909
-13.2208
-13.9029
-13.9138
-13.9202
-13.9221
-13.9195
-13.9126
-13.9012
-13.8856
-13.8657
-13.8416
-13.8134
-13.7811
-13.7448
-13.7046
-13.6605
-13.6128
-13.5613
-13.5063
-13.4478
-13.386
-13.321
-13.2529
-13.1819
-13.1083
-13.0326
-12.9554
-12.8776
-12.8012
-12.7282
-12.6613
-13.3653
-13.3757
-13.3818
-13.3834
-13.3807
-13.3737
-13.3625
-13.347
-13.3274
-13.3037
-13.276
-13.2443
-13.2088
-13.1694
-13.1263
-13.0795
-13.0291
-12.9753
-12.918
-12.8575
-12.7937
-12.7269
-12.6572
-12.5848
-12.5101
-12.4336
-12.3562
-12.2806
-12.2094
-12.1486
-12.857
-12.8657
-12.8702
-12.8705
-12.8667
-12.8588
-12.8469
-12.8309
-12.811
-12.7873
-12.7597
-12.7283
-12.6932
-12.6545
-12.6123
-12.5665
-12.5173
-12.4648
-12.4091
-12.3501
-12.2881
-12.2231
-12.1551
-12.0844
-12.0112
-11.9358
-11.8587
-11.7824
-11.7086
-11.6624
-52.1207
-52.4679
-52.792
-53.1181
-53.4428
-53.7609
-54.0707
-54.3716
-54.6629
-54.9441
-55.2144
-55.4737
-55.7213
-55.9572
-56.1811
-56.3927
-56.5918
-56.7784
-56.9524
-57.1136
-57.262
-57.3977
-57.5205
-57.6307
-57.7283
-57.8137
-57.8872
-57.9498
-58.0032
-58.0503
-47.9998
-48.3614
-48.7056
-49.0424
-49.3721
-49.6928
-50.0039
-50.3053
-50.5967
-50.8778
-51.1481
-51.4073
-51.6553
-51.8916
-52.1162
-52.3288
-52.5292
-52.7173
-52.8931
-53.0563
-53.2071
-53.3453
-53.4709
-53.5841
-53.6849
-53.7734
-53.85
-53.9148
-53.9683
-54.0093
-44.6371
-45.0005
-45.3506
-45.6898
-46.0194
-46.3394
-46.6497
-46.9503
-47.2408
-47.5211
-47.7909
-48.0499
-48.298
-48.5348
-48.7602
-48.974
-49.176
-49.3662
-49.5444
-49.7104
-49.8644
-50.0061
-50.1356
-50.253
-50.3581
-50.4512
-50.5321
-50.6008
-50.6572
-50.7001
-41.6359
-41.9928
-42.3393
-42.675
-43.0009
-43.3173
-43.6243
-43.9218
-44.2094
-44.4871
-44.7547
-45.0119
-45.2585
-45.4944
-45.7192
-45.933
-46.1355
-46.3265
-46.5061
-46.674
-46.8303
-46.9748
-47.1076
-47.2285
-47.3376
-47.4348
-47.5201
-47.5933
-47.6543
-47.7025
-38.7996
-39.1466
-39.485
-39.8138
-40.1331
-40.4433
-40.7444
-41.0363
-41.3188
-41.5917
-41.8549
-42.1082
-42.3514
-42.5843
-42.8067
-43.0185
-43.2196
-43.4098
-43.589
-43.7572
-43.9142
-44.0599
-44.1944
-44.3175
-44.4292
-44.5295
-44.6182
-44.6953
-44.7606
-44.8138
-36.1768
-36.512
-36.84
-37.1593
-37.4697
-37.7714
-38.0645
-38.3487
-38.624
-38.8902
-39.1472
-39.3946
-39.6325
-39.8606
-40.0787
-40.2868
-40.4846
-40.6721
-40.8492
-41.0158
-41.1717
-41.3169
-41.4514
-41.575
-41.6878
-41.7896
-41.8804
-41.96
-42.0284
-42.0854
-33.7789
-34.1015
-34.4176
-34.7257
-35.0256
-35.3173
-35.6007
-35.8759
-36.1425
-36.4005
-36.6496
-36.8898
-37.1208
-37.3426
-37.5549
-37.7576
-37.9507
-38.134
-38.3073
-38.4707
-38.6239
-38.767
-38.8999
-39.0225
-39.1348
-39.2366
-39.3279
-39.4087
-39.4788
-39.5381
-31.5937
-31.9031
-32.2066
-32.5028
-32.7912
-33.0719
-33.3448
-33.6099
-33.8668
-34.1156
-34.3559
-34.5878
-34.8109
-35.0253
-35.2306
-35.4269
-35.614
-35.7918
-35.9601
-36.119
-36.2684
-36.408
-36.538
-36.6582
-36.7686
-36.869
-36.9595
-37.04
-37.1105
-37.1707
-29.6054
-29.9017
-30.1924
-30.4762
-30.7528
-31.0221
-31.2841
-31.5386
-31.7854
-32.0244
-32.2554
-32.4783
-32.6929
-32.8991
-33.0968
-33.2859
-33.4662
-33.6376
-33.8001
-33.9536
-34.098
-34.2333
-34.3593
-34.4761
-34.5835
-34.6815
-34.7701
-34.8492
-34.9188
-34.9788
-27.7969
-28.0802
-28.3583
-28.6299
-28.8947
-29.1526
-29.4036
-29.6474
-29.884
-30.113
-30.3345
-30.5481
-30.7539
-30.9517
-31.1413
-31.3227
-31.4958
-31.6604
-31.8166
-31.9641
-32.103
-32.2331
-32.3545
-32.4671
-32.5708
-32.6656
-32.7514
-32.8283
-32.8961
-32.9549
-26.1501
-26.421
-26.6869
-26.9466
-27.2
-27.4468
-27.687
-27.9203
-28.1467
-28.3659
-28.5778
-28.7823
-28.9793
-29.1685
-29.35
-29.5236
-29.6893
-29.8469
-29.9963
-30.1376
-30.2706
-30.3953
-30.5117
-30.6196
-30.7191
-30.8101
-30.8926
-30.9666
-31.032
-31.0889
-24.6478
-24.9069
-25.1611
-25.4096
-25.6519
-25.888
-26.1178
-26.341
-26.5576
-26.7673
-26.9699
-27.1654
-27.3537
-27.5346
-27.7081
-27.874
-28.0322
-28.1828
-28.3255
-28.4605
-28.5875
-28.7066
-28.8177
-28.9207
-29.0158
-29.1027
-29.1815
-29.2523
-29.3148
-29.3693
-23.2738
-23.5217
-23.765
-24.0028
-24.2347
-24.4607
-24.6806
-24.8942
-25.1013
-25.3019
-25.4956
-25.6826
-25.8625
-26.0353
-26.201
-26.3594
-26.5104
-26.654
-26.7902
-26.9189
-27.04
-27.1534
-27.2593
-27.3574
-27.4479
-27.5306
-27.6056
-27.6729
-27.7323
-27.7841
-22.0136
-22.2512
-22.4842
-22.7119
-22.934
-23.1505
-23.361
-23.5655
-23.7638
-23.9557
-24.141
-24.3198
-24.4917
-24.6568
-24.815
-24.9662
-25.1103
-25.2473
-25.3772
-25.4997
-25.615
-25.723
-25.8237
-25.917
-26.0029
-26.0815
-26.1526
-26.2163
-26.2726
-26.3215
-20.8545
-21.0823
-21.3057
-21.524
-21.737
-21.9446
-22.1464
-22.3424
-22.5323
-22.716
-22.8934
-23.0644
-23.2288
-23.3867
-23.5378
-23.6821
-23.8197
-23.9503
-24.0741
-24.1908
-24.3006
-24.4033
-24.499
-24.5876
-24.6691
-24.7436
-24.8109
-24.8711
-24.9242
-24.9703
-19.7851
-20.0038
-20.2183
-20.4279
-20.6325
-20.8317
-21.0254
-21.2133
-21.3955
-21.5716
-21.7415
-21.9052
-22.0626
-22.2135
-22.358
-22.4959
-22.6272
-22.7518
-22.8698
-22.981
-23.0855
-23.1833
-23.2742
-23.3583
-23.4356
-23.5061
-23.5697
-23.6265
-23.6765
-23.7198
-18.7956
-19.0059
-19.2121
-19.4137
-19.6103
-19.8018
-19.9879
-20.1685
-20.3433
-20.5123
-20.6752
-20.8321
-20.9828
-21.1273
-21.2655
-21.3974
-21.5228
-21.6418
-21.7544
-21.8604
-21.9599
-22.0529
-22.1394
-22.2192
-22.2925
-22.3592
-22.4193
-22.4729
-22.5199
-22.5604
-17.8777
-18.0801
-18.2787
-18.4728
-18.6621
-18.8464
-19.0255
-19.1991
-19.3672
-19.5295
-19.6859
-19.8364
-19.9809
-20.1193
-20.2516
-20.3778
-20.4977
-20.6114
-20.7189
-20.82
-20.9149
-21.0034
-21.0856
-21.1615
-21.231
-21.2941
-21.3509
-21.4014
-21.4456
-21.4835
-17.0239
-17.219
-17.4104
-17.5976
-17.7802
-17.9579
-18.1305
-18.2977
-18.4594
-18.6154
-18.7657
-18.9102
-19.0489
-19.1816
-19.3084
-19.4292
-19.544
-19.6528
-19.7554
-19.852
-19.9425
-20.0268
-20.1051
-20.1772
-20.2431
-20.303
-20.3567
-20.4043
-20.4457
-20.4812
-16.2278
-16.4161
-16.601
-16.7819
-16.9583
-17.1298
-17.2963
-17.4575
-17.6132
-17.7634
-17.908
-18.0469
-18.1801
-18.3075
-18.4291
-18.5449
-18.6549
-18.759
-18.8572
-18.9494
-19.0358
-19.1163
-19.1908
-19.2593
-19.322
-19.3787
-19.4295
-19.4744
-19.5134
-19.5465
-15.484
-15.6658
-15.8447
-16.0199
-16.1905
-16.3564
-16.5172
-16.6728
-16.823
-16.9677
-17.1069
-17.2405
-17.3685
-17.4909
-17.6077
-17.7188
-17.8242
-17.9239
-18.0179
-18.1062
-18.1887
-18.2655
-18.3365
-18.4018
-18.4614
-18.5152
-18.5632
-18.6056
-18.6423
-18.6733
-14.7874
-14.9632
-15.1367
-15.3067
-15.4721
-15.6327
-15.7883
-15.9386
-16.0835
-16.223
-16.3571
-16.4858
-16.6089
-16.7266
-16.8388
-16.9455
-17.0466
-17.1422
-17.2323
-17.3168
-17.3957
-17.4691
-17.5369
-17.5991
-17.6558
-17.7069
-17.7524
-17.7924
-17.8269
-17.8559
-14.1336
-14.3038
-14.4727
-14.638
-14.7986
-14.9543
-15.1049
-15.2503
-15.3902
-15.5249
-15.6541
-15.7781
-15.8967
-16.0099
-16.1178
-16.2203
-16.3174
-16.4092
-16.4955
-16.5765
-16.6521
-16.7223
-16.7871
-16.8464
-16.9004
-16.949
-16.9921
-17.03
-17.0624
-17.0896
-13.5185
-13.6836
-13.8487
-14.01
-14.1662
-14.3174
-14.4633
-14.6039
-14.7392
-14.8692
-14.9939
-15.1134
-15.2276
-15.3366
-15.4405
-15.539
-15.6324
-15.7206
-15.8035
-15.8812
-15.9536
-16.0208
-16.0827
-16.1394
-16.1909
-16.2371
-16.2781
-16.3139
-16.3445
-16.37
-12.9385
-13.0993
-13.2616
-13.4194
-13.5717
-13.7186
-13.8601
-13.9962
-14.1269
-14.2525
-14.3728
-14.4881
-14.5982
-14.7033
-14.8032
-14.8982
-14.988
-15.0727
-15.1524
-15.227
-15.2965
-15.3609
-15.4202
-15.4744
-15.5235
-15.5676
-15.6065
-15.6405
-15.6693
-15.6932
-12.3902
-12.5482
-12.7092
-12.8641
-13.0125
-13.1554
-13.2926
-13.4244
-13.5508
-13.672
-13.7882
-13.8994
-14.0056
-14.1069
-14.2032
-14.2946
-14.3811
-14.4626
-14.5392
-14.6109
-14.6776
-14.7394
-14.7962
-14.8481
-14.895
-14.937
-14.9741
-15.0062
-15.0335
-15.0559
-11.8669
-12.0266
-12.1888
-12.341
-12.4858
-12.6247
-12.7578
-12.8853
-13.0075
-13.1247
-13.2369
-13.3442
-13.4467
-13.5444
-13.6373
-13.7254
-13.8087
-13.8872
-13.9609
-14.0299
-14.094
-14.1533
-14.2078
-14.2575
-14.3023
-14.3424
-14.3777
-14.4082
-14.434
-14.455
-11.3552
-11.5223
-11.6905
-11.8412
-11.9826
-12.1179
-12.2472
-12.3708
-12.4893
-12.6028
-12.7115
-12.8155
-12.9148
-13.0094
-13.0993
-13.1845
-13.2651
-13.3411
-13.4123
-13.4789
-13.5408
-13.598
-13.6506
-13.6985
-13.7416
-13.7801
-13.814
-13.8432
-13.8677
-13.8876
-10.8545
-11.0293
-11.2081
-11.36
-11.4989
-11.631
-11.757
-11.8773
-11.9925
-12.1029
-12.2086
-12.3097
-12.4062
-12.4982
-12.5856
-12.6684
-12.7468
-12.8205
-12.8897
-12.9544
-13.0145
-13.0701
-13.1211
-13.1675
-13.2094
-13.2467
-13.2795
-13.3077
-13.3314
-13.3507
-10.4602
-10.6414
-10.8157
-10.967
-11.1014
-11.2269
-11.3467
-11.4611
-11.5705
-11.6753
-11.7756
-11.8714
-11.9627
-12.0496
-12.1321
-12.2102
-12.2838
-12.3531
-12.4181
-12.4786
-12.5348
-12.5866
-12.634
-12.6771
-12.7158
-12.7502
-12.7802
-12.8059
-12.8272
-12.8443
-5.53039
-5.83657
-6.16148
-6.50508
-6.86917
-7.2555
-7.66579
-8.10196
-8.56621
-9.06109
-9.58951
-10.1549
-10.7611
-11.4129
-12.1159
-12.8766
-13.7029
-14.6042
-15.592
-16.6794
-17.8825
-19.2199
-20.7129
-22.3854
-24.2641
-26.3776
-28.7376
-31.3245
-34.3605
-38.2559
-5.70224
-6.01386
-6.34246
-6.6903
-7.05913
-7.4505
-7.86614
-8.30803
-8.77841
-9.27986
-9.81533
-10.3883
-11.0027
-11.6633
-12.3757
-13.1466
-13.984
-14.8974
-15.8981
-16.9996
-18.2179
-19.5716
-21.0821
-22.773
-24.6709
-26.8039
-29.1828
-31.7862
-34.8322
-38.7262
-5.87477
-6.19185
-6.52417
-6.87632
-7.24996
-7.64645
-8.06752
-8.5152
-8.99179
-9.49988
-10.0425
-10.6231
-11.2457
-11.9152
-12.6372
-13.4185
-14.2671
-15.1926
-16.2064
-17.3221
-18.5556
-19.9258
-21.4538
-23.1632
-25.0802
-27.2323
-29.6293
-32.2478
-35.3016
-39.1911
-6.04782
-6.37033
-6.70643
-7.06294
-7.44145
-7.84312
-8.26968
-8.72321
-9.20606
-9.72087
-10.2707
-10.859
-11.4899
-12.1684
-12.9001
-13.6918
-14.5516
-15.4893
-16.5162
-17.6461
-18.8951
-20.2816
-21.8272
-23.555
-25.4909
-27.6618
-30.0765
-32.7103
-35.774
-39.6645
-6.22124
-6.54919
-6.88908
-7.25002
-7.63348
-8.04037
-8.47248
-8.93193
-9.4211
-9.94267
-10.4997
-11.0958
-11.7351
-12.4226
-13.164
-13.9662
-14.8373
-15.7872
-16.8274
-17.9716
-19.2359
-20.6389
-22.2019
-23.9481
-25.9028
-28.0925
-30.5249
-33.1742
-36.2492
-40.1442
-6.39493
-6.72828
-7.07201
-7.43745
-7.82589
-8.23808
-8.67578
-9.1412
-9.63675
-10.1651
-10.7295
-11.3334
-11.9812
-12.6777
-13.4289
-14.2416
-15.1241
-16.0863
-17.1397
-18.2982
-19.5779
-20.9974
-22.5779
-24.3424
-26.316
-28.5243
-30.9744
-33.6392
-36.726
-40.6269
-6.56875
-6.90749
-7.25508
-7.62506
-8.01857
-8.43609
-8.87945
-9.35088
-9.85285
-10.3881
-10.9598
-11.5716
-12.2279
-12.9335
-13.6945
-14.5178
-15.4117
-16.3862
-17.453
-18.6258
-19.9209
-21.357
-22.955
-24.7378
-26.7301
-28.9571
-31.4248
-34.1051
-37.2039
-41.1115
-6.7426
-7.08667
-7.43815
-7.81274
-8.21135
-8.63427
-9.08332
-9.56083
-10.0693
-10.6114
-11.1905
-11.8103
-12.475
-13.1898
-13.9607
-14.7946
-15.7
-16.6869
-17.767
-18.9542
-20.2648
-21.7173
-23.3328
-25.1339
-27.145
-29.3906
-31.8759
-34.5717
-37.6825
-41.5972
-6.91637
-7.26572
-7.6211
-8.00036
-8.40413
-8.83248
-9.28728
-9.77089
-10.2858
-10.835
-11.4215
-12.0492
-12.7225
-13.4465
-14.2272
-15.0718
-15.9888
-16.988
-18.0815
-19.2831
-20.6092
-22.0782
-23.7112
-25.5306
-27.5603
-29.8245
-32.3273
-35.0386
-38.1615
-42.0836
-7.08995
-7.44453
-7.80382
-8.1878
-8.59678
-9.0306
-9.49118
-9.98094
-10.5024
-11.0585
-11.6526
-12.2883
-12.9701
-13.7034
-14.494
-15.3493
-16.2777
-17.2894
-18.3963
-19.6124
-20.9539
-22.4394
-24.0899
-25.9275
-27.9758
-30.2585
-32.7788
-35.5054
-38.6403
-42.5701
-7.26325
-7.62298
-7.9862
-8.37495
-8.78918
-9.22852
-9.69491
-10.1908
-10.7189
-11.282
-11.8835
-12.5273
-13.2177
-13.9602
-14.7608
-15.6268
-16.5667
-17.5909
-18.7112
-19.9417
-21.2986
-22.8007
-24.4686
-26.3244
-28.3912
-30.6922
-33.2299
-35.9718
-39.1187
-43.056
-7.43618
-7.80099
-8.16813
-8.5617
-8.98123
-9.42611
-9.89834
-10.4005
-10.9351
-11.5053
-12.1143
-12.7661
-13.4651
-14.2168
-15.0274
-15.9041
-16.8556
-17.8922
-19.0259
-20.2708
-21.6432
-23.1618
-24.847
-26.7209
-28.8063
-31.1255
-33.6804
-36.4374
-39.596
-43.5408
-7.60869
-7.97848
-8.34954
-8.74798
-9.17282
-9.62327
-10.1014
-10.6097
-11.151
-11.7282
-12.3447
-13.0045
-13.7122
-14.4731
-15.2936
-16.181
-17.1441
-18.1931
-19.3402
-20.5996
-21.9874
-23.5224
-25.225
-27.1169
-29.2206
-31.5579
-34.1299
-36.9017
-40.072
-44.0241
-7.78072
-8.15538
-8.53036
-8.93369
-9.36389
-9.81992
-10.3039
-10.8184
-11.3663
-11.9505
-12.5746
-13.2424
-13.9587
-14.7289
-15.5593
-16.4574
-17.432
-18.4935
-19.654
-20.9277
-22.3309
-23.8823
-25.6021
-27.5119
-29.6338
-31.9891
-34.5779
-37.3645
-40.5462
-44.5055
-7.95223
-8.33166
-8.71053
-9.11879
-9.55436
-10.016
-10.5058
-11.0266
-11.5811
-12.1723
-12.8038
-13.4797
-14.2046
-14.984
-15.8243
-16.7331
-17.7192
-18.793
-19.9668
-21.2549
-22.6735
-24.2411
-25.9782
-27.9058
-30.0458
-32.4188
-35.0243
-37.8253
-41.0181
-44.9845
-8.12322
-8.50728
-8.89001
-9.30321
-9.74416
-10.2114
-10.707
-11.234
-11.7951
-12.3933
-13.0323
-13.7161
-14.4495
-15.2381
-16.0883
-17.0078
-18.0053
-19.0915
-20.2787
-21.581
-23.0148
-24.5987
-26.3528
-28.2981
-30.456
-32.8466
-35.4685
-38.2837
-41.4875
-45.4608
-8.29371
-8.68225
-9.06879
-9.48694
-9.93325
-10.406
-10.9075
-11.4406
-12.0082
-12.6134
-13.2598
-13.9515
-14.6935
-15.4912
-16.3513
-17.2813
-18.2903
-19.3888
-20.5891
-21.9057
-23.3547
-24.9548
-26.7258
-28.6887
-30.8643
-33.2722
-35.9102
-38.7394
-41.9538
-45.9339
-8.46375
-8.85662
-9.24689
-9.66996
-10.1216
-10.5998
-11.1071
-11.6463
-12.2204
-12.8325
-13.4862
-14.1859
-14.9363
-15.7431
-16.6129
-17.5534
-18.5738
-19.6845
-20.898
-22.2287
-23.6929
-25.309
-27.0969
-29.0771
-31.2702
-33.6953
-36.3492
-39.192
-42.4169
-46.4034
-8.63347
-9.03044
-9.42433
-9.85227
-10.3092
-10.7928
-11.3058
-11.851
-12.4315
-13.0503
-13.7114
-14.4188
-15.1776
-15.9934
-16.873
-17.824
-18.8556
-19.9785
-21.2051
-22.5499
-24.0291
-25.6611
-27.4656
-29.4631
-31.6735
-34.1155
-36.785
-39.6411
-42.8761
-46.869
-8.80301
-9.20383
-9.60117
-10.0339
-10.4959
-10.9849
-11.5034
-12.0546
-12.6413
-13.2669
-13.9351
-14.6503
-15.4174
-16.2421
-17.1313
-18.0927
-19.1355
-20.2705
-21.5101
-22.8688
-24.3629
-26.0107
-27.8318
-29.8463