/*--------------------------------*- C++ -*----------------------------------*\
  =========                 |
  \\      /  F ield         | OpenFOAM: The Open Source CFD Toolbox
   \\    /   O peration     | Website:  https://openfoam.org
    \\  /    A nd           | Version:  6.0
     \\/     M anipulation  |
\*---------------------------------------------------------------------------*/
FoamFile
{
    version     2.0;
    format      ascii;
    class       volVectorField;
    location    "12";
    object      U;
}
// * * * * * * * * * * * * * * * * * * * * * * * * * * * * * * * * * * * * * //

dimensions      [0 1 -1 0 0 0 0];

internalField   nonuniform List<vector> 
9600
(
(1.25223 -16.5793 -2.9897e-20)
(0.289848 -15.6998 -3.30824e-20)
(0.31769 -15.0303 5.34644e-21)
(0.424133 -14.4497 -2.19419e-20)
(0.465554 -13.9151 1.02397e-20)
(0.498503 -13.3976 -8.38706e-21)
(0.529929 -12.8886 -1.75533e-20)
(0.556134 -12.3893 1.72107e-20)
(0.577304 -11.9037 6.15373e-21)
(0.594594 -11.4355 -9.35914e-20)
(0.608884 -10.9876 5.22068e-20)
(0.620854 -10.5616 -4.60177e-20)
(0.631054 -10.158 -2.09093e-20)
(0.639915 -9.77676 2.88026e-20)
(0.647778 -9.41714 -1.91222e-20)
(0.654888 -9.07811 -1.02004e-20)
(0.661397 -8.75819 1.87578e-20)
(0.66782 -8.45535 -2.23051e-20)
(0.675406 -8.16674 -5.84047e-21)
(0.681023 -7.88883 -1.19127e-20)
(1.90232 -16.5308 -3.23819e-19)
(0.909603 -15.712 -1.75854e-19)
(0.911961 -15.0545 8.58207e-20)
(0.995337 -14.4757 -1.15149e-19)
(1.01515 -13.9408 2.81555e-20)
(1.02696 -13.421 -3.39184e-20)
(1.03748 -12.9086 1.45145e-19)
(1.04316 -12.4058 -2.49384e-21)
(1.0444 -11.9171 -9.37554e-20)
(1.04254 -11.4464 1.22748e-19)
(1.03859 -10.9964 6.31148e-20)
(1.03328 -10.5689 -4.40028e-21)
(1.02717 -10.1642 7.84454e-20)
(1.02067 -9.78211 -4.03142e-21)
(1.01407 -9.42194 3.15005e-20)
(1.00757 -9.08261 8.25967e-20)
(1.00124 -8.76266 3.21055e-20)
(0.99558 -8.46004 4.7768e-20)
(0.991961 -8.17179 -2.32933e-20)
(0.98656 -7.89441 4.70714e-20)
(2.55198 -16.4581 5.26218e-19)
(1.53042 -15.7001 3.72596e-19)
(1.50816 -15.0551 -5.40872e-19)
(1.56877 -14.4785 -2.60572e-19)
(1.56695 -13.9441 2.0839e-19)
(1.5574 -13.4227 3.76423e-19)
(1.54673 -12.9077 -4.58865e-19)
(1.5316 -12.4023 1.18014e-19)
(1.51266 -11.9113 -2.18819e-19)
(1.49145 -11.4388 -1.53883e-19)
(1.4691 -10.9877 1.37946e-19)
(1.44639 -10.5593 -7.55629e-20)
(1.42388 -10.1542 -2.11651e-19)
(1.40195 -9.77196 1.15277e-19)
(1.38086 -9.41185 -3.72432e-20)
(1.36073 -9.07278 -4.45992e-21)
(1.34155 -8.75334 4.4029e-20)
(1.32385 -8.45145 8.98893e-20)
(1.30906 -8.16406 -1.09451e-19)
(1.29253 -7.8878 8.99331e-20)
(3.19807 -16.3603 -2.89347e-19)
(2.15101 -15.6639 1.36883e-19)
(2.10517 -15.0319 1.8074e-19)
(2.14337 -14.4583 2.61852e-19)
(2.11994 -13.9249 -8.27406e-20)
(2.08887 -13.4026 8.21911e-20)
(2.05675 -12.8857 -5.65578e-20)
(2.02056 -12.3785 1.31063e-19)
(1.98124 -11.8861 3.01963e-19)
(1.94052 -11.4128 -1.78272e-19)
(1.89965 -10.9612 -1.09949e-19)
(1.85945 -10.5329 -1.24234e-19)
(1.82049 -10.1281 -4.59149e-20)
(1.78311 -9.74634 1.04358e-19)
(1.74752 -9.3869 -6.54772e-20)
(1.71376 -9.04867 -2.22485e-19)
(1.68178 -8.73025 1.72645e-19)
(1.65209 -8.4296 -1.14833e-19)
(1.6262 -8.14357 -1.30224e-20)
(1.59848 -7.86903 -1.07342e-20)
(3.84074 -16.2377 -3.69729e-19)
(2.77103 -15.6035 -6.63428e-19)
(2.70231 -14.985 7.82045e-19)
(2.71827 -14.4147 -2.17116e-19)
(2.67321 -13.883 -6.45261e-19)
(2.62044 -13.3605 -1.43742e-20)
(2.56666 -12.8427 -2.46202e-19)
(2.50919 -12.3346 -6.97421e-20)
(2.44931 -11.8416 -1.87644e-19)
(2.38895 -11.3682 4.43223e-19)
(2.32947 -10.9171 -6.09998e-19)
(2.27174 -10.4896 1.56152e-19)
(2.21632 -10.0857 -2.6324e-19)
(2.16349 -9.70521 3.57362e-19)
(2.11341 -9.34706 -3.31311e-19)
(2.06607 -9.01023 1.77108e-19)
(2.02133 -8.69337 -1.0415e-19)
(1.97975 -8.39445 2.84986e-20)
(1.94287 -8.11028 1.12008e-19)
(1.90395 -7.83809 -1.30617e-20)
(4.47862 -16.0902 1.00948e-19)
(3.38936 -15.5186 6.22008e-19)
(3.29857 -14.9141 4.05034e-19)
(3.29248 -14.3477 -2.76114e-19)
(3.22578 -13.8184 7.13046e-19)
(3.15115 -13.2965 1.1274e-19)
(3.07551 -12.7785 7.85926e-21)
(2.99659 -12.2703 -3.17507e-19)
(2.91601 -11.7777 6.35322e-20)
(2.83592 -11.3052 4.32881e-19)
(2.75779 -10.8553 -2.05419e-19)
(2.68252 -10.4293 3.847e-19)
(2.61065 -10.0273 -9.99077e-20)
(2.54241 -9.6486 -8.67787e-20)
(2.47789 -9.29237 1.90547e-19)
(2.41702 -8.95751 2.09702e-19)
(2.35961 -8.64274 -1.15158e-19)
(2.30626 -8.34606 9.09472e-20)
(2.25852 -8.06425 -2.54009e-19)
(2.20842 -7.79505 3.21871e-19)
(5.11092 -15.9178 8.62905e-19)
(4.00518 -15.4094 -1.07568e-18)
(3.89308 -14.8191 -9.35943e-19)
(3.86507 -14.2573 9.87936e-19)
(3.7767 -13.7309 -3.31227e-19)
(3.68007 -13.2104 -4.92178e-19)
(3.58239 -12.6931 4.56673e-19)
(3.48187 -12.1858 2.44853e-20)
(3.38048 -11.6945 1.60703e-19)
(3.28061 -11.2236 -5.1462e-19)
(3.18382 -10.7758 2.5986e-19)
(3.09105 -10.3522 -2.12632e-19)
(3.00277 -9.95267 6.00875e-19)
(2.91918 -9.57655 -3.29254e-19)
(2.8403 -9.22287 2.25556e-20)
(2.76599 -8.89056 -4.58721e-20)
(2.69601 -8.57842 -4.47572e-20)
(2.63103 -8.28448 7.85028e-20)
(2.57258 -8.00553 5.13907e-20)
(2.51138 -7.73998 -5.68969e-20)
(5.73659 -15.7208 -1.25228e-18)
(4.61745 -15.2756 7.14561e-19)
(4.48482 -14.7001 1.48586e-19)
(4.43504 -14.1433 -2.41451e-20)
(4.32497 -13.6206 -3.47001e-21)
(4.20624 -13.1022 3.40075e-19)
(4.08637 -12.5865 -8.97821e-19)
(3.96414 -12.0809 -9.72832e-20)
(3.84188 -11.5918 -1.88446e-19)
(3.72221 -11.1236 2.37316e-19)
(3.60679 -10.6788 1.4013e-20)
(3.49655 -10.2583 2.36737e-19)
(3.39194 -9.86202 -1.8451e-20)
(3.2931 -9.48915 -5.61334e-19)
(3.19996 -9.13866 -1.26409e-19)
(3.11231 -8.8095 5.01552e-19)
(3.02989 -8.50051 -1.86885e-19)
(2.95344 -8.20981 -4.59346e-20)
(2.88446 -7.93421 -8.17303e-21)
(2.81229 -7.673 3.32974e-20)
(6.3547 -15.4993 7.96639e-19)
(5.22521 -15.1174 -7.87129e-19)
(5.07282 -14.5571 -1.16453e-18)
(5.0014 -14.0058 -1.61863e-19)
(4.86963 -13.4874 -4.99731e-19)
(4.72868 -12.972 -1.56235e-19)
(4.58651 -12.4588 -4.92811e-19)
(4.44249 -11.9559 8.91857e-19)
(4.29934 -11.4699 -3.80063e-19)
(4.15989 -11.0051 -1.87135e-19)
(4.02589 -10.5641 -8.0499e-20)
(3.89828 -10.1477 2.56465e-19)
(3.77745 -9.7554 -2.33567e-21)
(3.66346 -9.38649 -8.51247e-20)
(3.55618 -9.03984 -1.84229e-19)
(3.45533 -8.71441 -2.19498e-19)
(3.36061 -8.40914 3.12514e-19)
(3.27286 -8.12218 1.26737e-19)
(3.19355 -7.85042 -5.56587e-19)
(3.11056 -7.59425 4.84267e-20)
(6.96425 -15.2534 -8.02917e-19)
(5.82745 -14.9348 1.83575e-18)
(5.65606 -14.3899 -1.3744e-18)
(5.56316 -13.8448 8.54281e-19)
(5.40968 -13.3314 1.0753e-18)
(5.24643 -12.8198 -3.78464e-19)
(5.08189 -12.31 9.68936e-21)
(4.91603 -11.8107 9.78399e-20)
(4.752 -11.3287 3.77864e-19)
(4.59282 -10.8684 -3.83008e-19)
(4.44034 -10.4321 -2.32859e-19)
(4.29547 -10.0204 2.5243e-19)
(4.15854 -9.63295 -1.14914e-20)
(4.02954 -9.2687 4.05081e-20)
(3.90826 -8.92655 4.60694e-19)
(3.79434 -8.60546 -2.33532e-19)
(3.68747 -8.30445 4.3219e-20)
(3.58861 -8.02172 -2.80361e-19)
(3.49917 -7.75432 7.47815e-19)
(3.40557 -7.5039 3.93919e-19)
(7.56431 -14.9836 1.15979e-18)
(6.42317 -14.7279 2.42098e-19)
(6.23354 -14.1988 5.36057e-19)
(6.11931 -13.6603 -5.78198e-19)
(5.94413 -13.1527 1.39469e-19)
(5.75854 -12.6457 1.13589e-18)
(5.57157 -12.1402 -1.77439e-19)
(5.38387 -11.6455 8.22989e-19)
(5.19899 -11.1686 -5.33243e-19)
(5.02018 -10.7136 3.10563e-19)
(4.84933 -10.2828 7.01546e-19)
(4.68734 -9.87672 -2.12136e-19)
(4.53447 -9.49478 3.46063e-19)
(4.39061 -9.13592 -9.29179e-20)
(4.25547 -8.79893 -4.58317e-19)
(4.12863 -8.48279 6.43524e-19)
(4.00977 -8.18659 -1.73612e-19)
(3.89997 -7.90861 6.374e-19)
(3.80061 -7.64607 7.45211e-20)
(3.69663 -7.40212 -9.32359e-19)
(8.15392 -14.69 -3.50714e-18)
(7.01139 -14.497 5.95708e-19)
(6.80423 -13.9839 -4.48116e-19)
(6.66884 -13.4525 -1.44955e-18)
(6.47199 -12.9514 -2.54831e-19)
(6.26403 -12.4499 -2.75935e-19)
(6.05462 -11.9496 -9.00138e-20)
(5.84512 -11.4605 -5.69832e-19)
(5.63948 -10.9895 -3.02272e-19)
(5.44115 -10.5408 -6.59582e-20)
(5.25207 -10.1164 -1.83228e-19)
(5.07312 -9.71668 3.04892e-19)
(4.90447 -9.34106 1.92729e-19)
(4.74592 -8.9883 -9.8328e-19)
(4.59709 -8.65714 4.09115e-19)
(4.45749 -8.34658 -4.41993e-19)
(4.3268 -8.05578 -2.73544e-19)
(4.20625 -7.78305 2.37013e-19)
(4.09716 -7.52588 1.26815e-19)
(3.98307 -7.28907 -2.55516e-19)
(8.7322 -14.3732 4.47137e-18)
(7.59112 -14.2421 2.08051e-18)
(7.36716 -13.7452 9.85582e-19)
(7.21077 -13.2217 9.6986e-19)
(6.99229 -12.7277 -4.40829e-19)
(6.76197 -12.2325 2.40962e-18)
(6.53015 -11.7385 -1.05825e-18)
(6.2989 -11.2558 2.03006e-18)
(6.07261 -10.7917 -7.79732e-19)
(5.85491 -10.3501 1.41429e-18)
(5.64777 -9.93293 6.65256e-19)
(5.45203 -9.54047 4.01757e-19)
(5.26778 -9.1719 -9.89141e-19)
(5.09471 -8.82597 8.58981e-19)
(4.93236 -8.50135 -2.04808e-19)
(4.78016 -8.19703 6.55835e-19)
(4.6378 -7.91224 1.72475e-19)
(4.50671 -7.64531 7.69833e-19)
(4.38815 -7.39401 -1.73189e-19)
(4.26432 -7.16506 -1.24855e-20)
(9.29826 -14.0334 -2.31146e-18)
(8.16142 -13.9637 1.18367e-18)
(7.92132 -13.4832 2.24519e-19)
(7.7441 -12.9678 -1.7052e-18)
(7.50408 -12.4818 -1.12585e-19)
(7.25142 -11.9938 -2.32026e-20)
(6.99725 -11.5069 3.61992e-19)
(6.74437 -11.0317 -5.24945e-19)
(6.49758 -10.5753 1.92139e-19)
(6.26068 -10.1418 2.44375e-19)
(6.03567 -9.73268 -3.96993e-19)
(5.82331 -9.34821 -2.77221e-19)
(5.62362 -8.98745 1.52587e-19)
(5.43617 -8.64906 -2.7568e-19)
(5.26042 -8.33166 8.50886e-19)
(5.09574 -8.03426 -8.98351e-19)
(4.94187 -7.75612 -5.66646e-19)
(4.80043 -7.49559 8.15841e-19)
(4.67267 -7.25076 -3.11516e-19)
(4.53952 -7.03066 -4.15026e-19)
(9.85126 -13.671 -1.18271e-18)
(8.72132 -13.6619 -1.3226e-18)
(8.46573 -13.1979 -3.37152e-19)
(8.26787 -12.6914 1.76004e-18)
(8.00639 -12.2139 -7.78094e-19)
(7.73148 -11.7341 7.24673e-20)
(7.45505 -11.2552 -2.02044e-18)
(7.18069 -10.7884 3.03144e-19)
(6.91359 -10.3408 -4.63143e-19)
(6.6577 -9.91604 3.89103e-19)
(6.41503 -9.51581 -8.98427e-19)
(6.18626 -9.14007 3.90505e-19)
(5.97128 -8.78782 -5.66943e-19)
(5.76958 -8.45764 3.51113e-19)
(5.58049 -8.14812 2.29611e-19)
(5.40335 -7.85826 -2.26325e-19)
(5.23795 -7.58739 -9.94052e-19)
(5.08617 -7.33386 5.54357e-19)
(4.9492 -7.09628 -2.3644e-19)
(4.80683 -6.88631 1.00183e-19)
(10.3904 -13.2866 4.35466e-18)
(9.2699 -13.3371 -8.60119e-19)
(8.99938 -12.8897 -1.20279e-18)
(8.78111 -12.3926 5.04637e-19)
(8.49831 -11.9245 7.07846e-19)
(8.20124 -11.4536 -1.0111e-18)
(7.9027 -10.9837 6.644e-19)
(7.60705 -10.5262 -9.14953e-19)
(7.31988 -10.0881 1.15911e-18)
(7.04524 -9.67309 -1.21961e-18)
(6.78515 -9.2825 5.57784e-19)
(6.54019 -8.91621 -9.5086e-20)
(6.31013 -8.57315 -8.86404e-20)
(6.09433 -8.25184 -6.32117e-19)
(5.89199 -7.95083 9.87395e-19)
(5.70238 -7.66913 -2.11139e-20)
(5.52532 -7.40611 -7.8265e-20)
(5.36289 -7.16018 -1.74274e-20)
(5.21616 -6.93057 -3.48009e-20)
(5.06417 -6.73134 -3.03736e-19)
(10.9153 -12.8809 -3.58182e-18)
(9.80641 -12.9898 -5.22942e-19)
(9.52136 -12.5591 -6.52578e-19)
(9.28284 -12.0718 -3.79077e-18)
(8.9789 -11.6137 -1.98068e-18)
(8.65982 -11.1526 2.29812e-18)
(8.33935 -10.6926 -8.10602e-19)
(8.02266 -10.2454 4.15593e-19)
(7.71568 -9.81773 6.2954e-19)
(7.42257 -9.41315 1.66617e-19)
(7.1453 -9.03289 4.1786e-19)
(6.88437 -8.67672 -2.00233e-19)
(6.63941 -8.3435 5.68103e-19)
(6.40969 -8.03172 -4.82809e-19)
(6.19431 -7.73993 1.78344e-19)
(5.99241 -7.46716 -1.28905e-18)
(5.80383 -7.2128 8.46728e-19)
(5.63071 -6.9752 5.43493e-19)
(5.47395 -6.75393 5.91246e-19)
(5.31255 -6.56472 -1.25703e-19)
(11.4258 -12.455 1.62742e-18)
(10.3304 -12.6206 1.34562e-18)
(10.0309 -12.2063 1.09447e-18)
(9.77216 -11.7292 3.3793e-18)
(9.44724 -11.282 -3.1333e-18)
(9.10634 -10.8316 8.29267e-19)
(8.7642 -10.3825 -2.81771e-21)
(8.42677 -9.94628 -8.55539e-19)
(8.10031 -9.52986 8.49815e-19)
(7.78904 -9.13643 -2.20676e-19)
(7.49485 -8.76712 -2.61067e-19)
(7.21809 -8.42161 -1.28134e-19)
(6.95828 -8.09873 2.8491e-19)
(6.71457 -7.79702 9.35665e-21)
(6.48602 -7.51512 -4.76662e-19)
(6.27181 -7.25221 -5.63825e-19)
(6.07199 -7.00764 -7.66697e-19)
(5.88905 -6.77937 4.07833e-19)
(5.72379 -6.56721 -5.30686e-19)
(5.55531 -6.39025 1.27987e-19)
(11.9221 -12.0093 -2.19542e-19)
(10.8416 -12.2293 -2.906e-18)
(10.5272 -11.8314 -2.67589e-19)
(10.2482 -11.3654 -4.79371e-20)
(9.90248 -10.9299 5.76908e-19)
(9.54005 -10.4911 1.97326e-18)
(9.17657 -10.0537 -5.68236e-19)
(8.8188 -9.62947 -8.76146e-19)
(8.47329 -9.22501 8.55365e-20)
(8.14426 -8.84334 3.73786e-19)
(7.83348 -8.48544 -3.42328e-19)
(7.54109 -8.15089 -3.73506e-19)
(7.26639 -7.83856 -9.73809e-20)
(7.00827 -7.54703 3.17117e-19)
(6.76562 -7.27516 -1.42748e-18)
(6.53763 -7.02237 6.77927e-19)
(6.32494 -6.78793 2.37993e-19)
(6.13103 -6.56967 -2.99804e-19)
(5.9568 -6.37043 3.24469e-19)
(5.78161 -6.21821 4.9908e-19)
(12.4023 -11.5426 1.14692e-18)
(11.3386 -11.8152 2.81886e-18)
(11.0095 -11.4348 3.9776e-19)
(10.7102 -10.981 -2.67583e-19)
(10.3439 -10.5581 1.84114e-18)
(9.96033 -10.132 -5.02926e-19)
(9.57595 -9.70716 -5.98657e-19)
(9.19833 -9.29566 1.52588e-18)
(8.83429 -8.90383 -9.44706e-19)
(8.48805 -8.53447 4.45375e-19)
(8.16122 -8.18834 -6.82299e-20)
(7.8537 -7.86494 -1.13898e-19)
(7.56446 -7.56304 -4.84615e-19)
(7.292 -7.28127 6.15797e-19)
(7.03463 -7.01856 -1.44467e-18)
(6.79097 -6.77434 6.84991e-19)
(6.5612 -6.5478 -2.01038e-19)
(6.34808 -6.33846 -4.75715e-20)
(6.1503 -6.15723 6.27038e-19)
(5.95253 -6.03877 -1.05021e-18)
(17.2012 0.618933 2.04074e-19)
(17.1964 -0.0593982 -6.53692e-20)
(17.1648 -0.735309 -3.48263e-19)
(17.1079 -1.40818 9.39074e-19)
(17.0255 -2.07737 -1.05005e-18)
(16.9173 -2.74198 -4.75804e-19)
(16.7833 -3.40107 3.67767e-19)
(16.6237 -4.0537 5.14953e-19)
(16.4388 -4.69894 -3.89247e-19)
(16.229 -5.33585 3.89465e-19)
(15.9946 -5.96351 -1.12096e-20)
(15.7361 -6.58099 1.92616e-20)
(15.4539 -7.18739 -2.71644e-19)
(15.1484 -7.7818 1.23229e-18)
(14.8202 -8.36339 -1.23018e-18)
(14.47 -8.93128 8.55281e-19)
(14.098 -9.48483 -1.19663e-18)
(13.7056 -10.023 2.89936e-18)
(13.2918 -10.5461 -2.15977e-19)
(12.8608 -11.0517 9.06712e-20)
(16.8687 -0.345314 -3.8607e-20)
(16.8224 -1.00754 -2.22047e-19)
(16.7489 -1.66554 4.31432e-19)
(16.6492 -2.31854 6.9493e-19)
(16.5237 -2.96594 -1.84013e-19)
(16.3724 -3.60686 -9.32723e-19)
(16.1957 -4.2403 1.67493e-18)
(15.994 -4.86528 -3.44857e-19)
(15.7677 -5.48082 -1.93486e-18)
(15.5174 -6.08599 9.31443e-19)
(15.2435 -6.67987 3.20388e-19)
(14.9467 -7.26155 1.76425e-18)
(14.6275 -7.83016 -3.34871e-18)
(14.2865 -8.38485 4.10611e-20)
(13.9243 -8.92481 8.48049e-19)
(13.5417 -9.44926 1.35359e-18)
(13.1391 -9.95754 6.27574e-19)
(12.7177 -10.4489 -8.45757e-19)
(12.2769 -10.9229 -1.88817e-18)
(11.8181 -11.3786 1.88218e-18)
(16.3937 -0.334536 1.29506e-19)
(16.3527 -0.97537 -1.53736e-19)
(16.2851 -1.61296 1.0359e-19)
(16.1911 -2.24628 -3.13564e-19)
(16.0711 -2.87446 3.95032e-19)
(15.9254 -3.4965 9.7453e-19)
(15.7544 -4.11136 -1.04752e-18)
(15.5585 -4.71799 1.64736e-19)
(15.3384 -5.31538 6.93262e-19)
(15.0944 -5.90255 1.45451e-18)
(14.8271 -6.47855 -3.41056e-19)
(14.5371 -7.04245 2.44507e-18)
(14.225 -7.59337 1.23515e-19)
(13.8915 -8.13043 -2.63851e-18)
(13.5372 -8.6528 -3.56118e-19)
(13.1629 -9.15969 5.83567e-19)
(12.769 -9.65035 -1.47721e-18)
(12.3563 -10.124 -7.04031e-19)
(11.9251 -10.58 -1.27826e-18)
(11.4762 -11.0172 1.39135e-18)
(15.7927 -0.253155 4.15702e-20)
(15.7619 -0.868217 9.80997e-20)
(15.7054 -1.48117 3.84338e-20)
(15.6231 -2.09083 -9.13037e-19)
(15.5154 -2.69615 5.57523e-19)
(15.3825 -3.29606 -1.69386e-19)
(15.2249 -3.88952 5.2287e-19)
(15.043 -4.47548 -2.64963e-20)
(14.8371 -5.05291 -1.07866e-18)
(14.6079 -5.62083 2.91862e-20)
(14.3557 -6.17828 -6.23503e-19)
(14.0813 -6.72431 1.56789e-19)
(13.7851 -7.25802 -3.18857e-18)
(13.4678 -7.7785 1.60559e-18)
(13.13 -8.28492 -1.47501e-18)
(12.7724 -8.77641 -2.93513e-19)
(12.3957 -9.25219 -3.71655e-18)
(12.0004 -9.71141 3.62333e-18)
(11.5873 -10.1533 -1.72677e-18)
(11.157 -10.5768 -1.08605e-18)
(15.1397 -0.240348 1.19375e-20)
(15.1158 -0.827995 -1.64894e-19)
(15.0673 -1.41423 2.40805e-19)
(14.994 -1.99789 3.01174e-19)
(14.8962 -2.57788 -3.55295e-19)
(14.7742 -3.15314 1.1402e-18)
(14.6283 -3.72266 7.06631e-19)
(14.4588 -4.2854 -2.26687e-19)
(14.2662 -4.84038 -2.40999e-19)
(14.0508 -5.38662 7.57214e-19)
(13.8133 -5.92315 1.30639e-18)
(13.554 -6.44906 5.07441e-19)
(13.2736 -6.96341 3.18347e-19)
(12.9726 -7.46533 -9.02322e-19)
(12.6516 -7.95395 -2.13902e-18)
(12.3114 -8.42838 2.29251e-18)
(11.9525 -8.88781 2.39683e-18)
(11.5756 -9.33136 -1.70868e-18)
(11.1814 -9.75822 5.92014e-19)
(10.7706 -10.1674 -1.71706e-19)
(14.4803 -0.234933 2.92352e-20)
(14.4614 -0.795141 -3.949e-20)
(14.4189 -1.35438 -2.08865e-19)
(14.353 -1.91158 9.24792e-20)
(14.2636 -2.46566 -3.31981e-22)
(14.151 -3.01563 6.22776e-20)
(14.0155 -3.56047 -5.47359e-19)
(13.8575 -4.09923 4.07921e-19)
(13.6772 -4.63093 -8.24204e-19)
(13.475 -5.15463 8.72451e-19)
(13.2514 -5.66941 -5.67898e-20)
(13.0069 -6.17434 -8.14462e-19)
(12.742 -6.66854 3.05353e-19)
(12.4573 -7.15113 2.51259e-18)
(12.1532 -7.62124 1.44138e-18)
(11.8306 -8.07801 -1.04515e-18)
(11.4899 -8.5206 -1.5234e-18)
(11.1318 -8.94813 7.75773e-19)
(10.7571 -9.35981 -5.13274e-19)
(10.3664 -9.75469 1.56584e-18)
(13.8423 -0.227863 -2.07409e-20)
(13.8266 -0.761627 9.71182e-20)
(13.7887 -1.29472 6.36582e-20)
(13.7284 -1.82614 -7.63969e-20)
(13.6458 -2.35489 3.16217e-19)
(13.5411 -2.87999 -8.88455e-19)
(13.4145 -3.40051 5.09727e-19)
(13.2664 -3.9155 -3.84117e-19)
(13.097 -4.42405 1.16349e-20)
(12.9067 -4.92527 -5.95215e-19)
(12.6959 -5.41825 9.09017e-19)
(12.465 -5.90212 2.26152e-18)
(12.2146 -6.37604 -2.53672e-18)
(11.9451 -6.83913 -4.57086e-20)
(11.6572 -7.29057 -2.35587e-18)
(11.3513 -7.7295 6.86525e-19)
(11.0282 -8.1551 -7.69735e-19)
(10.6885 -8.5665 2.09322e-23)
(10.3328 -8.96292 1.74227e-18)
(9.96167 -9.34339 -1.64075e-20)
(13.2406 -0.221981 -9.98583e-21)
(13.2268 -0.730876 6.70092e-20)
(13.1918 -1.23928 2.22385e-20)
(13.1356 -1.74626 -3.72448e-19)
(13.0582 -2.25087 4.07793e-19)
(12.9598 -2.7522 -3.58751e-19)
(12.8405 -3.24934 1.02639e-18)
(12.7007 -3.74141 -1.08124e-19)
(12.5405 -4.22755 -5.51774e-19)
(12.3605 -4.7069 1.05119e-19)
(12.1608 -5.17862 -1.80404e-19)
(11.942 -5.64188 -5.64005e-19)
(11.7045 -6.09586 -8.35552e-19)
(11.4488 -6.53975 -5.5292e-19)
(11.1754 -6.97274 -5.80368e-19)
(10.8849 -7.39401 -6.73362e-19)
(10.578 -7.80277 -5.72371e-19)
(10.2553 -8.19813 -8.68986e-19)
(9.91737 -8.57934 1.11457e-19)
(9.56479 -8.94543 6.03851e-20)
(12.6807 -0.217023 7.57271e-21)
(12.6677 -0.70283 8.37392e-21)
(12.6347 -1.18824 -7.28553e-21)
(12.5814 -1.67237 -1.02664e-19)
(12.5079 -2.15436 -2.3636e-19)
(12.4144 -2.63331 -1.53074e-19)
(12.3011 -3.10838 -7.24351e-19)
(12.1681 -3.57875 6.73243e-19)
(12.0158 -4.04359 -3.93131e-19)
(11.8445 -4.50209 8.63809e-19)
(11.6545 -4.95347 -1.67317e-19)
(11.4461 -5.39694 1.47037e-18)
(11.22 -5.83174 6.92817e-20)
(10.9764 -6.2571 1.98253e-18)
(10.7161 -6.67225 -1.37069e-18)
(10.4395 -7.0764 9.69273e-19)
(10.1472 -7.46879 1.48644e-18)
(9.83995 -7.84856 8.63485e-19)
(9.51834 -8.21493 9.26111e-19)
(9.18288 -8.56693 -1.32981e-18)
(12.1623 -0.212248 -6.16657e-20)
(12.1496 -0.676714 -1.02509e-21)
(12.1178 -1.14082 2.21962e-19)
(12.0667 -1.60375 -2.05483e-19)
(11.9963 -2.06467 1.26853e-19)
(11.9068 -2.52275 4.91326e-19)
(11.7983 -2.97718 -1.59085e-19)
(11.6712 -3.4272 -1.53432e-19)
(11.5255 -3.87201 -2.05709e-19)
(11.3617 -4.31087 3.46412e-19)
(11.1801 -4.74304 -4.99076e-19)
(10.9809 -5.16778 -1.07734e-19)
(10.7647 -5.58438 -9.18175e-19)
(10.5319 -5.99212 2.53613e-19)
(10.2832 -6.39028 4.35674e-19)
(10.0189 -6.77812 3.17312e-19)
(9.73986 -7.1549 -6.11223e-19)
(9.44661 -7.51977 2.04529e-19)
(9.13987 -7.87195 -9.22448e-19)
(8.82012 -8.21044 1.08176e-19)
(11.6825 -0.207362 6.30475e-20)
(11.6698 -0.652096 1.68915e-19)
(11.6388 -1.09649 -3.76588e-19)
(11.5893 -1.53975 -2.92995e-19)
(11.5214 -1.98111 -1.50385e-19)
(11.4353 -2.41977 -4.12571e-19)
(11.331 -2.85498 2.94925e-19)
(11.2089 -3.28599 3.71989e-19)
(11.069 -3.71208 -8.02584e-19)
(10.9118 -4.13254 3.93359e-19)
(10.7375 -4.54667 4.04283e-19)
(10.5464 -4.9538 5.09288e-19)
(10.339 -5.35326 -7.07224e-19)
(10.1159 -5.7444 9.88423e-19)
(9.87739 -6.12654 -9.03468e-19)
(9.62422 -6.49901 -1.5638e-19)
(9.35703 -6.86107 -2.68244e-19)
(9.07646 -7.21193 1.15915e-18)
(8.78328 -7.55076 8.9667e-19)
(8.47799 -7.87652 -3.68859e-19)
(11.2372 -0.202278 -5.41739e-20)
(11.2243 -0.628716 3.18543e-20)
(11.1939 -1.05481 2.38678e-19)
(11.1458 -1.47981 3.01164e-20)
(11.0801 -1.90298 3.42706e-19)
(10.9968 -2.32357 2.83001e-19)
(10.8963 -2.74086 -2.41733e-19)
(10.7786 -3.15414 -3.45852e-19)
(10.6439 -3.56274 2.85724e-19)
(10.4925 -3.96599 2.23661e-19)
(10.3247 -4.36323 -2.28765e-19)
(10.1409 -4.75385 9.60579e-19)
(9.9415 -5.13722 -1.43778e-18)
(9.72688 -5.51279 3.34607e-19)
(9.49768 -5.87989 4.04895e-19)
(9.25445 -6.23797 -6.98638e-19)
(8.99797 -6.58628 -1.42481e-18)
(8.72889 -6.92411 4.67135e-19)
(8.44812 -7.25054 2.90406e-19)
(8.15617 -7.56448 6.50358e-20)
(10.8222 -0.196979 -2.25843e-20)
(10.8091 -0.606378 2.02517e-20)
(10.7792 -1.01542 -1.10138e-19)
(10.7323 -1.42341 -6.56522e-20)
(10.6686 -1.82961 -2.06118e-20)
(10.588 -2.23334 -2.56599e-19)
(10.4908 -2.63389 6.86622e-19)
(10.3771 -3.03061 2.71305e-20)
(10.2471 -3.42285 -3.63138e-21)
(10.101 -3.80998 -6.07099e-19)
(9.93924 -4.19138 3.76294e-19)
(9.762 -4.56652 -3.38304e-19)
(9.56975 -4.93479 6.41542e-19)
(9.36288 -5.29575 -9.63449e-19)
(9.14205 -5.64874 -2.98452e-20)
(8.90777 -5.99339 -5.80084e-19)
(8.66099 -6.32891 1.16134e-18)
(8.40231 -6.65474 -2.90707e-19)
(8.13295 -6.96982 -9.69415e-20)
(7.85341 -7.27299 -3.90201e-19)
(10.4338 -0.191481 6.93581e-20)
(10.4205 -0.584941 -5.20541e-21)
(10.3911 -0.97804 1.38835e-19)
(10.3454 -1.3701 -1.44707e-19)
(10.2834 -1.76043 1.72208e-19)
(10.2053 -2.14836 -1.02782e-19)
(10.1112 -2.53324 -3.77705e-19)
(10.0012 -2.91443 1.56389e-19)
(9.87553 -3.29131 1.40912e-19)
(9.73442 -3.6633 -1.91104e-19)
(9.57812 -4.02983 -3.56503e-19)
(9.40692 -4.39041 -2.11583e-20)
(9.22125 -4.74447 -6.26797e-19)
(9.02145 -5.0917 6.96741e-19)
(8.80824 -5.43143 3.63279e-19)
(8.58201 -5.76356 1.3557e-18)
(8.34403 -6.08716 -1.95098e-18)
(8.09471 -6.40208 5.07678e-19)
(7.83591 -6.70688 1.27453e-18)
(7.56791 -7.00052 1.00845e-18)
(10.0685 -0.185813 -5.16748e-20)
(10.0552 -0.564299 3.8912e-20)
(10.0262 -0.942417 -4.99048e-20)
(9.98161 -1.31951 -3.02891e-19)
(9.92138 -1.69493 3.06497e-19)
(9.84561 -2.06802 1.07492e-19)
(9.75443 -2.43815 2.64532e-20)
(9.64796 -2.80473 3.00205e-19)
(9.52638 -3.16716 -6.85722e-19)
(9.38988 -3.52492 5.4791e-19)
(9.23873 -3.87742 -5.84077e-20)
(9.07315 -4.22427 8.97147e-19)
(8.89357 -4.5649 -1.12896e-18)
(8.70025 -4.89919 1.29344e-21)
(8.49401 -5.22639 -6.29137e-19)
(8.27502 -5.54686 7.68088e-20)
(8.04504 -5.85929 1.11284e-18)
(7.80396 -6.16447 -9.28073e-19)
(7.55502 -6.46005 -2.44911e-19)
(7.29757 -6.74572 -1.63955e-18)
(9.72376 -0.180046 1.45246e-20)
(9.71034 -0.544396 1.7249e-21)
(9.68189 -0.908376 -1.11092e-19)
(9.63838 -1.27135 4.72697e-20)
(9.57983 -1.63269 9.87802e-20)
(9.50631 -1.99177 1.41727e-19)
(9.41794 -2.348 -5.51507e-20)
(9.31482 -2.70079 1.36077e-19)
(9.19713 -3.04958 -2.47554e-19)
(9.06502 -3.39387 1.74439e-19)
(8.91874 -3.73311 -1.25993e-19)
(8.75845 -4.06699 -6.51403e-20)
(8.58461 -4.39489 -1.2286e-19)
(8.39729 -4.71694 -9.24217e-20)
(8.19749 -5.03221 2.34849e-19)
(7.98497 -5.34181 -2.26504e-20)
(7.76225 -5.6437 -9.32857e-19)
(7.52817 -5.94043 -1.6139e-19)
(7.28854 -6.22767 9.8653e-19)
(7.0403 -6.50751 5.108e-19)
(9.3971 -0.174309 1.88258e-21)
(9.38368 -0.525242 3.08204e-20)
(9.35578 -0.875805 -5.81806e-22)
(9.31337 -1.22538 1.07348e-19)
(9.25648 -1.57337 -2.12893e-19)
(9.18518 -1.91916 -2.30264e-19)
(9.09956 -2.26218 3.12845e-19)
(8.99971 -2.60189 -2.13965e-19)
(8.8858 -2.93773 -9.83119e-21)
(8.75794 -3.26925 2.3554e-19)
(8.61639 -3.59589 1.03042e-20)
(8.46121 -3.91743 4.20669e-19)
(8.29288 -4.2332 -1.87809e-19)
(8.11127 -4.5436 -2.26041e-19)
(7.91755 -4.84743 -6.30331e-19)
(7.71085 -5.14682 -5.11781e-20)
(7.4948 -5.43859 -6.26806e-19)
(7.26626 -5.72846 3.92723e-19)
(7.0357 -6.00796 5.98122e-19)
(6.79469 -6.28487 -3.57319e-19)
(9.08672 -0.168436 -2.85649e-20)
(9.07336 -0.506693 6.06933e-20)
(9.04606 -0.84457 1.00641e-19)
(9.00478 -1.18147 -1.13328e-19)
(8.94957 -1.5168 1.75437e-19)
(8.88047 -1.84998 -5.63774e-20)
(8.79759 -2.18048 -7.64695e-20)
(8.701 -2.50777 -5.30321e-20)
(8.59086 -2.83131 -7.50406e-22)
(8.46724 -3.15068 -1.43201e-19)
(8.33042 -3.46536 4.78322e-20)
(8.18032 -3.77514 2.05005e-19)
(8.01753 -4.07936 4.80557e-19)
(7.84153 -4.3786 8.75189e-19)
(7.65386 -4.67138 -9.29636e-20)
(7.45254 -4.96101 9.95287e-19)
(7.24279 -5.2428 -4.16908e-19)
(7.01799 -5.5277 5.88822e-19)
(6.79636 -5.80036 3.32899e-19)
(6.55866 -6.07988 -1.88393e-19)
(8.79101 -0.161765 1.13776e-20)
(8.77781 -0.488378 -3.02054e-20)
(8.75116 -0.814621 -2.18001e-19)
(8.71105 -1.13991 -1.80429e-19)
(8.65752 -1.46366 2.1565e-19)
(8.59062 -1.78533 3.2236e-19)
(8.51044 -2.10441 2.06348e-20)
(8.41705 -2.42038 -1.81909e-19)
(8.3106 -2.73276 -2.54901e-19)
(8.19112 -3.04113 3.96639e-19)
(8.0589 -3.345 -2.70482e-20)
(7.91374 -3.64418 -7.8375e-19)
(7.75633 -3.93802 -7.92641e-19)
(7.58567 -4.22718 3.00538e-19)
(7.40384 -4.50999 3.56916e-19)
(7.20713 -4.79063 -3.59612e-20)
(7.00303 -5.06291 -2.85352e-19)
(6.77886 -5.34452 -2.2409e-19)
(6.56469 -5.61213 -2.95641e-19)
(6.31979 -5.90959 4.85619e-19)
(8.50843 -0.156266 -3.46397e-20)
(8.49543 -0.471633 6.00914e-20)
(8.46951 -0.786855 3.80472e-20)
(8.43067 -1.10136 5.95367e-20)
(8.3789 -1.4146 -2.25286e-19)
(8.31423 -1.72605 -2.7596e-19)
(8.23673 -2.03523 -6.50046e-20)
(8.14643 -2.34165 3.40858e-19)
(8.04346 -2.64484 1.66875e-19)
(7.92777 -2.9444 8.12763e-20)
(7.79966 -3.23985 -3.05672e-19)
(7.65874 -3.53101 6.07169e-19)
(7.50587 -3.81723 -5.81478e-19)
(7.33939 -4.09915 -1.41161e-19)
(7.16217 -4.37499 -1.80024e-19)
(6.96803 -4.64921 -2.17007e-20)
(6.76778 -4.91424 -2.94716e-19)
(6.53879 -5.19334 3.74346e-19)
(6.32909 -5.45338 2.12214e-19)
(6.06168 -5.79205 -1.10841e-18)
(11.8072 12.6929 1.93003e-18)
(12.2976 12.2143 -2.89519e-18)
(12.7667 11.7176 9.91502e-19)
(13.2161 11.2047 2.22677e-18)
(13.6449 10.6756 1.62187e-19)
(14.0521 10.1305 -1.54622e-18)
(14.4366 9.56973 -3.15107e-19)
(14.798 8.99423 -1.47874e-18)
(15.1357 8.40489 -8.1615e-20)
(15.4492 7.80264 5.58647e-19)
(15.738 7.18847 6.86782e-19)
(16.0018 6.5634 -1.10439e-18)
(16.24 5.92845 5.65268e-19)
(16.4524 5.28472 1.61493e-18)
(16.6388 4.63324 -2.88888e-19)
(16.7989 3.97518 -9.46355e-19)
(16.9326 3.31142 1.2625e-18)
(17.04 2.64347 -7.75573e-19)
(17.1206 1.97126 -1.15544e-19)
(17.1755 1.29808 -8.08553e-20)
(12.2221 11.6861 1.03843e-18)
(12.6827 11.2051 -3.04826e-18)
(13.1215 10.7061 -1.75896e-18)
(13.5388 10.1902 7.72609e-19)
(13.9345 9.6578 -1.90706e-18)
(14.3078 9.10943 1.09482e-18)
(14.6579 8.54583 2.13108e-19)
(14.9842 7.96801 -1.57748e-18)
(15.2861 7.37697 5.71271e-19)
(15.5631 6.77377 4.06244e-19)
(15.8147 6.15949 1.3731e-18)
(16.0406 5.53525 -1.16427e-18)
(16.2402 4.90215 -6.04787e-19)
(16.4134 4.26139 1.32125e-18)
(16.5598 3.61408 -7.63532e-19)
(16.6793 2.96146 1.42397e-19)
(16.7718 2.30451 -4.82781e-19)
(16.8373 1.6446 -1.01111e-20)
(16.8754 0.982264 -2.39505e-19)
(16.8864 0.319028 6.47149e-20)
(11.7882 11.2016 2.1587e-19)
(12.2378 10.7502 3.11199e-19)
(12.6677 10.2803 2.57557e-18)
(13.0773 9.79249 -8.25473e-19)
(13.466 9.28743 2.6512e-20)
(13.8333 8.76588 1.49204e-18)
(14.1784 8.22873 -4.452e-19)
(14.5005 7.67696 -2.04317e-18)
(14.7992 7.11161 2.32669e-18)
(15.0739 6.5337 -1.40866e-18)
(15.3239 5.94431 -6.22618e-19)
(15.5489 5.34452 -1.01362e-18)
(15.7484 4.73545 5.31133e-19)
(15.9221 4.11825 -5.82692e-19)
(16.0696 3.49405 4.34158e-19)
(16.1907 2.86404 -9.15978e-19)
(16.2852 2.22928 9.63982e-19)
(16.353 1.591 3.9993e-19)
(16.3938 0.950104 -7.09864e-20)
(16.4075 0.307951 8.4993e-20)
(11.2246 10.6919 -1.52158e-18)
(11.6593 10.2712 -1.17362e-19)
(12.0762 9.83199 5.41816e-19)
(12.4745 9.37482 -1.24542e-18)
(12.8533 8.90045 2.14672e-18)
(13.2119 8.40969 6.65121e-19)
(13.5497 7.90344 -3.66286e-19)
(13.866 7.38259 -1.29652e-19)
(14.1602 6.84806 1.77267e-18)
(14.4316 6.30086 7.28782e-19)
(14.6797 5.74195 1.43763e-18)
(14.904 5.17239 -3.25589e-19)
(15.1041 4.59323 -1.44322e-19)
(15.2795 4.00555 -4.34328e-19)
(15.4299 3.41046 7.16563e-19)
(15.5549 2.80906 -3.51799e-19)
(15.6544 2.20244 -3.58976e-19)
(15.7282 1.59177 1.4173e-19)
(15.7759 0.978115 -9.28124e-21)
(15.7975 0.362742 -2.18125e-20)
(10.704 10.1342 1.46693e-18)
(11.1193 9.7391 2.29293e-19)
(11.5184 9.32618 -2.9041e-18)
(11.9002 8.89594 -9.04504e-19)
(12.2638 8.44906 -4.05575e-19)
(12.6085 7.98633 -1.83955e-18)
(12.9338 7.50855 -1.01502e-18)
(13.2388 7.01655 -7.52523e-19)
(13.5231 6.51118 9.0487e-19)
(13.7859 5.99334 -3.32362e-19)
(14.0269 5.46396 5.7809e-19)
(14.2453 4.92403 8.2005e-20)
(14.4409 4.37451 1.39468e-19)
(14.6131 3.81644 -1.42276e-18)
(14.7617 3.25085 -2.62e-19)
(14.8862 2.6788 1.50352e-19)
(14.9864 2.10135 -7.87345e-20)
(15.062 1.51959 1.2951e-19)
(15.1129 0.93462 -1.55432e-19)
(15.1388 0.347578 2.13425e-20)
(10.2146 9.60383 -2.98505e-19)
(10.6099 9.23097 3.34304e-20)
(10.9901 8.84117 1.19863e-18)
(11.3541 8.43485 -2.6331e-19)
(11.701 8.01262 7.43525e-19)
(12.0302 7.57519 -2.4394e-18)
(12.3411 7.1233 1.64562e-18)
(12.633 6.65773 -2.97318e-19)
(12.9054 6.17925 -3.04782e-20)
(13.1576 5.68872 3.35278e-19)
(13.3892 5.187 6.59585e-19)
(13.5996 4.67501 -1.1455e-18)
(13.7884 4.15366 5.8104e-19)
(13.9553 3.62393 8.5153e-19)
(14.0997 3.08679 3.31449e-20)
(14.2214 2.54322 -3.4136e-19)
(14.3201 1.99424 -2.75615e-20)
(14.3955 1.44088 -7.09481e-20)
(14.4475 0.884187 1.75203e-20)
(14.4758 0.325207 -1.41219e-20)
(9.76228 9.11841 5.20947e-19)
(10.1382 8.76498 3.24709e-19)
(10.4999 8.39551 1.96053e-19)
(10.8462 8.01035 -1.21959e-18)
(11.1765 7.61002 -1.12579e-18)
(11.49 7.19519 2.55416e-18)
(11.7862 6.76653 2.52883e-19)
(12.0645 6.32479 2.42407e-19)
(12.3243 5.8707 7.8862e-19)
(12.5652 5.40503 -1.2342e-18)
(12.7865 4.92864 1.93118e-19)
(12.9879 4.44236 5.40221e-19)
(13.1689 3.94707 -3.91754e-19)
(13.329 3.44367 -1.64499e-19)
(13.4681 2.93308 6.43966e-19)
(13.5856 2.41624 -1.44415e-20)
(13.6814 1.8941 -2.30599e-20)
(13.7551 1.36762 -7.61182e-20)
(13.8066 0.837806 1.24742e-20)
(13.8357 0.305623 7.6673e-20)