/*--------------------------------*- C++ -*----------------------------------*\
| =========                 |                                                 |
| \\      /  F ield         | OpenFOAM: The Open Source CFD Toolbox           |
|  \\    /   O peration     | Version:  v1912                                 |
|   \\  /    A nd           | Website:  www.openfoam.com                      |
|    \\/     M anipulation  |                                                 |
\*---------------------------------------------------------------------------*/
FoamFile
{
    version     2.0;
    format      ascii;
    class       surfaceScalarField;
    location    "61";
    object      phi;
}
// * * * * * * * * * * * * * * * * * * * * * * * * * * * * * * * * * * * * * //

dimensions      [0 3 -1 0 0 0 0];
oriented        oriented;


internalField   nonuniform List<scalar> 
18940
(
0.000358456
-0.234359
0.234
0.00137969
-0.216316
0.215295
0.00288424
-0.204781
0.203277
0.00470157
-0.197001
0.195184
0.0067008
-0.191249
0.18925
0.00878016
-0.186459
0.184379
0.0108658
-0.182041
0.179955
0.0129083
-0.1777
0.175657
0.0148774
-0.173312
0.171343
0.0167579
-0.168848
0.166968
0.0185448
-0.16433
0.162543
0.0202407
-0.159799
0.158103
0.0218526
-0.155304
0.153692
0.0233904
-0.150888
0.14935
0.0248652
-0.146588
0.145113
0.0262888
-0.142428
0.141004
0.0276726
-0.13842
0.137036
0.0290272
-0.134562
0.133207
0.0303609
-0.130834
0.1295
-0.127197
0.125879
0.0316792
0.000381886
-0.234741
0.00142301
-0.217358
0.00293829
-0.206297
0.00475993
-0.198823
0.00675361
-0.193243
0.00881763
-0.188523
0.0108794
-0.184102
0.0128911
-0.179711
0.0148244
-0.175245
0.0166656
-0.170689
0.0184118
-0.166076
0.0200665
-0.161454
0.021638
-0.156875
0.0231366
-0.152387
0.024574
-0.148025
0.0259623
-0.143816
0.0273131
-0.13977
0.0286373
-0.135886
0.0299438
-0.132141
-0.128492
0.0312387
0.000403315
-0.235144
0.00146067
-0.218415
0.00298467
-0.207821
0.00480686
-0.200645
0.00679135
-0.195227
0.00883638
-0.190568
0.0108706
-0.186137
0.012848
-0.181689
0.0147423
-0.177139
0.0165416
-0.172489
0.0182445
-0.167779
0.019856
-0.163065
0.0213852
-0.158404
0.0228431
-0.153845
0.0242417
-0.149424
0.0255933
-0.145167
0.0269098
-0.141087
0.0282024
-0.137179
0.0294804
-0.133419
-0.129762
0.0307507
0.000417192
-0.235561
0.00148959
-0.219487
0.00302146
-0.209352
0.00484163
-0.202465
0.00681356
-0.197199
0.00883603
-0.19259
0.0108392
-0.18814
0.0127791
-0.183629
0.0146314
-0.178992
0.0163862
-0.174244
0.0180437
-0.169436
0.0196101
-0.164632
0.0210953
-0.15989
0.0225111
-0.15526
0.0238697
-0.150783
0.0251835
-0.146481
0.0264646
-0.142368
0.0277245
-0.138438
0.0289731
-0.134667
-0.131007
0.030218
0.000428465
-0.23599
0.00151313
-0.220572
0.00305001
-0.210889
0.0048649
-0.20428
0.00682071
-0.199155
0.00881706
-0.194587
0.0107858
-0.190109
0.012685
-0.185528
0.0144925
-0.180799
0.0162004
-0.175951
0.0178103
-0.171046
0.0193298
-0.166151
0.0207697
-0.161329
0.0221421
-0.156633
0.0234595
-0.1521
0.0247345
-0.147756
0.0259792
-0.143613
0.0272055
-0.139665
0.0284238
-0.135886
-0.132226
0.0296426
0.000437559
-0.236427
0.00153168
-0.221666
0.00307057
-0.212428
0.0048769
-0.206086
0.00681311
-0.201091
0.00877985
-0.196553
0.0107109
-0.19204
0.0125664
-0.187383
0.0143264
-0.182559
0.0159851
-0.17761
0.0175455
-0.172607
0.0190165
-0.167622
0.0204095
-0.162723
0.0217373
-0.157961
0.0230124
-0.153375
0.0242475
-0.148991
0.025455
-0.14482
0.0266467
-0.140856
0.0278337
-0.137073
-0.133418
0.0290257
0.000445042
-0.236872
0.00154593
-0.222767
0.00308372
-0.213966
0.00487812
-0.207881
0.00679125
-0.203004
0.008725
-0.198487
0.0106151
-0.19393
0.0124241
-0.189192
0.0141341
-0.184269
0.0157413
-0.179217
0.0172503
-0.174116
0.0186712
-0.169043
0.020016
-0.164067
0.0212978
-0.159242
0.0225296
-0.154607
0.0237238
-0.150186
0.0248928
-0.145989
0.0260489
-0.142012
0.0272037
-0.138227
-0.134582
0.028368
0.000451067
-0.237323
0.00155619
-0.223872
0.00308986
-0.2155
0.00486903
-0.20966
0.00675571
-0.204891
0.00865319
-0.200385
0.0104993
-0.195776
0.012259
-0.190952
0.0139166
-0.185927
0.0154701
-0.180771
0.0169259
-0.175571
0.018295
-0.170412
0.0195901
-0.165363
0.0208248
-0.160477
0.0220119
-0.155794
0.0231639
-0.151338
0.0242932
-0.147119
0.0254124
-0.143132
0.0265338
-0.139349
-0.135718
0.0276693
0.000455741
-0.237779
0.00156276
-0.224979
0.00308942
-0.217026
0.00485019
-0.211421
0.00670718
-0.206748
0.00856523
-0.202243
0.0103645
-0.197575
0.0120721
-0.19266
0.013675
-0.18753
0.0151728
-0.182269
0.0165735
-0.176972
0.0178891
-0.171728
0.019133
-0.166607
0.020319
-0.161663
0.02146
-0.156935
0.0225684
-0.152446
0.0236565
-0.148207
0.0247371
-0.144212
0.0258234
-0.140435
-0.136823
0.0269287
0.000459138
-0.238238
0.00156593
-0.226086
0.0030829
-0.218543
0.00482226
-0.21316
0.00664646
-0.208572
0.00846211
-0.204058
0.0102117
-0.199325
0.0118649
-0.194313
0.0134107
-0.189075
0.0148508
-0.183709
0.0161945
-0.178316
0.0174548
-0.172988
0.0186458
-0.167798
0.0197815
-0.162799
0.0208747
-0.158028
0.0219376
-0.153509
0.0229825
-0.149252
0.0240223
-0.145252
0.0250714
-0.141484
-0.137896
0.0261444
0.000461364
-0.2387
0.00156603
-0.227191
0.00307086
-0.220048
0.00478599
-0.214875
0.0065745
-0.210361
0.00834494
-0.205829
0.0100423
-0.201022
0.0116386
-0.195909
0.0131252
-0.190562
0.0145056
-0.185089
0.0157904
-0.179601
0.0169936
-0.174191
0.0181298
-0.168934
0.0192131
-0.163882
0.0202564
-0.159071
0.0212716
-0.154524
0.0222707
-0.150251
0.023267
-0.146248
0.0242758
-0.142493
-0.138934
0.0253137
0.000462574
-0.239162
0.00156352
-0.228292
0.00305398
-0.221539
0.00474228
-0.216563
0.00649241
-0.212111
0.00821507
-0.207551
0.00985772
-0.202665
0.011395
-0.197447
0.0128204
-0.191987
0.0141391
-0.186408
0.0153631
-0.180825
0.0165071
-0.175335
0.0175864
-0.170013
0.0186151
-0.164911
0.0196059
-0.160062
0.0205706
-0.155489
0.0215208
-0.151201
0.02247
-0.147198
0.0234345
-0.143458
-0.139933
0.0244335
0.000463049
-0.239625
0.00155901
-0.229387
0.00303313
-0.223013
0.0046922
-0.218222
0.00640149
-0.21382
0.00807403
-0.209224
0.00965987
-0.204251
0.0111361
-0.198923
0.0124984
-0.19335
0.0137536
-0.187663
0.0149148
-0.181986
0.0159976
-0.176418
0.0170176
-0.171033
0.017989
-0.165882
0.0189244
-0.160998
0.0198351
-0.156399
0.0207324
-0.152098
0.02163
-0.148095
0.0225453
-0.144373
-0.140888
0.0234999
0.000463265
-0.240089
0.00155335
-0.230478
0.00300935
-0.224469
0.004637
-0.21985
0.00630323
-0.215486
0.00792357
-0.210844
0.00945071
-0.205778
0.0108642
-0.200336
0.0121618
-0.194647
0.0133518
-0.188853
0.0144484
-0.183082
0.0154679
-0.177437
0.0164259
-0.171991
0.0173369
-0.166793
0.0182131
-0.161874
0.0190655
-0.157252
0.019905
-0.152938
0.0207449
-0.148935
0.0216039
-0.145232
-0.141791
0.0225067
0.000464025
-0.240553
0.00154773
-0.231561
0.00298387
-0.225905
0.00457804
-0.221444
0.00619922
-0.217108
0.0077656
-0.212411
0.00923252
-0.207245
0.010582
-0.201686
0.0118135
-0.195879
0.012937
-0.189977
0.0139676
-0.184113
0.0149216
-0.178391
0.0158152
-0.172885
0.0166623
-0.16764
0.017475
-0.162686
0.0182635
-0.15804
0.0190383
-0.153713
0.019812
-0.149709
0.0206043
-0.146024
-0.142632
0.0214454
0.000466476
-0.241019
0.00154343
-0.232638
0.00295789
-0.227319
0.00451668
-0.223003
0.00609117
-0.218682
0.00760219
-0.213922
0.00900779
-0.20865
0.0102923
-0.20297
0.0114571
-0.197043
0.0125133
-0.191033
0.0134767
-0.185076
0.014364
-0.179279
0.0151909
-0.173712
0.015971
-0.16842
0.0167158
-0.163431
0.0174345
-0.158759
0.0181363
-0.154414
0.0188331
-0.150406
0.0195455
-0.146737
-0.143399
0.0203126
0.000472011
-0.241491
0.00154178
-0.233708
0.00293273
-0.22871
0.0044545
-0.224525
0.00598092
-0.220209
0.00743555
-0.215376
0.00877913
-0.209994
0.00999834
-0.204189
0.0110963
-0.198141
0.0120851
-0.192022
0.012981
-0.185972
0.0138007
-0.180098
0.0145594
-0.17447
0.0152703
-0.169131
0.0159436
-0.164105
0.0165876
-0.159403
0.0172099
-0.155037
0.0178206
-0.151016
0.0184401
-0.147356
-0.144067
0.0191085
0.000482957
-0.241974
0.0015454
-0.23477
0.00291087
-0.230076
0.0043936
-0.226008
0.00587044
-0.221685
0.00726778
-0.216774
0.00854909
-0.211275
0.00970332
-0.205344
0.0107351
-0.199173
0.0116575
-0.192944
0.0124866
-0.186801
0.0132387
-0.18085
0.0139283
-0.17516
0.0145671
-0.16977
0.0151643
-0.164702
0.0157274
-0.159966
0.0162627
-0.155572
0.0167768
-0.15153
0.0172823
-0.147862
-0.144588
0.0178035
0.000506896
-0.242481
0.00156151
-0.235825
0.00289635
-0.231411
0.00433588
-0.227447
0.00576097
-0.22311
0.00710031
-0.218113
0.00831972
-0.212495
0.00941021
-0.206434
0.0103778
-0.200141
0.0112363
-0.193802
0.0120015
-0.187567
0.0126887
-0.181538
0.0133105
-0.175782
0.0138759
-0.170335
0.0143908
-0.165217
0.0148588
-0.160434
0.0152819
-0.155995
0.0156588
-0.151907
0.0159941
-0.148197
-0.144944
0.0163498
0.000563946
-0.243045
0.00159841
-0.23686
0.00288894
-0.232701
0.00428018
-0.228838
0.00565203
-0.224482
0.00693354
-0.219394
0.00809231
-0.213653
0.00912129
-0.207463
0.0100281
-0.201048
0.0108271
-0.194601
0.0115346
-0.188274
0.0121648
-0.182168
0.0127283
-0.176345
0.0132309
-0.170838
0.0136723
-0.165658
0.014045
-0.160807
0.0143323
-0.156282
0.0145079
-0.152083
0.0145668
-0.148256
-0.145116
0.0147386
0.250731
0.000415199
-0.251146
0.250342
0.000388843
0.24996
0.000381577
0.249579
0.000381714
0.249194
0.000384665
0.248805
0.000389082
0.248411
0.000394238
0.248011
0.000399546
0.247606
0.000404616
0.247197
0.000409242
0.246784
0.000413328
0.246367
0.000416845
0.245947
0.000419776
0.245525
0.000422098
0.245101
0.000423688
0.244677
0.000424342
0.244254
0.00042301
0.243835
0.000419142
0.243431
0.000403537
0.000386454
0.252706
0.00102391
-0.253315
0.252062
0.00103315
0.251389
0.00105426
0.250689
0.00108127
0.249964
0.00110965
0.249216
0.00113804
0.248444
0.00116597
0.24765
0.00119295
0.246836
0.00121855
0.246003
0.00124251
0.245152
0.00126473
0.244283
0.00128518
0.243399
0.00130386
0.242501
0.00132075
0.241589
0.00133572
0.240664
0.00134857
0.239729
0.00135819
0.238784
0.00136431
0.237827
0.00136066
0.0013539
0.251491
0.00159609
-0.252063
0.250854
0.00167005
0.250164
0.00174423
0.249426
0.0018195
0.248642
0.00189353
0.247815
0.0019651
0.246947
0.00203387
0.24604
0.00209962
0.245096
0.00216211
0.244118
0.00222118
0.243106
0.00227677
0.242062
0.00232894
0.240988
0.00237777
0.239885
0.00242337
0.238755
0.00246575
0.237599
0.00250496
0.236417
0.00254046
0.235209
0.00257251
0.233971
0.00259873
0.00262328
0.247387
0.00203968
-0.247831
0.246874
0.00218331
0.246296
0.00232233
0.245657
0.00245816
0.24496
0.00259016
0.244208
0.00271752
0.243402
0.00283991
0.242544
0.00295717
0.241637
0.00306917
0.240683
0.00317581
0.239682
0.00327712
0.238638
0.00337324
0.237551
0.00346437
0.236424
0.00355079
0.235257
0.00363278
0.234051
0.00371069
0.232807
0.00378463
0.231524
0.00385523
0.230201
0.00392176
0.00398622
0.24114
0.00231881
-0.241419
0.240789
0.00253378
0.24037
0.00274197
0.239884
0.00294422
0.239333
0.00314051
0.23872
0.00333037
0.238047
0.00351346
0.237314
0.00368959
0.236525
0.00385866
0.23568
0.00402061
0.234782
0.00417552
0.233831
0.00432359
0.232831
0.00446515
0.231781
0.00460067
0.230683
0.00473068
0.229538
0.00485588
0.228345
0.00497687
0.227106
0.00509461
0.225819
0.00520925
0.00532247
0.233542
0.00244217
-0.233666
0.233348
0.00272776
0.233085
0.00300542
0.232754
0.00327544
0.232356
0.00353787
0.231894
0.00379239
0.231369
0.00403869
0.230782
0.00427652
0.230135
0.00450576
0.229429
0.00472637
0.228666
0.00493844
0.227848
0.00514225
0.226975
0.00533821
0.226048
0.00552697
0.22507
0.00570932
0.224039
0.00588631
0.222957
0.00605899
0.221823
0.00622874
0.220636
0.00639642
0.00656387
0.225299
0.00244032
-0.225297
0.225233
0.00279398
0.225099
0.00313895
0.224899
0.00347518
0.224635
0.00380257
0.224306
0.00412087
0.223915
0.00442973
0.223463
0.00472888
0.22295
0.00501814
0.222379
0.00529745
0.221751
0.00556693
0.221066
0.00582685
0.220327
0.00607775
0.219533
0.00632042
0.218687
0.0065559
0.217787
0.0067856
0.216835
0.00701106
0.21583
0.00723419
0.21477
0.00745652
0.00768021
0.216937
0.00234947
-0.216846
0.216963
0.00276765
0.216926
0.00317654
0.216825
0.00357585
0.216662
0.00396538
0.216438
0.00434481
0.216154
0.00471375
0.215811
0.00507189
0.21541
0.00541898
0.214953
0.00575494
0.21444
0.00607983
0.213873
0.00639396
0.213253
0.00669791
0.21258
0.0069926
0.211857
0.00727936
0.211083
0.00755994
0.210257
0.00783644
0.20938
0.00811139
0.208449
0.00838716
0.00866642
0.208804
0.00220295
-0.208657
0.20889
0.00268185
0.208915
0.0031509
0.208882
0.00360967
0.208789
0.00405782
0.208639
0.00449498
0.208432
0.00492069
0.208169
0.00533455
0.207852
0.00573627
0.207481
0.00612568
0.207058
0.00650279
0.206584
0.00686787
0.206061
0.00722152
0.205489
0.00756478
0.204869
0.0078992
0.204202
0.0082269
0.203488
0.00855065
0.202725
0.00887372
0.201913
0.00919956
0.0095317
0.2011
0.00202776
-0.200925
0.201218
0.00256381
0.20128
0.00308943
0.201285
0.00360409
0.201236
0.00410736
0.201132
0.00459875
0.200975
0.00507775
0.200766
0.00554386
0.200505
0.0059967
0.200195
0.006436
0.199836
0.00686166
0.19943
0.00727389
0.198978
0.00767325
0.198482
0.00806078
0.197943
0.00843827
0.197362
0.00880816
0.196739
0.00917397
0.196073
0.00953988
0.195361
0.00991083
0.0102916
0.19392
0.00184377
-0.193736
0.19405
0.00243385
0.194126
0.00301292
0.19415
0.00358034
0.194122
0.00413556
0.194042
0.00467801
0.193913
0.00520708
0.193735
0.00572219
0.193509
0.00622282
0.193236
0.00670856
0.192918
0.00717919
0.192558
0.00763475
0.192155
0.0080757
0.191713
0.00850299
0.191233
0.00891855
0.190716
0.00932503
0.190163
0.00972688
0.189574
0.0101291
0.188945
0.010539
0.010963
0.187284
0.00166438
-0.187105
0.187412
0.00230598
0.187489
0.00293599
0.187516
0.00355357
0.187493
0.0041581
0.187422
0.00474892
0.187304
0.00532533
0.18714
0.00588661
0.18693
0.00643212
0.186678
0.00696127
0.186383
0.00747367
0.186049
0.00796909
0.185677
0.00844781
0.185269
0.0089105
0.184829
0.00935915
0.184357
0.00979634
0.183856
0.0102277
0.183327
0.0106588
0.182766
0.0111003
0.0115607
0.181175
0.00149794
-0.181008
0.181291
0.00218922
0.181359
0.00286815
0.181379
0.00353382
0.181352
0.00418555
0.181278
0.00482259
0.181159
0.00544411
0.180996
0.00604928
0.180791
0.00663729
0.180545
0.00720737
0.18026
0.00775885
0.179938
0.0082912
0.179581
0.00880437
0.179193
0.00929855
0.178777
0.00977562
0.178335
0.0102376
0.177872
0.0106915
0.177388
0.0111427
0.17688
0.0116077
0.0120958
0.175548
0.00134927
-0.175399
0.175649
0.00208871
0.175702
0.002815
0.175708
0.0035272
0.175669
0.0042245
0.175586
0.00490606
0.175459
0.00557095
0.17529
0.00621821
0.175081
0.00684686
0.174832
0.0074559
0.174547
0.00804437
0.174227
0.00861133
0.173875
0.00915627
0.173495
0.00967864
0.17309
0.01018
0.172667
0.010661
0.172228
0.0111305
0.171779
0.0115915
0.171316
0.0120705
0.0125742
0.170353
0.00122065
-0.170224
0.170434
0.00200714
0.17047
0.00277955
0.17046
0.00353698
0.170406
0.00427854
0.170309
0.00500327
0.17017
0.00571015
0.16999
0.0063981
0.169771
0.00706595
0.169514
0.00771247
0.169222
0.00833637
0.168897
0.00893622
0.168543
0.00951093
0.168162
0.0100589
0.167761
0.0105811
0.167346
0.0110758
0.166923
0.0115539
0.166502
0.0120122
0.166078
0.0124945
0.0129945
0.165534
0.00111286
-0.165426
0.165596
0.00194532
0.165612
0.00276279
0.165585
0.00356435
0.165514
0.00434904
0.165402
0.0051158
0.165249
0.00586353
0.165056
0.00659102
0.164825
0.00729693
0.164557
0.00797979
0.164256
0.00863797
0.163922
0.00926952
0.163561
0.00987266
0.163175
0.0104445
0.162771
0.0109851
0.162358
0.0114887
0.161943
0.0119691
0.161546
0.0124095
0.161157
0.0128831
0.0133446
0.161039
0.00102538
-0.160951
0.161081
0.00190277
0.16108
0.00276428
0.161035
0.00360893
0.160949
0.00443567
0.160821
0.00524339
0.160654
0.0060309
0.160448
0.00679686
0.160205
0.00753981
0.159927
0.00825803
0.159615
0.00894957
0.159273
0.00961201
0.158902
0.0102428
0.158509
0.0108376
0.158099
0.011395
0.157684
0.0119041
0.157272
0.0123812
0.156895
0.0127864
0.156536
0.0132416
0.0135987
0.15682
0.000956393
-0.156751
0.156845
0.00187793
0.156827
0.00278232
0.156767
0.00366888
0.156666
0.00453649
0.156526
0.00538393
0.156347
0.00620999
0.15613
0.00701324
0.155878
0.00779207
0.155592
0.00854459
0.155273
0.00926859
0.154923
0.0099612
0.154547
0.0106192
0.154148
0.0112368
0.153732
0.011811
0.153312
0.012324
0.1529
0.0127935
0.152544
0.0131421
0.15221
0.0135755
0.0137258
0.152836
0.000903937
-0.152784
0.152846
0.00186794
0.152815
0.00281369
0.152743
0.00374063
0.152632
0.00464745
0.152483
0.00553297
0.152297
0.00639592
0.152075
0.00723482
0.15182
0.00804795
0.151531
0.00883329
0.151211
0.00958846
0.150862
0.0103102
0.150486
0.010995
0.150087
0.0116357
0.14967
0.012228
0.149248
0.0127467
0.148832
0.0132095
0.148497
0.0134768
0.148204
0.0138685
0.0136738
0.149046
-0.149009
0.000866454
0.149045
0.00186886
0.149005
0.002854
0.148927
0.00381908
0.148811
0.00476274
0.148661
0.0056839
0.148475
0.00658129
0.148257
0.00745338
0.148006
0.00829839
0.147725
0.00911424
0.147415
0.00989846
0.147078
0.0106477
0.146715
0.0113581
0.146329
0.0120217
0.145922
0.0126345
0.145505
0.0131642
0.145081
0.0136331
0.14473
0.0138277
0.144472
0.0141264
0.0130304
0.25437
7.40839e-05
-0.254444
0.254334
3.63995e-05
0.254301
3.25705e-05
0.254259
4.15078e-05
0.254204
5.5945e-05
0.25413
7.38029e-05
0.254036
9.37781e-05
0.253921
0.000114746
0.253785
0.000135893
0.253629
0.000156712
0.253452
0.000176763
0.253256
0.000195768
0.253042
0.000214223
0.252809
0.00023319
0.252558
0.00025048
0.252293
0.000265656
0.252014
0.000278323
0.251726
0.000288387
0.251436
0.000289988
0.00029
0.256236
-0.000241581
-0.25592
0.25649
-0.000217591
0.256699
-0.000176646
0.256864
-0.000122825
0.256982
-6.26408e-05
0.257055
1.30109e-06
0.257081
6.78574e-05
0.25706
0.000135937
0.256991
0.000204615
0.256875
0.000272956
0.256712
0.000339718
0.256504
0.000403656
0.256254
0.000463523
0.255957
0.000531022
0.255614
0.000592721
0.25523
0.000649878
0.254806
0.000702341
0.254344
0.000750039
0.253846
0.000788318
0.0008214
0.251673
-0.000898436
-0.251016
0.252257
-0.0008015
0.252775
-0.000694712
0.253231
-0.000578241
0.253624
-0.000455599
0.253954
-0.00032903
0.254221
-0.000199682
0.254426
-6.89593e-05
0.254568
6.31461e-05
0.254645
0.000196053
0.254658
0.000325926
0.25461
0.000452393
0.254495
0.000577752
0.254324
0.000702865
0.254093
0.000823784
0.253803
0.000939691
0.253455
0.00105011
0.25305
0.00115494
0.252586
0.00125223
0.00134478
0.243355
-0.00183435
-0.242419
0.244218
-0.00166465
0.245011
-0.00148766
0.245735
-0.00130267
0.246391
-0.00111134
0.246977
-0.000915493
0.247494
-0.000716466
0.247941
-0.000515522
0.248317
-0.000313354
0.248621
-0.000107182
0.248852
9.47723e-05
0.249015
0.000289555
0.249106
0.000486257
0.249129
0.000679938
0.249083
0.000869532
0.248969
0.00105413
0.248786
0.00123298
0.248535
0.00140572
0.248216
0.0015713
0.00173025
0.233272
-0.00296923
-0.232137
0.234338
-0.00273128
0.235337
-0.00248581
0.236266
-0.0022324
0.237127
-0.00197197
0.237917
-0.00170601
0.238637
-0.00143595
0.239284
-0.001163
0.239859
-0.000888121
0.240364
-0.000612102
0.240797
-0.000338174
0.241154
-6.77425e-05
0.241439
0.000201261
0.241652
0.000466929
0.241793
0.000728868
0.241861
0.000985633
0.241858
0.00123649
0.241783
0.00148086
0.241636
0.00171791
0.00194757
0.222715
-0.00423064
-0.221453
0.223913
-0.00392933
0.225046
-0.00361894
0.226113
-0.00329961
0.227113
-0.00297216
0.228045
-0.00263803
0.228908
-0.00229877
0.229701
-0.00195586
0.230424
-0.00161073
0.231076
-0.00126474
0.231658
-0.000919453
0.232166
-0.000576148
0.232603
-0.000235691
0.23297
0.000100386
0.233265
0.000433555
0.233488
0.000762702
0.233639
0.00108516
0.233719
0.00140084
0.233728
0.00170913
0.00200978
0.212469
-0.00556096
-0.211139
0.21374
-0.00520048
0.21495
-0.00482881
0.216097
-0.00444659
0.21718
-0.00405487
0.218197
-0.00365526
0.219148
-0.00324958
0.220032
-0.00283955
0.220848
-0.00242684
0.221596
-0.0020129
0.222276
-0.00159913
0.222886
-0.00118696
0.223428
-0.000777158
0.223899
-0.00037048
0.224307
2.54175e-05
0.224643
0.000426788
0.224909
0.000818546
0.225107
0.00120297
0.225236
0.00158
0.00194922
0.202946
-0.0069184
-0.201588
0.204247
-0.00650208
0.205491
-0.00607216
0.206674
-0.00562967
0.207795
-0.00517612
0.208853
-0.00471348
0.209848
-0.00424392
0.210778
-0.00376943
0.211643
-0.00329187
0.212443
-0.00281284
0.213177
-0.00233383
0.213847
-0.00185621
0.21445
-0.00138104
0.214989
-0.000909281
0.215457
-0.000442303
0.21587
1.37613e-05
0.216211
0.000477353
0.216488
0.000926174
0.2167
0.00136844
0.0018028
0.194304
-0.00827514
-0.192947
0.195607
-0.0078055
0.196855
-0.00731958
0.198044
-0.00681871
0.199173
-0.00630506
0.20024
-0.00578121
0.201246
-0.00524974
0.20219
-0.00471297
0.203071
-0.00417296
0.20389
-0.0036315
0.204646
-0.00309011
0.20534
-0.00255014
0.205971
-0.00201276
0.206541
-0.0014789
0.207049
-0.00094997
0.20749
-0.000427276
0.207876
9.06964e-05
0.208198
0.000604476
0.208458
0.00110811
0.00160387
0.18655
-0.0096144
-0.185211
0.187838
-0.00909342
0.189072
-0.00855297
0.190248
-0.00799477
0.191365
-0.00742197
0.192422
-0.006838
0.193418
-0.00624594
0.194353
-0.00564848
0.195228
-0.00504792
0.196043
-0.00444615
0.196797
-0.00384474
0.197492
-0.00324501
0.198128
-0.00264811
0.198704
-0.002055
0.19922
-0.00146667
0.199677
-0.000884049
0.200076
-0.000307859
0.200418
0.000262322
0.200701
0.000825515
0.00137921
0.179614
-0.0109275
-0.178301
0.180877
-0.0103569
0.182087
-0.0097627
0.18324
-0.00914736
0.184333
-0.00851562
0.185367
-0.00787195
0.186341
-0.00722003
0.187256
-0.00656293
0.188111
-0.00590318
0.188908
-0.00524275
0.189646
-0.00458319
0.190327
-0.00392576
0.19095
-0.00327153
0.191517
-0.00262143
0.192026
-0.0019763
0.192479
-0.00133702
0.192875
-0.000704093
0.193218
-8.04574e-05
0.193505
0.00053923
0.00114816
0.173389
-0.0122114
-0.172105
0.174625
-0.0115929
0.175808
-0.0109451
0.176932
-0.010272
0.177998
-0.00958088
0.179003
-0.00887735
0.179949
-0.00816576
0.180836
-0.00744962
0.181664
-0.00673162
0.182435
-0.00601374
0.183149
-0.00529746
0.183807
-0.00458391
0.18441
-0.00387408
0.184957
-0.0031688
0.18545
-0.00246886
0.185888
-0.00177509
0.186272
-0.00108823
0.186601
-0.000409847
0.18688
0.00026023
0.000923797
0.167767
-0.013467
-0.166512
0.168977
-0.012803
0.170133
-0.0121008
0.171229
-0.0113685
0.172265
-0.0106168
0.173241
-0.00985267
0.174156
-0.00908113
0.175012
-0.00830612
0.175811
-0.00753043
0.176553
-0.00675593
0.17724
-0.00598394
0.177872
-0.00521546
0.178449
-0.00445129
0.178972
-0.00369222
0.179442
-0.00293894
0.179859
-0.00219227
0.180224
-0.00145268
0.180535
-0.000720904
0.180799
-3.7137e-06
0.000714487
0.162648
-0.014698
-0.161417
0.163837
-0.0139917
0.164969
-0.0132331
0.16604
-0.0124391
0.167048
-0.011625
0.167994
-0.0107989
0.16888
-0.00996657
0.169706
-0.00913241
0.170475
-0.00829919
0.171187
-0.00746854
0.171845
-0.00664153
0.172448
-0.00581893
0.172998
-0.00500138
0.173496
-0.00418953
0.173941
-0.003384
0.174334
-0.00258554
0.174676
-0.0017948
0.174968
-0.00101309
0.175207
-0.00024222
0.000521852
0.157948
-0.0159111
-0.156735
0.159123
-0.0151668
0.160238
-0.014348
0.161287
-0.0134883
0.162271
-0.0126087
0.16319
-0.011718
0.164046
-0.0108232
0.164843
-0.00992906
0.165582
-0.00903808
0.166265
-0.00815148
0.166893
-0.00726994
0.167468
-0.00639391
0.167991
-0.00552377
0.168461
-0.00466
0.16888
-0.00380314
0.169249
-0.00295389
0.169567
-0.00211299
0.169835
-0.00128141
0.170053
-0.000460248
0.000350734
0.153604
-0.0171189
-0.152397
0.154776
-0.0163386
0.15588
-0.015452
0.156913
-0.0145209
0.157874
-0.0135701
0.158767
-0.0126105
0.159594
-0.0116508
0.160361
-0.0106955
0.161069
-0.00974648
0.161722
-0.0088042
0.162321
-0.00786877
0.162867
-0.00694011
0.163361
-0.00601827
0.163805
-0.0051035
0.164198
-0.00419625
0.164541
-0.00329712
0.164835
-0.00240686
0.16508
-0.0015263
0.165276
-0.000656626
0.000201188
0.149572
-0.0183505
-0.14834
0.150756
-0.0175223
0.151855
-0.0165518
0.152874
-0.0155392
0.153812
-0.0145079
0.154675
-0.0134733
0.15547
-0.0124461
0.156203
-0.011429
0.156879
-0.0104223
0.1575
-0.00942532
0.158069
-0.00843722
0.158586
-0.00745722
0.159053
-0.00648491
0.159469
-0.00552032
0.159837
-0.00456374
0.160155
-0.00361575
0.160426
-0.00267706
0.160648
-0.00174858
0.160823
-0.000831261
7.25342e-05
0.145821
-0.0196705
-0.144501
0.147038
-0.0187399
0.148134
-0.0176479
0.149133
-0.0165381
0.150039
-0.0154139
0.150864
-0.0142982
0.151621
-0.0132026
0.152317
-0.0121252
0.152957
-0.0110628
0.153546
-0.0100134
0.154083
-0.00897486
0.154571
-0.00794543
0.155011
-0.00692431
0.155402
-0.0059113
0.155745
-0.00490664
0.15604
-0.00391089
0.156288
-0.00292481
0.156488
-0.00194947
0.156643
-0.000985833
-3.58538e-05
0.142367
-0.021149
-0.140889
0.143616
-0.0199888
0.14469
-0.018722
0.145647
-0.017495
0.146504
-0.0162713
0.14728
-0.0150745
0.147991
-0.0139136
0.148646
-0.0127802
0.14925
-0.0116667
0.149806
-0.0105686
0.150313
-0.00948248
0.150774
-0.00840595
0.151187
-0.00733786
0.151554
-0.00627797
0.151874
-0.00522657
0.152147
-0.00418427
0.152374
-0.00315192
0.152556
-0.00213069
0.152692
-0.00112209
-0.000127646
0.13928
-0.137862
-0.0225674
0.140443
-0.021151
0.141477
-0.0197559
0.142354
-0.018372
0.143143
-0.0170605
0.143866
-0.0157982
0.144532
-0.0145787
0.145146
-0.0133949
0.145715
-0.0122357
0.14624
-0.011093
0.146719
-0.00996206
0.147154
-0.00884048
0.147543
-0.00772707
0.147887
-0.0066217
0.148185
-0.00552486
0.148438
-0.00443732
0.148646
-0.00336006
0.14881
-0.00229408
0.148928
-0.00124095
-0.000208182
0.0308436
0.112053
-0.110568
-0.0323281
0.0293317
0.115055
-0.113543
0.0277897
0.118189
-0.116647
0.0262141
0.12148
-0.119904
0.0246015
0.124959
-0.123346
0.0229492
0.128667
-0.127015
0.0212552
0.132665
-0.130971
0.019518
0.137031
-0.135293
0.0177369
0.141868
-0.140087
0.0159125
0.147308
-0.145484
0.0140463
0.153513
-0.151647
0.0121427
0.160669
-0.158765
0.0102106
0.168977
-0.167045
0.00826666
0.178626
-0.176682
0.00634084
0.189739
-0.187813
0.0044833
0.20228
-0.200423
0.00277385
0.215912
-0.214203
0.00133306
0.229779
-0.228338
0.000330346
0.242096
-0.241093
0.249729
-0.249398
0.0306541
0.11353
-0.032131
0.0291499
0.116559
0.0276157
0.119724
0.0260482
0.123047
0.0244439
0.126563
0.0228
0.130311
0.0211144
0.134351
0.0193854
0.13876
0.0176123
0.143641
0.0157955
0.149125
0.0139368
0.155372
0.0120409
0.162565
0.0101172
0.170901
0.00818322
0.18056
0.00627005
0.191652
0.00442937
0.204121
0.00274247
0.217599
0.00132937
0.231192
0.000354105
0.243071
0.250083
0.0304227
0.114997
-0.0318899
0.0289283
0.118053
0.0274042
0.121248
0.025847
0.124605
0.0242532
0.128157
0.0226199
0.131945
0.0209448
0.136026
0.0192263
0.140478
0.0174635
0.145404
0.0156567
0.150932
0.013808
0.15722
0.0119222
0.16445
0.0100093
0.172813
0.0080877
0.182482
0.00618933
0.193551
0.00436694
0.205943
0.00270235
0.219264
0.00131393
0.23258
0.000357175
0.244028
0.25044
0.0301511
0.116452
-0.0316063
0.0286687
0.119536
0.0271568
0.122759
0.0256118
0.12615
0.0240305
0.129738
0.0224098
0.133565
0.0207473
0.137688
0.0190414
0.142184
0.017291
0.147154
0.0154965
0.152726
0.01366
0.159057
0.0117867
0.166324
0.00988692
0.174713
0.00797979
0.184389
0.00609813
0.195432
0.00429536
0.207746
0.00265348
0.220906
0.00128918
0.233945
0.000352105
0.244965
0.250792
0.0298414
0.117893
-0.0312828
0.0283729
0.121004
0.026875
0.124257
0.0253443
0.12768
0.0237772
0.131305
0.022171
0.135172
0.020523
0.139336
0.0188315
0.143875
0.0170956
0.14889
0.0153154
0.154506
0.0134932
0.160879
0.0116345
0.168182
0.00974998
0.176598
0.00785948
0.186279
0.00599653
0.197295
0.00421524
0.209528
0.0025976
0.222524
0.00125871
0.235284
0.00034318
0.245881
0.251135
0.0294962
0.119319
-0.0309223
0.0280432
0.122457
0.026561
0.12574
0.0250459
0.129195
0.0234948
0.132856
0.0219045
0.136762
0.0202727
0.140968
0.0185975
0.145551
0.0168778
0.15061
0.0151138
0.15627
0.0133079
0.162685
0.0114658
0.170024
0.00959874
0.178465
0.007727
0.188151
0.00588491
0.199137
0.00412718
0.211285
0.00253574
0.224115
0.0012239
0.236595
0.000331569
0.246773
0.251467
0.0291184
0.120729
-0.030528
0.027682
0.123894
0.0262165
0.127205
0.0247185
0.130693
0.0231845
0.13439
0.0216117
0.138335
0.0199975
0.142582
0.0183401
0.147208
0.0166382
0.152311
0.0148922
0.158016
0.0131046
0.164472
0.0112811
0.171848
0.00943349
0.180312
0.00758266
0.190002
0.0057636
0.200957
0.00403157
0.213017
0.00246831
0.225678
0.00118528
0.237878
0.000317978
0.24764
0.251785
0.0287108
0.122122
-0.0301034
0.0272916
0.125313
0.0258438
0.128653
0.0243637
0.132174
0.0228479
0.135906
0.0212936
0.139889
0.0196983
0.144177
0.01806
0.148847
0.0163775
0.153994
0.0146512
0.159743
0.0128835
0.16624
0.0110806
0.173651
0.00925452
0.182138
0.00742671
0.19183
0.00563285
0.20275
0.00392868
0.214721
0.00239567
0.227211
0.0011434
0.239131
0.00030301
0.248481
0.252088
0.0282762
0.123497
-0.0296518
0.0268745
0.126715
0.0254447
0.130083
0.023983
0.133635
0.0224861
0.137403
0.0209512
0.141424
0.0193758
0.145753
0.0177578
0.150465
0.0160962
0.155656
0.0143911
0.161448
0.0126451
0.167986
0.0108647
0.175431
0.00906207
0.183941
0.00725942
0.193632
0.00549295
0.204517
0.00381883
0.216396
0.00231819
0.228712
0.00109871
0.24035
0.000287081
0.249292
0.252375
0.0278176
0.124857
-0.0291769
0.0264329
0.128099
0.0250208
0.131495
0.0235776
0.135078
0.0221
0.13888
0.0205852
0.142939
0.0190305
0.147308
0.017434
0.152061
0.0157945
0.157295
0.0141121
0.16313
0.0123896
0.169709
0.0106334
0.177188
0.00885636
0.185718
0.00708098
0.195408
0.00534413
0.206254
0.0037023
0.218037
0.00223623
0.230178
0.0010516
0.241535
0.000270438
0.250074
0.252645
0.0273372
0.126201
-0.0286817
0.0259683
0.129468
0.0245733
0.13289
0.0231483
0.136503
0.0216901
0.140339
0.0201958
0.144433
0.0186627
0.148841
0.0170887
0.153635
0.0154726
0.158911
0.0138144
0.164788
0.012117
0.171406
0.010387
0.178918
0.00863752
0.187468
0.00689161
0.197154
0.00518662
0.207959
0.00357937
0.219645
0.00215009
0.231607
0.00100234
0.242683
0.000253239
0.250823
0.252899
0.0268367
0.127533
-0.028169
0.0254817
0.130823
0.0241025
0.134269
0.0226952
0.137911
0.0212564
0.141777
0.0197829
0.145906
0.0182721
0.150351
0.0167217
0.155185
0.0151303
0.160503
0.0134979
0.166421
0.0118274
0.173077
0.0101255
0.180619
0.00840567
0.189187
0.00669144
0.198868
0.00502064
0.209629