/*--------------------------------*- C++ -*----------------------------------*\
  =========                 |
  \\      /  F ield         | OpenFOAM: The Open Source CFD Toolbox
   \\    /   O peration     | Website:  https://openfoam.org
    \\  /    A nd           | Version:  6.0
     \\/     M anipulation  |
\*---------------------------------------------------------------------------*/
FoamFile
{
    version     2.0;
    format      ascii;
    class       surfaceScalarField;
    location    "12";
    object      phi;
}
// * * * * * * * * * * * * * * * * * * * * * * * * * * * * * * * * * * * * * //

dimensions      [0 3 -1 0 0 0 0];

internalField   nonuniform List<scalar> 
38030
(
-8.3359e-06
-0.00796961
0.00797794
-2.6587e-05
-0.00730893
0.00732718
-5.26505e-05
-0.00670437
0.00673043
-8.4574e-05
-0.00615245
0.00618437
-0.000120558
-0.00564941
0.0056854
-0.000159079
-0.00519145
0.00522997
-0.000198868
-0.00477487
0.00481466
-0.000238888
-0.00439615
0.00443616
-0.000278293
-0.00405193
0.00409134
-0.000316415
-0.00373912
0.00377724
-0.000352729
-0.0034548
0.00349111
-0.000386842
-0.0031963
0.00323041
-0.000418474
-0.00296116
0.00299279
-0.000447442
-0.00274713
0.00277609
-0.000473649
-0.00255214
0.00257835
-0.000497074
-0.00237433
0.00239775
-0.00051776
-0.00221199
0.00223268
-0.00053581
-0.00206359
0.00208164
-0.000551375
-0.00192773
0.00194329
-0.000564649
-0.00180315
0.00181643
-0.00057586
-0.00168875
0.00169996
-0.000585267
-0.0015835
0.0015929
-0.000593152
-0.00148649
0.00149438
-0.000599811
-0.00139691
0.00140357
-0.000605554
-0.00131403
0.00131977
-0.000610692
-0.00123723
0.00124237
-0.000615539
-0.00116601
0.00117086
-0.000620399
-0.00109992
0.00110478
-0.00062557
-0.00103854
0.00104371
-0.000981448
0.000987231
-0.000631353
-7.2988e-06
-0.00796231
-2.51568e-05
-0.00729107
-5.06792e-05
-0.00667885
-8.166e-05
-0.00612147
-0.00011626
-0.00561481
-0.000152945
-0.00515477
-0.000190441
-0.00473738
-0.000227707
-0.00435888
-0.000263901
-0.00401574
-0.000298353
-0.00370466
-0.000330545
-0.0034226
-0.000360087
-0.00316675
-0.000386705
-0.00293454
-0.000410222
-0.00272361
-0.000430552
-0.00253181
-0.000447681
-0.0023572
-0.000461665
-0.00219801
-0.000472617
-0.00205264
-0.000480703
-0.00191964
-0.000486133
-0.00179773
-0.000489151
-0.00168573
-0.000490038
-0.00158261
-0.000489093
-0.00148743
-0.000486639
-0.00139936
-0.000483008
-0.00131766
-0.000478544
-0.0012417
-0.000473586
-0.00117097
-0.000468471
-0.00110504
-0.000463528
-0.00104348
-0.000985887
-0.000459089
-6.88203e-06
-0.00795542
-2.40561e-05
-0.0072739
-4.86267e-05
-0.00665428
-7.82632e-05
-0.00609183
-0.000111062
-0.00558201
-0.000145455
-0.00512037
-0.000180155
-0.00470268
-0.000214112
-0.00432492
-0.000246482
-0.00398337
-0.000276596
-0.00367455
-0.000303937
-0.00339526
-0.000328121
-0.00314257
-0.000348876
-0.00291378
-0.000366033
-0.00270645
-0.000379512
-0.00251833
-0.000389306
-0.00234741
-0.000395482
-0.00219183
-0.000398163
-0.00204995
-0.000397529
-0.00192028
-0.000393803
-0.00180145
-0.00038725
-0.00169228
-0.000378168
-0.00159169
-0.000366882
-0.00149872
-0.000353737
-0.00141251
-0.000339096
-0.0013323
-0.000323333
-0.00125746
-0.000306827
-0.00118748
-0.000289949
-0.00112192
-0.000273066
-0.00106037
-0.0010024
-0.000256551
-6.6059e-06
-0.00794882
-2.30257e-05
-0.00725748
-4.64032e-05
-0.0066309
-7.43707e-05
-0.00606387
-0.000104985
-0.0055514
-0.00013665
-0.00508871
-0.000168064
-0.00467126
-0.000198169
-0.00429482
-0.000226117
-0.00395542
-0.00025124
-0.00364943
-0.000273022
-0.00337348
-0.000291081
-0.00312451
-0.000305151
-0.00289971
-0.000315065
-0.00269654
-0.000320749
-0.00251265
-0.000322202
-0.00234595
-0.000319499
-0.00219454
-0.000312772
-0.00205668
-0.000302213
-0.00193083
-0.00028806
-0.0018156
-0.000270594
-0.00170975
-0.000250137
-0.00161215
-0.000227035
-0.00152182
-0.000201661
-0.00143788
-0.00017441
-0.00135955
-0.000145692
-0.00128618
-0.000115926
-0.00121724
-8.55294e-05
-0.00115231
-5.49157e-05
-0.00109098
-0.00103282
-2.45022e-05
-6.34477e-06
-0.00794247
-2.19386e-05
-0.00724189
-4.39349e-05
-0.0066089
-6.99533e-05
-0.00603785
-9.80295e-05
-0.00552332
-0.000126552
-0.00506019
-0.000154208
-0.00464361
-0.000179933
-0.00426909
-0.00020288
-0.00393247
-0.000222378
-0.00362993
-0.000237914
-0.00335794
-0.000249109
-0.00311332
-0.000255698
-0.00289313
-0.000257518
-0.00269471
-0.000254497
-0.00251567
-0.000246641
-0.00235381
-0.000234028
-0.00220715
-0.000216798
-0.00207391
-0.000195153
-0.00195248
-0.000169345
-0.00184141
-0.000139672
-0.00173942
-0.000106476
-0.00164535
-7.01282e-05
-0.00155817
-3.10331e-05
-0.00147698
1.03859e-05
-0.00140097
5.36747e-05
-0.00132947
9.83697e-05
-0.00126194
0.000144002
-0.00119794
0.000190104
-0.00113708
-0.00107891
0.000236202
-6.0614e-06
-0.00793641
-2.07401e-05
-0.00722721
-4.11782e-05
-0.00658846
-6.49875e-05
-0.00601404
-9.01933e-05
-0.00549812
-0.000115176
-0.0050352
-0.000138618
-0.00462017
-0.000159455
-0.00424825
-0.000176837
-0.00391509
-0.000190097
-0.00361667
-0.000198725
-0.00334932
-0.000202342
-0.0031097
-0.000200686
-0.00289478
-0.000193595
-0.00270181
-0.000180999
-0.00252827
-0.000162905
-0.0023719
-0.000139396
-0.00223066
-0.000110616
-0.00210269
-7.67754e-05
-0.00198632
-3.81356e-05
-0.00188005
4.98885e-06
-0.00178254
5.22367e-05
-0.00169259
0.00010321
-0.00160914
0.000157474
-0.00153124
0.000214567
-0.00145806
0.000273997
-0.0013889
0.000335246
-0.00132319
0.00039779
-0.00126049
0.000461097
-0.00120039
-0.00114244
0.000524626
-5.74239e-06
-0.00793067
-1.9405e-05
-0.00721355
-3.81087e-05
-0.00656976
-5.94575e-05
-0.00599269
-8.14721e-05
-0.0054761
-0.000102532
-0.00501414
-0.000121319
-0.00460138
-0.000136772
-0.0042328
-0.000148046
-0.00390382
-0.000154477
-0.00361024
-0.000155557
-0.00334824
-0.00015091
-0.00311435
-0.000140276
-0.00290542
-0.000123494
-0.00271859
-0.000100492
-0.00255127
-7.12789e-05
-0.00240112
-3.5936e-05
-0.002266
5.38767e-06
-0.00214401
5.248e-05
-0.00203341
0.00010507
-0.00193264
0.000162831
-0.0018403
0.000225384
-0.00175515
0.000292305
-0.00167606
0.00036313
-0.00160207
0.000437356
-0.00153229
0.000514444
-0.00146599
0.000593825
-0.00140257
0.00067491
-0.00134157
0.000757097
-0.00128258
-0.00122511
0.000839765
-5.38388e-06
-0.00792529
-1.79223e-05
-0.00720101
-3.47133e-05
-0.00655297
-5.33532e-05
-0.00597405
-7.18625e-05
-0.00545759
-8.86241e-05
-0.00499738
-0.000102327
-0.00458768
-0.000111916
-0.00422321
-0.000116553
-0.00389918
-0.000115582
-0.00361121
-0.000108499
-0.00335532
-9.4931e-05
-0.00312791
-7.46191e-05
-0.00292573
-4.74021e-05
-0.0027458
-1.32066e-05
-0.00258546
2.79612e-05
-0.00244228
7.60222e-05
-0.00231406
0.000130829
-0.00219882
0.000192167
-0.00209475
0.000259763
-0.00200024
0.000333279
-0.00191382
0.000412324
-0.00183419
0.00049645
-0.00176019
0.00058516
-0.00169078
0.000677914
-0.00162504
0.000774124
-0.0015622
0.000873163
-0.00150161
0.000974373
-0.00144278
0.00107707
-0.00138527
-0.00132858
0.00118054
-4.98481e-06
-0.0079203
-1.62875e-05
-0.0071897
-3.09842e-05
-0.00653827
-4.66667e-05
-0.00595837
-6.13593e-05
-0.0054429
-7.34536e-05
-0.00498529
-8.16495e-05
-0.00457948
-8.49045e-05
-0.00421996
-8.23912e-05
-0.00390169
-7.34622e-05
-0.00362014
-5.76215e-05
-0.00337116
-3.45011e-05
-0.00315103
-3.84314e-06
-0.00295639
3.45143e-05
-0.00278416
8.06475e-05
-0.0026316
0.000134555
-0.00249619
0.000196164
-0.00237567
0.000265331
-0.00226799
0.000341846
-0.00217127
0.000425434
-0.00208383
0.000515755
-0.00200414
0.000612404
-0.00193084
0.000714915
-0.0018627
0.000822764
-0.00179863
0.000935369
-0.00173765
0.0010521
-0.00167893
0.00117226
-0.00162177
0.00129512
-0.00156565
0.00141991
-0.00151006
-0.00145448
0.0015458
-4.54514e-06
-0.00791576
-1.44971e-05
-0.00717975
-2.6915e-05
-0.00652586
-3.93894e-05
-0.00594589
-4.99536e-05
-0.00543233
-5.70132e-05
-0.00497823
-5.92845e-05
-0.00457721
-5.5742e-05
-0.0042235
-4.55741e-05
-0.00391186
-2.81464e-05
-0.00363756
-2.97322e-06
-0.00339633
3.03069e-05
-0.00318432
7.19489e-05
-0.00299803
0.000122115
-0.00283433
0.000180887
-0.00269037
0.00024827
-0.00256357
0.000324198
-0.0024516
0.000408539
-0.00235233
0.00050109
-0.00226382
0.000601582
-0.00218432
0.000709677
-0.00211224
0.000824963
-0.00204613
0.000946961
-0.0019847
0.00107512
-0.00192679
0.00120882
-0.00187135
0.00134739
-0.00181749
0.00149007
-0.00176445
0.00163604
-0.00171162
0.00178444
-0.00165846
-0.00160437
0.00193434
-4.06424e-06
-0.00791169
-1.25478e-05
-0.00717127
-2.24982e-05
-0.0065159
-3.15101e-05
-0.00593688
-3.76311e-05
-0.00542621
-3.92871e-05
-0.00497657
-3.52169e-05
-0.00458128
-2.44174e-05
-0.0042343
-6.09749e-06
-0.00393018
2.0359e-05
-0.00366402
5.54242e-05
-0.0034314
9.94499e-05
-0.00322834
0.000152686
-0.00305126
0.000215296
-0.00289694
0.000287365
-0.00276244
0.000368907
-0.00264512
0.000459868
-0.00254256
0.000560128
-0.00245259
0.000669499
-0.00237319
0.000787725
-0.00230254
0.000914475
-0.00223899
0.00104934
-0.00218099
0.00119183
-0.00212719
0.00134138
-0.00207634
0.00149735
-0.00202731
0.00165899
-0.00197913
0.00182549
-0.00193096
0.00199597
-0.0018821
0.00216944
-0.00183193
-0.00177978
0.00234485
-3.54099e-06
-0.00790815
-1.04352e-05
-0.00716437
-1.77239e-05
-0.00650862
-2.3013e-05
-0.00593159
-2.43709e-05
-0.00542486
-2.02502e-05
-0.00498069
-9.41882e-06
-0.00459211
9.09781e-06
-0.00425282
3.6064e-05
-0.00395715
7.20731e-05
-0.00370003
0.000117578
-0.0034769
0.000172919
-0.00328368
0.000238336
-0.00311668
0.000313992
-0.00297259
0.000399976
-0.00284842
0.000496311
-0.00274145
0.000602958
-0.00264921
0.000719815
-0.00256944
0.000846713
-0.00250009
0.000983414
-0.00243925
0.00112961
-0.00238518
0.00128489
-0.00233628
0.00144878
-0.00229108
0.0016207
-0.00224826
0.00179997
-0.00220659
0.00198583
-0.00216499
0.00217738
-0.00212251
0.00237367
-0.00207838
0.00257359
-0.00203185
-0.00198215
0.00277597
-2.97387e-06
-0.00790518
-8.15285e-06
-0.0071592
-1.25796e-05
-0.00650419
-1.3878e-05
-0.00593029
-1.01451e-05
-0.00542859
1.32609e-07
-0.00499097
1.8151e-05
-0.00461013
4.4849e-05
-0.00427951
8.09576e-05
-0.00399326
0.000127041
-0.00374611
0.000183528
-0.00353339
0.000250739
-0.00335089
0.000328906
-0.00319485
0.000418183
-0.00306187
0.000518664
-0.0029489
0.00063038
-0.00285317
0.000753309
-0.00277214
0.000887369
-0.0027035
0.00103242
-0.00264514
0.00118824
-0.00259507
0.00135456
-0.00255149
0.00153099
-0.00251271
0.00171706
-0.00247716
0.00191221
-0.0024434
0.00211572
-0.0024101
0.00232681
-0.00237607
0.00254453
-0.00234024
0.00276783
-0.00230168
0.00299551
-0.00225952
-0.00221286
0.00322622
-2.36061e-06
-0.00790282
-5.69329e-06
-0.00715586
-7.04978e-06
-0.00650283
-4.08038e-06
-0.00593326
5.08111e-06
-0.00543775
2.19061e-05
-0.00500779
4.75466e-05
-0.00463577
8.2898e-05
-0.00431487
0.000128651
-0.00403901
0.000185333
-0.0038028
0.000253343
-0.0036014
0.000332976
-0.00343053
0.000424446
-0.00328632
0.000527899
-0.00316533
0.000643427
-0.00306443
0.00077107
-0.00298081
0.00091082
-0.00291189
0.00106262
-0.0028553
0.00122636
-0.00280887
0.00140186
-0.00277057
0.00158887
-0.0027385
0.00178705
-0.00271089
0.00199596
-0.00268607
0.00221504
-0.00266248
0.0024436
-0.00263866
0.00268081
-0.00261328
0.00292568
-0.00258511
0.00317707
-0.00255308
0.00343369
-0.00251614
-0.00247319
0.00369402
-1.69867e-06
-0.00790112
-3.04748e-06
-0.00715451
-1.11647e-06
-0.00650476
6.40845e-06
-0.00594079
2.13481e-05
-0.00545269
4.51229e-05
-0.00503157
7.88326e-05
-0.00466948
0.000123321
-0.00435935
0.000179231
-0.00409492
0.000247045
-0.00387061
0.000327123
-0.00368148
0.000419728
-0.00352313
0.00052505
-0.00339164
0.000643219
-0.00328349
0.00077432
-0.00319553
0.000918398
-0.00312489
0.00107546
-0.00306895
0.00124547
-0.00302531
0.00142835
-0.00299176
0.00162397
-0.00296619
0.00183213
-0.00294666
0.00205253
-0.00293129
0.00228478
-0.00291832
0.00252835
-0.00290606
0.00278258
-0.00289289
0.00304663
-0.00287733
0.00331948
-0.00285796
0.00359992
-0.00283352
0.00388653
-0.00280275
-0.00276431
0.00417765
-9.85005e-07
-0.00790013
-2.05502e-07
-0.00715529
5.23991e-06
-0.00651021
1.76199e-05
-0.00595317
3.87e-05
-0.00547377
6.9841e-05
-0.00506271
0.000112081
-0.00471172
0.000166206
-0.00441348
0.000232798
-0.00416151
0.000312289
-0.0039501
0.000404991
-0.00377418
0.000511126
-0.00362927
0.00063085
-0.00351136
0.000764269
-0.00341691
0.000911455
-0.00334272
0.00107245
-0.00328588
0.00124726
-0.00324377
0.00143589
-0.00321395
0.0016383
-0.00319416
0.00185439
-0.00318228
0.00208401
-0.00317628
0.00232695
-0.00317423
0.00258288
-0.00317424
0.00285132
-0.0031745
0.00313166
-0.00317323
0.00342308
-0.00316874
0.00372455
-0.00315942
0.00403479
-0.00314377
0.0043523
-0.00312025
-0.00308727
0.00467525
-2.16585e-07
-0.00789992
2.84287e-06
-0.00715835
1.20397e-05
-0.00651941
2.95861e-05
-0.00597071
5.71826e-05
-0.00550137
9.61208e-05
-0.00510165
0.000147369
-0.00476297
0.000211643
-0.00447775
0.000289461
-0.00423933
0.000381192
-0.00404183
0.000487089
-0.00388008
0.000607325
-0.0037495
0.000742011
-0.00364605
0.000891219
-0.00356612
0.00105499
-0.00350649
0.00123337
-0.00346425
0.00142635
-0.00343675
0.00163396
-0.00342155
0.00185618
-0.00341638
0.00209298
-0.00341908
0.00234428
-0.00342758
0.00260993
-0.00343988
0.00288968
-0.003454
0.00318317
-0.00346799
0.00348983
-0.0034799
0.00380892
-0.00348783
0.00413941
-0.00348991
0.00448002
-0.00348437
0.00482913
-0.00346936
-0.00344291
0.00518477
6.09657e-07
-0.00790053
6.10766e-06
-0.00716385
1.93024e-05
-0.0065326
4.23383e-05
-0.00599375
7.684e-05
-0.00553587
0.000124021
-0.00514883
0.000184769
-0.00482372
0.000259724
-0.00455271
0.000349329
-0.00432893
0.00045388
-0.00414638
0.000573565
-0.00399976
0.000708493
-0.00388443
0.00085872
-0.00379628
0.00102427
-0.00373167
0.00120515
-0.00368737
0.00140136
-0.00366046
0.00161291
-0.0036483
0.00183982
-0.00364846
0.0020821
-0.00365866
0.00233976
-0.00367674
0.0026128
-0.00370062
0.00290117
-0.00372824
0.00320471
-0.00375754
0.00352318
-0.00378645
0.00385613
-0.00381286
0.00420292
-0.00383461
0.00456257
-0.00384957
0.00493383
-0.00385562
0.005315
-0.00385053
-0.0038319
0.00570398
1.49665e-06
-0.00790202
9.59813e-06
-0.00717195
2.7046e-05
-0.00655005
5.59042e-05
-0.00602261
9.77111e-05
-0.00557768
0.000153591
-0.00520471
0.000224347
-0.00489447
0.000310529
-0.00463889
0.000412499
-0.0044309
0.000530472
-0.00426436
0.00066456
-0.00413385
0.000814796
-0.00403467
0.000981169
-0.00396265
0.00116364
-0.00391414
0.00136216
-0.00388589
0.00157669
-0.00387499
0.0018072
-0.00387882
0.00205371
-0.00389497
0.00231624
-0.00392119
0.00259485
-0.00395535
0.0028896
-0.00399537
0.00320052
-0.00403916
0.00352761
-0.00408464
0.00387076
-0.0041296
0.00422969
-0.00417179
0.00460389
-0.00420881
0.00499252
-0.00423821
0.00539438
-0.00425748
0.00580777
-0.00426392
-0.0042546
0.00623047
2.44651e-06
-0.00790447
1.33215e-05
-0.00718283
3.52845e-05
-0.00657201
7.03057e-05
-0.00605763
0.000119826
-0.0056272
0.000184872
-0.00526976
0.00026615
-0.00497575
0.000364118
-0.00473686
0.000479046
-0.00454583
0.000611062
-0.00439637
0.000760189
-0.00428298
0.000926378
-0.00420085
0.00110953
-0.0041458
0.00130954
-0.00411414
0.00152627
-0.00410262
0.00175962
-0.00410835
0.00200953
-0.00412873
0.00227596
-0.0041614
0.00255893
-0.00420416
0.00285851
-0.00425494
0.00317483
-0.00431169
0.00350802
-0.00437236
0.00385822
-0.00443484
0.00422549
-0.00449687
0.00460976
-0.00455606
0.00501073
-0.00460978
0.00542777
-0.00465525
0.00585981
-0.00468951
0.00630519
-0.00470931
-0.00471104
0.00676163
3.46076e-06
-0.00790793
1.72831e-05
-0.00719665
4.40274e-05
-0.00659876
8.55564e-05
-0.00609916
0.000143201
-0.00568484
0.000217883
-0.00534444
0.000310202
-0.00506807
0.00042052
-0.00484717
0.000549008
-0.00467432
0.0006957
-0.00454306
0.000860523
-0.0044478
0.00104333
-0.00438367
0.00124394
-0.00434641
0.00146214
-0.00433234
0.0016977
-0.00433819
0.00195045
-0.0043611
0.00222023
-0.0043985
0.00250694
-0.00444811
0.00281056
-0.00450778
0.00313116
-0.00457553
0.00346888
-0.00464941
0.00382394
-0.00472743
0.00419663
-0.00480752
0.0045872
-0.00488744
0.00499584
-0.0049647
0.00542254
-0.00503648
0.00586696
-0.00509967
0.00632827
-0.00515082
0.00680498
-0.00518602
-0.00520082
0.00729477
4.53987e-06
-0.00791247
2.1485e-05
-0.0072136
5.32787e-05
-0.00663055
0.00010166
-0.00614754
0.000167839
-0.00575102
0.00025262
-0.00542922
0.000356496
-0.00517195
0.000479723
-0.0049704
0.000622371
-0.00481697
0.000784374
-0.00470507
0.00096556
-0.00462899
0.00116568
-0.00458379
0.00138445
-0.00456518
0.00162154
-0.00456943
0.00187662
-0.00459328
0.0021494
-0.00463388
0.00243962
-0.00468871
0.00274706
-0.00475555
0.00307163
-0.00483236
0.00341334
-0.00491724
0.00377231
-0.00500838
0.00414882
-0.00510393
0.00454325
-0.00520195
0.00495608
-0.00530027
0.00538778
-0.0053964
0.00583873
-0.00548743
0.00630899
-0.00556993
0.00679811
-0.00563995
0.0073049
-0.0056928
-0.00572304
0.00782712
5.68349e-06
-0.00791815
2.59273e-05
-0.00723384
6.30366e-05
-0.00666766
0.000118608
-0.00620311
0.00019372
-0.00582613
0.000289051
-0.00552455
0.000404982
-0.00528788
0.00054166
-0.00510708
0.000699054
-0.00497436
0.000876993
-0.00488301
0.0010752
-0.0048272
0.00129334
-0.00480192
0.00153098
-0.00480283
0.00178771
-0.00482615
0.00206306
-0.00486863
0.0023566
-0.00492742
0.00266793
-0.00500004
0.00299671
-0.00508433
0.00334268
-0.00517833
0.00370575
-0.0052803
0.00408595
-0.00538858
0.00448353
-0.00550151
0.00489895
-0.00561737
0.00533285
-0.00573417
0.00578603
-0.00584958
0.00625928
-0.00596069
0.00675325
-0.00606389
0.00726806
-0.00615476
0.00780301
-0.00622775
-0.00627613
0.00835609
6.89037e-06
-0.00792504
3.06085e-05
-0.00725756
7.32947e-05
-0.00671035
0.000136383
-0.0062662
0.000220806
-0.00591055
0.000327112
-0.00563086
0.000455566
-0.00541633
0.000606204
-0.00525772
0.000778893
-0.00514705
0.000973361
-0.00507747
0.00118923
-0.00504307
0.00142606
-0.00503874
0.00168331
-0.00506008
0.00196044
-0.00510328
0.00225685
-0.00516504
0.00257197
-0.00524254
0.00290523
-0.0053333
0.00325611
-0.0054352
0.00362416
-0.00554639
0.0040091
-0.00566524
0.00441079
-0.00579027
0.00482934
-0.00592006
0.00526516
-0.00605319
0.00571899
-0.006188
0.00619188
-0.00632247
0.00668512
-0.00645393
0.00720005
-0.00657881
0.00773764
-0.00669235
0.00829798
-0.0067881
-0.00685772
0.00887958
8.16092e-06
-0.0079332
3.55297e-05
-0.00728493
8.40456e-05
-0.00675886
0.000154957
-0.00633711
0.000249037
-0.00600463
0.000366703
-0.00574852
0.000508099
-0.00555773
0.000673154
-0.00542277
0.000861633
-0.00533553
0.00107317
-0.00528901
0.00130728
-0.00527719
0.00156343
-0.00529489
0.00184098
-0.00533763
0.00213926
-0.00540156
0.00245756
-0.00548335
0.00279514
-0.00558012
0.00315127
-0.00568943
0.00352522
-0.00580915
0.00391633
-0.0059375
0.00432402
-0.00607293
0.0047479
-0.00621414
0.0051878
-0.00635997
0.00564392
-0.00650931
0.0061169
-0.00666098
0.0066079
-0.00681347
0.00711864
-0.00696467
0.00765124
-0.00711141
0.00820784
-0.00724895
0.00878982
-0.00737008
-0.00746449
0.00939659
9.5019e-06
-0.00794271
4.07022e-05
-0.00731613
9.52867e-05
-0.00681345
0.000174293
-0.00641612
0.000278333
-0.00610867
0.000407687
-0.00587788
0.000562381
-0.00571242
0.000742237
-0.00560263
0.000946921
-0.00554021
0.00117597
-0.00551806
0.00142882
-0.00553004
0.00170483
-0.0055709
0.00200328
-0.00563608
0.0023234
-0.00572168
0.00266437
-0.00582431
0.00302532
-0.00594107
0.00340534
-0.00606945
0.00380352
-0.00620734
0.00421896
-0.00635293
0.00465076
-0.00650474
0.00509817
-0.00666155
0.00556061
-0.00682241
0.00603784
-0.00698654
0.00653011
-0.00715325
0.00703838
-0.00732175
0.00756451
-0.0074908
0.00811132
-0.00765822
0.00868239
-0.00782002
0.00928111
-0.0079688
-0.00809179
0.0099084
1.0938e-05
-0.00795364
4.61609e-05
-0.00735135
0.000107028
-0.00687431
0.000194355
-0.00650345
0.000308593
-0.00622291
0.000449891
-0.00601917
0.000618155
-0.00588068
0.000813104
-0.00579758
0.0010343
-0.00576141
0.0012812
-0.00576495
0.00155315
-0.00580199
0.00184942
-0.00586717
0.00216924
-0.0059559
0.00251175
-0.00606419
0.00287604
-0.0061886
0.00326115
-0.00632618
0.00366607
-0.00647437
0.00408973
-0.006631
0.004531
-0.0067942
0.00498874
-0.00696247
0.00546179
-0.0071346
0.00594906
-0.00730968
0.00644968
-0.00748715
0.00696315
-0.00766672
0.00748972
-0.00784831
0.00803074
-0.00803183
0.00858919
-0.00821666
0.00916993
-0.00840076
0.00977918
-0.00857805
-0.00873319
0.0104206
1.25381e-05
-0.00796618
5.19889e-05
-0.0073908
0.000119303
-0.00694163
0.000215101
-0.00659924
0.000339694
-0.0063475
0.000493103
-0.00617258
0.000675114
-0.0060627
0.000885334
-0.0060078
0.00112323
-0.00599931
0.00138816
-0.00602988
0.00167939
-0.00609323
0.00199615
-0.00618393
0.00233757
-0.00629732
0.00270277
-0.00642939
0.0030908
-0.00657663
0.00350065
-0.00673603
0.00393126
-0.00690499
0.00438151
-0.00708124
0.00485017
-0.00726286
0.00533593
-0.00744823
0.00583736
-0.00763603
0.00635295
-0.00782527
0.00688113
-0.00801533
0.00742044
-0.00820602
0.00796978
-0.00839766
0.00852903
-0.00859108
0.00909984
-0.00878747
0.00968699
-0.00898792
0.0102996
-0.00919065
-0.00938299
0.0109494
1.45257e-05
-0.00798071
5.83863e-05
-0.00743466
0.000132182
-0.00701542
0.000236481
-0.00670354
0.000371483
-0.0064825
0.000537071
-0.00633817
0.000732899
-0.00625852
0.000958447
-0.00623335
0.00121307
-0.00625393
0.00149604
-0.00631285
0.00180656
-0.00640374
0.00214376
-0.00652113
0.00250675
-0.00666032
0.00289462
-0.00681726
0.00330642
-0.00698842
0.00374114
-0.00717076
0.00419779
-0.00736163
0.00467528
-0.00755873
0.00517247
-0.00776005
0.00568811
-0.00796388
0.00622082
-0.00816874
0.00676898
-0.00837344
0.00733073
-0.00857708
0.00790385
-0.00877914
0.00848585
-0.00897966
0.00907425
-0.00917948
0.00966733
-0.00938055
0.0102661
-0.00958672
0.0108799
-0.00980437
-0.0100462
0.0115431
1.77124e-05
-0.00799842
6.57398e-05
-0.00748269
0.000145723
-0.00709541
0.000258388
-0.00681621
0.000403749
-0.00662787
0.000581494
-0.00651592
0.000791104
-0.00646813
0.00103191
-0.00647416
0.00130316
-0.00652518
0.001604
-0.00661369
0.00193354
-0.00673328
0.00229088
-0.00687846
0.00267507
-0.00704451
0.00308517
-0.00722736
0.00352025
-0.0074235
0.00397938
-0.00762989
0.00446164
-0.00784389
0.00496614
-0.00806323
0.00549198
-0.0082859
0.0060383
-0.00851019
0.00660417
-0.00873462
0.00718864
-0.00895791
0.00779061
-0.00917904
0.00840869
-0.00939722
0.00904102
-0.009612
0.00968511
-0.00982356
0.0103375
-0.010033
0.0109929
-0.0102421
0.0116465
-0.010458
-0.0107032
0.0123035
0.00899867
4.60629e-05
-0.00904473
0.00895354
4.51275e-05
0.00890869
4.48462e-05
0.00886399
4.47051e-05
0.00881945
4.45444e-05
0.00877514
4.43081e-05
0.00873116
4.39737e-05
0.00868763
4.35349e-05
0.00864464
4.29924e-05
0.00860229
4.23503e-05
0.00856067
4.16133e-05
0.00851989
4.07867e-05
0.00848001
3.98765e-05
0.00844112
3.88883e-05
0.00840329
3.78284e-05
0.00836659
3.67027e-05
0.00833107
3.55172e-05
0.0082968
3.42774e-05
0.00826381
3.29885e-05
0.00823215
3.16559e-05
0.00820187
3.02842e-05
0.00817299
2.88782e-05
0.00814555
2.74421e-05
0.00811957
2.59803e-05
0.00809507
2.44949e-05
0.00807209
2.29826e-05
0.00805066
2.14245e-05
0.0080309
1.9761e-05
0.00801312
1.77845e-05
1.46976e-05
0.0103009
0.000164521
-0.0104193
0.0101812
0.000164782
0.0100609
0.000165158
0.00994023
0.000165397
0.00981942
0.000165352
0.00969877
0.000164953
0.00957858
0.000164167
0.00945913
0.000162982
0.00934072
0.000161403
0.00922363
0.000159441
0.00910813
0.000157111
0.00899449
0.000154429
0.00888295
0.000151414
0.00877375
0.000148088
0.00866711
0.000144471
0.00856323
0.000140583
0.0084623
0.000136446
0.0083645
0.000132079
0.00826999
0.000127502
0.00817891
0.000122733
0.00809141
0.000117789
0.0080076
0.000112687
0.0079276
0.000107442
0.00785151
0.000102065
0.00777944
9.65663e-05
0.00771148
9.09405e-05
0.00764775
8.51606e-05
0.00758836
7.91499e-05
0.00753343
7.27127e-05
6.54401e-05
0.0115669
0.000343327
-0.0117457
0.0113853
0.000346412
0.0112016
0.000348825
0.0110165
0.000350502
0.0108305
0.000351371
0.010644
0.000351385
0.0104577
0.000350524
0.0102719
0.000348783
0.0100871
0.000346176
0.00990383
0.000342725
0.00972248
0.000338458
0.0095435
0.00033341
0.00936729
0.000327618
0.00919426
0.000321123
0.00902476
0.000313967
0.00885916
0.000306192
0.00869776
0.000297841
0.00854089
0.000288954
0.00838881
0.000279573
0.00824181
0.000269735
0.00810012
0.000259477
0.00796398
0.000248833
0.00783358
0.000237835
0.00770914
0.000226511
0.00759082
0.000214883
0.0074788
0.000202963
0.00737321
0.000190744
0.00727418
0.000178187
0.00718168
0.00016521
0.000151713
0.0127872
0.000571712
-0.0130155
0.0125543
0.000579227
0.0123179
0.000585222
0.0120787
0.000589704
0.0118375
0.000592653
0.0115948
0.000594055
0.0113514
0.000593906
0.011108
0.000592219
0.0108651
0.000589019
0.0106235
0.000584344
0.0103837
0.00057824
0.0101464
0.000570761
0.00991203
0.000561968
0.00968123
0.000551925
0.00945449
0.000540699
0.00923233
0.00052836
0.00901519
0.000514975
0.00880353
0.000500614
0.00859776
0.000485342
0.00839827
0.000469223
0.00820543
0.000452318
0.00801958
0.000434685
0.00784104
0.000416379
0.0076701
0.000397451
0.00750703
0.00037795
0.00735208
0.000357916
0.00720544
0.000337382
0.00706726
0.000316374
0.00693755
0.000294911
0.000273059
0.0139538
0.000839899
-0.014222
0.0136794
0.000853608
0.0133997
0.000864886
0.0131157
0.000873754
0.0128281
0.000880217
0.0125379
0.00088428
0.0122459
0.000885958
0.0119528
0.000885277
0.0116595
0.000882279
0.0113669
0.000877016
0.0110756
0.000869554
0.0107863
0.000859968
0.0105
0.000848341
0.0102171
0.000834766
0.00993849
0.000819336
0.0096647
0.000802151
0.00939637
0.000783308
0.00913408
0.000762906
0.00887838
0.000741042
0.00862979
0.000717807
0.00838882
0.000693293
0.00815592
0.000667585
0.00793153
0.000640767
0.00771606
0.000612922
0.00750988
0.000584129
0.00731333
0.000554469
0.00712668
0.000524029
0.00695016
0.000492898
0.00678388
0.000461191
0.000429071
0.0150607
0.00113915
-0.0153599
0.0147533
0.00116094
0.0144389
0.00117932
0.0141183
0.00119432
0.0137926
0.00120592
0.0134628
0.00121415
0.0131297
0.00121902
0.0127944
0.00122058
0.0124578
0.00121887
0.0121208
0.00121397
0.0117844
0.00120595
0.0114495
0.00119491
0.0111169
0.00118096
0.0107874
0.00116421
0.010462
0.0011448
0.0101413
0.00112284
0.00982614
0.00109846
0.00951724
0.00107181
0.00921528
0.001043
0.00892093
0.00101216
0.00863481
0.000979412
0.00835752
0.000944875
0.00808963
0.000908663
0.00783165
0.000870893
0.0075841
0.000831683
0.00734741
0.000791162
0.00712197
0.00074947
0.00690809
0.00070677
0.00670603
0.000663258
0.000619183
0.0161033
0.00146166
-0.0164258
0.0157707
0.0014935
0.0154291
0.00152091
0.0150796
0.00154387
0.0147231
0.00156238
0.0143608
0.00157644
0.0139938
0.00158607
0.013623
0.00159132
0.0132497
0.00159223
0.0128748
0.00158888
0.0124993
0.00158138
0.0121244
0.00156983
0.011751
0.00155435
0.0113801
0.0015351
0.0110127
0.00151222
0.0106497
0.00148587
0.0102919
0.00145622
0.0099403
0.00142342
0.00959567
0.00138763
0.00925882
0.00134901
0.00893051
0.00130772
0.00861148
0.0012639
0.00830244
0.00121771
0.00800403
0.0011693
0.0077169
0.00111882
0.00744161
0.00106645
0.00717869
0.00101239
0.00692858
0.000956883
0.00669163
0.000900201
0.000842682
0.0170786
0.00180055
-0.0174175
0.0167277
0.00184441
0.0163658
0.00188279
0.0159941
0.00191563
0.0156135
0.0019429
0.0152254
0.00196457
0.0148308
0.00198067
0.0144309
0.00199121
0.0140269
0.00199625
0.0136199
0.00199588
0.0132111
0.00199018
0.0128016
0.00197929
0.0123926
0.00196335
0.0119852
0.00194252
0.0115805
0.00191697
0.0111794
0.0018869
0.0107832
0.00185249
0.0103927
0.00181394
0.0100089
0.00177143
0.00963272
0.00172515
0.00926514
0.00167529
0.00890701
0.00162204
0.00855916
0.00156556
0.00822241
0.00150605
0.00789753
0.0014437
0.00758525
0.00137873
0.00728622
0.00131142
0.00700105
0.00124206
0.00673022
0.00117102
0.00109875
0.017985
0.00214972
-0.0183342
0.0176219
0.00220756
0.0172458
0.00225885
0.0168579
0.0023035
0.0164594
0.00234142
0.0160514
0.00237256
0.0156352
0.00239691
0.0152119
0.00241448
0.0147828
0.00242531
0.0143493
0.00242947
0.0139124
0.00242705
0.0134735
0.00241819
0.0130338
0.00240304
0.0125945
0.00238178
0.0121569
0.00235461
0.0117221
0.00232172
0.0112912
0.00228334
0.0108655
0.00223969
0.0104459
0.00219098
0.0100336
0.00213743
0.00962968
0.00207926
0.00923505
0.00201667
0.00885075
0.00194986
0.00847774
0.00187905
0.00811696
0.00180448
0.0077693
0.0017264
0.00743558
0.00164514
0.00711656
0.00156107
0.00681291
0.00147467
0.00138649
0.018822
0.00250388
-0.0191761
0.0184519
0.00257758
0.0180671
0.00264369
0.0176685
0.00270205
0.0172575
0.00275251
0.016835
0.00279499
0.0164025
0.00282944
0.0159611
0.00285584
0.0155123
0.00287419
0.0150572
0.00288456
0.0145972
0.00288703
0.0141337
0.00288172
0.0136679
0.0028688
0.0132012
0.00284845
0.012735
0.00282087
0.0122704
0.00278629
0.0118088
0.00274495
0.0113514
0.00269709
0.0108994
0.00264295
0.0104541
0.00258277
0.0100166
0.00251678
0.00958801
0.00244521
0.00916958
0.00236829
0.0087624
0.00228623
0.00836756
0.00219931
0.00798614
0.00210782
0.00761915
0.00201213
0.00726754
0.00191269
0.00693215
0.00181006
0.00170494
0.0195899
0.00285844
-0.0199444
0.0192176
0.0029498
0.0188288
0.00303254
0.0184244
0.00310644
0.0180056
0.00317131
0.0175736
0.00322699
0.0171297
0.00327338
0.0166751
0.00331043
0.0162112
0.00333811
0.0157393
0.00335644
0.0152608
0.0033655
0.0147771
0.00336539
0.0142897
0.00335626
0.0137998
0.0033383
0.013309
0.00331172
0.0128185
0.00327675
0.0123298
0.00323365
0.0118442
0.00318268
0.0113631
0.00312409
0.0108877
0.00305814
0.0104194
0.00298508
0.00995951
0.00290513
0.00950925
0.00281854
0.00906995
0.00272553
0.00864289
0.00262638
0.00822932
0.00252139
0.00783048
0.00241097
0.00744752
0.00229565
0.00708148
0.0021761
0.00205314
0.02029
0.00320951
-0.0206411
0.0199196
0.00332017
0.0195309
0.00342126
0.0191249
0.00351246
0.0187027
0.00359351
0.0182655
0.0036642
0.0178145
0.00372436
0.0173511
0.00377388
0.0168765
0.00381269
0.0163921
0.00384078
0.0158995
0.00385818
0.0153999
0.00386498
0.0148948
0.0038613
0.0143858
0.00384734
0.0138742
0.00382328
0.0133616
0.00378939
0.0128493
0.0037459
0.0123389
0.00369309
0.0118318
0.00363124
0.0113293
0.0035606
0.010833
0.00348142
0.0103442
0.00339393
0.00986437
0.00329835