/*--------------------------------*- C++ -*----------------------------------*\
  =========                 |
  \\      /  F ield         | OpenFOAM: The Open Source CFD Toolbox
   \\    /   O peration     | Website:  https://openfoam.org
    \\  /    A nd           | Version:  6.0
     \\/     M anipulation  |
\*---------------------------------------------------------------------------*/
FoamFile
{
    version     2.0;
    format      ascii;
    class       surfaceScalarField;
    location    "12.7505";
    object      phi;
}
// * * * * * * * * * * * * * * * * * * * * * * * * * * * * * * * * * * * * * //

dimensions      [0 3 -1 0 0 0 0];

internalField   nonuniform List<scalar> 
38030
(
2.37771e-05
-0.0790981
0.0790743
0.00013531
-0.0722461
0.0721346
0.000334019
-0.0666467
0.066448
0.000616967
-0.0620713
0.0617883
0.000979718
-0.0583255
0.0579627
0.00141624
-0.0552469
0.0548104
0.00191962
-0.0527026
0.0521992
0.00248261
-0.050585
0.050022
0.00309797
-0.0488075
0.0481921
0.00375868
-0.0473005
0.0466398
0.00445809
-0.0460084
0.045309
0.00518999
-0.0448867
0.0441548
0.00594864
-0.0438999
0.0431412
0.00672883
-0.0430196
0.0422394
0.00752584
-0.0422233
0.0414263
0.00833542
-0.0414931
0.0406835
0.00915382
-0.0408146
0.0399962
0.00997773
-0.0401766
0.0393527
0.0108042
-0.03957
0.0387435
0.0116309
-0.0389877
0.0381611
0.0124555
-0.0384239
0.0375993
0.0132762
-0.0378741
0.0370534
0.0140915
-0.0373344
0.0365191
0.0149001
-0.0368017
0.0359931
0.0157009
-0.0362731
0.0354723
0.0164929
-0.0357462
0.0349542
0.0172753
-0.0352184
0.0344359
0.0180473
-0.034687
0.0339151
0.0188077
-0.0341492
0.0333887
-0.0336015
0.0328537
0.0195555
3.27477e-05
-0.0791308
0.000150614
-0.072364
0.000357585
-0.0668537
0.000651095
-0.0623648
0.00102596
-0.0587004
0.00147547
-0.0556964
0.00199216
-0.0532193
0.00256835
-0.0511612
0.00319643
-0.0494355
0.00386909
-0.0479732
0.00457947
-0.0467188
0.00532116
-0.0456284
0.00608833
-0.0446671
0.00687565
-0.0438069
0.00767834
-0.043026
0.00849214
-0.0423069
0.00931329
-0.0416358
0.0101385
-0.0410018
0.0109649
-0.0403964
0.01179
-0.0398128
0.0126118
-0.0392457
0.0134285
-0.0386908
0.0142387
-0.0381446
0.0150412
-0.0376042
0.015835
-0.0370669
0.0166193
-0.0365305
0.0173933
-0.0359924
0.0181563
-0.03545
0.0189076
-0.0349004
-0.0343401
0.0196462
3.73155e-05
-0.0791681
0.000162623
-0.0724893
0.000378952
-0.06707
0.00068348
-0.0626693
0.00107047
-0.0590874
0.00153269
-0.0561586
0.0020622
-0.0537488
0.00265091
-0.0517499
0.00329089
-0.0500755
0.00397457
-0.0486568
0.00469487
-0.0474391
0.00544524
-0.0463788
0.00621971
-0.0454415
0.00701288
-0.0446001
0.00781993
-0.0438331
0.00863658
-0.0431236
0.00945907
-0.0424583
0.0102841
-0.0418269
0.011109
-0.0412212
0.0119312
-0.040635
0.0127488
-0.0400633
0.0135601
-0.0395021
0.0143638
-0.0389483
0.0151588
-0.0383992
0.0159443
-0.0378524
0.0167195
-0.0373057
0.0174839
-0.0367567
0.0182369
-0.036203
0.0189779
-0.0356414
-0.0350683
0.0197061
4.07722e-05
-0.0792089
0.000173222
-0.0726217
0.000398957
-0.0672958
0.000714443
-0.0629848
0.00111333
-0.0594862
0.00158785
-0.0566331
0.0021296
-0.0542905
0.00273011
-0.0523504
0.00338115
-0.0507266
0.00407489
-0.0493506
0.00480405
-0.0481682
0.00556195
-0.0471367
0.0063425
-0.0462221
0.00714024
-0.0453979
0.00795033
-0.0446432
0.00876846
-0.0439417
0.0095909
-0.0432807
0.0104144
-0.0426504
0.0112363
-0.0420431
0.0120542
-0.0414529
0.0128662
-0.0408753
0.0136708
-0.0403067
0.0144667
-0.0397442
0.015253
-0.0391855
0.0160289
-0.0386283
0.0167939
-0.0380707
0.0175476
-0.0375104
0.0182895
-0.0369449
0.0190192
-0.0363711
-0.0357853
0.0197361
4.38021e-05
-0.0792527
0.000183056
-0.072761
0.000417984
-0.0675307
0.000744168
-0.063311
0.00115458
-0.0598967
0.00164088
-0.0571194
0.00219424
-0.0548439
0.00280579
-0.052962
0.003467
-0.0513878
0.00416981
-0.0500534
0.00490676
-0.0489052
0.00567102
-0.0479009
0.00645643
-0.0470075
0.00725747
-0.0461989
0.00806927
-0.045455
0.00888753
-0.04476
0.00970857
-0.0441017
0.0105292
-0.043471
0.0113467
-0.0428606
0.012159
-0.0422652
0.0129641
-0.0416804
0.0137607
-0.0411033
0.0145475
-0.0405311
0.0153239
-0.0399618
0.0160892
-0.0393936
0.0168429
-0.0388244
0.0175848
-0.0382523
0.0183146
-0.0376747
0.0190321
-0.0370886
-0.0364901
0.0197369
4.66128e-05
-0.0792993
0.000192386
-0.0729068
0.000436215
-0.0677745
0.000772742
-0.0636475
0.00119422
-0.0603181
0.00169175
-0.057617
0.00225601
-0.0554082
0.0028778
-0.0535837
0.00354827
-0.0520582
0.00425914
-0.0507643
0.00500278
-0.0496488
0.00577224
-0.0486704
0.00656128
-0.0477965
0.00736434
-0.047002
0.00817654
-0.0462672
0.00899362
-0.045577
0.00981191
-0.04492
0.0106283
-0.0442874
0.0114402
-0.0436726
0.0122455
-0.0430705
0.0130425
-0.0424774
0.0138298
-0.0418906
0.0146065
-0.0413078
0.0153719
-0.0407272
0.0161254
-0.0401471
0.0168668
-0.0395658
0.017596
-0.0389815
0.0183129
-0.0383916
0.0190174
-0.0377932
-0.0371821
0.0197094
4.92888e-05
-0.0793486
0.000201328
-0.0730588
0.000453737
-0.0680269
0.000800203
-0.063994
0.00123224
-0.0607502
0.00174037
-0.0581251
0.00231482
-0.0559826
0.002946
-0.0542149
0.0036248
-0.052737
0.0043427
-0.0514822
0.00509193
-0.0503981
0.00586541
-0.0494439
0.00665685
-0.048588
0.00746067
-0.0478058
0.00827199
-0.0470785
0.00908658
-0.0463916
0.00990083
-0.0457343
0.0107117
-0.0450983
0.0115168
-0.0444776
0.0123139
-0.0438676
0.0131015
-0.0432651
0.0138785
-0.0426676
0.0146439
-0.0420732
0.0153972
-0.0414805
0.016138
-0.0408879
0.0168663
-0.0402941
0.017582
-0.0396972
0.0182853
-0.0390948
0.0189761
-0.038484
-0.0378605
0.0196546
5.18626e-05
-0.0794005
0.000209935
-0.0732169
0.000470589
-0.0682876
0.000826557
-0.0643499
0.00126862
-0.0611922
0.0017867
-0.0586432
0.00237057
-0.0565665
0.00301028
-0.0548546
0.00369645
-0.0534232
0.00442034
-0.0522061
0.00517403
-0.0511517
0.00595037
-0.0502202
0.006743
-0.0493806
0.00754633
-0.0486091
0.0083555
-0.0478876
0.00916634
-0.0472025
0.0099753
-0.0465433
0.0107795
-0.0459025
0.0115764
-0.0452745
0.0123642
-0.0446554
0.0131414
-0.0440423
0.0139069
-0.0434331
0.01466
-0.0428263
0.0154003
-0.0422208
0.0161277
-0.0416153
0.016842
-0.0410084
0.0175435
-0.0403987
0.0182324
-0.0397837
0.018909
-0.0391606
-0.038525
0.0195734
5.43504e-05
-0.0794548
0.000218227
-0.0733808
0.000486783
-0.0685561
0.000851798
-0.0647149
0.00130331
-0.0616437
0.00183067
-0.0591705
0.00242318
-0.057159
0.00307055
-0.055502
0.00376311
-0.0541158
0.00449194
-0.0529349
0.00524899
-0.0519088
0.00602702
-0.0509983
0.00681963
-0.0501732
0.00762124
-0.0494107
0.00842703
-0.0486934
0.00923288
-0.0480083
0.0100353
-0.0473457
0.0108316
-0.0466987
0.0116192
-0.0460622
0.0123966
-0.0454328
0.0131623
-0.044808
0.0139154
-0.0441862
0.0146554
-0.0435663
0.0153818
-0.0429473
0.0160948
-0.0423282
0.0167945
-0.0417081
0.0174811
-0.0410853
0.0181551
-0.0404578
0.018817
-0.0398224
-0.039175
0.019467
5.67553e-05
-0.0795116
0.000226213
-0.0735502
0.000502315
-0.0688322
0.000875907
-0.0650885
0.00133629
-0.0621041
0.00187223
-0.0597065
0.00247258
-0.0577593
0.00312671
-0.0561561
0.00382469
-0.0548137
0.00455741
-0.0536676
0.0053167
-0.0526681
0.00609526
-0.0517768
0.00688667
-0.0509646
0.00768537
-0.0502094
0.00848658
-0.0494946
0.00928625
-0.048808
0.010081
-0.0481405
0.0108682
-0.0474858
0.0116455
-0.0468395
0.0124114
-0.0461986
0.0131647
-0.0455612
0.0139044
-0.044926
0.0146303
-0.0442922
0.0153422
-0.0436591
0.0160401
-0.0430262
0.0167245
-0.0423924
0.0173957
-0.0417565
0.0180544
-0.0411164
0.0187011
-0.0404691
-0.0398103
0.0193364
5.90792e-05
-0.0795707
0.000233889
-0.073725
0.000517179
-0.0691155
0.000898867
-0.0654702
0.00136752
-0.0625728
0.00191134
-0.0602503
0.00251873
-0.0583667
0.00317872
-0.0568161
0.00388112
-0.0555161
0.00461669
-0.0544032
0.00537711
-0.0534285
0.00615506
-0.0525548
0.00694411
-0.0517537
0.00773872
-0.051004
0.00853418
-0.0502901
0.00932654
-0.0496003
0.0101125
-0.0489265
0.0108895
-0.0482629
0.0116555
-0.0476055
0.012409
-0.0469521
0.0131488
-0.046301
0.0138744
-0.0456516
0.0145854
-0.0450032
0.015282
-0.0443556
0.0159643
-0.0437085
0.0166328
-0.043061
0.0172881
-0.0424119
0.017931
-0.0417594
0.0185623
-0.0411004
-0.0404305
0.0191825
6.13213e-05
-0.079632
0.00024125
-0.073905
0.000531364
-0.0694057
0.000920658
-0.0658595
0.00139698
-0.0630491
0.00194796
-0.0608013
0.00256157
-0.0589804
0.00322651
-0.0574811
0.00393237
-0.056222
0.00466973
-0.0551406
0.00543021
-0.054189
0.00620642
-0.053331
0.00699197
-0.0525392
0.00778136
-0.0517934
0.00856995
-0.0510787
0.00935389
-0.0503843
0.01013
-0.0497026
0.0108959
-0.0490287
0.0116495
-0.0483592
0.0123896
-0.0476922
0.0131152
-0.0470266
0.0138258
-0.0463622
0.0145213
-0.0456987
0.0152019
-0.0450362
0.0158679
-0.0443745
0.0165201
-0.0437131
0.0171591
-0.043051
0.017786
-0.0423862
0.0184014
-0.0417158
-0.0410355
0.0190064
6.34781e-05
-0.0796955
0.000248292
-0.0740898
0.000544857
-0.0697022
0.000941264
-0.0662559
0.00142465
-0.0635325
0.00198207
-0.0613587
0.00260109
-0.0595994
0.00327008
-0.0581501
0.00397841
-0.0569303
0.00471653
-0.0558787
0.00547599
-0.0549484
0.00624937
-0.0541044
0.00703032
-0.0533202
0.00781338
-0.0525765
0.00859402
-0.0518593
0.00936848
-0.0511587
0.0101338
-0.0504679
0.0108875
-0.0497824
0.0116279
-0.0490996
0.0123538
-0.048418
0.0130643
-0.0477372
0.0137592
-0.0470571
0.0144385
-0.046378
0.0151025
-0.0457002
0.0157518
-0.0450238
0.0163872
-0.0443485
0.0170095
-0.0436733
0.01762
-0.0429966
0.0182195
-0.0423154
-0.0416252
0.0188091
6.55477e-05
-0.079761
0.000255006
-0.0742792
0.000557651
-0.0700049
0.000960676
-0.0666589
0.00145051
-0.0640223
0.00201366
-0.0619218
0.00263726
-0.060223
0.00330941
-0.0588222
0.00401925
-0.0576402
0.00475712
-0.0566166
0.0055145
-0.0557058
0.00628399
-0.0548738
0.00705925
-0.0540954
0.00783493
-0.0533522
0.00860658
-0.052631
0.00937057
-0.0519227
0.010124
-0.0512214
0.0108647
-0.0505231
0.011591
-0.0498259
0.0123019
-0.0491289
0.0129967
-0.048432
0.0136752
-0.0477356
0.0143377
-0.0470404
0.0149846
-0.0463471
0.0156166
-0.0456558
0.0162348
-0.0449666
0.0168401
-0.0442787
0.0174339
-0.0435904
0.0180173
-0.0428988
-0.0421993
0.0185915
6.75264e-05
-0.0798285
0.000261388
-0.0744731
0.00056974
-0.0703132
0.000978889
-0.0670681
0.00147456
-0.064518
0.00204272
-0.06249
0.00267011
-0.0608504
0.00334452
-0.0594966
0.00405492
-0.0583506
0.00479153
-0.0573532
0.00554581
-0.0564601
0.00631037
-0.0556384
0.00707892
-0.054864
0.0078462
-0.0541195
0.00860787
-0.0533927
0.00936044
-0.0526753
0.0101012
-0.0519621
0.010828
-0.0512499
0.0115394
-0.0505374
0.0122345
-0.049824
0.0129129
-0.0491103
0.0135744
-0.0483972
0.0142195
-0.0476855
0.0148487
-0.0469763
0.0154631
-0.0462702
0.0160637
-0.0455672
0.0166517
-0.0448668
0.0172286
-0.0441673
0.0177957
-0.0434658
-0.0427579
0.0183542
6.9412e-05
-0.079898
0.000267434
-0.0746711
0.000581123
-0.0706269
0.000995909
-0.0674829
0.00149682
-0.0650189
0.00206928
-0.0630625
0.00269965
-0.0614807
0.00337544
-0.0601724
0.00408546
-0.0590606
0.00481985
-0.0580876
0.00557003
-0.0572103
0.00632865
-0.056397
0.00708949
-0.0556248
0.00784741
-0.0548774
0.00859817
-0.0541434
0.00933843
-0.0534156
0.0100656
-0.0526892
0.0107777
-0.0519621
0.0114735
-0.0512332
0.0121522
-0.0505027
0.0128135
-0.0497716
0.0134574
-0.0490411
0.0140846
-0.0483127
0.0146957
-0.0475874
0.015292
-0.0468664
0.0158745
-0.0461498
0.0164449
-0.0454372
0.0170047
-0.044727
0.0175553
-0.0440164
-0.0433008
0.0180982
7.12006e-05
-0.0799692
0.000273142
-0.0748731
0.000591806
-0.0709456
0.00101175
-0.0679028
0.0015173
-0.0655244
0.00209337
-0.0636385
0.00272593
-0.0621133
0.00340224
-0.0608487
0.00411096
-0.0597693
0.00484217
-0.0588188
0.00558728
-0.0579554
0.006339
-0.0571487
0.0070912
-0.056377
0.00783883
-0.055625
0.0085778
-0.0548824
0.00930491
-0.0541427
0.0100177
-0.053402
0.0107144
-0.0526588
0.0113939
-0.0519127
0.0120556
-0.0511643
0.0126992
-0.0504152
0.013325
-0.049667
0.0139338
-0.0489214
0.0145263
-0.04818
0.015104
-0.047444
0.0156682
-0.046714
0.0162206
-0.0459896
0.0167629
-0.0452693
0.0172968
-0.0445503
-0.0438279
0.0178239
7.2889e-05
-0.080042
0.000278514
-0.0750787
0.000601802
-0.0712689
0.00102643
-0.0683275
0.00153605
-0.0660341
0.00211504
-0.0642175
0.002749
-0.0627473
0.00342498
-0.0615247
0.0041315
-0.0604758
0.00485861
-0.0595459
0.00559773
-0.0586945
0.00634163
-0.0578926
0.00708428
-0.0571197
0.00782076
-0.0563615
0.00854712
-0.0556088
0.00926031
-0.0548559
0.00995804
-0.0540998
0.0106387
-0.0533394
0.0113013
-0.0525752
0.0119453
-0.0518083
0.0125707
-0.0510406
0.0131779
-0.0502742
0.0137677
-0.0495112
0.0143413
-0.0487535
0.0148999
-0.0480027
0.0154453
-0.0472594
0.0159794
-0.0465236
0.0165039
-0.0457939
0.0170208
-0.0450673
-0.044339
0.017532
7.44755e-05
-0.0801165
0.000283558
-0.0752878
0.000611136
-0.0715964
0.00104001
-0.0687563
0.00155311
-0.0665472
0.00213434
-0.0647987
0.00276894
-0.0633819
0.00344375
-0.0621995
0.00414721
-0.0611793
0.00486932
-0.060268
0.00560156
-0.0594267
0.00633676
-0.0586278
0.00706902
-0.0578519
0.00779354
-0.057086
0.00850654
-0.0563218
0.0092051
-0.0555544
0.00988709
-0.0547818
0.0105511
-0.0540034
0.0111962
-0.0532203
0.011822
-0.0524342
0.0124288
-0.0516474
0.0130169
-0.0508624
0.0135874
-0.0500817
0.0141414
-0.0493076
0.0146806
-0.0485419
0.0152067
-0.0477856
0.0157219
-0.0470388
0.0162282
-0.0463002
0.0167279
-0.0455669
-0.0448339
0.0172227
7.59557e-05
-0.0801925
0.000288286
-0.0755001
0.000619846
-0.071928
0.00105253
-0.069189
0.00156856
-0.0670632
0.00215135
-0.0653815
0.00278583
-0.0640163
0.00345866
-0.0628723
0.0041582
-0.0618788
0.00487446
-0.0609842
0.00559897
-0.0601512
0.00632465
-0.0593535
0.00704573
-0.058573
0.00775755
-0.0577978
0.00845648
-0.0570207
0.00913978
-0.0562377
0.00980546
-0.0554474
0.0104522
-0.0546502
0.0110794
-0.0538475
0.0116867
-0.0530415
0.0122743
-0.052235
0.012843
-0.051431
0.0133936
-0.0506323
0.0139277
-0.0498416
0.0144469
-0.0490611
0.0149532
-0.0482919
0.015449
-0.0475345
0.0159366
-0.0467878
0.0164183
-0.0460487
-0.045312
0.0168965
7.73289e-05
-0.0802698
0.000292726
-0.0757155
0.000627991
-0.0722633
0.00106407
-0.0696251
0.00158249
-0.0675816
0.00216617
-0.0659652
0.00279978
-0.06465
0.00346983
-0.0635424
0.00416463
-0.0625736
0.00487421
-0.0616938
0.00559018
-0.0608672
0.00630557
-0.0600689
0.00701473
-0.0592822
0.00771318
-0.0584963
0.00839743
-0.0577049
0.0090649
-0.0569052
0.00971378
-0.0560963
0.0103429
-0.0552793
0.0109517
-0.0544562
0.01154
-0.0536298
0.0121082
-0.0528032
0.012657
-0.0519798
0.0131875
-0.0511628
0.0137012
-0.0503553
0.0141999
-0.0495597
0.0146858
-0.0487778
0.0151614
-0.0480101
0.0156295
-0.0472558
0.0160927
-0.0465119
-0.0457728
0.0165535
7.85978e-05
-0.0803484
0.000296923
-0.0759338
0.00063566
-0.072602
0.00107475
-0.0700642
0.001595
-0.0681019
0.00217891
-0.0665491
0.0028109
-0.0652819
0.00347738
-0.0642088
0.00416664
-0.0632629
0.00486876
-0.0623959
0.00557543
-0.0615739
0.00627981
-0.0607733
0.00697639
-0.0599788
0.00766085
-0.0591807
0.00832987
-0.058374
0.00898103
-0.0575563
0.00961269
-0.056728
0.0102238
-0.0558905
0.0108139
-0.0550464
0.0113831
-0.0541989
0.0119316
-0.0533518
0.0124603
-0.0525085
0.0129703
-0.0516729
0.0134632
-0.0508482
0.0139408
-0.0500374
0.0144056
-0.0492426
0.0148603
-0.0484648
0.0153079
-0.0477034
0.0157516
-0.0469556
-0.0462154
0.0161941
7.97795e-05
-0.0804282
0.000300961
-0.076155
0.000642982
-0.072944
0.0010847
-0.0705059
0.00160623
-0.0686234
0.00218968
-0.0671326
0.0028193
-0.0659116
0.00348143
-0.064871
0.00416439
-0.0639459
0.0048583
-0.0630899
0.00555495
-0.0622705
0.00624766
-0.061466
0.00693106
-0.0606622
0.00760099
-0.0598507
0.00825432
-0.0590273
0.00888879
-0.0581908
0.00950289
-0.0573421
0.0100958
-0.0564833
0.010667
-0.0556176
0.0112168
-0.0547487
0.0117455
-0.0538805
0.012254
-0.053017
0.0127433
-0.0521622
0.0132151
-0.05132
0.0136712
-0.0504935
0.0141142
-0.0496856
0.014547
-0.0488976
0.0149729
-0.0481294
0.0153958
-0.0473784
-0.0466384
0.0158188
8.09167e-05
-0.0805091
0.000304983
-0.0763791
0.000650147
-0.0732892
0.00109409
-0.0709498
0.00161631
-0.0691456
0.0021986
-0.0677149
0.0028251
-0.0665381
0.00348213
-0.065528
0.00415802
-0.0646218
0.00484301
-0.0637748
0.00552898
-0.0629565
0.00620941
-0.0621464
0.00687909
-0.0613318
0.00753403
-0.0605056
0.00817128
-0.0596645
0.00878875
-0.0588083
0.0093851
-0.0579384
0.00995958
-0.0570578
0.0105119
-0.05617
0.0110424
-0.0552791
0.0115513
-0.0543894
0.0120396
-0.0535052
0.0125082
-0.0526309
0.0129588
-0.0517705
0.013393
-0.0509278
0.0138135
-0.050106
0.0142233
-0.0493074
0.0146262
-0.0485323
0.0150264
-0.0477787
-0.0470401
0.0154281
8.21254e-05
-0.0805912
0.000309241
-0.0766062
0.000657426
-0.0736374
0.00110315
-0.0713956
0.0016254
-0.0696679
0.00220579
-0.0682953
0.00282841
-0.0671607
0.00347957
-0.0661792
0.00414769
-0.0652899
0.00482307
-0.0644502
0.00549776
-0.0636312
0.00616535
-0.062814
0.00682083
-0.0619873
0.00746039
-0.0611452
0.00808126
-0.0602854
0.00868152
-0.0594085
0.00925999
-0.0585169
0.00981606
-0.0576139
0.0103496
-0.0567035
0.0108608
-0.0557903
0.0113502
-0.0548788
0.0118186
-0.0539736
0.0122668
-0.0530792
0.0126963
-0.0521999
0.0131086
-0.0513401
0.0135061
-0.0505035
0.0138919
-0.0496931
0.01427
-0.0489105
0.0146456
-0.0481542
-0.0474181
0.0150235
8.36621e-05
-0.0806749
0.000314154
-0.0768367
0.000665187
-0.0739884
0.00111213
-0.0718425
0.00163366
-0.0701894
0.00221135
-0.0688729
0.0028293
-0.0677786
0.00347386
-0.0668237
0.00413351
-0.0659495
0.00479865
-0.0651154
0.00546147
-0.064294
0.00611573
-0.0634683
0.0067566
-0.0626282
0.00738045
-0.061769
0.00798471
-0.0608897
0.00856764
-0.0599915
0.00912822
-0.0590775
0.00966599
-0.0581516
0.0101809
-0.0572185
0.0106733
-0.0562827
0.0111436
-0.0553492
0.0115926
-0.0544226
0.0120211
-0.0535076
0.0124301
-0.052609
0.012821
-0.051731
0.0131956
-0.0508781
0.0135567
-0.0500542
0.0139084
-0.0492622
0.0142566
-0.0485024
-0.0477691
0.0146076
8.60259e-05
-0.0807609
0.000320352
-0.077071
0.000673877
-0.0743419
0.00112126
-0.0722899
0.0016412
-0.0707093
0.00221534
-0.0694471
0.00282783
-0.0683911
0.00346506
-0.067461
0.00411558
-0.0666
0.00476989
-0.0657697
0.00542031
-0.0649444
0.00606079
-0.0641088
0.00668667
-0.0632541
0.00729455
-0.0623769
0.00788204
-0.0614771
0.00844759
-0.060557
0.00899036
-0.0596203
0.00951004
-0.0586713
0.0100067
-0.0577152
0.0104808
-0.0567568
0.0109327
-0.0558011
0.0113633
-0.0548531
0.0117731
-0.0539175
0.012163
-0.0529988
0.0125336
-0.0521017
0.0128863
-0.0512308
0.013223
-0.0503909
0.0135473
-0.0495865
0.0138653
-0.0488203
-0.0480894
0.0141856
9.01457e-05
-0.0808511
0.000328808
-0.0773097
0.00068406
-0.0746972
0.00113078
-0.0727366
0.00164808
-0.0712266
0.00221776
-0.0700168
0.002824
-0.0689973
0.00345321
-0.0680902
0.00409396
-0.0672408
0.00473688
-0.0664126
0.00537442
-0.065582
0.00600071
-0.064735
0.0066113
-0.0638647
0.00720298
-0.0629686
0.00777358
-0.0620477
0.00832175
-0.0611052
0.00884685
-0.0601454
0.00934873
-0.0591732
0.00982762
-0.058194
0.010284
-0.0572132
0.0107185
-0.0562357
0.0111319
-0.0552665
0.0115246
-0.0543102
0.0118972
-0.0533714
0.0122501
-0.0524545
0.0125834
-0.0515642
0.0128979
-0.0507054
0.0131953
-0.0498839
0.0134805
-0.0491056
-0.0483746
0.0137657
9.84709e-05
-0.0809495
0.000341517
-0.0775527
0.000696551
-0.0750522
0.00114085
-0.0731809
0.00165423
-0.07174
0.00221852
-0.0705811
0.00281775
-0.0695966
0.00343828
-0.0687107
0.0040687
-0.0678712
0.0046997
-0.0670436
0.00532391
-0.0662062
0.00593564
-0.0653468
0.00653064
-0.0644597
0.00710594
-0.0635439
0.00765957
-0.0626014
0.0081904
-0.061636
0.00869799
-0.0606529
0.00918238
-0.0596576
0.00964398
-0.0586556
0.0100835
-0.0576526
0.0105016
-0.0566538
0.0108991
-0.055664
0.0112768
-0.0546879
0.011635
-0.0537296
0.0119737
-0.0527933
0.0122925
-0.051883
0.0125902
-0.0510031
0.0128647
-0.0501583
0.0131165
-0.0493575
-0.0486215
0.0133634
0.000118781
-0.0810683
0.000361454
-0.0777954
0.000711634
-0.0754024
0.00115108
-0.0736204
0.00165926
-0.0722482
0.00221733
-0.0711391
0.00280892
-0.0701882
0.0034202
-0.069322
0.00403976
-0.0684908
0.00465838
-0.0676622
0.00526886
-0.0668167
0.00586568
-0.0659436
0.00644484
-0.0650388
0.00700358
-0.0641026
0.00754016
-0.0631379
0.00805368
-0.0621496
0.00854389
-0.0611432
0.00901106
-0.0601248
0.0094558
-0.0591004
0.00987899
-0.0580758
0.0102816
-0.0570564
0.0106648
-0.0560472
0.0110296
-0.0550526
0.0113768
-0.0540768
0.0117071
-0.0531236
0.0120204
-0.0521963
0.0123152
-0.0512978
0.0125848
-0.050428
0.0128152
-0.0495879
-0.0488101
0.0130038
0.0834693
8.80357e-05
-0.0835573
0.0833915
7.7765e-05
0.0833168
7.46973e-05
0.0832426
7.4203e-05
0.0831678
7.48009e-05
0.0830919
7.59157e-05
0.0830147
7.72301e-05
0.0829361
7.85793e-05
0.0828562
7.98829e-05
0.0827751
8.11103e-05
0.0826928
8.22475e-05
0.0826096
8.32896e-05
0.0825253
8.42374e-05
0.0824402
8.50897e-05
0.0823544
8.58477e-05
0.0822679
8.65106e-05
0.0821808
8.70793e-05
0.0820932
8.75531e-05
0.0820053
8.79293e-05
0.0819171
8.82072e-05
0.0818287
8.83824e-05
0.0817403
8.84488e-05
0.0816519
8.83933e-05
0.0815637
8.81979e-05
0.0814759
8.7824e-05
0.0813887
8.71981e-05
0.0813025
8.61602e-05
0.0812182
8.4338e-05
0.0811376
8.05617e-05
6.92872e-05
0.0838482
0.00025014
-0.0840103
0.0836799
0.000246047
0.0835084
0.000246239
0.0833336
0.000248953
0.0831554
0.000252991
0.0829736
0.00025777
0.0827879
0.000262904
0.0825984
0.000268128
0.082405
0.000273279
0.0822078
0.00027826
0.082007
0.000283014
0.0818028
0.000287508
0.0815953
0.000291721
0.0813848
0.00029564
0.0811714
0.000299255
0.0809553
0.000302558
0.0807369
0.000305545
0.0805162
0.00030821
0.0802936
0.000310545
0.0800693
0.000312542
0.0798435
0.00031419
0.0796164
0.000315473
0.0793885
0.00031636
0.0791598
0.000316809
0.0789309
0.000316746
0.0787021
0.00031604
0.0784738
0.000314449
0.0782466
0.000311493
0.0780211
0.000306071
0.000295042
0.0840844
0.000455984
-0.0842903
0.0838667
0.000463836
0.0836398
0.000473147
0.083405
0.000483743
0.0831628
0.000495127
0.0829136
0.000506963
0.0826575
0.000518985
0.0823947
0.000530964
0.0821253
0.000542727
0.0818494
0.000554151
0.0815672
0.00056515
0.0812791
0.000575664
0.0809852
0.000585649
0.0806857
0.000595073
0.0803811
0.000603911
0.0800715
0.000612145
0.0797573
0.000619757
0.0794387
0.000626733
0.0791162
0.000633056
0.0787901
0.000638712
0.0784606
0.000643678
0.0781281
0.000647927
0.0777931
0.000651419
0.0774558
0.000654098
0.0771166
0.000655875
0.0767761
0.000656613
0.0764344
0.000656091
0.076092
0.000653938
0.0757486
0.000649469
0.000641241
0.0840855
0.000682224
-0.0843118
0.0838452
0.000704204
0.0835921
0.000726185
0.0833275
0.000748379
0.0830519
0.000770669
0.082766
0.000792911
0.08247
0.000814957
0.0821643
0.000836653
0.0818492
0.000857857
0.0815249
0.000878453
0.0811917
0.00089835
0.0808499
0.000917478
0.0804998
0.000935776
0.0801416
0.000953198
0.0797758
0.000969705
0.0794027
0.000985262
0.0790226
0.000999844
0.078636
0.00101342
0.078243
0.00102597
0.0778443
0.00103747
0.0774401
0.00104788
0.0770308
0.00105717
0.076617
0.00106529
0.0761989
0.00107218
0.075777
0.00107775
0.0753517
0.0010819
0.0749234
0.00108443
0.0744922
0.00108511
0.0740582
0.00108353
0.00107904
0.0838141
0.00091002
-0.0840419
0.0835705
0.00094775
0.0833119
0.000984767
0.083039
0.00102128
0.0827524
0.0010573
0.0824526
0.00109277
0.0821399
0.0011276
0.0818149
0.0011617
0.0814777
0.00119497
0.0811289
0.00122729
0.0807687
0.00125859
0.0803973
0.0012888
0.0800153
0.00131784
0.0796228
0.00134565
0.0792203
0.0013722
0.0788082
0.00139742
0.0783867
0.00142129
0.0779564
0.00144376
0.0775176
0.0014648
0.0770707
0.00148437
0.0766161
0.00150244
0.0761543
0.00151895
0.0756858
0.00153386
0.0752108
0.0015471
0.07473
0.00155861
0.0742436
0.00156827
0.0737521
0.00157596
0.0732557
0.00158152
0.0727545
0.00158474
0.0015853
0.0832662
0.00112587
-0.083482
0.0830332
0.00118074
0.0827835
0.00123452
0.0825174
0.00128733
0.0822355
0.0013392
0.0819382
0.0013901
0.0816258
0.00143996
0.0812988
0.00148872
0.0809575
0.00153628
0.0806022
0.00158256
0.0802333
0.00162748
0.0798512
0.00167095
0.0794561
0.00171292
0.0790484
0.00175331
0.0786286
0.00179206
0.0781969
0.00182913
0.0777537
0.00186444
0.0772995
0.00189797
0.0768346
0.00192965
0.0763596
0.00195945
0.0758747
0.00198732
0.0753804
0.0020132
0.0748773
0.00203703
0.0743656
0.00205877
0.0738459
0.00207833
0.0733185
0.00209564
0.0727839
0.00211059
0.0722423
0.00212309
0.071694
0.00213302
0.0021402
0.0824607
0.00132088
-0.0826557
0.0822474
0.001394
0.0820162
0.0014658
0.0817671
0.00153634
0.0815007
0.00160561
0.0812173
0.00167357
0.080917
0.00174018
0.0806004
0.00180535
0.0802677
0.00186901
0.0799192
0.00193106
0.0795552
0.00199142
0.0791762
0.00205003
0.0787823
0.00210679
0.078374
0.00216163
0.0779515
0.00221449
0.0775154
0.0022653
0.0770658
0.00231399
0.0766033
0.00236051
0.0761281
0.00240479
0.0756408
0.00244679
0.0751417
0.00248643
0.0746312
0.00252367
0.0741098
0.00255844
0.0735779
0.00259069
0.0730359
0.00262033
0.0724842
0.0026473
0.0719233
0.00267153
0.0713534
0.00269295
0.070775
0.00271147
0.00272699
0.0814296
0.00148981
-0.0815985
0.0812416
0.00158197
0.0810347
0.00167267
0.0808091
0.00176192
0.0805651
0.00184966
0.0803028
0.00193586
0.0800225
0.00202045
0.0797246
0.00210334
0.0794091
0.00218443
0.0790765
0.00226365
0.0787271
0.00234091
0.078361
0.00241611
0.0779786
0.00248917
0.0775802
0.00256
0.0771662
0.00262854
0.0767368
0.00269469
0.0762924
0.00275838
0.0758334
0.00281955
0.07536
0.00287812
0.0748728
0.00293403
0.074372
0.0029872
0.0738581
0.00303757
0.0733315
0.00308508
0.0727925
0.00312965
0.0722416
0.00317122
0.0716792
0.00320971
0.0711057
0.00324507
0.0705214
0.00327724
0.0699267
0.00330616
0.00333172
0.080211
0.00163021
-0.0803514
0.0800511
0.00174189
0.0798717
0.00185203
0.079673
0.00196059
0.0794552
0.0020675
0.0792183
0.0021727
0.0789627
0.00227609
0.0786885
0.00237758
0.0783958
0.00247707
0.078085
0.00257445
0.0777563
0.00266965
0.0774099
0.00276254
0.077046
0.00285304
0.0766649
0.00294105
0.076267
0.00302649
0.0758524
0.00310925
0.0754215
0.00318926
0.0749747
0.00326643
0.0745121
0.00334068
0.0740342
0.00341193
0.0735413
0.0034801
0.0730338
0.00354511
0.0725119
0.00360689
0.0719762
0.00366537
0.071427
0.00372047
0.0708646
0.00377212
0.0702894
0.00382027
0.0697018
0.00386485
0.0691021
0.00390581
0.00394305
0.0788446
0.00174168
-0.0789561
0.0787134
0.00187308
0.0785626
0.00200292
0.0783921
0.00213109
0.078202
0.00225753
0.0779926
0.00238214
0.0777638
0.00250482
0.077516
0.00262545
0.0772491
0.00274392
0.0769634
0.00286013
0.0766591
0.00297395
0.0763364
0.00308529
0.0759954
0.00319403
0.0756364
0.00330006
0.0752596
0.00340329
0.0748652
0.00350361
0.0744536
0.00360092
0.0740249
0.00369513
0.0735794
0.00378614
0.0731175
0.00387386
0.0726394
0.0039582
0.0721454
0.00403908
0.0716359
0.00411641
0.0711111
0.0041901
0.0705715
0.00426009
0.0700174
0.00432628
0.069449
0.00438863
0.0688668
0.00444706
0.0682711
0.00450152
0.00455191
0.0773687
0.00182525
-0.0774523
0.0772655
0.00197636
0.0771425
0.0021259
0.0769998
0.00227375
0.0768375
0.00241982
0.0766557
0.00256399
0.0764544
0.00270614
0.0762337
0.00284616
0.0759937
0.00298391
0.0757345
0.00311927
0.0754564
0.00325212
0.0751593
0.00338234
0.0748435
0.00350981
0.0745092
0.0036344
0.0741565
0.00375601
0.0737856
0.00387452
0.0733967
0.00398982
0.07299
0.0041018
0.0725658
0.00421035
0.0721243
0.00431538
0.0716657
0.00441679
0.0711903
0.00451446
0.0706984
0.00460832
0.0701902
0.00469826
0.0696661
0.00478421
0.0691263
0.00486607
0.0685712
0.00494378
0.068001
0.00501727
0.067416
0.00508646
0.00515126
0.0758182
0.00188295
-0.0758759
0.075741
0.00205356
0.0756443
0.00222261
0.075528
0.00238999
0.0753923
0.00255558
0.075237
0.00271924
0.0750623
0.00288084
0.0748682
0.00304025
0.0746548
0.00319732
0.0744222
0.00335193
0.0741704
0.00350393
0.0738995
0.00365321
0.0736097
0.00379962
0.073301
0.00394304
0.0729737
0.00408334
0.0726278
0.0042204
0.0722635
0.0043541
0.071881
0.00448431
0.0714804
0.00461092
0.071062
0.00473382
0.0706259
0.00485289
0.0701724
0.00496802
0.0697016
0.00507912
0.0692137
0.00518608
0.0687092
0.0052888
0.068188
0.00538719
0.0676507
0.00548116
0.0670973
0.00557065
0.0665282
0.00565558
0.00573584
0.0742236
0.00191737
-0.074258
0.07417
0.00210713
0.0740972
0.00229539
0.0740052
0.002482
0.073894
0.00266683
0.0737635
0.00284973
0.0736138
0.00303056
0.0734448
0.00320918
0.0732567
0.00338542
0.0730495
0.00355916
0.0728232
0.00373024
0.0725779
0.00389853
0.0723136
0.00406389
0.0720305
0.00422617
0.0717286
0.00438524
0.071408
0.00454097
0.0710689
0.00469323
0.0707113
0.00484188
0.0703354
0.00498681
0.0699414
0.00512788
0.0695293
0.00526497
0.0690993
0.00539797
0.0686517
0.00552677
0.0681865
0.00565124
0.067704
0.00577129
0.0672044
0.00588681
0.0666878
0.00599771
0.0661546
0.00610391
0.0656048
0.00620532
0.00630184
0.072611
0.0019314
-0.072625
0.0725782
0.00213989
0.0725267
0.00234693
0.0724563
0.00255236
0.0723671
0.00275604
0.072259
0.00295781
0.072132
0.00315753
0.0719862
0.00335502
0.0718215
0.00355014
0.0716379
0.00374273
0.0714355
0.00393264
0.0712143
0.00411973
0.0709744
0.00430384
0.0707157
0.00448483
0.0704384
0.00466256
0.0701425
0.00483688
0.069828
0.00500766
0.0694952
0.00517475
0.0691439
0.00533803
0.0687745
0.00549736
0.0683868
0.00565261
0.0679811
0.00580366
0.0675575
0.00595038
0.0671161
0.00609264
0.0666571
0.00623034
0.0661805
0.00636336
0.0656866
0.0064916
0.0651756
0.00661497
0.0646475
0.00673338
0.00684674
0.0710017
0.00192805
-0.0709983
0.0709868
0.00215477
0.0709536
0.0023801
0.0709021
0.00260387
0.0708322
0.00282593
0.0707439
0.00304612
0.0706372
0.00326426
0.070512
0.0034802
0.0703684
0.00369378
0.0702063
0.00390483
0.0700257
0.00411319
0.0698267
0.00431873
0.0696093
0.00452127
0.0693735
0.00472067
0.0691193
0.00491677
0.0688467
0.00510944
0.0685558
0.00529853
0.0682467
0.00548389
0.0679193
0.00566538
0.0675738
0.00584287
0.0672102
0.00601622
0.0668286
0.00618529
0.066429
0.00634995
0.0660116
0.00651008
0.0655764
0.00666554
0.0651235
0.00681621
0.0646531
0.00696199
0.0641653
0.00710278
0.0636602
0.00723849
0.00736903
0.0694128
0.00191025
-0.069395
0.0694129
0.00215468
0.0693952
0.00239777
0.0693597
0.00263936
0.0693064
0.00287927
0.0692352
0.00311735
0.069146
0.00335342
0.0690389
0.0035873
0.0689138
0.00381884
0.0687708
0.00404787
0.0686098
0.00427422