/*--------------------------------*- C++ -*----------------------------------*\
  =========                 |
  \\      /  F ield         | OpenFOAM: The Open Source CFD Toolbox
   \\    /   O peration     | Website:  https://openfoam.org
    \\  /    A nd           | Version:  6.0
     \\/     M anipulation  |
\*---------------------------------------------------------------------------*/
FoamFile
{
    version     2.0;
    format      ascii;
    class       volVectorField;
    location    "0.496";
    object      U;
}
// * * * * * * * * * * * * * * * * * * * * * * * * * * * * * * * * * * * * * //

dimensions      [0 1 -1 0 0 0 0];

internalField   nonuniform List<vector> 
19200
(
(0.00668874 -0.480455 -3.45089e-22)
(0.00606584 -0.445149 1.89074e-22)
(0.00672416 -0.413021 9.52346e-23)
(0.00858717 -0.383777 9.02928e-23)
(0.0117822 -0.357094 1.07174e-22)
(0.0164394 -0.332663 6.43489e-24)
(0.02261 -0.310205 1.63326e-22)
(0.0302974 -0.289467 -1.37201e-23)
(0.0394716 -0.270231 1.52264e-22)
(0.0500767 -0.252308 6.50796e-23)
(0.0620364 -0.235537 -1.13086e-24)
(0.0752597 -0.219785 1.07806e-22)
(0.0896446 -0.204941 1.82029e-22)
(0.105082 -0.190913 -1.25144e-22)
(0.121457 -0.17763 1.60889e-22)
(0.138653 -0.165034 1.38764e-22)
(0.156552 -0.153077 -1.30981e-22)
(0.175036 -0.141724 2.21745e-22)
(0.193991 -0.130945 -1.40809e-22)
(0.213302 -0.120717 7.04919e-23)
(0.232859 -0.111023 9.62389e-23)
(0.252558 -0.101846 -3.02952e-23)
(0.272295 -0.0931798 4.09092e-23)
(0.291976 -0.0850201 -4.56818e-23)
(0.311496 -0.0773678 -1.73886e-24)
(0.330771 -0.0702113 2.19772e-23)
(0.349705 -0.0635349 -1.48684e-23)
(0.368228 -0.0573146 9.32524e-24)
(0.386263 -0.0515311 2.00238e-23)
(0.403689 -0.0461652 8.1893e-23)
(0.0193173 -0.480109 -8.37946e-23)
(0.0178137 -0.445389 5.95378e-22)
(0.0176919 -0.414162 -3.28795e-22)
(0.018874 -0.386065 -4.87086e-22)
(0.0214754 -0.360723 -2.3648e-22)
(0.0256123 -0.337777 -1.76376e-22)
(0.0313231 -0.316905 -3.95388e-22)
(0.0385994 -0.29782 4.87615e-23)
(0.0474017 -0.280272 -8.38286e-23)
(0.057666 -0.264045 -3.13641e-22)
(0.0693093 -0.248954 -8.15646e-22)
(0.0822351 -0.234845 4.04464e-22)
(0.0963372 -0.221589 -1.52885e-22)
(0.111503 -0.209082 5.82618e-23)
(0.127615 -0.197236 -3.59721e-22)
(0.144555 -0.185983 -1.32159e-22)
(0.162205 -0.175267 1.55625e-23)
(0.180444 -0.165043 4.44633e-22)
(0.199159 -0.155277 -2.37605e-22)
(0.218234 -0.145939 -1.31553e-22)
(0.23756 -0.137006 -4.93059e-22)
(0.257031 -0.128462 1.25628e-22)
(0.276547 -0.120294 -7.64517e-23)
(0.296007 -0.112497 1.31591e-22)
(0.315318 -0.105067 -5.76879e-23)
(0.334384 -0.0979928 -8.78281e-23)
(0.353121 -0.0912546 2.97918e-23)
(0.37145 -0.0848302 4.07615e-23)
(0.389302 -0.0786958 -7.54412e-23)
(0.406548 -0.0728317 3.72385e-23)
(0.0318854 -0.479476 -4.11047e-23)
(0.0295479 -0.445358 1.15739e-22)
(0.0287304 -0.415055 1.85748e-22)
(0.0293293 -0.38813 1.70478e-21)
(0.0314435 -0.364149 -1.04778e-21)
(0.0351739 -0.342703 9.7292e-22)
(0.0405438 -0.323429 6.2327e-22)
(0.0475316 -0.306004 5.15302e-22)
(0.056086 -0.290147 -5.0786e-22)
(0.0661329 -0.275614 -6.40564e-23)
(0.0775812 -0.2622 1.34276e-21)
(0.0903276 -0.24973 2.30662e-22)
(0.10426 -0.238058 -6.38432e-22)
(0.119263 -0.227064 5.08628e-22)
(0.135214 -0.216649 -2.14378e-24)
(0.151993 -0.206733 2.19289e-22)
(0.16948 -0.197251 1.61087e-22)
(0.187554 -0.188151 5.25199e-22)
(0.206099 -0.179391 -2.37112e-22)
(0.225001 -0.170937 -7.89809e-23)
(0.24415 -0.162764 -1.95178e-22)
(0.26344 -0.154849 8.43253e-22)
(0.28277 -0.147177 -6.94078e-22)
(0.302042 -0.139742 2.29357e-22)
(0.321159 -0.132535 9.18711e-23)
(0.340031 -0.125545 -3.85798e-22)
(0.358572 -0.118751 5.08138e-22)
(0.376706 -0.112128 -5.81361e-23)
(0.394364 -0.10565 -5.54359e-23)
(0.411408 -0.0992967 -3.91754e-22)
(0.0444243 -0.478549 -1.28648e-21)
(0.041292 -0.445073 -1.32458e-21)
(0.0398489 -0.415721 -1.74222e-21)
(0.0399553 -0.389992 2.82778e-23)
(0.0416865 -0.367389 1.05693e-22)
(0.0451234 -0.347456 -2.25291e-21)
(0.0502714 -0.329785 9.3715e-23)
(0.0570927 -0.314021 3.13619e-22)
(0.0655223 -0.299851 -5.00334e-23)
(0.0754744 -0.287007 5.74737e-22)
(0.086848 -0.27526 -2.31341e-21)
(0.0995317 -0.264417 -1.48031e-21)
(0.113407 -0.254316 5.50907e-22)
(0.128352 -0.244822 1.11756e-21)
(0.144243 -0.235824 -1.3111e-21)
(0.160954 -0.227231 -2.09137e-22)
(0.178363 -0.21897 -7.76284e-22)
(0.19635 -0.210981 -3.66842e-22)
(0.214795 -0.203217 6.0208e-22)
(0.233586 -0.195639 -7.70944e-22)
(0.252611 -0.188216 6.48898e-22)
(0.271765 -0.180924 -7.76758e-22)
(0.290947 -0.173743 -5.96229e-22)
(0.310059 -0.166663 -4.06672e-22)
(0.329004 -0.159679 -1.29795e-22)
(0.347695 -0.152773 -8.11738e-22)
(0.366041 -0.145928 8.1966e-23)
(0.383976 -0.139113 1.36224e-22)
(0.40143 -0.132299 -3.80078e-22)
(0.418251 -0.125466 9.47451e-23)
(0.0569374 -0.477317 -7.65684e-22)
(0.0530533 -0.444538 1.28656e-22)
(0.0510535 -0.416175 1.18399e-21)
(0.0507565 -0.391667 1.33333e-21)
(0.0522076 -0.370459 1.01047e-21)
(0.0554632 -0.352046 4.34962e-22)
(0.0605073 -0.335981 6.92787e-22)
(0.0672832 -0.321872 3.34857e-21)
(0.07571 -0.30938 -2.03653e-21)
(0.0856883 -0.298212 5.42471e-23)
(0.0971059 -0.288117 5.11465e-22)
(0.109842 -0.278883 2.2849e-21)
(0.12377 -0.270333 -1.57987e-21)
(0.138763 -0.262318 1.15043e-21)
(0.15469 -0.254716 -1.29042e-21)
(0.171424 -0.247426 2.20887e-21)
(0.18884 -0.240366 -6.62109e-22)
(0.206813 -0.233471 2.27989e-23)
(0.225227 -0.226686 1.04412e-21)
(0.243965 -0.219969 7.08606e-22)
(0.262916 -0.213285 -7.30234e-22)
(0.281978 -0.206604 9.6918e-22)
(0.301044 -0.199907 -4.31917e-22)
(0.320026 -0.193177 4.92808e-22)
(0.338821 -0.186408 6.2688e-22)
(0.357339 -0.179587 2.12881e-22)
(0.375503 -0.172689 6.47297e-22)
(0.393229 -0.165688 -2.50945e-22)
(0.410469 -0.158547 -9.70571e-23)
(0.427046 -0.151247 -3.98151e-22)
(0.069421 -0.475784 -5.72347e-22)
(0.0648334 -0.443761 -4.11526e-22)
(0.0623487 -0.416429 -1.37231e-21)
(0.061738 -0.393168 -3.83306e-21)
(0.0630115 -0.373371 1.29164e-21)
(0.0661973 -0.356483 9.09477e-23)
(0.0712542 -0.342021 -9.84565e-22)
(0.0781042 -0.329559 2.26471e-22)
(0.0866484 -0.31873 -1.32775e-22)
(0.0967719 -0.309218 -2.7996e-21)
(0.10835 -0.300752 1.19211e-21)
(0.12125 -0.293102 2.10787e-21)
(0.135339 -0.286076 1.22623e-23)
(0.15048 -0.279513 8.06948e-22)
(0.166539 -0.27328 2.00006e-21)
(0.183384 -0.267266 -1.37237e-21)
(0.200886 -0.261382 2.43093e-21)
(0.21892 -0.255556 -1.14314e-21)
(0.237365 -0.249729 2.04342e-21)
(0.256106 -0.243853 -1.512e-21)
(0.275032 -0.23789 6.80331e-22)
(0.294037 -0.231809 1.7188e-21)
(0.313026 -0.225583 6.68549e-23)
(0.331893 -0.219199 -1.53752e-21)
(0.35056 -0.21264 8.60986e-22)
(0.368921 -0.205898 1.00901e-22)
(0.386898 -0.198949 -2.46891e-22)
(0.404422 -0.191764 9.61506e-22)
(0.421437 -0.184303 3.1106e-22)
(0.437751 -0.176548 -3.47585e-22)
(0.0818701 -0.473953 1.66531e-21)
(0.0766325 -0.442751 4.97205e-23)
(0.073738 -0.416493 -2.82887e-21)
(0.0729049 -0.394507 5.82389e-22)
(0.0741038 -0.376134 -9.13023e-22)
(0.0773303 -0.360775 6.35061e-22)
(0.0825155 -0.347908 1.55736e-21)
(0.0895573 -0.337079 2.97341e-21)
(0.0983366 -0.327893 -3.32728e-21)
(0.108722 -0.320012 8.26121e-22)
(0.120573 -0.313145 -6.12346e-22)
(0.133747 -0.307049 4.54762e-22)
(0.148099 -0.301515 -2.01137e-21)
(0.163487 -0.29637 -1.16752e-22)
(0.17977 -0.291472 3.34717e-21)
(0.19681 -0.286701 -2.31399e-21)
(0.214475 -0.281961 -1.4449e-21)
(0.232638 -0.277174 -1.04046e-21)
(0.251177 -0.272276 1.95096e-21)
(0.269976 -0.267216 4.10551e-22)
(0.288923 -0.261952 -1.84791e-21)
(0.307913 -0.256452 2.45055e-21)
(0.326847 -0.250687 -2.178e-21)
(0.345633 -0.244636 1.4258e-21)
(0.364176 -0.238287 -7.88113e-22)
(0.38239 -0.231621 5.09188e-22)
(0.400184 -0.224622 3.55544e-22)
(0.417499 -0.217257 -1.59065e-21)
(0.434282 -0.209483 6.88623e-22)
(0.450315 -0.201286 2.01757e-23)
(0.0942794 -0.471831 -1.67659e-21)
(0.0884508 -0.441515 1.42218e-21)
(0.0852253 -0.416376 -3.05997e-21)
(0.084263 -0.395693 5.98823e-21)
(0.0854906 -0.378756 -1.75587e-21)
(0.0888681 -0.364926 2.68016e-21)
(0.0942955 -0.353645 3.99352e-23)
(0.101645 -0.344429 -3.52479e-22)
(0.110774 -0.33686 -6.07176e-22)
(0.121534 -0.330579 -2.28714e-23)
(0.133768 -0.325278 -2.45706e-21)
(0.147321 -0.320697 1.27337e-21)
(0.162038 -0.316615 -1.59742e-21)
(0.177766 -0.312849 -1.29001e-22)
(0.19436 -0.309246 -4.55759e-21)
(0.211675 -0.305679 1.49123e-21)
(0.229577 -0.302046 8.76267e-22)
(0.247936 -0.298264 -9.7337e-22)
(0.266627 -0.294263 -1.16189e-22)
(0.285534 -0.289989 -1.5196e-21)
(0.304546 -0.285399 -5.44723e-22)
(0.323558 -0.280457 4.00128e-23)
(0.342471 -0.275134 -1.28943e-21)
(0.361192 -0.269405 -1.84771e-21)
(0.379633 -0.263254 8.26208e-23)
(0.3977 -0.256665 -1.7994e-22)
(0.415316 -0.249617 5.50508e-22)
(0.432413 -0.242079 -1.33301e-21)
(0.448956 -0.234003 1.11316e-21)
(0.464689 -0.22538 -2.378e-21)
(0.106644 -0.469421 -4.20214e-21)
(0.100289 -0.440061 5.68582e-21)
(0.0968151 -0.416089 -6.49174e-21)
(0.095819 -0.396734 -1.86876e-21)
(0.0971793 -0.381245 -1.30106e-21)
(0.100817 -0.36894 -1.44166e-21)
(0.106599 -0.35923 -1.33974e-21)
(0.114369 -0.351604 -2.72979e-22)
(0.123961 -0.345622 -1.40704e-21)
(0.135205 -0.340904 -3.79213e-22)
(0.147928 -0.337128 2.58735e-21)
(0.161961 -0.334018 -1.47966e-21)
(0.177137 -0.331343 -1.85036e-21)
(0.193296 -0.32891 -3.14915e-21)
(0.210283 -0.326556 6.66028e-21)
(0.22795 -0.32415 -2.60455e-21)
(0.246157 -0.321582 9.66951e-22)
(0.264772 -0.318764 -3.59027e-21)
(0.28367 -0.315624 1.3558e-21)
(0.302733 -0.312104 -5.65128e-22)
(0.32185 -0.308159 7.00072e-22)
(0.340917 -0.303751 -2.73051e-22)
(0.359836 -0.298849 2.19469e-21)
(0.378513 -0.293427 -7.80566e-22)
(0.396864 -0.287465 2.04234e-21)
(0.414797 -0.280946 -3.1891e-22)
(0.432229 -0.273851 2.61595e-21)
(0.449111 -0.266146 6.65821e-22)
(0.465398 -0.257779 1.27263e-21)
(0.480814 -0.248748 -4.48103e-21)
(0.118959 -0.466728 6.65717e-21)
(0.112148 -0.438397 -1.35595e-21)
(0.108513 -0.415638 2.81807e-21)
(0.10758 -0.397639 -8.72062e-22)
(0.109178 -0.383605 3.08856e-21)
(0.113185 -0.372819 3.10977e-21)
(0.119433 -0.364661 3.70189e-21)
(0.127734 -0.358598 -3.4055e-22)
(0.137897 -0.354166 -3.79426e-21)
(0.149731 -0.35097 5.63749e-21)
(0.163045 -0.348672 -4.86244e-22)
(0.177654 -0.346984 4.22375e-21)
(0.19338 -0.345666 1.56021e-21)
(0.210054 -0.344514 5.67664e-22)
(0.227511 -0.343359 1.01074e-21)
(0.2456 -0.342063 1.30633e-21)
(0.264177 -0.340512 2.20747e-21)
(0.283105 -0.338614 -6.25013e-22)
(0.302258 -0.336294 3.23495e-21)
(0.321518 -0.333492 1.48665e-21)
(0.340775 -0.330161 -3.11394e-21)
(0.359925 -0.326261 5.41736e-21)
(0.37887 -0.321759 -7.10616e-21)
(0.397524 -0.316628 6.70803e-21)
(0.415791 -0.310845 -2.19711e-21)
(0.4336 -0.304391 4.25829e-22)
(0.450853 -0.297249 -2.80176e-21)
(0.46751 -0.289382 1.55324e-21)
(0.483537 -0.280734 5.56837e-22)
(0.498617 -0.271314 -7.47348e-22)
(0.13122 -0.463756 -3.90275e-21)
(0.12403 -0.436529 4.44867e-21)
(0.120324 -0.41503 -1.25164e-21)
(0.119555 -0.39841 3.84198e-21)
(0.121495 -0.385838 3.60326e-22)
(0.12598 -0.376562 1.0113e-21)
(0.132803 -0.369935 -7.48762e-21)
(0.141743 -0.3654 -1.33674e-21)
(0.152583 -0.362478 5.19166e-21)
(0.165108 -0.360757 4.20383e-21)
(0.179109 -0.359885 -7.20299e-21)
(0.194386 -0.359566 4.30977e-21)
(0.210748 -0.359547 -4.38292e-21)
(0.228014 -0.359619 3.14035e-21)
(0.246015 -0.359607 -5.17797e-21)
(0.264591 -0.359367 -3.93476e-21)
(0.283594 -0.358781 2.64114e-22)
(0.302886 -0.357755 -1.82386e-21)
(0.322338 -0.35621 3.30782e-21)
(0.341834 -0.354087 1.25802e-21)
(0.361261 -0.351334 -8.49623e-22)
(0.380518 -0.347912 -2.80016e-22)
(0.39951 -0.343788 9.57194e-22)
(0.418148 -0.338932 -3.18514e-21)
(0.436348 -0.333319 5.40288e-21)
(0.454027 -0.326928 -1.3099e-21)
(0.471105 -0.319739 -8.09047e-23)
(0.487529 -0.311717 4.52279e-21)
(0.503292 -0.302798 5.82493e-22)
(0.518018 -0.293009 -6.50811e-22)
(0.143423 -0.46051 1.10196e-22)
(0.135938 -0.434463 -2.28275e-21)
(0.132256 -0.41427 -2.39794e-21)
(0.131752 -0.399053 -4.11089e-21)
(0.134141 -0.387946 9.85059e-23)
(0.139211 -0.380166 -3.36043e-21)
(0.146715 -0.375043 4.01352e-21)
(0.156399 -0.372 -3.26479e-22)
(0.168017 -0.370542 3.69769e-21)
(0.18133 -0.370244 -2.9524e-21)
(0.196111 -0.370742 -1.62832e-21)
(0.212141 -0.37173 8.97039e-22)
(0.229218 -0.37295 4.97584e-22)
(0.24715 -0.374184 -5.2704e-21)
(0.26576 -0.375254 3.17792e-21)
(0.284882 -0.376011 -1.64789e-21)
(0.304363 -0.376335 4.57782e-21)
(0.324064 -0.376127 -1.52299e-21)
(0.343855 -0.37531 1.65175e-21)
(0.363617 -0.373821 3.70538e-22)
(0.383241 -0.37161 2.70555e-21)
(0.402627 -0.368635 -5.67886e-22)
(0.42168 -0.364864 4.3766e-21)
(0.440314 -0.360266 -4.81383e-21)
(0.458452 -0.354813 -1.56367e-21)
(0.476003 -0.348484 1.29928e-21)
(0.492902 -0.341253 -1.14074e-22)
(0.509093 -0.333084 -2.2174e-21)
(0.524575 -0.323909 1.82881e-21)
(0.538941 -0.31377 -2.29127e-21)
(0.155565 -0.456993 6.88736e-21)
(0.147874 -0.432201 2.13298e-21)
(0.144315 -0.413361 2.65056e-21)
(0.144181 -0.399568 3.97388e-21)
(0.147125 -0.389926 6.15141e-21)
(0.152886 -0.383626 -1.31007e-22)
(0.161176 -0.379977 8.87133e-22)
(0.171706 -0.378385 7.92917e-21)
(0.184199 -0.378341 -1.59705e-21)
(0.198394 -0.379408 -3.04944e-21)
(0.21404 -0.381215 5.65181e-21)
(0.230904 -0.383446 1.02915e-21)
(0.248769 -0.385838 1.05301e-22)
(0.267434 -0.388168 1.40992e-21)
(0.286711 -0.390254 2.65499e-21)
(0.306431 -0.391945 -5.5275e-21)
(0.326437 -0.393118 4.75482e-21)
(0.346586 -0.393674 8.62469e-22)
(0.366747 -0.393533 4.69342e-21)
(0.386803 -0.392633 -2.47954e-21)
(0.406646 -0.390923 4.22354e-21)
(0.426175 -0.388363 -4.40142e-21)
(0.445302 -0.384919 4.30938e-21)
(0.463941 -0.380561 5.55353e-22)
(0.482015 -0.375259 -2.80351e-21)
(0.499446 -0.368989 -8.87966e-22)
(0.516155 -0.361723 5.37143e-21)
(0.532108 -0.35342 3.88442e-21)
(0.5473 -0.344005 1.05055e-21)
(0.561295 -0.333542 -7.97182e-22)
(0.167642 -0.453209 7.83272e-22)
(0.159842 -0.429748 2.01753e-21)
(0.15651 -0.412305 8.44329e-21)
(0.156852 -0.399955 -1.40502e-20)
(0.160457 -0.391775 -1.51687e-21)
(0.167015 -0.386935 -1.58302e-21)
(0.176194 -0.384725 7.5614e-22)
(0.187667 -0.384538 1.20123e-21)
(0.201129 -0.385853 1.93925e-21)
(0.216291 -0.388224 -5.17157e-21)
(0.232883 -0.391273 -1.11153e-21)
(0.250655 -0.394678 3.16647e-21)
(0.269376 -0.398172 3.52345e-21)
(0.288833 -0.401527 -3.42668e-21)
(0.308831 -0.40456 -3.45598e-21)
(0.329195 -0.407118 5.71382e-21)
(0.349764 -0.409076 3.84257e-21)
(0.370393 -0.410336 -8.8711e-22)
(0.390951 -0.410819 -2.411e-21)
(0.411322 -0.41046 5.21885e-22)
(0.431397 -0.409212 -5.66932e-21)
(0.451083 -0.407032 6.95312e-21)
(0.470289 -0.403889 -4.70065e-21)
(0.488937 -0.399752 -1.73094e-22)
(0.506949 -0.394591 3.16751e-21)
(0.524255 -0.388379 -9.28897e-22)
(0.540769 -0.381087 -2.78162e-21)
(0.556476 -0.372664 3.45475e-21)
(0.571374 -0.363029 -5.29482e-23)
(0.584979 -0.352271 7.18845e-22)
(0.179649 -0.449159 -4.54581e-22)
(0.171846 -0.427106 -1.94267e-21)
(0.168849 -0.411102 -9.87715e-21)
(0.169775 -0.400209 3.58546e-21)
(0.174149 -0.393487 -1.2052e-21)
(0.181608 -0.390082 4.09855e-21)
(0.191774 -0.389273 3.49487e-22)
(0.204285 -0.390441 -5.12389e-21)
(0.218804 -0.393056 8.10826e-21)
(0.235016 -0.396666 -7.43503e-21)
(0.252629 -0.400886 -3.54624e-22)
(0.271376 -0.405392 1.97333e-21)
(0.291012 -0.409912 -3.33506e-21)
(0.311314 -0.414219 4.04297e-21)
(0.332079 -0.418125 -7.65046e-21)
(0.353125 -0.421479 -1.76261e-21)
(0.374289 -0.424157 4.82665e-21)
(0.395423 -0.426059 8.20062e-23)
(0.416398 -0.427108 -3.02233e-21)
(0.437097 -0.427242 8.44275e-21)
(0.457416 -0.426412 -4.58826e-21)
(0.477262 -0.42458 -6.05378e-21)
(0.496551 -0.421711 1.98185e-21)
(0.515207 -0.417777 -5.84063e-21)
(0.533156 -0.412749 -1.37939e-21)
(0.550327 -0.406595 -1.36234e-22)
(0.566646 -0.399286 -3.74715e-21)
(0.582093 -0.390762 4.50539e-21)
(0.596687 -0.380931 -2.44815e-21)
(0.609887 -0.369907 3.15017e-21)
(0.191585 -0.444849 -2.61203e-21)
(0.18389 -0.424276 -8.24167e-21)
(0.18134 -0.409749 4.41973e-21)
(0.18296 -0.400328 -4.48149e-21)
(0.18821 -0.395052 -3.39674e-21)
(0.196672 -0.393056 -2.11862e-21)
(0.207923 -0.393605 -7.99252e-21)
(0.221563 -0.396074 5.5834e-21)
(0.237222 -0.399926 -1.43309e-20)
(0.254559 -0.404705 -5.51556e-21)
(0.273262 -0.410022 1.90796e-21)
(0.293046 -0.415551 3.38342e-21)
(0.31365 -0.421019 -4.17203e-23)
(0.334842 -0.426198 -6.72213e-21)
(0.356412 -0.430902 1.62144e-21)
(0.378171 -0.434979 -6.44279e-21)
(0.399954 -0.438306 -4.6413e-21)
(0.421613 -0.440787 -2.81479e-21)
(0.443017 -0.442344 -5.11457e-22)
(0.464052 -0.44292 4.93871e-21)
(0.484618 -0.442466 6.98595e-21)
(0.504624 -0.440945 -2.10312e-21)
(0.523992 -0.438325 -2.0969e-21)
(0.542649 -0.434577 3.98606e-21)
(0.560527 -0.429673 2.13499e-21)
(0.577556 -0.423581 -1.74848e-21)
(0.59367 -0.416265 -1.94853e-21)
(0.608844 -0.407662 2.54502e-22)
(0.623122 -0.397663 1.93588e-21)
(0.635912 -0.38641 2.90446e-21)
(0.203446 -0.440278 -6.32151e-22)
(0.195977 -0.421256 1.09203e-20)
(0.19399 -0.408245 9.14269e-21)
(0.196418 -0.400303 7.43036e-21)
(0.20265 -0.396461 -4.96882e-21)
(0.212216 -0.395841 -1.00956e-21)
(0.224646 -0.397702 8.42039e-22)
(0.2395 -0.401414 7.3195e-21)
(0.256378 -0.406436 2.82906e-21)
(0.274912 -0.41231 7.05454e-21)
(0.294767 -0.418646 -1.0253e-20)
(0.31564 -0.425118 9.88994e-22)
(0.337259 -0.431452 4.33241e-21)
(0.35938 -0.437422 2.81152e-21)
(0.381785 -0.442843 5.89919e-21)
(0.404281 -0.447566 -4.06468e-21)
(0.4267 -0.451471 -3.77367e-21)
(0.448894 -0.454464 6.94064e-22)
(0.470732 -0.456471 8.31697e-21)
(0.492105 -0.457435 -1.33458e-20)
(0.512914 -0.457312 4.67641e-21)
(0.533075 -0.456067 -5.1474e-24)
(0.552513 -0.45367 8.84382e-21)
(0.571161 -0.450093 -3.80266e-21)
(0.588957 -0.445305 -2.49947e-22)
(0.605835 -0.439276 -2.44631e-21)
(0.621725 -0.431969 2.33161e-21)
(0.636625 -0.423308 5.58601e-22)
(0.650571 -0.413176 -2.54153e-21)
(0.66295 -0.401737 9.28249e-21)
(0.215229 -0.435451 -1.05853e-20)
(0.208112 -0.418046 -6.80268e-21)
(0.206809 -0.406583 -1.8462e-20)
(0.210158 -0.400125 -9.06129e-21)
(0.21748 -0.3977 8.66143e-21)
(0.228248 -0.39842 -5.42796e-21)
(0.241947 -0.401544 -1.55853e-21)
(0.258099 -0.406437 -3.87644e-21)
(0.276269 -0.412558 6.7999e-21)
(0.296063 -0.41945 -1.70182e-21)
(0.317125 -0.426723 -2.66637e-21)
(0.339136 -0.434053 -3.1057e-22)
(0.361808 -0.441168 -1.12625e-20)
(0.384889 -0.447845 -5.44932e-22)
(0.408152 -0.453902 3.01264e-21)
(0.431401 -0.459192 -4.39741e-22)
(0.454466 -0.463601 -1.23603e-20)
(0.477197 -0.467037 1.21313e-20)
(0.499468 -0.469431 -1.20442e-20)
(0.521172 -0.470731 4.75569e-21)
(0.542214 -0.470895 6.9393e-22)
(0.562517 -0.469891 2.27328e-22)
(0.582012 -0.467691 -5.07729e-21)
(0.600638 -0.464268 1.74516e-21)
(0.618338 -0.459593 -3.549e-23)
(0.635051 -0.453632 5.7363e-22)
(0.650715 -0.446347 -1.24346e-20)
(0.665325 -0.437656 3.45984e-21)
(0.678942 -0.427424 3.58564e-21)
(0.690897 -0.415846 4.37732e-21)
(0.22693 -0.430367 2.12094e-20)
(0.220298 -0.414643 8.36371e-21)
(0.219803 -0.404756 5.15025e-21)
(0.224189 -0.399784 8.28871e-21)
(0.232708 -0.398753 -1.08334e-21)
(0.244776 -0.400775 6.95651e-21)
(0.259831 -0.405106 1.60193e-20)
(0.277357 -0.411114 -1.95225e-21)
(0.296886 -0.418261 1.1167e-21)
(0.317999 -0.426091 2.10223e-20)
(0.340318 -0.434217 -2.75768e-21)
(0.363506 -0.442318 3.19057e-21)
(0.387263 -0.450127 -1.22384e-21)
(0.411326 -0.457424 -2.07549e-22)
(0.435463 -0.464031 1.70409e-20)
(0.459474 -0.469809 6.51246e-22)
(0.483186 -0.474644 1.86971e-20)
(0.506451 -0.478453 -2.26565e-21)
(0.529146 -0.481172 -4.14888e-21)
(0.551166 -0.482752 9.76363e-21)
(0.572426 -0.483157 -8.83782e-21)
(0.592852 -0.482359 9.80754e-21)
(0.612384 -0.480332 5.30165e-21)
(0.630968 -0.477051 -4.2021e-21)
(0.648554 -0.472486 6.58741e-21)
(0.665088 -0.466604 8.28481e-22)
(0.680511 -0.459362 -2.68461e-21)
(0.694827 -0.45067 1.60083e-21)
(0.708105 -0.440376 9.60331e-21)
(0.719635 -0.428706 1.54998e-21)
(0.238547 -0.42503 -3.64765e-21)
(0.232539 -0.411044 -8.36489e-21)
(0.23298 -0.402756 3.80072e-21)
(0.238521 -0.399265 -1.51857e-20)
(0.248341 -0.399603 7.68399e-21)
(0.261804 -0.402882 -1.45164e-20)
(0.278299 -0.408363 -1.00873e-20)
(0.297272 -0.415418 2.88454e-21)
(0.318223 -0.423514 3.17575e-21)
(0.340706 -0.432198 -1.46296e-20)
(0.364324 -0.44109 -6.5752e-21)
(0.388722 -0.449874 3.23668e-21)
(0.413588 -0.458286 -8.74419e-21)
(0.43865 -0.466114 -3.57002e-21)
(0.463669 -0.473187 -2.44112e-21)
(0.488442 -0.479367 -2.44615e-21)
(0.512795 -0.484552 -1.07122e-20)
(0.536583 -0.488662 -6.73898e-21)
(0.559685 -0.49164 1.24384e-21)
(0.582002 -0.493444 2.26246e-21)
(0.603454 -0.494044 2.46279e-21)
(0.623978 -0.493416 -8.38706e-21)
(0.64352 -0.491538 3.20516e-21)
(0.662036 -0.488388 -6.49295e-21)
(0.679485 -0.483936 6.15647e-21)
(0.695819 -0.478146 -8.04046e-21)
(0.710984 -0.470973 2.50096e-21)
(0.724992 -0.462317 -3.95516e-21)
(0.737922 -0.452005 -5.56519e-21)
(0.749023 -0.440297 -5.55305e-22)
(0.250077 -0.419439 -8.00199e-21)
(0.244837 -0.407244 -7.74996e-21)
(0.246347 -0.400573 -8.06514e-21)
(0.25316 -0.398555 -6.5281e-21)
(0.264388 -0.40023 2.00672e-20)
(0.279337 -0.404719 3.0687e-21)
(0.297352 -0.411288 9.3337e-21)
(0.317838 -0.419318 1.48333e-20)
(0.340268 -0.428282 7.45925e-21)
(0.364167 -0.437736 -9.9875e-21)
(0.389119 -0.447305 1.69411e-20)
(0.414753 -0.45668 -1.66311e-20)
(0.440745 -0.465605 1.62418e-20)
(0.466814 -0.473875 2.07325e-21)
(0.492716 -0.481323 4.33959e-21)
(0.518245 -0.487823 1.50782e-21)
(0.543227 -0.493277 1.7973e-20)
(0.567519 -0.497615 -2.67771e-21)
(0.591005 -0.500785 2.51838e-21)
(0.61359 -0.502755 8.26916e-21)
(0.635205 -0.5035 -9.31147e-21)
(0.655792 -0.503005 7.46899e-21)
(0.67531 -0.501253 3.59392e-22)
(0.693725 -0.498223 3.42237e-21)
(0.711006 -0.493887 6.2479e-21)
(0.727113 -0.488208 -1.00861e-21)
(0.741998 -0.481138 6.0744e-21)
(0.755682 -0.472561 8.73969e-21)
(0.768253 -0.462283 -9.52601e-21)
(0.778922 -0.450595 -6.41557e-21)
(0.261515 -0.413596 2.43977e-20)
(0.257197 -0.403237 -2.87993e-21)
(0.259909 -0.398195 6.34575e-21)
(0.268114 -0.397635 1.21899e-20)
(0.280853 -0.400613 -3.67183e-20)
(0.297377 -0.406259 4.21942e-21)
(0.316987 -0.413852 -1.51384e-20)
(0.33905 -0.422782 1.60267e-20)
(0.363008 -0.432532 -1.29599e-20)
(0.388363 -0.442667 7.33929e-21)
(0.414677 -0.452823 -2.68845e-20)
(0.441566 -0.462698 5.94592e-22)
(0.468694 -0.472044 -9.51797e-21)
(0.495771 -0.480664 1.46631e-20)
(0.522551 -0.4884 -1.57139e-20)
(0.548823 -0.495134 -7.32044e-22)
(0.574415 -0.500776 -1.31601e-20)
(0.599187 -0.505264 -1.23754e-21)
(0.623025 -0.508558 1.24494e-21)
(0.645846 -0.510633 2.98398e-21)
(0.667585 -0.511473 -1.72289e-20)
(0.688196 -0.511071 -5.26615e-22)
(0.707649 -0.509416 -9.66421e-21)
(0.725921 -0.506495 -2.16334e-21)
(0.742995 -0.50228 -5.8424e-21)
(0.75884 -0.496734 -6.38219e-21)
(0.773418 -0.489803 -6.62807e-21)
(0.786757 -0.481357 1.11486e-20)
(0.798957 -0.471174 2.99182e-21)
(0.80919 -0.459575 -6.46878e-21)
(0.272859 -0.407502 -1.63336e-20)
(0.269619 -0.399016 6.53732e-21)
(0.273673 -0.395609 -1.19702e-20)
(0.283388 -0.396487 1.77121e-21)
(0.29774 -0.400727 2.13943e-20)
(0.315925 -0.407474 -1.10891e-20)
(0.337201 -0.416022 -1.26321e-20)
(0.360898 -0.425774 -1.07685e-20)
(0.386428 -0.436227 4.09409e-22)
(0.41327 -0.446956 7.27758e-21)
(0.440969 -0.457607 -5.5167e-21)
(0.469125 -0.467889 6.9813e-23)
(0.497391 -0.477564 1.83891e-20)
(0.525473 -0.486443 -9.47365e-21)
(0.553117 -0.494379 2.63202e-21)
(0.580113 -0.50126 -7.96319e-21)
(0.606291 -0.507008 3.12806e-21)
(0.631512 -0.511571 6.60978e-21)
(0.655669 -0.514917 7.91653e-21)
(0.678685 -0.517031 -8.62525e-21)
(0.700505 -0.51791 1.0452e-21)
(0.721093 -0.517555 7.49036e-21)
(0.740433 -0.515967 1.28966e-20)
(0.758514 -0.513138 3.5589e-21)
(0.775334 -0.509046 -1.34999e-20)
(0.790876 -0.503655 1.56136e-20)
(0.805112 -0.496905 -7.84512e-21)
(0.81808 -0.48865 -9.32904e-21)
(0.829893 -0.478635 -5.61662e-21)
(0.839688 -0.467203 -8.64911e-21)
(0.284105 -0.401156 9.1061e-21)
(0.282106 -0.394574 -7.75605e-21)
(0.287641 -0.392801 2.88086e-21)
(0.298987 -0.39509 1.72924e-20)
(0.315051 -0.400547 4.99248e-21)
(0.33498 -0.408335 -4.39914e-21)
(0.357986 -0.417766 1.08892e-20)
(0.383368 -0.428261 2.3779e-21)
(0.410508 -0.439331 1.13277e-20)
(0.438864 -0.450564 6.38842e-21)
(0.467962 -0.46162 3.47804e-22)
(0.497389 -0.472217 4.29113e-21)
(0.526791 -0.48213 -1.36024e-21)
(0.555865 -0.491178 2.44283e-21)
(0.584356 -0.499224 7.21967e-21)
(0.612053 -0.506168 -3.95985e-21)
(0.638787 -0.511941 1.0143e-20)
(0.664423 -0.516499 1.03772e-20)
(0.68886 -0.519823 -1.18273e-20)
(0.712028 -0.521909 1.23734e-20)
(0.733882 -0.522765 2.64061e-20)
(0.754397 -0.522406 -1.71322e-20)
(0.773569 -0.520843 1.73944e-20)
(0.791404 -0.518081 -1.20532e-20)
(0.807915 -0.514107 -1.75602e-21)
(0.823103 -0.508889 1.31036e-20)
(0.836952 -0.502363 -2.67413e-21)
(0.849518 -0.494367 9.69553e-21)
(0.860924 -0.484602 9.64629e-21)
(0.870277 -0.47343 -2.08271e-20)
(0.29525 -0.394559 -8.91133e-21)
(0.29466 -0.389903 4.3179e-21)
(0.301819 -0.389754 1.94698e-21)
(0.314913 -0.393422 -2.07023e-20)
(0.332787 -0.400044 -1.13302e-20)
(0.354536 -0.408809 8.9046e-21)
(0.379334 -0.419049 -2.5766e-20)
(0.406445 -0.430206 3.23261e-20)
(0.435226 -0.441806 -1.85872e-20)
(0.465114 -0.453455 2.23624e-21)
(0.495619 -0.464825 -3.47624e-21)
(0.526316 -0.475647 -1.17402e-20)
(0.556843 -0.485707 2.49847e-20)
(0.586892 -0.494836 9.81982e-21)
(0.616207 -0.502908 -1.00206e-20)
(0.644577 -0.509831 3.87464e-22)
(0.671833 -0.515547 6.04742e-21)
(0.697848 -0.520023 -1.29039e-20)
(0.722525 -0.52325 2.88203e-21)
(0.745801 -0.525235 9.32864e-21)
(0.767641 -0.526001 -3.67142e-21)
(0.788031 -0.525575 6.40159e-21)
(0.806979 -0.523985 -1.25337e-20)
(0.824507 -0.521251 1.84774e-20)
(0.840647 -0.517375 4.33363e-21)
(0.855418 -0.512334 -1.16386e-20)
(0.868826 -0.506071 -9.95108e-21)
(0.880945 -0.498402 2.53819e-22)
(0.89192 -0.488984 1.38593e-20)
(0.900826 -0.478178 -3.67097e-21)
(0.30629 -0.387711 -2.49937e-21)
(0.307283 -0.384995 -1.98504e-20)
(0.31621 -0.386451 2.41732e-20)
(0.331169 -0.391457 1.72174e-20)
(0.350945 -0.399189 1.81465e-20)
(0.374587 -0.408863 5.55095e-21)
(0.40123 -0.419835 8.26505e-21)
(0.430109 -0.431571 4.49689e-21)
(0.460555 -0.443616 -1.78546e-20)
(0.491987 -0.455591 3.36009e-20)
(0.523899 -0.467186 -2.8413e-20)
(0.555858 -0.478145 -1.95604e-21)
(0.587494 -0.488265 4.3949e-21)
(0.618496 -0.497391 -2.00396e-20)
(0.648606 -0.505405 1.78036e-20)
(0.677616 -0.512228 -5.21091e-21)
(0.705361 -0.517809 -1.41159e-20)
(0.731716 -0.522127 5.63504e-21)
(0.756592 -0.525182 -1.07007e-20)
(0.779935 -0.526993 -9.48566e-21)
(0.801715 -0.527595 -1.03267e-20)
(0.821931 -0.527029 2.32281e-21)
(0.840601 -0.525343 1.45295e-21)
(0.857763 -0.522576 -2.55962e-20)
(0.873465 -0.518751 -9.66831e-21)
(0.88775 -0.513868 6.36525e-21)
(0.900647 -0.507883 7.74586e-21)
(0.912261 -0.500605 -1.05671e-20)
(0.922769 -0.491637 -3.9368e-21)
(0.93122 -0.481319 7.0491e-22)
(0.317224 -0.38061 -1.90314e-21)
(0.319978 -0.379837 1.28371e-20)
(0.330817 -0.382872 -3.67763e-21)
(0.347754 -0.389168 -4.60426e-21)
(0.36952 -0.397949 -2.86238e-20)
(0.395121 -0.40846 -6.6869e-21)
(0.423657 -0.420087 1.3061e-20)
(0.454335 -0.432318 -8.87844e-21)
(0.486463 -0.444721 -9.95854e-22)
(0.519443 -0.456937 -1.74736e-21)
(0.552757 -0.468669 1.07864e-20)
(0.585963 -0.479679 -1.75262e-20)
(0.618686 -0.489777 -1.21197e-20)
(0.650612 -0.498819 1.45442e-20)
(0.681485 -0.506699 -8.50801e-21)
(0.711099 -0.513347 -1.03775e-20)
(0.739294 -0.518722 2.25994e-20)
(0.765952 -0.522811 -3.4621e-21)
(0.790991 -0.525622 1.3768e-20)
(0.814362 -0.527186 -1.27981e-20)
(0.836045 -0.527547 -1.04635e-20)
(0.856048 -0.526762 8.99718e-21)
(0.874397 -0.524893 -1.03426e-21)
(0.891143 -0.522004 -6.89737e-21)
(0.906349 -0.518146 5.97834e-21)
(0.920079 -0.513354 -1.86643e-20)
(0.932389 -0.507619 1.13866e-20)
(0.943424 -0.500767 -1.67167e-22)
(0.953418 -0.492352 -1.16252e-20)
(0.961409 -0.482659 1.87557e-20)
(0.328056 -0.373257 9.47595e-21)
(0.332755 -0.374418 -2.54079e-20)
(0.345645 -0.378992 -2.33371e-21)
(0.364667 -0.386525 1.32323e-20)
(0.388502 -0.396289 -3.66549e-21)
(0.416121 -0.407564 -1.05676e-20)
(0.446592 -0.419766 5.23143e-21)
(0.479093 -0.432409 6.25265e-21)
(0.512914 -0.445085 6.11259e-22)
(0.54744 -0.457455 8.1533e-21)
(0.582143 -0.469242 2.67272e-20)
(0.616573 -0.480221 -9.5052e-21)
(0.650353 -0.490219 2.67441e-21)
(0.683169 -0.499103 -6.82213e-21)
(0.714768 -0.506778 2.66896e-20)
(0.744947 -0.513184 -4.80453e-21)
(0.773554 -0.518288 1.65446e-20)
(0.800478 -0.522086 -6.41976e-21)
(0.825644 -0.524593 7.10465e-21)
(0.849013 -0.525844 1.07597e-20)
(0.870575 -0.525893 1.8532e-21)
(0.890341 -0.524804 7.33949e-21)
(0.908349 -0.522654 -6.09107e-21)
(0.924655 -0.519527 1.70674e-20)
(0.939331 -0.515503 -6.96223e-21)
(0.952457 -0.510664 2.53709e-20)
(0.964107 -0.505066 -7.32762e-21)
(0.974477 -0.498597 4.90294e-21)
(0.983899 -0.490786 -9.1907e-21)
(0.991456 -0.48185 1.84197e-20)
(0.338818 -0.365659 -2.06374e-20)
(0.345634 -0.36872 7.0033e-22)
(0.360698 -0.374782 -1.43675e-20)
(0.381899 -0.383493 2.74221e-21)
(0.407878 -0.394173 7.78191e-22)
(0.437568 -0.406137 -1.43958e-20)
(0.470007 -0.418834 -2.78476e-20)
(0.50435 -0.431807 1.43915e-20)
(0.539867 -0.444672 -2.08644e-20)
(0.575929 -0.457114 -1.14826e-20)
(0.612 -0.468874 -6.77822e-21)
(0.647626 -0.479745 -5.83985e-21)
(0.682428 -0.489569 2.98812e-22)
(0.716094 -0.498227 -2.09395e-20)
(0.748375 -0.505635 1.44859e-20)
(0.779076 -0.511741 -2.35805e-20)
(0.808053 -0.516523 -6.0051e-21)
(0.835203 -0.51998 6.83356e-21)
(0.860466 -0.522135 8.66479e-21)
(0.88381 -0.523025 8.78314e-21)
(0.905237 -0.522705 6.67988e-21)
(0.924767 -0.521243 -1.67797e-20)
(0.942445 -0.518719 1.71574e-20)
(0.958329 -0.51522 -1.79311e-21)
(0.972493 -0.510847 -4.6223e-21)
(0.985009 -0.505715 -1.79909e-20)
(0.995947 -0.499954 -9.34971e-21)
(1.00552 -0.49354 1.71574e-20)
(1.01419 -0.486029 -5.61642e-21)
(1.02128 -0.47772 -5.79277e-21)
(0.34957 -0.357784 8.76843e-21)
(0.358634 -0.362692 6.22017e-22)
(0.375968 -0.370197 -2.85968e-21)
(0.399432 -0.380033 -7.58232e-22)
(0.427622 -0.391564 -5.79225e-21)
(0.459432 -0.404143 1.94356e-20)
(0.493869 -0.417255 -9.50589e-21)
(0.530066 -0.430475 6.21718e-21)
(0.567275 -0.443447 2.63372e-21)
(0.604857 -0.455879 1.02932e-20)