/*--------------------------------*- C++ -*----------------------------------*\
| =========                 |                                                 |
| \\      /  F ield         | OpenFOAM: The Open Source CFD Toolbox           |
|  \\    /   O peration     | Version:  v1912                                 |
|   \\  /    A nd           | Website:  www.openfoam.com                      |
|    \\/     M anipulation  |                                                 |
\*---------------------------------------------------------------------------*/
FoamFile
{
    version     2.0;
    format      ascii;
    class       volScalarField;
    location    "19";
    object      p;
}
// * * * * * * * * * * * * * * * * * * * * * * * * * * * * * * * * * * * * * //

dimensions      [0 2 -2 0 0 0 0];


internalField   nonuniform List<scalar> 
19200
(
-168.541
-151.349
-142.31
-132.573
-123.744
-115.639
-108.128
-101.169
-94.7265
-88.7629
-83.2437
-78.1358
-73.4071
-69.0273
-64.9677
-61.2015
-57.704
-54.4522
-51.4255
-48.6049
-45.9733
-43.515
-41.2159
-39.0633
-37.0456
-35.1527
-33.3752
-31.7045
-30.1326
-28.6596
-169.317
-152.151
-143.091
-133.319
-124.454
-116.313
-108.766
-101.774
-95.3001
-89.3088
-83.7647
-78.6344
-73.8856
-69.4877
-65.4117
-61.6305
-58.1191
-54.8547
-51.8162
-48.9847
-46.3428
-43.8749
-41.5668
-39.4057
-37.38
-35.4795
-33.6948
-32.017
-30.4379
-28.9602
-170.106
-152.943
-143.861
-134.057
-125.156
-116.978
-109.396
-102.37
-95.8668
-89.8483
-84.2796
-79.1273
-74.3588
-69.943
-65.8507
-62.0547
-58.5298
-55.2528
-52.2027
-49.3603
-46.7082
-44.2308
-41.9137
-39.7442
-37.7104
-35.8023
-34.0103
-32.3253
-30.7389
-29.2564
-170.904
-153.731
-144.623
-134.787
-125.849
-117.635
-110.018
-102.96
-96.4264
-90.3809
-84.7882
-79.6141
-74.8261
-70.3927
-66.2844
-62.4738
-58.9354
-55.6461
-52.5844
-49.7313
-47.0692
-44.5823
-42.2563
-40.0783
-38.0366
-36.1207
-34.3215
-32.6292
-31.0353
-29.5481
-171.702
-154.513
-145.378
-135.509
-126.535
-118.284
-110.632
-103.542
-96.9787
-90.9066
-85.29
-80.0946
-75.2874
-70.8366
-66.7126
-62.8876
-59.336
-56.0343
-52.9613
-50.0975
-47.4254
-44.9291
-42.5943
-40.4079
-38.3581
-36.4346
-34.628
-32.9283
-31.327
-29.8349
-172.498
-155.289
-146.126
-136.223
-127.212
-118.925
-111.238
-104.115
-97.5233
-91.425
-85.7849
-80.5684
-75.7422
-71.2744
-67.1349
-63.2957
-59.731
-56.4173
-53.333
-50.4587
-47.7767
-45.2711
-42.9275
-40.7327
-38.675
-36.7438
-34.9298
-33.2226
-31.6137
-30.1169
-173.288
-156.059
-146.866
-136.929
-127.88
-119.557
-111.835
-104.681
-98.0599
-91.9357
-86.2724
-81.0352
-76.1904
-71.7058
-67.551
-63.6978
-60.1203
-56.7947
-53.6993
-50.8146
-48.1229
-45.6081
-43.2557
-41.0526
-38.987
-37.0482
-35.2268
-33.5122
-31.8957
-30.3942
-174.072
-156.822
-147.598
-137.625
-128.54
-120.18
-112.424
-105.238
-98.5883
-92.4385
-86.7523
-81.4947
-76.6316
-72.1304
-67.9606
-64.0937
-60.5036
-57.1662
-54.0599
-51.165
-48.4637
-45.9398
-43.5788
-41.3675
-39.294
-37.3477
-35.519
-33.7969
-32.1729
-30.6669
-174.847
-157.576
-148.322
-138.313
-129.19
-120.793
-113.003
-105.786
-99.108
-92.9329
-87.2243
-81.9466
-77.0654
-72.548
-68.3635
-64.4831
-60.8806
-57.5317
-54.4147
-51.5097
-48.7989
-46.2661
-43.8967
-41.6773
-39.5961
-37.6424
-35.8064
-34.077
-32.4455
-30.9352
-175.613
-158.32
-149.035
-138.99
-129.83
-121.397
-113.573
-106.324
-99.6187
-93.4187
-87.6879
-82.3904
-77.4916
-72.9583
-68.7593
-64.8657
-61.251
-57.8909
-54.7633
-51.8486
-49.1285
-46.587
-44.2092
-41.982
-39.8932
-37.9322
-36.0891
-34.3525
-32.7137
-31.1994
-176.369
-159.054
-149.738
-139.657
-130.46
-121.991
-114.133
-106.853
-100.12
-93.8955
-88.1428
-82.826
-77.9098
-73.3609
-69.1477
-65.2412
-61.6146
-58.2435
-55.1057
-52.1813
-49.4522
-46.9021
-44.5163
-42.2814
-40.1852
-38.2171
-36.3672
-34.6234
-32.9774
-31.4594
-177.115
-159.778
-150.431
-140.314
-131.079
-122.574
-114.682
-107.372
-100.612
-94.3629
-88.5888
-83.2528
-78.3196
-73.7554
-69.5285
-65.6093
-61.9711
-58.5892
-55.4415
-52.5077
-49.7698
-47.2115
-44.8178
-42.5754
-40.4721
-38.4972
-36.6406
-34.8899
-33.237
-31.7154
-177.849
-160.49
-151.112
-140.958
-131.687
-123.146
-115.221
-107.881
-101.093
-94.8206
-89.0254
-83.6707
-78.7208
-74.1417
-69.9012
-65.9697
-62.3202
-58.9279
-55.7704
-52.8276
-50.0812
-47.5149
-45.1137
-42.8641
-40.7539
-38.7724
-36.9094
-35.1521
-33.4924
-31.9675
-178.571
-161.191
-151.781
-141.591
-132.283
-123.706
-115.748
-108.378
-101.564
-95.2682
-89.4522
-84.0792
-79.113
-74.5192
-70.2655
-66.3221
-62.6616
-59.2591
-56.0922
-53.1407
-50.3861
-47.8121
-45.4036
-43.1472
-41.0305
-39.0428
-37.1736
-35.41
-33.7438
-32.2161
-179.281
-161.879
-152.439
-142.212
-132.867
-124.255
-116.264
-108.865
-102.024
-95.7052
-89.8689
-84.4779
-79.4957
-74.8877
-70.6211
-66.666
-62.9948
-59.5825
-56.4066
-53.4467
-50.6843
-48.1029
-45.6876
-43.4247
-41.3019
-39.3083
-37.4334
-35.6639
-33.9916
-32.4613
-179.978
-162.555
-153.083
-142.82
-133.439
-124.791
-116.768
-109.34
-102.473
-96.1314
-90.2751
-84.8664
-79.8687
-75.2466
-70.9675
-67.0011
-63.3195
-59.8978
-56.7132
-53.7451
-50.9753
-48.387
-45.9652
-43.6963
-41.5678
-39.5688
-37.6887
-35.9137
-34.2358
-32.7035
-180.662
-163.217
-153.715
-143.415
-133.998
-125.315
-117.26
-109.802
-102.911
-96.5464
-90.6703
-85.2444
-80.2313
-75.5957
-71.3044
-67.3269
-63.6353
-60.2044
-57.0114
-54.0357
-51.2588
-48.664
-46.2362
-43.9616
-41.828
-39.8242
-37.9395
-36.1596
-34.4767
-32.9429
-181.333
-163.866
-154.333
-143.997
-134.544
-125.826
-117.739
-110.253
-103.336
-96.9496
-91.0543
-85.6114
-80.5833
-75.9343
-71.6311
-67.6428
-63.9416
-60.5019
-57.3008
-54.3178
-51.5342
-48.9333
-46.5
-44.2204
-42.0821
-40.0741
-38.1854
-36.4013
-34.7141
-33.1794
-181.991
-164.502
-154.938
-144.566
-135.076
-126.324
-118.205
-110.691
-103.749
-97.3409
-91.4265
-85.9669
-80.9241
-76.2621
-71.9472
-67.9485
-64.2377
-60.7895
-57.5807
-54.5907
-51.8009
-49.1943
-46.756
-44.4719
-42.3296
-40.318
-38.4261
-36.6387
-34.9479
-33.413
-182.635
-165.124
-155.529
-145.12
-135.594
-126.808
-118.657
-111.116
-104.149
-97.7198
-91.7867
-86.3106
-81.2534
-76.5785
-72.2521
-68.2432
-64.5232
-61.0667
-57.8505
-54.8538
-52.058
-49.4463
-47.0033
-44.7154
-42.5697
-40.5553
-38.661
-36.8711
-35.1778
-33.6435
-183.267
-165.733
-156.106
-145.661
-136.099
-127.278
-119.097
-111.527
-104.537
-98.0859
-92.1343
-86.6421
-81.5706
-76.883
-72.5454
-68.5263
-64.7973
-61.3327
-58.1092
-55.1061
-52.3047
-49.6881
-47.2411
-44.9497
-42.8015
-40.7851
-38.8893
-37.098
-35.4032
-33.8705
-183.886
-166.329
-156.67
-146.187
-136.59
-127.735
-119.522
-111.925
-104.911
-98.4389
-92.4691
-86.9609
-81.8753
-77.1752
-72.8264
-68.7973
-65.0593
-61.5866
-58.356
-55.3466
-52.5398
-49.9186
-47.4679
-45.1737
-43.0235
-41.0059
-39.1097
-37.3184
-35.6234
-34.0937
-184.494
-166.911
-157.221
-146.7
-137.066
-128.177
-119.933
-112.309
-105.271
-98.7786
-92.7908
-87.2668
-82.1672
-77.4547
-73.0947
-69.0555
-65.3085
-61.8277
-58.5898
-55.5741
-52.7619
-50.1363
-47.6821
-45.3855
-43.2338
-41.216
-39.3205
-37.5306
-35.8371
-34.3121
-185.091
-167.48
-157.757
-147.198
-137.527
-128.604
-120.33
-112.679
-105.618
-99.1048
-93.0991
-87.5595
-82.446
-77.721
-73.3498
-69.3004
-65.5442
-62.055
-58.8097
-55.7875
-52.9696
-50.3393
-47.8816
-45.5826
-43.4299
-41.4123
-39.5186
-37.7314
-36.0413
-34.5232
-185.677
-168.035
-158.279
-147.681
-137.974
-129.017
-120.713
-113.035
-105.95
-99.4173
-93.3941
-87.8389
-82.7115
-77.974
-73.5914
-69.5317
-65.7659
-62.268
-59.0148
-55.9855
-53.1615
-50.526
-48.0642
-45.7625
-43.6084
-41.5911
-39.6993
-37.9157
-36.2307
-34.7219
-186.254
-168.576
-158.788
-148.15
-138.406
-129.415
-121.081
-113.377
-106.269
-99.7161
-93.6754
-88.1048
-82.9637
-78.2136
-73.8195
-69.7491
-65.9733
-62.4661
-59.2044
-56.1672
-53.3362
-50.6948
-48.2281
-45.9229
-43.7669
-41.7494
-39.8594
-38.0798
-36.4011
-34.9013
-186.831
-169.106
-159.283
-148.605
-138.821
-129.796
-121.432
-113.703
-106.573
-100
-93.9429
-88.3572
-83.2023
-78.4397
-74.0339
-69.9524
-66.1661
-62.6489
-59.3776
-56.3315
-53.4922
-50.8434
-48.3706
-46.0608
-43.9023
-41.8851
-39.9987
-38.226
-36.5567
-35.0666
-187.43
-169.628
-159.761
-149.042
-139.219
-130.16
-121.767
-114.013
-106.861
-100.271
-94.1965
-88.596
-83.4277
-78.6525
-74.2348
-70.1419
-66.3445
-62.8165
-59.5345
-56.4778
-53.6281
-50.9693
-48.4873
-46.1696
-44.0059
-41.9876
-40.106
-38.3445
-36.6931
-35.2343
-188.055
-170.14
-160.216
-149.461
-139.601
-130.509
-122.088
-114.309
-107.137
-100.528
-94.4379
-88.8229
-83.6412
-78.8536
-74.4238
-70.3192
-66.5102
-62.9705
-59.6765
-56.6074
-53.7447
-51.0721
-48.5755
-46.2426
-44.0637
-42.032
-40.1399
-38.3744
-36.7402
-35.3527
-188.618
-170.62
-160.644
-149.859
-139.97
-130.847
-122.398
-114.596
-107.404
-100.777
-94.6709
-89.0415
-83.8464
-79.0461
-74.6042
-70.4875
-66.6665
-63.1144
-59.8076
-56.7248
-53.8472
-51.158
-48.642
-46.2859
-44.0787
-42.0107
-40.07
-38.246
-36.5741
-35.1946
-195.104
-195.086
-195.018
-194.954
-194.894
-194.825
-194.74
-194.639
-194.523
-194.392
-194.246
-194.084
-193.906
-193.713
-193.505
-193.282
-193.044
-192.792
-192.526
-192.246
-191.953
-191.648
-191.33
-191.001
-190.662
-190.315
-189.962
-189.61
-189.269
-188.947
-176.693
-176.729
-176.734
-176.72
-176.691
-176.645
-176.583
-176.502
-176.406
-176.293
-176.164
-176.019
-175.858
-175.682
-175.491
-175.285
-175.064
-174.829
-174.581
-174.319
-174.043
-173.755
-173.454
-173.142
-172.818
-172.484
-172.141
-171.788
-171.424
-171.038
-166.134
-166.193
-166.229
-166.24
-166.231
-166.204
-166.16
-166.099
-166.022
-165.928
-165.819
-165.694
-165.553
-165.398
-165.227
-165.043
-164.843
-164.63
-164.404
-164.164
-163.91
-163.644
-163.366
-163.075
-162.773
-162.458
-162.132
-161.791
-161.435
-161.055
-154.669
-154.741
-154.791
-154.821
-154.832
-154.826
-154.802
-154.762
-154.706
-154.634
-154.546
-154.442
-154.324
-154.191
-154.043
-153.882
-153.706
-153.517
-153.314
-153.099
-152.87
-152.629
-152.375
-152.109
-151.83
-151.538
-151.234
-150.915
-150.581
-150.23
-144.227
-144.304
-144.365
-144.408
-144.433
-144.44
-144.43
-144.404
-144.363
-144.306
-144.234
-144.147
-144.046
-143.931
-143.802
-143.659
-143.503
-143.335
-143.153
-142.959
-142.752
-142.533
-142.302
-142.059
-141.803
-141.535
-141.253
-140.958
-140.648
-140.32
-134.628
-134.711
-134.779
-134.83
-134.863
-134.879
-134.879
-134.864
-134.833
-134.788
-134.729
-134.655
-134.568
-134.467
-134.353
-134.226
-134.087
-133.936
-133.772
-133.596
-133.409
-133.21
-132.999
-132.777
-132.542
-132.296
-132.036
-131.763
-131.475
-131.171
-125.807
-125.89
-125.96
-126.014
-126.051
-126.072
-126.077
-126.068
-126.044
-126.007
-125.956
-125.892
-125.814
-125.724
-125.622
-125.507
-125.381
-125.243
-125.094
-124.934
-124.762
-124.579
-124.386
-124.181
-123.965
-123.738
-123.498
-123.245
-122.979
-122.698
-117.724
-117.805
-117.873
-117.926
-117.964
-117.986
-117.994
-117.987
-117.968
-117.935
-117.889
-117.831
-117.76
-117.677
-117.583
-117.478
-117.361
-117.233
-117.095
-116.947
-116.788
-116.619
-116.439
-116.249
-116.049
-115.838
-115.616
-115.381
-115.134
-114.873
-110.323
-110.399
-110.464
-110.515
-110.55
-110.572
-110.579
-110.574
-110.556
-110.525
-110.482
-110.427
-110.361
-110.283
-110.194
-110.095
-109.985
-109.865
-109.736
-109.596
-109.447
-109.289
-109.121
-108.944
-108.757
-108.56
-108.352
-108.134
-107.904
-107.661
-103.541
-103.612
-103.672
-103.719
-103.752
-103.771
-103.777
-103.771
-103.753
-103.722
-103.681
-103.627
-103.563
-103.489
-103.404
-103.309
-103.204
-103.09
-102.966
-102.834
-102.693
-102.543
-102.385
-102.218
-102.042
-101.857
-101.663
-101.459
-101.244
-101.017
-97.3181
-97.3836
-97.4384
-97.4807
-97.5098
-97.526
-97.5299
-97.522
-97.5025
-97.4716
-97.4297
-97.3772
-97.3142
-97.2413
-97.1586
-97.0665
-96.9653
-96.8554
-96.7369
-96.6102
-96.4754
-96.3327
-96.1823
-96.0241
-95.858
-95.6837
-95.5009
-95.3091
-95.1077
-94.8957
-91.5973
-91.6572
-91.7067
-91.7443
-91.7694
-91.7822
-91.7834
-91.7732
-91.752
-91.72
-91.6774
-91.6248
-91.5622
-91.4902
-91.4089
-91.3188
-91.2202
-91.1133
-90.9986
-90.8763
-90.7467
-90.61
-90.4663
-90.3156
-90.1579
-89.9931
-89.8206
-89.6402
-89.451
-89.2522
-86.3271
-86.3818
-86.4263
-86.4592
-86.4802
-86.4897
-86.4879
-86.4753
-86.4521
-86.4186
-86.3751
-86.3218
-86.2592
-86.1875
-86.1071
-86.0184
-85.9216
-85.8172
-85.7054
-85.5868
-85.4614
-85.3297
-85.1918
-85.0478
-84.8977
-84.7413
-84.5784
-84.4084
-84.2305
-84.044
-81.4618
-81.5116
-81.5513
-81.5799
-81.597
-81.6031
-81.5984
-81.5834
-81.5582
-81.5231
-81.4783
-81.4243
-81.3614
-81.2898
-81.2099
-81.122
-81.0267
-80.9241
-80.8148
-80.6991
-80.5774
-80.45
-80.3172
-80.1792
-80.0359
-79.8874
-79.7334
-79.5732
-79.4061
-79.2312
-76.9612
-77.0062
-77.0415
-77.066
-77.0795
-77.0824
-77.075
-77.0576
-77.0304
-76.9937
-76.9478
-76.8929
-76.8295
-76.7577
-76.6781
-76.5909
-76.4966
-76.3956
-76.2883
-76.1751
-76.0565
-75.9329
-75.8046
-75.672
-75.5351
-75.3939
-75.2482
-75.0975
-74.9408
-74.7772
-72.7897
-72.8301
-72.8614
-72.8821
-72.8922
-72.8921
-72.8821
-72.8625
-72.8335
-72.7953
-72.7481
-72.6924
-72.6285
-72.5565
-72.477
-72.3903
-72.2968
-72.197
-72.0913
-71.9803
-71.8644
-71.7441
-71.6198
-71.4921
-71.361
-71.2268
-71.0891
-70.9476
-70.8011
-70.6486
-68.9159
-68.9523
-68.9797
-68.997
-69.004
-69.0011
-68.9888
-68.9671
-68.9363
-68.8967
-68.8484
-68.7919
-68.7274
-68.6552
-68.5757
-68.4894
-68.3965
-68.2977
-68.1933
-68.084
-67.9704
-67.853
-67.7323
-67.609
-67.4834
-67.3556
-67.2257
-67.0931
-66.9569
-66.8156
-65.3125
-65.3453
-65.3691
-65.3831
-65.3872
-65.3819
-65.3674
-65.3438
-65.3114
-65.2705
-65.2212
-65.1639
-65.0988
-65.0264
-64.9469
-64.8607
-64.7683
-64.6702
-64.567
-64.4591
-64.3474
-64.2324
-64.1149
-63.9955
-63.8748
-63.7532
-63.6308
-63.5071
-63.3811
-63.2512
-61.9553
-61.9847
-62.0053
-62.0163
-62.0179
-62.0102
-61.9937
-61.9684
-61.9345
-61.8924
-61.8422
-61.7841
-61.7185
-61.6458
-61.5662
-61.4801
-61.3881
-61.2906
-61.1881
-61.0814
-60.9712
-60.8582
-60.7432
-60.6273
-60.511
-60.3952
-60.2799
-60.1651
-60.0496
-59.9316
-58.823
-58.8493
-58.8668
-58.8752
-58.8744
-58.8646
-58.8463
-58.8194
-58.7842
-58.741
-58.6898
-58.6311
-58.5651
-58.492
-58.4122
-58.3262
-58.2344
-58.1372
-58.0353
-57.9294
-57.8203
-57.7088
-57.596
-57.4828
-57.3705
-57.2598
-57.1514
-57.0454
-56.9406
-56.8351
-55.8977
-55.92
-55.9348
-55.9408
-55.9378
-55.9261
-55.906
-55.8777
-55.8413
-55.7971
-55.7451
-55.6858
-55.6193
-55.5459
-55.466
-55.3799
-55.2881
-55.1911
-55.0896
-54.9842
-54.8757
-54.7653
-54.6539
-54.5429
-54.4338
-54.3277
-54.2257
-54.1283
-54.0347
-53.9426
-53.1603
-53.1801
-53.1924
-53.1961
-53.1911
-53.1776
-53.156
-53.1264
-53.0889
-53.0437
-52.991
-52.9311
-52.8641
-52.7904
-52.7103
-52.6241
-52.5323
-52.4354
-52.3339
-52.2286
-52.1205
-52.0105
-51.9
-51.7904
-51.6836
-51.5813
-51.4852
-51.3961
-51.3142
-51.2365
-50.5971
-50.6146
-50.6244
-50.626
-50.6191
-50.604
-50.581
-50.5502
-50.5116
-50.4656
-50.4123
-50.3518
-50.2845
-50.2105
-50.1301
-50.0438
-49.9518
-49.8547
-49.7531
-49.6477
-49.5394
-49.4294
-49.319
-49.21
-49.1046
-49.0049
-48.9138
-48.8327
-48.7629
-48.7011
-48.1944
-48.2096
-48.2173
-48.2168
-48.2082
-48.1917
-48.1673
-48.1354
-48.096
-48.0492
-47.9952
-47.9343
-47.8666
-47.7923
-47.7117
-47.6251
-47.533
-47.4356
-47.3337
-47.2279
-47.1191
-47.0084
-46.8974
-46.788
-46.6827
-46.5844
-46.4972
-46.4231
-46.3661
-46.3218
-45.9399
-45.953
-45.9586
-45.9563
-45.9461
-45.9282
-45.9027
-45.8698
-45.8295
-45.7821
-45.7276
-45.6663
-45.5982
-45.5236
-45.4428
-45.356
-45.2636
-45.1659
-45.0635
-44.957
-44.8473
-44.7355
-44.6231
-44.5122
-44.4058
-44.3071
-44.222
-44.1533
-44.1097
-44.0847
-43.8226
-43.8336
-43.8373
-43.8334
-43.8217
-43.8025
-43.7759
-43.7421
-43.7011
-43.653
-43.598
-43.5363
-43.4679
-43.3931
-43.312
-43.225
-43.1322
-43.0341
-42.931
-42.8236
-42.7126
-42.5991
-42.4846
-42.3711
-42.2619
-42.1607
-42.0753
-42.0095
-41.9789
-41.9749
-41.8327
-41.8416
-41.8435
-41.838
-41.8249
-41.8045
-41.7769
-41.7421
-41.7003
-41.6517
-41.5961
-41.5339
-41.4652
-41.39
-41.3086
-41.2211
-41.1279
-41.0291
-40.9251
-40.8165
-40.7038
-40.588
-40.4705
-40.353
-40.2391
-40.1326
-40.0433
-39.9762
-39.9568
-39.9723
-39.9607
-39.968
-39.9685
-39.9617
-39.9476
-39.9262
-39.8978
-39.8624
-39.8201
-39.771
-39.7151
-39.6526
-39.5836
-39.5082
-39.4265
-39.3387
-39.2449
-39.1454
-39.0405
-38.9305
-38.8159
-38.6974
-38.5761
-38.4536
-38.3328
-38.2179
-38.1198
-38.0459
-38.0346
-38.0639
-38.1971
-38.2038
-38.2038
-38.1969
-38.1826
-38.1613
-38.1332
-38.0982
-38.0565
-38.008
-37.953
-37.8914
-37.8233
-37.7489
-37.6682
-37.5814
-37.4885
-37.3898
-37.2854
-37.1756
-37.0606
-36.941
-36.8174
-36.691
-36.5639
-36.4397
-36.3282
-36.2409
-36.233
-36.2852
-36.5366
-36.5402
-36.5382
-36.5293
-36.5134
-36.4907
-36.4616
-36.426
-36.384
-36.3356
-36.2809
-36.2199
-36.1528
-36.0795
-36.0002
-35.915
-35.8239
-35.7271
-35.6246
-35.5165
-35.4031
-35.2846
-35.1611
-35.0334
-34.9022
-34.7702
-34.6413
-34.53
-34.4905
-34.609
-183.936
-184.535
-185.063
-185.615
-186.189
-186.76
-187.319
-187.862
-188.391
-188.903
-189.398
-189.874
-190.33
-190.766
-191.181
-191.575
-191.948
-192.299
-192.627
-192.934
-193.219
-193.483
-193.726
-193.949
-194.153
-194.339
-194.508
-194.666
-194.817
-194.968
-165.294
-165.941
-166.554
-167.159
-167.756
-168.34
-168.906
-169.455
-169.987
-170.501
-170.998
-171.476
-171.934
-172.372
-172.79
-173.188
-173.565
-173.92
-174.254
-174.567
-174.861
-175.134
-175.387
-175.62
-175.833
-176.027
-176.203
-176.36
-176.498
-176.611
-154.729
-155.39
-156.018
-156.63
-157.229
-157.813
-158.376
-158.921
-159.45
-159.961
-160.455
-160.931
-161.388
-161.827
-162.247
-162.648
-163.027
-163.382
-163.712
-164.02
-164.31
-164.582
-164.835
-165.068
-165.283
-165.479
-165.656
-165.813
-165.948
-166.057
-143.255
-143.9
-144.533
-145.138
-145.722
-146.289
-146.842
-147.38
-147.899
-148.4
-148.884
-149.348
-149.793
-150.22
-150.629
-151.026
-151.408
-151.772
-152.115
-152.438
-152.74
-153.021
-153.283
-153.525
-153.747
-153.949
-154.133
-154.296
-154.441
-154.565
-133.113
-133.74
-134.354
-134.946
-135.518
-136.074
-136.614
-137.138
-137.645
-138.135
-138.608
-139.065
-139.505
-139.928
-140.332
-140.714
-141.075
-141.417
-141.744
-142.053
-142.344
-142.616
-142.87
-143.105
-143.322
-143.521
-143.701
-143.863
-144.006
-144.128
-123.911
-124.507
-125.093
-125.662
-126.214
-126.748
-127.268
-127.771
-128.258
-128.729
-129.184
-129.622
-130.044
-130.448
-130.833
-131.2
-131.549
-131.882
-132.2
-132.5
-132.783
-133.049
-133.297
-133.527
-133.739
-133.934
-134.11
-134.269
-134.409
-134.529
-115.54
-116.107
-116.666
-117.211
-117.739
-118.251
-118.748
-119.23
-119.696
-120.147
-120.581
-121
-121.403
-121.789
-122.158
-122.51
-122.847
-123.167
-123.472
-123.759
-124.03
-124.282
-124.52
-124.742
-124.947
-125.134
-125.304
-125.456
-125.592
-125.709
-107.938
-108.478
-109.011
-109.531
-110.035
-110.525
-110.999
-111.459
-111.904
-112.334
-112.749
-113.148
-113.532
-113.9
-114.252
-114.588
-114.909
-115.214
-115.504
-115.777
-116.034
-116.276
-116.5
-116.708
-116.903
-117.082
-117.244
-117.389
-117.518
-117.63
-101.022
-101.537
-102.045
-102.541
-103.022
-103.489
-103.941
-104.38
-104.804
-105.214
-105.609
-105.989
-106.354
-106.704
-107.038
-107.358
-107.662
-107.951
-108.226
-108.484
-108.728
-108.957
-109.17
-109.368
-109.548
-109.715
-109.869
-110.007
-110.128
-110.234
-94.711
-95.2032
-95.6877
-96.1606
-96.6198
-97.0653
-97.4972
-97.9154
-98.3197
-98.7098
-99.0856
-99.447
-99.7939
-100.126
-100.444
-100.747
-101.035
-101.309
-101.569
-101.813
-102.043
-102.259
-102.46
-102.646
-102.817
-102.973
-103.115
-103.245
-103.359
-103.458
-88.9345
-89.4052
-89.8683
-90.3201
-90.7589
-91.1845
-91.597
-91.9962
-92.3817
-92.7535
-93.1114
-93.4553
-93.7851
-94.1008
-94.4023
-94.6897
-94.9631
-95.2223
-95.4675
-95.6987
-95.9158
-96.1188
-96.3079
-96.4828
-96.6438
-96.7907
-96.9235
-97.0419
-97.1486
-97.2412
-83.6308
-84.0819
-84.5253
-84.9579
-85.3779
-85.7852
-86.1797
-86.5612
-86.9294
-87.2842
-87.6254
-87.9529
-88.2667
-88.5669
-88.8533
-89.1261
-89.3852
-89.6307
-89.8626
-90.081
-90.2859
-90.4772
-90.6551
-90.8195
-90.9705
-91.1081
-91.2322
-91.3428
-91.4403
-91.5261
-78.7468
-79.1801
-79.6058
-80.0208
-80.4237
-80.8142
-81.1921
-81.5573
-81.9095
-82.2485
-82.5742
-82.8866
-83.1856
-83.4713
-83.7437
-84.0028
-84.2487
-84.4814
-84.701
-84.9076
-85.101
-85.2815
-85.449
-85.6035
-85.7452
-85.874
-85.9899
-86.0929
-86.1827
-86.2615
-74.2373
-74.6545
-75.0641
-75.4632
-75.8504
-76.2256
-76.5883
-76.9386
-77.2759
-77.6004
-77.9118
-78.2101
-78.4954
-78.7678
-79.0271
-79.2736
-79.5073
-79.7282
-79.9364
-80.1319
-80.3149
-80.4852
-80.6431
-80.7885
-80.9216
-81.0422
-81.1506
-81.2468
-81.3308
-81.4018
-70.0637
-70.4663
-70.8613
-71.2459
-71.619
-71.9801
-72.329
-72.6654
-72.9892
-73.3001
-73.5983
-73.8836
-74.1562
-74.4162
-74.6635
-74.8983
-75.1206
-75.3306
-75.5282
-75.7137
-75.8869
-76.048
-76.1971
-76.3341
-76.4592
-76.5723
-76.6737
-76.7633
-76.841
-76.9067
-66.1928
-66.5822
-66.964
-67.3356
-67.6958
-68.0441
-68.3802
-68.7039
-69.015
-69.3135
-69.5993
-69.8726
-70.1334
-70.3818
-70.618
-70.8419
-71.0538
-71.2536
-71.4416
-71.6176
-71.782
-71.9345
-72.0755
-72.2048
-72.3225
-72.4288
-72.5237
-72.6073
-72.6796
-72.7408
-62.5959
-62.9734
-63.3434
-63.7032
-64.0517
-64.3882
-64.7126
-65.0245
-65.3239
-65.6107
-65.8851
-66.1472
-66.397
-66.6347
-66.8604
-67.0742
-67.2764
-67.4669
-67.6458
-67.8133
-67.9693
-68.114
-68.2475
-68.3697
-68.4808
-68.5807
-68.6697
-68.7477
-68.8148
-68.8711
-59.2482
-59.615
-59.9743
-60.3236
-60.6615
-60.9872
-61.3007
-61.6017
-61.8901
-62.1661
-62.4297
-62.6812
-62.9207
-63.1484
-63.3644
-63.5688
-63.7619
-63.9437
-64.1143
-64.2737
-64.4222
-64.5596
-64.6861
-64.8018
-64.9067
-65.0009
-65.0844
-65.1573
-65.2196
-65.2715
-56.1279
-56.4851
-56.835
-57.1749
-57.5031
-57.819
-58.1223
-58.413
-58.6912
-58.9569
-59.2104
-59.4519
-59.6817
-59.9
-60.1068
-60.3025
-60.4871
-60.6607
-60.8235
-60.9756
-61.1169
-61.2476
-61.3678
-61.4774
-61.5766
-61.6654
-61.7439
-61.8121
-61.8701
-61.9179
-53.2156
-53.5644
-53.906
-54.2376
-54.5572
-54.8639
-55.1577
-55.4387
-55.7071
-55.9631
-56.207
-56.4391
-56.6597
-56.8691
-57.0673
-57.2547
-57.4314
-57.5974
-57.7529
-57.898
-58.0328
-58.1572
-58.2715
-58.3755
-58.4694
-58.5533
-58.6271
-58.691
-58.745
-58.7891
-50.4944
-50.8356
-51.1704
-51.4949
-51.8065
-52.1046
-52.3895
-52.6613
-52.9203
-53.167
-53.4017
-53.6248
-53.8367
-54.0376
-54.2277
-54.4073
-54.5764
-54.7353
-54.884
-55.0226
-55.1512
-55.2699
-55.3786
-55.4774
-55.5664
-55.6456
-55.7152
-55.7751
-55.8254
-55.8663
-47.9485
-48.2835
-48.6129
-48.9314
-49.2358
-49.5258
-49.8021
-50.065
-50.315
-50.5526
-50.7784
-50.9929
-51.1964
-51.3893
-51.5717
-51.7439
-51.9059
-52.0581
-52.2004
-52.3329
-52.4557
-52.5689
-52.6724
-52.7664
-52.8509
-52.9258
-52.9914
-53.0475
-53.0944
-53.1321
-45.5638
-45.8939
-46.2198
-46.5336
-46.8313
-47.1135
-47.3813
-47.6355
-47.8767
-48.1056
-48.3228
-48.529
-48.7244
-48.9096
-49.0846
-49.2498
-49.4052
-49.5509
-49.6872
-49.814
-49.9314
-50.0395
-50.1382
-50.2277
-50.3079
-50.3789
-50.4407
-50.4934
-50.537
-50.5716
-43.3272
-43.654
-43.979
-44.2893
-44.5805
-44.855
-45.1145
-45.36
-45.5924
-45.8127
-46.0215
-46.2196
-46.4074
-46.5852
-46.7532
-46.9117
-47.0608
-47.2005
-47.3311
-47.4526
-47.5649
-47.6682
-47.7625
-47.8477
-47.9239
-47.9912
-48.0496
-48.099
-48.1396
-48.1715
-41.2268
-41.5529
-41.88
-42.1875
-42.4722
-42.7388
-42.99
-43.2268
-43.4504
-43.6621
-43.8628
-44.0531
-44.2334
-44.4042
-44.5655
-44.7176
-44.8607
-44.9949
-45.1201
-45.2365
-45.3441
-45.4429
-45.533
-45.6143
-45.6869
-45.7507
-45.8059
-45.8523
-45.8901
-45.9193
-39.2511
-39.5825
-39.9154
-40.22
-40.4973
-40.7557
-40.9982
-41.226
-41.4407
-41.6439
-41.8366
-42.0192
-42.1924
-42.3564
-42.5113
-42.6574
-42.7948
-42.9236
-43.0438
-43.1554
-43.2585
-43.3531
-43.4393
-43.5169
-43.5861
-43.6467
-43.6988
-43.7424
-43.7775
-43.8043
-37.3793
-37.7318
-38.0781
-38.3782
-38.6463
-38.8958
-39.1291
-39.3475
-39.5533
-39.7481
-39.9329
-40.1082
-40.2745
-40.432
-40.5809
-40.7213
-40.8533
-40.977
-41.0924
-41.1995
-41.2985
-41.3891
-41.4716
-41.5458
-41.6117
-41.6693
-41.7185
-41.7595
-41.7921
-41.8165
-35.5744
-35.9711
-36.3445
-36.64
-36.8977
-37.1379
-37.3619
-37.5712
-37.7685
-37.9555
-38.1333
-38.3021
-38.4624
-38.6143
-38.758
-38.8935
-39.0209
-39.1404
-39.2518
-39.3552
-39.4507
-39.5381
-39.6176
-39.689
-39.7523
-39.8075
-39.8545
-39.8933
-39.9238
-39.9463
-33.8347
-34.2783
-34.6873
-34.9833
-35.2325
-35.4636
-35.6787
-35.8797
-36.0695
-36.25
-36.4219
-36.5854
-36.7409
-36.8883
-37.0279
-37.1596
-37.2835
-37.3997
-37.5082
-37.6089
-37.7019
-37.7871
-37.8645
-37.9342
-37.9959
-38.0496
-38.0953
-38.1329
-38.1623
-38.1837
-32.3832
-32.8574
-33.2447
-33.5361
-33.7761
-33.9907
-34.1903
-34.378
-34.5557
-34.7249
-34.8863
-35.04
-35.1862
-35.3247
-35.4558
-35.5794
-35.6956
-35.8044
-35.9058
-35.9998
-36.0864
-36.1656
-36.2374
-36.3018
-36.3587
-36.4079
-36.4494
-36.4831
-36.5088
-36.5267
-23.2097
-24.5479
-25.9785
-27.4986
-29.1162
-30.8393
-32.6757
-34.6337
-36.7227
-38.9533
-41.3369
-43.8864
-46.6161
-49.5419
-52.682
-56.0568
-59.6898
-63.6086
-67.8454
-72.4385
-77.4344
-82.889
-88.8707
-95.4624
-102.758
-110.862
-119.963
-130.277
-140.118
-158.156
-23.5248
-24.8727
-26.3091
-27.8361
-29.4614
-31.1928
-33.0379
-35.0053
-37.1043
-39.3456
-41.7407
-44.3026
-47.0455
-49.9856
-53.1411
-56.5327
-60.184
-64.1227
-68.3813
-72.9985
-78.0209
-83.5047
-89.5187
-96.1458
-103.48
-111.625
-120.766
-131.119
-140.98
-159.004
-23.8416
-25.1989
-26.641
-28.1749
-29.8081
-31.5478
-33.4017
-35.3786
-37.4878
-39.74
-42.1467
-44.7211
-47.4775
-50.4321
-53.6033
-57.0119
-60.6817
-64.6406
-68.9213
-73.5629
-78.6121
-84.1256
-90.172
-96.8346
-104.207
-112.392
-121.572
-131.956
-141.835
-159.825
-24.1598
-25.5262
-26.9737
-28.5145
-30.1555
-31.9036
-33.7665
-35.7528
-37.8723
-40.1354
-42.5539
-45.1409
-47.9109
-50.8802
-54.0672
-57.4928
-61.1813
-65.1606
-69.4636
-74.1297
-79.2058
-84.7489
-90.8279
-97.5258
-104.936
-113.16
-122.377
-132.794
-142.696
-160.674
-24.4789
-25.8539
-27.3068
-28.8545
-30.5035
-32.26
-34.1318
-36.1277
-38.2575
-40.5316
-42.9619
-45.5616
-48.3452
-51.3292
-54.5321
-57.975
-61.6822
-65.6818
-70.0072
-74.6978
-79.8009
-85.3735
-91.4849
-98.2179
-105.666
-113.928
-123.183
-133.634
-143.564
-161.547
-24.7984
-26.1818
-27.6401
-29.1948
-30.8517
-32.6167
-34.4975
-36.5031
-38.6431
-40.9284
-43.3706
-45.983
-48.7803
-51.7791
-54.998
-58.4581
-62.1841
-66.2042
-70.552
-75.2671
-80.3971
-85.9994
-92.1431
-98.9112
-106.396
-114.698
-123.991
-134.478
-144.437
-162.431
-25.1179
-26.5094
-27.9731
-29.5349
-31.1999
-32.9734
-34.8633
-36.8786
-39.0291
-41.3254
-43.7796
-46.4049
-49.216
-52.2297
-55.4645
-58.9421
-62.6869
-66.7276
-71.0978
-75.8375
-80.9945
-86.6264
-92.8025
-99.6056
-107.128
-115.469
-124.8
-135.323
-145.311
-163.319
-25.437
-26.8364
-28.3056
-29.8747
-31.5478
-33.3299
-35.2289
-37.254
-39.415
-41.7226
-44.1888
-46.827
-49.652
-52.6806
-55.9316
-59.4266
-63.1903
-67.2516
-71.6444
-76.4087
-81.5928
-87.2544
-93.4629
-100.301
-107.861
-116.241
-125.61
-136.17
-146.186
-164.21
-25.7554
-27.1625
-28.6372
-30.2136
-31.8951
-33.6859
-35.5942
-37.6291
-39.8007
-42.1196
-44.5979
-47.2491
-50.0881
-53.1316
-56.3988
-59.9113
-63.694
-67.776
-72.1914
-76.9805
-82.1917
-87.883
-94.124
-100.998
-108.595
-117.013
-126.421
-137.017
-147.062
-165.102
-26.0728
-27.4875
-28.9676
-30.5517
-32.2415
-34.0412
-35.9588
-38.0037
-40.1859
-42.5162
-45.0067
-47.6709
-50.5239
-53.5825
-56.8659
-60.396
-64.1978
-68.3005
-72.7385
-77.5524
-82.7908
-88.5118
-94.7853
-101.694
-109.329
-117.786
-127.233
-137.866
-147.938
-165.997
-26.389
-27.811
-29.2967
-30.8885
-32.5869
-34.3955
-36.3225
-38.3775
-40.5704
-42.9122
-45.415
-48.0923
-50.9593
-54.033
-57.3327
-60.8804
-64.7013
-68.8248
-73.2854
-78.1241
-83.3897
-89.1406
-95.4466
-102.391
-110.063
-118.559
-128.044
-138.713
-148.814
-166.89
-26.7038
-28.1329
-29.6243
-31.2239
-32.9311
-34.7487
-36.6853
-38.7504
-40.9541
-43.3074
-45.8225
-48.5129
-51.3941
-54.4829
-57.799
-61.3642
-65.2042
-69.3485
-73.8319
-78.6954
-83.9883
-89.7689
-96.1075
-103.087
-110.797
-119.332
-128.854
-139.561
-149.689
-167.783
-27.017
-28.453
-29.9502
-31.5579
-33.2739
-35.1007
-37.0469
-39.1223
-41.3369
-43.7017
-46.2291
-48.9328
-51.828
-54.932
-58.2644
-61.8473
-65.7064
-69.8715
-74.3776
-79.266
-84.586
-90.3965
-96.7675
-103.782
-111.53
-120.103
-129.662
-140.406
-150.561
-168.674
-27.3286
-28.7713
-30.2744
-31.8903
-33.6153
-35.4514
-37.4074
-39.493
-41.7185
-44.095
-46.6347
-49.3516
-52.2609
-55.3801
-58.7288
-62.3294
-66.2076
-70.3934
-74.9222
-79.8354
-85.1826
-91.0228
-97.4263
-104.476
-112.261
-120.872
-130.469
-141.25
-151.431
-169.562
-27.6386
-29.0879
-30.5968
-32.2212
-33.9554
-35.8008
-37.7666
-39.8626
-42.099
-44.4871
-47.0392
-49.7692
-52.6927
-55.827
-59.192
-62.8101
-66.7074
-70.914
-75.4654
-80.4033
-85.7777
-91.6476
-98.0834
-105.168
-112.99
-121.64
-131.273
-142.09
-152.298
-170.446
-27.9472
-29.4028
-30.9177
-32.5507
-34.2941
-36.149
-38.1246
-40.231
-42.4783
-44.878
-47.4425
-50.1856
-53.1232
-56.2726
-59.6537
-63.2894
-67.2057
-71.4329
-76.0069
-80.9695
-86.3709
-92.2704
-98.7384
-105.857
-113.716
-122.404
-132.075
-142.927
-153.161
-171.325
-28.2546
-29.7162
-31.2371
-32.8789
-34.6317
-36.4961
-38.4815
-40.5982
-42.8565
-45.2677
-47.8444
-50.6006
-53.5521
-56.7165
-60.1138
-63.7669
-67.7021
-71.9499
-76.5463
-81.5335
-86.9618
-92.8908
-99.3909
-106.545
-114.44
-123.165
-132.872
-143.761
-154.019
-172.2
-28.5612
-30.0285
-31.5554
-33.2061
-34.9683
-36.8421
-38.8374
-40.9643
-43.2334
-45.6561
-48.245
-51.0141
-53.9795
-57.1587
-60.572
-64.2424
-68.1963
-72.4646
-77.0833
-82.095
-87.5501
-93.5084
-100.04
-107.228
-115.161
-123.923
-133.665
-144.589
-154.872
-173.07
-28.8676
-30.3403
-31.8731
-33.5327
-35.3042
-37.1875
-39.1924
-41.3295
-43.6093
-46.0432
-48.6441
-51.426
-54.405
-57.5989
-61.0281
-64.7156
-68.6881
-72.9767
-77.6175
-82.6535
-88.1353
-94.1227
-100.686
-107.909
-115.877
-124.676
-134.454
-145.413
-155.72
-173.933
-29.1747
-30.6522
-32.1907
-33.8592
-35.6399
-37.5324
-39.5468
-41.6938
-43.984