/*--------------------------------*- C++ -*----------------------------------*\
  =========                 |
  \\      /  F ield         | OpenFOAM: The Open Source CFD Toolbox
   \\    /   O peration     | Website:  https://openfoam.org
    \\  /    A nd           | Version:  6.0
     \\/     M anipulation  |
\*---------------------------------------------------------------------------*/
FoamFile
{
    version     2.0;
    format      ascii;
    class       volVectorField;
    location    "14.504";
    object      U;
}
// * * * * * * * * * * * * * * * * * * * * * * * * * * * * * * * * * * * * * //

dimensions      [0 1 -1 0 0 0 0];

internalField   nonuniform List<vector> 
19200
(
(0.00655055 -0.478941 -4.18531e-22)
(0.00478946 -0.440434 2.31978e-22)
(0.00268912 -0.405058 1.19073e-22)
(0.000260917 -0.372639 1.16291e-22)
(-0.00236468 -0.342978 1.42433e-22)
(-0.00505035 -0.315869 7.16514e-24)
(-0.00770151 -0.291113 2.28375e-22)
(-0.0102507 -0.268514 -2.38246e-23)
(-0.0126495 -0.24789 2.26665e-22)
(-0.014865 -0.229066 9.91716e-23)
(-0.016877 -0.211881 -1.04512e-23)
(-0.0186747 -0.196182 1.76937e-22)
(-0.020255 -0.181832 3.34643e-22)
(-0.0216209 -0.168704 -2.44284e-22)
(-0.0227796 -0.156679 3.25377e-22)
(-0.023742 -0.145652 3.09629e-22)
(-0.0245215 -0.135527 -3.04437e-22)
(-0.0251332 -0.126214 5.57202e-22)
(-0.0255937 -0.117636 -3.74115e-22)
(-0.0259204 -0.109721 1.89612e-22)
(-0.0261309 -0.102404 2.93954e-22)
(-0.026243 -0.0956289 -1.06435e-22)
(-0.0262744 -0.0893446 1.44987e-22)
(-0.0262418 -0.0835071 -1.8412e-22)
(-0.0261619 -0.0780774 4.78663e-24)
(-0.0260508 -0.0730196 1.09635e-22)
(-0.0259241 -0.0683014 -7.46513e-23)
(-0.0257861 -0.0638944 4.08731e-23)
(-0.0256291 -0.059773 1.14106e-22)
(-0.0255402 -0.0559133 5.63689e-22)
(0.0191185 -0.478119 -1.00913e-22)
(0.01634 -0.439033 7.29737e-22)
(0.0133146 -0.403243 -4.07598e-22)
(0.0100641 -0.370544 -6.24017e-22)
(0.00671654 -0.340715 -3.15981e-22)
(0.00340296 -0.313531 -2.40815e-22)
(0.000210844 -0.288775 -5.60457e-22)
(-0.00279936 -0.266237 6.74019e-23)
(-0.00558593 -0.245719 -1.09532e-22)
(-0.00812242 -0.227036 -4.68178e-22)
(-0.0103944 -0.210018 -1.34228e-21)
(-0.0123969 -0.194504 6.98288e-22)
(-0.014132 -0.18035 -2.80737e-22)
(-0.0156074 -0.167422 1.07889e-22)
(-0.0168349 -0.155597 -7.35775e-22)
(-0.0178294 -0.144767 -2.97437e-22)
(-0.0186081 -0.13483 2.87943e-23)
(-0.0191899 -0.125694 1.1206e-21)
(-0.0195944 -0.11728 -5.81601e-22)
(-0.0198422 -0.109513 -3.35628e-22)
(-0.0199538 -0.102327 -1.50316e-21)
(-0.0199496 -0.0956632 3.99542e-22)
(-0.0198497 -0.0894711 -2.70159e-22)
(-0.0196734 -0.0837058 5.09654e-22)
(-0.0194392 -0.0783277 -2.58912e-22)
(-0.0191658 -0.0733014 -4.21474e-22)
(-0.0188707 -0.068595 1.31476e-22)
(-0.0185586 -0.0641809 2.41138e-22)
(-0.0182193 -0.0600334 -4.10327e-22)
(-0.0179531 -0.0561313 2.64218e-22)
(0.0315998 -0.477009 -4.82051e-23)
(0.0277846 -0.437363 1.26919e-22)
(0.0238415 -0.40119 2.18381e-22)
(0.0197819 -0.36825 2.16079e-21)
(0.0157301 -0.338294 -1.37571e-21)
(0.0118116 -0.311075 1.27078e-21)
(0.00810679 -0.286356 8.41494e-22)
(0.00466874 -0.263912 7.47819e-22)
(0.00153179 -0.243533 -7.60989e-22)
(-0.00128459 -0.225022 -1.27061e-22)
(-0.00377254 -0.208198 2.17387e-21)
(-0.0059331 -0.192895 4.15619e-22)
(-0.00777404 -0.17896 -1.16975e-21)
(-0.00930816 -0.166254 9.29441e-22)
(-0.0105521 -0.15465 -1.89734e-23)
(-0.0115251 -0.144034 4.5788e-22)
(-0.0122485 -0.134301 3.3533e-22)
(-0.0127447 -0.125358 1.28995e-21)
(-0.0130371 -0.11712 -5.49272e-22)
(-0.0131493 -0.109511 -1.77705e-22)
(-0.0131049 -0.102465 -5.79546e-22)
(-0.0129272 -0.0959212 2.76643e-21)
(-0.0126389 -0.089827 -2.4088e-21)
(-0.0122619 -0.0841374 7.75654e-22)
(-0.0118173 -0.0788127 4.55767e-22)
(-0.0113258 -0.0738177 -1.75383e-21)
(-0.0108075 -0.0691211 2.41781e-21)
(-0.0102675 -0.0646957 -2.43259e-22)
(-0.00969217 -0.0605157 -2.90926e-22)
(-0.00919793 -0.0565633 -2.53872e-21)
(0.0440251 -0.4756 -1.5201e-21)
(0.0391461 -0.435437 -1.60362e-21)
(0.0342783 -0.398921 -2.15359e-21)
(0.0294169 -0.365782 8.30802e-24)
(0.0246777 -0.33574 1.3551e-22)
(0.0201784 -0.308526 -3.00233e-21)
(0.015991 -0.283882 1.16308e-22)
(0.0121601 -0.261569 4.59819e-22)
(0.00871195 -0.241361 -6.13205e-23)
(0.00565834 -0.223052 9.21799e-22)
(0.00299999 -0.206451 -3.70672e-21)
(0.000729324 -0.191384 -2.56602e-21)
(-0.00116746 -0.177692 9.18644e-22)
(-0.0027087 -0.16523 2.15147e-21)
(-0.00391603 -0.153867 -2.5217e-21)
(-0.0048134 -0.143483 -4.20665e-22)
(-0.00542631 -0.133971 -1.71651e-21)
(-0.0057812 -0.125234 -8.58931e-22)
(-0.00590501 -0.117185 1.56873e-21)
(-0.00582477 -0.109747 -2.07463e-21)
(-0.00556732 -0.10285 1.96922e-21)
(-0.00515894 -0.0964324 -2.3492e-21)
(-0.00462529 -0.0904415 -1.98962e-21)
(-0.00399089 -0.0848307 -1.55942e-21)
(-0.00327951 -0.0795605 -4.02589e-22)
(-0.00251459 -0.0745955 -3.47e-21)
(-0.00171896 -0.0699055 3.72534e-22)
(-0.000897666 -0.0654633 6.99799e-22)
(-3.31374e-05 -0.0612423 -2.15663e-21)
(0.000738861 -0.0572295 4.25496e-22)
(0.0563971 -0.473883 -8.83568e-22)
(0.0504309 -0.43326 1.55464e-22)
(0.0446309 -0.396452 1.4343e-21)
(0.0389744 -0.363159 1.64142e-21)
(0.033565 -0.333077 1.29526e-21)
(0.0285102 -0.305909 5.78186e-22)
(0.0238719 -0.28138 9.31097e-22)
(0.019685 -0.259232 4.72592e-21)
(0.0159665 -0.23923 -2.91327e-21)
(0.0127199 -0.221153 6.09495e-23)
(0.00993822 -0.204804 7.65636e-22)
(0.00760668 -0.189999 3.82913e-21)
(0.00570509 -0.176574 -2.70974e-21)
(0.00420927 -0.164378 2.09348e-21)
(0.00309226 -0.153274 -2.51018e-21)
(0.00232526 -0.14314 4.54294e-21)
(0.00187833 -0.133865 -1.35659e-21)
(0.00172092 -0.125349 5.29093e-23)
(0.00182229 -0.117502 2.5803e-21)
(0.00215185 -0.110245 1.98868e-21)
(0.00267942 -0.103507 -2.02912e-21)
(0.00337554 -0.0972237 2.92566e-21)
(0.00421147 -0.0913413 -1.43125e-21)
(0.00515986 -0.0858123 1.69124e-21)
(0.00619405 -0.0805969 2.46313e-21)
(0.00728745 -0.0756603 1.00756e-21)
(0.00841451 -0.070972 3.12176e-21)
(0.00956984 -0.066506 -9.8845e-22)
(0.010776 -0.0622337 -2.55206e-22)
(0.0118746 -0.0581481 -2.17056e-21)
(0.0687114 -0.471859 -6.49968e-22)
(0.0616392 -0.430839 -4.73035e-22)
(0.0549029 -0.393795 -1.63369e-21)
(0.04846 -0.360401 -4.72764e-21)
(0.0423995 -0.330325 1.58258e-21)
(0.0368166 -0.303247 1.25512e-22)
(0.0317611 -0.278872 -1.29218e-21)
(0.0272569 -0.256928 3.20863e-22)
(0.0233109 -0.237164 -1.58729e-22)
(0.0199174 -0.219351 -4.18774e-21)
(0.0170608 -0.203281 1.74656e-21)
(0.0147189 -0.188764 3.3649e-21)
(0.0128647 -0.175629 -2.51224e-23)
(0.0114677 -0.16372 1.39614e-21)
(0.0104955 -0.152895 3.79968e-21)
(0.00991414 -0.14303 -2.77224e-21)
(0.00968911 -0.134008 5.12249e-21)
(0.00978561 -0.125727 -2.6274e-21)
(0.0101689 -0.118095 4.8927e-21)
(0.0108048 -0.111031 -3.84742e-21)
(0.0116596 -0.10446 1.77175e-21)
(0.0127003 -0.0983186 5.14487e-21)
(0.0138954 -0.0925497 4.96775e-22)
(0.0152139 -0.0871058 -5.18618e-21)
(0.0166267 -0.0819453 3.0299e-21)
(0.0181034 -0.0770342 3.77213e-22)
(0.0196155 -0.0723428 -1.13597e-21)
(0.0211573 -0.0678442 4.39581e-21)
(0.0227568 -0.0635086 1.73661e-21)
(0.02423 -0.0593357 -1.81866e-21)
(0.0809621 -0.469532 1.90687e-21)
(0.0727699 -0.428181 1.12029e-22)
(0.0650973 -0.390961 -3.31468e-21)
(0.0578802 -0.357521 7.13387e-22)
(0.0511907 -0.327502 -1.15337e-21)
(0.0451095 -0.300559 7.6864e-22)
(0.039673 -0.27638 1.96003e-21)
(0.0348925 -0.254677 3.98166e-21)
(0.0307639 -0.235185 -4.64095e-21)
(0.0272712 -0.217667 1.13876e-21)
(0.0243899 -0.201904 -9.83617e-22)
(0.0220896 -0.1877 7.43863e-22)
(0.0203361 -0.174878 -3.33528e-21)
(0.0190924 -0.163277 -3.17362e-22)
(0.0183201 -0.152751 6.18328e-21)
(0.0179803 -0.143171 -4.32212e-21)
(0.0180335 -0.134418 -3.01592e-21)
(0.0184406 -0.126387 -2.44239e-21)
(0.0191628 -0.118984 4.36915e-21)
(0.0201621 -0.112122 1.05546e-21)
(0.0214011 -0.105729 -4.91109e-21)
(0.0228435 -0.0997363 6.9273e-21)
(0.0244541 -0.0940868 -6.48873e-21)
(0.026199 -0.0887305 4.57576e-21)
(0.0280455 -0.0836257 -2.68167e-21)
(0.0299602 -0.0787373 1.86279e-21)
(0.0319102 -0.0740366 1.55687e-21)
(0.0338904 -0.0694961 -6.91557e-21)
(0.0359343 -0.0650831 3.04025e-21)
(0.0378291 -0.0608064 6.7696e-23)
(0.0931428 -0.466905 -1.88233e-21)
(0.0838214 -0.425295 1.6112e-21)
(0.0752175 -0.387964 -3.56053e-21)
(0.0672424 -0.354536 7.059e-21)
(0.0599495 -0.324625 -2.10362e-21)
(0.0534032 -0.297866 3.35319e-21)
(0.0476246 -0.273925 5.49334e-23)
(0.0426115 -0.252499 -4.43832e-22)
(0.0383475 -0.233314 -8.39053e-22)
(0.0348055 -0.21612 -5.33316e-23)
(0.0319514 -0.200692 -3.64351e-21)
(0.0297462 -0.186826 1.92293e-21)
(0.0281479 -0.174339 -2.59787e-21)
(0.0271128 -0.163066 -1.79505e-22)
(0.0265965 -0.152858 -8.18103e-21)
(0.0265546 -0.14358 2.69899e-21)
(0.0269427 -0.135112 1.782e-21)
(0.0277172 -0.127345 -2.03052e-21)
(0.0288354 -0.120181 -2.30179e-22)
(0.0302551 -0.113535 -3.49809e-21)
(0.0319354 -0.107328 -1.32472e-21)
(0.0338362 -0.101492 1.94619e-22)
(0.0359189 -0.0959675 -3.57049e-21)
(0.0381461 -0.0907023 -5.74535e-21)
(0.0404817 -0.0856533 1.9803e-22)
(0.0428881 -0.0807852 -7.43695e-22)
(0.045329 -0.076069 2.10938e-21)
(0.0477986 -0.0714764 -5.45912e-21)
(0.0503374 -0.0669711 4.87479e-21)
(0.0526996 -0.0625724 -1.10941e-20)
(0.105247 -0.463984 -4.58452e-21)
(0.0947928 -0.422189 6.32964e-21)
(0.0852673 -0.384815 -7.33641e-21)
(0.0765551 -0.35146 -2.21047e-21)
(0.0686886 -0.321712 -1.56422e-21)
(0.061714 -0.295183 -1.81838e-21)
(0.0556357 -0.271523 -1.69942e-21)
(0.0504366 -0.250413 -3.01494e-22)
(0.0460868 -0.231568 -1.90075e-21)
(0.0425477 -0.214728 -4.39884e-22)
(0.0397747 -0.199661 3.92209e-21)
(0.0377196 -0.186156 -2.0499e-21)
(0.0363324 -0.174026 -2.77288e-21)
(0.0355624 -0.1631 -5.21162e-21)
(0.0353588 -0.153226 1.13992e-20)
(0.0356717 -0.144267 -4.61291e-21)
(0.0364517 -0.136098 1.82698e-21)
(0.0376508 -0.128609 -7.38272e-21)
(0.0392218 -0.121698 2.88534e-21)
(0.0411189 -0.115278 -1.33326e-21)
(0.0432973 -0.109268 1.61981e-21)
(0.0457132 -0.103597 -6.22567e-22)
(0.0483242 -0.0982027 5.99952e-21)
(0.0510894 -0.0930322 -2.20246e-21)
(0.0539689 -0.08804 6.59337e-21)
(0.0569213 -0.0831896 -1.64765e-21)
(0.0599051 -0.0784519 9.19933e-21)
(0.062915 -0.0737965 2.88496e-21)
(0.065998 -0.0691831 5.59443e-21)
(0.0688727 -0.0646429 -1.93449e-20)
(0.11727 -0.460773 7.21925e-21)
(0.105684 -0.418872 -1.48936e-21)
(0.0952519 -0.381525 3.24372e-21)
(0.0858284 -0.348305 -9.88986e-22)
(0.0774225 -0.318776 3.58894e-21)
(0.0700604 -0.292527 3.73031e-21)
(0.0637285 -0.26919 4.52543e-21)
(0.0583932 -0.248434 -4.39214e-22)
(0.0540103 -0.229962 -5.0726e-21)
(0.0505287 -0.213504 7.59894e-21)
(0.0478927 -0.198823 -8.14873e-22)
(0.0460445 -0.185702 6.05821e-21)
(0.0449257 -0.173948 2.37561e-21)
(0.0444782 -0.163387 8.34762e-22)
(0.0446448 -0.153864 1.45306e-21)
(0.0453699 -0.145238 2.18596e-21)
(0.0465992 -0.137383 3.9842e-21)
(0.04828 -0.130184 -1.28837e-21)
(0.0503609 -0.123538 6.60665e-21)
(0.0527921 -0.117355 3.33389e-21)
(0.055525 -0.111551 -7.11913e-21)
(0.0585122 -0.106053 1.34045e-20)
(0.0617074 -0.100797 -1.85627e-20)
(0.065066 -0.0957258 1.83827e-20)
(0.0685439 -0.0907923 -6.33424e-21)
(0.0720958 -0.0859577 1.15565e-21)
(0.0756745 -0.0811927 -9.35311e-21)
(0.0792749 -0.0764643 5.30952e-21)
(0.0829512 -0.071726 2.06784e-21)
(0.0863822 -0.0670239 -2.86611e-21)
(0.129204 -0.457277 -4.11877e-21)
(0.116494 -0.415352 4.7812e-21)
(0.105177 -0.378105 -1.35966e-21)
(0.0950738 -0.345085 4.21762e-21)
(0.0861677 -0.315832 4.41335e-22)
(0.0784636 -0.289912 1.20984e-21)
(0.0719279 -0.266941 -8.92096e-21)
(0.0665097 -0.246575 -1.74423e-21)
(0.0621495 -0.228507 6.59468e-21)
(0.0587827 -0.212459 5.54701e-21)
(0.0563419 -0.198187 -9.82376e-21)
(0.0547592 -0.185469 6.11391e-21)
(0.0539674 -0.17411 -6.3579e-21)
(0.053901 -0.16393 4.81322e-21)
(0.0544962 -0.154773 -8.42598e-21)
(0.0556915 -0.146493 -6.77854e-21)
(0.0574275 -0.138964 2.1352e-22)
(0.059647 -0.132067 -3.59441e-21)
(0.0622945 -0.125698 6.22264e-21)
(0.0653162 -0.119763 2.70746e-21)
(0.0686598 -0.114175 -1.76919e-21)
(0.072274 -0.10886 -5.10551e-22)
(0.0761088 -0.103749 2.57034e-21)
(0.0801155 -0.0987823 -8.52782e-21)
(0.0842462 -0.0939102 1.48585e-20)
(0.0884501 -0.0890914 -3.5877e-21)
(0.0926756 -0.0842943 -4.60868e-22)
(0.0969161 -0.0794832 1.49594e-20)
(0.101234 -0.0746034 2.38032e-21)
(0.105264 -0.0697186 -2.3918e-21)
(0.141046 -0.4535 1.97515e-22)
(0.127226 -0.411637 -2.44992e-21)
(0.115051 -0.374566 -2.52509e-21)
(0.104304 -0.341813 -4.56645e-21)
(0.0949427 -0.312891 1.79321e-22)
(0.0869466 -0.287349 -3.95223e-21)
(0.0802615 -0.264787 4.73743e-21)
(0.0748176 -0.244847 -4.75688e-22)
(0.070539 -0.227212 4.69155e-21)
(0.0673469 -0.2116 -3.72819e-21)
(0.0651618 -0.197758 -2.11601e-21)
(0.0639052 -0.185462 1.24174e-21)
(0.0635009 -0.174512 7.20026e-22)
(0.0638753 -0.164727 -8.0233e-21)
(0.064958 -0.155947 4.83697e-21)
(0.0666818 -0.148026 -2.70462e-21)
(0.0689822 -0.140833 7.71498e-21)
(0.0717974 -0.13425 -2.73027e-21)
(0.0750678 -0.128168 2.91135e-21)
(0.0787359 -0.122491 8.09787e-22)
(0.0827455 -0.11713 5.7015e-21)
(0.0870418 -0.112006 -1.11527e-21)
(0.0915709 -0.107048 1.03786e-20)
(0.0962798 -0.102193 -1.18141e-20)
(0.101117 -0.0973872 -4.33369e-21)
(0.106025 -0.0925855 3.68882e-21)
(0.110948 -0.0877536 -2.19167e-22)
(0.115878 -0.0828514 -7.08153e-21)
(0.120885 -0.0778147 5.89056e-21)
(0.125557 -0.0727264 -7.97586e-21)
(0.15279 -0.449446 7.07004e-21)
(0.137881 -0.407735 2.13819e-21)
(0.124881 -0.370918 2.81937e-21)
(0.113535 -0.338498 4.19382e-21)
(0.103768 -0.309967 6.7416e-21)
(0.0955351 -0.284851 -2.26225e-22)
(0.0887593 -0.262737 1.00599e-21)
(0.0833507 -0.243257 9.27439e-21)
(0.0792162 -0.226084 -1.89291e-21)
(0.076262 -0.210929 -3.92013e-21)
(0.0743956 -0.197537 7.28108e-21)
(0.0735277 -0.185678 1.42046e-21)
(0.0735725 -0.17515 1.86748e-23)
(0.0744486 -0.165771 1.96151e-21)
(0.0760787 -0.157378 3.91206e-21)
(0.0783897 -0.149825 -8.65123e-21)
(0.081312 -0.142977 7.58651e-21)
(0.0847794 -0.136715 1.35678e-21)
(0.0887285 -0.130929 8.46491e-21)
(0.093098 -0.125519 -4.68684e-21)
(0.0978281 -0.120395 8.32492e-21)
(0.102861 -0.115472 -9.28358e-21)
(0.108137 -0.110677 9.36354e-21)
(0.113602 -0.105942 1.60116e-21)
(0.119198 -0.101209 -6.79646e-21)
(0.124863 -0.0964277 -2.52521e-21)
(0.130533 -0.0915611 1.45417e-20)
(0.136201 -0.0865617 1.09406e-20)
(0.141944 -0.0813543 3.02913e-21)
(0.147298 -0.076043 -2.71613e-21)
(0.164432 -0.445121 7.39661e-22)
(0.148461 -0.403655 2.00733e-21)
(0.134678 -0.367171 8.80949e-21)
(0.122782 -0.335152 -1.48996e-20)
(0.112666 -0.307067 -1.66875e-21)
(0.104257 -0.282427 -1.82226e-21)
(0.0974539 -0.2608 8.03596e-22)
(0.0921459 -0.241811 1.2486e-21)
(0.0882215 -0.225125 2.29084e-21)
(0.0855713 -0.210449 -6.44188e-21)
(0.0840893 -0.197521 -1.54348e-21)
(0.0836748 -0.186111 3.93509e-21)
(0.0842322 -0.176015 4.7567e-21)
(0.0856719 -0.167049 -4.76282e-21)
(0.0879098 -0.15905 -5.34714e-21)
(0.0908668 -0.151868 8.4036e-21)
(0.0944683 -0.145372 6.02754e-21)
(0.098644 -0.139438 -1.44588e-21)
(0.103327 -0.133955 -4.20128e-21)
(0.108451 -0.128821 8.39117e-22)
(0.113955 -0.123942 -1.09861e-20)
(0.119776 -0.119231 1.3722e-20)
(0.125853 -0.114609 -9.78845e-21)
(0.132125 -0.110004 -5.73061e-22)
(0.138531 -0.105352 6.98986e-21)
(0.145003 -0.100598 -2.32556e-21)
(0.151471 -0.0956993 -7.49234e-21)
(0.157924 -0.0906002 9.37014e-21)
(0.164448 -0.0852109 -3.06356e-22)
(0.170525 -0.07966 1.98881e-21)
(0.175967 -0.44053 -4.88341e-22)
(0.158972 -0.399403 -2.00955e-21)
(0.144454 -0.363333 -1.01693e-20)
(0.132064 -0.331783 3.71391e-21)
(0.12166 -0.304202 -1.31416e-21)
(0.113142 -0.280082 4.28567e-21)
(0.10638 -0.258981 3.1541e-22)
(0.101242 -0.240513 -5.91682e-21)
(0.0975979 -0.224337 9.34336e-21)
(0.0953209 -0.210155 -8.85349e-21)
(0.0942917 -0.197704 -4.97115e-22)
(0.0943973 -0.186751 2.44125e-21)
(0.0955324 -0.177092 -4.42773e-21)
(0.0975989 -0.168543 5.44339e-21)
(0.100505 -0.160938 -1.07978e-20)
(0.104167 -0.154132 -2.8241e-21)
(0.108505 -0.147988 6.99868e-21)
(0.113444 -0.142385 -1.92302e-22)
(0.118914 -0.13721 -5.35803e-21)
(0.124846 -0.132358 1.45887e-20)
(0.131175 -0.127732 -7.84396e-21)
(0.137835 -0.123242 -1.14327e-20)
(0.144762 -0.118805 4.03482e-21)
(0.151892 -0.114341 -1.23131e-20)
(0.159157 -0.109782 -3.27317e-21)
(0.166486 -0.105065 -5.78406e-22)
(0.173799 -0.100142 -9.36986e-21)
(0.181085 -0.0949454 1.11915e-20)
(0.188437 -0.0893674 -6.65645e-21)
(0.195275 -0.0835637 8.60541e-21)
(0.187392 -0.435678 -2.49902e-21)
(0.169418 -0.394988 -8.1377e-21)
(0.154221 -0.359412 4.43732e-21)
(0.141401 -0.3284 -4.48293e-21)
(0.130779 -0.301379 -3.63038e-21)
(0.122222 -0.277825 -2.33271e-21)
(0.115575 -0.257284 -8.67312e-21)
(0.110681 -0.239362 6.14293e-21)
(0.107391 -0.223715 -1.61922e-20)
(0.10556 -0.210041 -6.51478e-21)
(0.105054 -0.198075 2.13196e-21)
(0.105749 -0.187583 4.09954e-21)
(0.107528 -0.178362 9.5732e-23)
(0.110285 -0.170227 -8.84087e-21)
(0.113922 -0.163016 2.11647e-21)
(0.118348 -0.156581 -9.09873e-21)
(0.123478 -0.150789 -7.02871e-21)
(0.129235 -0.145516 -4.63095e-21)
(0.135543 -0.140649 -1.26437e-21)
(0.142333 -0.136083 7.77576e-21)
(0.149536 -0.131717 1.20273e-20)
(0.157083 -0.127457 -3.78574e-21)
(0.164908 -0.123215 -3.90827e-21)
(0.172942 -0.118907 7.70066e-21)
(0.181115 -0.114455 4.56548e-21)
(0.189348 -0.10979 -3.62609e-21)
(0.197553 -0.104854 -4.33851e-21)
(0.205717 -0.0995671 3.90051e-22)
(0.21394 -0.0937992 5.01007e-21)
(0.221578 -0.0877347 7.60712e-21)
(0.198704 -0.430569 -6.35594e-22)
(0.179804 -0.390415 1.05371e-20)
(0.163992 -0.355418 8.95338e-21)
(0.150813 -0.32501 7.48831e-21)
(0.140048 -0.298603 -5.01764e-21)
(0.13153 -0.275657 -1.0646e-21)
(0.125077 -0.255709 9.20928e-22)
(0.120506 -0.238358 7.87872e-21)
(0.117647 -0.223256 3.17388e-21)
(0.116337 -0.210098 8.11919e-21)
(0.116429 -0.19862 -1.1894e-20)
(0.117784 -0.188589 1.1298e-21)
(0.120276 -0.179801 5.30637e-21)
(0.12379 -0.172075 3.5235e-21)
(0.128219 -0.165248 7.95729e-21)
(0.133467 -0.159177 -5.26278e-21)
(0.139446 -0.153728 -5.46269e-21)
(0.146072 -0.148779 8.75692e-22)
(0.153269 -0.144217 1.2693e-20)
(0.160964 -0.139936 -2.12764e-20)
(0.169086 -0.135834 7.53965e-21)
(0.177565 -0.131812 -1.21312e-22)
(0.186332 -0.127778 1.6093e-20)
(0.195315 -0.12364 -6.9948e-21)
(0.20444 -0.119313 -2.38689e-22)
(0.21362 -0.114718 -4.96509e-21)
(0.222763 -0.109788 4.80563e-21)
(0.23185 -0.104424 1.23085e-21)
(0.240986 -0.0984733 -6.10391e-21)
(0.249462 -0.0921476 2.262e-20)
(0.209898 -0.42521 -1.00226e-20)
(0.190137 -0.385693 -6.50206e-21)
(0.173783 -0.351356 -1.79671e-20)
(0.160324 -0.321619 -8.94e-21)
(0.149498 -0.295879 8.61227e-21)
(0.141103 -0.273582 -5.58837e-21)
(0.134927 -0.254255 -1.57854e-21)
(0.130762 -0.237495 -4.20694e-21)
(0.128415 -0.222949 7.21811e-21)
(0.127707 -0.210313 -1.75717e-21)
(0.128472 -0.199322 -2.85334e-21)
(0.130561 -0.189745 -4.07416e-22)
(0.133835 -0.181381 -1.36528e-20)
(0.138171 -0.174051 -1.02416e-21)
(0.143455 -0.167596 3.62819e-21)
(0.149584 -0.161873 -4.85179e-22)
(0.156465 -0.156753 -1.68498e-20)
(0.164012 -0.152116 1.7034e-20)
(0.172145 -0.14785 -1.76186e-20)
(0.180789 -0.143849 7.07629e-21)
(0.189873 -0.140009 1.02522e-21)
(0.199324 -0.136231 4.48133e-22)
(0.209072 -0.132415 -8.50483e-21)
(0.219043 -0.128465 3.06551e-21)
(0.22916 -0.124284 7.00796e-23)
(0.23933 -0.119783 1.12723e-21)
(0.249452 -0.114882 -2.54592e-20)
(0.259503 -0.109466 6.6134e-21)
(0.269595 -0.103346 7.73881e-21)
(0.278946 -0.0967687 1.04596e-20)
(0.220974 -0.419604 1.98543e-20)
(0.200424 -0.380828 7.98133e-21)
(0.183611 -0.347233 4.91891e-21)
(0.169958 -0.318233 8.0325e-21)
(0.159159 -0.29321 -1.13272e-21)
(0.150977 -0.271599 6.92566e-21)
(0.145167 -0.252921 1.63733e-20)
(0.141495 -0.236767 -2.03422e-21)
(0.139745 -0.222785 1.08949e-21)
(0.13972 -0.210671 2.29181e-20)
(0.141238 -0.200161 -2.9071e-21)
(0.144136 -0.191028 3.51108e-21)
(0.148264 -0.183072 -1.53066e-21)
(0.15349 -0.176118 -5.7421e-22)
(0.159691 -0.170013 2.09409e-20)
(0.166759 -0.164617 8.12934e-22)
(0.174596 -0.159805 2.47097e-20)
(0.183112 -0.155461 -2.9756e-21)
(0.192226 -0.151474 -5.8945e-21)
(0.20186 -0.147741 1.4108e-20)
(0.211942 -0.144158 -1.37003e-20)
(0.2224 -0.140624 1.53347e-20)
(0.233163 -0.137036 8.68357e-21)
(0.244156 -0.133289 -7.52807e-21)
(0.255298 -0.129277 1.14284e-20)
(0.266494 -0.1249 1.34569e-21)
(0.277633 -0.120063 -5.51405e-21)
(0.288689 -0.114625 2.43661e-21)
(0.299778 -0.108364 1.99507e-20)
(0.31004 -0.101556 3.40818e-21)
(0.231929 -0.413758 -3.40671e-21)
(0.210674 -0.375825 -7.84232e-21)
(0.193491 -0.343054 3.56151e-21)
(0.179739 -0.314854 -1.45103e-20)
(0.169063 -0.290597 7.44215e-21)
(0.161189 -0.269706 -1.42987e-20)
(0.155839 -0.251699 -1.01924e-20)
(0.152751 -0.236164 2.87438e-21)
(0.151687 -0.22275 3.42312e-21)
(0.15243 -0.211153 -1.54221e-20)
(0.154783 -0.201114 -7.1563e-21)
(0.158567 -0.192407 3.59482e-21)
(0.163622 -0.184838 -9.87549e-21)
(0.169805 -0.178237 -4.20174e-21)
(0.176987 -0.172454 -3.01633e-21)
(0.185052 -0.167355 -3.11399e-21)
(0.193897 -0.162821 -1.37597e-20)
(0.20343 -0.15874 -9.25024e-21)
(0.213565 -0.155008 1.36336e-21)
(0.224226 -0.151522 3.1078e-21)
(0.235338 -0.148182 3.67026e-21)
(0.246832 -0.144887 -1.26151e-20)
(0.258635 -0.14153 4.97759e-21)
(0.270675 -0.138001 -1.05879e-20)
(0.28287 -0.134185 1.05405e-20)
(0.295121 -0.129967 -1.39644e-20)
(0.307309 -0.125235 4.80944e-21)
(0.319406 -0.119822 -7.19638e-21)
(0.33153 -0.113459 -1.08527e-20)
(0.34274 -0.106455 -1.29634e-21)
(0.242761 -0.407676 -7.27174e-21)
(0.220896 -0.370689 -7.0768e-21)
(0.203443 -0.338823 -7.55223e-21)
(0.189694 -0.311485 -6.17205e-21)
(0.179243 -0.288038 1.9067e-20)
(0.171777 -0.2679 2.96547e-21)
(0.166984 -0.250583 9.1029e-21)
(0.164576 -0.235676 1.47717e-20)
(0.16429 -0.222829 7.71007e-21)
(0.165889 -0.211741 -1.02393e-20)
(0.16916 -0.202156 1.80603e-20)
(0.173909 -0.193854 -1.79849e-20)
(0.179966 -0.186645 1.79562e-20)
(0.187176 -0.180364 2.29578e-21)
(0.195402 -0.174867 4.98886e-21)
(0.204522 -0.170029 1.56828e-21)
(0.214427 -0.165734 2.21985e-20)
(0.225021 -0.161878 -3.35579e-21)
(0.236217 -0.158363 3.21199e-21)
(0.247935 -0.155093 1.14469e-20)
(0.260104 -0.151972 -1.30123e-20)
(0.272654 -0.1489 1.09246e-20)
(0.285517 -0.145772 5.01754e-22)
(0.29862 -0.142473 5.30374e-21)
(0.311884 -0.138877 1.01034e-20)
(0.32521 -0.134858 -1.76649e-21)
(0.338473 -0.130283 1.07031e-20)
(0.35164 -0.124951 1.62386e-20)
(0.364834 -0.118545 -1.76113e-20)
(0.377028 -0.1114 -1.27051e-20)
(0.253468 -0.401364 2.19708e-20)
(0.231098 -0.365426 -2.55571e-21)
(0.213486 -0.334542 5.78811e-21)
(0.199849 -0.308125 1.14404e-20)
(0.189731 -0.285532 -3.45334e-20)
(0.182779 -0.266173 3.91552e-21)
(0.178646 -0.249562 -1.47392e-20)
(0.177016 -0.235288 1.56052e-20)
(0.177602 -0.223003 -1.27588e-20)
(0.180148 -0.212412 7.6906e-21)
(0.184421 -0.203262 -2.81065e-20)
(0.190217 -0.195337 3.67309e-22)
(0.197351 -0.188455 -1.0675e-20)
(0.205658 -0.182457 1.61282e-20)
(0.214992 -0.177205 -1.79012e-20)
(0.225226 -0.17258 -1.03066e-21)
(0.236242 -0.168476 -1.60575e-20)
(0.247941 -0.164796 -1.48889e-21)
(0.260233 -0.16145 1.536e-21)
(0.273038 -0.158351 4.21358e-21)
(0.286284 -0.15541 -2.32982e-20)
(0.299904 -0.152533 -8.32667e-22)
(0.313833 -0.149618 -1.40248e-20)
(0.328004 -0.14655 -3.41906e-21)
(0.342343 -0.143197 -9.31026e-21)
(0.35675 -0.139417 -1.05788e-20)
(0.371102 -0.135059 -1.1565e-20)
(0.385363 -0.129884 1.88395e-20)
(0.399658 -0.123512 5.213e-21)
(0.412872 -0.116304 -1.21806e-20)
(0.26405 -0.394826 -1.46681e-20)
(0.241292 -0.360038 5.87675e-21)
(0.223638 -0.330214 -1.09103e-20)
(0.21023 -0.304774 1.69144e-21)
(0.20056 -0.283072 2.00274e-20)
(0.194232 -0.264517 -1.0485e-20)
(0.190865 -0.248623 -1.19861e-20)
(0.190114 -0.234983 -1.04787e-20)
(0.191669 -0.223254 3.9472e-22)
(0.195252 -0.213142 7.28578e-21)
(0.200616 -0.204403 -5.82136e-21)
(0.20754 -0.196826 -3.12812e-23)
(0.215827 -0.190233 1.95334e-20)
(0.225302 -0.184474 -1.0132e-20)
(0.235811 -0.179418 3.03041e-21)
(0.247216 -0.174953 -9.17615e-21)
(0.259396 -0.170982 3.51104e-21)
(0.272244 -0.167417 8.1324e-21)
(0.285667 -0.164178 9.84358e-21)
(0.299584 -0.161189 -1.09658e-20)
(0.313923 -0.158371 1.6142e-21)
(0.328619 -0.155643 1.02081e-20)
(0.343612 -0.152909 1.84902e-20)
(0.358843 -0.150058 5.2589e-21)
(0.374245 -0.146958 -2.01357e-20)
(0.389728 -0.143457 2.43441e-20)
(0.405167 -0.139382 -1.23336e-20)
(0.420533 -0.134453 -1.53645e-20)
(0.435955 -0.128217 -9.74491e-21)
(0.450224 -0.12105 -1.57024e-20)
(0.274506 -0.388066 8.04936e-21)
(0.251487 -0.354528 -6.9504e-21)
(0.233919 -0.325837 2.57239e-21)
(0.220865 -0.301425 1.5699e-20)
(0.211762 -0.28065 4.53797e-21)
(0.206171 -0.26292 -4.15168e-21)
(0.203679 -0.247751 1.02604e-20)
(0.20391 -0.234744 2.13285e-21)
(0.206531 -0.223557 1.0838e-20)
(0.211245 -0.213906 6.26586e-21)
(0.217787 -0.205551 1.66084e-22)
(0.225921 -0.198287 4.36133e-21)
(0.235439 -0.191945 -1.45003e-21)
(0.246155 -0.186378 2.64586e-21)
(0.257904 -0.181464 7.7369e-21)
(0.270541 -0.177099 -4.49091e-21)
(0.283936 -0.173194 1.15398e-20)
(0.297978 -0.169672 1.22965e-20)
(0.312569 -0.166464 -1.45901e-20)
(0.327624 -0.163507 1.51745e-20)
(0.343069 -0.160736 3.40513e-20)
(0.358843 -0.158084 -2.26153e-20)
(0.37489 -0.155472 2.37136e-20)
(0.39116 -0.1528 -1.69145e-20)
(0.407599 -0.149943 -2.53305e-21)
(0.424127 -0.146746 1.95975e-20)
(0.440634 -0.143021 -3.88244e-21)
(0.457099 -0.138442 1.56338e-20)
(0.473665 -0.13247 1.60839e-20)
(0.489024 -0.125484 -3.56774e-20)
(0.284834 -0.381088 -7.88092e-21)
(0.261696 -0.348899 3.76897e-21)
(0.24435 -0.321408 1.79522e-21)
(0.23178 -0.298073 -1.86307e-20)
(0.223367 -0.278255 -1.03534e-20)
(0.218631 -0.261365 8.1841e-21)
(0.217124 -0.246927 -2.40213e-20)
(0.218441 -0.234546 3.04509e-20)
(0.222227 -0.223889 -1.78497e-20)
(0.228163 -0.214677 2.22931e-21)
(0.23597 -0.206677 -3.38295e-21)
(0.245397 -0.199692 -1.19949e-20)
(0.256223 -0.193556 2.54456e-20)
(0.268251 -0.188133 1.03855e-20)
(0.281307 -0.183305 -1.07207e-20)
(0.295237 -0.178977 2.68798e-22)
(0.309904 -0.175067 6.61614e-21)
(0.325189 -0.171507 -1.50594e-20)
(0.340986 -0.168242 3.14642e-21)
(0.357207 -0.16522 1.11715e-20)
(0.373776 -0.162395 -4.71248e-21)
(0.390629 -0.159719 8.45815e-21)
(0.407716 -0.157134 -1.68887e-20)
(0.424995 -0.154563 2.52514e-20)
(0.442426 -0.151901 6.38021e-21)
(0.45995 -0.149004 -1.67864e-20)
(0.477478 -0.145681 -1.52873e-20)
(0.495014 -0.141562 -3.26832e-22)
(0.512725 -0.13601 2.16596e-20)
(0.529206 -0.129383 -6.3629e-21)
(0.295036 -0.373896 -2.23422e-21)
(0.271929 -0.343148 -1.74618e-20)
(0.254951 -0.316923 2.13968e-20)
(0.243 -0.294707 1.53533e-20)
(0.235404 -0.275871 1.63711e-20)
(0.231642 -0.259835 5.05978e-21)
(0.231231 -0.246128 7.59431e-21)
(0.233739 -0.234366 4.10972e-21)
(0.238786 -0.224222 -1.70534e-20)
(0.246038 -0.215426 3.21276e-20)
(0.255195 -0.207751 -2.7765e-20)
(0.265995 -0.201008 -2.24752e-21)
(0.278204 -0.195038 4.13146e-21)
(0.291615 -0.189709 -2.07461e-20)
(0.306045 -0.184912 1.85507e-20)
(0.321331 -0.180556 -5.66767e-21)
(0.337327 -0.176567 -1.5457e-20)
(0.353907 -0.172886 6.40965e-21)
(0.370957 -0.169466 -1.23055e-20)
(0.388382 -0.16627 -1.13583e-20)
(0.4061 -0.163268 -1.27549e-20)
(0.424044 -0.160433 2.97045e-21)
(0.442163 -0.157737 1.99236e-21)
(0.46042 -0.155135 -3.41525e-20)
(0.478791 -0.152558 -1.3691e-20)
(0.49724 -0.149897 8.59126e-21)
(0.51571 -0.146981 1.12767e-20)
(0.534252 -0.143416 -1.58661e-20)
(0.553089 -0.138459 -6.32177e-21)
(0.570724 -0.132416 1.1263e-21)
(0.305112 -0.366493 -1.65708e-21)
(0.282202 -0.337274 1.12872e-20)
(0.265743 -0.312372 -3.26862e-21)
(0.254552 -0.291311 -4.1087e-21)
(0.247901 -0.273479 -2.56236e-20)
(0.245231 -0.258305 -6.17267e-21)
(0.246027 -0.245328 1.1778e-20)
(0.249828 -0.234173 -8.28983e-21)
(0.256234 -0.224524 -1.03012e-21)
(0.264888 -0.21612 -1.70546e-21)
(0.275479 -0.208741 1.06161e-20)
(0.287729 -0.202205 -1.71169e-20)
(0.301394 -0.196361 -1.20891e-20)
(0.316257 -0.191082 1.48198e-20)
(0.332126 -0.186263 -8.8635e-21)
(0.348829 -0.18182 -1.12428e-20)
(0.366215 -0.177684 2.45521e-20)
(0.384147 -0.1738 -3.93202e-21)
(0.402506 -0.170129 1.58607e-20)
(0.421187 -0.166642 -1.46686e-20)
(0.440098 -0.163324 -1.25089e-20)
(0.459166 -0.160169 1.11606e-20)
(0.478333 -0.157175 -1.13828e-21)
(0.49756 -0.15434 -8.87171e-21)
(0.516831 -0.151647 8.04924e-21)
(0.536132 -0.149052 -2.59604e-20)
(0.555443 -0.146448 1.59384e-20)
(0.574891 -0.143473 -2.82057e-22)
(0.594809 -0.139294 -1.75995e-20)
(0.613634 -0.13412 2.86874e-20)
(0.315071 -0.358881 8.20055e-21)
(0.292533 -0.331273 -2.20672e-20)
(0.27675 -0.307742 -2.08436e-21)
(0.266457 -0.287867 1.16135e-20)
(0.26088 -0.271056 -3.19983e-21)
(0.259421 -0.256747 -9.51019e-21)
(0.261533 -0.244495 4.59766e-21)
(0.266729 -0.233935 5.67434e-21)
(0.274584 -0.224762 5.29859e-22)
(0.284727 -0.216724 7.5939e-21)
(0.296829 -0.209612 2.55479e-20)
(0.310601 -0.203251 -8.98479e-21)
(0.325789 -0.197497 2.65058e-21)
(0.342166 -0.192227 -7.0809e-21)
(0.359534 -0.187344 2.70588e-20)
(0.377714 -0.182764 -5.14921e-21)
(0.396549 -0.178423 1.7532e-20)
(0.415895 -0.174268 -7.1434e-21)
(0.435627 -0.170261 7.92377e-21)
(0.45563 -0.166379 1.24501e-20)
(0.475807 -0.162609 2.28719e-21)
(0.496069 -0.158958 8.98233e-21)
(0.516347 -0.155446 -7.71342e-21)
(0.536591 -0.152106 2.17733e-20)
(0.556778 -0.14898 -9.12864e-21)
(0.576899 -0.146117 3.44183e-20)
(0.596963 -0.143543 -9.98699e-21)
(0.617185 -0.141026 7.06982e-21)
(0.63811 -0.137721 -1.36393e-20)
(0.658203 -0.133706 2.73049e-20)
(0.324943 -0.351067 -1.77606e-20)
(0.302951 -0.325131 6.13241e-22)
(0.287991 -0.303011 -1.25466e-20)
(0.278734 -0.284347 2.38415e-21)
(0.274358 -0.26857 7.18312e-22)
(0.274227 -0.25513 -1.27812e-20)
(0.277763 -0.243596 -2.51312e-20)
(0.284451 -0.233615 1.30678e-20)
(0.293845 -0.224897 -1.90857e-20)
(0.305556 -0.217201 -1.07091e-20)
(0.31924 -0.210328 -6.45405e-21)
(0.334599 -0.204112 -5.51672e-21)
(0.351368 -0.198415 2.95665e-22)
(0.369314 -0.193124 -2.06513e-20)
(0.388233 -0.188142 1.46395e-20)
(0.407941 -0.183391 -2.42546e-20)
(0.428277 -0.178806 -6.49292e-21)
(0.449095 -0.174336 7.2078e-21)
(0.470267 -0.169938 9.41871e-21)
(0.491675 -0.165586 9.85035e-21)
(0.513213 -0.161262 7.84898e-21)
(0.534785 -0.156967 -2.00798e-20)
(0.556308 -0.152719 2.08789e-20)
(0.57771 -0.148561 -2.20901e-21)