/*--------------------------------*- C++ -*----------------------------------*\
  =========                 |
  \\      /  F ield         | OpenFOAM: The Open Source CFD Toolbox
   \\    /   O peration     | Website:  https://openfoam.org
    \\  /    A nd           | Version:  6.0
     \\/     M anipulation  |
\*---------------------------------------------------------------------------*/
FoamFile
{
    version     2.0;
    format      ascii;
    class       surfaceScalarField;
    location    "7.5005";
    object      phi;
}
// * * * * * * * * * * * * * * * * * * * * * * * * * * * * * * * * * * * * * //

dimensions      [0 3 -1 0 0 0 0];

internalField   nonuniform List<scalar> 
38030
(
2.45579e-05
-0.0791406
0.079116
0.000137063
-0.072374
0.0722615
0.000336187
-0.0668597
0.0666606
0.000618605
-0.0623685
0.0620861
0.000979679
-0.0587061
0.0583451
0.00141327
-0.0557097
0.0552761
0.00191239
-0.053246
0.0527468
0.00246975
-0.0512071
0.0506497
0.00307803
-0.0495059
0.0488976
0.00373016
-0.0480726
0.0474205
0.0044194
-0.0468511
0.0461619
0.00513946
-0.0457966
0.0450765
0.00588455
-0.0448732
0.0441281
0.00664936
-0.0440524
0.0432876
0.00742911
-0.0433116
0.0425318
0.0082195
-0.0426326
0.0418422
0.00901672
-0.0420013
0.041204
0.00981742
-0.0414061
0.0406054
0.0106187
-0.0408384
0.0400371
0.011418
-0.0402909
0.0394916
0.0122131
-0.0397581
0.0389629
0.0130024
-0.0392355
0.0384462
0.0137843
-0.0387195
0.0379377
0.0145574
-0.0382069
0.0374337
0.0153209
-0.0376947
0.0369312
0.0160739
-0.0371806
0.0364276
0.0168155
-0.0366621
0.0359205
0.017545
-0.036137
0.0354075
0.0182616
-0.0356026
0.034886
-0.0350555
0.0343529
0.0189642
3.32922e-05
-0.0791739
0.000151578
-0.0724923
0.000358208
-0.0670663
0.000650304
-0.0626606
0.00102253
-0.0590784
0.00146811
-0.0561553
0.00197954
-0.0537574
0.00254909
-0.0517766
0.00316909
-0.0501259
0.00383221
-0.0487357
0.00453149
-0.0475504
0.00526047
-0.0465255
0.00601324
-0.0456259
0.00678442
-0.0448236
0.00756915
-0.0440963
0.00836312
-0.0434266
0.00916253
-0.0428007
0.00996405
-0.0422077
0.0107648
-0.0416391
0.0115623
-0.0410884
0.0123545
-0.0405503
0.0131397
-0.0400207
0.0139165
-0.0394963
0.0146837
-0.0389741
0.0154405
-0.0384515
0.0161861
-0.0379262
0.0169199
-0.0373959
0.0176412
-0.0368583
0.0183494
-0.0363108
-0.0357497
0.0190436
3.76335e-05
-0.0792115
0.000162836
-0.0726175
0.000378112
-0.0672816
0.000680401
-0.0629629
0.00106388
-0.0594618
0.00152126
-0.0566126
0.0020446
-0.0542807
0.00262578
-0.0523578
0.00325683
-0.050757
0.00393015
-0.0494091
0.00463858
-0.0482588
0.00537553
-0.0472625
0.00613495
-0.0463854
0.0069114
-0.0456
0.00769998
-0.0448849
0.00849637
-0.044223
0.00929679
-0.0436011
0.0100979
-0.0430088
0.010897
-0.0424382
0.0116915
-0.0418829
0.0124796
-0.0413384
0.0132596
-0.0408007
0.0140301
-0.0402668
0.0147903
-0.0397343
0.0155393
-0.0392005
0.0162766
-0.0386634
0.0170016
-0.0381209
0.0177138
-0.0375705
0.0184128
-0.0370097
-0.0364348
0.0190978
4.08734e-05
-0.0792524
0.000172723
-0.0727493
0.000396741
-0.0675056
0.000709231
-0.0632754
0.0011038
-0.0598564
0.00157267
-0.0570815
0.00210745
-0.0548155
0.00269967
-0.05295
0.00334106
-0.0513984
0.00402377
-0.0500918
0.00474046
-0.0489755
0.00548439
-0.0480064
0.00624942
-0.0471504
0.00703004
-0.0463807
0.00782134
-0.0456762
0.00861899
-0.0450207
0.00941923
-0.0444013
0.0102188
-0.0438084
0.011015
-0.0432343
0.0118054
-0.0426734
0.0125882
-0.0421212
0.0133618
-0.0415743
0.0141251
-0.0410301
0.0148772
-0.0404864
0.0156175
-0.0399408
0.0163454
-0.0393914
0.0170608
-0.0388362
0.0177631
-0.0382729
0.018452
-0.0376987
-0.0371099
0.0191272
4.36964e-05
-0.0792961
0.000181886
-0.0728875
0.000414484
-0.0677382
0.000736982
-0.0635979
0.00114236
-0.0602618
0.00162231
-0.0575615
0.00216801
-0.0553612
0.00277063
-0.0535526
0.00342161
-0.0520494
0.00411286
-0.050783
0.00483688
-0.0496995
0.0055868
-0.0487563
0.00635639
-0.04792
0.00714009
-0.0471644
0.00793297
-0.0464691
0.00873073
-0.0458184
0.00952964
-0.0452002
0.0103265
-0.0446052
0.0111186
-0.0440264
0.0119038
-0.0434586
0.0126802
-0.0428976
0.0134465
-0.0423406
0.0142015
-0.0417852
0.0149445
-0.0412294
0.0156751
-0.0406714
0.0163929
-0.0401092
0.0170977
-0.039541
0.0177893
-0.0389645
0.0184676
-0.038377
-0.0377746
0.0191323
4.63116e-05
-0.0793424
0.00019059
-0.0730318
0.000431529
-0.0679791
0.000763752
-0.0639301
0.00117957
-0.0606776
0.00167013
-0.058052
0.00222617
-0.0559173
0.00283851
-0.054165
0.0034983
-0.0527091
0.00419724
-0.0514819
0.00492765
-0.0504299
0.00568255
-0.0495112
0.00645563
-0.0486931
0.00724131
-0.04795
0.00803466
-0.0472624
0.00883138
-0.0466151
0.0096278
-0.0459966
0.0104208
-0.0453982
0.0112078
-0.0448134
0.0119866
-0.0442374
0.0127556
-0.0436666
0.0135135
-0.0430985
0.0142593
-0.042531
0.0149924
-0.0419625
0.0157124
-0.0413914
0.0164192
-0.040816
0.0171128
-0.0402345
0.0177931
-0.0396448
0.01846
-0.039044
-0.0384282
0.0191136
4.88041e-05
-0.0793912
0.000198953
-0.0731819
0.000447968
-0.0682282
0.000789584
-0.0642718
0.00121542
-0.0611034
0.00171608
-0.0585527
0.00228185
-0.056483
0.0029032
-0.0547863
0.003571
-0.0533769
0.00427673
-0.0521877
0.00501258
-0.0511658
0.00577143
-0.0502701
0.00654695
-0.0494686
0.00733351
-0.0487366
0.0081262
-0.0480551
0.00892077
-0.0474097
0.00971358
-0.0467895
0.0105016
-0.0461863
0.0112824
-0.0455942
0.0120538
-0.0450088
0.0128144
-0.0444272
0.0135629
-0.043847
0.0142985
-0.0432666
0.0150208
-0.0426848
0.0157295
-0.0421001
0.0164247
-0.0415111
0.0171063
-0.0409162
0.0177747
-0.0403131
0.0184298
-0.0396991
-0.0390702
0.0190718
5.12074e-05
-0.0794424
0.000207031
-0.0733378
0.000463844
-0.068485
0.000814493
-0.0646224
0.0012499
-0.0615388
0.0017601
-0.0590629
0.00233496
-0.0570579
0.00296458
-0.0554159
0.00363956
-0.0540519
0.00435119
-0.0528993
0.0050915
-0.0519061
0.00585329
-0.0510319
0.00663018
-0.0502455
0.00741654
-0.049523
0.00820747
-0.0488461
0.00899876
-0.048201
0.00978688
-0.0475776
0.0105689
-0.0469683
0.0113423
-0.0463676
0.0121054
-0.0457719
0.0128565
-0.0451783
0.0135948
-0.0445852
0.0143194
-0.0439913
0.0150301
-0.0433955
0.0157268
-0.0427968
0.0164096
-0.0421939
0.0170788
-0.0415853
0.0177346
-0.040969
0.0183774
-0.0403419
-0.0397003
0.0190075
5.35385e-05
-0.0794959
0.000214846
-0.0734991
0.000479171
-0.0687493
0.000838475
-0.0649817
0.00128297
-0.0619833
0.00180215
-0.0595821
0.00238543
-0.0576412
0.00302256
-0.056053
0.00370388
-0.0547333
0.00442049
-0.0536159
0.00516428
-0.0526499
0.00592799
-0.0517956
0.00670519
-0.0510227
0.00749026
-0.050308
0.00827834
-0.0496341
0.00906529
-0.048988
0.00984764
-0.0483599
0.0106226
-0.0477432
0.0113877
-0.0471328
0.0121414
-0.0465255
0.0128823
-0.0459192
0.0136094
-0.0453124
0.0143223
-0.0447042
0.0150207
-0.0440938
0.0157046
-0.0434807
0.0163744
-0.0428637
0.0170305
-0.0422414
0.0176734
-0.0416119
0.0183036
-0.0409721
-0.040318
0.0189213
5.58011e-05
-0.0795517
0.000222407
-0.0736657
0.000493952
-0.0690208
0.000861515
-0.0653493
0.00131461
-0.0624364
0.00184218
-0.0601096
0.00243318
-0.0582322
0.00307704
-0.0566969
0.00376385
-0.0554201
0.00448451
-0.0543366
0.00523081
-0.0533962
0.00599542
-0.0525602
0.00677188
-0.0517992
0.0075546
-0.0510907
0.00833877
-0.0504183
0.00912031
-0.0497695
0.00989587
-0.0491355
0.0106627
-0.04851
0.0114186
-0.0478887
0.012162
-0.0472689
0.0128917
-0.0466489
0.0136069
-0.0460276
0.0143073
-0.0454045
0.0149926
-0.0447792
0.0156633
-0.0441513
0.0163196
-0.04352
0.0169622
-0.042884
0.0175917
-0.0422414
0.0182088
-0.0415892
-0.0409232
0.018814
5.79977e-05
-0.0796097
0.000229714
-0.0738374
0.000508178
-0.0692993
0.000883597
-0.0657247
0.00134479
-0.0628976
0.00188013
-0.060645
0.00247816
-0.0588302
0.00312797
-0.0573467
0.0038194
-0.0561115
0.00454318
-0.0550604
0.00529101
-0.054144
0.00605549
-0.0533247
0.00683018
-0.0525738
0.00760951
-0.0518701
0.00838871
-0.0511975
0.00916383
-0.0505446
0.00993158
-0.0499032
0.0106894
-0.0492678
0.0114351
-0.0486345
0.0121674
-0.0480012
0.012885
-0.0473666
0.0135876
-0.0467301
0.0142747
-0.0460916
0.0149464
-0.045451
0.0156032
-0.0448081
0.0162455
-0.0441624
0.0168742
-0.0435127
0.0174899
-0.0428572
0.0180937
-0.0421929
-0.0415156
0.0186861
6.01279e-05
-0.0796699
0.000236762
-0.074014
0.000521841
-0.0695844
0.000904702
-0.0661075
0.00137347
-0.0633664
0.00191597
-0.0611875
0.00252032
-0.0594346
0.00317528
-0.0580017
0.00387046
-0.0568067
0.00459644
-0.0557864
0.00534482
-0.0548924
0.00610818
-0.054088
0.00688007
-0.0533457
0.00765497
-0.052645
0.0084282
-0.0519707
0.00919589
-0.0513123
0.00995488
-0.0506622
0.0107027
-0.0500156
0.0114374
-0.0493692
0.0121576
-0.0487214
0.0128626
-0.0480715
0.0135517
-0.0474192
0.0142249
-0.0467648
0.0148824
-0.0461086
0.0155248
-0.0454505
0.0161527
-0.0447903
0.016767
-0.044127
0.0173687
-0.0434589
0.0179588
-0.042783
-0.042095
0.0185382
6.21884e-05
-0.0797321
0.000243547
-0.0741954
0.00053493
-0.0698758
0.000924814
-0.0664974
0.00140064
-0.0638422
0.00194968
-0.0617365
0.00255962
-0.0600445
0.00321893
-0.058661
0.00391699
-0.0575047
0.00464425
-0.0565136
0.00539221
-0.0556403
0.00615345
-0.0548493
0.00692154
-0.0541138
0.00769102
-0.0534144
0.00845729
-0.052737
0.00921659
-0.0520716
0.00996589
-0.0514115
0.0107028
-0.0507525
0.0114256
-0.050092
0.0121331
-0.0494289
0.0128245
-0.0487629
0.0134996
-0.0480943
0.0141583
-0.0474235
0.014801
-0.0467513
0.0154285
-0.0460779
0.0160416
-0.0454033
0.0166412
-0.0447266
0.0172286
-0.0440463
0.0178048
-0.0433593
-0.0426612
0.018371
6.41777e-05
-0.0797962
0.00025006
-0.0743813
0.000547434
-0.0701731
0.00094392
-0.0668939
0.00142627
-0.0643246
0.00198122
-0.0622915
0.00259605
-0.0606593
0.0032589
-0.0593238
0.00395898
-0.0582048
0.00468659
-0.0572412
0.00543318
-0.0563869
0.00619133
-0.0556074
0.00695464
-0.0548771
0.00771771
-0.0541775
0.00847607
-0.0534954
0.00922606
-0.0528216
0.00996478
-0.0521503
0.01069
-0.0514777
0.0114001
-0.0508021
0.0120941
-0.0501229
0.0127713
-0.0494401
0.0134316
-0.0487545
0.0140752
-0.0480672
0.0147027
-0.0473788
0.0153148
-0.0466901
0.0159126
-0.0460011
0.0164972
-0.0453113
0.01707
-0.044619
0.0176322
-0.0439215
-0.0432141
0.0181851
6.6092e-05
-0.0798623
0.000256298
-0.0745715
0.000559348
-0.0704762
0.000962012
-0.0672966
0.00145036
-0.0648129
0.00201059
-0.0628517
0.00262958
-0.0612783
0.00329519
-0.0599894
0.00399642
-0.058906
0.00472347
-0.0579683
0.00546776
-0.0571312
0.00622185
-0.0563615
0.00697942
-0.0556347
0.00773516
-0.0549333
0.00848469
-0.0542449
0.00922448
-0.0535614
0.00995178
-0.0528775
0.0106645
-0.0521904
0.0113612
-0.0514988
0.0120409
-0.0508026
0.0127033
-0.0501024
0.0133482
-0.0493995
0.0139762
-0.0486951
0.0145878
-0.0479904
0.0151841
-0.0472864
0.0157662
-0.0465832
0.0163355
-0.0458806
0.0168935
-0.045177
0.0174415
-0.0444695
-0.0437536
0.017981
6.79292e-05
-0.0799303
0.000262255
-0.0747658
0.000570668
-0.0707846
0.000979092
-0.067705
0.00147291
-0.0653067
0.0020378
-0.0634166
0.00266023
-0.0619008
0.0033278
-0.060657
0.00402933
-0.0596076
0.00475493
-0.0586939
0.00549598
-0.0578723
0.0062451
-0.0571106
0.00699601
-0.0563856
0.0077435
-0.0556808
0.00848332
-0.0549847
0.00921207
-0.0542901
0.00992714
-0.0535926
0.0106266
-0.0528899
0.0113091
-0.0521813
0.011974
-0.0514674
0.0126208
-0.0507493
0.0132499
-0.0500285
0.0138616
-0.0493068
0.0144569
-0.0485857
0.0150369
-0.0478664
0.015603
-0.0471493
0.0161566
-0.0464342
0.0166995
-0.0457198
0.017233
-0.0450031
-0.0442795
0.017759
6.96852e-05
-0.0799999
0.000267929
-0.074964
0.000581397
-0.0710981
0.000995166
-0.0681188
0.00149394
-0.0658055
0.00206285
-0.0639855
0.00268802
-0.0625259
0.00335676
-0.0613257
0.00405774
-0.0603085
0.00478101
-0.0594171
0.00551794
-0.0586092
0.00626118
-0.0578539
0.00700454
-0.057129
0.00774292
-0.0564191
0.00847219
-0.055714
0.0091891
-0.0550071
0.00989118
-0.0542947
0.0105767
-0.0535754
0.0112444
-0.0528491
0.0118937
-0.0521168
0.0125245
-0.0513801
0.0131371
-0.0506411
0.0137321
-0.0499018
0.0143105
-0.0491642
0.0148738
-0.0484296
0.0154233
-0.0476988
0.0159608
-0.0469718
0.0164882
-0.0462471
0.0170071
-0.045522
-0.0447917
0.0175193
7.13568e-05
-0.0800713
0.00027332
-0.075166
0.000591545
-0.0714163
0.00101026
-0.0685375
0.00151347
-0.0663087
0.0020858
-0.0645578
0.00271298
-0.0631531
0.00338211
-0.0619949
0.00408172
-0.0610081
0.0048018
-0.0601372
0.00553373
-0.0593412
0.00627022
-0.0585904
0.00700518
-0.0578639
0.00773361
-0.0571476
0.00845154
-0.0564319
0.00915587
-0.0557114
0.00984426
-0.0549831
0.0105151
-0.0542462
0.0111674
-0.0535013
0.0118006
-0.05275
0.0124148
-0.0519943
0.0130104
-0.0512367
0.0135881
-0.0504796
0.0141492
-0.0497253
0.0146952
-0.0489755
0.0152277
-0.0482313
0.0157486
-0.0474927
0.0162601
-0.0467586
0.0167639
-0.0460259
-0.0452898
0.0172621
7.29417e-05
-0.0801442
0.000278434
-0.0753715
0.000601134
-0.071739
0.0010244
-0.0689608
0.00153154
-0.0668158
0.00210666
-0.0651329
0.00273516
-0.0637816
0.00340391
-0.0626636
0.00410133
-0.0617056
0.00481738
-0.0608533
0.00554348
-0.0600672
0.00627239
-0.0593193
0.00699813
-0.0585897
0.00771585
-0.0578653
0.0084217
-0.0571378
0.00911274
-0.0564024
0.0097868
-0.0556572
0.0104424
-0.0549018
0.0110787
-0.0541376
0.0116953
-0.0533666
0.0122924
-0.0525913
0.0128704
-0.0518147
0.0134304
-0.0510396
0.0139737
-0.0502685
0.0145018
-0.0495036
0.0150167
-0.0487462
0.0155205
-0.0479966
0.0160155
-0.0472535
0.0165039
-0.0465142
-0.0457736
0.0169877
7.44352e-05
-0.0802187
0.000283283
-0.0755803
0.000610197
-0.0720659
0.00103763
-0.0693882
0.0015482
-0.0673264
0.00212552
-0.0657103
0.00275463
-0.0644107
0.00342224
-0.0633312
0.00411667
-0.0624
0.00482788
-0.0615645
0.00554732
-0.0607867
0.00626786
-0.0600398
0.00698362
-0.0593054
0.0076899
-0.0585716
0.00838299
-0.0578309
0.00906011
-0.0570795
0.00971925
-0.0563163
0.0103591
-0.0555417
0.0109789
-0.0547574
0.0115784
-0.0539661
0.0121579
-0.0531708
0.012718
-0.0523748
0.0132598
-0.0515814
0.0137846
-0.0507934
0.0142944
-0.0500134
0.0147911
-0.0492429
0.0152771
-0.0484826
0.015755
-0.0477314
0.0162272
-0.0469865
-0.0462425
0.0166961
7.58362e-05
-0.0802945
0.000287892
-0.0757924
0.000618788
-0.0723968
0.00105004
-0.0698194
0.00156355
-0.0678399
0.00214243
-0.0662891
0.00277146
-0.0650398
0.00343717
-0.0639969
0.00412783
-0.0630907
0.00483341
-0.0622701
0.00554543
-0.0614987
0.00625684
-0.0607512
0.00696191
-0.0600105
0.00765607
-0.0592657
0.00833579
-0.0585106
0.00899842
-0.0577422
0.00964213
-0.05696
0.0102657
-0.0561653
0.0108686
-0.0553603
0.0114506
-0.0545482
0.0120122
-0.0537324
0.0125539
-0.0529166
0.0130771
-0.0521045
0.013583
-0.0512994
0.0140738
-0.0505041
0.0145516
-0.0497207
0.0150191
-0.0489501
0.015479
-0.0481914
0.0159343
-0.0474417
-0.0466956
0.0163874
7.71469e-05
-0.0803717
0.000292304
-0.0760076
0.000626991
-0.0727315
0.00106172
-0.0702542
0.00157766
-0.0683559
0.00215749
-0.066869
0.00278574
-0.065668
0.0034488
-0.06466
0.00413493
-0.0637768
0.00483412
-0.0629693
0.00553797
-0.0622026
0.00623956
-0.0614528
0.00693327
-0.0607042
0.00761471
-0.0599472
0.00828049
-0.0591764
0.00892815
-0.0583898
0.00955599
-0.0575878
0.010163
-0.0567722
0.0107486
-0.0559459
0.0113128
-0.0551124
0.0118561
-0.0542757
0.0123792
-0.0534397
0.0128833
-0.0526086
0.01337
-0.051786
0.0138412
-0.0509753
0.0142993
-0.0501789
0.0147472
-0.049398
0.0151882
-0.0486323
0.0156254
-0.0478789
-0.047132
0.0160618
7.83838e-05
-0.08045
0.000296599
-0.0762258
0.000634929
-0.0730698
0.00107279
-0.070692
0.00159065
-0.0688737
0.0021708
-0.0674491
0.00279754
-0.0662948
0.00345722
-0.0653197
0.00413807
-0.0644577
0.00483015
-0.0636613
0.00552513
-0.0628975
0.00621623
-0.0621439
0.00689799
-0.061386
0.00756615
-0.0606153
0.00821752
-0.0598277
0.00884979
-0.0590221
0.00946141
-0.0581995
0.0100515
-0.0573623
0.0106196
-0.056514
0.0111659
-0.0556587
0.0116908
-0.0548005
0.012195
-0.053944
0.0126799
-0.0530934
0.0131468
-0.052253
0.0135979
-0.0514264
0.0140355
-0.0506165
0.0144629
-0.0498254
0.0148835
-0.0490529
0.0153012
-0.0482966
-0.0475503
0.0157195
7.9589e-05
-0.0805296
0.000300919
-0.0764471
0.000642785
-0.0734117
0.00108342
-0.0711327
0.00160265
-0.0693929
0.00218244
-0.0680289
0.00280697
-0.0669193
0.00346252
-0.0659752
0.00413737
-0.0651325
0.00482162
-0.0643456
0.00550708
-0.063583
0.00618708
-0.0628239
0.00685633
-0.0620552
0.00751075
-0.0612697
0.0081473
-0.0604643
0.00876385
-0.0596386
0.00935899
-0.0587946
0.00993197
-0.0579353
0.0104825
-0.0570646
0.0110108
-0.0561869
0.0115172
-0.055307
0.0120027
-0.0544294
0.0124682
-0.0535589
0.0129152
-0.0527
0.0133457
-0.0518569
0.0137622
-0.051033
0.0141678
-0.050231
0.0145665
-0.0494517
0.0149629
-0.048693
-0.0479485
0.0153611
8.08777e-05
-0.0806105
0.000305512
-0.0766717
0.000650826
-0.073757
0.00109383
-0.0715757
0.0016138
-0.0699129
0.00219252
-0.0686076
0.00281408
-0.0675408
0.00346478
-0.0666259
0.00413291
-0.0658006
0.00480868
-0.0650213
0.00548399
-0.0642583
0.00615234
-0.0634922
0.00680859
-0.0627115
0.00744884
-0.06191
0.00807024
-0.0610857
0.00867082
-0.0602392
0.00924935
-0.0593731
0.00980519
-0.0584911
0.0103382
-0.0575976
0.0108485
-0.0566973
0.0113367
-0.0557952
0.0118035
-0.0548962
0.01225
-0.0540053
0.0126772
-0.0531273
0.013087
-0.0522667
0.0134817
-0.0514277
0.0138645
-0.0506138
0.0142396
-0.0498268
0.0146122
-0.0490656
-0.048324
0.0149877
8.25058e-05
-0.080693
0.000310796
-0.0769
0.00065941
-0.0741056
0.00110424
-0.0720205
0.00162424
-0.0704329
0.00220111
-0.0691845
0.00281895
-0.0681587
0.00346406
-0.067271
0.00412479
-0.0664614
0.00479143
-0.065688
0.00545601
-0.0649229
0.00611219
-0.0641484
0.006755
-0.0633543
0.00738073
-0.0625357
0.00798671
-0.0616917
0.00857117
-0.0608237
0.00913302
-0.059935
0.00967178
-0.0590299
0.0101874
-0.0581132
0.0106801
-0.05719
0.0111505
-0.0562656
0.0115993
-0.055345
0.0120271
-0.0544332
0.0124352
-0.0535354
0.0128248
-0.0526563
0.0131978
-0.0518007
0.0135569
-0.0509729
0.0139066
-0.0501764
0.0142527
-0.0494118
-0.0486735
0.0146022
8.49716e-05
-0.080778
0.000317395
-0.0771324
0.00066898
-0.0744572
0.00111489
-0.0724664
0.00163406
-0.0709521
0.00220825
-0.0697587
0.00282159
-0.068772
0.00346039
-0.0679098
0.00411305
-0.067114
0.00476995
-0.0663449
0.00542327
-0.0655762
0.0060668
-0.0647919
0.00669578
-0.0639833
0.00730669
-0.0631466
0.00789706
-0.062282
0.00846529
-0.0613919
0.0090105
-0.0604802
0.00953234
-0.0595517
0.0100309
-0.0586117
0.0105065
-0.0576657
0.0109597
-0.0567188
0.0113912
-0.0557765
0.0118017
-0.0548437
0.0121918
-0.0539255
0.0125624
-0.0530269
0.0129147
-0.0521529
0.0132506
-0.0513088
0.0135737
-0.0504996
0.0138904
-0.0497285
-0.0489929
0.0142098
8.92031e-05
-0.0808672
0.00032628
-0.0773695
0.000680091
-0.074811
0.00112599
-0.0729123
0.0016433
-0.0714694
0.00221392
-0.0703293
0.00282197
-0.0693801
0.00345376
-0.0685416
0.00409773
-0.067758
0.00474432
-0.0669915
0.00538585
-0.0662177
0.0060163
-0.0654224
0.00663109
-0.0645981
0.00722692
-0.0637425
0.00780152
-0.0628566
0.0083535
-0.0619439
0.00888215
-0.0610088
0.0093873
-0.0600569
0.00986919
-0.0590936
0.0103283
-0.0581247
0.0107652
-0.0571558
0.0111807
-0.0561919
0.0115752
-0.0552383
0.0119494
-0.0542996
0.0123034
-0.0533809
0.0126375
-0.052487
0.0129523
-0.0516236
0.0132494
-0.0507967
0.0135341
-0.0500132
-0.0492777
0.0138189
9.76493e-05
-0.0809648
0.000339441
-0.0776113
0.00069355
-0.0751651
0.00113769
-0.0733564
0.00165189
-0.0719836
0.00221801
-0.0708954
0.00282002
-0.0699821
0.00344414
-0.0691657
0.00407881
-0.0683927
0.00471455
-0.0676272
0.00534383
-0.066847
0.00596079
-0.0660393
0.00656107
-0.0651984
0.00714158
-0.064323
0.00770028
-0.0634153
0.00823597
-0.0624796
0.00874818
-0.061521
0.00923691
-0.0605456
0.00970257
-0.0595593
0.0101458
-0.058568
0.0105675
-0.0575774
0.0109683
-0.0565927
0.0113489
-0.0556189
0.0117098
-0.0546605
0.012051
-0.053722
0.0123719
-0.0528079
0.0126711
-0.0519228
0.0129465
-0.0510721
0.0131985
-0.0502652
-0.0495246
0.0134454
0.000118088
-0.0810829
0.000359849
-0.0778531
0.000709635
-0.0755149
0.00114961
-0.0737964
0.00165941
-0.0724934
0.0022202
-0.0714562
0.00281553
-0.0705774
0.0034314
-0.0697816
0.00405624
-0.0690175
0.00468064
-0.0682516
0.00529721
-0.0674636
0.0059003
-0.0666424
0.00648577
-0.0657838
0.00705074
-0.0648879
0.0075934
-0.063958
0.00811279
-0.062999
0.00860862
-0.0620169
0.00908113
-0.0610181
0.00953094
-0.0600091
0.00995892
-0.058996
0.0103661
-0.0579846
0.0107536
-0.0569802
0.0111225
-0.0559878
0.0114737
-0.0550117
0.0118078
-0.0540561
0.0121247
-0.0531248
0.0124226
-0.0522208
0.0126948
-0.0513442
0.0129264
-0.0504968
-0.0497129
0.0131146
0.0835225
9.09985e-05
-0.0836135
0.0834419
8.06595e-05
0.0833644
7.75191e-05
0.0832874
7.69493e-05
0.0832099
7.74682e-05
0.0831314
7.84988e-05
0.0830517
7.97233e-05
0.0829707
8.09768e-05
0.0828886
8.21797e-05
0.0828053
8.33017e-05
0.0827209
8.43292e-05
0.0826357
8.52564e-05
0.0825496
8.60837e-05
0.0824628
8.68103e-05
0.0823753
8.74377e-05
0.0822874
8.79655e-05
0.082199
8.83949e-05
0.0821103
8.87259e-05
0.0820213
8.89561e-05
0.0819322
8.90854e-05
0.0818431
8.911e-05
0.0817541
8.90245e-05
0.0816653
8.88162e-05
0.0815768
8.84681e-05
0.0814889
8.79421e-05
0.0814017
8.71653e-05
0.0813157
8.59787e-05
0.0812317
8.40106e-05
0.0811516
8.00921e-05
6.868e-05
0.0840249
0.000260698
-0.0841946
0.0838492
0.000256443
0.0836702
0.000256452
0.0834882
0.000258963
0.0833029
0.000262778
0.0831141
0.000267311
0.0829216
0.000272177
0.0827255
0.00027711
0.0825257
0.000281951
0.0823224
0.000286603
0.0821158
0.000291011
0.0819059
0.000295139
0.081693
0.000298964
0.0814773
0.000302475
0.0812591
0.000305663
0.0810385
0.000308521
0.0808159
0.000311045
0.0805914
0.000313233
0.0803653
0.000315076
0.0801378
0.00031657
0.0799092
0.000317703
0.0796797
0.000318463
0.0794497
0.000318821
0.0792195
0.000318736
0.0789893
0.000318137
0.0787596
0.000316896
0.0785308
0.000314773
0.0783035
0.000311291
0.0780782
0.000305353
0.000293821
0.0843914
0.000477646
-0.0846084
0.0841626
0.000485262
0.0839247
0.000494288
0.0836792
0.000504556
0.0834264
0.000515567
0.0831667
0.000526981
0.0829003
0.000538532
0.0826275
0.000549991
0.0823482
0.000561191
0.0820628
0.000572014
0.0817715
0.000582371
0.0814744
0.000592199
0.0811719
0.000601452
0.0808643
0.0006101
0.0805518
0.000618121
0.0802348
0.000625496
0.0799137
0.000632211
0.0795887
0.000638256
0.0792601
0.000643615
0.0789284
0.000648276
0.0785939
0.000652221
0.0782569
0.000655426
0.0779179
0.000657855
0.0775772
0.000659456
0.0772352
0.000660146
0.0768923
0.000659791
0.0765489
0.000658176
0.0762052
0.000654935
0.0758612
0.000649391
0.000640106
0.0845216
0.000717501
-0.0847614
0.0842676
0.000739209
0.0840011
0.000760842
0.083723
0.000782616
0.0834342
0.00080441
0.0831351
0.000826077
0.0828262
0.000847466
0.0825077
0.000868423
0.0821801
0.000888814
0.0818436
0.000908532
0.0814985
0.000927483
0.0811451
0.000945586
0.0807838
0.000962782
0.0804148
0.000979026
0.0800387
0.000994283
0.0796556
0.00100852
0.0792661
0.00102172
0.0788705
0.00103385
0.0784693
0.00104489
0.0780627
0.00105482
0.0776513
0.00106361
0.0772355
0.00107124
0.0768157
0.00107767
0.0763923
0.00108283
0.0759658
0.00108665
0.0755366
0.00108902
0.075105
0.00108977
0.0746713
0.00108866
0.0742354
0.00108531
0.00107906
0.0843728
0.000960561
-0.0846158
0.084114
0.000998038
0.0838401
0.0010347
0.083552
0.00107075
0.0832502
0.00110619
0.0829353
0.00114097
0.0826077
0.00117501
0.082268
0.00120819
0.0819164
0.00124042
0.0815533
0.00127162
0.0811791
0.00130169
0.0807941
0.00133054
0.0803988
0.00135812
0.0799934
0.00138436
0.0795785
0.00140922
0.0791544
0.00143266
0.0787215
0.00145463
0.0782802
0.00147512
0.077831
0.00149407
0.0773743
0.00151148
0.0769107
0.00152729
0.0764404
0.00154148
0.0759641
0.001554
0.0754821
0.00156479
0.074995
0.0015738
0.0745031
0.00158093
0.0740068
0.00158606
0.0735064
0.00158905
0.073002
0.00158969
0.00158768
0.0839377
0.00119262
-0.0841698
0.0836885
0.00124731
0.0834224
0.00130078
0.08314
0.00135314
0.0828418
0.00140442
0.0825282
0.00145457
0.0821996
0.00150354
0.0818566
0.00155124
0.0814994
0.0015976
0.0811285
0.00164255
0.0807442
0.00168599
0.0803469
0.00172783
0.079937
0.001768
0.0795149
0.00180645
0.079081
0.00184311
0.0786358
0.00187793
0.0781795
0.00191087
0.0777128
0.00194187
0.077236
0.0019709
0.0767495
0.00199792
0.0762539
0.00202289
0.0757496
0.00204576
0.0752371
0.00206649
0.0747169
0.00208503
0.0741894
0.00210131
0.073655
0.00211528
0.0731143
0.00212684
0.0725674
0.00213592
0.0720147
0.0021424
0.00214613
0.0832334
0.00140422
-0.083445
0.0830034
0.0014773
0.0827553
0.00154889
0.0824894
0.00161905
0.0822061
0.00168776
0.0819057
0.00175498
0.0815885
0.00182065
0.0812551
0.00188469
0.0809057
0.00194703
0.0805406
0.00200759
0.0801603
0.00206628
0.0797652
0.002123
0.0793555
0.00217769
0.0789317
0.00223027
0.0784941
0.00228066
0.0780432
0.00232881
0.0775794
0.00237466
0.0771032
0.00241815
0.0766148
0.00245923
0.0761149
0.00249786
0.0756038
0.00253397
0.075082
0.00256752
0.0745501
0.00259847
0.0740083
0.00262676
0.0734573
0.00265234
0.0728974
0.00267515
0.0723291
0.00269513
0.0717528
0.00271223
0.0711688
0.0027264
0.00273754
0.082291
0.00158972
-0.0824765
0.0820863
0.00168202
0.0818625
0.00177267
0.0816199
0.00186165
0.0813588
0.00194892
0.0810793
0.00203443
0.0807819
0.00211808
0.0804668
0.00219981
0.0801343
0.00227953
0.0797847
0.00235716
0.0794184
0.00243259
0.0790357
0.00250572
0.0786369
0.00257647
0.0782224
0.00264476
0.0777926
0.0027105
0.0773478
0.00277363
0.0768883
0.00283406
0.0764148
0.00289174
0.0759274
0.0029466
0.0754267
0.00299857
0.074913
0.00304761
0.0743869
0.00309364
0.0738488
0.00313662
0.073299
0.0031765
0.0727382
0.00321322
0.0721666
0.00324672
0.0715847
0.00327698
0.070993
0.00330394
0.0703919
0.00332757
0.0033478
0.0811488
0.00174637
-0.0813055
0.0809724
0.00185841
0.0807764
0.00196869
0.0805609
0.00207714
0.0803261
0.00218371
0.0800723
0.0022883
0.0797995
0.00239082
0.0795082
0.00249117
0.0791984
0.00258927
0.0788706
0.00268501
0.0785249
0.00277828
0.0781616
0.00286897
0.0777811
0.00295698
0.0773837
0.00304221
0.0769696
0.00312458
0.0765392
0.003204
0.0760929
0.00328038
0.075631
0.00335364
0.0751539
0.0034237
0.074662
0.0034905
0.0741556
0.00355396
0.0736353
0.00361401
0.0731013
0.0036706
0.0725541
0.00372367
0.0719942
0.00377316
0.0714219
0.00381901
0.0708376
0.0038612
0.0702419
0.00389967
0.0696351
0.00393442
0.00396536
0.0798471
0.00187357
-0.0799743
0.0796999
0.00200558
0.0795328
0.00213577
0.0793459
0.00226404
0.0791393
0.0023903
0.0789132
0.00251444
0.0786677
0.00263634
0.078403
0.00275589
0.0781192
0.002873
0.0778167
0.00298755
0.0774956
0.0030994
0.0771561
0.00320843
0.0767985
0.00331454
0.0764231
0.00341762
0.0760302
0.00351756
0.0756199
0.00361425
0.0751927
0.00370761
0.0747488
0.00379753
0.0742886
0.00388393
0.0738123
0.00396672
0.0733205
0.00404583
0.0728133
0.00412117
0.0722912
0.00419267
0.0717546
0.00426027
0.0712039
0.00432391
0.0706394
0.00438352
0.0700615
0.00443907
0.0694706
0.00449052
0.0688672
0.00453784
0.00458097
0.0784249
0.00197224
-0.0785235
0.0783062
0.00212423
0.0781676
0.00227435
0.0780092
0.00242252
0.0778309
0.0025686
0.0776328
0.00271246
0.0774152
0.00285396
0.0771781
0.00299299
0.0769217
0.00312944
0.0766461
0.00326317
0.0763514
0.00339403
0.076038
0.0035219
0.0757059
0.00364664
0.0753554
0.00376813
0.0749866
0.00388626
0.0746
0.00400092
0.0741956
0.00411198
0.0737738
0.00421934
0.0733348
0.00432291
0.072879
0.00442258
0.0724065
0.00451826
0.0719178
0.00460986
0.0714132
0.0046973
0.070893
0.0047805
0.0703575
0.00485939
0.0698071
0.00493392
0.0692421
0.00500402
0.068663
0.00506967
0.06807
0.00513081
0.00518739
0.0769182
0.00204435
-0.0769903
0.0768263
0.00221611
0.0767146
0.00238601
0.0765832
0.00255394
0.0764321
0.00271974
0.0762612
0.00288326
0.0760708
0.00304436
0.0758609
0.0032029
0.0756316
0.00335877
0.075383
0.0035118
0.0751152
0.00366183
0.0748284
0.00380873
0.0745226
0.00395235
0.0741982
0.00409257
0.0738552
0.00422925
0.0734939
0.00436226
0.0731144
0.00449148
0.0727169
0.00461678
0.0723018
0.00473806
0.0718692
0.00485521
0.0714193
0.00496811
0.0709525
0.00507667
0.070469
0.0051808
0.0699691
0.0052804
0.0694531
0.0053754
0.0689213
0.00546572
0.068374
0.00555131
0.0678116
0.00563212
0.0672343
0.00570811
0.00577921
0.0753587
0.00209248
-0.0754068
0.0752911
0.00228368
0.0752041
0.00247304
0.0750976
0.00266044
0.0749717
0.00284569
0.0748263
0.00302865
0.0746615
0.00320915
0.0744773
0.00338704
0.0742739
0.00356218
0.0740513
0.00373441
0.0738096
0.00390356
0.0735488
0.00406948
0.0732692
0.00423201
0.0729707
0.00439102
0.0726536
0.00454635
0.072318
0.00469787
0.0719641
0.00484544
0.0715919
0.00498894
0.0712017
0.00512823
0.0707938
0.00526319
0.0703682
0.00539371
0.0699252
0.00551967
0.069465
0.00564098
0.0689879
0.00575752
0.068494
0.00586921
0.0679838
0.00597598
0.0674574
0.00607774
0.066915
0.00617444
0.0663571
0.00626605
0.00635248
0.0737736
0.00211956
-0.0738007
0.0737275
0.00232976
0.0736624
0.00253816
0.0735783
0.00274461
0.073475
0.00294894
0.0733527
0.00315096
0.0732113
0.00335052
0.0730509
0.00354744
0.0728715
0.00374157
0.0726732
0.00393274
0.072456
0.00412078
0.0722199
0.00430551
0.0719652
0.00448679
0.0716917
0.00466446
0.0713997
0.00483835
0.0710893
0.00500833
0.0707605
0.00517425
0.0704134
0.00533596
0.0700483
0.00549333
0.0696653
0.00564623
0.0692645
0.00579453
0.068846
0.00593811
0.0684102
0.00607685
0.067957
0.00621064
0.0674869
0.00633939
0.0669998
0.00646298
0.0664962
0.00658136
0.0659762
0.00669446
0.06544
0.00680222
0.00690458
0.0721854
0.00212861
-0.0721944
0.0721578
0.00235731
0.0721117
0.00258427
0.072047
0.0028093
0.0719637
0.00303222
0.0718618
0.00325285
0.0717413
0.00347101
0.0716022
0.00368654
0.0714446
0.00389925
0.0712683
0.00410898
0.0710736
0.00431554
0.0708603
0.00451875
0.0706287
0.00471846
0.0703786
0.0049145
0.0701103
0.00510671
0.0698237
0.00529492
0.0695189
0.00547899
0.0691961
0.00565877
0.0688553
0.00583411
0.0684967
0.00600488
0.0681203
0.00617093
0.0677263
0.00633213
0.0673148
0.00648836
0.0668859
0.0066395
0.0664399
0.00678543
0.0659768
0.00692605
0.0654969
0.00706127
0.0650003
0.00719102
0.0644873
0.00731525
0.0074339
0.0706119
0.00212264
-0.070606
0.0705999
0.00236931
0.0705699
0.00261428
0.0705219
0.00285736
0.0704557
0.00309835
0.0703715
0.00333707
0.0702692
0.00357332
0.0701488
0.00380694
0.0700103
0.00403775
0.0698537