/*--------------------------------*- C++ -*----------------------------------*\
  =========                 |
  \\      /  F ield         | OpenFOAM: The Open Source CFD Toolbox
   \\    /   O peration     | Website:  https://openfoam.org
    \\  /    A nd           | Version:  6.0
     \\/     M anipulation  |
\*---------------------------------------------------------------------------*/
FoamFile
{
    version     2.0;
    format      ascii;
    class       surfaceScalarField;
    location    "8";
    object      phi;
}
// * * * * * * * * * * * * * * * * * * * * * * * * * * * * * * * * * * * * * //

dimensions      [0 3 -1 0 0 0 0];

internalField   nonuniform List<scalar> 
38030
(
2.42059e-05
-0.0790731
0.0790489
0.000136697
-0.0721918
0.0720793
0.000336812
-0.0665805
0.0663804
0.000621618
-0.0620079
0.061723
0.000986715
-0.0582774
0.0579123
0.00142609
-0.0552243
0.0547849
0.00193284
-0.0527139
0.0522071
0.00249968
-0.0506368
0.0500699
0.00311929
-0.0489049
0.0482853
0.00378457
-0.0474473
0.046782
0.00448875
-0.0462073
0.0455031
0.00522548
-0.0451393
0.0444025
0.00598889
-0.0442069
0.0434435
0.00677362
-0.0433811
0.0425963
0.0075748
-0.0426387
0.0418375
0.00838803
-0.0419612
0.041148
0.00920943
-0.041334
0.0405126
0.0100355
-0.0407454
0.0399193
0.0108633
-0.0401862
0.0393584
0.0116902
-0.039649
0.0388222
0.0125139
-0.039128
0.0383043
0.0133325
-0.0386184
0.0377998
0.0141444
-0.0381164
0.0373044
0.0149483
-0.0376187
0.0368148
0.015743
-0.0371225
0.0363278
0.0165275
-0.0366252
0.0358407
0.0173009
-0.0361242
0.0353508
0.0180623
-0.035617
0.0348555
0.0188109
-0.0351006
0.034352
-0.0345716
0.0338371
0.0195453
3.30669e-05
-0.0791062
0.000151662
-0.0723104
0.000359748
-0.0667886
0.000654804
-0.0623029
0.0010317
-0.0586543
0.00148377
-0.0556764
0.00200357
-0.0532337
0.00258335
-0.0512166
0.00321545
-0.049537
0.00389247
-0.0481243
0.00460742
-0.0469222
0.00535377
-0.0458856
0.00612552
-0.0449786
0.00691722
-0.0441728
0.00772393
-0.0434454
0.00854123
-0.0427785
0.00936523
-0.042158
0.0101925
-0.0415727
0.01102
-0.0410138
0.0118453
-0.0404743
0.0126661
-0.0399488
0.0134807
-0.0394329
0.0142874
-0.0389231
0.0150851
-0.0384164
0.0158728
-0.0379101
0.0166495
-0.0374019
0.0174146
-0.0368893
0.0181673
-0.0363697
0.0189069
-0.0358401
-0.035297
0.0196323
3.75331e-05
-0.0791437
0.00016336
-0.0724362
0.000380546
-0.0670058
0.00068635
-0.0626087
0.00107512
-0.059043
0.00153967
-0.0561409
0.00207206
-0.0537661
0.00266419
-0.0518087
0.00330805
-0.0501808
0.00399596
-0.0488122
0.00472072
-0.047647
0.00547566
-0.0466405
0.00625464
-0.0457576
0.00705213
-0.0449702
0.00786314
-0.0442564
0.00868325
-0.0435986
0.00950855
-0.0429833
0.0103357
-0.0423998
0.0111616
-0.0418398
0.011984
-0.0412967
0.0128006
-0.0407654
0.0136098
-0.0402421
0.0144101
-0.0397234
0.0152005
-0.0392067
0.0159799
-0.0386896
0.0167478
-0.0381698
0.0175035
-0.037645
0.0182465
-0.0371126
0.0189761
-0.0365697
-0.0360125
0.0196916
4.08964e-05
-0.0791846
0.000173679
-0.072569
0.000400047
-0.0672321
0.000716585
-0.0629252
0.00111705
-0.0594435
0.00159371
-0.0566176
0.00213821
-0.0543106
0.00274204
-0.0524125
0.00339688
-0.0508357
0.00409481
-0.0495102
0.00482842
-0.0483806
0.00559088
-0.047403
0.00637596
-0.0465427
0.00717805
-0.0457723
0.00799214
-0.0450705
0.00881378
-0.0444203
0.00963911
-0.0438086
0.0104648
-0.0432255
0.0112879
-0.0426629
0.012106
-0.0421148
0.0129172
-0.0415766
0.0137198
-0.0410447
0.0145126
-0.0405162
0.0152944
-0.0399886
0.0160646
-0.0394598
0.0168226
-0.0389278
0.0175679
-0.0383903
0.0183002
-0.0378449
0.019019
-0.0372885
-0.0367172
0.0197237
4.38415e-05
-0.0792284
0.000183264
-0.0727084
0.000418637
-0.0674675
0.000745695
-0.0632523
0.00115753
-0.0598553
0.00164587
-0.057106
0.0022019
-0.0548666
0.00281674
-0.0530273
0.00348175
-0.0515007
0.00418879
-0.0502172
0.00493025
-0.0491221
0.00569916
-0.0481719
0.00648921
-0.0473327
0.00729472
-0.0465778
0.00811065
-0.0458864
0.00893259
-0.0452422
0.00975668
-0.0446327
0.0105796
-0.0440484
0.0113986
-0.0434819
0.0122113
-0.0429275
0.0130159
-0.0423812
0.0138107
-0.0418396
0.0145947
-0.0413002
0.015367
-0.0407608
0.0161269
-0.0402197
0.0168741
-0.0396749
0.0176081
-0.0391243
0.0183288
-0.0385656
0.019036
-0.0379957
-0.0374105
0.0197293
4.65767e-05
-0.079275
0.000192379
-0.0728542
0.000436503
-0.0677116
0.000773772
-0.0635896
0.00119658
-0.0602781
0.00169609
-0.0576055
0.00226303
-0.0554335
0.00288814
-0.0536525
0.00356249
-0.052175
0.00427771
-0.0509324
0.005026
-0.0498704
0.00580028
-0.0489462
0.00659414
-0.0481266
0.00740188
-0.0473856
0.00821844
-0.046703
0.00903943
-0.0460632
0.00986104
-0.0454543
0.01068
-0.0448674
0.0114937
-0.0442955
0.0122998
-0.0437336
0.0130965
-0.0431779
0.0138825
-0.0426256
0.0146568
-0.0420744
0.0154184
-0.0415225
0.0161671
-0.0409684
0.0169025
-0.0404103
0.0176245
-0.0398463
0.0183329
-0.0392741
0.0190278
-0.0386906
-0.0380917
0.019709
4.91867e-05
-0.0793242
0.000201141
-0.0730062
0.000453732
-0.0679642
0.000800856
-0.0639367
0.00123418
-0.0607115
0.00174431
-0.0581156
0.00232149
-0.0560107
0.0029561
-0.0542871
0.00363894
-0.0528579
0.00436137
-0.0516549
0.00511546
-0.0506244
0.00589401
-0.0497247
0.00669055
-0.0489231
0.00749934
-0.0481944
0.00831532
-0.0475189
0.00913415
-0.046882
0.00995205
-0.0462722
0.0107659
-0.0456812
0.011573
-0.0451027
0.0123714
-0.044532
0.0131592
-0.0439658
0.0139353
-0.0434017
0.0146988
-0.0428378
0.0154489
-0.0422727
0.0161855
-0.041705
0.0169084
-0.0411331
0.0176175
-0.0405554
0.018313
-0.0399696
0.018995
-0.0393726
-0.0387602
0.0196636
5.17042e-05
-0.0793759
0.000209603
-0.0731641
0.000470365
-0.068225
0.000826957
-0.0642933
0.00127032
-0.0611548
0.00179046
-0.0586357
0.00237719
-0.0565975
0.00302052
-0.0549304
0.00371094
-0.0535483
0.00443962
-0.0523835
0.00519848
-0.0513833
0.0059802
-0.0505065
0.00677827
-0.0497212
0.00758692
-0.049003
0.00840114
-0.0483332
0.00921661
-0.0476975
0.0100296
-0.0470853
0.0108372
-0.0464887
0.0116367
-0.0459022
0.0124261
-0.0453214
0.013204
-0.0447437
0.0139692
-0.0441669
0.014721
-0.0435896
0.0154588
-0.0430105
0.0161825
-0.0424287
0.016892
-0.0418427
0.0175877
-0.0412511
0.0182697
-0.0406516
0.0189383
-0.0400413
-0.0394157
0.0195938
5.41455e-05
-0.0794301
0.000217786
-0.0733277
0.000486412
-0.0684936
0.000852066
-0.0646589
0.00130495
-0.0616077
0.0018345
-0.0591653
0.00243006
-0.057193
0.00308128
-0.0555816
0.00377838
-0.0542454
0.00451233
-0.0531175
0.0052749
-0.0521459
0.0060587
-0.0512903
0.00685715
-0.0505197
0.00766452
-0.0498104
0.00847581
-0.0491445
0.00928675
-0.0485084
0.0100937
-0.0478923
0.0108938
-0.0472888
0.0116846
-0.0466929
0.0124642
-0.046101
0.0132312
-0.0455107
0.0139845
-0.0449203
0.0147237
-0.0443287
0.0154483
-0.0437351
0.0161584
-0.0431387
0.016854
-0.0425384
0.0175357
-0.0419327
0.0182036
-0.0413196
0.0188584
-0.0406961
-0.0400577
0.0195005
5.6514e-05
-0.0794866
0.000225697
-0.0734969
0.000501873
-0.0687698
0.000876164
-0.0650332
0.00133805
-0.0620696
0.00187637
-0.0597036
0.00248002
-0.0577967
0.00313829
-0.0562399
0.00384116
-0.0549483
0.00457939
-0.0538557
0.00534462
-0.0529111
0.00612939
-0.052075
0.00692711
-0.0513174
0.00773205
-0.0506153
0.00853926
-0.0499517
0.00934454
-0.0493137
0.0101444
-0.0486921
0.010936
-0.0480804
0.011717
-0.047474
0.0124857
-0.0468697
0.0132408
-0.0462658
0.0139815
-0.0456609
0.0147073
-0.0450545
0.015418
-0.0444458
0.0161137
-0.0438345
0.0167949
-0.0432195
0.017462
-0.0425998
0.0181155
-0.0419732
0.0187561
-0.0413367
-0.040686
0.0193844
5.88116e-05
-0.0795454
0.000233335
-0.0736714
0.000516738
-0.0690532
0.000899231
-0.0654157
0.00136956
-0.0625399
0.00191601
-0.0602501
0.002527
-0.0584076
0.00319149
-0.0569044
0.00389919
-0.055656
0.00464071
-0.0545972
0.00540755
-0.0536779
0.00619221
-0.0528597
0.00698809
-0.0521133
0.00778948
-0.0514167
0.00859149
-0.0507537
0.00939001
-0.0501122
0.0101817
-0.0494838
0.0109637
-0.0488624
0.0117339
-0.0482442
0.0124908
-0.0476266
0.0132332
-0.0470082
0.0139604
-0.0463881
0.014672
-0.0457661
0.0153682
-0.045142
0.0160491
-0.0445154
0.0167152
-0.0438857
0.0173672
-0.0432518
0.0180059
-0.0426118
0.018632
-0.0419628
-0.0413003
0.0192463
6.10378e-05
-0.0796064
0.000240694
-0.0738511
0.000530996
-0.0693435
0.000921247
-0.065806
0.00139948
-0.0630182
0.00195339
-0.060804
0.00257095
-0.0590252
0.00324081
-0.0575742
0.00395242
-0.0563676
0.00469622
-0.055341
0.00546364
-0.0544454
0.00624712
-0.0536432
0.00704006
-0.0529062
0.00783681
-0.0522134
0.00863254
-0.0515494
0.00942324
-0.0509029
0.0102057
-0.0502662
0.0109771
-0.0496339
0.0117357
-0.0490028
0.0124799
-0.0483708
0.0132087
-0.047737
0.0139216
-0.047101
0.0146185
-0.046463
0.0152994
-0.0458229
0.0159648
-0.0451808
0.0166155
-0.0445363
0.0172521
-0.0438884
0.0178756
-0.0432354
0.018487
-0.0425742
-0.0419004
0.0190871
6.3189e-05
-0.0796696
0.00024777
-0.0740356
0.000544635
-0.0696403
0.000942193
-0.0662035
0.00142776
-0.0635037
0.00198846
-0.0613647
0.00261185
-0.0596486
0.00328621
-0.0582486
0.0040008
-0.0570822
0.00474591
-0.0560861
0.00551287
-0.0552123
0.00629411
-0.0544244
0.00708305
-0.0536952
0.00787408
-0.0530045
0.00866248
-0.0523378
0.00944435
-0.0516848
0.0102165
-0.0510384
0.0109766
-0.050394
0.0117225
-0.0497488
0.0124532
-0.0491014
0.0131677
-0.0484515
0.0138656
-0.047799
0.014547
-0.0471443
0.0152121
-0.046488
0.0158616
-0.0458303
0.0164963
-0.045171
0.0171172
-0.0445093
0.0177252
-0.0438434
0.0183216
-0.0431706
-0.0424862
0.0189074
6.52632e-05
-0.0797349
0.000254553
-0.0742249
0.000557644
-0.0699434
0.000962054
-0.0666079
0.00145439
-0.063996
0.00202122
-0.0619315
0.00264965
-0.060277
0.00332767
-0.0589266
0.00404432
-0.0577988
0.00478975
-0.0568316
0.00555525
-0.0559778
0.00633321
-0.0552024
0.0071171
-0.0544791
0.00790139
-0.0537888
0.00868145
-0.0531179
0.0094535
-0.0524568
0.0102145
-0.0517994
0.0109622
-0.0511416
0.0116948
-0.0504814
0.0124111
-0.0498178
0.0131105
-0.0491509
0.0137928
-0.0484813
0.0144581
-0.0478096
0.0151069
-0.0471368
0.01574
-0.0464634
0.0163583
-0.0457893
0.016963
-0.045114
0.0175554
-0.0444358
0.0181366
-0.0437519
-0.0430576
0.018708
6.72567e-05
-0.0798021
0.000261037
-0.0744187
0.000570015
-0.0702524
0.000980823
-0.0670188
0.00147936
-0.0644946
0.00205164
-0.0625038
0.00268436
-0.0609097
0.00336519
-0.0596074
0.00408298
-0.0585166
0.00482777
-0.0575764
0.0055908
-0.0567409
0.00636448
-0.055976
0.00714232
-0.0552569
0.00791887
-0.0545653
0.00868962
-0.0538886
0.00945091
-0.0532181
0.0101999
-0.0525484
0.0109343
-0.0518761
0.0116527
-0.0511997
0.012354
-0.0505191
0.0130377
-0.0498346
0.0137037
-0.0491473
0.0143523
-0.0484583
0.0149843
-0.0477688
0.0156005
-0.0470796
0.016202
-0.0463909
0.0167903
-0.0457023
0.0173667
-0.0450122
0.0179326
-0.0443178
-0.0436144
0.0184894
6.9167e-05
-0.0798713
0.00026722
-0.0746168
0.000581745
-0.0705669
0.0009985
-0.0674355
0.00150267
-0.0649988
0.00207974
-0.0630808
0.00271598
-0.061546
0.00339878
-0.0602903
0.00411681
-0.0592346
0.00486
-0.0583196
0.00561959
-0.0575004
0.006388
-0.0567445
0.00715881
-0.0560277
0.00792667
-0.0553332
0.00868718
-0.0546491
0.00943684
-0.0539678
0.0101729
-0.0532844
0.0108934
-0.0525965
0.0115968
-0.0519032
0.0122823
-0.0512046
0.0129496
-0.0505019
0.0135988
-0.0497964
0.0142303
-0.0490898
0.0148449
-0.0483834
0.0154437
-0.0476784
0.0160281
-0.0469753
0.0165996
-0.0462737
0.0171597
-0.0455723
0.0177101
-0.0448681
-0.0441566
0.0182522
7.099e-05
-0.0799423
0.000273096
-0.0748189
0.000592838
-0.0708867
0.00101509
-0.0678578
0.00152435
-0.065508
0.00210553
-0.063662
0.00274453
-0.062185
0.00342848
-0.0609742
0.00414585
-0.059952
0.00488653
-0.0590602
0.00564172
-0.0582556
0.00640391
-0.0575067
0.00716676
-0.0567905
0.00792501
-0.0560914
0.00867441
-0.0553985
0.0094116
-0.054705
0.010134
-0.0540068
0.0108397
-0.0533022
0.0115275
-0.0525909
0.0121967
-0.0518738
0.012847
-0.0511522
0.0134787
-0.0504282
0.0140925
-0.0497035
0.0146893
-0.0489802
0.0152703
-0.0482594
0.0158371
-0.0475421
0.0163914
-0.046828
0.016935
-0.0461159
0.0174696
-0.0454027
-0.0446839
0.0179969
7.27223e-05
-0.080015
0.000278667
-0.0750248
0.000603301
-0.0712113
0.00103062
-0.0682851
0.00154441
-0.0660218
0.00212905
-0.0642467
0.00277006
-0.062826
0.00345432
-0.0616585
0.00417017
-0.0606679
0.00490743
-0.0597975
0.00565731
-0.0590055
0.00641237
-0.0582617
0.00716635
-0.0575445
0.00791413
-0.0568392
0.0086516
-0.056136
0.00937553
-0.0554289
0.0100835
-0.0547148
0.0107738
-0.0539925
0.0114453
-0.0532625
0.0120975
-0.052526
0.0127304
-0.0517851
0.0133442
-0.051042
0.0139397
-0.0502991
0.0145182
-0.0495586
0.0150809
-0.0488222
0.0156297
-0.0480909
0.0161664
-0.0473647
0.016693
-0.0466425
0.0172115
-0.0459212
-0.0451962
0.0177237
7.43616e-05
-0.0800894
0.000283939
-0.0752344
0.000613159
-0.0715405
0.00104512
-0.0687171
0.00156289
-0.0665396
0.00215034
-0.0648341
0.00279262
-0.0634683
0.00347638
-0.0623422
0.00418985
-0.0613813
0.00492281
-0.0605304
0.00566651
-0.0597492
0.00641355
-0.0590088
0.00715782
-0.0582888
0.00789433
-0.0575757
0.00861908
-0.0568607
0.00932904
-0.0561389
0.0100219
-0.0554077
0.0106962
-0.0546668
0.0113509
-0.0539172
0.0119856
-0.0531607
0.0126004
-0.0523998
0.0131958
-0.0516374
0.0137726
-0.050876
0.0143322
-0.0501182
0.0148762
-0.0493662
0.0154064
-0.0486211
0.015925
-0.0478833
0.0164341
-0.0471516
0.0169361
-0.0464232
-0.045693
0.017433
7.59032e-05
-0.0801653
0.000288922
-0.0754474
0.000622444
-0.0718741
0.00105865
-0.0691533
0.00157987
-0.0670608
0.00216947
-0.0654237
0.00281227
-0.0641111
0.00349473
-0.0630247
0.00420499
-0.0620916
0.0049328
-0.0612583
0.00566946
-0.0604859
0.00640767
-0.059747
0.00714143
-0.0590226
0.0078659
-0.0583002
0.00857724
-0.0575721
0.00927256
-0.0568342
0.00994977
-0.0560849
0.0106074
-0.0553245
0.0112448
-0.0545545
0.0118615
-0.0537774
0.0124579
-0.0529962
0.0130344
-0.0522139
0.0135921
-0.0514337
0.0141324
-0.0506585
0.014657
-0.0498908
0.015168
-0.0491322
0.0156679
-0.0483831
0.016159
-0.0476427
0.0166439
-0.0469081
-0.046174
0.0171248
7.7346e-05
-0.0802426
0.000293643
-0.0756637
0.000631211
-0.0722116
0.00107127
-0.0695933
0.00159542
-0.0675849
0.00218652
-0.0660148
0.00282911
-0.0647537
0.00350948
-0.0637051
0.0042157
-0.0627978
0.00493755
-0.0619801
0.00566636
-0.0612147
0.00639496
-0.0604756
0.00711747
-0.0597451
0.00782919
-0.0590119
0.00852648
-0.0582694
0.00920659
-0.0575143
0.00986758
-0.0567459
0.0105082
-0.0559651
0.0111278
-0.0551741
0.0117262
-0.0543758
0.0123036
-0.0535736
0.0128609
-0.0527711
0.013399
-0.0519718
0.0139195
-0.051179
0.0144242
-0.0503955
0.0149155
-0.0496234
0.0153958
-0.0488634
0.015868
-0.048115
0.0163351
-0.0473751
-0.0466384
0.0167994
7.86921e-05
-0.0803213
0.000298145
-0.0758832
0.000639546
-0.072553
0.00108308
-0.0700368
0.00160963
-0.0681115
0.00220158
-0.0666068
0.00284322
-0.0653953
0.00352071
-0.0643825
0.0042221
-0.0634992
0.00493719
-0.0626952
0.0056574
-0.0619349
0.00637565
-0.0611938
0.00708622
-0.0604556
0.00778457
-0.0597102
0.00846723
-0.058952
0.00913162
-0.0581787
0.00977596
-0.0573902
0.0103991
-0.0565883
0.0110006
-0.0557756
0.0115804
-0.0549556
0.0121387
-0.054132
0.0126764
-0.0533088
0.0131946
-0.05249
0.0136949
-0.0516792
0.0141791
-0.0508798
0.0146498
-0.0500941
0.0151097
-0.0493234
0.0155621
-0.0485673
0.0160102
-0.0478232
-0.0470851
0.016457
7.99582e-05
-0.0804013
0.000302509
-0.0761057
0.000647573
-0.0728981
0.00109422
-0.0704835
0.00162262
-0.0686399
0.00221476
-0.0671989
0.0028547
-0.0660352
0.00352854
-0.0650564
0.00422432
-0.064195
0.00493189
-0.0634028
0.00564277
-0.0626458
0.00635
-0.061901
0.00704801
-0.0611536
0.00773243
-0.0603947
0.00839996
-0.0596196
0.00904821
-0.0588269
0.00967555
-0.0580176
0.010281
-0.0571937
0.0108642
-0.0563587
0.0114251
-0.0555164
0.0119641
-0.054671
0.0124821
-0.0538268
0.0129802
-0.0529881
0.0134598
-0.0521589
0.0139231
-0.051343
0.0143725
-0.0505434
0.014811
-0.0497619
0.0152422
-0.0489986
0.01567
-0.048251
-0.047513
0.0160978
8.11862e-05
-0.0804825
0.000306876
-0.0763314
0.000655476
-0.0732467
0.00110486
-0.0709329
0.00163453
-0.0691695
0.00222615
-0.0677905
0.00286364
-0.0666727
0.00353307
-0.0657258
0.00422248
-0.0648844
0.0049218
-0.0641021
0.00562266
-0.0633466
0.00631824
-0.0625966
0.00700313
-0.0618385
0.00767314
-0.0610647
0.00832514
-0.0602716
0.00895691
-0.0594587
0.00956699
-0.0586276
0.0101546
-0.0577813
0.0107193
-0.0569235
0.0112613
-0.0560585
0.0117811
-0.0551908
0.0122794
-0.0543251
0.0127572
-0.0534659
0.0132162
-0.0526178
0.013658
-0.0517849
0.0140854
-0.0509708
0.0145014
-0.0501779
0.01491
-0.0494072
0.0153156
-0.0486566
-0.0479199
0.0157226
8.24915e-05
-0.0805649
0.000311496
-0.0765604
0.000663523
-0.0735987
0.00111521
-0.0713846
0.0016455
-0.0696998
0.00223586
-0.0683809
0.00287014
-0.067307
0.00353438
-0.0663901
0.00421669
-0.0655667
0.00490707
-0.0647925
0.00559727
-0.0640368
0.00628063
-0.06328
0.0069519
-0.0625098
0.00760707
-0.0617198
0.0082432
-0.0609077
0.00885825
-0.0600737
0.00945093
-0.0592203
0.0100206
-0.0583509
0.0105669
-0.0574698
0.0110902
-0.0565817
0.0115909
-0.0556915
0.0120697
-0.0548039
0.0125276
-0.0539239
0.012966
-0.0530562
0.0133864
-0.0522053
0.0137912
-0.0513756
0.0141836
-0.0505703
0.0145678
-0.0497914
0.014949
-0.0490379
-0.0483035
0.0153326
8.41297e-05
-0.0806491
0.000316786
-0.0767931
0.000672077
-0.073954
0.0011255
-0.071838
0.00165567
-0.07023
0.00224398
-0.0689692
0.00287425
-0.0679373
0.00353256
-0.0670484
0.00420706
-0.0662412
0.00488784
-0.0654732
0.00556678
-0.0647158
0.00623739
-0.0639506
0.0068946
-0.063167
0.00753458
-0.0623598
0.00815458
-0.0615277
0.00875275
-0.0606719
0.00932798
-0.0597955
0.00987972
-0.0589027
0.0104079
-0.057998
0.0109128
-0.0570866
0.0113948
-0.0561735
0.0118547
-0.0552638
0.0122933
-0.0543625
0.0127116
-0.0534745
0.013111
-0.0526047
0.0134933
-0.0517579
0.0138614
-0.0509384
0.0142195
-0.0501495
0.0145737
-0.049392
-0.0486605
0.0149306
8.65992e-05
-0.0807357
0.000323373
-0.0770298
0.00068158
-0.0743122
0.00113597
-0.0722924
0.00166514
-0.0707592
0.00225054
-0.0695546
0.00287602
-0.0685628
0.00352765
-0.0677
0.00419365
-0.0669072
0.00486421
-0.0661438
0.00553134
-0.0653829
0.00618872
-0.064608
0.00683146
-0.0638098
0.00745595
-0.0629843
0.00805963
-0.0621314
0.00864085
-0.0612531
0.00919866
-0.0603534
0.0097327
-0.0594367
0.010243
-0.0585083
0.0107299
-0.0575735
0.011194
-0.0566376
0.0116359
-0.0557057
0.0120562
-0.0547828
0.0124558
-0.0538741
0.0128355
-0.0529843
0.0131963
-0.0521188
0.0135404
-0.0512825
0.0138714
-0.0504805
0.0141956
-0.0497162
-0.0489869
0.014522
9.08275e-05
-0.0808265
0.000332228
-0.0772712
0.000692592
-0.0746726
0.00114685
-0.0727466
0.00167398
-0.0712863
0.00225555
-0.0701362
0.00287542
-0.0691826
0.00351967
-0.0683442
0.00417652
-0.0675641
0.00483627
-0.0668035
0.00549107
-0.0660377
0.00613477
-0.0652517
0.00676269
-0.0644377
0.00737142
-0.063593
0.00795864
-0.0627186
0.00852287
-0.0618174
0.00906338
-0.0608939
0.00957997
-0.0599533
0.0100728
-0.0590012
0.0105425
-0.0580431
0.0109895
-0.0570846
0.0114145
-0.0561307
0.0118182
-0.0551865
0.012201
-0.0542569
0.0125632
-0.0533466
0.0129052
-0.0524607
0.0132274
-0.0516047
0.0135318
-0.0507848
0.0138234
-0.0500079
-0.0492785
0.0141151
9.92618e-05
-0.0809258
0.000345344
-0.0775173
0.000705922
-0.0750332
0.00115829
-0.073199
0.00168209
-0.0718101
0.00225888
-0.070713
0.00287238
-0.0697961
0.00350856
-0.0689804
0.00415567
-0.0682112
0.00480406
-0.0674519
0.00544604
-0.0666797
0.00607566
-0.0658813
0.00668843
-0.0650505
0.00728118
-0.0641858
0.00785181
-0.0632892
0.00839906
-0.0623646
0.00892239
-0.0614172
0.00942182
-0.0604527
0.00989771
-0.0594771
0.0103507
-0.0584962
0.0107816
-0.0575155
0.0111912
-0.0565403
0.0115802
-0.0555755
0.011949
-0.0546257
0.0122976
-0.0536952
0.0126255
-0.0527886
0.0129313
-0.0519106
0.013213
-0.0510665
0.0134711
-0.050266
-0.0495312
0.0137238
0.000119681
-0.0810454
0.000365692
-0.0777633
0.000721849
-0.0753893
0.00116988
-0.073647
0.00168907
-0.0723293
0.00226026
-0.0712842
0.00286672
-0.0704026
0.00349424
-0.069608
0.00413105
-0.068848
0.00476758
-0.0680885
0.00539631
-0.0673084
0.00601146
-0.0664964
0.00660878
-0.0656478
0.00718534
-0.0647624
0.00773925
-0.0638431
0.00826949
-0.0628949
0.00877576
-0.0619235
0.00925825
-0.0609352
0.00971757
-0.0599364
0.0101546
-0.0589332
0.0105703
-0.0579312
0.0109659
-0.0569359
0.0113424
-0.055952
0.0117007
-0.054984
0.0120414
-0.0540359
0.0123644
-0.0531116
0.0126681
-0.0522142
0.0129455
-0.051344
0.0131819
-0.0505024
-0.0497222
0.0133729
0.083518
9.15135e-05
-0.0836096
0.0834368
8.12141e-05
0.0833587
7.81143e-05
0.0832811
7.75843e-05
0.083203
7.81435e-05
0.0831238
7.92155e-05
0.0830433
8.04826e-05
0.0829615
8.17797e-05
0.0828785
8.30268e-05
0.0827943
8.4193e-05
0.082709
8.52643e-05
0.0826228
8.62354e-05
0.0825357
8.71067e-05
0.0824478
8.78776e-05
0.0823593
8.85493e-05
0.0822701
8.91213e-05
0.0821805
8.95946e-05
0.0820906
8.99688e-05
0.0820003
9.02416e-05
0.0819099
9.04124e-05
0.0818194
9.04774e-05
0.081729
9.04307e-05
0.0816388
9.02597e-05
0.0815488
8.99469e-05
0.0814594
8.94542e-05
0.0813706
8.87087e-05
0.0812831
8.75509e-05
0.0811975
8.56093e-05
0.0811158
8.17145e-05
7.03233e-05
0.0840159
0.000262366
-0.0841867
0.0838389
0.000258242
0.0836586
0.000258386
0.0834751
0.000261035
0.0832883
0.000264992
0.0830978
0.000269672
0.0829036
0.000274689
0.0827056
0.000279777
0.0825039
0.000284776
0.0822985
0.000289586
0.0820896
0.000294152
0.0818774
0.000298439
0.0816621
0.000302425
0.0814438
0.000306099
0.0812229
0.00030945
0.0809996
0.000312472
0.080774
0.00031516
0.0805465
0.00031751
0.0803172
0.000319515
0.0800865
0.000321167
0.0798545
0.000322456
0.0796215
0.000323367
0.0793879
0.000323871
0.079154
0.000323928
0.0789199
0.000323464
0.0786863
0.000322351
0.0784535
0.000320349
0.0782221
0.000316978
0.0779927
0.000311141
0.000299698
0.0843805
0.000480804
-0.084599
0.0841501
0.000488685
0.0839105
0.000497987
0.083663
0.000508537
0.0834081
0.000519838
0.0831462
0.000531553
0.0828775
0.000543413
0.0826021
0.000555192
0.0823202
0.000566717
0.0820319
0.000577866
0.0817375
0.000588552
0.0814372
0.000598712
0.0811313
0.000608304
0.0808201
0.000617295
0.0805039
0.000625661
0.080183
0.000633384
0.0798577
0.000640448
0.0795284
0.00064684
0.0791954
0.000652546
0.078859
0.00065755
0.0785196
0.000661833
0.0781776
0.000665371
0.0778334
0.000668124
0.0774872
0.00067004
0.0771397
0.000671033
0.0767911
0.00067097
0.0764418
0.000669631
0.0760921
0.000666649
0.0757419
0.000661345
0.000652278
0.0845104
0.000722289
-0.0847519
0.0842547
0.000744428
0.0839862
0.000766507
0.0837059
0.00078874
0.0834148
0.000811007
0.0831132
0.000833164
0.0828015
0.000855059
0.0824802
0.000876538
0.0821494
0.000897464
0.0818096
0.000917719
0.0814609
0.000937212
0.0811038
0.000955869
0.0807384
0.000973629
0.0803653
0.000990446
0.0799847
0.00100628
0.0795969
0.00102111
0.0792025
0.00103489
0.0788017
0.00104761
0.078395
0.00105924
0.0779828
0.00106976
0.0775655
0.00107913
0.0771436
0.00108734
0.0767174
0.00109433
0.0762874
0.00110004
0.075854
0.00110439
0.0754177
0.00110728
0.0749788
0.00110853
0.0745375
0.00110789
0.0740939
0.00110498
0.00109914
0.0843622
0.000966982
-0.0846069
0.0841016
0.00100507
0.0838257
0.00104237
0.0835354
0.00107908
0.0832312
0.00111521
0.0829136
0.00115069
0.0825832
0.00118545
0.0822404
0.00121939
0.0818854
0.0012524
0.0815188
0.00128438
0.0811408
0.00131524
0.0807517
0.0013449
0.0803521
0.0013733
0.0799421
0.00140039
0.0795223
0.0014261
0.079093
0.00145041
0.0786546
0.00147326
0.0782076
0.00149462
0.0777524
0.00151446
0.0772894
0.00153274
0.0768191
0.00154943
0.076342
0.00156449
0.0758584
0.00157787
0.075369
0.00158951
0.074874
0.00159934
0.074374
0.00160727
0.0738694
0.00161318
0.0733603
0.00161692
0.0728471
0.00161826
0.00161692
0.0839283
0.00120058
-0.0841619
0.0836773
0.00125609
0.0834092
0.0013104
0.0831247
0.00136363
0.0828241
0.00141581
0.0825079
0.0014669
0.0821765
0.00151684
0.0818303
0.00156555
0.0814698
0.00161295
0.0810952
0.00165894
0.080707
0.00170344
0.0803055
0.00174638
0.0798912
0.00178767
0.0794643
0.00182726
0.0790253
0.00186509
0.0785746
0.00190109
0.0781127
0.00193522
0.0776399
0.00196743
0.0771566
0.00199768
0.0766635
0.00202591
0.0761608
0.0020521
0.0756491
0.00207618
0.0751288
0.00209812
0.0746005
0.00211784
0.0740646
0.0021353
0.0735214
0.00215041
0.0729715
0.00216309
0.0724152
0.00217324
0.0718527
0.00218075
0.00218546
0.0832253
0.00141358
-0.0834383
0.0829938
0.00148767
0.0827438
0.00156032
0.0824759
0.00163157
0.0821903
0.00170141
0.0818874
0.00176981
0.0815675
0.00183671
0.081231
0.00190202
0.0808783
0.00196566
0.0805097
0.00202755
0.0801256
0.0020876
0.0797262
0.00214573
0.079312
0.00220185
0.0788834
0.00225589
0.0784407
0.00230778
0.0779844
0.00235745
0.0775147
0.00240485
0.0770323
0.0024499
0.0765374
0.00249256
0.0760305
0.00253278
0.0755121
0.00257049
0.0749827
0.00260564
0.0744426
0.00263817
0.0738924
0.00266804
0.0733325
0.00269518
0.0727634
0.00271952
0.0721855
0.00274101
0.0715992
0.00275957
0.0710048
0.00277515
0.00278764
0.0822845
0.00160029
-0.0824712
0.0820784
0.00169381
0.081853
0.00178572
0.0816085
0.00187601
0.0813453
0.00196466
0.0810635
0.00205159
0.0807635
0.00213673
0.0804455
0.00222
0.0801099
0.0023013
0.0797569
0.00238055
0.0793868
0.00245764
0.0790001
0.00253249
0.0785969
0.00260501
0.0781777
0.0026751
0.0777428
0.00274269
0.0772925
0.0028077
0.0768273
0.00287005
0.0763476
0.00292967
0.0758536
0.0029865
0.0753459
0.00304046
0.0748249
0.0030915
0.074291
0.00313954
0.0737447
0.00318454
0.0731863
0.00322642
0.0726163
0.00326513
0.0720353
0.0033006
0.0714435
0.00333279
0.0708414
0.00336164
0.0702294
0.00338711
0.00340912
0.0811439
0.00175795
-0.0813016
0.0809663
0.0018714
0.0807689
0.00198316
0.0805518
0.00209315
0.0803151
0.00220132
0.0800591
0.00230759
0.079784
0.00241185
0.07949
0.00251401
0.0791773
0.00261398
0.0788462
0.00271163
0.078497
0.00280688
0.0781299
0.0028996
0.0777452
0.00298971
0.0773432
0.0030771
0.0769242
0.00316167
0.0764885
0.00324334
0.0760366
0.00332202
0.0755686
0.00339762
0.075085
0.00347006
0.0745862
0.00353927
0.0740726
0.00360516
0.0735444
0.00366767
0.0730023
0.00372672
0.0724464
0.00378225
0.0718774
0.00383419
0.0712955
0.00388248
0.0707012
0.00392708
0.0700949
0.00396792
0.069477
0.00400498
0.00403818
0.0798439
0.00188595
-0.0799719
0.0796957
0.00201958
0.0795274
0.00215145
0.0793391
0.00228147
0.0791309
0.00240956
0.0789028
0.00253561
0.0786552
0.00265951
0.078388
0.00278115
0.0781016
0.00290041
0.0777961
0.00301716
0.0774717
0.00313129
0.0771286
0.00324269
0.0767671
0.00335123
0.0763873
0.00345681
0.0759897
0.00355932
0.0755744
0.00365865
0.0751417
0.0037547
0.074692
0.00384737
0.0742255
0.00393657
0.0737425
0.00402221
0.0732435
0.00410419
0.0727287
0.00418244
0.0721986
0.00425688
0.0716534
0.00432742
0.0710936
0.004394
0.0705195
0.00445655
0.0699316
0.00451501
0.0693302
0.00456934
0.0687157
0.00461949
0.00466538
0.0784235
0.00198524
-0.0785227
0.078304
0.00213902
0.0781644
0.00229103
0.0780047
0.00244115
0.077825
0.00258928
0.0776254
0.00273529
0.0774058
0.00287905
0.0771666
0.00302042
0.0769077
0.00315929
0.0766293
0.00329551
0.0763316
0.00342896
0.0760148
0.0035595
0.0756791
0.00368701
0.0753245
0.00381136
0.0749514
0.00393243
0.0745599
0.0040501
0.0741504
0.00416425
0.073723
0.00427478
0.073278
0.00438157
0.0728157
0.00448453
0.0723363
0.00458354
0.0718402
0.00467853
0.0713277
0.00476938
0.0707991
0.00485602
0.0702548
0.00493837
0.069695
0.00501635
0.0691201
0.0050899
0.0685304
0.00515896
0.0679264
0.00522349
0.00528339
0.0769186
0.00205778
-0.0769911
0.0768261
0.00223151
0.0767136
0.00240348
0.0765812
0.00257357
0.0764289
0.00274163
0.0762566
0.00290752
0.0760646
0.00307112
0.0758527
0.00323225
0.0756212
0.0033908
0.0753702
0.0035466
0.0750996
0.00369952
0.0748097
0.00384941
0.0745006
0.00399613
0.0741724
0.00413954
0.0738253
0.00427952
0.0734595
0.00441592
0.0730751
0.00454863
0.0726724
0.00467751
0.0722515
0.00480244
0.0718127
0.00492332
0.0713562
0.00504002
0.0708823
0.00515244
0.0703912
0.00526047
0.0698832
0.00536403
0.0693586
0.005463
0.0688176
0.00555732
0.0682606
0.00564691
0.0676879
0.00573171
0.0670997
0.00581165
0.00588665
0.075361
0.00210617
-0.0754094
0.075293
0.0022995
0.0752054
0.00249112
0.0750981
0.00268086
0.0749712
0.00286858
0.0748246
0.00305412
0.0746583
0.00323734
0.0744725
0.00341806
0.0742672
0.00359614
0.0740424
0.00377141
0.0737982
0.00394373
0.0735346
0.00411294
0.0732519
0.00427889
0.07295
0.00444143
0.0726291
0.00460041
0.0722893
0.0047557
0.0719308
0.00490714
0.0715537
0.00505462
0.0711581
0.00519799
0.0707443
0.00533713
0.0703124
0.00547191
0.0698627
0.00560221
0.0693952
0.00572792
0.0689103
0.00584893
0.0684082
0.00596514
0.067889
0.00607645
0.0673532
0.00618277
0.0668008
0.00628405
0.0662323
0.00638021
0.00647115
0.0737779
0.00213336
-0.0738051
0.0737316
0.00234585
0.073666
0.00255666
0.0735812
0.00276564
0.0734772
0.00297262
0.0733539
0.00317744
0.0732113
0.00337992
0.0730494
0.0035799
0.0728684
0.00377721
0.0726681
0.00397169
0.0724487
0.00416317
0.0722101
0.00435149
0.0719525
0.00453649
0.071676
0.00471801
0.0713805
0.00489589
0.0710662
0.00507
0.0707332
0.00524017
0.0703815
0.00540626
0.0700114
0.00556813
0.0696229
0.00572564
0.0692161
0.00587867
0.0687913
0.00602706
0.0683485
0.00617071
0.0678879
0.00630948
0.0674098
0.00644327
0.0669143
0.00657197
0.0664015
0.00669549
0.0658718
0.00681375
0.0653254
0.00692667
0.00703418
0.0721916
0.00214239
-0.0722007
0.072164
0.00237352
0.0721176
0.00260304
0.0720525
0.00283076
0.0719686
0.00305652
0.0718659
0.00328013
0.0717444
0.00350142
0.0716041
0.00372022
0.0714449
0.00393634
0.071267
0.00414962
0.0710703
0.00435988
0.0708548
0.00456696
0.0706206
0.00477068
0.0703677
0.00497089
0.0700962
0.00516741
0.0698061
0.0053601
0.0694975
0.00554879
0.0691704
0.00573334
0.0688249
0.00591359
0.0684612
0.00608939
0.0680792
0.00626061
0.0676792
0.00642711
0.0672612
0.00658874
0.0668253
0.00674537
0.0663717
0.00689689
0.0659005
0.00704317
0.0654119
0.00718411
0.064906
0.00731962
0.064383
0.00744964
0.00757408
0.0706202
0.00213627
-0.0706141
0.0706082
0.0023855
0.0705781
0.00263317
0.0705298
0.0028791
0.0704632
0.00312309
0.0703784
0.00336496
0.0702752
0.00360454
0.0701538
0.00384164
0.0700141
0.00407607
0.069856
0.00430766
0.0696797