/*--------------------------------*- C++ -*----------------------------------*\
| =========                 |                                                 |
| \\      /  F ield         | OpenFOAM: The Open Source CFD Toolbox           |
|  \\    /   O peration     | Version:  v1912                                 |
|   \\  /    A nd           | Website:  www.openfoam.com                      |
|    \\/     M anipulation  |                                                 |
\*---------------------------------------------------------------------------*/
FoamFile
{
    version     2.0;
    format      ascii;
    class       volScalarField;
    location    "50";
    object      p;
}
// * * * * * * * * * * * * * * * * * * * * * * * * * * * * * * * * * * * * * //

dimensions      [0 2 -2 0 0 0 0];


internalField   nonuniform List<scalar> 
9600
(
-41.4836
-36.2187
-32.9917
-30.2544
-27.749
-25.4821
-23.4255
-21.5514
-19.8421
-18.2841
-16.8647
-15.572
-14.3946
-13.3217
-12.3432
-11.4498
-10.633
-9.88481
-9.19779
-8.56974
-42.2432
-36.9608
-33.6979
-30.9177
-28.3671
-26.0562
-23.9582
-22.0463
-20.3032
-18.7151
-17.2694
-15.9535
-14.7558
-13.665
-12.6707
-11.7631
-10.9335
-10.1736
-9.47543
-8.83811
-43.0045
-37.6989
-34.3986
-31.5754
-28.9795
-26.6242
-24.4849
-22.5353
-20.7585
-19.1408
-17.6689
-16.3303
-15.1125
-14.0041
-12.9941
-12.0725
-11.2303
-10.4587
-9.74949
-9.10309
-43.7642
-38.4325
-35.0935
-32.2265
-29.5849
-27.1853
-25.0046
-23.0175
-21.2074
-19.5602
-18.0627
-16.7015
-15.464
-14.3383
-13.3129
-12.3775
-11.5228
-10.7397
-10.0196
-9.36435
-44.5194
-39.1602
-35.7815
-32.8701
-30.1825
-27.7384
-25.5165
-23.4921
-21.6489
-19.9727
-18.4498
-17.0665
-15.8098
-14.667
-13.6265
-12.6776
-11.8107
-11.0162
-10.2853
-9.62161
-45.268
-39.8805
-36.4614
-33.505
-30.7712
-28.2826
-26.0195
-23.9581
-22.0822
-20.3774
-18.8296
-17.4247
-16.149
-14.9896
-13.9344
-12.9723
-12.0935
-11.2878
-10.5463
-9.8746
-46.0082
-40.592
-37.132
-34.1301
-31.3498
-28.8167
-26.5127
-24.4147
-22.5065
-20.7736
-19.2014
-17.7753
-16.4811
-15.3055
-14.2359
-13.2611
-12.3706
-11.5541
-10.8023
-10.123
-46.7385
-41.2931
-37.7919
-34.7443
-31.9174
-29.3398
-26.9951
-24.8609
-22.9209
-21.1604
-19.5643
-18.1175
-16.8054
-15.6141
-14.5306
-13.5433
-12.6416
-11.8146
-11.053
-10.3666
-47.4575
-41.9828
-38.4401
-35.3463
-32.4728
-29.851
-27.466
-25.2959
-23.3247
-21.5371
-19.9177
-18.4508
-17.1212
-15.9146
-14.8177
-13.8185
-12.906
-12.069
-11.2978
-10.6051
-48.164
-42.6596
-39.0753
-35.9352
-33.0151
-30.3492
-27.9242
-25.7188
-23.7169
-21.9029
-20.2607
-18.7742
-17.4277
-16.2063
-15.0965
-14.0859
-13.1631
-12.3164
-11.5363
-10.8379
-48.8569
-43.3226
-39.6965
-36.51
-33.5432
-30.8336
-28.369
-26.1288
-24.0967
-22.2568
-20.5924
-19.0869
-17.724
-16.4885
-15.3663
-14.3447
-13.4122
-12.5564
-11.7678
-11.0644
-49.5352
-43.9708
-40.3027
-37.0696
-34.0564
-31.3032
-28.7995
-26.525
-24.4633
-22.5981
-20.9121
-19.3881
-18.0094
-16.7602
-15.626
-14.594
-13.6523
-12.7881
-11.9916
-11.284
-50.1983
-44.6032
-40.8929
-37.6132
-34.5536
-31.7572
-29.2149
-26.9066
-24.8159
-22.9259
-21.2189
-19.6769
-18.2828
-17.0203
-15.8748
-14.8329
-13.8826
-13.0104
-12.2068
-11.4958
-50.8454
-45.2191
-41.4664
-38.1399
-35.0341
-32.1949
-29.6143
-27.2729
-25.1537
-23.2394
-21.5118
-19.9523
-18.5431
-17.2678
-16.1112
-15.0599
-14.1015
-13.2222
-12.4122
-11.6992
-51.4761
-45.8176
-42.0223
-38.649
-35.4972
-32.6155
-29.9973
-27.6231
-25.476
-23.538
-21.7901
-20.2133
-18.7894
-17.5014
-16.334
-15.2734
-14.3072
-13.421
-12.6057
-11.8923
-52.09
-46.398
-42.5599
-39.14
-35.9423
-33.0185
-30.3632
-27.9569
-25.7823
-23.8209
-22.0532
-20.4593
-19.0208
-17.7201
-16.5418
-15.4719
-14.4978
-13.605
-12.7844
-12.0697
-52.6881
-46.9601
-43.0786
-39.612
-36.3687
-33.4033
-30.7114
-28.2736
-26.072
-24.0877
-22.3003
-20.6895
-19.2362
-17.9228
-16.7335
-15.6544
-14.6729
-13.7739
-12.9474
-12.228
-53.2751
-47.5052
-43.5776
-40.0639
-36.7755
-33.7692
-31.0414
-28.5728
-26.3449
-24.338
-22.5309
-20.903
-19.4346
-18.1079
-16.907
-15.8185
-14.8298
-13.9251
-13.0936
-12.3787
-53.8529
-48.0326
-44.0552
-40.4947
-37.1623
-34.1162
-31.3536
-28.8551
-26.6015
-24.5723
-22.7457
-21.1002
-19.6156
-18.2737
-17.0587
-15.9572
-14.9566
-14.041
-13.2082
-12.5259
-54.3996
-48.5347
-44.5105
-40.9051
-37.5305
-34.446
-31.6497
-29.1221
-26.8436
-24.7927
-22.9467
-21.2835
-19.7819
-18.4231
-17.1904
-16.0694
-15.0449
-14.1036
-13.2599
-12.5838
-59.8539
-59.8225
-59.7532
-59.6608
-59.5445
-59.4018
-59.2322
-59.0361
-58.8143
-58.5672
-58.2954
-57.9993
-57.6798
-57.3375
-56.973
-56.5874
-56.1817
-55.7575
-55.3179
-54.8658
-53.5053
-53.5027
-53.4669
-53.4036
-53.3135
-53.196
-53.0514
-52.8805
-52.6838
-52.4621
-52.2159
-51.9459
-51.6526
-51.3368
-50.999
-50.6399
-50.2602
-49.8603
-49.4408
-48.9996
-48.8613
-48.8831
-48.8756
-48.8392
-48.7754
-48.685
-48.5686
-48.4268
-48.2602
-48.0695
-47.8552
-47.618
-47.3582
-47.0766
-46.7735
-46.4495
-46.1048
-45.7394
-45.3531
-44.944
-44.631
-44.6705
-44.6834
-44.6692
-44.6287
-44.5631
-44.4729
-44.3589
-44.2213
-44.061
-43.8783
-43.6737
-43.4479
-43.2012
-42.9341
-42.6468
-42.3396
-42.0122
-41.6645
-41.2957
-40.7195
-40.7689
-40.7943
-40.7951
-40.7715
-40.7246
-40.6548
-40.5628
-40.449
-40.3138
-40.1579
-39.9817
-39.7857
-39.5703
-39.3358
-39.0824
-38.8103
-38.5194
-38.2096
-37.8802
-37.2066
-37.2601
-37.292
-37.3014
-37.2885
-37.2539
-37.1983
-37.1222
-37.0259
-36.9101
-36.7751
-36.6215
-36.4498
-36.2602
-36.0532
-35.8289
-35.5875
-35.3289
-35.0528
-34.7589
-34.0833
-34.1367
-34.1704
-34.1835
-34.1762
-34.1489
-34.1022
-34.0367
-33.9527
-33.8507
-33.7313
-33.5948
-33.4419
-33.2728
-33.0879
-32.8875
-32.6717
-32.4404
-32.1934
-31.9302
-31.3127
-31.3633
-31.3957
-31.4091
-31.4037
-31.3799
-31.3382
-31.2792
-31.2032
-31.1108
-31.0024
-30.8786
-30.7397
-30.5864
-30.419
-30.2377
-30.0429
-29.8343
-29.6118
-29.3748
-28.855
-28.9012
-28.9304
-28.942
-28.9362
-28.9134
-28.8741
-28.8188
-28.7478
-28.6617
-28.561
-28.4462
-28.3178
-28.1765
-28.0226
-27.8566
-27.6788
-27.489
-27.287
-27.0723
-26.6705
-26.7115
-26.7366
-26.7454
-26.7379
-26.7146
-26.676
-26.6225
-26.5544
-26.4724
-26.377
-26.2687
-26.1481
-26.0159
-25.8726
-25.7188
-25.5548
-25.3806
-25.1962
-25.0007
-24.722
-24.7577
-24.7784
-24.7839
-24.7741
-24.7496
-24.7107
-24.6578
-24.5915
-24.5121
-24.4203
-24.3167
-24.202
-24.0768
-23.9418
-23.7977
-23.6451
-23.4842
-23.3149
-23.1363
-22.9765
-23.0072
-23.0237
-23.0258
-23.0135
-22.9874
-22.9477
-22.895
-22.8295
-22.7519
-22.6627
-22.5626
-22.4522
-22.3324
-22.204
-22.0679
-21.9248
-21.7753
-21.6193
-21.456
-21.4059
-21.4319
-21.4445
-21.4434
-21.4287
-21.4009
-21.3604
-21.3074
-21.2425
-21.166
-21.0787
-20.9812
-20.8742
-20.7586
-20.6355
-20.5058
-20.3708
-20.2311
-20.0872
-19.9382
-19.9863
-20.0082
-20.0172
-20.0132
-19.9963
-19.967
-19.9255
-19.8723
-19.8076
-19.7321
-19.6462
-19.5507
-19.4463
-19.334
-19.215
-19.0906
-18.9622
-18.8311
-18.6984
-18.563
-18.6979
-18.7161
-18.7219
-18.7153
-18.6966
-18.6659
-18.6236
-18.5701
-18.5057
-18.4308
-18.3462
-18.2522
-18.1499
-18.0402
-17.9243
-17.8039
-17.6809
-17.5571
-17.4349
-17.3129
-17.5242
-17.539
-17.542
-17.5332
-17.5127
-17.4809
-17.4379
-17.3842
-17.32
-17.2458
-17.1621
-17.0695
-16.9687
-16.8609
-16.7473
-16.6296
-16.5107
-16.3926
-16.28
-16.1713
-16.4513
-16.4632
-16.4637
-16.4529
-16.4309
-16.3981
-16.3545
-16.3006
-16.2366
-16.1629
-16.08
-15.9883
-15.8886
-15.7819
-15.6696
-15.5534
-15.4367
-15.3224
-15.2179
-15.121
-15.4674
-15.4769
-15.4755
-15.4632
-15.4401
-15.4066
-15.3627
-15.3088
-15.2451
-15.1719
-15.0897
-14.9988
-14.9
-14.7939
-14.6819
-14.5657
-14.4494
-14.3366
-14.239
-14.1513
-14.5613
-14.5694
-14.567
-14.5542
-14.5311
-14.4979
-14.4548
-14.4019
-14.3396
-14.2681
-14.1877
-14.0987
-14.0017
-13.8973
-13.7863
-13.6705
-13.5534
-13.4402
-13.3496
-13.276
-13.7278
-13.7326
-13.7277
-13.7131
-13.6889
-13.6553
-13.6125
-13.5606
-13.4997
-13.4302
-13.3522
-13.266
-13.1718
-13.0702
-12.9614
-12.8467
-12.7277
-12.6098
-12.5127
-12.4635
-53.5629
-54.1382
-54.6763
-55.1995
-55.7047
-56.186
-56.6405
-57.0672
-57.4652
-57.8335
-58.1715
-58.4787
-58.7547
-58.9993
-59.2116
-59.3919
-59.5411
-59.6602
-59.7513
-59.8162
-47.0801
-47.6608
-48.2133
-48.7436
-49.251
-49.7332
-50.1887
-50.6168
-51.0169
-51.3883
-51.7304
-52.0431
-52.3266
-52.5815
-52.8056
-52.9985
-53.1607
-53.2926
-53.3947
-53.4659
-42.4361
-43.0045
-43.5492
-44.0706
-44.5685
-45.0422
-45.491
-45.9141
-46.311
-46.6808
-47.0228
-47.3367
-47.6221
-47.8778
-48.1051
-48.3041
-48.4747
-48.6164
-48.7291
-48.8111
-38.3124
-38.8555
-39.379
-39.8808
-40.3605
-40.8177
-41.2519
-41.6623
-42.0484
-42.4095
-42.7443
-43.0524
-43.3347
-43.5907
-43.8205
-44.0238
-44.2004
-44.3497
-44.4715
-44.5654
-34.6349
-35.148
-35.644
-36.1204
-36.5762
-37.011
-37.4243
-37.8153
-38.1835
-38.5282
-38.85
-39.1486
-39.4224
-39.6717
-39.8966
-40.0968
-40.272
-40.422
-40.5468
-40.6461
-31.4366
-31.9182
-32.3844
-32.8327
-33.2619
-33.6714
-34.0609
-34.4298
-34.7775
-35.1039
-35.4086
-35.6912
-35.9509
-36.188
-36.4029
-36.5951
-36.764
-36.9097
-37.0321
-37.1313
-28.6649
-29.1157
-29.5523
-29.9723
-30.3744
-30.7581
-31.123
-31.4686
-31.7945
-32.1003
-32.3858
-32.6506
-32.8944
-33.117
-33.3182
-33.4997
-33.6597
-33.7979
-33.9145
-34.0098
-26.2532
-26.6751
-27.0836
-27.4766
-27.8527
-28.2114
-28.5523
-28.875
-29.179
-29.4641
-29.7301
-29.9768
-30.204
-30.4117
-30.5998
-30.7668
-30.9162
-31.0454
-31.1544
-31.2436
-24.1426
-24.5381
-24.9209
-25.2889
-25.6409
-25.9762
-26.2945
-26.5954
-26.8786
-27.1439
-27.3911
-27.6202
-27.8311
-28.0236
-28.1978
-28.3537
-28.4899
-28.609
-28.7096
-28.7917
-22.2832
-22.6549
-23.0144
-23.3598
-23.6897
-24.0036
-24.3011
-24.5818
-24.8457
-25.0925
-25.3222
-25.5347
-25.7301
-25.9081
-26.0689
-26.2123
-26.3382
-26.4468
-26.5388
-26.6134
-20.6331
-20.9836
-21.3225
-21.6476
-21.9576
-22.252
-22.5304
-22.7927
-23.0388
-23.2687
-23.4822
-23.6795
-23.8604
-24.0251
-24.1734
-24.3053
-24.4209
-24.5202
-24.6037
-24.6711
-19.1589
-19.4907
-19.8113
-20.1184
-20.4105
-20.6871
-20.9482
-21.1937
-21.4236
-21.6378
-21.8366
-22.0199
-22.1877
-22.3401
-22.4771
-22.5986
-22.7048
-22.7956
-22.8709
-22.9315
-17.8335
-18.1487
-18.4535
-18.7446
-19.0206
-19.2811
-19.5264
-19.7565
-19.9715
-20.1716
-20.3568
-20.5274
-20.6833
-20.8246
-20.9513
-21.0633
-21.1608
-21.2436
-21.3116
-21.3662
-16.6354
-16.9361
-17.2273
-17.5043
-17.7656
-18.0114
-18.2421
-18.458
-18.6594
-18.8464
-19.0194
-19.1784
-19.3235
-19.4547
-19.572
-19.6755
-19.7652
-19.8412
-19.9036
-19.9516
-15.5473
-15.8358
-16.1155
-16.3798
-16.6276
-16.8597
-17.0769
-17.2796
-17.4683
-17.6434
-17.805
-17.9535
-18.0887
-18.2108
-18.3197
-18.4155
-18.4982
-18.5678
-18.6242
-18.6675
-14.5547
-14.8347
-15.1052
-15.3575
-15.5924
-15.8116
-16.016
-16.2062
-16.3831
-16.547
-16.6983
-16.837
-16.9633
-17.0771
-17.1784
-17.2672
-17.3436
-17.4074
-17.4587
-17.4976
-13.6398
-13.9187
-14.184
-14.425
-14.6471
-14.8539
-15.0461
-15.2246
-15.3904
-15.544
-15.6857
-15.8156
-15.9337
-16.04
-16.1345
-16.2171
-16.2877
-16.3465
-16.3933
-16.4282
-12.782
-13.0651
-13.3317
-13.5633
-13.7735
-13.9686
-14.1496
-14.3175
-14.4736
-14.6182
-14.7517
-14.8741
-14.9854
-15.0854
-15.1742
-15.2516
-15.3176
-15.3722
-15.4153
-15.4472
-11.9947
-12.2684
-12.5357
-12.7625
-12.9626
-13.1462
-13.3168
-13.4753
-13.6225
-13.7592
-13.8855
-14.0015
-14.1069
-14.2017
-14.2858
-14.359
-14.4213
-14.4727
-14.5132
-14.5427
-11.4042
-11.655
-11.8827
-12.0995
-12.2878
-12.4537
-12.6077
-12.7519
-12.8859
-13.0101
-13.1249
-13.2301
-13.3256
-13.4113
-13.4869
-13.5525
-13.6079
-13.6531
-13.6879
-13.7125
-6.00403
-6.49529
-7.03364
-7.61601
-8.24886
-8.93956
-9.69579
-10.527
-11.4454
-12.4666
-13.6111
-14.9058
-16.3861
-18.0981
-20.1022
-22.4777
-25.3058
-28.6088
-32.6061
-38.6019
-6.27459
-6.77938
-7.32824
-7.92267
-8.56929
-9.27517
-10.0481
-10.8978
-11.8367
-12.8808
-14.0509
-15.3742
-16.8865
-18.6346
-20.6788
-23.0984
-25.9736
-29.3234
-33.3591
-39.376
-6.54657
-7.06489
-7.62439
-8.23112
-8.89176
-9.61307
-10.403
-11.2715
-12.2312
-13.2985
-14.4945
-15.8467
-17.3915
-19.1759
-21.2605
-23.7242
-26.646
-30.0414
-34.1139
-40.1472
-6.8195
-7.35129
-7.9215
-8.54074
-9.21562
-9.95257
-10.7597
-11.6471
-12.628
-13.7187
-14.9407
-16.3222
-17.8997
-19.7205
-21.8456
-24.3534
-27.3215
-30.7625
-34.8728
-40.9273
-7.09292
-7.6381
-8.21911
-8.85106
-9.54038
-10.2932
-11.1176
-12.0243
-13.0263
-14.1406
-15.389
-16.7998
-18.4101
-20.2676
-22.4332
-24.9851
-27.9995
-31.486
-35.6347
-41.7137
-7.36647
-7.92492
-8.51678
-9.16165
-9.86561
-10.6344
-11.4763
-12.4023
-13.4257
-14.5638
-15.8386
-17.2789
-18.9222
-20.8164
-23.0226
-25.6185
-28.6791
-32.2109
-36.3978
-42.5021
-7.63983
-8.21139
-8.81415
-9.47213
-10.1909
-10.9758
-11.8354
-12.7808
-13.8257
-14.9876
-16.289
-17.7589
-19.4353
-21.3663
-23.6131
-26.2529
-29.3594
-32.9361
-37.1605
-43.2904
-7.91275
-8.49721
-9.11089
-9.78214
-10.5158
-11.3169
-12.1943
-13.1592
-14.2257
-15.4116
-16.7395
-18.2391
-19.9486
-21.9163
-24.2036
-26.8873
-30.0394
-33.6605
-37.9216
-44.077
-8.18508
-8.78218
-9.40676
-10.0914
-10.8402
-11.6575
-12.5527
-13.5371
-14.6252
-15.835
-17.1895
-18.7188
-20.4613
-22.4658
-24.7935
-27.5207
-30.718
-34.383
-38.6799
-44.8604
-8.45678
-9.0662
-9.7016
-10.3997
-11.1636
-11.9973
-12.9101
-13.9141
-15.0237
-16.2573
-17.6384
-19.1973
-20.9727
-23.0137
-25.3816
-28.152
-31.3941
-35.1023
-39.4341
-45.6392
-8.72796
-9.3493
-9.99536
-10.707
-11.4859
-12.3358
-13.2663
-14.2896
-15.4207
-16.678
-18.0855
-19.6738
-21.482
-23.5594
-25.9671
-28.7803
-32.0665
-35.8173
-40.1828
-46.4118
-8.9989
-9.63164
-10.2881
-11.0131
-11.807
-12.6729
-13.6208
-14.6634
-15.8156
-17.0965
-18.5302
-20.1476
-21.9883
-24.1018
-26.549
-29.4044
-32.7342
-36.5266
-40.9247
-47.1769
-9.2701
-9.91351
-10.5799
-11.3181
-12.1266
-13.0082
-13.9733
-15.0348
-16.208
-17.5121
-18.9717
-20.618
-22.4909
-24.64
-27.1262
-30.0234
-33.3959
-37.2292
-41.6585
-47.9331
-9.54227
-10.1954
-10.871
-11.6219
-12.4446
-13.3416
-14.3234
-15.4034
-16.5971
-17.9241
-19.4092
-21.0841
-22.9888
-25.1731
-27.6978
-30.636
-34.0504
-37.9236
-42.3829
-48.6791
-9.81618
-10.4775
-11.1612
-11.9242
-12.7606
-13.6723
-14.6704
-15.7685
-16.9824
-18.3318
-19.8421
-21.545
-23.481
-25.7
-28.2626
-31.241
-34.6965
-38.6087
-43.0967
-49.4137
-10.0928
-10.7601
-11.4505
-12.2246
-13.0739
-13.9998
-15.0136
-16.1293
-17.3628
-18.7343
-20.2692
-21.9997
-23.9665
-26.2196
-28.8194
-31.8372
-35.3329
-39.2832
-43.7988
-50.136
-10.3719
-11.0421
-11.7373
-12.5216
-13.3833
-14.3229
-15.3521
-16.4849
-17.7376
-19.1306
-20.6897
-22.4472
-24.4442
-26.7307
-29.3669
-32.4233
-35.9582
-39.9458
-44.4881
-50.8453
-10.6528
-11.321
-12.0191
-12.8134
-13.6875
-14.6406
-15.6846
-16.8342
-18.1057
-19.5198
-21.1024
-22.8865
-24.9131
-27.2323
-29.904
-32.9979
-36.5707
-40.5947
-45.1634
-51.5416
-10.9281
-11.5885
-12.2899
-13.0967
-13.9844
-14.951
-16.0099
-17.176
-18.4659
-19.9006
-21.5064
-23.3163
-25.3717
-27.7228
-30.4291
-33.5593
-37.1689
-41.2281
-45.8236
-52.2264
-11.1794
-11.8246
-12.545
-13.3725
-14.2745
-15.2541
-16.3274
-17.5096
-18.8175
-20.2723
-21.9005
-23.7356
-25.8191
-28.2011
-30.9407
-34.1059
-37.7505
-41.843
-46.4639
-52.9013
-1.58399
-1.83797
-2.1859
-2.57489
-2.99352
-3.44717
-3.94214
-4.48436
-5.08133
-5.74331
-6.48425
-7.32316
-8.2862
-9.40941
-10.7437
-12.3633
-14.3579
-16.7888
-19.9641
-25.359
-1.73712
-2.00752
-2.37391
-2.76884
-3.1909
-3.64988
-4.15175
-4.70205
-5.30842
-5.98139
-6.73516
-7.5891
-8.56977
-9.71374
-11.0725
-12.7207
-14.7483
-17.2146
-20.4222
-25.8309
-1.88457
-2.17906
-2.5586
-2.96166
-3.39146
-3.85883
-4.36964
-4.92962
-5.54677
-6.23196
-6.99974
-7.86985
-8.86932
-10.0352
-11.4196
-13.0976
-15.1588
-17.6605
-20.8996
-26.3169
-2.05431
-2.35963
-2.74737
-3.15916
-3.59815
-4.07505
-4.59589
-5.16667
-5.79573
-6.49424
-7.27709
-8.16442
-9.18375
-10.3727
-11.7837
-13.4925
-15.5882
-18.1266
-21.4005
-26.8355
-2.23537
-2.54778
-2.94336
-3.3641
-3.81259
-4.29947
-4.83099
-5.41337
-6.05521
-6.76796
-7.56684
-8.47238
-9.51256
-10.7255
-12.1644
-13.9049
-16.0364
-18.613
-21.9244
-27.3835
-2.4219
-2.74293
-3.14684
-3.57671
-4.03497
-4.5323
-5.07509
-5.66978
-6.32516
-7.05297
-7.86875
-8.79344
-9.85547
-11.0935
-12.5612
-14.3348
-16.5032
-19.1194
-22.4695
-27.9556
-2.61544
-2.94597
-3.35814
-3.79715
-4.26547
-4.77367
-5.32826
-5.93585
-6.60546
-7.34909
-8.1826
-9.12731
-10.2121
-11.4763
-12.974
-14.7817
-16.9883
-19.645
-23.0346
-28.5495
-2.81738
-3.15739
-3.5776
-4.02574
-4.50431
-5.02371
-5.59052
-6.21154
-6.89598
-7.65611
-8.5081
-9.47367
-10.5822
-11.8735
-13.4021
-15.2452
-17.491
-20.1892
-23.6192
-29.1641
-3.02748
-3.37703
-3.80525
-4.26257
-4.75157
-5.28244
-5.86184
-6.49674
-7.19656
-7.9738
-8.84498
-9.83219
-10.9653
-12.2846
-13.8452
-15.7245
-18.0107
-20.7515
-24.2225
-29.7983
-3.24516
-3.60457
-4.04089
-4.50749
-5.00709
-5.5497
-6.14205
-6.79125
-7.50695
-8.3019
-9.19291
-10.2025
-11.361
-12.7092
-14.3027
-16.2193
-18.5467
-21.3311
-24.8438
-30.451
-3.46998
-3.83964
-4.28421
-4.76022
-5.27063
-5.82526
-6.43088
-7.0948
-7.82686
-8.64006
-9.55154
-10.5842
-11.7688
-13.1467
-14.7741
-16.7289
-19.0985
-21.9272
-25.4821
-31.1212
-3.70156
-4.08186
-4.53483
-5.02042
-5.54186
-6.10878
-6.72801
-7.40704
-8.15592
-8.98789
-9.92043
-10.9768
-12.1883
-13.5968
-15.2588
-17.2527
-19.6654
-22.5391
-26.1367
-31.8079
-3.93943
-4.33074
-4.7923
-5.28766
-5.82038
-6.39987
-7.03304
-7.72757
-8.4937
-9.34496
-10.2991
-11.3799
-12.6189
-14.0587
-15.7562
-17.79
-20.2465
-23.1659
-26.8065
-32.51
-4.18307
-4.58577
-5.05613
-5.56147
-6.10572
-6.69808
-7.34552
-8.05592
-8.83974
-9.71076
-10.6871
-11.7928
-13.0601
-14.5318
-16.2656
-18.3401
-20.8412
-23.8069
-27.4909
-33.2267
-4.43193
-4.84638
-5.32577
-5.84133
-6.39739
-7.0029
-7.66494
-8.39158
-9.19351
-10.0848
-11.0838
-12.215
-13.5112
-15.0156
-16.7864
-18.9022
-21.4485
-24.4612
-28.1888
-33.9571
-4.68546
-5.11201
-5.60066
-6.12669
-6.69483
-7.31381
-7.99078
-8.73402
-9.55446
-10.4664
-11.4886
-12.6459
-13.9716
-15.5093
-17.3177
-19.4756
-22.0678
-25.128
-28.8996
-34.7004
-4.94311
-5.38208
-5.88023
-6.41698
-6.9975
-7.63024
-8.32246
-9.08265
-9.92199
-10.855
-11.9009
-13.0848
-14.4405
-16.0122
-17.8587
-20.0593
-22.698
-25.8062
-29.6223
-35.456
-5.20432
-5.65601
-6.16388
-6.71164
-7.30482
-7.95163
-8.65941
-9.4369
-10.2955
-11.2501
-12.32
-13.531
-14.9172
-16.5234
-18.4087
-20.6525
-23.3382
-26.4948
-30.3561
-36.2236
-5.46855
-5.93322
-6.45104
-7.01008
-7.6162
-8.27736
-9.00102
-9.79612
-10.6743
-11.6508
-12.7452
-13.9838
-15.401
-17.042
-18.9667
-21.2542
-23.9872
-27.1927
-31.1
-37.0038
-5.7353
-6.21317
-6.74117
-7.31175
-7.9311
-8.60691
-9.34672
-10.1598
-11.0579
-12.0566
-13.1759
-14.4424
-15.891
-17.5675
-19.5318
-21.8633
-24.6439
-27.898
-31.8511
-37.7973
-1.33626
-1.12963
-0.975916
-0.839253
-0.719248
-0.61336
-0.520475
-0.4398
-0.370832
-0.313214
-0.26668
-0.231017
-0.206056
-0.19166
-0.187689
-0.193935
-0.210185
-0.236566
-0.273236
-0.320017
-1.66611
-1.48275
-1.32506
-1.18317
-1.05834
-0.947984
-0.851134
-0.766987
-0.695029
-0.634884
-0.58627
-0.548963
-0.522783
-0.507576
-0.503198
-0.509478
-0.526262
-0.553555
-0.591416
-0.639627
-1.99864
-1.82316
-1.66549
-1.52246
-1.3955
-1.28297
-1.18416
-1.0984
-1.0252
-0.964223
-0.915177
-0.877845
-0.85204
-0.837606
-0.834394
-0.842251
-0.861059
-0.890769
-0.931276
-0.982713
-2.38238
-2.20524
-2.04453
-1.89855
-1.76801
-1.65197
-1.54995
-1.4614
-1.38591
-1.32313
-1.27279
-1.23468
-1.20859
-1.19437
-1.19186
-1.2009
-1.2214
-1.25326
-1.29637
-1.35076
-2.80113
-2.62153
-2.45686
-2.30692
-2.17217
-2.05208
-1.94632
-1.85448
-1.77619
-1.71117
-1.65914
-1.61989
-1.59322
-1.57896
-1.57695
-1.58704
-1.60912
-1.64306
-1.68876
-1.74619
-3.25242
-3.0696
-2.90076
-2.74649
-2.60729
-2.48293
-2.37323
-2.2779
-2.19663
-2.12918
-2.0753
-2.03478
-2.00743
-1.99307
-1.99154
-2.0027
-2.0264
-2.06253
-2.11094
-2.17159
-3.74244
-3.5549
-3.38114
-3.22195
-3.07784
-2.94884
-2.83485
-2.73568
-2.65113
-2.58097
-2.52499
-2.48298
-2.45477
-2.44018
-2.43904
-2.45122
-2.47655
-2.51491
-2.56614
-2.63021
-4.27798
-4.08422
-3.90447
-3.73949
-3.58978
-3.4555
-3.33667
-3.23317
-3.14487
-3.07157
-3.01309
-2.96926
-2.9399
-2.92483
-2.9239
-2.93695
-2.96383
-3.00439
-3.05848
-3.12605
-4.86673
-4.66531
-4.47833
-4.30648
-4.15026
-4.0099
-3.88549
-3.77699
-3.68431
-3.6073
-3.54581
-3.49969
-3.46876
-3.45286
-3.45183
-3.46552
-3.49378
-3.53642
-3.59331
-3.66442
-5.51883
-5.30819
-5.11256
-4.93256
-4.76869
-4.62122
-4.49028
-4.3759
-4.27803
-4.19656
-4.13138
-4.08233
-4.04927
-4.03204
-4.03048
-4.04444
-4.07376
-4.11825
-4.17777
-4.25232
-6.24803
-6.02636
-5.82041
-5.63071
-5.45777
-5.30187
-5.16319
-5.0418
-4.93768
-4.85077
-4.78097
-4.72816
-4.69219
-4.67293
-4.67021
-4.68388
-4.71379
-4.75973
-4.82155
-4.89928
-7.07304
-6.83823
-6.61994
-6.41865
-6.23486
-6.06888
-5.9209
-5.79103
-5.6793
-5.58566
-5.51004
-5.45233
-5.41241
-5.39014
-5.38537
-5.39795
-5.42772
-5.47445
-5.538
-5.61845
-8.01961
-7.76911
-7.53604
-7.32083
-7.12398
-6.94582
-6.78656
-6.64634
-6.52521
-6.42315
-6.34011
-6.27601
-6.23072
-6.20412
-6.19607
-6.20641
-6.23497
-6.28153
-6.34592
-6.42828
-9.12327
-8.854
-8.60317
-8.37116
-8.1585
-7.96553
-7.79248
-7.63951
-7.50669
-7.39402
-7.30148
-7.229
-7.17646
-7.14374
-7.13071
-7.13722
-7.16309
-7.20807
-7.27198
-7.35502
-10.4343
-10.1426
-9.87033
-9.618
-9.38613
-9.17508
-8.9851
-8.81635
-8.66894
-8.54288
-8.43815
-8.3547
-8.29243
-8.25122
-8.23095
-8.23146
-8.25257
-8.29399
-8.35554
-8.43747
-12.0263
-11.7077
-11.4098
-11.1329
-10.8778
-10.6447
-10.434
-10.2458
-10.0802
-9.93732
-9.81704
-9.71937
-9.6442
-9.59144
-9.56096
-9.55261
-9.5662
-9.60142
-9.65805
-9.73635
-13.9886
-13.6384
-13.31
-13.0041
-12.7213
-12.462
-12.2264
-12.0147
-11.827
-11.6634
-11.5238
-11.4082
-11.3166
-11.2489
-11.2048
-11.1844
-11.1873
-11.2134
-11.2623
-11.3341
-16.3827
-15.9969
-15.634
-15.2951
-14.9808
-14.6915
-14.4275
-14.1889
-13.9757
-13.7881
-13.626
-13.4893
-13.3781
-13.2923
-13.2318
-13.1964
-13.186
-13.2005
-13.2395
-13.3022
-19.5194
-19.0938
-18.692
-18.3165
-17.9678
-17.6457
-17.3504
-17.0818
-16.8399
-16.6247
-16.4362
-16.2743
-16.1392
-16.0306
-15.9486
-15.8929
-15.8634
-15.8607
-15.8842
-15.9322
-24.8562
-24.3856
-23.9493
-23.5445
-23.1688
-22.8214
-22.5018
-22.2099
-21.9456
-21.7091
-21.5002
-21.319
-21.1657
-21.0403
-20.9429
-20.8735
-20.833
-20.8235
-20.8465
-20.8916
-0.376794
-0.443247
-0.519339
-0.604989
-0.700111
-0.804601
-0.918327
-1.04113
-1.17279
-1.31303
-1.46149
-1.61765
-1.78069
-1.9494
-2.12213
-2.29659
-2.46831
-2.62749
-2.75875
-2.8885
-0.698283
-0.767014
-0.845746
-0.934367
-1.03277
-1.14084
-1.25841
-1.3853
-1.52128
-1.66603
-1.81914
-1.98007
-2.14803
-2.32187
-2.49997
-2.68068
-2.86222
-3.03687
-3.18943
-3.36165
-1.04486
-1.11744
-1.20039
-1.29358
-1.39689
-1.51017
-1.63326
-1.76594
-1.90795
-2.05898
-2.21857
-2.38619
-2.56107
-2.7422
-2.92821
-3.11791
-3.31034
-3.50111
-3.6845
-3.89046
-1.41633
-1.49276
-1.57998
-1.67784
-1.7862
-1.9049
-2.03374
-2.17251
-2.32091
-2.4786
-2.64515
-2.81999
-3.00242
-3.19154
-3.38627
-3.58574
-3.78915
-3.99418
-4.20133
-4.43099
-1.81529
-1.89573
-1.98742
-2.0902
-2.2039
-2.32835
-2.46335
-2.60864
-2.76393
-2.92886
-3.10299
-3.2858
-3.47662
-3.67469
-3.87918
-4.08948
-4.30498
-4.52465
-4.75111
-4.99752
-2.24452
-2.32926
-2.42575
-2.53382
-2.6533
-2.784
-2.92569
-3.07811
-3.24096
-3.41388
-3.59644
-3.78814
-3.9884
-4.19656
-4.41201
-4.63432
-4.86311
-5.09817
-5.34223
-5.60315
-2.70718
-2.79644
-2.89806
-3.0118
-3.1375
-3.27494
-3.42389
-3.58408
-3.75521
-3.93692
-4.1288
-4.33039
-4.54117
-4.7606
-4.9882
-5.22368
-5.46684
-5.71788
-5.97902
-6.25469
-3.20708
-3.30121
-3.40825
-3.52802
-3.66035
-3.80501
-3.96179
-4.1304
-4.31054
-4.50186
-4.70398
-4.91647
-5.13886
-5.37072
-5.61167
-5.86148
-6.12006
-6.38774
-6.66608
-6.95757
-3.74974
-3.84878
-3.96145
-4.08753
-4.22686
-4.37921
-4.54435
-4.72199
-4.91185
-5.1136
-5.32685
-5.55124
-5.78634
-6.03177
-6.28723
-6.55252
-6.8276
-7.11274
-7.40895
-7.71761
-4.34191
-4.44591
-4.5644
-4.69698
-4.84359
-5.00401
-5.17798
-5.36522
-5.56546
-5.77836
-6.00361
-6.24082
-6.48965
-6.74974
-7.02083
-7.30273
-7.5954
-7.89898
-8.21405
-8.54139
-4.99297
-5.10186
-5.22598
-5.36527
-5.51934
-5.68805
-5.87119
-6.06847
-6.27962
-6.50434
-6.7423
-6.99317
-7.25664
-7.53237
-7.82012
-8.1197
-8.43102
-8.75409
-9.08916
-9.43672
-5.71584
-5.82933
-5.95898
-6.10462
-6.26615
-6.44322
-6.63567
-6.84324
-7.06565
-7.30261
-7.55385
-7.81904
-8.09788
-8.39007
-8.69536
-9.01355
-9.34449
-9.68806
-10.0443
-10.4135
-6.52868
-6.64611
-6.78077
-6.93237
-7.10083
-7.28623
-7.48792
-7.70564
-7.93933
-8.18871
-8.45349
-8.73337
-9.02806
-9.33726
-9.66072
-9.99824
-10.3496
-10.7145
-11.0929
-11.4851
-7.45731
-7.57762
-7.71631
-7.8731
-8.04776
-8.2403
-8.4515
-8.67857
-8.92318
-9.18468
-9.46282
-9.75735
-10.068
-10.3944
-10.7363
-11.0935
-11.4658
-11.8527
-12.2539
-12.6699
-8.53992
-8.66141
-8.80252
-8.96303
-9.14276
-9.34125
-9.55802
-9.79534
-10.0506
-10.3232
-10.6139
-10.9226
-11.2488
-11.5922
-11.9524
-12.3292
-12.7223
-13.1312
-13.5556
-13.9958
-9.83645
-9.95659
-10.0977
-10.2596
-10.4422
-10.6452
-10.868
-11.1108
-11.3736
-11.6571
-11.9597
-12.2817
-12.6226
-12.9818
-13.3591
-13.7543
-14.1674
-14.5977
-15.0447
-15.5085
-11.4284
-11.544
-11.6822
-11.8429
-12.0257
-12.2304
-12.4567
-12.7045
-12.9735
-13.2641
-13.5768
-13.9105
-14.2633
-14.6347
-15.0258
-15.437
-15.8681
-16.3181
-16.786
-17.2717
-13.3867
-13.4947
-13.627
-13.7831
-13.9617
-14.1634
-14.3883
-14.6362
-14.9068
-15.1997
-15.5141
-15.8504
-16.2102
-16.594
-17.0002
-17.4274
-17.8751
-18.3431
-18.8304
-19.3359
-16.0024
-16.0943
-16.2103
-16.3518
-16.5201
-16.7144
-16.934
-17.1785
-17.4474
-17.7405
-18.0571
-18.3969
-18.7603
-19.1476
-19.5587
-19.9932
-20.4507
-20.932
-21.4369
-21.9606
-20.9334
-21.0058
-21.109
-21.2409
-21.4002
-21.5864
-21.7987
-22.037
-22.3007
-22.5897
-22.9037
-23.2426
-23.6067
-23.9961
-24.4109
-24.8513
-25.3182
-25.8155
-26.3458
-26.8913
-27.4079
-22.4949
-19.8593
-17.7755
-15.9892
-14.4516
-13.1005
-11.8909
-10.7957
-9.79668
-8.88092
-8.03868
-7.26232
-6.54562
-5.88339
-5.2711
-4.70348
-4.17497
-3.69403
-3.28963
-27.9523
-23.0455
-20.3983
-18.2942
-16.4841
-14.9209
-13.5438
-12.3087
-11.1892
-10.1675
-9.23098
-8.37003
-7.57719
-6.84637
-6.17254
-5.55127
-4.97783
-4.44982
-3.98038
-3.57791
-28.5253
-23.6149
-20.9545
-18.8291
-16.9939
-15.4038
-13.9996
-12.7381
-11.5935
-10.5485
-9.59062
-8.71049
-7.90066
-7.15509
-6.4687
-5.837
-5.25533
-4.72143
-4.24486
-3.82289
-29.1226
-24.2038
-21.528
-19.3797
-17.5178
-15.8996
-14.4671
-13.1782
-12.0077
-10.9386
-9.95875
-9.0587
-8.23104
-7.46961
-6.76914
-6.12484
-5.53183
-4.98717
-4.49761
-4.0569
-29.7413
-24.8117
-22.118
-19.9455
-18.0553
-16.4076
-14.9458
-13.6285
-12.4312
-11.3372
-10.3345
-9.41381
-8.56751
-7.78932
-7.0737
-6.41557
-5.80973
-5.25268
-4.74933
-4.29248
-30.3797
-25.439
-22.7227
-20.5255
-18.6057
-16.9271
-15.4347
-14.0881
-12.863
-11.7434
-10.7172
-9.77514
-8.90952
-8.11385
-7.38235
-6.70965
-6.09036
-5.52059
-5.00396
-4.53303
-31.0367
-26.0841
-23.3417
-21.1187
-19.1681
-17.4573
-15.9332
-14.5562
-13.3026
-12.1566
-11.1062
-10.1422
-9.25673
-8.44311
-7.69533
-7.00778
-6.37491
-5.79262
-5.26342
-4.77981
-31.711
-26.7452
-23.9748
-21.7242
-19.7415
-17.9973
-16.4405
-15.0322
-13.7493
-12.5761
-11.501
-10.5146
-9.60885
-8.77697
-8.01269
-7.31022
-6.66385
-6.06931
-5.52811
-5.03273
-32.4013
-27.4206
-24.6212
-22.3413
-20.3252
-18.5464
-16.9558
-15.5153
-14.2022
-13.0014
-11.901
-10.8918
-9.96552
-9.11519
-8.33434
-7.61695
-6.95722
-6.35066
-5.79786
-5.29131
-33.1062
-28.1094
-25.2799
-22.9691
-20.9181
-19.1036
-17.4782
-16.0046
-14.6607
-13.4316
-12.3057
-11.2733
-10.3263
-9.45745
-8.65998
-7.92773
-7.25473
-6.63632
-6.07218
-5.55482
-33.8247
-28.8103
-25.9497
-23.6064
-21.5194
-19.668
-18.0068
-16.4994
-15.1242
-13.8663
-12.7144
-11.6586
-10.6908
-9.80328
-8.98919
-8.24211
-7.55593
-6.92575
-6.35041
-5.82247
-34.5555
-29.5222
-26.6296
-24.2524
-22.128
-20.2387
-18.5408
-16.9989
-15.5916
-14.3047
-13.1264
-12.0472
-11.0583
-10.1521
-9.32144
-8.55956
-7.86023
-7.21833
-6.63185
-6.09346
-35.2976
-30.244
-27.3184
-24.9058
-22.7428
-20.8147
-19.0793
-17.5021
-16.0624
-14.746
-13.5412
-12.4383
-11.4284
-10.5035
-9.65613
-8.87947
-8.16702
-7.51337
-6.91578
-6.36703
-36.0498
-30.9746
-28.0149
-25.5656
-23.3629
-21.3949
-19.6212
-18.0082
-16.5356
-15.1894
-13.9579
-12.8312
-11.8002
-10.8566
-9.99262
-9.2012
-8.47562
-7.81022
-7.20148
-6.64246
-36.811
-31.7127
-28.7179
-26.2306
-23.9871
-21.9783
-20.1656
-18.5162
-17.0104
-15.6341
-14.3758
-13.2252
-12.1731
-11.2108
-10.3303
-9.5241
-8.78539
-8.10819
-7.48828
-6.91905
-37.58
-32.4569
-29.426
-26.8996
-24.6142
-22.5637
-20.7115
-19.0253
-17.4859
-16.0794
-14.7941
-13.6197
-12.5464
-11.5654
-10.6684
-9.8475
-9.09567
-8.40663
-7.77553
-7.19615
-38.3565
-33.2061
-30.1379
-27.5712
-25.2429
-23.1501
-21.2577
-19.5343
-17.9611
-16.5243
-15.2121
-14.0137
-12.9194
-11.9198
-11.0063
-10.1707
-9.4058
-8.70492
-8.0626
-7.47317
-39.1416
-33.96
-30.8522
-28.2438
-25.8719
-23.7361
-21.803
-20.0421
-18.435
-16.9678
-15.6287
-14.4066
-13.2913
-12.2732
-11.3433
-10.4931
-9.71515
-9.00242
-8.34889
-7.74954
-39.9357
-34.7171
-31.5668
-28.9158
-26.4997
-24.3205
-22.3464
-20.548
-18.9068
-17.4093
-16.0433
-14.7976
-13.6614
-12.625
-11.6787
-10.8141
-10.0231
-9.29855
-8.63383
-8.02475
-40.7261
-35.4726
-32.2802
-29.5863
-27.1257
-24.9028
-22.8876
-21.0513
-19.3761
-17.8483
-16.4555
-15.1862
-14.0294
-12.9746
-12.0122
-11.1331
-10.3292
-9.59284
-8.91697
-8.29834
-6.77742
-4.67216
-3.31253
-2.2675
-1.53338
-0.994212
-0.606948
-0.332013
-0.141105
-0.012492
0.0704404
0.120317
0.146713
0.156782
0.155834
0.147737
0.135304
0.120532
0.104832
0.089169
0.0741877
0.0602985
0.0477376
0.0366243
0.0269799
0.0187842
0.0119435
0.00639349
0.00196441
-0.00137237
-0.00388075
-0.00545146
-0.00653519
-0.00671646
-0.00683749
-0.00589095
-0.00547191
-0.00352813
-0.00297911
4.42815e-05
-7.03301
-4.85448
-3.45874
-2.38264
-1.62441
-1.06783
-0.667003
-0.381625
-0.182476
-0.0472412
0.0411112
0.095487
0.125663
0.138934
0.140714
0.134951
0.124517
0.111459
0.097225
0.0828163
0.0689051
0.055926
0.0441368
0.0336754