/*--------------------------------*- C++ -*----------------------------------*\
| =========                 |                                                 |
| \\      /  F ield         | OpenFOAM: The Open Source CFD Toolbox           |
|  \\    /   O peration     | Version:  v1912                                 |
|   \\  /    A nd           | Website:  www.openfoam.com                      |
|    \\/     M anipulation  |                                                 |
\*---------------------------------------------------------------------------*/
FoamFile
{
    version     2.0;
    format      ascii;
    class       volVectorField;
    location    "50";
    object      U;
}
// * * * * * * * * * * * * * * * * * * * * * * * * * * * * * * * * * * * * * //

dimensions      [0 1 -1 0 0 0 0];


internalField   nonuniform List<vector> 
9600
(
(0.45655 -9.3618 -1.54156e-19)
(0.159756 -8.63266 0)
(0.241988 -8.15986 -9.05249e-20)
(0.320776 -7.84075 0)
(0.388124 -7.60564 0)
(0.456558 -7.411 -3.18526e-20)
(0.522097 -7.23277 -5.50213e-22)
(0.581602 -7.05872 2.66273e-20)
(0.6343 -6.88351 0)
(0.680221 -6.70571 -4.51494e-20)
(0.719756 -6.52592 0)
(0.75353 -6.34571 -1.83051e-21)
(0.782282 -6.16687 -2.60744e-21)
(0.806767 -5.9911 -3.15506e-20)
(0.827711 -5.8198 2.66097e-20)
(0.845767 -5.65392 -2.61432e-20)
(0.861488 -5.49396 2.32775e-20)
(0.875419 -5.33982 0)
(0.888341 -5.19075 -1.85171e-20)
(0.899985 -5.04523 2.02979e-20)
(0.82449 -9.35141 -3.0841e-19)
(0.502228 -8.66077 1.17578e-20)
(0.567661 -8.20419 1.8647e-19)
(0.634949 -7.89458 -1.58941e-19)
(0.693291 -7.66407 1.56747e-19)
(0.753688 -7.46992 0)
(0.811355 -7.28939 6.07549e-20)
(0.862816 -7.11134 -6.0616e-20)
(0.907223 -6.93124 -1.05143e-19)
(0.944665 -6.74823 1.32991e-19)
(0.975643 -6.56334 -8.63462e-20)
(1.00091 -6.37837 -3.52538e-20)
(1.02131 -6.19527 7.11591e-20)
(1.03769 -6.0158 0)
(1.05083 -5.84138 0)
(1.06144 -5.67297 9.97529e-20)
(1.07007 -5.51101 -1.69128e-19)
(1.07729 -5.35537 0)
(1.08395 -5.20516 0)
(1.08952 -5.05877 -7.81791e-20)
(1.19277 -9.32749 6.37218e-19)
(0.84697 -8.67601 0)
(0.896891 -8.23584 -3.77313e-19)
(0.953418 -7.93584 -3.42e-19)
(1.00306 -7.70991 0)
(1.05539 -7.51621 5.46573e-19)
(1.10496 -7.33338 -5.16015e-19)
(1.14803 -7.15144 1.01154e-19)
(1.18374 -6.96664 -2.25187e-19)
(1.21228 -6.77871 -3.7451e-19)
(1.23431 -6.58906 5.11256e-19)
(1.25071 -6.39972 -3.16108e-19)
(1.26244 -6.21277 -1.41674e-19)
(1.27045 -6.03004 0)
(1.2756 -5.85293 5.52829e-21)
(1.27859 -5.68239 1.05146e-19)
(1.28001 -5.51885 4.54546e-20)
(1.28042 -5.3621 0)
(1.28076 -5.21114 8.24e-20)
(1.28017 -5.06429 8.44516e-20)
(1.56029 -9.28965 -8.62076e-19)
(1.19339 -8.67811 -4.03988e-19)
(1.22912 -8.2546 3.91843e-19)
(1.27562 -7.96421 6.73427e-19)
(1.31684 -7.74278 -3.26853e-19)
(1.36108 -7.54948 5.80358e-21)
(1.40229 -7.3644 2.53819e-19)
(1.43661 -7.17869 2.29905e-19)
(1.46322 -6.98944 4.21079e-19)
(1.48247 -6.79691 0)
(1.49517 -6.60289 1.62227e-19)
(1.50237 -6.40961 -1.72163e-19)
(1.50516 -6.21926 1.03527e-20)
(1.50458 -6.03371 2.71402e-19)
(1.50153 -5.85435 2.32683e-19)
(1.49677 -5.68213 -3.2847e-19)
(1.49088 -5.51741 1.08174e-19)
(1.48444 -5.35995 -1.76147e-19)
(1.47844 -5.20863 1.75315e-19)
(1.47161 -5.06175 -8.44954e-20)
(1.92674 -9.23786 4.34768e-19)
(1.54121 -8.66692 0)
(1.56395 -8.2602 3.84819e-19)
(1.60105 -7.97935 0)
(1.63408 -7.76232 0)
(1.67014 -7.56939 -3.0042e-19)
(1.70274 -7.38211 -5.37517e-19)
(1.72795 -7.19282 -4.55763e-19)
(1.74506 -6.99939 1.84502e-20)
(1.75463 -6.80263 -1.96954e-19)
(1.75765 -6.60465 0)
(1.75535 -6.4079 -1.62639e-19)
(1.74894 -6.21463 -2.92985e-19)
(1.73956 -6.02672 2.5766e-19)
(1.72817 -5.84559 -7.3226e-19)
(1.71555 -5.6721 1.18504e-19)
(1.70228 -5.50663 9.39332e-20)
(1.68896 -5.34887 -1.93694e-19)
(1.67663 -5.19758 -8.4634e-20)
(1.66352 -5.05111 2.52376e-19)
(2.29157 -9.172 4.19539e-19)
(1.88992 -8.6422 4.16083e-19)
(1.90084 -8.25236 0)
(1.92914 -7.98095 0)
(1.95418 -7.76821 -6.24529e-19)
(1.98196 -7.57561 3.41325e-19)
(2.00567 -7.38624 8.21464e-19)
(2.02139 -7.19358 0)
(2.02863 -6.99629 2.17093e-19)
(2.02814 -6.7957 1.96954e-19)
(2.02116 -6.59423 -3.47972e-19)
(2.00907 -6.39448 5.04617e-19)
(1.99325 -6.19879 1.4808e-19)
(1.97489 -6.00903 0)
(1.95503 -5.82658 1.23274e-19)
(1.93447 -5.65229 5.53383e-19)
(1.91377 -5.48649 -3.29745e-19)
(1.89357 -5.32882 3.70538e-19)
(1.87495 -5.17795 -7.04611e-19)
(1.85556 -5.03234 8.14559e-19)
(2.65426 -9.09206 4.26689e-19)
(2.23901 -8.60376 -2.25942e-18)
(2.23928 -8.23081 0)
(2.25931 -7.96869 0)
(2.27651 -7.76014 0)
(2.29588 -7.56787 -6.0585e-19)
(2.3104 -7.37653 0)
(2.31628 -7.18075 -9.71126e-19)
(2.31326 -6.97996 8.95781e-19)
(2.30237 -6.77598 -8.31983e-19)
(2.28508 -6.57151 0)
(2.26297 -6.36929 0)
(2.23753 -6.17169 0)
(2.21006 -5.98059 -2.81527e-19)
(2.18163 -5.7973 0)
(2.15306 -5.62266 0)
(2.12492 -5.45696 -4.13239e-19)
(2.09786 -5.29979 4.06021e-19)
(2.07299 -5.14974 0)
(2.04736 -5.00543 0)
(3.01427 -8.99804 -1.38811e-18)
(2.58794 -8.55142 8.99522e-19)
(2.57867 -8.1953 0)
(2.59095 -7.94232 0)
(2.60042 -7.73783 0)
(2.61122 -7.54592 5.76257e-19)
(2.61625 -7.35276 -5.78011e-19)
(2.61193 -7.15415 -8.89521e-21)
(2.5983 -6.95027 -8.96922e-19)
(2.57669 -6.74337 8.39811e-19)
(2.54882 -6.53642 -3.78877e-19)
(2.51646 -6.33227 6.58836e-19)
(2.48124 -6.13332 -4.6415e-20)
(2.44454 -5.94139 -5.96027e-19)
(2.40747 -5.75777 -5.02367e-19)
(2.37087 -5.58323 4.9356e-19)
(2.33527 -5.41805 0)
(2.30139 -5.26179 0)
(2.27036 -5.11294 3.57178e-19)
(2.23855 -4.97041 -3.93062e-19)
(3.37103 -8.88998 9.27772e-19)
(2.93614 -8.48506 8.83756e-19)
(2.91842 -8.14561 -1.67511e-18)
(2.92342 -7.90158 7.91279e-19)
(2.92524 -7.70106 0)
(2.9273 -7.50953 6.16628e-19)
(2.92254 -7.31476 -5.41345e-19)
(2.90766 -7.11366 1.52991e-18)
(2.88308 -6.90711 -2.36969e-20)
(2.85044 -6.69781 0)
(2.81174 -6.48894 7.6444e-19)
(2.76895 -6.28342 0)
(2.72382 -6.08366 0)
(2.6778 -5.89144 -2.72672e-19)
(2.63205 -5.70798 5.49945e-19)
(2.58739 -5.53401 0)
(2.54437 -5.36979 4.31386e-19)
(2.50372 -5.21483 1.79595e-19)
(2.46662 -5.06757 -3.89653e-19)
(2.42871 -4.92728 3.78362e-19)
(3.72398 -8.76792 -9.55597e-19)
(3.28302 -8.40455 8.98176e-19)
(3.25791 -8.08158 -2.55806e-18)
(3.25605 -7.84627 8.04409e-19)
(3.25028 -7.64962 0)
(3.24341 -7.45854 -1.24462e-18)
(3.22854 -7.26239 5.97905e-19)
(3.20278 -7.05917 0)
(3.16692 -6.85043 -4.74728e-19)
(3.12298 -6.63926 -8.23418e-19)
(3.07324 -6.42903 -7.17534e-19)
(3.01986 -6.22274 5.34551e-20)
(2.96471 -6.02274 6.71108e-19)
(2.90932 -5.83077 2.72448e-19)
(2.85485 -5.64798 -3.79501e-20)
(2.80214 -5.47504 -5.13055e-19)
(2.75172 -5.3122 -2.29481e-19)
(2.70438 -5.15894 -2.06893e-19)
(2.6613 -5.01365 5.51922e-19)
(2.61742 -4.87608 -8.2242e-19)
(4.07258 -8.63195 9.556e-19)
(3.62798 -8.30983 -4.66525e-20)
(3.59649 -8.00305 8.22306e-19)
(3.58817 -7.77623 0)
(3.57482 -7.58334 -6.80832e-19)
(3.55882 -7.39282 1.30823e-18)
(3.53355 -7.19555 -1.11832e-18)
(3.49657 -6.99061 1.10051e-18)
(3.44914 -6.78019 -4.45947e-19)
(3.39367 -6.56772 9.05262e-19)
(3.3327 -6.35673 3.92042e-19)
(3.2686 -6.15025 0)
(3.20336 -5.95061 0)
(3.13855 -5.75944 -2.82502e-19)
(3.07536 -5.57781 3.83683e-20)
(3.01462 -5.40637 1.01035e-18)
(2.95684 -5.24533 -2.49964e-19)
(2.90287 -5.09416 8.25621e-19)
(2.85394 -4.95123 1.44512e-19)
(2.80423 -4.81685 -8.39963e-19)
(4.41625 -8.48218 -2.94043e-18)
(3.97043 -8.20087 -9.87082e-19)
(3.93353 -7.90991 -2.63218e-18)
(3.91909 -7.69132 -1.60132e-18)
(3.89816 -7.50212 -7.59572e-19)
(3.87281 -7.31227 -7.42384e-19)
(3.83683 -7.11418 -2.42355e-18)
(3.78833 -6.90797 -4.9079e-20)
(3.72907 -6.6964 -1.9475e-18)
(3.66184 -6.48321 3.02275e-20)
(3.58949 -6.27208 -8.08618e-19)
(3.51458 -6.06602 -7.36859e-19)
(3.43919 -5.8673 6.72666e-19)
(3.36496 -5.67749 -6.15178e-19)
(3.29306 -5.49754 -5.63615e-19)
(3.22431 -5.32805 -5.1728e-19)
(3.15922 -5.16923 -1.38896e-18)
(3.09869 -5.02054 4.94148e-19)
(3.04401 -4.88035 1.19925e-18)
(2.98866 -4.74962 -1.27637e-18)
(4.75446 -8.31876 3.9551e-18)
(4.30975 -8.07766 4.85902e-18)
(4.26836 -7.8021 8.34722e-19)
(4.2481 -7.59145 3.99951e-18)
(4.21955 -7.40587 -7.8391e-19)
(4.18464 -7.21684 3.91713e-18)
(4.13767 -7.01827 1.1459e-18)
(4.07737 -6.81125 3.217e-18)
(4.00603 -6.59908 -9.83325e-19)
(3.92686 -6.38579 2.72266e-18)
(3.84301 -6.17513 1.62876e-18)
(3.75721 -5.97011 1.48437e-18)
(3.67166 -5.77291 -2.0097e-18)
(3.588 -5.58499 1.88265e-18)
(3.50742 -5.40724 1.13592e-18)
(3.43069 -5.24017 1.04276e-18)
(3.35834 -5.08398 9.5886e-19)
(3.29132 -4.93814 7.36648e-21)
(3.23102 -4.80104 8.13974e-19)
(3.17022 -4.67444 8.47104e-19)
(5.08668 -8.14184 -2.9371e-18)
(4.64536 -7.94023 1.08248e-18)
(4.60033 -7.67958 2.67801e-18)
(4.57451 -7.47658 -3.26272e-18)
(4.53829 -7.29456 7.53941e-19)
(4.49359 -7.10653 -2.62069e-18)
(4.43535 -6.90784 1.28446e-18)
(4.36298 -6.7005 -2.15251e-18)
(4.27935 -6.48832 4.90417e-20)
(4.18809 -6.27554 1.19514e-20)
(4.09266 -6.06597 -1.65125e-18)
(3.99594 -5.86259 -7.47516e-19)
(3.90021 -5.6675 1.37454e-18)
(3.80714 -5.48203 8.76179e-21)
(3.7179 -5.30697 -3.71957e-20)
(3.63324 -5.14276 -1.08834e-18)
(3.55366 -4.98962 -4.83315e-19)
(3.48021 -4.84701 -2.71506e-20)
(3.41438 -4.71337 -8.48326e-19)
(3.34835 -4.59143 -4.27801e-19)
(5.4124 -7.95161 0)
(4.97668 -7.78864 -2.00017e-18)
(4.92879 -7.54233 2.37501e-20)
(4.89761 -7.34668 3.25826e-18)
(4.85362 -7.16819 1.36382e-18)
(4.79891 -6.98137 -1.4196e-18)
(4.72915 -6.78296 -1.22299e-18)
(4.64449 -6.57582 0)
(4.54839 -6.36422 -9.73557e-19)
(4.44494 -6.15257 9.29148e-19)
(4.33786 -5.94472 -3.90761e-20)
(4.23021 -5.74358 0)
(4.12432 -5.55115 -6.91974e-19)
(4.02187 -5.36865 5.99402e-19)
(3.92399 -5.19676 5.00779e-19)
(3.83141 -5.03586 -6.04512e-19)
(3.74459 -4.88616 -5.24446e-19)
(3.6647 -4.74712 9.10746e-19)
(3.59335 -4.61733 -8.40517e-19)
(3.52222 -4.50065 4.4241e-19)
(5.73115 -7.74824 3.03457e-18)
(5.30311 -7.62296 -2.06002e-18)
(5.25306 -7.3904 -1.75818e-18)
(5.21669 -7.20178 8.18615e-19)
(5.16483 -7.02682 -1.58818e-18)
(5.09988 -6.84145 0)
(5.01836 -6.64373 0)
(4.92121 -6.43734 0)
(4.81251 -6.22691 -4.44797e-20)
(4.6968 -6.01702 -1.86471e-18)
(4.57805 -5.8115 8.80687e-19)
(4.45949 -5.61319 7.44865e-19)
(4.34349 -5.42397 6.30348e-19)
(4.2317 -5.24494 -2.58665e-18)
(4.12522 -5.07668 1.2263e-18)
(4.02471 -4.91948 0)
(3.93061 -4.77356 -3.04337e-20)
(3.84416 -4.63843 -1.41256e-18)
(3.76711 -4.51284 -5.69767e-21)
(3.69085 -4.40175 -4.429e-19)
(6.04259 -7.53201 -2.06406e-18)
(5.62412 -7.44332 -1.08607e-18)
(5.57246 -7.22383 8.18418e-19)
(5.53102 -7.04194 -1.43933e-19)
(5.47117 -6.87051 -4.62979e-18)
(5.39578 -6.68686 4.19014e-18)
(5.30228 -6.49029 -4.88119e-20)
(5.19248 -6.28521 1.1477e-18)
(5.0711 -6.07658 1.02976e-18)
(4.94309 -5.86906 9.45576e-19)
(4.81272 -5.66647 8.60493e-19)
(4.6833 -5.47155 1.53786e-18)
(4.55725 -5.28605 -7.40199e-19)
(4.43621 -5.11097 1.91875e-18)
(4.32118 -4.94677 -1.24044e-18)
(4.21277 -4.79369 -5.13166e-19)
(4.11138 -4.65193 2.06117e-18)
(4.01827 -4.52103 1.37711e-18)
(3.9354 -4.39978 -2.79646e-20)
(3.8542 -4.29406 0)
(6.34667 -7.30342 -1.04949e-18)
(5.93931 -7.24991 2.07556e-18)
(5.88634 -7.0427 1.8172e-18)
(5.83986 -6.86723 -1.45911e-19)
(5.77191 -6.69938 -1.57084e-18)
(5.68587 -6.51777 7.06822e-20)
(5.58022 -6.32283 1.31774e-20)
(5.45765 -6.11964 1.1741e-20)
(5.32355 -5.91342 0)
(5.18327 -5.70888 9.24849e-19)
(5.04133 -5.50979 -1.76031e-18)
(4.90115 -5.31878 -7.53316e-19)
(4.76514 -5.13747 7.47847e-19)
(4.63488 -4.96675 -6.56209e-19)
(4.51133 -4.80701 6.07765e-19)
(4.39501 -4.65847 -5.53291e-19)
(4.28632 -4.52133 4.89991e-21)
(4.18663 -4.39498 -4.70064e-19)
(4.09819 -4.27811 -4.34236e-19)
(4.01284 -4.17842 -4.34533e-19)
(6.64375 -7.06292 0)
(6.24841 -7.04265 -1.012e-18)
(6.19405 -6.84691 1.00039e-18)
(6.14246 -6.67771 1.74544e-18)
(6.06628 -6.51361 -1.57952e-18)
(5.96943 -6.33441 1.36456e-18)
(5.8515 -6.14163 -2.62375e-18)
(5.71612 -5.94093 -2.33004e-18)
(5.56931 -5.73773 -1.01651e-18)
(5.41687 -5.53677 4.44273e-20)
(5.26349 -5.34171 -8.41775e-19)
(5.11267 -5.15504 3.49277e-20)
(4.96679 -4.97828 0)
(4.82732 -4.8122 -1.28722e-18)
(4.6951 -4.65714 6.569e-19)
(4.57052 -4.51335 0)
(4.45402 -4.38095 -5.14482e-19)
(4.3472 -4.25908 -9.25001e-19)
(4.25231 -4.14736 9.08906e-19)
(4.16177 -4.05843 4.48672e-19)
(6.93342 -6.80974 0)
(6.55082 -6.82083 0)
(6.49486 -6.63641 -1.85578e-18)
(6.43807 -6.47367 -1.59572e-18)
(6.3536 -6.31358 3.23872e-18)
(6.24584 -6.13721 0)
(6.11555 -5.94714 0)
(5.96737 -5.74952 1.17058e-18)
(5.80796 -5.54996 0)
(5.64352 -5.35314 0)
(5.47893 -5.16259 0)
(5.31774 -4.98065 0)
(5.16223 -4.80868 0)
(5.01372 -4.64731 0)
(4.87279 -4.49682 0)
(4.73954 -4.35736 0)
(4.61424 -4.22879 0)
(4.49797 -4.11047 0)
(4.39085 -4.00544 0)
(4.28673 -3.93102 0)
(10.0434 0.0877397 1.47343e-19)
(10.0229 -0.307644 2.8668e-19)
(9.98706 -0.700351 -2.94437e-19)
(9.93653 -1.09024 5.8705e-19)
(9.87102 -1.47696 -5.87049e-19)
(9.79037 -1.86003 -5.54751e-19)
(9.6947 -2.23889 -5.53203e-19)
(9.58422 -2.613 1.74222e-18)
(9.45917 -2.98181 -1.16075e-18)
(9.31981 -3.34476 1.15103e-18)
(9.1664 -3.70132 -1.15103e-18)
(8.99928 -4.05094 1.14252e-18)
(8.81875 -4.39312 -2.26572e-18)
(8.62518 -4.72734 3.33658e-18)
(8.41893 -5.05312 0)
(8.20039 -5.37001 -3.27807e-18)
(7.96995 -5.67759 1.63476e-20)
(7.72814 -5.97549 3.30353e-18)
(7.47507 -6.26358 0)
(7.2124 -6.54115 0)
(10.1202 -0.21072 0)
(10.079 -0.606823 -1.50424e-20)
(10.0209 -0.999125 0)
(9.94677 -1.38729 5.61773e-19)
(9.85674 -1.77089 5.85017e-19)
(9.75105 -2.14931 -1.69322e-18)
(9.62998 -2.52194 2.94784e-18)
(9.4939 -2.88814 -1.16369e-18)
(9.34316 -3.24731 -1.10926e-18)
(9.17817 -3.59888 -1.10473e-18)
(8.99934 -3.94226 4.45738e-20)
(8.8071 -4.27692 1.13188e-18)
(8.60193 -4.60233 -5.62693e-18)
(8.38431 -4.91799 -1.18e-18)
(8.15471 -5.22345 2.24843e-18)
(7.91367 -5.51826 2.24541e-18)
(7.66165 -5.80205 1.1408e-18)
(7.39923 -6.07447 -2.1998e-18)
(7.12651 -6.33528 1.04174e-18)
(6.84444 -6.58412 0)
(10.0719 -0.149225 1.32682e-19)
(10.0341 -0.54089 -2.71711e-19)
(9.97893 -0.92938 7.84643e-19)
(9.90675 -1.314 -5.55878e-19)
(9.81795 -1.6941 -5.30015e-19)
(9.71292 -2.06896 5.53364e-19)
(9.59201 -2.43786 0)
(9.45563 -2.80011 0)
(9.3042 -3.15503 2.10115e-18)
(9.13818 -3.502 3.13453e-18)
(8.95802 -3.84038 -9.9139e-19)
(8.76424 -4.16958 3.09954e-18)
(8.55734 -4.48905 -9.87218e-19)
(8.33787 -4.79824 -3.019e-18)
(8.10638 -5.09666 1.36201e-20)
(7.86344 -5.38384 1.93788e-18)
(7.60957 -5.65934 -8.74712e-19)
(7.34538 -5.92276 -1.90651e-18)
(7.07121 -6.17371 -1.02978e-18)
(6.78779 -6.4117 1.87369e-18)
(9.90581 -0.112509 0)
(9.87479 -0.494942 2.29076e-19)
(9.8265 -0.875029 2.28135e-19)
(9.76112 -1.25187 -9.37259e-19)
(9.67897 -1.62467 0)
(9.5804 -1.99264 0)
(9.46576 -2.35503 0)
(9.33544 -2.71108 0)
(9.18986 -3.06008 -9.91808e-19)
(9.02944 -3.40135 -9.88042e-19)
(8.85468 -3.7342 0)
(8.66608 -4.05801 1.86807e-18)
(8.46416 -4.37216 -4.61864e-18)
(8.24948 -4.67608 3.7138e-18)
(8.0226 -4.96921 -3.59964e-18)
(7.78413 -5.25103 -8.73456e-19)
(7.53462 -5.52105 1.56471e-19)
(7.27471 -5.7788 1.54875e-19)
(7.00489 -6.02382 -1.7789e-18)
(6.72591 -6.25563 -7.08895e-20)
(9.65275 -0.0990275 0)
(9.62915 -0.469231 -2.2592e-19)
(9.5887 -0.837745 0)
(9.53149 -1.20367 4.51965e-19)
(9.45772 -1.56615 4.30843e-19)
(9.36771 -1.92442 3.93893e-19)
(9.26176 -2.27768 0)
(9.14021 -2.62517 0)
(9.00342 -2.96615 0)
(8.85183 -3.2999 0)
(8.68586 -3.62573 8.13668e-19)
(8.50601 -3.94296 8.76617e-19)
(8.31278 -4.25096 8.71617e-19)
(8.10671 -4.54911 -8.84947e-19)
(7.88836 -4.83681 -1.52302e-18)
(7.65831 -5.11351 1.72883e-18)
(7.41715 -5.37867 3.35186e-18)
(7.16549 -5.63176 1.63034e-18)
(6.90393 -5.87228 0)
(6.63316 -6.09975 -1.53655e-18)
(9.34574 -0.0902257 4.64353e-20)
(9.32911 -0.446255 0)
(9.29626 -0.801165 -7.60957e-19)
(9.2472 -1.1541 1.82747e-23)
(9.18208 -1.50425 1.6176e-20)
(9.10114 -1.8508 -6.85424e-20)
(9.00464 -2.193 0)
(8.89286 -2.53007 3.09371e-20)
(8.76614 -2.86129 -7.72502e-19)
(8.62484 -3.18592 1.50509e-18)
(8.46937 -3.50326 -1.56943e-18)
(8.30016 -3.81264 8.57396e-19)
(8.11769 -4.1134 -4.49432e-18)
(7.92246 -4.4049 2.96428e-18)
(7.715 -4.68653 1.57132e-18)
(7.49588 -4.95769 0)
(7.26566 -5.21783 -2.90038e-18)
(7.02494 -5.46638 -6.15367e-20)
(6.77433 -5.70281 -2.85628e-18)
(6.51446 -5.9266 2.96872e-18)
(9.0134 -0.0854144 4.17606e-20)
(9.00241 -0.426445 -8.74828e-20)
(8.97594 -0.766826 7.17278e-19)
(8.93395 -1.10576 -1.40759e-20)
(8.87655 -1.44245 7.17131e-19)
(8.80393 -1.77613 -1.08316e-18)
(8.71629 -2.10606 0)
(8.61389 -2.43149 7.30187e-19)
(8.49699 -2.7517 6.68575e-19)
(8.36593 -3.06599 -7.26097e-19)
(8.22106 -3.37365 1.32848e-18)
(8.06278 -3.67403 2.8164e-18)
(7.89153 -3.96647 -1.3098e-18)
(7.70775 -4.25032 -1.41973e-18)
(7.51196 -4.52498 1.36151e-18)
(7.30467 -4.78983 0)
(7.08644 -5.0443 6.49515e-20)
(6.85783 -5.28781 9.81267e-21)
(6.61942 -5.51982 2.70618e-18)
(6.37181 -5.73977 1.25813e-18)
(8.67697 -0.0842324 0)
(8.67004 -0.41031 6.25891e-21)
(8.6484 -0.736083 -1.45959e-19)
(8.612 -1.0608 -6.48205e-19)
(8.56091 -1.38372 6.09305e-19)
(8.49527 -1.70411 0)
(8.41526 -2.02126 1.24015e-18)
(8.32108 -2.33445 -1.36277e-21)
(8.21298 -2.64299 -1.89407e-18)
(8.09124 -2.94621 0)
(7.95617 -3.24344 -1.30733e-18)
(7.80814 -3.53402 4.60152e-20)
(7.64753 -3.81732 -3.67495e-18)
(7.47478 -4.09272 6.47622e-21)
(7.29035 -4.35961 1.23171e-18)
(7.09472 -4.61739 0)
(6.88841 -4.86548 -1.20894e-18)
(6.67197 -5.1033 8.70357e-21)
(6.44594 -5.33028 1.20024e-18)
(6.21089 -5.54586 -1.23809e-18)
(8.35033 -0.0853125 0)
(8.34602 -0.397019 1.49649e-19)
(8.32776 -0.708653 3.10489e-19)
(8.29548 -1.01951 -5.74716e-19)
(8.24925 -1.3289 -2.47325e-20)
(8.18916 -1.63613 -2.87226e-19)
(8.11538 -1.94051 -1.1498e-18)
(8.02808 -2.24139 5.71634e-19)
(7.92746 -2.53811 2.38228e-20)
(7.81378 -2.83001 5.68213e-19)
(7.68733 -3.11647 5.23088e-19)
(7.54842 -3.39687 2.26532e-18)
(7.39743 -3.67059 1.13311e-18)
(7.23473 -3.93705 2.23804e-18)
(7.06077 -4.19564 -1.11609e-18)
(6.87601 -4.4458 3.86796e-20)
(6.68094 -4.68694 -1.10291e-18)
(6.47607 -4.91849 0)
(6.26194 -5.13989 1.04254e-18)
(6.03906 -5.35055 0)
(8.0414 -0.0875293 6.51555e-20)
(8.03855 -0.385736 -1.90822e-19)
(8.02246 -0.684011 5.23389e-19)
(7.99307 -0.981699 -2.61109e-19)
(7.95042 -1.27814 1.89906e-20)
(7.8946 -1.5727 -2.60954e-19)
(7.82575 -1.86472 5.42509e-19)
(7.74401 -2.15359 -5.1921e-19)
(7.64957 -2.43868 5.19207e-19)
(7.54267 -2.71939 9.95811e-19)
(7.42356 -2.99512 -1.07304e-18)
(7.29253 -3.26529 -4.51188e-20)
(7.14993 -3.52931 -3.10599e-18)
(6.99612 -3.78663 5.37955e-21)
(6.83151 -4.03669 4.02923e-20)
(6.65654 -4.27892 2.01355e-18)
(6.47169 -4.51279 -9.94626e-19)
(6.27746 -4.73771 -9.47399e-19)
(6.07436 -4.95313 -3.74614e-20)
(5.86287 -5.15845 0)
(7.75377 -0.0901373 0)
(7.75154 -0.375836 2.42395e-19)
(7.73671 -0.661676 -8.33446e-19)
(7.70925 -0.947044 -2.2112e-19)
(7.66916 -1.23132 4.94516e-19)
(7.61655 -1.5139 0)
(7.55153 -1.79418 0)
(7.47422 -2.07158 4.72683e-19)
(7.38482 -2.3455 -4.7268e-19)
(7.28352 -2.61539 3.98193e-19)
(7.17056 -2.88068 -4.69634e-19)
(7.04623 -3.14082 9.31323e-19)
(6.91083 -3.39528 -1.85803e-18)
(6.76472 -3.64353 1.84843e-18)
(6.60829 -3.88505 3.4678e-20)
(6.44196 -4.11931 -9.50675e-19)
(6.26622 -4.34579 -9.04648e-19)
(6.08154 -4.56393 1.84281e-18)
(5.88846 -4.77318 8.62687e-19)
(5.68742 -4.97292 0)
(7.48825 -0.0926629 1.87848e-21)
(7.48605 -0.366853 1.5915e-19)
(7.47186 -0.641212 3.34141e-19)
(7.44561 -0.915161 2.33881e-19)
(7.40733 -1.18812 2.16958e-19)
(7.35711 -1.45951 2.01823e-19)
(7.29505 -1.72878 0)
(7.22128 -1.99535 -8.34035e-19)
(7.13595 -2.2587 -4.29945e-19)
(7.03926 -2.51829 3.66796e-19)
(6.93145 -2.77359 0)
(6.81276 -3.02409 8.49187e-19)
(6.6835 -3.2693 -2.51152e-18)
(6.544 -3.50873 8.4484e-19)
(6.39465 -3.7419 0)
(6.23587 -3.96832 -8.03285e-19)
(6.06814 -4.1875 -1.62242e-18)
(5.89194 -4.39891 7.98344e-19)
(5.70783 -4.602 -2.92153e-20)
(5.51626 -4.79611 0)
(7.24394 -0.0948072 3.46586e-21)
(7.24143 -0.358441 -1.02999e-19)
(7.22744 -0.622237 1.98767e-19)
(7.20193 -0.88565 -1.3127e-20)
(7.16493 -1.14813 3.97184e-19)
(7.1165 -1.40914 -6.09999e-19)
(7.05676 -1.66814 0)
(6.98581 -1.9246 5.60524e-20)
(6.90382 -2.17803 0)
(6.81097 -2.42791 -8.14271e-19)
(6.70746 -2.67376 0)
(6.59355 -2.9151 -7.51477e-19)
(6.46953 -3.15148 2.3226e-18)
(6.33571 -3.38246 -1.53907e-18)
(6.19248 -3.60758 7.67319e-19)
(6.04024 -3.82644 -6.78918e-19)
(5.87951 -4.03855 7.84179e-19)
(5.71077 -4.24345 -7.78817e-19)
(5.53466 -4.44054 0)
(5.35162 -4.62919 0)
(7.01906 -0.0964489 4.71309e-20)
(7.01605 -0.350376 0)
(7.00202 -0.604446 0)
(6.97694 -0.858141 -3.77621e-19)
(6.94084 -1.11094 -3.5244e-19)
(6.8938 -1.36232 0)
(6.83591 -1.61179 0)
(6.76729 -1.85884 4.98732e-20)
(6.68807 -2.103 6.97943e-19)
(6.59845 -2.34379 -3.3659e-19)
(6.49861 -2.58076 -3.58609e-19)
(6.38879 -2.81347 1.44863e-18)
(6.26927 -3.04149 -2.15109e-18)
(6.14035 -3.26444 1.38714e-18)
(6.00241 -3.48191 0)
(5.85586 -3.69356 2.78678e-18)
(5.70123 -3.89892 -2.02335e-18)
(5.53904 -4.09766 6.88338e-19)
(5.37005 -4.28907 1.31643e-18)
(5.19467 -4.4726 0)
(6.81151 -0.0975233 -4.0521e-20)
(6.80789 -0.342496 0)
(6.79367 -0.587591 -5.2242e-21)
(6.76883 -0.832307 -3.2428e-19)
(6.73341 -1.07615 1.00484e-18)
(6.68749 -1.31862 -1.67152e-19)
(6.63113 -1.55924 0)
(6.56447 -1.79754 1.33153e-18)
(6.48763 -2.03306 -6.85721e-19)
(6.40079 -2.26537 4.45039e-20)
(6.30413 -2.49402 6.35506e-19)
(6.19788 -2.71862 6.51397e-19)
(6.08228 -2.93878 -1.29899e-18)
(5.95765 -3.15416 -1.27057e-18)
(5.82433 -3.3644 -1.24105e-18)
(5.68274 -3.56924 -1.32062e-18)
(5.53344 -3.76824 1.31163e-18)
(5.37695 -3.96126 -6.26155e-19)
(5.21429 -4.14743 -6.67224e-19)
(5.04577 -4.32642 0)
(6.61905 -0.09801 3.98108e-20)
(6.61479 -0.334697 -1.49481e-19)
(6.60032 -0.571475 -1.54745e-19)
(6.57564 -0.807865 4.6335e-19)
(6.54077 -1.04339 -1.64548e-19)
(6.49579 -1.27758 -1.5381e-19)
(6.44077 -1.50998 0)
(6.37584 -1.74013 -6.3222e-19)
(6.30111 -1.96762 0)
(6.21674 -2.192 6.27331e-19)
(6.12292 -2.41289 -1.20888e-18)
(6.01984 -2.6299 5.98421e-19)
(5.90776 -2.8427 -1.19317e-18)
(5.78693 -3.05097 1.23126e-18)
(5.65771 -3.2544 6.70155e-19)
(5.52047 -3.45286 0)
(5.37584 -3.6459 -5.7846e-19)
(5.22429 -3.83373 5.7846e-19)
(5.06727 -4.01513 0)
(4.90476 -4.19048 0)
(6.43955 -0.0979968 0)
(6.43468 -0.326955 1.46863e-19)
(6.41997 -0.555973 4.72499e-21)
(6.39541 -0.78459 -1.51431e-19)
(6.36104 -1.01235 -1.33536e-19)
(6.31693 -1.23881 -1.41769e-19)
(6.26316 -1.46353 5.47946e-19)
(6.19982 -1.68608 0)
(6.12705 -1.90604 0)
(6.04499 -2.12302 2.78468e-19)
(5.9538 -2.33664 2.95812e-19)
(5.85368 -2.54655 1.07063e-18)
(5.74483 -2.75243 -5.47043e-19)
(5.62751 -2.95403 5.47041e-19)
(5.50202 -3.15106 5.80724e-19)
(5.3687 -3.34355 3.39565e-20)
(5.22822 -3.53101 -1.06658e-18)
(5.08092 -3.71424 3.7795e-21)
(4.92897 -3.89131 5.27516e-19)
(4.77151 -4.06425 0)
(6.2711 -0.0974867 -3.28259e-20)
(6.26569 -0.319239 3.28255e-20)
(6.25078 -0.541024 0)
(6.22639 -0.762395 1.23641e-19)
(6.19253 -0.982915 4.01621e-19)
(6.14929 -1.20216 -5.07605e-19)
(6.09673 -1.4197 -5.38375e-19)
(6.03496 -1.63514 0)
(5.9641 -1.84808 0)
(5.88428 -2.05814 0)
(5.79565 -2.26497 -9.93888e-19)
(5.69839 -2.46824 -6.4154e-20)
(5.59268 -2.66765 -5.0394e-19)
(5.47872 -2.86298 3.01993e-20)
(5.35679 -3.054 -9.966e-19)
(5.22712 -3.24087 1.51882e-18)
(5.09042 -3.42314 -1.43914e-18)
(4.94674 -3.60239 4.88529e-19)
(4.79936 -3.77564 9.36551e-19)
(4.64557 -3.94779 0)
(6.112 -0.0961294 2.94909e-20)
(6.10615 -0.311349 0)
(6.09114 -0.526589 -1.21415e-19)
(6.06696 -0.741414 -2.50183e-19)
(6.03366 -0.955404 1.21263e-19)
(5.9913 -1.16815 9.68334e-19)
(5.93995 -1.37925 0)
(5.87971 -1.58832 -4.66372e-19)
(5.8107 -1.79499 -2.38535e-19)
(5.73303 -1.99888 -4.4812e-19)
(5.64684 -2.19968 -1.79301e-19)
(5.55228 -2.39707 -1.41477e-18)
(5.44952 -2.59076 -9.33839e-19)
(5.33868 -2.78058 9.6062e-19)
(5.22003 -2.96631 9.19508e-19)
(5.09356 -3.1482 -3.88414e-21)
(4.96009 -3.3259 2.995e-20)
(4.81886 -3.502 4.50139e-19)
(4.67499 -3.67269 -9.20255e-19)
(4.52173 -3.84787 0)
(5.96064 -0.0944575 -6.16712e-20)
(5.95449 -0.303421 3.03597e-20)
(5.93952 -0.512472 -1.21292e-19)
(5.91571 -0.721221 1.21236e-19)
(5.8831 -0.929274 -3.48692e-19)
(5.84173 -1.13624 -1.08578e-18)
(5.79166 -1.34174 0)
(5.73297 -1.5454 4.93459e-19)
(5.66575 -1.74686 -4.61401e-19)
(5.5901 -1.94578 9.77042e-19)
(5.50613 -2.14184 9.7124e-19)
(5.41394 -2.33474 1.43094e-18)
(5.31368 -2.52421 -9.28519e-19)
(5.20538 -2.71004 4.62499e-19)
(5.08929 -2.89206 -4.54843e-19)
(4.96502 -3.07047 4.54867e-19)
(4.8337 -3.24502 0)
(4.6926 -3.41892 4.11829e-19)
(4.55079 -3.58798 -4.03013e-19)
(4.39311 -3.77443 0)
(7.14002 7.26201 0)
(7.41999 6.97221 0)
(7.68706 6.67283 1.08741e-18)
(7.94193 6.36436 2.02582e-20)
(8.18403 6.04654 -1.15046e-18)
(8.4127 5.71942 0)
(8.62753 5.3834 1.18722e-18)
(8.82818 5.03901 -2.23994e-18)
(9.01435 4.68684 -1.13201e-18)
(9.18573 4.3275 -1.14259e-18)
(9.34207 3.9616 1.14258e-18)
(9.48314 3.58982 -1.15468e-18)
(9.60874 3.21283 5.75979e-19)
(9.71869 2.83135 5.49751e-19)
(9.81281 2.44602 5.519e-19)
(9.89106 2.05753 -5.85707e-19)
(9.95341 1.66652 5.85708e-19)
(9.99993 1.27371 -2.94032e-19)
(10.0306 0.879493 -1.39669e-19)
(10.0459 0.485218 7.35645e-20)
(7.41678 7.07014 0)
(7.69696 6.78072 -9.96457e-19)
(7.96335 6.47974 -2.13036e-18)
(8.21623 6.16787 3.15038e-18)
(8.45538 5.84542 -2.18468e-18)
(8.68028 5.51286 2.19544e-18)
(8.89044 5.17079 1.19357e-18)
(9.08546 4.81987 -3.387e-18)
(9.26495 4.46079 1.10803e-18)
(9.42855 4.09427 2.2027e-18)
(9.57595 3.72104 1.08524e-18)
(9.7069 3.34184 1.09212e-18)
(9.82122 2.95749 -1.15245e-18)
(9.91872 2.5687 1.69701e-18)
(9.9991 2.17626 -2.35441e-18)
(10.0623 1.78105 5.81145e-19)
(10.1083 1.38387 -5.58443e-19)
(10.1371 0.985542 0)
(10.1488 0.586594 1.51561e-20)
(10.1436 0.188007 0)
(7.27377 6.94535 -1.75461e-18)
(7.55676 6.67334 9.85057e-19)
(7.82721 6.38846 1.80193e-18)
(8.08467 6.0914 8.1576e-19)
(8.32871 5.78271 2.04298e-18)
(8.5588 5.46302 2.00374e-20)
(8.77443 5.133 -1.02402e-18)
(8.97509 4.79333 -3.05181e-18)
(9.16034 4.44474 3.01297e-18)
(9.32973 4.08795 -3.09285e-18)
(9.48289 3.7237 -1.0304e-18)
(9.61952 3.35276 -2.06154e-18)
(9.73929 2.97595 0)
(9.84199 2.59403 0)
(9.92748 2.20791 0)
(9.99561 1.8185 -5.25484e-19)
(10.0462 1.42663 5.5035e-19)
(10.0792 1.03316 5.2718e-19)
(10.0945 0.638802 6.27002e-21)
(10.0922 0.244527 1.32405e-19)
(7.04649 6.6933 1.82228e-18)
(7.32622 6.43995 -1.65487e-18)
(7.5946 6.17347 -1.69618e-19)
(7.85092 5.89442 -1.70579e-19)
(8.0946 5.60335 4.30219e-18)
(8.3251 5.30088 -7.12608e-20)
(8.54187 4.98763 3.77442e-21)
(8.74436 4.66427 -2.72062e-18)
(8.93209 4.33146 1.79505e-18)
(9.10459 3.98991 0)
(9.26135 3.64039 9.62779e-19)
(9.40204 3.28373 9.69442e-19)
(9.52637 2.92072 0)
(9.63404 2.55218 0)
(9.72483 2.17894 0)
(9.79853 1.80182 0)
(9.85495 1.42164 -2.17127e-20)
(9.89398 1.03925 4.74686e-19)
(9.9155 0.655477 -2.2795e-19)
(9.9195 0.271272 0)
(6.78382 6.37855 1.54341e-18)
(7.05569 6.14306 0)
(7.31734 5.89463 -4.54434e-18)
(7.56795 5.63368 -1.54896e-18)
(7.80688 5.36073 -1.62772e-18)
(8.03357 5.07635 -1.72546e-18)
(8.24743 4.7811 8.15226e-19)
(8.44793 4.47559 -8.56761e-19)
(8.63452 4.16045 2.379e-18)
(8.80675 3.83638 -7.78836e-19)
(8.96421 3.50413 0)
(9.1064 3.16444 0)
(9.23292 2.81801 0)
(9.34351 2.46564 0)
(9.4379 2.10811 -1.22993e-18)
(9.51584 1.74626 4.22914e-19)
(9.57711 1.38087 -4.46736e-19)
(9.62155 1.01279 0)
(9.64902 0.642851 2.2481e-19)
(9.65946 0.271955 0)
(6.50888 6.05133 1.32039e-18)
(6.77052 5.83198 -4.79942e-20)
(7.02287 5.60011 2.77739e-18)
(7.26513 5.35605 1.38758e-18)
(7.49664 5.10026 0)
(7.71683 4.83325 -1.47348e-18)
(7.92511 4.55555 6.85198e-20)
(8.12096 4.26772 -1.49587e-18)
(8.30384 3.97034 2.06947e-18)
(8.47328 3.66408 3.27426e-20)
(8.62884 3.34955 2.8119e-20)
(8.77008 3.02739 -7.46461e-19)
(8.89657 2.69834 1.46397e-18)
(9.00802 2.36315 0)
(9.10415 2.02253 6.8578e-20)
(9.18465 1.67731 7.47428e-19)
(9.24926 1.32826 1.63873e-21)
(9.2978 0.976171 -1.53481e-20)
(9.33014 0.621833 0)
(9.34614 0.266084 -4.63387e-20)
(6.24302 5.7343 0)
(6.49332 5.52893 -4.89205e-20)
(6.73509 5.31157 1.75776e-20)
(6.96755 5.08249 -2.51071e-18)
(7.19008 4.8421 0)
(7.40209 4.59086 1.26983e-18)
(7.60304 4.32925 1.35256e-18)
(7.79241 4.05778 -3.93516e-18)
(7.96969 3.777 -6.82912e-20)
(8.13441 3.48747 -1.26361e-18)
(8.28613 3.18979 6.95746e-19)
(8.42443 2.88457 -6.42699e-19)
(8.54891 2.5725 -7.06518e-19)
(8.65919 2.25426 0)
(8.75504 1.93056 3.72741e-19)
(8.83624 1.60203 -1.69113e-20)
(8.90241 1.26951 -3.4603e-19)
(8.95333 0.933747 -1.67733e-20)
(8.98889 0.595482 -8.71053e-20)
(9.00893 0.255491 1.74584e-19)
(5.99745 5.43907 0)
(6.23617 5.24555 1.08568e-18)
(6.46694 5.04061 1.61858e-20)
(6.68905 4.82448 -1.10183e-18)
(6.90188 4.59753 0)
(7.10488 4.36018 1.1463e-18)
(7.29754 4.11285 -1.09445e-18)
(7.47936 3.85601 -1.21157e-18)
(7.64986 3.59017 2.30459e-18)
(7.80859 3.31586 1.24351e-18)
(7.95513 3.03363 0)
(8.08908 2.74406 6.06533e-19)
(8.21005 2.44779 -4.39112e-21)
(8.31772 2.14545 2.18698e-20)
(8.41169 1.83772 0)
(8.49181 1.52521 -5.9703e-19)
(8.55793 1.20856 -3.12783e-19)
(8.60962 0.888557 4.56997e-19)
(8.64678 0.565946 3.08123e-19)
(8.66924 0.24143 -4.11851e-20)
(5.77586 5.17057 0)
(6.00332 4.98704 -9.37709e-19)
(6.22328 4.79265 0)
(6.43508 4.58762 -1.01169e-18)
(6.63813 4.37228 1.99181e-18)
(6.83193 4.14699 -2.03132e-18)
(7.01597 3.91216 3.1786e-18)
(7.1898 3.66821 -3.16945e-18)
(7.35297 3.41562 -2.14139e-18)
(7.50506 3.15488 -1.57941e-18)
(7.64566 2.88651 5.41606e-19)
(7.7744 2.61108 -1.12285e-18)
(7.89092 2.32914 1.86517e-20)
(7.99489 2.04132 1.11618e-18)
(8.08604 1.74818 -2.80805e-19)
(8.16398 1.45047 1.15032e-18)
(8.22862 1.14866 -5.65769e-19)
(8.2798 0.843469 2.60673e-19)
(8.31724 0.535624 -1.48659e-19)
(8.34076 0.225795 0)
(5.57798 4.92921 0)
(5.79481 4.75413 1.81409e-18)
(6.00451 4.56874 8.79971e-19)
(6.20643 4.37326 -9.05798e-19)
(6.40002 4.16795 -1.85552e-18)
(6.5848 3.95314 2.82354e-18)
(6.76033 3.72921 1.12934e-20)
(6.92618 3.49657 -9.20343e-19)
(7.08192 3.25565 1.97582e-18)
(7.22716 3.00693 1.02045e-18)
(7.36153 2.7509 -9.53375e-19)
(7.48468 2.48808 5.00608e-19)
(7.59626 2.21902 2.2542e-20)
(7.69598 1.94428 -5.2676e-19)
(7.78354 1.66443 -2.55259e-19)
(7.85867 1.38006 5.11829e-19)
(7.92113 1.09186 -2.5657e-19)
(7.97081 0.800332 -5.1775e-19)
(8.00754 0.506155 5.99963e-20)
(8.03107 0.209978 6.48756e-20)