/*--------------------------------*- C++ -*----------------------------------*\
  =========                 |
  \\      /  F ield         | OpenFOAM: The Open Source CFD Toolbox
   \\    /   O peration     | Website:  https://openfoam.org
    \\  /    A nd           | Version:  6.0
     \\/     M anipulation  |
\*---------------------------------------------------------------------------*/
FoamFile
{
    version     2.0;
    format      ascii;
    class       surfaceScalarField;
    location    "17";
    object      phi;
}
// * * * * * * * * * * * * * * * * * * * * * * * * * * * * * * * * * * * * * //

dimensions      [0 3 -1 0 0 0 0];

internalField   nonuniform List<scalar> 
38030
(
8.78758e-05
-0.28245
0.282362
0.000417419
-0.270254
0.269924
0.000915509
-0.261053
0.260555
0.00152298
-0.253637
0.25303
0.00219711
-0.247282
0.246608
0.00290496
-0.241483
0.240776
0.00362233
-0.235945
0.235228
0.00433271
-0.230513
0.229802
0.00502568
-0.225117
0.224424
0.00569543
-0.219741
0.219071
0.0063395
-0.214394
0.21375
0.00695774
-0.209101
0.208483
0.00755148
-0.203887
0.203293
0.00812291
-0.198779
0.198207
0.00867461
-0.193796
0.193244
0.00920926
-0.188956
0.188421
0.00972941
-0.184268
0.183748
0.0102374
-0.179741
0.179233
0.0107352
-0.175376
0.174879
0.0112248
-0.171175
0.170685
0.0117075
-0.167133
0.16665
0.012185
-0.163248
0.162771
0.0126584
-0.159515
0.159041
0.0131291
-0.155925
0.155454
0.0135985
-0.15247
0.152
0.0140678
-0.149138
0.148669
0.0145384
-0.145916
0.145446
0.0150109
-0.142787
0.142314
0.0154854
-0.139729
0.139255
-0.13672
0.136245
0.0159608
0.000105448
-0.282555
0.000437703
-0.270586
0.000935777
-0.261551
0.00154212
-0.254243
0.00221344
-0.247953
0.00291703
-0.242187
0.00362898
-0.236657
0.00433296
-0.231217
0.00501877
-0.225803
0.00568083
-0.220403
0.00631689
-0.21503
0.006927
-0.209711
0.00751263
-0.204473
0.00807609
-0.199342
0.00862002
-0.19434
0.00914716
-0.189483
0.00966007
-0.184781
0.0101611
-0.180242
0.0106522
-0.175868
0.0111352
-0.171658
0.0116116
-0.16761
0.0120827
-0.16372
0.0125499
-0.159982
0.0130146
-0.156389
0.0134779
-0.152933
0.0139413
-0.149602
0.0144062
-0.146381
0.0148733
-0.143254
0.0153431
-0.140199
-0.137192
0.0158146
0.000121287
-0.282677
0.00045655
-0.270921
0.000953631
-0.262048
0.00155834
-0.254848
0.00222679
-0.248621
0.00292603
-0.242886
0.0036323
-0.237364
0.00432954
-0.231914
0.00500781
-0.226481
0.00566179
-0.221057
0.00628946
-0.215658
0.00689106
-0.210312
0.00746823
-0.20505
0.00802337
-0.199897
0.00855922
-0.194876
0.00907855
-0.190002
0.00958393
-0.185287
0.0100777
-0.180736
0.0105618
-0.176352
0.011038
-0.172134
0.0115078
-0.168079
0.0119724
-0.164184
0.0124332
-0.160443
0.0128914
-0.156848
0.0133485
-0.15339
0.0138057
-0.150059
0.0142646
-0.14684
0.0147261
-0.143715
0.0151908
-0.140664
-0.137659
0.0156581
0.000127538
-0.282804
0.000468312
-0.271262
0.000967047
-0.262547
0.001571
-0.255452
0.00223678
-0.249287
0.0029316
-0.243581
0.00363196
-0.238064
0.00432216
-0.232604
0.00499254
-0.227151
0.00563808
-0.221702
0.00625701
-0.216277
0.00684977
-0.210905
0.00741816
-0.205618
0.00796469
-0.200444
0.00849217
-0.195403
0.00900341
-0.190513
0.00950099
-0.185784
0.00998723
-0.181222
0.0104641
-0.176829
0.0109333
-0.172603
0.0113962
-0.168542
0.0118541
-0.164642
0.0123083
-0.160897
0.0127599
-0.157299
0.0132104
-0.153841
0.0136612
-0.15051
0.0141138
-0.147292
0.0145695
-0.144171
0.0150289
-0.141123
-0.138122
0.0154918
0.000132273
-0.282936
0.000477393
-0.271607
0.000977723
-0.263047
0.00158083
-0.256055
0.00224375
-0.24995
0.0029339
-0.244271
0.00362808
-0.238758
0.00431089
-0.233287
0.00497304
-0.227814
0.0056098
-0.222339
0.00621965
-0.216887
0.00680325
-0.211489
0.00736253
-0.206178
0.00790014
-0.200981
0.00841897
-0.195922
0.00892185
-0.191016
0.00941139
-0.186274
0.00988988
-0.181701
0.0103593
-0.177298
0.0108212
-0.173065
0.0112771
-0.168998
0.0117281
-0.165093
0.0121754
-0.161344
0.0126203
-0.157744
0.013064
-0.154284
0.0135082
-0.150954
0.0139543
-0.147738
0.0144039
-0.144621
0.0148578
-0.141577
-0.138581
0.0153161
0.000135362
-0.283072
0.000483887
-0.271956
0.000985678
-0.263549
0.00158789
-0.256657
0.00224776
-0.25061
0.00293297
-0.244956
0.00362064
-0.239446
0.00429574
-0.233962
0.00494931
-0.228467
0.00557694
-0.222967
0.00617738
-0.217487
0.00675149
-0.212063
0.00730137
-0.206727
0.00782978
-0.20151
0.00833968
-0.196432
0.00883394
-0.19151
0.00931518
-0.186755
0.00978569
-0.182171
0.0102474
-0.17776
0.0107019
-0.173519
0.0111505
-0.169447
0.0115944
-0.165537
0.0120346
-0.161784
0.0124725
-0.158182
0.0129094
-0.154721
0.0133467
-0.151391
0.0137862
-0.148178
0.0142295
-0.145064
0.0146777
-0.142025
-0.139034
0.0151312
0.000137808
-0.28321
0.000488905
-0.272307
0.000991617
-0.264052
0.00159258
-0.257258
0.00224905
-0.251267
0.00292895
-0.245636
0.00360976
-0.240127
0.00427678
-0.234629
0.00492142
-0.229112
0.00553957
-0.223585
0.00613027
-0.218078
0.00669457
-0.212627
0.00723475
-0.207268
0.00775367
-0.202029
0.00825437
-0.196933
0.00873975
-0.191996
0.00921245
-0.187228
0.00967475
-0.182633
0.0101285
-0.178213
0.0105754
-0.173966
0.0110165
-0.169888
0.0114531
-0.165974
0.0118862
-0.162218
0.0123169
-0.158613
0.0127467
-0.155151
0.013177
-0.151821
0.0136097
-0.148611
0.0140465
-0.145501
0.0144888
-0.142468
-0.139483
0.0149375
0.00013971
-0.283349
0.000492706
-0.27266
0.000995804
-0.264555
0.00159508
-0.257858
0.00224776
-0.251919
0.00292199
-0.246311
0.00359554
-0.2408
0.0042541
-0.235288
0.00488944
-0.229747
0.00549776
-0.224193
0.00607837
-0.218658
0.00663255
-0.213181
0.00716273
-0.207798
0.00767187
-0.202538
0.0081631
-0.197424
0.00863935
-0.192472
0.00910327
-0.187692
0.00955712
-0.183087
0.0100028
-0.178659
0.0104417
-0.174405
0.0108753
-0.170321
0.0113044
-0.166403
0.0117301
-0.162643
0.0121535
-0.159036
0.012576
-0.155573
0.0129992
-0.152245
0.0134249
-0.149036
0.0138551
-0.145931
0.0142914
-0.142904
-0.139926
0.014735
0.000141248
-0.283491
0.000495574
-0.273014
0.000998522
-0.265058
0.00159564
-0.258455
0.00224409
-0.252568
0.0029122
-0.246979
0.00357808
-0.241466
0.00422779
-0.235937
0.00485345
-0.230373
0.0054516
-0.224791
0.00602179
-0.219229
0.00656552
-0.213725
0.00708539
-0.208318
0.00758447
-0.203037
0.00806595
-0.197905
0.0085328
-0.192939
0.00898769
-0.188147
0.00943286
-0.183532
0.00987016
-0.179096
0.0103011
-0.174836
0.0107268
-0.170747
0.0111482
-0.166824
0.0115664
-0.163061
0.0119824
-0.159452
0.0123975
-0.155988
0.0128134
-0.15266
0.013232
-0.149455
0.0136554
-0.146354
0.0140856
-0.143334
-0.140365
0.014524
0.000142469
-0.283633
0.00049764
-0.273369
0.000999932
-0.26556
0.00159442
-0.259049
0.00223818
-0.253211
0.00289973
-0.24764
0.00355752
-0.242124
0.00419798
-0.236578
0.00481357
-0.230988
0.00540117
-0.225379
0.0059606
-0.219788
0.00649356
-0.214258
0.00700281
-0.208827
0.00749154
-0.203526
0.00796298
-0.198377
0.00842017
-0.193396
0.00886576
-0.188592
0.00930201
-0.183969
0.00973072
-0.179525
0.0101534
-0.175259
0.010571
-0.171165
0.0109847
-0.167238
0.0113952
-0.163472
0.0118036
-0.159861
0.0122112
-0.156396
0.0126196
-0.153069
0.0130309
-0.149866
0.0134474
-0.146771
0.0138713
-0.143758
-0.140798
0.0143045
0.00014342
-0.283777
0.000499002
-0.273725
0.00100017
-0.266061
0.00159156
-0.259641
0.00223017
-0.25385
0.00288472
-0.248295
0.00353399
-0.242773
0.00416477
-0.237209
0.00476992
-0.231594
0.0053466
-0.225956
0.00589492
-0.220336
0.00641678
-0.21478
0.00691509
-0.209325
0.00739315
-0.204004
0.00785426
-0.198838
0.0083015
-0.193843
0.00873752
-0.189028
0.00916458
-0.184396
0.00958447
-0.179945
0.00999859
-0.175673
0.010408
-0.171574
0.0108137
-0.167643
0.0112163
-0.163875
0.011617
-0.160261
0.0120168
-0.156796
0.0124176
-0.15347
0.0128215
-0.15027
0.013231
-0.14718
0.0136486
-0.144176
-0.141226
0.0140765
0.000144128
-0.283921
0.000499722
-0.274081
0.000999347
-0.266561
0.00158719
-0.260229
0.0022202
-0.254483
0.00286729
-0.248942
0.00350761
-0.243413
0.00412831
-0.237829
0.00472261
-0.232188
0.00528801
-0.226521
0.00582485
-0.220873
0.00633527
-0.21529
0.00682232
-0.209812
0.00728939
-0.204471
0.00773987
-0.199288
0.00817685
-0.19428
0.00860301
-0.189454
0.0090206
-0.184813
0.00943138
-0.180356
0.00983674
-0.176078
0.0102377
-0.171975
0.0106351
-0.168041
0.0110297
-0.164269
0.0114224
-0.160654
0.0118145
-0.157188
0.0122075
-0.153863
0.0126038
-0.150666
0.0130061
-0.147583
0.0134172
-0.144587
-0.141648
0.0138397
0.000144599
-0.284065
0.00049986
-0.274436
0.000997544
-0.267058
0.00158142
-0.260812
0.00220838
-0.25511
0.00284759
-0.249581
0.00347851
-0.244044
0.00408873
-0.238439
0.0046718
-0.232771
0.00522553
-0.227075
0.00575055
-0.221398
0.00624917
-0.215789
0.00672461
-0.210288
0.00718036
-0.204926
0.00761988
-0.199728
0.00804627
-0.194707
0.00846226
-0.18987
0.00887005
-0.185221
0.00927143
-0.180757
0.00966774
-0.176474
0.01006
-0.172367
0.0104489
-0.16843
0.0108353
-0.164656
0.0112198
-0.161039
0.0116039
-0.157572
0.011989
-0.154248
0.0123775
-0.151055
0.0127725
-0.147978
0.0131769
-0.144991
-0.142065
0.0135939
0.000144847
-0.28421
0.000499456
-0.274791
0.000994854
-0.267554
0.00157437
-0.261392
0.00219487
-0.25573
0.00282575
-0.250212
0.00344687
-0.244665
0.00404619
-0.239039
0.00461763
-0.233342
0.00515932
-0.227616
0.00567214
-0.221911
0.00615862
-0.216275
0.00662209
-0.210751
0.00706618
-0.205371
0.00749437
-0.200156
0.00790983
-0.195122
0.00831528
-0.190276
0.00871294
-0.185619
0.00910457
-0.181149
0.00949149
-0.176861
0.00987468
-0.172751
0.0102549
-0.16881
0.0106327
-0.165033
0.0110089
-0.161415
0.0113847
-0.157948
0.0117616
-0.154625
0.0121422
-0.151436
0.0125296
-0.148365
0.0129272
-0.145389
-0.142477
0.0133386
0.000144875
-0.284355
0.000498563
-0.275144
0.000991367
-0.268047
0.00156616
-0.261967
0.00217979
-0.256344
0.00280193
-0.250834
0.00341284
-0.245276
0.00400086
-0.239627
0.00456029
-0.233902
0.00508956
-0.228146
0.00558982
-0.222411
0.00606377
-0.216749
0.00651491
-0.211202
0.00694696
-0.205803
0.00736345
-0.200573
0.00776759
-0.195526
0.00816211
-0.19067
0.00854925
-0.186006
0.00893073
-0.18153
0.00930789
-0.177239
0.00968166
-0.173124
0.0100527
-0.169181
0.0104217
-0.165402
0.0107893
-0.161782
0.0111565
-0.158315
0.0115251
-0.154993
0.0118975
-0.151808
0.012277
-0.148744
0.0126676
-0.14578
-0.142882
0.0130733
0.000144695
-0.2845
0.000497239
-0.275497
0.000987187
-0.268537
0.00155692
-0.262536
0.00216329
-0.25695
0.00277631
-0.251447
0.00337661
-0.245877
0.00395294
-0.240203
0.00449997
-0.234449
0.00501645
-0.228662
0.00550376
-0.222899
0.00596482
-0.217211
0.00640325
-0.211641
0.00682286
-0.206222
0.00722725
-0.200977
0.00761965
-0.195919
0.00800281
-0.191054
0.00837897
-0.186382
0.00874986
-0.181901
0.0091168
-0.177605
0.0094807
-0.173488
0.00984224
-0.169543
0.010202
-0.165762
0.0105605
-0.162141
0.0109189
-0.158673
0.0112787
-0.155353
0.0116425
-0.152172
0.0120139
-0.149116
0.0123972
-0.146163
-0.143282
0.0127969
0.000144314
-0.284644
0.000495551
-0.275848
0.000982437
-0.269023
0.0015468
-0.263101
0.00214557
-0.257549
0.00274907
-0.252051
0.00333838
-0.246466
0.00390265
-0.240767
0.00443691
-0.234983
0.00494022
-0.229165
0.00541422
-0.223373
0.005862
-0.217658
0.00628732
-0.212066
0.00669408
-0.206629
0.00708593
-0.201369
0.00746614
-0.196299
0.00783745
-0.191425
0.00820212
-0.186747
0.0085619
-0.182261
0.00891808
-0.177962
0.0092716
-0.173842
0.00962309
-0.169894
0.00997306
-0.166112
0.0103221
-0.16249
0.0106711
-0.159022
0.0110218
-0.155704
0.0113766
-0.152527
0.0117395
-0.149479
0.012115
-0.146538
-0.143676
0.0125085
0.000143752
-0.284788
0.000493592
-0.276198
0.000977259
-0.269507
0.001536
-0.26366
0.00212681
-0.25814
0.00272045
-0.252644
0.0032984
-0.247044
0.00385024
-0.241319
0.00437137
-0.235504
0.00486114
-0.229655
0.00532145
-0.223833
0.00575556
-0.218092
0.00616738
-0.212478
0.00656086
-0.207022
0.00693971
-0.201748
0.00730722
-0.196666
0.00766616
-0.191784
0.00801878
-0.187099
0.00836683
-0.182609
0.00871163
-0.178306
0.00905411
-0.174184
0.0093949
-0.170235
0.00973449
-0.166452
0.0100734
-0.162829
0.0104126
-0.159361
0.0107535
-0.156045
0.0110988
-0.152872
0.0114524
-0.149832
0.0118197
-0.146906
-0.144062
0.0122065
0.00014305
-0.284931
0.000491489
-0.276546
0.000971839
-0.269987
0.0015247
-0.264212
0.00210725
-0.258723
0.00269067
-0.253228
0.00325692
-0.24761
0.00379599
-0.241858
0.00430363
-0.236012
0.00477952
-0.230131
0.00522577
-0.224279
0.00564584
-0.218512
0.00604374
-0.212876
0.0064235
-0.207402
0.00678887
-0.202113
0.00714316
-0.197021
0.00748913
-0.19213
0.00782906
-0.187439
0.0081647
-0.182945
0.00849738
-0.178639
0.00882805
-0.174515
0.00915735
-0.170564
0.00948577
-0.16678
0.0098138
-0.163157
0.0101423
-0.15969
0.0104727
-0.156375
0.0108077
-0.153207
0.0111515
-0.150176
0.0115097
-0.147264
-0.144442
0.0118892
0.000142263
-0.285073
0.000489405
-0.276893
0.00096639
-0.270464
0.00151315
-0.264759
0.00208713
-0.259297
0.00266002
-0.253801
0.00321425
-0.248164
0.00374021
-0.242384
0.00423404
-0.236506
0.0046957
-0.230593
0.00512754
-0.224711
0.0055332
-0.218918
0.00591677
-0.213259
0.00628237
-0.207768
0.00663377
-0.202465
0.00697427
-0.197361
0.00730665
-0.192462
0.00763318
-0.187766
0.00795563
-0.183267
0.00827533
-0.178959
0.00859327
-0.174833
0.00891011
-0.170881
0.00922635
-0.167096
0.00954249
-0.163473
0.00985929
-0.160007
0.0101782
-0.156694
0.0105019
-0.153531
0.0108348
-0.150509
0.0111829
-0.147612
-0.144813
0.0115542
0.000141498
-0.285215
0.000487566
-0.27724
0.00096118
-0.270938
0.00150163
-0.2653
0.00206677
-0.259862
0.00262882
-0.254363
0.00317071
-0.248706
0.00368326
-0.242897
0.00416296
-0.236985
0.00461008
-0.23104
0.00502719
-0.225128
0.00541808
-0.219309
0.00578695
-0.213628
0.00613795
-0.208119
0.00647488
-0.202801
0.00680102
-0.197687
0.00711915
-0.19278
0.00743152
-0.188078
0.0077399
-0.183575
0.00804565
-0.179265
0.00834977
-0.175137
0.00865298
-0.171184
0.0089558
-0.167399
0.00925874
-0.163776
0.00956255
-0.160311
0.00986867
-0.157
0.0101797
-0.153842
0.0105002
-0.150829
0.0108368
-0.147949
-0.145175
0.0111985
0.000140923
-0.285355
0.000486269
-0.277585
0.000956543
-0.271408
0.00149049
-0.265834
0.0020465
-0.260418
0.00259742
-0.254913
0.00312667
-0.249236
0.00362551
-0.243396
0.0040908
-0.237451
0.00452308
-0.231472
0.00492517
-0.22553
0.00530098
-0.219685
0.0056548
-0.213982
0.00599081
-0.208455
0.00631279
-0.203123
0.00662401
-0.197999
0.00692721
-0.193083
0.00722461
-0.188376
0.00751798
-0.183869
0.00780868
-0.179555
0.00809774
-0.175426
0.00838592
-0.171472
0.00867379
-0.167687
0.00896191
-0.164064
0.00925105
-0.1606
0.00954263
-0.157292
0.00983927
-0.154139
0.0101456
-0.151136
0.0104688
-0.148272
-0.145525
0.0108191
0.000140833
-0.285496
0.000485956
-0.27793
0.000952911
-0.271875
0.00148012
-0.266361
0.0020267
-0.260964
0.00256618
-0.255453
0.00308251
-0.249752
0.00356737
-0.243881
0.00401798
-0.237901
0.00443519
-0.231889
0.00482201
-0.225917
0.00518248
-0.220045
0.00552096
-0.214321
0.00584163
-0.208775
0.00614823
-0.20343
0.00644401
-0.198294
0.00673163
-0.193371
0.00701325
-0.188657
0.00729062
-0.184146
0.00756506
-0.17983
0.00783763
-0.175699
0.00810913
-0.171744
0.0083802
-0.167958
0.00865145
-0.164335
0.00892373
-0.160872
0.00919851
-0.157566
0.00947846
-0.154418
0.00976828
-0.151426
0.0100758
-0.148579
-0.145861
0.010412
0.000141705
-0.285638
0.000487278
-0.278276
0.000950845
-0.272339
0.001471
-0.266881
0.0020078
-0.261501
0.00253552
-0.255981
0.00303862
-0.250255
0.00350924
-0.244351
0.00394495
-0.238337
0.00434689
-0.232291
0.00471826
-0.226288
0.00506321
-0.22039
0.00538614
-0.214644
0.00569121
-0.209081
0.00598212
-0.203721
0.00626201
-0.198574
0.00653347
-0.193643
0.00679857
-0.188922
0.00705894
-0.184407
0.00731588
-0.180087
0.00757039
-0.175953
0.00782329
-0.171997
0.00807526
-0.16821
0.008327
-0.164587
0.00857948
-0.161124
0.0088343
-0.157821
0.00909427
-0.154678
0.0093642
-0.151696
0.00965221
-0.148867
-0.14618
0.00997084
0.000144327
-0.285782
0.0004911
-0.278622
0.000950954
-0.272799
0.00146357
-0.267394
0.00199018
-0.262028
0.00250579
-0.256496
0.00299539
-0.250745
0.00345153
-0.244807
0.00387217
-0.238758
0.0042587
-0.232678
0.00461451
-0.226644
0.00494385
-0.22072
0.00525114
-0.214951
0.00554049
-0.20937
0.00581551
-0.203996
0.00607924
-0.198838
0.00633411
-0.193897
0.00658206
-0.18917
0.00682458
-0.184649
0.00706282
-0.180325
0.0072977
-0.176188
0.00752993
-0.172229
0.00776016
-0.16844
0.00798913
-0.164816
0.00821786
-0.161353
0.00844814
-0.158052
0.00868301
-0.154913
0.00892743
-0.15194
0.00918989
-0.14913
-0.146477
0.00948659
0.000149764
-0.285932
0.00049829
-0.278971
0.000953733
-0.273254
0.00145824
-0.267898
0.00197425
-0.262544
0.00247739
-0.256999
0.00295319
-0.25122
0.00339465
-0.245249
0.00380007
-0.239163
0.00417112
-0.233049
0.00451137
-0.226984
0.00482513
-0.221033
0.00511682
-0.215242
0.00539048
-0.209644
0.00564963
-0.204255
0.00589712
-0.199086
0.00613522
-0.194136
0.00636566
-0.189401
0.00658971
-0.184873
0.00680833
-0.180544
0.0070222
-0.176402
0.00723184
-0.172439
0.00743773
-0.168646
0.00764043
-0.165019
0.00784088
-0.161554
0.00804089
-0.158252
0.00824372
-0.155116
0.00845484
-0.152151
0.00868409
-0.149359
-0.146745
0.00895272
0.000159163
-0.286091
0.000509616
-0.279321
0.000959845
-0.273704
0.00145562
-0.268394
0.00196052
-0.263049
0.00245075
-0.25749
0.00291238
-0.251682
0.00333892
-0.245675
0.00372901
-0.239553
0.00408461
-0.233404
0.00440938
-0.227309
0.00470773
-0.221332
0.00498405
-0.215519
0.00524228
-0.209902
0.0054858
-0.204499
0.00571728
-0.199317
0.00593874
-0.194357
0.00615166
-0.189614
0.00635702
-0.185078
0.00655542
-0.180742
0.00674724
-0.176594
0.00693266
-0.172624
0.00711184
-0.168825
0.007285
-0.165192
0.00745281
-0.161721
0.00761688
-0.158416
0.00778061
-0.15528
0.00795012
-0.152321
0.00813719
-0.149546
-0.146969
0.00836029
0.00017427
-0.286266
0.000527429
-0.279674
0.000971422
-0.274148
0.00145707
-0.268879
0.00194969
-0.263541
0.00242616
-0.257966
0.00287312
-0.252129
0.00328448
-0.246087
0.00365921
-0.239928
0.00399944
-0.233745
0.00430898
-0.227619
0.00459225
-0.221615
0.00485361
-0.21578
0.00509692
-0.210145
0.00532539
-0.204727
0.00554147
-0.199533
0.00574692
-0.194562
0.00594287
-0.18981
0.00612989
-0.185265
0.0063081
-0.18092
0.00647727
-0.176763
0.00663696
-0.172784
0.00678664
-0.168975
0.0069259
-0.165331
0.00705494
-0.16185
0.00717534
-0.158536
0.00729078
-0.155395
0.00740674
-0.152437
0.00753187
-0.149671
-0.147104
0.0076676
0.000202382
-0.286468
0.000559112
-0.280031
0.000992226
-0.274581
0.00146374
-0.269351
0.00194179
-0.264019
0.00240341
-0.258428
0.00283521
-0.252561
0.00323125
-0.246483
0.00359068
-0.240287
0.00391578
-0.23407
0.00421045
-0.227913
0.00447915
-0.221884
0.00472619
-0.216027
0.00495534
-0.210374
0.00516967
-0.204941
0.00537144
-0.199735
0.00556214
-0.194753
0.00574254
-0.18999
0.00591273
-0.185436
0.00607218
-0.18108
0.00621975
-0.17691
0.00635373
-0.172918
0.00647187
-0.169093
0.00657164
-0.165431
0.00665088
-0.16193
0.00670897
-0.158594
0.00674807
-0.155434
0.00677292
-0.152461
0.00679262
-0.149691
-0.147127
0.00681565
0.000267427
-0.286735
0.000611201
-0.280375
0.00102122
-0.274991
0.00147367
-0.269803
0.00193541
-0.264481
0.00238166
-0.258874
0.00279824
-0.252977
0.00317909
-0.246864
0.00352347
-0.240632
0.00383382
-0.23438
0.00411412
-0.228194
0.00436888
-0.222138
0.00460238
-0.216261
0.00481837
-0.21059
0.00501977
-0.205143
0.00520873
-0.199924
0.00538656
-0.194931
0.0055538
-0.190157
0.00571019
-0.185592
0.00585471
-0.181224
0.00598542
-0.177041
0.00609926
-0.173032
0.00619171
-0.169186
0.00625636
-0.165496
0.0062845
-0.161958
0.00626467
-0.158574
0.0061829
-0.155353
0.00602817
-0.152307
0.00582213
-0.149485
-0.147133
0.00582766
0.29012
0.000184695
-0.290305
0.289973
0.000147051
0.289842
0.000131275
0.289718
0.000123146
0.2896
0.000118328
0.289484
0.000115797
0.289369
0.000114878
0.289254
0.000114951
0.289139
0.000115552
0.289023
0.000116408
0.288905
0.000117351
0.288787
0.000118285
0.288668
0.00011916
0.288548
0.000119945
0.288427
0.000120629
0.288306
0.000121204
0.288184
0.000121673
0.288062
0.000122035
0.28794
0.000122283
0.287818
0.000122414
0.287695
0.000122407
0.287573
0.000122231
0.287451
0.000121805
0.28733
0.000121048
0.28721
0.000119652
0.287093
0.000117461
0.28698
0.000112709
0.286874
0.00010574
0.286792
8.2542e-05
5.66269e-05
0.287893
0.000396698
-0.288105
0.287669
0.000371504
0.287442
0.000358046
0.287213
0.0003525
0.28698
0.000350435
0.286746
0.000350464
0.286508
0.000352167
0.286268
0.000355075
0.286025
0.000358708
0.285779
0.000362703
0.285529
0.000366838
0.285277
0.000370966
0.285021
0.00037498
0.284762
0.000378817
0.2845
0.000382431
0.284236
0.000385792
0.283968
0.000388884
0.283699
0.000391696
0.283427
0.000394206
0.283153
0.000396397
0.282877
0.000398222
0.2826
0.000399622
0.282321
0.000400449
0.282042
0.000400526
0.281762
0.000399373
0.281483
0.000396591
0.281205
0.000390214
0.280931
0.000380216
0.280654
0.00035884
0.00033606
0.284371
0.000597576
-0.284572
0.284149
0.000593779
0.283913
0.000594003
0.283666
0.000599
0.28341
0.000606533
0.283145
0.000615334
0.282873
0.000625058
0.282592
0.00063547
0.282305
0.000646272
0.28201
0.00065719
0.281709
0.000668022
0.281401
0.000678629
0.281087
0.000688913
0.280767
0.000698799
0.280442
0.000708239
0.28011
0.000717197
0.279773
0.000725647
0.279431
0.000733579
0.279085
0.000740967
0.278733
0.000747788
0.278378
0.000753996
0.278018
0.000759513
0.277654
0.00076419
0.277287
0.000767835
0.276916
0.000770005
0.276542
0.000770338
0.276165
0.000767603
0.275783
0.00076191
0.275392
0.000750257
0.000736321
0.279506
0.000763838
-0.279672
0.279319
0.000780726
0.279115
0.0007983
0.278896
0.000817832
0.278664
0.000838689
0.278419
0.0008601
0.278162
0.000881744
0.277894
0.000903467
0.277615
0.000925086
0.277326
0.000946404
0.277027
0.000967262
0.276718
0.00098754
0.2764
0.00100716
0.276073
0.00102605
0.275737
0.00104417
0.275392
0.00106151
0.27504
0.00107803
0.27468
0.00109374
0.274312
0.00110863
0.273937
0.00112268
0.273555
0.00113587
0.273167
0.00114814
0.272771
0.00115937
0.27237
0.00116944
0.271962
0.00117806
0.271547
0.00118499
0.271125
0.00118962
0.270695
0.001192
0.270254
0.00119086
0.00118738
0.273595
0.000880335
-0.273712
0.273459
0.000916925
0.273305
0.000952799
0.273134
0.000988884
0.272947
0.00102522
0.272746
0.00106147
0.27253
0.00109739
0.272301
0.00113285
0.272058
0.00116771
0.271803
0.00120183
0.271535
0.00123508
0.271255
0.00126736
0.270963
0.00129862
0.270661
0.00132879
0.270347
0.00135784
0.270023
0.00138576
0.269688
0.00141255
0.269344
0.00143822
0.26899
0.00146277
0.268626
0.00148622
0.268253
0.00150857
0.267872
0.00152982
0.267481
0.00154991
0.267082
0.0015688
0.266674
0.00158633
0.266256
0.00160242
0.265829
0.00161677
0.265392
0.00162943
0.264943
0.0016399
0.00164883
0.266946
0.000943712
-0.267009
0.266864
0.000999371
0.266763
0.00105368
0.266644
0.00110719
0.266509
0.00116013
0.266359
0.00121239
0.266192
0.00126383
0.266011
0.00131432
0.265815
0.00136377
0.265604
0.00141207
0.26538
0.00145911
0.265143
0.00150482
0.264892
0.00154913
0.264629
0.00159202
0.264353
0.00163344
0.264066
0.00167341
0.263766
0.00171193
0.263456
0.00174903
0.263134
0.00178475
0.262801
0.00181912
0.262457
0.00185219
0.262103
0.001884
0.261738
0.00191459
0.261363
0.00194397
0.260977
0.00197213
0.260581
0.00199909
0.260173
0.00202476
0.259753
0.00204928
0.25932
0.0020725
0.00209501
0.259862
0.000958941
-0.259877
0.259828
0.00103309
0.259777
0.00110555
0.259707
0.0011766
0.259621
0.00124646
0.259518
0.00131514
0.259399
0.00138255
0.259265
0.0014486
0.259116
0.00151321
0.258951
0.00157628
0.258773
0.00163775
0.25858
0.00169755
0.258374
0.00175562
0.258154
0.00181192
0.257921
0.00186646
0.257675
0.00191923
0.257417
0.00197026
0.257146
0.00201959
0.256863
0.00206729
0.256569
0.00211343
0.256263
0.0021581
0.255946
0.0022014
0.255617
0.00224342
0.255277
0.00228428
0.254925
0.00232407
0.254561
0.0023629
0.254185
0.00240085
0.253796
0.00243813
0.253394
0.00247479
0.00251135
0.252607
0.000935056
-0.252583
0.252613
0.00102702
0.252601
0.00111705
0.252573
0.00120527
0.252527
0.00129183
0.252466
0.0013768
0.252388
0.00146013
0.252295
0.00154172
0.252187
0.00162152
0.252064
0.00169945
0.251926
0.00177545
0.251774
0.00184945
0.251608
0.00192141
0.251429
0.00199131
0.251236
0.00205914
0.25103
0.00212492
0.250812
0.00218868
0.250581
0.00225049
0.250338
0.00231043
0.250083
0.00236863
0.249816
0.0024252
0.249537
0.00248031
0.249246
0.00253412
0.248943
0.00258683
0.248629
0.00263862
0.248302
0.00268971
0.247963
0.00274031
0.24761
0.00279068
0.247244
0.00284099
0.00289171
0.245381
0.000882147
-0.245328
0.245417
0.000991135
0.245436
0.00109799
0.245438
0.00120275
0.245425
0.00130552
0.245395
0.00140634
0.24535
0.00150519
0.24529
0.00160199
0.245215
0.00169667
0.245125
0.00178918
0.245021
0.00187944
0.244903
0.00196742
0.244771
0.00205305
0.244626
0.00213633
0.244468
0.00221726
0.244297
0.00229586
0.244114
0.00237217
0.243918
0.00244629
0.24371
0.00251833
0.24349
0.00258843
0.243259
0.00265676
0.243015
0.00272355
0.24276
0.00278903
0.242494
0.00285347
0.242215
0.00291716
0.241925
0.00298043
0.241621
0.00304355
0.241305
0.0031069
0.240975
0.00317071
0.00323542
0.238324
0.000809642
-0.238251
0.23838
0.000934843
0.23842
0.00105774
0.238445
0.00117832
0.238453
0.00129663
0.238447
0.00141271
0.238426
0.00152651
0.23839
0.00163799
0.238339
0.00174706
0.238275
0.00185366
0.238197
0.00195773
0.238105
0.00205922
0.238
0.00215809
0.237882
0.00225432
0.237751
0.00234792
0.237608
0.0024389
0.237453
0.00252734
0.237286
0.00261334
0.237107
0.00269702
0.236917
0.00277857
0.236716
0.00285822
0.236503
0.00293623
0.236279
0.00301291
0.236044
0.00308863
0.235797
0.00316375
0.235539
0.00323872
0.235269
0.00331392
0.234986
0.0033898
0.23469
0.00346669
0.00354502
0.231523
0.000725514
-0.231439
0.231592
0.000866149
0.231645
0.00100433
0.231683
0.00113999
0.231707
0.00127316
0.231716
0.00140384
0.23171
0.00153198
0.231691
0.00165753
0.231657
0.0017804
0.23161
0.00190053
0.23155
0.00201786
0.231477
0.00213231
0.231391
0.00224387
0.231293
0.00235249
0.231183
0.00245819
0.231061
0.00256101
0.230927
0.00266099
0.230782
0.00275827
0.230626
0.00285299
0.23046
0.00294537
0.230282
0.00303568
0.230094
0.00312423
0.229896
0.00321142
0.229687
0.0032977
0.229467
0.00338355
0.229236
0.0034695
0.228994
0.00355607
0.22874
0.00364381
0.228473
0.00373316
0.00382455
0.225026
0.000636022
-0.224937
0.225101
0.000791385
0.225161
0.000944147
0.225207
0.00109421
0.225238
0.00124158
0.225256
0.00138623
0.22526
0.0015281
0.22525
0.00166712
0.225227
0.00180321
0.225192
0.00193629
0.225143
0.00206628
0.225082
0.00219313
0.22501
0.00231679
0.224925
0.00243723
0.224829
0.00255444
0.224721
0.00266846
0.224603
0.00277935
0.224474
0.00288725
0.224334
0.00299232
0.224185
0.0030948
0.224026
0.003195
0.223857
0.0032933
0.223678
0.00339017
0.223489
0.00348614
0.223291
0.00358182
0.223083
0.00367786
0.222864
0.00377494
0.222634
0.00387371
0.222392
0.00397475
0.00407854
0.218851
0.000545766
-0.218761
0.218927
0.000715244
0.21899
0.000881979
0.219038
0.00104585
0.219073
0.00120682
0.219094
0.00136486
0.219102
0.00151991
0.219098
0.00167185
0.21908
0.00182061
0.21905
0.00196609
0.219008
0.00210821
0.218955
0.0022469
0.218889
0.00238211
0.218813
0.00251378
0.218725
0.00264191
0.218627
0.00276653
0.218519
0.00288771
0.218401
0.00300555
0.218273
0.00312026
0.218135
0.00323208
0.217989
0.00334136
0.217834
0.00344854
0.21767
0.00355416
0.217497
0.00365886
0.217316
0.00376337
0.217125
0.0038685
0.216925
0.00397508
0.216715
0.00408395
0.216493
0.00419584
0.00431132
0.212998
0.00045791
-0.21291
0.213072
0.00064099
0.213133
0.000821178
0.21318
0.000998334
0.213215
0.00117242
0.213236
0.00134336
0.213245
0.00151107
0.213241
0.00167545
0.213226
0.0018364
0.213198
0.0019938
0.213159
0.00214757
0.213108
0.00229761
0.213046
0.00244385
0.212974
0.00258625
0.212891
0.00272477
0.212798
0.00285942
0.212695
0.00299027
0.212584
0.00311742
0.212463
0.00324107
0.212333
0.00336148
0.212196
0.00347903
0.21205
0.0035942
0.211896
0.00370762
0.211735
0.00382002
0.211566
0.00393229
0.21139
0.0040454
0.211204
0.0041604
0.21101
0.00427834
0.210805
0.00440015
0.00452657
0.207452
0.000374461
-0.207369
0.207522
0.000570715
0.20758
0.00076393
0.207624
0.000953952
0.207656
0.00114072
0.207675
0.00132414
0.207682
0.00150412
0.207677
0.00168053
0.20766
0.00185325
0.207632
0.00202216
0.207592
0.00218716
0.207542
0.00234813
0.20748
0.00250499
0.207409
0.00265766
0.207328
0.00280609
0.207237
0.00295028
0.207137
0.00309026
0.207028
0.00322614
0.206911
0.00335809
0.206786
0.00348638
0.206654
0.0036114
0.206514
0.00373369
0.206368
0.00385392
0.206215
0.00397297
0.206056
0.00409186
0.205889
0.00421177
0.205716
0.00433401
0.205534
0.00445989
0.205343
0.00459065
0.00472724
0.202195
0.00029654
-0.202117
0.20226
0.000505623
0.202313
0.000711519
0.202352
0.000914063
0.20238
0.00111317
0.202395
0.00130874
0.202399
0.00150064
0.202391
0.00168874
0.202371
0.00187291
0.20234
0.002053
0.202298
0.00222889
0.202246
0.00240045
0.202184
0.00256756
0.202111
0.00273013
0.202029
0.00288808
0.201938
0.00304138
0.201838
0.00319003
0.20173
0.00333412
0.201615
0.00347379
0.201492
0.0036093
0.201362
0.00374105
0.201226
0.0038696
0.201084
0.00399569
0.200937
0.00412029
0.200784
0.00424459
0.200626
0.00437004
0.200462
0.00449822
0.200291
0.00463082
0.200112
0.00476946
0.00491542
0.197204
0.000224636
-0.197132
0.197263
0.000446274
0.19731
0.000664575
0.197345
0.000879364
0.197368
0.00109054
0.197378
0.00129798
0.197378
0.00150155
0.197365
0.00170108
0.197342
0.00189642
0.197307
0.00208743
0.197262
0.00227394
0.197207
0.00245581
0.197141
0.00263289
0.197067
0.00280507
0.196982
0.00297222
0.196889
0.00313428
0.196788
0.00329122
0.196679
0.00344308
0.196563
0.00358997
0.19644
0.00373212
0.196311
0.00386991
0.196177
0.0040039
0.196038
0.00413488
0.195894
0.00426391
0.195747
0.00439238
0.195595
0.00452197
0.195438
0.00465467
0.195276
0.00479261
0.195108
0.00493794
0.00509241
0.192457
0.000158819
-0.192391
0.19251
0.00039279
0.192551
0.000623279
0.192581
0.000850098
0.192598
0.00107313
0.192604
0.00129223
0.192598
0.00150725
0.192581
0.001718
0.192553
0.00192433
0.192515
0.00212605