/*--------------------------------*- C++ -*----------------------------------*\
  =========                 |
  \\      /  F ield         | OpenFOAM: The Open Source CFD Toolbox
   \\    /   O peration     | Website:  https://openfoam.org
    \\  /    A nd           | Version:  6.0
     \\/     M anipulation  |
\*---------------------------------------------------------------------------*/
FoamFile
{
    version     2.0;
    format      ascii;
    class       volVectorField;
    location    "0.40075";
    object      U;
}
// * * * * * * * * * * * * * * * * * * * * * * * * * * * * * * * * * * * * * //

dimensions      [0 1 -1 0 0 0 0];

internalField   nonuniform List<vector> 
19200
(
(0.26817 -9.58543 -1.19275e-20)
(0.111434 -8.83563 5.43199e-21)
(0.102052 -8.13316 2.20313e-21)
(0.106372 -7.47599 1.72077e-21)
(0.102737 -6.86167 1.63131e-21)
(0.100086 -6.28728 1.21646e-22)
(0.0992601 -5.75045 1.90375e-21)
(0.0995689 -5.24923 -5.9159e-23)
(0.100934 -4.78184 1.33473e-21)
(0.103403 -4.34658 5.05696e-22)
(0.107 -3.94183 6.9872e-23)
(0.11175 -3.56603 6.54348e-22)
(0.117674 -3.21761 8.67255e-22)
(0.124787 -2.89509 -5.3279e-22)
(0.133087 -2.59702 6.35596e-22)
(0.142557 -2.32201 4.8352e-22)
(0.153163 -2.06873 -4.39845e-22)
(0.164853 -1.83594 7.02614e-22)
(0.177559 -1.62243 -4.34444e-22)
(0.1912 -1.4271 2.14079e-22)
(0.205681 -1.24886 2.88913e-22)
(0.220896 -1.08674 -9.25626e-23)
(0.236734 -0.939797 1.24983e-22)
(0.253074 -0.807221 -1.46355e-22)
(0.269792 -0.688234 -5.25354e-25)
(0.286761 -0.582027 7.8975e-23)
(0.303857 -0.487759 -5.30069e-23)
(0.320956 -0.404597 3.08527e-23)
(0.337934 -0.331775 7.72309e-23)
(0.354659 -0.268576 3.1982e-22)
(0.518808 -9.57467 -2.40212e-21)
(0.3432 -8.83094 1.59081e-20)
(0.315483 -8.13046 -7.93667e-21)
(0.302554 -7.47461 -9.07981e-21)
(0.282822 -6.86165 -3.36956e-21)
(0.265114 -6.28849 -2.15961e-21)
(0.250198 -5.75282 -4.22794e-21)
(0.23733 -5.25274 6.18666e-22)
(0.226385 -4.7865 -9.30846e-22)
(0.217368 -4.35245 -2.54749e-21)
(0.210262 -3.94898 -5.00651e-21)
(0.205053 -3.57452 2.1849e-21)
(0.201726 -3.22752 -7.40506e-22)
(0.200257 -2.90648 2.7681e-22)
(0.20061 -2.60992 -1.38701e-21)
(0.202733 -2.33644 -4.49464e-22)
(0.20656 -2.08471 6.12464e-23)
(0.212007 -1.85342 1.40788e-21)
(0.218977 -1.64139 -7.5127e-22)
(0.227362 -1.44745 -4.02428e-22)
(0.237038 -1.27053 -1.48877e-21)
(0.247876 -1.1096 3.79904e-22)
(0.259739 -0.96373 -2.36476e-22)
(0.272484 -0.832079 4.19346e-22)
(0.285966 -0.713857 -1.96233e-22)
(0.300038 -0.608251 -3.09745e-22)
(0.314556 -0.514407 9.9973e-23)
(0.329376 -0.431493 1.63082e-22)
(0.344358 -0.358732 -2.85173e-22)
(0.359347 -0.295408 1.49523e-22)
(0.769093 -9.55784 -1.11831e-21)
(0.5745 -8.82028 4.03179e-21)
(0.528646 -8.1221 5.8617e-21)
(0.498629 -7.46797 3.1657e-20)
(0.462907 -6.85678 -1.56845e-20)
(0.430228 -6.28523 1.4241e-20)
(0.401296 -5.75106 7.80384e-21)
(0.375319 -5.25245 4.84521e-21)
(0.35213 -4.78767 -4.05381e-21)
(0.331693 -4.35512 1.61921e-24)
(0.313955 -3.95319 8.23781e-21)
(0.298861 -3.58032 1.07283e-21)
(0.28636 -3.23496 -2.99836e-21)
(0.276392 -2.9156 2.31254e-21)
(0.268883 -2.62075 4.6933e-23)
(0.263746 -2.349 8.06357e-22)
(0.260881 -2.09896 5.61553e-22)
(0.260174 -1.86936 1.67981e-21)
(0.261495 -1.65894 -7.57391e-22)
(0.264707 -1.46654 -2.45866e-22)
(0.269659 -1.29106 -5.89818e-22)
(0.276196 -1.13145 2.56619e-21)
(0.284156 -0.986767 -2.13776e-21)
(0.293371 -0.856141 6.93696e-22)
(0.303674 -0.738777 3.30868e-22)
(0.314894 -0.633858 -1.32636e-21)
(0.32687 -0.540523 1.7861e-21)
(0.33944 -0.457937 -1.88936e-22)
(0.352444 -0.385316 -2.05618e-22)
(0.365704 -0.321942 -1.4822e-21)
(1.01876 -9.5347 -4.22995e-20)
(0.805278 -8.8037 -3.28428e-20)
(0.74143 -8.10821 -3.50513e-20)
(0.694467 -7.45622 2.68714e-21)
(0.642869 -6.84717 2.14404e-21)
(0.59531 -6.2776 -2.83775e-20)
(0.552441 -5.74527 1.70013e-21)
(0.513428 -5.24843 2.78086e-21)
(0.478066 -4.78541 -6.98715e-22)
(0.446282 -4.35462 3.57818e-21)
(0.417985 -3.95448 -1.40329e-20)
(0.393086 -3.58344 -7.25166e-21)
(0.371494 -3.23994 2.95862e-21)
(0.353111 -2.92246 4.49845e-21)
(0.337829 -2.62951 -5.22879e-21)
(0.325524 -2.35965 -7.53421e-22)
(0.31606 -2.11149 -2.61371e-21)
(0.309289 -1.88371 -1.16862e-21)
(0.305051 -1.67506 1.84559e-21)
(0.303177 -1.48433 -2.33124e-21)
(0.303488 -1.31042 1.95796e-21)
(0.305803 -1.15226 -2.32103e-21)
(0.309934 -1.00886 -1.80805e-21)
(0.315689 -0.879359 -1.29317e-21)
(0.322872 -0.762943 -3.73463e-22)
(0.331294 -0.658785 -2.70077e-21)
(0.340767 -0.566047 2.81417e-22)
(0.351116 -0.483867 5.00203e-22)
(0.362165 -0.411463 -1.48186e-21)
(0.373706 -0.348112 2.95567e-22)
(1.26772 -9.50519 -2.58705e-20)
(1.0355 -8.78121 3.0162e-21)
(0.953759 -8.08882 2.60781e-20)
(0.889963 -7.43936 2.36985e-20)
(0.822592 -6.83283 1.46602e-20)
(0.760245 -6.2656 5.29359e-21)
(0.703522 -5.73544 7.69508e-21)
(0.65155 -5.24069 2.94137e-20)
(0.604091 -4.77971 -1.71159e-20)
(0.561037 -4.35094 6.70331e-22)
(0.522261 -3.95284 3.5131e-21)
(0.487638 -3.58385 1.17653e-20)
(0.457042 -3.24243 -7.57789e-21)
(0.430336 -2.92704 4.87137e-21)
(0.407374 -2.63618 -4.86658e-21)
(0.387995 -2.36839 7.83179e-21)
(0.372028 -2.12226 -2.28656e-21)
(0.359288 -1.89646 7.19584e-23)
(0.349584 -1.6897 3.17632e-21)
(0.342713 -1.50079 2.10423e-21)
(0.33847 -1.32857 -2.16808e-21)
(0.336643 -1.17196 2.86807e-21)
(0.33702 -1.02997 -1.29825e-21)
(0.339384 -0.901686 1.49399e-21)
(0.343514 -0.786298 2.00362e-21)
(0.34919 -0.682995 7.46089e-22)
(0.35621 -0.590907 2.29289e-21)
(0.364375 -0.509222 -7.90062e-22)
(0.373493 -0.437109 -2.49329e-22)
(0.383327 -0.373855 -1.35695e-21)
(1.51582 -9.46927 -1.84697e-20)
(1.26506 -8.75281 -1.15416e-20)
(1.16553 -8.06396 -2.9081e-20)
(1.085 -7.41743 -6.37141e-20)
(1.00196 -6.8138 2.21674e-20)
(0.924923 -6.24924 1.01184e-21)
(0.854429 -5.72158 -1.08579e-20)
(0.789581 -5.22921 1.2806e-21)
(0.730105 -4.77055 -1.86178e-21)
(0.675861 -4.34408 -1.82443e-20)
(0.62669 -3.94826 7.85489e-21)
(0.582431 -3.58156 1.11181e-20)
(0.54292 -3.24242 1.90747e-22)
(0.507985 -2.92932 3.44856e-21)
(0.477439 -2.64072 7.43983e-21)
(0.451085 -2.37517 -4.80658e-21)
(0.428714 -2.13123 8.00402e-21)
(0.410105 -1.90756 -3.58496e-21)
(0.395032 -1.70284 6.14748e-21)
(0.38326 -1.51586 -4.4892e-21)
(0.374551 -1.34545 1.97146e-21)
(0.368666 -1.19052 5.01091e-21)
(0.365365 -1.05004 2.58944e-22)
(0.364403 -0.923088 -4.60613e-21)
(0.36554 -0.808812 2.5988e-21)
(0.368531 -0.706422 3.07526e-22)
(0.373146 -0.615083 -8.50015e-22)
(0.379172 -0.533938 3.27482e-21)
(0.386392 -0.462193 1.19181e-21)
(0.394537 -0.399107 -1.15849e-21)
(1.76292 -9.42694 4.84122e-20)
(1.49382 -8.71851 -7.19378e-21)
(1.37663 -8.03363 -5.93657e-20)
(1.27948 -7.39044 1.13143e-20)
(1.18087 -6.79007 -1.18647e-20)
(1.08923 -6.22854 1.0542e-20)
(1.00506 -5.7037 1.78175e-20)
(0.927416 -5.21401 2.66502e-20)
(0.856006 -4.75795 -2.51754e-20)
(0.790658 -4.33403 6.21411e-21)
(0.731179 -3.94074 -2.86393e-21)
(0.677375 -3.57654 2.11745e-21)
(0.629044 -3.2399 -9.30834e-21)
(0.585977 -2.92927 -2.08858e-22)
(0.547948 -2.64313 1.22474e-20)
(0.51472 -2.37998 -8.33525e-21)
(0.486047 -2.13839 -4.7124e-21)
(0.461672 -1.91698 -3.08567e-21)
(0.441331 -1.71444 5.80035e-21)
(0.424756 -1.52951 1.16727e-21)
(0.411677 -1.36103 -5.29872e-21)
(0.401822 -1.20788 6.97017e-21)
(0.394921 -1.06901 -6.24727e-21)
(0.390707 -0.943479 4.12896e-21)
(0.388911 -0.830427 -2.33452e-21)
(0.389272 -0.72904 1.5362e-21)
(0.391534 -0.638507 1.17516e-21)
(0.395461 -0.557985 -5.23987e-21)
(0.400821 -0.486666 2.27416e-21)
(0.407299 -0.423815 4.3595e-23)
(2.00884 -9.37822 -4.7147e-20)
(1.72166 -8.67831 3.95945e-20)
(1.58692 -7.99785 -5.52972e-20)
(1.47326 -7.3584 1.01502e-19)
(1.3592 -6.76167 -2.5809e-20)
(1.25306 -6.20349 2.9755e-20)
(1.15529 -5.68179 -1.88379e-21)
(1.06495 -5.19508 -4.59363e-21)
(0.981695 -4.7419 -4.21221e-21)
(0.905331 -4.32079 4.44513e-22)
(0.835636 -3.93026 -1.32898e-20)
(0.772381 -3.5688 6.90608e-21)
(0.715329 -3.23486 -6.84622e-21)
(0.664231 -2.9269 -6.25021e-22)
(0.618822 -2.64338 -1.64873e-20)
(0.578826 -2.3828 5.39105e-21)
(0.543957 -2.14371 2.68809e-21)
(0.513919 -1.9247 -3.04375e-21)
(0.488413 -1.72446 -3.49479e-22)
(0.467135 -1.54171 -4.30662e-21)
(0.449781 -1.37527 -1.5012e-21)
(0.436048 -1.224 1.14787e-22)
(0.425634 -1.08684 -3.56157e-21)
(0.418246 -0.962829 -5.24155e-21)
(0.413592 -0.851078 2.1926e-22)
(0.411382 -0.750782 -5.91205e-22)
(0.411342 -0.661127 1.68465e-21)
(0.413213 -0.581299 -4.20731e-21)
(0.416745 -0.510473 3.62921e-21)
(0.42158 -0.447923 -7.16197e-21)
(2.25343 -9.32314 -1.20868e-19)
(1.94842 -8.63222 1.30763e-19)
(1.79629 -7.95663 -1.20233e-19)
(1.66623 -7.32132 -2.6555e-20)
(1.53683 -6.7286 -1.42181e-20)
(1.41629 -6.17413 -1.37497e-20)
(1.30504 -5.65587 -1.25426e-20)
(1.20208 -5.17243 -3.61117e-21)
(1.10707 -4.7224 -1.1064e-20)
(1.01979 -4.30435 -1.94169e-21)
(0.939969 -3.91682 1.27156e-20)
(0.867362 -3.55831 -8.69403e-21)
(0.80169 -3.22728 -8.31689e-21)
(0.742665 -2.92218 -1.18804e-20)
(0.689983 -2.64146 2.38523e-20)
(0.643327 -2.38361 -8.64896e-21)
(0.60237 -2.14716 3.02804e-21)
(0.566778 -1.9307 -1.04926e-20)
(0.536211 -1.73288 3.99911e-21)
(0.510332 -1.55243 -1.53491e-21)
(0.4888 -1.38814 1.95668e-21)
(0.471281 -1.23885 -6.69221e-22)
(0.457444 -1.1035 5.90309e-21)
(0.446965 -0.981099 -2.09658e-21)
(0.439526 -0.870733 5.76943e-21)
(0.434816 -0.771599 -1.1415e-21)
(0.432529 -0.682903 7.5954e-21)
(0.43239 -0.603815 2.15304e-21)
(0.434133 -0.533556 4.10071e-21)
(0.437352 -0.471376 -1.27597e-20)
(2.49652 -9.26171 1.92348e-19)
(2.17395 -8.58027 -3.71641e-20)
(2.00458 -7.90999 4.79689e-20)
(1.85826 -7.27922 -1.25663e-20)
(1.71364 -6.69087 4.22758e-20)
(1.57882 -6.14044 3.39008e-20)
(1.45417 -5.62594 3.40382e-20)
(1.3387 -5.14607 -1.91943e-21)
(1.23204 -4.69946 -2.49857e-20)
(1.13392 -4.28473 3.60518e-20)
(1.04408 -3.90043 -1.13086e-21)
(0.962227 -3.54509 2.09169e-20)
(0.88804 -3.21717 6.65793e-21)
(0.821197 -2.9151 2.58565e-21)
(0.761352 -2.63735 3.66515e-21)
(0.708147 -2.38239 4.49503e-21)
(0.661214 -2.14873 6.80444e-21)
(0.620177 -1.93495 -1.75626e-21)
(0.584658 -1.73968 9.04935e-21)
(0.554282 -1.56164 3.95531e-21)
(0.528674 -1.39959 -8.21625e-21)
(0.507464 -1.25239 1.42653e-20)
(0.490292 -1.11895 -1.86964e-20)
(0.476804 -0.99824 1.76574e-20)
(0.466657 -0.889365 -5.84768e-21)
(0.459512 -0.791467 1.10904e-21)
(0.45504 -0.703782 -7.81307e-21)
(0.452946 -0.62551 4.37174e-21)
(0.452946 -0.555861 1.61112e-21)
(0.454578 -0.494119 -1.97386e-21)
(2.73795 -9.19398 -1.10837e-19)
(2.39811 -8.52249 9.02244e-20)
(2.21167 -7.85796 -2.33846e-20)
(2.04923 -7.23213 5.95932e-20)
(1.88952 -6.64851 5.47981e-21)
(1.74052 -6.10246 6.7849e-21)
(1.60259 -5.59203 -7.24235e-20)
(1.47471 -5.116 -1.07598e-20)
(1.35648 -4.67308 3.6787e-20)
(1.24765 -4.26191 2.31677e-20)
(1.14789 -3.88109 -3.74669e-20)
(1.05689 -3.52913 1.97339e-20)
(0.974295 -3.20451 -1.86094e-20)
(0.899745 -2.90567 1.11476e-20)
(0.83285 -2.63106 -1.76622e-20)
(0.77321 -2.37913 -1.19488e-20)
(0.720414 -2.1484 1.15857e-21)
(0.674046 -1.93742 -4.80026e-21)
(0.633687 -1.74482 8.93256e-21)
(0.598923 -1.5693 3.34396e-21)
(0.569341 -1.4096 -2.21361e-21)
(0.54454 -1.26458 -6.55895e-22)
(0.524123 -1.13313 2.46168e-21)
(0.507711 -1.01422 -8.26046e-21)
(0.49493 -0.906908 1.3836e-20)
(0.485418 -0.810341 -3.35584e-21)
(0.478824 -0.72374 -2.897e-22)
(0.474829 -0.646341 1.232e-20)
(0.473133 -0.577354 1.73755e-21)
(0.473218 -0.516109 -1.72469e-21)
(2.97756 -9.12 1.54757e-21)
(2.62075 -8.4589 -5.86193e-20)
(2.41741 -7.80056 -4.58559e-20)
(2.239 -7.18007 -6.4654e-20)
(2.06433 -6.60154 1.33332e-21)
(1.90129 -6.06019 -3.3595e-20)
(1.75019 -5.55413 3.99366e-20)
(1.61 -5.08224 -3.45699e-21)
(1.48032 -4.64328 2.22355e-20)
(1.36086 -4.23592 -2.01725e-20)
(1.25129 -3.85879 -8.95264e-21)
(1.15125 -3.51042 4.34082e-21)
(1.06037 -3.1893 2.02256e-21)
(0.978224 -2.89387 -1.85714e-20)
(0.904396 -2.62256 1.08057e-20)
(0.838439 -2.37382 -4.65163e-21)
(0.779897 -2.14616 1.32349e-20)
(0.728314 -1.93811 -4.11875e-21)
(0.683228 -1.7483 4.28301e-21)
(0.644186 -1.57539 9.46725e-22)
(0.610738 -1.41814 6.68305e-21)
(0.582446 -1.27539 -1.39809e-21)
(0.558882 -1.14601 1.07321e-20)
(0.539632 -1.02898 -1.18986e-20)
(0.524297 -0.92332 -3.99869e-21)
(0.512488 -0.828176 3.30892e-21)
(0.503832 -0.742736 -2.70112e-22)
(0.497994 -0.666265 -5.87497e-21)
(0.494652 -0.598004 4.81365e-21)
(0.49323 -0.537298 -5.68328e-21)
(3.21517 -9.0398 1.85399e-19)
(2.84172 -8.38955 4.75954e-20)
(2.62168 -7.73781 4.78061e-20)
(2.42745 -7.12305 5.56516e-20)
(2.23797 -6.54997 7.40363e-20)
(2.061 -6.01365 -1.48949e-21)
(1.89684 -5.51227 1.0312e-20)
(1.74446 -5.04481 5.84848e-20)
(1.60343 -4.61006 -1.23121e-20)
(1.47346 -4.20676 -1.69635e-20)
(1.35419 -3.83355 2.77392e-20)
(1.24523 -3.48899 3.48659e-21)
(1.14617 -3.17156 5.30651e-22)
(1.05655 -2.8797 5.53009e-21)
(0.97591 -2.61185 8.60934e-21)
(0.903755 -2.36645 -1.6214e-20)
(0.839588 -2.14199 1.34812e-20)
(0.782907 -1.937 2.17958e-21)
(0.73321 -1.75008 1.17791e-20)
(0.690003 -1.5799 -6.29611e-21)
(0.652797 -1.42519 1.00952e-20)
(0.621118 -1.28479 -1.05327e-20)
(0.594503 -1.15757 1.01404e-20)
(0.572507 -1.04248 1.37245e-21)
(0.554701 -0.938563 -6.71929e-21)
(0.54067 -0.844914 -2.21344e-21)
(0.530017 -0.760725 1.30431e-20)
(0.522393 -0.685253 9.54686e-21)
(0.517458 -0.617774 2.57992e-21)
(0.51457 -0.557657 -1.81836e-21)
(3.45064 -8.95345 1.90796e-20)
(3.06086 -8.31447 3.6407e-20)
(2.82432 -7.66977 1.27209e-19)
(2.61445 -7.06112 -1.98812e-19)
(2.4103 -6.49384 -1.49563e-20)
(2.21955 -5.96287 -1.6916e-20)
(2.04245 -5.46647 8.00144e-21)
(1.87799 -5.0037 8.54795e-21)
(1.72573 -4.57343 1.12255e-20)
(1.58536 -4.17443 -2.78511e-20)
(1.4565 -3.80537 -3.25143e-21)
(1.33874 -3.46482 1.39152e-20)
(1.23162 -3.15127 1.23829e-20)
(1.13464 -2.86317 -1.24396e-20)
(1.04731 -2.59894 -1.01925e-20)
(0.96908 -2.35702 1.76798e-20)
(0.899409 -2.13589 1.04581e-20)
(0.837751 -1.93407 -2.78579e-21)
(0.783562 -1.75015 -6.17127e-21)
(0.736304 -1.58279 1.11603e-21)
(0.69545 -1.43073 -1.33545e-20)
(0.660489 -1.29276 1.60161e-20)
(0.630924 -1.16777 -1.0811e-20)
(0.606276 -1.05471 -4.31651e-22)
(0.586085 -0.952595 7.12447e-21)
(0.569909 -0.860517 -2.18987e-21)
(0.55733 -0.777664 -6.68162e-21)
(0.54798 -0.703265 8.28333e-21)
(0.541503 -0.63662 -2.17735e-22)
(0.537196 -0.577161 1.46467e-21)
(3.68381 -8.86099 -1.53025e-20)
(3.27803 -8.23372 -3.9886e-20)
(3.02521 -7.59646 -1.47835e-19)
(2.79987 -6.99431 5.36845e-20)
(2.58122 -6.43316 -1.21634e-20)
(2.37681 -5.90787 4.26129e-20)
(2.18691 -5.41675 3.33019e-21)
(2.01048 -4.95895 -3.39342e-20)
(1.8471 -4.53342 4.8935e-20)
(1.69645 -4.13895 -4.06016e-20)
(1.55812 -3.77426 -5.06435e-22)
(1.43168 -3.43793 8.1158e-21)
(1.31662 -3.12845 -1.27205e-20)
(1.21242 -2.84427 1.31336e-20)
(1.11851 -2.58382 -2.37779e-20)
(1.03433 -2.34552 -4.41492e-21)
(0.959284 -2.12785 1.34062e-20)
(0.892772 -1.92932 3.62722e-22)
(0.834209 -1.74851 -7.10786e-21)
(0.783017 -1.58407 1.96952e-20)
(0.738628 -1.43472 -1.05693e-20)
(0.700492 -1.29927 -1.36375e-20)
(0.668078 -1.17659 4.46088e-21)
(0.640873 -1.06562 -1.29644e-20)
(0.618387 -0.965376 -3.10231e-21)
(0.600149 -0.874947 -3.90116e-22)
(0.585715 -0.793499 -8.52099e-21)
(0.5747 -0.720254 1.02034e-20)
(0.566741 -0.654513 -5.73672e-21)
(0.561058 -0.595766 6.52835e-21)
(3.9145 -8.76248 -7.04013e-20)
(3.49309 -8.14733 -1.63633e-19)
(3.22421 -7.51793 6.39215e-20)
(2.98358 -6.92264 -5.6557e-20)
(2.75059 -6.36798 -3.37541e-20)
(2.53268 -5.84867 -1.54784e-20)
(2.33009 -5.36312 -5.95917e-20)
(2.14182 -4.91057 3.83346e-20)
(1.96745 -4.49003 -8.36376e-20)
(1.80664 -4.10035 -2.47386e-20)
(1.65896 -3.74024 1.10036e-20)
(1.52395 -3.40833 1.43017e-20)
(1.40108 -3.1031 -1.0397e-21)
(1.28978 -2.82301 -2.26175e-20)
(1.18944 -2.56649 5.16914e-21)
(1.09944 -2.33195 -1.75342e-20)
(1.01913 -2.11786 -1.16443e-20)
(0.947892 -1.92273 -6.41014e-21)
(0.885077 -1.74513 -8.42645e-22)
(0.830068 -1.58371 1.14191e-20)
(0.782257 -1.43717 1.5562e-20)
(0.741056 -1.30431 -4.58711e-21)
(0.705897 -1.18401 -4.38612e-21)
(0.676233 -1.07519 8.45485e-21)
(0.651543 -0.976885 4.63296e-21)
(0.631327 -0.888168 -3.70499e-21)
(0.615115 -0.80819 -4.16721e-21)
(0.602506 -0.736185 4.70792e-22)
(0.593119 -0.671412 4.36898e-21)
(0.586109 -0.613441 5.8138e-21)
(4.14257 -8.65799 -6.47885e-21)
(3.70588 -8.05537 2.0241e-19)
(3.42118 -7.43423 1.31625e-19)
(3.16546 -6.84617 8.85154e-20)
(2.9183 -6.29833 -5.5713e-20)
(2.68703 -5.78531 -1.00241e-20)
(2.47189 -5.30562 9.5901e-21)
(2.27191 -4.85859 4.81564e-20)
(2.08667 -4.4433 1.56122e-20)
(1.91582 -4.05863 3.48246e-20)
(1.75892 -3.70333 -4.49124e-20)
(1.61548 -3.37603 5.15158e-21)
(1.48493 -3.07524 1.56754e-20)
(1.36666 -2.79941 8.62748e-21)
(1.26001 -2.54696 1.58942e-20)
(1.16431 -2.31631 -1.15664e-20)
(1.07888 -2.10593 -9.33325e-21)
(1.00303 -1.91431 2.07846e-21)
(0.936089 -1.74002 1.87946e-20)
(0.877382 -1.5817 -2.95539e-20)
(0.826264 -1.43805 1.02315e-20)
(0.782108 -1.30786 -2.45854e-23)
(0.744309 -1.19 1.84657e-20)
(0.712287 -1.08341 -7.9645e-21)
(0.685489 -0.987097 -4.54858e-22)
(0.663383 -0.900147 -5.05537e-21)
(0.645475 -0.821713 4.80311e-21)
(0.631342 -0.750997 1.17632e-21)
(0.620587 -0.687285 -5.42131e-21)
(0.612295 -0.630141 1.77797e-20)
(4.36787 -8.54759 -2.29491e-19)
(3.91627 -7.95789 -1.20279e-19)
(3.61599 -7.3454 -2.6921e-19)
(3.34539 -6.76494 -1.02627e-19)
(3.08423 -6.22424 9.17245e-20)
(2.83974 -5.71782 -4.39927e-20)
(2.6122 -5.24427 -7.41887e-21)
(2.40064 -4.80304 -2.25474e-20)
(2.20465 -4.39324 3.88939e-20)
(2.02389 -4.01382 -8.06812e-21)
(1.85791 -3.66354 -1.1901e-20)
(1.70617 -3.34105 -1.20701e-21)
(1.56807 -3.04488 -3.61059e-20)
(1.44296 -2.77346 4.92619e-22)
(1.33013 -2.52523 9.75739e-21)
(1.22887 -2.29861 -9.25277e-22)
(1.13844 -2.09205 -3.00452e-20)
(1.05812 -1.90404 2.82916e-20)
(0.987167 -1.73316 -2.66649e-20)
(0.924881 -1.57802 1.02634e-20)
(0.870571 -1.43734 1.42628e-21)
(0.82357 -1.30991 5.34574e-22)
(0.783237 -1.19457 -1.02172e-20)
(0.748958 -1.09026 3.41677e-21)
(0.720147 -0.996002 -2.38822e-23)
(0.696243 -0.910872 1.12374e-21)
(0.676721 -0.834028 -2.51491e-20)
(0.661138 -0.76467 6.79259e-21)
(0.649076 -0.702059 7.34487e-21)
(0.639554 -0.645825 8.07276e-21)
(4.59022 -8.43134 4.40416e-19)
(4.12411 -7.85495 1.20502e-19)
(3.80852 -7.2515 6.53056e-20)
(3.52323 -6.67899 9.89678e-20)
(3.24825 -6.14575 -8.87331e-21)
(2.99072 -5.64623 5.74151e-20)
(2.7509 -5.1791 1.12489e-19)
(2.5279 -4.74393 -1.52624e-20)
(2.3213 -4.33988 5.05325e-21)
(2.13077 -3.96594 9.53231e-20)
(1.95583 -3.6209 -1.402e-20)
(1.79592 -3.30342 1.13742e-20)
(1.65041 -3.01203 -3.02064e-21)
(1.51859 -2.74519 1.54059e-21)
(1.39972 -2.50133 4.74708e-20)
(1.29304 -2.27885 1.75292e-21)
(1.19774 -2.07622 4.46616e-20)
(1.11306 -1.89193 -5.86027e-21)
(1.03823 -1.72454 -8.93842e-21)
(0.972484 -1.57268 2.05102e-20)
(0.915095 -1.43505 -1.80625e-20)
(0.865359 -1.31043 1.97298e-20)
(0.822596 -1.19768 1.04591e-20)
(0.786159 -1.09573 -8.32063e-21)
(0.755429 -1.00359 1.27659e-20)
(0.729816 -0.92034 1.53079e-21)
(0.708763 -0.845141 -5.33478e-21)
(0.691804 -0.777186 2.85779e-21)
(0.678505 -0.715736 1.91339e-20)
(0.667808 -0.66046 2.88099e-21)
(4.80949 -8.30933 -7.63463e-20)
(4.32926 -7.74662 -1.31442e-19)
(3.99863 -7.15259 4.54915e-20)
(3.69888 -6.58837 -1.77048e-19)
(3.41026 -6.0629 7.22723e-20)
(3.13983 -5.57057 -1.20226e-19)
(2.88789 -5.11016 -6.60641e-20)
(2.65358 -4.6813 1.87807e-20)
(2.43651 -4.28325 1.13377e-20)
(2.23634 -3.91501 -7.10283e-20)
(2.05259 -3.57542 -2.6672e-20)
(1.88465 -3.26314 1.03753e-20)
(1.73186 -2.97672 -2.94422e-20)
(1.59348 -2.71461 -1.05276e-20)
(1.46871 -2.47524 -6.3735e-21)
(1.35672 -2.25704 -6.21755e-21)
(1.2567 -2.05845 -2.47399e-20)
(1.16779 -1.87797 -1.44107e-20)
(1.0892 -1.71417 3.06424e-21)
(1.02011 -1.56566 4.68559e-21)
(0.959754 -1.43115 4.69587e-21)
(0.907389 -1.30942 -1.63731e-20)
(0.862298 -1.19933 6.07157e-21)
(0.8238 -1.0998 -1.23931e-20)
(0.791243 -1.00984 1.16108e-20)
(0.764006 -0.928536 -1.52291e-20)
(0.741503 -0.85504 4.79322e-21)
(0.723244 -0.788545 -7.47115e-21)
(0.708773 -0.728305 -1.06947e-20)
(0.696962 -0.674044 -1.05114e-21)
(5.02552 -8.18163 -1.62963e-19)
(4.53158 -7.63297 -1.22717e-19)
(4.18621 -7.04873 -1.00002e-19)
(3.87221 -6.49313 -5.93422e-20)
(3.57014 -5.97573 1.8746e-19)
(3.28697 -5.49089 2.03796e-20)
(3.02306 -5.03746 6.38092e-20)
(2.77758 -4.61519 8.61983e-20)
(2.55018 -4.22338 3.45799e-20)
(2.34051 -3.86108 -4.7303e-20)
(2.14808 -3.52714 6.28433e-20)
(1.97226 -3.22025 -5.93115e-20)
(1.81235 -2.93896 5.08306e-20)
(1.66754 -2.68173 5.17362e-21)
(1.537 -2.447 1.13895e-20)
(1.41986 -2.23318 3.96919e-21)
(1.31523 -2.03874 4.10673e-20)
(1.22223 -1.86217 -6.03117e-21)
(1.13999 -1.70203 5.10588e-21)
(1.06767 -1.55695 1.64532e-20)
(1.00446 -1.42563 -1.82106e-20)
(0.949573 -1.30686 1.41378e-20)
(0.902253 -1.19949 5.25748e-22)
(0.861787 -1.10244 6.29046e-21)
(0.827493 -1.01474 1.14383e-20)
(0.798716 -0.935441 -1.92892e-21)
(0.774842 -0.863712 1.12671e-20)
(0.755356 -0.798736 1.63819e-20)
(0.739782 -0.739762 -1.77744e-20)
(0.726913 -0.68657 -1.06816e-20)
(5.23816 -8.04831 4.5816e-19)
(4.73096 -7.51409 -5.00477e-20)
(4.37113 -6.93999 8.22857e-20)
(4.04312 -6.39332 1.27291e-19)
(3.72777 -5.8843 -3.3425e-19)
(3.43202 -5.40722 3.3615e-20)
(3.15628 -4.96105 -9.91513e-20)
(2.89978 -4.54562 8.84136e-20)
(2.6622 -4.1603 -6.68218e-20)
(2.44319 -3.80416 2.74931e-20)
(2.24222 -3.47609 -1.02964e-19)
(2.05867 -3.17477 6.25398e-21)
(1.89176 -2.89878 -2.60959e-20)
(1.74068 -2.64658 4.09868e-20)
(1.60451 -2.41661 -4.07112e-20)
(1.48235 -2.2073 -1.89515e-21)
(1.37325 -2.0171 -2.91107e-20)
(1.27628 -1.84452 -2.13924e-21)
(1.19052 -1.68812 2.14854e-21)
(1.11509 -1.54654 5.60763e-21)
(1.04914 -1.41848 -3.25776e-20)
(0.991822 -1.30272 -9.02907e-22)
(0.942368 -1.19814 -1.7632e-20)
(0.900026 -1.10364 -4.03411e-21)
(0.864079 -1.01825 -1.06023e-20)
(0.833844 -0.941033 -1.15659e-20)
(0.808675 -0.87114 -1.20799e-20)
(0.788034 -0.807748 2.00324e-20)
(0.771421 -0.7501 5.41495e-21)
(0.75755 -0.698032 -1.04394e-20)
(5.44728 -7.90948 -3.0571e-19)
(4.92728 -7.39005 1.01211e-19)
(4.5533 -6.82643 -1.44523e-19)
(4.21148 -6.289 1.92174e-20)
(3.88304 -5.78864 1.82496e-19)
(3.57487 -5.3196 -8.74303e-20)
(3.28745 -4.88097 -7.67885e-20)
(3.02009 -4.47265 -6.14543e-20)
(2.77247 -4.09405 3.7165e-21)
(2.54426 -3.7443 3.40619e-20)
(2.33492 -3.42229 -2.0192e-20)
(2.14378 -3.12674 2.79645e-21)
(1.97004 -2.85621 5.48346e-20)
(1.81282 -2.60918 -2.68236e-20)
(1.67117 -2.3841 5.62331e-21)
(1.54413 -2.1794 -1.85593e-20)
(1.43069 -1.99354 7.1061e-21)
(1.32988 -1.82502 1.42173e-20)
(1.24072 -1.67244 1.53032e-20)
(1.16229 -1.53441 -1.65866e-20)
(1.09369 -1.40966 2.29991e-21)
(1.03405 -1.29699 1.35855e-20)
(0.982551 -1.19524 2.31443e-20)
(0.938415 -1.10336 6.08883e-21)
(0.900897 -1.02035 -2.37245e-20)
(0.86928 -0.945284 2.74841e-20)
(0.842891 -0.877301 -1.37637e-20)
(0.821163 -0.815566 -1.64719e-20)
(0.803573 -0.759308 -1.01133e-20)
(0.788749 -0.708428 -1.35914e-20)
(5.65275 -7.76521 1.57869e-19)
(5.12043 -7.26095 -1.1101e-19)
(4.73261 -6.70812 4.59519e-20)
(4.37719 -6.1802 1.80014e-19)
(4.03582 -5.68878 4.3576e-20)
(3.71539 -5.22808 -3.11615e-20)
(3.41646 -4.79725 7.33307e-20)
(3.13838 -4.39629 2.10553e-20)
(2.88089 -4.02468 5.58676e-20)
(2.64363 -3.68153 2.73259e-20)
(2.42607 -3.36579 2.51657e-21)
(2.2275 -3.07618 1.43405e-20)
(2.04707 -2.81127 -4.06443e-21)
(1.88387 -2.56956 6.61804e-21)
(1.73689 -2.34949 1.75673e-20)
(1.60511 -2.1495 -8.96021e-21)
(1.48747 -1.96806 2.13996e-20)
(1.38294 -1.80369 2.06467e-20)
(1.29051 -1.65498 -2.27777e-20)
(1.20919 -1.52056 2.33521e-20)
(1.13804 -1.39918 4.79169e-20)
(1.07616 -1.28963 -3.06038e-20)
(1.02271 -1.19077 3.03693e-20)
(0.976858 -1.10156 -2.1094e-20)
(0.937839 -1.021 -2.99816e-21)
(0.904911 -0.948153 2.25272e-20)
(0.877367 -0.882159 -4.55887e-21)
(0.854617 -0.822164 1.68999e-20)
(0.836106 -0.767373 1.69346e-20)
(0.820373 -0.717742 -3.27819e-20)
(5.85447 -7.6156 -1.48262e-19)
(5.31033 -7.12685 7.33331e-20)
(4.90897 -6.5851 2.0478e-20)
(4.54014 -6.06698 -2.07654e-19)
(4.18601 -5.58478 -9.15943e-20)
(3.85348 -5.13269 6.22399e-20)
(3.54319 -4.70994 -1.5357e-19)
(3.25456 -4.31661 1.68072e-19)
(2.98734 -3.95221 -8.63895e-20)
(2.74121 -3.6159 9.55189e-21)
(2.51558 -3.30663 -1.59975e-20)
(2.30974 -3.02313 -3.60643e-20)
(2.12279 -2.764 7.24509e-20)
(1.95376 -2.52774 2.42048e-20)
(1.8016 -2.31279 -2.53098e-20)
(1.66522 -2.11762 8.75012e-22)
(1.54352 -1.94069 1.26137e-20)
(1.4354 -1.78053 -2.56746e-20)
(1.3398 -1.63574 5.62018e-21)
(1.2557 -1.50498 1.7041e-20)
(1.18211 -1.387 -6.89021e-21)
(1.11809 -1.2806 1.11176e-20)
(1.06275 -1.18468 -2.18056e-20)
(1.01526 -1.09819 3.14411e-20)
(0.974801 -1.02013 7.27338e-21)
(0.940619 -0.949578 -1.97398e-20)
(0.911979 -0.885661 -1.70496e-20)
(0.88826 -0.827498 8.2153e-23)
(0.86888 -0.774261 2.37167e-20)
(0.852275 -0.725956 -5.56903e-21)
(6.05235 -7.46072 -3.66241e-20)
(5.49691 -6.98784 -2.43806e-19)
(5.08228 -6.45742 2.76791e-19)
(4.70022 -5.94936 1.65647e-19)
(4.33348 -5.47667 1.42951e-19)
(3.98901 -5.03348 3.10458e-20)
(3.66752 -4.61909 4.78178e-20)
(3.3685 -4.23365 2.22102e-20)
(3.09174 -3.8767 -7.71331e-20)
(2.83689 -3.54744 1.34992e-19)
(2.60337 -3.24484 -9.47733e-20)
(2.39042 -2.96764 -3.30756e-21)
(2.19711 -2.71444 1.39595e-20)
(2.02241 -2.48376 -4.87049e-20)
(1.86522 -2.27406 4.188e-20)
(1.72439 -2.08378 -1.21119e-20)
(1.59876 -1.91144 -2.90377e-20)
(1.48718 -1.75555 1.0493e-20)
(1.38855 -1.61473 -2.02683e-20)
(1.30178 -1.48766 -1.72979e-20)
(1.22584 -1.3731 -1.80266e-20)
(1.15976 -1.26989 4.04288e-21)
(1.10261 -1.17692 2.2534e-21)
(1.05353 -1.09317 -4.29048e-20)
(1.01168 -1.01766 -1.61408e-20)
(0.976294 -0.949472 1.04915e-20)
(0.946599 -0.887718 1.29491e-20)
(0.921956 -0.831493 -1.78167e-20)
(0.901749 -0.779915 -6.81959e-21)
(0.884297 -0.733015 7.26536e-22)
(6.24642 -7.30064 -4.52838e-20)
(5.68014 -6.84397 1.57959e-19)
(5.25245 -6.32513 -4.26869e-20)
(4.85729 -5.82738 -5.03443e-20)
(4.47809 -5.36448 -2.21754e-19)
(4.12184 -4.93049 -3.71314e-20)
(3.78933 -4.52475 7.68159e-20)
(3.4801 -4.14746 -4.26349e-20)
(3.19396 -3.79821 -2.47669e-21)
(2.93057 -3.47622 -7.6353e-21)
(2.68933 -3.18047 3.49442e-20)
(2.46944 -2.90974 -5.44609e-20)
(2.26993 -2.66263 -3.31633e-20)
(2.08973 -2.43766 3.63697e-20)
(1.92767 -2.2333 -1.94267e-20)
(1.78254 -2.04803 -2.18959e-20)
(1.65313 -1.88033 4.61375e-20)
(1.53823 -1.72877 -7.05764e-21)
(1.43668 -1.59196 2.50929e-20)
(1.34735 -1.46861 -2.29751e-20)
(1.26916 -1.35748 -1.79691e-20)
(1.2011 -1.25745 1.53747e-20)
(1.14221 -1.16744 -1.79722e-21)
(1.0916 -1.08644 -1.13238e-20)
(1.04842 -1.01349 9.8572e-21)
(1.01185 -0.947707 -3.06261e-20)
(0.981128 -0.888197 1.86653e-20)
(0.955589 -0.834026 -2.78601e-22)
(0.934598 -0.784235 -1.95971e-20)
(0.91633 -0.738821 2.86426e-20)
(6.43696 -7.13559 1.37747e-19)
(5.86009 -6.69535 -3.32926e-19)
(5.41936 -6.18821 -1.91975e-20)
(5.01121 -5.70103 1.20335e-19)
(4.6197 -5.24824 -2.76226e-20)
(4.25184 -4.82376 -6.56847e-20)
(3.9085 -4.42695 3.03588e-20)
(3.58924 -4.05809 2.91422e-20)
(3.2939 -3.71678 2.02823e-21)
(3.02215 -3.40228 2.99161e-20)
(2.77337 -3.11359 8.5477e-20)
(2.54672 -2.84949 -3.06206e-20)
(2.34119 -2.60861 6.00985e-21)
(2.15565 -2.38948 -1.54152e-20)
(1.98887 -2.19058 6.11368e-20)
(1.8396 -2.01039 -1.00439e-20)
(1.70655 -1.84741 3.27759e-20)
(1.58847 -1.70022 -1.20305e-20)
(1.48414 -1.56746 1.27802e-20)
(1.39236 -1.44783 1.87378e-20)
(1.31203 -1.34014 3.06401e-21)
(1.24208 -1.24328 1.216e-20)
(1.18153 -1.15619 -9.93422e-21)
(1.12945 -1.07791 2.76418e-20)
(1.08496 -1.00751 -1.12255e-20)
(1.04724 -0.944122 4.09032e-20)
(1.0155 -0.886897 -1.1806e-20)
(0.989082 -0.834888 8.10502e-21)
(0.967361 -0.787025 -1.5379e-20)
(0.948359 -0.74321 2.79997e-20)
(6.62471 -6.96585 -3.24976e-19)
(6.03697 -6.54186 1.2884e-20)
(5.58288 -6.04655 -1.36644e-19)
(5.16177 -5.57028 2.38652e-20)
(4.75811 -5.12796 4.25798e-21)
(4.37885 -4.71333 -8.80659e-20)
(4.02486 -4.32576 -1.47193e-19)
(3.69577 -3.96559 6.82691e-20)
(3.39144 -3.63247 -9.07382e-20)
(3.11153 -3.32567 -4.16223e-20)
(2.85539 -3.04422 -2.11153e-20)
(2.62216 -2.78693 -1.55315e-20)
(2.41079 -2.55243 -1.54943e-22)
(2.22008 -2.33926 -5.10852e-20)
(2.04876 -2.14592 3.03001e-20)
(1.8955 -1.97089 -4.91456e-20)
(1.75897 -1.8127 -1.15148e-20)
(1.63785 -1.66994 1.2605e-20)
(1.53086 -1.54124 1.53713e-20)
(1.43676 -1.42535 1.4855e-20)
(1.3544 -1.3211 1.10591e-20)
(1.28267 -1.22737 -2.74742e-20)
(1.22055 -1.14316 2.75027e-20)
(1.16706 -1.06753 -2.9103e-21)
(1.12132 -0.999587 -7.27935e-21)
(1.08248 -0.938509 -2.85473e-20)
(1.04971 -0.883493 -1.50668e-20)
(1.02236 -0.8336 2.78678e-20)
(0.999878 -0.787659 -9.13122e-21)
(0.980215 -0.745599 -9.02846e-21)
(6.81012 -6.79067 1.49884e-19)
(6.21071 -6.38271 1.96697e-20)
(5.74278 -5.89987 -3.02182e-20)
(5.30876 -5.43516 -8.76325e-22)
(4.89319 -5.00377 -3.5752e-20)
(4.50275 -4.59935 1.18609e-19)
(4.13834 -4.22132 -5.11949e-20)
(3.79964 -3.8701 3.35076e-20)
(3.48651 -3.54539 1.41888e-20)
(3.19862 -3.2465 3.88272e-20)
(2.93531 -2.97248 -1.18423e-20)
(2.69569 -2.72215 6.87056e-20)
(2.47865 -2.49417 -5.54029e-21)
(2.28296 -2.28707 3.85912e-20)
(2.10726 -2.09939 -6.07518e-20)
(1.95018 -1.9296 -3.44577e-21)
(1.81032 -1.77626 3.69564e-20)
(1.6863 -1.63796 -2.17482e-20)
(1.57679 -1.51337 -1.49865e-20)
(1.48051 -1.40124 -2.51176e-20)
(1.39625 -1.3004 -2.13409e-20)
(1.32286 -1.20979 2.31868e-20)
(1.25928 -1.12841 -2.11286e-20)
(1.20452 -1.05534 4.7559e-21)
(1.15766 -0.989718 1.69604e-20)
(1.11781 -0.930753 1.16244e-20)
(1.08415 -0.877654 1.10306e-20)
(1.05593 -0.829474 7.98316e-21)
(1.03258 -0.78507 -2.1673e-20)
(1.01214 -0.74467 -8.93227e-21)
(9.63932 0.0138404 1.85071e-21)
(9.63438 -0.240254 1.59668e-20)
(9.62342 -0.493004 5.55891e-20)
(9.60657 -0.744833 2.93027e-20)
(9.5834 -0.995864 -6.68797e-20)
(9.55371 -1.24605 1.97368e-20)
(9.51746 -1.49529 -1.91213e-20)
(9.47468 -1.74345 -5.04569e-20)
(9.42538 -1.99037 1.39664e-19)
(9.3696 -2.23588 -3.35747e-20)
(9.30736 -2.47983 -2.98625e-20)
(9.23873 -2.72203 -6.94324e-20)
(9.16374 -2.96233 -2.02882e-19)
(9.08246 -3.20056 1.97775e-20)
(8.99496 -3.43656 -3.24829e-22)
(8.9013 -3.67016 -7.341e-20)
(8.80155 -3.90121 1.36824e-19)
(8.69578 -4.12954 8.00116e-20)
(8.58408 -4.355 1.39479e-19)
(8.46652 -4.57745 6.44394e-20)