/*--------------------------------*- C++ -*----------------------------------*\
| =========                 |                                                 |
| \\      /  F ield         | OpenFOAM: The Open Source CFD Toolbox           |
|  \\    /   O peration     | Version:  v1912                                 |
|   \\  /    A nd           | Website:  www.openfoam.com                      |
|    \\/     M anipulation  |                                                 |
\*---------------------------------------------------------------------------*/
FoamFile
{
    version     2.0;
    format      ascii;
    class       surfaceScalarField;
    location    "75";
    object      phi;
}
// * * * * * * * * * * * * * * * * * * * * * * * * * * * * * * * * * * * * * //

dimensions      [0 3 -1 0 0 0 0];
oriented        oriented;


internalField   nonuniform List<scalar> 
18940
(
0.000358503
-0.234358
0.234
0.00137985
-0.216315
0.215294
0.00288458
-0.20478
0.203275
0.00470212
-0.197
0.195182
0.00670158
-0.191248
0.189249
0.00878118
-0.186458
0.184379
0.0108671
-0.182041
0.179955
0.0129098
-0.177701
0.175658
0.0148792
-0.173313
0.171344
0.0167598
-0.16885
0.166969
0.0185469
-0.164332
0.162544
0.020243
-0.159801
0.158105
0.0218551
-0.155306
0.153694
0.0233931
-0.150891
0.149353
0.0248681
-0.146591
0.145116
0.0262918
-0.142431
0.141007
0.0276757
-0.138423
0.137039
0.0290304
-0.134565
0.133211
0.0303644
-0.130838
0.129504
-0.127201
0.125883
0.0316828
0.000381934
-0.23474
0.00142318
-0.217356
0.00293863
-0.206295
0.00476048
-0.198822
0.00675439
-0.193242
0.00881864
-0.188523
0.0108807
-0.184103
0.0128926
-0.179712
0.014826
-0.175246
0.0166675
-0.170691
0.0184139
-0.166078
0.0200688
-0.161456
0.0216404
-0.156878
0.0231392
-0.15239
0.0245768
-0.148028
0.0259652
-0.143819
0.0273161
-0.139774
0.0286405
-0.13589
0.0299471
-0.132145
-0.128496
0.0312421
0.000403364
-0.235143
0.00146084
-0.218414
0.00298501
-0.207819
0.00480741
-0.200644
0.00679212
-0.195227
0.00883738
-0.190568
0.0108719
-0.186137
0.0128495
-0.18169
0.0147439
-0.177141
0.0165435
-0.172491
0.0182466
-0.167781
0.0198583
-0.163068
0.0213876
-0.158407
0.0228456
-0.153848
0.0242444
-0.149427
0.0255961
-0.145171
0.0269128
-0.141091
0.0282054
-0.137182
0.0294836
-0.133423
-0.129766
0.030754
0.000417242
-0.235561
0.00148976
-0.219486
0.0030218
-0.209352
0.00484218
-0.202464
0.00681432
-0.197199
0.00883702
-0.192591
0.0108405
-0.188141
0.0127805
-0.18363
0.014633
-0.178993
0.016388
-0.174246
0.0180456
-0.169439
0.0196122
-0.164634
0.0210976
-0.159893
0.0225135
-0.155264
0.0238722
-0.150786
0.0251862
-0.146485
0.0264675
-0.142372
0.0277275
-0.138442
0.0289762
-0.134672
-0.131011
0.0302212
0.000428515
-0.235989
0.0015133
-0.220571
0.00305035
-0.210889
0.00486544
-0.20428
0.00682147
-0.199155
0.00881803
-0.194587
0.010787
-0.19011
0.0126864
-0.18553
0.0144941
-0.180801
0.0162021
-0.175954
0.0178122
-0.171049
0.0193319
-0.166154
0.0207719
-0.161333
0.0221444
-0.156636
0.023462
-0.152104
0.0247371
-0.14776
0.025982
-0.143617
0.0272084
-0.139669
0.0284267
-0.13589
-0.13223
0.0296456
0.00043761
-0.236427
0.00153185
-0.221665
0.00307091
-0.212428
0.00487744
-0.206086
0.00681385
-0.201092
0.00878081
-0.196554
0.010712
-0.192041
0.0125678
-0.187385
0.014328
-0.182561
0.0159868
-0.177613
0.0175474
-0.172609
0.0190185
-0.167625
0.0204117
-0.162726
0.0217395
-0.157964
0.0230148
-0.153379
0.0242501
-0.148995
0.0254576
-0.144824
0.0266494
-0.140861
0.0278366
-0.137077
-0.133422
0.0290287
0.000445092
-0.236872
0.0015461
-0.222766
0.00308406
-0.213966
0.00487865
-0.207881
0.00679198
-0.203005
0.00872594
-0.198488
0.0106163
-0.193931
0.0124254
-0.189194
0.0141356
-0.184271
0.0157429
-0.17922
0.0172521
-0.174119
0.0186731
-0.169046
0.0200181
-0.164071
0.0213
-0.159246
0.0225319
-0.154611
0.0237262
-0.15019
0.0248953
-0.145994
0.0260515
-0.142017
0.0272064
-0.138232
-0.134587
0.0283708
0.000451118
-0.237323
0.00155636
-0.223872
0.00309019
-0.215499
0.00486955
-0.20966
0.00675643
-0.204892
0.0086541
-0.200386
0.0105004
-0.195778
0.0122602
-0.190954
0.013918
-0.185929
0.0154717
-0.180774
0.0169277
-0.175574
0.0182968
-0.170415
0.0195921
-0.165366
0.0208269
-0.160481
0.0220141
-0.155798
0.0231662
-0.151342
0.0242957
-0.147123
0.0254149
-0.143136
0.0265364
-0.139353
-0.135723
0.027672
0.000455792
-0.237779
0.00156293
-0.224979
0.00308975
-0.217026
0.00485071
-0.211421
0.00670788
-0.206749
0.00856612
-0.202244
0.0103655
-0.197577
0.0120734
-0.192662
0.0136764
-0.187532
0.0151744
-0.182272
0.0165752
-0.176975
0.0178909
-0.171731
0.019135
-0.16661
0.0203211
-0.161667
0.0214622
-0.156939
0.0225706
-0.15245
0.0236588
-0.148211
0.0247395
-0.144217
0.0258259
-0.14044
-0.136828
0.0269313
0.000459189
-0.238238
0.0015661
-0.226086
0.00308322
-0.218543
0.00482276
-0.213161
0.00664715
-0.208573
0.00846297
-0.20406
0.0102127
-0.199327
0.0118661
-0.194315
0.013412
-0.189078
0.0148523
-0.183712
0.0161961
-0.178319
0.0174565
-0.172991
0.0186477
-0.167801
0.0197834
-0.162803
0.0208767
-0.158032
0.0219397
-0.153513
0.0229847
-0.149256
0.0240246
-0.145257
0.0250737
-0.141489
-0.137901
0.0261468
0.000461415
-0.238699
0.0015662
-0.22719
0.00307118
-0.220048
0.00478648
-0.214876
0.00657517
-0.210362
0.00834578
-0.205831
0.0100433
-0.201024
0.0116397
-0.195912
0.0131265
-0.190565
0.014507
-0.185092
0.0157919
-0.179604
0.0169952
-0.174195
0.0181315
-0.168938
0.019215
-0.163886
0.0202583
-0.159076
0.0212736
-0.154528
0.0222728
-0.150255
0.0232692
-0.146253
0.024278
-0.142498
-0.138939
0.025316
0.000462624
-0.239162
0.00156368
-0.228291
0.0030543
-0.221539
0.00474276
-0.216564
0.00649306
-0.212112
0.00821588
-0.207553
0.00985869
-0.202667
0.0113961
-0.197449
0.0128216
-0.19199
0.0141405
-0.186411
0.0153646
-0.180828
0.0165087
-0.175339
0.0175881
-0.170017
0.0186169
-0.164915
0.0196078
-0.160066
0.0205725
-0.155493
0.0215228
-0.151206
0.022472
-0.147202
0.0234366
-0.143462
-0.139938
0.0244357
0.000463097
-0.239625
0.00155917
-0.229387
0.00303344
-0.223013
0.00469267
-0.218224
0.00640212
-0.213822
0.00807482
-0.209226
0.0096608
-0.204253
0.0111372
-0.198926
0.0124996
-0.193353
0.0137549
-0.187666
0.0149162
-0.18199
0.0159991
-0.176422
0.0170192
-0.171037
0.0179907
-0.165886
0.0189261
-0.161002
0.0198369
-0.156404
0.0207343
-0.152103
0.0216319
-0.1481
0.0225473
-0.144378
-0.140893
0.023502
0.000463313
-0.240088
0.00155351
-0.230478
0.00300965
-0.224469
0.00463745
-0.219851
0.00630384
-0.215488
0.00792433
-0.210847
0.00945161
-0.20578
0.0108653
-0.200339
0.0121629
-0.19465
0.013353
-0.188857
0.0144497
-0.183086
0.0154693
-0.177441
0.0164274
-0.171995
0.0173385
-0.166797
0.0182148
-0.161878
0.0190672
-0.157256
0.0199068
-0.152943
0.0207468
-0.14894
0.0216058
-0.145237
-0.141796
0.0225086
0.000464073
-0.240552
0.00154788
-0.231561
0.00298416
-0.225906
0.00457848
-0.221446
0.00619981
-0.21711
0.00776633
-0.212413
0.00923339
-0.207247
0.010583
-0.201689
0.0118146
-0.195882
0.0129382
-0.18998
0.0139688
-0.184117
0.014923
-0.178395
0.0158166
-0.172889
0.0166638
-0.167645
0.0174765
-0.162691
0.0182651
-0.158045
0.0190399
-0.153717
0.0198138
-0.149714
0.0206061
-0.146029
-0.142637
0.0214472
0.000466524
-0.241019
0.00154358
-0.232639
0.00295818
-0.22732
0.00451711
-0.223005
0.00609174
-0.218684
0.00760289
-0.213924
0.00900861
-0.208653
0.0102932
-0.202974
0.0114581
-0.197047
0.0125145
-0.191037
0.0134779
-0.18508
0.0143652
-0.179283
0.0151922
-0.173716
0.0159724
-0.168425
0.0167172
-0.163436
0.017436
-0.158764
0.0181378
-0.154419
0.0188347
-0.150411
0.0195471
-0.146742
-0.143404
0.0203143
0.000472056
-0.241491
0.00154192
-0.233708
0.00293301
-0.228711
0.00445491
-0.224527
0.00598147
-0.220211
0.00743622
-0.215379
0.00877991
-0.209997
0.00999922
-0.204193
0.0110972
-0.198145
0.0120862
-0.192025
0.0129822
-0.185976
0.0138019
-0.180102
0.0145607
-0.174475
0.0152716
-0.169136
0.0159449
-0.164109
0.016589
-0.159408
0.0172114
-0.155042
0.017822
-0.151021
0.0184416
-0.147361
-0.144072
0.0191101
0.000483001
-0.241974
0.00154554
-0.234771
0.00291113
-0.230077
0.004394
-0.226009
0.00587097
-0.221688
0.00726842
-0.216776
0.00854985
-0.211278
0.00970417
-0.205347
0.010736
-0.199177
0.0116585
-0.192948
0.0124877
-0.186805
0.0132399
-0.180855
0.0139295
-0.175164
0.0145683
-0.169774
0.0151656
-0.164706
0.0157287
-0.159971
0.016264
-0.155577
0.0167781
-0.151535
0.0172838
-0.147867
-0.144594
0.0178049
0.00050694
-0.242481
0.00156165
-0.235826
0.0028966
-0.231412
0.00433626
-0.227449
0.00576148
-0.223113
0.00710093
-0.218116
0.00832044
-0.212498
0.00941101
-0.206438
0.0103787
-0.200145
0.0112372
-0.193806
0.0120025
-0.187571
0.0126898
-0.181542
0.0133116
-0.175786
0.013877
-0.17034
0.014392
-0.165221
0.01486
-0.160439
0.0152831
-0.156
0.0156601
-0.151912
0.0159954
-0.148202
-0.144949
0.0163511
0.00056399
-0.243045
0.00159855
-0.23686
0.00288919
-0.232703
0.00428054
-0.22884
0.00565251
-0.224485
0.00693414
-0.219397
0.008093
-0.213657
0.00912206
-0.207467
0.0100289
-0.201051
0.010828
-0.194605
0.0115355
-0.188278
0.0121657
-0.182172
0.0127293
-0.17635
0.013232
-0.170843
0.0136734
-0.165663
0.0140461
-0.160812
0.0143334
-0.156287
0.014509
-0.152088
0.014568
-0.148261
-0.145121
0.0147398
0.250731
0.000415226
-0.251147
0.250343
0.000388872
0.249961
0.000381607
0.249579
0.000381743
0.249194
0.000384695
0.248805
0.000389112
0.248411
0.000394267
0.248012
0.000399578
0.247607
0.00040465
0.247198
0.000409276
0.246784
0.000413359
0.246367
0.000416878
0.245948
0.000419812
0.245525
0.000422134
0.245102
0.000423725
0.244677
0.00042438
0.244254
0.000423049
0.243835
0.00041918
0.243431
0.000403577
0.000386496
0.252708
0.00102399
-0.253317
0.252064
0.00103322
0.251391
0.00105434
0.250691
0.00108135
0.249966
0.00110974
0.249217
0.00113813
0.248445
0.00116606
0.247652
0.00119304
0.246838
0.00121864
0.246005
0.00124261
0.245153
0.00126483
0.244285
0.00128529
0.243401
0.00130396
0.242502
0.00132086
0.24159
0.00133584
0.240665
0.00134869
0.23973
0.00135831
0.238785
0.00136443
0.237828
0.00136079
0.00135403
0.251494
0.00159621
-0.252066
0.250857
0.00167017
0.250167
0.00174436
0.249428
0.00181964
0.248644
0.00189367
0.247817
0.00196524
0.246949
0.00203403
0.246042
0.00209979
0.245099
0.00216228
0.24412
0.00222135
0.243108
0.00227695
0.242064
0.00232913
0.24099
0.00237796
0.239887
0.00242356
0.238757
0.00246596
0.237601
0.00250517
0.236418
0.00254068
0.23521
0.00257274
0.233972
0.00259896
0.00262352
0.24739
0.00203983
-0.247834
0.246877
0.00218347
0.246299
0.00232251
0.24566
0.00245835
0.244964
0.00259035
0.244211
0.00271772
0.243405
0.00284013
0.242547
0.0029574
0.24164
0.00306939
0.240686
0.00317605
0.239685
0.00327738
0.238641
0.00337351
0.237554
0.00346464
0.236427
0.00355108
0.235259
0.00363308
0.234054
0.003711
0.232809
0.00378495
0.231527
0.00385556
0.230203
0.00392211
0.00398657
0.241144
0.00231898
-0.241423
0.240793
0.00253396
0.240373
0.00274217
0.239887
0.00294444
0.239337
0.00314074
0.238724
0.00333061
0.23805
0.00351372
0.237318
0.00368986
0.236528
0.00385894
0.235684
0.00402091
0.234785
0.00417584
0.233835
0.00432392
0.232834
0.00446549
0.231784
0.00460104
0.230686
0.00473106
0.229541
0.00485627
0.228348
0.00497728
0.227109
0.00509504
0.225821
0.0052097
0.00532293
0.233546
0.00244235
-0.23367
0.233352
0.00272796
0.233089
0.00300563
0.232758
0.00327567
0.23236
0.00353812
0.231898
0.00379267
0.231373
0.00403898
0.230786
0.00427683
0.230139
0.00450609
0.229433
0.00472672
0.22867
0.00493881
0.227851
0.00514263
0.226978
0.00533862
0.226052
0.0055274
0.225073
0.00570977
0.224043
0.00588678
0.22296
0.00605949
0.221826
0.00622926
0.220639
0.00639695
0.00656443
0.225303
0.00244049
-0.225301
0.225237
0.00279417
0.225103
0.00313917
0.224903
0.00347542
0.224639
0.00380284
0.22431
0.00412116
0.223919
0.00443004
0.223467
0.00472921
0.222954
0.0050185
0.222383
0.00529784
0.221755
0.00556733
0.22107
0.00582728
0.22033
0.00607821
0.219537
0.0063209
0.21869
0.0065564
0.217791
0.00678613
0.216839
0.00701163
0.215833
0.00723478
0.214773
0.00745713
0.00768086
0.216941
0.00234963
-0.21685
0.216967
0.00276783
0.21693
0.00317675
0.216829
0.00357609
0.216666
0.00396565
0.216442
0.0043451
0.216158
0.00471408
0.215815
0.00507224
0.215414
0.00541936
0.214957
0.00575534
0.214444
0.00608026
0.213877
0.00639442
0.213257
0.0066984
0.212584
0.00699312
0.211861
0.00727991
0.211087
0.00756052
0.210261
0.00783706
0.209384
0.00811204
0.208453
0.00838784
0.00866715
0.208808
0.0022031
-0.208662
0.208894
0.00268203
0.20892
0.00315111
0.208886
0.00360991
0.208793
0.0040581
0.208643
0.00449528
0.208436
0.00492102
0.208174
0.00533492
0.207856
0.00573667
0.207486
0.0061261
0.207063
0.00650324
0.206589
0.00686836
0.206065
0.00722204
0.205493
0.00756533
0.204873
0.00789979
0.204206
0.00822753
0.203492
0.00855131
0.202729
0.00887442
0.201917
0.0092003
0.00953248
0.201105
0.00202789
-0.20093
0.201223
0.00256398
0.201284
0.00308963
0.20129
0.00360433
0.20124
0.00410763
0.201137
0.00459905
0.20098
0.00507808
0.20077
0.00554424
0.20051
0.00599711
0.200199
0.00643643
0.199841
0.00686214
0.199434
0.0072744
0.198983
0.00767379
0.198487
0.00806136
0.197948
0.00843889
0.197366
0.00880881
0.196743
0.00917467
0.196077
0.00954062
0.195365
0.00991162
0.0102925
0.193924
0.00184388
-0.19374
0.194054
0.00243401
0.194131
0.00301312
0.194154
0.00358057
0.194126
0.00413583
0.194047
0.00467831
0.193918
0.00520743
0.193739
0.00572257
0.193513
0.00622323
0.19324
0.00670901
0.192923
0.00717968
0.192562
0.00763528
0.19216
0.00807626
0.191717
0.0085036
0.191237
0.00891919
0.19072
0.00932572
0.190167
0.00972761
0.189578
0.0101299
0.18895
0.0105399
0.0109639
0.187289
0.00166449
-0.187109
0.187417
0.00230613
0.187494
0.00293618
0.18752
0.00355379
0.187498
0.00415836
0.187427
0.00474923
0.187309
0.00532567
0.187144
0.005887
0.186935
0.00643254
0.186682
0.00696174
0.186388
0.00747418
0.186053
0.00796964
0.185681
0.00844839
0.185274
0.00891113
0.184833
0.00935982
0.184362
0.00979706
0.183861
0.0102284
0.183331
0.0106596
0.18277
0.0111012
0.0115617
0.181179
0.00149804
-0.181013
0.181296
0.00218936
0.181364
0.00286834
0.181384
0.00353405
0.181356
0.00418582
0.181283
0.0048229
0.181164
0.00544446
0.181001
0.00604968
0.180796
0.00663773
0.18055
0.00720785
0.180265
0.00775937
0.179942
0.00829177
0.179586
0.00880497
0.179198
0.0092992
0.178781
0.00977632
0.17834
0.0102384
0.177876
0.0106923
0.177392
0.0111436
0.176885
0.0116086
0.0120968
0.175553
0.00134936
-0.175404
0.175654
0.00208884
0.175707
0.00281518
0.175713
0.00352743
0.175674
0.00422478
0.175591
0.00490638
0.175464
0.00557131
0.175295
0.00621862
0.175086
0.00684731
0.174837
0.00745639
0.174551
0.00804491
0.174231
0.00861192
0.173879
0.0091569
0.173499
0.00967931
0.173095
0.0101807
0.172671
0.0106618
0.172232
0.0111313
0.171784
0.0115924
0.171321
0.0120714
0.0125752
0.170358
0.00122074
-0.170229
0.170439
0.00200728
0.170475
0.00277974
0.170465
0.00353721
0.170411
0.00427882
0.170314
0.00500359
0.170175
0.00571052
0.169995
0.00639851
0.169776
0.00706641
0.169519
0.00771298
0.169227
0.00833692
0.168902
0.00893682
0.168547
0.00951158
0.168167
0.0100596
0.167766
0.0105819
0.167351
0.0110766
0.166928
0.0115548
0.166507
0.012013
0.166083
0.0124954
0.0129955
0.165539
0.00111294
-0.165431
0.165601
0.00194546
0.165617
0.00276298
0.16559
0.00356459
0.16552
0.00434932
0.165407
0.00511613
0.165254
0.00586391
0.165061
0.00659145
0.16483
0.00729741
0.164562
0.00798031
0.164261
0.00863854
0.163927
0.00927014
0.163566
0.00987333
0.16318
0.0104452
0.162776
0.0109858
0.162363
0.0114895
0.161948
0.01197
0.161551
0.0124104
0.161162
0.0128841
0.0133456
0.161044
0.00102547
-0.160956
0.161086
0.00190291
0.161085
0.00276448
0.16104
0.00360917
0.160954
0.00443597
0.160826
0.00524374
0.160659
0.00603129
0.160453
0.00679731
0.16021
0.0075403
0.159932
0.00825857
0.15962
0.00895016
0.159278
0.00961265
0.158907
0.0102435
0.158514
0.0108384
0.158104
0.0113958
0.157689
0.011905
0.157277
0.0123821
0.1569
0.0127873
0.156541
0.0132425
0.0135998
0.156826
0.000956483
-0.156757
0.156851
0.00187807
0.156833
0.00278252
0.156773
0.00366913
0.156672
0.00453679
0.156531
0.00538429
0.156352
0.00621039
0.156136
0.00701369
0.155883
0.00779258
0.155597
0.00854515
0.155278
0.0092692
0.154929
0.00996186
0.154552
0.0106199
0.154153
0.0112376
0.153737
0.0118118
0.153317
0.0123249
0.152905
0.0127944
0.152549
0.013143
0.152215
0.0135765
0.0137268
0.152842
0.000904029
-0.152789
0.152852
0.00186809
0.15282
0.00281389
0.152748
0.00374089
0.152637
0.00464777
0.152488
0.00553334
0.152302
0.00639634
0.152081
0.00723529
0.151825
0.00804847
0.151536
0.00883387
0.151216
0.00958909
0.150867
0.0103109
0.150491
0.0109957
0.150093
0.0116365
0.149675
0.0122289
0.149253
0.0127476
0.148837
0.0132104
0.148502
0.0134777
0.148209
0.0138695
0.0136748
0.149052
-0.149014
0.000866551
0.149051
0.00186902
0.149011
0.00285421
0.148932
0.00381935
0.148817
0.00476306
0.148666
0.00568427
0.148481
0.00658172
0.148262
0.00745386
0.148012
0.00829893
0.147731
0.00911483
0.147421
0.00989911
0.147083
0.0106484
0.14672
0.0113589
0.146334
0.0120225
0.145928
0.0126353
0.14551
0.0131651
0.145086
0.013634
0.144735
0.0138287
0.144478
0.0141274
0.0130313
0.254371
7.40848e-05
-0.254445
0.254335
3.64024e-05
0.254302
3.25757e-05
0.254261
4.15149e-05
0.254205
5.59531e-05
0.254131
7.38117e-05
0.254037
9.3788e-05
0.253922
0.000114758
0.253786
0.000135907
0.25363
0.000156727
0.253453
0.00017678
0.253257
0.000195785
0.253043
0.000214241
0.25281
0.000233211
0.252559
0.000250502
0.252293
0.00026568
0.252015
0.000278347
0.251727
0.000288412
0.251437
0.000290012
0.000290024
0.256238
-0.000241601
-0.255923
0.256492
-0.000217604
0.256702
-0.000176652
0.256866
-0.000122826
0.256985
-6.26372e-05
0.257057
1.30921e-06
0.257083
6.78704e-05
0.257062
0.000135956
0.256993
0.00020464
0.256877
0.000272986
0.256714
0.000339752
0.256506
0.000403692
0.256257
0.000463562
0.255959
0.000531073
0.255617
0.000592773
0.255232
0.000649935
0.254808
0.000702401
0.254347
0.000750101
0.253848
0.000788383
0.00082147
0.251676
-0.000898499
-0.251019
0.25226
-0.000801553
0.252778
-0.000694754
0.253234
-0.000578273
0.253627
-0.000455621
0.253957
-0.000329043
0.254225
-0.000199685
0.254429
-6.8951e-05
0.254571
6.31652e-05
0.254648
0.00019608
0.254662
0.000325961
0.254613
0.000452437
0.254499
0.000577806
0.254327
0.000702929
0.254096
0.000823857
0.253806
0.000939772
0.253458
0.0010502
0.253053
0.00115503
0.252589
0.00125233
0.00134489
0.243358
-0.00183448
-0.242422
0.244221
-0.00166476
0.245014
-0.00148776
0.245739
-0.00130275
0.246394
-0.00111141
0.246981
-0.000915547
0.247498
-0.000716504
0.247944
-0.000515545
0.248321
-0.000313362
0.248624
-0.000107174
0.248855
9.47921e-05
0.249018
0.00028959
0.24911
0.000486305
0.249133
0.000680001
0.249087
0.000869609
0.248972
0.00105422
0.248789
0.00123308
0.248539
0.00140583
0.24822
0.00157142
0.00173039
0.233275
-0.00296944
-0.23214
0.234342
-0.00273147
0.23534
-0.00248598
0.23627
-0.00223255
0.23713
-0.0019721
0.237921
-0.00170612
0.23864
-0.00143604
0.239288
-0.00116307
0.239863
-0.000888171
0.240368
-0.000612133
0.240801
-0.000338185
0.241158
-6.7734e-05
0.241443
0.000201289
0.241656
0.000466976
0.241797
0.000728933
0.241865
0.000985714
0.241862
0.00123659
0.241787
0.00148098
0.24164
0.00171804
0.00194772
0.222718
-0.00423095
-0.221457
0.223916
-0.00392961
0.225049
-0.00361919
0.226117
-0.00329984
0.227117
-0.00297237
0.228049
-0.00263821
0.228912
-0.00229893
0.229705
-0.00195599
0.230427
-0.00161083
0.23108
-0.00126482
0.231661
-0.000919507
0.23217
-0.000576177
0.232607
-0.000235696
0.232973
0.000100405
0.233269
0.000433596
0.233492
0.000762764
0.233643
0.00108524
0.233723
0.00140095
0.233732
0.00170926
0.00200993
0.212472
-0.00556137
-0.211142
0.213744
-0.00520086
0.214954
-0.00482916
0.216101
-0.00444691
0.217183
-0.00405516
0.218201
-0.00365552
0.219152
-0.0032498
0.220035
-0.00283975
0.220851
-0.00242701
0.2216
-0.00201303
0.222279
-0.00159924
0.22289
-0.00118703
0.223432
-0.000777204
0.223903
-0.000370498
0.224311
2.54277e-05
0.224647
0.000426823
0.224913
0.00081861
0.225111
0.00120306
0.22524
0.00158011
0.00194936
0.202949
-0.00691891
-0.201592
0.204251
-0.00650255
0.205494
-0.0060726
0.206677
-0.00563008
0.207799
-0.00517648
0.208857
-0.00471381
0.209851
-0.00424421
0.210781
-0.00376969
0.211646
-0.00329209
0.212446
-0.00281303
0.213181
-0.00233399
0.21385
-0.00185633
0.214454
-0.00138113
0.214993
-0.000909338
0.215461
-0.000442328
0.215874
1.37671e-05
0.216215
0.000477389
0.216492
0.000926241
0.216704
0.00136853
0.00180292
0.194307
-0.00827574
-0.19295
0.195611
-0.00780607
0.196858
-0.00732011
0.198047
-0.0068192
0.199176
-0.0063055
0.200244
-0.00578162
0.20125
-0.0052501
0.202194
-0.00471329
0.203075
-0.00417325
0.203893
-0.00363174
0.20465
-0.00309032
0.205344
-0.00255031
0.205976
-0.00201289
0.206545
-0.001479
0.207053
-0.000950031
0.207494
-0.000427301
0.207881
9.07053e-05
0.208202
0.000604518
0.208463
0.00110818
0.00160397
0.186554
-0.0096151
-0.185214
0.187842
-0.00909408
0.189075
-0.00855359
0.190251
-0.00799533
0.191368
-0.00742249
0.192425
-0.00683847
0.193422
-0.00624637
0.194357
-0.00564887
0.195232
-0.00504826
0.196047
-0.00444645
0.196802
-0.003845
0.197496
-0.00324523
0.198132
-0.00264828
0.198708
-0.00205513
0.199225
-0.00146677
0.199682
-0.000884105
0.20008
-0.000307877
0.200422
0.000262341
0.200705
0.000825571
0.00137931
0.179617
-0.0109283
-0.178304
0.180881
-0.0103576
0.182091
-0.00976339
0.183243
-0.00914801
0.184337
-0.00851621
0.185371
-0.00787249
0.186345
-0.00722052
0.18726
-0.00656337
0.188115
-0.00590357
0.188912
-0.00524309
0.18965
-0.00458349
0.190331
-0.00392601
0.190954
-0.00327174
0.191521
-0.0026216
0.192031
-0.00197643
0.192484
-0.0013371
0.19288
-0.000704135
0.193223
-8.04592e-05
0.193509
0.000539268
0.00114823
0.173393
-0.0122123
-0.172109
0.174629
-0.0115938
0.175812
-0.0109459
0.176936
-0.0102728
0.178002
-0.00958154
0.179007
-0.00887796
0.179953
-0.00816631
0.18084
-0.00745011
0.181668
-0.00673206
0.182439
-0.00601413
0.183154
-0.0052978
0.183812
-0.0045842
0.184414
-0.00387432
0.184962
-0.003169
0.185454
-0.00246902
0.185892
-0.0017752
0.186277
-0.00108829
0.186606
-0.000409868
0.186885
0.000260251
0.000923861
0.167771
-0.0134679
-0.166516
0.168981
-0.0128039
0.170137
-0.0121016
0.171234
-0.0113692
0.17227
-0.0106175
0.173245
-0.00985333
0.17416
-0.00908174
0.175017
-0.00830666
0.175816
-0.00753092
0.176558
-0.00675637
0.177244
-0.00598432
0.177876
-0.00521578
0.178453
-0.00445157
0.178977
-0.00369244
0.179447
-0.00293912
0.179864
-0.0021924
0.180229
-0.00145276
0.18054
-0.00072094
0.180804
-3.7054e-06
0.00071454
0.162652
-0.014699
-0.161421
0.163841
-0.0139927
0.164973
-0.0132341
0.166044
-0.01244
0.167052
-0.0116258
0.167999
-0.0107996
0.168884
-0.00996723
0.16971
-0.009133
0.170479
-0.00829972
0.171192
-0.00746901
0.17185
-0.00664194
0.172453
-0.00581928
0.173003
-0.00500168
0.1735
-0.00418978
0.173946
-0.0033842
0.174339
-0.00258569
0.174681
-0.0017949
0.174973
-0.00101314
0.175212
-0.000242222
0.000521897
0.157952
-0.0159122
-0.156739
0.159127
-0.0151678
0.160242
-0.0143489
0.161292
-0.0134892
0.162275
-0.0126095
0.163194
-0.0117188
0.164051
-0.0108239
0.164848
-0.00992969
0.165587
-0.00903865
0.16627
-0.00815199
0.166898
-0.00727039
0.167473
-0.00639429
0.167996
-0.0055241
0.168466
-0.00466027
0.168885
-0.00380336
0.169254
-0.00295405
0.169572
-0.00211311
0.16984
-0.00128147
0.170058
-0.000460259
0.000350773
0.153609
-0.01712
-0.152401
0.154781
-0.0163397
0.155885
-0.0154531
0.156918
-0.0145218
0.157879
-0.013571
0.158772
-0.0126113
0.159599
-0.0116515
0.160366
-0.0106962
0.161074
-0.00974708
0.161727
-0.00880474
0.162326
-0.00786924
0.162872
-0.00694052
0.163366
-0.00601862
0.16381
-0.00510379
0.164203
-0.00419648
0.164546
-0.0032973
0.16484
-0.00240699
0.165085
-0.00152637
0.165282
-0.000656643
0.000201223
0.149577
-0.0183517
-0.148345
0.150761
-0.0175235
0.15186
-0.0165529
0.152879
-0.0155403
0.153817
-0.0145088
0.154679
-0.0134742
0.155475
-0.0124469
0.156208
-0.0114298
0.156884
-0.0104229
0.157505
-0.00942588
0.158074
-0.00843772
0.158591
-0.00745765
0.159058
-0.00648528
0.159475
-0.00552063
0.159842
-0.00456399
0.160161
-0.00361594
0.160431
-0.00267719
0.160653
-0.00174865
0.160828
-0.000831282
7.25674e-05
0.145826
-0.0196719
-0.144506
0.147043
-0.0187412
0.148139
-0.017649
0.149138
-0.0165392
0.150044
-0.0154149
0.150869
-0.0142991
0.151626
-0.0132034
0.152322
-0.0121259
0.152963
-0.0110635
0.153551
-0.010014
0.154088
-0.00897537
0.154577
-0.00794588
0.155016
-0.00692469
0.155407
-0.00591162
0.15575
-0.0049069
0.156045
-0.00391109
0.156293
-0.00292495
0.156494
-0.00194955
0.156648
-0.000985856
-3.5821e-05
0.142372
-0.0211504
-0.140893
0.143621
-0.0199902
0.144695
-0.0187232
0.145652
-0.0174961
0.14651
-0.0162723
0.147286
-0.0150754
0.147997
-0.0139144
0.148652
-0.012781
0.149256
-0.0116674
0.149811
-0.0105692
0.150319
-0.00948301
0.150779
-0.00840641
0.151193
-0.00733826
0.151559
-0.0062783
0.151879
-0.00522684
0.152153
-0.00418447
0.15238
-0.00315206
0.152561
-0.00213078
0.152697
-0.00112211
-0.000127612
0.139285
-0.137867
-0.0225689
0.140448
-0.0211524
0.141482
-0.0197572
0.142359
-0.0183732
0.143148
-0.0170616
0.143872
-0.0157991
0.144537
-0.0145796
0.145152
-0.0133957
0.145721
-0.0122364
0.146245
-0.0110936
0.146725
-0.00996261
0.147159
-0.00884096
0.147548
-0.00772747
0.147892
-0.00662204
0.14819
-0.00552513
0.148444
-0.00443753
0.148652
-0.0033602
0.148815
-0.00229416
0.148934
-0.00124097
-0.000208146
0.0308466
0.112056
-0.110571
-0.0323312
0.0293345
0.115058
-0.113546
0.0277924
0.118192
-0.11665
0.0262166
0.121482
-0.119907
0.0246039
0.124961
-0.123348
0.0229515
0.128669
-0.127017
0.0212572
0.132667
-0.130973
0.0195198
0.137032
-0.135295
0.0177386
0.141869
-0.140088
0.0159139
0.147309
-0.145484
0.0140476
0.153513
-0.151647
0.0121438
0.160669
-0.158765
0.0102115
0.168977
-0.167045
0.00826741
0.178627
-0.176682
0.00634141
0.18974
-0.187814
0.0044837
0.202281
-0.200423
0.00277409
0.215913
-0.214204
0.00133318
0.22978
-0.228339
0.000330378
0.242097
-0.241095
0.24973
-0.249399
0.030657
0.113533
-0.0321341
0.0291526
0.116562
0.0276183
0.119727
0.0260507
0.12305
0.0244462
0.126565
0.0228022
0.130314
0.0211164
0.134353
0.0193872
0.138761
0.017614
0.143642
0.015797
0.149126
0.0139381
0.155372
0.012042
0.162565
0.0101181
0.170901
0.00818395
0.180561
0.00627061
0.191653
0.00442976
0.204122
0.00274271
0.2176
0.00132949
0.231193
0.000354136
0.243073
0.250084
0.0304256
0.115
-0.0318928
0.028931
0.118057
0.0274068
0.121251
0.0258494
0.124608
0.0242554
0.128159
0.022622
0.131947
0.0209467
0.136028
0.019228
0.14048
0.0174651
0.145405
0.0156581
0.150933
0.0138092
0.157221
0.0119233
0.164451
0.0100102
0.172814
0.00808841
0.182482
0.00618988
0.193552
0.00436732
0.205944
0.00270258
0.219265
0.00131404
0.232582
0.000357204
0.24403
0.250441
0.0301538
0.116456
-0.0316091
0.0286713
0.119539
0.0271593
0.122763
0.0256142
0.126153
0.0240327
0.129741
0.0224118
0.133568
0.0207492
0.13769
0.0190431
0.142186
0.0172926
0.147156
0.0154979
0.152728
0.0136612
0.159058
0.0117877
0.166325
0.00988779
0.174714
0.00798049
0.18439
0.00609865
0.195433
0.00429573
0.207747
0.0026537
0.220907
0.00128929
0.233946
0.000352133
0.244967
0.250793
0.029844
0.117897
-0.0312855
0.0283754
0.121008
0.0268774
0.124261
0.0253466
0.127684
0.0237794
0.131308
0.0221729
0.135174
0.0205248
0.139339
0.0188332
0.143878
0.0170971
0.148892
0.0153167
0.154508
0.0134944
0.16088
0.0116355
0.168184
0.00975083
0.176599
0.00786016
0.18628
0.00599704
0.197296
0.00421559
0.209529
0.00259782
0.222525
0.00125882
0.235285
0.000343207
0.245882
0.251136
0.0294988
0.119323
-0.030925
0.0280456
0.122461
0.0265633
0.125743
0.0250481
0.129199
0.0234968
0.132859
0.0219065
0.136765
0.0202745
0.140971
0.0185991
0.145553
0.0168792
0.150612
0.0151151
0.156272
0.0133091
0.162686
0.0114668
0.170026
0.00959956
0.178466
0.00772766
0.188152
0.00588541
0.199139
0.00412753
0.211287
0.00253595
0.224117
0.00122399
0.236597
0.000331595
0.246775
0.251468
0.0291209
0.120733
-0.0305306
0.0276843
0.123898
0.0262188
0.127209
0.0247206
0.130697
0.0231865
0.134393
0.0216136
0.138338
0.0199993
0.142585
0.0183416
0.147211
0.0166396
0.152314
0.0148935
0.158018
0.0131057
0.164474
0.011282
0.171849
0.00943429
0.180314
0.00758329
0.190003
0.00576407
0.200958
0.0040319
0.213019
0.00246851
0.22568
0.00118538
0.23788
0.000318002
0.247642
0.251786
0.0287131
0.122126
-0.0301059
0.0272939
0.125317
0.025846
0.128657
0.0243657
0.132177
0.0228499
0.135909
0.0212954
0.139892
0.0197
0.14418
0.0180615
0.148849
0.0163789
0.153996
0.0146524
0.159745
0.0128846
0.166242
0.0110815
0.173652
0.00925529
0.18214
0.00742733
0.191831
0.00563332
0.202752
0.003929
0.214723
0.00239586
0.227213
0.00114348
0.239133
0.000303033
0.248483
0.252089
0.0282785
0.123501
-0.0296542
0.0268767
0.126719
0.0254468
0.130087
0.0239849
0.133639
0.022488
0.137406
0.020953
0.141427
0.0193774
0.145756
0.0177593
0.150467
0.0160975
0.155658
0.0143923
0.16145
0.0126462
0.167988
0.0108655
0.175433
0.00906282
0.183943
0.00726001
0.193634
0.00549339
0.204519
0.00381913
0.216397
0.00231837
0.228714
0.0010988
0.240352
0.000287102
0.249294
0.252376
0.0278198
0.124861
-0.0291792
0.026435
0.128103
0.0250228
0.131499
0.0235795
0.135082
0.0221018
0.138884
0.0205868
0.142942
0.0190321
0.147311
0.0174355
0.152064
0.0157958
0.157298
0.0141133
0.163132
0.0123906
0.169711
0.0106343
0.177189
0.00885707
0.18572
0.00708155
0.19541
0.00534456
0.206256
0.00370259
0.218039
0.0022364
0.23018
0.00105168
0.241537
0.000270457
0.250075
0.252646
0.0273393
0.126205
-0.0286839
0.0259704
0.129472
0.0245752
0.132894
0.0231502
0.136507
0.0216919
0.140342
0.0201974
0.144436
0.0186642
0.148844
0.0170901
0.153638
0.0154738
0.158914
0.0138156
0.164791
0.012118
0.171408
0.0103878
0.17892
0.00863821
0.18747
0.00689215
0.197156
0.00518703
0.207961
0.00357965
0.219647
0.00215025
0.231609
0.00100241
0.242685
0.000253256
0.250825
0.2529
0.0268387
0.127538
-0.0281711
0.0254837
0.130827
0.0241044
0.134273
0.022697
0.137915
0.021258
0.141781
0.0197845
0.14591
0.0182736
0.150355
0.016723
0.155188
0.0151315
0.160506
0.013499
0.166423
0.0118283
0.173079
0.0101263
0.180622
0.00840634
0.18919
0.00669196
0.19887
0.00502103