/*--------------------------------*- C++ -*----------------------------------*\
  =========                 |
  \\      /  F ield         | OpenFOAM: The Open Source CFD Toolbox
   \\    /   O peration     | Website:  https://openfoam.org
    \\  /    A nd           | Version:  6.0
     \\/     M anipulation  |
\*---------------------------------------------------------------------------*/
FoamFile
{
    version     2.0;
    format      ascii;
    class       volScalarField;
    location    "24";
    object      p;
}
// * * * * * * * * * * * * * * * * * * * * * * * * * * * * * * * * * * * * * //

dimensions      [0 2 -2 0 0 0 0];

internalField   nonuniform List<scalar> 
19200
(
-7.21118
-6.34488
-5.75209
-5.29139
-4.88549
-4.52862
-4.21315
-3.93054
-3.67478
-3.44156
-3.22755
-3.03017
-2.84735
-2.67747
-2.51917
-2.37135
-2.23306
-2.10349
-1.98195
-1.86783
-1.7606
-1.65976
-1.56489
-1.4756
-1.39153
-1.31238
-1.23787
-1.16772
-1.10167
-1.03964
-7.38993
-6.52297
-5.92793
-5.46376
-5.05373
-4.69231
-4.37205
-4.08453
-3.82384
-3.58571
-3.36688
-3.16479
-2.97741
-2.80313
-2.6406
-2.48872
-2.34655
-2.21329
-2.08824
-1.97078
-1.86036
-1.75651
-1.65879
-1.56679
-1.48016
-1.39859
-1.32178
-1.24943
-1.18124
-1.11746
-7.5733
-6.70416
-6.10631
-5.63847
-5.22414
-4.85804
-4.53286
-4.2403
-3.97454
-3.73139
-3.50762
-3.30072
-3.10868
-2.9299
-2.76305
-2.60704
-2.46092
-2.32389
-2.19526
-2.07439
-1.96075
-1.85384
-1.75321
-1.65847
-1.56924
-1.48521
-1.40607
-1.3315
-1.26113
-1.19559
-7.75962
-6.88801
-6.28705
-5.81536
-5.39658
-5.02564
-4.69539
-4.39767
-4.12672
-3.87843
-3.64961
-3.43779
-3.24099
-3.05762
-2.88637
-2.72613
-2.57599
-2.43513
-2.30285
-2.17853
-2.06161
-1.9516
-1.84803
-1.7505
-1.65863
-1.57211
-1.49062
-1.41379
-1.34122
-1.27391
-7.94847
-7.07424
-6.46996
-5.99424
-5.57085
-5.19493
-4.85949
-4.55647
-4.28021
-4.02666
-3.79268
-3.57584
-3.37418
-3.18612
-3.01038
-2.84585
-2.69161
-2.54685
-2.41088
-2.28305
-2.1628
-2.04964
-1.94309
-1.84275
-1.74822
-1.65917
-1.5753
-1.49618
-1.42139
-1.3523
-8.13954
-7.2626
-6.65485
-6.17494
-5.74679
-5.36575
-5.02498
-4.71653
-4.43484
-4.17591
-3.93666
-3.71469
-3.50807
-3.31524
-3.13492
-2.96602
-2.80762
-2.65891
-2.51918
-2.38779
-2.26418
-2.14783
-2.03828
-1.93508
-1.83786
-1.74627
-1.65999
-1.57856
-1.50153
-1.43066
-8.33258
-7.45286
-6.84151
-6.35727
-5.92422
-5.53792
-5.19169
-4.87768
-4.59043
-4.326
-4.08138
-3.85418
-3.6425
-3.44482
-3.25984
-3.0865
-2.92388
-2.77115
-2.62761
-2.49263
-2.36561
-2.24604
-2.13344
-2.02737
-1.92744
-1.83328
-1.74458
-1.66082
-1.58153
-1.50888
-8.52732
-7.64478
-7.02972
-6.54102
-6.10294
-5.71125
-5.35942
-5.03973
-4.7468
-4.47677
-4.22666
-3.99412
-3.7773
-3.57467
-3.38497
-3.20712
-3.0402
-2.88341
-2.73603
-2.5974
-2.46694
-2.34413
-2.22846
-2.1195
-2.01683
-1.92009
-1.82895
-1.74285
-1.66128
-1.58686
-8.72355
-7.83814
-7.21928
-6.726
-6.28277
-5.88555
-5.528
-5.2025
-4.90377
-4.62802
-4.37231
-4.13435
-3.91229
-3.70464
-3.51013
-3.32771
-3.15645
-2.99555
-2.84427
-2.70196
-2.56804
-2.44195
-2.3232
-2.21132
-2.1059
-2.00657
-1.91299
-1.82454
-1.74069
-1.6645
-8.92104
-8.03272
-7.40997
-6.912
-6.46348
-6.06063
-5.69722
-5.3658
-5.06115
-4.77957
-4.51816
-4.27468
-4.0473
-3.83454
-3.63517
-3.44811
-3.27246
-3.10739
-2.95219
-2.80617
-2.66876
-2.53938
-2.41753
-2.30273
-2.19455
-2.09263
-1.99659
-1.90578
-1.81964
-1.74171
-9.11957
-8.2283
-7.60157
-7.09881
-6.6449
-6.23627
-5.8669
-5.52943
-5.21875
-4.93123
-4.66403
-4.41493
-4.18215
-3.96422
-3.75991
-3.56817
-3.38807
-3.21881
-3.05964
-2.90989
-2.76896
-2.63628
-2.51131
-2.39359
-2.28266
-2.17813
-2.07964
-1.98648
-1.89805
-1.81839
-9.31891
-8.42466
-7.79388
-7.28622
-6.8268
-6.41229
-6.03683
-5.6932
-5.37638
-5.08281
-4.80972
-4.55492
-4.31666
-4.09349
-3.88418
-3.6877
-3.50312
-3.32963
-3.16647
-3.01297
-2.86851
-2.73251
-2.60444
-2.48378
-2.3701
-2.26298
-2.16204
-2.06652
-1.97582
-1.89446
-9.51884
-8.62159
-7.98668
-7.47403
-7.00899
-6.58848
-6.20681
-5.85691
-5.53384
-5.23413
-4.95506
-4.69448
-4.45066
-4.22218
-4.00783
-3.80656
-3.61746
-3.4397
-3.27254
-3.11527
-2.96728
-2.82796
-2.69677
-2.57319
-2.45676
-2.34705
-2.24368
-2.14583
-2.05285
-1.96982
-9.71915
-8.81886
-8.17976
-7.66201
-7.19125
-6.76463
-6.37665
-6.02036
-5.69095
-5.38499
-5.09985
-4.83341
-4.58397
-4.35012
-4.13067
-3.92458
-3.73093
-3.54888
-3.37769
-3.21665
-3.06512
-2.92248
-2.78818
-2.66169
-2.54252
-2.43025
-2.32446
-2.22428
-2.12905
-2.04438
-9.91962
-9.01626
-8.3729
-7.84997
-7.37338
-6.94054
-6.54613
-6.18335
-5.84749
-5.53521
-5.24391
-4.97154
-4.71641
-4.47714
-4.25255
-4.0416
-3.84337
-3.65702
-3.48179
-3.31697
-3.16189
-3.01595
-2.87855
-2.74916
-2.62727
-2.51245
-2.40427
-2.30178
-2.20432
-2.11805
-10.12
-9.21359
-8.5659
-8.03769
-7.55517
-7.116
-6.71507
-6.3457
-6.0033
-5.6846
-5.38707
-5.10869
-4.84782
-4.60308
-4.37331
-4.15747
-3.95464
-3.76397
-3.58469
-3.41609
-3.25747
-3.10823
-2.96774
-2.83547
-2.71088
-2.59354
-2.48299
-2.37823
-2.27855
-2.19074
-10.3201
-9.41062
-8.75853
-8.22497
-7.73642
-7.29082
-6.88326
-6.5072
-6.15816
-5.83296
-5.52913
-5.24469
-4.97802
-4.72778
-4.49279
-4.27204
-4.06458
-3.86958
-3.68626
-3.51387
-3.35173
-3.19919
-3.05563
-2.9205
-2.79323
-2.6734
-2.56051
-2.4535
-2.35164
-2.26232
-10.5198
-9.60715
-8.95061
-8.41159
-7.91692
-7.46479
-7.05049
-6.66766
-6.3119
-5.98013
-5.66993
-5.37936
-5.10685
-4.85106
-4.61083
-4.38514
-4.17305
-3.97372
-3.78634
-3.61017
-3.44451
-3.28869
-3.14209
-3.00411
-2.8742
-2.7519
-2.6367
-2.52748
-2.42346
-2.3327
-10.7188
-9.80298
-9.14192
-8.59737
-8.09646
-7.63771
-7.21659
-6.82689
-6.46433
-6.12592
-5.80929
-5.51255
-5.23416
-4.97278
-4.72729
-4.49665
-4.27992
-4.07624
-3.88481
-3.70487
-3.5357
-3.37662
-3.22698
-3.08618
-2.95364
-2.8289
-2.71143
-2.60003
-2.49388
-2.40172
-10.9169
-9.99792
-9.33226
-8.78209
-8.27486
-7.80938
-7.38135
-6.9847
-6.61527
-6.27015
-5.94703
-5.64408
-5.35977
-5.0928
-4.84202
-4.60641
-4.38504
-4.17702
-3.98155
-3.79784
-3.62516
-3.46283
-3.31017
-3.16656
-3.03142
-2.90426
-2.78454
-2.67099
-2.56274
-2.46922
-11.1139
-10.1918
-9.52146
-8.96555
-8.45191
-7.97961
-7.54458
-7.1409
-6.76453
-6.41265
-6.08301
-5.77381
-5.48355
-5.21096
-4.95489
-4.71431
-4.48829
-4.27594
-4.07642
-3.88895
-3.71278
-3.5472
-3.39153
-3.24512
-3.10738
-2.97782
-2.85587
-2.74018
-2.62984
-2.53501
-11.3098
-10.3844
-9.7093
-9.14757
-8.62741
-8.1482
-7.70609
-7.29531
-6.91195
-6.55325
-6.21705
-5.90157
-5.60536
-5.32713
-5.06577
-4.82023
-4.58956
-4.37288
-4.16932
-3.9781
-3.79844
-3.62961
-3.47093
-3.32173
-3.18139
-3.04942
-2.92525
-2.80743
-2.69498
-2.59885
-11.5043
-10.5756
-9.89562
-9.32795
-8.80117
-8.31496
-7.86569
-7.44776
-7.05735
-6.6918
-6.34901
-6.02724
-5.72506
-5.4412
-5.17454
-4.92405
-4.68875
-4.46774
-4.26017
-4.06519
-3.88204
-3.70997
-3.54826
-3.39625
-3.2533
-3.1189
-2.99248
-2.87251
-2.7579
-2.66045
-11.6974
-10.7652
-10.0802
-9.50649
-8.97297
-8.47969
-8.0232
-7.59805
-7.20056
-6.82813
-6.47873
-6.15067
-5.84253
-5.55305
-5.28112
-5.02568
-4.78577
-4.56046
-4.34887
-4.15015
-3.96351
-3.78819
-3.62344
-3.46859
-3.32298
-3.1861
-3.05738
-2.93518
-2.81833
-2.71948
-11.8891
-10.9531
-10.2629
-9.68296
-9.14262
-8.64218
-8.17841
-7.74601
-7.34141
-6.9621
-6.6061
-6.27175
-5.95765
-5.66258
-5.38539
-5.12505
-4.88056
-4.65097
-4.43539
-4.23294
-4.04282
-3.86422
-3.69641
-3.53867
-3.39035
-3.2509
-3.11977
-2.99522
-2.87593
-2.77555
-12.0793
-11.139
-10.4434
-9.85716
-9.30989
-8.80223
-8.33115
-7.89147
-7.47975
-7.09356
-6.73096
-6.39034
-6.07033
-5.76969
-5.4873
-5.22209
-4.97306
-4.73923
-4.51969
-4.31355
-4.11995
-3.93809
-3.76719
-3.60652
-3.45538
-3.31326
-3.17955
-3.05245
-2.93044
-2.8281
-12.2682
-11.3229
-10.6215
-10.0288
-9.47455
-8.95963
-8.4812
-8.03426
-7.61542
-7.22236
-6.85319
-6.50635
-6.18047
-5.87432
-5.58678
-5.31676
-5.06324
-4.82524
-4.6018
-4.392
-4.19496
-4.00985
-3.83586
-3.67221
-3.5182
-3.37327
-3.23683
-3.10696
-2.98171
-2.87656
-12.4569
-11.5047
-10.797
-10.1976
-9.6363
-9.1141
-8.62835
-8.17415
-7.74824
-7.34835
-6.97267
-6.61965
-6.28796
-5.97637
-5.68375
-5.409
-5.15108
-4.90898
-4.68172
-4.46834
-4.26793
-4.07962
-3.90256
-3.73593
-3.57898
-3.43111
-3.29172
-3.15864
-3.02924
-2.92056
-12.6466
-11.6842
-10.9691
-10.363
-9.79476
-9.26538
-8.77238
-8.31099
-7.87805
-7.47139
-7.08925
-6.73013
-6.39271
-6.07577
-5.77816
-5.49878
-5.23656
-4.99047
-4.75949
-4.54264
-4.33899
-4.1476
-3.96758
-3.79805
-3.63816
-3.48722
-3.34437
-3.20688
-3.07178
-2.95954
-12.8297
-11.8583
-11.1368
-10.5247
-9.94984
-9.41347
-8.91331
-8.44479
-8.00488
-7.59151
-7.20298
-6.83783
-6.49476
-6.17255
-5.87005
-5.58614
-5.31974
-5.06977
-4.83521
-4.61506
-4.40833
-4.21408
-4.03138
-3.85933
-3.69703
-3.5436
-3.39767
-3.25628
-3.11772
-3.00069
-15.8718
-15.8529
-15.8247
-15.792
-15.754
-15.7102
-15.6602
-15.6041
-15.5419
-15.4735
-15.399
-15.3185
-15.232
-15.1396
-15.0415
-14.9377
-14.8284
-14.7137
-14.5938
-14.4687
-14.3387
-14.2038
-14.0643
-13.9204
-13.7722
-13.62
-13.4641
-13.3049
-13.143
-12.9812
-14.8356
-14.8216
-14.7991
-14.7703
-14.7352
-14.6938
-14.646
-14.5921
-14.532
-14.4657
-14.3934
-14.3151
-14.2309
-14.1409
-14.0452
-13.9439
-13.8371
-13.725
-13.6077
-13.4853
-13.358
-13.226
-13.0893
-12.9482
-12.8029
-12.6536
-12.5006
-12.3441
-12.1844
-12.0221
-13.9953
-13.985
-13.9671
-13.9423
-13.911
-13.8732
-13.8292
-13.7789
-13.7225
-13.66
-13.5915
-13.5171
-13.4369
-13.3509
-13.2593
-13.1622
-13.0597
-12.9519
-12.8389
-12.721
-12.5981
-12.4706
-12.3384
-12.2019
-12.0611
-11.9163
-11.7676
-11.6153
-11.4593
-11.2999
-13.2334
-13.2265
-13.2126
-13.192
-13.1649
-13.1314
-13.0918
-13.046
-12.9941
-12.9363
-12.8725
-12.803
-12.7277
-12.6468
-12.5603
-12.4684
-12.3712
-12.2688
-12.1613
-12.0488
-11.9315
-11.8096
-11.6831
-11.5522
-11.417
-11.2778
-11.1347
-10.9877
-10.8371
-10.6828
-12.4939
-12.4903
-12.4803
-12.4638
-12.441
-12.412
-12.377
-12.3359
-12.2889
-12.2361
-12.1775
-12.1132
-12.0433
-11.9679
-11.8871
-11.8009
-11.7095
-11.613
-11.5115
-11.4052
-11.294
-11.1783
-11.0581
-10.9335
-10.8047
-10.6718
-10.5349
-10.3942
-10.2498
-10.1017
-11.7885
-11.7881
-11.7816
-11.769
-11.7503
-11.7256
-11.6951
-11.6587
-11.6165
-11.5687
-11.5153
-11.4563
-11.3919
-11.3221
-11.247
-11.1667
-11.0813
-10.991
-10.8957
-10.7957
-10.691
-10.5817
-10.468
-10.3501
-10.2279
-10.1017
-9.97153
-9.83754
-9.69983
-9.55849
-11.1221
-11.1245
-11.1212
-11.1121
-11.0971
-11.0764
-11.05
-11.018
-10.9805
-10.9374
-10.8889
-10.8351
-10.776
-10.7116
-10.6422
-10.5677
-10.4882
-10.4039
-10.3148
-10.2211
-10.1228
-10.02
-9.91297
-9.80166
-9.68624
-9.56682
-9.4435
-9.3164
-9.18562
-9.05126
-10.495
-10.4999
-10.4993
-10.4932
-10.4814
-10.4642
-10.4416
-10.4136
-10.3802
-10.3415
-10.2976
-10.2486
-10.1945
-10.1353
-10.0712
-10.0022
-9.92837
-9.84987
-9.76675
-9.6791
-9.58702
-9.49061
-9.38997
-9.2852
-9.17641
-9.06369
-8.94716
-8.8269
-8.70303
-8.57565
-9.90722
-9.91407
-9.91575
-9.91211
-9.90317
-9.88899
-9.86961
-9.84507
-9.81542
-9.7807
-9.74097
-9.69628
-9.64669
-9.59227
-9.53308
-9.4692
-9.40069
-9.32765
-9.25014
-9.16825
-9.08208
-8.9917
-8.89722
-8.79872
-8.69631
-8.59007
-8.48011
-8.36651
-8.24938
-8.12883
-9.35833
-9.36669
-9.37014
-9.36853
-9.36188
-9.35023
-9.33363
-9.31209
-9.28567
-9.25441
-9.21835
-9.17755
-9.13205
-9.08192
-9.02722
-8.96801
-8.90436
-8.83634
-8.76403
-8.6875
-8.60683
-8.52211
-8.43342
-8.34084
-8.24447
-8.14439
-8.0407
-7.93347
-7.82281
-7.70881
-8.84721
-8.85667
-8.86145
-8.86142
-8.8566
-8.84703
-8.83273
-8.81373
-8.79007
-8.76179
-8.72893
-8.69154
-8.64966
-8.60335
-8.55266
-8.49766
-8.4384
-8.37495
-8.30739
-8.23577
-8.16018
-8.08069
-7.99737
-7.91031
-7.81959
-7.72529
-7.62749
-7.52627
-7.42173
-7.31397
-8.37227
-8.38246
-8.3882
-8.38936
-8.38596
-8.37804
-8.36561
-8.34872
-8.32738
-8.30163
-8.27152
-8.23708
-8.19836
-8.1554
-8.10827
-8.05701
-8.00169
-7.94236
-7.87908
-7.81193
-7.74097
-7.66626
-7.58789
-7.50591
-7.42042
-7.33149
-7.23918
-7.14359
-7.04478
-6.94287
-7.93162
-7.94222
-7.94859
-7.95059
-7.94826
-7.94162
-7.9307
-7.91551
-7.8961
-7.87248
-7.84469
-7.81279
-7.7768
-7.73677
-7.69276
-7.64481
-7.59298
-7.53732
-7.4779
-7.41477
-7.34799
-7.27763
-7.20376
-7.12645
-7.04576
-6.96177
-6.87454
-6.78416
-6.69069
-6.59423
-7.52314
-7.53391
-7.54063
-7.5432
-7.54163
-7.53596
-7.52621
-7.5124
-7.49455
-7.4727
-7.44688
-7.41712
-7.38348
-7.34599
-7.3047
-7.25966
-7.21091
-7.15852
-7.10252
-7.04299
-6.97999
-6.91356
-6.84377
-6.77069
-6.69439
-6.61492
-6.53237
-6.44679
-6.35825
-6.26685
-7.14465
-7.15537
-7.16223
-7.16512
-7.16407
-7.15911
-7.15025
-7.13752
-7.12095
-7.10055
-7.07637
-7.04845
-7.01681
-6.98151
-6.94258
-6.90007
-6.85404
-6.80453
-6.75158
-6.69527
-6.63564
-6.57274
-6.50665
-6.43741
-6.36509
-6.28975
-6.21146
-6.13029
-6.0463
-5.95956
-6.79392
-6.80444
-6.81126
-6.81429
-6.81356
-6.80909
-6.8009
-6.78901
-6.77345
-6.75425
-6.73144
-6.70505
-6.67512
-6.6417
-6.60482
-6.56453
-6.52088
-6.47391
-6.42367
-6.37022
-6.3136
-6.25388
-6.1911
-6.12533
-6.05662
-5.98504
-5.91064
-5.8335
-5.75367
-5.67123
-6.46877
-6.47897
-6.48563
-6.48865
-6.48808
-6.48393
-6.47622
-6.46498
-6.45023
-6.432
-6.41032
-6.38523
-6.35676
-6.32495
-6.28985
-6.25149
-6.20992
-6.16519
-6.11735
-6.06644
-6.01253
-5.95564
-5.89585
-5.83321
-5.76777
-5.69959
-5.62874
-5.55527
-5.47924
-5.40075
-6.16713
-6.17692
-6.18331
-6.18622
-6.18569
-6.18172
-6.17436
-6.1636
-6.14949
-6.13205
-6.11131
-6.08731
-6.06008
-6.02966
-5.99609
-5.95942
-5.91969
-5.87694
-5.83122
-5.78258
-5.73107
-5.67674
-5.61963
-5.55981
-5.49732
-5.43223
-5.36459
-5.29446
-5.22192
-5.14703
-5.88701
-5.89634
-5.9024
-5.90512
-5.90453
-5.90065
-5.8935
-5.88311
-5.8695
-5.8527
-5.83275
-5.80966
-5.78349
-5.75427
-5.72204
-5.68685
-5.64873
-5.60773
-5.5639
-5.51728
-5.46793
-5.41588
-5.36119
-5.30391
-5.24409
-5.18179
-5.11707
-5.04998
-4.98061
-4.90903
-5.62658
-5.63541
-5.64109
-5.64357
-5.64285
-5.63898
-5.63197
-5.62185
-5.60863
-5.59235
-5.57305
-5.55075
-5.52549
-5.49731
-5.46625
-5.43235
-5.39565
-5.35621
-5.31406
-5.26925
-5.22182
-5.17183
-5.11932
-5.06434
-5.00694
-4.94717
-4.88509
-4.82077
-4.75427
-4.68571
-5.38413
-5.39246
-5.39774
-5.39992
-5.39905
-5.39513
-5.38819
-5.37825
-5.36534
-5.3495
-5.33074
-5.3091
-5.28463
-5.25735
-5.22732
-5.19457
-5.15914
-5.12108
-5.08043
-5.03724
-4.99155
-4.94341
-4.89287
-4.83997
-4.78476
-4.72728
-4.6676
-4.60579
-4.54191
-4.47609
-5.15811
-5.16593
-5.17079
-5.17268
-5.1716
-5.1676
-5.16068
-5.15088
-5.13821
-5.12272
-5.10442
-5.08336
-5.05957
-5.03309
-5.00396
-4.97223
-4.93793
-4.9011
-4.8618
-4.82007
-4.77595
-4.72949
-4.68073
-4.62972
-4.5765
-4.52111
-4.4636
-4.40406
-4.34254
-4.27922
-4.94711
-4.95441
-4.95887
-4.96044
-4.95915
-4.95504
-4.94811
-4.9384
-4.92592
-4.91072
-4.89282
-4.87226
-4.84907
-4.82329
-4.79497
-4.76414
-4.73085
-4.69514
-4.65706
-4.61664
-4.57395
-4.52901
-4.48187
-4.43257
-4.38116
-4.32767
-4.27214
-4.21465
-4.15526
-4.09419
-4.74983
-4.75664
-4.76068
-4.76194
-4.76044
-4.7562
-4.74924
-4.73959
-4.72727
-4.71231
-4.69476
-4.67463
-4.65197
-4.62682
-4.59922
-4.56921
-4.53682
-4.50212
-4.46514
-4.42592
-4.38452
-4.34096
-4.29531
-4.24758
-4.19782
-4.14607
-4.09234
-4.03671
-3.97921
-3.92015
-4.56511
-4.57144
-4.57509
-4.57605
-4.57432
-4.56995
-4.56294
-4.55333
-4.54114
-4.52639
-4.50914
-4.4894
-4.46721
-4.44263
-4.41567
-4.3864
-4.35484
-4.32105
-4.28507
-4.24694
-4.20672
-4.16443
-4.12013
-4.07385
-4.02562
-3.97545
-3.92338
-3.86943
-3.81359
-3.75634
-4.3919
-4.39778
-4.40104
-4.40169
-4.39975
-4.39523
-4.38816
-4.37857
-4.36647
-4.35191
-4.33491
-4.31551
-4.29375
-4.26967
-4.2433
-4.21468
-4.18387
-4.15091
-4.11584
-4.07871
-4.03956
-3.99843
-3.95538
-3.91042
-3.86359
-3.8149
-3.76434
-3.71193
-3.65752
-3.60196
-4.22928
-4.23471
-4.2376
-4.23795
-4.23578
-4.23111
-4.22396
-4.21436
-4.20234
-4.18792
-4.17114
-4.15203
-4.13063
-4.10698
-4.08113
-4.0531
-4.02295
-3.99072
-3.95646
-3.92021
-3.88203
-3.84194
-3.80001
-3.75625
-3.71069
-3.66335
-3.61417
-3.56314
-3.50989
-3.45596
-4.07638
-4.08145
-4.08406
-4.08418
-4.08185
-4.07709
-4.06992
-4.06035
-4.04843
-4.03418
-4.01763
-3.99882
-3.97778
-3.95455
-3.92919
-3.90171
-3.87219
-3.84065
-3.80714
-3.77171
-3.73442
-3.6953
-3.6544
-3.61176
-3.5674
-3.52132
-3.47346
-3.42371
-3.37133
-3.31867
-3.93232
-3.93722
-3.9397
-3.93978
-3.93746
-3.93278
-3.92575
-3.91639
-3.90474
-3.89083
-3.87468
-3.85634
-3.83584
-3.81322
-3.78852
-3.76178
-3.73306
-3.70239
-3.66983
-3.63542
-3.59921
-3.56126
-3.52161
-3.48031
-3.43738
-3.39284
-3.34661
-3.29853
-3.24736
-3.19625
-3.79642
-3.80051
-3.80229
-3.80176
-3.79893
-3.79384
-3.7865
-3.77693
-3.76517
-3.75124
-3.73519
-3.71703
-3.69681
-3.67458
-3.65036
-3.62421
-3.59617
-3.56628
-3.53459
-3.50116
-3.46604
-3.42927
-3.39092
-3.35103
-3.30965
-3.26684
-3.22257
-3.17665
-3.12788
-3.08345
-13.3436
-13.4989
-13.6459
-13.7927
-13.9379
-14.08
-14.2182
-14.3524
-14.4821
-14.607
-14.727
-14.8417
-14.9509
-15.0546
-15.1525
-15.2444
-15.3304
-15.4101
-15.4836
-15.5507
-15.6114
-15.6656
-15.7132
-15.7542
-15.7886
-15.8164
-15.8377
-15.8526
-15.8614
-15.8657
-12.3081
-12.4676
-12.6202
-12.7695
-12.9153
-13.0571
-13.1948
-13.3281
-13.4569
-13.581
-13.7001
-13.8139
-13.9225
-14.0255
-14.1229
-14.2144
-14.3
-14.3796
-14.453
-14.5201
-14.5809
-14.6353
-14.6833
-14.7247
-14.7597
-14.7881
-14.8101
-14.8256
-14.8348
-14.8379
-11.4574
-11.6165
-11.7702
-11.9196
-12.0649
-12.206
-12.3429
-12.4755
-12.6035
-12.7268
-12.8453
-12.9587
-13.0669
-13.1698
-13.2671
-13.3588
-13.4447
-13.5246
-13.5986
-13.6665
-13.7283
-13.7837
-13.8329
-13.8757
-13.9122
-13.9422
-13.9658
-13.983
-13.9937
-13.9978
-10.6882
-10.8447
-10.9968
-11.1447
-11.2886
-11.4283
-11.5639
-11.6953
-11.8222
-11.9446
-12.0622
-12.175
-12.2827
-12.3852
-12.4824
-12.5741
-12.6603
-12.7407
-12.8154
-12.8842
-12.947
-13.0037
-13.0544
-13.0988
-13.1371
-13.169
-13.1947
-13.2141
-13.227
-13.2335
-9.95205
-10.1051
-10.2544
-10.3999
-10.5414
-10.6791
-10.8127
-10.9422
-11.0675
-11.1883
-11.3046
-11.4163
-11.523
-11.6248
-11.7215
-11.813
-11.8991
-11.9797
-12.0547
-12.1241
-12.1878
-12.2456
-12.2975
-12.3435
-12.3834
-12.4173
-12.4451
-12.4667
-12.4821
-12.4912
-9.26305
-9.41203
-9.55784
-9.70005
-9.8386
-9.97344
-10.1045
-10.2316
-10.3546
-10.4734
-10.5879
-10.6978
-10.8032
-10.9038
-10.9995
-11.0902
-11.1758
-11.2562
-11.3312
-11.4008
-11.4649
-11.5234
-11.5763
-11.6234
-11.6648
-11.7003
-11.7299
-11.7536
-11.7713
-11.7829
-8.62634
-8.77091
-8.91264
-9.05105
-9.18604
-9.31754
-9.44543
-9.56959
-9.68987
-9.80615
-9.91829
-10.0262
-10.1296
-10.2286
-10.3228
-10.4123
-10.497
-10.5766
-10.6512
-10.7205
-10.7847
-10.8434
-10.8968
-10.9447
-10.9871
-11.0239
-11.055
-11.0804
-11.1001
-11.114
-8.04116
-8.18108
-8.31838
-8.45262
-8.58366
-8.71143
-8.83579
-8.95661
-9.07377
-9.18711
-9.29653
-9.40189
-9.50305
-9.59991
-9.69233
-9.78021
-9.86345
-9.94194
-10.0156
-10.0843
-10.148
-10.2066
-10.26
-10.3083
-10.3512
-10.3888
-10.421
-10.4478
-10.469
-10.4848
-7.50566
-7.6408
-7.7735
-7.90334
-8.0302
-8.15397
-8.27453
-8.39175
-8.50548
-8.61561
-8.72199
-8.82452
-8.92306
-9.0175
-9.10772
-9.19362
-9.2751
-9.35205
-9.42439
-9.49204
-9.5549
-9.61292
-9.66602
-9.71414
-9.75722
-9.79521
-9.82806
-9.85573
-9.87818
-9.89538
-7.01721
-7.14752
-7.27555
-7.4009
-7.52345
-7.64309
-7.7597
-7.87313
-7.98327
-8.08997
-8.19312
-8.2926
-8.38828
-8.48005
-8.56781
-8.65144
-8.73087
-8.80598
-8.8767
-8.94295
-9.00464
-9.06171
-9.1141
-9.16174
-9.20458
-9.24258
-9.27568
-9.30384
-9.32703
-9.34525
-6.57251
-6.69804
-6.82141
-6.94227
-7.06048
-7.17595
-7.28854
-7.39813
-7.50457
-7.60774
-7.70753
-7.80382
-7.89648
-7.98542
-8.07053
-8.15171
-8.22886
-8.30191
-8.37076
-8.43534
-8.49559
-8.55143
-8.6028
-8.64965
-8.69193
-8.72958
-8.76258
-8.79087
-8.81444
-8.83327
-6.16797
-6.28882
-6.40762
-6.52405
-6.63798
-6.7493
-6.85789
-6.96362
-7.06635
-7.16597
-7.26235
-7.35538
-7.44495
-7.53096
-7.61331
-7.69189
-7.76664
-7.83745
-7.90426
-7.967
-8.02559
-8.07997
-8.13009
-8.1759
-8.21734
-8.25438
-8.28698
-8.3151
-8.33872
-8.35783
-5.79994
-5.91626
-6.03062
-6.14273
-6.25247
-6.35974
-6.46441
-6.56633
-6.6654
-6.76148
-6.85447
-6.94424
-7.0307
-7.11374
-7.19327
-7.2692
-7.34145
-7.40994
-7.47459
-7.53535
-7.59214
-7.64491
-7.6936
-7.73818
-7.77858
-7.81479
-7.84675
-7.87445
-7.89785
-7.91696
-5.46488
-5.57683
-5.68691
-5.79486
-5.90055
-6.00389
-6.10474
-6.20297
-6.29846
-6.39108
-6.48072
-6.56728
-6.65065
-6.73074
-6.80746
-6.88072
-6.95044
-7.01656
-7.079
-7.13769
-7.1926
-7.24365
-7.2908
-7.334
-7.37322
-7.40842
-7.43958
-7.46665
-7.48963
-7.50851
-5.15942
-5.26719
-5.37317
-5.47713
-5.57894
-5.6785
-5.77568
-5.87034
-5.96237
-6.05163
-6.13803
-6.22145
-6.3018
-6.37898
-6.45292
-6.52353
-6.59074
-6.65448
-6.71469
-6.7713
-6.82427
-6.87354
-6.91907
-6.96082
-6.99876
-7.03284
-7.06305
-7.08936
-7.11175
-7.13023
-4.88046
-4.98423
-5.08631
-5.18646
-5.28458
-5.38054
-5.47421
-5.56545
-5.65415
-5.74018
-5.82344
-5.90382
-5.98124
-6.0556
-6.12683
-6.19485
-6.25958
-6.32097
-6.37896
-6.43349
-6.48452
-6.53199
-6.57587
-6.61612
-6.6527
-6.6856
-6.71478
-6.74022
-6.76191
-6.77986
-4.62515
-4.72513
-4.8235
-4.92005
-5.01465
-5.10719
-5.19752
-5.28551
-5.37103
-5.45397
-5.53422
-5.61169
-5.68628
-5.75791
-5.82651
-5.892
-5.95433
-6.01343
-6.06924
-6.12172
-6.17083
-6.21651
-6.25873
-6.29746
-6.33267
-6.36434
-6.39243
-6.41695
-6.43786
-6.45518
-4.39096
-4.48733
-4.58218
-4.67532
-4.76661
-4.85591
-4.94308
-5.02798
-5.11048
-5.19048
-5.26786
-5.34253
-5.41441
-5.48342
-5.54949
-5.61255
-5.67255
-5.72942
-5.78312
-5.83361
-5.88083
-5.92475
-5.96534
-6.00256
-6.0364
-6.06682
-6.09381
-6.11735
-6.13743
-6.15407
-4.17557
-4.26851
-4.36005
-4.44998
-4.53815
-4.62441
-4.7086
-4.79057
-4.87022
-4.94741
-5.02206
-5.09407
-5.16336
-5.22986
-5.29351
-5.35424
-5.412
-5.46673
-5.51839
-5.56694
-5.61233
-5.65454
-5.69353
-5.72928
-5.76175
-5.79094
-5.81682
-5.83938
-5.85861
-5.87453
-3.97697
-4.06663
-4.15506
-4.24198
-4.32723
-4.41063
-4.49202
-4.57124
-4.64818
-4.72272
-4.79477
-4.86425
-4.93107
-4.99518
-5.05652
-5.11501
-5.17063
-5.22331
-5.27301
-5.3197
-5.36334
-5.40389
-5.44134
-5.47565
-5.5068
-5.53477
-5.55956
-5.58114
-5.59952
-5.6147
-3.79332
-3.87987
-3.96538
-4.04951
-4.13204
-4.21277
-4.29152
-4.36815
-4.44253
-4.51455
-4.58414
-4.65121
-4.7157
-4.77753
-4.83666
-4.89303
-4.9466
-4.99732
-5.04515
-5.09006
-5.13202
-5.17099
-5.20694
-5.23987
-5.26974
-5.29654
-5.32026
-5.34089
-5.35842
-5.37287
-3.623
-3.7066
-3.78942
-3.87097
-3.95096
-4.0292
-4.10549
-4.17967
-4.25163
-4.32128
-4.38854
-4.45332
-4.51558
-4.57525
-4.63229
-4.68664
-4.73826
-4.78712
-4.83317
-4.87638
-4.91673
-4.95419
-4.98872
-5.02032
-5.04896
-5.07464
-5.09733
-5.11703
-5.13374
-5.14746
-3.46453
-3.54534
-3.62573
-3.70492
-3.78259
-3.85851
-3.93249
-4.00437
-4.07405
-4.14145
-4.20649
-4.26911
-4.32925
-4.38687
-4.44192
-4.49435
-4.54413
-4.59121
-4.63557
-4.67718
-4.716
-4.75202
-4.7852
-4.81554
-4.84301
-4.8676
-4.8893
-4.90812
-4.92403
-4.93705
-3.31656
-3.39477
-3.47303
-3.55012
-3.62565
-3.69943
-3.77124
-3.84096
-3.90848
-3.97375
-4.03669
-4.09726
-4.1554
-4.21107
-4.26424
-4.31485
-4.36288
-4.40829
-4.45104
-4.49112
-4.5285
-4.56315
-4.59505
-4.62419
-4.65055
-4.67411
-4.69488
-4.71284
-4.72799
-4.74035
-3.17782
-3.25371
-3.33027
-3.4055
-3.4791
-3.55089
-3.62068
-3.68834
-3.75382
-3.81706
-3.87802
-3.93663
-3.99288
-4.04671
-4.09809
-4.14698
-4.19335
-4.23717
-4.27841
-4.31705
-4.35306
-4.38642
-4.41711
-4.44511
-4.47041
-4.49301
-4.51288
-4.53004
-4.54446
-4.55618
-3.04714
-3.12139
-3.19678
-3.2704
-3.34223
-3.41218
-3.48005
-3.54576
-3.60929
-3.67059
-3.72964
-3.7864
-3.84083
-3.8929
-3.94258
-3.98983
-4.03463
-4.07694
-4.11674
-4.154
-4.18871
-4.22084
-4.25037
-4.2773
-4.3016
-4.32326
-4.34229
-4.35867
-4.3724
-4.3835
-2.92258
-2.99667
-3.07177
-3.14398
-3.21418
-3.28239
-3.34842
-3.41225
-3.47391
-3.53336
-3.59059
-3.64558
-3.69828
-3.74868
-3.79674
-3.84244
-3.88574
-3.92662
-3.96505
-4.00102
-4.03449
-4.06546
-4.0939
-4.1198
-4.14315
-4.16394
-4.18216
-4.19781
-4.21088
-4.22139
-2.79907
-2.87504
-2.9514
-3.02265
-3.09145
-3.15812
-3.2225
-3.28464
-3.34461
-3.40241
-3.45803
-3.51143
-3.56261
-3.61154
-3.65818
-3.70251
-3.7445
-3.78414
-3.82139
-3.85623
-3.88865
-3.91862
-3.94613
-3.97116
-3.99371
-4.01375
-4.0313
-4.04634
-4.05887
-4.0689
-2.67261
-2.75251
-2.83226
-2.90351
-2.9714
-3.03687
-3.09992
-3.1607
-3.2193
-3.27574
-3.33003
-3.38215
-3.43208
-3.47979
-3.52526
-3.56847
-3.6094
-3.64801
-3.6843
-3.71823
-3.74979
-3.77897
-3.80574
-3.8301
-3.85203
-3.87152
-3.88858
-3.90319
-3.91535
-3.92508
-2.57538
-2.66395
-2.74465
-2.815
-2.88123
-2.9446
-3.00548
-3.06407
-3.12048
-3.17474
-3.22686
-3.27682
-3.32461
-3.37022
-3.41362
-3.45481
-3.49375
-3.53045
-3.56486
-3.59699
-3.62682
-3.65433
-3.67951
-3.70236
-3.72286
-3.74101
-3.7568
-3.77024
-3.78132
-3.79006
-0.41209
-0.453772
-0.49872
-0.547175
-0.599617
-0.656538
-0.718474
-0.786051
-0.860004
-0.941192
-1.03062
-1.12944
-1.23904
-1.361
-1.49719
-1.64975
-1.8212
-2.01441
-2.23267
-2.47973
-2.75978
-3.07745
-3.43771
-3.84575
-4.307
-4.82697
-5.40669
-6.03972
-6.77978
-7.73137
-0.481007
-0.52504
-0.571627
-0.621926
-0.676404
-0.73547
-0.799661
-0.86962
-0.946093
-1.02995
-1.1222
-1.22403
-1.33682
-1.46218
-1.60198
-1.7584
-1.93396
-2.13156
-2.35449
-2.60652
-2.89184
-3.21506
-3.58113
-3.99519
-4.46255
-4.98858
-5.57409
-6.21216
-6.95532
-7.90603
-0.550755
-0.597179
-0.645432
-0.697609
-0.75416
-0.81541
-0.881896
-0.95428
-1.03332
-1.11989
-1.21502
-1.31991
-1.43595
-1.56477
-1.70825
-1.86859
-2.04833
-2.25038
-2.47807
-2.73514
-3.0258
-3.35464
-3.72658
-4.14668
-4.62015
-5.15215
-5.74321
-6.38589
-7.13144
-8.0805
-0.621274
-0.670129
-0.720072
-0.774157
-0.832817
-0.896287
-0.965106
-1.03995
-1.1216
-1.21093
-1.30899
-1.41698
-1.53631
-1.66863
-1.81585
-1.98016
-2.16414
-2.3707
-2.60319
-2.86536
-3.1614
-3.49591
-3.87375
-4.29992
-4.77948
-5.31742
-5.91397
-6.56128
-7.30988
-8.25931
-0.692518
-0.743838
-0.795494
-0.85152
-0.912322
-0.978047
-1.04923
-1.12658
-1.21087
-1.303
-1.40402
-1.51516
-1.63784
-1.77371
-1.92471
-2.09306
-2.28132
-2.49245
-2.72978
-2.9971
-3.29859
-3.6388
-4.02258
-4.45483
-4.9405
-5.48438
-6.08643
-6.73849
-7.49055
-8.44148
-0.764438
-0.818253
-0.871642
-0.929638
-0.992616
-1.06063
-1.13422
-1.2141
-1.30108
-1.39605
-1.50008
-1.6144
-1.74047
-1.87994
-2.03477
-2.20719
-2.39979
-2.61554
-2.85778
-3.13029
-3.43726
-3.78322
-4.17297
-4.61134
-5.10314
-5.65299
-6.26058
-6.91743
-7.67314
-8.62607
-0.836984
-0.893317
-0.948459
-1.00845
-1.07364
-1.14397
-1.22
-1.30246
-1.39215
-1.48999
-1.59707
-1.71462
-1.84412
-1.98724
-2.14594
-2.32248
-2.51947
-2.73988
-2.98707
-3.26483
-3.57732
-3.92908
-4.32483
-4.76934
-5.2673
-5.82314
-6.43631
-7.09801
-7.85748
-8.8127
-0.910106
-0.968976
-1.02589
-1.08791
-1.15533
-1.22802
-1.30651
-1.39157
-1.48401
-1.58476
-1.69492
-1.81575
-1.94871
-2.09551
-2.25813
-2.43884
-2.64026
-2.86537
-3.11756
-3.4006
-3.71867
-4.07625
-4.47804
-4.92872
-5.43286
-5.99471
-6.61349
-7.28008
-8.0434
-9.0011
-0.983756
-1.04518
-1.10387
-1.16795
-1.23764
-1.3127
-1.39369
-1.48138
-1.5766
-1.6803
-1.79357
-1.91769
-2.05416
-2.20468
-2.37125
-2.55617
-2.76206
-2.99192
-3.24914
-3.53751
-3.86118
-4.22462
-4.63248
-5.08935
-5.59969
-6.16758
-6.79198
-7.4635
-8.23072
-9.191
-1.05789
-1.12187
-1.18235
-1.24851
-1.3205
-1.39796
-1.48148
-1.57182
-1.66985
-1.77652
-1.89293
-2.02039
-2.16039
-2.31467
-2.48523
-2.67438
-2.88478
-3.11942
-3.38172
-3.67545
-4.00475
-4.37408
-4.78803
-5.25111
-5.76766
-6.34159
-6.97163
-7.64809
-8.41923
-9.38215
-1.13246
-1.19899
-1.26128
-1.32955
-1.40385
-1.48374
-1.5698
-1.66283
-1.76369
-1.87335
-1.99294
-2.12375
-2.26732
-2.42538
-2.59996
-2.79338
-3.00831
-3.24778
-3.51517
-3.81429
-4.14926
-4.5245
-4.94455
-5.41386
-5.93663
-6.51659
-7.15227
-7.83367
-8.60874
-9.57432
-1.20742
-1.27651
-1.34061
-1.411
-1.48764
-1.56998
-1.6586
-1.75434
-1.85805
-1.97073
-2.09351
-2.22771
-2.37485
-2.53672
-2.71535
-2.91307
-3.13257
-3.37687
-3.6494
-3.95392
-4.29458
-4.67574
-5.10192
-5.57746
-6.10644
-6.69244
-7.33374
-8.02005
-8.79904
-9.7673
-1.28274
-1.35437
-1.42028
-1.49281
-1.57181
-1.65662
-1.74782
-1.84628
-1.95286
-2.06857
-2.19456
-2.33216
-2.48292
-2.64861
-2.8313
-3.03335
-3.25743
-3.5066
-3.78427
-4.09423
-4.44058
-4.82769
-5.25999
-5.74175
-6.27694
-6.86896
-7.51586
-8.20706
-8.98994
-9.96086
-1.35839
-1.43254
-1.50026
-1.57495
-1.65632
-1.7436
-1.8374
-1.93858
-2.04805
-2.16681
-2.29602
-2.43703
-2.59141
-2.76095
-2.94772
-3.1541
-3.38279
-3.63684
-3.91968
-4.23508
-4.58714
-4.98019
-5.41862
-5.9066
-6.44798
-7.04598
-7.69844
-8.39449
-9.18123
-10.1548
-1.43433
-1.51098
-1.58049
-1.65735
-1.74111
-1.83088
-1.92727
-2.03119
-2.14355
-2.26536
-2.3978
-2.54223
-2.70024
-2.87364
-3.06451
-3.27524
-3.50854
-3.76748
-4.05549
-4.37635
-4.73413
-5.13312
-5.57766
-6.07183
-6.61937
-7.22333
-7.88131
-8.58216
-9.37271
-10.3489
-1.51055
-1.58966
-1.66095
-1.73999
-1.82613
-1.91838
-2.01737
-2.12403
-2.23928
-2.36414
-2.49981
-2.64768
-2.80932
-2.98658
-3.18155
-3.39663
-3.63456
-3.8984
-4.19159
-4.5179
-4.88138
-5.28631
-5.73695
-6.2373
-6.79097
-7.40083
-8.06427
-8.76987
-9.56418
-10.543
-1.58705
-1.66856
-1.74161
-1.82282
-1.91133
-2.00606
-2.10764
-2.21703
-2.33516
-2.46307
-2.60197
-2.75326
-2.91854
-3.09966
-3.29873
-3.51817
-3.76072
-4.02946
-4.32783
-4.65959
-5.02878
-5.43962
-5.89634
-6.40283
-6.96259
-7.5783
-8.24715
-8.95742
-9.75544
-10.7369
-1.66382
-1.74766
-1.82243
-1.90579
-1.99667
-2.09386
-2.19801
-2.31011
-2.43111
-2.56206
-2.70418
-2.85888
-3.02779
-3.21277
-3.41594
-3.63974
-3.88691
-4.16055
-4.46408
-4.80128
-5.17616
-5.5929
-6.05566
-6.56826
-7.13405
-7.75556
-8.42975
-9.14462
-9.94628
-10.9303
-1.74087
-1.82696
-1.90338
-1.98888
-2.0821
-2.18171
-2.2884
-2.40319
-2.52704
-2.66101
-2.80633
-2.96444
-3.13697
-3.32579
-3.53305
-3.7612
-4.01298
-4.29151
-4.60021
-4.94283
-5.32337
-5.74599
-6.21476
-6.73342
-7.30518
-7.93242
-8.61187
-9.33127
-10.1365
-11.1231
-1.81823
-1.90644
-1.98445
-2.07203
-2.16754
-2.26953
-2.37873
-2.49618
-2.62284
-2.7598
-2.90831
-3.06981
-3.24594
-3.4386
-3.64994
-3.88242
-4.13881
-4.42221
-4.73605
-5.08408
-5.47026
-5.89871