/*--------------------------------*- C++ -*----------------------------------*\
  =========                 |
  \\      /  F ield         | OpenFOAM: The Open Source CFD Toolbox
   \\    /   O peration     | Website:  https://openfoam.org
    \\  /    A nd           | Version:  6.0
     \\/     M anipulation  |
\*---------------------------------------------------------------------------*/
FoamFile
{
    version     2.0;
    format      ascii;
    class       volVectorField;
    location    "24";
    object      U;
}
// * * * * * * * * * * * * * * * * * * * * * * * * * * * * * * * * * * * * * //

dimensions      [0 1 -1 0 0 0 0];

internalField   nonuniform List<vector> 
19200
(
(0.098661 -4.7468 -4.82278e-21)
(0.0609276 -4.33739 2.32352e-21)
(0.0668213 -4.00217 1.0708e-21)
(0.0817842 -3.72797 9.38579e-22)
(0.0994757 -3.50329 1.04372e-21)
(0.121357 -3.31842 7.51624e-23)
(0.146847 -3.16546 1.81625e-22)
(0.175018 -3.03799 -9.74474e-23)
(0.205165 -2.93085 1.27969e-21)
(0.236697 -2.83991 5.3812e-22)
(0.269094 -2.76185 7.46795e-24)
(0.301915 -2.69399 8.47946e-22)
(0.33479 -2.63423 1.38781e-21)
(0.36741 -2.58088 -9.39418e-22)
(0.399528 -2.53257 1.21628e-21)
(0.430942 -2.48824 1.05215e-21)
(0.461495 -2.44703 -9.8315e-22)
(0.491066 -2.40826 1.6879e-21)
(0.519567 -2.3714 -1.06688e-21)
(0.546935 -2.33601 5.41923e-22)
(0.573133 -2.30174 7.57617e-22)
(0.59814 -2.26832 -2.3913e-22)
(0.621949 -2.23553 3.24207e-22)
(0.64457 -2.20316 -3.77482e-22)
(0.666017 -2.17106 8.3771e-22)
(0.686313 -2.13906 2.02901e-22)
(0.705481 -2.10701 -1.2809e-22)
(0.72355 -2.07478 8.42723e-23)
(0.740547 -2.04219 1.85788e-22)
(0.756464 -2.00905 7.18888e-22)
(0.223195 -4.74429 -1.12801e-21)
(0.175406 -4.3412 7.2312e-21)
(0.173213 -4.01124 -3.78149e-21)
(0.181799 -3.74184 -5.12215e-21)
(0.194485 -3.52156 -2.29094e-21)
(0.212418 -3.34056 -1.6487e-21)
(0.234768 -3.19092 -3.31532e-21)
(0.26041 -3.06624 4.41663e-22)
(0.288485 -2.9614 -7.60876e-22)
(0.318281 -2.87228 -2.63512e-21)
(0.349183 -2.7956 -6.60225e-21)
(0.380678 -2.72875 3.23015e-21)
(0.412339 -2.66964 -1.18616e-21)
(0.443817 -2.61663 4.50013e-22)
(0.474831 -2.5684 -2.79843e-21)
(0.505156 -2.52391 -1.03582e-21)
(0.53462 -2.48235 1.18245e-22)
(0.563089 -2.44306 3.52685e-21)
(0.590469 -2.40553 -1.84691e-21)
(0.616692 -2.36936 -1.02942e-21)
(0.64172 -2.33422 -4.02663e-21)
(0.66553 -2.29986 1.03524e-21)
(0.68812 -2.26607 -6.61633e-22)
(0.709499 -2.23267 1.16217e-21)
(0.729685 -2.1995 -1.42884e-21)
(0.748702 -2.16642 -8.23062e-22)
(0.766576 -2.13328 2.72152e-22)
(0.783341 -2.09993 4.07283e-22)
(0.799046 -2.06621 -7.40696e-22)
(0.813649 -2.03191 3.65148e-22)
(0.34741 -4.73893 -5.59696e-22)
(0.289853 -4.34242 1.67789e-21)
(0.279968 -4.018 2.39625e-21)
(0.282507 -3.75364 1.8192e-20)
(0.290451 -3.53792 -1.04763e-20)
(0.30465 -3.36092 9.60142e-21)
(0.32403 -3.21467 -8.56472e-21)
(0.347275 -3.09282 4.54861e-21)
(0.373377 -2.99028 -4.41144e-21)
(0.401505 -2.90296 -5.1834e-22)
(0.430956 -2.82763 1.11241e-20)
(0.461144 -2.76173 1.87283e-21)
(0.491591 -2.70322 -5.08417e-21)
(0.521907 -2.6505 4.0441e-21)
(0.551783 -2.60228 -5.0896e-23)
(0.580974 -2.55758 1.73049e-21)
(0.609291 -2.5156 1.29764e-21)
(0.636594 -2.47574 4.25725e-21)
(0.662782 -2.4375 -1.89687e-21)
(0.687786 -2.40051 -6.28225e-22)
(0.711565 -2.36447 -1.66014e-21)
(0.7341 -2.32914 7.2692e-21)
(0.75539 -2.29434 -6.05007e-21)
(0.775447 -2.25989 2.01118e-21)
(0.794293 -2.22565 4.51234e-21)
(0.811955 -2.1915 -3.65016e-21)
(0.82846 -2.15728 4.9035e-21)
(0.84385 -2.12284 -5.51266e-22)
(0.858191 -2.08802 -5.58486e-22)
(0.871407 -2.0526 -3.70324e-21)
(0.471466 -4.73058 -1.82854e-20)
(0.404424 -4.34108 -1.59408e-20)
(0.387145 -4.02247 -1.94754e-20)
(0.383921 -3.76336 7.12201e-22)
(0.38737 -3.55237 1.1256e-21)
(0.398038 -3.37944 -2.17753e-20)
(0.414613 -3.23665 -1.08456e-20)
(0.43559 -3.11765 2.77194e-21)
(0.459813 -3.01738 -4.71831e-22)
(0.486338 -2.93183 4.84241e-21)
(0.514374 -2.85782 -1.94144e-20)
(0.543268 -2.79282 -1.22317e-20)
(0.572493 -2.73485 4.52945e-21)
(0.601623 -2.68236 9.11144e-21)
(0.630322 -2.6341 -1.06344e-20)
(0.658326 -2.58913 -1.70529e-21)
(0.685436 -2.54669 -6.30173e-21)
(0.711504 -2.5062 -3.02603e-21)
(0.736426 -2.4672 5.02065e-21)
(0.760131 -2.42936 -6.48549e-21)
(0.782582 -2.39239 5.58462e-21)
(0.803761 -2.35607 -6.66088e-21)
(0.823671 -2.32024 -5.2967e-21)
(0.842327 -2.28474 -3.73972e-21)
(0.859756 -2.24945 4.35331e-21)
(0.875988 -2.21423 -7.77552e-21)
(0.891053 -2.17895 7.90857e-22)
(0.904999 -2.14346 1.39949e-21)
(0.917911 -2.10758 -4.05804e-21)
(0.929671 -2.07109 8.10556e-22)
(0.595327 -4.71916 -1.11478e-20)
(0.519126 -4.33711 1.50273e-21)
(0.494748 -4.02462 1.36898e-20)
(0.486035 -3.77097 1.444e-20)
(0.485228 -3.56483 1.02624e-20)
(0.492566 -3.39607 4.18725e-21)
(0.506496 -3.25676 2.59532e-21)
(0.525327 -3.14061 3.03445e-20)
(0.547761 -3.04261 -1.81619e-20)
(0.572741 -2.9588 4.88969e-22)
(0.599391 -2.88605 4.36199e-21)
(0.626999 -2.8219 1.90835e-20)
(0.654988 -2.76441 -1.3113e-20)
(0.6829 -2.71209 9.47633e-21)
(0.710376 -2.66373 -1.06346e-20)
(0.737137 -2.61843 1.81332e-20)
(0.762974 -2.57548 -5.43007e-21)
(0.787734 -2.53432 1.70954e-22)
(0.811312 -2.49454 8.79941e-21)
(0.83364 -2.45581 6.12582e-21)
(0.85468 -2.41788 -6.28875e-21)
(0.874422 -2.38057 8.52208e-21)
(0.892871 -2.3437 -3.93812e-21)
(0.910048 -2.30716 4.49464e-21)
(0.925985 -2.27081 4.94962e-21)
(0.940715 -2.23455 2.17981e-21)
(0.954272 -2.19824 6.66636e-21)
(0.966709 -2.16173 -2.33992e-21)
(0.97813 -2.12484 -8.46386e-22)
(0.988373 -2.08735 -3.7219e-21)
(0.718932 -4.70468 -8.23604e-21)
(0.633926 -4.3305 -5.29635e-21)
(0.602759 -4.02441 -1.58616e-20)
(0.588831 -3.77642 -4.09621e-20)
(0.584005 -3.57525 1.37859e-20)
(0.588209 -3.41072 8.73733e-22)
(0.599651 -3.27493 1.69272e-22)
(0.616455 -3.16162 2.02064e-21)
(0.637181 -3.06586 -1.27518e-21)
(0.660666 -2.98374 -2.43432e-20)
(0.685955 -2.9122 1.02917e-20)
(0.712275 -2.84884 1.77835e-20)
(0.739008 -2.79179 1.11089e-22)
(0.765666 -2.73957 6.68775e-21)
(0.791868 -2.69106 1.65413e-20)
(0.817324 -2.64538 -1.13578e-20)
(0.841818 -2.60187 2.01601e-20)
(0.865195 -2.56001 -9.57953e-21)
(0.88735 -2.51941 1.72866e-20)
(0.908217 -2.47977 -1.28843e-20)
(0.927765 -2.44088 5.83449e-21)
(0.945988 -2.40255 1.53383e-20)
(0.962896 -2.36465 9.03998e-22)
(0.978518 -2.32707 -1.41216e-20)
(0.99289 -2.28969 7.86065e-21)
(1.00605 -2.25241 2.44304e-21)
(1.01803 -2.2151 -2.52541e-21)
(1.0289 -2.17762 9.85875e-21)
(1.03878 -2.13977 3.43378e-21)
(1.04745 -2.10134 -3.25197e-21)
(0.842211 -4.68712 2.29724e-20)
(0.748782 -4.32122 -9.12266e-22)
(0.711144 -4.0218 -3.28149e-20)
(0.692281 -3.77964 6.48659e-21)
(0.683675 -3.58356 -9.21106e-21)
(0.68494 -3.42332 6.6693e-21)
(0.694043 -3.29104 -3.0963e-21)
(0.708932 -3.18057 2.74201e-20)
(0.728026 -3.08702 -2.9756e-20)
(0.750062 -3.00655 7.30474e-21)
(0.774007 -2.93617 -5.18041e-21)
(0.799033 -2.87354 3.85903e-21)
(0.824483 -2.81685 -1.68315e-20)
(0.849843 -2.76469 -9.93852e-22)
(0.874715 -2.71597 2.77581e-20)
(0.8988 -2.66987 -1.90387e-20)
(0.921878 -2.62576 -1.20214e-20)
(0.943792 -2.58316 -8.83646e-21)
(0.964441 -2.54171 1.63414e-20)
(0.983766 -2.50115 3.56381e-21)
(1.00174 -2.46128 -1.60294e-20)
(1.01836 -2.42195 2.16355e-20)
(1.03365 -2.38303 -1.94344e-20)
(1.04764 -2.34442 1.30476e-20)
(1.06038 -2.30604 -7.30171e-21)
(1.0719 -2.26777 2.32502e-21)
(1.08225 -2.22951 3.63994e-21)
(1.0915 -2.19111 -1.60852e-20)
(1.09978 -2.15235 7.00861e-21)
(1.10683 -2.11305 1.59079e-22)
(0.965091 -4.66648 -2.29455e-20)
(0.863641 -4.30924 1.83847e-20)
(0.819866 -4.01676 -3.4129e-20)
(0.796352 -3.78059 6.50024e-20)
(0.784205 -3.58968 -1.82407e-20)
(0.78272 -3.43377 2.60929e-20)
(0.789634 -3.30503 2.08366e-20)
(0.802712 -3.19736 -3.45122e-21)
(0.820245 -3.10598 -5.40983e-21)
(0.840869 -3.02711 -1.12447e-22)
(0.86348 -2.95783 -2.10182e-20)
(0.887199 -2.89588 1.08078e-20)
(0.911334 -2.83949 -1.33232e-20)
(0.935347 -2.78733 -1.03822e-21)
(0.958829 -2.73836 -3.76751e-20)
(0.981472 -2.6918 1.22527e-20)
(1.00306 -2.64705 7.29763e-21)
(1.02343 -2.60369 -8.0874e-21)
(1.04249 -2.56137 -9.26898e-22)
(1.06018 -2.51988 -1.27738e-20)
(1.0765 -2.47903 -4.62467e-21)
(1.09144 -2.43869 4.55017e-22)
(1.10504 -2.39877 -1.12918e-20)
(1.11733 -2.35917 -1.67637e-20)
(1.12836 -2.31981 6.81768e-22)
(1.13819 -2.2806 2.52014e-21)
(1.14685 -2.24143 5.34685e-21)
(1.15442 -2.20215 -1.32456e-20)
(1.16106 -2.16256 1.12951e-20)
(1.16644 -2.12246 -2.14256e-20)
(1.0875 -4.64277 -5.81401e-20)
(0.978449 -4.29454 6.89335e-20)
(0.928881 -4.00923 -7.30249e-20)
(0.901005 -3.7792 -1.94779e-20)
(0.885554 -3.59355 -1.2777e-20)
(0.88151 -3.44199 -1.36869e-20)
(0.886375 -3.31678 -3.1634e-20)
(0.897745 -3.2119 -2.67947e-21)
(0.91378 -3.12264 -1.26986e-20)
(0.933023 -3.04531 -3.17909e-21)
(0.954303 -2.97708 2.19957e-20)
(0.976694 -2.91574 -1.25786e-20)
(0.999475 -2.85961 -1.53346e-20)
(1.02209 -2.8074 -2.59449e-20)
(1.04411 -2.75812 5.45898e-20)
(1.06524 -2.71106 -2.12392e-20)
(1.08525 -2.66565 7.9142e-21)
(1.104 -2.6215 -2.96941e-20)
(1.12138 -2.57831 1.12598e-20)
(1.13737 -2.53588 -4.79242e-21)
(1.15195 -2.49406 5.86419e-21)
(1.16513 -2.45273 -2.24802e-21)
(1.17695 -2.41182 1.91441e-20)
(1.18747 -2.37126 -6.85491e-21)
(1.19674 -2.33096 1.87528e-20)
(1.20481 -2.29086 -3.83379e-20)
(1.21173 -2.25083 2.45896e-20)
(1.21759 -2.21075 6.79708e-21)
(1.22255 -2.17039 1.28953e-20)
(1.22624 -2.12957 -3.90593e-20)
(1.20936 -4.61598 9.22565e-20)
(1.09315 -4.27711 -1.74581e-20)
(1.03814 -3.99919 3.09651e-20)
(1.0062 -3.77543 -9.12719e-21)
(0.98768 -3.59508 3.16467e-20)
(0.981262 -3.44791 3.01834e-20)
(0.984217 -3.32621 1.48653e-20)
(0.993972 -3.22408 -5.47538e-21)
(1.00856 -3.13689 -3.34079e-20)
(1.02645 -3.06105 4.90736e-20)
(1.0464 -2.9938 -3.98099e-21)
(1.06744 -2.93302 3.53765e-20)
(1.08882 -2.87709 1.28797e-20)
(1.10997 -2.82478 4.6552e-21)
(1.13047 -2.77516 7.97888e-21)
(1.15001 -2.72756 1.05347e-20)
(1.16836 -2.68147 1.784e-20)
(1.1854 -2.63652 -5.16777e-21)
(1.20103 -2.59245 2.6459e-20)
(1.21522 -2.54909 1.23717e-20)
(1.22797 -2.50631 -2.58983e-20)
(1.23932 -2.46402 4.59268e-20)
(1.2493 -2.42215 -6.09725e-20)
(1.25799 -2.38066 5.81535e-20)
(1.26543 -2.33947 -1.93067e-20)
(1.27169 -2.29852 -7.92192e-21)
(1.27682 -2.25771 -2.17749e-21)
(1.28092 -2.21689 1.43398e-20)
(1.28418 -2.17582 5.24769e-21)
(1.28613 -2.13437 -6.21637e-21)
(1.3306 -4.58613 -5.36667e-20)
(1.20768 -4.25691 5.1748e-20)
(1.14759 -3.98658 -1.40887e-20)
(1.11187 -3.7692 4.07467e-20)
(1.09053 -3.59422 3.82345e-21)
(1.08192 -3.45143 9.06426e-21)
(1.0831 -3.33322 -7.03443e-20)
(1.09133 -3.23379 3.3437e-20)
(1.10453 -3.14862 4.58744e-20)
(1.12108 -3.07422 3.57017e-20)
(1.13968 -3.00789 -6.0578e-20)
(1.15933 -2.94761 3.56421e-20)
(1.17926 -2.89183 -3.57889e-20)
(1.1989 -2.83938 2.51971e-20)
(1.2178 -2.78939 -4.17177e-20)
(1.23566 -2.74122 -3.15087e-20)
(1.25228 -2.69443 1.91206e-21)
(1.26752 -2.64867 -1.47202e-20)
(1.2813 -2.60373 2.62525e-20)
(1.29362 -2.55945 1.03418e-20)
(1.30447 -2.51573 -6.85404e-21)
(1.31391 -2.4725 -2.11657e-21)
(1.32198 -2.42972 8.24932e-21)
(1.32876 -2.38734 -2.73485e-20)
(1.33433 -2.34532 4.63447e-20)
(1.33873 -2.30359 -1.12016e-20)
(1.34204 -2.26205 -1.94067e-20)
(1.34435 -2.22056 4.09189e-20)
(1.34587 -2.17887 5.59723e-21)
(1.34608 -2.13688 -5.49006e-21)
(1.45115 -4.55323 1.36685e-21)
(1.32198 -4.23395 -2.87753e-20)
(1.25718 -3.97137 -2.70569e-20)
(1.21799 -3.76046 -4.38355e-20)
(1.19406 -3.59089 1.10733e-21)
(1.18343 -3.45248 -3.20198e-20)
(1.18296 -3.33773 3.78928e-20)
(1.18974 -3.24096 -1.85701e-20)
(1.2016 -3.15775 3.18147e-20)
(1.21681 -3.08471 -2.57335e-20)
(1.23405 -3.01926 -1.36622e-20)
(1.25228 -2.95942 7.44119e-21)
(1.27072 -2.90374 4.0335e-21)
(1.28876 -2.8511 -4.21383e-20)
(1.30599 -2.80071 2.50927e-20)
(1.3221 -2.75197 -1.28421e-20)
(1.33689 -2.70446 3.58821e-20)
(1.35024 -2.6579 -1.19661e-20)
(1.3621 -2.61209 1.2729e-20)
(1.37246 -2.5669 3.03966e-21)
(1.38134 -2.52227 2.16287e-20)
(1.38879 -2.47815 -4.42832e-21)
(1.39489 -2.4345 3.58523e-20)
(1.39971 -2.39129 -3.97617e-20)
(1.40334 -2.34849 -1.34373e-20)
(1.40585 -2.30603 1.1157e-20)
(1.40729 -2.26384 -1.05098e-21)
(1.40779 -2.22176 -3.09571e-20)
(1.40755 -2.17954 1.6088e-20)
(1.406 -2.13709 -1.82189e-20)
(1.57092 -4.51728 9.24741e-20)
(1.43598 -4.20819 2.53172e-20)
(1.36685 -3.95352 2.94405e-20)
(1.32448 -3.74916 4.07467e-20)
(1.29819 -3.58502 6.07217e-20)
(1.28573 -3.45097 -1.42554e-21)
(1.28373 -3.33964 8.62502e-21)
(1.28914 -3.24547 1.05501e-19)
(1.29968 -3.16417 3.07233e-20)
(1.31357 -3.09244 -2.57632e-20)
(1.32943 -3.02779 4.63855e-20)
(1.3462 -2.96835 8.07548e-21)
(1.36307 -2.91273 6.44411e-22)
(1.37945 -2.85988 1.11718e-20)
(1.39492 -2.80905 2.05621e-20)
(1.4092 -2.75972 -4.26133e-20)
(1.42208 -2.71149 3.64356e-20)
(1.43347 -2.66413 6.38151e-21)
(1.44332 -2.61747 3.61274e-20)
(1.45164 -2.57142 -1.93623e-20)
(1.45846 -2.52591 3.27249e-20)
(1.46386 -2.48093 -3.46992e-20)
(1.46792 -2.43646 3.39281e-20)
(1.47073 -2.39248 4.79099e-21)
(1.47238 -2.34896 -2.27278e-20)
(1.47295 -2.30586 -7.53954e-21)
(1.4725 -2.26309 4.44249e-20)
(1.47115 -2.2205 -6.62459e-21)
(1.46915 -2.17782 8.75626e-21)
(1.46583 -2.13501 -5.81725e-21)
(1.68985 -4.4783 9.94609e-21)
(1.54963 -4.17962 2.2297e-20)
(1.47654 -3.933 8.88206e-20)
(1.43129 -3.73525 -1.44546e-19)
(1.40288 -3.57654 -1.4359e-20)
(1.38875 -3.44683 -1.52737e-20)
(1.38533 -3.33887 7.07929e-21)
(1.38944 -3.24725 1.01549e-20)
(1.3987 -3.16778 2.43547e-20)
(1.41126 -3.0973 -4.30551e-20)
(1.42571 -3.0334 -8.67848e-21)
(1.44096 -2.97431 2.49825e-20)
(1.4562 -2.9187 2.72375e-20)
(1.47085 -2.86561 -2.6742e-20)
(1.4845 -2.81434 -2.67575e-20)
(1.49685 -2.76441 4.35758e-20)
(1.50773 -2.71547 2.89879e-20)
(1.51707 -2.66733 -7.02837e-21)
(1.52483 -2.61985 -1.84346e-20)
(1.53103 -2.57295 3.66597e-21)
(1.53573 -2.52662 -4.34752e-20)
(1.53902 -2.48083 5.29728e-20)
(1.54098 -2.43559 -3.6229e-20)
(1.54172 -2.3909 -1.56336e-21)
(1.54135 -2.34674 2.4353e-20)
(1.53994 -2.30307 -7.48605e-21)
(1.53757 -2.2598 -2.28226e-20)
(1.53438 -2.21678 3.62342e-21)
(1.53059 -2.17375 -8.15688e-22)
(1.5255 -2.13068 4.81124e-21)
(1.80786 -4.43629 -6.77594e-21)
(1.66285 -4.14823 -2.25877e-20)
(1.58618 -3.90976 -1.0333e-19)
(1.53835 -3.71866 3.72102e-20)
(1.50804 -3.56538 -1.14094e-20)
(1.4924 -3.43997 3.82333e-20)
(1.48768 -3.33533 3.04502e-21)
(1.49055 -3.24619 -4.40578e-20)
(1.49855 -3.1685 4.30868e-21)
(1.50978 -3.0992 -6.1153e-20)
(1.52278 -3.03601 -2.59718e-21)
(1.53646 -2.97722 1.53224e-20)
(1.55002 -2.9216 -2.60251e-20)
(1.56286 -2.86824 3.04803e-20)
(1.57458 -2.81651 -5.78183e-20)
(1.58493 -2.76598 -1.32757e-20)
(1.59373 -2.71635 3.55452e-20)
(1.60093 -2.66744 1.54126e-22)
(1.60652 -2.61917 -2.27237e-20)
(1.61053 -2.57147 6.23209e-20)
(1.61304 -2.52435 -3.35009e-20)
(1.61415 -2.47782 -4.50963e-20)
(1.61395 -2.43188 1.50337e-20)
(1.61258 -2.38655 -4.42422e-20)
(1.61015 -2.34182 -1.0749e-20)
(1.60674 -2.29765 -1.3602e-21)
(1.60243 -2.25397 -2.93272e-20)
(1.59737 -2.21063 3.50728e-20)
(1.59181 -2.16732 -1.25034e-20)
(1.58496 -2.12409 2.15072e-20)
(1.92487 -4.39128 -3.44369e-20)
(1.77557 -4.11401 -9.34851e-20)
(1.6957 -3.88378 4.54365e-20)
(1.6456 -3.69935 -4.39524e-20)
(1.61361 -3.55149 -3.1902e-20)
(1.59663 -3.43033 -1.86888e-20)
(1.5907 -3.32895 -6.953e-20)
(1.59238 -3.24222 4.75212e-20)
(1.59914 -3.16624 -8.61175e-20)
(1.60901 -3.09807 -1.20372e-19)
(1.62053 -3.03552 1.54797e-20)
(1.63259 -2.977 2.6219e-20)
(1.64438 -2.92133 -3.78032e-22)
(1.65534 -2.86769 -5.05899e-20)
(1.66506 -2.8155 1.19551e-20)
(1.67331 -2.76438 -4.69334e-20)
(1.67996 -2.71407 -3.3853e-20)
(1.68494 -2.66444 -2.05414e-20)
(1.68828 -2.61541 -4.11696e-21)
(1.69003 -2.56696 3.51694e-20)
(1.69028 -2.51911 5.0449e-20)
(1.68914 -2.47188 -1.52217e-20)
(1.68674 -2.42531 -1.49716e-20)
(1.68322 -2.37942 2.8843e-20)
(1.67868 -2.3342 1.59567e-20)
(1.67325 -2.28962 -1.27724e-20)
(1.66698 -2.24563 -1.44003e-20)
(1.66005 -2.20204 1.6535e-21)
(1.65272 -2.15857 1.28276e-20)
(1.64412 -2.11528 -1.93592e-20)
(2.0408 -4.34329 -6.49007e-21)
(1.88772 -4.07695 1.20137e-19)
(1.80504 -3.85502 9.29735e-20)
(1.75295 -3.67728 7.20175e-20)
(1.71951 -3.53478 -4.7024e-20)
(1.70134 -3.41783 -9.33549e-21)
(1.69429 -3.31964 8.17634e-21)
(1.69484 -3.23526 6.1222e-20)
(1.70036 -3.16092 2.30214e-20)
(1.70886 -3.09381 3.52659e-20)
(1.71885 -3.03187 -7.91979e-20)
(1.72922 -2.97357 7.88958e-21)
(1.73918 -2.91783 3.24095e-20)
(1.74817 -2.8639 2.02909e-20)
(1.75581 -2.81126 4.23419e-20)
(1.76189 -2.75956 -2.88924e-20)
(1.76629 -2.7086 -2.68981e-20)
(1.76898 -2.65827 4.99914e-21)
(1.76999 -2.60853 5.82421e-20)
(1.7694 -2.55939 -9.39138e-20)
(1.76733 -2.51087 3.27745e-20)
(1.7639 -2.46302 -2.00839e-22)
(1.75925 -2.41589 6.26426e-20)
(1.75353 -2.36951 -2.70021e-20)
(1.74686 -2.32388 -1.47444e-21)
(1.73937 -2.27899 -1.74625e-20)
(1.73115 -2.23477 -1.53586e-20)
(1.72234 -2.19105 3.2581e-21)
(1.71324 -2.1475 -3.81787e-20)
(1.70291 -2.10426 5.88737e-20)
(2.15559 -4.29233 -1.28289e-19)
(1.99923 -4.03703 -7.34483e-20)
(1.91413 -3.82345 -1.87883e-19)
(1.86034 -3.65238 -8.59645e-20)
(1.82567 -3.51522 8.02921e-20)
(1.80644 -3.4024 -4.75296e-20)
(1.79837 -3.30732 -1.2112e-20)
(1.79782 -3.22522 -3.17158e-20)
(1.8021 -3.15246 5.43964e-20)
(1.8092 -3.08637 -5.06412e-20)
(1.81762 -3.02498 5.67803e-21)
(1.82624 -2.96687 -2.42717e-21)
(1.8343 -2.91106 -8.15551e-20)
(1.84123 -2.85683 -3.58162e-21)
(1.84671 -2.80374 2.1599e-20)
(1.85053 -2.75149 -2.69998e-21)
(1.8526 -2.69991 -8.54499e-20)
(1.85292 -2.64893 8.33978e-20)
(1.85153 -2.59853 -8.23287e-20)
(1.84855 -2.54875 3.22737e-20)
(1.84409 -2.49962 4.59943e-21)
(1.83831 -2.45123 1.75511e-21)
(1.83137 -2.40361 -3.44311e-20)
(1.82341 -2.35682 3.46792e-20)
(1.81459 -2.31088 -1.47569e-20)
(1.80503 -2.26576 1.62098e-20)
(1.79482 -2.22142 -8.70383e-20)
(1.78414 -2.17766 2.35515e-20)
(1.77329 -2.13415 2.53611e-20)
(1.76126 -2.09106 2.66062e-20)
(2.26915 -4.23842 2.51979e-19)
(2.11002 -3.99425 8.50079e-20)
(2.02288 -3.78905 5.00473e-20)
(1.9677 -3.62462 7.90466e-20)
(1.93199 -3.49274 -9.73115e-21)
(1.91185 -3.38398 6.02291e-20)
(1.90283 -3.29194 1.34097e-19)
(1.90121 -3.21204 -1.67908e-20)
(1.90425 -3.14079 8.16098e-21)
(1.90992 -3.07566 1.60421e-19)
(1.91671 -3.01478 1.50241e-19)
(1.92352 -2.95685 2.27874e-20)
(1.92959 -2.90094 -8.47532e-21)
(1.9344 -2.84643 -1.05452e-21)
(1.93763 -2.7929 1.18201e-19)
(1.93911 -2.74013 4.51579e-21)
(1.93878 -2.68797 1.26795e-19)
(1.93665 -2.63638 -1.57294e-20)
(1.9328 -2.58539 -2.77102e-20)
(1.92735 -2.53503 6.4781e-20)
(1.92046 -2.48537 -5.92704e-20)
(1.91228 -2.4365 -6.40851e-20)
(1.90299 -2.38848 -5.53713e-21)
(1.89277 -2.34137 -2.86254e-20)
(1.88176 -2.29519 4.37895e-20)
(1.87012 -2.24995 5.25526e-21)
(1.85793 -2.20557 -1.84669e-20)
(1.84538 -2.16189 9.92072e-21)
(1.8328 -2.11852 6.59409e-20)
(1.81909 -2.07571 9.55651e-21)
(2.3814 -4.18158 -4.34159e-20)
(2.22003 -3.94861 -8.6313e-20)
(2.13123 -3.75178 3.59672e-20)
(2.07493 -3.59397 -1.42843e-19)
(2.03839 -3.46729 6.82912e-20)
(2.01746 -3.3625 -1.25079e-19)
(2.00757 -3.27343 -8.26831e-20)
(2.00491 -3.19565 2.31992e-20)
(2.0067 -3.12585 2.32789e-20)
(2.0109 -3.06162 -1.11562e-19)
(2.016 -3.00123 1.69078e-20)
(2.02093 -2.94345 1.9392e-20)
(2.02494 -2.88744 -6.19606e-20)
(2.02754 -2.83265 -2.47711e-20)
(2.02845 -2.77872 -1.66953e-20)
(2.02751 -2.72545 -1.67235e-20)
(2.0247 -2.67276 -7.09327e-20)
(2.02005 -2.62063 -4.45402e-20)
(2.01367 -2.56909 -9.87087e-21)
(2.00571 -2.51823 3.64823e-20)
(1.99632 -2.46811 4.97586e-20)
(1.9857 -2.41883 -5.42016e-20)
(1.97404 -2.37049 2.04995e-20)
(1.96151 -2.32314 -4.21946e-20)
(1.9483 -2.27683 3.99598e-20)
(1.93455 -2.23155 -5.24148e-20)
(1.92037 -2.18725 1.65622e-20)
(1.90595 -2.14375 -2.58159e-20)
(1.89166 -2.10063 -3.68153e-20)
(1.87631 -2.05822 -3.48668e-21)
(2.49227 -4.12185 -9.28993e-20)
(2.32917 -3.90011 -7.89154e-20)
(2.2391 -3.71164 -7.70151e-20)
(2.18196 -3.56037 -5.74628e-20)
(2.14478 -3.43882 1.76202e-19)
(2.12319 -3.33792 2.49502e-20)
(2.11248 -3.25172 7.58339e-20)
(2.10879 -3.17598 1.16317e-19)
(2.10932 -3.10757 5.61842e-20)
(2.11201 -3.0442 -7.46724e-20)
(2.11537 -2.98427 1.21043e-19)
(2.11834 -2.92663 3.49784e-20)
(2.12022 -2.87053 1.11682e-19)
(2.12053 -2.81547 1.33608e-20)
(2.11903 -2.76116 2.86589e-20)
(2.1156 -2.70745 9.50306e-21)
(2.11024 -2.65428 2.14094e-22)
(2.10301 -2.60166 -3.42743e-21)
(2.09405 -2.54965 1.56954e-20)
(2.08351 -2.49834 5.2649e-20)
(2.07159 -2.44784 -5.88125e-20)
(2.05848 -2.39825 4.70005e-20)
(2.0444 -2.34966 1.908e-21)
(2.02954 -2.30215 2.13945e-20)
(2.01409 -2.25579 3.91987e-20)
(1.99822 -2.21057 -6.63095e-21)
(1.98205 -2.16645 3.88068e-20)
(1.96578 -2.12324 5.63297e-20)
(1.94979 -2.0805 -6.10653e-20)
(1.93284 -2.0386 -3.51302e-20)
(2.60169 -4.05925 2.73956e-19)
(2.43738 -3.84874 -2.95953e-20)
(2.34642 -3.6686 6.03532e-20)
(2.28872 -3.52381 1.10331e-19)
(2.25108 -3.40727 -3.18444e-19)
(2.22892 -3.31017 3.47971e-20)
(2.21745 -3.22675 -1.21589e-19)
(2.21274 -3.15299 1.22532e-19)
(2.21198 -3.0859 -9.74175e-20)
(2.21311 -3.02336 5.25949e-20)
(2.21467 -2.96385 -1.91433e-19)
(2.21562 -2.90635 6.64221e-21)
(2.21528 -2.85016 -2.11454e-19)
(2.21324 -2.79486 9.67988e-20)
(2.20926 -2.74022 4.94037e-20)
(2.20327 -2.68611 7.61102e-20)
(2.19529 -2.63251 -8.37466e-20)
(2.18542 -2.57947 -7.12469e-21)
(2.17381 -2.52706 7.12239e-21)
(2.16065 -2.47539 1.86874e-20)
(2.14615 -2.42458 -1.05587e-19)
(2.13053 -2.37474 -3.2429e-21)
(2.11399 -2.32598 -5.91554e-20)
(2.09677 -2.27841 -1.37338e-20)
(2.07907 -2.23207 -3.62969e-20)
(2.06106 -2.187 -3.97423e-20)
(2.04287 -2.14316 -4.1534e-20)
(2.02474 -2.10036 6.86988e-20)
(2.00708 -2.05812 1.85239e-20)
(1.98857 -2.01687 -3.41911e-20)
(2.70957 -3.9938 -1.82859e-19)
(2.54457 -3.79453 6.53682e-20)
(2.45311 -3.62265 -1.11557e-19)
(2.3951 -3.48423 1.63887e-20)
(2.35718 -3.37262 1.8209e-19)
(2.33456 -3.2792 -9.22642e-20)
(2.32236 -3.19847 -9.81632e-20)
(2.31663 -3.12661 -8.30626e-20)
(2.31455 -3.0608 3.76613e-21)
(2.31408 -2.99904 5.3522e-20)
(2.31377 -2.93995 -3.90408e-20)
(2.31263 -2.88258 1.47353e-21)
(2.31001 -2.82632 8.97637e-20)
(2.30553 -2.77082 5.57874e-20)
(2.299 -2.71588 1.63811e-20)
(2.29038 -2.66142 -5.03769e-20)
(2.27972 -2.60747 1.92899e-20)
(2.26716 -2.55407 4.16205e-20)
(2.25286 -2.50133 4.76518e-20)
(2.23705 -2.44938 -5.21009e-20)
(2.21993 -2.39833 7.34966e-21)
(2.20175 -2.34833 4.48347e-20)
(2.18274 -2.29948 7.77725e-20)
(2.16313 -2.25191 2.08427e-20)
(2.14314 -2.20568 -8.05837e-20)
(2.12296 -2.16084 9.38639e-20)
(2.10276 -2.11738 -4.7016e-20)
(2.08277 -2.07509 -5.63039e-20)
(2.06344 -2.03347 -3.45284e-20)
(2.04341 -1.993 -4.43512e-20)
(2.81584 -3.92554 9.81543e-20)
(2.65069 -3.73747 -7.55434e-20)
(2.5591 -3.57378 2.87791e-20)
(2.50105 -3.44161 1.52941e-19)
(2.46298 -3.3348 4.18594e-20)
(2.43998 -3.24497 -3.56622e-20)
(2.42709 -3.16684 8.64101e-20)
(2.42034 -3.09681 1.99678e-20)
(2.41691 -3.03222 8.26369e-20)
(2.41478 -2.97122 4.54759e-20)
(2.41255 -2.91253 2.18176e-21)
(2.40924 -2.8553 2.88515e-20)
(2.40427 -2.799 -9.09662e-21)
(2.39728 -2.74333 -8.17127e-20)
(2.38814 -2.68814 -1.14487e-20)
(2.37683 -2.6334 -2.45617e-20)
(2.36344 -2.57915 6.10961e-20)
(2.34813 -2.52548 6.21118e-20)
(2.33111 -2.47249 -7.07927e-20)
(2.31259 -2.42033 7.28569e-20)
(2.29283 -2.36913 1.5518e-19)
(2.27207 -2.31903 -1.00365e-19)
(2.25056 -2.27016 1.01269e-19)
(2.22853 -2.22265 -7.07847e-20)
(2.20623 -2.1766 -1.01362e-20)
(2.18387 -2.13206 7.65655e-20)
(2.16161 -2.08905 -1.54687e-20)
(2.13974 -2.04738 5.75918e-20)
(2.11876 -2.00651 5.73765e-20)
(2.09725 -1.96697 -1.07185e-19)
(2.92045 -3.85451 -9.48759e-20)
(2.75568 -3.67759 4.33456e-20)
(2.66433 -3.52196 1.76483e-20)
(2.60646 -3.39592 -1.80016e-19)
(2.56839 -3.29378 -9.3528e-20)
(2.54508 -3.20742 7.05071e-20)
(2.53152 -3.13181 -1.96616e-19)
(2.52373 -3.06354 2.38233e-19)
(2.51891 -3.00014 -1.33871e-19)
(2.51508 -2.93987 1.59152e-20)
(2.51085 -2.88158 -2.50762e-20)
(2.50531 -2.8245 -7.72343e-20)
(2.49792 -2.76819 1.60347e-19)
(2.48836 -2.7124 6.09591e-20)
(2.47654 -2.65702 7.87147e-20)
(2.46248 -2.60206 1.86867e-21)
(2.44632 -2.54759 3.54628e-20)
(2.42823 -2.49371 -7.6571e-20)
(2.40845 -2.44056 1.63449e-20)
(2.38721 -2.38827 5.33668e-20)
(2.36479 -2.33698 -2.19819e-20)
(2.34143 -2.28686 3.68572e-20)
(2.31739 -2.23804 -7.25054e-20)
(2.29294 -2.19066 1.05355e-19)
(2.2683 -2.14482 2.47964e-20)
(2.24372 -2.10063 -6.67933e-20)
(2.21938 -2.05814 -5.79588e-20)
(2.1956 -2.01717 1.91943e-22)
(2.17294 -1.97715 8.0243e-20)
(2.14997 -1.93869 -1.80995e-20)
(3.02333 -3.78073 -2.60069e-20)
(2.85949 -3.61488 -1.82064e-19)
(2.76875 -3.46718 2.16596e-19)
(2.71125 -3.34712 1.46909e-19)
(2.6733 -3.24952 1.47199e-19)
(2.64973 -3.16652 4.15278e-20)
(2.63551 -3.09334 6.20013e-20)
(2.62667 -3.02678 3.19347e-20)
(2.62042 -2.96452 -1.25814e-19)
(2.61483 -2.90497 2.30875e-19)
(2.60854 -2.84708 -1.87187e-19)
(2.60071 -2.79018 -1.23478e-20)
(2.59082 -2.7339 2.75899e-20)
(2.57863 -2.67803 -1.22175e-19)
(2.56408 -2.62253 1.9223e-19)
(2.54724 -2.56742 3.69766e-20)
(2.52826 -2.51281 -8.23658e-20)
(2.50736 -2.45881 3.19901e-20)
(2.48479 -2.40557 -6.13306e-20)
(2.46082 -2.35323 -5.4216e-20)
(2.43572 -2.30195 -5.82046e-20)
(2.40976 -2.25187 1.32078e-20)
(2.3832 -2.20315 7.77629e-21)
(2.3563 -2.15593 -1.43199e-19)
(2.32932 -2.11035 -5.46088e-20)
(2.30249 -2.06653 3.51739e-20)
(2.27601 -2.02456 4.37544e-20)
(2.25026 -1.98434 -6.02986e-20)
(2.22588 -1.94527 -2.30029e-20)
(2.20145 -1.90803 2.1656e-21)
(3.12446 -3.70422 -2.26786e-20)
(2.96211 -3.54936 1.17841e-19)
(2.87228 -3.40941 -3.3299e-20)
(2.81533 -3.29516 -4.07746e-20)
(2.77758 -3.20197 -2.29533e-19)
(2.75379 -3.12223 -5.04998e-20)
(2.73892 -3.0514 9.66261e-20)
(2.729 -2.98649 -6.3732e-20)
(2.72129 -2.92535 -6.78429e-21)
(2.71388 -2.86651 -1.25387e-20)
(2.70548 -2.80904 7.08716e-20)
(2.69529 -2.75235 -1.12281e-19)
(2.68286 -2.69613 -7.53553e-20)
(2.66798 -2.64025 8.8583e-20)
(2.65065 -2.58469 -5.06418e-20)
(2.63097 -2.52952 2.40636e-20)
(2.60914 -2.47485 4.70092e-21)
(2.58542 -2.42082 -2.04954e-20)
(2.56006 -2.36758 7.73703e-20)
(2.53335 -2.31527 -7.09162e-20)
(2.50558 -2.26407 -5.74353e-20)
(2.47703 -2.21411 4.99375e-20)
(2.44795 -2.16554 -5.59359e-21)
(2.41862 -2.11852 -3.74938e-20)
(2.38928 -2.07319 3.30056e-20)
(2.36018 -2.02971 -1.03071e-19)
(2.33153 -1.98826 6.28237e-20)
(2.30373 -1.94876 -9.75498e-22)
(2.27757 -1.91068 -6.57329e-20)
(2.25167 -1.87473 9.30564e-20)
(3.22394 -3.62506 9.4203e-20)
(3.06356 -3.48103 -2.33256e-19)
(2.97487 -3.34861 -1.94702e-20)
(2.91859 -3.24 1.09225e-19)
(2.8811 -3.15108 -2.83736e-20)
(2.85712 -3.07451 -7.98235e-20)
(2.8416 -3.00597 3.75926e-20)
(2.83059 -2.94267 4.34313e-20)
(2.82138 -2.88262 3.74113e-21)
(2.81209 -2.82449 5.34886e-20)
(2.80152 -2.76745 1.71019e-19)
(2.78892 -2.71101 -6.0139e-20)
(2.77388 -2.65492 1.56272e-20)
(2.75626 -2.59909 -4.06258e-20)
(2.73611 -2.54355 1.55966e-19)
(2.71357 -2.4884 -2.80026e-20)
(2.68887 -2.43376 4.25349e-20)
(2.6623 -2.37979 -7.09506e-20)
(2.63415 -2.32663 3.89105e-20)
(2.60472 -2.27446 5.88195e-20)
(2.5743 -2.22341 1.00832e-20)
(2.54318 -2.17363 3.96201e-20)
(2.51163 -2.12527 -3.28125e-20)
(2.4799 -2.07848 9.14441e-20)
(2.44823 -2.03339 -3.73912e-20)
(2.41686 -1.99021 1.37098e-19)
(2.386 -1.94915 -3.95687e-20)
(2.35608 -1.91026 2.72943e-20)
(2.32803 -1.87305 -5.14912e-20)
(2.30067 -1.83842 9.08809e-20)
(3.32213 -3.54337 -2.08109e-19)
(3.16396 -3.40983 7.38535e-21)
(3.07643 -3.28468 -1.20524e-19)
(3.02088 -3.18155 2.1999e-20)
(2.9837 -3.09682 6.08157e-21)
(2.95957 -3.02334 -1.06745e-19)
(2.9434 -2.95704 -2.00499e-19)
(2.93128 -2.89531 1.0026e-19)
(2.92052 -2.83633 -1.42207e-19)
(2.90932 -2.77892 -7.51622e-20)
(2.89652 -2.72234 -4.29217e-20)
(2.88144 -2.66619 -3.46822e-20)
(2.86374 -2.61028 9.99537e-22)
(2.84335 -2.55457 -1.23365e-19)
(2.82034 -2.49914 8.13819e-20)
(2.79491 -2.4441 -1.33224e-19)
(2.76734 -2.38959 -3.37186e-20)
(2.73792 -2.33577 3.89595e-20)
(2.70699 -2.28281 -1.52113e-20)
(2.67486 -2.23086 4.62694e-20)
(2.64182 -2.18006 3.54229e-20)
(2.60819 -2.13055 -8.87779e-20)
(2.57421 -2.08246 8.96456e-20)
(2.54015 -2.03592 -9.52956e-21)
(2.50622 -1.99106 -2.40725e-20)
(2.47264 -1.94807 -9.53728e-20)
(2.43956 -1.90718 -5.06322e-20)
(2.40739 -1.86849 9.37302e-20)
(2.37715 -1.83166 -3.06272e-20)
(2.34806 -1.7984 -2.96629e-20)
(3.41947 -3.45881 9.05151e-20)
(3.26332 -3.33534 8.01134e-21)
(3.1768 -3.2174 -2.38554e-20)
(3.12199 -3.11976 -5.17436e-21)
(3.08521 -3.03917 -4.29845e-20)
(3.06098 -2.96873 1.44242e-19)
(3.04418 -2.90461 -6.80176e-20)
(3.03093 -2.84442 4.44132e-20)
(3.01859 -2.78651 1.84708e-20)
(3.00542 -2.72982 6.68453e-20)
(2.99034 -2.67374 -2.59683e-20)
(2.97274 -2.61792 1.46349e-19)
(2.95233 -2.56226 -1.26577e-20)
(2.92912 -2.50676 9.53506e-20)
(2.90322 -2.45153 -1.6019e-19)
(2.87489 -2.39669 -1.22866e-20)
(2.84443 -2.34241 1.03854e-19)
(2.81218 -2.28886 -6.44664e-20)
(2.77848 -2.2362 2.65214e-20)
(2.74368 -2.18458 4.54556e-20)
(2.70808 -2.13414 -6.69751e-20)
(2.672 -2.08499 7.36178e-20)
(2.6357 -2.03726 -6.92579e-20)
(2.59944 -1.99104 1.51655e-20)
(2.56343 -1.94644 5.60001e-20)
(2.52786 -1.90358 3.87802e-20)
(2.49286 -1.86257 3.68445e-20)
(2.45863 -1.8234 2.70929e-20)
(2.42572 -1.78612 -7.31396e-20)
(2.39377 -1.75376 -2.91968e-20)
(5.01187 -0.029058 1.33892e-21)
(5.00436 -0.160881 1.3267e-20)
(4.99373 -0.29174 4.60538e-20)
(4.97995 -0.421915 2.51791e-20)
(4.96282 -0.551464 -5.32406e-20)
(4.94227 -0.680352 1.61231e-20)
(4.9183 -0.808513 -1.68864e-20)
(4.89094 -0.935868 -4.26424e-20)
(4.86021 -1.06233 2.20897e-20)
(4.82614 -1.18781 -2.5896e-20)
(4.78878 -1.31222 -2.61175e-20)
(4.74815 -1.43548 -5.51796e-20)
(4.70431 -1.55749 -1.57999e-19)
(4.65729 -1.67819 1.46366e-20)
(4.60713 -1.79747 -7.1068e-21)
(4.55389 -1.91527 -4.92511e-20)
(4.49761 -2.0315 1.05536e-19)
(4.43835 -2.14609 5.71782e-20)
(4.37615 -2.25897 1.09276e-19)
(4.31107 -2.37006 5.32995e-20)
(4.24317 -2.47929 -1.19244e-19)
(4.17251 -2.58659 4.80346e-21)
(4.09914 -2.69189 -2.24653e-19)
(4.02313 -2.79514 3.40771e-19)
(3.94453 -2.89628 -1.1166e-19)
(3.86342 -2.99524 -1.43754e-19)
(3.77987 -3.09199 -2.01331e-20)
(3.69394 -3.18651 -1.17553e-21)
(3.60575 -3.27885 -1.07674e-19)
(3.51524 -3.36942 1.91582e-19)
(5.03714 -0.0582848 5.29724e-21)
(5.02394 -0.190199 7.82397e-21)