/*--------------------------------*- C++ -*----------------------------------*\
  =========                 |
  \\      /  F ield         | OpenFOAM: The Open Source CFD Toolbox
   \\    /   O peration     | Website:  https://openfoam.org
    \\  /    A nd           | Version:  6.0
     \\/     M anipulation  |
\*---------------------------------------------------------------------------*/
FoamFile
{
    version     2.0;
    format      ascii;
    class       volVectorField;
    location    "6.24975";
    object      U;
}
// * * * * * * * * * * * * * * * * * * * * * * * * * * * * * * * * * * * * * //

dimensions      [0 1 -1 0 0 0 0];

internalField   nonuniform List<vector> 
19200
(
(0.270216 -9.68343 -1.91006e-20)
(0.122656 -9.1964 9.07233e-21)
(0.127933 -8.7985 4.20866e-21)
(0.150922 -8.46719 3.73285e-21)
(0.168058 -8.18443 4.12785e-21)
(0.187097 -7.93572 2.52516e-22)
(0.207925 -7.71055 6.72417e-22)
(0.229035 -7.50153 -4.21408e-22)
(0.249716 -7.30352 4.97884e-21)
(0.269551 -7.11313 2.0572e-21)
(0.28824 -6.92817 1.09884e-23)
(0.305601 -6.74736 3.21663e-21)
(0.321552 -6.57001 5.23899e-21)
(0.336078 -6.39583 -3.53691e-21)
(0.349216 -6.22479 4.47157e-21)
(0.361037 -6.05699 3.81212e-21)
(0.371636 -5.89264 -3.57696e-21)
(0.381118 -5.73196 6.03913e-21)
(0.389598 -5.57514 -3.83369e-21)
(0.397191 -5.42236 1.9043e-21)
(0.404007 -5.27376 2.64539e-21)
(0.410157 -5.12939 -8.55683e-22)
(0.415739 -4.98927 1.15011e-21)
(0.420848 -4.85334 -1.32625e-21)
(0.425564 -4.72149 2.87553e-21)
(0.429956 -4.59354 6.80833e-22)
(0.434073 -4.46928 -4.56868e-22)
(0.437979 -4.34846 2.73223e-22)
(0.441765 -4.23079 6.40953e-22)
(0.445202 -4.11599 2.39621e-21)
(0.523552 -9.67509 -4.29519e-21)
(0.364287 -9.1984 2.77739e-20)
(0.35954 -8.80593 -1.4682e-20)
(0.374136 -8.47845 -1.99294e-20)
(0.384144 -8.19866 -8.94386e-21)
(0.396898 -7.95197 -6.34911e-21)
(0.41199 -7.728 -1.2817e-20)
(0.42772 -7.51949 1.74812e-21)
(0.443245 -7.32148 -2.82852e-21)
(0.458067 -7.13068 -9.95516e-21)
(0.47184 -6.94503 -2.45467e-20)
(0.484357 -6.76333 1.18479e-20)
(0.495525 -6.58497 -4.41299e-21)
(0.505332 -6.40971 1.66515e-21)
(0.513823 -6.23757 -9.94045e-21)
(0.521077 -6.06871 -3.60649e-21)
(0.527199 -5.90335 4.18815e-22)
(0.532304 -5.74171 1.20746e-20)
(0.536516 -5.58403 -6.37085e-21)
(0.539956 -5.43048 -3.50921e-21)
(0.542742 -5.2812 -1.35369e-20)
(0.544984 -5.13625 3.46241e-21)
(0.546786 -4.99564 -2.148e-21)
(0.548239 -4.85932 3.7785e-21)
(0.549425 -4.72716 -4.70586e-21)
(0.550405 -4.59897 -2.68327e-21)
(0.551224 -4.47452 8.80297e-22)
(0.551949 -4.35355 1.34297e-21)
(0.552707 -4.23574 -2.38318e-21)
(0.553166 -4.12077 1.10286e-21)
(0.776674 -9.66069 -2.02855e-21)
(0.605822 -9.19435 5.68625e-21)
(0.591431 -8.80742 9.02442e-21)
(0.597929 -8.48395 6.92028e-20)
(0.601002 -8.2073 -3.97709e-20)
(0.607598 -7.96278 3.62062e-20)
(0.61703 -7.74011 -3.22482e-20)
(0.627413 -7.53223 1.71359e-20)
(0.637785 -7.33431 -1.6093e-20)
(0.647574 -7.14319 -1.60385e-21)
(0.656393 -6.95694 3.99906e-20)
(0.664016 -6.77445 6.57908e-21)
(0.670347 -6.59517 -1.82075e-20)
(0.675379 -6.41895 1.42269e-20)
(0.679163 -6.24584 9.65777e-24)
(0.681794 -6.07603 5.95279e-21)
(0.683385 -5.90976 4.24309e-21)
(0.684065 -5.7473 1.41223e-20)
(0.683964 -5.58887 -6.23549e-21)
(0.683212 -5.43466 -2.04248e-21)
(0.681932 -5.28481 -5.27754e-21)
(0.680238 -5.1394 2.32569e-20)
(0.678235 -4.99843 -1.93421e-20)
(0.676015 -4.86182 6.261e-21)
(0.673655 -4.72946 1.42706e-20)
(0.671213 -4.60115 -1.15554e-20)
(0.668727 -4.47663 1.5353e-20)
(0.666268 -4.35563 -1.65578e-21)
(0.663994 -4.23778 -1.72076e-21)
(0.661458 -4.12276 -1.11722e-20)
(1.02931 -9.63997 -6.86544e-20)
(0.847198 -9.1842 -5.96794e-20)
(0.823487 -8.80303 -7.26064e-20)
(0.822158 -8.48375 2.23836e-21)
(0.818492 -8.21038 4.42314e-21)
(0.819056 -7.96814 -8.03754e-20)
(0.822902 -7.74687 -3.96327e-20)
(0.827971 -7.53971 1.02899e-20)
(0.833193 -7.34197 -1.80306e-21)
(0.837929 -7.15063 1.72868e-20)
(0.841756 -6.96388 -6.80979e-20)
(0.844439 -6.78069 -4.18873e-20)
(0.84588 -6.60061 1.56481e-20)
(0.84608 -6.42353 3.05193e-20)
(0.845103 -6.24956 -3.53531e-20)
(0.843056 -6.07892 -5.49196e-21)
(0.840067 -5.91187 -2.05691e-20)
(0.836275 -5.7487 -9.60336e-21)
(0.831821 -5.58964 1.5997e-20)
(0.826841 -5.4349 -2.03666e-20)
(0.821465 -5.28461 1.75731e-20)
(0.81581 -5.13885 -2.07818e-20)
(0.809982 -4.99762 -1.61962e-20)
(0.804072 -4.86085 -1.15236e-20)
(0.798157 -4.7284 1.3298e-20)
(0.792288 -4.60008 -2.3489e-20)
(0.786493 -4.47561 2.43252e-21)
(0.780852 -4.35468 4.16296e-21)
(0.775546 -4.23691 -1.20284e-20)
(0.770008 -4.12197 2.44062e-21)
(1.28138 -9.61285 -4.06691e-20)
(1.08838 -9.16798 5.72968e-21)
(1.05563 -8.79275 5.03167e-20)
(1.04671 -8.47784 5.22231e-20)
(1.03648 -8.20788 3.73531e-20)
(1.03114 -7.96801 1.53584e-20)
(1.02947 -7.74825 9.34675e-21)
(1.02925 -7.54188 1.06754e-19)
(1.02933 -7.34441 -6.38082e-20)
(1.02899 -7.15295 1.86031e-21)
(1.02779 -6.96579 1.51833e-20)
(1.02548 -6.78201 6.43327e-20)
(1.02198 -6.60124 -4.34705e-20)
(1.0173 -6.42342 3.09472e-20)
(1.01151 -6.24871 -3.40126e-20)
(1.00473 -6.07735 5.7975e-20)
(0.997116 -5.90965 -1.70183e-20)
(0.988809 -5.74589 6.23847e-22)
(0.979963 -5.58633 2.68632e-20)
(0.970723 -5.43117 1.86246e-20)
(0.961224 -5.28056 -1.89661e-20)
(0.951587 -5.13457 2.54121e-20)
(0.941918 -4.9932 -1.14601e-20)
(0.932308 -4.85638 1.32032e-20)
(0.922831 -4.72396 1.45069e-20)
(0.913532 -4.59574 6.29876e-21)
(0.904432 -4.47143 1.9161e-20)
(0.895613 -4.35069 -6.94954e-21)
(0.887282 -4.23312 -2.32195e-21)
(0.878738 -4.11837 -1.04644e-20)
(1.53273 -9.57928 -2.94638e-20)
(1.32927 -9.14566 -1.87687e-20)
(1.28776 -8.77659 -5.67118e-20)
(1.27147 -8.46618 -1.46605e-19)
(1.25485 -8.19976 4.91909e-20)
(1.2437 -7.96238 3.14517e-21)
(1.23658 -7.7442 7.24226e-22)
(1.23112 -7.53872 6.28066e-21)
(1.22604 -7.3416 -4.7679e-21)
(1.2206 -7.15011 -8.14394e-20)
(1.21434 -6.96264 3.41721e-20)
(1.20701 -6.77838 5.80247e-20)
(1.19851 -6.59702 2.0149e-22)
(1.18889 -6.41858 2.11043e-20)
(1.17824 -6.24324 5.16089e-20)
(1.16669 -6.0713 -3.5313e-20)
(1.1544 -5.90307 6.15435e-20)
(1.14154 -5.73886 -2.91584e-20)
(1.12827 -5.57892 5.12316e-20)
(1.11474 -5.42346 -3.82793e-20)
(1.10109 -5.27265 1.69317e-20)
(1.08746 -5.12654 4.39069e-20)
(1.07393 -4.98515 2.30013e-21)
(1.06062 -4.8484 -4.03215e-20)
(1.04758 -4.71613 2.2067e-20)
(1.03485 -4.58812 6.68087e-21)
(1.02245 -4.46408 -7.10866e-21)
(1.01046 -4.34366 2.69865e-20)
(0.99912 -4.22639 9.40189e-21)
(0.987572 -4.11196 -8.93087e-21)
(1.78321 -9.53926 8.2599e-20)
(1.56974 -9.11721 -2.00464e-21)
(1.51974 -8.75452 -1.1491e-19)
(1.4963 -8.44878 2.34411e-20)
(1.47345 -8.186 -3.19982e-20)
(1.45662 -7.95119 2.36802e-20)
(1.44411 -7.73468 -1.09565e-20)
(1.43342 -7.53017 9.18145e-20)
(1.42319 -7.3335 -9.84036e-20)
(1.41263 -7.14206 2.41115e-20)
(1.40127 -6.95438 -1.64677e-20)
(1.38886 -6.76975 1.19873e-20)
(1.37533 -6.58792 -5.32502e-20)
(1.36072 -6.40898 -3.30581e-21)
(1.34516 -6.23315 8.39323e-20)
(1.32879 -6.06075 -5.77592e-20)
(1.31179 -5.89212 -3.61072e-20)
(1.29434 -5.72757 -2.58625e-20)
(1.27661 -5.56738 4.70151e-20)
(1.25877 -5.41176 9.97278e-21)
(1.24096 -5.26086 -4.55552e-20)
(1.22331 -5.11477 6.02107e-20)
(1.20592 -4.97347 -5.41901e-20)
(1.18889 -4.8369 3.55382e-20)
(1.17229 -4.70489 -2.01368e-20)
(1.15614 -4.57721 6.00127e-21)
(1.14045 -4.45356 9.58797e-21)
(1.12532 -4.33356 -4.3049e-20)
(1.11097 -4.21672 1.8427e-20)
(1.09643 -4.10272 2.84484e-22)
(2.03267 -9.4928 -8.07845e-20)
(1.80964 -9.08262 6.3775e-20)
(1.75145 -8.72652 -1.17041e-19)
(1.72107 -8.42559 2.22791e-19)
(1.69216 -8.16657 -6.20427e-20)
(1.66974 -7.93442 8.72063e-20)
(1.65191 -7.71966 6.79653e-20)
(1.63601 -7.51621 -1.22746e-20)
(1.62063 -7.32006 -1.71383e-20)
(1.60493 -7.12877 -4.03274e-23)
(1.58843 -6.94099 -6.53037e-20)
(1.5709 -6.75609 3.40994e-20)
(1.55228 -6.57392 -4.03986e-20)
(1.53265 -6.39459 -3.25822e-21)
(1.51212 -6.21839 -1.11549e-19)
(1.49089 -6.04567 3.65292e-20)
(1.46915 -5.87677 2.06981e-20)
(1.44708 -5.71202 -2.35063e-20)
(1.42487 -5.55171 -2.7744e-21)
(1.40269 -5.39605 -3.54584e-20)
(1.3807 -5.2452 -1.25853e-20)
(1.35902 -5.09923 1.02134e-21)
(1.33777 -4.95815 -3.03819e-20)
(1.31703 -4.82188 -4.47536e-20)
(1.29687 -4.69024 1.95463e-21)
(1.27731 -4.56301 6.26786e-21)
(1.25835 -4.43987 1.3892e-20)
(1.24008 -4.3204 -3.41322e-20)
(1.22276 -4.2041 2.89477e-20)
(1.20523 -4.09067 -5.31713e-20)
(2.28093 -9.4399 -1.99624e-19)
(2.04883 -9.04189 2.32926e-19)
(1.98275 -8.69258 -2.44541e-19)
(1.94565 -8.39661 -6.55388e-20)
(1.91083 -8.14144 -4.14172e-20)
(1.88293 -7.91204 -4.49537e-20)
(1.85983 -7.69911 -1.0324e-19)
(1.83875 -7.49679 -8.97944e-21)
(1.8182 -7.30125 -4.11221e-20)
(1.79734 -7.11021 -8.39453e-21)
(1.77567 -6.92243 6.73654e-20)
(1.75298 -6.73738 -3.88105e-20)
(1.72923 -6.55498 -4.50894e-20)
(1.70452 -6.3754 -7.51106e-20)
(1.679 -6.19897 1.57194e-19)
(1.65287 -6.02605 -5.99262e-20)
(1.62634 -5.85701 2.22361e-20)
(1.59962 -5.6922 -8.21837e-20)
(1.57291 -5.5319 3.16262e-20)
(1.54638 -5.37633 -1.27253e-20)
(1.52019 -5.22565 1.61724e-20)
(1.49448 -5.07994 -5.42737e-21)
(1.46936 -4.93919 4.97038e-20)
(1.44492 -4.80333 -1.75246e-20)
(1.42121 -4.67219 4.82396e-20)
(1.39825 -4.54551 -9.7971e-20)
(1.37603 -4.42299 6.23246e-20)
(1.35465 -4.30418 1.69782e-20)
(1.33438 -4.18853 3.17148e-20)
(1.3139 -4.07578 -9.38784e-20)
(2.52783 -9.3806 3.15254e-19)
(2.28714 -8.99501 -5.92631e-20)
(2.21348 -8.65269 1.0489e-19)
(2.16988 -8.3618 -2.94895e-20)
(2.12932 -8.11059 1.03514e-19)
(2.09604 -7.88401 9.70689e-20)
(2.06773 -7.67299 4.55887e-20)
(2.04148 -7.47188 -1.65864e-20)
(2.01576 -7.27705 -1.03117e-19)
(1.98971 -7.08635 1.50824e-19)
(1.96283 -6.89868 -1.11015e-20)
(1.93494 -6.71359 1.04634e-19)
(1.90602 -6.53109 3.76338e-20)
(1.87619 -6.35139 1.38778e-20)
(1.84563 -6.17486 2.14681e-20)
(1.81457 -6.00188 2.97555e-20)
(1.78323 -5.83284 4.88816e-20)
(1.75184 -5.6681 -1.38592e-20)
(1.7206 -5.50794 7.10364e-20)
(1.68971 -5.3526 3.23209e-20)
(1.65932 -5.20222 -6.7222e-20)
(1.62958 -5.05688 1.18517e-19)
(1.60059 -4.91659 -1.55656e-19)
(1.57245 -4.78126 1.46404e-19)
(1.5452 -4.65072 -4.82822e-20)
(1.51887 -4.52472 -1.96787e-20)
(1.49342 -4.40293 -4.94047e-21)
(1.46895 -4.28489 3.51758e-20)
(1.44576 -4.17 1.25068e-20)
(1.42235 -4.05807 -1.44248e-20)
(2.77321 -9.31492 -1.79285e-19)
(2.52444 -8.942 1.68542e-19)
(2.44351 -8.60684 -4.56712e-20)
(2.39363 -8.32116 1.30423e-19)
(2.34747 -8.07399 1.28853e-20)
(2.30892 -7.85032 2.70185e-20)
(2.27544 -7.64128 -2.19846e-19)
(2.24405 -7.44146 1.02359e-19)
(2.21315 -7.24742 1.39152e-19)
(2.18189 -7.05717 1.04265e-19)
(2.14977 -6.86971 -1.76947e-19)
(2.11664 -6.68471 1.02291e-19)
(2.08251 -6.50223 -1.01634e-19)
(2.04752 -6.32255 6.90512e-20)
(2.01189 -6.14605 -1.15199e-19)
(1.97587 -5.97315 -8.45921e-20)
(1.93969 -5.80426 5.57385e-21)
(1.90361 -5.63972 -3.80214e-20)
(1.86783 -5.47985 6.7942e-20)
(1.83256 -5.32485 2.68411e-20)
(1.79797 -5.1749 -1.7593e-20)
(1.76419 -5.03006 -5.07601e-21)
(1.73134 -4.89034 2.0301e-20)
(1.6995 -4.75566 -6.80093e-20)
(1.66874 -4.62584 1.12185e-19)
(1.63905 -4.50063 -2.74148e-20)
(1.61039 -4.37969 -4.63364e-20)
(1.58288 -4.26253 9.65678e-20)
(1.5568 -4.14853 1.27592e-20)
(1.53049 -4.03754 -1.2953e-20)
(3.01691 -9.24289 7.08252e-21)
(2.76056 -8.88286 -9.48909e-20)
(2.67267 -8.55502 -8.60319e-20)
(2.61674 -8.27467 -1.41597e-19)
(2.56515 -8.03163 4.93716e-21)
(2.52142 -7.81094 -9.98209e-20)
(2.48283 -7.60395 1.1813e-19)
(2.4463 -7.4055 -5.80322e-20)
(2.41022 -7.21234 9.30467e-20)
(2.37372 -7.02264 -7.74946e-20)
(2.33633 -6.83551 -3.92432e-20)
(2.29792 -6.65072 2.13102e-20)
(2.25854 -6.4684 1.14353e-20)
(2.21836 -6.28886 -1.14904e-19)
(2.17763 -6.11254 6.74809e-20)
(2.13661 -5.93987 -3.2859e-20)
(2.09558 -5.77126 9.34014e-20)
(2.05478 -5.60707 -3.04999e-20)
(2.01446 -5.44761 3.1691e-20)
(1.97481 -5.2931 7.77713e-21)
(1.936 -5.1437 5.32006e-20)
(1.89819 -4.99949 -1.09042e-20)
(1.86149 -4.86046 8.65244e-20)
(1.82598 -4.72655 -9.61621e-20)
(1.79171 -4.59756 -3.23321e-20)
(1.75869 -4.47325 2.63027e-20)
(1.72685 -4.35327 -2.78936e-21)
(1.69633 -4.23712 -7.16756e-20)
(1.66741 -4.12411 3.6637e-20)
(1.63823 -4.01419 -4.07597e-20)
(3.25875 -9.16456 3.01683e-19)
(2.99534 -8.81761 7.85254e-20)
(2.90082 -8.49724 9.37136e-20)
(2.83906 -8.22232 1.24969e-19)
(2.7822 -7.98349 1.86709e-19)
(2.73338 -7.76584 -5.66168e-21)
(2.68972 -7.56098 2.71644e-20)
(2.64808 -7.36398 3.09835e-19)
(2.60681 -7.1718 8.87387e-20)
(2.56504 -6.98274 -7.40885e-20)
(2.52235 -6.79607 1.29378e-19)
(2.47863 -6.61162 2.13849e-20)
(2.43396 -6.42958 1.15383e-21)
(2.38856 -6.25033 3.05148e-20)
(2.3427 -6.07433 5.36405e-20)
(2.29667 -5.90202 -1.09289e-19)
(2.25076 -5.73384 9.27177e-20)
(2.20524 -5.57014 1.54199e-20)
(2.16035 -5.41124 8.88955e-20)
(2.11632 -5.25735 -4.82201e-20)
(2.07331 -5.10863 7.86413e-20)
(2.03147 -4.96517 -8.32688e-20)
(1.99093 -4.82696 8.00412e-20)
(1.95176 -4.69393 1.08742e-20)
(1.91401 -4.56589 -5.33471e-20)
(1.87768 -4.4426 -1.71569e-20)
(1.84271 -4.32369 1.00813e-19)
(1.80921 -4.20865 -1.52331e-20)
(1.77749 -4.09676 1.93598e-20)
(1.7455 -3.98802 -1.25344e-20)
(3.49859 -9.07996 3.03133e-20)
(3.22863 -8.74627 6.75613e-20)
(3.1278 -8.43351 2.73637e-19)
(3.06045 -8.16411 -4.45019e-19)
(2.99846 -7.92957 -4.33137e-20)
(2.94465 -7.71502 -4.73355e-20)
(2.89597 -7.51235 2.10668e-20)
(2.84923 -7.31689 2.7384e-20)
(2.80275 -7.12578 6.84751e-20)
(2.7557 -6.93748 -1.21028e-19)
(2.70767 -6.75137 -2.27075e-20)
(2.6586 -6.56739 6.66621e-20)
(2.60862 -6.38577 7.07636e-20)
(2.55797 -6.20696 -7.08428e-20)
(2.50695 -6.03142 -6.87133e-20)
(2.45589 -5.85963 1.12104e-19)
(2.40509 -5.69202 7.207e-20)
(2.35484 -5.52896 -1.89144e-20)
(2.30539 -5.37075 -4.56152e-20)
(2.25697 -5.21761 8.06535e-21)
(2.20976 -5.06971 -1.03392e-19)
(2.16391 -4.92712 1.2394e-19)
(2.11954 -4.78985 -8.43303e-20)
(2.07673 -4.65781 -3.37559e-21)
(2.03553 -4.53083 5.49382e-20)
(1.99592 -4.40867 -1.70234e-20)
(1.95784 -4.29095 -5.10661e-20)
(1.92141 -4.17714 8.02096e-21)
(1.88695 -4.06648 -2.10103e-21)
(1.85218 -3.95906 9.81585e-21)
(3.73625 -8.98915 -2.29826e-20)
(3.46028 -8.66886 -7.12046e-20)
(3.35346 -8.36383 -3.14985e-19)
(3.28073 -8.10005 1.13249e-19)
(3.21378 -7.86985 -3.37385e-20)
(3.15507 -7.65847 1.11164e-19)
(3.10142 -7.45806 8.13176e-21)
(3.04958 -7.26422 -1.25078e-19)
(2.99789 -7.07427 9.85735e-21)
(2.94553 -6.88684 -1.68594e-19)
(2.89214 -6.70142 -6.22153e-21)
(2.8377 -6.51803 4.00269e-20)
(2.78237 -6.33698 -6.87192e-20)
(2.72644 -6.15875 7.71816e-20)
(2.67024 -5.98382 -1.46747e-19)
(2.61413 -5.81269 -3.23971e-20)
(2.55843 -5.6458 8.76902e-20)
(2.50345 -5.48352 1.51306e-22)
(2.44944 -5.32615 -5.39413e-20)
(2.39664 -5.17391 1.46436e-19)
(2.34524 -5.02695 -7.84858e-20)
(2.29539 -4.88536 -1.04042e-19)
(2.2472 -4.74913 3.43975e-20)
(2.20077 -4.6182 -9.94834e-20)
(2.15614 -4.4924 -2.36468e-20)
(2.11329 -4.37148 -2.87766e-21)
(2.07214 -4.25507 -6.35277e-20)
(2.03282 -4.1426 7.60797e-20)
(1.99567 -4.03328 -2.68525e-20)
(1.9582 -3.92732 4.43525e-20)
(3.97157 -8.89216 -1.06914e-19)
(3.69011 -8.58542 -2.84336e-19)
(3.57764 -8.28823 1.35583e-19)
(3.49977 -8.03013 -1.28074e-19)
(3.428 -7.80433 -9.38039e-20)
(3.36448 -7.59618 -5.33762e-20)
(3.3059 -7.3981 -1.95416e-19)
(3.24897 -7.20595 1.3201e-19)
(3.19206 -7.01726 -2.33872e-19)
(3.13437 -6.83081 -3.22801e-19)
(3.07559 -6.6462 4.22647e-20)
(3.01575 -6.46355 6.85493e-20)
(2.95504 -6.28321 -1.56482e-21)
(2.89382 -6.1057 -1.28367e-19)
(2.83243 -5.93153 2.98272e-20)
(2.77126 -5.76122 -1.13918e-19)
(2.71065 -5.5952 -8.09911e-20)
(2.65093 -5.43385 -4.78886e-20)
(2.59237 -5.27745 -9.00528e-21)
(2.5352 -5.12624 8.17777e-20)
(2.47962 -4.98036 1.1552e-19)
(2.42578 -4.83989 -3.43947e-20)
(2.3738 -4.70484 -3.26525e-20)
(2.32377 -4.57513 6.34118e-20)
(2.27574 -4.45062 3.49742e-20)
(2.22967 -4.33104 -2.76823e-20)
(2.1855 -4.21605 -3.05591e-20)
(2.14335 -4.10504 3.54946e-21)
(2.10356 -3.99719 2.70563e-20)
(2.06345 -3.89281 -3.95902e-20)
(4.2044 -8.78907 -1.9866e-20)
(3.91798 -8.49598 3.57509e-19)
(3.8002 -8.20673 2.7225e-19)
(3.71741 -7.95438 2.09747e-19)
(3.64097 -7.73302 -1.35611e-19)
(3.57273 -7.52815 -2.69612e-20)
(3.50925 -7.33246 2.4881e-20)
(3.44725 -7.14208 1.66822e-19)
(3.38511 -6.95476 6.20699e-20)
(3.32207 -6.7694 9.34314e-20)
(3.25787 -6.58574 -2.05035e-19)
(3.1926 -6.40396 2.12575e-20)
(3.1265 -6.22448 8.19412e-20)
(3.05996 -6.04783 4.92567e-20)
(2.99337 -5.87459 1.01343e-19)
(2.92713 -5.70524 -6.94741e-20)
(2.86162 -5.54024 -6.32662e-20)
(2.79716 -5.37996 1.25178e-20)
(2.73405 -5.22469 1.32896e-19)
(2.67252 -5.07464 -2.13163e-19)
(2.61277 -4.92996 7.40639e-20)
(2.55497 -4.79074 -4.37506e-22)
(2.49922 -4.65698 1.36973e-19)
(2.44562 -4.52861 -5.92777e-20)
(2.39421 -4.40549 -3.30299e-21)
(2.34496 -4.28737 -3.69575e-20)
(2.2978 -4.1739 -3.24706e-20)
(2.25287 -4.06447 6.84314e-21)
(2.2105 -3.9582 -7.8859e-20)
(2.16782 -3.85554 1.17401e-19)
(4.43457 -8.67993 -3.89108e-19)
(4.14374 -8.40059 -2.16828e-19)
(4.02097 -8.11934 -5.48398e-19)
(3.93349 -7.87279 -2.45158e-19)
(3.85253 -7.65592 2.27261e-19)
(3.77964 -7.45437 -1.31694e-19)
(3.7113 -7.26114 -3.04842e-20)
(3.64424 -7.07263 -8.49536e-20)
(3.57685 -6.88677 1.43103e-19)
(3.50845 -6.70263 -1.31005e-19)
(3.43882 -6.52004 1.56378e-20)
(3.36809 -6.33926 -6.24373e-21)
(3.29659 -6.16078 -1.98911e-19)
(3.22471 -5.98517 -6.93278e-21)
(3.15291 -5.81299 5.28275e-20)
(3.0816 -5.64476 -5.64486e-21)
(3.01119 -5.48094 -1.97219e-19)
(2.94201 -5.32188 1.90516e-19)
(2.87436 -5.16787 -1.85122e-19)
(2.80848 -5.01913 7.18352e-20)
(2.74459 -4.87579 1.006e-20)
(2.68283 -4.73793 4.04666e-21)
(2.62333 -4.60557 -7.39001e-20)
(2.56618 -4.47865 7.35941e-20)
(2.51142 -4.35703 -3.12814e-20)
(2.45903 -4.24048 3.37326e-20)
(2.40893 -4.12865 -1.79292e-19)
(2.36126 -4.02091 4.88164e-20)
(2.31637 -3.91634 5.19444e-20)
(2.2712 -3.81553 5.22269e-20)
(4.66193 -8.5648 7.55244e-19)
(4.36721 -8.29928 2.46321e-19)
(4.23981 -8.02611 1.42134e-19)
(4.14786 -7.7854 2.24242e-19)
(4.06252 -7.57305 -2.76743e-20)
(3.98506 -7.37487 1.63899e-19)
(3.9119 -7.18416 3.60104e-19)
(3.83978 -6.99759 -4.63145e-20)
(3.76714 -6.81329 1.95471e-20)
(3.69335 -6.63049 4.07637e-19)
(3.61827 -6.44911 3.78536e-19)
(3.54207 -6.26949 5.49328e-20)
(3.46514 -6.09216 -1.95102e-20)
(3.38793 -5.91773 -7.50158e-22)
(3.31091 -5.74677 2.77728e-19)
(3.23454 -5.57982 1.07166e-20)
(3.15923 -5.41732 2.8873e-19)
(3.08533 -5.25963 -3.70329e-20)
(3.01316 -5.10703 -6.11399e-20)
(2.94297 -4.95973 1.41856e-19)
(2.87494 -4.81785 -1.28463e-19)
(2.80925 -4.68148 -1.37868e-19)
(2.74602 -4.55064 -1.22256e-20)
(2.68534 -4.42527 -6.0026e-20)
(2.62726 -4.30526 9.08679e-20)
(2.57176 -4.19038 1.0634e-20)
(2.51875 -4.08029 -3.69814e-20)
(2.46839 -3.97436 2.03819e-20)
(2.42106 -3.87162 1.3224e-19)
(2.37347 -3.7728 1.85543e-20)
(4.88631 -8.44376 -1.29979e-19)
(4.58827 -8.19211 -2.47886e-19)
(4.45658 -7.92707 9.95993e-20)
(4.36037 -7.69223 -3.99413e-19)
(4.27079 -7.48441 1.86519e-19)
(4.18883 -7.28964 -3.38079e-19)
(4.11088 -7.10152 -2.18033e-19)
(4.0337 -6.91698 6.02912e-20)
(3.95581 -6.73436 5.6731e-20)
(3.87662 -6.55301 -2.82788e-19)
(3.79606 -6.37298 4.24449e-20)
(3.71438 -6.19466 4.55007e-20)
(3.63202 -6.01863 -1.48981e-19)
(3.54946 -5.84553 -5.83131e-20)
(3.46723 -5.67596 -3.86316e-20)
(3.3858 -5.51044 -3.85813e-20)
(3.30561 -5.34942 -1.58598e-19)
(3.22702 -5.19324 -9.78848e-20)
(3.15034 -5.04219 -2.08414e-20)
(3.07584 -4.89646 7.90657e-20)
(3.00371 -4.75617 1.05693e-19)
(2.93411 -4.62142 -1.14335e-19)
(2.86717 -4.4922 4.22889e-20)
(2.80299 -4.3685 -8.7251e-20)
(2.74161 -4.25019 8.09227e-20)
(2.68302 -4.13708 -1.06506e-19)
(2.62714 -4.02884 3.26805e-20)
(2.57415 -3.92484 -5.18976e-20)
(2.52443 -3.82404 -7.26381e-20)
(2.47452 -3.72737 -6.83961e-21)
(5.10756 -8.31686 -2.71548e-19)
(4.80676 -8.07914 -2.21822e-19)
(4.67112 -7.82226 -2.14482e-19)
(4.57088 -7.59329 -1.54529e-19)
(4.47717 -7.39003 4.74592e-19)
(4.39078 -7.19871 6.46119e-20)
(4.30806 -7.01323 1.97209e-19)
(4.22584 -6.83081 2.96975e-19)
(4.14268 -6.64997 1.40081e-19)
(4.05808 -6.47021 -1.8585e-19)
(3.97203 -6.29166 2.91242e-19)
(3.88487 -6.11479 8.51433e-20)
(3.79706 -5.94023 2.61473e-19)
(3.70917 -5.76862 2.95375e-20)
(3.62173 -5.60058 6.49007e-20)
(3.53525 -5.43665 2.11242e-20)
(3.45019 -5.27725 -1.26523e-21)
(3.36692 -5.12274 -7.71965e-21)
(3.28577 -4.97338 3.33496e-20)
(3.20698 -4.82936 1.11713e-19)
(3.13077 -4.69079 -1.23865e-19)
(3.05729 -4.55776 9.72549e-20)
(2.98667 -4.43029 3.2324e-21)
(2.919 -4.30834 4.32242e-20)
(2.85435 -4.19183 7.8277e-20)
(2.7927 -4.08058 -1.35331e-20)
(2.73398 -3.9743 7.66297e-20)
(2.6784 -3.87233 1.09555e-19)
(2.62635 -3.77361 -1.1888e-19)
(2.57421 -3.67922 -6.56611e-20)
(5.32554 -8.1842 7.88943e-19)
(5.02254 -7.96042 -8.15728e-20)
(4.88329 -7.71172 1.65581e-19)
(4.77922 -7.48863 3.00032e-19)
(4.6815 -7.28993 -8.48552e-19)
(4.59074 -7.10208 8.9763e-20)
(4.50329 -6.91932 -3.13391e-19)
(4.41602 -6.73911 3.05749e-19)
(4.32759 -6.56017 -2.41552e-19)
(4.23757 -6.38213 1.26399e-19)
(4.14603 -6.2052 -4.5935e-19)
(4.05337 -6.02993 1.85225e-20)
(3.96013 -5.85698 -4.89489e-19)
(3.8669 -5.68702 2.19437e-19)
(3.77426 -5.52068 1.12234e-19)
(3.68276 -5.35848 1.68325e-19)
(3.59285 -5.20087 -1.8223e-19)
(3.50493 -5.04817 -1.41165e-20)
(3.41932 -4.90064 1.39126e-20)
(3.33628 -4.75845 3.86772e-20)
(3.25601 -4.62173 -2.17942e-19)
(3.17867 -4.49053 -6.34559e-21)
(3.10439 -4.3649 -1.19609e-19)
(3.03327 -4.24482 -2.79686e-20)
(2.96536 -4.13019 -7.21361e-20)
(2.90066 -4.0209 -7.80381e-20)
(2.83913 -3.91667 -8.03073e-20)
(2.78099 -3.81684 1.32861e-19)
(2.72668 -3.72032 3.52792e-20)
(2.67239 -3.62837 -6.29485e-20)
(5.5401 -8.04585 -5.25165e-19)
(5.23548 -7.83604 1.80746e-19)
(5.09298 -7.59551 -3.0323e-19)
(4.98526 -7.37826 4.53433e-20)
(4.88364 -7.18412 4.79095e-19)
(4.78856 -6.99979 -2.40731e-19)
(4.69639 -6.81981 -2.45861e-19)
(4.60409 -6.64191 -2.08783e-19)
(4.51038 -6.46498 1.0761e-20)
(4.41493 -6.28878 1.31044e-19)
(4.31789 -6.11363 -9.31112e-20)
(4.21974 -5.94011 5.46699e-21)
(4.12106 -5.76893 2.03865e-19)
(4.0225 -5.60078 1.26124e-19)
(3.92469 -5.43629 3.5112e-20)
(3.82818 -5.27599 -1.09973e-19)
(3.73346 -5.1203 4.15982e-20)
(3.64092 -4.96955 8.97533e-20)
(3.55089 -4.82399 9.85358e-20)
(3.46363 -4.68377 -1.078e-19)
(3.37934 -4.54901 1.6416e-20)
(3.29817 -4.41977 9.04132e-20)
(3.22025 -4.29608 1.55421e-19)
(3.14568 -4.17794 3.98818e-20)
(3.07452 -4.06529 -1.57638e-19)
(3.0068 -3.95802 1.81956e-19)
(2.94246 -3.85592 -9.08263e-20)
(2.88178 -3.75834 -1.07341e-19)
(2.82525 -3.66414 -6.55497e-20)
(2.76892 -3.57479 -8.07666e-20)
(5.75112 -7.9019 2.75646e-19)
(5.44547 -7.70607 -2.0642e-19)
(5.30004 -7.47365 7.9701e-20)
(5.18884 -7.26222 4.05084e-19)
(5.08341 -7.07264 1.08012e-19)
(4.98405 -6.89186 -9.15075e-20)
(4.88719 -6.71473 2.19317e-19)
(4.78986 -6.53924 5.24695e-20)
(4.69087 -6.36444 1.99542e-19)
(4.58999 -6.19022 1.08564e-19)
(4.48746 -6.01698 4.6889e-21)
(4.38381 -5.84538 6.63606e-20)
(4.27971 -5.67613 -2.0864e-20)
(4.17585 -5.50995 -1.8169e-19)
(4.07289 -5.34747 -2.65071e-20)
(3.9714 -5.18921 -5.28243e-20)
(3.8719 -5.0356 1.28478e-19)
(3.77477 -4.88694 1.29145e-19)
(3.68036 -4.74347 -1.46002e-19)
(3.58892 -4.60535 1.48845e-19)
(3.50064 -4.47266 3.12369e-19)
(3.41567 -4.34548 -2.00421e-19)
(3.33413 -4.22383 1.99101e-19)
(3.25613 -4.10771 -1.39291e-19)
(3.18174 -3.99711 -1.93499e-20)
(3.11098 -3.89194 1.46384e-19)
(3.04384 -3.79204 -2.98203e-20)
(2.98063 -3.69678 1.08549e-19)
(2.92191 -3.60503 1.07053e-19)
(2.86362 -3.51845 -1.93995e-19)
(5.95848 -7.75243 -2.6553e-19)
(5.65241 -7.57057 1.17526e-19)
(5.50437 -7.3462 4.74656e-20)
(5.38983 -7.14052 -4.70591e-19)
(5.28065 -6.9555 -2.39548e-19)
(5.17707 -6.77832 1.76758e-19)
(5.07552 -6.60412 -4.84422e-19)
(4.97316 -6.43113 5.75988e-19)
(4.8689 -6.25859 -3.2023e-19)
(4.76259 -6.08649 3.78386e-20)
(4.65457 -5.91533 -6.0515e-20)
(4.54544 -5.74578 -1.7435e-19)
(4.43594 -5.57863 3.56413e-19)
(4.3268 -5.41458 1.31782e-19)
(4.21872 -5.25426 1.69249e-19)
(4.1123 -5.0982 3.48652e-21)
(4.00805 -4.9468 7.35298e-20)
(3.90639 -4.80038 -1.58569e-19)
(3.80764 -4.65914 3.32732e-20)
(3.71205 -4.52322 1.06966e-19)
(3.61981 -4.39272 -4.50515e-20)
(3.53108 -4.2677 7.23113e-20)
(3.44596 -4.14817 -1.4226e-19)
(3.36454 -4.03416 2.03166e-19)
(3.28691 -3.92565 4.63874e-20)
(3.21311 -3.82262 -1.27364e-19)
(3.14315 -3.72497 -1.08927e-19)
(3.07738 -3.63212 6.19411e-22)
(3.01647 -3.54292 1.48508e-19)
(2.95629 -3.45929 -3.25762e-20)
(6.16212 -7.59751 -7.29598e-20)
(5.85623 -7.42959 -4.80774e-19)
(5.70583 -7.21317 5.68664e-19)
(5.58806 -7.01319 3.78608e-19)
(5.4752 -6.83272 3.71269e-19)
(5.36741 -6.65919 1.00102e-19)
(5.26121 -6.488 1.506e-19)
(5.15384 -6.31763 7.47916e-20)
(5.0443 -6.14748 -2.96007e-19)
(4.93257 -5.97765 5.35292e-19)
(4.81906 -5.80871 -4.22195e-19)
(4.70448 -5.64139 -2.6797e-20)
(4.5896 -5.47649 6.06519e-20)
(4.47522 -5.31472 -2.61131e-19)
(4.36206 -5.15673 4.08966e-19)
(4.25074 -5.00301 7.67819e-20)
(4.1418 -4.85398 -1.70144e-19)
(4.03565 -4.70992 6.42088e-20)
(3.93261 -4.57103 -1.24205e-19)
(3.83293 -4.43744 -1.08593e-19)
(3.73679 -4.30923 -1.14404e-19)
(3.64433 -4.18645 2.58908e-20)
(3.55564 -4.06912 1.39252e-20)
(3.47083 -3.95727 -2.73701e-19)
(3.38997 -3.85091 -1.02704e-19)
(3.3131 -3.75005 6.65041e-20)
(3.24027 -3.65466 8.13839e-20)
(3.17189 -3.56424 -1.11973e-19)
(3.10874 -3.47768 -4.23478e-20)
(3.04666 -3.39714 3.43676e-21)
(6.36205 -7.43721 -6.49239e-20)
(6.05687 -7.28319 3.11476e-19)
(5.90429 -7.07459 -8.81971e-20)
(5.78337 -6.88024 -1.0716e-19)
(5.66687 -6.70434 -5.73258e-19)
(5.55492 -6.53451 -1.23065e-19)
(5.44408 -6.36643 2.31371e-19)
(5.3317 -6.1988 -1.51037e-19)
(5.2169 -6.03117 -1.57425e-20)
(5.09976 -5.86376 -2.99794e-20)
(4.98079 -5.69719 1.59511e-19)
(4.86077 -5.53226 -2.48828e-19)
(4.74055 -5.36977 -1.63639e-19)
(4.62096 -5.21045 1.89603e-19)
(4.50277 -5.05494 -1.06521e-19)
(4.38662 -4.90372 5.04603e-20)
(4.27305 -4.75719 9.57983e-21)
(4.16246 -4.61562 -4.25281e-20)
(4.0552 -4.4792 1.53997e-19)
(3.95148 -4.34804 -1.40236e-19)
(3.85149 -4.22222 -1.11517e-19)
(3.75535 -4.10177 9.69178e-20)
(3.66314 -3.98671 -1.11711e-20)
(3.57495 -3.87707 -7.0815e-20)
(3.49086 -3.77288 6.21532e-20)
(3.41091 -3.67419 -1.91191e-19)
(3.33516 -3.58106 1.16521e-19)
(3.26407 -3.49306 -1.88657e-21)
(3.19859 -3.40913 -1.19514e-19)
(3.13466 -3.33165 1.64118e-19)
(6.55857 -7.27179 2.52597e-19)
(6.25439 -7.13147 -6.09153e-19)
(6.09962 -6.93046 -4.96052e-20)
(5.97557 -6.74167 2.74047e-19)
(5.85547 -6.57036 -6.85948e-20)
(5.73938 -6.40431 -1.92986e-19)
(5.62393 -6.23945 8.76819e-20)
(5.50655 -6.07468 1.00104e-19)
(5.38651 -5.90971 7.82153e-21)
(5.26398 -5.74487 1.1967e-19)
(5.13958 -5.58085 3.77405e-19)
(5.01416 -5.41847 -1.32174e-19)
(4.88864 -5.25856 3.23869e-20)
(4.76391 -5.10185 -8.5235e-20)
(4.64074 -4.94896 3.24682e-19)
(4.51982 -4.80039 -5.78248e-20)
(4.40168 -4.65649 8.52001e-20)
(4.28673 -4.51754 -1.42188e-19)
(4.17531 -4.38371 7.6565e-20)
(4.06763 -4.25509 1.14714e-19)
(3.96385 -4.13174 1.92354e-20)
(3.86409 -4.0137 7.55264e-20)
(3.7684 -3.90097 -6.17129e-20)
(3.67687 -3.79358 1.71193e-19)
(3.58956 -3.69157 -6.94002e-20)
(3.50651 -3.59504 2.51953e-19)
(3.42778 -3.50411 -7.26869e-20)
(3.35391 -3.41844 4.95131e-20)
(3.28602 -3.33701 -9.31544e-20)
(3.22036 -3.26272 1.58805e-19)
(6.75244 -7.10152 -5.57536e-19)
(6.449 -6.9743 2.06698e-20)
(6.29167 -6.78061 -3.03652e-19)
(6.16444 -6.59741 5.39231e-20)
(6.04078 -6.4308 1.523e-20)
(5.9206 -6.26864 -2.53906e-19)
(5.80056 -6.10711 -4.71516e-19)
(5.67822 -5.94534 2.31567e-19)
(5.55297 -5.78319 -3.25152e-19)
(5.42507 -5.62108 -1.67917e-19)
(5.29527 -5.45976 -9.40092e-20)
(5.16449 -5.3001 -7.27032e-20)
(5.03373 -5.14293 8.50935e-22)
(4.90391 -4.98898 -2.58366e-19)
(4.77584 -4.83888 1.64525e-19)
(4.65022 -4.69309 -2.70638e-19)
(4.52759 -4.55198 -6.77501e-20)
(4.40837 -4.41578 7.65327e-20)
(4.29287 -4.28464 -3.05894e-20)
(4.18131 -4.15866 8.85511e-20)
(4.07382 -4.03787 6.73267e-20)
(3.9705 -3.92229 -1.67848e-19)
(3.87141 -3.81193 1.67365e-19)
(3.77657 -3.7068 -1.80005e-20)
(3.68604 -3.60696 -4.42668e-20)
(3.59985 -3.51254 -1.7401e-19)
(3.51805 -3.42367 -9.15418e-20)
(3.44118 -3.34003 1.68668e-19)
(3.37043 -3.26092 -5.55837e-20)
(3.30262 -3.19082 -5.16488e-20)
(6.94402 -6.92558 2.44101e-19)
(6.64052 -6.81083 2.30715e-20)
(6.48013 -6.62477 -5.89426e-20)
(6.34969 -6.4475 -1.19267e-20)
(6.22259 -6.28577 -1.01545e-19)
(6.0984 -6.12765 3.43495e-19)
(5.97383 -5.96958 -1.58905e-19)
(5.84658 -5.81094 1.04052e-19)
(5.71613 -5.65174 4.27991e-20)
(5.58291 -5.49251 1.48277e-19)
(5.44775 -5.33406 -5.52475e-20)
(5.31167 -5.17728 3.12837e-19)
(5.17572 -5.02301 -2.64086e-20)
(5.04087 -4.87199 1.96325e-19)
(4.90798 -4.72482 -3.25617e-19)
(4.77774 -4.58197 -2.30919e-20)
(4.6507 -4.44376 2.05763e-19)
(4.52729 -4.31042 -1.26429e-19)
(4.40782 -4.1821 5.15535e-20)
(4.29247 -4.05885 8.73481e-20)
(4.18137 -3.94069 -1.26079e-19)
(4.07461 -3.82764 1.38868e-19)
(3.97219 -3.71967 -1.28321e-19)
(3.87414 -3.61679 2.81068e-20)
(3.78046 -3.51906 1.02576e-19)
(3.69113 -3.4266 7.04317e-20)
(3.60622 -3.33942 6.56981e-20)
(3.52599 -3.25722 4.82091e-20)
(3.45078 -3.18037 -1.30123e-19)
(3.37848 -3.1151 -5.04265e-20)
(9.94122 0.0126747 3.13944e-21)
(9.93213 -0.249227 3.05194e-20)
(9.91679 -0.509571 1.06062e-19)
(9.89543 -0.76877 5.78005e-20)
(9.86761 -1.02694 -1.2347e-19)
(9.83312 -1.28404 3.72667e-20)
(9.79193 -1.53996 -3.87652e-20)
(9.74406 -1.79456 -9.84693e-20)
(9.68954 -2.04769 5.23267e-20)
(9.62841 -2.29917 -6.06729e-20)
(9.56072 -2.54885 -6.02856e-20)
(9.48652 -2.79656 -1.29512e-19)
(9.40588 -3.04213 -3.73885e-19)
(9.31886 -3.28538 3.44325e-20)
(9.22554 -3.52617 -1.49269e-20)
(9.126 -3.76432 -1.20229e-19)
(9.0203 -3.99967 2.52935e-19)
(8.90854 -4.23208 1.39104e-19)
(8.7908 -4.46138 2.64758e-19)
(8.66718 -4.68744 1.29374e-19)
(8.53776 -4.91009 -2.949e-19)
(8.40265 -5.12919 1.20069e-20)
(8.26195 -5.34462 -5.62158e-19)
(8.11577 -5.55623 8.55049e-19)
(7.96422 -5.7639 -2.80259e-19)
(7.80743 -5.96751 -3.68121e-19)
(7.64551 -6.16699 -5.44195e-20)
(7.47863 -6.36228 -6.44548e-21)
(7.30689 -6.55346 -2.85605e-19)
(7.13092 -6.74062 5.02182e-19)
(9.82689 -0.125614 1.17055e-20)
(9.81102 -0.383627 1.70214e-20)
(9.78807 -0.640104 3.93769e-21)
(9.7585 -0.89523 -1.50581e-19)