/*--------------------------------*- C++ -*----------------------------------*\
  =========                 |
  \\      /  F ield         | OpenFOAM: The Open Source CFD Toolbox
   \\    /   O peration     | Website:  https://openfoam.org
    \\  /    A nd           | Version:  6.0
     \\/     M anipulation  |
\*---------------------------------------------------------------------------*/
FoamFile
{
    version     2.0;
    format      ascii;
    class       surfaceScalarField;
    location    "4.75";
    object      phi;
}
// * * * * * * * * * * * * * * * * * * * * * * * * * * * * * * * * * * * * * //

dimensions      [0 3 -1 0 0 0 0];

internalField   nonuniform List<scalar> 
18940
(
4.6919e-05
-0.417832
0.417786
0.000324857
-0.39424
0.393962
0.000729587
-0.373373
0.372968
0.00118282
-0.353867
0.353414
0.00164297
-0.335562
0.335102
0.00208692
-0.31816
0.317716
0.00250391
-0.301537
0.30112
0.00289152
-0.28568
0.285293
0.00325181
-0.270599
0.270239
0.00358866
-0.256298
0.255961
0.00390628
-0.242768
0.242451
0.00420859
-0.229995
0.229692
0.00449921
-0.217952
0.217662
0.00478171
-0.206612
0.206329
0.00505999
-0.19594
0.195661
0.00533832
-0.185897
0.185618
0.00562095
-0.176438
0.176155
0.00591107
-0.167513
0.167223
0.0062092
-0.159065
0.158767
-0.15104
0.150737
0.00651238
7.62969e-05
-0.417909
0.000358208
-0.394522
0.000762371
-0.373777
0.00121509
-0.35432
0.00167286
-0.33602
0.00211301
-0.3186
0.00252578
-0.301949
0.00290932
-0.286064
0.00326603
-0.270956
0.00360001
-0.256632
0.00391557
-0.243084
0.00421661
-0.230296
0.00450665
-0.218242
0.00478915
-0.206894
0.00506791
-0.196218
0.0053473
-0.186176
0.0056319
-0.176723
0.00592562
-0.167807
0.00622988
-0.159369
-0.151353
0.00654267
0.00010407
-0.418013
0.000390262
-0.394808
0.000792719
-0.37418
0.00124381
-0.354771
0.00169909
-0.336475
0.00213555
-0.319036
0.00254403
-0.302358
0.00292333
-0.286443
0.00327628
-0.271309
0.00360725
-0.256963
0.00392065
-0.243397
0.0042204
-0.230596
0.00450991
-0.218532
0.00479249
-0.207177
0.00507184
-0.196498
0.00535239
-0.186456
0.00563912
-0.177009
0.00593647
-0.168104
0.00624692
-0.15968
-0.151676
0.00656956
0.000112855
-0.418126
0.000410045
-0.395105
0.000816619
-0.374586
0.00126781
-0.355222
0.00172095
-0.336929
0.00215376
-0.319469
0.00255784
-0.302762
0.00293268
-0.286818
0.00328164
-0.271658
0.00360939
-0.25729
0.00392049
-0.243708
0.00421887
-0.230894
0.00450783
-0.218821
0.00479054
-0.20746
0.00507057
-0.196778
0.00535243
-0.186738
0.00564136
-0.177298
0.00594253
-0.168405
0.00625934
-0.159997
-0.152009
0.00659218
0.000121729
-0.418247
0.00042683
-0.39541
0.000837023
-0.374997
0.00128811
-0.355673
0.00173872
-0.337379
0.0021675
-0.319898
0.0025668
-0.303161
0.00293681
-0.287188
0.00328141
-0.272003
0.0036056
-0.257615
0.00391411
-0.244017
0.0042109
-0.231191
0.00449918
-0.219109
0.00478195
-0.207742
0.00506267
-0.197058
0.00534583
-0.187021
0.00563698
-0.177589
0.00594196
-0.16871
0.0062653
-0.16032
-0.152352
0.00660865
0.00012655
-0.418374
0.000438597
-0.395722
0.000852825
-0.375411
0.00130406
-0.356124
0.00175194
-0.337827
0.00217625
-0.320322
0.00257029
-0.303555
0.00293495
-0.287553
0.00327467
-0.272342
0.0035948
-0.257935
0.00390029
-0.244322
0.00419512
-0.231486
0.00448245
-0.219396
0.00476511
-0.208025
0.00504638
-0.19734
0.00533072
-0.187306
0.00562397
-0.177883
0.00593266
-0.169019
0.00626257
-0.16065
-0.152706
0.00661668
0.000131019
-0.418505
0.000448579
-0.39604
0.000865752
-0.375828
0.00131639
-0.356575
0.00176084
-0.338272
0.00217997
-0.320741
0.00256801
-0.303943
0.0029266
-0.287911
0.00326073
-0.272676
0.00357611
-0.25825
0.00387792
-0.244624
0.00417021
-0.231778
0.00445609
-0.219682
0.00473821
-0.208307
0.00501968
-0.197621
0.0053049
-0.187591
0.00559995
-0.178178
0.00591215
-0.169331
0.00624838
-0.160986
-0.153071
0.00661336
0.000134172
-0.418639
0.000456316
-0.396362
0.000875693
-0.376247
0.00132502
-0.357024
0.00176527
-0.338712
0.00217838
-0.321154
0.00255954
-0.304324
0.00291116
-0.288263
0.00323878
-0.273004
0.00354851
-0.25856
0.00384574
-0.244922
0.00413466
-0.232067
0.00441831
-0.219966
0.0046992
-0.208588
0.00498027
-0.197902
0.0052658
-0.187877
0.00556215
-0.178474
0.00587728
-0.169646
0.00621942
-0.161328
-0.153447
0.00659508
0.000136844
-0.418776
0.000462797
-0.396688
0.000883409
-0.376668
0.0013304
-0.357471
0.00176543
-0.339147
0.00217147
-0.32156
0.00254468
-0.304698
0.00288822
-0.288606
0.00320819
-0.273324
0.00351109
-0.258863
0.00380258
-0.245213
0.00408696
-0.232351
0.00436726
-0.220246
0.00464589
-0.208867
0.00492557
-0.198182
0.00521049
-0.188161
0.00550715
-0.178771
0.00582428
-0.169963
0.00617157
-0.161676
-0.153832
0.00655729
0.000138925
-0.418915
0.000468068
-0.397017
0.000889063
-0.377089
0.00133271
-0.357915
0.00176141
-0.339575
0.00215924
-0.321958
0.00252327
-0.305062
0.00285745
-0.288941
0.0031684
-0.273635
0.00346304
-0.259157
0.00374728
-0.245497
0.00402558
-0.232629
0.00430101
-0.220522
0.00457586
-0.209142
0.00485268
-0.198459
0.00513552
-0.188444
0.00543104
-0.179066
0.00574872
-0.170281
0.00609968
-0.162027
-0.154227
0.00649433
0.000140774
-0.419056
0.000472641
-0.397349
0.000893161
-0.37751
0.00133237
-0.358354
0.00175356
-0.339997
0.00214189
-0.322347
0.00249538
-0.305415
0.00281871
-0.289264
0.00311906
-0.273935
0.00340372
-0.259442
0.00367886
-0.245772
0.00394913
-0.2329
0.00421766
-0.22079
0.00448669
-0.209411
0.00475857
-0.198731
0.00503721
-0.188723
0.00532941
-0.179358
0.00564534
-0.170597
0.00599775
-0.162379
-0.154629
0.00639961
0.000142641
-0.419198
0.000476924
-0.397683
0.000896158
-0.377929
0.00132988
-0.358788
0.00174232
-0.340409
0.00211978
-0.322724
0.00246125
-0.305757
0.00277211
-0.289575
0.00306005
-0.274223
0.00333272
-0.259715
0.00359657
-0.246036
0.0038564
-0.233159
0.00411548
-0.221049
0.00437599
-0.209671
0.00464015
-0.198995
0.00491168
-0.188995
0.00519752
-0.179644
0.00550861
-0.170908
0.00585948
-0.16273
-0.155035
0.00626581
0.000145072
-0.419343
0.000481684
-0.39802
0.00089883
-0.378346
0.00132595
-0.359215
0.00172836
-0.340812
0.00209354
-0.323089
0.00242142
-0.306085
0.00271807
-0.289871
0.00299163
-0.274497
0.00325007
-0.259973
0.00350004
-0.246286
0.00374654
-0.233406
0.00399294
-0.221296
0.00424147
-0.20992
0.00449421
-0.199248
0.00475476
-0.189255
0.00503018
-0.17992
0.00533226
-0.17121
0.00567745
-0.163075
-0.155442
0.00608406
0.000148853
-0.419492
0.000487955
-0.398359
0.000902091
-0.37876
0.00132143
-0.359634
0.00171251
-0.341203
0.00206399
-0.323441
0.00237674
-0.306397
0.00265744
-0.290152
0.00291461
-0.274754
0.00315642
-0.260215
0.00338964
-0.246519
0.00361939
-0.233636
0.00384913
-0.221525
0.00408113
-0.210152
0.00431742
-0.199484
0.0045615
-0.189499
0.0048206
-0.180179
0.00510741
-0.171497
0.00544032
-0.163408
-0.155842
0.00584084
0.000155098
-0.419647
0.000496923
-0.398701
0.000906846
-0.37917
0.00131716
-0.360044
0.00169573
-0.341581
0.00203224
-0.323777
0.00232845
-0.306694
0.00259158
-0.290415
0.00283044
-0.274993
0.00305327
-0.260438
0.00326684
-0.246733
0.00347618
-0.233845
0.00368471
-0.221734
0.00389461
-0.210362
0.00410773
-0.199697
0.0043274
-0.189719
0.00456105
-0.180412
0.00482233
-0.171758
0.00513189
-0.163717
-0.156228
0.00551792
0.000164932
-0.419812
0.000509399
-0.399045
0.00091382
-0.379574
0.00131412
-0.360445
0.00167927
-0.341946
0.00199976
-0.324098
0.00227819
-0.306972
0.00252234
-0.290659
0.0027412
-0.275212
0.00294296
-0.260639
0.00313421
-0.246924
0.00331973
-0.234031
0.00350264
-0.221917
0.00368474
-0.210544
0.00386735
-0.19988
0.00405311
-0.189905
0.00424901
-0.180608
0.00447
-0.171979
0.00474142
-0.163989
-0.156589
0.00510236
0.000179155
-0.419991
0.000526328
-0.399393
0.000924648
-0.379973
0.00131419
-0.360834
0.00166497
-0.342297
0.00196836
-0.324401
0.00222791
-0.307232
0.00245193
-0.290883
0.00264946
-0.275409
0.00282844
-0.260818
0.00299505
-0.247091
0.0031536
-0.234189
0.00330677
-0.22207
0.00345595
-0.210693
0.00360145
-0.200025
0.00374469
-0.190048
0.0038914
-0.180755
0.00405715
-0.172145
0.0042739
-0.164206
-0.156898
0.00458291
0.000199939
-0.420191
0.000552463
-0.399745
0.000944126
-0.380364
0.00132055
-0.361211
0.00165478
-0.342631
0.00193965
-0.324686
0.00217948
-0.307471
0.00238287
-0.291087
0.00255862
-0.275585
0.00271403
-0.260974
0.00285437
-0.247231
0.00298295
-0.234318
0.00310161
-0.222189
0.00321049
-0.210802
0.00330929
-0.200124
0.00339872
-0.190137
0.00348355
-0.18084
0.00357683
-0.172238
0.00370819
-0.164337
-0.157088
0.00389804
0.000239369
-0.420431
0.000600434
-0.400106
0.00097864
-0.380743
0.00133536
-0.361567
0.00164938
-0.342945
0.00191434
-0.324951
0.0021344
-0.307691
0.00231789
-0.29127
0.00247307
-0.27574
0.00260631
-0.261107
0.00272145
-0.247346
0.00282003
-0.234416
0.00290081
-0.22227
0.00296075
-0.210862
0.00299613
-0.200159
0.00300386
-0.190145
0.00298446
-0.18082
0.00294634
-0.1722
0.00292061
-0.164311
-0.157137
0.00296905
0.000333044
-0.420764
0.000676921
-0.40045
0.00102468
-0.38109
0.00135558
-0.361898
0.00164753
-0.343237
0.00189265
-0.325196
0.00209412
-0.307893
0.00225976
-0.291436
0.00239739
-0.275878
0.00251286
-0.261223
0.00260894
-0.247442
0.00268496
-0.234492
0.00273653
-0.222321
0.00275542
-0.210881
0.00272803
-0.200132
0.00263428
-0.190051
0.00244721
-0.180633
0.00214481
-0.171898
0.00177465
-0.163941
-0.15719
0.00182838
0.423533
0.000253898
-0.423787
0.423329
0.000203265
0.423145
0.000184002
0.42297
0.00017502
0.422801
0.000169183
0.422636
0.000165231
0.422473
0.000162767
0.422312
0.000161206
0.422152
0.000159965
0.421993
0.000158646
0.421836
0.000156911
0.421682
0.000154705
0.42153
0.000151663
0.421382
0.000148132
0.421239
0.000142776
0.421102
0.000137333
0.420976
0.00012551
0.420862
0.000114397
0.42079
7.16537e-05
2.65142e-05
0.405632
0.000454211
-0.405833
0.405406
0.000429659
0.40517
0.000419664
0.404925
0.000420434
0.40467
0.000424558
0.404406
0.000429294
0.404134
0.000434179
0.403857
0.000438874
0.403574
0.000442932
0.403286
0.000445841
0.402996
0.000447143
0.402704
0.000446771
0.402411
0.000444301
0.40212
0.000440013
0.40183
0.000432454
0.401545
0.00042267
0.401265
0.000405282
0.400995
0.000383884
0.400724
0.000342795
0.000300634
0.386384
0.000558769
-0.386488
0.38624
0.000573508
0.386068
0.000591217
0.385875
0.00061417
0.38566
0.000638739
0.385427
0.000662301
0.385178
0.000684053
0.384913
0.000703468
0.384636
0.000720431
0.384347
0.000734795
0.384048
0.000745894
0.383741
0.000753697
0.383427
0.000757973
0.383108
0.000758878
0.382785
0.000755447
0.38246
0.000748263
0.38213
0.000734665
0.381797
0.00071679
0.38145
0.00068987
0.000660709
0.366284
0.000574304
-0.3663
0.366231
0.000626562
0.366146
0.000676908
0.366033
0.000727284
0.365895
0.000776691
0.365734
0.0008233
0.365551
0.000866337
0.365349
0.00090562
0.365129
0.00094054
0.364893
0.000970966
0.364642
0.000996716
0.364378
0.00101743
0.364103
0.00103309
0.363818
0.00104408
0.363523
0.00104996
0.36322
0.00105132
0.362908
0.00104736
0.362585
0.00103959
0.362248
0.00102666
0.00101054
0.34651
0.000520472
-0.346456
0.34653
0.000606937
0.346517
0.000689204
0.346477
0.00076812
0.34641
0.000843628
0.346318
0.000914813
0.346204
0.00098102
0.346067
0.00104178
0.345911
0.00109668
0.345737
0.00114533
0.345546
0.00118761
0.34534
0.00122375
0.345119
0.00125344
0.344887
0.00127684
0.344642
0.0012944
0.344386
0.00130703
0.344119
0.00131485
0.343839
0.00131918
0.343546
0.00132016
0.00131905
0.327519
0.000421239
-0.32742
0.327587
0.000538817
0.327626
0.000650958
0.327636
0.00075773
0.32762
0.000859211
0.32758
0.000954921
0.327517
0.00104425
0.327432
0.00112665
0.327327
0.00120165
0.327204
0.0012689
0.327063
0.00132833
0.326907
0.00137987
0.326737
0.00142355
0.326553
0.00146017
0.326358
0.00149009
0.326151
0.00151412
0.325932
0.00153351
0.325701
0.00155009
0.325456
0.00156483
0.0015793
0.309543
0.000298217
-0.30942
0.309638
0.000444449
0.309704
0.000584416
0.309744
0.000717713
0.309759
0.000844247
0.30975
0.000963644
0.309719
0.00107531
0.309667
0.00117864
0.309596
0.00127309
0.309507
0.00135829
0.309401
0.00143406
0.30928
0.00150037
0.309146
0.00155751
0.309001
0.00160603
0.308844
0.00164687
0.308676
0.00168164
0.308498
0.00171146
0.30831
0.00173878
0.308108
0.00176598
0.00179486
0.292681
0.000167629
-0.29255
0.292785
0.000340647
0.292863
0.000506715
0.292915
0.00066512
0.292944
0.000815564
0.29295
0.000957614
0.292934
0.00109064
0.292899
0.00121393
0.292845
0.00132689
0.292775
0.00142903
0.292689
0.00152008
0.292589
0.00159999
0.292477
0.00166908
0.292355
0.00172802
0.292224
0.00177797
0.292085
0.00182092
0.291937
0.00185913
0.291781
0.0018952
0.291615
0.00193235
0.00197362
0.27693
4.00625e-05
-0.276802
0.277032
0.000238491
0.277109
0.000429334
0.277163
0.000611673
0.277193
0.000785018
0.277202
0.000948806
0.27719
0.00110231
0.27716
0.0012447
0.277111
0.00137526
0.277047
0.00149336
0.276968
0.0015986
0.276878
0.00169081
0.276776
0.00177027
0.276667
0.0018377
0.27655
0.00189457
0.276428
0.00194306
0.276301
0.00198626
0.276168
0.00202805
0.276028
0.00207257
0.00212367
0.262231
-7.83561e-05
-0.262113
0.262325
0.000144538
0.262395
0.000359234
0.262442
0.000564671
0.262467
0.000760176
0.262471
0.000945032
0.262455
0.00111837
0.26242
0.00127922
0.262369
0.00142669
0.262302
0.00155996
0.262222
0.00167845
0.262131
0.00178178
0.262032
0.00187012
0.261925
0.00194408
0.261814
0.00200534
0.261701
0.00205629
0.261586
0.00210112
0.26147
0.00214447
0.26135
0.00219257
0.00225092
0.248504
-0.000184511
-0.248397
0.248586
6.22508e-05
0.248645
0.000300224
0.248681
0.000528224
0.248696
0.000745424
0.24869
0.00095093
0.248665
0.00114371
0.248621
0.00132263
0.248561
0.00148658
0.248487
0.00163451
0.2484
0.00176557
0.248303
0.00187909
0.248198
0.001975
0.248088
0.00205359
0.247977
0.00211674
0.247866
0.00216675
0.247758
0.00220913
0.247654
0.00224913
0.24755
0.00229631
0.00235836
0.23566
-0.000277145
-0.235567
0.235729
-6.88136e-06
0.235775
0.000254022
0.235799
0.000504281
0.235802
0.000742917
0.235784
0.00096887
0.235746
0.00118092
0.235691
0.00137775
0.23562
0.00155801
0.235534
0.00172036
0.235436
0.00186364
0.235328
0.0019867
0.235214
0.00208916
0.235097
0.0021707
0.234981
0.0022333
0.234869
0.00227857
0.234764
0.00231395
0.234669
0.00234454
0.23458
0.0023853
0.00244556
0.223616
-0.000356211
-0.223537
0.223672
-6.26901e-05
0.223705
0.000220929
0.223716
0.000493278
0.223706
0.00075324
0.223675
0.00099959
0.223625
0.00123092
0.223557
0.0014457
0.223473
0.00164234
0.223374
0.00181914
0.223263
0.00197457
0.223143
0.0021069
0.223017
0.00221528
0.222889
0.00229836
0.222764
0.00235819
0.222648
0.00239462
0.222544
0.002418
0.222458
0.00243098
0.222385
0.00245862
0.00250903
0.212297
-0.000422647
-0.212231
0.212341
-0.000106061
0.212362
0.000200132
0.21236
0.00049449
0.212338
0.00077577
0.212295
0.00104258
0.212232
0.00129334
0.212152
0.00152628
0.212055
0.00173955
0.211943
0.0019311
0.211818
0.00209892
0.211685
0.00224062
0.211545
0.00235472
0.211405
0.00243839
0.21127
0.00249361
0.211147
0.0025169
0.211043
0.00252292
0.210967
0.00250705
0.210912
0.00251349
0.0025401
0.201637
-0.000478365
-0.201582
0.20167
-0.00013885
0.20168
0.000189843
0.201669
0.00050621
0.201635
0.000808888
0.201582
0.00109632
0.201508
0.00136674
0.201416
0.00161818
0.201308
0.00184849
0.201183
0.00205527
0.201046
0.00223602
0.200899
0.00238757
0.200746
0.00250766
0.200593
0.00259155
0.200446
0.0026409
0.200316
0.00264682
0.200209
0.00263008
0.200146
0.00256999
0.200114
0.00254566
0.00252197
0.191582
-0.000526185
-0.191534
0.191607
-0.00016376
0.191609
0.000187463
0.191589
0.00052593
0.191548
0.000850156
0.191486
0.00115843
0.191404
0.0014488
0.191303
0.0017191
0.191185
0.00196693
0.19105
0.00218952
0.190903
0.00238388
0.190744
0.00254605
0.190579
0.00267285
0.190413
0.00275733
0.190254
0.00280031
0.190115
0.00278524
0.190005
0.00274066
0.189958
0.00261655
0.189952
0.00255132
0.00242326
0.18209
-0.000569538
-0.182047
0.18211
-0.000184068
0.182108
0.000189803
0.182084
0.000550495
0.182037
0.000896417
0.18197
0.00122569
0.181883
0.00153622
0.181776
0.00182563
0.181652
0.00209131
0.181511
0.00233017
0.181356
0.00253878
0.18119
0.00271245
0.181016
0.00284702
0.18084
0.00293325
0.18067
0.00297044
0.180523
0.00293219
0.180408
0.00285486
0.180382
0.00264261
0.180403
0.00253068
0.00219282
0.173133
-0.000612153
-0.17309
0.173152
-0.000203476
0.173149
0.000193086
0.173123
0.000575985
0.173076
0.000943516
0.173008
0.00129366
0.17292
0.00162417
0.172813
0.00193254
0.172689
0.00221598
0.172548
0.00247115
0.172392
0.00269425
0.172225
0.00288004
0.172048
0.00302347
0.171868
0.00311326
0.171692
0.00314675
0.171538
0.0030863
0.17142
0.00297224
0.171422
0.00264131
0.171474
0.0024788
0.00176881
0.164689
-0.000657967
-0.164643
0.164712
-0.000226305
0.164712
0.000192516
0.164691
0.00059704
0.164649
0.000985456
0.164587
0.00135562
0.164506
0.00170517
0.164407
0.00203152
0.164292
0.00233175
0.16416
0.00260237
0.164015
0.00283937
0.163858
0.00303709
0.163692
0.00318997
0.16352
0.00328515
0.163348
0.00331861
0.163192
0.00324232
0.163069
0.00309575
0.163091
0.0026192
0.16322
0.00234921
0.00104797
0.156744
-0.156691
-0.00071084
0.156775
-0.000257363
0.156785
0.000182242
0.156775
0.000606669
0.156747
0.00101405
0.1567
0.00140213
0.156637
0.00176849
0.156558
0.0021105
0.156465
0.00242522
0.156358
0.00270907
0.156239
0.00295802
0.15611
0.00316619
0.155972
0.00332795
0.155828
0.00342961
0.155679
0.0034671
0.155535
0.00338678
0.155402
0.00322838
0.155371
0.0026504
0.155547
0.00217339
-0.000595735
0.424554
9.75423e-05
-0.424651
0.424536
1.77832e-05
0.424544
-7.65044e-06
0.424558
-1.44088e-05
0.424573
-1.4485e-05
0.424583
-1.03816e-05
0.424586
-2.87168e-06
0.424578
7.2746e-06
0.42456
1.87709e-05
0.424529
3.07891e-05
0.424486
4.27488e-05
0.424432
5.43406e-05
0.424367
6.51352e-05
0.424291
7.52147e-05
0.424208
8.35977e-05
0.424117
9.12187e-05
0.424022
9.42116e-05
0.423926
9.6777e-05
0.423846
7.95067e-05
5.96317e-05
0.404865
-0.000184308
-0.404583
0.405107
-0.000224235
0.405335
-0.000235111
0.405544
-0.00022348
0.405731
-0.000201994
0.405896
-0.000175475
0.406039
-0.00014535
0.406158
-0.000112207
0.406254
-7.68454e-05
0.406325
-4.06767e-05
0.406373
-4.57229e-06
0.406396
3.08866e-05
0.406396
6.49945e-05
0.406374
9.76457e-05
0.40633
0.000127523
0.406266
0.000154844
0.406184
0.000176169
0.406088
0.000193374
0.40597
0.00019678
0.000197234
0.383064
-0.000689201
-0.382559
0.383517
-0.000678018
0.383936
-0.000653415
0.384324
-0.000612176
0.384683
-0.000560961
0.385012
-0.000504138
0.38531
-0.000443411
0.385578
-0.000380145
0.385816
-0.000314967
0.386024
-0.000248641
0.386202
-0.000182368
0.38635
-0.000116902
0.386468
-5.31573e-05
0.386557
8.62228e-06
0.386617
6.72729e-05
0.38665
0.000122276
0.386654
0.000171634
0.386631
0.000216253
0.386575
0.000252619
0.000284303
0.360898
-0.0013014
-0.360286
0.361469
-0.00124876
0.362003
-0.00118771
0.362506
-0.00111555
0.362979
-0.00103414
0.363422
-0.000946587
0.363833
-0.00085474
0.364213
-0.000759914
0.364561
-0.000663195
0.364878
-0.000565327
0.365163
-0.000467276
0.365416
-0.000369939
0.365637
-0.000274393
0.365827
-0.000181248
0.365985
-9.12788e-05
0.366113
-4.8643e-06
0.366208
7.64121e-05
0.366271
0.000152598
0.366302
0.000222381
0.000286072
0.339811
-0.00195838
-0.339154
0.340435
-0.00187339
0.341028
-0.00178076
0.341592
-0.00167907
0.342126
-0.00156882
0.342632
-0.00145206
0.343107
-0.00133026
0.343552
-0.00120466
0.343966
-0.00107716
0.344349
-0.000948513
0.344702
-0.000819464
0.345023
-0.000691049
0.345312
-0.000564042
0.34557
-0.000439464
0.345797
-0.000318115
0.345993
-0.000200408
0.346157
-8.74372e-05
0.346289
2.0501e-05
0.346389
0.000122568
0.000218375
0.320158
-0.00262657
-0.31949
0.3208
-0.00251526
0.321414
-0.00239493
0.322001
-0.00226569
0.32256
-0.00212792
0.323091
-0.00198301
0.323593
-0.00183251
0.324067
-0.00167804
0.324511
-0.00152121
0.324925
-0.00136293
0.32531
-0.00120422
0.325665
-0.00104605
0.32599
-0.000889278
0.326285
-0.000734785
0.326551
-0.000583322
0.326786
-0.000435474
0.32699
-0.000292084
0.327164
-0.000153641
0.327308
-2.07437e-05
0.000106107
0.301979
-0.00328834
-0.301317
0.302617
-0.00315376
0.303231
-0.00300835
0.303818
-0.00285304
0.304379
-0.0026886
0.304912
-0.00251645
0.305418
-0.00233851
0.305897
-0.00215625
0.306346
-0.00197101
0.306768
-0.00178462
0.307162
-0.00159791
0.307527
-0.00141145
0.307864
-0.00122637
0.308173
-0.00104343
0.308453
-0.000863394
0.308704
-0.000686886
0.308927
-0.000514667
0.309121
-0.000347264
0.309285
-0.000185218
-2.91197e-05
0.285192
-0.00393535
-0.284545
0.285818
-0.0037793
0.28642
-0.00361024
0.286996
-0.00342967
0.287547
-0.003239
0.28807
-0.00304011
0.288567
-0.0028351
0.289036
-0.00262567
0.289479
-0.00241335
0.289894
-0.00219977
0.290282
-0.00198596
0.290643
-0.00177252
0.290977
-0.00156038
0.291284
-0.00135031
0.291563
-0.00114306
0.291816
-0.000939269
0.292041
-0.000739635
0.292238
-0.000544724
0.292408
-0.000355107
-0.00017147
0.269663
-0.00456555
-0.269032
0.270272
-0.00438897
0.270859
-0.00419684
0.27142
-0.0039911
0.271955
-0.00377407
0.272464
-0.00354834
0.272945
-0.00331634
0.273399
-0.00308018
0.273827
-0.00284129
0.274229
-0.00260105
0.274604
-0.00236097
0.274953
-0.00212153
0.275276
-0.00188327
0.275572
-0.00164711
0.275843
-0.00141371
0.276087
-0.00118371
0.276306
-0.000957783
0.276497
-0.000736542
0.276663
-0.000520598
-0.000310729
0.255246
-0.00518024
-0.254632
0.255841
-0.00498368
0.256413
-0.00476837
0.256958
-0.00453683
0.257477
-0.00429272
0.257968
-0.00403963
0.258432
-0.00378044
0.25887
-0.00351742
0.25928
-0.00325215
0.259665
-0.00298593
0.260024
-0.00272007
0.260358
-0.00245515
0.260666
-0.00219157
0.260949
-0.00193004
0.261207
-0.00167126
0.261439
-0.00141581
0.261646
-0.00116441
0.261827
-0.000917666
0.261982
-0.000676271
-0.000441077
0.241811
-0.00578253
-0.241209
0.242394
-0.0055664
0.242953
-0.00532717
0.243484
-0.00506846
0.243988
-0.00479601
0.244463
-0.00451466
0.24491
-0.0042277
0.24533
-0.00393757
0.245724
-0.00364603
0.246092
-0.00335411
0.246435
-0.00306273
0.246752
-0.00277277
0.247045
-0.00248439
0.247313
-0.00219797
0.247556
-0.0019143
0.247774
-0.00163393
0.247967
-0.00135755
0.248136
-0.00108585
0.248279
-0.000819556
-0.000559619
0.229244
-0.00637668
-0.22865
0.229819
-0.00614154
0.230369
-0.00587686
0.230889
-0.00558873
0.231379
-0.00528612
0.23184
-0.00497519
0.232272
-0.00465959
0.232676
-0.00434192
0.233054
-0.00402386
0.233406
-0.00370623
0.233733
-0.00338975
0.234035
-0.00307494
0.234313
-0.0027619
0.234566
-0.00245096
0.234794
-0.00214272
0.234998
-0.00183773
0.235177
-0.0015367
0.235332
-0.00124037
0.235462
-0.000949537
-0.000665227
0.217453
-0.00696814
-0.216862
0.218027
-0.00671494
0.218572
-0.00642194
0.219084
-0.00610097
0.219563
-0.0057656
0.220011
-0.00542312
0.220429
-0.0050775
0.220819
-0.00473145
0.221181
-0.00438644
0.221518
-0.00404304
0.22183
-0.0037015
0.222117
-0.00336198
0.22238
-0.00302454
0.222618
-0.00268932
0.222832
-0.00235676
0.223022
-0.00202744
0.223187
-0.00170204
0.223328
-0.00138136
0.223445
-0.00106627
-0.00075787
0.206366
-0.00756429
-0.205769
0.206945
-0.00729416
0.20749
-0.00696748
0.207998
-0.00660827
0.208468
-0.00623609
0.208904
-0.00585895
0.209308
-0.00548121
0.209682
-0.0051056
0.210029
-0.00473317
0.21035
-0.00436395
0.210646
-0.00399749
0.210917
-0.00363369
0.211165
-0.00327237
0.211389
-0.00291332
0.211589
-0.00255692
0.211765
-0.0022037
0.211918
-0.00185434
0.212046
-0.00150968
0.21215
-0.00117065
-0.000838434
0.195929
-0.00817565
-0.195317
0.196522
-0.00788786
0.197072
-0.00751724
0.197575
-0.00711112
0.198034
-0.00669573
0.198455
-0.00627943
0.198841
-0.00586712
0.199196
-0.0054611
0.199525
-0.00506139
0.199828
-0.00466706
0.200107
-0.0042768
0.200363
-0.00388979
0.200596
-0.00350565
0.200807
-0.00312384
0.200994
-0.00274445
0.201159
-0.00236805
0.2013
-0.00199533
0.201417
-0.00162716
0.201511
-0.00126455
-0.000908805
0.186109
-0.00881842
-0.185466
0.186723
-0.00850182
0.187274
-0.0080681
0.187765
-0.0076024
0.188204
-0.00713524
0.1886
-0.00667539
0.188961
-0.00622777
0.189293
-0.00579267
0.189599
-0.00536795
0.189883
-0.00495107
0.190146
-0.00453954
0.190388
-0.00413172
0.190609
-0.00372663
0.190808
-0.0033235
0.190986
-0.00292234
0.191142
-0.00252365
0.191275
-0.00212818
0.191385
-0.00173692
0.191471
-0.00135099
-0.000971877
0.176885
-0.00951783
-0.176186
0.177512
-0.00912875
0.178044
-0.00860017
0.178504
-0.00806215
0.178906
-0.007537
0.179264
-0.0070341
0.179593
-0.00655602
0.179898
-0.00609777
0.180183
-0.00565364
0.180452
-0.00521911
0.180702
-0.00479034
0.180935
-0.00436466
0.181149
-0.00394073
0.181344
-0.00351783
0.181517
-0.00309584
0.181669
-0.00267541
0.181798
-0.00225747
0.181905
-0.00184319
0.181987
-0.00143388
-0.00103126
0.16822
-0.0103004
-0.167438
0.168821
-0.00972998
0.169292
-0.00907091
0.169692
-0.00846214
0.170041
-0.00788591
0.170359
-0.0073515
0.170658
-0.00685554
0.170945
-0.0063846
0.17122
-0.00592886
0.171483
-0.00548215
0.171733
-0.00503977
0.171966
-0.00459844
0.172182
-0.00415678
0.172379
-0.0037145
0.172555
-0.00327171
0.172709
-0.00282924
0.17284
-0.00238837
0.172947
-0.00195057
0.173031
-0.00151738
-0.00109081
0.160012
-0.0110856
-0.159226
0.16049
-0.0102085
0.160861
-0.00944177
0.161195
-0.00879596
0.161506
-0.00819717
0.161807
-0.00765207
0.162103
-0.00715183
0.162395
-0.00667676
0.16268
-0.00621426
0.162956
-0.00575755
0.163218
-0.00530195
0.163464
-0.00484439
0.163691
-0.00438394
0.163897
-0.0039209
0.164082
-0.00345588
0.164243
-0.00299013
0.164379
-0.00252524
0.164492
-0.00206302
0.16458
-0.00160524
-0.00115429
0.151936
-0.151825
-0.011196
0.152207
-0.0104799
0.152579
-0.00981345
0.152918
-0.00913536
0.15326
-0.00853895
0.153604
-0.0079957
0.15394
-0.00748817
0.154267
-0.00700409
0.154584
-0.00653086
0.154886
-0.00605997
0.155171
-0.00558682
0.155436
-0.00510915
0.155679
-0.00462656
0.155898
-0.00413992
0.156092
-0.00365048
0.156262
-0.0031598
0.156406
-0.00266978
0.156526
-0.0021825
0.15662
-0.0016999
-0.00122465
0.0100769
0.139502
-0.139022
-0.0105565
0.00960592
0.147651
-0.14718
0.00913618
0.156177
-0.155707
0.0086623
0.165105
-0.164631
0.00818143
0.174472
-0.173991
0.00769267
0.18432
-0.183831
0.00719587
0.1947
-0.194203
0.00669063
0.205665
-0.20516
0.00617564
0.217277
-0.216762
0.00564831
0.229606
-0.229078
0.00510472
0.242736
-0.242192
0.00453993
0.256776
-0.256211
0.00394852
0.271868
-0.271277
0.00332567
0.288196
-0.287573
0.0026692
0.305988
-0.305331
0.00198349
0.325506
-0.324821
0.00128739
0.347031
-0.346335
0.000631224
0.370696
-0.370039
0.000132066
0.395707
-0.395208
0.420878
-0.420746
0.0103383
0.140002
-0.0108386
0.00984882
0.148141
0.00936243
0.156663
0.00887313
0.165594
0.00837754
0.174967
0.00787424
0.184823
0.00736272
0.195211
0.00684242
0.206186
0.006312
0.217808
0.00576896
0.230149
0.00520957
0.243295
0.00462912
0.257356
0.00402249
0.272475
0.00338543
0.288833
0.00271683
0.306656
0.00202298
0.3262
0.00132554
0.347729
0.000677323
0.371344
0.000185632
0.396199
0.421064
0.010576
0.140522
-0.0110956
0.0100693
0.148647
0.00956751
0.157165
0.00906406
0.166098
0.00855499
0.175476
0.00803841
0.18534
0.00751346
0.195736
0.0069794
0.20672
0.00643484
0.218352
0.00587736
0.230706
0.00530341
0.243869
0.00470849
0.257951
0.00408784
0.273095
0.0034377
0.289483
0.00275779
0.307336
0.00205576
0.326902
0.00135453
0.34843
0.00070532
0.371993
0.000206561
0.396698
0.42127
0.0107899
0.141059
-0.0113274
0.0102674
0.14917
0.00975156
0.157681
0.00923518
0.166614
0.00871384
0.175998
0.0081852
0.185869
0.00764807
0.196273
0.0071015
0.207266
0.00654405
0.21891
0.00597338
0.231277
0.00538606
0.244456
0.00477782
0.25856
0.00414419
0.273729
0.00348178
0.290146
0.00279083
0.308027
0.0020797
0.327613
0.0013721
0.349137
0.000719039
0.372646
0.000215999
0.397201
0.421486
0.0109808
0.141613
-0.011535
0.0104437
0.149707
0.00991487
0.15821
0.00938664
0.167142
0.00885411
0.17653
0.00831452
0.186408
0.00776634
0.196821
0.00720842
0.207824
0.00663927
0.219479
0.00605657
0.23186
0.00545702
0.245056
0.00483655
0.25918
0.00419091
0.274375
0.00351704
0.29082
0.0028156
0.308729
0.00209555
0.328333
0.00138166
0.349851
0.000725741
0.373302
0.000221082
0.397705
0.421707
0.0111498
0.142183
-0.0117195
0.010599
0.150258
0.010058
0.158751
0.00951883
0.167682
0.00897602
0.177073
0.00842642
0.186958
0.00786819
0.19738
0.00729998
0.208392
0.0067202
0.220059
0.00612658
0.232453
0.00551591
0.245667
0.00488429
0.259812
0.00422769
0.275031
0.00354338
0.291504
0.00283247
0.30944
0.00210463
0.329061
0.00138565
0.35057
0.000728049
0.37396
0.000223028
0.39821
0.42193
0.011298
0.142768
-0.0118827
0.0107342
0.150821
0.0101818
0.159303
0.0096323
0.168231
0.00907991
0.177625
0.00852109
0.187517
0.00795367
0.197947
0.0073761
0.20897
0.00678671
0.220648
0.00618323
0.233057
0.00556254
0.246287
0.00492088
0.260453
0.00425447
0.275698
0.00356091
0.292198
0.00284181
0.310159
0.00210753
0.329796
0.00138469
0.351293
0.000726317
0.374618
0.000222208
0.398714
0.422153
0.0114271
0.143367
-0.0120264
0.0108506
0.151398
0.0102871
0.159867
0.00972765
0.16879
0.00916617
0.178187
0.00859872
0.188084
0.00802284
0.198523
0.00743676
0.209556
0.00683871
0.221246
0.0062264
0.233669
0.00559679
0.246917
0.00494627
0.261104
0.00427127
0.276373
0.00356973
0.292899
0.00284376
0.310885
0.00210438
0.330535
0.00137894
0.352019
0.000720862
0.375276
0.000219212
0.399216
0.422372
0.0115386
0.143981
-0.0121527
0.0109493
0.151987
0.0103746
0.160441
0.0098054
0.16936
0.00923507
0.178757
0.00865941
0.18866
0.00807566
0.199107
0.00748184
0.21015
0.00687604
0.221852
0.00625594
0.234289
0.00561855
0.247554
0.00496038
0.261762
0.00427807
0.277055
0.00356989
0.293607
0.00283844
0.311616
0.00209537
0.331278
0.00136871
0.352745
0.000712266
0.375932
0.000214663
0.399714
0.422586
0.0116342
0.144611
-0.0122638
0.0110314
0.15259
0.0104451
0.161028
0.00986586
0.169939
0.00928671
0.179336
0.0087031
0.189243
0.00811197
0.199698
0.0075111
0.210751
0.00689844
0.222465
0.00627159
0.234916
0.0056276
0.248198
0.00496305
0.262427
0.0042748
0.277743
0.00356141
0.294321
0.00282596
0.312352
0.00208072
0.332023
0.00135436
0.353472
0.000701046
0.376586
0.000208989
0.400206
0.422795
0.0117152
0.145257
-0.0123619
0.0110975
0.153208
0.0104987
0.161626
0.00990884
0.170529
0.00932067
0.179925