/*--------------------------------*- C++ -*----------------------------------*\
  =========                 |
  \\      /  F ield         | OpenFOAM: The Open Source CFD Toolbox
   \\    /   O peration     | Website:  https://openfoam.org
    \\  /    A nd           | Version:  6.0
     \\/     M anipulation  |
\*---------------------------------------------------------------------------*/
FoamFile
{
    version     2.0;
    format      ascii;
    class       surfaceScalarField;
    location    "21.5";
    object      phi;
}
// * * * * * * * * * * * * * * * * * * * * * * * * * * * * * * * * * * * * * //

dimensions      [0 3 -1 0 0 0 0];

internalField   nonuniform List<scalar> 
18940
(
0.000110987
-0.115529
0.115418
0.000521803
-0.101947
0.101536
0.00122123
-0.0919576
0.0912582
0.00217975
-0.0845652
0.0836067
0.00336116
-0.0790374
0.077856
0.00472728
-0.0748327
0.0734666
0.00624139
-0.0715613
0.0700471
0.0078699
-0.0689454
0.0673169
0.00958303
-0.0667878
0.0650747
0.011355
-0.0649489
0.0631769
0.013164
-0.06333
0.061521
0.0149918
-0.061862
0.0600342
0.0168236
-0.0604964
0.0586646
0.0186478
-0.0591995
0.0573753
0.0204551
-0.0579472
0.0561398
0.0222388
-0.0567219
0.0549383
0.0239934
-0.05551
0.0537554
0.0257149
-0.0542992
0.0525777
0.0273993
-0.0530769
0.0513924
-0.0518278
0.0501848
0.0290424
0.000131457
-0.115661
0.000571053
-0.102387
0.00130732
-0.0926939
0.00230699
-0.0855649
0.00353001
-0.0802605
0.00493538
-0.0762381
0.00648435
-0.0731102
0.00814188
-0.0706029
0.00987729
-0.0685232
0.0116643
-0.0667359
0.0134809
-0.0651466
0.0153091
-0.0636901
0.0171344
-0.0623217
0.0189456
-0.0610107
0.0207343
-0.0597358
0.0224942
-0.0584819
0.0242212
-0.057237
0.0259121
-0.0559901
0.0275642
-0.054729
-0.0534381
0.0291745
0.000147167
-0.115808
0.000615881
-0.102855
0.00138843
-0.0934665
0.00242731
-0.0866038
0.00368889
-0.081522
0.0051295
-0.0776787
0.0067085
-0.0746892
0.00838958
-0.072284
0.0101413
-0.0702749
0.011937
-0.0685316
0.0137546
-0.0669642
0.0155765
-0.065512
0.0173886
-0.0641338
0.0191803
-0.0628024
0.0209439
-0.0614994
0.0226742
-0.0602122
0.0243679
-0.0589306
0.0260229
-0.0576451
0.0276378
-0.0563439
-0.0550111
0.0292108
0.000161035
-0.115969
0.000657701
-0.103352
0.00146494
-0.0942737
0.00254049
-0.0876793
0.00383717
-0.0828187
0.00530874
-0.0791503
0.00691277
-0.0762933
0.00861181
-0.0739831
0.0103738
-0.0720369
0.0121718
-0.0703296
0.0139841
-0.0687765
0.0157932
-0.0673211
0.0175856
-0.0659263
0.0193517
-0.0645684
0.0210844
-0.0632322
0.0227796
-0.0619074
0.0244349
-0.0605859
0.0260494
-0.0592596
0.0276228
-0.0579174
-0.0565432
0.0291549
0.000173877
-0.116143
0.000697016
-0.103875
0.00153688
-0.0951136
0.00264621
-0.0887887
0.00397427
-0.0841468
0.00547231
-0.0806483
0.00709624
-0.0779172
0.0088076
-0.0756944
0.0105738
-0.0738031
0.0123681
-0.0721239
0.0141686
-0.0705771
0.0159587
-0.0691111
0.0177256
-0.0676931
0.0194602
-0.066303
0.0211567
-0.0649287
0.0228117
-0.0635625
0.0244242
-0.0621983
0.0259942
-0.0608296
0.0275228
-0.059446
-0.0580314
0.029011
0.000185972
-0.116329
0.000734017
-0.104423
0.00160419
-0.0959837
0.00274418
-0.0899287
0.0040997
-0.0855023
0.00561959
-0.0821682
0.00725821
-0.0795558
0.00897625
-0.0774125
0.0107408
-0.0755677
0.0125252
-0.0739082
0.014308
-0.07236
0.0160732
-0.0708763
0.0178088
-0.0694287
0.0195068
-0.068001
0.0211621
-0.0665841
0.0227727
-0.065173
0.0243383
-0.063764
0.0258605
-0.0623517
0.0273414
-0.0609268
-0.0594733
0.0287833
0.000197407
-0.116526
0.000768737
-0.104994
0.00166677
-0.0968818
0.00283414
-0.091096
0.00421308
-0.0868812
0.00575012
-0.0837053
0.00739821
-0.0812039
0.00911733
-0.0791316
0.0108745
-0.0773248
0.0126431
-0.0756768
0.0144025
-0.0741194
0.0161372
-0.072611
0.0178364
-0.0711279
0.0194928
-0.0696574
0.0211026
-0.0681939
0.0226647
-0.0667352
0.0241802
-0.0652795
0.0256517
-0.0638231
0.0270825
-0.0623576
-0.0608672
0.0284763
0.000208196
-0.116734
0.000801154
-0.105587
0.0017245
-0.0978051
0.00291589
-0.0922874
0.00431414
-0.0882795
0.00586362
-0.0852547
0.00751599
-0.0828563
0.00923072
-0.0808463
0.0109748
-0.0790689
0.0127221
-0.0774241
0.0144526
-0.0758499
0.0161517
-0.0743102
0.0178096
-0.0727857
0.01942
-0.0712678
0.0209804
-0.0697542
0.0224906
-0.0682454
0.0239529
-0.0667418
0.0253711
-0.0652413
0.0267499
-0.0637364
-0.0622115
0.0280942
0.000218323
-0.116953
0.000831225
-0.1062
0.00177731
-0.0987512
0.00298931
-0.0934994
0.00440277
-0.0896929
0.00595998
-0.0868119
0.00761154
-0.0845078
0.00931653
-0.0825513
0.0110421
-0.0807945
0.0127628
-0.0791447
0.0144593
-0.0775464
0.0161181
-0.075969
0.0177302
-0.0743978
0.0192907
-0.0728283
0.020798
-0.0712615
0.0222532
-0.0697006
0.0236597
-0.0681483
0.0250225
-0.0666041
0.0263475
-0.0650615
-0.063505
0.027641
0.000227766
-0.11718
0.000858926
-0.106831
0.00182517
-0.0997174
0.0030544
-0.0947287
0.00447898
-0.0911175
0.0060393
-0.0883723
0.00768506
-0.0861536
0.0093752
-0.0842415
0.0110772
-0.0824965
0.0127662
-0.0808337
0.0144241
-0.0792043
0.0160381
-0.077583
0.0176004
-0.0759602
0.0191074
-0.0743352
0.0205583
-0.0727124
0.0219556
-0.0710979
0.0233038
-0.0694965
0.0246091
-0.0679095
0.0258788
-0.0663312
-0.0647466
0.0271204
0.00023651
-0.117417
0.000884269
-0.107479
0.00186814
-0.100701
0.00311125
-0.0959718
0.0045429
-0.0925492
0.00610182
-0.0899312
0.007737
-0.0877888
0.00940739
-0.0859118
0.011081
-0.0841701
0.0127338
-0.0824865
0.0143485
-0.080819
0.0159138
-0.0791482
0.0174228
-0.0774692
0.0188729
-0.0757853
0.0202646
-0.0741042
0.0216014
-0.0724346
0.0228888
-0.070784
0.0241346
-0.0691552
0.0253472
-0.0675438
-0.065935
0.0265356
0.000244552
-0.117661
0.00090732
-0.108142
0.00190635
-0.1017
0.00316004
-0.0972255
0.00459483
-0.093984
0.00614799
-0.0914843
0.00776801
-0.0894088
0.00941404
-0.0875579
0.0110548
-0.0858109
0.0126671
-0.0840988
0.0142349
-0.0823868
0.0157478
-0.0806612
0.0172003
-0.0789217
0.0185907
-0.0771757
0.0199205
-0.075434
0.0211942
-0.0737083
0.0224185
-0.0720083
0.0236024
-0.0703391
0.0247559
-0.0686973
-0.0670683
0.0258893
0.000251925
-0.117913
0.000928229
-0.108818
0.00194005
-0.102712
0.00320111
-0.0984865
0.00463521
-0.0954181
0.00617839
-0.0930275
0.00777892
-0.0910093
0.00939633
-0.0891753
0.0110001
-0.0874146
0.0125681
-0.0856669
0.0140855
-0.0839042
0.0155431
-0.0821188
0.0169363
-0.0803149
0.0182645
-0.0785038
0.01953
-0.0766995
0.0207383
-0.0749165
0.021897
-0.0731671
0.0230163
-0.0714585
0.024108
-0.069789
-0.0681444
0.025184
0.000258726
-0.118172
0.000947266
-0.109507
0.0019696
-0.103734
0.00323488
-0.0997518
0.00466457
-0.0968477
0.00619377
-0.0945567
0.00777076
-0.0925863
0.00935561
-0.0907601
0.0109187
-0.0889777
0.0124393
-0.0871874
0.0139034
-0.0853683
0.015303
-0.0835184
0.0166348
-0.0816467
0.0178987
-0.0797678
0.019098
-0.0778989
0.0202386
-0.0760571
0.0213291
-0.0742575
0.0223807
-0.0725101
0.0234071
-0.0708153
-0.0691595
0.0244222
0.000265186
-0.118437
0.000964883
-0.110207
0.00199553
-0.104765
0.0032619
-0.101018
0.00468353
-0.0982694
0.00619495
-0.0960681
0.00774464
-0.094136
0.00929344
-0.0923089
0.0108128
-0.0904971
0.012283
-0.0886576
0.0136915
-0.0867768
0.0150314
-0.0848583
0.0163001
-0.0829154
0.0174985
-0.0809662
0.0186302
-0.0790305
0.0197013
-0.0771282
0.0207208
-0.0752771
0.021701
-0.0734903
0.0226572
-0.0717716
-0.0701085
0.0236062
0.000271772
-0.118709
0.000981771
-0.110917
0.00201845
-0.105802
0.00328275
-0.102282
0.00469276
-0.0996794
0.00618279
-0.0975582
0.00770176
-0.095655
0.0092114
-0.0938186
0.0106843
-0.09197
0.0121021
-0.0900754
0.0134534
-0.0881281
0.0147324
-0.0861373
0.0159374
-0.0841205
0.0170698
-0.0820986
0.0181333
-0.080094
0.0191339
-0.0781287
0.0200802
-0.0762234
0.0209849
-0.074395
0.0218649
-0.0726516
-0.0709844
0.0227408
0.000279273
-0.118988
0.00099884
-0.111636
0.00203907
-0.106842
0.003298
-0.103541
0.00469289
-0.101074
0.00615813
-0.0990234
0.00764329
-0.0971401
0.0091111
-0.0952864
0.0105354
-0.0933943
0.0118992
-0.0914391
0.0131924
-0.0894213
0.0144103
-0.0873552
0.0155519
-0.0852621
0.0166191
-0.0831657
0.0176154
-0.0810903
0.0185461
-0.0790594
0.0194187
-0.077096
0.0202447
-0.0752209
0.021042
-0.073449
-0.0717782
0.0218358
0.00028902
-0.119277
0.00101744
-0.112365
0.00205827
-0.107883
0.00330826
-0.104791
0.0046845
-0.102451
0.00612173
-0.100461
0.00757026
-0.0985886
0.00899399
-0.0967101
0.0103681
-0.0947685
0.011677
-0.092748
0.0129119
-0.0906562
0.0140693
-0.0885126
0.015149
-0.0863418
0.0161531
-0.0841699
0.017085
-0.0820222
0.0179488
-0.0799232
0.01875
-0.0778972
0.0194968
-0.0759678
0.0202052
-0.0741573
-0.0724779
0.0209049
0.000304534
-0.119582
0.00104052
-0.113101
0.00207742
-0.10892
0.00331408
-0.106028
0.00466799
-0.103804
0.0060741
-0.101867
0.00748347
-0.099998
0.00886119
-0.0980878
0.0101839
-0.0960912
0.0114375
-0.0940016
0.0126148
-0.0918334
0.0137132
-0.0896111
0.0147338
-0.0873624
0.015679
-0.0851151
0.0165519
-0.0828951
0.0173554
-0.0807267
0.0180914
-0.0786332
0.0187612
-0.0766376
0.0193723
-0.0747684
-0.0730776
0.019972
0.000337125
-0.119919
0.00107226
-0.113836
0.00209698
-0.109945
0.00331512
-0.107246
0.0046431
-0.105132
0.00601529
-0.103239
0.00738329
-0.101366
0.00871339
-0.0994179
0.00998383
-0.0973617
0.0111821
-0.0951999
0.0123026
-0.0929539
0.0133445
-0.0906529
0.0143099
-0.0883278
0.0152026
-0.0860078
0.0160267
-0.0837192
0.0167851
-0.081485
0.0174771
-0.0793253
0.0180935
-0.0772539
0.0186153
-0.0752902
-0.0735268
0.0190644
0.125182
0.000257786
-0.12544
0.124934
0.000248676
0.124684
0.000249607
0.12443
0.00025384
0.124171
0.000259249
0.123906
0.000265018
0.123635
0.000270652
0.123359
0.000275854
0.123079
0.000280469
0.122794
0.000284431
0.122507
0.000287702
0.122216
0.000290272
0.121924
0.000292125
0.121631
0.000293239
0.121338
0.000293562
0.121045
0.000292979
0.120753
0.000291229
0.120466
0.000287696
0.120185
0.000280825
0.000265888
0.125895
0.000717706
-0.126355
0.125407
0.000736915
0.124896
0.000760737
0.124363
0.000786646
0.123809
0.00081282
0.123236
0.000838453
0.122644
0.000863005
0.122033
0.00088605
0.121407
0.000907302
0.120764
0.000926578
0.120108
0.000943763
0.11944
0.000958772
0.11876
0.000971538
0.118072
0.000981987
0.117375
0.000990009
0.116673
0.000995413
0.115966
0.000997851
0.115257
0.000996666
0.114547
0.000990658
0.000977608
0.125894
0.00124185
-0.126419
0.125324
0.00130736
0.124712
0.00137238
0.124062
0.00143656
0.123376
0.00149895
0.122656
0.001559
0.121902
0.00161629
0.121118
0.00167043
0.120304
0.0017211
0.119463
0.00176805
0.118595
0.0018111
0.117704
0.00185008
0.116791
0.00188487
0.115857
0.00191534
0.114906
0.00194135
0.113939
0.00196269
0.112958
0.00197907
0.111964
0.00199006
0.11096
0.001995
0.00199297
0.124965
0.00174514
-0.125468
0.124406
0.00186649
0.123794
0.00198445
0.123131
0.00209911
0.12242
0.00220997
0.121663
0.00231659
0.12086
0.00241861
0.120015
0.00251566
0.119129
0.00260738
0.118204
0.0026935
0.117241
0.00277374
0.116243
0.0028479
0.115212
0.00291578
0.11415
0.0029772
0.11306
0.00303199
0.111942
0.00307994
0.110801
0.00312083
0.109636
0.00315437
0.108451
0.0031802
0.00319793
0.12316
0.00217825
-0.123593
0.122665
0.00236136
0.12211
0.00253953
0.121496
0.00271271
0.120826
0.00288052
0.1201
0.00304252
0.11932
0.00319828
0.118488
0.0033474
0.117606
0.00348948
0.116676
0.00362416
0.115698
0.00375111
0.114676
0.00387004
0.113611
0.0039807
0.112506
0.00408284
0.111361
0.00417624
0.11018
0.0042607
0.108965
0.00433602
0.107718
0.00440198
0.10644
0.00445837
0.00450504
0.120633
0.00251882
-0.120974
0.120228
0.00276695
0.119758
0.00300934
0.119225
0.0032457
0.11863
0.00347559
0.117974
0.00369851
0.117258
0.00391394
0.116484
0.00412139
0.115653
0.00432038
0.114767
0.00451047
0.113827
0.00469124
0.112835
0.00486232
0.111792
0.00502336
0.110701
0.00517407
0.109563
0.00531416
0.10838
0.00544341
0.107155
0.00556161
0.105888
0.00566857
0.104582
0.00576413
0.00584825
0.117579
0.00276249
-0.117823
0.117269
0.00307676
0.116894
0.0033849
0.116453
0.00368646
0.115948
0.00398087
0.115379
0.00426755
0.114747
0.00454587
0.114053
0.00481524
0.113298
0.0050751
0.112484
0.00532491
0.111611
0.00556415
0.110681
0.00579236
0.109695
0.00600911
0.108655
0.00621403
0.107562
0.00640678
0.106419
0.00658709
0.105226
0.00675471
0.103985
0.00690946
0.102698
0.00705121
0.00717993
0.114187
0.00291584
-0.11434
0.113968
0.00329569
0.113683
0.00366934
0.113334
0.00403617
0.112919
0.00439552
0.11244
0.00474667
0.111897
0.00508895
0.11129
0.00542165
0.110621
0.00574412
0.10989
0.00605572
0.109099
0.00635586
0.108247
0.00664398
0.107337
0.00691958
0.106368
0.00718219
0.105344
0.00743144
0.104264
0.00766698
0.10313
0.00788854
0.101944
0.00809593
0.100706
0.00828902
0.0084678
0.110619
0.00299122
-0.110695
0.11048
0.003435
0.110277
0.00387269
0.110009
0.00430352
0.109678
0.00472675
0.109283
0.0051416
0.108825
0.00554728
0.108303
0.00594302
0.107719
0.0063281
0.107073
0.00670179
0.106366
0.00706342
0.105597
0.00741236
0.104769
0.00774802
0.103881
0.0080699
0.102935
0.00837753
0.101932
0.00867054
0.100872
0.00894862
0.0997559
0.00921157
0.0985856
0.00945928
0.00969178
0.107007
0.0030033
-0.107019
0.106933
0.00350871
0.106798
0.0040082
0.1066
0.00450093
0.106341
0.00498608
0.10602
0.00546278
0.105637
0.0059302
0.105193
0.00638752
0.104687
0.00683393
0.10412
0.00726865
0.103492
0.00769095
0.102805
0.00810014
0.102057
0.00849557
0.10125
0.00887668
0.100385
0.00924296
0.0994613
0.00959399
0.0984805
0.00992944
0.0974429
0.0102491
0.0963492
0.010553
0.0108411
0.103446
0.00296693
-0.10341
0.103424
0.00353135
0.103342
0.00409003
0.103201
0.00464209
0.103
0.00518662
0.10274
0.00572274
0.102421
0.00624955
0.102042
0.00676619
0.101604
0.0072718
0.101108
0.00776556
0.100552
0.00824671
0.0999374
0.00871449
0.0992647
0.00916824
0.0985341
0.00960733
0.0977458
0.0100312
0.0969004
0.0104395
0.0959981
0.0108317
0.0950394
0.0112078
0.0940246
0.0115677
0.0119118
0.100004
0.00289577
-0.0999327
0.100019
0.00351652
0.0999771
0.00413169
0.0998788
0.00474032
0.099724
0.00534149
0.0995124
0.00593427
0.0992442
0.00651774
0.0989194
0.00709099
0.0985381
0.00765316
0.0981002
0.0082034
0.097606
0.00874091
0.0970556
0.00926491
0.0964492
0.0097747
0.0957869
0.0102696
0.0950689
0.0107492
0.0942956
0.0112128
0.0934672
0.0116602
0.0925838
0.0120912
0.0916458
0.0125058
0.0129046
0.0967212
0.00280171
-0.0966271
0.0967615
0.00347622
0.0967479
0.0041452
0.0966806
0.00480768
0.0965594
0.0054627
0.0963843
0.00610931
0.0961555
0.00674657
0.0958729
0.00737356
0.0955367
0.0079894
0.0951469
0.00859323
0.0947036
0.00918423
0.0942068
0.00976162
0.0936569
0.0103247
0.0930537
0.0108728
0.0923976
0.0114053
0.0916887
0.0119217
0.0909271
0.0124218
0.090113
0.0129053
0.0892467
0.0133721
0.0138235
0.0936208
0.00269457
-0.0935136
0.0936766
0.00342044
0.093681
0.00414074
0.0936342
0.00485447
0.0935363
0.00556065
0.0933873
0.00625833
0.0931873
0.00694655
0.0929365
0.00762438
0.0926349
0.00829094
0.0922828
0.00894537
0.0918802
0.00958684
0.0914272
0.0102146
0.090924
0.0108279
0.0903708
0.011426
0.0897675
0.0120085
0.0891145
0.0125748
0.0884118
0.0131245
0.0876596
0.0136575
0.0868585
0.0141732
0.0146742
0.090711
0.00258208
-0.0905985
0.0907743
0.00335715
0.0907885
0.00412648
0.0907539
0.00488906
0.0906707
0.00564391
0.090539
0.00639004
0.090359
0.00712651
0.090131
0.00785238
0.0898552
0.00856678
0.0895317
0.00926883
0.0891608
0.00995774
0.0887427
0.0106327
0.0882774
0.0112931
0.0877653
0.0119381
0.0872065
0.0125673
0.0866011
0.0131802
0.0859494
0.0137762
0.0852515
0.0143554
0.0845084
0.0149163
0.0154634
0.0879899
0.00247005
-0.0878778
0.0880547
0.00329236
0.0880725
0.00410865
0.0880436
0.0049179
0.0879685
0.0057191
0.0878472
0.00651127
0.0876803
0.00729345
0.087468
0.00806471
0.0872106
0.00882418
0.0869084
0.009571
0.0865617
0.0103044
0.0861709
0.0110236
0.0857361
0.0117278
0.0852577
0.0124166
0.0847359
0.0130892
0.0841708
0.0137453
0.0835628
0.0143842
0.082912
0.0150062
0.08222
0.0156083
0.0161983
0.0854492
0.00236252
-0.0853417
0.0855113
0.00323032
0.0855282
0.00409169
0.0855005
0.0049456
0.0854286
0.00579103
0.0853129
0.00662699
0.0851538
0.0074525
0.0849519
0.00826666
0.0847075
0.00906858
0.0844211
0.00985743
0.084093
0.0106324
0.0837238
0.0113928
0.0833137
0.0121379
0.0828631
0.0128671
0.0823724
0.0135799
0.0818418
0.0142759
0.0812716
0.0149545
0.0806617
0.015616
0.0800139
0.0162562
0.0168869
0.0830771
0.00226199
-0.0829765
0.0831338
0.00317363
0.0831471
0.00407833
0.0831177
0.00497502
0.0830461
0.00586269
0.0829327
0.0067403
0.0827784
0.0076069
0.0825835
0.00846156
0.0823486
0.00930342
0.0820744
0.0101317
0.0817613
0.0109455
0.08141
0.0117442
0.0810208
0.0125271
0.0805943
0.0132936
0.080131
0.0140432
0.0796312
0.0147757
0.079095
0.0154906
0.0785219
0.0161891
0.0779106
0.0168675
0.0175435
0.0808589
0.00216943
-0.0807664
0.0809093
0.00312332
0.080918
0.00406961
0.0808857
0.00500726
0.0808132
0.00593519
0.0807012
0.00685237
0.0805502
0.00775782
0.0803612
0.00865063
0.0801346
0.00952994
0.0798714
0.0103949
0.079572
0.0112448
0.0792373
0.0120789
0.0788678
0.0128966
0.0784641
0.0136973
0.0780269
0.0144804
0.0775568
0.0152458
0.0770539
0.0159935
0.0765182
0.0167248
0.0759413
0.0174445
0.0181946
0.0787788
-0.078694
0.00208466
0.078823
0.00307912
0.0788273
0.00406523
0.0787927
0.00504191
0.0787198
0.00600805
0.0786096
0.0069626
0.0784629
0.00790457
0.0782804
0.00883306
0.0780632
0.0097472
0.0778119
0.0106462
0.0775274
0.0115293
0.0772106
0.0123958
0.0768621
0.0132451
0.0764828
0.0140766
0.0760734
0.0148898
0.0756348
0.0156844
0.0751675
0.0164608
0.0746736
0.0172188
0.0741417
0.0179763
0.0188094
0.127296
9.21377e-06
-0.127305
0.127304
-7.47277e-06
0.127309
-5.89548e-06
0.127307
2.52422e-06
0.127293
1.41702e-05
0.127265
2.76326e-05
0.127223
4.20304e-05
0.127166
5.68084e-05
0.127095
7.16488e-05
0.127008
8.6371e-05
0.126907
0.000100858
0.126792
0.000115027
0.126664
0.000128805
0.126522
0.000142119
0.126367
0.000154882
0.1262
0.000166967
0.126021
0.000178158
0.125833
0.000188014
0.125638
0.000195499
0.000197986
0.128753
-0.000185324
-0.128558
0.128913
-0.00016778
0.129045
-0.000138249
0.129149
-0.000101044
0.129222
-5.93081e-05
0.129264
-1.44631e-05
0.129274
3.24912e-05
0.12925
8.07299e-05
0.129192
0.000129634
0.1291
0.000178749
0.128973
0.000227722
0.128812
0.000276257
0.128616
0.000324093
0.128387
0.000370979
0.128126
0.000416655
0.127832
0.000460819
0.127507
0.000503079
0.127152
0.000542856
0.126768
0.000579248
0.000611169
0.127577
-0.000582583
-0.127179
0.127924
-0.000515703
0.128228
-0.000441918
0.128489
-0.000361747
0.128706
-0.000276784
0.12888
-0.000188037
0.129009
-9.63083e-05
0.129092
-2.38502e-06
0.129128
9.30089e-05
0.129118
0.000189246
0.12906
0.000285769
0.128954
0.000382078
0.1288
0.000477707
0.128599
0.000572206
0.128351
0.000665136
0.128056
0.000756032
0.127714
0.00084439
0.127327
0.000929637
0.126896
0.00101109
0.00108823
0.124575
-0.00115702
-0.124001
0.125099
-0.00103896
0.125572
-0.000915222
0.125996
-0.000785452
0.126369
-0.000650355
0.126692
-0.000510651
0.126962
-0.000367031
0.12718
-0.000220236
0.127344
-7.10244e-05
0.127454
7.9867e-05
0.127508
0.00023174
0.127506
0.000383926
0.127448
0.000535784
0.127333
0.000686693
0.127162
0.000836046
0.126935
0.000983234
0.126652
0.00112765
0.126313
0.00126867
0.125918
0.00140565
0.00153816
0.120435
-0.00187873
-0.119713
0.121107
-0.00171072
0.121728
-0.00153623
0.122297
-0.00135496
0.122814
-0.00116729
0.123277
-0.000973812
0.123686
-0.000775225
0.124038
-0.000572282
0.124332
-0.000365798
0.124569
-0.000156596
0.124746
5.4505e-05
0.124863
0.000266698
0.12492
0.000479198
0.124915
0.000691237
0.124849
0.000902062
0.124722
0.00111094
0.124532
0.00131714
0.124281
0.00151998
0.123968
0.00171875
0.001913
0.115676
-0.00271657
-0.114838
0.116466
-0.00250062
0.117206
-0.0022766
0.117896
-0.00204437
0.118533
-0.00180424
0.119116
-0.00155682
0.119643
-0.00130283
0.120114
-0.0010431
0.120527
-0.000778527
0.12088
-0.000510031
0.121173
-0.000238549
0.121405
3.49947e-05
0.121574
0.000309686
0.121681
0.000584631
0.121724
0.000858955
0.121703
0.00113181
0.121618
0.00140236
0.121468
0.00166982
0.121253
0.00193343
0.00219262
0.110678
-0.00364136
-0.109753
0.111557
-0.00337973
0.112389
-0.00310814
0.113171
-0.00282658
0.113902
-0.00253538
0.11458
-0.00223518
0.115204
-0.0019268
0.115772
-0.00161115
0.116283
-0.00128924
0.116735
-0.00096211
0.117127
-0.000630796
0.117459
-0.000296343
0.117728
4.02228e-05
0.117935
0.000377898
0.118078
0.000715701
0.118157
0.00105268
0.118172
0.00138791
0.118121
0.00172052
0.118005
0.00204965
0.00237462
0.105704
-0.00462789
-0.104717
0.106647
-0.00432279
0.107545
-0.00400578
0.108395
-0.00367686
0.109196
-0.0033364
0.109946
-0.00298513
0.110643
-0.00262398
0.111286
-0.00225398
0.111873
-0.00187626
0.112403
-0.00149198
0.112874
-0.0011023
0.113286
-0.000708375
0.113638
-0.000311325
0.113928
8.7744e-05
0.114156
0.000487759
0.114321
0.00088768
0.114422
0.0012865
0.11446
0.00168326
0.114432
0.00207703
0.002467
0.100924
-0.00565547
-0.0998963
0.10191
-0.00530897
0.102853
-0.00494859
0.10375
-0.00457423
0.1046
-0.00418635
0.105401
-0.00378578
0.10615
-0.00337359
0.106847
-0.00295096
0.10749
-0.00251919
0.108078
-0.00207954
0.108609
-0.00163331
0.109082
-0.00118176
0.109497
-0.000726107
0.109852
-0.000267547
0.110147
0.00019277
0.110381
0.000653726
0.110554
0.00111424
0.110664
0.00157329
0.110711
0.00202986
0.00248305
0.0964367
-0.00670775
-0.0953844
0.0974495
-0.00632182
0.0984209
-0.00591998
0.0993486
-0.00550192
0.100231
-0.00506824
0.101065
-0.00461992
0.101849
-0.00415822
0.102583
-0.00368454
0.103264
-0.00320033
0.103891
-0.00270702
0.104464
-0.00220604
0.104981
-0.00169875
0.105442
-0.00118648
0.105845
-0.000670482
0.106189
-0.000151995
0.106475
0.000367803
0.106702
0.000887774
0.106868
0.00140682
0.106974
0.0019239
0.00243799
0.0922911
-0.00777227
-0.0912266
0.0933182
-0.00734896
0.0943057
-0.00690744
0.0952509
-0.00644716
0.0961516
-0.00596896
0.0970058
-0.00547407
0.0978116
-0.00496403
0.0985676
-0.00444049
0.0992724
-0.00390514
0.0999249
-0.0033596
0.100524
-0.00280542
0.10107
-0.0022441
0.10156
-0.00167703
0.101995
-0.00110557
0.102374
-0.000530992
0.102697
4.54547e-05
0.102962
0.000622586
0.103169
0.00119926
0.103319
0.00177437
0.00234685
0.0885008
-0.00883985
-0.0874332
0.0895335
-0.00838161
0.0905282
-0.00790212
0.0914818
-0.00740078
0.0923917
-0.0068789
0.0932558
-0.00633812
0.0940721
-0.00578037
0.0948393
-0.00520769
0.0955562
-0.00462207
0.096222
-0.00402533
0.0968357
-0.00341918
0.0973968
-0.00280522
0.0979048
-0.00218494
0.0983589
-0.00155975
0.0987589
-0.000930983
0.0991043
-0.000299926
0.0993947
0.000332194
0.0996298
0.000964195
0.0998092
0.00159494
0.00222331
0.0850572
-0.00990411
-0.0839929
0.0860898
-0.00941422
0.0870861
-0.00889842
0.088042
-0.0083567
0.0889544
-0.00779134
0.089821
-0.00720465
0.0906398
-0.00659921
0.0914097
-0.00597759
0.0921298
-0.0053421
0.0927992
-0.00469481
0.0934176
-0.00403757
0.0939845
-0.00337208
0.0944994
-0.00269989
0.0949621
-0.00202246
0.0953723
-0.00134116
0.0957297
-0.000657308
0.0960341
2.78357e-05
0.0962852
0.000713064
0.0964829
0.00139721
0.00207912
0.0819382
-0.0109612
-0.0808811
0.0829683
-0.0104443
0.0839633
-0.00989348
0.0849178
-0.00931123
0.0858282
-0.00870166
0.0866917
-0.00806822
0.0875069
-0.00741443
0.0882729
-0.00674352
0.088989
-0.00605819
0.0896548
-0.00536069
0.0902703
-0.004653
0.090835
-0.00393684
0.091349
-0.00321382
0.0918119
-0.00248541
0.0922238
-0.00175301
0.0925844
-0.00101796
0.0928938
-0.00028153
0.0931518
0.000455048
0.0933584
0.00119058
0.0019239
0.0791156
-0.0120098
-0.0780669
0.0801434
-0.0114721
0.0811365
-0.0108866
0.0820875
-0.0102622
0.0829922
-0.00960637
0.0838483
-0.00892436
0.0846549
-0.00822097
0.0854115
-0.00750012
0.0861181
-0.00676477
0.0867747
-0.00601728
0.0873813
-0.00525963
0.087938
-0.00449356
0.0884448
-0.00372064
0.0889018
-0.00294236
0.0893089
-0.00216011
0.0896662
-0.00137525
0.0899737
-0.000589055
0.0902315
0.000197214
0.0904397
0.000982356
0.00176516
0.0765595
-0.0130521
-0.0755172
0.0775881
-0.0125007
0.0785796
-0.0118782
0.0795251
-0.0112077
0.0804207
-0.010502
0.0812652
-0.00976884
0.0820586
-0.00901436
0.0828014
-0.0082429
0.0834941
-0.00745744
0.084137
-0.00666025
0.0847306
-0.00585319
0.085275
-0.00503791
0.0857703
-0.00421596
0.0862167
-0.0033888
0.0866144
-0.00255782
0.0869636
-0.00172437
0.0872643
-0.000889764
0.0875167
-5.52609e-05
0.0877212
0.000777909
0.00160851
0.0742414
-0.0140968
-0.0731967
0.075276
-0.0135353
0.0762659
-0.0128681
0.0772029
-0.0121446
0.078085
-0.0113842
0.0789134
-0.0105972
0.0796895
-0.0097905
0.0804148
-0.00896821
0.0810903
-0.00813291
0.0817166
-0.00728653
0.0822941
-0.00643071
0.0828232
-0.005567
0.0833041
-0.00469687
0.083737
-0.00382174
0.0841223
-0.00294304
0.08446
-0.00206211
0.0847505
-0.00118027
0.0849941
-0.00029884
0.085191
0.000580951
0.00145783
0.0721364
-0.0151684
-0.0710649
0.0731827
-0.0145815
0.0741679
-0.0138533
0.0750908
-0.0130675
0.075954
-0.0122474
0.0767617
-0.0114049
0.0775172
-0.010546
0.0782225
-0.00967346
0.0788786
-0.00878907
0.0794864
-0.00789429
0.0800462
-0.00699051
0.0805584
-0.00607915
0.0810231
-0.00516164
0.0814408
-0.00423943
0.0818117
-0.00331393
0.0821361
-0.00238652
0.0824144
-0.00145857
0.082647
-0.000531396
0.0828342
0.000393724
0.00131548
0.0702348
-0.0162983
-0.0691048
0.0712846
-0.0156314
0.0722544
-0.0148231
0.0731548
-0.0139678
0.0739936
-0.0130863
0.0747775
-0.0121888
0.0755105
-0.011279
0.0761946
-0.0103575
0.0768306
-0.00942512
0.0774192
-0.00848286
0.0779606
-0.00753193
0.0784552
-0.00657369
0.0789031
-0.00560959
0.0793048
-0.00464111
0.0796606
-0.00366971
0.0799709
-0.00269681
0.0802361
-0.0017238
0.0804567
-0.000752044
0.0806333
0.000217151
0.00118243
0.0685279
-0.0674169
-0.0174093
0.0695444
-0.0166479
0.070486
-0.0157647
0.0713571
-0.014839
0.0721695
-0.0138987
0.0729297
-0.012949
0.0736407
-0.01199
0.0743041
-0.0110208
0.0749204
-0.0100415
0.07549
-0.00905247
0.0760131
-0.00805505
0.07649
-0.00705061
0.0769211
-0.00604064
0.0773067
-0.0050267
0.0776473
-0.00401029
0.0779434
-0.00299289
0.0781955
-0.00197592
0.0784042
-0.000960776
0.0785702
5.11923e-05
0.00105858
0.0232104
0.0435757
-0.042186
-0.0246001
0.0218106
0.0451517
-0.0437519
0.0204015
0.0468771
-0.045468
0.0189842
0.048782
-0.0473647
0.0175603
0.0509013
-0.0494773
0.0161316
0.0532742
-0.0518455
0.0147007
0.0559451
-0.0545142
0.0132708
0.0589633
-0.0575333
0.0118454
0.0623809
-0.0609555
0.0104291
0.0662503
-0.064834
0.00902752
0.0706202
-0.0692186
0.00764787
0.0755294
-0.0741497
0.0062998
0.0809982
-0.0796501
0.00499672
0.0870168
-0.0857137
0.00375777
0.0935284
-0.0922894
0.00261037
0.100406
-0.0992585
0.00159367
0.10742
-0.106403
0.000763089
0.11419
-0.113359
0.000197665
0.120106
-0.11954
0.124267
-0.12407
0.0232111
0.0449598
-0.0245952
0.0218163
0.0465465
0.0204115
0.0482818
0.0189979
0.0501956
0.0175767
0.0523225
0.0161498
0.054701
0.0147197
0.0573753
0.0132893
0.0603937
0.0118623
0.0638078
0.0104434
0.0676692
0.00903839
0.0720252
0.00765474
0.076913
0.0063026
0.0823503
0.00499605
0.0883234
0.00375501
0.0947694
0.00260792
0.101553
0.00159497
0.108433
0.000771847
0.115013
0.000212211
0.120666
0.124479
0.0231749
0.0463368
-0.0245519
0.0217866
0.0479347
0.0203879
0.0496805
0.0189797
0.0516039
0.017563
0.0537391
0.0161398
0.0561243
0.0147123
0.0588028
0.0132835
0.0618225
0.0118571
0.0652342
0.0104377
0.0690885
0.00903146
0.0734315
0.00764608
0.0782984
0.00629219
0.0837042
0.00498442
0.0896311
0.00374342
0.0960104
0.00259828
0.102698
0.00158957
0.109441
0.00077207
0.11583
0.000215508
0.121222
0.124695
0.0231023
0.0477052
-0.0244706
0.0217222
0.0493148
0.0203311
0.0510716
0.0189298
0.0530052
0.0175195
0.0551495
0.0161016
0.0575421
0.0146786
0.0602258
0.0132533
0.0632478
0.0118295
0.0666581
0.0104118
0.0705062
0.00900645
0.0748368
0.00762157
0.0796833
0.00626816
0.0850576
0.0049614
0.0909379
0.00372249
0.0972494
0.00258101
0.10384
0.00157763
0.110445
0.000766249
0.116642
0.00021434
0.121774
0.124909
0.022994
0.0490637
-0.0243525
0.0216235
0.0506853
0.0202415
0.0524536
0.0188487
0.054398
0.0174461
0.0565521
0.0160354
0.0589528
0.0146186
0.0616425
0.0131987
0.0646677
0.0117794
0.0680774
0.0103654
0.0719202
0.00896313
0.0762391
0.00758096
0.0810654
0.00623028
0.0864083
0.00492674
0.0922414
0.00369206
0.098484
0.00255622
0.104975
0.00155986
0.111441
0.00075614
0.117445
0.000210812
0.122319
0.12512
0.022851
0.050411
-0.0241983
0.0214912
0.0520451
0.0201195
0.0538253
0.0187365
0.055781
0.0173432
0.0579453
0.0159411
0.0603549
0.0145323
0.0630513
0.0131196
0.0660805
0.0117067
0.0694904
0.0102984
0.0733284
0.00890135
0.0776362
0.00752408
0.0824427
0.00617837
0.087754
0.00488033
0.0935395
0.00365212
0.0997122
0.00252404
0.106104
0.00153668
0.112428
0.000742487
0.11824
0.000205697
0.122856
0.125326
0.0226739
0.0517464
-0.0240093
0.0213258
0.0533933
0.0199655
0.0551855
0.0185936
0.0571529
0.0172109
0.059328
0.015819
0.0617469
0.0144197
0.0644506
0.0130159
0.0674843
0.0116113
0.070895
0.0102107
0.0747289
0.00882096
0.079026
0.0074508
0.0838129
0.00611234
0.0890925
0.0048221
0.0948297
0.00360266
0.100932
0.00248459
0.107222
0.00150838
0.113405
0.000725769
0.119022
0.000199458
0.123382
0.125525
0.0224636
0.0530693
-0.0237865
0.0211279
0.054729
0.0197799
0.0565335
0.0184201
0.0585127
0.0170493
0.0606988
0.0156688
0.0631274
0.0142806
0.0658388
0.0128875
0.0688774
0.011493
0.0722895
0.0101022
0.0761197
0.00872184
0.0804063
0.007361
0.0851737
0.00603209
0.0904214
0.00475201
0.0961098
0.00354371
0.10214
0.00243799
0.108327
0.00147521
0.114367
0.000706358
0.119791
0.000192374
0.123896
0.125718
0.0222207
0.0543795
-0.0235308
0.0208978
0.0560519
0.0195627
0.0578686
0.0182159
0.0598595
0.0168581
0.0620566
0.0154905
0.064495
0.014115
0.0672143
0.0127341
0.0702582
0.0113517
0.0736719
0.00997264
0.0774987
0.00860383
0.0817752
0.00725457
0.086523
0.00593757
0.0917384
0.00467006
0.0973773
0.00347534
0.103335
0.0023844
0.109418
0.00143741
0.115314
0.000684503
0.120544
0.00018459
0.124396
0.125902
0.0219453
0.055677
-0.0232429
0.0206354
0.0573618
0.0193139
0.0591902
0.0179809
0.0611925
0.0166371
0.0634004
0.0152837
0.0658484
0.0139223
0.0685757
0.0125556
0.071625
0.0111871
0.0750404
0.00982185
0.078864
0.00846679
0.0831302
0.00713143
0.0878583
0.00582872
0.0930411
0.00457625