/*--------------------------------*- C++ -*----------------------------------*\
  =========                 |
  \\      /  F ield         | OpenFOAM: The Open Source CFD Toolbox
   \\    /   O peration     | Website:  https://openfoam.org
    \\  /    A nd           | Version:  6.0
     \\/     M anipulation  |
\*---------------------------------------------------------------------------*/
FoamFile
{
    version     2.0;
    format      ascii;
    class       surfaceScalarField;
    location    "8.75";
    object      phi;
}
// * * * * * * * * * * * * * * * * * * * * * * * * * * * * * * * * * * * * * //

dimensions      [0 3 -1 0 0 0 0];

internalField   nonuniform List<scalar> 
38030
(
2.36031e-05
-0.0790301
0.0790065
0.000135199
-0.0720723
0.0719607
0.000334706
-0.0663935
0.066194
0.00061956
-0.0617615
0.0614767
0.000985588
-0.0579791
0.057613
0.00142692
-0.0548806
0.0544392
0.00193674
-0.0523305
0.0518206
0.00250781
-0.0502188
0.0496477
0.00313288
-0.0484569
0.0478318
0.00380483
-0.0469734
0.0463014
0.00451693
-0.0457111
0.044999
0.00526282
-0.0446241
0.0438783
0.00603664
-0.0436759
0.0429021
0.00683299
-0.0428371
0.0420407
0.00764699
-0.0420842
0.0412702
0.00847422
-0.0413987
0.0405714
0.00931076
-0.0407656
0.039929
0.0101531
-0.0401731
0.0393307
0.0109982
-0.0396117
0.0387667
0.0118434
-0.0390741
0.0382289
0.0126863
-0.038554
0.0377111
0.0135251
-0.0380468
0.037208
0.014358
-0.0375483
0.0367154
0.0151836
-0.0370552
0.0362296
0.0160008
-0.0365646
0.0357474
0.0168084
-0.0360737
0.035266
0.0176055
-0.0355798
0.0347827
0.0183913
-0.0350803
0.0342946
0.0191645
-0.0345721
0.0337989
-0.0340516
0.033292
0.0199241
3.25705e-05
-0.0790627
0.000150546
-0.0721903
0.000358428
-0.0666014
0.00065403
-0.0620571
0.00103243
-0.0583575
0.00148708
-0.0553352
0.00201059
-0.052854
0.00259529
-0.0508035
0.00323354
-0.0490951
0.00391794
-0.0476578
0.0046415
-0.0464346
0.00539771
-0.0453803
0.00618053
-0.0444587
0.0069845
-0.043641
0.00780464
-0.0429044
0.00863652
-0.0422306
0.00947619
-0.0416052
0.0103202
-0.0410171
0.0111654
-0.040457
0.0120094
-0.039918
0.0128497
-0.0393944
0.0136847
-0.0388817
0.0145126
-0.0383762
0.0153322
-0.0378748
0.0161423
-0.0373748
0.0169422
-0.0368735
0.0177309
-0.0363685
0.0185077
-0.0358571
0.0192718
-0.0353362
-0.0348018
0.020022
3.71427e-05
-0.0790998
0.000162621
-0.0723158
0.000379995
-0.0668187
0.000686828
-0.062364
0.00107765
-0.0587483
0.00154536
-0.0558029
0.00208211
-0.0533907
0.00267979
-0.0514012
0.00333044
-0.0497458
0.00402638
-0.0483537
0.0047604
-0.0471687
0.0055258
-0.0461458
0.00631645
-0.0452494
0.00712677
-0.0444514
0.00795175
-0.0437293
0.00878691
-0.0430657
0.00962832
-0.0424467
0.0104725
-0.0418613
0.0113165
-0.041301
0.0121578
-0.0407593
0.0129942
-0.0402308
0.0138239
-0.0397114
0.0146455
-0.0391977
0.0154577
-0.038687
0.0162596
-0.0381767
0.0170504
-0.0376644
0.0178295
-0.0371476
0.0185962
-0.0366239
0.01935
-0.0360899
-0.0355417
0.0200899
4.06117e-05
-0.0791404
0.000173309
-0.0724485
0.000400247
-0.0670457
0.000718278
-0.062682
0.00112131
-0.0591513
0.00160171
-0.0562833
0.00215114
-0.0539402
0.00276113
-0.0520112
0.00342335
-0.050408
0.0041299
-0.0490603
0.00487334
-0.0479121
0.00564682
-0.0469192
0.00644409
-0.0460467
0.0072595
-0.0452668
0.00808799
-0.0445578
0.00892509
-0.0439028
0.00976686
-0.0432884
0.0106099
-0.0427043
0.0114513
-0.0421424
0.0122885
-0.0415965
0.0131195
-0.0410618
0.0139427
-0.0405345
0.0147566
-0.0400116
0.0155601
-0.0394906
0.0163526
-0.0389691
0.0171332
-0.038445
0.0179016
-0.037916
0.0186573
-0.0373795
0.0193997
-0.0368323
-0.0362703
0.0201283
4.36614e-05
-0.0791841
0.000183256
-0.0725881
0.000419566
-0.067282
0.000748562
-0.063011
0.00116346
-0.0595662
0.00165607
-0.0567759
0.00221758
-0.0545017
0.00283912
-0.0526327
0.00351207
-0.051081
0.00422826
-0.0497765
0.00498006
-0.0486639
0.00576048
-0.0476997
0.00656316
-0.0468493
0.00738239
-0.046086
0.00821309
-0.0453885
0.00905078
-0.0447405
0.00989155
-0.0441292
0.0107321
-0.0435448
0.0115694
-0.0429798
0.0124013
-0.0424284
0.0132257
-0.0418862
0.014041
-0.0413498
0.014846
-0.0408166
0.0156397
-0.0402843
0.0164215
-0.0397509
0.017191
-0.0392144
0.0179476
-0.0386727
0.0186912
-0.0381231
0.0194215
-0.0375626
-0.0369869
0.020138
4.64993e-05
-0.0792306
0.000192722
-0.0727343
0.000438135
-0.0675274
0.000777766
-0.0633506
0.00120411
-0.0599926
0.00170838
-0.0572802
0.0022813
-0.0550746
0.00291362
-0.053265
0.00359641
-0.0517637
0.00432125
-0.0505013
0.00508033
-0.049423
0.00586653
-0.0484859
0.0066734
-0.0476562
0.00749518
-0.0469078
0.00832678
-0.0462201
0.00916374
-0.0455775
0.0100022
-0.0449677
0.0108388
-0.0443814
0.0116709
-0.0438118
0.0124961
-0.0432536
0.0133125
-0.0427026
0.0141188
-0.0421561
0.0149137
-0.0416116
0.0156966
-0.0410672
0.0164668
-0.0405211
0.017224
-0.0399716
0.017968
-0.0394167
0.0186987
-0.0388539
0.0194161
-0.0382799
-0.0376906
0.0201198
4.92095e-05
-0.0792798
0.000201824
-0.0728869
0.00045604
-0.0677816
0.000805925
-0.0637005
0.00124323
-0.0604299
0.00175857
-0.0577955
0.0023422
-0.0556582
0.00298449
-0.0539073
0.00367619
-0.0524554
0.00440866
-0.0512338
0.00517393
-0.0501883
0.00596474
-0.0492767
0.00677458
-0.0484661
0.00759766
-0.0477309
0.00842887
-0.0470513
0.00926379
-0.0464124
0.0100986
-0.0458025
0.0109301
-0.0452129
0.0117556
-0.0446373
0.0125729
-0.0440708
0.0133802
-0.04351
0.0141763
-0.0429522
0.0149601
-0.0423954
0.015731
-0.0418381
0.0164886
-0.0412787
0.0172327
-0.0407157
0.0179633
-0.0401473
0.0186804
-0.039571
0.0193842
-0.0389837
-0.0383809
0.0200745
5.18242e-05
-0.0793316
0.000210613
-0.0730457
0.000473317
-0.0680443
0.000833044
-0.0640602
0.00128079
-0.0608776
0.00180658
-0.0583213
0.00240018
-0.0562518
0.00305159
-0.0545587
0.00375126
-0.0531551
0.00449034
-0.0519728
0.00526069
-0.0509586
0.00605495
-0.0500709
0.00686654
-0.0492776
0.00768966
-0.048554
0.00851922
-0.0478809
0.00935083
-0.047244
0.0101808
-0.0466324
0.0110059
-0.046038
0.0118235
-0.045455
0.0126318
-0.044879
0.0134289
-0.0443071
0.0142137
-0.043737
0.0149854
-0.0431671
0.0157434
-0.0425961
0.0164875
-0.0420229
0.0172178
-0.041446
0.0179342
-0.0408637
0.018637
-0.0402739
0.0193266
-0.0396732
-0.0390573
0.0200029
5.43594e-05
-0.079386
0.000219108
-0.0732104
0.000489977
-0.0683152
0.000859112
-0.0644294
0.00131676
-0.0613353
0.00185234
-0.0588569
0.00245515
-0.0568546
0.00311481
-0.0552184
0.0038215
-0.0538618
0.00456614
-0.0527175
0.00534045
-0.0517329
0.00613699
-0.0508675
0.00694913
-0.0500898
0.00777106
-0.0493759
0.00859772
-0.0487076
0.00942478
-0.0480711
0.0102486
-0.0474562
0.0110661
-0.0468555
0.0118748
-0.0462637
0.0126728
-0.0456771
0.0134586
-0.0450929
0.0142312
-0.0445095
0.0149898
-0.0439257
0.0157341
-0.0433404
0.016464
-0.0427528
0.0171796
-0.0421616
0.0178812
-0.0415653
0.0185693
-0.0409619
0.0192441
-0.040348
-0.0397193
0.0199062
5.6818e-05
-0.0794428
0.000227317
-0.0733809
0.000506015
-0.0685939
0.000884109
-0.0648075
0.00135109
-0.0618022
0.00189578
-0.0594016
0.00250702
-0.0574659
0.00317405
-0.0558854
0.00388678
-0.0545745
0.00463594
-0.0534666
0.00541311
-0.0525101
0.00621077
-0.0516651
0.00702226
-0.0509013
0.00784178
-0.0501954
0.00866433
-0.0495301
0.00948563
-0.0488924
0.0103021
-0.0482727
0.0111109
-0.0476643
0.0119096
-0.0470624
0.0126963
-0.0464638
0.0134698
-0.0458664
0.0142292
-0.0452689
0.0149739
-0.0446704
0.0157036
-0.0440702
0.0164186
-0.0434677
0.0171189
-0.042862
0.0178052
-0.0422516
0.0184779
-0.0416346
0.0191377
-0.0410078
-0.0403667
0.0197851
5.92016e-05
-0.079502
0.000235236
-0.073557
0.000521421
-0.0688801
0.000908011
-0.0651941
0.00138375
-0.062278
0.00193687
-0.0599547
0.00255573
-0.0580847
0.00322924
-0.0565589
0.00394704
-0.0552923
0.00469966
-0.0542193
0.00547858
-0.053289
0.0062762
-0.0524627
0.00708587
-0.051711
0.00790181
-0.0510114
0.00871906
-0.0503474
0.00953344
-0.0497067
0.0103415
-0.0490807
0.0111404
-0.0484632
0.0119279
-0.04785
0.0127025
-0.0472383
0.0134628
-0.0466267
0.0142081
-0.0460142
0.014938
-0.0454003
0.0156525
-0.0447847
0.0163518
-0.044167
0.0170364
-0.0435465
0.0177068
-0.0429221
0.0183638
-0.0422916
0.0190082
-0.0416522
-0.0409991
0.0196406
6.15094e-05
-0.0795635
0.000242859
-0.0737383
0.000536182
-0.0691734
0.000930795
-0.0655887
0.0014147
-0.0627619
0.00197554
-0.0605156
0.00260123
-0.0587104
0.00328032
-0.057238
0.0040022
-0.0560142
0.00475724
-0.0549743
0.00553681
-0.0540686
0.00633327
-0.0532592
0.00713996
-0.0525176
0.00795115
-0.0518225
0.00876195
-0.0511582
0.00956829
-0.0505131
0.0103668
-0.0498793
0.0111548
-0.0492512
0.0119303
-0.0486254
0.0126916
-0.0479997
0.0134378
-0.0473729
0.0141682
-0.0467446
0.0148827
-0.0461147
0.0155813
-0.0454833
0.0162644
-0.0448501
0.0169326
-0.0442148
0.0175868
-0.0435762
0.0182277
-0.0429326
0.0188564
-0.0422808
-0.0416164
0.0194737
6.37373e-05
-0.0796273
0.00025018
-0.0739248
0.000550283
-0.0694735
0.000952441
-0.0659908
0.00144392
-0.0632534
0.00201178
-0.0610834
0.00264348
-0.0593421
0.00332725
-0.0579218
0.00405223
-0.0567392
0.00480865
-0.0557307
0.00558778
-0.0548477
0.00638196
-0.0540534
0.00718455
-0.0533202
0.00798987
-0.0526279
0.00879312
-0.0519614
0.00959033
-0.0513103
0.0103783
-0.0506672
0.0111544
-0.0500274
0.0119168
-0.0493878
0.0126641
-0.0487469
0.0133953
-0.0481042
0.0141101
-0.0474594
0.0148084
-0.046813
0.0154905
-0.0461653
0.0161569
-0.0455165
0.0168083
-0.0448662
0.0174459
-0.0442137
0.0180705
-0.0435572
0.0186832
-0.0428936
-0.0422184
0.0192852
6.58832e-05
-0.0796931
0.000257189
-0.0741161
0.000563714
-0.06978
0.000972935
-0.0664
0.00147138
-0.0637518
0.00204555
-0.0616576
0.00268246
-0.0599791
0.00337
-0.0586093
0.00409712
-0.0574663
0.00485388
-0.0564875
0.00563151
-0.0556253
0.00642232
-0.0548442
0.00721972
-0.0541176
0.00801808
-0.0534262
0.00881271
-0.052756
0.00959976
-0.0520973
0.0103761
-0.0514436
0.0111394
-0.0507907
0.0118879
-0.0501363
0.0126203
-0.0494793
0.0133359
-0.0488197
0.0140344
-0.0481579
0.0147159
-0.0474946
0.0153808
-0.0468303
0.01603
-0.0461656
0.0166642
-0.0455005
0.0172848
-0.0448342
0.0178927
-0.0441651
0.0184894
-0.0434903
-0.042805
0.019076
6.79431e-05
-0.0797611
0.00026388
-0.074312
0.000576467
-0.0700926
0.000992266
-0.0668158
0.00149708
-0.0642566
0.00207685
-0.0622374
0.00271815
-0.0606204
0.00340857
-0.0592997
0.00413686
-0.0581946
0.00489296
-0.0572436
0.00566804
-0.0564004
0.00645442
-0.0556306
0.00724556
-0.0549088
0.00803592
-0.0542166
0.00882092
-0.053541
0.00959683
-0.0528732
0.0103607
-0.0522075
0.0111103
-0.0515403
0.011844
-0.0508699
0.0125607
-0.0501961
0.0132599
-0.0495189
0.0139415
-0.0488395
0.0146056
-0.0481587
0.0152529
-0.0474777
0.0158844
-0.0467971
0.016501
-0.0461172
0.0171042
-0.0454374
0.0176952
-0.0447562
0.0182756
-0.0440707
-0.0433761
0.0188467
6.99145e-05
-0.079831
0.000270249
-0.0745124
0.000588536
-0.0704109
0.00101043
-0.0672377
0.00152103
-0.0647672
0.00210568
-0.062822
0.00275057
-0.0612652
0.00344299
-0.0599922
0.0041715
-0.0589231
0.00492594
-0.057998
0.00569744
-0.0571719
0.00647837
-0.0564115
0.00726223
-0.0556926
0.00804359
-0.0549979
0.00881798
-0.0543154
0.00958183
-0.0536371
0.0103323
-0.052958
0.0110674
-0.0522753
0.0117856
-0.0515881
0.0124859
-0.0508964
0.0131681
-0.0502011
0.013832
-0.0495034
0.0144782
-0.0488049
0.0151074
-0.0481068
0.0157207
-0.0474103
0.0163193
-0.0467158
0.0169048
-0.0460229
0.0174787
-0.0453301
0.0180426
-0.0446346
-0.0439316
0.0185981
7.1793e-05
-0.0799028
0.000276292
-0.0747169
0.000599926
-0.0707345
0.00102745
-0.0676653
0.00154323
-0.065283
0.00213207
-0.0634108
0.00277974
-0.0619129
0.00347329
-0.0606857
0.00420108
-0.0596509
0.00495289
-0.0587498
0.00571984
-0.0579388
0.00649431
-0.057186
0.00726992
-0.0564682
0.00804132
-0.0557693
0.0088042
-0.0550783
0.00955511
-0.054388
0.0102914
-0.0536943
0.0110112
-0.0529951
0.0117131
-0.05229
0.0123965
-0.0515797
0.0130609
-0.0508656
0.0137067
-0.0501492
0.0143345
-0.0494326
0.014945
-0.0487174
0.0155397
-0.048005
0.0161199
-0.047296
0.0166873
-0.0465903
0.0172438
-0.0458865
0.017791
-0.0451818
-0.0444712
0.0183307
7.35751e-05
-0.0799764
0.00028201
-0.0749253
0.000610645
-0.0710632
0.00104333
-0.068098
0.00156371
-0.0658034
0.00215604
-0.0640032
0.00280572
-0.0625626
0.00349952
-0.0613795
0.00422568
-0.0603771
0.00497392
-0.0594981
0.00573534
-0.0587003
0.00650242
-0.0579531
0.00726884
-0.0572346
0.00802939
-0.0565299
0.00877989
-0.0558288
0.00951706
-0.0551252
0.0102384
-0.0544156
0.0109422
-0.0536989
0.0116272
-0.0529751
0.0122929
-0.0522454
0.0129392
-0.0515118
0.0135663
-0.0507764
0.0141751
-0.0500413
0.0147665
-0.0493089
0.015342
-0.0485805
0.0159034
-0.0478573
0.0164524
-0.0471393
0.016991
-0.0464252
0.0175212
-0.045712
-0.044995
0.0180449
7.52586e-05
-0.0800516
0.000287407
-0.0751374
0.000620715
-0.0713965
0.00105812
-0.0685354
0.00158253
-0.0663278
0.00217767
-0.0645983
0.00282857
-0.0632135
0.00352177
-0.0620727
0.00424541
-0.0611007
0.00498914
-0.0602418
0.00574413
-0.0594553
0.0065029
-0.0587118
0.00725925
-0.057991
0.0080081
-0.0572787
0.00874543
-0.0565661
0.00946811
-0.0558479
0.0101738
-0.0551214
0.010861
-0.054386
0.0115285
-0.0536426
0.0121761
-0.052893
0.0128036
-0.0521393
0.0134115
-0.0513843
0.0140008
-0.0506306
0.0145727
-0.0498807
0.0151286
-0.0491365
0.0156706
-0.0483993
0.0162006
-0.0476693
0.0167209
-0.0469455
0.0172338
-0.0462249
-0.0455024
0.0177412
7.68387e-05
-0.0801285
0.000292497
-0.0753531
0.000630173
-0.0717341
0.00107186
-0.0689771
0.00159974
-0.0668556
0.002197
-0.0651956
0.00284835
-0.0638648
0.00354012
-0.0627645
0.00426036
-0.0618209
0.00499871
-0.0609802
0.00574638
-0.0602029
0.00649598
-0.0594614
0.00724143
-0.0587364
0.00797781
-0.0580151
0.00870123
-0.0572896
0.00940875
-0.0565554
0.0100982
-0.0558108
0.0107682
-0.055056
0.0114177
-0.0542922
0.0120466
-0.0535218
0.0126549
-0.0527477
0.0132433
-0.0519727
0.0138127
-0.0512
0.0143644
-0.0504324
0.0149003
-0.0496723
0.0154223
-0.0489213
0.0159328
-0.0481798
0.0164342
-0.0474469
0.0169291
-0.0467198
-0.0459931
0.0174198
7.83142e-05
-0.0802068
0.000297304
-0.0755721
0.000639072
-0.0720759
0.00108464
-0.0694226
0.00161542
-0.0673864
0.00221413
-0.0657943
0.00286516
-0.0645159
0.00355468
-0.063454
0.00427066
-0.0625369
0.00500278
-0.0617123
0.00574229
-0.0609424
0.00648191
-0.0602011
0.0072157
-0.0594702
0.00793888
-0.0587383
0.00864775
-0.0579984
0.00933951
-0.0572471
0.0100122
-0.0564835
0.0106644
-0.0557082
0.0112956
-0.0549234
0.0119054
-0.0541317
0.0124942
-0.0533364
0.0130626
-0.0525411
0.0136116
-0.0517491
0.0141428
-0.0509636
0.014658
-0.0501875
0.0151595
-0.0494227
0.0156497
-0.04867
0.0161315
-0.0479288
0.0166077
-0.0471961
-0.0464664
0.017081
7.96875e-05
-0.0802865
0.000301872
-0.0757943
0.0006475
-0.0724215
0.00109654
-0.0698717
0.00162968
-0.0679196
0.00222915
-0.0663938
0.00287909
-0.0651658
0.00356555
-0.0641405
0.00427645
-0.0632478
0.00500151
-0.0624373
0.00573207
-0.061673
0.00646096
-0.06093
0.00718238
-0.0601916
0.00789172
-0.0594476
0.00858544
-0.0586921
0.00926092
-0.0579226
0.00991634
-0.0571389
0.0105505
-0.0563424
0.0111629
-0.0555358
0.0117534
-0.0547222
0.0123224
-0.0539054
0.0128705
-0.0530892
0.0133989
-0.0522775
0.0139092
-0.0514739
0.0144032
-0.0506815
0.0148833
-0.0499029
0.0153524
-0.0491391
0.0158136
-0.04839
0.0162702
-0.0476526
-0.0469213
0.0167251
8.09749e-05
-0.0803674
0.000306283
-0.0760196
0.000655581
-0.0727708
0.00110771
-0.0703238
0.00164263
-0.0684545
0.00224218
-0.0669933
0.00289026
-0.0658139
0.00357285
-0.064823
0.00427787
-0.0639529
0.0049951
-0.0631546
0.00571595
-0.0623939
0.00643341
-0.0616474
0.00714182
-0.0609
0.00783674
-0.0601426
0.00851482
-0.0593702
0.00917359
-0.0585814
0.00981141
-0.0577767
0.0104273
-0.0569583
0.0110207
-0.0561292
0.0115917
-0.0552932
0.0121406
-0.0544544
0.0126684
-0.0536169
0.0131759
-0.0527851
0.0136649
-0.0519628
0.0141372
-0.0511538
0.0145953
-0.050361
0.0150423
-0.0495861
0.0154816
-0.0488293
0.0159172
-0.0480882
-0.0473566
0.0163524
8.22187e-05
-0.0804497
0.000310678
-0.076248
0.000663502
-0.0731237
0.00111832
-0.0707786
0.00165442
-0.0689906
0.00225331
-0.0675922
0.00289876
-0.0664593
0.00357669
-0.065501
0.00427506
-0.0646512
0.0049837
-0.0638632
0.00569415
-0.0631043
0.00639953
-0.0623528
0.00709435
-0.0615949
0.00777436
-0.0608226
0.00843636
-0.0600322
0.00907809
-0.0592231
0.00969806
-0.0583967
0.0102954
-0.0575556
0.0108697
-0.0567035
0.0114212
-0.0558447
0.0119502
-0.0549834
0.0124576
-0.0541242
0.0129443
-0.0532718
0.0134118
-0.0524303
0.013862
-0.051604
0.0142974
-0.0507964
0.0147212
-0.0500099
0.0151373
-0.0492454
0.01555
-0.0485009
-0.0477703
0.0159638
8.35342e-05
-0.0805332
0.000315308
-0.0764798
0.000671531
-0.0734799
0.00112858
-0.0712357
0.0016652
-0.0695272
0.00226267
-0.0681897
0.00290469
-0.0671014
0.00357718
-0.0661735
0.00426814
-0.0653422
0.00496748
-0.0645625
0.00566688
-0.0638037
0.00635959
-0.0630455
0.00704031
-0.0622756
0.00770496
-0.0614872
0.00835056
-0.0606778
0.00897501
-0.0598476
0.00957698
-0.0589986
0.0101558
-0.0581344
0.0107111
-0.0572589
0.0112432
-0.0563767
0.0117525
-0.0554927
0.0122397
-0.0546115
0.0127057
-0.0537379
0.013152
-0.0528766
0.0135801
-0.0520321
0.0139923
-0.0512086
0.0143919
-0.0504094
0.0147829
-0.0496364
0.0151707
-0.0488887
-0.04816
0.0155604
8.51769e-05
-0.0806184
0.000320591
-0.0767152
0.000680033
-0.0738393
0.00113874
-0.0716944
0.0016751
-0.0700636
0.00227034
-0.0687849
0.00290812
-0.0677391
0.0035744
-0.0668398
0.00425723
-0.066025
0.0049466
-0.0652519
0.00563432
-0.0644914
0.00631383
-0.063725
0.00698
-0.0629417
0.00762894
-0.0621362
0.00825787
-0.0613068
0.00886488
-0.0604546
0.00944881
-0.0595826
0.0100091
-0.0586946
0.0105456
-0.0577954
0.0110587
-0.0568898
0.0115487
-0.0559827
0.0120163
-0.0550791
0.0124624
-0.054184
0.012888
-0.0533022
0.0132944
-0.0524386
0.0136836
-0.0515977
0.0140582
-0.0507841
0.0144226
-0.0500008
0.0147827
-0.0492488
-0.0485225
0.0151452
8.76451e-05
-0.080706
0.000327153
-0.0769547
0.000689453
-0.0742016
0.00114903
-0.0721539
0.00168424
-0.0705988
0.00227636
-0.069377
0.0029091
-0.0683719
0.00356842
-0.0674991
0.00424241
-0.066699
0.00492117
-0.0659307
0.00559666
-0.0651669
0.00626248
-0.0643908
0.00691369
-0.063593
0.00754662
-0.0627691
0.00815868
-0.0619188
0.00874817
-0.0610441
0.00931412
-0.0601485
0.00985611
-0.0592366
0.0103742
-0.0583135
0.0108686
-0.0573842
0.0113401
-0.0564541
0.011789
-0.0555281
0.0122163
-0.0546112
0.0126225
-0.0537084
0.0130086
-0.0528246
0.0133756
-0.0519648
0.0137257
-0.0511341
0.0140624
-0.0503375
0.014392
-0.0495784
-0.0488539
0.0147234
9.18663e-05
-0.0807979
0.000335967
-0.0771988
0.000700351
-0.074566
0.00115967
-0.0726133
0.00169267
-0.0711318
0.00228076
-0.0699651
0.00290763
-0.0689988
0.00355924
-0.0681507
0.00422373
-0.0673635
0.0048913
-0.0665982
0.00555403
-0.0658297
0.00620571
-0.0650425
0.00684161
-0.0642289
0.00745827
-0.0633858
0.00805332
-0.0625139
0.00862527
-0.061616
0.00917334
-0.0606966
0.00969731
-0.0597606
0.0101973
-0.0588135
0.0106739
-0.0578608
0.0111276
-0.0569078
0.0115592
-0.0559596
0.0119691
-0.0550212
0.012358
-0.0540973
0.012726
-0.0531927
0.0130736
-0.0523124
0.0134013
-0.0514618
0.0137108
-0.0506471
0.0140074
-0.049875
-0.0491501
0.0143036
0.000100288
-0.0808982
0.000349026
-0.0774476
0.000713539
-0.0749305
0.00117083
-0.0730706
0.00170033
-0.0716613
0.0022834
-0.0705482
0.00290362
-0.069619
0.00354685
-0.0687939
0.00420123
-0.0680179
0.00485704
-0.0672541
0.00550653
-0.0664791
0.00614366
-0.0656796
0.00676392
-0.0648491
0.00736409
-0.0639859
0.00794202
-0.0630918
0.00849643
-0.0621704
0.00902677
-0.0612269
0.009533
-0.0602668
0.0100155
-0.059296
0.0104749
-0.0583202
0.0109119
-0.0573448
0.0113275
-0.0563751
0.0117221
-0.0554158
0.0120964
-0.0544715
0.0124502
-0.0535465
0.0127831
-0.0526453
0.0130939
-0.0517726
0.0133803
-0.0509335
0.013643
-0.0501377
-0.0494071
0.0139001
0.000120689
-0.0810189
0.000369302
-0.0776962
0.000729299
-0.0752905
0.00118212
-0.0735234
0.0017068
-0.072186
0.00228402
-0.0711254
0.00289692
-0.0702319
0.00353116
-0.0694282
0.00417487
-0.0686616
0.00481843
-0.0678976
0.00545422
-0.0671149
0.00607643
-0.0663019
0.00668076
-0.0654534
0.00726423
-0.0645694
0.00782492
-0.0636525
0.00836179
-0.0627073
0.00887451
-0.0617396
0.00936326
-0.0607556
0.00982862
-0.0597614
0.0102715
-0.058763
0.0106928
-0.0577662
0.0110937
-0.056776
0.0114753
-0.0557974
0.0118384
-0.0548347
0.0121838
-0.0538919
0.0125113
-0.0529728
0.0128192
-0.0520805
0.0131009
-0.0512152
0.0133417
-0.0503785
-0.0496034
0.013538
0.0835073
9.15062e-05
-0.0835988
0.0834261
8.12382e-05
0.0833479
7.81706e-05
0.0832702
7.7674e-05
0.083192
7.82675e-05
0.0831126
7.93753e-05
0.0830319
8.06794e-05
0.0829499
8.20141e-05
0.0828666
8.32989e-05
0.0827821
8.45028e-05
0.0826965
8.56122e-05
0.0826099
8.66227e-05
0.0825223
8.75348e-05
0.082434
8.8347e-05
0.0823449
8.90603e-05
0.0822553
8.9674e-05
0.0821651
9.01889e-05
0.0820745
9.06045e-05
0.0819835
9.09181e-05
0.0818924
9.11291e-05
0.0818012
9.12333e-05
0.08171
9.12247e-05
0.0816189
9.10905e-05
0.0815281
9.0813e-05
0.0814377
9.03538e-05
0.0813481
8.96399e-05
0.0812595
8.85118e-05
0.081173
8.65978e-05
0.0810902
8.27287e-05
7.13606e-05
0.0839851
0.000262235
-0.0841558
0.0838081
0.000258213
0.0836278
0.000258463
0.0834443
0.000261222
0.0832573
0.000265293
0.0830665
0.000270093
0.082872
0.000275233
0.0826736
0.000280449
0.0824713
0.000285577
0.0822653
0.000290518
0.0820557
0.000295218
0.0818426
0.000299644
0.0816264
0.000303773
0.0814072
0.000307592
0.0811851
0.00031109
0.0809605
0.000314261
0.0807336
0.000317099
0.0805046
0.000319598
0.0802738
0.000321751
0.0800414
0.000323551
0.0798076
0.000324985
0.0795728
0.000326039
0.0793372
0.000326683
0.0791012
0.000326875
0.078865
0.000326542
0.0786291
0.000325553
0.0783939
0.000323669
0.0781601
0.000320409
0.0779281
0.000314675
0.000303324
0.0843311
0.000480401
-0.0845493
0.0841009
0.000488475
0.0838613
0.00049798
0.0836138
0.000508743
0.0833588
0.000520266
0.0830967
0.000532215
0.0828276
0.000544319
0.0825517
0.00055635
0.0822692
0.000568134
0.0819802
0.000579547
0.0816849
0.000590506
0.0813836
0.000600948
0.0810765
0.00061083
0.080764
0.000620116
0.0804463
0.000628784
0.0801237
0.000636813
0.0797966
0.000644185
0.0794654
0.000650888
0.0791302
0.000656905
0.0787915
0.000662219
0.0784497
0.000666811
0.0781051
0.000670652
0.0777581
0.000673705
0.077409
0.000675914
0.0770584
0.000677191
0.0767065
0.000677401
0.0763539
0.000676324
0.0760007
0.000673591
0.0756469
0.000668519
0.000659664
0.0844441
0.000721455
-0.0846851
0.0841887
0.000743891
0.0839204
0.000766285
0.0836403
0.000788849
0.0833491
0.000811465
0.0830473
0.000833988
0.0827353
0.000856268
0.0824135
0.000878147
0.0820822
0.000899485
0.0817416
0.000920166
0.081392
0.000940099
0.0810337
0.000959212
0.0806671
0.000977442
0.0802925
0.00099474
0.0799102
0.00101107
0.0795206
0.00102639
0.0791241
0.00104068
0.0787211
0.00105392
0.0783119
0.00106606
0.077897
0.0010771
0.0774769
0.00108699
0.0770518
0.00109571
0.0766223
0.0011032
0.0761888
0.00110942
0.0757517
0.00111426
0.0753115
0.00111762
0.0748685
0.00111932
0.074423
0.00111912
0.0739749
0.00111663
0.00111117
0.0842808
0.000965574
-0.0845249
0.0840206
0.00100407
0.0837451
0.0010418
0.0834549
0.00107897
0.0831508
0.00111558
0.0828332
0.00115158
0.0825026
0.00118687
0.0821594
0.00122137
0.0818039
0.00125496
0.0814366
0.00128754
0.0810576
0.00131903
0.0806675
0.00134935
0.0802665
0.00137842
0.0798551
0.0014062
0.0794335
0.00143262
0.0790023
0.00145764
0.0785617
0.00148123
0.0781123
0.00150334
0.0776544
0.00152393
0.0771885
0.00154298
0.0767151
0.00156043
0.0762346
0.00157625
0.0757474
0.00159038
0.075254
0.00160277
0.0747549
0.00161334
0.0742506
0.00162199
0.0737413
0.0016286
0.0732274
0.001633
0.072709
0.00163499
0.00163425
0.0838336
0.00119848
-0.0840665
0.0835832
0.0012545
0.0833156
0.00130936
0.0830314
0.00136318
0.082731
0.00141599
0.0824148
0.00146774
0.0820833
0.00151837
0.0817369
0.00156781
0.0813759
0.00161596
0.0810007
0.00166275
0.0806116
0.00170808
0.0802091
0.00175187
0.0797935
0.00179405
0.0793651
0.00183456
0.0789244
0.00187332
0.0784718
0.00191029
0.0780076
0.00194541
0.0775323
0.00197862
0.0770464
0.00200989
0.0765502
0.00203916
0.0760442
0.00206638
0.075529
0.0020915
0.0750049
0.00211448
0.0744724
0.00213523
0.073932
0.00215371
0.0733842
0.00216982
0.0728293
0.00218348
0.0722678
0.00219458
0.0716998
0.002203
0.00220858
0.0831193
0.00141069
-0.0833315
0.0828884
0.0014854
0.082639
0.00155872
0.0823715
0.00163068
0.0820862
0.00170129
0.0817835
0.0017705
0.0814636
0.00183824
0.081127
0.00190445
0.0807739
0.00196903
0.0804047
0.00203191
0.0800198
0.00209299
0.0796195
0.00215219
0.0792041
0.00220942
0.0787741
0.00226461
0.0783297
0.00231769
0.0778714
0.00236858
0.0773996
0.00241723
0.0769147
0.00246356
0.076417
0.00250753
0.0759071
0.00254906
0.0753854
0.0025881
0.0748523
0.0026246
0.0743083
0.00265848
0.0737539
0.00268969
0.0731894
0.00271816
0.0726154
0.00274383
0.0720323
0.00276661
0.0714404
0.00278643
0.0708402
0.00280323
0.0028169
0.0821689
0.00159653
-0.0823547
0.0819635
0.00169077
0.0817388
0.00178347
0.0814949
0.0018746
0.081232
0.00196414
0.0809505
0.00205203
0.0806505
0.00213818
0.0803325
0.00222251
0.0799966
0.00230493
0.0796431
0.00238536
0.0792724
0.00246369
0.0788848
0.00253982
0.0784805
0.00261368
0.07806
0.00268516
0.0776235
0.00275419
0.0771714
0.00282068
0.076704
0.00288456
0.0762219
0.00294575
0.0757252
0.00300417
0.0752145
0.00305976
0.0746902
0.00311244
0.0741526
0.00316216
0.0736023
0.00320882
0.0730396
0.00325238
0.072465
0.00329277
0.0718789
0.0033299
0.0712818
0.00336373
0.070674
0.00339419
0.070056
0.00342124
0.00344476
0.0810205
0.00175327
-0.0811772
0.0808437
0.00186755
0.080647
0.00198019
0.0804304
0.00209114
0.0801942
0.00220034
0.0799386
0.0023077
0.0796636
0.00241312
0.0793696
0.00251652
0.0790568
0.00261777
0.0787253
0.0027168
0.0783755
0.00281348
0.0780077
0.00290771
0.077622
0.00299938
0.0772187
0.0030884
0.0767982
0.00317467
0.0763608
0.00325809
0.0759068
0.00333857
0.0754365
0.00341603
0.0749503
0.00349037
0.0744486
0.00356152
0.0739316
0.00362938
0.0733999
0.00369389
0.0728538
0.00375497
0.0722936
0.00381253
0.0717199
0.0038665
0.071133
0.00391682
0.0705333
0.00396343
0.0699212
0.00400626
0.0692972
0.00404526
0.00408035
0.0797141
0.00188031
-0.0798411
0.0795668
0.00201484
0.0793993
0.0021477
0.0792116
0.0022788
0.0790039
0.00240804
0.0787763
0.00253532
0.0785289
0.00266053
0.0782618
0.00278355
0.0779753
0.00290428
0.0776695
0.00302259
0.0773447
0.00313836
0.0770009
0.00325147
0.0766385
0.0033618
0.0762576
0.00346925
0.0758586
0.0035737
0.0754416
0.00367505
0.075007
0.00377318
0.074555
0.00386801
0.074086
0.00395941
0.0736002
0.00404731
0.073098
0.0041316
0.0725797
0.0042122
0.0720456
0.00428901
0.0714962
0.00436195
0.0709318
0.00443094
0.0703527
0.0044959
0.0697594
0.00455677
0.0691521
0.00461348
0.0685314
0.00466598
0.00471417
0.0782887
0.0019786
-0.078387
0.0781702
0.00213337
0.0780314
0.00228647
0.0778724
0.00243777
0.0776933
0.00258716
0.0774941
0.00273453
0.0772749
0.00287973
0.0770358
0.00302265
0.0767769
0.00316316
0.0764984
0.00330111
0.0762004
0.00343639
0.075883
0.00356885
0.0755464
0.00369837
0.0751908
0.00382483
0.0748164
0.00394809
0.0744235
0.00406804
0.0740121
0.00418455
0.0735826
0.00429752
0.0731352
0.00440683
0.0726701
0.00451237
0.0721877
0.00461402
0.0716882
0.0047117
0.0711719
0.0048053
0.0706391
0.00489472
0.0700902
0.00497987
0.0695254
0.00506066
0.0689452
0.00513702
0.0683498
0.00520888
0.0677396
0.00527618
0.00533881
0.0767801
0.00205011
-0.0768516
0.0766885
0.00222492
0.0765769
0.00239806
0.0764453
0.00256942
0.0762936
0.00273886
0.0761219
0.00290624
0.0759302
0.00307141
0.0757186
0.00323424
0.0754872
0.00339458
0.075236
0.00355228
0.0749652
0.00370721
0.0746748
0.00385922
0.074365
0.00400817
0.0740359
0.00415392
0.0736877
0.00429633
0.0733204
0.00443527
0.0729344
0.00457061
0.0725297
0.00470223
0.0721065
0.00482998
0.0716651
0.00495376
0.0712057
0.00507344
0.0707285
0.00518891
0.0702337
0.00530006
0.0697217
0.00540677
0.0691926
0.00550894
0.0686468
0.00560649
0.0680845
0.00569931
0.067506
0.00578734
0.0669117
0.00587049
0.00594867
0.0752198
0.00209745
-0.0752672
0.0751528
0.00229194
0.0750661
0.00248481
0.0749596
0.00267592
0.0748333
0.00286512
0.0746873
0.00305225
0.0745215
0.00323717
0.0743361
0.00341972
0.0741309
0.00359975
0.0739061
0.0037771
0.0736617
0.00395161
0.0733978
0.00412313
0.0731144
0.00429151
0.0728117
0.00445661
0.0724898
0.00461826
0.0721488
0.00477634
0.0717887
0.00493069
0.0714097
0.00508118
0.071012
0.00522768
0.0705957
0.00537004
0.0701611
0.00550813
0.0697081
0.00564184
0.0692372
0.00577103
0.0687483
0.00589558
0.0682419
0.00601539
0.067718
0.00613034
0.067177
0.00624033
0.0666191
0.00634528
0.0660445
0.00644511
0.0065397
0.0736349
0.00212357
-0.073661
0.0735896
0.00233727
0.0735249
0.00254943
0.073441
0.00275986
0.0733377
0.00296842
0.073215
0.00317493
0.0730729
0.00337924
0.0729115
0.00358117
0.0727307
0.00378058
0.0725305
0.00397728
0.072311
0.00417112
0.0720721
0.00436194
0.0718141
0.00454958
0.0715368
0.00473387
0.0712404
0.00491466
0.070925
0.0050918
0.0705905
0.00526514
0.0702372
0.00543453
0.069865
0.00559982
0.0694742
0.00576087
0.0690648
0.00591753
0.068637
0.00606968
0.0681908
0.00621717
0.0677265
0.00635988
0.0672442
0.00649767
0.0667441
0.00663044
0.0662264
0.00675806
0.0656912
0.00688044
0.0651388
0.00699751
0.00710913
0.0720475
0.0021315
-0.0720555
0.0720209
0.00236392
0.0719755
0.00259484
0.0719112
0.0028241
0.0718281
0.00305152
0.0717261
0.00327693
0.0716052
0.00350016
0.0714654
0.00372103
0.0713065
0.00393939
0.0711288
0.00415505
0.0709321
0.00436783
0.0707164
0.00457759
0.0704819
0.00478414
0.0702284
0.00498732
0.0699561
0.00518697
0.069665
0.00538294
0.0693551
0.00557505
0.0690264
0.00576317
0.0686791
0.00594712
0.0683132
0.00612677
0.0679288
0.00630197
0.0675259
0.00647256
0.0671047
0.0066384
0.0666652
0.00679935
0.0662076
0.00695527
0.065732
0.00710603
0.0652386
0.00725152
0.0647274
0.00739162
0.0641986
0.00752625
0.0076553
0.0704757
0.00212427
-0.0704685
0.0704648
0.00237485
0.0704356
0.00262399
0.0703882
0.00287152
0.0703225
0.00311726
0.0702384
0.00336103
0.0701359
0.00360264
0.070015
0.00384194
0.0698756
0.00407873
0.0697179
0.00431284