/*--------------------------------*- C++ -*----------------------------------*\
| =========                 |                                                 |
| \\      /  F ield         | OpenFOAM: The Open Source CFD Toolbox           |
|  \\    /   O peration     | Version:  v1912                                 |
|   \\  /    A nd           | Website:  www.openfoam.com                      |
|    \\/     M anipulation  |                                                 |
\*---------------------------------------------------------------------------*/
FoamFile
{
    version     2.0;
    format      ascii;
    class       surfaceScalarField;
    location    "15.25";
    object      phi;
}
// * * * * * * * * * * * * * * * * * * * * * * * * * * * * * * * * * * * * * //

dimensions      [0 3 -1 0 0 0 0];
oriented        oriented;


internalField   nonuniform List<scalar> 
38030
(
7.75699e-05
-0.323613
0.323536
0.000396663
-0.310531
0.310212
0.000873364
-0.300086
0.29961
0.00144042
-0.291539
0.290972
0.00206517
-0.28395
0.283326
0.00271323
-0.276836
0.276188
0.00336243
-0.269945
0.269295
0.00399919
-0.263155
0.262518
0.00461582
-0.256427
0.255811
0.00520882
-0.249765
0.249172
0.00577759
-0.243194
0.242626
0.00632333
-0.236745
0.236199
0.00684826
-0.230447
0.229922
0.00735504
-0.224323
0.223816
0.00784641
-0.21839
0.217898
0.00832493
-0.212659
0.21218
0.00879288
-0.207135
0.206667
0.00925223
-0.201817
0.201358
0.00970458
-0.196704
0.196252
0.0101513
-0.19179
0.191344
0.0105935
-0.187069
0.186627
0.0110324
-0.182532
0.182093
0.0114689
-0.178172
0.177735
0.0119042
-0.173978
0.173543
0.0123398
-0.169939
0.169504
0.0127768
-0.166042
0.165605
0.0132167
-0.162269
0.161829
0.0136602
-0.1586
0.158157
0.0141076
-0.155012
0.154565
-0.151478
0.151028
0.0145581
9.5202e-05
-0.323708
0.000418715
-0.310854
0.000893134
-0.300561
0.0014608
-0.292107
0.00208163
-0.284571
0.00272478
-0.277479
0.00336836
-0.270588
0.0039988
-0.263786
0.0046086
-0.257037
0.00519449
-0.250351
0.00575605
-0.243756
0.00629461
-0.237284
0.0068125
-0.230965
0.00731244
-0.224823
0.00779722
-0.218875
0.00826941
-0.213131
0.00873128
-0.207596
0.00918477
-0.202271
0.00963144
-0.197151
0.0100726
-0.192231
0.0105094
-0.187506
0.0109428
-0.182966
0.0113739
-0.178603
0.0118038
-0.174408
0.0122338
-0.170369
0.0126654
-0.166473
0.0130999
-0.162703
0.0135384
-0.159039
0.0139811
-0.155455
-0.151925
0.0144273
0.000115072
-0.323823
0.000438715
-0.311178
0.000910912
-0.301033
0.00147726
-0.292673
0.00209493
-0.285189
0.00273325
-0.278117
0.00337099
-0.271226
0.00399481
-0.264409
0.00459745
-0.25764
0.00517588
-0.25093
0.00572985
-0.24431
0.00626087
-0.237815
0.00677136
-0.231475
0.00726412
-0.225315
0.00774197
-0.219352
0.00820749
-0.213597
0.00866295
-0.208052
0.00911023
-0.202718
0.00955089
-0.197592
0.00998618
-0.192667
0.0104172
-0.187937
0.0108448
-0.183393
0.01127
-0.179028
0.0116941
-0.174832
0.0121181
-0.170793
0.0125437
-0.166899
0.0129723
-0.163132
0.013405
-0.159471
0.0138423
-0.155892
-0.152366
0.0142836
0.00012241
-0.323946
0.000450672
-0.311506
0.000924214
-0.301506
0.0014897
-0.293238
0.00210451
-0.285804
0.00273815
-0.278751
0.00336991
-0.271858
0.00398688
-0.265026
0.00458207
-0.258235
0.00515272
-0.2515
0.00569879
-0.244856
0.00622194
-0.238338
0.00672473
-0.231978
0.00721
-0.225801
0.00768061
-0.219823
0.00813916
-0.214055
0.00858789
-0.208501
0.00902868
-0.203159
0.00946302
-0.198026
0.00989212
-0.193096
0.010317
-0.188361
0.0107385
-0.183815
0.0111576
-0.179447
0.0115753
-0.17525
0.0119931
-0.171211
0.0124122
-0.167318
0.0128344
-0.163554
0.013261
-0.159898
0.0136924
-0.156324
-0.152802
0.0141283
0.000128314
-0.324074
0.00046031
-0.311838
0.000934881
-0.301981
0.00149919
-0.293803
0.0021109
-0.286415
0.00273971
-0.27938
0.00336529
-0.272483
0.00397512
-0.265636
0.00456256
-0.258822
0.00512511
-0.252063
0.00566297
-0.245394
0.00617795
-0.238853
0.00667271
-0.232473
0.00715018
-0.226278
0.00761326
-0.220286
0.00806454
-0.214506
0.00850626
-0.208942
0.00894026
-0.203593
0.009368
-0.198454
0.00979064
-0.193518
0.0102091
-0.18878
0.0106242
-0.18423
0.0110369
-0.17986
0.0114481
-0.175661
0.0118591
-0.171622
0.0122716
-0.167731
0.0126871
-0.163969
0.013107
-0.160318
0.0135323
-0.156749
-0.153232
0.0139627
0.000131737
-0.324206
0.000466972
-0.312173
0.00094267
-0.302457
0.00150576
-0.294366
0.00211418
-0.287024
0.00273794
-0.280004
0.00335708
-0.273102
0.0039595
-0.266239
0.00453889
-0.259402
0.00509304
-0.252617
0.00562237
-0.245923
0.00612887
-0.239359
0.0066153
-0.232959
0.00708469
-0.226747
0.00753994
-0.220741
0.00798368
-0.21495
0.00841812
-0.209377
0.00884508
-0.20402
0.00926597
-0.198875
0.0096819
-0.193934
0.0100937
-0.189192
0.0105022
-0.184638
0.0109082
-0.180266
0.0113127
-0.176065
0.0117169
-0.172026
0.0121223
-0.168136
0.0125309
-0.164378
0.0129441
-0.160731
0.0133631
-0.157168
-0.153657
0.0137879
0.000134445
-0.32434
0.000472123
-0.312511
0.000948404
-0.302933
0.00150988
-0.294927
0.00211466
-0.287629
0.00273304
-0.280622
0.00334544
-0.273715
0.00394012
-0.266833
0.00451114
-0.259973
0.00505657
-0.253162
0.00557706
-0.246444
0.00607478
-0.239857
0.0065526
-0.233437
0.00701362
-0.227208
0.00746077
-0.221189
0.0078967
-0.215386
0.0083236
-0.209804
0.00874326
-0.204439
0.00915707
-0.199288
0.00956608
-0.194343
0.00997108
-0.189597
0.0103728
-0.18504
0.0107719
-0.180665
0.0111695
-0.176463
0.0115666
-0.172424
0.011965
-0.168534
0.0123666
-0.164779
0.012773
-0.161138
0.0131858
-0.157581
-0.154076
0.013605
0.000136429
-0.324477
0.000475874
-0.31285
0.00095226
-0.303409
0.00151174
-0.295487
0.00211251
-0.288229
0.00272515
-0.281235
0.00333045
-0.27432
0.00391705
-0.26742
0.00447937
-0.260535
0.00501576
-0.253699
0.00552711
-0.246955
0.00601575
-0.240346
0.00648467
-0.233906
0.00693702
-0.227661
0.00737581
-0.221627
0.00780366
-0.215814
0.00822277
-0.210223
0.00863492
-0.204852
0.00904143
-0.199695
0.00944331
-0.194745
0.00984131
-0.189995
0.0102361
-0.185435
0.0106283
-0.181057
0.0110188
-0.176854
0.0114088
-0.172814
0.0118001
-0.168926
0.0121946
-0.165174
0.0125943
-0.161537
0.0130008
-0.157987
-0.15449
0.0134149
0.000138004
-0.324615
0.000478617
-0.313191
0.000954576
-0.303885
0.0015116
-0.296044
0.00210793
-0.288826
0.00271443
-0.281841
0.00331226
-0.274918
0.00389043
-0.267998
0.0044437
-0.261088
0.00497072
-0.254226
0.00547261
-0.247457
0.00595185
-0.240825
0.00641157
-0.234366
0.00685499
-0.228104
0.00728514
-0.222058
0.00770465
-0.216233
0.00811574
-0.210634
0.00852012
-0.205256
0.00891913
-0.200094
0.0093137
-0.19514
0.00970455
-0.190386
0.0100922
-0.185823
0.0104774
-0.181443
0.0108608
-0.177237
0.0112437
-0.173197
0.0116278
-0.16931
0.0120152
-0.165561
0.0124082
-0.16193
0.0128087
-0.158388
-0.154899
0.0132178
0.000139205
-0.324754
0.000480477
-0.313532
0.000955507
-0.30436
0.00150961
-0.296598
0.00210108
-0.289417
0.00270103
-0.282441
0.00329099
-0.275508
0.00386035
-0.268567
0.00440422
-0.261632
0.00492154
-0.254743
0.00541364
-0.247949
0.00588319
-0.241295
0.00633341
-0.234816
0.0067676
-0.228538
0.00718883
-0.222479
0.00759975
-0.216644
0.00800254
-0.211037
0.00839895
-0.205652
0.00879023
-0.200485
0.00917732
-0.195527
0.00956086
-0.190769
0.00994137
-0.186203
0.0103194
-0.181821
0.0106957
-0.177613
0.0110714
-0.173572
0.0114483
-0.169687
0.0118287
-0.165942
0.012215
-0.162317
0.0126095
-0.158782
-0.155304
0.0130138
0.000140106
-0.324894
0.000481584
-0.313874
0.00095522
-0.304834
0.00150596
-0.297149
0.00209212
-0.290003
0.00268509
-0.283034
0.00326678
-0.27609
0.00382696
-0.269128
0.00436107
-0.262166
0.00486834
-0.25525
0.00535032
-0.248431
0.00580985
-0.241754
0.00625026
-0.235256
0.00667493
-0.228963
0.00708695
-0.222891
0.00748899
-0.217046
0.00788324
-0.211431
0.00827141
-0.206041
0.00865476
-0.200868
0.00903417
-0.195906
0.00941025
-0.191145
0.00978345
-0.186576
0.0101543
-0.182191
0.0105234
-0.177982
0.0108919
-0.173941
0.0112617
-0.170056
0.011635
-0.166315
0.0120146
-0.162696
0.0124033
-0.159171
-0.155703
0.012803
0.000140733
-0.325035
0.000482008
-0.314215
0.000953829
-0.305306
0.00150077
-0.297696
0.00208119
-0.290584
0.00266677
-0.28362
0.00323979
-0.276663
0.0037904
-0.269678
0.00431438
-0.26269
0.00481124
-0.255747
0.00528277
-0.248903
0.00573194
-0.242203
0.00616223
-0.235686
0.00657705
-0.229378
0.00697956
-0.223293
0.00737243
-0.217439
0.00775785
-0.211816
0.00813752
-0.20642
0.00851269
-0.201244
0.00888421
-0.196278
0.00925265
-0.191514
0.00961842
-0.186942
0.00998192
-0.182555
0.0103438
-0.178344
0.0107051
-0.174302
0.0110677
-0.170419
0.011434
-0.166681
0.0118071
-0.163069
0.01219
-0.159554
-0.156098
0.0125852
0.000141099
-0.325176
0.000481826
-0.314556
0.000951441
-0.305775
0.00149417
-0.298238
0.00206843
-0.291158
0.00264621
-0.284197
0.00321015
-0.277227
0.00375081
-0.270219
0.00426429
-0.263204
0.00475039
-0.256233
0.00521111
-0.249363
0.00564959
-0.242642
0.00606941
-0.236106
0.00647406
-0.229783
0.00686672
-0.223686
0.00725009
-0.217823
0.00762637
-0.212193
0.00799725
-0.206791
0.00836396
-0.20161
0.00872734
-0.196641
0.00908793
-0.191874
0.00944609
-0.1873
0.00980217
-0.182911
0.0101567
-0.178699
0.0105108
-0.174656
0.0108663
-0.170774
0.0112256
-0.167041
0.0115921
-0.163436
0.0119694
-0.159931
-0.156489
0.0123603
0.000141219
-0.325317
0.000481087
-0.314896
0.00094816
-0.306243
0.0014863
-0.298776
0.002054
-0.291726
0.00262357
-0.284767
0.00317804
-0.277781
0.00370836
-0.270749
0.00421097
-0.263706
0.00468594
-0.256708
0.00513549
-0.249813
0.00556293
-0.243069
0.00597192
-0.236515
0.00636604
-0.230177
0.0067485
-0.224068
0.00712202
-0.218196
0.0074888
-0.212559
0.00785054
-0.207153
0.00820846
-0.201968
0.0085634
-0.196996
0.00891587
-0.192227
0.0092662
-0.187651
0.0096147
-0.183259
0.00996185
-0.179046
0.0103087
-0.175003
0.0106569
-0.171123
0.0110093
-0.167393
0.0113693
-0.163796
0.011741
-0.160303
-0.156876
0.0121279
0.0001411
-0.325458
0.000479856
-0.315234
0.000944088
-0.306707
0.00147728
-0.29931
0.00203804
-0.292286
0.00259901
-0.285328
0.00314363
-0.278326
0.00366323
-0.271269
0.0041546
-0.264198
0.00461808
-0.257172
0.00505609
-0.250251
0.00547211
-0.243485
0.0058699
-0.236913
0.0062531
-0.23056
0.00662497
-0.22444
0.00698823
-0.218559
0.00734512
-0.212916
0.00769731
-0.207505
0.00804605
-0.202317
0.00839217
-0.197342
0.00873619
-0.192571
0.0090784
-0.187993
0.00941906
-0.1836
0.00975862
-0.179385
0.010098
-0.175342
0.0104389
-0.171464
0.0107843
-0.167738
0.0111379
-0.164149
0.0115042
-0.160669
-0.157259
0.0118874
0.000140753
-0.325599
0.000478203
-0.315572
0.000939346
-0.307168
0.00146727
-0.299838
0.00202073
-0.29284
0.00257273
-0.28588
0.00310713
-0.27886
0.00361564
-0.271777
0.00409539
-0.264678
0.004547
-0.257623
0.0049731
-0.250677
0.00537731
-0.243889
0.00576351
-0.237299
0.00613538
-0.230932
0.00649622
-0.224801
0.00684879
-0.218912
0.00719531
-0.213263
0.00753749
-0.207847
0.00787658
-0.202656
0.00821342
-0.197679
0.00854854
-0.192906
0.00888223
-0.188326
0.00921471
-0.183933
0.00954636
-0.179717
0.00987806
-0.175674
0.0102115
-0.171797
0.0105497
-0.168077
0.0108967
-0.164496
0.0112576
-0.16103
-0.157639
0.0116373
0.00014019
-0.325739
0.00047621
-0.315908
0.000934071
-0.307626
0.00145644
-0.30036
0.00200226
-0.293386
0.00254493
-0.286423
0.00306875
-0.279384
0.00356581
-0.272274
0.00403359
-0.265145
0.00447296
-0.258063
0.00488677
-0.251091
0.00527878
-0.244281
0.00565295
-0.237673
0.00601306
-0.231292
0.0063624
-0.22515
0.00670377
-0.219253
0.0070394
-0.213598
0.00737101
-0.208179
0.00769988
-0.202985
0.00802687
-0.198006
0.00835253
-0.193231
0.00867715
-0.188651
0.00900094
-0.184256
0.00932425
-0.18004
0.00964787
-0.175998
0.00997351
-0.172123
0.0103042
-0.168407
0.0106443
-0.164837
0.0109995
-0.161386
-0.158015
0.0113757
0.000139432
-0.325879
0.000473981
-0.316242
0.000928421
-0.30808
0.00144498
-0.300877
0.00198285
-0.293924
0.00251586
-0.286956
0.00302875
-0.279897
0.00351402
-0.27276
0.00396946
-0.265601
0.00439622
-0.25849
0.00479736
-0.251492
0.00517676
-0.244661
0.00553849
-0.238035
0.00588635
-0.23164
0.00622369
-0.225488
0.00655331
-0.219583
0.00687745
-0.213923
0.00719785
-0.208499
0.00751582
-0.203303
0.00783226
-0.198323
0.00814773
-0.193547
0.00846258
-0.188966
0.00877701
-0.184571
0.00909133
-0.180355
0.00940629
-0.176313
0.00972353
-0.17244
0.0100461
-0.16873
0.0103788
-0.165169
0.0107279
-0.161735
-0.158388
0.0111002
0.000138525
-0.326017
0.000471662
-0.316576
0.000922599
-0.308531
0.00143312
-0.301387
0.00196274
-0.294453
0.00248578
-0.287479
0.00298743
-0.280398
0.00346057
-0.273233
0.00390333
-0.266043
0.00431712
-0.258903
0.0047052
-0.25188
0.00507159
-0.245027
0.00542042
-0.238384
0.00575556
-0.231975
0.00608035
-0.225813
0.00639761
-0.2199
0.00670959
-0.214235
0.00701805
-0.208808
0.00732433
-0.203609
0.00762935
-0.198628
0.00793375
-0.193851
0.00823791
-0.18927
0.00854206
-0.184875
0.00884651
-0.180659
0.00915196
-0.176618
0.00946001
-0.172748
0.00977373
-0.169043
0.0100982
-0.165494
0.0104404
-0.162077
-0.158755
0.0108083
0.000137533
-0.326155
0.000469431
-0.316907
0.000916839
-0.308979
0.00142111
-0.301891
0.00194223
-0.294974
0.002455
-0.287991
0.00294509
-0.280889
0.00340579
-0.273694
0.00383554
-0.266473
0.00423603
-0.259304
0.00461069
-0.252255
0.00496366
-0.24538
0.00529916
-0.238719
0.00562107
-0.232297
0.00593274
-0.226124
0.006237
-0.220204
0.00653609
-0.214534
0.00683179
-0.209103
0.00712544
-0.203903
0.00741803
-0.19892
0.00771026
-0.194144
0.00800256
-0.189562
0.00829524
-0.185168
0.00858861
-0.180953
0.00888337
-0.176913
0.00918107
-0.173046
0.0094848
-0.169347
0.00979988
-0.165809
0.0101341
-0.162411
-0.159118
0.0104967
0.00013657
-0.326291
0.000467527
-0.317238
0.000911427
-0.309422
0.00140928
-0.302389
0.00192163
-0.295487
0.00242387
-0.288494
0.00290212
-0.281367
0.00335007
-0.274141
0.00376651
-0.26689
0.00415337
-0.259691
0.00451426
-0.252616
0.00485344
-0.245719
0.00517518
-0.239041
0.00548337
-0.232605
0.00578136
-0.226422
0.00607194
-0.220495
0.00635736
-0.214819
0.00663938
-0.209385
0.00691937
-0.204183
0.00719836
-0.199199
0.00747709
-0.194422
0.00775609
-0.189841
0.00803575
-0.185447
0.00831643
-0.181233
0.00859886
-0.177195
0.00888455
-0.173331
0.00917663
-0.169639
0.00948063
-0.166113
0.00980519
-0.162736
-0.159474
0.0101612
0.000135823
-0.326427
0.000466269
-0.317569
0.000906733
-0.309863
0.00139799
-0.30288
0.00190133
-0.29599
0.00239277
-0.288985
0.0028589
-0.281833
0.00329382
-0.274576
0.00369667
-0.267293
0.00406961
-0.260064
0.00441643
-0.252962
0.00474149
-0.246044
0.00504908
-0.239349
0.00534309
-0.232899
0.00562684
-0.226706
0.00590309
-0.220771
0.00617403
-0.21509
0.00644141
-0.209653
0.00670659
-0.204448
0.00697062
-0.199463
0.00723432
-0.194686
0.00749828
-0.190105
0.00776298
-0.185712
0.00802889
-0.181499
0.00829676
-0.177463
0.00856812
-0.173603
0.00884608
-0.169917
0.00913636
-0.166403
0.00944837
-0.163048
-0.159821
0.00979521
0.000135637
-0.326563
0.00046614
-0.317899
0.000903233
-0.3103
0.00138771
-0.303365
0.00188176
-0.296484
0.00236211
-0.289465
0.00281585
-0.282287
0.00323749
-0.274998
0.00362649
-0.267682
0.00398527
-0.260423
0.00431777
-0.253295
0.00462843
-0.246355
0.00492154
-0.239642
0.00520098
-0.233178
0.00547001
-0.226975
0.00573131
-0.221033
0.005987
-0.215346
0.00623877
-0.209905
0.00648793
-0.204697
0.00673554
-0.199711
0.00698244
-0.194933
0.00722929
-0.190352
0.00747666
-0.185959
0.00772515
-0.181748
0.00797558
-0.177714
0.00822952
-0.173857
0.00849005
-0.170178
0.00876299
-0.166676
0.0090584
-0.163343
-0.160153
0.00939071
0.000136615
-0.326699
0.000467835
-0.318231
0.000901499
-0.310734
0.00137892
-0.303842
0.00186336
-0.296968
0.00233232
-0.289934
0.00277341
-0.282728
0.00318153
-0.275406
0.00355648
-0.268056
0.00390091
-0.260767
0.00421891
-0.253613
0.00451497
-0.246651
0.00479339
-0.23992
0.00505797
-0.233443
0.0053119
-0.227229
0.00555773
-0.221278
0.00579749
-0.215585
0.00603275
-0.21014
0.00626473
-0.204929
0.00649441
-0.199941
0.00672259
-0.195161
0.00694997
-0.19058
0.00717717
-0.186187
0.00740489
-0.181975
0.00763409
-0.177943
0.00786646
-0.174089
0.0081052
-0.170417
0.00835622
-0.166927
0.00863002
-0.163617
-0.160466
0.00894317
0.0001397
-0.326839
0.000472176
-0.318563
0.000902067
-0.311164
0.0013721
-0.304312
0.00184657
-0.297443
0.00230384
-0.290392
0.00273201
-0.283156
0.0031264
-0.275801
0.00348713
-0.268417
0.00381709
-0.261097
0.0041205
-0.253916
0.00440188
-0.246932
0.00466551
-0.240184
0.0049151
-0.233693
0.00515371
-0.227468
0.00538376
-0.221509
0.0056071
-0.215809
0.00582513
-0.210358
0.00603891
-0.205143
0.00624927
-0.200151
0.00645688
-0.195369
0.00666233
-0.190785
0.00686621
-0.18639
0.00706922
-0.182178
0.00727239
-0.178146
0.00747757
-0.174294
0.00768814
-0.170627
0.00791013
-0.167149
0.00815439
-0.163861
-0.160753
0.00844135
0.000145966
-0.326985
0.00047985
-0.318897
0.000905397
-0.311589
0.00136773
-0.304775
0.00183189
-0.297907
0.0022771
-0.290837
0.00269208
-0.283571
0.00307255
-0.276181
0.00341894
-0.268764
0.0037344
-0.261412
0.00402323
-0.254205
0.00428999
-0.247199
0.0045389
-0.240433
0.00477356
-0.233927
0.00499687
-0.227691
0.00521106
-0.221723
0.00541777
-0.216016
0.00561816
-0.210558
0.00581304
-0.205338
0.00600299
-0.200341
0.00618843
-0.195554
0.00636972
-0.190966
0.00654726
-0.186568
0.00672155
-0.182353
0.00689352
-0.178318
0.00706499
-0.174466
0.00723947
-0.170802
0.00742329
-0.167333
0.00762827
-0.164066
-0.161004
0.00787861
0.000156529
-0.327141
0.000491725
-0.319232
0.000912414
-0.31201
0.00136663
-0.305229
0.00181993
-0.29836
0.00225257
-0.29127
0.00265398
-0.283972
0.00302031
-0.276547
0.00335231
-0.269096
0.0036533
-0.261713
0.0039277
-0.254479
0.00418006
-0.247452
0.00441453
-0.240667
0.00463457
-0.234147
0.0048429
-0.227899
0.00504153
-0.221921
0.0052318
-0.216206
0.00541458
-0.210741
0.0055903
-0.205514
0.00575916
-0.20051
0.00592117
-0.195716
0.00607628
-0.191121
0.00622449
-0.186716
0.00636596
-0.182494
0.00650132
-0.178453
0.0066322
-0.174597
0.00676218
-0.170932
0.00689791
-0.167469
0.00705315
-0.164221
-0.1612
0.00724929
0.00017461
-0.327316
0.00051122
-0.319569
0.00092549
-0.312424
0.00136999
-0.305673
0.00181131
-0.298802
0.00223058
-0.291689
0.00261792
-0.28436
0.00296988
-0.276899
0.00328745
-0.269413
0.00357413
-0.262
0.00383438
-0.25474
0.00407274
-0.24769
0.00429328
-0.240888
0.00449932
-0.234353
0.00469338
-0.228093
0.0048772
-0.222105
0.00505184
-0.21638
0.00521775
-0.210907
0.00537489
-0.205671
0.00552283
-0.200658
0.00566085
-0.195854
0.00578804
-0.191249
0.00590345
-0.186832
0.0060063
-0.182597
0.0060964
-0.178543
0.00617505
-0.174675
0.00624599
-0.171002
0.00631548
-0.167538
0.00639521
-0.164301
-0.161305
0.00650052
0.000212189
-0.327528
0.000547027
-0.319904
0.000947273
-0.312824
0.00137834
-0.306104
0.00180611
-0.299229
0.00221107
-0.292094
0.00258378
-0.284732
0.00292118
-0.277237
0.00322441
-0.269716
0.00349705
-0.262273
0.00374359
-0.254986
0.00396855
-0.247915
0.00417589
-0.241095
0.00436884
-0.234546
0.00454973
-0.228274
0.00472007
-0.222275
0.00488064
-0.216541
0.00503151
-0.211058
0.0051721
-0.205811
0.00530124
-0.200787
0.00541716
-0.19597
0.00551741
-0.191349
0.00559888
-0.186913
0.00565791
-0.182656
0.00569081
-0.178576
0.00569513
-0.17468
0.00567122
-0.170979
0.00562207
-0.167489
0.00555327
-0.164232
-0.161247
0.00549546
0.000293602
-0.327822
0.000605752
-0.320216
0.000974195
-0.313193
0.00139093
-0.306521
0.0018035
-0.299642
0.00219334
-0.292484
0.00255119
-0.28509
0.0028741
-0.27756
0.00316327
-0.270006
0.0034223
-0.262532
0.00365571
-0.25522
0.00386799
-0.248127
0.00406307
-0.24129
0.00424406
-0.234727
0.00441318
-0.228443
0.00457182
-0.222434
0.00472056
-0.21669
0.00485924
-0.211196
0.004987
-0.205939
0.00510218
-0.200902
0.00520226
-0.19607
0.00528347
-0.19143
0.00534038
-0.18697
0.00536527
-0.182681
0.00534738
-0.178559
0.00527216
-0.174604
0.0051208
-0.170827
0.00487164
-0.16724
0.00451383
-0.163874
-0.160959
0.00422536
0.331039
0.000201327
-0.331241
0.330886
0.000153557
0.330754
0.000132039
0.330632
0.000122103
0.330515
0.000116479
0.330402
0.000113266
0.33029
0.000111842
0.330178
0.000111598
0.330066
0.000111978
0.329954
0.000112641
0.32984
0.000113395
0.329726
0.000114136
0.329611
0.000114815
0.329496
0.000115398
0.32938
0.000115873
0.329264
0.000116231
0.329147
0.000116475
0.329031
0.000116605
0.328914
0.000116609
0.328798
0.000116485
0.328681
0.000116202
0.328566
0.000115732
0.328451
0.000114949
0.328337
0.0001138
0.328225
0.000111738
0.328116
0.000108811
0.328015
0.00010192
0.327922
9.29973e-05
0.327859
6.28717e-05
3.68106e-05
0.327308
0.00039387
-0.327501
0.327097
0.00036456
0.32688
0.000348687
0.32666
0.000341947
0.326438
0.000339175
0.326213
0.000338422
0.325985
0.000339237
0.325756
0.000341264
0.325523
0.000344066
0.325289
0.000347264
0.325052
0.00035062
0.324812
0.000353986
0.324569
0.000357252
0.324324
0.000360354
0.324077
0.00036324
0.323827
0.000365876
0.323576
0.000368241
0.323322
0.00037032
0.323066
0.000372084
0.322809
0.000373512
0.322551
0.000374541
0.322292
0.00037511
0.322032
0.000375019
0.321771
0.000374125
0.321511
0.00037176
0.321252
0.000367802
0.320995
0.000359678
0.320739
0.000348641
0.320477
0.000324704
0.000298125
0.321842
0.000565211
-0.322013
0.321641
0.0005654
0.321424
0.00056571
0.321196
0.000569478
0.32096
0.000575811
0.320715
0.000583459
0.320462
0.000591916
0.320202
0.000600975
0.319936
0.00061042
0.319663
0.000620002
0.319384
0.00062951
0.319099
0.000638797
0.318809
0.000647762
0.318513
0.000656328
0.318212
0.000664443
0.317905
0.000672069
0.317595
0.000679176
0.317279
0.00068575
0.316959
0.000691757
0.316636
0.000697172
0.316308
0.000701934
0.315978
0.000705963
0.315643
0.000709077
0.315306
0.000711113
0.314967
0.000711557
0.314624
0.000710219
0.314278
0.000705739
0.313928
0.000698666
0.313567
0.000686065
0.000672225
0.315251
0.000716789
-0.315402
0.315085
0.000731076
0.314904
0.000747133
0.314709
0.000764447
0.314501
0.00078295
0.314283
0.000802172
0.314053
0.000821717
0.313813
0.000841363
0.313562
0.000860925
0.313302
0.00088021
0.313032
0.000899045
0.312754
0.000917299
0.312467
0.00093488
0.312171
0.000951724
0.311868
0.000967791
0.311557
0.000983043
0.311239
0.000997472
0.310913
0.00101106
0.310581
0.0010238
0.310243
0.00103568
0.309898
0.00104666
0.309547
0.00105669
0.309191
0.00106564
0.308828
0.0010734
0.30846
0.00107964
0.308086
0.00108422
0.307706
0.0010864
0.307318
0.00108625
0.306922
0.00108193
0.00107329
0.307636
0.00080967
-0.307729
0.307525
0.000842157
0.307397
0.000874747
0.307254
0.00090768
0.307096
0.000940844
0.306924
0.000974016
0.306739
0.00100694
0.306541
0.00103944
0.30633
0.00107135
0.306108
0.00110253
0.305874
0.00113284
0.305629
0.00116217
0.305374
0.00119046
0.305108
0.00121765
0.304832
0.0012437
0.304546
0.00126861
0.304251
0.00129236
0.303948
0.00131496
0.303635
0.00133642
0.303314
0.00135677
0.302985
0.00137599
0.302647
0.00139409
0.302302
0.001411
0.301949
0.00142669
0.301587
0.00144099
0.301218
0.00145382
0.300839
0.00146476
0.300452
0.00147382
0.300053
0.00148015
0.00148466
0.29939
0.000849296
-0.29943
0.299332
0.000900081
0.299257
0.000949911
0.299165
0.000999205
0.299058
0.00104796
0.298936
0.00109607
0.2988
0.00114339
0.298649
0.00118978
0.298486
0.00123513
0.298309
0.00127933
0.298119
0.00132227
0.297918
0.00136387
0.297704
0.00140405
0.297479
0.00144279
0.297243
0.00148005
0.296995
0.00151584
0.296738
0.00155016
0.29647
0.00158303
0.296191
0.00161451
0.295904
0.00164462
0.295606
0.00167343
0.295299
0.00170097
0.294983
0.00172728
0.294657
0.00175239
0.294322
0.00177626
0.293977
0.00179892
0.293621
0.00182023
0.293255
0.00184033
0.292876
0.00185902
0.00187709
0.290849
0.00084491
-0.290845
0.290836
0.000913282
0.290806
0.000980126
0.290759
0.0010457
0.290697
0.00111011
0.29062
0.00117333
0.290528
0.00123529
0.290422
0.0012959
0.290302
0.00135507
0.290168
0.0014127
0.290022
0.00146871
0.289863
0.00152302
0.289691
0.0015756
0.289508
0.00162639
0.289312
0.00167539
0.289106
0.00172261
0.288888
0.00176806
0.288659
0.00181181
0.288419
0.00185391
0.28817
0.00189444
0.28791
0.00193351
0.287639
0.00197121
0.287359
0.00200765
0.287068
0.00204296
0.286767
0.00207722
0.286456
0.00211058
0.286133
0.00214309
0.285798
0.00217501
0.285451
0.00220638
0.00223776
0.282276
0.000807061
-0.282238
0.282297
0.00089211
0.282302
0.000975257
0.282291
0.00105662
0.282265
0.00113633
0.282224
0.00121442
0.282168
0.00129086
0.282099
0.00136556
0.282015
0.00143844
0.281918
0.00150944
0.281809
0.00157848
0.281686
0.00164551
0.281551
0.00171046
0.281404
0.00177333
0.281246
0.0018341
0.281076
0.0018928
0.280894
0.00194946
0.280702
0.00200415
0.280499
0.00205696
0.280285
0.00210803
0.280061
0.00215748
0.279827
0.00220549
0.279582
0.00225224
0.279327
0.00229795
0.279062
0.00234281
0.278785
0.00238709
0.278497
0.00243097
0.278198
0.00247481
0.277885
0.00251876
0.00256332
0.273861
0.000746071
-0.2738
0.273907
0.000846878
0.273936
0.000945509
0.273951
0.001042
0.273951
0.00113646
0.273936
0.00122893
0.273908
0.00131939
0.273866
0.00140778
0.27381
0.00149402
0.273741
0.00157804
0.27366
0.00165978
0.273566
0.00173919
0.273461
0.00181623
0.273343
0.00189088
0.273214
0.00196314
0.273074
0.00203303
0.272923
0.00210061
0.272761
0.00216597
0.272589
0.00222924
0.272406
0.00229056
0.272213
0.00235013
0.272011
0.00240819
0.271798
0.002465
0.271575
0.00252085
0.271342
0.00257607
0.271098
0.00263101
0.270843
0.00268599
0.270576
0.00274144
0.270297
0.00279764
0.00285505
0.265727
0.000670922
-0.265652
0.265788
0.000786657
0.265833
0.000899978
0.265864
0.00101087
0.265881
0.00111943
0.265885
0.00122569
0.265874
0.00132962
0.265851
0.00143116
0.265815
0.00153023
0.265766
0.00162679
0.265705
0.00172075
0.265632
0.00181208
0.265548
0.00190074
0.265452
0.0019867
0.265345
0.00206997
0.265227
0.00215059
0.265099
0.00222861
0.264961
0.00230416
0.264813
0.00237737
0.264655
0.00244845
0.264488
0.00251762
0.264311
0.00258519
0.264124
0.00265149
0.263928
0.00271693
0.263722
0.00278193
0.263506
0.00284695
0.26328
0.00291245
0.263042
0.00297895
0.262793
0.00304683
0.00311656
0.257942
0.000588744
-0.25786
0.25801
0.000718677
0.258064
0.000845978
0.258105
0.0009706
0.258131
0.00109261
0.258145
0.00121204
0.258146
0.00132885
0.258134
0.00144297
0.25811
0.00155434
0.258074
0.00166289
0.258026
0.00176855
0.257967
0.00187127
0.257896
0.001971
0.257815
0.00206774
0.257724
0.00216149
0.257622
0.00225227
0.257511
0.00234017
0.25739
0.00242531
0.257259
0.00250785
0.257119
0.00258802
0.256971
0.00266611
0.256814
0.00274248
0.256648
0.00281754
0.256473
0.00289181
0.256289
0.0029658
0.256096
0.00304012
0.255893
0.00311536
0.25568
0.00319214
0.255455
0.00327098
0.00335237
0.250534
0.000504916
-0.250451
0.250605
0.000648339
0.250662
0.000788988
0.250706
0.000926733
0.250737
0.00106161
0.250755
0.00119364
0.250761
0.00132278
0.250755
0.00144895
0.250737
0.00157209
0.250708
0.0016921
0.250668
0.00180893
0.250616
0.00192252
0.250555
0.00203282
0.250483
0.0021398
0.250401
0.00224346
0.250309
0.00234384
0.250208
0.00244101
0.250098
0.00253511
0.24998
0.00262631
0.249853
0.00271487
0.249718
0.00280113
0.249575
0.00288549
0.249424
0.00296847
0.249265
0.00305066
0.249098
0.00313273
0.248923
0.00321542
0.248739
0.00329946
0.248545
0.00338565
0.248342
0.00347463
0.00356697
0.243506
0.000423092
-0.243424
0.243575
0.000579434
0.243631
0.000732863
0.243675
0.000883203
0.243706
0.00103044
0.243725
0.00117457
0.243732
0.00131554
0.243728
0.00145329
0.243712
0.00158771
0.243686
0.00171873
0.243648
0.00184627
0.2436
0.00197025
0.243543
0.00209061
0.243475
0.00220734
0.243398
0.0023204
0.243312
0.00242983
0.243217
0.0025357
0.243114
0.00263814
0.243003
0.00273734
0.242885
0.00283358
0.242759
0.00292722
0.242625
0.00301874
0.242485
0.00310873
0.242338
0.00319789
0.242184
0.00328702
0.242022
0.00337704
0.241853
0.00346888
0.241675
0.00356349
0.241488
0.00366174
0.00376428
0.236843
0.000345628
-0.236766
0.236908
0.000514307
0.236961
0.000680063
0.237002
0.000842573
0.23703
0.00100174
0.237047
0.00115755
0.237053
0.00130996
0.237047
0.00145887
0.237031
0.00160418
0.237004
0.0017458
0.236966
0.00188363
0.236919
0.00201759
0.236862
0.00214762
0.236796
0.00227364
0.236721
0.00239565
0.236637
0.00251364
0.236545
0.00262769
0.236445
0.0027379
0.236338
0.00284448
0.236224
0.0029477
0.236103
0.00304796
0.235976
0.00314579
0.235843
0.00324185
0.235704
0.00333697
0.235559
0.00343209
0.235407
0.00352833
0.235249
0.00362684
0.235084
0.00372883
0.23491
0.00383539
0.00394738
0.230523
0.000273321
-0.23045
0.230583
0.000454299
0.230631
0.000632078
0.230667
0.000806385
0.230691
0.000977127
0.230705
0.00114428
0.230707
0.00130778
0.230698
0.00146752
0.230679
0.00162339
0.230649
0.00177528
0.23061
0.00192307
0.230561
0.00206668
0.230503
0.002206
0.230435
0.00234097
0.230359
0.00247153
0.230275
0.00259768
0.230184
0.00271944
0.230085
0.00283692
0.229979
0.0029503
0.229867
0.00305986
0.229749
0.00316601
0.229625
0.00326931
0.229496
0.00337051
0.229363
0.00347054
0.229224
0.00357052
0.229081
0.00367178
0.228932
0.00377576
0.228777
0.00388397
0.228614
0.00399785
0.0041185
0.224518
0.00020657
-0.224451
0.224572
0.000400041
0.224615
0.000589601
0.224646
0.0007754
0.224666
0.000957434
0.224674
0.00113566
0.224672
0.00130998
0.224659
0.00148029
0.224636
0.00164645
0.224603
0.00180834
0.22456
0.00196584
0.224508
0.00211882
0.224447
0.00226717
0.224377
0.00241078
0.224299
0.00254959
0.224213
0.00268354
0.22412
0.00281264
0.22402
0.00293695
0.223914
0.00305663
0.223802
0.00317194
0.223684
0.0032833
0.223562
0.00339127
0.223436
0.00349666
0.223306
0.00360052
0.223173
0.00370416
0.223035
0.00380915
0.222894
0.00391727
0.222747
0.00403043
0.222595
0.0041505
0.004279
0.218803
0.000146192
-0.218742
0.218851
0.000351719
0.218888
0.000552841
0.218913
0.000749897
0.218928
0.000942987
0.218931
0.00113206
0.218924
0.00131699
0.218907
0.00149765
0.21888
0.0016739
0.218842
0.0018456
0.218796
0.00201259
0.21874
0.00217474
0.218675
0.0023319
0.218602
0.00248395
0.218521
0.00263075
0.218432
0.00277224
0.218336
0.00290837
0.218234
0.00303916
0.218126
0.00316472
0.218013
0.00328526
0.217895
0.00340119
0.217773
0.00351306
0.217648
0.00362172
0.21752
0.00372831
0.21739
0.00383433
0.217257
0.00394161