/*--------------------------------*- C++ -*----------------------------------*\
  =========                 |
  \\      /  F ield         | OpenFOAM: The Open Source CFD Toolbox
   \\    /   O peration     | Website:  https://openfoam.org
    \\  /    A nd           | Version:  6.0
     \\/     M anipulation  |
\*---------------------------------------------------------------------------*/
FoamFile
{
    version     2.0;
    format      ascii;
    class       volScalarField;
    location    "17.745";
    object      p;
}
// * * * * * * * * * * * * * * * * * * * * * * * * * * * * * * * * * * * * * //

dimensions      [0 2 -2 0 0 0 0];

internalField   nonuniform List<scalar> 
2400
(
-0.398191
-0.385029
-0.376769
-0.370108
-0.363553
-0.357106
-0.350842
-0.344728
-0.338842
-0.334269
-0.411401
-0.397396
-0.388183
-0.3804
-0.372623
-0.364947
-0.357507
-0.350278
-0.343338
-0.33821
-0.428607
-0.413139
-0.402484
-0.393167
-0.383789
-0.374533
-0.365592
-0.356926
-0.348611
-0.342833
-0.450073
-0.432513
-0.419904
-0.408617
-0.397241
-0.386034
-0.375239
-0.364778
-0.354713
-0.348139
-0.476106
-0.455761
-0.440652
-0.426945
-0.413167
-0.399636
-0.386619
-0.373966
-0.361705
-0.354101
-0.506986
-0.483097
-0.464922
-0.448352
-0.431786
-0.415574
-0.399977
-0.384712
-0.369713
-0.360696
-0.542928
-0.514687
-0.492881
-0.473035
-0.453341
-0.434151
-0.415677
-0.397429
-0.379093
-0.368018
-0.584038
-0.550614
-0.524641
-0.501156
-0.478051
-0.455632
-0.434027
-0.41242
-0.389891
-0.375494
-0.630228
-0.590831
-0.560242
-0.532868
-0.506174
-0.480344
-0.455254
-0.429375
-0.400438
-0.379551
-0.680943
-0.635044
-0.599609
-0.568359
-0.538352
-0.509714
-0.482029
-0.452924
-0.418472
-0.389207
-1.14929
-1.13286
-1.1039
-1.06477
-1.0177
-0.96488
-0.908405
-0.850153
-0.791767
-0.734787
-1.05274
-1.03804
-1.01196
-0.97666
-0.934249
-0.886805
-0.836278
-0.784418
-0.732743
-0.68257
-0.969976
-0.959019
-0.937158
-0.906385
-0.868732
-0.82621
-0.780715
-0.733955
-0.687406
-0.642293
-0.892245
-0.886184
-0.869477
-0.84391
-0.81138
-0.773806
-0.733032
-0.690744
-0.648431
-0.607313
-0.816308
-0.815393
-0.804188
-0.784217
-0.757167
-0.724791
-0.68881
-0.650832
-0.612342
-0.574556
-0.74441
-0.748284
-0.742399
-0.728002
-0.706524
-0.679485
-0.648391
-0.614658
-0.57967
-0.544559
-0.678
-0.685957
-0.684848
-0.675672
-0.659612
-0.637927
-0.611832
-0.582401
-0.55073
-0.51767
-0.617516
-0.628789
-0.631782
-0.627319
-0.616392
-0.600042
-0.579184
-0.554397
-0.526091
-0.494064
-0.562778
-0.576728
-0.583248
-0.583074
-0.577115
-0.56632
-0.551445
-0.532611
-0.509005
-0.47692
-0.513756
-0.529025
-0.537836
-0.540898
-0.539139
-0.533606
-0.525266
-0.514513
-0.500541
-0.476728
-0.435294
-0.569787
-0.694752
-0.807958
-0.907142
-0.990507
-1.05684
-1.10552
-1.13654
-1.1506
-0.386303
-0.511628
-0.628274
-0.733949
-0.826523
-0.904321
-0.966219
-1.01167
-1.0407
-1.05396
-0.320385
-0.438361
-0.549001
-0.64998
-0.739203
-0.814992
-0.876161
-0.92206
-0.952589
-0.9682
-0.251859
-0.36241
-0.467125
-0.56371
-0.650104
-0.724625
-0.786018
-0.833501
-0.86679
-0.886101
-0.189242
-0.291921
-0.390184
-0.481766
-0.564671
-0.637277
-0.698325
-0.746953
-0.782732
-0.805672
-0.135812
-0.230763
-0.322516
-0.408761
-0.487617
-0.557593
-0.617486
-0.666428
-0.703912
-0.729804
-0.0916031
-0.179416
-0.265067
-0.346008
-0.420556
-0.487418
-0.545494
-0.593951
-0.63227
-0.660236
-0.0549088
-0.13585
-0.216046
-0.292082
-0.362468
-0.426136
-0.482096
-0.529579
-0.568089
-0.597381
-0.0245705
-0.0984591
-0.173769
-0.245426
-0.311995
-0.372593
-0.426344
-0.472573
-0.510834
-0.540896
-0.00785325
-0.0770453
-0.147574
-0.214033
-0.275707
-0.332003
-0.382173
-0.425686
-0.46221
-0.491561
0.535128
0.556164
0.578632
0.601674
0.624808
0.647375
0.668403
0.687299
0.709438
0.748543
0.508607
0.526899
0.54689
0.56704
0.586674
0.605066
0.621163
0.634404
0.650505
0.684376
0.474602
0.489176
0.505874
0.522215
0.537278
0.550294
0.560179
0.566503
0.575403
0.602842
0.433413
0.443411
0.456082
0.467769
0.477274
0.483818
0.486334
0.484622
0.485287
0.505168
0.385435
0.39015
0.398185
0.404476
0.407559
0.406682
0.400849
0.390178
0.381775
0.39315
0.331139
0.330072
0.333017
0.333307
0.329262
0.320206
0.305263
0.284958
0.266898
0.269008
0.271083
0.263978
0.261584
0.255435
0.24374
0.225968
0.201413
0.171077
0.143037
0.135332
0.206004
0.192881
0.185114
0.172248
0.152571
0.125785
0.091394
0.0509323
0.012871
-0.00497916
0.136702
0.118308
0.105343
0.0854866
0.0576078
0.0217165
-0.0224673
-0.0728502
-0.120691
-0.148788
0.0616606
0.0408802
0.0231941
-0.00362124
-0.0394398
-0.084138
-0.13774
-0.197525
-0.25467
-0.29303
0.387656
0.391025
0.401457
0.409679
0.416104
0.422463
0.430362
0.442183
0.460803
0.483293
0.436357
0.441014
0.452685
0.463988
0.47431
0.484835
0.496822
0.512331
0.534861
0.563709
0.475486
0.483881
0.498085
0.512842
0.527218
0.541951
0.557997
0.577079
0.603164
0.63765
0.507781
0.520237
0.537306
0.555357
0.573505
0.592174
0.612003
0.634332
0.66345
0.702691
0.53349
0.54964
0.569412
0.5904
0.611861
0.633974
0.65707
0.682091
0.713532
0.756527
0.552335
0.571577
0.59363
0.617013
0.641144
0.665999
0.691616
0.718547
0.751422
0.797051
0.564045
0.585604
0.609332
0.634411
0.660397
0.687097
0.714278
0.742132
0.775392
0.822434
0.56835
0.591319
0.615994
0.641951
0.668844
0.696334
0.723947
0.751567
0.784029
0.831191
0.565032
0.588412
0.61322
0.639158
0.665913
0.69302
0.719798
0.745896
0.776284
0.822236
0.553964
0.576703
0.60078
0.625752
0.651261
0.676735
0.701329
0.724528
0.751497
0.794847
0.342515
0.29762
0.246377
0.194587
0.143273
0.0931956
0.0451855
-0.000235012
-0.0427436
-0.0821373
0.34705
0.299336
0.246292
0.191706
0.137596
0.0850165
0.0348078
-0.012398
-0.0561688
-0.0962415
0.350598
0.297173
0.240544
0.18315
0.126707
0.0722703
0.0207183
-0.0272582
-0.0711923
-0.110823
0.353222
0.294753
0.234489
0.174187
0.115367
0.0591478
0.00644929
-0.0420303
-0.0858451
-0.12479
0.355002
0.292126
0.228315
0.16512
0.104019
0.0461926
-0.00742795
-0.056177
-0.0996719
-0.137805
0.356906
0.289853
0.222572
0.156607
0.093423
0.0342105
-0.0201318
-0.0690104
-0.112141
-0.149543
0.360596
0.289668
0.219118
0.150544
0.0854002
0.0248469
-0.0302821
-0.079487
-0.122593
-0.15974
0.368622
0.294167
0.220501
0.149279
0.0819531
0.0196474
-0.0368636
-0.0871533
-0.13112
-0.168983
0.383075
0.304424
0.226671
0.151552
0.080557
0.0148355
-0.0448195
-0.0979685
-0.144502
-0.18463
0.398948
0.313163
0.228209
0.145981
0.068097
-0.00414143
-0.0697849
-0.128262
-0.179381
-0.223272
-0.118379
-0.151526
-0.181819
-0.209596
-0.235252
-0.259192
-0.281714
-0.302826
-0.323032
-0.333123
-0.132566
-0.165172
-0.194303
-0.220299
-0.243538
-0.26438
-0.283021
-0.299289
-0.312835
-0.316963
-0.146146
-0.177219
-0.20437
-0.228017
-0.248626
-0.266646
-0.282388
-0.295921
-0.307206
-0.312935
-0.15896
-0.188489
-0.21383
-0.235519
-0.254131
-0.270224
-0.28424
-0.29644
-0.306868
-0.31367
-0.170809
-0.19891
-0.222702
-0.242834
-0.259976
-0.274761
-0.287708
-0.29914
-0.309061
-0.316325
-0.181597
-0.208611
-0.231303
-0.250406
-0.266635
-0.280651
-0.292976
-0.30392
-0.313455
-0.32088
-0.191442
-0.218039
-0.240338
-0.259097
-0.275031
-0.288772
-0.300802
-0.311387
-0.320492
-0.327715
-0.20133
-0.22848
-0.251268
-0.270436
-0.28666
-0.300521
-0.312447
-0.322664
-0.331167
-0.337765
-0.218905
-0.247665
-0.271716
-0.291783
-0.308524
-0.322495
-0.33409
-0.343529
-0.350866
-0.356053
-0.260223
-0.290975
-0.316198
-0.336687
-0.353194
-0.366327
-0.3765
-0.383948
-0.388799
-0.391066
-0.390554
-0.359182
-0.34247
-0.332859
-0.325619
-0.319482
-0.313313
-0.304589
-0.289467
-0.276067
-0.38886
-0.360764
-0.345641
-0.336692
-0.329653
-0.323407
-0.317129
-0.309133
-0.297302
-0.28962
-0.386241
-0.361276
-0.347745
-0.339593
-0.333059
-0.32723
-0.321526
-0.314928
-0.306618
-0.302766
-0.383242
-0.361181
-0.349168
-0.341817
-0.335834
-0.330467
-0.325279
-0.319586
-0.313069
-0.310323
-0.380458
-0.360983
-0.350343
-0.343731
-0.338267
-0.33334
-0.328629
-0.323669
-0.318314
-0.315806
-0.378451
-0.361184
-0.351713
-0.345709
-0.340646
-0.336039
-0.331649
-0.327159
-0.322503
-0.319895
-0.377763
-0.362281
-0.353723
-0.348134
-0.343289
-0.338809
-0.334525
-0.330218
-0.325875
-0.322995
-0.378939
-0.364768
-0.356816
-0.351403
-0.346549
-0.341971
-0.337562
-0.333176
-0.328838
-0.325601
-0.382509
-0.369114
-0.36142
-0.355908
-0.350786
-0.345863
-0.341093
-0.336383
-0.331784
-0.328143
-0.388886
-0.375741
-0.367939
-0.362023
-0.356346
-0.35081
-0.345429
-0.340149
-0.335037
-0.330954
-0.325629
-0.272161
-0.239793
-0.196466
-0.162903
-0.13222
-0.108206
-0.088892
-0.0740096
-0.0621827
-0.0521943
-0.0433147
-0.0348324
-0.0276176
-0.0222263
-0.0182087
-0.0151576
-0.010665
-0.0082838
-0.000312537
-0.331198
-0.273531
-0.240756
-0.196818
-0.162938
-0.132247
-0.108407
-0.0894253
-0.0748994
-0.0633041
-0.0533014
-0.0440989
-0.0350292
-0.0271495
-0.0213022
-0.0174618
-0.0149529
-0.0111201
-0.00889252
-0.000586204
-0.338742
-0.27567
-0.242416
-0.197843
-0.163527
-0.13275
-0.108964
-0.0902035
-0.0759286
-0.0644856
-0.0544229
-0.0448945
-0.0352676
-0.0267578
-0.0204642
-0.0167801
-0.0147822
-0.0115678
-0.00947563
-0.00085873
-0.348113
-0.278617
-0.244721
-0.199541
-0.164684
-0.133741
-0.109884
-0.0912232
-0.0770867
-0.065714
-0.0555488
-0.0456985
-0.0355532
-0.0264564
-0.0197303
-0.0161754
-0.0146477
-0.0120032
-0.0100265
-0.00112798
-0.359053
-0.282433
-0.247602
-0.201893
-0.166405
-0.135216
-0.111164
-0.0924771
-0.0783635
-0.06698
-0.0566742
-0.0465113
-0.0358916
-0.0262546
-0.0191116
-0.0156544
-0.0145494
-0.0124227
-0.0105417
-0.00139296
-0.371157
-0.287196
-0.250971
-0.20484
-0.168654
-0.137148
-0.112785
-0.0939485
-0.0797461
-0.0682748
-0.0577957
-0.0473334
-0.0362857
-0.0261584
-0.0186159
-0.0152219
-0.0144866
-0.0128228
-0.0110174
-0.00165227
-0.384013
-0.293214
-0.254891
-0.20839
-0.171443
-0.13954
-0.114747
-0.0956343
-0.0812307
-0.0695965
-0.0589155
-0.0481711
-0.036745
-0.0261785
-0.0182543
-0.0148825
-0.0144572
-0.013199
-0.0114503
-0.00190483
-0.397366
-0.30144
-0.259945
-0.212911
-0.175046
-0.142587
-0.117189
-0.0976244
-0.0828732
-0.0709821
-0.0600637
-0.0490545
-0.0373013
-0.0263471
-0.0180544
-0.0146488
-0.0144603
-0.0135448
-0.0118356
-0.00214949
-0.408693
-0.312034
-0.266469
-0.218629
-0.179631
-0.146423
-0.120224
-0.100016
-0.0847557
-0.0724975
-0.0612891
-0.0500116
-0.0379616
-0.0266544
-0.0180022
-0.0145128
-0.0144953
-0.0138646
-0.012178
-0.0023868
-0.406758
-0.318868
-0.27102
-0.222885
-0.183131
-0.149518
-0.122804
-0.102159
-0.0865201
-0.0739512
-0.0624543
-0.0508739
-0.0384905
-0.0268187
-0.0178363
-0.0143375
-0.0145453
-0.0142081
-0.0125191
-0.00262173
-0.38083
-0.316492
-0.270524
-0.223367
-0.183703
-0.150467
-0.123951
-0.103485
-0.087954
-0.0753777
-0.0636947
-0.0517325
-0.0388146
-0.0265569
-0.0171119
-0.0138143
-0.0145742
-0.0147773
-0.0130547
-0.00295505
-0.363904
-0.310843
-0.265972
-0.221477
-0.183505
-0.151624
-0.125755
-0.105475
-0.0897875
-0.0768815
-0.0648147
-0.0524872
-0.0392996
-0.0268239
-0.0171975
-0.0139541
-0.014879
-0.0153003
-0.0133925
-0.00331577
-0.34432
-0.299099
-0.256454
-0.216419
-0.181704
-0.151998
-0.127256
-0.107356
-0.0915328
-0.0782513
-0.0657881
-0.0531689
-0.0398927
-0.0274248
-0.0177892
-0.0145006
-0.0153355
-0.0157343
-0.0135235
-0.00366406
-0.31444
-0.280222
-0.242755
-0.208598
-0.178409
-0.151632
-0.128467
-0.109162
-0.0932863
-0.0796525
-0.0668235
-0.0539812
-0.0407378
-0.0284104
-0.0188469
-0.0153805
-0.0158966
-0.0160721
-0.0134397
-0.00399269
-0.27558
-0.25472
-0.225569
-0.198155
-0.173285
-0.150168
-0.129116
-0.110725
-0.094967
-0.0810717
-0.0679553
-0.0549889
-0.041912
-0.0298597
-0.0204372
-0.0166171
-0.016526
-0.0162527
-0.0130945
-0.00426638
-0.234134
-0.225277
-0.205978
-0.185705
-0.166331
-0.1473
-0.128862
-0.111786
-0.0964229
-0.08245
-0.0691832
-0.0562137
-0.0434204
-0.0317459
-0.0225015
-0.0181524
-0.017163
-0.0162351
-0.0124961
-0.00444728
-0.196149
-0.195671
-0.185595
-0.172308
-0.158138
-0.143148
-0.127577
-0.112168
-0.0975201
-0.0837149
-0.0704706
-0.0576141
-0.0451658
-0.0339004
-0.0248219
-0.0198345
-0.0177529
-0.0160453
-0.0117403
-0.00451187
-0.165013
-0.169401
-0.166455
-0.159275
-0.149702
-0.138307
-0.12548
-0.11188
-0.0981876
-0.0847744
-0.0717081
-0.0590458
-0.0469357
-0.0360322
-0.0270679
-0.0214507
-0.0182693
-0.0157811
-0.0109939
-0.00446821
-0.142437
-0.149218
-0.150895
-0.148273
-0.142316
-0.13375
-0.123161
-0.111179
-0.0984644
-0.0855439
-0.0727341
-0.0602853
-0.0484454
-0.0377998
-0.0288829
-0.0227617
-0.0186881
-0.0155583
-0.0104299
-0.00436372
-0.129778
-0.137495
-0.141486
-0.141418
-0.137611
-0.130739
-0.121502
-0.11055
-0.0985131
-0.0859701
-0.0733666
-0.0610711
-0.0493901
-0.0388769
-0.0299597
-0.0235356
-0.0189463
-0.0154314
-0.0101433
-0.00427085
-0.444366
-0.457042
-0.464376
-0.466889
-0.465444
-0.46134
-0.456451
-0.453388
-0.457206
-0.479759
-0.364998
-0.378413
-0.388863
-0.396857
-0.403081
-0.408375
-0.413632
-0.419574
-0.426337
-0.439394
-0.300027
-0.313052
-0.324531
-0.334652
-0.343565
-0.351353
-0.358046
-0.363782
-0.368608
-0.378217
-0.244885
-0.256436
-0.266926
-0.276401
-0.284916
-0.292568
-0.299532
-0.30612
-0.312383
-0.320785
-0.198975
-0.208979
-0.218296
-0.226964
-0.235032
-0.242558
-0.249594
-0.256191
-0.262277
-0.268579
-0.161744
-0.170315
-0.178409
-0.186032
-0.193191
-0.199897
-0.206159
-0.211998
-0.217426
-0.222548
-0.132281
-0.139559
-0.146477
-0.153029
-0.159214
-0.165033
-0.170492
-0.175598
-0.180354
-0.184713
-0.110033
-0.116263
-0.122206
-0.127853
-0.133194
-0.138227
-0.142949
-0.147361
-0.151462
-0.155226
-0.0945723
-0.100027
-0.105242
-0.110205
-0.114905
-0.119337
-0.123497
-0.127382
-0.130994
-0.134327
-0.0861823
-0.0911486
-0.0959022
-0.100434
-0.104735
-0.108803
-0.112632
-0.116223
-0.119575
-0.12269
-0.0197135
-0.0838136
-0.146509
-0.201208
-0.251027
-0.296567
-0.337152
-0.372375
-0.402055
-0.426068
-0.0374377
-0.0870288
-0.134586
-0.175077
-0.211715
-0.245788
-0.276771
-0.304219
-0.328044
-0.348275
-0.0484717
-0.088093
-0.123192
-0.152976
-0.180056
-0.205389
-0.228704
-0.249745
-0.268546
-0.285253
-0.0534182
-0.0841429
-0.108985
-0.130164
-0.150071
-0.169078
-0.186873
-0.203296
-0.218383
-0.232222
-0.0528287
-0.075583
-0.0930992
-0.108312
-0.12317
-0.13771
-0.151559
-0.164581
-0.176799
-0.188256
-0.0481001
-0.0645048
-0.0772726
-0.08875
-0.100224
-0.111624
-0.122638
-0.133148
-0.14316
-0.152692
-0.0418066
-0.0537133
-0.0634747
-0.0725726
-0.0817297
-0.090871
-0.0997892
-0.108398
-0.116687
-0.124652
-0.0357803
-0.0447282
-0.0525687
-0.0600873
-0.0676428
-0.0751823
-0.0825849
-0.0897904
-0.0967781
-0.103532
-0.0310157
-0.0381784
-0.0448464
-0.0513533
-0.057858
-0.0643309
-0.0707055
-0.0769394
-0.0830087
-0.0888932
-0.0282099
-0.0345755
-0.0407314
-0.0467642
-0.0527416
-0.0586527
-0.0644614
-0.0701381
-0.0756619
-0.0810153
0.212234
0.213202
0.215625
0.218934
0.223448
0.226807
0.229357
0.219653
0.196046
0.0914352
0.20395
0.204471
0.205839
0.207415
0.209102
0.208404
0.204509
0.186515
0.149883
0.0515992
0.194067
0.194121
0.194352
0.194069
0.192853
0.188253
0.17878
0.155586
0.11415
0.0327138
0.18246
0.182001
0.181014
0.178805
0.174704
0.166581
0.152521
0.126708
0.0842112
0.0161041
0.169181
0.168204
0.166026
0.162003
0.15533
0.144396
0.127174
0.100546
0.0595204
0.00214512
0.154542
0.153096
0.149875
0.144329
0.135673
0.122837
0.104044
0.0779648
0.0406468
-0.0068126
0.139227
0.137406
0.133397
0.126762
0.116863
0.103084
0.0841538
0.0597115
0.0273533
-0.011203
0.124394
0.122328
0.117844
0.110609
0.1002
0.0863161
0.0682529
0.0460598
0.018624
-0.0126811
0.111778
0.109595
0.104923
0.0975105
0.0871243
0.0736661
0.0568521
0.0368629
0.0133552
-0.0127292
0.103806
0.101592
0.0968985
0.0895237
0.0793446
0.0663615
0.0505083
0.03199
0.0108006
-0.0123785
0.24775
0.249832
0.255439
0.264176
0.277839
0.295988
0.323129
0.358135
0.41073
0.478122
0.245246
0.247256
0.252674
0.261087
0.274259
0.291603
0.317534
0.350459
0.399455
0.460798
0.242511
0.244443
0.249653
0.257704
0.270316
0.286719
0.311226
0.341535
0.386056
0.439204
0.239556
0.241409
0.246392
0.254047
0.266035
0.281369
0.304251
0.331417
0.370675
0.413449
0.236394
0.238167
0.242909
0.250137
0.261442
0.27559
0.296655
0.32017
0.353478
0.383632
0.233042
0.234736
0.239224
0.246
0.256561
0.26942
0.288479
0.307868
0.334647
0.349825
0.229516
0.231138
0.235365
0.241673
0.251441
0.262934
0.279807
0.294652
0.314408
0.31211
0.225835
0.227401
0.231377
0.237225
0.246183
0.256283
0.270832
0.280804
0.293077
0.270493
0.222014
0.223535
0.227267
0.232658
0.240779
0.249464
0.261522
0.266322
0.270446
0.223857
0.218039
0.219446
0.222807
0.227565
0.234553
0.241478
0.250385
0.249565
0.244105
0.170503
0.259064
0.26151
0.26762
0.277297
0.29183
0.310712
0.337096
0.365685
0.403467
0.413375
0.259032
0.261488
0.267717
0.277557
0.292475
0.311994
0.33986
0.371351
0.415145
0.441479
0.258765
0.261196
0.267433
0.277264
0.292258
0.311966
0.340497
0.373876
0.421705
0.461621
0.258266
0.260671
0.266907
0.27672
0.291768
0.31165
0.340735
0.375814
0.427116
0.477938
0.257525
0.259904
0.266126
0.275909
0.29098
0.310994
0.340504
0.377009
0.431157
0.49059
0.256534
0.258881
0.265067
0.274782
0.289809
0.309847
0.339559
0.37706
0.433252
0.499191
0.255288
0.257597
0.263719
0.273325
0.28823
0.308165
0.337837
0.375858
0.433226
0.503621
0.253786
0.256048
0.26208
0.271534
0.286241
0.30594
0.335335
0.373381
0.43101
0.503801
0.252026
0.254236
0.260151
0.269409
0.283842
0.303168
0.332047
0.369608
0.42654
0.499641
0.250013
0.252162
0.257935
0.266954
0.281039
0.299848
0.327975
0.364525
0.419777
0.491084
0.213293
0.211871
0.208843
0.204022
0.197195
0.188141
0.176554
0.162251
0.1449
0.12465
0.2183
0.217072
0.214425
0.210128
0.203878
0.19534
0.184041
0.169636
0.151523
0.129762
0.225794
0.224915
0.222977
0.219691
0.21464
0.207285
0.196876
0.182711
0.163692
0.139574
0.233893
0.23349
0.232551
0.23075
0.227579
0.222246
0.213706
0.200618
0.181223
0.15443
0.241385
0.241533
0.241801
0.241853
0.241177
0.238727
0.233274
0.222523
0.204053
0.174822
0.247617
0.248336
0.249896
0.251997
0.254233
0.255376
0.254242
0.247326
0.231859
0.201111
0.252362
0.253615
0.256435
0.26059
0.265897
0.27107
0.275265
0.273683
0.263755
0.233036
0.255665
0.257379
0.261339
0.267396
0.275674
0.284993
0.295134
0.300242
0.298292
0.268917
0.257718
0.259798
0.264721
0.272407
0.283334
0.29657
0.312737
0.325658
0.334019
0.307015
0.25878
0.26111
0.266771
0.275709
0.288795
0.305377
0.327209
0.348578
0.370971
0.353819
0.110019
0.103857
0.0975416
0.0911775
0.0847489
0.0782459
0.0716847
0.0650908
0.0584882
0.0518982
0.113561
0.10669
0.0996397
0.0926017
0.0855022
0.0782941
0.0709939
0.0636388
0.0562624
0.0488922
0.120696
0.11231
0.103612
0.0951311
0.0866952
0.078151
0.0694959
0.0607844
0.0520623
0.0433601
0.132013
0.121284
0.109926
0.0991866
0.0887384
0.0782121
0.0675576
0.0568571
0.0461758
0.0355442
0.148308
0.134338
0.119094
0.10514
0.0919228
0.0786941
0.0653182
0.051926
0.0386131
0.0254034
0.170502
0.15236
0.131749
0.113438
0.0965748
0.0798126
0.0628926
0.0460324
0.0293673
0.0129022
0.199509
0.176399
0.148736
0.124746
0.103179
0.0818376
0.0603728
0.0391497
0.0183355
-0.00210644
0.235345
0.206606
0.170288
0.139423
0.111946
0.0847368
0.0575871
0.0310552
0.00528705
-0.0198147
0.277891
0.242501
0.196865
0.158479
0.1236
0.0889316
0.0548092
0.0219038
-0.00964368
-0.0398529
0.325598
0.28167
0.228098
0.180925
0.136048
0.0920198
0.0496748
0.00953519
-0.0281937
-0.063337
0.045341
0.0388359
0.0324013
0.0260541
0.0198096
0.0136821
0.00768353
0.00182555
-0.00388158
-0.00942853
0.0415543
0.034274
0.0270761
0.0199835
0.0130172
0.00619637
-0.000462477
-0.0069446
-0.0132371
-0.0193061
0.0347037
0.0261188
0.0176307
0.00926283
0.00103642
-0.00702968
-0.0149189
-0.022617
-0.0301135
-0.0373209
0.024982
0.0145099
0.00414966
-0.00607866
-0.0161582
-0.0260748
-0.0358164
-0.0453733
-0.0547449
-0.0637986
0.0123007
-0.000686716
-0.0135463
-0.0262665
-0.0388391
-0.0512588
-0.0635248
-0.0756426
-0.0876459
-0.0995756
-0.00338713
-0.0195133
-0.0354846
-0.0513159
-0.0670308
-0.082656
-0.0982163
-0.11372
-0.12923
-0.145443
-0.0222337
-0.0420757
-0.061652
-0.080991
-0.100143
-0.119194
-0.138273
-0.157501
-0.17725
-0.199141
-0.0443545
-0.0684125
-0.0920631
-0.115365
-0.138348
-0.161028
-0.183446
-0.205696
-0.229054
-0.25571
-0.0687569
-0.09644
-0.123089
-0.148987
-0.174489
-0.199981
-0.225813
-0.25232
-0.281722
-0.313139
-0.0957725
-0.125481
-0.152642
-0.177669
-0.20124
-0.224305
-0.247972
-0.273732
-0.307233
-0.350482
-0.0225834
-0.041329
-0.0575631
-0.0701663
-0.0784162
-0.0821548
-0.0816914
-0.0777951
-0.0714313
-0.0638429
-0.0560452
-0.0491034
-0.0432323
-0.0382412
-0.0327652
-0.0255698
-0.0167516
-0.00776054
-0.00191991
0.000201253
-0.0340517
-0.0535668
-0.0691958
-0.0803622
-0.0867367
-0.0884052
-0.0858909
-0.0801595
-0.072312
-0.0636914
-0.0553387
-0.0483416
-0.042821
-0.0383538
-0.0332868
-0.025987
-0.0167943
-0.00708937
-0.00124832
0.000445779
-0.0549115
-0.0752868
-0.0893569
-0.0976689
-0.100547
-0.0985269
-0.0925024
-0.083715
-0.0734412
-0.0631544
-0.0539252
-0.0468878
-0.0420202
-0.0385005
-0.0341926
-0.0267605
-0.0170095
-0.00612635
-0.000285171
0.000880188
-0.0845501
-0.104948
-0.116113
-0.119943
-0.117676
-0.110615
-0.100076
-0.0875129
-0.0743297
-0.0620975
-0.051879
-0.0448735
-0.040867
-0.0385726
-0.0352465
-0.027726
-0.0174134
-0.00521743
0.000605938
0.00141743
-0.121452
-0.140286
-0.147264
-0.144849
-0.135921
-0.122942
-0.107449
-0.0909326
-0.0748312
-0.060712
-0.0495605
-0.0426265
-0.0394786
-0.0384127
-0.0361012
-0.0286087
-0.0179181
-0.0046217
0.00116015
0.00193586
-0.161655
-0.177534
-0.179555
-0.169284
-0.152897
-0.133935
-0.113726
-0.0936535
-0.0750609
-0.0593817
-0.0474601
-0.040554
-0.0380354
-0.0379253
-0.0364818
-0.0291701
-0.018396
-0.00443896
0.0012711
0.00232726
-0.199007
-0.212224
-0.208874
-0.189978
-0.166639
-0.142495
-0.118406
-0.0956026
-0.0752093
-0.0584343
-0.0459523
-0.0389761
-0.0367364
-0.0371539
-0.0363113
-0.0293023
-0.0187381
-0.00462477
0.000969383
0.00253665
-0.229239
-0.241219
-0.231991
-0.205198
-0.176493
-0.148389
-0.121519
-0.0969162
-0.075423
-0.0580013
-0.0451605
-0.0380187
-0.0357242
-0.0362427
-0.0356989
-0.0290413
-0.0188979
-0.00506102
0.000367919
0.00256897
-0.254848
-0.263709
-0.247995
-0.21526
-0.18294
-0.152023
-0.123378
-0.0977407
-0.075697
-0.0579858
-0.0449608
-0.0376054
-0.035024
-0.0353216
-0.0348176
-0.028499
-0.0188902
-0.00562287
-0.00040118
0.00246782
-0.283334
-0.27925
-0.256696
-0.220221
-0.185845
-0.153228
-0.123765
-0.0978139
-0.0757861
-0.0582051
-0.0452497
-0.0377029
-0.0346261
-0.0343626
-0.0336132
-0.0276175
-0.0186783
-0.00622853
-0.00128936
0.00227374
-0.311949
-0.283364
-0.256956
-0.219403
-0.184788
-0.151894
-0.122661
-0.0971896
-0.075829
-0.0588805
-0.0463003
-0.0385634
-0.0346817
-0.0333726
-0.0319843
-0.0262956
-0.0182072
-0.00679103
-0.00222361
0.00203091
-0.325706
-0.283921
-0.25545
-0.216679
-0.181968
-0.149116
-0.120366
-0.0955058
-0.0748324
-0.0584897
-0.0463294
-0.0386727
-0.0345149
-0.0327603
-0.0310588
-0.0255222
-0.0178731
-0.00709714
-0.00278287
0.00185384
-0.329392
-0.282181
-0.252791
-0.212995
-0.178421
-0.145834
-0.117727
-0.0935767
-0.0736551
-0.0579623
-0.0462652
-0.0387487
-0.0343931
-0.0322588
-0.0302557
-0.024818
-0.0175414
-0.00737674
-0.00330803
0.00166735
-0.328801
-0.279902
-0.250135
-0.209656
-0.175322
-0.143033
-0.11555
-0.0920791
-0.0728726
-0.0577823
-0.0464773
-0.0390029
-0.0343397
-0.0317336
-0.0293873
-0.0240708
-0.0172145
-0.007699
-0.00386916
0.00146237
-0.326847
-0.277676
-0.247567
-0.206603
-0.172551
-0.140572
-0.113703
-0.0909042
-0.0724028
-0.057888
-0.0469173
-0.0393961
-0.0343235
-0.0311605
-0.0284338
-0.0232687
-0.0168878
-0.00806255
-0.00446627
0.00123997
-0.32439
-0.275602
-0.245117
-0.20378
-0.170011
-0.138346
-0.112085
-0.0899593
-0.0721598
-0.0582015
-0.0475205
-0.0398878
-0.0343351
-0.0305581
-0.0274237
-0.0224307
-0.0165638
-0.0084554
-0.00508672
0.00100326
-0.322086
-0.273801
-0.242938
-0.201288
-0.167759
-0.136393
-0.110713
-0.0892474
-0.0721323
-0.0587015
-0.0482629
-0.0404624
-0.0343755
-0.0299422
-0.0263785
-0.0215719
-0.0162472
-0.00887102
-0.0057224
0.000754734
-0.320602
-0.272438
-0.241201
-0.199237
-0.165871
-0.134766
-0.10962
-0.0887828
-0.0723176
-0.0593734
-0.0491259
-0.0411074
-0.034445
-0.0293254
-0.0253156
-0.0207053
-0.0159433
-0.00930503
-0.00636727
0.000496513
-0.320474
-0.271653
-0.240042
-0.197711
-0.164403
-0.133507
-0.108827
-0.0885692
-0.0727031
-0.0601943
-0.0500852
-0.0418075
-0.0345434
-0.0287219
-0.024255
-0.0198458
-0.0156572
-0.00975206
-0.00701367
0.000231166
-0.322078
-0.271544
-0.239556
-0.196773
-0.163401
-0.132648
-0.10835
-0.088606
-0.0732726
-0.0611389
-0.0511158
-0.0425476
-0.0346717
-0.0281471
-0.0232177
-0.0190082
-0.0153938
-0.0102074
-0.00765521
-3.93443e-05
)
;

boundaryField
{
    inlet
    {
        type            freestreamPressure;
        freestreamValue uniform 0;
        supersonic      false;
        value           nonuniform List<scalar> 
40
(
0.212234
0.20395
0.194067
0.18246
0.169181
0.154542
0.139227
0.124394
0.111778
0.103806
0.24775
0.245246
0.242511
0.239556
0.236394
0.233042
0.229516
0.225835
0.222014
0.218039
0.259064
0.259032
0.258765
0.258266
0.257525
0.256534
0.255288
0.253786
0.252026
0.250013
0.213293
0.2183
0.225794
0.233893
0.241385
0.247617
0.252362
0.255665
0.257718
0.25878
)
;
    }
    outlet
    {
        type            freestreamPressure;
        freestreamValue uniform 0;
        supersonic      false;
        value           nonuniform List<scalar> 
40
(
-2.2911e-06
-2.50706e-06
-2.61754e-06
-2.57797e-06
-2.34385e-06
-1.9117e-06
-1.34475e-06
-7.63908e-07
-2.97508e-07
-3.46132e-08
-1.69871e-07
-3.46237e-07
-5.44418e-07
-7.58655e-07
-9.83057e-07
-1.211e-06
-1.43599e-06
-1.65174e-06
-1.8539e-06
-2.04273e-06
2.09114e-07
2.43526e-07
2.74421e-07
2.96039e-07
3.03309e-07
2.91496e-07
2.5621e-07
1.93832e-07
1.02218e-07
-1.9421e-08
2.33193e-12
1.03016e-11
7.26099e-13
3.89433e-11
1.30986e-11
1.94936e-09
1.3824e-08
4.51958e-08
9.74994e-08
1.61126e-07
)
;
    }
    top
    {
        type            symmetryPlane;
    }
    bottom
    {
        type            symmetryPlane;
    }
    cylinder
    {
        type            zeroGradient;
    }
    frontandback
    {
        type            empty;
    }
}


// ************************************************************************* //
