/*--------------------------------*- C++ -*----------------------------------*\
  =========                 |
  \\      /  F ield         | OpenFOAM: The Open Source CFD Toolbox
   \\    /   O peration     | Website:  https://openfoam.org
    \\  /    A nd           | Version:  6.0
     \\/     M anipulation  |
\*---------------------------------------------------------------------------*/
FoamFile
{
    version     2.0;
    format      ascii;
    class       surfaceScalarField;
    location    "17.745";
    object      phi;
}
// * * * * * * * * * * * * * * * * * * * * * * * * * * * * * * * * * * * * * //

dimensions      [0 3 -1 0 0 0 0];

internalField   nonuniform List<scalar> 
4670
(
-0.000187508
-0.021671
0.0218585
-0.000514905
-0.0168201
0.0171475
-0.000858046
-0.0132205
0.0135636
-0.0011485
-0.0105609
0.0108514
-0.00135232
-0.00859214
0.00879596
-0.00145898
-0.007121
0.00722765
-0.00147436
-0.00600148
0.00601686
-0.00141623
-0.00512518
0.00506706
-0.00131141
-0.00441229
0.00430747
-0.00380534
0.00368725
-0.00119332
-0.000172489
-0.0214985
-0.000449447
-0.0165431
-0.00070115
-0.0129688
-0.000858351
-0.0104037
-0.000887861
-0.00856263
-0.000780112
-0.00722875
-0.000542221
-0.00623937
-0.000194133
-0.00547327
0.000233293
-0.00483971
-0.00427196
0.000699908
-0.000148697
-0.0213498
-0.00034744
-0.0163444
-0.000465993
-0.0128502
-0.000436716
-0.010433
-0.000227894
-0.00877145
0.000169534
-0.00762618
0.000748578
-0.00681842
0.00148885
-0.00621354
0.00235658
-0.00570744
-0.00521958
0.0033042
-0.000114727
-0.0212351
-0.000208058
-0.0162511
-0.000153293
-0.012905
0.000112407
-0.0106987
0.000617457
-0.0092765
0.00136998
-0.0083787
0.00236414
-0.00781257
0.00358131
-0.00743072
0.00498739
-0.00711352
-0.00676047
0.00652828
-6.95295e-05
-0.0211656
-2.90754e-05
-0.0162915
0.000239515
-0.0131736
0.000790073
-0.0112492
0.00164448
-0.0101309
0.00280794
-0.00954216
0.00427553
-0.00928016
0.00603257
-0.00918776
0.00804873
-0.00912967
-0.00897869
0.0102669
-1.14926e-05
-0.0211541
0.00019358
-0.0164966
0.000718742
-0.0136987
0.00160365
-0.0121341
0.00285887
-0.0113861
0.00448234
-0.0111656
0.00646725
-0.0112651
0.00880327
-0.0115238
0.011469
-0.0117954
-0.0119212
0.0144115
6.14125e-05
-0.0212155
0.000464876
-0.0169
0.00129253
-0.0145264
0.00256438
-0.013406
0.00427384
-0.0130956
0.00640483
-0.0132966
0.0089416
-0.0138018
0.0118737
-0.0144559
0.0151918
-0.0151135
-0.0155888
0.0188594
0.000150961
-0.0213665
0.000788316
-0.0175374
0.00196605
-0.0157041
0.00367992
-0.0151199
0.00590071
-0.0153164
0.00859016
-0.0159861
0.0117121
-0.0169238
0.0152431
-0.0179868
0.0191814
-0.0190518
-0.0199441
0.0235367
0.000257951
-0.0216244
0.00116287
-0.0184423
0.00273501
-0.0172762
0.00494393
-0.0173288
0.00773555
-0.018108
0.0110443
-0.0192948
0.0148015
-0.020681
0.0189469
-0.0221322
0.0234636
-0.0235685
-0.0249592
0.0284787
0.000382179
-0.0220066
0.00157897
-0.0196391
0.00357625
-0.0192735
0.00631939
-0.0200719
0.00973621
-0.0215248
0.0137462
-0.0233049
0.0182621
-0.0251968
0.0231814
-0.0270515
0.0283876
-0.0287747
-0.0304017
0.0338302
0.0302339
0.00118547
-0.0314194
0.0290438
0.00119015
0.0278758
0.00116798
0.0267555
0.00112032
0.0257049
0.00105054
0.0247422
0.000962747
0.0238812
0.000860987
0.0231327
0.000748565
0.022505
0.000627609
0.000498451
0.0402214
0.00370357
-0.0427395
0.0375849
0.0038267
0.0349003
0.00385254
0.0322352
0.00378545
0.0296519
0.00363383
0.0272059
0.00340875
0.0249448
0.00312206
0.0229089
0.00278449
0.0211317
0.00240476
0.00199109
0.0490192
0.00687028
-0.0521859
0.0455831
0.00726271
0.041971
0.00746473
0.0382784
0.00747803
0.0345998
0.00731239
0.0310246
0.00698399
0.0276344
0.00651226
0.0245029
0.005916
0.0216965
0.00521115
0.00441402
0.0562847
0.0102086
-0.059623
0.0525249
0.0110225
0.0484411
0.0115485
0.0441415
0.0117777
0.0397399
0.011714
0.0353505
0.0113734
0.031084
0.0107788
0.0270463
0.00995371
0.0233409
0.00891647
0.00768304
0.0619657
0.0134051
-0.0651623
0.0582181
0.0147701
0.0540068
0.0157599
0.0494368
0.0163476
0.044627
0.0165239
0.0397035
0.0162968
0.0347954
0.0156869
0.0300332
0.0147159
0.0255559
0.0133938
0.0117141
0.0661804
0.0162791
-0.0690543
0.0626621
0.0182884
0.0585665
0.0198555
0.0539836
0.0209305
0.0490231
0.0214844
0.0438093
0.0215106
0.0384747
0.0210214
0.0331598
0.0200308
0.0280271
0.0185265
0.0164364
0.0691314
0.0187496
-0.0716019
0.0659632
0.0214566
0.0621397
0.023679
0.057728
0.0253422
0.052819
0.0263934
0.0475218
0.0268078
0.0419566
0.0265866
0.0362517
0.0257357
0.0305671
0.0242111
0.0218066
0.0710454
0.0208044
-0.0731002
0.068276
0.0242261
0.0648104
0.0271446
0.060691
0.0294616
0.0559843
0.0311001
0.0507765
0.0320157
0.0451614
0.0322017
0.0392279
0.0316692
0.0330815
0.0303575
0.0278366
0.0721327
0.0224734
-0.0738017
0.0697614
0.0265973
0.0666871
0.0302189
0.0629297
0.033219
0.0585323
0.0354975
0.0535568
0.0369912
0.0480668
0.0376917
0.0420922
0.0376438
0.0355966
0.0368531
0.0346585
0.0725628
-0.0739002
0.0238108
0.0705565
0.0286036
0.0678681
0.0329073
0.0645013
0.0365858
0.0604816
0.0395172
0.0558532
0.0416196
0.0506631
0.0428817
0.0449082
0.0433988
0.038395
0.0433663
0.0426517
0.0367722
-0.00032582
-0.0364464
0.0368958
-0.000123644
0.0368126
8.32131e-05
0.0365255
0.00028712
0.0360437
0.000481815
0.0353823
0.000661414
0.0345618
0.000820475
0.0336075
0.000954237
0.0325489
0.00105865
0.0011295
0.0509205
-0.00150131
-0.049745
0.0516697
-0.000872828
0.0519808
-0.000227839
0.0518481
0.000419777
0.0512757
0.00105423
0.0502784
0.00165868
0.0488829
0.00221603
0.0471272
0.00270994
0.0450602
0.00312562
0.00345017
0.0589364
-0.00347126
-0.0569664
0.0603916
-0.00232799
0.061305
-0.00114129
0.0616551
6.96401e-05
0.0614299
0.00127945
0.0606295
0.00245913
0.0592679
0.00357757
0.0573746
0.00460326
0.0549942
0.00550605
0.00625849
0.0629177
-0.00607813
-0.0603108
0.065003
-0.00441334
0.0665255
-0.00266379
0.0674472
-0.000852067
0.0677387
0.000987968
0.0673819
0.00281595
0.0663723
0.00458715
0.064721
0.00625456
0.062456
0.00777107
0.00909147
0.0643742
-0.009145
-0.0613073
0.0669564
-0.00699554
0.0689995
-0.00470691
0.070452
-0.00230457
0.0712709
0.000169054
0.0714235
0.00266339
0.0708887
0.00512199
0.0696588
0.00748445
0.0677416
0.00968827
0.0116708
0.0643637
-0.0125206
-0.0609881
0.0673104
-0.00994227
0.0697577
-0.00715418
0.0716436
-0.00419055
0.0729184
-0.00110573
0.0735418
0.00204003
0.0734825
0.00518125
0.0727192
0.00824782
0.0712417
0.0111658
0.0138581
0.0635864
-0.0161027
-0.0600043
0.0667951
-0.013151
0.0695363
-0.00989536
0.0717436
-0.0063979
0.0733694
-0.00273147
0.0743746
0.00103482
0.0747257
0.00483013
0.074394
0.00857956
0.073357
0.0122027
0.0156132
0.0624893
-0.0198548
-0.0587372
0.0658902
-0.0165519
0.0688283
-0.0128335
0.071247
-0.0088166
0.0731124
-0.00459687
0.0743949
-0.0002477
0.0750645
0.0041605
0.0750907
0.00855338
0.0744442
0.0128493
0.0169571
0.061376
-0.0237996
-0.0574312
0.0648981
-0.020074
0.0679333
-0.0158687
0.0704575
-0.0113408
0.072459
-0.00659839
0.07392
-0.00170868
0.0748154
0.00326508
0.0751155
0.00825335
0.074788
0.0131767
0.0179434
0.0604375
-0.0563761
-0.027861
0.0639812
-0.0236177
0.0669959
-0.0188834
0.0695308
-0.0138758
0.0715852
-0.00865271
0.0731448
-0.00326829
0.0741864
0.00222341
0.0746812
0.0077586
0.0745968
0.0132611
0.0186401
0.0423554
0.0133729
-0.00809276
-0.0476355
0.0369907
0.0141065
-0.00874191
0.0315429
0.0149791
-0.00953136
0.0260286
0.0160383
-0.010524
0.0204917
0.0173433
-0.0118063
0.0150264
0.0189457
-0.0134805
0.00981298
0.0208531
-0.0156396
0.005169
0.022954
-0.01831
0.00162082
0.024889
-0.0213409
0.025833
-0.0242122
0.0421267
0.0186258
-0.0473797
0.0367878
0.0194454
0.031365
0.020402
0.025875
0.0215283
0.0203622
0.0228561
0.0149214
0.0243865
0.00973421
0.0260403
0.00511945
0.0275687
0.00160163
0.0284069
0.0274346
0.041525
0.0238213
-0.0467205
0.0362432
0.0247273
0.0308788
0.0257664
0.0254499
0.0269571
0.0200023
0.0283037
0.0146327
0.0297561
0.00952347
0.0311495
0.00499204
0.0321002
0.00155349
0.0318454
0.0289881
0.0405536
0.0289315
-0.0456637
0.0353585
0.0299224
0.0300852
0.0310397
0.0247539
0.0322884
0.0194128
0.0336448
0.014161
0.0350079
0.00918183
0.0361286
0.0047883
0.0364937
0.00147826
0.0351555
0.0304664
0.0392152
0.0339307
-0.0442145
0.0341354
0.0350022
0.0289852
0.0361899
0.0237878
0.0374857
0.0185948
0.0388379
0.0135081
0.0400947
0.00871144
0.0409252
0.00451029
0.0406948
0.00137715
0.0382886
0.0318435
0.0375096
0.0387952
-0.0423741
0.0325729
0.0399388
0.0275785
0.0411844
0.0225526
0.0425116
0.0175502
0.0438402
0.0126768
0.0449681
0.00811556
0.0454865
0.00416083
0.0446496
0.00125162
0.0411978
0.0330951
0.0354294
0.0435005
-0.0401346
0.0306659
0.0447024
0.0258626
0.0459876
0.0210485
0.0473258
0.0162819
0.0486068
0.0116715
0.0495785
0.00739897
0.0497591
0.00374389
0.0483047
0.00110362
0.0438381
0.0341988
0.0329556
0.0480145
-0.0374696
0.0284023
0.0492557
0.0238335
0.0505564
0.0192767
0.0518826
0.0147943
0.0530892
0.0104988
0.053874
0.00656867
0.0536891
0.00326507
0.0516083
0.000935804
0.0461673
0.0351346
0.0300418
0.0523005
-0.0343278
0.0257613
0.0535362
0.0214883
0.0548295
0.0172429
0.056128
0.0130971
0.0572349
0.00916945
0.0578017
0.00563499
0.0572236
0.0027323
0.054511
0.000752091
0.0481475
0.0358867
0.0266376
-0.0307133
0.0227426
0.0188349
0.0149586
0.0112055
0.00769987
0.00461268
0.00215719
0.000559697
0.0246228
-0.0358736
0.0401416
-0.0288907
0.0206397
-0.0356771
0.0396602
0.0167999
-0.0351461
0.0389859
0.0131275
-0.0341061
0.0377785
0.00969693
-0.0322314
0.035662
0.00660569
-0.0290465
0.0321377
0.00396795
-0.0239013
0.026539
0.00190448
-0.0159519
0.0180154
0.00053611
-0.00415374
0.00552211
0.0128027
-0.0122666
0.0280558
-0.0315493
-0.0323802
0.0237832
-0.0314045
0.0195965
-0.0309593
0.0155366
-0.0300463
0.0116772
-0.028372
0.00812113
-0.0254904
0.00499928
-0.0207794
0.00246998
-0.0134226
0.000722014
-0.00240577
0.0135248
0.0310711
-0.0270714
-0.035549
0.026572
-0.0269053
0.0221041
-0.0264915
0.0177185
-0.0256607
0.0134889
-0.0241425
0.00952169
-0.0215232
0.00596228
-0.01722
0.00300331
-0.0104637
0.00089825
-0.000300711
0.014423
0.0337025
-0.0224246
-0.0383493
0.0290101
-0.022213
0.0243108
-0.0217921
0.019653
-0.0210029
0.0151082
-0.0195977
0.0107843
-0.0171993
0.00683843
-0.0132741
0.00349314
-0.00711837
0.00106177
0.00213066
0.0154848
0.0359894
-0.0176176
-0.0407964
0.0311236
-0.0173472
0.0262257
-0.0168943
0.0213373
-0.0161145
0.0165252
-0.0147855
0.0118961
-0.0125703
0.00761538
-0.00899334
0.00393082
-0.00343381
0.0012091
0.00485238
0.0166939
0.0379383
-0.0126662
-0.0428897
0.0329198
-0.0123287
0.0278523
-0.0118267
0.02277
-0.0110322
0.017734
-0.00974956
0.0128486
-0.00768495
0.00828437
-0.00442908
0.00430973
0.000540832
0.00133732
0.00782478
0.0180312
0.039544
-0.00759206
-0.0446181
0.0343971
-0.0071818
0.0291891
-0.00661866
0.0239482
-0.00579129
0.0187299
-0.0045313
0.0136355
-0.00259055
0.00883883
0.000367611
0.00462474
0.00475493
0.00144414
0.0110054
0.0194753
0.0407972
-0.00242109
-0.0459682
0.0355495
-0.00193406
0.0302319
-0.0013011
0.024868
-0.000427357
0.0195085
0.000828232
0.0142517
0.00266626
0.00927361
0.00534566
0.00487187
0.00915667
0.00152775
0.0143495
0.0210031
0.0416888
0.00281761
-0.0469275
0.0363703
0.00338444
0.0309757
0.00409348
0.025525
0.00502338
0.0200653
0.00628792
0.0146927
0.00803887
0.00958468
0.0104537
0.00504823
0.0136931
0.00158696
0.0178108
0.0225901
0.042211
-0.0474862
0.0368536
0.0314157
0.0259151
0.0203967
0.0149551
0.00976912
0.00515222
0.00162212
0.0442876
0.0213386
-0.0254847
0.04779
0.0174024
-0.0209048
0.0507032
0.0129703
-0.0158834
0.053076
0.00821549
-0.0105883
0.0548966
0.00328279
-0.00510337
0.0561361
-0.00172725
0.000487722
0.0567558
-0.00671275
0.00609312
0.0567138
-0.0115602
0.0116022
0.0559723
-0.0161448
0.0168863
-0.0203326
0.0545036
0.0218013
0.0435236
0.0174753
0.0469314
0.0139945
0.0497901
0.0101116
0.0520624
0.00594327
0.0537265
0.00161866
0.0547533
-0.00275402
0.0551078
-0.00706732
0.054756
-0.0112084
0.0536708
-0.0150595
-0.0185015
0.0518396
0.0425686
0.0138925
0.0457534
0.0108098
0.0484111
0.00745388
0.0504682
0.0038861
0.0518811
0.000205783
0.0526135
-0.00348638
0.0526336
-0.00708744
0.0519173
-0.0104921
0.0504534
-0.0135956
-0.016298
0.0482499
0.0410874
0.0105837
0.043967
0.00793016
0.0463132
0.00510775
0.0480464
0.00215291
0.0491126
-0.000860445
0.0494734
-0.00384716
0.0491034
-0.00671743
0.0479921
-0.00938094
0.046148
-0.0117515
-0.0137524
0.0436024
0.0386537
0.00759197
0.0411619
0.00542197
0.0431111
0.00315855
0.0444332
0.000830749
0.045079
-0.00150617
0.045017
-0.00378521
0.0442346
-0.00593503
0.0427391
-0.00788543
0.0405603
-0.00957267
-0.0109443
0.0377522
0.0347361
0.00499359
0.0368057
0.00335237
0.0382939
0.00167035
0.0391517
-2.70827e-05
0.0393452
-0.00169961
0.0388588
-0.00329879
0.0376976
-0.00477387
0.0358888
-0.00607669
0.0334824
-0.00716625
-0.00801234
0.0305505
0.028658
0.00287466
0.0302323
0.001778
0.0312291
0.000673526
0.0316213
-0.000419269
0.0313955
-0.00147378
0.0305561
-0.00245934
0.0291272
-0.00334502
0.0271536
-0.00410304
0.0246992
-0.00471189
-0.00515839
0.0218452
0.0195803
0.00130976
0.0206355
0.000722797
0.021166
0.000142998
0.0211656
-0.00041886
0.0206407
-0.000948881
0.0196131
-0.00143177
0.018121
-0.0018529
0.0162182
-0.00220018
0.0139719
-0.00246561
-0.00264642
0.0114599
0.0064871
0.000344771
0.00705199
0.000157899
0.00721656
-2.15686e-05
0.00698919
-0.000191492
0.00638804
-0.00034773
0.00544211
-0.000485833
0.00419107
-0.000601858
0.00268381
-0.000692923
0.000975957
-0.000757752
-0.000797718
-0.000872747
-0.0119219
-0.011764
-0.0117855
-0.011977
-0.0123248
-0.0128106
-0.0134124
-0.0141054
-0.0148631
-0.0156608
0.0522998
-0.0240059
0.0262097
0.0493767
-0.0270043
0.0299274
0.0457843
-0.0292517
0.0328441
0.0416054
-0.0306984
0.0348773
0.0369486
-0.0313546
0.0360114
0.03193
-0.0312904
0.036309
0.0266416
-0.030614
0.0359024
0.0210997
-0.0294072
0.0349492
0.015185
-0.0275384
0.033453
-0.0240789
0.00838323
0.0308807
0.0492734
-0.0214397
0.0460104
-0.0237413
0.0421225
-0.0253637
0.0377112
-0.0262872
0.0328971
-0.0265405
0.0277995
-0.0261928
0.0225085
-0.0253231
0.0170567
-0.0239553
0.0114468
-0.0219285
-0.01865
0.00601785
0.0453407
-0.0185305
0.0417891
-0.0201897
0.0376882
-0.0212628
0.0331549
-0.0217539
0.0283176
-0.0217033
0.0232985
-0.0211736
0.0181964
-0.020221
0.0130869
-0.0188458
0.00808561
-0.0169272
-0.0141684
0.00360401
0.0404127
-0.0153408
0.0366649
-0.0164419
0.0324687
-0.0170666
0.0279496
-0.0172348
0.0232371
-0.0169908
0.0184518
-0.0163883
0.0136978
-0.015467
0.00907462
-0.0142227
0.0047306
-0.0125832
-0.0104234
0.000985652
0.0343921
-0.0119806
0.0305825
-0.0126323
0.026441
-0.012925
0.0220924
-0.0128863
0.0176592
-0.0125576
0.0132526
-0.0119817
0.00897177
-0.0111862
0.00491713
-0.010168
0.00122406
-0.0088901
-0.0073105
-0.00188885
0.0271818
-0.00861193
0.023486
-0.00893655
0.0195775
-0.00901652
0.0155706
-0.00887945
0.0115721
-0.00855905
0.00767643
-0.00808604
0.00396839
-0.00747812
0.000533856
-0.00673349
-0.00252163
-0.00583462
-0.00477248
-0.00505965
0.018681
-0.0054477
0.0153113
-0.00556683
0.0118365
-0.00554174
0.00835139
-0.00539432
0.00494017
-0.00514784
0.00167549
-0.00482136
-0.00137809
-0.00442454
-0.00415598
-0.0039556
-0.00658454
-0.00340606
-0.00277608
-0.00858094
0.00875932
-0.0027471
0.00595849
-0.002766
0.00313466
-0.00271792
0.000356743
-0.0026164
-0.00231698
-0.00247412
-0.00483792
-0.00230042
-0.00716333
-0.00209913
-0.00925066
-0.00186826
-0.0110534
-0.00160336
-0.00130562
-0.0125238
-0.00280809
-0.000811764
-0.00476914
-0.000804947
-0.00670741
-0.000779651
-0.00858231
-0.000741494
-0.0103617
-0.000694688
-0.0120202
-0.000641953
-0.0135354
-0.000583958
-0.0148843
-0.000519342
-0.0160415
-0.000446151
-0.000365934
-0.0169812
-0.0164726
-0.0172775
-0.0180572
-0.0187987
-0.0194934
-0.0201353
-0.0207193
-0.0212386
-0.0216848
-0.0220507
0.000266358
-0.0223171
0.00097486
-0.0176897
0.00209007
-0.013639
0.00360278
-0.0100937
0.00551177
-0.00696864
0.00781325
-0.00419033
0.0104942
-0.0016953
0.0135224
0.000575865
0.0168525
0.00268775
0.00472763
0.020508
0.000180392
-0.0224975
0.000665977
-0.0181753
0.00144117
-0.0144142
0.00250325
-0.0111557
0.00385166
-0.00831704
0.00548297
-0.00582164
0.00739125
-0.00360358
0.00957624
-0.00160912
0.0120747
0.000189261
0.00175209
0.0150503
9.93413e-05
-0.0225968
0.000384971
-0.0184609
0.000862515
-0.0148918
0.00154247
-0.0118357
0.00243578
-0.00921035
0.00355321
-0.00693907
0.0049084
-0.00495877
0.0065241
-0.00322482
0.00843795
-0.00172459
-0.000499367
0.0106894
2.76642e-05
-0.0226245
0.000140251
-0.0185735
0.000365834
-0.0151173
0.000729323
-0.0121992
0.00125278
-0.00973381
0.00195669
-0.00764298
0.00286227
-0.00586435
0.00399308
-0.00435563
0.00537039
-0.0031019
-0.00212003
0.00699105
-3.38891e-05
-0.0225906
-6.68523e-05
-0.0185405
-4.93932e-05
-0.0151348
5.61084e-05
-0.0123047
0.000279278
-0.00995698
0.000644092
-0.0080078
0.00117053
-0.00639079
0.00187418
-0.00505928
0.00276093
-0.00398865
-0.0031743
0.0038152
-8.54422e-05
-0.0225051
-0.000236965
-0.018389
-0.000385963
-0.0149858
-0.000484822
-0.0122058
-0.000499881
-0.00994192
-0.000407807
-0.00809987
-0.000193549
-0.00660504
0.000149751
-0.00540258
0.000617838
-0.00445674
-0.00374721
0.00119075
-0.000126948
-0.0223782
-0.000370073
-0.0181459
-0.000644406
-0.0147115
-0.000894915
-0.0119553
-0.00108635
-0.00975048
-0.00119798
-0.00798824
-0.00122037
-0.00658266
-0.0011538
-0.00546915
-0.00100872
-0.00460182
-0.00394932
-0.000806622
-0.000157944
-0.0222202
-0.000464988
-0.0178389
-0.000822525
-0.0143539
-0.00117007
-0.0116078
-0.00147211
-0.00944845
-0.00171104
-0.00774931
-0.00188254
-0.00641116
-0.00199254
-0.00535915
-0.00205581
-0.00453854
-0.00391018
-0.00209495
-0.000177588
-0.0220427
-0.00051991
-0.0174965
-0.00091716
-0.0139567
-0.00130463
-0.0112203
-0.00164705
-0.00910602
-0.00192977
-0.00746659
-0.00215278
-0.00618815
-0.00232666
-0.00518527
-0.00247001
-0.00439519
-0.00377272
-0.00260747
-0.000184133
-0.000533179
-0.000926269
-0.00129521
-0.00160527
-0.0018442
-0.00201549
-0.0021337
-0.00222143
-0.00230689
-0.00106218
-0.0111429
0.0110118
0.00157017
-0.0135889
0.0109565
0.00522124
-0.0143525
0.0107014
0.00949068
-0.0147857
0.0105162
0.0140737
-0.0138137
0.00923073
0.0186982
-0.0114204
0.00679591
0.0232629
-0.00845818
0.00389348
0.0276737
-0.00616195
0.00175116
0.0318676
-0.00619487
0.00200096
0.0357325
-0.0102374
0.00637242
0.0391153
-0.018562
0.0151792
0.0418246
-0.0298913
0.0271819
0.0439325
-0.0389319
0.0368239
0.0456043
-0.0381422
0.0364704
0.0473576
-0.0204943
0.018741
0.0491088
0.0135758
-0.0153269
0.0515033
0.0344355
-0.03683
0.0540679
0.0420636
-0.0446282
0.0565723
-0.00782204
0.00531765
-0.0408863
0.0393409
0.00133012
-0.0117731
0.0041252
-0.016384
0.00780757
-0.0180348
0.0119735
-0.0189516
0.0163973
-0.0182375
0.0208557
-0.0158789
0.025267
-0.0128694
0.0295407
-0.0104357
0.0335985
-0.0102527
0.0373049
-0.0139437
0.0404878
-0.0217448
0.0429509
-0.0323544
0.0447801
-0.0407611
0.0461828
-0.0395449
0.0477415
-0.022053
0.0494484
0.0118689
0.0519028
0.0319812
0.0545928
0.0393735
0.057118
-0.0103472
-0.0423698
0.00457641
-0.0130454
0.00751556
-0.0193231
0.011169
-0.0216883
0.0151414
-0.0229239
0.0193046
-0.0224007
0.0234971
-0.0200713
0.0276592
-0.0170315
0.031707
-0.0144835
0.0355493
-0.0140951
0.0390319
-0.0174263
0.0419694
-0.0246824
0.0441642
-0.0345492
0.0457114
-0.0423082
0.0468502
-0.0406838
0.0482144
-0.0234172
0.0498695
0.0102138
0.0523675
0.0294832
0.0551668
0.0365742
0.0577099
-0.0128903
-0.0438121
0.00854312
-0.0150602
0.0115848
-0.0223648
0.0151296
-0.0252331
0.0188195
-0.0266139
0.0226317
-0.026213
0.0264734
-0.023913
0.0303066
-0.0208648
0.034055
-0.0182319
0.0376169
-0.0176569
0.0408243
-0.0206337
0.0434845
-0.0273425
0.0454021
-0.0364668
0.0466777
-0.0435839
0.0475717
-0.0415777
0.0487533
-0.0245988
0.0503557
0.00861147
0.0528843
0.0269546
0.0557778
0.0336807
0.0583384
-0.0154508
-0.0452364
0.0130637
-0.017857
0.0161392
-0.0254403
0.0194737
-0.0285676
0.0227952
-0.0299353
0.0261814
-0.0295992
0.0296076
-0.0273391
0.0330538
-0.024311
0.0364497
-0.0216279
0.0396851
-0.0208923
0.0425836
-0.0235322
0.0449504
-0.0297094
0.0465965
-0.0381129
0.0476246
-0.044612
0.0483057
-0.0422588
0.0493284
-0.0256215
0.0508844
0.00705541
0.0534344
0.0244046
0.0564098
0.0307052
0.058991
-0.018032
-0.0466692
0.0179423
-0.0213878
0.0209526
-0.0284507
0.0239574
-0.0315724
0.0268307
-0.0328086
0.0297364
-0.0325049
0.0327072
-0.0303099
0.0357337
-0.0273375
0.0387484
-0.0246425
0.0416334
-0.0237773
0.0442085
-0.0261073
0.0462829
-0.0317837
0.0476771
-0.0395072
0.0484941
-0.045429
0.049006
-0.0427707
0.0499047
-0.0265201
0.0514292
0.00553085
0.0539972
0.0218366
0.0570465
0.027656
0.059656
-0.0206414
-0.0481399
0.0229481
-0.0254765
0.0257628
-0.0312654
0.0283132
-0.0341228
0.0306737
-0.035169
0.0330704
-0.0349016
0.0355749
-0.0328144
0.0381778
-0.0299404
0.0408088
-0.0272735
0.0433433
-0.0263118
0.0456013
-0.0283653
0.0474007
-0.0335831
0.0485756
-0.0406821
0.0492282
-0.0460816
0.0496245
-0.043167
0.050444
-0.0273396
0.0519604
0.00401446
0.05455
0.019247
0.0576706
0.0245354
0.0603211
-0.0232919
-0.0496808
0.0278172
-0.029757
0.0302695
-0.0337177
0.0322571
-0.0361104
0.0340671
-0.0369791
0.0359593
-0.0367938
0.0380189
-0.0348739
0.0402242
-0.0321458
0.0424967
-0.029546
0.0447048
-0.0285198
0.0466718
-0.0303324
0.0482294
-0.0351407
0.0492291
-0.0416818
0.0497723
-0.0466248
0.0501137
-0.0435084
0.0509074
-0.0281333
0.0524471
0.00247476
0.0550692
0.0166249
0.058265
0.0213395
0.0609745
-0.0260014
-0.0513271
0.0323793
-0.0336577
0.0342265
-0.0355649
0.0355557
-0.0374396
0.0368038
-0.0382271
0.0382233
-0.0382133
0.0398833
-0.036534
0.0417398
-0.0340023
0.0437
-0.0315062
0.045625
-0.0304448
0.0473444
-0.0320518
0.0487071
-0.0365034
0.0495851
-0.0425598
0.0500801
-0.0471198
0.0504318
-0.04386
0.051258
-0.0289595
0.0528587
0.000874013
0.0555314
0.0139523
0.058813
0.0180579
0.0616051
-0.0287935
-0.0531164
0.0367082
-0.0365357
0.0375752
-0.0364319
0.0381137
-0.0379781
0.0388016
-0.038915
0.0397836
-0.0391954
0.0410917
-0.037842
0.04265
-0.0355606
0.0443483
-0.0332046
0.0460408
-0.0321373
0.0475646
-0.0335757
0.0487886
-0.0377274
0.0496055
-0.0433766
0.0501181
-0.0476324
0.0505473
-0.0442892
0.0514669
-0.0298791
0.053169
-0.000828132
0.0559147
0.0112066
0.0592998
0.0146728
0.0622007
-0.0316944
-0.0550904
0.117849
-0.0278707
-0.126514
0.113095
-0.0316776
0.110143
-0.0350261
0.108241
-0.0370129
0.106966
-0.0379206
0.106372
-0.0372486
0.106432
-0.03562
0.107086
-0.0338585
0.108136
-0.0331877
0.10921
-0.03465
0.109854
-0.038371
0.109574
-0.0430965
0.108246
-0.0463046
0.106172
-0.0422146
0.10463
-0.0283371
0.105128
-0.00132614
0.108268
0.00806644
0.113073
0.00986788
0.11628
-0.0349021
-0.0559163
0.165136
-0.0171785
-0.175829
0.156697
-0.023238
0.1506
-0.0289296
0.146165
-0.0325776
0.142808
-0.0345636
0.140463
-0.0349041
0.139024
-0.0341805
0.138364
-0.0331982
0.138228
-0.0330524
0.138201
-0.0346221
0.137801
-0.0379713
0.136518
-0.0418136
0.13423
-0.0440166
0.131255
-0.03924
0.128954
-0.0260357
0.129039
-0.00141089
0.131987
0.00511771
0.136817
0.00503773
0.139566
-0.0376504
-0.0561385
0.216324
-0.00647468
-0.227028
0.207077
-0.0139907
0.199074
-0.0209267
0.192512
-0.0260152
0.187134
-0.029186
0.182902
-0.0306722
0.179727
-0.0310053
0.177457
-0.0309283
0.175808
-0.0314029
0.174337
-0.0331515
0.172567
-0.0362016
0.170009
-0.0392552
0.166574
-0.0405818
0.162621
-0.0352867
0.159527
-0.0229422
0.159126
-0.00100945
0.161632
0.00261222
0.166125
0.000543879
0.167958
-0.0394834
-0.0554164
0.267805
0.00208879
-0.276368
0.259834
-0.00601999
0.251911
-0.0130033
0.244589
-0.0186941
0.238091
-0.0226876
0.232524
-0.0251054
0.227902
-0.0263833
0.224122
-0.0271483
0.220926
-0.0282064
0.217896
-0.0301217
0.214603
-0.0329083
0.210636
-0.0352885
0.205995
-0.0359403
0.201124
-0.0304163
0.197359
-0.0191771
0.196507
-0.000156972
0.198319
0.000799878
0.202026
-0.0031636
0.202381
-0.0398378
-0.053349
0.317421
0.00743803
-0.32277
0.311721
-0.000320556
0.305428
-0.00670983
0.298875
-0.0121419
0.292541
-0.0163531
0.286695
-0.0192596
0.281445
-0.0211336
0.276756
-0.0224591
0.272432
-0.023882
0.268126
-0.0258155
0.2635
-0.0282831
0.258285
-0.0300732
0.252614
-0.0302689
0.247093
-0.0248952
0.242968
-0.0150523
0.241871
0.000939397
0.242847
-0.000175716
0.245326
-0.00564284
0.243648
-0.0381594
-0.0495198
0.366194
0.00961868
-0.368375
0.362808
0.003066
0.358562
-0.0024646
0.353583
-0.00716255
0.348286
-0.011056
0.343031
-0.0140051
0.33799
-0.0160924
0.333164
-0.0176326
0.328403
-0.0191215
0.323436
-0.0208487
0.318024
-0.0228707
0.312057
-0.0241062
0.305807
-0.024019
0.3001
-0.0191883
0.296078
-0.0110307
0.29512
0.00189744
0.295338
-0.000393038
0.296322
-0.00662713
0.29226
-0.0340973
-0.0435996
0.417128
0.00933173
-0.416841
0.415717
0.00447701
0.413231
2.12194e-05
0.409834
-0.00376507
0.405774
-0.00699634
0.401389
-0.00962012
0.396903
-0.0116066
0.392362
-0.0130916
0.387658
-0.0144172
0.382584
-0.0157748
0.376974
-0.0172605
0.37086
-0.0179927
0.364589
-0.0177473
0.359195
-0.013795
0.355713
-0.00754811
0.355311
0.00229931
0.355097
-0.000179061
0.354649
-0.00617909
0.348267
-0.0277157
-0.0354796
0.473629
0.00731854
-0.471616
0.473881
0.0042252
0.472818
0.00108492
0.470701
-0.0016482
0.467704
-0.00399991
0.464076
-0.00599211
0.460058
-0.00758884
0.455769
-0.00880198
0.451171
-0.00981975
0.446147
-0.0107506
0.440592
-0.0117056
0.434658
-0.0120585
0.428688
-0.0117773
0.423854
-0.00896056
0.421053
-0.00474774
0.421391
0.00196127
0.421154
5.87704e-05
0.41965
-0.00467554
0.411469
-0.0195341
-0.025341
0.539505
0.00410502
-0.536291
0.541116
0.0026146
0.541234
0.000966382
0.540101
-0.000514807
0.537895
-0.00179388
0.5348
-0.00289792
0.531031
-0.0038196
0.526764
-0.00453459
0.522057
-0.00511272
0.516904
-0.00559745
0.511267
-0.00606853
0.505403
-0.00619528
0.499632
-0.00600617
0.495187
-0.00451545
0.492815
-0.00237586
0.493695
0.00108146
0.49365
0.000103918
0.491527
-0.00255311
0.482202
-0.0102082
-0.013507
0.619928
-0.615823
0.622542
0.623509
0.622994
0.6212
0.618302
0.614482
0.609948
0.604835
0.599238
0.593169
0.586974
0.580968
0.576452
0.574076
0.575158
0.575262
0.572709
0.5625
0.167551
0.0228331
-0.166574
0.167751
0.0284039
0.16699
0.0336682
0.165083
0.0384931
0.161862
0.0427382
0.157213
0.0462685
0.15112
0.0489745
0.143719
0.0508002
0.135368
0.0517166
0.0515061
0.191793
0.0208655
-0.189826
0.193449
0.0267484
0.194645
0.0324723
0.19521
0.0379279
0.194958
0.04299
0.193702
0.0475244
0.191274
0.0514021
0.187551
0.0545235
0.182411
0.0568568
0.0580884
0.217502
0.0183489
-0.214986
0.220134
0.0241164
0.222787
0.0298193
0.22533
0.0353855
0.227588
0.0407315
0.22935
0.0457626
0.230376
0.0503757
0.230439
0.0544615
0.229359
0.0579367
0.0604188
0.246006
0.0156922
-0.243349
0.249055
0.0210678
0.252453
0.0264213
0.256132
0.0317065
0.259994
0.0368698
0.263908
0.0418485
0.267713
0.0465706
0.271219
0.0509556
0.274218
0.054937
0.0582689
0.27837
0.0130412
-0.275719
0.28159
0.0178472
0.285371
0.0226403
0.28969
0.0273874
0.294508
0.0320524
0.299761
0.0365958
0.305357
0.0409744
0.311172
0.0451404
0.317063
0.0490465
0.0525617
0.315396
0.0104239
-0.312778
0.318716
0.0145271
0.322737
0.0186186
0.327452
0.0226724
0.332844
0.0266612
0.338882
0.030557
0.345526
0.0343303
0.352717
0.0379501
0.360379
0.0413841
0.0445661
0.357994
0.00784655
-0.355417
0.361396
0.0111257
0.36562
0.0143944
0.370661
0.0176315
0.376506
0.0208157
0.383138
0.0239254
0.39053
0.0269388
0.398645
0.0298342
0.40744
0.0325892
0.0351654
0.407575
0.00529237
-0.405021
0.411076
0.00762419
0.415523
0.0099483
0.420905
0.0122493
0.427209
0.0145115
0.434415
0.0167195
0.442496
0.0188577
0.451419
0.020911
0.461144
0.0228641
0.0246933
0.466266
0.00271073
-0.463685
0.469931
0.00395933
0.474675
0.00520441
0.480487
0.00643736
0.487349
0.00764953
0.495236
0.0088323
0.504117
0.00997718
0.513952
0.0110758
0.524696
0.01212
0.013098
0.537469
-0.534758
0.541428
0.546632
0.55307
0.560719
0.569552
0.579529
0.590605
0.602725
0.143375
-0.0302096
-0.141027
0.146223
-0.0264651
0.149182
-0.0218424
0.152156
-0.0168496
0.15507
-0.0115674
0.157882
-0.00607987
0.160529
-0.000424025
0.162931
0.00535725
0.164986
0.011206
0.0170522
0.170787
-0.031876
-0.169121
0.172608
-0.0282854
0.174534
-0.0237686
0.176567
-0.0188826
0.178688
-0.0136882
0.180883
-0.0082752
0.183136
-0.0026775
0.185415
0.00307831
0.187669
0.00895265
0.0148953
0.2021
-0.0323314
-0.201644
0.202744
-0.0289297
0.203522
-0.0245463
0.204469
-0.01983
0.20563
-0.014849
0.207021
-0.00966658
0.208654
-0.00431011
0.210532
0.00119992
0.21265
0.00683512
0.0125595
0.237172
-0.0314811
-0.238022
0.236508
-0.0282661
0.236111
-0.024149
0.236013
-0.019732
0.23626
-0.0150956
0.236876
-0.0102832
0.23788
-0.00531388
0.239287
-0.000206738
0.241108
0.00501353
0.0103183
0.275951
-0.0293224
-0.27811
0.274021
-0.0263355
0.272496
-0.022624
0.271419
-0.0186558
0.270824
-0.0145003
0.270732
-0.0101905
0.271159
-0.00574148
0.272124
-0.0011712
0.27364
0.00349745
0.00823922
0.31903
-0.0258749
-0.322477
0.315923
-0.0232287
0.313347
-0.0200484
0.311352
-0.0166606
0.309964
-0.0131127
0.309203
-0.0094297
0.309088
-0.0056262
0.309636
-0.00171903
0.310862
0.0022714
0.00632293
0.367455
-0.0211753
-0.372155
0.363237
-0.0190104
0.359665
-0.0164766
0.356788
-0.0137829
0.354633
-0.010958
0.353223
-0.00801999
0.35258
-0.0049824
0.352721
-0.00186022
0.353663
0.00132952
0.00456847
0.422666
-0.0152725
-0.428569
0.417381
-0.0137245
0.412846
-0.0119419
0.409109
-0.0100462
0.406204
-0.00805302
0.404159
-0.00597458
0.402998
-0.00382174
0.402744
-0.00160611
0.403414
0.000659564
0.00296168
0.486794
-0.00820546
-0.493861
0.480458
-0.00738915
0.47497
-0.00645366
0.47038
-0.00545593
0.46673
-0.00440288
0.464056
-0.00330097
0.462391
-0.00215646
0.461761
-0.000975993
0.462187
0.00023327
0.00146371
0.563196
-0.571401
0.555807
0.549353
0.543897
0.539494
0.536193
0.534037
0.533061
0.533294
0.126774
0.00231363
-0.00222211
0.126517
0.00701474
-0.00675723
0.1261
0.0121144
-0.0116972
0.125525
0.0179951
-0.0174202
0.124846
0.0250167
-0.024338
0.124119
0.0342289
-0.0335023
0.123806
0.0455259
-0.0452129
0.12407
0.0632263
-0.0634896
0.128793
0.0811721
-0.0858951
0.120568
-0.132802
0.147933
0.00237626
0.147752