/*--------------------------------*- C++ -*----------------------------------*\
  =========                 |
  \\      /  F ield         | OpenFOAM: The Open Source CFD Toolbox
   \\    /   O peration     | Website:  https://openfoam.org
    \\  /    A nd           | Version:  6.0
     \\/     M anipulation  |
\*---------------------------------------------------------------------------*/
FoamFile
{
    version     2.0;
    format      ascii;
    class       volScalarField;
    location    "16";
    object      p;
}
// * * * * * * * * * * * * * * * * * * * * * * * * * * * * * * * * * * * * * //

dimensions      [0 2 -2 0 0 0 0];

internalField   nonuniform List<scalar> 
19200
(
-0.39828
-0.393265
-0.389511
-0.38638
-0.3835
-0.380853
-0.378393
-0.376069
-0.373844
-0.37169
-0.369588
-0.367525
-0.365489
-0.363476
-0.361481
-0.359503
-0.35754
-0.355594
-0.353666
-0.351756
-0.349867
-0.348001
-0.346158
-0.344339
-0.342547
-0.340787
-0.339055
-0.337298
-0.335497
-0.334248
-0.401755
-0.396626
-0.39285
-0.389698
-0.386781
-0.38408
-0.381553
-0.37915
-0.376836
-0.374586
-0.372383
-0.370213
-0.368068
-0.365943
-0.363836
-0.361745
-0.359671
-0.357614
-0.355578
-0.353563
-0.351572
-0.349608
-0.347671
-0.345763
-0.343886
-0.342048
-0.340243
-0.33841
-0.336523
-0.335276
-0.405806
-0.400473
-0.396607
-0.393396
-0.390414
-0.387638
-0.385026
-0.382528
-0.380111
-0.377751
-0.375432
-0.373142
-0.370875
-0.368626
-0.366394
-0.364179
-0.361982
-0.359804
-0.357649
-0.355519
-0.353417
-0.351346
-0.349307
-0.347302
-0.345334
-0.343411
-0.34153
-0.339614
-0.337631
-0.3364
-0.41022
-0.404739
-0.400781
-0.397489
-0.39442
-0.391548
-0.388832
-0.386221
-0.383684
-0.381199
-0.378749
-0.376326
-0.373922
-0.371536
-0.369166
-0.366814
-0.364482
-0.362172
-0.359887
-0.357632
-0.355408
-0.35322
-0.35107
-0.348961
-0.346895
-0.344882
-0.342918
-0.340914
-0.338825
-0.337624
-0.415048
-0.409432
-0.405369
-0.401979
-0.398803
-0.395817
-0.392978
-0.390238
-0.387565
-0.384937
-0.382342
-0.37977
-0.377216
-0.374678
-0.372158
-0.369657
-0.367177
-0.364723
-0.362298
-0.359905
-0.35755
-0.355236
-0.352966
-0.350743
-0.348571
-0.34646
-0.344409
-0.34231
-0.340106
-0.338948
-0.420324
-0.414564
-0.410381
-0.406873
-0.403572
-0.400453
-0.397474
-0.394587
-0.391761
-0.388976
-0.386219
-0.383484
-0.380765
-0.378063
-0.375379
-0.372715
-0.370075
-0.367464
-0.364886
-0.362345
-0.359847
-0.357396
-0.354996
-0.352651
-0.350364
-0.348149
-0.346004
-0.343802
-0.341474
-0.340373
-0.426067
-0.420145
-0.415826
-0.412183
-0.408738
-0.405467
-0.402329
-0.399278
-0.396282
-0.393323
-0.39039
-0.387476
-0.384578
-0.381696
-0.378834
-0.375994
-0.373181
-0.370401
-0.367657
-0.364956
-0.362304
-0.359705
-0.357165
-0.354687
-0.352276
-0.34995
-0.347703
-0.345391
-0.342928
-0.341899
-0.432292
-0.426188
-0.421713
-0.417917
-0.414309
-0.410868
-0.407554
-0.40432
-0.401138
-0.397988
-0.394862
-0.391754
-0.388661
-0.385586
-0.382532
-0.379502
-0.376502
-0.373538
-0.370617
-0.367743
-0.364924
-0.362166
-0.359474
-0.356853
-0.354309
-0.351862
-0.349507
-0.347077
-0.344467
-0.343525
-0.439013
-0.432705
-0.428055
-0.424086
-0.420296
-0.416666
-0.413157
-0.409722
-0.406335
-0.402979
-0.399644
-0.396326
-0.393024
-0.38974
-0.386479
-0.383245
-0.380044
-0.376884
-0.37377
-0.37071
-0.367712
-0.364782
-0.361926
-0.359151
-0.356463
-0.353885
-0.351415
-0.348856
-0.346088
-0.345247
-0.446244
-0.439706
-0.434861
-0.430699
-0.426708
-0.422869
-0.419146
-0.415493
-0.411884
-0.408303
-0.404743
-0.401199
-0.397672
-0.394164
-0.390682
-0.387229
-0.383814
-0.380442
-0.377123
-0.373863
-0.370672
-0.367556
-0.364524
-0.361582
-0.358738
-0.35602
-0.353425
-0.350728
-0.347788
-0.347064
-0.453996
-0.447204
-0.442141
-0.437767
-0.433554
-0.429487
-0.42553
-0.42164
-0.417791
-0.413969
-0.410166
-0.406381
-0.402613
-0.398867
-0.395149
-0.391463
-0.387818
-0.384222
-0.380682
-0.377208
-0.373809
-0.370494
-0.367272
-0.364149
-0.361138
-0.358266
-0.355536
-0.35269
-0.349565
-0.348971
-0.46228
-0.455209
-0.449907
-0.445299
-0.440843
-0.436527
-0.432317
-0.428171
-0.424064
-0.419984
-0.415922
-0.411879
-0.407856
-0.403857
-0.399887
-0.395954
-0.392065
-0.388229
-0.384454
-0.380751
-0.37713
-0.373601
-0.370174
-0.366857
-0.363662
-0.360626
-0.357747
-0.354739
-0.351415
-0.350966
-0.471109
-0.46373
-0.458166
-0.453304
-0.448584
-0.443998
-0.439515
-0.435095
-0.430712
-0.426355
-0.422019
-0.417703
-0.413409
-0.409141
-0.404906
-0.40071
-0.396563
-0.392472
-0.388448
-0.384501
-0.380642
-0.376883
-0.373235
-0.369707
-0.366315
-0.363099
-0.360059
-0.356875
-0.353334
-0.353043
-0.480494
-0.472779
-0.46693
-0.46179
-0.456784
-0.451908
-0.447133
-0.442418
-0.437741
-0.433092
-0.428465
-0.423859
-0.419279
-0.414728
-0.410213
-0.405741
-0.401321
-0.396961
-0.392673
-0.388466
-0.384354
-0.380348
-0.376463
-0.372707
-0.369101
-0.365688
-0.362473
-0.359095
-0.355318
-0.355197
-0.490444
-0.482365
-0.476205
-0.470765
-0.465451
-0.460263
-0.455175
-0.450148
-0.445159
-0.4402
-0.435266
-0.430357
-0.425476
-0.420629
-0.41582
-0.411058
-0.406351
-0.401708
-0.397139
-0.392658
-0.388275
-0.384006
-0.379865
-0.375863
-0.372023
-0.368395
-0.364986
-0.361395
-0.357362
-0.357422
-0.500969
-0.492495
-0.485999
-0.480237
-0.474592
-0.469071
-0.46365
-0.458291
-0.452974
-0.447689
-0.442432
-0.437205
-0.43201
-0.426852
-0.421736
-0.416671
-0.411663
-0.406723
-0.401861
-0.397088
-0.392419
-0.387868
-0.383451
-0.379183
-0.375088
-0.371224
-0.3676
-0.363774
-0.35946
-0.359708
-0.512077
-0.503177
-0.49632
-0.49021
-0.484212
-0.478337
-0.472564
-0.466855
-0.461191
-0.455564
-0.44997
-0.444411
-0.438889
-0.433408
-0.427974
-0.422593
-0.417272
-0.412021
-0.40685
-0.401771
-0.396798
-0.391946
-0.387234
-0.382677
-0.378303
-0.374178
-0.370315
-0.366229
-0.361604
-0.362045
-0.523778
-0.514418
-0.507172
-0.500692
-0.494317
-0.488067
-0.481921
-0.475844
-0.469817
-0.463833
-0.457889
-0.451985
-0.446123
-0.440308
-0.434544
-0.428836
-0.423191
-0.417617
-0.412124
-0.406724
-0.401429
-0.396257
-0.391227
-0.386357
-0.381677
-0.377263
-0.373132
-0.368752
-0.363785
-0.364416
-0.536075
-0.526222
-0.51856
-0.511685
-0.504911
-0.498264
-0.491726
-0.485264
-0.478858
-0.472503
-0.466195
-0.459935
-0.453723
-0.447564
-0.44146
-0.435415
-0.429436
-0.423528
-0.4177
-0.411963
-0.40633
-0.400818
-0.395446
-0.390235
-0.385219
-0.380482
-0.376046
-0.371335
-0.365982
-0.366796
-0.548973
-0.538592
-0.530487
-0.523192
-0.515996
-0.508931
-0.501983
-0.495118
-0.488319
-0.48158
-0.474896
-0.468269
-0.461698
-0.455185
-0.448733
-0.442345
-0.436022
-0.429771
-0.423598
-0.417511
-0.411523
-0.40565
-0.399911
-0.394329
-0.388941
-0.38384
-0.379056
-0.373965
-0.368174
-0.369148
-0.562474
-0.551529
-0.542953
-0.535214
-0.527574
-0.52007
-0.512694
-0.505411
-0.498204
-0.491068
-0.483998
-0.476995
-0.470057
-0.463185
-0.456379
-0.449639
-0.442968
-0.436367
-0.429839
-0.423391
-0.417033
-0.410778
-0.404646
-0.398659
-0.392857
-0.387345
-0.382156
-0.376623
-0.370325
-0.371422
-0.576577
-0.565032
-0.555956
-0.547749
-0.539642
-0.531681
-0.523859
-0.516142
-0.508515
-0.500972
-0.493507
-0.48612
-0.478809
-0.471572
-0.464408
-0.457315
-0.450292
-0.443336
-0.436448
-0.42963
-0.422888
-0.416233
-0.409681
-0.403252
-0.396989
-0.391005
-0.385342
-0.379284
-0.372389
-0.373546
-0.591279
-0.579098
-0.569493
-0.560793
-0.552198
-0.543761
-0.535477
-0.527313
-0.519254
-0.511294
-0.503426
-0.49565
-0.487962
-0.480358
-0.472835
-0.465389
-0.458013
-0.450703
-0.443453
-0.436262
-0.429127
-0.422056
-0.415057
-0.408148
-0.401368
-0.39484
-0.388613
-0.381921
-0.3743
-0.375417
-0.606575
-0.593719
-0.583557
-0.574341
-0.565237
-0.556305
-0.547544
-0.538921
-0.53042
-0.522035
-0.513759
-0.505589
-0.497522
-0.489552
-0.481672
-0.473876
-0.466153
-0.458494
-0.450887
-0.443324
-0.435796
-0.428298
-0.420832
-0.413404
-0.406049
-0.39889
-0.391982
-0.384507
-0.375976
-0.376889
-0.622458
-0.608886
-0.598136
-0.588381
-0.578748
-0.569306
-0.560055
-0.550962
-0.542011
-0.533193
-0.524505
-0.515941
-0.507495
-0.499161
-0.490931
-0.482792
-0.474732
-0.466736
-0.458787
-0.450865
-0.442951
-0.435029
-0.427085
-0.419109
-0.411117
-0.403228
-0.395491
-0.387024
-0.377301
-0.377739
-0.638921
-0.624585
-0.613216
-0.602899
-0.59272
-0.582753
-0.573001
-0.563428
-0.55402
-0.544766
-0.535663
-0.526704
-0.517883
-0.509192
-0.500619
-0.492151
-0.483772
-0.47546
-0.467192
-0.458938
-0.450667
-0.442345
-0.433936
-0.425401
-0.416727
-0.408005
-0.399258
-0.389506
-0.378155
-0.377664
-0.655958
-0.640795
-0.628776
-0.617878
-0.607137
-0.596633
-0.58637
-0.576311
-0.566439
-0.556747
-0.547228
-0.537876
-0.528685
-0.519644
-0.510742
-0.501964
-0.493289
-0.484692
-0.476144
-0.467606
-0.459032
-0.450369
-0.441552
-0.432503
-0.423156
-0.413547
-0.40364
-0.392291
-0.378705
-0.376514
-0.673596
-0.657498
-0.644787
-0.633292
-0.621978
-0.610928
-0.600147
-0.589596
-0.579258
-0.569125
-0.559191
-0.54945
-0.539894
-0.530515
-0.521299
-0.512232
-0.503292
-0.494452
-0.485679
-0.476927
-0.46814
-0.459244
-0.450143
-0.440708
-0.430798
-0.420361
-0.409257
-0.396017
-0.379132
-0.373418
-0.691888
-0.674661
-0.661203
-0.649104
-0.637215
-0.625617
-0.614314
-0.603269
-0.592463
-0.581889
-0.571541
-0.561413
-0.5515
-0.541793
-0.532281
-0.522949
-0.513779
-0.504746
-0.495817
-0.486947
-0.478074
-0.469111
-0.459933
-0.450348
-0.4401
-0.428958
-0.416484
-0.40029
-0.376803
-0.362443
-0.710365
-0.69209
-0.677957
-0.66528
-0.652826
-0.64068
-0.628855
-0.617312
-0.606035
-0.595018
-0.584257
-0.573746
-0.563482
-0.553456
-0.543662
-0.53409
-0.524724
-0.51555
-0.506543
-0.497672
-0.488892
-0.480135
-0.471293
-0.462177
-0.45249
-0.44184
-0.429299
-0.411149
-0.381026
-0.355071
-1.18449
-1.18159
-1.17677
-1.1705
-1.16279
-1.15371
-1.14331
-1.13169
-1.11891
-1.10508
-1.09026
-1.07456
-1.05804
-1.0408
-1.02292
-1.00449
-0.985575
-0.966262
-0.946623
-0.926732
-0.906655
-0.886461
-0.866209
-0.845958
-0.825761
-0.805668
-0.785719
-0.765927
-0.746275
-0.727194
-1.15001
-1.14713
-1.14252
-1.13641
-1.12887
-1.11999
-1.10984
-1.09851
-1.08609
-1.07264
-1.05826
-1.04303
-1.02704
-1.01036
-0.993084
-0.975279
-0.957028
-0.938404
-0.919481
-0.900327
-0.88101
-0.861592
-0.842135
-0.822695
-0.803327
-0.784083
-0.765016
-0.746169
-0.727597
-0.709481
-1.12161
-1.11877
-1.1143
-1.10836
-1.10103
-1.09238
-1.08249
-1.07146
-1.05937
-1.04629
-1.03231
-1.01751
-1.00197
-0.985779
-0.96901
-0.951741
-0.934046
-0.916
-0.897673
-0.879132
-0.860443
-0.841668
-0.822865
-0.804092
-0.785402
-0.766847
-0.748479
-0.730349
-0.712516
-0.695056
-1.09487
-1.09215
-1.08787
-1.08216
-1.07507
-1.06671
-1.05713
-1.04644
-1.03471
-1.02201
-1.00844
-0.994076
-0.978994
-0.963277
-0.947002
-0.930245
-0.913079
-0.895577
-0.877808
-0.859838
-0.841731
-0.823549
-0.805348
-0.787186
-0.769114
-0.751182
-0.73344
-0.715936
-0.698722
-0.681844
-1.06776
-1.06526
-1.06124
-1.05582
-1.04906
-1.04104
-1.03183
-1.02153
-1.0102
-0.997937
-0.984813
-0.970911
-0.95631
-0.941088
-0.925323
-0.909089
-0.892459
-0.875504
-0.858293
-0.84089
-0.82336
-0.805761
-0.788151
-0.770585
-0.753114
-0.735786
-0.718649
-0.701747
-0.685125
-0.668821
-1.04056
-1.03836
-1.03468
-1.02962
-1.02324
-1.01563
-1.00684
-0.996977
-0.986104
-0.974305
-0.96166
-0.948249
-0.93415
-0.91944
-0.904197
-0.888493
-0.872401
-0.855992
-0.839332
-0.822488
-0.80552
-0.788488
-0.77145
-0.754458
-0.737562
-0.720812
-0.704251
-0.687922
-0.671866
-0.656116
-1.01337
-1.01155
-1.00827
-1.00364
-0.997702
-0.990542
-0.982231
-0.972847
-0.962467
-0.95117
-0.939035
-0.926141
-0.912564
-0.898383
-0.883672
-0.868505
-0.852953
-0.837087
-0.820972
-0.804674
-0.788255
-0.771773
-0.755284
-0.738841
-0.722495
-0.706293
-0.690278
-0.674492
-0.658972
-0.643753
-0.986202
-0.984816
-0.982002
-0.977846
-0.972406
-0.965751
-0.957956
-0.949095
-0.939245
-0.928484
-0.916888
-0.904535
-0.891503
-0.877866
-0.863699
-0.849076
-0.834068
-0.818743
-0.803168
-0.787408
-0.771524
-0.755575
-0.739616
-0.723701
-0.707879
-0.692197
-0.6767
-0.661427
-0.646416
-0.6317
-0.959108
-0.958208
-0.955902
-0.952267
-0.947361
-0.941252
-0.934009
-0.925708
-0.916421
-0.906224
-0.895194
-0.883406
-0.870936
-0.85786
-0.84425
-0.830179
-0.815718
-0.800936
-0.785898
-0.770668
-0.755308
-0.739877
-0.72443
-0.709021
-0.693699
-0.678512
-0.663504
-0.648716
-0.634183
-0.619943
-0.93216
-0.93178
-0.930013
-0.926932
-0.922594
-0.91706
-0.910401
-0.902687
-0.89399
-0.884383
-0.873942
-0.862739
-0.850851
-0.838349
-0.825308
-0.811799
-0.79789
-0.783652
-0.769148
-0.754443
-0.739598
-0.724671
-0.709719
-0.694795
-0.679951
-0.665233
-0.650686
-0.636353
-0.622271
-0.608476
-0.90543
-0.905591
-0.904386
-0.901882
-0.898132
-0.893198
-0.887144
-0.88004
-0.871954
-0.862958
-0.853124
-0.842525
-0.831233
-0.81932
-0.806859
-0.793919
-0.780569
-0.766877
-0.752907
-0.738722
-0.724384
-0.70995
-0.695478
-0.681022
-0.666632
-0.652358
-0.638246
-0.624339
-0.610676
-0.597297
-0.878994
-0.879705
-0.879072
-0.877156
-0.874009
-0.869687
-0.864255
-0.857775
-0.850316
-0.841946
-0.832734
-0.822752
-0.81207
-0.800759
-0.788888
-0.776526
-0.763741
-0.750598
-0.737162
-0.723496
-0.709658
-0.695709
-0.681703
-0.667697
-0.653741
-0.639887
-0.626181
-0.612671
-0.599396
-0.586401
-0.852921
-0.854181
-0.854122
-0.852798
-0.850258
-0.846556
-0.841751
-0.835905
-0.829082
-0.821348
-0.81277
-0.803416
-0.793355
-0.782654
-0.771382
-0.759606
-0.747392
-0.734804
-0.721904
-0.708755
-0.695415
-0.681942
-0.668392
-0.65482
-0.641279
-0.627821
-0.614495
-0.60135
-0.588431
-0.575786
-0.827277
-0.829078
-0.829585
-0.828848
-0.826912
-0.823829
-0.819652
-0.814443
-0.80826
-0.801167
-0.793229
-0.78451
-0.775077
-0.764995
-0.75433
-0.743147
-0.731511
-0.719482
-0.707122
-0.694491
-0.681647
-0.668646
-0.655543
-0.642392
-0.629248
-0.616162
-0.603188
-0.590377
-0.577779
-0.565447
-0.802122
-0.804448
-0.805507
-0.805345
-0.804004
-0.801531
-0.797978
-0.793401
-0.787857
-0.781406
-0.774109
-0.766029
-0.757228
-0.747771
-0.737719
-0.727137
-0.716084
-0.704621
-0.692806
-0.680697
-0.668349
-0.655817
-0.643155
-0.630415
-0.617651
-0.604916
-0.592265
-0.579754
-0.567439
-0.55538
-0.777507
-0.780337
-0.781928
-0.782324
-0.781561
-0.779685
-0.776745
-0.772792
-0.76788
-0.762067
-0.755409
-0.747967
-0.739801
-0.730972
-0.721538
-0.711561
-0.701099
-0.690208
-0.678944
-0.667362
-0.655515
-0.643454
-0.631229
-0.618893
-0.606495
-0.59409
-0.581734
-0.569487
-0.557413
-0.54558
-0.753478
-0.756784
-0.758883
-0.759813
-0.759609
-0.758313
-0.755969
-0.752627
-0.748337
-0.743152
-0.737128
-0.730321
-0.722789
-0.714587
-0.705775
-0.696408
-0.686542
-0.676231
-0.665527
-0.65448
-0.64314
-0.631553
-0.619768
-0.60783
-0.595788
-0.583694
-0.571605
-0.559584
-0.547703
-0.536043
-0.73007
-0.733823
-0.736402
-0.737841
-0.738171
-0.737432
-0.735665
-0.732916
-0.729233
-0.724665
-0.719265
-0.713086
-0.706182
-0.698608
-0.690418
-0.681664
-0.672401
-0.662677
-0.652541
-0.642039
-0.631216
-0.620114
-0.608774
-0.597236
-0.585544
-0.573745
-0.561894
-0.550057
-0.538314
-0.526764
-0.707312
-0.711481
-0.714509
-0.716427
-0.717265
-0.717057
-0.715844
-0.713668
-0.710573
-0.706606
-0.701817
-0.696256
-0.689974
-0.683022
-0.675453
-0.667316
-0.658659
-0.649531
-0.639974
-0.63003
-0.619738
-0.609133
-0.598249
-0.587119
-0.575777
-0.564262
-0.552624
-0.540928
-0.52926
-0.517737
-0.685226
-0.689777
-0.693222
-0.695589
-0.696904
-0.697201
-0.696515
-0.694888
-0.69236
-0.688975
-0.684781
-0.679825
-0.674154
-0.667819
-0.660868
-0.653347
-0.645303
-0.636777
-0.627811
-0.61844
-0.608696
-0.598607
-0.588199
-0.577491
-0.566508
-0.555274
-0.543827
-0.532225
-0.520559
-0.508963
-0.663827
-0.668726
-0.672556
-0.675338
-0.6771
-0.677871
-0.677686
-0.676581
-0.674596
-0.671772
-0.668154
-0.663786
-0.658715
-0.652988
-0.646649
-0.639743
-0.632313
-0.624399
-0.616035
-0.607253
-0.598079
-0.588531
-0.578624
-0.568365
-0.55776
-0.546815
-0.535545
-0.523992
-0.512242
-0.500443
-0.643123
-0.648338
-0.652518
-0.655684
-0.65786
-0.659075
-0.65936
-0.658749
-0.657281
-0.654995
-0.651931
-0.648134
-0.643647
-0.638515
-0.63278
-0.626487
-0.619673
-0.612376
-0.604627
-0.596453
-0.587872
-0.578896
-0.569525
-0.559753
-0.549561
-0.538928
-0.527837
-0.516293
-0.504363
-0.492188
-0.623118
-0.628616
-0.633113
-0.63663
-0.639189
-0.640815
-0.641539
-0.641395
-0.640415
-0.63864
-0.636107
-0.63286
-0.628939
-0.624388
-0.619248
-0.61356
-0.607362
-0.600687
-0.593565
-0.586017
-0.578057
-0.569688
-0.560898
-0.551663
-0.541937
-0.531664
-0.520775
-0.509214
-0.497003
-0.484225
-0.603811
-0.60956
-0.614343
-0.618178
-0.621087
-0.623094
-0.624226
-0.624516
-0.623997
-0.622705
-0.620679
-0.617958
-0.614583
-0.610596
-0.606038
-0.600948
-0.595361
-0.589311
-0.582826
-0.575923
-0.568613
-0.560891
-0.552736
-0.544103
-0.534921
-0.525086
-0.514458
-0.502885
-0.490295
-0.476613
-0.585196
-0.591166
-0.596203
-0.600326
-0.603553
-0.605908
-0.607418
-0.608112
-0.608023
-0.607187
-0.605639
-0.60342
-0.600569
-0.597127
-0.593134
-0.58863
-0.583649
-0.578225
-0.572384
-0.566144
-0.559513
-0.552482
-0.545023
-0.537075
-0.528539
-0.51926
-0.509009
-0.497487
-0.484463
-0.469497
-0.567265
-0.573425
-0.578685
-0.583063
-0.586576
-0.589246
-0.591099
-0.592165
-0.592475
-0.592061
-0.590963
-0.589216
-0.586863
-0.583942
-0.580494
-0.576558
-0.572171
-0.567367
-0.562172
-0.556607
-0.55068
-0.544382
-0.537682
-0.530512
-0.522751
-0.514197
-0.504515
-0.493207
-0.479812
-0.463187
-0.550008
-0.556329
-0.561783
-0.566384
-0.57015
-0.573101
-0.575265
-0.576668
-0.577341
-0.577317
-0.576632
-0.575326
-0.573436
-0.571006
-0.568074
-0.564681
-0.560866
-0.556664
-0.552106
-0.547214
-0.542002
-0.536467
-0.53058
-0.524278
-0.517433
-0.509814
-0.500979
-0.490186
-0.47669
-0.458076
-0.533417
-0.539894
-0.545533
-0.550349
-0.554358
-0.55758
-0.560042
-0.561769
-0.562791
-0.563143
-0.562859
-0.561979
-0.560542
-0.558589
-0.556164
-0.553306
-0.550058
-0.546458
-0.54254
-0.538332
-0.533856
-0.529116
-0.524101
-0.518762
-0.512991
-0.506564
-0.498982
-0.489243
-0.47616
-0.454554
-0.517459
-0.52411
-0.529953
-0.535003
-0.539274
-0.542789
-0.545573
-0.547651
-0.549054
-0.549816
-0.549973
-0.549565
-0.548631
-0.547216
-0.545363
-0.543116
-0.540518
-0.537612
-0.534438
-0.531029
-0.527414
-0.523614
-0.519634
-0.515461
-0.511039
-0.506231
-0.500628
-0.493153
-0.482079
-0.456041
-0.502047
-0.508652
-0.514484
-0.519555
-0.523881
-0.527485
-0.53039
-0.532624
-0.534217
-0.535205
-0.535624
-0.535517
-0.534925
-0.533895
-0.532476
-0.530715
-0.528663
-0.526369
-0.523882
-0.521249
-0.518513
-0.515718
-0.5129
-0.510098
-0.507348
-0.504709
-0.502088
-0.498882
-0.495127
-0.475586
-0.408398
-0.456158
-0.502627
-0.548418
-0.593345
-0.637243
-0.679993
-0.721488
-0.761625
-0.800306
-0.837443
-0.872952
-0.906758
-0.938793
-0.968997
-0.997314
-1.0237
-1.04811
-1.07053
-1.09092
-1.10927
-1.12558
-1.13984
-1.15207
-1.16227
-1.17047
-1.1767
-1.18097
-1.18329
-1.18403
-0.400509
-0.44711
-0.492635
-0.537326
-0.581067
-0.623743
-0.665257
-0.705517
-0.744428
-0.7819
-0.817849
-0.852197
-0.884873
-0.915811
-0.944955
-0.972253
-0.997662
-1.02115
-1.04268
-1.06224
-1.07982
-1.09541
-1.10902
-1.12065
-1.13033
-1.13807
-1.14393
-1.14793
-1.15011
-1.15066
-0.38958
-0.435172
-0.479843
-0.523654
-0.566504
-0.608291
-0.648925
-0.688317
-0.726377
-0.763019
-0.798161
-0.831729
-0.863654
-0.893872
-0.922327
-0.948972
-0.973764
-0.996669
-1.01766
-1.03672
-1.05384
-1.06902
-1.08225
-1.09356
-1.10295
-1.11047
-1.11614
-1.12001
-1.12211
-1.12256
-0.375267
-0.419947
-0.463798
-0.506814
-0.54889
-0.589928
-0.629836
-0.668526
-0.705909
-0.741904
-0.776429
-0.809411
-0.840782
-0.870481
-0.898452
-0.924647
-0.949026
-0.971555
-0.992209
-1.01097
-1.02782
-1.04277
-1.05582
-1.06697
-1.07626
-1.0837
-1.08933
-1.09319
-1.09533
-1.09581
-0.358012
-0.401793
-0.444818
-0.487047
-0.52837
-0.568689
-0.607913
-0.645953
-0.682723
-0.718139
-0.752124
-0.784604
-0.815513
-0.844789
-0.872377
-0.89823
-0.922307
-0.944574
-0.965005
-0.983581
-1.00029
-1.01513
-1.02811
-1.03923
-1.04852
-1.056
-1.0617
-1.06567
-1.06793
-1.06856
-0.33855
-0.38144
-0.423636
-0.465079
-0.50566
-0.545279
-0.583846
-0.621271
-0.657469
-0.692358
-0.72586
-0.757903
-0.788419
-0.817348
-0.844635
-0.870231
-0.894096
-0.916194
-0.936498
-0.95499
-0.971657
-0.986495
-0.999505
-1.0107
-1.02009
-1.02771
-1.03358
-1.03774
-1.04023
-1.0411
-0.317572
-0.359565
-0.400924
-0.441575
-0.481411
-0.520334
-0.558253
-0.59508
-0.630729
-0.66512
-0.698174
-0.72982
-0.75999
-0.788623
-0.815664
-0.841064
-0.864781
-0.886778
-0.907029
-0.925512
-0.942213
-0.957125
-0.970251
-0.981596
-0.991177
-0.999014
-1.00514
-1.00958
-1.01237
-1.01357
-0.295688
-0.336772
-0.377275
-0.417117
-0.456196
-0.494414
-0.531681
-0.567909
-0.603014
-0.636915
-0.669535
-0.700801
-0.730648
-0.759012
-0.785838
-0.811077
-0.834684
-0.856624
-0.876867
-0.89539
-0.912177
-0.927219
-0.940516
-0.952073
-0.961902
-0.970022
-0.976459
-0.981244
-0.984405
-0.986
-0.273423
-0.313579
-0.353206
-0.392221
-0.430524
-0.468021
-0.504622
-0.540241
-0.574793
-0.6082
-0.640383
-0.671273
-0.7008
-0.728903
-0.755526
-0.780617
-0.804134
-0.826038
-0.846297
-0.864887
-0.88179
-0.896996
-0.910501
-0.922307
-0.932425
-0.94087
-0.947665
-0.952839
-0.956419
-0.958455
-0.251204
-0.290416
-0.329149
-0.367317
-0.404825
-0.441582
-0.4775
-0.512493
-0.546478
-0.579377
-0.611113
-0.641615
-0.670815
-0.698652
-0.725069
-0.750013
-0.773441
-0.795312
-0.815594
-0.834261
-0.851294
-0.866678
-0.880408
-0.892484
-0.902913
-0.911708
-0.918889
-0.924481
-0.92851
-0.93102
-0.229368
-0.267623
-0.305446
-0.342752
-0.379448
-0.415447
-0.450663
-0.485012
-0.518412
-0.550786
-0.582058
-0.612156
-0.641014
-0.66857
-0.694767
-0.719552
-0.74288
-0.764711
-0.78501
-0.803749
-0.820908
-0.836471
-0.850429
-0.86278
-0.873528
-0.882683
-0.890262
-0.896287
-0.900781
-0.903784
-0.208172
-0.245462
-0.282364
-0.318794
-0.354664
-0.38989
-0.424388
-0.458076
-0.490873
-0.522703
-0.553491
-0.583166
-0.611662
-0.638917
-0.664874
-0.689481
-0.712691
-0.734463
-0.754762
-0.77356
-0.790832
-0.806561
-0.820738
-0.833356
-0.844417
-0.853929
-0.861906
-0.868366
-0.873329
-0.876832
-0.187798
-0.224121
-0.260096
-0.295643
-0.330679
-0.365121
-0.398888
-0.4319
-0.464078
-0.495346
-0.525631
-0.554862
-0.582974
-0.609906
-0.635599
-0.660004
-0.683072
-0.704762
-0.725039
-0.743871
-0.761235
-0.777111
-0.791487
-0.804356
-0.815716
-0.825572
-0.833935
-0.840821
-0.846247
-0.850244
-0.168373
-0.20373
-0.238779
-0.27344
-0.307637
-0.341288
-0.374316
-0.406642
-0.438188
-0.468879
-0.498643
-0.527411
-0.555118
-0.581702
-0.607109
-0.631285
-0.654185
-0.675766
-0.695993
-0.714833
-0.732262
-0.748259
-0.762809
-0.775904
-0.78754
-0.797719
-0.806449
-0.813743
-0.819617
-0.824096
-0.149971
-0.18437
-0.218497
-0.252276
-0.285634
-0.318494
-0.350779
-0.382412
-0.413317
-0.443419
-0.472648
-0.500936
-0.528217
-0.554434
-0.579529
-0.603451
-0.626155
-0.647599
-0.667746
-0.686565
-0.704029
-0.720117
-0.734812
-0.748105
-0.759989
-0.770464
-0.779536
-0.787215
-0.793513
-0.798454
-0.132632
-0.166084
-0.199297
-0.232201
-0.264726
-0.296798
-0.328342
-0.359281
-0.38954
-0.419045
-0.447728
-0.475521
-0.50236
-0.528188
-0.55295
-0.576594
-0.599077
-0.620355
-0.640394
-0.65916
-0.676628
-0.692775
-0.707583
-0.721042
-0.733142
-0.743883
-0.753267
-0.761302
-0.767999
-0.773376
-0.116364
-0.148881
-0.181193
-0.213233
-0.244936
-0.276229
-0.307037
-0.337284
-0.366896
-0.395802
-0.423931
-0.451218
-0.477602
-0.503025
-0.527433
-0.550777
-0.573013
-0.5941
-0.614002
-0.632686
-0.650127
-0.666301
-0.68119
-0.694781
-0.707065
-0.718039
-0.727702
-0.736062
-0.743126
-0.74891
-0.101152
-0.13275
-0.164175
-0.195367
-0.226261
-0.256787
-0.286869
-0.316432
-0.345402
-0.373707
-0.401279
-0.428054
-0.453972
-0.478975
-0.503014
-0.526038
-0.548006
-0.568877
-0.588615
-0.60719
-0.624573
-0.640743
-0.655681
-0.669371
-0.681806
-0.692978
-0.702887
-0.711538
-0.718936
-0.725095
-0.0869683
-0.117661
-0.148215
-0.178576
-0.20868
-0.238456
-0.267827
-0.296717
-0.325051
-0.352759
-0.379774
-0.406033
-0.431476
-0.456051
-0.479706
-0.502395
-0.524075
-0.544708
-0.56426
-0.582698
-0.599997
-0.616133
-0.631088
-0.644846
-0.657397
-0.668735
-0.678856
-0.687764
-0.695463
-0.701963
-0.07377
-0.103569
-0.133271
-0.162822
-0.192158
-0.221204
-0.249881
-0.278111
-0.305821
-0.332939
-0.359399
-0.385141
-0.410107
-0.434245
-0.457507
-0.479847
-0.501224
-0.521601
-0.540944
-0.559223
-0.576412
-0.592487
-0.60743
-0.621226
-0.633862
-0.645332
-0.655632
-0.664762
-0.672728
-0.679535
-0.0615082
-0.0904229
-0.119291
-0.148056
-0.176648
-0.204987
-0.232991
-0.26058
-0.287678
-0.314215
-0.340127
-0.365354
-0.389842
-0.413539
-0.4364
-0.45838
-0.479441
-0.499547
-0.518664
-0.536764
-0.55382
-0.56981
-0.584715
-0.598519
-0.611211
-0.622782
-0.633228
-0.642549
-0.650746
-0.657828
-0.0501276
-0.0781602
-0.106216
-0.134221
-0.162097
-0.189758
-0.217113
-0.244079
-0.270581
-0.296548
-0.32192
-0.346637
-0.370647
-0.393903
-0.416358
-0.437972
-0.458708
-0.478529
-0.497406
-0.515308
-0.532212
-0.548094
-0.562937
-0.576724
-0.589444
-0.601087
-0.611649
-0.621129
-0.629527
-0.636849
-0.0395672
-0.0667115
-0.0939792
-0.121256
-0.14845
-0.175461
-0.202193
-0.228558
-0.254481
-0.279893
-0.304733
-0.328947
-0.352484
-0.375299
-0.397347
-0.418591
-0.438994
-0.458522
-0.477145
-0.494836
-0.511571
-0.527327
-0.542086
-0.555833
-0.568555
-0.580244
-0.590894
-0.600502
-0.609069
-0.6166
-0.029758
-0.0559943
-0.0825048
-0.109091
-0.13564
-0.162037
-0.188174
-0.213962
-0.239325
-0.264196
-0.288517
-0.312236
-0.335306
-0.357682
-0.379325
-0.400196
-0.420262
-0.43949
-0.457852
-0.47532
-0.491871
-0.507485
-0.522142
-0.535829
-0.548532
-0.560242
-0.570953
-0.580662
-0.589371
-0.59708
-0.0206148
-0.0459189
-0.0717193
-0.0976621
-0.123611
-0.149432
-0.175006
-0.200241
-0.225063
-0.249409
-0.273224
-0.296459
-0.319068
-0.341012
-0.362251
-0.382751
-0.402478
-0.421401
-0.439494
-0.45673
-0.473087
-0.488545
-0.503085
-0.516692
-0.529356
-0.541065
-0.551814
-0.561599
-0.570421
-0.578281
-0.0120275
-0.0364251
-0.0616028
-0.0869616
-0.112361
-0.137647
-0.162688
-0.187393
-0.211693
-0.235528
-0.258847
-0.281606
-0.303762
-0.325277
-0.346115
-0.366243
-0.385628
-0.404243
-0.42206
-0.439055
-0.455207
-0.470495
-0.484902
-0.498413
-0.511017
-0.522704
-0.533468
-0.543304
-0.552213
-0.560195
-0.00384111
-0.0274094
-0.0521083
-0.0769544
-0.101855
-0.126645
-0.151179
-0.175373
-0.199164
-0.2225
-0.245334
-0.267625
-0.289334
-0.310425
-0.330865
-0.350621
-0.369665
-0.387968
-0.405506
-0.422254
-0.438192
-0.4533
-0.467562
-0.480963
-0.493491
-0.505137
-0.515895
-0.52576
-0.534731
-0.542811
0.00439486
-0.0181143
-0.042507
-0.0669583
-0.0914448
-0.115797
-0.13987
-0.163591
-0.186909
-0.209778
-0.232159
-0.254013
-0.275306
-0.296003
-0.316073
-0.335487
-0.354215
-0.372232
-0.389512
-0.406034
-0.421777
-0.436722
-0.450853
-0.464155
-0.476618
-0.488231
-0.498988
-0.508885
-0.51792
-0.526094
0.0139446
-0.00718484
-0.0316283
-0.05597
-0.0802571
-0.104321
-0.128047
-0.151397
-0.174334
-0.196822
-0.218829
-0.240321
-0.261267
-0.281635
-0.301396
-0.320522
-0.338987
-0.356765
-0.373832
-0.390169
-0.405754
-0.42057
-0.434601
-0.447834
-0.460257
-0.471861
-0.48264
-0.492588
-0.501706
-0.509994
0.0236658
0.000339242
-0.0251895
-0.0496512
-0.0738735
-0.0977059
-0.121079
-0.144017
-0.166512
-0.188538
-0.21007
-0.23108
-0.251543
-0.271431
-0.290718
-0.30938
-0.327393
-0.344734
-0.361384
-0.377323
-0.392533
-0.406998
-0.420705
-0.433641
-0.445796
-0.457162
-0.467733
-0.477507
-0.486482
-0.49466
0.53492
0.541942
0.549128
0.556444
0.563889
0.571458
0.579145
0.586936
0.594819
0.602778
0.610796
0.618851
0.626919
0.634975
0.642992
0.650943
0.6588
0.666542
0.674153
0.68163
0.68899
0.696276
0.703569
0.711001
0.718776
0.727192
0.736559
0.747149
0.760769
0.78053
0.527776
0.534537
0.541564
0.548701
0.555945
0.563303
0.570768
0.578324
0.585959
0.593656
0.601394
0.609152
0.616905
0.624626
0.632285
0.639854
0.647305
0.654614
0.661765
0.668756
0.675602
0.68235
0.689084
0.695944
0.703142
0.71099
0.719818
0.729929
0.743184
0.76283
0.519779
0.52623
0.533072
0.540004
0.547018
0.554133
0.561343
0.568631
0.575982
0.583377
0.590797
0.598218
0.605613
0.612953
0.620208
0.627347
0.634342
0.641168
0.647807
0.654258
0.660538
0.666695
0.672819
0.679057
0.685634
0.692876
0.701137
0.710753
0.723656
0.7432
0.510935
0.517028
0.523661
0.530363
0.537117
0.543958
0.55088
0.557865
0.564897
0.571955
0.579018
0.58606
0.593054
0.59997
0.606775
0.613438
0.619929
0.626221
0.632298
0.638157
0.643819
0.649335
0.6548
0.66037
0.66628
0.672875
0.680533
0.689618
0.702103
0.721386
0.501256
0.506942
0.513342
0.519788
0.526252
0.532788
0.539391
0.54604
0.552717
0.559401
0.566069
0.572693
0.579245
0.585693
0.592004
0.598143
0.604081
0.609791
0.615255
0.620473
0.625466
0.630291
0.635049
0.639903
0.645103
0.651011
0.658024
0.666539
0.67855
0.697469
0.490751
0.495985
0.502129
0.508292
0.514439
0.520639
0.526891
0.533172
0.539459
0.545733
0.551967
0.558134
0.564203
0.570141
0.575912
0.581483
0.586821
0.5919
0.596703
0.60123
0.605506
0.609591
0.613594
0.617687
0.622134
0.627312
0.633642
0.641548
0.65304
0.671519
0.479433
0.484171
0.490036
0.495892
0.501692
0.507527
0.513397
0.519276
0.525141
0.530969
0.536733
0.542404
0.54795
0.553336
0.558525
0.563483
0.568175
0.572577
0.576671
0.580459
0.58397
0.587269
0.59047
0.593759
0.59741
0.601818
0.607427
0.614686
0.625614
0.64359
0.467316
0.471515
0.477079
0.482604
0.488029
0.493469
0.498927
0.504373
0.509782
0.51513
0.520389
0.525527
0.530511
0.535304
0.539869
0.54417
0.548173
0.551851
0.555191
0.558194
0.560894
0.56336
0.565717
0.568158
0.570973
0.574574
0.579424
0.586001
0.596324
0.613738
0.454416
0.458034
0.463276
0.468445
0.473468
0.478486
0.483502
0.488485
0.493406
0.49824
0.502958
0.507527
0.511911
0.516073
0.519973
0.523576
0.526847
0.529759
0.532299
0.534474
0.536318
0.537909
0.539379
0.540932
0.542873
0.545629
0.549686
0.555546
0.565225
0.582024
0.440747
0.443748
0.448647
0.453437
0.458032
0.462599
0.467146
0.471635
0.476037
0.480326
0.48447
0.488434
0.492182
0.495674
0.498872
0.501736
0.504233
0.506337
0.508037
0.50934
0.510288
0.510962
0.511505
0.512133
0.513163
0.515041
0.518271
0.523383
0.532382
0.548514
0.426327