/*--------------------------------*- C++ -*----------------------------------*\
  =========                 |
  \\      /  F ield         | OpenFOAM: The Open Source CFD Toolbox
   \\    /   O peration     | Website:  https://openfoam.org
    \\  /    A nd           | Version:  6.0
     \\/     M anipulation  |
\*---------------------------------------------------------------------------*/
FoamFile
{
    version     2.0;
    format      ascii;
    class       surfaceScalarField;
    location    "21.25";
    object      phi;
}
// * * * * * * * * * * * * * * * * * * * * * * * * * * * * * * * * * * * * * //

dimensions      [0 3 -1 0 0 0 0];

internalField   nonuniform List<scalar> 
4670
(
-0.000185783
-0.0216402
0.021826
-0.000508601
-0.0167386
0.0170614
-0.000844499
-0.0130948
0.0134307
-0.00112518
-0.0103958
0.0106765
-0.00131685
-0.00839152
0.00858318
-0.00140913
-0.00688818
0.00698046
-0.00140808
-0.00573955
0.00573851
-0.00133166
-0.00483708
0.00476065
-0.00120686
-0.00410085
0.00397605
-0.00347331
0.00333373
-0.00106728
-0.000170063
-0.0214702
-0.000440801
-0.0164679
-0.000682811
-0.0128528
-0.000827
-0.0102516
-0.00084031
-0.00837821
-0.000713319
-0.00701518
-0.000453318
-0.00599955
-8.04596e-05
-0.00520993
0.000374143
-0.00455545
-0.00396922
0.000870055
-0.00014593
-0.0213242
-0.000337587
-0.0162762
-0.000445085
-0.0127453
-0.000400914
-0.0102958
-0.000173456
-0.00860566
0.000246232
-0.00743486
0.000850996
-0.00660432
0.00162021
-0.00597915
0.00251978
-0.00545502
-0.00495115
0.0035017
-0.000111968
-0.0212123
-0.000198097
-0.0161901
-0.000131975
-0.0128114
0.000149161
-0.0105769
0.000673676
-0.00913018
0.00144961
-0.0082108
0.00247098
-0.00762568
0.00371892
-0.00722708
0.0051589
-0.00689501
-0.00652851
0.00673626
-6.70564e-05
-0.0211452
-1.9889e-05
-0.0162373
0.000259494
-0.0130908
0.000824914
-0.0111424
0.00169826
-0.0100035
0.00288469
-0.00939723
0.00437916
-0.00912016
0.00616676
-0.00901468
0.00821669
-0.00894494
-0.00878302
0.0104712
-9.47146e-06
-0.0211357
0.000201443
-0.0164482
0.000736265
-0.0136256
0.00163471
-0.0120408
0.0029074
-0.0112762
0.00455228
-0.0110421
0.00656246
-0.0111303
0.00892739
-0.0113796
0.0116252
-0.0116428
-0.01176
0.0146023
6.2935e-05
-0.0211987
0.000471231
-0.0168565
0.00130718
-0.0144615
0.00259092
-0.0133245
0.00431594
-0.0130012
0.00646621
-0.0131924
0.00902595
-0.0136901
0.0119845
-0.0143382
0.0153323
-0.0149906
-0.0154598
0.019032
0.000152042
-0.0213507
0.000793301
-0.0174977
0.00197804
-0.0156463
0.00370219
-0.0150487
0.00593663
-0.0152357
0.00864317
-0.0158989
0.0117857
-0.0168326
0.0153406
-0.0178931
0.0193061
-0.018956
-0.0198447
0.0236911
0.000258715
-0.0216094
0.00116684
-0.0184058
0.00274498
-0.0172244
0.00496287
-0.0172666
0.00776653
-0.0180393
0.0110905
-0.0192229
0.0148661
-0.0206082
0.0190331
-0.0220602
0.0235748
-0.0234978
-0.0248881
0.0286182
0.000382773
-0.0219922
0.00158235
-0.0196054
0.003585
-0.0192271
0.00633621
-0.0200178
0.00976389
-0.021467
0.0137875
-0.0232465
0.0183198
-0.0251405
0.0232586
-0.0269989
0.028488
-0.0287271
-0.0303593
0.0339591
0.0302293
0.00118712
-0.0314165
0.0290376
0.00119173
0.0278682
0.00116946
0.0267465
0.00112169
0.0256947
0.00105179
0.0247308
0.000963865
0.0238689
0.000861947
0.0231195
0.00074936
0.0224912
0.000628261
0.000499034
0.0402179
0.00370924
-0.04274
0.0375774
0.00383226
0.0348889
0.00385793
0.03222
0.00379061
0.0296331
0.00363871
0.0271837
0.00341329
0.0249194
0.00312619
0.0228806
0.0027882
0.0211007
0.00240813
0.00199432
0.0490219
0.00688146
-0.0521941
0.0455802
0.00727392
0.0419623
0.00747584
0.038264
0.00748893
0.0345797
0.00732297
0.0309989
0.00699412
0.0276033
0.00652181
0.0244665
0.00592492
0.0216551
0.00521958
0.00442233
0.0562958
0.0102259
-0.0596403
0.0525295
0.0110403
0.0484388
0.0115665
0.044132
0.0117957
0.0397231
0.0117319
0.0353263
0.0113909
0.0310523
0.0107958
0.0270072
0.00997008
0.0232944
0.00893234
0.00769894
0.0619855
0.0134287
-0.0651883
0.0582312
0.0147946
0.0540125
0.0157852
0.0494346
0.0163735
0.0446164
0.0165502
0.0396841
0.0163232
0.0347668
0.0157131
0.0299952
0.0147417
0.0255081
0.0134194
0.0117401
0.0662082
0.0163085
-0.0690879
0.0626834
0.0183194
0.0585806
0.0198881
0.0539895
0.0209646
0.0490201
0.0215196
0.0437966
0.0215468
0.0384516
0.0210581
0.0331255
0.0200678
0.0279812
0.0185637
0.0164747
0.069166
0.0187839
-0.0716414
0.0659919
0.0214934
0.0621616
0.0237183
0.0577422
0.025384
0.0528243
0.0264375
0.047517
0.026854
0.0419406
0.0266345
0.0362233
0.0257851
0.0305253
0.0242617
0.0218595
0.0710853
0.0208428
-0.0731443
0.0683109
0.0242678
0.0648394
0.0271898
0.060713
0.0295105
0.0559979
0.0311526
0.0507801
0.0320718
0.0451534
0.0322612
0.0392068
0.0317317
0.0330456
0.0304229
0.0279062
0.0721766
0.0225151
-0.0738488
0.0698014
0.0266431
0.0667221
0.0302691
0.0629585
0.0332741
0.0585535
0.0355576
0.0535687
0.0370567
0.0480674
0.0377625
0.0420794
0.0377197
0.0355681
0.0369342
0.0347472
0.0726093
-0.0739491
0.0238549
0.0706
0.0286524
0.0679076
0.0329615
0.0645358
0.0366459
0.0605095
0.0395839
0.0558728
0.0416933
0.0506723
0.0429629
0.0449044
0.0434876
0.0383762
0.0434624
0.0427641
0.0367849
-0.000324279
-0.0364606
0.0369069
-0.00012202
0.036822
8.49e-05
0.0365332
0.000288856
0.0360496
0.000483588
0.0353864
0.000663209
0.0345641
0.000822274
0.0336081
0.000956023
0.0325477
0.0010604
0.00113122
0.0509534
-0.001497
-0.0497807
0.0516996
-0.000868222
0.0520075
-0.000222975
0.0518715
0.00042487
0.0512955
0.00105953
0.0502946
0.00166414
0.0488952
0.00222162
0.0471356
0.00271562
0.0450647
0.00313134
0.00345589
0.0589839
-0.00346393
-0.057017
0.0604358
-0.00232007
0.0613456
-0.00113284
0.0616919
7.85902e-05
0.0614626
0.00128888
0.0606577
0.00246899
0.0592915
0.00358781
0.0573933
0.00461384
0.0550077
0.0055169
0.00626954
0.0629746
-0.00606796
-0.0603706
0.0650569
-0.00440229
0.066576
-0.00265194
0.067494
-0.000839415
0.0677814
0.00100142
0.0674202
0.00283017
0.066406
0.00460211
0.0647496
0.00627021
0.0624791
0.00778736
0.00910834
0.0644365
-0.00913233
-0.0613721
0.0670159
-0.00698176
0.0690561
-0.00469211
0.0705054
-0.00228868
0.0713207
0.00018605
0.0714694
0.0026815
0.0709303
0.00514123
0.0696957
0.00750481
0.0677733
0.00970974
0.0116933
0.0644282
-0.0125057
-0.0610548
0.0673725
-0.00992614
0.0698174
-0.00713692
0.0717007
-0.00417201
0.0729725
-0.00108581
0.0735926
0.00206139
0.0735298
0.0052041
0.0727624
0.00827222
0.0712803
0.0111918
0.0138858
0.063651
-0.0160856
-0.0600711
0.0668577
-0.0131329
0.069597
-0.00987616
0.0718022
-0.00637727
0.0734257
-0.00270926
0.0744283
0.00105873
0.0747766
0.00485586
0.0744416
0.00860724
0.0734008
0.0122325
0.0156452
0.0625526
-0.0198353
-0.0588029
0.0659518
-0.016532
0.0688885
-0.0128128
0.0713057
-0.00879447
0.0731694
-0.00457298
0.07445
-0.000221893
0.0751175
0.0041884
0.0751411
0.00858356
0.0744917
0.012882
0.0169926
0.0614368
-0.0237761
-0.0574961
0.0649577
-0.0200528
0.067992
-0.0158472
0.0705152
-0.0113177
0.0725157
-0.00657338
0.0739753
-0.00168154
0.0748692
0.00329454
0.0751674
0.00828536
0.0748377
0.0132116
0.0179815
0.0604938
-0.0564429
-0.027827
0.0640385
-0.0235975
0.0670527
-0.0188614
0.0695872
-0.0138523
0.0716409
-0.00862703
0.0731996
-0.00324025
0.0742402
0.00225396
0.0747336
0.00779191
0.0746477
0.0132975
0.0186801
0.0423554
0.0134382
-0.0081578
-0.0476358
0.0369906
0.0141743
-0.00880957
0.0315428
0.0150495
-0.00960163
0.0260284
0.0161109
-0.0105966
0.0204915
0.0174174
-0.0118805
0.0150263
0.0190198
-0.0135546
0.00981282
0.0209244
-0.0157109
0.00516888
0.0230177
-0.0183737
0.00162077
0.0249374
-0.0213893
0.0258548
-0.024234
0.0421252
0.0186912
-0.0473783
0.0367863
0.0195133
0.0313634
0.0204724
0.0258735
0.0216008
0.0203608
0.0229301
0.0149203
0.0244604
0.00973334
0.0261113
0.0051189
0.0276321
0.00160142
0.0284549
0.0274562
0.0415219
0.0238867
-0.0467174
0.0362401
0.0247951
0.0308758
0.0258367
0.0254472
0.0270294
0.0199999
0.0283774
0.0146306
0.0298297
0.0095219
0.03122
0.00499107
0.0321629
0.00155312
0.0318929
0.0290093
0.0405489
0.0289968
-0.0456589
0.035354
0.02999
0.0300808
0.0311098
0.0247499
0.0323604
0.0194092
0.0337181
0.014158
0.0350809
0.00917957
0.0361984
0.0047869
0.0365556
0.00147773
0.035202
0.030487
0.0392089
0.0339957
-0.0442079
0.0341293
0.0350696
0.0289794
0.0362596
0.0237825
0.0375573
0.0185901
0.0389106
0.0135041
0.0401668
0.00870847
0.0409941
0.00450846
0.0407556
0.00137646
0.038334
0.0318635
0.0375016
0.0388598
-0.0423657
0.0325653
0.0400059
0.0275713
0.0412537
0.022546
0.0425827
0.0175444
0.0439121
0.0126719
0.0450393
0.00811188
0.0455541
0.00415857
0.0447089
0.00125078
0.0412418
0.0331143
0.0354199
0.0435646
-0.0401246
0.0306567
0.0447691
0.025854
0.0460564
0.0210405
0.0473961
0.0162748
0.0486778
0.0116656
0.0496485
0.00739457
0.0498252
0.00374121
0.0483623
0.00110262
0.0438804
0.0342169
0.0329444
0.0480783
-0.0374581
0.0283914
0.0493221
0.0238232
0.0506247
0.0192672
0.0519521
0.014786
0.053159
0.0104919
0.0539426
0.00656353
0.0537535
0.00326196
0.0516639
0.000934657
0.0462077
0.0351515
0.0300288
0.0523644
-0.034315
0.0257483
0.0536026
0.0214761
0.0548969
0.0172318
0.0561964
0.0130874
0.0573034
0.00916148
0.0578685
0.00562912
0.0572859
0.00272878
0.0545642
0.000750806
0.0481857
0.0359024
0.02662
-0.0306984
0.0227264
0.0188204
0.0149458
0.0111944
0.00769082
0.00460607
0.00215328
0.000558288
0.0246461
-0.0358129
0.0400848
-0.028918
0.0206609
-0.0356148
0.0396001
0.0168191
-0.0350818
0.0389236
0.0131445
-0.0340406
0.0377152
0.00971134
-0.0321659
0.035599
0.00661714
-0.028983
0.0320772
0.00397606
-0.0238428
0.0264839
0.00190911
-0.0159025
0.0179694
0.000537692
-0.00411853
0.00548995
0.0128173
-0.0122796
0.0280758
-0.0314875
-0.0324012
0.0238016
-0.0313406
0.0196132
-0.0308934
0.0155515
-0.0299789
0.01169
-0.0283044
0.00813137
-0.0254244
0.00500661
-0.020718
0.00247422
-0.0133701
0.00072348
-0.00236779
0.0135407
0.0310874
-0.0270091
-0.0355658
0.0265872
-0.0268404
0.0221182
-0.0264244
0.0177312
-0.0255919
0.0135
-0.0240731
0.00953063
-0.0214551
0.00596875
-0.0171561
0.00300709
-0.0104084
0.000899575
-0.00026028
0.0144403
0.0337157
-0.0223618
-0.038363
0.0290227
-0.0221474
0.0243225
-0.0217242
0.0196636
-0.020933
0.0151175
-0.019527
0.010792
-0.0171295
0.006844
-0.0132082
0.00349642
-0.00706085
0.00106294
0.0021732
0.0155033
0.0360001
-0.0175544
-0.0408076
0.0311338
-0.0172811
0.0262353
-0.0168257
0.0213461
-0.0160438
0.0165328
-0.0147138
0.0119025
-0.0124991
0.00762004
-0.00892573
0.0039336
-0.0033744
0.00121009
0.0048967
0.0167133
0.0379469
-0.0126026
-0.0428987
0.032928
-0.0122622
0.0278599
-0.0117576
0.0227769
-0.0109609
0.0177401
-0.00967695
0.0128537
-0.00761272
0.00828815
-0.00436016
0.00431199
0.000601753
0.00133814
0.00787055
0.0180515
0.0395506
-0.00752808
-0.0446251
0.0344033
-0.00711494
0.0291949
-0.00654914
0.0239536
-0.00571949
0.0187347
-0.00445806
0.0136395
-0.00251752
0.00884176
0.000437549
0.0046265
0.00481702
0.00144478
0.0110523
0.0194963
0.0408021
-0.00235672
-0.0459735
0.0355541
-0.00186688
0.0302362
-0.00123125
0.0248719
-0.00035519
0.0195119
0.000901917
0.0142545
0.00273986
0.00927573
0.00541632
0.00487315
0.0092196
0.00152821
0.0143972
0.0210245
0.041692
0.00288234
-0.0469311
0.0363733
0.0034519
0.0309784
0.00416358
0.0255274
0.00509581
0.0200674
0.0063619
0.0146945
0.00811284
0.00958602
0.0105248
0.00504903
0.0137566
0.00158726
0.017859
0.0226117
0.0422127
-0.0474881
0.036855
0.031417
0.0259162
0.0203976
0.0149559
0.00976971
0.00515258
0.00162225
0.0442279
0.0213605
-0.0255036
0.0477316
0.0174268
-0.0209305
0.0506456
0.0129969
-0.015911
0.05302
0.00824428
-0.0106186
0.0548421
0.0033138
-0.00513597
0.0560834
-0.00169385
0.000452592
0.056705
-0.00667669
0.00605507
0.0566654
-0.0115212
0.0115608
0.0559267
-0.0161023
0.0168409
-0.0202862
0.0544616
0.0217514
0.0434636
0.017497
0.0468723
0.0140181
0.0497324
0.0101369
0.0520062
0.00597041
0.0536723
0.00164774
0.0547013
-0.00272284
0.0550584
-0.00703385
0.0547097
-0.0111724
0.0536282
-0.0150208
-0.0184597
0.0518016
0.0425076
0.0139129
0.0456939
0.0108318
0.0483535
0.00747736
0.0504128
0.00391111
0.0518281
0.000232406
0.0525633
-0.00345804
0.0525867
-0.00705728
0.0518743
-0.01046
0.0504151
-0.0135615
-0.0162618
0.0482171
0.0410261
0.010602
0.043908
0.00794989
0.0462566
0.00512875
0.0479926
0.00217514
0.0490619
-0.00083696
0.0494263
-0.0038224
0.0490604
-0.00669136
0.0479539
-0.00935354
0.0461152
-0.0117228
-0.0137225
0.0435759
0.0385934
0.00760767
0.0411045
0.00543879
0.0430569
0.00317637
0.0443825
0.000849487
0.0450321
-0.00148655
0.0449745
-0.00376476
0.0441969
-0.00591378
0.0427068
-0.00786345
0.0405341
-0.00955006
-0.0109212
0.0377328
0.0346788
0.00500606
0.0367519
0.00336565
0.038244
0.00168434
0.039106
-1.25025e-05
0.0393039
-0.00168451
0.0388224
-0.00328326
0.0376666
-0.00475797
0.0358637
-0.00606053
0.0334636
-0.00714996
-0.00799609
0.0305385
0.0286065
0.00288345
0.0301848
0.00178728
0.031186
0.000683216
0.0315827
-0.000409272
0.0313618
-0.00146356
0.0305275
-0.00244898
0.0291041
-0.0033346
0.0271363
-0.00409266
0.024688
-0.00470165
-0.00514844
0.0218403
0.0195381
0.00131473
0.0205974
0.000728006
0.0211323
0.000148368
0.0211364
-0.000413393
0.0206162
-0.000943377
0.0195935
-0.00142628
0.0181064
-0.00184749
0.0162086
-0.00219491
0.0139675
-0.00246054
-0.00264163
0.0114607
0.00645822
0.000346457
0.00702659
0.000159636
0.00719477
-1.98072e-05
0.0069711
-0.000189731
0.00637372
-0.000345991
0.00543157
-0.000484138
0.00418431
-0.000600225
0.00268078
-0.000691373
0.00097654
-0.000756306
-0.0007964
-0.000868693
-0.0119331
-0.0117735
-0.0117933
-0.011983
-0.012329
-0.0128131
-0.0134134
-0.0141047
-0.014861
-0.0156574
0.0522623
-0.0239552
0.0261544
0.0493452
-0.0269488
0.029866
0.0457603
-0.0291909
0.0327758
0.0415912
-0.0306319
0.034801
0.0369469
-0.0312815
0.0359258
0.031944
-0.0312095
0.0362123
0.0266752
-0.0305236
0.0357924
0.0211578
-0.0293051
0.0348225
0.0152746
-0.0274229
0.0333061
-0.023951
0.00850753
0.0307181
0.0492411
-0.0213947
0.0459852
-0.0236929
0.0421061
-0.0253118
0.0377058
-0.0262316
0.032905
-0.0264807
0.0278236
-0.026128
0.0225521
-0.0252521
0.0171234
-0.0238764
0.0115404
-0.0218399
-0.0185501
0.00613946
0.0453146
-0.0184922
0.041771
-0.0201493
0.0376797
-0.0212205
0.0331578
-0.0217097
0.0283339
-0.0216568
0.0233304
-0.0211245
0.0182463
-0.0201681
0.0131574
-0.0187874
0.00817879
-0.0168613
-0.0140926
0.00372125
0.0403935
-0.0153098
0.0366543
-0.01641
0.0324678
-0.017034
0.0279599
-0.0172018
0.0232601
-0.016957
0.0184889
-0.0163533
0.0137507
-0.0154299
0.0091451
-0.0141818
0.00482021
-0.0125364
-0.0103682
0.00109586
0.0343803
-0.0119572
0.0305792
-0.012609
0.026447
-0.0129018
0.0221087
-0.0128634
0.0176867
-0.012535
0.0132922
-0.0119589
0.00902456
-0.0111623
0.0049843
-0.0101415
0.00130696
-0.00885907
-0.00727263
-0.00178861
0.0271771
-0.00859592
0.0234892
-0.00892101
0.019589
-0.00900164
0.0155909
-0.00886533
0.0116015
-0.0085456
0.0077155
-0.0080729
0.00401777
-0.00746453
0.000594438
-0.00671822
-0.00244861
-0.00581602
-0.00474877
-0.00497247
0.0186826
-0.00543819
0.0153195
-0.00555792
0.0118514
-0.00553357
0.00837304
-0.00538695
0.00496864
-0.00514121
0.00171093
-0.0048152
-0.00133532
-0.00441829
-0.00410518
-0.00394836
-0.00652453
-0.00339667
-0.0027633
-0.00851
0.00876521
-0.00274269
0.00596933
-0.00276204
0.00315026
-0.0027145
0.000376863
-0.00261355
-0.00229252
-0.00247182
-0.00480921
-0.00229851
-0.00713019
-0.0020973
-0.00921255
-0.001866
-0.0110092
-0.00159999
-0.00130044
-0.0124721
-0.00280077
-0.000810606
-0.00475884
-0.000803978
-0.00669444
-0.000778901
-0.00856701
-0.00074098
-0.0103444
-0.000694406
-0.0120011
-0.000641861
-0.0135144
-0.000583958
-0.0148612
-0.000519257
-0.0160154
-0.000445745
-0.000364942
-0.0169509
-0.016468
-0.017272
-0.0180509
-0.0187919
-0.0194863
-0.0201282
-0.0207121
-0.0212314
-0.0216771
-0.0220421
0.000264588
-0.0223067
0.000967353
-0.0176537
0.00207298
-0.0135777
0.0035725
-0.0100095
0.00546486
-0.00686483
0.00774634
-0.00407009
0.0104038
-0.0015616
0.0134045
0.000720574
0.016702
0.00284193
0.00489103
0.0203185
0.000177741
-0.0224844
0.000655958
-0.0181319
0.00141954
-0.0143413
0.0024661
-0.0110561
0.00379528
-0.00819401
0.00540376
-0.00567857
0.00728556
-0.0034434
0.00944031
-0.00143418
0.0119048
0.00037744
0.00195282
0.014843
9.59125e-05
-0.0225803
0.000372861
-0.0184088
0.000837248
-0.0148057
0.00149999
-0.0117188
0.00237228
-0.0090663
0.00346501
-0.0067713
0.00479195
-0.00477034
0.00637602
-0.00301825
0.00825528
-0.00150182
-0.000261829
0.0104699
2.3742e-05
-0.0226041
0.000126992
-0.0185121
0.000338824
-0.0150175
0.000684618
-0.0120646
0.00118668
-0.00956836
0.00186567
-0.00745028
0.00274299
-0.00564767
0.00384252
-0.00411778
0.00518602
-0.00284531
-0.00184684
0.00677103
-3.78965e-05
-0.0225662
-7.99728e-05
-0.01847
-7.56282e-05
-0.0150219
1.32164e-05
-0.0121535
0.000216403
-0.00977155
0.000558057
-0.00779194
0.00105834
-0.00614795
0.00173314
-0.00479258
0.00258875
-0.00370092
-0.00286819
0.00361009
-8.90806e-05
-0.0224771
-0.000248552
-0.0183105
-0.000408743
-0.0148617
-0.000521646
-0.0120406
-0.000553449
-0.00973974
-0.000480733
-0.00786465
-0.000288332
-0.00634035
3.08011e-05
-0.00511171
0.000472677
-0.0041428
-0.00341314
0.00101763
-0.0001298
-0.0223473
-0.000378874
-0.0180615
-0.000661356
-0.0145792
-0.000921926
-0.01178
-0.00112527
-0.0095364
-0.00125066
-0.00773926
-0.00128863
-0.00630239
-0.00123939
-0.00516095
-0.00111327
-0.00426891
-0.00359478
-0.00093164
-0.000159705
-0.0221876
-0.000470104
-0.0177511
-0.00083196
-0.0142173
-0.00118463
-0.0114273
-0.00149262
-0.00922841
-0.0017384
-0.00749348
-0.00191772
-0.00612307
-0.00203653
-0.00504214
-0.00210959
-0.00419585
-0.00354488
-0.00215949
-0.00017811
-0.0220095
-0.000520938
-0.0174082
-0.000918344
-0.0138199
-0.00130559
-0.0110401
-0.00164751
-0.00888648
-0.00192958
-0.00721141
-0.0021519
-0.00590074
-0.00232516
-0.00486888
-0.00246802
-0.00405299
-0.00340772
-0.00260518
-0.000183454
-0.000530261
-0.000919511
-0.00128309
-0.00158639
-0.00181733
-0.00197957
-0.0020878
-0.00216474
-0.00223874
-0.000842974
-0.00905296
0.00882865
0.00189316
-0.0110804
0.00834423
0.00564032
-0.0123643
0.00861715
0.00996585
-0.0146524
0.0103269
0.0145222
-0.017001
0.0124447
0.0189992
-0.0189423
0.0144652
0.0232715
-0.020217
0.0159448
0.0272544
-0.0202002
0.0162173
0.0309456
-0.018283
0.0145918
0.0343655
-0.0139491
0.0105292
0.0375775
-0.00766812
0.00445611
0.0406001
-0.000333722
-0.0026889
0.0435199
0.00293643
-0.00585621
0.0461791
0.00148501
-0.00414419
0.0484769
-0.0144105
0.0121127
0.0499798
-0.0307796
0.0292767
0.0510849
-0.0438987
0.0427937
0.051727
-0.0332725
0.0326304
0.0530781
0.0193772
-0.0207284
0.021514
-0.0228876
0.00162784
-0.00981074
0.00456412
-0.0140167
0.0083731
-0.0161733
0.0126058
-0.0188851
0.0169788
-0.021374
0.0212233
-0.0231868
0.0252377
-0.0242313
0.0289616
-0.023924
0.0324124
-0.0217339
0.0356313
-0.017168
0.0386946
-0.0107314
0.0416262
-0.00326531
0.0444858
7.68064e-05
0.0470878
-0.00111694
0.049275
-0.0165977
0.0506181
-0.0321227
0.0515229
-0.0448036
0.051981
-0.0337306
0.0533011
0.0180571
0.0200951
0.0049283
-0.0112373
0.00803976
-0.0171281
0.0118451
-0.0199786
0.0158926
-0.0229326
0.0199845
-0.0254659
0.0239085
-0.0271108
0.0275894
-0.0279122
0.0309912
-0.0273259
0.034148
-0.0248906
0.0371178
-0.0201379
0.0399869
-0.0136005
0.0427834
-0.00606182
0.0455418
-0.00268151
0.0480533
-0.00362849
0.0501126
-0.0186571
0.0512995
-0.0333096
0.0520192
-0.0455234
0.0523144
-0.0340258
0.0536137
0.0167579
0.0186163
0.00892366
-0.0134247
0.0121608
-0.0203652
0.0158756
-0.0236935
0.0196453
-0.0267022
0.0233689
-0.0291895
0.0269002
-0.0306421
0.0301909
-0.0312029
0.033227
-0.030362
0.0360546
-0.0277182
0.0387442
-0.0228274
0.0413877
-0.0162441
0.0440162
-0.0086903
0.0466409
-0.00530624
0.0490361
-0.00602363
0.0509569
-0.0205779
0.0519977
-0.0343504
0.0525553
-0.046081
0.0527167
-0.0341873
0.0540105
0.0154641
0.0170608
0.0134499
-0.0164034
0.0167348
-0.0236501
0.0202493
-0.027208
0.0236497
-0.0301026
0.0269323
-0.032472
0.0300191
-0.0337289
0.0328852
-0.034069
0.0355339
-0.0330107
0.0380179
-0.0302022
0.0404145
-0.025224
0.0428173
-0.0186469
0.0452579
-0.011131
0.0477279
-0.00777615
0.0499902
-0.00828594
0.0517711
-0.0223588
0.0526847
-0.0352639
0.0531112
-0.0465075
0.0531751
-0.0342511
0.0544826
0.0141566
0.0154102
0.0183166
-0.0201178
0.0215409
-0.0268744
0.0247263
-0.0303934
0.0276715
-0.0330478
0.0304592
-0.0352598
0.0330727
-0.0363424
0.0355037
-0.0365001
0.0377664
-0.0352734
0.0399139
-0.0323497
0.0420244
-0.0273345
0.0441889
-0.0208113
0.0464372
-0.0133793
0.0487442
-0.0100831
0.0508684
-0.0104102
0.0525177
-0.0240081
0.0533308
-0.036077
0.053665
-0.0468417
0.0536743
-0.0342604
0.0550198
0.0128112
0.0136435
0.0232998
-0.0243855
0.0263244
-0.029899
0.0290469
-0.0331159
0.0314653
-0.0354662
0.033729
-0.0375235
0.0358667
-0.03848
0.0378772
-0.0385107
0.039778
-0.0371741
0.041617
-0.0341887
0.0434677
-0.0291853
0.0454138
-0.0227574
0.0474811
-0.0154466
0.0496311
-0.0122332
0.051624
-0.012403
0.0531595
-0.0255436
0.0539065
-0.0368241
0.0541939
-0.0471291
0.0541977
-0.0342643
0.0556103
0.0113985
0.0117371
0.0281424
-0.0288368
0.0307935
-0.0325502
0.0329367
-0.0352591
0.0347841
-0.0373136
0.0365263
-0.0392657
0.0382145
-0.0401682
0.0398444
-0.0401406
0.0414293
-0.0387589
0.0430072
-0.0357667
0.044642
-0.0308201
0.0464065
-0.0245218
0.0483195
-0.0173596
0.0503324
-0.0142461
0.0522124
-0.014283
0.0536616
-0.0269928
0.0543836
-0.0375461
0.0546753
-0.0474207
0.0547278
-0.0343168
0.0562415
0.00988479
0.00966447
0.0326777
-0.0328963
0.034707
-0.0345795
0.0361689
-0.0367211
0.0374295
-0.0385742
0.038681
-0.0405172
0.0399693
-0.0414565
0.0412773
-0.0414486
0.0426077
-0.0400893
0.0439853
-0.0371443
0.0454605
-0.0322953
0.0470921
-0.0261534
0.0488897
-0.0191572
0.0507973
-0.0161537
0.0525939
-0.0160796
0.053993
-0.028392
0.054737
-0.03829
0.0550884
-0.0477721
0.0552473
-0.0344756
0.0568998
0.0082323
0.00739657
0.0369778
-0.0359149
0.0380024
-0.0356041
0.0386464
-0.0373651
0.0393213
-0.0392491
0.0401211
-0.0413169
0.0410645
-0.0423999
0.0421118
-0.0424959
0.0432508
-0.0412284
0.0444905
-0.0383839
0.0458644
-0.0336692
0.047416
-0.0277051
0.0491422
-0.0208834
0.0509836
-0.0179952
0.0527342
-0.0178301
0.0541261
-0.0297839
0.0549451
-0.0391091
0.0554135
-0.0482404
0.0557417
-0.0348039
0.0575712
0.00640281
0.00490128
0.118139
-0.0274378
-0.126616
0.113701
-0.0311667
0.111136
-0.0347996
0.109557
-0.0376699
0.108374
-0.0401348
0.107473
-0.0414982
0.106711
-0.0417342
0.106053
-0.0405701
0.105533
-0.0378646
0.105287
-0.0334231
0.105512
-0.0279298
0.106411
-0.0217824
0.107912
-0.0194966
0.109666
-0.0195841
0.110734
-0.0308519
0.1104
-0.0387744
0.108784
-0.046625
0.106609
-0.0326288
0.107627
0.00538527
0.00240626
0.165501
-0.016925
-0.176013
0.157356
-0.0230218
0.151597
-0.0290413
0.147422
-0.033495
0.144088
-0.0368007
0.141364
-0.0387738
0.139042
-0.0394127
0.137036
-0.0385631
0.135349
-0.0361779
0.134087
-0.0321616
0.133437
-0.0272799
0.133575
-0.02192
0.134391
-0.0203124
0.135505
-0.0206984
0.135847
-0.0311937
0.134781
-0.0377087
0.132279
-0.0441221
0.129371
-0.029721
0.130061
0.00469549
-2.90431e-05
0.21676
-0.00637853
-0.227306
0.207753
-0.0140151
0.200007
-0.0212952
0.193605
-0.0270936
0.18815
-0.0313457
0.183458
-0.0340812
0.179365
-0.03532
0.175785
-0.0349826
0.172716
-0.0331093
0.17024
-0.0296851
0.168513
-0.0255535
0.167666
-0.0210723
0.167526
-0.020173
0.1677
-0.0208727
0.167006
-0.0304996
0.164979
-0.0356819
0.161431
-0.0405733
0.157754
-0.0260448
0.158002
0.00444779
-0.00219882
0.268269
0.00206146
-0.276709
0.260464
-0.00621086
0.252696
-0.0135266
0.245414
-0.0198114
0.238719
-0.0246508
0.23261
-0.0279724
0.227068
-0.0297778
0.222091
-0.0300058
0.217731
-0.0287492
0.214074
-0.0260283
0.211254
-0.0227337
0.209338
-0.0191565
0.208078
-0.0189124
0.207079
-0.0198739
0.205086
-0.0285069
0.201922
-0.0325171
0.197254
-0.0359061
0.192912
-0.0217028
0.192659
0.00470076
-0.0038551
0.317859
0.00732711
-0.323125
0.312247
-0.000599008
0.306003
-0.00728197
0.299371
-0.0131797
0.292732
-0.0180114
0.286285
-0.0215257
0.280153
-0.0236459
0.274446
-0.0242993
0.269303
-0.0236062
0.264854
-0.0215785
0.261221
-0.019101
0.258418
-0.0163531
0.256101
-0.0165964
0.253902
-0.0176748
0.250532
-0.0251365
0.246199
-0.0281841
0.240513
-0.0302197
0.23578
-0.0169699
0.235118
0.0053623
-0.00476207
0.366565
0.00946645
-0.368704
0.363196
0.00276989
0.358909
-0.00299549
0.353761
-0.00803184
0.348095
-0.0123446
0.342232
-0.0156625
0.336397
-0.0178109
0.330774
-0.0186769
0.325562
-0.0183944
0.320937
-0.0169531
0.31701
-0.0151743
0.313761
-0.0131037
0.310738
-0.0135738
0.307619
-0.0145556
0.303105
-0.0206219
0.297818
-0.0228978
0.291443
-0.0238441
0.286759
-0.0122858
0.286015
0.0061055
-0.00479332
0.417403
0.0091778
-0.417115
0.415958
0.00421491
0.413371
-0.000408115
0.409758
-0.0044185
0.40532
-0.00790653
0.400381
-0.0107237
0.39524
-0.0126699
0.390141
-0.013578
0.38531
-0.0135637
0.380957
-0.0125998
0.37717
-0.0113874
0.373927
-0.0098607
0.370662
-0.0103093
0.36712
-0.0110129
0.361987
-0.015489
0.356206
-0.0171168
0.349664
-0.0173026
0.345519
-0.00814046
0.345251
0.00637328
-0.00403256
0.4738
0.00719515
-0.471817
0.473983
0.00403133
0.472787
0.000787928
0.470444
-0.00207549
0.467103
-0.00456531
0.463019
-0.00663953
0.458512
-0.00816342
0.453893
-0.00895891
0.44942
-0.00909072
0.445345
-0.00852463
0.441741
-0.00778368
0.438635
-0.00675399
0.435378
-0.00705254
0.431803
-0.00743793
0.426594
-0.0102806
0.42081
-0.0113321
0.414615
-0.0111079
0.411315
-0.00484056
0.412117
0.00557167
-0.00278413
0.539579
0.00403535
-0.536419
0.5411
0.00251009
0.541075
0.000813478
0.539725
-0.000725969
0.537223
-0.00206269
0.533775
-0.00319124
0.52967
-0.00405941
0.525264
-0.00455215
0.520859
-0.00468627
0.516772
-0.00443692
0.513078
-0.00409018
0.50989
-0.00356613
0.506539
-0.00370142
0.502958
-0.0038567
0.497876
-0.00519886
0.492275
-0.00573101
0.486615
-0.00544796
0.48407
-0.00229589
0.48624
0.00340227
-0.00140613
0.619938
-0.615903
0.622448
0.623261
0.622535
0.620473
0.617282
0.613222
0.60867
0.603984
0.599547
0.595457
0.59189
0.588189
0.584332
0.579133
0.573402
0.567955
0.565659
0.569061
0.167669
0.0228752
-0.166689
0.16787
0.0284509
0.167111
0.0337208
0.165205
0.0385522
0.161984
0.0428046
0.157334
0.0463431
0.151239
0.0490581
0.143833
0.0508933
0.135475
0.0518205
0.0516235
0.191931
0.0209026
-0.189958
0.193592
0.0267899
0.194794
0.0325189
0.195366
0.0379805
0.195121
0.0430497
0.193871
0.0475925
0.191449
0.0514801
0.18773
0.0546125
0.182593
0.0569582
0.0582026
0.217659
0.0183793
-0.215136
0.220299
0.02415
0.222961
0.0298568
0.225514
0.0354277
0.227784
0.0407792
0.22956
0.0458171
0.230602
0.0504384
0.23068
0.0545336
0.229618
0.0580203
0.060515
0.246182
0.0157149
-0.243517
0.249239
0.0210924
0.252648
0.0264481
0.25634
0.031736
0.260216
0.0369026
0.264148
0.0418855
0.267973
0.0466129
0.271502
0.0510044
0.274529
0.054994
0.0583351
0.278557
0.0130558
-0.275898
0.281787
0.0178625
0.285579
0.0226563
0.289911
0.0274044
0.294743
0.0320706
0.300012
0.0366157
0.305629
0.0409966
0.311467
0.0451657
0.317385
0.0490759
0.0525957
0.315585
0.0104312
-0.312961
0.318914
0.0145341
0.322945
0.0186253
0.32767
0.0226787
0.333074
0.0266673
0.339127
0.0305628
0.345787
0.0343361
0.352997
0.0379561
0.360682
0.0413908
0.0445735
0.358176
0.00784839
-0.355593
0.361583
0.0111267
0.365814
0.0143944
0.370862
0.0176305
0.376716
0.0208135
0.383357
0.0239218
0.390759
0.0269338
0.398888
0.0298278
0.407697
0.0325814
0.035156
0.407739
0.00529131
-0.405182
0.411244
0.00762218
0.415693
0.00994521
0.421079
0.0122449
0.427386
0.0145058
0.434596
0.0167122
0.442681
0.0188487
0.451609
0.0209001
0.461339
0.0228511
0.024678
0.466411
0.0027093
-0.463829
0.470076
0.00395729
0.474819
0.00520165
0.48063
0.00643378
0.487491
0.00764501
0.495377
0.00882671
0.504255
0.00997038
0.514087
0.0110677
0.524828
0.0121103
0.0130866
0.537603
-0.534894
0.54156
0.546762
0.553196
0.560841
0.569668
0.579638
0.590706
0.602816
0.143466
-0.0301885
-0.141104
0.146317
-0.0264492
0.149281
-0.0218247
0.152258
-0.0168296
0.155175
-0.0115445
0.157989
-0.0060542
0.160639
-0.000395666
0.163042
0.00538846
0.165099
0.0112404
0.0170902
0.170894
-0.0318589
-0.169224
0.172714
-0.0282692
0.174642
-0.0237524
0.176678
-0.018865
0.178801
-0.0136681
0.181
-0.00825261
0.183257
-0.00265258
0.185539
0.00310573
0.187797
0.00898286
0.0149287
0.202221
-0.0323149
-0.201765
0.202867
-0.0289148
0.203646
-0.0245317
0.204595
-0.0198143
0.205759
-0.0148315
0.207153
-0.00964712
0.208789
-0.00428884
0.210672
0.0012231
0.212794
0.00686041
0.0125872
0.237304
-0.0314667
-0.238152
0.236643
-0.0282536
0.236248
-0.0241368
0.236152
-0.0197189
0.236402
-0.0150812
0.237022
-0.0102675
0.23803
-0.00529691
0.239442
-0.000188513
0.241269
0.0050331
0.0103394
0.276091
-0.0293111
-0.278246
0.274163
-0.0263259
0.272641
-0.0226147
0.271568
-0.0186457
0.270976
-0.0144894
0.270887
-0.0101789
0.27132
-0.00572926
0.27229
-0.00115841
0.273812
0.00351082
0.00825317
0.319175
-0.0258666
-0.322619
0.31607
-0.0232216
0.313497
-0.0200416
0.311505
-0.0166534
0.310121
-0.0131052
0.309364
-0.00942205
0.309253
-0.00561849
0.309806
-0.00171133
0.311038
0.00227903
0.00633041
0.367602
-0.0211693
-0.372299
0.363385
-0.0190053
0.359816
-0.0164718
0.35694
-0.0137783
0.354789
-0.0109535
0.353382
-0.00801563
0.352742
-0.00497836
0.352887
-0.00185657
0.353834
0.00133267
0.00457103
0.422807
-0.0152685
-0.428708
0.417523
-0.0137211
0.41299
-0.0119389
0.409256
-0.0100435
0.406353
-0.00805065
0.40431
-0.00597259
0.403152
-0.00382019
0.4029
-0.00160507
0.403573
0.000660006
0.00296142
0.486926
-0.0082034
-0.493991
0.480592
-0.00738747
0.475106
-0.00645227
0.470517
-0.00545479
0.466868
-0.00440199
0.464196
-0.00330036
0.462532
-0.00215617
0.461903
-0.000976044
0.46233
0.000232822
0.0014628
0.563327
-0.571531
0.55594
0.549488
0.544033
0.539631
0.53633
0.534174
0.533198
0.533431
0.126776
0.0023215
-0.00222994
0.126519
0.00703821
-0.0067812
0.126104
0.0121595
-0.0117442
0.125532
0.0180652
-0.0174937
0.124858
0.0251158
-0.024442
0.124139
0.0343592
-0.0336401
0.123836
0.045688
-0.0453848
0.124115
0.0634233
-0.063702
0.128854
0.0813896
-0.0861286
0.120869
-0.133119
0.147935
0.00238389