/*--------------------------------*- C++ -*----------------------------------*\
  =========                 |
  \\      /  F ield         | OpenFOAM: The Open Source CFD Toolbox
   \\    /   O peration     | Website:  https://openfoam.org
    \\  /    A nd           | Version:  6.0
     \\/     M anipulation  |
\*---------------------------------------------------------------------------*/
FoamFile
{
    version     2.0;
    format      ascii;
    class       volScalarField;
    location    "4";
    object      p;
}
// * * * * * * * * * * * * * * * * * * * * * * * * * * * * * * * * * * * * * //

dimensions      [0 2 -2 0 0 0 0];

internalField   nonuniform List<scalar> 
19200
(
-33.8358
-30.1662
-27.4389
-25.1623
-23.0722
-21.1726
-19.4513
-17.8861
-16.4598
-15.1592
-13.9724
-12.889
-11.8997
-10.9961
-10.1705
-9.4161
-8.7264
-8.09561
-7.51842
-6.98996
-6.50583
-6.062
-5.65484
-5.28105
-4.93766
-4.62198
-4.33162
-4.06415
-3.81734
-3.59173
-33.9503
-30.2882
-27.5615
-25.2817
-23.1869
-21.2822
-19.5555
-17.9848
-16.5534
-15.2478
-14.0563
-12.9687
-11.9755
-11.0684
-10.2397
-9.48237
-8.79007
-8.15692
-7.57758
-7.04716
-6.56122
-6.11572
-5.707
-5.33174
-4.98695
-4.66995
-4.37833
-4.10958
-3.86139
-3.63519
-34.0715
-30.4111
-27.6838
-25.4006
-23.3014
-21.3915
-19.6594
-18.0833
-16.6467
-15.3361
-14.1401
-13.0483
-12.0513
-11.1407
-10.3088
-9.54871
-8.85386
-8.21839
-7.63695
-7.10461
-6.6169
-6.16977
-5.75952
-5.38282
-5.03666
-4.71836
-4.4255
-4.15548
-3.90593
-3.67918
-34.1965
-30.5354
-27.8062
-25.5195
-23.4156
-21.5005
-19.763
-18.1815
-16.7397
-15.4243
-14.2237
-13.1277
-12.1269
-11.2129
-10.378
-9.61509
-8.91773
-8.28
-7.6965
-7.16229
-6.67285
-6.22412
-5.81238
-5.43427
-5.08678
-4.76722
-4.47314
-4.20186
-3.95098
-3.72373
-34.3236
-30.661
-27.9291
-25.6385
-23.5297
-21.6093
-19.8664
-18.2795
-16.8325
-15.5122
-14.3071
-13.207
-12.2025
-11.2851
-10.4472
-9.68151
-8.98169
-8.34175
-7.75624
-7.2202
-6.72908
-6.2788
-5.8656
-5.48613
-5.13733
-4.81653
-4.52126
-4.24875
-3.99655
-3.76885
-34.4521
-30.7874
-28.0524
-25.7576
-23.6438
-21.718
-19.9695
-18.3772
-16.925
-15.5999
-14.3903
-13.2861
-12.2779
-11.3572
-10.5163
-9.74795
-9.04573
-8.40363
-7.81616
-7.27833
-6.78559
-6.33379
-5.91919
-5.53838
-5.18832
-4.86631
-4.56987
-4.29615
-4.04266
-3.81455
-34.5815
-30.9145
-28.176
-25.8767
-23.7578
-21.8265
-20.0724
-18.4746
-17.0172
-15.6873
-14.4733
-13.3651
-12.3532
-11.4292
-10.5854
-9.81441
-9.10983
-8.46562
-7.87624
-7.33668
-6.84235
-6.38909
-5.97312
-5.59103
-5.23974
-4.91656
-4.61899
-4.34408
-4.08933
-3.86086
-34.7115
-31.0421
-28.2999
-25.9959
-23.8717
-21.9348
-20.175
-18.5718
-17.1092
-15.7744
-14.5561
-13.4438
-12.4283
-11.5011
-10.6544
-9.88084
-9.17397
-8.52769
-7.93647
-7.39523
-6.89936
-6.44469
-6.0274
-5.64406
-5.29159
-4.96727
-4.6686
-4.39253
-4.13654
-3.90776
-34.8418
-31.17
-28.424
-26.1152
-23.9855
-22.0428
-20.2774
-18.6687
-17.2009
-15.8613
-14.6385
-13.5223
-12.5033
-11.5729
-10.7233
-9.94723
-9.23811
-8.58983
-7.9968
-7.45394
-6.95659
-6.50055
-6.08199
-5.69746
-5.34384
-5.01843
-4.71869
-4.44149
-4.18431
-3.95527
-34.9724
-31.298
-28.5481
-26.2343
-24.0991
-22.1506
-20.3795
-18.7652
-17.2922
-15.9478
-14.7206
-13.6005
-12.5779
-11.6444
-10.792
-10.0135
-9.30222
-8.65199
-8.05722
-7.51278
-7.01401
-6.55666
-6.13688
-5.75119
-5.39648
-5.07001
-4.76925
-4.49095
-4.2326
-4.00336
-35.1031
-31.4261
-28.6721
-26.3533
-24.2124
-22.2581
-20.4811
-18.8613
-17.383
-16.0339
-14.8024
-13.6783
-12.6523
-11.7157
-10.8606
-10.0797
-9.36624
-8.71412
-8.11766
-7.57171
-7.07156
-6.61295
-6.19201
-5.80523
-5.44947
-5.122
-4.82025
-4.5409
-4.28141
-4.05201
-35.2338
-31.5542
-28.796
-26.472
-24.3254
-22.3652
-20.5823
-18.9569
-17.4734
-16.1195
-14.8837
-13.7558
-12.7263
-11.7867
-10.9289
-10.1456
-9.43013
-8.77616
-8.17807
-7.63066
-7.1292
-6.66939
-6.24734
-5.85951
-5.50276
-5.17434
-4.87166
-4.59128
-4.33071
-4.10122
-35.3645
-31.6821
-28.9196
-26.5904
-24.438
-22.4717
-20.683
-19.0519
-17.5633
-16.2046
-14.9645
-13.8327
-12.7999
-11.8573
-10.9969
-10.2113
-9.4938
-8.83806
-8.23839
-7.68958
-7.18686
-6.72591
-6.3028
-5.91399
-5.5563
-5.22698
-4.92342
-4.64207
-4.38045
-4.15092
-35.4949
-31.8097
-29.043
-26.7084
-24.5501
-22.5778
-20.7831
-19.1464
-17.6525
-16.2891
-15.0447
-13.9092
-12.873
-11.9275
-11.0645
-10.2767
-9.55718
-8.89972
-8.29854
-7.74838
-7.24446
-6.78242
-6.35832
-5.96859
-5.61002
-5.27986
-4.97547
-4.6932
-4.43058
-4.20108
-35.625
-31.9371
-29.1659
-26.8259
-24.6616
-22.6832
-20.8825
-19.2401
-17.7411
-16.3729
-15.1243
-13.985
-12.9455
-11.9971
-11.1316
-10.3416
-9.6202
-8.96107
-8.35842
-7.80698
-7.30191
-6.83885
-6.41382
-6.02322
-5.66384
-5.3329
-5.02774
-4.74461
-4.48104
-4.25164
-35.7549
-32.064
-29.2884
-26.9428
-24.7724
-22.7878
-20.9811
-19.3331
-17.8288
-16.4559
-15.2031
-14.0601
-13.0174
-12.0661
-11.1982
-10.406
-9.68274
-9.022
-8.41794
-7.86527
-7.35912
-6.89509
-6.46918
-6.07778
-5.71765
-5.386
-5.08014
-4.7962
-4.53175
-4.30252
-35.8843
-32.1905
-29.4103
-27.059
-24.8825
-22.8916
-21.0789
-19.4252
-17.9157
-16.538
-15.2811
-14.1344
-13.0885
-12.1344
-11.264
-10.4698
-9.74472
-9.0824
-8.47699
-7.92313
-7.41595
-6.95101
-6.52429
-6.13215
-5.77134
-5.43904
-5.13254
-4.84787
-4.5826
-4.35361
-36.0132
-32.3164
-29.5315
-27.1745
-24.9917
-22.9945
-21.1757
-19.5163
-18.0015
-16.6192
-15.3581
-14.2078
-13.1587
-12.2019
-11.3292
-10.5329
-9.80601
-9.14217
-8.53545
-7.98045
-7.47229
-7.00649
-6.57901
-6.18619
-5.82476
-5.49188
-5.18482
-4.89949
-4.63345
-4.4048
-36.1416
-32.4418
-29.6521
-27.2892
-25.1001
-23.0964
-21.2714
-19.6063
-18.0863
-16.6994
-15.4342
-14.2803
-13.228
-12.2685
-11.3934
-10.5951
-9.86651
-9.20118
-8.59318
-8.03709
-7.52798
-7.06137
-6.63319
-6.23974
-5.87774
-5.54436
-5.23681
-4.95089
-4.68417
-4.45592
-36.2695
-32.5665
-29.7718
-27.403
-25.2073
-23.1972
-21.366
-19.6951
-18.17
-16.7784
-15.5091
-14.3516
-13.2962
-12.334
-11.4566
-10.6564
-9.92608
-9.2593
-8.65006
-8.0929
-7.58288
-7.11549
-6.68664
-6.29261
-5.93011
-5.59628
-5.28832
-5.00188
-4.73453
-4.50679
-36.397
-32.6906
-29.8908
-27.5157
-25.3135
-23.2968
-21.4593
-19.7827
-18.2523
-16.8561
-15.5827
-14.4217
-13.3633
-12.3985
-11.5188
-10.7166
-9.98462
-9.31641
-8.70593
-8.14773
-7.63682
-7.16867
-6.73917
-6.34461
-5.98164
-5.64741
-5.33909
-5.05221
-4.78431
-4.55714
-36.524
-32.814
-30.0089
-27.6274
-25.4184
-23.3951
-21.5513
-19.8689
-18.3333
-16.9325
-15.655
-14.4905
-13.4291
-12.4616
-11.5797
-10.7756
-10.042
-9.37236
-8.76067
-8.20143
-7.68962
-7.22072
-6.79059
-6.3955
-6.03209
-5.6975
-5.38887
-5.10161
-4.83319
-4.60666
-36.6509
-32.9368
-30.126
-27.7379
-25.5219
-23.4919
-21.6418
-19.9535
-18.4128
-17.0073
-15.7259
-14.5579
-13.4935
-12.5235
-11.6394
-10.8333
-10.0981
-9.42705
-8.81414
-8.25384
-7.74114
-7.27146
-6.84069
-6.44505
-6.08119
-5.74625
-5.43735
-5.14973
-4.88082
-4.65497
-36.7779
-33.059
-30.2421
-27.8471
-25.624
-23.5871
-21.7306
-20.0365
-18.4906
-17.0807
-15.7953
-14.6239
-13.5565
-12.5839
-11.6977
-10.8897
-10.1528
-9.48037
-8.86622
-8.30484
-7.7912
-7.32072
-6.88925
-6.49302
-6.12868
-5.79336
-5.48417
-5.19621
-4.92679
-4.70168
-36.9052
-33.1806
-30.357
-27.9548
-25.7244
-23.6805
-21.8176
-20.1178
-18.5668
-17.1523
-15.863
-14.6882
-13.618
-12.6429
-11.7545
-10.9446
-10.2061
-9.53223
-8.91682
-8.35432
-7.83969
-7.36832
-6.93608
-6.53918
-6.17427
-5.83848
-5.52893
-5.24057
-4.9706
-4.74627
-37.0332
-33.3013
-30.4706
-28.0608
-25.823
-23.772
-21.9027
-20.1972
-18.6411
-17.2222
-15.9291
-14.751
-13.6779
-12.7003
-11.8098
-10.9981
-10.258
-9.5826
-8.96589
-8.40222
-7.88651
-7.41417
-6.98104
-6.58334
-6.2177
-5.88129
-5.57121
-5.28233
-5.01167
-4.78767
-37.1631
-33.4213
-30.5825
-28.1649
-25.9194
-23.8614
-21.9857
-20.2745
-18.7134
-17.2902
-15.9933
-14.812
-13.7361
-12.7562
-11.8635
-11.05
-10.3083
-9.63146
-9.01342
-8.44851
-7.93165
-7.45823
-7.02407
-6.62539
-6.25884
-5.92159
-5.6108
-5.32121
-5.04935
-4.82465
-37.2995
-33.5419
-30.6924
-28.2664
-26.0131
-23.948
-22.0661
-20.3494
-18.7834
-17.356
-16.0556
-14.8712
-13.7926
-12.8104
-11.9157
-11.1004
-10.3571
-9.67881
-9.05941
-8.49322
-7.97513
-7.5005
-7.06515
-6.66529
-6.29756
-5.95922
-5.64745
-5.35669
-5.08291
-4.85826
-37.4456
-33.6629
-30.7989
-28.3641
-26.1034
-24.0317
-22.1438
-20.4218
-18.8512
-17.4198
-16.1159
-14.9285
-13.8474
-12.8629
-11.9663
-11.1493
-10.4044
-9.7247
-9.10395
-8.53647
-8.01708
-7.54114
-7.10441
-6.7031
-6.33384
-5.99385
-5.68005
-5.3866
-5.11078
-4.8908
-37.5783
-33.7751
-30.8997
-28.4579
-26.191
-24.1133
-22.2198
-20.4926
-18.9176
-17.4822
-16.1749
-14.9845
-13.9009
-12.9143
-12.0158
-11.1971
-10.4506
-9.76953
-9.14745
-8.57866
-8.05796
-7.58065
-7.14246
-6.73954
-6.36847
-6.02612
-5.70871
-5.41118
-5.13555
-4.91617
-39.0121
-39.0249
-39.024
-39.0238
-39.0223
-39.0168
-39.0067
-38.9918
-38.9721
-38.9474
-38.9177
-38.8831
-38.8437
-38.7995
-38.7507
-38.6974
-38.6398
-38.5781
-38.5125
-38.4432
-38.3704
-38.2943
-38.2152
-38.1335
-38.0495
-37.9639
-37.8774
-37.7916
-37.7094
-37.6357
-35.144
-35.169
-35.1834
-35.1928
-35.1977
-35.1971
-35.1911
-35.1798
-35.1633
-35.1417
-35.1151
-35.0836
-35.0472
-35.006
-34.9603
-34.9102
-34.8558
-34.7973
-34.7349
-34.6689
-34.5993
-34.5265
-34.4506
-34.372
-34.2911
-34.2081
-34.1237
-34.0383
-33.9527
-33.8654
-32.1502
-32.1817
-32.2048
-32.2209
-32.2309
-32.2351
-32.2337
-32.2269
-32.2148
-32.1975
-32.1752
-32.148
-32.116
-32.0793
-32.038
-31.9924
-31.9426
-31.8887
-31.831
-31.7696
-31.7046
-31.6364
-31.5651
-31.4909
-31.4141
-31.3349
-31.2535
-31.17
-31.084
-30.9944
-29.5723
-29.607
-29.6346
-29.6553
-29.6697
-29.6783
-29.6813
-29.6789
-29.6712
-29.6585
-29.6408
-29.6182
-29.5908
-29.5589
-29.5225
-29.4819
-29.4371
-29.3883
-29.3357
-29.2794
-29.2196
-29.1566
-29.0904
-29.0212
-28.9493
-28.8746
-28.7974
-28.7174
-28.6347
-28.5486
-27.1739
-27.2103
-27.2408
-27.2648
-27.2827
-27.2949
-27.3017
-27.3031
-27.2993
-27.2907
-27.2771
-27.2588
-27.2358
-27.2084
-27.1766
-27.1407
-27.1007
-27.0568
-27.0092
-26.958
-26.9034
-26.8455
-26.7844
-26.7204
-26.6535
-26.5838
-26.5113
-26.436
-26.3579
-26.2766
-24.9793
-25.0168
-25.0489
-25.0751
-25.0954
-25.1102
-25.1198
-25.1241
-25.1235
-25.1181
-25.108
-25.0932
-25.074
-25.0504
-25.0227
-24.9909
-24.9552
-24.9157
-24.8727
-24.8261
-24.7762
-24.723
-24.6668
-24.6077
-24.5456
-24.4808
-24.4132
-24.3428
-24.2696
-24.1934
-22.9881
-23.0259
-23.0587
-23.086
-23.1077
-23.1241
-23.1355
-23.1419
-23.1436
-23.1407
-23.1331
-23.1211
-23.1049
-23.0844
-23.06
-23.0317
-22.9996
-22.9638
-22.9246
-22.882
-22.8362
-22.7873
-22.7355
-22.6807
-22.6231
-22.5628
-22.4998
-22.4341
-22.3656
-22.2945
-21.1833
-21.2207
-21.2535
-21.281
-21.3033
-21.3205
-21.333
-21.3407
-21.3438
-21.3425
-21.3368
-21.3268
-21.3127
-21.2947
-21.2728
-21.2472
-21.2179
-21.1852
-21.1492
-21.1099
-21.0676
-21.0223
-20.9741
-20.9231
-20.8694
-20.8132
-20.7543
-20.6929
-20.6289
-20.5624
-19.5494
-19.5859
-19.618
-19.6451
-19.6673
-19.6847
-19.6975
-19.7058
-19.7097
-19.7094
-19.7048
-19.6962
-19.6836
-19.6673
-19.6472
-19.6236
-19.5966
-19.5662
-19.5326
-19.496
-19.4565
-19.4141
-19.369
-19.3212
-19.2709
-19.2181
-19.1629
-19.1053
-19.0453
-18.9829
-18.0717
-18.1069
-18.1379
-18.1642
-18.1858
-18.2028
-18.2154
-18.2237
-18.2279
-18.2279
-18.2239
-18.2161
-18.2045
-18.1892
-18.1704
-18.1482
-18.1228
-18.0941
-18.0625
-18.0279
-17.9906
-17.9505
-17.9079
-17.8628
-17.8153
-17.7654
-17.7133
-17.659
-17.6024
-17.5437
-16.7357
-16.7694
-16.799
-16.8241
-16.8447
-16.861
-16.873
-16.881
-16.885
-16.885
-16.8811
-16.8736
-16.8624
-16.8478
-16.8298
-16.8085
-16.7841
-16.7567
-16.7264
-16.6934
-16.6577
-16.6195
-16.5789
-16.5359
-16.4907
-16.4433
-16.3938
-16.3422
-16.2886
-16.233
-15.5279
-15.5598
-15.5878
-15.6116
-15.631
-15.6463
-15.6574
-15.6647
-15.6682
-15.6678
-15.6638
-15.6562
-15.6451
-15.6307
-15.6131
-15.5923
-15.5686
-15.542
-15.5127
-15.4808
-15.4463
-15.4095
-15.3704
-15.3291
-15.2858
-15.2404
-15.193
-15.1438
-15.0927
-15.0398
-14.4353
-14.4654
-14.4918
-14.514
-14.5321
-14.5461
-14.5563
-14.5627
-14.5655
-14.5645
-14.56
-14.5521
-14.5408
-14.5264
-14.5089
-14.4883
-14.465
-14.4389
-14.4102
-14.379
-14.3454
-14.3096
-14.2717
-14.2317
-14.1898
-14.1461
-14.1005
-14.0533
-14.0043
-13.9537
-13.4462
-13.4745
-13.4992
-13.5198
-13.5365
-13.5493
-13.5583
-13.5637
-13.5656
-13.5639
-13.5588
-13.5503
-13.5387
-13.524
-13.5064
-13.4858
-13.4626
-13.4367
-13.4083
-13.3776
-13.3446
-13.3096
-13.2725
-13.2336
-13.1928
-13.1504
-13.1064
-13.0608
-13.0136
-12.9649
-12.5499
-12.5764
-12.5994
-12.6184
-12.6337
-12.6452
-12.653
-12.6574
-12.6583
-12.6557
-12.6499
-12.6408
-12.6287
-12.6136
-12.5957
-12.575
-12.5516
-12.5258
-12.4976
-12.4671
-12.4345
-12.3999
-12.3635
-12.3253
-12.2855
-12.2442
-12.2014
-12.1571
-12.1115
-12.0645
-11.7368
-11.7616
-11.7828
-11.8004
-11.8142
-11.8243
-11.831
-11.8343
-11.8342
-11.8307
-11.8241
-11.8144
-11.8017
-11.7861
-11.7677
-11.7467
-11.7231
-11.6972
-11.669
-11.6386
-11.6062
-11.572
-11.536
-11.4984
-11.4593
-11.4188
-11.377
-11.334
-11.2897
-11.2442
-10.9981
-11.0212
-11.0409
-11.0569
-11.0693
-11.0782
-11.0837
-11.0859
-11.0848
-11.0804
-11.073
-11.0625
-11.0492
-11.0331
-11.0142
-10.9928
-10.969
-10.9428
-10.9145
-10.8841
-10.8518
-10.8177
-10.782
-10.7449
-10.7063
-10.6665
-10.6256
-10.5835
-10.5404
-10.4963
-10.3261
-10.3476
-10.3658
-10.3804
-10.3915
-10.3991
-10.4035
-10.4046
-10.4025
-10.3972
-10.389
-10.3778
-10.3638
-10.3471
-10.3278
-10.3059
-10.2817
-10.2553
-10.2268
-10.1963
-10.1639
-10.1299
-10.0944
-10.0575
-10.0194
-9.98018
-9.93995
-9.8988
-9.85674
-9.81381
-9.71384
-9.7339
-9.75063
-9.76389
-9.7737
-9.78018
-9.78346
-9.78355
-9.78047
-9.77435
-9.76529
-9.75339
-9.73873
-9.72141
-9.70156
-9.67929
-9.65471
-9.62796
-9.59917
-9.56849
-9.53607
-9.50205
-9.46661
-9.4299
-9.39208
-9.3533
-9.31369
-9.27332
-9.23222
-9.19042
-9.15518
-9.17385
-9.18923
-9.20122
-9.20984
-9.2152
-9.21744
-9.21656
-9.21257
-9.20561
-9.19579
-9.18318
-9.16787
-9.14998
-9.12961
-9.10687
-9.08189
-9.05479
-9.02572
-8.99482
-8.96223
-8.92814
-8.89269
-8.85608
-8.81848
-8.78005
-8.74094
-8.70128
-8.66107
-8.62036
-8.64462
-8.66197
-8.6761
-8.6869
-8.6944
-8.69871
-8.69997
-8.69816
-8.69332
-8.68557
-8.67501
-8.66172
-8.6458
-8.62734
-8.60646
-8.58326
-8.55787
-8.53042
-8.50104
-8.46988
-8.4371
-8.40286
-8.36735
-8.33076
-8.29328
-8.25511
-8.21644
-8.1774
-8.13804
-8.09839
-8.17725
-8.19338
-8.20633
-8.21601
-8.22247
-8.22581
-8.22615
-8.22347
-8.21782
-8.20932
-8.19807
-8.18415
-8.16764
-8.14864
-8.12726
-8.10362
-8.07783
-8.05001
-8.02031
-7.98887
-7.95586
-7.92143
-7.8858
-7.84915
-7.81172
-7.77372
-7.73539
-7.69691
-7.65835
-7.61978
-7.74873
-7.76372
-7.77557
-7.78422
-7.7897
-7.79212
-7.7916
-7.78811
-7.78171
-7.77252
-7.76062
-7.74609
-7.72902
-7.70952
-7.68767
-7.66359
-7.63741
-7.60923
-7.5792
-7.54747
-7.51419
-7.47955
-7.44373
-7.40696
-7.36948
-7.33157
-7.29347
-7.25547
-7.21768
-7.18022
-7.35518
-7.3691
-7.37993
-7.38761
-7.39219
-7.39377
-7.39245
-7.3882
-7.3811
-7.37125
-7.35875
-7.34366
-7.32607
-7.30608
-7.28379
-7.2593
-7.23273
-7.20421
-7.17385
-7.14181
-7.10825
-7.07334
-7.03729
-7.00033
-6.96272
-6.92478
-6.88682
-6.84921
-6.81211
-6.77583
-6.99315
-7.00607
-7.01595
-7.02273
-7.02646
-7.02727
-7.0252
-7.02025
-7.01249
-7.00205
-6.98898
-6.97337
-6.95529
-6.93485
-6.91214
-6.88726
-6.86033
-6.83146
-6.80078
-6.76843
-6.73456
-6.69936
-6.66303
-6.6258
-6.58796
-6.54987
-6.5119
-6.47457
-6.43809
-6.40314
-6.65956
-6.67154
-6.68053
-6.68646
-6.6894
-6.68947
-6.68669
-6.68108
-6.67272
-6.6617
-6.6481
-6.63199
-6.61345
-6.59257
-6.56946
-6.5442
-6.51691
-6.4877
-6.45669
-6.42402
-6.38983
-6.35429
-6.31761
-6.28003
-6.24185
-6.20346
-6.16529
-6.12804
-6.092
-6.05864
-6.35168
-6.36277
-6.37092
-6.37604
-6.37824
-6.37761
-6.37416
-6.36791
-6.35896
-6.34739
-6.33327
-6.31667
-6.29767
-6.27636
-6.25283
-6.22718
-6.19952
-6.16994
-6.13856
-6.10552
-6.07094
-6.035
-5.99789
-5.95983
-5.92114
-5.88222
-5.84356
-5.80609
-5.77003
-5.73841
-6.06701
-6.07738
-6.08483
-6.0893
-6.09088
-6.08968
-6.08568
-6.07892
-6.06948
-6.05746
-6.04291
-6.02591
-6.00653
-5.98486
-5.96099
-5.93501
-5.90702
-5.87712
-5.84542
-5.81203
-5.7771
-5.74076
-5.70319
-5.66462
-5.62533
-5.58574
-5.54638
-5.50842
-5.47184
-5.44186
-5.80316
-5.81308
-5.82011
-5.82421
-5.82546
-5.82397
-5.81971
-5.81273
-5.80312
-5.79096
-5.77631
-5.75924
-5.73982
-5.71815
-5.6943
-5.66837
-5.64045
-5.61064
-5.57904
-5.54576
-5.51092
-5.47466
-5.43714
-5.39854
-5.35914
-5.31932
-5.27962
-5.24143
-5.20463
-5.17898
-5.55841
-5.56698
-5.57276
-5.57571
-5.57591
-5.57344
-5.56831
-5.56054
-5.55023
-5.53746
-5.52228
-5.50475
-5.48497
-5.46301
-5.43894
-5.41286
-5.38485
-5.35501
-5.32343
-5.29022
-5.25547
-5.2193
-5.18185
-5.14327
-5.10377
-5.06366
-5.02337
-4.98402
-4.94526
-4.93015
-35.1965
-35.384
-35.5556
-35.7347
-35.9179
-36.1001
-36.2797
-36.4561
-36.6289
-36.7973
-36.9609
-37.1194
-37.2724
-37.4198
-37.5613
-37.6967
-37.8259
-37.9489
-38.0655
-38.1756
-38.2793
-38.3764
-38.4672
-38.5515
-38.6297
-38.7019
-38.7685
-38.8305
-38.8896
-38.9485
-31.3123
-31.5143
-31.7055
-31.8949
-32.0825
-32.2667
-32.447
-32.6233
-32.7953
-32.9628
-33.1254
-33.2829
-33.435
-33.5816
-33.7224
-33.8573
-33.9861
-34.1089
-34.2254
-34.3357
-34.4396
-34.5372
-34.6284
-34.7135
-34.7923
-34.8651
-34.9322
-34.9938
-35.0502
-35.1006
-28.3267
-28.531
-28.728
-28.9197
-29.1071
-29.2904
-29.4695
-29.6443
-29.8147
-29.9806
-30.1415
-30.2975
-30.4483
-30.5936
-30.7334
-30.8675
-30.9958
-31.1181
-31.2345
-31.3448
-31.4489
-31.5469
-31.6388
-31.7245
-31.8041
-31.8776
-31.9452
-32.0066
-32.0618
-32.11
-25.7895
-25.9894
-26.1842
-26.3736
-26.5583
-26.7389
-26.9152
-27.0873
-27.2549
-27.418
-27.5764
-27.7299
-27.8784
-28.0216
-28.1595
-28.292
-28.4188
-28.54
-28.6554
-28.765
-28.8687
-28.9664
-29.0582
-29.144
-29.2238
-29.2976
-29.3654
-29.4271
-29.4824
-29.5311
-23.4617
-23.6551
-23.8448
-24.0298
-24.2103
-24.3867
-24.559
-24.727
-24.8908
-25.0501
-25.2048
-25.3549
-25.5001
-25.6402
-25.7753
-25.9052
-26.0297
-26.1487
-26.2623
-26.3702
-26.4726
-26.5692
-26.6601
-26.7452
-26.8245
-26.8979
-26.9655
-27.0271
-27.0825
-27.1317
-21.3619
-21.5482
-21.7316
-21.9109
-22.086
-22.2572
-22.4243
-22.5875
-22.7464
-22.9011
-23.0514
-23.1972
-23.3383
-23.4747
-23.6061
-23.7326
-23.8539
-23.9701
-24.081
-24.1865
-24.2867
-24.3814
-24.4706
-24.5542
-24.6323
-24.7047
-24.7714
-24.8324
-24.8876
-24.9368
-19.4824
-19.6615
-19.8381
-20.0111
-20.1801
-20.3454
-20.5069
-20.6645
-20.8181
-20.9677
-21.113
-21.254
-21.3905
-21.5224
-21.6497
-21.7722
-21.8898
-22.0025
-22.1101
-22.2126
-22.31
-22.4021
-22.489
-22.5706
-22.6468
-22.7175
-22.7829
-22.8427
-22.897
-22.9457
-17.8001
-17.972
-18.1417
-18.308
-18.4707
-18.6298
-18.7854
-18.9373
-19.0853
-19.2294
-19.3695
-19.5054
-19.637
-19.7642
-19.887
-20.0052
-20.1187
-20.2275
-20.3314
-20.4305
-20.5246
-20.6137
-20.6978
-20.7768
-20.8506
-20.9193
-20.9828
-21.041
-21.0939
-21.1416
-16.2936
-16.4586
-16.6215
-16.7812
-16.9376
-17.0907
-17.2403
-17.3864
-17.5288
-17.6674
-17.8021
-17.9329
-18.0595
-18.1819
-18.3
-18.4137
-18.5229
-18.6276
-18.7277
-18.823
-18.9136
-18.9995
-19.0804
-19.1565
-19.2277
-19.2939
-19.3552
-19.4114
-19.4626
-19.5088
-14.944
-15.1023
-15.2587
-15.4122
-15.5625
-15.7096
-15.8534
-15.9939
-16.1308
-16.264
-16.3935
-16.5191
-16.6408
-16.7584
-16.8719
-16.9811
-17.086
-17.1865
-17.2826
-17.3741
-17.4611
-17.5435
-17.6212
-17.6943
-17.7626
-17.8261
-17.8849
-17.9389
-17.9881
-18.0325
-13.7336
-13.8858
-14.0361
-14.1836
-14.3281
-14.4695
-14.6079
-14.7429
-14.8745
-15.0026
-15.127
-15.2477
-15.3646
-15.4775
-15.5864
-15.6913
-15.7919
-15.8883
-15.9804
-16.0682
-16.1516
-16.2305
-16.3049
-16.3748
-16.4402
-16.501
-16.5572
-16.6088
-16.6558
-16.6983
-12.6466
-12.7931
-12.9377
-13.0797
-13.2187
-13.3549
-13.488
-13.6179
-13.7445
-13.8677
-13.9873
-14.1033
-14.2156
-14.3241
-14.4286
-14.5292
-14.6258
-14.7182
-14.8065
-14.8906
-14.9704
-15.0459
-15.1171
-15.1839
-15.2463
-15.3043
-15.3579
-15.4071
-15.4519
-15.4923
-11.6689
-11.8101
-11.9495
-12.0863
-12.2203
-12.3515
-12.4797
-12.6049
-12.7268
-12.8454
-12.9605
-13.0721
-13.1801
-13.2843
-13.3847
-13.4813
-13.5739
-13.6626
-13.7472
-13.8277
-13.9041
-13.9763
-14.0443
-14.1081
-14.1677
-14.223
-14.274
-14.3208
-14.3633
-14.4016
-10.788
-10.9244
-11.0589
-11.191
-11.3203
-11.447
-11.5707
-11.6914
-11.809
-11.9233
-12.0342
-12.1417
-12.2455
-12.3458
-12.4423
-12.5351
-12.6241
-12.7091
-12.7903
-12.8674
-12.9405
-13.0096
-13.0746
-13.1355
-13.1923
-13.245
-13.2935
-13.3379
-13.3782
-13.4144
-9.99307
-10.125
-10.2551
-10.3827
-10.5078
-10.6303
-10.7498
-10.8665
-10.98
-11.0903
-11.1973
-11.3009
-11.401
-11.4975
-11.5904
-11.6796
-11.7651
-11.8468
-11.9247
-11.9986
-12.0687
-12.1348
-12.197
-12.2551
-12.3093
-12.3594
-12.4056
-12.4477
-12.4858
-12.52
-9.27441
-9.40223
-9.52825
-9.65193
-9.77311
-9.89165
-10.0074
-10.1202
-10.23
-10.3366
-10.44
-10.5399
-10.6365
-10.7296
-10.8191
-10.905
-10.9873
-11.0658
-11.1406
-11.2116
-11.2788
-11.3421
-11.4015
-11.4571
-11.5088
-11.5565
-11.6004
-11.6404
-11.6764
-11.7087
-8.62365
-8.74771
-8.87001
-8.99004
-9.10762
-9.2226
-9.33482
-9.44415
-9.55045
-9.65362
-9.75357
-9.85022
-9.9435
-10.0334
-10.1197
-10.2025
-10.2817
-10.3573
-10.4293
-10.4975
-10.5619
-10.6226
-10.6796
-10.7327
-10.782
-10.8276
-10.8693
-10.9072
-10.9413
-10.9717
-8.03341
-8.15401
-8.27291
-8.3896
-8.50388
-8.61558
-8.72455
-8.83063
-8.93371
-9.03369
-9.13049
-9.22403
-9.31424
-9.40109
-9.4845
-9.56442
-9.64083
-9.71367
-9.78291
-9.84852
-9.91047
-9.96874
-10.0233
-10.0742
-10.1213
-10.1647
-10.2044
-10.2404
-10.2727
-10.3013
-7.4972
-7.61461
-7.73039
-7.84404
-7.9553
-8.06399
-8.16994
-8.27301
-8.3731
-8.4701
-8.56395
-8.65459
-8.74195
-8.82599
-8.90664
-8.98388
-9.05766
-9.12793
-9.19468
-9.25786
-9.31746
-9.37345
-9.42581
-9.47454
-9.51963
-9.56108
-9.59888
-9.63306
-9.66362
-9.69063
-7.00929
-7.12374
-7.2367
-7.34758
-7.45607
-7.56197
-7.66513
-7.7654
-7.86268
-7.95691
-8.04801
-8.13593
-8.22062
-8.30203
-8.38012
-8.45484
-8.52616
-8.59405
-8.65846
-8.71938
-8.77678
-8.83064
-8.88095
-8.92769
-8.97087
-9.01048
-9.04652
-9.07901
-9.10795
-9.13342
-6.56457
-6.6763
-6.78672
-6.8951
-7.00105
-7.10438
-7.20493
-7.30258
-7.39724
-7.48886
-7.57739
-7.66276
-7.74495
-7.8239
-7.89958
-7.97196
-8.04098
-8.10663
-8.16887
-8.22767
-8.28302
-8.33489
-8.38328
-8.42817
-8.46955
-8.50744
-8.54183
-8.57274
-8.60017
-8.62421
-6.15849
-6.26774
-6.37595
-6.48207
-6.5857
-6.68664
-6.78476
-6.87995
-6.97215
-7.06132
-7.14741
-7.2304
-7.31023
-7.38688
-7.46031
-7.53048
-7.59735
-7.6609
-7.7211
-7.77793
-7.83136
-7.88137
-7.92796
-7.97111
-8.01083
-8.04711
-8.07996
-8.1094
-8.13542
-8.15811
-5.78695
-5.89399
-6.00035
-6.1045
-6.20599
-6.30471
-6.40055
-6.49341
-6.58329
-6.67014
-6.75395
-6.83468
-6.91231
-6.98679
-7.0581
-7.1262
-7.19105
-7.25264
-7.31092
-7.36589
-7.41752
-7.46579
-7.5107
-7.55223
-7.59038
-7.62516
-7.65657
-7.68463
-7.70934
-7.73077
-5.44615
-5.55137
-5.65635
-5.7588
-5.85833
-5.95499
-6.04866
-6.13933
-6.227
-6.31167
-6.39332
-6.47192
-6.54746
-6.6199
-6.68921
-6.75536
-6.81831
-6.87805
-6.93454
-6.98776
-7.0377
-7.08434
-7.12767
-7.16768
-7.20437
-7.23775
-7.26781
-7.29458
-7.31806
-7.33832
-5.13268
-5.23666
-5.34088
-5.44188
-5.53963
-5.63433
-5.72596
-5.81454
-5.90011
-5.98269
-6.06229
-6.13888
-6.21244
-6.28294
-6.35036
-6.41467
-6.47582
-6.53381
-6.58861
-6.64019
-6.68853
-6.73364
-6.77548
-6.81407
-6.84939
-6.88145
-6.91025
-6.93581
-6.95815
-6.97731
-4.84341
-4.94744
-5.05167
-5.15141
-5.24747
-5.34032
-5.42996
-5.5165
-5.60004
-5.68061
-5.75823
-5.83288
-5.90455
-5.9732
-6.0388
-6.10134
-6.16078
-6.2171
-6.27028
-6.32029
-6.36712
-6.41076
-6.4512
-6.48843
-6.52245
-6.55327
-6.58088
-6.60531
-6.62655
-6.64468
-4.57387
-4.68092
-4.78645
-4.88498
-4.97933
-5.07035
-5.15803
-5.24257
-5.32412
-5.40274
-5.47845
-5.55123
-5.62106
-5.68793
-5.7518
-5.81265
-5.87045
-5.92519
-5.97682
-6.02535
-6.07075
-6.11301
-6.15211
-6.18807
-6.22086
-6.2505
-6.27699
-6.30034
-6.32057
-6.33772
-4.31437
-4.42915
-4.53861
-4.63631
-4.72908
-4.81839
-4.90425
-4.98696
-5.06671
-5.1436
-5.21761
-5.28875
-5.35699
-5.42231
-5.48468
-5.54407
-5.60047
-5.65385
-5.70418
-5.75145
-5.79563
-5.83673
-5.87472
-5.9096
-5.94138
-5.97004
-5.9956
-6.01807
-6.03745
-6.0538
-4.05882
-4.18603
-4.30265
-4.40075
-4.49231
-4.58012
-4.66444
-4.74564
-4.82393
-4.89941
-4.97206
-5.04188
-5.10885
-5.17293
-5.2341
-5.29234
-5.34762
-5.39992
-5.44922
-5.49549
-5.53874
-5.57893
-5.61607
-5.65015
-5.68116
-5.7091
-5.73399
-5.75583
-5.77463
-5.79044
-3.86754
-4.00863
-4.12409
-4.22014
-4.30881
-4.39325
-4.47443
-4.55268
-4.62812
-4.70079
-4.77068
-4.83778
-4.90205
-4.96348
-5.02204
-5.07771
-5.13048
-5.18032
-5.22722
-5.27117
-5.31215
-5.35016
-5.38518
-5.41722
-5.44628
-5.47235
-5.49546
-5.5156
-5.5328
-5.5471
-0.875841
-1.03291
-1.20606
-1.39583
-1.6041
-1.83285
-2.08412
-2.36017
-2.66351
-2.99697
-3.36371
-3.76732
-4.21185
-4.70192
-5.24285
-5.84074
-6.50264
-7.23677
-8.05269
-8.96157
-9.9765
-11.1128
-12.3885
-13.8241
-15.4445
-17.2797
-19.3477
-21.645
-24.4262
-28.1556
-0.969055
-1.12813
-1.30212
-1.49297
-1.70252
-1.93262
-2.18533
-2.46292
-2.76794
-3.10323
-3.47199
-3.87782
-4.32481
-4.81762
-5.36159
-5.96286
-6.62854
-7.36688
-8.1875
-9.10162
-10.1224
-11.2652
-12.548
-13.9915
-15.6203
-17.4644
-19.5413
-21.8466
-24.6314
-28.3555
-1.06372
-1.22483
-1.3997
-1.5917
-1.80259
-2.03412
-2.28832
-2.56753
-2.8743
-3.2115
-3.58236
-3.9905
-4.44004
-4.93567
-5.48277
-6.08753
-6.7571
-7.49977
-8.32522
-9.24472
-10.2715
-11.4209
-12.711
-14.1624
-15.7996
-17.6523
-19.7377
-22.0499
-24.8364
-28.5523
-1.15971
-1.32288
-1.49868
-1.69188
-1.90418
-2.13717
-2.39293
-2.67381
-2.98239
-3.32156
-3.69457
-4.10508
-4.55723
-5.05575
-5.60605
-6.21437
-6.88789
-7.63497
-8.46532
-9.39027
-10.4231
-11.5792
-12.8766
-14.3359
-15.9815
-17.8427
-19.9363
-22.2557
-25.046
-28.7595
-1.25693
-1.42221
-1.59898
-1.79345
-2.0072
-2.24173
-2.4991
-2.78171
-3.09215
-3.43335
-3.80857
-4.2215
-4.67632
-5.17779
-5.73136
-6.3433
-7.02084
-7.77239
-8.60771
-9.53818
-10.5771
-11.7399
-13.0447
-14.5119
-16.1659
-18.0357
-20.1376
-22.4645
-25.2603
-28.9747
-1.35529
-1.52271
-1.7005
-1.89629
-2.11156
-2.34768
-2.60673
-2.89112
-3.20349
-3.54678
-3.92427
-4.33969
-4.79724
-5.30172
-5.85862
-6.47424
-7.15588
-7.91197
-8.75232
-9.68838
-10.7335
-11.9031
-13.2153
-14.6905
-16.353
-18.2314
-20.3418
-22.6763
-25.4781
-29.1949
-1.4547
-1.62427
-1.80313
-2.00029
-2.21715
-2.45491
-2.71569
-3.00193
-3.31629
-3.66172
-4.04154
-4.45951
-4.91985
-5.4274
-5.9877
-6.60707
-7.29287
-8.05357
-8.89904
-9.84076
-10.8921
-12.0686
-13.3883
-14.8716
-16.5426
-18.4298
-20.5487
-22.891
-25.699
-29.4192
-1.55506
-1.72681
-1.90676
-2.10536
-2.32386
-2.56333
-2.82589
-3.11403
-3.43043
-3.77806
-4.16027
-4.58084
-5.04403
-5.55472
-6.11847
-6.74166
-7.43168
-8.19706
-9.04772
-9.99517
-11.0528
-12.2363
-13.5635
-15.055
-16.7346
-18.6306
-20.7582
-23.1085
-25.923
-29.6471
-1.65627
-1.83021
-2.0113
-2.2114
-2.43159
-2.67282
-2.93723
-3.22732
-3.54581
-3.8957
-4.28035
-4.70357
-5.16967
-5.68355
-6.25081
-6.87788
-7.57219
-8.34231
-9.19822
-10.1515
-11.2155
-12.406
-13.7409
-15.2405
-16.9288
-18.8338
-20.9701
-23.3285
-26.1497
-29.8781
-1.75826
-1.9344
-2.11666
-2.31831
-2.54025
-2.78329
-3.04959
-3.3417
-3.66233
-4.01452
-4.40167
-4.8276
-5.29666
-5.81378
-6.3846
-7.01561
-7.71426
-8.48919
-9.3504
-10.3095
-11.3801
-12.5776
-13.9202
-15.4281
-17.1252
-19.0391
-21.1843
-23.5509
-26.3789
-30.1117
-1.86093
-2.03928
-2.22275
-2.42601
-2.64975
-2.89466
-3.1629
-3.45706
-3.77989
-4.13444
-4.52412
-4.95281
-5.42487
-5.94528
-6.51972
-7.15471
-7.85776
-8.63755
-9.50413
-10.4692
-11.5462
-12.751
-14.1013
-15.6176
-17.3234
-19.2464
-21.4005
-23.7753
-26.6102
-30.3476
-1.96423
-2.14478
-2.32948
-2.5344
-2.76
-3.00682
-3.27706
-3.57332
-3.89839
-4.25533
-4.64759
-5.07908
-5.5542
-6.07794
-6.65605
-7.29507
-8.00256
-8.78726
-9.65927
-10.6303
-11.7139
-12.9259
-14.284
-15.8087
-17.5234
-19.4554
-21.6185
-24.0016
-26.8433
-30.5853
-2.06808
-2.25082
-2.43679
-2.64342
-2.87093
-3.1197
-3.39197
-3.69037
-4.01772
-4.3771
-4.77199
-5.20631
-5.68451
-6.21164
-6.79344
-7.43654
-8.14852
-8.93818
-9.81566
-10.7927
-11.883
-13.1022
-14.4682
-16.0013
-17.7249
-19.666
-21.838
-24.2294
-27.078
-30.8246
-2.17243
-2.35735
-2.54459
-2.75298
-2.98244
-3.23321
-3.50755
-3.80814
-4.1378
-4.49964
-4.89719
-5.33439
-5.81571
-6.34624
-6.93179
-7.57899
-8.29551
-9.09016
-9.97315
-10.9563
-12.0532
-13.2797
-14.6537
-16.1952
-17.9277
-19.878
-22.0589
-24.4586
-27.314
-31.0652
-2.27723
-2.4643
-2.65285
-2.86304
-3.09449
-3.34729
-3.62373
-3.92652
-4.25852
-4.62287
-5.02309
-5.46319
-5.94766
-6.48163
-7.07094
-7.72229
-8.44337
-9.24305
-10.1316
-11.1208
-12.2245
-13.4583
-14.8402
-16.3903
-18.1317
-20.0911
-22.281
-24.6888
-27.5511
-31.3068
-2.38246
-2.57165
-2.7615
-2.97353
-3.207
-3.46185
-3.74041
-4.04544
-4.3798
-4.74666
-5.14958
-5.59259
-6.08023
-6.61766
-7.21077
-7.86628
-8.59195
-9.3967
-10.2908
-11.2862
-12.3966
-13.6378
-15.0276
-16.5862
-18.3365
-20.305
-22.5039
-24.9199
-27.7889
-31.5491
-2.48812
-2.67937
-2.87051
-3.08441
-3.31991
-3.57683
-3.85753
-4.16479
-4.50152
-4.87091
-5.27654
-5.72248
-6.21331
-6.75421
-7.35112
-8.01082
-8.7411
-9.55093
-10.4507
-11.4522
-12.5694
-13.8179
-15.2158
-16.7829
-18.5421
-20.5197
-22.7274
-25.1515
-28.0272
-31.7918
-2.5942
-2.78745
-2.97987
-3.19563
-3.43318
-3.69216
-3.97499
-4.28449
-4.62359
-4.9955
-5.40385
-5.85272
-6.34674
-6.89113
-7.49186
-8.15576
-8.89066
-9.70559
-10.6109
-11.6187
-12.7426
-13.9986
-15.4044
-16.98
-18.7482
-20.7348
-22.9513
-25.3835
-28.2657
-32.0348
-2.70075
-2.8959
-3.08954
-3.30716
-3.54674
-3.80777
-4.0927
-4.40442
-4.74588
-5.12031
-5.53136
-5.98317
-6.48037
-7.02825
-7.63281
-8.30092
-9.04046
-9.8605
-10.7715
-11.7854
-12.9162
-14.1795
-15.5933
-17.1774
-18.9545
-20.9502
-23.1755
-25.6156
-28.5043
-32.2777
-2.80783
-3.00473
-3.19952
-3.41896
-3.66052
-3.92355
-4.21056
-4.52447
-4.86826
-5.24519
-5.65894
-6.11367
-6.61406
-7.16542
-7.77381
-8.44613
-9.19032
-10.0155
-10.9321
-11.9523
-13.0898
-14.3605
-15.7823
-17.375
-19.1609
-21.1655
-23.3996