/*--------------------------------*- C++ -*----------------------------------*\
  =========                 |
  \\      /  F ield         | OpenFOAM: The Open Source CFD Toolbox
   \\    /   O peration     | Website:  https://openfoam.org
    \\  /    A nd           | Version:  6.0
     \\/     M anipulation  |
\*---------------------------------------------------------------------------*/
FoamFile
{
    version     2.0;
    format      ascii;
    class       surfaceScalarField;
    location    "4";
    object      phi;
}
// * * * * * * * * * * * * * * * * * * * * * * * * * * * * * * * * * * * * * //

dimensions      [0 3 -1 0 0 0 0];

internalField   nonuniform List<scalar> 
38030
(
3.71377e-06
-0.162283
0.162279
7.15514e-05
-0.155044
0.154976
0.000189367
-0.148726
0.148608
0.000345681
-0.143103
0.142947
0.000531584
-0.138007
0.137821
0.000738724
-0.133301
0.133094
0.000959682
-0.128883
0.128662
0.00118821
-0.124682
0.124453
0.00141924
-0.120649
0.120418
0.00164882
-0.116754
0.116524
0.00187404
-0.112977
0.112752
0.00209283
-0.109307
0.109088
0.00230388
-0.105738
0.105527
0.00250648
-0.102268
0.102066
0.0027004
-0.0988985
0.0987045
0.00288578
-0.0956289
0.0954436
0.00306304
-0.092461
0.0922837
0.00323283
-0.0893957
0.0892259
0.00339595
-0.0864335
0.0862704
0.0035533
-0.0835743
0.083417
0.00370585
-0.0808171
0.0806646
0.00385455
-0.0781602
0.0780115
0.00400035
-0.075601
0.0754552
0.00414409
-0.0731365
0.0729927
0.00428649
-0.0707629
0.0706204
0.00442809
-0.068476
0.0683344
0.00456919
-0.0662717
0.0661306
0.00470981
-0.0641457
0.0640051
0.00484961
-0.0620936
0.0619538
-0.0601112
0.0599728
0.00498794
1.39857e-05
-0.162297
8.3153e-05
-0.155113
0.000201575
-0.148844
0.000358928
-0.14326
0.000546021
-0.138194
0.000754386
-0.133509
0.000976483
-0.129105
0.00120595
-0.124911
0.00143767
-0.120881
0.00166769
-0.116984
0.00189309
-0.113202
0.00211185
-0.109525
0.0023227
-0.105949
0.00252498
-0.102471
0.0027185
-0.099092
0.00290344
-0.0958139
0.00308027
-0.0926378
0.00324967
-0.0895651
0.00341248
-0.0865963
0.00356962
-0.0837315
0.00372209
-0.0809696
0.00387091
-0.078309
0.00401704
-0.0757471
0.00416139
-0.0732808
0.00430472
-0.0709062
0.00444763
-0.0686189
0.00459047
-0.0664146
0.00473331
-0.0642885
0.00487589
-0.0622362
-0.0602529
0.0050176
2.01995e-05
-0.162317
9.21759e-05
-0.155185
0.000212104
-0.148964
0.000371051
-0.143419
0.000559769
-0.138383
0.000769643
-0.133719
0.000993039
-0.129328
0.00122354
-0.125142
0.00145598
-0.121113
0.00168643
-0.117214
0.00191199
-0.113428
0.00213069
-0.109744
0.00234131
-0.106159
0.00254324
-0.102673
0.00273633
-0.0992851
0.00292082
-0.0959984
0.0030972
-0.0928142
0.0032662
-0.0897341
0.00342867
-0.0867588
0.0035856
-0.0838884
0.00373801
-0.081122
0.00388695
-0.0784579
0.00403343
-0.0758936
0.0041784
-0.0734258
0.00432268
-0.0710505
0.00446691
-0.0687632
0.00461153
-0.0665592
0.00475664
-0.0644336
0.00490205
-0.0623816
-0.060398
0.00504721
2.34522e-05
-0.16234
9.85783e-05
-0.15526
0.000220902
-0.149087
0.000382027
-0.14358
0.000572755
-0.138574
0.000784389
-0.133931
0.00100923
-0.129553
0.00124082
-0.125373
0.00147402
-0.121346
0.00170488
-0.117445
0.00193058
-0.113653
0.00214918
-0.109963
0.00235953
-0.10637
0.00256107
-0.102874
0.00275369
-0.0994777
0.00293769
-0.0961824
0.0031136
-0.0929901
0.00328217
-0.0899027
0.00344431
-0.086921
0.00360101
-0.0840451
0.00375334
-0.0812743
0.00390239
-0.078607
0.00404921
-0.0760404
0.00419481
-0.0735714
0.00434004
-0.0711957
0.00448562
-0.0689088
0.00463203
-0.0667056
0.00477945
-0.0645811
0.00492774
-0.0625299
-0.0605467
0.00507641
2.55502e-05
-0.162366
0.000103536
-0.155338
0.00022853
-0.149212
0.000392118
-0.143744
0.000585076
-0.138767
0.00079862
-0.134145
0.00102499
-0.12978
0.00125772
-0.125606
0.00149166
-0.12158
0.00172292
-0.117677
0.00194871
-0.113879
0.00216717
-0.110181
0.00237719
-0.10658
0.00257828
-0.103075
0.00277039
-0.0996698
0.00295385
-0.0963658
0.00312924
-0.0931655
0.00329735
-0.0900708
0.00345912
-0.0870827
0.00361557
-0.0842016
0.0037678
-0.0814266
0.00391694
-0.0787561
0.00406409
-0.0761876
0.00421028
-0.0737176
0.00435646
-0.0713419
0.00450339
-0.0690557
0.00465159
-0.0668538
0.00480134
-0.0647308
0.00495254
-0.0626811
-0.0606989
0.00510475
2.70876e-05
-0.162393
0.000107621
-0.155419
0.000235322
-0.149339
0.000401502
-0.14391
0.000596807
-0.138962
0.000812346
-0.13436
0.0010403
-0.130007
0.00127416
-0.12584
0.00150883
-0.121815
0.00174043
-0.117908
0.00196626
-0.114105
0.0021845
-0.110399
0.00239412
-0.106789
0.00259469
-0.103276
0.00278622
-0.0998613
0.00296908
-0.0965487
0.0031439
-0.0933403
0.0033115
-0.0902384
0.00347285
-0.0872441
0.003629
-0.0843577
0.0037811
-0.0815787
0.00393029
-0.0789053
0.00407772
-0.076335
0.00422449
-0.0738644
0.00437158
-0.071489
0.00451982
-0.0692039
0.00466981
-0.0670038
0.00482187
-0.0648829
0.00497599
-0.0628352
-0.0608547
0.00513177
2.83382e-05
-0.162421
0.000111183
-0.155502
0.000241533
-0.14947
0.000410338
-0.144079
0.000608031
-0.13916
0.000825586
-0.134578
0.00105511
-0.130237
0.00129009
-0.126075
0.00152542
-0.12205
0.00175731
-0.11814
0.00198308
-0.114331
0.00220102
-0.110617
0.00241016
-0.106998
0.00261012
-0.103476
0.00280099
-0.100052
0.00298318
-0.0967309
0.00315736
-0.0935145
0.00332438
-0.0904054
0.00348524
-0.0874049
0.00364104
-0.0845135
0.00379293
-0.0817306
0.00394212
-0.0790545
0.00408978
-0.0764827
0.00423706
-0.0740116
0.00438501
-0.0716369
0.00453452
-0.0693534
0.00468626
-0.0671555
0.00484061
-0.0650372
0.00499763
-0.0629922
-0.061014
0.00515698
2.94236e-05
-0.162451
0.000114414
-0.155587
0.000247334
-0.149603
0.000418739
-0.14425
0.000618811
-0.13936
0.000838365
-0.134797
0.00106943
-0.130468
0.00130545
-0.126311
0.00154137
-0.122286
0.00177344
-0.118372
0.00199907
-0.114556
0.0022166
-0.110835
0.00242515
-0.107207
0.0026244
-0.103675
0.00281451
-0.100242
0.00299593
-0.0969123
0.00316937
-0.093688
0.00333573
-0.0905718
0.00349603
-0.0875652
0.00365139
-0.0846689
0.00380301
-0.0818822
0.0039521
-0.0792036
0.00409991
-0.0766305
0.00424763
-0.0741594
0.00439636
-0.0717857
0.00454707
-0.0695041
0.00470049
-0.067309
0.00485708
-0.0651938
0.00501697
-0.0631521
-0.061177
0.00517988
3.04119e-05
-0.162481
0.000117421
-0.155674
0.000252833
-0.149738
0.000426791
-0.144424
0.000629197
-0.139562
0.000850695
-0.135019
0.00108322
-0.130701
0.0013202
-0.126548
0.00155661
-0.122523
0.00178874
-0.118604
0.0020141
-0.114782
0.0022311
-0.111052
0.00243893
-0.107415
0.00263736
-0.103873
0.00282659
-0.100432
0.00300712
-0.0970928
0.00317973
-0.0938606
0.00334532
-0.0907374
0.00350495
-0.0877249
0.00365978
-0.0848237
0.00381101
-0.0820334
0.00395991
-0.0793525
0.00410776
-0.0767783
0.00425581
-0.0743074
0.00440522
-0.0719351
0.00455702
-0.0696559
0.00471203
-0.067464
0.00487079
-0.0653526
0.00503349
-0.0633148
-0.0613434
0.00519992
3.13325e-05
-0.162513
0.000120274
-0.155763
0.000258098
-0.149876
0.000434547
-0.144601
0.000639224
-0.139767
0.000862584
-0.135242
0.00109647
-0.130934
0.0013343
-0.126786
0.00157106
-0.122759
0.00180313
-0.118836
0.00202807
-0.115007
0.0022444
-0.111268
0.00245137
-0.107622
0.00264883
-0.104071
0.00283703
-0.10062
0.00301656
-0.0972723
0.00318819
-0.0940322
0.00335289
-0.0909021
0.00351173
-0.0878837
0.00366589
-0.0849778
0.00381662
-0.0821841
0.0039652
-0.0795011
0.00411296
-0.0769261
0.0042612
-0.0744556
0.00441115
-0.072085
0.00456391
-0.0698087
0.0047204
-0.0676204
0.00488122
-0.0655134
0.00504664
-0.0634802
-0.0615133
0.00521654
3.22055e-05
-0.162545
0.000123007
-0.155854
0.000263175
-0.150016
0.000442046
-0.14478
0.000648915
-0.139974
0.000874038
-0.135467
0.00110917
-0.13117
0.00134771
-0.127024
0.00158468
-0.122996
0.00181652
-0.119068
0.00204088
-0.115231
0.00225637
-0.111484
0.00246232
-0.107828
0.00265865
-0.104267
0.00284568
-0.100807
0.00302403
-0.0974507
0.00319454
-0.0942027
0.0033582
-0.0910657
0.00351611
-0.0880416
0.00366946
-0.0851312
0.00381952
-0.0823342
0.00396763
-0.0796492
0.00411513
-0.0770736
0.00426339
-0.0746039
0.00441371
-0.0722353
0.00456728
-0.0699623
0.00472508
-0.0677782
0.00488782
-0.0656762
0.00505585
-0.0636482
-0.0616866
0.00522912
3.30414e-05
-0.162578
0.000125639
-0.155946
0.000268093
-0.150158
0.000449317
-0.144961
0.00065829
-0.140183
0.000885065
-0.135694
0.0011213
-0.131406
0.00136039
-0.127263
0.0015974
-0.123233
0.00182884
-0.1193
0.00205245
-0.115455
0.00226691
-0.111698
0.00247165
-0.108032
0.00266667
-0.104462
0.00285234
-0.100992
0.00302935
-0.0976277
0.00319857
-0.0943719
0.00336101
-0.0912282
0.00351782
-0.0881984
0.00367018
-0.0852836
0.00381941
-0.0824834
0.00396685
-0.0797966
0.0041139
-0.0772207
0.00426198
-0.074752
0.00441246
-0.0723858
0.00456662
-0.0701164
0.00472553
-0.0679372
0.00489002
-0.0658406
0.00506051
-0.0638187
-0.0618631
0.00523703
3.38417e-05
-0.162612
0.000128189
-0.15604
0.000272871
-0.150303
0.000456381
-0.145144
0.00066736
-0.140394
0.000895658
-0.135922
0.00113284
-0.131643
0.00137231
-0.127503
0.00160918
-0.12347
0.00184002
-0.11953
0.00206267
-0.115677
0.00227591
-0.111911
0.00247925
-0.108236
0.00267275
-0.104656
0.00285687
-0.101177
0.00303234
-0.0978032
0.00320007
-0.0945397
0.00336111
-0.0913892
0.00351661
-0.0883539
0.00366779
-0.0854348
0.00381596
-0.0826316
0.00396251
-0.0799432
0.00410888
-0.077367
0.00425653
-0.0748996
0.00440692
-0.0725362
0.00456141
-0.0702709
0.0047212
-0.0680969
0.0048872
-0.0660066
0.00505996
-0.0639915
-0.0620427
0.00523958
3.46092e-05
-0.162646
0.00013066
-0.156137
0.000277527
-0.15045
0.000463257
-0.14533
0.000676142
-0.140607
0.000905825
-0.136152
0.00114379
-0.131881
0.00138345
-0.127742
0.00161997
-0.123707
0.00185001
-0.11976
0.00207149
-0.115899
0.00228329
-0.112123
0.002485
-0.108437
0.00267677
-0.104848
0.00285913
-0.101359
0.00303284
-0.0979769
0.00319886
-0.0947057
0.00335827
-0.0915486
0.00351224
-0.0885079
0.003662
-0.0855845
0.00380888
-0.0827785
0.00395429
-0.0800886
0.00409969
-0.0775124
0.00424662
-0.0750466
0.00439661
-0.0726862
0.00455112
-0.0704254
0.00471148
-0.0682573
0.00487872
-0.0661739
0.00505351
-0.0641663
-0.0622252
0.00523604
3.53413e-05
-0.162682
0.000133062
-0.156234
0.000282079
-0.150599
0.000469966
-0.145518
0.000684656
-0.140821
0.000915578
-0.136383
0.00115415
-0.13212
0.00139379
-0.127982
0.00162974
-0.123943
0.00185876
-0.119989
0.00207884
-0.116119
0.00228896
-0.112333
0.00248882
-0.108637
0.00267863
-0.105037
0.00285897
-0.101539
0.00303069
-0.0981486
0.00319476
-0.0948698
0.00335231
-0.0917062
0.00350449
-0.0886601
0.00365257
-0.0857326
0.00379788
-0.0829238
0.00394184
-0.0802325
0.00408596
-0.0776565
0.00423182
-0.0751924
0.00438104
-0.0728354
0.00453522
-0.0705796
0.00469578
-0.0684179
0.00486392
-0.066342
0.00504042
-0.0643428
-0.0624104
0.0052256
3.60371e-05
-0.162718
0.000135403
-0.156334
0.000286548
-0.15075
0.000476539
-0.145708
0.000692924
-0.141038
0.000924929
-0.136615
0.00116391
-0.132359
0.00140332
-0.128221
0.00163847
-0.124178
0.00186623
-0.120217
0.00208468
-0.116337
0.00229288
-0.112541
0.00249064
-0.108835
0.00267823
-0.105225
0.00285631
-0.101717
0.00302577
-0.0983181
0.00318764
-0.0950316
0.00334304
-0.0918616
0.00349316
-0.0888102
0.00363927
-0.0858787
0.00378269
-0.0830672
0.00392487
-0.0803747
0.00406733
-0.077799
0.00421173
-0.0753368
0.00435977
-0.0729835
0.00451316
-0.070733
0.00467347
-0.0685782
0.00484207
-0.0665106
0.0050199
-0.0645206
-0.0625979
0.00520739
3.66912e-05
-0.162754
0.000137693
-0.156435
0.000290966
-0.150903
0.000483012
-0.1459
0.000700981
-0.141256
0.000933903
-0.136848
0.00117309
-0.132598
0.00141204
-0.12846
0.00164616
-0.124412
0.0018724
-0.120443
0.00208897
-0.116554
0.00229501
-0.112747
0.00249039
-0.10903
0.00267551
-0.10541
0.00285106
-0.101893
0.00301799
-0.098485
0.00317737
-0.095191
0.00333033
-0.0920145
0.0034781
-0.088958
0.0036219
-0.0860225
0.0037631
-0.0832084
0.00390312
-0.0805147
0.00404352
-0.0779394
0.004186
-0.0754793
0.00433234
-0.0731298
0.00448439
-0.070885
0.00464389
-0.0687377
0.0048124
-0.0666791
0.00499104
-0.0646992
-0.0627873
0.00518043
3.73007e-05
-0.162792
0.000139953
-0.156537
0.000295374
-0.151059
0.000489438
-0.146094
0.000708874
-0.141475
0.000942537
-0.137081
0.00118172
-0.132837
0.00141998
-0.128699
0.00165281
-0.124645
0.00187728
-0.120668
0.0020917
-0.116768
0.00229531
-0.112951
0.00248806
-0.109223
0.00267042
-0.105592
0.00284316
-0.102066
0.00300728
-0.0986491
0.00316387
-0.0953476
0.0033141
-0.0921648
0.00345918
-0.089103
0.00360035
-0.0861637
0.00373894
-0.083347
0.00387638
-0.0806521
0.00401423
-0.0780773
0.00415424
-0.0756193
0.00429827
-0.0732738
0.00444832
-0.0710351
0.00460633
-0.0688957
0.00477408
-0.0668469
0.00495293
-0.0648781
-0.062978
0.00514366
3.78665e-05
-0.162829
0.000142217
-0.156642
0.000299837
-0.151216
0.000495884
-0.14629
0.000716663
-0.141696
0.000950876
-0.137316
0.00118982
-0.133076
0.00142715
-0.128936
0.00165844
-0.124876
0.00188088
-0.12089
0.00209288
-0.11698
0.00229379
-0.113152
0.00248364
-0.109413
0.00266296
-0.105772
0.00283262
-0.102235
0.00299363
-0.0988101
0.00314714
-0.0955011
0.00329431
-0.0923119
0.00343636
-0.0892451
0.00357451
-0.0863018
0.00371006
-0.0834825
0.00384444
-0.0807865
0.0039792
-0.078212
0.00411611
-0.0757562
0.00425715
-0.0734149
0.00440445
-0.0711824
0.00456016
-0.0690514
0.00472633
-0.067013
0.0049046
-0.0650564
-0.0631694
0.00509599
3.83898e-05
-0.162868
0.000144536
-0.156748
0.000304442
-0.151376
0.000502443
-0.146488
0.000724427
-0.141918
0.000958985
-0.13755
0.00119746
-0.133314
0.00143359
-0.129172
0.00166307
-0.125106
0.00188321
-0.121111
0.00209253
-0.11719
0.00229047
-0.11335
0.00247715
-0.1096
0.00265318
-0.105948
0.00281946
-0.102402
0.00297708
-0.0989677
0.00312719
-0.0956512
0.00327096
-0.0924557
0.00340959
-0.0893837
0.00354431
-0.0864366
0.00367637
-0.0836146
0.00380717
-0.0809173
0.00393826
-0.0783431
0.00407142
-0.0758894
0.0042087
-0.0735522
0.00435236
-0.071326
0.0045048
-0.0692039
0.00466838
-0.0671766
0.00484508
-0.0652331
-0.0633606
0.00503622
3.88879e-05
-0.162907
0.000146999
-0.156856
0.000309311
-0.151539
0.000509233
-0.146688
0.000732262
-0.142141
0.00096694
-0.137785
0.00120469
-0.133552
0.00143936
-0.129407
0.00166677
-0.125333
0.00188434
-0.121328
0.0020907
-0.117396
0.00228539
-0.113545
0.00246865
-0.109783
0.00264112
-0.10612
0.00280375
-0.102564
0.00295767
-0.0991216
0.00310404
-0.0957976
0.00324407
-0.0925957
0.00337892
-0.0895186
0.00350981
-0.0865674
0.00363794
-0.0837427
0.00376465
-0.081044
0.00389145
-0.0784699
0.00402013
-0.076018
0.00415276
-0.0736848
0.00429176
-0.071465
0.00443978
-0.0693519
0.00459951
-0.0673363
0.00477338
-0.0654069
-0.0635503
0.0049631
3.94009e-05
-0.162946
0.000149736
-0.156966
0.000314615
-0.151703
0.000516405
-0.14689
0.000740286
-0.142365
0.000974828
-0.138019
0.00121158
-0.133789
0.00144451
-0.12964
0.00166958
-0.125558
0.00188432
-0.121543
0.00208745
-0.117599
0.00227865
-0.113736
0.0024582
-0.109963
0.00262684
-0.106289
0.00278555
-0.102723
0.00293548
-0.0992716
0.00307783
-0.0959399
0.00321379
-0.0927317
0.00334453
-0.0896493
0.00347119
-0.0866941
0.00359494
-0.0838665
0.00371704
-0.0811661
0.00383893
-0.0785918
0.00396234
-0.0761414
0.00408936
-0.0738118
0.00422254
-0.0715982
0.00436476
-0.0694941
0.00451913
-0.0674907
0.00468859
-0.0655764
-0.0637371
0.00487539
4.00228e-05
-0.162986
0.000152965
-0.157079
0.000320588
-0.151871
0.000524149
-0.147093
0.000748637
-0.142589
0.000982751
-0.138254
0.0012182
-0.134024
0.00144911
-0.129871
0.00167156
-0.125781
0.0018832
-0.121754
0.00208286
-0.117799
0.00227029
-0.113923
0.00244589
-0.110138
0.00261044
-0.106453
0.002765
-0.102877
0.0029107
-0.0994173
0.00304876
-0.096078
0.00318039
-0.0928633
0.00330669
-0.0897756
0.00342878
-0.0868162
0.00354773
-0.0839854
0.00366471
-0.0812831
0.00378105
-0.0787082
0.00389839
-0.0762588
0.00401881
-0.0739322
0.00414488
-0.0717243
0.00427973
-0.069629
0.00442692
-0.0676379
0.00459002
-0.0657395
-0.063919
0.00477198
4.0938e-05
-0.163027
0.000157026
-0.157195
0.000327551
-0.152042
0.000532702
-0.147298
0.000757477
-0.142814
0.00099082
-0.138487
0.00122464
-0.134258
0.00145322
-0.130099
0.00167276
-0.126
0.00188103
-0.121963
0.00207696
-0.117995
0.00226041
-0.114107
0.00243183
-0.11031
0.00259209
-0.106614
0.00274227
-0.103028
0.00288355
-0.0995586
0.00301712
-0.0962116
0.00314417
-0.0929904
0.00326578
-0.0898972
0.00338299
-0.0869334
0.00349678
-0.0840992
0.00360819
-0.0813945
0.00371841
-0.0788184
0.00382893
-0.0763693
0.00394171
-0.074045
0.00405932
-0.0718419
0.00418505
-0.0697547
0.00432289
-0.0677757
0.00447716
-0.0658938
-0.0640936
0.00465173
4.25245e-05
-0.16307
0.000162458
-0.157315
0.000335927
-0.152215
0.000542333
-0.147505
0.000766968
-0.143039
0.000999135
-0.138719
0.00123097
-0.13449
0.00145689
-0.130325
0.00167323
-0.126216
0.00187786
-0.122167
0.00206983
-0.118187
0.00224908
-0.114286
0.00241614
-0.110477
0.00257193
-0.106769
0.00271757
-0.103173
0.00285427
-0.0996953
0.00298321
-0.0963405
0.00310553
-0.0931127
0.00322228
-0.090014
0.0033344
-0.0870455
0.00344277
-0.0842076
0.00354827
-0.0815
0.00365191
-0.078922
0.00375496
-0.0764724
0.00385916
-0.0741492
0.00396695
-0.0719497
0.00408165
-0.0698694
0.00420758
-0.0679016
0.00434987
-0.0660361
-0.0642574
0.00451367
4.54459e-05
-0.163115
0.00017001
-0.15744
0.000346193
-0.152391
0.000553302
-0.147712
0.000777257
-0.143263
0.00100778
-0.13895
0.00123723
-0.134719
0.00146016
-0.130548
0.001673
-0.126429
0.00187374
-0.122368
0.00206153
-0.118374
0.00223639
-0.114461
0.00239893
-0.110639
0.00255012
-0.106921
0.00269112
-0.103314
0.00282314
-0.0998273
0.00294738
-0.0964648
0.00306492
-0.0932302
0.00317674
-0.0901258
0.0032837
-0.0871525
0.00338656
-0.0843105
0.00348601
-0.0815995
0.00358282
-0.0790188
0.00367797
-0.0765675
0.00377287
-0.0742441
0.00386965
-0.0720465
0.00397144
-0.0699712
0.00408269
-0.0680129
0.00420936
-0.0661627
-0.0644065
0.00435841
5.06972e-05
-0.163166
0.000180553
-0.15757
0.000358836
-0.15257
0.000565866
-0.147919
0.000788474
-0.143485
0.00101682
-0.139178
0.00124345
-0.134946
0.00146302
-0.130768
0.00167206
-0.126638
0.00186866
-0.122565
0.00205207
-0.118558
0.00222239
-0.114631
0.00238029
-0.110797
0.0025268
-0.107067
0.00266311
-0.103451
0.00279045
-0.0999546
0.00290999
-0.0965843
0.00302281
-0.093343
0.0031298
-0.0902328
0.00323172
-0.0872544
0.00332918
-0.0844079
0.00342268
-0.081693
0.00351273
-0.0791089
0.00359994
-0.0766547
0.00368528
-0.0743295
0.00377038
-0.0721316
0.00385786
-0.0700587
0.00395188
-0.0681069
0.00405912
-0.06627
-0.0645363
0.00418899
5.98186e-05
-0.163226
0.000195508
-0.157705
0.000374708
-0.152749
0.000580426
-0.148125
0.000800769
-0.143706
0.00102627
-0.139403
0.00124957
-0.135169
0.0014654
-0.130983
0.00167035
-0.126843
0.00186258
-0.122757
0.00204143
-0.118737
0.00220708
-0.114797
0.00236028
-0.11095
0.00250208
-0.107209
0.00263371
-0.103582
0.00275642
-0.100077
0.00287139
-0.0966993
0.00297965
-0.0934513
0.00308206
-0.0903352
0.00317926
-0.0873516
0.00327171
-0.0845004
0.0033597
-0.081781
0.00344343
-0.0791926
0.00352311
-0.0767344
0.00359917
-0.0744055
0.00367257
-0.072205
0.00374509
-0.0701312
0.00381964
-0.0681814
0.00390233
-0.0663527
-0.0646395
0.00400549
7.7248e-05
-0.163303
0.000218625
-0.157847
0.000395479
-0.152926
0.000597421
-0.148327
0.000814087
-0.143922
0.00103593
-0.139625
0.00125539
-0.135389
0.00146712
-0.131195
0.00166771
-0.127044
0.00185537
-0.122945
0.00202952
-0.118911
0.00219041
-0.114958
0.00233885
-0.111099
0.00247596
-0.107346
0.00260299
-0.103709
0.00272122
-0.100196
0.00283183
-0.0968099
0.00293583
-0.0935553
0.00303406
-0.0904334
0.00312708
-0.0874446
0.00321523
-0.0845885
0.00329857
-0.0818643
0.00337698
-0.079271
0.00345019
-0.0768076
0.00351797
-0.0744733
0.00358037
-0.0722674
0.00363767
-0.0701885
0.00368972
-0.0682335
0.00373917
-0.0664021
-0.0647025
0.00380216
0.000117373
-0.16342
0.000254672
-0.157984
0.000421255
-0.153092
0.000616022
-0.148521
0.000827664
-0.144134
0.00104524
-0.139843
0.00126052
-0.135604
0.00146789
-0.131402
0.00166393
-0.12724
0.00184687
-0.123128
0.0020162
-0.11908
0.00217227
-0.115114
0.00231594
-0.111242
0.0024484
-0.107479
0.00257095
-0.103832
0.00268488
-0.100309
0.00279141
-0.0969164
0.00289155
-0.0936555
0.00298615
-0.090528
0.00307575
-0.0875342
0.00316063
-0.0846734
0.00324077
-0.0819445
0.00331579
-0.079346
0.00338505
-0.0768769
0.00344775
-0.074536
0.003503
-0.0723226
0.00354924
-0.0702347
0.00358076
-0.068265
0.00358573
-0.0664071
-0.0647066
0.00358982
0.164763
8.57575e-05
-0.164849
0.1647
6.32002e-05
0.164646
5.4089e-05
0.164596
4.98763e-05
0.164548
4.79178e-05
0.164501
4.72932e-05
0.164454
4.74032e-05
0.164406
4.78509e-05
0.164357
4.84048e-05
0.164308
4.89536e-05
0.164259
4.94395e-05
0.164209
4.98355e-05
0.164159
5.01344e-05
0.164109
5.03312e-05
0.164058
5.04284e-05
0.164008
5.04256e-05
0.163958
5.03259e-05
0.163907
5.01298e-05
0.163858
4.98324e-05
0.163808
4.94316e-05
0.163759
4.89167e-05
0.163711
4.82699e-05
0.163663
4.74545e-05
0.163617
4.64151e-05
0.163572
4.50393e-05
0.163529
4.31134e-05
0.163489
4.0174e-05
0.163454
3.52123e-05
0.163428
2.51327e-05
8.19239e-06
0.161213
0.000181454
-0.161308
0.16111
0.000165492
0.161007
0.000157021
0.160904
0.000153202
0.1608
0.000151783
0.160696
0.000151918
0.16059
0.000153085
0.160483
0.000154838
0.160374
0.000156852
0.160264
0.000158918
0.160153
0.000160907
0.16004
0.000162739
0.159926
0.000164358
0.15981
0.000165734
0.159694
0.000166845
0.159577
0.000167678
0.159459
0.000168224
0.159341
0.000168475
0.159222
0.000168418
0.159103
0.000168041
0.158985
0.000167316
0.158867
0.000166207
0.15875
0.000164643
0.158634
0.000162512
0.158519
0.000159623
0.158407
0.000155643
0.158297
0.000149975
0.15819
0.000141646
0.158087
0.000128623
0.000111134
0.157395
0.000275233
-0.157488
0.157288
0.000271709
0.157175
0.000270779
0.157055
0.000272376
0.156932
0.000275474
0.156804
0.000279546
0.156673
0.0002843
0.156538
0.000289446
0.1564
0.000294727
0.156259
0.000299946
0.156115
0.000304959
0.155968
0.000309662
0.155819
0.00031398
0.155667
0.000317856
0.155512
0.000321251
0.155356
0.000324137
0.155198
0.000326488
0.155038
0.00032829
0.154877
0.000329517
0.154715
0.000330147
0.154552
0.000330148
0.154388
0.000329465
0.154225
0.00032802
0.154062
0.000325689
0.153899
0.00032228
0.153737
0.0003175
0.153576
0.000310904
0.153416
0.000301929
0.153255
0.000289592
0.000274089
0.153283
0.000358697
-0.153367
0.153188
0.000367227
0.153082
0.000376155
0.152969
0.000385956
0.152848
0.000396338
0.152721
0.000407029
0.152587
0.00041786
0.152448
0.000428664
0.152303
0.000439266
0.152154
0.000449518
0.151999
0.000459296
0.15184
0.000468503
0.151677
0.000477062
0.15151
0.00048491
0.15134
0.000492004
0.151165
0.000498303
0.150988
0.00050378
0.150808
0.000508406
0.150625
0.000512158
0.150441
0.000515007
0.150254
0.000516918
0.150065
0.00051784
0.149876
0.000517702
0.149685
0.0005164
0.149493
0.000513783
0.149301
0.000509647
0.149109
0.000503713
0.148915
0.000495678
0.148719
0.000485066
0.000471979
0.14893
0.000423584
-0.148995
0.148854
0.000443744
0.148766
0.000463352
0.14867
0.000482836
0.148564
0.000502182
0.148449
0.000521267
0.148327
0.000539979
0.148198
0.00055821
0.148061
0.000575841
0.147918
0.000592755
0.147768
0.000608857
0.147613
0.000624061
0.147452
0.000638298
0.147285
0.000651506
0.147113
0.000663639
0.146937
0.000674659
0.146756
0.000684533
0.146571
0.000693233
0.146383
0.000700736
0.146191
0.000707015
0.145996
0.00071204
0.145798
0.00071577
0.145597
0.000718155
0.145395
0.000719119
0.14519
0.000718568
0.144983
0.000716374
0.144774
0.000712387
0.144564
0.000706459
0.14435
0.000698409
0.000688378
0.144399
0.000465555
-0.144441
0.144345
0.000497279
0.14428
0.000527982
0.144205
0.000557949
0.14412
0.000587239
0.144026
0.000615798
0.143922
0.000643547
0.14381
0.0006704
0.14369
0.000696266
0.143561
0.000721052
0.143425
0.000744673
0.143283
0.000767052
0.143133
0.000788124
0.142976
0.000807832
0.142814
0.000826129
0.142646
0.000842976
0.142472
0.000858342
0.142293
0.000872199
0.142109
0.000884529
0.141921
0.000895309
0.141728
0.000904518
0.141532
0.000912134
0.141332
0.000918126
0.141129
0.000922454
0.140922
0.000925072
0.140712
0.000925922
0.1405
0.000924942
0.140284
0.000922098
0.140065
0.000917363
0.000910918
0.139761
0.00048379
-0.139779
0.139731
0.000527089
0.13969
0.000569083
0.139638
0.000609931
0.139576
0.000649693
0.139503
0.000688341
0.139421
0.000725809
0.139329
0.000762022
0.139229
0.000796896
0.139119
0.00083035
0.139002
0.000862304
0.138876
0.000892686
0.138743
0.000921428
0.138602
0.000948473
0.138454
0.000973776
0.1383
0.000997293
0.138139
0.001019
0.137973
0.00103886
0.1378
0.00105687
0.137623
0.00107301
0.13744
0.00108727
0.137252
0.00109964
0.13706
0.00111012
0.136864
0.0011187
0.136664
0.00112538
0.13646
0.00113014
0.136252
0.00113301
0.13604
0.00113401
0.135824
0.00113321
0.00113079
0.135087
0.000479739
-0.135083
0.135079
0.000534553
0.135061
0.000587856
0.135031
0.000639721
0.13499
0.000690183
0.13494
0.000739216
0.134879
0.000786755
0.134808
0.000832726
0.134728
0.000877048
0.134638
0.000919633
0.13454
0.000960412
0.134434
0.000999313
0.134319
0.00103626
0.134196
0.00107119
0.134066
0.00110406
0.133928
0.00113483
0.133784
0.00116346
0.133633
0.00118993
0.133475
0.00121423
0.133312
0.00123635
0.133143
0.00125629
0.132969
0.00127406
0.132789
0.00128968
0.132605
0.00130317
0.132415
0.00131456
0.132222
0.00132389
0.132023
0.00133122
0.131821
0.00133663
0.131614
0.00134022
0.0013422
0.130437
0.000456099
-0.130414
0.13045
0.000522271
0.130451
0.000586768
0.130441
0.000649605
0.13042
0.00071079
0.130389
0.00077028
0.130348
0.000828007
0.130297
0.000883892
0.130236
0.000937852
0.130166
0.0009898
0.130087
0.00103965
0.129999
0.00108732
0.129902
0.00113276
0.129797
0.00117589
0.129685
0.00121666
0.129565
0.00125502
0.129437
0.00129093
0.129303
0.00132438
0.129162
0.00135536
0.129014
0.00138386
0.12886
0.00140989
0.128701
0.00143348
0.128536
0.00145467
0.128366
0.0014735
0.12819
0.00149003
0.12801
0.00150435
0.127824
0.00151655
0.127634
0.00152674
0.127439
0.00153507
0.00154173
0.125861
0.000416113
-0.125821
0.12589
0.000493404
0.125908
0.000568887
0.125915
0.000642534
0.125912
0.000714321
0.125898
0.000784189
0.125874
0.000852061
0.12584
0.00091785
0.125796
0.000981463
0.125743
0.00104281
0.125681
0.0011018
0.12561
0.00115835
0.12553
0.00121237
0.125442
0.00126381
0.125347
0.00131261
0.125243
0.00135871
0.125132
0.00140207
0.125013
0.00144269
0.124888
0.00148053
0.124756
0.00151562
0.124618
0.00154796
0.124474
0.00157759
0.124324
0.00160457
0.124169
0.00162898
0.124008
0.0016509
0.123842
0.00167044
0.123671
0.00168773
0.123495
0.00170292
0.123313
0.00171617
0.00172768
0.121397
0.000363104
-0.121344
0.121439
0.000451231
0.12147
0.000537433
0.121491
0.00062165
0.121502
0.000703834
0.121502
0.000783905
0.121492
0.000861773
0.121473
0.000937339
0.121444
0.0010105
0.121405
0.00108117
0.121358
0.00114924
0.121302
0.00121461
0.121237
0.0012772
0.121164
0.00133695
0.121083
0.00139377
0.120994
0.00144762
0.120897
0.00149846
0.120794
0.00154625
0.120683
0.001591
0.120566
0.00163272
0.120443
0.00167143
0.120313
0.00170717
0.120178
0.00174002
0.120037
0.00177007
0.11989
0.00179744
0.119738
0.00182227
0.119581
0.00184472
0.119419
0.00186497
0.119252
0.0018832
0.00189962
0.11707
0.000300199
-0.117008
0.117123
0.000398855
0.117165
0.000495483
0.117196
0.000589997
0.117218
0.000682323
0.117229
0.000772367
0.117231
0.00086002
0.117223
0.000945172
0.117206
0.00102772
0.11718
0.00110754
0.117144
0.00118454
0.1171
0.00125861
0.117048
0.00132965
0.116987
0.0013976
0.116919
0.00146235
0.116843
0.00152387
0.116759
0.0015821
0.116668
0.00163701
0.116571
0.00168858
0.116466
0.00173686
0.116356
0.00178187
0.11624
0.00182365
0.116117
0.00186231
0.115989
0.00189794
0.115856
0.00193069
0.115718
0.00196074
0.115574
0.00198828
0.115426
0.00201352
0.115272
0.00203668
0.00205798
0.1129
0.000230174
-0.11283
0.11296
0.000339056
0.11301
0.000445817
0.11305
0.000550345
0.113079
0.000652547
0.113099
0.000752309
0.11311
0.000849508
0.113111
0.000944021
0.113103
0.00103573
0.113086
0.00112451
0.11306
0.00121025
0.113026
0.00129283
0.112984
0.00137216
0.112933
0.00144813
0.112875
0.00152066
0.112809
0.00158969
0.112736
0.00165517
0.112656
0.00171705
0.112569
0.00177533
0.112476
0.00183001
0.112377
0.00188114
0.112272
0.00192881
0.112161
0.0019731
0.112045
0.00201415
0.111923
0.00205212
0.111797
0.00208721
0.111665
0.00211967
0.111529
0.00214973
0.111388
0.00217766
0.0022037
0.108898
0.000155393
-0.108823
0.108963
0.000274222
0.109018
0.000390837
0.109063
0.000505109
0.109099
0.000616926
0.109125
0.000726154
0.109142
0.000832656
0.109149
0.000936298
0.109148
0.00103694
0.109138
0.00113446
0.10912
0.00122873
0.109093
0.00131962
0.109058
0.00140702
0.109015
0.00149083
0.108965
0.00157095
0.108907
0.00164731
0.108843
0.00171984
0.108771
0.00178851
0.108693
0.00185328
0.108609
0.00191418
0.108519
0.00197125
0.108423
0.00202456
0.108322
0.00207424
0.108216
0.00212045
0.108105
0.00216338
0.107989
0.00220326
0.107868
0.00224036
0.107743
0.00227499
0.107613
0.00230746
0.00233803
0.105068
7.78087e-05
-0.104991
0.105136
0.000206335
0.105195
0.000332557
0.105243
0.000456329
0.105283
0.00057752
0.105313
0.00069598
0.105334
0.000811557
0.105346
0.000924102
0.10535
0.00103347
0.105345
0.00113951
0.105331
0.0012421
0.10531
0.00134109
0.105281
0.00143636
0.105244
0.00152779
0.105199
0.00161529
0.105148
0.00169877
0.105089
0.00177815
0.105025
0.00185338
0.104953
0.00192444
0.104876
0.00199133
0.104793
0.00205408
0.104705
0.0021128
0.104612
0.00216759
0.104514
0.00221865
0.104411
0.0022662
0.104304
0.00231053
0.104192
0.00235195
0.104076
0.00239082
0.103956
0.0024275
0.00246235
0.101413
-1.01404e-06
-0.101335
0.101483
0.000136999
0.101543
0.000272617
0.101593
0.000405679
0.101635
0.000536036
0.101667
0.000663522
0.101691
0.000787969
0.101706
0.000909216
0.101712
0.0010271
0.10171
0.00114147
0.1017
0.00125218
0.101682
0.00135907
0.101656
0.00146201
0.101623
0.00156087
0.101583
0.00165555
0.101536
0.00174593
0.101482
0.00183194
0.101422
0.00191352
0.101356
0.00199063
0.101284
0.00206326
0.101206
0.00213145
0.101124
0.00219528
0.101037
0.00225488
0.100945
0.00231046
0.100849
0.00236226
0.100749