/*--------------------------------*- C++ -*----------------------------------*\
  =========                 |
  \\      /  F ield         | OpenFOAM: The Open Source CFD Toolbox
   \\    /   O peration     | Website:  https://openfoam.org
    \\  /    A nd           | Version:  6.0
     \\/     M anipulation  |
\*---------------------------------------------------------------------------*/
FoamFile
{
    version     2.0;
    format      ascii;
    class       volVectorField;
    location    "16.25";
    object      U;
}
// * * * * * * * * * * * * * * * * * * * * * * * * * * * * * * * * * * * * * //

dimensions      [0 1 -1 0 0 0 0];

internalField   nonuniform List<vector> 
9600
(
(0.964058 -14.1737 -2.31452e-20)
(0.263508 -13.3586 -2.56812e-20)
(0.303424 -12.7942 4.35154e-21)
(0.408125 -12.3449 -1.74049e-20)
(0.465208 -11.9488 8.24029e-21)
(0.514491 -11.5692 -6.89264e-21)
(0.560294 -11.192 -1.44995e-20)
(0.599437 -10.8151 1.42473e-20)
(0.632022 -10.4413 5.2048e-21)
(0.659146 -10.0746 -7.85513e-20)
(0.68181 -9.71852 4.41524e-20)
(0.700895 -9.37603 -3.91414e-20)
(0.717165 -9.04893 -1.79709e-20)
(0.731252 -8.7382 2.49816e-20)
(0.743669 -8.44412 -1.65902e-20)
(0.754812 -8.16639 -8.90877e-21)
(0.764963 -7.90416 1.66528e-20)
(0.774593 -7.65592 -1.98362e-20)
(0.784647 -7.41935 -5.24306e-21)
(0.79306 -7.19134 -1.08175e-20)
(1.52031 -14.1409 -2.52987e-19)
(0.791711 -13.3801 -1.39119e-19)
(0.810519 -12.8304 6.78972e-20)
(0.8975 -12.3851 -9.25747e-20)
(0.93843 -11.9895 2.2193e-20)
(0.971845 -11.6074 -2.75195e-20)
(1.00166 -11.226 1.19461e-19)
(1.02477 -10.8446 -1.68737e-21)
(1.04147 -10.4664 -7.81082e-20)
(1.05308 -10.0958 1.03227e-19)
(1.06076 -9.73647 5.36715e-20)
(1.06553 -9.39133 -3.70154e-21)
(1.06821 -9.06214 6.75992e-20)
(1.06945 -8.74981 -3.378e-21)
(1.06977 -8.45454 2.75089e-20)
(1.06952 -8.176 7.29676e-20)
(1.06894 -7.91329 2.8155e-20)
(1.06849 -7.66489 4.26448e-20)
(1.0692 -7.42835 -2.10273e-20)
(1.06849 -7.20052 4.25724e-20)
(2.07663 -14.0875 4.11083e-19)
(1.32174 -13.3811 2.9442e-19)
(1.32049 -12.8464 -4.30405e-19)
(1.39017 -12.4054 -2.09913e-19)
(1.41495 -12.0106 1.68207e-19)
(1.43227 -11.6264 3.08186e-19)
(1.44576 -11.2415 -3.77904e-19)
(1.45246 -10.8561 9.8275e-20)
(1.45292 -10.4742 -1.82509e-19)
(1.44871 -10.1003 -1.29839e-19)
(1.44117 -9.73843 1.17257e-19)
(1.43142 -9.39131 -6.46048e-20)
(1.42035 -9.06066 -1.8277e-19)
(1.40864 -8.74732 1.00197e-19)
(1.39677 -8.45141 -3.24173e-20)
(1.38508 -8.17255 -3.94613e-21)
(1.37374 -7.90985 3.92389e-20)
(1.3632 -7.66173 8.07715e-20)
(1.3546 -7.42566 -9.88884e-20)
(1.34464 -7.19853 8.13002e-20)
(2.63054 -14.0127 -2.27031e-19)
(1.85246 -13.3613 1.07702e-19)
(1.83235 -12.8419 1.43105e-19)
(1.88518 -12.4055 2.10713e-19)
(1.89387 -12.0119 -6.57176e-20)
(1.89488 -11.6261 6.85544e-20)
(1.89172 -11.2382 -4.65869e-20)
(1.88167 -10.8494 1.08794e-19)
(1.86559 -10.4645 2.53632e-19)
(1.84529 -10.0881 -1.50096e-19)
(1.82231 -9.72436 -9.29081e-20)
(1.79788 -9.37593 -1.06679e-19)
(1.77295 -9.04447 -4.0178e-20)
(1.7482 -8.73071 9.07141e-20)
(1.7241 -8.43471 -5.71873e-20)
(1.70094 -8.15605 -1.97314e-19)
(1.67883 -7.89382 1.53644e-19)
(1.65825 -7.64643 -1.03585e-19)
(1.64037 -7.41126 -1.20803e-20)
(1.62111 -7.18536 -9.85934e-21)
(3.18198 -13.9166 -2.91128e-19)
(2.38355 -13.3208 -5.27849e-19)
(2.3455 -12.8168 6.2674e-19)
(2.38179 -12.3853 -1.74546e-19)
(2.37437 -11.9932 -5.26409e-19)
(2.35884 -11.6063 -1.16807e-20)
(2.33872 -11.2159 -2.03071e-19)
(2.3116 -10.8245 -5.77783e-20)
(2.27869 -10.4372 -1.58423e-19)
(2.24206 -10.0591 3.76453e-19)
(2.20347 -9.69415 -5.208e-19)
(2.16424 -9.3451 1.33695e-19)
(2.12536 -9.01349 -2.28808e-19)
(2.08752 -8.69992 3.12144e-19)
(2.05116 -8.40439 -2.91756e-19)
(2.01653 -8.12642 1.56601e-19)
(1.98368 -7.86514 -9.28941e-20)
(1.95311 -7.61893 2.54458e-20)
(1.92604 -7.3851 1.01784e-19)
(1.89744 -7.16098 -1.12589e-20)
(3.72989 -13.7991 8.00326e-20)
(2.91409 -13.2593 4.97033e-19)
(2.85908 -12.771 3.26431e-19)
(2.87909 -12.3446 -2.24635e-19)
(2.85554 -11.9543 5.81371e-19)
(2.82327 -11.5667 9.12746e-20)
(2.7859 -11.1745 4.9572e-21)
(2.74142 -10.7811 -2.67441e-19)
(2.69142 -10.3923 5.22055e-20)
(2.63828 -10.0131 3.67569e-19)
(2.58392 -9.64777 -1.76891e-19)
(2.5298 -9.29882 3.31509e-19)
(2.47692 -8.96771 -8.65962e-20)
(2.42596 -8.65495 -7.6087e-20)
(2.37735 -8.36044 1.67643e-19)
(2.33127 -8.0837 1.86708e-19)
(2.28773 -7.82383 -1.03221e-19)
(2.24725 -7.57925 8.28404e-20)
(2.21108 -7.3472 -2.30359e-19)
(2.17317 -7.12542 2.94185e-19)
(4.27354 -13.6603 6.82184e-19)
(3.44334 -13.1767 -8.5574e-19)
(3.37228 -12.7042 -7.53651e-19)
(3.37624 -12.2831 8.03011e-19)
(3.33652 -11.8951 -2.67396e-19)
(3.28729 -11.5074 -4.05696e-19)
(3.23238 -11.1139 3.80188e-19)
(3.17028 -10.7193 2.06231e-20)
(3.10297 -10.3296 1.35797e-19)
(3.03315 -9.95023 -4.3818e-19)
(2.96293 -9.58519 2.23251e-19)
(2.89385 -9.23706 -1.84255e-19)
(2.82695 -8.90713 5.23349e-19)
(2.76289 -8.59581 -2.87825e-19)
(2.70205 -8.3029 2.00908e-20)
(2.64457 -8.02789 -4.08195e-20)
(2.5904 -7.76992 -4.08046e-20)
(2.54012 -7.5274 7.0481e-20)
(2.49499 -7.29758 4.71316e-20)
(2.44781 -7.0787 -5.15233e-20)
(4.81205 -13.5003 -9.91618e-19)
(3.9704 -13.0729 5.712e-19)
(3.88422 -12.6164 1.1939e-19)
(3.87235 -12.2008 -2.0596e-20)
(3.8164 -11.8154 -3.26409e-21)
(3.75 -11.428 2.82415e-19)
(3.67731 -11.034 -7.48591e-19)
(3.59734 -10.6389 -8.30183e-20)
(3.51254 -10.2492 -1.61495e-19)
(3.42591 -9.87038 2.00852e-19)
(3.33976 -9.50644 1.16127e-20)
(3.25569 -9.15986 2.05894e-19)
(3.17478 -8.8318 -1.44287e-20)
(3.09766 -8.52254 -4.93664e-19)
(3.02464 -8.23181 -1.14004e-19)
(2.95582 -7.95906 4.469e-19)
(2.89112 -7.70347 -1.67367e-19)
(2.83116 -7.46346 -4.17074e-20)
(2.77719 -7.23629 -7.0344e-21)
(2.72085 -7.02091 3.08296e-20)
(5.34459 -13.3191 6.3157e-19)
(4.49441 -12.9478 -6.28684e-19)
(4.394 -12.5073 -9.40473e-19)
(4.3665 -12.0975 -1.33585e-19)
(4.29427 -11.7151 -4.10295e-19)
(4.2105 -11.3287 -1.27808e-19)
(4.11979 -10.9349 -4.11881e-19)
(4.02175 -10.54 7.51794e-19)
(3.91931 -10.1511 -3.22037e-19)
(3.81578 -9.77362 -1.60767e-19)
(3.71365 -9.41157 -7.16137e-20)
(3.61461 -9.06728 2.21137e-19)
(3.51973 -8.74178 -1.89047e-21)
(3.42959 -8.43522 -7.56118e-20)
(3.34448 -8.14725 -1.64816e-19)
(3.2644 -7.87729 -1.97325e-19)
(3.18926 -7.62455 2.81106e-19)
(3.11975 -7.3875 1.16078e-19)
(3.05713 -7.16342 -5.07771e-19)
(2.99175 -6.95215 4.56758e-20)
(5.87031 -13.1169 -6.39825e-19)
(5.01449 -12.8015 1.47436e-18)
(4.90073 -12.3771 -1.11425e-18)
(4.85778 -11.9733 6.96086e-19)
(4.76919 -11.5942 8.86231e-19)
(4.66789 -11.2094 -3.16792e-19)
(4.55894 -10.8164 5.4731e-21)
(4.44265 -10.4227 8.21599e-20)
(4.32245 -10.0353 3.21994e-19)
(4.20197 -9.66001 -3.28225e-19)
(4.08386 -9.30063 -2.02516e-19)
(3.96988 -8.95938 2.176e-19)
(3.86108 -8.63713 -1.10991e-20)
(3.75801 -8.33392 3.56427e-20)
(3.66089 -8.04931 4.10305e-19)
(3.56967 -7.78268 -2.08251e-19)
(3.4842 -7.53329 3.871e-20)
(3.40529 -7.29963 -2.5512e-19)
(3.33417 -7.07909 6.8375e-19)
(3.25992 -6.87254 3.60652e-19)
(6.38838 -12.8939 9.22319e-19)
(5.52976 -12.634 1.9477e-19)
(5.40347 -12.2256 4.38103e-19)
(5.34525 -11.828 -4.75337e-19)
(5.24026 -11.4528 1.11914e-19)
(5.12124 -11.0701 9.43894e-19)
(4.99388 -10.6787 -1.50889e-19)
(4.8592 -10.2869 6.96942e-19)
(4.72116 -9.90196 -4.55364e-19)
(4.5837 -9.52965 2.64218e-19)
(4.44964 -9.17374 6.07222e-19)
(4.32078 -8.83627 -1.83436e-19)
(4.19815 -8.51798 3.05154e-19)
(4.08225 -8.21877 -8.12275e-20)
(3.97322 -7.93809 -4.09003e-19)
(3.87095 -7.67534 5.76132e-19)
(3.77529 -7.42979 -1.56587e-19)
(3.68711 -7.19997 5.80105e-19)
(3.60766 -6.9834 7.13629e-20)
(3.52472 -6.78221 -8.56936e-19)
(6.89797 -12.6504 -2.80041e-18)
(6.03932 -12.4454 4.79936e-19)
(5.90133 -12.0529 -3.61967e-19)
(5.82799 -11.6618 -1.19121e-18)
(5.70653 -11.2908 -2.1228e-19)
(5.56965 -10.9109 -2.28333e-19)
(5.42373 -10.5219 -7.34109e-20)
(5.27055 -10.1328 -4.81723e-19)
(5.11462 -9.75114 -2.57027e-19)
(4.96019 -9.38266 -5.76931e-20)
(4.81023 -9.031 -1.58828e-19)
(4.66658 -8.69806 2.66855e-19)
(4.53023 -8.38443 1.7214e-19)
(4.40161 -8.08986 -8.69079e-19)
(4.2808 -7.81374 3.64177e-19)
(4.1676 -7.55541 -3.96392e-19)
(4.06184 -7.31421 -2.47667e-19)
(3.96455 -7.08868 2.14507e-19)
(3.87693 -6.87651 1.15974e-19)
(3.78553 -6.68128 -2.35263e-19)
(7.3983 -12.3866 3.57802e-18)
(6.54231 -12.2358 1.68782e-18)
(6.39337 -11.8591 8.10492e-19)
(6.30506 -11.4746 8.01704e-19)
(6.16709 -11.1084 -3.66562e-19)
(6.01222 -10.7319 2.01883e-18)
(5.8476 -10.3461 -8.90634e-19)
(5.67587 -9.9605 1.7229e-18)
(5.50204 -9.58299 -6.66611e-19)
(5.33068 -9.21916 1.21756e-18)
(5.1649 -8.87254 5.7907e-19)
(5.00655 -8.54487 3.52874e-19)
(4.8566 -8.23659 -8.70484e-19)
(4.71538 -7.94733 7.60177e-19)
(4.5829 -7.67638 -1.83795e-19)
(4.4589 -7.42306 5.87252e-19)
(4.34319 -7.18673 1.55065e-19)
(4.23692 -6.96597 7.01945e-19)
(4.14134 -6.75864 -1.56919e-19)
(4.04179 -6.56998 -1.15923e-20)
(7.88859 -12.1028 -1.85182e-18)
(7.03786 -12.0054 9.60435e-19)
(6.8787 -11.6444 1.88638e-19)
(6.77555 -11.2667 -1.40556e-18)
(6.62102 -10.9057 -9.92097e-20)
(6.44805 -10.5333 -2.44307e-20)
(6.26466 -10.1514 3.03451e-19)
(6.07433 -9.77023 -4.48306e-19)
(5.88262 -9.39768 1.63414e-19)
(5.69441 -9.03931 2.12591e-19)
(5.51291 -8.6985 -3.43467e-19)
(5.33999 -8.37682 -2.41498e-19)
(5.17654 -8.07457 1.33717e-19)
(5.02284 -7.79126 -2.46258e-19)
(4.87878 -7.5261 7.60921e-19)
(4.74406 -7.27837 -8.0579e-19)
(4.6185 -7.04748 -5.15046e-19)
(4.50342 -6.83199 7.426e-19)
(4.40008 -6.63001 -2.8433e-19)
(4.29271 -6.44874 -3.83176e-19)
(8.36811 -11.7994 -9.49376e-19)
(7.52514 -11.7544 -1.07201e-18)
(7.35641 -11.4088 -2.74845e-19)
(7.23854 -11.0382 1.4569e-18)
(7.06742 -10.6828 -6.46063e-19)
(6.87627 -10.3152 6.45154e-20)
(6.67406 -9.93814 -1.7087e-18)
(6.46513 -9.56217 2.54791e-19)
(6.25562 -9.19542 -3.99702e-19)
(6.05066 -8.8433 3.37053e-19)
(5.85358 -8.50904 -7.8182e-19)
(5.66621 -8.19405 3.41033e-19)
(5.48939 -7.89848 -5.00583e-19)
(5.32328 -7.62173 3.11748e-19)
(5.1677 -7.36294 2.07726e-19)
(5.02227 -7.12137 -2.00177e-19)
(4.88684 -6.89644 -9.00139e-19)
(4.76294 -6.68672 5.04035e-19)
(4.65184 -6.49072 -2.16998e-19)
(4.53674 -6.31792 9.25797e-20)
(8.83618 -11.4768 3.50355e-18)
(8.00331 -11.483 -6.97704e-19)
(7.82558 -11.1527 -9.90969e-19)
(7.69313 -10.7894 4.18884e-19)
(7.50541 -10.4402 5.93587e-19)
(7.29603 -10.078 -8.50494e-19)
(7.07497 -9.70647 5.62406e-19)
(6.84751 -9.33656 -7.79911e-19)
(6.6203 -8.97642 9.97015e-19)
(6.39875 -8.63133 -1.05436e-18)
(6.18624 -8.30434 4.86174e-19)
(5.98459 -7.9967 -8.13988e-20)
(5.79454 -7.70843 -7.73783e-20)
(5.61614 -7.43883 -5.632e-19)
(5.44909 -7.18696 8.8205e-19)
(5.29293 -6.95208 -1.93483e-20)
(5.14752 -6.73361 -7.10948e-20)
(5.01454 -6.53017 -1.47992e-20)
(4.8952 -6.34075 -3.13109e-20)
(4.77205 -6.17695 -2.80333e-19)
(9.29235 -11.1355 -2.88305e-18)
(8.47164 -11.1917 -4.21552e-19)
(8.28534 -10.8763 -5.29243e-19)
(8.1384 -10.5205 -3.13744e-18)
(7.93409 -10.1778 -1.65893e-18)
(7.70646 -9.82188 1.93338e-18)
(7.46659 -9.45668 -6.86091e-19)
(7.22069 -9.09365 3.53637e-19)
(6.97594 -8.74091 5.41066e-19)
(6.73797 -8.40359 1.44247e-19)
(6.51021 -8.08455 3.64732e-19)
(6.29446 -7.78489 -1.74671e-19)
(6.09133 -7.50451 5.04934e-19)
(5.90078 -7.24264 -4.26581e-19)
(5.72241 -6.99829 1.62265e-19)
(5.55563 -6.77072 -1.16297e-18)
(5.4003 -6.55939 7.66022e-19)
(5.25815 -6.36282 4.97328e-19)
(5.13034 -6.18026 5.41983e-19)
(4.99927 -6.02485 -1.16268e-19)
(9.73658 -10.7763 1.31017e-18)
(8.92968 -10.8809 1.09589e-18)
(8.7349 -10.5798 8.99541e-19)
(8.57348 -10.2316 2.80899e-18)
(8.35259 -9.8962 -2.62116e-18)
(8.10673 -9.54713 6.97183e-19)
(7.84813 -9.18909 -1.29132e-21)
(7.58395 -8.83376 -7.33213e-19)
(7.32187 -8.48919 7.32202e-19)
(7.0677 -8.16031 -1.88406e-19)
(6.82491 -7.8498 -2.27221e-19)
(6.59517 -7.55863 -1.14125e-19)
(6.37901 -7.28662 2.5119e-19)
(6.17629 -7.03297 8.44803e-21)
(5.9865 -6.79673 -4.27802e-19)
(5.80909 -6.57725 -5.11197e-19)
(5.64403 -6.37398 -6.95217e-19)
(5.49335 -6.1851 3.72355e-19)
(5.35818 -6.00994 -4.88012e-19)
(5.22107 -5.86457 1.16996e-19)
(10.1691 -10.3999 -1.76558e-19)
(9.37711 -10.5504 -2.37247e-18)
(9.17358 -10.2634 -2.20399e-19)
(8.9975 -9.92329 -3.87256e-20)
(8.76006 -9.59565 4.80198e-19)
(8.49606 -9.25425 1.66835e-18)
(8.2189 -8.9042 -4.80297e-19)
(7.93669 -8.55736 -7.50537e-19)
(7.65758 -8.22167 7.2122e-20)
(7.38753 -7.90183 3.22825e-19)
(7.12996 -7.60033 -3.0083e-19)
(6.88641 -7.318 -3.32021e-19)
(6.65721 -7.05457 -9.17139e-20)
(6.44199 -6.80928 2.775e-19)
(6.24009 -6.5813 -1.28139e-18)
(6.05089 -6.37017 6.10771e-19)
(5.87482 -6.17528 2.17142e-19)
(5.71468 -5.99463 -2.74124e-19)
(5.57166 -5.82983 2.97997e-19)
(5.4285 -5.70489 4.61172e-19)
(10.5884 -10.0049 9.25656e-19)
(9.81285 -10.1996 2.30373e-18)
(9.60055 -9.9271 3.24839e-19)
(9.40969 -9.59595 -2.27456e-19)
(9.15578 -9.27689 1.54304e-18)
(8.87383 -8.94396 -4.23238e-19)
(8.57836 -8.6027 -5.09976e-19)
(8.27845 -8.26511 1.30844e-18)
(7.98271 -7.93896 -8.15086e-19)
(7.69721 -7.62871 3.87373e-19)
(7.42531 -7.33661 -5.85475e-20)
(7.16838 -7.06331 -9.98475e-20)
(6.92644 -6.80844 -4.31222e-19)
(6.69877 -6.57118 5.53913e-19)
(6.48423 -6.35077 -1.29828e-18)
(6.28168 -6.14675 6.18581e-19)
(6.09121 -5.95837 -1.82985e-19)
(5.91501 -5.7849 -4.40874e-20)
(5.75205 -5.63475 5.78371e-19)
(5.58898 -5.53826 -9.69993e-19)
(14.8717 0.421454 1.67453e-19)
(14.8598 -0.164859 -5.33449e-20)
(14.8249 -0.748539 -2.8524e-19)
(14.7681 -1.32913 7.68594e-19)
(14.6893 -1.90607 -8.6028e-19)
(14.5882 -2.4786 -3.89897e-19)
(14.4647 -3.04592 3.00352e-19)
(14.3192 -3.60721 4.20555e-19)
(14.1519 -4.16167 -3.18196e-19)
(13.9632 -4.7085 3.16828e-19)
(13.7534 -5.24688 -1.12792e-20)
(13.5228 -5.77603 1.43074e-20)
(13.272 -6.29515 -2.19192e-19)
(13.0013 -6.80349 1.00698e-18)
(12.7111 -7.30032 -1.00111e-18)
(12.4022 -7.7849 6.93962e-19)
(12.0748 -8.25664 -9.70475e-19)
(11.73 -8.71477 2.35315e-18)
(11.3671 -9.15935 -1.72692e-19)
(10.9898 -9.58861 7.33268e-20)
(14.7381 -0.286107 -3.16203e-20)
(14.6927 -0.864197 -1.83553e-19)
(14.6234 -1.43814 3.58267e-19)
(14.531 -2.0073 5.76667e-19)
(14.4159 -2.5711 -1.5376e-19)
(14.2782 -3.12873 -7.74619e-19)
(14.1182 -3.67932 1.38578e-18)
(13.9363 -4.22196 -2.86271e-19)
(13.733 -4.75583 -1.60126e-18)
(13.5087 -5.28008 7.6683e-19)
(13.264 -5.7939 2.60869e-19)
(12.9993 -6.29649 1.45628e-18)
(12.7153 -6.7871 -2.76116e-18)
(12.4125 -7.26497 3.97997e-20)
(12.0914 -7.72941 6.98568e-19)
(11.7529 -8.17974 1.11211e-18)
(11.3972 -8.61537 5.15413e-19)
(11.0255 -9.0357 -6.96907e-19)
(10.6372 -9.44034 -1.54208e-18)
(10.2339 -9.82851 1.54183e-18)
(14.4482 -0.273097 1.0837e-19)
(14.4075 -0.836982 -1.28226e-19)
(14.3429 -1.39761 8.79386e-20)
(14.2547 -1.95403 -2.60918e-19)
(14.1433 -2.50543 3.30309e-19)
(14.0091 -3.05088 8.12532e-19)
(13.8525 -3.58942 -8.75607e-19)
(13.6738 -4.1201 1.37036e-19)
(13.4737 -4.642 5.78967e-19)
(13.2525 -5.15425 1.21278e-18)
(13.0108 -5.65599 -2.85764e-19)
(12.7493 -6.1464 2.03946e-18)
(12.4684 -6.62466 1.03473e-19)
(12.1689 -7.09001 -2.19465e-18)
(11.8513 -7.54171 -2.95666e-19)
(11.5163 -7.97907 4.87747e-19)
(11.1646 -8.40142 -1.22625e-18)
(10.7967 -8.80809 -5.88492e-19)
(10.413 -9.19849 -1.05179e-18)
(10.0144 -9.57178 1.15382e-18)
(14.0157 -0.206998 3.4874e-20)
(13.9849 -0.751544 8.2639e-20)
(13.9307 -1.2939 3.21767e-20)
(13.8534 -1.83296 -7.68235e-19)
(13.753 -2.36774 4.6818e-19)
(13.6301 -2.89724 -1.4339e-19)
(13.485 -3.4205 4.4082e-19)
(13.3181 -3.93653 -2.31978e-20)
(13.1298 -4.4444 -9.04758e-19)
(12.9207 -4.9432 2.57711e-20)
(12.6912 -5.43204 -5.25238e-19)
(12.4419 -5.91007 1.31336e-19)
(12.1734 -6.37645 -2.67517e-18)
(11.8863 -6.83038 1.34542e-18)
(11.5812 -7.27109 -1.23913e-18)
(11.2589 -7.69781 -2.48072e-19)
(10.9198 -8.10983 -3.11412e-18)
(10.5647 -8.50641 3.02088e-18)
(10.1942 -8.88684 -1.44077e-18)
(9.80906 -9.25032 -9.03972e-19)
(13.5057 -0.194316 1.00928e-20)
(13.4826 -0.716807 -1.39545e-19)
(13.437 -1.23785 2.03581e-19)
(13.369 -1.75635 2.55316e-19)
(13.2788 -2.27128 -3.01544e-19)
(13.1666 -2.78164 9.6704e-19)
(13.0328 -3.28647 5.98578e-19)
(12.8777 -3.78482 -1.91943e-19)
(12.7018 -4.27575 -2.03602e-19)
(12.5054 -4.75834 6.42156e-19)
(12.2891 -5.23171 1.10392e-18)
(12.0533 -5.69498 4.25576e-19)
(11.7986 -6.14732 2.65862e-19)
(11.5256 -6.5879 -7.65478e-19)
(11.235 -7.01591 -1.81313e-18)
(10.9272 -7.43058 1.9319e-18)
(10.6031 -7.83114 2.01465e-18)
(10.2632 -8.21682 -1.43778e-18)
(9.90824 -8.58687 4.97026e-19)
(9.53891 -8.94051 -1.49352e-19)
(12.9662 -0.189388 2.49546e-20)
(12.949 -0.688888 -3.35778e-20)
(12.9105 -1.18747 -1.78731e-19)
(12.8505 -1.6841 7.96387e-20)
(12.7691 -2.17778 -9.23819e-22)
(12.6666 -2.66755 5.58621e-20)
(12.5433 -3.15247 -4.65946e-19)
(12.3995 -3.63162 3.47325e-19)
(12.2355 -4.10407 -7.00584e-19)
(12.0518 -4.56895 7.44486e-19)
(11.8487 -5.02538 -4.92743e-20)
(11.6267 -5.47249 -6.93697e-19)
(11.3864 -5.90946 2.59403e-19)
(11.1282 -6.33546 2.13592e-18)
(10.8528 -6.74969 1.22437e-18)
(10.5608 -7.15135 -8.88381e-19)
(10.2528 -7.53967 -1.29403e-18)
(9.92941 -7.91386 6.60661e-19)
(9.59137 -8.27317 -4.36916e-19)
(9.2393 -8.6168 1.32249e-18)
(12.4302 -0.184676 -1.78454e-20)
(12.4172 -0.661503 8.35312e-20)
(12.3838 -1.13777 5.41754e-20)
(12.33 -1.61254 -6.4445e-20)
(12.2559 -2.08484 2.7194e-19)
(12.1616 -2.55377 -7.62575e-19)
(12.0474 -3.01842 4.37704e-19)
(11.9135 -3.4779 -3.30755e-19)
(11.7603 -3.93135 1.20897e-20)
(11.588 -4.3779 -5.11451e-19)
(11.3972 -4.81672 7.8183e-19)
(11.1882 -5.24697 1.93863e-18)
(10.9615 -5.66784 -2.17687e-18)
(10.7176 -6.07854 -4.05181e-20)
(10.457 -6.47828 -2.01784e-18)
(10.1804 -6.86626 5.8702e-19)
(9.88839 -7.24171 -6.59893e-19)
(9.58153 -7.60385 1.88903e-21)
(9.26049 -7.95193 1.48661e-18)
(8.92588 -8.28512 -1.11007e-20)
(11.9176 -0.181722 -8.71649e-21)
(11.907 -0.636971 5.79868e-20)
(11.8771 -1.09189 1.90446e-20)
(11.8278 -1.5456 -3.21429e-19)
(11.7591 -1.99721 3.54144e-19)
(11.6713 -2.44583 -3.11605e-19)
(11.5644 -2.89062 8.89031e-19)
(11.4388 -3.33074 -9.45543e-20)
(11.2947 -3.76535 -4.7684e-19)
(11.1324 -4.19365 9.01498e-20)
(10.9522 -4.61483 -1.52481e-19)
(10.7547 -5.02811 -4.88381e-19)
(10.5402 -5.43271 -7.25153e-19)
(10.3092 -5.82786 -4.7908e-19)
(10.0623 -6.2128 -4.98273e-19)
(9.79998 -6.58677 -5.79199e-19)
(9.52285 -6.94901 -4.93885e-19)
(9.23151 -7.29873 -7.48282e-19)
(8.92662 -7.63519 9.65079e-20)
(8.6087 -7.95755 5.52371e-20)
(11.4378 -0.179885 6.6922e-21)
(11.4284 -0.615012 7.13518e-21)
(11.4007 -1.04994 -6.79643e-21)
(11.3545 -1.48384 -8.91334e-20)
(11.2899 -1.91586 -2.04595e-19)
(11.2069 -2.3452 -1.34311e-19)
(11.1059 -2.77103 -6.30023e-19)
(10.987 -3.19256 5.85411e-19)
(10.8504 -3.60903 -3.42263e-19)
(10.6964 -4.01965 7.52236e-19)
(10.5255 -4.42367 -1.4411e-19)
(10.3379 -4.82036 1.27827e-18)
(10.134 -5.20898 5.94514e-20)
(9.91443 -5.5888 1.72028e-18)
(9.6796 -5.9591 -1.19191e-18)
(9.43006 -6.31914 8.40447e-19)
(9.16643 -6.66818 1.28788e-18)
(8.88927 -7.00546 7.47617e-19)
(8.59923 -7.33023 8.01781e-19)
(8.29683 -7.64163 -1.14922e-18)
(10.9936 -0.178285 -5.39391e-20)
(10.9847 -0.594827 -1.23145e-21)
(10.9582 -1.01123 1.94189e-19)
(10.9141 -1.4267 -1.79068e-19)
(10.8524 -1.84046 1.10865e-19)
(10.7733 -2.25173 4.29783e-19)
(10.6769 -2.65975 -1.4029e-19)
(10.5634 -3.06376 -1.34528e-19)
(10.4331 -3.46304 -1.80673e-19)
(10.2861 -3.85686 3.05542e-19)
(10.1229 -4.24451 -4.36742e-19)
(9.94383 -4.62531 -9.24484e-20)
(9.74922 -4.99857 -8.01809e-19)
(9.53957 -5.3636 2.22875e-19)
(9.31538 -5.71972 3.78833e-19)
(9.07719 -6.06625 2.77538e-19)
(8.8256 -6.40246 -5.33416e-19)
(8.5612 -6.7276 1.75962e-19)
(8.28466 -7.04092 -8.03666e-19)
(7.99645 -7.34154 9.39618e-20)
(10.5839 -0.1765 5.55521e-20)
(10.5748 -0.575927 1.4868e-19)
(10.549 -0.975226 -3.32028e-19)
(10.5064 -1.37366 -2.58512e-19)
(10.4469 -1.77048 -1.33154e-19)
(10.3709 -2.16496 -3.64479e-19)
(10.2782 -2.55636 2.6038e-19)
(10.1693 -2.94399 3.27527e-19)
(10.0442 -3.32716 -7.09879e-19)
(9.90321 -3.70518 3.49453e-19)
(9.74667 -4.0774 3.56615e-19)
(9.57491 -4.44318 4.48354e-19)
(9.38832 -4.80187 -6.21269e-19)
(9.18734 -5.15285 8.71342e-19)
(8.97249 -5.49547 -7.97452e-19)
(8.74431 -5.82912 -1.34879e-19)
(8.50344 -6.15308 -2.35121e-19)
(8.25047 -6.46664 1.0163e-18)
(7.98611 -6.76901 7.8698e-19)
(7.71086 -7.05927 -3.22083e-19)
(10.2056 -0.174358 -4.80507e-20)
(10.1962 -0.558004 2.85604e-20)
(10.1707 -0.941517 2.11513e-19)
(10.1292 -1.3242 2.59596e-20)
(10.0715 -1.70533 3.03635e-19)
(9.99794 -2.08422 2.50911e-19)
(9.90849 -2.46018 -2.14962e-19)
(9.80338 -2.83256 -3.07865e-19)
(9.6828 -3.20069 2.52271e-19)
(9.54699 -3.56394 2.00465e-19)
(9.39625 -3.92169 -2.01415e-19)
(9.23091 -4.27336 8.53127e-19)
(9.05134 -4.61834 -1.27471e-18)
(8.85799 -4.95608 2.9732e-19)
(8.65138 -5.28598 3.57247e-19)
(8.43205 -5.60749 -6.18459e-19)
(8.20072 -5.91992 -1.26109e-18)
(7.95797 -6.22261 4.1361e-19)
(7.70465 -6.51471 2.53086e-19)
(7.44125 -6.79525 5.79236e-20)
(9.85507 -0.171806 -2.03703e-20)
(9.84528 -0.540848 1.83807e-20)
(9.82007 -0.909741 -9.84512e-20)
(9.77939 -1.27781 -5.83117e-20)
(9.72327 -1.64439 -1.88494e-20)
(9.65181 -2.00881 -2.28751e-19)
(9.56513 -2.37041 6.13548e-19)
(9.4634 -2.72858 2.25491e-20)
(9.34681 -3.08268 -3.21856e-21)
(9.21558 -3.43214 -5.41585e-19)
(9.06998 -3.77636 3.37654e-19)
(8.91033 -4.1148 -3.0106e-19)
(8.73701 -4.44692 5.72059e-19)
(8.55043 -4.77224 -8.60492e-19)
(8.35114 -5.0902 -2.71511e-20)
(8.13967 -5.40036 -5.21108e-19)
(7.91684 -5.70203 1.03547e-18)
(7.68324 -5.99467 -2.57988e-19)
(7.43995 -6.27731 -9.18268e-20)
(7.18744 -6.54894 -3.48325e-19)
(9.52887 -0.168855 6.22771e-20)
(9.51868 -0.524318 -4.60231e-21)
(9.49366 -0.879614 1.24713e-19)
(9.45375 -1.2341 -1.29521e-19)
(9.39898 -1.58713 1.54052e-19)
(9.32946 -1.93806 -9.27392e-20)
(9.24529 -2.28628 -3.3868e-19)
(9.14663 -2.63118 1.38842e-19)
(9.03364 -2.97219 1.27458e-19)
(8.90655 -3.30874 -1.73299e-19)
(8.76561 -3.64028 -3.19718e-19)
(8.6111 -3.96634 -1.97378e-20)
(8.44341 -4.28638 -5.62606e-19)
(8.2629 -4.60006 6.2526e-19)
(8.07017 -4.9068 3.25918e-19)
(7.86568 -5.2064 1.21493e-18)
(7.65047 -5.49804 -1.74936e-18)
(7.42502 -5.78155 4.55348e-19)
(7.19091 -6.05562 1.13817e-18)
(6.94842 -6.31936 9.02802e-19)
(9.22377 -0.165543 -4.67066e-20)
(9.21324 -0.50832 3.51836e-20)
(9.1884 -0.850912 -4.46911e-20)
(9.14922 -1.1927 -2.74445e-19)
(9.09573 -1.53306 2.77216e-19)
(9.02801 -1.87139 9.69815e-20)
(8.94618 -2.20708 2.41388e-20)
(8.85036 -2.53958 2.70879e-19)
(8.74072 -2.86831 -6.20493e-19)
(8.61745 -3.19277 4.94396e-19)
(8.4808 -3.51242 -5.27673e-20)
(8.33102 -3.82684 8.11567e-19)
(8.16846 -4.13553 -1.02272e-18)
(7.99346 -4.43827 1.02674e-21)
(7.80665 -4.73444 -5.68613e-19)
(7.60838 -5.02422 7.05654e-20)
(7.4 -5.30652 1.00435e-18)
(7.18168 -5.58188 -8.37888e-19)
(6.95602 -5.84829 -2.22756e-19)
(6.72265 -6.10546 -1.47567e-18)
(8.93704 -0.16195 1.31847e-20)
(8.92622 -0.492806 1.53875e-21)
(8.9016 -0.823465 -1.01085e-19)
(8.86315 -1.15333 4.25697e-20)
(8.81089 -1.48179 9.02997e-20)
(8.7449 -1.80828 1.29449e-19)
(8.66528 -2.13221 -5.03939e-20)
(8.57216 -2.45305 1.24645e-19)
(8.46568 -2.77025 -2.26765e-19)
(8.34602 -3.08333 1.58437e-19)
(8.21339 -3.39179 -1.15131e-19)
(8.06801 -3.69526 -5.91837e-20)
(7.91024 -3.99323 -1.13792e-19)
(7.7403 -4.28567 -8.48587e-20)
(7.5589 -4.57186 2.12495e-19)
(7.36616 -4.85249 -2.11432e-20)
(7.16388 -5.12603 -8.46583e-19)
(6.95162 -5.39434 -1.4887e-19)
(6.73384 -5.65388 8.93317e-19)
(6.5084 -5.90635 4.61496e-19)
(8.6664 -0.158197 1.76935e-21)
(8.65535 -0.477783 2.81359e-20)
(8.63098 -0.797161 -7.504e-22)
(8.59327 -1.11575 9.86336e-20)
(8.54223 -1.43297 -1.95386e-19)
(8.47794 -1.74827 -2.11082e-19)
(8.40048 -2.06109 2.87116e-19)
(8.30998 -2.3709 -1.95616e-19)
(8.20656 -2.67721 -1.0079e-20)
(8.09038 -2.97953 2.15733e-19)
(7.96164 -3.2774 8.27381e-21)
(7.8205 -3.5705 3.86987e-19)
(7.66731 -3.85832 -1.73188e-19)
(7.50214 -4.14098 -2.096e-19)
(7.32581 -4.41766 -5.79642e-19)
(7.13803 -4.68974 -4.89978e-20)
(6.94129 -4.95494 -5.73904e-19)
(6.7339 -5.2175 3.5705e-19)
(6.52363 -5.47073 5.47445e-19)
(6.30446 -5.72102 -3.26164e-19)
(8.40994 -0.154166 -2.62489e-20)
(8.39873 -0.463141 5.58717e-20)
(8.37467 -0.77189 9.29656e-20)
(8.33772 -1.07985 -1.04067e-19)
(8.28792 -1.38645 1.61225e-19)
(8.22533 -1.69117 -5.24465e-20)
(8.15004 -1.99348 -6.99817e-20)
(8.06215 -2.29287 -4.9041e-20)
(7.96179 -2.58886 -1.43105e-21)
(7.84908 -2.881 -1.32793e-19)
(7.72423 -3.16884 4.338e-20)
(7.5873 -3.4521 1.91925e-19)
(7.43868 -3.73028 4.44305e-19)
(7.27823 -4.00362 8.04732e-19)
(7.10689 -4.27117 -8.73921e-20)
(6.92371 -4.53508 9.16825e-19)
(6.73212 -4.79219 -3.85077e-19)
(6.52818 -5.05049 5.42393e-19)
(6.32512 -5.29823 3.08289e-19)
(6.1091 -5.55082 -1.73748e-19)
(8.16599 -0.149338 1.05918e-20)
(8.15472 -0.448615 -2.80506e-20)
(8.13102 -0.747664 -2.02217e-19)
(8.09488 -1.04593 -1.67192e-19)
(8.04634 -1.34287 2.00184e-19)
(7.98545 -1.63797 2.99177e-19)
(7.91231 -1.93074 1.95442e-20)
(7.82698 -2.22068 -1.69489e-19)
(7.72961 -2.50735 -2.3717e-19)
(7.62028 -2.79031 3.66997e-19)
(7.4992 -3.06915 -2.53723e-20)
(7.36635 -3.34358 -7.27277e-19)
(7.22215 -3.61314 -7.33998e-19)
(7.06616 -3.87812 2.78358e-19)
(6.89958 -4.13747 3.31298e-19)
(6.72036 -4.39391 -3.26255e-20)
(6.53327 -4.64344 -2.64825e-19)
(6.33024 -4.89886 -2.08514e-19)
(6.13294 -5.14289 -2.72537e-19)
(5.91172 -5.40982 4.50159e-19)
(7.93294 -0.145308 -3.2264e-20)
(7.92167 -0.435214 5.59142e-20)
(7.89843 -0.725081 3.50197e-20)
(7.86321 -1.01437 5.53752e-20)
(7.81601 -1.30256 -2.10094e-19)
(7.75687 -1.58917 -2.57116e-19)
(7.68586 -1.87371 -6.00256e-20)
(7.60301 -2.15574 3.17505e-19)
(7.50846 -2.4348 1.5513e-19)
(7.40221 -2.7105 7.55415e-20)
(7.28447 -2.9824 -2.86311e-19)
(7.15508 -3.25025 5.65082e-19)
(7.01456 -3.51359 -5.43005e-19)
(6.86199 -3.77265 -1.32577e-19)
(6.69909 -4.02639 -1.67952e-19)
(6.52202 -4.27761 -2.05314e-20)
(6.33782 -4.52156 -2.75669e-19)
(6.13099 -4.77482 3.50188e-19)
(5.93686 -5.01384 1.97604e-19)
(5.6978 -5.31407 -1.03204e-18)
(10.3127 10.9165 1.55992e-18)
(10.7342 10.4983 -2.34059e-18)
(11.1371 10.0647 8.04388e-19)
(11.5227 9.61734 1.8034e-18)
(11.8901 9.15598 1.34401e-19)
(12.2384 8.68073 -1.25605e-18)
(12.5669 8.19208 -2.58898e-19)
(12.875 7.69078 -1.20639e-18)
(13.1623 7.17763 -6.62185e-20)
(13.4284 6.65348 4.56762e-19)
(13.6729 6.11919 5.61589e-19)
(13.8953 5.57567 -9.02401e-19)
(14.0955 5.02386 4.62237e-19)
(14.273 4.4647 1.32131e-18)
(14.4278 3.89914 -2.35623e-19)
(14.5597 3.32819 -7.74163e-19)
(14.6685 2.75267 1.0341e-18)
(14.7543 2.1738 -6.35092e-19)
(14.8168 1.59173 -9.48474e-20)
(14.857 1.00913 -6.65088e-20)
(10.6979 10.2426 8.48745e-19)
(11.1027 9.82309 -2.49176e-18)
(11.4882 9.38738 -1.43944e-18)
(11.8547 8.93657 6.32335e-19)
(12.202 8.47101 -1.56203e-18)
(12.5294 7.99116 8.9891e-19)
(12.8362 7.49776 1.71209e-19)
(13.1218 6.99174 -1.30008e-18)
(13.3857 6.474 4.69556e-19)
(13.6275 5.94551 3.37878e-19)
(13.8467 5.40725 1.13614e-18)
(14.0429 4.86025 -9.60378e-19)
(14.2157 4.30553 -4.99512e-19)
(14.3651 3.74416 1.09294e-18)
(14.4906 3.17718 -6.311e-19)
(14.5922 2.60569 1.19044e-19)
(14.6698 2.03065 -4.00537e-19)
(14.7234 1.45323 -9.10009e-21)
(14.7527 0.87398 -1.98797e-19)
(14.7581 0.294312 5.32479e-20)
(10.391 9.88199 1.76416e-19)
(10.7904 9.48788 2.57343e-19)
(11.1723 9.07671 2.12608e-18)
(11.5361 8.64921 -6.78507e-19)
(11.8813 8.20598 2.33034e-20)
(12.2073 7.74776 1.23375e-18)
(12.5134 7.27538 -3.69309e-19)
(12.799 6.78975 -1.69607e-18)
(13.0636 6.29183 1.92798e-18)
(13.3065 5.78257 -1.16888e-18)
(13.5273 5.26294 -5.17358e-19)
(13.7255 4.73398 -8.43829e-19)
(13.9008 4.19671 4.42748e-19)
(14.0528 3.65221 -4.85155e-19)
(14.1813 3.10153 3.61412e-19)
(14.2861 2.54576 -7.64559e-19)
(14.3669 1.98592 8.03428e-19)
(14.4237 1.42315 3.33259e-19)
(14.4563 0.858283 -5.95492e-20)
(14.4646 0.2926 7.08567e-20)
(9.946 9.46079 -1.256e-18)
(10.3349 9.0938 -9.71043e-20)
(10.7081 8.70963 4.54247e-19)
(11.0647 8.30891 -1.02814e-18)
(11.4039 7.89233 1.78467e-18)
(11.7251 7.46064 5.55849e-19)
(12.0276 7.01467 -3.03906e-19)
(12.3107 6.55525 -1.08845e-19)
(12.5739 6.08325 1.47985e-18)
(12.8166 5.59958 6.10332e-19)
(13.0382 5.10517 1.2024e-18)
(13.2383 4.60099 -2.74287e-19)
(13.4165 4.08803 -1.20195e-19)
(13.5723 3.56732 -3.65052e-19)
(13.7055 3.03987 6.02298e-19)
(13.8157 2.50676 -2.94301e-19)
(13.9027 1.96899 -3.01995e-19)
(13.9664 1.42766 1.19975e-19)
(14.0066 0.883777 -7.87799e-21)
(14.0231 0.338531 -1.82434e-20)
(9.51224 8.98111 1.21621e-18)
(9.88576 8.63746 1.93719e-19)
(10.245 8.27718 -2.42014e-18)
(10.5888 7.90077 -7.52118e-19)
(10.9165 7.50888 -3.37263e-19)
(11.2274 7.10223 -1.53476e-18)
(11.5209 6.68155 -8.48547e-19)
(11.7962 6.2476 -6.30482e-19)
(12.0528 5.80119 7.62253e-19)
(12.2902 5.34315 -2.78451e-19)
(12.5077 4.87436 4.87319e-19)
(12.7048 4.39573 6.84183e-20)
(12.8812 3.90818 1.1746e-19)
(13.0365 3.41268 -1.20123e-18)
(13.1702 2.9102 -2.22107e-19)
(13.282 2.40175 1.27412e-19)
(13.3718 1.88832 -6.66703e-20)
(13.4392 1.37094 1.10129e-19)
(13.4841 0.850657 -1.31789e-19)
(13.5063 0.328537 1.80986e-20)
(9.09546 8.5146 -2.50053e-19)
(9.45206 8.1912 2.97842e-20)
(9.79539 7.85195 1.00376e-18)
(10.1245 7.49723 -2.19524e-19)
(10.4385 7.12762 6.25624e-19)
(10.7368 6.74376 -2.05393e-18)
(11.0187 6.34633 1.38401e-18)
(11.2837 5.93603 -2.50932e-19)
(11.5311 5.51361 -2.59062e-20)
(11.7605 5.07983 2.84135e-19)
(11.9712 4.63553 5.58979e-19)
(12.1627 4.18153 -9.73661e-19)
(12.3347 3.71873 4.93736e-19)
(12.4868 3.248 7.22611e-19)
(12.6185 2.77027 2.58125e-20)
(12.7295 2.28648 -2.89738e-19)
(12.8196 1.79759 -2.41061e-20)
(12.8885 1.30456 -5.99063e-20)
(12.936 0.808377 1.48232e-20)
(12.9619 0.310043 -1.20616e-20)
(8.7082 8.0838 4.38442e-19)
(9.04786 7.77785 2.74809e-19)
(9.37506 7.45686 1.65929e-19)
(9.68888 7.12113 -1.02796e-18)
(9.98854 6.77116 -9.52462e-19)
(10.2734 6.40755 2.16524e-18)
(10.5429 6.03092 2.14552e-19)
(10.7964 5.64193 2.06825e-19)
(11.0335 5.24127 6.71615e-19)
(11.2534 4.82966 -1.05255e-18)
(11.4558 4.40788 1.65271e-19)
(11.6402 3.9767 4.59294e-19)
(11.8062 3.53696 -3.33767e-19)
(11.9533 3.08948 -1.40556e-19)
(12.0812 2.63514 5.5049e-19)
(12.1896 2.17481 -1.26625e-20)
(12.2782 1.70939 -2.0175e-20)
(12.3467 1.23979 -6.47942e-20)
(12.3951 0.766953 1.05429e-20)
(12.4229 0.291796 6.58295e-20)
(8.35741 7.69266 -6.00928e-19)