/*--------------------------------*- C++ -*----------------------------------*\
  =========                 |
  \\      /  F ield         | OpenFOAM: The Open Source CFD Toolbox
   \\    /   O peration     | Website:  https://openfoam.org
    \\  /    A nd           | Version:  6.0
     \\/     M anipulation  |
\*---------------------------------------------------------------------------*/
FoamFile
{
    version     2.0;
    format      ascii;
    class       volVectorField;
    location    "10";
    object      U;
}
// * * * * * * * * * * * * * * * * * * * * * * * * * * * * * * * * * * * * * //

dimensions      [0 1 -1 0 0 0 0];

internalField   nonuniform List<vector> 
19200
(
(0.813794 -19.417 -1.00869e-19)
(0.229743 -18.628 4.92693e-20)
(0.234823 -17.9751 2.29641e-20)
(0.290007 -17.4079 2.04657e-20)
(0.310134 -16.896 2.26506e-20)
(0.329431 -16.4154 1.35596e-21)
(0.35036 -15.953 3.1865e-20)
(0.369734 -15.5022 -2.34429e-21)
(0.387009 -15.0607 2.75116e-20)
(0.402281 -14.628 1.13616e-20)
(0.415654 -14.2048 5.72769e-23)
(0.427295 -13.7922 1.78268e-20)
(0.437417 -13.3911 2.90781e-20)
(0.446241 -13.0023 -1.96778e-20)
(0.453973 -12.6264 2.48555e-20)
(0.460794 -12.2637 2.12074e-20)
(0.466859 -11.9141 -1.99651e-20)
(0.472297 -11.5775 3.37169e-20)
(0.477214 -11.2536 -2.14706e-20)
(0.481697 -10.9421 1.06529e-20)
(0.485818 -10.6425 1.4819e-20)
(0.489641 -10.3544 -4.8197e-21)
(0.493225 -10.0772 6.481e-21)
(0.496629 -9.81042 -7.47003e-21)
(0.499913 -9.55327 -1.42512e-22)
(0.503118 -9.30498 3.80924e-21)
(0.506259 -9.0646 -2.5841e-21)
(0.50948 -8.83106 1.52854e-21)
(0.513227 -8.60311 3.60748e-21)
(0.516449 -8.3795 1.38297e-20)
(1.3208 -19.392 -2.24777e-20)
(0.718833 -18.6287 1.50274e-19)
(0.707312 -17.9831 -7.99688e-20)
(0.74761 -17.419 -1.08814e-19)
(0.754284 -16.9093 -4.89239e-20)
(0.760904 -16.4296 -3.47375e-20)
(0.769559 -15.9669 -7.5223e-20)
(0.776914 -15.5153 9.69305e-21)
(0.782386 -15.0726 -1.55501e-20)
(0.786076 -14.6386 -5.48916e-20)
(0.78812 -14.2142 -1.35182e-19)
(0.78872 -13.8004 6.52802e-20)
(0.78812 -13.3982 -2.44391e-20)
(0.786566 -13.0086 9.23887e-21)
(0.784277 -12.6319 -5.49635e-20)
(0.781442 -12.2685 -1.99422e-20)
(0.778216 -11.9184 2.32471e-21)
(0.774721 -11.5814 6.69592e-20)
(0.771053 -11.2572 -3.54446e-20)
(0.767287 -10.9454 -1.95358e-20)
(0.763482 -10.6456 -7.53824e-20)
(0.759687 -10.3573 1.93019e-20)
(0.755946 -10.0801 -1.19353e-20)
(0.752303 -9.81322 2.10251e-20)
(0.748797 -9.55611 -9.63957e-21)
(0.745452 -9.30793 -1.49477e-20)
(0.742252 -9.06775 4.9115e-21)
(0.73935 -8.83443 7.48487e-21)
(0.737267 -8.60668 -1.32704e-20)
(0.734655 -8.3832 6.24492e-21)
(1.8284 -19.355 -1.05106e-20)
(1.20785 -18.6168 3.01193e-20)
(1.18007 -17.9785 4.90446e-20)
(1.2058 -17.4181 3.76332e-19)
(1.19917 -16.9108 -2.16625e-19)
(1.19317 -16.4321 1.97858e-19)
(1.18956 -15.9695 1.21358e-19)
(1.18486 -15.5173 9.38856e-20)
(1.17847 -15.0738 -8.78885e-20)
(1.17051 -14.6388 -8.44127e-21)
(1.16116 -14.2134 2.19008e-19)
(1.15066 -13.7988 3.59802e-20)
(1.13928 -13.3959 -1.00214e-19)
(1.1273 -13.0056 7.82952e-20)
(1.11495 -12.6285 2.08981e-22)
(1.10243 -12.2648 3.28368e-20)
(1.08988 -11.9144 2.32742e-20)
(1.07743 -11.5772 7.79107e-20)
(1.06516 -11.2529 -3.44181e-20)
(1.05313 -10.941 -1.12789e-20)
(1.04139 -10.6412 -2.91186e-20)
(1.02997 -10.353 1.28704e-19)
(1.0189 -10.0759 -1.07199e-19)
(1.0082 -9.80918 3.46112e-20)
(0.997912 -9.55229 1.57968e-20)
(0.988022 -9.30442 -6.40857e-20)
(0.97849 -9.06461 8.50418e-20)
(0.969481 -8.8317 -9.13894e-21)
(0.961578 -8.60434 -9.51177e-21)
(0.953097 -8.38121 -6.34209e-20)
(2.33425 -19.3051 -3.58842e-19)
(1.69604 -18.5922 -3.21189e-19)
(1.65259 -17.9617 -3.9179e-19)
(1.66416 -17.405 1.20502e-20)
(1.64445 -16.9005 2.43313e-20)
(1.62591 -16.4232 -4.36684e-19)
(1.61003 -15.9609 2.0532e-20)
(1.59325 -15.5085 5.62e-20)
(1.57496 -15.0644 -9.97925e-21)
(1.5553 -14.6288 9.42403e-20)
(1.53449 -14.2027 -3.71375e-19)
(1.51283 -13.7875 -2.28127e-19)
(1.49063 -13.3841 8.56161e-20)
(1.46819 -12.9936 1.66657e-19)
(1.44575 -12.6162 -1.93342e-19)
(1.42351 -12.2524 -2.99663e-20)
(1.40163 -11.902 -1.1284e-19)
(1.38021 -11.5649 -5.25858e-20)
(1.35932 -11.2407 8.79038e-20)
(1.33902 -10.9291 -1.11893e-19)
(1.31934 -10.6295 9.67942e-20)
(1.30029 -10.3416 -1.14528e-19)
(1.28189 -10.0647 -8.90822e-20)
(1.26415 -9.79835 -6.35234e-20)
(1.24708 -9.54187 -1.85708e-20)
(1.23065 -9.29447 -1.29252e-19)
(1.21481 -9.05521 1.34403e-20)
(1.19971 -8.8229 2.28239e-20)
(1.18601 -8.59612 -6.5813e-20)
(1.17164 -8.37355 1.40244e-20)
(2.83889 -19.2425 -2.11488e-19)
(2.1837 -18.5553 3.0929e-20)
(2.12485 -17.9325 2.71099e-19)
(2.12247 -17.38 2.81302e-19)
(2.08983 -16.8785 2.01884e-19)
(2.05881 -16.4028 8.33179e-20)
(2.03068 -15.9411 1.27439e-19)
(2.00179 -15.4887 5.77626e-19)
(1.97155 -15.0443 -3.46377e-19)
(1.94014 -14.6083 1.02888e-20)
(1.90783 -14.1819 8.27253e-20)
(1.87497 -13.7664 3.49465e-19)
(1.84191 -13.3629 -2.36181e-19)
(1.80897 -12.9723 1.68233e-19)
(1.77641 -12.5951 -1.84841e-19)
(1.74445 -12.2314 3.16004e-19)
(1.71321 -11.8813 -9.26811e-20)
(1.68282 -11.5446 3.49146e-21)
(1.65332 -11.2207 1.46512e-19)
(1.62475 -10.9095 1.01772e-19)
(1.59713 -10.6104 -1.03687e-19)
(1.57046 -10.3229 1.38919e-19)
(1.54473 -10.0465 -6.24505e-20)
(1.51996 -9.7807 7.21921e-20)
(1.49612 -9.52481 9.56216e-20)
(1.47317 -9.27807 3.42931e-20)
(1.45103 -9.03953 1.04284e-19)
(1.42988 -8.80801 -3.83243e-20)
(1.41041 -8.58199 -1.27408e-20)
(1.39013 -8.3602 -5.88405e-20)
(3.34179 -19.1669 -1.52592e-19)
(2.67045 -18.5058 -1.00113e-19)
(2.59652 -17.8912 -3.03881e-19)
(2.58043 -17.343 -7.87523e-19)
(2.535 -16.8447 2.65524e-19)
(2.49158 -16.3709 1.69829e-20)
(2.45119 -15.91 -1.76558e-19)
(2.41018 -15.4579 3.30777e-20)
(2.36795 -15.0135 -2.62669e-20)
(2.32474 -14.5775 -4.39126e-19)
(2.28089 -14.151 1.84635e-19)
(2.2368 -13.7356 3.13391e-19)
(2.19285 -13.3322 9.25012e-22)
(2.14939 -12.9419 1.14022e-19)
(2.10671 -12.5651 2.79251e-19)
(2.065 -12.2019 -1.91557e-19)
(2.02442 -11.8523 3.3376e-19)
(1.98504 -11.5161 -1.58521e-19)
(1.94693 -11.1929 2.77927e-19)
(1.9101 -10.8823 -2.0825e-19)
(1.87455 -10.5838 9.19209e-20)
(1.84026 -10.297 2.38179e-19)
(1.80723 -10.0213 1.21211e-20)
(1.77543 -9.75623 -2.19257e-19)
(1.74484 -9.5011 1.22342e-19)
(1.7154 -9.2552 1.37657e-20)
(1.687 -9.01757 -3.85447e-20)
(1.65983 -8.78701 1.45587e-19)
(1.63461 -8.56194 5.05012e-20)
(1.60843 -8.34116 -5.00187e-20)
(3.8427 -19.0784 4.27778e-19)
(3.15607 -18.4439 -1.02013e-20)
(3.0674 -17.8376 -6.13237e-19)
(3.03777 -17.2939 1.26359e-19)
(2.97968 -16.7992 -1.7125e-19)
(2.9239 -16.3274 1.28245e-19)
(2.87128 -15.8676 2.74168e-19)
(2.81811 -15.4161 4.92561e-19)
(2.76386 -14.9721 -5.28025e-19)
(2.70882 -14.5363 1.29782e-19)
(2.6534 -14.1101 -8.82021e-20)
(2.59804 -13.695 6.41872e-20)
(2.54318 -13.2921 -2.86936e-19)
(2.48919 -12.9023 -1.8084e-20)
(2.43637 -12.5261 4.51615e-19)
(2.38493 -12.1637 -3.11805e-19)
(2.335 -11.8149 -1.95253e-19)
(2.28666 -11.4796 -1.39679e-19)
(2.23994 -11.1572 2.5362e-19)
(2.19486 -10.8475 5.36597e-20)
(2.15139 -10.5499 -2.46342e-19)
(2.10951 -10.2639 3.24856e-19)
(2.06918 -9.98913 -2.92974e-19)
(2.03038 -9.72494 1.9142e-19)
(1.99307 -9.47077 -1.08885e-19)
(1.95717 -9.22587 6.92069e-20)
(1.92253 -8.98933 5.12088e-20)
(1.88938 -8.75992 -2.31212e-19)
(1.85847 -8.53599 9.86173e-20)
(1.82639 -8.31643 1.38976e-21)
(4.34128 -18.9769 -4.16607e-19)
(3.64025 -18.3693 3.38776e-19)
(3.53717 -17.7717 -6.21274e-19)
(3.49418 -17.2328 1.18774e-18)
(3.42355 -16.7418 -3.31345e-19)
(3.35547 -16.2724 4.64762e-19)
(3.29062 -15.814 -9.25695e-21)
(3.22529 -15.3633 -6.67763e-20)
(3.15898 -14.9199 -9.12024e-20)
(3.09209 -14.4847 1.7204e-22)
(3.02506 -14.0591 -3.48438e-19)
(2.95842 -13.6446 1.83045e-19)
(2.89264 -13.2425 -2.16023e-19)
(2.82812 -12.8536 -1.75538e-20)
(2.76516 -12.4783 -5.97875e-19)
(2.70399 -12.1169 1.96543e-19)
(2.64472 -11.7692 1.10779e-19)
(2.58743 -11.4349 -1.26681e-19)
(2.53213 -11.1137 -1.50732e-20)
(2.47882 -10.8051 -1.90449e-19)
(2.42745 -10.5086 -6.74832e-20)
(2.378 -10.2237 5.22553e-21)
(2.3304 -9.94995 -1.63103e-19)
(2.28462 -9.68686 -2.40058e-19)
(2.24062 -9.43382 1.07047e-20)
(2.19828 -9.19011 -2.76534e-20)
(2.15745 -8.95482 7.4142e-20)
(2.11837 -8.72673 -1.81747e-19)
(2.08181 -8.50412 1.53811e-19)
(2.04386 -8.28603 -2.90443e-19)
(4.8372 -18.8626 -1.02481e-18)
(4.12267 -18.2822 1.22905e-18)
(4.00554 -17.6935 -1.29265e-18)
(3.94938 -17.1598 -3.47488e-19)
(3.86632 -16.6727 -2.18406e-19)
(3.786 -16.2059 -2.38409e-19)
(3.70892 -15.7491 -2.17854e-19)
(3.63141 -15.2996 -4.83429e-20)
(3.55303 -14.8571 -2.19879e-19)
(3.47425 -14.4227 -4.30999e-20)
(3.39561 -13.998 3.58454e-19)
(3.31767 -13.5845 -2.0743e-19)
(3.24096 -13.1834 -2.39641e-19)
(3.16591 -12.7957 -3.9956e-19)
(3.09283 -12.4216 8.38008e-19)
(3.02193 -12.0615 -3.19249e-19)
(2.95335 -11.7151 1.18739e-19)
(2.88713 -11.3822 -4.38975e-19)
(2.82328 -11.0624 1.69804e-19)
(2.76176 -10.7551 -6.77484e-20)
(2.70252 -10.4599 8.69483e-20)
(2.64552 -10.1763 -2.84059e-20)
(2.59068 -9.90381 2.64747e-19)
(2.53796 -9.642 -9.31411e-20)
(2.48729 -9.39026 2.5678e-19)
(2.43856 -9.14791 -4.85115e-20)
(2.39158 -8.91406 3.31036e-19)
(2.34663 -8.68746 8.94576e-20)
(2.30448 -8.46636 1.66347e-19)
(2.26069 -8.24995 -5.08972e-19)
(5.33013 -18.7354 1.61704e-18)
(4.60303 -18.1826 -3.13515e-19)
(4.47219 -17.6031 5.55275e-19)
(4.40305 -17.0746 -1.55163e-19)
(4.30769 -16.5918 5.48352e-19)
(4.21516 -16.1278 5.13558e-19)
(4.12587 -15.6729 5.75689e-19)
(4.03617 -15.2248 -4.51168e-20)
(3.9457 -14.7836 -5.45826e-19)
(3.85502 -14.3503 8.00564e-19)
(3.76474 -13.9268 -5.79994e-20)
(3.6755 -13.5146 5.54891e-19)
(3.58787 -13.1149 1.99797e-19)
(3.5023 -12.7286 7.41247e-20)
(3.41911 -12.3561 1.12824e-19)
(3.33853 -11.9976 1.58467e-19)
(3.26065 -11.6528 2.59717e-19)
(3.18553 -11.3215 -7.35803e-20)
(3.11315 -11.0032 3.78083e-19)
(3.04346 -10.6975 1.71493e-19)
(2.97639 -10.4038 -3.56906e-19)
(2.91188 -10.1217 6.2957e-19)
(2.84983 -9.85073 -8.26097e-19)
(2.7902 -9.59038 7.75436e-19)
(2.73291 -9.34012 -2.55576e-19)
(2.67782 -9.0993 4.99627e-20)
(2.62475 -8.86706 -3.31284e-19)
(2.57398 -8.64213 1.85525e-19)
(2.52631 -8.42271 6.52794e-20)
(2.47671 -8.20822 -7.76357e-20)
(5.81973 -18.5954 -9.15512e-19)
(5.08099 -18.0704 8.82064e-19)
(4.93681 -17.5005 -2.39944e-19)
(4.85488 -16.9775 6.85801e-19)
(4.74732 -16.4991 6.8695e-20)
(4.64265 -16.0382 1.40129e-19)
(4.54116 -15.5855 -1.16046e-18)
(4.43926 -15.1391 -2.04579e-19)
(4.3367 -14.6994 7.34429e-19)
(4.2341 -14.2676 5.47722e-19)
(4.13219 -13.8456 -9.32922e-19)
(4.03165 -13.435 5.39341e-19)
(3.93311 -13.037 -5.36536e-19)
(3.83704 -12.6525 3.63377e-19)
(3.74377 -12.2818 -6.09182e-19)
(3.65352 -11.9251 -4.46447e-19)
(3.56639 -11.5822 2.97936e-20)
(3.48241 -11.2527 -2.00353e-19)
(3.40154 -10.9363 3.58844e-19)
(3.32371 -10.6324 1.42203e-19)
(3.24885 -10.3404 -9.31914e-20)
(3.17686 -10.06 -2.65476e-20)
(3.10765 -9.79073 1.06749e-19)
(3.04115 -9.53203 -3.59188e-19)
(2.97727 -9.28343 5.89066e-19)
(2.91588 -9.04431 -1.44687e-19)
(2.85676 -8.81385 -1.01921e-20)
(2.80025 -8.59076 5.03545e-19)
(2.74712 -8.37321 6.52827e-20)
(2.69178 -8.16086 -7.03337e-20)
(6.30568 -18.4427 3.84671e-20)
(5.55623 -17.9458 -4.9889e-19)
(5.39907 -17.3856 -4.50475e-19)
(5.30456 -16.8684 -7.45921e-19)
(5.18492 -16.3946 2.74037e-20)
(5.06816 -15.937 -5.24523e-19)
(4.95448 -15.4868 6.23412e-19)
(4.84039 -15.0425 -6.35722e-20)
(4.72572 -14.6046 4.87183e-19)
(4.61121 -14.1746 -4.09711e-19)
(4.49766 -13.7544 -2.06238e-19)
(4.38584 -13.3457 1.12307e-19)
(4.27641 -12.9497 6.03372e-20)
(4.16986 -12.5672 -6.04085e-19)
(4.06654 -12.1987 3.54834e-19)
(3.96667 -11.8441 -1.71732e-19)
(3.87033 -11.5033 4.91147e-19)
(3.77752 -11.176 -1.60158e-19)
(3.68821 -10.8616 1.65965e-19)
(3.6023 -10.5597 4.10926e-20)
(3.51968 -10.2698 2.79112e-19)
(3.44026 -9.99131 -5.73517e-20)
(3.36393 -9.72386 4.53207e-19)
(3.29061 -9.46699 -5.04727e-19)
(3.2202 -9.22022 -1.69464e-19)
(3.15255 -8.98297 1.37183e-19)
(3.08745 -8.75446 -1.33527e-20)
(3.02526 -8.53339 -2.35755e-19)
(2.96675 -8.31787 1.8908e-19)
(2.90573 -8.1079 -2.17331e-19)
(6.78763 -18.2773 1.53271e-18)
(6.02842 -17.8087 4.07406e-19)
(5.85866 -17.2585 4.90476e-19)
(5.75175 -16.7473 6.50881e-19)
(5.62016 -16.2784 9.75975e-19)
(5.49137 -15.8244 -3.09954e-20)
(5.36553 -15.3769 1.43817e-19)
(5.23924 -14.9349 1.06382e-18)
(5.11246 -14.4991 -2.21374e-19)
(4.98605 -14.0713 -3.88061e-19)
(4.86088 -13.6533 6.75785e-19)
(4.7378 -13.2468 1.10945e-19)
(4.6175 -12.8531 5.3276e-21)
(4.50051 -12.473 1.60306e-19)
(4.38719 -12.1068 2.80323e-19)
(4.27773 -11.7547 -5.71173e-19)
(4.17222 -11.4163 4.85139e-19)
(4.07065 -11.0913 8.00127e-20)
(3.97294 -10.7793 4.6444e-19)
(3.87899 -10.4797 -2.53175e-19)
(3.78867 -10.1919 4.10377e-19)
(3.70187 -9.91554 -4.35099e-19)
(3.61847 -9.65015 4.17083e-19)
(3.53837 -9.3953 5.5896e-20)
(3.46148 -9.15054 -2.7824e-19)
(3.38763 -8.91533 -8.84579e-20)
(3.31661 -8.68893 5.20756e-19)
(3.24882 -8.47004 3.77947e-19)
(3.18502 -8.25675 9.91885e-20)
(3.1184 -8.04937 -6.56285e-20)
(7.26525 -18.0994 1.51771e-19)
(6.49723 -17.6592 3.48128e-19)
(6.31525 -17.1193 1.42022e-18)
(6.19615 -16.6143 -2.3198e-18)
(6.05273 -16.1505 -2.25048e-19)
(5.91196 -15.7003 -2.48612e-19)
(5.77398 -15.2559 1.10228e-19)
(5.63552 -14.8165 1.40509e-19)
(5.49664 -14.3832 2.34566e-19)
(5.35833 -13.9577 -6.30901e-19)
(5.22156 -13.5422 -1.1709e-19)
(5.08724 -13.1383 3.4615e-19)
(4.95611 -12.7472 3.66981e-19)
(4.82872 -12.3697 -3.70009e-19)
(4.70544 -12.0062 -3.58223e-19)
(4.58646 -11.6568 5.85841e-19)
(4.47184 -11.3211 3.75255e-19)
(4.36155 -10.9988 -1.00338e-19)
(4.2555 -10.6893 -2.38582e-19)
(4.15357 -10.3922 4.10891e-20)
(4.05561 -10.1068 -5.38179e-19)
(3.96148 -9.83279 6.43675e-19)
(3.87106 -9.56966 -4.38022e-19)
(3.78424 -9.31701 -1.70192e-20)
(3.70092 -9.07443 2.83549e-19)
(3.62093 -8.84143 -8.80232e-20)
(3.54406 -8.61731 -2.62508e-19)
(3.47075 -8.40077 3.23898e-19)
(3.40175 -8.18988 -9.82289e-21)
(3.32963 -7.98533 5.07214e-20)
(7.73822 -17.9091 -1.17852e-19)
(6.96233 -17.4974 -3.70297e-19)
(6.76852 -16.9679 -1.63124e-18)
(6.63743 -16.4694 5.89403e-19)
(6.4823 -16.0109 -1.74655e-19)
(6.32962 -15.5648 5.76425e-19)
(6.17954 -15.1236 4.15452e-20)
(6.02891 -14.6872 -6.48591e-19)
(5.87795 -14.2566 9.73106e-19)
(5.72776 -13.834 -8.75228e-19)
(5.57941 -13.4213 -3.14728e-20)
(5.43389 -13.0202 2.06952e-19)
(5.29198 -12.632 -3.57442e-19)
(5.15425 -12.2575 3.9943e-19)
(5.02106 -11.897 -7.6241e-19)
(4.89261 -11.5505 -1.67684e-19)
(4.76893 -11.2178 4.55559e-19)
(4.64999 -10.8983 4.09445e-22)
(4.53567 -10.5917 -2.79524e-19)
(4.42582 -10.2973 7.58539e-19)
(4.32028 -10.0146 -4.07224e-19)
(4.21888 -9.74311 -5.38496e-19)
(4.1215 -9.48244 1.77832e-19)
(4.02801 -9.23218 -5.12381e-19)
(3.93833 -8.99196 -1.2086e-19)
(3.85226 -8.76133 -1.42746e-20)
(3.76961 -8.53964 -3.23339e-19)
(3.69086 -8.32561 3.88156e-19)
(3.61675 -8.11729 -2.13234e-19)
(3.53923 -7.91583 2.30673e-19)
(8.2062 -17.7064 -5.37966e-19)
(7.42341 -17.3234 -1.46776e-18)
(7.21815 -16.8046 6.989e-19)
(7.07527 -16.3127 -6.59402e-19)
(6.90855 -15.8597 -4.84954e-19)
(6.74404 -15.418 -2.74798e-19)
(6.58188 -14.9803 -1.00757e-18)
(6.41911 -14.5471 6.81585e-19)
(6.25609 -14.1197 -1.66292e-18)
(6.09405 -13.7001 -5.90752e-19)
(5.93417 -13.2905 2.19577e-19)
(5.77749 -12.8926 3.54377e-19)
(5.62484 -12.5077 -8.52914e-21)
(5.47682 -12.1364 -6.64379e-19)
(5.33379 -11.7792 1.54276e-19)
(5.19593 -11.436 -5.88125e-19)
(5.06327 -11.1064 -4.18198e-19)
(4.93575 -10.7901 -2.4656e-19)
(4.81322 -10.4865 -4.57904e-20)
(4.69551 -10.1951 4.22593e-19)
(4.58245 -9.91526 5.95805e-19)
(4.47385 -9.64655 -1.77067e-19)
(4.36957 -9.38854 -1.66581e-19)
(4.26948 -9.14087 3.24751e-19)
(4.17349 -8.90318 1.78908e-19)
(4.08141 -8.67508 -1.41423e-19)
(3.99305 -8.456 -1.54822e-19)
(3.90895 -8.24464 1.83135e-20)
(3.82985 -8.03907 1.58923e-19)
(3.74704 -7.84091 2.02758e-19)
(8.66888 -17.4915 -9.87806e-20)
(7.88013 -17.1373 1.83604e-18)
(7.66382 -16.6293 1.39784e-18)
(7.50936 -16.1442 1.07909e-18)
(7.33117 -15.697 -6.99265e-19)
(7.15489 -15.2598 -1.39549e-19)
(6.9807 -14.826 1.30742e-19)
(6.80582 -14.3963 8.57543e-19)
(6.63078 -13.9723 3.19393e-19)
(6.45692 -13.5561 7.66666e-19)
(6.28554 -13.15 -1.05384e-18)
(6.11776 -12.7556 1.10466e-19)
(5.95444 -12.3742 4.22106e-19)
(5.79619 -12.0065 2.52485e-19)
(5.64339 -11.6529 5.19996e-19)
(5.49619 -11.3132 -3.57578e-19)
(5.35462 -10.9871 -3.25313e-19)
(5.21858 -10.6742 6.53677e-20)
(5.08792 -10.3739 6.8191e-19)
(4.96243 -10.0857 -1.09475e-18)
(4.84191 -9.80891 3.80774e-19)
(4.72617 -9.54317 -2.16819e-21)
(4.61505 -9.28803 6.99554e-19)
(4.50843 -9.04313 -3.03718e-19)
(4.40619 -8.80815 -1.72969e-20)
(4.30817 -8.58276 -1.87215e-19)
(4.21418 -8.36644 1.77079e-19)
(4.12482 -8.15792 4.31806e-20)
(4.04081 -7.95526 -1.89155e-19)
(3.95284 -7.76064 6.0393e-19)
(9.12593 -17.2645 -1.94416e-18)
(8.33218 -16.9391 -1.11121e-18)
(8.10522 -16.4421 -2.81419e-18)
(7.93937 -15.964 -1.25503e-18)
(7.74985 -15.5228 1.16654e-18)
(7.56186 -15.0904 -6.74356e-19)
(7.37569 -14.6608 -1.52832e-19)
(7.18874 -14.2349 -4.34847e-19)
(7.0017 -13.8146 7.32482e-19)
(6.81608 -13.4022 -1.62911e-19)
(6.63326 -12.9998 -2.56479e-19)
(6.45443 -12.6092 -3.22263e-20)
(6.2805 -12.2317 -1.01702e-18)
(6.1121 -11.8679 -3.40808e-20)
(5.9496 -11.5181 2.71822e-19)
(5.79314 -11.1822 -2.80801e-20)
(5.64274 -10.8598 -1.00928e-18)
(5.49826 -10.5506 9.75258e-19)
(5.35953 -10.2538 -9.4635e-19)
(5.22633 -9.96901 3.67082e-19)
(5.09843 -9.69559 5.13006e-20)
(4.97563 -9.43304 2.09163e-20)
(4.85774 -9.18097 -3.75661e-19)
(4.74464 -8.93904 1.23357e-19)
(4.63622 -8.70696 -1.62411e-22)
(4.53232 -8.48444 3.90173e-20)
(4.43277 -8.27104 -8.99685e-19)
(4.33824 -8.06551 2.46703e-19)
(4.24945 -7.86593 2.60406e-19)
(4.15647 -7.6751 2.66454e-19)
(9.57705 -17.0256 3.76258e-18)
(8.77925 -16.7291 1.25483e-18)
(8.54204 -16.2431 7.24145e-19)
(8.36499 -15.7722 1.14741e-18)
(8.16426 -15.3371 -1.41811e-19)
(7.96465 -14.9098 8.36106e-19)
(7.76655 -14.4846 1.83782e-18)
(7.56757 -14.0629 -2.38886e-19)
(7.36858 -13.6466 9.7798e-20)
(7.17124 -13.2383 2.0781e-18)
(6.97704 -12.84 -2.77635e-19)
(6.78723 -12.4535 2.78833e-19)
(6.60277 -12.0802 -9.86042e-20)
(6.4243 -11.7205 -2.33753e-21)
(6.25218 -11.3748 1.4175e-18)
(6.08654 -11.043 5.50088e-20)
(5.92738 -10.7247 1.47258e-18)
(5.77455 -10.4193 -1.90856e-19)
(5.62783 -10.1264 -3.10968e-19)
(5.487 -9.84523 7.21745e-19)
(5.35179 -9.57535 -6.52856e-19)
(5.22199 -9.31622 7.12649e-19)
(5.0974 -9.06743 3.79068e-19)
(4.97788 -8.82866 -3.02871e-19)
(4.86335 -8.59966 4.57939e-19)
(4.75364 -8.3802 5.32691e-20)
(4.64862 -8.16988 -1.83216e-19)
(4.54901 -7.9675 1.03479e-19)
(4.45554 -7.77118 6.57425e-19)
(4.3577 -7.58437 9.48411e-20)
(10.0219 -16.7749 -6.47445e-19)
(9.22104 -16.5072 -1.26147e-18)
(8.97397 -16.0325 5.04206e-19)
(8.78593 -15.5689 -2.03687e-18)
(8.5741 -15.1402 9.48905e-19)
(8.36295 -14.7182 -1.7222e-18)
(8.15296 -14.2977 -1.10775e-18)
(7.942 -13.8804 3.06677e-19)
(7.73113 -13.4685 2.85214e-19)
(7.52213 -13.0645 -1.44045e-18)
(7.31661 -12.6706 -6.11132e-19)
(7.11591 -12.2887 2.69799e-19)
(6.92099 -11.9198 -7.5853e-19)
(6.73253 -11.5646 -2.96681e-19)
(6.55088 -11.2233 -1.9655e-19)
(6.37616 -10.8958 -1.9677e-19)
(6.20832 -10.5817 -8.05184e-19)
(6.04722 -10.2805 -4.96247e-19)
(5.8926 -9.9916 9.26454e-20)
(5.7442 -9.71437 1.60125e-19)
(5.60176 -9.44826 1.64183e-19)
(5.46502 -9.19276 -5.77598e-19)
(5.3338 -8.94747 2.12331e-19)
(5.20794 -8.71207 -4.38916e-19)
(5.08736 -8.48634 4.0402e-19)
(4.9719 -8.2701 -5.33295e-19)
(4.86147 -8.06304 1.61186e-19)
(4.75686 -7.86397 -2.59255e-19)
(4.65884 -7.67109 -3.59233e-19)
(4.55629 -7.48854 -3.50211e-20)
(10.4602 -16.5125 -1.34549e-18)
(9.65726 -16.2736 -1.12368e-18)
(9.40071 -15.8103 -1.08773e-18)
(9.20186 -15.3542 -7.79113e-19)
(8.97905 -14.932 2.40685e-18)
(8.75644 -14.5155 3.25307e-19)
(8.53464 -14.1 9.98928e-19)
(8.31176 -13.6875 1.50339e-18)
(8.08905 -13.2803 7.08017e-19)
(7.86846 -12.881 -9.42483e-19)
(7.65171 -12.4919 1.47184e-18)
(7.44019 -12.1147 -1.42751e-18)
(7.23492 -11.7505 1.32318e-18)
(7.03656 -11.4001 1.48028e-19)
(6.84547 -11.0635 3.2822e-19)
(6.66175 -10.7406 1.06539e-19)
(6.48533 -10.431 1.29945e-18)
(6.31604 -10.1342 -1.93542e-19)
(6.15359 -9.84958 1.67915e-19)
(5.99771 -9.57649 5.63341e-19)
(5.84811 -9.31438 -6.24568e-19)
(5.70451 -9.06273 4.88359e-19)
(5.56672 -8.82115 1.50092e-20)
(5.43457 -8.58932 2.15787e-19)
(5.30799 -8.36706 3.89208e-19)
(5.18684 -8.15423 -6.78615e-20)
(5.07107 -7.9506 3.79371e-19)
(4.96156 -7.755 5.38152e-19)
(4.85906 -7.56573 -5.8538e-19)
(4.75198 -7.38772 -3.29761e-19)
(10.8917 -16.2387 3.89314e-18)
(10.0876 -16.0286 -4.11883e-19)
(9.82198 -15.5766 8.37406e-19)
(9.61249 -15.1281 1.51887e-18)
(9.37883 -14.7127 -4.29177e-18)
(9.14483 -14.302 4.52276e-19)
(8.91128 -13.8918 -1.58384e-18)
(8.67653 -13.4843 1.53912e-18)
(8.44207 -13.0821 -1.2189e-18)
(8.20997 -12.6879 6.36077e-19)
(7.98207 -12.3038 -2.31927e-18)
(7.75982 -11.9317 8.12712e-20)
(7.54429 -11.5726 -7.33354e-19)
(7.33613 -11.2272 1.10579e-18)
(7.1357 -10.8956 -1.16601e-18)
(6.94308 -10.5775 -6.52883e-20)
(6.75818 -10.2727 -9.185e-19)
(6.58078 -9.98052 -6.95089e-20)
(6.4106 -9.70037 6.82653e-20)
(6.24731 -9.43165 1.93544e-19)
(6.09061 -9.17375 -1.0922e-18)
(5.94022 -8.92618 -3.12003e-20)
(5.79591 -8.68852 -5.96999e-19)
(5.65753 -8.46049 -1.39992e-19)
(5.52501 -8.24189 -3.58106e-19)
(5.39822 -8.03267 -3.85545e-19)
(5.27716 -7.83264 -3.93718e-19)
(5.16281 -7.64069 6.53508e-19)
(5.05594 -7.45522 1.72267e-19)
(4.9445 -7.28196 -3.14305e-19)
(11.3162 -15.9535 -2.58987e-18)
(10.5119 -15.7722 9.12075e-19)
(10.2375 -15.3317 -1.52916e-18)
(10.0175 -14.8909 2.30516e-19)
(9.77312 -14.4823 2.4146e-18)
(9.52782 -14.0777 -1.21602e-18)
(9.28258 -13.673 -1.23353e-18)
(9.03605 -13.2709 -1.05277e-18)
(8.7899 -12.8741 5.5838e-20)
(8.54638 -12.4852 6.61896e-19)
(8.30742 -12.1065 -4.696e-19)
(8.07456 -11.7397 2.96037e-20)
(7.84887 -11.386 1.39692e-18)
(7.63103 -11.0459 -7.02392e-19)
(7.42136 -10.7195 1.75304e-19)
(7.21995 -10.4066 -5.52899e-19)
(7.02665 -10.1068 2.09016e-19)
(6.84124 -9.81944 4.52522e-19)
(6.66339 -9.54402 4.92075e-19)
(6.49277 -9.27988 -5.39653e-19)
(6.32904 -9.02643 8.42626e-20)
(6.1719 -8.78315 4.50399e-19)
(6.02113 -8.54963 7.72443e-19)
(5.87656 -8.3256 1.94883e-19)
(5.73814 -8.1109 -7.78837e-19)
(5.60575 -7.90549 8.95623e-19)
(5.47945 -7.70926 -4.47055e-19)
(5.36032 -7.52115 -5.24792e-19)
(5.24919 -7.33966 -3.19557e-19)
(5.13359 -7.1714 -4.01439e-19)
(11.7334 -15.6573 1.35149e-18)
(10.9298 -15.5046 -1.038e-18)
(10.647 -15.0755 4.04851e-19)
(10.4167 -14.6425 2.03841e-18)
(10.1616 -14.241 5.42006e-19)
(9.9051 -13.8428 -4.60046e-19)
(9.64826 -13.4439 1.10429e-18)
(9.39002 -13.0475 2.67413e-19)
(9.13226 -12.6563 1.0003e-18)
(8.87742 -12.2731 5.44846e-19)
(8.62752 -11.9001 2.27285e-20)
(8.38415 -11.539 3.32792e-19)
(8.14842 -11.1909 -1.05028e-19)
(7.92101 -10.8564 1.79536e-19)
(7.70223 -10.5355 4.82904e-19)
(7.49212 -10.2279 -2.64508e-19)
(7.29053 -9.93329 6.4125e-19)
(7.09719 -9.65106 6.44419e-19)
(6.91176 -9.38058 -7.28512e-19)
(6.73388 -9.12123 7.4225e-19)
(6.56317 -8.87242 1.55286e-18)
(6.39934 -8.63365 -9.95303e-19)
(6.24213 -8.40449 9.84238e-19)
(6.0914 -8.18469 -6.89805e-19)
(5.94708 -7.97409 -9.46392e-20)
(5.80912 -7.77272 7.1695e-19)
(5.6776 -7.58054 -1.47125e-19)
(5.55374 -7.39647 5.28079e-19)
(5.43842 -7.21918 5.17957e-19)
(5.31885 -7.05629 -9.65918e-19)
(12.1431 -15.35 -1.30025e-18)
(11.3411 -15.2259 5.91087e-19)
(11.0501 -14.8082 2.38378e-19)
(10.8096 -14.3831 -2.35988e-18)
(10.544 -13.989 -1.1991e-18)
(10.2764 -13.5973 8.83626e-19)
(10.008 -13.2046 -2.42055e-18)
(9.73815 -12.8142 2.8763e-18)
(9.4689 -12.429 -1.60166e-18)
(9.20283 -12.0517 1.89912e-19)
(8.94211 -11.6847 -3.05449e-19)
(8.68836 -11.3296 -8.70763e-19)
(8.44272 -10.9874 1.77918e-18)
(8.20586 -10.6587 6.56128e-19)
(7.97808 -10.3435 -6.86841e-19)
(7.7594 -10.0416 1.66157e-20)
(7.54962 -9.75238 3.6537e-19)
(7.34846 -9.47543 -7.90184e-19)
(7.15553 -9.21009 1.65351e-19)
(6.97044 -8.95573 5.30047e-19)
(6.79281 -8.71176 -2.25437e-19)
(6.62231 -8.47768 3.56653e-19)
(6.45868 -8.25309 -7.0285e-19)
(6.30177 -8.03772 9.98095e-19)
(6.15153 -7.83145 2.24546e-19)
(6.00793 -7.63435 -6.2389e-19)
(5.87117 -7.44643 -5.29321e-19)
(5.74254 -7.26666 4.81158e-21)
(5.623 -7.09389 7.17828e-19)
(5.49951 -6.93687 -1.61203e-19)
(12.5453 -15.0319 -3.56953e-19)
(11.7455 -14.9363 -2.39441e-18)
(11.4466 -14.5299 2.84301e-18)
(11.1961 -14.1129 1.89134e-18)
(10.9201 -13.7262 1.85115e-18)
(10.6414 -13.3414 4.94752e-19)
(10.3616 -12.9551 7.49588e-19)
(10.0802 -12.571 3.70374e-19)
(9.79952 -12.1921 -1.47434e-18)
(9.52236 -11.8211 2.66677e-18)
(9.25094 -11.4604 -2.09829e-18)
(8.98695 -11.1116 -1.33139e-19)
(8.73154 -10.7757 3.01281e-19)
(8.48538 -10.453 -1.29575e-18)
(8.24874 -10.1438 1.12669e-18)
(8.0216 -9.84762 -3.42148e-19)
(7.80375 -9.56409 -8.44571e-19)
(7.59485 -9.29263 3.16837e-19)
(7.3945 -9.0326 -6.16194e-19)
(7.20228 -8.7834 -5.37992e-19)
(7.01777 -8.54444 -5.64034e-19)
(6.84063 -8.31523 1.27718e-19)
(6.67057 -8.09538 6.59612e-20)
(6.50745 -7.88463 -1.34016e-18)
(6.35122 -7.68289 -4.99072e-19)
(6.20189 -7.49027 3.25257e-19)
(6.05973 -7.30684 3.94253e-19)
(5.92617 -7.13163 -5.42255e-19)
(5.80216 -6.96373 -2.03817e-19)
(5.67459 -6.81278 1.51836e-20)
(12.94 -14.7033 -3.20904e-19)
(12.1431 -14.6359 1.55159e-18)
(11.8362 -14.2408 -4.41949e-19)
(11.5758 -13.8319 -5.38489e-19)
(11.2894 -13.4529 -2.8509e-18)
(10.9998 -13.0752 -6.10052e-19)
(10.7086 -12.6956 1.14752e-18)
(10.4158 -12.3181 -7.50322e-19)
(10.1238 -11.9459 -7.82268e-20)
(9.83573 -11.5815 -1.50492e-19)
(9.55376 -11.2275 7.92565e-19)
(9.27969 -10.8852 -1.23567e-18)
(9.01466 -10.5557 -8.11818e-19)
(8.75935 -10.2394 9.40758e-19)
(8.51399 -9.93635 -5.28002e-19)
(8.27854 -9.6462 -6.28381e-19)
(8.05274 -9.36851 1.33012e-18)
(7.83622 -9.10269 -2.12059e-19)
(7.62854 -8.84814 7.59477e-19)
(7.42925 -8.60425 -6.91744e-19)
(7.2379 -8.37045 -5.47315e-19)
(7.05413 -8.14626 4.76451e-19)
(6.87764 -7.93131 -5.58807e-20)
(6.70827 -7.72535 -3.45165e-19)
(6.54598 -7.52833 3.02739e-19)
(6.39082 -7.34043 -9.24877e-19)
(6.24313 -7.1618 5.64612e-19)
(6.10447 -6.99148 -9.28011e-21)
(5.97578 -6.82863 -5.72788e-19)
(5.84425 -6.68344 8.11424e-19)
(13.328 -14.3649 1.22272e-18)
(12.5338 -14.325 -3.02789e-18)
(12.2187 -13.9409 -2.45397e-19)
(11.9484 -13.5401 1.3593e-18)
(11.6518 -13.1691 -3.38252e-19)
(11.3512 -12.7987 -9.55252e-19)
(11.0487 -12.4262 4.3179e-19)
(10.7446 -12.0557 4.93519e-19)
(10.4416 -11.6904 3.76325e-20)
(10.1427 -11.3331 5.90556e-19)
(9.85032 -10.9859 1.8645e-18)
(9.56633 -10.6505 -6.5433e-19)
(9.29186 -10.3277 1.58752e-19)
(9.02757 -10.018 -4.20933e-19)
(8.77366 -9.72136 1.6037e-18)
(8.53004 -9.43741 -2.8614e-19)
(8.29644 -9.16572 9.24089e-19)
(8.07242 -8.9057 -3.56075e-19)
(7.85751 -8.65675 3.7605e-19)
(7.65122 -8.41827 5.62845e-19)
(7.45306 -8.18973 9.36737e-20)
(7.26265 -7.97065 3.68495e-19)
(7.07965 -7.7607 -2.99647e-19)
(6.90392 -7.55968 8.3095e-19)
(6.73544 -7.36759 -3.35837e-19)
(6.5743 -7.18474 1.21383e-18)
(6.42101 -7.01137 -3.50808e-19)
(6.27732 -6.84642 2.37199e-19)
(6.14424 -6.68911 -4.45856e-19)
(6.00946 -6.55104 7.8307e-19)
(13.7104 -14.0171 -2.7007e-18)
(12.9182 -14.0031 1.04709e-19)
(12.5939 -13.6298 -1.5001e-18)
(12.3135 -13.2376 2.65817e-19)
(12.0067 -12.8749 7.55651e-20)
(11.6954 -12.5123 -1.25126e-18)
(11.3818 -12.1472 -2.32684e-18)
(11.0665 -11.7841 1.14244e-18)
(10.7525 -11.4261 -1.60644e-18)
(10.4429 -11.076 -8.28373e-19)
(10.1404 -10.736 -4.63507e-19)
(9.84669 -10.4077 -3.55581e-19)
(9.56297 -10.0919 2.55304e-21)
(9.28988 -9.78903 -1.2734e-18)
(9.0276 -9.49896 8.05744e-19)
(8.776 -9.2214 -1.33158e-18)
(8.53475 -8.95586 -3.33422e-19)
(8.30338 -8.70176 3.53355e-19)
(8.08136 -8.4585 4.40022e-19)
(7.86816 -8.22549 4.31229e-19)
(7.66323 -8.00222 3.27468e-19)
(7.46613 -7.78823 -8.16069e-19)
(7.27648 -7.58323 8.10232e-19)
(7.09406 -7.38707 -8.78762e-20)
(6.91882 -7.1999 -2.13228e-19)
(6.75094 -7.02221 -8.35035e-19)
(6.59123 -6.85428 -4.37355e-19)
(6.44186 -6.69517 8.05028e-19)
(6.30369 -6.54563 -2.6731e-19)
(6.16499 -6.42121 -2.54833e-19)
(14.0861 -13.6578 1.1855e-18)
(13.2954 -13.6688 1.18259e-19)
(12.9614 -13.3074 -2.90059e-19)
(12.6708 -12.9246 -5.72449e-20)
(12.354 -12.5707 -4.96892e-19)
(12.0321 -12.2162 1.69336e-18)
(11.7076 -11.859 -7.82867e-19)
(11.3813 -11.5035 5.15063e-19)
(11.0565 -11.1531 2.11892e-19)
(10.7365 -10.8105 7.29642e-19)
(10.4239 -10.4781 -2.7033e-19)
(10.1207 -10.1571 1.53803e-18)
(9.8279 -9.84858 -1.2946e-19)
(9.54621 -9.5527 9.62846e-19)
(9.27575 -9.26942 -1.59699e-18)
(9.01636 -8.99841 -1.10953e-19)
(8.76765 -8.73915 1.00716e-18)
(8.52911 -8.49107 -6.18547e-19)
(8.30017 -8.25356 -4.2971e-19)
(8.08021 -8.02604 -7.29899e-19)
(7.86866 -7.80798 -6.25621e-19)
(7.66496 -7.59893 6.74944e-19)
(7.46863 -7.3986 -6.18491e-19)
(7.27928 -7.20688 1.36141e-19)
(7.09663 -7.02398 4.93039e-19)
(6.92061 -6.85045 3.37051e-19)
(6.75198 -6.68667 3.10647e-19)
(6.59257 -6.53268 2.27988e-19)
(6.4418 -6.39369 -6.16614e-19)
(6.29144 -6.28776 -2.47466e-19)
(19.7806 0.303396 1.46759e-20)
(19.7727 -0.217858 1.41655e-19)
(19.7516 -0.736912 4.92328e-19)
(19.7185 -1.2541 2.67811e-19)
(19.673 -1.76955 -5.74332e-19)
(19.6144 -2.28315 1.73116e-19)
(19.5425 -2.79464 -1.79458e-19)
(19.4574 -3.30377 -4.56859e-19)
(19.359 -3.81026 1.18576e-18)
(19.2475 -4.31381 -2.82951e-19)
(19.1229 -4.8141 -2.79426e-19)
(18.9854 -5.3108 -6.03832e-19)
(18.8349 -5.80357 -1.74741e-18)
(18.6716 -6.29211 1.6082e-19)
(18.4956 -6.77607 -6.61415e-20)
(18.3071 -7.25514 -5.67969e-19)
(18.1063 -7.72899 1.1863e-18)
(17.8931 -8.19731 6.55858e-19)
(17.6679 -8.65978 1.24518e-18)
(17.4308 -9.11611 6.0831e-19)
(17.1819 -9.56598 -1.39688e-18)
(16.9215 -10.0091 5.73392e-20)
(16.6497 -10.4452 -2.67109e-18)
(16.3668 -10.874 4.06619e-18)
(16.0729 -11.2952 -1.33217e-18)
(15.7683 -11.7087 -1.7615e-18)
(15.4531 -12.1142 -2.64074e-19)
(15.1281 -12.5115 -3.55154e-20)
(14.7923 -12.9013 -1.38004e-18)
(14.4494 -13.282 2.41831e-18)
(19.4171 -0.269049 5.55559e-20)
(19.3927 -0.779233 8.02713e-20)
(19.3543 -1.28692 1.79435e-20)
(19.3029 -1.79228 -7.14189e-19)
(19.2385 -2.29546 -6.40318e-19)
(19.161 -2.79631 5.645e-19)
(19.0704 -3.29453 6.99674e-19)
(18.9667 -3.78981 3.7233e-19)