/*--------------------------------*- C++ -*----------------------------------*\
  =========                 |
  \\      /  F ield         | OpenFOAM: The Open Source CFD Toolbox
   \\    /   O peration     | Website:  https://openfoam.org
    \\  /    A nd           | Version:  6.0
     \\/     M anipulation  |
\*---------------------------------------------------------------------------*/
FoamFile
{
    version     2.0;
    format      ascii;
    class       volScalarField;
    location    "8.5015";
    object      p;
}
// * * * * * * * * * * * * * * * * * * * * * * * * * * * * * * * * * * * * * //

dimensions      [0 2 -2 0 0 0 0];

internalField   nonuniform List<scalar> 
19200
(
-7.3656
-6.50179
-5.91401
-5.45857
-5.05814
-4.70675
-4.39656
-4.11892
-3.86776
-3.63873
-3.42852
-3.23451
-3.05468
-2.8874
-2.73134
-2.5854
-2.44867
-2.32037
-2.19981
-2.08641
-1.97964
-1.87905
-1.78422
-1.69479
-1.61043
-1.53083
-1.45573
-1.38489
-1.31803
-1.25508
-7.5481
-6.68361
-6.09357
-5.63463
-5.23004
-4.87407
-4.55904
-4.27643
-4.02026
-3.78626
-3.57114
-3.37234
-3.18785
-3.01606
-2.85566
-2.70556
-2.56484
-2.43272
-2.30853
-2.19166
-2.0816
-1.97787
-1.88007
-1.78782
-1.70077
-1.61864
-1.54114
-1.46799
-1.39889
-1.3341
-7.73541
-6.86872
-6.27584
-5.81322
-5.4043
-5.0436
-4.72359
-4.43587
-4.17457
-3.93546
-3.71532
-3.51161
-3.32236
-3.14597
-2.98113
-2.82677
-2.68198
-2.54597
-2.41807
-2.29767
-2.18425
-2.07735
-1.97652
-1.8814
-1.79164
-1.70693
-1.62699
-1.55151
-1.48013
-1.41348
-7.92588
-7.05669
-6.46068
-5.99418
-5.58076
-5.21517
-4.89004
-4.59709
-4.33052
-4.08618
-3.86089
-3.65216
-3.45804
-3.27694
-3.10758
-2.94888
-2.79993
-2.65996
-2.52828
-2.4043
-2.28747
-2.17733
-2.07344
-1.97541
-1.88289
-1.79557
-1.71317
-1.63533
-1.56163
-1.49313
-8.11909
-7.24724
-6.6479
-6.17732
-5.75925
-5.38863
-5.05823
-4.75991
-4.48794
-4.23825
-4.00769
-3.79383
-3.59473
-3.40882
-3.23484
-3.07171
-2.91854
-2.77453
-2.63902
-2.51139
-2.39111
-2.27769
-2.17069
-2.06972
-1.97441
-1.88446
-1.79956
-1.71932
-1.64329
-1.57292
-8.31473
-7.44014
-6.83729
-6.36249
-5.93961
-5.5638
-5.228
-4.92416
-4.64667
-4.39149
-4.15556
-3.93645
-3.73226
-3.54145
-3.36276
-3.19513
-3.03765
-2.88955
-2.75014
-2.61881
-2.49502
-2.37828
-2.26814
-2.16419
-2.06607
-1.97345
-1.88603
-1.80337
-1.725
-1.65276
-8.51255
-7.63514
-7.02866
-6.54948
-6.12165
-5.74051
-5.39916
-5.08968
-4.80652
-4.54575
-4.30431
-4.07985
-3.87047
-3.67466
-3.49118
-3.31896
-3.1571
-3.00484
-2.86148
-2.72641
-2.59907
-2.47897
-2.36565
-2.2587
-2.15774
-2.06243
-1.97248
-1.88738
-1.80664
-1.73253
-8.71231
-7.83203
-7.2218
-6.73811
-6.30518
-5.91857
-5.57154
-5.25628
-4.96733
-4.70083
-4.45378
-4.22385
-4.00919
-3.80829
-3.61992
-3.44304
-3.27675
-3.12027
-2.9729
-2.83404
-2.70311
-2.57962
-2.4631
-2.35313
-2.2493
-2.15129
-2.05879
-1.97124
-1.88811
-1.81215
-8.91378
-8.03057
-7.4165
-6.92817
-6.49001
-6.0978
-5.74495
-5.42377
-5.12891
-4.85656
-4.60378
-4.36828
-4.14823
-3.94216
-3.74883
-3.56722
-3.39642
-3.23566
-3.08425
-2.94155
-2.80701
-2.6801
-2.56036
-2.44734
-2.34064
-2.23991
-2.14484
-2.05483
-1.96931
-1.8915
-9.11673
-8.23056
-7.61254
-7.11946
-6.67594
-6.27799
-5.91919
-5.59197
-5.29107
-5.01275
-4.75413
-4.51296
-4.28743
-4.07609
-3.87773
-3.69132
-3.51596
-3.35088
-3.19537
-3.04881
-2.91062
-2.78028
-2.65729
-2.5412
-2.43162
-2.32818
-2.23054
-2.13806
-2.05014
-1.9705
-9.32095
-8.43176
-7.80972
-7.31177
-6.86277
-6.45895
-6.09407
-5.76068
-5.45362
-5.16922
-4.90465
-4.6577
-4.4266
-4.20992
-4.00646
-3.81518
-3.63521
-3.46576
-3.30612
-3.15567
-3.01381
-2.88
-2.75376
-2.63461
-2.52213
-2.41597
-2.31576
-2.22081
-2.13051
-2.04905
-9.52621
-8.63398
-8.00781
-7.50489
-7.05029
-6.64048
-6.26939
-5.92971
-5.61636
-5.32576
-5.05514
-4.80232
-4.56557
-4.34347
-4.13483
-3.93863
-3.754
-3.58014
-3.41635
-3.26197
-3.11642
-2.97915
-2.84964
-2.72743
-2.61206
-2.50318
-2.40041
-2.303
-2.21031
-2.12707
-9.7323
-8.83697
-8.20662
-7.69861
-7.23829
-6.82236
-6.44495
-6.09885
-5.7791
-5.4822
-5.20542
-4.94664
-4.70416
-4.47656
-4.26268
-4.06152
-3.87218
-3.69387
-3.52589
-3.36758
-3.21833
-3.07758
-2.94481
-2.81953
-2.70128
-2.58969
-2.48437
-2.38451
-2.28944
-2.20445
-9.93898
-9.04054
-8.40591
-7.89272
-7.42657
-7.0044
-6.62053
-6.2679
-5.94164
-5.63833
-5.3553
-5.09048
-4.84217
-4.60902
-4.38985
-4.18366
-3.98958
-3.8068
-3.63461
-3.47235
-3.31939
-3.17516
-3.03913
-2.91079
-2.78968
-2.67539
-2.56754
-2.46524
-2.36781
-2.2811
-10.146
-9.24445
-8.60548
-8.08701
-7.61491
-7.18639
-6.79595
-6.43667
-6.10379
-5.79396
-5.50459
-5.23364
-4.97945
-4.74067
-4.51616
-4.30491
-4.10605
-3.91877
-3.74236
-3.57613
-3.41946
-3.27176
-3.13248
-3.00109
-2.87712
-2.76016
-2.6498
-2.54509
-2.44532
-2.35694
-10.3532
-9.44849
-8.8051
-8.28125
-7.8031
-7.36811
-6.97099
-6.60494
-6.26534
-5.94891
-5.65311
-5.37594
-5.1158
-4.87134
-4.64144
-4.42509
-4.22143
-4.02963
-3.84898
-3.67879
-3.5184
-3.36723
-3.22471
-3.0903
-2.96349
-2.84389
-2.73103
-2.62393
-2.52185
-2.43183
-10.5604
-9.65245
-9.00457
-8.47525
-7.99093
-7.54936
-7.14544
-6.77253
-6.42611
-6.10297
-5.80066
-5.51721
-5.25106
-5.00087
-4.76553
-4.54406
-4.33556
-4.13923
-3.95434
-3.78017
-3.61608
-3.46145
-3.3157
-3.17827
-3.04866
-2.92643
-2.81112
-2.70166
-2.59728
-2.50568
-10.7673
-9.85612
-9.20368
-8.66878
-8.17819
-7.72994
-7.31911
-6.93923
-6.58589
-6.25596
-5.94706
-5.65727
-5.38504
-5.12908
-4.88828
-4.66164
-4.4483
-4.24743
-4.05828
-3.88014
-3.71235
-3.55427
-3.40531
-3.26489
-3.13249
-3.00766
-2.88992
-2.77813
-2.67149
-2.57837
-10.9737
-10.0593
-9.40221
-8.86165
-8.36468
-7.90963
-7.49179
-7.10485
-6.74449
-6.4077
-6.09214
-5.79594
-5.51759
-5.25582
-5.00951
-4.7777
-4.55949
-4.35407
-4.16066
-3.97856
-3.80707
-3.64555
-3.49339
-3.35
-3.21483
-3.08743
-2.9673
-2.85322
-2.74435
-2.64975
-11.1794
-10.2617
-9.59996
-9.05363
-8.55018
-8.08823
-7.66328
-7.26917
-6.90172
-6.55799
-6.23571
-5.93306
-5.64855
-5.38092
-5.1291
-4.89209
-4.669
-4.45902
-4.26136
-4.07529
-3.90011
-3.73517
-3.57982
-3.43347
-3.29555
-3.1656
-3.04311
-2.92676
-2.81568
-2.71965
-11.3843
-10.4633
-9.79673
-9.24453
-8.7345
-8.26554
-7.83338
-7.43203
-7.0574
-6.70667
-6.37761
-6.06845
-5.77775
-5.50425
-5.24688
-5.00467
-4.7767
-4.56216
-4.36024
-4.17021
-3.99135
-3.82298
-3.66445
-3.51515
-3.37449
-3.24201
-3.11716
-2.99856
-2.88528
-2.78787
-11.5881
-10.6638
-9.99232
-9.43415
-8.91742
-8.44135
-8.0019
-7.59321
-7.21134
-6.85354
-6.51766
-6.20197
-5.90504
-5.62566
-5.36274
-5.11531
-4.88247
-4.66337
-4.4572
-4.26321
-4.08066
-3.90886
-3.74716
-3.5949
-3.4515
-3.31647
-3.18927
-3.06843
-2.95294
-2.85415
-11.7908
-10.863
-10.1865
-9.62227
-9.09873
-8.61546
-8.16862
-7.75253
-7.36337
-6.99845
-6.65571
-6.33346
-6.03029
-5.74501
-5.47655
-5.22391
-4.98619
-4.76254
-4.55212
-4.35418
-4.16794
-3.99272
-3.82782
-3.67259
-3.52642
-3.38883
-3.25926
-3.13614
-3.01838
-2.91819
-11.9923
-11.0608
-10.3792
-9.80869
-9.27823
-8.78766
-8.33336
-7.90981
-7.51329
-7.14123
-6.79161
-6.46278
-6.15337
-5.8622
-5.58819
-5.33036
-5.08778
-4.85959
-4.64494
-4.44304
-4.25312
-4.07446
-3.90634
-3.74811
-3.59914
-3.45892
-3.32691
-3.20146
-3.08132
-2.97965
-12.1924
-11.257
-10.5701
-9.99319
-9.45569
-8.95773
-8.49591
-8.06485
-7.66094
-7.28171
-6.9252
-6.58979
-6.27415
-5.97711
-5.69758
-5.43457
-5.18717
-4.95446
-4.73559
-4.52975
-4.33615
-4.15403
-3.98267
-3.82139
-3.66954
-3.52662
-3.39206
-3.26412
-3.14142
-3.03814
-12.3912
-11.4514
-10.7589
-10.1755
-9.63088
-9.12547
-8.65608
-8.21746
-7.80616
-7.41975
-7.05634
-6.71437
-6.39253
-6.08963
-5.80462
-5.53649
-5.28429
-5.0471
-4.82406
-4.6143
-4.41703
-4.23145
-4.05682
-3.89244
-3.73762
-3.59187
-3.45459
-3.32397
-3.19841
-3.09307
-12.5888
-11.6439
-10.9455
-10.3554
-9.80357
-9.29064
-8.81364
-8.36747
-7.94876
-7.55518
-7.1849
-6.8364
-6.50839
-6.1997
-5.90925
-5.63605
-5.37911
-5.1375
-4.91033
-4.6967
-4.49579
-4.30677
-4.12887
-3.96135
-3.80349
-3.65477
-3.51462
-3.38107
-3.25212
-3.14381
-12.7863
-11.8344
-11.1294
-10.5326
-9.97343
-9.45298
-8.96837
-8.51465
-8.08856
-7.68784
-7.31073
-6.95575
-6.62163
-6.3072
-6.0114
-5.73319
-5.4716
-5.22565
-4.99443
-4.77701
-4.57252
-4.38012
-4.19898
-4.0283
-3.86734
-3.71552
-3.57227
-3.43534
-3.30202
-3.19002
-12.985
-12.0227
-11.3102
-10.7064
-10.1401
-9.61219
-9.12004
-8.65882
-8.22538
-7.81758
-7.4337
-7.0723
-6.73214
-6.41206
-6.11098
-5.82788
-5.56173
-5.31155
-5.07638
-4.85529
-4.64736
-4.45169
-4.26742
-4.09367
-3.92962
-3.77459
-3.6277
-3.48616
-3.34691
-3.23136
-13.1771
-12.2057
-11.4866
-10.8766
-10.3034
-9.76826
-9.26866
-8.79999
-8.35926
-7.94442
-7.55383
-7.18608
-6.83996
-6.51431
-6.20806
-5.92015
-5.64955
-5.39526
-5.15629
-4.93168
-4.72049
-4.52179
-4.33468
-4.15826
-3.99167
-3.83402
-3.68393
-3.53834
-3.39559
-3.27521
-16.4666
-16.4419
-16.4076
-16.3686
-16.3241
-16.2734
-16.2164
-16.1531
-16.0834
-16.0074
-15.9251
-15.8366
-15.7419
-15.6412
-15.5346
-15.4222
-15.3042
-15.1806
-15.0517
-14.9176
-14.7785
-14.6344
-14.4857
-14.3325
-14.1751
-14.0136
-13.8484
-13.68
-13.5088
-13.3378
-15.4258
-15.4061
-15.3777
-15.3427
-15.3012
-15.2531
-15.1985
-15.1375
-15.0701
-14.9963
-14.9163
-14.8302
-14.738
-14.6398
-14.5358
-14.426
-14.3107
-14.1899
-14.0638
-13.9325
-13.7962
-13.6552
-13.5094
-13.3593
-13.2049
-13.0464
-12.8843
-12.7186
-12.5499
-12.3785
-14.5814
-14.5657
-14.542
-14.5113
-14.4738
-14.4296
-14.3789
-14.3217
-14.2583
-14.1885
-14.1126
-14.0306
-13.9425
-13.8486
-13.7489
-13.6436
-13.5327
-13.4165
-13.295
-13.1683
-13.0368
-12.9004
-12.7594
-12.614
-12.4643
-12.3105
-12.1529
-11.9916
-11.8268
-11.6586
-13.8132
-13.8011
-13.7818
-13.7555
-13.7225
-13.6829
-13.6369
-13.5846
-13.5259
-13.4611
-13.3903
-13.3134
-13.2306
-13.142
-13.0478
-12.9479
-12.8427
-12.7321
-12.6163
-12.4954
-12.3697
-12.2392
-12.1041
-11.9646
-11.8208
-11.6729
-11.5211
-11.3655
-11.2062
-11.0433
-13.0657
-13.0573
-13.0422
-13.0203
-12.992
-12.9572
-12.9162
-12.8689
-12.8155
-12.756
-12.6906
-12.6194
-12.5423
-12.4596
-12.3713
-12.2776
-12.1784
-12.0741
-11.9647
-11.8502
-11.731
-11.607
-11.4785
-11.3456
-11.2084
-11.0672
-10.9219
-10.7728
-10.62
-10.4636
-12.351
-12.3461
-12.3349
-12.3173
-12.2934
-12.2633
-12.2271
-12.1849
-12.1367
-12.0826
-12.0227
-11.9572
-11.886
-11.8092
-11.7271
-11.6396
-11.5468
-11.449
-11.3461
-11.2384
-11.1259
-11.0088
-10.8872
-10.7612
-10.631
-10.4968
-10.3585
-10.2165
-10.0707
-9.9213
-11.6743
-11.6726
-11.6649
-11.6511
-11.6313
-11.6055
-11.5739
-11.5364
-11.4932
-11.4442
-11.3897
-11.3297
-11.2641
-11.1933
-11.1171
-11.0358
-10.9493
-10.8579
-10.7616
-10.6606
-10.5549
-10.4446
-10.33
-10.2111
-10.088
-9.96085
-9.8298
-9.69495
-9.55641
-9.41431
-11.0361
-11.0372
-11.0325
-11.0221
-11.0059
-10.984
-10.9564
-10.9233
-10.8846
-10.8404
-10.7909
-10.736
-10.6759
-10.6105
-10.5401
-10.4646
-10.3843
-10.2991
-10.2091
-10.1145
-10.0154
-9.91192
-9.80409
-9.69207
-9.57597
-9.4559
-9.33198
-9.20432
-9.07304
-8.93825
-10.4367
-10.44
-10.4379
-10.4303
-10.4172
-10.3987
-10.3747
-10.3454
-10.3108
-10.271
-10.226
-10.1758
-10.1206
-10.0604
-9.9953
-9.92535
-9.85065
-9.77128
-9.68734
-9.5989
-9.50609
-9.40898
-9.30769
-9.20231
-9.09296
-8.97973
-8.86275
-8.7421
-8.6179
-8.49027
-9.87588
-9.88098
-9.88096
-9.87567
-9.86516
-9.84947
-9.82863
-9.80267
-9.77165
-9.73561
-9.69461
-9.6487
-9.59795
-9.54241
-9.48215
-9.41724
-9.34777
-9.27381
-9.19543
-9.11273
-9.0258
-8.93472
-8.83959
-8.7405
-8.63756
-8.53085
-8.42049
-8.30656
-8.18918
-8.06845
-9.35269
-9.35913
-9.36072
-9.3573
-9.3489
-9.33557
-9.31734
-9.29423
-9.26628
-9.23355
-9.19609
-9.15392
-9.10713
-9.05575
-8.99986
-8.93952
-8.87479
-8.80576
-8.73249
-8.65507
-8.57357
-8.48808
-8.39869
-8.30548
-8.20854
-8.10797
-8.00385
-7.89629
-7.78537
-7.6712
-8.86572
-8.87313
-8.8759
-8.87392
-8.86721
-8.8558
-8.83973
-8.819
-8.79366
-8.76377
-8.72935
-8.69046
-8.64714
-8.59945
-8.54744
-8.49118
-8.43072
-8.36614
-8.29751
-8.2249
-8.14837
-8.06802
-7.98391
-7.89614
-7.80477
-7.70991
-7.61162
-7.51002
-7.40517
-7.29718
-8.4132
-8.42123
-8.42485
-8.42394
-8.41853
-8.40865
-8.39432
-8.37557
-8.35242
-8.32493
-8.29313
-8.25705
-8.21676
-8.1723
-8.12371
-8.07107
-8.01442
-7.95384
-7.88938
-7.82111
-7.7491
-7.67342
-7.59415
-7.51135
-7.42512
-7.33553
-7.24265
-7.14658
-7.04739
-6.94518
-7.99312
-8.0015
-8.00566
-8.00552
-8.00108
-7.99239
-7.97946
-7.96231
-7.94098
-7.9155
-7.88592
-7.85227
-7.81459
-7.77294
-7.72736
-7.67791
-7.62464
-7.56761
-7.50688
-7.44251
-7.37457
-7.30313
-7.22825
-7.15001
-7.06847
-6.98371
-6.89582
-6.80485
-6.7109
-6.61406
-7.60334
-7.61184
-7.61632
-7.61668
-7.61295
-7.60516
-7.59333
-7.57747
-7.55763
-7.53384
-7.50613
-7.47454
-7.43912
-7.3999
-7.35695
-7.3103
-7.26001
-7.20613
-7.14873
-7.08786
-7.02358
-6.95596
-6.88505
-6.81093
-6.73367
-6.65334
-6.57
-6.48373
-6.39461
-6.30273
-7.24171
-7.25014
-7.25474
-7.2554
-7.25215
-7.24503
-7.23405
-7.21923
-7.2006
-7.17821
-7.15208
-7.12225
-7.08875
-7.05165
-7.01097
-6.96678
-6.91911
-6.86803
-6.81359
-6.75584
-6.69484
-6.63065
-6.56333
-6.49295
-6.41957
-6.34326
-6.26409
-6.18213
-6.09744
-6.01012
-6.90606
-6.9143
-6.91886
-6.91966
-6.91673
-6.91008
-6.89975
-6.88574
-6.86811
-6.84687
-6.82206
-6.79372
-6.76189
-6.7266
-6.68792
-6.64587
-6.60052
-6.55191
-6.50009
-6.44513
-6.38706
-6.32596
-6.26188
-6.19487
-6.12501
-6.05236
-5.97698
-5.89894
-5.81832
-5.7352
-6.59432
-6.60228
-6.60669
-6.60751
-6.60474
-6.59843
-6.58857
-6.57521
-6.55838
-6.5381
-6.5144
-6.48733
-6.45692
-6.42321
-6.38626
-6.3461
-6.30279
-6.25636
-6.20688
-6.1544
-6.09897
-6.04064
-5.97946
-5.91551
-5.84883
-5.77949
-5.70756
-5.6331
-5.55619
-5.47692
-6.30454
-6.31214
-6.31633
-6.31706
-6.31437
-6.30826
-6.29876
-6.2859
-6.26971
-6.25022
-6.22746
-6.20147
-6.17229
-6.13996
-6.10452
-6.06602
-6.0245
-5.98002
-5.93262
-5.88236
-5.82928
-5.77344
-5.71489
-5.65369
-5.58989
-5.52356
-5.45476
-5.38356
-5.31004
-5.23429
-6.03486
-6.04206
-6.04597
-6.04656
-6.04385
-6.03787
-6.02862
-6.01615
-6.00049
-5.98166
-5.95969
-5.93463
-5.90651
-5.87537
-5.84125
-5.80422
-5.76429
-5.72154
-5.676
-5.62772
-5.57676
-5.52316
-5.46698
-5.40827
-5.34709
-5.28348
-5.21753
-5.14929
-5.07885
-5.00631
-5.78359
-5.79035
-5.79395
-5.79435
-5.79158
-5.78565
-5.77658
-5.76442
-5.74918
-5.7309
-5.70961
-5.68534
-5.65814
-5.62805
-5.59511
-5.55937
-5.52086
-5.47965
-5.43577
-5.38928
-5.34023
-5.28865
-5.23462
-5.17816
-5.11934
-5.05822
-4.99484
-4.92929
-4.86164
-4.79204
-5.54915
-5.55547
-5.55874
-5.55892
-5.55604
-5.55011
-5.54117
-5.52924
-5.51435
-5.49654
-5.47582
-5.45225
-5.42586
-5.39669
-5.36479
-5.3302
-5.29297
-5.25313
-5.21075
-5.16587
-5.11854
-5.0688
-5.01671
-4.96231
-4.90564
-4.84676
-4.78573
-4.72261
-4.65749
-4.59055
-5.33011
-5.33599
-5.33892
-5.33886
-5.33585
-5.3299
-5.32103
-5.30929
-5.29469
-5.27727
-5.25706
-5.2341
-5.20842
-5.18007
-5.1491
-5.11554
-5.07944
-5.04086
-4.99983
-4.9564
-4.91063
-4.86256
-4.81223
-4.7597
-4.70499
-4.64816
-4.58926
-4.52834
-4.4655
-4.40096
-5.12517
-5.13062
-5.1332
-5.1329
-5.12975
-5.12375
-5.11493
-5.10334
-5.08898
-5.0719
-5.05213
-5.02971
-5.00467
-4.97705
-4.94691
-4.91428
-4.87921
-4.84175
-4.80194
-4.75984
-4.71549
-4.66894
-4.62023
-4.5694
-4.51649
-4.46154
-4.40457
-4.34565
-4.28483
-4.22243
-4.93315
-4.93818
-4.94043
-4.93989
-4.93658
-4.93052
-4.92173
-4.91025
-4.89611
-4.87933
-4.85995
-4.838
-4.81353
-4.78657
-4.75718
-4.72539
-4.69126
-4.65482
-4.61613
-4.57524
-4.53218
-4.48702
-4.43979
-4.39053
-4.33928
-4.28604
-4.23085
-4.17375
-4.1147
-4.05422
-4.75298
-4.7576
-4.75953
-4.75874
-4.75528
-4.74914
-4.74036
-4.72897
-4.715
-4.69848
-4.67944
-4.65792
-4.63396
-4.60759
-4.57888
-4.54785
-4.51456
-4.47905
-4.44137
-4.40158
-4.35971
-4.31583
-4.26995
-4.22214
-4.1724
-4.12076
-4.06721
-4.01175
-3.95425
-3.89554
-4.58373
-4.58796
-4.58956
-4.58853
-4.58489
-4.57866
-4.56987
-4.55855
-4.54472
-4.52841
-4.50966
-4.48851
-4.46499
-4.43915
-4.41103
-4.38067
-4.34813
-4.31345
-4.27668
-4.23787
-4.19707
-4.15432
-4.10968
-4.06317
-4.01483
-3.96464
-3.91258
-3.85861
-3.80235
-3.74533
-4.42451
-4.42843
-4.42979
-4.42859
-4.42485
-4.41859
-4.40983
-4.3986
-4.38494
-4.36887
-4.35042
-4.32963
-4.30655
-4.28121
-4.25366
-4.22394
-4.1921
-4.15819
-4.12226
-4.08437
-4.04455
-4.00286
-3.95935
-3.91406
-3.86702
-3.81821
-3.76757
-3.715
-3.65968
-3.60394
-4.2744
-4.27818
-4.27948
-4.27828
-4.27461
-4.26848
-4.25992
-4.24897
-4.23564
-4.21997
-4.202
-4.18175
-4.15928
-4.13462
-4.10781
-4.07891
-4.04796
-4.01501
-3.98011
-3.94332
-3.90469
-3.86426
-3.8221
-3.77825
-3.73274
-3.68558
-3.6367
-3.58591
-3.5319
-3.47764
-4.1327
-4.1357
-4.13632
-4.13455
-4.13041
-4.12392
-4.1151
-4.10399
-4.09061
-4.07499
-4.05717
-4.03718
-4.01507
-3.99087
-3.96463
-3.93639
-3.9062
-3.87412
-3.84019
-3.80447
-3.76701
-3.72786
-3.6871
-3.64476
-3.60092
-3.5556
-3.50881
-3.46034
-3.40888
-3.36141
-13.9792
-14.1373
-14.2868
-14.4359
-14.5831
-14.7268
-14.8665
-15.0018
-15.1323
-15.2578
-15.3781
-15.4927
-15.6017
-15.7047
-15.8017
-15.8925
-15.9769
-16.0549
-16.1263
-16.191
-16.249
-16.3002
-16.3445
-16.3819
-16.4125
-16.4361
-16.4529
-16.4631
-16.4669
-16.466
-12.9369
-13.0992
-13.2544
-13.406
-13.5538
-13.6973
-13.8365
-13.971
-14.1007
-14.2253
-14.3447
-14.4587
-14.567
-14.6695
-14.766
-14.8564
-14.9406
-15.0184
-15.0898
-15.1546
-15.2128
-15.2643
-15.3091
-15.3471
-15.3783
-15.4027
-15.4203
-15.4312
-15.4356
-15.4335
-12.0779
-12.2399
-12.3962
-12.5479
-12.6952
-12.8382
-12.9767
-13.1105
-13.2395
-13.3636
-13.4825
-13.5961
-13.7041
-13.8066
-13.9032
-13.9939
-14.0785
-14.1569
-14.229
-14.2948
-14.3541
-14.4069
-14.453
-14.4926
-14.5254
-14.5516
-14.5711
-14.5839
-14.5899
-14.5891
-11.297
-11.4565
-11.6113
-11.7616
-11.9076
-12.0493
-12.1866
-12.3193
-12.4473
-12.5705
-12.6887
-12.8018
-12.9095
-13.0118
-13.1084
-13.1994
-13.2844
-13.3635
-13.4366
-13.5034
-13.564
-13.6182
-13.6661
-13.7075
-13.7424
-13.7708
-13.7926
-13.8078
-13.8164
-13.8182
-10.5474
-10.7034
-10.8555
-11.0034
-11.1472
-11.2868
-11.4222
-11.5532
-11.6796
-11.8015
-11.9185
-12.0305
-12.1375
-12.2392
-12.3355
-12.4264
-12.5116
-12.591
-12.6646
-12.7323
-12.794
-12.8496
-12.899
-12.9421
-12.979
-13.0096
-13.0338
-13.0516
-13.0628
-13.0676
-9.84377
-9.99571
-10.1442
-10.289
-10.4298
-10.5667
-10.6995
-10.8282
-10.9525
-11.0724
-11.1877
-11.2982
-11.4039
-11.5046
-11.6001
-11.6904
-11.7753
-11.8547
-11.9285
-11.9966
-12.059
-12.1155
-12.1661
-12.2107
-12.2493
-12.2818
-12.3081
-12.3283
-12.3422
-12.3498
-9.19181
-9.33933
-9.48378
-9.6247
-9.76198
-9.89556
-10.0253
-10.1511
-10.2728
-10.3902
-10.5033
-10.6118
-10.7157
-10.8149
-10.9091
-10.9984
-11.0825
-11.1613
-11.2349
-11.303
-11.3656
-11.4226
-11.474
-11.5196
-11.5595
-11.5935
-11.6216
-11.6438
-11.66
-11.6702
-8.5912
-8.73401
-8.87402
-9.01075
-9.14408
-9.27394
-9.40017
-9.52266
-9.64125
-9.75583
-9.86625
-9.97238
-10.0741
-10.1713
-10.2638
-10.3516
-10.4344
-10.5123
-10.5851
-10.6527
-10.7151
-10.7722
-10.8238
-10.8701
-10.9107
-10.9458
-10.9753
-10.9991
-11.0172
-11.0296
-8.0404
-8.17836
-8.31371
-8.44602
-8.57514
-8.70099
-8.82343
-8.94232
-9.05753
-9.16892
-9.27637
-9.37974
-9.47891
-9.57377
-9.66419
-9.75007
-9.83131
-9.9078
-9.97946
-10.0462
-10.1079
-10.1646
-10.2161
-10.2624
-10.3035
-10.3392
-10.3696
-10.3946
-10.4141
-10.4282
-7.53698
-7.67004
-7.80066
-7.92842
-8.0532
-8.17489
-8.29336
-8.40847
-8.52008
-8.62807
-8.73231
-8.83268
-8.92905
-9.02131
-9.10935
-9.19306
-9.27235
-9.34713
-9.4173
-9.48278
-9.5435
-9.59939
-9.65038
-9.69642
-9.73744
-9.77341
-9.80426
-9.82998
-9.85051
-9.86586
-7.07779
-7.20599
-7.33188
-7.45508
-7.57547
-7.69295
-7.80737
-7.91861
-8.02652
-8.13099
-8.23188
-8.32909
-8.42248
-8.51196
-8.59741
-8.67874
-8.75584
-8.82865
-8.89706
-8.96101
-9.02041
-9.07521
-9.12535
-9.17076
-9.2114
-9.24721
-9.27817
-9.30423
-9.32537
-9.34157
-6.65933
-6.78276
-6.90399
-7.02269
-7.13873
-7.25202
-7.3624
-7.46975
-7.57394
-7.67484
-7.77233
-7.86629
-7.95661
-8.04319
-8.12592
-8.20471
-8.27948
-8.35013
-8.41659
-8.47879
-8.53665
-8.59012
-8.63913
-8.68365
-8.72361
-8.75898
-8.78972
-8.8158
-8.83718
-8.85387
-6.27798
-6.39678
-6.51349
-6.6278
-6.73959
-6.84876
-6.95517
-7.05868
-7.15917
-7.25652
-7.3506
-7.44131
-7.52853
-7.61216
-7.69211
-7.76829
-7.84061
-7.909
-7.97337
-8.03367
-8.08983
-8.14179
-8.18949
-8.2329
-8.27196
-8.30664
-8.3369
-8.36272
-8.38406
-8.40094
-5.93023
-6.04456
-6.1569
-6.26697
-6.37465
-6.47982
-6.58236
-6.68214
-6.77901
-6.87287
-6.9636
-7.05108
-7.13521
-7.2159
-7.29306
-7.36659
-7.43643
-7.50249
-7.56471
-7.62302
-7.67737
-7.72769
-7.77395
-7.81609
-7.85409
-7.88789
-7.91748
-7.94282
-7.9639
-7.98072
-5.61269
-5.72275
-5.83091
-5.9369
-6.04063
-6.14197
-6.24078
-6.33694
-6.43031
-6.52078
-6.60824
-6.69257
-6.77367
-6.85146
-6.92585
-6.99676
-7.06411
-7.12783
-7.18786
-7.24414
-7.29662
-7.34524
-7.38996
-7.43074
-7.46755
-7.50034
-7.52911
-7.55381
-7.57444
-7.591
-5.32225
-5.42824
-5.5324
-5.63452
-5.73447
-5.83214
-5.92739
-6.02008
-6.11009
-6.19729
-6.28159
-6.36286
-6.44102
-6.51599
-6.58767
-6.65599
-6.72089
-6.78229
-6.84014
-6.89438
-6.94497
-6.99185
-7.03499
-7.07435
-7.10989
-7.1416
-7.16943
-7.19338
-7.21343
-7.22958
-5.05606
-5.15816
-5.25853
-5.35696
-5.45334
-5.54753
-5.63938
-5.72877
-5.81556
-5.89964
-5.98089
-6.05923
-6.13455
-6.20678
-6.27583
-6.34164
-6.40414
-6.46327
-6.51897
-6.5712
-6.61991
-6.66505
-6.70659
-6.7445
-6.77875
-6.8093
-6.83614
-6.85926
-6.87863
-6.89428
-4.81153
-4.90992
-5.00671
-5.10166
-5.19466
-5.28555
-5.3742
-5.46045
-5.54418
-5.62527
-5.70363
-5.77914
-5.85174
-5.92133
-5.98785
-6.05123
-6.11141
-6.16833
-6.22194
-6.2722
-6.31907
-6.36249
-6.40245
-6.43891
-6.47184
-6.50122
-6.52704
-6.54927
-6.56791
-6.58297
-4.58633
-4.68121
-4.77461
-4.86629
-4.9561
-5.0439
-5.12951
-5.21279
-5.29362
-5.37188
-5.44747
-5.5203
-5.59029
-5.65736
-5.72145
-5.7825
-5.84044
-5.89523
-5.94682
-5.99517
-6.04024
-6.08199
-6.1204
-6.15543
-6.18706
-6.21527
-6.24005
-6.26138
-6.27925
-6.29367
-4.37841
-4.46995
-4.56015
-4.64877
-4.7356
-4.82049
-4.90325
-4.98373
-5.06182
-5.13739
-5.21035
-5.28062
-5.34813
-5.41279
-5.47456
-5.53337
-5.58917
-5.64192
-5.69156
-5.73808
-5.78141
-5.82154
-5.85844
-5.89208
-5.92243
-5.94949
-5.97324
-5.99366
-6.01075
-6.02452
-4.18591
-4.27426
-4.36149
-4.44725
-4.53131
-4.61347
-4.69356
-4.7714
-4.84689
-4.91992
-4.99039
-5.05823
-5.12337
-5.18574
-5.24529
-5.30197
-5.35573
-5.40652
-5.45431
-5.49906
-5.54074
-5.57931
-5.61475
-5.64705
-5.67617
-5.7021
-5.72483
-5.74436
-5.76067
-5.77378
-4.00719
-4.09251
-4.17699
-4.26011
-4.3416
-4.42122
-4.4988
-4.57416
-4.6472
-4.71781
-4.78592
-4.85145
-4.91434
-4.97454
-5.03199
-5.08664
-5.13845
-5.18738
-5.2334
-5.27647
-5.31656
-5.35364
-5.38769
-5.41869
-5.44662
-5.47147
-5.49323
-5.51188
-5.52742
-5.53988
-3.84072
-3.92319
-4.00518
-4.08591
-4.16502
-4.24229
-4.31751
-4.39054
-4.46126
-4.52959
-4.59545
-4.65879
-4.71955
-4.77768
-4.83313
-4.88585
-4.93582
-4.98298
-5.02731
-5.06878
-5.10736
-5.14303
-5.17575
-5.20552
-5.23232
-5.25613
-5.27694
-5.29475
-5.30956
-5.32137
-3.68513
-3.76493
-3.84476
-3.92334
-4.00028
-4.07537
-4.14839
-4.21922
-4.28774
-4.35391
-4.41765
-4.47891
-4.53765
-4.59382
-4.64737
-4.69827
-4.74648
-4.79197
-4.83471
-4.87466
-4.91181
-4.94613
-4.9776
-5.0062
-5.03191
-5.05473
-5.07465
-5.09166
-5.10575
-5.11695
-3.53914
-3.61655
-3.69465
-3.77134
-3.84632
-3.91939
-3.99035
-4.05908
-4.12554
-4.18965
-4.25137
-4.31066
-4.36748
-4.42179
-4.47354
-4.52271
-4.56927
-4.61317
-4.6544
-4.69292
-4.72871
-4.76176
-4.79203
-4.81952
-4.84421
-4.86609
-4.88516
-4.9014
-4.91482
-4.92542
-3.40152
-3.47725
-3.55417
-3.62923
-3.70241
-3.7736
-3.84261
-3.90936
-3.97383
-4.03597
-4.09577
-4.15318
-4.20817
-4.2607
-4.31074
-4.35826
-4.40323
-4.44563
-4.48542
-4.52257
-4.55708
-4.58891
-4.61805
-4.64448
-4.6682
-4.68918
-4.70743
-4.72294
-4.7357
-4.74574
-3.27025
-3.34584
-3.4225
-3.49615
-3.56766
-3.63708
-3.70422
-3.76906
-3.83162
-3.89189
-3.94984
-4.00546
-4.0587
-4.10954
-4.15796
-4.20392
-4.24739
-4.28835
-4.32678
-4.36264
-4.39593
-4.42661
-4.45468
-4.48011
-4.5029
-4.52303
-4.54051
-4.55532
-4.56746
-4.57695
-3.14009
-3.21762
-3.29566
-3.36836
-3.43845
-3.50631
-3.57177
-3.63489
-3.69575
-3.75434
-3.81065
-3.86467
-3.91638
-3.96574
-4.01273
-4.05732
-4.09949
-4.13921
-4.17646
-4.21121
-4.24345
-4.27315
-4.30031
-4.3249
-4.34691
-4.36634
-4.38317
-4.39741
-4.40904
-4.4181
-3.00724
-3.08862
-3.17022
-3.24298
-3.31216
-3.3788
-3.44291
-3.50464
-3.56411
-3.62133
-3.6763
-3.72902
-3.77946
-3.8276
-3.87341
-3.91688
-3.95798
-3.99669
-4.03298
-4.06683
-4.09823
-4.12716
-4.1536
-4.17753
-4.19896
-4.21786
-4.23423
-4.24808
-4.25939
-4.26817
-2.90554
-2.99541
-3.07781
-3.14969
-3.21717
-3.28163
-3.34348
-3.40296
-3.46015
-3.51512
-3.56785
-3.61834
-3.66658
-3.71256
-3.75625
-3.79765
-3.83672
-3.87346
-3.90784
-3.93986
-3.96949
-3.99673
-4.02156
-4.04396
-4.06395
-4.08149
-4.09661
-4.10929
-4.11953
-4.12734
-0.679844
-0.725099
-0.77377
-0.826076
-0.882538
-0.943662
-1.00999
-1.08216
-1.1609
-1.2471
-1.34175
-1.44605
-1.56137
-1.68932
-1.83178
-1.99093
-2.16929
-2.36977
-2.59569
-2.85082
-3.13937
-3.46597
-3.83559
-4.25335
-4.72453
-5.25445
-5.84379
-6.48545
-7.23182
-8.18828
-0.751289
-0.799026
-0.849419
-0.903659
-0.962257
-1.02563
-1.09433
-1.169
-1.25039
-1.33939
-1.43702
-1.54448
-1.66316
-1.79468
-1.94095
-2.10415
-2.28684
-2.49193
-2.72276
-2.98311
-3.27719
-3.60962
-3.98532
-4.40938
-4.88695
-5.42319
-6.01856
-6.66545
-7.41507
-8.37076
-0.823544
-0.873805
-0.925946
-0.982152
-1.04292
-1.10859
-1.1797
-1.25691
-1.341
-1.43285
-1.53351
-1.64418
-1.76627
-1.90142
-2.05156
-2.21888
-2.40596
-2.61573
-2.85155
-3.11719
-3.41687
-3.75519
-4.13705
-4.56742
-5.05137
-5.59384
-6.19498
-6.84667
-7.59882
-8.55297
-0.896551
-0.949373
-1.00329
-1.06149
-1.12447
-1.19247
-1.26602
-1.34581
-1.43263
-1.52738
-1.63111
-1.74503
-1.87058
-2.00942
-2.16347
-2.33497
-2.5265
-2.74101
-2.98186
-3.25285
-3.55818
-3.90243
-4.29046
-4.72717
-5.21748
-5.76613
-6.37299
-7.02951
-7.78483
-8.73945
-0.970262
-1.02568
-1.08139
-1.14162
-1.20684
-1.2772
-1.35323
-1.43565
-1.52524
-1.62293
-1.72976
-1.84699
-1.97605
-2.11861
-2.27663
-2.45236
-2.64838
-2.86767
-3.11362
-3.39
-3.70102
-4.05125
-4.44548
-4.88854
-5.38523
-5.94007
-6.55265
-7.21408
-7.97301
-8.92922
-1.04462
-1.10266
-1.16019
-1.22248
-1.28998
-1.36273
-1.44128
-1.52635
-1.61875
-1.71941
-1.8294
-1.94996
-2.08257
-2.22891
-2.39095
-2.57095
-2.77152
-2.99565
-3.24673
-3.52855
-3.84531
-4.20155
-4.60202
-5.05147
-5.55454
-6.11558
-6.73392
-7.40032
-8.16303
-9.12133
-1.11959
-1.18027
-1.23963
-1.30401
-1.37382
-1.44899
-1.53009
-1.61785
-1.7131
-1.81676
-1.92994
-2.05389
-2.19009
-2.34024
-2.50634
-2.69065
-2.89582
-3.12483
-3.3811
-3.6684
-3.99095
-4.35324
-4.75997
-5.21582
-5.7253
-6.29257
-6.91669
-7.58811
-8.3547
-9.3154
-1.1951
-1.25845
-1.31965
-1.38615
-1.45829
-1.53592
-1.6196
-1.71008
-1.8082
-1.91491
-2.03131
-2.15868
-2.2985
-2.45251
-2.62271
-2.81138
-3.02118
-3.25512
-3.51661
-3.80945
-4.13781
-4.50618
-4.91921
-5.38148
-5.89739
-6.47091
-7.10083
-7.77732
-8.54787
-9.51114
-1.27111
-1.33713
-1.4002
-1.46884
-1.54335
-1.62346
-1.70974
-1.80297
-1.904
-2.01378
-2.13343
-2.26425
-2.40774
-2.56564
-2.73997
-2.93304
-3.14751
-3.38642
-3.65317
-3.95157
-4.28578
-4.66026
-5.07961
-5.54833
-6.07068
-6.65045
-7.2862
-7.96777
-8.74234
-9.70828
-1.34758
-1.41628
-1.48121
-1.55202
-1.62892
-1.71154
-1.80045
-1.89646
-2.00042
-2.1133
-2.23623
-2.37053
-2.51771
-2.67954
-2.85803
-3.05553
-3.27471
-3.51862
-3.79066
-4.09465
-4.43474
-4.81536
-5.24105
-5.71622
-6.24502
-6.83105
-7.47263
-8.15929
-8.93789
-9.90656
-1.42445
-1.49583
-1.56264
-1.63564
-1.71495
-1.80011
-1.89167
-1.99047
-2.09738
-2.21339
-2.33963
-2.47744
-2.62834
-2.79411
-2.9768
-3.17876
-3.40268
-3.6516
-3.92897
-4.23858
-4.58457
-4.97134
-5.40339
-5.88503
-6.42027
-7.01255
-7.65994
-8.35169
-9.13433
-10.1057
-1.50169
-1.57573
-1.64443
-1.71964
-1.80138
-1.88909
-1.98332
-2.08494
-2.19483
-2.31398
-2.44355
-2.58488
-2.73952
-2.90927
-3.09617
-3.30262
-3.53129
-3.78527
-4.06798
-4.38323
-4.73514
-5.12808
-5.56648
-6.05458
-6.59627
-7.19478
-7.84798
-8.54478
-9.33143
-10.3056
-1.57925
-1.65595
-1.72653
-1.80396
-1.88816
-1.97843
-2.07535
-2.1798
-2.29268
-2.41499
-2.5479
-2.69278
-2.85118
-3.02491
-3.21606
-3.427
-3.66046
-3.91951
-4.20758
-4.52848
-4.88632
-5.28543
-5.73019
-6.22475
-6.77285
-7.37758
-8.03654
-8.73836
-9.529
-10.5059
-1.65711
-1.73644
-1.80889
-1.88857
-1.97524
-2.06808
-2.1677
-2.27499
-2.39086
-2.51634
-2.65261
-2.80104
-2.96321
-3.14095
-3.33635
-3.55181
-3.79006
-4.05419
-4.34763
-4.6742
-5.03797
-5.44325
-5.89436
-6.39536
-6.94986
-7.56076
-8.22544
-8.93224
-9.72682
-10.7065
-1.73523
-1.81716
-1.89147
-1.97341
-2.06255
-2.15797
-2.26029
-2.37042
-2.4893
-2.61796
-2.75759
-2.90958
-3.07553
-3.25728
-3.45693
-3.67692
-3.91997
-4.18919
-4.48802
-4.82024
-5.18995
-5.6014
-6.05884
-6.56625
-7.12711
-7.74415
-8.4145
-9.12621
-9.92469
-10.9071
-1.8136
-1.89809
-1.97425
-2.05843
-2.15005
-2.24806
-2.35307
-2.46605
-2.58793
-2.71976
-2.86274
-3.0183
-3.18802
-3.37379
-3.57771
-3.80222
-4.05008
-4.32439
-4.62859
-4.96648
-5.34211
-5.75971
-6.22347
-6.73726
-7.30445
-7.92756
-8.60352
-9.32008
-10.1224
-11.1074
-1.89221
-1.9792
-2.05717
-2.14361
-2.2377
-2.33827
-2.44597
-2.56178
-2.68665
-2.82165
-2.96799
-3.1271
-3.3006
-3.49037
-3.69856
-3.9276
-4.18026
-4.45965
-4.76923
-5.11278
-5.49432
-5.91804
-6.38809
-6.90822
-7.48167
-8.1108
-8.7923
-9.51364
-10.3197
-11.3074
-1.97106
-2.06048
-2.14023
-2.2289
-2.32544
-2.42856
-2.53892
-2.65755
-2.7854
-2.92354
-3.07322
-3.23587
-3.41315
-3.60692
-3.81936
-4.05292
-4.31038
-4.59485
-4.90979
-5.25897
-5.6464
-6.07623
-6.55252
-7.07895
-7.65861
-8.29369
-8.98065
-9.70668
-10.5165
-11.5068
-2.05017
-2.14192
-2.22338
-2.31426
-2.41322
-2.51885
-2.63185
-2.75326
-2.88406
-3.02533
-3.17833
-3.34452
-3.52554
-3.72331
-3.93999
-4.17806
-4.4403
-4.72984
-5.05012
-5.40492
-5.79821
-6.23411
-6.7166
-7.24927
-7.83508
-8.47603
-9.16836
-9.89901
-10.7124
-11.7054
-2.12955
-2.22351
-2.30661
-2.39964
-2.50097
-2.60907
-2.72467
-2.84882
-2.98254
-3.12691
-3.28321
-3.4529
-3.63766
-3.8394
-4.06031
-4.30287
-4.56988
-4.86446
-5.19008
-5.55047
-5.94959