/*--------------------------------*- C++ -*----------------------------------*\
  =========                 |
  \\      /  F ield         | OpenFOAM: The Open Source CFD Toolbox
   \\    /   O peration     | Website:  https://openfoam.org
    \\  /    A nd           | Version:  6.0
     \\/     M anipulation  |
\*---------------------------------------------------------------------------*/
FoamFile
{
    version     2.0;
    format      ascii;
    class       volVectorField;
    location    "8.5015";
    object      U;
}
// * * * * * * * * * * * * * * * * * * * * * * * * * * * * * * * * * * * * * //

dimensions      [0 1 -1 0 0 0 0];

internalField   nonuniform List<vector> 
19200
(
(0.0984217 -4.74144 -6.75712e-21)
(0.0605167 -4.32328 3.41961e-21)
(0.0663512 -3.98112 1.59492e-21)
(0.0811848 -3.70163 1.41491e-21)
(0.0988699 -3.4731 1.5927e-21)
(0.120883 -3.28564 1.14208e-22)
(0.146635 -3.13114 2.28475e-21)
(0.175193 -3.00305 -1.57419e-22)
(0.205848 -2.89606 2.03439e-21)
(0.237997 -2.8059 8.62962e-22)
(0.271108 -2.72912 5.21332e-24)
(0.304724 -2.66299 1.38619e-21)
(0.338462 -2.60529 2.30629e-21)
(0.372 -2.55426 -1.57847e-21)
(0.405076 -2.50848 2.05899e-21)
(0.437476 -2.46683 1.80531e-21)
(0.46903 -2.4284 -1.70157e-21)
(0.499606 -2.39248 2.95282e-21)
(0.529107 -2.35849 -1.88477e-21)
(0.55746 -2.32597 9.60765e-22)
(0.584618 -2.29456 1.36366e-21)
(0.610555 -2.26396 -4.38935e-22)
(0.635259 -2.23392 5.97161e-22)
(0.658732 -2.20423 -7.05588e-22)
(0.680988 -2.1747 2.18832e-24)
(0.702045 -2.14516 3.87127e-22)
(0.721926 -2.11544 -2.47534e-22)
(0.740654 -2.08541 1.59073e-22)
(0.758262 -2.05487 3.63744e-22)
(0.774756 -2.02362 1.53132e-21)
(0.222813 -4.73889 -1.58353e-21)
(0.174629 -4.32703 1.06522e-20)
(0.172215 -3.99016 -5.62709e-21)
(0.180561 -3.71554 -7.72127e-21)
(0.193176 -3.4915 -3.49962e-21)
(0.211217 -3.30802 -2.54471e-21)
(0.233836 -3.15697 -5.53114e-21)
(0.2599 -3.03179 6.91187e-22)
(0.288541 -2.92721 -1.19624e-21)
(0.319027 -2.83898 -4.21708e-21)
(0.35073 -2.7637 -1.07279e-20)
(0.383118 -2.69866 5.30127e-21)
(0.415746 -2.64169 -1.96907e-21)
(0.448249 -2.59107 7.51218e-22)
(0.480331 -2.54543 -4.73525e-21)
(0.511752 -2.50366 -1.77527e-21)
(0.542324 -2.46491 2.00309e-22)
(0.571905 -2.42848 6.1531e-21)
(0.600386 -2.39384 -3.22919e-21)
(0.627692 -2.36054 -1.81277e-21)
(0.653772 -2.32824 -7.22185e-21)
(0.678601 -2.29667 1.86952e-21)
(0.702167 -2.26561 -1.20708e-21)
(0.724475 -2.23484 2.1448e-21)
(0.74554 -2.2042 -9.90926e-22)
(0.765384 -2.17352 -1.55868e-21)
(0.784029 -2.14266 5.12362e-22)
(0.801507 -2.11145 7.91635e-22)
(0.817872 -2.07971 -1.42826e-21)
(0.833096 -2.04722 7.67643e-22)
(0.346884 -4.73349 -7.85681e-22)
(0.288709 -4.32821 2.45584e-21)
(0.278442 -3.99691 3.54548e-21)
(0.280638 -3.72742 2.74106e-20)
(0.288455 -3.50805 -1.59771e-20)
(0.302744 -3.32868 1.47497e-20)
(0.32241 -3.18115 9.11978e-21)
(0.346121 -3.05892 7.16392e-21)
(0.372853 -2.95675 -7.01682e-21)
(0.401754 -2.87043 -8.56032e-22)
(0.432099 -2.7966 1.80435e-20)
(0.463282 -2.7326 3.08455e-21)
(0.494804 -2.67631 -8.431e-21)
(0.526257 -2.62605 6.73864e-21)
(0.557313 -2.58047 -9.2314e-23)
(0.587711 -2.53853 2.94424e-21)
(0.617247 -2.49939 2.21475e-21)
(0.645767 -2.4624 7.39815e-21)
(0.673157 -2.42704 -3.29371e-21)
(0.699339 -2.39291 -1.09238e-21)
(0.724262 -2.35969 -2.95917e-21)
(0.7479 -2.32712 1.31196e-20)
(0.770245 -2.295 -1.10076e-20)
(0.791305 -2.26314 3.65707e-21)
(0.811097 -2.23138 1.70907e-21)
(0.829646 -2.19957 -6.8541e-21)
(0.846978 -2.16757 9.26229e-21)
(0.86313 -2.1352 -1.02905e-21)
(0.878177 -2.1023 -1.06772e-21)
(0.892052 -2.06862 -7.72123e-21)
(0.470792 -4.7251 -2.56197e-20)
(0.402912 -4.32683 -2.34937e-20)
(0.385097 -4.00141 -2.9051e-20)
(0.381432 -3.73726 1.03333e-21)
(0.384705 -3.52273 1.70723e-21)
(0.395455 -3.34757 -3.35494e-20)
(0.412341 -3.20361 1.46952e-21)
(0.433836 -3.08436 4.37053e-21)
(0.458762 -2.98459 -7.37048e-22)
(0.486148 -2.90014 7.80193e-21)
(0.515178 -2.82773 -3.14634e-20)
(0.545175 -2.76472 -2.0073e-20)
(0.575587 -2.70904 7.44635e-21)
(0.605968 -2.65906 1.52396e-20)
(0.635961 -2.61349 -1.78706e-20)
(0.665285 -2.5713 -2.88921e-21)
(0.693724 -2.53172 -1.08068e-20)
(0.721114 -2.49411 -5.23173e-21)
(0.747338 -2.45799 8.7905e-21)
(0.772316 -2.42299 -1.14228e-20)
(0.795999 -2.3888 9.96792e-21)
(0.818363 -2.35521 -1.19258e-20)
(0.839403 -2.32201 -9.58061e-21)
(0.85913 -2.28905 -6.86522e-21)
(0.877567 -2.25618 -2.04125e-21)
(0.894743 -2.22325 -1.44698e-20)
(0.910686 -2.19012 1.48503e-21)
(0.925439 -2.15663 2.65607e-21)
(0.939097 -2.12259 -7.78293e-21)
(0.951551 -2.08778 1.63368e-21)
(0.594506 -4.71367 -1.56077e-20)
(0.517246 -4.32287 2.2142e-21)
(0.492183 -4.00363 2.03819e-20)
(0.482939 -3.74504 2.17471e-20)
(0.481915 -3.53549 1.56402e-20)
(0.489336 -3.36461 6.45312e-21)
(0.503612 -3.22427 1.01778e-20)
(0.523022 -3.10799 4.77397e-20)
(0.546238 -3.01061 -2.87895e-20)
(0.572173 -2.92801 7.66556e-22)
(0.599923 -2.85695 7.03021e-21)
(0.628746 -2.79487 3.12279e-20)
(0.658038 -2.73974 -2.16149e-20)
(0.687319 -2.68998 1.57765e-20)
(0.716205 -2.64435 -1.78841e-20)
(0.744399 -2.60186 3.07691e-20)
(0.771673 -2.56178 -9.25147e-21)
(0.797859 -2.5235 2.96937e-22)
(0.822838 -2.48658 1.53271e-20)
(0.84653 -2.45066 1.08142e-20)
(0.868888 -2.41549 -1.11305e-20)
(0.889892 -2.38085 1.52289e-20)
(0.909543 -2.34657 -7.10385e-21)
(0.927856 -2.3125 8.15907e-21)
(0.944859 -2.27852 1.09782e-20)
(0.960585 -2.24448 4.07762e-21)
(0.975064 -2.21025 1.25195e-20)
(0.988349 -2.17567 -4.34574e-21)
(1.00055 -2.14055 -1.52585e-21)
(1.01152 -2.10465 -7.58931e-21)
(0.717963 -4.69917 -1.15344e-20)
(0.631681 -4.31628 -7.78379e-21)
(0.599684 -4.00352 -2.36172e-20)
(0.585143 -3.7507 -6.17524e-20)
(0.58007 -3.54625 2.0927e-20)
(0.584367 -3.37974 1.35053e-21)
(0.596196 -3.24304 -1.45991e-20)
(0.613647 -3.12973 3.19437e-21)
(0.635243 -3.0347 -1.98915e-21)
(0.659786 -2.9539 -3.90291e-20)
(0.686286 -2.88415 1.65749e-20)
(0.713937 -2.82294 2.90064e-20)
(0.742093 -2.7683 1.56765e-22)
(0.770238 -2.7187 1.10965e-20)
(0.797968 -2.67294 2.7775e-20)
(0.82497 -2.63009 -1.92443e-20)
(0.851009 -2.58945 3.44212e-20)
(0.875913 -2.55046 -1.65273e-20)
(0.899564 -2.51269 3.00314e-20)
(0.921884 -2.47584 -2.25684e-20)
(0.942831 -2.43966 1.02734e-20)
(0.96239 -2.40395 2.73654e-20)
(0.980568 -2.36858 1.72669e-21)
(0.997386 -2.33342 -2.55786e-20)
(1.01288 -2.29834 1.46254e-20)
(1.02708 -2.26321 1.79527e-21)
(1.04003 -2.22791 -4.71937e-21)
(1.05178 -2.19229 1.8449e-20)
(1.06247 -2.15613 6.54413e-21)
(1.07188 -2.11921 -6.59835e-21)
(0.841092 -4.68161 3.22163e-20)
(0.746174 -4.30704 -1.24744e-21)
(0.707571 -4.00105 -4.88488e-20)
(0.688021 -3.75418 9.75525e-21)
(0.679145 -3.55495 -1.40525e-20)
(0.680521 -3.39286 1.0195e-20)
(0.690064 -3.25983 2.33387e-20)
(0.705676 -3.14948 4.30249e-20)
(0.725735 -3.05677 -4.71733e-20)
(0.748936 -2.97772 1.16439e-20)
(0.774208 -2.90921 -8.41716e-21)
(0.800686 -2.8488 6.31143e-21)
(0.827681 -2.79458 -2.76961e-20)
(0.854648 -2.74507 -1.71207e-21)
(0.881165 -2.69913 4.65342e-20)
(0.906908 -2.65588 -3.20893e-20)
(0.931637 -2.61463 -2.05113e-20)
(0.955178 -2.57488 -1.52709e-20)
(0.977416 -2.53625 2.82631e-20)
(0.998277 -2.49843 6.24573e-21)
(1.01773 -2.46122 -2.82612e-20)
(1.03575 -2.42445 3.84393e-20)
(1.05238 -2.388 -3.47707e-20)
(1.06762 -2.35174 2.35352e-20)
(1.08152 -2.31558 -1.3267e-20)
(1.09413 -2.2794 8.9139e-21)
(1.10548 -2.24307 6.76519e-21)
(1.11564 -2.20645 -2.99742e-20)
(1.12476 -2.16931 1.31045e-20)
(1.13258 -2.13144 3.11241e-22)
(0.963824 -4.66097 -3.21814e-20)
(0.860676 -4.29513 2.70217e-20)
(0.815807 -3.99618 -5.08999e-20)
(0.791541 -3.75544 9.78417e-20)
(0.77911 -3.56151 -2.77318e-20)
(0.777766 -3.4039 4.01706e-20)
(0.785179 -3.27453 1.65043e-22)
(0.799066 -3.16712 -5.3701e-21)
(0.817666 -3.07669 -8.58389e-21)
(0.839568 -2.99934 -2.05814e-22)
(0.863626 -2.93201 -3.39598e-20)
(0.88892 -2.87234 1.75712e-20)
(0.914723 -2.81848 -2.1923e-20)
(0.940466 -2.769 -1.70069e-21)
(0.965709 -2.72283 -6.30681e-20)
(0.990121 -2.67911 2.06123e-20)
(1.01346 -2.63722 1.24403e-20)
(1.03555 -2.59668 -1.38607e-20)
(1.05629 -2.55714 -1.59171e-21)
(1.07561 -2.51835 -2.22296e-20)
(1.09347 -2.48011 -8.10941e-21)
(1.10988 -2.44227 8.38336e-22)
(1.12487 -2.40474 -2.01062e-20)
(1.13846 -2.36741 -3.01759e-20)
(1.1507 -2.3302 1.20999e-21)
(1.16165 -2.293 -3.31584e-21)
(1.17134 -2.25569 9.84613e-21)
(1.17985 -2.21812 -2.45699e-20)
(1.18735 -2.18007 2.1107e-20)
(1.19352 -2.14133 -4.30487e-20)
(1.08608 -4.63727 -8.14884e-20)
(0.975133 -4.28053 1.01524e-19)
(0.92435 -3.98887 -1.08802e-19)
(0.895667 -3.7544 -2.93896e-20)
(0.87993 -3.56588 -1.95059e-20)
(0.876064 -3.41276 -2.11182e-20)
(0.881498 -3.28706 -1.95356e-20)
(0.893768 -3.18255 -4.14938e-21)
(0.910978 -3.09436 -2.00943e-20)
(0.931618 -3.01864 -5.0614e-21)
(0.954469 -2.95244 3.56199e-20)
(0.978562 -2.89344 -2.03477e-20)
(1.00314 -2.83987 -2.5121e-20)
(1.0276 -2.79037 -4.30227e-20)
(1.0515 -2.7439 9.11757e-20)
(1.07451 -2.69968 -3.5739e-20)
(1.09638 -2.6571 1.34329e-20)
(1.11694 -2.61575 -5.09067e-20)
(1.13608 -2.5753 1.94132e-20)
(1.15376 -2.53552 -8.35925e-21)
(1.16995 -2.49624 1.02466e-20)
(1.18467 -2.45735 -3.95043e-21)
(1.19793 -2.41876 3.40794e-20)
(1.2098 -2.38039 -1.22682e-20)
(1.22031 -2.34216 3.39503e-20)
(1.22954 -2.30399 -6.69211e-21)
(1.23751 -2.26575 4.50315e-20)
(1.24432 -2.2273 1.26562e-20)
(1.25017 -2.18839 2.41178e-20)
(1.25465 -2.14886 -7.80855e-20)
(1.2078 -4.61051 1.29289e-19)
(1.08949 -4.26322 -2.56414e-20)
(1.03316 -3.97908 4.62032e-20)
(1.00036 -3.75102 -1.37571e-20)
(0.981563 -3.56797 4.81241e-20)
(0.975371 -3.41937 4.64217e-20)
(0.978972 -3.29732 5.36983e-20)
(0.989726 -3.19568 -4.66948e-21)
(1.00561 -3.10966 -5.29765e-20)
(1.02502 -3.03552 7.83442e-20)
(1.04666 -2.97037 -6.52663e-21)
(1.06953 -2.91199 5.74674e-20)
(1.09283 -2.85865 2.11308e-20)
(1.11596 -2.80907 7.65352e-21)
(1.13845 -2.76227 1.32198e-20)
(1.15997 -2.71749 1.76659e-20)
(1.18028 -2.67421 3.02185e-20)
(1.19921 -2.63202 -8.86745e-21)
(1.21668 -2.59064 4.55628e-20)
(1.23264 -2.54986 2.15254e-20)
(1.24707 -2.50956 -4.52856e-20)
(1.26 -2.46964 8.09909e-20)
(1.27147 -2.43002 -1.08272e-19)
(1.28154 -2.39064 1.03938e-19)
(1.29026 -2.35144 -3.47243e-20)
(1.2977 -2.31234 6.55648e-21)
(1.30391 -2.27323 -4.69982e-20)
(1.30898 -2.23396 2.63004e-20)
(1.31313 -2.19428 9.70978e-21)
(1.31589 -2.15403 -1.23366e-20)
(1.3289 -4.5807 -7.51979e-20)
(1.20369 -4.24317 7.62822e-20)
(1.14217 -3.96676 -2.09724e-20)
(1.10557 -3.74524 6.13035e-20)
(1.08396 -3.56771 5.81611e-21)
(1.07564 -3.42364 1.40222e-20)
(1.07754 -3.30521 -1.09102e-19)
(1.08688 -3.2064 -1.92017e-20)
(1.10149 -3.1225 7.25438e-20)
(1.11969 -3.04988 5.70791e-20)
(1.14012 -2.98571 -9.76118e-20)
(1.16173 -2.92787 5.79466e-20)
(1.18371 -2.87471 -5.86079e-20)
(1.20543 -2.825 4.1686e-20)
(1.22644 -2.77781 -6.9574e-20)
(1.24639 -2.73246 -5.30392e-20)
(1.26505 -2.68844 3.10896e-21)
(1.28228 -2.6454 -2.52345e-20)
(1.29798 -2.60309 4.50493e-20)
(1.31212 -2.56133 1.79508e-20)
(1.32471 -2.52002 -1.19228e-20)
(1.33578 -2.47909 -3.67772e-21)
(1.34538 -2.43847 1.46896e-20)
(1.35357 -2.39812 -4.88257e-20)
(1.36044 -2.358 8.32061e-20)
(1.36605 -2.31802 -2.01573e-20)
(1.37044 -2.27811 -1.77767e-21)
(1.37374 -2.23809 7.49818e-20)
(1.37616 -2.19772 1.04459e-20)
(1.37717 -2.15685 -1.08444e-20)
(1.4493 -4.54784 1.945e-21)
(1.31767 -4.22038 -4.22954e-20)
(1.25135 -3.95187 -4.02393e-20)
(1.21124 -3.73699 -6.59562e-20)
(1.18708 -3.56502 1.70383e-21)
(1.1768 -3.42549 -4.92804e-20)
(1.17716 -3.31065 5.87314e-20)
(1.18516 -3.21461 -5.08789e-21)
(1.19855 -3.13277 5.04279e-20)
(1.21554 -3.06159 -4.09429e-20)
(1.23475 -2.99835 -2.19609e-20)
(1.25507 -2.94099 1.20771e-20)
(1.27567 -2.88795 6.60763e-21)
(1.29592 -2.83807 -6.97049e-20)
(1.31536 -2.79046 4.17328e-20)
(1.33366 -2.74449 -2.16038e-20)
(1.35059 -2.69972 6.06683e-20)
(1.36601 -2.65583 -2.04067e-20)
(1.37985 -2.61259 2.17975e-20)
(1.3921 -2.56986 5.28572e-21)
(1.40276 -2.52757 3.77187e-20)
(1.41189 -2.48566 -7.71673e-21)
(1.41954 -2.44408 6.34272e-20)
(1.42581 -2.40281 -7.06999e-20)
(1.43076 -2.36182 -2.41408e-20)
(1.43448 -2.32104 2.01464e-20)
(1.43703 -2.28039 -1.58805e-21)
(1.43851 -2.2397 -3.59773e-20)
(1.43918 -2.19872 2.95559e-20)
(1.43843 -2.15733 -3.59954e-20)
(1.56894 -4.51194 1.29612e-19)
(1.43137 -4.19482 3.72441e-20)
(1.36063 -3.93439 4.38272e-20)
(1.31734 -3.72622 6.13413e-20)
(1.29085 -3.55984 9.23735e-20)
(1.27881 -3.42482 -2.21368e-21)
(1.27774 -3.31353 1.33186e-20)
(1.28449 -3.22021 1.09461e-19)
(1.2967 -3.14036 -2.22844e-20)
(1.3125 -3.07056 -4.11522e-20)
(1.33046 -3.00818 7.46688e-20)
(1.34944 -2.95125 1.31735e-20)
(1.36861 -2.89828 1.00446e-21)
(1.38731 -2.84817 1.83786e-20)
(1.40511 -2.80011 3.41873e-20)
(1.42166 -2.75352 -7.14897e-20)
(1.43677 -2.70799 6.14842e-20)
(1.4503 -2.66324 1.08352e-20)
(1.46219 -2.61908 6.19944e-20)
(1.47245 -2.57541 -3.34158e-20)
(1.48111 -2.53217 5.69212e-20)
(1.48822 -2.48931 -6.0796e-20)
(1.49386 -2.44683 5.97914e-20)
(1.49813 -2.4047 8.62283e-21)
(1.50112 -2.3629 -4.0559e-20)
(1.50291 -2.32139 -1.36368e-20)
(1.50357 -2.28007 8.03696e-20)
(1.50322 -2.2388 5.89821e-20)
(1.50212 -2.19728 1.60033e-20)
(1.49959 -2.15547 -1.1525e-20)
(1.68774 -4.47302 1.39434e-20)
(1.54472 -4.16648 3.28844e-20)
(1.46995 -3.91426 1.32493e-19)
(1.42378 -3.71288 -2.17602e-19)
(1.39522 -3.5521 -2.18984e-20)
(1.3816 -3.42156 -2.34711e-20)
(1.37922 -3.31377 1.09307e-20)
(1.3848 -3.2231 1.58693e-20)
(1.39586 -3.14518 2.56866e-20)
(1.41047 -3.07668 -6.87368e-20)
(1.42715 -3.0151 -1.41026e-20)
(1.44475 -2.95854 4.04598e-20)
(1.46241 -2.90559 4.46356e-20)
(1.4795 -2.85523 -4.40615e-20)
(1.49556 -2.80669 -4.46574e-20)
(1.51028 -2.75946 7.28335e-20)
(1.52347 -2.71317 4.89316e-20)
(1.53502 -2.66757 -1.18818e-20)
(1.54488 -2.62252 -3.15621e-20)
(1.55307 -2.57794 6.31143e-21)
(1.55963 -2.53378 -7.5591e-20)
(1.56465 -2.49003 9.25968e-20)
(1.56822 -2.44669 -6.37426e-20)
(1.57044 -2.40376 -2.84321e-21)
(1.57142 -2.36123 4.33245e-20)
(1.57124 -2.31905 -1.3445e-20)
(1.56998 -2.27716 -4.13068e-20)
(1.56777 -2.23538 5.13146e-20)
(1.56489 -2.19343 -1.29884e-21)
(1.56059 -2.15129 9.43574e-21)
(1.80562 -4.43109 -9.47664e-21)
(1.65766 -4.13535 -3.32783e-20)
(1.57926 -3.89145 -1.54115e-19)
(1.53052 -3.6969 5.59531e-20)
(1.50012 -3.54172 -1.74023e-20)
(1.48509 -3.41563 5.86461e-20)
(1.48152 -3.31128 4.69081e-21)
(1.48599 -3.2232 -6.91051e-20)
(1.49592 -3.14713 1.07135e-19)
(1.50934 -3.07988 -9.74773e-20)
(1.52471 -3.01902 -4.24944e-21)
(1.54087 -2.96278 2.48419e-20)
(1.55696 -2.90981 -4.25628e-20)
(1.57235 -2.85916 5.02711e-20)
(1.58659 -2.81014 -9.60553e-20)
(1.59939 -2.76226 -2.23695e-20)
(1.61057 -2.71521 5.97729e-20)
(1.62005 -2.66879 1.30532e-22)
(1.62779 -2.62287 -3.90372e-20)
(1.63383 -2.5774 1.07371e-19)
(1.63823 -2.53237 -5.79071e-20)
(1.64109 -2.48778 -7.87047e-20)
(1.64252 -2.44365 2.64424e-20)
(1.64264 -2.4 -7.82933e-20)
(1.64156 -2.3568 -1.92307e-20)
(1.63938 -2.31405 -2.52742e-21)
(1.63617 -2.27165 -5.29643e-20)
(1.63209 -2.22947 6.34785e-20)
(1.62743 -2.18717 -3.56841e-20)
(1.62135 -2.1448 4.21161e-20)
(1.9225 -4.38617 -4.82297e-20)
(1.77012 -4.1014 -1.37696e-19)
(1.68848 -3.86594 6.77679e-20)
(1.63749 -3.67824 -6.61962e-20)
(1.60548 -3.52864 -4.86303e-20)
(1.58921 -3.40694 -2.88314e-20)
(1.58456 -3.30598 -1.07981e-19)
(1.58798 -3.2204 7.44101e-20)
(1.59681 -3.14612 -1.86744e-19)
(1.60901 -3.08004 -6.96295e-20)
(1.62303 -3.01986 2.47382e-20)
(1.6377 -2.96389 4.24573e-20)
(1.65214 -2.91086 -5.10981e-22)
(1.66574 -2.8599 -8.33141e-20)
(1.67808 -2.81038 1.97953e-20)
(1.68887 -2.76186 -7.85505e-20)
(1.69796 -2.71406 -5.71734e-20)
(1.70527 -2.66683 -3.50516e-20)
(1.7108 -2.62008 -7.25443e-21)
(1.71461 -2.57378 6.03352e-20)
(1.71678 -2.52793 8.73536e-20)
(1.71742 -2.48256 -2.6532e-20)
(1.71666 -2.43771 -2.62889e-20)
(1.71462 -2.39339 5.08773e-20)
(1.71144 -2.34962 2.83901e-20)
(1.70722 -2.30637 -2.27707e-20)
(1.70205 -2.26357 -2.58751e-20)
(1.69609 -2.22107 2.91963e-21)
(1.68964 -2.17853 2.72008e-20)
(1.68181 -2.13604 3.75595e-20)
(2.03832 -4.33827 -9.17819e-21)
(1.88204 -4.06463 1.77039e-19)
(1.79756 -3.83767 1.38623e-19)
(1.74461 -3.65685 1.08555e-19)
(1.71123 -3.51279 -7.1483e-20)
(1.69388 -3.39544 -1.43337e-20)
(1.68824 -3.29778 1.26155e-20)
(1.69067 -3.21464 9.58689e-20)
(1.6984 -3.14206 3.64053e-20)
(1.70938 -3.07709 8.95397e-20)
(1.722 -3.01753 -1.27316e-19)
(1.7351 -2.96178 1.27032e-20)
(1.74783 -2.90867 5.29117e-20)
(1.75956 -2.85739 3.3424e-20)
(1.7699 -2.80735 7.04387e-20)
(1.77859 -2.7582 -4.81541e-20)
(1.78549 -2.70968 -4.53645e-20)
(1.79056 -2.66168 8.37111e-21)
(1.79381 -2.61413 9.94974e-20)
(1.79531 -2.56704 -1.61466e-19)
(1.79518 -2.52044 5.66007e-20)
(1.79353 -2.47435 -3.91261e-22)
(1.79051 -2.42885 1.09845e-19)
(1.78628 -2.38395 -4.75113e-20)
(1.78096 -2.33969 -2.5223e-21)
(1.77468 -2.29603 -3.11438e-20)
(1.76753 -2.25293 2.97453e-20)
(1.75968 -2.21021 7.32642e-21)
(1.75145 -2.16753 -3.37274e-20)
(1.74187 -2.12503 1.14879e-19)
(2.153 -4.28742 -1.80092e-19)
(1.99333 -4.02504 -1.0826e-19)
(1.90641 -3.80663 -2.80061e-19)
(1.85182 -3.63267 -1.29613e-19)
(1.81729 -3.49411 1.22115e-19)
(1.799 -3.38103 -7.31307e-20)
(1.79248 -3.2866 -1.88839e-20)
(1.79395 -3.20582 -4.97613e-20)
(1.8006 -3.13488 8.58645e-20)
(1.81031 -3.07095 -2.0404e-20)
(1.82149 -3.01196 -3.20473e-20)
(1.83297 -2.95639 -3.94999e-21)
(1.84389 -2.90317 -1.33404e-19)
(1.85368 -2.85155 -6.17083e-21)
(1.86193 -2.80101 3.56511e-20)
(1.86843 -2.75124 -4.5025e-21)
(1.87306 -2.70203 -1.43838e-19)
(1.8758 -2.65329 1.41281e-19)
(1.87668 -2.605 -1.40474e-19)
(1.87581 -2.55718 5.53612e-20)
(1.8733 -2.50988 7.92653e-21)
(1.86931 -2.46315 3.06562e-21)
(1.86399 -2.41707 -6.01949e-20)
(1.85751 -2.37168 2.06978e-20)
(1.85002 -2.327 -1.97254e-23)
(1.84166 -2.28304 6.97455e-21)
(1.83251 -2.23973 -1.56046e-19)
(1.82277 -2.1969 4.21644e-20)
(1.81278 -2.15419 4.58505e-20)
(1.80147 -2.11179 5.1953e-20)
(2.26646 -4.23362 3.53856e-19)
(2.10394 -3.9826 1.25592e-19)
(2.01497 -3.77278 7.47071e-20)
(1.95904 -3.60567 1.19064e-19)
(1.92358 -3.47254 -1.48589e-20)
(1.9045 -3.36366 9.25838e-20)
(1.89718 -3.27238 2.08151e-19)
(1.89773 -3.19387 -2.62042e-20)
(1.90328 -3.12449 1.29001e-20)
(1.9117 -3.06154 2.5583e-19)
(1.92139 -3.00307 -3.38322e-20)
(1.93117 -2.94766 3.69054e-20)
(1.94021 -2.89431 -1.39453e-20)
(1.94796 -2.84235 -2.00176e-21)
(1.95404 -2.79132 1.95874e-19)
(1.95826 -2.74095 7.52101e-21)
(1.96053 -2.69108 2.1328e-19)
(1.96086 -2.64165 -2.64935e-20)
(1.9593 -2.59268 -4.72686e-20)
(1.95598 -2.54419 1.11082e-19)
(1.95104 -2.49625 -1.02445e-19)
(1.94465 -2.44896 1.13283e-19)
(1.93698 -2.40238 6.17268e-20)
(1.92822 -2.35657 -5.04601e-20)
(1.91853 -2.31158 7.73554e-20)
(1.90806 -2.2674 9.2967e-21)
(1.89691 -2.22398 -3.31845e-20)
(1.88528 -2.18115 1.75678e-20)
(1.87353 -2.13852 1.19177e-19)
(1.86053 -2.09635 1.85922e-20)
(2.37862 -4.17692 -6.09626e-20)
(2.21378 -3.93733 -1.27391e-19)
(2.12317 -3.7361 5.37198e-20)
(2.06618 -3.57579 -2.15185e-19)
(2.03001 -3.44803 1.03982e-19)
(2.01028 -3.34325 -1.92225e-19)
(2.00223 -3.25503 -1.28436e-19)
(2.00188 -3.17871 3.62732e-20)
(2.00634 -3.11082 3.70039e-20)
(2.01343 -3.0488 -1.77568e-19)
(2.02155 -2.9908 -7.79375e-20)
(2.02956 -2.93552 3.67176e-20)
(2.03665 -2.88204 -1.01043e-19)
(2.04227 -2.82974 -4.07524e-20)
(2.0461 -2.77823 -2.77074e-20)
(2.04795 -2.72729 -2.79277e-20)
(2.04779 -2.67681 -1.19291e-19)
(2.04562 -2.62675 -7.55748e-20)
(2.04156 -2.57714 1.33477e-20)
(2.03572 -2.52805 2.50156e-20)
(2.02829 -2.47956 2.72404e-20)
(2.01945 -2.43177 -9.40441e-20)
(2.00939 -2.38477 3.58024e-20)
(1.99831 -2.33863 -7.40984e-20)
(1.98639 -2.29341 7.06732e-20)
(1.97378 -2.24911 -9.30125e-20)
(1.96062 -2.2057 2.96959e-20)
(1.9471 -2.16298 -4.62079e-20)
(1.93362 -2.12055 -6.64045e-20)
(1.91896 -2.07872 -6.7999e-21)
(2.48941 -4.11732 -1.30455e-19)
(2.32278 -3.88921 -1.16436e-19)
(2.23092 -3.69657 -1.1497e-19)
(2.17319 -3.54299 -8.68163e-20)
(2.13649 -3.42051 2.6822e-19)
(2.11624 -3.31975 3.8435e-20)
(2.10752 -3.23449 1.17636e-19)
(2.1063 -3.16028 1.82138e-19)
(2.10963 -3.09381 8.89084e-20)
(2.11535 -3.03266 -1.18813e-19)
(2.12186 -2.97511 1.94659e-19)
(2.12802 -2.91993 -1.90439e-19)
(2.13307 -2.8663 1.82262e-19)
(2.13648 -2.81368 2.2007e-20)
(2.13797 -2.76172 4.74449e-20)
(2.13738 -2.71026 1.57423e-20)
(2.1347 -2.6592 1.95491e-19)
(2.12997 -2.60856 -2.92133e-20)
(2.12333 -2.55839 2.66984e-20)
(2.11493 -2.50876 9.02858e-20)
(2.10496 -2.45979 -1.01322e-19)
(2.09362 -2.41159 8.15505e-20)
(2.08112 -2.36425 3.35915e-21)
(2.06768 -2.31787 3.75406e-20)
(2.0535 -2.27251 6.9202e-20)
(2.03875 -2.22819 -1.17658e-20)
(2.02355 -2.18488 6.92644e-20)
(2.00815 -2.14239 1.01214e-19)
(1.99295 -2.10027 -1.09963e-19)
(1.97666 -2.05891 -6.8204e-20)
(2.59875 -4.05486 3.85021e-19)
(2.43087 -3.83825 -4.36239e-20)
(2.33817 -3.65416 9.00102e-20)
(2.27996 -3.50724 1.66399e-19)
(2.24294 -3.38995 -4.84819e-19)
(2.22228 -3.2931 5.34471e-20)
(2.21295 -3.2107 -1.88727e-19)
(2.21086 -3.13852 1.91923e-19)
(2.21305 -3.07341 -1.5373e-19)
(2.21735 -3.01308 8.40349e-20)
(2.22217 -2.95593 -3.07546e-19)
(2.22642 -2.90085 8.40905e-21)
(2.22934 -2.84708 -1.04388e-19)
(2.23046 -2.79415 1.59083e-19)
(2.22953 -2.74178 -1.70199e-19)
(2.22642 -2.68983 -8.9476e-21)
(2.22114 -2.63826 -1.40734e-19)
(2.2138 -2.5871 -1.20949e-20)
(2.20452 -2.53643 1.21652e-20)
(2.19349 -2.48635 3.21433e-20)
(2.18093 -2.43697 -1.81871e-19)
(2.16704 -2.38843 -5.67618e-21)
(2.15207 -2.34083 -1.03119e-19)
(2.13625 -2.29429 -2.41066e-20)
(2.11977 -2.24888 -6.40564e-20)
(2.10285 -2.20463 -7.05511e-20)
(2.08561 -2.16153 -7.42275e-20)
(2.06832 -2.11938 1.22892e-19)
(2.05142 -2.0777 3.33192e-20)
(2.03354 -2.03694 -6.63029e-20)
(2.70657 -3.98956 -2.56996e-19)
(2.53798 -3.78446 9.64616e-20)
(2.44483 -3.60885 -1.66522e-19)
(2.38643 -3.46851 2.47126e-20)
(2.34926 -3.35628 2.77436e-19)
(2.32829 -3.26324 -1.41781e-19)
(2.31839 -3.18361 -1.52439e-19)
(2.31544 -3.11337 -1.30025e-19)
(2.31646 -3.04955 5.86947e-21)
(2.31928 -2.99 8.51307e-20)
(2.32236 -2.93323 -6.27867e-20)
(2.32461 -2.87823 2.20711e-21)
(2.32533 -2.82433 1.99144e-19)
(2.32408 -2.77112 -1.01591e-19)
(2.32064 -2.71837 2.72366e-20)
(2.31494 -2.66599 -8.4011e-20)
(2.30701 -2.61397 3.22909e-20)
(2.29697 -2.56236 7.03033e-20)
(2.28501 -2.51127 8.11088e-20)
(2.27131 -2.4608 -8.91145e-20)
(2.25611 -2.4111 1.26602e-20)
(2.23965 -2.3623 7.76608e-20)
(2.22217 -2.31452 1.3561e-19)
(2.20392 -2.26789 3.66409e-20)
(2.18513 -2.2225 -1.41908e-19)
(2.16601 -2.17841 1.66279e-19)
(2.14671 -2.13561 -8.35778e-20)
(2.12752 -2.09391 -1.00713e-19)
(2.10892 -2.0528 -6.21136e-20)
(2.0895 -2.01279 -8.59302e-20)
(2.81279 -3.92146 1.38051e-19)
(2.64405 -3.72784 -1.11584e-19)
(2.55084 -3.56064 4.27868e-20)
(2.49251 -3.42674 2.30548e-19)
(2.45535 -3.31946 6.37273e-20)
(2.43415 -3.23011 -5.4876e-20)
(2.42373 -3.15315 1.3397e-19)
(2.41991 -3.08478 3.09726e-20)
(2.41972 -3.02219 1.30416e-19)
(2.42102 -2.96338 7.23861e-20)
(2.42227 -2.90698 3.39339e-21)
(2.42246 -2.85207 4.66716e-20)
(2.4209 -2.79806 -1.4838e-20)
(2.4172 -2.7446 2.61294e-20)
(2.41119 -2.69152 7.39856e-20)
(2.40282 -2.63876 -4.0969e-20)
(2.39218 -2.58635 1.02535e-19)
(2.3794 -2.53437 1.04994e-19)
(2.3647 -2.48292 -1.20471e-19)
(2.34829 -2.43215 1.24494e-19)
(2.33042 -2.3822 2.67132e-19)
(2.31135 -2.33321 -1.73685e-19)
(2.29134 -2.28533 1.76337e-19)
(2.27064 -2.23868 -1.23822e-19)
(2.2495 -2.19338 -1.78541e-20)
(2.22815 -2.14952 1.35498e-19)
(2.20676 -2.1071 -2.73875e-20)
(2.18565 -2.06596 1.03011e-19)
(2.16536 -2.02554 1.03179e-19)
(2.14443 -1.98642 -2.07246e-19)
(2.91736 -3.85059 -1.33499e-19)
(2.74901 -3.6684 6.38829e-20)
(2.65613 -3.5095 2.63989e-20)
(2.59811 -3.38192 -2.7146e-19)
(2.56111 -3.27945 -1.42545e-19)
(2.53977 -3.19366 1.08469e-19)
(2.52883 -3.11929 -3.05321e-19)
(2.52413 -3.05271 3.73203e-19)
(2.5227 -2.9913 -2.11482e-19)
(2.52241 -2.9332 2.53613e-20)
(2.52178 -2.87715 -4.00801e-20)
(2.51982 -2.82234 -1.25155e-19)
(2.5159 -2.76824 2.61424e-19)
(2.50969 -2.71457 1.00312e-19)
(2.50103 -2.66121 -1.0383e-19)
(2.48994 -2.60814 3.05964e-21)
(2.47653 -2.55541 5.94448e-20)
(2.46097 -2.50313 -1.29363e-19)
(2.44349 -2.45142 2.76552e-20)
(2.42434 -2.40043 9.11996e-20)
(2.40378 -2.3503 -3.77781e-20)
(2.38209 -2.3012 6.38729e-20)
(2.35952 -2.25328 -1.26193e-19)
(2.33634 -2.20667 1.84331e-19)
(2.31283 -2.16151 4.37999e-20)
(2.28921 -2.11792 -1.18e-19)
(2.26569 -2.07595 -1.03158e-19)
(2.24263 -2.03545 5.3404e-23)
(2.22064 -1.99583 1.43912e-19)
(2.19821 -1.95776 -3.50221e-20)
(3.02021 -3.77698 -3.66425e-20)
(2.85283 -3.60615 -2.69302e-19)
(2.76065 -3.45541 3.23414e-19)
(2.70316 -3.33398 2.21621e-19)
(2.66643 -3.23619 2.24378e-19)
(2.64499 -3.15386 6.40531e-20)
(2.63357 -3.08197 9.62833e-20)
(2.62797 -3.01711 5.00344e-20)
(2.62525 -2.95684 -1.98942e-19)
(2.62332 -2.89943 3.67667e-19)
(2.62073 -2.84373 -3.00863e-19)
(2.61656 -2.78903 -2.02436e-20)
(2.61021 -2.73488 4.4795e-20)
(2.60141 -2.68105 -2.0096e-19)
(2.59005 -2.62747 1.77059e-19)
(2.57618 -2.57416 -5.31408e-20)
(2.55995 -2.52119 -1.38111e-19)
(2.54157 -2.46869 5.40909e-20)
(2.5213 -2.4168 -1.04103e-19)
(2.49939 -2.36566 -9.26546e-20)
(2.47612 -2.31544 -1.00137e-19)
(2.45179 -2.2663 2.28496e-20)
(2.42665 -2.21839 1.36412e-20)
(2.401 -2.17187 -2.50382e-19)
(2.37508 -2.12688 -9.62123e-20)
(2.34917 -2.08358 6.19539e-20)
(2.32347 -2.04208 7.77219e-20)
(2.2984 -2.00226 -1.07592e-19)
(2.27464 -1.96355 -4.1343e-20)
(2.25073 -1.92666 4.1753e-21)
(3.12132 -3.70065 -3.17768e-20)
(2.95548 -3.54109 1.74283e-19)
(2.86433 -3.39833 -4.97094e-20)
(2.80755 -3.2829 -6.14061e-20)
(2.77119 -3.18964 -3.49914e-19)
(2.74971 -3.11065 -7.79176e-20)
(2.7378 -3.04116 1.49979e-19)
(2.73128 -2.97797 -9.99334e-20)
(2.72722 -2.91879 -1.08133e-20)
(2.72359 -2.86205 -1.99478e-20)
(2.71899 -2.80671 1.13988e-19)
(2.71253 -2.75215 -1.81669e-19)
(2.70369 -2.69798 -1.22909e-19)
(2.69223 -2.64405 1.45545e-19)
(2.67811 -2.59032 -8.38182e-20)
(2.66142 -2.53684 -1.0185e-19)
(2.64234 -2.48372 2.19173e-19)
(2.62112 -2.43109 -3.45675e-20)
(2.59802 -2.3791 1.31504e-19)
(2.57334 -2.32791 -1.21004e-19)
(2.54738 -2.27768 -9.87144e-20)
(2.52041 -2.22856 8.63073e-20)
(2.49272 -2.18072 -9.61568e-21)
(2.46459 -2.13432 -6.54773e-20)
(2.43628 -2.08951 5.79784e-20)
(2.40804 -2.04648 -1.82136e-19)
(2.38012 -2.00541 1.11362e-19)
(2.35295 -1.96627 -1.74133e-21)
(2.32737 -1.92849 -1.17915e-19)
(2.30195 -1.89286 1.79501e-19)
(3.22079 -3.62167 1.3274e-19)
(3.05699 -3.47323 -3.44789e-19)
(2.96712 -3.33823 -2.91908e-20)
(2.91117 -3.2286 1.64866e-19)
(2.87525 -3.13975 -4.32566e-20)
(2.85376 -3.064 -1.22945e-19)
(2.84137 -2.99683 5.83323e-20)
(2.8339 -2.93525 6.8089e-20)
(2.82847 -2.87714 5.92137e-21)
(2.82308 -2.82107 8.52467e-20)
(2.81639 -2.7661 2.74908e-19)
(2.80758 -2.7117 -9.71476e-20)
(2.79619 -2.65757 2.55674e-20)
(2.78202 -2.6036 -6.6929e-20)
(2.76509 -2.54979 2.5789e-19)
(2.74554 -2.49623 -4.6698e-20)
(2.72358 -2.44304 1.55785e-19)
(2.6995 -2.39037 -6.09185e-20)
(2.67358 -2.33838 6.60606e-20)
(2.64614 -2.28723 1.00512e-19)
(2.61749 -2.23707 1.73829e-20)
(2.58791 -2.18805 6.85031e-20)
(2.5577 -2.14034 -5.70843e-20)
(2.52712 -2.09409 1.59701e-19)
(2.49643 -2.04945 -6.56445e-20)
(2.46589 -2.00664 2.42049e-19)
(2.43571 -1.9659 -7.00787e-20)
(2.40636 -1.92729 4.8699e-20)
(2.37884 -1.89031 -9.23155e-20)
(2.35192 -1.85595 1.7525e-19)
(3.31899 -3.54016 -2.92997e-19)
(3.15749 -3.40251 1.08553e-20)
(3.06894 -3.275 -1.80348e-19)
(3.01388 -3.17102 3.32277e-20)
(2.97846 -3.08646 9.30539e-21)
(2.95699 -3.01388 -1.64402e-19)
(2.94412 -2.94897 -3.11666e-19)
(2.93569 -2.88895 1.57158e-19)
(2.92884 -2.83189 -2.2461e-19)
(2.92164 -2.77647 -1.19814e-19)
(2.9128 -2.7219 -6.90157e-20)
(2.90158 -2.66771 -5.62095e-20)
(2.88757 -2.61367 1.70153e-21)
(2.87064 -2.55973 -2.02579e-19)
(2.85086 -2.50593 1.34807e-19)
(2.82842 -2.45238 -2.21847e-19)
(2.80356 -2.39922 -5.66093e-20)
(2.77661 -2.34661 6.19909e-20)
(2.74787 -2.29472 7.8534e-20)
(2.7177 -2.2437 7.9008e-20)
(2.68639 -2.1937 6.08991e-20)
(2.65426 -2.14488 -1.53366e-19)
(2.62158 -2.09736 1.55635e-19)
(2.58862 -2.05128 -1.65996e-20)
(2.55563 -2.0068 -4.21983e-20)
(2.52282 -1.96411 -1.68254e-19)
(2.49038 -1.92347 -8.98725e-20)
(2.45873 -1.88498 1.67017e-19)
(2.42897 -1.84829 -5.47286e-20)
(2.40026 -1.81527 -5.71774e-20)
(3.41635 -3.45579 1.27318e-19)
(3.257 -3.32851 1.1727e-20)
(3.16959 -3.20841 -3.56519e-20)
(3.11547 -3.11009 -7.9261e-21)
(3.08063 -3.02978 -6.5692e-20)
(3.05925 -2.96029 2.22172e-19)
(3.04591 -2.89758 -1.05693e-19)
(3.0365 -2.83909 6.94559e-20)
(3.02819 -2.78305 2.90378e-20)
(3.01912 -2.7283 1.06433e-19)
(3.00808 -2.67415 -4.18264e-20)
(2.99438 -2.62021 2.36921e-19)
(2.97769 -2.56632 -2.06387e-20)
(2.95796 -2.51249 1.56674e-19)
(2.9353 -2.45879 -2.65162e-19)
(2.90993 -2.40534 -2.06767e-20)
(2.88217 -2.35231 1.73978e-19)
(2.85235 -2.29988 -1.08784e-19)
(2.82082 -2.24819 -7.69722e-20)
(2.78793 -2.19742 -1.33323e-19)
(2.75401 -2.1477 -1.18047e-19)
(2.71939 -2.09917 1.26896e-19)
(2.68434 -2.05194 -1.20368e-19)
(2.64914 -2.00612 2.63039e-20)
(2.61403 -1.96183 9.81594e-20)
(2.57919 -1.9192 6.8399e-20)
(2.54479 -1.87837 6.5305e-20)
(2.51105 -1.83932 4.83623e-20)
(2.47857 -1.80212 -1.308e-19)
(2.44693 -1.77 -5.63713e-20)
(5.01415 -0.0291761 1.90062e-21)
(5.00639 -0.161049 1.88705e-20)
(4.99551 -0.291946 6.54877e-20)
(4.98149 -0.422144 3.58081e-20)
(4.9641 -0.551704 -7.5636e-20)
(4.9433 -0.68059 2.29124e-20)
(4.91908 -0.808737 -2.40094e-20)
(4.89147 -0.936064 -6.05917e-20)
(4.86049 -1.06249 1.54112e-19)
(4.82619 -1.18791 -3.67379e-20)
(4.78859 -1.31226 -3.71084e-20)
(4.74773 -1.43544 -7.82681e-20)
(4.70365 -1.55737 -2.23943e-19)
(4.65641 -1.67796 2.07495e-20)
(4.60604 -1.79714 -1.01977e-20)
(4.55259 -1.91481 -6.96015e-20)
(4.49612 -2.03092 1.49446e-19)
(4.43666 -2.14537 8.08567e-20)
(4.37429 -2.2581 1.54668e-19)
(4.30904 -2.36903 7.5464e-20)
(4.24098 -2.4781 -1.68477e-19)
(4.17017 -2.58523 6.76091e-21)
(4.09666 -2.69037 -3.17281e-19)
(4.02052 -2.79344 4.81196e-19)
(3.94182 -2.89439 -1.5773e-19)
(3.86061 -2.99317 -2.02752e-19)
(3.77697 -3.08973 -2.83515e-20)
(3.69097 -3.18405 -1.58241e-21)
(3.60271 -3.27621 -1.51645e-19)
(3.51215 -3.36658 2.6999e-19)
(5.04565 -0.0579818 7.91258e-21)
(5.03185 -0.190091 1.17033e-20)