/*--------------------------------*- C++ -*----------------------------------*\
  =========                 |
  \\      /  F ield         | OpenFOAM: The Open Source CFD Toolbox
   \\    /   O peration     | Website:  https://openfoam.org
    \\  /    A nd           | Version:  6.0
     \\/     M anipulation  |
\*---------------------------------------------------------------------------*/
FoamFile
{
    version     2.0;
    format      ascii;
    class       volScalarField;
    location    "10";
    object      p;
}
// * * * * * * * * * * * * * * * * * * * * * * * * * * * * * * * * * * * * * //

dimensions      [0 2 -2 0 0 0 0];

internalField   nonuniform List<scalar> 
19200
(
-151.131
-136.475
-125.503
-116.205
-107.56
-99.6081
-92.324
-85.637
-79.4935
-73.8486
-68.661
-63.8921
-59.5059
-55.4692
-51.7514
-48.3244
-45.1624
-42.2421
-39.5422
-37.0435
-34.7286
-32.5817
-30.5887
-28.7367
-27.014
-25.4103
-23.9165
-22.5234
-21.2225
-20.0157
-151.619
-136.987
-126.011
-116.694
-108.025
-100.05
-92.7424
-86.0338
-79.8705
-74.2077
-69.004
-64.2207
-59.8216
-55.7733
-52.045
-48.6083
-45.4375
-42.5091
-39.8017
-37.2961
-34.9747
-32.8218
-30.823
-28.9656
-27.2377
-25.6291
-24.1306
-22.7327
-21.4267
-20.2169
-152.124
-137.495
-126.513
-117.177
-108.485
-100.487
-93.1569
-86.427
-80.2442
-74.5638
-69.3444
-64.5469
-60.135
-56.0753
-52.3366
-48.8905
-45.7111
-42.7747
-40.0599
-37.5474
-35.2196
-33.0607
-31.0562
-29.1934
-27.4604
-25.8469
-24.3436
-22.9409
-21.6298
-20.4173
-152.64
-138.005
-127.011
-117.656
-108.942
-100.92
-93.5674
-86.8166
-80.6145
-74.9168
-69.6818
-64.8703
-60.446
-56.375
-52.6261
-49.1707
-45.9827
-43.0385
-40.3164
-37.7972
-35.463
-33.2981
-31.2881
-29.4199
-27.6819
-26.0635
-24.5555
-23.148
-21.832
-20.6168
-153.161
-138.516
-127.506
-118.131
-109.394
-101.349
-93.9742
-87.2025
-80.9814
-75.2666
-70.0162
-65.191
-60.7544
-56.6723
-52.9133
-49.4488
-46.2524
-43.3004
-40.5712
-38.0453
-35.7049
-33.5341
-31.5186
-29.6451
-27.9021
-26.2789
-24.7663
-23.3539
-22.0329
-20.8154
-153.683
-139.027
-128
-118.603
-109.843
-101.774
-94.377
-87.5846
-81.3447
-75.6129
-70.3474
-65.5087
-61.0599
-56.9669
-53.1981
-49.7245
-46.5199
-43.5603
-40.8241
-38.2915
-35.945
-33.7685
-31.7475
-29.8689
-28.1209
-26.493
-24.9757
-23.5587
-22.2328
-21.013
-154.205
-139.536
-128.49
-119.072
-110.288
-102.195
-94.7757
-87.9627
-81.7041
-75.9556
-70.6752
-65.8231
-61.3624
-57.2587
-53.4802
-49.9978
-46.7851
-43.818
-41.0749
-38.5359
-36.1833
-34.0012
-31.9748
-30.0911
-28.3382
-26.7057
-25.1839
-23.7621
-22.4314
-21.2096
-154.724
-140.043
-128.978
-119.536
-110.728
-102.612
-95.1701
-88.3366
-82.0595
-76.2944
-70.9993
-66.1341
-61.6617
-57.5474
-53.7594
-50.2684
-47.0477
-44.0734
-41.3234
-38.7781
-36.4197
-34.2319
-32.2003
-30.3117
-28.554
-26.9169
-25.3907
-23.9642
-22.6288
-21.4052
-155.241
-140.547
-129.461
-119.997
-111.164
-103.024
-95.56
-88.7061
-82.4106
-76.6292
-71.3195
-66.4415
-61.9575
-57.8329
-54.0355
-50.536
-47.3076
-44.3261
-41.5695
-39.0181
-36.6538
-34.4607
-32.424
-30.5305
-28.7682
-27.1267
-25.596
-24.165
-22.8249
-21.5998
-155.755
-141.047
-129.941
-120.452
-111.595
-103.432
-95.9452
-89.0709
-82.7573
-76.9597
-71.6357
-66.7449
-62.2496
-58.1149
-54.3084
-50.8006
-47.5646
-44.5761
-41.813
-39.2556
-36.8857
-34.6873
-32.6456
-30.7474
-28.9807
-27.3348
-25.7999
-24.3644
-23.0198
-21.7935
-156.264
-141.542
-130.415
-120.903
-112.022
-103.834
-96.3252
-89.4308
-83.0991
-77.2855
-71.9474
-67.0441
-62.5378
-58.3931
-54.5777
-51.0618
-47.8184
-44.8231
-42.0537
-39.4904
-37.1151
-34.9116
-32.8652
-30.9624
-29.1913
-27.5413
-26.0023
-24.5624
-23.2135
-21.9861
-156.768
-142.032
-130.885
-121.349
-112.442
-104.231
-96.6999
-89.7854
-83.4359
-77.6065
-72.2545
-67.3389
-62.8217
-58.6673
-54.8431
-51.3193
-48.0687
-45.0668
-42.2914
-39.7224
-37.3419
-35.1335
-33.0824
-31.1752
-29.4
-27.746
-26.2031
-24.759
-23.4059
-22.1778
-157.266
-142.516
-131.349
-121.788
-112.857
-104.622
-97.0688
-90.1344
-83.7672
-77.9223
-72.5566
-67.6289
-63.101
-58.9372
-55.1045
-51.573
-48.3154
-45.3071
-42.5258
-39.9514
-37.5658
-35.3527
-33.2971
-31.3859
-29.6067
-27.9489
-26.4022
-24.9541
-23.5971
-22.3685
-157.759
-142.995
-131.806
-122.222
-113.266
-105.007
-97.4318
-90.4776
-84.0929
-78.2326
-72.8534
-67.9139
-63.3755
-59.2024
-55.3614
-51.8224
-48.5581
-45.5436
-42.7566
-40.177
-37.7866
-35.5689
-33.5092
-31.594
-29.8111
-28.1498
-26.5997
-25.1477
-23.787
-22.5584
-158.245
-143.468
-132.258
-122.649
-113.668
-105.385
-97.7884
-90.8146
-84.4126
-78.5371
-73.1446
-68.1935
-63.6449
-59.4626
-55.6136
-52.0673
-48.7964
-45.776
-42.9836
-40.399
-38.0039
-35.7821
-33.7184
-31.7995
-30.0132
-28.3486
-26.7953
-25.3398
-23.9756
-22.7473
-158.725
-143.933
-132.702
-123.069
-114.063
-105.757
-98.1383
-91.1451
-84.7259
-78.8354
-73.4298
-68.4673
-63.9086
-59.7175
-55.8606
-52.3073
-49.0301
-46.0039
-43.2063
-40.6169
-38.2175
-35.9917
-33.9244
-32.0022
-30.2127
-28.5451
-26.9889
-25.5302
-24.1629
-22.9354
-159.198
-144.392
-133.14
-123.482
-114.452
-106.121
-98.4812
-91.4687
-85.0325
-79.1272
-73.7087
-68.735
-64.1665
-59.9667
-56.1021
-52.542
-49.2586
-46.2269
-43.4243
-40.8304
-38.427
-36.1974
-34.1268
-32.2015
-30.4092
-28.7391
-27.1804
-25.7189
-24.3489
-23.1226
-159.664
-144.844
-133.57
-123.888
-114.832
-106.479
-98.8168
-91.7851
-85.3321
-79.4122
-73.981
-68.9961
-64.418
-60.2097
-56.3376
-52.7708
-49.4815
-46.4445
-43.6371
-41.039
-38.6318
-36.3988
-34.3252
-32.3972
-30.6025
-28.9303
-27.3694
-25.9055
-24.5333
-23.3088
-160.124
-145.289
-133.993
-124.286
-115.206
-106.828
-99.1447
-92.094
-85.6243
-79.6899
-74.2461
-69.2504
-64.6627
-60.4461
-56.5666
-52.9934
-49.6983
-46.6561
-43.8442
-41.2421
-38.8313
-36.5953
-34.519
-32.5887
-30.792
-29.1181
-27.5557
-26.0899
-24.716
-23.494
-160.576
-145.726
-134.408
-124.676
-115.571
-107.169
-99.4648
-92.395
-85.9088
-79.9601
-74.5039
-69.4973
-64.9003
-60.6755
-56.7888
-53.2091
-49.9084
-46.8613
-44.045
-41.4391
-39.025
-36.7862
-34.7075
-32.7753
-30.9771
-29.302
-27.7385
-26.2715
-24.8967
-23.678
-161.022
-146.156
-134.816
-125.059
-115.928
-107.503
-99.7766
-92.6879
-86.1853
-80.2223
-74.7538
-69.7366
-65.1302
-60.8973
-57.0034
-53.4175
-50.1112
-47.0593
-44.2387
-41.6291
-39.212
-36.9706
-34.8899
-32.9562
-31.1569
-29.4811
-27.9173
-26.4497
-25.0748
-23.8602
-161.462
-146.578
-135.216
-125.433
-116.276
-107.827
-100.08
-92.9724
-86.4534
-80.4762
-74.9955
-69.9677
-65.3522
-61.1111
-57.2102
-53.618
-50.3062
-47.2493
-44.4246
-41.8114
-39.3913
-37.1476
-35.0652
-33.1303
-31.3304
-29.6546
-28.0911
-26.6238
-25.2496
-24.0399
-161.896
-146.994
-135.608
-125.798
-116.616
-108.143
-100.374
-93.2481
-86.7128
-80.7217
-75.2288
-70.1905
-65.5657
-61.3166
-57.4085
-53.8099
-50.4925
-47.4308
-44.6018
-41.985
-39.562
-37.316
-35.232
-33.2963
-31.4963
-29.8211
-28.2588
-26.7927
-25.4204
-24.2168
-162.327
-147.403
-135.992
-126.155
-116.947
-108.45
-100.66
-93.5148
-86.9634
-80.9583
-75.4534
-70.4046
-65.7706
-61.5133
-57.598
-53.9929
-50.6698
-47.6029
-44.7695
-42.1489
-39.7227
-37.4744
-35.3888
-33.4524
-31.6527
-29.9787
-28.4184
-26.9548
-25.5861
-24.3914
-162.752
-147.803
-136.367
-126.504
-117.268
-108.747
-100.936
-93.7723
-87.2049
-81.1859
-75.6691
-70.6098
-65.9666
-61.7011
-57.7783
-54.1666
-50.8374
-47.7651
-44.9268
-42.302
-39.8724
-37.6212
-35.5338
-33.5964
-31.7968
-30.1242
-28.5665
-27.1064
-25.7435
-24.5609
-163.174
-148.197
-136.733
-126.843
-117.581
-109.035
-101.202
-94.0202
-87.4369
-81.4044
-75.8757
-70.806
-66.1535
-61.8797
-57.9493
-54.3306
-50.995
-47.9168
-45.0732
-42.4436
-40.0097
-37.7552
-35.6652
-33.7262
-31.9263
-30.2546
-28.6993
-27.2431
-25.8871
-24.7152
-163.601
-148.586
-137.091
-127.172
-117.882
-109.312
-101.458
-94.2577
-87.659
-81.6131
-76.0728
-70.9928
-66.3311
-62.0489
-58.1107
-54.4847
-51.1422
-48.0576
-45.2078
-42.5726
-40.1337
-37.8747
-35.7813
-33.84
-32.0393
-30.3687
-28.8164
-27.3651
-26.0152
-24.8502
-164.052
-148.978
-137.44
-127.489
-118.171
-109.576
-101.702
-94.4842
-87.8706
-81.8118
-76.2602
-71.1703
-66.4994
-62.2087
-58.2626
-54.629
-51.2792
-48.1873
-45.3305
-42.6884
-40.2428
-37.9777
-35.8788
-33.9333
-32.1306
-30.4613
-28.914
-27.4707
-26.1331
-24.9961
-164.528
-149.37
-137.775
-127.791
-118.447
-109.83
-101.935
-94.7013
-88.0733
-82.0021
-76.4395
-71.3396
-66.6597
-62.3604
-58.4061
-54.7646
-51.4068
-48.307
-45.4421
-42.7916
-40.3372
-38.0629
-35.9545
-33.9997
-32.1885
-30.513
-28.9627
-27.5234
-26.216
-25.1648
-164.947
-149.732
-138.094
-128.08
-118.714
-110.077
-102.164
-94.9135
-88.2712
-82.1875
-76.6138
-71.5039
-66.8147
-62.5067
-58.544
-54.8941
-51.528
-48.4196
-45.5457
-42.8855
-40.4205
-38.1342
-36.0119
-34.0405
-32.2092
-30.5079
-28.9244
-27.4531
-26.1479
-25.1336
-169.803
-169.777
-169.708
-169.644
-169.586
-169.522
-169.448
-169.363
-169.267
-169.161
-169.044
-168.916
-168.777
-168.627
-168.467
-168.295
-168.114
-167.923
-167.723
-167.513
-167.295
-167.068
-166.834
-166.593
-166.347
-166.097
-165.846
-165.599
-165.364
-165.154
-154.321
-154.331
-154.312
-154.286
-154.252
-154.208
-154.151
-154.081
-154
-153.907
-153.802
-153.687
-153.559
-153.421
-153.273
-153.114
-152.944
-152.765
-152.577
-152.379
-152.173
-151.958
-151.735
-151.506
-151.27
-151.029
-150.784
-150.536
-150.287
-150.024
-142.257
-142.291
-142.306
-142.305
-142.291
-142.263
-142.222
-142.168
-142.103
-142.025
-141.936
-141.836
-141.724
-141.602
-141.469
-141.325
-141.172
-141.009
-140.837
-140.655
-140.465
-140.267
-140.06
-139.846
-139.624
-139.395
-139.16
-138.916
-138.662
-138.39
-131.79
-131.837
-131.868
-131.883
-131.883
-131.869
-131.842
-131.802
-131.751
-131.688
-131.614
-131.528
-131.432
-131.325
-131.208
-131.081
-130.944
-130.797
-130.642
-130.477
-130.304
-130.122
-129.932
-129.735
-129.529
-129.315
-129.092
-128.86
-128.616
-128.357
-122.018
-122.07
-122.11
-122.135
-122.145
-122.142
-122.126
-122.098
-122.058
-122.007
-121.945
-121.872
-121.789
-121.695
-121.592
-121.479
-121.356
-121.224
-121.084
-120.935
-120.777
-120.611
-120.437
-120.255
-120.065
-119.866
-119.659
-119.441
-119.213
-118.972
-113.046
-113.101
-113.145
-113.176
-113.192
-113.196
-113.187
-113.167
-113.136
-113.093
-113.041
-112.977
-112.904
-112.821
-112.728
-112.626
-112.516
-112.396
-112.268
-112.132
-111.988
-111.836
-111.676
-111.508
-111.332
-111.148
-110.955
-110.753
-110.54
-110.316
-104.872
-104.927
-104.972
-105.005
-105.025
-105.032
-105.028
-105.012
-104.986
-104.95
-104.903
-104.846
-104.78
-104.705
-104.62
-104.527
-104.426
-104.316
-104.198
-104.073
-103.939
-103.799
-103.65
-103.495
-103.331
-103.16
-102.98
-102.792
-102.594
-102.386
-97.4237
-97.4768
-97.521
-97.5539
-97.5744
-97.583
-97.5807
-97.5677
-97.5445
-97.5114
-97.4687
-97.4165
-97.3552
-97.2851
-97.2065
-97.1197
-97.0249
-96.9223
-96.8123
-96.695
-96.5705
-96.4389
-96.3004
-96.1549
-96.0022
-95.8421
-95.6744
-95.4985
-95.3139
-95.1197
-90.6347
-90.685
-90.7268
-90.7579
-90.7774
-90.7858
-90.7837
-90.7714
-90.7494
-90.7181
-90.6775
-90.6279
-90.5697
-90.5031
-90.4285
-90.3461
-90.2562
-90.159
-90.0548
-89.9439
-89.8262
-89.7021
-89.5715
-89.4345
-89.2909
-89.1405
-88.9831
-88.8182
-88.6453
-88.4638
-84.4425
-84.4892
-84.5278
-84.5563
-84.5738
-84.5809
-84.5779
-84.5652
-84.5434
-84.5125
-84.4728
-84.4245
-84.3681
-84.3037
-84.2316
-84.1523
-84.0658
-83.9726
-83.8728
-83.7667
-83.6545
-83.5363
-83.4122
-83.2822
-83.1463
-83.0043
-82.8559
-82.7007
-82.5382
-82.3679
-78.7875
-78.8305
-78.8655
-78.8909
-78.9059
-78.911
-78.9065
-78.8927
-78.8702
-78.8391
-78.7994
-78.7516
-78.696
-78.6328
-78.5624
-78.485
-78.401
-78.3106
-78.2141
-78.1118
-78.0038
-77.8904
-77.7717
-77.6478
-77.5185
-77.3837
-77.2432
-77.0967
-76.9436
-76.7833
-73.615
-73.654
-73.6855
-73.7076
-73.7199
-73.7227
-73.7163
-73.701
-73.6774
-73.6455
-73.6054
-73.5575
-73.5021
-73.4396
-73.3701
-73.294
-73.2117
-73.1233
-73.0293
-72.93
-72.8254
-72.716
-72.6018
-72.483
-72.3595
-72.2312
-72.0979
-71.9592
-71.8146
-71.6635
-68.8754
-68.9107
-68.9386
-68.9575
-68.967
-68.9675
-68.959
-68.9422
-68.9172
-68.8843
-68.8434
-68.7951
-68.7396
-68.6773
-68.6083
-68.533
-68.4518
-68.365
-68.2729
-68.1759
-68.0742
-67.968
-67.8577
-67.7434
-67.625
-67.5026
-67.3758
-67.2444
-67.1077
-66.9651
-64.5247
-64.5565
-64.581
-64.5969
-64.6037
-64.6018
-64.5914
-64.5729
-64.5465
-64.5124
-64.4707
-64.4218
-64.366
-64.3036
-64.2348
-64.16
-64.0796
-63.9939
-63.9033
-63.8081
-63.7087
-63.6054
-63.4984
-63.3881
-63.2744
-63.1573
-63.0366
-62.9121
-62.7829
-62.6484
-60.524
-60.5526
-60.574
-60.587
-60.5913
-60.5871
-60.5748
-60.5546
-60.5269
-60.4916
-60.449
-60.3994
-60.3432
-60.2805
-60.2118
-60.1373
-60.0574
-59.9725
-59.883
-59.7893
-59.6918
-59.5909
-59.4869
-59.3801
-59.2707
-59.1586
-59.0437
-58.9257
-58.8038
-58.6773
-56.8389
-56.8645
-56.883
-56.8934
-56.8954
-56.8892
-56.875
-56.8533
-56.8242
-56.7878
-56.7443
-56.694
-56.6373
-56.5743
-56.5055
-56.4311
-56.3516
-56.2673
-56.1787
-56.0862
-55.9902
-55.8914
-55.7899
-55.6863
-55.5808
-55.4734
-55.3641
-55.2525
-55.1377
-55.019
-53.4391
-53.462
-53.4779
-53.4859
-53.4857
-53.4776
-53.4618
-53.4387
-53.4084
-53.3709
-53.3265
-53.2755
-53.2183
-53.155
-53.0859
-53.0116
-52.9322
-52.8483
-52.7603
-52.6688
-52.5741
-52.4769
-52.3777
-52.2769
-52.175
-52.072
-51.9681
-51.8628
-51.7552
-51.6444
-50.298
-50.3184
-50.3319
-50.3377
-50.3356
-50.3257
-50.3084
-50.284
-50.2525
-50.214
-50.1689
-50.1172
-50.0595
-49.9958
-49.9265
-49.8521
-49.7728
-49.6891
-49.6016
-49.5107
-49.417
-49.3212
-49.2238
-49.1255
-49.0268
-48.928
-48.8292
-48.7302
-48.6299
-48.5273
-47.3918
-47.41
-47.4213
-47.4251
-47.4213
-47.4098
-47.3912
-47.3656
-47.333
-47.2936
-47.2477
-47.1955
-47.1372
-47.0731
-47.0036
-46.929
-46.8496
-46.7661
-46.6788
-46.5883
-46.4953
-46.4005
-46.3046
-46.2084
-46.1126
-46.0176
-45.9238
-45.831
-45.7383
-45.6442
-44.6997
-44.7158
-44.7252
-44.7272
-44.7217
-44.7089
-44.689
-44.6623
-44.6287
-44.5885
-44.5419
-44.4891
-44.4304
-44.3659
-44.2961
-44.2212
-44.1418
-44.0582
-43.9709
-43.8806
-43.788
-43.6939
-43.5991
-43.5045
-43.4111
-43.3196
-43.2306
-43.144
-43.0591
-42.9741
-42.203
-42.2172
-42.2247
-42.2251
-42.2182
-42.2041
-42.1831
-42.1554
-42.121
-42.0801
-42.0328
-41.9795
-41.9203
-41.8554
-41.7853
-41.7102
-41.6305
-41.5467
-41.4593
-41.369
-41.2765
-41.1826
-41.0884
-40.995
-40.9035
-40.815
-40.7304
-40.6501
-40.5734
-40.4982
-39.8849
-39.8974
-39.9034
-39.9023
-39.894
-39.8787
-39.8567
-39.8282
-39.793
-39.7514
-39.7036
-39.6498
-39.5902
-39.525
-39.4545
-39.3791
-39.2991
-39.215
-39.1273
-39.0367
-38.944
-38.85
-38.7559
-38.663
-38.5727
-38.4866
-38.4061
-38.3318
-38.2638
-38.1994
-37.7307
-37.7416
-37.7461
-37.7436
-37.7342
-37.7179
-37.695
-37.6656
-37.6298
-37.5876
-37.5393
-37.485
-37.425
-37.3595
-37.2887
-37.2129
-37.1326
-37.0481
-36.96
-36.8688
-36.7755
-36.681
-36.5865
-36.4934
-36.4037
-36.3191
-36.242
-36.1735
-36.1147
-36.0623
-35.7269
-35.7364
-35.7395
-35.7358
-35.7253
-35.7081
-35.6844
-35.6543
-35.6179
-35.5751
-35.5264
-35.4717
-35.4114
-35.3455
-35.2744
-35.1983
-35.1175
-35.0325
-34.9438
-34.852
-34.7578
-34.6623
-34.5668
-34.4728
-34.3827
-34.2986
-34.224
-34.1607
-34.1117
-34.0728
-33.8614
-33.8695
-33.8715
-33.8667
-33.8552
-33.8372
-33.8128
-33.7821
-33.7451
-33.7019
-33.6528
-33.5978
-33.5371
-33.471
-33.3995
-33.323
-33.2418
-33.1563
-33.0669
-32.9742
-32.8789
-32.782
-32.6848
-32.5892
-32.4975
-32.4126
-32.3391
-32.2797
-32.2411
-32.2174
-32.1234
-32.1303
-32.1311
-32.1253
-32.113
-32.0942
-32.0691
-32.0379
-32.0004
-31.9568
-31.9073
-31.852
-31.791
-31.7245
-31.6527
-31.5759
-31.4942
-31.4081
-31.3178
-31.224
-31.1273
-31.0286
-30.9293
-30.831
-30.7364
-30.649
-30.5747
-30.5173
-30.4888
-30.4817
-30.5031
-30.5089
-30.5086
-30.5019
-30.4887
-30.4692
-30.4435
-30.4116
-30.3736
-30.3296
-30.2797
-30.224
-30.1627
-30.0958
-30.0236
-29.9463
-29.864
-29.777
-29.6858
-29.5906
-29.4922
-29.3912
-29.2889
-29.1869
-29.0879
-28.9956
-28.9176
-28.8593
-28.8399
-28.8482
-28.9913
-28.9963
-28.9953
-28.9879
-28.9742
-28.9542
-28.9281
-28.8958
-28.8575
-28.8132
-28.763
-28.707
-28.6454
-28.5782
-28.5056
-28.4278
-28.3448
-28.257
-28.1647
-28.0681
-27.9676
-27.8641
-27.7583
-27.6517
-27.5466
-27.4469
-27.361
-27.2977
-27.2869
-27.3118
-27.5786
-27.5835
-27.5825
-27.5752
-27.5616
-27.542
-27.5163
-27.4845
-27.4467
-27.403
-27.3535
-27.2983
-27.2374
-27.1709
-27.099
-27.0218
-26.9394
-26.852
-26.7598
-26.663
-26.562
-26.4571
-26.3491
-26.2389
-26.1283
-26.0204
-25.9226
-25.8475
-25.841
-25.9056
-26.2601
-26.2627
-26.2597
-26.2509
-26.2361
-26.2154
-26.189
-26.1569
-26.119
-26.0755
-26.0264
-25.9718
-25.9117
-25.8463
-25.7757
-25.6998
-25.6189
-25.5329
-25.4421
-25.3466
-25.2465
-25.1421
-25.0337
-24.9218
-24.807
-24.6915
-24.5779
-24.478
-24.432
-24.5436
-161.646
-162.073
-162.44
-162.83
-163.24
-163.652
-164.056
-164.451
-164.835
-165.209
-165.571
-165.92
-166.254
-166.574
-166.879
-167.168
-167.442
-167.7
-167.942
-168.168
-168.379
-168.574
-168.754
-168.919
-169.069
-169.207
-169.334
-169.453
-169.569
-169.69
-146.011
-146.478
-146.911
-147.342
-147.773
-148.197
-148.609
-149.009
-149.398
-149.774
-150.137
-150.486
-150.821
-151.142
-151.449
-151.74
-152.016
-152.276
-152.521
-152.751
-152.965
-153.164
-153.349
-153.518
-153.674
-153.816
-153.945
-154.063
-154.17
-154.259
-133.9
-134.38
-134.84
-135.286
-135.721
-136.143
-136.554
-136.953
-137.339
-137.712
-138.073
-138.42
-138.754
-139.074
-139.379
-139.67
-139.946
-140.208
-140.455
-140.686
-140.903
-141.106
-141.293
-141.467
-141.626
-141.771
-141.902
-142.018
-142.119
-142.2
-123.522
-123.993
-124.451
-124.893
-125.321
-125.736
-126.14
-126.531
-126.911
-127.278
-127.632
-127.973
-128.301
-128.616
-128.917
-129.204
-129.477
-129.736
-129.981
-130.211
-130.428
-130.63
-130.818
-130.991
-131.151
-131.297
-131.428
-131.544
-131.645
-131.727
-113.949
-114.403
-114.847
-115.278
-115.694
-116.098
-116.491
-116.871
-117.24
-117.597
-117.941
-118.273
-118.592
-118.898
-119.191
-119.471
-119.737
-119.99
-120.229
-120.455
-120.667
-120.865
-121.05
-121.221
-121.379
-121.523
-121.652
-121.767
-121.868
-121.952
-105.254
-105.688
-106.115
-106.531
-106.933
-107.323
-107.702
-108.069
-108.424
-108.768
-109.099
-109.419
-109.726
-110.021
-110.304
-110.574
-110.831
-111.075
-111.306
-111.524
-111.73
-111.922
-112.101
-112.267
-112.42
-112.559
-112.685
-112.798
-112.896
-112.98
-97.4008
-97.8153
-98.2243
-98.623
-99.0093
-99.3837
-99.7469
-100.099
-100.44
-100.769
-101.087
-101.393
-101.688
-101.97
-102.241
-102.499
-102.745
-102.979
-103.2
-103.41
-103.606
-103.79
-103.962
-104.121
-104.268
-104.402
-104.523
-104.631
-104.725
-104.806
-90.2937
-90.6895
-91.0802
-91.4615
-91.8312
-92.1896
-92.5371
-92.8739
-93.1998
-93.5147
-93.8183
-94.1107
-94.3917
-94.6611
-94.9191
-95.1653
-95.3999
-95.6226
-95.8336
-96.0326
-96.2198
-96.3951
-96.5584
-96.7097
-96.8489
-96.976
-97.0909
-97.1935
-97.2834
-97.3607
-83.8469
-84.2251
-84.5984
-84.9627
-85.3161
-85.6588
-85.9911
-86.313
-86.6242
-86.9248
-87.2144
-87.4932
-87.7608
-88.0174
-88.2628
-88.497
-88.7199
-88.9315
-89.1317
-89.3205
-89.498
-89.664
-89.8185
-89.9615
-90.093
-90.2129
-90.3212
-90.4178
-90.5024
-90.5752
-77.9859
-78.3478
-78.7047
-79.0531
-79.3912
-79.719
-80.0368
-80.3444
-80.6417
-80.9286
-81.2049
-81.4705
-81.7254
-81.9696
-82.2029
-82.4254
-82.637
-82.8377
-83.0274
-83.2062
-83.3741
-83.5309
-83.6767
-83.8115
-83.9353
-84.048
-84.1495
-84.2399
-84.3191
-84.387
-72.6441
-72.9911
-73.333
-73.6667
-73.9905
-74.3045
-74.6087
-74.903
-75.1872
-75.4612
-75.7249
-75.9783
-76.2212
-76.4536
-76.6755
-76.8869
-77.0878
-77.2782
-77.458
-77.6272
-77.7858
-77.9339
-78.0714
-78.1983
-78.3145
-78.4202
-78.5152
-78.5996
-78.6732
-78.7363
-67.7633
-68.0967
-68.425
-68.7452
-69.056
-69.3572
-69.6488
-69.9308
-70.2029
-70.465
-70.717
-70.9588
-71.1905
-71.412
-71.6233
-71.8244
-72.0152
-72.1959
-72.3664
-72.5266
-72.6766
-72.8165
-72.9461
-73.0655
-73.1748
-73.2738
-73.3626
-73.4412
-73.5096
-73.5679
-63.2931
-63.6142
-63.9302
-64.2382
-64.537
-64.8265
-65.1066
-65.3773
-65.6381
-65.8892
-66.1303
-66.3616
-66.5829
-66.7942
-66.9956
-67.1871
-67.3687
-67.5404
-67.7022
-67.8541
-67.9962
-68.1284
-68.2507
-68.3633
-68.4659
-68.5588
-68.6418
-68.7151
-68.7785
-68.8322
-59.1898
-59.5
-59.8047
-60.1017
-60.3897
-60.6685
-60.9381
-61.1983
-61.4489
-61.6897
-61.9209
-62.1423
-62.354
-62.556
-62.7482
-62.9309
-63.1039
-63.2673
-63.4211
-63.5654
-63.7001
-63.8253
-63.9409
-64.0471
-64.1437
-64.2309
-64.3086
-64.3769
-64.4357
-64.4853
-55.416
-55.7162
-56.0109
-56.2979
-56.5761
-56.8452
-57.1052
-57.3557
-57.5968
-57.8282
-58.0501
-58.2625
-58.4653
-58.6586
-58.8424
-59.0169
-59.182
-59.3378
-59.4843
-59.6215
-59.7495
-59.8682
-59.9777
-60.078
-60.1691
-60.2511
-60.324
-60.3877
-60.4423
-60.488
-51.9389
-52.2301
-52.5159
-52.7939
-53.0632
-53.3235
-53.5745
-53.8162
-54.0485
-54.2713
-54.4846
-54.6885
-54.8831
-55.0683
-55.2444
-55.4113
-55.5692
-55.7179
-55.8576
-55.9884
-56.1101
-56.223
-56.3269
-56.4218
-56.5079
-56.5852
-56.6536
-56.7132
-56.7639
-56.8061
-48.73
-49.0133
-49.291
-49.561
-49.8222
-50.0744
-50.3173
-50.5508
-50.7749
-50.9896
-51.1949
-51.391
-51.5779
-51.7557
-51.9246
-52.0845
-52.2356
-52.3778
-52.5114
-52.6361
-52.7522
-52.8596
-52.9584
-53.0485
-53.1299
-53.2029
-53.2672
-53.323
-53.3703
-53.4092
-45.7645
-46.0407
-46.3113
-46.5741
-46.828
-47.0727
-47.3081
-47.534
-47.7505
-47.9576
-48.1554
-48.3442
-48.5239
-48.6948
-48.8569
-49.0103
-49.1552
-49.2914
-49.4192
-49.5385
-49.6493
-49.7517
-49.8458
-49.9314
-50.0087
-50.0776
-50.1383
-50.1906
-50.2347
-50.2707
-43.0204
-43.2904
-43.5546
-43.811
-44.0584
-44.2963
-44.5246
-44.7434
-44.9527
-45.1526
-45.3434
-45.5253
-45.6983
-45.8627
-46.0185
-46.1658
-46.3048
-46.4355
-46.558
-46.6722
-46.7782
-46.876
-46.9657
-47.0472
-47.1206
-47.186
-47.2432
-47.2925
-47.3337
-47.3669
-40.4783
-40.7427
-41.0015
-41.2523
-41.4937
-41.7253
-41.947
-42.159
-42.3615
-42.5547
-42.7388
-42.9141
-43.0808
-43.239
-43.3889
-43.5306
-43.6642
-43.7897
-43.9072
-44.0167
-44.1182
-44.2118
-44.2975
-44.3752
-44.4451
-44.5071
-44.5613
-44.6076
-44.6462
-44.677
-38.1207
-38.3804
-38.6347
-38.8806
-39.1166
-39.3422
-39.5577
-39.7632
-39.9591
-40.1458
-40.3235
-40.4926
-40.6533
-40.8057
-40.9501
-41.0864
-41.2149
-41.3356
-41.4484
-41.5536
-41.6509
-41.7406
-41.8226
-41.8969
-41.9635
-42.0225
-42.0738
-42.1175
-42.1536
-42.1823
-35.932
-36.1879
-36.4386
-36.6805
-36.9115
-37.1314
-37.3408
-37.5401
-37.7297
-37.91
-38.0816
-38.2447
-38.3997
-38.5466
-38.6857
-38.8171
-38.9408
-39.0569
-39.1655
-39.2665
-39.3601
-39.4461
-39.5247
-39.5958
-39.6594
-39.7155
-39.7643
-39.8056
-39.8395
-39.866
-33.8979
-34.151
-34.3995
-34.6381
-34.8643
-35.0788
-35.2822
-35.4753
-35.6586
-35.8329
-35.9985
-36.1559
-36.3054
-36.4471
-36.5812
-36.7079
-36.8271
-36.939
-37.0436
-37.1408
-37.2308
-37.3135
-37.3889
-37.457
-37.5179
-37.5715
-37.6178
-37.6569
-37.6887
-37.7135
-32.0055
-32.2568
-32.5047
-32.7407
-32.9625
-33.1714
-33.3689
-33.5558
-33.733
-33.9012
-34.061
-34.213
-34.3572
-34.494
-34.6235
-34.7457
-34.8608
-34.9687
-35.0695
-35.1633
-35.25
-35.3295
-35.402
-35.4674
-35.5257
-35.5769
-35.6211
-35.6581
-35.6881
-35.7111
-30.2433
-30.4946
-30.7435
-30.9774
-31.1946
-31.3979
-31.5893
-31.7699
-31.941
-32.1033
-32.2576
-32.4042
-32.5435
-32.6756
-32.8007
-32.9188
-33.0299
-33.1342
-33.2316
-33.322
-33.4056
-33.4823
-33.5521
-33.615
-33.6709
-33.72
-33.7621
-33.7973
-33.8256
-33.847
-28.6
-28.8557
-29.1077
-29.3393
-29.5514
-29.7487
-29.9337
-30.108
-30.2728
-30.4293
-30.5782
-30.7197
-30.8543
-30.982
-31.1029
-31.2171
-31.3245
-31.4253
-31.5194
-31.6068
-31.6875
-31.7615
-31.8287
-31.8892
-31.943
-31.9899
-32.0302
-32.0636
-32.0903
-32.1103
-27.0561
-27.3278
-27.5882
-27.8165
-28.0224
-28.2132
-28.3916
-28.5593
-28.7181
-28.8689
-29.0126
-29.1493
-29.2795
-29.403
-29.52
-29.6305
-29.7346
-29.8321
-29.9231
-30.0077
-30.0857
-30.1571
-30.222
-30.2803
-30.332
-30.3771
-30.4156
-30.4475
-30.4727
-30.4913
-25.5806
-25.8813
-26.1615
-26.3885
-26.5875
-26.7716
-26.9435
-27.1052
-27.2584
-27.4043
-27.5435
-27.6762
-27.8026
-27.9228
-28.0366
-28.1442
-28.2455
-28.3405
-28.4292
-28.5115
-28.5874
-28.6569
-28.7201
-28.7767
-28.8269
-28.8706
-28.9078
-28.9385
-28.9627
-28.9803
-24.1931
-24.5082
-24.8128
-25.0463
-25.2398
-25.4164
-25.582
-25.738
-25.886
-26.0273
-26.1626
-26.2918
-26.415
-26.5323
-26.6435
-26.7486
-26.8476
-26.9406
-27.0273
-27.1079
-27.1823
-27.2504
-27.3123
-27.3679
-27.4171
-27.46
-27.4966
-27.5267
-27.5504
-27.5678
-23.129
-23.4138
-23.6799
-23.9179
-24.1029
-24.2622
-24.4146
-24.5596
-24.6969
-24.8283
-24.9544
-25.0751
-25.1902
-25.2996
-25.4033
-25.5012
-25.5933
-25.6796
-25.76
-25.8346
-25.9033
-25.966
-26.0229
-26.0737
-26.1185
-26.1573
-26.19
-26.2167
-26.2373
-26.2518
-15.9388
-17.0512
-18.2515
-19.5377
-20.9183
-22.4015
-23.9956
-25.7094
-27.5531
-29.5377
-31.6757
-33.9807
-36.4681
-39.155
-42.0607
-45.2069
-48.6183
-52.3232
-56.3546
-60.7509
-65.5574
-70.828
-76.6266
-83.0288
-90.1274
-98.0368
-106.825
-116.472
-127.961
-143.144
-16.174
-17.2926
-18.4959
-19.7861
-21.1712
-22.6594
-24.2588
-25.9784
-27.8283
-29.8196
-31.9647
-34.2775
-36.7733
-39.4694
-42.385
-45.5419
-48.9651
-52.683
-56.7288
-61.1409
-65.965
-71.2552
-77.0754
-83.5015
-90.6261
-98.5633
-107.38
-117.051
-128.55
-143.722
-16.411
-17.5357
-18.742
-20.0362
-21.4261
-22.9194
-24.5242
-26.2497
-28.1059
-30.104
-32.2565
-34.5773
-37.0817
-39.7871
-42.7128
-45.8808
-49.316
-53.0472
-57.1075
-61.5358
-66.3778
-71.6878
-77.5299
-83.98
-91.1303
-99.0946
-107.938
-117.629
-129.13
-144.277
-16.6494
-17.7801
-18.9894
-20.2877
-21.6824
-23.1808
-24.7911
-26.5225
-28.3851
-30.3902
-32.5502
-34.879
-37.3921
-40.1069
-43.0428
-46.2219
-49.6694
-53.4139
-57.489
-61.9336
-66.7936
-72.1235
-77.9875
-84.4614
-91.6373
-99.6278
-108.497
-118.21
-129.721
-144.856
-16.8889
-18.0253
-19.2377
-20.5401
-21.9397
-23.4433
-25.0593
-26.7967
-28.6657
-30.6778
-32.8453
-35.1822
-37.7041
-40.4284
-43.3746
-46.5649
-50.0246
-53.7826
-57.8725
-62.3334
-67.2114
-72.5611
-78.447
-84.9447
-92.1459
-100.163
-109.058
-118.795
-130.322
-145.457
-17.1292
-18.2712
-19.4867
-20.7934
-22.198
-23.7069
-25.3284
-27.0719
-28.9475
-30.9666
-33.1417
-35.4868
-38.0176
-40.7514
-43.708
-46.9096
-50.3816
-54.1531
-58.2578
-62.7351
-67.6311
-73.0007
-78.9085
-85.4299
-92.6565
-100.699
-109.621
-119.383
-130.929
-146.07
-17.3701
-18.5176
-19.7362
-21.0473
-22.4569
-23.9712
-25.5985
-27.3481
-29.2303
-31.2565
-33.4393
-35.7927
-38.3324
-41.0758
-44.0429
-47.2559
-50.7403
-54.5254
-58.645
-63.1386
-68.0528
-73.4424
-79.372
-85.9173
-93.1694
-101.239
-110.187
-119.973
-131.539
-146.689
-17.6114
-18.7642
-19.9859
-21.3015
-22.7163
-24.2361
-25.8691
-27.625
-29.5139
-31.5473
-33.7378
-36.0996
-38.6482
-41.4014
-44.379
-47.6035
-51.1004
-54.8991
-59.0337
-63.5439
-68.4763
-73.8859
-79.8376
-86.4068
-93.6846
-101.781
-110.756
-120.567
-132.153
-147.313
-17.8529
-19.0108
-20.2357
-21.556
-22.976
-24.5012
-26.1402
-27.9023
-29.798
-31.8387
-34.0371
-36.4072
-38.965
-41.728
-44.7162
-47.9522
-51.4616
-55.2741
-59.4238
-63.9506
-68.9013
-74.331
-80.3048
-86.8981
-94.2017
-102.325
-111.326
-121.163
-132.769
-147.941
-18.0943
-19.2572
-20.4854
-21.8103
-23.2357
-24.7666
-26.4115
-28.18
-30.0826
-32.1306
-34.3368
-36.7155
-39.2823
-42.0552
-45.0541
-48.3017
-51.8238
-55.6501
-59.815
-64.3584
-69.3274
-74.7775
-80.7734
-87.3908
-94.7203
-102.871
-111.899
-121.76
-133.387
-148.571
-18.3356
-19.5033
-20.7346
-22.0645
-23.4953
-25.0319
-26.6828
-28.4578
-30.3673
-32.4227
-34.6369
-37.0241
-39.6002
-42.383
-45.3926
-48.6519
-52.1867
-56.0269
-60.2069
-64.7671
-69.7546
-75.225
-81.2432
-87.8848
-95.2403
-103.418
-112.473
-122.36
-134.008
-149.204
-18.5765
-19.7488
-20.9835
-22.3183
-23.7547
-25.2971
-26.9541
-28.7356
-30.6521
-32.715
-34.9372
-37.333
-39.9183
-42.7111
-45.7315
-49.0025
-52.55
-56.4042
-60.5995
-65.1766
-70.1826
-75.6732
-81.7138
-88.3797
-95.7611
-103.966
-113.048
-122.96
-134.629
-149.838
-18.817
-19.9937
-21.2316
-22.5716
-24.0137
-25.5619
-27.2251
-29.0132
-30.9367
-33.0072
-35.2374
-37.6419
-40.2365
-43.0393
-46.0706
-49.3533
-52.9136
-56.7817
-60.9924
-65.5863
-70.6109
-76.122
-82.1849
-88.8751
-96.2826
-104.514
-113.624
-123.561
-135.25
-150.473
-19.0569
-20.2378
-21.4791
-22.8243
-24.2722
-25.8264
-27.4959
-29.2906
-31.2212
-33.2992
-35.5376
-37.9507
-40.5546
-43.3675
-46.4096
-49.7041
-53.2773
-57.1594
-61.3855
-65.9962
-71.0394
-76.5709
-82.6562
-89.3708
-96.8043
-105.063
-114.199
-124.161
-135.871
-151.107
-19.2961
-20.4811
-21.7258
-23.0763
-24.5302
-26.0904
-27.7662
-29.5677
-31.5054
-33.591
-35.8375
-38.2593
-40.8726
-43.6955
-46.7485
-50.0547
-53.6407
-57.5369
-61.7783
-66.4059
-71.4677
-77.0197
-83.1275
-89.8663
-97.3257
-105.611
-114.775
-124.761
-136.492
-151.74
-19.5347
-20.7235
-21.9716
-23.3277
-24.7876
-26.3539
-28.0361
-29.8443
-31.7892
-33.8824
-36.137
-38.5675
-41.1901
-44.0231
-47.0869
-50.405
-54.0038
-57.9139
-62.1707
-66.8153
-71.8956
-77.4681
-83.5982
-90.3613
-97.8467
-106.159
-115.349
-125.36
-137.111
-152.372
-19.7727
-20.9652
-22.2167
-23.5785
-25.0444
-26.6169
-28.3055
-30.1205
-32.0726
-34.1734
-36.4361
-38.8753
-41.5072
-44.3501
-47.4248
-50.7546
-54.3662
-58.2903
-62.5624
-67.2238
-72.3228
-77.9156
-84.0681
-90.8555
-98.3666
-106.706
-115.922
-125.958
-137.728
-153.002
-20.0103
-21.2062
-22.4612
-23.8287
-25.3008
-26.8795
-28.5746
-30.3963
-32.3555
-34.4639
-36.7346
-39.1824
-41.8236
-44.6765
-47.7619
-51.1034
-54.7277
-58.6657
-62.9531
-67.6313
-72.7488
-78.362
-84.5368
-91.3483
-98.8852
-107.251
-116.494
-126.554
-138.343
-153.629
-20.2475
-21.4467
-22.7051
-24.0785
-25.5569
-27.1418
-28.8432
-30.6716
-32.6379
-34.7538
-37.0325
-39.4888
-42.1391
-45.0019
-48.098
-51.451
-55.088
-59.0399
-63.3425
-68.0375
-73.1733
-78.8069
-85.0039
-91.8395
-99.402
-107.794
-117.063
-127.147
-138.956
-154.254
-20.4849
-21.6871
-22.9489
-24.3282
-25.8127
-27.4038
-29.1115
-30.9466
-32.9198
-35.0431
-37.3297
-39.7944
-42.4537
-45.3263
-48.4329
-51.7974
-55.4469
-59.4125
-63.7303
-68.4419
-73.5961
-79.2498
-85.4689
-92.3285
-99.9165
-108.335
-117.63
-127.738
-139.565
-154.875