/*--------------------------------*- C++ -*----------------------------------*\
  =========                 |
  \\      /  F ield         | OpenFOAM: The Open Source CFD Toolbox
   \\    /   O peration     | Website:  https://openfoam.org
    \\  /    A nd           | Version:  6.0
     \\/     M anipulation  |
\*---------------------------------------------------------------------------*/
FoamFile
{
    version     2.0;
    format      ascii;
    class       volVectorField;
    location    "0.75";
    object      U;
}
// * * * * * * * * * * * * * * * * * * * * * * * * * * * * * * * * * * * * * //

dimensions      [0 1 -1 0 0 0 0];

internalField   nonuniform List<vector> 
9600
(
(0.171794 -4.73484 -3.80283e-21)
(0.0826125 -4.29513 -4.31893e-21)
(0.0788697 -3.91032 3.81671e-22)
(0.085479 -3.57079 -2.35299e-21)
(0.0897512 -3.26821 1.01018e-21)
(0.0960055 -2.99555 -6.51146e-22)
(0.104314 -2.74761 -1.41932e-21)
(0.113923 -2.52053 1.34743e-21)
(0.124492 -2.31139 3.44833e-22)
(0.135846 -2.11796 -6.53899e-21)
(0.14786 -1.93849 3.40165e-21)
(0.160452 -1.77157 -2.90466e-21)
(0.17357 -1.61607 -1.23669e-21)
(0.187175 -1.47104 1.57727e-21)
(0.201228 -1.33571 -1.0649e-21)
(0.215683 -1.20942 -5.30049e-22)
(0.230479 -1.09161 9.75518e-22)
(0.245571 -0.98185 -1.08888e-21)
(0.260947 -0.879743 -2.70775e-22)
(0.276306 -0.784971 -6.3448e-22)
(0.357549 -4.72476 -3.72309e-20)
(0.251895 -4.29175 -1.95459e-20)
(0.23375 -3.91051 9.64799e-21)
(0.227766 -3.57392 -1.12611e-20)
(0.220897 -3.27403 3.15165e-21)
(0.217126 -3.00366 -3.19618e-21)
(0.216291 -2.75763 1.22305e-20)
(0.217478 -2.5322 -6.00315e-22)
(0.220233 -2.32451 -7.27181e-21)
(0.224298 -2.13241 8.77204e-21)
(0.229488 -1.95418 4.19695e-21)
(0.235678 -1.78848 -3.52151e-22)
(0.242779 -1.63418 4.68126e-21)
(0.250725 -1.49034 -2.18224e-22)
(0.259457 -1.35616 1.72217e-21)
(0.268912 -1.23098 4.2705e-21)
(0.279015 -1.11423 -5.72551e-21)
(0.289717 -1.00542 2.37224e-21)
(0.301021 -0.904137 -1.10833e-21)
(0.312572 -0.810035 2.58928e-21)
(0.542697 -4.70779 6.14112e-20)
(0.420907 -4.28217 4.26332e-20)
(0.388743 -3.90509 -6.0369e-20)
(0.370484 -3.57194 -2.64289e-20)
(0.35273 -3.27518 2.08959e-20)
(0.339137 -3.00744 3.43669e-20)
(0.329323 -2.76362 -4.02541e-20)
(0.322226 -2.54008 9.0623e-21)
(0.317288 -2.33406 -1.76575e-20)
(0.314177 -2.14348 -1.10856e-20)
(0.312656 -1.9667 9.76219e-21)
(0.312557 -1.80238 -5.18078e-21)
(0.313762 -1.64944 -1.3095e-20)
(0.316177 -1.50694 6.92406e-21)
(0.319723 -1.37407 -2.1116e-21)
(0.324317 -1.25017 -2.59369e-22)
(0.329868 -1.13462 1.84701e-21)
(0.336322 -1.02692 4.15086e-21)
(0.343691 -0.926611 -5.4413e-21)
(0.351558 -0.833341 5.24734e-21)
(0.727069 -4.68385 -3.33061e-20)
(0.589556 -4.26641 1.73563e-20)
(0.543717 -3.89411 2.08688e-20)
(0.513485 -3.5649 2.67985e-20)
(0.485095 -3.27165 -9.56508e-21)
(0.461879 -3.00687 7.1215e-21)
(0.443247 -2.76553 -5.7087e-21)
(0.427997 -2.54411 1.10474e-20)
(0.41548 -2.33997 2.3619e-20)
(0.4053 -2.15111 -1.41536e-20)
(0.397172 -1.97595 -8.20431e-21)
(0.390893 -1.8132 -8.78256e-21)
(0.386315 -1.66178 -2.76814e-21)
(0.383321 -1.52077 6.48988e-21)
(0.381809 -1.38938 -3.91675e-21)
(0.381677 -1.26689 -1.26672e-20)
(0.382814 -1.1527 9.68402e-21)
(0.38516 -1.04626 -1.22942e-20)
(0.38873 -0.947088 -5.53571e-22)
(0.393039 -0.854811 -5.42175e-22)
(0.910431 -4.65293 -4.32828e-20)
(0.757677 -4.24448 -7.74112e-20)
(0.698517 -3.87757 8.71554e-20)
(0.656611 -3.55278 -2.51318e-20)
(0.617833 -3.26341 -6.43742e-20)
(0.58519 -3.00189 -1.56301e-21)
(0.557891 -2.76328 -2.3689e-20)
(0.534613 -2.54422 -6.06221e-21)
(0.514624 -2.34217 -1.50692e-20)
(0.497473 -2.15522 3.32069e-20)
(0.482835 -1.98186 -4.51421e-20)
(0.470477 -1.82084 1.09242e-20)
(0.460224 -1.67111 -1.74443e-20)
(0.451936 -1.53177 2.29196e-20)
(0.445489 -1.402 -2.04764e-20)
(0.440761 -1.28109 1.04548e-20)
(0.437621 -1.16841 -6.17583e-21)
(0.435995 -1.06339 -3.50014e-22)
(0.435904 -0.965502 6.21055e-21)
(0.43678 -0.874376 -9.17786e-22)
(1.09254 -4.61507 9.26323e-21)
(0.92508 -4.2164 7.12044e-20)
(0.852974 -3.85546 4.55366e-20)
(0.799699 -3.53554 -2.94546e-20)
(0.750778 -3.25041 7.41446e-20)
(0.708896 -2.99244 1.16734e-20)
(0.673077 -2.75681 1.67117e-21)
(0.641887 -2.54032 -2.6429e-20)
(0.614524 -2.34057 5.88053e-21)
(0.590492 -2.15572 3.48335e-20)
(0.569433 -1.98434 -1.53889e-20)
(0.551089 -1.82523 2.77253e-20)
(0.535262 -1.67737 -7.51787e-21)
(0.52179 -1.53985 -5.34615e-21)
(0.510528 -1.41187 1.21626e-20)
(0.501331 -1.2927 1.3007e-20)
(0.494046 -1.18169 -7.17767e-21)
(0.488586 -1.07824 1.34359e-20)
(0.484967 -0.981792 -1.47998e-20)
(0.482536 -0.891974 2.12456e-20)
(1.27313 -4.57029 1.00579e-19)
(1.09156 -4.18218 -1.32594e-19)
(1.00691 -3.82779 -1.05662e-19)
(0.942576 -3.51316 1.06087e-19)
(0.883757 -3.2326 -3.73598e-20)
(0.83282 -2.97845 -4.98399e-20)
(0.788618 -2.74605 4.28869e-20)
(0.749621 -2.53234 1.52348e-21)
(0.714974 -2.33508 1.3379e-20)
(0.684143 -2.15253 -4.20886e-20)
(0.656747 -1.98331 1.98419e-20)
(0.632504 -1.82629 -1.56852e-20)
(0.611198 -1.68047 4.29988e-20)
(0.592647 -1.54495 -2.31224e-20)
(0.576684 -1.41893 1.37852e-21)
(0.563141 -1.30166 -2.60901e-21)
(0.551841 -1.19249 -2.72175e-21)
(0.54268 -1.09077 1.49304e-20)
(0.535666 -0.995907 1.20691e-21)
(0.530054 -0.907554 -4.23365e-21)
(1.45196 -4.51866 -1.49734e-19)
(1.25691 -4.14183 8.8013e-20)
(1.16014 -3.79453 1.76884e-20)
(1.08506 -3.4856 -1.61332e-21)
(1.01659 -3.20993 4.03983e-22)
(0.956773 -2.95986 3.2719e-20)
(0.904315 -2.73091 -8.6881e-20)
(0.857612 -2.52021 -8.08826e-21)
(0.815762 -2.32563 -1.53999e-20)
(0.778207 -2.14556 2.03889e-20)
(0.744547 -1.9787 1.42811e-21)
(0.714486 -1.82395 1.78263e-20)
(0.687791 -1.68035 -2.15169e-21)
(0.66426 -1.54701 -4.05952e-20)
(0.643706 -1.42312 -8.11075e-21)
(0.625937 -1.30793 3.49816e-20)
(0.610749 -1.20074 -1.27156e-20)
(0.598019 -1.10092 -3.02864e-21)
(0.587741 -1.00781 6.67319e-21)
(0.579073 -0.921074 2.3432e-21)
(1.62877 -4.46024 9.57402e-20)
(1.42092 -4.09538 -1.00407e-19)
(1.31246 -3.75567 -1.37633e-19)
(1.22697 -3.45282 -1.76164e-20)
(1.14908 -3.18235 -5.51852e-20)
(1.08056 -2.93661 -1.90494e-20)
(1.01996 -2.71132 -4.89688e-20)
(0.965642 -2.50383 8.36258e-20)
(0.916663 -2.31214 -3.5604e-20)
(0.872451 -2.13475 -1.60036e-20)
(0.832597 -1.97043 -5.22251e-21)
(0.796793 -1.81814 2.09561e-20)
(0.764793 -1.67694 2.20348e-23)
(0.736378 -1.54596 -6.17455e-21)
(0.71134 -1.42438 -1.34683e-20)
(0.68946 -1.31144 -1.54288e-20)
(0.670508 -1.20643 2.20656e-20)
(0.654338 -1.10866 8.63095e-21)
(0.640926 -1.01745 -3.54441e-20)
(0.629322 -0.932498 3.14826e-20)
(1.80331 -4.39511 -9.64403e-20)
(1.58337 -4.04284 2.26996e-19)
(1.46369 -3.71122 -1.63265e-19)
(1.36811 -3.41481 9.80734e-20)
(1.28104 -3.14979 1.16418e-19)
(1.20396 -2.90862 -3.88907e-20)
(1.13535 -2.68722 3.02569e-21)
(1.07349 -2.48314 1.02375e-20)
(1.01745 -2.29454 3.35232e-20)
(0.966639 -2.12002 -3.40302e-20)
(0.920654 -1.95844 -1.90623e-20)
(0.879178 -1.8088 2.15545e-20)
(0.841952 -1.67018 -3.2502e-22)
(0.808743 -1.54174 3.10951e-21)
(0.779322 -1.42266 3.46354e-20)
(0.753444 -1.31215 -1.81662e-20)
(0.730849 -1.20949 3.18541e-21)
(0.711365 -1.11395 -2.04497e-20)
(0.694946 -1.02481 5.43514e-20)
(0.680527 -0.941796 -3.92655e-20)
(1.97534 -4.32333 1.43904e-19)
(1.74405 -3.98427 3.01002e-20)
(1.61362 -3.66116 6.07051e-20)
(1.50827 -3.37151 -6.46872e-20)
(1.41224 -3.11222 1.98296e-20)
(1.32677 -2.87584 1.22634e-19)
(1.25024 -2.65854 -1.73426e-20)
(1.18092 -2.45807 8.06643e-20)
(1.11787 -2.27276 -4.95177e-20)
(1.06053 -2.10131 2.98235e-20)
(1.00847 -1.94265 6.19099e-20)
(0.961387 -1.79585 -1.92626e-20)
(0.919011 -1.66002 2.82852e-20)
(0.881094 -1.53431 -7.81523e-21)
(0.847387 -1.41791 -3.66017e-20)
(0.81762 -1.31002 5.12054e-20)
(0.7915 -1.20988 -1.3363e-20)
(0.768825 -1.11675 4.89873e-20)
(0.74952 -1.02984 5.54438e-21)
(0.732402 -0.948937 -7.4157e-20)
(2.1446 -4.24501 -4.31753e-19)
(1.90273 -3.91968 7.44837e-20)
(1.76203 -3.6055 -5.66137e-20)
(1.64725 -3.3229 -1.68559e-19)
(1.54249 -3.06958 -2.6885e-20)
(1.44877 -2.83821 -3.16624e-20)
(1.36441 -2.62521 -1.21034e-20)
(1.28769 -2.42856 -5.8322e-20)
(1.2177 -2.24673 -2.89227e-20)
(1.15387 -2.07855 -6.30428e-21)
(1.0958 -1.92302 -1.63044e-20)
(1.04317 -1.77924 2.58959e-20)
(0.995712 -1.64638 1.61939e-20)
(0.953169 -1.5236 -8.40797e-20)
(0.915269 -1.41007 3.40479e-20)
(0.881715 -1.30498 -3.66351e-20)
(0.852182 -1.20757 -2.19599e-20)
(0.826436 -1.11703 1.95721e-20)
(0.804365 -1.03253 1.03038e-20)
(0.784658 -0.953891 -2.41995e-20)
(2.31084 -4.16023 5.52896e-19)
(2.05919 -3.84912 2.59235e-19)
(1.90873 -3.54423 1.14571e-19)
(1.78483 -3.26896 1.11003e-19)
(1.67155 -3.02182 -5.05201e-20)
(1.56971 -2.79567 2.61373e-19)
(1.47761 -2.58719 -1.12163e-19)
(1.39357 -2.39456 2.0872e-19)
(1.31668 -2.21642 -7.60422e-20)
(1.24641 -2.0517 1.37202e-19)
(1.18238 -1.89948 6.19839e-20)
(1.12427 -1.75893 3.59606e-20)
(1.0718 -1.62922 -8.86315e-20)
(1.02471 -1.50954 7.63641e-20)
(0.9827 -1.39907 -1.70108e-20)
(0.945457 -1.29699 5.70624e-20)
(0.912617 -1.20249 1.53972e-20)
(0.883914 -1.11473 6.63768e-20)
(0.859192 -1.03282 -1.48844e-20)
(0.837003 -0.956621 -9.90822e-22)
(2.47383 -4.0691 -2.85556e-19)
(2.21323 -3.77265 1.55218e-19)
(2.0535 -3.47736 2.54449e-20)
(1.9208 -3.20967 -2.01812e-19)
(1.79919 -2.96893 -8.51714e-21)
(1.68935 -2.7482 4.18266e-21)
(1.5896 -2.54442 4.28389e-20)
(1.49828 -2.35602 -5.20458e-20)
(1.41456 -2.18177 2.1332e-20)
(1.33791 -2.02071 2.4966e-20)
(1.26797 -1.872 -3.85113e-20)
(1.20443 -1.73485 -2.57751e-20)
(1.14702 -1.60847 1.45107e-20)
(1.09545 -1.49208 -2.36813e-20)
(1.04942 -1.38485 7.73775e-20)
(1.00858 -1.28596 -8.06485e-20)
(0.972529 -1.19458 -4.96178e-20)
(0.940974 -1.1098 7.34767e-20)
(0.913712 -1.03066 -2.71251e-20)
(0.889142 -0.95708 -4.27641e-20)
(2.63333 -3.97173 -1.49629e-19)
(2.36464 -3.69032 -1.70868e-19)
(2.19614 -3.4049 -4.02282e-20)
(2.05493 -3.145 2.12159e-19)
(1.92517 -2.91085 -9.3875e-20)
(1.80745 -2.69574 5.86297e-21)
(1.70011 -2.49688 -2.21321e-19)
(1.60159 -2.31291 3.60698e-20)
(1.51108 -2.14276 -4.73499e-20)
(1.42811 -1.98556 4.0637e-20)
(1.35233 -1.84054 -8.93558e-20)
(1.28343 -1.70697 3.92943e-20)
(1.22115 -1.58409 -5.39092e-20)
(1.16517 -1.47114 3.39135e-20)
(1.11518 -1.36732 2.04715e-20)
(1.07082 -1.2718 -2.15632e-20)
(1.03165 -1.18372 -9.24229e-20)
(0.997335 -1.10213 5.23422e-20)
(0.967635 -1.02597 -2.18708e-20)
(0.940778 -0.955203 1.12066e-20)
(2.78914 -3.86822 5.50645e-19)
(2.51321 -3.60218 -1.13751e-19)
(2.33642 -3.32687 -1.46649e-19)
(2.18697 -3.07494 6.39704e-20)
(2.04923 -2.84757 8.05774e-20)
(1.92374 -2.63828 -1.16229e-19)
(1.8089 -2.44455 7.48589e-20)
(1.70324 -2.26523 -1.00522e-19)
(1.60601 -2.09939 1.21853e-19)
(1.51678 -1.94624 -1.27242e-19)
(1.43522 -1.8051 5.6644e-20)
(1.36104 -1.67526 -9.97336e-21)
(1.29395 -1.55603 -9.20516e-21)
(1.23363 -1.44666 -6.1353e-20)
(1.17976 -1.34639 9.66452e-20)
(1.13194 -1.25438 -1.536e-21)
(1.08971 -1.16979 -7.95215e-21)
(1.05272 -1.09159 -1.06112e-21)
(1.02068 -1.01864 -3.84601e-21)
(0.991616 -0.950868 -3.36879e-20)
(2.94107 -3.7587 -4.59142e-19)
(2.65876 -3.5083 -7.40336e-20)
(2.47413 -3.24327 -9.31219e-20)
(2.31669 -2.99948 -4.75041e-19)
(2.17112 -2.77908 -2.34878e-19)
(2.03795 -2.57582 2.70744e-19)
(1.91569 -2.38743 -9.3815e-20)
(1.80296 -2.21298 4.71934e-20)
(1.69909 -2.05165 6.93615e-20)
(1.60368 -1.90276 1.79758e-20)
(1.51643 -1.76567 4.34139e-20)
(1.43705 -1.63973 -2.08023e-20)
(1.36523 -1.52427 5.70672e-20)
(1.30066 -1.41859 -4.96786e-20)
(1.24297 -1.32195 1.81623e-20)
(1.19174 -1.23357 -1.29284e-19)
(1.14652 -1.1526 8.50097e-20)
(1.10691 -1.078 5.51448e-20)
(1.07261 -1.00847 -3.13973e-20)
(1.04144 -0.943871 -3.53764e-20)
(3.08908 -3.64334 2.09955e-19)
(2.80117 -3.40875 1.81643e-19)
(2.60905 -3.15411 1.39993e-19)
(2.44381 -2.91861 4.18487e-19)
(2.29054 -2.70537 -3.85438e-19)
(2.1498 -2.50835 1.00831e-19)
(2.02021 -2.32554 -1.05643e-21)
(1.9005 -2.15618 -9.5638e-20)
(1.79007 -1.99959 9.49685e-20)
(1.68858 -1.85516 -2.53511e-20)
(1.59575 -1.7223 -2.80524e-20)
(1.51127 -1.60039 -1.2916e-20)
(1.43484 -1.4888 3.03231e-20)
(1.3661 -1.38687 8.91473e-22)
(1.30466 -1.29391 -4.90598e-20)
(1.2501 -1.20919 -5.85093e-20)
(1.20191 -1.13192 4.0992e-20)
(1.15972 -1.06106 2.76284e-20)
(1.12326 -0.995146 -5.55898e-20)
(1.09016 -0.933934 1.54734e-20)
(3.23338 -3.52237 -3.0918e-20)
(2.94037 -3.30353 -3.95078e-19)
(2.74092 -3.05933 -3.71097e-20)
(2.56803 -2.8323 -5.21835e-21)
(2.40719 -2.62644 7.12768e-20)
(2.25899 -2.43591 2.37444e-19)
(2.12217 -2.25892 -6.91879e-20)
(1.99558 -2.09489 -1.01494e-19)
(1.87871 -1.94327 1.12246e-20)
(1.77126 -1.80351 4.3385e-20)
(1.67298 -1.67505 -3.65192e-20)
(1.58355 -1.55731 -3.90543e-20)
(1.50264 -1.44968 -8.73883e-21)
(1.42986 -1.35153 3.58516e-20)
(1.36478 -1.2622 2.67066e-20)
(1.30693 -1.18105 1.06018e-19)
(1.25578 -1.10736 2.58037e-20)
(1.21095 -1.04013 -3.22173e-20)
(1.17228 -0.977811 3.51119e-20)
(1.13735 -0.920401 6.22459e-20)
(3.37416 -3.39554 1.50744e-19)
(3.07622 -3.19229 3.83943e-19)
(2.86941 -2.95881 5.46323e-20)
(2.689 -2.74058 -2.79948e-20)
(2.52076 -2.54238 2.31227e-19)
(2.36523 -2.35859 -6.13757e-20)
(2.2213 -2.18767 -7.12448e-20)
(2.08795 -2.02922 1.79031e-19)
(1.96477 -1.8828 -1.08799e-19)
(1.85151 -1.74791 5.13992e-20)
(1.74793 -1.62404 -8.00773e-21)
(1.65373 -1.51062 -1.23715e-20)
(1.56854 -1.40704 -5.32535e-20)
(1.49193 -1.31269 1.35791e-19)
(1.42343 -1.22693 -1.59931e-19)
(1.36251 -1.14914 7.65767e-20)
(1.30861 -1.07864 -2.19627e-20)
(1.26121 -1.01446 -4.89116e-21)
(1.21998 -0.955303 6.98354e-20)
(1.18272 -0.90185 -1.32781e-19)
(4.86306 -0.0154624 2.70267e-20)
(4.85538 -0.206934 -8.94118e-21)
(4.84033 -0.397263 -4.71473e-20)
(4.81796 -0.586476 1.27752e-19)
(4.78812 -0.774411 -1.42331e-19)
(4.7508 -0.960822 -6.45211e-20)
(4.70605 -1.14544 5.07699e-20)
(4.65398 -1.32798 7.08748e-20)
(4.5947 -1.50815 -5.33929e-20)
(4.52833 -1.68569 5.43739e-20)
(4.45502 -1.86032 -5.06221e-23)
(4.3749 -2.03176 3.2664e-21)
(4.28815 -2.19978 -3.93994e-20)
(4.19493 -2.36411 1.6412e-19)
(4.09541 -2.52453 -1.65953e-19)
(3.98979 -2.68081 1.17647e-19)
(3.87825 -2.83274 -1.59885e-19)
(3.76101 -2.98016 -1.27667e-19)
(3.63828 -3.12295 -2.95986e-20)
(3.51032 -3.26117 1.38923e-20)
(4.5889 -0.0892382 -5.79978e-21)
(4.57833 -0.269066 -3.18544e-20)
(4.56002 -0.447762 6.02792e-20)
(4.53421 -0.625193 9.81202e-20)
(4.50097 -0.80113 -2.49373e-20)
(4.46034 -0.975289 -1.31583e-19)
(4.41245 -1.14737 2.4151e-19)
(4.35743 -1.31708 -4.88945e-20)
(4.29543 -1.48413 -2.77458e-19)
(4.22662 -1.64822 1.3738e-19)
(4.15116 -1.8091 4.95983e-20)
(4.06927 -1.96649 2.52082e-19)
(3.98113 -2.12015 -4.80406e-19)
(3.88697 -2.26986 7.20618e-22)
(3.78702 -2.41539 1.20196e-19)
(3.68148 -2.55655 1.91731e-19)
(3.57059 -2.69317 3.26879e-19)
(3.45457 -2.82511 -1.16994e-19)
(3.33361 -2.95227 -2.65955e-19)
(3.2078 -3.07465 2.60456e-19)
(4.30802 -0.0829131 1.75252e-20)
(4.29992 -0.250456 -2.12973e-20)
(4.28408 -0.417279 1.29294e-20)
(4.26069 -0.583061 -4.45938e-20)
(4.22988 -0.747484 5.50816e-20)
(4.19178 -0.910223 1.38055e-19)
(4.14653 -1.07096 -1.46155e-19)
(4.09428 -1.22937 2.35698e-20)
(4.03519 -1.38516 9.70531e-20)
(3.96944 -1.53802 2.04557e-19)
(3.89724 -1.68769 -4.62454e-20)
(3.81879 -1.8339 3.3847e-19)
(3.73431 -1.97638 1.51499e-20)
(3.64404 -2.11492 -3.66293e-19)
(3.54822 -2.24929 -4.81288e-20)
(3.44708 -2.37929 -9.46922e-20)
(3.34087 -2.50476 -1.98546e-19)
(3.22982 -2.62556 -8.85004e-20)
(3.11417 -2.74158 -1.75605e-19)
(2.99403 -2.85266 1.83044e-19)
(4.02602 -0.072852 -3.53903e-21)
(4.02133 -0.227949 9.30314e-21)
(4.00915 -0.38271 -1.32839e-20)
(3.98958 -0.536736 -7.23275e-20)
(3.96276 -0.689665 -3.5007e-20)
(3.92881 -0.841146 -4.20997e-20)
(3.88786 -0.990839 1.51126e-19)
(3.84007 -1.13841 -2.81e-21)
(3.7856 -1.28355 -1.50781e-19)
(3.72463 -1.42595 3.00161e-21)
(3.65736 -1.56532 -8.4613e-20)
(3.58399 -1.70139 2.11453e-20)
(3.50477 -1.83388 -4.36361e-19)
(3.41992 -1.96257 2.19367e-19)
(3.32967 -2.08721 -1.25498e-19)
(3.23429 -2.20762 -3.80341e-20)
(3.13403 -2.32361 -4.89037e-19)
(3.02915 -2.43507 4.85538e-19)
(2.91986 -2.5418 -2.26213e-19)
(2.80639 -2.64364 -1.41074e-19)
(3.75085 -0.0712604 1.58961e-21)
(3.74932 -0.214131 -2.19871e-20)
(3.74067 -0.356968 3.24157e-20)
(3.72494 -0.499367 4.03667e-20)
(3.70221 -0.640954 -4.74145e-20)
(3.67261 -0.781369 1.5361e-19)
(3.63624 -0.920263 -5.30315e-20)
(3.59324 -1.0573 -1.27849e-22)
(3.54376 -1.19215 -7.51058e-20)
(3.48799 -1.3245 1.5898e-19)
(3.42609 -1.45406 1.17542e-19)
(3.35828 -1.58055 7.07052e-20)
(3.28478 -1.70368 4.43738e-20)
(3.20581 -1.82321 -1.19546e-19)
(3.12161 -1.9389 9.47655e-20)
(3.03242 -2.05055 3.03855e-19)
(2.93852 -2.15801 3.16404e-19)
(2.84014 -2.26108 -2.21243e-19)
(2.73755 -2.3596 7.90438e-20)
(2.63097 -2.45337 -1.58934e-20)
(3.48917 -0.072642 3.74033e-21)
(3.49034 -0.203807 -5.20961e-21)
(3.4848 -0.335181 -2.69689e-20)
(3.47255 -0.466376 1.14863e-20)
(3.45365 -0.597022 3.72134e-22)
(3.42819 -0.726764 6.02059e-21)
(3.39626 -0.855254 -7.40699e-20)
(3.35798 -0.982155 5.50132e-20)
(3.31348 -1.10714 -1.1196e-19)
(3.26291 -1.2299 1.16106e-19)
(3.20645 -1.35012 -1.60025e-20)
(3.14429 -1.46753 6.27551e-20)
(3.07662 -1.58184 -1.71079e-19)
(3.00366 -1.69279 -7.65498e-20)
(2.92564 -1.80017 1.88896e-19)
(2.8428 -1.90376 -1.35013e-19)
(2.75541 -2.00339 -1.93686e-19)
(2.66369 -2.09885 9.71952e-20)
(2.56791 -2.18997 -6.25163e-20)
(2.4683 -2.27656 1.97093e-19)
(3.24567 -0.0756902 -2.5814e-21)
(3.2489 -0.195887 1.24056e-20)
(3.24584 -0.316477 8.66914e-21)
(3.23649 -0.437094 -1.07224e-20)
(3.22087 -0.557383 4.11781e-20)
(3.19905 -0.676999 -1.17397e-19)
(3.1711 -0.795604 6.73807e-20)
(3.13712 -0.912868 -5.01562e-20)
(3.09721 -1.02847 9.84251e-23)
(3.05152 -1.14211 -7.82392e-20)
(3.0002 -1.25347 1.18878e-19)
(2.94341 -1.36228 2.97123e-19)
(2.88134 -1.46825 -2.86522e-19)
(2.81419 -1.57113 -2.14344e-19)
(2.74218 -1.67071 -1.24004e-19)
(2.66554 -1.76679 8.78662e-20)
(2.58449 -1.85914 -9.45453e-20)
(2.49928 -1.94757 8.48907e-22)
(2.41018 -2.03191 2.15808e-19)
(2.31739 -2.11195 -3.86944e-21)
(3.02314 -0.0800349 -1.23151e-21)
(3.02773 -0.190134 8.45477e-21)
(3.02646 -0.300752 3.04757e-21)
(3.01931 -0.411547 -4.8376e-20)
(3.00629 -0.522181 5.22199e-20)
(2.98744 -0.632326 -4.60169e-20)
(2.96283 -0.74166 1.3347e-19)
(2.93253 -0.849864 -1.35724e-20)
(2.89663 -0.956631 -7.25021e-20)
(2.85526 -1.06166 1.41676e-20)
(2.80854 -1.16466 -2.56572e-20)
(2.75663 -1.26534 -7.30364e-20)
(2.69968 -1.36343 -1.69255e-19)
(2.6379 -1.4587 -6.90231e-20)
(2.57147 -1.55095 1.70352e-19)
(2.50062 -1.63995 -1.1937e-19)
(2.42555 -1.72548 -6.94527e-20)
(2.3465 -1.80733 -1.04494e-19)
(2.26372 -1.88535 1.44398e-20)
(2.17741 -1.95933 5.62042e-21)
(2.82279 -0.0850723 8.85031e-22)
(2.82806 -0.186003 1.09547e-21)
(2.8279 -0.287527 -6.88935e-22)
(2.82225 -0.389323 -1.32481e-20)
(2.81114 -0.491075 -3.1203e-20)
(2.79457 -0.592473 -1.94389e-20)
(2.77261 -0.693212 -9.47274e-20)
(2.74531 -0.79299 8.80792e-20)
(2.71276 -0.891513 -5.10898e-20)
(2.67505 -0.988492 1.12101e-19)
(2.6323 -1.08364 -2.25726e-20)
(2.58465 -1.17669 1.89674e-19)
(2.53224 -1.26738 1.25027e-19)
(2.47525 -1.3555 2.52697e-19)
(2.41387 -1.44084 -1.71859e-19)
(2.34827 -1.52317 1.54321e-19)
(2.27867 -1.60227 -3.01998e-20)
(2.20528 -1.67795 1.04693e-19)
(2.12834 -1.75004 1.10028e-19)
(2.04806 -1.81834 -1.56755e-19)
(2.64451 -0.0902451 -7.7018e-21)
(2.64991 -0.182943 1.24338e-24)
(2.65025 -0.27626 2.84318e-20)
(2.64549 -0.3699 -2.67385e-20)
(2.63564 -0.463567 1.63837e-20)
(2.62071 -0.556969 6.40578e-20)
(2.60074 -0.64982 -2.03353e-20)
(2.57578 -0.741835 -2.00059e-20)
(2.54591 -0.832736 -2.66932e-20)
(2.51121 -0.922248 4.43475e-20)
(2.47179 -1.0101 -6.46553e-20)
(2.42776 -1.09602 1.20426e-19)
(2.37927 -1.1798 -1.17941e-19)
(2.32646 -1.26123 3.19661e-20)
(2.26951 -1.34009 5.51935e-20)
(2.20858 -1.41615 3.90329e-20)
(2.14387 -1.4892 -7.41388e-20)
(2.07558 -1.55907 -1.16195e-19)
(2.00394 -1.62558 4.00838e-20)
(1.92914 -1.68856 1.25395e-20)
(2.48734 -0.0951439 7.89102e-21)
(2.4924 -0.180506 2.14709e-20)
(2.49275 -0.266479 -4.81828e-20)
(2.48836 -0.352787 -3.78325e-20)
(2.47923 -0.439154 -1.94115e-20)
(2.46537 -0.525307 -5.3685e-20)
(2.44682 -0.610977 3.84441e-20)
(2.42361 -0.695898 4.8741e-20)
(2.39581 -0.779807 -1.04303e-19)
(2.36351 -0.862443 5.05495e-20)
(2.3268 -0.943546 5.2211e-20)
(2.28578 -1.02288 1.24545e-19)
(2.24058 -1.10024 -9.09701e-20)
(2.19136 -1.17544 1.24387e-19)
(2.13824 -1.24824 -1.1283e-19)
(2.08138 -1.31843 -1.99553e-20)
(2.02098 -1.38582 -3.18004e-20)
(1.95723 -1.45023 1.39532e-19)
(1.89032 -1.51151 3.70266e-20)
(1.82045 -1.56948 -4.27306e-20)
(2.34971 -0.0994864 -6.81331e-21)
(2.35409 -0.178348 4.04876e-21)
(2.35408 -0.257787 3.08127e-20)
(2.34966 -0.337544 3.98234e-21)
(2.34081 -0.417361 4.48034e-20)
(2.32756 -0.496983 3.72064e-20)
(2.30993 -0.576159 -3.1787e-20)
(2.28797 -0.654638 -4.54237e-20)
(2.26173 -0.732176 3.7842e-20)
(2.2313 -0.808524 2.9054e-20)
(2.19674 -0.883434 -2.99543e-20)
(2.15818 -0.956704 7.8122e-20)
(2.11573 -1.02815 -1.84457e-19)
(2.06951 -1.09757 4.22513e-20)
(2.01966 -1.16474 5.07817e-20)
(1.96633 -1.22947 -8.67289e-20)
(1.90968 -1.29157 -1.72515e-19)
(1.84989 -1.35089 5.70565e-20)
(1.78716 -1.40727 -4.6633e-20)
(1.72168 -1.46055 -4.40022e-20)
(2.22977 -0.103096 -2.88724e-21)
(2.23324 -0.176218 2.60152e-21)
(2.2326 -0.249864 -1.4267e-20)
(2.22784 -0.32379 -8.60818e-21)
(2.21895 -0.397756 -2.78032e-21)
(2.20595 -0.471524 -3.40364e-20)
(2.18886 -0.544856 9.11713e-20)
(2.16774 -0.61752 3.67227e-21)
(2.14263 -0.689284 -5.33717e-22)
(2.11361 -0.759911 -8.02107e-20)
(2.08077 -0.829182 7.99258e-20)
(2.04419 -0.896915 -4.44689e-20)
(2.00399 -0.962933 8.24419e-20)
(1.96029 -1.02703 -1.22812e-19)
(1.9132 -1.08901 -3.44717e-21)
(1.86288 -1.14868 -7.13171e-20)
(1.80947 -1.20588 1.41383e-19)
(1.75313 -1.26046 -3.48321e-20)
(1.69406 -1.31228 -1.01326e-20)
(1.63244 -1.36116 -8.23483e-20)
(2.12551 -0.105886 8.9429e-21)
(2.12794 -0.173946 -6.35693e-22)
(2.12651 -0.242466 1.83312e-20)
(2.12121 -0.311217 -1.92075e-20)
(2.11205 -0.379972 2.29666e-20)
(2.09905 -0.448508 -1.37739e-20)
(2.08222 -0.516602 -5.06947e-20)
(2.06163 -0.584037 2.09022e-20)
(2.03732 -0.650594 1.8901e-20)
(2.00937 -0.71605 -2.56344e-20)
(1.97784 -0.780208 2.01165e-21)
(1.94285 -0.84291 -3.06628e-21)
(1.90451 -0.903984 -8.16899e-20)
(1.8629 -0.963217 8.96169e-20)
(1.81815 -1.02043 4.58583e-20)
(1.7704 -1.07544 1.69089e-19)
(1.71977 -1.12812 -2.38495e-19)
(1.66642 -1.17832 6.1499e-20)
(1.61054 -1.2259 1.49439e-19)
(1.55228 -1.2707 1.1482e-19)
(2.03498 -0.107836 -6.76449e-21)
(2.03631 -0.171432 5.13829e-21)
(2.03401 -0.235419 -6.63565e-21)
(2.02807 -0.29958 -4.09418e-20)
(2.01849 -0.363701 4.14911e-20)
(2.00531 -0.427574 1.45999e-20)
(1.98856 -0.490988 3.6064e-21)
(1.96827 -0.553739 4.08412e-20)
(1.94452 -0.61562 -9.30821e-20)
(1.91736 -0.67642 7.40408e-20)
(1.88688 -0.735977 -7.99514e-21)
(1.85319 -0.794141 1.19248e-19)
(1.81636 -0.850725 -1.49034e-19)
(1.7765 -0.905536 3.10655e-22)
(1.73373 -0.958405 -8.03477e-20)
(1.68817 -1.00918 9.69093e-21)
(1.63994 -1.05772 1.36847e-19)
(1.58919 -1.10388 -1.11709e-19)
(1.53607 -1.14756 -2.83462e-20)
(1.48073 -1.18854 -1.87724e-19)
(1.95631 -0.10898 1.92625e-21)
(1.95655 -0.16863 2.3944e-22)
(1.95336 -0.228602 -1.504e-20)
(1.94674 -0.288692 6.4126e-21)
(1.93669 -0.348696 1.36253e-20)
(1.92325 -0.408418 1.9662e-20)
(1.90645 -0.467659 -7.65319e-21)
(1.88633 -0.526227 1.88965e-20)
(1.86297 -0.583924 -3.42844e-20)
(1.83642 -0.640562 -4.79714e-20)
(1.80678 -0.695998 -1.73199e-20)
(1.77414 -0.750079 -9.0415e-21)
(1.73859 -0.802625 -1.65751e-20)
(1.70022 -0.853451 -1.18187e-20)
(1.65915 -0.902403 3.05519e-20)
(1.61549 -0.949336 -3.26568e-21)
(1.56935 -0.994111 -1.16029e-19)
(1.52085 -1.0366 -1.89045e-20)
(1.47014 -1.07667 1.17169e-19)
(1.41729 -1.11405 5.89444e-20)
(1.88781 -0.109388 2.48981e-22)
(1.88703 -0.165539 4.19926e-21)
(1.88299 -0.221948 -1.31193e-22)
(1.8757 -0.27842 1.49906e-20)
(1.86518 -0.334763 -2.99016e-20)
(1.85144 -0.39079 -3.23983e-20)
(1.83455 -0.446315 4.41293e-20)
(1.81453 -0.501156 -2.99928e-20)
(1.79147 -0.555124 -1.59211e-21)
(1.76542 -0.608055 3.30929e-20)
(1.73649 -0.659815 1.03007e-21)
(1.70475 -0.710256 5.79214e-20)
(1.6703 -0.759191 -2.5539e-20)
(1.63323 -0.806458 -3.073e-20)
(1.59366 -0.851908 -8.31712e-20)
(1.55168 -0.8954 -6.67163e-21)
(1.50739 -0.93679 -7.88171e-20)
(1.4609 -0.97593 4.94113e-20)
(1.41233 -1.01266 7.19777e-20)
(1.36154 -1.04652 -4.1474e-20)
(1.82797 -0.109148 -3.92439e-21)
(1.82626 -0.162199 8.43507e-21)
(1.82146 -0.215449 1.42606e-20)
(1.81357 -0.268713 -1.59784e-20)
(1.80261 -0.321808 2.48712e-20)
(1.78861 -0.374558 -8.21456e-21)
(1.77162 -0.426786 -1.08371e-20)
(1.75169 -0.47832 -7.63807e-21)
(1.72889 -0.528985 -2.32965e-22)
(1.70329 -0.578633 -6.30719e-20)
(1.675 -0.627146 6.65231e-21)
(1.64407 -0.674358 2.92498e-20)
(1.61062 -0.720102 6.66358e-20)
(1.57473 -0.764225 1.184e-19)
(1.53652 -0.806583 -1.29917e-20)
(1.49607 -0.847032 1.3058e-19)
(1.45349 -0.88541 -5.35485e-20)
(1.40884 -0.921515 7.42257e-20)
(1.36224 -0.955066 4.06199e-20)
(1.31312 -0.985158 -2.19737e-20)
(1.77547 -0.108339 1.61085e-21)
(1.77296 -0.158675 -4.29139e-21)
(1.7675 -0.209159 -3.13149e-20)
(1.7591 -0.259616 -2.61118e-20)
(1.74777 -0.309873 3.1413e-20)
(1.73356 -0.359761 4.71397e-20)
(1.71652 -0.409115 3.13824e-21)
(1.69669 -0.457771 -2.67701e-20)
(1.67414 -0.505569 -3.72386e-20)
(1.64897 -0.552384 1.76779e-20)
(1.62126 -0.598087 -4.09181e-21)
(1.59108 -0.642517 -1.11762e-19)
(1.55854 -0.685521 -1.1114e-19)
(1.52373 -0.726954 4.17127e-20)
(1.48676 -0.766674 4.86058e-20)
(1.44772 -0.804526 -5.15446e-21)
(1.40671 -0.840311 -3.72816e-20)
(1.36379 -0.873722 -2.82654e-20)
(1.31912 -0.904177 -3.6424e-20)
(1.27146 -0.929668 5.78809e-20)
(1.72914 -0.107065 -5.35147e-21)
(1.72599 -0.154914 9.3635e-21)
(1.72001 -0.202887 5.87686e-21)
(1.71123 -0.25082 9.42752e-21)
(1.69967 -0.298548 -3.6003e-20)
(1.68535 -0.345914 -4.41791e-20)
(1.66834 -0.392761 -1.02908e-20)
(1.64869 -0.438934 5.45008e-20)
(1.62647 -0.484293 -3.104e-20)
(1.60175 -0.528717 1.28508e-20)
(1.57461 -0.572076 -4.81178e-20)
(1.54516 -0.61422 9.43476e-20)
(1.51347 -0.655 -8.97735e-20)
(1.47964 -0.69428 -2.1211e-20)
(1.4438 -0.731922 -2.67535e-20)
(1.40603 -0.767756 -3.08863e-21)
(1.36643 -0.801528 -4.2603e-20)
(1.32514 -0.832766 5.22859e-20)
(1.28249 -0.860343 2.917e-20)
(1.2363 -0.880423 -1.4407e-19)
(3.43328 3.40793 1.90406e-19)
(3.5679 3.2718 -2.87237e-19)
(3.69672 3.13129 1.02878e-19)
(3.8199 2.98622 -1.59826e-19)
(3.93713 2.83638 1.62337e-20)
(4.04815 2.68185 -1.68656e-19)
(4.15276 2.52281 -3.21463e-20)
(4.25078 2.35953 -1.66336e-19)
(4.34202 2.19226 -1.2135e-20)
(4.42632 2.0213 6.26914e-20)
(4.50353 1.84694 8.04236e-20)
(4.5735 1.6695 -1.34821e-19)
(4.63611 1.48929 6.84164e-20)
(4.69126 1.30663 2.01657e-19)
(4.73886 1.12184 -3.6206e-20)
(4.77885 0.935251 -1.21602e-19)
(4.81116 0.747188 1.62616e-19)
(4.83579 0.557969 -1.00915e-19)
(4.85276 0.367898 -1.50654e-20)
(4.86218 0.17722 -1.04899e-20)
(3.23172 3.08499 1.00907e-19)
(3.36067 2.96437 -2.8919e-19)
(3.48415 2.8385 -1.17766e-19)
(3.60229 2.70751 1.14285e-19)
(3.71489 2.57143 -6.72518e-20)
(3.8217 2.43038 1.20979e-19)
(3.92244 2.28459 3.32014e-20)
(4.01688 2.13427 -1.80605e-19)
(4.10477 1.9797 6.49351e-20)
(4.1859 1.82116 4.36902e-20)
(4.26006 1.65898 1.65746e-19)
(4.32706 1.49346 -1.46261e-19)
(4.38675 1.32496 -7.93535e-20)
(4.43899 1.15382 1.69568e-19)
(4.48366 0.980394 -1.00335e-19)
(4.52067 0.805043 1.73363e-20)
(4.54997 0.628126 -6.41407e-20)
(4.57149 0.44999 -3.65195e-22)
(4.58523 0.270958 -3.23527e-20)
(4.59118 0.0912886 9.38165e-21)
(2.96723 2.79946 2.50846e-20)
(3.09077 2.69616 -1.96084e-22)
(3.20968 2.58709 2.34179e-19)
(3.32383 2.47247 -7.83692e-20)
(3.433 2.3525 8.84794e-20)
(3.53694 2.22735 -5.4434e-20)
(3.63535 2.09725 -4.65814e-20)
(3.72797 1.96241 -2.24633e-19)
(3.81453 1.82309 2.60869e-19)
(3.89477 1.67955 -1.62917e-19)
(3.96846 1.5321 -7.42053e-20)
(4.03538 1.38105 -1.21139e-19)
(4.09533 1.22672 6.42441e-20)
(4.14814 1.06948 -7.35823e-20)
(4.19365 0.909669 5.45351e-20)
(4.23175 0.747657 -1.18011e-19)
(4.26233 0.583808 1.26362e-19)
(4.28531 0.418489 5.34446e-20)
(4.30064 0.252056 -9.26381e-21)
(4.30823 0.0848511 1.15394e-20)
(2.7065 2.51814 -7.8958e-21)
(2.82349 2.43071 -9.03959e-21)
(2.93671 2.33744 3.95862e-20)
(3.04586 2.23853 -1.17379e-19)
(3.15068 2.13417 1.96023e-19)
(3.25087 2.02457 6.43827e-20)
(3.34614 1.9099 8.89898e-21)
(3.4362 1.7904 -1.29578e-20)
(3.52076 1.66628 1.87067e-19)
(3.59956 1.5378 7.82644e-20)
(3.67232 1.40524 1.63969e-19)
(3.73882 1.2689 -3.38888e-20)
(3.79883 1.12908 -1.80009e-20)
(3.85215 0.986112 -5.11303e-20)
(3.8986 0.840346 3.46881e-20)
(3.93803 0.692133 5.75372e-20)
(3.97031 0.541834 -9.36302e-20)
(3.99533 0.389817 3.48068e-20)
(4.013 0.236452 2.5288e-21)
(4.02322 0.0821137 6.10057e-21)
(2.46827 2.24589 1.10935e-19)
(2.57794 2.17228 1.92584e-20)
(2.68456 2.09298 -2.27937e-19)
(2.78777 2.00813 -8.38184e-20)
(2.88725 1.9179 -3.74755e-20)
(2.98271 1.82247 -1.76301e-19)
(3.07385 1.72199 1.5239e-19)
(3.16034 1.61668 -8.06513e-20)
(3.24192 1.50673 8.56021e-20)
(3.31828 1.39239 -3.79742e-20)
(3.38917 1.2739 6.25691e-20)
(3.45432 1.15154 -9.81727e-20)
(3.51351 1.0256 -9.82358e-21)
(3.56652 0.896382 -3.94855e-20)
(3.61315 0.764214 -3.13727e-20)
(3.65323 0.62943 1.77133e-20)
(3.68661 0.492379 -9.95189e-21)
(3.71315 0.353416 1.58362e-20)
(3.73276 0.212905 -1.94834e-20)
(3.74531 0.0712208 2.71852e-21)
(2.2549 1.99446 -1.66217e-20)
(2.35709 1.93268 5.58501e-22)
(2.4568 1.86544 9.20745e-20)
(2.55367 1.79285 -1.90119e-20)
(2.64736 1.71504 6.08445e-20)
(2.73758 1.63215 -2.12236e-19)
(2.824 1.54433 -3.89099e-20)
(2.90632 1.45176 -1.14121e-19)
(2.98426 1.35463 2.27864e-20)
(3.05751 1.25314 3.85729e-20)
(3.12582 1.14752 8.60701e-20)
(3.18892 1.03804 -1.20674e-19)
(3.24657 0.92494 6.31193e-20)
(3.29855 0.80852 9.81074e-20)
(3.34466 0.689076 6.90651e-21)
(3.38471 0.566923 -4.05928e-20)
(3.41854 0.442388 -2.42967e-21)
(3.44601 0.31581 -8.99726e-21)
(3.467 0.187537 2.28526e-21)
(3.48137 0.0579279 -1.78244e-21)
(2.06841 1.76859 3.08493e-20)
(2.1633 1.71674 2.18271e-20)
(2.25615 1.65969 1.90983e-20)
(2.34662 1.59753 -8.80295e-20)
(2.43438 1.53036 -8.76824e-20)
(2.51912 1.4583 2.09848e-19)