/*--------------------------------*- C++ -*----------------------------------*\
  =========                 |
  \\      /  F ield         | OpenFOAM: The Open Source CFD Toolbox
   \\    /   O peration     | Website:  https://openfoam.org
    \\  /    A nd           | Version:  6.0
     \\/     M anipulation  |
\*---------------------------------------------------------------------------*/
FoamFile
{
    version     2.0;
    format      ascii;
    class       surfaceScalarField;
    location    "7";
    object      phi;
}
// * * * * * * * * * * * * * * * * * * * * * * * * * * * * * * * * * * * * * //

dimensions      [0 3 -1 0 0 0 0];

internalField   nonuniform List<scalar> 
18940
(
0.000152047
-0.357188
0.357036
0.000674655
-0.336289
0.335766
0.00142715
-0.319662
0.318909
0.00229546
-0.305131
0.304263
0.00320581
-0.291859
0.290949
0.00411117
-0.279276
0.278371
0.00498499
-0.267135
0.266262
0.00581559
-0.255381
0.25455
0.0066007
-0.244026
0.243241
0.00734328
-0.233108
0.232366
0.00804883
-0.22266
0.221954
0.00872368
-0.212703
0.212028
0.0093743
-0.203249
0.202598
0.010007
-0.194295
0.193662
0.0106282
-0.185831
0.18521
0.0112441
-0.177837
0.177221
0.011861
-0.170281
0.169664
0.0124842
-0.163122
0.162499
0.0131161
-0.156308
0.155676
-0.14978
0.149141
0.0137555
0.000179644
-0.357368
0.000712032
-0.336821
0.00146961
-0.320419
0.00234045
-0.306002
0.0032494
-0.292768
0.00415016
-0.280177
0.00501735
-0.268003
0.00584023
-0.256203
0.00661723
-0.244803
0.00735189
-0.233843
0.00805006
-0.223358
0.00871828
-0.213371
0.00936304
-0.203893
0.00999061
-0.194923
0.0106073
-0.186448
0.0112194
-0.178449
0.0118335
-0.170895
0.0124553
-0.163744
0.0130884
-0.156941
-0.150424
0.0137326
0.000205991
-0.357574
0.000747458
-0.337363
0.00150795
-0.32118
0.00237941
-0.306874
0.00328581
-0.293675
0.00418092
-0.281072
0.00504032
-0.268862
0.00585424
-0.257017
0.00662195
-0.245571
0.00734759
-0.234569
0.00803736
-0.224048
0.00869802
-0.214032
0.00933605
-0.204531
0.00995767
-0.195544
0.010569
-0.187059
0.0111766
-0.179057
0.011787
-0.171506
0.0124067
-0.164364
0.0130401
-0.157574
-0.151072
0.0136883
0.000217164
-0.357791
0.000771717
-0.337917
0.00153863
-0.321947
0.0024111
-0.307746
0.00331423
-0.294578
0.00420265
-0.28196
0.00505307
-0.269713
0.00585684
-0.257821
0.0066141
-0.246328
0.00732959
-0.235284
0.00800996
-0.224728
0.0086621
-0.214684
0.00929255
-0.205162
0.00990743
-0.196159
0.0105128
-0.187665
0.011115
-0.179659
0.0117211
-0.172112
0.0123379
-0.16498
0.0129708
-0.158207
-0.151724
0.0136224
0.000227261
-0.358018
0.000792113
-0.338482
0.00156425
-0.322719
0.00243653
-0.308618
0.003335
-0.295476
0.00421536
-0.282841
0.00505547
-0.270553
0.00584777
-0.258613
0.0065933
-0.247074
0.00729746
-0.235988
0.00796728
-0.225398
0.00860988
-0.215327
0.00923181
-0.205784
0.00983907
-0.196766
0.0104376
-0.188263
0.0110337
-0.180255
0.0116346
-0.172713
0.0122476
-0.165593
0.0128795
-0.158839
-0.152378
0.0135339
0.000234154
-0.358252
0.000807558
-0.339055
0.00158413
-0.323496
0.00245532
-0.30949
0.00334787
-0.296369
0.00421877
-0.283711
0.00504714
-0.271381
0.00582657
-0.259393
0.00655901
-0.247806
0.00725053
-0.23668
0.00790859
-0.226056
0.00854052
-0.215959
0.00915288
-0.206396
0.00975157
-0.197365
0.0103423
-0.188854
0.0109314
-0.180844
0.0115262
-0.173307
0.0121347
-0.166202
0.0127646
-0.159469
-0.153035
0.0134213
0.000240061
-0.358492
0.000820208
-0.339636
0.00159954
-0.324275
0.00246807
-0.310358
0.00335313
-0.297254
0.00421296
-0.284571
0.00502801
-0.272196
0.00579303
-0.260158
0.0065109
-0.248524
0.00718835
-0.237357
0.00783329
-0.226701
0.00845324
-0.216579
0.00905481
-0.206998
0.00964378
-0.197954
0.0102257
-0.189436
0.0108068
-0.181425
0.0113944
-0.173895
0.0119973
-0.166805
0.0126243
-0.160096
-0.153693
0.0132824
0.000244657
-0.358737
0.000830041
-0.340221
0.00161061
-0.325055
0.0024749
-0.311222
0.00335084
-0.29813
0.00419793
-0.285418
0.004998
-0.272996
0.00574696
-0.260907
0.00644864
-0.249226
0.00711044
-0.238019
0.00774069
-0.227331
0.00834716
-0.217185
0.00893651
-0.207587
0.00951441
-0.198532
0.0100862
-0.190008
0.010658
-0.181997
0.0112372
-0.174474
0.0118332
-0.167401
0.012456
-0.160719
-0.154352
0.0131146
0.000248367
-0.358985
0.000837689
-0.34081
0.00161794
-0.325836
0.00247628
-0.312081
0.00334132
-0.298995
0.00417391
-0.286251
0.00495721
-0.273779
0.00568834
-0.261638
0.00637206
-0.24991
0.00701644
-0.238664
0.00763024
-0.227945
0.00822148
-0.217776
0.00879689
-0.208162
0.00936203
-0.199097
0.00992207
-0.190568
0.0104829
-0.182558
0.011052
-0.175043
0.0116394
-0.167988
0.0122565
-0.161336
-0.155009
0.0129141
0.000251234
-0.359236
0.000843373
-0.341402
0.00162183
-0.326614
0.00247255
-0.312931
0.00332492
-0.299847
0.00414116
-0.287067
0.00490585
-0.274544
0.00561729
-0.262349
0.00628113
-0.250574
0.00690613
-0.239289
0.00750147
-0.22854
0.00807544
-0.21835
0.00863482
-0.208722
0.00918514
-0.199647
0.00973135
-0.191114
0.0102791
-0.183106
0.010836
-0.1756
0.0114126
-0.168565
0.0120215
-0.161945
-0.155664
0.0126762
0.000253493
-0.35949
0.00084752
-0.341996
0.00162282
-0.327389
0.00246425
-0.313773
0.00330214
-0.300685
0.0041002
-0.287865
0.00484437
-0.275288
0.00553414
-0.263039
0.00617607
-0.251215
0.00677954
-0.239892
0.00735417
-0.229115
0.00790847
-0.218905
0.00844937
-0.209263
0.0089823
-0.20018
0.00951206
-0.191644
0.010044
-0.183638
0.0105859
-0.176142
0.0111485
-0.169127
0.0117463
-0.162542
-0.156313
0.0123952
0.000255399
-0.359745
0.000850596
-0.342592
0.00162146
-0.32816
0.002452
-0.314603
0.00327367
-0.301507
0.00405169
-0.288643
0.00477343
-0.27601
0.00543952
-0.263705
0.00605738
-0.251833
0.006637
-0.240472
0.00718839
-0.229666
0.00772031
-0.219437
0.0082398
-0.209782
0.00875227
-0.200693
0.00926235
-0.192154
0.00977517
-0.18415
0.0102983
-0.176665
0.0108432
-0.169672
0.0114259
-0.163125
-0.156952
0.0120651
0.000257412
-0.360003
0.000853315
-0.343188
0.00161856
-0.328926
0.00243667
-0.315422
0.00324041
-0.302311
0.00399659
-0.2894
0.00469399
-0.276707
0.00533437
-0.264346
0.00592596
-0.252425
0.00647926
-0.241025
0.00700465
-0.230192
0.00751109
-0.219943
0.00800573
-0.210277
0.00849401
-0.201181
0.00898039
-0.19264
0.0094698
-0.18464
0.00996967
-0.177165
0.010492
-0.170195
0.0110545
-0.163688
-0.157577
0.0116788
0.000260244
-0.360263
0.00085669
-0.343784
0.00161512
-0.329684
0.00241929
-0.316226
0.00320345
-0.303095
0.00393607
-0.290132
0.00460734
-0.277379
0.00522008
-0.264958
0.00578324
-0.252988
0.00630776
-0.24155
0.00680423
-0.230688
0.00728173
-0.220421
0.00774748
-0.210743
0.00820692
-0.201641
0.00866443
-0.193098
0.00912474
-0.1851
0.00959521
-0.177636
0.0100882
-0.170688
0.0106231
-0.164222
-0.158178
0.0112249
0.000264953
-0.360528
0.000861962
-0.344381
0.00161222
-0.330434
0.00240092
-0.317014
0.00316401
-0.303858
0.00387155
-0.29084
0.0045151
-0.278022
0.0050985
-0.265542
0.00563131
-0.253521
0.00612475
-0.242043
0.00658948
-0.231153
0.00703454
-0.220866
0.007467
-0.211175
0.00789216
-0.202066
0.00831419
-0.19352
0.00873756
-0.185524
0.00916945
-0.178068
0.00962258
-0.171141
0.010118
-0.164718
-0.158748
0.0106877
0.000272768
-0.360801
0.000870194
-0.344978
0.00161077
-0.331175
0.00238269
-0.317786
0.00312352
-0.304599
0.00380474
-0.291521
0.00441929
-0.278637
0.00497195
-0.266094
0.00547282
-0.254022
0.00593328
-0.242503
0.00636388
-0.231584
0.00677339
-0.221275
0.00716854
-0.21157
0.00755416
-0.202451
0.00793384
-0.1939
0.00831125
-0.185901
0.00869279
-0.178449
0.00909147
-0.171539
0.00953179
-0.165158
-0.159274
0.0100573
0.000284752
-0.361085
0.00088241
-0.345576
0.00161223
-0.331905
0.00236634
-0.31854
0.00308385
-0.305316
0.00373767
-0.292175
0.00432218
-0.279221
0.00484312
-0.266615
0.00531095
-0.25449
0.00573704
-0.242929
0.00613159
-0.231978
0.0065029
-0.221646
0.00685718
-0.211924
0.00719876
-0.202793
0.00753031
-0.194231
0.00785431
-0.186225
0.00817569
-0.17877
0.00850687
-0.171871
0.00887635
-0.165528
-0.159726
0.00932861
0.000302908
-0.361388
0.00090239
-0.346176
0.0016205
-0.332623
0.00235472
-0.319275
0.00304704
-0.306009
0.00367222
-0.2928
0.00422601
-0.279775
0.00471492
-0.267104
0.00514956
-0.254924
0.00554088
-0.243321
0.00589832
-0.232336
0.00622915
-0.221977
0.00653858
-0.212234
0.00682976
-0.203084
0.00710471
-0.194506
0.00736549
-0.186486
0.00761636
-0.179021
0.00786661
-0.172121
0.00813867
-0.1658
-0.160038
0.00845083
0.000337204
-0.361726
0.000940728
-0.346779
0.00164125
-0.333323
0.00235002
-0.319983
0.00301404
-0.306673
0.00360942
-0.293395
0.00413255
-0.280298
0.00459032
-0.267562
0.00499325
-0.255327
0.00535162
-0.243679
0.00567362
-0.232658
0.0059647
-0.222268
0.00622719
-0.212496
0.00646096
-0.203318
0.00666448
-0.19471
0.00683624
-0.186657
0.00697677
-0.179162
0.00709053
-0.172235
0.00719803
-0.165907
-0.160199
0.00735924
0.000418465
-0.362144
0.00100458
-0.347365
0.00167248
-0.333991
0.00234996
-0.320661
0.00298384
-0.307306
0.00354949
-0.293961
0.00404319
-0.280792
0.00447202
-0.267991
0.0048465
-0.255702
0.00517662
-0.244009
0.00546965
-0.232951
0.00572914
-0.222528
0.0059544
-0.212722
0.00614013
-0.203504
0.00627541
-0.194845
0.00634235
-0.186724
0.00631493
-0.179134
0.00616825
-0.172088
0.0059384
-0.165677
-0.16033
0.00606957
0.366821
0.000324663
-0.367146
0.366539
0.000282653
0.366271
0.000267689
0.36601
0.000261493
0.365751
0.000258189
0.365495
0.000256661
0.365238
0.00025638
0.364982
0.000256716
0.364725
0.000257136
0.364467
0.000257295
0.36421
0.000256962
0.363954
0.000256058
0.3637
0.000254418
0.363448
0.000252131
0.363199
0.000248545
0.362955
0.00024434
0.362719
0.000235672
0.362493
0.00022634
0.362301
0.000192148
0.000156625
0.356497
0.000683739
-0.356856
0.356108
0.000672256
0.355702
0.00067335
0.355281
0.000682995
0.354844
0.000694971
0.354393
0.000707159
0.353931
0.000719146
0.353457
0.000730521
0.352973
0.000740818
0.352481
0.000749605
0.351981
0.000756594
0.351476
0.000761697
0.350965
0.000764723
0.350452
0.000765752
0.349936
0.000764
0.349421
0.000759868
0.348907
0.000749768
0.348397
0.000735862
0.347884
0.000705619
0.000674939
0.344071
0.000962908
-0.34435
0.343745
0.000998608
0.343382
0.00103618
0.342988
0.00107714
0.342564
0.00111828
0.342114
0.00115753
0.341639
0.0011943
0.341141
0.00122821
0.340623
0.00125906
0.340086
0.00128662
0.339532
0.00131055
0.338963
0.00133081
0.33838
0.00134734
0.337786
0.00136025
0.337181
0.00136906
0.336566
0.00137411
0.335943
0.00137361
0.335309
0.00136916
0.334658
0.00135659
0.0013421
0.329879
0.00113101
-0.330047
0.329662
0.00121517
0.329402
0.00129628
0.329103
0.00137591
0.328769
0.00145309
0.3284
0.00152636
0.327999
0.0015951
0.327568
0.00165909
0.327109
0.00171793
0.326624
0.00177145
0.326115
0.00181955
0.325584
0.00186208
0.325032
0.00189912
0.324462
0.00193102
0.323873
0.00195769
0.323267
0.0019797
0.322644
0.00199663
0.322004
0.0020098
0.321342
0.002018
0.00202349
0.31502
0.00119383
-0.315083
0.31491
0.00132475
0.314756
0.00145017
0.314561
0.00157089
0.314328
0.00168675
0.314057
0.00179698
0.313751
0.00190097
0.313412
0.00199834
0.313041
0.00208875
0.312641
0.00217195
0.312212
0.00224785
0.311758
0.00231661
0.311279
0.00237826
0.310777
0.00243313
0.310253
0.00248173
0.309707
0.00252496
0.309141
0.00256323
0.308553
0.00259787
0.307942
0.00262909
0.00265852
0.300158
0.00117516
-0.300139
0.300132
0.00135028
0.300064
0.00151855
0.299955
0.00168008
0.299807
0.00183486
0.299621
0.00198241
0.2994
0.00212217
0.299145
0.00225364
0.298857
0.00237645
0.298539
0.00249033
0.298191
0.00259523
0.297817
0.00269119
0.297416
0.00277846
0.296992
0.00285773
0.296544
0.00292965
0.296074
0.00299528
0.295581
0.00305589
0.295065
0.00311328
0.294526
0.00316856
0.00322361
0.285739
0.00110288
-0.285667
0.28577
0.00131955
0.28576
0.00152844
0.285711
0.00172922
0.285624
0.00192174
0.285501
0.00210558
0.285343
0.00228016
0.285151
0.00244493
0.284929
0.00259943
0.284675
0.00274334
0.284394
0.00287656
0.284086
0.00299913
0.283753
0.00311146
0.283397
0.00321422
0.283018
0.00330849
0.282617
0.0033959
0.282195
0.00347798
0.281751
0.00355717
0.281284
0.00363572
0.00371582
0.272032
0.00100137
-0.27193
0.272094
0.00125712
0.272118
0.00150433
0.272105
0.00174236
0.272056
0.00197088
0.271972
0.0021894
0.271855
0.00239729
0.271706
0.0025939
0.271527
0.00277866
0.271319
0.00295117
0.271084
0.00311122
0.270825
0.00325885
0.270542
0.00339446
0.270237
0.00351887
0.269912
0.0036334
0.269568
0.00374008
0.269204
0.00384132
0.268822
0.00394005
0.268418
0.00403948
0.00414274
0.259155
0.000888855
-0.259042
0.25923
0.00118158
0.25927
0.00146505
0.259274
0.00173844
0.259243
0.00200122
0.25918
0.00225277
0.259085
0.00249237
0.258959
0.00271923
0.258805
0.00293267
0.258625
0.00313213
0.258418
0.00331727
0.258189
0.00348803
0.257939
0.00364476
0.25767
0.00378831
0.257383
0.00392031
0.25708
0.00404307
0.256761
0.00415985
0.256427
0.00427462
0.256074
0.00439176
0.00451542
0.247131
0.000777565
-0.247019
0.247207
0.00110558
0.247248
0.00142367
0.247256
0.00173084
0.247231
0.00202639
0.247174
0.00230956
0.247087
0.00257947
0.246971
0.0028352
0.246828
0.00307588
0.246659
0.00330077
0.246467
0.00350933
0.246254
0.0037013
0.246021
0.00387694
0.245773
0.00403698
0.24551
0.00418327
0.245234
0.00431837
0.244948
0.00444657
0.24465
0.00457276
0.244338
0.00470334
0.00484412
0.235926
0.000674921
-0.235824
0.235995
0.00103699
0.23603
0.00138846
0.236033
0.00172822
0.236004
0.00205539
0.235944
0.00236908
0.235856
0.00266823
0.235739
0.00295173
0.235596
0.00321853
0.23543
0.00346763
0.235241
0.00369824
0.235032
0.00390978
0.234807
0.0041023
0.234568
0.00427624
0.234317
0.00443359
0.234059
0.00457691
0.233793
0.00471179
0.233522
0.00484387
0.233243
0.00498273
0.00513639
0.225482
0.000584916
-0.225392
0.225539
0.000980141
0.225563
0.00136412
0.225556
0.0017356
0.225518
0.0020936
0.22545
0.00243703
0.225353
0.00276467
0.22523
0.00307521
0.225081
0.00336735
0.224909
0.00363981
0.224716
0.00389148
0.224504
0.00412133
0.224277
0.00432908
0.224039
0.00451456
0.223793
0.00467989
0.223542
0.00482699
0.223291
0.00496332
0.22304
0.00509455
0.222788
0.0052355
0.00539611
0.215729
0.000509201
-0.215653
0.215772
0.000936951
0.215783
0.00135281
0.215763
0.00175545
0.215713
0.00214374
0.215634
0.00251642
0.215526
0.0028721
0.215392
0.00320925
0.215233
0.00352633
0.215051
0.00382169
0.214849
0.00409385
0.214629
0.0043412
0.214395
0.00456299
0.214152
0.00475806
0.213903
0.00492857
0.213655
0.00507478
0.213412
0.00520695
0.213177
0.00532861
0.212949
0.00546422
0.00562325
0.206597
0.000447828
-0.206536
0.206626
0.000907652
0.206624
0.00135498
0.206591
0.0017884
0.206528
0.00220666
0.206437
0.00260834
0.206317
0.00299185
0.206171
0.00335548
0.206
0.00369737
0.205806
0.00401554
0.205591
0.00430804
0.20536
0.00457256
0.205115
0.00480776
0.204862
0.00501099
0.204607
0.00518438
0.204356
0.00532489
0.204116
0.00544703
0.203897
0.00554752
0.203693
0.00566902
0.00581235
0.198025
0.00039972
-0.197977
0.198041
0.00089131
0.198027
0.00136983
0.197981
0.00183382
0.197906
0.00228189
0.197802
0.00271248
0.19767
0.00312383
0.197511
0.00351399
0.197328
0.00388083
0.197121
0.00422199
0.196894
0.00453505
0.19665
0.00481689
0.196392
0.00506544
0.196127
0.00527607
0.195861
0.00545073
0.195605
0.00558089
0.195365
0.00568723
0.195161
0.00575092
0.194982
0.0058481
0.00594984
0.189958
0.000363028
-0.189921
0.189963
0.000886213
0.189937
0.00139579
0.189881
0.00189023
0.189795
0.00236807
0.18968
0.00282759
0.189537
0.00326685
0.189367
0.00368369
0.189172
0.00407574
0.188954
0.00444025
0.188714
0.00477431
0.188457
0.00507401
0.188186
0.00533638
0.187908
0.00555449
0.187629
0.00572972
0.187364
0.00584547
0.187121
0.00593084
0.186934
0.00593754
0.186782
0.00599977
0.00600789
0.182352
0.000335482
-0.182324
0.182348
0.000890199
0.182313
0.00143073
0.182247
0.00195556
0.182152
0.00246311
0.182028
0.00295153
0.181877
0.00341871
0.181698
0.00386231
0.181494
0.00427972
0.181266
0.00466789
0.181017
0.00502344
0.18075
0.00534172
0.180467
0.00561883
0.180176
0.00584538
0.179884
0.00602166
0.179609
0.00612039
0.17936
0.0061802
0.179193
0.006105
0.179066
0.00612648
0.0059393
0.175171
0.000314568
-0.17515
0.175161
0.000900709
0.175119
0.00147198
0.175048
0.00202694
0.174947
0.00256391
0.174818
0.00308091
0.174661
0.00357569
0.174477
0.00404576
0.174269
0.00448834
0.174037
0.00490009
0.173783
0.00527731
0.17351
0.00561471
0.173221
0.00590759
0.172922
0.0061443
0.17262
0.00632373
0.172334
0.00640599
0.172078
0.006437
0.171935
0.00624769
0.171834
0.00622768
0.00568506
0.168388
0.000297403
-0.168371
0.168375
0.000914432
0.168331
0.00151574
0.168258
0.00209999
0.168156
0.00266547
0.168027
0.00321004
0.167872
0.00373135
0.167691
0.00422682
0.167485
0.00469354
0.167257
0.00512799
0.167008
0.00552626
0.166741
0.00588259
0.166456
0.00619184
0.16616
0.00644055
0.165857
0.0066269
0.165564
0.00669864
0.165295
0.00670592
0.165172
0.00637134
0.165134
0.00626545
0.00514168
0.161979
-0.161963
0.000281031
0.161966
0.000927459
0.161925
0.00155704
0.161856
0.00216866
0.161761
0.00276054
0.161641
0.00333044
0.161496
0.00387596
0.161329
0.00439444
0.161139
0.00488293
0.160929
0.00533783
0.1607
0.00575517
0.160454
0.00612894
0.160192
0.00645403
0.159917
0.00671581
0.15963
0.0069132
0.159343
0.00698596
0.159058
0.00699089
0.158882
0.00654739
0.15888
0.00626794
0.0036908
0.368986
9.60904e-05
-0.369082
0.368954
3.14476e-05
0.36894
1.4095e-05
0.368927
1.30321e-05
0.368909
1.82611e-05
0.368881
2.76387e-05
0.368841
4.01525e-05
0.368786
5.47602e-05
0.368716
7.03175e-05
0.36863
8.60902e-05
0.368528
0.000101579
0.368412
0.000116486
0.368281
0.000130512
0.368138
0.000143581
0.367983
0.000155136
0.367817
0.000165499
0.367645
0.000172225
0.367467
0.000177603
0.3673
0.000166948
0.000154206
0.357433
-0.000194613
-0.357142
0.357677
-0.000212864
0.357896
-0.000204712
0.358086
-0.000177168
0.358246
-0.000140993
0.358373
-0.000100067
0.358469
-5.55983e-05
0.358532
-8.49683e-06
0.358563
4.01823e-05
0.358559
8.92239e-05
0.358523
0.000137836
0.358454
0.000185433
0.358353
0.000231435
0.358221
0.000275541
0.35806
0.00031684
0.35787
0.000355204
0.357654
0.000388148
0.357415
0.000416722
0.357149
0.000433067
0.000446509
0.342032
-0.000759835
-0.341467
0.342537
-0.000717509
0.342995
-0.000662552
0.34341
-0.000592895
0.343784
-0.000514384
0.344115
-0.000430771
0.344402
-0.000343556
0.344648
-0.000253921
0.344851
-0.000162788
0.345011
-7.1112e-05
0.345129
2.00482e-05
0.345204
0.000109925
0.345238
0.000197721
0.345231
0.000282975
0.345183
0.00036474
0.345096
0.000442483
0.344969
0.000514561
0.344804
0.000581459
0.344597
0.000640091
0.000693653
0.324952
-0.00149049
-0.324221
0.32563
-0.00139528
0.326259
-0.00129172
0.326844
-0.00117763
0.327384
-0.001055
0.32788
-0.000926612
0.328331
-0.00079417
0.328736
-0.000658952
0.329095
-0.000522112
0.329409
-0.000384638
0.329676
-0.00024755
0.329898
-0.000111776
0.330074
2.17317e-05
0.330204
0.000152278
0.33029
0.000279062
0.330331
0.000401558
0.330327
0.000518487
0.330279
0.000629758
0.330185
0.000734006
0.000831643
0.30793
-0.00231361
-0.307107
0.308709
-0.00217379
0.309443
-0.00202585
0.310134
-0.00186873
0.310782
-0.00170317
0.311386
-0.00153113
0.311947
-0.00135426
0.312461
-0.00117393
0.312931
-0.000991758
0.313355
-0.000808791
0.313734
-0.000626016
0.314066
-0.000444481
0.314353
-0.000265069
0.314594
-8.87122e-05
0.31479
8.37567e-05
0.314939
0.000251767
0.315044
0.000414336
0.315102
0.000571064
0.315115
0.00072109
0.000864112
0.291709
-0.00318033
-0.290842
0.292537
-0.00300181
0.293324
-0.00281354
0.294071
-0.00261572
0.294777
-0.002409
0.295441
-0.00219497
0.296062
-0.00197536
0.29664
-0.00175189
0.297175
-0.00152614
0.297665
-0.00129929
0.298112
-0.00107249
0.298514
-0.000846834
0.298872
-0.000623261
0.299186
-0.00040268
0.299456
-0.000185912
0.299681
2.63544e-05
0.299862
0.000233283
0.299999
0.000434312
0.300091
0.000628809
0.000816257
0.276596
-0.00405904
-0.275717
0.277439
-0.00384543
0.278246
-0.00361988
0.279013
-0.0033834
0.279741
-0.00313709
0.280429
-0.00288264
0.281076
-0.00262211
0.281681
-0.00235724
0.282245
-0.00208962
0.282766
-0.00182093
0.283246
-0.00155229
0.283684
-0.00128458
0.284079
-0.00101893
0.284433
-0.000756204
0.284744
-0.000497238
0.285013
-0.000242753
0.28524
6.46017e-06
0.285425
0.000249782
0.285567
0.000486626
0.000716338
0.262667
-0.00493106
-0.261795
0.263506
-0.00468466
0.26431
-0.00442377
0.265077
-0.00415004
0.265805
-0.0038652
0.266494
-0.00357145
0.267143
-0.00327111
0.267751
-0.00296619
0.26832
-0.00265846
0.268849
-0.0023496
0.269338
-0.00204082
0.269786
-0.00173306
0.270194
-0.00142733
0.270563
-0.00112451
0.270891
-0.000825432
0.271179
-0.00053083
0.271427
-0.000241468
0.271635
4.19852e-05
0.271802
0.000318924
0.000588572
0.24987
-0.00578724
-0.249013
0.250694
-0.00550944
0.251485
-0.00521423
0.252239
-0.00490379
0.252954
-0.00458082
0.253631
-0.00424822
0.254269
-0.00390873
0.254867
-0.00356471
0.255427
-0.003218
0.255947
-0.0028702
0.256429
-0.00252278
0.256873
-0.00217659
0.257278
-0.00183246
0.257645
-0.0014913
0.257973
-0.00115392
0.258263
-0.00082103
0.258515
-0.0004934
0.258729
-0.000171737
0.258905
0.000143308
0.000450862
0.238095
-0.00662453
-0.237257
0.238901
-0.00631618
0.239674
-0.00598684
0.24041
-0.00563945
0.241107
-0.00527802
0.241765
-0.00490646
0.242384
-0.00452802
0.242965
-0.00414532
0.243507
-0.00376035
0.244012
-0.00337469
0.244479
-0.00298971
0.244908
-0.0026063
0.245301
-0.00222514
0.245657
-0.00184704
0.245976
-0.00147279
0.246258
-0.00110308
0.246503
-0.000738689
0.246712
-0.000380352
0.246884
-2.8784e-05
0.00031506
0.227218
-0.00744372
-0.226399
0.228007
-0.00710537
0.228762
-0.00674136
0.229478
-0.00635591
0.230155
-0.00595506
0.230793
-0.00554392
0.231391
-0.00512628
0.231951
-0.00470501
0.232473
-0.00428225
0.232957
-0.00385944
0.233405
-0.00343771
0.233817
-0.00301802
0.234193
-0.00260089
0.234533
-0.00218691
0.234837
-0.00177687
0.235105
-0.00137146
0.235338
-0.000971429
0.235535
-0.000577577
0.235697
-0.000190668
0.000188257
0.217123
-0.00824811
-0.216319
0.217898
-0.00788022
0.218637
-0.0074801
0.219336
-0.00705459
0.219993
-0.00661269
0.22061
-0.00616087
0.221187
-0.00570339
0.221726
-0.0052434
0.222227
-0.004783
0.222691
-0.00432346
0.223119
-0.00386571
0.223511
-0.00341043
0.223868
-0.00295802
0.22419
-0.00250898
0.224477
-0.00206398
0.22473
-0.00162368
0.224947
-0.00118886
0.22513
-0.000760331
0.225278
-0.000338946
7.41829e-05
0.20771
-0.00904292
-0.206915
0.208476
-0.00864606
0.209203
-0.00820705
0.209886
-0.0077383
0.210527
-0.00725296
0.211125
-0.0067587
0.211681
-0.0062603
0.212199
-0.00576109
0.212679
-0.00526301
0.213123
-0.00476704
0.213531
-0.00427371
0.213904
-0.0037834
0.214242
-0.00329636
0.214546
-0.00281292
0.214816
-0.00233362
0.215051
-0.00185909
0.215252
-0.00139012
0.21542
-0.000927574
0.215553
-0.000472362
-2.56803e-05
0.198896
-0.00983541
-0.198104
0.19966
-0.00941011
0.20038
-0.00892716
0.201052
-0.0084103
0.201677
-0.0078779
0.202257
-0.00733849
0.202794
-0.0067975
0.203291
-0.00625831
0.203751
-0.00572243
0.204174
-0.0051903
0.204562
-0.00466189
0.204916
-0.00413723
0.205236
-0.0036163
0.205522
-0.00309915
0.205775
-0.00258622
0.205994
-0.00207812
0.206179
-0.00157561
0.206331
-0.00107961
0.20645
-0.000591103
-0.000111376
0.190621
-0.0106356
-0.189821
0.191391
-0.0101807
0.192109
-0.00964484
0.192771
-0.00907248
0.193381
-0.00848746
0.193941
-0.00789908
0.194457
-0.00731352
0.194933
-0.00673376
0.195371
-0.00616032
0.195773
-0.00559279
0.196142
-0.00503037
0.196477
-0.00447242
0.196779
-0.00391863
0.197049
-0.00336877
0.197286
-0.00282306
0.19749
-0.00228212
0.197661
-0.0017467
0.197799
-0.00121778
0.197904
-0.000696437
-0.000184059
0.182844
-0.0114591
-0.182021
0.183628
-0.0109644
0.184343
-0.0103601
0.184993
-0.00972194
0.185582
-0.00907672
0.186118
-0.00843526
0.186609
-0.00780419
0.187059
-0.00718463
0.187474
-0.00657525
0.187856
-0.00597427
0.188205
-0.00537982
0.188523
-0.00479046
0.18881
-0.00420534
0.189065
-0.00362398
0.189289
-0.00304652
0.18948
-0.0024735
0.189639
-0.00190575
0.189766
-0.00134434
0.18986
-0.000790469
-0.000245678
0.175539
-0.0123332
-0.174665
0.176335
-0.0117607
0.177038
-0.0110623
0.177663
-0.0103474
0.178221
-0.00963469
0.178724
-0.00893866
0.179185
-0.00826471
0.17961
-0.00760919
0.180002
-0.00696771
0.180365
-0.00633684
0.180698
-0.00571339
0.181003
-0.00509493
0.181277
-0.00448018
0.181522
-0.0038686
0.181736
-0.0032602
0.181918
-0.00265565
0.182068
-0.00205589
0.182186
-0.00146215
0.182271
-0.000875814
-0.00029863
0.168674
-0.0132996
-0.167707
0.169465
-0.0125526
0.170129
-0.0117257
0.170712
-0.0109304
0.171227
-0.0101501
0.171693
-0.00940483
0.172125
-0.00869586
0.172527
-0.00801155
0.172903
-0.00734367
0.173253
-0.00668716
0.173577
-0.0060377
0.173875
-0.0053921
0.174143
-0.00474885
0.174382
-0.0041076
0.174591
-0.00346852
0.174767
-0.00283242
0.174912
-0.0022005
0.175024
-0.00157423
0.175103
-0.000955213
-0.000345475
0.162191
-0.0143278
-0.161162
0.16292
-0.0132818
0.163516
-0.0123223
0.164045
-0.0114593
0.164523
-0.0106274
0.164964
-0.00984586
0.165379
-0.00911124
0.165772
-0.00840501
0.166144
-0.00771533
0.166493
-0.0070358
0.166817
-0.00636151
0.167114
-0.00568906
0.167382
-0.00501711
0.16762
-0.00434565
0.167827
-0.00367524
0.168001
-0.00300698
0.168143
-0.00234238
0.168252
-0.00168318
0.168328
-0.00103121
-0.000388839
0.155915
-0.155404
-0.014839
0.1565
-0.0138665
0.157095
-0.0129173
0.157595
-0.0119593
0.158067
-0.0110992
0.158519
-0.0102977
0.158944
-0.00953707
0.159347
-0.00880728
0.159727
-0.00809538
0.160083
-0.00739172
0.160412
-0.00669077
0.160712
-0.0059896
0.160983
-0.00528723
0.161221
-0.00458408
0.161427
-0.00388119
0.1616
-0.00318001
0.16174
-0.0024823
0.161847
-0.00179009
0.161921
-0.00110538
-0.000430821
0.0159556
0.139071
-0.138322
-0.0167041
0.0152087
0.145468
-0.144721
0.0144574
0.152136
-0.151385
0.0136963
0.159095
-0.158334
0.0129217
0.166374
-0.165599
0.0121311
0.174009
-0.173218
0.0113225
0.182046
-0.181238
0.0104942
0.190545
-0.189716
0.00964373
0.199573
-0.198723
0.00876764
0.209218
-0.208342
0.00786185
0.219586
-0.21868
0.00692202
0.230814
-0.229875
0.00594482
0.243073
-0.242095
0.00493005
0.256563
-0.255548
0.00388419
0.271507
-0.270461
0.0028261
0.288099
-0.287041
0.0017962
0.306437
-0.305407
0.000872579
0.3263
-0.325376
0.00019997
0.346491
-0.345818
0.365006
-0.364806
0.016128
0.139835
-0.0168917
0.015367
0.146229
0.0146028
0.1529
0.0138297
0.159868
0.0130435
0.16716
0.0122414
0.174811
0.0114213
0.182867
0.0105811
0.191385
0.00971846
0.200436
0.00883008
0.210106
0.00791208
0.220504
0.00696048
0.231766
0.00597243
0.244061
0.00494843
0.257587
0.00389615
0.272559
0.00283633
0.289159
0.00181194
0.307461
0.000902843
0.327209
0.000243225
0.34715
0.365249
0.0162689
0.140612
-0.017046
0.0154957
0.147002
0.0147204
0.153676
0.013937
0.160652
0.0131408
0.167956
0.012329
0.175623
0.0114989
0.183697
0.0106487
0.192235
0.00977562
0.201309
0.00887669
0.211005
0.00794822
0.221432
0.00698657
0.232728
0.00598935
0.245058
0.00495774
0.258619
0.00390036
0.273616
0.00283926
0.29022
0.00181857
0.308482
0.00091644
0.328111
0.000257995
0.347809
0.365507
0.0163788
0.1414
-0.0171674
0.0155952
0.147786
0.0148105
0.15446
0.0140184
0.161444
0.013214
0.16876
0.0123939
0.176443
0.0115557
0.184535
0.010697
0.193094
0.00981524
0.202191
0.00890745
0.211913
0.00797017
0.22237
0.00700007
0.233698
0.00599521
0.246063
0.00495733
0.259657
0.00389571
0.274678
0.0028332
0.291283
0.00181459
0.3095
0.000917435
0.329008
0.000262663
0.348463
0.36577
0.0164586
0.142199
-0.0172571
0.0156662
0.148578
0.0148737
0.155253
0.0140744
0.162243
0.0132633
0.169571
0.0124366
0.177269
0.0115917
0.18538
0.0107261
0.19396
0.00983719
0.20308
0.00892213
0.212828
0.00797762
0.223314
0.00700062
0.234675
0.00598958
0.247074
0.00494674
0.2607
0.00388198
0.275743
0.00281887
0.292346
0.00180298
0.310516
0.00091193
0.329899
0.000263132
0.349112
0.366033
0.0165097
0.143006
-0.0173167
0.01571
0.149378
0.014911
0.156052
0.0141059
0.163048
0.0132892
0.170388
0.0124573
0.178101
0.0116071
0.18623
0.010736
0.194831
0.00984144
0.203974
0.00892061
0.213749
0.00797039
0.224264
0.006988
0.235657
0.00597227
0.248089
0.00492594
0.261746
0.00385953
0.276809
0.00279733
0.293408
0.00178564
0.311528
0.000901966
0.330783
0.000260493
0.349754
0.366293
0.016534
0.14382
-0.0173484
0.015728
0.150184
0.0149236
0.156856
0.0141136
0.163858
0.0132926
0.171209
0.0124565
0.178937
0.0116022
0.187084
0.0107269
0.195706
0.00982808
0.204873
0.00890291
0.214674
0.00794846
0.225219
0.0069622
0.236643
0.00594334
0.249108
0.00489511
0.262794
0.00382867
0.277875
0.00276903
0.294468
0.00176306
0.312534
0.000887913
0.331658
0.000255255
0.350386
0.366548
0.0165334
0.144641
-0.0173545
0.0157218
0.150996
0.0149126
0.157666
0.0140986
0.164672
0.0132741
0.172034
0.0124348
0.179777
0.0115774
0.187942
0.0106991
0.196584
0.00979723
0.205775
0.0088691
0.215602
0.00791187
0.226176
0.00692327
0.237632
0.00590285
0.250129
0.00485435
0.263843
0.00378956
0.27894
0.00273415
0.295523
0.00173543
0.313533
0.000870198
0.332523
0.00024806
0.351008
0.366797
0.01651
0.145469
-0.0173376
0.015693
0.151813
0.0148794
0.158479
0.0140618
0.16549
0.0132343
0.172861
0.0123925
0.180618
0.0115329
0.188801
0.0106526
0.197464
0.00974895
0.206678
0.00881916
0.216532
0.0078606
0.227135
0.00687119
0.238621
0.00585085
0.251149
0.00480377
0.26489
0.00374234
0.280002
0.00269289
0.296573
0.0017031
0.314523
0.000849388
0.333377
0.000239478
0.351618
0.367036
0.016466
0.146304
-0.0173006
0.0156431
0.152636
0.0148251
0.159297
0.0140039
0.166311
0.0131737
0.173691
0.0123299
0.181462
0.0114688
0.189662
0.0105875
0.198346
0.00968315
0.207583
0.00875302
0.217462
0.00779456
0.228093
0.00680593
0.23961
0.00578732
0.252168
0.0047434
0.265934
0.00368714
0.281058
0.00264547
0.297614
0.00166643
0.315502
0.00082596
0.334218
0.00022989
0.352214
0.367266
0.0164032
0.147146
-0.0172461
0.0155737
0.153465
0.0147503
0.16012
0.0139253
0.167136
0.0130924
0.174524
0.0122469
0.182308
0.011385
0.190524
0.0105035
0.199227
0.00959959
0.208487
0.00867044
0.218391
0.00771358
0.22905
0.00672734
0.240596
0.00571223
0.253183
0.00467332
0.266972
0.00362414
0.282107
0.00259218
0.298646
0.00162575
0.316468
0.000800291
0.335043
0.000219578
0.352795
0.367485
0.0163234