/*--------------------------------*- C++ -*----------------------------------*\
  =========                 |
  \\      /  F ield         | OpenFOAM: The Open Source CFD Toolbox
   \\    /   O peration     | Website:  https://openfoam.org
    \\  /    A nd           | Version:  6.0
     \\/     M anipulation  |
\*---------------------------------------------------------------------------*/
FoamFile
{
    version     2.0;
    format      ascii;
    class       volScalarField;
    location    "8.5";
    object      p;
}
// * * * * * * * * * * * * * * * * * * * * * * * * * * * * * * * * * * * * * //

dimensions      [0 2 -2 0 0 0 0];

internalField   nonuniform List<scalar> 
2400
(
-111.86
-87.9175
-72.0103
-59.9301
-49.9899
-41.9171
-35.3859
-30.0441
-25.6121
-21.9503
-113.664
-89.4907
-73.3615
-61.1149
-51.0618
-42.9126
-36.3261
-30.9386
-26.4664
-22.7801
-115.399
-90.9928
-74.6469
-62.2399
-52.0793
-43.8582
-37.221
-31.7922
-27.2848
-23.5802
-117.04
-92.4074
-75.8525
-63.2928
-53.0299
-44.7399
-38.0533
-32.5862
-28.0525
-24.3473
-118.561
-93.7125
-76.9609
-64.2606
-53.906
-45.5534
-38.8185
-33.3114
-28.7559
-25.0642
-119.943
-94.8858
-77.9473
-65.1197
-54.6909
-46.2946
-39.5257
-33.9831
-29.4016
-25.7119
-121.18
-95.9108
-78.7836
-65.8312
-55.3395
-46.9232
-40.1546
-34.6109
-30.0235
-26.3299
-122.281
-96.7868
-79.4558
-66.3613
-55.7878
-47.34
-40.5818
-35.0854
-30.5875
-27.0279
-123.256
-97.528
-79.9799
-66.7176
-56.0155
-47.4628
-40.6285
-35.1326
-30.8156
-27.6862
-124.093
-98.1516
-80.3945
-66.9561
-56.0931
-47.3644
-40.3244
-34.6359
-30.2631
-27.2997
-128.664
-128.516
-128.238
-127.875
-127.45
-126.977
-126.467
-125.928
-125.363
-124.763
-101.084
-101.051
-100.923
-100.722
-100.465
-100.165
-99.8337
-99.4763
-99.0922
-98.6635
-82.363
-82.3577
-82.2785
-82.1391
-81.9537
-81.7366
-81.5019
-81.2585
-81.0058
-80.7293
-68.5119
-68.4792
-68.3831
-68.2349
-68.0512
-67.8479
-67.645
-67.456
-67.2887
-67.1337
-57.4717
-57.3955
-57.2614
-57.0799
-56.8718
-56.6527
-56.4522
-56.2859
-56.1787
-56.1261
-48.6401
-48.523
-48.351
-48.1326
-47.8937
-47.6449
-47.4323
-47.2684
-47.2085
-47.2435
-41.513
-41.3627
-41.1591
-40.9074
-40.6368
-40.3463
-40.1072
-39.923
-39.9133
-40.0203
-35.6677
-35.4939
-35.2681
-34.9927
-34.6957
-34.3551
-34.0682
-33.824
-33.8798
-34.0742
-30.7963
-30.6079
-30.3724
-30.0917
-29.7859
-29.4059
-29.0544
-28.691
-28.7725
-29.1637
-26.7404
-26.5225
-26.2678
-25.9851
-25.676
-25.2774
-24.8487
-24.3218
-24.1915
-24.7837
-120.742
-122.29
-123.674
-124.906
-125.975
-126.865
-127.568
-128.089
-128.439
-128.629
-93.4916
-94.9018
-96.1897
-97.3409
-98.3399
-99.1777
-99.8548
-100.377
-100.754
-100.99
-75.6428
-76.9043
-78.0618
-79.0873
-79.9637
-80.6912
-81.2783
-81.7335
-82.0629
-82.2717
-62.7866
-63.9275
-64.9624
-65.8582
-66.6043
-67.2113
-67.6932
-68.0587
-68.3132
-68.4622
-52.6422
-53.7019
-54.6363
-55.4123
-56.037
-56.5352
-56.922
-57.2039
-57.3853
-57.4725
-44.5317
-45.5603
-46.4221
-47.0887
-47.6045
-48.0113
-48.3192
-48.5308
-48.6508
-48.6856
-37.939
-38.982
-39.7976
-40.3692
-40.7947
-41.1285
-41.3719
-41.5267
-41.5986
-41.5936
-32.5265
-33.5563
-34.317
-34.8172
-35.182
-35.4601
-35.6507
-35.7635
-35.8031
-35.7727
-28.3261
-29.148
-29.7196
-30.1649
-30.4993
-30.7224
-30.8589
-30.9389
-30.9604
-30.9169
-25.6551
-26.0607
-26.0951
-26.4522
-26.7658
-26.8984
-26.9434
-26.969
-26.9596
-26.8919
-16.9727
-20.2882
-24.3303
-29.1513
-34.9655
-42.0935
-50.9295
-62.0251
-77.6822
-102.812
-17.4479
-20.8338
-24.9343
-29.8259
-35.7294
-42.9699
-51.9501
-63.2326
-79.1213
-104.485
-17.9711
-21.4243
-25.5811
-30.5446
-36.5394
-43.8944
-53.0214
-64.4932
-80.6092
-106.188
-18.5504
-22.0601
-26.2681
-31.304
-37.3925
-44.8643
-54.1405
-65.8046
-82.1496
-107.941
-19.1805
-22.7503
-27.009
-32.1164
-38.2962
-45.8819
-55.3054
-67.162
-83.7384
-109.743
-19.8321
-23.4622
-27.7787
-32.9654
-39.2406
-46.9411
-56.5112
-68.5592
-85.366
-111.584
-20.5441
-24.2564
-28.6269
-33.8797
-40.2374
-48.0438
-57.7538
-69.9876
-87.0209
-113.448
-21.2942
-25.085
-29.5071
-34.8263
-41.2681
-49.1787
-59.0226
-71.4344
-88.6873
-115.319
-22.3259
-26.1456
-30.5177
-35.8433
-42.343
-50.3405
-60.3027
-72.8796
-90.3453
-117.18
-23.6545
-27.2247
-31.493
-36.8675
-43.4383
-51.5081
-61.5699
-74.2955
-91.9626
-119.004
-13.7608
-15.8654
-19.047
-23.2278
-28.3644
-34.6438
-42.3602
-51.9163
-65.4503
-88.1159
-14.5173
-16.7913
-20.019
-24.1376
-29.198
-35.4385
-43.1652
-52.787
-66.4588
-89.3304
-14.4992
-17.164
-20.619
-24.8326
-29.9353
-36.2136
-43.9978
-53.7155
-67.5416
-90.6164
-14.5541
-17.3937
-20.9941
-25.328
-30.5392
-36.9206
-44.8134
-54.6662
-68.6785
-91.979
-14.7837
-17.6877
-21.3603
-25.7775
-31.0893
-37.5855
-45.6096
-55.6249
-69.8522
-93.4019
-15.078
-18.0487
-21.7833
-26.2644
-31.6574
-38.257
-46.4123
-56.5997
-71.0569
-94.8676
-15.3879
-18.4382
-22.2413
-26.7887
-32.2604
-38.9592
-47.2436
-57.6053
-72.297
-96.3705
-15.7288
-18.8527
-22.7212
-27.3377
-32.8927
-39.6944
-48.1109
-58.6504
-73.5789
-97.9131
-16.1102
-19.2973
-23.2251
-27.9103
-33.5513
-40.4603
-49.0142
-59.7367
-74.9066
-99.5012
-16.5302
-19.778
-23.7617
-28.5139
-34.241
-41.259
-49.9534
-60.8629
-76.2776
-101.137
-11.3068
-10.3891
-10.0897
-10.1093
-10.1954
-10.3319
-10.5179
-10.7562
-11.0645
-11.4237
-14.4956
-13.7307
-13.2491
-13.1591
-13.1762
-13.2953
-13.4737
-13.7152
-14.0223
-14.3799
-18.0476
-17.4225
-16.9464
-16.7787
-16.7398
-16.8322
-17.0008
-17.2451
-17.5558
-17.9205
-22.378
-21.7768
-21.3297
-21.112
-21.0304
-21.0889
-21.2405
-21.4801
-21.7917
-22.1646
-27.5985
-26.9979
-26.5592
-26.3079
-26.198
-26.228
-26.3646
-26.5994
-26.9148
-27.3004
-33.92
-33.3219
-32.8768
-32.5977
-32.4651
-32.4728
-32.5985
-32.8314
-33.1555
-33.5601
-41.6346
-41.0219
-40.5525
-40.2388
-40.0763
-40.0585
-40.1704
-40.4003
-40.7344
-41.162
-51.1339
-50.461
-49.9291
-49.5533
-49.3365
-49.2743
-49.3566
-49.5725
-49.9099
-50.3569
-64.5275
-63.7195
-63.0636
-62.5779
-62.2664
-62.1265
-62.1508
-62.3305
-62.6527
-63.0985
-86.9544
-85.9393
-85.1071
-84.4692
-84.0268
-83.7763
-83.7121
-83.8262
-84.1019
-84.5042
-11.8205
-12.232
-12.6631
-13.1153
-13.5914
-14.0482
-14.398
-14.6566
-15.0581
-15.4044
-14.7786
-15.2001
-15.644
-16.1035
-16.5722
-17.0244
-17.4258
-17.7458
-17.971
-18.1363
-18.3296
-18.7681
-19.2327
-19.7126
-20.1972
-20.6698
-21.1182
-21.5092
-21.7816
-21.9755
-22.5868
-23.0449
-23.5328
-24.0387
-24.5511
-25.0574
-25.5485
-25.999
-26.3735
-26.705
-27.7423
-28.227
-28.7462
-29.2884
-29.8426
-30.3974
-30.9413
-31.4576
-31.9391
-32.4173
-34.0302
-34.5513
-35.1138
-35.7068
-36.3199
-36.9416
-37.5601
-38.1653
-38.7641
-39.3847
-41.6669
-42.2327
-42.8493
-43.5065
-44.1943
-44.9018
-45.6184
-46.3394
-47.0754
-47.8492
-50.8945
-51.5034
-52.1757
-52.9019
-53.6721
-54.4763
-55.3071
-56.164
-57.057
-58.0018
-63.6412
-64.2674
-64.9732
-65.7498
-66.5864
-67.4749
-68.4127
-69.4042
-70.4569
-71.5725
-84.9884
-85.5772
-86.2663
-87.0429
-87.8952
-88.8175
-89.8131
-90.8926
-92.0597
-93.2911
-94.5467
-72.7402
-59.003
-48.6757
-40.055
-32.9486
-27.1141
-22.2995
-18.3892
-15.1969
-95.897
-73.9688
-60.0596
-49.5608
-40.79
-33.5626
-27.6436
-22.7779
-18.7824
-15.4016
-97.3611
-75.2773
-61.1843
-50.5154
-41.6032
-34.2674
-28.2682
-23.3314
-19.2482
-15.8044
-98.9365
-76.6711
-62.3807
-51.5414
-42.4943
-35.0591
-28.9909
-24.0068
-19.8897
-16.4395
-100.614
-78.1447
-63.6456
-52.6339
-43.4539
-35.9206
-29.7815
-24.7455
-20.5855
-17.1119
-102.381
-79.6891
-64.9704
-53.784
-44.4728
-36.8439
-30.6369
-25.5516
-21.3486
-17.8413
-104.225
-81.2919
-66.3433
-54.9792
-45.5376
-37.8139
-31.5372
-26.3966
-22.1405
-18.5889
-106.13
-82.9392
-67.7505
-56.2064
-46.6364
-38.8211
-32.4776
-27.2839
-22.9776
-19.3862
-108.07
-84.6123
-69.1772
-57.4518
-47.7552
-39.8508
-33.4423
-28.1974
-23.8457
-20.2249
-110
-86.284
-70.6063
-58.7007
-48.8801
-40.8895
-34.4184
-29.1246
-24.7327
-21.0919
-12.6687
-4.91356
-2.36615
-1.30369
-0.701707
-0.468687
-0.381767
-0.368326
-0.382943
-0.410991
-0.45514
-0.528789
-0.63378
-0.73753
-0.764592
-0.654071
-0.444703
-0.241817
-0.101883
-0.00904297
-13.4996
-5.50457
-2.61316
-1.4556
-0.802543
-0.530014
-0.423836
-0.398298
-0.404688
-0.426469
-0.464848
-0.531664
-0.628168
-0.723337
-0.746011
-0.63877
-0.437551
-0.241094
-0.103389
-0.0101116
-14.3254
-6.13169
-2.89789
-1.61704
-0.908587
-0.593532
-0.466089
-0.427897
-0.4259
-0.441389
-0.474016
-0.534122
-0.622497
-0.709676
-0.728476
-0.624563
-0.431069
-0.240576
-0.104907
-0.0111786
-15.1802
-6.77132
-3.18663
-1.7723
-1.01443
-0.658406
-0.508549
-0.457224
-0.446676
-0.455839
-0.482745
-0.536291
-0.616909
-0.696663
-0.712038
-0.61144
-0.42523
-0.24026
-0.106431
-0.0122485
-16.0231
-7.34099
-3.42645
-1.90178
-1.1138
-0.723195
-0.550939
-0.486242
-0.467058
-0.469885
-0.491123
-0.538282
-0.611523
-0.684382
-0.69672
-0.599375
-0.420005
-0.240136
-0.107965
-0.0133246
-16.7245
-7.79991
-3.63818
-2.02757
-1.21547
-0.790182
-0.593665
-0.514987
-0.48707
-0.483579
-0.499229
-0.540197
-0.606437
-0.672894
-0.682525
-0.588329
-0.415359
-0.240192
-0.109508
-0.0144093
-17.3712
-8.43559
-4.02741
-2.24874
-1.35577
-0.87052
-0.640023
-0.544458
-0.507058
-0.497078
-0.507167
-0.542125
-0.601742
-0.662273
-0.669473
-0.578276
-0.411266
-0.240421
-0.11106
-0.0155045
-18.6746
-9.80134
-4.83494
-2.65418
-1.56606
-0.976954
-0.695586
-0.576986
-0.528017
-0.510822
-0.515111
-0.544121
-0.59748
-0.652618
-0.657682
-0.569295
-0.407763
-0.240845
-0.112634
-0.0166133
-20.9112
-11.6186
-5.81351
-3.09623
-1.784
-1.09246
-0.756885
-0.61198
-0.550002
-0.524956
-0.523142
-0.546162
-0.593541
-0.6438
-0.647094
-0.561397
-0.404887
-0.241495
-0.114244
-0.0177419
-20.8832
-11.8274
-5.98227
-3.13189
-1.82761
-1.14695
-0.796019
-0.63753
-0.567776
-0.537292
-0.530657
-0.548334
-0.58984
-0.634991
-0.636358
-0.553356
-0.401888
-0.242016
-0.115763
-0.0188801
-16.5959
-10.332
-5.35704
-2.78657
-1.70155
-1.13408
-0.807617
-0.650468
-0.58035
-0.548622
-0.53945
-0.551873
-0.585128
-0.62143
-0.618448
-0.538957
-0.395571
-0.241745
-0.117538
-0.0204741
-12.6036
-8.70255
-4.85074
-2.59931
-1.64007
-1.15888
-0.856019
-0.691266
-0.611723
-0.571956
-0.555212
-0.559352
-0.582538
-0.608182
-0.598854
-0.521704
-0.386776
-0.240251
-0.11907
-0.0222247
-9.63896
-7.20386
-4.38868
-2.48112
-1.59044
-1.16895
-0.899635
-0.733661
-0.645262
-0.597463
-0.57283
-0.568269
-0.581029
-0.595618
-0.579297
-0.50365
-0.376772
-0.237891
-0.120277
-0.023994
-7.15372
-5.78126
-3.90271
-2.40443
-1.57758
-1.18088
-0.939839
-0.777094
-0.68007
-0.624014
-0.591531
-0.578035
-0.579977
-0.583191
-0.559678
-0.485363
-0.366453
-0.235343
-0.121483
-0.0258857
-5.4336
-4.64281
-3.40517
-2.26754
-1.54814
-1.18459
-0.971498
-0.818209
-0.715442
-0.651384
-0.611114
-0.58862
-0.579664
-0.57156
-0.540901
-0.467695
-0.356353
-0.232799
-0.122693
-0.0278523
-4.19011
-3.66546
-2.86946
-2.09624
-1.53938
-1.20825
-1.00344
-0.855782
-0.750007
-0.678949
-0.63113
-0.599858
-0.580324
-0.56137
-0.523817
-0.451337
-0.346781
-0.230278
-0.123824
-0.0298083
-3.29458
-2.95561
-2.46652
-1.95159
-1.51873
-1.21775
-1.02305
-0.885483
-0.781888
-0.705899
-0.650973
-0.611374
-0.581983
-0.553063
-0.509109
-0.436921
-0.338101
-0.227871
-0.124824
-0.0316648
-2.73088
-2.49088
-2.16489
-1.80818
-1.48307
-1.23013
-1.0495
-0.916356
-0.81232
-0.731388
-0.669685
-0.622473
-0.584412
-0.546885
-0.497335
-0.425066
-0.330752
-0.22574
-0.125658
-0.0333161
-2.40562
-2.21236
-1.97328
-1.71093
-1.45637
-1.23749
-1.06611
-0.935393
-0.832649
-0.750258
-0.684464
-0.631647
-0.586957
-0.54283
-0.488915
-0.41635
-0.325199
-0.224069
-0.126277
-0.0346282
-2.25133
-2.07935
-1.87971
-1.66039
-1.43988
-1.24044
-1.07628
-0.947476
-0.845297
-0.76202
-0.693731
-0.637457
-0.588782
-0.540755
-0.484242
-0.411408
-0.321981
-0.223081
-0.126607
-0.0354208
-21.3151
-20.9588
-20.5746
-20.2082
-19.7902
-19.3178
-18.6628
-17.9222
-17.0796
-17.1516
-15.2822
-14.8384
-14.3727
-13.9311
-13.4453
-12.9534
-12.3949
-12.015
-11.8435
-12.4318
-10.7337
-10.4027
-10.0775
-9.79358
-9.5449
-9.37758
-9.28965
-9.33173
-9.409
-9.638
-7.86493
-7.69976
-7.5566
-7.44925
-7.37225
-7.3192
-7.24735
-7.13819
-6.99324
-6.99221
-5.99198
-5.90399
-5.82
-5.73353
-5.63566
-5.5238
-5.40104
-5.29588
-5.2408
-5.28614
-4.59578
-4.53397
-4.47057
-4.40473
-4.3402
-4.2839
-4.2406
-4.21102
-4.19033
-4.18572
-3.65098
-3.61917
-3.5865
-3.55272
-3.51817
-3.48262
-3.44488
-3.4043
-3.364
-3.33273
-3.06669
-3.0477
-3.02495
-2.99845
-2.96853
-2.93579
-2.90105
-2.86525
-2.82985
-2.79611
-2.72421
-2.71088
-2.69359
-2.67262
-2.6483
-2.62099
-2.59104
-2.55875
-2.52459
-2.48898
-2.56166
-2.55091
-2.53618
-2.51769
-2.49564
-2.4703
-2.44192
-2.4108
-2.37723
-2.34153
-22.9891
-23.5456
-22.0997
-22.0533
-22.311
-22.247
-22.0558
-21.906
-21.7718
-21.5963
-19.562
-19.4788
-17.3346
-16.6199
-16.7884
-16.7729
-16.4945
-16.1981
-15.9395
-15.6584
-15.2278
-14.6982
-12.5689
-11.6681
-11.8003
-11.9713
-11.8421
-11.5748
-11.3061
-11.039
-10.9704
-10.5195
-8.93736
-8.19097
-8.29784
-8.56077
-8.59318
-8.43661
-8.23269
-8.04271
-7.74956
-7.56443
-6.62423
-6.10737
-6.1393
-6.33872
-6.41652
-6.34523
-6.21559
-6.09336
-5.506
-5.49458
-5.03665
-4.73161
-4.70177
-4.78894
-4.83706
-4.80748
-4.73643
-4.66189
-3.97688
-4.02309
-3.85718
-3.72668
-3.69992
-3.72786
-3.74961
-3.74283
-3.71602
-3.68327
-3.0577
-3.11459
-3.09011
-3.06482
-3.06553
-3.08143
-3.09525
-3.09903
-3.09354
-3.0821
-2.60025
-2.65658
-2.67914
-2.69145
-2.70517
-2.7198
-2.73136
-2.73749
-2.73795
-2.73334
-2.41424
-2.46786
-2.49944
-2.51927
-2.53571
-2.55025
-2.56151
-2.56838
-2.57058
-2.56827
0.123537
0.0841351
-0.00622666
-0.187077
-0.501853
-1.07671
-2.0107
-3.68735
-6.74108
-14.25
-0.0332897
-0.0772709
-0.173323
-0.363889
-0.690721
-1.28417
-2.2468
-4.01454
-6.85417
-13.2803
-0.202737
-0.248956
-0.344421
-0.533848
-0.845125
-1.42148
-2.28583
-3.97155
-6.21592
-10.7763
-0.381664
-0.429628
-0.520751
-0.704868
-0.97828
-1.51812
-2.20098
-3.61034
-5.31721
-8.20581
-0.565045
-0.613876
-0.697369
-0.872967
-1.1014
-1.57242
-2.10824
-3.09265
-4.36297
-6.05839
-0.746871
-0.792287
-0.868364
-1.02273
-1.22294
-1.57764
-2.02478
-2.61767
-3.48576
-4.51172
-0.918733
-0.953955
-1.0245
-1.14492
-1.32545
-1.56064
-1.91352
-2.27122
-2.81904
-3.4485
-1.06677
-1.09048
-1.15229
-1.2412
-1.38947
-1.5476
-1.79897
-2.04722
-2.3925
-2.77513
-1.17664
-1.19401
-1.2434
-1.31274
-1.42505
-1.54889
-1.72738
-1.9197
-2.1561
-2.41342
-1.23869
-1.25427
-1.29454
-1.35489
-1.44583
-1.55631
-1.69937
-1.86183
-2.04943
-2.25707
1.10838
1.09612
1.06273
0.980682
0.804998
0.475937
-0.132737
-1.18468
-3.15319
-9.00077
1.00421
0.989016
0.948753
0.856144
0.666223
0.314701
-0.314982
-1.42283
-3.37394
-9.17945
0.901528
0.883531
0.836763
0.73382
0.530374
0.155639
-0.494476
-1.66193
-3.61333
-9.39218
0.800638
0.77997
0.727109
0.614088
0.397778
-0.000717041
-0.670797
-1.901
-3.88106
-9.67644
0.701776
0.678601
0.620083
0.497279
0.268642
-0.154013
-0.844206
-2.13791
-4.15971
-9.97061
0.605142
0.579646
0.515924
0.383676
0.14306
-0.303955
-1.01561
-2.3725
-4.47013
-10.2793
0.510902
0.483304
0.414818
0.273515
0.0210271
-0.450188
-1.18586
-2.59754
-4.79598
-10.5075
0.419211
0.389808
0.316972
0.166996
-0.0975445
-0.592453
-1.35828
-2.81472
-5.19771
-10.8125
0.330137
0.299317
0.222629
0.0643741
-0.212868
-0.730589
-1.53371
-3.01975
-5.60318
-11.2217
0.243326
0.210879
0.130682
-0.0350015
-0.325551
-0.86756
-1.72455
-3.27001
-6.14007
-12.4737
2.15131
2.17038
2.21234
2.25085
2.24314
2.10675
1.77516
0.787955
-2.46716
-9.04371
2.05252
2.06741
2.10046
2.12183
2.08692
1.89706
1.46678
0.441412
-2.83932
-9.63379
1.95182
1.96383
1.98928
1.99699
1.94524
1.7422
1.31155
0.472648
-2.19761
-8.42936
1.8492
1.85852
1.87704
1.87344
1.80961
1.60793
1.19721
0.504421
-1.74554
-7.89904
1.74495
1.75135
1.76277
1.74823
1.67123
1.4639
1.03981
0.346795
-1.80556
-7.99505
1.63948
1.64278
1.64681
1.62093
1.52793
1.30411
0.837996
0.0638648
-2.07907
-8.16342
1.5332
1.53336
1.52979
1.49233
1.38173
1.13643
0.626124
-0.227197
-2.32875
-8.27164
1.42654
1.42354
1.41233
1.36336
1.23517
0.968485
0.425465
-0.482953
-2.53201
-8.40233
1.31992
1.31378
1.29499
1.23474
1.08982
0.802751
0.236053
-0.717232
-2.73102
-8.59083
1.21374
1.2045
1.17829
1.10702
0.946317
0.638726
0.051078
-0.9492
-2.94103
-8.8099
3.76492
3.78145
3.81368
3.85918
3.91218
3.96548
4.01234
4.04673
4.0632
4.05468
3.70239
3.72386
3.76595
3.82569
3.89655
3.97036
4.03904
4.09412
4.12689
4.12393
3.59109
3.61966
3.67581
3.75602
3.85274
3.95664
4.05836
4.1476
4.20944
4.22105
3.43996
3.47549
3.54545
3.64578
3.76787
3.90087
4.03377
4.15593
4.24525
4.28144
3.25929
3.30001
3.38029
3.49549
3.63565
3.78766
3.93524
4.06014
4.13012
4.15034
3.0608
3.10395
3.18915
3.31152
3.4616
3.62798
3.77417
3.8136
3.70746
3.61362
2.85597
2.89853
2.98236
3.10021
3.23758
3.38108
3.48633
3.3967
2.99086
2.57377
2.65451
2.6938
2.7709
2.87587
2.98946
3.10185
3.16548
2.86432
1.85957
0.717339
2.4636
2.49782
2.56425
2.64873
2.72377
2.76799
2.74468
2.22367
0.488679
-1.74661
2.28703
2.3149
2.36977
2.43132
2.46374
2.42219
2.27257
1.52014
-1.0667
-5.27604
4.03099
4.01815
4.0019
3.98307
3.96175
3.93775
3.911
3.88149
3.84926
3.8144
4.10062
4.08391
4.06077
4.03486
4.00641
3.97484
3.93998
3.90193
3.86085
3.81694
4.20932
4.18684
4.15361
4.11856
4.08165
4.0417
3.9986
3.95265
3.90417
3.85342
4.32396
4.30257
4.26589
4.22603
4.18244
4.13434
4.08187
4.02529
3.96486
3.90086
4.25133
4.23453
4.20604
4.17089
4.12759
4.07608
4.01651
3.94946
3.87562
3.79565
3.828
3.85095
3.84181
3.80965
3.75871
3.69497
3.61963
3.53393
3.43777
3.33105
2.83661
2.88342
2.85474
2.8212
2.77654
2.72164
2.64364
2.54173
2.41194
2.25541
0.938883
1.13215
1.18727
1.21735
1.17015
1.08014
0.937041
0.755294
0.52276
0.245907
-1.48474
-1.06952
-1.12007
-1.23805
-1.46905
-1.6889
-1.94972
-2.23666
-2.59099
-2.99706
-5.4916
-5.15588
-5.44161
-5.63991
-5.89233
-6.09454
-6.34801
-6.63425
-7.00082
-7.42008
3.77699
3.73715
3.69502
3.65075
3.60453
3.55652
3.50691
3.4559
3.40369
3.35047
3.7704
3.72156
3.67077
3.61847
3.56514
3.51134
3.45769
3.40482
3.35334
3.30275
3.8007
3.74629
3.69046
3.63337
3.57516
3.51602
3.45625
3.39593
3.33356
3.2651
3.83355
3.76317
3.68989
3.61424
3.53719
3.45906
3.37741
3.28654
3.18213
3.07526
3.70942
3.61566
3.51368
3.40763
3.30612
3.208
3.0829
2.88478
2.62606
2.45928
3.21118
3.07222
2.91057
2.74122
2.59962
2.4894
2.30081
1.85815
1.2154
0.963057
2.07169
1.85461
1.5937
1.30728
1.06766
0.919604
0.673385
-0.0793846
-1.32525
-1.78377
-0.0642732
-0.403285
-0.793195
-1.24006
-1.66756
-1.95196
-2.25355
-3.21196
-4.98295
-5.58876
-3.42951
-3.86854
-4.34385
-4.89003
-5.4786
-5.94506
-6.26585
-7.10822
-8.97049
-9.48119
-7.86481
-8.30929
-8.77604
-9.28886
-9.86281
-10.3999
-10.7196
-11.1159
-12.4382
-12.8089
3.21587
2.95862
2.67987
2.30702
1.86059
1.42696
1.05666
0.750701
0.495732
0.280995
0.0827586
-0.131537
-0.400877
-0.746322
-1.00368
-0.865338
-0.381663
0.017526
0.130101
0.0634374
3.1664
2.92966
2.70997
2.24274
1.73676
1.30669
0.955387
0.664687
0.427946
0.239598
0.0688715
-0.134386
-0.422684
-0.80925
-1.10298
-0.978619
-0.483642
-0.0522497
0.0952792
0.0567503
3.07723
2.80728
2.63432
2.05237
1.55231
1.16297
0.83944
0.56945
0.35633
0.192227
0.0379166
-0.166054
-0.476828
-0.893166
-1.20262
-1.0824
-0.58306
-0.128667
0.0530379
0.0481386
2.82494
2.4751
2.37157
1.79405
1.35858
1.01652
0.723195
0.478145
0.286181
0.13592
-0.0124623
-0.218936
-0.539204
-0.956815
-1.25235
-1.12735
-0.639319
-0.185582
0.0156119
0.0392791
2.32234
2.09349
2.03179
1.54185
1.1675
0.868282
0.607512
0.387697
0.212996
0.0723968
-0.0707645
-0.274192
-0.588673
-0.985904
-1.25138
-1.12017
-0.656257
-0.221399
-0.0139908
0.0310347
1.39204
1.72567
1.5782
1.2598
0.967915
0.72093
0.495603
0.300327
0.141106
0.0095909
-0.126718
-0.321769
-0.619917
-0.985686
-1.21693
-1.08237
-0.649254
-0.241905
-0.036318
0.0238359
-0.464853
0.950329
0.939547
0.903159
0.747324
0.571075
0.386628
0.217065
0.0735462
-0.04833
-0.176191
-0.359409
-0.63626
-0.96775
-1.16703
-1.03246
-0.631244
-0.252891
-0.0528759
0.0177844
-3.18032
-0.428899
0.229391
0.511979
0.517504
0.421593
0.281441
0.13871
0.0116333
-0.0997464
-0.218003
-0.38786
-0.642631
-0.941926
-1.1139
-0.981489
-0.60994
-0.258403
-0.0651501
0.0128004
-5.93223
-1.92874
-0.389955
0.17495
0.306733
0.282253
0.183121
0.0659845
-0.0446646
-0.145023
-0.253258
-0.409822
-0.643913
-0.914763
-1.06409
-0.934731
-0.589155
-0.260908
-0.0743068
0.00874852
-7.19319
-2.73773
-0.725388
-0.0145133
0.158884
0.17724
0.104051
0.00494476
-0.0932805
-0.18506
-0.285167
-0.429936
-0.644645
-0.889137
-1.01864
-0.892884
-0.570043
-0.261649
-0.0811843
0.00543603
-6.31111
-2.68957
-0.782348
-0.0300739
0.108871
0.137552
0.070022
-0.0247339
-0.120514
-0.21162
-0.309608
-0.44645
-0.644677
-0.866939
-0.981153
-0.859516
-0.554737
-0.261417
-0.0858546
0.00291348
-5.93337
-2.51078
-0.948489
-0.103346
0.0291152
0.0740178
0.0215393
-0.0624978
-0.150004
-0.235137
-0.328653
-0.460371
-0.649258
-0.856981
-0.958391
-0.835861
-0.541631
-0.259205
-0.088019
0.00142151
-6.40029
-2.43888
-1.15559
-0.201241
-0.045618
0.0101908
-0.0276046
-0.101552
-0.180567
-0.258883
-0.347193
-0.473614
-0.653617
-0.847801
-0.936861
-0.812356
-0.527539
-0.255981
-0.0895479
0.000127471
-7.07363
-2.44087
-1.33609
-0.32471
-0.119417
-0.0527483
-0.0747292
-0.138362
-0.209204
-0.281109
-0.364275
-0.484947
-0.655654
-0.836706
-0.914818
-0.789686
-0.514478
-0.253191
-0.0910939
-0.00112213
-7.81413
-2.56771
-1.48272
-0.46116
-0.192746
-0.114343
-0.120791
-0.173903
-0.236648
-0.302264
-0.380199
-0.49471
-0.655837
-0.824108
-0.892332
-0.767725
-0.502404
-0.250862
-0.0926935
-0.00234263
-8.51533
-2.77059
-1.60604
-0.603235
-0.268193
-0.174619
-0.166008
-0.208481
-0.263197
-0.322535
-0.395077
-0.503113
-0.654573
-0.810564
-0.869829
-0.746459
-0.491042
-0.248797
-0.0942756
-0.00352508
-9.23684
-3.0544
-1.72482
-0.746151
-0.347052
-0.233806
-0.21042
-0.242106
-0.288839
-0.341909
-0.40892
-0.510252
-0.652068
-0.796364
-0.847581
-0.726005
-0.480346
-0.246945
-0.0958248
-0.00467191
-10.0056
-3.40489
-1.84878
-0.886802
-0.429775
-0.292298
-0.254092
-0.27482
-0.313581
-0.360392
-0.421771
-0.516243
-0.648522
-0.781736
-0.825778
-0.706475
-0.470355
-0.245317
-0.0973526
-0.00579049
-10.8672
-3.84203
-1.9911
-1.0248
-0.516329
-0.350565
-0.297113
-0.306699
-0.337469
-0.378026
-0.433699
-0.521229
-0.644151
-0.766913
-0.804584
-0.687946
-0.461089
-0.243922
-0.0988685
-0.00688758
-11.7808
-4.35294
-2.16062
-1.16203
-0.606715
-0.409135
-0.33961
-0.337833
-0.360565
-0.394869
-0.444791
-0.525361
-0.639169
-0.752112
-0.784148
-0.670467
-0.452544
-0.242756
-0.100378
-0.00796895
)
;

boundaryField
{
    inlet
    {
        type            freestreamPressure;
        freestreamValue uniform 0;
        supersonic      false;
        value           nonuniform List<scalar> 
40
(
0.123537
-0.0332897
-0.202737
-0.381664
-0.565045
-0.746871
-0.918733
-1.06677
-1.17664
-1.23869
1.10838
1.00421
0.901528
0.800638
0.701776
0.605142
0.510902
0.419211
0.330137
0.243326
2.15131
2.05252
1.95182
1.8492
1.74495
1.63948
1.5332
1.42654
1.31992
1.21374
3.76492
3.70239
3.59109
3.43996
3.25929
3.0608
2.85597
2.65451
2.4636
2.28703
)
;
    }
    outlet
    {
        type            freestreamPressure;
        freestreamValue uniform 0;
        supersonic      false;
        value           nonuniform List<scalar> 
40
(
-0.00011937
-0.000119166
-0.000115308
-0.000107977
-9.63717e-05
-8.00644e-05
-5.96414e-05
-3.70408e-05
-1.59352e-05
-1.99713e-06
-7.14291e-05
-7.80806e-05
-8.42685e-05
-9.00148e-05
-9.53307e-05
-0.000100223
-0.000104694
-0.000108758
-0.00011244
-0.000115669
2.66976e-05
1.29246e-05
1.1474e-06
-9.98667e-06
-2.05854e-05
-3.05394e-05
-3.98461e-05
-4.85497e-05
-5.66901e-05
-6.42991e-05
1.54939e-05
0.000103038
0.000185776
0.000223943
0.000220491
0.000192186
0.000153997
0.00011511
8.00787e-05
5.00577e-05
)
;
    }
    top
    {
        type            symmetryPlane;
    }
    bottom
    {
        type            symmetryPlane;
    }
    cylinder
    {
        type            zeroGradient;
    }
    frontandback
    {
        type            empty;
    }
}


// ************************************************************************* //
