/*--------------------------------*- C++ -*----------------------------------*\
  =========                 |
  \\      /  F ield         | OpenFOAM: The Open Source CFD Toolbox
   \\    /   O peration     | Website:  https://openfoam.org
    \\  /    A nd           | Version:  6.0
     \\/     M anipulation  |
\*---------------------------------------------------------------------------*/
FoamFile
{
    version     2.0;
    format      ascii;
    class       surfaceScalarField;
    location    "17.75";
    object      phi;
}
// * * * * * * * * * * * * * * * * * * * * * * * * * * * * * * * * * * * * * //

dimensions      [0 3 -1 0 0 0 0];

internalField   nonuniform List<scalar> 
38030
(
9.09139e-05
-0.282397
0.282306
0.000428038
-0.27018
0.269843
0.000936907
-0.261005
0.260496
0.00155724
-0.253641
0.25302
0.00224545
-0.247347
0.246659
0.00296794
-0.241612
0.24089
0.00370004
-0.236136
0.235403
0.00442492
-0.230759
0.230034
0.00513197
-0.225413
0.224706
0.00581525
-0.220082
0.219398
0.00647227
-0.214774
0.214117
0.00710289
-0.209516
0.208885
0.00770846
-0.204333
0.203727
0.00829124
-0.199252
0.19867
0.00885388
-0.194296
0.193733
0.0093991
-0.189479
0.188934
0.00992953
-0.184815
0.184285
0.0104475
-0.180309
0.179791
0.0109552
-0.175966
0.175458
0.0114544
-0.171784
0.171285
0.0119467
-0.167763
0.167271
0.0124334
-0.163898
0.163411
0.0129161
-0.160183
0.1597
0.013396
-0.156612
0.156132
0.0138744
-0.153175
0.152697
0.0143526
-0.149862
0.149383
0.014832
-0.146658
0.146178
0.0153133
-0.143546
0.143065
0.0157965
-0.140506
0.140022
-0.137513
0.137029
0.0162805
0.000108501
-0.282506
0.00044834
-0.27052
0.000957158
-0.261514
0.00157628
-0.25426
0.00226155
-0.248032
0.00297962
-0.242331
0.0037061
-0.236862
0.00442435
-0.231477
0.00512398
-0.226113
0.0057993
-0.220757
0.00644805
-0.215423
0.00707026
-0.210138
0.00766746
-0.20493
0.008242
-0.199827
0.00879661
-0.19485
0.00933406
-0.190017
0.009857
-0.185338
0.0103678
-0.18082
0.0108685
-0.176466
0.0113609
-0.172277
0.0118466
-0.168249
0.0123269
-0.164378
0.0128031
-0.160659
0.0132766
-0.157085
0.0137488
-0.153647
0.0142209
-0.150334
0.0146943
-0.147131
0.01517
-0.144022
0.0156482
-0.140984
-0.137993
0.0161281
0.000124351
-0.28263
0.000467194
-0.270862
0.000974975
-0.262022
0.00159237
-0.254877
0.00227464
-0.248715
0.00298817
-0.243044
0.00370876
-0.237583
0.00442003
-0.232188
0.00511186
-0.226805
0.00577884
-0.221424
0.00641891
-0.216063
0.00703233
-0.210751
0.00762079
-0.205519
0.00818675
-0.200393
0.00873301
-0.195397
0.00926239
-0.190546
0.00977754
-0.185853
0.0102808
-0.181323
0.0107743
-0.17696
0.0112597
-0.172762
0.0117385
-0.168727
0.012212
-0.164851
0.0126816
-0.161129
0.0131486
-0.157552
0.0136142
-0.154113
0.0140799
-0.1508
0.014547
-0.147598
0.0150168
-0.144491
0.0154897
-0.141457
-0.138468
0.0159652
0.000130614
-0.282761
0.000478955
-0.271211
0.000988335
-0.262531
0.00160487
-0.255494
0.00228433
-0.249394
0.00299324
-0.243753
0.0037077
-0.238297
0.00441167
-0.232892
0.00509535
-0.227489
0.00575361
-0.222082
0.00638466
-0.216694
0.00698896
-0.211355
0.00756835
-0.206098
0.00812542
-0.20095
0.00866304
-0.195934
0.00918407
-0.191067
0.00969117
-0.18636
0.0101867
-0.181819
0.0106727
-0.177446
0.0111508
-0.17324
0.0116225
-0.169199
0.0120891
-0.165318
0.0125519
-0.161592
0.013012
-0.158012
0.0134708
-0.154572
0.0139298
-0.151259
0.0143905
-0.148059
0.0148542
-0.144955
0.0153215
-0.141924
-0.138939
0.0157924
0.000135357
-0.282896
0.000488024
-0.271564
0.000998934
-0.263042
0.00161452
-0.256109
0.00229095
-0.25007
0.00299499
-0.244457
0.00370303
-0.239005
0.00439937
-0.233589
0.00507454
-0.228164
0.00572372
-0.222731
0.00634541
-0.217316
0.00694025
-0.21195
0.00751026
-0.206668
0.00805813
-0.201498
0.00858682
-0.196463
0.00909923
-0.19158
0.00959803
-0.186859
0.0100856
-0.182307
0.0105638
-0.177924
0.0110345
-0.173711
0.0114989
-0.169664
0.0119583
-0.165778
0.012414
-0.162047
0.0128671
-0.158465
0.0133189
-0.155024
0.0137711
-0.151711
0.0142251
-0.148513
0.0146824
-0.145412
0.015144
-0.142386
-0.139405
0.01561
0.000138451
-0.283035
0.000494497
-0.27192
0.00100679
-0.263554
0.00162136
-0.256724
0.00229456
-0.250744
0.00299346
-0.245156
0.00369475
-0.239706
0.0043831
-0.234277
0.00504941
-0.22883
0.00568918
-0.223371
0.00630116
-0.217928
0.00688622
-0.212535
0.00744654
-0.207228
0.00798493
-0.202036
0.00850441
-0.196982
0.00900794
-0.192083
0.00949818
-0.187349
0.00997748
-0.182786
0.0104478
-0.178394
0.0109107
-0.174174
0.0113677
-0.17012
0.0118198
-0.16623
0.0122682
-0.162496
0.0127141
-0.158911
0.0131588
-0.155468
0.0136038
-0.152156
0.014051
-0.14896
0.0145017
-0.145863
0.0149574
-0.142841
-0.139866
0.0154183
0.000140899
-0.283176
0.000499483
-0.272278
0.00101262
-0.264067
0.00162579
-0.257337
0.00229542
-0.251413
0.0029888
-0.245849
0.00368297
-0.240401
0.00436297
-0.234957
0.00502006
-0.229487
0.00565006
-0.224001
0.00625199
-0.21853
0.00682695
-0.21311
0.00737727
-0.207779
0.00790589
-0.202565
0.00841589
-0.197492
0.00891027
-0.192578
0.00939172
-0.187831
0.00986255
-0.183257
0.0103247
-0.178857
0.0107797
-0.174629
0.011229
-0.17057
0.0116736
-0.166674
0.0121145
-0.162937
0.012553
-0.15935
0.0129904
-0.155906
0.0134283
-0.152594
0.0138683
-0.1494
0.0143124
-0.146307
0.0147619
-0.143291
-0.140321
0.0152177
0.0001428
-0.283318
0.000503242
-0.272639
0.00101667
-0.264581
0.00162802
-0.257948
0.00229366
-0.252079
0.00298113
-0.246537
0.00366779
-0.241087
0.00433906
-0.235628
0.00498655
-0.230135
0.00560642
-0.224621
0.00619797
-0.219121
0.0067625
-0.213675
0.00730253
-0.208319
0.00782108
-0.203083
0.00832134
-0.197993
0.00880632
-0.193063
0.00927871
-0.188303
0.00974084
-0.183719
0.0101946
-0.17931
0.0106416
-0.175076
0.0110829
-0.171011
0.0115198
-0.167111
0.0119532
-0.16337
0.0123841
-0.159781
0.012814
-0.156336
0.0132445
-0.153024
0.0136773
-0.149833
0.0141146
-0.146744
0.0145579
-0.143734
-0.140772
0.0150083
0.000144333
-0.283463
0.000506057
-0.273
0.00101923
-0.265094
0.00162828
-0.258557
0.00228949
-0.25274
0.00297061
-0.247218
0.00364933
-0.241766
0.00431146
-0.236291
0.00494898
-0.230772
0.00555836
-0.22523
0.00613918
-0.219702
0.00669297
-0.214229
0.00722239
-0.208848
0.0077306
-0.203592
0.00822082
-0.198483
0.00869613
-0.193538
0.00915923
-0.188766
0.00961243
-0.184172
0.0100576
-0.179756
0.0104962
-0.175514
0.0109295
-0.171444
0.0113585
-0.16754
0.0117841
-0.163796
0.0122074
-0.160204
0.0126297
-0.156758
0.0130526
-0.153447
0.0134781
-0.150259
0.0139083
-0.147175
0.0143452
-0.144171
-0.141217
0.0147903
0.000145546
-0.283608
0.000508061
-0.273363
0.00102047
-0.265606
0.00162672
-0.259164
0.00228304
-0.253396
0.00295736
-0.247892
0.00362773
-0.242436
0.00428031
-0.236943
0.00490746
-0.231399
0.00550598
-0.225829
0.00607573
-0.220272
0.00661845
-0.214771
0.00713695
-0.209367
0.00763451
-0.204089
0.00811442
-0.198963
0.00857979
-0.194003
0.00903333
-0.18922
0.00947735
-0.184616
0.00991368
-0.180192
0.0103438
-0.175945
0.0107688
-0.171869
0.0111898
-0.167961
0.0116075
-0.164213
0.0120229
-0.16062
0.0124375
-0.157172
0.0128527
-0.153862
0.0132707
-0.150677
0.0136938
-0.147598
0.0141242
-0.144601
-0.141657
0.0145638
0.000146487
-0.283755
0.000509351
-0.273726
0.00102053
-0.266118
0.00162351
-0.259767
0.00227447
-0.254047
0.00294153
-0.248559
0.0036031
-0.243098
0.00424571
-0.237586
0.0048621
-0.232016
0.00544941
-0.226416
0.00600773
-0.22083
0.00653904
-0.215303
0.0070463
-0.209874
0.0075329
-0.204576
0.00800221
-0.199432
0.00845735
-0.194458
0.00890107
-0.189663
0.00933563
-0.185051
0.00976288
-0.180619
0.0101842
-0.176366
0.0106008
-0.172286
0.0110135
-0.168374
0.0114231
-0.164623
0.0118306
-0.161027
0.0122372
-0.157579
0.0126446
-0.15427
0.0130549
-0.151087
0.0134708
-0.148014
0.0138946
-0.145025
-0.142091
0.0143286
0.00014718
-0.283902
0.00050999
-0.274088
0.0010195
-0.266627
0.00161876
-0.260366
0.00226389
-0.254693
0.00292325
-0.249219
0.00357558
-0.24375
0.00420781
-0.238218
0.00481305
-0.232621
0.00538875
-0.226992
0.00593529
-0.221377
0.00645485
-0.215822
0.00695055
-0.21037
0.00742587
-0.205051
0.00788426
-0.199891
0.00832888
-0.194903
0.00876246
-0.190097
0.00918729
-0.185475
0.00960519
-0.181037
0.0100175
-0.176778
0.0104254
-0.172694
0.0108296
-0.168778
0.011231
-0.165024
0.0116303
-0.161426
0.0120288
-0.157977
0.0124283
-0.154669
0.0128308
-0.151489
0.0132392
-0.148422
0.0136563
-0.145442
-0.142519
0.0140847
0.000147634
-0.284049
0.000510038
-0.274451
0.00101747
-0.267134
0.00161259
-0.260961
0.00225145
-0.255331
0.00290266
-0.24987
0.00354531
-0.244393
0.00416675
-0.238839
0.00476044
-0.233215
0.00532417
-0.227556
0.00585856
-0.221911
0.00636602
-0.21633
0.00684981
-0.210853
0.00731352
-0.205515
0.00776066
-0.200338
0.00819442
-0.195337
0.00861756
-0.19052
0.00903235
-0.18589
0.00944059
-0.181445
0.00984365
-0.177181
0.0102425
-0.173093
0.0106381
-0.169173
0.0110309
-0.165417
0.0114219
-0.161817
0.0118122
-0.158368
0.0122034
-0.15506
0.012598
-0.151884
0.0129988
-0.148823
0.013409
-0.145852
-0.142942
0.0138317
0.000147862
-0.284197
0.000509536
-0.274813
0.00101455
-0.267639
0.00160511
-0.261552
0.00223728
-0.255964
0.0028799
-0.250512
0.00351246
-0.245025
0.0041227
-0.23945
0.00470444
-0.233796
0.00525581
-0.228107
0.00577769
-0.222433
0.00627269
-0.216825
0.00674421
-0.211325
0.00719596
-0.205967
0.00763149
-0.200773
0.00805405
-0.195759
0.00846638
-0.190933
0.00887078
-0.186295
0.00926902
-0.181844
0.00966245
-0.177575
0.0100521
-0.173482
0.0104386
-0.16956
0.0108227
-0.165801
0.0112051
-0.1622
0.0115869
-0.15875
0.0119698
-0.155443
0.0123562
-0.15227
0.0127492
-0.149216
0.0131524
-0.146256
-0.143359
0.0135693
0.000147867
-0.284345
0.000508536
-0.275173
0.00101081
-0.268142
0.00159646
-0.262137
0.00222152
-0.256589
0.00285514
-0.251146
0.00347719
-0.245647
0.00407582
-0.240048
0.00464523
-0.234366
0.00518386
-0.228646
0.00569286
-0.222942
0.00617502
-0.217307
0.00663392
-0.211784
0.00707332
-0.206406
0.00749688
-0.201197
0.00790783
-0.19617
0.00830898
-0.191334
0.00870258
-0.186688
0.00909043
-0.182231
0.00947385
-0.177958
0.0098538
-0.173862
0.010231
-0.169937
0.010606
-0.166176
0.0109795
-0.162573
0.0113526
-0.159123
0.0117268
-0.155817
0.0121048
-0.152648
0.0124898
-0.149601
0.0128857
-0.146651
-0.14377
0.0132967
0.00014766
-0.284493
0.000507098
-0.275533
0.00100637
-0.268641
0.00158676
-0.262718
0.00220433
-0.257206
0.00282854
-0.25177
0.00343969
-0.246259
0.00402632
-0.240635
0.00458302
-0.234922
0.00510853
-0.229171
0.00560427
-0.223438
0.00607322
-0.217776
0.0065191
-0.21223
0.00694578
-0.206833
0.00735694
-0.201608
0.00775589
-0.196569
0.0081454
-0.191723
0.00852777
-0.187071
0.00890477
-0.182608
0.00927772
-0.178331
0.00964756
-0.174232
0.010015
-0.170305
0.0103805
-0.166542
0.0107448
-0.162937
0.0111087
-0.159487
0.0114741
-0.156183
0.0118433
-0.153018
0.0122199
-0.149977
0.0126083
-0.14704
-0.144174
0.0130131
0.00014725
-0.28464
0.000505289
-0.275891
0.00100135
-0.269137
0.00157617
-0.263292
0.00218589
-0.257816
0.00280031
-0.252385
0.00340016
-0.246858
0.00397442
-0.241209
0.00451803
-0.235466
0.00503005
-0.229683
0.00551215
-0.22392
0.00596752
-0.218231
0.00639998
-0.212662
0.00681352
-0.207246
0.00721186
-0.202006
0.00759833
-0.196956
0.00797573
-0.192101
0.00834635
-0.187441
0.00871198
-0.182974
0.00907392
-0.178693
0.00943313
-0.174591
0.00979026
-0.170662
0.0101458
-0.166897
0.0105003
-0.163292
0.0108548
-0.159841
0.0112107
-0.156539
0.0115708
-0.153378
0.0119386
-0.150345
0.012319
-0.14742
-0.144573
0.0127174
0.000146658
-0.284787
0.000503203
-0.276247
0.000995889
-0.26963
0.00156487
-0.263861
0.0021664
-0.258417
0.00277067
-0.252989
0.00335887
-0.247447
0.00392038
-0.241771
0.00445054
-0.235996
0.0049487
-0.230181
0.00541679
-0.224388
0.00585818
-0.218673
0.00627683
-0.213081
0.00667679
-0.207646
0.00706185
-0.202391
0.00743535
-0.197329
0.0078001
-0.192465
0.0081584
-0.1878
0.00851205
-0.183328
0.00886236
-0.179043
0.00921028
-0.174939
0.00955647
-0.171008
0.00990141
-0.167242
0.0102456
-0.163636
0.0105899
-0.160185
0.0109359
-0.156885
0.0112862
-0.153728
0.0116447
-0.150704
0.0120167
-0.147792
-0.144964
0.0124081
0.000145922
-0.284933
0.000500967
-0.276602
0.000990177
-0.270119
0.00155307
-0.264424
0.00214608
-0.25901
0.00273986
-0.253583
0.00331606
-0.248023
0.00386449
-0.242319
0.00438083
-0.236513
0.00486478
-0.230665
0.0053185
-0.224842
0.00574553
-0.2191
0.00614996
-0.213485
0.00653591
-0.208032
0.0069072
-0.202763
0.00726719
-0.197689
0.00761871
-0.192817
0.00796405
-0.188145
0.00830502
-0.183669
0.00864295
-0.179381
0.00897882
-0.175275
0.00931327
-0.171342
0.00964679
-0.167576
0.00997988
-0.163969
0.0103133
-0.160519
0.0106486
-0.15722
0.0109884
-0.154068
0.0113368
-0.151052
0.0116995
-0.148155
-0.145348
0.0120835
0.000145101
-0.285078
0.000498746
-0.276956
0.000984431
-0.270605
0.00154102
-0.264981
0.00212521
-0.259595
0.00270818
-0.254166
0.00327204
-0.248587
0.00380705
-0.242854
0.00430926
-0.237015
0.00477866
-0.231135
0.00521766
-0.225281
0.00562996
-0.219512
0.00601977
-0.213875
0.00639125
-0.208404
0.00674828
-0.20312
0.0070942
-0.198035
0.00743185
-0.193155
0.00776353
-0.188477
0.00809103
-0.183996
0.00841573
-0.179706
0.0087386
-0.175598
0.00906034
-0.171664
0.00938144
-0.167897
0.00970239
-0.16429
0.0100239
-0.16084
0.0103475
-0.157544
0.0106758
-0.154396
0.0110131
-0.151389
0.0113656
-0.148507
-0.145724
0.0117411
0.000144298
-0.285222
0.000496765
-0.277308
0.000978916
-0.271087
0.00152899
-0.265531
0.00210408
-0.26017
0.00267593
-0.254738
0.00322716
-0.249138
0.00374843
-0.243375
0.00423619
-0.237503
0.00469073
-0.231589
0.00511468
-0.225705
0.0055119
-0.219909
0.0058867
-0.21425
0.0062433
-0.20876
0.00658556
-0.203462
0.00691684
-0.198366
0.00723996
-0.193478
0.00755719
-0.188794
0.00787036
-0.184309
0.00818083
-0.180017
0.00848963
-0.175907
0.00879747
-0.171972
0.00910489
-0.168204
0.0094124
-0.164598
0.00972074
-0.161149
0.0100313
-0.157854
0.0103467
-0.154711
0.0106714
-0.151714
0.0110122
-0.148848
-0.146089
0.0113779
0.000143686
-0.285366
0.000495325
-0.27766
0.000973971
-0.271565
0.00151732
-0.266074
0.00208303
-0.260735
0.00264347
-0.255298
0.00318176
-0.249676
0.00368902
-0.243883
0.00416205
-0.237976
0.00460143
-0.232029
0.00501004
-0.226113
0.00539188
-0.220291
0.00575132
-0.214609
0.00609263
-0.209101
0.00641965
-0.203789
0.00673572
-0.198682
0.00704362
-0.193786
0.00734561
-0.189096
0.00764349
-0.184607
0.00793863
-0.180312
0.00823208
-0.1762
0.00852462
-0.172264
0.00881683
-0.168496
0.00910926
-0.16489
0.00940267
-0.161442
0.00969847
-0.15815
0.00999926
-0.155012
0.0103096
-0.152024
0.0106367
-0.149175
-0.146444
0.0109909
0.000143557
-0.285509
0.000494867
-0.278011
0.000970029
-0.272041
0.00150643
-0.266611
0.00206246
-0.261291
0.00261119
-0.255847
0.00313625
-0.250201
0.00362921
-0.244376
0.00408725
-0.238434
0.00451124
-0.232452
0.00490427
-0.226506
0.00527046
-0.220657
0.00561426
-0.214953
0.00593993
-0.209427
0.00625129
-0.2041
0.00655163
-0.198983
0.00684366
-0.194078
0.00712959
-0.189382
0.00741117
-0.184889
0.00768977
-0.18059
0.00796644
-0.176477
0.00824201
-0.17254
0.00851712
-0.168771
0.0087924
-0.165165
0.00906869
-0.161718
0.00934744
-0.158429
0.0096313
-0.155296
0.00992494
-0.152318
0.0102361
-0.149487
-0.146783
0.0105761
0.000144391
-0.285654
0.000496043
-0.278363
0.000967652
-0.272512
0.00149678
-0.26714
0.00204279
-0.261837
0.00257947
-0.256383
0.00309102
-0.250713
0.00356943
-0.244854
0.00401225
-0.238876
0.00442066
-0.232861
0.00479793
-0.226884
0.00514829
-0.221008
0.00547625
-0.215281
0.00578602
-0.209737
0.0060814
-0.204396
0.00636557
-0.199267
0.00664115
-0.194353
0.00691025
-0.189651
0.00717455
-0.185153
0.00743533
-0.180851
0.00769364
-0.176735
0.0079503
-0.172797
0.008206
-0.169027
0.00846146
-0.165421
0.00871765
-0.161975
0.00897616
-0.158687
0.00923978
-0.15556
0.00951329
-0.152592
0.00980478
-0.149778
-0.147106
0.0101269
0.000146975
-0.285801
0.00049972
-0.278716
0.000967451
-0.27298
0.00148884
-0.267661
0.00202441
-0.262373
0.0025487
-0.256908
0.00304645
-0.251211
0.00351008
-0.245318
0.00393752
-0.239304
0.00433022
-0.233254
0.00469162
-0.227245
0.00502608
-0.221342
0.00533809
-0.215593
0.00563186
-0.210031
0.00591106
-0.204675
0.00617877
-0.199535
0.00643748
-0.194612
0.00668914
-0.189902
0.00693528
-0.185399
0.00717706
-0.181093
0.0074154
-0.176974
0.00765106
-0.173032
0.00788468
-0.169261
0.00811701
-0.165653
0.0083491
-0.162207
0.00858273
-0.158921
0.00882093
-0.155798
0.00906864
-0.152839
0.00933431
-0.150044
-0.147405
0.00963423
0.000152375
-0.285953
0.000506766
-0.27907
0.000969923
-0.273443
0.00148299
-0.268174
0.00200771
-0.262898
0.00251927
-0.257419
0.00300294
-0.251694
0.00345158
-0.245766
0.0038635
-0.239716
0.00424041
-0.233631
0.00458595
-0.22759
0.00490454
-0.221661
0.00520066
-0.215889
0.00547846
-0.210308
0.0057415
-0.204938
0.00599269
-0.199786
0.00623434
-0.194853
0.00646819
-0.190136
0.00669555
-0.185627
0.00691739
-0.181315
0.00713439
-0.177191
0.0073471
-0.173245
0.00755601
-0.16947
0.00776169
-0.165859
0.0079651
-0.16241
0.00816804
-0.159124
0.0083738
-0.156004
0.00858782
-0.153053
0.00881993
-0.150276
-0.147677
0.00909152
0.000161739
-0.286115
0.000517951
-0.279426
0.000975733
-0.273901
0.00147987
-0.268678
0.00199324
-0.263411
0.00249162
-0.257918
0.00296083
-0.252163
0.00339426
-0.2462
0.00379056
-0.240112
0.00415171
-0.233992
0.00448149
-0.22792
0.00478438
-0.221963
0.00506485
-0.21617
0.00532694
-0.210571
0.00557407
-0.205185
0.00580897
-0.200021
0.0060337
-0.195078
0.00624974
-0.190352
0.00645809
-0.185835
0.00665939
-0.181516
0.00685399
-0.177385
0.0070421
-0.173433
0.00722389
-0.169651
0.00739961
-0.166035
0.00756993
-0.16258
0.00773648
-0.15929
0.00790266
-0.15617
0.00807461
-0.153225
0.00826409
-0.150465
-0.147903
0.00848956
0.000176813
-0.286292
0.000535626
-0.279785
0.000987014
-0.274352
0.00148082
-0.269172
0.00198168
-0.263912
0.00246604
-0.258402
0.0029203
-0.252618
0.00333826
-0.246618
0.0037189
-0.240493
0.0040644
-0.234337
0.00437866
-0.228234
0.0046662
-0.222251
0.00493145
-0.216435
0.00517835
-0.210817
0.00541016
-0.205417
0.0056294
-0.20024
0.00583784
-0.195287
0.00603662
-0.190551
0.00622634
-0.186025
0.0064071
-0.181697
0.0065787
-0.177557
0.00674068
-0.173595
0.00689251
-0.169803
0.00703383
-0.166176
0.00716484
-0.162711
0.00728715
-0.159413
0.00740449
-0.156287
0.00752232
-0.153343
0.00764921
-0.150592
-0.148039
0.00778612
0.000204893
-0.286497
0.000567176
-0.280147
0.00100753
-0.274793
0.001487
-0.269652
0.00197306
-0.264398
0.00244232
-0.258871
0.00288114
-0.253057
0.0032835
-0.24702
0.00364856
-0.240858
0.00397866
-0.234667
0.00427778
-0.228534
0.00455047
-0.222524
0.00480114
-0.216686
0.00503363
-0.21105
0.00525106
-0.205634
0.00545573
-0.200445
0.00564917
-0.19548
0.00583214
-0.190734
0.00600475
-0.186197
0.00616645
-0.181858
0.00631609
-0.177706
0.00645194
-0.173731
0.00657175
-0.169923
0.00667297
-0.166277
0.00675343
-0.162792
0.00681256
-0.159472
0.00685254
-0.156327
0.00687821
-0.153369
0.00689866
-0.150613
-0.148063
0.00692197
0.000269905
-0.286766
0.000619135
-0.280497
0.00103624
-0.27521
0.00149647
-0.270112
0.00196599
-0.264868
0.00241961
-0.259325
0.00284295
-0.25348
0.00322985
-0.247407
0.00357959
-0.241208
0.00389466
-0.234982
0.00417916
-0.228818
0.00443766
-0.222782
0.00467455
-0.216922
0.00489364
-0.211269
0.00509791
-0.205839
0.00528955
-0.200636
0.00546989
-0.19566
0.00563947
-0.190904
0.00579803
-0.186356
0.00594455
-0.182005
0.00607705
-0.177839
0.00619244
-0.173846
0.00628616
-0.170017
0.00635173
-0.166343
0.00638033
-0.162821
0.00636039
-0.159452
0.00627776
-0.156244
0.00612137
-0.153212
0.00591354
-0.150405
-0.14807
0.00592103
0.290208
0.000186388
-0.290395
0.290059
0.000148757
0.289926
0.000132996
0.289802
0.000124881
0.289681
0.000120078
0.289564
0.000117563
0.289447
0.00011666
0.28933
0.00011675
0.289213
0.000117368
0.289095
0.000118241
0.288976
0.000119202
0.288856
0.000120153
0.288734
0.000121047
0.288613
0.00012185
0.28849
0.000122553
0.288367
0.000123148
0.288243
0.000123636
0.288119
0.000124019
0.287995
0.000124288
0.287871
0.000124441
0.287746
0.000124458
0.287622
0.000124307
0.287498
0.000123909
0.287375
0.00012318
0.287253
0.000121815
0.287133
0.000119656
0.287018
0.000114938
0.28691
0.000108005
0.286825
8.48447e-05
5.89688e-05
0.288136
0.000401486
-0.288351
0.287909
0.000376392
0.287679
0.000363031
0.287446
0.000357581
0.28721
0.000355611
0.286972
0.000355731
0.286731
0.000357524
0.286488
0.00036052
0.286241
0.00036424
0.285991
0.000368321
0.285737
0.00037254
0.285481
0.000376752
0.285221
0.000380848
0.284958
0.000384768
0.284692
0.000388465
0.284423
0.000391908
0.284152
0.000395085
0.283878
0.000397982
0.283602
0.000400579
0.283323
0.000402859
0.283043
0.000404777
0.282761
0.000406272
0.282478
0.0004072
0.282193
0.000407381
0.281909
0.000406337
0.281625
0.000403669
0.281342
0.000397412
0.281063
0.000387539
0.280781
0.000366292
0.000343651
0.284739
0.000605637
-0.284943
0.284513
0.000602086
0.284273
0.000602549
0.284023
0.000607781
0.283763
0.000615545
0.283494
0.00062457
0.283217
0.000634514
0.282933
0.00064514
0.282641
0.000656153
0.282342
0.000667277
0.282036
0.000678311
0.281724
0.000689117
0.281405
0.000699598
0.28108
0.000709679
0.280749
0.000719312
0.280413
0.000728464
0.280071
0.000737108
0.279723
0.000745234
0.279371
0.000752819
0.279014
0.000759841
0.278653
0.000766254
0.278287
0.00077198
0.277917
0.000776874
0.277544
0.000780742
0.277167
0.000783143
0.276787
0.000783717
0.276403
0.000781231
0.276015
0.000775798
0.275617
0.000764414
0.000750762
0.279966
0.000774638
-0.280135
0.279776
0.000791964
0.279569
0.000809965
0.279347
0.000829915
0.279111
0.000851181
0.278863
0.000872993
0.278602
0.000895028
0.27833
0.000917136
0.278047
0.00093913
0.277754
0.000960818
0.27745
0.000982038
0.277136
0.00100267
0.276813
0.00102264
0.276481
0.00104188
0.27614
0.00106035
0.275791
0.00107803
0.275433
0.0010949
0.275067
0.00111095
0.274694
0.00112619
0.274313
0.00114059
0.273925
0.00115413
0.27353
0.00116676
0.273129
0.00117837
0.272721
0.00118882
0.272306
0.00119782
0.271885
0.00120516
0.271456
0.00121021
0.271018
0.00121302
0.27057
0.00121233
0.00120932
0.274121
0.000893026
-0.27424
0.273983
0.000930272
0.273826
0.000966788
0.273653
0.0010035
0.273464
0.00104045
0.273259
0.00107731
0.27304
0.00111382
0.272808
0.00114986
0.272562
0.00118529
0.272302
0.00121997
0.272031
0.00125377
0.271747
0.0012866
0.271451
0.00131839
0.271144
0.00134909
0.270825
0.00137867
0.270496
0.00140712
0.270157
0.00143443
0.269807
0.00146062
0.269448
0.0014857
0.269079
0.00150968
0.2687
0.00153257
0.268313
0.00155436
0.267916
0.00157501
0.26751
0.00159446
0.267095
0.00161258
0.266671
0.00162926
0.266237
0.00164423
0.265793
0.00165753
0.265337
0.00166865
0.00167827
0.267517
0.000957388
-0.267582
0.267434
0.00101393
0.267331
0.00106911
0.267211
0.00112348
0.267074
0.00117724
0.266921
0.00123033
0.266753
0.00128258
0.266569
0.00133386
0.26637
0.00138409
0.266157
0.00143316
0.265929
0.00148096
0.265689
0.00152741
0.265435
0.00157247
0.265168
0.00161608
0.264888
0.00165823
0.264596
0.00169893
0.264292
0.00173817
0.263977
0.00177599
0.26365
0.00181242
0.263313
0.00184752
0.262964
0.00188133
0.262604
0.00191389
0.262234
0.00194523
0.261853
0.00197538
0.261461
0.00200434
0.261059
0.00203211
0.260644
0.00205862
0.260218
0.002084
0.259778
0.00210811
0.00213153
0.260464
0.000972791
-0.260479
0.260429
0.00104806
0.260377
0.00112161
0.260307
0.00119374
0.260219
0.00126466
0.260115
0.00133438
0.259995
0.00140281
0.259859
0.00146988
0.259708
0.00153548
0.259541
0.00159954
0.25936
0.00166197
0.259165
0.00172273
0.258956
0.00178174
0.258733
0.00183898
0.258496
0.00189445
0.258247
0.00194815
0.257985
0.0020001
0.257711
0.00205036
0.257424
0.00209898
0.257126
0.00214606
0.256816
0.00219167
0.256493
0.00223592
0.25616
0.00227892
0.255814
0.00232077
0.255457
0.00236156
0.255088
0.00240143
0.254706
0.00244045
0.254311
0.00247883
0.253903
0.00251662
0.00255434
0.253229
0.000948439
-0.253205
0.253235
0.00104174
0.253224
0.00113308
0.253195
0.0012226
0.253149
0.00131045
0.253087
0.00139668
0.253008
0.00148124
0.252914
0.00156405
0.252805
0.00164506
0.25268
0.00172418
0.252541
0.00180135
0.252387
0.00187652
0.252219
0.00194963
0.252037
0.00202067
0.251842
0.00208963
0.251634
0.00215653
0.251412
0.00222142
0.251178
0.00228436
0.250932
0.00234543
0.250673
0.00240476
0.250402
0.00246248
0.25012
0.00251876
0.249825
0.00257375
0.249518
0.00262766
0.249199
0.00268068
0.248867
0.00273304
0.248523
0.00278493
0.248165
0.00283665
0.247793
0.00288833
0.00294047
0.246018
0.000894606
-0.245964
0.246055
0.00100515
0.246074
0.00111353
0.246077
0.0012198
0.246064
0.00132405
0.246034
0.00142634
0.245989
0.00152663
0.245928
0.00162485
0.245852
0.00172094
0.245761
0.00181484
0.245656
0.00190648
0.245537
0.00199581
0.245404
0.00208279
0.245257
0.00216741
0.245097
0.00224967
0.244924
0.00232958
0.244738
0.00240722
0.24454
0.00248266
0.244329
0.00255602
0.244106
0.00262745
0.243872
0.00269713
0.243625
0.00276528
0.243367
0.00283215
0.243097
0.002898
0.242814
0.00296314
0.242519
0.00302788
0.242212
0.00309253
0.241891
0.00315745
0.241556
0.00322288
0.00328927
0.238974
0.000820891
-0.2389
0.239031
0.000947844
0.239072
0.00107247
0.239097
0.00119475
0.239107
0.00131475
0.239101
0.00143248
0.239079
0.00154792
0.239043
0.00166101
0.238992
0.00177168
0.238927
0.00187986
0.238848
0.00198549
0.238756
0.00208853
0.23865
0.00218893
0.23853
0.00228668
0.238398
0.00238179
0.238253
0.00247428
0.238096
0.00256422
0.237927
0.00265172
0.237747
0.00273691
0.237554
0.00281998
0.23735
0.00290115
0.237135
0.00298071
0.236908
0.00305897
0.236669
0.0031363
0.236419
0.00321307
0.236158
0.00328973
0.235883
0.00336667
0.235597
0.00344435
0.235296
0.00352309
0.00360333
0.232186
0.000735407
-0.2321
0.232256
0.000877983
0.23231
0.00101808
0.232349
0.00115563
0.232373
0.00129066
0.232382
0.00142318
0.232377
0.00155314
0.232358
0.00168048
0.232324
0.00180513
0.232277
0.00192702
0.232217
0.00204607
0.232143
0.00216225
0.232056
0.00227551
0.231957
0.00238583
0.231846
0.00249321
0.231722
0.0025977
0.231587
0.00269936
0.231441
0.0027983
0.231283
0.0028947
0.231114
0.00298877
0.230934
0.00308077
0.230744
0.00317106
0.230543
0.00326
0.230331
0.00334807
0.230109
0.00343575
0.229875
0.00352358
0.229629
0.0036121
0.229372
0.00370185
0.229102
0.00379327
0.00388681
0.225702
0.000644517
-0.225611
0.225778
0.000801999
0.225839
0.000956852
0.225886
0.00110898
0.225918
0.00125838
0.225936
0.00140504
0.22594
0.00154891
0.225931
0.00168989
0.225908
0.00182792
0.225872
0.00196292
0.225823
0.00209481
0.225762
0.00222354
0.225689
0.00234906
0.225603
0.00247135
0.225506
0.00259039
0.225397
0.00270625
0.225278
0.00281897
0.225147
0.00292869
0.225006
0.0030356
0.224855
0.00313992
0.224694
0.00324197
0.224523
0.00334215
0.224342
0.00344093
0.224151
0.00353886
0.22395
0.00363654
0.223739
0.00373464
0.223518
0.00383385
0.223285
0.00393483
0.22304
0.00403815
0.00414432
0.219541
0.000552895
-0.219449
0.219618
0.000724661
0.219681
0.000893654
0.219731
0.00105975
0.219766
0.00122292
0.219788
0.00138314
0.219796
0.00154033
0.219792
0.00169439
0.219775
0.00184525
0.219745
0.0019928
0.219703
0.00213697
0.219648
0.0022777
0.219583
0.00241491
0.219505
0.00254858
0.219417
0.0026787
0.219318
0.0028053
0.219209
0.00292844
0.219089
0.00304825
0.21896
0.00316492
0.218821
0.00327873
0.218673
0.00339
0.218516
0.00349921
0.21835
0.00360688
0.218175
0.00371368
0.217991
0.00382035
0.217798
0.0039277
0.217595
0.00403658
0.217382
0.00414783
0.217158
0.0042622
0.00438026
0.213702
0.000463749
-0.213613
0.213777
0.000649277
0.213839
0.000831882
0.213888
0.00101142
0.213923
0.00118786
0.213945
0.00136113
0.213954
0.00153114
0.21395
0.00169779
0.213935
0.00186098
0.213907
0.0020206
0.213867
0.00217656
0.213816
0.00232877
0.213754
0.00247717
0.213681
0.0026217
0.213597
0.00276234
0.213503
0.0028991
0.2134
0.00303204
0.213287
0.00316129
0.213165
0.00328703
0.213034
0.00340955
0.212895
0.00352922
0.212747
0.00364654
0.212592
0.00376214
0.212429
0.00387677
0.212258
0.00399133
0.212079
0.0041068
0.211891
0.00422425
0.211694
0.00434474
0.211487
0.00446921
0.00459841
0.208172
0.000379109
-0.208088
0.208244
0.000577966
0.208302
0.000773751
0.208347
0.000966309
0.208379
0.00115558
0.208399
0.00134147
0.208406
0.00152389
0.208401
0.00170271
0.208384
0.00187782
0.208356
0.00204909
0.208316
0.00221641
0.208265
0.00237969
0.208203
0.00253883
0.208131
0.00269376
0.208049
0.00284443
0.207957
0.00299085
0.207856
0.00313305
0.207747
0.00327114
0.207628
0.0034053
0.207502
0.00353581
0.207368
0.00366306
0.207227
0.00378761
0.207079
0.00391014
0.206924
0.00403152
0.206763
0.00415282
0.206594
0.00427522
0.206419
0.00440003
0.206235
0.00452861
0.206042
0.0046622
0.00480176
0.202932
0.000300103
-0.202853
0.202998
0.00051194
0.203051
0.000720553
0.203091
0.000925777
0.203119
0.00112753
0.203135
0.00132571
0.203139
0.00152019
0.203131
0.00171084
0.203111
0.00189753
0.20308
0.0020801
0.203038
0.00225845
0.202985
0.00243244
0.202922
0.00260195
0.202849
0.0027669
0.202766
0.00292722
0.202674
0.00308286
0.202573
0.00323384
0.202464
0.00338025
0.202347
0.00352223
0.202223
0.00366006
0.202092
0.00379415
0.201955
0.00392505
0.201811
0.00405352
0.201662
0.00418055
0.201508
0.00430737
0.201347
0.0044354
0.201181
0.00456628
0.201008
0.00470171
0.200827
0.00484333
0.00499243
0.197958
0.000227217
-0.197885
0.198018
0.000451754
0.198066
0.000672914
0.198101
0.000890525
0.198124
0.00110448
0.198135
0.00131467
0.198134
0.00152095
0.198122
0.00172316
0.198098
0.00192115
0.198063
0.00211477
0.198018
0.00230386
0.197962
0.00248829
0.197896
0.00266789
0.197821
0.00284256
0.197736
0.00301218
0.197642
0.0031767
0.19754
0.00333607
0.197429
0.00349035
0.197312
0.00363965
0.197188
0.00378421
0.197058
0.00392441
0.196922
0.00406084
0.196781
0.00419428
0.196636
0.00432583
0.196486
0.00445689
0.196333
0.00458915
0.196174
0.00472465
0.19601
0.00486552
0.19584
0.00501397
0.00517174
0.193227
0.000160511
-0.193161
0.193282
0.000397522
0.193324
0.000631009
0.193353
0.000860788
0.193371
0.00108673
0.193377
0.00130872
0.193371
0.00152658
0.193354
0.00174014
0.193326
0.00194924
0.193287
0.00215369
0.193238