/*--------------------------------*- C++ -*----------------------------------*\
  =========                 |
  \\      /  F ield         | OpenFOAM: The Open Source CFD Toolbox
   \\    /   O peration     | Website:  https://openfoam.org
    \\  /    A nd           | Version:  6.0
     \\/     M anipulation  |
\*---------------------------------------------------------------------------*/
FoamFile
{
    version     2.0;
    format      ascii;
    class       surfaceScalarField;
    location    "8.75";
    object      phi;
}
// * * * * * * * * * * * * * * * * * * * * * * * * * * * * * * * * * * * * * //

dimensions      [0 3 -1 0 0 0 0];

internalField   nonuniform List<scalar> 
4670
(
-0.000197162
-0.0218008
0.021998
-0.0005465
-0.0171108
0.0174602
-0.00091972
-0.0136131
0.0139863
-0.0012455
-0.0110153
0.0113411
-0.00148781
-0.00907898
0.00932128
-0.00163461
-0.00761778
0.00776458
-0.00169078
-0.00649017
0.00654633
-0.00167342
-0.00559094
0.00557358
-0.00160892
-0.0048427
0.0047782
-0.00419005
0.00411161
-0.00153048
-0.000185364
-0.0216154
-0.00049116
-0.016805
-0.00078229
-0.013322
-0.000986016
-0.0108116
-0.0010667
-0.00899829
-0.00101305
-0.00767143
-0.000830978
-0.00667224
-0.000539585
-0.00588233
-0.000169118
-0.00521317
-0.00459992
0.000240754
-0.000163613
-0.0214518
-0.000395609
-0.016573
-0.00055963
-0.0131579
-0.00058416
-0.010787
-0.000434801
-0.00914765
-0.000100577
-0.00800565
0.00041292
-0.00718573
0.00108634
-0.00655575
0.00188676
-0.00601358
-0.00548052
0.00276735
-0.000130476
-0.0213214
-0.000258956
-0.0164446
-0.000252338
-0.0131646
-4.37517e-05
-0.0109956
0.000398029
-0.00958943
0.00108319
-0.00869082
0.00200747
-0.00811001
0.00315353
-0.0077018
0.00448831
-0.00734837
-0.00695101
0.00595881
-8.50158e-05
-0.0212363
-7.93175e-05
-0.0164503
0.000141513
-0.0133854
0.000635289
-0.0114894
0.00142673
-0.0103809
0.00252318
-0.00978727
0.00392148
-0.00950832
0.00560845
-0.00938877
0.00755509
-0.00929501
-0.00910163
0.0097057
-2.5844e-05
-0.0212105
0.000146712
-0.0166228
0.000626996
-0.0138657
0.00145843
-0.0123208
0.00265434
-0.0115768
0.00421484
-0.0113478
0.006135
-0.0114285
0.0084062
-0.01166
0.0110087
-0.0118975
-0.011984
0.013891
4.87798e-05
-0.0212593
0.000423244
-0.0169973
0.00121066
-0.0146531
0.00243449
-0.0135447
0.00409072
-0.013233
0.00616538
-0.0134224
0.00864467
-0.0139078
0.01152
-0.0145353
0.0147838
-0.0151613
-0.0156018
0.0184016
0.000140332
-0.0213996
0.000752889
-0.0176098
0.00189603
-0.0157962
0.00356857
-0.0152172
0.00574364
-0.0154081
0.00838497
-0.0160638
0.0114583
-0.0169811
0.0149418
-0.0180188
0.018836
-0.0190555
-0.0199183
0.0231525
0.000249346
-0.021649
0.00113381
-0.0184943
0.00267728
-0.0173397
0.004852
-0.0173919
0.00760602
-0.0181621
0.0108756
-0.0193333
0.0145935
-0.020699
0.0187012
-0.0221265
0.0231836
-0.0235378
-0.024905
0.0281703
0.000375415
-0.0220244
0.00155582
-0.0196747
0.00353008
-0.019314
0.00624595
-0.0201078
0.00963323
-0.0215494
0.0136131
-0.0233131
0.0180996
-0.0251855
0.0229915
-0.0270185
0.0281732
-0.0287196
-0.0303266
0.0335948
0.0302259
0.00118355
-0.0314094
0.0290377
0.00118824
0.0278716
0.00116604
0.0267533
0.00111829
0.025705
0.00104836
0.0247446
0.00096035
0.0238864
0.000858246
0.0231411
0.000745287
0.0225176
0.000623517
0.000493196
0.0401952
0.00369753
-0.0427092
0.0375628
0.00382063
0.0348826
0.00384627
0.0322221
0.00377881
0.0296439
0.00362659
0.0272036
0.00340063
0.0249492
0.00311262
0.0229214
0.00277309
0.0211544
0.0023905
0.00197292
0.0489761
0.00685915
-0.0521377
0.0455453
0.00725141
0.0419386
0.00745298
0.0382519
0.00746545
0.03458
0.00729852
0.0310124
0.00696824
0.0276313
0.00649371
0.024511
0.00589336
0.0217188
0.00518272
0.00437777
0.0562278
0.0101922
-0.0595609
0.0524734
0.0110059
0.0483952
0.0115311
0.0441018
0.0117589
0.0397073
0.0116931
0.0353262
0.0113493
0.0310698
0.0107501
0.0270448
0.00991839
0.0233557
0.00887177
0.00762568
0.0618985
0.013384
-0.0650902
0.0581558
0.0147485
0.0539497
0.0157373
0.0493855
0.0163231
0.0445822
0.0164964
0.0396666
0.0162649
0.0347684
0.0156484
0.0300189
0.0146679
0.0255582
0.0133324
0.0116345
0.0661061
0.0162537
-0.0689759
0.062592
0.0182626
0.0585008
0.0198285
0.0539226
0.0209013
0.0489676
0.0214514
0.0437605
0.021472
0.0384345
0.0209743
0.033131
0.0199714
0.0280138
0.0184496
0.0163352
0.0690527
0.0187207
-0.0715196
0.0658879
0.0214274
0.0620677
0.0236486
0.0576596
0.0253094
0.0527547
0.0263564
0.0474625
0.0267642
0.0419039
0.0265329
0.0362081
0.0256672
0.0305364
0.0241212
0.0216862
0.0709642
0.0207724
-0.073016
0.0681975
0.0241941
0.0647344
0.0271117
0.0606174
0.0294264
0.0559133
0.0310605
0.0507085
0.031969
0.0450976
0.0321438
0.0391703
0.0315945
0.0330332
0.0302583
0.0277009
0.0720503
0.0224388
-0.0737167
0.0696813
0.0265632
0.0666087
0.0301843
0.0628527
0.0331824
0.0584564
0.0354568
0.0534821
0.0369433
0.047994
0.0376319
0.0420224
0.037566
0.0355319
0.0367488
0.0345133
0.0724802
-0.0738151
0.0237737
0.0704759
0.0285675
0.0677887
0.0328715
0.0644225
0.0365486
0.0604027
0.0394765
0.055774
0.0415721
0.0505836
0.0428223
0.0448289
0.0433208
0.0383173
0.0432603
0.042504
0.036742
-0.000328264
-0.0364138
0.0368681
-0.000126096
0.0367874
8.07715e-05
0.0365027
0.000284711
0.0360232
0.000479461
0.0353641
0.000659136
0.0345458
0.000818285
0.0335936
0.000952137
0.032537
0.00105663
0.00112756
0.0508501
-0.00150827
-0.0496701
0.0516039
-0.000879882
0.0519196
-0.000234922
0.0517916
0.000412725
0.0512238
0.00104727
0.050231
0.00165187
0.0488399
0.00220942
0.0470885
0.00270353
0.0450257
0.0031194
0.00344409
0.0588409
-0.00348333
-0.0568659
0.0603013
-0.00234029
0.0612201
-0.00115371
0.0615756
5.72066e-05
0.0613558
0.00126712
0.0605607
0.00244699
0.0592044
0.00356568
0.0573163
0.00459167
0.054941
0.00549472
0.00624734
0.0628081
-0.00609523
-0.0601962
0.0648986
-0.00443078
0.0664264
-0.00268148
0.0673534
-0.00086985
0.0676503
0.000970252
0.0672989
0.00279844
0.0662946
0.00456995
0.0646485
0.00623771
0.0623887
0.00775454
0.00907515
0.0642578
-0.00916684
-0.0611862
0.0668449
-0.00701782
0.0688929
-0.00472954
0.0703504
-0.00232735
0.0711744
0.000146309
0.0713319
0.00264086
0.0708021
0.00509982
0.0695771
0.00746268
0.0676648
0.00966689
0.0116497
0.0642448
-0.0125469
-0.0608648
0.067196
-0.00996905
0.0696478
-0.00718134
0.0715384
-0.00421792
0.0728178
-0.00113307
0.0734457
0.00201293
0.073391
0.00515455
0.0726321
0.0082216
0.0711589
0.01114
0.0138327
0.0634675
-0.016133
-0.0598813
0.0666804
-0.013182
0.0694258
-0.00992671
0.0716373
-0.00642943
0.0732672
-0.00276298
0.0742766
0.00100357
0.0746318
0.00479933
0.074304
0.00854934
0.0732709
0.0121731
0.0155841
0.0623716
-0.0198888
-0.0586159
0.0657763
-0.0165867
0.0687183
-0.0128687
0.0711408
-0.00885196
0.07301
-0.00463219
0.0742964
-0.000282759
0.0749698
0.00412593
0.0749996
0.00851948
0.0743566
0.0128161
0.0169247
0.0612599
-0.0238366
-0.057312
0.0647855
-0.0201122
0.0678242
-0.0159075
0.070352
-0.0113797
0.0723571
-0.00663728
0.0738216
-0.00174732
0.0747206
0.00322696
0.0750241
0.00821599
0.0746999
0.0131403
0.017908
0.060323
-0.0562583
-0.0279013
0.0638696
-0.0236589
0.0668876
-0.0189254
0.069426
-0.0139181
0.0714838
-0.00869503
0.0730468
-0.00331039
0.0740919
0.00218184
0.0745901
0.00771787
0.0745089
0.0132215
0.0186018
0.0423884
0.0132365
-0.00795446
-0.0476704
0.0370215
0.0139651
-0.00859816
0.0315709
0.0148323
-0.00938176
0.0260533
0.0158861
-0.0103684
0.0205123
0.0171863
-0.0116454
0.0150425
0.0187863
-0.0133165
0.00982404
0.0206966
-0.0154781
0.0051751
0.0228109
-0.0181619
0.00162281
0.0247773
-0.021225
0.0257812
-0.0241584
0.0421583
0.0184912
-0.047413
0.0368172
0.0193062
0.0313917
0.0202578
0.0258985
0.0213792
0.0203819
0.0227029
0.0149369
0.0242314
0.00974493
0.0258886
0.00512542
0.0274304
0.0016036
0.0282992
0.0273848
0.0415556
0.0236885
-0.0467529
0.0362716
0.0245902
0.0309046
0.0256248
0.0254728
0.0268111
0.0200216
0.0281541
0.0146478
0.0296052
0.00953402
0.0310023
0.00499796
0.0319665
0.00155547
0.0317416
0.0289403
0.0405838
0.0288005
-0.0456958
0.0353866
0.0297874
0.0301107
0.0309007
0.0247764
0.0321454
0.0194318
0.0334987
0.014176
0.034861
0.00919235
0.0359859
0.00479424
0.0363646
0.00148026
0.0350556
0.0304206
0.0392456
0.0338016
-0.0442468
0.0341636
0.0348695
0.0290108
0.0360535
0.0238105
0.0373457
0.0186139
0.0386953
0.0135231
0.0399518
0.00872203
0.040787
0.0045163
0.0405703
0.0013792
0.0381927
0.0317998
0.0375406
0.0386682
-0.0424071
0.0326016
0.0398084
0.0276045
0.0410506
0.0225755
0.0423747
0.0175696
0.0437012
0.0126921
0.0448293
0.00812631
0.0453528
0.00416695
0.0445296
0.00125373
0.041106
0.0330535
0.0354614
0.0433755
-0.0401687
0.0306954
0.0445744
0.0258894
0.0458566
0.021072
0.0471921
0.0163017
0.0484715
0.0116871
0.0494439
0.00740994
0.04963
0.00375015
0.0481894
0.00110579
0.0437503
0.0341593
0.0329887
0.0478918
-0.037505
0.0284328
0.0491302
0.023861
0.0504284
0.0193008
0.0517523
0.0148146
0.0529577
0.0105147
0.0537438
0.00657988
0.0535648
0.00327148
0.0514978
0.000938038
0.0460838
0.0350973
0.0300762
0.0521802
-0.0343647
0.0257929
0.0534136
0.0215166
0.0547046
0.0172676
0.0560013
0.0131178
0.0571075
0.00918574
0.0576759
0.00564645
0.0571041
0.00273888
0.0544054
0.000754396
0.0480682
0.0358517
0.0266738
-0.0307518
0.0227754
0.0188642
0.0149841
0.0112268
0.00771651
0.00462439
0.00216394
0.000562057
0.0247064
-0.0360434
0.0403146
-0.0289776
0.0207179
-0.0358587
0.0398472
0.0168699
-0.0353415
0.0391896
0.0131869
-0.0343164
0.0379994
0.00974398
-0.0324557
0.0358986
0.00663954
-0.0292805
0.032385
0.00398895
-0.024135
0.0267856
0.00191455
-0.0161668
0.0182412
0.000538791
-0.00432003
0.00569579
0.0127278
-0.012189
0.0281322
-0.0317146
-0.0324611
0.0238538
-0.0315804
0.0196597
-0.0311473
0.0155906
-0.0302474
0.0117205
-0.0285856
0.00815275
-0.0257128
0.00501928
-0.0210015
0.00247981
-0.0136273
0.000724702
-0.00256492
0.0134525
0.0311411
-0.0272318
-0.0356239
0.0266362
-0.0270755
0.0221615
-0.0266726
0.0177677
-0.0258536
0.0135286
-0.0243466
0.00955101
-0.0217352
0.00598111
-0.0174316
0.00301274
-0.010659
0.000900904
-0.000453081
0.0143534
0.0337663
-0.0225804
-0.0384177
0.0290686
-0.0223778
0.024363
-0.0219669
0.0196977
-0.0211884
0.0151445
-0.0197933
0.0108114
-0.017402
0.00685602
-0.0134763
0.0035021
-0.00730505
0.00106435
0.00198466
0.0154178
0.0360471
-0.0177692
-0.0408582
0.0311765
-0.0175072
0.026273
-0.0170635
0.021378
-0.0162934
0.0165583
-0.0149736
0.011921
-0.0127647
0.0076317
-0.00918696
0.00393925
-0.0036126
0.00121158
0.00471234
0.0166294
0.0379903
-0.0128143
-0.0429452
0.0329676
-0.0124845
0.027895
-0.0119909
0.0228069
-0.0112052
0.0177642
-0.00993094
0.0128714
-0.00787195
0.00829948
-0.004615
0.00431762
0.000369252
0.00133969
0.00769027
0.017969
0.0395907
-0.00773715
-0.0446678
0.0344402
-0.00733397
0.0292278
-0.00677852
0.0239818
-0.00595919
0.0187576
-0.00470671
0.0136565
-0.0027709
0.00885282
0.000188675
0.00463213
0.00458995
0.00144639
0.010876
0.0194154
0.0408394
-0.00256361
-0.046013
0.0355885
-0.00208308
0.0302671
-0.00145714
0.0248986
-0.000590693
0.0195338
0.000658152
0.014271
0.0024919
0.00928661
0.00517306
0.0048788
0.00899775
0.00152989
0.0142249
0.0209453
0.0417272
0.00267732
-0.0469681
0.0364059
0.0032382
0.0310079
0.00394083
0.0255531
0.00486412
0.0200886
0.00612262
0.0147106
0.00786993
0.00959683
0.0102868
0.00505477
0.0135398
0.00158901
0.0176907
0.0225343
0.0422464
-0.0475235
0.0368864
0.0314455
0.0259412
0.0204184
0.0149719
0.00978059
0.00515846
0.0016241
0.0444683
0.0214403
-0.0255941
0.0479817
0.017518
-0.0210314
0.0509087
0.0130991
-0.0160261
0.0532987
0.00835665
-0.0107467
0.0551405
0.00343454
-0.00527633
0.0564058
-0.00156784
0.000302507
0.0570564
-0.00655025
0.00589972
0.0570507
-0.0114011
0.0114068
0.0563505
-0.0159977
0.0166978
-0.0202081
0.0549274
0.0216313
0.0437211
0.0175664
0.047142
0.0140972
0.0500166
0.0102245
0.0523082
0.00606506
0.0539956
0.00174711
0.05505
-0.00262224
0.0554368
-0.00693698
0.0551215
-0.0110859
0.0540766
-0.0149527
-0.0184196
0.052288
0.0427843
0.0139716
0.0459839
0.0108975
0.0486595
0.0075489
0.0507379
0.00398665
0.0521757
0.000309382
0.0529366
-0.00338319
0.0529889
-0.00698928
0.0523079
-0.0104048
0.0508811
-0.0135259
-0.0162534
0.0487148
0.0413218
0.0106492
0.0442179
0.00800149
0.0465833
0.00518346
0.0483388
0.00223114
0.0494304
-0.000782167
0.0498193
-0.00377211
0.0494797
-0.00664973
0.0484003
-0.00932541
0.0465879
-0.0117135
-0.0137374
0.0440719
0.0389051
0.00764278
0.0414306
0.00547599
0.0433996
0.00321446
0.0447439
0.000886841
0.0454138
-0.00145213
0.0453777
-0.00373602
0.044622
-0.00589399
0.0431528
-0.00785616
0.0409982
-0.00955892
-0.0109496
0.0382104
0.0349985
0.00502924
0.0370852
0.00338928
0.0385923
0.00170741
0.0394704
8.6999e-06
0.0396851
-0.00166687
0.0392203
-0.00327119
0.03808
-0.00475371
0.0362902
-0.00606633
0.0338992
-0.00716794
-0.00802795
0.0309776
0.0289187
0.00289613
0.0305085
0.00179954
0.0315215
0.00069434
0.0319304
-0.000400192
0.0317212
-0.00145761
0.0308974
-0.00244739
0.0294823
-0.00333861
0.0275194
-0.00410345
0.0250716
-0.00472017
-0.00517528
0.022219
0.0198177
0.00131966
0.0208848
0.000732368
0.0214274
0.000151772
0.0214386
-0.000411424
0.0209244
-0.000943375
0.0199058
-0.0014288
0.0184203
-0.00185305
0.0165207
-0.00220394
0.0142739
-0.0024733
-0.00265818
0.0117568
0.0066682
0.000347245
0.00724041
0.000160162
0.00741185
-1.96707e-05
0.00719055
-0.000190122
0.00659423
-0.000347054
0.00565143
-0.000486008
0.0044014
-0.000603014
0.00289261
-0.000695151
0.00118039
-0.00076108
-0.000802106
-0.00067568
-0.0118418
-0.0116816
-0.0117013
-0.0118914
-0.0122385
-0.0127245
-0.0133275
-0.0140226
-0.0147837
-0.0155858
0.0527716
-0.0239166
0.0260723
0.0498964
-0.0269631
0.0298384
0.0463478
-0.0292713
0.0328199
0.0422045
-0.0307904
0.0349337
0.0375709
-0.0315283
0.036162
0.0325589
-0.0315536
0.0365656
0.0272569
-0.0309741
0.0362761
0.0216774
-0.029873
0.0354525
0.0156947
-0.0281201
0.0341028
-0.0247782
0.00878586
0.031687
0.0497646
-0.0213931
0.0465413
-0.0237399
0.0426865
-0.0254165
0.0382978
-0.0264017
0.033492
-0.0267225
0.0283852
-0.0264468
0.0230653
-0.0256542
0.0175617
-0.0243694
0.0118735
-0.0224319
-0.0192426
0.00633791
0.0458406
-0.0185188
0.0423183
-0.0202176
0.038238
-0.0213362
0.0337134
-0.0218771
0.0288699
-0.021879
0.0238277
-0.0214046
0.0186842
-0.0205106
0.0135131
-0.0191984
0.00842818
-0.017347
-0.0146543
0.0038399
0.0409072
-0.0153541
0.0371771
-0.0164876
0.0329886
-0.0171477
0.0284648
-0.0173533
0.0237334
-0.0171477
0.0189139
-0.0165851
0.0141095
-0.0157062
0.00941896
-0.0145079
0.00498944
-0.0129174
-0.0108056
0.00114072
0.0348644
-0.0120081
0.0310607
-0.0126839
0.0269148
-0.0130018
0.0225503
-0.0129887
0.0180886
-0.012686
0.0136404
-0.0121369
0.00930443
-0.0113703
0.0051807
-0.0103841
0.001404
-0.00914074
-0.00759487
-0.0018067
0.0276125
-0.00864298
0.0239121
-0.0089835
0.0199897
-0.00907945
0.0159591
-0.00895811
0.0119265
-0.00865336
0.00798638
-0.00819672
0.00422311
-0.00760702
0.000722184
-0.00688322
-0.0024112
-0.00600735
-0.004968
-0.00503807
0.0190497
-0.00547372
0.0156679
-0.00560171
0.0121736
-0.00558515
0.00866133
-0.00544585
0.00521536
-0.00520739
0.00190818
-0.00488954
-0.00119599
-0.00450284
-0.0040331
-0.00404611
-0.0065299
-0.00351056
-0.0028948
-0.00860309
0.00904605
-0.002763
0.00622995
-0.00278562
0.00338573
-0.00274092
0.000582376
-0.0026425
-0.00212175
-0.00250327
-0.00467824
-0.00233305
-0.00704486
-0.00213623
-0.00917978
-0.00191119
-0.011037
-0.00165336
-0.00136315
-0.0125686
-0.00262148
-0.000817195
-0.00459591
-0.00081119
-0.00655029
-0.000786548
-0.00844386
-0.000748927
-0.0102445
-0.000702646
-0.0119269
-0.000650599
-0.0134695
-0.000593695
-0.0148499
-0.000530741
-0.0160435
-0.000459775
-0.000382106
-0.0170245
-0.016403
-0.0172142
-0.0180008
-0.0187497
-0.0194523
-0.0201029
-0.0206966
-0.0212274
-0.0216871
-0.0220692
0.000284883
-0.0223541
0.00103889
-0.0177785
0.0022205
-0.0137502
0.00381641
-0.010199
0.00582237
-0.00704404
0.00823226
-0.00421659
0.011031
-0.00165803
0.0141844
0.000686511
0.017645
0.00287727
0.00499716
0.0214337
0.000200589
-0.0225547
0.000733991
-0.0183119
0.00157787
-0.0145941
0.00272538
-0.0113465
0.00417314
-0.0084918
0.00591547
-0.00595892
0.00794431
-0.00368686
0.0102571
-0.00162625
0.0128878
0.000246554
0.0018883
0.0159967
0.000120105
-0.0226748
0.000453354
-0.0186452
0.000998256
-0.015139
0.00176128
-0.0121095
0.00275075
-0.00948126
0.00397539
-0.00718357
0.00544693
-0.00515841
0.0071861
-0.00336542
0.00922836
-0.00179571
-0.000494351
0.011611
4.76572e-05
-0.0227225
0.000204844
-0.0188024
0.000492647
-0.0154268
0.000932316
-0.0125492
0.00154368
-0.0100926
0.00234562
-0.00798551
0.00335797
-0.00617075
0.00460289
-0.00461034
0.00610028
-0.00329309
-0.00223964
0.00784557
-1.60569e-05
-0.0227064
-1.02375e-05
-0.0188082
6.06754e-05
-0.0154977
0.00023129
-0.0127198
0.000529587
-0.0103909
0.000978488
-0.00843441
0.00159714
-0.00678941
0.0024004
-0.00541359
0.00339333
-0.00428603
-0.00340567
0.00455936
-7.10445e-05
-0.0226354
-0.000192064
-0.0186872
-0.000299482
-0.0153903
-0.000347808
-0.0126715
-0.000304338
-0.0104344
-0.00014622
-0.00859253
0.000141275
-0.0070769
0.000564697
-0.00583702
0.00111937
-0.00484071
-0.00407094
0.00178465
-0.000116991
-0.0225184
-0.000339754
-0.0184644
-0.000586669
-0.0151434
-0.000803781
-0.0124544
-0.00095608
-0.0102821
-0.0010228
-0.00852581
-0.000994403
-0.00710529
-0.000871199
-0.00596022
-0.000663799
-0.00504811
-0.00434059
-0.000394147
-0.000153054
-0.0223653
-0.000450938
-0.0181665
-0.000796453
-0.0147979
-0.00112908
-0.0121217
-0.00141286
-0.00999832
-0.00162969
-0.00830898
-0.00177485
-0.00696013
-0.00185408
-0.005881
-0.00188213
-0.00502005
-0.00434083
-0.00188189
-0.000177935
-0.0221874
-0.000522456
-0.017822
-0.000923142
-0.0143972
-0.00131418
-0.0117307
-0.00165921
-0.00965329
-0.00194268
-0.00802551
-0.00216397
-0.00673884
-0.00233328
-0.00571169
-0.00246908
-0.00488426
-0.00421379
-0.00259612
-0.000189421
-0.000551271
-0.00096216
-0.00135181
-0.00168382
-0.00194475
-0.00213725
-0.00227536
-0.00238142
-0.0024836
-0.00147805
-0.0123911
0.0123387
0.00126847
-0.0113467
0.00860014
0.00526389
-0.00654989
0.00255446
0.0101329
-0.000747386
-0.00412163
0.0155868
0.00457105
-0.010025
0.0213808
0.00621294
-0.0120069
0.0274039
0.000854077
-0.00687719
0.0333865
-0.0126183
0.00663565
0.0389133
-0.031839
0.0263122
0.0436076
-0.0512978
0.0466035
0.0474496
-0.064788
0.0609461
0.0508648
-0.0676145
0.0641993
0.054425
-0.057815
0.0542547
0.0583457
-0.0376019
0.0336812
0.0623054
-0.0132944
0.00933469
0.0657297
0.00700145
-0.0104257
0.0682197
0.0193804
-0.0218704
0.069647
0.0221458
-0.0235731
0.0702585
0.0216235
-0.0222349
0.0138464
-0.0136766
0.000759949
-0.0129103
0.00368698
-0.0142737
0.00779828
-0.0106612
0.0127207
-0.00566975
0.0182176
-0.000925922
0.0240286
0.000401958
0.0299843
-0.00510157
0.035769
-0.018403
0.0409696
-0.0370395
0.0452589
-0.0555872
0.0486683
-0.0681974
0.0516556
-0.0706018
0.0548285
-0.0609878
0.0584514
-0.0412248
0.0622326
-0.0170756
0.0655834
0.00365072
0.0680671
0.0168966
0.0695216
0.0206914
0.0701769
0.0209681
0.0139679
0.00390377
-0.0140467
0.00698653
-0.0173564
0.0111369
-0.0148116
0.0159923
-0.0105251
0.0213871
-0.00632074
0.0270614
-0.00527236
0.0327978
-0.0108379
0.0382523
-0.0238575
0.0430307
-0.041818
0.046863
-0.0594195
0.049824
-0.0711585
0.0523856
-0.0731633
0.0551716
-0.0637738
0.0584871
-0.0445404
0.0620754
-0.0206639
0.0653449
0.000381177
0.0678283
0.0144133
0.0693298
0.0191899
0.0700597
0.0202382
0.0140012
0.00782202
-0.0159099
0.0110129
-0.0205473
0.0151032
-0.0189019
0.0197662
-0.0151881
0.0249163
-0.0114709
0.0303082
-0.0106642
0.0356877
-0.0162174
0.0406993
-0.0288691
0.0449821
-0.0461008
0.0483269
-0.0627642
0.0508437
-0.0736753
0.0530006
-0.0753202
0.0554188
-0.066192
0.058433
-0.0475547
0.0618252
-0.024056
0.065012
-0.00280567
0.0675033
0.011922
0.0690724
0.0176209
0.0699075
0.0194031
0.0139066
0.0123451
-0.0185493
0.0155709
-0.0237732
0.0194799
-0.0228109
0.0238259
-0.0195341
0.0286008
-0.0162458
0.0335826
-0.015646
0.0384909
-0.0211257
0.0429731
-0.0333513
0.0467127
-0.0498404
0.049562
-0.0656135
0.0516572
-0.0757704
0.0534472
-0.0771103
0.0555326
-0.0682774
0.0582667
-0.0502887
0.061471
-0.0272603
0.0645806
-0.00591526
0.0670914
0.00941111
0.0687497
0.0159626
0.0697205
0.0184323
0.013645
0.0172693
-0.0219276
0.0204299
-0.0269338
0.0240201
-0.0264011
0.0279326
-0.0234465
0.0322237
-0.0205369
0.0366951
-0.0201174
0.0410484
-0.025479
0.0449455
-0.0372484
0.0481216
-0.0530165
0.0504891
-0.067981
0.0522017
-0.077483
0.0536763
-0.0785849
0.0554776
-0.0700786
0.0579658
-0.0527769
0.0610013
-0.0302959
0.0640463
-0.00896025
0.0665921
0.00686535
0.0683625
0.0141922
0.0694994
0.0172954
0.0131782
0.0223523
-0.0258783
0.0253188
-0.0299003
0.0284523
-0.0295346
0.0318352
-0.0268294
0.0355667
-0.0242684
0.0394636
-0.0240143
0.0432142
-0.0292296
0.0465031
-0.0405373
0.0491225
-0.0556359
0.0510416
-0.0699002
0.0524243
-0.0788657
0.0536453
-0.079806
0.0552214
-0.0716547
0.0575089
-0.0550644
0.0604049
-0.0331919
0.0634049
-0.0119603
0.0660046
0.0042656
0.0679113
0.0122855
0.0692447
0.015962
0.012469
0.0273159
-0.0300416
0.0299253
-0.0325097
0.0324853
-0.0320946
0.0352785
-0.0296226
0.0384186
-0.0274085
0.0417201
-0.0273158
0.0448598
-0.0323692
0.047551
-0.0432285
0.0496457
-0.0577306
0.0511673
-0.0714218
0.0522835
-0.0799819
0.0533202
-0.0808427
0.054737
-0.0730715
0.0568773
-0.0572047
0.0596712
-0.0359857
0.0626522
-0.0149414
0.0653287
0.00158918
0.0673972
0.010217
0.0689573
0.0144019
0.0114813
0.031978
-0.0338494
0.0339901
-0.0345218
0.0358738
-0.0339783
0.0380484
-0.0317973
0.0406028
-0.029963
0.0433258
-0.0300388
0.0458822
-0.0349256
0.0480175
-0.0453639
0.0496441
-0.0593572
0.0508346
-0.0726122
0.0517559
-0.0809032
0.0526812
-0.081768
0.0540076
-0.074398
0.0560585
-0.0592556
0.0587929
-0.0387201
0.0617858
-0.0179343
0.0645645
-0.00118955
0.0668213
0.00796015
0.068638
0.0125852
0.0101802
0.03641
-0.0366645
0.0374487
-0.0355604
0.0385108
-0.0350404
0.0400468
-0.0333333
0.0420265
-0.0319427
0.0441994
-0.0322117
0.0462185
-0.0369447
0.0478624
-0.0470077
0.0490981
-0.0605929
0.0500381
-0.0735522
0.0508419
-0.081707
0.0517284
-0.0826545
0.0530314
-0.0757009
0.0550498
-0.061274
0.0577685
-0.0414389
0.0608059
-0.0209716
0.0637137
-0.00409735
0.0661857
0.00548812
0.0682876
0.0104833
0.00853235
0.117212
-0.0277075
-0.126169
0.112363
-0.0307106
0.109829
-0.0325068
0.109152
-0.0326564
0.109978
-0.0327683
0.112068
-0.0343024
0.114725
-0.0396012
0.117087
-0.0493697
0.118422
-0.0619276
0.118412
-0.0735425
0.117199
-0.0804941
0.115357
-0.0808128
0.113827
-0.074171
0.113557
-0.0610037
0.114928
-0.04281
0.117476
-0.0235197
0.120354
-0.00697523
0.122764
0.0030781
0.124573
0.00867417
0.00763522
0.164635
-0.0168639
-0.175479
0.15623
-0.0223057
0.15066
-0.0269366
0.147508
-0.0295042
0.146228
-0.031489
0.14643
-0.0345042
0.147309
-0.04048
0.14795
-0.0500105
0.14762
-0.0615977
0.146031
-0.0719533
0.143342
-0.0778057
0.14012
-0.0775904
0.1373
-0.0713507
0.135894
-0.0595979
0.136404
-0.0433199
0.138436
-0.0255519
0.141108
-0.00964698
0.143505
0.000681029
0.145393
0.00678599
0.00665773
0.216003
-0.00614508
-0.226722
0.206933
-0.0132352
0.199548
-0.0195517
0.194251
-0.0242074
0.19078
-0.0280174
0.188746
-0.0324705
0.187372
-0.0391059
0.185763
-0.0484011
0.183237
-0.059072
0.179576
-0.0682929
0.174997
-0.0732264
0.170064
-0.0726569
0.16567
-0.0669567
0.162835
-0.0567633
0.162165
-0.0426496
0.163376
-0.0267634
0.165604
-0.0118751
0.16784
-0.00155421
0.169731
0.00489426
0.0056215
0.267651
0.00232365
-0.27612
0.259969
-0.00555248
0.252702
-0.0122849
0.246533
-0.0180387
0.241614
-0.023098
0.237682
-0.0285389
0.234099
-0.0355232
0.230105
-0.0444072
0.225159
-0.0541256
0.219174
-0.0623079
0.212471
-0.0665237
0.20564
-0.0658256
0.199508
-0.060825
0.195043
-0.0522976
0.192918
-0.0405248
0.193
-0.0268454
0.194512
-0.0133875
0.1964
-0.00344156
0.19819
0.0031039
0.00455984
0.31736
0.00751623
-0.322552
0.311988
-0.000180786
0.306299
-0.00659548
0.300674
-0.0124139
0.295459
-0.0178829
0.290536
-0.0236163
0.285412
-0.0303989
0.279499
-0.0384939
0.272441
-0.0470675
0.264324
-0.0541911
0.255615
-0.0578149
0.246969
-0.0571796
0.239154
-0.0530099
0.233036
-0.0461795
0.229314
-0.0368026
0.228025
-0.0255571
0.228564
-0.0139259
0.229903
-0.00478105
0.231468
0.00153933
0.00351773
0.366105
0.00953344
-0.368122
0.363005
0.0029194
0.359217
-0.00280778
0.354848
-0.00804474
0.350141
-0.013176
0.34507
-0.0185453
0.339261
-0.0245897
0.332253
-0.031486
0.323826
-0.0386406
0.3142
-0.0445648
0.303978
-0.0475931
0.293907
-0.0471084
0.284719
-0.0438224
0.277159
-0.0386194
0.271899
-0.0315431
0.269148
-0.0228059
0.268535
-0.0133126
0.269154
-0.00540011
0.270369
0.000324284
0.00254663
0.416866
0.00912773
-0.41646
0.415636
0.0041494
0.413398
-0.000569611
0.410254
-0.00490069
0.406267
-0.00918905
0.401416
-0.0136942
0.395446
-0.01862
0.388003
-0.0240432
0.378933
-0.0295699
0.368505
-0.0341371
0.3574
-0.0364882
0.346439
-0.0361479
0.336339
-0.0337217
0.327716
-0.0299969
0.321174
-0.0250012
0.317053
-0.0186846
0.315246
-0.0115054
0.315045
-0.00519928
0.315815
-0.000445991
0.0016949
0.473053
0.00708094
-0.471006
0.473342
0.00386034
0.472292
0.000480746
0.470081
-0.00268995
0.466704
-0.00581175
0.462097
-0.00908732
0.456097
-0.01262
0.448465
-0.0164117
0.4391
-0.020205
0.428282
-0.0233189
0.416715
-0.0249207
0.405261
-0.0246939
0.394619
-0.02308
0.385294
-0.0206716
0.377787
-0.0174949
0.372514
-0.0134109
0.369603
-0.00859425
0.368578
-0.00417474
0.368861
-0.000729202
0.000995058
0.538514
0.00393933
-0.535372
0.540007
0.00236715
0.539914
0.000574003
0.538379
-0.00115583
0.535416
-0.00284854
0.530942
-0.00461344
0.52483
-0.00650813
0.516933
-0.00851387
0.507216
-0.0104887
0.49599
-0.0120927
0.483981
-0.0129113
0.472077
-0.0127901
0.460964
-0.0119675
0.45106
-0.0107669
0.442771
-0.00920615
0.436539
-0.00717837
0.432669
-0.00472491
0.430895
-0.00240045
0.430714
-0.000548317
0.000448561
0.618519
-0.614579
0.620886
0.62146
0.620304
0.617455
0.612842
0.606334
0.59782
0.587331
0.575239
0.562327
0.549537
0.53757
0.526803
0.517597
0.510418
0.505693
0.503293
0.502745
0.167361
0.0227952
-0.166382
0.16756
0.0283675
0.166799
0.0336331
0.164889
0.0384588
0.161662
0.0427035
0.157002
0.0462315
0.150892
0.048932
0.143465
0.0507478
0.135078
0.0516476
0.0514127
0.191575
0.020826
-0.189605
0.193231
0.0267107
0.194427
0.032437
0.194991
0.0378951
0.194735
0.0429597
0.19347
0.0474961
0.191028
0.0513744
0.187282
0.0544938
0.182109
0.0568208
0.0580426
0.217253
0.0183066
-0.214734
0.219888
0.0240755
0.222545
0.0297807
0.22509
0.0353501
0.22735
0.0406999
0.229111
0.0457353
0.230132
0.0503529
0.230183
0.0544426
0.229084
0.0579202
0.0604043
0.245723
0.0156461
-0.243062
0.248776
0.0210221
0.25218
0.0263767
0.255866
0.0316641
0.259735
0.0368307
0.263656
0.0418138
0.267468
0.0465415
0.270977
0.0509329
0.273977
0.054921
0.0582609
0.278043
0.0129912
-0.275388
0.281269
0.017796
0.285057
0.0225886
0.289385
0.027336
0.294214
0.0320023
0.299479
0.0365481
0.305091
0.0409304
0.310922
0.0451015
0.316829
0.049014
0.0525374
0.315011
0.0103715
-0.312391
0.318335
0.014472
0.322362
0.0185611
0.327085
0.0226129
0.332487
0.0266004
0.33854
0.0304956
0.345201
0.0342693
0.352412
0.0378906
0.360098
0.0413273
0.0445135
0.357528
0.00779575
-0.354952
0.360929
0.0110711
0.365154
0.014336
0.370198
0.0175694
0.376048
0.02075
0.382687
0.0238563
0.39009
0.0268668
0.398221
0.0297597
0.407035
0.032513
0.0350882
0.406999
0.00524994
-0.404453
0.410492
0.00757792
0.41493
0.00989795
0.420305
0.0121946
0.426602
0.0144524
0.433803
0.0166557
0.44188
0.0187892
0.450802
0.0208378
0.460529
0.0227863
0.0246109
0.465552
0.00268543
-0.462987
0.469198
0.00393148
0.473922
0.00517377
0.479713
0.00640367
0.486553
0.00761256
0.494417
0.0087918
0.503273
0.00993291
0.513083
0.0110276
0.523802
0.0120675
0.013041
0.536597
-0.533912
0.540529
0.545702
0.552106
0.559719
0.56851
0.578443
0.589471
0.601538
0.143199
-0.0302506
-0.14085
0.146042
-0.0265014
0.148996
-0.0218803
0.151967
-0.0168889
0.15488
-0.0116075
0.15769
-0.0061205
0.160336
-0.000464901
0.162738
0.00531654
0.164793
0.0111659
0.0170131
0.170576
-0.0319135
-0.168913
0.172393
-0.0283178
0.174315
-0.0238031
0.176346
-0.0189193
0.178465
-0.0137267
0.180659
-0.00831497
0.182913
-0.00271825
0.185192
0.00303703
0.187447
0.00891137
0.0148546
0.201851
-0.0323654
-0.201399
0.202493
-0.0289595
0.203268
-0.0245785
0.204214
-0.0198649
0.205374
-0.0148863
0.206765
-0.00970587
0.208397
-0.00435103
0.210277
0.00115778
0.212396
0.00679227
0.0125166
0.236883
-0.0315125
-0.237736
0.236218
-0.0282945
0.23582
-0.0241799
0.235721
-0.0197659
0.235967
-0.0151322
0.236583
-0.0103223
0.237587
-0.00535514
0.238995
-0.000249894
0.240818
0.00496886
0.0102727
0.275619
-0.0293519
-0.27778
0.273688
-0.0263631
0.272162
-0.0226542
0.271085
-0.0186889
0.270489
-0.0145363
0.270396
-0.0102292
0.270824
-0.00578285
0.271789
-0.0012151
0.273306
0.00345121
0.00819091
0.318648
-0.0259026
-0.322097
0.31554
-0.0232554
0.312964
-0.0200775
0.310967
-0.0166924
0.309578
-0.0131473
0.308816
-0.00946718
0.3087
-0.00566661
0.309247
-0.00176246
0.310473
0.00222494
0.00627346
0.367016
-0.0212005
-0.371718
0.362796
-0.0190351
0.359221
-0.0165033
0.356341
-0.0138119
0.354183
-0.0109895
0.35277
-0.00805418
0.352123
-0.00501951
0.352261
-0.00190046
0.3532
0.00128593
0.00452136
0.422157
-0.0152932
-0.428065
0.416867
-0.0137449
0.412328
-0.0119637
0.408585
-0.0100696
0.405674
-0.00807831
0.403622
-0.00600203
0.402454
-0.00385161
0.402192
-0.00163869
0.402854
0.000623984
0.00292281
0.4862
-0.00821816
-0.493275
0.479857
-0.00740159
0.47436
-0.00646671
0.46976
-0.00546978
0.4661
-0.00441773
0.463415
-0.00331702
0.461737
-0.00217391
0.461093
-0.000995059
0.461505
0.000212362
0.00144073
0.5625
-0.570719
0.555099
0.548632
0.543162
0.538745
0.535428
0.533254
0.532259
0.532471
0.126773
0.00227103
-0.00217826
0.126511
0.00688536
-0.00662387
0.126088
0.0118989
-0.0114752
0.125503
0.0176982
-0.0171139
0.124813
0.0246424
-0.0239518
0.124071
0.0337887
-0.0330465
0.123739
0.045027
-0.0446952
0.123978
0.0626872
-0.0629263
0.128666
0.0806145
-0.0853025
0.120006
-0.13219
0.147932
0.00233546
0.147744
0.00707243