/*--------------------------------*- C++ -*----------------------------------*\
  =========                 |
  \\      /  F ield         | OpenFOAM: The Open Source CFD Toolbox
   \\    /   O peration     | Website:  https://openfoam.org
    \\  /    A nd           | Version:  6.0
     \\/     M anipulation  |
\*---------------------------------------------------------------------------*/
FoamFile
{
    version     2.0;
    format      ascii;
    class       surfaceScalarField;
    location    "14.2485";
    object      phi;
}
// * * * * * * * * * * * * * * * * * * * * * * * * * * * * * * * * * * * * * //

dimensions      [0 3 -1 0 0 0 0];

internalField   nonuniform List<scalar> 
38030
(
2.42961e-05
-0.0791309
0.0791066
0.000136729
-0.072336
0.0722236
0.000336268
-0.0667855
0.066586
0.000619675
-0.0622513
0.0619679
0.000982314
-0.0585399
0.0581773
0.00141802
-0.0554896
0.0550539
0.0019198
-0.0529682
0.0524664
0.00248035
-0.0508688
0.0503083
0.00309241
-0.0491055
0.0484935
0.00374894
-0.0476093
0.0469528
0.00444331
-0.0463249
0.0456305
0.00516929
-0.0452082
0.0444822
0.00592121
-0.0442241
0.0434721
0.00669385
-0.0433445
0.0425719
0.00748254
-0.0425472
0.0417586
0.00828308
-0.0418146
0.041014
0.00909175
-0.0411324
0.0403237
0.00990528
-0.0404896
0.039676
0.0107208
-0.0398773
0.0390618
0.011536
-0.0392886
0.0384735
0.0123485
-0.0387179
0.0379053
0.0131568
-0.0381606
0.0373523
0.0139593
-0.0376131
0.0368106
0.0147547
-0.0370722
0.0362768
0.015542
-0.0365354
0.0357481
0.0163203
-0.036
0.0352218
0.0170887
-0.0354637
0.0346953
0.0178465
-0.0349239
0.0341662
0.0185927
-0.0343779
0.0336317
-0.0338223
0.0330888
0.0193263
3.32093e-05
-0.0791641
0.000151817
-0.0724546
0.000359377
-0.0669931
0.000653038
-0.062545
0.00102742
-0.0589143
0.00147571
-0.0559379
0.00199036
-0.0534828
0.00256364
-0.0514421
0.00318792
-0.0497298
0.0038559
-0.0482773
0.00456072
-0.0470297
0.005296
-0.0459434
0.00605592
-0.044984
0.00683519
-0.0441238
0.00762909
-0.0433411
0.00843339
-0.0426188
0.00924437
-0.0419434
0.0100588
-0.041304
0.0108738
-0.0406924
0.0116871
-0.0401019
0.0124966
-0.0395274
0.0133006
-0.0389646
0.0140977
-0.0384102
0.0148868
-0.0378613
0.015667
-0.0373155
0.0164374
-0.0367704
0.0171973
-0.0362237
0.0179462
-0.0356728
0.0186832
-0.035115
-0.0345466
0.0194076
3.77184e-05
-0.0792018
0.000163608
-0.0725805
0.000380285
-0.0672098
0.000684655
-0.0628494
0.00107081
-0.0593005
0.00153141
-0.0563985
0.00205844
-0.0540099
0.00264378
-0.0520275
0.00327949
-0.0503655
0.00395801
-0.0489558
0.00467226
-0.0477439
0.00541573
-0.0466869
0.00618248
-0.0457507
0.00696715
-0.0449085
0.00776497
-0.044139
0.0085717
-0.0434256
0.00938363
-0.0427553
0.0101976
-0.0421179
0.0110107
-0.0415055
0.0118208
-0.040912
0.0126258
-0.0403324
0.0134242
-0.039763
0.0142147
-0.0392006
0.0149962
-0.0386428
0.0157679
-0.0380873
0.0165292
-0.0375317
0.0172796
-0.036974
0.0180184
-0.0364117
0.0187452
-0.0358418
-0.0352607
0.0194593
4.1115e-05
-0.0792429
0.000173987
-0.0727134
0.00039983
-0.0674356
0.000714855
-0.0631644
0.00111255
-0.0596982
0.00158505
-0.056871
0.0021239
-0.0545487
0.00272061
-0.0526242
0.00336692
-0.0510119
0.00405504
-0.0496439
0.0047777
-0.0484666
0.00552825
-0.0474375
0.00630064
-0.0465231
0.00708947
-0.0456973
0.00788992
-0.0449394
0.00869776
-0.0442334
0.00950931
-0.0435668
0.0103214
-0.04293
0.0111313
-0.0423155
0.0119368
-0.0417175
0.0127361
-0.0411317
0.0135276
-0.0405545
0.0143102
-0.0399832
0.0150829
-0.0394155
0.015845
-0.0388494
0.0165962
-0.0382829
0.0173358
-0.0377137
0.0180637
-0.0371395
0.0187793
-0.0365574
-0.0359636
0.0194822
4.40838e-05
-0.079287
0.0001836
-0.0728529
0.000418398
-0.0676704
0.000743821
-0.0634898
0.0011527
-0.060107
0.0016366
-0.0573549
0.00218665
-0.0550988
0.00279397
-0.0532315
0.00345002
-0.0516679
0.00414678
-0.0503407
0.0048768
-0.0491966
0.00563329
-0.048194
0.00641014
-0.0473
0.00720189
-0.046489
0.0080037
-0.0457412
0.00881135
-0.0450411
0.0096212
-0.0443767
0.0104301
-0.0437389
0.0112355
-0.0431209
0.0120352
-0.0425172
0.0128275
-0.0419239
0.0136108
-0.0413379
0.0143843
-0.0407567
0.0151471
-0.0401783
0.0158986
-0.0396009
0.0166385
-0.0390227
0.0173665
-0.0384417
0.0180825
-0.0378555
0.0187861
-0.0372611
-0.0366546
0.0194771
4.6833e-05
-0.0793339
0.000192709
-0.0729988
0.000436173
-0.0679139
0.000771645
-0.0638253
0.00119125
-0.0605266
0.001686
-0.0578496
0.00224657
-0.0556593
0.00286372
-0.0538486
0.00352863
-0.0523328
0.00423304
-0.0510451
0.00496935
-0.0499329
0.00573066
-0.0489553
0.00651078
-0.0480801
0.00730421
-0.0472825
0.00810611
-0.0465431
0.0089123
-0.0458473
0.00971917
-0.0451836
0.0105237
-0.0445434
0.0113233
-0.0439205
0.0121159
-0.0433098
0.0128999
-0.0427079
0.013674
-0.042112
0.0144373
-0.04152
0.0151891
-0.0409301
0.015929
-0.0403408
0.0166568
-0.0397505
0.0173723
-0.0391572
0.0180755
-0.0385587
0.0187664
-0.0379519
-0.037333
0.0194448
4.94473e-05
-0.0793833
0.000201432
-0.0731508
0.000453244
-0.0681657
0.000798367
-0.0641704
0.00122821
-0.0609565
0.00173321
-0.0583546
0.00230358
-0.0562297
0.00292974
-0.0544748
0.00360259
-0.0530057
0.00431365
-0.0517561
0.00505518
-0.0506744
0.00582017
-0.0497203
0.00660237
-0.0488623
0.00739626
-0.0480764
0.00819702
-0.0473439
0.00900049
-0.0466507
0.00980313
-0.0459862
0.010602
-0.0453423
0.0113946
-0.0447131
0.012179
-0.0440942
0.0129536
-0.0434826
0.0137174
-0.0428758
0.0144695
-0.0422721
0.0152094
-0.04167
0.0159367
-0.0410682
0.0166515
-0.0404653
0.0173537
-0.0398594
0.0180435
-0.0392485
0.018721
-0.0386294
-0.0379982
0.0193862
5.19594e-05
-0.0794353
0.000209822
-0.0733086
0.000469652
-0.0684255
0.000823998
-0.0645247
0.00126354
-0.061396
0.00177815
-0.0588692
0.00235759
-0.0568091
0.00299192
-0.0551091
0.00367178
-0.0536855
0.00438848
-0.0524728
0.00513415
-0.0514201
0.00590168
-0.0504878
0.00668478
-0.0496454
0.00747792
-0.0488695
0.00827632
-0.0481423
0.00907585
-0.0474503
0.00987306
-0.0467834
0.0106651
-0.0461343
0.0114495
-0.0454975
0.0122246
-0.0448693
0.0129888
-0.0442468
0.0137412
-0.0436282
0.0144811
-0.043012
0.0152082
-0.042397
0.0159222
-0.0417822
0.0166232
-0.0411663
0.0173115
-0.0405477
0.0179872
-0.0399242
0.0186508
-0.039293
-0.0386497
0.0193023
5.4386e-05
-0.0794897
0.0002179
-0.0734721
0.000485409
-0.068693
0.000848533
-0.0648879
0.00129722
-0.0618447
0.00182078
-0.0593928
0.00240853
-0.0573969
0.00305018
-0.0557508
0.00373609
-0.0543714
0.00445742
-0.0531942
0.00520614
-0.0521688
0.00597508
-0.0512567
0.00675792
-0.0504282
0.00754913
-0.0496607
0.00834397
-0.0489371
0.00913838
-0.0482447
0.00992898
-0.047574
0.010713
-0.0469183
0.0114882
-0.0462727
0.0122528
-0.0456339
0.0130057
-0.0449996
0.0137458
-0.0443683
0.0144726
-0.0437388
0.015186
-0.0431104
0.0158859
-0.0424821
0.0165726
-0.041853
0.0172463
-0.0412214
0.0179075
-0.0405855
0.0185567
-0.0399421
-0.0392872
0.0191942
5.67304e-05
-0.0795464
0.000225675
-0.0736411
0.000500517
-0.0689679
0.000871956
-0.0652593
0.00132922
-0.062302
0.00186106
-0.0599246
0.00245633
-0.0579922
0.00310442
-0.0563989
0.00379545
-0.0550625
0.00452038
-0.0539191
0.00527107
-0.0529195
0.0060403
-0.052026
0.00682173
-0.0512097
0.00760986
-0.0504488
0.00839998
-0.0497272
0.00918812
-0.0490328
0.009971
-0.0483569
0.0107459
-0.0476932
0.0115108
-0.0470376
0.0122641
-0.0463872
0.0130045
-0.0457401
0.0137315
-0.0450952
0.0144445
-0.0444519
0.0151435
-0.0438094
0.0158286
-0.0431673
0.0165003
-0.0425246
0.0171589
-0.0418801
0.0178052
-0.0412317
0.0184396
-0.0405765
-0.0399103
0.0190627
5.89947e-05
-0.0796054
0.000233145
-0.0738152
0.000514967
-0.0692497
0.000894252
-0.0656386
0.00135951
-0.0627672
0.00189893
-0.060464
0.00250095
-0.0585942
0.00315461
-0.0570525
0.00384979
-0.0557577
0.00457729
-0.0546466
0.00532889
-0.0536711
0.00609731
-0.0527944
0.00687621
-0.0519886
0.00766012
-0.0512327
0.0084444
-0.0505115
0.00922517
-0.0498136
0.00999924
-0.049131
0.0107641
-0.0484581
0.0115177
-0.0477912
0.0122586
-0.0471281
0.0129858
-0.0464673
0.0136988
-0.0458082
0.0143972
-0.0451503
0.0150811
-0.0444934
0.0157509
-0.0438371
0.016407
-0.0431808
0.0170502
-0.0425232
0.017681
-0.0418625
0.0183003
-0.0411958
-0.0405188
0.0189088
6.11786e-05
-0.0796666
0.000240306
-0.0739944
0.000528751
-0.0695382
0.000915404
-0.0660252
0.00138807
-0.0632399
0.00193438
-0.0610103
0.00254234
-0.0592021
0.00320069
-0.0577109
0.00389907
-0.056456
0.00462814
-0.0553757
0.00537959
-0.0544226
0.00614611
-0.0535609
0.00692137
-0.0527638
0.00769996
-0.0520113
0.00847732
-0.0512889
0.00924966
-0.0505859
0.0100139
-0.0498952
0.0107676
-0.0492118
0.011509
-0.0485326
0.0122367
-0.0478558
0.0129499
-0.0471805
0.0136481
-0.0465064
0.0143312
-0.0458334
0.0149995
-0.0451616
0.0156534
-0.044491
0.0162935
-0.0438209
0.0169207
-0.0431504
0.0175359
-0.0424777
0.0181399
-0.0417998
-0.0411125
0.0187336
6.32784e-05
-0.0797298
0.000247154
-0.0741782
0.000541859
-0.0698329
0.000935398
-0.0664188
0.00141488
-0.0637194
0.00196738
-0.0615628
0.00258049
-0.0598152
0.00324265
-0.058373
0.00394328
-0.0571567
0.00467292
-0.0561053
0.00542318
-0.0551728
0.00618673
-0.0543245
0.00695729
-0.0535344
0.0077295
-0.0527835
0.00849889
-0.0520583
0.00926178
-0.0513488
0.0100152
-0.0506487
0.0107569
-0.0499535
0.0114852
-0.0492609
0.0121989
-0.0485695
0.0128973
-0.0478788
0.01358
-0.0471891
0.0142472
-0.0465006
0.0148993
-0.0458137
0.0155367
-0.0451284
0.0161605
-0.0444446
0.0167714
-0.0437613
0.0173706
-0.0430769
0.017959
-0.0423883
-0.0416913
0.0185378
6.52926e-05
-0.0797951
0.000253681
-0.0743666
0.000554284
-0.0701335
0.000954226
-0.0668187
0.00143992
-0.0642051
0.00199791
-0.0621208
0.00261539
-0.0604327
0.00328048
-0.0590381
0.00398243
-0.0578586
0.00471165
-0.0568345
0.00545969
-0.0559209
0.00621925
-0.055084
0.00698407
-0.0542992
0.00774887
-0.0535484
0.00850929
-0.0528187
0.00926177
-0.0521013
0.0100035
-0.0513904
0.0107323
-0.0506823
0.0114467
-0.0499753
0.0121456
-0.0492684
0.0128284
-0.0485617
0.0134951
-0.0478558
0.0141458
-0.0471513
0.0147811
-0.0464489
0.0154017
-0.045749
0.0160086
-0.0450515
0.0166029
-0.0443557
0.0171859
-0.0436598
0.0177586
-0.0429611
-0.042255
0.0183224
6.72178e-05
-0.0798623
0.000259883
-0.0745593
0.00056602
-0.0704396
0.000971884
-0.0672246
0.00146321
-0.0646964
0.002026
-0.0626836
0.00264704
-0.0610538
0.00331421
-0.0597053
0.00401655
-0.058561
0.00474438
-0.0575623
0.00548921
-0.0566657
0.00624377
-0.0558386
0.00700184
-0.0550573
0.00775826
-0.0543048
0.00850875
-0.0535692
0.0092499
-0.0528424
0.00997904
-0.0521195
0.0106942
-0.0513975
0.0113938
-0.050675
0.0120772
-0.0499518
0.0127439
-0.0492284
0.0133939
-0.0485058
0.0140275
-0.0477849
0.0146455
-0.0470669
0.0152488
-0.0463523
0.0158385
-0.0456412
0.016416
-0.0449331
0.0169825
-0.0442263
0.0175394
-0.043518
-0.0428037
0.018088
6.90518e-05
-0.0799314
0.000265758
-0.074756
0.000577067
-0.0707509
0.00098838
-0.0676359
0.00148474
-0.0651928
0.00205164
-0.0632505
0.00267548
-0.0616776
0.00334387
-0.0603737
0.00404569
-0.0592628
0.00477117
-0.0582878
0.00551184
-0.0574064
0.00626042
-0.0565872
0.00701079
-0.0558076
0.00775788
-0.0550519
0.00849755
-0.0543088
0.00922651
-0.0535714
0.00994223
-0.0528352
0.0106429
-0.0520981
0.0113272
-0.0513593
0.0119944
-0.050619
0.0126443
-0.0498783
0.013277
-0.0491385
0.0138931
-0.048401
0.0144934
-0.0476672
0.0150789
-0.0469378
0.0156511
-0.0462134
0.0162113
-0.0454933
0.016761
-0.0447761
0.0173019
-0.0440589
-0.0433371
0.0178353
7.0791e-05
-0.0800022
0.000271303
-0.0749565
0.000587434
-0.071067
0.00100373
-0.0680522
0.00150455
-0.0656936
0.00207488
-0.0638209
0.00270075
-0.0623035
0.00336951
-0.0610425
0.00406992
-0.0599632
0.00479214
-0.0590101
0.0055277
-0.0581419
0.00626937
-0.0573288
0.00701113
-0.0565494
0.007748
-0.0557887
0.00847599
-0.0550368
0.00919195
-0.0542874
0.00989351
-0.0535368
0.010579
-0.0527836
0.0112472
-0.0520275
0.0118977
-0.0512694
0.0125302
-0.0505108
0.0131452
-0.0497534
0.0137432
-0.048999
0.0143253
-0.0482492
0.0148926
-0.0475052
0.0154468
-0.0467676
0.0159895
-0.0460359
0.0165223
-0.0453089
0.0170469
-0.0445835
-0.0438551
0.017565
7.24323e-05
-0.0800746
0.00027652
-0.0751606
0.000597131
-0.0713876
0.00101796
-0.068473
0.00152268
-0.0661983
0.00209576
-0.0643939
0.0027229
-0.0629306
0.00339121
-0.0617108
0.00408934
-0.0606613
0.00480741
-0.0597281
0.00553695
-0.0588715
0.00627082
-0.0580627
0.00700309
-0.0572817
0.00772891
-0.0565145
0.00844442
-0.0557523
0.00914664
-0.0549896
0.00983334
-0.0542235
0.010503
-0.0534532
0.0111546
-0.0526791
0.0117877
-0.0519026
0.0124024
-0.0511255
0.0129991
-0.0503501
0.0135785
-0.0495785
0.014142
-0.0488126
0.0146907
-0.048054
0.0152266
-0.0473034
0.0157512
-0.0465606
0.0162667
-0.0458243
0.0167748
-0.0450916
-0.0443577
0.0172774
7.39739e-05
-0.0801486
0.000281419
-0.0753681
0.000606187
-0.0717124
0.0010311
-0.0688979
0.00153917
-0.0667064
0.00211435
-0.0649691
0.00274201
-0.0635583
0.00340906
-0.0623778
0.00410406
-0.0613563
0.0048171
-0.0604412
0.00553977
-0.0595941
0.00626499
-0.0587879
0.00698695
-0.0580036
0.00770094
-0.0572285
0.00840324
-0.0564546
0.00909103
-0.0556774
0.00976223
-0.0548947
0.0104154
-0.0541064
0.0110499
-0.0533135
0.0116652
-0.0525179
0.0122615
-0.0517219
0.0128395
-0.0509281
0.0134
-0.050139
0.0139443
-0.049357
0.014474
-0.0485837
0.0149909
-0.0478203
0.0154972
-0.0470669
0.0159949
-0.046322
0.0164861
-0.0455829
-0.0448444
0.0169728
7.54118e-05
-0.080224
0.00028601
-0.0755786
0.000614639
-0.072041
0.00104323
-0.0693265
0.0015541
-0.0672173
0.00213073
-0.0655457
0.00275816
-0.0641857
0.00342316
-0.0630428
0.0041142
-0.0620474
0.00482139
-0.0611484
0.00553635
-0.0603091
0.00625213
-0.0595037
0.00696301
-0.0587145
0.00766445
-0.05793
0.00835287
-0.0571431
0.00902561
-0.0563501
0.00968075
-0.0555498
0.010317
-0.0547427
0.0109338
-0.0539303
0.0115309
-0.0531149
0.0121085
-0.0522995
0.0126673
-0.0514869
0.0132084
-0.0506801
0.0137331
-0.0498817
0.0142433
-0.0490939
0.0147408
-0.0483179
0.0152281
-0.0475541
0.0157074
-0.0468014
0.0161812
-0.0460567
-0.0453148
0.0166517
7.67451e-05
-0.0803008
0.000290324
-0.0757922
0.000622545
-0.0723733
0.00105442
-0.0697584
0.00156756
-0.0677304
0.00214498
-0.0661232
0.00277146
-0.0648122
0.00343363
-0.063705
0.00411991
-0.0627337
0.00482044
-0.0618489
0.00552692
-0.0610156
0.00623249
-0.0602093
0.0069316
-0.0594136
0.00761982
-0.0586182
0.00829376
-0.057817
0.00895091
-0.0570073
0.00958951
-0.0561884
0.0102084
-0.0553616
0.0108072
-0.054529
0.0113856
-0.0536934
0.0119441
-0.052858
0.0124835
-0.0520262
0.0130048
-0.0512014
0.0135095
-0.0503864
0.0139995
-0.0495839
0.0144771
-0.0487954
0.0149446
-0.0480217
0.0154049
-0.0472616
0.0158605
-0.0465124
-0.0457683
0.0163141
7.79768e-05
-0.0803787
0.000294404
-0.0760087
0.000629997
-0.0727089
0.00106477
-0.0701932
0.00157965
-0.0682453
0.00215721
-0.0667007
0.00278202
-0.065437
0.00344059
-0.0643636
0.00412134
-0.0634144
0.00481444
-0.062542
0.0055117
-0.0617128
0.00620637
-0.0609039
0.00689305
-0.0601003
0.00756747
-0.0592926
0.0082264
-0.0584759
0.00886749
-0.0576483
0.00948914
-0.0568101
0.0100904
-0.0559629
0.0106708
-0.0551094
0.0112303
-0.054253
0.0117695
-0.0533972
0.0122892
-0.0525459
0.0127904
-0.0517026
0.0132747
-0.0508707
0.0137441
-0.0500533
0.0142009
-0.0492522
0.0146479
-0.0484686
0.0150881
-0.0477018
0.0155246
-0.0469489
-0.046204
0.0159603
7.9124e-05
-0.0804579
0.000298334
-0.0762279
0.000637122
-0.0730476
0.00107443
-0.0706305
0.0015905
-0.0687613
0.00216754
-0.0672778
0.00278994
-0.0660594
0.00344416
-0.0650178
0.00411862
-0.0640889
0.00480358
-0.0632269
0.00549092
-0.0624002
0.00617405
-0.0615871
0.00684771
-0.0607739
0.00750781
-0.0599527
0.00815128
-0.0591194
0.00877593
-0.058273
0.00938032
-0.0574145
0.00996362
-0.0565462
0.0105255
-0.0556713
0.0110661
-0.0547935
0.0115858
-0.053917
0.0120856
-0.0530456
0.0125665
-0.0521835
0.0130301
-0.0513343
0.0134783
-0.0505015
0.0139137
-0.0496876
0.0143391
-0.0488941
0.0147581
-0.0481208
0.0151742
-0.047365
-0.0466205
0.0155907
8.02296e-05
-0.0805381
0.000302259
-0.0764499
0.000644109
-0.0733895
0.00108357
-0.07107
0.00160025
-0.069278
0.00217609
-0.0678536
0.00279535
-0.0666786
0.00344447
-0.0656669
0.00411192
-0.0647563
0.00478802
-0.063903
0.0054648
-0.0630769
0.0061358
-0.0622581
0.00679592
-0.0614341
0.00744125
-0.060598
0.00806889
-0.059747
0.00867681
-0.0588809
0.00926374
-0.0580014
0.00982896
-0.0571114
0.0103723
-0.0562146
0.0108938
-0.0553151
0.0113942
-0.0544173
0.0118741
-0.0535255
0.0123347
-0.0526441
0.0127774
-0.0517771
0.0132042
-0.0509283
0.0136174
-0.0501008
0.0140202
-0.0492969
0.0144165
-0.048517
0.0148104
-0.0477589
-0.0470161
0.015206
8.14097e-05
-0.0806195
0.000306429
-0.0766749
0.000651231
-0.0737343
0.00109241
-0.0715111
0.00160907
-0.0697947
0.00218298
-0.0684275
0.00279834
-0.067294
0.00344163
-0.0663102
0.00410136
-0.065416
0.00476796
-0.0645696
0.00543358
-0.0637426
0.00609191
-0.0629164
0.00673803
-0.0620802
0.0073682
-0.0612282
0.00797971
-0.0603586
0.00857071
-0.0594719
0.00914006
-0.0585707
0.00968719
-0.0576585
0.010212
-0.0567394
0.0107147
-0.0558178
0.0111959
-0.0548985
0.0116562
-0.0539859
0.0120968
-0.0530846
0.0125188
-0.0521991
0.012924
-0.0513335
0.0133146
-0.0504915
0.0136938
-0.0496761
0.0140657
-0.0488889
0.0144352
-0.0481284
-0.0473883
0.0148074
8.2921e-05
-0.0807024
0.000311266
-0.0769033
0.000658854
-0.0740819
0.00110119
-0.0719535
0.0016171
-0.0703106
0.00218829
-0.0689987
0.002799
-0.0679047
0.00343573
-0.0669469
0.00408706
-0.0660674
0.00474354
-0.0652261
0.00539744
-0.0643965
0.00604262
-0.0635616
0.00667433
-0.0627119
0.00728903
-0.0618429
0.00788419
-0.0609537
0.00845815
-0.0600459
0.00900991
-0.0591225
0.00953907
-0.0581877
0.0100456
-0.0572459
0.0105298
-0.056302
0.0109923
-0.0553609
0.0114336
-0.0544273
0.0118548
-0.0535058
0.0122567
-0.052601
0.0126408
-0.0517175
0.0130089
-0.0508596
0.0133637
-0.050031
0.0137096
-0.0492347
0.014052
-0.0484709
-0.0477339
0.0143977
8.52627e-05
-0.0807877
0.000317397
-0.0771354
0.000667426
-0.0744319
0.00111016
-0.0723962
0.00162445
-0.0708249
0.00219209
-0.0695664
0.00279737
-0.06851
0.00342683
-0.0675764
0.00406912
-0.0667097
0.00471489
-0.0658719
0.00535655
-0.0650381
0.00598814
-0.0641932
0.00660509
-0.0633288
0.00720406
-0.0624419
0.00778272
-0.0615324
0.00833959
-0.0606027
0.00887385
-0.0596568
0.00938524
-0.058699
0.00987385
-0.0577345
0.0103401
-0.0567683
0.0107845
-0.0558053
0.0112078
-0.0548505
0.0116107
-0.0539086
0.0119938
-0.0529841
0.012358
-0.0520818
0.0127045
-0.0512061
0.0130354
-0.0503618
0.013354
-0.0495534
0.0136667
-0.0487835
-0.0480491
0.0139818
8.93642e-05
-0.080877
0.000325795
-0.0773718
0.00067751
-0.0747836
0.00111955
-0.0728382
0.00163118
-0.0713365
0.00219438
-0.0701296
0.00279345
-0.0691091
0.00341496
-0.0681979
0.0040476
-0.0673423
0.00468212
-0.0665064
0.00531107
-0.0656671
0.00592866
-0.0648108
0.00653054
-0.0639307
0.00711357
-0.0630249
0.00767562
-0.0620944
0.0082154
-0.0611425
0.0087323
-0.0601737
0.00922621
-0.0591929
0.00969737
-0.0582057
0.0101463
-0.0572172
0.0105736
-0.0562327
0.01098
-0.0552569
0.0113661
-0.0542947
0.0117324
-0.0533504
0.0120791
-0.0524285
0.0124066
-0.0515336
0.0127155
-0.0506707
0.0130076
-0.0498454
0.0132878
-0.0490637
-0.0483295
0.0135682
9.76751e-05
-0.0809747
0.000338457
-0.0776126
0.000689919
-0.0751351
0.00112952
-0.0732778
0.00163723
-0.0718442
0.00219505
-0.0706874
0.00278718
-0.0697012
0.0034001
-0.0688108
0.00402252
-0.0679648
0.00464527
-0.0671292
0.00526107
-0.0662829
0.00586432
-0.065414
0.00645085
-0.0645173
0.00701775
-0.0635918
0.00756311
-0.0626398
0.00808585
-0.0616653
0.00858554
-0.0606734
0.00906228
-0.0596697
0.00951648
-0.0586599
0.00994881
-0.0576496
0.0103601
-0.0566439
0.010751
-0.0556479
0.0111224
-0.054666
0.0114745
-0.0537025
0.0118075
-0.0527615
0.0121208
-0.0518469
0.0124132
-0.0509632
0.0126826
-0.0501149
0.0129297
-0.0493108
-0.0485718
0.013172
0.000117975
-0.0810927
0.000358356
-0.077853
0.000704939
-0.0754817
0.00113967
-0.0737126
0.00164219
-0.0723467
0.00219384
-0.071239
0.00277839
-0.0702858
0.00338216
-0.0694146
0.00399385
-0.0685765
0.00460439
-0.0677397
0.00520664
-0.0668851
0.0057952
-0.0660026
0.00636613
-0.0650882
0.00691673
-0.0641424
0.00744532
-0.0631684
0.00795103
-0.062171
0.00843367
-0.061156
0.0088935
-0.0601295
0.00933115
-0.0590976
0.00974752
-0.0580659
0.0101436
-0.05704
0.0105205
-0.0560248
0.0108793
-0.0550248
0.0112208
-0.054044
0.0115456
-0.0530863
0.0118537
-0.0521551
0.0121435
-0.0512529
0.0124084
-0.0503798
0.0126343
-0.0495367
-0.0487561
0.0128186
0.0834701
8.74034e-05
-0.0835575
0.0833929
7.71159e-05
0.0833189
7.40317e-05
0.0832454
7.35213e-05
0.0831713
7.41033e-05
0.0830961
7.5202e-05
0.0830196
7.65003e-05
0.0829418
7.78336e-05
0.0828626
7.91224e-05
0.0827823
8.03359e-05
0.0827008
8.14599e-05
0.0826183
8.24893e-05
0.0825349
8.34245e-05
0.0824507
8.42648e-05
0.0823656
8.50115e-05
0.08228
8.56641e-05
0.0821938
8.62233e-05
0.0821071
8.66887e-05
0.08202
8.70576e-05
0.0819327
8.73294e-05
0.0818452
8.74999e-05
0.0817576
8.75629e-05
0.0816701
8.75055e-05
0.0815828
8.73097e-05
0.0814959
8.69371e-05
0.0814096
8.63139e-05
0.0813243
8.52803e-05
0.0812408
8.34638e-05
0.0811611
7.96946e-05
6.84288e-05
0.083845
0.000247977
-0.0840055
0.0836783
0.00024382
0.0835083
0.000243949
0.0833353
0.0002466
0.0831588
0.000250577
0.0829787
0.000255294
0.0827948
0.000260366
0.0826071
0.000265529
0.0824156
0.000270622
0.0822204
0.000275545
0.0820216
0.000280245
0.0818194
0.000284687
0.081614
0.000288848
0.0814056
0.000292716
0.0811943
0.000296283
0.0809804
0.000299541
0.0807642
0.000302486
0.0805457
0.000305112
0.0803254
0.000307411
0.0801033
0.000309377
0.0798798
0.000310997
0.0796551
0.000312256
0.0794295
0.000313126
0.0792033
0.000313561
0.0789767
0.000313491
0.0787502
0.000312783
0.0785243
0.000311195
0.0782995
0.000308249
0.0780764
0.000302843
0.000291838
0.0840738
0.000451671
-0.0842775
0.0838583
0.000459388
0.0836336
0.000468562
0.0834012
0.000479023
0.0831615
0.000490272
0.0829148
0.000501974
0.0826614
0.000513861
0.0824012
0.000525707
0.0821345
0.00053734
0.0818614
0.000548638
0.0815821
0.000559514
0.0812969
0.000569906
0.0810059
0.000579773
0.0807096
0.000589082
0.0804081
0.00059781
0.0801017
0.000605937
0.0797907
0.000613447
0.0794755
0.000620328
0.0791563
0.000626564
0.0788336
0.000632138
0.0785075
0.000637031
0.0781786
0.000641215
0.077847
0.000644652
0.0775133
0.000647286
0.0771778
0.000649028
0.0768408
0.000649743
0.0765028
0.00064921
0.076164
0.000647057
0.0758242
0.000642603
0.000634405
0.0840657
0.000675366
-0.0842894
0.083828
0.000697116
0.0835777
0.000718866
0.0833159
0.000740828
0.0830433
0.000762888
0.0827603
0.000784899
0.0824675
0.000806714
0.082165
0.00082818
0.0818532
0.000849157
0.0815323
0.000869532
0.0812026
0.000889212
0.0808644
0.000908125
0.080518
0.000926212
0.0801636
0.000943428
0.0798017
0.000959734
0.0794325
0.000975098
0.0790565
0.000989493
0.0786739
0.00100289
0.0782852
0.00101528
0.0778907
0.00102662
0.0774909
0.00103688
0.077086
0.00104604
0.0766767
0.00105404
0.0762631
0.00106083
0.0758458
0.00106632
0.0754252
0.0010704
0.0750015
0.00107289
0.074575
0.00107354
0.0741456
0.00107195
0.00106748
0.0837843
0.000900391
-0.0840094
0.0835437
0.000937778
0.0832881
0.00097445
0.0830183
0.00101062
0.0827349
0.00104629
0.0824384
0.00108141
0.0821292
0.0011159
0.0818077
0.00114965
0.0814743
0.00118257
0.0811293
0.00121456
0.080773
0.00124553
0.0804057
0.0012754
0.0800278
0.00130411
0.0796396
0.0013316
0.0792415
0.00135783
0.0788339
0.00138275
0.078417
0.00140632
0.0779914
0.00142851
0.0775574
0.00144928
0.0771155
0.00146859
0.0766659
0.00148641
0.0762093
0.0015027
0.0757459
0.0015174
0.0752763
0.00153047
0.0748008
0.00154181
0.0743199
0.00155133
0.0738338
0.00155892
0.073343
0.0015644
0.0728474
0.00156757
0.0015681
0.0832265
0.00111337
-0.0834395
0.0829965
0.00116777
0.0827499
0.00122108
0.0824871
0.00127342
0.0822086
0.00132481
0.0819147
0.00137523
0.081606
0.00142461
0.0812828
0.00147289
0.0809454
0.00151997
0.0805942
0.00156577
0.0802295
0.00161022
0.0798517
0.00165322
0.0794611
0.00169472
0.079058
0.00173466
0.0786429
0.00177296
0.078216
0.00180958
0.0777779
0.00184447
0.0773288
0.00187757
0.0768692
0.00190886
0.0763996
0.00193827
0.0759202
0.00196577
0.0754316
0.00199131
0.0749342
0.00201482
0.0744284
0.00203627
0.0739146
0.00205556
0.0733933
0.00207263
0.0728649
0.00208739
0.0723295
0.00209973
0.0717876
0.00210953
0.00211664
0.0824115
0.00130552
-0.0826036
0.0822012
0.00137803
0.0819731
0.00144923
0.0817274
0.00151915
0.0814644
0.0015878
0.0811845
0.00165514
0.080888
0.00172112
0.0805752
0.00178566
0.0802465
0.00184868
0.0799021
0.00191011
0.0795425
0.00196985
0.0791679
0.00202782
0.0787787
0.00208397
0.0783751
0.00213819
0.0779576
0.00219045
0.0775266
0.00224066
0.0770823
0.00228876
0.0766251
0.00233471
0.0761555
0.00237844
0.0756739
0.0024199
0.0751807
0.00245903
0.0746762
0.00249578
0.0741609
0.00253009
0.0736353
0.0025619
0.0730997
0.00259115
0.0725546
0.00261777
0.0720003
0.00264168
0.0714372
0.00266282
0.0708656
0.00268112
0.00269647
0.0813715
0.00147165
-0.0815376
0.0811865
0.00156307
0.0809827
0.00165302
0.0807603
0.0017415
0.0805197
0.00182847
0.0802609
0.0019139
0.0799843
0.0019977
0.0796902
0.00207979
0.0793788
0.0021601
0.0790504
0.00223852
0.0787052
0.00231498
0.0783437
0.00238939
0.077966
0.00246166
0.0775725
0.00253171
0.0771634
0.00259947
0.0767392
0.00266485
0.0763002
0.00272778
0.0758467
0.00278821
0.0753791
0.00284605
0.0748978
0.00290125
0.0744031
0.00295374
0.0738954
0.00300345
0.0733751
0.00305033
0.0728427
0.00309431
0.0722986
0.00313533
0.071743
0.00317332
0.0711765
0.00320822
0.0705993
0.00323997
0.0700119
0.00326854
0.00329381
0.0801449
0.00160937
-0.0802826
0.0799878
0.00172016
0.0798114
0.0018294
0.0796159
0.00193705
0.0794013
0.00204303
0.0791679
0.00214729
0.0789159
0.00224973
0.0786454
0.00235027
0.0783567
0.0024488
0.07805
0.00254522
0.0777256
0.00263944
0.0773836
0.00273136
0.0770244
0.00282089
0.0766481
0.00290794
0.0762552
0.0029924
0.0758458
0.00307421
0.0754203
0.00315327
0.074979
0.00322951
0.0745222
0.00330284
0.0740503
0.00337319
0.0735636
0.00344048
0.0730624
0.00350465
0.0725471
0.00356562
0.0720181
0.00362333
0.0714757
0.0036777
0.0709203
0.00372866
0.0703524
0.00377618
0.0697722
0.00382018
0.0691801
0.00386063
0.00389743
0.0787714
0.0017183
-0.0788803
0.0786429
0.00184867
0.0784949
0.00197745
0.0783273
0.00210457
0.0781404
0.00222993
0.0779343
0.00235344
0.077709
0.002475
0.0774648
0.00259451
0.0772017
0.00271184
0.0769201
0.0028269
0.0766199
0.00293958
0.0763015
0.00304976
0.0759651
0.00315734
0.0756108
0.00326221
0.0752389
0.00336428
0.0748497
0.00346344
0.0744434
0.00355961
0.0740202
0.00365268
0.0735805
0.00374257
0.0731245
0.00382918
0.0726525
0.00391245
0.0721649
0.00399227
0.0716619
0.00406858
0.0711439
0.0041413
0.0706113
0.00421035
0.0700643
0.00427566
0.0695033
0.00433718
0.0689286
0.00439485
0.0683406
0.00444861
0.00449838
0.0772892
0.0017995
-0.0773704
0.0771885
0.00194943
0.0770682
0.00209777
0.0769283
0.0022444
0.076769
0.00238923
0.0765903
0.00253215
0.0763923
0.00267302
0.076175
0.00281175
0.0759387
0.00294818
0.0756834
0.00308222
0.0754092
0.00321374
0.0751164
0.00334261
0.074805
0.00346872
0.0744752
0.00359196
0.0741273
0.00371221
0.0737614
0.00382935
0.0733777
0.0039433
0.0729765
0.00405393
0.0725579
0.00416115
0.0721222
0.00426486
0.0716697
0.00436496
0.0712006
0.00446137
0.0707152
0.00455399
0.0702138
0.00464273
0.0696966
0.00472752
0.069164
0.00480829
0.0686162
0.00488495
0.0680536
0.00495745
0.0674765
0.00502574
0.00508972
0.0757332
0.00185498
-0.0757887
0.0756584
0.00202427
0.0755641
0.00219199
0.0754505
0.00235801
0.0753176
0.0025222
0.0751653
0.00268444
0.0749937
0.0028446
0.0748029
0.00300254
0.074593
0.00315813
0.0743639
0.00331124
0.074116
0.00346172
0.0738491
0.00360947
0.0735635
0.00375433
0.0732593
0.00389619
0.0729365
0.00403493
0.0725955
0.00417042
0.0722362
0.00430254
0.071859
0.00443118
0.0714639
0.00455624
0.0710512
0.00467759
0.070621
0.00479513
0.0701736
0.00490877
0.0697092
0.00501839
0.069228
0.00512392
0.0687303
0.00522524
0.0682163
0.00532229
0.0676862
0.00541499
0.0671404
0.00550327
0.0665791
0.00558706
0.00566626
0.0741339
0.00188735
-0.0741663
0.0740825
0.00207567
0.0740121
0.00226245
0.0739225
0.00244755
0.0738139
0.00263083
0.0736862
0.00281217
0.0735394
0.0029914
0.0733735
0.00316838
0.0731887
0.00334297
0.0729849
0.00351503
0.0727622
0.00368441
0.0725207
0.00385098
0.0722604
0.00401459
0.0719815
0.00417511
0.071684
0.00433242
0.0713681
0.00448636
0.0710338
0.00463683
0.0706813
0.0047837
0.0703107
0.00492684
0.0699221
0.00506613
0.0695158
0.00520146
0.0690918
0.00533273
0.0686504
0.00545981
0.0681917
0.0055826
0.067716
0.00570101
0.0672233
0.00581494
0.066714
0.00592431
0.0661882
0.00602904
0.0656462
0.00612907
0.00622429
0.0725173
0.0018995
-0.0725294
0.0724865
0.00210641
0.0724371
0.00231184
0.0723691
0.00251562
0.0722823
0.00271762
0.0721768
0.00291767
0.0720525
0.00311563
0.0719096
0.00331133
0.0717479
0.00350463
0.0715676
0.00369536
0.0713686
0.0038834
0.071151
0.00406858
0.0709149
0.00425075
0.0706602
0.00442979
0.0703871
0.00460554
0.0700956
0.00477787
0.0697857
0.00494664
0.0694577
0.00511173
0.0691116
0.00527299
0.0687474
0.00543031
0.0683653
0.00558356
0.0679654
0.00573263
0.0675478
0.00587738
0.0671127
0.00601771
0.0666602
0.00615351
0.0661904
0.00628468
0.0657036
0.00641113
0.0651999
0.00653277
0.0646794
0.00664953
0.00676132
0.0709046
0.00189441
-0.0708995
0.0708916
0.00211944
0.0708604
0.00234303
0.070811
0.00256502
0.0707434
0.00278526
0.0706575
0.00300358
0.0705533
0.00321982
0.0704308
0.00343381
0.07029
0.0036454
0.0701309
0.00385443
0.0699536
0.00406075
0.069758
0.00426419
0.0695441
0.00446461
0.0693121
0.00466186
0.0690618
0.00485579
0.0687934
0.00504626
0.0685069
0.00523313
0.0682024
0.00541626
0.0678799
0.00559551
0.0675394
0.00577075
0.0671812
0.00594186
0.0668051
0.0061087
0.0664113
0.00627115
0.0659999
0.00642908
0.0655711
0.00658238
0.0651248
0.00673094
0.0646613
0.00687465
0.0641806
0.00701344
0.063683
0.00714722
0.00727591
0.0693129
0.00187502
-0.0692935
0.0693147
0.00211763
0.0692989
0.00235887
0.0692653
0.00259855
0.0692141
0.00283651
0.069145
0.00307259
0.0690583
0.00330661
0.0689537
0.0035384
0.0688313