/*--------------------------------*- C++ -*----------------------------------*\
  =========                 |
  \\      /  F ield         | OpenFOAM: The Open Source CFD Toolbox
   \\    /   O peration     | Website:  https://openfoam.org
    \\  /    A nd           | Version:  6.0
     \\/     M anipulation  |
\*---------------------------------------------------------------------------*/
FoamFile
{
    version     2.0;
    format      ascii;
    class       surfaceScalarField;
    location    "10";
    object      phi;
}
// * * * * * * * * * * * * * * * * * * * * * * * * * * * * * * * * * * * * * //

dimensions      [0 3 -1 0 0 0 0];

internalField   nonuniform List<scalar> 
4670
(
-0.000191142
-0.0217268
0.0219179
-0.000527028
-0.0169706
0.0173065
-0.000882589
-0.0134553
0.0138108
-0.00118885
-0.0108716
0.0111778
-0.00141144
-0.00897135
0.00919394
-0.00153948
-0.00756188
0.00768992
-0.00157855
-0.00649738
0.00653645
-0.00154621
-0.00566945
0.0056371
-0.00146906
-0.00499818
0.00492104
-0.0044261
0.00433754
-0.0013805
-0.000177154
-0.0215497
-0.000464946
-0.0166828
-0.000732534
-0.0131877
-0.000910109
-0.010694
-0.000964083
-0.00891737
-0.000884551
-0.00764142
-0.000678313
-0.00670362
-0.000364989
-0.00598277
2.48773e-05
-0.00538805
-0.0048526
0.000451379
-0.000153642
-0.021396
-0.00036396
-0.0164725
-0.000499639
-0.013052
-0.000492553
-0.0107011
-0.000310665
-0.00909926
5.53775e-05
-0.00800746
0.000598915
-0.00724715
0.00129996
-0.00668381
0.00212521
-0.00621331
-0.00575502
0.00302763
-0.000119249
-0.0212768
-0.000223404
-0.0163684
-0.000184926
-0.0130905
5.93504e-05
-0.0109454
0.00053804
-0.00957795
0.00125948
-0.0087289
0.00221813
-0.0082058
0.00339583
-0.00786151
0.00475909
-0.00757657
-0.00725057
0.00625463
-7.30836e-05
-0.0212037
-4.15373e-05
-0.0163999
0.000213238
-0.0133453
0.000745184
-0.0114773
0.00157624
-0.010409
0.00271167
-0.00986433
0.0041468
-0.00964093
0.00586736
-0.00958208
0.00784374
-0.00955295
-0.00942678
0.01002
-1.37633e-05
-0.0211899
0.000185003
-0.0165987
0.0006998
-0.0138601
0.00157016
-0.0123477
0.00280651
-0.0116454
0.00440674
-0.0114646
0.00636408
-0.0115983
0.0086685
-0.0118865
0.0112992
-0.0121837
-0.0123321
0.0142046
6.04879e-05
-0.0212504
0.000460403
-0.0169986
0.00128138
-0.014681
0.00254308
-0.0136094
0.0042386
-0.0133409
0.00635161
-0.0135776
0.00886623
-0.0141129
0.011772
-0.0147923
0.01506
-0.0154717
-0.015967
0.0186949
0.000151221
-0.0214016
0.00078746
-0.0176348
0.00196176
-0.0158553
0.00366932
-0.0153169
0.00588046
-0.015552
0.00855653
-0.0162536
0.011661
-0.0172174
0.0151702
-0.0183014
0.0190821
-0.0193837
-0.020292
0.0234072
0.000259076
-0.0216607
0.00116463
-0.0185404
0.00273563
-0.0174263
0.00494082
-0.0175221
0.00772558
-0.0183368
0.0110239
-0.019552
0.0147666
-0.0209601
0.0188928
-0.0224276
0.0233851
-0.023876
-0.0252767
0.0283698
0.000383786
-0.0220445
0.00158213
-0.0197387
0.0035793
-0.0194235
0.00631966
-0.0202625
0.00973033
-0.0217475
0.0137303
-0.0235519
0.0182317
-0.0254615
0.0231314
-0.0273274
0.0283121
-0.0290566
-0.0306864
0.0337218
0.0302709
0.00118216
-0.031453
0.0290833
0.00118755
0.0279172
0.00116611
0.0267981
0.00111916
0.025748
0.00105006
0.0247851
0.000962893
0.0239234
0.000861682
0.0231737
0.000749722
0.0225446
0.000629111
0.000500108
0.0402954
0.00369036
-0.0428036
0.0376674
0.00381553
0.0349899
0.00384358
0.0323303
0.00377878
0.0297509
0.00362942
0.0273074
0.00340647
0.0250473
0.00312172
0.0230112
0.00278583
0.021233
0.00240736
0.00199435
0.0491066
0.00684137
-0.0522576
0.0456849
0.00723716
0.0420855
0.00744303
0.0384038
0.00746052
0.034734
0.00729919
0.0311654
0.00697502
0.0277799
0.00650726
0.0246512
0.00591451
0.0218461
0.00521244
0.00441698
0.0563704
0.0101595
-0.0596885
0.0526299
0.0109776
0.0485641
0.0115088
0.0442807
0.0117439
0.0398933
0.0116866
0.0355158
0.0113525
0.0312588
0.0107643
0.0272283
0.00994503
0.023528
0.00891266
0.00768255
0.0620402
0.013333
-0.0652137
0.0583156
0.0147022
0.0541266
0.0156978
0.0495778
0.0162927
0.0447873
0.0164771
0.0398812
0.0162587
0.0349881
0.0156574
0.0302384
0.0146947
0.025771
0.0133801
0.011706
0.0662387
0.0161827
-0.0690884
0.0627455
0.0181954
0.0586753
0.019768
0.0541174
0.0208506
0.0491809
0.0214136
0.0439896
0.02145
0.0386755
0.0209714
0.0333788
0.0199915
0.0282617
0.0184971
0.0164159
0.0691716
0.0186289
-0.0716178
0.0660292
0.0213378
0.0622326
0.0235646
0.0578485
0.0252347
0.052967
0.0262951
0.0476967
0.0267203
0.0421573
0.0265109
0.0364765
0.0256723
0.0308136
0.02416
0.021768
0.0710674
0.0206604
-0.0730989
0.0683233
0.0240819
0.0648851
0.0270028
0.0607945
0.0293253
0.0561175
0.030972
0.0509399
0.031898
0.0453548
0.0320959
0.039451
0.0315761
0.0333329
0.0302781
0.0277735
0.0721376
0.0223078
-0.073785
0.0697904
0.026429
0.0667427
0.0300506
0.063014
0.033054
0.0586472
0.0353388
0.0537037
0.0368415
0.0482469
0.0375527
0.0423066
0.0375165
0.0358462
0.0367385
0.0345631
0.0725524
-0.0738702
0.0236257
0.0705683
0.0284131
0.0679048
0.0327142
0.0645656
0.0363931
0.0605759
0.0393285
0.0559797
0.0414376
0.0508241
0.0427084
0.0451061
0.0432345
0.0386346
0.0432099
0.0425112
0.0367578
-0.000331165
-0.0364266
0.036887
-0.000129252
0.0368096
7.74146e-05
0.0365284
0.000281227
0.0360524
0.000475942
0.0353968
0.00065568
0.0345817
0.000815004
0.0336326
0.000949151
0.0325785
0.00105406
0.0011255
0.0508752
-0.00151703
-0.0496893
0.0516355
-0.000889593
0.0519584
-0.000245485
0.0518382
0.000401484
0.0512785
0.00103558
0.0502942
0.00164001
0.0489115
0.00219771
0.0471683
0.00269234
0.0451132
0.00310913
0.00343515
0.0588641
-0.00349894
-0.0568822
0.0603324
-0.00235787
0.06126
-0.00117317
0.0616254
3.60898e-05
0.0614163
0.00124468
0.0606327
0.00242365
0.0592884
0.003542
0.0574125
0.00456827
0.0550493
0.00547236
0.00622682
0.0628247
-0.00611743
-0.0602063
0.0649231
-0.00445621
0.06646
-0.00271005
0.0673974
-0.000901356
0.0677059
0.000936172
0.0673673
0.00276228
0.0663769
0.00453239
0.0647455
0.00619961
0.062501
0.00771695
0.00903929
0.0642672
-0.00919466
-0.06119
0.0668613
-0.00705022
0.0689177
-0.00476651
0.070385
-0.00236869
0.0712203
0.000100912
0.0713907
0.00259187
0.0708752
0.00504794
0.0696659
0.00740887
0.0677705
0.00961239
0.011596
0.0642482
-0.012579
-0.0608638
0.0672052
-0.0100072
0.0696642
-0.00722553
0.0715634
-0.00426794
0.0728531
-0.00118872
0.0734929
0.00195202
0.0734519
0.00508898
0.0727084
0.00815229
0.0712526
0.0110683
0.0137602
0.0634665
-0.0161683
-0.0598772
0.0666838
-0.0132245
0.0694351
-0.0099768
0.0716539
-0.0064868
0.0732927
-0.00282748
0.0743126
0.000932107
0.0746802
0.00472135
0.0743669
0.00846558
0.0733504
0.0120848
0.0154929
0.0623675
-0.0199257
-0.0586101
0.0657755
-0.0166325
0.0687221
-0.0129235
0.0711507
-0.00891534
0.0730273
-0.00470414
0.0743227
-0.000363247
0.0750069
0.0040371
0.0750497
0.00842281
0.0744219
0.0127126
0.0168159
0.0612535
-0.0238726
-0.0573066
0.0647814
-0.0201604
0.0678239
-0.015966
0.0703566
-0.011448
0.0723679
-0.00671537
0.07384
-0.00183536
0.0747482
0.0031289
0.0750629
0.00810812
0.0747522
0.0130233
0.017783
0.060313
-0.0562573
-0.0279283
0.0638634
-0.0237109
0.0668844
-0.018987
0.0694269
-0.0139905
0.0714897
-0.00877818
0.073059
-0.00340465
0.0741118
0.00207608
0.0746194
0.00760051
0.0745499
0.0130928
0.0184627
0.042371
0.0132276
-0.00794627
-0.0476523
0.0370051
0.0139548
-0.00858894
0.0315559
0.0148213
-0.00937206
0.0260399
0.0158749
-0.010359
0.0205011
0.0171761
-0.0116373
0.0150338
0.0187782
-0.0133109
0.0098181
0.0206917
-0.015476
0.00517191
0.0228098
-0.0181636
0.00162183
0.0247794
-0.0212293
0.025784
-0.0241621
0.0421467
0.0184818
-0.0474009
0.0368063
0.0192952
0.0313818
0.0202458
0.0258898
0.0213669
0.0203747
0.0226912
0.0149313
0.0242216
0.00974124
0.0258818
0.00512351
0.0274275
0.00160307
0.0282999
0.027387
0.0415497
0.0236788
-0.0467467
0.0362661
0.0245788
0.0308997
0.0256123
0.0254685
0.0267981
0.0200182
0.0281416
0.0146453
0.0295944
0.00953251
0.0309946
0.00499731
0.0319627
0.00155537
0.0317418
0.0289424
0.0405833
0.0287906
-0.0456951
0.0353863
0.0297758
0.0301106
0.0308879
0.0247765
0.0321321
0.0194321
0.0334859
0.0141765
0.0348501
0.00919299
0.0359781
0.00479485
0.0363608
0.0014806
0.0350561
0.030423
0.0392506
0.0337917
-0.0442517
0.0341684
0.034858
0.0290155
0.0360409
0.0238149
0.0373327
0.0186179
0.0386829
0.0135266
0.0399413
0.00872483
0.0407799
0.00451815
0.0405675
0.00137996
0.0381942
0.031803
0.037551
0.0386584
-0.0424177
0.0326117
0.0397973
0.027614
0.0410386
0.0225843
0.0423625
0.0175774
0.0436898
0.0126986
0.0448201
0.00813126
0.0453472
0.00417004
0.0445287
0.0012549
0.0411094
0.0330579
0.0354776
0.0433661
-0.0401854
0.0307108
0.044564
0.0259038
0.0458456
0.0210851
0.0471811
0.0163132
0.0484617
0.0116967
0.0494367
0.00741706
0.0496268
0.00375446
0.0481913
0.00110737
0.0437565
0.0341652
0.0330111
0.0478833
-0.0375282
0.0284538
0.0491213
0.0238805
0.0504189
0.0193186
0.0517431
0.0148301
0.0529501
0.0105274
0.0537394
0.00658918
0.053565
0.00327699
0.0515035
0.000939995
0.0460935
0.0351052
0.030105
0.0521737
-0.0343953
0.0258195
0.0534068
0.0215413
0.0546971
0.01729
0.0559944
0.0131373
0.0571028
0.00920157
0.0576751
0.00565791
0.0571087
0.00274554
0.0544159
0.000756695
0.0480823
0.0358619
0.026707
-0.0307906
0.0228072
0.0188942
0.0150114
0.0112504
0.00773554
0.00463797
0.00217168
0.000564678
0.0246044
-0.0360224
0.0402906
-0.0288727
0.0206227
-0.035833
0.0398148
0.0167839
-0.0353085
0.0391472
0.0131124
-0.034274
0.0379456
0.00968294
-0.0324023
0.0358317
0.00659355
-0.0292157
0.0323051
0.00395856
-0.0240609
0.0266959
0.00189866
-0.0160902
0.0181501
0.000533953
-0.00425457
0.00561927
0.01276
-0.0122261
0.0280406
-0.031699
-0.032364
0.0237686
-0.031561
0.0195825
-0.0311224
0.0155234
-0.0302149
0.011665
-0.0285439
0.00811046
-0.0256612
0.00499095
-0.0209414
0.00246475
-0.013564
0.000720048
-0.00250986
0.0134801
0.0310589
-0.0272216
-0.0355363
0.0265601
-0.0270622
0.0220925
-0.0266549
0.0177075
-0.0258298
0.0134786
-0.0243151
0.00951261
-0.0216951
0.00595511
-0.0173839
0.00299874
-0.0106077
0.000896504
-0.000407624
0.0143766
0.0336935
-0.0225748
-0.0383403
0.0290012
-0.0223699
0.024302
-0.0219557
0.0196443
-0.0211722
0.0151
-0.0197708
0.010777
-0.0173721
0.00683251
-0.0134394
0.0034893
-0.00726445
0.00106028
0.0020214
0.0154369
0.0359837
-0.0177676
-0.040791
0.0311177
-0.0175039
0.0262197
-0.0170576
0.0213312
-0.0162837
0.0165191
-0.0149587
0.0118906
-0.0127435
0.0076108
-0.00915962
0.00392778
-0.00358143
0.00120789
0.00474128
0.0166448
0.037936
-0.0128158
-0.0428878
0.0329171
-0.012485
0.0278491
-0.0119896
0.0227664
-0.011201
0.0177302
-0.00992255
0.012845
-0.00785828
0.00828121
-0.00459586
0.00430754
0.000392233
0.00133643
0.0077124
0.0179812
0.0395449
-0.00774111
-0.0446196
0.0343974
-0.00733749
0.0291888
-0.00678098
0.0239473
-0.00595957
0.0187286
-0.00470379
0.0136339
-0.00276358
0.00883716
0.000200839
0.00462346
0.00460593
0.00144358
0.0108923
0.0194248
0.0408015
-0.00256942
-0.0459732
0.035553
-0.00208901
0.0302347
-0.00146262
0.0248699
-0.000594805
0.0195096
0.000656554
0.0142521
0.00249394
0.0092735
0.0051794
0.00487156
0.00900788
0.00152755
0.0142363
0.0209523
0.0416966
0.00267013
-0.0469362
0.0363772
0.00323039
0.0309816
0.00393297
0.0255298
0.00485702
0.020069
0.00611738
0.0146952
0.00786768
0.0095862
0.0102884
0.00504891
0.0135452
0.00158714
0.0176981
0.0225394
0.0422226
-0.0474987
0.0368641
0.031425
0.025923
0.0204031
0.0149599
0.00977235
0.00515396
0.00162268
0.0444337
0.0213204
-0.0254634
0.0479378
0.0173849
-0.020889
0.0508525
0.0129524
-0.0158672
0.0532279
0.00819668
-0.010572
0.0550514
0.0032624
-0.00508595
0.0562945
-0.00175019
0.000507097
0.0569184
-0.00673966
0.0061158
0.0568812
-0.011593
0.0116302
0.0561446
-0.016186
0.0169225
-0.0203852
0.0546805
0.0218493
0.0436778
0.0174574
0.0470864
0.0139763
0.0499465
0.0100923
0.0522207
0.00592252
0.0538872
0.00159584
0.0549169
-0.00277984
0.0552747
-0.00709747
0.0549262
-0.0112446
0.053844
-0.0151038
-0.018556
0.0520149
0.0427297
0.013875
0.0459148
0.0107911
0.0485734
0.00743374
0.0506318
0.00386413
0.0520462
0.00018144
0.0527803
-0.00351394
0.0528021
-0.00711933
0.0520873
-0.0105297
0.0506239
-0.0136404
-0.0163515
0.0484194
0.0412538
0.0105667
0.0441332
0.00791172
0.0464793
0.00508762
0.0482127
0.00213079
0.0492792
-0.000885025
0.0496401
-0.00387486
0.0492698
-0.00674909
0.0481576
-0.0094175
0.0463112
-0.011794
-0.0138016
0.0437613
0.0388222
0.00757623
0.0413293
0.00540467
0.0432773
0.00313956
0.0445983
0.000809848
0.0452426
-0.00152932
0.0451788
-0.00381107
0.0443938
-0.00596414
0.0428947
-0.00791834
0.0407106
-0.0096099
-0.0109862
0.0378952
0.0349014
0.00497993
0.0369687
0.00333734
0.0384544
0.00165389
0.0393093
-4.514e-05
0.0394995
-0.00171945
0.0390091
-0.00332068
0.037843
-0.00479806
0.0360281
-0.00610344
0.0336139
-0.00719571
-0.00804452
0.0306722
0.0288117
0.00286414
0.0303825
0.00176649
0.0313754
0.000660997
0.0317632
-0.000432885
0.0315323
-0.00148856
0.030687
-0.00247539
0.0292513
-0.00336241
0.0272697
-0.00412182
0.024806
-0.00473202
-0.00517974
0.0219412
0.019711
0.00130327
0.0207617
0.000715771
0.0212873
0.000135434
0.0212814
-0.000426971
0.0207504
-0.000957548
0.019716
-0.001441
0.0182163
-0.00186269
0.0163049
-0.0022105
0.0140493
-0.00247638
-0.0026575
0.0115271
0.00658016
0.000342379
0.00714057
0.000155353
0.00730027
-2.42644e-05
0.00706763
-0.00019433
0.00646078
-0.000350701
0.00550871
-0.000488927
0.00425108
-0.000605059
0.00273679
-0.000696206
0.00102149
-0.000761079
-0.00080103
-0.000834984
-0.0118837
-0.0117283
-0.0117526
-0.0119469
-0.0122976
-0.0127866
-0.0133916
-0.0140878
-0.0148489
-0.0156499
0.0524799
-0.0240731
0.0262737
0.0495576
-0.0270895
0.0300118
0.0459619
-0.0293576
0.0329533
0.0417742
-0.0308277
0.0350154
0.0371014
-0.0315093
0.0361821
0.0320579
-0.0314724
0.0365159
0.0267343
-0.0308256
0.0361492
0.0211453
-0.0296519
0.0352409
0.0151696
-0.0278215
0.0337972
-0.0244073
0.00828367
0.0312932
0.0494487
-0.021507
0.0461825
-0.0238233
0.042287
-0.025462
0.0378623
-0.026403
0.0330276
-0.0266746
0.0279012
-0.026346
0.0225724
-0.0254969
0.0170731
-0.0241525
0.0114052
-0.0221536
-0.0189088
0.00590674
0.0455067
-0.0185943
0.041948
-0.0202646
0.0378354
-0.0213495
0.033285
-0.0218525
0.0284242
-0.0218138
0.0233746
-0.0212964
0.0182349
-0.0203572
0.0130804
-0.018998
0.00802658
-0.0170998
-0.0143669
0.00348462
0.0405645
-0.0153975
0.0368061
-0.0165063
0.0325951
-0.0171385
0.0280564
-0.0173138
0.0233192
-0.0170766
0.0185038
-0.016481
0.0137144
-0.0155677
0.00905047
-0.0143341
0.00466014
-0.0127094
-0.0105694
0.000862674
0.034525
-0.0120273
0.0307023
-0.0126836
0.0265441
-0.0129802
0.0221752
-0.0129449
0.0177178
-0.0126192
0.0132833
-0.0120465
0.00897088
-0.0112553
0.0048808
-0.010244
0.00114803
-0.00897665
-0.00741168
-0.00200971
0.0272916
-0.00864667
0.0235814
-0.00897336
0.019656
-0.00905483
0.0156297
-0.00891868
0.0116094
-0.00859889
0.00768965
-0.00812673
0.00395511
-0.00752076
0.000491352
-0.00678026
-0.00259676
-0.00588854
-0.00483668
-0.00517176
0.0187646
-0.00547002
0.0153809
-0.00558967
0.0118907
-0.00556463
0.00838885
-0.00541685
0.00495977
-0.00516982
0.00167606
-0.00484302
-0.00139792
-0.00444677
-0.00419816
-0.00398002
-0.00665184
-0.00343486
-0.00281144
-0.00867708
0.00881537
-0.00275832
0.00600275
-0.00277705
0.00316665
-0.00272854
0.000376148
-0.00262634
-0.00231038
-0.00248329
-0.00484442
-0.00230898
-0.00718358
-0.00210761
-0.00928597
-0.00187763
-0.0111059
-0.00161488
-0.00132061
-0.0125968
-0.00277831
-0.000815
-0.00474737
-0.000807993
-0.0066935
-0.000782405
-0.00857597
-0.000743871
-0.0103626
-0.000696647
-0.0120281
-0.00064354
-0.0135503
-0.000585351
-0.0149071
-0.000520889
-0.0160736
-0.000448318
-0.00036922
-0.017025
-0.0164649
-0.0172729
-0.0180553
-0.0187992
-0.0194959
-0.0201394
-0.0207247
-0.0212456
-0.021694
-0.0220632
0.000271082
-0.0223343
0.000994069
-0.017748
0.00213325
-0.013736
0.00367909
-0.0102229
0.00563015
-0.00712282
0.00798264
-0.0043622
0.0107238
-0.00187853
0.0138223
0.000386162
0.0172348
0.00249424
0.00452913
0.0209893
0.000186622
-0.0225209
0.000689343
-0.0182507
0.00149172
-0.0145383
0.00259056
-0.0113218
0.00398508
-0.00851734
0.00567182
-0.00604894
0.00764489
-0.0038516
0.00990414
-0.00187308
0.0124862
-8.78195e-05
0.00146214
0.0155532
0.000106763
-0.0226276
0.000411338
-0.0185553
0.000917971
-0.015045
0.00163653
-0.0120403
0.00257767
-0.00945848
0.00375199
-0.00722325
0.00517285
-0.00527247
0.00686251
-0.00356274
0.00885756
-0.00208287
-0.000875647
0.0111953
3.56591e-05
-0.0226633
0.000167608
-0.0186872
0.000422187
-0.0152995
0.000823605
-0.0124417
0.0013936
-0.0100285
0.0021524
-0.00798205
0.00312085
-0.00624092
0.00432182
-0.0047637
0.00577543
-0.00353649
-0.00257712
0.00747691
-2.61208e-05
-0.0226372
-4.09933e-05
-0.0186724
3.0439e-06
-0.0153436
0.000142946
-0.0125816
0.000408066
-0.0102936
0.000822166
-0.00839615
0.00140488
-0.00682363
0.00217122
-0.00553004
0.00312618
-0.00449145
-0.00370395
0.004253
-7.87318e-05
-0.0225584
-0.000215114
-0.018536
-0.000342205
-0.0152165
-0.000412908
-0.0125109
-0.000393712
-0.0103128
-0.000261381
-0.00852848
-1.06663e-06
-0.00708394
0.000393705
-0.00592481
0.00091809
-0.00501583
-0.00433725
0.00155139
-0.000122006
-0.0224364
-0.000354321
-0.0183037
-0.000613226
-0.0149576
-0.000843978
-0.0122802
-0.00101132
-0.0101455
-0.00109447
-0.00844533
-0.00108402
-0.00709439
-0.000980465
-0.00602837
-0.000794565
-0.00520173
-0.00458357
-0.000548245
-0.000155237
-0.0222812
-0.000456653
-0.0180023
-0.000806319
-0.0146079
-0.00114377
-0.0119427
-0.00143333
-0.0098559
-0.0016572
-0.00822146
-0.00181098
-0.00694061
-0.00190062
-0.00593873
-0.00194103
-0.00516132
-0.00456953
-0.00195506
-0.000177262
-0.0221039
-0.000519328
-0.0176602
-0.000916448
-0.0142108
-0.00130368
-0.0115555
-0.00164546
-0.00951412
-0.00192684
-0.00794008
-0.00214763
-0.00671982
-0.00231832
-0.00576805
-0.00245753
-0.0050221
-0.00443701
-0.00259005
-0.000185992
-0.000539664
-0.000939635
-0.00131728
-0.00163747
-0.00188762
-0.00207099
-0.00220193
-0.002303
-0.00240247
-0.00137483
-0.0149486
0.0149429
0.00115233
-0.0179251
0.0153979
0.00477531
-0.0174979
0.013875
0.00915105
-0.014554
0.0101783
0.0140195
-0.0082156
0.00334719
0.0191266
0.000248223
-0.00535533
0.0244044
0.0076907
-0.0129685
0.0298225
0.010068
-0.0154861
0.0353277
0.0037193
-0.00922454
0.040655
-0.0120694
0.00674209
0.0453699
-0.0335338
0.0288188
0.0491695
-0.0537335
0.0499339
0.0522047
-0.0655659
0.0625307
0.0550277
-0.0644074
0.0615844
0.0581373
-0.0491962
0.0460866
0.0614991
-0.0254153
0.0220535
0.0646887
-0.000386751
-0.00280281
0.067112
0.0152725
-0.0176958
0.0687565
0.024965
-0.0266094
0.0197623
-0.0201773
0.000903743
-0.015401
0.00353666
-0.020558
0.00714704
-0.0211083
0.0114097
-0.0188167
0.0161661
-0.012972
0.0212154
-0.00480107
0.0264867
0.0024194
0.0319037
0.00465097
0.0373414
-0.00171846
0.0424868
-0.0172147
0.0469145
-0.0379614
0.0503682
-0.0571872
0.0530398
-0.0682375
0.0555117
-0.0668793
0.0583253
-0.0520099
0.0614875
-0.0285774
0.0645818
-0.00348105
0.0669861
0.0128682
0.0686578
0.0232933
0.0193018
0.00408272
-0.0164561
0.00681203
-0.0232873
0.010355
-0.0246512
0.014413
-0.0228748
0.0189446
-0.0175035
0.0238142
-0.00967068
0.0289507
-0.00271714
0.0342363
-0.000634613
0.0394826
-0.00696471
0.0443439
-0.0220761
0.0484184
-0.0420359
0.051499
-0.0602678
0.0538067
-0.0705452
0.0559367
-0.0690093
0.0584585
-0.0545318
0.061419
-0.0315378
0.064418
-0.00648004
0.0668135
0.0104727
0.0685343
0.0215725
0.0187601
0.00802689
-0.0182283
0.0108226
-0.0260829
0.014226
-0.0280547
0.0179913
-0.0266401
0.0221958
-0.021708
0.0267753
-0.0142502
0.0316594
-0.0076013
0.0366942
-0.00566933
0.0416386
-0.0119092
0.0461307
-0.0265682
0.0498036
-0.0457088
0.0525001
-0.0629643
0.0544593
-0.0725043
0.0562711
-0.0708212
0.0585189
-0.0567795
0.0612859
-0.0343049
0.0641954
-0.00938952
0.0665949
0.00807318
0.0683869
0.0197805
0.018102
0.0125613
-0.0207697
0.0153672
-0.0288888
0.0185397
-0.0312272
0.0219291
-0.0300295
0.0257212
-0.0255001
0.0299197
-0.0184487
0.0344534
-0.012135
0.0391373
-0.0103532
0.0436905
-0.0164624
0.0477498
-0.0306275
0.0509931
-0.0489522
0.0533117
-0.0652829
0.0549517
-0.0741443
0.0564822
-0.0723516
0.0584854
-0.0587827
0.061077
-0.0368965
0.0639091
-0.0122217
0.0663285
0.00565379
0.0682151
0.0178939
0.0172927
0.0174773
-0.0240424
0.0202071
-0.0316186
0.0230405
-0.0340605
0.0259798
-0.0329688
0.0292974
-0.0288177
0.0330512
-0.0222025
0.0371637
-0.0162475
0.0414236
-0.0146131
0.0455226
-0.0205614
0.0491104
-0.0342153
0.0519172
-0.051759
0.05388
-0.0672457
0.0552425
-0.0755068
0.0565391
-0.0736482
0.0583379
-0.0605815
0.0607812
-0.0393398
0.0635547
-0.0149951
0.0660131
0.00319532
0.0680187
0.0158884
0.0162974
0.022529
-0.0278766
0.0250636
-0.0341532
0.0274451
-0.036442
0.0298772
-0.0354008
0.032688
-0.0316285
0.0359672
-0.0254818
0.0396218
-0.019902
0.0434167
-0.0184079
0.0470284
-0.0241731
0.0501321
-0.037319
0.0525157
-0.0541426
0.0541592
-0.0688892
0.0552959
-0.0766434
0.0564145
-0.0747668
0.0580574
-0.0622244
0.0603877
-0.0416701
0.063127
-0.0177344
0.0656471
0.000675219
0.0677973
0.0137382
0.0150821
0.0274388
-0.0319082
0.0296198
-0.0363343
0.0314519
-0.0382741
0.0333476
-0.0372965
0.0356563
-0.0339373
0.0384697
-0.0282952
0.0416679
-0.0231002
0.0449923
-0.0217324
0.0481149
-0.0272956
0.0507474
-0.0399515
0.05274
-0.0561352
0.054113
-0.0702623
0.0550832
-0.0776136
0.0560856
-0.0757692
0.0576274
-0.0637662
0.0598863
-0.043929
0.0626213
-0.0204695
0.0652287
-0.0019322
0.0675504
0.0114166
0.0136131
0.0320303
-0.0355687
0.0336225
-0.0379265
0.0348176
-0.0394691
0.0361709
-0.0386498
0.0380092
-0.0357756
0.0403936
-0.0306796
0.0431662
-0.0258728
0.0460449
-0.0246111
0.0487051
-0.0299558
0.0509038
-0.0421502
0.0525555
-0.0577869
0.0537178
-0.0714246
0.0545864
-0.0784822
0.0555375
-0.0767203
0.0570362
-0.0652649
0.0592695
-0.0461623
0.0620341
-0.0232341
0.064757
-0.00465507
0.0672777
0.00889592
0.0118579
0.0363808
-0.0382277
0.0370198
-0.0385655
0.0374514
-0.0399008
0.0382637
-0.0394621
0.0396605
-0.0371724
0.0416509
-0.03267
0.044032
-0.028254
0.0465003
-0.0270794
0.0487423
-0.0321978
0.0505645
-0.0439724
0.0519427
-0.0591651
0.0529649
-0.0724468
0.053801
-0.0793183
0.0547662
-0.0776855
0.0562797
-0.0667784
0.0585342
-0.0484168
0.0613637
-0.0260637
0.0642318
-0.00752311
0.0669786
0.00614913
0.00978403
0.117859
-0.0293164
-0.12677
0.112685
-0.0333918
0.109249
-0.0364639
0.107048
-0.0372612
0.105943
-0.0360675
0.106231
-0.0329586
0.107948
-0.0299705
0.110791
-0.0299228
0.114016
-0.0354225
0.116694
-0.0466503
0.118111
-0.0605824
0.11803
-0.0723651
0.116749
-0.078038
0.115087
-0.0760228
0.114178
-0.06587
0.114779
-0.049018
0.116897
-0.028181
0.119582
-0.0102086
0.122328
0.00340298
0.00816036
0.164971
-0.0183985
-0.175888
0.156182
-0.024603
0.149685
-0.0299676
0.145042
-0.0326172
0.141946
-0.0329716
0.140561
-0.0315743
0.140813
-0.0302222
0.142289
-0.0313988
0.144156
-0.0372897
0.145455
-0.0479494
0.145494
-0.0606211
0.144074
-0.0709455
0.141512
-0.0754756
0.138621
-0.0731315
0.136586
-0.0638357
0.136286
-0.0487173
0.137837
-0.0297325
0.140281
-0.0126526
0.143013
0.000670581
0.00645172
0.215941
-0.00748915
-0.22685
0.206408
-0.0150705
0.198125
-0.0216842
0.191482
-0.0259747
0.186469
-0.0279587
0.183238
-0.0283431
0.18169
-0.028674
0.181351
-0.0310604
0.181349
-0.037287
0.180732
-0.0473325
0.178873
-0.0587621
0.175659
-0.0677316
0.171449
-0.0712656
0.167037
-0.0687192
0.163601
-0.0603997
0.162103
-0.0472194
0.162792
-0.030422
0.164753
-0.0146135
0.167304
-0.00188017
0.00472626
0.267205
0.00125577
-0.27595
0.259004
-0.00686976
0.250913
-0.0135931
0.24364
-0.0187018
0.237593
-0.0219113
0.233008
-0.0237583
0.229831
-0.0254973
0.227605
-0.0288345
0.225496
-0.0351775
0.222636
-0.0444723
0.218524
-0.0546501
0.213186
-0.0623939
0.207065
-0.0651448
0.200931
-0.0625848
0.195895
-0.0553644
0.192951
-0.0442746
0.19248
-0.0299515
0.193684
-0.0158173
0.195838
-0.00403439
0.00307792
0.316642
0.00675802
-0.322145
0.310765
-0.000992488
0.304382
-0.00720988
0.297957
-0.0122769
0.292094
-0.0160479
0.28712
-0.0187843
0.283012
-0.0213899
0.279353
-0.0251748
0.275397
-0.0312215
0.270416
-0.0394915
0.264081
-0.0483151
0.256598
-0.0549115
0.248541
-0.0570876
0.240676
-0.0547195
0.234007
-0.0486958
0.229491
-0.0397585
0.227631
-0.028091
0.227818
-0.016004
0.229342
-0.00555877
0.00162145
0.365276
0.00906838
-0.367586
0.361756
0.00252729
0.35746
-0.00291392
0.352616
-0.00743246
0.347717
-0.0111492
0.343122
-0.0141894
0.338826
-0.0170934
0.334432
-0.020781
0.329276
-0.0260655
0.322753
-0.0329691
0.314684
-0.0402452
0.305439
-0.0456665
0.295742
-0.0473914
0.286395
-0.0453725
0.278285
-0.0405851
0.27227
-0.0337442
0.268938
-0.024759
0.26793
-0.014996
0.268621
-0.00624972
0.000474643
0.416081
0.00889932
-0.415912
0.414562
0.00404611
0.412029
-0.000380578
0.408712
-0.004116
0.404902
-0.00733862
0.400893
-0.0101801
0.396716
-0.0129166
0.392033
-0.0160986
0.386259
-0.0202909
0.378868
-0.0255784
0.369749
-0.031126
0.35936
-0.0352777
0.348545
-0.0365764
0.338159
-0.034987
0.328986
-0.0314116
0.321747
-0.0265049
0.317054
-0.0200663
0.314817
-0.0127592
0.314558
-0.00599062
-0.000268954
0.472436
0.00700753
-0.470545
0.472577
0.0039051
0.471436
0.000760283
0.469308
-0.00198724
0.466373
-0.00440382
0.462817
-0.0066238
0.458693
-0.00879321
0.453773
-0.0111786
0.447591
-0.0141086
0.439697
-0.0176846
0.429993
-0.0214223
0.418947
-0.0242311
0.407463
-0.0250922
0.396447
-0.0239717
0.3866
-0.0215649
0.378487
-0.0183915
0.372684
-0.0142629
0.369332
-0.00940743
0.368127
-0.00478578
-0.000566994
0.538128
0.00393477
-0.535056
0.5396
0.002434
0.539586
0.000773504
0.538332
-0.000733184
0.536
-0.0020715
0.532698
-0.00332161
0.528465
-0.00455996
0.52317
-0.00588372
0.516491
-0.00743025
0.508072
-0.00926495
0.497822
-0.0111728
0.486199
-0.0126079
0.474143
-0.0130365
0.462608
-0.0124366
0.45224
-0.0111963
0.44346
-0.00961163
0.436772
-0.00757569
0.432483
-0.00511803
0.430438
-0.00274108
-0.000443348
0.618325
-0.61439
0.620759
0.621532
0.620799
0.618728
0.615406
0.610846
0.604962
0.597532
0.588267
0.577094
0.564486
0.55145
0.539013
0.527817
0.518206
0.51063
0.505512
0.502771
0.167458
0.0226346
-0.166467
0.167676
0.0281954
0.166939
0.0334515
0.165061
0.0382708
0.161876
0.0425133
0.15727
0.0460443
0.151224
0.048754
0.143872
0.0505861
0.13557
0.0515117
0.0513113
0.191623
0.020664
-0.189652
0.193284
0.026534
0.19449
0.0322461
0.195069
0.0376915
0.194837
0.0427457
0.193606
0.0472751
0.191209
0.0511509
0.187522
0.0542734
0.182423
0.0566102
0.0578459
0.217253
0.0181548
-0.214744
0.219879
0.0239087
0.222526
0.0295983
0.225066
0.0351521
0.227325
0.0404868
0.229092
0.0455082
0.230129
0.0501136
0.230208
0.0541939
0.229152
0.0576661
0.0601483
0.245678
0.0155131
-0.243037
0.248711
0.0208759
0.252093
0.0262164
0.255756
0.0314888
0.259603
0.0366398
0.263505
0.0416069
0.2673
0.0463185
0.270799
0.0506946
0.273797
0.0546686
0.0579952
0.277959
0.0128824
-0.275328
0.281158
0.0176771
0.284915
0.0224586
0.28921
0.0271941
0.294002
0.0318477
0.299229
0.0363799
0.3048
0.0407479
0.31059
0.044904
0.316458
0.0488011
0.0523083
0.314895
0.0102897
-0.312302
0.318189
0.0143833
0.322183
0.0184651
0.326868
0.022509
0.332227
0.026488
0.338233
0.030374
0.344843
0.0341378
0.351999
0.0377485
0.359626
0.0411739
0.0443478
0.3574
0.00774046
-0.35485
0.360771
0.0110121
0.364963
0.014273
0.36997
0.0175022
0.37578
0.0206784
0.382374
0.02378
0.389726
0.0267855
0.397801
0.0296732
0.406554
0.0324208
0.03499
0.406879
0.00521788
-0.404357
0.410347
0.00754433
0.414757
0.00986284
0.420101
0.012158
0.426365
0.0144143
0.433529
0.0166163
0.441566
0.0187485
0.450444
0.0207959
0.460121
0.0227431
0.0245668
0.46546
0.00267149
-0.462914
0.469087
0.00391719
0.473791
0.0051592
0.47956
0.00638892
0.486377
0.00759774
0.494216
0.00877706
0.503046
0.00991841
0.512828
0.0110135
0.523517
0.0120541
0.0130285
0.536535
-0.533864
0.540453
0.545612
0.552001
0.559598
0.568375
0.578294
0.589307
0.601361
0.143244
-0.0302902
-0.140882
0.146091
-0.0265576
0.14905
-0.0219463
0.152024
-0.0169649
0.15494
-0.0116934
0.157752
-0.00621746
0.160402
-0.000573825
0.162808
0.00519492
0.16487
0.0110312
0.0168652
0.170634
-0.0319566
-0.168968
0.172449
-0.0283725
0.174372
-0.0238685
0.176402
-0.0189948
0.17852
-0.0138116
0.180712
-0.00841029
0.182964
-0.00282525
0.185241
0.00291736
0.187494
0.00877819
0.0147072
0.201915
-0.0324073
-0.201464
0.202554
-0.0290124
0.203327
-0.024641
0.204269
-0.0199365
0.205424
-0.0149665
0.206809
-0.00979547
0.208435
-0.00445114
0.210306
0.00104616
0.212416
0.00666818
0.0123791
0.236943
-0.0315528
-0.237798
0.236275
-0.0283446
0.235872
-0.0242379
0.235767
-0.0198312
0.236005
-0.0152048
0.236612
-0.0104029
0.237606
-0.0054445
0.239001
-0.000348855
0.240809
0.00485947
0.0101519
0.275671
-0.0293893
-0.277835
0.273735
-0.0264084
0.272203
-0.0227055
0.271117
-0.0187456
0.270511
-0.0145987
0.270406
-0.0102978
0.27082
-0.00585823
0.271769
-0.00129785
0.273268
0.00336047
0.00809152
0.318693
-0.0259351
-0.322148
0.315578
-0.0232934
0.312993
-0.0201197
0.310985
-0.0167382
0.309584
-0.0131972
0.308807
-0.00952149
0.308675
-0.00572568
0.309204
-0.00182663
0.310409
0.00215529
0.00619793
0.367056
-0.0212258
-0.371766
0.362827
-0.0190639
0.359242
-0.0165347
0.356349
-0.0138457
0.354178
-0.0110259
0.35275
-0.00809327
0.352086
-0.00506151
0.352205
-0.00194553
0.353122
0.00123763
0.00446966
0.422196
-0.0153103
-0.428112
0.416896
-0.0137639
0.412346
-0.0119841
0.408591
-0.0100913
0.405667
-0.0081014
0.4036
-0.00602654
0.402416
-0.00387759
0.402137
-0.00166615
0.402779
0.000595008
0.0028923
0.486244
-0.00822689
-0.493328
0.479892
-0.00741109
0.474384
-0.00647679
0.469773
-0.00548039
0.466101
-0.00442885
0.463403
-0.00332865
0.461711
-0.00218605
0.461053
-0.00100769
0.461449
0.000199261
0.00142718
0.562557
-0.570784
0.555146
0.548669
0.543189
0.53876
0.535431
0.533245
0.532237
0.532437
0.126775
0.00229941
-0.00220717
0.126516
0.00695585
-0.00669611
0.126095
0.0120016
-0.011581
0.125515
0.0178173
-0.0172368
0.124827
0.0247658
-0.0240786
0.12409
0.0338947
-0.033157
0.123759
0.0451077
-0.0447774
0.124006
0.062713
-0.0629594
0.128688
0.0805854
-0.085268
0.119953
-0.132147
0.147934
0.0023628
0.147749
0.0071405
0.14747