/*--------------------------------*- C++ -*----------------------------------*\
| =========                 |                                                 |
| \\      /  F ield         | OpenFOAM: The Open Source CFD Toolbox           |
|  \\    /   O peration     | Version:  v1912                                 |
|   \\  /    A nd           | Website:  www.openfoam.com                      |
|    \\/     M anipulation  |                                                 |
\*---------------------------------------------------------------------------*/
FoamFile
{
    version     2.0;
    format      ascii;
    class       volScalarField;
    location    "57";
    object      p;
}
// * * * * * * * * * * * * * * * * * * * * * * * * * * * * * * * * * * * * * //

dimensions      [0 2 -2 0 0 0 0];


internalField   nonuniform List<scalar> 
9600
(
-41.4867
-36.2219
-32.9951
-30.258
-27.7526
-25.4858
-23.4293
-21.5551
-19.8458
-18.2877
-16.8683
-15.5755
-14.398
-13.3251
-12.3465
-11.453
-10.636
-9.88776
-9.20064
-8.57249
-42.2467
-36.9643
-33.7015
-30.9215
-28.371
-26.0601
-23.9622
-22.0502
-20.3071
-18.719
-17.2731
-15.9572
-14.7594
-13.6685
-12.674
-11.7663
-10.9366
-10.1766
-9.47837
-8.84094
-43.0082
-37.7027
-34.4026
-31.5795
-28.9836
-26.6284
-24.4891
-22.5394
-20.7626
-19.1448
-17.6728
-16.3341
-15.1162
-14.0077
-12.9976
-12.0759
-11.2335
-10.4618
-9.75252
-9.106
-43.7682
-38.4366
-35.0977
-32.2309
-29.5893
-27.1897
-25.009
-23.0219
-21.2116
-19.5644
-18.0667
-16.7054
-15.4679
-14.342
-13.3165
-12.381
-11.5262
-10.7429
-10.0227
-9.36733
-44.5237
-39.1646
-35.786
-32.8747
-30.1872
-27.743
-25.521
-23.4966
-21.6533
-19.977
-18.454
-17.0706
-15.8137
-14.6708
-13.6302
-12.6812
-11.8142
-11.0195
-10.2885
-9.62467
-45.2726
-39.8852
-36.4662
-33.5099
-30.776
-28.2874
-26.0242
-23.9628
-22.0868
-20.3819
-18.834
-17.4289
-16.1531
-14.9935
-13.9382
-12.976
-12.097
-11.2912
-10.5496
-9.87773
-46.0131
-40.5969
-37.137
-34.1352
-31.3549
-28.8217
-26.5176
-24.4195
-22.5112
-20.7782
-19.2059
-17.7796
-16.4853
-15.3095
-14.2398
-13.2648
-12.3742
-11.5576
-10.8057
-10.1262
-46.7437
-41.2984
-37.7972
-34.7495
-31.9226
-29.345
-27.0003
-24.8659
-22.9258
-21.1652
-19.5689
-18.122
-16.8097
-15.6182
-14.5346
-13.5472
-12.6453
-11.8182
-11.0563
-10.3699
-47.4629
-41.9882
-38.4456
-35.3518
-32.4783
-29.8564
-27.4712
-25.3011
-23.3297
-21.542
-19.9224
-18.4553
-17.1256
-15.9188
-14.8218
-13.8224
-12.9098
-12.0726
-11.3012
-10.6084
-48.1697
-42.6654
-39.081
-35.941
-33.0207
-30.3548
-27.9297
-25.7241
-23.722
-21.9078
-20.2655
-18.7788
-17.4321
-16.2106
-15.1007
-14.0898
-13.1669
-12.3201
-11.5398
-10.8412
-48.8628
-43.3286
-39.7024
-36.5159
-33.5491
-30.8393
-28.3746
-26.1343
-24.102
-22.2619
-20.5974
-19.0917
-17.7286
-16.4929
-15.3705
-14.3487
-13.4161
-12.5601
-11.7714
-11.0679
-49.5414
-43.977
-40.3088
-37.0757
-34.0624
-31.3091
-28.8053
-26.5306
-24.4687
-22.6033
-20.9171
-19.393
-18.014
-16.7646
-15.6303
-14.5982
-13.6563
-12.7918
-11.9952
-11.2875
-50.2047
-44.6096
-40.8993
-37.6195
-34.5598
-31.7633
-29.2208
-26.9123
-24.8214
-22.9312
-21.224
-19.6818
-18.2875
-17.0249
-15.8791
-14.8371
-13.8866
-13.0143
-12.2105
-11.4993
-50.8521
-45.2257
-41.473
-38.1464
-35.0404
-32.2011
-29.6204
-27.2787
-25.1593
-23.2448
-21.517
-19.9573
-18.5479
-17.2724
-16.1157
-15.0642
-14.1056
-13.2261
-12.4159
-11.7028
-51.483
-45.8245
-42.0291
-38.6557
-35.5037
-32.6219
-30.0034
-27.6291
-25.4817
-23.5435
-21.7954
-20.2184
-18.7943
-17.5061
-16.3384
-15.2777
-14.3113
-13.425
-12.6094
-11.8959
-52.097
-46.405
-42.5669
-39.1468
-35.949
-33.025
-30.3694
-27.9629
-25.7881
-23.8265
-22.0585
-20.4645
-19.0257
-17.7249
-16.5463
-15.4762
-14.5019
-13.609
-12.7882
-12.0733
-52.6954
-46.9674
-43.0858
-39.619
-36.3755
-33.4099
-30.7177
-28.2797
-26.0779
-24.0934
-22.3057
-20.6947
-19.2412
-17.9276
-16.7381
-15.6588
-14.6771
-13.7779
-12.9512
-12.2317
-53.2826
-47.5126
-43.5849
-40.0711
-36.7824
-33.7759
-31.0479
-28.579
-26.3509
-24.3437
-22.5365
-20.9083
-19.4397
-18.1127
-16.9116
-15.8229
-14.8341
-13.9292
-13.0975
-12.3824
-53.8605
-48.0401
-44.0627
-40.5021
-37.1694
-34.1231
-31.3602
-28.8614
-26.6076
-24.5781
-22.7513
-21.1055
-19.6207
-18.2786
-17.0633
-15.9617
-14.9609
-14.0451
-13.2121
-12.5296
-54.4074
-48.5425
-44.5181
-40.9125
-37.5377
-34.453
-31.6564
-29.1285
-26.8497
-24.7986
-22.9524
-21.2888
-19.787
-18.428
-17.1951
-16.0738
-15.0492
-14.1077
-13.2638
-12.5876
-59.8635
-59.832
-59.7627
-59.6703
-59.554
-59.4112
-59.2415
-59.0455
-58.8236
-58.5764
-58.3045
-58.0083
-57.6887
-57.3463
-56.9817
-56.596
-56.1901
-55.7658
-55.326
-54.8738
-53.5146
-53.512
-53.4762
-53.4129
-53.3227
-53.2052
-53.0606
-52.8896
-52.6929
-52.4711
-52.2249
-51.9548
-51.6614
-51.3455
-51.0076
-50.6483
-50.2685
-49.8685
-49.4489
-49.0076
-48.8703
-48.8921
-48.8846
-48.8482
-48.7844
-48.6939
-48.5775
-48.4357
-48.2691
-48.0783
-47.8639
-47.6266
-47.3668
-47.085
-46.7819
-46.4577
-46.1129
-45.7474
-45.361
-44.9518
-44.6396
-44.6791
-44.692
-44.6778
-44.6373
-44.5716
-44.4815
-44.3674
-44.2298
-44.0694
-43.8866
-43.6821
-43.4562
-43.2094
-42.9422
-42.6548
-42.3475
-42.02
-41.6722
-41.3033
-40.7277
-40.7771
-40.8025
-40.8033
-40.7797
-40.7328
-40.663
-40.5709
-40.4571
-40.3219
-40.166
-39.9897
-39.7936
-39.5781
-39.3435
-39.0901
-38.8179
-38.527
-38.217
-37.8875
-37.2144
-37.2679
-37.2998
-37.3092
-37.2963
-37.2617
-37.2061
-37.1299
-37.0337
-36.9178
-36.7828
-36.6292
-36.4573
-36.2677
-36.0606
-35.8363
-35.5948
-35.3361
-35.06
-34.7659
-34.0906
-34.1441
-34.1778
-34.1909
-34.1836
-34.1563
-34.1096
-34.044
-33.96
-33.858
-33.7386
-33.6021
-33.4491
-33.2799
-33.095
-32.8946
-32.6787
-32.4474
-32.2003
-31.937
-31.3197
-31.3703
-31.4027
-31.4161
-31.4107
-31.3869
-31.3453
-31.2862
-31.2102
-31.1178
-31.0094
-30.8855
-30.7466
-30.5932
-30.4258
-30.2445
-30.0495
-29.8409
-29.6183
-29.3812
-28.8617
-28.9078
-28.937
-28.9487
-28.9429
-28.9201
-28.8808
-28.8254
-28.7544
-28.6683
-28.5676
-28.4527
-28.3244
-28.183
-28.0291
-27.8631
-27.6851
-27.4953
-27.2933
-27.0785
-26.6768
-26.7178
-26.743
-26.7517
-26.7443
-26.721
-26.6824
-26.6288
-26.5608
-26.4787
-26.3833
-26.275
-26.1544
-26.0221
-25.8788
-25.7249
-25.5609
-25.3867
-25.2022
-25.0066
-24.728
-24.7637
-24.7845
-24.7899
-24.7802
-24.7556
-24.7167
-24.6639
-24.5975
-24.5181
-24.4263
-24.3227
-24.2079
-24.0827
-23.9477
-23.8036
-23.6509
-23.49
-23.3206
-23.1419
-22.9823
-23.0129
-23.0295
-23.0315
-23.0193
-22.9932
-22.9535
-22.9007
-22.8352
-22.7576
-22.6684
-22.5682
-22.4578
-22.338
-22.2096
-22.0735
-21.9304
-21.7808
-21.6248
-21.4614
-21.4114
-21.4374
-21.45
-21.4488
-21.4342
-21.4064
-21.3658
-21.3129
-21.2479
-21.1715
-21.0841
-20.9866
-20.8796
-20.7639
-20.6408
-20.5111
-20.376
-20.2363
-20.0924
-19.9433
-19.9915
-20.0134
-20.0224
-20.0184
-20.0015
-19.9722
-19.9307
-19.8774
-19.8128
-19.7372
-19.6514
-19.5558
-19.4514
-19.3391
-19.2201
-19.0956
-18.9672
-18.8361
-18.7034
-18.568
-18.7029
-18.721
-18.7269
-18.7203
-18.7015
-18.6708
-18.6285
-18.575
-18.5106
-18.4357
-18.351
-18.2571
-18.1548
-18.045
-17.9291
-17.8086
-17.6857
-17.5618
-17.4396
-17.3176
-17.5289
-17.5437
-17.5467
-17.5379
-17.5174
-17.4856
-17.4426
-17.3889
-17.3247
-17.2505
-17.1668
-17.0741
-16.9733
-16.8654
-16.7518
-16.6342
-16.5152
-16.3971
-16.2845
-16.1758
-16.4558
-16.4676
-16.4682
-16.4573
-16.4354
-16.4025
-16.359
-16.305
-16.241
-16.1673
-16.0844
-15.9927
-15.893
-15.7863
-15.6739
-15.5577
-15.441
-15.3267
-15.2222
-15.1253
-15.4716
-15.4811
-15.4797
-15.4674
-15.4443
-15.4108
-15.3669
-15.313
-15.2493
-15.1761
-15.0939
-15.003
-14.9041
-14.798
-14.686
-14.5698
-14.4535
-14.3406
-14.2431
-14.1554
-14.5653
-14.5734
-14.571
-14.5582
-14.5351
-14.5019
-14.4587
-14.4059
-14.3436
-14.2721
-14.1916
-14.1027
-14.0056
-13.9012
-13.7902
-13.6743
-13.5572
-13.444
-13.3534
-13.2798
-13.7316
-13.7364
-13.7315
-13.7169
-13.6927
-13.6591
-13.6163
-13.5643
-13.5035
-13.4339
-13.3559
-13.2697
-13.1755
-13.0739
-12.9651
-12.8503
-12.7314
-12.6134
-12.5164
-12.4671
-53.5706
-54.1461
-54.6844
-55.2077
-55.7131
-56.1945
-56.6492
-57.076
-57.4741
-57.8425
-58.1806
-58.4879
-58.764
-59.0086
-59.221
-59.4014
-59.5506
-59.6697
-59.7608
-59.8258
-47.0876
-47.6684
-48.2212
-48.7516
-49.2591
-49.7415
-50.1971
-50.6253
-51.0255
-51.397
-51.7393
-52.0521
-52.3357
-52.5906
-52.8148
-53.0077
-53.1699
-53.3019
-53.404
-53.4752
-42.4432
-43.0118
-43.5567
-44.0782
-44.5762
-45.0501
-45.499
-45.9223
-46.3192
-46.6892
-47.0313
-47.3452
-47.6307
-47.8865
-48.1138
-48.313
-48.4836
-48.6254
-48.738
-48.8201
-38.3191
-38.8624
-39.3861
-39.8881
-40.3679
-40.8252
-41.2595
-41.6701
-42.0562
-42.4175
-42.7524
-43.0606
-43.3429
-43.599
-43.8288
-44.0323
-44.2088
-44.3582
-44.4801
-44.5739
-34.6413
-35.1545
-35.6507
-36.1273
-36.5832
-37.0181
-37.4315
-37.8227
-38.1909
-38.5357
-38.8577
-39.1563
-39.4302
-39.6796
-39.9045
-40.1048
-40.28
-40.4301
-40.5549
-40.6543
-31.4427
-31.9244
-32.3908
-32.8393
-33.2685
-33.6782
-34.0678
-34.4368
-34.7846
-35.111
-35.4159
-35.6985
-35.9584
-36.1955
-36.4104
-36.6027
-36.7717
-36.9173
-37.0398
-37.139
-28.6708
-29.1217
-29.5584
-29.9785
-30.3807
-30.7646
-31.1296
-31.4753
-31.8012
-32.1071
-32.3927
-32.6575
-32.9014
-33.1241
-33.3253
-33.5069
-33.667
-33.8052
-33.9218
-34.0172
-26.2588
-26.6808
-27.0895
-27.4825
-27.8587
-28.2176
-28.5586
-28.8813
-29.1854
-29.4706
-29.7367
-29.9834
-30.2107
-30.4184
-30.6066
-30.7736
-30.9231
-31.0524
-31.1614
-31.2506
-24.148
-24.5436
-24.9265
-25.2946
-25.6467
-25.9821
-26.3005
-26.6015
-26.8847
-27.1501
-27.3974
-27.6266
-27.8375
-28.0301
-28.2043
-28.3602
-28.4964
-28.6156
-28.7163
-28.7983
-22.2884
-22.6602
-23.0198
-23.3653
-23.6953
-24.0093
-24.3068
-24.5876
-24.8515
-25.0984
-25.3282
-25.5408
-25.7362
-25.9143
-26.0751
-26.2185
-26.3444
-26.4531
-26.5451
-26.6197
-20.6381
-20.9887
-21.3277
-21.6529
-21.963
-22.2574
-22.5359
-22.7983
-23.0444
-23.2743
-23.4879
-23.6852
-23.8662
-24.0309
-24.1793
-24.3113
-24.4269
-24.5261
-24.6097
-24.6771
-19.1637
-19.4955
-19.8162
-20.1234
-20.4156
-20.6923
-20.9535
-21.199
-21.4289
-21.6433
-21.8421
-22.0254
-22.1933
-22.3457
-22.4827
-22.6043
-22.7104
-22.8013
-22.8766
-22.9372
-17.8381
-18.1534
-18.4583
-18.7495
-19.0255
-19.2861
-19.5314
-19.7616
-19.9766
-20.1767
-20.3621
-20.5327
-20.6886
-20.8299
-20.9566
-21.0687
-21.1662
-21.249
-21.317
-21.3717
-16.6398
-16.9406
-17.2319
-17.509
-17.7703
-18.0161
-18.2469
-18.4629
-18.6643
-18.8514
-19.0244
-19.1834
-19.3285
-19.4598
-19.5771
-19.6807
-19.7704
-19.8463
-19.9088
-19.9568
-15.5516
-15.8401
-16.1199
-16.3843
-16.632
-16.8642
-17.0815
-17.2842
-17.473
-17.6481
-17.8098
-17.9582
-18.0935
-18.2156
-18.3246
-18.4204
-18.5031
-18.5727
-18.6292
-18.6724
-14.5587
-14.8388
-15.1093
-15.3618
-15.5967
-15.8159
-16.0203
-16.2107
-16.3876
-16.5515
-16.7028
-16.8415
-16.9678
-17.0817
-17.183
-17.2719
-17.3482
-17.412
-17.4634
-17.5023
-13.6436
-13.9226
-14.188
-14.429
-14.6512
-14.858
-15.0502
-15.2288
-15.3946
-15.5483
-15.69
-15.8199
-15.9381
-16.0444
-16.1389
-16.2215
-16.2922
-16.3509
-16.3977
-16.4326
-12.7857
-13.0689
-13.3355
-13.5672
-13.7774
-13.9725
-14.1535
-14.3215
-14.4776
-14.6223
-14.7558
-14.8782
-14.9895
-15.0895
-15.1783
-15.2558
-15.3218
-15.3764
-15.4195
-15.4514
-11.9983
-12.272
-12.5393
-12.7662
-12.9663
-13.15
-13.3205
-13.4791
-13.6264
-13.7631
-13.8894
-14.0054
-14.1108
-14.2056
-14.2897
-14.363
-14.4253
-14.4767
-14.5171
-14.5467
-11.4076
-11.6584
-11.8862
-12.103
-12.2914
-12.4573
-12.6113
-12.7556
-12.8896
-13.0138
-13.1285
-13.2338
-13.3293
-13.415
-13.4906
-13.5562
-13.6116
-13.6568
-13.6917
-13.7162
-6.00624
-6.49758
-7.03599
-7.61843
-8.25133
-8.94209
-9.69836
-10.5296
-11.448
-12.4692
-13.6137
-14.9084
-16.3887
-18.1007
-20.1048
-22.4803
-25.3085
-28.6115
-32.6089
-38.6048
-6.27686
-6.78173
-7.33067
-7.92517
-8.57185
-9.27779
-10.0508
-10.9005
-11.8395
-12.8836
-14.0537
-15.377
-16.8893
-18.6373
-20.6816
-23.1012
-25.9765
-29.3263
-33.3622
-39.3792
-6.54891
-7.06732
-7.62689
-8.2337
-8.89441
-9.61579
-10.4058
-11.2743
-12.2341
-13.3014
-14.4974
-15.8496
-17.3945
-19.1788
-21.2635
-23.7272
-26.6491
-30.0446
-34.1173
-40.1508
-6.8219
-7.35378
-7.92408
-8.5434
-9.21836
-9.95538
-10.7625
-11.6501
-12.6309
-13.7217
-14.9438
-16.3253
-17.9028
-19.7236
-21.8488
-24.3566
-27.3248
-30.766
-34.8764
-40.9311
-7.09538
-7.64066
-8.22176
-8.8538
-9.54321
-10.2961
-11.1206
-12.0273
-13.0294
-14.1438
-15.3922
-16.803
-18.4134
-20.2709
-22.4366
-24.9885
-28.003
-31.4897
-35.6386
-41.7177
-7.36899
-7.92755
-8.5195
-9.16447
-9.86852
-10.6374
-11.4794
-12.4055
-13.429
-14.5671
-15.8419
-17.2823
-18.9257
-20.8199
-23.0262
-25.6222
-28.6828
-32.2148
-36.402
-42.5065
-7.64241
-8.21408
-8.81694
-9.47502
-10.1939
-10.9789
-11.8386
-12.784
-13.8291
-14.9911
-16.2925
-17.7625
-19.4389
-21.3699
-23.6168
-26.2568
-29.3634
-32.9403
-37.1649
-43.295
-7.91539
-8.49996
-9.11375
-9.7851
-10.5189
-11.3201
-12.1976
-13.1626
-14.2292
-15.4151
-16.7431
-18.2428
-19.9523
-21.9201
-24.2076
-26.8914
-30.0436
-33.6649
-37.9263
-44.0818
-8.18778
-8.78499
-9.40969
-10.0944
-10.8433
-11.6608
-12.556
-13.5406
-14.6288
-15.8386
-17.1933
-18.7226
-20.4652
-22.4698
-24.7976
-27.5249
-30.7224
-34.3876
-38.6848
-44.8655
-8.45953
-9.06907
-9.7046
-10.4029
-11.1668
-12.0006
-12.9136
-13.9177
-15.0274
-16.2611
-17.6423
-19.2012
-20.9768
-23.0179
-25.3859
-28.1564
-31.3987
-35.1072
-39.4392
-45.6445
-8.73076
-9.35223
-9.99842
-10.7102
-11.4892
-12.3392
-13.2698
-14.2933
-15.4245
-16.682
-18.0896
-19.6779
-21.4862
-23.5637
-25.9716
-28.7849
-32.0714
-35.8224
-40.1882
-46.4174
-9.00176
-9.63463
-10.2912
-11.0164
-11.8103
-12.6764
-13.6245
-14.6672
-15.8195
-17.1005
-18.5343
-20.1519
-21.9927
-24.1063
-26.5536
-29.4093
-32.7392
-36.5319
-40.9303
-47.1827
-9.27301
-9.91656
-10.5831
-11.3214
-12.1301
-13.0119
-13.9771
-15.0387
-16.212
-17.5163
-18.9759
-20.6224
-22.4954
-24.6447
-27.1311
-30.0284
-33.4011
-37.2347
-41.6643
-47.9391
-9.54523
-10.1985
-10.8742
-11.6253
-12.4481
-13.3452
-14.3272
-15.4074
-16.6012
-17.9284
-19.4136
-21.0886
-22.9934
-25.1779
-27.7028
-30.6412
-34.0559
-37.9294
-42.389
-48.6854
-9.8192
-10.4806
-11.1645
-11.9277
-12.7642
-13.6761
-14.6743
-15.7725
-16.9866
-18.3362
-19.8466
-21.5496
-23.4858
-25.705
-28.2678
-31.2464
-34.7022
-38.6147
-43.103
-49.4202
-10.0959
-10.7633
-11.4539
-12.2281
-13.0775
-14.0036
-15.0177
-16.1335
-17.3672
-18.7388
-20.2738
-22.0045
-23.9714
-26.2247
-28.8247
-31.8428
-35.3388
-39.2894
-43.8053
-50.1427
-10.375
-11.0454
-11.7407
-12.5252
-13.387
-14.3268
-15.3562
-16.4891
-17.742
-19.1352
-20.6944
-22.4522
-24.4493
-26.736
-29.3724
-32.4291
-35.9642
-39.9521
-44.4948
-50.8522
-10.656
-11.3244
-12.0226
-12.8171
-13.6914
-14.6446
-15.6888
-16.8385
-18.1102
-19.5245
-21.1073
-22.8916
-24.9183
-27.2377
-29.9097
-33.0038
-36.577
-40.6012
-45.1703
-51.5487
-10.9314
-11.5919
-12.2934
-13.1005
-13.9883
-14.9551
-16.0142
-17.1804
-18.4706
-19.9054
-21.5114
-23.3215
-25.3771
-27.7284
-30.4349
-33.5654
-37.1753
-41.2349
-45.8307
-52.2337
-11.1827
-11.8281
-12.5486
-13.3763
-14.2784
-15.2583
-16.3317
-17.5141
-18.8222
-20.2772
-21.9056
-23.7409
-25.8246
-28.2068
-30.9467
-34.1122
-37.7571
-41.8499
-46.4712
-52.9088
-1.58491
-1.83887
-2.18676
-2.57571
-2.99429
-3.44786
-3.94274
-4.48485
-5.08169
-5.74352
-6.48429
-7.32301
-8.28583
-9.40879
-10.7428
-12.3622
-14.3565
-16.7871
-19.9624
-25.3571
-1.73808
-2.00847
-2.37483
-2.76971
-3.19172
-3.65064
-4.15243
-4.70263
-5.30887
-5.98169
-6.7353
-7.58905
-8.5695
-9.71324
-11.0717
-12.7198
-14.7471
-17.2131
-20.4206
-25.8292
-1.88559
-2.18006
-2.55958
-2.96261
-3.39236
-3.85966
-4.37039
-4.93027
-5.54731
-6.23236
-6.99998
-7.86991
-8.86918
-10.0349
-11.419
-13.0968
-15.1577
-17.6592
-20.8982
-26.3154
-2.05539
-2.36069
-2.74841
-3.16017
-3.59912
-4.07597
-4.59673
-5.16742
-5.79636
-6.49474
-7.27744
-8.1646
-9.18372
-10.3724
-11.7833
-13.4918
-15.5873
-18.1255
-21.3993
-26.8342
-2.2365
-2.5489
-2.94446
-3.36519
-3.81363
-4.30047
-4.83191
-5.41421
-6.05595
-6.76857
-7.5673
-8.47267
-9.51266
-10.7254
-12.164
-13.9044
-16.0356
-18.6121
-21.9234
-27.3824
-2.4231
-2.74411
-3.14802
-3.57787
-4.0361
-4.53338
-5.0761
-5.67071
-6.326
-7.05369
-7.86933
-8.79386
-9.85571
-11.0936
-12.5611
-14.3345
-16.5027
-19.1186
-22.4687
-27.9548
-2.6167
-2.94723
-3.35939
-3.79839
-4.26668
-4.77484
-5.32936
-5.93688
-6.6064
-7.34992
-8.18329
-9.12786
-10.2125
-11.4765
-12.974
-14.7816
-16.9879
-19.6444
-23.034
-28.5489
-2.8187
-3.15872
-3.57893
-4.02706
-4.50561
-5.02497
-5.59173
-6.21267
-6.89704
-7.65706
-8.50892
-9.47435
-10.5827
-11.8738
-13.4023
-15.2451
-17.4908
-20.1889
-23.6188
-29.1637
-3.02888
-3.37843
-3.80665
-4.26397
-4.75295
-5.28379
-5.86315
-6.49798
-7.19772
-7.97487
-8.84593
-9.83301
-10.966
-12.2851
-13.8455
-15.7247
-18.0107
-20.7514
-24.2224
-29.7981
-3.24662
-3.60604
-4.04237
-4.50897
-5.00856
-5.55115
-6.14345
-6.7926
-7.50823
-8.30309
-9.194
-10.2035
-11.3618
-12.7098
-14.3032
-16.2197
-18.547
-21.3312
-24.8439
-30.4511
-3.47151
-3.84119
-4.28577
-4.76179
-5.27219
-5.8268
-6.43239
-7.09626
-7.82826
-8.64137
-9.55275
-10.5853
-11.7698
-13.1475
-14.7748
-16.7294
-19.099
-21.9275
-25.4825
-31.1216
-3.70316
-4.08348
-4.53647
-5.02207
-5.54351
-6.11041
-6.72962
-7.40861
-8.15743
-8.98934
-9.92178
-10.9781
-12.1894
-13.5977
-15.2597
-17.2534
-19.666
-22.5396
-26.1372
-31.8085
-3.9411
-4.33243
-4.79402
-5.28939
-5.82212
-6.4016
-7.03476
-7.72925
-8.49534
-9.34653
-10.3006
-11.3813
-12.6202
-14.0598
-15.7572
-17.7909
-20.2473
-23.1667
-26.8073
-32.5109
-4.18481
-4.58753
-5.05793
-5.56329
-6.10756
-6.69991
-7.34734
-8.05771
-8.8415
-9.71247
-10.6887
-11.7943
-13.0615
-14.5332
-16.2668
-18.3412
-20.8422
-23.8079
-27.4919
-33.2278
-4.43374
-4.84822
-5.32765
-5.84323
-6.39931
-7.00483
-7.66687
-8.39349
-9.19539
-10.0866
-11.0856
-12.2167
-13.5128
-15.0171
-16.7878
-18.9035
-21.4498
-24.4625
-28.1902
-33.9585
-4.68734
-5.11393
-5.60262
-6.12868
-6.69685
-7.31584
-7.99282
-8.73605
-9.55646
-10.4684
-11.4905
-12.6478
-13.9733
-15.511
-17.3193
-19.4771
-22.0693
-25.1295
-28.9012
-34.702
-4.94505
-5.38407
-5.88227
-6.41906
-6.99961
-7.63237
-8.3246
-9.0848
-9.92412
-10.8571
-11.9029
-13.0868
-14.4424
-16.014
-17.8605
-20.0611
-22.6997
-25.8079
-29.6241
-35.4579
-5.20633
-5.65808
-6.166
-6.71381
-7.30702
-7.95386
-8.66166
-9.43916
-10.2978
-11.2523
-12.3222
-13.5332
-14.9193
-16.5254
-18.4107
-20.6545
-23.3402
-26.4968
-30.3582
-36.2258
-5.47063
-5.93536
-6.45324
-7.01233
-7.61849
-8.2797
-9.00338
-9.7985
-10.6767
-11.6532
-12.7476
-13.9861
-15.4032
-17.0443
-18.9689
-21.2564
-23.9894
-27.1949
-31.1023
-37.0062
-5.73744
-6.21538
-6.74344
-7.31408
-7.93349
-8.60934
-9.34919
-10.1622
-11.0604
-12.0591
-13.1784
-14.4449
-15.8935
-17.5699
-19.5342
-21.8656
-24.6463
-27.9005
-31.8537
-37.8
-1.33714
-1.13045
-0.976689
-0.839977
-0.719924
-0.613991
-0.521063
-0.440346
-0.37134
-0.313684
-0.267115
-0.231419
-0.206427
-0.192002
-0.188006
-0.194229
-0.210454
-0.23681
-0.273474
-0.320236
-1.66697
-1.48355
-1.32581
-1.18387
-1.05899
-0.948588
-0.851693
-0.767502
-0.695504
-0.63532
-0.586669
-0.549328
-0.523115
-0.507879
-0.503475
-0.509731
-0.526491
-0.553765
-0.591637
-0.639811
-1.99946
-1.82392
-1.6662
-1.52312
-1.3961
-1.28352
-1.18467
-1.09886
-1.02563
-0.964607
-0.915524
-0.878156
-0.852319
-0.837855
-0.834616
-0.84245
-0.861236
-0.890925
-0.931387
-0.982836
-2.38315
-2.20595
-2.04519
-1.89914
-1.76855
-1.65246
-1.5504
-1.4618
-1.38626
-1.32344
-1.27307
-1.23492
-1.2088
-1.19455
-1.19201
-1.20103
-1.22151
-1.25335
-1.29644
-1.35082
-2.80183
-2.62217
-2.45744
-2.30745
-2.17264
-2.0525
-1.94669
-1.8548
-1.77647
-1.7114
-1.65934
-1.62005
-1.59334
-1.57905
-1.57701
-1.58708
-1.60914
-1.64306
-1.68875
-1.74616
-3.25305
-3.07016
-2.90125
-2.74693
-2.60767
-2.48326
-2.37351
-2.27812
-2.19681
-2.12932
-2.07539
-2.03484
-2.00745
-1.99306
-1.9915
-2.00263
-2.02632
-2.06242
-2.11082
-2.17146
-3.74297
-3.55536
-3.38153
-3.22228
-3.07812
-2.94905
-2.83501
-2.73579
-2.65119
-2.58098
-2.52496
-2.48291
-2.45466
-2.44004
-2.43888
-2.45102
-2.47634
-2.51468
-2.56589
-2.62996
-4.2784
-4.08456
-3.90474
-3.73969
-3.58992
-3.45558
-3.33669
-3.23314
-3.14478
-3.07144
-3.01292
-2.96904
-2.93964
-2.92454
-2.92358
-2.9366
-2.96346
-3.004
-3.05808
-3.12564
-4.86701
-4.66552
-4.47846
-4.30654
-4.15025
-4.00983
-3.88536
-3.7768
-3.68406
-3.607
-3.54547
-3.4993
-3.46833
-3.4524
-3.45134
-3.465
-3.49323
-3.53586
-3.59273
-3.66383
-5.51896
-5.30823
-5.11252
-4.93245
-4.7685
-4.62096
-4.48996
-4.37552
-4.27759
-4.19607
-4.13084
-4.08175
-4.04864
-4.03137
-4.02978
-4.04371
-4.07301
-4.11749
-4.17699
-4.25154
-6.24797
-6.02622
-5.82018
-5.6304
-5.45738
-5.30141
-5.16266
-5.0412
-4.93703
-4.85006
-4.78021
-4.72735
-4.69134
-4.67204
-4.66928
-4.68293
-4.71281
-4.75873
-4.82053
-4.89826
-7.07279
-6.83787
-6.61949
-6.41812
-6.23425
-6.06819
-5.92014
-5.7902
-5.6784
-5.5847
-5.50903
-5.45127
-5.4113
-5.38899
-5.38419
-5.39674
-5.42648
-5.47319
-5.53673
-5.61716
-8.01913
-7.76852
-7.53535
-7.32005
-7.12312
-6.94487
-6.78554
-6.64525
-6.52404
-6.42192
-6.33882
-6.27466
-6.22933
-6.20269
-6.19459
-6.2049
-6.23344
-6.27998
-6.34435
-6.4267
-9.12254
-8.85316
-8.60222
-8.37012
-8.15736
-7.9643
-7.79117
-7.63812
-7.50522
-7.39249
-7.29989
-7.22734
-7.17475
-7.14199
-7.12892
-7.1354
-7.16123
-7.20619
-7.27008
-7.35311
-10.4333
-10.1414
-9.8691
-9.61666
-9.3847
-9.17355
-8.98347
-8.81465
-8.66715
-8.54102
-8.43623
-8.35271
-8.29039
-8.24913
-8.22881
-8.22929
-8.25036
-8.29176
-8.35329
-8.4352
-12.0251
-11.7063
-11.4083
-11.1313
-10.8761
-10.6429
-10.4321
-10.2438
-10.0781
-9.93512
-9.81477
-9.71702
-9.6418
-9.58898
-9.55845
-9.55006
-9.56361
-9.5988
-9.65541
-9.7337
-13.9871
-13.6367
-13.3082
-13.0022
-12.7193
-12.4598
-12.2241
-12.0123
-11.8245
-11.6608
-11.5212
-11.4055
-11.3139
-11.246
-11.2019
-11.1814
-11.1843
-11.2104
-11.2593
-11.331
-16.3809
-15.9949
-15.6319
-15.2929
-14.9784
-14.689
-14.4249
-14.1862
-13.9729
-13.7852
-13.623
-13.4863
-13.375
-13.2891
-13.2285
-13.1931
-13.1827
-13.1971
-13.2361
-13.2987
-19.5174
-19.0917
-18.6897
-18.3141
-17.9652
-17.6431
-17.3476
-17.0789
-16.8369
-16.6215
-16.4329
-16.271
-16.1358
-16.0271
-15.945
-15.8892
-15.8598
-15.8569
-15.8805
-15.9284
-24.8542
-24.3834
-23.947
-23.5419
-23.1661
-22.8185
-22.4988
-22.2068
-21.9424
-21.7057
-21.4967
-21.3155
-21.162
-21.0366
-20.9391
-20.8697
-20.8291
-20.8195
-20.8424
-20.8875
-0.377001
-0.443447
-0.519535
-0.605185
-0.700312
-0.80481
-0.918549
-1.04137
-1.17305
-1.31332
-1.46181
-1.618
-1.78108
-1.94984
-2.12261
-2.29712
-2.46889
-2.62813
-2.75945
-2.88927
-0.698453
-0.767177
-0.845907
-0.93453
-1.03294
-1.14102
-1.25861
-1.38552
-1.52152
-1.66629
-1.81944
-1.98041
-2.14841
-2.3223
-2.50044
-2.68121
-2.86281
-3.03753
-3.19015
-3.36245
-1.04498
-1.11755
-1.2005
-1.29369
-1.39701
-1.51031
-1.63341
-1.76611
-1.90816
-2.05921
-2.21884
-2.3865
-2.56143
-2.7426
-2.92867
-3.11843
-3.31092
-3.50176
-3.68523
-3.89126
-1.41638
-1.49281
-1.58003
-1.67789
-1.78626
-1.90498
-2.03384
-2.17263
-2.32106
-2.47879
-2.64537
-2.82026
-3.00274
-3.19191
-3.3867
-3.58623
-3.78971
-3.99481
-4.20205
-4.43179
-1.81526
-1.8957
-1.98739
-2.09017
-2.20389
-2.32836
-2.46337
-2.60869
-2.76401
-2.92898
-3.10316
-3.28601
-3.47689
-3.67501
-3.87957
-4.08994
-4.30551
-4.52525
-4.75179
-4.9983
-2.24439
-2.32912
-2.42562
-2.5337
-2.65319
-2.7839
-2.92562
-3.07807
-3.24096
-3.41392
-3.59652
-3.78828
-3.98859
-4.19681
-4.41233
-4.63471
-4.86359
-5.09872
-5.34287
-5.60389
-2.70692
-2.79618
-2.8978
-3.01155
-3.13727
-3.27473
-3.4237
-3.58393
-3.7551
-3.93685
-4.12879
-4.33043
-4.54127
-4.76076
-4.98844
-5.224
-5.46724
-5.71837
-5.9796
-6.25537
-3.20666
-3.3008
-3.40784
-3.52762
-3.65997
-3.80466
-3.96146
-4.13011
-4.31029
-4.50166
-4.70383
-4.91638
-5.13884
-5.37078
-5.6118
-5.86169
-6.12036
-6.38813
-6.66658
-6.95817
-3.74915
-3.84819
-3.96087
-4.08697
-4.22631
-4.37869
-4.54386
-4.72154
-4.91145
-5.11324
-5.32656
-5.551
-5.78617
-6.03168
-6.28722
-6.5526
-6.82777
-7.11302
-7.40934
-7.71811
-4.34112
-4.44512
-4.56362
-4.69622
-4.84285
-5.00329
-5.17729
-5.36458
-5.56486
-5.77782
-6.00313
-6.24041
-6.48931
-6.74948
-7.02066
-7.30266
-7.59542
-7.89911
-8.21429
-8.54176
-4.99195
-5.10084
-5.22497
-5.36428
-5.51836
-5.68711
-5.87029
-6.06761
-6.27881
-6.50358
-6.74161
-6.99256
-7.2561
-7.53192
-7.81976
-8.11944
-8.43086
-8.75404
-9.08924
-9.43693
-5.71456
-5.82805
-5.9577
-6.10336
-6.26492
-6.44202
-6.63451
-6.84213
-7.06459
-7.30161
-7.55291
-7.81818
-8.0971
-8.38938
-8.69477
-9.01307
-9.34412
-9.68782
-10.0442
-10.4135
-6.5271
-6.64454
-6.7792
-6.93082
-7.0993
-7.28474
-7.48646
-7.70423
-7.93798
-8.18742
-8.45228
-8.73224
-9.02701
-9.33631
-9.65988
-9.99751
-10.349
-10.714
-11.0926
-11.4849
-7.4554
-7.57571
-7.71441
-7.87122
-8.04591
-8.23848
-8.44971
-8.67684
-8.92151
-9.18307
-9.4613
-9.7559
-10.0666
-10.3931
-10.7352
-11.0925
-11.4649
-11.8519
-12.2533
-12.6694
-8.53765
-8.65915
-8.80027
-8.96079
-9.14055
-9.33908
-9.55589
-9.79325
-10.0486
-10.3213
-10.6121
-10.9208
-11.2471
-11.5906
-11.9509
-12.3279
-12.7211
-13.1301
-13.5547
-13.995
-9.83379
-9.95393
-10.095
-10.257
-10.4396
-10.6426
-10.8655
-11.1083
-11.3712
-11.6547
-11.9574
-12.2795
-12.6205
-12.9799
-13.3572
-13.7526
-14.1658
-14.5963
-15.0434
-15.5074
-11.4254
-11.541
-11.6792
-11.8399
-12.0227
-12.2274
-12.4538
-12.7016
-12.9707
-13.2613
-13.5741
-13.9079
-14.2609
-14.6324
-15.0235
-15.4349
-15.8661
-16.3163
-16.7843
-17.2702
-13.3833
-13.4913
-13.6235
-13.7796
-13.9583
-14.16
-14.3849
-14.6329
-14.9036
-15.1965
-15.511
-15.8474
-16.2073
-16.5913
-16.9976
-17.4249
-17.8728
-18.3409
-18.8283
-19.334
-15.9986
-16.0905
-16.2065
-16.348
-16.5163
-16.7106
-16.9303
-17.1748
-17.4438
-17.7369
-18.0536
-18.3936
-18.757
-19.1444
-19.5557
-19.9903
-20.4479
-20.9294
-21.4345
-21.9583
-20.9293
-21.0017
-21.1049
-21.2368
-21.3962
-21.5823
-21.7947
-22.033
-22.2968
-22.5859
-22.8999
-23.2389
-23.6031
-23.9926
-24.4076
-24.848
-25.3151
-25.8126
-26.343
-26.8887
-27.4055
-22.4929
-19.8576
-17.7742
-15.9882
-14.451
-13.1002
-11.8909
-10.7958
-9.79702
-8.88141
-8.03929
-7.26303
-6.5464
-5.88423
-5.27197
-4.70438
-4.17587
-3.69493
-3.29053
-27.9501
-23.0436
-20.3968
-18.2931
-16.4834
-14.9205
-13.5436
-12.3088
-11.1895
-10.168
-9.2316
-8.37077
-7.57802
-6.84727
-6.17349
-5.55225
-4.97882
-4.45081
-3.98137
-3.57888
-28.5233
-23.6132
-20.9532
-18.8282
-16.9933
-15.4036
-13.9996
-12.7383
-11.5939
-10.5491
-9.59138
-8.71135
-7.90161
-7.1561
-6.46976
-5.83807
-5.25642
-4.72252
-4.24594
-3.82395
-29.1209
-24.2024
-21.5269
-19.379
-17.5174
-15.8995
-14.4673
-13.1787
-12.0083
-10.9394
-9.95965
-9.0597
-8.23211
-7.47074
-6.7703
-6.12602
-5.53302
-4.98836
-4.49878
-4.05805
-29.7398
-24.8105
-22.1171
-19.945
-18.0551
-16.4077
-14.9461
-13.6291
-12.4319
-11.3381
-10.3356
-9.41494
-8.56872
-7.79057
-7.07498
-6.41686
-5.81103
-5.25397
-4.75059
-4.29372
-30.3784
-25.438
-22.722
-20.5252
-18.6057
-16.9274
-15.4353
-14.0889
-12.864
-11.7445
-10.7184
-9.77641
-8.91086
-8.11523
-7.38375
-6.71106
-6.09176
-5.52197
-5.00532
-4.53436
-31.0357
-26.0834
-23.3413
-21.1186
-19.1683
-17.4578
-15.934
-14.5572
-13.3038
-12.1578
-11.1076
-10.1436
-9.25821
-8.44461
-7.69684
-7.0093
-6.37642
-5.7941
-5.26487
-4.78123
-31.7103
-26.7447
-23.9746
-21.7244
-19.742
-17.998
-16.4415
-15.0334
-13.7506
-12.5775
-11.5025
-10.5161
-9.61046
-8.7786
-8.01433
-7.31185
-6.66547
-6.0709
-5.52966
-5.03425
-32.4008
-27.4204
-24.6213
-22.3417
-20.3259
-18.5473
-16.9569
-15.5166
-14.2037
-13.0029
-11.9027
-10.8935
-9.96727
-9.11696
-8.33611
-7.61871
-6.95895
-6.35236
-5.79952
-5.29293
-33.106
-28.1094
-25.2802
-22.9697
-20.919
-19.1048
-17.4795
-16.0061
-14.6624
-13.4334
-12.3075
-11.2752
-10.3282
-9.45935
-8.66188
-7.9296
-7.25658
-6.63813
-6.07394
-5.55654
-33.8248
-28.8106
-25.9503
-23.6073
-21.5205
-19.6694
-18.0084
-16.5011
-15.126
-13.8683
-12.7164
-11.6607
-10.6928
-9.80531
-8.99121
-8.2441
-7.55789
-6.92767
-6.35228
-5.82428
-34.5559
-29.5228
-26.6305
-24.2536
-22.1294
-20.2403
-18.5426
-17.0008
-15.5937
-14.3068
-13.1286
-12.0494
-11.0605
-10.1543
-9.32359
-8.56167
-7.86231
-7.22035
-6.63382
-6.09537
-35.2982
-30.2449
-27.3196
-24.9073
-22.7445
-20.8165
-19.0813
-17.5042
-16.0646
-14.7482
-13.5435
-12.4406
-11.4307
-10.5058
-9.65841
-8.88171
-8.1692
-7.5155
-6.91785
-6.36904
-36.0507
-30.9758
-28.0164
-25.5673
-23.3648
-21.397
-19.6235
-18.0105
-16.538
-15.1918
-13.9604
-12.8337
-11.8026
-10.859
-9.99503
-9.20356
-8.47792
-7.81246
-7.20365
-6.64456
-36.8123
-31.7141
-28.7196
-26.2326
-23.9892
-21.9806
-20.1681
-18.5188
-17.013
-15.6368
-14.3785
-13.2279
-12.1757
-11.2133
-10.3328
-9.52657
-8.7878
-8.11053
-7.49056
-6.92125
-37.5816
-32.4586
-29.428
-26.9018
-24.6166
-22.5663
-20.7141
-19.028
-17.4887
-16.0822
-14.7969
-13.6225
-12.5492
-11.5681
-10.671
-9.85009
-9.09819
-8.40908
-7.77791
-7.19845
-38.3584
-33.2082
-30.1402
-27.5737
-25.2456
-23.1529
-21.2606
-19.5372
-17.964
-16.5273
-15.215
-14.0167
-12.9223
-11.9227
-11.0091
-10.1734
-9.40844
-8.70748
-8.06507
-7.47556
-39.1438
-33.9623
-30.8547
-28.2466
-25.8748
-23.7391
-21.8061
-20.0453
-18.4382
-16.971
-15.6318
-14.4097
-13.2944
-12.2762
-11.3462
-10.496
-9.7179
-9.00508
-8.35146
-7.75203
-39.9382
-34.7198
-31.5697
-28.9189
-26.5029
-24.3237
-22.3498
-20.5513
-18.9101
-17.4126
-16.0466
-14.8008
-13.6646
-12.6281
-11.6818
-10.817
-10.026
-9.30131
-8.6365
-8.02732
-40.7289
-35.4755
-32.2834
-29.5896
-27.1291
-24.9063
-22.8911
-21.0548
-19.3796
-17.8518
-16.459
-15.1896
-14.0327
-12.9778
-12.0154
-11.1362
-10.3322
-9.59569
-8.91973
-8.301
-6.77983
-4.674
-3.31392
-2.26851
-1.53407
-0.994647
-0.607189
-0.332112
-0.1411
-0.0124136
0.0705687
0.120477
0.146893
0.156973
0.156029
0.147933
0.135497
0.120721
0.105015
0.0893442
0.0743545
0.0604565
0.0478866
0.0367647
0.0271119
0.0189081
0.0120597
0.00650212
0.00206562
-0.00127906
-0.0037951
-0.00537469
-0.00646601
-0.00665754
-0.0067854
-0.00585178
-0.00543781
-0.0035114
-0.0029621
3.58454e-05
-7.03549
-4.85637
-3.46017
-2.38367
-1.62511
-1.06828
-0.667255
-0.381733
-0.182478
-0.0471687
0.0412347
0.0956427
0.125839
0.139122
0.140908
0.135145
0.12471
0.111645
0.0974082
0.0829908
0.0690705
0.0560848
0.0442856
0.0338148