/*--------------------------------*- C++ -*----------------------------------*\
  =========                 |
  \\      /  F ield         | OpenFOAM: The Open Source CFD Toolbox
   \\    /   O peration     | Website:  https://openfoam.org
    \\  /    A nd           | Version:  6.0
     \\/     M anipulation  |
\*---------------------------------------------------------------------------*/
FoamFile
{
    version     2.0;
    format      ascii;
    class       volScalarField;
    location    "5.7505";
    object      p;
}
// * * * * * * * * * * * * * * * * * * * * * * * * * * * * * * * * * * * * * //

dimensions      [0 2 -2 0 0 0 0];

internalField   nonuniform List<scalar> 
19200
(
-8.34668
-7.46624
-6.85363
-6.36849
-5.93574
-5.55085
-5.20686
-4.89569
-4.61164
-4.35057
-4.10929
-3.88529
-3.67658
-3.48157
-3.29892
-3.12754
-2.96651
-2.81502
-2.67238
-2.53797
-2.41125
-2.29171
-2.17892
-2.07249
-1.97204
-1.87724
-1.78776
-1.70333
-1.6236
-1.54861
-8.50999
-7.62927
-7.01468
-6.52631
-6.08964
-5.7004
-5.35178
-5.03585
-4.74697
-4.4811
-4.23509
-4.00646
-3.79326
-3.5939
-3.40708
-3.23171
-3.06686
-2.91175
-2.76566
-2.62799
-2.49817
-2.37571
-2.26016
-2.15112
-2.04821
-1.95109
-1.85943
-1.77291
-1.69113
-1.61454
-8.67689
-7.79435
-7.17725
-6.68547
-6.24475
-5.85104
-5.4977
-5.17689
-4.8831
-4.61234
-4.3615
-4.12816
-3.91039
-3.70662
-3.51557
-3.33615
-3.16745
-3.00867
-2.8591
-2.71814
-2.5852
-2.4598
-2.34148
-2.22982
-2.12444
-2.02498
-1.93113
-1.84251
-1.75867
-1.6805
-8.84577
-7.96112
-7.34122
-6.84586
-6.40096
-6.00266
-5.64448
-5.31871
-5.01991
-4.74416
-4.48841
-4.25029
-4.02788
-3.81964
-3.6243
-3.44078
-3.26818
-3.1057
-2.95262
-2.80834
-2.67227
-2.54391
-2.42279
-2.3085
-2.20064
-2.09885
-2.00281
-1.91208
-1.82617
-1.74643
-9.01626
-8.12936
-7.50647
-7.00738
-6.55816
-6.15516
-5.79203
-5.46119
-5.15728
-4.87645
-4.61572
-4.37273
-4.14561
-3.93284
-3.73316
-3.5455
-3.36896
-3.20274
-3.04613
-2.89851
-2.75929
-2.62796
-2.50404
-2.38711
-2.27677
-2.17264
-2.0744
-1.98156
-1.89359
-1.8123
-9.18811
-8.29889
-7.67285
-7.1699
-6.71624
-6.30841
-5.94023
-5.60421
-5.2951
-5.0091
-4.7433
-4.49537
-4.26348
-4.04612
-3.84205
-3.65021
-3.4697
-3.29971
-3.13955
-2.98857
-2.84619
-2.71188
-2.58516
-2.46558
-2.35275
-2.24629
-2.14586
-2.0509
-1.96087
-1.87804
-9.36112
-8.46951
-7.84023
-7.33329
-6.87507
-6.46231
-6.08896
-5.74766
-5.43325
-5.142
-4.87105
-4.61812
-4.38139
-4.15938
-3.95087
-3.75481
-3.5703
-3.39652
-3.23278
-3.07843
-2.93288
-2.79559
-2.66606
-2.54385
-2.42853
-2.31974
-2.21712
-2.12006
-2.02796
-1.94363
-9.5351
-8.64106
-8.00845
-7.49742
-7.03453
-6.61672
-6.2381
-5.89143
-5.57162
-5.27504
-4.99885
-4.74084
-4.49922
-4.27252
-4.05953
-3.85921
-3.67066
-3.49308
-3.32574
-3.16801
-3.01929
-2.87901
-2.74669
-2.62184
-2.50405
-2.39294
-2.28813
-2.18897
-2.09481
-2.009
-9.7099
-8.81339
-8.17736
-7.66214
-7.19448
-6.77151
-6.38753
-6.03538
-5.71008
-5.40808
-5.12659
-4.86344
-4.61686
-4.38542
-4.16791
-3.9633
-3.77069
-3.58928
-3.41835
-3.25724
-3.10533
-2.96209
-2.82697
-2.6995
-2.57924
-2.46581
-2.35883
-2.25758
-2.16139
-2.07412
-9.88535
-8.98633
-8.34682
-7.82731
-7.35477
-6.92656
-6.5371
-6.17938
-5.84852
-5.54101
-5.25415
-4.98579
-4.7342
-4.49797
-4.27591
-4.06698
-3.8703
-3.68505
-3.51051
-3.34601
-3.19094
-3.04472
-2.90682
-2.77674
-2.65403
-2.5383
-2.42916
-2.32584
-2.22762
-2.13894
-10.0613
-9.15975
-8.51668
-7.99279
-7.51529
-7.08172
-6.68669
-6.32331
-5.98679
-5.6737
-5.3814
-5.10777
-4.85113
-4.61007
-4.38342
-4.17015
-3.96938
-3.78028
-3.60213
-3.43425
-3.27602
-3.12684
-2.98617
-2.8535
-2.72836
-2.61035
-2.49907
-2.39369
-2.29347
-2.20341
-10.2376
-9.33347
-8.68678
-8.15844
-7.67587
-7.23686
-6.83617
-6.46704
-6.12477
-5.80603
-5.50822
-5.22927
-4.96752
-4.7216
-4.49033
-4.27271
-4.06783
-3.87488
-3.69312
-3.52187
-3.36048
-3.20836
-3.06494
-2.9297
-2.80215
-2.68189
-2.56849
-2.46107
-2.35887
-2.26747
-10.4141
-9.50737
-8.85699
-8.3241
-7.83638
-7.39183
-6.98539
-6.61042
-6.26233
-5.93787
-5.63449
-5.35016
-5.08327
-4.83245
-4.59654
-4.37454
-4.16555
-3.96875
-3.78339
-3.60877
-3.44424
-3.28919
-3.14305
-3.00526
-2.87533
-2.75284
-2.63736
-2.52793
-2.42376
-2.33106
-10.5906
-9.68127
-9.02715
-8.48964
-7.99668
-7.54649
-7.13421
-6.75332
-6.39934
-6.06909
-5.76007
-5.47033
-5.19825
-4.9425
-4.70194
-4.47555
-4.26244
-4.06179
-3.87283
-3.69486
-3.52721
-3.36926
-3.22041
-3.08011
-2.94783
-2.82314
-2.7056
-2.59418
-2.48808
-2.39412
-10.7671
-9.85504
-9.19711
-8.65491
-8.15661
-7.70071
-7.2825
-6.89561
-6.53566
-6.19955
-5.88485
-5.58964
-5.31235
-5.05164
-4.8064
-4.57562
-4.35839
-4.15389
-3.96135
-3.78004
-3.60929
-3.44846
-3.29694
-3.15414
-3.01955
-2.8927
-2.77313
-2.65976
-2.55175
-2.45659
-10.9432
-10.0285
-9.36673
-8.81975
-8.31605
-7.85434
-7.43011
-7.03714
-6.67116
-6.32913
-6.0087
-5.70798
-5.42544
-5.15976
-4.90982
-4.67464
-4.4533
-4.24496
-4.04885
-3.86422
-3.6904
-3.52671
-3.37254
-3.22729
-3.09041
-2.96144
-2.83989
-2.72459
-2.61468
-2.51835
-11.119
-10.2016
-9.53586
-8.98403
-8.47483
-8.00723
-7.57691
-7.17779
-6.8057
-6.4577
-6.13149
-5.82523
-5.5374
-5.26673
-5.0121
-4.77251
-4.54705
-4.33489
-4.13522
-3.9473
-3.77042
-3.60391
-3.44712
-3.29945
-3.16032
-3.02926
-2.90576
-2.78859
-2.67682
-2.57937
-11.2942
-10.3741
-9.70436
-9.1476
-8.63282
-8.15925
-7.72275
-7.3174
-6.93915
-6.58512
-6.25309
-5.94125
-5.64813
-5.37245
-5.11311
-4.86912
-4.63956
-4.42358
-4.22037
-4.02917
-3.84926
-3.67995
-3.52057
-3.3705
-3.22916
-3.09605
-2.97064
-2.85163
-2.73806
-2.63955
-11.4688
-10.5458
-9.87209
-9.31032
-8.78987
-8.31024
-7.8675
-7.45585
-7.07137
-6.71127
-6.37338
-6.05595
-5.7575
-5.47681
-5.21276
-4.96437
-4.73071
-4.51092
-4.30419
-4.10973
-3.92681
-3.75472
-3.59278
-3.44035
-3.29682
-3.16169
-3.03442
-2.91361
-2.79826
-2.69875
-11.6425
-10.7168
-10.0389
-9.47204
-8.94584
-8.46007
-8.011
-7.593
-7.20224
-6.83603
-6.49225
-6.16918
-5.86541
-5.57969
-5.31094
-5.05815
-4.82041
-4.59683
-4.38658
-4.18889
-4.00297
-3.82813
-3.66365
-3.50887
-3.36318
-3.22606
-3.09696
-2.97438
-2.85728
-2.75681
-11.8153
-10.8867
-10.2047
-9.63262
-9.10057
-8.60858
-8.15312
-7.7287
-7.33162
-6.95925
-6.60956
-6.28085
-5.97174
-5.681
-5.40755
-5.15038
-4.90856
-4.6812
-4.46746
-4.26654
-4.07765
-3.90005
-3.73304
-3.57594
-3.4281
-3.28902
-3.1581
-3.03377
-2.91494
-2.81355
-11.987
-11.0556
-10.3692
-9.79191
-9.25393
-8.75564
-8.29372
-7.86283
-7.45937
-7.08083
-6.7252
-6.39085
-6.0764
-5.78064
-5.5025
-5.24096
-4.99508
-4.76396
-4.54674
-4.3426
-4.15074
-3.97041
-3.80087
-3.64144
-3.49146
-3.3504
-3.21767
-3.0916
-2.97102
-2.86872
-12.1577
-11.2232
-10.5325
-9.94977
-9.40576
-8.90109
-8.43265
-7.99524
-7.58538
-7.20063
-6.83906
-6.49906
-6.17927
-5.87852
-5.5957
-5.32981
-5.07989
-4.84502
-4.62434
-4.41699
-4.22217
-4.03909
-3.86703
-3.70525
-3.5531
-3.41005
-3.27548
-3.14766
-3.02528
-2.92203
-12.3272
-11.3895
-10.6943
-10.106
-9.55591
-9.04479
-8.56976
-8.1258
-7.70951
-7.31855
-6.95103
-6.60538
-6.28028
-5.97455
-5.68708
-5.41686
-5.16293
-4.92434
-4.70021
-4.48966
-4.29188
-4.10605
-3.93143
-3.76728
-3.61293
-3.46782
-3.33136
-3.2017
-3.07742
-2.97315
-12.4955
-11.5544
-10.8544
-10.2606
-9.7042
-9.18656
-8.70491
-8.25436
-7.83163
-7.43446
-7.061
-6.70973
-6.37934
-6.06865
-5.77657
-5.50207
-5.24415
-5.00187
-4.77431
-4.56059
-4.35984
-4.17126
-3.99405
-3.82748
-3.67084
-3.52359
-3.38512
-3.25348
-3.12711
-3.02168
-12.6628
-11.7178
-11.0128
-10.4131
-9.85046
-9.32624
-8.83793
-8.38078
-7.95162
-7.54824
-7.16887
-6.81201
-6.47637
-6.16077
-5.86412
-5.58537
-5.32352
-5.07759
-4.84664
-4.62976
-4.42607
-4.23471
-4.0549
-3.88584
-3.72684
-3.57732
-3.43667
-3.30285
-3.17408
-3.06704
-12.8292
-11.8793
-11.1691
-10.5636
-9.99448
-9.46364
-8.96867
-8.50493
-8.06934
-7.65979
-7.27454
-6.91213
-6.57129
-6.25084
-5.94969
-5.66676
-5.40103
-5.15151
-4.91722
-4.69723
-4.49061
-4.29651
-4.11407
-3.94249
-3.78103
-3.6291
-3.48611
-3.34986
-3.21816
-3.10859
-12.9957
-12.0393
-11.3232
-10.7115
-10.136
-9.59854
-9.09692
-8.62661
-8.18465
-7.76896
-7.37789
-7.01
-6.66403
-6.3388
-6.03321
-5.74618
-5.47666
-5.22363
-4.98608
-4.76304
-4.55357
-4.35676
-4.17172
-3.9976
-3.83361
-3.67914
-3.53357
-3.39444
-3.25882
-3.146
-13.1638
-12.1975
-11.4743
-10.8565
-10.2747
-9.73069
-9.2225
-8.74569
-8.2974
-7.87565
-7.47882
-7.10552
-6.75449
-6.42458
-6.11464
-5.82361
-5.55039
-5.29395
-5.05325
-4.82728
-4.61508
-4.41567
-4.22814
-4.05156
-3.88505
-3.72789
-3.57919
-3.43592
-3.29486
-3.17898
-13.3257
-12.3507
-11.6216
-10.9983
-10.4104
-9.86012
-9.34545
-8.86222
-8.40766
-7.97991
-7.57739
-7.19875
-6.84275
-6.50823
-6.19405
-5.8991
-5.6223
-5.36257
-5.11884
-4.8901
-4.67533
-4.47356
-4.28382
-4.10516
-3.93667
-3.77742
-3.62597
-3.47913
-3.33518
-3.21488
-16.0104
-15.9956
-15.9717
-15.9438
-15.9112
-15.8731
-15.8294
-15.78
-15.725
-15.6645
-15.5983
-15.5267
-15.4497
-15.3674
-15.28
-15.1875
-15.0901
-14.988
-14.8812
-14.77
-14.6544
-14.5347
-14.411
-14.2835
-14.1524
-14.018
-13.8805
-13.7403
-13.598
-13.4564
-14.9741
-14.9641
-14.946
-14.922
-14.8922
-14.8565
-14.815
-14.7677
-14.7148
-14.6563
-14.5923
-14.5228
-14.448
-14.368
-14.2829
-14.1928
-14.0978
-13.9982
-13.8939
-13.7852
-13.6723
-13.5552
-13.4342
-13.3094
-13.181
-13.0493
-12.9144
-12.7766
-12.6363
-12.4939
-14.1349
-14.1285
-14.1148
-14.0947
-14.0685
-14.0363
-13.9983
-13.9545
-13.9051
-13.8502
-13.7897
-13.7239
-13.6529
-13.5767
-13.4954
-13.4092
-13.3182
-13.2226
-13.1224
-13.0178
-12.9089
-12.796
-12.6791
-12.5585
-12.4343
-12.3066
-12.1756
-12.0416
-11.9046
-11.7647
-13.3732
-13.37
-13.3602
-13.3441
-13.3219
-13.2938
-13.2599
-13.2203
-13.1752
-13.1246
-13.0687
-13.0074
-12.941
-12.8694
-12.7929
-12.7116
-12.6255
-12.5348
-12.4396
-12.3401
-12.2363
-12.1285
-12.0168
-11.9013
-11.7822
-11.6596
-11.5337
-11.4045
-11.2722
-11.1369
-12.6339
-12.6338
-12.6277
-12.6154
-12.5973
-12.5734
-12.5438
-12.5087
-12.4682
-12.4223
-12.3711
-12.3147
-12.2532
-12.1868
-12.1155
-12.0394
-11.9587
-11.8734
-11.7838
-11.6898
-11.5918
-11.4896
-11.3837
-11.2739
-11.1605
-11.0437
-10.9234
-10.7999
-10.6732
-10.5435
-11.9287
-11.9316
-11.9288
-11.9202
-11.9059
-11.886
-11.8606
-11.8298
-11.7938
-11.7525
-11.7061
-11.6546
-11.5982
-11.5369
-11.4709
-11.4002
-11.325
-11.2454
-11.1614
-11.0733
-10.981
-10.8848
-10.7848
-10.681
-10.5737
-10.4629
-10.3487
-10.2313
-10.1107
-9.98698
-11.2625
-11.2681
-11.2682
-11.2628
-11.2519
-11.2357
-11.2142
-11.1874
-11.1556
-11.1188
-11.0769
-11.0301
-10.9786
-10.9223
-10.8614
-10.796
-10.7262
-10.6521
-10.5738
-10.4913
-10.4049
-10.3146
-10.2206
-10.1228
-10.0216
-9.91693
-9.80893
-9.6977
-9.58333
-9.46593
-10.6357
-10.6434
-10.6461
-10.6434
-10.6355
-10.6225
-10.6044
-10.5813
-10.5533
-10.5205
-10.4828
-10.4404
-10.3934
-10.3418
-10.2858
-10.2254
-10.1607
-10.0918
-10.0189
-9.94194
-9.86114
-9.77655
-9.6883
-9.59648
-9.5012
-9.40256
-9.30066
-9.19559
-9.08744
-8.97632
-10.0482
-10.0577
-10.0624
-10.062
-10.0566
-10.0463
-10.0311
-10.0112
-9.98661
-9.9573
-9.92336
-9.88489
-9.84199
-9.7947
-9.74312
-9.68733
-9.62741
-9.56346
-9.49555
-9.4238
-9.34829
-9.26912
-9.18639
-9.10019
-9.01063
-8.91779
-8.82177
-8.72267
-8.62056
-8.51556
-9.49966
-9.51046
-9.51664
-9.51804
-9.51469
-9.50663
-9.49396
-9.47675
-9.45503
-9.4288
-9.39814
-9.36316
-9.32391
-9.28046
-9.23289
-9.18127
-9.12568
-9.06621
-9.00295
-8.93597
-8.86537
-8.79124
-8.71367
-8.63274
-8.54856
-8.4612
-8.37077
-8.27734
-8.181
-8.08186
-8.98886
-9.00057
-9.00789
-9.01065
-9.00888
-9.00263
-8.99198
-8.97701
-8.95773
-8.93412
-8.90628
-8.87431
-8.83826
-8.79819
-8.75417
-8.70627
-8.65458
-8.59915
-8.54009
-8.47746
-8.41135
-8.34184
-8.26902
-8.19298
-8.1138
-8.03155
-7.94634
-7.85824
-7.76734
-7.67372
-8.51428
-8.52655
-8.53463
-8.53837
-8.53779
-8.53294
-8.5239
-8.51075
-8.49346
-8.47205
-8.44661
-8.41721
-8.38392
-8.34679
-8.30588
-8.26127
-8.21301
-8.1612
-8.1059
-8.04718
-7.98513
-7.91982
-7.85134
-7.77976
-7.70517
-7.62765
-7.54727
-7.46412
-7.37827
-7.28982
-8.074
-8.08653
-8.09506
-8.09946
-8.09973
-8.09593
-8.08814
-8.07642
-8.06076
-8.04116
-8.01771
-7.99049
-7.95955
-7.92495
-7.88674
-7.84499
-7.79976
-7.75113
-7.69917
-7.64395
-7.58554
-7.52401
-7.45945
-7.39193
-7.32152
-7.24831
-7.17237
-7.09377
-7.0126
-6.92893
-7.66594
-7.67849
-7.68721
-7.69198
-7.69281
-7.68976
-7.68291
-7.67232
-7.65794
-7.63981
-7.61801
-7.59261
-7.56366
-7.53121
-7.49532
-7.45605
-7.41347
-7.36763
-7.31862
-7.26649
-7.21132
-7.15318
-7.09214
-7.02828
-6.96166
-6.89237
-6.82047
-6.74604
-6.66915
-6.5899
-7.28789
-7.30026
-7.30896
-7.31389
-7.31505
-7.3125
-7.30634
-7.29659
-7.28322
-7.26626
-7.24581
-7.22192
-7.19464
-7.16401
-7.13011
-7.09298
-7.05268
-7.00929
-6.96287
-6.91347
-6.86118
-6.80605
-6.74816
-6.68758
-6.62438
-6.55863
-6.49039
-6.41976
-6.34679
-6.27157
-6.93763
-6.94967
-6.9582
-6.96311
-6.96441
-6.96217
-6.95649
-6.94736
-6.93475
-6.91872
-6.89936
-6.87671
-6.85082
-6.82174
-6.78952
-6.75423
-6.71592
-6.67466
-6.6305
-6.58351
-6.53376
-6.48131
-6.42623
-6.36858
-6.30844
-6.24588
-6.18096
-6.11376
-6.04435
-5.97282
-6.61299
-6.6246
-6.63283
-6.63759
-6.63888
-6.63679
-6.63142
-6.62272
-6.61069
-6.59539
-6.5769
-6.55527
-6.53054
-6.50275
-6.47198
-6.43826
-6.40167
-6.36225
-6.32007
-6.2752
-6.22769
-6.17762
-6.12503
-6.07001
-6.01262
-5.95292
-5.89099
-5.8269
-5.76072
-5.69254
-6.31188
-6.32298
-6.33082
-6.33533
-6.33651
-6.33445
-6.32925
-6.32085
-6.30923
-6.29449
-6.27671
-6.25591
-6.23213
-6.20545
-6.17589
-6.14353
-6.10842
-6.07061
-6.03017
-5.98716
-5.94163
-5.89366
-5.8433
-5.79062
-5.73568
-5.67855
-5.61931
-5.55802
-5.49476
-5.42962
-6.03232
-6.04286
-6.05026
-6.05446
-6.05544
-6.05332
-6.04818
-6.03995
-6.02863
-6.01433
-5.99711
-5.97698
-5.95401
-5.92825
-5.89974
-5.86854
-5.83471
-5.79831
-5.75939
-5.71801
-5.67424
-5.62813
-5.57975
-5.52916
-5.47642
-5.4216
-5.36477
-5.306
-5.24538
-5.183
-5.77246
-5.78242
-5.78934
-5.79318
-5.79392
-5.79167
-5.78651
-5.77837
-5.76727
-5.7533
-5.73651
-5.71694
-5.69464
-5.66965
-5.64204
-5.61185
-5.57913
-5.54396
-5.50638
-5.46645
-5.42423
-5.37978
-5.33317
-5.28444
-5.23367
-5.18092
-5.12625
-5.06975
-5.01151
-4.95163
-5.53061
-5.53997
-5.5464
-5.54984
-5.5503
-5.54789
-5.54266
-5.53455
-5.52358
-5.50986
-5.49342
-5.47431
-5.45257
-5.42825
-5.4014
-5.37208
-5.34034
-5.30625
-5.26985
-5.2312
-5.19036
-5.1474
-5.10236
-5.05531
-5.00631
-4.95541
-4.90269
-4.84822
-4.79211
-4.73448
-5.30519
-5.31396
-5.3199
-5.32294
-5.3231
-5.32048
-5.31514
-5.30702
-5.29614
-5.2826
-5.26644
-5.24771
-5.22644
-5.20269
-5.17651
-5.14795
-5.11707
-5.08393
-5.04857
-5.01107
-4.97147
-4.92983
-4.88621
-4.84066
-4.79325
-4.74402
-4.69304
-4.6404
-4.58618
-4.53057
-5.09479
-5.10299
-5.10843
-5.11106
-5.11091
-5.10808
-5.10261
-5.09444
-5.0836
-5.0702
-5.05428
-5.03586
-5.01499
-4.99174
-4.96614
-4.93825
-4.90813
-4.87583
-4.84141
-4.80492
-4.76643
-4.72598
-4.68364
-4.63945
-4.59347
-4.54575
-4.49634
-4.44533
-4.39279
-4.33897
-4.89811
-4.90575
-4.91071
-4.91295
-4.91249
-4.90944
-4.90383
-4.89558
-4.88477
-4.87147
-4.85573
-4.83758
-4.81706
-4.79424
-4.76915
-4.74185
-4.71241
-4.68086
-4.64728
-4.61171
-4.57422
-4.53485
-4.49367
-4.45071
-4.40603
-4.35967
-4.31167
-4.26211
-4.21103
-4.15879
-4.71399
-4.72109
-4.72559
-4.72744
-4.72668
-4.72342
-4.71765
-4.70932
-4.69851
-4.6853
-4.66971
-4.65178
-4.63157
-4.60912
-4.58449
-4.55772
-4.52888
-4.49802
-4.46519
-4.43045
-4.39386
-4.35547
-4.31534
-4.27351
-4.23002
-4.18491
-4.13819
-4.08993
-4.0401
-3.98924
-4.54136
-4.54795
-4.55201
-4.55348
-4.55242
-4.54895
-4.54301
-4.53459
-4.52377
-4.51061
-4.49514
-4.47741
-4.45746
-4.43534
-4.41111
-4.38481
-4.35651
-4.32625
-4.2941
-4.26011
-4.22434
-4.18684
-4.14767
-4.10686
-4.06446
-4.02049
-3.97494
-3.92785
-3.87906
-3.82949
-4.37929
-4.38539
-4.38902
-4.39012
-4.38878
-4.38509
-4.37897
-4.37045
-4.35959
-4.34645
-4.33108
-4.3135
-4.29376
-4.27193
-4.24803
-4.22214
-4.1943
-4.16457
-4.13301
-4.09968
-4.06462
-4.02791
-3.98959
-3.9497
-3.90828
-3.86534
-3.82084
-3.77477
-3.72676
-3.67844
-4.22692
-4.23263
-4.23592
-4.23675
-4.23519
-4.23133
-4.22511
-4.21652
-4.20567
-4.1926
-4.17734
-4.15993
-4.14042
-4.11886
-4.09531
-4.0698
-4.04241
-4.01318
-3.98217
-3.94945
-3.91507
-3.87909
-3.84155
-3.80252
-3.76203
-3.72006
-3.67658
-3.63148
-3.58396
-3.53653
-4.08334
-4.08883
-4.09196
-4.09269
-4.0911
-4.08726
-4.08109
-4.07264
-4.06198
-4.04915
-4.03419
-4.01715
-3.99806
-3.97698
-3.95395
-3.92904
-3.9023
-3.87379
-3.84355
-3.81167
-3.77819
-3.74318
-3.70669
-3.66878
-3.6295
-3.58884
-3.54676
-3.50306
-3.45644
-3.41027
-3.94784
-3.95248
-3.95484
-3.95491
-3.95275
-3.94841
-3.94185
-3.93309
-3.92222
-3.90927
-3.89428
-3.87729
-3.85835
-3.83751
-3.81481
-3.79031
-3.76407
-3.73615
-3.7066
-3.67548
-3.64285
-3.60879
-3.57335
-3.53661
-3.49862
-3.45942
-3.41902
-3.37721
-3.33272
-3.29343
-13.4747
-13.6286
-13.7742
-13.9198
-14.0637
-14.2045
-14.3416
-14.4746
-14.6033
-14.7272
-14.8463
-14.9602
-15.0687
-15.1718
-15.2693
-15.3609
-15.4467
-15.5265
-15.6002
-15.6677
-15.729
-15.784
-15.8327
-15.875
-15.911
-15.9407
-15.9641
-15.9815
-15.9932
-16.0007
-12.4383
-12.5965
-12.7478
-12.8958
-13.0404
-13.181
-13.3175
-13.4498
-13.5776
-13.7007
-13.8189
-13.932
-14.0399
-14.1424
-14.2393
-14.3306
-14.4161
-14.4957
-14.5693
-14.6368
-14.6983
-14.7535
-14.8026
-14.8454
-14.8819
-14.9122
-14.9364
-14.9545
-14.9665
-14.9728
-11.589
-11.7467
-11.8992
-12.0473
-12.1914
-12.3314
-12.4672
-12.5987
-12.7257
-12.8481
-12.9658
-13.0785
-13.186
-13.2883
-13.3853
-13.4767
-13.5624
-13.6425
-13.7167
-13.785
-13.8473
-13.9036
-13.9538
-13.998
-14.036
-14.0678
-14.0936
-14.1132
-14.1267
-14.1339
-10.8206
-10.9759
-11.1268
-11.2735
-11.4162
-11.5549
-11.6894
-11.8197
-11.9457
-12.0672
-12.184
-12.296
-12.4031
-12.5051
-12.6019
-12.6934
-12.7794
-12.8599
-12.9348
-13.0039
-13.0673
-13.1248
-13.1764
-13.2221
-13.2618
-13.2956
-13.3233
-13.345
-13.3606
-13.37
-10.0854
-10.2372
-10.3854
-10.5297
-10.6702
-10.8068
-10.9394
-11.068
-11.1923
-11.3123
-11.4279
-11.5388
-11.645
-11.7463
-11.8426
-11.9337
-12.0197
-12.1003
-12.1756
-12.2453
-12.3094
-12.368
-12.4208
-12.4679
-12.5092
-12.5448
-12.5745
-12.5983
-12.6161
-12.628
-9.39717
-9.54505
-9.68979
-9.83096
-9.9685
-10.1023
-10.2324
-10.3586
-10.4808
-10.5988
-10.7125
-10.8219
-10.9267
-11.0268
-11.1221
-11.2126
-11.298
-11.3784
-11.4536
-11.5235
-11.588
-11.6472
-11.7009
-11.7491
-11.7918
-11.8288
-11.8602
-11.886
-11.906
-11.9203
-8.76113
-8.9047
-9.04544
-9.1829
-9.31695
-9.44754
-9.57456
-9.69788
-9.81737
-9.93292
-10.0444
-10.1516
-10.2546
-10.3531
-10.447
-10.5363
-10.6208
-10.7004
-10.7751
-10.8447
-10.9093
-10.9687
-11.0228
-11.0717
-11.1153
-11.1534
-11.1862
-11.2136
-11.2354
-11.2518
-8.17644
-8.31545
-8.45188
-8.58526
-8.71545
-8.84238
-8.96595
-9.08601
-9.20245
-9.31513
-9.42394
-9.52874
-9.62942
-9.72587
-9.81798
-9.90564
-9.98875
-10.0672
-10.141
-10.2099
-10.274
-10.3332
-10.3874
-10.4365
-10.4805
-10.5194
-10.5531
-10.5817
-10.605
-10.623
-7.64127
-7.7756
-7.90752
-8.0366
-8.1627
-8.28573
-8.40558
-8.52212
-8.63522
-8.74474
-8.85058
-8.95262
-9.05073
-9.14481
-9.23475
-9.32045
-9.40182
-9.47877
-9.55123
-9.6191
-9.68234
-9.74087
-9.79463
-9.84358
-9.88768
-9.92687
-9.96114
-9.99043
-10.0147
-10.0341
-7.15298
-7.28259
-7.40994
-7.53463
-7.65652
-7.77552
-7.8915
-8.00435
-8.11392
-8.2201
-8.32278
-8.42182
-8.51713
-8.60859
-8.6961
-8.77958
-8.85892
-8.93405
-9.00488
-9.07135
-9.13339
-9.19094
-9.24395
-9.29236
-9.33614
-9.37525
-9.40965
-9.43932
-9.46424
-9.48439
-6.70831
-6.83324
-6.95605
-7.07634
-7.194
-7.30892
-7.42098
-7.53006
-7.63602
-7.73875
-7.83814
-7.93406
-8.02641
-8.11509
-8.2
-8.28105
-8.35815
-8.43122
-8.5002
-8.565
-8.62558
-8.68188
-8.73383
-8.7814
-8.82455
-8.86324
-8.89744
-8.92713
-8.95228
-8.97291
-6.30369
-6.42406
-6.5424
-6.65836
-6.77183
-6.8827
-6.99085
-7.09616
-7.1985
-7.29775
-7.3938
-7.48654
-7.57586
-7.66166
-7.74386
-7.82235
-7.89707
-7.96794
-8.03489
-8.09785
-8.15676
-8.21158
-8.26225
-8.30873
-8.35099
-8.38899
-8.4227
-8.45211
-8.4772
-8.49797
-5.93552
-6.05146
-6.16546
-6.27721
-6.38658
-6.49349
-6.59781
-6.69941
-6.79816
-6.89396
-6.98669
-7.07623
-7.1625
-7.24539
-7.32482
-7.40071
-7.47297
-7.54154
-7.60634
-7.66733
-7.72444
-7.77763
-7.82684
-7.87206
-7.91323
-7.95032
-7.98333
-8.01222
-8.03698
-8.05763
-5.60027
-5.71194
-5.82177
-5.92945
-6.03487
-6.13794
-6.23853
-6.33652
-6.43178
-6.52419
-6.61365
-6.70005
-6.78329
-6.86329
-6.93995
-7.01321
-7.08298
-7.1492
-7.21181
-7.27075
-7.32597
-7.37743
-7.42508
-7.46889
-7.50883
-7.54487
-7.57699
-7.60518
-7.62942
-7.64972
-5.29461
-5.4022
-5.50802
-5.6118
-5.71344
-5.81282
-5.90983
-6.00433
-6.0962
-6.18533
-6.27161
-6.35494
-6.43522
-6.51238
-6.58631
-6.65696
-6.72426
-6.78813
-6.84853
-6.90539
-6.95868
-7.00836
-7.05437
-7.0967
-7.13531
-7.17019
-7.2013
-7.22865
-7.25221
-7.27201
-5.01544
-5.11914
-5.22114
-5.32121
-5.41924
-5.5151
-5.60868
-5.69984
-5.78847
-5.87444
-5.95765
-6.03801
-6.11542
-6.1898
-6.26108
-6.32918
-6.39403
-6.45559
-6.51379
-6.56859
-6.61994
-6.66781
-6.71216
-6.75297
-6.7902
-6.82383
-6.85386
-6.88027
-6.90305
-6.92222
-4.75995
-4.85994
-4.95833
-5.05488
-5.14947
-5.242
-5.33232
-5.4203
-5.50583
-5.58878
-5.66905
-5.74655
-5.82119
-5.8929
-5.96159
-6.02721
-6.0897
-6.14899
-6.20504
-6.2578
-6.30724
-6.35331
-6.396
-6.43526
-6.47109
-6.50345
-6.53235
-6.55776
-6.57968
-6.59814
-4.52559
-4.62206
-4.71701
-4.81024
-4.9016
-4.99096
-5.0782
-5.16317
-5.24575
-5.32582
-5.40328
-5.47805
-5.55004
-5.61918
-5.68539
-5.74862
-5.80881
-5.8659
-5.91986
-5.97064
-6.0182
-6.06252
-6.10356
-6.1413
-6.17572
-6.20681
-6.23455
-6.25894
-6.27996
-6.29765
-4.31009
-4.4032
-4.49491
-4.585
-4.67332
-4.75972
-4.84405
-4.92616
-5.00595
-5.08328
-5.15808
-5.23024
-5.29969
-5.36637
-5.4302
-5.49114
-5.54912
-5.6041
-5.65604
-5.70491
-5.75066
-5.79326
-5.8327
-5.86895
-5.90199
-5.9318
-5.95839
-5.98175
-6.00186
-6.01876
-4.11139
-4.2013
-4.28997
-4.37713
-4.4626
-4.54621
-4.6278
-4.70723
-4.78437
-4.85911
-4.93137
-5.00105
-5.0681
-5.13243
-5.19399
-5.25273
-5.3086
-5.36156
-5.41157
-5.45858
-5.50259
-5.54354
-5.58143
-5.61623
-5.64792
-5.6765
-5.70196
-5.72429
-5.74349
-5.75958
-3.92769
-4.01455
-4.10037
-4.1848
-4.26761
-4.34861
-4.42764
-4.50454
-4.57918
-4.65147
-4.72132
-4.78865
-4.85339
-4.91549
-4.97489
-5.03154
-5.0854
-5.13643
-5.18459
-5.22984
-5.27217
-5.31154
-5.34794
-5.38134
-5.41174
-5.43912
-5.46348
-5.48481
-5.50311
-5.51841
-3.75733
-3.84132
-3.9245
-4.00641
-4.08675
-4.16532
-4.24194
-4.31646
-4.38874
-4.45871
-4.52628
-4.59137
-4.65394
-4.71392
-4.77126
-4.82593
-4.87787
-4.92706
-4.97346
-5.01703
-5.05777
-5.09563
-5.1306
-5.16267
-5.19183
-5.21806
-5.24135
-5.26172
-5.27915
-5.29367
-3.59885
-3.68012
-3.76092
-3.84052
-3.91859
-3.99491
-4.06928
-4.14154
-4.2116
-4.27937
-4.34477
-4.40775
-4.46825
-4.52622
-4.58161
-4.63439
-4.68452
-4.73196
-4.77669
-4.81867
-4.85789
-4.89432
-4.92794
-4.95874
-4.98671
-5.01184
-5.03412
-5.05356
-5.07015
-5.08393
-3.45088
-3.52959
-3.60834
-3.68588
-3.76187
-3.8361
-3.90836
-3.97851
-4.04646
-4.11215
-4.1755
-4.23647
-4.295
-4.35106
-4.40461
-4.4556
-4.50401
-4.5498
-4.59295
-4.63343
-4.67121
-4.70628
-4.73862
-4.76822
-4.79506
-4.81915
-4.84047
-4.85903
-4.87482
-4.88788
-3.31216
-3.38859
-3.46568
-3.54142
-3.61552
-3.68781
-3.75809
-3.82625
-3.89221
-3.95591
-4.01732
-4.07638
-4.13306
-4.18732
-4.23911
-4.28842
-4.3352
-4.37942
-4.42107
-4.46012
-4.49655
-4.53033
-4.56146
-4.58992
-4.61571
-4.6388
-4.65921
-4.67694
-4.69197
-4.70435
-3.18151
-3.25632
-3.33228
-3.40647
-3.47884
-3.54934
-3.61774
-3.68399
-3.74804
-3.80986
-3.86941
-3.92666
-3.98156
-4.03409
-4.08422
-4.13191
-4.17714
-4.21988
-4.26011
-4.2978
-4.33294
-4.3655
-4.39548
-4.42286
-4.44763
-4.46979
-4.48933
-4.50626
-4.52057
-4.53229
-3.05698
-3.13163
-3.20733
-3.28016
-3.35095
-3.41974
-3.48636
-3.55078
-3.613
-3.67301
-3.73079
-3.7863
-3.83951
-3.89041
-3.93895
-3.98512
-4.02888
-4.07021
-4.10909
-4.1455
-4.17942
-4.21083
-4.23972
-4.26608
-4.28989
-4.31116
-4.32988
-4.34606
-4.35968
-4.37078
-2.93349
-3.00995
-3.08695
-3.15886
-3.2283
-3.2956
-3.36061
-3.42339
-3.48397
-3.54237
-3.59857
-3.65254
-3.70427
-3.75372
-3.80088
-3.84571
-3.8882
-3.92831
-3.96603
-4.00133
-4.03421
-4.06463
-4.0926
-4.11809
-4.1411
-4.16162
-4.17966
-4.1952
-4.20826
-4.21885
-2.80727
-2.88737
-2.96772
-3.03971
-3.10829
-3.17444
-3.23817
-3.29963
-3.35889
-3.41597
-3.47089
-3.52361
-3.57411
-3.62239
-3.66841
-3.71215
-3.75359
-3.7927
-3.82947
-3.86388
-3.89592
-3.92556
-3.95279
-3.97761
-4
-4.01997
-4.0375
-4.0526
-4.06527
-4.07554
-2.71092
-2.79933
-2.8805
-2.95161
-3.01857
-3.08266
-3.14424
-3.20354
-3.26063
-3.31556
-3.36831
-3.41889
-3.46728
-3.51347
-3.55743
-3.59915
-3.63861
-3.67581
-3.71071
-3.74332
-3.77361
-3.80158
-3.82721
-3.8505
-3.87144
-3.89004
-3.90629
-3.92019
-3.93174
-3.94097
-0.509974
-0.553263
-0.599941
-0.650204
-0.704573
-0.763562
-0.827717
-0.897678
-0.974188
-1.05811
-1.15046
-1.2524
-1.36529
-1.49071
-1.6305
-1.7868
-1.96205
-2.15909
-2.38115
-2.6319
-2.91546
-3.23637
-3.59955
-4.0101
-4.4734
-4.99496
-5.57583
-6.20953
-6.94941
-7.90215
-0.580264
-0.625866
-0.674105
-0.72613
-0.78245
-0.843494
-0.909809
-0.982049
-1.06097
-1.14745
-1.24251
-1.34733
-1.46329
-1.59198
-1.73526
-1.89528
-2.07451
-2.27581
-2.50243
-2.75803
-3.04675
-3.37312
-3.74202
-4.15851
-4.62786
-5.15542
-5.74204
-6.38074
-7.12371
-8.07558
-0.651387
-0.699348
-0.749178
-0.802999
-0.86131
-0.92445
-0.992967
-1.06753
-1.14892
-1.238
-1.33583
-1.44358
-1.56266
-1.69468
-1.84152
-2.00533
-2.18862
-2.39425
-2.62548
-2.88601
-3.17996
-3.51185
-3.88653
-4.30899
-4.78437
-5.31785
-5.90998
-6.55326
-7.2986
-8.24882
-0.723286
-0.773644
-0.82509
-0.880741
-0.941079
-1.00635
-1.07711
-1.15404
-1.23793
-1.32967
-1.4303
-1.54104
-1.66329
-1.79869
-1.94913
-2.11679
-2.30418
-2.5142
-2.75011
-3.01562
-3.31485
-3.6523
-4.03279
-4.46123
-4.94264
-5.48199
-6.07956
-6.72745
-7.47581
-8.42641
-0.795908
-0.8487
-0.901787
-0.959301
-1.0217
-1.08915
-1.16218
-1.24152
-1.32795
-1.42238
-1.52587
-1.63964
-1.76511
-1.90394
-2.05803
-2.22959
-2.42115
-2.6356
-2.87624
-3.14678
-3.45133
-3.79439
-4.18071
-4.61515
-5.1026
-5.64783
-6.25085
-6.90344
-7.65525
-8.60734
-0.869205
-0.924461
-0.979212
-1.03862
-1.10312
-1.17277
-1.24812
-1.3299
-1.41891
-1.51608
-1.62246
-1.73931
-1.86805
-2.01036
-2.16815
-2.34366
-2.53942
-2.75837
-3.00379
-3.2794
-3.58932
-3.93802
-4.33022
-4.77068
-5.26418
-5.81532
-6.42383
-7.08118
-7.83661
-8.7907
-0.943125
-1.00087
-1.0573
-1.11864
-1.18527
-1.25716
-1.33486
-1.41912
-1.51075
-1.61069
-1.72001
-1.83997
-1.97202
-2.11785
-2.2794
-2.4589
-2.65893
-2.8824
-3.13265
-3.41339
-3.72872
-4.0831
-4.4812
-4.92771
-5.42729
-5.98435
-6.59839
-7.26054
-8.01971
-8.97609
-1.01762
-1.07787
-1.13601
-1.1993
-1.26809
-1.34225
-1.42234
-1.50911
-1.60339
-1.70614
-1.81843
-1.94155
-2.07695
-2.22634
-2.39168
-2.57522
-2.77955
-3.00761
-3.26273
-3.54863
-3.86941
-4.22951
-4.63354
-5.08613
-5.59181
-6.15481
-6.7744
-7.44141
-8.20439
-9.16325
-1.09263
-1.1554
-1.21526
-1.28053
-1.35152
-1.42798
-1.51048
-1.59979
-1.69676
-1.80235
-1.91765
-2.04396
-2.18275
-2.33575
-2.50492
-2.69254
-2.90121
-3.13389
-3.39391
-3.68502
-4.01129
-4.37713
-4.78713
-5.24582
-5.75761
-6.32657
-6.95172
-7.62361
-8.39046
-9.3519
-1.16811
-1.23342
-1.295
-1.36229
-1.4355
-1.51429
-1.59922
-1.69111
-1.7908
-1.89925
-2.0176
-2.14713
-2.28934
-2.44597
-2.61901
-2.81074
-3.02379
-3.26113
-3.5261
-3.82244
-4.15423
-4.52585
-4.94183
-5.40663
-5.92454
-6.49947
-7.1302
-7.80698
-8.57773
-9.5418
-1.24402
-1.31186
-1.37518
-1.4445
-1.51996
-1.60111
-1.68851
-1.78299
-1.88542
-1.99677
-2.11818
-2.25096
-2.39663
-2.55692
-2.73386
-2.92974
-3.14721
-3.38923
-3.65918
-3.96078
-4.29812
-4.67553
-5.09751
-5.56843
-6.09247
-6.67336
-7.30967
-7.99134
-8.76598
-9.73271
-1.32031
-1.39068
-1.45575
-1.52713
-1.60486
-1.68838
-1.77826
-1.87536
-1.98055
-2.09483
-2.21933
-2.35539
-2.50453
-2.66852
-2.84938
-3.04944
-3.27134
-3.51808
-3.79303
-4.09992
-4.44282
-4.82604
-5.25403
-5.73108
-6.26125
-6.84809
-7.48996
-8.1765
-8.95502
-9.92442
-1.39695
-1.46983
-1.53664
-1.6101
-1.69012
-1.77603
-1.86842
-1.96816
-2.07613
-2.19335
-2.32096
-2.46032
-2.61295
-2.78066
-2.96547
-3.16972
-3.39608
-3.64756
-3.92753
-4.23973
-4.5882
-4.97725
-5.41125
-5.89443
-6.43071
-7.02349
-7.67089
-8.36226
-9.14464
-10.1167
-1.47389
-1.54927
-1.61783
-1.69338
-1.77571
-1.86403
-1.95893
-2.06132
-2.17209
-2.29226
-2.42299
-2.56566
-2.72181
-2.89324
-3.08202
-3.29049
-3.52133
-3.77756
-4.06257
-4.38009
-4.73415
-5.12902
-5.56903
-6.05832
-6.6007
-7.19939
-7.85228
-8.54845
-9.33465
-10.3094
-1.55111
-1.62896
-1.69926
-1.77692
-1.86156
-1.95229
-2.04972
-2.15476
-2.26834
-2.39147
-2.52534
-2.67133
-2.831
-3.00618
-3.19893
-3.41163
-3.64696
-3.90796
-4.19802
-4.52087
-4.88052
-5.28121
-5.72722
-6.22261
-6.77106
-7.37561
-8.03395
-8.73487
-9.52484
-10.5022
-1.6286
-1.70888
-1.78089
-1.86067
-1.94763
-2.04078
-2.14073
-2.24843
-2.36481
-2.4909
-2.62791
-2.77723
-2.94043
-3.11936
-3.31609
-3.53303
-3.77286
-4.03863
-4.33375
-4.66192
-5.02716
-5.43366
-5.88566
-6.38712
-6.9416
-7.55198
-8.21571
-8.92131
-9.715
-10.695
-1.70633
-1.78899
-1.8627
-1.94459
-2.03387
-2.12942
-2.23189
-2.34224
-2.46142
-2.59048
-2.73062
-2.88326
-3.04999
-3.23267
-3.43339
-3.65456
-3.89889
-4.16945
-4.46962
-4.80312
-5.17393
-5.58623
-6.0442
-6.55169
-7.11216
-7.7283
-8.39737
-9.10759
-9.90495
-10.8875
-1.78432
-1.86929
-1.94466
-2.02864
-2.12022
-2.21817
-2.32314
-2.43612
-2.55809
-2.69009
-2.83336
-2.98932
-3.15958
-3.346
-3.55071
-3.77611
-4.02494
-4.30027
-4.60549
-4.9443
-5.32068
-5.73876
-6.20266
-6.71616
-7.28256
-7.90441
-8.57873
-9.2935
-10.0945
-11.0796
-1.86257
-1.94976
-2.02672
-2.11277
-2.20663
-2.30694
-2.41438
-2.52998
-2.65472
-2.78965
-2.93604
-3.0953
-3.26907
-3.45923
-3.66792
-3.89755
-4.15088
-4.43098
-4.74123
-5.08534
-5.46726
-5.89109
-6.36089
-6.88034
-7.45262
-8.08011
-8.75962
-9.47885
-10.2833
-11.271
-1.94109
-2.03039
-2.10888
-2.19695
-2.29304
-2.39567
-2.50555
-2.62373
-2.7512
-2.88904
-3.03852
-3.20107
-3.37835
-3.57224
-3.78489
-4.01875
-4.27657
-4.56142
-4.87669
-5.22607
-5.61351
-6.04306
-6.51871
-7.04406