/*--------------------------------*- C++ -*----------------------------------*\
| =========                 |                                                 |
| \\      /  F ield         | OpenFOAM: The Open Source CFD Toolbox           |
|  \\    /   O peration     | Version:  v1912                                 |
|   \\  /    A nd           | Website:  www.openfoam.com                      |
|    \\/     M anipulation  |                                                 |
\*---------------------------------------------------------------------------*/
FoamFile
{
    version     2.0;
    format      ascii;
    class       surfaceScalarField;
    location    "48.5";
    object      phi;
}
// * * * * * * * * * * * * * * * * * * * * * * * * * * * * * * * * * * * * * //

dimensions      [0 3 -1 0 0 0 0];
oriented        oriented;


internalField   nonuniform List<scalar> 
18940
(
0.000358174
-0.234364
0.234006
0.00137868
-0.216325
0.215305
0.0028822
-0.20479
0.203286
0.00469828
-0.197008
0.195192
0.00669613
-0.191253
0.189255
0.00877405
-0.18646
0.184382
0.0108583
-0.182039
0.179955
0.0128993
-0.177695
0.175654
0.0148671
-0.173304
0.171337
0.0167463
-0.168838
0.166959
0.018532
-0.164318
0.162532
0.0202267
-0.159785
0.158091
0.0218376
-0.155288
0.153678
0.0233743
-0.150871
0.149334
0.0248482
-0.14657
0.145096
0.0262709
-0.142408
0.140985
0.0276538
-0.138399
0.137016
0.0290075
-0.13454
0.133186
0.0303405
-0.130811
0.129478
-0.127173
0.125856
0.031658
0.000381599
-0.234746
0.001422
-0.217365
0.00293624
-0.206304
0.00475664
-0.198828
0.00674896
-0.193246
0.00881158
-0.188522
0.010872
-0.184099
0.0128823
-0.179705
0.0148142
-0.175236
0.0166543
-0.170678
0.0183993
-0.166063
0.0200529
-0.161439
0.0216233
-0.156859
0.023121
-0.152369
0.0245575
-0.148006
0.0259449
-0.143795
0.0272949
-0.139749
0.0286183
-0.135863
0.0299241
-0.132117
-0.128467
0.0312182
0.000403023
-0.235149
0.00145965
-0.218422
0.00298261
-0.207827
0.00480358
-0.200649
0.00678674
-0.195229
0.00883039
-0.190566
0.0108633
-0.186132
0.0128394
-0.181681
0.0147324
-0.177129
0.0165305
-0.172477
0.0182323
-0.167765
0.0198428
-0.163049
0.021371
-0.158387
0.0228279
-0.153826
0.0242257
-0.149404
0.0255765
-0.145146
0.0268922
-0.141065
0.028184
-0.137155
0.0294613
-0.133394
-0.129737
0.0307309
0.000416896
-0.235565
0.00148857
-0.219494
0.0030194
-0.209358
0.00483837
-0.202468
0.00680899
-0.197199
0.00883013
-0.192587
0.010832
-0.188134
0.0127706
-0.18362
0.0146217
-0.17898
0.0163754
-0.17423
0.0180318
-0.169421
0.0195972
-0.164615
0.0210815
-0.159871
0.0224964
-0.155241
0.0238542
-0.150762
0.0251672
-0.146459
0.0264476
-0.142345
0.0277068
-0.138414
0.0289547
-0.134642
-0.130981
0.0301989
0.000428166
-0.235994
0.0015121
-0.220578
0.00304796
-0.210894
0.00486166
-0.204282
0.0068162
-0.199154
0.00881125
-0.194582
0.0107787
-0.190101
0.0126767
-0.185518
0.0144831
-0.180787
0.0161899
-0.175937
0.0177988
-0.17103
0.0193174
-0.166133
0.0207564
-0.16131
0.0221279
-0.156612
0.0234445
-0.152078
0.0247188
-0.147733
0.0259629
-0.143589
0.0271885
-0.13964
0.0284061
-0.13586
-0.132199
0.0296242
0.000437258
-0.236431
0.00153065
-0.221671
0.00306854
-0.212432
0.0048737
-0.206087
0.00680866
-0.201089
0.00877415
-0.196548
0.010704
-0.192031
0.0125583
-0.187372
0.0143173
-0.182546
0.0159749
-0.177595
0.0175343
-0.172589
0.0190044
-0.167603
0.0203967
-0.162702
0.0217236
-0.157939
0.022998
-0.153353
0.0242325
-0.148968
0.0254392
-0.144796
0.0266303
-0.140831
0.0278167
-0.137046
-0.133391
0.0290081
0.000444739
-0.236876
0.0015449
-0.222771
0.0030817
-0.213969
0.00487496
-0.20788
0.00678688
-0.203001
0.00871941
-0.19848
0.0106084
-0.19392
0.0124162
-0.18918
0.0141252
-0.184255
0.0157314
-0.179201
0.0172396
-0.174098
0.0186595
-0.169023
0.0200036
-0.164047
0.0212847
-0.15922
0.0225158
-0.154584
0.0237093
-0.150161
0.0248777
-0.145964
0.0260331
-0.141986
0.0271874
-0.1382
-0.134554
0.0283512
0.000450764
-0.237326
0.00155517
-0.223876
0.00308786
-0.215501
0.00486592
-0.209658
0.00675143
-0.204886
0.00864773
-0.200377
0.0104927
-0.195765
0.0122513
-0.190939
0.0139079
-0.185911
0.0154606
-0.180753
0.0169155
-0.175552
0.0182838
-0.170392
0.0195782
-0.165341
0.0208122
-0.160454
0.0219986
-0.15577
0.02315
-0.151313
0.0242788
-0.147093
0.0253973
-0.143105
0.0265182
-0.139321
-0.135689
0.0276532
0.000455439
-0.237782
0.00156176
-0.224982
0.00308746
-0.217027
0.00484714
-0.211418
0.00670299
-0.206742
0.00855991
-0.202234
0.0103581
-0.197563
0.0120647
-0.192645
0.0136666
-0.187513
0.0151636
-0.18225
0.0165635
-0.176952
0.0178783
-0.171706
0.0191216
-0.166584
0.020307
-0.16164
0.0214474
-0.156911
0.0225552
-0.152421
0.0236427
-0.148181
0.0247227
-0.144185
0.0258085
-0.140407
-0.136794
0.0269134
0.000458837
-0.238241
0.00156493
-0.226088
0.00308097
-0.218543
0.00481927
-0.213156
0.00664237
-0.208565
0.00845693
-0.204048
0.0102055
-0.199312
0.0118577
-0.194298
0.0134026
-0.189058
0.0148419
-0.18369
0.0161849
-0.178295
0.0174445
-0.172966
0.0186349
-0.167775
0.01977
-0.162775
0.0208626
-0.158003
0.0219249
-0.153483
0.0229693
-0.149225
0.0240087
-0.145224
0.0250572
-0.141456
-0.137867
0.0261298
0.000461066
-0.238702
0.00156505
-0.227192
0.00306896
-0.220047
0.00478306
-0.21487
0.00657051
-0.210353
0.00833992
-0.205818
0.0100363
-0.201008
0.0116317
-0.195893
0.0131175
-0.190544
0.0144971
-0.185069
0.0157812
-0.179579
0.0169837
-0.174169
0.0181194
-0.16891
0.0192021
-0.163857
0.0202449
-0.159046
0.0212595
-0.154498
0.0222582
-0.150223
0.023254
-0.14622
0.0242623
-0.142464
-0.138904
0.0252999
0.000462279
-0.239164
0.00156255
-0.228292
0.00305212
-0.221536
0.00473942
-0.216558
0.00648853
-0.212102
0.00821021
-0.207539
0.00985193
-0.20265
0.0113884
-0.19743
0.012813
-0.191969
0.014131
-0.186387
0.0153543
-0.180803
0.0164978
-0.175312
0.0175765
-0.169989
0.0186047
-0.164886
0.019595
-0.160036
0.0205592
-0.155462
0.0215089
-0.151173
0.0224577
-0.147169
0.0234218
-0.143428
-0.139903
0.0244204
0.000462757
-0.239627
0.00155806
-0.229388
0.00303131
-0.22301
0.00468942
-0.218216
0.00639774
-0.21381
0.00806933
-0.209211
0.00965429
-0.204235
0.0111298
-0.198905
0.0124913
-0.19333
0.0137458
-0.187642
0.0149064
-0.181963
0.0159887
-0.176394
0.0170082
-0.171008
0.0179791
-0.165857
0.018914
-0.160971
0.0198243
-0.156372
0.0207212
-0.15207
0.0216183
-0.148066
0.0225333
-0.144343
-0.140857
0.0234875
0.000462977
-0.24009
0.00155242
-0.230477
0.00300758
-0.224465
0.0046343
-0.219843
0.00629959
-0.215475
0.00791904
-0.21083
0.00944535
-0.205761
0.0108581
-0.200318
0.012155
-0.194627
0.0133444
-0.188831
0.0144405
-0.18306
0.0154594
-0.177413
0.016417
-0.171966
0.0173275
-0.166767
0.0182034
-0.161847
0.0190553
-0.157224
0.0198944
-0.152909
0.020734
-0.148906
0.0215926
-0.145202
-0.14176
0.022495
0.000463742
-0.240553
0.00154682
-0.23156
0.00298214
-0.2259
0.00457542
-0.221436
0.00619571
-0.217096
0.00776123
-0.212396
0.00922738
-0.207227
0.0105761
-0.201667
0.0118071
-0.195858
0.01293
-0.189954
0.01396
-0.18409
0.0149136
-0.178367
0.0158068
-0.172859
0.0166535
-0.167614
0.0174658
-0.162659
0.018254
-0.158012
0.0190283
-0.153684
0.0198018
-0.149679
0.0205937
-0.145994
-0.1426
0.0214345
0.000466199
-0.24102
0.00154254
-0.232636
0.00295621
-0.227314
0.00451415
-0.222994
0.00608778
-0.218669
0.007598
-0.213906
0.00900286
-0.208632
0.0102867
-0.20295
0.0114509
-0.197022
0.0125067
-0.19101
0.0134696
-0.185053
0.0143564
-0.179254
0.0151829
-0.173686
0.0159627
-0.168394
0.0167071
-0.163404
0.0174255
-0.158731
0.018127
-0.154385
0.0188235
-0.150376
0.0195356
-0.146706
-0.143367
0.0203024
0.000471738
-0.241491
0.00154091
-0.233706
0.0029311
-0.228704
0.00445204
-0.224515
0.00597766
-0.220195
0.00743152
-0.21536
0.00877442
-0.209975
0.00999302
-0.204169
0.0110904
-0.198119
0.0120788
-0.191998
0.0129743
-0.185948
0.0137936
-0.180073
0.014552
-0.174444
0.0152625
-0.169104
0.0159355
-0.164077
0.0165793
-0.159374
0.0172013
-0.155007
0.0178117
-0.150986
0.0184309
-0.147325
-0.144035
0.0190991
0.000482691
-0.241974
0.00154455
-0.234767
0.00290928
-0.230069
0.00439122
-0.225997
0.0058673
-0.221671
0.00726392
-0.216756
0.0085446
-0.211256
0.00969827
-0.205323
0.0107296
-0.199151
0.0116515
-0.19292
0.0124803
-0.186777
0.0132321
-0.180825
0.0139213
-0.175133
0.0145598
-0.169743
0.0151568
-0.164674
0.0157196
-0.159937
0.0162547
-0.155542
0.0167685
-0.1515
0.0172739
-0.14783
-0.144556
0.0177949
0.000506635
-0.242481
0.00156069
-0.235822
0.00289482
-0.231403
0.00433359
-0.227435
0.00575795
-0.223095
0.00709661
-0.218095
0.00831543
-0.212475
0.00940541
-0.206413
0.0103726
-0.200118
0.0112306
-0.193778
0.0119955
-0.187542
0.0126825
-0.181512
0.013304
-0.175755
0.0138692
-0.170308
0.0143839
-0.165188
0.0148517
-0.160405
0.0152745
-0.155965
0.0156513
-0.151877
0.0159865
-0.148166
-0.144912
0.016342
0.000563691
-0.243044
0.00159761
-0.236855
0.00288745
-0.232693
0.00427796
-0.228826
0.00564912
-0.224467
0.00693
-0.219376
0.00808822
-0.213633
0.00911673
-0.207441
0.0100231
-0.201024
0.0108218
-0.194577
0.011529
-0.188249
0.0121589
-0.182142
0.0127223
-0.176318
0.0132246
-0.17081
0.0136658
-0.165629
0.0140385
-0.160778
0.0143256
-0.156252
0.0145012
-0.152052
0.0145601
-0.148224
-0.145084
0.0147317
0.250726
0.000415035
-0.251141
0.250338
0.000388675
0.249956
0.000381406
0.249575
0.000381539
0.24919
0.000384485
0.248801
0.000388897
0.248407
0.00039405
0.248008
0.000399356
0.247603
0.000404423
0.247194
0.000409045
0.246781
0.000413125
0.246365
0.000416638
0.245945
0.000419566
0.245523
0.000421885
0.2451
0.000423471
0.244676
0.000424119
0.244253
0.00042278
0.243834
0.000418906
0.243431
0.000403297
0.000386208
0.252694
0.00102347
-0.253303
0.25205
0.00103269
0.251378
0.00105378
0.250679
0.00108078
0.249954
0.00110914
0.249205
0.00113751
0.248434
0.00116543
0.247641
0.00119239
0.246827
0.00121797
0.245994
0.00124192
0.245143
0.00126413
0.244276
0.00128456
0.243392
0.00130322
0.242494
0.0013201
0.241582
0.00133505
0.240658
0.00134788
0.239724
0.00135748
0.238779
0.00136358
0.237822
0.00135991
0.00135312
0.251473
0.00159538
-0.252045
0.250837
0.0016693
0.250147
0.00174344
0.249409
0.00181868
0.248626
0.00189267
0.247799
0.0019642
0.246931
0.00203294
0.246025
0.00209865
0.245082
0.00216111
0.244104
0.00222014
0.243092
0.0022757
0.242049
0.00232783
0.240976
0.00237662
0.239873
0.00242218
0.238744
0.00246453
0.237588
0.0025037
0.236407
0.00253916
0.235199
0.00257117
0.233961
0.00259734
0.00262185
0.247366
0.00203878
-0.247809
0.246853
0.00218235
0.246275
0.0023213
0.245637
0.00245707
0.24494
0.002589
0.244188
0.0027163
0.243383
0.00283863
0.242525
0.00295583
0.241619
0.00306776
0.240665
0.00317435
0.239665
0.0032756
0.238621
0.00337166
0.237535
0.00346273
0.236408
0.00354909
0.235241
0.00363101
0.234036
0.00370886
0.232793
0.00378273
0.231511
0.00385326
0.230188
0.00391971
0.0039841
0.241117
0.00231781
-0.241396
0.240766
0.00253268
0.240347
0.00274078
0.239861
0.00294294
0.239311
0.00313914
0.238698
0.00332891
0.238025
0.00351191
0.237293
0.00368795
0.236504
0.00385693
0.235659
0.00401879
0.234761
0.00417362
0.233811
0.0043216
0.232811
0.00446307
0.231762
0.0045985
0.230664
0.00472841
0.229519
0.00485352
0.228328
0.00497441
0.227089
0.00509205
0.225802
0.00520658
0.00531969
0.233518
0.00244115
-0.233641
0.233324
0.00272662
0.233061
0.00300415
0.23273
0.00327406
0.232332
0.00353636
0.231871
0.00379077
0.231346
0.00403695
0.230759
0.00427467
0.230112
0.00450379
0.229406
0.00472428
0.228644
0.00493624
0.227826
0.00513993
0.226953
0.00533577
0.226027
0.00552441
0.225049
0.00570664
0.224019
0.0058835
0.222937
0.00605605
0.221803
0.00622566
0.220617
0.0063932
0.00656051
0.225274
0.00243933
-0.225272
0.225208
0.00279284
0.225074
0.00313767
0.224874
0.00347374
0.22461
0.003801
0.224281
0.00411915
0.22389
0.00442787
0.223438
0.00472688
0.222926
0.00501599
0.222355
0.00529516
0.221727
0.0055645
0.221043
0.00582428
0.220303
0.00607503
0.21951
0.00631754
0.218664
0.00655288
0.217765
0.00678242
0.216813
0.00700772
0.215808
0.00723067
0.214749
0.00745282
0.00767634
0.216911
0.00234855
-0.216821
0.216938
0.00276655
0.2169
0.00317527
0.216799
0.00357442
0.216637
0.00396378
0.216413
0.00434304
0.216129
0.00471182
0.215786
0.00506979
0.215385
0.00541672
0.214928
0.0057525
0.214415
0.00607723
0.213848
0.00639119
0.213228
0.00669496
0.212556
0.00698948
0.211833
0.00727606
0.211059
0.00755645
0.210234
0.00783276
0.209357
0.00810751
0.208427
0.00838307
0.00866211
0.208778
0.00220211
-0.208632
0.208864
0.00268082
0.208889
0.00314968
0.208856
0.00360825
0.208763
0.00405622
0.208613
0.00449318
0.208406
0.00491871
0.208143
0.00533239
0.207826
0.00573392
0.207456
0.00612314
0.207033
0.00650005
0.206559
0.00686494
0.206036
0.0072184
0.205464
0.00756146
0.204844
0.00789568
0.204177
0.00822317
0.203463
0.0085467
0.202701
0.00886954
0.201889
0.00919514
0.00952702
0.201074
0.002027
-0.200899
0.201192
0.00256284
0.201253
0.00308825
0.201259
0.00360271
0.201209
0.00410576
0.201106
0.00459695
0.200949
0.00507574
0.200739
0.00554165
0.200479
0.00599428
0.200169
0.00643337
0.19981
0.00685882
0.199404
0.00727084
0.198952
0.00766998
0.198457
0.0080573
0.197918
0.00843456
0.197337
0.00880422
0.196714
0.0091698
0.196048
0.00953545
0.195337
0.00990613
0.0102866
0.193893
0.00184308
-0.193709
0.194022
0.00243294
0.194099
0.00301178
0.194123
0.00357897
0.194094
0.00413397
0.194015
0.0046762
0.193886
0.00520505
0.193708
0.00571993
0.193482
0.00622033
0.193209
0.00670585
0.192892
0.00717626
0.192531
0.00763159
0.192129
0.00807231
0.191686
0.00849937
0.191206
0.00891468
0.19069
0.00932092
0.190137
0.00972251
0.189548
0.0101245
0.18892
0.0105341
0.0109578
0.187256
0.00166376
-0.187077
0.187384
0.00230512
0.187461
0.00293488
0.187488
0.00355221
0.187465
0.0041565
0.187394
0.00474709
0.187276
0.00532326
0.187112
0.00588431
0.186903
0.00642957
0.18665
0.00695849
0.186356
0.00747065
0.186021
0.00796583
0.185649
0.0084443
0.185242
0.00890675
0.184802
0.00935514
0.18433
0.00979208
0.18383
0.0102231
0.1833
0.0106539
0.182739
0.0110952
0.0115553
0.181146
0.00149736
-0.18098
0.181263
0.00218838
0.181331
0.00286706
0.18135
0.00353247
0.181323
0.00418395
0.181249
0.00482074
0.181131
0.005442
0.180968
0.00604692
0.180763
0.00663468
0.180517
0.00720451
0.180232
0.00775574
0.17991
0.00828784
0.179553
0.00880075
0.179165
0.00929468
0.178749
0.00977148
0.178308
0.0102332
0.177844
0.0106868
0.17736
0.0111377
0.176853
0.0116024
0.0120902
0.175519
0.00134873
-0.17537
0.175619
0.00208789
0.175672
0.00281391
0.175679
0.00352584
0.17564
0.00422288
0.175557
0.00490417
0.17543
0.0055688
0.175261
0.00621579
0.175052
0.00684418
0.174803
0.00745296
0.174518
0.00804117
0.174198
0.00860786
0.173846
0.00915254
0.173466
0.00967464
0.173062
0.0101757
0.172638
0.0106565
0.1722
0.0111256
0.171751
0.0115863
0.171288
0.012065
0.0125683
0.170323
0.00122013
-0.170194
0.170404
0.00200634
0.17044
0.00277846
0.17043
0.00353561
0.170376
0.00427688
0.170279
0.00500134
0.17014
0.00570794
0.16996
0.00639561
0.169741
0.00706319
0.169484
0.00770943
0.169192
0.00833306
0.168868
0.00893264
0.168513
0.00950708
0.168133
0.0100548
0.167732
0.0105767
0.167317
0.0110711
0.166894
0.0115489
0.166473
0.0120069
0.16605
0.0124888
0.0129885
0.165503
0.00111235
-0.165395
0.165565
0.00194452
0.165581
0.00276169
0.165554
0.00356295
0.165484
0.00434734
0.165371
0.00511382
0.165218
0.00586126
0.165025
0.00658846
0.164794
0.00729409
0.164527
0.00797666
0.164225
0.00863456
0.163892
0.00926583
0.163531
0.00986869
0.163145
0.0104403
0.162741
0.0109805
0.162328
0.0114839
0.161913
0.011964
0.161516
0.0124041
0.161128
0.0128774
0.0133385
0.161007
0.00102488
-0.16092
0.16105
0.00190195
0.161048
0.00276316
0.161004
0.00360749
0.160917
0.00443394
0.160789
0.00524135
0.160622
0.00602856
0.160416
0.00679423
0.160174
0.00753688
0.159895
0.0082548
0.159584
0.00894606
0.159242
0.0096082
0.158872
0.0102387
0.158479
0.0108332
0.158069
0.0113904
0.157653
0.0118992
0.157241
0.012376
0.156865
0.0127809
0.156506
0.0132357
0.0135926
0.156788
0.000955884
-0.156719
0.156813
0.00187709
0.156795
0.00278116
0.156735
0.00366741
0.156634
0.0045347
0.156494
0.00538184
0.156315
0.00620758
0.156098
0.00701052
0.155846
0.00778905
0.15556
0.00854126
0.155241
0.00926496
0.154892
0.00995727
0.154516
0.010615
0.154116
0.0112323
0.153701
0.0118062
0.153281
0.012319
0.152869
0.0127881
0.152513
0.0131365
0.152179
0.0135696
0.0137197
0.152803
0.000903414
-0.152751
0.152813
0.00186708
0.152782
0.0028125
0.15271
0.00373911
0.152599
0.00464562
0.15245
0.00553081
0.152264
0.00639344
0.152043
0.00723202
0.151787
0.00804484
0.151499
0.00882987
0.151179
0.00958472
0.15083
0.0103062
0.150454
0.0109907
0.150055
0.011631
0.149639
0.0122231
0.149216
0.0127415
0.1488
0.013204
0.148466
0.0134711
0.148173
0.0138625
0.0136679
0.149013
-0.148976
0.000865909
0.149012
0.00186798
0.148972
0.00285278
0.148894
0.00381752
0.148778
0.00476085
0.148628
0.00568167
0.148442
0.00657874
0.148224
0.0074505
0.147973
0.00829519
0.147693
0.00911072
0.147383
0.00989462
0.147045
0.0106435
0.146682
0.0113536
0.146296
0.012017
0.14589
0.0126294
0.145473
0.0131589
0.145049
0.0136274
0.144699
0.0138219
0.144441
0.0141203
0.013025
0.254364
7.40773e-05
-0.254438
0.254327
3.6383e-05
0.254295
3.25436e-05
0.254253
4.14709e-05
0.254197
5.58978e-05
0.254124
7.37453e-05
0.25403
9.37107e-05
0.253915
0.00011467
0.253779
0.000135809
0.253623
0.000156621
0.253446
0.000176665
0.25325
0.000195663
0.253036
0.000214108
0.252803
0.00023306
0.252553
0.000250347
0.252287
0.000265521
0.252009
0.000278183
0.251721
0.000288241
0.251431
0.000289836
0.000289844
0.256222
-0.000241462
-0.255907
0.256476
-0.000217511
0.256685
-0.000176599
0.25685
-0.000122812
0.256968
-6.26617e-05
0.257041
1.24693e-06
0.257067
6.77711e-05
0.257045
0.00013582
0.256977
0.000204469
0.256861
0.000272783
0.256698
0.000339519
0.25649
0.000403434
0.256241
0.000463287
0.255943
0.00053071
0.255601
0.000592403
0.255217
0.000649543
0.254793
0.000701985
0.254332
0.000749663
0.253834
0.000787921
0.000820981
0.251655
-0.000898053
-0.250999
0.252239
-0.000801179
0.252757
-0.000694454
0.253212
-0.000578045
0.253605
-0.000455466
0.253935
-0.000328958
0.254203
-0.00019967
0.254407
-6.90082e-05
0.254549
6.30369e-05
0.254626
0.00019589
0.25464
0.00032571
0.254591
0.000452123
0.254477
0.000577428
0.254305
0.000702476
0.254074
0.000823349
0.253784
0.000939211
0.253437
0.00104959
0.253032
0.00115437
0.252568
0.00125162
0.00134412
0.243336
-0.00183356
-0.2424
0.244198
-0.00166395
0.244991
-0.00148706
0.245715
-0.00130216
0.24637
-0.00111093
0.246957
-0.00091517
0.247473
-0.000716234
0.24792
-0.000515382
0.248296
-0.000313304
0.248599
-0.000107226
0.24883
9.46512e-05
0.248993
0.000289346
0.249084
0.000485964
0.249107
0.000679562
0.249062
0.000869076
0.248947
0.0010536
0.248764
0.00123237
0.248514
0.00140504
0.248195
0.00157055
0.00172944
0.233252
-0.00296793
-0.232118
0.234318
-0.0027301
0.235316
-0.00248476
0.236245
-0.00223148
0.237106
-0.00197117
0.237896
-0.00170534
0.238615
-0.0014354
0.239262
-0.00116257
0.239837
-0.000887817
0.240341
-0.00061192
0.240774
-0.000338106
0.241131
-6.7791e-05
0.241416
0.000201099
0.241629
0.000466655
0.24177
0.000728484
0.241838
0.000985143
0.241835
0.0012359
0.24176
0.00148016
0.241613
0.00171711
0.00194668
0.222696
-0.00422877
-0.221435
0.223893
-0.00392762
0.225026
-0.00361738
0.226092
-0.00329821
0.227092
-0.00297092
0.228024
-0.00263694
0.228886
-0.00229784
0.229679
-0.00195508
0.230401
-0.00161011
0.231053
-0.00126427
0.231634
-0.000919125
0.232143
-0.000575964
0.232579
-0.00023565
0.232946
0.000100284
0.233241
0.000433315
0.233464
0.000762329
0.233615
0.00108465
0.233695
0.00140021
0.233704
0.00170837
0.00200889
0.21245
-0.00555851
-0.21112
0.213721
-0.00519821
0.21493
-0.00482672
0.216076
-0.00444469
0.217159
-0.00405315
0.218175
-0.00365373
0.219126
-0.00324823
0.220009
-0.00283839
0.220825
-0.00242586
0.221573
-0.0020121
0.222252
-0.00159851
0.222863
-0.0011865
0.223404
-0.000776873
0.223875
-0.000370362
0.224282
2.53639e-05
0.224618
0.00042658
0.224885
0.000818178
0.225082
0.00120245
0.225211
0.00157932
0.0019484
0.202927
-0.00691535
-0.20157
0.204228
-0.00649923
0.20547
-0.00606953
0.206653
-0.00562726
0.207774
-0.00517392
0.208832
-0.0047115
0.209825
-0.00424215
0.210755
-0.00376788
0.21162
-0.00329052
0.212419
-0.0028117
0.213154
-0.00233289
0.213823
-0.00185547
0.214426
-0.00138049
0.214965
-0.000908929
0.215432
-0.000442141
0.215845
1.37402e-05
0.216186
0.000477147
0.216463
0.000925789
0.216674
0.00136788
0.00180206
0.194284
-0.00827149
-0.192928
0.195587
-0.0078021
0.196834
-0.00731642
0.198022
-0.0068158
0.199151
-0.00630239
0.200218
-0.00577879
0.201224
-0.00524756
0.202167
-0.00471103
0.203047
-0.00417126
0.203866
-0.00363002
0.204622
-0.00308886
0.205315
-0.00254911
0.205947
-0.00201196
0.206516
-0.00147831
0.207024
-0.000949594
0.207464
-0.000427107
0.207851
9.06595e-05
0.208173
0.000604237
0.208433
0.00110767
0.00160323
0.18653
-0.00961018
-0.185191
0.187817
-0.00908948
0.18905
-0.00854931
0.190226
-0.00799137
0.191342
-0.00741885
0.192399
-0.00683515
0.193394
-0.00624337
0.194329
-0.00564617
0.195204
-0.00504587
0.196018
-0.00444436
0.196773
-0.0038432
0.197467
-0.00324372
0.198102
-0.00264706
0.198678
-0.00205418
0.199195
-0.00146609
0.199651
-0.000883699
0.20005
-0.000307734
0.200392
0.000262225
0.200674
0.000825199
0.00137868
0.179592
-0.0109227
-0.17828
0.180855
-0.0103524
0.182064
-0.00975854
0.183217
-0.00914351
0.18431
-0.00851208
0.185343
-0.00786871
0.186317
-0.00721708
0.187231
-0.00656028
0.188086
-0.00590081
0.188882
-0.00524066
0.189621
-0.00458138
0.190301
-0.00392422
0.190924
-0.00327025
0.19149
-0.00262041
0.192
-0.00197554
0.192453
-0.0013365
0.192849
-0.00070382
0.193191
-8.0426e-05
0.193478
0.000539024
0.00114772
0.173367
-0.0122061
-0.172083
0.174602
-0.011588
0.175784
-0.0109405
0.176908
-0.0102678
0.177973
-0.00957694
0.178978
-0.00887374
0.179924
-0.00816247
0.18081
-0.00744665
0.181638
-0.00672896
0.182409
-0.00601139
0.183123
-0.0052954
0.183781
-0.00458215
0.184383
-0.00387259
0.18493
-0.0031676
0.185423
-0.00246793
0.185861
-0.00177443
0.186245
-0.00108783
0.186574
-0.000409703
0.186853
0.000260119
0.000923435
0.167743
-0.0134612
-0.166488
0.168953
-0.0127975
0.170108
-0.0120957
0.171204
-0.0113638
0.17224
-0.0106125
0.173215
-0.00984872
0.17413
-0.00907753
0.174986
-0.00830286
0.175784
-0.0075275
0.176526
-0.00675334
0.177213
-0.00598166
0.177844
-0.00521349
0.178421
-0.00444963
0.178944
-0.00369085
0.179414
-0.00293786
0.179831
-0.00219147
0.180196
-0.00145217
0.180507
-0.000720664
0.18077
-3.74451e-06
0.000714189
0.162623
-0.0146917
-0.161392
0.163811
-0.0139858
0.164943
-0.0132277
0.166013
-0.012434
0.167021
-0.0116204
0.167967
-0.0107946
0.168852
-0.00996267
0.169678
-0.00912888
0.170447
-0.00829601
0.171159
-0.00746571
0.171817
-0.00663904
0.17242
-0.00581677
0.17297
-0.00499955
0.173467
-0.00418801
0.173912
-0.00338279
0.174305
-0.00258463
0.174647
-0.00179419
0.174939
-0.00101277
0.175178
-0.000242186
0.000521604
0.157922
-0.0159043
-0.156709
0.159096
-0.0151605
0.160211
-0.0143421
0.16126
-0.0134829
0.162243
-0.0126037
0.163162
-0.0117134
0.164018
-0.010819
0.164814
-0.00992528
0.165553
-0.00903468
0.166236
-0.00814845
0.166864
-0.00726727
0.167439
-0.00639158
0.167961
-0.00552179
0.168431
-0.00465835
0.16885
-0.00380181
0.169219
-0.00295288
0.169537
-0.0021123
0.169805
-0.00128102
0.170023
-0.000460163
0.000350522
0.153577
-0.0171117
-0.15237
0.154748
-0.0163319
0.155852
-0.0154458
0.156884
-0.0145151
0.157845
-0.0135648
0.158738
-0.0126056
0.159565
-0.0116463
0.160331
-0.0106915
0.161039
-0.00974286
0.161692
-0.00880098
0.162291
-0.00786593
0.162837
-0.00693764
0.163331
-0.00601615
0.163774
-0.00510174
0.164167
-0.00419483
0.164511
-0.00329603
0.164804
-0.0024061
0.165049
-0.00152586
0.165246
-0.000656502
0.000201001
0.149544
-0.0183428
-0.148312
0.150727
-0.0175153
0.151826
-0.0165452
0.152844
-0.0155331
0.153782
-0.0145023
0.154644
-0.0134682
0.15544
-0.0124414
0.156173
-0.0114248
0.156848
-0.0104185
0.157469
-0.00942192
0.158038
-0.00843423
0.158555
-0.00745462
0.159021
-0.00648268
0.159438
-0.00551845
0.159805
-0.00456224
0.160124
-0.00361459
0.160394
-0.00267625
0.160616
-0.0017481
0.160791
-0.00083111
7.23599e-05
0.145792
-0.0196625
-0.144472
0.147009
-0.0187324
0.148104
-0.0176409
0.149103
-0.0165317
0.150009
-0.015408
0.150833
-0.0142929
0.15159
-0.0131977
0.152286
-0.0121207
0.152926
-0.0110589
0.153514
-0.0100099
0.154051
-0.00897173
0.154539
-0.00794271
0.154979
-0.00692198
0.15537
-0.00590935
0.155712
-0.00490507
0.156008
-0.00390968
0.156255
-0.00292396
0.156456
-0.00194896
0.156611
-0.000985667
-3.60228e-05
0.142337
-0.0211404
-0.140859
0.143585
-0.0199809
0.144659
-0.0187146
0.145616
-0.0174882
0.146473
-0.0162651
0.147249
-0.0150689
0.147959
-0.0139085
0.148614
-0.0127756
0.149218
-0.0116626
0.149773
-0.0105649
0.150281
-0.00947925
0.150741
-0.00840314
0.151155
-0.00733546
0.151521
-0.00627597
0.151841
-0.00522495
0.152114
-0.00418302
0.152342
-0.00315103
0.152523
-0.00213017
0.152659
-0.00112191
-0.000127818
0.139249
-0.137831
-0.0225582
0.140411
-0.0211426
0.141445
-0.0197482
0.142321
-0.018365
0.14311
-0.0170542
0.143834
-0.0157924
0.144499
-0.0145735
0.145114
-0.0133902
0.145682
-0.0122315
0.146207
-0.0110892
0.146686
-0.00995877
0.147121
-0.00883761
0.14751
-0.00772461
0.147853
-0.00661965
0.148152
-0.0055232
0.148405
-0.00443605
0.148613
-0.00335916
0.148776
-0.00229354
0.148895
-0.00124078
-0.000208359
0.0308255
0.112032
-0.110549
-0.0323092
0.0293145
0.115036
-0.113525
0.0277734
0.118172
-0.116631
0.0261987
0.121464
-0.119889
0.0245872
0.124944
-0.123333
0.0229359
0.128655
-0.127004
0.0212429
0.132654
-0.130961
0.0195068
0.137022
-0.135285
0.0177268
0.141861
-0.140081
0.0159035
0.147303
-0.145479
0.0140384
0.153509
-0.151644
0.012136
0.160666
-0.158763
0.0102049
0.168975
-0.167044
0.00826215
0.178624
-0.176681
0.00633741
0.189736
-0.187812
0.00448088
0.202276
-0.20042
0.00277236
0.215907
-0.214198
0.00133234
0.229772
-0.228332
0.00033015
0.242089
-0.241086
0.249724
-0.249394
0.0306366
0.113508
-0.0321127
0.0291331
0.116539
0.0275999
0.119705
0.0260332
0.123031
0.0244299
0.126548
0.022787
0.130298
0.0211024
0.134339
0.0193744
0.13875
0.0176024
0.143633
0.0157867
0.149118
0.0139291
0.155366
0.0120343
0.16256
0.0101117
0.170897
0.00817881
0.180557
0.0062667
0.191649
0.00442702
0.204116
0.00274102
0.217593
0.00132868
0.231184
0.000353918
0.243063
0.250078
0.0304057
0.114975
-0.0318721
0.0289121
0.118033
0.0273888
0.121228
0.0258325
0.124587
0.0242395
0.128141
0.0226072
0.13193
0.0209331
0.136013
0.0192156
0.140467
0.0174538
0.145394
0.0156481
0.150924
0.0138005
0.157214
0.0119158
0.164445
0.010004
0.172809
0.0080834
0.182477
0.00618607
0.193546
0.00436466
0.205937
0.00270095
0.219256
0.00131326
0.232572
0.000356996
0.24402
0.250435
0.0301346
0.116429
-0.0315891
0.0286529
0.119514
0.0271418
0.12274
0.0255977
0.126131
0.0240173
0.129721
0.0223975
0.13355
0.020736
0.137675
0.019031
0.142172
0.0172816
0.147144
0.0154882
0.152718
0.0136527
0.15905
0.0117804
0.166317
0.00988169
0.174708
0.00797561
0.184384
0.00609496
0.195426
0.00429315
0.207739
0.00265212
0.220897
0.00128854
0.233935
0.000351936
0.244956
0.250787
0.0298254
0.11787
-0.0312661
0.0283576
0.120982
0.0268606
0.124237
0.0253306
0.127661
0.0237644
0.131287
0.022159
0.135155
0.020512
0.139322
0.0188214
0.143863
0.0170864
0.148879
0.0153073
0.154497
0.0134861
0.160871
0.0116283
0.168175
0.0097449
0.176591
0.00785541
0.186273
0.00599345
0.197288
0.0042131
0.20952
0.0025963
0.222514
0.0012581
0.235273
0.000343021
0.245871
0.25113
0.0294808
0.119296
-0.0309062
0.0280284
0.122435
0.0265469
0.125718
0.0250327
0.129175
0.0234823
0.132838
0.0218929
0.136745
0.020262
0.140953
0.0185877
0.145537
0.0168689
0.150598
0.0151059
0.15626
0.013301
0.162676
0.0114599
0.170016
0.0095938
0.178457
0.00772306
0.188144
0.00588193
0.19913
0.00412512
0.211276
0.0025345
0.224105
0.00122331
0.236585
0.00033142
0.246763
0.251462
0.0291035
0.120705
-0.0305126
0.0276677
0.12387
0.026203
0.127183
0.0247057
0.130673
0.0231725
0.134371
0.0216005
0.138317
0.0199872
0.142566
0.0183305
0.147194
0.0166296
0.152298
0.0148846
0.158005
0.0130978
0.164462
0.0112753
0.171839
0.0094287
0.180304
0.00757884
0.189994
0.00576072
0.200948
0.00402958
0.213008
0.00246711
0.225667
0.00118472
0.237867
0.000317839
0.24763
0.25178
0.0286964
0.122097
-0.0300885
0.0272779
0.125289
0.0258307
0.12863
0.0243513
0.132152
0.0228363
0.135886
0.0212828
0.13987
0.0196882
0.14416
0.0180508
0.148831
0.0163692
0.15398
0.0146438
0.15973
0.012877
0.166229
0.011075
0.173641
0.00924988
0.182129
0.00742302
0.19182
0.00563008
0.202741
0.00392677
0.214711
0.00239452
0.2272
0.00114287
0.239119
0.000302881
0.24847
0.252082
0.0282624
0.123472
-0.0296375
0.0268613
0.12669
0.025432
0.130059
0.023971
0.133613
0.0224749
0.137382
0.0209407
0.141404
0.0193661
0.145735
0.0177489
0.150448
0.0160881
0.155641
0.0143839
0.161435
0.0126388
0.167974
0.0108592
0.17542
0.00905759
0.183931
0.00725585
0.193622
0.00549028
0.204506
0.00381699
0.216384
0.0023171
0.228699
0.00109822
0.240337
0.000286962
0.249281
0.252369
0.0278043
0.12483
-0.0291631
0.0264201
0.128074
0.0250086
0.131471
0.0235661
0.135056
0.0220892
0.138859
0.020575
0.142919
0.0190211
0.147289
0.0174254
0.152044
0.0157867
0.15728
0.0141052
0.163116
0.0123835
0.169696
0.0106282
0.177176
0.00885203
0.185707
0.00707755
0.195397
0.00534156
0.206242
0.00370055
0.218025
0.0022352
0.230165
0.00105114
0.241522
0.000270328
0.250062
0.25264
0.0273244
0.126175
-0.0286685
0.0259561
0.129443
0.0245616
0.132865
0.0231372
0.13648
0.0216797
0.140316
0.020186
0.144412
0.0186536
0.148821
0.0170804
0.153617
0.015465
0.158895
0.0138077
0.164773
0.0121111
0.171392
0.010382
0.178905
0.00863336
0.187455
0.0068883
0.197142
0.00518416
0.207946
0.0035777
0.219632
0.00214911
0.231593
0.0010019
0.242669
0.000253139
0.250811
0.252893
0.0268244
0.127506
-0.0281562
0.02547
0.130797
0.0240913
0.134244
0.0226845
0.137887
0.0212463
0.141755
0.0197735
0.145885
0.0182634
0.150331
0.0167137
0.155167
0.015123
0.160486
0.0134915
0.166405
0.0118217
0.173062
0.0101206
0.180606
0.00840167
0.189174
0.00668827
0.198855
0.00501829