/*--------------------------------*- C++ -*----------------------------------*\
  =========                 |
  \\      /  F ield         | OpenFOAM: The Open Source CFD Toolbox
   \\    /   O peration     | Website:  https://openfoam.org
    \\  /    A nd           | Version:  6.0
     \\/     M anipulation  |
\*---------------------------------------------------------------------------*/
FoamFile
{
    version     2.0;
    format      ascii;
    class       volVectorField;
    location    "9";
    object      U;
}
// * * * * * * * * * * * * * * * * * * * * * * * * * * * * * * * * * * * * * //

dimensions      [0 1 -1 0 0 0 0];

internalField   nonuniform List<vector> 
19200
(
(0.00655714 -0.479901 -4.2984e-22)
(0.00478371 -0.443112 2.38314e-22)
(0.00263136 -0.409294 1.22345e-22)
(0.000122564 -0.378297 1.19552e-22)
(-0.00260652 -0.349939 1.46418e-22)
(-0.00541493 -0.324031 7.31192e-24)
(-0.00820476 -0.300383 2.34821e-22)
(-0.0109057 -0.278813 -2.45536e-23)
(-0.013467 -0.259144 2.33065e-22)
(-0.0158538 -0.24121 1.01944e-22)
(-0.0180441 -0.224854 -1.07879e-23)
(-0.0200256 -0.209931 1.81915e-22)
(-0.0217941 -0.196306 3.44123e-22)
(-0.0233515 -0.183855 -2.51227e-22)
(-0.0247043 -0.172465 3.34514e-22)
(-0.0258624 -0.162033 3.18296e-22)
(-0.0268387 -0.152463 -3.13004e-22)
(-0.027648 -0.14367 5.72774e-22)
(-0.0283063 -0.135577 -3.8462e-22)
(-0.0288306 -0.128114 1.94872e-22)
(-0.0292385 -0.121219 3.02093e-22)
(-0.0295475 -0.114836 -1.09423e-22)
(-0.0297749 -0.108916 1.49043e-22)
(-0.0299378 -0.103414 -1.89229e-22)
(-0.0300523 -0.0982947 4.85732e-24)
(-0.0301348 -0.0935214 1.12574e-22)
(-0.0302006 -0.0890638 -7.67293e-23)
(-0.0302542 -0.0848945 4.19469e-23)
(-0.0302871 -0.0809889 1.17201e-22)
(-0.0303883 -0.0773234 5.78802e-22)
(0.0191483 -0.479059 -1.03392e-22)
(0.016395 -0.441657 7.49009e-22)
(0.0133449 -0.407396 -4.18598e-22)
(0.0100337 -0.376094 -6.40994e-22)
(0.00659662 -0.347546 -3.24692e-22)
(0.00316928 -0.321543 -2.47401e-22)
(-0.000156768 -0.297877 -5.75997e-22)
(-0.00331762 -0.276351 6.9317e-23)
(-0.00626872 -0.256774 -1.12431e-22)
(-0.00898125 -0.238968 -4.81097e-22)
(-0.0114388 -0.222768 -1.37936e-21)
(-0.0136346 -0.20802 7.17518e-22)
(-0.0155695 -0.194581 -2.88606e-22)
(-0.0172498 -0.182323 1.10909e-22)
(-0.0186864 -0.171126 -7.55975e-22)
(-0.0198934 -0.160883 -3.05555e-22)
(-0.0208873 -0.151495 2.95833e-23)
(-0.0216862 -0.142874 1.15105e-21)
(-0.0223096 -0.13494 -5.97498e-22)
(-0.0227772 -0.12762 -3.44757e-22)
(-0.0231096 -0.120852 -1.54378e-21)
(-0.0233267 -0.114576 4.10314e-22)
(-0.0234485 -0.108744 -2.77295e-22)
(-0.0234941 -0.103312 5.23117e-22)
(-0.0234818 -0.0982401 -2.65764e-22)
(-0.0234301 -0.0934952 -4.32553e-22)
(-0.0233564 -0.0890464 1.34929e-22)
(-0.0232655 -0.0848671 2.47451e-22)
(-0.0231465 -0.0809324 -4.20948e-22)
(-0.0231011 -0.0772217 2.70762e-22)
(0.0316517 -0.477926 -4.92646e-23)
(0.0278978 -0.439925 1.29358e-22)
(0.0239567 -0.405248 2.23953e-22)
(0.0198565 -0.373674 2.21766e-21)
(0.0157297 -0.344974 -1.41229e-21)
(0.0117074 -0.318912 1.30441e-21)
(0.00787478 -0.295264 8.64034e-22)
(0.00428873 -0.273815 7.68175e-22)
(0.00098695 -0.25436 -7.81261e-22)
(-0.00200837 -0.236712 -1.3026e-22)
(-0.00468711 -0.220693 2.23215e-21)
(-0.0070484 -0.206143 4.2675e-22)
(-0.00909839 -0.192914 -1.20163e-21)
(-0.0108486 -0.180868 9.54493e-22)
(-0.0123144 -0.169883 -1.92496e-23)
(-0.0135142 -0.159846 4.70209e-22)
(-0.0144684 -0.150656 3.44039e-22)
(-0.0151989 -0.14222 1.3242e-21)
(-0.0157284 -0.134456 -5.63756e-22)
(-0.01608 -0.12729 -1.82361e-22)
(-0.016277 -0.120656 -5.94596e-22)
(-0.0163423 -0.114495 2.83871e-21)
(-0.0162984 -0.108757 -2.47172e-21)
(-0.0161669 -0.103396 7.95539e-22)
(-0.0159684 -0.0983736 4.67437e-22)
(-0.0157239 -0.0936563 -1.799e-21)
(-0.0154529 -0.0892139 2.47945e-21)
(-0.0151604 -0.0850201 -2.49292e-22)
(-0.0148323 -0.0810499 -2.98206e-22)
(-0.0145865 -0.0772859 -2.60202e-21)
(0.0440977 -0.476492 -1.55666e-21)
(0.0393143 -0.437929 -1.64389e-21)
(0.0344748 -0.402871 -2.20795e-21)
(0.0295928 -0.371065 7.84549e-24)
(0.0247937 -0.342251 1.39261e-22)
(0.0202015 -0.316168 -3.0802e-21)
(0.0158936 -0.292573 1.1948e-22)
(0.0119189 -0.271234 4.72181e-22)
(0.00830734 -0.251933 -6.29738e-23)
(0.0050738 -0.23447 9.46267e-22)
(0.00222149 -0.21866 -3.80384e-21)
(-0.000255073 -0.204334 -2.63297e-21)
(-0.00236791 -0.191335 9.42686e-22)
(-0.00413388 -0.179523 2.20762e-21)
(-0.00557336 -0.168768 -2.58723e-21)
(-0.00670922 -0.158954 -4.31406e-22)
(-0.00756607 -0.149976 -1.76124e-21)
(-0.00816958 -0.141739 -8.80952e-22)
(-0.00854606 -0.134158 1.60932e-21)
(-0.00872196 -0.127156 -2.12786e-21)
(-0.00872363 -0.120665 2.01997e-21)
(-0.00857703 -0.114625 -2.40946e-21)
(-0.00830737 -0.108985 -2.03986e-21)
(-0.00793896 -0.103698 -1.59895e-21)
(-0.00749499 -0.0987256 -4.12642e-22)
(-0.00699891 -0.0940343 -3.55627e-21)
(-0.00647303 -0.0895946 3.81924e-22)
(-0.00592232 -0.0853804 7.16761e-22)
(-0.00532841 -0.0813659 -2.20824e-21)
(-0.00482857 -0.0775384 4.36918e-22)
(0.0564891 -0.474746 -9.03404e-22)
(0.0506508 -0.435675 1.59457e-22)
(0.0449043 -0.400283 1.46948e-21)
(0.0392471 -0.368289 1.68129e-21)
(0.0337934 -0.339401 1.32771e-21)
(0.0286575 -0.313338 5.93068e-22)
(0.0239072 -0.289833 9.54668e-22)
(0.0195821 -0.268637 4.84532e-21)
(0.0157035 -0.249522 -2.9873e-21)
(0.0122779 -0.232274 6.25814e-23)
(0.00930114 -0.2167 7.85303e-22)
(0.00676074 -0.202621 3.92713e-21)
(0.00463842 -0.189876 -2.77855e-21)
(0.00291161 -0.178317 2.14661e-21)
(0.00155473 -0.167811 -2.57351e-21)
(0.000540143 -0.158237 4.65846e-21)
(-0.00016111 -0.149487 -1.39059e-21)
(-0.000578731 -0.141462 5.44219e-23)
(-0.00074273 -0.134075 2.64473e-21)
(-0.000683072 -0.127247 2.03847e-21)
(-0.000429377 -0.120907 -2.07961e-21)
(-1.06838e-05 -0.114995 2.99794e-21)
(0.00054478 -0.109457 -1.46586e-21)
(0.00120985 -0.104247 1.73251e-21)
(0.00195858 -0.0993247 2.52288e-21)
(0.00276471 -0.0946571 1.03144e-21)
(0.00360281 -0.090215 3.19514e-21)
(0.00446825 -0.0859732 -1.01314e-21)
(0.00538414 -0.0819039 -2.61415e-22)
(0.00619065 -0.0780005 -2.22224e-21)
(0.0688212 -0.472691 -6.63859e-22)
(0.061907 -0.43317 -4.8358e-22)
(0.0552485 -0.397498 -1.67179e-21)
(0.0488246 -0.365364 -4.84102e-21)
(0.0427357 -0.336449 1.62045e-21)
(0.0370843 -0.310446 1.28706e-22)
(0.0319264 -0.287069 -1.32353e-21)
(0.0272912 -0.266053 3.28063e-22)
(0.0231899 -0.247155 -1.62866e-22)
(0.0196202 -0.230152 -4.29093e-21)
(0.0165695 -0.214839 1.7892e-21)
(0.014018 -0.201032 3.44779e-21)
(0.0119407 -0.188563 -2.61672e-23)
(0.0103089 -0.177277 1.43028e-21)
(0.0090916 -0.167039 3.89335e-21)
(0.00825619 -0.157722 -2.84101e-21)
(0.00776916 -0.149214 5.2485e-21)
(0.00759665 -0.141415 -2.69243e-21)
(0.00770478 -0.134234 5.01165e-21)
(0.00805997 -0.127589 -3.94158e-21)
(0.00862916 -0.12141 1.81434e-21)
(0.00938009 -0.115633 5.2674e-21)
(0.0102812 -0.110201 5.07725e-22)
(0.0113026 -0.10507 -5.30944e-21)
(0.0124152 -0.100197 3.10074e-21)
(0.0135895 -0.0955499 3.85373e-22)
(0.0147971 -0.0911001 -1.16214e-21)
(0.0160332 -0.0868217 4.49401e-21)
(0.0173267 -0.0826854 1.77454e-21)
(0.0184918 -0.0786916 -1.8612e-21)
(0.081088 -0.470331 1.94837e-21)
(0.0730817 -0.430424 1.16617e-22)
(0.0655101 -0.394529 -3.38891e-21)
(0.0583313 -0.362308 7.30609e-22)
(0.0516295 -0.333415 -1.18051e-21)
(0.0454931 -0.307516 7.86911e-22)
(0.0399649 -0.284306 2.00533e-21)
(0.035062 -0.263505 4.07548e-21)
(0.0307845 -0.244857 -4.75115e-21)
(0.0271203 -0.228127 1.16576e-21)
(0.0240478 -0.213103 -1.00733e-21)
(0.0215393 -0.199592 7.61487e-22)
(0.0195625 -0.18742 -3.41611e-21)
(0.0180825 -0.176428 -3.25841e-22)
(0.0170625 -0.166474 6.33106e-21)
(0.0164647 -0.15743 -4.42616e-21)
(0.0162509 -0.14918 -3.08902e-21)
(0.0163829 -0.14162 -2.50103e-21)
(0.0168229 -0.134657 4.47222e-21)
(0.0175336 -0.128207 1.07997e-21)
(0.0184784 -0.122196 -5.02698e-21)
(0.0196215 -0.11656 7.08785e-21)
(0.0209283 -0.11124 -6.63959e-21)
(0.0223653 -0.106189 4.67953e-21)
(0.0239005 -0.101366 -2.7433e-21)
(0.0255011 -0.0967359 1.90352e-21)
(0.0271348 -0.0922719 1.59014e-21)
(0.0287971 -0.0879473 -7.06646e-21)
(0.0305232 -0.08373 3.10494e-21)
(0.0320977 -0.0796293 6.83386e-23)
(0.0932831 -0.467671 -1.92129e-21)
(0.0841732 -0.427446 1.64542e-21)
(0.0756921 -0.391391 -3.63786e-21)
(0.0677743 -0.35914 7.21471e-21)
(0.0604854 -0.330317 -2.15045e-21)
(0.0538977 -0.304568 3.42884e-21)
(0.0480392 -0.281567 5.46836e-23)
(0.0429134 -0.261017 -4.54722e-22)
(0.0385085 -0.242651 -8.58063e-22)
(0.0348013 -0.226224 -5.44406e-23)
(0.0317609 -0.211514 -3.7274e-21)
(0.0293508 -0.198322 1.96822e-21)
(0.0275313 -0.186468 -2.65831e-21)
(0.0262608 -0.175788 -1.83734e-22)
(0.0254964 -0.166137 -8.37214e-21)
(0.025195 -0.157382 2.76266e-21)
(0.0253137 -0.149404 1.82297e-21)
(0.0258098 -0.142096 -2.07844e-21)
(0.0266415 -0.135362 -2.35839e-22)
(0.0277676 -0.129117 -3.57825e-21)
(0.0291478 -0.123283 -1.35465e-21)
(0.030743 -0.117795 1.98424e-22)
(0.0325148 -0.112592 -3.65058e-21)
(0.0344267 -0.107624 -5.87294e-21)
(0.0364431 -0.10285 2.02999e-22)
(0.0385275 -0.0982343 -7.61063e-22)
(0.0406435 -0.0937496 2.15413e-21)
(0.0427869 -0.0893683 -5.57284e-21)
(0.0449997 -0.0850549 4.97449e-21)
(0.0470337 -0.0808292 -1.13209e-20)
(0.1054 -0.464715 -4.67308e-21)
(0.0951805 -0.424247 6.45768e-21)
(0.0857985 -0.388097 -7.48718e-21)
(0.077162 -0.355874 -2.25845e-21)
(0.0693157 -0.327176 -1.59739e-21)
(0.062314 -0.301623 -1.85895e-21)
(0.0561684 -0.278871 -1.73726e-21)
(0.0508675 -0.25861 -3.07989e-22)
(0.0463863 -0.240558 -1.94433e-21)
(0.0426899 -0.224461 -4.47411e-22)
(0.0397371 -0.210091 4.01195e-21)
(0.0374823 -0.19724 -2.09591e-21)
(0.0358781 -0.185724 -2.8342e-21)
(0.0348756 -0.175375 -5.32875e-21)
(0.0344258 -0.166043 1.16567e-20)
(0.0344802 -0.157592 -4.71615e-21)
(0.0349908 -0.149899 1.86825e-21)
(0.0359106 -0.142856 -7.5493e-21)
(0.0371935 -0.136363 2.95168e-21)
(0.0387947 -0.130333 -1.36253e-21)
(0.04067 -0.124685 1.65687e-21)
(0.0427766 -0.119352 -6.34889e-22)
(0.0450728 -0.114271 6.12888e-21)
(0.0475184 -0.10939 -2.24905e-21)
(0.0500741 -0.104665 6.73313e-21)
(0.0526993 -0.100061 -1.68128e-21)
(0.0553535 -0.0955487 9.38953e-21)
(0.058032 -0.0910999 2.94172e-21)
(0.0607849 -0.0866743 5.70094e-21)
(0.0633272 -0.0823042 -1.9724e-20)
(0.117434 -0.461469 7.35678e-21)
(0.106103 -0.420834 -1.51906e-21)
(0.0958343 -0.38466 3.31262e-21)
(0.0865043 -0.352527 -1.00874e-21)
(0.0781348 -0.324008 3.66364e-21)
(0.0707604 -0.298698 3.80896e-21)
(0.0643745 -0.276238 4.62064e-21)
(0.0589492 -0.256301 -4.48156e-22)
(0.0544455 -0.238595 -5.18342e-21)
(0.0508159 -0.222856 7.76539e-21)
(0.0480082 -0.208849 -8.32896e-22)
(0.0459674 -0.196361 6.19043e-21)
(0.0446375 -0.185202 2.42817e-21)
(0.0439624 -0.1752 8.53507e-22)
(0.0438868 -0.166201 1.48245e-21)
(0.0443566 -0.158068 2.23449e-21)
(0.0453187 -0.150674 4.07151e-21)
(0.0467217 -0.143907 -1.31656e-21)
(0.0485153 -0.137667 6.75166e-21)
(0.0506508 -0.131861 3.4057e-21)
(0.0530803 -0.126409 -7.27174e-21)
(0.0557574 -0.121239 1.36911e-20)
(0.0586367 -0.116286 -1.89551e-20)
(0.0616741 -0.111496 1.87646e-20)
(0.0648268 -0.106822 -6.46448e-21)
(0.0680494 -0.102226 1.18071e-21)
(0.0712968 -0.0976806 -9.53716e-21)
(0.0745642 -0.0931538 5.41454e-21)
(0.0779095 -0.0885993 2.10596e-21)
(0.0810077 -0.0840646 -2.9199e-21)
(0.129378 -0.457937 -4.19236e-21)
(0.116942 -0.417218 4.8706e-21)
(0.105806 -0.381092 -1.38547e-21)
(0.0958127 -0.349114 4.29847e-21)
(0.0869592 -0.320828 4.51082e-22)
(0.0792577 -0.295811 1.23369e-21)
(0.0726818 -0.273684 -9.10372e-21)
(0.0671865 -0.254107 -1.78238e-21)
(0.062717 -0.236777 6.73255e-21)
(0.0592127 -0.221423 5.66188e-21)
(0.0566097 -0.207801 -1.00309e-20)
(0.0548429 -0.195694 6.24328e-21)
(0.0538477 -0.184909 -6.49274e-21)
(0.0535604 -0.175269 4.91424e-21)
(0.0539192 -0.166618 -8.60728e-21)
(0.0548642 -0.158814 -6.9229e-21)
(0.0563375 -0.15173 2.17889e-22)
(0.0582829 -0.145252 -3.67012e-21)
(0.0606462 -0.139274 6.35316e-21)
(0.0633747 -0.133703 2.76516e-21)
(0.066417 -0.128456 -1.8065e-21)
(0.0697228 -0.123457 -5.20467e-22)
(0.073243 -0.118639 2.62222e-21)
(0.0769298 -0.113944 -8.70226e-21)
(0.0807362 -0.109323 1.51512e-20)
(0.0846123 -0.104736 -3.65995e-21)
(0.0885072 -0.100152 -4.68114e-22)
(0.0924164 -0.0955375 1.52364e-20)
(0.0964055 -0.0908376 2.41951e-21)
(0.100106 -0.0861176 -2.43929e-21)
(0.141228 -0.454125 2.04343e-22)
(0.127698 -0.413408 -2.49563e-21)
(0.11572 -0.377406 -2.57026e-21)
(0.105101 -0.345647 -4.65581e-21)
(0.0958073 -0.317653 1.85078e-22)
(0.0878289 -0.292977 -4.03185e-21)
(0.0811178 -0.271223 4.83347e-21)
(0.0756101 -0.252041 -4.87989e-22)
(0.0712346 -0.235116 4.78651e-21)
(0.0679167 -0.22017 -3.80575e-21)
(0.0655801 -0.206954 -2.15885e-21)
(0.0641493 -0.195246 1.26765e-21)
(0.0635505 -0.184849 7.3533e-22)
(0.0637123 -0.175584 -8.1906e-21)
(0.0645662 -0.167291 4.93676e-21)
(0.0660465 -0.159828 -2.75912e-21)
(0.0680903 -0.153065 7.87406e-21)
(0.070637 -0.146883 -2.78606e-21)
(0.0736283 -0.141178 2.96937e-21)
(0.0770077 -0.135852 8.26874e-22)
(0.0807203 -0.130818 5.8161e-21)
(0.0847121 -0.125999 -1.13767e-21)
(0.0889303 -0.121324 1.05831e-20)
(0.093323 -0.116731 -1.20478e-20)
(0.097839 -0.112167 -4.41821e-21)
(0.102424 -0.10759 3.75824e-21)
(0.10702 -0.102964 -2.25193e-22)
(0.111622 -0.0982535 -7.20837e-21)
(0.116306 -0.0933927 5.99218e-21)
(0.120654 -0.0884667 -8.11719e-21)
(0.152979 -0.450037 7.18852e-21)
(0.138373 -0.409413 2.17223e-21)
(0.125587 -0.373613 2.87064e-21)
(0.114383 -0.342141 4.26759e-21)
(0.1047 -0.314495 6.86667e-21)
(0.0964996 -0.290207 -2.3278e-22)
(0.0897123 -0.268868 1.02597e-21)
(0.0842537 -0.250113 9.45095e-21)
(0.0800354 -0.233621 -1.93013e-21)
(0.0769677 -0.219105 -3.99902e-21)
(0.0749615 -0.206313 7.42436e-21)
(0.0739303 -0.195019 1.44836e-21)
(0.0737909 -0.185021 1.73363e-23)
(0.0744639 -0.17614 2.00125e-21)
(0.0758741 -0.168216 3.98972e-21)
(0.0779498 -0.161101 -8.82377e-21)
(0.0806232 -0.154665 7.73773e-21)
(0.0838294 -0.148789 1.38245e-21)
(0.0875062 -0.143364 8.63231e-21)
(0.0915934 -0.138292 -4.78143e-21)
(0.0960326 -0.133481 8.48704e-21)
(0.100766 -0.128851 -9.46483e-21)
(0.105738 -0.124328 9.54254e-21)
(0.110892 -0.119845 1.62977e-21)
(0.116172 -0.115344 -6.92541e-21)
(0.121519 -0.110779 -2.56975e-21)
(0.126869 -0.106112 1.47989e-20)
(0.132216 -0.101299 1.11315e-20)
(0.137644 -0.0962631 3.07919e-21)
(0.142683 -0.0911121 -2.76003e-21)
(0.164626 -0.445679 7.49655e-22)
(0.148972 -0.405241 2.03871e-21)
(0.135416 -0.369722 8.96197e-21)
(0.123677 -0.338606 -1.51641e-20)
(0.113659 -0.311365 -1.69949e-21)
(0.105298 -0.287514 -1.85805e-21)
(0.0984976 -0.266628 8.17809e-22)
(0.0931537 -0.248332 1.26832e-21)
(0.0891591 -0.232297 2.33327e-21)
(0.0864083 -0.218231 -6.56673e-21)
(0.0847989 -0.205878 -1.5737e-21)
(0.0842328 -0.195008 4.00833e-21)
(0.0846171 -0.185419 4.84729e-21)
(0.0858644 -0.176929 -4.85643e-21)
(0.0878923 -0.169377 -5.45345e-21)
(0.0906236 -0.162616 8.56882e-21)
(0.0939853 -0.156514 6.14439e-21)
(0.0979083 -0.150948 -1.47685e-21)
(0.102327 -0.145811 -4.28448e-21)
(0.107177 -0.140999 8.53373e-22)
(0.112398 -0.13642 -1.1197e-20)
(0.117927 -0.131988 1.39806e-20)
(0.123707 -0.127626 -9.97213e-21)
(0.129675 -0.123262 -5.82502e-22)
(0.135773 -0.118834 7.11484e-21)
(0.141935 -0.114288 -2.36732e-21)
(0.14809 -0.109582 -7.62108e-21)
(0.154232 -0.104664 9.53016e-21)
(0.160451 -0.099442 -3.12772e-22)
(0.166223 -0.0940493 2.01808e-21)
(0.176166 -0.441056 -4.97218e-22)
(0.159498 -0.400901 -2.04393e-21)
(0.145219 -0.365746 -1.03405e-20)
(0.133001 -0.335053 3.77699e-21)
(0.12271 -0.308275 -1.33756e-21)
(0.114253 -0.284906 4.35773e-21)
(0.107509 -0.26451 3.19388e-22)
(0.102349 -0.246703 -6.02583e-21)
(0.0986482 -0.231147 9.51216e-21)
(0.096284 -0.217548 -9.01728e-21)
(0.09514 -0.205644 -5.06394e-22)
(0.0951064 -0.195207 2.4857e-21)
(0.0960802 -0.186031 -4.51257e-21)
(0.0979656 -0.177935 5.54478e-21)
(0.100673 -0.170758 -1.10038e-20)
(0.10412 -0.164351 -2.87828e-21)
(0.108228 -0.158583 7.13065e-21)
(0.112924 -0.153331 -1.97719e-22)
(0.118139 -0.148484 -5.45964e-21)
(0.123805 -0.143939 1.4861e-20)
(0.12986 -0.139599 -7.99043e-21)
(0.136238 -0.135376 -1.16437e-20)
(0.142876 -0.131185 4.10854e-21)
(0.14971 -0.126952 -1.25322e-20)
(0.156677 -0.122607 -3.32878e-21)
(0.163705 -0.11809 -5.86932e-22)
(0.170715 -0.113353 -9.52175e-21)
(0.177699 -0.10833 1.13741e-20)
(0.184757 -0.102916 -6.75979e-21)
(0.191304 -0.0972688 8.73638e-21)
(0.187594 -0.436173 -2.53414e-21)
(0.169956 -0.396401 -8.26311e-21)
(0.15501 -0.361692 4.50806e-21)
(0.142374 -0.331491 -4.55308e-21)
(0.131879 -0.305232 -3.69355e-21)
(0.123398 -0.282392 -2.37397e-21)
(0.116782 -0.262521 -8.82217e-21)
(0.111881 -0.245228 6.2492e-21)
(0.108547 -0.230171 -1.64762e-20)
(0.106643 -0.21705 -6.63048e-21)
(0.106035 -0.205605 2.16951e-21)
(0.106603 -0.195603 4.17335e-21)
(0.108234 -0.18684 9.82445e-23)
(0.110822 -0.179137 -9.00404e-21)
(0.114271 -0.172331 2.15493e-21)
(0.118493 -0.166276 -9.2655e-21)
(0.123404 -0.160839 -7.1587e-21)
(0.128928 -0.155899 -4.7161e-21)
(0.134991 -0.151344 -1.28784e-21)
(0.141526 -0.147068 7.91737e-21)
(0.148464 -0.142973 1.2245e-20)
(0.155739 -0.138966 -3.85339e-21)
(0.163284 -0.13496 -3.97448e-21)
(0.171033 -0.130871 7.83302e-21)
(0.178918 -0.126623 4.64308e-21)
(0.186859 -0.122148 -3.68687e-21)
(0.194773 -0.117391 -4.40681e-21)
(0.202647 -0.112274 3.97273e-22)
(0.210589 -0.106665 5.08468e-21)
(0.217951 -0.100755 7.72053e-21)
(0.198908 -0.431036 -6.45954e-22)
(0.180352 -0.391748 1.06907e-20)
(0.164802 -0.357569 9.08814e-21)
(0.15182 -0.32793 7.60712e-21)
(0.141194 -0.302244 -5.09721e-21)
(0.132766 -0.279975 -1.08256e-21)
(0.126357 -0.260662 9.37974e-22)
(0.121793 -0.243907 8.00998e-21)
(0.118904 -0.229364 3.22876e-21)
(0.117534 -0.216732 8.26097e-21)
(0.117537 -0.205747 -1.20993e-20)
(0.118778 -0.19618 1.14992e-21)
(0.121133 -0.187827 5.40015e-21)
(0.12449 -0.180509 3.58437e-21)
(0.128743 -0.174066 8.09842e-21)
(0.133798 -0.168353 -5.355e-21)
(0.139569 -0.16324 -5.56053e-21)
(0.145973 -0.158606 8.92153e-22)
(0.152936 -0.154338 1.29164e-20)
(0.160386 -0.150331 -2.16523e-20)
(0.168254 -0.146485 7.67271e-21)
(0.176471 -0.142702 -1.23465e-22)
(0.184969 -0.13889 1.63666e-20)
(0.193677 -0.13496 -7.11511e-21)
(0.202524 -0.130827 -2.43721e-22)
(0.211426 -0.126414 -5.04393e-21)
(0.220288 -0.121656 4.88126e-21)
(0.229098 -0.116456 1.24988e-21)
(0.237968 -0.110661 -6.18782e-21)
(0.246182 -0.104488 2.29408e-20)
(0.210106 -0.425649 -1.01608e-20)
(0.190694 -0.386949 -6.59487e-21)
(0.174612 -0.353385 -1.82337e-20)
(0.16136 -0.324375 -9.07497e-21)
(0.150685 -0.299317 8.74373e-21)
(0.142393 -0.277659 -5.67724e-21)
(0.136275 -0.258934 -1.60154e-21)
(0.132129 -0.242737 -4.27679e-21)
(0.129765 -0.228721 7.33363e-21)
(0.129009 -0.216581 -1.78346e-21)
(0.129699 -0.206057 -2.89812e-21)
(0.131686 -0.196918 -4.14936e-22)
(0.134836 -0.188964 -1.38849e-20)
(0.139027 -0.182019 -1.04325e-21)
(0.144146 -0.175924 3.69028e-21)
(0.150094 -0.17054 -4.91873e-22)
(0.156778 -0.165736 -1.71395e-20)
(0.164114 -0.161395 1.7327e-20)
(0.172024 -0.157406 -1.792e-20)
(0.180434 -0.153662 7.19647e-21)
(0.189274 -0.150063 1.04235e-21)
(0.198474 -0.14651 4.56314e-22)
(0.207963 -0.142904 -8.64468e-21)
(0.217671 -0.139149 3.11325e-21)
(0.227521 -0.135151 7.12202e-23)
(0.237423 -0.130824 1.14316e-21)
(0.247277 -0.126088 -2.58376e-20)
(0.257065 -0.12083 6.71691e-21)
(0.266904 -0.114862 7.85093e-21)
(0.276009 -0.108436 1.06011e-20)
(0.221183 -0.420018 2.01197e-20)
(0.200989 -0.382011 8.09455e-21)
(0.184455 -0.349146 4.9882e-21)
(0.17102 -0.320832 8.14932e-21)
(0.160384 -0.296453 -1.15154e-21)
(0.152316 -0.275446 7.02902e-21)
(0.146576 -0.257335 1.66258e-20)
(0.142935 -0.241714 -2.06716e-21)
(0.141182 -0.228231 1.10391e-21)
(0.141121 -0.216585 2.3286e-20)
(0.142576 -0.206515 -2.95264e-21)
(0.145384 -0.197793 3.56569e-21)
(0.1494 -0.190223 -1.5559e-21)
(0.154492 -0.183632 -5.85211e-22)
(0.16054 -0.177866 2.12885e-20)
(0.167438 -0.172787 8.26881e-22)
(0.175089 -0.168271 2.51227e-20)
(0.183406 -0.164204 -3.02775e-21)
(0.192307 -0.160476 -5.99192e-21)
(0.201717 -0.156984 1.43406e-20)
(0.211566 -0.153626 -1.39263e-20)
(0.221783 -0.150303 1.55854e-20)
(0.232298 -0.146911 8.82304e-21)
(0.243039 -0.143348 -7.64654e-21)
(0.253925 -0.13951 1.16051e-20)
(0.264865 -0.135298 1.36559e-21)
(0.275748 -0.130618 -5.58946e-21)
(0.286552 -0.125334 2.47733e-21)
(0.297402 -0.11922 2.02231e-20)
(0.307434 -0.112561 3.45293e-21)
(0.232139 -0.414148 -3.45194e-21)
(0.211245 -0.37694 -7.94796e-21)
(0.194349 -0.344857 3.60872e-21)
(0.180824 -0.317304 -1.47133e-20)
(0.170321 -0.293654 7.54785e-21)
(0.162572 -0.273333 -1.45072e-20)
(0.157303 -0.255861 -1.03449e-20)
(0.154258 -0.240827 2.91606e-21)
(0.153202 -0.227883 3.4758e-21)
(0.153922 -0.216727 -1.56603e-20)
(0.156222 -0.2071 -7.26881e-21)
(0.159928 -0.19878 3.65009e-21)
(0.164883 -0.191573 -1.00327e-20)
(0.170943 -0.18531 -4.2695e-21)
(0.177983 -0.179844 -3.06583e-21)
(0.185889 -0.175042 -3.16583e-21)
(0.194559 -0.170784 -1.3982e-20)
(0.203902 -0.166962 -9.40078e-21)
(0.213836 -0.16347 1.38505e-21)
(0.224283 -0.160209 3.15735e-21)
(0.235172 -0.157079 3.72644e-21)
(0.246435 -0.153979 -1.28137e-20)
(0.258001 -0.150806 5.05308e-21)
(0.269799 -0.14745 -1.07502e-20)
(0.281749 -0.143797 1.06943e-20)
(0.293754 -0.139735 -1.41705e-20)
(0.305698 -0.135154 4.87334e-21)
(0.317555 -0.129888 -7.30038e-21)
(0.329452 -0.123669 -1.0996e-20)
(0.340446 -0.116813 -1.31367e-21)
(0.242972 -0.408044 -7.36013e-21)
(0.221471 -0.371742 -7.16436e-21)
(0.204313 -0.340523 -7.65253e-21)
(0.190799 -0.313795 -6.25444e-21)
(0.180531 -0.29092 1.93249e-20)
(0.173199 -0.271318 3.00603e-21)
(0.168499 -0.254503 9.23005e-21)
(0.166144 -0.240068 1.49829e-20)
(0.165877 -0.227662 7.82448e-21)
(0.167463 -0.216987 -1.03898e-20)
(0.170692 -0.207789 1.8331e-20)
(0.175374 -0.199848 -1.82579e-20)
(0.18134 -0.192977 1.82295e-20)
(0.188438 -0.187013 2.32886e-21)
(0.196533 -0.181812 5.06501e-21)
(0.205504 -0.177249 1.59012e-21)
(0.215244 -0.173211 2.25442e-20)
(0.225659 -0.169595 -3.40861e-21)
(0.236662 -0.166303 3.26049e-21)
(0.248177 -0.163241 1.16246e-20)
(0.260132 -0.160314 -1.3213e-20)
(0.272461 -0.157424 1.10898e-20)
(0.285095 -0.154466 5.06779e-22)
(0.297966 -0.151327 5.38091e-21)
(0.310996 -0.147885 1.02465e-20)
(0.324086 -0.144012 -1.79272e-21)
(0.337115 -0.13958 1.08488e-20)
(0.350053 -0.134391 1.64453e-20)
(0.363033 -0.128125 -1.78374e-20)
(0.375025 -0.121126 -1.2858e-20)
(0.253681 -0.401711 2.22288e-20)
(0.231678 -0.366419 -2.58394e-21)
(0.214366 -0.336147 5.85896e-21)
(0.200972 -0.310304 1.15914e-20)
(0.191045 -0.288248 -3.49862e-20)
(0.184236 -0.269393 3.96423e-21)
(0.180205 -0.253253 -1.49429e-20)
(0.178638 -0.239421 1.58158e-20)
(0.179252 -0.22755 -1.29341e-20)
(0.181794 -0.217345 7.80342e-21)
(0.186037 -0.208556 -2.85171e-20)
(0.191775 -0.20097 3.71099e-22)
(0.198828 -0.194403 -1.08357e-20)
(0.207032 -0.188698 1.63646e-20)
(0.216245 -0.18372 -1.81698e-20)
(0.226338 -0.179351 -1.04946e-21)
(0.237199 -0.175485 -1.63012e-20)
(0.248728 -0.172026 -1.50858e-21)
(0.260837 -0.168886 1.55588e-21)
(0.273447 -0.165978 4.27691e-21)
(0.286488 -0.163216 -2.36415e-20)
(0.299896 -0.160507 -8.44275e-22)
(0.313605 -0.157749 -1.42275e-20)
(0.327553 -0.15483 -3.46976e-21)
(0.341666 -0.151619 -9.44059e-21)
(0.355847 -0.147977 -1.07218e-20)
(0.369974 -0.143755 -1.17125e-20)
(0.384016 -0.138717 1.90826e-20)
(0.398108 -0.132481 5.27599e-21)
(0.411133 -0.125417 -1.23212e-20)
(0.264264 -0.395154 -1.48385e-20)
(0.241876 -0.360977 5.94514e-21)
(0.224527 -0.331728 -1.10427e-20)
(0.211369 -0.306828 1.71508e-21)
(0.201896 -0.285632 2.02847e-20)
(0.195719 -0.26755 -1.06224e-20)
(0.192462 -0.252098 -1.21398e-20)
(0.191783 -0.238872 -1.0621e-20)
(0.193374 -0.227528 4.01084e-22)
(0.196963 -0.217778 7.38771e-21)
(0.202304 -0.209375 -5.90695e-21)
(0.209179 -0.202112 -3.15119e-23)
(0.217394 -0.195813 1.98103e-20)
(0.226776 -0.190327 -1.02757e-20)
(0.237171 -0.185524 3.0738e-21)
(0.248445 -0.181295 -9.31038e-21)
(0.260477 -0.177543 3.5608e-21)
(0.273163 -0.174181 8.25531e-21)
(0.286411 -0.171131 9.98344e-21)
(0.300141 -0.168317 -1.11239e-20)
(0.314283 -0.165664 1.64286e-21)
(0.328775 -0.163088 1.03523e-20)
(0.343557 -0.160498 1.87499e-20)
(0.358572 -0.157785 5.32561e-21)
(0.373756 -0.154816 -2.04061e-20)
(0.38902 -0.151444 2.46629e-20)
(0.404243 -0.147498 -1.24941e-20)
(0.419398 -0.142699 -1.55544e-20)
(0.434627 -0.136595 -9.86097e-21)
(0.448718 -0.12957 -1.58786e-20)
(0.27472 -0.388377 8.13616e-21)
(0.252075 -0.355416 -7.02985e-21)
(0.234817 -0.327267 2.60195e-21)
(0.222017 -0.303364 1.58843e-20)
(0.213118 -0.283063 4.59083e-21)
(0.207685 -0.265776 -4.20521e-21)
(0.20531 -0.251022 1.03914e-20)
(0.205619 -0.2384 2.15854e-21)
(0.208285 -0.227574 1.09755e-20)
(0.213011 -0.21826 6.3487e-21)
(0.219537 -0.210218 1.64086e-22)
(0.227631 -0.203246 4.42032e-21)
(0.237084 -0.197175 -1.47094e-21)
(0.247713 -0.19186 2.68378e-21)
(0.259356 -0.187181 7.84099e-21)
(0.271869 -0.183033 -4.55435e-21)
(0.285124 -0.179329 1.1698e-20)
(0.299011 -0.175993 1.24675e-20)
(0.313434 -0.172957 -1.47954e-20)
(0.328309 -0.17016 1.53843e-20)
(0.343565 -0.167538 3.45201e-20)
(0.359141 -0.165025 -2.29249e-20)
(0.374984 -0.162544 2.40303e-20)
(0.391045 -0.159997 -1.71433e-20)
(0.407271 -0.15726 -2.56458e-21)
(0.423588 -0.154183 1.9844e-20)
(0.439886 -0.150578 -3.93328e-21)
(0.456148 -0.146124 1.58201e-20)
(0.472527 -0.14028 1.62636e-20)
(0.487718 -0.133434 -3.6074e-20)
(0.28505 -0.381384 -7.96598e-21)
(0.262287 -0.349739 3.80706e-21)
(0.245255 -0.32276 1.81784e-21)
(0.232944 -0.299903 -1.88417e-20)
(0.22474 -0.28053 -1.04751e-20)
(0.220168 -0.264055 8.28041e-21)
(0.218782 -0.250005 -2.43116e-20)
(0.220184 -0.237984 3.08228e-20)
(0.22402 -0.227663 -1.80756e-20)
(0.229976 -0.218764 2.25933e-21)
(0.237773 -0.211055 -3.42812e-21)
(0.247165 -0.20434 -1.21546e-20)
(0.257932 -0.198456 2.57771e-20)
(0.26988 -0.193265 1.05226e-20)
(0.282836 -0.188653 -1.0867e-20)
(0.296648 -0.184523 2.69423e-22)
(0.311181 -0.180797 6.70143e-21)
(0.326317 -0.177407 -1.52649e-20)
(0.341952 -0.174298 3.18606e-21)
(0.358 -0.171421 1.13175e-20)
(0.374385 -0.168731 -4.78017e-21)
(0.391046 -0.16618 8.56915e-21)
(0.407935 -0.163713 -1.71124e-20)
(0.42501 -0.161256 2.55724e-20)
(0.442235 -0.158703 6.4553e-21)
(0.459553 -0.155916 -1.6996e-20)
(0.476875 -0.152704 -1.54688e-20)
(0.494213 -0.148704 -3.2635e-22)
(0.511743 -0.143275 2.19015e-20)
(0.528064 -0.136785 -6.43239e-21)
(0.295253 -0.374177 -2.25996e-21)
(0.272524 -0.343945 -1.76412e-20)
(0.255863 -0.318202 2.16231e-20)
(0.244175 -0.296435 1.55188e-20)
(0.236792 -0.278017 1.65527e-20)
(0.233197 -0.262369 5.11564e-21)
(0.232912 -0.249024 7.68119e-21)
(0.235509 -0.237598 4.1543e-21)
(0.240612 -0.227767 -1.72631e-20)
(0.247887 -0.219261 3.25182e-20)
(0.257039 -0.211856 -2.8107e-20)
(0.267809 -0.205364 -2.28138e-21)
(0.279964 -0.199626 4.17769e-21)
(0.2933 -0.194511 -2.10077e-20)
(0.307635 -0.189912 1.87838e-20)
(0.322808 -0.185738 -5.74462e-21)
(0.338675 -0.181917 -1.56548e-20)
(0.355111 -0.17839 6.48996e-21)
(0.372005 -0.175112 -1.24648e-20)
(0.389261 -0.172046 -1.15065e-20)
(0.406801 -0.169164 -1.29173e-20)
(0.424557 -0.166442 3.0088e-21)
(0.442482 -0.163851 2.01289e-21)
(0.46054 -0.16135 -3.45725e-20)
(0.478709 -0.158871 -1.38537e-20)
(0.496955 -0.156309 8.69505e-21)
(0.515223 -0.153495 1.14063e-20)
(0.53357 -0.150042 -1.60475e-20)
(0.552228 -0.145203 -6.38952e-21)
(0.569706 -0.139292 1.13631e-21)
(0.305331 -0.36676 -1.67409e-21)
(0.282801 -0.33803 1.14031e-20)
(0.266661 -0.313583 -3.30432e-21)
(0.255735 -0.292944 -4.15422e-21)
(0.2493 -0.275504 -2.58964e-20)
(0.246801 -0.260693 -6.24467e-21)
(0.247726 -0.248054 1.19021e-20)
(0.25162 -0.237212 -8.38681e-21)
(0.258083 -0.227854 -1.04508e-21)
(0.266765 -0.219719 -1.72816e-21)
(0.277354 -0.21259 1.07485e-20)
(0.289577 -0.206286 -1.7323e-20)
(0.303192 -0.200655 -1.22363e-20)
(0.317983 -0.195573 1.50028e-20)
(0.333761 -0.190936 -8.97338e-21)
(0.350355 -0.18666 -1.13859e-20)
(0.367615 -0.182676 2.48597e-20)
(0.385407 -0.178932 -3.98517e-21)
(0.403614 -0.175389 1.60577e-20)
(0.42213 -0.172019 -1.48479e-20)
(0.440867 -0.168809 -1.26594e-20)
(0.459752 -0.165753 1.12987e-20)
(0.478728 -0.162852 -1.1532e-21)
(0.497759 -0.160106 -8.97506e-21)
(0.516831 -0.157499 8.14417e-21)
(0.535931 -0.154991 -2.62537e-20)
(0.555042 -0.15248 1.61195e-20)
(0.574295 -0.149607 -2.8591e-22)
(0.594033 -0.145539 -1.77815e-20)
(0.612701 -0.140493 2.89847e-20)
(0.315291 -0.359135 8.27511e-21)
(0.293134 -0.331991 -2.22739e-20)
(0.277673 -0.30889 -2.10692e-21)
(0.267647 -0.289411 1.17256e-20)
(0.262288 -0.272967 -3.22863e-21)
(0.261002 -0.258998 -9.61022e-21)
(0.263245 -0.247061 4.6394e-21)
(0.268535 -0.236792 5.73271e-21)
(0.27645 -0.22789 5.33776e-22)
(0.286622 -0.220102 7.67598e-21)
(0.298725 -0.213221 2.58383e-20)
(0.312472 -0.207074 -9.08432e-21)
(0.327611 -0.201516 2.68001e-21)
(0.343919 -0.196428 -7.16765e-21)
(0.361198 -0.191711 2.73738e-20)
(0.379272 -0.187284 -5.21336e-21)
(0.397983 -0.183082 1.77365e-20)
(0.417192 -0.179054 -7.23036e-21)
(0.436774 -0.175162 8.01619e-21)
(0.456616 -0.171384 1.25974e-20)
(0.476621 -0.167711 2.31387e-21)
(0.496703 -0.164148 9.08627e-21)
(0.516793 -0.160717 -7.80069e-21)
(0.536844 -0.157453 2.20174e-20)
(0.556833 -0.154402 -9.22947e-21)
(0.576754 -0.151614 3.47901e-20)
(0.596619 -0.149119 -1.00956e-20)
(0.616643 -0.146692 7.14385e-21)
(0.637384 -0.143489 -1.37778e-20)
(0.657315 -0.139594 2.75795e-20)
(0.325165 -0.35131 -1.79134e-20)
(0.303556 -0.325814 6.20122e-22)
(0.288918 -0.304098 -1.26638e-20)
(0.279929 -0.285807 2.405e-21)
(0.275771 -0.270375 7.27244e-22)
(0.275815 -0.257253 -1.29045e-20)
(0.279482 -0.246011 -2.53899e-20)
(0.286265 -0.236302 1.32024e-20)
(0.29572 -0.227835 -1.9286e-20)
(0.30746 -0.220371 -1.0825e-20)
(0.321146 -0.213712 -6.52586e-21)
(0.336481 -0.207693 -5.572e-21)
(0.353202 -0.202178 2.96598e-22)
(0.37108 -0.197053 -2.08818e-20)
(0.38991 -0.192224 1.47972e-20)
(0.409513 -0.187613 -2.45283e-20)
(0.429728 -0.183155 -6.56991e-21)
(0.450411 -0.178799 7.28524e-21)
(0.471434 -0.174506 9.52118e-21)
(0.492682 -0.170248 9.9561e-21)
(0.51405 -0.166009 7.93544e-21)
(0.535444 -0.161792 -2.03012e-20)
(0.556782 -0.157615 2.11014e-20)
(0.577992 -0.153522 -2.23431e-21)