/*--------------------------------*- C++ -*----------------------------------*\
| =========                 |                                                 |
| \\      /  F ield         | OpenFOAM: The Open Source CFD Toolbox           |
|  \\    /   O peration     | Version:  v1912                                 |
|   \\  /    A nd           | Website:  www.openfoam.com                      |
|    \\/     M anipulation  |                                                 |
\*---------------------------------------------------------------------------*/
FoamFile
{
    version     2.0;
    format      ascii;
    class       volVectorField;
    location    "70.5";
    object      U;
}
// * * * * * * * * * * * * * * * * * * * * * * * * * * * * * * * * * * * * * //

dimensions      [0 1 -1 0 0 0 0];


internalField   nonuniform List<vector> 
9600
(
(0.456545 -9.36161 -1.54174e-19)
(0.15977 -8.63234 0)
(0.242038 -8.15953 -9.0539e-20)
(0.320874 -7.84048 0)
(0.388271 -7.60546 0)
(0.456753 -7.41092 -3.18597e-20)
(0.522337 -7.2328 -5.50636e-22)
(0.581884 -7.05886 2.66346e-20)
(0.634619 -6.88375 0)
(0.680573 -6.70603 -4.51628e-20)
(0.720136 -6.52632 0)
(0.753934 -6.34618 -1.8309e-21)
(0.782707 -6.1674 -2.60774e-21)
(0.80721 -5.99169 -3.1562e-20)
(0.828169 -5.82043 2.66202e-20)
(0.846238 -5.65461 -2.61535e-20)
(0.861969 -5.49468 2.32873e-20)
(0.875909 -5.34059 0)
(0.88884 -5.19156 -1.85256e-20)
(0.900491 -5.04607 2.03069e-20)
(0.824478 -9.35123 -3.08449e-19)
(0.502231 -8.66047 1.17572e-20)
(0.567702 -8.20389 1.86498e-19)
(0.63504 -7.89435 -1.58972e-19)
(0.693434 -7.66394 1.56777e-19)
(0.753882 -7.46989 0)
(0.811597 -7.28947 6.07693e-20)
(0.863102 -7.11152 -6.0631e-20)
(0.907549 -6.93151 -1.05171e-19)
(0.945025 -6.74859 1.33032e-19)
(0.976033 -6.56377 -8.63729e-20)
(1.00132 -6.37886 -3.52664e-20)
(1.02174 -6.19582 7.11836e-20)
(1.03814 -6.01641 0)
(1.05131 -5.84204 0)
(1.06193 -5.67367 9.97942e-20)
(1.07057 -5.51175 -1.69199e-19)
(1.0778 -5.35615 0)
(1.08446 -5.20598 0)
(1.09005 -5.05962 -7.82148e-20)
(1.19276 -9.32732 6.37299e-19)
(0.846964 -8.67573 0)
(0.896924 -8.23557 -3.77378e-19)
(0.953503 -7.93565 -3.42066e-19)
(1.0032 -7.70981 0)
(1.05559 -7.51622 5.46701e-19)
(1.10521 -7.3335 -5.16142e-19)
(1.14832 -7.15165 1.01182e-19)
(1.18407 -6.96694 -2.25248e-19)
(1.21265 -6.77909 -3.74624e-19)
(1.23471 -6.58951 5.11422e-19)
(1.25113 -6.40024 -3.16215e-19)
(1.26289 -6.21334 -1.41725e-19)
(1.27092 -6.03066 0)
(1.27608 -5.85359 5.52974e-21)
(1.27909 -5.6831 1.05189e-19)
(1.28052 -5.5196 4.54747e-20)
(1.28095 -5.36289 0)
(1.2813 -5.21197 8.24374e-20)
(1.28071 -5.06515 8.44896e-20)
(1.56027 -9.2895 -8.62192e-19)
(1.19338 -8.67786 -4.04055e-19)
(1.22915 -8.25437 3.91905e-19)
(1.2757 -7.96405 6.73561e-19)
(1.31698 -7.74272 -3.2692e-19)
(1.36128 -7.54953 5.80689e-21)
(1.40255 -7.36455 2.53883e-19)
(1.43691 -7.17894 2.29967e-19)
(1.46357 -6.98977 4.21202e-19)
(1.48285 -6.79732 0)
(1.49559 -6.60336 1.62284e-19)
(1.50281 -6.41015 -1.7222e-19)
(1.50563 -6.21985 1.03542e-20)
(1.50506 -6.03434 2.71503e-19)
(1.50203 -5.85503 2.32776e-19)
(1.49729 -5.68285 -3.28605e-19)
(1.49141 -5.51817 1.08219e-19)
(1.48498 -5.36075 -1.76226e-19)
(1.479 -5.20946 1.75393e-19)
(1.47217 -5.06261 -8.45335e-20)
(1.92671 -9.23772 4.34828e-19)
(1.54119 -8.6667 0)
(1.56397 -8.26001 3.84889e-19)
(1.60113 -7.97924 0)
(1.63423 -7.76231 0)
(1.67035 -7.56948 -3.0049e-19)
(1.70301 -7.38231 -5.37656e-19)
(1.72826 -7.19311 -4.55895e-19)
(1.74542 -6.99975 1.84515e-20)
(1.75503 -6.80307 -1.97016e-19)
(1.75808 -6.60515 0)
(1.75581 -6.40845 -1.62696e-19)
(1.74943 -6.21523 -2.93092e-19)
(1.74006 -6.02737 2.5776e-19)
(1.72869 -5.84628 -7.3255e-19)
(1.71609 -5.67283 1.18551e-19)
(1.70283 -5.5074 9.39745e-20)
(1.68952 -5.34967 -1.93777e-19)
(1.67721 -5.19841 -8.46724e-20)
(1.66411 -5.05197 2.52492e-19)
(2.29154 -9.17187 4.19606e-19)
(1.8899 -8.64201 4.16164e-19)
(1.90087 -8.2522 0)
(1.92923 -7.98087 0)
(1.95434 -7.76824 -6.24679e-19)
(1.98218 -7.57574 3.41398e-19)
(2.00594 -7.38647 8.21678e-19)
(2.02172 -7.19389 0)
(2.029 -6.99668 2.17158e-19)
(2.02855 -6.79616 1.97017e-19)
(2.0216 -6.59475 -3.48092e-19)
(2.00955 -6.39505 5.04792e-19)
(1.99375 -6.19941 1.48134e-19)
(1.97541 -6.00969 0)
(1.95557 -5.82728 1.23323e-19)
(1.93502 -5.65303 5.53614e-19)
(1.91434 -5.48726 -3.29883e-19)
(1.89415 -5.32962 3.70703e-19)
(1.87554 -5.17879 -7.04929e-19)
(1.85617 -5.03321 8.14924e-19)
(2.65423 -9.09195 4.2676e-19)
(2.23899 -8.60359 -2.25982e-18)
(2.23931 -8.23069 0)
(2.25941 -7.96866 0)
(2.27668 -7.76021 0)
(2.29611 -7.56804 -6.06006e-19)
(2.31069 -7.37679 0)
(2.31662 -7.18109 -9.71413e-19)
(2.31365 -6.98038 8.96056e-19)
(2.30281 -6.77646 -8.3225e-19)
(2.28555 -6.57204 0)
(2.26346 -6.36987 0)
(2.23805 -6.17232 0)
(2.2106 -5.98126 -2.81636e-19)
(2.18219 -5.79801 0)
(2.15364 -5.6234 0)
(2.12551 -5.45774 -4.13418e-19)
(2.09847 -5.3006 4.06197e-19)
(2.07361 -5.15058 0)
(2.04799 -5.0063 0)
(3.01424 -8.99794 -1.38834e-18)
(2.58792 -8.55128 8.99686e-19)
(2.5787 -8.19521 0)
(2.59106 -7.94232 0)
(2.6006 -7.73794 0)
(2.61147 -7.54612 5.76409e-19)
(2.61656 -7.35305 -5.78166e-19)
(2.6123 -7.15452 -8.89999e-21)
(2.59871 -6.95071 -8.97205e-19)
(2.57714 -6.74387 8.40081e-19)
(2.5493 -6.53697 -3.79007e-19)
(2.51697 -6.33287 6.59077e-19)
(2.48178 -6.13396 -4.64232e-20)
(2.4451 -5.94206 -5.96254e-19)
(2.40805 -5.75848 -5.02572e-19)
(2.37146 -5.58398 4.93762e-19)
(2.33589 -5.41883 0)
(2.30202 -5.2626 0)
(2.271 -5.11378 3.57341e-19)
(2.2392 -4.97128 -3.93236e-19)
(3.37099 -8.88988 9.27924e-19)
(2.93613 -8.48494 8.83933e-19)
(2.91846 -8.14556 -1.67546e-18)
(2.92353 -7.90161 7.91453e-19)
(2.92544 -7.7012 0)
(2.92756 -7.50976 6.1679e-19)
(2.92286 -7.31508 -5.41502e-19)
(2.90805 -7.11406 1.53036e-18)
(2.88351 -6.90757 -2.37011e-20)
(2.85091 -6.69833 0)
(2.81225 -6.4895 7.64705e-19)
(2.76948 -6.28403 0)
(2.72438 -6.08431 0)
(2.67839 -5.89212 -2.72782e-19)
(2.63265 -5.70869 5.50162e-19)
(2.58801 -5.53476 0)
(2.545 -5.37057 4.31572e-19)
(2.50437 -5.21563 1.79678e-19)
(2.46728 -5.0684 -3.89826e-19)
(2.42939 -4.92814 3.78532e-19)
(3.72395 -8.76783 -9.55765e-19)
(3.28301 -8.40446 8.98361e-19)
(3.25796 -8.08155 -2.55861e-18)
(3.25618 -7.84634 8.04589e-19)
(3.25049 -7.64978 0)
(3.24369 -7.4588 -1.24496e-18)
(3.22889 -7.26273 5.98071e-19)
(3.20318 -7.05958 0)
(3.16737 -6.85091 -4.74879e-19)
(3.12348 -6.63979 -8.23699e-19)
(3.07377 -6.42961 -7.17795e-19)
(3.02042 -6.22335 5.34644e-20)
(2.96529 -6.02339 6.71357e-19)
(2.90992 -5.83146 2.72558e-19)
(2.85548 -5.6487 -3.79586e-20)
(2.80278 -5.47579 -5.13265e-19)
(2.75238 -5.31297 -2.29579e-19)
(2.70505 -5.15974 -2.06983e-19)
(2.66199 -5.01449 5.52173e-19)
(2.61812 -4.87694 -8.22783e-19)
(4.07255 -8.63188 9.55768e-19)
(3.62798 -8.30977 -4.66564e-20)
(3.59655 -8.00305 8.22496e-19)
(3.58832 -7.77633 0)
(3.57505 -7.58354 -6.81012e-19)
(3.55912 -7.39311 1.30859e-18)
(3.53392 -7.19591 -1.11866e-18)
(3.497 -6.99104 1.10083e-18)
(3.44962 -6.78068 -4.46098e-19)
(3.39418 -6.56826 9.05559e-19)
(3.33324 -6.35732 3.92179e-19)
(3.26917 -6.15087 0)
(3.20396 -5.95126 0)
(3.13917 -5.76012 -2.82616e-19)
(3.07601 -5.57853 3.83772e-20)
(3.01528 -5.40711 1.01076e-18)
(2.95752 -5.2461 -2.50068e-19)
(2.90356 -5.09496 8.25986e-19)
(2.85465 -4.95206 1.44584e-19)
(2.80495 -4.8177 -8.40332e-19)
(4.41622 -8.48212 -2.94097e-18)
(3.97043 -8.20082 -9.87293e-19)
(3.9336 -7.90994 -2.63277e-18)
(3.91925 -7.69145 -1.60171e-18)
(3.89841 -7.50234 -7.59768e-19)
(3.87314 -7.31258 -7.42577e-19)
(3.83723 -7.11457 -2.42426e-18)
(3.78879 -6.90841 -4.90882e-20)
(3.72957 -6.6969 -1.94813e-18)
(3.66237 -6.48376 3.02298e-20)
(3.59006 -6.27266 -8.08904e-19)
(3.51517 -6.06664 -7.3713e-19)
(3.43982 -5.86796 6.72921e-19)
(3.3656 -5.67817 -6.1542e-19)
(3.29372 -5.49826 -5.63843e-19)
(3.22499 -5.3288 -5.17495e-19)
(3.15992 -5.17 -1.38956e-18)
(3.09941 -5.02134 4.94355e-19)
(3.04475 -4.88117 1.19979e-18)
(2.9894 -4.75046 -1.27693e-18)
(4.75443 -8.31871 3.95585e-18)
(4.30976 -8.07764 4.86006e-18)
(4.26845 -7.80215 8.34918e-19)
(4.24829 -7.59161 4.00051e-18)
(4.21983 -7.40612 -7.84116e-19)
(4.18499 -7.21717 3.91824e-18)
(4.13809 -7.01867 1.14625e-18)
(4.07785 -6.81171 3.21801e-18)
(4.00655 -6.59959 -9.83644e-19)
(3.92742 -6.38634 2.72359e-18)
(3.8436 -6.17572 1.62934e-18)
(3.75784 -5.97073 1.48492e-18)
(3.67231 -5.77356 -2.01047e-18)
(3.58867 -5.58568 1.88338e-18)
(3.50811 -5.40795 1.13638e-18)
(3.4314 -5.2409 1.0432e-18)
(3.35907 -5.08474 9.59268e-19)
(3.29207 -4.93893 7.36916e-21)
(3.23178 -4.80185 8.14336e-19)
(3.17099 -4.67528 8.47478e-19)
(5.08665 -8.1418 -2.93767e-18)
(4.64539 -7.94023 1.08271e-18)
(4.60044 -7.67966 2.67865e-18)
(4.57472 -7.47675 -3.26353e-18)
(4.53858 -7.29483 7.54131e-19)
(4.49396 -7.10688 -2.62144e-18)
(4.43579 -6.90825 1.28483e-18)
(4.36348 -6.70097 -2.1532e-18)
(4.2799 -6.48884 4.9051e-20)
(4.18868 -6.2761 1.1957e-20)
(4.09327 -6.06656 -1.65184e-18)
(3.99658 -5.86321 -7.47792e-19)
(3.90088 -5.66815 1.37506e-18)
(3.80783 -5.48271 8.76544e-21)
(3.71861 -5.30767 -3.72051e-20)
(3.63397 -5.14349 -1.08879e-18)
(3.55441 -4.99038 -4.83521e-19)
(3.48097 -4.84779 -2.71588e-20)
(3.41516 -4.71417 -8.48698e-19)
(3.34915 -4.59225 -4.27989e-19)
(5.41238 -7.95158 0)
(4.97671 -7.78866 -2.00061e-18)
(4.92892 -7.54243 2.37624e-20)
(4.89784 -7.34687 3.25911e-18)
(4.85394 -7.16848 1.36421e-18)
(4.79931 -6.98174 -1.42e-18)
(4.72962 -6.78338 -1.22336e-18)
(4.64501 -6.5763 0)
(4.54896 -6.36474 -9.73885e-19)
(4.44555 -6.15312 9.29467e-19)
(4.3385 -5.9453 -3.90847e-20)
(4.23087 -5.7442 0)
(4.12501 -5.5518 -6.92238e-19)
(4.02258 -5.36933 5.99644e-19)
(3.92473 -5.19746 5.00994e-19)
(3.83216 -5.03658 -6.04752e-19)
(3.74536 -4.8869 -5.24663e-19)
(3.66549 -4.74789 9.11139e-19)
(3.59415 -4.61812 -8.40887e-19)
(3.52304 -4.50146 4.42603e-19)
(5.73114 -7.74822 3.03519e-18)
(5.30316 -7.62299 -2.06048e-18)
(5.2532 -7.39052 -1.75862e-18)
(5.21694 -7.20199 8.18833e-19)
(5.16518 -7.02712 -1.5886e-18)
(5.10031 -6.84182 0)
(5.01885 -6.64416 0)
(4.92176 -6.43782 0)
(4.81311 -6.22743 -4.4489e-20)
(4.69743 -6.01757 -1.86535e-18)
(4.57872 -5.81208 8.80997e-19)
(4.46018 -5.6138 7.45145e-19)
(4.3442 -5.42461 6.30601e-19)
(4.23244 -5.24561 -2.58767e-18)
(4.12598 -5.07736 1.22679e-18)
(4.02548 -4.92019 0)
(3.93141 -4.77429 -3.04427e-20)
(3.84497 -4.63918 -1.41317e-18)
(3.76794 -4.51361 -5.69945e-21)
(3.69169 -4.40255 -4.43094e-19)
(6.04258 -7.532 -2.06448e-18)
(5.62418 -7.44337 -1.08632e-18)
(5.57263 -7.22397 8.18641e-19)
(5.53129 -7.04217 -1.43943e-19)
(5.47155 -6.87083 -4.63107e-18)
(5.39624 -6.68725 4.19136e-18)
(5.30281 -6.49073 -4.88157e-20)
(5.19306 -6.28569 1.14807e-18)
(5.07172 -6.07709 1.03011e-18)
(4.94375 -5.86961 9.45904e-19)
(4.8134 -5.66704 8.60802e-19)
(4.68401 -5.47215 1.53844e-18)
(4.55799 -5.28668 -7.40478e-19)
(4.43696 -5.11162 1.91951e-18)
(4.32196 -4.94744 -1.24093e-18)
(4.21357 -4.79438 -5.13382e-19)
(4.1122 -4.65265 2.06203e-18)
(4.0191 -4.52177 1.3777e-18)
(3.93625 -4.40054 -2.79734e-20)
(3.85507 -4.29484 0)
(6.34667 -7.30341 -1.04971e-18)
(5.93938 -7.24997 2.07603e-18)
(5.88653 -7.04285 1.81767e-18)
(5.84016 -6.86747 -1.45922e-19)
(5.77231 -6.69971 -1.57127e-18)
(5.68636 -6.51816 7.0693e-20)
(5.58077 -6.32327 1.31837e-20)
(5.45826 -6.12012 1.17465e-20)
(5.32419 -5.91393 0)
(5.18395 -5.70942 9.25177e-19)
(5.04204 -5.51036 -1.76094e-18)
(4.90188 -5.31937 -7.536e-19)
(4.76589 -5.13809 7.48129e-19)
(4.63566 -4.96739 -6.56467e-19)
(4.51213 -4.80767 6.0801e-19)
(4.39583 -4.65916 -5.53519e-19)
(4.28715 -4.52204 4.90132e-21)
(4.18748 -4.3957 -4.70265e-19)
(4.09907 -4.27885 -4.34425e-19)
(4.01373 -4.17919 -4.34723e-19)
(6.64375 -7.06292 0)
(6.24851 -7.04272 -1.01224e-18)
(6.19426 -6.84708 1.00063e-18)
(6.14279 -6.67796 1.74591e-18)
(6.06671 -6.51394 -1.57997e-18)
(5.96995 -6.3348 1.36497e-18)
(5.85207 -6.14207 -2.62455e-18)
(5.71675 -5.9414 -2.33079e-18)
(5.56998 -5.73824 -1.01686e-18)
(5.41757 -5.5373 4.44367e-20)
(5.26422 -5.34226 -8.42083e-19)
(5.11342 -5.15562 3.49359e-20)
(4.96756 -4.97888 0)
(4.82812 -4.81282 -1.28773e-18)
(4.69592 -4.65778 6.57158e-19)
(4.57136 -4.51402 0)
(4.45488 -4.38164 -5.14698e-19)
(4.34808 -4.25979 -9.25399e-19)
(4.2532 -4.14809 9.09297e-19)
(4.16268 -4.05918 4.48868e-19)
(6.93343 -6.80975 0)
(6.55093 -6.82092 0)
(6.49509 -6.63659 -1.85627e-18)
(6.43842 -6.47393 -1.59618e-18)
(6.35406 -6.31391 3.23962e-18)
(6.24638 -6.1376 0)
(6.11616 -5.94757 0)
(5.96802 -5.74999 1.17096e-18)
(5.80865 -5.55046 0)
(5.64424 -5.35366 0)
(5.47968 -5.16313 0)
(5.31851 -4.98121 0)
(5.16302 -4.80926 0)
(5.01454 -4.64791 0)
(4.87363 -4.49744 0)
(4.7404 -4.35801 0)
(4.61512 -4.22946 0)
(4.49886 -4.11115 0)
(4.39176 -4.00615 0)
(4.28765 -3.93175 0)
(10.0435 0.0877411 1.47378e-19)
(10.023 -0.307649 2.86749e-19)
(9.98721 -0.700361 -2.94507e-19)
(9.93668 -1.09025 5.87188e-19)
(9.87115 -1.47698 -5.87187e-19)
(9.79049 -1.86005 -5.54887e-19)
(9.69482 -2.23891 -5.53338e-19)
(9.58434 -2.61303 1.74263e-18)
(9.45928 -2.98184 -1.16102e-18)
(9.3199 -3.3448 1.15129e-18)
(9.16649 -3.70136 -1.15129e-18)
(8.99936 -4.05098 1.14278e-18)
(8.81882 -4.39315 -2.26623e-18)
(8.62524 -4.72737 3.33735e-18)
(8.41898 -5.05315 0)
(8.20043 -5.37004 -3.27881e-18)
(7.96999 -5.67761 1.63555e-20)
(7.72818 -5.97552 3.30425e-18)
(7.47509 -6.26359 0)
(7.21242 -6.54116 0)
(10.1207 -0.210716 0)
(10.0794 -0.606835 -1.50435e-20)
(10.0213 -0.999153 0)
(9.94717 -1.38733 5.61922e-19)
(9.85713 -1.77094 5.85167e-19)
(9.75142 -2.14938 -1.69367e-18)
(9.63034 -2.52202 2.94859e-18)
(9.49424 -2.88822 -1.16399e-18)
(9.34348 -3.24741 -1.10956e-18)
(9.17847 -3.59898 -1.10502e-18)
(8.99963 -3.94237 4.45766e-20)
(8.80738 -4.27703 1.13216e-18)
(8.60219 -4.60244 -5.62835e-18)
(8.38454 -4.91811 -1.18028e-18)
(8.15493 -5.22357 2.24898e-18)
(7.91387 -5.51838 2.24596e-18)
(7.66183 -5.80216 1.14107e-18)
(7.3994 -6.07458 -2.20034e-18)
(7.12666 -6.33538 1.042e-18)
(6.84457 -6.58422 0)
(10.0726 -0.149213 1.32718e-19)
(10.0347 -0.540902 -2.71783e-19)
(9.97955 -0.929414 7.84858e-19)
(9.90734 -1.31406 -5.56025e-19)
(9.81854 -1.69417 -5.30159e-19)
(9.71349 -2.06905 5.5351e-19)
(9.59256 -2.43797 0)
(9.45616 -2.80024 0)
(9.30472 -3.15518 2.10171e-18)
(9.13867 -3.50215 3.13537e-18)
(8.95849 -3.84054 -9.91664e-19)
(8.76468 -4.16976 3.10037e-18)
(8.55776 -4.48923 -9.8749e-19)
(8.33827 -4.79843 -3.0198e-18)
(8.10676 -5.09686 1.36263e-20)
(7.86379 -5.38404 1.9384e-18)
(7.6099 -5.65954 -8.74962e-19)
(7.34569 -5.92295 -1.90702e-18)
(7.07149 -6.1739 -1.03004e-18)
(6.78804 -6.41189 1.87419e-18)
(9.90657 -0.112489 0)
(9.87555 -0.49495 2.29143e-19)
(9.82725 -0.875064 2.28201e-19)
(9.76185 -1.25193 -9.37528e-19)
(9.67969 -1.62475 0)
(9.5811 -1.99275 0)
(9.46646 -2.35516 0)
(9.33612 -2.71124 0)
(9.19051 -3.06026 -9.92082e-19)
(9.03008 -3.40154 -9.88314e-19)
(8.85529 -3.73441 0)
(8.66666 -4.05823 1.86859e-18)
(8.46472 -4.3724 -4.61994e-18)
(8.25002 -4.67633 3.71484e-18)
(8.02312 -4.96946 -3.60066e-18)
(7.78462 -5.25129 -8.73702e-19)
(7.53508 -5.52132 1.56488e-19)
(7.27514 -5.77907 1.54891e-19)
(7.0053 -6.02409 -1.77939e-18)
(6.7263 -6.2559 -7.08921e-20)
(9.65359 -0.0990064 0)
(9.62999 -0.46924 -2.25986e-19)
(9.58953 -0.837783 0)
(9.53231 -1.20373 4.52096e-19)
(9.45854 -1.56625 4.3097e-19)
(9.36851 -1.92454 3.94014e-19)
(9.26255 -2.27782 0)
(9.14098 -2.62534 0)
(9.00418 -2.96634 0)
(8.85256 -3.30012 0)
(8.68658 -3.62596 8.13913e-19)
(8.5067 -3.94322 8.7687e-19)
(8.31345 -4.25124 8.71865e-19)
(8.10736 -4.5494 -8.85201e-19)
(7.88898 -4.83712 -1.52349e-18)
(7.65891 -5.11383 1.72932e-18)
(7.41772 -5.37899 3.35281e-18)
(7.16604 -5.63209 1.6308e-18)
(6.90444 -5.87262 0)
(6.63364 -6.10008 -1.537e-18)
(9.34662 -0.0902053 4.64499e-20)
(9.32999 -0.446265 0)
(9.29714 -0.801206 -7.61193e-19)
(9.24807 -1.15417 1.82553e-23)
(9.18295 -1.50435 1.6179e-20)
(9.102 -1.85093 -6.85546e-20)
(9.00549 -2.19315 0)
(8.8937 -2.53026 3.09426e-20)
(8.76696 -2.8615 -7.7274e-19)
(8.62564 -3.18615 1.50556e-18)
(8.47015 -3.50352 -1.56991e-18)
(8.30092 -3.81293 8.57645e-19)
(8.11843 -4.1137 -4.4957e-18)
(7.92318 -4.40522 2.96519e-18)
(7.7157 -4.68687 1.57179e-18)
(7.49655 -4.95805 0)
(7.2663 -5.21819 -2.90127e-18)
(7.02557 -5.46675 -6.15436e-20)
(6.77492 -5.70319 -2.85715e-18)
(6.51503 -5.92699 2.9696e-18)
(9.0143 -0.0853965 4.17742e-20)
(9.00332 -0.426458 -8.75108e-20)
(8.97684 -0.766869 7.17505e-19)
(8.93485 -1.10583 -1.40786e-20)
(8.87745 -1.44255 7.17358e-19)
(8.80482 -1.77627 -1.0835e-18)
(8.71718 -2.10622 0)
(8.61476 -2.43168 7.30416e-19)
(8.49785 -2.75192 6.68792e-19)
(8.36678 -3.06623 -7.26325e-19)
(8.22189 -3.37393 1.32891e-18)
(8.0636 -3.67433 2.81729e-18)
(7.89232 -3.96679 -1.31023e-18)
(7.70853 -4.25066 -1.42017e-18)
(7.51271 -4.52534 1.36195e-18)
(7.3054 -4.79021 0)
(7.08714 -5.04469 6.49632e-20)
(6.85851 -5.28822 9.81694e-21)
(6.62007 -5.52024 2.70702e-18)
(6.37244 -5.7402 1.25853e-18)
(8.67789 -0.084218 0)
(8.67096 -0.410327 6.26023e-21)
(8.64932 -0.736131 -1.46009e-19)
(8.61292 -1.06088 -6.48417e-19)
(8.56183 -1.38383 6.09509e-19)
(8.49618 -1.70425 0)
(8.41616 -2.02143 1.24056e-18)
(8.32198 -2.33465 -1.36325e-21)
(8.21387 -2.64322 -1.8947e-18)
(8.09211 -2.94647 0)
(7.95703 -3.24372 -1.30775e-18)
(7.80899 -3.53433 4.6024e-20)
(7.64836 -3.81766 -3.67617e-18)
(7.47559 -4.09308 6.47878e-21)
(7.29114 -4.35999 1.23212e-18)
(7.09549 -4.61779 0)
(6.88916 -4.8659 -1.20933e-18)
(6.67269 -5.10373 8.70726e-21)
(6.44665 -5.33073 1.20063e-18)
(6.21157 -5.54632 -1.23849e-18)
(8.35127 -0.0853022 0)
(8.34696 -0.39704 1.497e-19)
(8.3287 -0.708705 3.10592e-19)
(8.29642 -1.0196 -5.74912e-19)
(8.25019 -1.32902 -2.47376e-20)
(8.1901 -1.63627 -2.87324e-19)
(8.11631 -1.94069 -1.15019e-18)
(8.029 -2.2416 5.71829e-19)
(7.92837 -2.53834 2.38276e-20)
(7.81468 -2.83027 5.68407e-19)
(7.68822 -3.11676 5.23271e-19)
(7.5493 -3.39719 2.26609e-18)
(7.39828 -3.67094 1.1335e-18)
(7.23557 -3.93742 2.2388e-18)
(7.06159 -4.19603 -1.11647e-18)
(6.87681 -4.44621 3.8687e-20)
(6.68172 -4.68737 -1.10328e-18)
(6.47683 -4.91894 0)
(6.26268 -5.14036 1.0429e-18)
(6.03977 -5.35104 0)
(8.04236 -0.087523 6.51783e-20)
(8.03951 -0.385761 -1.90889e-19)
(8.02342 -0.684067 5.23572e-19)
(7.99403 -0.981787 -2.612e-19)
(7.95138 -1.27826 1.8995e-20)
(7.89556 -1.57285 -2.61046e-19)
(7.8267 -1.8649 5.42696e-19)
(7.74495 -2.1538 -5.19392e-19)
(7.65051 -2.43893 5.19389e-19)
(7.54359 -2.71967 9.96165e-19)
(7.42447 -2.99543 -1.07341e-18)
(7.29343 -3.26562 -4.51288e-20)
(7.15081 -3.52967 -3.10708e-18)
(6.99698 -3.78701 5.38149e-21)
(6.83235 -4.03709 4.03018e-20)
(6.65737 -4.27935 2.01425e-18)
(6.4725 -4.51324 -9.94975e-19)
(6.27824 -4.73818 -9.47736e-19)
(6.07513 -4.95362 -3.74681e-20)
(5.86362 -5.15896 0)
(7.75476 -0.0901347 0)
(7.75252 -0.375865 2.42481e-19)
(7.7377 -0.661738 -8.33745e-19)
(7.71023 -0.947137 -2.21201e-19)
(7.67014 -1.23145 4.94692e-19)
(7.61753 -1.51406 0)
(7.5525 -1.79437 0)
(7.47519 -2.0718 4.72853e-19)
(7.38577 -2.34575 -4.7285e-19)
(7.28446 -2.61567 3.98345e-19)
(7.17149 -2.88099 -4.69804e-19)
(7.04714 -3.14116 9.31659e-19)
(6.91173 -3.39565 -1.85871e-18)
(6.7656 -3.64393 1.8491e-18)
(6.60916 -3.88547 3.46854e-20)
(6.44281 -4.11976 -9.51013e-19)
(6.26705 -4.34625 -9.04975e-19)
(6.08235 -4.56442 1.84347e-18)
(5.88925 -4.77369 8.63003e-19)
(5.68819 -4.97344 0)
(7.48926 -0.0926634 1.87898e-21)
(7.48706 -0.366886 1.59209e-19)
(7.47287 -0.641278 3.34263e-19)
(7.44662 -0.91526 2.33965e-19)
(7.40834 -1.18825 2.17038e-19)
(7.35811 -1.45968 2.01899e-19)
(7.29604 -1.72897 0)
(7.22226 -1.99558 -8.34346e-19)
(7.13693 -2.25896 -4.30104e-19)
(7.04023 -2.51858 3.66939e-19)
(6.9324 -2.77391 0)
(6.8137 -3.02444 8.49502e-19)
(6.68442 -3.26968 -2.51245e-18)
(6.54491 -3.50914 8.45153e-19)
(6.39555 -3.74233 0)
(6.23675 -3.96878 -8.03586e-19)
(6.06899 -4.18798 -1.62302e-18)
(5.89277 -4.39942 7.98644e-19)
(5.70864 -4.60252 -2.92216e-20)
(5.51705 -4.79666 0)
(7.24498 -0.0948104 3.4668e-21)
(7.24247 -0.358478 -1.03037e-19)
(7.22848 -0.622307 1.98842e-19)
(7.20297 -0.885754 -1.31306e-20)
(7.16596 -1.14827 3.97333e-19)
(7.11753 -1.40931 -6.10227e-19)
(7.05778 -1.66834 0)
(6.98682 -1.92484 5.60675e-20)
(6.90482 -2.1783 0)
(6.81196 -2.42821 -8.14576e-19)
(6.70844 -2.67409 0)
(6.59452 -2.91546 -7.51764e-19)
(6.47048 -3.15187 2.32348e-18)
(6.33664 -3.38288 -1.53965e-18)
(6.19339 -3.60803 7.6761e-19)
(6.04114 -3.82691 -6.79185e-19)
(5.88038 -4.03904 7.84474e-19)
(5.71163 -4.24397 -7.7911e-19)
(5.5355 -4.44108 0)
(5.35244 -4.62975 0)
(7.02013 -0.0964543 4.71488e-20)
(7.01712 -0.350416 0)
(7.00308 -0.604521 0)
(6.978 -0.85825 -3.77764e-19)
(6.9419 -1.11108 -3.52576e-19)
(6.89485 -1.3625 0)
(6.83696 -1.612 0)
(6.76832 -1.85909 4.98875e-20)
(6.6891 -2.10328 6.98214e-19)
(6.59946 -2.3441 -3.36722e-19)
(6.49961 -2.5811 -3.58747e-19)
(6.38978 -2.81384 1.44918e-18)
(6.27024 -3.04189 -2.15192e-18)
(6.14131 -3.26487 1.38768e-18)
(6.00335 -3.48237 0)
(5.85678 -3.69405 2.78786e-18)
(5.70213 -3.89944 -2.02414e-18)
(5.53992 -4.0982 6.88606e-19)
(5.37091 -4.28964 1.31695e-18)
(5.19551 -4.47318 0)
(6.81261 -0.0975304 -4.05369e-20)
(6.80899 -0.342539 0)
(6.79476 -0.587669 -5.22586e-21)
(6.76992 -0.83242 -3.24407e-19)
(6.7345 -1.07629 1.00523e-18)
(6.68856 -1.3188 -1.67217e-19)
(6.6322 -1.55946 0)
(6.56553 -1.79779 1.33205e-18)
(6.48869 -2.03335 -6.85987e-19)
(6.40183 -2.26569 4.45174e-20)
(6.30516 -2.49437 6.35757e-19)
(6.19889 -2.71901 6.51653e-19)
(6.08328 -2.9392 -1.29951e-18)
(5.95863 -3.15461 -1.27107e-18)
(5.82529 -3.36487 -1.24154e-18)
(5.68368 -3.56975 -1.32114e-18)
(5.53436 -3.76877 1.31214e-18)
(5.37785 -3.96182 -6.26404e-19)
(5.21517 -4.14801 -6.67485e-19)
(5.04663 -4.32702 0)
(6.62017 -0.0980185 3.98264e-20)
(6.61591 -0.334741 -1.4954e-19)
(6.60144 -0.571556 -1.54805e-19)
(6.57675 -0.807982 4.63532e-19)
(6.54188 -1.04354 -1.64612e-19)
(6.49689 -1.27777 -1.53871e-19)
(6.44187 -1.5102 0)
(6.37692 -1.7404 -6.32468e-19)
(6.30218 -1.96791 0)
(6.2178 -2.19233 6.27579e-19)
(6.12397 -2.41325 -1.20936e-18)
(6.02088 -2.6303 5.98659e-19)
(5.90877 -2.84312 -1.19365e-18)
(5.78793 -3.05142 1.23175e-18)
(5.65869 -3.25488 6.70417e-19)
(5.52143 -3.45338 0)
(5.37678 -3.64644 -5.78694e-19)
(5.22521 -3.8343 5.78694e-19)
(5.06817 -4.01573 0)
(4.90564 -4.19111 0)
(6.4407 -0.0980064 0)
(6.43582 -0.327001 1.46922e-19)
(6.42111 -0.556057 4.72655e-21)
(6.39655 -0.784712 -1.51491e-19)
(6.36218 -1.01251 -1.33589e-19)
(6.31806 -1.23901 -1.41826e-19)
(6.26428 -1.46376 5.48165e-19)
(6.20093 -1.68634 0)
(6.12815 -1.90634 0)
(6.04607 -2.12336 2.7858e-19)
(5.95487 -2.33701 2.9593e-19)
(5.85473 -2.54696 1.07107e-18)
(5.74587 -2.75287 -5.47264e-19)
(5.62853 -2.9545 5.47263e-19)
(5.50302 -3.15156 5.80956e-19)
(5.36968 -3.34408 3.39681e-20)
(5.22918 -3.53157 -1.06702e-18)
(5.08185 -3.71483 3.78011e-21)
(4.92988 -3.89193 5.27734e-19)
(4.7724 -4.06489 0)
(6.27228 -0.097497 -3.2839e-20)
(6.26686 -0.319287 3.28386e-20)
(6.25195 -0.541111 0)
(6.22755 -0.762519 1.23691e-19)
(6.19369 -0.983078 4.01782e-19)
(6.15044 -1.20236 -5.0781e-19)
(6.09787 -1.41994 -5.38591e-19)
(6.0361 -1.63541 0)
(5.96522 -1.84839 0)
(5.88539 -2.05849 0)
(5.79675 -2.26535 -9.94293e-19)
(5.69946 -2.46865 -6.41767e-20)
(5.59374 -2.66809 -5.04146e-19)
(5.47976 -2.86346 3.02102e-20)
(5.35781 -3.05452 -9.9701e-19)
(5.22812 -3.24142 1.51945e-18)
(5.0914 -3.42371 -1.43973e-18)
(4.94769 -3.60299 4.88732e-19)
(4.80029 -3.77627 9.36945e-19)
(4.64648 -3.94845 0)
(6.11319 -0.09614 2.95028e-20)
(6.10734 -0.311398 0)
(6.09232 -0.526677 -1.21464e-19)
(6.06814 -0.741541 -2.50284e-19)
(6.03484 -0.95557 1.21311e-19)
(5.99247 -1.16835 9.68725e-19)
(5.94111 -1.37949 0)
(5.88086 -1.5886 -4.66562e-19)
(5.81184 -1.7953 -2.38632e-19)
(5.73415 -1.99924 -4.48304e-19)
(5.64795 -2.20007 -1.79377e-19)
(5.55337 -2.39749 -1.41535e-18)
(5.45059 -2.59122 -9.34224e-19)
(5.33973 -2.78106 9.61014e-19)
(5.22106 -2.96683 9.19889e-19)
(5.09457 -3.14876 -3.88496e-21)
(4.96108 -3.32649 2.99608e-20)
(4.81983 -3.50262 4.50327e-19)
(4.67594 -3.67334 -9.20642e-19)
(4.52265 -3.84855 0)
(5.96185 -0.0944681 -6.16961e-20)
(5.95569 -0.303471 3.0372e-20)
(5.94072 -0.512562 -1.21341e-19)
(5.91691 -0.72135 1.21285e-19)
(5.88429 -0.929442 -3.48833e-19)
(5.84291 -1.13645 -1.08622e-18)
(5.79284 -1.34198 0)
(5.73414 -1.54568 4.93659e-19)
(5.6669 -1.74718 -4.61589e-19)
(5.59124 -1.94614 9.7744e-19)
(5.50725 -2.14224 9.71636e-19)
(5.41505 -2.33517 1.43152e-18)
(5.31477 -2.52467 -9.28901e-19)
(5.20645 -2.71054 4.6269e-19)
(5.09033 -2.89259 -4.55032e-19)
(4.96604 -3.07104 4.55056e-19)
(4.83469 -3.24562 0)
(4.69357 -3.41955 4.12004e-19)
(4.55174 -3.58864 -4.03186e-19)
(4.39402 -3.77513 0)
(7.14018 7.26218 0)
(7.42016 6.97237 0)
(7.68723 6.67297 1.08765e-18)
(7.94211 6.36451 2.02672e-20)
(8.18421 6.04667 -1.1507e-18)
(8.41289 5.71954 0)
(8.62772 5.38351 1.18748e-18)
(8.82837 5.03912 -2.24044e-18)
(9.01454 4.68694 -1.13226e-18)
(9.18593 4.32759 -1.14285e-18)
(9.34226 3.96168 1.14285e-18)
(9.48333 3.58989 -1.15495e-18)
(9.60894 3.2129 5.76113e-19)
(9.71888 2.8314 5.49885e-19)
(9.813 2.44607 5.52035e-19)
(9.89124 2.05756 -5.85845e-19)
(9.95359 1.66655 5.85845e-19)
(10.0001 1.27373 -2.94101e-19)
(10.0307 0.879508 -1.39703e-19)
(10.046 0.485226 7.35818e-20)
(7.41715 7.07049 0)
(7.69734 6.78106 -9.96699e-19)
(7.96374 6.48007 -2.13087e-18)
(8.21664 6.16818 3.15115e-18)
(8.4558 5.84572 -2.1852e-18)
(8.68071 5.51315 2.19598e-18)
(8.89088 5.17106 1.19386e-18)
(9.08591 4.82012 -3.38783e-18)
(9.26541 4.46102 1.1083e-18)
(9.42901 4.09449 2.20326e-18)
(9.57642 3.72123 1.08552e-18)
(9.70737 3.34202 1.0924e-18)
(9.8217 2.95764 -1.15275e-18)
(9.91919 2.56883 1.69745e-18)
(9.99957 2.17638 -2.355e-18)
(10.0628 1.78115 5.81294e-19)
(10.1087 1.38395 -5.5859e-19)
(10.1376 0.985598 0)
(10.1492 0.586632 1.51573e-20)
(10.144 0.188027 0)
(7.27423 6.94579 -1.75506e-18)
(7.55725 6.67376 9.85297e-19)
(7.82772 6.38888 1.80239e-18)
(8.0852 6.0918 8.15986e-19)
(8.32926 5.7831 2.0435e-18)
(8.55937 5.46339 2.00461e-20)
(8.77501 5.13334 -1.02428e-18)
(8.97568 4.79366 -3.0526e-18)
(9.16095 4.44504 3.01376e-18)
(9.33036 4.08823 -3.09367e-18)
(9.48353 3.72396 -1.03068e-18)
(9.62016 3.353 -2.06209e-18)
(9.73994 2.97616 0)
(9.84264 2.59422 0)
(9.92814 2.20807 0)
(9.99626 1.81864 -5.25626e-19)
(10.0469 1.42674 5.50495e-19)
(10.0799 1.03324 5.27322e-19)
(10.0952 0.638862 6.2707e-21)
(10.0929 0.244563 1.32441e-19)
(7.047 6.69376 1.82274e-18)
(7.32676 6.4404 -1.65531e-18)
(7.59517 6.17392 -1.69642e-19)
(7.85151 5.89485 -1.70603e-19)
(8.09521 5.60376 4.30335e-18)
(8.32574 5.30128 -7.12687e-20)
(8.54252 4.98801 3.77791e-21)
(8.74504 4.66463 -2.72136e-18)
(8.93279 4.3318 1.79554e-18)
(9.1053 3.99023 0)
(9.26207 3.64068 9.6304e-19)
(9.40277 3.284 9.69706e-19)
(9.52712 2.92096 0)
(9.6348 2.5524 0)
(9.72559 2.17913 0)
(9.7993 1.80198 0)
(9.85572 1.42177 -2.17164e-20)
(9.89475 1.03935 4.7482e-19)
(9.91627 0.655552 -2.28016e-19)
(9.92027 0.271319 0)
(6.78435 6.379 1.54382e-18)
(7.05625 6.14351 0)
(7.31792 5.89507 -4.5456e-18)
(7.56856 5.63411 -1.54939e-18)
(7.80752 5.36115 -1.62817e-18)
(8.03423 5.07675 -1.72593e-18)
(8.24812 4.78148 8.15451e-19)
(8.44864 4.47596 -8.57003e-19)
(8.63525 4.1608 2.37969e-18)
(8.8075 3.8367 -7.79065e-19)
(8.96498 3.50443 0)
(9.10718 3.16472 0)
(9.23372 2.81826 0)
(9.34432 2.46586 0)
(9.43872 2.10831 -1.2303e-18)
(9.51667 1.74643 4.23038e-19)
(9.57795 1.38101 -4.46865e-19)
(9.62239 1.0129 0)
(9.64987 0.642932 2.24875e-19)
(9.66031 0.272006 0)
(6.50941 6.05176 1.32078e-18)
(6.77108 5.83241 -4.79983e-20)
(7.02346 5.60054 2.77819e-18)
(7.26575 5.35647 1.38799e-18)
(7.49729 5.10067 0)
(7.7175 4.83364 -1.47391e-18)
(7.92581 4.55593 6.8533e-20)
(8.12168 4.26808 -1.49631e-18)
(8.30458 3.97068 2.0701e-18)
(8.47404 3.6644 3.27471e-20)
(8.62962 3.34984 2.81231e-20)
(8.77088 3.02767 -7.46688e-19)
(8.89739 2.69859 1.46442e-18)
(9.00885 2.36337 0)
(9.10499 2.02273 6.85901e-20)
(9.18551 1.67748 7.47659e-19)
(9.25013 1.32841 1.63941e-21)
(9.29867 0.976283 -1.53507e-20)
(9.33102 0.621914 0)
(9.34703 0.266135 -4.63532e-20)
(6.24356 5.73471 0)
(6.49389 5.52935 -4.89251e-20)
(6.73569 5.31198 1.7585e-20)
(6.96818 5.08289 -2.51147e-18)
(7.19073 4.8425 0)
(7.40277 4.59124 1.27023e-18)
(7.60375 4.32962 1.35297e-18)
(7.79314 4.05814 -3.93638e-18)
(7.97044 3.77733 -6.83044e-20)
(8.13518 3.48778 -1.26401e-18)
(8.28692 3.19008 6.95961e-19)
(8.42524 2.88484 -6.42905e-19)
(8.54974 2.57275 -7.06737e-19)
(8.66004 2.25448 0)
(8.7559 1.93076 3.72855e-19)
(8.83711 1.6022 -1.69146e-20)
(8.9033 1.26965 -3.4614e-19)
(8.95423 0.933856 -1.67765e-20)
(8.98979 0.595561 -8.71331e-20)
(9.00983 0.25554 1.7464e-19)
(5.99801 5.43948 0)
(6.23676 5.24596 1.08602e-18)
(6.46756 5.04101 1.61925e-20)
(6.68969 4.82488 -1.10218e-18)
(6.90254 4.59792 0)
(7.10557 4.36055 1.14667e-18)
(7.29826 4.11321 -1.09481e-18)
(7.4801 3.85636 -1.21195e-18)
(7.65063 3.5905 2.30534e-18)
(7.80938 3.31617 1.24391e-18)
(7.95594 3.03391 0)
(8.0899 2.74433 6.0673e-19)
(8.21089 2.44803 -4.39286e-21)
(8.31858 2.14567 2.18737e-20)
(8.41256 1.83791 0)
(8.4927 1.52537 -5.97229e-19)
(8.55882 1.20869 -3.12886e-19)
(8.61053 0.888662 4.57149e-19)
(8.6477 0.566021 3.08225e-19)
(8.67016 0.241475 -4.11985e-20)
(5.77645 5.17099 0)
(6.00393 4.98745 -9.38025e-19)
(6.22392 4.79305 0)
(6.43575 4.58802 -1.01203e-18)
(6.63882 4.37266 1.99248e-18)
(6.83264 4.14736 -2.03201e-18)
(7.01671 3.91251 3.17966e-18)
(7.19056 3.66855 -3.17052e-18)
(7.35375 3.41594 -2.14211e-18)
(7.50586 3.15518 -1.57995e-18)
(7.64648 2.8868 5.41788e-19)
(7.77524 2.61134 -1.12322e-18)
(7.89177 2.32938 1.86552e-20)
(7.99577 2.04153 1.11656e-18)
(8.08693 1.74837 -2.809e-19)
(8.16488 1.45063 1.1507e-18)
(8.22953 1.14879 -5.65962e-19)
(8.28072 0.84357 2.60764e-19)
(8.31817 0.535695 -1.48708e-19)
(8.34169 0.225836 0)
(5.57859 4.92963 0)
(5.79546 4.75454 1.81471e-18)
(6.00518 4.56915 8.80281e-19)
(6.20712 4.37366 -9.06111e-19)
(6.40073 4.16834 -1.85616e-18)
(6.58554 3.95352 2.82452e-18)
(6.7611 3.72957 1.12978e-20)
(6.92696 3.49692 -9.20669e-19)
(7.08273 3.25598 1.9765e-18)
(7.22799 3.00724 1.0208e-18)
(7.36238 2.75118 -9.53712e-19)
(7.48554 2.48834 5.00783e-19)
(7.59714 2.21926 2.2547e-20)
(7.69687 1.94449 -5.26941e-19)
(7.78445 1.66462 -2.55348e-19)
(7.85959 1.38022 5.12008e-19)
(7.92206 1.09199 -2.56659e-19)
(7.97175 0.80043 -5.17931e-19)
(8.00849 0.506223 6.00179e-20)
(8.03203 0.210016 6.48983e-20)