/*--------------------------------*- C++ -*----------------------------------*\
  =========                 |
  \\      /  F ield         | OpenFOAM: The Open Source CFD Toolbox
   \\    /   O peration     | Website:  https://openfoam.org
    \\  /    A nd           | Version:  6.0
     \\/     M anipulation  |
\*---------------------------------------------------------------------------*/
FoamFile
{
    version     2.0;
    format      ascii;
    class       surfaceScalarField;
    location    "22";
    object      phi;
}
// * * * * * * * * * * * * * * * * * * * * * * * * * * * * * * * * * * * * * //

dimensions      [0 3 -1 0 0 0 0];

internalField   nonuniform List<scalar> 
38030
(
2.46648e-05
-0.0791345
0.0791098
0.000137939
-0.0723492
0.0722359
0.000338617
-0.0668097
0.0666091
0.000623334
-0.0622872
0.0620025
0.000987363
-0.0585876
0.0582236
0.00142447
-0.0555491
0.055112
0.00192762
-0.0530393
0.0525361
0.00248947
-0.0509511
0.0503892
0.0031027
-0.0491985
0.0485852
0.00376027
-0.0477124
0.0470548
0.0044555
-0.0464376
0.0457423
0.00518216
-0.0453299
0.0446032
0.00593453
-0.0443542
0.0436018
0.0067074
-0.0434824
0.0427095
0.00749607
-0.0426923
0.0419037
0.00829633
-0.0419662
0.041166
0.00910444
-0.0412901
0.0404819
0.00991714
-0.0406527
0.03984
0.0107316
-0.0400454
0.039231
0.0115453
-0.0394611
0.0386474
0.0123562
-0.0388943
0.0380834
0.0131624
-0.0383405
0.0375342
0.0139626
-0.037796
0.0369958
0.0147555
-0.0372579
0.036465
0.01554
-0.0367233
0.0359388
0.0163152
-0.0361897
0.0354145
0.0170803
-0.0356549
0.0348898
0.0178345
-0.0351162
0.034362
0.0185769
-0.0345709
0.0338285
-0.0340158
0.0332862
0.0193065
3.35541e-05
-0.079168
0.000152941
-0.0724686
0.000361548
-0.0670184
0.000656402
-0.062582
0.00103204
-0.0589633
0.00148158
-0.0559986
0.00199744
-0.0535551
0.00257184
-0.0515255
0.00319711
-0.0498238
0.00386593
-0.0483812
0.00457141
-0.047143
0.00530715
-0.0460656
0.00606732
-0.0451143
0.00684661
-0.0442617
0.00764027
-0.043486
0.00844406
-0.04277
0.00925427
-0.0421003
0.0100676
-0.0414661
0.0108814
-0.0408591
0.011693
-0.0402728
0.0125006
-0.0397019
0.0133024
-0.0391423
0.0140971
-0.0385907
0.0148835
-0.0380442
0.0156606
-0.0375004
0.0164278
-0.0369569
0.0171843
-0.0364114
0.0179295
-0.0358614
0.0186626
-0.035304
-0.034736
0.0193828
3.80393e-05
-0.0792061
0.000164647
-0.0725952
0.00038228
-0.067236
0.000687731
-0.0628875
0.00107501
-0.0593506
0.00153671
-0.0564603
0.00206479
-0.0540832
0.00265108
-0.0521118
0.00328761
-0.0504603
0.00396679
-0.0490604
0.00468151
-0.0478578
0.00542525
-0.0468094
0.00619205
-0.0458811
0.00697654
-0.0450462
0.00777392
-0.0442834
0.00857995
-0.043576
0.00939091
-0.0429112
0.0102036
-0.0422788
0.0110153
-0.0416708
0.0118235
-0.041081
0.0126265
-0.0405048
0.0134225
-0.0399384
0.0142104
-0.0393786
0.014989
-0.0388229
0.0157577
-0.038269
0.0165156
-0.0377149
0.0172624
-0.0371581
0.0179975
-0.0365964
0.0187203
-0.0360269
-0.0354458
0.0194302
4.14121e-05
-0.0792475
0.000174942
-0.0727287
0.000401652
-0.0674627
0.000717647
-0.0632035
0.00111634
-0.0597493
0.00158981
-0.0569338
0.00212955
-0.0546229
0.00272705
-0.0527093
0.00337401
-0.0511073
0.00406261
-0.049749
0.00478557
-0.0485807
0.00553621
-0.04756
0.00630847
-0.0466534
0.00709693
-0.0458346
0.00789676
-0.0450832
0.00870373
-0.044383
0.00951414
-0.0437216
0.0103248
-0.0430895
0.0111331
-0.042479
0.0119367
-0.0418846
0.0127337
-0.0413019
0.0135228
-0.0407274
0.0143026
-0.0401584
0.0150723
-0.0395926
0.0158313
-0.039028
0.016579
-0.0384625
0.017315
-0.0378942
0.018039
-0.0373205
0.0187506
-0.0367385
-0.0361445
0.0194493
4.43573e-05
-0.0792918
0.000184473
-0.0728688
0.000420051
-0.0676983
0.000746337
-0.0635298
0.00115609
-0.060159
0.00164083
-0.0574185
0.00219162
-0.0551737
0.00279958
-0.0533172
0.00345613
-0.0517638
0.00415321
-0.0504461
0.00488336
-0.0493109
0.00563978
-0.0483164
0.00641634
-0.0474299
0.00720755
-0.0466259
0.00800858
-0.0458842
0.0088152
-0.0451896
0.00962377
-0.0445302
0.0104312
-0.0438968
0.0112347
-0.0432826
0.0120324
-0.0426823
0.0128223
-0.0420918
0.0136031
-0.0415082
0.0143738
-0.0409291
0.0151335
-0.0403523
0.0158817
-0.0397762
0.0166182
-0.039199
0.0173425
-0.0386185
0.0180546
-0.0380325
0.0187542
-0.0374381
-0.0368313
0.019441
4.70831e-05
-0.0793389
0.0001935
-0.0730153
0.000437661
-0.0679424
0.000773894
-0.063866
0.00119426
-0.0605794
0.00168972
-0.057914
0.0022509
-0.0557349
0.00286854
-0.0539349
0.0035338
-0.0524291
0.00423838
-0.0511507
0.00497468
-0.0500472
0.00573576
-0.0490775
0.00651544
-0.0482096
0.00730819
-0.0474186
0.00810917
-0.0466852
0.0089142
-0.0459947
0.00971965
-0.0453357
0.0105225
-0.0446997
0.0113202
-0.0440803
0.0121107
-0.0434727
0.0128923
-0.0428734
0.0136637
-0.0422797
0.0144241
-0.0416895
0.0151728
-0.041101
0.0159094
-0.0405128
0.0166337
-0.0399232
0.0173455
-0.0393303
0.0180449
-0.0387319
0.0187317
-0.038125
-0.0375056
0.019406
4.96744e-05
-0.0793886
0.000202144
-0.0731677
0.000454572
-0.0681949
0.000800358
-0.0642118
0.00123084
-0.0610099
0.00173643
-0.0584196
0.00230729
-0.0563058
0.00293381
-0.0545614
0.00360687
-0.0531021
0.00431798
-0.0518618
0.00505935
-0.0507885
0.00582398
-0.0498421
0.0066056
-0.0489912
0.00739869
-0.0482117
0.00819841
-0.0474849
0.0090006
-0.0467969
0.00980172
-0.0461368
0.0105988
-0.0454968
0.0113894
-0.0448709
0.0121716
-0.0442549
0.0129437
-0.0436456
0.0137048
-0.0430408
0.014454
-0.0424386
0.0151907
-0.0418378
0.0159148
-0.0412369
0.016626
-0.0406345
0.0173246
-0.0400289
0.0180106
-0.0394179
0.0186841
-0.0387985
-0.0381667
0.0193452
5.21642e-05
-0.0794408
0.000210457
-0.073326
0.000470826
-0.0684552
0.000825742
-0.0645667
0.00126582
-0.0614499
0.00178091
-0.0589347
0.00236072
-0.0568856
0.00299529
-0.055196
0.00367523
-0.0537821
0.00439185
-0.0525784
0.00513724
-0.0515339
0.0059043
-0.0506092
0.00668671
-0.0497737
0.00747894
-0.0490039
0.00827619
-0.0482822
0.00907434
-0.047595
0.00986994
-0.0469324
0.0106601
-0.0462869
0.0114425
-0.0456533
0.0122152
-0.0450276
0.012977
-0.0444073
0.0137267
-0.0437905
0.0144636
-0.0431756
0.0151875
-0.0425617
0.0158983
-0.0419476
0.0165958
-0.0413321
0.0172805
-0.0407135
0.0179525
-0.0400899
0.0186122
-0.0394582
-0.0388142
0.0192597
5.4569e-05
-0.0794953
0.000218461
-0.0734899
0.000486437
-0.0687232
0.000850041
-0.0649303
0.00129917
-0.0618991
0.0018231
-0.0594586
0.00241111
-0.0574736
0.00305289
-0.0558377
0.00373878
-0.0544679
0.00445991
-0.0532995
0.00520824
-0.0522823
0.0059766
-0.0513775
0.00675865
-0.0505557
0.00754886
-0.0497941
0.00834246
-0.0490758
0.00913542
-0.048388
0.00992435
-0.0477213
0.0107065
-0.047069
0.0114795
-0.0464264
0.0122419
-0.04579
0.0129922
-0.0451576
0.0137295
-0.0445278
0.0144535
-0.0438996
0.0151638
-0.043272
0.0158604
-0.0426442
0.0165437
-0.0420153
0.0172138
-0.0413837
0.0178714
-0.0407474
0.0185167
-0.0401035
-0.0394478
0.0191503
5.68925e-05
-0.0795522
0.000226165
-0.0736592
0.000501404
-0.0689984
0.000873241
-0.0653021
0.00133086
-0.0623567
0.00186296
-0.0599907
0.0024584
-0.058069
0.00310652
-0.0564859
0.00379742
-0.0551588
0.00452205
-0.0540241
0.00527227
-0.0530325
0.00604083
-0.0521461
0.00682138
-0.0513363
0.00760843
-0.0505812
0.00839725
-0.0498646
0.00918388
-0.0491746
0.00996504
-0.0485025
0.010738
-0.047842
0.0115008
-0.0471891
0.0122517
-0.0465409
0.0129896
-0.0458956
0.0137139
-0.0452521
0.014424
-0.0446097
0.0151199
-0.0439679
0.0158019
-0.0433262
0.0164702
-0.0426836
0.0171254
-0.0420389
0.017768
-0.0413901
0.0183987
-0.0407342
-0.0400671
0.0190181
5.91367e-05
-0.0796114
0.000233568
-0.0738336
0.000515722
-0.0692806
0.000895327
-0.0656817
0.00136086
-0.0628222
0.00190046
-0.0605303
0.00250254
-0.0586711
0.00315614
-0.0571395
0.00385111
-0.0558538
0.00457824
-0.0547513
0.00532927
-0.0537835
0.00609695
-0.0529138
0.0068749
-0.0521142
0.00765766
-0.0513639
0.00844059
-0.0506475
0.00921981
-0.0499538
0.00999213
-0.0492748
0.010755
-0.0486049
0.0115065
-0.0479406
0.0122451
-0.0472795
0.0129698
-0.0466203
0.01368
-0.0459623
0.0143756
-0.0453053
0.0150566
-0.0446489
0.0157232
-0.0439928
0.0163761
-0.0433365
0.0170159
-0.0426786
0.0176432
-0.0420175
0.018259
-0.04135
-0.040672
0.0188639
6.13014e-05
-0.0796727
0.000240666
-0.074013
0.000529381
-0.0695693
0.000916283
-0.0660686
0.00138914
-0.0632951
0.00193555
-0.0610767
0.0025435
-0.0592791
0.00320171
-0.0577977
0.0038998
-0.0565519
0.00462842
-0.0554799
0.00537924
-0.0545343
0.00614495
-0.0536795
0.00691922
-0.0528885
0.00769662
-0.0521413
0.00847259
-0.0514235
0.00924335
-0.0507246
0.0100058
-0.0500373
0.0107576
-0.0493567
0.0114969
-0.0486798
0.0122223
-0.0480049
0.012933
-0.047331
0.0136285
-0.0466579
0.0143089
-0.0459856
0.0149742
-0.0453142
0.0156251
-0.0446437
0.0162621
-0.0439735
0.016886
-0.0433026
0.0174978
-0.0426293
0.0180984
-0.0419506
-0.0412622
0.0186886
6.33831e-05
-0.079736
0.000247454
-0.074197
0.000542373
-0.0698642
0.000936096
-0.0664624
0.00141569
-0.0637747
0.00196822
-0.0616292
0.00258126
-0.0598921
0.0032432
-0.0584596
0.00394348
-0.0572522
0.00467261
-0.056209
0.00542218
-0.0552839
0.00618488
-0.0544422
0.0069544
-0.053658
0.00772539
-0.0529123
0.00849337
-0.0521915
0.00925467
-0.0514859
0.0100064
-0.0507889
0.0107461
-0.0500965
0.0114723
-0.049406
0.0121837
-0.0487163
0.0128797
-0.0480269
0.0135599
-0.0473381
0.0142244
-0.0466501
0.0148736
-0.0459634
0.0155081
-0.0452782
0.0161288
-0.0445942
0.0167366
-0.0439104
0.0173326
-0.0432252
0.0179178
-0.0425358
-0.0418377
0.0184932
6.53802e-05
-0.0798014
0.000253925
-0.0743856
0.00055469
-0.070165
0.000954757
-0.0668624
0.00144051
-0.0642604
0.00199847
-0.0621872
0.0026158
-0.0605094
0.00328062
-0.0591244
0.00398216
-0.0579537
0.00471082
-0.0569377
0.00545814
-0.0560312
0.0062168
-0.0552009
0.00698056
-0.0544217
0.00774412
-0.0536759
0.00850312
-0.0529505
0.00925401
-0.0522368
0.00999398
-0.0515289
0.0107209
-0.0508234
0.0114332
-0.0501183
0.0121299
-0.0494129
0.0128104
-0.0487074
0.0134745
-0.0480023
0.0141226
-0.0472982
0.0147552
-0.046596
0.0153729
-0.045896
0.0159769
-0.0451981
0.0165683
-0.0445017
0.0171482
-0.0438051
0.0177178
-0.0431054
-0.0423983
0.0182784
6.72893e-05
-0.0798687
0.000260076
-0.0745784
0.000566327
-0.0704712
0.000972264
-0.0672684
0.00146359
-0.0647518
0.00202629
-0.0627499
0.00264714
-0.0611303
0.00331399
-0.0597913
0.00401587
-0.0586556
0.0047431
-0.0576649
0.00548718
-0.0567753
0.00624082
-0.0559545
0.00699781
-0.0551787
0.00775298
-0.0544311
0.00850207
-0.0536996
0.00924164
-0.0529764
0.00996905
-0.0522563
0.0106823
-0.0515366
0.01138
-0.050816
0.0120612
-0.0500942
0.0127256
-0.0493718
0.0133732
-0.0486498
0.0140043
-0.0479293
0.0146197
-0.0472114
0.0152203
-0.0464966
0.0158072
-0.0457851
0.0163818
-0.0450763
0.0169454
-0.0443687
0.0174993
-0.0436594
-0.0429439
0.018045
6.91085e-05
-0.0799378
0.000265903
-0.0747752
0.000577285
-0.0707826
0.000988623
-0.0676797
0.00148494
-0.0652481
0.0020517
-0.0633167
0.0026753
-0.0617539
0.00334333
-0.0604593
0.00404466
-0.059357
0.00476952
-0.0583897
0.00550941
-0.0575152
0.00625706
-0.0567021
0.00700635
-0.055928
0.0077522
-0.0551769
0.00849047
-0.0544379
0.00921788
-0.0537038
0.00993192
-0.0529704
0.0106307
-0.0522354
0.0113131
-0.0514983
0.0119782
-0.0507593
0.0126259
-0.0500195
0.0132563
-0.0492802
0.01387
-0.048543
0.0144677
-0.0478091
0.0150507
-0.0470796
0.0156202
-0.0463546
0.0161778
-0.0456338
0.0167248
-0.0449158
0.0172629
-0.0441975
-0.0434745
0.0177935
7.0834e-05
-0.0800087
0.000271405
-0.0749757
0.000587571
-0.0710988
0.00100385
-0.068096
0.00150459
-0.0657488
0.00207474
-0.0638868
0.00270033
-0.0623795
0.0033687
-0.0611277
0.0040686
-0.0600569
0.00479018
-0.0591113
0.00552495
-0.05825
0.00626569
-0.0574429
0.00700637
-0.0566687
0.00774202
-0.0559125
0.00846863
-0.0551645
0.00918309
-0.0544182
0.009883
-0.0536703
0.0105667
-0.0529191
0.011233
-0.0521647
0.0118815
-0.0514078
0.0125119
-0.0506499
0.0131247
-0.049893
0.0137204
-0.0491387
0.0143001
-0.0483888
0.014865
-0.0476445
0.0154167
-0.0469063
0.0159568
-0.0461739
0.0164871
-0.045446
0.0170091
-0.0447196
-0.04399
0.0175245
7.24628e-05
-0.0800811
0.000276584
-0.0751799
0.000597197
-0.0714194
0.00101797
-0.0685168
0.00152257
-0.0662534
0.00209545
-0.0644597
0.00272228
-0.0630063
0.00339018
-0.0617956
0.00408778
-0.0607545
0.0048052
-0.0598287
0.00553395
-0.0589787
0.0062669
-0.0581758
0.0069981
-0.0573999
0.00772273
-0.0566372
0.00843691
-0.0558787
0.00913766
-0.055119
0.00982276
-0.0543554
0.0104907
-0.053587
0.0111405
-0.0528144
0.0117717
-0.052039
0.0123843
-0.0512626
0.0129789
-0.0504876
0.0135562
-0.049716
0.0141174
-0.04895
0.0146639
-0.048191
0.0151973
-0.0474398
0.0157196
-0.0466962
0.0162327
-0.045959
0.0167384
-0.0452253
-0.0444901
0.0172385
7.39933e-05
-0.0801551
0.000281448
-0.0753873
0.00060619
-0.0717442
0.00103103
-0.0689416
0.00153895
-0.0667613
0.0021139
-0.0650347
0.00274123
-0.0636336
0.00340786
-0.0624622
0.00410232
-0.0614489
0.00481471
-0.0605411
0.00553659
-0.0597006
0.00626091
-0.0589002
0.00698183
-0.0581208
0.00769465
-0.05735
0.00839566
-0.0565797
0.00908204
-0.0558053
0.00975171
-0.055025
0.0104033
-0.0542386
0.011036
-0.0534471
0.0116494
-0.0526525
0.0122439
-0.0518571
0.0128198
-0.0510635
0.0133783
-0.0502745
0.0139205
-0.0494922
0.014448
-0.0487185
0.0149627
-0.0479545
0.0154668
-0.0472003
0.0159622
-0.0464545
0.0164512
-0.0457142
-0.0449745
0.0169356
7.54211e-05
-0.0802305
0.00028601
-0.0755979
0.000614588
-0.0720727
0.00104308
-0.0693701
0.00155378
-0.067272
0.00213016
-0.065611
0.00275726
-0.0642607
0.00342183
-0.0631268
0.00411233
-0.0621394
0.00481887
-0.0612477
0.00553307
-0.0604148
0.00624796
-0.059615
0.00695784
-0.0588307
0.00765815
-0.0580503
0.00834533
-0.0572668
0.00901671
-0.0564767
0.00967039
-0.0556787
0.0103051
-0.0548733
0.0109202
-0.0540622
0.0115155
-0.0532478
0.0120913
-0.0524328
0.0126483
-0.0516205
0.0131874
-0.0508136
0.0137102
-0.0500149
0.0142183
-0.0492266
0.0147138
-0.04845
0.0151989
-0.0476854
0.0156762
-0.0469317
0.0161479
-0.046186
-0.0454429
0.0166163
7.67457e-05
-0.0803073
0.000290297
-0.0758115
0.00062245
-0.0724049
0.0010542
-0.0698018
0.00156715
-0.067785
0.00214432
-0.0661882
0.00277046
-0.0648869
0.0034322
-0.0637885
0.00411796
-0.0628252
0.00481786
-0.0619476
0.00552359
-0.0611205
0.00622831
-0.0603198
0.00692645
-0.0595288
0.00761359
-0.0587374
0.00828634
-0.0579396
0.0089422
-0.0571326
0.0095794
-0.0563159
0.0101969
-0.0554908
0.010794
-0.0546594
0.0113708
-0.0538246
0.0119276
-0.0529897
0.0124652
-0.0521581
0.0129847
-0.0513331
0.0134875
-0.0505178
0.0139757
-0.0497147
0.0144513
-0.0489256
0.0149169
-0.048151
0.0153752
-0.0473901
0.015829
-0.0466397
-0.0458945
0.0162806
7.797e-05
-0.0803852
0.000294356
-0.0760278
0.000629865
-0.0727404
0.00106451
-0.0702365
0.00157919
-0.0682997
0.00215649
-0.0667655
0.00278096
-0.0655113
0.00343911
-0.0644467
0.00411934
-0.0635054
0.00481184
-0.06264
0.00550838
-0.0618171
0.00620224
-0.0610136
0.00688799
-0.0602146
0.00756138
-0.0594108
0.00821918
-0.0585974
0.00885905
-0.0577724
0.00947938
-0.0569363
0.0100792
-0.0560906
0.0106581
-0.0552383
0.0112162
-0.0543826
0.0117538
-0.0535273
0.0122717
-0.052676
0.0127712
-0.0518326
0.0132538
-0.0510004
0.0137214
-0.0501824
0.0141764
-0.0493807
0.0146216
-0.0485962
0.01506
-0.0478285
0.0154948
-0.0470745
-0.0463284
0.0159288
7.9111e-05
-0.0804644
0.000298269
-0.076247
0.000636962
-0.0730791
0.00107413
-0.0706736
0.00159
-0.0688155
0.00216678
-0.0673423
0.00278886
-0.0661334
0.00344267
-0.0651005
0.00411664
-0.0641794
0.00480101
-0.0633244
0.00548767
-0.0625038
0.00617002
-0.061696
0.0068428
-0.0608874
0.00750193
-0.06007
0.00814433
-0.0592398
0.00876783
-0.0583959
0.00937098
-0.0575394
0.00995295
-0.0566726
0.0105134
-0.0557988
0.0110526
-0.0549217
0.0115708
-0.0540455
0.012069
-0.0531742
0.0125483
-0.0523119
0.0130103
-0.0514624
0.0134569
-0.050629
0.0138906
-0.0498144
0.0143144
-0.04902
0.0147317
-0.0482458
0.0151462
-0.047489
-0.0467434
0.0155612
8.02116e-05
-0.0805446
0.000302181
-0.076469
0.00064393
-0.0734208
0.00108324
-0.071113
0.00159973
-0.069332
0.00217532
-0.0679179
0.00279426
-0.0667524
0.003443
-0.0657492
0.00410998
-0.0648464
0.00478553
-0.064
0.00546167
-0.0631799
0.00613194
-0.0623662
0.00679123
-0.0615467
0.00743564
-0.0607144
0.00806228
-0.0598664
0.00866912
-0.0590028
0.00925488
-0.0581252
0.00981887
-0.0572366
0.0103609
-0.0563408
0.0108811
-0.0554419
0.01138
-0.0545444
0.0118585
-0.0536527
0.0123176
-0.052771
0.0127588
-0.0519036
0.0131841
-0.0510542
0.0135958
-0.0502261
0.0139971
-0.0494214
0.0143919
-0.0486406
0.0147843
-0.0478814
-0.0471375
0.0151785
8.13879e-05
-0.080626
0.000306342
-0.0766939
0.000651041
-0.0737655
0.00109207
-0.071554
0.00160855
-0.0698485
0.00218221
-0.0684915
0.00279728
-0.0673674
0.00344021
-0.0663921
0.0040995
-0.0655057
0.00476559
-0.0646661
0.00543061
-0.0638449
0.00608826
-0.0630239
0.00673361
-0.062192
0.00736292
-0.0613437
0.0079735
-0.060477
0.00856348
-0.0595928
0.00913175
-0.0586934
0.00967773
-0.0577826
0.0102013
-0.0568644
0.0107028
-0.0559434
0.0111826
-0.0550243
0.0116417
-0.0541117
0.0120808
-0.0532102
0.0125015
-0.0523242
0.0129053
-0.051458
0.0132945
-0.0506153
0.0136723
-0.0497992
0.0140428
-0.049011
0.014411
-0.0482496
-0.0475084
0.0147819
8.28966e-05
-0.0807089
0.000311174
-0.0769222
0.00065866
-0.074113
0.00110086
-0.0719962
0.00161659
-0.0703642
0.00218756
-0.0690625
0.00279799
-0.0679779
0.00343439
-0.0670285
0.00408533
-0.0661566
0.00474133
-0.0653221
0.00539467
-0.0644983
0.00603922
-0.0636684
0.00667022
-0.062823
0.00728413
-0.0619576
0.00787842
-0.0610713
0.00845144
-0.0601658
0.0090022
-0.0592442
0.00953028
-0.0583107
0.0100357
-0.0573698
0.0105187
-0.0564265
0.01098
-0.0554855
0.0114201
-0.0545518
0.01184
-0.0536301
0.0122406
-0.0527249
0.0126234
-0.0518408
0.0129902
-0.0509821
0.0133438
-0.0501527
0.0136883
-0.0493556
0.0140296
-0.0485908
-0.0478529
0.014374
8.52373e-05
-0.0807941
0.000317304
-0.0771543
0.000667235
-0.0744629
0.00110984
-0.0724388
0.00162396
-0.0708783
0.0021914
-0.06963
0.00279644
-0.0685829
0.0034256
-0.0676577
0.00406754
-0.0667985
0.00471288
-0.0659674
0.00535403
-0.0651394
0.00598504
-0.0642994
0.00660134
-0.0634393
0.00719959
-0.0625558
0.00777745
-0.0616492
0.00833345
-0.0607218
0.00886678
-0.0597775
0.00937718
-0.058821
0.00986476
-0.0578574
0.0103299
-0.0568916
0.0107732
-0.0559288
0.0111954
-0.054974
0.011597
-0.0540317
0.0119789
-0.0531068
0.012342
-0.0522038
0.0126873
-0.0513274
0.013017
-0.0504824
0.0133345
-0.0496731
0.013646
-0.0489024
-0.0481671
0.0139603
8.93386e-05
-0.0808834
0.000325706
-0.0773906
0.000677328
-0.0748146
0.00111925
-0.0728807
0.00163074
-0.0713898
0.00219376
-0.070193
0.00279262
-0.0691818
0.00341387
-0.0682789
0.00404619
-0.0674309
0.00468032
-0.0666015
0.00530883
-0.0657679
0.0059259
-0.0649165
0.00652719
-0.0640406
0.00710956
-0.0631382
0.00767088
-0.0622105
0.00820987
-0.0612608
0.00872591
-0.0602936
0.0092189
-0.059314
0.00968911
-0.0583276
0.010137
-0.0573395
0.0105633
-0.0563551
0.0109687
-0.0553793
0.0113537
-0.0544167
0.0117188
-0.0534719
0.0120644
-0.0525494
0.0123908
-0.0516538
0.0126986
-0.0507902
0.0129895
-0.0499641
0.0132688
-0.0491817
-0.048447
0.0135487
9.76496e-05
-0.0809811
0.000338376
-0.0776314
0.000689756
-0.075166
0.00112925
-0.0733202
0.00163685
-0.0718974
0.00219452
-0.0707507
0.00278647
-0.0697737
0.00339916
-0.0688916
0.00402131
-0.068053
0.00464374
-0.067224
0.00525914
-0.0663833
0.00586193
-0.0655193
0.00644793
-0.0646266
0.00701423
-0.0637045
0.00755893
-0.0627552
0.00808094
-0.0617828
0.00857986
-0.0607925
0.00905577
-0.0597899
0.00950909
-0.0587809
0.0099405
-0.057771
0.0103508
-0.0567654
0.0107408
-0.0557693
0.0111111
-0.054787
0.0114622
-0.053823
0.011794
-0.0528813
0.0121062
-0.051966
0.0123974
-0.0510814
0.0126657
-0.0502323
0.0129116
-0.0494276
-0.0486882
0.0131528
0.000117951
-0.081099
0.000358288
-0.0778717
0.000704798
-0.0755125
0.00113944
-0.0737549
0.00164187
-0.0723998
0.00219341
-0.0713022
0.00277782
-0.0703581
0.00338141
-0.0694952
0.00399288
-0.0686645
0.00460313
-0.0678342
0.00520505
-0.0669852
0.0057932
-0.0661075
0.00636367
-0.0651971
0.00691374
-0.0642546
0.00744173
-0.0632832
0.0079468
-0.0622879
0.00842873
-0.0612744
0.0088878
-0.060249
0.00932466
-0.0592178
0.00974019
-0.0581865
0.0101354
-0.0571607
0.0105114
-0.0561453
0.0108692
-0.0551448
0.0112097
-0.0541635
0.0115335
-0.0532051
0.0118405
-0.052273
0.0121291
-0.05137
0.0123926
-0.0504959
0.0126166
-0.0496516
-0.0488687
0.0127971
0.0834781
8.75706e-05
-0.0835657
0.0834008
7.72773e-05
0.0833266
7.41875e-05
0.083253
7.36704e-05
0.0831787
7.42455e-05
0.0831034
7.53373e-05
0.0830268
7.66285e-05
0.0829488
7.79544e-05
0.0828696
7.92355e-05
0.0827891
8.0441e-05
0.0827076
8.1557e-05
0.082625
8.25783e-05
0.0825415
8.35054e-05
0.0824572
8.43376e-05
0.0823721
8.50762e-05
0.0822864
8.57205e-05
0.0822001
8.62715e-05
0.0821134
8.67288e-05
0.0820263
8.70896e-05
0.0819389
8.73536e-05
0.0818514
8.75165e-05
0.0817638
8.75722e-05
0.0816763
8.75079e-05
0.081589
8.73057e-05
0.0815021
8.6927e-05
0.0814158
8.62984e-05
0.0813305
8.52598e-05
0.0812471
8.34387e-05
0.0811674
7.96651e-05
6.83955e-05
0.0838688
0.000248573
-0.0840298
0.0837017
0.000244397
0.0835314
0.000244507
0.0833579
0.000247139
0.0831811
0.000251095
0.0830006
0.000255791
0.0828164
0.000260841
0.0826284
0.00026598
0.0824366
0.000271048
0.0822411
0.000275947
0.082042
0.000280621
0.0818396
0.000285036
0.0816339
0.00028917
0.0814252
0.000293011
0.0812137
0.00029655
0.0809997
0.000299779
0.0807833
0.000302695
0.0805647
0.000305292
0.0803442
0.000307563
0.0801221
0.000309501
0.0798985
0.000311094
0.0796737
0.000312327
0.0794481
0.00031317
0.0792218
0.000313581
0.0789952
0.000313487
0.0787688
0.000312758
0.0785429
0.00031115
0.0783181
0.000308185
0.0780951
0.000302762
0.000291743
0.0841128
0.000452872
-0.0843171
0.0838967
0.00046056
0.0836715
0.000469704
0.0834385
0.000480131
0.0831982
0.000491345
0.082951
0.000503008
0.082697
0.000514855
0.0824363
0.000526657
0.0821691
0.000538243
0.0818956
0.000549493
0.0816159
0.00056032
0.0813303
0.000570661
0.081039
0.000580476
0.0807422
0.00058973
0.0804404
0.000598402
0.0801337
0.000606473
0.0798225
0.000613926
0.079507
0.00062075
0.0791876
0.000626927
0.0788647
0.000632444
0.0785385
0.000637281
0.0782094
0.000641409
0.0778778
0.000644792
0.077544
0.000647373
0.0772084
0.000649066
0.0768715
0.000649734
0.0765335
0.000649156
0.0761947
0.000646963
0.075855
0.000642473
0.000634245
0.0841186
0.000677289
-0.084343
0.0838802
0.000699003
0.0836292
0.000720711
0.0833667
0.000742628
0.0830934
0.000764637
0.0828098
0.000786593
0.0825163
0.000808347
0.0822132
0.000829748
0.0819008
0.000850656
0.0815793
0.000870959
0.0812491
0.000890564
0.0809103
0.000909398
0.0805634
0.000927403
0.0802086
0.000944534
0.0798463
0.000960753
0.0794767
0.000976027
0.0791003
0.000990332
0.0787174
0.00100364
0.0783284
0.00101593
0.0779337
0.00102718
0.0775336
0.00103735
0.0771286
0.00104642
0.0767191
0.00105433
0.0763054
0.00106103
0.075888
0.00106644
0.0754673
0.00107043
0.0750436
0.00107285
0.0746172
0.00107342
0.0741879
0.00107178
0.00106725
0.0838496
0.000903103
-0.0840754
0.0836082
0.000940448
0.0833518
0.00097707
0.0830813
0.00101318
0.0827971
0.00104879
0.0824999
0.00108384
0.08219
0.00111825
0.0818678
0.00115192
0.0815337
0.00118475
0.081188
0.00121664
0.0808311
0.0012475
0.0804632
0.00127726
0.0800848
0.00130586
0.0796961
0.00133324
0.0792975
0.00135935
0.0788894
0.00138414
0.0784721
0.00140758
0.0780461
0.00142964
0.0776118
0.00145028
0.0771695
0.00146946
0.0767197
0.00148715
0.0762628
0.0015033
0.0757992
0.00151788
0.0753295
0.00153081
0.0748539
0.00154203
0.0743729
0.00155143
0.0738868
0.00155891
0.073396
0.00156428
0.0729004
0.00156735
0.0015678
0.0833027
0.0011169
-0.0835165
0.0830719
0.00117125
0.0828244
0.0012245
0.0825609
0.00127678
0.0822815
0.00132809
0.081987
0.00137843
0.0816775
0.00142771
0.0813535
0.00147589
0.0810154
0.00152285
0.0806635
0.00156854
0.0802982
0.00161286
0.0799197
0.00165573
0.0795285
0.00169709
0.0791248
0.00173687
0.0787092
0.00177501
0.0782818
0.00181147
0.0778432
0.00184619
0.0773937
0.00187913
0.0769338
0.00191024
0.0764638
0.00193948
0.0759841
0.0019668
0.0754952
0.00199216
0.0749976
0.00201551
0.0744916
0.00203678
0.0739778
0.0020559
0.0734564
0.00207281
0.0729279
0.00208741
0.0723926
0.00209961
0.0718506
0.00210927
0.00211625
0.082497
0.00130984
-0.08269
0.082286
0.00138231
0.082057
0.00145345
0.0818105
0.0015233
0.0815467
0.00159186
0.081266
0.00165911
0.0809688
0.00172498
0.0806553
0.0017894
0.0803258
0.00185229
0.0799808
0.00191357
0.0796205
0.00197316
0.0792452
0.00203098
0.0788554
0.00208695
0.0784512
0.002141
0.0780332
0.00219306
0.0776016
0.00224307
0.0771568
0.00229097
0.0766992
0.00233671
0.0762293
0.00238022
0.0757473
0.00242146
0.0752537
0.00246037
0.074749
0.0024969
0.0742335
0.00253099
0.0737077
0.00256258
0.073172
0.00259162
0.0726268
0.00261802
0.0720724
0.00264173
0.0715094
0.00266268
0.0709378
0.0026808
0.00269597
0.0814649
0.00147675
-0.0816318
0.0812791
0.00156812
0.0810746
0.00165801
0.0808515
0.00174641
0.08061
0.0018333
0.0803505
0.00191862
0.0800732
0.0020023
0.0797783
0.00208426
0.0794662
0.00216442
0.0791371
0.00224268
0.0787913
0.00231897
0.0784291
0.00239319
0.0780508
0.00246526
0.0776567
0.0025351
0.0772471
0.00260263
0.0768224
0.00266778
0.0763829
0.00273047
0.075929
0.00279064
0.075461
0.00284823
0.0749793
0.00290316
0.0744842
0.00295539
0.0739763
0.00300483
0.0734559
0.00305144
0.0729233
0.00309515
0.072379
0.0031359
0.0718234
0.00317363
0.0712569
0.00320828
0.0706797
0.00323979
0.0700924
0.00326812
0.00329318
0.0802449
0.00161519
-0.0803833
0.0800871
0.00172594
0.0799099
0.00183512
0.0797137
0.00194269
0.0794984
0.00204858
0.0792643
0.00215273
0.0790115
0.00225504
0.0787404
0.00235543
0.078451
0.00245379
0.0781436
0.00255004
0.0778185
0.00264407
0.0774759
0.00273578
0.0771161
0.00282508
0.0767393
0.00291189
0.0763459
0.0029961
0.075936
0.00307764
0.0755101
0.00315642
0.0750683
0.00323236
0.0746112
0.00330539
0.0741389
0.00337544
0.0736519
0.00344242
0.0731504
0.00350627
0.072635
0.00356692
0.0721058
0.0036243
0.0715634
0.00367835
0.071008
0.00372901
0.07044
0.00377622
0.0698599
0.00381992
0.0692679
0.00386009
0.00389662
0.0788767
0.00172479
-0.0789863
0.0787475
0.00185512
0.0785988
0.00198385
0.0784306
0.00211089
0.0782431
0.00223615
0.0780362
0.00235955
0.0778103
0.00248097
0.0775654
0.00260032
0.0773017
0.00271748
0.0770194
0.00283235
0.0767187
0.00294481
0.0763997
0.00305475
0.0760627
0.00316208
0.0757079
0.00326669
0.0753355
0.00336847
0.0749458
0.00346733
0.0745391
0.00356318
0.0741155
0.00365592
0.0736755
0.00374547
0.0732192
0.00383173
0.0727469
0.00391463
0.0722591
0.00399409
0.071756
0.00407003
0.0712379
0.00414238
0.0707052
0.00421105
0.0701582
0.004276
0.0695973
0.00433716
0.0690227
0.00439447
0.0684349
0.00444789
0.00449734
0.0773988
0.0018066
-0.0774807
0.0772975
0.00195651
0.0771765
0.00210479
0.0770361
0.00225135
0.0768761
0.00239608
0.0766968
0.00253887
0.0764982
0.00267961
0.0762803
0.00281816
0.0760434
0.00295441
0.0757875
0.00308824
0.0755128
0.00321952
0.0752194
0.00334814
0.0749075
0.00347398
0.0745773
0.00359692
0.0742289
0.00371685
0.0738626
0.00383366
0.0734785
0.00394725
0.0730769
0.00405752
0.072658
0.00416435
0.0722221
0.00426767
0.0717693
0.00436736
0.0713001
0.00446335
0.0708145
0.00455555
0.0703131
0.00464387
0.0697959
0.00472823
0.0692633
0.00480857
0.0687156
0.00488482
0.0681532
0.00495691
0.0675763
0.0050248
0.0050884
0.0758462
0.00186265
-0.0759022
0.0757708
0.00203192
0.075676
0.00219959
0.0755618
0.00236553
0.0754283
0.00252962
0.0752754
0.00269174
0.0751033
0.00285175
0.0749119
0.00300951
0.0747014
0.0031649
0.0744719
0.00331778
0.0742234
0.00346802
0.073956
0.00361549
0.07367
0.00376005
0.0733653
0.00390159
0.0730422
0.00403998
0.0727007
0.0041751
0.0723411
0.00430684
0.0719636
0.00443508
0.0715682
0.0045597
0.0711553
0.00468061
0.0707249
0.0047977
0.0702774
0.00491087
0.0698129
0.00502002
0.0693318
0.00512507
0.0688341
0.00522591
0.0683202
0.00532248
0.0677903
0.0054147
0.0672447
0.0055025
0.0666837
0.00558583
0.0056646
0.0742495
0.00189554
-0.0742824
0.0741976
0.00208383
0.0741266
0.00227057
0.0740365
0.0024556
0.0739274
0.00263878
0.0737991
0.00281998
0.0736518
0.00299906
0.0734855
0.00317585
0.0733001
0.00335023
0.0730959
0.00352205
0.0728727
0.00369117
0.0726308
0.00385744
0.0723701
0.00402073
0.0720908
0.00418091
0.0717929
0.00433784
0.0714766
0.00449139
0.071142
0.00464143
0.0707893
0.00478785
0.0704184
0.00493052
0.0700297
0.00506933
0.0696233
0.00520416
0.0691992
0.00533491
0.0687578
0.00546146
0.0682992
0.00558372
0.0678235
0.00570159
0.067331
0.00581497
0.0668219
0.0059238
0.0662964
0.006028
0.0657547
0.00612751
0.00622222
0.0726348
0.00190816
-0.0726474
0.0726036
0.00211506
0.0725537
0.00232044
0.0724852
0.00252415
0.0723979
0.00272605
0.0722919
0.00292596
0.0721672
0.00312376
0.0720238
0.00331926
0.0718617
0.00351234
0.0716809
0.00370282
0.0714815
0.00389057
0.0712635
0.00407544
0.071027
0.00425727
0.070772
0.00443594
0.0704985
0.00461129
0.0702067
0.00478318
0.0698966
0.0049515
0.0695684
0.0051161
0.0692221
0.00527685
0.0688578
0.00543364
0.0684756
0.00558634
0.0680756
0.00573484
0.0676581
0.00587901
0.0672231
0.00601875
0.0667707
0.00615395
0.0663012
0.00628451
0.0658146
0.00641036
0.0653112
0.0065314
0.0647911
0.00664758
0.00675879
0.0710235
0.00190351
-0.0710189
0.0710101
0.00212852
0.0709784
0.00235207
0.0709286
0.00257399
0.0708605
0.00279412
0.0707742
0.00301231
0.0706696
0.00322837
0.0705467
0.00344217
0.0704055
0.00365352
0.070246
0.00386229
0.0700683
0.0040683
0.0698723
0.00427141
0.0696581
0.00447147
0.0694257
0.00466832
0.0691752
0.00486181
0.0689066
0.00505182
0.0686199
0.0052382
0.0683152
0.0054208
0.0679925
0.0055995
0.067652
0.00577417
0.0672936
0.00594468
0.0669176
0.0061109
0.0665239
0.00627271
0.0661126
0.00642999
0.065684
0.00658263
0.065238
0.00673052
0.0647748
0.00687356
0.0642945
0.00701169
0.0637972
0.00714481
0.00727286
0.0694328
0.00188452
-0.0694138
0.0694342
0.00212713
0.0694179
0.00236832
0.069384
0.00260793
0.0693323
0.00284579
0.0692629
0.00308173
0.0691757
0.00331557
0.0690707
0.00354714
0.0689479
0.0037763
0.0688074
0.00400286
0.068649
0.00422668
0.0684728