/*--------------------------------*- C++ -*----------------------------------*\
  =========                 |
  \\      /  F ield         | OpenFOAM: The Open Source CFD Toolbox
   \\    /   O peration     | Website:  https://openfoam.org
    \\  /    A nd           | Version:  6.0
     \\/     M anipulation  |
\*---------------------------------------------------------------------------*/
FoamFile
{
    version     2.0;
    format      ascii;
    class       surfaceScalarField;
    location    "22";
    object      phi;
}
// * * * * * * * * * * * * * * * * * * * * * * * * * * * * * * * * * * * * * //

dimensions      [0 3 -1 0 0 0 0];

internalField   nonuniform List<scalar> 
38030
(
2.46664e-05
-0.0791346
0.07911
0.000137943
-0.0723496
0.0722363
0.000338621
-0.0668103
0.0666096
0.000623335
-0.0622879
0.0620032
0.000987359
-0.0585885
0.0582245
0.00142446
-0.05555
0.0551129
0.0019276
-0.0530403
0.0525371
0.00248942
-0.0509522
0.0503903
0.00310264
-0.0491996
0.0485864
0.00376019
-0.0477136
0.047056
0.00445539
-0.0464388
0.0457436
0.00518202
-0.0453311
0.0446045
0.00593435
-0.0443554
0.0436031
0.00670719
-0.0434836
0.0427108
0.00749581
-0.0426936
0.0419049
0.00829603
-0.0419674
0.0411672
0.0091041
-0.0412913
0.0404832
0.00991676
-0.0406539
0.0398412
0.0107311
-0.0400466
0.0392322
0.0115448
-0.0394623
0.0386486
0.0123556
-0.0388954
0.0380846
0.0131619
-0.0383416
0.0375354
0.013962
-0.0377971
0.036997
0.0147548
-0.0372589
0.0364661
0.0155392
-0.0367243
0.0359399
0.0163144
-0.0361908
0.0354156
0.0170794
-0.0356559
0.0348909
0.0178336
-0.0351172
0.0343631
0.018576
-0.034572
0.0338296
-0.0340168
0.0332873
0.0193055
3.35553e-05
-0.0791682
0.000152944
-0.072469
0.00036155
-0.0670189
0.0006564
-0.0625827
0.00103203
-0.0589641
0.00148156
-0.0559996
0.00199741
-0.0535561
0.00257178
-0.0515265
0.00319703
-0.0498249
0.00386583
-0.0483824
0.00457128
-0.0471442
0.00530699
-0.0460668
0.00606712
-0.0451155
0.00684637
-0.0442629
0.00763999
-0.0434872
0.00844374
-0.0427712
0.0092539
-0.0421014
0.0100672
-0.0414672
0.0108809
-0.0408602
0.0116925
-0.0402739
0.0125
-0.039703
0.0133018
-0.0391434
0.0140964
-0.0385918
0.0148828
-0.0380453
0.0156599
-0.0375014
0.016427
-0.0369579
0.0171834
-0.0364124
0.0179285
-0.0358624
0.0186616
-0.035305
-0.034737
0.0193818
3.80402e-05
-0.0792062
0.000164648
-0.0725956
0.00038228
-0.0672366
0.000687725
-0.0628882
0.001075
-0.0593514
0.00153669
-0.0564613
0.00206475
-0.0540842
0.00265102
-0.0521128
0.00328752
-0.0504614
0.00396667
-0.0490615
0.00468137
-0.0478589
0.00542507
-0.0468105
0.00619183
-0.0458823
0.00697628
-0.0450473
0.00777361
-0.0442845
0.0085796
-0.0435772
0.00939052
-0.0429123
0.0102032
-0.0422799
0.0110148
-0.0416718
0.011823
-0.0410821
0.0126259
-0.0405059
0.0134219
-0.0399394
0.0142097
-0.0393796
0.0149883
-0.0388239
0.0157569
-0.03827
0.0165148
-0.0377158
0.0172615
-0.0371591
0.0179965
-0.0365974
0.0187193
-0.0360278
-0.0354468
0.0194291
4.14127e-05
-0.0792476
0.000174942
-0.0727291
0.00040165
-0.0674633
0.000717638
-0.0632042
0.00111632
-0.0597501
0.00158977
-0.0569347
0.0021295
-0.0546239
0.00272697
-0.0527103
0.00337391
-0.0511083
0.00406248
-0.0497501
0.00478541
-0.0485818
0.00553601
-0.0475611
0.00630823
-0.0466545
0.00709665
-0.0458358
0.00789644
-0.0450843
0.00870336
-0.0443841
0.00951373
-0.0437227
0.0103244
-0.0430905
0.0111326
-0.04248
0.0119361
-0.0418856
0.0127331
-0.0413029
0.0135221
-0.0407284
0.0143018
-0.0401593
0.0150715
-0.0395935
0.0158304
-0.0390289
0.0165781
-0.0384634
0.017314
-0.0378951
0.018038
-0.0373213
0.0187496
-0.0367394
-0.0361455
0.0194482
4.43576e-05
-0.079292
0.000184472
-0.0728692
0.000420046
-0.0676988
0.000746325
-0.0635305
0.00115606
-0.0601598
0.00164079
-0.0574194
0.00219156
-0.0551747
0.00279949
-0.0533182
0.00345602
-0.0517648
0.00415306
-0.0504471
0.00488318
-0.0493119
0.00563957
-0.0483175
0.00641608
-0.047431
0.00720725
-0.0466269
0.00800824
-0.0458853
0.00881481
-0.0451907
0.00962333
-0.0445312
0.0104307
-0.0438978
0.0112342
-0.0432836
0.0120318
-0.0426832
0.0128216
-0.0420927
0.0136024
-0.0415091
0.014373
-0.0409299
0.0151327
-0.0403532
0.0158809
-0.0397771
0.0166172
-0.0391998
0.0173415
-0.0386193
0.0180535
-0.0380334
0.0187531
-0.037439
-0.0368322
0.0194399
4.70831e-05
-0.0793391
0.000193499
-0.0730157
0.000437654
-0.067943
0.000773878
-0.0638667
0.00119423
-0.0605802
0.00168967
-0.0579149
0.00225083
-0.0557358
0.00286845
-0.0539358
0.00353367
-0.0524301
0.00423823
-0.0511517
0.00497449
-0.0500482
0.00573553
-0.0490785
0.00651517
-0.0482107
0.00730787
-0.0474196
0.00810881
-0.0466862
0.00891379
-0.0459957
0.00971919
-0.0453366
0.010522
-0.0447006
0.0113196
-0.0440812
0.01211
-0.0434736
0.0128916
-0.0428743
0.013663
-0.0422805
0.0144234
-0.0416903
0.015172
-0.0411019
0.0159085
-0.0405136
0.0166327
-0.039924
0.0173445
-0.0393311
0.0180438
-0.0387327
0.0187306
-0.0381258
-0.0375064
0.0194048
4.96741e-05
-0.0793888
0.000202141
-0.0731681
0.000454564
-0.0681954
0.000800339
-0.0642125
0.00123081
-0.0610106
0.00173638
-0.0584204
0.00230721
-0.0563067
0.00293371
-0.0545623
0.00360674
-0.0531031
0.00431781
-0.0518627
0.00505915
-0.0507895
0.00582374
-0.0498431
0.00660532
-0.0489922
0.00739836
-0.0482127
0.00819803
-0.0474859
0.00900017
-0.0467978
0.00980124
-0.0461377
0.0105983
-0.0454976
0.0113888
-0.0448718
0.0121709
-0.0442557
0.0129431
-0.0436464
0.0137041
-0.0430416
0.0144532
-0.0424394
0.0151899
-0.0418385
0.0159139
-0.0412376
0.0166251
-0.0406352
0.0173236
-0.0400296
0.0180095
-0.0394186
0.018683
-0.0387993
-0.0381675
0.0193441
5.21636e-05
-0.0794409
0.000210453
-0.0733264
0.000470816
-0.0684558
0.00082572
-0.0645674
0.00126579
-0.0614507
0.00178085
-0.0589355
0.00236064
-0.0568865
0.00299518
-0.0551969
0.00367509
-0.053783
0.00439168
-0.0525793
0.00513703
-0.0515349
0.00590404
-0.0506101
0.00668641
-0.0497746
0.00747859
-0.0490049
0.00827579
-0.0482831
0.0090739
-0.0475959
0.00986944
-0.0469332
0.0106595
-0.0462878
0.0114419
-0.0456541
0.0122146
-0.0450284
0.0129763
-0.0444081
0.0137259
-0.0437912
0.0144628
-0.0431763
0.0151867
-0.0425624
0.0158973
-0.0419483
0.0165948
-0.0413328
0.0172794
-0.0407142
0.0179514
-0.0400906
0.018611
-0.0394589
-0.038815
0.0192585
5.45682e-05
-0.0794955
0.000218456
-0.0734903
0.000486424
-0.0687237
0.000850015
-0.0649309
0.00129913
-0.0618998
0.00182304
-0.0594594
0.00241102
-0.0574744
0.00305277
-0.0558386
0.00373863
-0.0544689
0.00445972
-0.0533004
0.00520802
-0.0522832
0.00597633
-0.0513785
0.00675834
-0.0505566
0.0075485
-0.049795
0.00834206
-0.0490767
0.00913497
-0.0483888
0.00992384
-0.0477221
0.0107059
-0.0470698
0.0114789
-0.0464271
0.0122412
-0.0457907
0.0129914
-0.0451583
0.0137288
-0.0445285
0.0144526
-0.0439002
0.0151629
-0.0432726
0.0158595
-0.0426449
0.0165427
-0.0420159
0.0172128
-0.0413843
0.0178703
-0.0407481
0.0185156
-0.0401042
-0.0394485
0.0191491
5.68913e-05
-0.0795524
0.00022616
-0.0736596
0.000501389
-0.068999
0.000873213
-0.0653028
0.00133081
-0.0623574
0.0018629
-0.0599915
0.0024583
-0.0580699
0.00310639
-0.0564867
0.00379726
-0.0551597
0.00452186
-0.054025
0.00527203
-0.0530334
0.00604055
-0.052147
0.00682106
-0.0513371
0.00760806
-0.050582
0.00839683
-0.0498654
0.00918341
-0.0491754
0.00996451
-0.0485032
0.0107375
-0.0478428
0.0115002
-0.0471898
0.012251
-0.0465415
0.0129889
-0.0458962
0.0137131
-0.0452527
0.0144231
-0.0446103
0.015119
-0.0439685
0.0158009
-0.0433268
0.0164692
-0.0426842
0.0171243
-0.0420395
0.0177669
-0.0413907
0.0183976
-0.0407349
-0.0400678
0.0190169
5.91353e-05
-0.0796115
0.000233562
-0.073834
0.000515705
-0.0692811
0.000895296
-0.0656824
0.00136081
-0.0628229
0.00190038
-0.0605311
0.00250244
-0.0586719
0.00315601
-0.0571403
0.00385094
-0.0558547
0.00457803
-0.0547521
0.00532903
-0.0537844
0.00609666
-0.0529146
0.00687456
-0.052115
0.00765728
-0.0513647
0.00844016
-0.0506483
0.00921933
-0.0499546
0.0099916
-0.0492755
0.0107544
-0.0486056
0.0115058
-0.0479412
0.0122444
-0.0472801
0.012969
-0.0466209
0.0136792
-0.0459629
0.0143747
-0.0453058
0.0150556
-0.0446494
0.0157222
-0.0439934
0.0163751
-0.043337
0.0170148
-0.0426792
0.0176421
-0.042018
0.0182578
-0.0413506
-0.0406727
0.0188627
6.12997e-05
-0.0796728
0.000240658
-0.0740134
0.000529363
-0.0695698
0.00091625
-0.0660693
0.00138909
-0.0632958
0.00193547
-0.0610775
0.0025434
-0.0592798
0.00320157
-0.0577985
0.00389963
-0.0565527
0.00462821
-0.0554807
0.00537899
-0.0545351
0.00614466
-0.0536803
0.00691887
-0.0528892
0.00769623
-0.0521421
0.00847215
-0.0514242
0.00924286
-0.0507253
0.0100053
-0.0500379
0.010757
-0.0493573
0.0114962
-0.0486804
0.0122216
-0.0480054
0.0129322
-0.0473315
0.0136277
-0.0466584
0.014308
-0.0459861
0.0149733
-0.0453147
0.0156241
-0.0446441
0.016261
-0.0439739
0.0168849
-0.0433031
0.0174967
-0.0426298
0.0180972
-0.0419511
-0.0412628
0.0186874
6.33811e-05
-0.0797362
0.000247446
-0.0741974
0.000542354
-0.0698647
0.00093606
-0.066463
0.00141564
-0.0637753
0.00196814
-0.06163
0.00258115
-0.0598928
0.00324306
-0.0584604
0.00394331
-0.057253
0.00467239
-0.0562098
0.00542192
-0.0552847
0.00618458
-0.0544429
0.00695405
-0.0536587
0.00772499
-0.052913
0.00849292
-0.0521922
0.00925417
-0.0514865
0.0100058
-0.0507895
0.0107455
-0.050097
0.0114717
-0.0494065
0.012183
-0.0487168
0.0128789
-0.0480274
0.013559
-0.0473385
0.0142235
-0.0466506
0.0148726
-0.0459639
0.0155071
-0.0452786
0.0161277
-0.0445946
0.0167355
-0.0439108
0.0173314
-0.0432257
0.0179166
-0.0425363
-0.0418383
0.018492
6.5378e-05
-0.0798016
0.000253916
-0.074386
0.000554669
-0.0701655
0.000954719
-0.066863
0.00144045
-0.0642611
0.00199838
-0.0621879
0.00261569
-0.0605101
0.00328048
-0.0591252
0.00398198
-0.0579545
0.0047106
-0.0569384
0.00545787
-0.056032
0.0062165
-0.0552016
0.0069802
-0.0544224
0.00774372
-0.0536765
0.00850267
-0.0529511
0.00925351
-0.0522374
0.00999343
-0.0515295
0.0107203
-0.0508239
0.0114325
-0.0501188
0.0121292
-0.0494134
0.0128096
-0.0487078
0.0134737
-0.0480027
0.0141218
-0.0472986
0.0147542
-0.0465963
0.015372
-0.0458963
0.0159759
-0.0451985
0.0165672
-0.0445021
0.017147
-0.0438056
0.0177167
-0.0431059
-0.0423988
0.0182772
6.72869e-05
-0.0798689
0.000260066
-0.0745787
0.000566305
-0.0704717
0.000972224
-0.0672689
0.00146353
-0.0647524
0.0020262
-0.0627506
0.00264702
-0.061131
0.00331384
-0.059792
0.00401569
-0.0586563
0.00474287
-0.0576656
0.00548691
-0.056776
0.00624051
-0.0559552
0.00699746
-0.0551794
0.00775258
-0.0544317
0.00850162
-0.0537002
0.00924114
-0.0529769
0.0099685
-0.0522568
0.0106817
-0.0515371
0.0113793
-0.0508164
0.0120605
-0.0500946
0.0127248
-0.0493722
0.0133723
-0.0486502
0.0140034
-0.0479297
0.0146188
-0.0472117
0.0152193
-0.0464969
0.0158062
-0.0457854
0.0163807
-0.0450767
0.0169442
-0.0443691
0.0174982
-0.0436598
-0.0429444
0.0180438
6.91059e-05
-0.079938
0.000265893
-0.0747755
0.000577262
-0.0707831
0.000988582
-0.0676802
0.00148488
-0.0652487
0.00205161
-0.0633173
0.00267519
-0.0617545
0.00334318
-0.06046
0.00404447
-0.0593576
0.00476929
-0.0583904
0.00550914
-0.0575158
0.00625675
-0.0567028
0.007006
-0.0559286
0.0077518
-0.0551775
0.00849002
-0.0544384
0.00921739
-0.0537043
0.00993137
-0.0529708
0.0106301
-0.0522358
0.0113124
-0.0514987
0.0119775
-0.0507597
0.0126251
-0.0500198
0.0132555
-0.0492805
0.0138691
-0.0485433
0.0144668
-0.0478094
0.0150498
-0.0470798
0.0156192
-0.0463549
0.0161767
-0.0456341
0.0167237
-0.0449161
0.0172617
-0.0441979
-0.043475
0.0177923
7.08313e-05
-0.0800088
0.000271394
-0.0749761
0.000587547
-0.0710992
0.00100381
-0.0680965
0.00150452
-0.0657494
0.00207465
-0.0638874
0.00270021
-0.0623801
0.00336855
-0.0611283
0.00406841
-0.0600575
0.00478995
-0.0591119
0.00552468
-0.0582506
0.00626538
-0.0574435
0.00700601
-0.0566692
0.00774162
-0.0559131
0.00846819
-0.0551649
0.00918259
-0.0544187
0.00988246
-0.0536707
0.0105661
-0.0529195
0.0112324
-0.052165
0.0118808
-0.0514081
0.0125112
-0.0506502
0.0131239
-0.0498932
0.0137195
-0.049139
0.0142992
-0.048389
0.0148641
-0.0476447
0.0154157
-0.0469065
0.0159558
-0.0461742
0.0164859
-0.0454463
0.0170079
-0.0447199
-0.0439903
0.0175233
7.246e-05
-0.0800813
0.000276573
-0.0751802
0.000597172
-0.0714198
0.00101793
-0.0685173
0.00152251
-0.066254
0.00209536
-0.0644603
0.00272216
-0.0630069
0.00339003
-0.0617962
0.0040876
-0.060755
0.00480497
-0.0598293
0.00553368
-0.0589793
0.00626659
-0.0581764
0.00699775
-0.0574004
0.00772233
-0.0566376
0.00843647
-0.0558791
0.00913717
-0.0551194
0.00982223
-0.0543557
0.0104901
-0.0535874
0.0111398
-0.0528147
0.011771
-0.0520392
0.0123836
-0.0512628
0.0129781
-0.0504877
0.0135554
-0.0497162
0.0141165
-0.0489501
0.0146629
-0.0481911
0.0151963
-0.0474399
0.0157186
-0.0466964
0.0162316
-0.0459592
0.0167372
-0.0452255
-0.0444904
0.0172372
7.39903e-05
-0.0801553
0.000281436
-0.0753876
0.000606165
-0.0717446
0.00103098
-0.0689421
0.00153888
-0.0667619
0.00211381
-0.0650352
0.00274111
-0.0636342
0.00340771
-0.0624628
0.00410213
-0.0614495
0.00481448
-0.0605417
0.00553633
-0.0597011
0.00626061
-0.0589006
0.00698149
-0.0581213
0.00769426
-0.0573504
0.00839523
-0.0565801
0.00908156
-0.0558057
0.00975119
-0.0550254
0.0104027
-0.0542389
0.0110353
-0.0534473
0.0116488
-0.0526527
0.0122432
-0.0518572
0.0128191
-0.0510637
0.0133774
-0.0502746
0.0139196
-0.0494923
0.0144471
-0.0487186
0.0149618
-0.0479546
0.0154657
-0.0472004
0.0159611
-0.0464546
0.01645
-0.0457144
-0.0449748
0.0169344
7.54181e-05
-0.0802307
0.000285998
-0.0755982
0.000614563
-0.0720731
0.00104303
-0.0693706
0.00155371
-0.0672725
0.00213006
-0.0656116
0.00275714
-0.0642613
0.00342168
-0.0631273
0.00411215
-0.0621399
0.00481865
-0.0612482
0.00553281
-0.0604153
0.00624766
-0.0596155
0.0069575
-0.0588311
0.00765777
-0.0580507
0.00834491
-0.0572672
0.00901625
-0.056477
0.00966988
-0.055679
0.0103046
-0.0548736
0.0109196
-0.0540624
0.0115149
-0.0532479
0.0120906
-0.052433
0.0126475
-0.0516206
0.0131866
-0.0508137
0.0137093
-0.050015
0.0142174
-0.0492266
0.0147128
-0.04845
0.0151979
-0.0476855
0.0156751
-0.0469318
0.0161468
-0.0461861
-0.0454431
0.0166151
7.67426e-05
-0.0803074
0.000290286
-0.0758118
0.000622425
-0.0724053
0.00105416
-0.0698023
0.00156709
-0.0677855
0.00214423
-0.0661887
0.00277035
-0.0648874
0.00343206
-0.063789
0.00411778
-0.0628257
0.00481764
-0.061948
0.00552334
-0.061121
0.00622802
-0.0603202
0.00692612
-0.0595292
0.00761322
-0.0587378
0.00828594
-0.0579399
0.00894175
-0.0571328
0.00957891
-0.0563162
0.0101963
-0.055491
0.0107934
-0.0546595
0.0113702
-0.0538247
0.011927
-0.0529897
0.0124645
-0.0521581
0.0129839
-0.0513331
0.0134867
-0.0505178
0.0139748
-0.0497147
0.0144503
-0.0489256
0.0149159
-0.048151
0.0153741
-0.0473901
0.0158278
-0.0466398
-0.0458946
0.0162794
7.79668e-05
-0.0803854
0.000294345
-0.0760282
0.000629841
-0.0727408
0.00106446
-0.0702369
0.00157912
-0.0683001
0.0021564
-0.066766
0.00278084
-0.0655118
0.00343896
-0.0644471
0.00411917
-0.0635059
0.00481163
-0.0626405
0.00550814
-0.0618175
0.00620196
-0.061014
0.00688767
-0.0602149
0.00756103
-0.0594111
0.00821879
-0.0585977
0.00885862
-0.0577727
0.00947891
-0.0569364
0.0100787
-0.0560908
0.0106576
-0.0552384
0.0112156
-0.0543827
0.0117531
-0.0535273
0.012271
-0.052676
0.0127705
-0.0518325
0.013253
-0.0510003
0.0137206
-0.0501823
0.0141755
-0.0493806
0.0146207
-0.0485961
0.015059
-0.0478284
0.0154937
-0.0470745
-0.0463285
0.0159276
7.91078e-05
-0.0804645
0.000298258
-0.0762473
0.000636938
-0.0730794
0.00107409
-0.0706741
0.00158993
-0.068816
0.0021667
-0.0673427
0.00278874
-0.0661339
0.00344253
-0.0651009
0.00411647
-0.0641798
0.0048008
-0.0633248
0.00548743
-0.0625041
0.00616975
-0.0616963
0.0068425
-0.0608877
0.00750159
-0.0600702
0.00814396
-0.05924
0.00876742
-0.0583961
0.00937054
-0.0575396
0.00995248
-0.0566727
0.0105129
-0.0557988
0.011052
-0.0549218
0.0115702
-0.0540455
0.0120684
-0.0531742
0.0125476
-0.0523118
0.0130096
-0.0514622
0.0134561
-0.0506288
0.0138898
-0.0498142
0.0143135
-0.0490199
0.0147307
-0.0482457
0.0151451
-0.0474889
-0.0467433
0.01556
8.02084e-05
-0.0805447
0.00030217
-0.0764693
0.000643907
-0.0734212
0.0010832
-0.0711134
0.00159967
-0.0693324
0.00217524
-0.0679183
0.00279416
-0.0667528
0.00344286
-0.0657496
0.00410981
-0.0648468
0.00478534
-0.0640003
0.00546145
-0.0631802
0.00613168
-0.0623666
0.00679095
-0.0615469
0.00743532
-0.0607146
0.00806193
-0.0598666
0.00866874
-0.0590029
0.00925447
-0.0581253
0.00981842
-0.0572367
0.0103604
-0.0563408
0.0108806
-0.0554419
0.0113795
-0.0545444
0.0118579
-0.0536526
0.012317
-0.0527709
0.0127582
-0.0519034
0.0131834
-0.051054
0.013595
-0.0502259
0.0139963
-0.0494211
0.0143909
-0.0486403
0.0147833
-0.0478812
-0.0471374
0.0151773
8.13848e-05
-0.0806261
0.000306332
-0.0766942
0.000651018
-0.0737659
0.00109203
-0.0715544
0.00160849
-0.0698489
0.00218213
-0.068492
0.00279718
-0.0673678
0.00344008
-0.0663925
0.00409935
-0.065506
0.0047654
-0.0646664
0.0054304
-0.0638452
0.00608802
-0.0630242
0.00673333
-0.0621923
0.00736262
-0.0613439
0.00797317
-0.0604772
0.00856312
-0.0595929
0.00913136
-0.0586935
0.00967732
-0.0577826
0.0102009
-0.0568644
0.0107023
-0.0559434
0.0111821
-0.0550242
0.0116411
-0.0541116
0.0120803
-0.05321
0.0125009
-0.052324
0.0129046
-0.0514578
0.0132938
-0.050615
0.0136715
-0.0497989
0.0140419
-0.0490107
0.01441
-0.0482493
-0.0475082
0.0147808
8.28936e-05
-0.080709
0.000311164
-0.0769225
0.000658638
-0.0741133
0.00110082
-0.0719966
0.00161653
-0.0703646
0.00218748
-0.0690629
0.00279789
-0.0679782
0.00343426
-0.0670289
0.00408518
-0.066157
0.00474115
-0.0653224
0.00539447
-0.0644986
0.00603899
-0.0636687
0.00666997
-0.0628232
0.00728385
-0.0619578
0.00787812
-0.0610715
0.00845111
-0.0601659
0.00900184
-0.0592443
0.0095299
-0.0583107
0.0100353
-0.0573698
0.0105183
-0.0564264
0.0109795
-0.0554854
0.0114196
-0.0545517
0.0118395
-0.0536299
0.0122401
-0.0527246
0.0126228
-0.0518405
0.0129896
-0.0509818
0.0133431
-0.0501524
0.0136876
-0.0493552
0.0140287
-0.0485904
-0.0478526
0.0143731
8.52344e-05
-0.0807942
0.000317294
-0.0771545
0.000667214
-0.0744633
0.00110981
-0.0724391
0.00162391
-0.0708787
0.00219133
-0.0696303
0.00279634
-0.0685833
0.00342548
-0.067658
0.00406739
-0.0667989
0.00471271
-0.0659677
0.00535384
-0.0651397
0.00598483
-0.0642997
0.00660111
-0.0634395
0.00719932
-0.062556
0.00777716
-0.0616493
0.00833314
-0.0607219
0.00886645
-0.0597776
0.00937683
-0.0588211
0.00986439
-0.0578573
0.0103295
-0.0568915
0.0107728
-0.0559287
0.011195
-0.0549738
0.0115966
-0.0540315
0.0119785
-0.0531065
0.0123415
-0.0522035
0.0126868
-0.0513271
0.0130164
-0.050482
0.0133338
-0.0496726
0.0136453
-0.0489019
-0.0481667
0.0139594
8.9336e-05
-0.0808835
0.000325696
-0.0773909
0.000677308
-0.0748149
0.00111922
-0.0728811
0.00163069
-0.0713902
0.00219369
-0.0701933
0.00279253
-0.0691821
0.00341375
-0.0682793
0.00404606
-0.0674312
0.00468017
-0.0666018
0.00530865
-0.0657682
0.0059257
-0.0649167
0.00652697
-0.0640408
0.00710932
-0.0631383
0.00767061
-0.0622106
0.00820959
-0.0612608
0.00872562
-0.0602936
0.0092186
-0.059314
0.00968879
-0.0583275
0.0101367
-0.0573395
0.010563
-0.056355
0.0109683
-0.0553791
0.0113533
-0.0544165
0.0117184
-0.0534717
0.012064
-0.0525491
0.0123904
-0.0516534
0.0126982
-0.0507897
0.0129891
-0.0499635
0.0132682
-0.0491811
-0.0484462
0.0135478
9.76479e-05
-0.0809812
0.000338366
-0.0776316
0.000689735
-0.0751662
0.00112922
-0.0733205
0.0016368
-0.0718977
0.00219446
-0.070751
0.00278639
-0.069774
0.00339906
-0.0688919
0.00402119
-0.0680533
0.00464359
-0.0672242
0.00525898
-0.0663836
0.00586174
-0.0655195
0.00644773
-0.0646268
0.00701401
-0.0637046
0.00755869
-0.0627553
0.00808069
-0.0617828
0.0085796
-0.0607925
0.00905549
-0.0597899
0.00950881
-0.0587808
0.00994022
-0.0577709
0.0103505
-0.0567653
0.0107405
-0.0557691
0.0111108
-0.0547868
0.0114619
-0.0538228
0.0117938
-0.052881
0.012106
-0.0519656
0.0123973
-0.051081
0.0126656
-0.0502318
0.0129115
-0.049427
-0.0486874
0.0131526
0.000117951
-0.0810991
0.000358276
-0.0778719
0.000704778
-0.0755127
0.00113941
-0.0737552
0.00164183
-0.0724002
0.00219334
-0.0713025
0.00277773
-0.0703584
0.00338131
-0.0694955
0.00399276
-0.0686648
0.004603
-0.0678344
0.00520489
-0.0669854
0.00579303
-0.0661076
0.00636348
-0.0651972
0.00691353
-0.0642547
0.00744152
-0.0632833
0.00794657
-0.0622879
0.00842849
-0.0612744
0.00888756
-0.060249
0.00932442
-0.0592177
0.00973995
-0.0581864
0.0101352
-0.0571605
0.0105112
-0.0561451
0.010869
-0.0551447
0.0112096
-0.0541633
0.0115334
-0.0532048
0.0118405
-0.0522727
0.0121292
-0.0513696
0.0123928
-0.0504955
0.0126171
-0.0496513
-0.0488689
0.0127987
0.0834782
8.75704e-05
-0.0835658
0.0834009
7.72767e-05
0.0833267
7.41862e-05
0.0832531
7.3669e-05
0.0831788
7.42441e-05
0.0831035
7.53359e-05
0.0830268
7.66272e-05
0.0829489
7.79532e-05
0.0828697
7.92343e-05
0.0827892
8.04398e-05
0.0827077
8.15558e-05
0.0826251
8.25772e-05
0.0825416
8.35043e-05
0.0824572
8.43365e-05
0.0823722
8.50751e-05
0.0822865
8.57194e-05
0.0822002
8.62704e-05
0.0821135
8.67276e-05
0.0820264
8.70885e-05
0.081939
8.73524e-05
0.0818515
8.75152e-05
0.0817639
8.75709e-05
0.0816764
8.75064e-05
0.0815891
8.73041e-05
0.0815022
8.69253e-05
0.0814159
8.62965e-05
0.0813306
8.52578e-05
0.0812472
8.34366e-05
0.0811675
7.96631e-05
6.83937e-05
0.083869
0.000248566
-0.08403
0.0837019
0.000244391
0.0835315
0.000244502
0.0833581
0.000247134
0.0831812
0.00025109
0.0830008
0.000255786
0.0828166
0.000260836
0.0826285
0.000265975
0.0824367
0.000271043
0.0822412
0.000275942
0.0820422
0.000280616
0.0818397
0.000285031
0.0816341
0.000289165
0.0814254
0.000293006
0.0812139
0.000296545
0.0809999
0.000299775
0.0807834
0.00030269
0.0805649
0.000305288
0.0803444
0.000307558
0.0801223
0.000309496
0.0798987
0.000311089
0.0796739
0.000312321
0.0794483
0.000313165
0.079222
0.000313576
0.0789955
0.000313481
0.078769
0.000312751
0.0785431
0.000311143
0.0783184
0.000308178
0.0780953
0.000302755
0.000291737
0.0841129
0.00045286
-0.0843172
0.0838968
0.000460549
0.0836716
0.000469693
0.0834386
0.00048012
0.0831984
0.000491334
0.0829511
0.000502997
0.0826971
0.000514844
0.0824365
0.000526646
0.0821693
0.000538232
0.0818957
0.000549482
0.081616
0.000560309
0.0813304
0.000570651
0.0810391
0.000580465
0.0807424
0.000589719
0.0804406
0.000598391
0.0801339
0.000606462
0.0798227
0.000613915
0.0795072
0.000620739
0.0791878
0.000626916
0.0788649
0.000632433
0.0785387
0.000637269
0.0782096
0.000641398
0.077878
0.00064478
0.0775442
0.000647361
0.0772087
0.000649053
0.0768717
0.00064972
0.0765337
0.000649142
0.0761949
0.000646948
0.0758552
0.000642458
0.000634228
0.0841187
0.000677272
-0.0843431
0.0838802
0.000698985
0.0836292
0.000720693
0.0833667
0.00074261
0.0830935
0.000764618
0.0828099
0.000786574
0.0825164
0.000808329
0.0822133
0.000829729
0.0819009
0.000850638
0.0815795
0.00087094
0.0812492
0.000890545
0.0809105
0.000909379
0.0805636
0.000927385
0.0802088
0.000944515
0.0798464
0.000960734
0.0794769
0.000976008
0.0791005
0.000990313
0.0787176
0.00100362
0.0783286
0.00101591
0.0779339
0.00102716
0.0775338
0.00103733
0.0771288
0.0010464
0.0767193
0.00105431
0.0763056
0.00106101
0.0758883
0.00106642
0.0754676
0.00107041
0.0750439
0.00107282
0.0746175
0.0010734
0.0741882
0.00107175
0.00106722
0.0838497
0.000903078
-0.0840755
0.0836082
0.000940423
0.0833519
0.000977044
0.0830813
0.00101316
0.0827972
0.00104876
0.0825
0.00108381
0.0821901
0.00111822
0.0818679
0.00115189
0.0815338
0.00118472
0.0811881
0.00121661
0.0808312
0.00124747
0.0804634
0.00127724
0.0800849
0.00130584
0.0796962
0.00133321
0.0792976
0.00135932
0.0788895
0.00138411
0.0784723
0.00140756
0.0780463
0.00142961
0.077612
0.00145025
0.0771697
0.00146943
0.0767199
0.00148712
0.076263
0.00150327
0.0757995
0.00151785
0.0753297
0.00153078
0.0748541
0.001542
0.0743732
0.0015514
0.0738871
0.00155887
0.0733963
0.00156424
0.0729007
0.00156731
0.00156776
0.0833027
0.00111686
-0.0835165
0.0830719
0.00117122
0.0828245
0.00122447
0.0825609
0.00127674
0.0822816
0.00132806
0.081987
0.00137839
0.0816776
0.00142768
0.0813536
0.00147585
0.0810155
0.00152282
0.0806636
0.0015685
0.0802983
0.00161282
0.0799198
0.00165569
0.0795286
0.00169705
0.079125
0.00173683
0.0787093
0.00177498
0.078282
0.00181144
0.0778434
0.00184616
0.0773939
0.00187909
0.076934
0.0019102
0.0764639
0.00193944
0.0759843
0.00196676
0.0754954
0.00199212
0.0749978
0.00201546
0.0744919
0.00203673
0.073978
0.00205586
0.0734566
0.00207277
0.0729281
0.00208736
0.0723928
0.00209955
0.0718509
0.00210921
0.00211619
0.082497
0.0013098
-0.0826899
0.0822859
0.00138227
0.082057
0.0014534
0.0818105
0.00152325
0.0815467
0.00159182
0.0812661
0.00165907
0.0809688
0.00172493
0.0806553
0.00178935
0.0803259
0.00185225
0.0799809
0.00191353
0.0796206
0.00197312
0.0792453
0.00203093
0.0788555
0.0020869
0.0784513
0.00214095
0.0780333
0.00219301
0.0776017
0.00224302
0.077157
0.00229092
0.0766994
0.00233666
0.0762294
0.00238017
0.0757474
0.00242141
0.0752539
0.00246032
0.0747492
0.00249685
0.0742337
0.00253094
0.0737079
0.00256253
0.0731722
0.00259156
0.072627
0.00261796
0.0720727
0.00264167
0.0715096
0.00266261
0.0709381
0.00268072
0.0026959
0.0814649
0.0014767
-0.0816318
0.0812791
0.00156807
0.0810745
0.00165795
0.0808514
0.00174636
0.08061
0.00183325
0.0803505
0.00191856
0.0800732
0.00200224
0.0797784
0.0020842
0.0794662
0.00216436
0.0791372
0.00224263
0.0787914
0.00231891
0.0784292
0.00239313
0.0780509
0.0024652
0.0776568
0.00253504
0.0772472
0.00260257
0.0768225
0.00266772
0.076383
0.00273041
0.0759291
0.00279058
0.0754611
0.00284817
0.0749794
0.0029031
0.0744844
0.00295532
0.0739765
0.00300477
0.073456
0.00305137
0.0729235
0.00309508
0.0723792
0.00313583
0.0718236
0.00317355
0.0712571
0.0032082
0.07068
0.00323971
0.0700927
0.00326803
0.00329309
0.0802448
0.00161513
-0.0803833
0.080087
0.00172588
0.0799099
0.00183506
0.0797136
0.00194263
0.0794984
0.00204852
0.0792642
0.00215267
0.0790115
0.00225498
0.0787404
0.00235536
0.078451
0.00245373
0.0781436
0.00254997
0.0778186
0.002644
0.077476
0.00273571
0.0771162
0.00282501
0.0767394
0.00291182
0.0763459
0.00299603
0.0759361
0.00307757
0.0755101
0.00315635
0.0750684
0.00323229
0.0746113
0.00330532
0.074139
0.00337536
0.073652
0.00344234
0.0731506
0.00350619
0.0726351
0.00356684
0.072106
0.00362422
0.0715635
0.00367827
0.0710082
0.00372892
0.0704402
0.00377612
0.0698601
0.00381982
0.0692682
0.00385998
0.00389651
0.0788767
0.00172472
-0.0789862
0.0787475
0.00185506
0.0785988
0.00198378
0.0784306
0.00211082
0.078243
0.00223608
0.0780362
0.00235948
0.0778103
0.0024809
0.0775654
0.00260024
0.0773017
0.0027174
0.0770194
0.00283227
0.0767187
0.00294473
0.0763997
0.00305468
0.0760627
0.003162
0.0757079
0.00326661
0.0753356
0.00336839
0.0749459
0.00346725
0.0745391
0.0035631
0.0741156
0.00365584
0.0736755
0.00374538
0.0732193
0.00383165
0.0727471
0.00391455
0.0722592
0.00399401
0.0717561
0.00406994
0.0712381
0.00414228
0.0707054
0.00421096
0.0701584
0.0042759
0.0695975
0.00433705
0.0690229
0.00439436
0.0684352
0.00444777
0.00449721
0.0773987
0.00180653
-0.0774806
0.0772974
0.00195643
0.0771764
0.00210472
0.077036
0.00225127
0.0768761
0.00239601
0.0766967
0.0025388
0.0764981
0.00267953
0.0762803
0.00281808
0.0760434
0.00295433
0.0757875
0.00308815
0.0755128
0.00321944
0.0752194
0.00334805
0.0749075
0.00347389
0.0745773
0.00359683
0.0742289
0.00371676
0.0738626
0.00383357
0.0734785
0.00394716
0.0730769
0.00405742
0.0726581
0.00416426
0.0722221
0.00426757
0.0717694
0.00436727
0.0713002
0.00446326
0.0708147
0.00455545
0.0703132
0.00464376
0.069796
0.00472812
0.0692635
0.00480846
0.0687158
0.00488469
0.0681534
0.00495678
0.0675765
0.00502467
0.00508825
0.0758461
0.00186258
-0.0759021
0.0757707
0.00203184
0.0756759
0.00219951
0.0755617
0.00236545
0.0754282
0.00252954
0.0752753
0.00269165
0.0751032
0.00285166
0.0749119
0.00300942
0.0747014
0.00316481
0.0744718
0.00331769
0.0742234
0.00346792
0.073956
0.00361539
0.07367
0.00375996
0.0733653
0.00390149
0.0730422
0.00403988
0.0727007
0.004175
0.0723412
0.00430674
0.0719636
0.00443497
0.0715683
0.0045596
0.0711553
0.00468051
0.070725
0.0047976
0.0702775
0.00491076
0.069813
0.00501991
0.0693318
0.00512495
0.0688342
0.00522579
0.0683203
0.00532235
0.0677904
0.00541456
0.0672448
0.00550236
0.0666838
0.00558568
0.00566444
0.0742494
0.00189546
-0.0742823
0.0741975
0.00208375
0.0741265
0.00227048
0.0740364
0.00245551
0.0739273
0.00263869
0.073799
0.00281989
0.0736517
0.00299896
0.0734854
0.00317575
0.0733001
0.00335013
0.0730958
0.00352195
0.0728727
0.00369107
0.0726307
0.00385734
0.0723701
0.00402063
0.0720908
0.0041808
0.0717929
0.00433773
0.0714766
0.00449128
0.071142
0.00464132
0.0707893
0.00478774
0.0704185
0.00493041
0.0700298
0.00506922
0.0696233
0.00520405
0.0691993
0.00533479
0.0687579
0.00546134
0.0682992
0.00558359
0.0678236
0.00570146
0.0673311
0.00581484
0.066822
0.00592366
0.0662965
0.00602785
0.0657548
0.00612734
0.00622205
0.0726347
0.00190807
-0.0726473
0.0726035
0.00211497
0.0725536
0.00232035
0.072485
0.00252406
0.0723978
0.00272595
0.0722918
0.00292586
0.0721671
0.00312365
0.0720237
0.00331916
0.0718616
0.00351223
0.0716809
0.00370271
0.0714815
0.00389046
0.0712635
0.00407533
0.0710269
0.00425716
0.0707719
0.00443582
0.0704985
0.00461117
0.0702067
0.00478307
0.0698966
0.00495138
0.0695684
0.00511598
0.0692221
0.00527673
0.0688578
0.00543352
0.0684756
0.00558622
0.0680757
0.00573471
0.0676581
0.00587888
0.0672231
0.00601861
0.0667708
0.00615381
0.0663012
0.00628437
0.0658147
0.00641021
0.0653113
0.00653124
0.0647912
0.0066474
0.00675861
0.0710234
0.00190342
-0.0710187
0.0710099
0.00212843
0.0709783
0.00235197
0.0709285
0.00257389
0.0708604
0.00279402
0.0707741
0.0030122
0.0706695
0.00322826
0.0705466
0.00344205
0.0704054
0.00365341
0.0702459
0.00386217
0.0700682
0.00406818
0.0698722
0.00427129
0.0696581
0.00447134
0.0694257
0.00466819
0.0691752
0.00486169
0.0689065
0.0050517
0.0686198
0.00523807
0.0683151
0.00542067
0.0679925
0.00559937
0.067652
0.00577404
0.0672937
0.00594455
0.0669176
0.00611076
0.0665239
0.00627257
0.0661127
0.00642985
0.065684
0.00658248
0.065238
0.00673037
0.0647748
0.00687341
0.0642945
0.00701151
0.0637973
0.00714463
0.00727266
0.0694326
0.00188443
-0.0694136
0.069434
0.00212703
0.0694178
0.00236822
0.0693838
0.00260783
0.0693322
0.00284568
0.0692628
0.00308161
0.0691756
0.00331545
0.0690706
0.00354703