/*--------------------------------*- C++ -*----------------------------------*\
| =========                 |                                                 |
| \\      /  F ield         | OpenFOAM: The Open Source CFD Toolbox           |
|  \\    /   O peration     | Version:  v1912                                 |
|   \\  /    A nd           | Website:  www.openfoam.com                      |
|    \\/     M anipulation  |                                                 |
\*---------------------------------------------------------------------------*/
FoamFile
{
    version     2.0;
    format      ascii;
    class       volVectorField;
    location    "67.5";
    object      U;
}
// * * * * * * * * * * * * * * * * * * * * * * * * * * * * * * * * * * * * * //

dimensions      [0 1 -1 0 0 0 0];


internalField   nonuniform List<vector> 
9600
(
(0.456545 -9.36161 -1.54173e-19)
(0.15977 -8.63235 0)
(0.242037 -8.15954 -9.05386e-20)
(0.320871 -7.84049 0)
(0.388266 -7.60547 0)
(0.456747 -7.41093 -3.18595e-20)
(0.52233 -7.2328 -5.50624e-22)
(0.581876 -7.05886 2.66344e-20)
(0.63461 -6.88374 0)
(0.680563 -6.70602 -4.51624e-20)
(0.720125 -6.52631 0)
(0.753923 -6.34616 -1.83089e-21)
(0.782694 -6.16739 -2.60773e-21)
(0.807197 -5.99167 -3.15616e-20)
(0.828155 -5.82042 2.66199e-20)
(0.846224 -5.65459 -2.61532e-20)
(0.861955 -5.49467 2.32871e-20)
(0.875895 -5.34057 0)
(0.888825 -5.19154 -1.85253e-20)
(0.900476 -5.04605 2.03066e-20)
(0.824479 -9.35124 -3.08448e-19)
(0.50223 -8.66047 1.17573e-20)
(0.567701 -8.2039 1.86498e-19)
(0.635037 -7.89436 -1.58971e-19)
(0.69343 -7.66394 1.56776e-19)
(0.753876 -7.4699 0)
(0.81159 -7.28947 6.07689e-20)
(0.863094 -7.11151 -6.06306e-20)
(0.90754 -6.9315 -1.0517e-19)
(0.945015 -6.74858 1.3303e-19)
(0.976022 -6.56376 -8.63722e-20)
(1.00131 -6.37885 -3.52661e-20)
(1.02173 -6.19581 7.11829e-20)
(1.03813 -6.01639 0)
(1.05129 -5.84202 0)
(1.06192 -5.67365 9.9793e-20)
(1.07056 -5.51173 -1.69197e-19)
(1.07778 -5.35613 0)
(1.08445 -5.20596 0)
(1.09003 -5.0596 -7.82138e-20)
(1.19276 -9.32733 6.37297e-19)
(0.846964 -8.67574 0)
(0.896923 -8.23558 -3.77376e-19)
(0.953501 -7.93565 -3.42064e-19)
(1.00319 -7.70982 0)
(1.05558 -7.51622 5.46698e-19)
(1.1052 -7.3335 -5.16138e-19)
(1.14831 -7.15165 1.01181e-19)
(1.18406 -6.96693 -2.25247e-19)
(1.21264 -6.77908 -3.74621e-19)
(1.2347 -6.5895 5.11417e-19)
(1.25112 -6.40022 -3.16212e-19)
(1.26288 -6.21333 -1.41724e-19)
(1.27091 -6.03064 0)
(1.27607 -5.85358 5.5297e-21)
(1.27908 -5.68308 1.05187e-19)
(1.28051 -5.51958 4.54742e-20)
(1.28093 -5.36287 0)
(1.28128 -5.21194 8.24363e-20)
(1.28069 -5.06512 8.44885e-20)
(1.56027 -9.2895 -8.62189e-19)
(1.19338 -8.67787 -4.04053e-19)
(1.22915 -8.25438 3.91903e-19)
(1.2757 -7.96406 6.73558e-19)
(1.31698 -7.74273 -3.26918e-19)
(1.36127 -7.54953 5.80679e-21)
(1.40254 -7.36455 2.53881e-19)
(1.4369 -7.17894 2.29965e-19)
(1.46356 -6.98976 4.21199e-19)
(1.48284 -6.79731 0)
(1.49558 -6.60335 1.62282e-19)
(1.5028 -6.41013 -1.72219e-19)
(1.50561 -6.21984 1.03542e-20)
(1.50505 -6.03433 2.715e-19)
(1.50202 -5.85502 2.32774e-19)
(1.49728 -5.68283 -3.28601e-19)
(1.4914 -5.51815 1.08218e-19)
(1.48497 -5.36072 -1.76223e-19)
(1.47898 -5.20944 1.75391e-19)
(1.47216 -5.06259 -8.45324e-20)
(1.92671 -9.23772 4.34826e-19)
(1.54119 -8.66671 0)
(1.56397 -8.26002 3.84887e-19)
(1.60113 -7.97924 0)
(1.63423 -7.76231 0)
(1.67034 -7.56948 -3.00488e-19)
(1.703 -7.3823 -5.37652e-19)
(1.72825 -7.1931 -4.55891e-19)
(1.74541 -6.99974 1.84514e-20)
(1.75502 -6.80305 -1.97015e-19)
(1.75807 -6.60514 0)
(1.75579 -6.40844 -1.62694e-19)
(1.74941 -6.21521 -2.93089e-19)
(1.74005 -6.02736 2.57757e-19)
(1.72867 -5.84626 -7.32542e-19)
(1.71607 -5.67281 1.1855e-19)
(1.70281 -5.50738 9.39733e-20)
(1.68951 -5.34965 -1.93775e-19)
(1.67719 -5.19839 -8.46713e-20)
(1.66409 -5.05195 2.52488e-19)
(2.29154 -9.17188 4.19604e-19)
(1.8899 -8.64201 4.16162e-19)
(1.90087 -8.25221 0)
(1.92922 -7.98088 0)
(1.95433 -7.76824 -6.24675e-19)
(1.98217 -7.57574 3.41396e-19)
(2.00594 -7.38646 8.21672e-19)
(2.02171 -7.19388 0)
(2.02899 -6.99667 2.17156e-19)
(2.02854 -6.79614 1.97015e-19)
(2.02159 -6.59473 -3.48088e-19)
(2.00954 -6.39503 5.04787e-19)
(1.99373 -6.19939 1.48133e-19)
(1.9754 -6.00967 0)
(1.95556 -5.82726 1.23322e-19)
(1.93501 -5.65301 5.53608e-19)
(1.91432 -5.48724 -3.29879e-19)
(1.89414 -5.3296 3.70699e-19)
(1.87553 -5.17877 -7.0492e-19)
(1.85615 -5.03318 8.14914e-19)
(2.65424 -9.09195 4.26758e-19)
(2.23899 -8.6036 -2.25981e-18)
(2.23931 -8.23069 0)
(2.2594 -7.96866 0)
(2.27667 -7.7602 0)
(2.2961 -7.56803 -6.06002e-19)
(2.31068 -7.37678 0)
(2.31661 -7.18108 -9.71405e-19)
(2.31364 -6.98036 8.96048e-19)
(2.30279 -6.77644 -8.32242e-19)
(2.28553 -6.57203 0)
(2.26345 -6.36986 0)
(2.23803 -6.1723 0)
(2.21058 -5.98124 -2.81633e-19)
(2.18218 -5.79799 0)
(2.15362 -5.62338 0)
(2.12549 -5.45772 -4.13413e-19)
(2.09845 -5.30058 4.06192e-19)
(2.07359 -5.15055 0)
(2.04798 -5.00628 0)
(3.01424 -8.99794 -1.38834e-18)
(2.58792 -8.55129 8.99682e-19)
(2.5787 -8.19521 0)
(2.59105 -7.94232 0)
(2.6006 -7.73793 0)
(2.61146 -7.54611 5.76405e-19)
(2.61655 -7.35304 -5.78162e-19)
(2.61229 -7.15452 -8.89985e-21)
(2.5987 -6.9507 -8.97197e-19)
(2.57713 -6.74386 8.40074e-19)
(2.54929 -6.53696 -3.79004e-19)
(2.51696 -6.33285 6.59071e-19)
(2.48176 -6.13394 -4.6423e-20)
(2.44508 -5.94205 -5.96248e-19)
(2.40804 -5.75846 -5.02566e-19)
(2.37145 -5.58395 4.93756e-19)
(2.33587 -5.41881 0)
(2.302 -5.26257 0)
(2.27098 -5.11375 3.57336e-19)
(2.23918 -4.97125 -3.93231e-19)
(3.371 -8.88988 9.2792e-19)
(2.93613 -8.48494 8.83928e-19)
(2.91846 -8.14556 -1.67545e-18)
(2.92353 -7.90161 7.91448e-19)
(2.92543 -7.70119 0)
(2.92756 -7.50976 6.16786e-19)
(2.92286 -7.31507 -5.41498e-19)
(2.90804 -7.11404 1.53035e-18)
(2.8835 -6.90756 -2.3701e-20)
(2.8509 -6.69831 0)
(2.81223 -6.48948 7.64697e-19)
(2.76947 -6.28401 0)
(2.72436 -6.08429 0)
(2.67837 -5.8921 -2.72779e-19)
(2.63263 -5.70868 5.50156e-19)
(2.58799 -5.53474 0)
(2.54498 -5.37054 4.31567e-19)
(2.50435 -5.21561 1.79676e-19)
(2.46726 -5.06838 -3.89821e-19)
(2.42937 -4.92812 3.78527e-19)
(3.72395 -8.76784 -9.55761e-19)
(3.28301 -8.40446 8.98356e-19)
(3.25796 -8.08155 -2.5586e-18)
(3.25618 -7.84634 8.04584e-19)
(3.25048 -7.64978 0)
(3.24368 -7.4588 -1.24495e-18)
(3.22888 -7.26272 5.98066e-19)
(3.20317 -7.05957 0)
(3.16736 -6.8509 -4.74875e-19)
(3.12346 -6.63978 -8.23691e-19)
(3.07375 -6.42959 -7.17788e-19)
(3.0204 -6.22333 5.34641e-20)
(2.96528 -6.02338 6.7135e-19)
(2.90991 -5.83144 2.72555e-19)
(2.85546 -5.64868 -3.79584e-20)
(2.80276 -5.47577 -5.13259e-19)
(2.75236 -5.31295 -2.29576e-19)
(2.70503 -5.15972 -2.06981e-19)
(2.66197 -5.01446 5.52166e-19)
(2.6181 -4.87692 -8.22772e-19)
(4.07255 -8.63188 9.55763e-19)
(3.62798 -8.30977 -4.66563e-20)
(3.59655 -8.00305 8.2249e-19)
(3.58831 -7.77632 0)
(3.57505 -7.58353 -6.81007e-19)
(3.55911 -7.3931 1.30858e-18)
(3.53391 -7.1959 -1.11865e-18)
(3.49699 -6.99103 1.10082e-18)
(3.44961 -6.78067 -4.46094e-19)
(3.39417 -6.56825 9.05551e-19)
(3.33323 -6.3573 3.92175e-19)
(3.26916 -6.15086 0)
(3.20394 -5.95124 0)
(3.13916 -5.7601 -2.82613e-19)
(3.07599 -5.57851 3.8377e-20)
(3.01526 -5.40709 1.01075e-18)
(2.9575 -5.24608 -2.50065e-19)
(2.90354 -5.09494 8.25975e-19)
(2.85463 -4.95204 1.44582e-19)
(2.80493 -4.81768 -8.40322e-19)
(4.41622 -8.48212 -2.94096e-18)
(3.97043 -8.20083 -9.87288e-19)
(3.9336 -7.90994 -2.63276e-18)
(3.91925 -7.69144 -1.6017e-18)
(3.8984 -7.50234 -7.59762e-19)
(3.87313 -7.31257 -7.42571e-19)
(3.83722 -7.11456 -2.42424e-18)
(3.78877 -6.9084 -4.9088e-20)
(3.72955 -6.69688 -1.94811e-18)
(3.66236 -6.48375 3.02297e-20)
(3.59004 -6.27265 -8.08896e-19)
(3.51516 -6.06662 -7.37122e-19)
(3.4398 -5.86794 6.72914e-19)
(3.36558 -5.67815 -6.15413e-19)
(3.29371 -5.49824 -5.63836e-19)
(3.22497 -5.32878 -5.17489e-19)
(3.1599 -5.16998 -1.38954e-18)
(3.09939 -5.02131 4.94349e-19)
(3.04473 -4.88114 1.19977e-18)
(2.98938 -4.75044 -1.27691e-18)
(4.75443 -8.31871 3.95583e-18)
(4.30976 -8.07764 4.86003e-18)
(4.26845 -7.80215 8.34913e-19)
(4.24828 -7.5916 4.00048e-18)
(4.21982 -7.40611 -7.8411e-19)
(4.18498 -7.21717 3.91821e-18)
(4.13808 -7.01866 1.14624e-18)
(4.07783 -6.81169 3.21798e-18)
(4.00653 -6.59958 -9.83635e-19)
(3.9274 -6.38633 2.72356e-18)
(3.84358 -6.1757 1.62932e-18)
(3.75782 -5.97071 1.48491e-18)
(3.67229 -5.77355 -2.01045e-18)
(3.58865 -5.58566 1.88336e-18)
(3.50809 -5.40793 1.13637e-18)
(3.43138 -5.24088 1.04318e-18)
(3.35905 -5.08472 9.59256e-19)
(3.29205 -4.93891 7.36909e-21)
(3.23176 -4.80183 8.14325e-19)
(3.17097 -4.67525 8.47467e-19)
(5.08665 -8.1418 -2.93765e-18)
(4.64539 -7.94023 1.08271e-18)
(4.60044 -7.67965 2.67863e-18)
(4.57471 -7.47675 -3.26351e-18)
(4.53857 -7.29482 7.54126e-19)
(4.49395 -7.10687 -2.62142e-18)
(4.43578 -6.90824 1.28482e-18)
(4.36347 -6.70096 -2.15318e-18)
(4.27988 -6.48882 4.90508e-20)
(4.18866 -6.27608 1.19569e-20)
(4.09326 -6.06654 -1.65183e-18)
(3.99657 -5.8632 -7.47784e-19)
(3.90086 -5.66813 1.37505e-18)
(3.80781 -5.48269 8.76533e-21)
(3.71859 -5.30765 -3.72049e-20)
(3.63395 -5.14347 -1.08877e-18)
(3.55439 -4.99035 -4.83515e-19)
(3.48095 -4.84777 -2.71586e-20)
(3.41514 -4.71415 -8.48688e-19)
(3.34913 -4.59223 -4.27984e-19)
(5.41238 -7.95158 0)
(4.97671 -7.78866 -2.0006e-18)
(4.92891 -7.54243 2.3762e-20)
(4.89784 -7.34687 3.25909e-18)
(4.85393 -7.16847 1.3642e-18)
(4.7993 -6.98173 -1.41999e-18)
(4.7296 -6.78337 -1.22335e-18)
(4.645 -6.57628 0)
(4.54894 -6.36472 -9.73876e-19)
(4.44553 -6.15311 9.29458e-19)
(4.33848 -5.94529 -3.90844e-20)
(4.23085 -5.74418 0)
(4.12499 -5.55178 -6.92231e-19)
(4.02256 -5.36931 5.99638e-19)
(3.92471 -5.19744 5.00988e-19)
(3.83214 -5.03656 -6.04745e-19)
(3.74534 -4.88688 -5.24657e-19)
(3.66546 -4.74787 9.11128e-19)
(3.59413 -4.6181 -8.40877e-19)
(3.52301 -4.50144 4.42598e-19)
(5.73114 -7.74822 3.03517e-18)
(5.30316 -7.62299 -2.06047e-18)
(5.2532 -7.39051 -1.75861e-18)
(5.21693 -7.20199 8.18827e-19)
(5.16517 -7.02711 -1.58859e-18)
(5.1003 -6.84181 0)
(5.01884 -6.64415 0)
(4.92174 -6.4378 0)
(4.81309 -6.22742 -4.44887e-20)
(4.69741 -6.01756 -1.86533e-18)
(4.5787 -5.81207 8.80988e-19)
(4.46016 -5.61378 7.45137e-19)
(4.34418 -5.42459 6.30593e-19)
(4.23242 -5.24559 -2.58764e-18)
(4.12596 -5.07734 1.22678e-18)
(4.02546 -4.92017 0)
(3.93139 -4.77427 -3.04424e-20)
(3.84495 -4.63916 -1.41315e-18)
(3.76792 -4.51359 -5.6994e-21)
(3.69167 -4.40253 -4.43088e-19)
(6.04258 -7.532 -2.06447e-18)
(5.62418 -7.44337 -1.08631e-18)
(5.57263 -7.22397 8.18635e-19)
(5.53128 -7.04217 -1.43943e-19)
(5.47154 -6.87082 -4.63103e-18)
(5.39623 -6.68724 4.19132e-18)
(5.30279 -6.49071 -4.88155e-20)
(5.19304 -6.28567 1.14806e-18)
(5.0717 -6.07708 1.0301e-18)
(4.94373 -5.86959 9.45895e-19)
(4.81338 -5.66703 8.60794e-19)
(4.68399 -5.47213 1.53842e-18)
(4.55797 -5.28666 -7.4047e-19)
(4.43694 -5.11161 1.91949e-18)
(4.32194 -4.94742 -1.24092e-18)
(4.21355 -4.79437 -5.13376e-19)
(4.11217 -4.65263 2.06201e-18)
(4.01908 -4.52175 1.37768e-18)
(3.93622 -4.40052 -2.79732e-20)
(3.85504 -4.29482 0)
(6.34667 -7.30341 -1.0497e-18)
(5.93938 -7.24997 2.07602e-18)
(5.88653 -7.04285 1.81765e-18)
(5.84015 -6.86746 -1.45922e-19)
(5.7723 -6.6997 -1.57126e-18)
(5.68634 -6.51815 7.06928e-20)
(5.58075 -6.32326 1.31835e-20)
(5.45824 -6.1201 1.17463e-20)
(5.32417 -5.91391 0)
(5.18393 -5.70941 9.25168e-19)
(5.04202 -5.51034 -1.76092e-18)
(4.90186 -5.31935 -7.53592e-19)
(4.76587 -5.13807 7.48121e-19)
(4.63563 -4.96737 -6.5646e-19)
(4.51211 -4.80765 6.08003e-19)
(4.39581 -4.65914 -5.53513e-19)
(4.28713 -4.52202 4.90128e-21)
(4.18746 -4.39568 -4.70259e-19)
(4.09904 -4.27883 -4.3442e-19)
(4.0137 -4.17917 -4.34718e-19)
(6.64375 -7.06292 0)
(6.2485 -7.04272 -1.01224e-18)
(6.19425 -6.84707 1.00062e-18)
(6.14278 -6.67796 1.74589e-18)
(6.0667 -6.51393 -1.57996e-18)
(5.96993 -6.33479 1.36496e-18)
(5.85206 -6.14206 -2.62453e-18)
(5.71673 -5.94139 -2.33077e-18)
(5.56996 -5.73822 -1.01685e-18)
(5.41755 -5.53729 4.44365e-20)
(5.2642 -5.34224 -8.42074e-19)
(5.1134 -5.1556 3.49357e-20)
(4.96754 -4.97886 0)
(4.8281 -4.8128 -1.28771e-18)
(4.6959 -4.65776 6.57151e-19)
(4.57133 -4.514 0)
(4.45485 -4.38162 -5.14692e-19)
(4.34805 -4.25977 -9.25387e-19)
(4.25318 -4.14807 9.09286e-19)
(4.16265 -4.05916 4.48862e-19)
(6.93343 -6.80975 0)
(6.55092 -6.82091 0)
(6.49509 -6.63659 -1.85625e-18)
(6.43842 -6.47393 -1.59616e-18)
(6.35404 -6.3139 3.2396e-18)
(6.24637 -6.13759 0)
(6.11614 -5.94756 0)
(5.968 -5.74998 1.17095e-18)
(5.80863 -5.55044 0)
(5.64422 -5.35364 0)
(5.47966 -5.16311 0)
(5.31849 -4.9812 0)
(5.163 -4.80924 0)
(5.01452 -4.6479 0)
(4.8736 -4.49743 0)
(4.74037 -4.35799 0)
(4.61509 -4.22944 0)
(4.49884 -4.11113 0)
(4.39173 -4.00613 0)
(4.28762 -3.93173 0)
(10.0435 0.087741 1.47377e-19)
(10.023 -0.307649 2.86747e-19)
(9.98721 -0.700361 -2.94505e-19)
(9.93667 -1.09025 5.87184e-19)
(9.87115 -1.47698 -5.87183e-19)
(9.79049 -1.86005 -5.54883e-19)
(9.69482 -2.23891 -5.53334e-19)
(9.58433 -2.61303 1.74262e-18)
(9.45927 -2.98184 -1.16102e-18)
(9.3199 -3.3448 1.15128e-18)
(9.16649 -3.70135 -1.15129e-18)
(8.99935 -4.05098 1.14278e-18)
(8.81882 -4.39315 -2.26622e-18)
(8.62524 -4.72737 3.33733e-18)
(8.41898 -5.05315 0)
(8.20043 -5.37004 -3.27879e-18)
(7.96999 -5.67761 1.63554e-20)
(7.72818 -5.97552 3.30423e-18)
(7.47509 -6.26359 0)
(7.21242 -6.54116 0)
(10.1207 -0.210716 0)
(10.0794 -0.606835 -1.50435e-20)
(10.0213 -0.999152 0)
(9.94716 -1.38733 5.61918e-19)
(9.85712 -1.77094 5.85163e-19)
(9.75141 -2.14938 -1.69366e-18)
(9.63033 -2.52201 2.94857e-18)
(9.49423 -2.88822 -1.16398e-18)
(9.34347 -3.2474 -1.10955e-18)
(9.17847 -3.59898 -1.10501e-18)
(8.99962 -3.94237 4.45765e-20)
(8.80737 -4.27703 1.13215e-18)
(8.60218 -4.60244 -5.62831e-18)
(8.38454 -4.91811 -1.18027e-18)
(8.15492 -5.22356 2.24897e-18)
(7.91387 -5.51838 2.24594e-18)
(7.66183 -5.80216 1.14107e-18)
(7.39939 -6.07458 -2.20033e-18)
(7.12665 -6.33538 1.04199e-18)
(6.84456 -6.58421 0)
(10.0726 -0.149213 1.32717e-19)
(10.0347 -0.540901 -2.71781e-19)
(9.97953 -0.929413 7.84852e-19)
(9.90733 -1.31405 -5.5602e-19)
(9.81852 -1.69417 -5.30154e-19)
(9.71347 -2.06905 5.53506e-19)
(9.59255 -2.43797 0)
(9.45615 -2.80023 0)
(9.3047 -3.15517 2.1017e-18)
(9.13866 -3.50215 3.13535e-18)
(8.95848 -3.84054 -9.91656e-19)
(8.76467 -4.16975 3.10035e-18)
(8.55775 -4.48923 -9.87483e-19)
(8.33826 -4.79843 -3.01978e-18)
(8.10675 -5.09685 1.36261e-20)
(7.86378 -5.38403 1.93839e-18)
(7.60989 -5.65953 -8.74955e-19)
(7.34568 -5.92295 -1.907e-18)
(7.07148 -6.17389 -1.03003e-18)
(6.78804 -6.41188 1.87417e-18)
(9.90655 -0.11249 0)
(9.87553 -0.49495 2.29141e-19)
(9.82723 -0.875063 2.282e-19)
(9.76183 -1.25193 -9.3752e-19)
(9.67967 -1.62475 0)
(9.58108 -1.99275 0)
(9.46643 -2.35516 0)
(9.3361 -2.71123 0)
(9.19049 -3.06025 -9.92074e-19)
(9.03006 -3.40153 -9.88306e-19)
(8.85528 -3.7344 0)
(8.66665 -4.05823 1.86858e-18)
(8.46471 -4.37239 -4.6199e-18)
(8.25 -4.67632 3.71481e-18)
(8.0231 -4.96945 -3.60063e-18)
(7.7846 -5.25128 -8.73695e-19)
(7.53507 -5.52131 1.56487e-19)
(7.27513 -5.77906 1.5489e-19)
(7.00529 -6.02409 -1.77937e-18)
(6.72629 -6.25589 -7.08919e-20)
(9.65357 -0.0990069 0)
(9.62996 -0.469239 -2.25984e-19)
(9.58951 -0.837782 0)
(9.53228 -1.20373 4.52093e-19)
(9.45851 -1.56625 4.30967e-19)
(9.36849 -1.92454 3.94011e-19)
(9.26252 -2.27782 0)
(9.14096 -2.62534 0)
(9.00416 -2.96634 0)
(8.85254 -3.30011 0)
(8.68656 -3.62596 8.13906e-19)
(8.50669 -3.94321 8.76863e-19)
(8.31343 -4.25123 8.71858e-19)
(8.10734 -4.54939 -8.85194e-19)
(7.88896 -4.83711 -1.52347e-18)
(7.65889 -5.11382 1.7293e-18)
(7.4177 -5.37898 3.35279e-18)
(7.16602 -5.63208 1.63079e-18)
(6.90443 -5.87261 0)
(6.63363 -6.10007 -1.53699e-18)
(9.3466 -0.0902058 4.64494e-20)
(9.32997 -0.446264 0)
(9.29711 -0.801205 -7.61187e-19)
(9.24805 -1.15417 1.826e-23)
(9.18292 -1.50434 1.61789e-20)
(9.10197 -1.85093 -6.85542e-20)
(9.00546 -2.19315 0)
(8.89367 -2.53025 3.09424e-20)
(8.76694 -2.86149 -7.72733e-19)
(8.62562 -3.18615 1.50555e-18)
(8.47013 -3.50352 -1.56989e-18)
(8.3009 -3.81292 8.57638e-19)
(8.11841 -4.1137 -4.49566e-18)
(7.92316 -4.40521 2.96517e-18)
(7.71568 -4.68686 1.57177e-18)
(7.49653 -4.95804 0)
(7.26629 -5.21818 -2.90124e-18)
(7.02555 -5.46674 -6.15434e-20)
(6.77491 -5.70318 -2.85712e-18)
(6.51501 -5.92698 2.96957e-18)
(9.01428 -0.0853968 4.17738e-20)
(9.00329 -0.426457 -8.751e-20)
(8.97682 -0.766868 7.17499e-19)
(8.93483 -1.10583 -1.40786e-20)
(8.87743 -1.44255 7.17351e-19)
(8.8048 -1.77626 -1.08349e-18)
(8.71715 -2.10622 0)
(8.61474 -2.43168 7.30409e-19)
(8.49783 -2.75192 6.68785e-19)
(8.36675 -3.06623 -7.26318e-19)
(8.22187 -3.37392 1.3289e-18)
(8.06357 -3.67432 2.81726e-18)
(7.8923 -3.96678 -1.31022e-18)
(7.7085 -4.25065 -1.42016e-18)
(7.51269 -4.52533 1.36193e-18)
(7.30538 -4.7902 0)
(7.08712 -5.04468 6.49629e-20)
(6.85849 -5.28821 9.81688e-21)
(6.62006 -5.52023 2.707e-18)
(6.37243 -5.74019 1.25852e-18)
(8.67787 -0.0842183 0)
(8.67094 -0.410326 6.2602e-21)
(8.6493 -0.73613 -1.46007e-19)
(8.6129 -1.06088 -6.48411e-19)
(8.5618 -1.38383 6.09503e-19)
(8.49616 -1.70425 0)
(8.41614 -2.02142 1.24055e-18)
(8.32195 -2.33464 -1.36321e-21)
(8.21384 -2.64321 -1.89468e-18)
(8.09209 -2.94646 0)
(7.95701 -3.24371 -1.30774e-18)
(7.80896 -3.53432 4.60237e-20)
(7.64834 -3.81765 -3.67613e-18)
(7.47557 -4.09307 6.47872e-21)
(7.29112 -4.35998 1.23211e-18)
(7.09547 -4.61778 0)
(6.88914 -4.86589 -1.20932e-18)
(6.67267 -5.10372 8.70716e-21)
(6.44663 -5.33072 1.20062e-18)
(6.21155 -5.54631 -1.23848e-18)
(8.35125 -0.0853024 0)
(8.34694 -0.397039 1.49698e-19)
(8.32867 -0.708703 3.10589e-19)
(8.2964 -1.0196 -5.74906e-19)
(8.25016 -1.32901 -2.47375e-20)
(8.19007 -1.63627 -2.87321e-19)
(8.11628 -1.94068 -1.15018e-18)
(8.02897 -2.24159 5.71823e-19)
(7.92835 -2.53833 2.38274e-20)
(7.81466 -2.83027 5.68402e-19)
(7.68819 -3.11676 5.23266e-19)
(7.54927 -3.39718 2.26607e-18)
(7.39826 -3.67093 1.13348e-18)
(7.23555 -3.93741 2.23878e-18)
(7.06157 -4.19602 -1.11646e-18)
(6.87679 -4.4462 3.86868e-20)
(6.6817 -4.68736 -1.10327e-18)
(6.47681 -4.91893 0)
(6.26266 -5.14035 1.04289e-18)
(6.03975 -5.35103 0)
(8.04233 -0.0875231 6.51776e-20)
(8.03948 -0.38576 -1.90887e-19)
(8.02339 -0.684065 5.23567e-19)
(7.994 -0.981785 -2.61197e-19)
(7.95135 -1.27826 1.89949e-20)
(7.89553 -1.57284 -2.61043e-19)
(7.82667 -1.8649 5.42691e-19)
(7.74492 -2.1538 -5.19387e-19)
(7.65048 -2.43892 5.19384e-19)
(7.54357 -2.71966 9.96155e-19)
(7.42444 -2.99542 -1.0734e-18)
(7.2934 -3.26561 -4.51285e-20)
(7.15078 -3.52966 -3.10704e-18)
(6.99696 -3.787 5.38142e-21)
(6.83233 -4.03708 4.03015e-20)
(6.65734 -4.27934 2.01423e-18)
(6.47248 -4.51323 -9.94965e-19)
(6.27822 -4.73817 -9.47726e-19)
(6.0751 -4.95361 -3.74679e-20)
(5.8636 -5.15894 0)
(7.75473 -0.0901346 0)
(7.75249 -0.375864 2.42479e-19)
(7.73767 -0.661736 -8.33737e-19)
(7.7102 -0.947135 -2.21199e-19)
(7.67012 -1.23144 4.94687e-19)
(7.6175 -1.51405 0)
(7.55247 -1.79437 0)
(7.47516 -2.07179 4.72848e-19)
(7.38574 -2.34575 -4.72845e-19)
(7.28443 -2.61566 3.98341e-19)
(7.17146 -2.88098 -4.69799e-19)
(7.04712 -3.14115 9.3165e-19)
(6.9117 -3.39564 -1.85869e-18)
(6.76558 -3.64391 1.84908e-18)
(6.60913 -3.88546 3.46852e-20)
(6.44279 -4.11974 -9.51003e-19)
(6.26703 -4.34624 -9.04966e-19)
(6.08233 -4.56441 1.84345e-18)
(5.88923 -4.77368 8.62994e-19)
(5.68817 -4.97343 0)
(7.48923 -0.0926632 1.87896e-21)
(7.48704 -0.366885 1.59208e-19)
(7.47284 -0.641276 3.34259e-19)
(7.44659 -0.915257 2.33963e-19)
(7.40831 -1.18825 2.17035e-19)
(7.35809 -1.45967 2.01896e-19)
(7.29602 -1.72897 0)
(7.22223 -1.99558 -8.34337e-19)
(7.1369 -2.25896 -4.30099e-19)
(7.0402 -2.51857 3.66935e-19)
(6.93237 -2.7739 0)
(6.81367 -3.02443 8.49493e-19)
(6.6844 -3.26967 -2.51242e-18)
(6.54489 -3.50913 8.45144e-19)
(6.39552 -3.74232 0)
(6.23672 -3.96877 -8.03578e-19)
(6.06897 -4.18797 -1.62301e-18)
(5.89275 -4.39941 7.98636e-19)
(5.70862 -4.60251 -2.92214e-20)
(5.51703 -4.79664 0)
(7.24495 -0.0948102 3.46677e-21)
(7.24244 -0.358477 -1.03036e-19)
(7.22845 -0.622305 1.9884e-19)
(7.20294 -0.885751 -1.31305e-20)
(7.16593 -1.14826 3.97329e-19)
(7.1175 -1.4093 -6.1022e-19)
(7.05775 -1.66833 0)
(6.9868 -1.92483 5.60671e-20)
(6.9048 -2.17829 0)
(6.81193 -2.4282 -8.14567e-19)
(6.70841 -2.67408 0)
(6.59449 -2.91545 -7.51756e-19)
(6.47045 -3.15186 2.32345e-18)
(6.33662 -3.38286 -1.53963e-18)
(6.19337 -3.60802 7.67602e-19)
(6.04111 -3.8269 -6.79178e-19)
(5.88036 -4.03903 7.84466e-19)
(5.7116 -4.24396 -7.79101e-19)
(5.53548 -4.44107 0)
(5.35242 -4.62973 0)
(7.0201 -0.096454 4.71483e-20)
(7.01709 -0.350415 0)
(7.00305 -0.604518 0)
(6.97797 -0.858247 -3.7776e-19)
(6.94187 -1.11108 -3.52572e-19)
(6.89482 -1.36249 0)
(6.83693 -1.612 0)
(6.76829 -1.85908 4.98871e-20)
(6.68907 -2.10327 6.98206e-19)
(6.59943 -2.34409 -3.36718e-19)
(6.49958 -2.58109 -3.58743e-19)
(6.38975 -2.81383 1.44917e-18)
(6.27021 -3.04188 -2.1519e-18)
(6.14128 -3.26486 1.38767e-18)
(6.00332 -3.48236 0)
(5.85675 -3.69403 2.78783e-18)
(5.70211 -3.89942 -2.02412e-18)
(5.53989 -4.09818 6.88598e-19)
(5.37088 -4.28962 1.31694e-18)
(5.19549 -4.47317 0)
(6.81258 -0.0975301 -4.05364e-20)
(6.80895 -0.342537 0)
(6.79473 -0.587667 -5.22581e-21)
(6.76989 -0.832417 -3.24404e-19)
(6.73447 -1.07629 1.00522e-18)
(6.68853 -1.31879 -1.67215e-19)
(6.63217 -1.55945 0)
(6.5655 -1.79778 1.33204e-18)
(6.48866 -2.03334 -6.8598e-19)
(6.4018 -2.26568 4.4517e-20)
(6.30513 -2.49436 6.35749e-19)
(6.19886 -2.71899 6.51646e-19)
(6.08325 -2.93919 -1.29949e-18)
(5.9586 -3.1546 -1.27105e-18)
(5.82527 -3.36486 -1.24153e-18)
(5.68365 -3.56973 -1.32113e-18)
(5.53434 -3.76876 1.31213e-18)
(5.37782 -3.9618 -6.26397e-19)
(5.21515 -4.148 -6.67478e-19)
(5.04661 -4.32701 0)
(6.62014 -0.0980181 3.9826e-20)
(6.61588 -0.33474 -1.49538e-19)
(6.60141 -0.571554 -1.54804e-19)
(6.57672 -0.807979 4.63527e-19)
(6.54185 -1.04354 -1.6461e-19)
(6.49686 -1.27776 -1.53869e-19)
(6.44184 -1.5102 0)
(6.37689 -1.74039 -6.32461e-19)
(6.30215 -1.9679 0)
(6.21777 -2.19232 6.27571e-19)
(6.12394 -2.41324 -1.20935e-18)
(6.02085 -2.63029 5.98653e-19)
(5.90875 -2.84311 -1.19363e-18)
(5.7879 -3.05141 1.23174e-18)
(5.65866 -3.25487 6.70409e-19)
(5.52141 -3.45336 0)
(5.37676 -3.64643 -5.78687e-19)
(5.22518 -3.83429 5.78687e-19)
(5.06815 -4.01572 0)
(4.90562 -4.19109 0)
(6.44067 -0.0980059 0)
(6.43579 -0.327 1.4692e-19)
(6.42108 -0.556054 4.7265e-21)
(6.39652 -0.784708 -1.51489e-19)
(6.36215 -1.01251 -1.33588e-19)
(6.31803 -1.239 -1.41824e-19)
(6.26425 -1.46375 5.48159e-19)
(6.2009 -1.68634 0)
(6.12812 -1.90633 0)
(6.04604 -2.12335 2.78577e-19)
(5.95484 -2.337 2.95927e-19)
(5.8547 -2.54695 1.07106e-18)
(5.74584 -2.75286 -5.47258e-19)
(5.6285 -2.95449 5.47256e-19)
(5.50299 -3.15155 5.8095e-19)
(5.36966 -3.34406 3.39678e-20)
(5.22915 -3.53156 -1.067e-18)
(5.08183 -3.71481 3.78009e-21)
(4.92986 -3.89191 5.27728e-19)
(4.77238 -4.06487 0)
(6.27224 -0.0974965 -3.28386e-20)
(6.26683 -0.319286 3.28382e-20)
(6.25192 -0.541108 0)
(6.22752 -0.762516 1.23689e-19)
(6.19366 -0.983073 4.01778e-19)
(6.15041 -1.20235 -5.07804e-19)
(6.09784 -1.41993 -5.38584e-19)
(6.03606 -1.63541 0)
(5.96519 -1.84838 0)
(5.88536 -2.05848 0)
(5.79671 -2.26534 -9.94281e-19)
(5.69943 -2.46864 -6.4176e-20)
(5.59371 -2.66808 -5.0414e-19)
(5.47973 -2.86345 3.02099e-20)
(5.35778 -3.0545 -9.96998e-19)
(5.22809 -3.2414 1.51943e-18)
(5.09137 -3.42369 -1.43972e-18)
(4.94767 -3.60297 4.88726e-19)
(4.80027 -3.77625 9.36934e-19)
(4.64645 -3.94843 0)
(6.11316 -0.0961395 2.95024e-20)
(6.10731 -0.311397 0)
(6.09229 -0.526675 -1.21462e-19)
(6.06811 -0.741537 -2.50281e-19)
(6.0348 -0.955565 1.2131e-19)
(5.99243 -1.16835 9.68714e-19)
(5.94108 -1.37949 0)
(5.88083 -1.58859 -4.66557e-19)
(5.8118 -1.79529 -2.38629e-19)
(5.73412 -1.99923 -4.48299e-19)
(5.64792 -2.20006 -1.79375e-19)
(5.55334 -2.39748 -1.41534e-18)
(5.45056 -2.59121 -9.34212e-19)
(5.3397 -2.78105 9.61003e-19)
(5.22103 -2.96682 9.19878e-19)
(5.09454 -3.14874 -3.88494e-21)
(4.96105 -3.32647 2.99605e-20)
(4.8198 -3.5026 4.50322e-19)
(4.67591 -3.67332 -9.20631e-19)
(4.52263 -3.84854 0)
(5.96181 -0.0944676 -6.16954e-20)
(5.95566 -0.30347 3.03716e-20)
(5.94068 -0.512559 -1.2134e-19)
(5.91688 -0.721346 1.21284e-19)
(5.88426 -0.929437 -3.48829e-19)
(5.84288 -1.13644 -1.08621e-18)
(5.7928 -1.34198 0)
(5.7341 -1.54567 4.93653e-19)
(5.66687 -1.74717 -4.61584e-19)
(5.5912 -1.94613 9.77428e-19)
(5.50722 -2.14223 9.71625e-19)
(5.41502 -2.33516 1.43151e-18)
(5.31474 -2.52466 -9.2889e-19)
(5.20642 -2.71052 4.62685e-19)
(5.0903 -2.89258 -4.55027e-19)
(4.96601 -3.07102 4.5505e-19)
(4.83467 -3.2456 0)
(4.69355 -3.41953 4.11999e-19)
(4.55172 -3.58863 -4.03181e-19)
(4.394 -3.77511 0)
(7.14018 7.26217 0)
(7.42016 6.97236 0)
(7.68723 6.67297 1.08764e-18)
(7.9421 6.3645 2.0267e-20)
(8.1842 6.04667 -1.15069e-18)
(8.41288 5.71954 0)
(8.62771 5.38351 1.18747e-18)
(8.82837 5.03912 -2.24043e-18)
(9.01454 4.68694 -1.13226e-18)
(9.18592 4.32758 -1.14284e-18)
(9.34226 3.96168 1.14284e-18)
(9.48333 3.58989 -1.15494e-18)
(9.60893 3.21289 5.76109e-19)
(9.71887 2.8314 5.49881e-19)
(9.81299 2.44607 5.52031e-19)
(9.89124 2.05756 -5.85841e-19)
(9.95358 1.66655 5.85841e-19)
(10.0001 1.27373 -2.941e-19)
(10.0307 0.879507 -1.39702e-19)
(10.046 0.485226 7.35813e-20)
(7.41714 7.07048 0)
(7.69733 6.78105 -9.96692e-19)
(7.96373 6.48006 -2.13086e-18)
(8.21663 6.16817 3.15113e-18)
(8.45579 5.84571 -2.18519e-18)
(8.68069 5.51314 2.19597e-18)
(8.89087 5.17105 1.19385e-18)
(9.0859 4.82011 -3.38781e-18)
(9.2654 4.46102 1.10829e-18)
(9.429 4.09448 2.20324e-18)
(9.5764 3.72123 1.08551e-18)
(9.70735 3.34201 1.09239e-18)
(9.82168 2.95764 -1.15274e-18)
(9.91918 2.56883 1.69743e-18)
(9.99955 2.17637 -2.35499e-18)
(10.0627 1.78114 5.8129e-19)
(10.1087 1.38395 -5.58586e-19)
(10.1376 0.985597 0)
(10.1492 0.586631 1.51573e-20)
(10.144 0.188027 0)
(7.27422 6.94578 -1.75504e-18)
(7.55724 6.67375 9.8529e-19)
(7.82771 6.38887 1.80238e-18)
(8.08519 6.09179 8.1598e-19)
(8.32924 5.78308 2.04348e-18)
(8.55936 5.46338 2.00459e-20)
(8.77499 5.13333 -1.02427e-18)
(8.97567 4.79365 -3.05258e-18)
(9.16093 4.44503 3.01374e-18)
(9.33034 4.08822 -3.09364e-18)
(9.48351 3.72395 -1.03067e-18)
(9.62014 3.35299 -2.06207e-18)
(9.73992 2.97615 0)
(9.84262 2.59421 0)
(9.92812 2.20807 0)
(9.99624 1.81863 -5.25622e-19)
(10.0468 1.42674 5.50491e-19)
(10.0799 1.03324 5.27318e-19)
(10.0952 0.63886 6.27068e-21)
(10.0929 0.244562 1.3244e-19)
(7.04698 6.69375 1.82273e-18)
(7.32674 6.44039 -1.65529e-18)
(7.59515 6.1739 -1.69641e-19)
(7.85149 5.89483 -1.70602e-19)
(8.0952 5.60375 4.30332e-18)
(8.32572 5.30126 -7.12685e-20)
(8.5425 4.988 3.7778e-21)
(8.74502 4.66462 -2.72134e-18)
(8.93277 4.33179 1.79553e-18)
(9.10527 3.99022 0)
(9.26205 3.64067 9.63033e-19)
(9.40275 3.28399 9.69698e-19)
(9.5271 2.92095 0)
(9.63478 2.55239 0)
(9.72557 2.17913 0)
(9.79927 1.80198 0)
(9.8557 1.42176 -2.17163e-20)
(9.89473 1.03935 4.74816e-19)
(9.91625 0.65555 -2.28014e-19)
(9.92024 0.271318 0)
(6.78434 6.37899 1.54381e-18)
(7.05623 6.14349 0)
(7.3179 5.89506 -4.54556e-18)
(7.56854 5.6341 -1.54938e-18)
(7.8075 5.36114 -1.62815e-18)
(8.03421 5.07674 -1.72592e-18)
(8.2481 4.78147 8.15444e-19)
(8.44862 4.47595 -8.56996e-19)
(8.63523 4.16079 2.37967e-18)
(8.80748 3.8367 -7.79059e-19)
(8.96496 3.50442 0)
(9.10716 3.16471 0)
(9.2337 2.81826 0)
(9.3443 2.46586 0)
(9.4387 2.10831 -1.23029e-18)
(9.51665 1.74642 4.23035e-19)
(9.57792 1.381 -4.46861e-19)
(9.62236 1.01289 0)
(9.64984 0.64293 2.24873e-19)
(9.66028 0.272004 0)
(6.5094 6.05175 1.32076e-18)
(6.77107 5.8324 -4.79982e-20)
(7.02345 5.60052 2.77816e-18)
(7.26573 5.35646 1.38798e-18)
(7.49727 5.10065 0)
(7.71748 4.83363 -1.47389e-18)
(7.92579 4.55592 6.85326e-20)
(8.12166 4.26807 -1.49629e-18)
(8.30456 3.97067 2.07009e-18)
(8.47402 3.66439 3.2747e-20)
(8.6296 3.34984 2.8123e-20)
(8.77086 3.02766 -7.46681e-19)
(8.89737 2.69858 1.46441e-18)
(9.00883 2.36337 0)
(9.10497 2.02272 6.85897e-20)
(9.18548 1.67748 7.47652e-19)
(9.2501 1.3284 1.63939e-21)
(9.29865 0.97628 -1.53507e-20)
(9.33099 0.621912 0)
(9.347 0.266133 -4.63528e-20)
(6.24355 5.7347 0)
(6.49388 5.52934 -4.8925e-20)
(6.73567 5.31197 1.75848e-20)
(6.96816 5.08288 -2.51145e-18)
(7.19071 4.84249 0)
(7.40275 4.59123 1.27021e-18)
(7.60373 4.32961 1.35296e-18)
(7.79312 4.05813 -3.93635e-18)
(7.97042 3.77732 -6.8304e-20)
(8.13516 3.48777 -1.264e-18)
(8.2869 3.19007 6.95954e-19)
(8.42522 2.88483 -6.42899e-19)
(8.54971 2.57274 -7.06731e-19)
(8.66001 2.25447 0)
(8.75588 1.93075 3.72851e-19)
(8.83709 1.60219 -1.69145e-20)
(8.90327 1.26965 -3.46137e-19)
(8.9542 0.933853 -1.67764e-20)
(8.98977 0.595559 -8.71323e-20)
(9.00981 0.255539 1.74638e-19)
(5.998 5.43947 0)
(6.23674 5.24595 1.08601e-18)
(6.46754 5.041 1.61923e-20)
(6.68967 4.82486 -1.10217e-18)
(6.90252 4.59791 0)
(7.10555 4.36054 1.14666e-18)
(7.29824 4.1132 -1.0948e-18)
(7.48008 3.85635 -1.21194e-18)
(7.6506 3.59049 2.30532e-18)
(7.80936 3.31616 1.2439e-18)
(7.95591 3.03391 0)
(8.08988 2.74432 6.06725e-19)
(8.21086 2.44802 -4.3928e-21)
(8.31855 2.14566 2.18736e-20)
(8.41254 1.8379 0)
(8.49267 1.52537 -5.97223e-19)
(8.5588 1.20869 -3.12883e-19)
(8.6105 0.888659 4.57144e-19)
(8.64767 0.566019 3.08222e-19)
(8.67013 0.241474 -4.11981e-20)
(5.77643 5.17097 0)
(6.00391 4.98744 -9.38016e-19)
(6.2239 4.79304 0)
(6.43573 4.588 -1.01202e-18)
(6.6388 4.37265 1.99247e-18)
(6.83262 4.14735 -2.03199e-18)
(7.01669 3.9125 3.17963e-18)
(7.19054 3.66854 -3.17049e-18)
(7.35373 3.41593 -2.14209e-18)
(7.50584 3.15517 -1.57993e-18)
(7.64646 2.88679 5.41783e-19)
(7.77521 2.61133 -1.12321e-18)
(7.89175 2.32938 1.86551e-20)
(7.99574 2.04152 1.11655e-18)
(8.0869 1.74836 -2.80897e-19)
(8.16486 1.45062 1.15069e-18)
(8.22951 1.14879 -5.65956e-19)
(8.2807 0.843567 2.60762e-19)
(8.31814 0.535693 -1.48707e-19)
(8.34166 0.225835 0)
(5.57858 4.92962 0)
(5.79544 4.75453 1.81469e-18)
(6.00516 4.56914 8.80272e-19)
(6.2071 4.37365 -9.06102e-19)
(6.40071 4.16832 -1.85615e-18)
(6.58552 3.95351 2.82449e-18)
(6.76108 3.72956 1.12976e-20)
(6.92694 3.49691 -9.2066e-19)
(7.0827 3.25597 1.97648e-18)
(7.22797 3.00723 1.02079e-18)
(7.36236 2.75118 -9.53702e-19)
(7.48552 2.48834 5.00778e-19)
(7.59712 2.21925 2.25469e-20)
(7.69685 1.94448 -5.26936e-19)
(7.78442 1.66461 -2.55346e-19)
(7.85956 1.38021 5.12002e-19)
(7.92203 1.09198 -2.56657e-19)
(7.97172 0.800427 -5.17925e-19)
(8.00846 0.506221 6.00173e-20)
(8.032 0.210015 6.48977e-20)
(5.4022 4.71333 0)