/*--------------------------------*- C++ -*----------------------------------*\
  =========                 |
  \\      /  F ield         | OpenFOAM: The Open Source CFD Toolbox
   \\    /   O peration     | Website:  https://openfoam.org
    \\  /    A nd           | Version:  6.0
     \\/     M anipulation  |
\*---------------------------------------------------------------------------*/
FoamFile
{
    version     2.0;
    format      ascii;
    class       surfaceScalarField;
    location    "19.504";
    object      phi;
}
// * * * * * * * * * * * * * * * * * * * * * * * * * * * * * * * * * * * * * //

dimensions      [0 3 -1 0 0 0 0];

internalField   nonuniform List<scalar> 
38030
(
-8.45507e-06
-0.00797671
0.00798516
-2.70461e-05
-0.00732789
0.00734649
-5.36593e-05
-0.00673329
0.0067599
-8.63306e-05
-0.00618971
0.00622238
-0.000123249
-0.00569363
0.00573055
-0.000162878
-0.00524143
0.00528106
-0.000203938
-0.00482957
0.00487063
-0.00024538
-0.00445466
0.0044961
-0.000286348
-0.00411347
0.00415443
-0.000326163
-0.00380297
0.00384278
-0.000364292
-0.00352035
0.00355847
-0.000400332
-0.003263
0.00329904
-0.000433995
-0.00302852
0.00306218
-0.000465091
-0.0028147
0.0028458
-0.000493515
-0.00261954
0.00264797
-0.000519241
-0.0024412
0.00246693
-0.000542306
-0.00227801
0.00230108
-0.000562807
-0.00212847
0.00214897
-0.000580889
-0.0019912
0.00200929
-0.000596742
-0.00186499
0.00188084
-0.000610589
-0.00174873
0.00176258
-0.000622684
-0.00164143
0.00165353
-0.000633304
-0.00154221
0.00155283
-0.000642742
-0.00145028
0.00145972
-0.000651302
-0.00136494
0.0013735
-0.000659292
-0.00128559
0.00129358
-0.00066702
-0.00121172
0.00121944
-0.000674785
-0.00114287
0.00115063
-0.000682879
-0.00107863
0.00108673
-0.00101859
0.00102731
-0.000691597
-7.44247e-06
-0.00796927
-2.57082e-05
-0.00730963
-5.18845e-05
-0.00670711
-8.37483e-05
-0.00615785
-0.000119445
-0.00565793
-0.000157423
-0.00520345
-0.000196397
-0.0047906
-0.000235311
-0.00441575
-0.000273311
-0.00407547
-0.000309715
-0.00376656
-0.000343995
-0.00348607
-0.000375752
-0.00323124
-0.000404702
-0.00299957
-0.000430661
-0.00278874
-0.000453534
-0.00259667
-0.000473303
-0.00242143
-0.000490015
-0.0022613
-0.000503779
-0.0021147
-0.000514754
-0.00198023
-0.000523145
-0.0018566
-0.000529193
-0.00174268
-0.000533172
-0.00163745
-0.000535378
-0.00154
-0.00053613
-0.00144953
-0.000535754
-0.00136532
-0.000534589
-0.00128676
-0.000532969
-0.00121334
-0.000531223
-0.00114461
-0.000529674
-0.00108018
-0.00101962
-0.000528649
-7.04939e-06
-0.00796222
-2.46954e-05
-0.00729198
-5.00185e-05
-0.00668179
-8.06662e-05
-0.0061272
-0.000114715
-0.00562389
-0.000150578
-0.00516759
-0.000186952
-0.00475423
-0.000222772
-0.00437993
-0.00025718
-0.00404106
-0.000289493
-0.00373425
-0.000319183
-0.00345638
-0.000345856
-0.00320457
-0.000369232
-0.00297619
-0.000389131
-0.00276884
-0.000405466
-0.00258033
-0.000418223
-0.00240868
-0.000427462
-0.00225206
-0.000433301
-0.00210887
-0.000435913
-0.00197762
-0.000435517
-0.001857
-0.000432372
-0.00174583
-0.000426771
-0.00164305
-0.000419035
-0.00154774
-0.000409506
-0.00145906
-0.000398543
-0.00137628
-0.000386511
-0.00129879
-0.000373783
-0.00122606
-0.000360723
-0.00115767
-0.000347691
-0.00109321
-0.00103226
-0.00033505
-6.79571e-06
-0.00795542
-2.37478e-05
-0.00727503
-4.79703e-05
-0.00665757
-7.70692e-05
-0.0060981
-0.000109077
-0.00559188
-0.000142379
-0.00513429
-0.000175652
-0.00472095
-0.000207822
-0.00434776
-0.000238027
-0.00401085
-0.000265582
-0.00370669
-0.000289961
-0.003432
-0.00031077
-0.00318376
-0.000327732
-0.00295923
-0.000340673
-0.0027559
-0.000349509
-0.0025715
-0.000354233
-0.00240395
-0.000354911
-0.00225138
-0.000351672
-0.00211211
-0.000344698
-0.00198459
-0.000334224
-0.00186747
-0.000320527
-0.00175952
-0.00030392
-0.00165966
-0.000284748
-0.00156691
-0.000263381
-0.00148043
-0.000240209
-0.00139945
-0.000215634
-0.00132336
-0.000190068
-0.00125163
-0.000163918
-0.00118382
-0.000137589
-0.00111954
-0.00105836
-0.00011149
-6.55547e-06
-0.00794887
-2.27375e-05
-0.00725885
-4.56647e-05
-0.00663464
-7.29263e-05
-0.00607084
-0.000102531
-0.00556227
-0.000132845
-0.00510397
-0.000162532
-0.00469127
-0.000190512
-0.00431978
-0.000215918
-0.00398545
-0.000238067
-0.00368454
-0.000256432
-0.00341363
-0.00027062
-0.00316957
-0.000280357
-0.00294949
-0.000285472
-0.00275079
-0.000285881
-0.00257109
-0.000281584
-0.00240825
-0.000272652
-0.00226032
-0.000259219
-0.00212554
-0.000241479
-0.00200233
-0.000219679
-0.00188927
-0.000194113
-0.00178509
-0.000165115
-0.00168866
-0.000133055
-0.00159897
-9.8332e-05
-0.00151515
-6.13692e-05
-0.00143642
-2.2611e-05
-0.00136212
1.7488e-05
-0.00129173
5.84704e-05
-0.00122481
9.98777e-05
-0.00116095
-0.00109972
0.000141245
-6.29126e-06
-0.00794257
-2.16095e-05
-0.00724353
-4.30572e-05
-0.00661319
-6.82124e-05
-0.00604569
-9.50707e-05
-0.00553541
-0.000121987
-0.00507706
-0.00014762
-0.00466563
-0.000170885
-0.00429651
-0.000190916
-0.00396542
-0.000207029
-0.00366843
-0.000218699
-0.00340196
-0.000225536
-0.00316273
-0.000227265
-0.00294776
-0.000223716
-0.00275434
-0.000214808
-0.00258
-0.000200542
-0.00242251
-0.000180991
-0.00227987
-0.000156295
-0.00215023
-0.000126657
-0.00203197
-9.23314e-05
-0.0019236
-5.36282e-05
-0.00182379
-1.09023e-05
-0.00173138
3.54516e-05
-0.00164533
8.50032e-05
-0.0015647
0.000137292
-0.00148871
0.000191833
-0.00141666
0.000248119
-0.00134801
0.000305638
-0.00128233
0.00036387
-0.00121918
-0.00115814
0.000422285
-5.98955e-06
-0.00793658
-2.03381e-05
-0.00722918
-4.01229e-05
-0.00659341
-6.29108e-05
-0.0060229
-8.66904e-05
-0.00551163
-0.000109813
-0.00505394
-0.000130936
-0.00464451
-0.000148978
-0.00427847
-0.000163072
-0.00395132
-0.000172541
-0.00365896
-0.000176859
-0.00339764
-0.000175639
-0.00316395
-0.000168607
-0.00295479
-0.000155594
-0.00276735
-0.000136517
-0.00259908
-0.000111376
-0.00244765
-8.02468e-05
-0.002311
-4.327e-05
-0.00218721
-6.51491e-07
-0.00207459
4.73437e-05
-0.00197159
0.000100395
-0.00187684
0.000158129
-0.00178912
0.000220127
-0.00170732
0.000285928
-0.0016305
0.00035503
-0.00155781
0.000426904
-0.00148853
0.000500988
-0.0014221
0.000576708
-0.00135805
0.000653473
-0.00129595
-0.00123534
0.000730676
-5.64643e-06
-0.00793094
-1.89122e-05
-0.00721592
-3.6848e-05
-0.00657547
-5.70104e-05
-0.00600274
-7.73856e-05
-0.00549126
-9.63266e-05
-0.00503499
-0.000112496
-0.00462834
-0.000124817
-0.00426615
-0.000132431
-0.00394371
-0.000134663
-0.00365673
-0.000130996
-0.00340131
-0.000121041
-0.00317391
-0.000104528
-0.00297131
-8.12846e-05
-0.00279059
-5.12276e-05
-0.00262913
-1.43545e-05
-0.00248453
2.92634e-05
-0.00235462
7.94855e-05
-0.00223743
0.000136106
-0.00213121
0.000198854
-0.00203434
0.000267402
-0.00194539
0.000341362
-0.00186308
0.000420291
-0.00178625
0.000503697
-0.00171391
0.000591043
-0.00164515
0.000681746
-0.00157924
0.00077519
-0.00151554
0.000870729
-0.00145359
0.000967694
-0.00139291
-0.00133304
0.00106539
-5.26077e-06
-0.00792568
-1.73269e-05
-0.00720385
-3.32246e-05
-0.00655957
-5.05032e-05
-0.00598546
-6.71508e-05
-0.00547461
-8.15275e-05
-0.00502062
-9.23061e-05
-0.00461756
-9.84202e-05
-0.00426003
-9.90216e-05
-0.00394311
-9.34445e-05
-0.00366231
-8.11767e-05
-0.00341358
-6.18358e-05
-0.00319325
-3.51513e-05
-0.00299799
-9.49897e-07
-0.0028248
4.08549e-05
-0.00267094
9.0271e-05
-0.00253394
0.000147233
-0.00241158
0.000211605
-0.0023018
0.000283184
-0.00220279
0.000361703
-0.00211286
0.000446826
-0.00203052
0.000538156
-0.00195441
0.000635231
-0.00188333
0.000737532
-0.00181621
0.000844481
-0.0017521
0.000955449
-0.00169021
0.00106975
-0.00162985
0.00118668
-0.00157051
0.00130546
-0.0015117
-0.00145289
0.00142531
-4.83253e-06
-0.00792085
-1.55791e-05
-0.0071931
-2.92463e-05
-0.00654591
-4.33804e-05
-0.00597132
-5.59768e-05
-0.00546202
-6.54084e-05
-0.00501119
-7.03632e-05
-0.00461261
-6.9791e-05
-0.00426061
-6.28584e-05
-0.00395004
-4.89122e-05
-0.00367625
-2.74496e-05
-0.00343504
1.90562e-06
-0.0032226
3.94217e-05
-0.00303551
8.52731e-05
-0.00287065
0.000139551
-0.00272521
0.00020227
-0.00259666
0.000273375
-0.00248268
0.000352738
-0.00238117
0.000440166
-0.00229022
0.000535396
-0.00220809
0.000638096
-0.00213322
0.000747861
-0.00206417
0.000864218
-0.00199968
0.000986622
-0.00193861
0.00111446
-0.00187994
0.00124705
-0.0018228
0.00138366
-0.00176645
0.00152347
-0.00171032
0.00166564
-0.00165387
-0.00159651
0.00180926
-4.36111e-06
-0.00791648
-1.36654e-05
-0.0071838
-2.49057e-05
-0.00653467
-3.5631e-05
-0.0059606
-4.38498e-05
-0.0054538
-4.79541e-05
-0.00500708
-4.66534e-05
-0.00461391
-3.89191e-05
-0.00426834
-2.39377e-05
-0.00396502
-1.0734e-06
-0.00369912
3.01633e-05
-0.00346628
7.01398e-05
-0.00326258
0.00011912
-0.00308449
0.000177279
-0.00292881
0.000244713
-0.00279265
0.000321446
-0.0026734
0.000407433
-0.00256867
0.000502562
-0.0024763
0.000606653
-0.00239431
0.000719455
-0.00232089
0.000840646
-0.00225441
0.000969823
-0.00219335
0.00110651
-0.00213637
0.00125013
-0.00208224
0.00140006
-0.00202986
0.00155555
-0.00197829
0.00171581
-0.00192671
0.00187995
-0.00187446
0.00204701
-0.00182093
-0.00176546
0.00221596
-3.84544e-06
-0.00791264
-1.15814e-05
-0.00717606
-2.01934e-05
-0.00652605
-2.724e-05
-0.00595355
-3.07498e-05
-0.00545029
-2.91405e-05
-0.00500869
-2.11499e-05
-0.0046219
-5.77748e-06
-0.00428371
1.77643e-05
-0.00398856
5.00888e-05
-0.00373144
9.16675e-05
-0.00350786
0.000142855
-0.00331377
0.000203908
-0.00314554
0.000275001
-0.0029999
0.000356233
-0.00287388
0.00044764
-0.0027648
0.000549191
-0.00267022
0.000660791
-0.0025879
0.000782281
-0.0025158
0.000913431
-0.00245204
0.00105393
-0.00239491
0.0012034
-0.00234281
0.00136134
-0.00229432
0.00152721
-0.0022481
0.00170031
-0.00220297
0.00187988
-0.00215787
0.00206507
-0.00211189
0.00225488
-0.00206428
0.00244827
-0.00201432
-0.00196124
0.00264405
-3.2841e-06
-0.00790935
-9.3212e-06
-0.00717003
-1.50972e-05
-0.00652028
-1.81881e-05
-0.00595046
-1.66499e-05
-0.00545182
-8.93392e-06
-0.00501641
6.18643e-06
-0.00463702
2.96768e-05
-0.0043072
6.22918e-05
-0.00402118
0.000104616
-0.00377377
0.000157098
-0.00356034
0.000220074
-0.00337674
0.000293789
-0.00321926
0.000378413
-0.00308452
0.000474051
-0.00296952
0.000580745
-0.0028715
0.000698482
-0.00278796
0.000827189
-0.00271661
0.000966733
-0.00265534
0.00111691
-0.00260222
0.00127744
-0.00255544
0.00144795
-0.00251333
0.00162799
-0.00247435
0.00181698
-0.00243709
0.00201423
-0.00240022
0.00221896
-0.00236259
0.00243022
-0.00232315
0.00264697
-0.00228103
0.00286802
-0.00223537
-0.00218528
0.00309206
-2.67493e-06
-0.00790668
-6.87758e-06
-0.00716582
-9.60246e-06
-0.00651755
-8.45148e-06
-0.00595161
-1.51701e-06
-0.00545876
1.27082e-05
-0.00503063
3.54071e-05
-0.00465972
6.75026e-05
-0.0043393
0.000109709
-0.00406338
0.000162576
-0.00382663
0.00022652
-0.00362428
0.000301854
-0.00345208
0.000388807
-0.00330621
0.000487541
-0.00318326
0.000598157
-0.00308014
0.000720708
-0.00299405
0.000855198
-0.00292245
0.00100158
-0.00286299
0.00115974
-0.00281351
0.00132953
-0.002772
0.00151069
-0.0027366
0.00170289
-0.00270553
0.00190571
-0.00267717
0.00211858
-0.00264996
0.00234082
-0.00262247
0.00257162
-0.00259339
0.00280999
-0.00256152
0.0030548
-0.00252584
0.00330476
-0.00248533
-0.00243892
0.0035584
-2.01548e-06
-0.00790466
-4.2419e-06
-0.0071636
-3.69197e-06
-0.0065181
1.99699e-06
-0.0059573
1.46875e-05
-0.00547145
3.5836e-05
-0.00505178
6.65738e-05
-0.00469045
0.000107773
-0.0043805
0.000160099
-0.00411571
0.000224057
-0.00389059
0.000300027
-0.00370025
0.000388289
-0.00354034
0.000489049
-0.00340697
0.000602453
-0.00329666
0.000728597
-0.00320628
0.000867539
-0.00313299
0.0010193
-0.0030742
0.00118385
-0.00302754
0.00136112
-0.00299078
0.00155099
-0.00296187
0.00175327
-0.00293887
0.00196767
-0.00291993
0.0021938
-0.0029033
0.00243115
-0.00288731
0.00267905
-0.00287038
0.00293669
-0.00285102
0.00320304
-0.00282787
0.0034769
-0.00279971
0.00375688
-0.0027653
-0.00272337
0.00404133
-1.30286e-06
-0.00790336
-1.40469e-06
-0.0071635
2.65297e-06
-0.00652216
1.31873e-05
-0.00596783
3.20056e-05
-0.00549027
6.0505e-05
-0.00508028
9.97556e-05
-0.00472971
0.000150569
-0.00443131
0.000213556
-0.0041787
0.000289168
-0.0039662
0.000377736
-0.00378882
0.000479503
-0.00364211
0.000594639
-0.0035221
0.000723268
-0.00342529
0.000865472
-0.00334848
0.00102131
-0.00328883
0.0011908
-0.0032437
0.00137396
-0.00321069
0.00157074
-0.00318757
0.00178108
-0.00317221
0.00200483
-0.00316262
0.00224178
-0.00315688
0.0024916
-0.00315312
0.00275385
-0.00314955
0.00302789
-0.00314442
0.00331293
-0.00313606
0.00360794
-0.00312289
0.00391168
-0.00310344
0.00422262
-0.00307624
-0.00303972
0.00453897
-5.34178e-07
-0.00790283
1.64378e-06
-0.00716567
9.45175e-06
-0.00652997
2.51501e-05
-0.00598353
5.04812e-05
-0.0055156
8.67727e-05
-0.00511657
0.000135025
-0.00477796
0.000195981
-0.00449227
0.000270185
-0.0042529
0.000358027
-0.00405405
0.000459783
-0.00389058
0.000575642
-0.00375796
0.000705733
-0.0036522
0.000850145
-0.0035697
0.00100894
-0.00350728
0.00118215
-0.00346204
0.00136982
-0.00343137
0.00157197
-0.00341284
0.00178859
-0.00340419
0.00201966
-0.00340328
0.00226512
-0.00340808
0.00252482
-0.00341658
0.00279852
-0.00342683
0.00308587
-0.00343689
0.00338631
-0.00344486
0.0036991
-0.00344885
0.00402323
-0.00344702
0.00435743
-0.00343764
0.00470009
-0.0034189
-0.00338889
0.00504925
2.93499e-07
-0.00790312
4.91307e-06
-0.00717029
1.67229e-05
-0.00654178
3.79152e-05
-0.00600473
7.01559e-05
-0.00554784
0.000114694
-0.00516111
0.000172451
-0.00483571
0.000244093
-0.00456391
0.000330088
-0.0043389
0.000430757
-0.00415472
0.000546307
-0.00400613
0.000676867
-0.00388852
0.00082251
-0.00379784
0.000983276
-0.00373047
0.00115919
-0.00368319
0.00135027
-0.00365312
0.00155653
-0.00363763
0.00177801
-0.00363431
0.00201473
-0.00364091
0.00226672
-0.00365527
0.00253398
-0.00367534
0.00281647
-0.00369906
0.00311405
-0.00372441
0.00342648
-0.00374932
0.00375333
-0.00377171
0.00409394
-0.00378946
0.00444737
-0.00380046
0.00481236
-0.00380263
0.00518724
-0.00379378
-0.00377157
0.00556991
1.18295e-06
-0.0079043
8.41192e-06
-0.00717752
2.44834e-05
-0.00655785
5.15084e-05
-0.00603175
9.10665e-05
-0.0055874
0.000144318
-0.00521436
0.000212096
-0.00490349
0.000294981
-0.00464679
0.00039336
-0.00443727
0.00050747
-0.00426883
0.000637444
-0.0041361
0.000783336
-0.00403442
0.000945152
-0.00395966
0.00112287
-0.00390818
0.00131646
-0.00387678
0.0015259
-0.00386256
0.00175117
-0.00386291
0.00199231
-0.00387545
0.00224935
-0.00389795
0.00252236
-0.00392829
0.00281142
-0.00396439
0.00311657
-0.00400422
0.00343782
-0.00404566
0.00377506
-0.00408656
0.00412803
-0.00412468
0.00449622
-0.00415765
0.00487881
-0.00418305
0.00527459
-0.00419841
0.00568189
-0.00420108
-0.00418817
0.00609849
2.13616e-06
-0.00790644
1.21471e-05
-0.00718753
3.27462e-05
-0.00657845
6.59503e-05
-0.00606495
0.000113241
-0.00563469
0.000175679
-0.0052768
0.000254004
-0.00498182
0.000348702
-0.00474149
0.000460068
-0.00454864
0.000588254
-0.00439701
0.000733303
-0.00428115
0.000895187
-0.0041963
0.00107383
-0.0041383
0.00126913
-0.00410348
0.00148098
-0.00408863
0.00170931
-0.00409088
0.00195404
-0.00410765
0.00221518
-0.00413659
0.00249275
-0.00417552
0.00278684
-0.00422238
0.00309758
-0.00427514
0.00342513
-0.00433177
0.00376963
-0.00439016
0.00413116
-0.00444809
0.00450965
-0.00450317
0.00490482
-0.00455281
0.00531603
-0.00459426
0.00574222
-0.0046246
0.00618177
-0.00464062
-0.00463877
0.00663237
3.15451e-06
-0.00790959
1.61235e-05
-0.0072005
4.15201e-05
-0.00660385
8.12529e-05
-0.00610469
0.000136693
-0.00569013
0.000208796
-0.0053489
0.000298196
-0.00507122
0.000405281
-0.00484858
0.000530248
-0.00467361
0.000673153
-0.00453992
0.000833948
-0.00444194
0.00101251
-0.00437486
0.00120866
-0.00433445
0.00142222
-0.00431704
0.00165298
-0.0043194
0.00190078
-0.00433868
0.00216547
-0.00437234
0.00244698
-0.0044181
0.00274531
-0.00447385
0.00306053
-0.0045376
0.00339282
-0.00460742
0.00374239
-0.00468134
0.00410955
-0.00475732
0.00449457
-0.00483311
0.00489765
-0.00490625
0.00531878
-0.00497394
0.00575763
-0.00503311
0.00621338
-0.00508035
0.00668453
-0.00511178
-0.00512303
0.00716879
4.23836e-06
-0.00791383
2.03427e-05
-0.00721661
5.08081e-05
-0.00663431
9.74184e-05
-0.0061513
0.000161423
-0.00575413
0.000243662
-0.00543114
0.00034466
-0.00517222
0.0004647
-0.00496862
0.000603879
-0.00481279
0.000762153
-0.00469819
0.000939373
-0.00461916
0.00113531
-0.0045708
0.0013497
-0.00454884
0.00158223
-0.00454957
0.00183261
-0.00456977
0.00210053
-0.0046066
0.00238577
-0.00465757
0.00268813
-0.00472046
0.00300754
-0.00479325
0.00334401
-0.00487407
0.0036977
-0.00496111
0.00406889
-0.00505253
0.00445799
-0.00514642
0.00486548
-0.00524061
0.00529186
-0.00533263
0.0057375
-0.00541958
0.00620248
-0.00549808
0.00668635
-0.00556422
0.00718792
-0.00561334
-0.00564007
0.00770496
5.38726e-06
-0.00791922
2.48044e-05
-0.00723602
6.06075e-05
-0.00667011
0.000114438
-0.00620513
0.000187411
-0.00582711
0.000280243
-0.00552397
0.000393345
-0.00528532
0.000526891
-0.00510216
0.000680877
-0.00496677
0.000855156
-0.00487247
0.00104948
-0.00481349
0.00126351
-0.00478483
0.00149687
-0.0047822
0.00174914
-0.00480184
0.00201988
-0.00484051
0.00230868
-0.0048954
0.00261516
-0.00496405
0.00293899
-0.00504429
0.00327995
-0.00513421
0.00363794
-0.00523207
0.00401304
-0.0053362
0.0044055
-0.005445
0.0048158
-0.00555671
0.0052446
-0.00566941
0.00569271
-0.00578074
0.00616095
-0.00588782
0.00664994
-0.00598708
0.00715985
-0.00607412
0.00768994
-0.00614344
-0.00618837
0.00823825
6.59985e-06
-0.00792582
2.95069e-05
-0.00725893
7.09113e-05
-0.00671152
0.000132291
-0.00626651
0.000214616
-0.00590943
0.000318472
-0.00562783
0.000444151
-0.005411
0.000591722
-0.00524973
0.000761074
-0.00513612
0.000951963
-0.00506336
0.00116403
-0.00502556
0.00139685
-0.00501765
0.00164993
-0.00503527
0.00192271
-0.00507462
0.00221464
-0.00513245
0.00252516
-0.00520592
0.00285371
-0.0052926
0.0031998
-0.00539038
0.00356301
-0.00549742
0.00394305
-0.00561211
0.00433983
-0.00573298
0.00475347
-0.00585863
0.0051844
-0.00598765
0.00563338
-0.00611839
0.00610148
-0.00624884
0.00659001
-0.00637635
0.00710031
-0.00649738
0.00763336
-0.00660717
0.00818926
-0.00669934
-0.00676561
0.00876649
7.87644e-06
-0.0079337
3.44508e-05
-0.0072855
8.17113e-05
-0.00675878
0.000150949
-0.00633575
0.000242977
-0.00600146
0.000358246
-0.0057431
0.000496931
-0.00554968
0.00065899
-0.00541179
0.000844214
-0.00532135
0.00105226
-0.0052714
0.00128267
-0.00525597
0.00153493
-0.00526991
0.00180842
-0.00530876
0.00210249
-0.0053687
0.00241645
-0.00544641
0.00274959
-0.00553906
0.00310118
-0.00564419
0.00347052
-0.00575972
0.00385697
-0.00588387
0.00425998
-0.00601511
0.00467916
-0.00615216
0.00511438
-0.00629386
0.00556585
-0.00643912
0.00603425
-0.00658678
0.00652075
-0.00673534
0.0070271
-0.0068827
0.00755541
-0.00702569
0.00810786
-0.00715962
0.00868581
-0.00727729
-0.00736846
0.00928866
9.22368e-06
-0.00794292
3.96471e-05
-0.00731593
9.30043e-05
-0.00681214
0.000170376
-0.00641312
0.000272412
-0.00610349
0.000399427
-0.00587011
0.000551478
-0.00570173
0.000728418
-0.00558873
0.000929937
-0.00552287
0.0011556
-0.00549706
0.00140486
-0.00550524
0.00167711
-0.00554215
0.00197164
-0.00560329
0.0022877
-0.00568476
0.0026245
-0.00578321
0.00298117
-0.00589573
0.00335685
-0.00601987
0.00375063
-0.00615351
0.00416162
-0.00629486
0.00458897
-0.00644246
0.00503192
-0.00659511
0.00548994
-0.00675187
0.00596279
-0.00691197
0.00645076
-0.00707475
0.00695483
-0.00723941
0.00747688
-0.00740475
0.00801976
-0.00756857
0.00858706
-0.00772692
0.00918217
-0.00787241
-0.00799229
0.00980601
1.06662e-05
-0.00795359
4.51304e-05
-0.00735039
0.0001048
-0.00687181
0.000190533
-0.00649885
0.000302818
-0.00621578
0.000441839
-0.00600914
0.000607536
-0.00586743
0.000799654
-0.00578085
0.00101779
-0.005741
0.00126141
-0.00574068
0.00152989
-0.00577372
0.00182254
-0.0058348
0.00213859
-0.00591934
0.00247721
-0.00602338
0.00283752
-0.00614351
0.00321856
-0.00627678
0.00361935
-0.00642066
0.00403884
-0.00657299
0.00447592
-0.00673194
0.00492946
-0.006896
0.00539833
-0.00706398
0.00588146
-0.007235
0.00637799
-0.00740851
0.00688747
-0.00758422
0.00741015
-0.00776209
0.00794742
-0.00794203
0.00850228
-0.00812343
0.00907964
-0.00830427
0.0096857
-0.00847847
-0.0086307
0.0103241
1.22727e-05
-0.00796586
5.09834e-05
-0.0073891
0.00011713
-0.00693795
0.000211377
-0.0065931
0.000334071
-0.00633847
0.00048527
-0.00616034
0.000664793
-0.00604695
0.000872274
-0.00598833
0.00110721
-0.00597593
0.00136898
-0.00600246
0.00165689
-0.00606164
0.00197018
-0.00614809
0.00230801
-0.00625717
0.00266951
-0.00638488
0.00305375
-0.00652775
0.00345976
-0.00668279
0.00388649
-0.00684739
0.00433283
-0.00701933
0.00479758
-0.00719669
0.00527944
-0.00737786
0.00577701
-0.00756155
0.00628878
-0.00774678
0.00681321
-0.00793294
0.00734886
-0.00811987
0.00789466
-0.0083079
0.00845051
-0.00849787
0.00901808
-0.00869101
0.0096022
-0.0088884
0.010212
-0.00908827
-0.00927794
0.0108592
1.42665e-05
-0.00798013
5.74058e-05
-0.00743224
0.000130065
-0.00701061
0.000232856
-0.00669589
0.000366016
-0.00647163
0.000529465
-0.00632378
0.000722888
-0.00624038
0.000945796
-0.00621124
0.00119758
-0.00622771
0.00147752
-0.0062824
0.00178486
-0.00636897
0.00211875
-0.00648198
0.00247833
-0.00661675
0.00286271
-0.00676926
0.00327095
-0.00693599
0.00370208
-0.00711392
0.00415511
-0.00730042
0.00462899
-0.00749321
0.00512258
-0.00769029
0.00563467
-0.00788995
0.00616388
-0.00809075
0.00670861
-0.00829151
0.007267
-0.00849133
0.00783687
-0.00868973
0.00841574
-0.00888676
0.00900113
-0.00908327
0.00959137
-0.00928124
0.0101875
-0.00948452
0.0107988
-0.00969953
-0.00993902
0.0114598
1.74592e-05
-0.00799758
6.47843e-05
-0.00747957
0.000143664
-0.00708949
0.000254866
-0.00680709
0.000398443
-0.00661521
0.000574121
-0.00649946
0.000781413
-0.00644767
0.00101969
-0.00644951
0.0012882
-0.00649623
0.00158615
-0.00658035
0.00191268
-0.00669549
0.00226688
-0.00683618
0.00264785
-0.00699773
0.00305468
-0.00717608
0.00348645
-0.00736775
0.00394225
-0.00756972
0.00442119
-0.00777937
0.0049224
-0.00799442
0.005445
-0.00821289
0.00598814
-0.00843309
0.00655093
-0.00865354
0.00713241
-0.00887299
0.0077315
-0.00909043
0.00834684
-0.00930507
0.00897657
-0.00951649
0.0096182
-0.0097249
0.0102683
-0.00993135
0.0109215
-0.0101377
0.0115731
-0.0103511
-0.0105942
0.0122283
0.00899373
4.60538e-05
-0.00903978
0.00894862
4.51099e-05
0.0089038
4.48195e-05
0.00885913
4.46687e-05
0.00881463
4.44981e-05
0.00877038
4.42517e-05
0.00872647
4.39077e-05
0.00868301
4.34595e-05
0.0086401
4.29077e-05
0.00859785
4.22559e-05
0.00855634
4.1509e-05
0.00851567
4.06727e-05
0.00847591
3.97528e-05
0.00843716
3.87555e-05
0.00839947
3.76869e-05
0.00836292
3.65529e-05
0.00832756
3.53593e-05
0.00829345
3.41119e-05
0.00826063
3.28157e-05
0.00822916
3.1476e-05
0.00819906
3.00974e-05
0.00817037
2.86848e-05
0.00814313
2.72423e-05
0.00811736
2.57741e-05
0.00809308
2.42823e-05
0.00807031
2.27637e-05
0.00804911
2.11992e-05
0.00802958
1.95292e-05
0.00801204
1.75462e-05
1.44529e-05
0.0102872
0.000164531
-0.0104056
0.0101675
0.000164758
0.0100472
0.0001651
0.0099266
0.000165303
0.00980588
0.000165221
0.00968535
0.000164784
0.00956529
0.000163961
0.00944601
0.00016274
0.0093278
0.000161124
0.00921093
0.000159124
0.00909568
0.000156756
0.00898232
0.000154036
0.00887109
0.000150985
0.00876222
0.000147623
0.00865594
0.000143971
0.00855244
0.000140049
0.00845192
0.00013588
0.00835455
0.000131482
0.00826049
0.000126874
0.00816989
0.000122076
0.00808288
0.000117104
0.00799959
0.000111974
0.00792014
0.000106702
0.00784461
0.000101299
0.00777312
9.57733e-05
0.00770576
9.01212e-05
0.00764265
8.4315e-05
0.0075839
7.82779e-05
0.00752963
7.18143e-05
6.45155e-05
0.0115454
0.00034342
-0.0117243
0.0113637
0.000346433
0.01118
0.000348771
0.010995
0.000350371
0.010809
0.000351161
0.0106227
0.000351096
0.0104365
0.000350155
0.0102509
0.000348333
0.0100664
0.000345644
0.00988341
0.00034211
0.0097024
0.00033776
0.00952381
0.000332629
0.00934804
0.000326756
0.00917548
0.000320181
0.0090065
0.000312947
0.00884145
0.000305097
0.00868066
0.000296672
0.00852443
0.000287715
0.00837304
0.000278265
0.00822675
0.00026836
0.00808582
0.000258036
0.00795047
0.000247328
0.0078209
0.000236267
0.00769732
0.000224881
0.0075799
0.000213192
0.00746881
0.000201212
0.0073642
0.000188931
0.00726616
0.000176314
0.0071747
0.000163277
0.00014972
0.0127587
0.00057198
-0.0129873
0.0125258
0.000579374
0.0122893
0.000585244
0.0120501
0.000589596
0.0118088
0.000592412
0.0115663
0.000593678
0.011323
0.000593392
0.0110798
0.000591564
0.0108372
0.000588222
0.0105959
0.000583403
0.0103565
0.000577155
0.0101196
0.000569533
0.00988578
0.000560597
0.00965555
0.000550414
0.00942944
0.000539051
0.00920796
0.000526577
0.00899157
0.000513062
0.00878072
0.000498572
0.0085758
0.000483176
0.00837723
0.000466935
0.00818535
0.000449911
0.00800052
0.000432161
0.00782305
0.000413741
0.00765323
0.000394701
0.00749133
0.000375089
0.0073376
0.000354945
0.00719223
0.000334302
0.00705536
0.000313183
0.00692702
0.000291613
0.000269653
0.0139193
0.000840459
-0.0141878
0.0136447
0.000853991
0.0133649
0.000865083
0.0130807
0.000873759
0.0127931
0.000880024
0.0125029
0.000883884
0.0122109
0.000885354
0.011918
0.000884461
0.011625
0.000881247
0.0113326
0.000875765
0.0110417
0.000868082
0.010753
0.000858275
0.0104671
0.00084643
0.0101849
0.000832638
0.00990698
0.000816995
0.00963395
0.0007996
0.00936646
0.000780552
0.00910509
0.000759949
0.00885038
0.000737887
0.00860285
0.00071446
0.008363
0.000689757
0.0081313
0.000663863
0.00790818
0.000636864
0.00769404
0.000608839
0.00748926
0.000579868
0.00729417
0.000550033
0.00710906
0.000519418
0.00693413
0.000488115
0.0067695
0.000456235
0.000423946
0.015021
0.00114013
-0.0153206
0.0147133
0.00116168
0.0143985
0.00117982
0.0140777
0.00119455
0.0137519
0.00120588
0.0134219
0.00121383
0.0130889
0.00121842
0.0127537
0.00121968
0.0124172
0.00121767
0.0120805
0.00121246
0.0117445
0.00120413
0.01141
0.00119278
0.0110779
0.00117852
0.0107491
0.00116146
0.0104243
0.00114174
0.0101045
0.00111948
0.0097902
0.00109481
0.00948229
0.00106786
0.00918141
0.00103877
0.00888822
0.00100765
0.00860335
0.000974625
0.0083274
0.000939817
0.00806092
0.000903338
0.00780446
0.000865304
0.00755849
0.000825834
0.00732347
0.000785056
0.00709978
0.000743108
0.00688774
0.000700155
0.00668758
0.000656391
0.000612069
0.0160591
0.00146322
-0.0163822
0.015726
0.00149475
0.015384
0.00152184
0.0150341
0.00154447
0.0146774
0.00156263
0.0143149
0.00157632
0.0139477
0.00158558
0.0135769
0.00159043
0.0132037
0.00159095
0.0128289
0.0015872
0.0124538
0.00157928
0.0120792
0.00156731
0.0117063
0.00155143
0.011336
0.00153176
0.0109693
0.00150847
0.0106071
0.00148171
0.0102502
0.00145165
0.00989963
0.00141845
0.00955612
0.00138227
0.0092205
0.00134327
0.00889353
0.0013016
0.00857594
0.00125741
0.00826843
0.00121085
0.00797166
0.00116207
0.00768627
0.00111123
0.00741282
0.0010585
0.00715184
0.00100409
0.00690376
0.000948233
0.00666894
0.000891204
0.000833345
0.0170307
0.00180284
-0.0173703
0.0166791
0.00184633
0.0163167
0.00188431
0.0159444
0.00191674
0.0155634
0.00194358
0.015175
0.0019648
0.0147801
0.00198042
0.0143801
0.00199048
0.013976
0.00199502
0.0135691
0.00199413
0.0131604
0.00198791
0.0127513
0.00197649
0.0123427
0.00196002
0.0119358
0.00193865
0.0115317
0.00191258
0.0111314
0.00188197
0.010736
0.00184704
0.0103465
0.00180796
0.00996387
0.00176494
0.00958899
0.00171815
0.00922279
0.0016678
0.00886615
0.00161404
0.00851992
0.00155708
0.00818491
0.00149708
0.00786189
0.00143425
0.00755157
0.00136882
0.00725463
0.00130103
0.00697166
0.00123121
0.00670315
0.00115971
0.00108699
0.0179341
0.0021529
-0.0182841
0.0175701
0.00221031
0.0171932
0.00226114
0.0168047
0.00230529
0.0164056
0.00234269
0.0159971
0.00237329
0.0155804
0.00239708
0.0151569
0.00241405
0.0147276
0.00242427
0.014294
0.00242779
0.0138571
0.00242473
0.0134184
0.00241522
0.012979
0.00239941
0.0125402
0.00237749
0.0121031
0.00234965
0.011669
0.00231609
0.011239
0.00227705
0.0108142
0.00223274
0.0103957
0.00218338
0.00998471
0.00212919
0.00958213
0.00207038
0.00918903
0.00200715
0.00880639
0.00193972
0.00843518
0.00186829
0.00807633
0.0017931
0.00773074
0.00171441
0.00739923
0.00163254
0.00708255
0.00154788
0.00678137
0.00146089
0.00137212
0.0187685
0.00250811
-0.0191237
0.0183975
0.00258132
0.0180118
0.0026469
0.0176124
0.00270468
0.0172005
0.00275455
0.0167774
0.0027964
0.0163443
0.00283018
0.0159025
0.00285587
0.0154533
0.0028735
0.0149979
0.00288311
0.0145379
0.00288481
0.0140744
0.00287873
0.0136088
0.00286501
0.0131424
0.00284385
0.0126766
0.00281546
0.0122126
0.00278007
0.0117517
0.00273792
0.0112952
0.00268925
0.0108443
0.0026343
0.0104002
0.00257332
0.00996402
0.00250654
0.00953698
0.00243418
0.00912023
0.00235647
0.00871487
0.00227365
0.00832202
0.00218595
0.00794273
0.0020937
0.00757803
0.00199724
0.00722886
0.00189705
0.00689607
0.00179369
0.00168784
0.0195346
0.00286389
-0.0198903
0.0191612
0.00295469
0.0187712
0.00303684
0.0183658
0.0031101
0.0179461
0.00317428
0.0175132
0.00322924
0.0170686
0.00327487
0.0166133
0.00331111
0.0161489
0.00333794
0.0156766
0.0033554
0.0151978
0.00336356
0.014714
0.00336252
0.0142266
0.00335245
0.0137369
0.00333354
0.0132464
0.00330599
0.0127564
0.00327006
0.0122683
0.00322599
0.0117835
0.00317404
0.0113033
0.00311448
0.0108291
0.00304756
0.0103621
0.00297353
0.00990367
0.00289263
0.00945506
0.00280508
0.00901758
0.00271112
0.00859251
0.00261102
0.00818112
0.00250509
0.00778462
0.00239374
0.00740418
0.00227749
0.00704083
0.00215703
0.00203318
0.0202334
0.00321632
-0.0205858
0.0198617
0.00332639
0.0194717
0.00342682
0.0190645
0.00351731
0.0186412
0.0035976
0.0182029
0.00366748
0.017751
0.00372678
0.0172867
0.00377539
0.0168114
0.00381324
0.0163265
0.00384033
0.0158334
0.00385669
0.0153335
0.00386243
0.0148283
0.00385767
0.0143192
0.00384259
0.0138078
0.00381741
0.0132955
0.00378237
0.0127837
0.00373774
0.012274
0.00368379
0.0117677
0.00362078
0.0112662
0.00354899
0.0107711
0.00346865
0.0102837
0.00338002