/*--------------------------------*- C++ -*----------------------------------*\
  =========                 |
  \\      /  F ield         | OpenFOAM: The Open Source CFD Toolbox
   \\    /   O peration     | Website:  https://openfoam.org
    \\  /    A nd           | Version:  6.0
     \\/     M anipulation  |
\*---------------------------------------------------------------------------*/
FoamFile
{
    version     2.0;
    format      ascii;
    class       volScalarField;
    location    "13.755";
    object      p;
}
// * * * * * * * * * * * * * * * * * * * * * * * * * * * * * * * * * * * * * //

dimensions      [0 2 -2 0 0 0 0];

internalField   nonuniform List<scalar> 
2400
(
-0.40407
-0.390902
-0.382704
-0.376116
-0.36963
-0.363251
-0.357059
-0.351027
-0.345234
-0.340767
-0.417439
-0.403363
-0.394167
-0.386424
-0.378692
-0.37107
-0.363703
-0.356569
-0.349751
-0.344773
-0.434788
-0.419206
-0.408531
-0.399225
-0.38987
-0.380655
-0.371785
-0.363228
-0.355064
-0.349475
-0.456375
-0.438679
-0.426023
-0.414721
-0.403348
-0.392172
-0.381446
-0.371105
-0.36122
-0.35487
-0.482511
-0.462024
-0.44685
-0.43311
-0.419319
-0.405809
-0.392861
-0.380338
-0.368281
-0.360931
-0.513487
-0.489463
-0.471213
-0.454596
-0.438008
-0.421813
-0.406285
-0.391158
-0.376383
-0.367641
-0.549535
-0.521172
-0.499288
-0.479388
-0.45967
-0.440497
-0.422097
-0.403993
-0.385893
-0.375105
-0.590776
-0.557244
-0.531195
-0.507659
-0.484532
-0.462138
-0.440615
-0.419158
-0.396871
-0.382765
-0.637135
-0.597643
-0.566984
-0.539564
-0.51286
-0.487068
-0.462072
-0.436355
-0.407662
-0.387055
-0.688065
-0.642078
-0.60658
-0.575295
-0.545291
-0.516709
-0.489137
-0.460209
-0.426
-0.397001
-1.15987
-1.1431
-1.11379
-1.07429
-1.02683
-0.973639
-0.916791
-0.858178
-0.799456
-0.742173
-1.06318
-1.04815
-1.02172
-0.986054
-0.943272
-0.895456
-0.844562
-0.792348
-0.740342
-0.689868
-0.980302
-0.969036
-0.946842
-0.915717
-0.877702
-0.834813
-0.788952
-0.741836
-0.694953
-0.649534
-0.902473
-0.896132
-0.879116
-0.853218
-0.82034
-0.782407
-0.741267
-0.698619
-0.655964
-0.614529
-0.826431
-0.825273
-0.813793
-0.79352
-0.766144
-0.733423
-0.697082
-0.658744
-0.619904
-0.58179
-0.754423
-0.758094
-0.751974
-0.73731
-0.715539
-0.688179
-0.65674
-0.622653
-0.587314
-0.551863
-0.687902
-0.695696
-0.694393
-0.684993
-0.668679
-0.646706
-0.620292
-0.590525
-0.558508
-0.525101
-0.627309
-0.638457
-0.641298
-0.636655
-0.625518
-0.608921
-0.587781
-0.562686
-0.534051
-0.501674
-0.572468
-0.586328
-0.592735
-0.592425
-0.586302
-0.575307
-0.560195
-0.541093
-0.517183
-0.484746
-0.523349
-0.538559
-0.547295
-0.550264
-0.548391
-0.542715
-0.534202
-0.523248
-0.509036
-0.484909
-0.447141
-0.58172
-0.706719
-0.81991
-0.919029
-1.00228
-1.06845
-1.11693
-1.14771
-1.16149
-0.397918
-0.523331
-0.640018
-0.745684
-0.838202
-0.915897
-0.977645
-1.0229
-1.05171
-1.06469
-0.3317
-0.449771
-0.560464
-0.66145
-0.750637
-0.826345
-0.887388
-0.933118
-0.96344
-0.978805
-0.262834
-0.373487
-0.478266
-0.574875
-0.661254
-0.735719
-0.797016
-0.844363
-0.877477
-0.896575
-0.199879
-0.302659
-0.400994
-0.492614
-0.575522
-0.648095
-0.709075
-0.757599
-0.793239
-0.816004
-0.146137
-0.241187
-0.333014
-0.419305
-0.498177
-0.568139
-0.627988
-0.676854
-0.714232
-0.739986
-0.10165
-0.189559
-0.275285
-0.356276
-0.43085
-0.497712
-0.555761
-0.604167
-0.642408
-0.67027
-0.0647083
-0.145745
-0.226017
-0.302107
-0.372524
-0.436202
-0.49215
-0.539601
-0.578056
-0.607273
-0.0341541
-0.108135
-0.183524
-0.255236
-0.32184
-0.382455
-0.436205
-0.482416
-0.520644
-0.550655
-0.0172876
-0.0865629
-0.157162
-0.223673
-0.28538
-0.341695
-0.391869
-0.435375
-0.471879
-0.501199
0.527101
0.548091
0.570505
0.593483
0.61654
0.639013
0.659927
0.678692
0.700691
0.73969
0.500414
0.51864
0.538559
0.558623
0.578154
0.596422
0.612372
0.625447
0.64138
0.675123
0.466242
0.480734
0.49734
0.513573
0.528507
0.541368
0.551074
0.5572
0.565905
0.593195
0.424889
0.434787
0.44735
0.458907
0.468257
0.474618
0.476925
0.474983
0.475426
0.49514
0.37675
0.38135
0.389259
0.3954
0.398305
0.397218
0.391146
0.380218
0.371571
0.38276
0.322298
0.3211
0.323907
0.324028
0.319782
0.310492
0.295284
0.274696
0.256372
0.258283
0.262092
0.254845
0.252299
0.245965
0.234049
0.216021
0.191177
0.160539
0.132218
0.124302
0.19687
0.183599
0.175669
0.162603
0.142688
0.115626
0.0809281
0.0401475
0.00179381
-0.0162777
0.127442
0.108895
0.0957574
0.0756863
0.0475534
0.0113706
-0.0331353
-0.0838489
-0.13199
-0.160314
0.0522935
0.0313599
0.0134881
-0.0135566
-0.0496423
-0.0946442
-0.148579
-0.208701
-0.266149
-0.30474
0.380968
0.384398
0.394901
0.403212
0.409734
0.416195
0.424192
0.436096
0.454789
0.477382
0.429589
0.434309
0.446048
0.457434
0.467849
0.478472
0.490555
0.506143
0.528737
0.557675
0.46862
0.477077
0.491343
0.506176
0.520637
0.53546
0.551594
0.570745
0.596884
0.631444
0.500802
0.513315
0.530437
0.548554
0.566777
0.585524
0.605427
0.627814
0.656971
0.696267
0.526385
0.542584
0.562399
0.583439
0.60496
0.627136
0.650289
0.67535
0.706812
0.749841
0.545093
0.564373
0.586456
0.609876
0.634049
0.658948
0.6846
0.711549
0.744424
0.790066
0.556657
0.57824
0.601985
0.627083
0.653091
0.679811
0.707002
0.73485
0.768084
0.815117
0.56081
0.583786
0.608461
0.634419
0.661311
0.688795
0.71639
0.743975
0.776386
0.823515
0.557333
0.580704
0.605495
0.631413
0.658143
0.685215
0.711946
0.737976
0.768285
0.81418
0.546101
0.568814
0.592856
0.617786
0.643244
0.668655
0.693168
0.716268
0.743128
0.786397
0.335863
0.291013
0.239798
0.188014
0.136689
0.0865815
0.0385242
-0.00696064
-0.0495502
-0.0890417
0.340459
0.29279
0.23977
0.185185
0.131054
0.0784314
0.0281582
-0.0191331
-0.0630099
-0.103209
0.344094
0.290708
0.234095
0.176691
0.120214
0.0657168
0.0140801
-0.0340048
-0.0780702
-0.117855
0.346812
0.288376
0.228119
0.167796
0.108926
0.0526278
-0.000176568
-0.0487877
-0.0927583
-0.131881
0.348691
0.285843
0.22203
0.1588
0.0976321
0.0397076
-0.01404
-0.0629427
-0.106615
-0.144947
0.350697
0.283667
0.216373
0.150359
0.0870907
0.0277613
-0.0267278
-0.0757792
-0.119105
-0.156719
0.354484
0.283573
0.213
0.144364
0.0791206
0.0184342
-0.0368571
-0.0862485
-0.129559
-0.166925
0.362594
0.288151
0.214455
0.143161
0.0757259
0.0132772
-0.0434047
-0.0938873
-0.138063
-0.176143
0.377124
0.298487
0.220704
0.145512
0.0744048
0.0085382
-0.0512892
-0.104631
-0.151372
-0.191715
0.393112
0.307351
0.222373
0.140077
0.0620846
-0.0102971
-0.0761127
-0.134785
-0.186114
-0.230224
-0.125398
-0.158676
-0.189116
-0.217055
-0.242887
-0.267015
-0.289723
-0.311004
-0.331353
-0.341573
-0.13968
-0.172452
-0.20177
-0.227968
-0.251424
-0.272494
-0.291357
-0.307819
-0.321513
-0.325733
-0.153352
-0.184621
-0.211985
-0.235858
-0.256704
-0.274963
-0.290927
-0.30464
-0.316041
-0.321807
-0.16625
-0.195995
-0.221567
-0.243496
-0.262349
-0.278676
-0.292901
-0.305259
-0.315774
-0.322573
-0.178167
-0.206496
-0.230525
-0.250896
-0.26827
-0.283272
-0.296403
-0.307965
-0.317941
-0.325167
-0.188998
-0.216243
-0.239168
-0.258496
-0.274937
-0.289141
-0.301617
-0.312655
-0.32221
-0.329567
-0.198851
-0.225675
-0.248193
-0.267158
-0.283276
-0.297172
-0.309315
-0.319955
-0.329044
-0.336167
-0.208709
-0.236074
-0.259065
-0.278418
-0.294799
-0.308783
-0.320784
-0.331018
-0.339468
-0.345935
-0.226204
-0.255172
-0.279417
-0.299656
-0.316538
-0.330607
-0.342249
-0.351671
-0.358916
-0.363933
-0.267396
-0.298364
-0.323788
-0.344455
-0.361106
-0.374334
-0.384539
-0.391942
-0.39666
-0.398702
-0.397884
-0.366816
-0.350427
-0.341118
-0.334128
-0.328159
-0.322058
-0.313291
-0.298001
-0.284303
-0.395824
-0.368089
-0.353314
-0.344677
-0.337892
-0.331816
-0.325612
-0.317581
-0.305584
-0.297623
-0.392817
-0.368257
-0.355087
-0.347245
-0.340961
-0.335299
-0.329671
-0.323051
-0.314607
-0.310511
-0.389449
-0.367818
-0.356164
-0.349112
-0.343365
-0.338158
-0.333044
-0.327339
-0.320716
-0.317766
-0.386357
-0.367307
-0.357011
-0.350677
-0.34543
-0.340652
-0.336014
-0.331051
-0.32562
-0.322949
-0.384129
-0.367253
-0.358097
-0.352342
-0.347475
-0.343003
-0.338686
-0.334206
-0.329504
-0.326775
-0.383322
-0.368172
-0.359886
-0.354514
-0.349841
-0.345482
-0.34127
-0.336987
-0.332626
-0.329671
-0.384477
-0.370559
-0.36283
-0.357599
-0.35289
-0.348421
-0.344083
-0.339736
-0.335408
-0.332141
-0.38811
-0.37488
-0.367354
-0.361987
-0.356985
-0.352157
-0.347458
-0.342801
-0.338239
-0.334615
-0.39461
-0.38154
-0.37385
-0.368043
-0.362461
-0.357006
-0.351698
-0.346484
-0.341437
-0.337417
-0.332545
-0.280253
-0.249635
-0.208016
-0.175157
-0.143621
-0.117126
-0.0943026
-0.0759361
-0.0616722
-0.0511922
-0.0435974
-0.0379055
-0.0329604
-0.0278756
-0.0212759
-0.0142676
-0.00724412
-0.00424018
0.00214429
-0.338344
-0.282436
-0.25206
-0.210317
-0.17722
-0.145245
-0.11802
-0.094346
-0.0751756
-0.0603968
-0.0499171
-0.0428925
-0.0381124
-0.0339131
-0.0290556
-0.0221795
-0.0147002
-0.0072735
-0.00410075
0.00221738
-0.34607
-0.285274
-0.25499
-0.213039
-0.179578
-0.147142
-0.119177
-0.0946745
-0.074712
-0.0594014
-0.0488674
-0.0423368
-0.0383869
-0.0348636
-0.0301912
-0.0230429
-0.0151246
-0.00732321
-0.00398352
0.0022685
-0.35557
-0.288779
-0.25833
-0.216132
-0.182202
-0.149301
-0.120608
-0.0953124
-0.0745806
-0.0587246
-0.0480739
-0.0419429
-0.0387215
-0.0357944
-0.031268
-0.0238585
-0.0155381
-0.00739285
-0.00388884
0.00229749
-0.366596
-0.293005
-0.261991
-0.219549
-0.185067
-0.151712
-0.122317
-0.096274
-0.0748024
-0.05839
-0.0475553
-0.0417159
-0.0391074
-0.0366917
-0.0322768
-0.0246228
-0.0159393
-0.00748132
-0.00381524
0.00230534
-0.378767
-0.298039
-0.265884
-0.223231
-0.188139
-0.154352
-0.124294
-0.0975567
-0.0753803
-0.058404
-0.0473177
-0.0416546
-0.0395346
-0.0375433
-0.0332103
-0.0253332
-0.016327
-0.00758745
-0.00376177
0.00229276
-0.391694
-0.304192
-0.270073
-0.227188
-0.191438
-0.157242
-0.126565
-0.0991837
-0.0763352
-0.0587839
-0.0473708
-0.041757
-0.0399899
-0.0383333
-0.0340592
-0.0259873
-0.0167015
-0.00771147
-0.00372837
0.00226072
-0.405121
-0.312397
-0.275107
-0.231763
-0.195239
-0.160604
-0.12932
-0.101312
-0.0777916
-0.0596211
-0.047772
-0.0420433
-0.0404632
-0.0390399
-0.0348092
-0.0265832
-0.0170683
-0.00785781
-0.00371873
0.00220914
-0.416555
-0.322863
-0.281379
-0.237235
-0.199745
-0.16459
-0.132664
-0.104003
-0.079775
-0.0609234
-0.048528
-0.0425293
-0.0409804
-0.0396948
-0.0354901
-0.0271393
-0.0174322
-0.00802419
-0.00372867
0.00214075
-0.414957
-0.329861
-0.285949
-0.241415
-0.203178
-0.167669
-0.135243
-0.106057
-0.0812587
-0.061879
-0.0491056
-0.0430013
-0.041604
-0.0404935
-0.036268
-0.0277157
-0.0177604
-0.00815887
-0.00370612
0.00207381
-0.389616
-0.328121
-0.286118
-0.242486
-0.204181
-0.168766
-0.136117
-0.10658
-0.0813474
-0.0616068
-0.0487597
-0.043072
-0.0424406
-0.0419042
-0.0376421
-0.0286294
-0.018145
-0.00824901
-0.00356182
0.00200177
-0.373707
-0.323035
-0.281452
-0.239801
-0.202699
-0.168457
-0.136596
-0.107622
-0.0827176
-0.0631204
-0.0502576
-0.0444761
-0.0437087
-0.0429708
-0.0383931
-0.0290838
-0.0183917
-0.00842426
-0.00353783
0.00177387
-0.354809
-0.311428
-0.27121
-0.23321
-0.198855
-0.166734
-0.136442
-0.108661
-0.0845839
-0.0654525
-0.0526365
-0.046504
-0.0451241
-0.0437753
-0.0387476
-0.0292459
-0.0185248
-0.0086294
-0.00357199
0.00144893
-0.325048
-0.292163
-0.256301
-0.223417
-0.193172
-0.164088
-0.136041
-0.109937
-0.0870181
-0.0685144
-0.0557079
-0.0489845
-0.0466449
-0.0444118
-0.0388474
-0.0292262
-0.0185884
-0.00887205
-0.00364855
0.00103361
-0.285855
-0.265884
-0.237649
-0.210851
-0.185604
-0.160409
-0.135302
-0.111377
-0.0899539
-0.0722419
-0.0594107
-0.0518572
-0.0482072
-0.0448141
-0.0386423
-0.0290033
-0.0185837
-0.00916339
-0.00378614
0.000532463
-0.243855
-0.235507
-0.216606
-0.19645
-0.17648
-0.155657
-0.134025
-0.112705
-0.0930639
-0.0762959
-0.0634519
-0.0549299
-0.0497349
-0.0449887
-0.0381733
-0.0286194
-0.0185386
-0.00951155
-0.00399895
-2.63154e-05
-0.205283
-0.205008
-0.19498
-0.181485
-0.166607
-0.150114
-0.132116
-0.113606
-0.0959009
-0.0801713
-0.0673762
-0.0579195
-0.0511775
-0.0450577
-0.0376078
-0.0281933
-0.018506
-0.00991407
-0.00428582
-0.000590502
-0.173635
-0.178007
-0.174894
-0.167328
-0.157014
-0.144367
-0.129718
-0.113902
-0.0980891
-0.0833972
-0.0707352
-0.0605368
-0.0524883
-0.0451689
-0.0371459
-0.0278585
-0.0185324
-0.0103455
-0.00462224
-0.00109528
-0.150679
-0.157308
-0.158701
-0.155612
-0.148926
-0.139297
-0.127298
-0.113692
-0.0994755
-0.0856842
-0.0732067
-0.0625306
-0.0535665
-0.045371
-0.0368991
-0.0276872
-0.0186224
-0.0107465
-0.00495145
-0.00147924
-0.137803
-0.145302
-0.14896
-0.148398
-0.143885
-0.136058
-0.125633
-0.113365
-0.100141
-0.0869212
-0.074587
-0.0636756
-0.0542268
-0.0455569
-0.0368276
-0.027648
-0.0187196
-0.0110188
-0.0051814
-0.00169468
-0.453819
-0.466476
-0.473788
-0.476277
-0.474804
-0.470666
-0.465738
-0.462643
-0.466441
-0.489029
-0.374278
-0.387715
-0.398196
-0.40623
-0.412506
-0.417866
-0.4232
-0.429229
-0.436068
-0.449206
-0.309163
-0.322235
-0.333773
-0.343968
-0.352972
-0.360868
-0.367682
-0.373552
-0.378511
-0.388272
-0.253885
-0.265489
-0.276043
-0.285596
-0.294204
-0.301966
-0.309057
-0.315792
-0.322218
-0.330797
-0.207835
-0.217886
-0.22726
-0.235994
-0.244141
-0.251759
-0.258902
-0.265622
-0.271848
-0.2783
-0.170463
-0.17907
-0.187205
-0.194875
-0.20209
-0.208859
-0.215194
-0.221116
-0.22664
-0.231866
-0.140861
-0.148161
-0.155103
-0.161682
-0.167897
-0.17375
-0.179248
-0.184398
-0.189204
-0.193621
-0.118484
-0.124722
-0.130674
-0.136329
-0.14168
-0.146722
-0.151454
-0.155878
-0.159992
-0.163772
-0.102917
-0.10837
-0.113582
-0.118539
-0.123233
-0.127656
-0.131805
-0.13568
-0.139278
-0.142598
-0.0944608
-0.0994194
-0.104163
-0.108682
-0.112968
-0.117017
-0.120826
-0.124392
-0.127717
-0.130801
-0.0290605
-0.0932396
-0.155958
-0.210683
-0.260521
-0.306069
-0.346653
-0.38187
-0.41154
-0.435539
-0.0465963
-0.0962421
-0.143789
-0.184286
-0.220939
-0.255021
-0.286011
-0.313466
-0.337298
-0.35754
-0.057434
-0.0971045
-0.132191
-0.161974
-0.189068
-0.214416
-0.237744
-0.258801
-0.277621
-0.294355
-0.0622092
-0.0929794
-0.117813
-0.138991
-0.158912
-0.177936
-0.195749
-0.212193
-0.227307
-0.24118
-0.0614779
-0.0842696
-0.101783
-0.116997
-0.131868
-0.146426
-0.160296
-0.173341
-0.185586
-0.197076
-0.0566311
-0.0730639
-0.0858345
-0.0973167
-0.108804
-0.120222
-0.131255
-0.141785
-0.151821
-0.161381
-0.0502414
-0.0621686
-0.0719363
-0.0810415
-0.0902102
-0.0993657
-0.108299
-0.116923
-0.125229
-0.133212
-0.0441387
-0.0531014
-0.060949
-0.0684748
-0.0760391
-0.0835882
-0.0910003
-0.0982151
-0.105212
-0.111974
-0.0393163
-0.0464897
-0.0531642
-0.0596767
-0.066187
-0.0726651
-0.079044
-0.0852813
-0.0913528
-0.0972382
-0.0364746
-0.0428483
-0.0490099
-0.0550471
-0.0610278
-0.0669413
-0.0727512
-0.0784277
-0.0839496
-0.0892994
0.204427
0.205388
0.207796
0.211078
0.215553
0.218846
0.221305
0.211434
0.187602
0.0824673
0.196112
0.196627
0.197979
0.199527
0.201172
0.200407
0.19642
0.178264
0.141415
0.0427121
0.186198
0.186245
0.18646
0.186149
0.184893
0.180228
0.170668
0.147331
0.105708
0.0239814
0.174556
0.174091
0.173089
0.170853
0.166713
0.158531
0.144391
0.118462
0.075811
0.00750489
0.161242
0.16026
0.158067
0.154019
0.14731
0.136324
0.119031
0.0923137
0.0511614
-0.00635743
0.14657
0.145118
0.141883
0.136316
0.127626
0.114747
0.0958938
0.0697454
0.0323272
-0.0152397
0.131223
0.129397
0.125376
0.118721
0.108795
0.0949796
0.0760015
0.0515048
0.0190705
-0.0195663
0.116363
0.114292
0.109798
0.102547
0.0921145
0.0782022
0.060101
0.0378654
0.0103735
-0.0209907
0.103725
0.101538
0.0968578
0.0894327
0.0790279
0.0655462
0.0487025
0.0286797
0.00513088
-0.0209968
0.0957404
0.0935233
0.0888229
0.0814371
0.0712422
0.0582391
0.0423611
0.0238147
0.00259284
-0.0206197
0.240122
0.242201
0.247803
0.256531
0.270181
0.288309
0.315422
0.350387
0.402915
0.470213
0.237599
0.239606
0.245018
0.25342
0.266576
0.283896
0.309792
0.342664
0.391572
0.452784
0.234846
0.236775
0.241978
0.250016
0.26261
0.278984
0.30345
0.333693
0.378105
0.431084
0.231873
0.233722
0.238697
0.246337
0.258306
0.273606
0.296442
0.323529
0.362657
0.405224
0.228694
0.230462
0.235196
0.242408
0.25369
0.267799
0.288812
0.312234
0.345396
0.375302
0.225324
0.227014
0.231492
0.238251
0.248787
0.261604
0.280604
0.299887
0.326503
0.34139
0.221781
0.223398
0.227615
0.233905
0.243645
0.255092
0.271901
0.286625
0.306203
0.303569
0.218084
0.219644
0.22361
0.229438
0.238367
0.248416
0.262896
0.272732
0.284814
0.261843
0.214246
0.215763
0.219483
0.224853
0.232944
0.241573
0.253556
0.258205
0.262125
0.215091
0.210255
0.211657
0.215006
0.219742
0.226697
0.233561
0.242387
0.241405
0.235731
0.161625
0.251631
0.254076
0.260189
0.269871
0.284412
0.303315
0.329729
0.358392
0.396273
0.406457
0.251578
0.254034
0.260264
0.270108
0.285032
0.304568
0.332458
0.364015
0.407899
0.434477
0.251292
0.253723
0.259961
0.269794
0.284792
0.304514
0.333063
0.366496
0.414401
0.454522
0.250772
0.253178
0.259414
0.269229
0.284279
0.30417
0.333269
0.36839
0.419753
0.470743
0.250012
0.252391
0.258613
0.268396
0.283468
0.303487
0.333005
0.36954
0.423736
0.483298
0.249001
0.251348
0.257533
0.267247
0.282272
0.302312
0.332026
0.369547
0.42577
0.491801
0.247736
0.250044
0.256164
0.265768
0.280669
0.300602
0.33027
0.368298
0.42568
0.496131
0.246214
0.248476
0.254505
0.263955
0.278655
0.298348
0.327733
0.365775
0.423399
0.496208
0.244436
0.246644
0.252555
0.261808
0.276232
0.295547
0.32441
0.361955
0.418861
0.491943
0.242403
0.24455
0.250319
0.259331
0.273404
0.292198
0.320303
0.356824
0.41203
0.483281
0.206335
0.204922
0.201912
0.197122
0.190337
0.181339
0.169825
0.155614
0.138377
0.118263
0.211311
0.210091
0.207462
0.203193
0.196985
0.188502
0.177273
0.162958
0.144958
0.123334
0.218755
0.217884
0.215962
0.212703
0.207691
0.200387
0.190047
0.175966
0.157057
0.133074
0.226797
0.2264
0.225477
0.2237
0.220566
0.21528
0.206803
0.193795
0.174505
0.14784
0.234228
0.234382
0.234664
0.234739
0.234096
0.231691
0.226297
0.215621
0.19725
0.168138
0.240402
0.241125
0.242697
0.244819
0.247085
0.24827
0.247192
0.24035
0.224977
0.194344
0.245092
0.246349
0.249179
0.253353
0.258686
0.263898
0.268146
0.26664
0.256806
0.226211
0.248345
0.250062
0.254031
0.260104
0.268405
0.27776
0.28795
0.293139
0.29129
0.262071
0.250354
0.252437
0.257367
0.265067
0.276014
0.289282
0.305496
0.318499
0.32697
0.300182
0.251375
0.253708
0.259375
0.268324
0.281426
0.298036
0.319908
0.341356
0.363858
0.34698
0.103736
0.0976185
0.091348
0.0850302
0.0786489
0.0721944
0.0656828
0.0591394
0.052588
0.0460496
0.10724
0.100415
0.0934132
0.0864241
0.0793752
0.0722195
0.0649738
0.057675
0.0503563
0.0430452
0.114305
0.105967
0.0973224
0.0888947
0.0805138
0.0720275
0.0634338
0.0547867
0.0461317
0.0374994
0.125527
0.114849
0.103548
0.0928647
0.0824744
0.0720103
0.0614229
0.0507942
0.0401893
0.0296389
0.14172
0.127801
0.112615
0.0987157
0.0855549
0.0723885
0.0590815
0.0457644
0.0325331
0.0194121
0.163826
0.145732
0.125173
0.10691
0.0900968
0.0733908
0.0565345
0.0397452
0.0231592
0.00678239
0.192774
0.169707
0.142086
0.118132
0.0966035
0.075306
0.0538913
0.0327255
0.0119766
-0.00838972
0.228593
0.199891
0.163602
0.132759
0.105306
0.0781216
0.0510009
0.0245022
-0.00122678
-0.0262814
0.271162
0.235805
0.190186
0.15181
0.116939
0.0822743
0.0481548
0.0152507
-0.0162955
-0.046502
0.318924
0.275039
0.221483
0.174313
0.129428
0.0853813
0.043008
0.00283083
-0.0349442
-0.0701416
0.0395443
0.0330909
0.0267076
0.0204109
0.0142161
0.0081368
0.00218537
-0.00362742
-0.00929222
-0.0147997
0.0357674
0.0285481
0.0214117
0.0143808
0.00747652
0.00071755
-0.00587932
-0.0122999
-0.018532
-0.0245411
0.0289157
0.0204059
0.0119955
0.00370778
-0.00443596
-0.0124167
-0.0202176
-0.0278247
-0.0352275
-0.0423378
0.0191628
0.00878205
-0.00148131
-0.0116069
-0.0215773
-0.0313779
-0.0409957
-0.0504206
-0.059652
-0.0685573
0.006406
-0.00647624
-0.0192212
-0.0318167
-0.044253
-0.0565237
-0.0686269
-0.0805666
-0.0923769
-0.1041
-0.00940797
-0.0254232
-0.0412701
-0.0569619
-0.0725203
-0.0879704
-0.103336
-0.118624
-0.1339
-0.149861
-0.0284294
-0.0481699
-0.0676292
-0.0868336
-0.105832
-0.124708
-0.143591
-0.162598
-0.182113
-0.203745
-0.0507638
-0.0747526
-0.0983203
-0.121525
-0.144396
-0.166949
-0.189227
-0.211322
-0.234512
-0.260965
-0.0754003
-0.103073
-0.129705
-0.155579
-0.181047
-0.206495
-0.232273
-0.258713
-0.288031
-0.319352
-0.102639
-0.132416
-0.159651
-0.184752
-0.208395
-0.23152
-0.255224
-0.280981
-0.314425
-0.357607
-0.0278673
-0.0465437
-0.0628216
-0.0756565
-0.0844303
-0.0890529
-0.0898417
-0.0873438
-0.0821014
-0.074562
-0.0650293
-0.0540299
-0.042295
-0.0312317
-0.0220204
-0.0161484
-0.0128362
-0.0109981
-0.00751497
-0.00319484
-0.0391281
-0.0584706
-0.0740519
-0.0853926
-0.0923217
-0.0950582
-0.0941712
-0.0903651
-0.0841931
-0.0759849
-0.0658611
-0.0542346
-0.041821
-0.0301857
-0.0207296
-0.0151593
-0.0124604
-0.011102
-0.00785181
-0.00322651
-0.0596373
-0.0796228
-0.0934297
-0.101755
-0.105197
-0.104553
-0.100836
-0.0949563
-0.0874119
-0.0782671
-0.0672877
-0.0546828
-0.0411536
-0.0285464
-0.018659
-0.0135434
-0.0118185
-0.0111862
-0.00838122
-0.00319163
-0.0888384
-0.108485
-0.118983
-0.122493
-0.120721
-0.115424
-0.108131
-0.0998578
-0.0909069
-0.0808906
-0.0690621
-0.0553731
-0.040533
-0.0267722
-0.0163731
-0.0117325
-0.0110301
-0.011119
-0.00886511
-0.00300551
-0.125326
-0.142885
-0.148546
-0.145256
-0.13663
-0.125803
-0.114621
-0.104005
-0.0938965
-0.0832884
-0.0708301
-0.0562035
-0.0401516
-0.0253262
-0.0144678
-0.0101757
-0.010242
-0.0108154
-0.00909637
-0.00264389
-0.165344
-0.179273
-0.179089
-0.167197
-0.150783
-0.134262
-0.119347
-0.106703
-0.0957938
-0.0849281
-0.0721737
-0.0569606
-0.0400636
-0.0244959
-0.013343
-0.00919275
-0.00961047
-0.01031
-0.00900966
-0.00214857
-0.202987
-0.213474
-0.206919
-0.185593
-0.161803
-0.140202
-0.122088
-0.107834
-0.0964138
-0.0855309
-0.0727996
-0.0574271
-0.040185
-0.0243169
-0.0131011
-0.00890422
-0.00925498
-0.00972121
-0.00866778
-0.00158919
-0.234123
-0.242569
-0.229213
-0.199254
-0.169631
-0.14396
-0.123331
-0.107834
-0.096031
-0.0852115
-0.0727002
-0.0575155
-0.0403862
-0.0246373
-0.0135882
-0.00922861
-0.00920386
-0.00916729
-0.00818827
-0.00103047
-0.261073
-0.265711
-0.245173
-0.208681
-0.174996
-0.146248
-0.123744
-0.107247
-0.0950672
-0.0842723
-0.0720451
-0.057254
-0.0405584
-0.0252384
-0.0145283
-0.00996315
-0.00939487
-0.00870937
-0.00767491
-0.000515928
-0.290738
-0.282087
-0.254476
-0.214011
-0.17803
-0.147283
-0.123527
-0.106165
-0.093479
-0.0825487
-0.0705986
-0.0564055
-0.0405169
-0.026003
-0.0158499
-0.011067
-0.00979324
-0.00832819
-0.00714533
-4.14755e-05
-0.31941
-0.286731
-0.255927
-0.214922
-0.178953
-0.147673
-0.12325
-0.104932
-0.0913108
-0.0798314
-0.0680366
-0.0546941
-0.0401551
-0.0269914
-0.0176732
-0.0126177
-0.010399
-0.0080192
-0.00661273
0.000369126
-0.33309
-0.287369
-0.254824
-0.212918
-0.177074
-0.145817
-0.121512
-0.103128
-0.089378
-0.0778472
-0.0662607
-0.0534248
-0.0396505
-0.0272715
-0.0184804
-0.0133724
-0.0107079
-0.00784832
-0.00630458
0.000622448
-0.336432
-0.285467
-0.252354
-0.209811
-0.174432
-0.143543
-0.119636
-0.101387
-0.0876271
-0.0760743
-0.0646417
-0.0522082
-0.03909
-0.0274262
-0.0191436
-0.0140383
-0.0110047
-0.00771761
-0.00603371
0.000850303
-0.335489
-0.283219
-0.250213
-0.207445
-0.172607
-0.141996
-0.118284
-0.0999421
-0.0859849
-0.0743045
-0.063011
-0.0510336
-0.0386478
-0.0277437
-0.0199539
-0.014797
-0.0113429
-0.00760106
-0.0057669
0.0010671
-0.333259
-0.281255
-0.248507
-0.205775
-0.17148
-0.141026
-0.117303
-0.0986571
-0.0843364
-0.0724443
-0.0612976
-0.0498561
-0.0383044
-0.0282185
-0.0209067
-0.0156408
-0.0117154
-0.0074957
-0.00550381
0.00127265
-0.33063
-0.279636
-0.247191
-0.204652
-0.170872
-0.140479
-0.116594
-0.0974942
-0.0826916
-0.0705256
-0.0595284
-0.048681
-0.0380382
-0.028809
-0.0219546
-0.0165375
-0.0121116
-0.00740568
-0.00525088
0.00146376
-0.328275
-0.278462
-0.24637
-0.204112
-0.170775
-0.140344
-0.116158
-0.0964764
-0.0810917
-0.0685951
-0.057742
-0.0475298
-0.0378496
-0.0294978
-0.0230733
-0.0174695
-0.0125259
-0.00733361
-0.00501205
0.00163835
-0.326862
-0.277869
-0.246163
-0.204196
-0.171191
-0.140618
-0.115999
-0.0956277
-0.0795747
-0.0666955
-0.055974
-0.0464236
-0.0377422
-0.0302739
-0.0242455
-0.0184238
-0.0129539
-0.00728066
-0.00478945
0.00179512
-0.326907
-0.277952
-0.246636
-0.2049
-0.172092
-0.141277
-0.116113
-0.094968
-0.0781806
-0.0648739
-0.0542641
-0.0453844
-0.0377169
-0.0311216
-0.0254504
-0.0193854
-0.0133901
-0.00724783
-0.00458575
0.00193231
-0.328744
-0.278748
-0.247804
-0.206191
-0.173432
-0.142289
-0.11649
-0.0945183
-0.0769525
-0.0631815
-0.0526551
-0.0444347
-0.0377722
-0.0320237
-0.0266677
-0.0203408
-0.0138296
-0.00723554
-0.00440207
0.00204912
)
;

boundaryField
{
    inlet
    {
        type            freestreamPressure;
        freestreamValue uniform 0;
        supersonic      false;
        value           nonuniform List<scalar> 
40
(
0.204427
0.196112
0.186198
0.174556
0.161242
0.14657
0.131223
0.116363
0.103725
0.0957404
0.240122
0.237599
0.234846
0.231873
0.228694
0.225324
0.221781
0.218084
0.214246
0.210255
0.251631
0.251578
0.251292
0.250772
0.250012
0.249001
0.247736
0.246214
0.244436
0.242403
0.206335
0.211311
0.218755
0.226797
0.234228
0.240402
0.245092
0.248345
0.250354
0.251375
)
;
    }
    outlet
    {
        type            freestreamPressure;
        freestreamValue uniform 0;
        supersonic      false;
        value           nonuniform List<scalar> 
40
(
3.77575e-07
3.5967e-07
3.02783e-07
2.10702e-07
9.84257e-08
-4.00389e-09
-6.47508e-08
-7.08539e-08
-3.88749e-08
-5.34299e-09
4.34749e-08
7.53392e-08
1.13587e-07
1.55859e-07
1.99463e-07
2.41699e-07
2.80087e-07
3.12421e-07
3.37365e-07
3.56537e-07
3.46865e-08
4.44133e-08
4.31558e-08
3.50626e-08
2.33909e-08
1.15301e-08
2.80469e-09
6.43024e-11
5.37589e-09
1.98434e-08
-2.86112e-08
-2.32262e-07
-5.27773e-07
-7.58883e-07
-8.06685e-07
-6.73517e-07
-4.53204e-07
-2.4296e-07
-9.29082e-08
-5.33667e-09
)
;
    }
    top
    {
        type            symmetryPlane;
    }
    bottom
    {
        type            symmetryPlane;
    }
    cylinder
    {
        type            zeroGradient;
    }
    frontandback
    {
        type            empty;
    }
}


// ************************************************************************* //
