/*--------------------------------*- C++ -*----------------------------------*\
  =========                 |
  \\      /  F ield         | OpenFOAM: The Open Source CFD Toolbox
   \\    /   O peration     | Website:  https://openfoam.org
    \\  /    A nd           | Version:  6.0
     \\/     M anipulation  |
\*---------------------------------------------------------------------------*/
FoamFile
{
    version     2.0;
    format      ascii;
    class       volScalarField;
    location    "14";
    object      p;
}
// * * * * * * * * * * * * * * * * * * * * * * * * * * * * * * * * * * * * * //

dimensions      [0 2 -2 0 0 0 0];

internalField   nonuniform List<scalar> 
2400
(
-0.403418
-0.390258
-0.382054
-0.375457
-0.368961
-0.36257
-0.356366
-0.350319
-0.344508
-0.340024
-0.416635
-0.402583
-0.393389
-0.38564
-0.377899
-0.370264
-0.36288
-0.355725
-0.348882
-0.343877
-0.433842
-0.418296
-0.40763
-0.398322
-0.388959
-0.37973
-0.37084
-0.362257
-0.354062
-0.34844
-0.455298
-0.437647
-0.425007
-0.413707
-0.402327
-0.391137
-0.38039
-0.37002
-0.3601
-0.353712
-0.481318
-0.460881
-0.445729
-0.431994
-0.418199
-0.404676
-0.391705
-0.379152
-0.367057
-0.359667
-0.512191
-0.488221
-0.469997
-0.453388
-0.436798
-0.420591
-0.405041
-0.389883
-0.37507
-0.366289
-0.548149
-0.519842
-0.497986
-0.478098
-0.458379
-0.439196
-0.420775
-0.402643
-0.384505
-0.373682
-0.589313
-0.555838
-0.529818
-0.506295
-0.48317
-0.460768
-0.439226
-0.417743
-0.395422
-0.381284
-0.635606
-0.596168
-0.565539
-0.538135
-0.511434
-0.485636
-0.460625
-0.434885
-0.406162
-0.385527
-0.686479
-0.640543
-0.605076
-0.573807
-0.54381
-0.515224
-0.487642
-0.458696
-0.424461
-0.395436
-1.15816
-1.14136
-1.11203
-1.07252
-1.02507
-0.971881
-0.915051
-0.856466
-0.797778
-0.740537
-1.06149
-1.04644
-1.01999
-0.984317
-0.941537
-0.893733
-0.842861
-0.790678
-0.73871
-0.688281
-0.978656
-0.967361
-0.945148
-0.914013
-0.875999
-0.833121
-0.787281
-0.740196
-0.693351
-0.647977
-0.900877
-0.894504
-0.877465
-0.851552
-0.81867
-0.780744
-0.739622
-0.697001
-0.654382
-0.612991
-0.824893
-0.823699
-0.812191
-0.791897
-0.764512
-0.731792
-0.695463
-0.657146
-0.618337
-0.580262
-0.752945
-0.756577
-0.750424
-0.735735
-0.713947
-0.686581
-0.655146
-0.621073
-0.585757
-0.550339
-0.686482
-0.694236
-0.692897
-0.683467
-0.66713
-0.645143
-0.618725
-0.588962
-0.55696
-0.523577
-0.625945
-0.637052
-0.639855
-0.635178
-0.624013
-0.607395
-0.586242
-0.561142
-0.532511
-0.500146
-0.571154
-0.584974
-0.591343
-0.590997
-0.584842
-0.57382
-0.558688
-0.539572
-0.515655
-0.483219
-0.522082
-0.537254
-0.545951
-0.548885
-0.546978
-0.541271
-0.532731
-0.521754
-0.507525
-0.483387
-0.445974
-0.580493
-0.705432
-0.818563
-0.917621
-1.00081
-1.06693
-1.11535
-1.14608
-1.15982
-0.396767
-0.522121
-0.638748
-0.744354
-0.836812
-0.914448
-0.97614
-1.02134
-1.0501
-1.06304
-0.330582
-0.448597
-0.559232
-0.66016
-0.749288
-0.824938
-0.885925
-0.931602
-0.961874
-0.977196
-0.261757
-0.372356
-0.477081
-0.573635
-0.659958
-0.734367
-0.795609
-0.842903
-0.875966
-0.895019
-0.198841
-0.301572
-0.399856
-0.491424
-0.57428
-0.6468
-0.707727
-0.756199
-0.791789
-0.814508
-0.145134
-0.240139
-0.331919
-0.418162
-0.496986
-0.566898
-0.626697
-0.675514
-0.712844
-0.738551
-0.100678
-0.188545
-0.274227
-0.355175
-0.429703
-0.49652
-0.554523
-0.602882
-0.641077
-0.668893
-0.0637641
-0.144761
-0.224993
-0.301041
-0.371417
-0.435053
-0.490958
-0.538366
-0.576778
-0.605951
-0.0332345
-0.107178
-0.182529
-0.254203
-0.320769
-0.381345
-0.435056
-0.481226
-0.519413
-0.549382
-0.0163809
-0.0856223
-0.156186
-0.222663
-0.284335
-0.340614
-0.390753
-0.434222
-0.470688
-0.49997
0.527669
0.548664
0.571083
0.594067
0.617132
0.639614
0.660539
0.679316
0.701329
0.740339
0.501014
0.519247
0.539172
0.559244
0.578784
0.597063
0.613026
0.626116
0.642064
0.675818
0.466875
0.481375
0.497989
0.514232
0.529176
0.542051
0.551772
0.557915
0.566636
0.593937
0.425556
0.435463
0.448035
0.459603
0.468966
0.475342
0.477666
0.475744
0.476205
0.49593
0.377451
0.382061
0.389981
0.396134
0.399053
0.397984
0.391932
0.381026
0.372398
0.3836
0.323032
0.321848
0.324665
0.324801
0.320571
0.311301
0.296115
0.275552
0.25725
0.259174
0.26286
0.255629
0.253095
0.246777
0.23488
0.216874
0.192056
0.161445
0.133148
0.125244
0.197674
0.184419
0.176502
0.163454
0.143561
0.116524
0.0818543
0.0411039
0.00277683
-0.0152811
0.12828
0.10975
0.0966283
0.0765774
0.0484689
0.0123142
-0.0321599
-0.08284
-0.130952
-0.159262
0.0531657
0.0322496
0.0143961
-0.0126253
-0.0486835
-0.0936538
-0.147553
-0.207638
-0.265055
-0.303631
0.38122
0.384642
0.395139
0.403442
0.409955
0.416407
0.424396
0.436294
0.454988
0.477591
0.42987
0.434583
0.446318
0.457698
0.468106
0.478722
0.490797
0.506382
0.528978
0.557926
0.468932
0.477383
0.491646
0.506474
0.52093
0.535748
0.551877
0.571026
0.597168
0.631738
0.501145
0.513653
0.530774
0.548887
0.567106
0.58585
0.60575
0.628137
0.657298
0.696604
0.52676
0.542955
0.562769
0.583807
0.605327
0.627501
0.650653
0.675715
0.707182
0.750222
0.5455
0.564777
0.586861
0.610281
0.634453
0.659352
0.685005
0.711957
0.744838
0.79049
0.557096
0.578678
0.602424
0.627523
0.653532
0.680254
0.707448
0.7353
0.768543
0.815585
0.56128
0.584257
0.608935
0.634895
0.66179
0.689278
0.716877
0.744469
0.776888
0.824028
0.557836
0.581209
0.606003
0.631925
0.658659
0.685736
0.712474
0.738513
0.768832
0.814737
0.546637
0.569352
0.593399
0.618334
0.643798
0.669216
0.693738
0.716849
0.74372
0.786999
0.336086
0.291206
0.239961
0.18815
0.136798
0.0866638
0.0385806
-0.00692971
-0.0495443
-0.0890601
0.340678
0.292978
0.239928
0.185313
0.131153
0.0785023
0.0282017
-0.0191161
-0.0630184
-0.103242
0.344302
0.290884
0.234239
0.176805
0.120297
0.0657717
0.014107
-0.0340046
-0.0780953
-0.117903
0.347009
0.28854
0.22825
0.167895
0.108994
0.0526658
-0.000167132
-0.0488051
-0.0928002
-0.131945
0.348877
0.285994
0.222147
0.158883
0.0976833
0.0397281
-0.0140484
-0.0629776
-0.106674
-0.145026
0.350872
0.283805
0.216475
0.150426
0.0871251
0.0277645
-0.0267533
-0.0758303
-0.119178
-0.156809
0.354649
0.283699
0.213089
0.144417
0.0791402
0.0184227
-0.0368966
-0.0863124
-0.129644
-0.167024
0.362751
0.288269
0.214535
0.143205
0.0757361
0.0132567
-0.0434525
-0.0939584
-0.138153
-0.176247
0.377282
0.298605
0.220783
0.145555
0.0744146
0.00851741
-0.0513372
-0.104703
-0.151463
-0.19182
0.39328
0.307478
0.222462
0.140129
0.062102
-0.0103115
-0.0761559
-0.134853
-0.186204
-0.230331
-0.12544
-0.158742
-0.189204
-0.217164
-0.243018
-0.267167
-0.289898
-0.311205
-0.331582
-0.341833
-0.139736
-0.172529
-0.201866
-0.22808
-0.251551
-0.272634
-0.291509
-0.307984
-0.321694
-0.325932
-0.153421
-0.184708
-0.212087
-0.235972
-0.256825
-0.275089
-0.291057
-0.304775
-0.316183
-0.321959
-0.166332
-0.196092
-0.221674
-0.243609
-0.262464
-0.27879
-0.293012
-0.305368
-0.315884
-0.322687
-0.178261
-0.206601
-0.230636
-0.251009
-0.268379
-0.283375
-0.296499
-0.308054
-0.318027
-0.325253
-0.189101
-0.216354
-0.239282
-0.258608
-0.275044
-0.289239
-0.301705
-0.312736
-0.322285
-0.32964
-0.198962
-0.225791
-0.24831
-0.267272
-0.283384
-0.297272
-0.309406
-0.320039
-0.329123
-0.336245
-0.208824
-0.236194
-0.259186
-0.278537
-0.294914
-0.308892
-0.320888
-0.331119
-0.339568
-0.346034
-0.22632
-0.255295
-0.279544
-0.299783
-0.316666
-0.330735
-0.342379
-0.351804
-0.359054
-0.364076
-0.267518
-0.298495
-0.323927
-0.3446
-0.361257
-0.374491
-0.384706
-0.392122
-0.396856
-0.398913
-0.398106
-0.366961
-0.350524
-0.341192
-0.334199
-0.328244
-0.322175
-0.313453
-0.298218
-0.284579
-0.396046
-0.368229
-0.353403
-0.344742
-0.337953
-0.331892
-0.325717
-0.317729
-0.305785
-0.297878
-0.393025
-0.368379
-0.355157
-0.347291
-0.341002
-0.335354
-0.329754
-0.323174
-0.314777
-0.310734
-0.389622
-0.367906
-0.356201
-0.349125
-0.343373
-0.338176
-0.333088
-0.327418
-0.320838
-0.317937
-0.386471
-0.367341
-0.356997
-0.350639
-0.345386
-0.340617
-0.336
-0.331067
-0.325673
-0.323044
-0.384159
-0.367214
-0.358013
-0.352236
-0.347362
-0.342896
-0.338594
-0.334138
-0.329465
-0.32677
-0.383245
-0.368038
-0.359714
-0.354321
-0.34964
-0.345284
-0.341081
-0.336815
-0.332475
-0.329543
-0.384273
-0.370314
-0.362553
-0.357304
-0.352586
-0.348115
-0.343782
-0.339443
-0.335126
-0.331872
-0.387764
-0.374509
-0.36696
-0.361577
-0.356565
-0.351732
-0.347032
-0.342374
-0.337814
-0.334192
-0.394112
-0.381035
-0.37333
-0.36751
-0.361917
-0.356455
-0.351139
-0.345917
-0.340862
-0.336833
-0.33174
-0.279312
-0.248668
-0.207183
-0.174663
-0.14356
-0.117434
-0.0947638
-0.0762834
-0.0617217
-0.0509123
-0.0430937
-0.0372941
-0.0324285
-0.0277137
-0.0216668
-0.014979
-0.00769879
-0.00449985
0.00219362
-0.33736
-0.281296
-0.250914
-0.209381
-0.176741
-0.145331
-0.118584
-0.0951145
-0.0758015
-0.0606034
-0.0496035
-0.0421708
-0.0372127
-0.0331742
-0.0288434
-0.0226403
-0.0155097
-0.00780781
-0.0043882
0.0022658
-0.344928
-0.283961
-0.253689
-0.212014
-0.179115
-0.147358
-0.119966
-0.0957153
-0.075589
-0.059753
-0.0485232
-0.0414098
-0.037216
-0.0339341
-0.0299368
-0.0235699
-0.016023
-0.00793047
-0.00429678
0.00231452
-0.354297
-0.287325
-0.256903
-0.215035
-0.181751
-0.149624
-0.121584
-0.0965847
-0.0756763
-0.0592071
-0.0477048
-0.0408291
-0.0373021
-0.034693
-0.0309788
-0.0244464
-0.0165154
-0.00806595
-0.0042258
0.00233956
-0.36522
-0.291441
-0.260467
-0.218396
-0.184624
-0.152117
-0.123441
-0.0977342
-0.076082
-0.0589882
-0.0471686
-0.0404384
-0.0374662
-0.0354381
-0.031959
-0.0252654
-0.0169856
-0.00821313
-0.00417374
0.00234224
-0.377315
-0.296398
-0.264292
-0.222035
-0.187697
-0.154812
-0.125525
-0.0991606
-0.0768084
-0.0591025
-0.0469219
-0.0402398
-0.0377015
-0.0361578
-0.0328689
-0.0260231
-0.0174322
-0.00837083
-0.00413953
0.00232359
-0.390189
-0.302506
-0.268441
-0.225963
-0.190988
-0.157727
-0.127861
-0.100887
-0.0778768
-0.059568
-0.0469776
-0.0402356
-0.0379981
-0.0368367
-0.0336976
-0.026716
-0.0178553
-0.0085392
-0.00412313
0.00228473
-0.403585
-0.310693
-0.273457
-0.230514
-0.194762
-0.161076
-0.130631
-0.103066
-0.0794106
-0.0604792
-0.0473991
-0.0404551
-0.0383532
-0.0374547
-0.0344282
-0.0273389
-0.0182586
-0.00872215
-0.00412812
0.00222573
-0.415006
-0.321165
-0.279731
-0.235966
-0.199227
-0.165015
-0.133947
-0.105765
-0.0814399
-0.0618429
-0.0481887
-0.0409075
-0.038787
-0.0380395
-0.0350895
-0.0279118
-0.0186495
-0.00891877
-0.00415067
0.00214957
-0.413385
-0.328173
-0.284323
-0.240165
-0.202667
-0.1681
-0.136542
-0.107851
-0.0829685
-0.0628357
-0.0487582
-0.0412998
-0.0392932
-0.0387582
-0.0358588
-0.0285218
-0.0190152
-0.0090872
-0.00414098
0.0020754
-0.387989
-0.326415
-0.284504
-0.241284
-0.203755
-0.169317
-0.137558
-0.108523
-0.0831848
-0.062624
-0.0483367
-0.0411326
-0.0398368
-0.0399958
-0.0372381
-0.0295322
-0.0194892
-0.00924282
-0.0040191
0.0019946
-0.37216
-0.32147
-0.280032
-0.238791
-0.202414
-0.169068
-0.138018
-0.109484
-0.084444
-0.0640223
-0.0497296
-0.0424495
-0.041057
-0.0410767
-0.0380511
-0.0300426
-0.0197614
-0.00943764
-0.00399819
0.00175228
-0.353426
-0.310073
-0.270037
-0.232422
-0.198699
-0.167351
-0.13775
-0.110326
-0.0860845
-0.0661612
-0.0520043
-0.0444858
-0.042565
-0.0419966
-0.0384914
-0.0302323
-0.019882
-0.00963459
-0.00402437
0.00141003
-0.323866
-0.291034
-0.255364
-0.222822
-0.193101
-0.164647
-0.137159
-0.111328
-0.0882307
-0.0690038
-0.0550014
-0.0470581
-0.044276
-0.04281
-0.0386849
-0.0302146
-0.0199032
-0.00984834
-0.00408519
0.00097565
-0.284864
-0.264961
-0.236906
-0.210396
-0.185561
-0.16085
-0.136167
-0.112437
-0.0908386
-0.0725074
-0.0586768
-0.0501178
-0.0461318
-0.0434492
-0.0385727
-0.0299588
-0.0198198
-0.010087
-0.00419858
0.000455552
-0.243021
-0.234748
-0.216002
-0.196077
-0.176415
-0.155943
-0.134612
-0.113419
-0.0936217
-0.0763603
-0.0627424
-0.0534555
-0.0480305
-0.0438992
-0.0381848
-0.0295047
-0.0196613
-0.010361
-0.00438044
-0.000119749
-0.204562
-0.204363
-0.194463
-0.181146
-0.16649
-0.15024
-0.132445
-0.11401
-0.096177
-0.080081
-0.066731
-0.0567396
-0.0498612
-0.0442429
-0.0376809
-0.028983
-0.0194946
-0.0106768
-0.00463379
-0.000695686
-0.172992
-0.177435
-0.174426
-0.166995
-0.156839
-0.144357
-0.129839
-0.114065
-0.0981543
-0.0832054
-0.0701689
-0.0596226
-0.0515106
-0.0445895
-0.0372622
-0.0285499
-0.019389
-0.0110226
-0.00493922
-0.00120604
-0.150083
-0.156778
-0.158257
-0.155272
-0.148702
-0.139188
-0.127276
-0.113693
-0.099405
-0.0854359
-0.0727088
-0.0618116
-0.0528327
-0.0449612
-0.0370438
-0.0283004
-0.0193732
-0.0113533
-0.00524464
-0.00159002
-0.137231
-0.144791
-0.148524
-0.148049
-0.143631
-0.135894
-0.125535
-0.113283
-0.100003
-0.0866495
-0.0741315
-0.0630641
-0.0536242
-0.045238
-0.0369865
-0.0282165
-0.0194091
-0.0115835
-0.00546165
-0.00180302
-0.452618
-0.465243
-0.472521
-0.474976
-0.473466
-0.469292
-0.464327
-0.461193
-0.464954
-0.4875
-0.373162
-0.386575
-0.39703
-0.405036
-0.411284
-0.416611
-0.421911
-0.427903
-0.434704
-0.447801
-0.308126
-0.321182
-0.332703
-0.342881
-0.351865
-0.359739
-0.366528
-0.37237
-0.3773
-0.387028
-0.252922
-0.264517
-0.275062
-0.284605
-0.293202
-0.300952
-0.308029
-0.314747
-0.321154
-0.329713
-0.20694
-0.216988
-0.226358
-0.235089
-0.243233
-0.250846
-0.257984
-0.264697
-0.270915
-0.277358
-0.16963
-0.178238
-0.186374
-0.194045
-0.201262
-0.208032
-0.214368
-0.220292
-0.225816
-0.231042
-0.14008
-0.147384
-0.15433
-0.160914
-0.167134
-0.172993
-0.178496
-0.183652
-0.188464
-0.192886
-0.117747
-0.12399
-0.129948
-0.13561
-0.140968
-0.146018
-0.150758
-0.155191
-0.159314
-0.163103
-0.102212
-0.107671
-0.11289
-0.117855
-0.122557
-0.126989
-0.131148
-0.135032
-0.138641
-0.141972
-0.0937737
-0.0987388
-0.10349
-0.108016
-0.112311
-0.11637
-0.120189
-0.123766
-0.127101
-0.130198
-0.0281481
-0.0922958
-0.154988
-0.209685
-0.259495
-0.305015
-0.345572
-0.38076
-0.410401
-0.43437
-0.0456952
-0.0953148
-0.142843
-0.18332
-0.219952
-0.254013
-0.284983
-0.312416
-0.336227
-0.356447
-0.056548
-0.0961965
-0.131269
-0.161039
-0.188118
-0.213451
-0.236765
-0.257807
-0.276614
-0.293333
-0.0613425
-0.0920956
-0.116921
-0.13809
-0.158002
-0.177016
-0.19482
-0.211256
-0.226361
-0.240225
-0.0606355
-0.0834152
-0.100924
-0.116134
-0.131
-0.145552
-0.159417
-0.172458
-0.184699
-0.196185
-0.0558169
-0.0722422
-0.0850111
-0.0964917
-0.107976
-0.119392
-0.130423
-0.140952
-0.150988
-0.160547
-0.0494569
-0.06138
-0.0711475
-0.0802528
-0.0894211
-0.0985764
-0.10751
-0.116136
-0.124443
-0.132429
-0.0433823
-0.0523434
-0.0601917
-0.0677185
-0.0752838
-0.0828344
-0.0902485
-0.0974659
-0.104466
-0.111232
-0.0385832
-0.0457564
-0.052432
-0.0589461
-0.0654583
-0.0719388
-0.0783206
-0.0845615
-0.0906372
-0.0965275
-0.0357556
-0.0421299
-0.0482929
-0.054332
-0.060315
-0.0662313
-0.0720446
-0.077725
-0.0832514
-0.0886064
0.20501
0.205973
0.208385
0.211674
0.21616
0.219469
0.221951
0.212115
0.188332
0.0832908
0.196706
0.197222
0.198579
0.200135
0.201792
0.201044
0.197081
0.178961
0.142163
0.0435423
0.186802
0.186851
0.187072
0.186768
0.185525
0.180878
0.171343
0.14804
0.106466
0.0248057
0.175173
0.174709
0.173713
0.171486
0.167358
0.159193
0.145077
0.11918
0.0765721
0.00832007
0.161872
0.160891
0.158704
0.154664
0.147966
0.136997
0.119727
0.0930368
0.0519215
-0.00555433
0.147211
0.145762
0.142532
0.136972
0.128294
0.11543
0.0965956
0.0704705
0.0330818
-0.0144528
0.131876
0.130053
0.126036
0.119388
0.109472
0.0956691
0.0767069
0.0522285
0.0198158
-0.0187987
0.117026
0.114958
0.110467
0.103222
0.0927982
0.0788961
0.0608072
0.038585
0.0111076
-0.0202431
0.104397
0.102212
0.0975343
0.0901142
0.079716
0.0662423
0.0494076
0.0293941
0.00585419
-0.0202666
0.0964171
0.0942013
0.0895035
0.0821219
0.0719325
0.0589358
0.0430648
0.0245251
0.00330884
-0.0199006
0.240641
0.242721
0.248324
0.257052
0.270704
0.288835
0.315951
0.350922
0.403457
0.470768
0.238125
0.240132
0.245546
0.253949
0.267108
0.284431
0.310333
0.343213
0.392134
0.453364
0.235378
0.237308
0.242512
0.250552
0.26315
0.279529
0.304003
0.334258
0.378686
0.43169
0.232411
0.234261
0.239239
0.246882
0.258855
0.274162
0.297007
0.324108
0.363257
0.405855
0.229239
0.231008
0.235744
0.24296
0.254247
0.268365
0.289389
0.312829
0.346015
0.375959
0.225876
0.227566
0.232047
0.23881
0.249352
0.262179
0.281193
0.300496
0.32714
0.342073
0.222339
0.223957
0.228176
0.234471
0.244219
0.255676
0.272501
0.287249
0.306859
0.304279
0.218647
0.220209
0.224178
0.230012
0.238948
0.24901
0.263507
0.27337
0.285488
0.26258
0.214815
0.216333
0.220057
0.225433
0.233533
0.242176
0.254178
0.258858
0.262819
0.215858
0.21083
0.212234
0.215586
0.220329
0.227293
0.234173
0.243021
0.242072
0.236443
0.162422
0.252087
0.254531
0.260641
0.270317
0.284851
0.303742
0.33014
0.358778
0.396626
0.406754
0.25204
0.254495
0.260722
0.270562
0.285478
0.305004
0.33288
0.364415
0.408271
0.434803
0.251759
0.25419
0.260425
0.270255
0.285247
0.30496
0.333497
0.366912
0.414792
0.454874
0.251247
0.253651
0.259885
0.269697
0.284742
0.304626
0.333714
0.36882
0.420163
0.471121
0.250492
0.252871
0.259091
0.268871
0.283939
0.303952
0.333462
0.369985
0.424164
0.483702
0.249488
0.251835
0.258018
0.26773
0.282752
0.302787
0.332495
0.370006
0.426216
0.49223
0.248229
0.250537
0.256656
0.266259
0.281157
0.301087
0.330751
0.368773
0.426146
0.496584
0.246714
0.248976
0.255004
0.264453
0.279152
0.298843
0.328226
0.366264
0.423884
0.496686
0.244942
0.24715
0.253061
0.262314
0.276738
0.296053
0.324915
0.362459
0.419365
0.492447
0.242916
0.245063
0.250832
0.259844
0.273919
0.292714
0.320819
0.357344
0.412553
0.48381
0.206677
0.205262
0.202248
0.197453
0.190661
0.181655
0.170131
0.15591
0.138663
0.118542
0.211658
0.210437
0.207804
0.203529
0.197313
0.18882
0.17758
0.163252
0.14524
0.123605
0.219112
0.218239
0.216313
0.213047
0.208026
0.200711
0.190356
0.17626
0.157333
0.133333
0.227166
0.226767
0.225839
0.224055
0.22091
0.215611
0.207118
0.19409
0.174777
0.148088
0.234611
0.234763
0.23504
0.235107
0.234453
0.232033
0.22662
0.215921
0.197521
0.168378
0.240799
0.24152
0.243088
0.245201
0.247456
0.248625
0.247526
0.240659
0.225252
0.194581
0.245503
0.246758
0.249583
0.253749
0.259072
0.264268
0.268494
0.266961
0.25709
0.22645
0.248769
0.250485
0.254449
0.260515
0.268805
0.278145
0.288314
0.293475
0.291586
0.262316
0.25079
0.252872
0.257797
0.265491
0.276428
0.289682
0.305876
0.318851
0.327282
0.300435
0.251823
0.254154
0.259818
0.268761
0.281854
0.298451
0.320305
0.341727
0.364192
0.34725
0.10401
0.0978919
0.0916211
0.0853034
0.0789227
0.0724692
0.0659591
0.0594178
0.052869
0.046334
0.107504
0.100677
0.0936743
0.0866848
0.0796358
0.0724806
0.0652357
0.0579385
0.0506219
0.0433136
0.114552
0.106211
0.0975646
0.0891356
0.0807535
0.0722664
0.0636724
0.0550255
0.0463714
0.0377406
0.125757
0.115073
0.103769
0.0930826
0.0826894
0.0722226
0.0616331
0.0510028
0.0403967
0.0298457
0.141934
0.128007
0.112815
0.098911
0.085745
0.0725736
0.0592619
0.0459406
0.0327054
0.0195809
0.164029
0.145924
0.125356
0.107085
0.0902643
0.0735504
0.0566865
0.0398897
0.0232965
0.00691246
0.192972
0.16989
0.142256
0.118292
0.096752
0.0754435
0.0540179
0.0328411
0.0120812
-0.00829649
0.228791
0.20007
0.163764
0.132907
0.105439
0.0782409
0.0511057
0.0245923
-0.00115164
-0.0262219
0.271364
0.235984
0.190345
0.151951
0.117061
0.0823788
0.0482411
0.0153187
-0.0162464
-0.0464727
0.31913
0.275218
0.221637
0.174445
0.129538
0.0854694
0.0430746
0.00287591
-0.0349209
-0.0701409
0.0398325
0.0333838
0.0270058
0.0207151
0.014527
0.00845528
0.00251223
-0.00329134
-0.00894613
-0.0144428
0.0360392
0.028824
0.0216924
0.0146671
0.00776915
0.00101729
-0.00557173
-0.0119837
-0.0182066
-0.0242058
0.029159
0.0206521
0.0122451
0.00396163
-0.0041772
-0.0121524
-0.019947
-0.027547
-0.0349423
-0.0420447
0.0193696
0.00898941
-0.00127281
-0.0113967
-0.0213649
-0.0311627
-0.0407773
-0.0501987
-0.0594262
-0.068328
0.00657163
-0.00631339
-0.0190609
-0.0316586
-0.044097
-0.0563698
-0.0684753
-0.0804177
-0.0922312
-0.103959
-0.00928504
-0.0253075
-0.0411618
-0.0568616
-0.0724286
-0.0878883
-0.103265
-0.118565
-0.133856
-0.149834
-0.0283479
-0.048101
-0.0675737
-0.086793
-0.105808
-0.124703
-0.143608
-0.162642
-0.182185
-0.203852
-0.050721
-0.0747279
-0.0983157
-0.121543
-0.144439
-0.167022
-0.189333
-0.211468
-0.234699
-0.261207
-0.0753922
-0.103088
-0.129746
-0.155649
-0.18115
-0.206636
-0.232459
-0.25895
-0.288326
-0.319717
-0.102662
-0.132464
-0.159726
-0.184857
-0.208533
-0.231695
-0.255443
-0.281254
-0.314765
-0.358033
-0.0274819
-0.0460996
-0.0623029
-0.0750481
-0.0837256
-0.0882669
-0.0890257
-0.0866005
-0.0815815
-0.0744344
-0.0653924
-0.0548337
-0.0432951
-0.0320752
-0.0223429
-0.0158169
-0.0120762
-0.0103505
-0.00736474
-0.00325155
-0.0387657
-0.0580433
-0.073535
-0.0847609
-0.0915581
-0.0941707
-0.0932156
-0.0894673
-0.0835453
-0.0758041
-0.0662746
-0.0551833
-0.043013
-0.0311922
-0.0211015
-0.0147456
-0.0115704
-0.0103645
-0.00769418
-0.00330575
-0.0593235
-0.0792367
-0.0929294
-0.101094
-0.104336
-0.103485
-0.0996216
-0.0937637
-0.086512
-0.077968
-0.0677703
-0.0558725
-0.0426769
-0.0298417
-0.0191333
-0.0130141
-0.0107318
-0.010305
-0.00820635
-0.00330212
-0.0886062
-0.10818
-0.118535
-0.121823
-0.119751
-0.114116
-0.106553
-0.0982396
-0.0896309
-0.0803939
-0.0695978
-0.0568455
-0.0424607
-0.0284244
-0.0169897
-0.0111034
-0.00975585
-0.0100908
-0.00866642
-0.00314035
-0.125219
-0.142718
-0.148213
-0.144632
-0.135581
-0.124251
-0.112636
-0.101886
-0.0921589
-0.0825187
-0.071363
-0.0579227
-0.04246
-0.0273186
-0.0152367
-0.00950183
-0.00885964
-0.00968723
-0.00887524
-0.002787
-0.165405
-0.179309
-0.178954
-0.166708
-0.149737
-0.132533
-0.117007
-0.104113
-0.0935968
-0.083849
-0.0726274
-0.0588229
-0.0426393
-0.0267341
-0.0142386
-0.00853982
-0.00823051
-0.00915671
-0.00877703
-0.0022836
-0.203237
-0.213756
-0.20705
-0.185323
-0.160861
-0.138422
-0.119535
-0.104915
-0.0938581
-0.0841673
-0.0731127
-0.0593049
-0.0428711
-0.0266645
-0.0140697
-0.00832126
-0.00797674
-0.00861828
-0.0084409
-0.00170476
-0.234533
-0.243089
-0.229624
-0.199238
-0.168868
-0.142254
-0.120737
-0.10477
-0.0932698
-0.083637
-0.0728491
-0.0593053
-0.0430379
-0.0269628
-0.0145683
-0.00873881
-0.00809068
-0.00817017
-0.00798425
-0.00112108
-0.261581
-0.266412
-0.245814
-0.208893
-0.174432
-0.144694
-0.12124
-0.104201
-0.0922466
-0.0825758
-0.0720408
-0.0588964
-0.0430753
-0.0274462
-0.0154703
-0.00956985
-0.00847248
-0.0078472
-0.00750556
-0.000580422
-0.291267
-0.282862
-0.255225
-0.214352
-0.177619
-0.145911
-0.121225
-0.103308
-0.0907782
-0.0808557
-0.0704771
-0.0578482
-0.0427931
-0.0279885
-0.0166956
-0.0107688
-0.00908416
-0.00762668
-0.0070213
-7.98777e-05
-0.319843
-0.287384
-0.256547
-0.215183
-0.17857
-0.146482
-0.121288
-0.102507
-0.0889995
-0.0783393
-0.0678601
-0.0558609
-0.0420327
-0.0286018
-0.0183432
-0.0124148
-0.00992936
-0.00750339
-0.00654387
0.000354046
-0.333495
-0.287972
-0.255382
-0.213129
-0.176686
-0.144693
-0.119699
-0.100906
-0.0872628
-0.076474
-0.0660851
-0.0544764
-0.041335
-0.0286881
-0.0190548
-0.0132175
-0.0103656
-0.0074368
-0.00626972
0.00062016
-0.336819
-0.286019
-0.252835
-0.209943
-0.173999
-0.142443
-0.117928
-0.0993332
-0.0856905
-0.074827
-0.0644965
-0.0531842
-0.0406171
-0.0286721
-0.0196273
-0.0139201
-0.0107715
-0.00739946
-0.00603074
0.000858385
-0.335822
-0.283677
-0.250582
-0.207482
-0.172137
-0.140952
-0.11673
-0.0981064
-0.0842627
-0.0731941
-0.0628816
-0.0519025
-0.0399848
-0.0287994
-0.020345
-0.0147231
-0.011225
-0.00738008
-0.00579684
0.00108463
-0.333502
-0.281577
-0.248731
-0.205703
-0.170987
-0.140074
-0.115955
-0.0970911
-0.0828659
-0.0714828
-0.0611681
-0.0505825
-0.0394144
-0.0290635
-0.0212049
-0.0156205
-0.0117193
-0.00737558
-0.00556768
0.00129869
-0.330747
-0.279787
-0.247243
-0.204459
-0.170363
-0.139645
-0.115487
-0.0962343
-0.0815001
-0.0697232
-0.0593888
-0.0492392
-0.0388944
-0.0294302
-0.022162
-0.0165774
-0.0122396
-0.00738735
-0.00534904
0.0014971
-0.328238
-0.278415
-0.246229
-0.203789
-0.170256
-0.139647
-0.115318
-0.0955488
-0.0801989
-0.0679599
-0.0575845
-0.0478991
-0.0384313
-0.0298872
-0.0231937
-0.0175746
-0.0127778
-0.0074163
-0.00514437
0.00167761
-0.326645
-0.277603
-0.245814
-0.20374
-0.17067
-0.140074
-0.115445
-0.0950494
-0.0789936
-0.0662325
-0.0557919
-0.046587
-0.0380336
-0.0304275
-0.0242843
-0.018598
-0.0133278
-0.00746242
-0.00495546
0.00183886
-0.326495
-0.277457
-0.246075
-0.204311
-0.171575
-0.140895
-0.115852
-0.094745
-0.0779159
-0.0645849
-0.0540521
-0.0453297
-0.037708
-0.0310401
-0.0254145
-0.0196314
-0.0138822
-0.00752532
-0.00478445
0.00197918
-0.328132
-0.278026
-0.247034
-0.205475
-0.172924
-0.14207
-0.116521
-0.0946457
-0.0770002
-0.0630646
-0.0524098
-0.0441554
-0.03746
-0.0317121
-0.0265646
-0.0206596
-0.0144348
-0.00760436
-0.0046321
0.0020979
)
;

boundaryField
{
    inlet
    {
        type            freestreamPressure;
        freestreamValue uniform 0;
        supersonic      false;
        value           nonuniform List<scalar> 
40
(
0.20501
0.196706
0.186802
0.175173
0.161872
0.147211
0.131876
0.117026
0.104397
0.0964171
0.240641
0.238125
0.235378
0.232411
0.229239
0.225876
0.222339
0.218647
0.214815
0.21083
0.252087
0.25204
0.251759
0.251247
0.250492
0.249488
0.248229
0.246714
0.244942
0.242916
0.206677
0.211658
0.219112
0.227166
0.234611
0.240799
0.245503
0.248769
0.25079
0.251823
)
;
    }
    outlet
    {
        type            freestreamPressure;
        freestreamValue uniform 0;
        supersonic      false;
        value           nonuniform List<scalar> 
40
(
5.13603e-07
4.70617e-07
3.7977e-07
2.50161e-07
1.03695e-07
-2.20382e-08
-9.09425e-08
-9.19791e-08
-4.88766e-08
-6.61913e-09
1.1989e-07
1.71612e-07
2.27884e-07
2.854e-07
3.40819e-07
3.91038e-07
4.33428e-07
4.65792e-07
4.872e-07
5.00981e-07
1.85275e-08
2.16529e-08
1.7476e-08
1.01013e-08
3.10199e-09
2.32668e-13
3.9178e-09
1.71874e-08
4.10745e-08
7.56969e-08
-2.60219e-08
-2.12262e-07
-4.84661e-07
-6.96517e-07
-7.33484e-07
-6.00318e-07
-3.91463e-07
-2.01088e-07
-7.34819e-08
-6.47005e-09
)
;
    }
    top
    {
        type            symmetryPlane;
    }
    bottom
    {
        type            symmetryPlane;
    }
    cylinder
    {
        type            zeroGradient;
    }
    frontandback
    {
        type            empty;
    }
}


// ************************************************************************* //
