/*--------------------------------*- C++ -*----------------------------------*\
  =========                 |
  \\      /  F ield         | OpenFOAM: The Open Source CFD Toolbox
   \\    /   O peration     | Website:  https://openfoam.org
    \\  /    A nd           | Version:  6.0
     \\/     M anipulation  |
\*---------------------------------------------------------------------------*/
FoamFile
{
    version     2.0;
    format      ascii;
    class       volVectorField;
    location    "14";
    object      U;
}
// * * * * * * * * * * * * * * * * * * * * * * * * * * * * * * * * * * * * * //

dimensions      [0 1 -1 0 0 0 0];

internalField   nonuniform List<vector> 
2400
(
(0.017918 -0.434233 -1.22896e-20)
(0.00560049 -0.33709 5.49551e-21)
(-0.00377727 -0.263772 -6.10865e-21)
(-0.0106637 -0.208611 -3.96853e-21)
(-0.0150594 -0.166953 -6.94322e-21)
(-0.0170709 -0.135162 9.57727e-21)
(-0.0171451 -0.110496 3.91172e-21)
(-0.0157967 -0.09093 3.68504e-21)
(-0.0135138 -0.0749824 -8.57698e-21)
(-0.0112796 -0.0616112 -6.57109e-22)
(0.0515421 -0.427911 1.37003e-20)
(0.0320215 -0.329555 -1.4014e-21)
(0.0184062 -0.25717 2.87046e-21)
(0.0094506 -0.204001 3.74156e-20)
(0.0045719 -0.164713 -2.85152e-20)
(0.00322558 -0.135228 -1.51053e-21)
(0.00462958 -0.112523 -3.3189e-22)
(0.00802857 -0.0943791 -3.82143e-21)
(0.0127747 -0.0791643 -6.78857e-21)
(0.0175637 -0.0657917 -2.70302e-21)
(0.084407 -0.419401 2.5289e-20)
(0.0579561 -0.321217 2.58158e-20)
(0.0410237 -0.250814 -7.45749e-20)
(0.0312212 -0.200422 2.47148e-20)
(0.0272183 -0.16409 4.11705e-20)
(0.0279532 -0.137355 -2.37849e-20)
(0.0322669 -0.11695 -2.05508e-20)
(0.0391477 -0.100465 1.94274e-20)
(0.047788 -0.0860807 -4.43662e-20)
(0.0564602 -0.0726543 4.7175e-20)
(0.116492 -0.408936 -8.84702e-20)
(0.0837038 -0.312533 4.42377e-20)
(0.0646209 -0.245205 -4.38121e-20)
(0.0553744 -0.198323 2.25126e-20)
(0.0537214 -0.165444 -2.62097e-20)
(0.0580075 -0.141815 4.21369e-20)
(0.0666632 -0.123991 2.29372e-20)
(0.0784141 -0.109385 -6.93541e-20)
(0.0923029 -0.0959408 -6.81523e-20)
(0.106075 -0.0824267 8.01429e-20)
(0.147822 -0.396739 3.63446e-21)
(0.109718 -0.303874 -1.72136e-20)
(0.0899767 -0.240677 -7.69893e-21)
(0.0829159 -0.197902 -9.60258e-21)
(0.0852267 -0.168797 -6.50711e-20)
(0.0945945 -0.148455 1.06966e-20)
(0.109014 -0.133357 -7.16041e-21)
(0.126956 -0.120784 7.58648e-20)
(0.147341 -0.108395 -5.35699e-20)
(0.167287 -0.0948253 -3.91082e-20)
(0.178495 -0.383029 8.55406e-20)
(0.136617 -0.295515 -8.71539e-21)
(0.118088 -0.23738 1.33702e-19)
(0.115099 -0.199085 -1.72206e-20)
(0.123139 -0.173795 8.41306e-20)
(0.139175 -0.156629 -9.59569e-21)
(0.160749 -0.144145 -8.02458e-22)
(0.186091 -0.133593 6.19668e-20)
(0.214058 -0.122338 -3.47262e-20)
(0.241076 -0.10885 6.72792e-20)
(0.208691 -0.368009 -3.241e-20)
(0.165172 -0.287624 1.15472e-20)
(0.150125 -0.23527 -3.43218e-20)
(0.153349 -0.201523 -4.31753e-20)
(0.169024 -0.179724 -4.66422e-21)
(0.193352 -0.165218 1.42857e-19)
(0.223401 -0.154835 -5.1484e-20)
(0.257181 -0.145986 2.57601e-20)
(0.293591 -0.13583 -8.9078e-20)
(0.328376 -0.122687 -5.69621e-20)
(0.238674 -0.351851 1.56049e-19)
(0.19627 -0.280234 -1.76858e-20)
(0.187343 -0.234101 -1.8634e-19)
(0.199126 -0.204622 1.05445e-20)
(0.224421 -0.185577 4.57108e-20)
(0.258636 -0.172714 -6.84398e-20)
(0.29833 -0.163355 -9.26273e-20)
(0.341302 -0.155345 1.41377e-19)
(0.386674 -0.145882 -1.19802e-20)
(0.429762 -0.133318 -1.31578e-19)
(0.268793 -0.334672 -1.31073e-19)
(0.230848 -0.273206 7.75096e-20)
(0.230957 -0.233418 1.23077e-19)
(0.25375 -0.207606 3.37194e-20)
(0.290647 -0.190206 -1.32246e-19)
(0.336225 -0.177457 8.81075e-20)
(0.386462 -0.167251 5.51128e-20)
(0.438822 -0.158029 1.16996e-19)
(0.492807 -0.147322 -7.14701e-20)
(0.544203 -0.134457 -1.05851e-19)
(0.29944 -0.316456 4.46663e-20)
(0.269764 -0.266151 -1.84373e-20)
(0.281947 -0.232558 -6.13969e-22)
(0.318191 -0.209652 3.83883e-20)
(0.368664 -0.192713 3.28301e-20)
(0.427232 -0.178455 -2.31769e-20)
(0.489366 -0.165107 -4.70089e-20)
(0.551994 -0.151358 7.53756e-20)
(0.614201 -0.135243 -6.42029e-20)
(0.672679 -0.119001 5.9233e-20)
(0.617206 -0.00930552 3.97459e-21)
(0.590724 -0.0551857 1.14706e-20)
(0.561129 -0.0972281 -3.83658e-20)
(0.529372 -0.135393 3.36845e-20)
(0.496288 -0.169789 1.26676e-20)
(0.462595 -0.20066 1.57224e-19)
(0.428866 -0.228352 -6.01319e-20)
(0.395516 -0.253289 -8.05987e-20)
(0.362814 -0.27595 8.35983e-20)
(0.33087 -0.296855 -1.44793e-19)
(0.83239 0.017484 1.4108e-20)
(0.779583 -0.0410132 -4.52937e-21)
(0.721174 -0.0920438 -3.80875e-20)
(0.659328 -0.135263 1.00943e-19)
(0.596098 -0.170742 -3.37028e-20)
(0.53335 -0.198937 2.53798e-19)
(0.472663 -0.220641 -1.56485e-19)
(0.415278 -0.236919 2.23225e-19)
(0.362067 -0.249037 -1.5192e-19)
(0.313526 -0.258365 -7.75783e-20)
(1.01803 0.0670807 -2.80304e-20)
(0.954488 -0.000586509 4.12763e-21)
(0.882034 -0.0599104 -1.21637e-19)
(0.803344 -0.109963 9.3573e-20)
(0.721167 -0.150359 -9.46105e-20)
(0.638172 -0.181264 -1.77064e-19)
(0.55679 -0.203374 -5.73821e-20)
(0.479081 -0.217867 -4.90488e-20)
(0.406657 -0.226329 1.55086e-19)
(0.340681 -0.230618 8.00224e-20)
(1.16821 0.117197 1.28143e-20)
(1.10395 0.0444434 -2.24234e-20)
(1.02763 -0.0206406 -3.03578e-20)
(0.941861 -0.0765635 -1.19023e-19)
(0.849603 -0.122366 6.93349e-20)
(0.753933 -0.157692 2.00653e-19)
(0.657859 -0.182836 8.64167e-20)
(0.564112 -0.198761 1.67318e-20)
(0.475006 -0.207069 4.57623e-20)
(0.392452 -0.209918 -1.51137e-21)
(1.28303 0.159915 -1.5131e-20)
(1.22433 0.0857593 -5.94141e-20)
(1.15109 0.0178159 8.00183e-21)
(1.0655 -0.0420148 1.031e-19)
(0.970275 -0.0922523 1.05891e-19)
(0.868505 -0.131964 -6.98069e-20)
(0.763429 -0.160887 -1.29993e-19)
(0.658176 -0.179555 -6.27125e-20)
(0.555549 -0.189379 7.3535e-20)
(0.458072 -0.192738 1.00301e-19)
(1.36605 0.193383 3.15485e-21)
(1.31638 0.120689 5.05267e-20)
(1.25065 0.0524674 -1.18298e-19)
(1.17036 -0.00917052 1.48178e-19)
(1.07768 -0.0623604 8.73584e-20)
(0.975357 -0.105641 1.58467e-19)
(0.866495 -0.138138 -3.38759e-20)
(0.754276 -0.159806 -9.02229e-20)
(0.641607 -0.171693 2.13704e-19)
(0.531182 -0.176395 -1.73583e-19)
(1.42232 0.217541 7.78714e-21)
(1.38307 0.148259 -6.08256e-20)
(1.3272 0.0817538 -3.77981e-20)
(1.25547 0.0201602 -8.06934e-20)
(1.16931 -0.034443 -1.13999e-20)
(1.07087 -0.0801738 -1.18722e-19)
(0.962816 -0.11555 -7.34325e-20)
(0.848037 -0.139823 -1.52295e-20)
(0.729026 -0.153469 -1.32637e-19)
(0.607681 -0.159331 1.88461e-19)
(1.45716 0.233373 -6.90031e-21)
(1.42826 0.168596 5.08861e-20)
(1.38306 0.105135 -2.26142e-20)
(1.32159 0.0449924 5.05954e-20)
(1.24453 -0.00970765 1.2413e-19)
(1.1533 -0.0568023 2.01933e-19)
(1.04997 -0.0942369 -5.80668e-20)
(0.936883 -0.120405 -1.98942e-19)
(0.815603 -0.134793 5.40719e-20)
(0.685572 -0.140252 -3.10149e-19)
(1.47532 0.242492 1.00601e-20)
(1.45583 0.182536 -1.19775e-20)
(1.42101 0.122723 -1.22969e-19)
(1.37029 0.0648057 3.75515e-20)
(1.30365 0.0107962 -8.70586e-20)
(1.22184 -0.0370241 -3.60787e-20)
(1.12628 -0.0761179 -2.88367e-20)
(1.01883 -0.103831 8.266e-20)
(0.900086 -0.117757 9.53621e-20)
(0.765067 -0.118956 5.81063e-20)
(1.48053 0.246488 -2.44393e-20)
(1.46908 0.191474 4.37965e-20)
(1.44369 0.135581 2.03946e-20)
(1.40335 0.080225 6.22765e-20)
(1.3475 0.0271579 -7.17225e-21)
(1.27624 -0.021421 -4.78973e-21)
(1.19049 -0.0627231 -1.61446e-19)
(1.09199 -0.0931945 2.058e-19)
(0.981481 -0.108005 -1.27339e-19)
(0.84824 -0.102421 2.65372e-20)
(0.537791 0.499782 -5.59675e-20)
(0.577601 0.460344 6.46075e-20)
(0.611057 0.41547 1.09171e-21)
(0.63749 0.366123 -1.60184e-19)
(0.656393 0.313391 1.19147e-19)
(0.667536 0.258468 -8.94535e-20)
(0.670967 0.202573 -2.18202e-20)
(0.667001 0.146884 -2.08141e-20)
(0.656212 0.0924665 3.44993e-20)
(0.639378 0.0402033 2.39574e-21)
(0.752731 0.67437 8.26397e-20)
(0.813035 0.631929 2.20355e-20)
(0.863956 0.579369 -1.14376e-19)
(0.90395 0.518238 -1.40269e-19)
(0.93177 0.450334 1.11071e-19)
(0.946603 0.377686 -9.97972e-20)
(0.948128 0.302457 1.19111e-19)
(0.936541 0.226838 -3.12541e-20)
(0.912559 0.152933 -1.0463e-19)
(0.877371 0.0826241 -7.86683e-21)
(0.88685 0.755063 -6.27945e-21)
(0.959035 0.718621 1.93336e-21)
(1.02177 0.66985 7.57896e-20)
(1.07296 0.610229 7.69196e-20)
(1.1108 0.541552 1.76868e-19)
(1.13391 0.465913 6.35171e-20)
(1.14142 0.385635 -4.28884e-20)
(1.13302 0.303184 -9.44642e-20)
(1.10898 0.221051 7.66099e-20)
(1.07021 0.141627 5.27129e-21)
(0.968539 0.774985 2.20322e-20)
(1.04658 0.746852 -5.21713e-20)
(1.11641 0.705889 -2.5734e-20)
(1.17563 0.653262 -1.46051e-19)
(1.22213 0.590455 -8.92662e-20)
(1.25415 0.519281 1.71965e-19)
(1.27034 0.441838 1.17021e-19)
(1.26985 0.360445 -9.85655e-20)
(1.25237 0.27756 4.58411e-21)
(1.21822 0.195676 -4.4001e-21)
(1.01679 0.758761 -5.94928e-20)
(1.09657 0.738402 1.00337e-19)
(1.16974 0.705766 -2.61788e-20)
(1.23383 0.661638 7.92136e-20)
(1.28662 0.607114 -5.53124e-20)
(1.32617 0.543625 -1.03558e-19)
(1.35088 0.472899 5.52569e-20)
(1.35948 0.396917 -5.84501e-20)
(1.35116 0.317871 -5.83609e-20)
(1.32561 0.238084 2.55911e-20)
(1.04463 0.723307 -1.07199e-20)
(1.12361 0.709233 1.8297e-20)
(1.19743 0.684031 -1.76185e-20)
(1.26364 0.648064 -1.50136e-19)
(1.32012 0.602062 8.6463e-20)
(1.365 0.5471 1.729e-20)
(1.39661 0.484531 -9.51991e-20)
(1.4135 0.415959 -3.51429e-20)
(1.4145 0.343215 3.29027e-20)
(1.39883 0.268313 -9.31132e-21)
(1.0607 0.679343 -1.37413e-20)
(1.13769 0.669999 4.83179e-21)
(1.21043 0.650943 2.41263e-20)
(1.27659 0.62204 8.48985e-20)
(1.33441 0.583729 2.15116e-20)
(1.38227 0.536822 5.46534e-20)
(1.41863 0.482374 1.16186e-19)
(1.44204 0.421656 -4.9753e-20)
(1.45116 0.356145 4.66037e-20)
(1.44488 0.287503 -1.75354e-20)
(1.07052 0.633309 -1.3192e-20)
(1.14519 0.627769 1.92614e-20)
(1.21573 0.613729 1.87279e-20)
(1.28018 0.590581 -4.3846e-20)
(1.33739 0.558659 -2.87584e-20)
(1.38615 0.518663 -6.0005e-20)
(1.42516 0.471458 8.44736e-21)
(1.45308 0.418071 -1.41767e-20)
(1.46854 0.359683 -9.92645e-20)
(1.4703 0.297626 1.39659e-20)
(1.07824 0.589553 -2.09869e-21)
(1.14994 0.587574 -1.3824e-20)
(1.21707 0.577552 -1.5676e-20)
(1.27844 0.558765 9.70747e-21)
(1.33358 0.531749 -4.14482e-21)
(1.38168 0.497248 5.32287e-20)
(1.42166 0.456027 2.40572e-20)
(1.45229 0.408941 3.8861e-20)
(1.47231 0.356938 4.77187e-20)
(1.48042 0.301069 -2.05314e-20)
(1.09002 0.549686 -2.33118e-21)
(1.15683 0.549175 2.23626e-20)
(1.21849 0.54163 -6.14749e-20)
(1.27509 0.525919 -4.22385e-21)
(1.32672 0.502733 7.99925e-20)
(1.37273 0.472826 3.92356e-21)
(1.41211 0.436846 4.80488e-20)
(1.44378 0.395464 -1.06371e-19)
(1.46658 0.349406 -1.29736e-21)
(1.47926 0.299461 1.09031e-20)
(0.597015 0.193766 -8.15159e-21)
(0.556253 0.209317 2.87622e-21)
(0.509565 0.227876 9.50967e-22)
(0.456168 0.250586 -1.53838e-20)
(0.395139 0.278929 6.84612e-21)
(0.325968 0.31444 2.03239e-20)
(0.249078 0.358074 -1.89519e-20)
(0.166739 0.408831 -4.87712e-21)
(0.0871611 0.461191 -5.87713e-21)
(0.0323574 0.50068 -2.16019e-20)
(0.619515 0.251428 -2.24193e-20)
(0.580649 0.271797 4.72343e-20)
(0.535893 0.295619 -4.35343e-20)
(0.484786 0.323774 -7.39315e-21)
(0.426457 0.357269 1.23118e-20)
(0.360377 0.396672 -1.45153e-20)
(0.286859 0.441182 -4.11186e-20)
(0.207806 0.486873 4.77631e-20)
(0.130498 0.523449 -7.79323e-23)
(0.0749051 0.528769 2.18419e-20)
(0.6495 0.306265 -7.46785e-20)
(0.613248 0.331218 7.94671e-20)
(0.571117 0.360068 2.7741e-20)
(0.52305 0.393373 1.52699e-21)
(0.468177 0.431664 1.7826e-20)
(0.405824 0.474548 7.04599e-21)
(0.335963 0.519492 -1.17023e-20)
(0.259729 0.559733 -2.58354e-20)
(0.182747 0.580457 -1.8975e-20)
(0.121582 0.552465 2.78868e-20)
(0.686601 0.357287 -6.1767e-20)
(0.653593 0.386477 5.79789e-20)
(0.614716 0.419989 4.66383e-20)
(0.570374 0.457985 -3.19079e-20)
(0.519639 0.500517 -1.17918e-19)
(0.461561 0.546253 3.81215e-20)
(0.39555 0.591001 -2.74848e-20)
(0.321604 0.625337 7.52947e-20)
(0.243038 0.630366 6.63643e-20)
(0.171797 0.570796 -5.88661e-20)
(0.730298 0.403605 -4.42292e-20)
(0.701049 0.43658 2.01193e-20)
(0.665966 0.474258 -5.58199e-20)
(0.625941 0.51632 4.39e-20)
(0.579909 0.562344 -2.10617e-20)
(0.526521 0.610103 -1.7759e-20)
(0.464422 0.653849 -1.78738e-20)
(0.392141 0.681767 -2.89372e-21)
(0.310129 0.671484 -2.61934e-20)
(0.22474 0.582903 -1.56202e-20)
(0.779909 0.444462 1.1075e-19)
(0.754791 0.480674 2.26384e-20)
(0.723934 0.521891 -7.57968e-20)
(0.688698 0.567228 7.09773e-20)
(0.64779 0.615814 3.27009e-20)
(0.599341 0.664581 5.28929e-20)
(0.541045 0.706375 -3.06702e-21)
(0.469691 0.727332 3.23843e-20)
(0.382455 0.702352 8.15136e-21)
(0.279422 0.588085 3.13878e-20)
(0.834558 0.479264 -1.19539e-19)
(0.813791 0.51807 1.38216e-19)
(0.787467 0.562061 -6.67618e-20)
(0.757362 0.609719 -3.7705e-20)
(0.721833 0.659771 4.75843e-22)
(0.678375 0.708378 -5.11657e-20)
(0.62358 0.747162 3.48144e-20)
(0.552298 0.760622 3.89312e-20)
(0.458179 0.721804 5.46919e-21)
(0.334724 0.585835 -2.32703e-20)
(0.89312 0.507683 -8.74377e-21)
(0.876763 0.548269 -5.35276e-20)
(0.855173 0.594088 2.27419e-20)
(0.830422 0.642957 -4.6835e-21)
(0.800359 0.693243 -1.80871e-20)
(0.761735 0.740415 8.80705e-21)
(0.709931 0.775076 -3.3683e-21)
(0.637749 0.780562 -8.42169e-21)
(0.535256 0.729015 7.29178e-21)
(0.389432 0.575858 -8.57831e-21)
(0.954183 0.529859 1.80532e-20)
(0.942165 0.571184 5.94305e-21)
(0.925513 0.617599 -3.77252e-20)
(0.906266 0.666348 2.85492e-20)
(0.881557 0.715493 -1.24717e-20)
(0.847364 0.759875 -3.46579e-21)
(0.797816 0.789303 -8.29664e-21)
(0.723659 0.786447 -1.8322e-21)
(0.611522 0.723535 -5.26459e-20)
(0.442316 0.558109 3.28156e-20)
(1.01439 0.543486 -2.28703e-20)
(1.00639 0.584708 1.66476e-20)
(0.995761 0.631052 -4.16355e-21)
(0.982635 0.678839 -3.05577e-21)
(0.963238 0.725744 -1.11939e-20)
(0.932975 0.766127 -5.55565e-21)
(0.884797 0.789341 7.494e-21)
(0.807544 0.777954 3.69313e-20)
(0.68479 0.705287 4.86846e-20)
(0.492199 0.532749 7.19618e-21)
(0.769602 -0.317214 1.37381e-19)
(0.74041 -0.338548 -8.57902e-20)
(0.703305 -0.357972 3.26248e-20)
(0.657662 -0.370407 -7.44506e-20)
(0.598722 -0.371154 -4.88022e-20)
(0.520449 -0.352693 -7.57458e-20)
(0.41525 -0.30411 -9.21753e-20)
(0.273587 -0.211023 -4.22928e-20)
(0.0841593 -0.0551758 -5.87062e-20)
(-0.167459 0.18631 2.92291e-20)
(0.726954 -0.283865 -8.24268e-20)
(0.696664 -0.303762 -6.83741e-20)
(0.657724 -0.322322 1.18132e-19)
(0.610411 -0.335 5.82109e-20)
(0.550982 -0.336986 8.65744e-20)
(0.474138 -0.320726 -1.46006e-19)
(0.373271 -0.275166 5.03408e-20)
(0.240257 -0.185442 1.03308e-19)
(0.0661781 -0.0321446 7.05602e-20)
(-0.158757 0.209949 -7.53917e-20)
(0.687014 -0.244253 3.88523e-20)
(0.654797 -0.262124 -1.58558e-20)
(0.614248 -0.279083 1.67816e-19)
(0.56538 -0.291022 -1.01189e-19)
(0.505177 -0.293179 -8.26268e-20)
(0.429194 -0.278179 4.76281e-20)
(0.331946 -0.235162 -6.70984e-22)
(0.206936 -0.149304 -2.07825e-19)
(0.0479746 -0.000893574 -8.42447e-21)
(-0.149491 0.236238 6.63313e-20)
(0.65209 -0.200292 2.57285e-19)
(0.617529 -0.215372 -1.20417e-19)
(0.57512 -0.229663 4.05006e-20)
(0.524536 -0.239605 -6.93101e-20)
(0.46327 -0.240665 1.81214e-19)
(0.387688 -0.225813 -9.64473e-21)
(0.293449 -0.18466 -3.42227e-20)
(0.175764 -0.102936 5.27018e-21)
(0.0313454 0.0384823 1.71664e-20)
(-0.138836 0.265175 -8.65665e-20)
(0.622968 -0.151896 -2.22451e-19)
(0.586043 -0.163621 -2.43156e-21)
(0.541731 -0.174469 9.05815e-20)
(0.48942 -0.181415 -4.4162e-21)
(0.426993 -0.180273 -1.04177e-20)
(0.351554 -0.164514 1.19414e-19)
(0.25987 -0.124505 -2.23555e-20)
(0.14884 -0.0470401 2.76211e-20)
(0.0180685 0.0855043 5.341e-21)
(-0.125984 0.296538 1.15452e-19)
(0.600259 -0.0994496 8.18958e-21)
(0.561218 -0.107353 -1.30554e-19)
(0.515195 -0.114155 1.17807e-19)
(0.461345 -0.117299 -1.03571e-20)
(0.39787 -0.113009 2.00038e-20)
(0.322534 -0.0953917 -1.00839e-19)
(0.233121 -0.0558344 -1.51063e-20)
(0.128113 0.0173213 -7.5736e-21)
(0.00982357 0.139332 -5.28836e-20)
(-0.110173 0.329904 -2.51286e-20)
(0.584487 -0.0436768 1.14729e-19)
(0.543767 -0.0473494 -1.09447e-19)
(0.496408 -0.0496138 -5.1987e-21)
(0.441392 -0.0482981 -1.30165e-19)
(0.377185 -0.0400694 7.11272e-20)
(0.302117 -0.0197815 -4.5071e-20)
(0.214868 0.0199353 3.78558e-20)
(0.115307 0.0887632 -7.2712e-20)
(0.00811058 0.198805 -6.82005e-20)
(-0.0907218 0.364666 -4.8925e-20)
(0.576057 0.0145452 7.1885e-20)
(0.53424 0.0154375 -7.3057e-20)
(0.48606 0.0180951 3.24148e-20)
(0.430405 0.0243799 2.28671e-20)
(0.365957 0.0371678 -4.22825e-20)
(0.291511 0.060776 7.27092e-20)
(0.206479 0.101145 4.43497e-20)
(0.111856 0.165618 -1.34887e-19)
(0.0141858 0.262483 2.27275e-20)
(-0.0670751 0.400063 5.89315e-20)
(0.575253 0.0742337 7.62379e-20)
(0.533024 0.0799268 -1.15806e-20)
(0.484642 0.0877767 -6.64861e-21)
(0.428997 0.0993887 -5.3223e-22)
(0.36494 0.117177 2.84022e-20)
(0.291618 0.144569 -8.39389e-20)
(0.208994 0.185929 6.92505e-20)
(0.118857 0.245987 5.40307e-21)
(0.0290142 0.328696 -2.53965e-21)
(-0.0388275 0.43521 4.30675e-20)
(0.582229 0.134335 -2.21231e-20)
(0.540344 0.144953 -2.33171e-21)
(0.492447 0.158145 6.15387e-21)
(0.43754 0.175285 6.84617e-21)
(0.374605 0.198324 1.72741e-20)
(0.303022 0.229756 -1.24872e-20)
(0.223094 0.272271 -7.33868e-21)
(0.137043 0.327787 -1.14377e-20)
(0.0532427 0.395598 1.05884e-20)
(-0.0057285 0.469131 -7.75336e-21)
(0.829173 -0.350813 1.35726e-19)
(0.878871 -0.373054 -4.98614e-20)
(0.924532 -0.389898 1.2977e-20)
(0.96634 -0.399461 5.30555e-20)
(1.00441 -0.401915 2.7116e-20)
(1.03785 -0.397669 2.24029e-21)
(1.0653 -0.386926 2.64205e-21)
(1.08524 -0.369901 -2.08918e-21)
(1.09602 -0.346929 -1.32077e-21)
(1.09592 -0.31854 1.03329e-21)
(0.792839 -0.368251 6.26419e-20)
(0.844633 -0.390058 5.04358e-20)
(0.893163 -0.405375 4.67268e-20)
(0.937147 -0.412918 -1.37521e-20)
(0.975903 -0.412676 -1.18918e-20)
(1.00843 -0.404991 -9.47998e-21)
(1.03337 -0.390216 1.60911e-21)
(1.04917 -0.368818 3.1847e-21)
(1.05422 -0.341461 1.79262e-21)
(1.04699 -0.309057 -2.01844e-21)
(0.754186 -0.385228 -1.84254e-19)
(0.805968 -0.404633 1.83379e-20)
(0.854974 -0.416774 -8.86909e-20)
(0.898965 -0.420876 -1.36729e-20)
(0.936569 -0.416807 4.40171e-20)
(0.966465 -0.404881 1.32565e-20)
(0.987189 -0.385616 -1.49297e-21)
(0.997229 -0.359753 -1.13427e-21)
(0.995156 -0.328296 -7.15268e-21)
(0.979794 -0.292537 1.40702e-21)
(0.707735 -0.396146 -4.88044e-20)
(0.758085 -0.412921 -7.07524e-20)
(0.805493 -0.421302 -6.73299e-21)
(0.847393 -0.421065 -2.25846e-20)
(0.881897 -0.412299 -2.30072e-20)
(0.907368 -0.395495 -2.15558e-21)
(0.922273 -0.371441 -2.50808e-21)
(0.92523 -0.34121 4.79642e-22)
(0.91513 -0.306171 7.35578e-21)
(0.89128 -0.267982 -1.64459e-21)
(0.647504 -0.39486 -1.05579e-19)
(0.695285 -0.408526 1.10362e-19)
(0.739331 -0.412736 6.02211e-21)
(0.777089 -0.407751 -5.00112e-21)
(0.806462 -0.394049 1.25162e-20)
(0.8257 -0.372463 3.87458e-21)
(0.83335 -0.344137 -5.70409e-21)
(0.828307 -0.310519 8.94747e-21)
(0.809909 -0.273334 -1.39492e-21)
(0.778056 -0.234535 -6.69837e-22)
(0.566444 -0.373548 1.51856e-19)
(0.61005 -0.38364 -8.40008e-20)
(0.648831 -0.383647 -2.53803e-20)
(0.680418 -0.374252 -5.93661e-21)
(0.702789 -0.35637 -9.73694e-21)
(0.71433 -0.331232 4.01374e-21)
(0.713866 -0.300369 -5.34252e-21)
(0.700715 -0.265573 -3.33902e-21)
(0.674763 -0.228836 2.34872e-21)
(0.636528 -0.192259 3.00995e-21)
(0.455814 -0.321735 2.47538e-20)
(0.492825 -0.328499 1.51344e-20)
(0.524095 -0.325273 2.98017e-21)
(0.547548 -0.313106 -8.99723e-21)
(0.561459 -0.293309 2.79759e-20)
(0.564568 -0.267474 5.91707e-22)
(0.556135 -0.237433 7.884e-22)
(0.535995 -0.205186 9.50684e-22)
(0.504593 -0.172812 3.22367e-21)
(0.46298 -0.142352 -2.28769e-21)
(0.304797 -0.226062 7.16595e-20)
(0.331889 -0.231173 5.06472e-20)
(0.353022 -0.227435 -8.52302e-20)
(0.366541 -0.216154 -1.58469e-20)
(0.371182 -0.198881 -2.62561e-20)
(0.366169 -0.177382 -1.54514e-21)
(0.351267 -0.153564 -8.15973e-21)
(0.326802 -0.129383 1.06665e-20)
(0.293648 -0.106734 -1.4116e-22)
(0.253174 -0.0873401 4.85273e-21)
(0.100133 -0.0702311 -1.31155e-20)
(0.112632 -0.0779163 -8.49874e-20)
(0.120341 -0.0793454 6.35974e-20)
(0.122181 -0.0757979 -2.06378e-20)
(0.117449 -0.0687125 2.60525e-20)
(0.105875 -0.0596408 -1.28824e-21)
(0.0876374 -0.0501659 -6.73226e-21)
(0.0633501 -0.0418097 5.5527e-22)
(0.0340195 -0.0359415 -4.08918e-22)
(0.000959344 -0.0337049 -2.47815e-21)
(-0.176433 0.165035 -1.30417e-20)
(-0.185952 0.146096 4.4606e-20)
(-0.196604 0.128843 -1.84501e-20)
(-0.208717 0.112638 5.30676e-21)
(-0.222411 0.0968261 -5.38807e-21)
(-0.237601 0.0807491 -1.59514e-22)
(-0.253999 0.0637802 1.114e-21)
(-0.271136 0.0453696 5.08422e-21)
(-0.288406 0.0250808 -2.40987e-21)
(-0.305123 0.00260124 -8.53423e-22)
(1.08332 -0.285524 1.6463e-21)
(1.05693 -0.249076 -7.97083e-21)
(1.01606 -0.210835 4.35637e-20)
(0.960839 -0.172918 -3.16193e-20)
(0.892441 -0.137865 3.72317e-21)
(0.813055 -0.108469 -3.20376e-20)
(0.725558 -0.0874964 1.60905e-19)
(0.632674 -0.0772657 8.1461e-21)
(0.533047 -0.0796743 -4.79279e-20)
(0.415207 -0.0911717 1.08025e-19)
(1.02619 -0.272825 5.40469e-21)
(0.991049 -0.234391 -1.60534e-20)
(0.941529 -0.195749 -1.62595e-20)
(0.878501 -0.15921 -1.19868e-20)
(0.803801 -0.127261 -3.44546e-20)
(0.720046 -0.102332 -8.3446e-22)
(0.630127 -0.0864618 -1.0542e-20)
(0.536188 -0.0808193 2.96963e-20)
(0.437061 -0.0852312 9.55335e-20)
(0.327074 -0.0931987 -2.10049e-20)
(0.950339 -0.254077 -3.64914e-21)
(0.906677 -0.214868 3.22001e-20)
(0.849498 -0.177098 8.39582e-21)
(0.780365 -0.143074 -1.81694e-21)
(0.701648 -0.115024 3.75651e-20)
(0.616238 -0.0948327 1.63192e-20)
(0.527005 -0.0836901 3.16327e-20)
(0.435969 -0.0816142 -3.42105e-20)
(0.343047 -0.0868642 -6.82834e-20)
(0.246921 -0.0929726 -1.60448e-19)
(0.853497 -0.228551 4.46824e-21)
(0.802377 -0.190036 -1.41892e-20)
(0.739317 -0.154646 2.05737e-20)
(0.666462 -0.124502 -4.67632e-20)
(0.586554 -0.101423 -2.76726e-20)
(0.502601 -0.086663 -1.30869e-20)
(0.417399 -0.0806231 -6.63173e-20)
(0.332982 -0.0825025 -3.06586e-20)
(0.250185 -0.0899433 3.70304e-21)
(0.169862 -0.0977761 4.97262e-20)
(0.733227 -0.196213 2.20929e-21)
(0.676697 -0.160556 -2.88787e-23)
(0.61045 -0.12961 1.3578e-20)
(0.537024 -0.105141 4.17539e-20)
(0.459313 -0.0884432 -7.07436e-21)
(0.380251 -0.0801364 -6.17173e-20)
(0.302436 -0.0799662 1.04016e-19)
(0.22781 -0.0866251 -3.17116e-20)
(0.1576 -0.0976345 -2.38182e-20)
(0.0932328 -0.109022 -1.12247e-20)
(0.587099 -0.157939 -6.09869e-21)
(0.528284 -0.127886 6.4268e-21)
(0.462436 -0.1038 2.12686e-20)
(0.39223 -0.0869654 -2.04838e-20)
(0.320463 -0.0781079 4.06349e-20)
(0.249791 -0.0772737 -4.95957e-21)
(0.18247 -0.0837273 3.8961e-21)
(0.120191 -0.0959017 2.61449e-20)
(0.0641447 -0.111429 2.04728e-20)
(0.0155696 -0.127225 6.57835e-21)
(0.412685 -0.115682 9.03929e-22)
(0.355798 -0.0944315 -1.22282e-21)
(0.294758 -0.0798146 3.03699e-20)
(0.232088 -0.0725709 -3.63719e-20)
(0.170242 -0.072895 -6.92757e-20)
(0.111424 -0.0803854 3.3413e-20)
(0.0574292 -0.0940219 -1.77022e-20)
(0.00957943 -0.112187 1.89091e-20)
(-0.0311917 -0.132759 5.31938e-20)
(-0.064062 -0.15331 -5.75958e-20)
(0.207069 -0.0726456 -9.6059e-22)
(0.157379 -0.0637203 -1.90214e-20)
(0.106302 -0.0612289 2.69497e-20)
(0.0559323 -0.0653974 1.66392e-20)
(0.00818053 -0.0760002 -5.07791e-20)
(-0.0353302 -0.0923684 -3.99198e-20)
(-0.0733336 -0.11341 -2.83031e-21)
(-0.104925 -0.137651 6.25019e-21)
(-0.129495 -0.163323 7.98666e-21)
(-0.146603 -0.188541 -2.24853e-20)
(-0.0343598 -0.0359522 1.62068e-21)
(-0.0703166 -0.0430734 2.62992e-20)
(-0.105303 -0.0552397 1.08182e-20)
(-0.137894 -0.0722942 -3.56133e-20)
(-0.16688 -0.0937816 3.52883e-20)
(-0.191296 -0.118992 -4.62774e-20)
(-0.21043 -0.146992 6.07514e-20)
(-0.223795 -0.176649 -7.30532e-20)
(-0.231086 -0.206681 -3.86883e-20)
(-0.232124 -0.235759 -1.04046e-19)
(-0.320538 -0.0222837 -4.59425e-22)
(-0.333933 -0.0492294 -7.6474e-21)
(-0.344691 -0.0781549 5.67196e-21)
(-0.35229 -0.108775 6.75805e-21)
(-0.356342 -0.140692 -1.52755e-20)
(-0.356592 -0.173438 1.50643e-20)
(-0.352884 -0.20649 -1.84385e-20)
(-0.345142 -0.239274 1.42866e-20)
(-0.333343 -0.27118 -3.62976e-20)
(-0.317487 -0.301594 4.00749e-20)
(-0.297486 -0.329889 5.73276e-20)
(-0.226886 -0.262671 -4.30817e-20)
(-0.155966 -0.211709 -4.48092e-20)
(-0.0880966 -0.171818 6.02826e-20)
(-0.0234739 -0.140539 -5.54e-21)
(0.0384493 -0.11652 7.19095e-20)
(0.0978599 -0.098473 8.21479e-21)
(0.155 -0.0855063 -6.46478e-20)
(0.211203 -0.0776727 1.19398e-19)
(0.265724 -0.0717919 -1.65297e-20)
(-0.273995 -0.355179 -6.05229e-20)
(-0.215878 -0.286429 1.66093e-19)
(-0.157747 -0.231943 -6.90071e-21)
(-0.102741 -0.187781 -5.5049e-20)
(-0.0509741 -0.151795 4.37271e-20)
(-0.00180063 -0.122593 -9.96091e-20)
(0.0451788 -0.0987937 1.14822e-19)
(0.0905937 -0.0794078 -9.7136e-20)
(0.135966 -0.0646634 1.74674e-20)
(0.179656 -0.0539517 7.59538e-20)
(-0.247411 -0.377355 3.47159e-20)
(-0.199838 -0.306595 -1.04648e-19)
(-0.152816 -0.24881 3.63438e-20)
(-0.108979 -0.201053 -2.01589e-20)
(-0.0682249 -0.161472 3.72989e-20)
(-0.0297633 -0.128763 -2.79038e-20)
(0.00696635 -0.101735 -2.6572e-20)
(0.0426465 -0.0796505 3.60207e-20)
(0.0782883 -0.0627729 -8.40934e-20)
(0.111903 -0.050967 1.26297e-19)
(-0.218214 -0.396215 -7.40987e-20)
(-0.179693 -0.322899 8.10211e-21)
(-0.1424 -0.262033 3.81071e-20)
(-0.108326 -0.211377 5.17128e-20)
(-0.0771343 -0.169267 -7.90646e-20)
(-0.0479511 -0.134449 6.58077e-21)
(-0.020186 -0.10584 -4.42487e-20)
(0.00673408 -0.0827918 -9.29653e-20)
(0.0334338 -0.0653713 1.77161e-19)
(0.0582277 -0.0532833 6.78075e-20)
(-0.186939 -0.411626 5.19028e-20)
(-0.156423 -0.335212 1.18718e-20)
(-0.127765 -0.271469 4.64103e-20)
(-0.10228 -0.218524 -5.69772e-21)
(-0.0794161 -0.174734 6.15406e-20)
(-0.0582629 -0.138764 3.02483e-20)
(-0.0382613 -0.109481 7.74785e-20)
(-0.0189691 -0.0861288 -7.87508e-20)
(-6.25889e-06 -0.0684527 -8.14888e-21)
(0.017336 -0.0559677 -8.8631e-20)
(-0.154119 -0.423546 3.43913e-20)
(-0.130956 -0.343571 -4.06023e-20)
(-0.110083 -0.277161 -9.15483e-21)
(-0.092188 -0.222462 -1.59192e-20)
(-0.0765484 -0.17766 -1.7481e-20)
(-0.0622668 -0.141214 -2.22782e-20)
(-0.0488508 -0.111821 3.6334e-20)
(-0.035984 -0.0885236 -4.85935e-20)
(-0.023454 -0.070751 4.38703e-20)
(-0.0122234 -0.0578614 5.7737e-21)
(-0.120249 -0.432005 -5.97614e-20)
(-0.104116 -0.348167 -3.02017e-20)
(-0.0903558 -0.279356 5.24634e-20)
(-0.0791549 -0.223405 -1.95771e-20)
(-0.0696918 -0.178153 2.90622e-20)
(-0.061132 -0.141747 -8.80554e-20)
(-0.0530819 -0.112641 6.72752e-20)
(-0.0453503 -0.0896505 -2.52606e-20)
(-0.0378607 -0.0719423 4.5714e-20)
(-0.0313554 -0.0587516 -5.51923e-20)
(-0.0857762 -0.437111 2.755e-20)
(-0.0765887 -0.349336 -1.18591e-20)
(-0.0693829 -0.278488 -1.83206e-20)
(-0.0640224 -0.221802 -7.349e-21)
(-0.0596878 -0.176621 4.05666e-21)
(-0.0556647 -0.140703 1.22484e-20)
(-0.051696 -0.112216 -3.02254e-20)
(-0.0477284 -0.0897524 1.84137e-20)
(-0.0438153 -0.0722701 5.65832e-20)
(-0.040595 -0.0589095 -5.47308e-20)
(-0.0510826 -0.439043 2.06299e-20)
(-0.0489101 -0.347529 5.80995e-23)
(-0.0477493 -0.275143 2.84427e-20)
(-0.047376 -0.218292 -2.45711e-20)
(-0.0470927 -0.173712 7.60249e-21)
(-0.0463743 -0.138715 -8.50608e-21)
(-0.0451455 -0.111168 -4.84807e-21)
(-0.0435137 -0.0894474 -2.82232e-20)
(-0.0416682 -0.0723465 3.07906e-20)
(-0.0402561 -0.0589302 3.21342e-20)
(-0.0164608 -0.43803 -3.63914e-21)
(-0.0214435 -0.34327 -3.10517e-21)
(-0.0258251 -0.269998 -2.80084e-21)
(-0.029556 -0.213627 -1.07456e-20)
(-0.0322027 -0.170209 1.1615e-20)
(-0.0335108 -0.136582 4.24943e-21)
(-0.0336385 -0.110305 -9.11223e-21)
(-0.0328828 -0.0895488 5.60726e-22)
(-0.0315778 -0.0729673 -5.52979e-21)
(-0.0304873 -0.059566 -3.81186e-22)
(-0.00939892 -0.0262298 -1.13979e-21)
(0.00140845 -0.0245882 -1.14978e-21)
(0.0556635 -0.0251274 2.58699e-21)
(0.107078 -0.0328639 -1.74122e-21)
(0.170281 -0.044349 -5.72198e-22)
(0.230652 -0.0570084 -1.10446e-21)
(0.288911 -0.0677021 3.88597e-22)
(0.341377 -0.0719371 -4.81553e-22)
(0.388829 -0.0653873 2.42862e-22)
(0.433045 -0.0453062 4.71039e-23)
(0.47666 -0.0130087 -2.57251e-22)
(0.521063 0.0224555 6.36018e-23)
(0.567045 0.0462568 -6.1536e-23)
(0.618878 0.0422749 -1.36022e-22)
(0.67473 0.0110601 2.26146e-23)
(0.730819 -0.0347487 -3.88987e-23)
(0.766639 -0.0667229 1.48499e-23)
(0.805359 -0.0753016 6.82888e-24)
(0.818821 -0.0571734 -7.83423e-24)
(0.886603 -0.0131128 1.23806e-23)
(0.0254291 -0.0288635 5.306e-21)
(0.0387518 -0.0358058 4.02724e-21)
(0.0965259 -0.0386738 -3.8253e-21)
(0.148903 -0.0470627 2.13284e-21)
(0.211317 -0.0579203 -4.17337e-21)
(0.269667 -0.0690644 -1.64555e-22)
(0.32457 -0.077979 -3.94902e-22)
(0.372572 -0.0804929 -7.30071e-22)
(0.414645 -0.0726493 5.03122e-22)
(0.45312 -0.051807 1.58572e-22)
(0.491573 -0.0191306 6.02446e-23)
(0.532719 0.0165594 5.04061e-22)
(0.578086 0.0403541 -5.68832e-22)
(0.631591 0.0363297 -1.23741e-22)
(0.689225 0.00544568 9.34065e-23)
(0.745639 -0.0389658 6.06061e-23)
(0.779479 -0.0697869 -1.13041e-22)
(0.814631 -0.0772924 9.36314e-23)
(0.823958 -0.0599296 1.84807e-23)
(0.887698 -0.0154529 -2.85553e-23)
(0.0731044 -0.0338782 -1.84515e-20)
(0.0893715 -0.0479069 2.38375e-21)
(0.150492 -0.0524459 1.79996e-20)
(0.202932 -0.0609116 -9.11345e-21)
(0.263183 -0.0708208 -1.27232e-21)
(0.31822 -0.0802868 -4.1561e-21)
(0.368639 -0.0873493 -9.47701e-24)
(0.411329 -0.0881534 -1.53837e-21)
(0.447406 -0.0791001 -4.95568e-22)
(0.479637 -0.0576634 -3.85185e-22)
(0.512393 -0.0248526 -7.60322e-23)
(0.549634 0.0108012 4.30339e-23)
(0.593632 0.0344173 5.73391e-22)
(0.647897 0.0303477 -2.57186e-22)
(0.70634 -8.12434e-05 -2.16708e-22)
(0.762212 -0.0429658 2.07504e-22)
(0.793632 -0.0725567 -3.60925e-23)
(0.824958 -0.0789792 -4.30476e-23)
(0.830168 -0.062403 -6.6727e-23)
(0.889491 -0.0176561 -4.63682e-23)
(0.133719 -0.0416541 -5.03023e-21)
(0.152932 -0.0607465 1.969e-20)
(0.216465 -0.0661558 -9.27061e-21)
(0.267753 -0.0740833 -5.10842e-21)
(0.324366 -0.0827525 4.08795e-21)
(0.374824 -0.0904462 -7.68099e-22)
(0.41975 -0.0956543 1.77601e-21)
(0.456445 -0.0948163 -5.89604e-22)
(0.486111 -0.0846664 1.55947e-21)
(0.511816 -0.062803 6.82738e-22)
(0.538544 -0.0300868 -1.47554e-21)
(0.571373 0.00528683 1.93025e-22)
(0.613305 0.0285647 -6.09791e-23)
(0.667417 0.0244464 4.22882e-22)
(0.725701 -0.0054258 1.07141e-22)
(0.780207 -0.0466936 -1.54528e-22)
(0.808819 -0.0750083 -1.11214e-22)