/*--------------------------------*- C++ -*----------------------------------*\
  =========                 |
  \\      /  F ield         | OpenFOAM: The Open Source CFD Toolbox
   \\    /   O peration     | Website:  https://openfoam.org
    \\  /    A nd           | Version:  6.0
     \\/     M anipulation  |
\*---------------------------------------------------------------------------*/
FoamFile
{
    version     2.0;
    format      ascii;
    class       volVectorField;
    location    "1.2005";
    object      U;
}
// * * * * * * * * * * * * * * * * * * * * * * * * * * * * * * * * * * * * * //

dimensions      [0 1 -1 0 0 0 0];

internalField   nonuniform List<vector> 
19200
(
(0.269839 -9.70156 -1.75132e-20)
(0.11481 -9.16676 8.35344e-21)
(0.106159 -8.66415 3.65573e-21)
(0.110442 -8.19172 3.07061e-21)
(0.106198 -7.74673 3.16845e-21)
(0.10231 -7.32602 2.1011e-22)
(0.0995206 -6.92722 4.10528e-21)
(0.0970332 -6.54868 -2.18953e-22)
(0.094671 -6.18919 3.2302e-21)
(0.0923968 -5.84783 1.28245e-21)
(0.0901745 -5.52393 9.77493e-23)
(0.0879925 -5.21689 1.84245e-21)
(0.0858643 -4.92618 2.697e-21)
(0.0838193 -4.65127 -1.7299e-21)
(0.0818958 -4.39161 2.1044e-21)
(0.0801366 -4.14663 1.65352e-21)
(0.0785854 -3.9157 -1.51511e-21)
(0.0772835 -3.69819 2.41184e-21)
(0.0762683 -3.49344 -1.48284e-21)
(0.0755718 -3.30076 7.25253e-22)
(0.075219 -3.11948 9.33968e-22)
(0.075228 -2.94891 -2.81827e-22)
(0.0756088 -2.78842 3.77312e-22)
(0.076365 -2.63738 -4.06906e-22)
(0.0774933 -2.49522 -2.00969e-23)
(0.0789819 -2.36137 1.8736e-22)
(0.080811 -2.23528 -1.27875e-22)
(0.0829863 -2.11645 7.87398e-23)
(0.0855613 -2.0044 1.69244e-22)
(0.0883063 -1.89873 6.29938e-22)
(0.52349 -9.69007 -3.69604e-21)
(0.35525 -9.16045 2.49267e-20)
(0.333598 -8.65921 -1.29156e-20)
(0.325608 -8.18757 -1.6222e-20)
(0.309865 -7.7434 -6.696e-21)
(0.295129 -7.32331 -4.53995e-21)
(0.282057 -6.92495 -9.39742e-21)
(0.269807 -6.54669 1.29007e-21)
(0.258165 -6.18737 -2.02149e-21)
(0.247071 -5.84612 -6.30804e-21)
(0.236472 -5.52229 -1.39077e-20)
(0.226342 -5.21531 6.37682e-21)
(0.216685 -4.92468 -2.27364e-21)
(0.207518 -4.64987 8.54622e-22)
(0.198868 -4.39036 -4.5678e-21)
(0.190765 -4.14557 -1.52396e-21)
(0.183238 -3.91489 2.03457e-22)
(0.176315 -3.69769 4.73743e-21)
(0.170017 -3.49329 -2.55657e-21)
(0.16436 -3.30102 -1.36258e-21)
(0.159353 -3.12019 -4.73049e-21)
(0.154996 -2.9501 1.18357e-21)
(0.151284 -2.79012 -6.87684e-22)
(0.148204 -2.63961 1.15782e-21)
(0.145737 -2.49798 -4.94955e-22)
(0.143855 -2.36467 -7.46765e-22)
(0.142525 -2.23912 2.54748e-22)
(0.141745 -2.1208 3.45796e-22)
(0.141576 -2.00924 -6.3082e-22)
(0.141721 -1.90403 2.79758e-22)
(0.776764 -9.6725 -1.71377e-21)
(0.595156 -9.14806 5.56204e-21)
(0.560668 -8.6484 8.67912e-21)
(0.540539 -8.17785 5.61532e-20)
(0.513375 -7.73481 -3.01841e-20)
(0.487841 -7.31563 2.75648e-20)
(0.464521 -6.91796 1.60755e-20)
(0.442526 -6.54024 1.12479e-20)
(0.421614 -6.18134 -9.95575e-21)
(0.401704 -5.84043 -4.46648e-22)
(0.382727 -5.51688 2.25575e-20)
(0.364649 -5.21016 3.28715e-21)
(0.347461 -4.9198 -9.19014e-21)
(0.331172 -4.64528 7.12489e-21)
(0.315797 -4.38609 1.29215e-22)
(0.301355 -4.14166 2.65758e-21)
(0.287862 -3.91139 1.84066e-21)
(0.275329 -3.69465 5.56786e-21)
(0.263764 -3.49075 -2.53307e-21)
(0.253164 -3.29903 -8.33376e-22)
(0.243523 -3.11877 -1.8332e-21)
(0.234824 -2.9493 7.67344e-21)
(0.227045 -2.78995 -6.21734e-21)
(0.220156 -2.64008 2.01456e-21)
(0.214123 -2.4991 7.66177e-22)
(0.208903 -2.36643 -3.27654e-21)
(0.204443 -2.24151 4.25506e-21)
(0.200737 -2.1238 -4.75383e-22)
(0.197852 -2.01283 -4.56845e-22)
(0.195424 -1.90816 -2.93088e-21)
(1.02938 -9.64857 -6.18092e-20)
(0.834461 -9.12961 -5.22807e-20)
(0.787249 -8.63181 -5.99207e-20)
(0.755096 -8.16267 3.13003e-21)
(0.716598 -7.72105 3.73341e-21)
(0.680322 -7.30306 -5.78093e-20)
(0.646792 -6.90635 3.09532e-21)
(0.615078 -6.52941 6.58851e-21)
(0.58491 -6.17115 -1.40676e-21)
(0.556191 -5.83079 9.72807e-21)
(0.528841 -5.50773 -3.81415e-20)
(0.502816 -5.20148 -2.13919e-20)
(0.478101 -4.91157 8.41599e-21)
(0.454694 -4.63752 1.4183e-20)
(0.432601 -4.37883 -1.64546e-20)
(0.41183 -4.13493 -2.41515e-21)
(0.392382 -3.90522 -8.57678e-21)
(0.374255 -3.68908 -3.80166e-21)
(0.35744 -3.48583 5.95423e-21)
(0.341919 -3.29479 -7.4047e-21)
(0.327668 -3.11525 5.99174e-21)
(0.314653 -2.94652 -7.07773e-21)
(0.302836 -2.78791 -5.19788e-21)
(0.292171 -2.6388 -3.47302e-21)
(0.282606 -2.49858 -1.09959e-21)
(0.274076 -2.36665 -6.70919e-21)
(0.266522 -2.24246 6.84568e-22)
(0.259922 -2.12546 1.09487e-21)
(0.254352 -2.01515 -3.04444e-21)
(0.249379 -1.91111 7.20172e-22)
(1.28126 -9.61823 -3.69942e-20)
(1.07313 -9.10512 4.95953e-21)
(1.01327 -8.60949 4.28415e-20)
(0.969175 -8.14206 4.17423e-20)
(0.919416 -7.70215 2.80244e-20)
(0.872456 -7.28562 1.0924e-20)
(0.828756 -6.89012 1.62772e-20)
(0.787349 -6.51419 6.80645e-20)
(0.747943 -6.1568 -4.03007e-20)
(0.710427 -5.81721 1.42813e-21)
(0.674713 -5.49485 9.00812e-21)
(0.640749 -5.18926 3.36033e-20)
(0.608512 -4.89999 -2.20736e-20)
(0.577996 -4.6266 1.48109e-20)
(0.549196 -4.36857 -1.52598e-20)
(0.522108 -4.12536 2.50508e-20)
(0.496722 -3.89638 -7.28984e-21)
(0.47302 -3.681 2.59712e-22)
(0.450977 -3.47854 1.00612e-20)
(0.43056 -3.28831 6.46344e-21)
(0.411727 -3.10961 -6.63684e-21)
(0.394427 -2.94174 8.44759e-21)
(0.378605 -2.78401 -3.59277e-21)
(0.364196 -2.63577 4.10099e-21)
(0.35113 -2.4964 5.09993e-21)
(0.339332 -2.36532 1.67345e-21)
(0.328715 -2.24195 5.0768e-21)
(0.319259 -2.12575 -2.03271e-21)
(0.311037 -2.01619 -7.34687e-22)
(0.30355 -1.91288 -2.85048e-21)
(1.53225 -9.58144 -2.64912e-20)
(1.31107 -9.07458 -1.71709e-20)
(1.23862 -8.58146 -4.77346e-20)
(1.18266 -8.11605 -1.14489e-19)
(1.12171 -7.67812 3.92544e-20)
(1.06413 -7.26331 2.13965e-21)
(1.0103 -6.86927 -2.2641e-20)
(0.959228 -6.4946 3.37672e-21)
(0.910607 -6.1383 -3.72085e-21)
(0.86431 -5.79969 -4.67086e-20)
(0.820243 -5.47823 1.99156e-20)
(0.77835 -5.1735 3.07565e-20)
(0.738604 -4.88507 3.31698e-22)
(0.700991 -4.6125 1.02071e-20)
(0.665498 -4.35531 2.30608e-20)
(0.63211 -4.11296 -1.51488e-20)
(0.600805 -3.88486 2.53353e-20)
(0.571551 -3.67038 -1.13785e-20)
(0.544307 -3.46885 1.91615e-20)
(0.519023 -3.27958 -1.38893e-20)
(0.495639 -3.10186 5.96972e-21)
(0.474088 -2.93497 1.4276e-20)
(0.454294 -2.77824 2.83259e-22)
(0.436176 -2.63098 -1.24156e-20)
(0.419648 -2.49258 6.74364e-21)
(0.404616 -2.36244 7.18188e-22)
(0.390979 -2.23999 -1.9034e-21)
(0.378704 -2.12467 7.1431e-21)
(0.367868 -2.01596 2.2896e-21)
(0.357899 -1.91344 -2.43931e-21)
(1.78221 -9.5382 7.18596e-20)
(1.54814 -9.038 -6.11727e-21)
(1.4632 -8.54774 -9.65715e-20)
(1.39544 -8.08465 1.92729e-20)
(1.32338 -7.64899 -2.3088e-20)
(1.25522 -7.23616 1.89134e-20)
(1.19131 -6.84382 3.59895e-20)
(1.13061 -6.47063 5.92161e-20)
(1.07279 -6.11565 -5.9793e-20)
(1.01774 -5.77823 1.4791e-20)
(0.965332 -5.45789 -8.26475e-21)
(0.915526 -5.15421 5.96353e-21)
(0.868285 -4.8668 -2.66684e-20)
(0.823591 -4.59524 -1.03492e-21)
(0.781422 -4.33906 3.72883e-20)
(0.741755 -4.09773 -2.56073e-20)
(0.704554 -3.87067 -1.47784e-20)
(0.669774 -3.65725 -9.59938e-21)
(0.637359 -3.45679 1.78583e-20)
(0.607239 -3.2686 3.42846e-21)
(0.579339 -3.09198 -1.56424e-20)
(0.553573 -2.92621 1.97545e-20)
(0.529845 -2.77058 -1.73907e-20)
(0.508058 -2.62442 1.08373e-20)
(0.488108 -2.48709 -6.04296e-21)
(0.469884 -2.358 3.65834e-21)
(0.453268 -2.23656 2.50635e-21)
(0.438215 -2.12223 -1.14677e-20)
(0.424804 -2.01443 4.83101e-21)
(0.41239 -1.9128 7.44717e-23)
(2.03096 -9.48853 -6.98219e-20)
(1.7842 -8.99539 5.82911e-20)
(1.68686 -8.50833 -9.38381e-20)
(1.6074 -8.04787 1.76252e-19)
(1.52429 -7.61476 -4.7134e-20)
(1.44562 -7.20417 6.02793e-20)
(1.37167 -6.81377 -2.63741e-21)
(1.30138 -6.4423 -9.12676e-21)
(1.2344 -6.08886 -1.00622e-20)
(1.1706 -5.75285 5.57212e-22)
(1.10988 -5.43382 -3.50298e-20)
(1.05218 -5.13139 1.84055e-20)
(0.997463 -4.84519 -1.96163e-20)
(0.945707 -4.57483 -1.7607e-21)
(0.896885 -4.31983 -4.95595e-20)
(0.850963 -4.07969 1.63166e-20)
(0.807893 -3.85381 8.17889e-21)
(0.767617 -3.64159 -9.40385e-21)
(0.730061 -3.44234 -1.13461e-21)
(0.695142 -3.25538 -1.28813e-20)
(0.662763 -3.07999 -4.36576e-21)
(0.63282 -2.91544 1.5386e-22)
(0.6052 -2.76104 -9.82652e-21)
(0.579789 -2.61608 -1.36324e-20)
(0.556462 -2.47994 6.90802e-22)
(0.535093 -2.35199 -1.44147e-21)
(0.515538 -2.23167 3.81356e-21)
(0.497751 -2.1184 -9.0771e-21)
(0.481805 -2.01161 7.48223e-21)
(0.466985 -1.91095 -1.42821e-20)
(2.27834 -9.43244 -1.7485e-19)
(2.01912 -8.94676 2.01409e-19)
(1.90948 -8.46326 -1.98801e-19)
(1.8184 -8.00574 -4.8884e-20)
(1.72432 -7.57545 -2.84138e-20)
(1.63521 -7.16736 -2.94737e-20)
(1.55127 -6.77915 -2.68608e-20)
(1.47143 -6.40962 -6.89355e-21)
(1.39532 -6.05795 -2.5423e-20)
(1.32281 -5.72355 -4.57507e-21)
(1.25379 -5.40604 3.46496e-20)
(1.18822 -5.10505 -2.19837e-20)
(1.12605 -4.82026 -2.26984e-20)
(1.06725 -4.55126 -3.4445e-20)
(1.0118 -4.29762 7.02355e-20)
(0.959652 -4.05882 -2.56908e-20)
(0.910744 -3.83429 9.11918e-21)
(0.865004 -3.62342 -3.15654e-20)
(0.822345 -3.42552 1.2144e-20)
(0.782663 -3.23991 -4.37913e-21)
(0.745846 -3.06587 5.83523e-21)
(0.71177 -2.90268 -1.74168e-21)
(0.680304 -2.74961 1.56755e-20)
(0.651314 -2.60598 -5.39744e-21)
(0.624659 -2.47112 1.40702e-20)
(0.600186 -2.34442 -2.12254e-21)
(0.577746 -2.2253 1.74117e-20)
(0.557267 -2.11317 4.29579e-21)
(0.538833 -2.00748 7.90268e-21)
(0.521647 -1.90786 -2.53955e-20)
(2.5242 -9.36998 2.76945e-19)
(2.25274 -8.89214 -5.43058e-20)
(2.13093 -8.41254 8.27073e-20)
(2.02832 -7.95826 -2.2265e-20)
(1.92337 -7.53108 7.72145e-20)
(1.82388 -7.12574 6.71888e-20)
(1.73 -6.73995 7.14608e-20)
(1.64065 -6.3726 -4.74307e-21)
(1.55544 -6.02291 -5.98986e-20)
(1.47425 -5.69034 8.71909e-20)
(1.39696 -5.37455 -4.22233e-21)
(1.32354 -5.07521 5.49048e-20)
(1.25394 -4.792 1.84851e-20)
(1.18814 -4.52455 7.13216e-21)
(1.12609 -4.27243 1.00851e-20)
(1.06774 -4.03514 1.32236e-20)
(1.01303 -3.81212 2.01302e-20)
(0.961863 -3.60273 -5.15838e-21)
(0.914139 -3.40633 2.66899e-20)
(0.869737 -3.22221 1.12382e-20)
(0.828526 -3.04964 -2.31024e-20)
(0.790363 -2.88792 3.89777e-20)
(0.755099 -2.73631 -4.94922e-20)
(0.722578 -2.5941 4.50557e-20)
(0.692642 -2.46064 -1.44825e-20)
(0.665119 -2.33528 2.91732e-21)
(0.639839 -2.21745 -1.74599e-20)
(0.61672 -2.10656 9.70603e-21)
(0.595845 -2.00203 3.26835e-21)
(0.576339 -1.90354 -3.97823e-21)
(2.76837 -9.30118 -1.57847e-19)
(2.48491 -8.83155 1.41345e-19)
(2.35106 -8.3562 -3.75921e-20)
(2.23703 -7.90547 1.01837e-19)
(2.12129 -7.48167 9.79339e-21)
(2.0115 -7.07933 1.5866e-20)
(1.90775 -6.69621 -1.47583e-19)
(1.80893 -6.33126 -2.39546e-20)
(1.71466 -5.98376 8.3861e-20)
(1.62482 -5.65324 5.72473e-20)
(1.5393 -5.33937 -9.50096e-20)
(1.45806 -5.04187 5.21152e-20)
(1.38106 -4.76043 -5.03174e-20)
(1.30827 -4.49471 3.13827e-20)
(1.23966 -4.24429 -5.08867e-20)
(1.17515 -4.00867 -3.48433e-20)
(1.11467 -3.78729 3.30712e-21)
(1.05812 -3.57955 -1.38296e-20)
(1.00537 -3.38477 2.57589e-20)
(0.956294 -3.20226 9.51117e-21)
(0.910736 -3.0313 -6.28816e-21)
(0.868535 -2.87116 -1.80278e-21)
(0.829522 -2.72111 6.1289e-21)
(0.793523 -2.58044 -2.09359e-20)
(0.760358 -2.44848 3.33494e-20)
(0.729837 -2.32456 -8.2574e-21)
(0.701767 -2.20811 -3.53685e-22)
(0.676065 -2.09855 2.61513e-20)
(0.652795 -1.99526 3.0464e-21)
(0.631021 -1.89797 -3.68428e-21)
(3.01068 -9.22607 4.58546e-21)
(2.71549 -8.76502 -8.56519e-20)
(2.56975 -8.29426 -7.19961e-20)
(2.44441 -7.84739 -1.10694e-19)
(2.31798 -7.42723 3.30222e-21)
(2.19796 -7.02815 -6.73466e-20)
(2.0844 -6.64793 8.02188e-20)
(1.97616 -6.28561 -7.76698e-21)
(1.87288 -5.94053 5.28515e-20)
(1.77442 -5.61225 -4.65452e-20)
(1.6807 -5.30051 -2.17379e-20)
(1.59167 -5.00504 1.11461e-20)
(1.50731 -4.72556 5.58313e-21)
(1.42758 -4.46175 -5.2149e-20)
(1.35243 -4.21319 3.03165e-20)
(1.2818 -3.9794 -1.31923e-20)
(1.21559 -3.75983 3.7917e-20)
(1.1537 -3.55387 -1.16926e-20)
(1.09597 -3.36085 1.19906e-20)
(1.04227 -3.18009 2.66248e-21)
(0.99241 -3.01085 1.80435e-20)
(0.946224 -2.85241 -3.86239e-21)
(0.903516 -2.70404 2.72975e-20)
(0.864092 -2.56501 -3.00184e-20)
(0.827752 -2.43464 -9.51846e-21)
(0.79429 -2.31227 7.5547e-21)
(0.763487 -2.1973 -8.70314e-22)
(0.735251 -2.08914 -1.22711e-20)
(0.709642 -1.98717 9.75249e-21)
(0.685648 -1.89115 -1.13029e-20)
(3.25098 -9.14472 2.63542e-19)
(2.94433 -8.6926 6.9317e-20)
(2.78684 -8.22675 7.67316e-20)
(2.65031 -7.78403 9.541e-20)
(2.5133 -7.36779 1.35384e-19)
(2.38314 -6.97221 -3.6088e-21)
(2.25983 -6.59512 1.96362e-20)
(2.14223 -6.23566 1.26115e-19)
(2.02997 -5.89321 -2.65799e-20)
(1.92294 -5.5674 -4.10378e-20)
(1.82106 -5.25799 6.88317e-20)
(1.72428 -4.96474 9.73293e-21)
(1.63259 -4.68741 9.54741e-22)
(1.54595 -4.42568 1.48811e-20)
(1.46432 -4.17916 2.37721e-20)
(1.38761 -3.94736 -4.55345e-20)
(1.31572 -3.72974 3.79463e-20)
(1.24852 -3.52571 5.98103e-21)
(1.18587 -3.33459 3.26118e-20)
(1.12758 -3.15569 -1.75639e-20)
(1.07348 -2.9883 2.69366e-20)
(1.02336 -2.83167 -2.76006e-20)
(0.977016 -2.68508 2.57564e-20)
(0.934225 -2.54779 2.89867e-21)
(0.89477 -2.41912 -1.63173e-20)
(0.858422 -2.29839 -4.75618e-21)
(0.824946 -2.185 2.86005e-20)
(0.794231 -2.07833 2.03974e-20)
(0.766343 -1.97776 5.25406e-21)
(0.740177 -1.88308 -3.42564e-21)
(3.4891 -9.05716 2.64524e-20)
(3.17127 -8.61432 5.59051e-20)
(3.0022 -8.15371 2.12615e-19)
(2.85463 -7.71544 -3.40438e-19)
(2.70714 -7.30338 -2.93781e-20)
(2.56693 -6.91154 -3.28036e-20)
(2.43393 -6.53783 1.50374e-20)
(2.30703 -6.18144 1.72799e-20)
(2.18585 -5.84184 2.58093e-20)
(2.07029 -5.5187 -6.67797e-20)
(1.96028 -5.21182 -9.72275e-21)
(1.8558 -4.92099 3.4569e-20)
(1.75682 -4.646 3.2928e-20)
(1.66332 -4.38653 -3.33769e-20)
(1.57524 -4.1422 -2.86497e-20)
(1.49249 -3.91255 4.89739e-20)
(1.41497 -3.69704 2.89954e-20)
(1.34252 -3.49507 -8.15614e-21)
(1.27499 -3.30598 -1.72102e-20)
(1.21218 -3.12908 2.78942e-21)
(1.15388 -2.96365 -3.53187e-20)
(1.09989 -2.80895 4.13453e-20)
(1.04996 -2.66424 -2.73142e-20)
(1.00386 -2.5288 -7.6059e-22)
(0.961355 -2.40192 1.68588e-20)
(0.922181 -2.28293 -4.98433e-21)
(0.886094 -2.1712 -1.43276e-20)
(0.852961 -2.06611 1.76186e-20)
(0.822846 -1.96702 -4.61188e-22)
(0.794568 -1.87376 2.77813e-21)
(3.72488 -8.96345 -2.10846e-20)
(3.39617 -8.53022 -6.05742e-20)
(3.2157 -8.07518 -2.45278e-19)
(3.05721 -7.64164 8.8912e-20)
(2.89937 -7.23402 -2.30519e-20)
(2.74919 -6.84617 7.85777e-20)
(2.60659 -6.47605 5.90857e-21)
(2.47044 -6.12296 -7.47554e-20)
(2.34039 -5.78643 1.09561e-19)
(2.21635 -5.46617 -9.46589e-20)
(2.09827 -5.16202 -2.05063e-21)
(1.98612 -4.87381 2.02374e-20)
(1.87991 -4.60134 -3.32662e-20)
(1.77959 -4.34431 3.49591e-20)
(1.6851 -4.10235 -6.46271e-20)
(1.59637 -3.875 -1.23015e-20)
(1.51326 -3.66175 3.67261e-20)
(1.43561 -3.46198 8.75374e-22)
(1.36325 -3.27505 -1.90704e-20)
(1.29597 -3.10027 5.23776e-20)
(1.23355 -2.93691 -2.81811e-20)
(1.17574 -2.78425 -3.49551e-20)
(1.12229 -2.64153 1.10695e-20)
(1.07295 -2.50804 -3.09771e-20)
(1.02744 -2.38305 -6.8032e-21)
(0.985512 -2.26588 -5.62712e-22)
(0.946874 -2.15591 -1.78253e-20)
(0.91139 -2.05248 2.15258e-20)
(0.879107 -1.95495 -1.13865e-20)
(0.848791 -1.86318 1.26734e-20)
(3.95817 -8.86366 -9.59506e-20)
(3.61888 -8.44036 -2.43463e-19)
(3.4272 -7.9912 1.05339e-19)
(3.25794 -7.56268 -9.62267e-20)
(3.08986 -7.15974 -6.42455e-20)
(2.92982 -6.77612 -3.29574e-20)
(2.77769 -6.40983 -1.22974e-19)
(2.63236 -6.06026 8.10375e-20)
(2.4935 -5.727 -1.86768e-19)
(2.36103 -5.40983 -6.01144e-20)
(2.23492 -5.10862 2.48602e-20)
(2.11516 -4.82322 3.52791e-20)
(2.00175 -4.55345 -2.06489e-21)
(1.89466 -4.29903 -5.94873e-20)
(1.79383 -4.05961 1.36279e-20)
(1.69916 -3.83473 -4.73331e-20)
(1.61052 -3.62387 -3.15791e-20)
(1.52773 -3.42645 -1.70971e-20)
(1.4506 -3.24181 -1.9265e-21)
(1.37891 -3.06927 3.04176e-20)
(1.31241 -2.9081 4.02712e-20)
(1.25084 -2.75758 -1.15677e-20)
(1.19393 -2.61696 -1.03973e-20)
(1.14141 -2.4855 2.00978e-20)
(1.09298 -2.3625 1.05651e-20)
(1.04836 -2.24725 -8.40292e-21)
(1.00724 -2.13912 -8.85742e-21)
(0.969471 -2.03745 1.18893e-21)
(0.935093 -1.94154 8.57792e-21)
(0.902781 -1.85135 1.12888e-20)
(4.18881 -8.75785 -1.29228e-20)
(3.83925 -8.34479 3.02337e-19)
(3.63656 -7.90182 2.13227e-19)
(3.45669 -7.47859 1.54229e-19)
(3.2785 -7.08059 -9.86146e-20)
(3.10869 -6.70142 -1.87027e-20)
(2.94712 -6.33918 1.79705e-20)
(2.79267 -5.99335 1.01605e-19)
(2.64506 -5.66359 3.53521e-20)
(2.50422 -5.34972 8.13612e-20)
(2.37014 -5.05164 -1.07637e-19)
(2.24282 -4.76924 1.20454e-20)
(2.12227 -4.50236 3.97925e-20)
(2.00847 -4.25073 2.22614e-20)
(1.90134 -4.014 4.23323e-20)
(1.80079 -3.79174 -3.04234e-20)
(1.70667 -3.58343 -2.48969e-20)
(1.6188 -3.38849 5.73995e-21)
(1.53695 -3.20626 4.90511e-20)
(1.46091 -3.03608 -7.6488e-20)
(1.39039 -2.87722 2.63686e-20)
(1.32513 -2.72895 3.29476e-23)
(1.26483 -2.59052 4.42828e-20)
(1.20919 -2.46121 -1.92064e-20)
(1.1579 -2.34028 -1.34049e-21)
(1.11065 -2.22704 -1.10926e-20)
(1.06712 -2.12084 1.03911e-20)
(1.02714 -2.021 2.46795e-21)
(0.990725 -1.92681 -1.03569e-20)
(0.956485 -1.83825 3.41746e-20)
(4.41664 -8.64607 -3.28045e-19)
(4.05715 -8.24357 -1.81427e-19)
(3.84365 -7.80709 -4.3243e-19)
(3.65333 -7.38941 -1.78723e-19)
(3.46517 -6.99659 1.63096e-19)
(3.28569 -6.62211 -8.60311e-20)
(3.11475 -6.26414 -1.67758e-20)
(2.95127 -5.92227 -4.94069e-20)
(2.79497 -5.59621 8.40278e-20)
(2.64582 -5.28584 -1.79074e-20)
(2.50382 -4.9911 -2.73034e-20)
(2.369 -4.7119 -3.00595e-21)
(2.24137 -4.44809 -9.21292e-20)
(2.12091 -4.19942 7.34997e-23)
(2.00755 -3.96556 2.49681e-20)
(1.90118 -3.74607 -2.26037e-21)
(1.80164 -3.54045 -7.87761e-20)
(1.70873 -3.34811 7.3923e-20)
(1.62224 -3.16843 -6.8793e-20)
(1.5419 -3.00072 2.62052e-20)
(1.46743 -2.84428 3.59207e-21)
(1.39853 -2.69836 1.35822e-21)
(1.3349 -2.56223 -2.44007e-20)
(1.27621 -2.43515 7.67006e-21)
(1.22213 -2.31639 -1.50408e-22)
(1.17233 -2.20525 2.27077e-21)
(1.12645 -2.10107 -5.23463e-20)
(1.08431 -2.00315 1.47694e-20)
(1.04593 -1.91074 1.48442e-20)
(1.00983 -1.8239 1.51771e-20)
(4.6415 -8.52841 6.31559e-19)
(4.27243 -8.13676 1.93116e-19)
(4.04835 -7.70706 1.07964e-19)
(3.84774 -7.2952 1.67611e-19)
(3.64973 -6.90779 -1.78934e-20)
(3.46069 -6.53822 1.09108e-19)
(3.28048 -6.18474 2.26538e-19)
(3.10803 -5.84704 -3.02554e-20)
(2.94311 -5.5249 1.08556e-20)
(2.78572 -5.21825 2.19664e-19)
(2.63587 -4.92704 -3.10408e-20)
(2.49361 -4.65123 2.729e-20)
(2.35896 -4.39067 -7.93117e-21)
(2.2319 -4.14514 2.80834e-21)
(2.11237 -3.9143 1.2191e-19)
(2.00024 -3.69774 4.64911e-21)
(1.89534 -3.49494 1.15707e-19)
(1.79747 -3.30535 -1.55992e-20)
(1.70639 -3.12833 -2.26236e-20)
(1.62181 -2.96321 5.15749e-20)
(1.54345 -2.80928 -4.44134e-20)
(1.47098 -2.66582 4.79854e-20)
(1.40408 -2.53209 2.46433e-20)
(1.3424 -2.40734 -1.87445e-20)
(1.2856 -2.29084 2.86193e-20)
(1.23331 -2.18188 3.37034e-21)
(1.18516 -2.0798 -1.04942e-20)
(1.14094 -1.98389 6.67068e-21)
(1.10066 -1.89335 3.76812e-20)
(1.06277 -1.8083 5.44829e-21)
(4.86325 -8.40495 -1.0907e-19)
(4.48494 -8.02443 -2.01489e-19)
(4.25052 -7.6018 7.48594e-20)
(4.0398 -7.196 -2.9804e-19)
(3.83208 -6.81423 1.30041e-19)
(3.63359 -6.44979 -2.26301e-19)
(3.44418 -6.10102 -1.34476e-19)
(3.26285 -5.7677 3.76267e-20)
(3.08939 -5.4497 2.78712e-20)
(2.92382 -5.14696 -1.58152e-19)
(2.76618 -4.85949 -6.2585e-20)
(2.61655 -4.58725 2.53223e-20)
(2.47495 -4.33013 -7.21994e-20)
(2.34137 -4.08791 -2.64976e-20)
(2.21572 -3.86025 -1.64276e-20)
(2.0979 -3.64676 -1.60998e-20)
(1.98771 -3.44694 -6.31794e-20)
(1.88494 -3.26021 -3.6463e-20)
(1.78933 -3.08597 8.03245e-21)
(1.70058 -2.92355 1.1665e-20)
(1.61839 -2.77224 1.09662e-20)
(1.54241 -2.63133 -3.90764e-20)
(1.4723 -2.50009 1.39039e-20)
(1.4077 -2.37776 -2.81309e-20)
(1.34824 -2.26361 2.50217e-20)
(1.29352 -2.15694 -3.2928e-20)
(1.24317 -2.05705 9.42017e-21)
(1.19694 -1.96322 -1.56309e-20)
(1.15483 -1.87463 -2.09644e-20)
(1.11522 -1.79144 -1.98481e-21)
(5.08173 -8.27575 -2.29369e-19)
(4.69457 -7.90665 -1.83307e-19)
(4.45004 -7.49136 -1.63229e-19)
(4.22939 -7.09186 -1.06648e-19)
(4.01209 -6.71594 3.33039e-19)
(3.80426 -6.35685 4.04489e-20)
(3.60575 -6.013 1.25271e-19)
(3.41562 -5.68429 1.78211e-19)
(3.23369 -5.37063 7.70017e-20)
(3.06001 -5.07201 -1.0411e-19)
(2.89467 -4.78848 1.47737e-19)
(2.73774 -4.52001 -1.40971e-19)
(2.58926 -4.26651 1.23954e-19)
(2.44921 -4.02776 1.27662e-20)
(2.31753 -3.80345 2.8458e-20)
(2.19408 -3.59318 9.7307e-21)
(2.07867 -3.39645 1.03482e-19)
(1.97107 -3.21272 -1.5257e-20)
(1.871 -3.04138 1.25447e-20)
(1.77814 -2.88175 4.00405e-20)
(1.69218 -2.73317 -4.3926e-20)
(1.61276 -2.5949 3.29953e-20)
(1.5395 -2.46623 8.65014e-22)
(1.47204 -2.34641 1.39431e-20)
(1.40997 -2.2347 2.45241e-20)
(1.3529 -2.13039 -4.19853e-21)
(1.30041 -2.03279 2.29949e-20)
(1.25224 -1.94114 3.17789e-20)
(1.20838 -1.85459 -3.47067e-20)
(1.16713 -1.77334 -1.98231e-20)
(5.2968 -8.1409 6.53271e-19)
(4.90118 -7.7835 -7.06963e-20)
(4.6468 -7.3758 1.29735e-19)
(4.41639 -6.98283 2.1769e-19)
(4.18965 -6.61298 -5.93305e-19)
(3.97258 -6.25944 6.09599e-20)
(3.76507 -5.92073 -1.96291e-19)
(3.56623 -5.59684 1.81899e-19)
(3.37591 -5.28773 -1.40782e-19)
(3.19421 -4.99344 6.43291e-20)
(3.02123 -4.71404 -2.37686e-19)
(2.85707 -4.44953 1.24722e-20)
(2.70178 -4.19983 -6.49406e-20)
(2.55535 -3.96472 1.00053e-19)
(2.41771 -3.74392 -1.0106e-19)
(2.28871 -3.53701 -5.11635e-21)
(2.16815 -3.34352 -7.25686e-20)
(2.05579 -3.16291 -4.92558e-21)
(1.95132 -2.99456 4.78159e-21)
(1.85443 -2.83784 1.31812e-20)
(1.76476 -2.69206 -7.68983e-20)
(1.68195 -2.55652 -1.87407e-21)
(1.60561 -2.43051 -3.98381e-20)
(1.53534 -2.31328 -9.01322e-21)
(1.47074 -2.2041 -2.26493e-20)
(1.41137 -2.10224 -2.38557e-20)
(1.35681 -2.00701 -2.37405e-20)
(1.30677 -1.91763 4.0006e-20)
(1.26122 -1.8332 1.0363e-20)
(1.21841 -1.75398 -1.92209e-20)
(5.50832 -8.00048 -4.35165e-19)
(5.10465 -7.65506 1.49767e-19)
(4.84069 -7.2552 -2.3222e-19)
(4.6007 -6.86896 3.29775e-20)
(4.36464 -6.50538 3.28515e-19)
(4.13844 -6.15761 -1.61421e-19)
(3.92202 -5.82426 -1.51904e-19)
(3.71455 -5.5054 -1.25757e-19)
(3.51593 -5.20105 7.5168e-21)
(3.32629 -4.9113 7.3792e-20)
(3.14576 -4.63623 -4.71467e-20)
(2.97446 -4.37587 5.40821e-21)
(2.81245 -4.13013 1.31297e-19)
(2.65972 -3.89884 -6.4798e-20)
(2.51619 -3.68169 1.39573e-20)
(2.38172 -3.47829 -4.58456e-20)
(2.25609 -3.28817 1.74503e-20)
(2.13903 -3.11079 3.52786e-20)
(2.03024 -2.94555 3.64792e-20)
(1.92938 -2.79182 -3.95509e-20)
(1.83607 -2.64893 5.92502e-21)
(1.74993 -2.5162 3.10068e-20)
(1.67056 -2.39292 5.14583e-20)
(1.59754 -2.27835 1.24304e-20)
(1.53046 -2.17177 -5.03957e-20)
(1.46886 -2.07245 5.66156e-20)
(1.41228 -1.97968 -2.81458e-20)
(1.36043 -1.89267 -3.22987e-20)
(1.31327 -1.81047 -1.92515e-20)
(1.26896 -1.73337 -2.49299e-20)
(5.71617 -7.8546 2.25534e-19)
(5.30489 -7.52143 -1.67115e-19)
(5.03161 -7.12961 6.76289e-20)
(4.78219 -6.7503 2.99197e-19)
(4.53694 -6.39319 7.59013e-20)
(4.30171 -6.0514 -5.92133e-20)
(4.07649 -5.72361 1.40867e-19)
(3.86049 -5.41 3.79495e-20)
(3.65366 -5.11063 1.16025e-19)
(3.45617 -4.82562 5.9732e-20)
(3.26818 -4.55508 4.18277e-21)
(3.08982 -4.29905 3.32202e-20)
(2.92117 -4.05747 -9.85221e-21)
(2.76222 -3.83015 1.61798e-20)
(2.6129 -3.61681 4.22405e-20)
(2.47304 -3.41706 -2.18615e-20)
(2.34241 -3.23044 5.16061e-20)
(2.22075 -3.0564 4.95814e-20)
(2.10771 -2.89437 -5.41686e-20)
(2.00294 -2.74372 5.50689e-20)
(1.90605 -2.6038 1.10169e-19)
(1.81665 -2.47394 -6.93286e-20)
(1.7343 -2.35344 6.66806e-20)
(1.65859 -2.2416 -4.6097e-20)
(1.58907 -2.13768 -6.16074e-21)
(1.52528 -2.04098 4.59119e-20)
(1.46674 -1.95077 -9.56628e-21)
(1.41314 -1.86622 3.26575e-20)
(1.36443 -1.78634 3.15763e-20)
(1.3187 -1.71147 -6.05529e-20)
(5.92024 -7.70333 -2.14307e-19)
(5.50182 -7.38267 1.02615e-19)
(5.21946 -6.9991 3.43973e-20)
(4.96076 -6.62688 -3.45345e-19)
(4.70642 -6.27645 -1.63544e-19)
(4.46228 -5.94084 1.15564e-19)
(4.22835 -5.61885 -3.00095e-19)
(4.00392 -5.3107 3.41227e-19)
(3.78898 -5.01652 -1.81969e-19)
(3.58373 -4.73645 2.06233e-20)
(3.38837 -4.47063 -3.45081e-20)
(3.20305 -4.21913 -8.41994e-20)
(3.02785 -3.98188 1.69654e-19)
(2.86278 -3.7587 5.79002e-20)
(2.70775 -3.54933 -6.09766e-20)
(2.56259 -3.35336 1.85576e-21)
(2.42706 -3.17035 2.99677e-20)
(2.30087 -2.99977 -6.13534e-20)
(2.18366 -2.84103 1.32847e-20)
(2.07506 -2.69354 3.93443e-20)
(1.97467 -2.55666 -1.62661e-20)
(1.88205 -2.42973 2.44927e-20)
(1.79678 -2.31207 -4.78757e-20)
(1.71842 -2.203 6.69025e-20)
(1.64651 -2.10181 1.42721e-20)
(1.58058 -2.00777 -4.05816e-20)
(1.52012 -1.92019 -3.33327e-20)
(1.46481 -1.83821 9.94036e-22)
(1.4146 -1.76076 4.47639e-20)
(1.3675 -1.68822 -1.02326e-20)
(6.12046 -7.54676 -5.58747e-20)
(5.69537 -7.23887 -3.75888e-19)
(5.40416 -6.86369 4.36926e-19)
(5.13628 -6.49875 2.75885e-19)
(4.87297 -6.15519 2.53423e-19)
(4.62001 -5.82599 6.09537e-20)
(4.37749 -5.51001 9.31477e-20)
(4.14473 -5.20754 4.42919e-20)
(3.92178 -4.91876 -1.64296e-19)
(3.70888 -4.64385 2.91542e-19)
(3.50625 -4.38296 -2.13704e-19)
(3.31406 -4.13616 -9.57746e-21)
(3.13242 -3.90341 3.11633e-20)
(2.96132 -3.68454 -1.15287e-19)
(2.80068 -3.47927 9.9053e-20)
(2.65032 -3.28723 -2.92438e-20)
(2.50998 -3.10796 -6.88736e-20)
(2.37935 -2.94093 2.43188e-20)
(2.25805 -2.78559 -4.74677e-20)
(2.1457 -2.64134 -3.99066e-20)
(2.04187 -2.50755 -4.04108e-20)
(1.94611 -2.38359 8.96431e-21)
(1.85798 -2.2688 4.17692e-21)
(1.77701 -2.16253 -9.06372e-20)
(1.70275 -2.06408 -3.24972e-20)
(1.6347 -1.97276 2.17753e-20)
(1.57234 -1.88786 2.53574e-20)
(1.51535 -1.80853 -3.44062e-20)
(1.46368 -1.73362 -1.25445e-20)
(1.41526 -1.66353 1.27425e-21)
(6.31685 -7.38495 -5.927e-20)
(5.8855 -7.09008 2.43729e-19)
(5.58559 -6.72343 -6.77824e-20)
(5.30864 -6.36593 -8.13279e-20)
(5.03644 -6.02945 -3.91366e-19)
(4.77479 -5.70689 -7.41287e-20)
(4.52378 -5.39714 1.45748e-19)
(4.2828 -5.10059 -8.7435e-20)
(4.05195 -4.81743 -6.90196e-21)
(3.8315 -4.54787 -1.66151e-20)
(3.62171 -4.2921 7.95172e-20)
(3.42277 -4.05019 -1.23501e-19)
(3.23479 -3.82212 -7.69044e-20)
(3.05777 -3.60772 8.54547e-20)
(2.89163 -3.40671 -4.59145e-20)
(2.73616 -3.21872 -5.19109e-20)
(2.59111 -3.04331 1.08733e-19)
(2.45613 -2.87994 -1.6871e-20)
(2.33085 -2.72808 5.75799e-20)
(2.21483 -2.58713 -5.24802e-20)
(2.10764 -2.45648 -3.98473e-20)
(2.0088 -2.33552 3.38551e-20)
(1.91786 -2.22363 -4.26545e-21)
(1.83434 -2.12016 -2.37459e-20)
(1.75777 -2.02445 2.02793e-20)
(1.68763 -1.93584 -6.07096e-20)
(1.6234 -1.85365 3.69794e-20)
(1.56473 -1.77702 -5.73828e-22)
(1.51161 -1.70475 -3.60484e-20)
(1.46192 -1.63718 5.24439e-20)
(6.50971 -7.21815 1.99803e-19)
(6.0723 -6.9364 -4.93082e-19)
(5.76364 -6.57832 -3.38515e-20)
(5.47766 -6.22843 1.98835e-19)
(5.19669 -5.89926 -4.74357e-20)
(4.92645 -5.58357 -1.22992e-19)
(4.66707 -5.2803 5.61129e-20)
(4.418 -4.98988 5.84484e-20)
(4.17937 -4.71256 4.20528e-21)
(3.9515 -4.44858 6.40645e-20)
(3.73466 -4.19812 1.90365e-19)
(3.52908 -3.96129 -6.777e-20)
(3.33487 -3.73807 1.40835e-20)
(3.15205 -3.52829 -3.63864e-20)
(2.98051 -3.33169 1.42333e-19)
(2.82005 -3.14789 -2.37114e-20)
(2.67039 -2.97645 7.60232e-20)
(2.53118 -2.81685 -2.78245e-20)
(2.402 -2.66855 2.90308e-20)
(2.28241 -2.53096 4.19924e-20)
(2.17195 -2.4035 6.57738e-21)
(2.07012 -2.28558 2.61743e-20)
(1.97645 -2.17657 -2.07587e-20)
(1.89043 -2.07588 5.7335e-20)
(1.81159 -1.98288 -2.27753e-20)
(1.73939 -1.89693 8.06903e-20)
(1.6733 -1.81742 -2.32626e-20)
(1.61296 -1.74349 1.52215e-20)
(1.5584 -1.67386 -2.82312e-20)
(1.50753 -1.60892 5.09671e-20)
(6.69979 -7.04665 -4.564e-19)
(6.25597 -6.77772 1.8267e-20)
(5.93819 -6.42824 -2.2252e-19)
(5.64317 -6.0862 3.89973e-20)
(5.35353 -5.76463 9.02559e-21)
(5.07484 -5.45609 -1.62824e-19)
(4.80723 -5.15955 -2.86343e-19)
(4.5502 -4.8755 1.36042e-19)
(4.30392 -4.60424 -1.85795e-19)
(4.06875 -4.34602 -8.94273e-20)
(3.84499 -4.10108 -4.70609e-20)
(3.63289 -3.86952 -3.46967e-20)
(3.43258 -3.65131 -4.52754e-22)
(3.24407 -3.44632 -1.17476e-19)
(3.06725 -3.25427 6.95238e-20)
(2.90192 -3.07479 -1.13636e-19)
(2.74777 -2.90744 -2.66978e-20)
(2.60443 -2.75171 2.85917e-20)
(2.47147 -2.60705 3.45067e-20)
(2.34842 -2.4729 3.26757e-20)
(2.23478 -2.34867 2.39063e-20)
(2.13006 -2.23379 -5.8793e-20)
(2.03374 -2.12767 5.76406e-20)
(1.94531 -2.02972 -6.19177e-21)
(1.86426 -1.93935 -1.47541e-20)
(1.79005 -1.85597 -5.61572e-20)
(1.72211 -1.77897 -2.87121e-20)
(1.66003 -1.70751 5.24622e-20)
(1.6039 -1.64035 -1.72585e-20)
(1.55175 -1.57834 -1.65306e-20)
(6.8875 -6.86964 2.05666e-19)
(6.4364 -6.61323 2.41087e-20)
(6.10899 -6.27289 -4.58743e-20)
(5.80492 -5.93928 -4.74347e-21)
(5.5068 -5.62569 -6.54224e-20)
(5.21984 -5.32459 2.1975e-19)
(4.94417 -5.03502 -9.78518e-20)
(4.67933 -4.75757 6.45124e-20)
(4.42553 -4.49258 2.71645e-20)
(4.18319 -4.24034 8.13157e-20)
(3.95264 -4.00109 -2.65747e-20)
(3.73414 -3.77497 1.53239e-19)
(3.52785 -3.56195 -1.24589e-20)
(3.33378 -3.3619 8.80586e-20)
(3.15181 -3.17454 -1.39547e-19)
(2.98172 -2.99951 -7.6713e-21)
(2.8232 -2.83636 8.41251e-20)
(2.67585 -2.6846 -4.92473e-20)
(2.53922 -2.54367 -3.35567e-20)
(2.41283 -2.41302 -5.53904e-20)
(2.29614 -2.29208 -4.55282e-20)
(2.18864 -2.18027 4.99853e-20)
(2.0898 -2.07703 -4.36379e-20)
(1.99908 -1.98178 1.01258e-20)
(1.91596 -1.89396 3.42322e-20)
(1.83989 -1.81298 2.27899e-20)
(1.77027 -1.7382 2.09361e-20)
(1.70655 -1.66871 1.47431e-20)
(1.64839 -1.60358 -4.01863e-20)
(1.59432 -1.54442 -1.62476e-20)
(9.76717 0.0128124 2.53644e-21)
(9.76114 -0.244615 2.30735e-20)
(9.749 -0.500642 8.02565e-20)
(9.73094 -0.755689 4.29569e-20)
(9.70653 -1.00988 -9.51167e-20)
(9.67554 -1.26318 2.83568e-20)
(9.63794 -1.51547 -2.83981e-20)
(9.59377 -1.76662 -7.36119e-20)
(9.54304 -2.01648 1.97484e-19)
(9.48577 -2.26489 -4.73079e-20)
(9.42202 -2.51167 -4.42768e-20)
(9.35183 -2.75666 -9.93011e-20)
(9.27523 -2.99969 -2.8879e-19)
(9.19231 -3.2406 2.73987e-20)
(9.10313 -3.47924 -5.48618e-21)
(9.00776 -3.71543 -9.93909e-20)
(8.90627 -3.94901 1.95379e-19)
(8.79872 -4.17984 1.11253e-19)
(8.68522 -4.40775 2.02048e-19)
(8.56583 -4.6326 9.59856e-20)
(8.44064 -4.85423 -2.35592e-19)
(8.30975 -5.07251 1.13537e-20)
(8.17325 -5.2873 -4.45166e-19)
(8.03125 -5.49845 6.78931e-19)
(7.88384 -5.70584 -2.18231e-19)
(7.73114 -5.90936 -2.97636e-19)
(7.57329 -6.10892 -4.32333e-20)
(7.41041 -6.30447 -6.0188e-21)
(7.24263 -6.49608 -2.33502e-19)
(7.07051 -6.68383 4.06042e-19)
(9.31462 -0.126429 8.83162e-21)