/*--------------------------------*- C++ -*----------------------------------*\
  =========                 |
  \\      /  F ield         | OpenFOAM: The Open Source CFD Toolbox
   \\    /   O peration     | Website:  https://openfoam.org
    \\  /    A nd           | Version:  6.0
     \\/     M anipulation  |
\*---------------------------------------------------------------------------*/
FoamFile
{
    version     2.0;
    format      ascii;
    class       surfaceScalarField;
    location    "16.25";
    object      phi;
}
// * * * * * * * * * * * * * * * * * * * * * * * * * * * * * * * * * * * * * //

dimensions      [0 3 -1 0 0 0 0];

internalField   nonuniform List<scalar> 
18940
(
0.000110993
-0.115553
0.115442
0.000521307
-0.102003
0.101593
0.00121945
-0.092035
0.0913369
0.00217579
-0.0846552
0.0836988
0.00335407
-0.0791333
0.077955
0.00471615
-0.0749295
0.0735675
0.00622537
-0.0716554
0.0701461
0.00784821
-0.0690341
0.0674112
0.00955499
-0.0668691
0.0651624
0.01132
-0.0650215
0.0632564
0.0131216
-0.063393
0.0615914
0.0149417
-0.0619149
0.0600949
0.0167655
-0.0605391
0.0587153
0.0185816
-0.0592319
0.0574159
0.0203807
-0.0579695
0.0561704
0.0221561
-0.0567345
0.0549591
0.0239026
-0.0555133
0.0537668
0.0256162
-0.0542937
0.0525801
0.0272929
-0.0530632
0.0513865
-0.0518068
0.0501713
0.0289284
0.00013141
-0.115684
0.000570365
-0.102442
0.00130515
-0.0927698
0.00230238
-0.0856524
0.00352198
-0.0803529
0.00492303
-0.0763306
0.00646681
-0.0731991
0.00811839
-0.0706857
0.0098472
-0.0685979
0.0116271
-0.0668013
0.0134361
-0.065202
0.0152564
-0.0637352
0.0170736
-0.0623564
0.0188767
-0.061035
0.0206571
-0.05975
0.022409
-0.0584864
0.024128
-0.0572323
0.0258111
-0.0559768
0.0274557
-0.0547078
-0.0534097
0.0290586
0.000147065
-0.115831
0.000614995
-0.10291
0.00138585
-0.0935407
0.00242205
-0.0866886
0.00367994
-0.0816108
0.00511594
-0.0777666
0.00668948
-0.0747727
0.00836435
-0.0723605
0.0101092
-0.0703428
0.0118976
-0.0685897
0.0137076
-0.067012
0.0155214
-0.0655491
0.0173254
-0.0641603
0.0191089
-0.0628185
0.0208644
-0.0615055
0.0225867
-0.0602087
0.0242726
-0.0589181
0.02592
-0.0576241
0.0275275
-0.0563153
-0.0549757
0.0290934
0.000160876
-0.115992
0.000656615
-0.103406
0.00146195
-0.094346
0.00253457
-0.0877612
0.00382731
-0.0829035
0.005294
-0.0792333
0.00689231
-0.076371
0.00858492
-0.0740531
0.0103399
-0.0720978
0.0121304
-0.0703803
0.0139349
-0.0688165
0.0157359
-0.0673502
0.0175203
-0.0659447
0.0192782
-0.0645764
0.0210029
-0.0632302
0.0226902
-0.061896
0.0243378
-0.0605657
0.0259449
-0.0592313
0.0275113
-0.0578817
-0.056501
0.0290366
0.00017366
-0.116166
0.000695728
-0.103928
0.00153349
-0.0951838
0.00263965
-0.0888674
0.00396352
-0.0842274
0.00545643
-0.0807262
0.00707441
-0.077989
0.00877914
-0.0757579
0.0105382
-0.0738568
0.0123248
-0.0721669
0.0141175
-0.0706092
0.0158995
-0.0691322
0.0176583
-0.0677034
0.0193849
-0.066303
0.0210735
-0.0649188
0.0227208
-0.0635434
0.0243258
-0.0621707
0.0258887
-0.0607941
0.0274105
-0.0594035
-0.0579827
0.0288922
0.000185695
-0.116351
0.000732526
-0.104475
0.0016004
-0.0960516
0.002737
-0.090004
0.00408808
-0.0855785
0.00560262
-0.0822407
0.00723508
-0.0796214
0.00894631
-0.0774691
0.0107036
-0.0756141
0.0124802
-0.0739436
0.0142552
-0.0723841
0.0160123
-0.0708893
0.0177399
-0.069431
0.0194299
-0.067993
0.0210776
-0.0665664
0.0226806
-0.0651465
0.0242391
-0.0637292
0.0257544
-0.0623094
0.0272287
-0.0608778
-0.0594185
0.0286645
0.00019707
-0.116548
0.000767045
-0.105045
0.00166259
-0.0969472
0.00282634
-0.0911677
0.00420063
-0.0869528
0.00573211
-0.0837722
0.00737386
-0.0812632
0.00908603
-0.0791813
0.0108357
-0.0773638
0.0125966
-0.0757044
0.0143481
-0.0741356
0.0160749
-0.0726161
0.0177661
-0.0711222
0.0194148
-0.0696416
0.021017
-0.0681687
0.0225719
-0.0667013
0.0240805
-0.0652377
0.0255453
-0.0637742
0.0269698
-0.0623024
-0.0608064
0.0283578
0.000207798
-0.116756
0.000799264
-0.105636
0.00171993
-0.0978678
0.00290751
-0.0923553
0.00430091
-0.0883462
0.00584463
-0.0853159
0.00749051
-0.0829091
0.00919817
-0.0808889
0.0109348
-0.0791004
0.0126743
-0.077444
0.0143969
-0.0758583
0.0160882
-0.0743074
0.0177383
-0.0727723
0.0193411
-0.0712445
0.0208941
-0.0697217
0.0223974
-0.0682046
0.023853
-0.0666934
0.0252649
-0.0651861
0.0266377
-0.0636752
-0.0621451
0.0279764
0.000217867
-0.116974
0.000829141
-0.106247
0.00177237
-0.0988111
0.00298037
-0.0935633
0.0043888
-0.0897546
0.00594009
-0.0868672
0.00758502
-0.084554
0.00928287
-0.0825868
0.011001
-0.0808184
0.0127139
-0.0791569
0.0144026
-0.077547
0.0160536
-0.0759584
0.0176581
-0.0743768
0.0192112
-0.0727976
0.0207114
-0.0712219
0.0221598
-0.069653
0.0235599
-0.0680935
0.0249167
-0.0665429
0.0262361
-0.0649946
-0.0634333
0.0275244
0.000227251
-0.117201
0.000856654
-0.106877
0.00181988
-0.0997743
0.00304493
-0.0947883
0.0044643
-0.091174
0.00601857
-0.0884215
0.00765761
-0.086193
0.00934055
-0.0842697
0.011035
-0.0825129
0.0127164
-0.0808382
0.0143665
-0.0791971
0.0159729
-0.0775648
0.0175278
-0.0759317
0.0190276
-0.0742973
0.0204717
-0.072666
0.0218625
-0.0710438
0.0232046
-0.0694356
0.0245042
-0.0678425
0.0257686
-0.066259
-0.0646699
0.0270052
0.000235938
-0.117437
0.000881815
-0.107523
0.00186252
-0.100755
0.00310128
-0.0960271
0.00452758
-0.0926003
0.00608033
-0.0899742
0.00770872
-0.0878214
0.00937189
-0.0859329
0.011038
-0.0841791
0.0126832
-0.0824834
0.0142904
-0.0808043
0.0158482
-0.0791226
0.01735
-0.0774335
0.0187931
-0.0757405
0.0201783
-0.0740512
0.0215088
-0.0723743
0.0227905
-0.0707173
0.0240308
-0.0690829
0.0252384
-0.0674665
-0.0658535
0.026422
0.000243924
-0.117681
0.000904694
-0.108183
0.00190041
-0.101751
0.00314961
-0.0972763
0.00457893
-0.0940296
0.00612582
-0.0915211
0.007739
-0.0894346
0.00937781
-0.0875717
0.0110111
-0.0858123
0.0126159
-0.0840882
0.0141763
-0.0823647
0.015682
-0.0806283
0.0171275
-0.078879
0.0185112
-0.0771242
0.0198347
-0.0753747
0.0211024
-0.0736421
0.0223213
-0.0719361
0.0235
-0.0702616
0.0246488
-0.0686153
-0.0669825
0.0257777
0.000251243
-0.117932
0.000925439
-0.108858
0.00193381
-0.102759
0.00319025
-0.0985328
0.00461877
-0.0954581
0.00615563
-0.093058
0.0077493
-0.0910283
0.0093595
-0.0891819
0.0109559
-0.0874087
0.0125166
-0.0856489
0.0140267
-0.0838748
0.0154773
-0.0820788
0.0168637
-0.0802655
0.0181855
-0.0784459
0.019445
-0.0766342
0.0206476
-0.0748447
0.0218011
-0.0730896
0.0229156
-0.0713761
0.0240028
-0.0697025
-0.0680544
0.0250747
0.000257993
-0.11819
0.000944322
-0.109544
0.00196309
-0.103778
0.00322364
-0.0997933
0.00464766
-0.0968821
0.00617049
-0.0945808
0.00774062
-0.0925984
0.00931833
-0.0907596
0.0108742
-0.0889646
0.0123875
-0.0871622
0.0138445
-0.0853318
0.0152374
-0.0834717
0.0165626
-0.0815907
0.0178204
-0.0797037
0.019014
-0.0778277
0.0201492
-0.0759799
0.0212347
-0.0741751
0.0222819
-0.0724233
0.0233041
-0.0707247
-0.0690656
0.0243153
0.000264406
-0.118455
0.000961797
-0.110241
0.00198876
-0.104805
0.00325031
-0.101055
0.00466621
-0.098298
0.00617123
-0.0960859
0.00771409
-0.0941413
0.00925582
-0.0923013
0.010768
-0.0904768
0.0122312
-0.0886254
0.0136328
-0.0867335
0.0149662
-0.084805
0.0162286
-0.0828532
0.0174212
-0.0808962
0.0185473
-0.0789539
0.0196133
-0.0770459
0.0206282
-0.07519
0.0216042
-0.0733992
0.0225565
-0.071677
-0.070011
0.0235019
0.000270946
-0.118726
0.000978552
-0.110949
0.00201146
-0.105838
0.00327085
-0.102314
0.00467508
-0.0997023
0.00615871
-0.0975695
0.0076709
-0.0956535
0.00917357
-0.093804
0.0106395
-0.0919428
0.0120504
-0.0900362
0.013395
-0.0880781
0.0146677
-0.0860777
0.0158667
-0.0840523
0.0169935
-0.082023
0.0180518
-0.0800122
0.0190476
-0.0780417
0.0199896
-0.076132
0.0208902
-0.0742999
0.0217667
-0.0725535
-0.0708836
0.0226393
0.000278407
-0.119004
0.0009955
-0.111666
0.00203188
-0.106874
0.00328584
-0.103568
0.00467492
-0.101091
0.00613378
-0.0990283
0.00761221
-0.0971319
0.00907317
-0.095265
0.0104907
-0.0933603
0.0118478
-0.0913933
0.0131345
-0.0893649
0.0143463
-0.0872895
0.0154822
-0.0851882
0.0165441
-0.0830849
0.0175354
-0.0810036
0.0184616
-0.0789679
0.0193301
-0.0770005
0.0201524
-0.0751222
0.0209463
-0.0733475
-0.0716743
0.021737
0.000288115
-0.119292
0.00101399
-0.112392
0.0020509
-0.107911
0.00329586
-0.104813
0.0046663
-0.102462
0.00609718
-0.100459
0.00753907
-0.0985738
0.00895606
-0.0966819
0.0103235
-0.0947277
0.0116259
-0.0926957
0.0128547
-0.0905936
0.0140062
-0.088441
0.0150804
-0.0862624
0.0160795
-0.0840839
0.0170067
-0.0819308
0.0178662
-0.0798274
0.0186635
-0.0777978
0.0194069
-0.0758655
0.0201121
-0.0740527
-0.0723713
0.020809
0.000303594
-0.119596
0.00103697
-0.113125
0.00206989
-0.108944
0.0033015
-0.106045
0.0046496
-0.10381
0.00604941
-0.101859
0.00745225
-0.0999766
0.00882338
-0.0980531
0.0101396
-0.096044
0.011387
-0.0939431
0.0125582
-0.0917649
0.0136511
-0.0895339
0.0146665
-0.0872778
0.0156069
-0.0850243
0.0164754
-0.0827992
0.0172748
-0.0806268
0.0180072
-0.0785301
0.0186737
-0.076532
0.0192819
-0.074661
-0.0729684
0.0198791
0.000336154
-0.119932
0.00106862
-0.113858
0.00208932
-0.109965
0.00330239
-0.107258
0.00462458
-0.105132
0.00599054
-0.103225
0.00735211
-0.101338
0.00867578
-0.0993767
0.00993993
-0.0973081
0.0111322
-0.0951353
0.0122469
-0.0928797
0.0132834
-0.0905704
0.0142439
-0.0882383
0.0151321
-0.0859125
0.015952
-0.0836192
0.0167065
-0.0813813
0.0173952
-0.0792188
0.0180085
-0.0771453
0.0185276
-0.0751801
-0.0734154
0.0189746
0.125174
0.000256719
-0.125431
0.124927
0.000247592
0.124678
0.000248506
0.124425
0.000252727
0.124167
0.000258128
0.123903
0.000263888
0.123634
0.000269514
0.123359
0.00027471
0.12308
0.000279322
0.122797
0.000283282
0.12251
0.000286555
0.122221
0.000289128
0.12193
0.000290987
0.121638
0.000292109
0.121345
0.000292442
0.121053
0.000291875
0.120763
0.000290145
0.120477
0.000286635
0.120197
0.000279786
0.000264874
0.125866
0.000714275
-0.126323
0.12538
0.000733402
0.124871
0.000757148
0.124341
0.00078299
0.12379
0.000809105
0.123219
0.000834684
0.122629
0.000859186
0.122022
0.000882187
0.121398
0.000903403
0.120758
0.00092265
0.120105
0.000939813
0.11944
0.000954809
0.118763
0.000967569
0.118077
0.000978021
0.117383
0.000986056
0.116684
0.000991487
0.11598
0.000993964
0.115274
0.000992825
0.114567
0.000986871
0.000973882
0.125842
0.00123536
-0.126363
0.125275
0.00130069
0.124667
0.00136552
0.12402
0.00142953
0.123337
0.00149177
0.12262
0.00155168
0.121871
0.00160883
0.12109
0.00166285
0.12028
0.00171341
0.119442
0.00176027
0.118579
0.00180323
0.117692
0.00184215
0.116782
0.00187689
0.115853
0.00190733
0.114906
0.00193332
0.113943
0.00195467
0.112965
0.00197109
0.111976
0.00198213
0.110976
0.00198713
0.00198518
0.124892
0.00173532
-0.125392
0.124336
0.00185634
0.123728
0.00197398
0.123069
0.00208833
0.122362
0.00219891
0.121608
0.00230526
0.12081
0.00240702
0.119969
0.00250382
0.119087
0.00259533
0.118166
0.00268124
0.117208
0.00276131
0.116215
0.0028353
0.115189
0.00290305
0.114132
0.00296436
0.113046
0.00301907
0.111934
0.00306699
0.110797
0.00310786
0.109638
0.00314141
0.108458
0.00316728
0.00318508
0.123069
0.00216513
-0.123498
0.122577
0.00234774
0.122026
0.00252541
0.121416
0.00269812
0.120749
0.00286548
0.120028
0.00302704
0.119252
0.00318239
0.118425
0.00333111
0.117547
0.00347282
0.116622
0.00360716
0.115649
0.00373379
0.114632
0.00385243
0.113572
0.00396283
0.112472
0.00406475
0.111333
0.00415798
0.110158
0.0042423
0.108948
0.00431751
0.107706
0.0043834
0.106433
0.00443977
0.00448646
0.120527
0.00250256
-0.120865
0.120125
0.00275001
0.119659
0.00299172
0.119129
0.00322743
0.118538
0.00345669
0.117886
0.00367899
0.117175
0.00389382
0.116405
0.0041007
0.115579
0.00429914
0.114697
0.00448871
0.113762
0.00466899
0.112775
0.00483961
0.111737
0.00500024
0.110652
0.00515058
0.109519
0.00529037
0.108342
0.00541934
0.107122
0.00553729
0.105862
0.00564406
0.104562
0.00573949
0.00582353
0.117461
0.00274337
-0.117702
0.117154
0.00305676
0.116782
0.00336404
0.116345
0.00366475
0.115843
0.00395834
0.115278
0.0042442
0.11465
0.00452173
0.11396
0.00479034
0.11321
0.00504946
0.1124
0.00529856
0.111532
0.00553712
0.110607
0.00576468
0.109626
0.00598084
0.108592
0.00618522
0.107505
0.00637748
0.106367
0.00655733
0.105179
0.00672454
0.103944
0.00687895
0.102664
0.00702042
0.00714892
0.11406
0.00289414
-0.11421
0.113843
0.00327294
0.113562
0.00364554
0.113215
0.00401134
0.112804
0.00436966
0.112328
0.00471981
0.111789
0.0050611
0.111186
0.00539283
0.110522
0.00571436
0.109795
0.00602504
0.109008
0.0063243
0.108161
0.00661158
0.107255
0.00688638
0.106292
0.00714826
0.105273
0.00739681
0.104199
0.00763168
0.103071
0.00785265
0.10189
0.00805951
0.100658
0.00825214
0.00843053
0.110485
0.00296723
-0.110558
0.110348
0.00340979
0.110148
0.00384625
0.109883
0.00427586
0.109555
0.00469789
0.109163
0.00511153
0.108708
0.00551603
0.108191
0.00591061
0.10761
0.00629454
0.106968
0.00666711
0.106265
0.00702765
0.105501
0.00737554
0.104677
0.00771021
0.103794
0.00803114
0.102853
0.00833785
0.101855
0.00862998
0.1008
0.00890725
0.0996904
0.00916946
0.098526
0.0094165
0.00964842
0.106868
0.00297729
-0.106878
0.106797
0.00348132
0.106663
0.00397941
0.106469
0.00447075
0.106212
0.00495451
0.105894
0.00542984
0.105514
0.00589589
0.105073
0.00635185
0.10457
0.00679692
0.104007
0.00723032
0.103383
0.00765133
0.1027
0.00805926
0.101956
0.0084535
0.101154
0.00883343
0.100293
0.00919856
0.0993748
0.0095485
0.0983991
0.00988292
0.0973669
0.0102017
0.0962788
0.0105046
0.0107919
0.103304
0.00293912
-0.103266
0.103283
0.003502
0.103204
0.00405914
0.103065
0.00460965
0.102867
0.00515264
0.102609
0.00568721
0.102293
0.00621248
0.101917
0.00672758
0.101482
0.00723166
0.100989
0.00772392
0.100436
0.00820358
0.0998257
0.00866992
0.0991569
0.00912225
0.0984304
0.00955995
0.0976465
0.00998247
0.0968056
0.0103894
0.0959081
0.0107804
0.0949544
0.0111553
0.0939449
0.0115141
0.0118571
0.0998592
0.00286635
-0.0997865
0.0998758
0.00348544
0.099836
0.00409892
0.0997398
0.00470587
0.0995871
0.00530534
0.0993779
0.00589642
0.0991122
0.00647819
0.09879
0.00704974
0.0984114
0.00761022
0.0979766
0.00815877
0.0974856
0.0086946
0.0969385
0.00921697
0.0963356
0.00972515
0.0956771
0.0102185
0.0949631
0.0106964
0.094194
0.0111585
0.09337
0.0116045
0.0924913
0.0120341
0.0915581
0.0124473
0.0128449
0.0965752
0.00277086
-0.0964797
0.096617
0.00344358
0.0966052
0.00411076
0.0965396
0.00477142
0.0964204
0.00542461
0.0962474
0.00606938
0.0960208
0.00670479
0.0957406
0.00732993
0.0954069
0.00794392
0.0950198
0.00854589
0.0945793
0.00913506
0.0940857
0.00971065
0.0935389
0.0102719
0.0929392
0.0108182
0.0922867
0.0113489
0.0915816
0.0118636
0.0908241
0.012362
0.0900142
0.0128439
0.0891524
0.0133091
0.013759
0.0934742
0.00266241
-0.0933658
0.0935314
0.00338639
0.0935374
0.00410478
0.0934922
0.00481657
0.093396
0.00552081
0.0932489
0.00621653
0.0930509
0.00690277
0.0928022
0.00757861
0.092503
0.00824317
0.0921533
0.0088956
0.0917532
0.00953509
0.091303
0.0101609
0.0908028
0.0107721
0.0902526
0.0113683
0.0896527
0.0119488
0.0890031
0.0125132
0.0883041
0.013061
0.0875558
0.0135922
0.0867588
0.0141061
0.0146053
0.0905644
0.00254873
-0.0904507
0.090629
0.00332182
0.0906446
0.00408913
0.0906115
0.00484968
0.0905298
0.00560248
0.0903998
0.00634654
0.0902217
0.00708091
0.0899956
0.00780467
0.0897219
0.00851694
0.0894006
0.00921687
0.089032
0.00990365
0.0886164
0.0105765
0.0881538
0.0112347
0.0876445
0.0118776
0.0870887
0.0125047
0.0864865
0.0131154
0.0858381
0.0137094
0.0851437
0.0142865
0.0844044
0.0148455
0.0153906
0.0878438
0.00243561
-0.0877307
0.0879098
0.00325586
0.0879289
0.00407005
0.0879014
0.00487718
0.0878276
0.00567623
0.0877079
0.00646622
0.0875426
0.0072462
0.0873321
0.00801524
0.0870765
0.00877247
0.0867764
0.00951704
0.0864319
0.0102482
0.0860433
0.0109651
0.0856109
0.011667
0.0851351
0.0123535
0.084616
0.0130238
0.0840538
0.0136776
0.0834488
0.0143143
0.0828012
0.0149341
0.0821127
0.015534
0.0161219
0.0853041
0.00232708
-0.0851956
0.0853672
0.00319274
0.0853853
0.00405194
0.0853589
0.00490364
0.0852883
0.00574684
0.085174
0.00658053
0.0850164
0.00740375
0.0848161
0.00821558
0.0845734
0.00901516
0.0842888
0.00980166
0.0839627
0.0105743
0.0835955
0.0113323
0.0831876
0.0120749
0.0827393
0.0128017
0.0822511
0.013512
0.0817232
0.0142056
0.0811557
0.0148818
0.0805488
0.015541
0.0799041
0.0161788
0.0168072
0.0829333
0.00222562
-0.0828318
0.0829909
0.00313507
0.0830054
0.00403751
0.0829771
0.00493193
0.0829066
0.00581728
0.0827946
0.00669255
0.0826416
0.00755677
0.0824482
0.00840902
0.0822149
0.00924844
0.0819423
0.0100742
0.081631
0.0108856
0.0812815
0.0116817
0.0808944
0.0124621
0.08047
0.0132261
0.080009
0.0139731
0.0795115
0.014703
0.0789779
0.0154154
0.0784076
0.0161113
0.0777991
0.0167873
0.017461
0.0807167
0.00213221
-0.0806233
0.0807679
0.00308383
0.0807776
0.00402782
0.0807464
0.00496313
0.080675
0.00588868
0.0805642
0.00680343
0.0804145
0.00770643
0.0802268
0.00859675
0.0800017
0.00947354
0.0797399
0.010336
0.0794422
0.0111833
0.0791092
0.0120148
0.0787415
0.0128298
0.0783398
0.0136278
0.0779047
0.0144082
0.0774368
0.0151709
0.0769362
0.015916
0.0764029
0.0166445
0.0758286
0.0173616
0.0181095
0.0786384
-0.0785529
0.00204666
0.0786835
0.0030388
0.0786888
0.00402254
0.0786551
0.00499681
0.0785832
0.00596051
0.0784741
0.00691258
0.0783285
0.00785203
0.0781473
0.00877796
0.0779313
0.0096895
0.0776814
0.0105859
0.0773985
0.0114663
0.0770832
0.0123301
0.0767363
0.0131766
0.0763588
0.0140053
0.0759513
0.0148157
0.0755147
0.0156075
0.0750496
0.0163811
0.0745578
0.0171363
0.0740282
0.0178912
0.0187223
0.127273
8.80308e-06
-0.127281
0.12728
-7.92065e-06
0.127287
-6.38206e-06
0.127285
2.00142e-06
0.127271
1.36128e-05
0.127244
2.70379e-05
0.127203
4.13979e-05
0.127147
5.61385e-05
0.127076
7.0942e-05
0.12699
8.56282e-05
0.12689
0.00010008
0.126776
0.000114216
0.126648
0.000127961
0.126507
0.000141243
0.126353
0.000153976
0.126187
0.000166033
0.126009
0.000177197
0.125822
0.000187028
0.125628
0.000194489
0.000196954
0.128692
-0.000186313
-0.128497
0.128853
-0.000168909
0.128986
-0.000139519
0.12909
-0.000102449
0.129165
-6.08464e-05
0.129208
-1.6136e-05
0.129219
3.06839e-05
0.129196
7.87892e-05
0.129139
0.000127561
0.129048
0.000176547
0.128923
0.000225393
0.128763
0.000273805
0.12857
0.00032152
0.128343
0.000368288
0.128083
0.00041385
0.127791
0.000457904
0.127468
0.000500059
0.127116
0.000539734
0.126734
0.000576028
0.000607856
0.127487
-0.000584006
-0.12709
0.127836
-0.000517405
0.12814
-0.000443902
0.128402
-0.000364009
0.12862
-0.00027932
0.128795
-0.000190847
0.128925
-9.93903e-05
0.12901
-5.73742e-06
0.129048
8.93889e-05
0.129039
0.000185361
0.128983
0.000281624
0.128879
0.000377677
0.128727
0.000473055
0.128528
0.000567308
0.128282
0.000659997
0.127989
0.000750657
0.127651
0.000838787
0.127267
0.000923813
0.126837
0.00100505
0.00108198
0.124465
-0.0011586
-0.123891
0.124989
-0.00104099
0.125463
-0.000917692
0.125887
-0.000788364
0.126261
-0.000653703
0.126585
-0.000514435
0.126857
-0.000371249
0.127076
-0.000224886
0.127242
-7.61035e-05
0.127353
7.43634e-05
0.127408
0.000225816
0.127408
0.000377587
0.127352
0.000529035
0.12724
0.000679542
0.127072
0.000828497
0.126847
0.000975296
0.126567
0.00111933
0.12623
0.00125997
0.125839
0.00139659
0.00152874
0.12031
-0.0018802
-0.119589
0.120982
-0.00171279
0.121603
-0.00153892
0.122173
-0.00135826
0.122691
-0.00117119
0.123155
-0.000978326
0.123564
-0.000780345
0.123917
-0.000578006
0.124213
-0.000372122
0.124451
-0.000163516
0.12463
4.69927e-05
0.124749
0.000258599
0.124807
0.000470517
0.124805
0.00068198
0.124741
0.000892236
0.124616
0.00110055
0.124429
0.0013062
0.12418
0.00150849
0.12387
0.00170673
0.00190045
0.115541
-0.00271767
-0.114703
0.116331
-0.0025025
0.117071
-0.00227926
0.117761
-0.00204781
0.118398
-0.00180846
0.118981
-0.00156182
0.11951
-0.0013086
0.119981
-0.00104965
0.120395
-0.000785849
0.12075
-0.000518122
0.121044
-0.000247405
0.121277
2.53774e-05
0.121448
0.000299312
0.121557
0.000573506
0.121602
0.000847085
0.121583
0.0011192
0.121501
0.00138902
0.121353
0.00165575
0.121141
0.00191865
0.00217712
0.110536
-0.00364194
-0.109612
0.111415
-0.00338124
0.112246
-0.00311059
0.113028
-0.00282998
0.113759
-0.00253972
0.114438
-0.00224046
0.115062
-0.00193301
0.115631
-0.00161831
0.116142
-0.00129734
0.116595
-0.000971139
0.116989
-0.000640757
0.117321
-0.000307233
0.117592
2.84073e-05
0.117801
0.00036516
0.117946
0.000702045
0.118027
0.00103811
0.118043
0.00137243
0.117995
0.00170414
0.117881
0.00203238
0.00235645
0.105557
-0.00462784
-0.104571
0.106499
-0.00432382
0.107397
-0.0040079
0.108247
-0.00368007
0.109048
-0.00334071
0.109798
-0.00299054
0.110495
-0.00263047
0.111139
-0.00226157
0.111726
-0.00188494
0.112257
-0.00150176
0.112729
-0.00111316
0.113142
-0.000720321
0.113495
-0.000324356
0.113787
7.36299e-05
0.114016
0.000472564
0.114183
0.000871406
0.114286
0.00126915
0.114325
0.00166484
0.1143
0.00205754
0.00244643
0.100773
-0.00565475
-0.0997463
0.101759
-0.00530947
0.102701
-0.00495033
0.103598
-0.0045772
0.104448
-0.00419055
0.105249
-0.00379122
0.105999
-0.00338026
0.106696
-0.00295887
0.107339
-0.00252833
0.107928
-0.00208991
0.108459
-0.00164491
0.108934
-0.00119459
0.109349
-0.000740167
0.109706
-0.000282837
0.110002
0.00017625
0.110238
0.000635974
0.110411
0.00109526
0.110523
0.00155307
0.110572
0.00200842
0.00246037
0.0962835
-0.00670639
-0.0952319
0.0972959
-0.00632181
0.0982669
-0.00592132
0.0991943
-0.00550463
0.100076
-0.00507231
0.10091
-0.00462535
0.101695
-0.00416502
0.102429
-0.00369269
0.10311
-0.00320984
0.103738
-0.00271789
0.104312
-0.00221827
0.104829
-0.00171234
0.105291
-0.00120142
0.105695
-0.000686789
0.10604
-0.000169667
0.106328
0.000348763
0.106556
0.000867361
0.106724
0.00138504
0.106831
0.00190073
0.00241344
0.0921362
-0.00777031
-0.0910723
0.0931629
-0.00734847
0.09415
-0.00690841
0.095095
-0.00644962
0.0959956
-0.00597289
0.0968497
-0.00547949
0.0976556
-0.00497092
0.0984118
-0.00444885
0.0991169
-0.00391497
0.0997699
-0.0033709
0.10037
-0.0028182
0.100916
-0.00225835
0.101407
-0.00169275
0.101843
-0.00112277
0.102223
-0.000549678
0.102547
2.52782e-05
0.102813
0.000600912
0.103022
0.00117608
0.103173
0.00174967
0.00232064
0.0883449
-0.00883736
-0.0872779
0.0893771
-0.00838069
0.0903715
-0.00790278
0.0913249
-0.00740303
0.0922347
-0.00688273
0.0930988
-0.00634352
0.0939152
-0.00578735
0.0946826
-0.00521625
0.0953998
-0.0046322
0.096066
-0.00403703
0.0966802
-0.00343245
0.0972419
-0.00282007
0.0977506
-0.00220136
0.0982055
-0.00157775
0.0986064
-0.000950577
0.0989528
-0.000321118
0.0992444
0.000309393
0.0994807
0.000939775
0.0996614
0.00156889
0.00219562
0.0849008
-0.00990117
-0.083837
0.085933
-0.00941294
0.086929
-0.00889882
0.0878848
-0.00835878
0.0887972
-0.0077951
0.0896637
-0.00721008
0.0904827
-0.00660631
0.0912528
-0.00598635
0.0919731
-0.00535252
0.092643
-0.00470689
0.0932618
-0.00405131
0.0938292
-0.00338748
0.0943448
-0.00271695
0.0948083
-0.00204119
0.0952193
-0.00136158
0.0955776
-0.000679421
0.0958829
4.01612e-06
0.0961352
0.000687524
0.0963341
0.00136993
0.0020501
0.0817818
-0.0109579
-0.0807251
0.0828115
-0.0104427
0.0838064
-0.00989367
0.0847608
-0.00931319
0.0856711
-0.00870539
0.0865347
-0.0080737
0.0873501
-0.00742165
0.0881162
-0.00675249
0.0888326
-0.0060689
0.0894988
-0.00537314
0.0901147
-0.00466718
0.09068
-0.00395276
0.0911945
-0.00323148
0.0916581
-0.00250483
0.0920708
-0.00177419
0.0924322
-0.00104092
0.0927425
-0.00030628
0.0930016
0.000428488
0.0932093
0.0011622
0.00189367
0.0789596
-0.0120062
-0.0779113
0.0799872
-0.0114703
0.0809802
-0.0108866
0.0819311
-0.0102641
0.0828358
-0.0096101
0.083692
-0.00892992
0.0844987
-0.00822835
0.0852555
-0.00750931
0.0859624
-0.00677577
0.0866194
-0.00603009
0.0872264
-0.00527424
0.0877836
-0.00450997
0.088291
-0.00373887
0.0887486
-0.00296241
0.0891564
-0.002182
0.0895145
-0.00139899
0.0898229
-0.000614663
0.0900816
0.000169719
0.0902909
0.000952951
0.00173383
0.0764045
-0.0130483
-0.0753624
0.0774328
-0.0124987
0.0784243
-0.0118781
0.0793697
-0.0112095
0.0802654
-0.0105058
0.08111
-0.00977451
0.0819035
-0.00902192
0.0826466
-0.00825233
0.0833395
-0.00746875
0.0839829
-0.00667342
0.0845768
-0.00586822
0.0851217
-0.00505481
0.0856175
-0.00423474
0.0860646
-0.00340946
0.086463
-0.00258037
0.0868128
-0.00174884
0.0871143
-0.000916167
0.0873677
-8.36216e-05
0.087573
0.000747567
0.00157616
0.0740876
-0.0140928
-0.0730431
0.075122
-0.0135331
0.0761119
-0.0128679
0.0770488
-0.0121464
0.077931
-0.011388
0.0787595
-0.010603
0.0795359
-0.00979825
0.0802614
-0.0089779
0.0809372
-0.00814452
0.0815638
-0.00730006
0.0821418
-0.00644616
0.0826713
-0.00558436
0.0831528
-0.00471615
0.0835863
-0.00384297
0.0839721
-0.00296621
0.0843105
-0.00208725
0.0846018
-0.00120742
0.0848462
-0.000328003
0.085044
0.000549742
0.00142455
0.0719842
-0.0151641
-0.0709129
0.0730303
-0.0145792
0.0740154
-0.013853
0.0749383
-0.0130693
0.0758017
-0.0122513
0.0766096
-0.0114109
0.0773653
-0.010554
0.0780708
-0.00968343
0.0787273
-0.008801
0.0793354
-0.00790818
0.0798956
-0.00700636
0.0804082
-0.00609696
0.0808735
-0.00518142
0.0812917
-0.00426119
0.0816632
-0.00333769
0.0819883
-0.00241231
0.0822672
-0.0014864
0.0825005
-0.000561304
0.0826886
0.000361712
0.00128134
0.0700844
-0.0162937
-0.0689548
0.0711341
-0.0156289
0.0721038
-0.0148228
0.0730043
-0.0139698
0.0738433
-0.0130903
0.0746274
-0.012195
0.0753606
-0.0112872
0.076045
-0.0103678
0.0766813
-0.00943739
0.0772703
-0.00849712
0.0778121
-0.00754818
0.0783071
-0.00659194
0.0787555
-0.00562985
0.0791577
-0.00466339
0.079514
-0.00369403
0.0798249
-0.0027232
0.0800908
-0.00175228
0.0803121
-0.000782647
0.0804894
0.000184393
0.00114748
0.0683794
-0.0672686
-0.0174045
0.0693958
-0.0166454
0.0703375
-0.0157644
0.0712087
-0.014841
0.0720214
-0.0139029
0.0727818
-0.0129555
0.0734931
-0.0119985
0.0741568
-0.0110314
0.0747734
-0.010054
0.0753434
-0.00906709
0.0758669
-0.00807169
0.0763442
-0.00706927
0.0767757
-0.00606135
0.0771618
-0.00504946
0.0775029
-0.00403514
0.0777995
-0.00301984
0.0780523
-0.002005
0.0782616
-0.000992026
0.0784283
1.77408e-05
0.00102289
0.023161
0.0434368
-0.0420483
-0.0245495
0.0217626
0.0450126
-0.0436142
0.020355
0.0467384
-0.0453309
0.0189396
0.0486443
-0.0472288
0.0175177
0.0507652
-0.0493433
0.0160913
0.0531404
-0.0517141
0.014663
0.0558144
-0.0543861
0.0132359
0.0588361
-0.057409
0.0118137
0.0622577
-0.0608355
0.0104008
0.0661315
-0.0647186
0.00900277
0.0705059
-0.0691079
0.00762682
0.0754195
-0.0740435
0.00628249
0.0808926
-0.0795482
0.00498312
0.0869154
-0.085616
0.00374771
0.0934314
-0.092196
0.00260356
0.100314
-0.0991702
0.00158965
0.107336
-0.106322
0.000761243
0.114118
-0.113289
0.000197204
0.120053
-0.119489
0.124244
-0.124047
0.0231643
0.0448199
-0.0245474
0.0217707
0.0464062
0.0203674
0.0481417
0.0189554
0.0500563
0.0175362
0.0521845
0.0161115
0.0545651
0.0146837
0.0572421
0.0132561
0.0602638
0.0118321
0.0636817
0.0104164
0.0675472
0.00901476
0.0719075
0.00763464
0.0767996
0.00628608
0.0822411
0.00498308
0.0882184
0.00374543
0.094669
0.00260145
0.101458
0.00159117
0.108346
0.000770118
0.114939
0.000211785
0.120611
0.124456
0.0231306
0.046196
-0.0245067
0.0217436
0.0477933
0.0203462
0.0495391
0.0189395
0.051463
0.0175246
0.0535994
0.0161034
0.0559863
0.0146782
0.0586673
0.0132519
0.0616901
0.0118283
0.0651053
0.010412
0.0689635
0.00900897
0.0733106
0.00762695
0.0781816
0.00627647
0.0835916
0.0049721
0.0895227
0.00373434
0.0959068
0.00259217
0.1026
0.00158601
0.109352
0.000770461
0.115754
0.000215118
0.121167
0.124671
0.0230606
0.0475635
-0.0244281
0.0216816
0.0491723
0.0202917
0.0509289
0.0188919
0.0528629
0.0174831
0.0550081
0.0160672
0.0574023
0.0146463
0.0600882
0.0132234
0.063113
0.0118022
0.0665266
0.0103874
0.0703783
0.00898511
0.0747129
0.00760343
0.0795633
0.00625328
0.0849418
0.00494975
0.0908263
0.00371393
0.0971426
0.00257528
0.103739
0.0015743
0.110353
0.000764763
0.116564
0.000213987
0.121718
0.124885
0.0229549
0.0489211
-0.0243125
0.0215853
0.0505419
0.0202044
0.0523098
0.0188129
0.0542544
0.0174119
0.0564091
0.0160029
0.0588113
0.0145881
0.0615029
0.0131705
0.0645307
0.0117536
0.0679434
0.0103423
0.0717896
0.00894297
0.0761122
0.00756383
0.0809424
0.00621624
0.0862893
0.00491577
0.0921267
0.00368403
0.0983743
0.00255087
0.104872
0.00155678
0.111347
0.000754781
0.117366
0.000210496
0.122262
0.125096
0.0228143
0.0502677
-0.0241609
0.0214553
0.0519009
0.0200847
0.0536804
0.0187029
0.0556361
0.0173111
0.057801
0.0159106
0.0602117
0.0145037
0.0629099
0.013093
0.0659413
0.0116824
0.069354
0.0102767
0.0731953
0.00888237
0.0775066
0.00750797
0.0823168
0.00616519
0.0876321
0.00487006
0.0934219
0.00364463
0.0995998
0.00251908
0.105998
0.00153386
0.112333
0.000741259
0.118158
0.000205421
0.122798
0.125301
0.0226397
0.0516025
-0.0239745
0.0212923
0.0532482
0.019933
0.0550398
0.0185622
0.0570069
0.0171808
0.0591824
0.0157904
0.0616022
0.0143928
0.0643074
0.012991
0.0673431
0.0115885
0.0707565
0.0101904
0.0745934
0.00880318
0.0788938
0.00743572
0.0836843
0.00610003
0.0889678
0.00481254
0.0947094
0.00359572
0.100817
0.00248003
0.107114
0.00150581
0.113307
0.000724674
0.11894
0.000199224
0.123323
0.1255
0.0224318
0.0529248
-0.0237541
0.0210967
0.0545833
0.0197496
0.0563869
0.0183908
0.0583657
0.0170212
0.060552
0.0156421
0.0629812
0.0142555
0.065694
0.0128642
0.0687345
0.0114718
0.0721489
0.0100832
0.0759819
0.00870526
0.0802718
0.00734696
0.0850426
0.00602066
0.0902941
0.00474317
0.0959869
0.00353734
0.102022
0.00243384
0.108217
0.00147291
0.114268
0.0007054
0.119707
0.000192182
0.123836
0.125693
0.0221912
0.0542345
-0.0235008
0.0208689
0.0559056
0.0195346
0.0577212
0.0181887
0.0597116
0.016832
0.0619087
0.0154657
0.0643476
0.0140916
0.067068
0.0127125
0.0701136
0.011332
0.0735294
0.00995501
0.0773589
0.00858845
0.0816383
0.00724158
0.0863895
0.00592702
0.0916087
0.00466195
0.0972519
0.00346954
0.103215
0.00238066
0.109306
0.00143537
0.115213
0.000683685
0.120459
0.00018444
0.124336
0.125877
0.0219181
0.0555316
-0.0232152
0.0206088
0.0572149
0.0192879
0.0590421
0.0179557
0.0610438
0.016613
0.0632515
0.0152607
0.0656998
0.0139007
0.068428
0.0125356
0.0714788
0.0111689
0.0748962
0.00980557
0.0787222
0.00845262
0.0829913