/*--------------------------------*- C++ -*----------------------------------*\
| =========                 |                                                 |
| \\      /  F ield         | OpenFOAM: The Open Source CFD Toolbox           |
|  \\    /   O peration     | Version:  v1912                                 |
|   \\  /    A nd           | Website:  www.openfoam.com                      |
|    \\/     M anipulation  |                                                 |
\*---------------------------------------------------------------------------*/
FoamFile
{
    version     2.0;
    format      ascii;
    class       volScalarField;
    location    "61.5";
    object      p;
}
// * * * * * * * * * * * * * * * * * * * * * * * * * * * * * * * * * * * * * //

dimensions      [0 2 -2 0 0 0 0];


internalField   nonuniform List<scalar> 
9600
(
-41.4875
-36.2228
-32.996
-30.2589
-27.7536
-25.4868
-23.4302
-21.5561
-19.8468
-18.2887
-16.8692
-15.5764
-14.3989
-13.3259
-12.3473
-11.4538
-10.6368
-9.88851
-9.20136
-8.57318
-42.2475
-36.9652
-33.7025
-30.9225
-28.372
-26.0611
-23.9632
-22.0512
-20.3081
-18.72
-17.2741
-15.9581
-14.7603
-13.6694
-12.6749
-11.7672
-10.9374
-10.1774
-9.47912
-8.84165
-43.0092
-37.7037
-34.4036
-31.5805
-28.9847
-26.6295
-24.4901
-22.5405
-20.7636
-19.1458
-17.6739
-16.335
-15.1172
-14.0086
-12.9985
-12.0767
-11.2343
-10.4626
-9.75329
-9.10674
-43.7693
-38.4377
-35.0988
-32.232
-29.5904
-27.1908
-25.0101
-23.023
-21.2127
-19.5655
-18.0678
-16.7064
-15.4689
-14.3429
-13.3174
-12.3819
-11.527
-10.7438
-10.0235
-9.36809
-44.5248
-39.1658
-35.7871
-32.8759
-30.1883
-27.7442
-25.5222
-23.4978
-21.6544
-19.9781
-18.4551
-17.0716
-15.8147
-14.6718
-13.6311
-12.6821
-11.815
-11.0204
-10.2893
-9.62545
-45.2738
-39.8864
-36.4674
-33.5111
-30.7773
-28.2886
-26.0254
-23.964
-22.0879
-20.383
-18.8351
-17.43
-16.1541
-14.9945
-13.9391
-12.9769
-12.0979
-11.2921
-10.5504
-9.87853
-46.0143
-40.5982
-37.1383
-34.1365
-31.3562
-28.823
-26.5189
-24.4208
-22.5124
-20.7794
-19.207
-17.7807
-16.4863
-15.3106
-14.2408
-13.2658
-12.3751
-11.5585
-10.8065
-10.1271
-46.745
-41.2997
-37.7986
-34.7509
-31.924
-29.3464
-27.0016
-24.8672
-22.927
-21.1664
-19.5701
-18.1231
-16.8108
-15.6192
-14.5356
-13.5481
-12.6463
-11.8191
-11.0572
-10.3707
-47.4644
-41.9897
-38.447
-35.3533
-32.4797
-29.8578
-27.4726
-25.3024
-23.331
-21.5432
-19.9236
-18.4565
-17.1267
-15.9199
-14.8228
-13.8234
-12.9107
-12.0735
-11.3021
-10.6092
-48.1712
-42.6669
-39.0825
-35.9425
-33.0222
-30.3562
-27.9311
-25.7255
-23.7233
-21.9091
-20.2667
-18.78
-17.4333
-16.2118
-15.1017
-14.0909
-13.1679
-12.3211
-11.5407
-10.8421
-48.8644
-43.3302
-39.704
-36.5175
-33.5506
-30.8408
-28.3761
-26.1357
-24.1033
-22.2632
-20.5986
-19.0929
-17.7298
-16.494
-15.3716
-14.3498
-13.4171
-12.5611
-11.7723
-11.0687
-49.543
-43.9786
-40.3105
-37.0773
-34.064
-31.3106
-28.8068
-26.532
-24.4701
-22.6046
-20.9185
-19.3942
-18.0152
-16.7658
-15.6314
-14.5992
-13.6573
-12.7928
-11.9962
-11.2884
-50.2064
-44.6113
-40.901
-37.6211
-34.5614
-31.7648
-29.2223
-26.9138
-24.8228
-22.9326
-21.2253
-19.6831
-18.2887
-17.026
-15.8803
-14.8382
-13.8876
-13.0153
-12.2114
-11.5002
-50.8538
-45.2275
-41.4747
-38.1481
-35.0421
-32.2027
-29.6219
-27.2802
-25.1607
-23.2463
-21.5184
-19.9586
-18.5492
-17.2736
-16.1168
-15.0653
-14.1067
-13.2271
-12.4169
-11.7037
-51.4848
-45.8263
-42.0309
-38.6575
-35.5054
-32.6235
-30.0051
-27.6306
-25.4832
-23.5449
-21.7968
-20.2198
-18.7956
-17.5073
-16.3396
-15.2788
-14.3124
-13.426
-12.6104
-11.8969
-52.0989
-46.4069
-42.5687
-39.1486
-35.9507
-33.0267
-30.3711
-27.9645
-25.7896
-23.828
-22.0599
-20.4658
-19.027
-17.7261
-16.5475
-15.4774
-14.503
-13.61
-12.7892
-12.0743
-52.6973
-46.9693
-43.0877
-39.6208
-36.3773
-33.4117
-30.7194
-28.2813
-26.0795
-24.0949
-22.3071
-20.6961
-19.2425
-17.9289
-16.7393
-15.66
-14.6782
-13.779
-12.9522
-12.2327
-53.2845
-47.5145
-43.5868
-40.073
-36.7843
-33.7777
-31.0496
-28.5807
-26.3525
-24.3452
-22.5379
-20.9097
-19.441
-18.114
-16.9128
-15.824
-14.8352
-13.9302
-13.0985
-12.3834
-53.8625
-48.0422
-44.0647
-40.504
-37.1713
-34.1249
-31.362
-28.8631
-26.6092
-24.5797
-22.7528
-21.1069
-19.622
-18.2799
-17.0645
-15.9629
-14.962
-14.0462
-13.2131
-12.5306
-54.4095
-48.5445
-44.5202
-40.9145
-37.5396
-34.4548
-31.6582
-29.1302
-26.8513
-24.8001
-22.9538
-21.2902
-19.7884
-18.4293
-17.1963
-16.075
-15.0503
-14.1088
-13.2648
-12.5885
-59.866
-59.8345
-59.7653
-59.6728
-59.5565
-59.4137
-59.244
-59.0479
-58.826
-58.5788
-58.3069
-58.0107
-57.6911
-57.3486
-56.984
-56.5982
-56.1924
-55.768
-55.3282
-54.8759
-53.5171
-53.5145
-53.4787
-53.4154
-53.3252
-53.2077
-53.0631
-52.892
-52.6953
-52.4735
-52.2272
-51.9571
-51.6637
-51.3478
-51.0098
-50.6506
-50.2707
-49.8707
-49.451
-49.0097
-48.8727
-48.8945
-48.8869
-48.8506
-48.7867
-48.6963
-48.5798
-48.438
-48.2714
-48.0806
-47.8662
-47.6289
-47.369
-47.0873
-46.7841
-46.4599
-46.1151
-45.7496
-45.3631
-44.9538
-44.6419
-44.6814
-44.6943
-44.68
-44.6396
-44.5739
-44.4838
-44.3696
-44.2321
-44.0716
-43.8889
-43.6843
-43.4583
-43.2116
-42.9443
-42.6569
-42.3496
-42.0221
-41.6743
-41.3053
-40.7298
-40.7792
-40.8047
-40.8054
-40.7819
-40.7349
-40.6651
-40.5731
-40.4592
-40.324
-40.1681
-39.9918
-39.7957
-39.5802
-39.3456
-39.0921
-38.82
-38.529
-38.219
-37.8895
-37.2164
-37.2699
-37.3018
-37.3112
-37.2983
-37.2637
-37.2081
-37.132
-37.0357
-36.9198
-36.7848
-36.6312
-36.4593
-36.2697
-36.0626
-35.8382
-35.5967
-35.338
-35.0619
-34.7678
-34.0926
-34.1461
-34.1798
-34.1929
-34.1855
-34.1582
-34.1115
-34.046
-33.962
-33.86
-33.7405
-33.604
-33.451
-33.2818
-33.0969
-32.8964
-32.6805
-32.4492
-32.2021
-31.9388
-31.3215
-31.3722
-31.4045
-31.418
-31.4125
-31.3887
-31.3471
-31.2881
-31.2121
-31.1196
-31.0112
-30.8873
-30.7484
-30.595
-30.4275
-30.2462
-30.0513
-29.8427
-29.6201
-29.383
-28.8634
-28.9096
-28.9388
-28.9505
-28.9447
-28.9219
-28.8826
-28.8272
-28.7562
-28.6701
-28.5693
-28.4545
-28.3261
-28.1847
-28.0308
-27.8648
-27.6868
-27.497
-27.295
-27.0802
-26.6785
-26.7195
-26.7446
-26.7534
-26.7459
-26.7227
-26.684
-26.6305
-26.5624
-26.4804
-26.3849
-26.2766
-26.156
-26.0237
-25.8804
-25.7265
-25.5624
-25.3883
-25.2037
-25.0082
-24.7296
-24.7653
-24.7861
-24.7915
-24.7818
-24.7572
-24.7183
-24.6654
-24.5991
-24.5197
-24.4279
-24.3243
-24.2095
-24.0842
-23.9492
-23.8051
-23.6525
-23.4915
-23.3221
-23.1434
-22.9838
-23.0144
-23.031
-23.033
-23.0208
-22.9947
-22.955
-22.9022
-22.8367
-22.7591
-22.6699
-22.5697
-22.4593
-22.3395
-22.2111
-22.0749
-21.9318
-21.7822
-21.6262
-21.4628
-21.4128
-21.4388
-21.4514
-21.4503
-21.4356
-21.4078
-21.3673
-21.3143
-21.2493
-21.1729
-21.0855
-20.988
-20.881
-20.7653
-20.6422
-20.5125
-20.3774
-20.2377
-20.0938
-19.9447
-19.9929
-20.0148
-20.0238
-20.0197
-20.0029
-19.9736
-19.9321
-19.8788
-19.8141
-19.7386
-19.6527
-19.5572
-19.4528
-19.3404
-19.2214
-19.0969
-18.9685
-18.8374
-18.7047
-18.5693
-18.7041
-18.7223
-18.7281
-18.7216
-18.7028
-18.6721
-18.6298
-18.5763
-18.5118
-18.437
-18.3523
-18.2584
-18.156
-18.0462
-17.9304
-17.8099
-17.6869
-17.563
-17.4408
-17.3189
-17.5301
-17.5449
-17.5479
-17.5391
-17.5186
-17.4868
-17.4438
-17.3901
-17.3259
-17.2517
-17.168
-17.0753
-16.9745
-16.8666
-16.753
-16.6353
-16.5164
-16.3983
-16.2856
-16.1769
-16.4569
-16.4688
-16.4693
-16.4585
-16.4365
-16.4036
-16.3601
-16.3062
-16.2422
-16.1685
-16.0855
-15.9938
-15.8941
-15.7874
-15.675
-15.5588
-15.4421
-15.3278
-15.2233
-15.1264
-15.4727
-15.4822
-15.4808
-15.4685
-15.4454
-15.4119
-15.368
-15.3141
-15.2504
-15.1772
-15.0949
-15.0041
-14.9052
-14.7991
-14.687
-14.5709
-14.4545
-14.3417
-14.2441
-14.1564
-14.5664
-14.5744
-14.572
-14.5592
-14.5361
-14.5029
-14.4598
-14.4069
-14.3446
-14.2731
-14.1926
-14.1037
-14.0066
-13.9022
-13.7912
-13.6753
-13.5582
-13.445
-13.3544
-13.2808
-13.7326
-13.7374
-13.7324
-13.7179
-13.6937
-13.6601
-13.6172
-13.5653
-13.5044
-13.4349
-13.3569
-13.2706
-13.1765
-13.0748
-12.966
-12.8513
-12.7323
-12.6144
-12.5173
-12.4681
-53.5727
-54.1482
-54.6866
-55.2099
-55.7153
-56.1968
-56.6515
-57.0784
-57.4765
-57.8449
-58.183
-58.4903
-58.7665
-59.0111
-59.2235
-59.4039
-59.5531
-59.6722
-59.7633
-59.8283
-47.0895
-47.6704
-48.2232
-48.7537
-49.2613
-49.7436
-50.1993
-50.6276
-51.0278
-51.3993
-51.7416
-52.0544
-52.338
-52.593
-52.8172
-53.0101
-53.1724
-53.3043
-53.4065
-53.4777
-42.4451
-43.0137
-43.5587
-44.0802
-44.5783
-45.0522
-45.5012
-45.9244
-46.3214
-46.6914
-47.0335
-47.3475
-47.633
-47.8888
-48.1162
-48.3153
-48.4859
-48.6277
-48.7404
-48.8224
-38.3209
-38.8643
-39.3879
-39.89
-40.3698
-40.8272
-41.2615
-41.6721
-42.0583
-42.4195
-42.7545
-43.0627
-43.3451
-43.6012
-43.831
-44.0345
-44.2111
-44.3604
-44.4823
-44.5762
-34.643
-35.1563
-35.6525
-36.1291
-36.585
-37.02
-37.4334
-37.8246
-38.1929
-38.5377
-38.8597
-39.1584
-39.4323
-39.6817
-39.9066
-40.1069
-40.2822
-40.4322
-40.557
-40.6564
-31.4443
-31.9261
-32.3925
-32.841
-33.2703
-33.68
-34.0696
-34.4386
-34.7865
-35.1129
-35.4178
-35.7005
-35.9603
-36.1975
-36.4124
-36.6047
-36.7737
-36.9194
-37.0418
-37.141
-28.6723
-29.1233
-29.56
-29.9801
-30.3824
-30.7662
-31.1313
-31.477
-31.803
-32.1089
-32.3945
-32.6594
-32.9033
-33.126
-33.3272
-33.5088
-33.6689
-33.8071
-33.9238
-34.0191
-26.2603
-26.6823
-27.091
-27.4841
-27.8603
-28.2192
-28.5602
-28.883
-29.1871
-29.4723
-29.7384
-29.9852
-30.2125
-30.4202
-30.6084
-30.7754
-30.925
-31.0542
-31.1632
-31.2524
-24.1494
-24.5451
-24.928
-25.2961
-25.6482
-25.9836
-26.3021
-26.6031
-26.8863
-27.1517
-27.3991
-27.6282
-27.8392
-28.0318
-28.206
-28.3619
-28.4982
-28.6173
-28.718
-28.8001
-22.2897
-22.6616
-23.0212
-23.3667
-23.6967
-24.0107
-24.3083
-24.5891
-24.8531
-25.1
-25.3298
-25.5424
-25.7378
-25.9159
-26.0767
-26.2201
-26.3461
-26.4548
-26.5467
-26.6214
-20.6394
-20.9901
-21.329
-21.6543
-21.9644
-22.2588
-22.5373
-22.7997
-23.0459
-23.2758
-23.4894
-23.6867
-23.8678
-24.0325
-24.1808
-24.3128
-24.4285
-24.5277
-24.6113
-24.6787
-19.165
-19.4968
-19.8175
-20.1247
-20.4169
-20.6937
-20.9548
-21.2004
-21.4303
-21.6447
-21.8435
-22.0268
-22.1947
-22.3472
-22.4842
-22.6058
-22.7119
-22.8028
-22.8781
-22.9387
-17.8393
-18.1546
-18.4595
-18.7507
-19.0267
-19.2874
-19.5327
-19.7629
-19.9779
-20.1781
-20.3634
-20.534
-20.69
-20.8313
-20.958
-21.0701
-21.1676
-21.2505
-21.3184
-21.3731
-16.6409
-16.9418
-17.2331
-17.5102
-17.7715
-18.0174
-18.2482
-18.4641
-18.6655
-18.8526
-19.0257
-19.1847
-19.3298
-19.4611
-19.5785
-19.682
-19.7717
-19.8477
-19.9101
-19.9581
-15.5526
-15.8412
-16.121
-16.3854
-16.6332
-16.8654
-17.0826
-17.2854
-17.4742
-17.6493
-17.811
-17.9595
-18.0948
-18.2169
-18.3259
-18.4217
-18.5044
-18.574
-18.6304
-18.6737
-14.5598
-14.8399
-15.1104
-15.3629
-15.5978
-15.817
-16.0215
-16.2118
-16.3887
-16.5527
-16.704
-16.8427
-16.969
-17.0828
-17.1842
-17.273
-17.3494
-17.4132
-17.4646
-17.5035
-13.6446
-13.9236
-14.189
-14.4301
-14.6523
-14.8591
-15.0513
-15.2299
-15.3957
-15.5494
-15.6911
-15.821
-15.9392
-16.0455
-16.14
-16.2226
-16.2933
-16.352
-16.3989
-16.4338
-12.7866
-13.0698
-13.3365
-13.5682
-13.7784
-13.9735
-14.1546
-14.3226
-14.4786
-14.6233
-14.7568
-14.8792
-14.9905
-15.0906
-15.1794
-15.2568
-15.3229
-15.3774
-15.4206
-15.4525
-11.9992
-12.2729
-12.5403
-12.7671
-12.9672
-13.151
-13.3215
-13.48
-13.6273
-13.764
-13.8904
-14.0064
-14.1118
-14.2066
-14.2907
-14.364
-14.4263
-14.4777
-14.5182
-14.5477
-11.4085
-11.6593
-11.8871
-12.1039
-12.2923
-12.4582
-12.6122
-12.7565
-12.8905
-13.0147
-13.1295
-13.2347
-13.3303
-13.4159
-13.4916
-13.5571
-13.6126
-13.6578
-13.6927
-13.7172
-6.00679
-6.49814
-7.03658
-7.61903
-8.25195
-8.94272
-9.699
-10.5303
-11.4487
-12.4699
-13.6144
-14.9091
-16.3893
-18.1013
-20.1054
-22.481
-25.3091
-28.6122
-32.6096
-38.6056
-6.27743
-6.78232
-7.33127
-7.9258
-8.5725
-9.27845
-10.0515
-10.9012
-11.8402
-12.8843
-14.0544
-15.3777
-16.89
-18.638
-20.6823
-23.1019
-25.9772
-29.3271
-33.363
-39.38
-6.54949
-7.06792
-7.62752
-8.23435
-8.89508
-9.61647
-10.4065
-11.275
-12.2348
-13.3021
-14.4981
-15.8504
-17.3952
-19.1796
-21.2642
-23.728
-26.6499
-30.0455
-34.1181
-40.1517
-6.8225
-7.35441
-7.92473
-8.54407
-9.21905
-9.95609
-10.7633
-11.6508
-12.6317
-13.7225
-14.9446
-16.326
-17.9036
-19.7244
-21.8496
-24.3575
-27.3257
-30.7668
-34.8773
-40.9321
-7.096
-7.6413
-8.22242
-8.85449
-9.54393
-10.2968
-11.1213
-12.0281
-13.0302
-14.1446
-15.393
-16.8039
-18.4142
-20.2717
-22.4374
-24.9894
-28.0039
-31.4906
-35.6396
-41.7188
-7.36962
-7.92821
-8.52019
-9.16519
-9.86926
-10.6381
-11.4802
-12.4063
-13.4298
-14.5679
-15.8428
-17.2832
-18.9265
-20.8208
-23.0271
-25.6231
-28.6838
-32.2158
-36.403
-42.5076
-7.64306
-8.21475
-8.81765
-9.47575
-10.1946
-10.9796
-11.8394
-12.7849
-13.8299
-14.9919
-16.2934
-17.7634
-19.4398
-21.3709
-23.6178
-26.2578
-29.3644
-32.9414
-37.1661
-43.2962
-7.91606
-8.50066
-9.11448
-9.78586
-10.5197
-11.3209
-12.1984
-13.1634
-14.2301
-15.416
-16.7441
-18.2438
-19.9533
-21.9211
-24.2086
-26.8924
-30.0447
-33.6661
-37.9275
-44.0831
-8.18846
-8.78571
-9.41043
-10.0952
-10.8441
-11.6617
-12.5569
-13.5415
-14.6297
-15.8396
-17.1943
-18.7236
-20.4662
-22.4708
-24.7986
-27.526
-30.7236
-34.3888
-38.6861
-44.8668
-8.46023
-9.0698
-9.70536
-10.4036
-11.1676
-12.0015
-12.9145
-13.9186
-15.0283
-16.2621
-17.6433
-19.2023
-20.9778
-23.019
-25.387
-28.1576
-31.3999
-35.1085
-39.4406
-45.6459
-8.73147
-9.35297
-9.9992
-10.711
-11.4901
-12.3401
-13.2708
-14.2943
-15.4255
-16.683
-18.0906
-19.679
-21.4873
-23.5648
-25.9727
-28.7861
-32.0726
-35.8237
-40.1896
-46.4189
-9.00248
-9.63539
-10.292
-11.0172
-11.8112
-12.6773
-13.6254
-14.6681
-15.8205
-17.1016
-18.5354
-20.153
-21.9938
-24.1074
-26.5549
-29.4105
-32.7405
-36.5333
-40.9318
-47.1843
-9.27374
-9.91734
-10.5839
-11.3223
-12.1309
-13.0128
-13.9781
-15.0397
-16.213
-17.5173
-18.9771
-20.6235
-22.4966
-24.6459
-27.1323
-30.0297
-33.4025
-37.2361
-41.6659
-47.9407
-9.54598
-10.1993
-10.875
-11.6261
-12.449
-13.3462
-14.3282
-15.4084
-16.6023
-17.9295
-19.4148
-21.0898
-22.9947
-25.1792
-27.7041
-30.6425
-34.0573
-37.9309
-42.3906
-48.687
-9.81996
-10.4814
-11.1654
-11.9285
-12.7651
-13.677
-14.6754
-15.7736
-16.9877
-18.3373
-19.8477
-21.5508
-23.487
-25.7063
-28.2691
-31.2478
-34.7037
-38.6163
-43.1047
-49.4219
-10.0966
-10.7641
-11.4547
-12.229
-13.0785
-14.0046
-15.0187
-16.1345
-17.3683
-18.74
-20.275
-22.0057
-23.9727
-26.2261
-28.8261
-31.8443
-35.3403
-39.291
-43.807
-50.1445
-10.3758
-11.0462
-11.7416
-12.5261
-13.388
-14.3278
-15.3572
-16.4902
-17.7432
-19.1364
-20.6956
-22.4534
-24.4507
-26.7374
-29.3739
-32.4306
-35.9658
-39.9538
-44.4966
-50.8541
-10.6568
-11.3252
-12.0235
-12.818
-13.6923
-14.6456
-15.6899
-16.8396
-18.1114
-19.5257
-21.1086
-22.8929
-24.9197
-27.2391
-29.9111
-33.0054
-36.5786
-40.603
-45.1721
-51.5506
-10.9322
-11.5928
-12.2943
-13.1014
-13.9893
-14.9562
-16.0153
-17.1815
-18.4717
-19.9067
-21.5127
-23.3228
-25.3785
-27.7298
-30.4364
-33.567
-37.177
-41.2367
-45.8325
-52.2357
-11.1836
-11.829
-12.5495
-13.3773
-14.2795
-15.2593
-16.3328
-17.5153
-18.8234
-20.2784
-21.9069
-23.7423
-25.826
-28.2083
-30.9483
-34.1138
-37.7588
-41.8518
-46.4731
-52.9108
-1.58511
-1.83906
-2.18695
-2.57588
-2.99444
-3.448
-3.94286
-4.48494
-5.08175
-5.74354
-6.48426
-7.32293
-8.28569
-9.40859
-10.7425
-12.3618
-14.3561
-16.7867
-19.9619
-25.3566
-1.73829
-2.00867
-2.37503
-2.7699
-3.1919
-3.65079
-4.15257
-4.70273
-5.30895
-5.98173
-6.7353
-7.58899
-8.5694
-9.71307
-11.0715
-12.7195
-14.7467
-17.2127
-20.4201
-25.8287
-1.88581
-2.18028
-2.55979
-2.96281
-3.39255
-3.85984
-4.37055
-4.9304
-5.54741
-6.23243
-7.00001
-7.86989
-8.8691
-10.0347
-11.4188
-13.0965
-15.1574
-17.6588
-20.8978
-26.315
-2.05563
-2.36093
-2.74865
-3.16039
-3.59933
-4.07617
-4.59691
-5.16758
-5.79649
-6.49484
-7.2775
-8.16461
-9.18368
-10.3723
-11.7831
-13.4916
-15.587
-18.1252
-21.399
-26.8339
-2.23676
-2.54916
-2.94472
-3.36544
-3.81387
-4.30069
-4.83212
-5.4144
-6.0561
-6.76869
-7.56738
-8.47271
-9.51266
-10.7254
-12.1639
-13.9042
-16.0354
-18.6119
-21.9231
-27.3821
-2.42338
-2.74439
-3.14829
-3.57814
-4.03636
-4.53363
-5.07634
-5.67092
-6.32618
-7.05384
-7.86945
-8.79393
-9.85574
-11.0936
-12.561
-14.3343
-16.5025
-19.1184
-22.4684
-27.9545
-2.617
-2.94752
-3.35969
-3.79868
-4.26696
-4.77511
-5.32962
-5.93712
-6.60662
-7.3501
-8.18344
-9.12797
-10.2126
-11.4765
-12.9739
-14.7815
-16.9878
-19.6443
-23.0338
-28.5487
-2.81902
-3.15903
-3.57924
-4.02737
-4.50591
-5.02527
-5.59201
-6.21294
-6.89728
-7.65727
-8.50911
-9.4745
-10.5828
-11.8739
-13.4023
-15.2451
-17.4907
-20.1888
-23.6187
-29.1636
-3.02921
-3.37877
-3.80699
-4.26431
-4.75328
-5.28411
-5.86345
-6.49827
-7.198
-7.97512
-8.84615
-9.83319
-10.9661
-12.2852
-13.8456
-15.7247
-18.0107
-20.7513
-24.2223
-29.7981
-3.24697
-3.60639
-4.04273
-4.50933
-5.00891
-5.55149
-6.14379
-6.79292
-7.50853
-8.30337
-9.19425
-10.2037
-11.362
-12.71
-14.3033
-16.2197
-18.547
-21.3312
-24.8439
-30.4511
-3.47188
-3.84156
-4.28615
-4.76217
-5.27257
-5.82717
-6.43275
-7.09661
-7.82859
-8.64169
-9.55304
-10.5855
-11.77
-13.1477
-14.7749
-16.7296
-19.099
-21.9276
-25.4825
-31.1216
-3.70355
-4.08387
-4.53687
-5.02247
-5.54391
-6.11081
-6.73001
-7.40899
-8.1578
-8.98968
-9.9221
-10.9784
-12.1897
-13.598
-15.2599
-17.2536
-19.6661
-22.5397
-26.1373
-31.8086
-3.94151
-4.33285
-4.79444
-5.28981
-5.82254
-6.40202
-7.03517
-7.72966
-8.49574
-9.34691
-10.301
-11.3816
-12.6205
-14.0601
-15.7575
-17.7911
-20.2475
-23.1669
-26.8075
-32.5111
-4.18523
-4.58796
-5.05837
-5.56373
-6.108
-6.70036
-7.34779
-8.05815
-8.84193
-9.71288
-10.6891
-11.7947
-13.0619
-14.5335
-16.2671
-18.3414
-20.8425
-23.8082
-27.4922
-33.2281
-4.43418
-4.84867
-5.32811
-5.8437
-6.39978
-7.00531
-7.66735
-8.39396
-9.19585
-10.087
-11.086
-12.2171
-13.5132
-15.0175
-16.7881
-18.9038
-21.4501
-24.4628
-28.1905
-33.9588
-4.68779
-5.1144
-5.6031
-6.12917
-6.69735
-7.31634
-7.99332
-8.73655
-9.55696
-10.4688
-11.491
-12.6482
-13.9738
-15.5114
-17.3197
-19.4775
-22.0697
-25.1298
-28.9015
-34.7024
-4.94553
-5.38456
-5.88277
-6.41958
-7.00013
-7.6329
-8.32513
-9.08533
-9.92464
-10.8576
-11.9034
-13.0873
-14.4429
-16.0145
-17.861
-20.0615
-22.7002
-25.8084
-29.6246
-35.4583
-5.20682
-5.65858
-6.16653
-6.71434
-7.30756
-7.95441
-8.66222
-9.43972
-10.2983
-11.2528
-12.3227
-13.5337
-14.9198
-16.5259
-18.4112
-20.655
-23.3406
-26.4973
-30.3587
-36.2263
-5.47114
-5.93589
-6.45379
-7.01288
-7.61906
-8.28027
-9.00396
-9.79909
-10.6773
-11.6537
-12.7482
-13.9867
-15.4038
-17.0448
-18.9694
-21.2569
-23.9899
-27.1955
-31.1029
-37.0068
-5.73797
-6.21593
-6.74401
-7.31466
-7.93408
-8.60994
-9.3498
-10.1629
-11.061
-12.0597
-13.1791
-14.4455
-15.8941
-17.5705
-19.5348
-21.8662
-24.6469
-27.9011
-31.8544
-37.8007
-1.33733
-1.13062
-0.976839
-0.840112
-0.720045
-0.614098
-0.521157
-0.440428
-0.37141
-0.313745
-0.267166
-0.231462
-0.206463
-0.192032
-0.188031
-0.194249
-0.210468
-0.236819
-0.273486
-0.320243
-1.66714
-1.48371
-1.32596
-1.184
-1.0591
-0.948686
-0.851777
-0.767575
-0.695565
-0.635371
-0.58671
-0.549361
-0.523141
-0.507898
-0.503489
-0.509739
-0.526494
-0.553766
-0.591649
-0.639809
-1.99962
-1.82407
-1.66633
-1.52323
-1.3962
-1.28361
-1.18474
-1.09892
-1.02567
-0.964643
-0.915551
-0.878174
-0.85233
-0.837859
-0.834615
-0.842443
-0.861226
-0.890911
-0.931355
-0.982815
-2.3833
-2.20608
-2.0453
-1.89924
-1.76864
-1.65253
-1.55045
-1.46184
-1.38629
-1.32346
-1.27308
-1.23492
-1.20879
-1.19453
-1.19199
-1.20101
-1.22148
-1.25332
-1.2964
-1.35078
-2.80197
-2.62229
-2.45754
-2.30753
-2.17271
-2.05255
-1.94673
-1.85482
-1.77648
-1.7114
-1.65932
-1.62002
-1.59331
-1.57901
-1.57697
-1.58704
-1.60908
-1.64301
-1.68869
-1.7461
-3.25316
-3.07026
-2.90133
-2.74699
-2.60771
-2.48328
-2.37352
-2.27811
-2.19679
-2.12928
-2.07535
-2.03479
-2.00739
-1.99299
-1.99143
-2.00256
-2.02624
-2.06234
-2.11073
-2.17137
-3.74306
-3.55543
-3.38158
-3.22232
-3.07813
-2.94904
-2.83498
-2.73575
-2.65114
-2.58092
-2.52488
-2.48283
-2.45457
-2.43994
-2.43877
-2.45091
-2.47622
-2.51456
-2.56577
-2.62984
-4.27846
-4.0846
-3.90476
-3.73969
-3.5899
-3.45554
-3.33664
-3.23307
-3.1447
-3.07134
-3.01281
-2.96892
-2.93951
-2.9244
-2.92343
-2.93645
-2.96331
-3.00385
-3.05792
-3.12548
-4.86704
-4.66552
-4.47844
-4.3065
-4.15019
-4.00975
-3.88526
-3.77669
-3.68393
-3.60686
-3.54531
-3.49913
-3.46816
-3.45221
-3.45115
-3.46481
-3.49303
-3.53566
-3.59253
-3.66363
-5.51895
-5.3082
-5.11246
-4.93236
-4.7684
-4.62084
-4.48982
-4.37536
-4.27741
-4.19588
-4.13063
-4.08153
-4.04842
-4.03114
-4.02954
-4.04347
-4.07276
-4.11723
-4.17674
-4.25128
-6.24792
-6.02613
-5.82007
-5.63027
-5.45722
-5.30123
-5.16246
-5.04099
-4.93679
-4.84981
-4.77995
-4.72707
-4.69106
-4.67174
-4.66898
-4.68262
-4.7125
-4.75841
-4.82022
-4.89795
-7.07267
-6.83773
-6.61933
-6.41793
-6.23403
-6.06795
-5.91988
-5.78992
-5.6781
-5.58439
-5.5087
-5.45093
-5.41095
-5.38863
-5.38382
-5.39636
-5.42609
-5.47281
-5.53634
-5.61678
-8.01896
-7.76832
-7.53513
-7.3198
-7.12284
-6.94457
-6.78521
-6.6449
-6.52367
-6.42153
-6.33842
-6.27425
-6.2289
-6.20225
-6.19415
-6.20445
-6.23298
-6.27951
-6.34389
-6.42623
-9.1223
-8.8529
-8.60193
-8.36979
-8.15701
-7.96392
-7.79076
-7.63769
-7.50478
-7.39203
-7.29941
-7.22685
-7.17424
-7.14147
-7.12839
-7.13486
-7.16069
-7.20564
-7.26953
-7.35256
-10.433
-10.1411
-9.86873
-9.61626
-9.38427
-9.17309
-8.98299
-8.81414
-8.66663
-8.54047
-8.43566
-8.35213
-8.28979
-8.24852
-8.22819
-8.22866
-8.24973
-8.29112
-8.35264
-8.43456
-12.0247
-11.7059
-11.4078
-11.1308
-10.8755
-10.6423
-10.4315
-10.2432
-10.0775
-9.93448
-9.81411
-9.71635
-9.64111
-9.58828
-9.55774
-9.54933
-9.56288
-9.59806
-9.65467
-9.73296
-13.9866
-13.6362
-13.3077
-13.0016
-12.7187
-12.4592
-12.2234
-12.0116
-11.8238
-11.6601
-11.5204
-11.4048
-11.3131
-11.2452
-11.2011
-11.1806
-11.1835
-11.2095
-11.2584
-11.3302
-16.3804
-15.9944
-15.6313
-15.2922
-14.9778
-14.6883
-14.4242
-14.1854
-13.9721
-13.7844
-13.6221
-13.4854
-13.3741
-13.2882
-13.2276
-13.1922
-13.1817
-13.1962
-13.2351
-13.2978
-19.5169
-19.0911
-18.6891
-18.3135
-17.9645
-17.6423
-17.3468
-17.0781
-16.836
-16.6207
-16.432
-16.2701
-16.1348
-16.0262
-15.944
-15.8882
-15.8587
-15.8559
-15.8794
-15.9273
-24.8536
-24.3828
-23.9463
-23.5412
-23.1654
-22.8177
-22.498
-22.2059
-21.9415
-21.7048
-21.4957
-21.3145
-21.161
-21.0355
-20.938
-20.8686
-20.828
-20.8184
-20.8413
-20.8864
-0.377006
-0.443451
-0.51954
-0.60519
-0.700319
-0.804819
-0.918562
-1.04138
-1.17307
-1.31335
-1.46185
-1.61804
-1.78114
-1.9499
-2.12268
-2.29721
-2.469
-2.62825
-2.75959
-2.88942
-0.698449
-0.767172
-0.845902
-0.934527
-1.03294
-1.14102
-1.25861
-1.38553
-1.52153
-1.66632
-1.81947
-1.98045
-2.14846
-2.32236
-2.50052
-2.6813
-2.86291
-3.03765
-3.19029
-3.36261
-1.04496
-1.11753
-1.20048
-1.29368
-1.397
-1.5103
-1.6334
-1.76611
-1.90816
-2.05922
-2.21886
-2.38653
-2.56147
-2.74266
-2.92874
-3.11851
-3.31102
-3.50188
-3.68536
-3.89143
-1.41634
-1.49277
-1.58
-1.67786
-1.78623
-1.90495
-2.03382
-2.17262
-2.32105
-2.47879
-2.64538
-2.82028
-3.00277
-3.19195
-3.38676
-3.58631
-3.7898
-3.99493
-4.20218
-4.43195
-1.8152
-1.89564
-1.98733
-2.09012
-2.20384
-2.32831
-2.46333
-2.60866
-2.76399
-2.92896
-3.10315
-3.28601
-3.4769
-3.67504
-3.87961
-4.09
-4.30559
-4.52535
-4.75192
-4.99845
-2.2443
-2.32904
-2.42554
-2.53362
-2.65311
-2.78383
-2.92555
-3.07801
-3.24091
-3.41388
-3.59649
-3.78826
-3.98859
-4.19682
-4.41236
-4.63476
-4.86365
-5.09881
-5.34299
-5.60403
-2.70681
-2.79606
-2.89768
-3.01144
-3.13716
-3.27462
-3.42361
-3.58384
-3.75502
-3.93678
-4.12873
-4.33039
-4.54124
-4.76075
-4.98844
-5.22402
-5.46729
-5.71844
-5.97969
-6.25549
-3.2065
-3.30064
-3.40769
-3.52748
-3.65982
-3.80452
-3.96133
-4.12998
-4.31018
-4.50156
-4.70374
-4.9163
-5.13878
-5.37073
-5.61178
-5.86169
-6.12038
-6.38818
-6.66665
-6.95827
-3.74894
-3.84799
-3.96067
-4.08677
-4.22612
-4.37851
-4.54368
-4.72138
-4.91129
-5.1131
-5.32643
-5.55089
-5.78607
-6.0316
-6.28717
-6.55257
-6.82776
-7.11303
-7.40938
-7.71819
-4.34086
-4.44486
-4.56337
-4.69597
-4.84261
-5.00306
-5.17707
-5.36436
-5.56466
-5.77763
-6.00295
-6.24025
-6.48917
-6.74936
-7.02056
-7.30258
-7.59537
-7.89909
-8.2143
-8.5418
-4.99163
-5.10053
-5.22466
-5.36397
-5.51806
-5.68682
-5.87
-6.06734
-6.27855
-6.50333
-6.74137
-6.99234
-7.2559
-7.53174
-7.8196
-8.11931
-8.43076
-8.75398
-9.0892
-9.43693
-5.71417
-5.82766
-5.95732
-6.10298
-6.26455
-6.44166
-6.63415
-6.84178
-7.06426
-7.3013
-7.55261
-7.8179
-8.09684
-8.38915
-8.69456
-9.01288
-9.34397
-9.68769
-10.0441
-10.4135
-6.52663
-6.64408
-6.77874
-6.93037
-7.09886
-7.2843
-7.48603
-7.70382
-7.93758
-8.18703
-8.4519
-8.73189
-9.02668
-9.336
-9.6596
-9.99726
-10.3488
-10.7139
-11.0924
-11.4848
-7.45485
-7.57516
-7.71387
-7.87068
-8.04538
-8.23795
-8.44919
-8.67634
-8.92102
-9.1826
-9.46084
-9.75547
-10.0662
-10.3927
-10.7348
-11.0922
-11.4646
-11.8516
-12.2531
-12.6693
-8.537
-8.6585
-8.79963
-8.96016
-9.13992
-9.33846
-9.55529
-9.79266
-10.048
-10.3207
-10.6115
-10.9203
-11.2466
-11.5901
-11.9505
-12.3275
-12.7207
-13.1298
-13.5544
-13.9947
-9.83305
-9.95319
-10.0943
-10.2562
-10.4389
-10.6419
-10.8648
-11.1076
-11.3705
-11.6541
-11.9568
-12.2789
-12.6199
-12.9793
-13.3567
-13.7521
-14.1653
-14.5958
-15.043
-15.507
-11.4245
-11.5401
-11.6783
-11.839
-12.0219
-12.2266
-12.453
-12.7008
-12.9699
-13.2606
-13.5733
-13.9072
-14.2602
-14.6317
-15.0229
-15.4343
-15.8655
-16.3157
-16.7838
-17.2698
-13.3823
-13.4903
-13.6225
-13.7786
-13.9574
-14.1591
-14.384
-14.6319
-14.9027
-15.1956
-15.5102
-15.8466
-16.2065
-16.5905
-16.9968
-17.4241
-17.8721
-18.3402
-18.8277
-19.3335
-15.9975
-16.0895
-16.2055
-16.3469
-16.5152
-16.7096
-16.9293
-17.1738
-17.4428
-17.736
-18.0527
-18.3926
-18.756
-19.1435
-19.5548
-19.9894
-20.4471
-20.9286
-21.4338
-21.9577
-20.9282
-21.0005
-21.1038
-21.2357
-21.395
-21.5812
-21.7936
-22.0319
-22.2957
-22.5848
-22.8989
-23.2379
-23.6021
-23.9916
-24.4066
-24.8471
-25.3142
-25.8118
-26.3423
-26.888
-27.4048
-22.4923
-19.8571
-17.7738
-15.9879
-14.4508
-13.1001
-11.8908
-10.7958
-9.79705
-8.88149
-8.0394
-7.26316
-6.54656
-5.8844
-5.27215
-4.70456
-4.17606
-3.69511
-3.29071
-27.9495
-23.043
-20.3964
-18.2928
-16.4831
-14.9203
-13.5435
-12.3088
-11.1895
-10.1681
-9.23171
-8.37092
-7.57819
-6.84746
-6.17369
-5.55245
-4.97903
-4.45103
-3.98158
-3.57909
-28.5227
-23.6127
-20.9528
-18.8279
-16.9931
-15.4034
-13.9995
-12.7383
-11.594
-10.5492
-9.59153
-8.71153
-7.90181
-7.15632
-6.46999
-5.83831
-5.25666
-4.72276
-4.24618
-3.82419
-29.1204
-24.202
-21.5266
-19.3787
-17.5172
-15.8994
-14.4673
-13.1787
-12.0084
-10.9396
-9.95984
-9.05992
-8.23235
-7.47099
-6.77057
-6.12629
-5.53329
-4.98863
-4.49904
-4.05831
-29.7393
-24.8101
-22.1168
-19.9449
-18.055
-16.4077
-14.9462
-13.6292
-12.4321
-11.3383
-10.3358
-9.4152
-8.56899
-7.79086
-7.07528
-6.41716
-5.81133
-5.25427
-4.75089
-4.29401
-30.3781
-25.4377
-22.7218
-20.5251
-18.6057
-16.9274
-15.4354
-14.089
-12.8642
-11.7447
-10.7187
-9.77671
-8.91117
-8.11555
-7.38408
-6.71139
-6.09209
-5.5223
-5.00564
-4.53468
-31.0354
-26.0832
-23.3411
-21.1186
-19.1683
-17.4579
-15.9342
-14.5574
-13.304
-12.1581
-11.1079
-10.144
-9.25856
-8.44497
-7.69721
-7.00967
-6.37678
-5.79446
-5.26522
-4.78157
-31.71
-26.7445
-23.9745
-21.7244
-19.7421
-17.9982
-16.4417
-15.0336
-13.7509
-12.5779
-11.5029
-10.5165
-9.61085
-8.779
-8.01473
-7.31225
-6.66586
-6.07128
-5.53004
-5.03462
-32.4006
-27.4203
-24.6213
-22.3418
-20.326
-18.5476
-16.9572
-15.5169
-14.204
-13.0033
-11.9031
-10.8939
-9.96769
-9.11739
-8.33654
-7.61914
-6.95937
-6.35277
-5.79993
-5.29332
-33.106
-28.1094
-25.2803
-22.9699
-20.9192
-19.105
-17.4799
-16.0065
-14.6628
-13.4338
-12.3079
-11.2756
-10.3287
-9.45982
-8.66234
-7.93006
-7.25703
-6.63857
-6.07438
-5.55695
-33.8248
-28.8106
-25.9505
-23.6076
-21.5208
-19.6698
-18.0088
-16.5015
-15.1265
-13.8687
-12.7168
-11.6612
-10.6933
-9.80582
-8.99171
-8.2446
-7.55837
-6.92814
-6.35274
-5.82473
-34.5559
-29.5229
-26.6307
-24.2538
-22.1297
-20.2407
-18.5431
-17.0013
-15.5942
-14.3073
-13.1291
-12.0499
-11.0611
-10.1549
-9.32413
-8.5622
-7.86282
-7.22085
-6.63431
-6.09584
-35.2984
-30.2451
-27.3199
-24.9076
-22.7449
-20.817
-19.0818
-17.5048
-16.0652
-14.7488
-13.5441
-12.4412
-11.4313
-10.5063
-9.65898
-8.88227
-8.16975
-7.51604
-6.91836
-6.36954
-36.051
-30.9761
-28.0167
-25.5677
-23.3653
-21.3975
-19.624
-18.0111
-16.5386
-15.1925
-13.961
-12.8343
-11.8033
-10.8596
-9.99563
-9.20415
-8.4785
-7.81302
-7.2042
-6.64509
-36.8126
-31.7145
-28.72
-26.2331
-23.9898
-21.9812
-20.1687
-18.5194
-17.0137
-15.6374
-14.3791
-13.2285
-12.1764
-11.214
-10.3334
-9.5272
-8.78841
-8.11112
-7.49113
-6.9218
-37.582
-32.4591
-29.4285
-26.9023
-24.6172
-22.567
-20.7148
-19.0287
-17.4894
-16.0829
-14.7977
-13.6232
-12.5499
-11.5688
-10.6717
-9.85074
-9.09883
-8.4097
-7.7785
-7.19902
-38.3588
-33.2087
-30.1408
-27.5743
-25.2463
-23.1536
-21.2613
-19.538
-17.9648
-16.528
-15.2158
-14.0174
-12.923
-11.9234
-11.0098
-10.1741
-9.4091
-8.70812
-8.0657
-7.47616
-39.1444
-33.9629
-30.8554
-28.2473
-25.8755
-23.7399
-21.8069
-20.0461
-18.439
-16.9718
-15.6326
-14.4105
-13.2951
-12.277
-11.3469
-10.4967
-9.71859
-9.00575
-8.35211
-7.75265
-39.9389
-34.7204
-31.5704
-28.9196
-26.5037
-24.3246
-22.3506
-20.5522
-18.911
-17.4135
-16.0474
-14.8016
-13.6654
-12.6289
-11.6825
-10.8178
-10.0267
-9.302
-8.63717
-8.02797
-40.7296
-35.4763
-32.2842
-29.5904
-27.13
-24.9072
-22.892
-21.0557
-19.3805
-17.8527
-16.4598
-15.1904
-14.0335
-12.9787
-12.0162
-11.137
-10.3329
-9.59642
-8.92043
-8.30168
-6.78043
-4.67446
-3.31426
-2.26874
-1.53421
-0.994729
-0.607218
-0.3321
-0.141058
-0.0123506
0.0706465
0.120564
0.146985
0.157068
0.156124
0.148026
0.135588
0.120809
0.105099
0.0894254
0.0744329
0.0605322
0.0479597
0.0368352
0.0271797
0.018973
0.0121215
0.00656039
0.00212006
-0.00122854
-0.00374823
-0.00533148
-0.00642607
-0.00662149
-0.00675291
-0.00582445
-0.00541464
-0.00349537
-0.00295048
3.7542e-05
-7.03612
-4.85684
-3.46052
-2.38391
-1.62527
-1.06837
-0.667287
-0.381723
-0.182438
-0.0471073
0.0413112
0.095729
0.125931
0.139216
0.141002
0.135238
0.124799
0.111734
0.0974913
0.083072
0.0691497
0.0561595
0.0443588
0.033886
0.0247783
0.0170295
0.0105589