/*--------------------------------*- C++ -*----------------------------------*\
| =========                 |                                                 |
| \\      /  F ield         | OpenFOAM: The Open Source CFD Toolbox           |
|  \\    /   O peration     | Version:  v1912                                 |
|   \\  /    A nd           | Website:  www.openfoam.com                      |
|    \\/     M anipulation  |                                                 |
\*---------------------------------------------------------------------------*/
FoamFile
{
    version     2.0;
    format      ascii;
    class       surfaceScalarField;
    location    "7.5";
    object      phi;
}
// * * * * * * * * * * * * * * * * * * * * * * * * * * * * * * * * * * * * * //

dimensions      [0 3 -1 0 0 0 0];
oriented        oriented;


internalField   nonuniform List<scalar> 
18940
(
0.000178149
-0.237147
0.236969
0.000742533
-0.220735
0.220171
0.00160607
-0.208693
0.20783
0.00265561
-0.199322
0.198272
0.00381623
-0.191502
0.190342
0.00502743
-0.184516
0.183305
0.00624473
-0.177963
0.176745
0.00743855
-0.171641
0.170447
0.00859115
-0.165462
0.164309
0.00969361
-0.159403
0.1583
0.0107434
-0.153472
0.152423
0.0117422
-0.147693
0.146694
0.0126947
-0.142089
0.141136
0.0136073
-0.136682
0.135769
0.0144876
-0.131487
0.130607
0.0153432
-0.126511
0.125655
0.0161818
-0.12175
0.120911
0.0170099
-0.117192
0.116364
0.0178318
-0.112816
0.111994
-0.108591
0.107774
0.0186489
0.000198081
-0.237345
0.000782574
-0.221319
0.00165482
-0.209566
0.00271484
-0.200382
0.00388174
-0.192669
0.00509441
-0.185729
0.00630898
-0.179177
0.00749657
-0.172828
0.00864028
-0.166606
0.00973208
-0.160495
0.0107702
-0.15451
0.011757
-0.148679
0.0126976
-0.143029
0.0135989
-0.137583
0.0144687
-0.132357
0.0153151
-0.127357
0.0161461
-0.122581
0.0169686
-0.118015
0.0177877
-0.113635
-0.109409
0.0186053
0.000217038
-0.237562
0.000817118
-0.22192
0.00170006
-0.210449
0.00276845
-0.20145
0.0039399
-0.193841
0.00515234
-0.186941
0.00636228
-0.180387
0.00754169
-0.174008
0.00867461
-0.167738
0.00975393
-0.161574
0.0107787
-0.155535
0.0117519
-0.149653
0.0126792
-0.143957
0.0135679
-0.138472
0.0144259
-0.133215
0.0152618
-0.128193
0.0160839
-0.123403
0.0168997
-0.118831
0.0177147
-0.11445
-0.110226
0.0185317
0.000228816
-0.237791
0.000843812
-0.222535
0.00173922
-0.211344
0.00281559
-0.202526
0.00399008
-0.195015
0.00520046
-0.188152
0.00640382
-0.181591
0.00757308
-0.175177
0.00869331
-0.168859
0.00975835
-0.162639
0.0107681
-0.156545
0.0117262
-0.150611
0.0126388
-0.144869
0.0135135
-0.139346
0.0143585
-0.13406
0.0151827
-0.129017
0.0159948
-0.124215
0.0168028
-0.119638
0.0176127
-0.11526
-0.111041
0.0184282
0.000238517
-0.238029
0.00086689
-0.223163
0.0017736
-0.212251
0.00285659
-0.203609
0.0040323
-0.196191
0.00523864
-0.189358
0.00643339
-0.182785
0.00759047
-0.176334
0.00869605
-0.169964
0.00974499
-0.163688
0.010738
-0.157538
0.0116794
-0.151552
0.0125759
-0.145766
0.0134353
-0.140206
0.0142661
-0.134891
0.0150774
-0.129829
0.0158783
-0.125016
0.0166772
-0.120437
0.0174812
-0.116064
-0.111854
0.0182945
0.000246572
-0.238276
0.000886769
-0.223803
0.00180336
-0.213167
0.0028914
-0.204698
0.00406645
-0.197366
0.00526668
-0.190558
0.00645069
-0.183969
0.00759352
-0.177477
0.00868247
-0.171053
0.00971345
-0.164719
0.010688
-0.158512
0.0116112
-0.152475
0.0124901
-0.146644
0.0133327
-0.141048
0.014148
-0.135706
0.0149451
-0.130626
0.0157335
-0.125804
0.0165223
-0.121226
0.0173192
-0.116861
-0.112665
0.0181293
0.000253595
-0.23853
0.000904162
-0.224454
0.00182899
-0.214092
0.00292021
-0.205789
0.00409257
-0.198538
0.00528454
-0.19175
0.00645564
-0.185141
0.00758209
-0.178603
0.00865237
-0.172123
0.00966346
-0.16573
0.0106178
-0.159467
0.0115211
-0.153379
0.0123807
-0.147504
0.0132052
-0.141873
0.0140035
-0.136504
0.014785
-0.131407
0.0155595
-0.126579
0.0163368
-0.122003
0.0171252
-0.117649
-0.113471
0.0179313
0.000259746
-0.238789
0.000919319
-0.225113
0.0018507
-0.215024
0.00294321
-0.206881
0.00411075
-0.199706
0.00529224
-0.192932
0.00644822
-0.186296
0.00755611
-0.179711
0.00860564
-0.173173
0.00959486
-0.166719
0.0105271
-0.160399
0.0114087
-0.15426
0.0122474
-0.148343
0.0130521
-0.142678
0.0138318
-0.137284
0.014596
-0.132172
0.0153551
-0.127338
0.0161191
-0.122767
0.0168976
-0.118428
-0.114271
0.0176982
0.000265121
-0.239054
0.00093245
-0.225781
0.00186877
-0.21596
0.0029606
-0.207973
0.00412117
-0.200866
0.00528994
-0.1941
0.00642852
-0.187435
0.00751565
-0.180798
0.0085423
-0.1742
0.00950761
-0.167684
0.0104158
-0.161307
0.0112737
-0.155118
0.0120898
-0.149159
0.0128729
-0.143461
0.0136321
-0.138043
0.0143772
-0.132917
0.0151187
-0.128079
0.0158674
-0.123516
0.016634
-0.119194
-0.115065
0.0174273
0.000269776
-0.239324
0.000943738
-0.226455
0.00188343
-0.2169
0.00297265
-0.209062
0.00412409
-0.202018
0.00527787
-0.195254
0.00639681
-0.188554
0.00746097
-0.181862
0.00846257
-0.175201
0.00940186
-0.168624
0.0102839
-0.162189
0.0111163
-0.155951
0.0119076
-0.14995
0.012667
-0.14422
0.0134037
-0.13878
0.0141274
-0.13364
0.0148489
-0.128801
0.0155798
-0.124247
0.0163318
-0.119946
-0.115848
0.0171154
0.000273787
-0.239598
0.000953406
-0.227134
0.00189502
-0.217841
0.00297971
-0.210147
0.00411988
-0.203158
0.00525645
-0.196391
0.00635351
-0.189651
0.00739247
-0.182901
0.00836686
-0.176176
0.00927798
-0.169535
0.0101318
-0.163043
0.0109363
-0.156755
0.0117008
-0.150715
0.0124342
-0.144953
0.0131458
-0.139492
0.0138455
-0.13434
0.014544
-0.129499
0.0152538
-0.124957
0.015988
-0.12068
-0.116619
0.0167589
0.000277271
-0.239875
0.000961762
-0.227819
0.00190392
-0.218783
0.00298225
-0.211225
0.00410905
-0.204285
0.00522623
-0.197508
0.00629922
-0.190724
0.00731083
-0.183913
0.00825584
-0.177121
0.00913664
-0.170416
0.00995994
-0.163866
0.0107345
-0.15753
0.0114696
-0.15145
0.0121744
-0.145658
0.0128583
-0.140175
0.0135307
-0.135013
0.0142028
-0.130172
0.0148875
-0.125641
0.0155995
-0.121392
-0.117373
0.0163535
0.00028046
-0.240156
0.000969261
-0.228507
0.00191069
-0.219725
0.00298085
-0.212295
0.00409225
-0.205396
0.00518794
-0.198604
0.00623476
-0.191771
0.00721693
-0.184895
0.00813049
-0.178034
0.00897885
-0.171264
0.00976946
-0.164657
0.0105116
-0.158272
0.0112147
-0.152153
0.0118883
-0.146332
0.0125411
-0.140828
0.0131827
-0.135654
0.013824
-0.130813
0.0144787
-0.126296
0.0151632
-0.122077
-0.118105
0.0158948
0.000283779
-0.240439
0.000976595
-0.2292
0.00191605
-0.220664
0.00297627
-0.213356
0.00407029
-0.20649
0.00514248
-0.199676
0.00616116
-0.19279
0.00711196
-0.185846
0.00799213
-0.178914
0.00880604
-0.172078
0.00956183
-0.165413
0.0102691
-0.158979
0.0109377
-0.152822
0.0115768
-0.146971
0.0121951
-0.141447
0.0128016
-0.136261
0.013407
-0.131418
0.0140255
-0.126915
0.0146753
-0.122727
-0.118806
0.0153769
0.000287969
-0.240727
0.000984756
-0.229897
0.00192088
-0.2216
0.00296932
-0.214404
0.00404405
-0.207565
0.00509088
-0.200723
0.00607964
-0.193778
0.00699736
-0.186764
0.00784246
-0.179759
0.00862018
-0.172856
0.00933923
-0.166132
0.0100096
-0.159649
0.0106409
-0.153453
0.0112424
-0.147572
0.0118222
-0.142026
0.0123887
-0.136827
0.012952
-0.131982
0.0135262
-0.127489
0.0141314
-0.123332
-0.119468
0.0147929
0.000294103
-0.241022
0.000994868
-0.230598
0.00192602
-0.222531
0.00296084
-0.215439
0.00401451
-0.208619
0.0050343
-0.201742
0.0059916
-0.194736
0.00687483
-0.187647
0.00768353
-0.180568
0.00842372
-0.173596
0.00910455
-0.166813
0.00973613
-0.160281
0.0103281
-0.154045
0.0108892
-0.148133
0.0114268
-0.142564
0.0119483
-0.137349
0.0124626
-0.132496
0.0129832
-0.128009
0.0135319
-0.123881
-0.120077
0.0141414
0.000303491
-0.241325
0.00100804
-0.231302
0.0019324
-0.223456
0.00295184
-0.216458
0.00398279
-0.20965
0.00497402
-0.202734
0.00589855
-0.19566
0.00674622
-0.188494
0.00751762
-0.18134
0.00821946
-0.174298
0.00886122
-0.167454
0.00945296
-0.160873
0.0100041
-0.154596
0.0105226
-0.148652
0.0110153
-0.143057
0.0114879
-0.137821
0.0119477
-0.132956
0.0124063
-0.128468
0.0128868
-0.124361
-0.120617
0.0134268
0.000318451
-0.241643
0.00102669
-0.232011
0.0019422
-0.224371
0.00294391
-0.21746
0.0039501
-0.210656
0.0049112
-0.203695
0.00580187
-0.196551
0.00661333
-0.189306
0.00734716
-0.182073
0.00801059
-0.174961
0.00861324
-0.168057
0.00916491
-0.161424
0.0096744
-0.155106
0.0101489
-0.149126
0.0105937
-0.143501
0.0110134
-0.138241
0.0114131
-0.133355
0.0118006
-0.128856
0.0121949
-0.124756
-0.121055
0.0126322
0.000346669
-0.24199
0.00105827
-0.232722
0.00195931
-0.225272
0.0029384
-0.218439
0.00391694
-0.211634
0.00484635
-0.204624
0.00570245
-0.197407
0.00647767
-0.190081
0.00717447
-0.18277
0.00780059
-0.175587
0.00836559
-0.168622
0.00887879
-0.161938
0.0093479
-0.155575
0.00977834
-0.149557
0.0101731
-0.143896
0.0105334
-0.138601
0.010859
-0.133681
0.0111489
-0.129145
0.011412
-0.125019
-0.121359
0.0117167
0.000407949
-0.242398
0.00111259
-0.233427
0.00198275
-0.226143
0.00293329
-0.21939
0.00388202
-0.212583
0.00477897
-0.205521
0.0056005
-0.198228
0.00634015
-0.190821
0.00700137
-0.183431
0.00759251
-0.176178
0.00812336
-0.169153
0.00860293
-0.162417
0.00903806
-0.15601
0.00943235
-0.149951
0.00978543
-0.144249
0.0100918
-0.138908
0.0103384
-0.133927
0.0105027
-0.12931
0.0105692
-0.125085
-0.121479
0.0106886
0.247776
0.000319518
-0.248095
0.247485
0.000290663
0.247205
0.00028036
0.246926
0.000278053
0.246647
0.000279097
0.246366
0.000281379
0.246082
0.00028428
0.245794
0.000287272
0.245504
0.000289961
0.245212
0.000292128
0.244919
0.000293658
0.244624
0.00029451
0.24433
0.000294645
0.244036
0.000294016
0.243743
0.00029247
0.243453
0.000289767
0.243168
0.000284822
0.242891
0.000277032
0.242634
0.000257247
0.00023608
0.244657
0.000765856
-0.245103
0.244185
0.000762208
0.243694
0.000772015
0.243183
0.000788624
0.242655
0.000807544
0.24211
0.000826349
0.241549
0.000844668
0.240975
0.000862019
0.240387
0.000877931
0.239787
0.000892088
0.239176
0.000904325
0.238556
0.000914549
0.237928
0.000922688
0.237293
0.000928661
0.236654
0.000932252
0.23601
0.000933183
0.235365
0.000930247
0.234719
0.000923045
0.234071
0.000904598
0.000880605
0.239574
0.00117464
-0.239982
0.23911
0.00122572
0.238606
0.00127652
0.238065
0.00132914
0.237491
0.00138167
0.236886
0.00143181
0.236251
0.00147922
0.235589
0.00152367
0.234902
0.00156482
0.234192
0.00160242
0.23346
0.0016363
0.232708
0.00166639
0.231938
0.00169264
0.231152
0.00171501
0.230351
0.00173339
0.229536
0.00174763
0.22871
0.00175708
0.227871
0.00176179
0.227016
0.00175937
0.00175419
0.232786
0.00149717
-0.233108
0.232408
0.00160339
0.23198
0.00170437
0.231507
0.00180262
0.23099
0.0018982
0.230433
0.00198937
0.229836
0.00207571
0.229203
0.002157
0.228535
0.00223299
0.227834
0.00230345
0.227102
0.00236823
0.226341
0.00242729
0.225553
0.00248064
0.22474
0.00252833
0.223903
0.00257042
0.223043
0.00260703
0.222162
0.00263807
0.22126
0.00266395
0.220335
0.00268401
0.0026999
0.224781
0.00170711
-0.224991
0.224516
0.0018685
0.224198
0.00202268
0.223829
0.00217129
0.223413
0.002315
0.222949
0.00245256
0.222441
0.00258352
0.221891
0.00270757
0.221299
0.00282443
0.220669
0.00293388
0.220002
0.00303579
0.219299
0.00313011
0.218562
0.00321691
0.217794
0.00329636
0.216996
0.00336869
0.216169
0.00343426
0.215314
0.00349337
0.214431
0.00354669
0.213521
0.00359427
0.00363733
0.216067
0.00180844
-0.216169
0.215912
0.00202434
0.215702
0.00223203
0.215441
0.00243243
0.21513
0.00262615
0.21477
0.00281222
0.214364
0.00299017
0.213912
0.00315962
0.213416
0.00332022
0.212878
0.00347173
0.2123
0.00361398
0.211683
0.00374695
0.211029
0.00387073
0.21034
0.00398557
0.209617
0.00409188
0.208861
0.00419024
0.208073
0.00428127
0.207254
0.00436593
0.206403
0.00444481
0.0045193
0.207096
0.00182066
-0.207109
0.207031
0.00208943
0.206914
0.00234935
0.206746
0.00260084
0.206527
0.00284425
0.206261
0.00307875
0.205947
0.00330382
0.205588
0.003519
0.205184
0.00372389
0.204738
0.00391817
0.20425
0.00410165
0.203723
0.00427427
0.203157
0.00443616
0.202555
0.00458764
0.201918
0.00472925
0.201246
0.00486179
0.200541
0.00498621
0.199803
0.00510383
0.199033
0.0052157
0.00532345
0.198207
0.00176756
-0.198154
0.19821
0.00208692
0.198162
0.00239693
0.198065
0.00269766
0.19792
0.0029892
0.197728
0.00327074
0.197491
0.00354172
0.197208
0.00380157
0.196882
0.00404981
0.196514
0.00428606
0.196106
0.00451005
0.195658
0.0047217
0.195173
0.00492112
0.194652
0.00510869
0.194097
0.00528507
0.193507
0.00545129
0.192885
0.00560863
0.19223
0.00575881
0.191542
0.00590345
0.00604453
0.189625
0.00167139
-0.189528
0.189673
0.00203888
0.189673
0.00239657
0.189626
0.00274427
0.189534
0.00308184
0.189396
0.00340845
0.189214
0.00372345
0.18899
0.00402617
0.188724
0.00431605
0.188417
0.0045926
0.188072
0.00485548
0.187689
0.00510453
0.18727
0.00533983
0.186817
0.00556178
0.186331
0.00577114
0.185813
0.00596915
0.185264
0.00615749
0.184685
0.00633834
0.184074
0.00651403
0.00668712
0.181479
0.00155052
-0.181358
0.181554
0.00196385
0.181584
0.00236691
0.181569
0.00275933
0.18151
0.00314077
0.181408
0.00351034
0.181264
0.00386728
0.18108
0.00421085
0.180855
0.00454035
0.180593
0.00485519
0.180293
0.00515491
0.179959
0.00543926
0.17959
0.00570824
0.17919
0.0059622
0.178759
0.006202
0.178299
0.00642904
0.177811
0.00664542
0.177295
0.00685391
0.176752
0.00705777
0.00726043
0.173834
0.00141918
-0.173703
0.173922
0.0018763
0.173966
0.00232269
0.173968
0.00275779
0.173927
0.0031811
0.173846
0.00359165
0.173725
0.00398858
0.173564
0.00437102
0.173367
0.00473815
0.173133
0.00508926
0.172864
0.00542374
0.172562
0.00574119
0.172229
0.00604147
0.171866
0.00632484
0.171476
0.00659216
0.17106
0.00684492
0.17062
0.00708572
0.170156
0.00731791
0.169667
0.00754611
0.00777493
0.166706
0.0012874
-0.166575
0.166796
0.00178667
0.166844
0.00227472
0.166851
0.00275083
0.166818
0.00321433
0.166745
0.00366417
0.166634
0.00409938
0.166487
0.00451896
0.166303
0.00492196
0.166084
0.00530751
0.165833
0.00567484
0.165551
0.00602332
0.16524
0.00635263
0.164902
0.00666282
0.16454
0.00695464
0.164155
0.00722958
0.16375
0.0074907
0.163326
0.00774188
0.162882
0.00798971
0.00824022
0.160084
0.0011619
-0.159959
0.160169
0.00170212
0.160213
0.00223055
0.160218
0.00274634
0.160183
0.00324869
0.160111
0.00373646
0.160002
0.00420855
0.159857
0.00466385
0.159678
0.00510127
0.159465
0.00551974
0.159222
0.00591829
0.158949
0.00629604
0.158649
0.00665237
0.158325
0.00698701
0.157979
0.00730045
0.157615
0.00759392
0.157235
0.00787092
0.156841
0.00813558
0.156433
0.00839744
0.00866373
0.15394
0.00104695
-0.153825
0.154015
0.00162719
0.154051
0.00219503
0.154048
0.00274952
0.154006
0.00328972
0.153929
0.00381437
0.153815
0.00432228
0.153666
0.0048122
0.153485
0.00528289
0.153272
0.00573308
0.153028
0.00616156
0.152757
0.00656716
0.152461
0.00694886
0.152142
0.00730592
0.151804
0.00763836
0.151451
0.00794681
0.151087
0.00823505
0.150716
0.00850673
0.150337
0.00877596
0.00904974
0.148239
0.000944947
-0.148137
0.148302
0.0015646
0.148326
0.00217113
0.148311
0.00276359
0.14826
0.00334087
0.148173
0.00390162
0.148051
0.00444453
0.147895
0.00496822
0.147706
0.00547129
0.147487
0.00595229
0.147239
0.00640974
0.146964
0.0068421
0.146665
0.00724791
0.146345
0.00762579
0.146009
0.00797501
0.14566
0.00829515
0.145305
0.00858989
0.144951
0.00886093
0.144598
0.00912947
0.00939812
0.142943
0.000857086
-0.142855
0.142992
0.00151555
0.143003
0.00216028
0.142976
0.00279016
0.142913
0.00340392
0.142815
0.00400013
0.142682
0.00457738
0.142516
0.00513416
0.142318
0.00566891
0.14209
0.00618
0.141834
0.00666566
0.141553
0.00712402
0.141247
0.00755304
0.140923
0.00795059
0.140583
0.00831488
0.140234
0.00864387
0.139883
0.00894053
0.139542
0.00920221
0.139211
0.00946024
0.00970194
0.138014
0.000783556
-0.137941
0.13805
0.00148021
0.138047
0.00216274
0.138008
0.00282954
0.137933
0.00347924
0.137822
0.00411033
0.137678
0.00472129
0.137502
0.00531049
0.137295
0.00587626
0.137058
0.00641677
0.136794
0.00693
0.136504
0.00741372
0.136192
0.00786534
0.13586
0.00828185
0.135515
0.00866011
0.135163
0.00899581
0.134813
0.00929022
0.134482
0.00953324
0.134172
0.00977088
0.00994627
0.13342
0.000722588
-0.133359
0.133442
0.00145785
0.133427
0.00217765
0.133376
0.00288081
0.133289
0.00356581
0.133169
0.00423104
0.133015
0.00487491
0.13283
0.00549573
0.132614
0.00609169
0.13237
0.0066608
0.1321
0.00720084
0.131804
0.00770926
0.131486
0.00818296
0.13115
0.00861806
0.1308
0.00900991
0.130445
0.00935115
0.130095
0.00963989
0.129775
0.00985366
0.129481
0.0100644
0.0101181
0.129127
0.000673865
-0.129079
0.129139
0.00144664
0.129113
0.0022029
0.129053
0.00294148
0.128958
0.00366074
0.12883
0.004359
0.12867
0.00503461
0.12848
0.00568582
0.128261
0.00631071
0.128015
0.0069072
0.127743
0.00747292
0.127447
0.00800505
0.12713
0.00850015
0.126794
0.00895354
0.126445
0.00935932
0.126089
0.00970656
0.12574
0.00998911
0.125433
0.0101609
0.12517
0.0103275
0.0102026
0.125107
-0.125068
0.000635489
0.12511
0.00144362
0.125078
0.00223518
0.125011
0.0030076
0.124913
0.00375943
0.124783
0.0044889
0.124623
0.00519439
0.124435
0.00587406
0.12422
0.00652593
0.123979
0.00714786
0.123714
0.0077374
0.123428
0.00829162
0.123121
0.00880686
0.122797
0.00927796
0.122458
0.00969843
0.12211
0.0100542
0.121762
0.0103369
0.121453
0.0104699
0.121224
0.0105567
0.00994782
0.250242
6.62797e-05
-0.250308
0.250219
2.32157e-05
0.250206
1.3209e-05
0.250189
1.65233e-05
0.250163
2.60099e-05
0.250124
3.8767e-05
0.250071
5.36114e-05
0.250001
6.95735e-05
0.249915
8.58703e-05
0.249813
0.000102284
0.249695
0.000118478
0.249561
0.000133792
0.249413
0.000148137
0.249251
0.000161608
0.249077
0.000174042
0.248892
0.000185178
0.248697
0.000194427
0.248496
0.000201927
0.248294
0.000201283
0.000199198
0.246853
-0.00018898
-0.246598
0.247062
-0.000185605
0.247239
-0.0001637
0.247384
-0.000128503
0.247496
-8.61331e-05
0.247575
-3.98958e-05
0.247619
9.08708e-06
0.247629
5.95703e-05
0.247604
0.000110754
0.247543
0.000163956
0.247445
0.000216423
0.247311
0.000266923
0.247144
0.000315762
0.246942
0.000362988
0.246708
0.000408064
0.246443
0.000450165
0.24615
0.000487603
0.245828
0.000524366
0.245477
0.000552265
0.000572665
0.239301
-0.000707833
-0.238782
0.23976
-0.000644624
0.240169
-0.000572519
0.240531
-0.00049077
0.240847
-0.000402158
0.241117
-0.000309394
0.241339
-0.000213398
0.241515
-0.000115771
0.241648
-2.26794e-05
0.241729
8.26249e-05
0.241762
0.000184148
0.241748
0.000280616
0.241687
0.000376365
0.24158
0.000470243
0.241427
0.0005613
0.241228
0.000648928
0.240984
0.000732287
0.240696
0.000811848
0.240363
0.000884888
0.000953595
0.229502
-0.00142489
-0.228785
0.230163
-0.00130565
0.230771
-0.00118044
0.231328
-0.00104781
0.231835
-0.000908466
0.23229
-0.000764459
0.232693
-0.000617047
0.233045
-0.000467545
0.23334
-0.000317126
0.233585
-0.000163115
0.233772
-2.53468e-06
0.233911
0.000141946
0.233995
0.000291597
0.234027
0.000438938
0.234005
0.000583272
0.23393
0.000723944
0.233802
0.000860008
0.233623
0.000991255
0.233391
0.00111663
0.00123603
0.21878
-0.00228087
-0.217924
0.219586
-0.00211098
0.22034
-0.0019349
0.221044
-0.00175174
0.221697
-0.00156148
0.222298
-0.00136563
0.222846
-0.00116542
0.223341
-0.000961833
0.223779
-0.000755818
0.224164
-0.000547577
0.2245
-0.000338112
0.224775
-0.000133195
0.224995
7.07701e-05
0.225162
0.00027287
0.225271
0.000473925
0.225325
0.000670016
0.225324
0.000861235
0.225267
0.00104739
0.225156
0.00122761
0.0014012
0.207958
-0.0032252
-0.207014
0.208857
-0.00300929
0.209707
-0.00278568
0.21051
-0.00255414
0.211263
-0.00231462
0.211966
-0.00206836
0.212617
-0.00181661
0.213216
-0.00156055
0.213761
-0.00130141
0.214254
-0.00104023
0.214694
-0.000778031
0.215077
-0.00051655
0.215404
-0.000256329
0.215682
-5.17097e-06
0.215901
0.000255362
0.216065
0.000506129
0.216173
0.00075259
0.216227
0.000993911
0.216225
0.00122921
0.00145769
0.197529
-0.00421845
-0.196536
0.19848
-0.00396022
0.199387
-0.00369232
0.200248
-0.00341497
0.201062
-0.00312839
0.201827
-0.00283384
0.202543
-0.00253272
0.203209
-0.00222643
0.203824
-0.00191634
0.204388
-0.00160371
0.204899
-0.00128961
0.205358
-0.000975584
0.205765
-0.000662982
0.206113
-0.000353117
0.206415
-4.71152e-05
0.206661
0.000259928
0.206854
0.000560262
0.206992
0.000855343
0.207077
0.00114435
0.00142632
0.187749
-0.00523234
-0.186735
0.188723
-0.00493474
0.189656
-0.00462527
0.190546
-0.00430445
0.19139
-0.00397287
0.192188
-0.00363203
0.192939
-0.00328355
0.193642
-0.00292907
0.194296
-0.00257009
0.1949
-0.00220806
0.195454
-0.0018442
0.195959
-0.00147999
0.196412
-0.00111653
0.196814
-0.000754925
0.197163
-0.000395809
0.197466
-4.32761e-05
0.197716
0.000310713
0.197913
0.000657903
0.198059
0.000998175
0.00133138
0.178714
-0.00624824
-0.177698
0.179693
-0.00591366
0.180632
-0.00556479
0.18153
-0.00520228
0.182384
-0.00482727
0.183194
-0.00444168
0.183958
-0.00404744
0.184675
-0.00364644
0.185346
-0.00324038
0.185968
-0.00283084
0.186543
-0.00241919
0.18707
-0.00200681
0.187549
-0.00159483
0.187978
-0.00118443
0.188359
-0.000776382
0.188687
-0.000371767
0.188974
2.35699e-05
0.189207
0.000424826
0.189392
0.000813149
0.00119521
0.170429
-0.0072551
-0.169422
0.171401
-0.00688557
0.172335
-0.0064989
0.173229
-0.00609586
0.17408
-0.00567841
0.174887
-0.00524905
0.17565
-0.00481013
0.176368
-0.00436382
0.177039
-0.00391205
0.177665
-0.00345652
0.178244
-0.00299868
0.178777
-0.00253988
0.179264
-0.00208132
0.179704
-0.00162415
0.180097
-0.00116933
0.180443
-0.000718182
0.180739
-0.000272556
0.180994
0.000170412
0.181199
0.000607457
0.00103606
0.162851
-0.00824739
-0.161858
0.16381
-0.0078449
0.164733
-0.00742154
0.165615
-0.00697848
0.166456
-0.00651893
0.167253
-0.00604622
0.168006
-0.00556315
0.168714
-0.00507225
0.169378
-0.00457566
0.169997
-0.0040752
0.17057
-0.00357237
0.171099
-0.0030685
0.171582
-0.00256482
0.172021
-0.00206246
0.172414
-0.00156247
0.172762
-0.00106587
0.173063
-0.0005738
0.173321
-8.8208e-05
0.173535
0.000394242
0.000867816
0.155912
-0.00922359
-0.154936
0.156857
-0.00879039
0.157767
-0.00833096
0.158636
-0.00784763
0.159463
-0.00734567
0.160246
-0.00682938
0.160985
-0.00630213
0.161679
-0.00576682
0.162329
-0.00522586
0.162935
-0.0046811
0.163497
-0.00413407
0.164015
-0.00358608
0.164488
-0.00303832
0.164918
-0.0024919
0.165303
-0.00194789
0.165644
-0.00140728
0.165942
-0.000871344
0.166195
-0.000341361
0.166407
0.000182219
0.000700315
0.149542
-0.0101851
-0.148581
0.150476
-0.00972411
0.151374
-0.00922845
0.15223
-0.00870367
0.153042
-0.00815817
0.15381
-0.00759734
0.154533
-0.00702523
0.155212
-0.00644522
0.155846
-0.00585989
0.156436
-0.00527111
0.156982
-0.00468034
0.157485
-0.00408884
0.157944
-0.00349774
0.15836
-0.00290811
0.158733
-0.00232099
0.159064
-0.00173745
0.159351
-0.00115849
0.159594
-0.00058503
0.159799
-2.20461e-05
0.000540184
0.143677
-0.0111356
-0.142727
0.144604
-0.0106508
0.145493
-0.0101174
0.146338
-0.00954857
0.147137
-0.00895729
0.14789
-0.00835005
0.148596
-0.00773174
0.149257
-0.00710628
0.149874
-0.0064763
0.150446
-0.00584356
0.150975
-0.00520937
0.151461
-0.00457482
0.151904
-0.00394094
0.152305
-0.00330873
0.152663
-0.00267921
0.152979
-0.00205343
0.153253
-0.00143246
0.153486
-0.000817714
0.153675
-0.000211064
0.000389693
0.138261
-0.0120813
-0.137315
0.139187
-0.0115774
0.140072
-0.0110019
0.140908
-0.0103845
0.141694
-0.00974367
0.142431
-0.00908711
0.14312
-0.00842079
0.143763
-0.00774899
0.144361
-0.00707411
0.144915
-0.00639754
0.145426
-0.00572028
0.145894
-0.00504317
0.14632
-0.00436706
0.146704
-0.00369283
0.147046
-0.00302146
0.147347
-0.00235401
0.147606
-0.00169162
0.147824
-0.00103555
0.148
-0.000387257
0.000252729
0.133248
-0.0130326
-0.132297
0.134182
-0.0125116
0.135065
-0.0118852
0.135893
-0.0112119
0.136665
-0.0105161
0.137385
-0.0098067
0.138055
-0.00909069
0.138678
-0.00837209
0.139256
-0.0076525
0.139791
-0.00693264
0.140284
-0.00621297
0.140735
-0.00549396
0.141144
-0.00477619
0.141512
-0.00406047
0.141838
-0.00334773
0.142123
-0.00263901
0.142367
-0.00193551
0.14257
-0.00123843
0.142732
-0.000549405
0.00012973
0.128605
-0.0140097
-0.127628
0.129554
-0.0134608
0.130435
-0.0127663
0.131251
-0.0120278
0.132006
-0.0112706
0.132704
-0.0105053
0.133353
-0.00973921
0.133955
-0.00897454
0.134514
-0.00821135
0.135031
-0.00744934
0.135506
-0.00668826
0.13594
-0.00592812
0.136333
-0.00516931
0.136685
-0.00441253
0.136996
-0.00365873
0.137266
-0.00290901
0.137496
-0.00216461
0.137684
-0.00142683
0.137832
-0.000697015
2.04525e-05
0.1243
-0.015055
-0.123255
0.125269
-0.0144294
0.12614
-0.0136378
0.126937
-0.012825
0.127668
-0.0120014
0.128343
-0.0111796
0.128969
-0.0103653
0.129551
-0.00955688
0.130092
-0.00875208
0.130592
-0.00794944
0.131052
-0.00714801
0.131471
-0.00634742
0.13185
-0.00554796
0.132187
-0.00475036
0.132484
-0.00395562
0.13274
-0.00316497
0.132955
-0.00237978
0.13313
-0.00160153
0.133265
-0.000831925
-7.34183e-05
0.120317
-0.0162056
-0.119167
0.121285
-0.0153964
0.122131
-0.0144841
0.1229
-0.0135939
0.123604
-0.0127055
0.124255
-0.0118304
0.124861
-0.0109715
0.125426
-0.0101223
0.125952
-0.00927798
0.126439
-0.00843592
0.126885
-0.00759472
0.127292
-0.00675392
0.127658
-0.00591382
0.127983
-0.00507531
0.128267
-0.00423959
0.12851
-0.003408
0.128712
-0.00258206
0.128874
-0.00176344
0.128996
-0.000954084
-0.00015624
0.116635
-0.115585
-0.0172559
0.11752
-0.0162814
0.118346
-0.0153104
0.119087
-0.0143347
0.11977
-0.0133886
0.120407
-0.0124669
0.121
-0.0115651
0.121554
-0.0106762
0.122069
-0.00979293
0.122545
-0.00891149
0.12298
-0.00803019
0.123375
-0.0071487
0.123729
-0.00626757
0.124041
-0.00538789
0.124313
-0.00451108
0.124543
-0.00363866
0.124733
-0.00277223
0.124884
-0.00191351
0.124994
-0.00106456
-0.000230642
0.0208685
0.095367
-0.0943181
-0.0219175
0.0198196
0.0991965
-0.0981475
0.0187662
0.103229
-0.102176
0.0177032
0.107483
-0.10642
0.0166253
0.111982
-0.110904
0.0155279
0.116756
-0.115658
0.0144068
0.121848
-0.120727
0.0132587
0.127315
-0.126167
0.0120808
0.13323
-0.132052
0.0108715
0.139684
-0.138475
0.00962991
0.146787
-0.145545
0.00835739
0.154663
-0.15339
0.00705829
0.163449
-0.16215
0.00574247
0.173276
-0.17196
0.00442878
0.184242
-0.182928
0.00315025
0.196357
-0.195078
0.00196128
0.20946
-0.208271
0.000947198
0.223079
-0.222065
0.000228873
0.236124
-0.235405
0.246542
-0.246313
0.0209521
0.0964273
-0.0220124
0.0198921
0.100256
0.0188281
0.104293
0.0177549
0.108556
0.0166674
0.113069
0.015561
0.117862
0.0144314
0.122977
0.0132752
0.128471
0.0120897
0.134415
0.0108731
0.140901
0.00962477
0.148035
0.00834625
0.155942
0.00704239
0.164753
0.00572372
0.174595
0.00441006
0.185556
0.00313572
0.197631
0.00195638
0.21064
0.000956771
0.224078
0.000257155
0.236823
0.246799
0.020999
0.0974965
-0.0220682
0.0199302
0.101325
0.0188576
0.105366
0.0177763
0.109637
0.0166813
0.114164
0.0155678
0.118976
0.0144317
0.124113
0.0132694
0.129633
0.0120783
0.135607
0.0108563
0.142123
0.0096033
0.149288
0.00832085
0.157224
0.00701426
0.16606
0.00569469
0.175914
0.00438277
0.186868
0.00311363
0.1989
0.00194347
0.21181
0.000956065
0.225066
0.000265109
0.237514
0.247064
0.0210095
0.0985725
-0.0220855
0.0199341
0.102401
0.0188553
0.106445
0.017768
0.110725
0.0166673
0.115265
0.0155488
0.120094
0.014408
0.125254
0.0132416
0.1308
0.0120467
0.136802
0.0108215
0.143348
0.00956568
0.150544
0.00828126
0.158508
0.00697388
0.167367
0.00565523
0.177233
0.00434657
0.188176
0.00308365
0.200163
0.00192284
0.212971
0.000946785
0.226042
0.00026507
0.238196
0.247329
0.0209848
0.099653
-0.0220654
0.0199049
0.103481
0.0188216
0.107528
0.0177302
0.111816
0.0166259
0.116369
0.0155041
0.121216
0.0143605
0.126398
0.0131918
0.131968
0.0119949
0.137998
0.0107683
0.144574
0.00951166
0.1518
0.00822718
0.159793
0.00692089
0.168673
0.00560497
0.178549
0.00430126
0.18948
0.00304604
0.201419
0.00189576
0.214121
0.000931982
0.227006
0.000261142
0.238867
0.24759
0.0209263
0.100736
-0.0220097
0.0198434
0.104564
0.0187575
0.108614
0.0176638
0.11291
0.0165574
0.117475
0.015434
0.12234
0.0142893
0.127542
0.0131199
0.133138
0.011923
0.139195
0.0106967
0.145801
0.00944109
0.153056
0.00815844
0.161076
0.00685515
0.169977
0.00554385
0.17986
0.00424696
0.190777
0.00300125
0.202664
0.00186318
0.215259
0.000913143
0.227956
0.000254699
0.239525
0.247845
0.0208354
0.101821
-0.0219204
0.0197511
0.105648
0.018664
0.109701
0.0175693
0.114005
0.0164624
0.118582
0.0153388
0.123463
0.0141947
0.128686
0.0130263
0.134306
0.0118309
0.140391
0.0106068
0.147025
0.00935399
0.154309
0.00807506
0.162354
0.00677669
0.171275
0.00547198
0.181165
0.00418385
0.192065
0.00294953
0.203899
0.00182541
0.216383
0.000890737
0.22889
0.000246364
0.24017
0.248091
0.0207138
0.102907
-0.0217993
0.0196291
0.106733
0.0185418
0.110788
0.0174474
0.115099
0.0163412
0.119689
0.015219
0.124585
0.0140768
0.129829
0.012911
0.135472
0.0117188
0.141583
0.0104985
0.148245
0.0092504
0.155557
0.00797708
0.163628
0.00668558
0.172566
0.00538943
0.182461
0.00411206
0.193342
0.00289107
0.20512
0.00178276
0.217491
0.000865227
0.229808
0.000236705
0.240798
0.248328
0.020563
0.103993
-0.0216486
0.0194785
0.107817
0.0183919
0.111875
0.0172987
0.116192
0.0161943
0.120793
0.0150747
0.125705
0.0139357
0.130968
0.012774
0.136634
0.0115866
0.14277
0.010372
0.14946
0.00913031
0.156799
0.00786451
0.164894
0.00658187
0.173849
0.00529632
0.183747
0.00403176
0.194607
0.00282612
0.206325
0.00173556
0.218582
0.000837051
0.230706
0.000226114
0.241409
0.248554
0.0203844
0.105079
-0.0214702
0.0193001
0.108901
0.0182146
0.11296
0.0171233
0.117284
0.0160217
0.121894
0.0149057
0.126821
0.0137714
0.132102
0.0126152
0.13779
0.0114342
0.143951
0.010227
0.150667
0.00899367
0.158032
0.00773735
0.16615
0.00646559
0.175121
0.00519273
0.18502
0.00394309
0.195856
0.00275489
0.207513
0.00168412
0.219653
0.000806548
0.231584
0.000214826
0.242001
0.248769
0.0201786
0.106165
-0.0212656
0.0190943
0.109986
0.0180099
0.114045
0.016921
0.118373
0.015823
0.122992
0.0147118
0.127932
0.0135834
0.13323
0.0124343
0.138939
0.0112615
0.145124
0.0100634
0.151865
0.00884037
0.159255
0.00759555
0.167395
0.00633678
0.17638
0.00507876
0.186278
0.00384622
0.197089
0.00267763
0.208682
0.00162871
0.220702
0.00077398
0.232439
0.000202999