/*--------------------------------*- C++ -*----------------------------------*\
  =========                 |
  \\      /  F ield         | OpenFOAM: The Open Source CFD Toolbox
   \\    /   O peration     | Website:  https://openfoam.org
    \\  /    A nd           | Version:  6.0
     \\/     M anipulation  |
\*---------------------------------------------------------------------------*/
FoamFile
{
    version     2.0;
    format      ascii;
    class       volScalarField;
    location    "17";
    object      p;
}
// * * * * * * * * * * * * * * * * * * * * * * * * * * * * * * * * * * * * * //

dimensions      [0 2 -2 0 0 0 0];

internalField   nonuniform List<scalar> 
2400
(
-238.569
-207.398
-184.446
-165.154
-148.067
-133.137
-120.103
-108.584
-98.2255
-88.8741
-243.676
-211.805
-188.19
-168.41
-151
-135.853
-122.661
-111.006
-100.516
-91.0857
-248.482
-215.944
-191.694
-171.442
-153.716
-138.353
-124.999
-113.198
-102.571
-93.067
-252.905
-219.746
-194.904
-174.213
-156.191
-140.618
-127.094
-115.139
-104.4
-94.8989
-256.864
-223.135
-197.749
-176.665
-158.394
-142.645
-128.961
-116.843
-106.004
-96.5677
-260.304
-226.038
-200.142
-178.703
-160.238
-144.387
-130.612
-118.372
-107.43
-98.0037
-263.215
-228.417
-202.003
-180.197
-161.542
-145.635
-131.876
-119.655
-108.722
-99.273
-265.638
-230.289
-203.322
-181.079
-162.125
-146.048
-132.259
-120.197
-109.661
-100.763
-267.638
-231.726
-204.18
-181.425
-162.004
-145.471
-131.291
-119.155
-109.318
-102.159
-269.267
-232.82
-204.716
-181.435
-161.469
-144.294
-129.355
-116.492
-106.367
-99.7452
-279.383
-278.884
-278.105
-277.152
-276.103
-275.009
-273.909
-272.813
-271.715
-270.565
-238.411
-238.22
-237.828
-237.307
-236.716
-236.1
-235.491
-234.898
-234.303
-233.645
-207.921
-207.753
-207.436
-207.031
-206.594
-206.173
-205.807
-205.513
-205.278
-205.048
-183.726
-183.423
-182.999
-182.514
-182.035
-181.62
-181.321
-181.17
-181.175
-181.302
-163.316
-162.843
-162.265
-161.641
-161.059
-160.582
-160.288
-160.217
-160.41
-160.865
-145.795
-145.161
-144.435
-143.662
-142.963
-142.386
-142.07
-142.044
-142.415
-143.178
-130.512
-129.733
-128.873
-127.952
-127.135
-126.404
-126.014
-125.963
-126.57
-127.646
-116.963
-116.053
-115.083
-114.036
-113.129
-112.193
-111.638
-111.372
-112.314
-113.897
-104.777
-103.735
-102.673
-101.553
-100.625
-99.5157
-98.7021
-97.918
-98.9952
-101.643
-93.8655
-92.6027
-91.374
-90.1842
-89.2417
-88.0416
-86.8853
-85.3705
-85.5883
-89.3434
-258.499
-262.746
-266.602
-270.023
-272.95
-275.33
-277.146
-278.413
-279.177
-279.485
-218.655
-222.507
-226.045
-229.194
-231.886
-234.083
-235.791
-237.037
-237.865
-238.312
-190.819
-194.254
-197.412
-200.193
-202.525
-204.39
-205.816
-206.845
-207.516
-207.864
-169.51
-172.641
-175.486
-177.92
-179.881
-181.387
-182.494
-183.25
-183.687
-183.833
-151.617
-154.6
-157.243
-159.378
-160.983
-162.146
-162.957
-163.456
-163.666
-163.606
-136.077
-139.062
-141.631
-143.518
-144.793
-145.652
-146.208
-146.482
-146.491
-146.248
-122.299
-125.339
-127.895
-129.578
-130.586
-131.216
-131.57
-131.657
-131.498
-131.103
-110.333
-113.222
-115.538
-116.97
-117.808
-118.304
-118.506
-118.447
-118.166
-117.661
-101.12
-103.449
-104.689
-105.615
-106.332
-106.704
-106.723
-106.521
-106.153
-105.573
-95.0469
-97.4335
-96.1563
-96.1185
-96.6733
-96.783
-96.4582
-96.0236
-95.5218
-94.8355
-74.7218
-83.1791
-92.5489
-102.726
-113.842
-126.184
-140.136
-156.403
-178.13
-212.219
-74.8863
-83.7072
-93.3899
-103.889
-115.367
-128.121
-142.552
-159.391
-181.803
-216.583
-75.2722
-84.4224
-94.3677
-105.161
-116.988
-130.148
-145.056
-162.469
-185.553
-220.977
-75.8757
-85.264
-95.4457
-106.538
-118.721
-132.289
-147.674
-165.66
-189.409
-225.45
-76.8689
-86.4517
-96.7936
-108.131
-120.635
-134.585
-150.428
-168.978
-193.384
-230.025
-77.8713
-87.6762
-98.2564
-109.893
-122.728
-137.047
-153.33
-172.43
-197.48
-234.7
-79.1465
-89.2671
-100.058
-111.93
-125.037
-139.683
-156.381
-176.01
-201.684
-239.462
-80.4211
-91.0143
-102.092
-114.188
-127.536
-142.485
-159.569
-179.697
-205.968
-244.282
-82.92
-93.7802
-104.688
-116.727
-130.22
-145.433
-162.864
-183.448
-210.282
-249.117
-87.305
-97.3475
-107.505
-119.425
-133.078
-148.509
-166.213
-187.19
-214.549
-253.892
-70.4096
-74.1568
-80.0284
-87.6327
-96.2281
-105.61
-115.916
-127.508
-142.94
-169.472
-72.6297
-76.9422
-82.981
-90.4235
-98.8001
-108.072
-118.427
-130.242
-146.108
-173.278
-72.2309
-78.0234
-84.8907
-92.6504
-101.133
-110.501
-121.029
-133.143
-149.496
-177.336
-72.1754
-78.5989
-86.0121
-94.1961
-103.025
-112.71
-123.571
-136.091
-153.01
-181.579
-72.6268
-79.2582
-86.9557
-95.4585
-104.647
-114.722
-126.004
-139.012
-156.571
-185.925
-73.1134
-80.013
-87.9674
-96.7211
-106.212
-116.655
-128.369
-141.899
-160.137
-190.305
-73.479
-80.738
-88.9904
-98.0049
-107.786
-118.58
-130.718
-144.774
-163.705
-194.687
-73.8207
-81.4052
-89.9495
-99.2445
-109.339
-120.498
-133.068
-147.657
-167.282
-199.063
-74.1793
-82.0407
-90.8526
-100.433
-110.859
-122.4
-135.418
-150.554
-170.878
-203.441
-74.4893
-82.6161
-91.6978
-101.575
-112.345
-124.286
-137.769
-153.468
-174.495
-207.827
-62.3783
-58.9138
-57.8794
-58.0344
-58.365
-58.8658
-59.5079
-60.4062
-61.5617
-62.8706
-69.9384
-67.2417
-65.5751
-65.3304
-65.3803
-65.8165
-66.4143
-67.2885
-68.3761
-69.6169
-77.1198
-75.1207
-73.5379
-73.0129
-72.8569
-73.1848
-73.7346
-74.5812
-75.6293
-76.8437
-85.1411
-83.3202
-81.9194
-81.2309
-80.9418
-81.1371
-81.6203
-82.4196
-83.4367
-84.6435
-93.9197
-92.1
-90.7605
-89.9724
-89.6049
-89.6923
-90.1167
-90.8726
-91.877
-93.0985
-103.383
-101.544
-100.175
-99.2994
-98.8666
-98.8739
-99.2541
-99.9826
-100.995
-102.256
-113.652
-111.745
-110.284
-109.296
-108.772
-108.697
-109.029
-109.736
-110.766
-112.082
-125.051
-122.956
-121.304
-120.133
-119.452
-119.249
-119.494
-120.155
-121.189
-122.553
-140.076
-137.604
-135.61
-134.136
-133.198
-132.785
-132.876
-133.438
-134.429
-135.798
-165.971
-162.938
-160.455
-158.56
-157.261
-156.549
-156.401
-156.782
-157.643
-158.913
-64.209
-65.4994
-66.807
-68.1699
-69.6264
-71.0028
-72.0876
-73.1726
-74.8836
-74.9509
-70.9294
-72.2588
-73.6249
-75.023
-76.4548
-77.8342
-79.0797
-80.088
-80.6411
-80.3547
-78.1582
-79.5353
-80.9682
-82.4343
-83.9206
-85.3919
-86.797
-87.8966
-88.3127
-88.14
-85.9779
-87.4079
-88.9099
-90.457
-92.0322
-93.6135
-95.1356
-96.376
-97.0883
-97.435
-94.4788
-95.9831
-97.5791
-99.2391
-100.942
-102.655
-104.303
-105.732
-106.846
-107.784
-103.711
-105.32
-107.048
-108.866
-110.745
-112.642
-114.484
-116.183
-117.729
-119.225
-113.632
-115.372
-117.265
-119.281
-121.383
-123.526
-125.648
-127.705
-129.717
-131.757
-124.197
-126.071
-128.14
-130.37
-132.721
-135.147
-137.605
-140.074
-142.577
-145.166
-137.484
-139.443
-141.641
-144.04
-146.597
-149.273
-152.04
-154.894
-157.856
-160.956
-160.509
-162.421
-164.612
-167.036
-169.651
-172.422
-175.34
-178.416
-181.674
-185.116
-188.73
-164.213
-147.886
-133.905
-120.818
-108.844
-97.9942
-88.2031
-79.4963
-71.1759
-192.622
-167.667
-150.771
-136.222
-122.613
-110.192
-98.9769
-88.8137
-79.4513
-70.2185
-196.833
-171.359
-153.865
-138.76
-124.676
-111.87
-100.328
-89.8333
-80.1572
-70.9307
-201.368
-175.307
-157.186
-141.538
-127.014
-113.871
-102.087
-91.4555
-81.7899
-72.773
-206.21
-179.504
-160.731
-144.548
-129.608
-116.154
-104.151
-93.3844
-83.6564
-74.6506
-211.325
-183.924
-164.477
-147.764
-132.43
-118.695
-106.5
-95.6155
-85.8015
-76.7317
-216.662
-188.524
-168.385
-151.146
-135.436
-121.435
-109.052
-98.0189
-88.0541
-78.8339
-222.157
-193.25
-172.403
-154.642
-138.573
-124.327
-111.773
-100.613
-90.5322
-81.231
-227.721
-198.031
-176.469
-158.191
-141.774
-127.292
-114.575
-103.295
-93.1173
-83.781
-233.236
-202.781
-180.512
-161.722
-144.966
-130.258
-117.385
-105.992
-95.7395
-86.4229
-62.8213
-30.4587
-12.6612
-6.18099
-3.0403
-1.12217
-0.519179
-0.358177
-0.342544
-0.360489
-0.382177
-0.397105
-0.399404
-0.384628
-0.358289
-0.31047
-0.256895
-0.192677
-0.11362
-0.0395943
-65.0191
-32.8891
-14.2317
-6.7322
-3.3298
-1.31254
-0.594247
-0.397711
-0.365109
-0.373581
-0.389562
-0.401126
-0.401379
-0.385343
-0.358099
-0.309944
-0.256186
-0.191892
-0.113466
-0.0397034
-67.0673
-35.1823
-15.8336
-7.3577
-3.60505
-1.48994
-0.668564
-0.43454
-0.385763
-0.385439
-0.396171
-0.404684
-0.403112
-0.385962
-0.357912
-0.309487
-0.255573
-0.191213
-0.113403
-0.0398281
-69.2267
-37.358
-17.225
-7.84351
-3.77124
-1.61896
-0.734175
-0.468172
-0.404677
-0.396235
-0.402109
-0.407836
-0.404638
-0.386509
-0.357747
-0.30911
-0.255061
-0.190646
-0.113421
-0.0399669
-71.4311
-39.0905
-18.0952
-8.02367
-3.79163
-1.69814
-0.791593
-0.499082
-0.421998
-0.406081
-0.407453
-0.410631
-0.405985
-0.387002
-0.357616
-0.308821
-0.254654
-0.190191
-0.113514
-0.0401173
-73.0114
-40.0604
-18.5901
-8.13494
-3.86287
-1.82302
-0.866897
-0.532123
-0.438476
-0.415158
-0.412286
-0.413107
-0.407174
-0.387455
-0.357527
-0.308623
-0.254352
-0.189846
-0.113676
-0.040276
-74.0892
-41.6685
-19.9917
-8.99591
-4.41824
-2.16507
-1.00744
-0.577535
-0.45632
-0.424081
-0.416844
-0.41538
-0.408269
-0.387908
-0.357506
-0.308528
-0.254164
-0.189611
-0.113901
-0.0404416
-77.6006
-46.785
-23.8329
-11.3216
-5.69068
-2.77509
-1.22843
-0.641621
-0.4779
-0.433798
-0.421581
-0.417703
-0.409439
-0.388481
-0.357645
-0.308597
-0.25413
-0.189512
-0.114202
-0.0406182
-85.2705
-54.3831
-29.0486
-14.2424
-7.0157
-3.32137
-1.43471
-0.705609
-0.499054
-0.443262
-0.426234
-0.42
-0.410663
-0.389177
-0.357955
-0.30885
-0.254264
-0.189558
-0.114581
-0.0408056
-84.368
-54.538
-30.1224
-14.617
-6.8553
-3.19563
-1.43749
-0.719074
-0.503464
-0.446167
-0.427937
-0.420634
-0.410761
-0.3891
-0.357723
-0.308776
-0.254202
-0.189484
-0.114883
-0.0409419
-67.0729
-46.3941
-26.7903
-12.4311
-5.42147
-2.53329
-1.26427
-0.68198
-0.485638
-0.437781
-0.423499
-0.417153
-0.40762
-0.386521
-0.355481
-0.307366
-0.25323
-0.188776
-0.114952
-0.0409625
-50.1266
-37.3493
-22.4946
-10.5976
-4.33562
-2.00096
-1.13715
-0.692851
-0.498885
-0.444347
-0.42699
-0.417942
-0.406656
-0.384785
-0.353175
-0.305432
-0.251641
-0.187525
-0.114776
-0.0408877
-36.9818
-29.0505
-18.3583
-9.136
-3.6694
-1.61942
-1.00421
-0.690015
-0.5104
-0.449649
-0.430055
-0.418638
-0.405464
-0.382667
-0.350355
-0.302961
-0.249593
-0.185921
-0.11439
-0.0406867
-25.4282
-21.4324
-14.4019
-7.65022
-3.20371
-1.38821
-0.902817
-0.684253
-0.523194
-0.454097
-0.431468
-0.41817
-0.403313
-0.37977
-0.34692
-0.30009
-0.24727
-0.184145
-0.1139
-0.0403529
-17.1446
-15.2312
-10.7218
-6.02895
-2.73322
-1.2332
-0.823654
-0.663696
-0.529226
-0.457294
-0.431567
-0.416723
-0.400374
-0.376214
-0.342984
-0.296916
-0.244726
-0.182237
-0.1133
-0.0398471
-11.2286
-9.98245
-7.25176
-4.44535
-2.36686
-1.22676
-0.805764
-0.640674
-0.527094
-0.45951
-0.431196
-0.414638
-0.396877
-0.372154
-0.338679
-0.293511
-0.241987
-0.18021
-0.112561
-0.0391228
-7.06167
-6.24794
-4.87559
-3.35899
-2.03065
-1.13673
-0.728812
-0.591062
-0.51764
-0.463047
-0.432074
-0.412603
-0.393159
-0.367826
-0.334214
-0.290009
-0.239139
-0.178129
-0.111685
-0.0381653
-4.62464
-4.11145
-3.34815
-2.4316
-1.59422
-1.0406
-0.750428
-0.614938
-0.534168
-0.474145
-0.435622
-0.411294
-0.389683
-0.36363
-0.329934
-0.286648
-0.236363
-0.176138
-0.110726
-0.037041
-3.5202
-3.08985
-2.56849
-2.01277
-1.50782
-1.09691
-0.803948
-0.631193
-0.536577
-0.477193
-0.437504
-0.410386
-0.386928
-0.360129
-0.326345
-0.283802
-0.233961
-0.174473
-0.109792
-0.0359519
-3.12171
-2.70298
-2.27077
-1.82172
-1.37443
-0.992665
-0.739228
-0.604151
-0.53049
-0.479118
-0.439937
-0.410701
-0.385553
-0.358019
-0.324112
-0.282018
-0.232398
-0.173474
-0.109085
-0.0352435
-78.2024
-76.2802
-74.3873
-72.8523
-71.4556
-69.9644
-67.8201
-65.3424
-63.1159
-65.2967
-57.5974
-54.9441
-52.3339
-50.2337
-48.1843
-46.2287
-43.9111
-42.5343
-42.4683
-46.3769
-38.5909
-36.1376
-33.9136
-32.2731
-31.0584
-30.3825
-30.2219
-30.9345
-32.2298
-34.7815
-25.0372
-23.6375
-22.6261
-22.161
-22.1375
-22.4363
-22.7541
-22.866
-22.7015
-23.2961
-16.9558
-16.482
-16.2558
-16.2045
-16.1383
-15.8958
-15.3687
-14.7524
-14.464
-15.1406
-11.3679
-11.1444
-10.9499
-10.6987
-10.3492
-9.96587
-9.67959
-9.63348
-9.85199
-10.3388
-7.55787
-7.37715
-7.21375
-7.06245
-6.94387
-6.88236
-6.87761
-6.88456
-6.87737
-6.89463
-5.52199
-5.43493
-5.35785
-5.28339
-5.20405
-5.11163
-5.00244
-4.87837
-4.76502
-4.685
-4.53747
-4.46984
-4.39432
-4.3103
-4.21831
-4.12058
-4.02048
-3.92043
-3.82324
-3.72769
-4.15649
-4.09559
-4.02678
-3.95085
-3.86842
-3.78008
-3.68636
-3.58773
-3.48504
-3.37908
-83.5272
-92.6404
-86.2974
-83.9233
-84.094
-83.6587
-82.5829
-81.6031
-80.7171
-79.7215
-77.129
-78.4218
-71.0348
-66.762
-66.1277
-65.5858
-64.2139
-62.7445
-61.3528
-59.7999
-64.5056
-60.8142
-51.3122
-47.0904
-46.7533
-46.7251
-45.6973
-44.1804
-42.5732
-40.8012
-48.0898
-43.5635
-34.2846
-30.2814
-30.4249
-31.1365
-30.7591
-29.5521
-28.0812
-26.5743
-33.0663
-29.3038
-22.0503
-18.5928
-18.7469
-19.851
-20.1567
-19.5556
-18.5928
-17.6793
-20.5806
-18.1839
-13.4595
-10.9583
-10.9381
-11.9147
-12.573
-12.5545
-12.1476
-11.7017
-11.5804
-10.6161
-8.33847
-6.98146
-6.88273
-7.43294
-7.94295
-8.10755
-7.99059
-7.77024
-6.54291
-6.4323
-5.80025
-5.355
-5.2941
-5.47169
-5.66376
-5.7438
-5.71026
-5.62009
-4.55619
-4.71338
-4.70609
-4.64883
-4.62415
-4.64018
-4.66457
-4.66828
-4.6434
-4.59681
-4.05129
-4.25582
-4.34652
-4.34856
-4.32533
-4.30755
-4.29494
-4.27764
-4.24914
-4.20826
1.23178
1.09132
0.769654
0.0304352
-1.45125
-3.93932
-8.0617
-16.5398
-29.6221
-56.9617
0.889338
0.740269
0.41553
-0.326832
-1.80898
-4.42441
-8.71803
-16.9751
-29.5989
-52.4026
0.52455
0.382662
0.0739602
-0.599347
-1.95487
-4.4609
-8.28917
-15.4384
-26.231
-43.8726
0.149885
0.02169
-0.257304
-0.842403
-1.92768
-4.10855
-7.2265
-12.6516
-21.2678
-34.5646
-0.217082
-0.331799
-0.577702
-1.06431
-1.87194
-3.52384
-5.97694
-9.81586
-16.1252
-25.4386
-0.554077
-0.664499
-0.878826
-1.25927
-1.84435
-2.99033
-4.80492
-7.36748
-11.1346
-16.3996
-0.830713
-0.976747
-1.13821
-1.46727
-1.87424
-2.7207
-3.81456
-5.18069
-6.92268
-9.37392
-1.07395
-1.26211
-1.38041
-1.67265
-1.93158
-2.43668
-2.90014
-3.5045
-4.31396
-5.48776
-1.31868
-1.45897
-1.54583
-1.72318
-1.84926
-2.09347
-2.35024
-2.7157
-3.25875
-3.9801
-1.47068
-1.53485
-1.5878
-1.68183
-1.78255
-1.95424
-2.19676
-2.51089
-2.94073
-3.52266
3.56474
3.49352
3.18939
2.46458
1.12446
-1.18082
-5.17114
-11.8663
-25.6036
-51.9875
3.29448
3.21723
2.91091
2.18865
0.87205
-1.37778
-5.31035
-11.577
-24.4053
-50.8685
3.03513
2.95098
2.64384
1.92261
0.619699
-1.58059
-5.53216
-11.5124
-23.4193
-49.9299
2.78641
2.69492
2.38798
1.66723
0.366938
-1.77651
-5.8037
-11.7004
-22.8901
-49.5715
2.54798
2.44913
2.14306
1.42381
0.113497
-1.9597
-6.06574
-12.0708
-22.5342
-49.4657
2.31942
2.21368
1.9087
1.19335
-0.140328
-2.14244
-6.27902
-12.5994
-22.4355
-49.4534
2.10033
1.98853
1.6845
0.975181
-0.390627
-2.34787
-6.4068
-13.2089
-22.4253
-48.9224
1.89038
1.77362
1.47032
0.7678
-0.629691
-2.60277
-6.48775
-13.8659
-23.1582
-48.3115
1.68926
1.569
1.2652
0.56413
-0.85547
-2.92184
-6.61972
-14.4433
-24.4513
-48.1299
1.49594
1.37308
1.07078
0.361234
-1.08198
-3.31912
-7.06743
-15.2868
-27.0753
-51.4149
6.74861
6.6905
6.46171
5.66408
4.05357
1.01296
-5.3043
-17.4059
-36.4886
-60.0676
6.4113
6.33731
6.07153
5.16469
3.33982
0.135337
-6.00196
-17.8103
-37.6488
-61.7613
6.07319
5.99693
5.72258
4.83835
3.10538
0.269287
-4.87079
-14.9471
-32.7444
-56.4561
5.73625
5.66458
5.39613
4.58936
3.04948
0.606717
-3.75942
-12.5578
-29.1865
-54.3464
5.40252
5.33622
5.07331
4.33005
2.9188
0.630527
-3.52778
-11.9925
-28.5851
-54.5764
5.07421
5.01168
4.74682
4.02967
2.64978
0.311922
-3.98359
-12.4954
-28.9586
-54.622
4.75316
4.69237
4.41899
3.70133
2.30425
-0.132665
-4.56715
-12.9649
-28.8742
-54.0845
4.4408
4.37983
4.09573
3.37017
1.96035
-0.515998
-4.9338
-12.987
-28.3239
-53.5723
4.13817
4.07528
3.78185
3.05235
1.654
-0.788315
-5.06927
-12.6879
-27.5816
-53.1998
3.84601
3.77965
3.4796
2.75143
1.38108
-0.992401
-5.11017
-12.2745
-26.7206
-52.8125
12.5188
12.5753
12.677
12.8027
12.9231
13.0181
13.0778
13.1169
13.1492
13.1561
12.2858
12.3558
12.4794
12.626
12.7574
12.8707
12.9834
13.0801
13.1451
13.1946
11.8787
11.9745
12.1469
12.3654
12.5759
12.7116
12.7269
12.6301
12.498
12.4264
11.3262
11.4413
11.6387
11.8558
12.0093
12.0177
11.7824
11.2015
10.4225
9.94181
10.6622
10.7767
10.9658
11.1683
11.2908
11.0837
10.1729
8.49048
6.50047
5.36882
9.93908
10.044
10.2138
10.3849
10.41
9.81589
7.9117
4.67071
1.02041
-0.923686
9.20314
9.28431
9.39269
9.45016
9.2906
8.28465
5.37656
0.404472
-5.44246
-9.26869
8.48888
8.5393
8.56349
8.45468
8.06289
6.66642
2.77755
-4.14686
-12.8926
-20.0056
7.82087
7.83286
7.76201
7.44184
6.73568
4.92792
0.164048
-8.84394
-20.8084
-31.7306
7.21305
7.18842
7.02777
6.46423
5.32932
2.94832
-2.67604
-13.6603
-29.203
-46.0885
13.1409
13.1337
13.1249
13.1138
13.1004
13.0846
13.0662
13.0453
13.0216
12.9949
13.2438
13.2335
13.2174
13.1984
13.1765
13.152
13.1252
13.0963
13.0651
13.0312
12.6005
12.6256
12.6313
12.6221
12.6049
12.5811
12.5499
12.5105
12.4608
12.3974
10.3836
10.4934
10.524
10.5283
10.5144
10.4712
10.3944
10.289
10.1574
9.99249
6.18786
6.56233
6.70318
6.72366
6.63109
6.47258
6.27893
6.07626
5.84638
5.55716
0.683111
1.39968
1.4591
1.30628
1.06444
0.869884
0.675949
0.438881
0.0536174
-0.507481
-7.44458
-6.52093
-6.50506
-6.52385
-6.61105
-6.70106
-6.97467
-7.48971
-8.37854
-9.55472
-18.5094
-16.7527
-16.3333
-16.2388
-16.6007
-17.1194
-17.9289
-19.0302
-20.5895
-22.4119
-30.3479
-28.0052
-28.2496
-28.9198
-30.1279
-31.148
-32.3496
-33.7198
-35.5313
-37.5253
-46.0639
-44.134
-44.9491
-45.7196
-46.7162
-47.4232
-48.3374
-49.4272
-50.9016
-52.5204
12.9651
12.9318
12.8947
12.8533
12.8074
12.7572
12.7033
12.6464
12.5859
12.5061
12.9941
12.9528
12.9071
12.8571
12.8036
12.7466
12.6839
12.6081
12.4992
12.3359
12.3157
12.2158
12.1109
12.0275
11.9811
11.9336
11.7799
11.4172
10.9034
10.6124
9.78047
9.52309
9.26973
9.12652
9.16512
9.24364
8.93378
7.80877
6.113
5.44247
5.17234
4.68409
4.15795
3.79655
3.82051
4.08041
3.7316
1.69447
-1.83155
-3.42053
-1.23389
-2.09794
-3.05789
-3.8905
-4.21838
-4.01621
-4.39924
-7.27822
-12.8468
-15.6065
-10.8479
-12.1561
-13.5362
-14.8968
-15.8301
-16.0265
-16.5884
-20.1703
-27.5166
-30.9183
-24.1783
-25.7548
-27.3387
-29.0435
-30.5955
-31.4366
-32.3041
-36.1288
-43.954
-46.8123
-39.3725
-40.9311
-42.4679
-44.1959
-46.06
-47.445
-48.4725
-51.7968
-58.5536
-59.2764
-54.0612
-55.4051
-56.754
-58.2377
-59.9517
-61.5048
-62.4534
-64.2967
-69.2915
-67.5402
12.1804
11.4969
11.0849
10.347
9.01933
7.32812
5.56743
3.94456
2.59063
1.56273
0.847322
0.378216
0.0849712
-0.0907867
-0.181568
-0.213336
-0.203261
-0.163481
-0.105805
-0.0338151
11.8226
11.1293
10.9476
10.0635
8.36353
6.67115
5.00892
3.4891
2.23612
1.302
0.662682
0.24949
-0.00458522
-0.152565
-0.223043
-0.242609
-0.222834
-0.177934
-0.117404
-0.0404253
10.4973
10.1146
10.0034
9.15527
7.24105
5.70173
4.223
2.88109
1.78833
0.987808
0.448728
0.106558
-0.0997341
-0.213902
-0.262125
-0.26813
-0.237931
-0.189725
-0.124366
-0.0414673
6.74384
7.44728
7.86472
7.63398
5.94411
4.66123
3.43732
2.31094
1.38943
0.719294
0.273079
-0.0058035
-0.171318
-0.257236
-0.289478
-0.284327
-0.247205
-0.197499
-0.126643
-0.0411766
-0.147894
2.82297
4.53774
5.42058
4.51232
3.63873
2.71639
1.80899
1.04966
0.496998
0.131959
-0.0937422
-0.225541
-0.289325
-0.309906
-0.295328
-0.254167
-0.20263
-0.126883
-0.0410691
-9.84673
-3.42732
0.217636
2.6702
2.95385
2.65819
2.07368
1.38262
0.770539
0.319024
0.0213147
-0.161672
-0.266671
-0.313705
-0.325251
-0.303194
-0.259417
-0.205582
-0.126236
-0.0409119
-20.9397
-10.5386
-4.5478
-0.28409
1.37898
1.76506
1.52719
1.0343
0.548695
0.180579
-0.0633858
-0.213074
-0.297465
-0.331964
-0.336497
-0.30874
-0.262981
-0.206917
-0.125125
-0.0406221
-32.6373
-17.8264
-8.95895
-2.89613
-0.000569635
1.01114
1.07641
0.751679
0.371423
0.0717811
-0.128915
-0.252323
-0.320727
-0.345669
-0.344706
-0.312587
-0.26522
-0.207204
-0.12384
-0.0403309
-42.4036
-23.3013
-11.8017
-4.45886
-0.912121
0.473054
0.739685
0.531472
0.23117
-0.0143354
-0.180458
-0.282907
-0.338663
-0.35611
-0.350732
-0.31522
-0.266511
-0.206857
-0.122591
-0.0401288
-46.2436
-24.2225
-12.3291
-4.51942
-1.17657
0.18895
0.533681
0.375891
0.1274
-0.0789827
-0.219336
-0.305852
-0.351915
-0.363584
-0.35473
-0.316643
-0.266892
-0.205986
-0.121376
-0.039991
-42.0029
-21.2859
-11.5681
-3.785
-0.953329
0.0943345
0.457271
0.305035
0.0792028
-0.108174
-0.236747
-0.315947
-0.357524
-0.366467
-0.355876
-0.316576
-0.26637
-0.204821
-0.120372
-0.0399016
-40.0376
-18.2705
-11.1084
-3.68857
-0.801888
-0.0622947
0.326726
0.20668
0.0132156
-0.146523
-0.258329
-0.32779
-0.363689
-0.369345
-0.356736
-0.316198
-0.265556
-0.203563
-0.119393
-0.039771
-41.9976
-16.8185
-10.8023
-4.19503
-0.745029
-0.180027
0.200535
0.122653
-0.0464506
-0.183243
-0.279867
-0.33993
-0.370057
-0.372262
-0.357454
-0.315604
-0.264506
-0.202098
-0.118333
-0.0396203
-44.7251
-16.5069
-10.2476
-4.85196
-0.867753
-0.264869
0.0684524
0.0426861
-0.0992806
-0.21504
-0.298369
-0.35037
-0.375539
-0.37475
-0.35799
-0.314993
-0.263474
-0.200693
-0.117387
-0.0395088
-47.2783
-17.2601
-9.64935
-5.35345
-1.14984
-0.322549
-0.0475511
-0.0309155
-0.146391
-0.243329
-0.314699
-0.359527
-0.380307
-0.376869
-0.358355
-0.314362
-0.262459
-0.199352
-0.116554
-0.0394358
-49.3916
-18.4405
-9.18475
-5.59854
-1.52926
-0.395399
-0.148066
-0.0991536
-0.188509
-0.268695
-0.329354
-0.367733
-0.384547
-0.378704
-0.358577
-0.313701
-0.261446
-0.198058
-0.115818
-0.0393941
-51.5225
-20.0687
-9.03933
-5.6463
-1.9149
-0.496049
-0.233339
-0.161581
-0.226199
-0.29138
-0.342473
-0.375075
-0.388316
-0.38029
-0.358678
-0.313023
-0.260445
-0.196819
-0.11518
-0.0393814
-53.9839
-22.1086
-9.29299
-5.6113
-2.25098
-0.62587
-0.308671
-0.218219
-0.259996
-0.311643
-0.354178
-0.381611
-0.391646
-0.381649
-0.358679
-0.312346
-0.259475
-0.19565
-0.114641
-0.0393967
-56.9546
-24.7538
-10.0426
-5.63297
-2.52886
-0.775934
-0.378635
-0.269355
-0.290371
-0.329749
-0.364608
-0.387413
-0.394576
-0.382807
-0.3586
-0.311684
-0.258552
-0.194563
-0.114204
-0.0394385
-60.086
-27.682
-11.2155
-5.80692
-2.7781
-0.941525
-0.447624
-0.315684
-0.317753
-0.345951
-0.373898
-0.392555
-0.397148
-0.383791
-0.358463
-0.311054
-0.257688
-0.193568
-0.113866
-0.0395046
)
;

boundaryField
{
    inlet
    {
        type            freestreamPressure;
        freestreamValue uniform 0;
        supersonic      false;
        value           nonuniform List<scalar> 
40
(
1.23178
0.889338
0.52455
0.149885
-0.217082
-0.554077
-0.830713
-1.07395
-1.31868
-1.47068
3.56474
3.29448
3.03513
2.78641
2.54798
2.31942
2.10033
1.89038
1.68926
1.49594
6.74861
6.4113
6.07319
5.73625
5.40252
5.07421
4.75316
4.4408
4.13817
3.84601
12.5188
12.2858
11.8787
11.3262
10.6622
9.93908
9.20314
8.48888
7.82087
7.21305
)
;
    }
    outlet
    {
        type            freestreamPressure;
        freestreamValue uniform 0;
        supersonic      false;
        value           nonuniform List<scalar> 
40
(
-0.00117372
-0.00158058
-0.0021346
-0.00279701
-0.00338686
-0.00359374
-0.003177
-0.00219342
-0.00100508
-0.000130662
-0.000223263
-0.000255349
-0.000294717
-0.000342968
-0.000401931
-0.00047365
-0.00056033
-0.000664173
-0.000786935
-0.000929573
-9.2478e-05
-9.8757e-05
-0.000105439
-0.000112989
-0.000121672
-0.000131809
-0.000143829
-0.000158267
-0.000175768
-0.000197114
-2.87597e-07
-4.02244e-06
-9.37557e-06
-1.56639e-05
-2.46244e-05
-3.61933e-05
-4.88784e-05
-6.13331e-05
-7.29555e-05
-8.38087e-05
)
;
    }
    top
    {
        type            symmetryPlane;
    }
    bottom
    {
        type            symmetryPlane;
    }
    cylinder
    {
        type            zeroGradient;
    }
    frontandback
    {
        type            empty;
    }
}


// ************************************************************************* //
