/*--------------------------------*- C++ -*----------------------------------*\
  =========                 |
  \\      /  F ield         | OpenFOAM: The Open Source CFD Toolbox
   \\    /   O peration     | Website:  https://openfoam.org
    \\  /    A nd           | Version:  6.0
     \\/     M anipulation  |
\*---------------------------------------------------------------------------*/
FoamFile
{
    version     2.0;
    format      ascii;
    class       surfaceScalarField;
    location    "17";
    object      phi;
}
// * * * * * * * * * * * * * * * * * * * * * * * * * * * * * * * * * * * * * //

dimensions      [0 3 -1 0 0 0 0];

internalField   nonuniform List<scalar> 
4670
(
0.00914272
-0.802679
0.793536
0.0243553
-0.820398
0.805186
0.0395458
-0.826251
0.811061
0.0532864
-0.809007
0.795267
0.0658682
-0.785364
0.772782
0.0778913
-0.761724
0.749701
0.0898235
-0.74073
0.728797
0.101913
-0.723114
0.711024
0.114388
-0.708941
0.696466
-0.698613
0.685364
0.127637
0.00924701
-0.811926
0.0238772
-0.835029
0.0381777
-0.840552
0.0509623
-0.821792
0.0626261
-0.797028
0.0738022
-0.7729
0.0849333
-0.751861
0.0962165
-0.734397
0.107844
-0.720568
-0.710913
0.120145
0.00906086
-0.820987
0.022874
-0.848842
0.0360952
-0.853773
0.0477074
-0.833404
0.0582154
-0.807536
0.0682862
-0.78297
0.0783268
-0.761901
0.0884476
-0.744518
0.0987401
-0.730861
-0.721548
0.109375
0.00859855
-0.829586
0.0213962
-0.861639
0.033384
-0.865761
0.0436849
-0.843705
0.0528751
-0.816726
0.0616528
-0.791748
0.0704536
-0.770702
0.0794346
-0.753499
0.0887357
-0.740162
-0.731304
0.0984918
0.00787185
-0.837457
0.0194505
-0.873218
0.0300869
-0.876397
0.0389978
-0.852616
0.0467731
-0.824501
0.0540507
-0.799026
0.0612318
-0.777883
0.0685963
-0.760864
0.0765585
-0.748124
-0.740264
0.0855185
0.0069217
-0.844379
0.0171002
-0.883396
0.0262267
-0.885524
0.033649
-0.860038
0.0400008
-0.830853
0.0458218
-0.804847
0.0513253
-0.783387
0.0567619
-0.7663
0.0629448
-0.754307
-0.748458
0.0711383
0.00584661
-0.850226
0.014508
-0.892058
0.0219358
-0.892952
0.027601
-0.865704
0.0322939
-0.835546
0.0366677
-0.809221
0.0408347
-0.787554
0.0446265
-0.770092
0.0483563
-0.758037
-0.752691
0.0525891
0.00482786
-0.855054
0.0120476
-0.899278
0.0177171
-0.898621
0.0213201
-0.869307
0.0237279
-0.837954
0.0259158
-0.811408
0.0285423
-0.79018
0.03147
-0.77302
0.0330351
-0.759602
-0.747486
0.0278305
0.00404971
-0.859103
0.0101052
-0.905333
0.0142824
-0.902798
0.0159854
-0.87101
0.0157797
-0.837748
0.0143194
-0.809948
0.0125326
-0.788393
0.0119004
-0.772388
0.0128045
-0.760506
-0.743437
0.00875586
0.0036698
-0.862773
0.0088767
-0.91054
0.0120643
-0.905986
0.0126699
-0.871615
0.0109249
-0.836003
0.0064945
-0.805518
-0.00152587
-0.780373
-0.0127732
-0.76114
-0.019528
-0.753751
-0.775165
0.0121997
0.901838
0.00619778
-0.908036
0.895769
0.00606903
0.889953
0.00581582
0.884543
0.00540982
0.879641
0.00490269
0.875327
0.00431405
0.871581
0.00374581
0.868343
0.00323776
0.86546
0.00288307
0.00268701
0.95551
0.0104638
-0.959776
0.950614
0.0109653
0.945351
0.011079
0.939939
0.0108211
0.934559
0.010283
0.92936
0.00951292
0.92442
0.00868622
0.919741
0.00791639
0.915195
0.00742948
0.00734176
0.930895
0.0119082
-0.932339
0.928741
0.0131193
0.926069
0.0137513
0.9231
0.0137898
0.920021
0.013362
0.916982
0.0125524
0.914107
0.0115603
0.911404
0.0106197
0.908795
0.0100388
0.0101508
0.882836
0.0125635
-0.883491
0.881606
0.0143489
0.879925
0.0154324
0.878095
0.01562
0.876253
0.0152036
0.874631
0.014175
0.873329
0.0128618
0.872448
0.0115011
0.872001
0.0104856
0.0105365
0.842836
0.0137508
-0.844024
0.841234
0.0159511
0.839195
0.0174721
0.837273
0.0175419
0.835414
0.0170618
0.834141
0.0154484
0.83334
0.0136632
0.833385
0.0114558
0.834397
0.00947331
0.00893068
0.81249
0.0158613
-0.8146
0.810154
0.0182868
0.807205
0.0204208
0.804747
0.0199998
0.802126
0.0196827
0.800734
0.0168408
0.799701
0.0146961
0.800311
0.010846
0.802007
0.00777691
0.00542012
0.78839
0.0189134
-0.791443
0.785413
0.0212646
0.78142
0.0244134
0.778522
0.0228975
0.77461
0.0235953
0.773029
0.0184216
0.770952
0.0167731
0.772917
0.00888068
0.774387
0.00630704
-0.000565727
0.767741
0.0228761
-0.771704
0.764351
0.0246544
0.759355
0.02941
0.756444
0.0258079
0.750853
0.0291872
0.749198
0.0200757
0.74439
0.0215811
0.749303
0.00396805
0.750486
0.00512405
-0.01122
0.748999
0.027864
-0.753987
0.745361
0.0282928
0.739499
0.0352716
0.737053
0.0282538
0.729968
0.0362728
0.728384
0.0216594
0.719106
0.0308593
0.725561
-0.00248753
0.729474
0.0012115
-0.0354974
0.731907
-0.738302
0.0342587
0.727936
0.0322643
0.721427
0.0417798
0.719578
0.030103
0.711853
0.0439978
0.710234
0.0232789
0.697051
0.044042
0.697158
-0.00259468
0.700619
-0.00224884
-0.110044
0.930169
-0.00229588
-0.927873
0.931763
-0.00159424
0.93236
-0.000597301
0.931809
0.000550944
0.930057
0.00175181
0.927198
0.00285921
0.923359
0.00383953
0.918746
0.00461278
0.913547
0.00519849
0.00551151
0.944258
-0.010757
-0.935797
0.951591
-0.00892632
0.957621
-0.00662728
0.962169
-0.00399718
0.965159
-0.00123903
0.966645
0.00137418
0.966718
0.00376644
0.965509
0.00582118
0.963143
0.00756435
0.00887866
0.89286
-0.0216621
-0.881955
0.902749
-0.0188151
0.91132
-0.0151986
0.918393
-0.0110698
0.923969
-0.00681495
0.928136
-0.00279303
0.930975
0.000927486
0.932556
0.00424038
0.932973
0.00714762
0.00951203
0.840333
-0.0330164
-0.828978
0.850674
-0.0291565
0.859548
-0.0240731
0.866818
-0.0183391
0.872617
-0.0126147
0.877115
-0.00729037
0.88035
-0.00230739
0.882424
0.00216637
0.883407
0.00616395
0.00942822
0.806106
-0.0445684
-0.794554
0.81634
-0.03939
0.824671
-0.0324038
0.831225
-0.0248937
0.836338
-0.0177271
0.840169
-0.0111218
0.842692
-0.00483063
0.844105
0.000753085
0.844452
0.00581755
0.00985629
0.783108
-0.0569464
-0.77073
0.793334
-0.0496157
0.800883
-0.0399527
0.806644
-0.0306544
0.811078
-0.0221617
0.81414
-0.0141837
0.815768
-0.00645838
0.816333
0.000187823
0.815801
0.00634969
0.011057
0.76552
-0.0708943
-0.751572
0.775808
-0.0599033
0.782394
-0.0465394
0.787563
-0.0358231
0.791541
-0.02614
0.793909
-0.0165512
0.794742
-0.00729126
0.794609
0.000321026
0.793305
0.00765316
0.0129197
0.750779
-0.085677
-0.735997
0.760865
-0.0699886
0.766595
-0.05227
0.771395
-0.0406226
0.774833
-0.0295779
0.776444
-0.0181624
0.776631
-0.00747862
0.776011
0.000940759
0.77408
0.00958411
0.0152963
0.738302
-0.0952243
-0.728755
0.74691
-0.0785962
0.753763
-0.0591229
0.75811
-0.0449697
0.760133
-0.0316009
0.760737
-0.0187662
0.760384
-0.00712572
0.75941
0.00191476
0.756876
0.0121176
0.0181853
0.728192
-0.742363
-0.0810535
0.726994
-0.0773981
0.745268
-0.0773963
0.748942
-0.0486443
0.747519
-0.0301776
0.746882
-0.018129
0.746307
-0.00655129
0.745098
0.00312409
0.741992
0.0152238
0.0218752
0.0700189
0.635707
-0.634487
-0.0712395
0.0664738
0.647368
-0.643823
0.0612424
0.657851
-0.652619
0.0546519
0.668956
-0.662366
0.0468517
0.682098
-0.674298
0.0377844
0.699425
-0.690358
0.0272715
0.726532
-0.716019
0.0154788
0.775127
-0.763335
0.00451473
0.842966
-0.832002
0.889325
-0.88481
0.0737862
0.64003
-0.0781093
0.0684317
0.652722
0.0620743
0.664208
0.054846
0.676184
0.0467008
0.690243
0.0374606
0.708665
0.0268887
0.737104
0.0151697
0.786846
0.00444945
0.853687
0.893774
0.0711988
0.642546
-0.0737146
0.0671619
0.656759
0.0616649
0.669705
0.0548145
0.683035
0.0467251
0.698332
0.0373938
0.717997
0.0267241
0.747773
0.0150002
0.79857
0.00439916
0.864288
0.898173
0.0795167
0.649913
-0.0868831
0.0721596
0.664116
0.0644715
0.677393
0.0563128
0.691193
0.0474542
0.707191
0.0376701
0.727781
0.0267506
0.758693
0.0149491
0.810372
0.0044026
0.874834
0.902576
0.0760787
0.652492
-0.0786586
0.0714088
0.668786
0.0650957
0.683706
0.0572476
0.699042
0.0481798
0.716259
0.0380577
0.737903
0.0268633
0.769887
0.0149354
0.822299
0.00441428
0.885355
0.90699
0.0864223
0.661158
-0.0950882
0.0775977
0.677611
0.0684819
0.692822
0.0590148
0.708509
0.0490709
0.726203
0.038455
0.748519
0.0269726
0.78137
0.014936
0.834336
0.0044416
0.89585
0.911432
0.0825134
0.661367
-0.0827221
0.0772947
0.682829
0.069413
0.700704
0.0599777
0.717944
0.0497033
0.736477
0.0387118
0.75951
0.0269502
0.793131
0.0148133
0.846473
0.00439134
0.906272
0.915823
0.0974055
0.672789
-0.108828
0.0841
0.696135
0.0717989
0.713005
0.0607795
0.728963
0.0499342
0.747323
0.0385971
0.770848
0.0266463
0.805082
0.014544
0.858575
0.0042857
0.91653
0.920109
0.0977585
0.683584
-0.108553
0.0833071
0.710586
0.0719523
0.72436
0.0611494
0.739766
0.0497685
0.758703
0.037956
0.78266
0.0258829
0.817155
0.0139532
0.870505
0.00403463
0.926449
0.924144
0.101884
-0.160663
0.0837153
0.0720783
0.0602721
0.0482452
0.0363512
0.0245281
0.0130781
0.00372929
0.131969
0.569742
-0.586592
-0.115119
0.115402
0.577924
-0.561358
0.0957297
0.578046
-0.558374
0.0783413
0.580561
-0.563173
0.0634106
0.585961
-0.571031
0.0499082
0.594385
-0.580883
0.0368448
0.610273
-0.597209
0.0233356
0.646578
-0.633069
0.00939334
0.715647
-0.701704
0.820024
-0.810631
0.11372
0.583249
-0.127227
0.102717
0.588927
0.0905978
0.590165
0.0775466
0.593612
0.0642809
0.599227
0.051039
0.607627
0.0376491
0.623663
0.0236608
0.660566
0.00941038
0.729897
0.829434
0.104129
0.600272
-0.121151
0.0938827
0.599173
0.0839768
0.600071
0.0734857
0.604103
0.062196
0.610517
0.0501042
0.619719
0.0371834
0.636584
0.0232634
0.674486
0.00904799
0.744113
0.838482
0.0984904
0.608923
-0.107141
0.0895647
0.608099
0.0799523
0.609684
0.0699797
0.614076
0.0595179
0.620979
0.0482582
0.630979
0.0359289
0.648913
0.0223389
0.688076
0.00844738
0.758004
0.84693
0.0931384
0.613644
-0.0978595
0.0856022
0.615635
0.0767351
0.618551
0.0672091
0.623602
0.0571596
0.631028
0.0463492
0.641789
0.0344321
0.66083
0.021182
0.701327
0.00774439
0.771442
0.854674
0.0881094
0.618278
-0.0927431
0.0814119
0.622332
0.0734763
0.626486
0.0646699
0.632408
0.0551066
0.640591
0.0446475
0.652248
0.0330151
0.672462
0.0200462
0.714295
0.0070683
0.78442
0.861743
0.0827485
0.622954
-0.0874247
0.0768514
0.628229
0.0698093
0.633528
0.0618225
0.640395
0.0529149
0.649499
0.0429386
0.662225
0.0316484
0.683753
0.0189688
0.726975
0.00644783
0.796941
0.86819
0.0799925
0.627813
-0.084852
0.0741449
0.634077
0.067307
0.640366
0.059617
0.648085
0.0510442
0.658072
0.0413981
0.671871
0.030402
0.694749
0.0180158
0.739361
0.00592567
0.809031
0.874116
0.0752108
0.631133
-0.078531
0.0704785
0.638809
0.0644561
0.646389
0.0573629
0.655178
0.0492482
0.666187
0.0399651
0.681154
0.0292617
0.705452
0.0171574
0.751466
0.00548608
0.820702
0.879602
0.0746899
-0.0780432
0.0696767
0.0634462
0.0562589
0.0481479
0.0389437
0.0283768
0.0165079
0.00520786
-0.516409
0.135843
-0.206026
-0.506186
0.089425
-0.0996485
-0.500406
0.0832077
-0.0889873
-0.503991
0.0405029
-0.0369178
-0.503441
0.0337689
-0.0343188
-0.506987
0.00737811
-0.0038326
-0.509644
-0.00216928
0.00482619
-0.51567
-0.0211187
0.0271451
-0.52238
-0.0313186
0.0380282
-0.0435552
-0.531125
0.0523006
-0.531863
0.106348
-0.521012
0.0785741
-0.509163
0.0713589
-0.51062
0.0419601
-0.509053
0.0322021
-0.512468
0.0107931
-0.515115
0.000477084
-0.5209
-0.0153333
-0.527237
-0.0249814
-0.0355985
-0.535194
-0.539009
0.0869834
-0.530881
0.0704463
-0.519787
0.0602644
-0.518881
0.041055
-0.516897
0.0302177
-0.519698
0.0135941
-0.522416
0.00319546
-0.527926
-0.00982365
-0.534102
-0.0188055
-0.0279918
-0.541709
-0.548127
0.0719378
-0.539503
0.0618223
-0.530779
0.0515398
-0.528102
0.0383788
-0.525969
0.0280845
-0.527819
0.0154443
-0.53044
0.00581576
-0.535545
-0.00471805
-0.541556
-0.0127948
-0.0206075
-0.54894
-0.558144
0.0590508
-0.548627
0.0523052
-0.541063
0.0439766
-0.537256
0.0345716
-0.534994
0.025822
-0.535881
0.0163322
-0.538202
0.00813589
-0.542765
-0.000154371
-0.548517
-0.00704271
-0.0134756
-0.555649
-0.568957
0.0471252
-0.559111
0.0424584
-0.551626
0.0364919
-0.546922
0.0298679
-0.54426
0.0231597
-0.544188
0.0162601
-0.545923
0.00987144
-0.54973
0.00365253
-0.554968
-0.00180524
-0.00681705
-0.561626
-0.585459
0.0353745
-0.575346
0.0323459
-0.567347
0.0284926
-0.561637
0.0241578
-0.558072
0.019595
-0.556769
0.0149568
-0.557403
0.0105051
-0.559979
0.00622871
-0.564128
0.00234438
-0.00120465
-0.569741
-0.620718
0.0230235
-0.609747
0.0213744
-0.600549
0.0192946
-0.593288
0.0168967
-0.588022
0.0143295
-0.584764
0.0116988
-0.583385
0.00912584
-0.583811
0.00665472
-0.585828
0.00436135
0.00225935
-0.589292
-0.688495
0.00981447
-0.676383
0.00926223
-0.665658
0.00856954
-0.656515
0.00775379
-0.649032
0.00684605
-0.643231
0.00589822
-0.639057
0.00495159
-0.63644
0.00403814
-0.63525
0.00317103
0.00233142
-0.635322
-0.800816
-0.791554
-0.782984
-0.775231
-0.768385
-0.762486
-0.757535
-0.753497
-0.750326
-0.747994
-0.539759
-0.0504323
0.0590665
-0.548618
-0.0572833
0.0661422
-0.557453
-0.0619214
0.0707563
-0.566377
-0.0654923
0.0744165
-0.575588
-0.0672789
0.0764896
-0.585682
-0.066728
0.0768221
-0.594336
-0.064801
0.073455
-0.594245
-0.0619948
0.0619037
-0.599325
-0.0555247
0.0606044
-0.0457178
-0.618893
0.0652859
-0.543306
-0.0423202
-0.55182
-0.0487691
-0.56042
-0.0533218
-0.569157
-0.0567558
-0.577929
-0.0585064
-0.586226
-0.0584314
-0.593362
-0.0576647
-0.599044
-0.0563125
-0.603608
-0.0509613
-0.0439985
-0.605327
-0.549705
-0.0343235
-0.558221
-0.0402531
-0.566962
-0.0445817
-0.57587
-0.0478472
-0.584674
-0.0497025
-0.592775
-0.0503298
-0.600166
-0.050274
-0.607304
-0.0491743
-0.612186
-0.0460794
-0.0439821
-0.612203
-0.556923
-0.0263408
-0.565538
-0.0316379
-0.574486
-0.035634
-0.583634
-0.0386997
-0.592662
-0.0406744
-0.601203
-0.0417887
-0.609335
-0.0421419
-0.616983
-0.0415264
-0.622605
-0.0404578
-0.0411771
-0.625409
-0.563591
-0.0183992
-0.572282
-0.0229462
-0.581417
-0.0264998
-0.590817
-0.029299
-0.600203
-0.0312891
-0.609371
-0.03262
-0.618253
-0.0332602
-0.626469
-0.0333108
-0.633324
-0.0336021
-0.0354024
-0.639099
-0.569304
-0.0107221
-0.577862
-0.0143877
-0.587008
-0.0173539
-0.596553
-0.0197541
-0.606267
-0.0215752
-0.615995
-0.0228913
-0.625544
-0.0237112
-0.634563
-0.0242922
-0.642886
-0.0252787
-0.0272826
-0.651006
-0.576553
-0.00391027
-0.584374
-0.00656676
-0.592955
-0.00877234
-0.602122
-0.0105878
-0.611685
-0.012012
-0.621489
-0.0130874
-0.63132
-0.01388
-0.640968
-0.0146445
-0.65047
-0.0157766
-0.0175502
-0.660202
-0.594053
0.000851331
-0.599887
-0.000732766
-0.606624
-0.00203532
-0.614117
-0.0030952
-0.622213
-0.00391568
-0.630769
-0.0045311
-0.639629
-0.00502014
-0.648706
-0.00556758
-0.658086
-0.00639661
-0.00763667
-0.668
-0.636493
0.0020225
-0.63865
0.00142441
-0.641656
0.000969837
-0.6454
0.000649116
-0.649752
0.000436232
-0.654605
0.000322394
-0.659883
0.000257812
-0.665607
0.000156589
-0.671905
-9.90514e-05
-0.000625237
-0.678916
-0.745972
-0.744547
-0.743578
-0.742928
-0.742492
-0.74217
-0.741912
-0.741755
-0.741854
-0.74248
0.000618063
-0.743098
0.00851102
-0.686809
0.0192994
-0.678788
0.0297349
-0.670638
0.0384987
-0.65977
0.0451272
-0.645728
0.0495072
-0.62979
0.0514576
-0.614153
0.0472905
-0.60116
-0.587411
0.0158081
0.00147874
-0.744576
0.0104861
-0.695817
0.02219
-0.690492
0.0334575
-0.681905
0.0431567
-0.669469
0.0512657
-0.653837
0.0583734
-0.636897
0.0647924
-0.620572
0.0688703
-0.605238
-0.589975
0.0714344
0.00246228
-0.747039
0.0126981
-0.706053
0.0254331
-0.703227
0.0376805
-0.694152
0.0485256
-0.680314
0.0579619
-0.663273
0.0660001
-0.644935
0.0721692
-0.626741
0.0765352
-0.609604
-0.594742
0.0813024
0.00352346
-0.750562
0.0150339
-0.717563
0.0287859
-0.716979
0.0419719
-0.707339
0.0538546
-0.692197
0.0645931
-0.674011
0.0747136
-0.655056
0.0851106
-0.637138
0.0969336
-0.621427
-0.608793
0.110985
0.0046525
-0.755215
0.0173652
-0.730276
0.0320386
-0.731652
0.0460239
-0.721324
0.0587089
-0.704882
0.0702712
-0.685574
0.0811045
-0.665889
0.0915585
-0.647592
0.101776
-0.631644
-0.618417
0.1114
0.00577914
-0.760994
0.0195636
-0.74406
0.0349801
-0.747069
0.049579
-0.735923
0.0629279
-0.718231
0.0753613
-0.698007
0.0874485
-0.677976
0.0997312
-0.659875
0.112511
-0.644424
-0.63175
0.125844
0.00685125
-0.767845
0.0215021
-0.758711
0.0374313
-0.762998
0.0523994
-0.750891
0.0661216
-0.731953
0.0789561
-0.710842
0.0913364
-0.690357
0.103482
-0.67202
0.115322
-0.656264
-0.64297
0.126542
0.00780855
-0.775654
0.0230819
-0.773984
0.0392574
-0.779174
0.0543358
-0.765969
0.0682172
-0.745835
0.0813756
-0.724
0.0943375
-0.703319
0.107456
-0.685139
0.12092
-0.669728
-0.657034
0.134984
0.00861708
-0.784271
0.0242239
-0.789591
0.0403448
-0.795295
0.0552268
-0.780851
0.0689193
-0.759527
0.0819396
-0.73702
0.0947815
-0.71616
0.107723
-0.698081
0.120881
-0.682885
-0.670534
0.134381
0.00926568
0.0248604
0.0406265
0.055042
0.0682972
0.0809775
0.0936145
0.106558
0.120138
0.134968
0.0621146
-3.35607
3.42159
0.0425032
-2.92858
2.94819
0.0408307
-2.42071
2.42238
0.0299715
-2.07932
2.09018
0.0276492
-1.72857
1.73089
0.0304033
-1.31193
1.30918
0.0276879
-0.936204
0.93892
0.0253945
-0.638367
0.64066
0.0238929
-0.431597
0.433099
0.0234335
-0.296216
0.296676
0.0237911
-0.206368
0.20601
0.0244273
-0.141148
0.140512
0.0248249
-0.0868616
0.086464
0.0246504
-0.0430443
0.0432188
0.0240871
-0.00485597
0.00541934
0.0236883
0.0282421
-0.0278433
0.0234271
0.0424243
-0.0421631
0.0245248
0.066325
-0.0674228
0.0261439
0.0566247
-0.0582437
0.0595653
-0.0597568
0.0511737
-3.2871
0.0195918
-2.897
0.0159313
-2.41705
0.0107785
-2.07417
0.0120579
-1.72985
0.0187292
-1.3186
0.0197482
-0.937223
0.0197059
-0.638324
0.0196943
-0.431586
0.0201123
-0.296634
0.020977
-0.207232
0.0219283
-0.1421
0.0225282
-0.0874616
0.0224753
-0.0429915
0.0220385
-0.00441915
0.0217715
0.0285092
0.0216673
0.0425285
0.0229171
0.0650753
0.0244315
0.0551102
0.0595288
0.0351339
-3.21286
-0.00301015
-2.85885
-0.00830205
-2.41176
-0.00823908
-2.07423
-0.00277508
-1.73531
0.00740418
-1.32878
0.0119673
-0.941786
0.0141348
-0.640492
0.015577
-0.433028
0.0168513
-0.297909
0.0182057
-0.208587
0.0194684
-0.143363
0.0202812
-0.0882743
0.020371
-0.0430814
0.0200816
-0.00412973
0.0199548
0.0286361
0.0200106
0.0424727
0.0213875
0.0636984
0.022787
0.0537108
0.0596234
0.0218378
-3.1362
-0.0183549
-2.81866
-0.0258568
-2.40426
-0.0241134
-2.07597
-0.0162081
-1.74322
-0.0035036
-1.34149
0.00429076
-0.949581
0.00866093
-0.644862
0.0115435
-0.43591
0.0136644
-0.30003
0.0154963
-0.210419
0.0170674
-0.144934
0.0181023
-0.0893092
0.0183529
-0.043332
0.0182266
-0.00400345
0.0182434
0.0286193
0.0184558
0.0422603
0.0199333
0.0622209
0.0212117
0.0524324
0.0598258
0.0105953
-3.06128
-0.0246745
-2.78339
-0.0372852
-2.39165
-0.0383167
-2.07494
-0.0298658
-1.75167
-0.0148157
-1.35654
-0.00353086
-0.960866
0.00323228
-0.651625
0.00758937
-0.440267
0.0105618
-0.303002
0.0128649
-0.212722
0.0147422
-0.146811
0.0160068
-0.0905739
0.0164333
-0.0437585
0.0164808
-0.00405093
0.0166401
0.0284599
0.0170006
0.0418998
0.018552
0.0606695
0.0197078
0.0512766
0.060113
0.00575536
-2.9959
-0.0334594
-2.74417
-0.0557231
-2.36938
-0.0596917
-2.07097
-0.0487796
-1.76258
-0.0284852
-1.37683
-0.0119721
-0.977379
-0.00223817
-0.661359
0.00369995
-0.446205
0.00754764
-0.30685
0.0103238
-0.215498
0.0125064
-0.148994
0.0140071
-0.0920746
0.014621
-0.0443723
0.0148481
-0.00427804
0.0151453
0.0281627
0.0156418
0.0414034
0.0172417
0.0590695
0.0182777
0.0502406
0.0604627
-0.0290749
-2.91423
-0.0867276
-2.68652
-0.104942
-2.35117
-0.0990571
-2.07686
-0.0767838
-1.78485
-0.0455776
-1.40804
-0.0212774
-1.00168
-0.00781248
-0.674824
-0.000149234
-0.453869
0.00461685
-0.311616
0.00787883
-0.21876
0.0103689
-0.151484
0.0121111
-0.0938167
0.0129211
-0.0451823
0.0133297
-0.00468665
0.0137574
0.027735
0.0143754
0.0407854
0.0160008
0.0574442
0.0169236
0.0493178
0.0608534
-0.120335
-2.76607
-0.173368
-2.63349
-0.167992
-2.35655
-0.143681
-2.10117
-0.105366
-1.82317
-0.0623322
-1.45107
-0.0304985
-1.03351
-0.0133303
-0.691992
-0.00394074
-0.463258
0.00176834
-0.317325
0.00553275
-0.222524
0.00833448
-0.154285
0.0103226
-0.0958048
0.0113348
-0.0461945
0.0119237
-0.00527549
0.012473
0.0271857
0.0131971
0.0400612
0.0148281
0.0558133
0.0156476
0.0484983
0.0612648
-0.134646
-2.62266
-0.168426
-2.59971
-0.168677
-2.35629
-0.148373
-2.12147
-0.111494
-1.86005
-0.0699014
-1.49266
-0.0372558
-1.06616
-0.0182081
-0.71104
-0.00749374
-0.473973
-0.000937859
-0.323881
0.00331277
-0.226775
0.00641943
-0.157392
0.00865141
-0.0980368
0.0098666
-0.0474097
0.0106298
-0.00603866
0.0112895
0.0265259
0.0121035
0.0392472
0.013723
0.0541938
0.0144516
0.0477697
0.0616778
0.305215
-2.91568
0.14572
-2.44021
0.0250512
-2.23563
-0.0313366
-2.06508
-0.0598088
-1.83157
-0.0590919
-1.49338
-0.039472
-1.08578
-0.0217434
-0.728769
-0.010507
-0.485209
-0.00337101
-0.331017
0.0012909
-0.231437
0.00467153
-0.160773
0.00712917
-0.100494
0.00853821
-0.0488188
0.00945689
-0.00695734
0.0102121
0.0257707
0.0110954
0.0383639
0.0126858
0.0526034
0.0133389
0.0471165
0.0620762
0.77573
-2.29288
-1.39852
0.601613
-2.2661
0.676544
-2.31056
0.531543
-1.92008
0.342748
-1.64278
0.198029
-1.34866
0.118978
-1.00673
0.073569
-0.68336
0.0461357
-0.457776
0.0320263
-0.316907
0.0247216
-0.224132
0.020654
-0.156705
0.0181721
-0.0980125
0.0163275
-0.0469742
0.0154638
-0.00609365
0.0159541
0.0252804
0.0174097
0.0369083
0.0202951
0.049718
0.0213687
0.0460429
0.06275
1.16741
-1.90905
-1.55124
0.927522
-2.02621
0.627775
-2.01081
0.4734
-1.76571
0.332406
-1.50179
0.215196
-1.23145
0.132249
-0.92378
0.0832177
-0.634328
0.0534017
-0.42796
0.0364112
-0.299917
0.0269847
-0.214706
0.0214012
-0.151122
0.0179375
-0.0945488
0.0155949
-0.0446316
0.0146009
-0.00509967
0.0153197
0.0245617
0.0171241
0.0351039
0.0202652
0.0465769
0.0213173
0.0449908
0.0633786
1.38644
-1.49635
-1.79914
1.01557
-1.65535
0.743628
-1.73886
0.592658
-1.61474
0.437232
-1.34636
0.279799
-1.07402
0.1626
-0.806581
0.0981188
-0.569847
0.062471
-0.392312
0.0413243
-0.27877
0.0290979
-0.202479
0.0216389
-0.143663
0.0169956
-0.0899055
0.0141087
-0.0417447
0.0130304
-0.0040214
0.0140343
0.0235578
0.0162222
0.032916
0.0195861
0.043213
0.0207313
0.0438456
0.0636969
1.4791
-1.09057
-1.88489
1.16805
-1.34429
0.869102
-1.43991
0.61737
-1.363
0.448047
-1.17704
0.2971
-0.923069
0.177095
-0.686577
0.108938
-0.50169
0.0718757
-0.355249
0.0471033
-0.253998
0.0312639
-0.18664
0.0213555
-0.133754
0.0152505
-0.0838005
0.0117693
-0.0382635
0.0106574
-0.00290949
0.0120249
0.0221902
0.0146203
0.0303206
0.0182013
0.039632
0.0197077
0.0423392
0.0632716
1.59634
-0.829246
-1.85766
1.2631
-1.01106
0.92472
-1.10153
0.716317
-1.1546
0.551893
-1.01261
0.363885
-0.735062
0.211515
-0.534206
0.1274
-0.417576
0.084135
-0.311984
0.0543252
-0.224188
0.0337167
-0.166031
0.0205931
-0.120631
0.0126714
-0.0758787
0.00852438
-0.0341165
0.00744707
-0.00183218
0.00927011
0.0203672
0.0123116
0.0272791
0.0161853
0.0357583
0.0184935
0.040031
0.0614652
1.63447
-0.602213
-1.86151
1.30406
-0.680644
1.04743
-0.844898
0.784031
-0.891206
0.492005
-0.720588
0.296942
-0.539999
0.199616
-0.43688
0.142563
-0.360523
0.0985092
-0.26793
0.0627092
-0.188388
0.0364875
-0.13981
0.0194395
-0.103583
0.00931916
-0.0657583
0.00440457
-0.0292019
0.00344748
-0.000875091
0.0058369
0.0179778
0.00941276
0.0237032
0.0137922
0.0313789
0.0174841
0.036339
0.0574416
1.55125
-0.383135
-1.77033
1.31629
-0.445688
1.03727
-0.56588
0.706832
-0.560765
0.476815
-0.490571
0.372714
-0.435897
0.287268
-0.351435
0.193081
-0.266336
0.118962
-0.19381
0.0709548
-0.140381
0.0391
-0.107955
0.0180025
-0.0824852
0.00538043
-0.0531362
-0.000431641
-0.0233899
-0.00117403
-0.000132697
0.00191123
0.0148925
0.00619132
0.0194232
0.0114561
0.0261141
0.0171229
0.0306723
0.0502119
1.37659
-0.218276
-1.54145
1.18841
-0.25751
0.924526
-0.301993
0.688126
-0.324365
0.535257
-0.337702
0.398316
-0.298957
0.273967
-0.227085
0.176342
-0.168711
0.112778
-0.130246
0.0719857
-0.0995891
0.0406467
-0.0766157
0.0165115
-0.05835
0.00119035
-0.0378151
-0.00567027
-0.0165292
-0.00611695
0.000313986
-0.00219543
0.010971
0.00304143
0.0141863
0.00969177
0.0194638
0.0177332
0.0226309
0.0387412
1.19062
-0.100088
-1.30881
1.04235
-0.109241
0.875881
-0.135525
0.717504
-0.165987
0.554529
-0.174727
0.401659
-0.146087
0.285233
-0.110659
0.200079
-0.0835571
0.134581
-0.0647479
0.0841815
-0.0491894
0.0449432
-0.0373774
0.0155388
-0.0289456
-0.00291023
-0.019366
-0.0108926
-0.00854688
-0.0109709
0.000392343
-0.00607539
0.00607544
0.000401793
0.00770911
0.00890321
0.0109623
0.0194052
0.0121289
0.0221908
1.11833
-1.21841
1.00909
0.873561
0.707573
0.532846
0.38676
0.2761
0.192543
0.127795
0.0786058
0.0412284
0.0122828
-0.00708317
-0.0156301
-0.0152377
-0.00916227
-0.00145317
0.00950917
0.021638
1.65317
0.00294977
-1.62186
1.67789
0.0075378
1.69052
0.0291501
1.69864
0.0219871
1.69262
0.0500153
1.6798
0.0360979
1.64379
0.0800548
1.592
0.0491911
1.49882
0.0909386
-0.00975216
1.76154
-0.0203411
-1.73825
1.77523
-0.0061528
1.78497
0.0194066
1.78006
0.0269026
1.77058
0.059492
1.73867
0.0680108
1.70798
0.110739
1.65667
0.100506
1.62907
0.118541
0.0680708
1.82096
-0.0260124
-1.81529
1.82305
-0.0082418
1.82414
0.0183098
1.81762
0.0334274
1.81369
0.0634212
1.80808
0.0736198
1.8178
0.10102
1.8252
0.0931061
1.83812
0.105625
0.107045
1.76127
-0.0249233
-1.76236
1.7625
-0.0094708
1.77118
0.0096273
1.783
0.0216033
1.80708
0.0393406
1.83391
0.0467906
1.86718
0.0677545
1.88145
0.0788319
1.88326
0.103822
0.105414
1.74349
-0.0281748
-1.74023
1.75126
-0.0172498
1.7663
-0.00540419
1.78255
0.00535273
1.80086
0.021028
1.81064
0.0370102
1.81886
0.0595293
1.82354
0.0741605
1.84036
0.0869998
0.0881145
1.74543
-0.0294244
-1.74418
1.74782
-0.0196383
1.7508
-0.00838317
1.75215
0.0039982
1.75512
0.0180607
1.76181
0.0303184
1.77982
0.0415198
1.80587
0.0481133
1.83679
0.0560763
0.0633959
1.63501
-0.0229203
-1.64151
1.63082
-0.0154494
1.63035
-0.00791381
1.63523
-0.000884021
1.64764
0.00565158
1.66679
0.0111713
1.69113
0.0171749
1.71623
0.0230184
1.74174
0.0305638
0.0348078
1.4577
-0.0156737
-1.46495
1.45425
-0.0119905
1.45473
-0.00839942
1.45876
-0.00491338
1.4658
-0.00139129
1.47485
0.00212709
1.48627
0.00575245
1.50042
0.00887294
1.51909
0.0118877
0.0124493
1.28165
-0.00783914
-1.28948
1.27595
-0.00629543
1.27232
-0.0047708
1.27073
-0.00331577
1.27131
-0.00197678
1.27424
-0.000806399
1.27982
0.000179908
1.28774
0.000947235
1.298
0.00163029
0.00164345
1.23118
-1.23902
1.22488
1.22011
1.2168
1.21482
1.21401
1.21419
1.21514
1.21677
1.27052
0.403736
-1.75531
1.34558
-0.152459
1.4252
-0.157013
1.44488
-0.0683223
1.46097
-0.0462657
1.48801
-0.0451752
1.51907
-0.0376055
1.55167
-0.0294833
1.58539
-0.0184873
-0.0145968
1.49791
0.265544
-1.35972
1.53758
-0.192124
1.56763
-0.187068
1.59789
-0.0985853
1.61146
-0.0598359
1.63084
-0.064552
1.65736
-0.0641273
1.68521
-0.057329
1.71331
-0.0465913
-0.0395317
1.67035
0.248054
-1.65286
1.7236
-0.245377
1.73761
-0.201078
1.74686
-0.107831
1.75666
-0.0696368
1.76643
-0.0743235
1.78002
-0.0777141
1.79485
-0.0721635
1.80758
-0.0593212
-0.0472351
1.77084
0.218785
-1.74157
1.76886
-0.243398
1.7656
-0.197821
1.76486
-0.107091
1.76577
-0.0705376
1.76558
-0.0741422
1.76644
-0.078573
1.767
-0.0727241
1.76616
-0.0584778
-0.0434324
1.83266
0.191097
-1.80497
1.79507
-0.205814
1.7712
-0.173946
1.76861
-0.104502
1.76695
-0.0688757
1.76027
-0.0674689
1.75277
-0.07107
1.74644
-0.0663956
1.74241
-0.0544468
-0.0412543
1.88499
0.156929
-1.85082
1.83401
-0.15484
1.79673
-0.136658
1.78505
-0.0928248
1.7815
-0.0653303
1.77303
-0.0589919
1.76144
-0.0594821
1.75166
-0.056618
1.74611
-0.0488982
-0.0393206
1.83625
0.105814
-1.78514
1.77952
-0.0981062
1.73439
-0.0915267
1.71275
-0.0711845
1.70262
-0.0552
1.69147
-0.0478475
1.67705
-0.0450559
1.66249
-0.0420595
1.65054
-0.0369505
-0.0302904
1.67112
0.0447821
-1.61008
1.6235
-0.0504907
1.58208
-0.0501057
1.55512
-0.0442255
1.53745
-0.0375278
1.52204
-0.0324349
1.50592
-0.0289445
1.4899
-0.026031
1.47585
-0.0229015
-0.0193943
1.46102
0.00738531
-1.42362
1.43069
-0.0201629
1.40144
-0.0208483
1.37706
-0.0198529
1.35735
-0.0178197
1.34056
-0.0156449
1.3254
-0.0137835
1.31161
-0.0122345
1.29952
-0.0108094
-0.00936008
1.37953
-1.37215
1.35937
1.33852
1.31867
1.30085
1.28521
1.27142
1.25919
1.24838
0.135289
0.0936164
-0.0996578
0.161328
0.282729
-0.308768
0.215739
0.532159
-0.58657
0.27774
0.827063
-0.889065
0.340431
1.08214
-1.14483
0.4183
1.31826
-1.39613
0.556571
1.58971
-1.72798
0.729987
1.96137
-2.13478
1.01382
2.10885
-2.39267
2.03943
-2.78092
0.158735
0.0860381
0.185534
0.25593
0.248426
0.469267
0.326926
0.748563
0.411656
0.997406
0.502454
1.22746
0.6645
1.42767
0.867862
1.75801
1.12913
1.84757
1.80884
0.18613
0.0755543
0.213785
0.228275
0.284549
0.398502
0.38332
0.649792
0.496008
0.884719
0.615234
1.10823
0.808337
1.23456
1.03505
1.5313
1.22422
1.6584
1.3802
0.217036
0.0620842
0.247447
0.197865
0.318912
0.327037
0.433381
0.535324
0.594913
0.723187
0.726548
0.976597
0.917766
1.04334
1.2499
1.19916
1.39304
1.51526
1.03167
0.252602
0.0458766
0.285006
0.16546
0.359539
0.252504
0.466211
0.428652
0.648426
0.540972
0.88392
0.741102
0.970039
0.957225
1.37065
0.798548
1.72583
1.16009
0.952528
0.294042
0.0296312
0.332867
0.126635
0.389207
0.196164
0.523933
0.293926
0.602174
0.462731
0.933034
0.410242
1.0717
0.818559
1.34735
0.522904
1.76004
0.747395
0.861745
0.341588
0.0260793
0.389875
0.0783478
0.406268
0.179771
0.553426
0.146769
0.614449
0.401708
0.839893
0.184798
1.15692
0.501534
1.30035
0.379475
1.58522
0.46252
0.661829
0.403977
0.0288824
0.446476
0.0358486
0.492762
0.133484
0.58398
0.0555503
0.757829
0.22786
0.820146
0.122481
1.07737
0.244312
1.20018
0.256669
1.40473
0.257968
0.456472
0.472221
0.0165465
0.495588
0.0124813
0.573659
0.055413
0.601124
0.0280855
0.743214
0.0857698
0.784412
0.0812832
0.932027
0.0966968
1.06996
0.118734
1.22888
0.0990479
0.261729
0.532908
0.545389
0.600802
0.628888
0.714657
0.795941
0.892637
1.01137
1.11042
0.075327
0.115042
-0.120003
0.0881752
0.370028
-0.382876
0.100148
0.649986
-0.661958
0.105958
0.88606
-0.89187
0.111243
1.08607
-1.09135
0.120486
1.34713
-1.35637
0.126289
1.68949
-1.69529
0.131829
2.03015
-2.03569
0.128634
2.47594
-2.47275
3.04626
-2.98887
0.0747567
0.110646
0.0866816
0.358103
0.0981914
0.638476
0.103059
0.881192
0.106248
1.08288
0.113495
1.33989
0.116106
1.68688
0.117827
2.02843
0.121707
2.47206
3.08986
0.074193
0.106875
0.0850144
0.347281
0.095832
0.627658
0.0996558
0.877369
0.100436
1.0821