/*--------------------------------*- C++ -*----------------------------------*\
  =========                 |
  \\      /  F ield         | OpenFOAM: The Open Source CFD Toolbox
   \\    /   O peration     | Website:  https://openfoam.org
    \\  /    A nd           | Version:  6.0
     \\/     M anipulation  |
\*---------------------------------------------------------------------------*/
FoamFile
{
    version     2.0;
    format      ascii;
    class       volVectorField;
    location    "18.76";
    object      U;
}
// * * * * * * * * * * * * * * * * * * * * * * * * * * * * * * * * * * * * * //

dimensions      [0 1 -1 0 0 0 0];

internalField   nonuniform List<vector> 
2400
(
(0.0179345 -0.434697 -1.20787e-20)
(0.00562697 -0.338603 5.39853e-21)
(-0.00378493 -0.26641 -5.99774e-21)
(-0.0107481 -0.21241 -3.89802e-21)
(-0.0152606 -0.171923 -6.80586e-21)
(-0.0174247 -0.141296 9.39482e-21)
(-0.0176817 -0.117771 3.8315e-21)
(-0.0165406 -0.0993096 3.6092e-21)
(-0.0144843 -0.0844195 -8.39852e-21)
(-0.0124908 -0.0720513 -6.45786e-22)
(0.0515891 -0.428353 1.34787e-20)
(0.0321403 -0.330995 -1.37485e-21)
(0.0185434 -0.259676 2.82978e-21)
(0.00955379 -0.207603 3.67476e-20)
(0.00459045 -0.16942 -2.80114e-20)
(0.00311218 -0.141033 -1.47235e-21)
(0.00434246 -0.119409 -3.30998e-22)
(0.00753232 -0.102314 -3.75865e-21)
(0.0120403 -0.0881089 -6.65312e-21)
(0.0165691 -0.0756978 -2.63999e-21)
(0.084484 -0.419814 2.49344e-20)
(0.0581686 -0.322562 2.54124e-20)
(0.0413141 -0.253149 -7.33869e-20)
(0.0315299 -0.203771 2.43105e-20)
(0.0274856 -0.168459 4.04632e-20)
(0.0281218 -0.142738 -2.33696e-20)
(0.0322853 -0.123333 -2.02118e-20)
(0.0389713 -0.107823 1.90631e-20)
(0.0473807 -0.094385 -4.35121e-20)
(0.0557943 -0.0818667 4.62984e-20)
(0.116599 -0.409319 -8.72318e-20)
(0.0840099 -0.313777 4.35952e-20)
(0.0650688 -0.247352 -4.31983e-20)
(0.0558987 -0.201386 2.21742e-20)
(0.0542549 -0.169426 -2.57873e-20)
(0.058485 -0.14671 4.14401e-20)
(0.0670249 -0.129788 2.25025e-20)
(0.0786084 -0.116067 -6.81859e-20)
(0.0922898 -0.10349 -6.69145e-20)
(0.105824 -0.0908198 7.87196e-20)
(0.147959 -0.397098 3.55653e-21)
(0.110118 -0.30502 -1.69875e-20)
(0.0905813 -0.242634 -7.63031e-21)
(0.0836551 -0.200671 -9.47161e-21)
(0.0860268 -0.172373 -6.41306e-20)
(0.0953837 -0.152829 1.05067e-20)
(0.109726 -0.138521 -7.05721e-21)
(0.127534 -0.12673 7.46169e-20)
(0.147743 -0.115115 -5.26782e-20)
(0.167484 -0.102316 -3.84216e-20)
(0.178665 -0.383372 8.45496e-20)
(0.137109 -0.296577 -8.6297e-21)
(0.118843 -0.23916 1.31988e-19)
(0.11604 -0.201569 -1.70172e-20)
(0.124186 -0.17697 8.2972e-20)
(0.140251 -0.160483 -9.48909e-21)
(0.161781 -0.148669 -7.60027e-22)
(0.187018 -0.138784 6.10095e-20)
(0.214838 -0.1282 -3.41885e-20)
(0.241684 -0.1154 6.61319e-20)
(0.208897 -0.368344 -3.20408e-20)
(0.165756 -0.288617 1.13895e-20)
(0.151017 -0.236892 -3.3856e-20)
(0.154466 -0.203745 -4.26298e-20)
(0.170279 -0.182525 -4.56201e-21)
(0.194661 -0.168578 1.40957e-19)
(0.224686 -0.158745 -5.07773e-20)
(0.258378 -0.150446 2.52941e-20)
(0.294656 -0.140853 -8.77115e-20)
(0.32929 -0.128306 -5.60109e-20)
(0.23892 -0.352183 1.54506e-19)
(0.196941 -0.28117 -1.7578e-20)
(0.188355 -0.235585 -1.84259e-19)
(0.200383 -0.206613 1.0415e-20)
(0.225829 -0.188043 4.5165e-20)
(0.260103 -0.175631 -6.7547e-20)
(0.299775 -0.166708 -9.13887e-20)
(0.342654 -0.159134 1.39376e-19)
(0.387888 -0.150121 -1.18209e-20)
(0.430825 -0.138058 -1.29494e-19)
(0.26908 -0.335002 -1.29854e-19)
(0.231599 -0.274091 7.67506e-20)
(0.232065 -0.234781 1.21841e-19)
(0.255104 -0.209395 3.33257e-20)
(0.292142 -0.192381 -1.30701e-19)
(0.337763 -0.17999 8.7031e-20)
(0.387957 -0.170122 5.43702e-20)
(0.440199 -0.161233 1.15307e-19)
(0.494016 -0.15087 -7.05223e-20)
(0.545229 -0.138406 -1.04191e-19)
(0.299767 -0.316781 4.42761e-20)
(0.270582 -0.266984 -1.82407e-20)
(0.283121 -0.233808 -6.04264e-22)
(0.319593 -0.21126 3.796e-20)
(0.370177 -0.194639 3.24551e-20)
(0.428752 -0.180665 -2.29113e-20)
(0.490801 -0.167579 -4.63729e-20)
(0.553266 -0.154079 7.43766e-20)
(0.615249 -0.13822 -6.3198e-20)
(0.673476 -0.122286 5.83674e-20)
(0.617476 -0.00933662 3.94477e-21)
(0.591039 -0.0552408 1.13911e-20)
(0.561483 -0.0973133 -3.80864e-20)
(0.529757 -0.135513 3.34438e-20)
(0.496693 -0.169947 1.25832e-20)
(0.463012 -0.200855 1.56085e-19)
(0.429284 -0.228585 -5.97066e-20)
(0.395925 -0.253555 -7.99755e-20)
(0.363204 -0.276243 8.29197e-20)
(0.331232 -0.297168 -1.43618e-19)
(0.832794 0.0173549 1.39896e-20)
(0.780105 -0.0411803 -4.50609e-21)
(0.721804 -0.0922655 -3.77903e-20)
(0.660053 -0.135553 1.00163e-19)
(0.596901 -0.171111 -3.34399e-20)
(0.534209 -0.199392 2.51783e-19)
(0.473559 -0.221185 -1.55273e-19)
(0.416187 -0.237548 2.21368e-19)
(0.362968 -0.249744 -1.50594e-19)
(0.314395 -0.25914 -7.68408e-20)
(1.01834 0.0667943 -2.77881e-20)
(0.95496 -0.000906521 4.0783e-21)
(0.882666 -0.0602872 -1.20604e-19)
(0.804127 -0.110418 9.27725e-20)
(0.722084 -0.150911 -9.38057e-20)
(0.639202 -0.181927 -1.75563e-19)
(0.557908 -0.204155 -5.68829e-20)
(0.48026 -0.21877 -4.85541e-20)
(0.407867 -0.227353 1.53755e-19)
(0.34189 -0.231757 7.93385e-20)
(1.16829 0.116738 1.26923e-20)
(1.10423 0.0439603 -2.22123e-20)
(1.0281 -0.0211742 -3.00804e-20)
(0.942521 -0.077174 -1.17957e-19)
(0.850443 -0.123078 6.87775e-20)
(0.754938 -0.158528 1.98853e-19)
(0.659009 -0.183811 8.56159e-20)
(0.565379 -0.199886 1.65827e-20)
(0.476359 -0.208352 4.5326e-20)
(0.393852 -0.211361 -1.43553e-21)
(1.28285 0.159293 -1.49653e-20)
(1.22434 0.0851216 -5.87971e-20)
(1.15131 0.0171351 7.88852e-21)
(1.06593 -0.0427676 1.02126e-19)
(0.970914 -0.0931065 1.04914e-19)
(0.86935 -0.132947 -6.9157e-20)
(0.764468 -0.162024 -1.28706e-19)
(0.659389 -0.180866 -6.20795e-20)
(0.556908 -0.190881 7.27557e-20)
(0.459536 -0.194443 9.92551e-20)
(1.3656 0.19262 3.13206e-21)
(1.31611 0.119916 4.99815e-20)
(1.25058 0.051657 -1.17043e-19)
(1.1705 -0.0100484 1.46561e-19)
(1.07804 -0.0633378 8.64273e-20)
(0.975948 -0.106751 1.56805e-19)
(0.867317 -0.139413 -3.3525e-20)
(0.75532 -0.161276 -8.92318e-20)
(0.642855 -0.173385 2.11315e-19)
(0.532597 -0.178331 -1.71639e-19)
(1.42164 0.216668 7.69101e-21)
(1.38253 0.147377 -6.00541e-20)
(1.32684 0.080837 -3.73714e-20)
(1.2553 0.019179 -7.9802e-20)
(1.16936 -0.0355224 -1.12706e-20)
(1.07115 -0.0813885 -1.17328e-19)
(0.963346 -0.116939 -7.25904e-20)
(0.848824 -0.141428 -1.50223e-20)
(0.730067 -0.155328 -1.31099e-19)
(0.608953 -0.161475 1.86164e-19)
(1.45628 0.232421 -6.80054e-21)
(1.42749 0.167633 5.022e-20)
(1.38243 0.104138 -2.23519e-20)
(1.32112 0.0439322 4.99489e-20)
(1.24425 -0.0108657 1.22536e-19)
(1.15324 -0.0580984 1.99425e-19)
(1.05016 -0.0957181 -5.73005e-20)
(0.937345 -0.122122 -1.9635e-19)
(0.816355 -0.136797 5.33972e-20)
(0.686612 -0.142586 -3.06149e-19)
(1.47428 0.241489 9.90352e-21)
(1.45487 0.181521 -1.18113e-20)
(1.42014 0.121672 -1.21192e-19)
(1.36954 0.0636916 3.70196e-20)
(1.30306 0.00958385 -8.59169e-20)
(1.22144 -0.0383781 -3.56394e-20)
(1.1261 -0.0776666 -2.83964e-20)
(1.01892 -0.105636 8.16853e-20)
(0.900471 -0.119889 9.40568e-20)
(0.765785 -0.121478 5.74143e-20)
(1.47937 0.245461 -2.40343e-20)
(1.46796 0.190432 4.30947e-20)
(1.44262 0.134503 2.0123e-20)
(1.40237 0.0790842 6.13212e-20)
(1.34663 0.0259202 -7.04498e-21)
(1.27551 -0.0228001 -4.69497e-21)
(1.18994 -0.0643007 -1.5894e-19)
(1.09167 -0.0950418 2.0284e-19)
(0.981429 -0.110215 -1.25555e-19)
(0.848539 -0.105106 2.62485e-20)
(0.537586 0.499557 -5.47203e-20)
(0.57742 0.460167 6.33327e-20)
(0.610909 0.415337 1.14139e-21)
(0.637382 0.36603 -1.58155e-19)
(0.656333 0.313332 1.17741e-19)
(0.667529 0.258435 -8.85251e-20)
(0.671015 0.202558 -2.16148e-20)
(0.667107 0.146878 -2.06419e-20)
(0.656376 0.0924607 3.42074e-20)
(0.639597 0.040189 2.37679e-21)
(0.752194 0.673734 8.04782e-20)
(0.81253 0.631391 2.15587e-20)
(0.863501 0.578925 -1.1239e-19)
(0.903563 0.517881 -1.38357e-19)
(0.931468 0.450056 1.0967e-19)
(0.946399 0.377474 -9.86795e-20)
(0.948035 0.302296 1.17928e-19)
(0.936568 0.226713 -3.09253e-20)
(0.912711 0.152826 -1.03681e-19)
(0.87765 0.0825152 -7.79672e-21)
(0.886086 0.754086 -6.08519e-21)
(0.958292 0.717759 2.12259e-21)
(1.02107 0.6691 7.47481e-20)
(1.07233 0.609587 7.58206e-20)
(1.11025 0.541009 1.74541e-19)
(1.13347 0.465457 6.27948e-20)
(1.1411 0.385253 -4.23239e-20)
(1.13284 0.302858 -9.34951e-20)
(1.10896 0.220761 7.58865e-20)
(1.07035 0.141351 5.22852e-21)
(0.967631 0.773767 2.11282e-20)
(1.04568 0.745747 -5.05096e-20)
(1.11553 0.704897 -2.51333e-20)
(1.1748 0.65238 -1.43583e-19)
(1.22137 0.589677 -8.81151e-20)
(1.25348 0.518597 1.69518e-19)
(1.26979 0.441237 1.15671e-19)
(1.26943 0.35991 -9.74333e-20)
(1.25211 0.277074 4.53317e-21)
(1.21812 0.195216 -4.35745e-21)
(1.0158 0.757397 -5.65116e-20)
(1.09557 0.73714 9.70741e-20)
(1.16875 0.704608 -2.53487e-20)
(1.23286 0.660583 7.76687e-20)
(1.28569 0.606157 -5.42283e-20)
(1.32532 0.542759 -1.0212e-19)
(1.35012 0.472114 5.44681e-20)
(1.35883 0.396201 -5.76415e-20)
(1.35065 0.317207 -5.76724e-20)
(1.32526 0.237452 2.53027e-20)
(1.04362 0.72187 -1.02403e-20)
(1.12256 0.707883 1.75793e-20)
(1.19637 0.682772 -1.67927e-20)
(1.26259 0.646896 -1.46659e-19)
(1.31909 0.600982 8.46804e-20)
(1.36402 0.546103 1.70255e-20)
(1.39569 0.483608 -9.36475e-20)
(1.41267 0.4151 -3.45978e-20)
(1.41378 0.342406 3.2478e-20)
(1.39823 0.267538 -9.21286e-21)
(1.05969 0.677883 -1.14799e-20)
(1.13664 0.668614 4.93259e-21)
(1.20936 0.649635 2.31523e-20)
(1.2755 0.62081 8.26831e-20)
(1.33332 0.582575 2.10313e-20)
(1.3812 0.53574 5.36344e-20)
(1.4176 0.481357 1.14345e-19)
(1.44106 0.420695 -4.89263e-20)
(1.45026 0.355229 4.59123e-20)
(1.44408 0.286618 -1.73038e-20)
(1.06953 0.631857 -1.26253e-20)
(1.14416 0.626382 1.83568e-20)
(1.21465 0.612408 1.76783e-20)
(1.27908 0.589325 -4.27588e-20)
(1.33627 0.557468 -2.81685e-20)
(1.38504 0.517533 -5.86287e-20)
(1.42406 0.470384 8.33372e-21)
(1.452 0.417045 -1.38573e-20)
(1.46751 0.358696 -9.7715e-20)
(1.46933 0.296665 1.37563e-20)
(1.07729 0.58813 -1.93365e-21)
(1.14893 0.586205 -1.19679e-20)
(1.21601 0.576239 -1.52836e-20)
(1.27734 0.557507 9.34765e-21)
(1.33245 0.530547 -3.90492e-21)
(1.38054 0.496098 5.19851e-20)
(1.42051 0.454926 2.35661e-20)
(1.45115 0.407881 3.80938e-20)
(1.47119 0.35591 4.68967e-20)
(1.47933 0.300061 -2.01956e-20)
(1.0891 0.548303 -1.014e-21)
(1.15584 0.547836 2.00968e-20)
(1.21745 0.540339 -5.78853e-20)
(1.27401 0.524676 -4.33532e-21)
(1.32561 0.501537 7.7242e-20)
(1.37158 0.471676 3.77216e-21)
(1.41094 0.435737 4.69518e-20)
(1.4426 0.39439 -1.04182e-19)
(1.46539 0.348359 -1.27732e-21)
(1.47809 0.298431 1.07154e-20)
(0.596847 0.192076 -8.29248e-21)
(0.556084 0.207558 2.92008e-21)
(0.509395 0.226051 9.65513e-22)
(0.456001 0.248707 -1.56208e-20)
(0.394978 0.277019 6.95915e-21)
(0.325819 0.312543 2.06214e-20)
(0.248949 0.356264 -1.92266e-20)
(0.166638 0.407231 -4.94931e-21)
(0.0870984 0.459987 -5.95203e-21)
(0.032336 0.500146 -2.18923e-20)
(0.619263 0.249744 -2.2825e-20)
(0.58039 0.270043 4.80658e-20)
(0.535628 0.293797 -4.42946e-20)
(0.484519 0.321895 -7.52437e-21)
(0.42619 0.355358 1.25282e-20)
(0.360119 0.394772 -1.47665e-20)
(0.286621 0.439367 -4.17654e-20)
(0.207603 0.485266 4.85083e-20)
(0.130353 0.52224 -7.40818e-23)
(0.0748447 0.528234 2.21605e-20)
(0.649163 0.304593 -7.61032e-20)
(0.612897 0.329475 8.10273e-20)
(0.570755 0.358257 2.82395e-20)
(0.52268 0.391506 1.54626e-21)
(0.467804 0.429765 1.81611e-20)
(0.405456 0.472658 7.15088e-21)
(0.335615 0.517688 -1.18992e-20)
(0.259425 0.558138 -2.63364e-20)
(0.182521 0.57926 -1.92895e-20)
(0.121483 0.551937 2.8454e-20)
(0.686177 0.355633 -6.30533e-20)
(0.653151 0.384753 5.92604e-20)
(0.614258 0.418199 4.75866e-20)
(0.569903 0.45614 -3.26088e-20)
(0.51916 0.498641 -1.20354e-19)
(0.461084 0.544389 3.8928e-20)
(0.395095 0.589225 -2.80224e-20)
(0.321201 0.623771 7.6723e-20)
(0.242733 0.629196 6.77764e-20)
(0.171663 0.570285 -5.99778e-20)
(0.729789 0.401976 -4.52836e-20)
(0.700517 0.434881 2.05638e-20)
(0.665414 0.472496 -5.71961e-20)
(0.625371 0.514506 4.49188e-20)
(0.579328 0.560503 -2.17001e-20)
(0.525941 0.608278 -1.82556e-20)
(0.463867 0.652116 -1.83229e-20)
(0.391646 0.680247 -3.16741e-21)
(0.309753 0.670357 -2.69604e-20)
(0.224573 0.582416 -1.61052e-20)
(0.779317 0.442861 1.13865e-19)
(0.754173 0.479007 2.31968e-20)
(0.723291 0.520165 -7.80614e-20)
(0.688034 0.565455 7.32043e-20)
(0.647112 0.614019 3.35574e-20)
(0.598664 0.662808 5.46605e-20)
(0.540396 0.7047 -3.23509e-21)
(0.469114 0.725873 3.37217e-20)
(0.382017 0.701283 8.26744e-21)
(0.27923 0.587631 3.28854e-20)
(0.833888 0.477697 -1.23793e-19)
(0.813091 0.516441 1.43438e-19)
(0.78674 0.560377 -6.95082e-20)
(0.75661 0.607995 -3.89862e-20)
(0.721065 0.658031 6.73164e-22)
(0.67761 0.706669 -5.34647e-20)
(0.622849 0.745558 3.6318e-20)
(0.55165 0.759239 4.16159e-20)
(0.457691 0.720805 5.68605e-21)
(0.334512 0.58542 -2.46899e-20)
(0.892376 0.506153 -8.96386e-21)
(0.875988 0.546683 -5.60625e-20)
(0.854367 0.592454 2.381e-20)
(0.82959 0.641289 -5.48027e-21)
(0.799512 0.691568 -1.89002e-20)
(0.760894 0.738779 9.91567e-21)
(0.709131 0.773555 -4.02679e-21)
(0.637046 0.779267 -7.35717e-21)
(0.534731 0.728096 4.21089e-21)
(0.389209 0.575488 -7.9645e-21)
(0.953373 0.528369 1.96515e-20)
(0.941321 0.569645 6.42032e-21)
(0.924636 0.61602 -4.07012e-20)
(0.905363 0.664743 3.19915e-20)
(0.88064 0.713891 -1.54641e-20)
(0.846459 0.758323 -2.14546e-21)
(0.796962 0.787875 -6.31261e-21)
(0.722916 0.78525 -2.01164e-21)
(0.610976 0.722706 -4.77814e-20)
(0.442089 0.557785 3.03201e-20)
(1.01353 0.542042 -2.71138e-20)
(1.00549 0.583222 1.97618e-20)
(0.994827 0.629532 -6.90128e-21)
(0.981673 0.677304 -2.79326e-21)
(0.962265 0.724221 -9.00639e-21)
(0.932021 0.764665 -4.53402e-21)
(0.883906 0.788014 6.40237e-21)
(0.80678 0.776865 3.46543e-20)
(0.68424 0.704553 4.64658e-20)
(0.491978 0.532474 7.21201e-21)
(0.769922 -0.318737 1.40433e-19)
(0.740743 -0.340068 -8.77782e-20)
(0.703648 -0.359466 3.33399e-20)
(0.658008 -0.371842 -7.60171e-20)
(0.599058 -0.372486 -4.98588e-20)
(0.520762 -0.353868 -7.72885e-20)
(0.415526 -0.305068 -9.39159e-20)
(0.273814 -0.211709 -4.30301e-20)
(0.084322 -0.0555611 -5.97089e-20)
(-0.167397 0.186194 2.96471e-20)
(0.727269 -0.285413 -8.40551e-20)
(0.696998 -0.305318 -6.97275e-20)
(0.658074 -0.323866 1.205e-19)
(0.610772 -0.336503 5.92752e-20)
(0.551345 -0.338406 8.81134e-20)
(0.474492 -0.322011 -1.48528e-19)
(0.373601 -0.276251 5.12237e-20)
(0.240547 -0.186261 1.0502e-19)
(0.0664006 -0.0326437 7.16037e-20)
(-0.158661 0.209778 -7.64573e-20)
(0.687312 -0.245823 3.95969e-20)
(0.655116 -0.263714 -1.60987e-20)
(0.614587 -0.280676 1.70706e-19)
(0.565738 -0.292591 -1.02975e-19)
(0.505546 -0.294685 -8.39169e-20)
(0.429565 -0.27957 4.84066e-20)
(0.332304 -0.236371 -7.09366e-22)
(0.207263 -0.150254 -2.10728e-19)
(0.0482356 -0.00150797 -8.5639e-21)
(-0.149373 0.236009 6.72431e-20)
(0.65236 -0.201886 2.61719e-19)
(0.617822 -0.216996 -1.22382e-19)
(0.575435 -0.231303 4.11613e-20)
(0.524873 -0.241235 -7.03315e-20)
(0.463624 -0.242251 1.83957e-19)
(0.388052 -0.227304 -9.7985e-21)
(0.29381 -0.185987 -3.47374e-20)
(0.176103 -0.104011 5.44046e-21)
(0.0316231 0.0377559 1.73863e-20)
(-0.138705 0.264889 -8.75488e-20)
(0.6232 -0.153513 -2.2615e-19)
(0.586298 -0.165277 -2.46615e-21)
(0.542008 -0.176152 9.19548e-20)
(0.48972 -0.183104 -4.47264e-21)
(0.427313 -0.181934 -1.05743e-20)
(0.35189 -0.166097 1.2106e-19)
(0.260211 -0.12594 -2.26373e-20)
(0.149167 -0.0482329 2.79279e-20)
(0.0183425 0.0846716 5.39259e-21)
(-0.125852 0.296198 1.16752e-19)
(0.600443 -0.101087 8.33415e-21)
(0.561423 -0.109038 -1.32547e-19)
(0.515421 -0.115878 1.19564e-19)
(0.461593 -0.11904 -1.05075e-20)
(0.39814 -0.114736 2.02603e-20)
(0.322823 -0.0970578 -1.02155e-19)
(0.233421 -0.0573678 -1.52854e-20)
(0.128407 0.0160223 -7.67356e-21)
(0.0100748 0.138403 -5.35003e-20)
(-0.110048 0.329512 -2.54063e-20)
(0.584614 -0.0453331 1.16497e-19)
(0.543912 -0.0490601 -1.11125e-19)
(0.496571 -0.0513703 -5.27871e-21)
(0.441575 -0.0500836 -1.31954e-19)
(0.37739 -0.0418549 7.2084e-20)
(0.302342 -0.0215199 -4.56468e-20)
(0.215108 0.0183166 3.83194e-20)
(0.115548 0.0873713 -7.35539e-20)
(0.00832221 0.197791 -6.89831e-20)
(-0.0906145 0.36423 -4.94459e-20)
(0.57612 0.0128733 7.29822e-20)
(0.534316 0.0137057 -7.41766e-20)
(0.486151 0.0163104 3.28965e-20)
(0.430513 0.0225571 2.31921e-20)
(0.366084 0.0353341 -4.28333e-20)
(0.291657 0.0589774 7.36529e-20)
(0.206643 0.0994543 4.48913e-20)
(0.112028 0.164149 -1.3648e-19)
(0.0143434 0.261397 2.29898e-20)
(-0.0669924 0.399589 5.95558e-20)
(0.575244 0.0725507 7.74594e-20)
(0.533024 0.0781794 -1.17528e-20)
(0.484652 0.0859707 -6.73605e-21)
(0.42902 0.0975375 -5.36887e-22)
(0.364978 0.115306 2.87746e-20)
(0.291674 0.142723 -8.50279e-20)
(0.209069 0.184183 7.01234e-20)
(0.118948 0.244456 5.45943e-21)
(0.029106 0.327555 -2.57425e-21)
(-0.0387755 0.434707 4.35488e-20)
(0.582143 0.132646 -2.24804e-20)
(0.540261 0.143197 -2.36273e-21)
(0.492369 0.156325 6.24867e-21)
(0.43747 0.173415 6.94552e-21)
(0.374546 0.196428 1.75076e-20)
(0.302979 0.227877 -1.26601e-20)
(0.22307 0.270485 -7.43089e-21)
(0.137042 0.326212 -1.15819e-20)
(0.0532601 0.394417 1.07161e-20)
(-0.00571183 0.468608 -7.83683e-21)
(0.829515 -0.352315 1.39207e-19)
(0.879222 -0.374544 -5.13463e-20)
(0.924876 -0.391378 1.34339e-20)
(0.96666 -0.400931 5.54628e-20)
(1.00469 -0.403379 2.86459e-20)
(1.03806 -0.39913 2.36964e-21)
(1.06543 -0.388391 3.42877e-21)
(1.08526 -0.371375 -1.91751e-21)
(1.09589 -0.348421 -1.04912e-21)
(1.0956 -0.32006 9.18169e-22)
(0.793173 -0.369733 6.42266e-20)
(0.844959 -0.391511 5.20263e-20)
(0.893465 -0.4068 4.84802e-20)
(0.937406 -0.414318 -1.42591e-20)
(0.976098 -0.414052 -1.26918e-20)
(1.00854 -0.40635 -1.07853e-20)
(1.03336 -0.391562 2.20276e-21)
(1.04901 -0.370158 1.21434e-21)
(1.05388 -0.342805 1.60733e-21)
(1.04643 -0.310419 -1.84547e-21)
(0.754513 -0.38667 -1.88925e-19)
(0.806266 -0.406026 1.9018e-20)
(0.855226 -0.418119 -9.18798e-20)
(0.899149 -0.422175 -1.45647e-20)
(0.936662 -0.418065 4.69992e-20)
(0.96644 -0.406103 1.50892e-20)
(0.987016 -0.386808 -7.59491e-22)
(0.996876 -0.360925 -1.43916e-21)
(0.994589 -0.32946 -6.40261e-21)
(0.978978 -0.293709 1.29573e-21)
(0.708048 -0.39751 -4.9917e-20)
(0.758348 -0.414215 -7.279e-20)
(0.805685 -0.422527 -6.98444e-21)
(0.84749 -0.422224 -2.36349e-20)
(0.881873 -0.413397 -2.46723e-20)
(0.907196 -0.39654 -2.31141e-21)
(0.921922 -0.372442 -3.56187e-21)
(0.924672 -0.342179 -1.88492e-23)
(0.914333 -0.307124 6.482e-21)
(0.89022 -0.268938 -1.53517e-21)
(0.647791 -0.3961 -1.08225e-19)
(0.695501 -0.409675 1.13513e-19)
(0.73945 -0.413794 6.31729e-21)
(0.777086 -0.408723 -5.43806e-21)
(0.80631 -0.394945 1.31654e-20)
(0.825372 -0.373291 4.99151e-21)
(0.83282 -0.344912 -3.80689e-21)
(0.827549 -0.311258 7.47284e-21)
(0.808902 -0.274057 -1.21541e-21)
(0.776785 -0.235263 -6.41936e-22)
(0.56669 -0.37461 1.55607e-19)
(0.610204 -0.38459 -8.62229e-20)
(0.648866 -0.38449 -2.62222e-20)
(0.680308 -0.374996 -6.07852e-21)
(0.702508 -0.357026 -1.05642e-20)
(0.713855 -0.331815 5.22528e-21)
(0.713175 -0.300898 -4.16498e-21)
(0.699792 -0.266068 -3.21807e-21)
(0.673597 -0.229322 2.09337e-21)
(0.635116 -0.192762 2.81891e-21)
(0.456009 -0.322566 2.5349e-20)
(0.49291 -0.329205 1.57109e-20)
(0.524045 -0.325862 3.17221e-21)
(0.547339 -0.313591 -9.82441e-21)
(0.56107 -0.293706 3.02753e-20)
(0.563979 -0.267803 1.29627e-21)
(0.555334 -0.237715 -5.23929e-22)
(0.534976 -0.205447 6.10938e-22)
(0.503355 -0.173078 2.97425e-21)
(0.461533 -0.142648 -2.14507e-21)
(0.304934 -0.226618 7.32992e-20)
(0.331912 -0.231606 5.24115e-20)
(0.352907 -0.227757 -8.82137e-20)
(0.36627 -0.216381 -1.65033e-20)
(0.370737 -0.199032 -2.90789e-20)
(0.365542 -0.177479 -1.65719e-21)
(0.350453 -0.153632 -7.19032e-21)
(0.325803 -0.129447 9.41385e-21)
(0.292474 -0.10682 -7.98739e-23)
(0.251843 -0.0874703 4.5688e-21)
(0.100215 -0.0705077 -1.33991e-20)
(0.112614 -0.0780935 -8.73271e-20)
(0.120207 -0.0794362 6.60389e-20)
(0.121918 -0.0758187 -2.21864e-20)
(0.117049 -0.0686822 2.86173e-20)
(0.105335 -0.0595802 -1.61876e-21)
(0.0869594 -0.0500966 -5.78265e-21)
(0.0625426 -0.0417527 1.85501e-22)
(0.0330962 -0.0359166 -4.39871e-22)
(-6.10656e-05 -0.0337287 -2.33984e-21)
(-0.176414 0.16497 -1.34536e-20)
(-0.185984 0.146076 4.57405e-20)
(-0.196693 0.128861 -1.90114e-20)
(-0.208867 0.112683 5.83201e-21)
(-0.222624 0.096889 -5.57674e-21)
(-0.237876 0.080819 -1.25513e-21)
(-0.254331 0.0638467 9.83163e-22)
(-0.271519 0.0454232 4.75347e-21)
(-0.288832 0.0251134 -2.26151e-21)
(-0.305581 0.00260626 -8.13653e-22)
(1.08278 -0.287088 1.51732e-21)
(1.05612 -0.250706 -7.46742e-21)
(1.01494 -0.212563 4.13e-20)
(0.959372 -0.174791 -3.00936e-20)
(0.890606 -0.139947 3.56183e-21)
(0.810844 -0.110847 -3.08218e-20)
(0.722984 -0.090272 1.54697e-19)
(0.629764 -0.0805566 7.84e-21)
(0.529838 -0.0836017 -4.62292e-20)
(0.411805 -0.0958381 1.04386e-19)
(1.02537 -0.274221 5.03222e-21)
(0.989932 -0.235847 -1.5135e-20)
(0.940081 -0.197299 -1.54043e-20)
(0.876698 -0.160902 -1.14286e-20)
(0.801633 -0.129158 -3.3002e-20)
(0.717519 -0.104508 -7.81829e-22)
(0.627264 -0.089007 -1.01316e-20)
(0.53303 -0.0838297 2.85431e-20)
(0.433673 -0.0888003 9.21513e-20)
(0.323601 -0.0974008 -2.0326e-20)
(0.949242 -0.255277 -3.41437e-21)
(0.905271 -0.216124 3.04524e-20)
(0.847763 -0.178445 8.03096e-21)
(0.778291 -0.144556 -1.69187e-21)
(0.69924 -0.116697 3.59784e-20)
(0.613516 -0.0967606 1.56349e-20)
(0.524004 -0.0859441 3.03629e-20)
(0.432744 -0.084271 -3.29463e-20)
(0.339681 -0.0899991 -6.57717e-20)
(0.243566 -0.0966572 -1.54663e-19)
(0.85215 -0.229535 4.20529e-21)
(0.800729 -0.191076 -1.34081e-20)
(0.737363 -0.155776 1.96293e-20)
(0.664208 -0.125763 -4.46593e-20)
(0.58402 -0.102858 -2.64993e-20)
(0.499819 -0.0883246 -1.25446e-20)
(0.414414 -0.0825651 -6.37293e-20)
(0.329857 -0.0847838 -2.95007e-20)
(0.247009 -0.0926262 3.56689e-21)
(0.166767 -0.100929 4.79427e-20)
(0.731683 -0.196974 2.09542e-21)
(0.674881 -0.161377 -3.11498e-23)
(0.608371 -0.130523 1.29543e-20)
(0.534704 -0.106179 3.99781e-20)
(0.456783 -0.0896391 -6.77167e-21)
(0.377551 -0.0815261 -5.93001e-20)
(0.299615 -0.0815874 1.00005e-19)
(0.22493 -0.0885211 -3.05203e-20)
(0.154741 -0.099855 -2.2998e-20)
(0.0904996 -0.111629 -1.08615e-20)
(0.585446 -0.158484 -5.76748e-21)
(0.526404 -0.128499 6.14075e-21)
(0.460354 -0.104508 2.03487e-20)
(0.389977 -0.0877898 -1.95809e-20)
(0.318076 -0.0790709 3.90207e-20)
(0.247314 -0.0783957 -4.75748e-21)
(0.179949 -0.0850303 3.73972e-21)
(0.117681 -0.0974132 2.52107e-20)
(0.0617084 -0.113186 1.97699e-20)
(0.0132791 -0.129279 6.39291e-21)
(0.411046 -0.116033 8.54536e-22)
(0.353992 -0.0948595 -1.16462e-21)
(0.292817 -0.0803366 2.90928e-20)
(0.230047 -0.0731999 -3.48497e-20)
(0.168142 -0.07364 -6.6526e-20)
(0.109305 -0.0812527 3.21394e-20)
(0.0553316 -0.0950187 -1.70214e-20)
(0.00754417 -0.113326 1.82578e-20)
(-0.0331222 -0.134063 5.1394e-20)
(-0.0658459 -0.154817 -5.56267e-20)
(0.205604 -0.0728403 -9.10944e-22)
(0.15581 -0.0639944 -1.82028e-20)
(0.104663 -0.0615916 2.58686e-20)
(0.0542582 -0.0658521 1.60185e-20)
(0.00650751 -0.0765451 -4.88697e-20)
(-0.0369683 -0.0929982 -3.84865e-20)
(-0.0749063 -0.114119 -2.73849e-21)
(-0.106406 -0.138439 5.98836e-21)
(-0.130861 -0.1642 7.83929e-21)
(-0.147838 -0.189529 -2.16811e-20)
(-0.035454 -0.0360376 1.53968e-21)
(-0.0714583 -0.0432281 2.52352e-20)
(-0.106463 -0.0554661 1.04666e-20)
(-0.139046 -0.0725889 -3.4317e-20)
(-0.167995 -0.0941365 3.4087e-20)
(-0.192351 -0.119396 -4.48085e-20)
(-0.211405 -0.147432 5.87281e-20)
(-0.224676 -0.177114 -7.06738e-20)
(-0.231866 -0.20717 -3.74478e-20)
(-0.232803 -0.236279 -1.00899e-19)
(-0.321017 -0.0223103 -4.44186e-22)
(-0.33442 -0.0492893 -7.38578e-21)
(-0.345173 -0.0782469 5.48722e-21)
(-0.352753 -0.108896 6.54609e-21)
(-0.356775 -0.140835 -1.48003e-20)
(-0.356984 -0.173593 1.46302e-20)
(-0.353227 -0.206649 -1.79229e-20)
(-0.34543 -0.239428 1.3913e-20)
(-0.333576 -0.271322 -3.53259e-20)
(-0.317669 -0.301722 3.89827e-20)
(-0.297627 -0.330011 5.58193e-20)
(-0.227472 -0.263243 -4.18618e-20)
(-0.157061 -0.212846 -4.34305e-20)
(-0.0896992 -0.173583 5.8392e-20)
(-0.0255502 -0.14296 -5.34098e-21)
(0.0359524 -0.119606 6.94379e-20)
(0.0950079 -0.102222 7.8738e-21)
(0.151869 -0.0899173 -6.2282e-20)
(0.207874 -0.0827613 1.14804e-19)
(0.262255 -0.0776213 -1.58249e-20)
(-0.274108 -0.355309 -5.89751e-20)
(-0.216386 -0.287085 1.61434e-19)
(-0.158705 -0.233272 -6.77415e-21)
(-0.104147 -0.189857 -5.33155e-20)
(-0.0527984 -0.154653 4.22906e-20)
(-0.00399678 -0.126245 -9.62836e-20)
(0.042665 -0.103244 1.10921e-19)
(0.0878187 -0.0846643 -9.36625e-20)
(0.132975 -0.0707421 1.69359e-20)
(0.176466 -0.0608878 7.31274e-20)
(-0.247508 -0.37751 3.38593e-20)
(-0.200285 -0.307368 -1.01717e-19)
(-0.153651 -0.250371 3.53288e-20)
(-0.110195 -0.203483 -1.95525e-20)
(-0.069795 -0.164808 3.61355e-20)
(-0.0316476 -0.13302 -2.70531e-20)
(0.00481104 -0.106916 -2.56733e-20)
(0.0402609 -0.0857605 3.48142e-20)
(0.0757001 -0.0698143 -8.1199e-20)
(0.10912 -0.058939 1.21918e-19)
(-0.218305 -0.396413 -7.23249e-20)
(-0.180094 -0.323817 7.92929e-21)
(-0.143127 -0.263849 3.70126e-20)
(-0.109369 -0.214176 5.02183e-20)
(-0.07847 -0.173084 -7.67998e-20)
(-0.049545 -0.139296 6.3624e-21)
(-0.0220028 -0.111714 -4.28692e-20)
(0.004726 -0.0896856 -8.9893e-20)
(0.0312565 -0.073269 1.71373e-19)
(0.0558897 -0.0621567 6.56318e-20)
(-0.187029 -0.411883 5.06943e-20)
(-0.156784 -0.336291 1.15974e-20)
(-0.128397 -0.273545 4.52027e-20)
(-0.103173 -0.221679 -5.50757e-21)
(-0.080549 -0.178998 5.98314e-20)
(-0.0596077 -0.144144 2.94201e-20)
(-0.0397892 -0.115967 7.51479e-20)
(-0.0206539 -0.0936985 -7.63651e-20)
(-0.00182642 -0.0770751 -7.88014e-21)
(0.0153919 -0.0655971 -8.58892e-20)
(-0.154206 -0.423866 3.36456e-20)
(-0.131277 -0.34481 -3.96378e-20)
(-0.110628 -0.279478 -8.88788e-21)
(-0.0929496 -0.225931 -1.55013e-20)
(-0.0775111 -0.182307 -1.70012e-20)
(-0.0634098 -0.147039 -2.16343e-20)
(-0.0501518 -0.118806 3.53366e-20)
(-0.0374211 -0.096636 -4.71971e-20)
(-0.0250059 -0.0799492 4.26039e-20)
(-0.0138767 -0.0680897 5.59611e-21)
(-0.120329 -0.432386 -5.8489e-20)
(-0.104389 -0.349546 -2.95117e-20)
(-0.0908144 -0.281871 5.12769e-20)
(-0.079796 -0.227121 -1.911e-20)
(-0.0705089 -0.183091 2.83252e-20)
(-0.0621131 -0.147902 -8.57825e-20)
(-0.0542122 -0.11999 6.55632e-20)
(-0.0466135 -0.0981547 -2.45839e-20)
(-0.0392382 -0.081552 4.44506e-20)
(-0.032834 -0.0694068 -5.36995e-20)
(-0.0858404 -0.437542 2.69679e-20)
(-0.0768037 -0.350819 -1.1605e-20)
(-0.0697479 -0.281142 -1.78984e-20)
(-0.0645445 -0.225682 -7.18519e-21)
(-0.0603709 -0.181745 3.97585e-21)
(-0.0565074 -0.147061 1.19494e-20)
(-0.0526928 -0.119782 -2.94528e-20)
(-0.0488707 -0.0984842 1.7964e-20)
(-0.0450908 -0.0821151 5.51201e-20)
(-0.0419938 -0.0698065 -5.33374e-20)
(-0.0511242 -0.439505 2.02276e-20)
(-0.049054 -0.349071 5.32216e-23)
(-0.0480092 -0.277865 2.78354e-20)
(-0.0477706 -0.22224 -2.40367e-20)
(-0.0476377 -0.178902 7.44447e-21)
(-0.0470804 -0.145136 -8.32937e-21)
(-0.0460182 -0.118793 -4.73033e-21)
(-0.0445544 -0.0982347 -2.75484e-20)
(-0.0428738 -0.0822422 3.00529e-20)
(-0.041623 -0.0698738 3.13499e-20)
(-0.0164746 -0.438503 -3.56973e-21)
(-0.0215058 -0.344821 -3.048e-21)
(-0.0259659 -0.272712 -2.74333e-21)
(-0.0298063 -0.217547 -1.05235e-20)
(-0.0325907 -0.175346 1.13717e-20)
(-0.0340597 -0.142927 4.15208e-21)
(-0.0343663 -0.117832 -8.91431e-21)
(-0.0338021 -0.0982172 5.47933e-22)
(-0.0326967 -0.082726 -5.40166e-21)
(-0.0318104 -0.0703563 -3.67859e-22)
(-0.0113721 -0.0396301 -1.11285e-21)
(-0.00272231 -0.0428113 -1.1083e-21)
(0.0484602 -0.0437251 2.48398e-21)
(0.0959794 -0.0452816 -1.6513e-21)
(0.155373 -0.0432144 -5.17701e-22)
(0.213199 -0.0367801 -1.0093e-21)
(0.271879 -0.0270337 3.51718e-22)
(0.328731 -0.0158635 -4.35868e-22)
(0.384219 -0.00622199 2.25466e-22)
(0.437858 -0.00213756 4.95128e-23)
(0.489438 -0.00648228 -2.51782e-22)
(0.537893 -0.0205439 6.27923e-23)
(0.579041 -0.0403949 -5.94747e-23)
(0.612799 -0.0559887 -1.16488e-22)
(0.6344 -0.0566101 1.89388e-23)
(0.660865 -0.0241132 -2.99994e-23)
(0.676852 0.0116019 1.21092e-23)
(0.719045 0.0516456 7.74521e-24)
(0.743427 0.0319218 -1.45665e-23)
(0.805542 -0.0159532 -3.96218e-24)
(0.0235933 -0.0416197 5.20114e-21)
(0.0341823 -0.053172 3.89283e-21)
(0.0878697 -0.0563188 -3.67819e-21)
(0.134869 -0.0585905 1.9921e-21)
(0.191958 -0.0562056 -3.83446e-21)
(0.246732 -0.0488167 -1.70377e-22)
(0.302061 -0.0380088 -3.52248e-22)
(0.355886 -0.0257493 -6.69032e-22)
(0.40896 -0.0150898 4.42402e-22)
(0.46097 -0.0100141 1.38831e-22)
(0.511422 -0.0133571 5.60273e-23)
(0.558812 -0.0261712 5.14174e-22)
(0.598272 -0.0446741 -5.46359e-22)
(0.629138 -0.0588645 -9.05354e-23)
(0.646817 -0.058885 6.95004e-23)
(0.668188 -0.0260617 4.56511e-23)
(0.681863 0.0091454 -9.07867e-23)
(0.722546 0.048882 1.13379e-22)
(0.750736 0.0287746 3.51963e-23)
(0.812186 -0.0181303 1.24203e-23)
(0.0715743 -0.0458123 -1.80062e-20)
(0.0846323 -0.0641983 2.47719e-21)
(0.14078 -0.0689268 1.72278e-20)
(0.18655 -0.0714019 -8.54483e-21)
(0.240155 -0.0685067 -1.07587e-21)
(0.290707 -0.0601608 -3.75014e-21)
(0.341516 -0.0483736 7.85659e-25)
(0.391207 -0.0351478 -1.35659e-21)
(0.440799 -0.0235834 -4.3632e-22)
(0.490146 -0.0175858 -3.72425e-22)
(0.538497 -0.0199372 -8.48673e-23)
(0.583937 -0.0314675 4.84392e-23)
(0.621044 -0.0485668 5.39764e-22)
(0.648586 -0.061327 -2.21925e-22)
(0.662192 -0.0607598 -1.2546e-22)
(0.678306 -0.0277508 1.29264e-22)
(0.6895 0.00679054 -2.75449e-23)
(0.728235 0.0460346 -6.21945e-23)
(0.759788 0.0255532 -1.32828e-22)
(0.81994 -0.0202604 3.39742e-23)
(0.132637 -0.0526352 -4.90026e-21)
(0.148288 -0.0757936 1.90498e-20)
(0.206122 -0.0813097 -8.96225e-21)
(0.249686 -0.0834318 -4.73063e-21)
(0.298577 -0.0798412 3.74865e-21)
(0.343806 -0.0705678 -6.79089e-22)
(0.389058 -0.0579123 1.55418e-21)
(0.433648 -0.0438666 -5.88259e-22)
(0.478819 -0.0315298 1.41692e-21)
(0.524576 -0.0247008 7.33229e-22)
(0.56994 -0.0260968 -1.58747e-21)
(0.612626 -0.0363428 2.20929e-22)
(0.646791 -0.0520215 -3.33292e-23)
(0.67067 -0.063357 3.66775e-22)
(0.680156 -0.0622256 7.44814e-23)
(0.690986 -0.0291638 -8.56596e-23)
(0.699612 0.0045702 -7.38906e-23)
(0.736025 0.043145 -1.53391e-22)