/*--------------------------------*- C++ -*----------------------------------*\
  =========                 |
  \\      /  F ield         | OpenFOAM: The Open Source CFD Toolbox
   \\    /   O peration     | Website:  https://openfoam.org
    \\  /    A nd           | Version:  6.0
     \\/     M anipulation  |
\*---------------------------------------------------------------------------*/
FoamFile
{
    version     2.0;
    format      ascii;
    class       volVectorField;
    location    "10";
    object      U;
}
// * * * * * * * * * * * * * * * * * * * * * * * * * * * * * * * * * * * * * //

dimensions      [0 1 -1 0 0 0 0];

internalField   nonuniform List<vector> 
2400
(
(3.94041 -16.1609 -1.14912e-18)
(0.489563 -15.9981 4.08127e-19)
(0.729221 -15.4309 -3.30345e-19)
(0.992729 -14.5803 -1.79817e-19)
(1.03522 -13.7353 -2.54354e-19)
(1.05654 -12.9483 3.39034e-19)
(1.08515 -12.239 1.14787e-19)
(1.11672 -11.6144 8.05362e-20)
(1.16234 -11.0706 -1.79297e-19)
(1.18567 -10.5998 -1.00322e-20)
(5.22444 -15.8872 1.31675e-18)
(1.76514 -16.0528 -5.31475e-20)
(1.94803 -15.4694 2.35052e-19)
(2.13297 -14.5885 1.73122e-18)
(2.10196 -13.7328 -1.13906e-18)
(2.05696 -12.9424 -6.0246e-20)
(2.02655 -12.2337 -1.13166e-20)
(2.00823 -11.6122 -1.14941e-19)
(2.01179 -11.0735 -1.54671e-19)
(1.98859 -10.6161 -1.40468e-20)
(6.48793 -15.5123 2.28633e-18)
(3.04551 -16.0014 1.64989e-18)
(3.16979 -15.4044 -4.02285e-18)
(3.27133 -14.4995 1.13051e-18)
(3.16378 -13.6397 1.49377e-18)
(3.05039 -12.8513 -8.27357e-19)
(2.9596 -12.1474 -5.89734e-19)
(2.89078 -11.5309 4.40717e-19)
(2.85086 -10.997 -8.96671e-19)
(2.77569 -10.5518 7.89853e-19)
(7.72033 -15.0342 -7.87873e-18)
(4.32224 -15.8402 2.61874e-18)
(4.3851 -15.2341 -2.37507e-18)
(4.39956 -14.3131 9.86015e-19)
(4.21379 -13.4564 -9.68929e-19)
(4.03118 -12.6767 1.29722e-18)
(3.88003 -11.9835 4.67845e-19)
(3.76198 -11.3776 -1.75799e-18)
(3.67989 -10.8557 -1.38599e-18)
(3.55285 -10.4371 1.33562e-18)
(8.91327 -14.4542 4.77265e-19)
(5.58429 -15.5689 -1.01726e-18)
(5.58408 -14.9585 -3.86499e-19)
(5.50887 -14.0296 -4.73207e-19)
(5.24433 -13.1841 -2.36279e-18)
(4.99253 -12.4197 3.47052e-19)
(4.78077 -11.7418 -1.94904e-19)
(4.61227 -11.1488 1.772e-18)
(4.48454 -10.6412 -1.1946e-18)
(4.30051 -10.2542 -6.0932e-19)
(10.0567 -13.7729 6.78778e-18)
(6.82141 -15.1862 -4.6257e-19)
(6.75602 -14.5768 6.37075e-18)
(6.58919 -13.6491 -8.18131e-19)
(6.24664 -12.8236 2.82961e-18)
(5.92808 -12.083 -3.23643e-19)
(5.65873 -11.4279 9.64759e-21)
(5.44105 -10.8537 1.48463e-18)
(5.26483 -10.3667 -7.87255e-19)
(5.02049 -10.0208 9.65568e-19)
(11.1426 -12.9939 -2.68443e-18)
(8.0237 -14.6937 5.08365e-19)
(7.89076 -14.0899 -1.75555e-18)
(7.62965 -13.1714 -1.44413e-18)
(7.20851 -12.3739 1.7835e-20)
(6.82508 -11.6652 4.16343e-18)
(6.50309 -11.0405 -1.44707e-18)
(6.24223 -10.4916 4.7845e-19)
(6.02021 -10.03 -1.92435e-18)
(5.71583 -9.72749 -7.62148e-19)
(12.1635 -12.1216 1.08352e-17)
(9.18358 -14.0935 -1.22965e-18)
(8.98069 -13.4994 -8.50261e-18)
(8.62218 -12.5969 4.38745e-19)
(8.11918 -11.8334 1.41835e-18)
(7.66752 -11.1619 -1.95445e-18)
(7.29272 -10.5735 -2.21541e-18)
(6.99545 -10.058 3.22117e-18)
(6.74252 -9.63609 -2.97765e-19)
(6.39878 -9.39951 -2.12142e-18)
(13.1134 -11.162 -8.81607e-18)
(10.2947 -13.3898 4.02474e-18)
(10.0212 -12.8092 5.22383e-18)
(9.56438 -11.9284 1.22089e-18)
(8.97694 -11.2016 -4.04562e-18)
(8.44909 -10.5674 2.38312e-18)
(8.00663 -10.014 1.25705e-18)
(7.65551 -9.53611 2.4154e-18)
(7.36558 -9.17575 -1.50369e-18)
(7.00306 -9.05436 -1.78357e-18)
(13.9847 -10.1204 2.81993e-18)
(11.3501 -12.5877 -1.03544e-18)
(11.0083 -12.0248 -3.01225e-19)
(10.4568 -11.1705 1.13047e-18)
(9.78976 -10.4816 8.09229e-19)
(9.18715 -9.8817 -6.06992e-19)
(8.66439 -9.35942 -1.01649e-18)
(8.21562 -8.92294 1.50052e-18)
(7.80893 -8.64393 -1.20267e-18)
(7.35753 -8.64804 9.68343e-19)
(17.4972 2.92046 1.48078e-19)
(17.6097 1.52486 4.68359e-19)
(17.6112 0.127829 -1.47026e-18)
(17.5056 -1.262 1.35488e-18)
(17.2952 -2.63624 5.35947e-19)
(16.9831 -3.98732 7.04546e-18)
(16.5707 -5.3071 -2.78927e-18)
(16.0629 -6.58833 -4.07622e-18)
(15.46 -7.82296 4.72669e-18)
(14.7687 -9.00349 -8.20288e-18)
(17.435 -0.86306 3.77193e-19)
(17.2684 -2.21902 -1.80942e-19)
(16.9911 -3.55605 -1.12895e-18)
(16.6074 -4.86551 3.01e-18)
(16.1217 -6.13839 -1.06111e-18)
(15.5389 -7.36789 8.31786e-18)
(14.8638 -8.54502 -5.49721e-18)
(14.1024 -9.66418 8.10222e-18)
(13.2595 -10.7153 -5.9543e-18)
(12.341 -11.6945 -3.15574e-18)
(16.5634 -0.765636 -6.85669e-19)
(16.4374 -2.04605 4.68136e-20)
(16.2059 -3.31415 -2.99335e-18)
(15.8713 -4.5617 2.27063e-18)
(15.437 -5.77989 -2.54892e-18)
(14.9072 -6.96112 -5.04895e-18)
(14.2863 -8.09688 -1.80249e-18)
(13.5804 -9.17986 -1.29994e-18)
(12.7946 -10.2012 5.25781e-18)
(11.9356 -11.1528 3.14389e-18)
(15.4038 -0.545107 2.72239e-19)
(15.3102 -1.73216 -4.72969e-19)
(15.1192 -2.91204 -6.59905e-19)
(14.8315 -4.07812 -2.71985e-18)
(14.4507 -5.22134 1.80832e-18)
(13.9794 -6.33498 5.05293e-18)
(13.4227 -7.41051 2.03733e-18)
(12.7856 -8.44072 4.42222e-19)
(12.0742 -9.41699 1.21853e-18)
(11.2959 -10.3303 1.31616e-19)
(14.3829 -0.503792 -2.80881e-19)
(14.2931 -1.60838 -1.1048e-18)
(14.1145 -2.70661 9.49873e-20)
(13.8446 -3.79526 2.0914e-18)
(13.4898 -4.86328 2.29168e-18)
(13.0492 -5.90767 -1.58591e-18)
(12.5311 -6.91799 -2.83394e-18)
(11.9378 -7.88986 -1.53839e-18)
(11.2781 -8.81363 1.66698e-18)
(10.5599 -9.68118 2.73583e-18)
(13.5274 -0.468395 6.79109e-20)
(13.4345 -1.50352 8.8399e-19)
(13.2625 -2.53028 -2.07866e-18)
(13.0004 -3.55225 2.53999e-18)
(12.6639 -4.55196 1.55528e-18)
(12.2417 -5.53594 3.01607e-18)
(11.7526 -6.48648 -6.44946e-19)
(11.1885 -7.40886 -1.91509e-18)
(10.5695 -8.28573 4.50563e-18)
(9.89891 -9.11404 -4.01507e-18)
(12.8029 -0.425709 1.27712e-19)
(12.7037 -1.40202 -9.2824e-19)
(12.5399 -2.36508 -6.06519e-19)
(12.2792 -3.33061 -1.33126e-18)
(11.962 -4.26676 -1.90405e-19)
(11.5472 -5.19976 -1.92722e-18)
(11.086 -6.09369 -1.28859e-18)
(10.535 -6.98034 -2.04705e-19)
(9.95362 -7.81817 -2.6343e-18)
(9.31779 -8.61864 3.69758e-18)
(12.1792 -0.380829 -1.01535e-19)
(12.0697 -1.30908 7.51378e-19)
(11.9192 -2.21606 -3.36846e-19)
(11.6517 -3.13595 7.26513e-19)
(11.3612 -4.01154 1.7548e-18)
(10.9389 -4.9027 2.99831e-18)
(10.5134 -5.73639 -7.84637e-19)
(9.94812 -6.60319 -2.9437e-18)
(9.41266 -7.40906 9.16357e-19)
(8.78235 -8.21481 -5.56017e-18)
(11.6357 -0.320935 1.39921e-19)
(11.51 -1.21332 -1.68023e-19)
(11.3804 -2.07522 -1.59399e-18)
(11.0953 -2.9648 4.82509e-19)
(10.8433 -3.78842 -1.18117e-18)
(10.3917 -4.65397 -5.28094e-19)
(10.0188 -5.42326 -3.17681e-19)
(9.38845 -6.29279 1.36362e-18)
(8.92298 -7.06068 1.26658e-18)
(8.20609 -7.97932 1.10758e-18)
(11.1596 -0.283353 -2.9322e-19)
(11.0062 -1.14487 5.07086e-19)
(10.9002 -1.96806 2.59595e-19)
(10.583 -2.84204 6.92128e-19)
(10.3754 -3.62898 -6.77931e-20)
(9.8689 -4.4949 -5.28375e-20)
(9.55383 -5.21414 -1.67164e-18)
(8.79866 -6.11605 2.32135e-18)
(8.41388 -6.81325 -1.52629e-18)
(7.47469 -7.96206 4.98398e-19)
(10.4669 14.6022 -4.73165e-18)
(11.5917 13.7553 4.88972e-18)
(12.6387 12.8154 -2.80961e-19)
(13.6013 11.7905 -7.99141e-18)
(14.4721 10.6876 5.75049e-18)
(15.245 9.51423 -3.94489e-18)
(15.914 8.2792 -8.77572e-19)
(16.4763 6.9926 -8.20704e-19)
(16.9282 5.6638 1.30577e-18)
(17.2699 4.30386 9.30931e-20)
(12.9283 11.4214 5.1949e-18)
(13.8368 10.4395 9.80545e-19)
(14.6583 9.3816 -4.99483e-18)
(15.3856 8.25447 -5.05107e-18)
(16.0119 7.06521 4.14098e-18)
(16.5325 5.82119 -3.24437e-18)
(16.9423 4.53255 3.55645e-18)
(17.2394 3.20883 -1.00971e-18)
(17.4206 1.86193 -2.93936e-18)
(17.4869 0.500371 -2.01471e-19)
(12.1058 10.6027 -8.66841e-19)
(12.9693 9.71046 -6.95992e-19)
(13.7544 8.74688 2.66692e-18)
(14.454 7.71601 2.46092e-18)
(15.0618 6.62309 5.26166e-18)
(15.5728 5.47498 1.63181e-18)
(15.9831 4.2809 -1.18274e-18)
(16.2895 3.05008 -2.4338e-18)
(16.4894 1.79246 1.9258e-18)
(16.5812 0.517197 1.36556e-19)
(11.14 9.83925 1.24337e-18)
(11.9465 9.03483 -2.82201e-18)
(12.6807 8.16525 -1.07643e-18)
(13.3364 7.23157 -4.52782e-18)
(13.9088 6.23768 -2.31097e-18)
(14.3935 5.19019 4.32526e-18)
(14.7878 4.09841 2.69536e-18)
(15.0882 2.97026 -2.27064e-18)
(15.2925 1.81488 9.61114e-20)
(15.3978 0.639834 -9.40963e-20)
(10.4732 9.1216 -4.34497e-18)
(11.2209 8.37849 4.74451e-18)
(11.8979 7.5769 -1.19617e-18)
(12.4988 6.71346 2.33414e-18)
(13.0225 5.79189 -1.54242e-18)
(13.465 4.8197 -2.48511e-18)
(13.8256 3.80705 1.15559e-18)
(14.0991 2.76006 -1.239e-18)
(14.2852 1.68809 -1.16693e-18)
(14.3792 0.596584 4.87767e-19)
(9.93933 8.53159 -5.63427e-19)
(10.6413 7.84069 8.79329e-19)
(11.2705 7.09592 -1.03332e-18)
(11.8228 6.28818 -4.47917e-18)
(12.3026 5.42423 2.38678e-18)
(12.7062 4.51316 3.68073e-19)
(13.0357 3.56563 -2.03817e-18)
(13.2825 2.58507 -6.84985e-19)
(13.4501 1.5824 6.13488e-19)
(13.5294 0.56013 -1.7662e-19)
(9.47717 8.03929 -2.2196e-18)
(10.1427 7.40023 -4.98707e-21)
(10.7359 6.70358 9.81892e-19)
(11.2481 5.9389 2.47772e-18)
(11.6922 5.12254 4.84945e-19)
(12.0624 4.26338 1.17301e-18)
(12.3668 3.37136 2.24312e-18)
(12.5896 2.4465 -9.42185e-19)
(12.7429 1.50336 7.76749e-19)
(12.8076 0.539868 -2.91721e-19)
(9.07288 7.62448 -7.74252e-19)
(9.69111 7.05048 8.30672e-19)
(10.2545 6.39125 7.74071e-19)
(10.7365 5.65678 -1.13856e-18)
(11.1552 4.88083 -6.00136e-19)
(11.498 4.06516 -1.29575e-18)
(11.7844 3.21854 1.11268e-19)
(11.9862 2.3382 -2.82524e-19)
(12.1316 1.44503 -1.62313e-18)
(12.1817 0.530181 2.14616e-19)
(8.80223 7.23456 -2.96632e-19)
(9.3149 6.76409 -1.39677e-18)
(9.82568 6.13408 -5.6189e-19)
(10.2781 5.42734 2.15847e-19)
(10.6772 4.69511 -1.29003e-19)
(10.9943 3.92024 1.13112e-18)
(11.2671 3.11314 4.35938e-19)
(11.4498 2.26935 6.26172e-19)
(11.5945 1.41896 7.39192e-19)
(11.6297 0.543789 -2.981e-19)
(8.81145 6.74529 -9.27881e-19)
(9.16138 6.39778 1.54083e-18)
(9.54579 5.78732 -2.38318e-18)
(9.94546 5.1211 -7.38106e-20)
(10.3147 4.44637 1.84409e-18)
(10.5905 3.72187 8.42663e-20)
(10.8381 2.96476 7.69358e-19)
(10.9915 2.16551 -1.57852e-18)
(11.1328 1.36544 -1.18314e-20)
(11.1451 0.532597 1.35492e-19)
(0.874319 9.93612 6.65356e-20)
(0.867774 10.3779 -3.04616e-20)
(0.89951 10.8617 -1.89332e-20)
(0.913468 11.4064 2.23699e-19)
(0.914359 12.0277 -9.74624e-20)
(0.902631 12.7522 -3.80122e-19)
(0.893895 13.6459 4.41402e-19)
(1.07423 14.8178 1.49322e-19)
(1.1182 16.1339 2.25522e-19)
(-2.83877 17.2581 1.04274e-18)
(1.69253 9.83149 1.65338e-19)
(1.71535 10.2998 -5.53185e-19)
(1.77687 10.8013 5.6386e-19)
(1.82815 11.3593 1.18769e-19)
(1.87482 11.9918 -2.47408e-19)
(1.91796 12.7285 2.82657e-19)
(1.97764 13.6355 1.05335e-18)
(2.24686 14.8029 -1.37627e-18)
(2.38782 16.1041 3.84502e-20)
(-1.48251 17.475 -1.20345e-18)
(2.48565 9.74836 6.9307e-19)
(2.54534 10.2102 -9.81347e-19)
(2.6431 10.7033 -4.15763e-19)
(2.73825 11.2565 -4.10481e-20)
(2.8355 11.8887 -4.26653e-19)
(2.93672 12.6296 -2.03435e-19)
(3.06687 13.5426 3.37153e-19)
(3.42438 14.6973 9.43024e-19)
(3.65967 15.9743 7.31954e-19)
(-0.108497 17.5845 -2.08971e-18)
(3.32515 9.50906 6.54972e-19)
(3.40208 9.99804 -7.84722e-19)
(3.52408 10.5079 -8.35893e-19)
(3.65559 11.0705 4.6608e-19)
(3.79876 11.7073 2.63466e-18)
(3.95595 12.4513 -1.05359e-18)
(4.15599 13.3655 8.62747e-19)
(4.59987 14.5 -2.92182e-18)
(4.92607 15.7449 -3.27889e-18)
(1.27481 17.5872 4.03695e-18)
(4.10257 9.32953 4.63582e-19)
(4.21418 9.7969 -3.64509e-19)
(4.37496 10.2856 1.03363e-18)
(4.5541 10.8326 -9.53388e-19)
(4.74971 11.4596 7.05134e-19)
(4.96599 12.1974 6.37296e-19)
(5.23716 13.105 6.46405e-19)
(5.76568 14.2111 4.66004e-19)
(6.17846 15.4162 1.96893e-18)
(2.65866 17.4821 1.8119e-18)
(4.94125 8.94146 -1.38228e-18)
(5.05625 9.44888 -4.41686e-19)
(5.2359 9.95833 1.82763e-18)
(5.45 10.511 -2.04931e-18)
(5.69073 11.1348 -1.01222e-18)
(5.96281 11.8651 -2.47248e-18)
(6.30385 12.7605 1.22787e-19)
(6.9144 13.8305 -2.6788e-18)
(7.40961 14.9887 -3.44757e-19)
(4.03457 17.2695 -5.44709e-18)
(5.68284 8.65099 1.97527e-18)
(5.83304 9.1325 -3.68178e-18)
(6.05422 9.61231 2.04157e-18)
(6.31623 10.1402 1.09644e-18)
(6.60765 10.7449 -2.46194e-19)
(6.9373 11.4584 3.31199e-18)
(7.34816 12.3336 -2.17347e-18)
(8.03789 13.3595 -5.4089e-18)
(8.60977 14.4636 -7.47716e-19)
(5.39308 16.9482 4.99059e-18)
(6.53325 8.09318 -4.53021e-20)
(6.65872 8.64911 1.70002e-18)
(6.87918 9.16203 -8.34721e-19)
(7.16695 9.69136 8.66885e-19)
(7.4999 10.2832 9.38502e-19)
(7.88373 10.9773 -1.53118e-18)
(8.36255 11.8255 1.12396e-18)
(9.12794 12.7991 -2.46896e-18)
(9.77195 13.8421 7.00563e-18)
(6.72538 16.5204 -2.45834e-18)
(7.26098 7.70093 -9.28576e-19)
(7.40855 8.23148 -5.65601e-19)
(7.65282 8.70289 2.34718e-18)
(7.9779 9.19604 -3.49248e-18)
(8.35662 9.7591 3.50031e-18)
(8.79428 10.425 -1.80896e-18)
(9.33894 11.2385 -3.14281e-18)
(10.1755 12.1512 6.89113e-19)
(10.8846 13.1268 -1.18568e-17)
(8.02158 15.9851 9.07652e-18)
(8.15382 7.06074 2.34489e-18)
(8.19202 7.67062 -2.26668e-18)
(8.3953 8.16921 2.40799e-18)
(8.74837 8.64216 -1.73254e-19)
(9.17164 9.17435 -2.62668e-18)
(9.66043 9.80556 -1.39837e-18)
(10.2679 10.5753 1.63608e-18)
(11.1715 11.4181 4.39125e-18)
(11.9418 12.3189 5.54847e-18)
(9.27249 15.347 -5.63309e-21)
(-5.68207 7.73767 -1.35189e-18)
(-6.0715 7.71545 1.11287e-18)
(-6.4273 7.90701 -5.23917e-19)
(-6.80682 8.2315 1.21645e-18)
(-7.23711 8.6132 1.09402e-18)
(-7.7239 9.04049 1.89886e-18)
(-8.28956 9.56451 2.85512e-18)
(-8.88249 10.4113 1.60767e-18)
(-9.71655 11.3873 2.53138e-18)
(-13.5716 9.86112 -1.64705e-18)
(-5.3667 8.13813 7.94261e-19)
(-5.69105 8.21733 9.90383e-19)
(-5.94875 8.48282 -1.56853e-18)
(-6.24726 8.84432 -8.42842e-19)
(-6.61687 9.25257 -1.6277e-18)
(-7.05539 9.71137 3.20685e-18)
(-7.57599 10.2781 -1.50232e-18)
(-8.10776 11.1745 -3.64472e-18)
(-8.87448 12.2148 -2.86856e-18)
(-12.8296 10.9508 4.16721e-18)
(-4.81645 8.47428 -2.24754e-19)
(-5.13585 8.65874 2.09207e-19)
(-5.36886 8.98361 -2.17857e-18)
(-5.62958 9.38065 1.49874e-18)
(-5.95331 9.82152 1.37188e-18)
(-6.34376 10.3182 -9.88865e-19)
(-6.81414 10.9315 9.60632e-21)
(-7.278 11.8774 6.09716e-18)
(-7.96893 12.9778 9.08917e-19)
(-12.0003 11.9796 -3.33901e-18)
(-4.18634 8.79884 -1.90118e-18)
(-4.48312 9.04651 1.31027e-18)
(-4.69711 9.4116 -3.18319e-19)
(-4.9357 9.84213 1.0345e-18)
(-5.22756 10.3195 -2.9483e-18)
(-5.57753 10.858 -1.08015e-20)
(-5.99896 11.52 5.95793e-19)
(-6.39211 12.5143 -1.84345e-19)
(-7.00184 13.6699 -3.60092e-19)
(-11.0882 12.941 3.98956e-18)
(-3.54399 9.11314 1.56249e-18)
(-3.79951 9.40102 8.32218e-20)
(-3.97971 9.79181 -1.05056e-18)
(-4.18848 10.247 -2.92476e-21)
(-4.44687 10.7556 2.25494e-19)
(-4.75741 11.3329 -2.06887e-18)
(-5.13 12.0416 5.99465e-19)
(-5.4506 13.0809 -5.54813e-19)
(-5.9755 14.2856 -7.33881e-20)
(-10.097 13.8274 -5.06385e-18)
(-2.87099 9.3707 -4.54846e-20)
(-3.08451 9.69902 1.32542e-18)
(-3.22871 10.1153 -1.27853e-18)
(-3.40308 10.5935 1.38293e-19)
(-3.62334 11.1301 -2.74626e-19)
(-3.89101 11.7424 1.77061e-18)
(-4.21181 12.4942 3.6009e-19)
(-4.45684 13.5734 2.66762e-19)
(-4.89327 14.8197 1.49575e-18)
(-9.03154 14.6322 1.02972e-18)
(-2.17145 9.59806 -8.4258e-19)
(-2.34253 9.95901 1.011e-18)
(-2.451 10.3933 5.27255e-20)
(-2.58898 10.8877 1.70698e-18)
(-2.7673 11.446 -9.95424e-19)
(-2.98764 12.0874 7.53772e-19)
(-3.25192 12.8769 -7.60703e-19)
(-3.41725 13.9891 1.83681e-18)
(-3.76171 15.268 1.83729e-18)
(-7.89809 15.3492 2.02574e-18)
(-1.43089 9.74965 -5.33333e-19)
(-1.56327 10.1438 6.79357e-19)
(-1.63981 10.5997 -3.39013e-19)
(-1.74328 11.1137 -2.74054e-19)
(-1.87977 11.6943 6.62169e-19)
(-2.05116 12.363 -1.18993e-18)
(-2.25571 13.1862 -9.02227e-19)
(-2.33793 14.3245 3.22637e-18)
(-2.58703 15.6269 -6.27983e-19)
(-6.70444 15.9744 -2.395e-18)
(-0.682145 9.88052 -5.24474e-19)
(-0.77081 10.2914 1.24214e-19)
(-0.811114 10.7564 8.99449e-20)
(-0.876373 11.2812 6.29731e-21)
(-0.96814 11.8774 -4.38925e-19)
(-1.08777 12.5681 1.45428e-18)
(-1.22922 13.4197 -1.43147e-18)
(-1.22551 14.5767 -1.94072e-19)
(-1.37783 15.8929 4.01362e-20)
(-5.45781 16.5031 -1.81053e-18)
(0.0999158 9.91313 1.62647e-19)
(0.0494874 10.3491 3.0833e-20)
(0.0426065 10.832 -6.50338e-20)
(0.0144317 11.373 -9.72241e-20)
(-0.0330401 11.9864 -2.83205e-19)
(-0.100363 12.6975 2.15962e-19)
(-0.176953 13.5733 1.4791e-19)
(-0.0857297 14.7419 2.78496e-19)
(-0.139378 16.0632 -3.59546e-19)
(-4.16725 16.9329 3.56298e-19)
(-5.76291 7.07048 -1.40467e-18)
(-6.63886 6.02928 6.42815e-19)
(-6.95589 5.37451 -3.08766e-19)
(-7.6347 4.56549 -7.96404e-19)
(-7.91874 3.89283 -4.95033e-19)
(-8.37265 3.12092 -2.71546e-20)
(-8.58168 2.39333 -2.84092e-19)
(-8.87002 1.6122 -1.09013e-19)
(-8.99977 0.852305 -1.13004e-19)
(-9.14943 0.072904 5.30727e-20)
(-6.40196 7.08512 -1.0646e-18)
(-7.06237 6.23386 -7.37383e-19)
(-7.44873 5.53078 -1.10169e-18)
(-8.02173 4.73778 1.67721e-19)
(-8.34816 4.03246 4.49252e-19)
(-8.76104 3.25433 6.90654e-19)
(-8.99943 2.50422 -2.75371e-19)
(-9.26811 1.70929 9.14235e-19)
(-9.41185 0.92611 1.00988e-19)
(-9.54638 0.124645 -8.29728e-20)
(-6.91052 7.24443 3.05825e-18)
(-7.47224 6.50153 -3.87523e-19)
(-7.92442 5.77421 1.75427e-18)
(-8.43341 4.98788 4.53737e-19)
(-8.80431 4.23879 -1.79729e-18)
(-9.19208 3.44021 -1.03532e-18)
(-9.46158 2.65472 -4.35592e-19)
(-9.72001 1.83455 2.04638e-19)
(-9.88105 1.01909 -4.59296e-19)
(-10.009 0.187601 6.17791e-20)
(-7.36458 7.54599 7.40113e-19)
(-7.91538 6.81672 1.68577e-18)
(-8.41094 6.06566 1.17154e-19)
(-8.89787 5.27176 8.00957e-19)
(-9.30116 4.48002 1.1693e-18)
(-9.67991 3.65316 1.16852e-19)
(-9.97395 2.82581 8.26933e-19)
(-10.23 1.97219 3.7589e-19)
(-10.4061 1.11697 5.69529e-19)
(-10.5326 0.248122 -8.12887e-20)
(-7.83648 7.90949 2.63445e-18)
(-8.40354 7.16304 -3.0589e-18)
(-8.92721 6.38394 -2.89877e-19)
(-9.41447 5.57027 4.1013e-19)
(-9.83956 4.73997 -5.42404e-19)
(-10.2198 3.8815 -9.76907e-19)
(-10.5312 3.01211 -1.59268e-18)
(-10.79 2.12144 1.3187e-18)
(-10.9779 1.22369 -1.45017e-19)
(-11.1061 0.313854 -4.6559e-20)
(-8.35623 8.3115 -4.63488e-18)
(-8.94631 7.53683 2.65196e-18)
(-9.49114 6.72466 1.00679e-18)
(-9.98798 5.87997 1.49118e-19)
(-10.4282 5.0105 1.0264e-18)
(-10.8143 4.11545 -1.4767e-18)
(-11.1369 3.20324 -1.34842e-18)
(-11.3996 2.27203 -5.89363e-20)
(-11.5944 1.32985 2.64983e-19)
(-11.7242 0.376308 1.82567e-19)
(-8.95615 8.7965 -1.17237e-18)
(-9.57269 7.98208 -7.96054e-19)
(-10.1375 7.12839 -2.87137e-19)
(-10.6477 6.24178 1.10835e-18)
(-11.0997 5.32744 -3.27751e-18)
(-11.4924 4.38825 -1.18019e-18)
(-11.8216 3.4291 1.75489e-18)
(-12.0867 2.45176 4.26617e-19)
(-12.2839 1.46119 3.0867e-19)
(-12.4127 0.459418 -1.79109e-19)
(-9.60093 9.59388 -3.50162e-18)
(-10.2605 8.72947 -3.49122e-18)
(-10.8601 7.82477 5.7022e-18)
(-11.3988 6.88598 1.18663e-18)
(-11.8747 5.91778 4.8094e-18)
(-12.2865 4.92412 1.3356e-19)
(-12.6318 3.9088 -1.4746e-18)
(-12.9093 2.8748 1.94662e-18)
(-13.1166 1.82578 -2.8744e-20)
(-13.252 0.764849 4.52242e-19)
(-10.4908 10.5025 3.6769e-19)
(-11.1965 9.56698 5.32314e-18)
(-11.8319 8.59104 -5.39521e-18)
(-12.3986 7.57887 3.6409e-18)
(-12.8949 6.53662 -5.44791e-18)
(-13.3201 5.4681 6.87162e-19)
(-13.6727 4.37782 -1.96531e-18)
(-13.9515 3.26923 7.30142e-19)
(-14.1547 2.14618 1.14797e-19)
(-14.2801 1.01269 -2.4881e-19)
(-14.2202 8.71799 1.46679e-18)
(-14.7739 7.53457 -4.13038e-18)
(-15.238 6.31834 1.9229e-18)
(-15.6101 5.07766 -1.66737e-18)
(-15.8919 3.81885 7.21227e-19)
(-16.0823 2.54867 3.56316e-18)
(-16.1821 1.27315 4.30295e-19)
(-16.1912 -0.00167633 9.99818e-19)
(-16.1098 -1.27013 -4.87209e-19)
(-15.9365 -2.5262 -1.16769e-19)
(-9.17907 -0.686619 3.87445e-20)
(-9.18854 -1.45187 -1.79698e-19)
(-9.10473 -2.20417 9.10532e-19)
(-8.98752 -2.95223 -5.89442e-19)
(-8.79982 -3.67851 4.95129e-20)
(-8.56991 -4.3773 -5.104e-19)
(-8.26148 -5.04011 2.3833e-18)
(-7.88753 -5.69168 2.17042e-19)
(-7.49566 -6.313 -7.20681e-19)
(-7.14945 -6.73325 1.45178e-18)
(-9.57987 -0.665582 1.79647e-19)
(-9.57836 -1.46047 -4.56106e-19)
(-9.49227 -2.24549 -3.8424e-19)
(-9.36069 -3.02511 -2.79724e-19)
(-9.15688 -3.78598 -7.60558e-19)
(-8.90178 -4.52289 -8.09935e-20)
(-8.57601 -5.23078 -1.29218e-19)
(-8.18225 -5.91985 7.61073e-19)
(-7.71515 -6.5666 1.5774e-18)
(-7.21951 -7.10333 -1.36474e-19)
(-10.0508 -0.638131 -1.32941e-19)
(-10.0447 -1.46725 1.02954e-18)
(-9.9612 -2.28774 1.84235e-19)
(-9.82318 -3.10077 -6.54087e-20)
(-9.61392 -3.89616 8.63557e-19)
(-9.34691 -4.67042 4.07903e-19)
(-9.01233 -5.41931 7.97235e-19)
(-8.61118 -6.14016 -5.24989e-19)
(-8.12844 -6.81491 -1.40499e-18)
(-7.57488 -7.43468 -3.27396e-18)
(-10.5822 -0.619128 1.86854e-19)
(-10.5736 -1.48903 -4.94264e-19)
(-10.4912 -2.35165 6.23567e-19)
(-10.3467 -3.20588 -1.50315e-18)
(-10.131 -4.04363 -7.99406e-19)
(-9.85171 -4.86167 -3.16204e-19)
(-9.50373 -5.65432 -1.76886e-18)
(-9.0878 -6.41377 -7.13859e-19)
(-8.59418 -7.13003 3.58305e-21)
(-8.02307 -7.81034 1.1064e-18)
(-11.1619 -0.597874 1.17827e-19)
(-11.1523 -1.51208 2.91343e-20)
(-11.0699 -2.42076 4.5825e-19)
(-10.9194 -3.32126 1.39774e-18)
(-10.6964 -4.20685 -2.53867e-19)
(-10.4042 -5.07356 -2.02342e-18)
(-10.0401 -5.91462 3.25363e-18)
(-9.60439 -6.7222 -9.56973e-19)
(-9.09325 -7.49144 -8.36811e-19)
(-8.50708 -8.22816 -3.49697e-19)
(-11.7828 -0.581752 -3.21662e-19)
(-11.7714 -1.54239 3.21675e-19)
(-11.6864 -2.4991 8.5046e-19)
(-11.5291 -3.44822 -7.89047e-19)
(-11.2974 -4.3838 1.76283e-18)
(-10.992 -5.301 -2.02113e-19)
(-10.6111 -6.19303 1.77457e-19)
(-10.1551 -7.05359 9.24257e-19)
(-9.62318 -7.8795 5.84944e-19)
(-9.01738 -8.67207 2.98078e-19)
(-12.4696 -0.548544 6.21611e-20)
(-12.4532 -1.55903 -6.43218e-20)
(-12.3617 -2.56662 1.56979e-18)
(-12.1947 -3.5669 -1.86122e-18)
(-11.9511 -4.55436 -3.07859e-18)
(-11.6305 -5.52365 1.64513e-18)
(-11.2319 -6.46852 -7.91976e-19)
(-10.7553 -7.38383 8.31612e-19)
(-10.2017 -8.26641 2.23596e-18)
(-9.57326 -9.11441 -2.19797e-18)
(-13.3127 -0.303368 -8.99876e-20)
(-13.2964 -1.37384 -1.30518e-18)
(-13.2022 -2.44173 1.68028e-18)
(-13.0294 -3.50222 8.49012e-19)
(-12.7771 -4.54993 -2.79908e-18)
(-12.4448 -5.57933 -2.13709e-18)
(-12.0322 -6.58473 -2.66894e-19)
(-11.5397 -7.56161 1.15581e-19)
(-10.9685 -8.50647 5.99185e-19)
(-10.3206 -9.41582 -8.26232e-19)
(-14.3246 -0.125307 1.33847e-19)
(-14.2865 -1.26324 1.99624e-18)
(-14.1664 -2.39438 7.15365e-19)
(-13.9634 -3.51486 -2.46927e-18)
(-13.6777 -4.61852 2.3111e-18)
(-13.3091 -5.70014 -3.02324e-18)
(-12.8585 -6.75434 3.70442e-18)
(-12.3272 -7.77711 -4.19839e-18)
(-11.7169 -8.7647 -2.20029e-18)
(-11.0296 -9.71247 -6.1087e-18)
(-15.6693 -3.76255 -4.76542e-20)
(-15.3105 -4.97061 -7.32038e-19)
(-14.8635 -6.14709 5.62028e-19)
(-14.3293 -7.28417 5.95359e-19)
(-13.7105 -8.3766 -1.29974e-18)
(-13.0094 -9.41771 1.20827e-18)
(-12.2301 -10.4025 -1.58406e-18)
(-11.3771 -11.3264 1.21159e-18)
(-10.4549 -12.1856 -2.98842e-18)
(-9.46725 -12.9747 3.27811e-18)
(-8.41836 -13.6862 4.77121e-18)
(-10.2686 -10.6133 -2.62734e-18)
(-9.59865 -10.2843 -2.13906e-18)
(-8.87274 -9.92382 2.70554e-18)
(-8.34051 -9.42979 -9.20015e-20)
(-7.84968 -8.93703 2.14991e-18)
(-7.38237 -8.47245 1.10995e-19)
(-6.9618 -8.03918 -1.40179e-18)
(-6.66563 -7.60138 2.15501e-18)
(-6.61274 -7.06928 -3.85902e-19)
(-7.31863 -14.3163 -5.13465e-18)
(-9.43615 -11.462 1.01178e-17)
(-8.80617 -11.1044 -6.09092e-19)
(-8.10424 -10.6878 -2.30494e-18)
(-7.59921 -10.1454 1.52307e-18)
(-7.13376 -9.60774 -2.95534e-18)
(-6.69088 -9.10349 2.93437e-18)
(-6.28931 -8.64076 -1.92526e-18)
(-5.96361 -8.21076 4.97884e-19)
(-5.79552 -7.74547 1.05999e-18)
(-6.17314 -14.8694 3.1046e-18)
(-8.54 -12.2551 -6.11986e-18)
(-7.94788 -11.8722 2.12043e-18)
(-7.27309 -11.4013 -8.80774e-19)
(-6.79981 -10.8133 1.34321e-18)
(-6.36589 -10.2336 -8.51573e-19)
(-5.95397 -9.69012 -7.29295e-19)
(-5.58149 -9.18748 7.20985e-19)
(-5.27694 -8.71333 -1.43953e-18)
(-5.11479 -8.2201 1.58898e-18)
(-4.9883 -15.3402 -6.53972e-18)
(-7.58158 -12.9886 6.86049e-19)
(-7.0278 -12.5815 1.97166e-18)
(-6.38439 -12.0574 2.01979e-18)
(-5.94768 -11.4265 -3.07332e-18)
(-5.54949 -10.8089 2.08494e-19)
(-5.16967 -10.2349 -1.00027e-18)
(-4.82232 -9.71425 -1.7863e-18)
(-4.52419 -9.24696 3.25779e-18)
(-4.33525 -8.8009 6.93971e-19)
(-3.769 -15.7286 4.72218e-18)
(-6.56576 -13.6576 8.0853e-19)
(-6.0504 -13.2271 2.53956e-18)
(-5.44316 -12.6506 -1.01261e-19)
(-5.04823 -11.9785 2.35528e-18)
(-4.69207 -11.3241 9.8628e-19)
(-4.35368 -10.717 1.90865e-18)
(-4.04811 -10.1651 -1.70672e-18)
(-3.7879 -9.66672 -8.18074e-20)
(-3.61649 -9.1981 -1.02056e-18)
(-2.521 -16.0306 3.20597e-18)
(-5.49559 -14.2566 -2.70736e-18)
(-5.02001 -13.8026 -4.1454e-19)
(-4.45425 -13.1747 -6.40697e-19)
(-4.10571 -12.4643 -6.1764e-19)
(-3.79501 -11.7777 -6.67189e-19)
(-3.49906 -11.145 9.45425e-19)
(-3.23136 -10.5766 -1.00827e-18)
(-2.99704 -10.074 8.77267e-19)
(-2.8272 -9.61943 5.22727e-20)
(-1.24985 -16.2448 -5.66054e-18)
(-4.37593 -14.78 -1.87552e-18)
(-3.94178 -14.3024 3.02371e-18)
(-3.42342 -13.6242 -8.94268e-19)
(-3.12661 -12.8782 1.07287e-18)
(-2.86697 -12.1616 -2.69245e-18)
(-2.62023 -11.5028 1.85906e-18)
(-2.39906 -10.9108 -5.68883e-19)
(-2.2032 -10.385 7.98245e-19)
(-2.05501 -9.90863 -8.1256e-19)
(0.0384941 -16.3683 2.60485e-18)
(-3.21126 -15.2219 -7.72497e-19)
(-2.82107 -14.7205 -9.85468e-19)
(-2.35638 -13.9939 -3.60635e-19)
(-2.11591 -13.2163 2.23744e-19)
(-1.91021 -12.4752 4.45697e-19)
(-1.71309 -11.798 -7.76425e-19)
(-1.53492 -11.1945 4.4881e-19)
(-1.37024 -10.6644 1.0496e-18)
(-1.23813 -10.1933 -8.1403e-19)
(1.33792 -16.3986 1.98044e-18)
(-2.00729 -15.5766 -3.7231e-20)
(-1.66417 -15.0514 1.50673e-18)
(-1.26001 -14.2792 -1.15238e-18)
(-1.08116 -13.4739 3.02843e-19)
(-0.934039 -12.7118 -3.07592e-19)
(-0.791318 -12.0183 -1.27903e-19)
(-0.661383 -11.4017 -6.26484e-19)
(-0.535285 -10.8598 6.21461e-19)
(-0.433842 -10.3786 4.31444e-19)
(2.64148 -16.331 -3.84081e-19)
(-0.770663 -15.8375 -2.46243e-19)
(-0.477993 -15.29 -1.64747e-19)
(-0.141038 -14.4761 -4.97618e-19)
(-0.0281694 -13.6482 4.33501e-19)
(0.057765 -12.8712 1.0869e-19)
(0.145073 -12.1682 -2.56581e-19)
(0.227701 -11.5474 2.03928e-20)
(0.31666 -11.0066 -9.98929e-20)
(0.385475 -10.5348 3.57293e-21)
(0.756559 -9.23066 -8.27676e-21)
(0.187633 -6.53977 -1.36005e-21)
(0.159119 -4.58601 4.21685e-21)
(0.408754 -3.37399 -1.70497e-21)
(0.452042 -2.38795 -1.17754e-22)
(0.503186 -1.69813 -4.05134e-22)
(0.536468 -1.181 1.11249e-22)
(0.561088 -0.788274 -1.40987e-22)
(0.580185 -0.490079 8.57886e-23)
(0.597251 -0.273413 3.33367e-23)
(0.615549 -0.13829 -1.20993e-22)
(0.631064 -0.0941791 4.07439e-23)
(0.629017 -0.122967 -3.56529e-23)
(0.593388 -0.173549 -1.12485e-22)
(0.523999 -0.189765 1.63362e-23)
(0.424077 -0.145572 -9.1189e-23)
(0.331117 -0.00271055 3.415e-23)
(0.310965 0.169144 4.25222e-23)
(0.391091 0.388776 -6.45214e-23)
(0.649655 0.321726 -3.42804e-23)
(1.42402 -9.31783 5.91073e-20)
(0.629308 -6.66018 1.15802e-20)
(0.365297 -4.64862 -8.23591e-21)
(0.512406 -3.41028 1.8176e-21)
(0.524811 -2.42222 -2.64064e-21)
(0.541263 -1.71482 -2.49257e-22)
(0.553956 -1.19125 -1.41931e-22)
(0.565317 -0.79504 -2.46964e-22)
(0.576309 -0.494975 1.3657e-22)
(0.588547 -0.277253 4.4113e-23)
(0.603765 -0.141164 2.02871e-23)
(0.616757 -0.0950354 2.99816e-22)
(0.612347 -0.120482 -3.77775e-22)
(0.575006 -0.167516 -1.17706e-22)
(0.50509 -0.18121 9.59282e-23)
(0.407297 -0.136768 1.28348e-22)
(0.317997 0.001863 -3.22231e-22)
(0.30384 0.166521 6.09324e-22)
(0.385161 0.376576 1.48964e-22)
(0.642957 0.312371 8.2698e-23)
(2.06726 -9.30165 -1.05917e-19)
(1.07565 -6.74064 4.82778e-20)
(0.589576 -4.71891 3.94625e-20)
(0.623399 -3.45448 -1.08988e-20)
(0.60097 -2.46126 2.7136e-22)
(0.582956 -1.73624 -2.23222e-21)
(0.573167 -1.20439 -6.12743e-23)
(0.570664 -0.803967 -4.91362e-22)
(0.573301 -0.501432 -1.58985e-22)
(0.580555 -0.28205 -1.67717e-22)
(0.592631 -0.14436 -5.44691e-23)
(0.603157 -0.0956985 2.29604e-23)
(0.596624 -0.11764 4.0397e-22)
(0.55798 -0.161321 -2.18363e-22)
(0.488015 -0.17288 -2.80156e-22)
(0.392697 -0.128559 3.46999e-22)
(0.307183 0.00569237 -1.36106e-22)
(0.298539 0.16338 -3.68963e-22)
(0.380495 0.364328 -5.27724e-22)
(0.636779 0.303113 1.37909e-22)
(2.73398 -9.28812 -3.15137e-20)
(1.54255 -6.81105 7.6344e-20)
(0.836194 -4.78233 -2.9498e-20)
(0.744013 -3.49422 -5.73154e-21)
(0.680899 -2.49904 3.65863e-21)
(0.628515 -1.76046 -2.94264e-22)
(0.594495 -1.22006 7.46164e-22)
(0.577352 -0.814979 -2.74542e-22)
(0.571321 -0.509434 5.84617e-22)
(0.573394 -0.287805 3.91017e-22)
(0.582241 -0.147902 -8.5515e-22)
(0.590349 -0.0962326 1.17942e-22)
(0.581914 -0.114532 -5.52492e-23)
(0.542321 -0.15506 3.3434e-22)
(0.472712 -0.164848 1.14601e-22)
(0.380142 -0.120967 -2.51858e-22)
(0.298476 0.00881434 -2.85789e-22)
(0.294837 0.159795 -7.92798e-22)
(0.376922 0.352098 8.05257e-22)
(0.631072 0.29398 -2.86135e-22)
(3.38249 -9.20303 1.4131e-20)
(2.02174 -6.81947 1.08653e-20)
(1.10364 -4.80483 3.5857e-21)
(0.873055 -3.5133 1.19497e-20)
(0.762779 -2.52929 5.1896e-21)
(0.677119 -1.78533 3.61151e-21)
(0.618028 -1.23767 -1.52917e-21)
(0.585533 -0.827862 4.5099e-22)
(0.570502 -0.518912 3.39176e-22)
(0.567171 -0.294501 4.74592e-22)
(0.572679 -0.151817 -1.1856e-22)
(0.578409 -0.0967033 -7.39863e-22)
(0.568265 -0.111245 -1.08971e-22)
(0.528019 -0.148816 5.57925e-22)
(0.459089 -0.157167 5.62408e-22)
(0.369479 -0.114004 -3.62318e-22)
(0.291674 0.0112745 1.12133e-21)
(0.292528 0.155837 2.47325e-22)
(0.374295 0.339948 2.4944e-22)
(0.625792 0.284999 -1.349e-23)
(4.03953 -9.06367 -2.85419e-19)
(2.51936 -6.7551 -3.69741e-20)
(1.38674 -4.78628 1.78271e-20)
(1.00591 -3.52185 -3.17363e-20)
(0.843487 -2.55975 -1.33009e-20)
(0.727404 -1.81353 -1.08065e-20)
(0.643655 -1.25766 1.8048e-21)
(0.59529 -0.842501 5.1624e-22)
(0.570938 -0.529748 -9.24093e-22)
(0.561969 -0.302085 -4.2975e-22)
(0.564015 -0.156112 -2.32232e-22)
(0.567392 -0.0971659 7.36135e-22)
(0.555704 -0.107859 -3.15528e-22)
(0.515044 -0.142662 -3.92585e-22)
(0.447038 -0.149883 -3.47916e-22)
(0.36053 -0.107669 6.35894e-22)
(0.286574 0.0131259 9.68565e-23)
(0.291428 0.151584 4.53956e-22)
(0.372492 0.327932 -4.89572e-22)
(0.620906 0.27619 9.9505e-23)
(4.6866 -8.83375 2.92363e-19)
(3.02034 -6.68584 8.47452e-20)
(1.67867 -4.81446 -9.88705e-22)
(1.14198 -3.57921 4.13032e-20)
(0.923857 -2.62084 -1.23049e-20)
(0.779993 -1.85649 1.19016e-21)
(0.67188 -1.28344 5.44377e-21)
(0.606816 -0.85975 -6.25294e-22)
(0.57271 -0.542135 -2.55694e-21)
(0.557848 -0.310598 1.46583e-22)
(0.556298 -0.160821 -5.41064e-22)