/*--------------------------------*- C++ -*----------------------------------*\
  =========                 |
  \\      /  F ield         | OpenFOAM: The Open Source CFD Toolbox
   \\    /   O peration     | Website:  https://openfoam.org
    \\  /    A nd           | Version:  6.0
     \\/     M anipulation  |
\*---------------------------------------------------------------------------*/
FoamFile
{
    version     2.0;
    format      ascii;
    class       volScalarField;
    location    "25";
    object      p;
}
// * * * * * * * * * * * * * * * * * * * * * * * * * * * * * * * * * * * * * //

dimensions      [0 2 -2 0 0 0 0];

internalField   nonuniform List<scalar> 
19200
(
-7.20985
-6.34432
-5.75108
-5.29036
-4.88448
-4.5276
-4.21212
-3.9295
-3.67374
-3.44051
-3.2265
-3.02911
-2.84629
-2.67641
-2.51811
-2.37029
-2.23199
-2.10243
-1.98089
-1.86678
-1.75954
-1.65871
-1.56384
-1.47455
-1.39049
-1.31135
-1.23684
-1.16669
-1.10066
-1.03867
-7.38859
-6.5224
-5.9269
-5.46271
-5.0527
-4.69128
-4.37101
-4.08348
-3.82278
-3.58465
-3.36581
-3.16372
-2.97634
-2.80206
-2.63953
-2.48765
-2.34548
-2.21222
-2.08717
-1.96971
-1.8593
-1.75545
-1.65773
-1.56574
-1.47912
-1.39755
-1.32074
-1.2484
-1.18023
-1.11648
-7.57194
-6.70357
-6.10526
-5.6374
-5.2231
-4.85699
-4.5318
-4.23923
-3.97347
-3.73031
-3.50654
-3.29964
-3.1076
-2.92882
-2.76197
-2.60595
-2.45984
-2.32281
-2.19418
-2.07332
-1.95968
-1.85277
-1.75215
-1.65741
-1.56819
-1.48416
-1.40503
-1.33046
-1.26012
-1.1946
-7.75823
-6.8874
-6.28598
-5.81427
-5.39552
-5.02457
-4.69432
-4.39659
-4.12563
-3.87734
-3.64852
-3.4367
-3.2399
-3.05652
-2.88527
-2.72504
-2.57489
-2.43404
-2.30176
-2.17745
-2.06053
-1.95052
-1.84696
-1.74943
-1.65757
-1.57105
-1.48957
-1.41274
-1.3402
-1.27291
-7.94707
-7.07361
-6.46888
-5.99314
-5.56978
-5.19385
-4.8584
-4.55537
-4.27911
-4.02555
-3.79158
-3.57473
-3.37307
-3.18501
-3.00927
-2.84474
-2.6905
-2.54575
-2.40978
-2.28195
-2.16171
-2.04856
-1.94201
-1.84167
-1.74715
-1.65811
-1.57424
-1.49513
-1.42037
-1.3513
-8.13812
-7.26196
-6.65375
-6.17382
-5.7457
-5.36466
-5.02388
-4.71542
-4.43372
-4.17479
-3.93554
-3.71357
-3.50695
-3.31412
-3.1338
-2.96491
-2.80651
-2.6578
-2.51807
-2.38669
-2.26309
-2.14674
-2.03719
-1.934
-1.83679
-1.7452
-1.65893
-1.57751
-1.50051
-1.42965
-8.33113
-7.4522
-6.84039
-6.35613
-5.92312
-5.53681
-5.19056
-4.87655
-4.5893
-4.32487
-4.08024
-3.85304
-3.64137
-3.44368
-3.25871
-3.08537
-2.92275
-2.77003
-2.6265
-2.49151
-2.3645
-2.24494
-2.13235
-2.02629
-1.92636
-1.83221
-1.74351
-1.65977
-1.58051
-1.50786
-8.52586
-7.64411
-7.02859
-6.53987
-6.10182
-5.71012
-5.35828
-5.03859
-4.74565
-4.47562
-4.22551
-3.99297
-3.77615
-3.57352
-3.38382
-3.20598
-3.03907
-2.88228
-2.7349
-2.59628
-2.46583
-2.34302
-2.22736
-2.1184
-2.01574
-1.91901
-1.82787
-1.74179
-1.66026
-1.58584
-8.72207
-7.83745
-7.21812
-6.72483
-6.28163
-5.88441
-5.52684
-5.20135
-4.90261
-4.62685
-4.37115
-4.13319
-3.91113
-3.70348
-3.50898
-3.32656
-3.15531
-2.99441
-2.84313
-2.70083
-2.56691
-2.44083
-2.32209
-2.21022
-2.10481
-2.00549
-1.91191
-1.82347
-1.73966
-1.66348
-8.91954
-8.03202
-7.40879
-6.91081
-6.46233
-6.05946
-5.69605
-5.36463
-5.05998
-4.77839
-4.51699
-4.2735
-4.04613
-3.83337
-3.634
-3.44695
-3.2713
-3.10624
-2.95104
-2.80504
-2.66763
-2.53825
-2.41641
-2.30162
-2.19346
-2.09154
-1.9955
-1.90471
-1.81861
-1.74068
-9.11804
-8.22758
-7.60038
-7.0976
-6.64373
-6.23509
-5.86571
-5.52824
-5.21756
-4.93003
-4.66284
-4.41374
-4.18096
-3.96303
-3.75873
-3.56699
-3.3869
-3.21765
-3.05848
-2.90875
-2.76782
-2.63515
-2.51019
-2.39248
-2.28155
-2.17704
-2.07855
-1.9854
-1.89702
-1.81735
-9.31736
-8.42393
-7.79268
-7.285
-6.82561
-6.41109
-6.03563
-5.69199
-5.37518
-5.08161
-4.80852
-4.55372
-4.31546
-4.09229
-3.88299
-3.68652
-3.50195
-3.32846
-3.16531
-3.01182
-2.86737
-2.73138
-2.60331
-2.48267
-2.36899
-2.26188
-2.16095
-2.06545
-1.97479
-1.89341
-9.51728
-8.62084
-7.98546
-7.47279
-7.00778
-6.58726
-6.20559
-5.85568
-5.53262
-5.23291
-4.95384
-4.69326
-4.44945
-4.22097
-4.00663
-3.80537
-3.61628
-3.43852
-3.27137
-3.11411
-2.96613
-2.82682
-2.69564
-2.57207
-2.45564
-2.34595
-2.24259
-2.14474
-2.05182
-1.96876
-9.71756
-8.81809
-8.17852
-7.66075
-7.19002
-6.76339
-6.37541
-6.01912
-5.68971
-5.38376
-5.09862
-4.83218
-4.58274
-4.3489
-4.12946
-3.92338
-3.72973
-3.5477
-3.37651
-3.21548
-3.06396
-2.92133
-2.78704
-2.66056
-2.5414
-2.42914
-2.32336
-2.2232
-2.12801
-2.04332
-9.918
-9.01548
-8.37164
-7.84869
-7.37214
-6.93929
-6.54488
-6.1821
-5.84624
-5.53396
-5.24267
-4.97029
-4.71517
-4.47591
-4.25133
-4.04039
-3.84217
-3.65583
-3.48061
-3.31579
-3.16073
-3.01479
-2.87741
-2.74803
-2.62615
-2.51134
-2.40316
-2.3007
-2.20328
-2.11698
-10.1184
-9.21279
-8.56461
-8.0364
-7.55391
-7.11473
-6.7138
-6.34443
-6.00203
-5.68333
-5.38581
-5.10743
-4.84657
-4.60184
-4.37208
-4.15625
-3.95343
-3.76277
-3.5835
-3.41491
-3.2563
-3.10707
-2.9666
-2.83433
-2.70975
-2.59243
-2.48188
-2.37714
-2.27751
-2.18966
-10.3185
-9.4098
-8.75723
-8.22365
-7.73514
-7.28953
-6.88197
-6.50591
-6.15688
-5.83168
-5.52786
-5.24342
-4.97676
-4.72652
-4.49155
-4.2708
-4.06336
-3.86837
-3.68506
-3.51268
-3.35055
-3.19802
-3.05448
-2.91936
-2.79211
-2.67228
-2.5594
-2.45241
-2.3506
-2.26124
-10.5181
-9.60632
-8.94929
-8.41026
-7.91562
-7.46349
-7.04919
-6.66636
-6.3106
-5.97884
-5.66864
-5.37808
-5.10558
-4.8498
-4.60958
-4.3839
-4.17182
-3.9725
-3.78513
-3.60898
-3.44333
-3.28752
-3.14093
-3.00297
-2.87307
-2.75077
-2.63559
-2.52639
-2.42243
-2.33161
-10.7171
-9.80213
-9.14058
-8.59601
-8.09515
-7.63639
-7.21527
-6.82557
-6.46302
-6.12461
-5.80798
-5.51126
-5.23287
-4.97151
-4.72603
-4.49539
-4.27868
-4.07502
-3.8836
-3.70367
-3.53451
-3.37544
-3.22582
-3.08503
-2.95251
-2.82777
-2.71031
-2.59893
-2.49285
-2.40062
-10.9151
-9.99706
-9.3309
-8.78071
-8.27353
-7.80804
-7.38001
-6.98336
-6.61394
-6.26882
-5.94572
-5.64277
-5.35847
-5.09151
-4.84075
-4.60515
-4.38379
-4.17579
-3.98033
-3.79663
-3.62397
-3.46165
-3.309
-3.16541
-3.03028
-2.90313
-2.78342
-2.66989
-2.56171
-2.46812
-11.1122
-10.1909
-9.52008
-8.96416
-8.45055
-7.97826
-7.54322
-7.13955
-6.76319
-6.41131
-6.08167
-5.77249
-5.48224
-5.20966
-4.9536
-4.71304
-4.48703
-4.2747
-4.07519
-3.88774
-3.71158
-3.54601
-3.39036
-3.24397
-3.10624
-2.97669
-2.85476
-2.73909
-2.62882
-2.53391
-11.308
-10.3835
-9.7079
-9.14616
-8.62604
-8.14683
-7.70472
-7.29394
-6.91059
-6.5519
-6.2157
-5.90024
-5.60404
-5.32582
-5.06447
-4.81895
-4.5883
-4.37163
-4.16809
-3.97688
-3.79723
-3.62842
-3.46976
-3.32057
-3.18025
-3.04829
-2.92413
-2.80634
-2.69396
-2.59774
-11.5025
-10.5747
-9.8942
-9.32652
-8.79977
-8.31357
-7.8643
-7.44637
-7.05597
-6.69043
-6.34765
-6.02589
-5.72372
-5.43988
-5.17324
-4.92276
-4.68748
-4.46649
-4.25892
-4.06397
-3.88083
-3.70877
-3.54709
-3.39509
-3.25215
-3.11777
-2.99136
-2.87142
-2.75689
-2.65933
-11.6956
-10.7642
-10.0788
-9.50503
-8.97156
-8.47828
-8.02179
-7.59664
-7.19916
-6.82675
-6.47736
-6.14931
-5.84118
-5.55172
-5.2798
-5.02438
-4.78449
-4.5592
-4.34762
-4.14892
-3.9623
-3.78699
-3.62226
-3.46742
-3.32183
-3.18497
-3.05626
-2.9341
-2.81732
-2.71836
-11.8873
-10.9521
-10.2614
-9.68149
-9.14119
-8.64075
-8.17698
-7.74459
-7.34
-6.9607
-6.60471
-6.27037
-5.95629
-5.66123
-5.38407
-5.12374
-4.87926
-4.64969
-4.43413
-4.2317
-4.0416
-3.86302
-3.69523
-3.53751
-3.3892
-3.24977
-3.11865
-2.99414
-2.87493
-2.77442
-12.0774
-11.138
-10.4419
-9.85567
-9.30844
-8.80078
-8.3297
-7.89004
-7.47832
-7.09214
-6.72955
-6.38895
-6.06896
-5.76834
-5.48596
-5.22077
-4.97175
-4.73795
-4.51843
-4.3123
-4.11873
-3.93688
-3.766
-3.60535
-3.45423
-3.31212
-3.17843
-3.05137
-2.92944
-2.82696
-12.2663
-11.3219
-10.62
-10.0273
-9.47308
-8.95816
-8.47974
-8.0328
-7.61398
-7.22093
-6.85178
-6.50495
-6.17908
-5.87295
-5.58543
-5.31543
-5.06193
-4.82394
-4.60052
-4.39074
-4.19373
-4.00864
-3.83466
-3.67104
-3.51704
-3.37213
-3.23571
-3.10588
-2.98073
-2.87544
-12.455
-11.5037
-10.7954
-10.1961
-9.6348
-9.11261
-8.62687
-8.17268
-7.74678
-7.3469
-6.97123
-6.61823
-6.28656
-5.97499
-5.68239
-5.40766
-5.14976
-4.90768
-4.68043
-4.46707
-4.26669
-4.0784
-3.90136
-3.73475
-3.57781
-3.42996
-3.2906
-3.15757
-3.0283
-2.91947
-12.6446
-11.6832
-10.9675
-10.3615
-9.79325
-9.26388
-8.77088
-8.3095
-7.87657
-7.46993
-7.0878
-6.7287
-6.3913
-6.07437
-5.77678
-5.49742
-5.23523
-4.98915
-4.75819
-4.54137
-4.33773
-4.14636
-3.96636
-3.79685
-3.63698
-3.48606
-3.34323
-3.2058
-3.07082
-2.9583
-12.8277
-11.8573
-11.1352
-10.5231
-9.94831
-9.41195
-8.91179
-8.44328
-8.00338
-7.59003
-7.20152
-6.83639
-6.49333
-6.17115
-5.86867
-5.58478
-5.31839
-5.06844
-4.83391
-4.61377
-4.40706
-4.21283
-4.03015
-3.85812
-3.69584
-3.54242
-3.39651
-3.25516
-3.11662
-2.9992
-15.8692
-15.8504
-15.8221
-15.7894
-15.7515
-15.7077
-15.6577
-15.6016
-15.5394
-15.471
-15.3966
-15.3161
-15.2296
-15.1373
-15.0392
-14.9354
-14.8261
-14.7114
-14.5915
-14.4664
-14.3364
-14.2016
-14.0621
-13.9182
-13.7701
-13.6179
-13.462
-13.3029
-13.141
-12.9792
-14.8341
-14.8201
-14.7976
-14.7688
-14.7338
-14.6923
-14.6446
-14.5907
-14.5306
-14.4643
-14.392
-14.3137
-14.2295
-14.1396
-14.0439
-13.9426
-13.8358
-13.7237
-13.6064
-13.4841
-13.3568
-13.2247
-13.0881
-12.9471
-12.8018
-12.6525
-12.4995
-12.343
-12.1833
-12.021
-13.9933
-13.983
-13.9651
-13.9403
-13.909
-13.8712
-13.8272
-13.7769
-13.7205
-13.658
-13.5895
-13.5152
-13.4349
-13.349
-13.2574
-13.1603
-13.0578
-12.9501
-12.8371
-12.7192
-12.5964
-12.4688
-12.3367
-12.2002
-12.0594
-11.9146
-11.766
-11.6136
-11.4577
-11.2983
-13.2314
-13.2244
-13.2106
-13.1899
-13.1628
-13.1294
-13.0898
-13.044
-12.9921
-12.9343
-12.8706
-12.801
-12.7258
-12.6449
-12.5584
-12.4666
-12.3694
-12.2669
-12.1595
-12.047
-11.9298
-11.8078
-11.6813
-11.5504
-11.4153
-11.2761
-11.133
-10.9861
-10.8354
-10.6812
-12.4919
-12.4884
-12.4783
-12.4618
-12.4391
-12.4101
-12.3751
-12.334
-12.287
-12.2342
-12.1756
-12.1114
-12.0415
-11.9661
-11.8852
-11.7991
-11.7077
-11.6112
-11.5098
-11.4034
-11.2923
-11.1766
-11.0564
-10.9318
-10.803
-10.6701
-10.5333
-10.3926
-10.2482
-10.1001
-11.7865
-11.7861
-11.7797
-11.7671
-11.7484
-11.7237
-11.6932
-11.6568
-11.6147
-11.5669
-11.5134
-11.4545
-11.3901
-11.3203
-11.2452
-11.1649
-11.0796
-10.9892
-10.894
-10.7939
-10.6892
-10.58
-10.4664
-10.3484
-10.2263
-10.1001
-9.96993
-9.83596
-9.69826
-9.55695
-11.1201
-11.1226
-11.1194
-11.1102
-11.0952
-11.0745
-11.0482
-11.0162
-10.9786
-10.9356
-10.8871
-10.8333
-10.7742
-10.7098
-10.6404
-10.5659
-10.4865
-10.4022
-10.3131
-10.2194
-10.1211
-10.0184
-9.91131
-9.80002
-9.68461
-9.56521
-9.44191
-9.31483
-9.18406
-9.04972
-10.4931
-10.498
-10.4974
-10.4913
-10.4796
-10.4624
-10.4398
-10.4117
-10.3784
-10.3397
-10.2958
-10.2468
-10.1927
-10.1335
-10.0694
-10.0004
-9.92664
-9.84815
-9.76505
-9.67741
-9.58535
-9.48895
-9.38833
-9.28358
-9.1748
-9.0621
-8.94558
-8.82535
-8.70149
-8.57413
-9.90538
-9.91224
-9.91392
-9.91029
-9.90135
-9.88718
-9.86781
-9.84328
-9.81363
-9.77892
-9.7392
-9.69452
-9.64494
-9.59053
-9.53136
-9.46748
-9.39899
-9.32596
-9.24846
-9.16659
-9.08043
-8.99006
-8.8956
-8.79712
-8.69472
-8.5885
-8.47855
-8.36497
-8.24786
-8.12732
-9.35653
-9.3649
-9.36835
-9.36674
-9.3601
-9.34846
-9.33186
-9.31033
-9.28392
-9.25267
-9.21662
-9.17582
-9.13033
-9.08021
-9.02552
-8.96632
-8.90268
-8.83468
-8.76238
-8.68586
-8.6052
-8.5205
-8.43182
-8.33926
-8.2429
-8.14284
-8.03915
-7.93194
-7.8213
-7.70732
-8.84545
-8.85491
-8.8597
-8.85968
-8.85486
-8.84529
-8.831
-8.81201
-8.78836
-8.76008
-8.72723
-8.68984
-8.64797
-8.60167
-8.55099
-8.496
-8.43675
-8.37331
-8.30576
-8.23415
-8.15857
-8.07909
-7.99579
-7.90875
-7.81804
-7.72375
-7.62597
-7.52477
-7.42024
-7.31249
-8.37055
-8.38074
-8.38648
-8.38765
-8.38425
-8.37634
-8.36392
-8.34703
-8.32569
-8.29995
-8.26985
-8.23541
-8.1967
-8.15375
-8.10663
-8.05538
-8.00007
-7.94075
-7.87748
-7.81034
-7.73939
-7.6647
-7.58633
-7.50437
-7.41889
-7.32997
-7.23768
-7.1421
-7.04331
-6.94141
-7.92993
-7.94054
-7.94691
-7.94892
-7.94659
-7.93996
-7.92904
-7.91386
-7.89445
-7.87083
-7.84305
-7.81115
-7.77517
-7.73516
-7.69115
-7.64321
-7.59139
-7.53574
-7.47633
-7.4132
-7.34644
-7.27609
-7.20223
-7.12493
-7.04425
-6.96027
-6.87306
-6.78269
-6.68924
-6.59279
-7.5215
-7.53227
-7.53899
-7.54156
-7.54
-7.53433
-7.52458
-7.51077
-7.49293
-7.47108
-7.44527
-7.41552
-7.38189
-7.34441
-7.30312
-7.25809
-7.20935
-7.15696
-7.10098
-7.04146
-6.97846
-6.91204
-6.84227
-6.7692
-6.69291
-6.61345
-6.53091
-6.44534
-6.35682
-6.26543
-7.14304
-7.15376
-7.16062
-7.16352
-7.16247
-7.15751
-7.14866
-7.13593
-7.11936
-7.09897
-7.0748
-7.04688
-7.01525
-6.97995
-6.94103
-6.89853
-6.8525
-6.803
-6.75006
-6.69376
-6.63413
-6.57125
-6.50516
-6.43593
-6.36363
-6.2883
-6.21003
-6.12886
-6.04488
-5.95816
-6.79234
-6.80286
-6.80969
-6.81272
-6.81199
-6.80752
-6.79934
-6.78745
-6.7719
-6.7527
-6.72989
-6.70351
-6.67359
-6.64017
-6.6033
-6.56301
-6.51937
-6.4724
-6.42217
-6.36873
-6.31212
-6.25241
-6.18964
-6.12388
-6.05518
-5.98361
-5.90923
-5.83209
-5.75228
-5.66985
-6.46723
-6.47743
-6.48409
-6.48711
-6.48654
-6.4824
-6.47469
-6.46346
-6.44871
-6.43048
-6.40881
-6.38372
-6.35525
-6.32345
-6.28835
-6.25
-6.20844
-6.16372
-6.11588
-6.06498
-6.01107
-5.9542
-5.89442
-5.83179
-5.76636
-5.69819
-5.62734
-5.55388
-5.47787
-5.39939
-6.16562
-6.17541
-6.1818
-6.18472
-6.18418
-6.18022
-6.17286
-6.16211
-6.148
-6.13056
-6.10982
-6.08582
-6.0586
-6.02818
-5.99462
-5.95796
-5.91823
-5.87549
-5.82978
-5.78114
-5.72964
-5.67532
-5.61822
-5.55841
-5.49593
-5.43084
-5.36321
-5.2931
-5.22057
-5.1457
-5.88553
-5.89486
-5.90092
-5.90364
-5.90305
-5.89917
-5.89203
-5.88164
-5.86804
-5.85124
-5.83128
-5.80821
-5.78204
-5.75282
-5.7206
-5.68541
-5.6473
-5.6063
-5.56248
-5.51587
-5.46652
-5.41448
-5.3598
-5.30253
-5.24272
-5.18043
-5.11572
-5.04864
-4.97928
-4.90771
-5.62512
-5.63396
-5.63964
-5.64212
-5.64141
-5.63754
-5.63053
-5.62041
-5.60719
-5.59092
-5.57161
-5.54932
-5.52406
-5.49588
-5.46483
-5.43093
-5.39425
-5.35481
-5.31266
-5.26786
-5.22044
-5.17046
-5.11795
-5.06298
-5.00559
-4.94583
-4.88376
-4.81945
-4.75296
-4.68441
-5.3827
-5.39103
-5.39631
-5.3985
-5.39762
-5.39371
-5.38677
-5.37684
-5.36393
-5.34808
-5.32933
-5.30769
-5.28322
-5.25595
-5.22592
-5.19317
-5.15775
-5.11969
-5.07905
-5.03587
-4.99019
-4.94206
-4.89152
-4.83863
-4.78342
-4.72596
-4.66629
-4.60448
-4.54062
-4.47481
-5.15671
-5.16453
-5.16939
-5.17128
-5.17021
-5.1662
-5.15929
-5.14949
-5.13682
-5.12133
-5.10304
-5.08198
-5.05819
-5.03172
-5.00259
-4.97086
-4.93656
-4.89974
-4.86045
-4.81872
-4.77461
-4.72816
-4.6794
-4.6284
-4.57518
-4.5198
-4.46231
-4.40277
-4.34127
-4.27796
-4.94573
-4.95304
-4.95749
-4.95906
-4.95778
-4.95366
-4.94674
-4.93703
-4.92456
-4.90936
-4.89146
-4.8709
-4.84771
-4.82194
-4.79362
-4.76279
-4.72951
-4.6938
-4.65572
-4.61531
-4.57262
-4.52769
-4.48056
-4.43127
-4.37986
-4.32638
-4.27087
-4.21338
-4.154
-4.09295
-4.74848
-4.75529
-4.75933
-4.76059
-4.75909
-4.75485
-4.74789
-4.73824
-4.72592
-4.71097
-4.69341
-4.67329
-4.65064
-4.62549
-4.59789
-4.56788
-4.5355
-4.5008
-4.46382
-4.42461
-4.38321
-4.33966
-4.29401
-4.24629
-4.19654
-4.14479
-4.09108
-4.03546
-3.97797
-3.91893
-4.56378
-4.57011
-4.57376
-4.57472
-4.57299
-4.56862
-4.56162
-4.552
-4.53981
-4.52507
-4.50782
-4.48808
-4.4659
-4.44131
-4.41436
-4.38509
-4.35353
-4.31975
-4.28377
-4.24565
-4.20543
-4.16315
-4.11885
-4.07258
-4.02435
-3.9742
-3.92213
-3.86819
-3.81237
-3.75513
-4.39059
-4.39647
-4.39973
-4.40038
-4.39844
-4.39392
-4.38686
-4.37726
-4.36517
-4.35061
-4.33361
-4.31422
-4.29246
-4.26837
-4.242
-4.21339
-4.18259
-4.14963
-4.11456
-4.07743
-4.03828
-3.99717
-3.95411
-3.90916
-3.86234
-3.81365
-3.7631
-3.7107
-3.65631
-3.60076
-4.22799
-4.23342
-4.23631
-4.23666
-4.23449
-4.22982
-4.22267
-4.21308
-4.20105
-4.18664
-4.16986
-4.15075
-4.12935
-4.10571
-4.07985
-4.05183
-4.02168
-3.98945
-3.9552
-3.91895
-3.88077
-3.84069
-3.79876
-3.75501
-3.70946
-3.66212
-3.61295
-3.56193
-3.5087
-3.45478
-4.0751
-4.08018
-4.08278
-4.08291
-4.08058
-4.07582
-4.06864
-4.05908
-4.04716
-4.0329
-4.01636
-3.99754
-3.97651
-3.95329
-3.92792
-3.90045
-3.87092
-3.83938
-3.80588
-3.77046
-3.73317
-3.69405
-3.65316
-3.61052
-3.56617
-3.52009
-3.47224
-3.42251
-3.37014
-3.3175
-3.93109
-3.93598
-3.93847
-3.93854
-3.93622
-3.93154
-3.92451
-3.91515
-3.9035
-3.88958
-3.87344
-3.85509
-3.83459
-3.81197
-3.78727
-3.76053
-3.73181
-3.70114
-3.66858
-3.63417
-3.59796
-3.56001
-3.52036
-3.47906
-3.43614
-3.3916
-3.34537
-3.29729
-3.24613
-3.19504
-3.79524
-3.79933
-3.80112
-3.8006
-3.79778
-3.79269
-3.78535
-3.77579
-3.76403
-3.75011
-3.73405
-3.7159
-3.69568
-3.67345
-3.64923
-3.62308
-3.59504
-3.56515
-3.53346
-3.50003
-3.46491
-3.42814
-3.38978
-3.34989
-3.30852
-3.26571
-3.22144
-3.17553
-3.12677
-3.08229
-13.341
-13.4963
-13.6433
-13.7901
-13.9353
-14.0773
-14.2156
-14.3497
-14.4794
-14.6044
-14.7243
-14.839
-14.9483
-15.0519
-15.1498
-15.2418
-15.3277
-15.4075
-15.481
-15.5481
-15.6088
-15.663
-15.7106
-15.7516
-15.786
-15.8138
-15.835
-15.85
-15.8588
-15.8631
-12.3067
-12.4661
-12.6188
-12.768
-12.9138
-13.0557
-13.1933
-13.3267
-13.4555
-13.5795
-13.6986
-13.8124
-13.921
-14.024
-14.1214
-14.2129
-14.2985
-14.3781
-14.4515
-14.5186
-14.5794
-14.6338
-14.6818
-14.7232
-14.7582
-14.7866
-14.8086
-14.8241
-14.8333
-14.8364
-11.4554
-11.6145
-11.7682
-11.9176
-12.0628
-12.204
-12.3409
-12.4734
-12.6014
-12.7248
-12.8432
-12.9566
-13.0649
-13.1677
-13.265
-13.3567
-13.4426
-13.5225
-13.5965
-13.6644
-13.7262
-13.7817
-13.8308
-13.8737
-13.9101
-13.9401
-13.9637
-13.9809
-13.9916
-13.9957
-10.6862
-10.8427
-10.9948
-11.1427
-11.2865
-11.4263
-11.5619
-11.6932
-11.8202
-11.9425
-12.0601
-12.1729
-12.2806
-12.3831
-12.4803
-12.572
-12.6582
-12.7387
-12.8133
-12.8821
-12.9449
-13.0016
-13.0523
-13.0967
-13.135
-13.167
-13.1927
-13.212
-13.225
-13.2314
-9.95015
-10.1031
-10.2525
-10.3979
-10.5395
-10.6771
-10.8107
-10.9403
-11.0655
-11.1864
-11.3027
-11.4143
-11.521
-11.6228
-11.7195
-11.811
-11.8971
-11.9777
-12.0527
-12.1221
-12.1858
-12.2436
-12.2955
-12.3415
-12.3814
-12.4153
-12.4431
-12.4647
-12.4801
-12.4892
-9.26119
-9.41015
-9.55595
-9.69815
-9.83669
-9.97153
-10.1026
-10.2296
-10.3526
-10.4714
-10.5859
-10.6959
-10.8012
-10.9018
-10.9975
-11.0882
-11.1738
-11.2542
-11.3292
-11.3988
-11.4629
-11.5214
-11.5743
-11.6214
-11.6628
-11.6983
-11.728
-11.7517
-11.7694
-11.781
-8.62452
-8.76908
-8.91079
-9.04919
-9.18417
-9.31566
-9.44355
-9.5677
-9.68797
-9.80425
-9.91638
-10.0242
-10.1277
-10.2266
-10.3209
-10.4104
-10.495
-10.5747
-10.6492
-10.7186
-10.7827
-10.8415
-10.8949
-10.9428
-10.9852
-11.0219
-11.0531
-11.0785
-11.0982
-11.1121
-8.03937
-8.17928
-8.31658
-8.4508
-8.58184
-8.7096
-8.83395
-8.95477
-9.07191
-9.18525
-9.29467
-9.40001
-9.50117
-9.59802
-9.69045
-9.77833
-9.86156
-9.94004
-10.0137
-10.0824
-10.1461
-10.2047
-10.2581
-10.3064
-10.3493
-10.3869
-10.4191
-10.4459
-10.4672
-10.4829
-7.50392
-7.63904
-7.77174
-7.90157
-8.02842
-8.15218
-8.27274
-8.38994
-8.50367
-8.61379
-8.72017
-8.82269
-8.92123
-9.01566
-9.10588
-9.19178
-9.27325
-9.3502
-9.42254
-9.49018
-9.55305
-9.61107
-9.66416
-9.71228
-9.75537
-9.79336
-9.82621
-9.85389
-9.87634
-9.89354
-7.01551
-7.14581
-7.27383
-7.39917
-7.52171
-7.64134
-7.75794
-7.87137
-7.9815
-8.0882
-8.19134
-8.29081
-8.38649
-8.47825
-8.56601
-8.64964
-8.72906
-8.80418
-8.87489
-8.94114
-9.00283
-9.0599
-9.11229
-9.15993
-9.20277
-9.24077
-9.27387
-9.30204
-9.32523
-9.34345
-6.57085
-6.69636
-6.81973
-6.94058
-7.05878
-7.17425
-7.28683
-7.39641
-7.50284
-7.60601
-7.7058
-7.80207
-7.89474
-7.98367
-8.06877
-8.14995
-8.2271
-8.30014
-8.36899
-8.43358
-8.49382
-8.54966
-8.60103
-8.64788
-8.69016
-8.72781
-8.76081
-8.78911
-8.81268
-8.83151
-6.16634
-6.28718
-6.40598
-6.5224
-6.63632
-6.74763
-6.85622
-6.96194
-7.06467
-7.16428
-7.26065
-7.35368
-7.44325
-7.52925
-7.61159
-7.69018
-7.76492
-7.83573
-7.90254
-7.96527
-8.02386
-8.07824
-8.12836
-8.17417
-8.21561
-8.25265
-8.28525
-8.31337
-8.33699
-8.35611
-5.79835
-5.91466
-6.02901
-6.14111
-6.25085
-6.35811
-6.46277
-6.56469
-6.66375
-6.75983
-6.85281
-6.94258
-7.02903
-7.11207
-7.1916
-7.26753
-7.33977
-7.40826
-7.47291
-7.53366
-7.59045
-7.64322
-7.69191
-7.73649
-7.77689
-7.8131
-7.84506
-7.87276
-7.89616
-7.91528
-5.46332
-5.57526
-5.68534
-5.79327
-5.89896
-6.0023
-6.10314
-6.20136
-6.29684
-6.38946
-6.4791
-6.56566
-6.64902
-6.72911
-6.80582
-6.87908
-6.9488
-7.01491
-7.07735
-7.13605
-7.19095
-7.242
-7.28914
-7.33235
-7.37157
-7.40677
-7.43793
-7.465
-7.48798
-7.50687
-5.1579
-5.26565
-5.37163
-5.47558
-5.57739
-5.67694
-5.77412
-5.86877
-5.96079
-6.05005
-6.13644
-6.21986
-6.3002
-6.37739
-6.45132
-6.52193
-6.58914
-6.65287
-6.71308
-6.76969
-6.82266
-6.87193
-6.91746
-6.95921
-6.99714
-7.03123
-7.06144
-7.08775
-7.11014
-7.12862
-4.87896
-4.98273
-5.08481
-5.18495
-5.28306
-5.37901
-5.47267
-5.56391
-5.6526
-5.73863
-5.82189
-5.90227
-5.97968
-6.05404
-6.12526
-6.19328
-6.25801
-6.3194
-6.37739
-6.43192
-6.48294
-6.53041
-6.57429
-6.61454
-6.65112
-6.68402
-6.7132
-6.73864
-6.76033
-6.77828
-4.62369
-4.72366
-4.82203
-4.91856
-5.01316
-5.10569
-5.19602
-5.284
-5.36952
-5.45245
-5.5327
-5.61016
-5.68475
-5.75638
-5.82498
-5.89047
-5.95279
-6.01189
-6.0677
-6.12018
-6.16928
-6.21496
-6.25719
-6.29592
-6.33113
-6.36279
-6.39089
-6.4154
-6.43631
-6.45363
-4.38952
-4.48588
-4.58073
-4.67386
-4.76515
-4.85444
-4.94161
-5.0265
-5.109
-5.18899
-5.26637
-5.34104
-5.41292
-5.48192
-5.54799
-5.61105
-5.67105
-5.72792
-5.78162
-5.8321
-5.87932
-5.92324
-5.96382
-6.00105
-6.03488
-6.0653
-6.09229
-6.11583
-6.13592
-6.15256
-4.17416
-4.26709
-4.35863
-4.44855
-4.53672
-4.62297
-4.70715
-4.78913
-4.86876
-4.94596
-5.0206
-5.09261
-5.1619
-5.2284
-5.29204
-5.35277
-5.41052
-5.46525
-5.51691
-5.56546
-5.61085
-5.65306
-5.69205
-5.72779
-5.76027
-5.78946
-5.81534
-5.8379
-5.85713
-5.87305
-3.97558
-4.06524
-4.15366
-4.24058
-4.32582
-4.40922
-4.4906
-4.56982
-4.64675
-4.72129
-4.79334
-4.86281
-4.92964
-4.99374
-5.05507
-5.11357
-5.16918
-5.22186
-5.27156
-5.31825
-5.36188
-5.40244
-5.43988
-5.47419
-5.50534
-5.53332
-5.5581
-5.57969
-5.59807
-5.61325
-3.79195
-3.87851
-3.96401
-4.04814
-4.13065
-4.21138
-4.29013
-4.36675
-4.44113
-4.51315
-4.58274
-4.64981
-4.71429
-4.77612
-4.83524
-4.89161
-4.94518
-4.9959
-5.04373
-5.08864
-5.13059
-5.16956
-5.20552
-5.23844
-5.26831
-5.29511
-5.31883
-5.33946
-5.35699
-5.37144
-3.62166
-3.70525
-3.78807
-3.86961
-3.9496
-4.02784
-4.10412
-4.1783
-4.25026
-4.31991
-4.38716
-4.45194
-4.5142
-4.57386
-4.6309
-4.68525
-4.73687
-4.78572
-4.83177
-4.87498
-4.91533
-4.95279
-4.98732
-5.01892
-5.04756
-5.07324
-5.09593
-5.11563
-5.13233
-5.14606
-3.46321
-3.54402
-3.6244
-3.70359
-3.78125
-3.85717
-3.93114
-4.00302
-4.0727
-4.1401
-4.20513
-4.26775
-4.32789
-4.38551
-4.44055
-4.49298
-4.54276
-4.58984
-4.6342
-4.67581
-4.71463
-4.75064
-4.78382
-4.81416
-4.84163
-4.86622
-4.88793
-4.90674
-4.92265
-4.93568
-3.31526
-3.39346
-3.47173
-3.54881
-3.62434
-3.69811
-3.76992
-3.83963
-3.90715
-3.97242
-4.03536
-4.09592
-4.15406
-4.20973
-4.26289
-4.3135
-4.36153
-4.40694
-4.4497
-4.48978
-4.52715
-4.5618
-4.5937
-4.62284
-4.6492
-4.67276
-4.69353
-4.71149
-4.72664
-4.73899
-3.17653
-3.25243
-3.32898
-3.40421
-3.4778
-3.54959
-3.61938
-3.68704
-3.75252
-3.81575
-3.8767
-3.93532
-3.99156
-4.04539
-4.09676
-4.14565
-4.19203
-4.23585
-4.27709
-4.31572
-4.35173
-4.38509
-4.41578
-4.44378
-4.46908
-4.49168
-4.51155
-4.52871
-4.54313
-4.55485
-3.04587
-3.12012
-3.19551
-3.26912
-3.34095
-3.4109
-3.47876
-3.54447
-3.60799
-3.6693
-3.72835
-3.7851
-3.83953
-3.8916
-3.94128
-3.98853
-4.03332
-4.07563
-4.11543
-4.15269
-4.1874
-4.21953
-4.24906
-4.27599
-4.30029
-4.32195
-4.34098
-4.35736
-4.37109
-4.38219
-2.92133
-2.99543
-3.07052
-3.14272
-3.21292
-3.28112
-3.34715
-3.41098
-3.47263
-3.53209
-3.58932
-3.6443
-3.697
-3.7474
-3.79546
-3.84115
-3.88445
-3.92533
-3.96376
-3.99973
-4.0332
-4.06417
-4.09261
-4.11851
-4.14186
-4.16265
-4.18087
-4.19652
-4.20959
-4.2201
-2.79786
-2.87387
-2.95021
-3.02145
-3.09024
-3.1569
-3.22127
-3.28342
-3.34338
-3.40118
-3.45679
-3.5102
-3.56137
-3.6103
-3.65693
-3.70126
-3.74325
-3.78289
-3.82013
-3.85497
-3.88739
-3.91736
-3.94486
-3.96989
-3.99244
-4.01249
-4.03003
-4.04507
-4.05759
-4.06762
-2.67134
-2.7514
-2.83112
-2.90234
-2.97022
-3.03568
-3.09873
-3.1595
-3.2181
-3.27454
-3.32883
-3.38095
-3.43087
-3.47858
-3.52405
-3.56726
-3.60818
-3.64679
-3.68308
-3.71701
-3.74857
-3.77775
-3.80452
-3.82887
-3.8508
-3.8703
-3.88735
-3.90196
-3.91412
-3.92384
-2.57349
-2.66243
-2.74321
-2.81353
-2.87975
-2.94313
-3.00401
-3.06262
-3.11904
-3.17331
-3.22544
-3.27541
-3.32321
-3.36883
-3.41225
-3.45345
-3.49241
-3.52911
-3.56355
-3.59569
-3.62553
-3.65305
-3.67825
-3.70111
-3.72162
-3.73978
-3.75558
-3.76903
-3.78012
-3.78887
-0.411119
-0.45277
-0.497687
-0.546131
-0.598564
-0.655474
-0.717397
-0.784962
-0.858904
-0.940079
-1.02949
-1.1283
-1.23789
-1.35983
-1.496
-1.64855
-1.81998
-2.01317
-2.23142
-2.47846
-2.75849
-3.07613
-3.43637
-3.84439
-4.30562
-4.82557
-5.40523
-6.03825
-6.77882
-7.72942
-0.480047
-0.524029
-0.570585
-0.620875
-0.675344
-0.734398
-0.798576
-0.868523
-0.944984
-1.02883
-1.12107
-1.22288
-1.33566
-1.461
-1.60079
-1.75719
-1.93273
-2.13031
-2.35323
-2.60524
-2.89053
-3.21373
-3.57978
-3.99381
-4.46115
-4.98716
-5.57261
-6.21067
-6.95435
-7.90407
-0.549805
-0.59616
-0.644382
-0.696551
-0.753093
-0.814331
-0.880804
-0.953175
-1.0322
-1.11876
-1.21388
-1.31875
-1.43478
-1.56357
-1.70704
-1.86737
-2.04709
-2.24912
-2.47678
-2.73384
-3.02447
-3.35329
-3.72521
-4.14529
-4.61873
-5.15071
-5.74171
-6.38438
-7.13044
-8.07851
-0.620335
-0.669101
-0.719013
-0.773093
-0.831743
-0.8952
-0.964006
-1.03884
-1.12047
-1.20979
-1.30783
-1.41581
-1.53512
-1.66743
-1.81463
-1.97893
-2.16288
-2.36943
-2.60189
-2.86404
-3.16006
-3.49455
-3.87237
-4.29851
-4.77805
-5.31596
-5.91244
-6.55975
-7.30887
-8.2573
-0.69159
-0.742801
-0.794427
-0.850449
-0.911241
-0.976953
-1.04813
-1.12546
-1.20974
-1.30185
-1.40286
-1.51398
-1.63664
-1.7725
-1.92348
-2.09181
-2.28005
-2.49116
-2.72848
-2.99577
-3.29723
-3.63742
-4.02117
-4.4534
-4.93905
-5.4829
-6.08489
-6.73694
-7.48952
-8.43944
-0.763521
-0.817206
-0.870567
-0.928561
-0.991529
-1.05953
-1.13311
-1.21298
-1.29993
-1.39489
-1.4989
-1.61321
-1.73926
-1.87872
-2.03353
-2.20593
-2.39851
-2.61424
-2.85646
-3.12895
-3.43589
-3.78183
-4.17155
-4.60989
-5.10167
-5.65149
-6.25902
-6.91586
-7.67209
-8.62401
-0.836077
-0.892261
-0.947376
-1.00737
-1.07255
-1.14287
-1.21888
-1.30132
-1.39099
-1.48882
-1.59588
-1.71342
-1.8429
-1.986
-2.14468
-2.32121
-2.51818
-2.73856
-2.98573
-3.26347
-3.57594
-3.92767
-4.3234
-4.76788
-5.26581
-5.82162
-6.43473
-7.09642
-7.85641
-8.81061
-0.909211
-0.967911
-1.0248
-1.08682
-1.15423
-1.2269
-1.30538
-1.39043
-1.48285
-1.58359
-1.69373
-1.81454
-1.94748
-2.09426
-2.25686
-2.43755
-2.63895
-2.86404
-3.11621
-3.39923
-3.71727
-4.07482
-4.47659
-4.92724
-5.43135
-5.99318
-6.61188
-7.27847
-8.04231
-8.99899
-0.982872
-1.0441
-1.10277
-1.16685
-1.23653
-1.31158
-1.39255
-1.48023
-1.57543
-1.67911
-1.79237
-1.91648
-2.05292
-2.20343
-2.36998
-2.55487
-2.76074
-2.99058
-3.24778
-3.53612
-3.85977
-4.22318
-4.63101
-5.08785
-5.59817
-6.16602
-6.79036
-7.46187
-8.22961
-9.18887
-1.05701
-1.12078
-1.18125
-1.24741
-1.31938
-1.39684
-1.48033
-1.57066
-1.66868
-1.77533
-1.89172
-2.01916
-2.15914
-2.3134
-2.48394
-2.67307
-2.88345
-3.11807
-3.38034
-3.67404
-4.00332
-4.37262
-4.78654
-5.2496
-5.76612
-6.34001
-6.96999
-7.64644
-8.41811
-9.38
-1.13159
-1.1979
-1.26017
-1.32844
-1.40273
-1.48261
-1.56865
-1.66166
-1.76251
-1.87215
-1.99172
-2.12252
-2.26606
-2.4241
-2.59866
-2.79206
-3.00697
-3.24641
-3.51378
-3.81287
-4.14781
-4.52302
-4.94305
-5.41233
-5.93507
-6.515
-7.15061
-7.832
-8.6076
-9.57214
-1.20657
-1.27541
-1.33949
-1.40988
-1.48651
-1.56884
-1.65744
-1.75316
-1.85686
-1.96952
-2.09228
-2.22646
-2.37359
-2.53544
-2.71404
-2.91174
-3.13121
-3.37549
-3.64799
-3.95249
-4.29312
-4.67426
-5.1004
-5.57591
-6.10486
-6.69083
-7.33206
-8.01837
-8.79789
-9.7651
-1.2819
-1.35326
-1.41915
-1.4917
-1.57068
-1.65547
-1.74666
-1.8451
-1.95167
-2.06736
-2.19333
-2.3309
-2.48164
-2.64732
-2.82999
-3.032
-3.25606
-3.50521
-3.78286
-4.09279
-4.43911
-4.82619
-5.25846
-5.74019
-6.27535
-6.86733
-7.51416
-8.20535
-8.98877
-9.95864
-1.35756
-1.43142
-1.49912
-1.57383
-1.65518
-1.74245
-1.83623
-1.9374
-2.04685
-2.16558
-2.29478
-2.43577
-2.59013
-2.75964
-2.9464
-3.15275
-3.38141
-3.63544
-3.91825
-4.23362
-4.58566
-4.97868
-5.41707
-5.90501
-6.44636
-7.04433
-7.69672
-8.39277
-9.18004
-10.1526
-1.43351
-1.50985
-1.57935
-1.65623
-1.73997
-1.82972
-1.92609
-2.03
-2.14234
-2.26413
-2.39655
-2.54096
-2.69895
-2.87232
-3.06317
-3.27387
-3.50715
-3.76607
-4.05405
-4.37488
-4.73262
-5.13158
-5.57609
-6.07024
-6.61774
-7.22167
-7.87957
-8.58042
-9.3715
-10.3467
-1.50975
-1.58852
-1.6598
-1.73886
-1.82498
-1.91721
-2.01619
-2.12283
-2.23806
-2.3629
-2.49855
-2.6464
-2.80802
-2.98525
-3.1802
-3.39526
-3.63316
-3.89697
-4.19014
-4.51641
-4.87987
-5.28476
-5.73537
-6.23569
-6.78932
-7.39915
-8.06252
-8.76811
-9.56296
-10.5407
-1.58626
-1.6674
-1.74045
-1.82168
-1.91018
-2.00489
-2.10645
-2.21582
-2.33393
-2.46182
-2.60071
-2.75197
-2.91723
-3.09832
-3.29737
-3.51679
-3.75931
-4.02803
-4.32636
-4.65809
-5.02725
-5.43806
-5.89474
-6.4012
-6.96092
-7.57661
-8.24538
-8.95564
-9.7542
-10.7346
-1.66304
-1.7465
-1.82126
-1.90465
-1.99552
-2.09268
-2.19681
-2.3089
-2.42988
-2.5608
-2.7029
-2.85759
-3.02647
-3.21143
-3.41457
-3.63834
-3.88548
-4.1591
-4.46261
-4.79977
-5.17462
-5.59132
-6.05405
-6.56662
-7.13237
-7.75385
-8.42796
-9.14282
-9.94503
-10.928
-1.7401
-1.82579
-1.90222
-1.98773
-2.08094
-2.18052
-2.2872
-2.40197
-2.5258
-2.65974
-2.80505
-2.96313
-3.13564
-3.32444
-3.53167
-3.75979
-4.01155
-4.29005
-4.59871
-4.9413
-5.32182
-5.74439
-6.21313
-6.73176
-7.30349
-7.93069
-8.61006
-9.32945
-10.1352
-11.1207
-1.81746
-1.90526
-1.98328
-2.07088
-2.16637
-2.26834
-2.37753
-2.49495
-2.62159
-2.75853
-2.90702
-3.06849
-3.2446
-3.43723
-3.64855
-3.881
-4.13736
-4.42073
-4.73455
-5.08254
-5.46869
-5.89711