/*--------------------------------*- C++ -*----------------------------------*\
| =========                 |                                                 |
| \\      /  F ield         | OpenFOAM: The Open Source CFD Toolbox           |
|  \\    /   O peration     | Version:  v1912                                 |
|   \\  /    A nd           | Website:  www.openfoam.com                      |
|    \\/     M anipulation  |                                                 |
\*---------------------------------------------------------------------------*/
FoamFile
{
    version     2.0;
    format      ascii;
    class       volScalarField;
    location    "41.5";
    object      p;
}
// * * * * * * * * * * * * * * * * * * * * * * * * * * * * * * * * * * * * * //

dimensions      [0 2 -2 0 0 0 0];


internalField   nonuniform List<scalar> 
9600
(
-41.4715
-36.206
-32.9785
-30.2406
-27.7347
-25.4676
-23.4109
-21.5368
-19.8276
-18.2698
-16.8506
-15.5582
-14.3812
-13.3086
-12.3305
-11.4375
-10.621
-9.87328
-9.18666
-8.55901
-42.2299
-36.9469
-33.6835
-30.9029
-28.352
-26.0409
-23.9429
-22.031
-20.288
-18.7002
-17.2548
-15.9392
-14.7419
-13.6515
-12.6575
-11.7504
-10.9212
-10.1617
-9.46396
-8.82706
-42.99
-37.6839
-34.3832
-31.5596
-28.9634
-26.6081
-24.4688
-22.5193
-20.7427
-19.1253
-17.6538
-16.3155
-15.0981
-13.9901
-12.9805
-12.0594
-11.2176
-10.4464
-9.73769
-9.09173
-43.7486
-38.4165
-35.077
-32.2098
-29.568
-27.1683
-24.9877
-23.0008
-21.1909
-19.5441
-18.0469
-16.6862
-15.4492
-14.3238
-13.2989
-12.364
-11.5098
-10.7271
-10.0074
-9.3527
-44.5027
-39.1431
-35.764
-32.8524
-30.1647
-27.7206
-25.4988
-23.4747
-21.6318
-19.956
-18.4335
-17.0507
-15.7944
-14.6521
-13.6121
-12.6638
-11.7973
-11.0033
-10.2729
-9.60967
-45.2501
-39.8623
-36.4429
-33.4864
-30.7525
-28.2639
-26.0011
-23.94
-22.0645
-20.3602
-18.8128
-17.4084
-16.1332
-14.9743
-13.9196
-12.9581
-12.0797
-11.2746
-10.5336
-9.86239
-45.9893
-40.5727
-37.1125
-34.1105
-31.3303
-28.7973
-26.4936
-24.3959
-22.4882
-20.7558
-19.1841
-17.7585
-16.4649
-15.2898
-14.2208
-13.2465
-12.3566
-11.5406
-10.7893
-10.1106
-46.7185
-41.2729
-37.7715
-34.7238
-31.897
-29.3197
-26.9754
-24.8415
-22.9021
-21.1421
-19.5466
-18.1003
-16.7888
-15.598
-14.5151
-13.5284
-12.6273
-11.8008
-11.0397
-10.3539
-47.4365
-41.9615
-38.4187
-35.325
-32.4516
-29.8301
-27.4455
-25.2759
-23.3052
-21.5183
-19.8995
-18.4331
-17.1041
-15.8982
-14.8019
-13.8033
-12.8914
-12.0549
-11.2842
-10.5921
-48.142
-42.6374
-39.053
-35.913
-32.9931
-30.3276
-27.9031
-25.6983
-23.6969
-21.8835
-20.242
-18.7561
-17.4102
-16.1896
-15.0804
-14.0703
-13.1482
-12.3021
-11.5225
-10.8247
-48.8339
-43.2995
-39.6734
-36.487
-33.5205
-30.8113
-28.3473
-26.1077
-24.0762
-22.237
-20.5733
-19.0685
-17.7063
-16.4714
-15.3498
-14.3289
-13.397
-12.5418
-11.7538
-11.051
-49.5113
-43.9468
-40.2787
-37.0458
-34.0329
-31.2803
-28.7772
-26.5034
-24.4424
-22.5778
-20.8926
-19.3693
-17.9913
-16.7427
-15.6093
-14.5779
-13.6369
-12.7732
-11.9774
-11.2704
-50.1734
-44.5783
-40.8681
-37.5886
-34.5295
-31.7337
-29.192
-26.8845
-24.7945
-22.9052
-21.199
-19.6578
-18.2643
-17.0026
-15.8577
-14.8166
-13.8669
-12.9954
-12.1924
-11.482
-50.8197
-45.1933
-41.4408
-38.1146
-35.0093
-32.1707
-29.5909
-27.2502
-25.1318
-23.2184
-21.4915
-19.9328
-18.5244
-17.2498
-16.094
-15.0434
-14.0856
-13.2069
-12.3976
-11.6853
-51.4495
-45.791
-41.996
-38.6231
-35.4718
-32.5908
-29.9734
-27.6001
-25.4537
-23.5166
-21.7695
-20.1936
-18.7704
-17.4832
-16.3165
-15.2566
-14.2911
-13.4056
-12.5909
-11.8782
-52.0625
-46.3706
-42.5329
-39.1134
-35.9163
-32.9933
-30.3388
-27.9334
-25.7596
-23.7992
-22.0323
-20.4393
-19.0015
-17.7017
-16.524
-15.4549
-14.4815
-13.5894
-12.7695
-12.0554
-52.6599
-46.932
-43.0509
-39.5847
-36.3421
-33.3776
-30.6865
-28.2497
-26.049
-24.0656
-22.2791
-20.6692
-19.2167
-17.9042
-16.7156
-15.6373
-14.6565
-13.7582
-12.9323
-12.2136
-53.2461
-47.4764
-43.5492
-40.0361
-36.7484
-33.743
-31.0162
-28.5485
-26.3216
-24.3156
-22.5095
-20.8825
-19.4149
-18.089
-16.8889
-15.8012
-14.8133
-13.9093
-13.0785
-12.3642
-53.8232
-48.0031
-44.0262
-40.4664
-37.1347
-34.0896
-31.328
-28.8305
-26.5779
-24.5497
-22.724
-21.0795
-19.5957
-18.2547
-17.0405
-15.9398
-14.94
-14.0251
-13.193
-12.5112
-54.3692
-48.5046
-44.4809
-40.8762
-37.5024
-34.419
-31.6237
-29.0972
-26.8197
-24.7698
-22.9249
-21.2625
-19.7619
-18.4039
-17.1721
-16.0519
-15.0283
-14.0877
-13.2447
-12.5692
-59.8169
-59.7855
-59.7163
-59.624
-59.5078
-59.3652
-59.1958
-59
-58.7785
-58.5316
-58.2601
-57.9644
-57.6453
-57.3033
-56.9393
-56.5542
-56.149
-55.7254
-55.2863
-54.8348
-53.4691
-53.4665
-53.4308
-53.3675
-53.2775
-53.1601
-53.0157
-52.845
-52.6486
-52.4271
-52.1812
-51.9115
-51.6186
-51.3031
-50.9657
-50.6071
-50.2278
-49.8285
-49.4095
-48.9689
-48.8265
-48.8482
-48.8407
-48.8044
-48.7406
-48.6503
-48.534
-48.3924
-48.226
-48.0356
-47.8215
-47.5845
-47.3251
-47.0437
-46.7411
-46.4174
-46.0731
-45.7082
-45.3224
-44.9139
-44.5977
-44.6372
-44.65
-44.6358
-44.5953
-44.5298
-44.4398
-44.3258
-44.1884
-44.0282
-43.8457
-43.6414
-43.4159
-43.1695
-42.9027
-42.6157
-42.3088
-41.9819
-41.6347
-41.2663
-40.6878
-40.7371
-40.7625
-40.7632
-40.7397
-40.6928
-40.6231
-40.5312
-40.4175
-40.2825
-40.1268
-39.9508
-39.755
-39.5398
-39.3055
-39.0525
-38.7807
-38.4902
-38.1807
-37.8517
-37.1765
-37.2299
-37.2617
-37.2711
-37.2582
-37.2237
-37.1681
-37.0921
-36.9959
-36.8802
-36.7454
-36.592
-36.4204
-36.231
-36.0242
-35.8002
-35.5591
-35.3008
-35.0251
-34.7314
-34.0546
-34.108
-34.1417
-34.1548
-34.1474
-34.1201
-34.0735
-34.008
-33.9241
-33.8223
-33.7029
-33.5666
-33.4138
-33.2449
-33.0602
-32.8601
-32.6445
-32.4135
-32.1668
-31.9039
-31.2854
-31.336
-31.3683
-31.3818
-31.3763
-31.3525
-31.3109
-31.252
-31.1761
-31.0837
-30.9754
-30.8517
-30.713
-30.5598
-30.3926
-30.2115
-30.0169
-29.8086
-29.5863
-29.3495
-28.8291
-28.8752
-28.9044
-28.916
-28.9102
-28.8874
-28.8482
-28.7928
-28.7219
-28.6359
-28.5353
-28.4206
-28.2924
-28.1512
-27.9975
-27.8317
-27.6539
-27.4644
-27.2627
-27.0482
-26.6458
-26.6868
-26.7119
-26.7206
-26.7131
-26.6899
-26.6513
-26.5978
-26.5298
-26.4479
-26.3525
-26.2443
-26.1239
-25.9918
-25.8487
-25.695
-25.5311
-25.3572
-25.1729
-24.9776
-24.6984
-24.7341
-24.7549
-24.7603
-24.7506
-24.726
-24.6872
-24.6343
-24.568
-24.4888
-24.3971
-24.2935
-24.1789
-24.0538
-23.9189
-23.775
-23.6226
-23.4618
-23.2926
-23.1142
-22.9541
-22.9848
-23.0013
-23.0033
-22.9911
-22.965
-22.9253
-22.8726
-22.8072
-22.7297
-22.6405
-22.5405
-22.4302
-22.3105
-22.1822
-22.0462
-21.9033
-21.7539
-21.598
-21.4349
-21.3846
-21.4106
-21.4231
-21.422
-21.4074
-21.3796
-21.339
-21.2861
-21.2212
-21.1449
-21.0576
-20.9602
-20.8532
-20.7378
-20.6147
-20.4852
-20.3503
-20.2107
-20.0669
-19.918
-19.966
-19.9879
-19.9969
-19.9928
-19.976
-19.9467
-19.9052
-19.852
-19.7874
-19.7119
-19.6261
-19.5307
-19.4264
-19.3142
-19.1953
-19.0709
-18.9427
-18.8116
-18.6791
-18.5438
-18.6786
-18.6968
-18.7026
-18.696
-18.6772
-18.6466
-18.6043
-18.5508
-18.4865
-18.4117
-18.3271
-18.2332
-18.131
-18.0213
-17.9055
-17.7852
-17.6623
-17.5386
-17.4164
-17.2946
-17.5059
-17.5207
-17.5237
-17.5148
-17.4944
-17.4625
-17.4196
-17.3659
-17.3018
-17.2276
-17.144
-17.0514
-16.9508
-16.8429
-16.7294
-16.6119
-16.493
-16.375
-16.2624
-16.1538
-16.4339
-16.4458
-16.4463
-16.4355
-16.4135
-16.3807
-16.3371
-16.2833
-16.2193
-16.1457
-16.0628
-15.9712
-15.8716
-15.7649
-15.6526
-15.5365
-15.4199
-15.3057
-15.2012
-15.1044
-15.4509
-15.4603
-15.4589
-15.4466
-15.4236
-15.3901
-15.3462
-15.2923
-15.2287
-15.1556
-15.0734
-14.9826
-14.8838
-14.7778
-14.6658
-14.5498
-14.4335
-14.3207
-14.2232
-14.1355
-14.5457
-14.5537
-14.5513
-14.5386
-14.5155
-14.4823
-14.4392
-14.3863
-14.3241
-14.2526
-14.1722
-14.0833
-13.9864
-13.882
-13.7711
-13.6553
-13.5383
-13.4251
-13.3346
-13.2609
-13.713
-13.7178
-13.7129
-13.6983
-13.6741
-13.6405
-13.5977
-13.5458
-13.485
-13.4155
-13.3375
-13.2514
-13.1573
-13.0557
-12.947
-12.8323
-12.7134
-12.5956
-12.4985
-12.4492
-53.5329
-54.1075
-54.645
-55.1675
-55.6722
-56.1529
-56.6069
-57.0332
-57.4307
-57.7986
-58.1362
-58.443
-58.7188
-58.9631
-59.1752
-59.3553
-59.5043
-59.6233
-59.7143
-59.7792
-47.0511
-47.6311
-48.183
-48.7127
-49.2195
-49.7011
-50.1561
-50.5837
-50.9834
-51.3544
-51.6961
-52.0085
-52.2917
-52.5462
-52.7701
-52.9628
-53.1248
-53.2566
-53.3586
-53.4297
-42.4084
-42.9762
-43.5203
-44.0411
-44.5384
-45.0116
-45.4599
-45.8825
-46.2789
-46.6483
-46.99
-47.3035
-47.5886
-47.844
-48.071
-48.2699
-48.4403
-48.5819
-48.6944
-48.7763
-38.2861
-38.8286
-39.3515
-39.8528
-40.3319
-40.7886
-41.2223
-41.6323
-42.0179
-42.3786
-42.7131
-43.0208
-43.3028
-43.5585
-43.788
-43.9912
-44.1675
-44.3166
-44.4383
-44.5321
-34.6099
-35.1224
-35.6179
-36.0938
-36.5491
-36.9834
-37.3962
-37.7868
-38.1545
-38.4989
-38.8204
-39.1186
-39.3921
-39.6411
-39.8658
-40.0658
-40.2408
-40.3906
-40.5152
-40.6145
-31.4128
-31.8938
-32.3596
-32.8074
-33.2361
-33.6452
-34.0342
-34.4027
-34.75
-35.076
-35.3804
-35.6627
-35.9222
-36.159
-36.3736
-36.5656
-36.7344
-36.8799
-37.0021
-37.1012
-28.6421
-29.0924
-29.5285
-29.9481
-30.3497
-30.733
-31.0975
-31.4428
-31.7683
-32.0738
-32.3589
-32.6235
-32.867
-33.0894
-33.2903
-33.4717
-33.6315
-33.7696
-33.8861
-33.9812
-26.2313
-26.6528
-27.0609
-27.4534
-27.8291
-28.1874
-28.528
-28.8503
-29.154
-29.4388
-29.7045
-29.9509
-30.1779
-30.3854
-30.5733
-30.7401
-30.8894
-31.0185
-31.1274
-31.2165
-24.1216
-24.5167
-24.8991
-25.2667
-25.6182
-25.9532
-26.2712
-26.5718
-26.8547
-27.1197
-27.3667
-27.5956
-27.8062
-27.9986
-28.1726
-28.3283
-28.4644
-28.5834
-28.6839
-28.7658
-22.2629
-22.6343
-22.9934
-23.3384
-23.668
-23.9816
-24.2787
-24.5592
-24.8228
-25.0694
-25.2989
-25.5112
-25.7063
-25.8842
-26.0448
-26.1881
-26.3138
-26.4224
-26.5142
-26.5888
-20.6137
-20.9638
-21.3023
-21.6271
-21.9368
-22.2309
-22.5091
-22.7711
-23.017
-23.2466
-23.4599
-23.657
-23.8378
-24.0022
-24.1504
-24.2823
-24.3977
-24.4969
-24.5803
-24.6476
-19.1402
-19.4716
-19.7919
-20.0987
-20.3905
-20.6669
-20.9278
-21.173
-21.4026
-21.6167
-21.8153
-21.9984
-22.1661
-22.3184
-22.4552
-22.5766
-22.6826
-22.7734
-22.8486
-22.9092
-17.8156
-18.1305
-18.4349
-18.7258
-19.0014
-19.2618
-19.5068
-19.7367
-19.9515
-20.1514
-20.3365
-20.5069
-20.6627
-20.8038
-20.9304
-21.0423
-21.1397
-21.2225
-21.2904
-21.3449
-16.6181
-16.9186
-17.2095
-17.4863
-17.7473
-17.9929
-18.2234
-18.4391
-18.6403
-18.8271
-19
-19.1588
-19.3038
-19.4349
-19.5521
-19.6555
-19.7451
-19.821
-19.8834
-19.9313
-15.5308
-15.819
-16.0984
-16.3625
-16.61
-16.842
-17.059
-17.2615
-17.45
-17.625
-17.7865
-17.9348
-18.0699
-18.1919
-18.3008
-18.3965
-18.4791
-18.5486
-18.605
-18.6482
-14.5389
-14.8186
-15.0888
-15.341
-15.5757
-15.7947
-15.9989
-16.189
-16.3657
-16.5295
-16.6806
-16.8192
-16.9454
-17.0591
-17.1604
-17.2491
-17.3254
-17.3892
-17.4404
-17.4793
-13.6246
-13.9033
-14.1684
-14.4092
-14.6312
-14.8377
-15.0298
-15.2081
-15.3738
-15.5273
-15.6689
-15.7987
-15.9167
-16.023
-16.1174
-16.1999
-16.2705
-16.3292
-16.3759
-16.4108
-12.7675
-13.0504
-13.3168
-13.5482
-13.7582
-13.9532
-14.134
-14.3019
-14.4578
-14.6024
-14.7357
-14.858
-14.9692
-15.0692
-15.1579
-15.2353
-15.3012
-15.3558
-15.3989
-15.4307
-11.9809
-12.2544
-12.5215
-12.7481
-12.948
-13.1316
-13.302
-13.4604
-13.6076
-13.7442
-13.8704
-13.9862
-14.0916
-14.1863
-14.2703
-14.3435
-14.4058
-14.4572
-14.4976
-14.5271
-11.3908
-11.6415
-11.8691
-12.0857
-12.274
-12.4398
-12.5937
-12.7378
-12.8717
-12.9958
-13.1105
-13.2156
-13.3111
-13.3967
-13.4723
-13.5378
-13.5932
-13.6383
-13.6732
-13.6977
-5.9954
-6.48638
-7.02446
-7.60658
-8.2392
-8.9297
-9.68577
-10.5169
-11.4351
-12.4563
-13.6008
-14.8955
-16.3759
-18.088
-20.0921
-22.4676
-25.2955
-28.5982
-32.5949
-38.5902
-6.26571
-6.77019
-7.31876
-7.91292
-8.55928
-9.26493
-10.0377
-10.8872
-11.826
-12.87
-14.04
-15.3633
-16.8757
-18.6237
-20.668
-23.0875
-25.9624
-29.3118
-33.3469
-39.3633
-6.53744
-7.05543
-7.61461
-8.22105
-8.88141
-9.60246
-10.3921
-11.2604
-12.22
-13.2872
-14.4831
-15.8353
-17.38
-19.1643
-21.2489
-23.7125
-26.6339
-30.0289
-34.1007
-40.1335
-6.81012
-7.34156
-7.91144
-8.53035
-9.20493
-9.94159
-10.7484
-11.6357
-12.6163
-13.7068
-14.9288
-16.3101
-17.8875
-19.7083
-21.8333
-24.3409
-27.3086
-30.7491
-34.8586
-40.9125
-7.08331
-7.62811
-8.20876
-8.84037
-9.52936
-10.2818
-11.106
-12.0124
-13.0142
-14.1283
-15.3765
-16.7872
-18.3974
-20.2547
-22.4201
-24.9717
-27.9857
-31.4716
-35.6196
-41.6979
-7.35662
-7.91467
-8.50615
-9.15066
-9.85425
-10.6227
-11.4643
-12.39
-13.4132
-14.551
-15.8256
-17.2657
-18.9088
-20.8028
-23.0088
-25.6044
-28.6644
-32.1956
-36.3817
-42.4853
-7.62975
-8.20089
-8.80325
-9.46083
-10.1792
-10.9637
-11.823
-12.768
-13.8127
-14.9743
-16.2754
-17.7451
-19.4213
-21.352
-23.5985
-26.238
-29.3439
-32.9199
-37.1434
-43.2726
-7.90244
-8.48646
-9.09972
-9.77054
-10.5038
-11.3045
-12.1815
-13.1461
-14.2122
-15.3978
-16.7254
-18.2248
-19.9339
-21.9014
-24.1883
-26.8715
-30.023
-33.6434
-37.9036
-44.0582
-8.17455
-8.77119
-9.39532
-10.0795
-10.8278
-11.6448
-12.5395
-13.5236
-14.6113
-15.8207
-17.1749
-18.7039
-20.446
-22.4501
-24.7774
-27.5041
-30.7008
-34.365
-38.6609
-44.8406
-8.44603
-9.05497
-9.68991
-10.3876
-11.1509
-11.9842
-12.8966
-13.9001
-15.0093
-16.2426
-17.6233
-19.1818
-20.9568
-22.9974
-25.3649
-28.1347
-31.376
-35.0834
-39.4141
-45.6184
-8.71699
-9.33783
-9.98341
-10.6946
-11.473
-12.3224
-13.2524
-14.2753
-15.4059
-16.6628
-18.0699
-19.6577
-21.4655
-23.5424
-25.9497
-28.7622
-32.0476
-35.7975
-40.1619
-46.3901
-8.98773
-9.61994
-10.2759
-11.0004
-11.7937
-12.6591
-13.6066
-14.6486
-15.8004
-17.0808
-18.5141
-20.131
-21.9713
-24.0842
-26.5308
-29.3856
-32.7145
-36.506
-40.9029
-47.1543
-9.25872
-9.9016
-10.5675
-11.3051
-12.1131
-12.9942
-13.9588
-15.0197
-16.1924
-17.496
-18.9551
-20.6009
-22.4733
-24.6218
-27.1074
-30.0038
-33.3754
-37.2076
-41.6358
-47.9096
-9.53069
-10.1832
-10.8583
-11.6086
-12.4308
-13.3272
-14.3085
-15.3879
-16.5811
-17.9076
-19.3921
-21.0664
-22.9706
-25.1543
-27.6783
-30.6156
-34.0291
-37.9012
-42.3594
-48.6547
-9.8044
-10.4651
-11.1483
-11.9107
-12.7465
-13.6576
-14.6551
-15.7526
-16.9659
-18.3148
-19.8245
-21.5268
-23.4622
-25.6806
-28.2424
-31.22
-34.6745
-38.5856
-43.0723
-49.3884
-10.0808
-10.7475
-11.4373
-12.2108
-13.0595
-13.9848
-14.998
-16.1131
-17.346
-18.7169
-20.2511
-21.981
-23.9472
-26.1996
-28.7986
-31.8155
-35.3101
-39.2593
-43.7736
-50.1098
-10.3597
-11.0293
-11.7239
-12.5075
-13.3686
-14.3076
-15.3361
-16.4683
-17.7204
-19.1128
-20.6712
-22.4281
-24.4244
-26.7102
-29.3455
-32.4009
-35.9346
-39.921
-44.4621
-50.8183
-10.6403
-11.308
-12.0055
-12.7991
-13.6726
-14.625
-15.6684
-16.8172
-18.0881
-19.5015
-21.0835
-22.8669
-24.8927
-27.2111
-29.8819
-32.9748
-36.5465
-40.5692
-45.1366
-51.5138
-10.9154
-11.5752
-12.2759
-13.0821
-13.9691
-14.9351
-15.9933
-17.1587
-18.4479
-19.882
-21.487
-23.2962
-25.3508
-27.7011
-30.4064
-33.5356
-37.144
-41.2019
-45.796
-52.1978
-11.1664
-11.811
-12.5308
-13.3576
-14.2589
-15.2379
-16.3104
-17.4919
-18.7991
-20.2532
-21.8807
-23.715
-25.7977
-28.1788
-30.9175
-34.0815
-37.7249
-41.816
-46.4356
-52.872
-1.58041
-1.8345
-2.18255
-2.57171
-2.99056
-3.44448
-3.93979
-4.48242
-5.07987
-5.74242
-6.48402
-7.32368
-8.28755
-9.41167
-10.7469
-12.3675
-14.3631
-16.7948
-19.9707
-25.366
-1.73338
-2.00387
-2.37035
-2.76541
-3.18767
-3.64691
-4.1491
-4.69979
-5.30663
-5.98014
-6.73454
-7.5892
-8.57067
-9.71552
-11.0752
-12.7244
-14.7529
-17.22
-20.4281
-25.8371
-1.88064
-2.17519
-2.5548
-2.95798
-3.38796
-3.85556
-4.36668
-4.92702
-5.54461
-6.23033
-6.99872
-7.86952
-8.86976
-10.0365
-11.4218
-13.1007
-15.1627
-17.6652
-20.9048
-26.3223
-2.05014
-2.35551
-2.74331
-3.1552
-3.59436
-4.07148
-4.5926
-5.16373
-5.7932
-6.49221
-7.27564
-8.16364
-9.18371
-10.3735
-11.7854
-13.495
-15.5915
-18.1306
-21.405
-26.8402
-2.23096
-2.5434
-2.93903
-3.35986
-3.80849
-4.29558
-4.82735
-5.41006
-6.0523
-6.76552
-7.56495
-8.47113
-9.51202
-10.7258
-12.1654
-13.9068
-16.039
-18.6163
-21.9281
-27.3874
-2.41724
-2.73829
-3.14223
-3.57217
-4.03056
-4.52807
-5.0711
-5.66609
-6.32185
-7.05011
-7.86641
-8.7917
-9.85441
-11.0932
-12.5617
-14.3361
-16.5052
-19.1219
-22.4723
-27.9586
-2.61052
-2.94106
-3.35324
-3.79231
-4.26073
-4.7691
-5.3239
-5.93177
-6.60173
-7.34578
-8.17978
-9.12507
-10.2106
-11.4754
-12.9738
-14.7823
-16.9896
-19.6467
-23.0366
-28.5517
-2.81219
-3.1522
-3.57241
-4.02059
-4.49925
-5.01879
-5.58579
-6.20706
-6.89183
-7.65235
-8.5048
-9.47092
-10.5801
-11.872
-13.4013
-15.2451
-17.4915
-20.1902
-23.6204
-29.1653
-3.02203
-3.37157
-3.79976
-4.2571
-4.74616
-5.27715
-5.85672
-6.49185
-7.19197
-7.96958
-8.84119
-9.82891
-10.9626
-12.2825
-13.8438
-15.7237
-18.0104
-20.7517
-24.2228
-29.7986
-3.23944
-3.59882
-4.0351
-4.5017
-5.00134
-5.54405
-6.13654
-6.78594
-7.50191
-8.2972
-9.18862
-10.1987
-11.3577
-12.7064
-14.3006
-16.2178
-18.5457
-21.3304
-24.8432
-30.4505
-3.464
-3.8336
-4.27811
-4.7541
-5.26453
-5.81923
-6.42497
-7.08907
-7.82137
-8.63487
-9.54672
-10.5798
-11.7649
-13.1434
-14.7713
-16.7267
-19.0967
-21.9257
-25.4807
-31.1197
-3.69531
-4.07553
-4.52842
-5.01396
-5.53541
-6.10237
-6.7217
-7.40088
-8.14997
-8.98221
-9.91509
-10.9719
-12.1838
-13.5928
-15.2553
-17.2497
-19.6628
-22.5367
-26.1343
-31.8054
-3.93291
-4.32412
-4.78559
-5.28087
-5.81357
-6.39308
-7.02632
-7.72097
-8.48728
-9.33878
-10.2932
-11.3744
-12.6138
-14.054
-15.752
-17.7862
-20.2431
-23.1627
-26.8032
-32.5065
-4.17628
-4.57885
-5.0491
-5.55435
-6.09856
-6.6909
-7.33839
-8.04888
-8.83285
-9.70408
-10.6807
-11.7867
-13.0544
-14.5265
-16.2607
-18.3355
-20.8369
-23.8028
-27.4866
-33.2222
-4.42487
-4.83918
-5.31843
-5.83387
-6.38986
-6.99535
-7.6574
-8.3841
-9.18615
-10.0776
-11.0768
-12.2084
-13.5049
-15.0096
-16.7807
-18.8969
-21.4434
-24.4562
-28.1836
-33.9516
-4.67813
-5.10452
-5.59301
-6.1189
-6.68695
-7.30587
-7.98282
-8.72609
-9.54661
-10.4587
-11.4811
-12.6387
-13.9646
-15.5027
-17.3113
-19.4695
-22.0618
-25.122
-28.8934
-34.6939
-4.93551
-5.3743
-5.87227
-6.40887
-6.98926
-7.62191
-8.31409
-9.07428
-9.91366
-10.8468
-11.8928
-13.077
-14.4329
-16.0048
-17.8516
-20.0524
-22.6912
-25.7993
-29.6151
-35.4485
-5.19646
-5.64794
-6.15561
-6.70319
-7.29622
-7.94291
-8.65062
-9.42808
-10.2867
-11.2413
-12.3114
-13.5226
-14.909
-16.5153
-18.4009
-20.6448
-23.3305
-26.487
-30.3479
-36.215
-5.46043
-5.92487
-6.44247
-7.0013
-7.60724
-8.26827
-8.99181
-9.78686
-10.6651
-11.6415
-12.7361
-13.9747
-15.3921
-17.0333
-18.9581
-21.2457
-23.9787
-27.1839
-31.0908
-36.9942
-5.72692
-6.20454
-6.73229
-7.30264
-7.92179
-8.59743
-9.33711
-10.15
-11.0481
-12.0468
-13.1662
-14.4328
-15.8815
-17.558
-19.5224
-21.8539
-24.6344
-27.8883
-31.841
-37.7866
-1.33287
-1.12647
-0.972971
-0.836509
-0.716696
-0.610989
-0.518276
-0.437763
-0.368949
-0.311476
-0.265077
-0.229541
-0.204698
-0.190407
-0.186528
-0.192857
-0.20919
-0.235657
-0.272372
-0.319205
-1.66281
-1.47967
-1.3222
-1.18052
-1.05588
-0.945716
-0.849046
-0.765069
-0.693271
-0.633276
-0.584802
-0.547627
-0.521567
-0.506469
-0.502188
-0.508556
-0.525421
-0.552785
-0.590669
-0.638955
-1.9955
-1.82024
-1.66279
-1.51997
-1.39322
-1.28088
-1.18226
-1.09667
-1.02364
-0.962811
-0.913909
-0.87671
-0.851027
-0.836704
-0.83359
-0.841536
-0.860422
-0.890203
-0.9308
-0.982248
-2.37943
-2.20253
-2.04204
-1.89628
-1.76595
-1.65011
-1.54828
-1.45991
-1.38459
-1.32197
-1.27178
-1.2338
-1.20784
-1.19373
-1.19132
-1.20046
-1.22103
-1.25295
-1.29613
-1.35055
-2.79841
-2.61906
-2.45463
-2.30492
-2.17039
-2.05051
-1.94495
-1.85329
-1.77518
-1.71032
-1.65845
-1.61934
-1.59279
-1.57865
-1.57674
-1.58693
-1.60908
-1.64308
-1.68884
-1.74631
-3.25
-3.06744
-2.89884
-2.74482
-2.60585
-2.48171
-2.37222
-2.27708
-2.196
-2.12872
-2.075
-2.03462
-2.0074
-1.99316
-1.99174
-2.00299
-2.02677
-2.06296
-2.11142
-2.17209
-3.74038
-3.55311
-3.37961
-3.22068
-3.07682
-2.94804
-2.83427
-2.73531
-2.65095
-2.58097
-2.52515
-2.4833
-2.45522
-2.44075
-2.43973
-2.45199
-2.47741
-2.51583
-2.56711
-2.63121
-4.27635
-4.08288
-3.90341
-3.7387
-3.58924
-3.45521
-3.33661
-3.23333
-3.14522
-3.07211
-3.01381
-2.97013
-2.94091
-2.92597
-2.92515
-2.93829
-2.96526
-3.00588
-3.06001
-3.12762
-4.8656
-4.6645
-4.47782
-4.30625
-4.1503
-4.0102
-3.88603
-3.77776
-3.68529
-3.60847
-3.54717
-3.50121
-3.47043
-3.45466
-3.45375
-3.46754
-3.49587
-3.53858
-3.59551
-3.66665
-5.5183
-5.30799
-5.11268
-4.93298
-4.7694
-4.6222
-4.49152
-4.37738
-4.27973
-4.19847
-4.13347
-4.0846
-4.05169
-4.0346
-4.03316
-4.04722
-4.07662
-4.12119
-4.18075
-4.25532
-6.24817
-6.02686
-5.82125
-5.63187
-5.45923
-5.30362
-5.16522
-5.04408
-4.94019
-4.8535
-4.78391
-4.73128
-4.69548
-4.67635
-4.67376
-4.68754
-4.71753
-4.76354
-4.82541
-4.90317
-7.07396
-6.83952
-6.62159
-6.42065
-6.23719
-6.07151
-5.92382
-5.79422
-5.68274
-5.58933
-5.51392
-5.45641
-5.41666
-5.39454
-5.38991
-5.4026
-5.43246
-5.47926
-5.54286
-5.62333
-8.02139
-7.77129
-7.53861
-7.32376
-7.12726
-6.94943
-6.79048
-6.65055
-6.52968
-6.42787
-6.34505
-6.28115
-6.23605
-6.20962
-6.2017
-6.21217
-6.24082
-6.28746
-6.3519
-6.43429
-9.12599
-8.85716
-8.60674
-8.37512
-8.16283
-7.97021
-7.79749
-7.64482
-7.51229
-7.39989
-7.30759
-7.23532
-7.18298
-7.15044
-7.13756
-7.1442
-7.17018
-7.21523
-7.2792
-7.36228
-10.438
-10.1467
-9.87496
-9.62305
-9.39158
-9.18091
-8.99128
-8.82287
-8.67576
-8.54998
-8.44552
-8.3623
-8.30024
-8.25923
-8.23912
-8.23978
-8.261
-8.30251
-8.36413
-8.44609
-12.0311
-11.713
-11.4155
-11.1391
-10.8844
-10.6518
-10.4414
-10.2536
-10.0883
-9.94573
-9.82573
-9.72832
-9.65339
-9.60084
-9.57054
-9.56234
-9.57606
-9.61138
-9.66809
-9.74644
-13.9943
-13.6447
-13.3168
-13.0114
-12.7291
-12.4702
-12.235
-12.0237
-11.8364
-11.6731
-11.5338
-11.4186
-11.3272
-11.2597
-11.2158
-11.1956
-11.1987
-11.2249
-11.2739
-11.3457
-16.3893
-16.0041
-15.6418
-15.3034
-14.9896
-14.7008
-14.4373
-14.1991
-13.9864
-13.7991
-13.6373
-13.501
-13.3901
-13.3045
-13.2442
-13.2091
-13.1989
-13.2135
-13.2526
-13.3154
-19.5266
-19.1017
-18.7005
-18.3256
-17.9774
-17.6559
-17.3611
-17.093
-16.8515
-16.6367
-16.4485
-16.2871
-16.1522
-16.044
-15.9622
-15.9067
-15.8775
-15.8749
-15.8986
-15.9466
-24.8639
-24.3939
-23.9583
-23.5541
-23.179
-22.8322
-22.5131
-22.2217
-21.9579
-21.7218
-21.5133
-21.3325
-21.1796
-21.0545
-20.9574
-20.8883
-20.848
-20.8387
-20.8618
-20.9071
-0.376017
-0.442491
-0.518589
-0.604231
-0.699332
-0.803784
-0.917457
-1.04019
-1.17176
-1.3119
-1.46024
-1.61626
-1.77915
-1.94769
-2.12023
-2.2945
-2.46601
-2.62498
-2.75601
-2.88548
-0.697645
-0.766392
-0.845126
-0.933735
-1.03211
-1.14013
-1.25765
-1.38446
-1.52034
-1.66497
-1.81796
-1.97874
-2.14653
-2.32019
-2.49809
-2.67859
-2.8599
-3.03431
-3.18661
-3.35851
-1.04442
-1.11701
-1.19995
-1.29312
-1.3964
-1.50963
-1.63265
-1.76524
-1.90715
-2.05805
-2.21751
-2.38496
-2.55967
-2.7406
-2.9264
-3.11587
-3.30805
-3.49856
-3.68167
-3.88729
-1.41614
-1.49258
-1.57979
-1.67762
-1.78594
-1.90458
-2.03335
-2.17202
-2.32031
-2.47787
-2.64426
-2.81893
-3.00117
-3.19008
-3.38458
-3.5838
-3.78695
-3.9917
-4.19855
-4.42786
-1.81543
-1.89587
-1.98754
-2.09029
-2.20394
-2.32833
-2.46324
-2.60842
-2.76359
-2.92837
-3.10234
-3.28496
-3.47558
-3.67343
-3.87767
-4.08771
-4.30293
-4.52229
-4.74842
-4.99448
-2.24505
-2.32979
-2.42626
-2.53429
-2.65372
-2.78434
-2.92593
-3.07824
-3.24095
-3.41372
-3.5961
-3.7876
-3.98764
-4.19556
-4.41075
-4.63278
-4.86127
-5.096
-5.33971
-5.60026
-2.70817
-2.79744
-2.89903
-3.01273
-3.13837
-3.27572
-3.42457
-3.58464
-3.75562
-3.93716
-4.12885
-4.33023
-4.54077
-4.75994
-4.98727
-5.22245
-5.46528
-5.71597
-5.97674
-6.25202
-3.20866
-3.30278
-3.40978
-3.5295
-3.66176
-3.80634
-3.963
-4.13147
-4.31145
-4.50259
-4.70451
-4.91677
-5.13892
-5.3705
-5.61115
-5.86064
-6.11887
-6.38618
-6.66413
-6.9552
-3.75198
-3.85101
-3.96364
-4.08967
-4.22892
-4.38117
-4.54618
-4.72368
-4.91338
-5.11492
-5.32796
-5.5521
-5.78694
-6.03208
-6.28722
-6.55217
-6.82687
-7.11162
-7.40742
-7.71564
-4.34492
-4.4489
-4.56735
-4.69987
-4.8464
-5.00671
-5.18055
-5.36763
-5.56769
-5.78039
-6.0054
-6.24236
-6.4909
-6.75068
-7.02143
-7.30297
-7.59524
-7.89841
-8.21304
-8.53992
-4.99686
-5.10573
-5.22982
-5.36904
-5.52301
-5.69161
-5.87461
-6.07173
-6.28269
-6.50718
-6.74489
-6.9955
-7.25866
-7.53406
-7.82145
-8.12065
-8.43155
-8.75418
-9.08879
-9.43586
-5.72074
-5.8342
-5.9638
-6.10938
-6.27081
-6.44776
-6.64006
-6.84746
-7.06967
-7.3064
-7.55737
-7.82227
-8.10079
-8.39264
-8.69755
-9.01533
-9.34584
-9.68895
-10.0447
-10.4134
-6.53469
-6.65211
-6.78672
-6.93824
-7.1066
-7.29187
-7.49342
-7.71095
-7.94443
-8.19356
-8.45807
-8.73765
-9.032
-9.34084
-9.66391
-10.001
-10.3519
-10.7163
-11.0942
-11.4859
-7.46457
-7.58486
-7.72351
-7.88022
-8.05478
-8.2472
-8.45826
-8.68512
-8.9295
-9.19074
-9.4686
-9.76281
-10.0731
-10.3991
-10.7406
-11.0974
-11.4692
-11.8555
-12.2563
-12.6717
-8.54855
-8.67003
-8.8111
-8.97153
-9.15116
-9.34952
-9.56608
-9.80323
-10.0583
-10.3306
-10.6211
-10.9294
-11.2552
-11.5982
-11.958
-12.3344
-12.7269
-13.1353
-13.5591
-13.9987
-9.84656
-9.96669
-10.1077
-10.2696
-10.4521
-10.655
-10.8776
-11.1201
-11.3828
-11.666
-11.9682
-12.2899
-12.6305
-12.9893
-13.3661
-13.7609
-14.1734
-14.6031
-15.0495
-15.5127
-11.4401
-11.5557
-11.6939
-11.8545
-12.0372
-12.2418
-12.4679
-12.7154
-12.9843
-13.2745
-13.5869
-13.9203
-14.2727
-14.6437
-15.0343
-15.445
-15.8756
-16.325
-16.7923
-17.2774
-13.4
-13.508
-13.6402
-13.7962
-13.9748
-14.1763
-14.401
-14.6487
-14.9191
-15.2117
-15.5258
-15.8618
-16.2212
-16.6046
-17.0103
-17.4369
-17.8841
-18.3515
-18.8381
-19.343
-16.0169
-16.1089
-16.2249
-16.3663
-16.5346
-16.7288
-16.9483
-17.1925
-17.4612
-17.7541
-18.0704
-18.4098
-18.7728
-19.1596
-19.5703
-20.0042
-20.4612
-20.9419
-21.4462
-21.9691
-20.9489
-21.0214
-21.1247
-21.2565
-21.4158
-21.6018
-21.8141
-22.0522
-22.3157
-22.6044
-22.9181
-23.2567
-23.6203
-24.0093
-24.4237
-24.8635
-25.3298
-25.8266
-26.3562
-26.901
-27.4168
-22.5028
-19.8657
-17.7804
-15.9927
-14.4539
-13.1017
-11.8911
-10.795
-9.7953
-8.87896
-8.03624
-7.25951
-6.54253
-5.8801
-5.26767
-4.69998
-4.17144
-3.69051
-3.28614
-27.9604
-23.0525
-20.4039
-18.2984
-16.487
-14.9225
-13.5443
-12.3083
-11.1879
-10.1656
-9.2285
-8.36711
-7.57393
-6.84285
-6.16884
-5.54745
-4.97395
-4.44593
-3.97652
-3.57408
-28.5326
-23.6211
-20.9594
-18.8325
-16.996
-15.4047
-13.9994
-12.737
-11.5916
-10.546
-9.58761
-8.70706
-7.89692
-7.15111
-6.46457
-5.83277
-5.25106
-4.71717
-4.24064
-3.81872
-29.1291
-24.2092
-21.532
-19.3823
-17.5191
-15.8998
-14.4663
-13.1765
-12.0052
-10.9356
-9.95519
-9.05475
-8.22681
-7.46517
-6.76456
-6.12019
-5.52716
-4.98253
-4.49302
-4.05239
-29.7468
-24.8162
-22.1211
-19.9473
-18.0559
-16.407
-14.9442
-13.6261
-12.4281
-11.3335
-10.3304
-9.40932
-8.56277
-7.7844
-7.06867
-6.41049
-5.80465
-5.24765
-4.74437
-4.28762
-30.3843
-25.4425
-22.725
-20.5265
-18.6054
-16.9257
-15.4324
-14.085
-12.8593
-11.7391
-10.7125
-9.77011
-8.90426
-8.10844
-7.37685
-6.70413
-6.08486
-5.51515
-4.99862
-4.5278
-31.0403
-26.0867
-23.343
-21.1187
-19.1669
-17.4551
-15.9302
-14.5524
-13.2982
-12.1517
-11.1009
-10.1366
-9.25095
-8.4372
-7.68936
-7.00181
-6.36899
-5.78678
-5.25769
-4.77421
-31.7136
-26.7467
-23.9752
-21.7234
-19.7395
-17.9943
-16.4367
-15.0277
-13.7441
-12.5705
-11.4951
-10.5084
-9.60252
-8.77055
-8.00624
-7.30379
-6.6575
-6.06305
-5.52199
-5.02676
-32.4028
-27.4212
-24.6206
-22.3396
-20.3223
-18.5426
-16.9512
-15.51
-14.1964
-12.9951
-11.8945
-10.885
-9.95864
-9.10826
-8.32741
-7.61007
-6.95043
-6.34399
-5.79135
-5.28497
-33.1067
-28.1089
-25.2783
-22.9663
-20.9143
-19.0989
-17.4727
-15.9985
-14.6542
-13.4247
-12.2985
-11.266
-10.3189
-9.44999
-8.65256
-7.92038
-7.2475
-6.62924
-6.06527
-5.54809
-33.8241
-28.8087
-25.9471
-23.6027
-21.5147
-19.6625
-18.0006
-16.4926
-15.1169
-13.8588
-12.7066
-11.6507
-10.6828
-9.7953
-8.98128
-8.2343
-7.54826
-6.91825
-6.3431
-5.81536
-34.5538
-29.5196
-26.626
-24.2477
-22.1223
-20.2323
-18.5338
-16.9913
-15.5837
-14.2964
-13.118
-12.0387
-11.0498
-10.1436
-9.31303
-8.55128
-7.85212
-7.2104
-6.62414
-6.08597
-35.2947
-30.2403
-27.3138
-24.9002
-22.7363
-20.8074
-19.0714
-17.4937
-16.0537
-14.737
-13.5321
-12.4291
-11.4193
-10.4944
-9.64723
-8.87073
-8.15846
-7.50503
-6.90766
-6.35916
-36.0458
-30.9698
-28.0092
-25.5589
-23.3554
-21.3867
-19.6125
-17.999
-16.5262
-15.1798
-13.9482
-12.8215
-11.7905
-10.847
-9.98323
-9.19199
-8.46662
-7.80145
-7.19297
-6.63421
-36.8059
-31.7067
-28.7111
-26.2229
-23.9786
-21.9692
-20.156
-18.5063
-17.0002
-15.6238
-14.3655
-13.2149
-12.1629
-11.2007
-10.3204
-9.51442
-8.77595
-8.09901
-7.47938
-6.91042
-37.5737
-32.4498
-29.4181
-26.8908
-24.6047
-22.5537
-20.701
-19.0146
-17.475
-16.0684
-14.7832
-13.6088
-12.5356
-11.5548
-10.658
-9.83736
-9.0858
-8.39705
-7.76624
-7.18716
-38.349
-33.198
-30.1289
-27.5614
-25.2325
-23.1392
-21.2464
-19.5228
-17.9494
-16.5126
-15.2004
-14.0022
-12.9081
-11.9087
-10.9954
-10.1601
-9.39551
-8.69493
-8.05292
-7.46382
-39.133
-33.9506
-30.8421
-28.233
-25.8605
-23.7243
-21.7909
-20.0299
-18.4226
-16.9555
-15.6165
-14.3945
-13.2795
-12.2616
-11.332
-10.4821
-9.70444
-8.99203
-8.33883
-7.73983
-39.9259
-34.7066
-31.5557
-28.904
-26.4874
-24.3078
-22.3335
-20.5349
-18.8937
-17.3963
-16.0305
-14.7849
-13.649
-12.6129
-11.6669
-10.8026
-10.012
-9.28777
-8.62341
-8.01469
-40.7151
-35.461
-32.268
-29.5735
-27.1124
-24.8892
-22.8738
-21.0375
-19.3623
-17.8346
-16.4421
-15.173
-14.0165
-12.962
-12
-11.1212
-10.3177
-9.58168
-8.90619
-8.28794
-6.76797
-4.66486
-3.30696
-2.26342
-1.53054
-0.992332
-0.605819
-0.331445
-0.140946
-0.0126207
0.0701123
0.11986
0.146174
0.156197
0.155226
0.147124
0.134697
0.11994
0.104259
0.088618
0.0736612
0.0597979
0.047264
0.0361789
0.0265633
0.0183974
0.0115868
0.00606819
0.00166996
-0.00163296
-0.00410983
-0.00564203
-0.00669476
-0.00683026
-0.00692625
-0.00592491
-0.00550024
-0.00349206
-0.00298533
0.000123996
-7.0233
-4.84699
-3.45304
-2.37846
-1.6215
-1.0659
-0.66583
-0.381021
-0.182287
-0.047346
0.0408029
0.0950467
0.125137
0.13836
0.140116
0.134345
0.123916
0.11087
0.0966546
0.0822672
0.0683796
0.055426
0.0436634
0.0332297
0.0241613
0.0164533