/*--------------------------------*- C++ -*----------------------------------*\
| =========                 |                                                 |
| \\      /  F ield         | OpenFOAM: The Open Source CFD Toolbox           |
|  \\    /   O peration     | Version:  v1912                                 |
|   \\  /    A nd           | Website:  www.openfoam.com                      |
|    \\/     M anipulation  |                                                 |
\*---------------------------------------------------------------------------*/
FoamFile
{
    version     2.0;
    format      ascii;
    class       surfaceScalarField;
    location    "41.5";
    object      phi;
}
// * * * * * * * * * * * * * * * * * * * * * * * * * * * * * * * * * * * * * //

dimensions      [0 3 -1 0 0 0 0];
oriented        oriented;


internalField   nonuniform List<scalar> 
18940
(
0.000357579
-0.234374
0.234017
0.00137655
-0.216343
0.215324
0.00287788
-0.204808
0.203307
0.00469131
-0.197022
0.195209
0.00668624
-0.191262
0.189267
0.00876113
-0.186462
0.184387
0.0108423
-0.182035
0.179954
0.0128804
-0.177685
0.175647
0.0148453
-0.173289
0.171324
0.0167217
-0.168818
0.166941
0.0185048
-0.164293
0.162509
0.0201972
-0.159756
0.158064
0.0218057
-0.155256
0.153647
0.0233403
-0.150835
0.149301
0.0248122
-0.146531
0.145059
0.0262329
-0.142366
0.140946
0.027614
-0.138355
0.136974
0.028966
-0.134493
0.133141
0.0302973
-0.130762
0.129431
-0.127122
0.125806
0.0316131
0.000380991
-0.234755
0.00141985
-0.217382
0.00293189
-0.20632
0.00474966
-0.19884
0.00673911
-0.193251
0.00879876
-0.188522
0.0108562
-0.184092
0.0128636
-0.179692
0.0147928
-0.175218
0.0166302
-0.170655
0.0183727
-0.166035
0.0200241
-0.161407
0.0215923
-0.156824
0.0230879
-0.152331
0.0245225
-0.147965
0.0259081
-0.143752
0.0272563
-0.139703
0.028578
-0.135815
0.0298822
-0.132067
-0.128415
0.0311748
0.000402405
-0.235158
0.00145748
-0.218437
0.00297826
-0.207841
0.00479662
-0.200658
0.00677696
-0.195232
0.00881771
-0.190563
0.0108477
-0.186122
0.012821
-0.181666
0.0147113
-0.177108
0.016507
-0.172451
0.0182064
-0.167735
0.0198147
-0.163016
0.0213408
-0.15835
0.0227958
-0.153786
0.0241918
-0.149361
0.0255408
-0.145101
0.0268549
-0.141017
0.0281451
-0.137105
0.0294209
-0.133342
-0.129683
0.030689
0.00041627
-0.235574
0.00148639
-0.219507
0.00301505
-0.20937
0.00483145
-0.202475
0.00679931
-0.1972
0.00881761
-0.192581
0.0108167
-0.188121
0.0127526
-0.183602
0.0146011
-0.178957
0.0163524
-0.174202
0.0180066
-0.169389
0.0195699
-0.164579
0.0210523
-0.159832
0.0224653
-0.155199
0.0238214
-0.150717
0.0251328
-0.146412
0.0264116
-0.142296
0.0276693
-0.138363
0.0289157
-0.134589
-0.130926
0.0301585
0.000427533
-0.236002
0.00150992
-0.22059
0.00304363
-0.210903
0.0048548
-0.204286
0.00680663
-0.199151
0.00879893
-0.194573
0.0107637
-0.190086
0.0126591
-0.185497
0.014463
-0.180761
0.0161675
-0.175907
0.0177744
-0.170996
0.019291
-0.166096
0.0207281
-0.161269
0.0220979
-0.156569
0.0234129
-0.152032
0.0246856
-0.147685
0.0259282
-0.143538
0.0271523
-0.139587
0.0283686
-0.135805
-0.132143
0.0295854
0.000436621
-0.236438
0.00152847
-0.221681
0.00306423
-0.212439
0.00486691
-0.206089
0.00679923
-0.201084
0.00876206
-0.196536
0.0106893
-0.192013
0.0125411
-0.187349
0.0142978
-0.182517
0.0159532
-0.177562
0.0175107
-0.172553
0.0189789
-0.167564
0.0203694
-0.16266
0.0216947
-0.157894
0.0229675
-0.153305
0.0242005
-0.148918
0.0254059
-0.144744
0.0265956
-0.140777
0.0277807
-0.13699
-0.133333
0.0289709
0.000444099
-0.236882
0.00154273
-0.22278
0.00307743
-0.213974
0.00486826
-0.20788
0.00677762
-0.202993
0.00870758
-0.198466
0.010594
-0.1939
0.0123995
-0.189154
0.0141063
-0.184224
0.0157104
-0.179166
0.0172167
-0.174059
0.0186349
-0.168982
0.0199773
-0.164002
0.0212569
-0.159174
0.0224865
-0.154535
0.0236786
-0.15011
0.0248457
-0.145911
0.0259999
-0.141931
0.0271529
-0.138143
-0.134495
0.0283155
0.000450123
-0.237332
0.00155302
-0.223883
0.00308364
-0.215504
0.00485932
-0.209655
0.00674235
-0.204876
0.00863616
-0.20036
0.0104788
-0.195742
0.0122351
-0.190911
0.0138896
-0.185879
0.0154403
-0.180717
0.0168935
-0.175512
0.0182601
-0.170349
0.019553
-0.165295
0.0207855
-0.160406
0.0219705
-0.15572
0.0231206
-0.15126
0.0242481
-0.147038
0.0253655
-0.143048
0.0264852
-0.139263
-0.135629
0.0276191
0.000454799
-0.237787
0.00155962
-0.224988
0.00308329
-0.217028
0.00484067
-0.211413
0.0066941
-0.20673
0.00854864
-0.202214
0.0103445
-0.197538
0.012049
-0.192615
0.013649
-0.187479
0.0151441
-0.182212
0.0165424
-0.176911
0.0178556
-0.171662
0.0190974
-0.166537
0.0202814
-0.16159
0.0214205
-0.156859
0.0225271
-0.152367
0.0236134
-0.148125
0.0246924
-0.144127
0.0257771
-0.140348
-0.136733
0.0268809
0.000458201
-0.238245
0.00156282
-0.226092
0.00307687
-0.218542
0.00481292
-0.213149
0.0066337
-0.20855
0.00844597
-0.204027
0.0101923
-0.199285
0.0118425
-0.194265
0.0133856
-0.189022
0.0148232
-0.18365
0.0161646
-0.178252
0.0174227
-0.17292
0.0186118
-0.167726
0.0197455
-0.162724
0.0208369
-0.15795
0.0218982
-0.153428
0.0229414
-0.149168
0.0239797
-0.145166
0.0250273
-0.141395
-0.137805
0.0260989
0.000460434
-0.238706
0.00156296
-0.227195
0.00306494
-0.220044
0.00477686
-0.214861
0.00656207
-0.210336
0.00832928
-0.205794
0.0100235
-0.200979
0.0116171
-0.195859
0.0131011
-0.190506
0.0144791
-0.185028
0.0157618
-0.179535
0.0169629
-0.174121
0.0180973
-0.16886
0.0191789
-0.163805
0.0202205
-0.158992
0.021234
-0.154442
0.0222317
-0.150166
0.0232265
-0.146161
0.0242339
-0.142403
-0.138841
0.0252705
0.000461653
-0.239168
0.0015605
-0.228294
0.00304819
-0.221532
0.00473337
-0.216546
0.00648033
-0.212083
0.00819991
-0.207513
0.00983966
-0.202619
0.0113743
-0.197393
0.0127972
-0.191929
0.0141137
-0.186344
0.0153357
-0.180757
0.0164779
-0.175263
0.0175555
-0.169938
0.0185825
-0.164832
0.0195718
-0.159981
0.020535
-0.155405
0.0214838
-0.151114
0.0224316
-0.147108
0.0233949
-0.143366
-0.139839
0.0243926
0.000462139
-0.23963
0.00155604
-0.229388
0.00302746
-0.223003
0.00468353
-0.218202
0.00638978
-0.213789
0.00805938
-0.209183
0.00964247
-0.204202
0.0111162
-0.198867
0.0124762
-0.193289
0.0137294
-0.187597
0.0148887
-0.181916
0.0159699
-0.176345
0.0169882
-0.170956
0.0179581
-0.165802
0.0188921
-0.160915
0.0198014
-0.156314
0.0206974
-0.15201
0.0215937
-0.148005
0.0225078
-0.14428
-0.140793
0.0234614
0.000462368
-0.240092
0.00155045
-0.230476
0.00300382
-0.224457
0.00462858
-0.219827
0.00629189
-0.215452
0.00790943
-0.210801
0.009434
-0.205726
0.0108452
-0.200278
0.0121406
-0.194584
0.0133287
-0.188785
0.0144236
-0.183011
0.0154415
-0.177362
0.0163981
-0.171913
0.0173077
-0.166712
0.0181827
-0.16179
0.0190338
-0.157165
0.019872
-0.152849
0.0207108
-0.148843
0.0215687
-0.145138
-0.141694
0.0224704
0.000463143
-0.240555
0.00154489
-0.231558
0.00297849
-0.22589
0.00456987
-0.221418
0.00618826
-0.21707
0.00775199
-0.212364
0.00921649
-0.207191
0.0105638
-0.201626
0.0117934
-0.195813
0.0129151
-0.189907
0.0139441
-0.18404
0.0148967
-0.178315
0.0157889
-0.172805
0.0166348
-0.167558
0.0174463
-0.162601
0.0182337
-0.157953
0.0190073
-0.153622
0.01978
-0.149616
0.0205713
-0.145929
-0.142534
0.0214114
0.000465611
-0.241021
0.00154066
-0.232633
0.00295265
-0.227302
0.00450877
-0.222974
0.00608059
-0.218642
0.00758911
-0.213873
0.00899243
-0.208594
0.0102749
-0.202908
0.0114379
-0.196977
0.0124926
-0.190962
0.0134545
-0.185002
0.0143405
-0.179201
0.0151662
-0.173631
0.0159452
-0.168337
0.0166889
-0.163345
0.0174065
-0.15867
0.0181074
-0.154323
0.0188032
-0.150312
0.0195147
-0.146641
-0.143301
0.0202809
0.000471163
-0.241492
0.00153907
-0.2337
0.00292764
-0.228691
0.00444684
-0.224493
0.00597073
-0.220166
0.00742299
-0.215325
0.00876445
-0.209935
0.00998177
-0.204125
0.0110781
-0.198073
0.0120655
-0.191949
0.0129601
-0.185897
0.0137786
-0.180019
0.0145362
-0.174389
0.0152461
-0.169047
0.0159184
-0.164017
0.0165616
-0.159313
0.017183
-0.154945
0.0177928
-0.150922
0.0184115
-0.147259
-0.143968
0.0190792
0.000482127
-0.241974
0.00154276
-0.234761
0.00290593
-0.230054
0.00438619
-0.225974
0.00586063
-0.221641
0.00725574
-0.21672
0.00853508
-0.211215
0.00968757
-0.205278
0.0107179
-0.199103
0.0116389
-0.19287
0.0124669
-0.186725
0.013218
-0.180771
0.0139066
-0.175077
0.0145445
-0.169685
0.0151409
-0.164614
0.0157032
-0.159876
0.0162378
-0.155479
0.0167511
-0.151435
0.0172561
-0.147764
-0.144489
0.0177767
0.000506084
-0.24248
0.00155894
-0.235814
0.00289156
-0.231387
0.00432873
-0.227411
0.00575154
-0.223063
0.00708878
-0.218057
0.00830635
-0.212432
0.00939524
-0.206367
0.0103615
-0.200069
0.0112187
-0.193728
0.0119829
-0.187489
0.0126693
-0.181457
0.0132902
-0.175698
0.0138549
-0.170249
0.0143691
-0.165128
0.0148365
-0.160343
0.015259
-0.155902
0.0156355
-0.151812
0.0159703
-0.148099
-0.144844
0.0163256
0.000563152
-0.243043
0.00159592
-0.236847
0.0028843
-0.232675
0.00427327
-0.2288
0.00564296
-0.224433
0.00692251
-0.219337
0.00807956
-0.213589
0.00910708
-0.207394
0.0100126
-0.200975
0.0108106
-0.194526
0.0115171
-0.188195
0.0121465
-0.182086
0.0127094
-0.176261
0.0132114
-0.170751
0.0136522
-0.165569
0.0140246
-0.160715
0.0143115
-0.156189
0.014487
-0.151987
0.0145458
-0.148158
-0.145015
0.0147171
0.250717
0.000414689
-0.251132
0.250329
0.00038832
0.249948
0.000381043
0.249567
0.000381167
0.249182
0.000384106
0.248794
0.00038851
0.2484
0.000393656
0.248001
0.000398954
0.247597
0.000404013
0.247189
0.000408627
0.246776
0.000412699
0.24636
0.000416204
0.245941
0.000419123
0.245519
0.000421433
0.245096
0.000423009
0.244673
0.000423646
0.24425
0.000422297
0.243832
0.000418411
0.243429
0.000402789
0.000385687
0.252669
0.00102255
-0.253277
0.252026
0.00103172
0.251354
0.00105277
0.250655
0.00107973
0.249932
0.00110806
0.249184
0.0011364
0.248413
0.00116428
0.247621
0.00119121
0.246808
0.00121676
0.245976
0.00124067
0.245126
0.00126284
0.244259
0.00128324
0.243376
0.00130187
0.242479
0.00131871
0.241568
0.00133363
0.240645
0.00134642
0.239712
0.00135598
0.238768
0.00136203
0.237813
0.00135832
0.00135148
0.251437
0.00159389
-0.252008
0.250801
0.00166772
0.250112
0.00174178
0.249374
0.00181693
0.248592
0.00189084
0.247766
0.0019623
0.246899
0.00203096
0.245994
0.0020966
0.245051
0.00215898
0.244074
0.00221794
0.243064
0.00227342
0.242021
0.00232548
0.240949
0.0023742
0.239848
0.00241968
0.23872
0.00246195
0.237565
0.00250103
0.236385
0.00253641
0.235178
0.00256833
0.233942
0.0025944
0.00261881
0.247322
0.00203687
-0.247765
0.246809
0.0021803
0.246232
0.00231912
0.245594
0.00245475
0.244898
0.00258655
0.244147
0.00271372
0.243342
0.00283592
0.242486
0.002953
0.24158
0.0030648
0.240626
0.00317126
0.239627
0.00327239
0.238585
0.00336832
0.2375
0.00345926
0.236374
0.00354548
0.235208
0.00362727
0.234004
0.00370498
0.232762
0.00377871
0.231481
0.00384908
0.23016
0.00391538
0.00397961
0.241068
0.00231569
-0.241347
0.240718
0.00253036
0.240299
0.00273826
0.239813
0.00294023
0.239263
0.00313624
0.238651
0.00332581
0.237979
0.00350863
0.237247
0.00368449
0.236459
0.00385328
0.235615
0.00401496
0.234718
0.00416959
0.233769
0.00431739
0.232769
0.00445868
0.231721
0.00459391
0.230625
0.00472362
0.229481
0.00484853
0.22829
0.00496921
0.227053
0.00508663
0.225767
0.00520094
0.00531381
0.233467
0.00243897
-0.23359
0.233273
0.00272418
0.23301
0.00300146
0.232679
0.00327112
0.232282
0.00353318
0.23182
0.00378734
0.231296
0.00403327
0.230709
0.00427074
0.230063
0.00449962
0.229358
0.00471987
0.228596
0.00493158
0.227778
0.00513502
0.226907
0.00533061
0.225981
0.005519
0.225004
0.00570097
0.223975
0.00587756
0.222894
0.00604983
0.221762
0.00621915
0.220576
0.00638638
0.00655338
0.225221
0.00243723
-0.225219
0.225155
0.00279042
0.225021
0.00313494
0.224822
0.00347071
0.224557
0.00379766
0.224229
0.00411551
0.223838
0.00442393
0.223386
0.00472264
0.222875
0.00501145
0.222304
0.00529032
0.221676
0.00555935
0.220992
0.00581883
0.220254
0.00606927
0.219461
0.00631147
0.218616
0.00654648
0.217718
0.00677569
0.216767
0.00700064
0.215763
0.00722323
0.214704
0.00744501
0.00766813
0.216857
0.00234659
-0.216767
0.216884
0.00276423
0.216846
0.00317259
0.216745
0.00357138
0.216583
0.00396039
0.216359
0.00433929
0.216075
0.00470772
0.215732
0.00506534
0.215332
0.00541192
0.214875
0.00574735
0.214362
0.00607172
0.213796
0.00638532
0.213176
0.00668874
0.212505
0.00698288
0.211782
0.00726908
0.211009
0.00754908
0.210185
0.00782498
0.209309
0.00809931
0.208379
0.00837441
0.00865299
0.208723
0.00220032
-0.208577
0.208809
0.00267862
0.208834
0.00314708
0.2088
0.00360526
0.208708
0.00405282
0.208558
0.00448939
0.208351
0.00491452
0.208089
0.0053278
0.207772
0.00572894
0.207401
0.00611776
0.206979
0.00649427
0.206505
0.00685876
0.205982
0.00721181
0.20541
0.00755445
0.204791
0.00788823
0.204125
0.00821528
0.203412
0.00853834
0.20265
0.0088607
0.201839
0.00918579
0.00951713
0.201018
0.00202539
-0.200843
0.201136
0.00256078
0.201197
0.00308575
0.201203
0.00359976
0.201153
0.00410238
0.201049
0.00459313
0.200892
0.00507148
0.200683
0.00553696
0.200423
0.00598916
0.200113
0.0064278
0.199754
0.00685282
0.199349
0.00726439
0.198897
0.00766308
0.198402
0.00804994
0.197863
0.00842672
0.197283
0.00879589
0.19666
0.00916096
0.195995
0.00952608
0.195284
0.00989619
0.0102761
0.193835
0.00184163
-0.193651
0.193965
0.002431
0.194041
0.00300937
0.194065
0.00357608
0.194037
0.0041306
0.193958
0.00467236
0.193828
0.00520074
0.19365
0.00571515
0.193424
0.00621508
0.193152
0.00670012
0.192835
0.00717006
0.192474
0.00762491
0.192072
0.00806514
0.19163
0.0084917
0.19115
0.00890651
0.190634
0.00931222
0.190082
0.00971326
0.189493
0.0101147
0.188866
0.0105237
0.0109467
0.187197
0.00166244
-0.187018
0.187325
0.00230328
0.187402
0.00293252
0.187429
0.00354935
0.187406
0.00415313
0.187335
0.00474322
0.187217
0.00531888
0.187053
0.00587943
0.186844
0.00642419
0.186591
0.00695261
0.186297
0.00746426
0.185963
0.00795893
0.185591
0.00843688
0.185184
0.00889881
0.184744
0.00934667
0.184273
0.00978305
0.183773
0.0102135
0.183244
0.0106437
0.182683
0.0110843
0.0115437
0.181085
0.00149614
-0.180919
0.181202
0.00218661
0.18127
0.00286474
0.18129
0.00352962
0.181262
0.00418056
0.181189
0.00481681
0.18107
0.00543755
0.180907
0.00604194
0.180702
0.00662917
0.180457
0.00719846
0.180172
0.00774916
0.17985
0.00828072
0.179494
0.00879309
0.179106
0.00928647
0.17869
0.00976271
0.178249
0.0102239
0.177786
0.0106769
0.177302
0.0111272
0.176796
0.0115912
0.0120782
0.175456
0.00134758
-0.175308
0.175557
0.00208616
0.17561
0.00281161
0.175617
0.00352297
0.175578
0.00421945
0.175494
0.00490018
0.175368
0.00556424
0.175199
0.00621068
0.17499
0.00683851
0.174741
0.00744673
0.174456
0.00803438
0.174136
0.00860052
0.173785
0.00914463
0.173405
0.00966617
0.173001
0.0101667
0.172578
0.0106468
0.17214
0.0111154
0.171691
0.0115755
0.171229
0.0120534
0.012556
0.170259
0.00121904
-0.17013
0.17034
0.00200463
0.170376
0.00277615
0.170366
0.0035327
0.170312
0.00427339
0.170215
0.00499725
0.170076
0.00570327
0.169896
0.00639036
0.169677
0.00705736
0.169421
0.00770302
0.169129
0.00832607
0.168805
0.00892507
0.168451
0.00949892
0.168071
0.0100461
0.16767
0.0105674
0.167256
0.0110612
0.166833
0.0115384
0.166412
0.0119957
0.165989
0.012477
0.0129758
0.165437
0.00111128
-0.165329
0.165499
0.00194281
0.165516
0.00275935
0.165488
0.00355999
0.165418
0.00434376
0.165306
0.00510963
0.165153
0.00585646
0.16496
0.00658306
0.164729
0.00728808
0.164462
0.00797005
0.164161
0.00862734
0.163828
0.00925801
0.163467
0.00986027
0.163081
0.0104313
0.162678
0.0109709
0.162265
0.0114737
0.161851
0.0119532
0.161454
0.0123927
0.161065
0.0128653
0.0133256
0.16094
0.00102381
-0.160852
0.160982
0.00190022
0.160981
0.00276077
0.160937
0.00360446
0.16085
0.00443026
0.160723
0.00523704
0.160555
0.00602362
0.16035
0.00678866
0.160107
0.00753068
0.159829
0.00824798
0.159518
0.00893861
0.159176
0.00960014
0.158806
0.01023
0.158413
0.0108239
0.158004
0.0113805
0.157589
0.0118887
0.157177
0.0123649
0.156801
0.0127693
0.156443
0.0132234
0.0135796
0.15672
0.000954803
-0.156651
0.156744
0.00187532
0.156727
0.00277872
0.156667
0.00366429
0.156566
0.00453092
0.156426
0.0053774
0.156247
0.00620249
0.156031
0.00700478
0.155779
0.00778266
0.155492
0.00853423
0.155174
0.00925729
0.154825
0.00994895
0.154449
0.010606
0.15405
0.0112227
0.153635
0.011796
0.153215
0.0123082
0.152803
0.0127767
0.152448
0.0131247
0.152114
0.013557
0.0137067
0.152734
0.000902304
-0.152681
0.152744
0.00186526
0.152712
0.00280998
0.152641
0.0037359
0.15253
0.00464172
0.152381
0.00552624
0.152195
0.0063882
0.151974
0.00722611
0.151719
0.00803826
0.15143
0.00882262
0.151111
0.00957681
0.150762
0.0102976
0.150387
0.0109814
0.149988
0.0116212
0.149572
0.0122126
0.149149
0.0127304
0.148734
0.0131923
0.148399
0.0134592
0.148107
0.0138498
0.0136553
0.148943
-0.148905
0.000864751
0.148942
0.0018661
0.148902
0.00285018
0.148823
0.00381422
0.148708
0.00475684
0.148558
0.00567697
0.148372
0.00657334
0.148154
0.00744442
0.147904
0.00828842
0.147623
0.00910326
0.147314
0.00988648
0.146977
0.0106347
0.146614
0.0113442
0.146228
0.0120068
0.145822
0.0126186
0.145405
0.0131475
0.144982
0.0136154
0.144631
0.0138098
0.144374
0.0141074
0.0130136
0.25435
7.40637e-05
-0.254424
0.254314
3.63484e-05
0.254281
3.24868e-05
0.25424
4.13929e-05
0.254184
5.57992e-05
0.254111
7.36265e-05
0.254017
9.35723e-05
0.253903
0.000114513
0.253767
0.000135634
0.25361
0.000156429
0.253434
0.000176459
0.253239
0.000195442
0.253025
0.000213867
0.252792
0.000232788
0.252542
0.000250066
0.252277
0.000265234
0.251999
0.000277886
0.251711
0.000287933
0.251421
0.000289517
0.000289516
0.256193
-0.00024121
-0.255878
0.256446
-0.000217342
0.256655
-0.000176503
0.25682
-0.000122786
0.256938
-6.27054e-05
0.257011
1.13472e-06
0.257037
6.75916e-05
0.257016
0.000135574
0.256947
0.00020416
0.256831
0.000272416
0.256668
0.000339097
0.256461
0.000402967
0.256212
0.000462791
0.255915
0.00053005
0.255573
0.000591732
0.255189
0.000648834
0.254766
0.000701233
0.254305
0.000748868
0.253808
0.000787083
0.000820097
0.251618
-0.000897242
-0.250962
0.252201
-0.000800499
0.252718
-0.000693906
0.253173
-0.000577629
0.253566
-0.00045518
0.253896
-0.000328802
0.254163
-0.000199642
0.254368
-6.91094e-05
0.254509
6.28065e-05
0.254586
0.000195546
0.2546
0.000325255
0.254551
0.000451556
0.254437
0.000576744
0.254265
0.000701656
0.254035
0.00082243
0.253745
0.000938197
0.253398
0.00104848
0.252994
0.00115317
0.252531
0.00125032
0.00134274
0.243295
-0.00183189
-0.24236
0.244157
-0.00166247
0.244949
-0.00148578
0.245672
-0.00130108
0.246327
-0.00111004
0.246913
-0.000914483
0.247429
-0.000715743
0.247875
-0.000515083
0.248251
-0.000313196
0.248554
-0.000107317
0.248784
9.43984e-05
0.248947
0.000288905
0.249039
0.000485346
0.249061
0.000678767
0.249016
0.000868112
0.248901
0.00105247
0.248719
0.00123109
0.248468
0.00140361
0.24815
0.00156896
0.00172771
0.233211
-0.00296519
-0.232078
0.234276
-0.00272762
0.235273
-0.00248254
0.236201
-0.00222952
0.237061
-0.00196948
0.23785
-0.00170391
0.238569
-0.00143423
0.239215
-0.00116167
0.239789
-0.000887172
0.240294
-0.00061153
0.240726
-0.000337961
0.241083
-6.78918e-05
0.241367
0.000200758
0.24158
0.000466075
0.24172
0.000727672
0.241789
0.000984107
0.241785
0.00123464
0.24171
0.00147869
0.241564
0.00171543
0.00194479
0.222655
-0.00422483
-0.221395
0.223851
-0.003924
0.224983
-0.00361409
0.226048
-0.00329525
0.227047
-0.00296829
0.227978
-0.00263464
0.22884
-0.00229587
0.229631
-0.00195344
0.230353
-0.00160878
0.231005
-0.00126326
0.231585
-0.00091843
0.232093
-0.000575576
0.232529
-0.000235563
0.232895
0.000100069
0.23319
0.000432808
0.233413
0.000761539
0.233564
0.00108358
0.233643
0.00139886
0.233652
0.00170675
0.00200701
0.212409
-0.00555331
-0.211081
0.213679
-0.0051934
0.214887
-0.0048223
0.216032
-0.00444066
0.217114
-0.00404952
0.218129
-0.00365049
0.219079
-0.00324538
0.219961
-0.00283593
0.220776
-0.00242378
0.221524
-0.0020104
0.222202
-0.00159718
0.222812
-0.00118554
0.223353
-0.00077627
0.223823
-0.000370112
0.224231
2.52513e-05
0.224566
0.000426141
0.224832
0.0008174
0.22503
0.00120134
0.225159
0.00157789
0.00194664
0.202886
-0.00690888
-0.20153
0.204185
-0.00649321
0.205427
-0.00606396
0.206609
-0.00562215
0.207728
-0.00516926
0.208785
-0.0047073
0.209778
-0.00423841
0.210707
-0.00376458
0.211571
-0.00328767
0.21237
-0.00280928
0.213103
-0.0023309
0.213772
-0.0018539
0.214375
-0.00137934
0.214913
-0.000908183
0.21538
-0.0004418
0.215792
1.36953e-05
0.216133
0.000476711
0.216409
0.000924972
0.216621
0.00136668
0.0018005
0.194242
-0.00826377
-0.192887
0.195544
-0.00779489
0.19679
-0.00730973
0.197977
-0.00680963
0.199104
-0.00629674
0.200171
-0.00577365
0.201175
-0.00524294
0.202118
-0.00470691
0.202998
-0.00416764
0.203815
-0.00362689
0.204571
-0.00308622
0.205264
-0.00254695
0.205895
-0.00201025
0.206463
-0.00147707
0.20697
-0.000948798
0.207411
-0.000426751
0.207797
9.05806e-05
0.208118
0.00060373
0.208378
0.00110674
0.00160189
0.186486
-0.00960126
-0.185149
0.187772
-0.00908113
0.189004
-0.00854153
0.190179
-0.00798418
0.191294
-0.00741224
0.19235
-0.00682912
0.193345
-0.00623791
0.194279
-0.00564128
0.195153
-0.00504153
0.195967
-0.00444056
0.19672
-0.00383994
0.197414
-0.00324098
0.198049
-0.00264483
0.198624
-0.00205246
0.19914
-0.00146487
0.199597
-0.000882958
0.199995
-0.000307471
0.200336
0.000262017
0.200619
0.000824527
0.00137755
0.179546
-0.0109126
-0.178235
0.180808
-0.010343
0.182016
-0.00974974
0.183168
-0.00913535
0.18426
-0.00850456
0.185293
-0.00786184
0.186266
-0.00721084
0.187179
-0.00655466
0.188033
-0.0058958
0.188829
-0.00523625
0.189567
-0.00457755
0.190246
-0.00392096
0.190869
-0.00326755
0.191435
-0.00261826
0.191944
-0.00197392
0.192397
-0.00133541
0.192792
-0.000703246
0.193135
-8.03614e-05
0.193421
0.000538586
0.00114678
0.173318
-0.0121949
-0.172036
0.174553
-0.0115775
0.175734
-0.0109307
0.176857
-0.0102587
0.177921
-0.00956858
0.178925
-0.00886608
0.17987
-0.00815551
0.180756
-0.00744035
0.181583
-0.00672333
0.182353
-0.0060064
0.183067
-0.00529104
0.183724
-0.00457841
0.184326
-0.00386945
0.184873
-0.00316505
0.185365
-0.00246596
0.185803
-0.00177302
0.186186
-0.00108698
0.186515
-0.0004094
0.186794
0.000259883
0.000922668
0.167693
-0.0134489
-0.166439
0.168901
-0.012786
0.170055
-0.012085
0.171151
-0.0113538
0.172185
-0.0106033
0.173159
-0.00984033
0.174074
-0.00906989
0.174929
-0.00829595
0.175727
-0.0075213
0.176469
-0.00674783
0.177155
-0.00597683
0.177786
-0.00520931
0.178362
-0.0044461
0.178885
-0.00368795
0.179355
-0.00293558
0.179771
-0.00218979
0.180136
-0.00145108
0.180446
-0.000720158
0.18071
-3.81138e-06
0.000713556
0.162569
-0.0146784
-0.16134
0.163757
-0.0139734
0.164888
-0.0132161
0.165957
-0.0124233
0.166964
-0.0116105
0.16791
-0.0107856
0.168794
-0.00995441
0.16962
-0.0091214
0.170388
-0.00828929
0.1711
-0.00745973
0.171756
-0.00663378
0.172359
-0.00581221
0.172909
-0.00499567
0.173406
-0.00418479
0.17385
-0.00338023
0.174243
-0.00258271
0.174585
-0.0017929
0.174877
-0.0010121
0.175115
-0.000242116
0.000521075
0.157866
-0.0158901
-0.156654
0.159039
-0.0151472
0.160153
-0.0143297
0.161201
-0.0134714
0.162184
-0.0125931
0.163102
-0.0117037
0.163958
-0.0108102
0.164754
-0.00991727
0.165492
-0.00902747
0.166174
-0.00814203
0.166802
-0.00726161
0.167376
-0.00638667
0.167898
-0.00551759
0.168368
-0.00465486
0.168787
-0.00379901
0.169155
-0.00295075
0.169473
-0.00211084
0.169741
-0.0012802
0.169959
-0.000459986
0.000350071
0.153519
-0.0170965
-0.152312
0.154689
-0.0163177
0.155792
-0.0154326
0.156824
-0.0145029
0.157784
-0.0135535
0.158676
-0.0125953
0.159503
-0.0116369
0.160268
-0.010683
0.160976
-0.00973521
0.161628
-0.00879416
0.162227
-0.00785991
0.162772
-0.0069324
0.163266
-0.00601168
0.163709
-0.005098
0.164102
-0.00419182
0.164445
-0.00329373
0.164739
-0.0024045
0.164984
-0.00152493
0.16518
-0.000656244
0.0002006
0.149483
-0.0183267
-0.148253
0.150666
-0.0175002
0.151764
-0.0165312
0.152782
-0.0155202
0.153719
-0.0144904
0.154581
-0.0134573
0.155375
-0.0124315
0.156108
-0.0114158
0.156783
-0.0104104
0.157404
-0.00941474
0.157972
-0.00842789
0.158489
-0.0074491
0.158955
-0.00647797
0.159371
-0.00551451
0.159739
-0.00455905
0.160057
-0.00361214
0.160327
-0.00267453
0.160549
-0.00174708
0.160724
-0.000830794
7.19878e-05
0.145729
-0.0196454
-0.144411
0.146946
-0.0187166
0.148041
-0.0176262
0.149038
-0.0165181
0.149944
-0.0153955
0.150768
-0.0142814
0.151523
-0.0131874
0.152219
-0.0121114
0.152859
-0.0110504
0.153447
-0.0100024
0.153984
-0.00896512
0.154472
-0.00793696
0.154911
-0.00691706
0.155302
-0.00590524
0.155644
-0.00490174
0.155939
-0.00390712
0.156187
-0.00292215
0.156388
-0.00194789
0.156542
-0.000985317
-3.63836e-05
0.142273
-0.0211222
-0.140796
0.14352
-0.019964
0.144593
-0.0186991
0.145549
-0.0174739
0.146406
-0.016252
0.147181
-0.015057
0.147892
-0.0138977
0.148546
-0.0127659
0.14915
-0.0116539
0.149705
-0.0105572
0.150212
-0.00947243
0.150672
-0.00839721
0.151085
-0.00733038
0.151452
-0.00627172
0.151772
-0.00522151
0.152045
-0.00418038
0.152272
-0.00314917
0.152453
-0.00212906
0.152589
-0.00112155
-0.000128187
0.139183
-0.137767
-0.0225388
0.140344
-0.0211248
0.141377
-0.0197319
0.142253
-0.0183502
0.143042
-0.0170407
0.143765
-0.0157802
0.14443
-0.0145624
0.145044
-0.0133803
0.145613
-0.0122226
0.146137
-0.0110813
0.146616
-0.00995178
0.147051
-0.00883154
0.14744
-0.00771942
0.147783
-0.00661531
0.148081
-0.00551969
0.148334
-0.00443335
0.148542
-0.00335726
0.148706
-0.00229242
0.148825
-0.00124043
-0.000208737
0.0307873
0.111989
-0.110507
-0.0322693
0.0292781
0.114996
-0.113486
0.0277389
0.118135
-0.116596
0.0261663
0.12143
-0.119858
0.0245568
0.124914
-0.123305
0.0229077
0.128628
-0.126979
0.0212169
0.132632
-0.130941
0.0194831
0.137003
-0.135269
0.0177055
0.141845
-0.140068
0.0158844
0.147291
-0.14547
0.0140218
0.1535
-0.151638
0.0121217
0.160659
-0.158759
0.0101931
0.16897
-0.167041
0.0082526
0.178619
-0.176679
0.00633014
0.18973
-0.187808
0.00447578
0.202268
-0.200413
0.00276921
0.215894
-0.214188
0.00133081
0.229756
-0.228318
0.000329737
0.242073
-0.241072
0.249715
-0.249385
0.0305995
0.113464
-0.0320739
0.0290978
0.116497
0.0275663
0.119666
0.0260016
0.122995
0.0244003
0.126515
0.0227595
0.130269
0.021077
0.134314
0.0193513
0.138728
0.0175816
0.143615
0.0157681
0.149105
0.0139129
0.155355
0.0120204
0.162552
0.0101001
0.17089
0.00816949
0.18055
0.00625961
0.19164
0.00442205
0.204105
0.00273797
0.217578
0.0013272
0.231167
0.000353522
0.243047
0.250068
0.0303697
0.114929
-0.0318345
0.0288777
0.117989
0.0273563
0.121188
0.0258017
0.124549
0.0242107
0.128106
0.0225804
0.1319
0.0209084
0.135986
0.019193
0.140444
0.0174335
0.145375
0.01563
0.150908
0.0137846
0.157201
0.0119022
0.164434
0.00999262
0.1728
0.00807431
0.182468
0.00617917
0.193535
0.00435983
0.205924
0.00269799
0.21924
0.00131184
0.232553
0.000356619
0.244002
0.250425
0.0300997
0.116382
-0.0315527
0.0286196
0.119469
0.0271102
0.122697
0.0255679
0.126092
0.0239893
0.129685
0.0223714
0.133517
0.0207119
0.137646
0.019009
0.142147
0.0172618
0.147122
0.0154705
0.152699
0.0136372
0.159034
0.0117671
0.166304
0.00987064
0.174696
0.00796676
0.184372
0.00608825
0.195414
0.00428847
0.207724
0.00264927
0.22088
0.00128717
0.233915
0.000351578
0.244937
0.250777
0.0297916
0.117821
-0.031231
0.0283254
0.120936
0.0268299
0.124193
0.0253017
0.12762
0.0237372
0.131249
0.0221337
0.135121
0.0204886
0.139291
0.0188001
0.143835
0.0170671
0.148855
0.01529
0.154476
0.013471
0.160853
0.0116154
0.16816
0.00973415
0.176577
0.00784681
0.186259
0.00598694
0.197274
0.00420857
0.209503
0.00259355
0.222495
0.00125679
0.235252
0.000342683
0.245851
0.251119
0.0294482
0.119245
-0.0308723
0.0279973
0.122386
0.0265173
0.125673
0.0250047
0.129133
0.023456
0.132798
0.0218684
0.136709
0.0202393
0.14092
0.0185669
0.145508
0.0168501
0.150572
0.0150891
0.156237
0.0132863
0.162656
0.0114473
0.169999
0.00958336
0.178441
0.00771471
0.188128
0.00587563
0.199113
0.00412075
0.211258
0.00253185
0.224083
0.00122207
0.236562
0.000331102
0.246742
0.25145
0.029072
0.120653
-0.0304798
0.0276376
0.123821
0.0261743
0.127136
0.0246786
0.130628
0.023147
0.13433
0.0215767
0.138279
0.0199652
0.142531
0.0183104
0.147162
0.0166114
0.152271
0.0148683
0.15798
0.0130836
0.164441
0.0112631
0.171819
0.00941857
0.180286
0.00757075
0.189976
0.00575463
0.200929
0.00402537
0.212987
0.00246458
0.225644
0.00118354
0.237843
0.000317542
0.247608
0.251768
0.028666
0.122044
-0.0300569
0.0272488
0.125238
0.025803
0.128582
0.0243251
0.132106
0.0228116
0.135843
0.0212598
0.139831
0.019667
0.144124
0.0180313
0.148798
0.0163515
0.15395
0.014628
0.159704
0.0128632
0.166206
0.0110632
0.173619
0.00924008
0.182109
0.0074152
0.191801
0.0056242
0.20272
0.00392272
0.214688
0.0023921
0.227175
0.00114175
0.239093
0.000302605
0.248448
0.252071
0.0282332
0.123418
-0.0296071
0.0268333
0.126638
0.0254053
0.13001
0.0239457
0.133566
0.0224511
0.137338
0.0209185
0.141363
0.0193455
0.145697
0.0177301
0.150414
0.016071
0.15561
0.0143686
0.161406
0.0126255
0.167949
0.0108478
0.175397
0.00904811
0.183909
0.00724831
0.1936
0.00548462
0.204484
0.00381311
0.21636
0.00231479
0.228673
0.00109716
0.240311
0.000286708
0.249258
0.252357
0.0277762
0.124775
-0.0291339
0.0263931
0.128021
0.0249829
0.13142
0.0235417
0.135007
0.0220662
0.138813
0.0205536
0.142876
0.0190012
0.147249
0.0174072
0.152008
0.0157702
0.157247
0.0140904
0.163086
0.0123706
0.169669
0.0106172
0.177151
0.00884289
0.185683
0.00707029
0.195373
0.00533613
0.206218
0.00369684
0.217999
0.002233
0.230137
0.00105014
0.241494
0.000270095
0.250038
0.252627
0.0272974
0.126118
-0.0286404
0.0259301
0.129388
0.0245368
0.132813
0.0231138
0.13643
0.0216576
0.140269
0.0201653
0.144368
0.0186345
0.14878
0.0170628
0.153579
0.0154491
0.15886
0.0137935
0.164742
0.0120987
0.171363
0.0103713
0.178878
0.00862455
0.18743
0.00688132
0.197116
0.00517896
0.20792
0.00357416
0.219604
0.00214703
0.231564
0.00100097
0.24264
0.000252927
0.250786
0.25288
0.0267984
0.127449
-0.0281293
0.025445
0.130742
0.0240675
0.134191
0.0226619
0.137836
0.021225
0.141706
0.0197535
0.14584
0.0182449
0.150289
0.0166967
0.155127
0.0151077
0.160449
0.0134778
0.166372
0.0118097
0.173031
0.0101104
0.180577