/*--------------------------------*- C++ -*----------------------------------*\
| =========                 |                                                 |
| \\      /  F ield         | OpenFOAM: The Open Source CFD Toolbox           |
|  \\    /   O peration     | Version:  v1912                                 |
|   \\  /    A nd           | Website:  www.openfoam.com                      |
|    \\/     M anipulation  |                                                 |
\*---------------------------------------------------------------------------*/
FoamFile
{
    version     2.0;
    format      ascii;
    class       volVectorField;
    location    "41.5";
    object      U;
}
// * * * * * * * * * * * * * * * * * * * * * * * * * * * * * * * * * * * * * //

dimensions      [0 1 -1 0 0 0 0];


internalField   nonuniform List<vector> 
9600
(
(0.456564 -9.36228 -1.5411e-19)
(0.159721 -8.6335 0)
(0.241857 -8.16073 -9.04874e-20)
(0.320521 -7.84146 0)
(0.387743 -7.6061 0)
(0.456054 -7.41118 -3.18337e-20)
(0.521476 -7.23267 -5.49115e-22)
(0.580873 -7.05835 2.6608e-20)
(0.633475 -6.88289 0)
(0.679312 -6.70486 -4.51138e-20)
(0.718774 -6.52488 0)
(0.752485 -6.34449 -1.8295e-21)
(0.781183 -6.16549 -2.60666e-21)
(0.805623 -5.98957 -3.15205e-20)
(0.826528 -5.81813 2.65818e-20)
(0.844551 -5.65214 -2.61157e-20)
(0.860244 -5.49206 2.32514e-20)
(0.874151 -5.33782 0)
(0.887053 -5.18865 -1.84943e-20)
(0.898679 -5.04303 2.02739e-20)
(0.82452 -9.35186 -3.08307e-19)
(0.50222 -8.66154 1.17592e-20)
(0.567557 -8.20496 1.86394e-19)
(0.634714 -7.89518 -1.58861e-19)
(0.692922 -7.66442 1.56668e-19)
(0.753187 -7.46999 0)
(0.810728 -7.28918 6.07165e-20)
(0.862075 -7.11087 -6.05761e-20)
(0.90638 -6.93053 -1.05067e-19)
(0.943733 -6.74731 1.32883e-19)
(0.974635 -6.56223 -8.62755e-20)
(0.999833 -6.37708 -3.52204e-20)
(1.02017 -6.19383 7.10937e-20)
(1.03651 -6.01422 0)
(1.04961 -5.83968 0)
(1.06019 -5.67115 9.96429e-20)
(1.06879 -5.50908 -1.6894e-19)
(1.07598 -5.35334 0)
(1.08261 -5.20304 0)
(1.08817 -5.05655 -7.80835e-20)
(1.19282 -9.32791 6.37001e-19)
(0.846985 -8.67671 0)
(0.896806 -8.23651 -3.7714e-19)
(0.953195 -7.93633 -3.41825e-19)
(1.00269 -7.71014 0)
(1.05489 -7.51616 5.46232e-19)
(1.10432 -7.33307 -5.1568e-19)
(1.14727 -7.15087 1.01079e-19)
(1.18287 -6.96584 -2.25025e-19)
(1.21132 -6.77771 -3.74208e-19)
(1.23327 -6.58787 5.10817e-19)
(1.2496 -6.39837 -3.15825e-19)
(1.26127 -6.21128 -1.41539e-19)
(1.26924 -6.02841 0)
(1.27433 -5.85118 5.5245e-21)
(1.27729 -5.68054 1.05032e-19)
(1.27868 -5.51689 4.5401e-20)
(1.27906 -5.36004 0)
(1.27938 -5.20899 8.23004e-20)
(1.27876 -5.06205 8.435e-20)
(1.56035 -9.29005 -8.61769e-19)
(1.19342 -8.67875 -4.03809e-19)
(1.22905 -8.25518 3.91678e-19)
(1.2754 -7.96459 6.73071e-19)
(1.31647 -7.7429 -3.26674e-19)
(1.36056 -7.54933 5.79499e-21)
(1.40163 -7.36398 2.53649e-19)
(1.43582 -7.17803 2.2974e-19)
(1.46232 -6.98855 4.20753e-19)
(1.48148 -6.79584 0)
(1.4941 -6.60164 1.62078e-19)
(1.50122 -6.40821 -1.72013e-19)
(1.50395 -6.21773 1.03486e-20)
(1.50332 -6.03205 2.71136e-19)
(1.50023 -5.85258 2.32433e-19)
(1.49543 -5.68025 -3.28112e-19)
(1.4895 -5.51543 1.08056e-19)
(1.48303 -5.35788 -1.75938e-19)
(1.47701 -5.20647 1.75107e-19)
(1.47015 -5.0595 -8.43936e-20)
(1.92681 -9.23822 4.34609e-19)
(1.54125 -8.66749 0)
(1.56388 -8.26069 3.84635e-19)
(1.60082 -7.97963 0)
(1.6337 -7.76234 0)
(1.6696 -7.56913 -3.00234e-19)
(1.70206 -7.3816 -5.3715e-19)
(1.72713 -7.19207 -4.55415e-19)
(1.74413 -6.99843 1.84468e-20)
(1.7536 -6.80149 -1.96788e-19)
(1.75654 -6.60335 0)
(1.75416 -6.40645 -1.62487e-19)
(1.74769 -6.21305 -2.92701e-19)
(1.73825 -6.02503 2.57394e-19)
(1.72682 -5.84378 -7.31489e-19)
(1.71416 -5.6702 1.1838e-19)
(1.70085 -5.50464 9.38232e-20)
(1.6875 -5.34678 -1.9347e-19)
(1.67514 -5.1954 -8.45317e-20)
(1.66201 -5.04885 2.52068e-19)
(2.29165 -9.17234 4.19362e-19)
(1.88997 -8.6427 4.1587e-19)
(1.90078 -8.25276 0)
(1.92891 -7.98113 0)
(1.95378 -7.76813 -6.24135e-19)
(1.98139 -7.57526 3.41132e-19)
(2.00495 -7.38564 8.209e-19)
(2.02053 -7.19275 0)
(2.02765 -6.99526 2.1692e-19)
(2.02707 -6.79449 1.96789e-19)
(2.02 -6.59287 -3.47655e-19)
(2.00784 -6.39299 5.04154e-19)
(1.99195 -6.19717 1.47936e-19)
(1.97354 -6.00731 0)
(1.95363 -5.82475 1.23144e-19)
(1.93303 -5.65037 5.52768e-19)
(1.91229 -5.48448 -3.29379e-19)
(1.89206 -5.32672 3.70098e-19)
(1.8734 -5.17577 -7.03763e-19)
(1.85399 -5.03008 8.13583e-19)
(2.65434 -9.09237 4.26502e-19)
(2.23906 -8.60419 -2.25837e-18)
(2.2392 -8.23112 0)
(2.25906 -7.96878 0)
(2.27608 -7.75996 0)
(2.29527 -7.56743 -6.05439e-19)
(2.30964 -7.37584 0)
(2.31538 -7.17984 -9.70368e-19)
(2.31224 -6.97887 8.95056e-19)
(2.30125 -6.77472 -8.31278e-19)
(2.28387 -6.57011 0)
(2.26169 -6.36776 0)
(2.23618 -6.17005 0)
(2.20866 -5.97884 -2.81238e-19)
(2.18018 -5.79546 0)
(2.15157 -5.62073 0)
(2.12339 -5.45494 -4.12763e-19)
(2.09629 -5.29769 4.05553e-19)
(2.07139 -5.14755 0)
(2.04574 -5.00317 0)
(3.01435 -8.99832 -1.38751e-18)
(2.58799 -8.55179 8.99089e-19)
(2.57858 -8.19552 0)
(2.59068 -7.94231 0)
(2.59996 -7.73756 0)
(2.61058 -7.54538 5.75857e-19)
(2.61545 -7.35199 -5.77601e-19)
(2.61098 -7.15318 -8.88275e-21)
(2.59723 -6.94912 -8.96173e-19)
(2.57552 -6.74207 8.39095e-19)
(2.54756 -6.53498 -3.78531e-19)
(2.51512 -6.33072 6.58198e-19)
(2.47984 -6.13165 -4.63937e-20)
(2.44309 -5.93962 -5.95425e-19)
(2.40597 -5.75591 -5.01823e-19)
(2.36932 -5.58129 4.93026e-19)
(2.33369 -5.41603 0)
(2.29977 -5.25968 0)
(2.2687 -5.11075 3.56745e-19)
(2.23686 -4.96815 -3.92599e-19)
(3.37111 -8.89022 9.27368e-19)
(2.93618 -8.48535 8.83288e-19)
(2.91831 -8.14576 -1.67419e-18)
(2.92311 -7.90148 7.90822e-19)
(2.92474 -7.7007 0)
(2.92661 -7.50892 6.16201e-19)
(2.92168 -7.31392 -5.40931e-19)
(2.90667 -7.11263 1.5287e-18)
(2.88196 -6.90592 -2.3686e-20)
(2.84922 -6.69647 0)
(2.81043 -6.48747 7.6374e-19)
(2.76756 -6.28184 0)
(2.72237 -6.08198 0)
(2.6763 -5.88966 -2.72381e-19)
(2.63049 -5.70611 5.49368e-19)
(2.58579 -5.53206 0)
(2.54272 -5.36776 4.3089e-19)
(2.50204 -5.21272 1.79373e-19)
(2.4649 -5.06539 -3.89193e-19)
(2.42696 -4.92503 3.77908e-19)
(3.72406 -8.76813 -9.55154e-19)
(3.28305 -8.40478 8.97687e-19)
(3.25777 -8.08164 -2.5566e-18)
(3.25571 -7.84609 8.03933e-19)
(3.24973 -7.64917 0)
(3.24267 -7.45786 -1.24372e-18)
(3.22763 -7.26149 5.97467e-19)
(3.20172 -7.05808 0)
(3.16574 -6.84919 -4.74326e-19)
(3.12171 -6.63789 -8.22676e-19)
(3.07188 -6.42754 -7.16841e-19)
(3.01842 -6.22114 5.34309e-20)
(2.96321 -6.02105 6.70452e-19)
(2.90776 -5.82899 2.72157e-19)
(2.85324 -5.64611 -3.7928e-20)
(2.80048 -5.47309 -5.12498e-19)
(2.75002 -5.31017 -2.29221e-19)
(2.70264 -5.15684 -2.06652e-19)
(2.65953 -5.01149 5.51255e-19)
(2.61561 -4.87384 -8.21455e-19)
(4.07265 -8.63213 9.55156e-19)
(3.628 -8.31001 -4.66424e-20)
(3.59633 -8.00303 8.21804e-19)
(3.58779 -7.77597 0)
(3.57422 -7.58283 -6.80357e-19)
(3.55802 -7.39207 1.30731e-18)
(3.53258 -7.19459 -1.11745e-18)
(3.49546 -6.98948 1.09964e-18)
(3.44791 -6.77891 -4.45549e-19)
(3.39233 -6.56632 9.04476e-19)
(3.33127 -6.35522 3.9168e-19)
(3.2671 -6.14864 0)
(3.2018 -5.9489 0)
(3.13693 -5.75765 -2.822e-19)
(3.07369 -5.57595 3.83454e-20)
(3.0129 -5.40442 1.00923e-18)
(2.95508 -5.24331 -2.49689e-19)
(2.90107 -5.09207 8.24651e-19)
(2.8521 -4.94908 1.4432e-19)
(2.80236 -4.81463 -8.3898e-19)
(4.41632 -8.48234 -2.939e-18)
(3.97042 -8.20098 -9.86524e-19)
(3.93333 -7.90982 -2.63061e-18)
(3.91866 -7.69099 -1.60028e-18)
(3.8975 -7.50154 -7.59058e-19)
(3.87195 -7.31146 -7.41876e-19)
(3.8358 -7.11318 -2.4217e-18)
(3.78716 -6.9068 -4.90548e-20)
(3.72778 -6.69509 -1.94584e-18)
(3.66044 -6.48179 3.02217e-20)
(3.58801 -6.27055 -8.07862e-19)
(3.51302 -6.0644 -7.36143e-19)
(3.43757 -5.8656 6.71989e-19)
(3.36328 -5.6757 -6.14539e-19)
(3.29133 -5.49568 -5.63011e-19)
(3.22253 -5.32612 -5.1671e-19)
(3.1574 -5.16723 -1.38738e-18)
(3.09683 -5.01847 4.93599e-19)
(3.04211 -4.87821 1.19784e-18)
(2.98672 -4.74742 -1.27487e-18)
(4.75453 -8.31889 3.95315e-18)
(4.30972 -8.07772 4.85629e-18)
(4.26812 -7.80195 8.34202e-19)
(4.24762 -7.59105 3.99689e-18)
(4.21884 -7.40523 -7.83368e-19)
(4.18373 -7.21598 3.91421e-18)
(4.13658 -7.01722 1.14498e-18)
(4.07613 -6.81005 3.21433e-18)
(4.00467 -6.59775 -9.82484e-19)
(3.9254 -6.38435 2.72023e-18)
(3.84147 -6.17359 1.62724e-18)
(3.7556 -5.96848 1.48293e-18)
(3.66999 -5.77121 -2.00766e-18)
(3.58627 -5.58322 1.8807e-18)
(3.50563 -5.40539 1.13471e-18)
(3.42886 -5.23825 1.04161e-18)
(3.35646 -5.08199 9.57777e-19)
(3.2894 -4.93609 7.3594e-21)
(3.22906 -4.79893 8.13014e-19)
(3.16822 -4.67227 8.46109e-19)
(5.08673 -8.14195 -2.93559e-18)
(4.6453 -7.94024 1.08188e-18)
(4.60005 -7.67936 2.67633e-18)
(4.57398 -7.47612 -3.26057e-18)
(4.53751 -7.29386 7.53439e-19)
(4.4926 -7.10563 -2.61871e-18)
(4.43419 -6.90676 1.28346e-18)
(4.36168 -6.69928 -2.15071e-18)
(4.27793 -6.48698 4.90173e-20)
(4.18658 -6.27409 1.19365e-20)
(4.09106 -6.06444 -1.6497e-18)
(3.99427 -5.86098 -7.46788e-19)
(3.89848 -5.66581 1.37315e-18)
(3.80535 -5.48026 8.75216e-21)
(3.71606 -5.30513 -3.71713e-20)
(3.63135 -5.14086 -1.08716e-18)
(3.55172 -4.98766 -4.8277e-19)
(3.47823 -4.84499 -2.71292e-20)
(3.41235 -4.71129 -8.47338e-19)
(3.34629 -4.58928 -4.27299e-19)
(5.41244 -7.95169 0)
(4.97659 -7.7886 -1.99902e-18)
(4.92846 -7.54206 2.3718e-20)
(4.89702 -7.34616 3.25604e-18)
(4.85278 -7.16745 1.36278e-18)
(4.79786 -6.98043 -1.41856e-18)
(4.72792 -6.78185 -1.22202e-18)
(4.64312 -6.57458 0)
(4.54691 -6.36286 -9.7269e-19)
(4.44336 -6.15112 9.28304e-19)
(4.3362 -5.94319 -3.90539e-20)
(4.22848 -5.74198 0)
(4.12253 -5.54948 -6.91275e-19)
(4.02002 -5.36691 5.9876e-19)
(3.92209 -5.19495 5.00209e-19)
(3.82945 -5.03399 -6.03876e-19)
(3.74259 -4.88422 -5.23869e-19)
(3.66265 -4.74513 9.097e-19)
(3.59126 -4.61528 -8.39533e-19)
(3.52009 -4.49853 4.41895e-19)
(5.73119 -7.7483 3.03293e-18)
(5.30299 -7.62287 -2.05883e-18)
(5.25268 -7.39008 -1.75703e-18)
(5.21603 -7.20121 8.18039e-19)
(5.16392 -7.02603 -1.58707e-18)
(5.09877 -6.84047 0)
(5.01706 -6.6426 0)
(4.91977 -6.43608 0)
(4.81096 -6.22556 -4.44554e-20)
(4.69515 -6.01558 -1.86301e-18)
(4.57634 -5.80998 8.79868e-19)
(4.45771 -5.6116 7.44123e-19)
(4.34164 -5.42231 6.29678e-19)
(4.2298 -5.24322 -2.58396e-18)
(4.12326 -5.07489 1.22501e-18)
(4.0227 -4.91764 0)
(3.92855 -4.77165 -3.04104e-20)
(3.84206 -4.63646 -1.41096e-18)
(3.76497 -4.51082 -5.69294e-21)
(3.68867 -4.39968 -4.42383e-19)
(6.04261 -7.53205 -2.06297e-18)
(5.62396 -7.44319 -1.08544e-18)
(5.57203 -7.22347 8.1783e-19)
(5.5303 -7.04134 -1.43907e-19)
(5.4702 -6.8697 -4.62641e-18)
(5.39459 -6.68587 4.18691e-18)
(5.30092 -6.48915 -4.88021e-20)
(5.19098 -6.28395 1.14673e-18)
(5.06949 -6.07523 1.02886e-18)
(4.94139 -5.86763 9.44708e-19)
(4.81094 -5.66497 8.59675e-19)
(4.68146 -5.46998 1.53634e-18)
(4.55535 -5.28442 -7.39461e-19)
(4.43424 -5.10928 1.91673e-18)
(4.31917 -4.94501 -1.23913e-18)
(4.2107 -4.79187 -5.12591e-19)
(4.10926 -4.65006 2.05888e-18)
(4.01611 -4.5191 1.37553e-18)
(3.93319 -4.3978 -2.79418e-20)
(3.85196 -4.29202 0)
(6.34668 -7.30343 -1.04892e-18)
(5.93911 -7.24974 2.07431e-18)
(5.88585 -7.04229 1.81598e-18)
(5.83907 -6.86659 -1.45883e-19)
(5.77086 -6.69854 -1.56968e-18)
(5.68461 -6.51676 7.06539e-20)
(5.57879 -6.32169 1.31609e-20)
(5.45609 -6.11839 1.17266e-20)
(5.32187 -5.91208 0)
(5.18151 -5.70747 9.23983e-19)
(5.0395 -5.50832 -1.75866e-18)
(4.89925 -5.31724 -7.52566e-19)
(4.76317 -5.13587 7.47101e-19)
(4.63286 -4.96509 -6.55525e-19)
(4.50926 -4.80529 6.07116e-19)
(4.39289 -4.6567 -5.52685e-19)
(4.28414 -4.5195 4.89612e-21)
(4.18441 -4.39309 -4.69528e-19)
(4.09593 -4.27617 -4.33732e-19)
(4.01055 -4.17643 -4.34026e-19)
(6.64374 -7.06292 0)
(6.24817 -7.04245 -1.01136e-18)
(6.1935 -6.84647 9.9975e-19)
(6.14161 -6.67705 1.74421e-18)
(6.06516 -6.51275 -1.57835e-18)
(5.9681 -6.33339 1.36347e-18)
(5.85 -6.14049 -2.62164e-18)
(5.71449 -5.93969 -2.32805e-18)
(5.56758 -5.73642 -1.01559e-18)
(5.41505 -5.53539 4.44028e-20)
(5.2616 -5.34026 -8.4096e-19)
(5.11071 -5.15353 3.49064e-20)
(4.96477 -4.97671 0)
(4.82525 -4.81058 -1.28586e-18)
(4.69297 -4.65546 6.56218e-19)
(4.56834 -4.51162 0)
(4.4518 -4.37916 -5.13909e-19)
(4.34493 -4.25724 -9.23943e-19)
(4.24999 -4.14547 9.07867e-19)
(4.15942 -4.05648 4.48151e-19)
(6.9334 -6.80972 0)
(6.55053 -6.8206 0)
(6.49425 -6.63595 -1.85451e-18)
(6.43715 -6.47298 -1.59453e-18)
(6.35241 -6.31271 3.23634e-18)
(6.24444 -6.13619 0)
(6.11398 -5.946 0)
(5.96567 -5.7483 1.16958e-18)
(5.80616 -5.54867 0)
(5.64164 -5.35179 0)
(5.47698 -5.16118 0)
(5.31572 -4.97919 0)
(5.16016 -4.80716 0)
(5.01159 -4.64574 0)
(4.87061 -4.49519 0)
(4.73731 -4.35568 0)
(4.61197 -4.22706 0)
(4.49566 -4.10868 0)
(4.3885 -4.0036 0)
(4.28435 -3.92911 0)
(10.043 0.0877362 1.47252e-19)
(10.0225 -0.307632 2.86499e-19)
(9.98668 -0.700324 -2.94256e-19)
(9.93617 -1.0902 5.86688e-19)
(9.87067 -1.47691 -5.86687e-19)
(9.79004 -1.85996 -5.54395e-19)
(9.69439 -2.23882 -5.52848e-19)
(9.58393 -2.61292 1.74116e-18)
(9.4589 -2.98172 -1.16005e-18)
(9.31956 -3.34467 1.15033e-18)
(9.16618 -3.70123 -1.15033e-18)
(8.99907 -4.05085 1.14183e-18)
(8.81856 -4.39303 -2.26437e-18)
(8.62501 -4.72725 3.33456e-18)
(8.41878 -5.05303 0)
(8.20026 -5.36993 -3.27612e-18)
(7.96985 -5.67752 1.6327e-20)
(7.72806 -5.97543 3.30162e-18)
(7.475 -6.26353 0)
(7.21235 -6.54111 0)
(10.1191 -0.21073 0)
(10.0779 -0.606791 -1.50395e-20)
(10.0199 -0.999054 0)
(9.94573 -1.38718 5.61384e-19)
(9.85574 -1.77074 5.84623e-19)
(9.75008 -2.14914 -1.69205e-18)
(9.62906 -2.52173 2.94588e-18)
(9.49301 -2.88791 -1.16291e-18)
(9.34232 -3.24706 -1.1085e-18)
(9.17737 -3.59861 -1.10398e-18)
(8.99858 -3.94197 4.45666e-20)
(8.8064 -4.27662 1.13113e-18)
(8.60127 -4.60202 -5.62321e-18)
(8.3837 -4.91768 -1.17927e-18)
(8.15415 -5.22314 2.24696e-18)
(7.91316 -5.51796 2.24397e-18)
(7.66118 -5.80175 1.1401e-18)
(7.39881 -6.07419 -2.19839e-18)
(7.12614 -6.33501 1.04106e-18)
(6.84411 -6.58387 0)
(10.0703 -0.149255 1.32587e-19)
(10.0325 -0.540861 -2.7152e-19)
(9.97735 -0.929293 7.84079e-19)
(9.90519 -1.31386 -5.55492e-19)
(9.81644 -1.6939 -5.29637e-19)
(9.71144 -2.06871 5.52981e-19)
(9.59058 -2.43757 0)
(9.45425 -2.79977 0)
(9.30287 -3.15466 2.09967e-18)
(9.1369 -3.50159 3.13232e-18)
(8.9568 -3.83994 -9.90668e-19)
(8.76307 -4.16912 3.09737e-18)
(8.55623 -4.48856 -9.86501e-19)
(8.33682 -4.79774 -3.01688e-18)
(8.1054 -5.09615 1.36036e-20)
(7.86251 -5.38332 1.9365e-18)
(7.60871 -5.65882 -8.74052e-19)
(7.34459 -5.92224 -1.90517e-18)
(7.07047 -6.1732 -1.02911e-18)
(6.78711 -6.41121 1.8724e-18)
(9.90383 -0.112558 0)
(9.87283 -0.49492 2.28902e-19)
(9.82456 -0.874938 2.2796e-19)
(9.75921 -1.25171 -9.36551e-19)
(9.67709 -1.62444 0)
(9.57856 -1.99236 0)
(9.46397 -2.35468 0)
(9.33369 -2.71068 0)
(9.18815 -3.05963 -9.91089e-19)
(9.02779 -3.40084 -9.87327e-19)
(8.85309 -3.73365 0)
(8.66454 -4.05742 1.86669e-18)
(8.46269 -4.37154 -4.61522e-18)
(8.24807 -4.67543 3.71107e-18)
(8.02126 -4.96853 -3.59698e-18)
(7.78285 -5.25034 -8.72812e-19)
(7.53342 -5.52035 1.56428e-19)
(7.27357 -5.7781 1.54834e-19)
(7.00382 -6.02312 -1.77763e-18)
(6.72492 -6.25493 -7.08832e-20)
(9.65057 -0.0990819 0)
(9.62698 -0.469209 -2.25748e-19)
(9.58655 -0.837647 0)
(9.52935 -1.20349 4.5162e-19)
(9.45562 -1.56591 4.30507e-19)
(9.36564 -1.9241 3.93573e-19)
(9.25972 -2.27729 0)
(9.13821 -2.62472 0)
(9.00147 -2.96564 0)
(8.84992 -3.29933 0)
(8.68401 -3.6251 8.13024e-19)
(8.50421 -3.94229 8.75953e-19)
(8.31104 -4.25024 8.70963e-19)
(8.10503 -4.54835 -8.84278e-19)
(7.88675 -4.83602 -1.52179e-18)
(7.65676 -5.11269 1.72754e-18)
(7.41567 -5.37782 3.34934e-18)
(7.16409 -5.6309 1.62911e-18)
(6.90259 -5.87141 0)
(6.6319 -6.09887 -1.53537e-18)
(9.34345 -0.090278 4.6397e-20)
(9.32682 -0.446228 0)
(9.29398 -0.801059 -7.60335e-19)
(9.24493 -1.15392 1.83303e-23)
(9.17984 -1.50398 1.61683e-20)
(9.09892 -1.85046 -6.8511e-20)
(9.00244 -2.19259 0)
(8.8907 -2.52959 3.09231e-20)
(8.76402 -2.86074 -7.71876e-19)
(8.62276 -3.1853 1.50387e-18)
(8.46733 -3.50259 -1.56817e-18)
(8.29817 -3.81191 8.56741e-19)
(8.11575 -4.11262 -4.49067e-18)
(7.92058 -4.40407 2.96187e-18)
(7.71319 -4.68565 1.57009e-18)
(7.49413 -4.95678 0)
(7.26397 -5.21688 -2.89805e-18)
(7.02333 -5.4654 -6.1519e-20)
(6.77278 -5.70181 -2.854e-18)
(6.51299 -5.92559 2.9664e-18)
(9.01105 -0.08546 4.17247e-20)
(9.00005 -0.426411 -8.74093e-20)
(8.97358 -0.766711 7.16681e-19)
(8.93161 -1.10556 -1.40688e-20)
(8.87422 -1.44217 7.16533e-19)
(8.80162 -1.77578 -1.08226e-18)
(8.714 -2.10563 0)
(8.61162 -2.43099 7.29584e-19)
(8.49476 -2.75113 6.68003e-19)
(8.36374 -3.06534 -7.25499e-19)
(8.21891 -3.37294 1.32734e-18)
(8.06067 -3.67326 2.81406e-18)
(7.88946 -3.96563 -1.30868e-18)
(7.70574 -4.24943 -1.41857e-18)
(7.51 -4.52404 1.36038e-18)
(7.30278 -4.78884 0)
(7.0846 -5.04327 6.49209e-20)
(6.85606 -5.28675 9.80136e-21)
(6.61771 -5.51873 2.70396e-18)
(6.37017 -5.73866 1.25707e-18)
(8.67457 -0.0842685 0)
(8.66764 -0.410266 6.2555e-21)
(8.646 -0.735959 -1.45828e-19)
(8.6096 -1.0606 -6.47645e-19)
(8.55852 -1.38344 6.08766e-19)
(8.49289 -1.70375 0)
(8.4129 -2.02081 1.23906e-18)
(8.31874 -2.33393 -1.36152e-21)
(8.21067 -2.6424 -1.89242e-18)
(8.08896 -2.94554 0)
(7.95393 -3.2427 -1.30621e-18)
(7.80594 -3.53321 4.59924e-20)
(7.64538 -3.81645 -3.67174e-18)
(7.47268 -4.09179 6.46949e-21)
(7.28829 -4.35863 1.23064e-18)
(7.09271 -4.61636 0)
(6.88646 -4.8644 -1.20789e-18)
(6.67008 -5.10217 8.69388e-21)
(6.44412 -5.32912 1.1992e-18)
(6.20913 -5.54467 -1.23705e-18)
(8.3479 -0.0853381 0)
(8.34358 -0.396964 1.49517e-19)
(8.32531 -0.708516 3.10218e-19)
(8.29304 -1.0193 -5.74199e-19)
(8.24681 -1.3286 -2.47191e-20)
(8.18674 -1.63575 -2.86968e-19)
(8.11297 -1.94005 -1.14876e-18)
(8.02569 -2.24085 5.7112e-19)
(7.9251 -2.53749 2.38103e-20)
(7.81145 -2.82932 5.67702e-19)
(7.68503 -3.11571 5.22603e-19)
(7.54616 -3.39604 2.26329e-18)
(7.3952 -3.66969 1.1321e-18)
(7.23255 -3.93608 2.23603e-18)
(7.05864 -4.19462 -1.11509e-18)
(6.87392 -4.44472 3.86605e-20)
(6.67891 -4.68581 -1.10192e-18)
(6.47409 -4.91731 0)
(6.26002 -5.13867 1.04159e-18)
(6.0372 -5.34929 0)
(8.03891 -0.0875445 6.50952e-20)
(8.03605 -0.385669 -1.90643e-19)
(8.01996 -0.683862 5.22905e-19)
(7.99058 -0.981468 -2.60867e-19)
(7.94793 -1.27783 1.89791e-20)
(7.89213 -1.5723 -2.60712e-19)
(7.82329 -1.86425 5.42014e-19)
(7.74157 -2.15303 -5.18728e-19)
(7.64716 -2.43805 5.18726e-19)
(7.54028 -2.71868 9.94875e-19)
(7.4212 -2.99434 -1.07206e-18)
(7.29021 -3.26443 -4.50926e-20)
(7.14764 -3.52838 -3.10313e-18)
(6.99387 -3.78564 5.37441e-21)
(6.82931 -4.03563 4.02678e-20)
(6.65439 -4.27781 2.01168e-18)
(6.46959 -4.51161 -9.93705e-19)
(6.27541 -4.73648 -9.46509e-19)
(6.07236 -4.95186 -3.74439e-20)
(5.86093 -5.15713 0)
(7.75123 -0.0901429 0)
(7.74898 -0.375758 2.42166e-19)
(7.73416 -0.661515 -8.32654e-19)
(7.70669 -0.9468 -2.20904e-19)
(7.66662 -1.23099 4.94052e-19)
(7.61402 -1.51349 0)
(7.54901 -1.79369 0)
(7.47173 -2.071 4.72232e-19)
(7.38234 -2.34485 -4.72229e-19)
(7.28107 -2.61466 3.97789e-19)
(7.16814 -2.87987 -4.69187e-19)
(7.04384 -3.13994 9.30434e-19)
(6.90848 -3.39432 -1.85626e-18)
(6.76241 -3.64251 1.84667e-18)
(6.60603 -3.88396 3.46587e-20)
(6.43975 -4.11816 -9.49781e-19)
(6.26406 -4.34457 -9.03784e-19)
(6.07943 -4.56266 1.84107e-18)
(5.8864 -4.77186 8.61852e-19)
(5.68541 -4.97155 0)
(7.48563 -0.0926602 1.87719e-21)
(7.48343 -0.366765 1.58994e-19)
(7.46924 -0.641039 3.33818e-19)
(7.44299 -0.914903 2.33659e-19)
(7.40473 -1.18778 2.16746e-19)
(7.35452 -1.45908 2.01621e-19)
(7.29247 -1.72826 0)
(7.21872 -1.99476 -8.33212e-19)
(7.13342 -2.25803 -4.29525e-19)
(7.03676 -2.51753 3.66418e-19)
(6.92897 -2.77275 0)
(6.81032 -3.02318 8.48356e-19)
(6.6811 -3.26832 -2.50905e-18)
(6.54164 -3.50767 8.44013e-19)
(6.39234 -3.74077 0)
(6.2336 -3.96713 -8.02487e-19)
(6.06592 -4.18624 -1.62081e-18)
(5.88977 -4.3976 7.9755e-19)
(5.70571 -4.60063 -2.91989e-20)
(5.51419 -4.79469 0)
(7.24125 -0.0947975 3.46343e-21)
(7.23874 -0.358345 -1.02897e-19)
(7.22475 -0.622053 1.98569e-19)
(7.19925 -0.885378 -1.31174e-20)
(7.16225 -1.14777 3.96788e-19)
(7.11384 -1.40869 -6.09395e-19)
(7.05411 -1.6676 0)
(6.98319 -1.92399 5.60131e-20)
(6.90123 -2.17733 0)
(6.8084 -2.42713 -8.13466e-19)
(6.70493 -2.6729 0)
(6.59106 -2.91416 -7.50716e-19)
(6.46707 -3.15046 2.32027e-18)
(6.33329 -3.38137 -1.53752e-18)
(6.1901 -3.60642 7.66548e-19)
(6.03792 -3.82521 -6.78208e-19)
(5.87723 -4.03725 7.834e-19)
(5.70854 -4.24209 -7.78042e-19)
(5.53249 -4.43912 0)
(5.3495 -4.62772 0)
(7.01629 -0.0964336 4.70835e-20)
(7.01328 -0.350271 0)
(6.99925 -0.604251 0)
(6.97418 -0.857856 -3.77241e-19)
(6.93809 -1.11056 -3.52079e-19)
(6.89107 -1.36186 0)
(6.8332 -1.61124 0)
(6.7646 -1.85821 4.9836e-20)
(6.68541 -2.10228 6.97226e-19)
(6.59582 -2.34299 -3.36241e-19)
(6.49601 -2.57987 -3.58242e-19)
(6.38623 -2.8125 1.44715e-18)
(6.26675 -3.04044 -2.1489e-18)
(6.13787 -3.26332 1.38571e-18)
(5.99998 -3.48071 0)
(5.85348 -3.69229 2.78392e-18)
(5.6989 -3.89758 -2.02125e-18)
(5.53675 -4.09626 6.87628e-19)
(5.36782 -4.28761 1.31506e-18)
(5.1925 -4.47108 0)
(6.80867 -0.0975034 -4.04789e-20)
(6.80505 -0.342384 0)
(6.79083 -0.587387 -5.21988e-21)
(6.766 -0.83201 -3.23943e-19)
(6.7306 -1.07576 1.0038e-18)
(6.68468 -1.31814 -1.66979e-19)
(6.62835 -1.55867 0)
(6.56171 -1.79688 1.33016e-18)
(6.48491 -2.03232 -6.85016e-19)
(6.3981 -2.26453 4.44689e-20)
(6.30147 -2.4931 6.3484e-19)
(6.19526 -2.71762 6.50718e-19)
(6.0797 -2.9377 -1.29764e-18)
(5.95512 -3.15301 -1.26923e-18)
(5.82184 -3.36316 -1.23974e-18)
(5.6803 -3.56793 -1.31925e-18)
(5.53105 -3.76686 1.31026e-18)
(5.37461 -3.95981 -6.25494e-19)
(5.21201 -4.14592 -6.66533e-19)
(5.04354 -4.32484 0)
(6.61613 -0.0979866 3.97695e-20)
(6.61187 -0.334578 -1.49324e-19)
(6.59741 -0.571262 -1.54583e-19)
(6.57274 -0.807557 4.62865e-19)
(6.53788 -1.04299 -1.64378e-19)
(6.49292 -1.27708 -1.53649e-19)
(6.43793 -1.50939 0)
(6.37301 -1.73946 -6.3156e-19)
(6.29831 -1.96685 0)
(6.21398 -2.19114 6.26675e-19)
(6.1202 -2.41194 -1.20761e-18)
(6.01716 -2.62888 5.97787e-19)
(5.90512 -2.84158 -1.1919e-18)
(5.78434 -3.04978 1.22997e-18)
(5.65517 -3.25313 6.69461e-19)
(5.51798 -3.45151 0)
(5.3734 -3.64448 -5.77839e-19)
(5.2219 -3.83224 5.77839e-19)
(5.06494 -4.01358 0)
(4.90248 -4.18886 0)
(6.43656 -0.0979707 0)
(6.43169 -0.326832 1.46709e-19)
(6.41699 -0.555753 4.72093e-21)
(6.39245 -0.784274 -1.51272e-19)
(6.35809 -1.01194 -1.33393e-19)
(6.314 -1.2383 -1.41619e-19)
(6.26025 -1.46293 5.47361e-19)
(6.19694 -1.68538 0)
(6.1242 -1.90525 0)
(6.04217 -2.12214 2.78171e-19)
(5.95102 -2.33567 2.955e-19)
(5.85094 -2.5455 1.06948e-18)
(5.74214 -2.75129 -5.46454e-19)
(5.62486 -2.95281 5.46453e-19)
(5.49943 -3.14976 5.80106e-19)
(5.36616 -3.34217 3.39263e-20)
(5.22573 -3.52956 -1.06542e-18)
(5.07849 -3.7127 3.77777e-21)
(4.92659 -3.88971 5.26939e-19)
(4.76919 -4.06258 0)
(6.26806 -0.0974587 -3.27908e-20)
(6.26265 -0.319112 3.27904e-20)
(6.24775 -0.540798 0)
(6.22336 -0.76207 1.23508e-19)
(6.18953 -0.982492 4.01193e-19)
(6.1463 -1.20164 -5.0706e-19)
(6.09377 -1.41909 -5.378e-19)
(6.03203 -1.63443 0)
(5.9612 -1.84727 0)
(5.88141 -2.05724 0)
(5.79283 -2.26398 -9.92809e-19)
(5.6956 -2.46716 -6.40951e-20)
(5.58994 -2.66648 -5.03392e-19)
(5.47603 -2.86173 3.0171e-20)
(5.35415 -3.05268 -9.9551e-19)
(5.22454 -3.23946 1.51716e-18)
(5.08789 -3.42165 -1.43754e-18)
(4.94427 -3.60082 4.8799e-19)
(4.79694 -3.77399 9.35503e-19)
(4.64321 -3.94607 0)
(6.10891 -0.0961006 2.94591e-20)
(6.10306 -0.311219 0)
(6.08805 -0.526358 -1.21284e-19)
(6.06389 -0.741083 -2.49915e-19)
(6.03061 -0.954973 1.21132e-19)
(5.98827 -1.16762 9.6729e-19)
(5.93694 -1.37862 0)
(5.87673 -1.5876 -4.65866e-19)
(5.80775 -1.79416 -2.38276e-19)
(5.73011 -1.99797 -4.4763e-19)
(5.64397 -2.19867 -1.79099e-19)
(5.54945 -2.39597 -1.41323e-18)
(5.44673 -2.58958 -9.32816e-19)
(5.33595 -2.7793 9.5957e-19)
(5.21735 -2.96495 9.18493e-19)
(5.09093 -3.14676 -3.88188e-21)
(4.95752 -3.32438 2.99221e-20)
(4.81636 -3.5004 4.49637e-19)
(4.67255 -3.67101 -9.19226e-19)
(4.51935 -3.8461 0)
(5.95751 -0.0944285 -6.16048e-20)
(5.95136 -0.30329 3.0327e-20)
(5.9364 -0.512238 -1.21162e-19)
(5.91261 -0.720885 1.21105e-19)
(5.88001 -0.928835 -3.48315e-19)
(5.83866 -1.1357 -1.08461e-18)
(5.78862 -1.3411 0)
(5.72996 -1.54466 4.92925e-19)
(5.66277 -1.74602 -4.60898e-19)
(5.58715 -1.94485 9.75981e-19)
(5.50322 -2.14082 9.70182e-19)
(5.41108 -2.33362 1.42937e-18)
(5.31087 -2.523 -9.27498e-19)
(5.20262 -2.70874 4.6199e-19)
(5.08658 -2.89067 -4.54339e-19)
(4.96237 -3.069 4.54362e-19)
(4.83111 -3.24347 0)
(4.69008 -3.41728 4.11363e-19)
(4.54833 -3.58626 -4.02551e-19)
(4.39073 -3.77259 0)
(7.1396 7.26159 0)
(7.41956 6.9718 0)
(7.68661 6.67244 1.08678e-18)
(7.94147 6.364 2.02345e-20)
(8.18355 6.04619 -1.14982e-18)
(8.41222 5.71909 0)
(8.62704 5.38309 1.18654e-18)
(8.82769 5.03873 -2.2386e-18)
(9.01385 4.68659 -1.13133e-18)
(9.18523 4.32726 -1.14189e-18)
(9.34157 3.96139 1.14189e-18)
(9.48264 3.58963 -1.15397e-18)
(9.60825 3.21267 5.75628e-19)
(9.71819 2.8312 5.49399e-19)
(9.81233 2.4459 5.51546e-19)
(9.89058 2.05743 -5.85346e-19)
(9.95294 1.66644 5.85346e-19)
(9.99947 1.27365 -2.9385e-19)
(10.0301 0.879454 -1.39579e-19)
(10.0454 0.485198 7.3519e-20)
(7.41585 7.06923 0)
(7.69598 6.77985 -9.9582e-19)
(7.96233 6.4789 -2.12901e-18)
(8.21518 6.16706 3.14837e-18)
(8.45429 5.84465 -2.1833e-18)
(8.67916 5.51213 2.19402e-18)
(8.8893 5.1701 1.19282e-18)
(9.0843 4.81923 -3.3848e-18)
(9.26377 4.4602 1.1073e-18)
(9.42735 4.09373 2.20123e-18)
(9.57474 3.72054 1.0845e-18)
(9.70568 3.3414 1.09137e-18)
(9.82 2.95709 -1.15168e-18)
(9.91749 2.56835 1.69585e-18)
(9.99787 2.17597 -2.35284e-18)
(10.0611 1.78081 5.80754e-19)
(10.1071 1.38368 -5.58057e-19)
(10.1359 0.985396 0)
(10.1476 0.586495 1.51531e-20)
(10.1424 0.187953 0)
(7.27256 6.94421 -1.75344e-18)
(7.5555 6.67223 9.84427e-19)
(7.82589 6.38739 1.8007e-18)
(8.0833 6.09036 8.15167e-19)
(8.32728 5.78172 2.04163e-18)
(8.55733 5.46207 2.00146e-20)
(8.77291 5.1321 -1.02334e-18)
(8.97353 4.79248 -3.04972e-18)
(9.15875 4.44394 3.01088e-18)
(9.32812 4.08721 -3.09072e-18)
(9.48125 3.72302 -1.02969e-18)
(9.61786 3.35215 -2.0601e-18)
(9.73761 2.9754 0)
(9.84029 2.59355 0)
(9.92578 2.2075 0)
(9.9939 1.81815 -5.25111e-19)
(10.0445 1.42634 5.49971e-19)
(10.0775 1.03294 5.26805e-19)
(10.0929 0.638646 6.26825e-21)
(10.0906 0.244435 1.32311e-19)
(7.04516 6.6921 1.82109e-18)
(7.32482 6.43877 -1.65373e-18)
(7.59314 6.17232 -1.69557e-19)
(7.84939 5.8933 -1.70517e-19)
(8.09301 5.60227 4.29912e-18)
(8.32346 5.29984 -7.12405e-20)
(8.54017 4.98664 3.76532e-21)
(8.74261 4.66333 -2.71867e-18)
(8.9303 4.33058 1.79375e-18)
(9.10275 3.98909 0)
(9.25947 3.63963 9.62091e-19)
(9.40013 3.28304 9.68747e-19)
(9.52443 2.92009 0)
(9.63208 2.55162 0)
(9.72285 2.17846 0)
(9.79653 1.80141 0)
(9.85295 1.42129 -2.17031e-20)
(9.89198 1.03898 4.74332e-19)
(9.9135 0.655281 -2.27776e-19)
(9.9175 0.27115 0)
(6.78245 6.37737 1.54232e-18)
(7.05425 6.14189 0)
(7.31582 5.89349 -4.54101e-18)
(7.56636 5.63257 -1.54781e-18)
(7.80523 5.35965 -1.62654e-18)
(8.03185 5.0753 -1.72423e-18)
(8.24565 4.7801 8.14635e-19)
(8.44609 4.47464 -8.56123e-19)
(8.63263 4.15955 2.37719e-18)
(8.80481 3.83553 -7.78231e-19)
(8.96222 3.50334 0)
(9.10437 3.16372 0)
(9.23086 2.81736 0)
(9.34141 2.46505 0)
(9.43578 2.1076 -1.22897e-18)
(9.51369 1.74582 4.22587e-19)
(9.57495 1.3805 -4.46397e-19)
(9.61937 1.0125 0)
(9.64684 0.642642 2.24639e-19)
(9.65728 0.271823 0)
(6.50748 6.05019 1.31939e-18)
(6.76905 5.83086 -4.79835e-20)
(7.02133 5.59901 2.77528e-18)
(7.26352 5.35497 1.38651e-18)
(7.49496 5.09921 0)
(7.71508 4.83223 -1.47236e-18)
(7.9233 4.55457 6.84856e-20)
(8.11909 4.26678 -1.49471e-18)
(8.30191 3.96945 2.0678e-18)
(8.47129 3.66324 3.27307e-20)
(8.6268 3.34877 2.81083e-20)
(8.76799 3.02667 -7.45865e-19)
(8.89445 2.69769 1.46279e-18)
(9.00586 2.36256 0)
(9.10195 2.02202 6.85467e-20)
(9.18242 1.67687 7.46821e-19)
(9.24701 1.3279 1.63694e-21)
(9.29553 0.975883 -1.53412e-20)
(9.32786 0.621622 0)
(9.34386 0.265952 -4.63005e-20)
(6.2416 5.73321 0)
(6.49183 5.52785 -4.89084e-20)
(6.73353 5.3105 1.75583e-20)
(6.96592 5.08145 -2.50871e-18)
(7.18838 4.84108 0)
(7.40032 4.58987 1.26879e-18)
(7.60121 4.3283 1.35147e-18)
(7.79052 4.05687 -3.93196e-18)
(7.96774 3.77613 -6.8257e-20)
(8.1324 3.48665 -1.26254e-18)
(8.28407 3.18903 6.95182e-19)
(8.42232 2.88387 -6.42156e-19)
(8.54675 2.57186 -7.05943e-19)
(8.657 2.25368 0)
(8.75281 1.93006 3.72442e-19)
(8.83398 1.6016 -1.69028e-20)
(8.90012 1.26916 -3.45741e-19)
(8.95102 0.933465 -1.67648e-20)
(8.98656 0.595278 -8.70323e-20)
(9.00658 0.255366 1.74438e-19)
(5.99599 5.438 0)
(6.23464 5.24449 1.08477e-18)
(6.46534 5.03956 1.61683e-20)
(6.68738 4.82346 -1.1009e-18)
(6.90014 4.59653 0)
(7.10308 4.35921 1.14533e-18)
(7.29568 4.11191 -1.0935e-18)
(7.47744 3.85512 -1.21055e-18)
(7.64788 3.58933 2.3026e-18)
(7.80655 3.31506 1.24247e-18)
(7.95304 3.03288 0)
(8.08694 2.74338 6.06013e-19)
(8.20786 2.44717 -4.38657e-21)
(8.31549 2.14489 2.18597e-20)
(8.40943 1.83723 0)
(8.48951 1.52479 -5.96504e-19)
(8.5556 1.20821 -3.12512e-19)
(8.60727 0.888285 4.56596e-19)
(8.64441 0.565751 3.07854e-19)
(8.66685 0.241314 -4.115e-20)
(5.77434 5.16951 0)
(6.00173 4.98598 -9.36873e-19)
(6.22163 4.7916 0)
(6.43336 4.5866 -1.0108e-18)
(6.63634 4.37128 1.99004e-18)
(6.83007 4.14603 -2.02951e-18)
(7.01406 3.91123 3.1758e-18)
(7.18783 3.66732 -3.16665e-18)
(7.35094 3.41478 -2.13949e-18)
(7.50297 3.15409 -1.57799e-18)
(7.64352 2.88578 5.41123e-19)
(7.77221 2.6104 -1.12186e-18)
(7.88869 2.32853 1.86427e-20)
(7.99263 2.04077 1.11519e-18)
(8.08374 1.7477 -2.80554e-19)
(8.16164 1.45006 1.14929e-18)
(8.22626 1.14833 -5.65263e-19)
(8.27741 0.843207 2.60431e-19)
(8.31483 0.53544 -1.48528e-19)
(8.33833 0.225689 0)
(5.57637 4.92812 0)
(5.79314 4.75305 1.81245e-18)
(6.00277 4.56768 8.79153e-19)
(6.20463 4.37222 -9.04971e-19)
(6.39815 4.16694 -1.85383e-18)
(6.58288 3.95216 2.82095e-18)
(6.75835 3.72828 1.1282e-20)
(6.92414 3.49568 -9.1948e-19)
(7.07982 3.25481 1.97402e-18)
(7.22502 3.00614 1.01952e-18)
(7.35934 2.75016 -9.52483e-19)
(7.48244 2.48741 5.00147e-19)
(7.59398 2.21841 2.25291e-20)
(7.69365 1.94373 -5.26281e-19)
(7.78118 1.66395 -2.55023e-19)
(7.85628 1.37966 5.11356e-19)
(7.91871 1.09153 -2.56333e-19)
(7.96837 0.800078 -5.17272e-19)
(8.00508 0.505979 5.99393e-20)
(8.0286 0.209883 6.48156e-20)
(5.39987 4.71177 0)