/*--------------------------------*- C++ -*----------------------------------*\
  =========                 |
  \\      /  F ield         | OpenFOAM: The Open Source CFD Toolbox
   \\    /   O peration     | Website:  https://openfoam.org
    \\  /    A nd           | Version:  6.0
     \\/     M anipulation  |
\*---------------------------------------------------------------------------*/
FoamFile
{
    version     2.0;
    format      ascii;
    class       surfaceScalarField;
    location    "17";
    object      phi;
}
// * * * * * * * * * * * * * * * * * * * * * * * * * * * * * * * * * * * * * //

dimensions      [0 3 -1 0 0 0 0];

internalField   nonuniform List<scalar> 
38030
(
-8.54743e-06
-0.00798183
0.00799038
-2.73961e-05
-0.00734184
0.00736069
-5.44198e-05
-0.00675492
0.00678194
-8.76431e-05
-0.00621806
0.00625128
-0.000125244
-0.00572785
0.00576545
-0.000165677
-0.00528081
0.00532124
-0.000207652
-0.00487348
0.00491545
-0.000250112
-0.00450254
0.004545
-0.000292194
-0.00416484
0.00420692
-0.00033321
-0.0038574
0.00389842
-0.000372621
-0.00357747
0.00361688
-0.000410019
-0.00332246
0.00335986
-0.00044511
-0.00309001
0.0031251
-0.000477698
-0.00287796
0.00291054
-0.000507676
-0.0026843
0.00271428
-0.000535011
-0.00250724
0.00253458
-0.000559738
-0.00234512
0.00236985
-0.00058195
-0.00219646
0.00221867
-0.000601791
-0.0020599
0.00207974
-0.000619446
-0.00193424
0.00195189
-0.000635137
-0.00181837
0.00183407
-0.000649117
-0.00171134
0.00172532
-0.00066166
-0.00161227
0.00162481
-0.000673058
-0.00152039
0.00153179
-0.000683613
-0.00143503
0.00144558
-0.000693633
-0.00135558
0.0013656
-0.000703422
-0.00128154
0.00129133
-0.000713278
-0.00121245
0.0012223
-0.000723492
-0.00114789
0.0011581
-0.00108745
0.00109832
-0.000734358
-7.55184e-06
-0.00797428
-2.61223e-05
-0.00732327
-5.27813e-05
-0.00672826
-8.5291e-05
-0.00618555
-0.000121783
-0.00569136
-0.000160694
-0.0052419
-0.000200728
-0.00483344
-0.000240819
-0.00446245
-0.000280104
-0.00412555
-0.000317894
-0.00381961
-0.000353652
-0.00354171
-0.000386973
-0.00328914
-0.000417568
-0.00305942
-0.000445249
-0.00285028
-0.000469914
-0.00265964
-0.00049154
-0.00248562
-0.000510174
-0.00232649
-0.000525919
-0.00218072
-0.000538932
-0.00204689
-0.000549414
-0.00192375
-0.000557606
-0.00181018
-0.000563779
-0.00170517
-0.000568228
-0.00160782
-0.000571269
-0.00151735
-0.000573229
-0.00143307
-0.000574443
-0.00135437
-0.000575244
-0.00128074
-0.000575958
-0.00121173
-0.000576906
-0.00114694
-0.00108594
-0.000578411
-7.17479e-06
-0.0079671
-2.5169e-05
-0.00730528
-5.10415e-05
-0.00670239
-8.24217e-05
-0.00615417
-0.00011737
-0.00565641
-0.000154286
-0.00520498
-0.000191854
-0.00479588
-0.000228998
-0.00442531
-0.000264849
-0.0040897
-0.000298718
-0.00378574
-0.000330069
-0.00351036
-0.000358499
-0.00326071
-0.000383722
-0.00303419
-0.000405555
-0.00282844
-0.000423903
-0.00264129
-0.000438751
-0.00247077
-0.000450153
-0.00231509
-0.000458224
-0.00217265
-0.000463134
-0.00204198
-0.000465099
-0.00192179
-0.000464376
-0.0018109
-0.000461256
-0.00170829
-0.00045606
-0.00161301
-0.000449129
-0.00152428
-0.000440818
-0.00144138
-0.000431493
-0.00136369
-0.000421521
-0.00129071
-0.000411262
-0.00122199
-0.000401076
-0.00115713
-0.0010957
-0.000391322
-6.93589e-06
-0.00796017
-2.42757e-05
-0.00728794
-4.91082e-05
-0.00667755
-7.90185e-05
-0.00612426
-0.000112021
-0.00562341
-0.000146485
-0.00517052
-0.000181074
-0.00476129
-0.000214702
-0.00439168
-0.000246496
-0.00405791
-0.000275763
-0.00375648
-0.000301968
-0.00348415
-0.00032471
-0.00323796
-0.000343706
-0.0030152
-0.000358776
-0.00281337
-0.000369829
-0.00263024
-0.000376857
-0.00246374
-0.000379919
-0.00231203
-0.000379142
-0.00217342
-0.000374706
-0.00204642
-0.000366841
-0.00192965
-0.000355821
-0.00182192
-0.00034196
-0.00172215
-0.0003256
-0.00162937
-0.000307111
-0.00154277
-0.000286882
-0.00146161
-0.000265313
-0.00138526
-0.00024281
-0.00131321
-0.000219775
-0.00124503
-0.000196611
-0.00118029
-0.00111859
-0.000173724
-6.70889e-06
-0.00795346
-2.3314e-05
-0.00727133
-4.69054e-05
-0.00665396
-7.50489e-05
-0.00609611
-0.000105733
-0.00559272
-0.000137307
-0.00513894
-0.00016842
-0.00473017
-0.000197979
-0.00436212
-0.000225106
-0.00403078
-0.000249107
-0.00373248
-0.000269448
-0.00346381
-0.000285728
-0.00322168
-0.000297666
-0.00300326
-0.000305085
-0.00280595
-0.000307896
-0.00262743
-0.000306095
-0.00246554
-0.000299748
-0.00231837
-0.000288985
-0.00218418
-0.000273999
-0.0020614
-0.000255032
-0.00194862
-0.000232375
-0.00184458
-0.00020636
-0.00174816
-0.000177357
-0.00165838
-0.000145765
-0.00157436
-0.000112007
-0.00149536
-7.65228e-05
-0.00142075
-3.97629e-05
-0.00134997
-2.17805e-06
-0.00128261
3.5778e-05
-0.00121825
-0.00115645
7.3644e-05
-6.4563e-06
-0.007947
-2.22285e-05
-0.00725556
-4.43879e-05
-0.0066318
-7.0487e-05
-0.00607001
-9.84995e-05
-0.00556471
-0.000126762
-0.00511068
-0.000153917
-0.00470302
-0.000178868
-0.00433717
-0.000200735
-0.00400891
-0.000218825
-0.00371439
-0.000232604
-0.00345003
-0.000241673
-0.00321261
-0.000245752
-0.00299918
-0.000244663
-0.00280704
-0.000238321
-0.00263377
-0.000226722
-0.00247714
-0.000209934
-0.00233516
-0.000188094
-0.00220602
-0.0001614
-0.0020881
-0.000130106
-0.00197992
-9.45177e-05
-0.00188017
-5.49866e-05
-0.00178769
-1.19068e-05
-0.00170146
3.42913e-05
-0.00162056
8.31471e-05
-0.00154422
0.000134177
-0.00147178
0.000186883
-0.00140268
0.000240758
-0.00133648
0.000295288
-0.00127278
-0.00121111
0.000349947
-6.16446e-06
-0.00794084
-2.09933e-05
-0.00724073
-4.15306e-05
-0.00661127
-6.53153e-05
-0.00604623
-9.03133e-05
-0.00553971
-0.000114856
-0.00508614
-0.000137586
-0.00468029
-0.000157404
-0.00431735
-0.000173436
-0.00399288
-0.000184989
-0.00370283
-0.000191531
-0.00344349
-0.000192666
-0.00321148
-0.000188113
-0.00300373
-0.000177695
-0.00281746
-0.000161326
-0.00265014
-0.000139
-0.00249947
-0.000110788
-0.00236337
-7.68275e-05
-0.00223999
-3.73203e-05
-0.0021276
7.47179e-06
-0.00202471
5.7231e-05
-0.00192993
0.000111588
-0.00184205
0.000170124
-0.00175999
0.000232378
-0.00168281
0.000297851
-0.00160969
0.000366013
-0.00153994
0.000436311
-0.00147298
0.000508175
-0.00140835
0.000581024
-0.00134562
-0.00128434
0.000654256
-5.82945e-06
-0.00793501
-1.95974e-05
-0.00722696
-3.83193e-05
-0.00659254
-5.95228e-05
-0.00602502
-8.11699e-05
-0.00551807
-0.000101593
-0.00506571
-0.000119439
-0.00466244
-0.000133615
-0.00430317
-0.000143249
-0.00398325
-0.000147657
-0.00369842
-0.00014631
-0.00344484
-0.000138814
-0.00321898
-0.000124888
-0.00301766
-0.000104356
-0.00283799
-7.71266e-05
-0.00267737
-4.31938e-05
-0.0025334
-2.62396e-06
-0.00240394
4.44465e-05
-0.00228706
9.7815e-05
-0.00218097
0.000157216
-0.00208411
0.000222322
-0.00199504
0.000292751
-0.00191248
0.000368061
-0.0018353
0.000447762
-0.00176251
0.000531314
-0.00169325
0.00061814
-0.00162676
0.000707626
-0.00156246
0.000799135
-0.00149986
0.000892008
-0.0014385
-0.00137789
0.000985556
-5.45014e-06
-0.00792956
-1.80358e-05
-0.00721438
-3.47463e-05
-0.00657583
-5.31012e-05
-0.00600667
-7.10638e-05
-0.0055001
-8.69731e-05
-0.0050498
-9.94842e-05
-0.00464993
-0.000107516
-0.00429514
-0.000110206
-0.00398056
-0.000106879
-0.00370175
-9.70109e-05
-0.0034547
-8.02122e-05
-0.00323578
-5.62043e-05
-0.00304167
-2.48072e-05
-0.00286939
1.40715e-05
-0.00271624
6.04448e-05
-0.00257977
0.000114252
-0.00245775
0.000175362
-0.00234817
0.000243576
-0.00224919
0.000318628
-0.00215916
0.00040019
-0.0020766
0.000487865
-0.00200015
0.000581196
-0.00192863
0.000679663
-0.00186098
0.000782691
-0.00179627
0.000889649
-0.00173372
0.000999863
-0.00167268
0.00111262
-0.00161262
0.00122718
-0.00155305
-0.00149346
0.00134274
-5.02654e-06
-0.00792453
-1.63053e-05
-0.0072031
-3.08054e-05
-0.00656133
-4.60425e-05
-0.00599143
-5.99864e-05
-0.00548616
-7.09888e-05
-0.0050388
-7.77196e-05
-0.0046432
-7.91129e-05
-0.00429375
-7.43223e-05
-0.00398535
-6.26829e-05
-0.00371339
-4.36818e-05
-0.00347371
-1.69342e-05
-0.00326252
1.7836e-05
-0.00307644
6.08101e-05
-0.00291237
0.000112085
-0.00276752
0.000171682
-0.00263937
0.000239549
-0.00252562
0.000315565
-0.00242418
0.000399539
-0.00233316
0.000491213
-0.00225083
0.000590257
-0.00217564
0.000696274
-0.00210617
0.000808791
-0.00204115
0.000927267
-0.00197946
0.00105109
-0.0019201
0.00117958
-0.00186221
0.00131199
-0.00180509
0.00144754
-0.00174817
0.00158538
-0.0016909
-0.0016327
0.00172462
-4.55809e-06
-0.00791997
-1.4403e-05
-0.00719325
-2.64898e-05
-0.00654925
-3.83363e-05
-0.00597959
-4.79252e-05
-0.00547657
-5.3627e-05
-0.0050331
-5.41327e-05
-0.0046427
-4.83982e-05
-0.00429948
-3.55966e-05
-0.00399815
-1.50802e-05
-0.00373391
1.36507e-05
-0.00350244
5.09724e-05
-0.00329984
9.71567e-05
-0.00312262
0.000152386
-0.00296759
0.000216762
-0.0028319
0.000290315
-0.00271292
0.000373005
-0.00260831
0.000464725
-0.0025159
0.000565299
-0.00243373
0.000674482
-0.00236002
0.000791952
-0.00229311
0.000917314
-0.00223153
0.00105009
-0.00217393
0.00118972
-0.00211909
0.00133557
-0.00206594
0.0014869
-0.00201354
0.0016429
-0.0019611
0.00180272
-0.00190798
0.00196539
-0.00185357
-0.00179721
0.00212991
-4.04383e-06
-0.00791593
-1.23249e-05
-0.00718497
-2.17906e-05
-0.00653978
-2.99686e-05
-0.00597141
-3.48615e-05
-0.00547168
-3.48655e-05
-0.0050331
-2.86998e-05
-0.00464886
-1.53481e-05
-0.00431283
5.99067e-06
-0.00401949
3.59418e-05
-0.00376386
7.49869e-05
-0.00354148
0.00012349
-0.00334835
0.000181715
-0.00318085
0.000249845
-0.00303572
0.000327985
-0.00291004
0.000416176
-0.00280111
0.000514393
-0.00270653
0.000622547
-0.00262405
0.000740482
-0.00255167
0.000867972
-0.00248751
0.00100472
-0.00242985
0.00115033
-0.00237714
0.00130433
-0.00232793
0.00146616
-0.00228092
0.00163515
-0.00223493
0.00181053
-0.00218892
0.00199144
-0.002142
0.00217691
-0.00209345
0.00236588
-0.00204254
-0.00198853
0.0025572
-3.48243e-06
-0.00791245
-1.00651e-05
-0.00717839
-1.66964e-05
-0.00653315
-2.09214e-05
-0.00596718
-2.07705e-05
-0.00547183
-1.46732e-05
-0.00503919
-1.38462e-06
-0.00466215
2.00767e-05
-0.0043343
5.04791e-05
-0.00404989
9.04192e-05
-0.0038038
0.000140355
-0.00359142
0.000200633
-0.00340863
0.000271507
-0.00325172
0.000353154
-0.00311737
0.000445684
-0.00300257
0.000549146
-0.00290458
0.000663534
-0.00282091
0.00078878
-0.0027493
0.000924753
-0.00268764
0.00107126
-0.00263401
0.00122801
-0.00258661
0.00139466
-0.00254379
0.00157074
-0.00250401
0.00175569
-0.00246587
0.00194883
-0.00242807
0.00214936
-0.00238945
0.00235635
-0.002349
0.00256876
-0.00230586
0.00278542
-0.0022592
-0.00220813
0.00300501
-2.87187e-06
-0.00790958
-7.61712e-06
-0.00717364
-1.11935e-05
-0.00652957
-1.11725e-05
-0.0059672
-5.62104e-06
-0.00547738
6.98946e-06
-0.0050518
2.78604e-05
-0.00468302
5.79302e-05
-0.00436437
9.79273e-05
-0.00408989
0.000148412
-0.00385428
0.000209813
-0.00365282
0.000282452
-0.00348126
0.000366566
-0.00333583
0.000462324
-0.00321313
0.000569836
-0.00311008
0.00068916
-0.0030239
0.000820305
-0.00295206
0.000963228
-0.00289222
0.00111783
-0.00284225
0.00128395
-0.00280013
0.00146135
-0.00276401
0.0016497
-0.00273214
0.00184858
-0.00270289
0.00205743
-0.00267472
0.00227558
-0.00264622
0.00250221
-0.00261608
0.00273634
-0.00258313
0.00297686
-0.00254637
0.00322246
-0.0025048
-0.00245737
0.0034717
-2.20983e-06
-0.00790737
-4.97272e-06
-0.00717088
-5.26563e-06
-0.00652928
-6.96221e-07
-0.00597177
1.06229e-05
-0.0054887
3.01695e-05
-0.00507135
5.90927e-05
-0.00471194
9.82799e-05
-0.00440355
0.000148411
-0.00414002
0.000210003
-0.00391588
0.000283446
-0.00372626
0.000369029
-0.00356685
0.000466968
-0.00343377
0.000577414
-0.00332357
0.000700473
-0.00323314
0.000836209
-0.00315964
0.000984644
-0.00310049
0.00114576
-0.00305334
0.0013195
-0.00301599
0.00150574
-0.00298637
0.00170429
-0.00296256
0.00191487
-0.00294272
0.0021371
-0.00292512
0.00237047
-0.00290809
0.00261433
-0.00289008
0.00286785
-0.0028696
0.00313002
-0.00284531
0.00339966
-0.00281601
0.00367536
-0.0027805
-0.00273751
0.0039555
-1.49357e-06
-0.00790587
-2.12295e-06
-0.00717025
1.10477e-06
-0.00653251
1.05356e-05
-0.0059812
2.8001e-05
-0.00550616
5.49188e-05
-0.00509827
9.23771e-05
-0.0047494
0.000141203
-0.00445238
0.00020202
-0.00420084
0.000275291
-0.00398915
0.000361361
-0.00381233
0.000460478
-0.00366596
0.000572824
-0.00354612
0.000698528
-0.00344928
0.000837683
-0.00337229
0.00099035
-0.0033123
0.00115656
-0.00326671
0.00133633
-0.00323311
0.00152963
-0.00320928
0.00173638
-0.00319312
0.00195645
-0.00318264
0.00218964
-0.00317591
0.00243563
-0.0031711
0.00269396
-0.00316642
0.00296402
-0.00316014
0.00324503
-0.0031506
0.00353595
-0.00313623
0.00383555
-0.00311561
0.00414231
-0.00308726
-0.00304966
0.00445446
-7.20344e-07
-0.00790515
9.41374e-07
-0.00717191
7.93599e-06
-0.0065395
2.25516e-05
-0.00599582
4.65541e-05
-0.00553017
8.12913e-05
-0.005133
0.000127781
-0.00479589
0.000186781
-0.00451138
0.00025885
-0.0042729
0.000344389
-0.00407469
0.000443684
-0.00391163
0.000556934
-0.00377922
0.000684278
-0.00367346
0.000825812
-0.00359081
0.000981603
-0.00352808
0.0011517
-0.0034824
0.00133614
-0.00345115
0.00153496
-0.00343193
0.00174815
-0.00342248
0.00197571
-0.00342068
0.00221756
-0.00342449
0.00247358
-0.00343193
0.00274353
-0.00344105
0.00302705
-0.00344994
0.0033236
-0.0034567
0.00363245
-0.00345945
0.0039526
-0.00345638
0.00428277
-0.00344578
0.00462138
-0.00342586
-0.00339475
0.00496647
1.12606e-07
-0.00790526
4.22925e-06
-0.00717603
1.52454e-05
-0.00655052
3.53798e-05
-0.00601595
6.63213e-05
-0.00556111
0.000109338
-0.00517602
0.000165369
-0.00485192
0.000235095
-0.0045811
0.000318998
-0.00435681
0.000417408
-0.0041731
0.000530546
-0.00402476
0.000658548
-0.00390722
0.000801497
-0.00381641
0.000959442
-0.00374876
0.00113241
-0.00370105
0.00132044
-0.00367042
0.00152354
-0.00365426
0.00174176
-0.00365014
0.00197514
-0.00365585
0.00222369
-0.00366923
0.00248744
-0.00368823
0.00276633
-0.00371082
0.00306026
-0.00373498
0.00336897
-0.00375865
0.00369204
-0.00377977
0.00402883
-0.00379624
0.00437841
-0.00380596
0.0047395
-0.00380687
0.00511046
-0.00379682
-0.0037735
0.00548921
1.00791e-06
-0.00790627
7.74886e-06
-0.00718277
2.30489e-05
-0.00656582
4.90444e-05
-0.00604195
8.73366e-05
-0.0055994
0.000139105
-0.00522779
0.000205199
-0.00491802
0.000286214
-0.00466212
0.000382549
-0.00445314
0.000494454
-0.004285
0.000622071
-0.00415238
0.000765466
-0.00405061
0.000924651
-0.0039756
0.00109961
-0.00392372
0.00129033
-0.00389177
0.00149679
-0.00387688
0.00171899
-0.00387645
0.00195695
-0.00388811
0.00221073
-0.00390963
0.0024804
-0.0039389
0.00276604
-0.00397387
0.00306771
-0.00401249
0.00338542
-0.00405269
0.00371907
-0.0040923
0.00406839
-0.0041291
0.00443289
-0.00416074
0.00481177
-0.00418483
0.0052038
-0.00419891
0.00560734
-0.00420036
-0.00418633
0.00602017
1.96739e-06
-0.00790824
1.15065e-05
-0.00719231
3.13583e-05
-0.00658567
6.35637e-05
-0.00607416
0.000109625
-0.00564546
0.000170623
-0.00528879
0.00024731
-0.0049947
0.000340189
-0.004755
0.000449566
-0.00456252
0.000575605
-0.00441104
0.000718361
-0.00429514
0.000877814
-0.00421006
0.0010539
-0.00415168
0.00124652
-0.00411634
0.00145558
-0.00410084
0.00168101
-0.00410231
0.00192275
-0.0041182
0.00218081
-0.00414616
0.00245521
-0.00418403
0.00274607
-0.00422976
0.00305351
-0.00428131
0.0033777
-0.00433668
0.00371878
-0.00439377
0.00407685
-0.00445037
0.00445184
-0.00450409
0.00484347
-0.00455237
0.00525112
-0.00459248
0.00567372
-0.00462152
0.00610967
-0.00463631
-0.00463334
0.00655668
2.99229e-06
-0.00791123
1.55063e-05
-0.00720482
4.01813e-05
-0.00661035
7.89483e-05
-0.00611292
0.000133199
-0.00569971
0.000203906
-0.00535949
0.000291719
-0.00508252
0.000397039
-0.00486032
0.000520077
-0.00468556
0.0006609
-0.00455187
0.00081947
-0.00445371
0.000995672
-0.00438627
0.00118935
-0.00434535
0.0014003
-0.0043273
0.00162836
-0.0043289
0.00187335
-0.0043473
0.00213515
-0.00438
0.00241369
-0.0044247
0.00270896
-0.00447931
0.00302106
-0.00454186
0.00335016
-0.00461041
0.0036965
-0.00468303
0.00406038
-0.00475765
0.00444208
-0.00483207
0.00484181
-0.00490381
0.00525956
-0.00497012
0.00569501
-0.00502793
0.00614735
-0.00507385
0.00661509
-0.00510405
-0.00511418
0.00709594
4.08283e-06
-0.00791531
1.97497e-05
-0.00722049
4.95199e-05
-0.00664012
9.51987e-05
-0.0061586
0.000158055
-0.00576257
0.000238945
-0.00544038
0.000338409
-0.00518198
0.000456742
-0.00497865
0.000594056
-0.00482287
0.000750316
-0.00470813
0.000925384
-0.00462877
0.00111905
-0.00457993
0.00133103
-0.00455734
0.00156106
-0.00455732
0.00180882
-0.00457666
0.00207404
-0.00461252
0.00235648
-0.00466244
0.00265597
-0.00472419
0.00297244
-0.00479578
0.00330591
-0.00487533
0.00365655
-0.00496105
0.00402464
-0.00505111
0.0044106
-0.00514361
0.00481492
-0.00523639
0.00523811
-0.005327
0.00568054
-0.00541255
0.00614229
-0.00548968
0.00662294
-0.0055545
0.00712128
-0.00560239
-0.00562801
0.00763511
5.23844e-06
-0.00792055
2.42358e-05
-0.00723949
5.93706e-05
-0.00667525
0.000112304
-0.00621153
0.000184171
-0.00583444
0.000275703
-0.00553192
0.000387325
-0.0052936
0.000519226
-0.00511055
0.000671411
-0.00497506
0.000843748
-0.00488046
0.00103599
-0.00482102
0.00124783
-0.00479176
0.00147888
-0.00478839
0.00172873
-0.00480717
0.00199696
-0.00484489
0.00228316
-0.00489872
0.00258695
-0.00496623
0.00290803
-0.00504527
0.00324617
-0.00513392
0.00360129
-0.00523045
0.00397346
-0.00533322
0.00436296
-0.00544061
0.00477027
-0.00555091
0.00519605
-0.00566218
0.00564113
-0.00577208
0.00610633
-0.00587775
0.00659229
-0.00597564
0.00709916
-0.00606137
0.00762623
-0.00612947
-0.0061733
0.00817152
6.45765e-06
-0.00792701
2.89625e-05
-0.00726199
6.97255e-05
-0.00671601
0.000130244
-0.00627205
0.000211505
-0.0059157
0.00031411
-0.00563452
0.000438365
-0.00541786
0.000584352
-0.00525654
0.000751973
-0.00514268
0.000940993
-0.00506948
0.00115107
-0.0050311
0.00138178
-0.00502247
0.00163263
-0.00503924
0.00190309
-0.00507764
0.00219262
-0.00513441
0.00250064
-0.00520675
0.00282662
-0.00529222
0.00317008
-0.00538872
0.00353059
-0.00549443
0.0039079
-0.00560775
0.00430189
-0.00572721
0.00471271
-0.00585144
0.0051408
-0.00597901
0.00558692
-0.0061083
0.00605216
-0.00623732
0.00653783
-0.00636342
0.00704527
-0.00648308
0.00757548
-0.00659157
0.00812855
-0.00668254
-0.00674773
0.00870298
7.74068e-06
-0.00793475
3.39301e-05
-0.00728818
8.05758e-05
-0.00676266
0.000148987
-0.00634046
0.000239993
-0.0060067
0.000354061
-0.00574859
0.000491378
-0.00555518
0.000651916
-0.00541708
0.000835478
-0.00532624
0.00104173
-0.00527573
0.00127023
-0.0052596
0.00152046
-0.0052727
0.00179182
-0.0053106
0.00208368
-0.00536949
0.00239534
-0.00544607
0.00272609
-0.0055375
0.00307524
-0.00564136
0.00344207
-0.00575556
0.00382596
-0.00587832
0.00422636
-0.00600815
0.0046429
-0.00614375
0.00507545
-0.00628399
0.00552424
-0.0064278
0.00598994
-0.006574
0.00647375
-0.00672113
0.00697741
-0.00686708
0.00750305
-0.00700872
0.00805284
-0.00714137
0.00862817
-0.00725787
-0.00734798
0.00922842
9.09411e-06
-0.00794385
3.91493e-05
-0.00731824
9.19177e-05
-0.00681543
0.000168497
-0.00641704
0.000269553
-0.00610776
0.000395416
-0.00587445
0.000546156
-0.00570592
0.000721638
-0.00559256
0.000921564
-0.00552617
0.00114551
-0.00549968
0.00139294
-0.00550703
0.00166325
-0.00554301
0.00195575
-0.0056031
0.0022697
-0.00568344
0.0026043
-0.00578067
0.00295872
-0.00589192
0.00333207
-0.00601471
0.00372347
-0.00614696
0.00413204
-0.00628689
0.00455693
-0.00643303
0.00499739
-0.00658422
0.0054529
-0.0067395
0.00592322
-0.00689812
0.00640866
-0.00705944
0.0069102
-0.00722267
0.00742974
-0.00738662
0.00797013
-0.00754911
0.00853496
-0.0077062
0.00912764
-0.00785055
-0.00796942
0.00974908
1.05425e-05
-0.00795439
4.46544e-05
-0.00735235
0.00010376
-0.00687453
0.000188734
-0.00650202
0.000300081
-0.0062191
0.000437998
-0.00601237
0.000602439
-0.00587036
0.000793161
-0.00578328
0.00100977
-0.00574277
0.00125175
-0.00574166
0.00151849
-0.00577377
0.0018093
-0.00583382
0.00212342
-0.00591722
0.00246003
-0.00602005
0.00281825
-0.00613889
0.00319715
-0.00627082
0.00359575
-0.00641331
0.004013
-0.00656421
0.0044478
-0.00672169
0.00489903
-0.00688427
0.00536557
-0.00705075
0.00584635
-0.00722028
0.00634052
-0.0073923
0.00684764
-0.00756655
0.00736796
-0.007743
0.0079029
-0.00792155
0.00845544
-0.00810165
0.00903051
-0.00828127
0.00963431
-0.00845435
-0.00860561
0.0102705
1.21545e-05
-0.00796654
5.05281e-05
-0.00739072
0.000116135
-0.00694014
0.000209655
-0.00659554
0.00033145
-0.0063409
0.000481593
-0.00616251
0.000659914
-0.00604868
0.000866062
-0.00598943
0.00109954
-0.00597625
0.00135975
-0.00600187
0.001646
-0.00606002
0.00195753
-0.00614535
0.00229353
-0.00625322
0.00265313
-0.00637965
0.00303541
-0.00652117
0.0034394
-0.00667481
0.00386407
-0.00683798
0.00430831
-0.00700845
0.00477093
-0.00718431
0.00525065
-0.00736398
0.00574605
-0.00754615
0.00625565
-0.00772988
0.0067779
-0.00791455
0.00731137
-0.00810002
0.007855
-0.00828663
0.00840868
-0.00847524
0.00897411
-0.00866708
0.00955611
-0.00886327
0.0101638
-0.00906206
-0.0092508
0.010809
1.41534e-05
-0.0079807
5.69699e-05
-0.00743354
0.000129112
-0.00701228
0.000231207
-0.00669763
0.000363507
-0.0064732
0.000525945
-0.00632495
0.000718219
-0.00624095
0.000939855
-0.00621107
0.00119025
-0.00622665
0.00146871
-0.00628032
0.00177446
-0.00636577
0.00210669
-0.00647758
0.00246455
-0.00661107
0.00284713
-0.00676223
0.00325352
-0.00692757
0.00368277
-0.00710406
0.00413387
-0.00728909
0.0046058
-0.00748038
0.00509743
-0.00767594
0.00560754
-0.00787409
0.00613476
-0.00807337
0.0066775
-0.00827262
0.00723391
-0.00847096
0.0078018
-0.00866791
0.0083787
-0.00886353
0.00896214
-0.00905868
0.00955043
-0.00925537
0.0101446
-0.00945745
0.0107539
-0.00967138
-0.00990996
0.0114131
1.73508e-05
-0.00799805
6.43662e-05
-0.00748055
0.00014275
-0.00709067
0.000253285
-0.00680817
0.000396039
-0.00661595
0.00057075
-0.00649966
0.000776946
-0.00644715
0.00101401
-0.00644813
0.0012812
-0.00649385
0.00157774
-0.00657686
0.00190277
-0.0066908
0.0022554
-0.00683021
0.00263474
-0.00699042
0.00303988
-0.00716737
0.00346992
-0.00735761
0.00392397
-0.0075581
0.00440113
-0.00776625
0.00490054
-0.00797979
0.00542134
-0.00819674
0.00596267
-0.00841542
0.00652366
-0.00863436
0.00710336
-0.00885232
0.00770069
-0.00906829
0.00831428
-0.0092815
0.00894228
-0.00949154
0.00958222
-0.00969861
0.0102306
-0.00990379
0.0108822
-0.010109
0.011532
-0.0103212
-0.0105633
0.0121853
0.00899225
4.60244e-05
-0.00903828
0.00894718
4.50783e-05
0.00890239
4.47855e-05
0.00885776
4.46321e-05
0.0088133
4.44589e-05
0.00876909
4.42099e-05
0.00872523
4.38633e-05
0.00868181
4.34128e-05
0.00863895
4.28587e-05
0.00859675
4.22044e-05
0.00855529
4.14548e-05
0.00851468
4.06156e-05
0.00847499
3.96929e-05
0.00843629
3.86929e-05
0.00839867
3.76217e-05
0.00836219
3.64852e-05
0.0083269
3.52893e-05
0.00829286
3.40397e-05
0.00826012
3.27413e-05
0.00822872
3.13995e-05
0.0081987
3.00188e-05
0.00817009
2.86041e-05
0.00814293
2.71593e-05
0.00811725
2.56887e-05
0.00809305
2.41945e-05
0.00807038
2.26731e-05
0.00804927
2.11055e-05
0.00802984
1.94322e-05
0.0080124
1.74455e-05
1.43482e-05
0.0102829
0.000164434
-0.0104013
0.0101634
0.000164653
0.0100432
0.000164985
0.00992261
0.000165178
0.00980198
0.000165086
0.00968155
0.00016464
0.00956161
0.000163806
0.00944244
0.000162575
0.00932435
0.00016095
0.00920762
0.00015894
0.00909251
0.00015656
0.0089793
0.00015383
0.00886822
0.000150768
0.00875952
0.000147395
0.00865341
0.000143732
0.00855009
0.000139801
0.00844976
0.000135622
0.00835259
0.000131214
0.00825873
0.000126597
0.00816834
0.00012179
0.00808155
0.000116809
0.00799849
0.00011167
0.00791926
0.000106388
0.00784397
0.000100975
0.00777273
9.54384e-05
0.00770563
8.97749e-05
0.00764277
8.39563e-05
0.0075843
7.79058e-05
0.00753032
7.14276e-05
6.4113e-05
0.0115385
0.000343235
-0.0117173
0.011357
0.000346229
0.0111734
0.000348547
0.0109885
0.000350126
0.0108026
0.000350894
0.0106165
0.000350807
0.0104304
0.000349843
0.010245
0.000348
0.0100607
0.000345288
0.00987789
0.00034173
0.00969709
0.000337356
0.00951872
0.0003322
0.00934319
0.000326303
0.00917088
0.000319704
0.00900216
0.000312447
0.00883739
0.000304574
0.00867688
0.000296127
0.00852095
0.000287147
0.00836987
0.000277675
0.00822391
0.000267749
0.00808332
0.000257403
0.00794832
0.000246673
0.00781911
0.00023559
0.00769591
0.00022418
0.00757888
0.000212467
0.00746819
0.00020046
0.007364
0.000188151
0.0072664
0.000175504
0.0071754
0.000162434
0.000148842
0.0127495
0.000571701
-0.012978
0.0125167
0.000579062
0.0122803
0.000584896
0.0120412
0.000589212
0.0118001
0.000591991
0.0115577
0.000593219
0.0113147
0.000592894
0.0110716
0.000591027
0.0108293
0.000587644
0.0105882
0.000582784
0.0103491
0.000576493
0.0101125
0.000568827
0.00987893
0.000559849
0.00964901
0.000549623
0.00942324
0.000538218
0.00920211
0.000525703
0.00898609
0.000512147
0.00877562
0.000497617
0.00857111
0.000482181
0.00837296
0.0004659
0.00818153
0.000448836
0.00799716
0.000431046
0.00782016
0.000412584
0.00765084
0.000393501
0.00748947
0.000373844
0.00733627
0.000353652
0.00719147
0.000332958
0.00705519
0.000311786
0.00692746
0.000290157
0.000268136
0.0139079
0.000840092
-0.0141763
0.0136334
0.000853573
0.0133537
0.000864613
0.0130697
0.000873234
0.0127822
0.000879442
0.0124922
0.000883245
0.0122004
0.000884655
0.0119077
0.000883702
0.011615
0.000880424
0.0113229
0.000874877
0.0110322
0.000867128
0.0107438
0.000857254
0.0104583
0.000845342
0.0101765
0.000831484
0.00989889
0.000815775
0.00962628
0.000798315
0.00935923
0.000779202
0.00909831
0.000758534
0.00884408
0.000736409
0.00859706
0.000712918
0.00835775
0.00068815
0.0081266
0.000662192
0.00790406
0.000635125
0.00769053
0.000607031
0.00748639
0.000577989
0.00729196
0.000548078
0.00710754
0.000517383
0.00693333
0.000485995
0.00676946
0.000454026
0.000421642
0.0150075
0.00113969
-0.0153071
0.0146999
0.00116118
0.0143853
0.00117924
0.0140647
0.00119389
0.013739
0.00120515
0.0134092
0.00121301
0.0130763
0.00121752
0.0127413
0.00121869
0.0124052
0.00121659
0.0120688
0.00121129
0.011733
0.00120286
0.0113989
0.00119142
0.0110671
0.00117706
0.0107387
0.00115991
0.0104144
0.00114009
0.010095
0.00111774
0.00978119
0.00109297
0.0094738
0.00106593
0.00917346
0.00103674
0.00888085
0.00100553
0.00859658
0.000972412
0.00832127
0.000937507
0.00805546
0.00090093
0.0077997
0.000862795
0.00755447
0.00082322
0.00732022
0.000782331
0.00709733
0.000740268
0.00688613
0.000697192
0.00668686
0.0006533
0.000608842
0.0160439
0.00146274
-0.0163669
0.0157109
0.00149418
0.015369
0.00152117
0.0150192
0.0015437
0.0146626
0.00156175
0.0143002
0.00157534
0.0139333
0.00158449
0.0135627
0.00158923
0.0131897
0.00158962
0.0128152
0.00158575
0.0124404
0.0015777
0.0120662
0.00156561
0.0116937
0.00154959
0.0113238
0.00152979
0.0109575
0.00150637
0.0105958
0.00147949
0.0102394
0.0014493
0.00988941
0.00141597
0.0095465
0.00137966
0.0092115
0.00134052
0.0088852
0.00129872
0.00856831
0.0012544
0.00826154
0.0012077
0.00796556
0.00115878
0.00768099
0.00110779
0.0074084
0.00105492
0.00714832
0.00100035
0.00690119
0.00094432
0.00666738
0.000887115
0.000829072
0.0170139
0.00180234
-0.0173535
0.0166624
0.00184571
0.0163
0.00188358
0.0159278
0.00191589
0.0155469
0.00194259
0.0151586
0.00196368
0.0147639
0.00197917
0.0143641
0.00198907
0.0139602
0.00199346
0.0135536
0.00199241
0.0131453
0.00198602
0.0127364
0.00197444
0.0123282
0.0019578
0.0119218
0.00193626
0.0115181
0.00191002
0.0111184
0.00187924
0.0107235
0.00184414
0.0103346
0.00180489
0.00995255
0.00176169
0.00957834
0.00171474
0.00921286
0.0016642
0.00885698
0.00161027
0.00851155
0.00155313
0.00817739
0.00149294
0.00785526
0.00142992
0.00754589
0.00136429
0.00724994
0.00129629
0.00696802
0.00122625
0.00670061
0.00115452
0.00108156
0.0179159
0.00215242
-0.018266
0.0175519
0.00220969
0.0171751
0.00226039
0.0167866
0.00230439
0.0163875
0.00234163
0.0159792
0.00237207
0.0155626
0.00239568
0.0151392
0.00241247
0.0147102
0.00242249
0.0142768
0.00242582
0.0138403
0.00242256
0.0134019
0.00241284
0.0129628
0.00239682
0.0125244
0.00237468
0.0120878
0.00234663
0.0116542
0.00231286
0.0112247
0.0022736
0.0108006
0.00222907
0.0103828
0.00217949
0.00997242
0.00212507
0.00957059
0.00206604
0.00917828
0.00200258
0.00879649
0.00193492
0.00842618
0.00186325
0.0080683
0.00178781
0.00772371
0.00170887
0.00739327
0.00162674
0.00707772
0.00154179
0.00677773
0.00145451
0.00136544
0.0187491
0.00250769
-0.0191044
0.0183781
0.00258075
0.0179923
0.00264617
0.0175929
0.00270377
0.0171811
0.00275345
0.0167581
0.00279511
0.0163251
0.00282868
0.0158834
0.00285415
0.0154343
0.00287155
0.0149792
0.00288093
0.0145194
0.00288238
0.0140562
0.00287604
0.013591
0.00286207
0.013125
0.00284065
0.0126596
0.00281199
0.0121962
0.00277634
0.0117358
0.00273391
0.0112799
0.00268497
0.0108297
0.00262975
0.0103863
0.00256849
0.00995086
0.00250143
0.00952466
0.00242879
0.00910878
0.00235079
0.00870437
0.00226766
0.00831252
0.00217966
0.0079343
0.00208709
0.00757073
0.0019903
0.00722276
0.00188976
0.00689124
0.00178604
0.00167982
0.0195142
0.00286357
-0.01987
0.0191407
0.00295421
0.0187507
0.00303617
0.0183452
0.00310923
0.0179255
0.0031732
0.0174927
0.00322793
0.017048
0.00327331
0.0165929
0.0033093
0.0161286
0.00333586
0.0156565
0.00335304
0.015178
0.0033609
0.0146944
0.00335957
0.0142073
0.00334919
0.013718
0.00332997
0.0132279
0.0033021
0.0127384
0.00326584
0.0122508
0.00322144
0.0117666
0.00316917
0.0112871
0.00310927
0.0108136
0.00304202
0.0103474
0.00296765
0.00988976
0.0028864
0.00944206
0.00279849
0.00900555
0.00270417
0.00858152
0.00260369
0.00817124
0.00249737
0.00777592
0.00238562
0.00739674
0.00226895
0.00703473
0.00214805
0.00202374
0.0202121
0.00321615
-0.0205647
0.0198403
0.00332603
0.0194502
0.00342625
0.0190429
0.00351652
0.0186195
0.00359657
0.0181813
0.00366619
0.0177294
0.00372522
0.0172651
0.00377353
0.0167899
0.00381107
0.0163051
0.00383783
0.0158122
0.00385386
0.0153125
0.00385924
0.0148076
0.00385412
0.0142988
0.00383868
0.0137878
0.00381313
0.013276
0.00377771
0.0127647
0.00373269
0.0122555
0.00367834
0.0117499
0.00361494
0.0112492
0.00354274
0.0107548
0.003462
0.0102683
0.00337294
0.00979096