/*--------------------------------*- C++ -*----------------------------------*\
  =========                 |
  \\      /  F ield         | OpenFOAM: The Open Source CFD Toolbox
   \\    /   O peration     | Website:  https://openfoam.org
    \\  /    A nd           | Version:  6.0
     \\/     M anipulation  |
\*---------------------------------------------------------------------------*/
FoamFile
{
    version     2.0;
    format      ascii;
    class       volScalarField;
    location    "15.25";
    object      p;
}
// * * * * * * * * * * * * * * * * * * * * * * * * * * * * * * * * * * * * * //

dimensions      [0 2 -2 0 0 0 0];

internalField   nonuniform List<scalar> 
2400
(
-6.79009
-4.94497
-3.94673
-3.29238
-2.75173
-2.30395
-1.93622
-1.63122
-1.37548
-1.16326
-7.33975
-5.45519
-4.41017
-3.70993
-3.12714
-2.64225
-2.24271
-1.91072
-1.63186
-1.40057
-7.90683
-5.97884
-4.88359
-4.13459
-3.50735
-2.98368
-2.55123
-2.19156
-1.88927
-1.639
-8.48542
-6.51077
-5.36193
-4.56136
-3.88756
-3.32367
-2.85747
-2.46972
-2.14397
-1.87522
-9.06943
-7.04532
-5.83983
-4.98508
-4.26284
-3.65755
-3.15696
-2.74092
-2.39188
-2.10534
-9.65283
-7.57671
-6.31182
-5.40063
-4.62841
-3.98087
-3.44555
-3.00117
-2.62899
-2.32483
-10.23
-8.09934
-6.7725
-5.80295
-4.97966
-4.28955
-3.71974
-3.24747
-2.85236
-2.53051
-10.7965
-8.60815
-7.2167
-6.18707
-5.31188
-4.57916
-3.9754
-3.47605
-3.05921
-2.72358
-11.348
-9.09852
-7.63989
-6.54874
-5.6209
-4.84495
-4.20625
-3.67863
-3.24171
-2.90278
-11.8759
-9.56528
-8.03879
-6.88583
-5.90536
-5.08551
-4.40941
-3.84941
-3.38954
-3.03978
-15.0165
-14.9235
-14.771
-14.5644
-14.3064
-13.9997
-13.648
-13.2554
-12.8264
-12.3653
-12.2044
-12.1491
-12.04
-11.8799
-11.6712
-11.4165
-11.1189
-10.7818
-10.4088
-10.0024
-10.1565
-10.133
-10.0624
-9.94589
-9.78547
-9.58339
-9.34226
-9.06477
-8.7536
-8.4109
-8.59018
-8.58436
-8.53772
-8.45104
-8.32587
-8.16423
-7.96835
-7.74053
-7.4831
-7.19774
-7.31457
-7.31538
-7.28081
-7.21153
-7.10893
-6.97482
-6.81138
-6.6208
-6.40549
-6.16672
-6.29178
-6.29301
-6.2632
-6.20305
-6.11385
-5.99736
-5.85586
-5.69166
-5.50775
-5.30525
-5.47598
-5.47488
-5.44608
-5.3903
-5.30879
-5.20324
-5.07613
-4.92994
-4.76883
-4.59388
-4.81782
-4.81388
-4.78476
-4.73114
-4.65418
-4.55546
-4.4376
-4.30329
-4.1586
-4.00365
-4.27794
-4.27208
-4.24312
-4.19166
-4.11862
-4.02533
-3.91423
-3.78809
-3.65622
-3.51717
-3.83399
-3.82461
-3.79463
-3.74456
-3.67492
-3.58659
-3.48106
-3.3604
-3.23545
-3.11195
-12.7088
-13.1645
-13.5779
-13.9486
-14.2714
-14.5413
-14.7548
-14.9098
-15.0053
-15.0408
-9.87273
-10.3059
-10.704
-11.0633
-11.3795
-11.6484
-11.867
-12.0333
-12.1457
-12.203
-7.8957
-8.29415
-8.66361
-8.99932
-9.29737
-9.55459
-9.76844
-9.93689
-10.0584
-10.1318
-6.4925
-6.85165
-7.18613
-7.49109
-7.76305
-7.99948
-8.19835
-8.35796
-8.47704
-8.55464
-5.42107
-5.74265
-6.04248
-6.31578
-6.55948
-6.77164
-6.95069
-7.09535
-7.20464
-7.27787
-4.60249
-4.89197
-5.16102
-5.40508
-5.62201
-5.81044
-5.96916
-6.09726
-6.19404
-6.259
-3.96802
-4.23273
-4.47674
-4.69541
-4.88863
-5.0558
-5.19597
-5.30852
-5.39295
-5.44887
-3.45946
-3.7037
-3.92893
-4.12723
-4.30068
-4.44997
-4.5746
-4.67411
-4.74805
-4.79604
-3.05444
-3.27119
-3.47855
-3.66138
-3.81869
-3.95257
-4.06403
-4.15286
-4.21841
-4.2602
-2.79926
-2.97898
-3.1488
-3.31211
-3.45124
-3.56564
-3.65983
-3.73464
-3.78905
-3.82228
-0.487046
-0.629208
-0.818361
-1.06188
-1.38699
-1.83804
-2.47361
-3.37729
-4.82733
-7.21808
-0.69463
-0.857417
-1.06657
-1.33391
-1.68793
-2.17384
-2.85148
-3.80501
-5.30994
-7.74813
-0.909751
-1.09402
-1.32387
-1.61603
-2.00016
-2.52227
-3.24338
-4.24806
-5.80852
-8.29365
-1.13165
-1.33785
-1.58879
-1.90648
-2.32161
-2.88092
-3.64654
-4.7033
-6.32012
-8.85309
-1.35975
-1.58782
-1.85979
-2.20342
-2.65014
-3.24731
-4.05807
-5.16736
-6.84066
-9.42155
-1.59364
-1.84282
-2.13523
-2.5048
-2.98332
-3.61864
-4.47477
-5.63647
-7.36558
-9.99347
-1.83264
-2.10126
-2.41289
-2.80801
-3.31825
-3.99165
-4.89294
-6.10645
-7.89004
-10.5633
-2.07585
-2.36085
-2.68969
-3.1098
-3.65156
-4.36266
-5.30847
-6.57262
-8.40886
-11.1255
-2.31949
-2.61632
-2.96052
-3.40603
-3.97934
-4.72753
-5.7168
-7.02996
-8.91662
-11.6745
-2.55846
-2.85511
-3.21825
-3.69286
-4.2978
-5.08198
-6.1132
-7.47293
-9.40687
-12.2045
0.967079
0.951295
0.906479
0.830429
0.705496
0.500107
0.170498
-0.354452
-1.36514
-3.35788
0.890158
0.866579
0.808033
0.720118
0.582705
0.361411
0.0109236
-0.540912
-1.58306
-3.60296
0.7941
0.762249
0.692192
0.59209
0.440588
0.20152
-0.171935
-0.753063
-1.82908
-3.87752
0.679486
0.639416
0.558463
0.445294
0.278159
0.0195988
-0.378767
-0.991558
-2.10469
-4.18575
0.549768
0.50033
0.407649
0.280039
0.0955212
-0.184475
-0.609903
-1.25682
-2.41011
-4.52733
0.406338
0.34583
0.240219
0.0967569
-0.106914
-0.410398
-0.865192
-1.54877
-2.74502
-4.90128
0.250024
0.176586
0.0567598
-0.103961
-0.328545
-0.65759
-1.1441
-1.86692
-3.10888
-5.30678
0.0816292
-0.0065636
-0.141903
-0.321297
-0.568543
-0.925206
-1.44576
-2.21038
-3.50077
-5.7428
-0.0979802
-0.202646
-0.354765
-0.554224
-0.825838
-1.21212
-1.76898
-2.57788
-3.91935
-6.20803
-0.28788
-0.410603
-0.580708
-0.801583
-1.09921
-1.51702
-2.1123
-2.96766
-4.36252
-6.70073
1.05935
1.14103
1.19028
1.22195
1.24006
1.24685
1.24451
1.2349
1.21957
1.19976
1.02685
1.1067
1.1621
1.19937
1.22143
1.23086
1.23004
1.22101
1.20552
1.1849
0.993257
1.07103
1.12862
1.16871
1.19313
1.20427
1.20448
1.19584
1.18012
1.15867
0.92649
1.00783
1.06997
1.1143
1.14237
1.15642
1.15872
1.15135
1.1361
1.11431
0.811132
0.899841
0.96918
1.01996
1.05367
1.07242
1.07842
1.07373
1.06016
1.03902
0.618936
0.718781
0.798359
0.858428
0.90045
0.926425
0.93849
0.93869
0.928807
0.91014
0.307551
0.423461
0.517705
0.591224
0.64551
0.682493
0.704247
0.712787
0.709887
0.696781
-0.19303
-0.0548616
0.0599568
0.152496
0.224346
0.27745
0.313876
0.335613
0.3444
0.341435
-1.17268
-1.00591
-0.864705
-0.747839
-0.653381
-0.57919
-0.523104
-0.483209
-0.45788
-0.445489
-3.13163
-2.93584
-2.76921
-2.62922
-2.51322
-2.4187
-2.34339
-2.28554
-2.24376
-2.21488
1.1763
1.14975
1.1201
1.08706
1.05001
1.0082
0.960891
0.908071
0.854377
0.798056
1.16008
1.13168
1.0997
1.06382
1.02337
0.977475
0.924956
0.865303
0.801551
0.726571
1.13235
1.10183
1.06701
1.0275
0.982556
0.931137
0.871851
0.80361
0.726786
0.634494
1.08681
1.05431
1.01663
0.973339
0.923616
0.866303
0.799921
0.723074
0.634445
0.527847
1.01112
0.977239
0.937106
0.890256
0.835795
0.772458
0.698667
0.612756
0.512536
0.39275
0.883432
0.849546
0.808107
0.758597
0.700035
0.631035
0.549883
0.454641
0.342733
0.209834
0.674107
0.642855
0.602506
0.55246
0.491618
0.418457
0.3311
0.227388
0.10462
-0.0408519
0.327331
0.303173
0.268258
0.221804
0.16256
0.0888441
-0.00139402
-0.110538
-0.241372
-0.397123
-0.444372
-0.454667
-0.477316
-0.513344
-0.564161
-0.631662
-0.718201
-0.826648
-0.960169
-1.12122
-2.19269
-2.18394
-2.1892
-2.20925
-2.24558
-2.30046
-2.37683
-2.47852
-2.60956
-2.77025
-2.9543
-1.31076
-0.580467
-0.212096
0.0519855
0.247283
0.392283
0.503956
0.589776
0.645049
-3.17439
-1.53079
-0.791301
-0.408646
-0.129305
0.0801593
0.237178
0.357641
0.447931
0.509992
-3.43178
-1.78304
-1.03074
-0.630941
-0.333727
-0.107539
0.0642566
0.197369
0.299123
0.374704
-3.72669
-2.06828
-1.29916
-0.878975
-0.560996
-0.315331
-0.125978
0.0228671
0.139507
0.230216
-4.05919
-2.38671
-1.59673
-1.15284
-0.811201
-0.543441
-0.334113
-0.167285
-0.0338756
0.0725758
-4.42912
-2.7382
-1.92333
-1.45243
-1.08431
-0.792024
-0.560646
-0.374116
-0.222675
-0.0999723
-4.83597
-3.12211
-2.27835
-1.77718
-1.37984
-1.06074
-0.805446
-0.597758
-0.427251
-0.287744
-5.27885
-3.53728
-2.66053
-2.12586
-1.69662
-1.34851
-1.06755
-0.837371
-0.646846
-0.489946
-5.75611
-3.98185
-3.06789
-2.49648
-2.03271
-1.65344
-1.34516
-1.09121
-0.87977
-0.704906
-6.26299
-4.45263
-3.49776
-2.88642
-2.38551
-1.973
-1.63575
-1.35684
-1.12363
-0.930293
-0.633611
-0.199987
-0.0598543
0.0191216
0.0529262
0.0627725
0.0609441
0.0528044
0.0429608
0.0320311
0.0232603
0.0147925
0.00955528
0.00740095
0.00460338
0.0135338
0.0174289
0.0411718
0.0438226
0.00328623
-0.832892
-0.309983
-0.129567
-0.0300254
0.0184132
0.0376287
0.0421796
0.0386123
0.0321534
0.0238076
0.0169905
0.0100711
0.00598124
0.00468388
0.00255713
0.0120226
0.0165432
0.0401709
0.0427713
0.00292718
-1.03521
-0.426007
-0.200753
-0.0796163
-0.0162031
0.0126982
0.0237309
0.0247478
0.021645
0.0158383
0.0109257
0.00550992
0.0025233
0.00205053
0.00057143
0.0105341
0.0156493
0.039108
0.0417088
0.00261283
-1.23894
-0.547898
-0.273708
-0.129755
-0.0510588
-0.0121305
0.00552923
0.0111676
0.0114078
0.00810577
0.00505461
0.00110188
-0.000822382
-0.000500256
-0.00135488
0.00906681
0.0147475
0.0379944
0.0406412
0.0023421
-1.4404
-0.673018
-0.347256
-0.179873
-0.0859923
-0.0368468
-0.0124409
-0.0021465
0.00142653
0.000598677
-0.000630431
-0.00315771
-0.00405788
-0.00296864
-0.00322024
0.00762232
0.0138397
0.0368324
0.0395638
0.00211428
-1.63286
-0.797844
-0.42034
-0.229511
-0.120806
-0.0613794
-0.030149
-0.0151835
-0.00829699
-0.00668399
-0.0061311
-0.00727033
-0.00718338
-0.0053538
-0.00502335
0.006202
0.0129285
0.035632
0.0384798
0.00192821
-1.81784
-0.930345
-0.499407
-0.281865
-0.156837
-0.0863068
-0.0478572
-0.0280724
-0.0178325
-0.0137838
-0.0114731
-0.0112532
-0.0102097
-0.0076632
-0.00677085
0.00480296
0.0120141
0.0344013
0.0373921
0.0017823
-2.02451
-1.09733
-0.600519
-0.344875
-0.1979
-0.113571
-0.0665802
-0.0413638
-0.0274917
-0.0208881
-0.0167721
-0.0151822
-0.0131881
-0.00993314
-0.0084977
0.00340295
0.0110854
0.0331497
0.0363126
0.00167572
-2.25795
-1.29079
-0.71747
-0.415772
-0.243518
-0.143418
-0.0866162
-0.0552786
-0.037425
-0.0280915
-0.0220888
-0.0190926
-0.0161415
-0.012175
-0.0102078
0.00199702
0.0101403
0.0318754
0.035237
0.00161051
-2.3329
-1.37829
-0.775591
-0.457009
-0.27531
-0.1664
-0.102841
-0.0668918
-0.0458969
-0.0342937
-0.0267116
-0.0224885
-0.0187106
-0.0141134
-0.0116002
0.000790247
0.00930326
0.030548
0.0340576
0.0015875
-2.16439
-1.33776
-0.761215
-0.4603
-0.288619
-0.180184
-0.114243
-0.075914
-0.0530322
-0.0397727
-0.0309933
-0.0256816
-0.0211559
-0.0159554
-0.0126391
-0.00030107
0.00846093
0.0285419
0.0320983
0.00160823
-1.95816
-1.29508
-0.772269
-0.484716
-0.319907
-0.210354
-0.139075
-0.0953727
-0.0681518
-0.0512496
-0.0397023
-0.032102
-0.0259035
-0.0194957
-0.0149598
-0.00226512
0.00718399
0.0262243
0.0297486
0.0016069
-1.71007
-1.21983
-0.77356
-0.502469
-0.345489
-0.238705
-0.164409
-0.115972
-0.0845175
-0.0638923
-0.0493836
-0.0392819
-0.0312036
-0.0234374
-0.0175478
-0.00440523
0.00576884
0.0237249
0.0271415
0.00162724
-1.45634
-1.11712
-0.761154
-0.51587
-0.366717
-0.264146
-0.188888
-0.136559
-0.101097
-0.0768433
-0.0593674
-0.0467081
-0.036678
-0.0274774
-0.0201396
-0.00659621
0.00420899
0.0209177
0.0242101
0.00171395
-1.22857
-0.999685
-0.732008
-0.522146
-0.383121
-0.285611
-0.211454
-0.156611
-0.117605
-0.0899088
-0.069517
-0.054292
-0.0422575
-0.0315532
-0.0227129
-0.00882158
0.00249108
0.0178602
0.0210231
0.00186117
-1.03647
-0.882941
-0.690314
-0.520474
-0.395032
-0.302955
-0.231084
-0.175213
-0.133434
-0.102648
-0.0795063
-0.0618103
-0.0477819
-0.0355456
-0.0252108
-0.0110226
0.00064798
0.0146722
0.0176996
0.00203414
-0.886046
-0.78053
-0.644121
-0.511635
-0.402219
-0.316193
-0.247086
-0.191381
-0.147795
-0.114459
-0.0888591
-0.0689059
-0.0529896
-0.0392658
-0.0275213
-0.0130986
-0.00123998
0.0115087
0.0144099
0.00218665
-0.776352
-0.699562
-0.601158
-0.498507
-0.404949
-0.325501
-0.259247
-0.20436
-0.15987
-0.12466
-0.0970241
-0.0751464
-0.0575639
-0.0424953
-0.0295135
-0.0149303
-0.00304063
0.00857913
0.0113912
0.00227591
-0.703307
-0.642762
-0.567563
-0.48538
-0.404617
-0.331248
-0.267592
-0.21366
-0.168881
-0.132495
-0.103371
-0.0800272
-0.0611365
-0.044994
-0.0310465
-0.0163817
-0.00455307
0.0061633
0.00895683
0.00228271
-0.664782
-0.611832
-0.548103
-0.476773
-0.403508
-0.334079
-0.272137
-0.218857
-0.174048
-0.137089
-0.10713
-0.0829291
-0.0632536
-0.0464706
-0.0319421
-0.0172763
-0.00548698
0.00463779
0.00750131
0.00224248
-3.24332
-3.21623
-3.17279
-3.11338
-3.03795
-2.94686
-2.83903
-2.71656
-2.57752
-2.46937
-2.60002
-2.57064
-2.53128
-2.48309
-2.42693
-2.36452
-2.29715
-2.23097
-2.16609
-2.13
-2.09815
-2.07587
-2.04925
-2.0196
-1.98785
-1.955
-1.92083
-1.88619
-1.84677
-1.8169
-1.70196
-1.687
-1.66959
-1.65016
-1.62882
-1.60555
-1.58
-1.55303
-1.52479
-1.50519
-1.39397
-1.38336
-1.3708
-1.35657
-1.34092
-1.32421
-1.30681
-1.28935
-1.27194
-1.25799
-1.16204
-1.15467
-1.14584
-1.13574
-1.12459
-1.11257
-1.09981
-1.08644
-1.07259
-1.05971
-0.992407
-0.987027
-0.980355
-0.9725
-0.963587
-0.95374
-0.943093
-0.931793
-0.919996
-0.908292
-0.872946
-0.868727
-0.863328
-0.856827
-0.849314
-0.840884
-0.831639
-0.821681
-0.811102
-0.800175
-0.794844
-0.791254
-0.786567
-0.780835
-0.774124
-0.766505
-0.758059
-0.748865
-0.739004
-0.72862
-0.754304
-0.751037
-0.746728
-0.741412
-0.735133
-0.72794
-0.719885
-0.711029
-0.701432
-0.691159
-2.63132
-2.80163
-2.8571
-2.95847
-3.05734
-3.1291
-3.18211
-3.22139
-3.24569
-3.25327
-2.33627
-2.46498
-2.43755
-2.46678
-2.53033
-2.57708
-2.60334
-2.61825
-2.62373
-2.61799
-1.9904
-2.0883
-2.04029
-2.03543
-2.07555
-2.11038
-2.12528
-2.12807
-2.12441
-2.11461
-1.65765
-1.73428
-1.69365
-1.6765
-1.69722
-1.72056
-1.72982
-1.72858
-1.72269
-1.7139
-1.37312
-1.42851
-1.40355
-1.38745
-1.39583
-1.40926
-1.41519
-1.41393
-1.40915
-1.40251
-1.14319
-1.17873
-1.16779
-1.15921
-1.16329
-1.17093
-1.17505
-1.17492
-1.1722
-1.16787
-0.968087
-0.989962
-0.98857
-0.987334
-0.991226
-0.996371
-0.999566
-1.00028
-0.999091
-0.996434
-0.845113
-0.859421
-0.863071
-0.865976
-0.870215
-0.874302
-0.876999
-0.878059
-0.877654
-0.875932
-0.767209
-0.777616
-0.783137
-0.787527
-0.791713
-0.795216
-0.797584
-0.798697
-0.798589
-0.797297
-0.727735
-0.736512
-0.742515
-0.747226
-0.751226
-0.754408
-0.756576
-0.757651
-0.757624
-0.756505
-0.0287185
-0.0355773
-0.0510873
-0.0807373
-0.127367
-0.209425
-0.333918
-0.572443
-0.9389
-1.81857
-0.0718166
-0.0799775
-0.097687
-0.130853
-0.182349
-0.271131
-0.402298
-0.647964
-1.00695
-1.74421
-0.119236
-0.128187
-0.147317
-0.182518
-0.236074
-0.325958
-0.453759
-0.678991
-0.990749
-1.51983
-0.170462
-0.179948
-0.200163
-0.236289
-0.290461
-0.376475
-0.496469
-0.68253
-0.940812
-1.3011
-0.224299
-0.233913
-0.254663
-0.290238
-0.343437
-0.421143
-0.530087
-0.674334
-0.881118
-1.12782
-0.27876
-0.287997
-0.308413
-0.34185
-0.391781
-0.458774
-0.552663
-0.662898
-0.819431
-0.989995
-0.330991
-0.339467
-0.358512
-0.388637
-0.432933
-0.489118
-0.565346
-0.650162
-0.761948
-0.877902
-0.377428
-0.384974
-0.401825
-0.428052
-0.46548
-0.511867
-0.571222
-0.636361
-0.713876
-0.791607
-0.413999
-0.420623
-0.435081
-0.457517
-0.488584
-0.526823
-0.573039
-0.623472
-0.678722
-0.732853
-0.435826
-0.441787
-0.454525
-0.47432
-0.501248
-0.534301
-0.572923
-0.61485
-0.658842
-0.701563
0.225696
0.225763
0.226402
0.225535
0.222316
0.211757
0.187746
0.138677
0.0277497
-0.175746
0.200239
0.199633
0.198604
0.194936
0.187538
0.170584
0.136698
0.0725811
-0.0663275
-0.314088
0.174829
0.17356
0.17089
0.164414
0.15285
0.129356
0.0855884
0.0057874
-0.161598
-0.455543
0.149542
0.147629
0.143359
0.134085
0.11839
0.0882131
0.0346396
-0.0615886
-0.257541
-0.599949
0.124446
0.121918
0.116105
0.10406
0.0842825
0.0472852
-0.0159489
-0.129493
-0.353562
-0.747611
0.0996076
0.0965032
0.0892167
0.0744399
0.0506372
0.00669654
-0.0660145
-0.197918
-0.448992
-0.899541
0.0750879
0.0714648
0.0627875
0.0453395
0.0175637
-0.033417
-0.115437
-0.266853
-0.543142
-1.05759
0.0509475
0.0468988
0.0369449
0.0169134
-0.0147888
-0.0728816
-0.164151
-0.336247
-0.635408
-1.22511
0.0272133
0.0228237
0.0117047
-0.0108185
-0.0464328
-0.111688
-0.21237
-0.406304
-0.725877
-1.40398
0.00380476
-0.00111868
-0.0135548
-0.038637
-0.0783164
-0.150578
-0.260913
-0.476931
-0.818888
-1.61185
0.466926
0.472529
0.487595
0.511867
0.546649
0.592525
0.653515
0.727865
0.829785
0.914892
0.44475
0.44978
0.463572
0.485436
0.516594
0.557058
0.610645
0.673765
0.760993
0.832695
0.422091
0.426774
0.439423
0.459012
0.486614
0.521628
0.567326
0.618529
0.688619
0.746207
0.398897
0.403187
0.414639
0.431992
0.456173
0.486049
0.524294
0.564712
0.617747
0.655572
0.37519
0.378997
0.389126
0.404136
0.424787
0.449452
0.480058
0.509613
0.543953
0.556562
0.351027
0.354289
0.362987
0.375534
0.392481
0.411706
0.434141
0.45207
0.465657
0.449417
0.326471
0.329145
0.336329
0.346318
0.359415
0.372993
0.386763
0.392368
0.383577
0.335424
0.301588
0.30364
0.309243
0.316599
0.32573
0.333496
0.338219
0.33095
0.298421
0.215325
0.276448
0.277852
0.281826
0.286485
0.291558
0.293361
0.28873
0.268067
0.210524
0.0896533
0.251125
0.251865
0.254177
0.25609
0.257037
0.252731
0.238499
0.203905
0.120172
-0.040955
0.850505
0.85522
0.864901
0.879438
0.897947
0.91901
0.941043
0.962345
0.981416
0.996562
0.832852
0.83832
0.849603
0.866586
0.888361
0.913456
0.940198
0.966606
0.990986
1.01093
0.802914
0.809469
0.823071
0.843685
0.870463
0.901936
0.936374
0.97139
1.00498
1.03336
0.764329
0.771961
0.787924
0.812374
0.844656
0.883471
0.927201
0.973137
1.01892
1.05867
0.720208
0.728677
0.746568
0.774308
0.811562
0.857409
0.910647
0.968544
1.02859
1.0821
0.673342
0.682278
0.701392
0.731384
0.772311
0.823802
0.885409
0.954824
1.02999
1.09887
0.626097
0.635101
0.65465
0.68564
0.728519
0.783519
0.851197
0.930073
1.01951
1.10385
0.5803
0.589043
0.60834
0.63912
0.682156
0.738184
0.808848
0.893592
0.994397
1.09152
0.537196
0.54545
0.564039
0.593674
0.635354
0.690059
0.760383
0.846244
0.953312
1.05671
0.497412
0.50472
0.522035
0.549604
0.588606
0.639953
0.706987
0.789048
0.895623
0.995577
1.00334
1.00535
1.0066
1.00743
1.0079
1.00795
1.00757
1.00673
1.00544
1.00371
1.02099
1.02346
1.02438
1.02494
1.02527
1.02522
1.02469
1.02367
1.02218
1.02022
1.04954
1.05293
1.05333
1.05343
1.05356
1.05331
1.05251
1.05117
1.04932
1.04697
1.0837
1.08853
1.08839
1.08801
1.0879
1.08738
1.08619
1.08436
1.08196
1.07901
1.11905
1.12606
1.12569
1.12499
1.1247
1.12386
1.12213
1.11963
1.11644
1.11262
1.15163
1.16196
1.16211
1.16154
1.16125
1.16004
1.15761
1.15414
1.14982
1.14475
1.17744
1.19285
1.19495
1.19541
1.19551
1.19398
1.19064
1.18584
1.17985
1.17286
1.19178
1.21487
1.22143
1.22455
1.22581
1.22416
1.21976
1.21317
1.20487
1.19517
1.18881
1.22155
1.23585
1.24432
1.24851
1.24782
1.24281
1.23431
1.22303
1.20954
1.17203
1.22259
1.24925
1.26399
1.27028
1.26892
1.26131
1.24876
1.23232
1.21275
1.00152
0.998881
0.995799
0.992276
0.988318
0.98393
0.979122
0.973901
0.968282
0.962294
1.01779
1.01489
1.01154
1.00774
1.0035
0.998848
0.99379
0.988343
0.982524
0.976483
1.04412
1.04078
1.03697
1.03268
1.02795
1.02279
1.01722
1.01125
1.00486
0.998477
1.07552
1.07149
1.06695
1.06192
1.05642
1.05047
1.0441
1.03727
1.02987
1.02277
1.10819
1.10319
1.09765
1.09161
1.08507
1.07808
1.07062
1.06252
1.05346
1.04506
1.13898
1.1326
1.12566
1.11819
1.11019
1.10166
1.0925
1.08221
1.07012
1.05951
1.16502
1.15646
1.14723
1.13735
1.12674
1.11535
1.10294
1.0883
1.07032
1.05614
1.18435
1.1726
1.15996
1.14634
1.13154
1.11536
1.09723
1.07461
1.04536
1.02411
1.19425
1.17744
1.15911
1.13898
1.11659
1.09147
1.06281
1.02674
0.97981
0.947602
1.1905
1.1657
1.13809
1.10709
1.07188
1.03174
0.986097
0.932661
0.869702
0.828985
0.946842
0.913111
0.86905
0.81461
0.75051
0.677686
0.598514
0.51551
0.433278
0.354352
0.283133
0.220671
0.168952
0.128178
0.0966526
0.0774282
0.0609296
0.0531172
0.0550186
0.0310392
0.961864
0.924124
0.874286
0.814347
0.745403
0.668383
0.586062
0.501347
0.418882
0.34074
0.271122
0.210509
0.160666
0.12178
0.0916651
0.074255
0.0573107
0.0521989
0.0572051
0.0296583
0.985632
0.940559
0.881075
0.812428
0.735661
0.651936
0.564918
0.477982
0.39554
0.318974
0.25206
0.194471
0.147627
0.111701
0.0838688
0.0691696
0.0522356
0.0511564
0.0595438
0.0273718
1.01312
0.957362
0.885822
0.806638
0.720148
0.628588
0.536773
0.448161
0.366556
0.292503
0.229231
0.175442
0.13231
0.0999153
0.0748797
0.0630791
0.0470966
0.0504507
0.0609973
0.0245715
1.03934
0.969032
0.884319
0.793496
0.696458
0.597493
0.502155
0.413352
0.333969
0.263604
0.204852
0.155434
0.116455
0.0878362
0.0657146
0.0566794
0.0424161
0.0500849
0.0613481
0.0215798
1.05727
0.968805
0.871386
0.768875
0.662349
0.558339
0.462107
0.375398
0.299971
0.234458
0.180855
0.136082
0.101353
0.0764181
0.0570142
0.0505058
0.0382957
0.0498531
0.0607998
0.0186773
1.05747
0.949505
0.841813
0.7299
0.617752
0.512896
0.419196
0.336977
0.26696
0.207002
0.158706
0.118471
0.0877597
0.0661649
0.0491328
0.0448804
0.0347411
0.0495628
0.0596903
0.0160616
1.02851
0.904303
0.7918
0.67626
0.564675
0.463854
0.375924
0.300074
0.236342
0.182153
0.13898
0.102959
0.0758769
0.0572025
0.0421897
0.0399187
0.0317202
0.0491307
0.05833
0.0138287
0.960008
0.829033
0.721683
0.610787
0.506291
0.413685
0.3339
0.265559
0.208479
0.159967
0.121605
0.0894257
0.0655791
0.0494434
0.0361588
0.0356153
0.0291653
0.0485599
0.056925
0.0119859
0.855696
0.728254
0.64182
0.542814
0.449696
0.367293
0.296273
0.235329
0.184448
0.141024
0.106866
0.0780155
0.0569346
0.0429207
0.0310953
0.0320458
0.0271025
0.047865
0.0554408
0.0104414
0.762756
0.646267
0.588779
0.501363
0.417046
0.341381
0.275545
0.218726
0.171185
0.130495
0.0985185
0.0715177
0.0519333
0.0390338
0.0280594
0.029948
0.0260167
0.0471068
0.0538381
0.00930381
0.697309
0.581185
0.53733
0.457233
0.380441
0.312081
0.252401
0.200633
0.157146
0.119711
0.0903005
0.0653437
0.0473612
0.0356672
0.0255739
0.0282416
0.0251543
0.0467715
0.0528284
0.00851453
0.609719
0.507143
0.477684
0.409192
0.341572
0.281345
0.22819
0.181665
0.142372
0.108326
0.0816079
0.0588107
0.0425355
0.0321321
0.0230048
0.0264821
0.0242895
0.0464906
0.0518738
0.00775883
0.505572
0.431044
0.415092
0.361217
0.303794
0.251971
0.2053
0.163824
0.128503
0.0976311
0.073421
0.0526351
0.0379465
0.0287387
0.0205148
0.0247685
0.023438
0.0461196
0.0509092
0.00704726
0.384603
0.352655
0.349947
0.312881
0.266549
0.223301
0.183132
0.146628
0.115178
0.0873776
0.0655752
0.0467146
0.0335337
0.0254556
0.0180882
0.0230915
0.022591
0.0456519
0.049928
0.00637868
0.247017
0.271348
0.282959
0.264155
0.229743
0.195153
0.161468
0.129866
0.102213
0.0774114
0.0579514
0.0409622
0.0292373
0.0222469
0.0157078
0.0214389
0.0217428
0.0451016
0.0489363
0.00575279
0.0939653
0.186471
0.21493
0.215204
0.193459
0.16758
0.140339
0.113559
0.0896175
0.0677373
0.0505507
0.0353774
0.0250561
0.0191129
0.0133757
0.0198095
0.0208916
0.0444719
0.0479353
0.00517036
-0.0728063
0.0973689
0.146446
0.166163
0.157708
0.140598
0.119751
0.0977178
0.0774053
0.0583681
0.043384
0.0299691
0.0209972
0.0160594
0.0110971
0.0182048
0.0200361
0.0437608
0.046922
0.0046322
-0.251214
0.00348313
0.0778237
0.117121
0.122434
0.114174
0.099682
0.0823277
0.0655686
0.0493003
0.0364504
0.0247375
0.0170615
0.0130889
0.00887411
0.0166241
0.0191746
0.0429731
0.0459006
0.00413852
-0.438972
-0.0955702
0.00911899
0.0681184
0.0875471
0.0882568
0.0800944
0.0673659
0.0540929
0.0405248
0.0297448
0.0196799
0.0132482
0.0102028
0.00670956
0.0150677
0.0183058
0.0421073
0.0448661
0.00369008
)
;

boundaryField
{
    inlet
    {
        type            freestreamPressure;
        freestreamValue uniform 0;
        supersonic      false;
        value           nonuniform List<scalar> 
40
(
-0.0287185
-0.0718166
-0.119236
-0.170462
-0.224299
-0.27876
-0.330991
-0.377428
-0.413999
-0.435826
0.225696
0.200239
0.174829
0.149542
0.124446
0.0996076
0.0750879
0.0509475
0.0272133
0.00380476
0.466926
0.44475
0.422091
0.398897
0.37519
0.351027
0.326471
0.301588
0.276448
0.251125
0.850505
0.832852
0.802914
0.764329
0.720208
0.673342
0.626097
0.5803
0.537196
0.497412
)
;
    }
    outlet
    {
        type            freestreamPressure;
        freestreamValue uniform 0;
        supersonic      false;
        value           nonuniform List<scalar> 
40
(
3.77234e-07
2.43714e-07
1.29697e-07
4.81521e-08
5.02391e-09
5.85192e-09
3.88518e-08
6.48773e-08
4.8141e-08
7.81574e-09
3.15191e-06
2.56042e-06
2.06682e-06
1.6609e-06
1.33223e-06
1.06977e-06
8.62577e-07
7.00782e-07
5.76299e-07
4.81013e-07
1.48831e-05
1.3329e-05
1.18169e-05
1.03792e-05
9.02662e-06
7.77004e-06
6.61919e-06
5.58069e-06
4.65728e-06
3.84895e-06
1.22006e-06
8.9075e-06
1.82755e-05
2.5297e-05
2.84715e-05
2.8317e-05
2.61442e-05
2.31221e-05
1.99915e-05
1.7072e-05
)
;
    }
    top
    {
        type            symmetryPlane;
    }
    bottom
    {
        type            symmetryPlane;
    }
    cylinder
    {
        type            zeroGradient;
    }
    frontandback
    {
        type            empty;
    }
}


// ************************************************************************* //
