/*--------------------------------*- C++ -*----------------------------------*\
| =========                 |                                                 |
| \\      /  F ield         | OpenFOAM: The Open Source CFD Toolbox           |
|  \\    /   O peration     | Version:  v1912                                 |
|   \\  /    A nd           | Website:  www.openfoam.com                      |
|    \\/     M anipulation  |                                                 |
\*---------------------------------------------------------------------------*/
FoamFile
{
    version     2.0;
    format      ascii;
    class       volVectorField;
    location    "20";
    object      U;
}
// * * * * * * * * * * * * * * * * * * * * * * * * * * * * * * * * * * * * * //

dimensions      [0 1 -1 0 0 0 0];


internalField   nonuniform List<vector> 
19200
(
(0.00654086 -0.478806 -2.66961e-22)
(0.00478544 -0.440099 0)
(0.00270782 -0.404583 0)
(0.000297311 -0.372075 0)
(-0.00230741 -0.342366 0)
(-0.00496945 -0.315245 0)
(-0.00759581 -0.290508 -8.39271e-23)
(-0.0101198 -0.267956 8.26669e-23)
(-0.0124937 -0.247401 0)
(-0.0146849 -0.228667 0)
(-0.0166736 -0.211588 -1.54264e-22)
(-0.0184494 -0.196013 8.54985e-25)
(-0.0200094 -0.1818 1.48784e-22)
(-0.0213565 -0.16882 0)
(-0.0224984 -0.156956 1.41935e-22)
(-0.0234459 -0.1461 -7.72644e-25)
(-0.0242124 -0.136154 -1.36961e-22)
(-0.0248131 -0.127029 0)
(-0.0252648 -0.118646 0)
(-0.0255846 -0.110932 0)
(-0.0257903 -0.103821 0)
(-0.0258998 -0.0972575 0)
(-0.0259304 -0.0911877 1.2072e-22)
(-0.0258993 -0.0855658 -1.19006e-22)
(-0.0258226 -0.0803509 0)
(-0.0257168 -0.0755065 0)
(-0.0255974 -0.0710007 -2.23482e-22)
(-0.0254692 -0.0668057 2.20415e-22)
(-0.0253214 -0.0628949 0)
(-0.0252389 -0.0592432 0)
(0.0191059 -0.477987 -3.5978e-22)
(0.0163291 -0.438709 1.91435e-22)
(0.0133244 -0.402784 0)
(0.0100915 -0.369999 0)
(0.00676617 -0.340125 0)
(0.00347855 -0.312931 0)
(0.000314363 -0.288195 -6.80162e-22)
(-0.00266692 -0.265703 3.33624e-22)
(-0.00542431 -0.245254 -2.50258e-24)
(-0.00793193 -0.22666 -1.91862e-24)
(-0.0101759 -0.209748 -6.23899e-22)
(-0.0121515 -0.194356 6.10814e-22)
(-0.0138611 -0.180337 -2.99897e-22)
(-0.0153126 -0.167556 0)
(-0.0165181 -0.15589 0)
(-0.0174925 -0.145228 0)
(-0.0182532 -0.135468 0)
(-0.018819 -0.126517 0)
(-0.0192097 -0.118295 0)
(-0.0194458 -0.110725 0)
(-0.0195479 -0.103743 -2.54025e-22)
(-0.0195363 -0.0972879 0)
(-0.0194312 -0.0913073 -4.85262e-22)
(-0.0192517 -0.0857545 4.78369e-22)
(-0.0190164 -0.0805883 -4.66508e-22)
(-0.0187436 -0.0757724 4.59993e-22)
(-0.0184511 -0.0712755 0)
(-0.0181438 -0.0670702 4.40202e-22)
(-0.0178076 -0.0631297 -4.34217e-22)
(-0.0175389 -0.0594301 4.67972e-22)
(0.0315835 -0.476882 -7.30319e-22)
(0.0277665 -0.437052 -3.82365e-22)
(0.0238433 -0.400749 3.40408e-24)
(0.0198014 -0.367726 3.68243e-22)
(0.015773 -0.337728 0)
(0.0118828 -0.310501 -6.99027e-22)
(0.0082091 -0.285803 3.46081e-22)
(0.00480366 -0.263406 6.73706e-22)
(0.00170003 -0.243095 -3.33378e-22)
(-0.001083 -0.224672 -6.41086e-22)
(-0.00353816 -0.207953 6.31367e-22)
(-0.00566692 -0.19277 0)
(-0.00747736 -0.178968 -6.01126e-22)
(-0.00898259 -0.166407 5.92047e-22)
(-0.0101994 -0.154959 -5.80148e-22)
(-0.0111472 -0.144508 0)
(-0.0118475 -0.134949 0)
(-0.0123228 -0.126187 0)
(-0.0125964 -0.118138 0)
(-0.0126921 -0.110724 1.03723e-21)
(-0.0126334 -0.103878 -7.68123e-22)
(-0.0124437 -0.097539 9.9556e-22)
(-0.0121456 -0.0916529 -9.81304e-22)
(-0.0117611 -0.0861726 -9.56257e-22)
(-0.0113108 -0.0810566 1.88026e-21)
(-0.0108156 -0.0762691 -1.84366e-21)
(-0.0102957 -0.0717793 9.06548e-22)
(-0.0097563 -0.0675606 0)
(-0.0091787 -0.0635863 4.35619e-22)
(-0.00867068 -0.0598347 0)
(0.0440052 -0.475479 -1.46884e-21)
(0.0391213 -0.43514 7.82792e-22)
(0.0342731 -0.398499 -7.55545e-22)
(0.0294296 -0.365281 6.07312e-24)
(0.0247152 -0.335201 7.27884e-22)
(0.0202465 -0.307981 0)
(0.0160932 -0.283359 0)
(0.0122986 -0.261092 0)
(0.00888782 -0.240952 1.98922e-21)
(0.00587194 -0.22273 -4.26174e-24)
(0.00325103 -0.206232 -6.3745e-22)
(0.00101698 -0.191283 -1.23935e-21)
(-0.000844392 -0.177722 1.22058e-21)
(-0.00235173 -0.165402 1.18669e-21)
(-0.0035269 -0.154191 -5.88678e-22)
(-0.00439404 -0.143969 0)
(-0.00497878 -0.134628 0)
(-0.00530768 -0.126069 0)
(-0.00540774 -0.118205 0)
(-0.00530605 -0.110958 0)
(-0.00502946 -0.104257 1.02233e-21)
(-0.00460433 -0.0980406 -1.00757e-21)
(-0.00405625 -0.0922539 0)
(-0.00340978 -0.0868489 -9.6134e-22)
(-0.00268833 -0.081784 1.89003e-21)
(-0.0019154 -0.0770233 -1.85281e-21)
(-0.00111413 -0.072537 9.10945e-22)
(-0.000290679 -0.068299 8.87877e-22)
(0.00057913 -0.0642826 -2.18282e-21)
(0.00137777 -0.0604715 -9.44152e-22)
(0.0563739 -0.473768 7.37173e-22)
(0.0504001 -0.432978 1.58396e-21)
(0.0446196 -0.396051 1.54594e-21)
(0.0389814 -0.362685 7.47441e-22)
(0.0335982 -0.332567 1.47057e-21)
(0.0285765 -0.305394 8.72391e-24)
(0.0239754 -0.280888 1.41625e-21)
(0.0198283 -0.258787 2.06829e-21)
(0.0161512 -0.238852 6.8214e-22)
(0.0129467 -0.220861 1.31963e-21)
(0.0102069 -0.204613 1.12761e-23)
(0.00791666 -0.189923 1.25985e-21)
(0.00605532 -0.176626 1.03252e-23)
(0.00459833 -0.164569 3.60986e-21)
(0.00351846 -0.153615 -3.53114e-21)
(0.00278671 -0.143639 2.30854e-21)
(0.00237299 -0.134531 0)
(0.00224663 -0.126189 0)
(0.00237681 -0.118524 1.08149e-21)
(0.00273288 -0.111453 0)
(0.00328463 -0.104907 1.03596e-21)
(0.00400251 -0.0988201 1.00759e-21)
(0.00485786 -0.0931377 -9.93161e-22)
(0.00582322 -0.0878106 9.72698e-22)
(0.00687238 -0.0827969 0)
(0.00797894 -0.0780607 0)
(0.00911673 -0.0735728 9.15339e-22)
(0.0102792 -0.0693075 8.97193e-22)
(0.0114946 -0.0652368 8.71667e-22)
(0.0126252 -0.0613528 -1.89755e-21)
(0.0686852 -0.47175 -7.51737e-22)
(0.0616032 -0.430572 -1.58395e-21)
(0.0548867 -0.393416 -2.32053e-21)
(0.0484626 -0.359953 -7.50464e-22)
(0.0424301 -0.329845 -1.46427e-21)
(0.0368826 -0.302765 1.46946e-23)
(0.0318673 -0.278414 -1.41118e-21)
(0.0274064 -0.256516 -1.37992e-21)
(0.0235057 -0.236818 -1.34942e-21)
(0.0201584 -0.219089 -2.64182e-21)
(0.0173481 -0.203119 2.36879e-23)
(0.0150522 -0.188715 2.5488e-21)
(0.0132429 -0.175705 -1.22324e-21)
(0.0118896 -0.163931 1.22934e-21)
(0.0109594 -0.153253 3.55447e-21)
(0.0104183 -0.143542 -1.15359e-21)
(0.0102315 -0.134683 0)
(0.0103641 -0.126572 1.11451e-21)
(0.0107813 -0.119117 2.1724e-21)
(0.0114488 -0.112235 -3.18289e-21)
(0.012333 -0.105851 1.0505e-21)
(0.0134009 -0.0999015 3.04958e-21)
(0.0146206 -0.0943284 9.86316e-22)
(0.0159616 -0.089082 -3.89672e-21)
(0.0173947 -0.0841197 2.87619e-21)
(0.0188904 -0.0794057 0)
(0.0204193 -0.074911 4.98807e-24)
(0.021975 -0.07061 1.79747e-21)
(0.02359 -0.0664732 -5.96146e-24)
(0.025098 -0.0625006 1.90896e-21)
(0.080933 -0.469429 1.51393e-21)
(0.0727294 -0.427931 -1.6291e-21)
(0.0650776 -0.390606 0)
(0.05788 -0.357103 -1.55239e-21)
(0.05122 -0.327054 -1.49955e-21)
(0.0451767 -0.300112 -1.46975e-21)
(0.0397834 -0.275958 1.4437e-21)
(0.0350497 -0.2543 0)
(0.0309702 -0.234874 -1.38252e-21)
(0.0275277 -0.217438 0)
(0.0246971 -0.201772 -2.62504e-21)
(0.0224472 -0.187679 -2.56568e-21)
(0.0207432 -0.174978 -1.24703e-21)
(0.0195478 -0.16351 -1.21914e-21)
(0.0188224 -0.153126 1.19456e-21)
(0.0185276 -0.143696 -3.51614e-21)
(0.018624 -0.135102 0)
(0.0190721 -0.127237 -1.11451e-21)
(0.0198333 -0.120005 9.18605e-24)
(0.0208694 -0.113322 -1.06644e-21)
(0.0221431 -0.107111 0)
(0.0236179 -0.101305 1.02119e-21)
(0.0252587 -0.0958466 -3.01278e-21)
(0.0270317 -0.0906838 6.4235e-24)
(0.0289044 -0.0857733 9.58113e-22)
(0.0308438 -0.0810787 -1.22363e-23)
(0.0328168 -0.0765716 -9.3231e-22)
(0.0348168 -0.0722256 -4.51836e-21)
(0.036881 -0.0680093 8.94154e-22)
(0.0388146 -0.0639302 0)
(0.0931109 -0.46681 -1.25779e-23)
(0.0837772 -0.425063 0)
(0.0751956 -0.387634 -1.59379e-21)
(0.0672408 -0.354148 4.69904e-21)
(0.0599792 -0.324212 -1.79869e-23)
(0.0534733 -0.297454 1.48622e-21)
(0.0477409 -0.273539 2.91979e-21)
(0.042778 -0.25216 -1.14981e-23)
(0.0385666 -0.233039 -1.44924e-23)
(0.0350789 -0.215926 1.354e-21)
(0.0322796 -0.200592 -2.65897e-21)
(0.0301291 -0.186833 3.89566e-21)
(0.0285847 -0.174465 -2.52531e-21)
(0.0276025 -0.163321 2.48717e-21)
(0.0271377 -0.15325 -2.41071e-21)
(0.0271455 -0.144119 1.89442e-23)
(0.0275815 -0.135805 2.3205e-21)
(0.0284021 -0.128199 0)
(0.0295641 -0.121203 1.1002e-21)
(0.0310257 -0.114729 -2.1673e-21)
(0.0327457 -0.1087 2.1031e-21)
(0.0346843 -0.103047 -1.55419e-23)
(0.0368026 -0.0977082 -2.02775e-21)
(0.0390634 -0.0926321 -9.85192e-22)
(0.0414307 -0.0877736 0)
(0.0438675 -0.0830958 9.50587e-22)
(0.0463368 -0.0785697 0)
(0.0488315 -0.0741681 0)
(0.0513942 -0.069856 0)
(0.0538002 -0.06565 0)
(0.105213 -0.463897 -3.18684e-21)
(0.0947456 -0.421976 3.36293e-21)
(0.0852446 -0.38451 -3.2795e-21)
(0.0765538 -0.351103 -1.5757e-21)
(0.0687204 -0.321333 -4.73242e-24)
(0.0617886 -0.294809 1.77838e-23)
(0.0557595 -0.271176 -1.46807e-21)
(0.0506138 -0.250112 0)
(0.0463204 -0.231331 0)
(0.0428393 -0.214569 -3.05486e-23)
(0.0401251 -0.199594 -2.70147e-21)
(0.0381288 -0.186193 5.25984e-21)
(0.0367998 -0.174178 -2.17422e-23)
(0.0360869 -0.163377 -2.51602e-21)
(0.0359392 -0.153638 2.46076e-21)
(0.0363064 -0.14482 -2.37971e-21)
(0.0371389 -0.136801 4.66876e-21)
(0.0383887 -0.129468 -2.29007e-21)
(0.0400084 -0.12272 0)
(0.0419522 -0.116467 1.86719e-23)
(0.0441752 -0.11063 1.7186e-23)
(0.0466339 -0.105136 -1.10254e-25)
(0.0492857 -0.0999239 0)
(0.0520897 -0.0949381 0)
(0.0550062 -0.0901323 0)
(0.057994 -0.0854686 -9.50586e-22)
(0.0610115 -0.0809171 0)
(0.0640509 -0.0764489 3.64352e-21)
(0.0671613 -0.0720241 -1.89956e-23)
(0.0700851 -0.0676704 -7.76006e-21)
(0.117232 -0.460694 4.77488e-21)
(0.105634 -0.418679 -1.67677e-21)
(0.0952298 -0.381247 -1.71816e-21)
(0.085829 -0.34798 0)
(0.0774581 -0.318434 0)
(0.0701414 -0.292192 0)
(0.0638616 -0.268883 0)
(0.0585829 -0.248173 -5.87076e-21)
(0.0542598 -0.229763 2.87362e-21)
(0.0508399 -0.213382 2.7736e-21)
(0.0482664 -0.19879 0)
(0.0464809 -0.18577 -2.6439e-21)
(0.0454243 -0.174127 -2.5857e-21)
(0.045038 -0.163688 2.27151e-23)
(0.0452647 -0.154294 2.51948e-23)
(0.0460484 -0.145806 -2.40525e-21)
(0.0473345 -0.138095 2.36937e-21)
(0.0490703 -0.131048 -2.29317e-21)
(0.0512045 -0.12456 2.25937e-21)
(0.053687 -0.11854 -2.18734e-21)
(0.0564693 -0.112904 -2.15642e-21)
(0.059504 -0.107578 6.26818e-21)
(0.0627449 -0.102499 -6.17805e-21)
(0.0661471 -0.0976072 3.99532e-21)
(0.069667 -0.0928557 -3.93904e-21)
(0.0732588 -0.0882041 0)
(0.0768761 -0.0836214 0)
(0.0805103 -0.0790759 -1.84551e-21)
(0.084217 -0.0745216 0)
(0.087703 -0.0699991 -5.86443e-21)
(0.129164 -0.457206 -1.67326e-21)
(0.116443 -0.41518 -2.38154e-23)
(0.105157 -0.377854 1.64354e-21)
(0.0950777 -0.344794 -1.63301e-21)
(0.0862087 -0.315527 -1.62109e-21)
(0.0785527 -0.289616 3.15147e-21)
(0.072072 -0.266674 -3.93594e-23)
(0.0667136 -0.246355 -2.99854e-21)
(0.0624164 -0.228347 2.91723e-21)
(0.0591147 -0.212375 2.8199e-21)
(0.0567399 -0.198189 -5.56145e-21)
(0.0552236 -0.18557 2.71576e-21)
(0.0544978 -0.174318 -2.64887e-21)
(0.0544965 -0.164255 0)
(0.0551556 -0.155223 0)
(0.0564134 -0.147076 -4.89068e-21)
(0.0582103 -0.139687 2.4208e-21)
(0.060489 -0.132937 -2.31841e-21)
(0.0631939 -0.12672 2.10194e-23)
(0.0662712 -0.120943 -7.19695e-25)
(0.0696685 -0.115518 4.3327e-21)
(0.0733347 -0.11037 2.08813e-21)
(0.0772196 -0.10543 -2.09393e-21)
(0.0812746 -0.100639 0)
(0.0854516 -0.0959442 3.93635e-21)
(0.0897003 -0.091304 -1.94153e-21)
(0.0939686 -0.0866854 0)
(0.0982469 -0.0820529 1.84551e-21)
(0.102598 -0.0773527 5.43159e-21)
(0.106689 -0.0726403 -1.96501e-21)
(0.141002 -0.453437 1.58316e-21)
(0.127173 -0.411487 -2.48774e-23)
(0.115034 -0.374343 -1.90111e-23)
(0.104313 -0.341555 -1.6792e-21)
(0.0949908 -0.312625 3.23031e-21)
(0.0870455 -0.287095 -6.31397e-21)
(0.0804183 -0.264562 6.19e-21)
(0.0750371 -0.244668 3.00886e-21)
(0.0708248 -0.227093 -2.89259e-23)
(0.067701 -0.211554 -2.82911e-23)
(0.0655854 -0.197796 -3.41334e-23)
(0.0643984 -0.185595 5.54633e-24)
(0.0640635 -0.174749 -2.68481e-21)
(0.0645064 -0.165077 2.59259e-23)
(0.0656567 -0.156418 2.52938e-23)
(0.0674466 -0.148625 4.94391e-21)
(0.0698115 -0.141567 -2.39838e-21)
(0.0726896 -0.135125 2.34015e-21)
(0.0760212 -0.129191 4.56903e-21)
(0.0797488 -0.123666 -2.27304e-21)
(0.0838162 -0.118463 -2.17628e-21)
(0.0881685 -0.113501 2.12531e-21)
(0.0927518 -0.10871 0)
(0.0975132 -0.104025 -4.05619e-21)
(0.102401 -0.0993915 3.39279e-23)
(0.107358 -0.0947639 1.96991e-21)
(0.112328 -0.0901065 3.79347e-21)
(0.1173 -0.0853787 -3.74142e-21)
(0.122343 -0.0805172 1.82282e-21)
(0.127082 -0.0755945 3.36299e-23)
(0.152741 -0.449393 8.46743e-21)
(0.137827 -0.407608 1.83749e-21)
(0.12487 -0.370723 -1.71565e-21)
(0.11355 -0.338275 3.42146e-21)
(0.103825 -0.309739 6.64876e-21)
(0.0956456 -0.284638 1.26035e-23)
(0.0889305 -0.262555 0)
(0.0835876 -0.24312 0)
(0.0795223 -0.226006 0)
(0.0766394 -0.210923 2.94499e-21)
(0.0748455 -0.197612 0)
(0.0740504 -0.185844 0)
(0.0741677 -0.175417 2.72443e-21)
(0.0751155 -0.166146 -2.62214e-21)
(0.0768162 -0.15787 5.13835e-21)
(0.0791964 -0.150439 -5.03783e-21)
(0.0821865 -0.143722 7.31308e-21)
(0.0857202 -0.137597 -2.39069e-21)
(0.0897339 -0.131953 2.3338e-21)
(0.0941663 -0.126691 -4.5039e-21)
(0.0989577 -0.121719 1.10518e-20)
(0.10405 -0.116954 -4.33073e-21)
(0.109385 -0.11232 6.29934e-21)
(0.114905 -0.107749 -2.10089e-21)
(0.120555 -0.103183 -2.01677e-21)
(0.126273 -0.0985718 1.96848e-21)
(0.131995 -0.0938752 5.74377e-21)
(0.137708 -0.0890464 -3.76665e-21)
(0.143489 -0.0840103 1.83702e-21)
(0.148917 -0.0788581 -2.015e-21)
(0.164377 -0.445077 7.17662e-23)
(0.148407 -0.403552 7.36212e-23)
(0.134674 -0.367003 3.59522e-21)
(0.122806 -0.334963 -3.44922e-21)
(0.112733 -0.306879 5.03418e-23)
(0.104381 -0.282255 -3.26403e-21)
(0.0976412 -0.260661 -3.19261e-21)
(0.0924018 -0.241718 6.30048e-21)
(0.0885494 -0.22509 0)
(0.0859732 -0.210482 -2.94499e-21)
(0.0845665 -0.197633 -2.87651e-21)
(0.0842274 -0.186311 2.83291e-21)
(0.0848601 -0.176311 -2.72443e-21)
(0.0863742 -0.16745 0)
(0.0886855 -0.159562 -2.55708e-21)
(0.0917145 -0.1525 7.62243e-21)
(0.0953866 -0.146128 -2.45629e-21)
(0.0996314 -0.140326 4.81969e-21)
(0.104381 -0.13498 -1.17225e-20)
(0.109572 -0.129989 9.15181e-21)
(0.11514 -0.125257 -1.11423e-20)
(0.121024 -0.120698 4.37388e-21)
(0.127162 -0.116232 -2.11277e-21)
(0.133494 -0.111787 -2.06031e-21)
(0.139957 -0.107297 5.48689e-23)
(0.146486 -0.102708 5.93648e-21)
(0.153009 -0.0979748 -7.71175e-21)
(0.159511 -0.0930425 3.79277e-21)
(0.166076 -0.0878212 -1.83702e-21)
(0.172232 -0.0824231 2.04644e-21)
(0.175905 -0.440497 5.15815e-24)
(0.158916 -0.399324 -7.45569e-21)
(0.144459 -0.363192 -7.20574e-21)
(0.132097 -0.331628 -1.55457e-23)
(0.12174 -0.304053 -3.42642e-21)
(0.113281 -0.279953 3.37585e-21)
(0.106585 -0.258885 0)
(0.101519 -0.240462 -3.15581e-21)
(0.0979488 -0.224343 0)
(0.0957485 -0.210228 0)
(0.0947969 -0.197853 -2.92291e-21)
(0.0949803 -0.186985 5.72425e-21)
(0.096193 -0.177418 -2.80257e-21)
(0.0983362 -0.168969 5.3941e-21)
(0.101319 -0.161472 -1.3187e-20)
(0.105055 -0.154779 5.17284e-21)
(0.109465 -0.148757 0)
(0.114476 -0.14328 -7.27199e-21)
(0.120015 -0.138237 4.77725e-21)
(0.126016 -0.133523 0)
(0.132411 -0.129039 -2.26693e-21)
(0.139137 -0.124696 0)
(0.146128 -0.120409 2.10948e-21)
(0.15332 -0.116101 -8.3606e-21)
(0.160646 -0.111699 2.06802e-23)
(0.168035 -0.107142 -3.96466e-21)
(0.175407 -0.10238 -3.85506e-21)
(0.182745 -0.0973459 3.81976e-21)
(0.190139 -0.091933 -3.70732e-21)
(0.197063 -0.0862762 4.00825e-21)
(0.187323 -0.435658 0)
(0.16936 -0.39493 0)
(0.154236 -0.359298 3.68602e-21)
(0.141445 -0.32828 -5.88693e-23)
(0.130872 -0.301269 -3.49469e-21)
(0.122377 -0.277737 3.4431e-21)
(0.1158 -0.25723 -3.31236e-21)
(0.11098 -0.239355 6.53699e-21)
(0.107766 -0.223763 -3.18609e-21)
(0.106014 -0.210154 -3.05389e-21)
(0.105588 -0.198261 3.58791e-23)
(0.106362 -0.187851 5.81825e-21)
(0.108221 -0.178718 2.77921e-21)
(0.111057 -0.17068 -2.76609e-21)
(0.114772 -0.163571 -5.32736e-21)
(0.119274 -0.157245 5.24751e-21)
(0.124479 -0.151568 2.55558e-21)
(0.130308 -0.146417 0)
(0.136688 -0.141678 0)
(0.143548 -0.137243 2.35506e-21)
(0.150819 -0.133015 6.79947e-21)
(0.158434 -0.128897 -8.88283e-21)
(0.166325 -0.124802 2.20215e-21)
(0.174424 -0.120644 1.05576e-20)
(0.182661 -0.116344 -2.08846e-21)
(0.190956 -0.111835 0)
(0.199223 -0.107055 3.92143e-21)
(0.207442 -0.101927 0)
(0.21571 -0.0963217 3.73151e-21)
(0.223439 -0.0903988 -6.05665e-21)
(0.198632 -0.430563 -3.61114e-21)
(0.179746 -0.390375 7.87012e-21)
(0.164019 -0.355332 3.83138e-21)
(0.150871 -0.324925 0)
(0.140157 -0.298532 -3.62681e-21)
(0.131705 -0.27561 0)
(0.125323 -0.255698 -3.43206e-21)
(0.120828 -0.238393 1.08574e-23)
(0.118048 -0.223345 -4.95513e-23)
(0.116819 -0.21025 -3.1568e-21)
(0.116992 -0.198843 -3.06943e-21)
(0.118429 -0.18889 -2.98427e-21)
(0.121002 -0.180187 0)
(0.124595 -0.172552 2.78429e-21)
(0.129103 -0.165824 -6.93888e-23)
(0.134429 -0.159857 -5.32611e-21)
(0.140483 -0.154519 -7.67003e-21)
(0.147184 -0.149686 2.51785e-21)
(0.154454 -0.145247 4.83985e-21)
(0.16222 -0.141093 -1.18335e-20)
(0.170412 -0.137123 2.32108e-21)
(0.17896 -0.133239 0)
(0.187794 -0.129346 0)
(0.196844 -0.125354 2.11551e-21)
(0.206034 -0.121176 -6.26055e-21)
(0.21528 -0.116732 0)
(0.224487 -0.111954 -1.96822e-21)
(0.233632 -0.106746 0)
(0.242814 -0.100955 0)
(0.251387 -0.0947657 8.24528e-21)
(0.209829 -0.425215 -7.55417e-21)
(0.190082 -0.385671 -3.93792e-21)
(0.17382 -0.351297 -3.83139e-21)
(0.160398 -0.321568 0)
(0.149625 -0.295846 7.33211e-21)
(0.141299 -0.273576 -3.5419e-21)
(0.135196 -0.254286 3.47673e-21)
(0.131109 -0.237571 3.39272e-21)
(0.128843 -0.223079 3.30953e-21)
(0.128217 -0.210504 6.32218e-21)
(0.129065 -0.199581 -4.79351e-23)
(0.131236 -0.190079 4.05641e-23)
(0.134593 -0.181796 5.89052e-21)
(0.13901 -0.174553 -5.6498e-21)
(0.144373 -0.168192 5.56475e-21)
(0.15058 -0.162569 5.33711e-21)
(0.157538 -0.157554 -1.04453e-20)
(0.165159 -0.153029 1.01884e-20)
(0.173366 -0.14888 -4.9032e-21)
(0.182082 -0.145002 4.83139e-21)
(0.191236 -0.14129 3.08443e-23)
(0.200757 -0.137644 9.08271e-21)
(0.210573 -0.133966 -4.44743e-21)
(0.220612 -0.130157 6.438e-21)
(0.230795 -0.12612 -2.13036e-21)
(0.241032 -0.121767 0)
(0.251221 -0.117015 0)
(0.261332 -0.111751 -5.76591e-21)
(0.271472 -0.10579 7.60967e-21)
(0.280924 -0.0993445 2.03602e-21)
(0.22091 -0.41962 7.68761e-21)
(0.200376 -0.380823 0)
(0.183658 -0.347199 3.93578e-21)
(0.170048 -0.318214 -3.87938e-21)
(0.159306 -0.293214 8.20972e-23)
(0.151195 -0.271632 3.61662e-21)
(0.14546 -0.252992 -3.56271e-21)
(0.141868 -0.236884 0)
(0.140201 -0.222955 -3.30954e-21)
(0.140259 -0.2109 6.45028e-21)
(0.141861 -0.200455 -6.35249e-21)
(0.144842 -0.191394 3.05002e-21)
(0.149053 -0.183515 -1.19084e-20)
(0.15436 -0.176645 8.0011e-23)
(0.160641 -0.170629 1.12368e-20)
(0.167788 -0.165328 -5.49579e-21)
(0.175701 -0.160617 5.26506e-21)
(0.184292 -0.156379 -7.74379e-21)
(0.193479 -0.152504 -4.97006e-21)
(0.203184 -0.148889 4.89728e-21)
(0.213337 -0.145429 -7.04308e-21)
(0.223864 -0.142023 4.62677e-21)
(0.234695 -0.138568 0)
(0.245756 -0.134958 -2.16213e-21)
(0.256965 -0.131088 0)
(0.268229 -0.126856 0)
(0.279436 -0.122165 -7.98183e-21)
(0.290554 -0.116877 5.92365e-21)
(0.301691 -0.110774 7.61176e-21)
(0.312059 -0.104093 -1.66161e-20)
(0.231874 -0.413783 -3.91989e-21)
(0.210637 -0.375835 4.21813e-21)
(0.19355 -0.343045 4.02705e-21)
(0.179847 -0.314866 -3.96935e-21)
(0.169232 -0.290636 -3.78742e-21)
(0.16143 -0.269778 -3.69472e-21)
(0.156158 -0.25181 5.04568e-23)
(0.153151 -0.236321 7.02143e-21)
(0.152171 -0.222958 -3.43354e-21)
(0.152998 -0.211419 0)
(0.155436 -0.201443 0)
(0.159304 -0.192804 6.19876e-21)
(0.164442 -0.185309 -6.10491e-21)
(0.170706 -0.178787 0)
(0.177968 -0.173088 0)
(0.186111 -0.16808 0)
(0.195032 -0.163642 0)
(0.204638 -0.159662 0)
(0.214846 -0.156037 -5.0407e-21)
(0.225577 -0.152663 4.96688e-21)
(0.236758 -0.149442 4.75471e-21)
(0.24832 -0.146271 -4.68608e-21)
(0.260191 -0.143043 0)
(0.272298 -0.139648 0)
(0.28456 -0.135971 0)
(0.296879 -0.131895 0)
(0.309136 -0.127307 0)
(0.321295 -0.122042 0)
(0.333467 -0.115838 0)
(0.344787 -0.108959 0)
(0.242716 -0.407706 0)
(0.220873 -0.370716 0)
(0.203516 -0.338838 0)
(0.189821 -0.311527 0)
(0.179434 -0.288112 7.92515e-21)
(0.172043 -0.268008 7.69334e-21)
(0.16733 -0.250731 3.80124e-21)
(0.165004 -0.235871 1.08589e-20)
(0.164803 -0.223074 0)
(0.166487 -0.212042 0)
(0.169843 -0.202518 1.31294e-20)
(0.174676 -0.194281 -1.27246e-20)
(0.180816 -0.187142 1.858e-20)
(0.188106 -0.180936 1.04235e-23)
(0.196411 -0.17552 5.86518e-21)
(0.205608 -0.170766 9.12992e-23)
(0.215588 -0.166562 1.10346e-20)
(0.226255 -0.162803 5.27135e-21)
(0.237521 -0.159389 1.11645e-24)
(0.249308 -0.156227 4.96441e-21)
(0.261545 -0.15322 -4.89222e-21)
(0.274161 -0.150267 0)
(0.287089 -0.147264 4.60494e-21)
(0.300257 -0.144096 4.47008e-21)
(0.313588 -0.140636 4.34062e-21)
(0.32698 -0.136756 4.21753e-21)
(0.340312 -0.132324 8.10859e-21)
(0.353542 -0.127141 -1.2343e-22)
(0.366783 -0.120895 -1.54758e-20)
(0.37909 -0.113874 -2.13801e-22)
(0.253432 -0.401397 1.25499e-20)
(0.231091 -0.365468 -4.43121e-21)
(0.213573 -0.334582 4.39019e-21)
(0.199995 -0.308196 -4.19809e-21)
(0.189945 -0.285638 -2.00148e-20)
(0.18307 -0.266316 4.09604e-21)
(0.179019 -0.249746 -1.12144e-20)
(0.177473 -0.235519 3.84883e-21)
(0.178145 -0.223284 -1.29575e-22)
(0.180775 -0.212747 -6.94683e-21)
(0.185134 -0.203655 -6.50257e-21)
(0.191014 -0.195793 6.53626e-21)
(0.198229 -0.188977 -6.23226e-21)
(0.206617 -0.183049 6.16842e-21)
(0.216029 -0.177873 -1.1829e-20)
(0.226338 -0.173329 1.01084e-22)
(0.237427 -0.16931 -1.10425e-20)
(0.249197 -0.165721 5.353e-21)
(0.261557 -0.162472 9.46519e-25)
(0.274428 -0.159475 -8.05823e-23)
(0.287739 -0.156643 -1.48128e-20)
(0.301422 -0.153881 4.81559e-21)
(0.315414 -0.151087 -9.2704e-21)
(0.329647 -0.148147 5.43931e-23)
(0.344049 -0.144927 -1.30029e-20)
(0.358522 -0.141286 4.32375e-21)
(0.372941 -0.137069 -8.17335e-21)
(0.387264 -0.132044 8.06119e-21)
(0.401605 -0.125835 3.88384e-21)
(0.414934 -0.118751 0)
(0.264021 -0.394863 2.19203e-22)
(0.2413 -0.360095 9.10327e-21)
(0.223741 -0.330276 -8.61193e-21)
(0.210397 -0.304872 -2.0369e-22)
(0.200798 -0.283209 1.64159e-20)
(0.194549 -0.264693 1.83248e-22)
(0.191266 -0.248842 -7.80853e-21)
(0.1906 -0.235249 -7.40601e-21)
(0.192241 -0.223568 7.18323e-21)
(0.19591 -0.213509 -7.1142e-21)
(0.201358 -0.204825 -6.75583e-21)
(0.208365 -0.197307 0)
(0.216734 -0.190778 6.36358e-21)
(0.226288 -0.185086 -1.87053e-20)
(0.236873 -0.180101 0)
(0.248351 -0.175712 -5.7909e-21)
(0.260602 -0.171821 0)
(0.273518 -0.168341 -9.43858e-23)
(0.287006 -0.165193 -2.41232e-25)
(0.300986 -0.162301 -5.20092e-21)
(0.315386 -0.159587 4.03485e-24)
(0.330142 -0.156969 9.69198e-21)
(0.345194 -0.154352 -7.11239e-23)
(0.360483 -0.151625 4.50488e-21)
(0.375945 -0.148656 -1.33421e-20)
(0.391489 -0.145292 0)
(0.406993 -0.14136 0)
(0.422419 -0.136582 -4.04165e-21)
(0.437885 -0.130514 -3.88385e-21)
(0.452271 -0.123473 -8.65451e-21)
(0.274484 -0.388107 -8.65125e-21)
(0.25151 -0.3546 -1.36739e-20)
(0.234039 -0.32592 -4.54242e-21)
(0.221053 -0.301549 8.56308e-21)
(0.212024 -0.280816 -8.30463e-21)
(0.206516 -0.263127 -8.05314e-21)
(0.204108 -0.248003 7.80858e-21)
(0.204426 -0.235041 7.74139e-21)
(0.207133 -0.223903 0)
(0.211932 -0.214303 7.11424e-21)
(0.218558 -0.206001 0)
(0.226775 -0.198794 0)
(0.236373 -0.192511 0)
(0.247166 -0.187007 6.27834e-21)
(0.258989 -0.18216 0)
(0.271697 -0.177866 0)
(0.285161 -0.174036 5.71896e-21)
(0.299268 -0.170594 5.54258e-21)
(0.31392 -0.167472 0)
(0.329033 -0.164605 0)
(0.344535 -0.161932 5.12151e-21)
(0.360364 -0.159385 -4.95852e-21)
(0.376465 -0.156885 4.79978e-21)
(0.392788 -0.154334 0)
(0.409281 -0.151605 4.43995e-21)
(0.425866 -0.148544 0)
(0.442434 -0.144962 0)
(0.458957 -0.140537 8.11102e-21)
(0.475562 -0.13474 0)
(0.491039 -0.127885 0)
(0.284819 -0.381135 0)
(0.261732 -0.348984 0)
(0.244487 -0.321511 9.04892e-21)
(0.231989 -0.298221 0)
(0.223654 -0.278448 -4.26813e-21)
(0.219003 -0.261602 4.20513e-21)
(0.217582 -0.247209 -8.01438e-21)
(0.218986 -0.234873 1.58352e-20)
(0.222858 -0.224264 2.17525e-23)
(0.22888 -0.215102 -7.42697e-21)
(0.23677 -0.207153 1.42495e-20)
(0.246279 -0.200221 1.51367e-23)
(0.257183 -0.194142 6.74514e-21)
(0.269286 -0.188778 0)
(0.282414 -0.184013 1.25362e-20)
(0.296412 -0.17975 -1.21324e-20)
(0.311144 -0.17591 1.1857e-20)
(0.32649 -0.172424 -1.12792e-20)
(0.342345 -0.169238 1.11187e-20)
(0.35862 -0.166301 5.38321e-21)
(0.37524 -0.163568 8.84632e-23)
(0.392143 -0.16099 4.95854e-21)
(0.409277 -0.158512 -4.79981e-21)
(0.426602 -0.156058 4.71358e-21)
(0.444081 -0.153521 4.5549e-21)
(0.461655 -0.150759 0)
(0.479238 -0.147579 -4.11952e-21)
(0.496826 -0.143619 2.1813e-22)
(0.514571 -0.138251 1.97384e-20)
(0.53117 -0.131761 -4.23317e-21)
(0.295027 -0.373948 4.7964e-21)
(0.27198 -0.343247 -9.73028e-21)
(0.255106 -0.317044 8.31121e-23)
(0.243232 -0.294877 9.29701e-21)
(0.235717 -0.276089 8.8191e-21)
(0.232041 -0.260098 4.3359e-21)
(0.231717 -0.246437 8.36798e-21)
(0.234313 -0.234721 8.12389e-21)
(0.239447 -0.224624 -2.31793e-20)
(0.246783 -0.215876 1.49998e-20)
(0.256023 -0.20825 -1.45417e-20)
(0.266902 -0.201558 1.49003e-22)
(0.279188 -0.195642 -6.74518e-21)
(0.292673 -0.190368 -6.66706e-21)
(0.307172 -0.185629 -6.32564e-21)
(0.322523 -0.181334 1.2381e-20)
(0.338581 -0.17741 -1.80218e-20)
(0.355217 -0.173797 0)
(0.372321 -0.17045 -5.561e-21)
(0.389796 -0.167332 -5.38324e-21)
(0.407559 -0.164414 -1.04173e-20)
(0.425546 -0.161671 5.13208e-21)
(0.443705 -0.159075 9.73333e-21)
(0.462 -0.156583 -1.43087e-20)
(0.48041 -0.154127 -4.55492e-21)
(0.4989 -0.151599 -8.75859e-21)
(0.517416 -0.148827 4.38653e-21)
(0.536003 -0.145425 -1.2197e-20)
(0.554865 -0.140664 4.05891e-21)
(0.572614 -0.134768 -4.22918e-21)
(0.305109 -0.366549 1.9638e-22)
(0.282266 -0.337385 4.79059e-21)
(0.265916 -0.31251 9.76196e-21)
(0.254806 -0.291501 -4.59297e-21)
(0.248239 -0.27372 -9.03667e-21)
(0.245658 -0.258592 -8.56605e-21)
(0.246542 -0.245662 -4.09746e-21)
(0.250431 -0.234553 -8.10128e-21)
(0.256923 -0.224951 8.0219e-21)
(0.265662 -0.216593 0)
(0.276334 -0.209262 7.34924e-21)
(0.288662 -0.202775 -7.11431e-21)
(0.302401 -0.19698 -7.03421e-21)
(0.317335 -0.191753 6.6671e-21)
(0.33327 -0.186989 -6.58852e-21)
(0.350036 -0.182602 -6.24834e-21)
(0.367479 -0.178525 5.93242e-21)
(0.385465 -0.174703 -5.96553e-21)
(0.403872 -0.171098 0)
(0.422597 -0.167683 0)
(0.441549 -0.164441 0)
(0.460653 -0.161369 1.02538e-20)
(0.479851 -0.158467 -1.0107e-20)
(0.499108 -0.155734 0)
(0.518407 -0.153155 0)
(0.537737 -0.150688 0)
(0.557084 -0.148227 0)
(0.576563 -0.145419 -4.15969e-21)
(0.596494 -0.141449 -7.854e-21)
(0.615428 -0.136437 4.2651e-21)
(0.315073 -0.358941 5.07346e-21)
(0.29261 -0.331395 -5.17711e-21)
(0.276941 -0.307895 -1.46609e-20)
(0.266733 -0.288075 1.45186e-20)
(0.261243 -0.271317 -4.58817e-21)
(0.259875 -0.257057 4.52044e-21)
(0.262076 -0.244852 1.80264e-22)
(0.26736 -0.234338 2.52582e-20)
(0.275302 -0.225211 -1.62084e-20)
(0.285528 -0.217219 7.93832e-21)
(0.297709 -0.210152 7.67897e-21)
(0.311558 -0.203838 7.28318e-21)
(0.326817 -0.19813 7.04811e-21)
(0.343263 -0.19291 -6.81923e-21)
(0.360695 -0.188076 1.34344e-20)
(0.378934 -0.183549 6.50002e-21)
(0.397822 -0.179261 6.17176e-21)
(0.417218 -0.175163 -5.97998e-21)
(0.436994 -0.171215 1.16776e-20)
(0.457037 -0.167396 -5.70108e-21)
(0.477247 -0.163695 0)
(0.497539 -0.160118 0)
(0.517841 -0.156687 0)
(0.538105 -0.153438 9.73572e-21)
(0.558309 -0.150416 -9.59857e-21)
(0.578446 -0.147672 0)
(0.59853 -0.145233 0)
(0.618767 -0.142884 4.15971e-21)
(0.639684 -0.139806 -7.82507e-21)
(0.659879 -0.135971 1.26219e-20)
(0.324952 -0.351132 6.92024e-23)
(0.303042 -0.325263 -5.31653e-21)
(0.2882 -0.303177 -1.02708e-20)
(0.279032 -0.284572 -4.82984e-21)
(0.274746 -0.26885 4.81696e-21)
(0.274708 -0.25546 -9.28858e-21)
(0.278334 -0.243972 -8.77134e-21)
(0.28511 -0.234038 -8.48443e-21)
(0.29459 -0.225365 0)
(0.306382 -0.217713 -1.58943e-20)
(0.320145 -0.210884 8.00793e-21)
(0.335578 -0.204713 -7.44316e-21)
(0.352417 -0.199061 7.48806e-21)
(0.370428 -0.193815 0)
(0.389407 -0.18888 -6.7283e-21)
(0.409171 -0.184177 6.65044e-21)
(0.429557 -0.179641 6.43559e-21)
(0.450421 -0.175221 0)
(0.471633 -0.170877 0)
(0.493075 -0.166581 0)
(0.514642 -0.162317 5.64535e-21)
(0.536238 -0.158085 -5.22661e-21)
(0.557779 -0.153907 1.05349e-20)
(0.579193 -0.149826 5.10003e-21)
(0.600429 -0.145919 0)
(0.621449 -0.142312 0)
(0.642231 -0.139194 -4.21525e-21)
(0.663007 -0.136571 1.29071e-20)
(0.684618 -0.133733 0)
(0.706059 -0.130752 0)
(0.334808 -0.343091 -1.02116e-20)
(0.313594 -0.318944 5.45769e-21)
(0.299708 -0.298317 5.1193e-21)
(0.291711 -0.280959 9.59697e-23)
(0.288756 -0.266287 -4.69729e-21)
(0.290165 -0.253766 9.28866e-21)
(0.295321 -0.242985 0)
(0.303684 -0.233612 0)
(0.314785 -0.22537 0)
(0.328216 -0.218034 -8.1367e-21)
(0.343623 -0.211415 1.61621e-22)
(0.360695 -0.205359 0)
(0.379159 -0.199738 -7.34447e-21)
(0.398778 -0.194443 0)
(0.419342 -0.189385 0)
(0.440666 -0.184489 -1.3313e-20)
(0.462589 -0.179692 1.27481e-22)
(0.484966 -0.17494 0)
(0.507671 -0.170189 0)
(0.530592 -0.165401 5.84625e-21)
(0.55363 -0.160546 -1.14066e-20)
(0.576693 -0.155603 -1.64108e-20)
(0.599703 -0.150559 1.07926e-20)
(0.622587 -0.145417 -5.10006e-21)
(0.645279 -0.140203 0)
(0.667703 -0.134999 0)
(0.689759 -0.129972 -4.52827e-21)
(0.711536 -0.125161 -4.28363e-21)
(0.73389 -0.120063 7.6421e-21)
(0.756419 -0.115995 -8.22456e-21)
(0.541014 -0.00585815 8.04986e-22)
(0.53793 -0.0199752 1.06082e-21)
(0.534515 -0.0338806 3.17803e-21)
(0.530769 -0.0476064 4.20207e-21)
(0.526682 -0.0611569 -2.11607e-21)
(0.522263 -0.0745287 2.09258e-21)
(0.517524 -0.0877164 4.05168e-23)
(0.512478 -0.100714 -4.14949e-21)
(0.507137 -0.113518 8.04386e-21)
(0.501513 -0.126122 -1.20755e-20)
(0.495619 -0.138525 7.85179e-21)
(0.489467 -0.150721 -1.1691e-20)
(0.483067 -0.16271 -1.14489e-20)
(0.47643 -0.174489 1.27863e-22)
(0.469566 -0.186058 1.7522e-22)
(0.462486 -0.197414 0)
(0.455198 -0.208559 7.11163e-21)
(0.44771 -0.219492 1.40108e-20)
(0.44003 -0.230213 -1.37973e-20)
(0.432166 -0.240722 6.62031e-21)
(0.424125 -0.251021 0)
(0.415913 -0.26111 -1.90335e-20)
(0.407536 -0.27099 2.95368e-22)