/*--------------------------------*- C++ -*----------------------------------*\
  =========                 |
  \\      /  F ield         | OpenFOAM: The Open Source CFD Toolbox
   \\    /   O peration     | Website:  https://openfoam.org
    \\  /    A nd           | Version:  6.0
     \\/     M anipulation  |
\*---------------------------------------------------------------------------*/
FoamFile
{
    version     2.0;
    format      ascii;
    class       volVectorField;
    location    "20";
    object      U;
}
// * * * * * * * * * * * * * * * * * * * * * * * * * * * * * * * * * * * * * //

dimensions      [0 1 -1 0 0 0 0];

internalField   nonuniform List<vector> 
19200
(
(0.00655035 -0.478838 -4.09527e-22)
(0.00479361 -0.440198 2.26952e-22)
(0.00270424 -0.404745 1.16481e-22)
(0.000290997 -0.372298 1.13708e-22)
(-0.0023172 -0.342649 1.3926e-22)
(-0.00498413 -0.315587 7.04742e-24)
(-0.00761613 -0.290907 2.23207e-22)
(-0.0101465 -0.268411 -2.32266e-23)
(-0.0125275 -0.24791 2.21481e-22)
(-0.0147266 -0.229229 9.69165e-23)
(-0.0167238 -0.212202 -1.01478e-23)
(-0.0185088 -0.196677 1.72845e-22)
(-0.0200787 -0.182513 3.26737e-22)
(-0.0214363 -0.169581 -2.38452e-22)
(-0.0225892 -0.157762 3.1767e-22)
(-0.0235481 -0.146951 3.02241e-22)
(-0.0243264 -0.137048 -2.97105e-22)
(-0.0249393 -0.127964 5.43769e-22)
(-0.0254033 -0.119621 -3.65004e-22)
(-0.0257356 -0.111945 1.85044e-22)
(-0.0259538 -0.104872 2.868e-22)
(-0.0260757 -0.0983445 -1.03778e-22)
(-0.0261186 -0.0923095 1.41378e-22)
(-0.0260995 -0.0867209 -1.79519e-22)
(-0.0260345 -0.0815376 4.68906e-24)
(-0.02594 -0.0767237 1.06927e-22)
(-0.0258312 -0.0722482 -7.27482e-23)
(-0.0257126 -0.0680843 3.9891e-23)
(-0.0255763 -0.0642064 1.11227e-22)
(-0.0255091 -0.0605907 5.49487e-22)
(0.0191159 -0.47802 -9.8889e-23)
(0.0163392 -0.438805 7.14323e-22)
(0.0133244 -0.402942 -3.98849e-22)
(0.0100899 -0.370218 -6.10497e-22)
(0.00676211 -0.340403 -3.09022e-22)
(0.00347055 -0.313267 -2.35528e-22)
(0.000301551 -0.288587 -5.47939e-22)
(-0.00268534 -0.26615 6.58714e-23)
(-0.00544917 -0.245754 -1.07216e-22)
(-0.00796404 -0.227213 -4.57684e-22)
(-0.010216 -0.210351 -1.31175e-21)
(-0.0122004 -0.195008 6.82362e-22)
(-0.0139195 -0.181037 -2.74176e-22)
(-0.0153812 -0.168303 1.05369e-22)
(-0.0165974 -0.156682 -7.18712e-22)
(-0.017583 -0.146063 -2.9051e-22)
(-0.0183554 -0.136345 2.81368e-23)
(-0.0189332 -0.127435 1.09432e-21)
(-0.0193363 -0.119252 -5.67923e-22)
(-0.0195849 -0.111721 -3.2774e-22)
(-0.0196995 -0.104776 -1.46741e-21)
(-0.0197005 -0.0983565 3.90023e-22)
(-0.0196078 -0.0924107 -2.6377e-22)
(-0.0194407 -0.0868912 4.97492e-22)
(-0.0192175 -0.0817566 -2.52637e-22)
(-0.0189567 -0.0769713 -4.11246e-22)
(-0.0186758 -0.0725049 1.28315e-22)
(-0.0183797 -0.068331 2.35189e-22)
(-0.0180578 -0.0644242 -4.00359e-22)
(-0.0178101 -0.0607631 2.57889e-22)
(0.031595 -0.476914 -4.73142e-23)
(0.0277794 -0.437144 1.24798e-22)
(0.0238466 -0.400903 2.13901e-22)
(0.0198044 -0.36794 2.11523e-21)
(0.0157748 -0.338 -1.34636e-21)
(0.0118817 -0.31083 1.24379e-21)
(0.00820408 -0.286187 8.23369e-22)
(0.00479388 -0.263844 7.31326e-22)
(0.00168459 -0.243586 -7.44445e-22)
(-0.001105 -0.225213 -1.24344e-22)
(-0.00356758 -0.208544 2.12587e-21)
(-0.00570457 -0.193409 4.06337e-22)
(-0.00752403 -0.179654 -1.14314e-21)
(-0.00903899 -0.167138 9.08527e-22)
(-0.0102662 -0.155734 -1.86932e-23)
(-0.011225 -0.145326 4.47436e-22)
(-0.0119367 -0.135808 3.27942e-22)
(-0.0124239 -0.127087 1.26042e-21)
(-0.0127098 -0.119076 -5.36861e-22)
(-0.0128179 -0.1117 -1.73735e-22)
(-0.0127718 -0.104891 -5.6628e-22)
(-0.0125947 -0.0985875 2.70208e-21)
(-0.0123093 -0.092736 -2.35246e-21)
(-0.0119373 -0.0872888 7.57842e-22)
(-0.0114994 -0.0822044 4.44902e-22)
(-0.0110167 -0.0774472 -1.71213e-21)
(-0.0105088 -0.0729874 2.36047e-21)
(-0.00998108 -0.0687989 -2.37689e-22)
(-0.00941973 -0.0648563 -2.84046e-22)
(-0.00894073 -0.0611417 -2.4781e-21)
(0.0440183 -0.475509 -1.49009e-21)
(0.039137 -0.435229 -1.57108e-21)
(0.0342796 -0.39865 -2.10974e-21)
(0.0294372 -0.365491 8.59928e-24)
(0.0247228 -0.335467 1.32528e-22)
(0.0202523 -0.308302 -2.93945e-21)
(0.0160962 -0.283735 1.13791e-22)
(0.0122978 -0.26152 4.49776e-22)
(0.00888221 -0.241432 -6.00096e-23)
(0.00586056 -0.223259 9.0166e-22)
(0.00323294 -0.20681 -3.62664e-21)
(0.000991278 -0.191908 -2.5103e-21)
(-0.000878557 -0.178393 8.98737e-22)
(-0.00239516 -0.166117 2.10421e-21)
(-0.00358034 -0.154949 -2.46653e-21)
(-0.00445815 -0.144769 -4.11564e-22)
(-0.00505415 -0.135468 -1.6783e-21)
(-0.00539482 -0.126949 -8.39971e-22)
(-0.00550706 -0.119123 1.53341e-21)
(-0.00541785 -0.111913 -2.02811e-21)
(-0.00515396 -0.105248 1.92432e-21)
(-0.00474164 -0.0990672 -2.29586e-21)
(-0.00420641 -0.0933149 -1.94452e-21)
(-0.00357271 -0.0879431 -1.52342e-21)
(-0.00286394 -0.0829096 -3.93646e-22)
(-0.00210366 -0.0781791 -3.39005e-21)
(-0.00131445 -0.073722 3.63818e-22)
(-0.000501628 -0.069513 6.83598e-22)
(0.000352541 -0.0655257 -2.10652e-21)
(0.0011128 -0.0617469 4.15298e-22)
(0.0563886 -0.473797 -8.66964e-22)
(0.0504186 -0.433064 1.5227e-22)
(0.0446294 -0.396197 1.40574e-21)
(0.0389936 -0.362889 1.60903e-21)
(0.0336118 -0.332826 1.26898e-21)
(0.0285894 -0.305708 5.66158e-22)
(0.0239866 -0.281255 9.11959e-22)
(0.0198367 -0.259206 4.62841e-21)
(0.0161558 -0.23932 -2.85277e-21)
(0.0129463 -0.221378 5.96651e-23)
(0.0102006 -0.205177 7.49504e-22)
(0.0079035 -0.190534 3.7477e-21)
(0.0060343 -0.177281 -2.65238e-21)
(0.00456856 -0.165267 2.04891e-21)
(0.00347911 -0.154354 -2.45662e-21)
(0.00273701 -0.14442 4.44475e-21)
(0.00231226 -0.135351 -1.32766e-21)
(0.00217425 -0.127048 5.1626e-23)
(0.00229226 -0.119419 2.52427e-21)
(0.00263573 -0.112385 1.94477e-21)
(0.00317455 -0.105874 -1.9846e-21)
(0.00387924 -0.0998228 2.86117e-21)
(0.00472123 -0.0941745 -1.39985e-21)
(0.00567317 -0.0888805 1.65374e-21)
(0.00670886 -0.0838983 2.40785e-21)
(0.00780181 -0.0791922 9.84788e-22)
(0.0089264 -0.0747334 3.05131e-21)
(0.0100773 -0.0704962 -9.65995e-22)
(0.0112769 -0.0664534 -2.49958e-22)
(0.0123675 -0.0625977 -2.12105e-21)
(0.0687016 -0.471778 -6.38209e-22)
(0.0616245 -0.430655 -4.64251e-22)
(0.0548996 -0.393558 -1.60246e-21)
(0.0484794 -0.360152 -4.63529e-21)
(0.0424495 -0.330098 1.55174e-21)
(0.0369026 -0.303071 1.22915e-22)
(0.0318868 -0.278772 -1.26659e-21)
(0.0274243 -0.256924 3.14858e-22)
(0.0235208 -0.237275 -1.55427e-22)
(0.0201695 -0.219593 -4.10261e-21)
(0.0173542 -0.203668 1.71143e-21)
(0.0150521 -0.189309 3.29604e-21)
(0.0132356 -0.176342 -2.41973e-23)
(0.0118741 -0.164611 1.36751e-21)
(0.0109348 -0.153973 3.72043e-21)
(0.0103836 -0.144301 -2.71371e-21)
(0.010186 -0.135481 5.0146e-21)
(0.0103071 -0.127407 -2.57123e-21)
(0.0107121 -0.119989 4.78912e-21)
(0.0113668 -0.113142 -3.76494e-21)
(0.0122377 -0.106793 1.73418e-21)
(0.0132918 -0.100878 5.03458e-21)
(0.0144974 -0.0953385 4.85813e-22)
(0.0158239 -0.0901247 -5.07346e-21)
(0.0172423 -0.0851938 2.96438e-21)
(0.0187228 -0.0805096 3.69354e-22)
(0.0202363 -0.0760433 -1.11076e-21)
(0.0217776 -0.0717693 4.29982e-21)
(0.0233746 -0.0676586 1.6981e-21)
(0.0248436 -0.0637111 -1.77774e-21)
(0.0809511 -0.469456 1.87207e-21)
(0.0727535 -0.428011 1.08833e-22)
(0.0650935 -0.390744 -3.25332e-21)
(0.0579013 -0.357296 6.99353e-22)
(0.0512454 -0.3273 -1.13115e-21)
(0.0452041 -0.30041 7.53757e-22)
(0.0398114 -0.276306 1.92288e-21)
(0.0350772 -0.254698 3.90455e-21)
(0.030996 -0.235319 -4.55013e-21)
(0.0275506 -0.217928 1.11653e-21)
(0.0247158 -0.202307 -9.63846e-22)
(0.0224606 -0.188257 7.29105e-22)
(0.0207501 -0.175598 -3.26771e-21)
(0.0195471 -0.16417 -3.10089e-22)
(0.0188131 -0.153825 6.05805e-21)
(0.0185087 -0.144434 -4.23395e-21)
(0.0185944 -0.135877 -2.95326e-21)
(0.0190311 -0.128048 -2.39133e-21)
(0.01978 -0.120851 4.27956e-21)
(0.020803 -0.114202 1.03369e-21)
(0.0220629 -0.108025 -4.80811e-21)
(0.0235234 -0.102253 6.78265e-21)
(0.0251492 -0.096827 -6.35197e-21)
(0.0269066 -0.0916962 4.47982e-21)
(0.0287632 -0.0868163 -2.62456e-21)
(0.0306856 -0.0821509 1.8238e-21)
(0.0326413 -0.0776711 1.52381e-21)
(0.0346249 -0.0733507 -6.76726e-21)
(0.0366703 -0.069158 2.97561e-21)
(0.0385649 -0.065102 6.67273e-23)
(0.093131 -0.466835 -1.84933e-21)
(0.0838042 -0.425139 1.58233e-21)
(0.0752143 -0.387768 -3.49641e-21)
(0.0672666 -0.354335 6.93032e-21)
(0.0600106 -0.324451 -2.06501e-21)
(0.0535079 -0.297744 3.29088e-21)
(0.0477775 -0.273878 5.49169e-23)
(0.0428153 -0.252546 -4.34985e-22)
(0.0386034 -0.233471 -8.23275e-22)
(0.0351138 -0.216402 -5.23575e-23)
(0.0323113 -0.201111 -3.57361e-21)
(0.0301563 -0.187394 1.88527e-21)
(0.0286062 -0.175066 -2.54713e-21)
(0.0276171 -0.163961 -1.76029e-22)
(0.0271441 -0.153928 -8.01897e-21)
(0.0271427 -0.144833 2.64504e-21)
(0.0275684 -0.136555 1.74661e-21)
(0.0283776 -0.128984 -1.98923e-21)
(0.0295273 -0.122021 -2.25392e-22)
(0.0309755 -0.115581 -3.42764e-21)
(0.0326813 -0.109585 -1.29811e-21)
(0.0346049 -0.103963 1.90734e-22)
(0.0367074 -0.0986562 -3.49771e-21)
(0.0389516 -0.0936109 -5.62689e-21)
(0.0413015 -0.0887822 1.93852e-22)
(0.0437202 -0.0841325 -7.27347e-22)
(0.0461708 -0.0796329 2.06553e-21)
(0.0486479 -0.0752556 -5.34535e-21)
(0.0511923 -0.0709658 4.77292e-21)
(0.0535584 -0.0667828 -1.08628e-20)
(0.105235 -0.46392 -4.50822e-21)
(0.0947757 -0.422048 6.22135e-21)
(0.0852661 -0.38464 -7.21008e-21)
(0.076584 -0.351285 -2.17078e-21)
(0.0687578 -0.321566 -1.53667e-21)
(0.0618307 -0.295091 -1.78491e-21)
(0.0558049 -0.271505 -1.66815e-21)
(0.0506612 -0.250488 -2.96165e-22)
(0.0463683 -0.23175 -1.86473e-21)
(0.0428865 -0.215032 -4.33446e-22)
(0.04017 -0.200098 3.84703e-21)
(0.0381701 -0.186737 -2.01168e-21)
(0.0368362 -0.17476 -2.72142e-21)
(0.0361171 -0.163997 -5.11252e-21)
(0.0359619 -0.154293 1.11807e-20)
(0.0363203 -0.145511 -4.52478e-21)
(0.0371428 -0.137525 1.79154e-21)
(0.0383813 -0.130225 -7.23797e-21)
(0.0399887 -0.12351 2.82773e-21)
(0.041919 -0.117289 -1.3071e-21)
(0.0441275 -0.111482 1.58724e-21)
(0.0465706 -0.106019 -6.11173e-22)
(0.0492058 -0.100837 5.88025e-21)
(0.0519924 -0.0958804 -2.1589e-21)
(0.0548906 -0.0911033 6.45996e-21)
(0.0578592 -0.0864668 -1.61285e-21)
(0.060857 -0.081941 9.01279e-21)
(0.0638785 -0.0774964 2.82559e-21)
(0.0669714 -0.0730931 5.48022e-21)
(0.0698542 -0.0687635 -1.89524e-20)
(0.117257 -0.460715 7.10039e-21)
(0.105668 -0.418747 -1.464e-21)
(0.095254 -0.381373 3.18646e-21)
(0.0858636 -0.348157 -9.72407e-22)
(0.0775016 -0.31866 3.52669e-21)
(0.070191 -0.292465 3.66492e-21)
(0.0639158 -0.269203 4.44619e-21)
(0.0586403 -0.248537 -4.31699e-22)
(0.0543191 -0.23017 -4.98035e-21)
(0.0508994 -0.21383 7.46033e-21)
(0.0483248 -0.199278 -7.99612e-22)
(0.0465366 -0.186296 5.94741e-21)
(0.0454759 -0.17469 2.33142e-21)
(0.0450842 -0.164286 8.19114e-22)
(0.045304 -0.154927 1.42814e-21)
(0.0460794 -0.146472 2.14477e-21)
(0.0473559 -0.138793 3.90913e-21)
(0.0490807 -0.131777 -1.26365e-21)
(0.0512025 -0.12532 6.4798e-21)
(0.0536715 -0.119329 3.26976e-21)
(0.056439 -0.113722 -6.98214e-21)
(0.0594578 -0.108426 1.31436e-20)
(0.0626815 -0.103374 -1.82004e-20)
(0.0660657 -0.0985107 1.80241e-20)
(0.0695666 -0.0937864 -6.21023e-21)
(0.0731385 -0.0891612 1.13277e-21)
(0.0767353 -0.0846035 -9.16872e-21)
(0.0803513 -0.080081 5.20428e-21)
(0.0840416 -0.0755478 2.02719e-21)
(0.0874849 -0.071051 -2.80972e-21)
(0.129193 -0.457225 -4.05439e-21)
(0.11648 -0.415244 4.70485e-21)
(0.105184 -0.377977 -1.33772e-21)
(0.0951169 -0.344966 4.14932e-21)
(0.0862584 -0.315747 4.3325e-22)
(0.0786098 -0.289882 1.18982e-21)
(0.0721351 -0.266985 -8.76835e-21)
(0.0667812 -0.246708 -1.71253e-21)
(0.0624871 -0.228742 6.4795e-21)
(0.0591867 -0.212809 5.4506e-21)
(0.0568119 -0.198661 -9.64993e-21)
(0.0552939 -0.186078 6.00502e-21)
(0.0545649 -0.174861 -6.2442e-21)
(0.0545589 -0.164832 4.72734e-21)
(0.0552118 -0.155832 -8.27154e-21)
(0.0564619 -0.147717 -6.65433e-21)
(0.0582496 -0.140358 2.10387e-22)
(0.0605176 -0.133637 -3.52771e-21)
(0.0632104 -0.127449 6.1083e-21)
(0.0662741 -0.121699 2.65606e-21)
(0.0696566 -0.116302 -1.73602e-21)
(0.0733065 -0.11118 -5.01692e-22)
(0.077174 -0.106266 2.52111e-21)
(0.0812104 -0.101501 -8.36342e-21)
(0.0853679 -0.0968324 1.45754e-20)
(0.089596 -0.0922175 -3.51882e-21)
(0.0938431 -0.0876233 -4.51784e-22)
(0.0981032 -0.0830134 1.46706e-20)
(0.102439 -0.0783339 2.3341e-21)
(0.106485 -0.0736489 -2.34406e-21)
(0.141035 -0.453455 1.92137e-22)
(0.127215 -0.411546 -2.41042e-21)
(0.115064 -0.374462 -2.48628e-21)
(0.104357 -0.341723 -4.49117e-21)
(0.0950468 -0.312838 1.74763e-22)
(0.0871103 -0.287353 -3.88559e-21)
(0.0804903 -0.264863 4.65711e-21)
(0.075115 -0.24501 -4.65684e-22)
(0.0709068 -0.227475 4.61178e-21)
(0.0677856 -0.211974 -3.66338e-21)
(0.0656709 -0.198252 -2.07995e-21)
(0.0644834 -0.186086 1.21993e-21)
(0.0641461 -0.175273 7.07136e-22)
(0.0645853 -0.165633 -7.88098e-21)
(0.06573 -0.157004 4.75186e-21)
(0.0675129 -0.14924 -2.65735e-21)
(0.0698691 -0.14221 7.57729e-21)
(0.0727369 -0.135795 -2.68133e-21)
(0.0760567 -0.129887 2.86016e-21)
(0.0797709 -0.124388 7.94484e-22)
(0.0838233 -0.11921 5.59726e-21)
(0.0881593 -0.114273 -1.09518e-21)
(0.0927248 -0.109505 1.01864e-20)
(0.0974674 -0.104844 -1.15934e-20)
(0.102335 -0.100235 -4.25133e-21)
(0.107271 -0.0956314 3.61929e-21)
(0.11222 -0.0909977 -2.14837e-22)
(0.117172 -0.0862921 -6.94694e-21)
(0.122201 -0.0814509 5.77942e-21)
(0.126892 -0.0765573 -7.82302e-21)
(0.152781 -0.449408 6.96551e-21)
(0.137874 -0.407662 2.10812e-21)
(0.124902 -0.370839 2.77552e-21)
(0.113599 -0.338438 4.13072e-21)
(0.103887 -0.309947 6.63567e-21)
(0.0957181 -0.284889 -2.20956e-22)
(0.0890115 -0.262847 9.89257e-22)
(0.0836757 -0.243452 9.12533e-21)
(0.0796157 -0.226376 -1.86163e-21)
(0.0767365 -0.211329 -3.85373e-21)
(0.0749447 -0.198052 7.15994e-21)
(0.0741499 -0.186318 1.39669e-21)
(0.0742659 -0.175921 1.97417e-23)
(0.0752108 -0.166681 1.92786e-21)
(0.0769068 -0.158432 3.84547e-21)
(0.0792807 -0.151029 -8.50212e-21)
(0.0822627 -0.144337 7.45538e-21)
(0.0857866 -0.138237 1.33419e-21)
(0.0897888 -0.132617 8.31605e-21)
(0.094208 -0.127378 -4.60271e-21)
(0.0989846 -0.122428 8.17711e-21)
(0.10406 -0.117685 -9.11625e-21)
(0.109377 -0.113073 9.19532e-21)
(0.114879 -0.108525 1.57155e-21)
(0.120508 -0.103981 -6.67196e-21)
(0.126205 -0.0993915 -2.47857e-21)
(0.131904 -0.0947175 1.42751e-20)
(0.137598 -0.0899102 1.07392e-20)
(0.143365 -0.0848935 2.97366e-21)
(0.148743 -0.0797723 -2.66721e-21)
(0.164424 -0.445091 7.30573e-22)
(0.14846 -0.4036 1.97982e-21)
(0.134708 -0.367117 8.67865e-21)
(0.122859 -0.335122 -1.46737e-20)
(0.112802 -0.307081 -1.64274e-21)
(0.104461 -0.282499 -1.7922e-21)
(0.0977311 -0.260945 7.91497e-22)
(0.0924999 -0.242039 1.23149e-21)
(0.088654 -0.225448 2.25482e-21)
(0.0860827 -0.210874 -6.33633e-21)
(0.084679 -0.198058 -1.51774e-21)
(0.0843414 -0.186767 3.87268e-21)
(0.0849737 -0.176797 4.67912e-21)
(0.0864859 -0.167963 -4.68299e-21)
(0.0887933 -0.160102 -5.25538e-21)
(0.0918167 -0.153064 8.26164e-21)
(0.0954815 -0.146716 5.92553e-21)
(0.099717 -0.140936 -1.41968e-21)
(0.104456 -0.135612 -4.12785e-21)
(0.109634 -0.130641 8.25829e-22)
(0.115187 -0.125929 -1.07931e-20)
(0.121055 -0.121389 1.3482e-20)
(0.127175 -0.116943 -9.61551e-21)
(0.133487 -0.112517 -5.62501e-22)
(0.13993 -0.108047 6.86687e-21)
(0.146436 -0.103478 -2.28344e-21)
(0.152936 -0.0987659 -7.35614e-21)
(0.159418 -0.0938541 9.19979e-21)
(0.16597 -0.088651 -2.9992e-22)
(0.172073 -0.0832853 1.95444e-21)
(0.175961 -0.440507 -4.8049e-22)
(0.158977 -0.399366 -1.97969e-21)
(0.144494 -0.363305 -1.00218e-20)
(0.132156 -0.331784 3.65959e-21)
(0.121816 -0.30425 -1.29423e-21)
(0.113368 -0.28019 4.22377e-21)
(0.106684 -0.259161 3.11828e-22)
(0.101627 -0.240774 -5.82433e-21)
(0.0980644 -0.22469 9.19961e-21)
(0.09587 -0.210607 -8.71429e-21)
(0.0949226 -0.198263 -4.89117e-22)
(0.0951085 -0.187425 2.40319e-21)
(0.0963219 -0.177886 -4.35536e-21)
(0.098464 -0.169462 5.35604e-21)
(0.101443 -0.161989 -1.06203e-20)
(0.105175 -0.155319 -2.77649e-21)
(0.109579 -0.149317 6.88402e-21)
(0.114581 -0.143861 -1.87089e-22)
(0.12011 -0.138836 -5.26626e-21)
(0.126098 -0.13414 1.4342e-20)
(0.132479 -0.129673 -7.71171e-21)
(0.139188 -0.125347 -1.12364e-20)
(0.146161 -0.121077 3.96461e-21)
(0.153333 -0.116785 -1.2099e-20)
(0.160638 -0.1124 -3.21543e-21)
(0.168004 -0.107861 -5.67539e-22)
(0.175352 -0.103118 -9.20416e-21)
(0.182669 -0.0981029 1.09936e-20)
(0.190051 -0.0927064 -6.53729e-21)
(0.196918 -0.0870832 8.45392e-21)
(0.187389 -0.435662 -2.46716e-21)
(0.16943 -0.394969 -8.02717e-21)
(0.154273 -0.359411 4.37589e-21)
(0.141509 -0.328433 -4.42191e-21)
(0.130954 -0.301461 -3.57641e-21)
(0.122473 -0.277967 -2.29755e-21)
(0.115907 -0.257498 -8.54549e-21)
(0.111097 -0.239658 6.05195e-21)
(0.107892 -0.224099 -1.59493e-20)
(0.106147 -0.210521 -6.41563e-21)
(0.105726 -0.198657 2.09994e-21)
(0.106504 -0.188275 4.03631e-21)
(0.108365 -0.179168 9.34193e-23)
(0.111201 -0.171153 -8.70041e-21)
(0.114913 -0.164066 2.08325e-21)
(0.119411 -0.157761 -8.95296e-21)
(0.12461 -0.152103 -6.91386e-21)
(0.130432 -0.146969 -4.55415e-21)
(0.136802 -0.142246 -1.24172e-21)
(0.14365 -0.137827 7.64865e-21)
(0.150907 -0.133612 1.18268e-20)
(0.158506 -0.129508 -3.72227e-21)
(0.166379 -0.125426 -3.8433e-21)
(0.174458 -0.121281 7.57085e-21)
(0.182672 -0.116996 4.4868e-21)
(0.190944 -0.112501 -3.56426e-21)
(0.199186 -0.107738 -4.26412e-21)
(0.207384 -0.102627 3.84011e-22)
(0.215638 -0.0970356 4.92198e-21)
(0.223308 -0.0911472 7.47577e-21)
(0.198703 -0.430561 -6.26712e-22)
(0.179824 -0.390415 1.0401e-20)
(0.164057 -0.355442 8.83525e-21)
(0.150939 -0.325074 7.38527e-21)
(0.140245 -0.298719 -4.94863e-21)
(0.131807 -0.275835 -1.04918e-21)
(0.125438 -0.255959 9.06538e-22)
(0.120955 -0.238687 7.76564e-21)
(0.118184 -0.223671 3.1268e-21)
(0.116964 -0.210606 7.99754e-21)
(0.117143 -0.199226 -1.17171e-20)
(0.118584 -0.189299 1.11267e-21)
(0.12116 -0.18062 5.22547e-21)
(0.124754 -0.173007 3.47036e-21)
(0.129261 -0.166299 7.83348e-21)
(0.134584 -0.16035 -5.18219e-21)
(0.140633 -0.155028 -5.37583e-21)
(0.147326 -0.150211 8.61934e-22)
(0.154587 -0.145785 1.24902e-20)
(0.162342 -0.141643 -2.09321e-20)
(0.17052 -0.137684 7.41735e-21)
(0.179052 -0.13381 -1.18815e-22)
(0.187868 -0.129928 1.58267e-20)
(0.196897 -0.125946 -6.87842e-21)
(0.206065 -0.121778 -2.3555e-22)
(0.215286 -0.117346 -4.88176e-21)
(0.224467 -0.112581 4.72478e-21)
(0.233589 -0.107387 1.20986e-21)
(0.242759 -0.101606 -5.99912e-21)
(0.251268 -0.095452 2.22357e-20)
(0.209901 -0.425208 -9.89852e-21)
(0.190167 -0.385711 -6.41969e-21)
(0.173863 -0.351406 -1.77329e-20)
(0.160469 -0.321714 -8.82198e-21)
(0.149719 -0.296029 8.49752e-21)
(0.141407 -0.273795 -5.51131e-21)
(0.135319 -0.25454 -1.55819e-21)
(0.131244 -0.237858 -4.14667e-21)
(0.128989 -0.223396 7.11774e-21)
(0.128372 -0.210849 -1.73397e-21)
(0.129227 -0.199952 -2.81413e-21)
(0.131404 -0.190475 -4.00963e-22)
(0.134765 -0.182214 -1.34503e-20)
(0.139183 -0.174991 -1.00692e-21)
(0.144546 -0.168647 3.57428e-21)
(0.150752 -0.16304 -4.78923e-22)
(0.157705 -0.15804 -1.65913e-20)
(0.16532 -0.153527 1.67705e-20)
(0.173518 -0.149389 -1.73435e-20)
(0.182223 -0.14552 6.9656e-21)
(0.191364 -0.141816 1.00932e-21)
(0.200869 -0.138177 4.40428e-22)
(0.210667 -0.134506 -8.36843e-21)
(0.220685 -0.130703 3.0162e-21)
(0.230845 -0.126673 6.83128e-23)
(0.241056 -0.122328 1.10875e-21)
(0.251217 -0.117586 -2.50343e-20)
(0.261304 -0.112332 6.50504e-21)
(0.271431 -0.106377 7.60823e-21)
(0.280816 -0.0999653 1.02863e-20)
(0.220981 -0.41961 1.96154e-20)
(0.200464 -0.380863 7.88115e-21)
(0.183706 -0.347308 4.85755e-21)
(0.170124 -0.318358 7.92962e-21)
(0.159404 -0.293393 -1.11653e-21)
(0.151309 -0.271847 6.83497e-21)
(0.14559 -0.25324 1.61529e-20)
(0.142011 -0.237163 -2.00579e-21)
(0.140356 -0.223263 1.07638e-21)
(0.140424 -0.211234 2.25972e-20)
(0.142034 -0.200815 -2.86734e-21)
(0.145022 -0.191776 3.4628e-21)
(0.149238 -0.183918 -1.50823e-21)
(0.154547 -0.177067 -5.63963e-22)
(0.160829 -0.171067 2.06336e-20)
(0.167974 -0.16578 8.00756e-22)
(0.175885 -0.161081 2.43385e-20)
(0.18447 -0.156853 -2.93011e-21)
(0.193649 -0.152986 -5.80444e-21)
(0.203345 -0.149377 1.38915e-20)
(0.213484 -0.145922 -1.34854e-20)
(0.223996 -0.14252 1.50941e-20)
(0.234809 -0.139067 8.54596e-21)
(0.245848 -0.13546 -7.406e-21)
(0.257034 -0.131592 1.12452e-20)
(0.268271 -0.127364 1.32466e-21)
(0.279448 -0.122678 -5.42239e-21)
(0.29054 -0.117396 2.39973e-21)
(0.301664 -0.111293 1.96171e-20)
(0.31196 -0.104645 3.34967e-21)
(0.23194 -0.413771 -3.36593e-21)
(0.210725 -0.375877 -7.74784e-21)
(0.193603 -0.343153 3.5192e-21)
(0.179926 -0.315008 -1.43302e-20)
(0.169335 -0.290812 7.34855e-21)
(0.16155 -0.269988 -1.41148e-20)
(0.156294 -0.252052 -1.00583e-20)
(0.153302 -0.236593 2.83748e-21)
(0.152334 -0.223258 3.3766e-21)
(0.153173 -0.211745 -1.5213e-20)
(0.155619 -0.201792 -7.05746e-21)
(0.159494 -0.193174 3.54557e-21)
(0.164638 -0.185699 -9.73686e-21)
(0.170906 -0.179194 -4.1417e-21)
(0.178169 -0.17351 -2.97226e-21)
(0.186312 -0.168514 -3.0678e-21)
(0.195231 -0.164086 -1.35578e-20)
(0.204833 -0.160114 -9.11122e-21)
(0.215034 -0.156494 1.34471e-21)
(0.225755 -0.153125 3.06139e-21)
(0.236925 -0.149905 3.61446e-21)
(0.248471 -0.146733 -1.24214e-20)
(0.260324 -0.143504 4.90082e-21)
(0.27241 -0.140108 -1.04217e-20)
(0.284648 -0.136428 1.03732e-20)
(0.296938 -0.13235 -1.37417e-20)
(0.309164 -0.127763 4.7308e-21)
(0.321296 -0.122498 -7.08066e-21)
(0.333453 -0.116288 -1.06741e-20)
(0.344697 -0.10944 -1.27422e-21)
(0.242776 -0.407695 -7.191e-21)
(0.220958 -0.370757 -6.99721e-21)
(0.203573 -0.338946 -7.46233e-21)
(0.189904 -0.311667 -6.09808e-21)
(0.179541 -0.288285 1.88362e-20)
(0.172168 -0.268214 2.92908e-21)
(0.167472 -0.250968 8.98937e-21)
(0.165162 -0.236136 1.45836e-20)
(0.164974 -0.223367 7.60858e-21)
(0.16667 -0.212359 -1.01056e-20)
(0.170035 -0.202857 1.7819e-20)
(0.174877 -0.194641 -1.77419e-20)
(0.181022 -0.187519 1.77117e-20)
(0.188318 -0.181329 2.26531e-21)
(0.196625 -0.175927 4.91995e-21)
(0.205823 -0.171185 1.54824e-21)
(0.215802 -0.166989 2.18816e-20)
(0.226465 -0.163235 -3.30746e-21)
(0.237725 -0.159826 3.16604e-21)
(0.249504 -0.156664 1.12767e-20)
(0.261729 -0.153655 -1.28184e-20)
(0.274331 -0.150699 1.07597e-20)
(0.287241 -0.147691 4.94661e-22)
(0.300388 -0.144515 5.22235e-21)
(0.313694 -0.141048 9.94632e-21)
(0.327057 -0.137162 -1.73829e-21)
(0.340355 -0.132724 1.05322e-20)
(0.353556 -0.127535 1.59742e-20)
(0.366781 -0.121275 -1.73252e-20)
(0.379008 -0.11428 -1.25026e-20)
(0.253488 -0.401389 2.17337e-20)
(0.231173 -0.36551 -2.5294e-21)
(0.213634 -0.334688 5.72347e-21)
(0.200082 -0.308335 1.13047e-20)
(0.190057 -0.285808 -3.41247e-20)
(0.183201 -0.266519 3.87083e-21)
(0.179167 -0.249979 -1.45567e-20)
(0.177637 -0.235779 1.54145e-20)
(0.178322 -0.22357 -1.26006e-20)
(0.180966 -0.213056 7.58957e-21)
(0.185335 -0.203985 -2.77385e-20)
(0.191223 -0.196143 3.64394e-22)
(0.198446 -0.189344 -1.05297e-20)
(0.206838 -0.183432 1.59128e-20)
(0.216254 -0.178268 -1.76565e-20)
(0.226564 -0.173733 -1.01436e-21)
(0.237653 -0.169722 -1.58314e-20)
(0.24942 -0.166137 -1.46888e-21)
(0.261776 -0.16289 1.51514e-21)
(0.274639 -0.159892 4.15092e-21)
(0.28794 -0.157055 -2.29586e-20)
(0.30161 -0.154286 -8.19892e-22)
(0.315584 -0.151483 -1.3815e-20)
(0.329797 -0.148531 -3.36615e-21)
(0.344174 -0.145298 -9.16621e-21)
(0.358617 -0.141643 -1.0413e-20)
(0.373001 -0.137415 -1.13804e-20)
(0.387292 -0.132375 1.85418e-20)
(0.401617 -0.126143 5.12878e-21)
(0.41486 -0.11908 -1.19891e-20)
(0.264075 -0.394857 -1.45112e-20)
(0.24138 -0.360137 5.81375e-21)
(0.223805 -0.33038 -1.0789e-20)
(0.210488 -0.305009 1.6705e-21)
(0.200913 -0.283377 1.97936e-20)
(0.194684 -0.264892 -1.03606e-20)
(0.191419 -0.24907 -1.18453e-20)
(0.19077 -0.235503 -1.03503e-20)
(0.192425 -0.223847 3.89398e-22)
(0.196106 -0.213811 7.19402e-21)
(0.201566 -0.205148 -5.74465e-21)
(0.208582 -0.197649 -3.04156e-23)
(0.216958 -0.191136 1.92797e-20)
(0.226518 -0.185458 -9.99999e-21)
(0.237107 -0.180485 2.98954e-21)
(0.248587 -0.176105 -9.05138e-21)
(0.260838 -0.17222 3.46435e-21)
(0.273753 -0.168744 8.0177e-21)
(0.287238 -0.165597 9.70627e-21)
(0.301211 -0.162702 -1.08108e-20)
(0.315602 -0.159981 1.58866e-21)
(0.330346 -0.157353 1.00597e-20)
(0.345382 -0.154722 1.82156e-20)
(0.360652 -0.151979 5.18008e-21)
(0.37609 -0.148991 -1.9832e-20)
(0.391603 -0.145607 2.39702e-20)
(0.407072 -0.141655 -1.21436e-20)
(0.422464 -0.136853 -1.51226e-20)
(0.437912 -0.130751 -9.5878e-21)
(0.452207 -0.123723 -1.54596e-20)
(0.274535 -0.388102 7.96798e-21)
(0.251588 -0.354641 -6.8768e-21)
(0.234106 -0.326023 2.54518e-21)
(0.221147 -0.301684 1.55276e-20)
(0.212143 -0.280981 4.48861e-21)
(0.206655 -0.263322 -4.10289e-21)
(0.204266 -0.248226 1.01405e-20)
(0.2046 -0.23529 2.10935e-21)
(0.207322 -0.224176 1.07107e-20)
(0.212134 -0.214598 6.18975e-21)
(0.218771 -0.206317 1.66841e-22)
(0.226997 -0.199128 4.30689e-21)
(0.236603 -0.192861 -1.43104e-21)
(0.247402 -0.187371 2.61108e-21)
(0.25923 -0.182535 7.63795e-21)
(0.27194 -0.17825 -4.43095e-21)
(0.285405 -0.174426 1.13868e-20)
(0.299512 -0.170987 1.21296e-20)
(0.314162 -0.167864 -1.43877e-20)
(0.32927 -0.164994 1.49653e-20)
(0.344765 -0.162313 3.35704e-20)
(0.360583 -0.159753 -2.22925e-20)
(0.37667 -0.157237 2.33703e-20)
(0.392976 -0.154664 -1.66662e-20)
(0.409445 -0.151911 -2.49529e-21)
(0.426002 -0.148823 1.93007e-20)
(0.442533 -0.145212 -3.82465e-21)
(0.45902 -0.140753 1.53879e-20)
(0.475607 -0.134908 1.5826e-20)
(0.490988 -0.128056 -3.51147e-20)
(0.284869 -0.38113 -7.8011e-21)
(0.26181 -0.349024 3.73266e-21)
(0.244557 -0.321613 1.77469e-21)
(0.232087 -0.298354 -1.84328e-20)
(0.223777 -0.27861 -1.02397e-20)
(0.219146 -0.261793 8.09375e-21)
(0.217743 -0.247428 -2.37497e-20)
(0.219165 -0.235118 3.01024e-20)
(0.223051 -0.224531 -1.76397e-20)
(0.229086 -0.215391 2.20183e-21)
(0.236988 -0.207462 -3.34195e-21)
(0.246505 -0.200548 -1.18458e-20)
(0.257417 -0.194485 2.51322e-20)
(0.269527 -0.189134 1.02544e-20)
(0.282659 -0.18438 -1.05831e-20)
(0.296661 -0.180127 2.67195e-22)
(0.311394 -0.176293 6.53156e-21)
(0.32674 -0.172811 -1.48574e-20)
(0.342594 -0.169624 3.10646e-21)
(0.358866 -0.166683 1.10209e-20)
(0.375481 -0.163941 -4.64572e-21)
(0.392375 -0.16135 8.33778e-21)
(0.409498 -0.158853 -1.66457e-20)
(0.426808 -0.156374 2.48856e-20)
(0.444266 -0.153807 6.28385e-21)
(0.461813 -0.151011 -1.65362e-20)
(0.47936 -0.147793 -1.5051e-20)
(0.496912 -0.143787 -3.15397e-22)
(0.514639 -0.138354 2.1317e-20)
(0.531138 -0.131854 -6.26709e-21)
(0.295076 -0.373943 -2.21045e-21)
(0.272058 -0.343285 -1.72895e-20)
(0.255178 -0.317144 2.11808e-20)
(0.243332 -0.295007 1.51953e-20)
(0.235843 -0.276248 1.61981e-20)
(0.232187 -0.260286 5.00571e-21)
(0.231882 -0.246652 7.51138e-21)
(0.234495 -0.23496 4.06595e-21)
(0.239643 -0.224885 -1.68558e-20)
(0.246992 -0.216159 3.17567e-20)
(0.256243 -0.208553 -2.74381e-20)
(0.267131 -0.201878 -2.21645e-21)
(0.279425 -0.195978 4.08551e-21)
(0.292915 -0.190718 -2.0491e-20)
(0.307419 -0.185991 1.83218e-20)
(0.322774 -0.181705 -5.59447e-21)
(0.338833 -0.177788 -1.52598e-20)
(0.355471 -0.174179 6.32641e-21)
(0.372574 -0.170833 -1.21437e-20)
(0.390046 -0.167711 -1.12052e-20)
(0.407806 -0.164786 -1.25805e-20)
(0.425787 -0.162029 2.92889e-21)
(0.443937 -0.159414 1.96361e-21)
(0.462221 -0.156896 -3.36645e-20)
(0.480614 -0.154406 -1.34881e-20)
(0.49908 -0.151837 8.4677e-21)
(0.517564 -0.149018 1.11055e-20)
(0.536117 -0.145558 -1.56212e-20)
(0.554962 -0.140712 -6.21978e-21)
(0.572608 -0.134788 1.11538e-21)
(0.305158 -0.366544 -1.64124e-21)
(0.282344 -0.337421 1.11758e-20)
(0.265991 -0.312608 -3.23499e-21)
(0.254908 -0.291629 -4.06597e-21)
(0.248368 -0.273876 -2.53595e-20)
(0.245807 -0.258776 -6.10434e-21)
(0.24671 -0.245872 1.16556e-20)
(0.250616 -0.234787 -8.19721e-21)
(0.257122 -0.225207 -1.01663e-21)
(0.265872 -0.21687 -1.68479e-21)
(0.276555 -0.209558 1.049e-20)
(0.288891 -0.203088 -1.6917e-20)
(0.302638 -0.19731 -1.19454e-20)
(0.317577 -0.192097 1.46404e-20)
(0.333517 -0.187345 -8.75458e-21)
(0.350285 -0.182969 -1.11003e-20)
(0.367731 -0.1789 2.42417e-20)
(0.385717 -0.175084 -3.88014e-21)
(0.404125 -0.171481 1.56533e-20)
(0.422848 -0.168064 -1.44781e-20)
(0.441798 -0.164817 -1.23423e-20)
(0.460898 -0.161734 1.1008e-20)
(0.480091 -0.158814 -1.12409e-21)
(0.49934 -0.156056 -8.74793e-21)
(0.518627 -0.153442 7.93344e-21)
(0.537939 -0.15093 -2.55773e-20)
(0.557258 -0.148415 1.57024e-20)
(0.57671 -0.145535 -2.78071e-22)
(0.596629 -0.141458 -1.73185e-20)
(0.615458 -0.136396 2.82298e-20)
(0.315122 -0.358935 8.12606e-21)
(0.292689 -0.331429 -2.18624e-20)
(0.277017 -0.307991 -2.06272e-21)
(0.266838 -0.2882 1.15016e-20)
(0.261374 -0.271469 -3.1699e-21)
(0.260026 -0.257237 -9.4118e-21)
(0.262246 -0.245057 4.55372e-21)
(0.267546 -0.234566 5.61542e-21)
(0.275501 -0.225461 5.2511e-22)
(0.285739 -0.217489 7.5115e-21)
(0.29793 -0.210442 2.52596e-20)
(0.311787 -0.204145 -8.88512e-21)
(0.327053 -0.198454 2.62003e-21)
(0.343503 -0.193248 -6.9943e-21)
(0.360938 -0.188427 2.67376e-20)
(0.379179 -0.183911 -5.08472e-21)
(0.398069 -0.179634 1.73174e-20)
(0.417465 -0.175543 -7.05234e-21)
(0.43724 -0.171601 7.82345e-21)
(0.457282 -0.167783 1.22883e-20)
(0.477491 -0.16408 2.25626e-21)
(0.49778 -0.160497 8.86156e-21)
(0.518079 -0.157053 -7.60724e-21)
(0.53834 -0.153783 2.14722e-20)
(0.558537 -0.150729 -8.99969e-21)
(0.578663 -0.147941 3.39185e-20)
(0.598729 -0.145445 -9.84128e-21)
(0.618947 -0.143013 6.95968e-21)
(0.639865 -0.139801 -1.34214e-20)
(0.659953 -0.135887 2.68634e-20)
(0.325 -0.351124 -1.76052e-20)
(0.303121 -0.325295 6.07051e-22)
(0.288279 -0.30327 -1.24283e-20)
(0.279139 -0.284694 2.36234e-21)
(0.274878 -0.268998 7.10075e-22)
(0.274861 -0.255635 -1.26551e-20)
(0.278504 -0.244172 -2.4872e-20)
(0.285296 -0.23426 1.29319e-20)
(0.294789 -0.225608 -1.88843e-20)
(0.306593 -0.217977 -1.05927e-20)
(0.320364 -0.211167 -6.38194e-21)
(0.335804 -0.205013 -5.45729e-21)
(0.352648 -0.199378 2.92926e-22)
(0.370663 -0.194147 -2.04138e-20)
(0.389644 -0.189226 1.44694e-20)
(0.409409 -0.184535 -2.3966e-20)
(0.429795 -0.180011 -6.41207e-21)
(0.450658 -0.175601 7.12142e-21)
(0.471868 -0.171265 9.30307e-21)
(0.493308 -0.166975 9.72709e-21)
(0.514873 -0.162713 7.74701e-21)
(0.536466 -0.158481 -1.98155e-20)
(0.558005 -0.154298 2.06023e-20)
(0.579417 -0.150205 -2.17927e-21)