/*--------------------------------*- C++ -*----------------------------------*\
  =========                 |
  \\      /  F ield         | OpenFOAM: The Open Source CFD Toolbox
   \\    /   O peration     | Website:  https://openfoam.org
    \\  /    A nd           | Version:  6.0
     \\/     M anipulation  |
\*---------------------------------------------------------------------------*/
FoamFile
{
    version     2.0;
    format      ascii;
    class       surfaceScalarField;
    location    "14.5005";
    object      phi;
}
// * * * * * * * * * * * * * * * * * * * * * * * * * * * * * * * * * * * * * //

dimensions      [0 3 -1 0 0 0 0];

internalField   nonuniform List<scalar> 
38030
(
2.43671e-05
-0.0791344
0.07911
0.000136933
-0.0723458
0.0722333
0.000336613
-0.0668009
0.0666012
0.000620131
-0.0622714
0.0619879
0.000982827
-0.0585641
0.0582014
0.00141852
-0.0555173
0.0550816
0.0019202
-0.0529988
0.0524971
0.00248057
-0.0509019
0.0503415
0.00309235
-0.0491406
0.0485288
0.00374852
-0.047646
0.0469898
0.00444241
-0.0463628
0.0456689
0.00516783
-0.0452471
0.0445217
0.00591909
-0.0442637
0.0435125
0.00669098
-0.0433847
0.0426128
0.00747883
-0.0425877
0.0417998
0.00827843
-0.0418551
0.0410555
0.00908609
-0.0411729
0.0403652
0.00989853
-0.0405299
0.0397174
0.0107129
-0.0399173
0.0391029
0.0115268
-0.0393282
0.0385143
0.0123381
-0.038757
0.0379457
0.013145
-0.0381991
0.0373922
0.013946
-0.037651
0.0368499
0.01474
-0.0371095
0.0363155
0.0155258
-0.0365719
0.0357861
0.0163025
-0.0360358
0.0352591
0.0170694
-0.0354987
0.0347319
0.0178256
-0.0349582
0.034202
0.0185701
-0.0344114
0.0336668
-0.033855
0.0331231
0.019302
3.32733e-05
-0.0791677
0.000151995
-0.0724645
0.000359666
-0.0670085
0.000653401
-0.0625652
0.0010278
-0.0589385
0.00147602
-0.0559655
0.00199053
-0.0535133
0.00256357
-0.0514749
0.00318751
-0.0497646
0.00385506
-0.0483135
0.00455935
-0.0470671
0.005294
-0.0459818
0.0060532
-0.0450229
0.00683166
-0.0441631
0.00762465
-0.0433807
0.00842796
-0.0426584
0.00923787
-0.0419828
0.0100511
-0.0413431
0.010865
-0.0407311
0.011677
-0.0401402
0.0124851
-0.0395651
0.0132877
-0.0390017
0.0140834
-0.0384466
0.014871
-0.0378971
0.0156496
-0.0373505
0.0164185
-0.0368047
0.0171768
-0.0362571
0.0179241
-0.0357054
0.0186595
-0.0351468
-0.0345776
0.0193821
3.77751e-05
-0.0792055
0.000163759
-0.0725905
0.000380518
-0.0672253
0.000684926
-0.0628696
0.00107105
-0.0593247
0.00153154
-0.056426
0.00205837
-0.0540401
0.00264342
-0.05206
0.00327874
-0.0503999
0.00395676
-0.0489915
0.00467043
-0.0477808
0.00541321
-0.0467245
0.00617918
-0.0457889
0.00696299
-0.0449469
0.00775984
-0.0441775
0.00856553
-0.0434641
0.00937635
-0.0427936
0.0101891
-0.0421559
0.011001
-0.0415431
0.0118097
-0.040949
0.0126134
-0.0403688
0.0134104
-0.0397987
0.0141994
-0.0392356
0.0149794
-0.0386771
0.0157495
-0.0381207
0.0165093
-0.0375644
0.017258
-0.0370059
0.0179953
-0.0364427
0.0187204
-0.035872
-0.03529
0.0194329
4.11643e-05
-0.0792466
0.000174111
-0.0727235
0.000400008
-0.0674512
0.000715034
-0.0631846
0.00111266
-0.0597223
0.001585
-0.0568983
0.0021236
-0.0545787
0.00271996
-0.0526563
0.00336583
-0.0510457
0.0040534
-0.0496791
0.00477542
-0.0485028
0.00552522
-0.0474744
0.00629679
-0.0465604
0.00708469
-0.0457348
0.00788414
-0.044977
0.00869089
-0.0442708
0.00950128
-0.043604
0.0103121
-0.0429667
0.0111208
-0.0423517
0.011925
-0.0417531
0.0127228
-0.0411666
0.0135129
-0.0405887
0.0142939
-0.0400167
0.0150651
-0.0394482
0.0158257
-0.0388813
0.0165753
-0.0383139
0.0173133
-0.0377439
0.0180396
-0.0371689
0.0187536
-0.036586
-0.0359913
0.0194549
4.41258e-05
-0.0792908
0.000183698
-0.0728631
0.00041852
-0.067686
0.000743909
-0.06351
0.00115267
-0.060131
0.00163637
-0.057382
0.00218612
-0.0551285
0.00279304
-0.0532633
0.0034486
-0.0517013
0.00414476
-0.0503753
0.00487408
-0.0492321
0.00562979
-0.0482301
0.00640576
-0.0473364
0.00719654
-0.0465256
0.0079973
-0.0457777
0.00880383
-0.0450774
0.00961248
-0.0444126
0.0104202
-0.0437744
0.0112242
-0.0431558
0.0120226
-0.0425515
0.0128134
-0.0419574
0.0135953
-0.0413707
0.0143673
-0.0407887
0.0151285
-0.0402095
0.0158785
-0.0396313
0.0166168
-0.0390522
0.0173433
-0.0384703
0.0180576
-0.0378833
0.0187596
-0.037288
-0.0366807
0.019449
4.68675e-05
-0.0793376
0.000192781
-0.073009
0.000436241
-0.0679295
0.000771643
-0.0638454
0.0011911
-0.0605505
0.0016856
-0.0578765
0.00224582
-0.0556887
0.00286253
-0.05388
0.00352689
-0.0523657
0.00423066
-0.051079
0.00496623
-0.0499677
0.0057267
-0.0489905
0.0065059
-0.0481156
0.00729831
-0.047318
0.00809913
-0.0465786
0.00890416
-0.0458824
0.00970981
-0.0452183
0.010513
-0.0445776
0.0113113
-0.043954
0.0121025
-0.0433427
0.0128851
-0.04274
0.0136578
-0.0421433
0.0144196
-0.0415505
0.0151698
-0.0409598
0.0159082
-0.0403696
0.0166344
-0.0397784
0.0173483
-0.0391843
0.01805
-0.0385849
0.0187393
-0.0379773
-0.0373575
0.0194161
4.94744e-05
-0.0793871
0.000201477
-0.073161
0.000453258
-0.0681813
0.000798278
-0.0641904
0.00122792
-0.0609801
0.00173264
-0.0583812
0.00230262
-0.0562587
0.00292829
-0.0545056
0.00360055
-0.0530379
0.00431092
-0.0517894
0.00505167
-0.0507084
0.00581578
-0.0497546
0.00659701
-0.0488969
0.00738986
-0.0481109
0.0081895
-0.0473782
0.00899178
-0.0466847
0.00979317
-0.0460197
0.0105907
-0.0453752
0.011382
-0.0447453
0.012165
-0.0441257
0.0129382
-0.0435132
0.0137005
-0.0429056
0.0144511
-0.0423011
0.0151894
-0.0416981
0.0159153
-0.0410955
0.0166285
-0.0404917
0.0173292
-0.0398849
0.0180174
-0.0392731
0.0186934
-0.0386532
-0.0380212
0.019357
5.19791e-05
-0.0794391
0.000209841
-0.0733188
0.000469613
-0.068441
0.000823823
-0.0645446
0.00126313
-0.0614195
0.00177742
-0.0588955
0.00235643
-0.0568377
0.00299023
-0.0551395
0.00366945
-0.0537171
0.00438542
-0.0525054
0.00513026
-0.0514533
0.00589688
-0.0505213
0.00667898
-0.049679
0.00747105
-0.0489029
0.0082683
-0.0481754
0.00906662
-0.047483
0.00986256
-0.0468156
0.0106532
-0.0461658
0.0114363
-0.0455284
0.01221
-0.0448993
0.0129728
-0.0442761
0.0137237
-0.0436566
0.0144622
-0.0430395
0.0151877
-0.0424237
0.0159002
-0.041808
0.0165997
-0.0411912
0.0172865
-0.0405717
0.0179607
-0.0399474
0.0186228
-0.0393153
-0.0386712
0.0192728
5.43984e-05
-0.0794935
0.000217893
-0.0734823
0.00048532
-0.0687085
0.000848274
-0.0649076
0.0012967
-0.0618679
0.00181989
-0.0594187
0.00240717
-0.057425
0.00304825
-0.0557805
0.00373349
-0.0544024
0.00445405
-0.0532259
0.0052019
-0.0522011
0.0059699
-0.0512893
0.00675171
-0.0504608
0.00754183
-0.0496931
0.0083355
-0.0489691
0.00912868
-0.0482762
0.009918
-0.0476049
0.0107007
-0.0469485
0.0114745
-0.0463022
0.0122378
-0.0456626
0.0129891
-0.0450274
0.0137278
-0.0443952
0.0144532
-0.0437649
0.0151651
-0.0431356
0.0158636
-0.0425064
0.0165487
-0.0418763
0.017221
-0.0412439
0.0178807
-0.0406071
0.0185284
-0.039963
-0.0393072
0.0191644
5.67357e-05
-0.0795502
0.000225644
-0.0736512
0.000500377
-0.0689832
0.000871617
-0.0652788
0.00132859
-0.0623249
0.00186002
-0.0599501
0.00245478
-0.0580197
0.00310227
-0.056428
0.00379259
-0.0550927
0.00451671
-0.0539501
0.00526651
-0.0529509
0.00603477
-0.0520575
0.00681515
-0.0512411
0.00760215
-0.0504801
0.00839109
-0.049758
0.00917799
-0.0490631
0.00995958
-0.0483865
0.0107332
-0.0477221
0.0114967
-0.0470657
0.0122486
-0.0464144
0.0129876
-0.0457665
0.0137131
-0.0451207
0.0144247
-0.0444765
0.0151222
-0.0438331
0.0158059
-0.0431901
0.0164761
-0.0425466
0.0171333
-0.0419011
0.0177781
-0.0412519
0.0184111
-0.0405959
-0.0399289
0.0190328
5.89929e-05
-0.0796092
0.00023309
-0.0738253
0.000514779
-0.0692649
0.000893836
-0.0656579
0.00135877
-0.0627898
0.00189775
-0.0604891
0.00249922
-0.0586212
0.00315224
-0.057081
0.00384668
-0.0557871
0.00457336
-0.0546767
0.00532403
-0.0537016
0.00609145
-0.0528249
0.00686928
-0.052019
0.00765205
-0.0512628
0.00843513
-0.0505411
0.00921466
-0.0498426
0.00998744
-0.0491593
0.0107509
-0.0484856
0.0115032
-0.047818
0.0122427
-0.047154
0.0129686
-0.0464923
0.0136801
-0.0458323
0.0143771
-0.0451735
0.0150596
-0.0445157
0.015728
-0.0438585
0.0163827
-0.0432013
0.0170244
-0.0425428
0.0176539
-0.0418814
0.0182718
-0.0412138
-0.0405361
0.0188789
6.11699e-05
-0.0796704
0.000240227
-0.0740044
0.000528517
-0.0695532
0.000914913
-0.0660443
0.00138722
-0.0632621
0.00193306
-0.061035
0.00254045
-0.0592286
0.00319812
-0.0577387
0.00389574
-0.0564848
0.00462395
-0.055405
0.00537446
-0.0544521
0.00613996
-0.0535904
0.00691413
-0.0527931
0.00769157
-0.0520403
0.00846773
-0.0513173
0.00923882
-0.0506137
0.0100018
-0.0499223
0.0107542
-0.0492381
0.0114942
-0.048558
0.0122206
-0.0478803
0.0129324
-0.0472041
0.0136292
-0.0465291
0.0143109
-0.0458552
0.0149778
-0.0451825
0.0156303
-0.044511
0.0162691
-0.04384
0.0168949
-0.0431687
0.0175087
-0.0424952
0.0181114
-0.0418165
-0.0411285
0.0187038
6.3263e-05
-0.0797336
0.000247053
-0.0741882
0.00054158
-0.0698477
0.000934837
-0.0664375
0.00141393
-0.0637412
0.00196593
-0.061587
0.00257844
-0.0598411
0.0032399
-0.0584002
0.00393974
-0.0571846
0.0046685
-0.0561337
0.00541779
-0.0552014
0.00618031
-0.054353
0.00694977
-0.0535626
0.00772083
-0.0528113
0.00848901
-0.0520855
0.00925065
-0.0513754
0.0100028
-0.0506744
0.0107432
-0.0499785
0.0114702
-0.049285
0.0121825
-0.0485927
0.0128796
-0.0479011
0.013561
-0.0472105
0.0142268
-0.0465211
0.0148775
-0.0458332
0.0155136
-0.0451471
0.016136
-0.0444624
0.0167456
-0.0437783
0.0173435
-0.043093
0.0179307
-0.0424037
-0.041706
0.0185082
6.52708e-05
-0.0797989
0.000253558
-0.0743765
0.000553962
-0.0701481
0.000953598
-0.0668372
0.00143888
-0.0642265
0.00199635
-0.0621444
0.0026132
-0.060458
0.00327756
-0.0590645
0.0039787
-0.0578857
0.00470702
-0.056862
0.00545408
-0.0559485
0.0062126
-0.0551115
0.00697631
-0.0543263
0.00773995
-0.053575
0.00849916
-0.0528447
0.0092504
-0.0521266
0.00999086
-0.0514149
0.0107184
-0.050706
0.0114315
-0.049998
0.012129
-0.0492902
0.0128106
-0.0485827
0.0134759
-0.0478758
0.0141253
-0.0471704
0.0147592
-0.0464672
0.0153785
-0.0457664
0.0159842
-0.0450681
0.0165772
-0.0443714
0.0171589
-0.0436747
0.0177305
-0.0429753
-0.0422685
0.018293
6.71898e-05
-0.0798661
0.00025974
-0.074569
0.000565657
-0.070454
0.000971193
-0.0672427
0.00146208
-0.0647173
0.00202432
-0.0627067
0.00264472
-0.0610784
0.00331114
-0.0597309
0.00401264
-0.0585872
0.00473955
-0.0575889
0.0054834
-0.0566923
0.0062369
-0.055865
0.00699387
-0.0550833
0.00774913
-0.0543302
0.00849842
-0.053594
0.00923834
-0.0528665
0.00996622
-0.0521428
0.0106801
-0.0514198
0.0113785
-0.0506964
0.0120606
-0.0499723
0.012726
-0.049248
0.0133747
-0.0485245
0.014007
-0.0478028
0.0146237
-0.0470839
0.0152258
-0.0463684
0.0158142
-0.0456565
0.0163905
-0.0449476
0.0169558
-0.04424
0.0175115
-0.043531
-0.042816
0.018059
6.90179e-05
-0.0799351
0.000265595
-0.0747656
0.000576667
-0.0707651
0.00098763
-0.0676537
0.00148353
-0.0652132
0.00204986
-0.063273
0.00267303
-0.0617015
0.00334065
-0.0603986
0.00404162
-0.0592882
0.00476618
-0.0583135
0.00550585
-0.057432
0.00625337
-0.0566125
0.00700264
-0.0558325
0.00774857
-0.0550762
0.00848705
-0.0543325
0.0092148
-0.0535943
0.00992929
-0.0528573
0.0106287
-0.0521192
0.0113117
-0.0513795
0.0119777
-0.0506383
0.0126263
-0.0498967
0.0132578
-0.049156
0.0138726
-0.0484176
0.0144717
-0.0476829
0.015056
-0.0469528
0.015627
-0.0462275
0.016186
-0.0455066
0.0167346
-0.0447887
0.0172744
-0.0440708
-0.0433483
0.0178067
7.07514e-05
-0.0800059
0.000271121
-0.074966
0.000586997
-0.071081
0.00100292
-0.0680696
0.00150327
-0.0657136
0.00207301
-0.0638428
0.00269819
-0.0623267
0.00336617
-0.0610665
0.00406572
-0.0599878
0.004787
-0.0590348
0.00552156
-0.0581665
0.00626217
-0.0573531
0.00700282
-0.0565732
0.00773855
-0.0558119
0.00846536
-0.0550593
0.00918013
-0.054309
0.00988047
-0.0535576
0.0105647
-0.0528035
0.0112317
-0.0520465
0.011881
-0.0512875
0.0125123
-0.050528
0.013126
-0.0497697
0.0137228
-0.0490144
0.0143037
-0.0482638
0.01487
-0.047519
0.015423
-0.0467806
0.0159645
-0.0460482
0.0164962
-0.0453204
0.0170198
-0.0445943
-0.0438653
0.0175368
7.23873e-05
-0.0800783
0.000276321
-0.0751699
0.000596662
-0.0714013
0.0010171
-0.06849
0.00152132
-0.0662178
0.0020938
-0.0644152
0.00272023
-0.0629531
0.00338775
-0.0617341
0.00408501
-0.060685
0.00480214
-0.0597519
0.00553068
-0.0588951
0.00626349
-0.0580859
0.00699466
-0.0573044
0.00771935
-0.0565366
0.00843371
-0.0557736
0.00913474
-0.0550101
0.00982025
-0.0542431
0.0104887
-0.0534719
0.0111391
-0.0526969
0.011771
-0.0519195
0.0123845
-0.0511415
0.01298
-0.0503652
0.0135584
-0.0495928
0.0141206
-0.0488261
0.0146683
-0.0480667
0.015203
-0.0473153
0.0157267
-0.0465718
0.0162411
-0.0458348
0.0167482
-0.0451014
-0.0443669
0.0172497
7.39239e-05
-0.0801522
0.000281203
-0.0753772
0.000605687
-0.0717258
0.0010302
-0.0689145
0.00153775
-0.0667254
0.00211231
-0.0649898
0.00273925
-0.0635801
0.00340551
-0.0624003
0.00409962
-0.0613791
0.00481172
-0.060464
0.00553339
-0.0596167
0.00625756
-0.0588101
0.00697843
-0.0580252
0.0076913
-0.0572495
0.00839247
-0.0564748
0.0090791
-0.0556967
0.00974913
-0.0549131
0.0104012
-0.054124
0.0110344
-0.0533302
0.0116486
-0.0525336
0.0122438
-0.0517367
0.0128206
-0.0509421
0.01338
-0.0501522
0.0139232
-0.0493693
0.0144519
-0.0485953
0.0149678
-0.0478312
0.015473
-0.047077
0.0159697
-0.0463315
0.01646
-0.0455917
-0.0448526
0.0169458
7.5357e-05
-0.0802275
0.00028578
-0.0755876
0.00061411
-0.0720541
0.00104229
-0.0693427
0.00155263
-0.0672357
0.00212862
-0.0655658
0.00275533
-0.0642068
0.00341952
-0.0630645
0.00410968
-0.0620693
0.00481592
-0.0611702
0.00552989
-0.0603307
0.00624462
-0.0595248
0.00695443
-0.058735
0.00765476
-0.0579498
0.00834207
-0.0571621
0.00901368
-0.0563683
0.00966768
-0.0555671
0.0103028
-0.0547591
0.0109185
-0.0539458
0.0115144
-0.0531296
0.0120909
-0.0523132
0.0126487
-0.0514998
0.0131887
-0.0506922
0.0137124
-0.049893
0.0142215
-0.0491044
0.0147181
-0.0483278
0.0152043
-0.0475633
0.0156827
-0.0468099
0.0161557
-0.0460646
-0.0453222
0.0166252
7.66859e-05
-0.0803042
0.000290079
-0.075801
0.000621991
-0.072386
0.00105343
-0.0697742
0.00156603
-0.0677483
0.00214281
-0.0661426
0.00276856
-0.0648325
0.00342992
-0.0637259
0.00411532
-0.0627547
0.0048149
-0.0618698
0.00552039
-0.0610362
0.00622494
-0.0602294
0.00692298
-0.0594331
0.00761012
-0.0586369
0.00828297
-0.0578349
0.00893901
-0.0570243
0.0095765
-0.0562046
0.0101943
-0.0553769
0.010792
-0.0545434
0.0113693
-0.0537069
0.0119268
-0.0528707
0.0124651
-0.0520381
0.0129854
-0.0512124
0.0134891
-0.0503967
0.0139782
-0.0495935
0.0144548
-0.0488043
0.0149214
-0.0480299
0.0153807
-0.0472693
0.0158356
-0.0465194
-0.0457749
0.0162882
7.79136e-05
-0.0803821
0.000294147
-0.0760172
0.000629419
-0.0727213
0.00106375
-0.0702085
0.00157808
-0.0682626
0.00215499
-0.0667195
0.00277906
-0.0654566
0.00343681
-0.0643836
0.00411668
-0.0634346
0.00480885
-0.062562
0.00550513
-0.0617325
0.00619879
-0.060923
0.00688442
-0.0601187
0.00755778
-0.0593103
0.00821564
-0.0584928
0.00885566
-0.0576644
0.00947623
-0.0568252
0.0100764
-0.0559771
0.0106557
-0.0551228
0.0112143
-0.0542655
0.0117525
-0.0534089
0.0122711
-0.0525567
0.0127713
-0.0517127
0.0132547
-0.0508801
0.0137231
-0.0500619
0.014179
-0.0492602
0.0146251
-0.048476
0.0150645
-0.0477086
0.0155002
-0.0469551
-0.0462097
0.0159351
7.90571e-05
-0.0804612
0.000298066
-0.0762362
0.000636523
-0.0730598
0.00107338
-0.0706454
0.00158889
-0.0687781
0.00216528
-0.0672959
0.00278694
-0.0660783
0.00344034
-0.065037
0.00411393
-0.0641082
0.00479795
-0.063246
0.00548432
-0.0624188
0.00616646
-0.0616052
0.00683909
-0.0607914
0.00749815
-0.0599694
0.00814058
-0.0591352
0.00876419
-0.058288
0.00936754
-0.0574286
0.00994981
-0.0565594
0.0105107
-0.0556836
0.0110502
-0.0548051
0.011569
-0.0539277
0.0120678
-0.0530555
0.0125478
-0.0521926
0.0130105
-0.0513428
0.0134578
-0.0505093
0.0138923
-0.0496948
0.014317
-0.0489007
0.0147351
-0.0481268
0.0151504
-0.0473705
-0.0466255
0.0155662
8.01593e-05
-0.0805413
0.00030198
-0.0764581
0.000643492
-0.0734013
0.00108249
-0.0710844
0.00159861
-0.0692942
0.00217379
-0.0678711
0.00279231
-0.0666968
0.00344061
-0.0656853
0.00410719
-0.0647747
0.00478238
-0.0639212
0.00545821
-0.0630947
0.00612822
-0.0622752
0.00678734
-0.0614505
0.00743165
-0.0606137
0.00805828
-0.0597619
0.00866519
-0.0588949
0.00925111
-0.0580145
0.00981534
-0.0571236
0.0103577
-0.056226
0.0108783
-0.0553257
0.0113777
-0.0544271
0.0118567
-0.0535345
0.0123164
-0.0526523
0.0127582
-0.0517847
0.0131842
-0.0509352
0.0135966
-0.0501072
0.0139987
-0.0493027
0.0143941
-0.0485223
0.0147873
-0.0477636
-0.0470204
0.0151822
8.13364e-05
-0.0806227
0.000306142
-0.0766829
0.000650598
-0.0737457
0.00109131
-0.0715251
0.0016074
-0.0698103
0.00218065
-0.0684443
0.00279527
-0.0673114
0.00343775
-0.0663278
0.00409662
-0.0654336
0.00476231
-0.0645869
0.00542699
-0.0637593
0.00608436
-0.0629326
0.0067295
-0.0620956
0.00735869
-0.0612429
0.00796921
-0.0603724
0.00855923
-0.0594849
0.00912761
-0.0585829
0.00967379
-0.0576698
0.0101977
-0.0567498
0.0106995
-0.0558275
0.0111797
-0.0549073
0.0116392
-0.053994
0.0120789
-0.0530921
0.0125001
-0.0522059
0.0129045
-0.0513396
0.0132944
-0.0504971
0.0136729
-0.0496812
0.014044
-0.0488934
0.0144128
-0.0481325
-0.0473919
0.0147844
8.2845e-05
-0.0807055
0.00031097
-0.076911
0.000658208
-0.074093
0.00110008
-0.0719669
0.00161541
-0.0703257
0.00218594
-0.0690148
0.00279591
-0.0679214
0.00343183
-0.0669637
0.00408232
-0.0660841
0.0047379
-0.0652425
0.00539088
-0.0644123
0.00603512
-0.0635768
0.00666587
-0.0627264
0.00727962
-0.0618566
0.00787382
-0.0609666
0.00844683
-0.0600579
0.00899767
-0.0591337
0.0095259
-0.058198
0.0100315
-0.0572555
0.0105149
-0.0563108
0.0109765
-0.0553689
0.011417
-0.0544346
0.0118374
-0.0535124
0.0122385
-0.052607
0.0126218
-0.0517229
0.0129892
-0.0508644
0.0133434
-0.0500353
0.0136885
-0.0492386
0.0140303
-0.0484743
-0.0477369
0.0143753
8.51846e-05
-0.0807907
0.000317095
-0.0771429
0.000666769
-0.0744426
0.00110903
-0.0724092
0.00162274
-0.0708394
0.00218972
-0.0695818
0.00279427
-0.0685259
0.00342293
-0.0675924
0.00406439
-0.0667256
0.00470928
-0.0658874
0.00535004
-0.0650531
0.00598071
-0.0642075
0.00659673
-0.0633424
0.00719477
-0.0624546
0.00777251
-0.0615443
0.00832846
-0.0606139
0.00886182
-0.0596671
0.00937233
-0.0587085
0.00986008
-0.0577432
0.0103255
-0.0567762
0.0107691
-0.0558125
0.0111916
-0.054857
0.0115937
-0.0539145
0.0119761
-0.0529894
0.0123396
-0.0520865
0.0126854
-0.0512103
0.0130156
-0.0503655
0.0133336
-0.0495566
0.0136456
-0.0487863
-0.0480515
0.0139603
8.92843e-05
-0.08088
0.000325488
-0.0773791
0.000676843
-0.074794
0.00111841
-0.0728508
0.00162946
-0.0713504
0.002192
-0.0701443
0.00279035
-0.0691243
0.00341107
-0.0682131
0.00404289
-0.0673574
0.00467654
-0.066521
0.00530461
-0.0656811
0.00592131
-0.0648242
0.00652229
-0.0639434
0.00710442
-0.0630368
0.00766557
-0.0621055
0.00820448
-0.0611528
0.00872051
-0.0601831
0.00921357
-0.0592016
0.00968391
-0.0582136
0.010132
-0.0572243
0.0105586
-0.0562391
0.0109643
-0.0552627
0.0113496
-0.0542998
0.0117152
-0.053355
0.0120612
-0.0524325
0.0123881
-0.0515371
0.0126964
-0.0506738
0.0129879
-0.049848
0.0132675
-0.049066
-0.0483314
0.0135473
9.75939e-05
-0.0809776
0.000338146
-0.0776197
0.000689246
-0.0751451
0.00112837
-0.0732899
0.00163551
-0.0718576
0.00219268
-0.0707015
0.00278409
-0.0697157
0.00339623
-0.0688253
0.00401784
-0.067979
0.00463975
-0.0671429
0.00525469
-0.0662961
0.00585706
-0.0654265
0.00644272
-0.064529
0.00700875
-0.0636028
0.00755324
-0.06265
0.00807514
-0.0616747
0.00857401
-0.060682
0.00904993
-0.0596775
0.00950335
-0.058667
0.00993492
-0.0576559
0.0103454
-0.0566496
0.0107357
-0.055653
0.0111063
-0.0546705
0.0114578
-0.0537064
0.0117902
-0.0527649
0.0121029
-0.0518498
0.0123947
-0.0509656
0.0126636
-0.0501169
0.0129101
-0.0493125
-0.0485731
0.0131519
0.000117893
-0.0810955
0.000358042
-0.0778598
0.000704261
-0.0754913
0.00113851
-0.0737241
0.00164047
-0.0723595
0.00219147
-0.0712525
0.00277531
-0.0702995
0.00337831
-0.0694283
0.00398921
-0.0685899
0.00459893
-0.0677527
0.00520034
-0.0668975
0.00578805
-0.0660143
0.00635813
-0.0650991
0.00690789
-0.0641525
0.00743565
-0.0631777
0.00794056
-0.0621796
0.0084224
-0.0611638
0.00888145
-0.0601366
0.00931836
-0.0591039
0.00973401
-0.0580716
0.0101294
-0.057045
0.0105056
-0.0560292
0.0108638
-0.0550286
0.0112046
-0.0540473
0.0115289
-0.0530891
0.0118364
-0.0521574
0.0121257
-0.0512549
0.01239
-0.0503813
0.0126154
-0.0495378
-0.0487569
0.0127992
0.0834706
8.73493e-05
-0.0835579
0.0833935
7.70598e-05
0.0833196
7.39737e-05
0.0832461
7.34613e-05
0.0831721
7.40413e-05
0.0830969
7.51381e-05
0.0830205
7.64344e-05
0.0829427
7.77658e-05
0.0828637
7.90527e-05
0.0827834
8.02643e-05
0.082702
8.13866e-05
0.0826196
8.24143e-05
0.0825363
8.33478e-05
0.0824521
8.41865e-05
0.0823671
8.49317e-05
0.0822816
8.55827e-05
0.0821954
8.61406e-05
0.0821088
8.66047e-05
0.0820218
8.69724e-05
0.0819346
8.72432e-05
0.0818472
8.74127e-05
0.0817597
8.7475e-05
0.0816723
8.7417e-05
0.0815851
8.72209e-05
0.0814982
8.68479e-05
0.081412
8.62247e-05
0.0813268
8.51912e-05
0.0812434
8.3375e-05
0.0811638
7.96062e-05
6.8341e-05
0.083846
0.000247792
-0.0840064
0.0836794
0.000243628
0.0835096
0.00024375
0.0833367
0.000246394
0.0831604
0.000250363
0.0829804
0.000255073
0.0827967
0.000260138
0.0826092
0.000265294
0.0824179
0.000270379
0.0822228
0.000275296
0.0820242
0.000279989
0.0818222
0.000284424
0.081617
0.000288578
0.0814087
0.000292441
0.0811977
0.000296001
0.080984
0.000299253
0.080768
0.000302192
0.0805498
0.000304812
0.0803296
0.000307106
0.0801078
0.000309068
0.0798845
0.000310684
0.0796601
0.000311939
0.0794347
0.000312805
0.0792087
0.000313238
0.0789823
0.000313165
0.0787561
0.000312456
0.0785304
0.000310868
0.0783059
0.000307921
0.078083
0.000302516
0.000291512
0.0840749
0.000451304
-0.0842785
0.0838596
0.000459006
0.0836351
0.000468165
0.0834029
0.000478611
0.0831634
0.000489845
0.082917
0.000501531
0.0826637
0.000513403
0.0824038
0.000525233
0.0821373
0.000536851
0.0818645
0.000548134
0.0815855
0.000558995
0.0813005
0.000569373
0.0810099
0.000579225
0.0807138
0.00058852
0.0804126
0.000597233
0.0801065
0.000605347
0.0797958
0.000612844
0.0794809
0.000619712
0.0791621
0.000625936
0.0788397
0.000631499
0.078514
0.000636381
0.0781853
0.000640556
0.0778542
0.000643985
0.0775208
0.00064661
0.0771856
0.000648347
0.076849
0.000649057
0.0765114
0.000648519
0.0761729
0.000646364
0.0758335
0.00064191
0.000633712
0.0840667
0.000674783
-0.0842902
0.0838292
0.000696508
0.0835791
0.000718233
0.0833175
0.00074017
0.0830452
0.000762204
0.0827625
0.00078419
0.08247
0.000805978
0.0821678
0.000827418
0.0818563
0.000848369
0.0815357
0.000868718
0.0812063
0.000888373
0.0808684
0.00090726
0.0805223
0.000925322
0.0801683
0.000942512
0.0798068
0.000958794
0.079438
0.000974134
0.0790623
0.000988506
0.0786801
0.00100188
0.0782918
0.00101425
0.0778978
0.00102556
0.0774983
0.00103581
0.0770939
0.00104495
0.076685
0.00105294
0.0762719
0.00105971
0.075855
0.00106519
0.0754348
0.00106925
0.0750116
0.00107173
0.0745856
0.00107237
0.0741567
0.00107079
0.00106631
0.083785
0.000899573
-0.0840098
0.0835446
0.000936924
0.0832892
0.000973559
0.0830197
0.00100969
0.0827366
0.00104532
0.0824404
0.00108041
0.0821315
0.00111485
0.0818103
0.00114857
0.0814773
0.00118145
0.0811326
0.0012134
0.0807766
0.00124433
0.0804097
0.00127416
0.0800322
0.00130283
0.0796444
0.00133029
0.0792468
0.00135648
0.0788395
0.00138136
0.0784231
0.0014049
0.077998
0.00142705
0.0775644
0.00144778
0.0771229
0.00146706
0.0766739
0.00148485
0.0762177
0.00150111
0.0757549
0.00151579
0.0752858
0.00152882
0.0748108
0.00154014
0.0743304
0.00154965
0.0738449
0.00155721
0.0733546
0.00156268
0.0728596
0.00156584
0.00156637
0.0832268
0.00111231
-0.0834395
0.082997
0.00116666
0.0827506
0.00121992
0.0824881
0.00127221
0.0822099
0.00132355
0.0819164
0.00137391
0.081608
0.00142324
0.0812851
0.00147147
0.0809481
0.0015185
0.0805972
0.00156424
0.0802329
0.00160863
0.0798555
0.00165159
0.0794653
0.00169304
0.0790627
0.00173291
0.078648
0.00177116
0.0782216
0.00180773
0.0777839
0.00184257
0.0773354
0.00187562
0.0768763
0.00190686
0.0764071
0.00193622
0.0759283
0.00196368
0.0754402
0.00198917
0.0749434
0.00201264
0.0744382
0.00203405
0.073925
0.00205331
0.0734043
0.00207035
0.0728764
0.00208508
0.0723417
0.00209739
0.0718004
0.00210717
0.00211426
0.0824113
0.00130421
-0.0826032
0.0822013
0.00137666
0.0819734
0.00144779
0.081728
0.00151765
0.0814653
0.00158624
0.0811857
0.00165351
0.0808895
0.00171942
0.0805771
0.00178389
0.0802487
0.00184685
0.0799048
0.0019082
0.0795455
0.00196787
0.0791714
0.00202578
0.0787825
0.00208185
0.0783795
0.00213601
0.0779624
0.00218819
0.0775318
0.00223833
0.077088
0.00228636
0.0766314
0.00233224
0.0761624
0.0023759
0.0756813
0.0024173
0.0751886
0.00245637
0.0746847
0.00249306
0.0741701
0.00252731
0.073645
0.00255907
0.0731101
0.00258826
0.0725656
0.00261483
0.072012
0.0026387
0.0714495
0.00265981
0.0708786
0.00267807
0.00269339
0.0813709
0.0014701
-0.0815368
0.0811861
0.00156144
0.0809826
0.00165132
0.0807605
0.00173972
0.0805201
0.00182661
0.0802617
0.00191195
0.0799854
0.00199567
0.0796917
0.00207768
0.0793806
0.0021579
0.0790526
0.00223624
0.0787078
0.00231261
0.0783467
0.00238693
0.0779694
0.00245911
0.0775763
0.00252907
0.0771678
0.00259673
0.0767441
0.00266203
0.0763056
0.00272487
0.0758526
0.00278521
0.0753856
0.00284297
0.0749048
0.00289808
0.0744107
0.00295049
0.0739036
0.00300012
0.073384
0.00304692
0.0728522
0.00309083
0.0723087
0.00313178
0.0717538
0.0031697
0.071188
0.00320454
0.0706116
0.00323624
0.0700249
0.00326475
0.00328999
0.0801438
0.00160759
-0.0802813
0.079987
0.00171829
0.0798108
0.00182744
0.0796156
0.00193499
0.0794013
0.00204088
0.0791682
0.00214504
0.0789165
0.00224738
0.0786463
0.00234781
0.078358
0.00244624
0.0780517
0.00254256
0.0777276
0.00263667
0.0773861
0.00272849
0.0770273
0.00281791
0.0766515
0.00290484
0.076259
0.0029892
0.0758502
0.0030709
0.0754252
0.00314985
0.0749844
0.00322598
0.0745282
0.0032992
0.0740568
0.00336944
0.0735707
0.00343664
0.0730701
0.0035007
0.0725554
0.00356158
0.0720271
0.00361918
0.0714854
0.00367346
0.0709308
0.00372435
0.0703635
0.00377178
0.0697841
0.00381571
0.0691927
0.00385609
0.00389283
0.0787699
0.0017163
-0.0788786
0.0786416
0.00184657
0.0784938
0.00197525
0.0783266
0.00210225
0.0781399
0.0022275
0.0779341
0.00235089
0.0777091
0.00247234
0.0774652
0.00259172
0.0772025
0.00270894
0.0769212
0.00282388
0.0766215
0.00293642
0.0763035
0.00304648
0.0759674
0.00315393
0.0756136
0.00325867
0.0752422
0.00336061
0.0748535
0.00345964
0.0744476
0.00355567
0.074025
0.00364861
0.0735858
0.00373837
0.0731304
0.00382486
0.072659
0.003908
0.072172
0.0039877
0.0716697
0.00406389
0.0711524
0.00413649
0.0706205
0.00420542
0.0700742
0.00427063
0.0695139
0.00433204
0.06894
0.00438961
0.0683528
0.00444329
0.00449298
0.0772873
0.00179729
-0.0773683
0.0771868
0.00194711
0.0770667
0.00209532
0.0769271
0.00224184
0.0767681
0.00238654
0.0765896
0.00252932
0.0763919
0.00267006
0.076175
0.00280865
0.075939
0.00294495
0.075684
0.00307884
0.0754102
0.00321021
0.0751178
0.00333894
0.0748068
0.0034649
0.0744775
0.00358799
0.07413
0.00370808
0.0737646
0.00382508
0.0733814
0.00393886
0.0729807
0.00404934
0.0725626
0.00415641
0.0721275
0.00425997
0.0716756
0.00435992
0.0712071
0.00445618
0.0707224
0.00454865
0.0702216
0.00463725
0.0697051
0.00472191
0.0691732
0.00480253
0.0686262
0.00487907
0.0680644
0.00495145
0.067488
0.00501963
0.0050835
0.0757309
0.00185259
-0.0757862
0.0756563
0.00202175
0.0755623
0.00218933
0.0754489
0.0023552
0.0753162
0.00251925
0.0751642
0.00268135
0.0749929
0.00284136
0.0748024
0.00299915
0.0745928
0.00315458
0.0743641
0.00330752
0.0741164
0.00345784
0.07385
0.00360542
0.0735648
0.00375011
0.0732609
0.0038918
0.0729387
0.00403036
0.0725981
0.00416568
0.0722393
0.00429762
0.0718626
0.00442609
0.071468
0.00455096
0.0710558
0.00467214
0.0706262
0.00478951
0.0701795
0.00490297
0.0697157
0.00501242
0.0692352
0.00511777
0.0687381
0.00521894
0.0682248
0.00531583
0.0676955
0.00540837
0.0671505
0.0054965
0.06659
0.00558015
0.00565922
0.0741313
0.00188478
-0.0741635
0.0740801
0.00207295
0.0740099
0.00225958
0.0739205
0.00244453
0.0738121
0.00262766
0.0736847
0.00280882
0.0735381
0.00298789
0.0733726
0.0031647
0.073188
0.00333912
0.0729846
0.00351099
0.0727622
0.00368019
0.0725211
0.00384657
0.0722612
0.00400999
0.0719827
0.00417032
0.0716856
0.00432743
0.0713701
0.00448118
0.0710363
0.00463145
0.0706842
0.00477811
0.0703141
0.00492105
0.0699261
0.00506014
0.0695204
0.00519527
0.069097
0.00532633
0.0686562
0.00545321
0.0681982
0.00557581
0.0677231
0.00569403
0.0672312
0.00580777
0.0667226
0.00591696
0.0661976
0.00602151
0.0656563
0.00612137
0.00621643
0.0725144
0.00189676
-0.0725264
0.0724838
0.00210352
0.0724346
0.00230878
0.0723667
0.0025124
0.0722802
0.00271422
0.0721749
0.00291409
0.0720509
0.00311187
0.0719082
0.00330738
0.0717469
0.00350049
0.0715668
0.00369103
0.0713682
0.00387886
0.0711509
0.00406383
0.0709151
0.0042458
0.0706608
0.00442462
0.0703881
0.00460015
0.070097
0.00477226
0.0697876
0.00494081
0.0694601
0.00510567
0.0691144
0.00526671
0.0687508
0.0054238
0.0683692
0.00557682
0.0679699
0.00572566
0.0675529
0.00587018
0.0671184
0.00601029
0.0666666
0.00614587
0.0661975
0.00627682
0.0657114
0.00640306
0.0652085
0.00652449
0.0646888
0.00664106
0.00675266
0.0709014
0.00189152
-0.0708962
0.0708886
0.00211638
0.0708576
0.00233979
0.0708084
0.0025616
0.0707409
0.00278165
0.0706552
0.00299978
0.0705513
0.00321583
0.070429
0.00342962
0.0702885
0.003641
0.0701298
0.00384981
0.0699527
0.00405591
0.0697574
0.00425912
0.0695439
0.00445931
0.0693122
0.00465633
0.0690623
0.00485002
0.0687943
0.00504025
0.0685083
0.00522687
0.0682042
0.00540975
0.0678822
0.00558875
0.0675422
0.00576374
0.0671845
0.00593459
0.0668089
0.00610117
0.0664158
0.00626337
0.066005
0.00642104
0.0655768
0.00657409
0.0651312
0.00672241
0.0646684
0.00686588
0.0641884
0.00700443
0.0636915
0.00713798
0.00726645
0.0693095
0.00187199
-0.06929
0.0693114
0.00211442
0.0692958
0.00235547
0.0692624
0.00259496
0.0692113
0.00283273
0.0691425
0.0030686
0.0690559
0.0033024
0.0689516
0.00353398
0.0688294
0.00376315
0.0686895
0.00398976