/*--------------------------------*- C++ -*----------------------------------*\
  =========                 |
  \\      /  F ield         | OpenFOAM: The Open Source CFD Toolbox
   \\    /   O peration     | Website:  https://openfoam.org
    \\  /    A nd           | Version:  6.0
     \\/     M anipulation  |
\*---------------------------------------------------------------------------*/
FoamFile
{
    version     2.0;
    format      ascii;
    class       volVectorField;
    location    "14.5005";
    object      U;
}
// * * * * * * * * * * * * * * * * * * * * * * * * * * * * * * * * * * * * * //

dimensions      [0 1 -1 0 0 0 0];

internalField   nonuniform List<vector> 
19200
(
(0.0985368 -4.74682 -6.58591e-21)
(0.0607965 -4.33726 3.32515e-21)
(0.0667577 -4.00176 1.54484e-21)
(0.081624 -3.7272 1.36446e-21)
(0.0992226 -3.50209 1.5283e-21)
(0.12102 -3.31677 1.11038e-22)
(0.146425 -3.16332 2.17739e-21)
(0.174512 -3.03537 -1.45183e-22)
(0.20458 -2.92775 1.92353e-21)
(0.236038 -2.83633 8.13639e-22)
(0.268368 -2.75779 1.19486e-23)
(0.301129 -2.68948 1.29584e-21)
(0.333951 -2.62928 2.13008e-21)
(0.366529 -2.57551 -1.44845e-21)
(0.398612 -2.5268 1.88414e-21)
(0.430001 -2.4821 1.63632e-21)
(0.460538 -2.44054 -1.53521e-21)
(0.490103 -2.40144 2.64564e-21)
(0.518607 -2.36427 -1.6782e-21)
(0.545988 -2.32859 8.55838e-22)
(0.572207 -2.29406 1.19991e-21)
(0.597244 -2.26041 -3.7957e-22)
(0.621093 -2.22739 5.16371e-22)
(0.64376 -2.19482 -6.02725e-22)
(0.665262 -2.16254 -7.3102e-25)
(0.685619 -2.13038 3.2574e-22)
(0.704855 -2.0982 -2.05985e-22)
(0.722996 -2.06585 1.36232e-22)
(0.740077 -2.03316 3.0031e-22)
(0.756104 -1.99994 1.24451e-21)
(0.22307 -4.7443 -1.53977e-21)
(0.175271 -4.34103 1.03475e-20)
(0.173142 -4.01077 -5.45617e-21)
(0.181626 -3.741 -7.4467e-21)
(0.194212 -3.52029 -3.35431e-21)
(0.212055 -3.33884 -2.43116e-21)
(0.234313 -3.18872 -5.26192e-21)
(0.259864 -3.06356 6.60215e-22)
(0.287853 -2.95823 -1.14502e-21)
(0.317569 -2.86863 -3.98522e-21)
(0.348398 -2.79149 -1.0035e-20)
(0.379828 -2.72419 4.93522e-21)
(0.411431 -2.66465 -1.82083e-21)
(0.442861 -2.61123 6.94277e-22)
(0.473836 -2.56261 -4.33581e-21)
(0.504133 -2.51776 -1.61135e-21)
(0.533578 -2.47585 1.84972e-22)
(0.562038 -2.43624 5.5304e-21)
(0.589418 -2.39842 -2.90805e-21)
(0.615653 -2.36197 -1.6268e-21)
(0.6407 -2.32659 -6.3804e-21)
(0.66454 -2.292 1.64584e-21)
(0.687167 -2.258 -1.05512e-21)
(0.708592 -2.22441 1.85827e-21)
(0.728831 -2.19107 -8.45509e-22)
(0.747909 -2.15785 -1.32232e-21)
(0.76585 -2.12458 4.38745e-22)
(0.782688 -2.09113 6.57071e-22)
(0.798477 -2.05731 -1.19918e-21)
(0.81319 -2.02294 6.3324e-22)
(0.347285 -4.73893 -7.64091e-22)
(0.289714 -4.34223 2.40312e-21)
(0.279887 -4.01748 3.45966e-21)
(0.282318 -3.75275 2.64508e-20)
(0.290156 -3.5366 -1.53429e-20)
(0.304257 -3.35913 1.41659e-20)
(0.323537 -3.21241 8.724e-21)
(0.346685 -3.09008 6.79612e-21)
(0.372694 -2.98705 -6.63188e-21)
(0.400736 -2.89925 -7.82105e-22)
(0.430107 -2.82347 1.69125e-20)
(0.460224 -2.75713 2.86099e-21)
(0.490608 -2.6982 -7.80636e-21)
(0.520872 -2.64507 6.24137e-21)
(0.550705 -2.59648 -7.87619e-23)
(0.579863 -2.55142 2.69372e-21)
(0.608159 -2.50912 2.02949e-21)
(0.63545 -2.46894 6.67882e-21)
(0.661636 -2.43042 -2.989e-21)
(0.686648 -2.39317 -9.93947e-22)
(0.710445 -2.35689 -2.63262e-21)
(0.733008 -2.32134 1.15604e-20)
(0.754335 -2.28634 -9.65101e-21)
(0.774437 -2.25172 3.21997e-21)
(0.793335 -2.21733 1.45223e-21)
(0.811057 -2.18303 -5.86892e-21)
(0.827629 -2.1487 7.90576e-21)
(0.84309 -2.11416 -8.92329e-22)
(0.857516 -2.07926 -9.05013e-22)
(0.870841 -2.04378 -6.42515e-21)
(0.471338 -4.73056 -2.49726e-20)
(0.404278 -4.34085 -2.28082e-20)
(0.387051 -4.02191 -2.80963e-20)
(0.383713 -3.76242 1.04045e-21)
(0.387048 -3.55098 1.64935e-21)
(0.397611 -3.3776 -3.21195e-20)
(0.414079 -3.23433 1.42047e-21)
(0.434951 -3.11484 4.14131e-21)
(0.459074 -3.0141 -7.10405e-22)
(0.485506 -2.92808 7.32025e-21)
(0.513456 -2.85362 -2.95216e-20)
(0.542273 -2.78818 -1.86931e-20)
(0.57143 -2.7298 6.96071e-21)
(0.600503 -2.67691 1.40604e-20)
(0.629154 -2.62829 -1.64906e-20)
(0.657123 -2.58297 -2.65619e-21)
(0.684208 -2.54021 -9.85239e-21)
(0.710261 -2.49943 -4.7502e-21)
(0.735179 -2.46016 7.90784e-21)
(0.758891 -2.42207 -1.02537e-20)
(0.781358 -2.38487 8.85578e-21)
(0.802563 -2.34835 -1.06005e-20)
(0.822507 -2.31233 -8.4552e-21)
(0.841208 -2.27666 -5.98419e-21)
(0.858688 -2.24122 -1.81372e-21)
(0.874979 -2.20588 -1.25138e-20)
(0.890109 -2.17049 1.27572e-21)
(0.904125 -2.13491 2.2633e-21)
(0.917122 -2.09896 -6.577e-21)
(0.92899 -2.06241 1.40867e-21)
(0.595198 -4.71914 -1.52285e-20)
(0.518971 -4.33686 2.14875e-21)
(0.49464 -4.02401 1.97543e-20)
(0.485805 -3.76998 2.09994e-20)
(0.484877 -3.5634 1.50325e-20)
(0.492102 -3.39418 6.17628e-21)
(0.505917 -3.25439 9.72435e-21)
(0.524636 -3.13776 4.53527e-20)
(0.546962 -3.03929 -2.73157e-20)
(0.571842 -2.95501 7.40804e-22)
(0.5984 -2.88181 6.63627e-21)
(0.625924 -2.81724 2.91736e-20)
(0.65384 -2.75935 -2.01506e-20)
(0.68169 -2.70664 1.46308e-20)
(0.709115 -2.65792 -1.64928e-20)
(0.735836 -2.61229 2.82423e-20)
(0.761645 -2.56903 -8.4956e-21)
(0.786388 -2.52759 2.68037e-22)
(0.809959 -2.48754 1.38683e-20)
(0.832291 -2.44858 9.68538e-21)
(0.853346 -2.41043 -9.98091e-21)
(0.873112 -2.37292 1.35685e-20)
(0.891594 -2.33588 -6.28986e-21)
(0.908814 -2.29918 7.19997e-21)
(0.924801 -2.2627 9.58353e-21)
(0.939589 -2.22632 3.50842e-21)
(0.953209 -2.18991 1.07601e-20)
(0.965715 -2.15332 -3.78898e-21)
(0.977221 -2.11636 -1.37763e-21)
(0.987572 -2.07882 -6.47008e-21)
(0.7188 -4.70465 -1.12508e-20)
(0.633762 -4.33022 -7.58204e-21)
(0.602634 -4.02377 -2.28897e-20)
(0.588576 -3.77538 -5.95643e-20)
(0.583622 -3.57377 2.0204e-20)
(0.587705 -3.40878 1.28848e-21)
(0.599024 -3.27251 -1.39646e-20)
(0.615707 -3.15872 3.01992e-21)
(0.636318 -3.06249 -1.92027e-21)
(0.659696 -2.97992 -3.68247e-20)
(0.684886 -2.90795 1.56616e-20)
(0.711117 -2.84417 2.71975e-20)
(0.737772 -2.78671 1.73122e-22)
(0.764363 -2.73412 1.03299e-20)
(0.790509 -2.68526 2.56597e-20)
(0.815922 -2.63926 -1.76942e-20)
(0.840384 -2.59545 3.15406e-20)
(0.86374 -2.55332 -1.50436e-20)
(0.885886 -2.51246 2.72544e-20)
(0.906755 -2.4726 -2.03852e-20)
(0.926316 -2.4335 9.26552e-21)
(0.944561 -2.39499 2.44305e-20)
(0.961501 -2.35693 1.43976e-21)
(0.977164 -2.3192 -2.26295e-20)
(0.991584 -2.2817 1.29033e-20)
(1.0048 -2.2443 1.58042e-21)
(1.01685 -2.20691 -4.07819e-21)
(1.02778 -2.16935 1.59692e-20)
(1.03774 -2.13144 5.57156e-21)
(1.04652 -2.09296 -5.656e-21)
(0.842075 -4.68708 3.13714e-20)
(0.748607 -4.32091 -1.32099e-21)
(0.711001 -4.02113 -4.73583e-20)
(0.692 -3.77856 9.43461e-21)
(0.683257 -3.58203 -1.34932e-20)
(0.684392 -3.42133 9.84665e-21)
(0.693365 -3.28859 2.23791e-20)
(0.708124 -3.17764 4.09997e-20)
(0.727096 -3.08362 -4.4763e-20)
(0.749017 -3.0027 1.10565e-20)
(0.772857 -2.93189 -7.87859e-21)
(0.797788 -2.86885 5.90179e-21)
(0.823154 -2.81177 -2.58737e-20)
(0.848442 -2.75925 -1.5299e-21)
(0.873254 -2.71019 4.3072e-20)
(0.897292 -2.66378 -2.9676e-20)
(0.920334 -2.61938 -1.88101e-20)
(0.942225 -2.57652 -1.38781e-20)
(0.962863 -2.53483 2.57771e-20)
(0.982186 -2.49405 5.64052e-21)
(1.00017 -2.45399 -2.5457e-20)
(1.01681 -2.41448 3.4477e-20)
(1.03213 -2.3754 -3.10663e-20)
(1.04616 -2.33666 2.09216e-20)
(1.05895 -2.29816 -1.17402e-20)
(1.07053 -2.25979 7.85359e-21)
(1.08094 -2.22145 5.88345e-21)
(1.09025 -2.18298 -2.60665e-20)
(1.09861 -2.14417 1.13888e-20)
(1.10576 -2.10483 2.78392e-22)
(0.964951 -4.66643 -3.13366e-20)
(0.863454 -4.30891 2.63246e-20)
(0.819703 -4.01605 -4.92505e-20)
(0.796043 -3.77948 9.45529e-20)
(0.783749 -3.58812 -2.67324e-20)
(0.782127 -3.43174 3.85041e-20)
(0.788901 -3.30253 1.09128e-22)
(0.801842 -3.1944 -5.16331e-21)
(0.819245 -3.10256 -8.13897e-21)
(0.839746 -3.02324 -1.68529e-22)
(0.862245 -2.95354 -3.19845e-20)
(0.885862 -2.89119 1.65361e-20)
(0.909908 -2.83442 -2.04847e-20)
(0.933844 -2.78191 -1.60529e-21)
(0.957262 -2.7326 -5.8473e-20)
(0.979854 -2.68574 1.91031e-20)
(1.0014 -2.64071 1.14232e-20)
(1.02174 -2.5971 -1.27099e-20)
(1.04079 -2.55456 -1.46241e-21)
(1.05848 -2.51286 -2.02282e-20)
(1.07481 -2.47182 -7.34947e-21)
(1.08977 -2.43132 7.24432e-22)
(1.10339 -2.39125 -1.80603e-20)
(1.11572 -2.35152 -2.6888e-20)
(1.1268 -2.31205 1.09728e-21)
(1.13668 -2.27275 -2.89472e-21)
(1.14539 -2.23351 8.64793e-21)
(1.15303 -2.19417 -2.14779e-20)
(1.15975 -2.15453 1.83594e-20)
(1.16524 -2.1144 -3.73285e-20)
(1.08736 -4.64271 -7.94217e-20)
(0.978249 -4.2942 9.86782e-20)
(0.928697 -4.0085 -1.054e-19)
(0.900665 -3.77806 -2.83266e-20)
(0.88506 -3.59196 -1.872e-20)
(0.880868 -3.43994 -2.01938e-20)
(0.885585 -3.31426 -1.86708e-20)
(0.896809 -3.20891 -4.01146e-21)
(0.912706 -3.1192 -1.91079e-20)
(0.931819 -3.04144 -4.81676e-21)
(0.952979 -2.97278 3.34675e-20)
(0.975263 -2.91105 -1.92556e-20)
(0.997949 -2.85455 -2.35895e-20)
(1.02048 -2.80199 -4.00931e-20)
(1.04244 -2.7524 8.47526e-20)
(1.06351 -2.70504 -3.31231e-20)
(1.08348 -2.65936 1.23931e-20)
(1.10219 -2.61497 -4.66789e-20)
(1.11956 -2.57156 1.77678e-20)
(1.13554 -2.52894 -7.59021e-21)
(1.15013 -2.48694 9.32056e-21)
(1.16333 -2.44546 -3.58842e-21)
(1.17518 -2.40441 3.06284e-20)
(1.18573 -2.36373 -1.10025e-20)
(1.19504 -2.32333 3.01763e-20)
(1.20316 -2.28314 -5.75814e-21)
(1.21014 -2.24305 3.97918e-20)
(1.21606 -2.20292 1.10226e-20)
(1.2211 -2.16251 2.09679e-20)
(1.22489 -2.12166 -6.80956e-20)
(1.20921 -4.61592 1.26033e-19)
(1.09294 -4.27675 -2.49966e-20)
(1.03793 -3.99842 4.46864e-20)
(1.00582 -3.77425 -1.32774e-20)
(0.987144 -3.59347 4.63853e-20)
(0.980569 -3.44583 4.45517e-20)
(0.983366 -3.32366 5.13781e-20)
(0.992967 -3.22107 -4.42904e-21)
(1.00741 -3.13343 -5.02698e-20)
(1.02516 -3.05717 7.42904e-20)
(1.04498 -2.98951 -6.0532e-21)
(1.06591 -2.92834 5.41467e-20)
(1.08719 -2.87205 1.98112e-20)
(1.10826 -2.8194 7.1976e-21)
(1.12868 -2.76947 1.23997e-20)
(1.14816 -2.72159 1.64332e-20)
(1.16647 -2.67524 2.79444e-20)
(1.18347 -2.63005 -8.12479e-21)
(1.19908 -2.58578 4.17673e-20)
(1.21326 -2.54223 1.95997e-20)
(1.22602 -2.49928 -4.11785e-20)
(1.23738 -2.45685 7.32615e-20)
(1.24739 -2.41486 -9.75768e-20)
(1.2561 -2.37326 9.33585e-20)
(1.26359 -2.33198 -3.10866e-20)
(1.2699 -2.29095 5.89306e-21)
(1.27509 -2.25007 -4.16592e-20)
(1.27925 -2.2092 2.32772e-20)
(1.28258 -2.1681 8.54039e-21)
(1.28464 -2.12663 -1.08462e-20)
(1.33045 -4.58607 -7.33249e-20)
(1.20745 -4.25654 7.40762e-20)
(1.14736 -3.98579 -2.03389e-20)
(1.11147 -3.768 5.92896e-20)
(1.08995 -3.59258 5.60348e-21)
(1.08118 -3.44933 1.33752e-20)
(1.08219 -3.33066 -1.0456e-19)
(1.09025 -3.23078 -1.82892e-20)
(1.1033 -3.14517 6.90519e-20)
(1.1197 -3.07033 5.40527e-20)
(1.13817 -3.00361 -9.22334e-20)
(1.1577 -2.94295 5.45572e-20)
(1.17753 -2.88681 -5.50661e-20)
(1.19707 -2.83403 3.8956e-20)
(1.21589 -2.78374 -6.47903e-20)
(1.23369 -2.7353 -4.91508e-20)
(1.25026 -2.68826 3.0026e-21)
(1.26546 -2.64228 -2.315e-20)
(1.27923 -2.59714 4.14612e-20)
(1.29153 -2.55268 1.63872e-20)
(1.30239 -2.5088 -1.09025e-20)
(1.31184 -2.46544 -3.38116e-21)
(1.31993 -2.42254 1.32034e-20)
(1.32674 -2.38007 -4.3912e-20)
(1.33234 -2.33796 7.46499e-20)
(1.3368 -2.29615 -1.80953e-20)
(1.34016 -2.25456 -1.51707e-21)
(1.34253 -2.21302 6.64494e-20)
(1.34412 -2.17131 9.10922e-21)
(1.34443 -2.12929 -9.57982e-21)
(1.45099 -4.55316 1.85555e-21)
(1.32174 -4.23356 -4.12077e-20)
(1.25693 -3.97057 -3.90673e-20)
(1.21755 -3.75924 -6.37807e-20)
(1.19343 -3.58923 1.61812e-21)
(1.18263 -3.45036 -4.72651e-20)
(1.18198 -3.33515 5.63283e-20)
(1.18859 -3.23793 -4.8525e-21)
(1.20028 -3.15429 4.7886e-20)
(1.21535 -3.08083 -3.89723e-20)
(1.23245 -3.01498 -2.08077e-20)
(1.25055 -2.95478 1.1392e-20)
(1.26887 -2.89875 6.20585e-21)
(1.28682 -2.8458 -6.51504e-20)
(1.30396 -2.79511 3.89846e-20)
(1.32 -2.74611 -2.00391e-20)
(1.33474 -2.69836 5.623e-20)
(1.34806 -2.65158 -1.88274e-20)
(1.35989 -2.60558 2.01113e-20)
(1.37024 -2.56023 4.81638e-21)
(1.37912 -2.51546 3.4409e-20)
(1.38658 -2.4712 -7.07161e-21)
(1.3927 -2.42744 5.74142e-20)
(1.39755 -2.38414 -6.38725e-20)
(1.40121 -2.34126 -2.16446e-20)
(1.40376 -2.29874 1.80262e-20)
(1.40526 -2.2565 -1.46073e-21)
(1.40581 -2.21438 -3.19331e-20)
(1.40565 -2.17213 2.62033e-20)
(1.40419 -2.12966 -3.18135e-20)
(1.57076 -4.51721 1.26356e-19)
(1.43573 -4.20779 3.62624e-20)
(1.36657 -3.9527 4.25048e-20)
(1.32401 -3.74793 5.92965e-20)
(1.29752 -3.58335 8.90207e-20)
(1.28487 -3.44884 -2.09959e-21)
(1.28268 -3.33706 1.28253e-20)
(1.28792 -3.24244 1.0455e-19)
(1.29828 -3.16071 -2.12959e-20)
(1.31202 -3.08857 -3.90118e-20)
(1.32773 -3.02353 7.06467e-20)
(1.34436 -2.96374 1.23624e-20)
(1.36111 -2.90777 9.97469e-22)
(1.37739 -2.85461 1.72802e-20)
(1.39278 -2.80351 3.1952e-20)
(1.40698 -2.75392 -6.65079e-20)
(1.4198 -2.70547 5.71133e-20)
(1.43115 -2.6579 1.0047e-20)
(1.44097 -2.61106 5.70759e-20)
(1.44927 -2.56485 -3.07009e-20)
(1.4561 -2.5192 5.20792e-20)
(1.46151 -2.4741 -5.54036e-20)
(1.46558 -2.42953 5.43546e-20)
(1.46842 -2.38546 7.69513e-21)
(1.4701 -2.34187 -3.66305e-20)
(1.47071 -2.29871 -1.21845e-20)
(1.47031 -2.25589 7.20097e-20)
(1.46902 -2.21327 5.2711e-20)
(1.46709 -2.17057 1.42693e-20)
(1.46386 -2.12775 -1.01626e-20)
(1.68969 -4.47822 1.3595e-20)
(1.54936 -4.17922 3.19303e-20)
(1.47623 -3.93216 1.28228e-19)
(1.43078 -3.734 -2.10346e-19)
(1.40216 -3.57485 -2.10465e-20)
(1.38783 -3.44469 -2.25497e-20)
(1.38422 -3.33628 1.05297e-20)
(1.38814 -3.24422 1.52047e-20)
(1.39721 -3.16433 2.44389e-20)
(1.40961 -3.09344 -6.52063e-20)
(1.4239 -3.02917 -1.32107e-20)
(1.43901 -2.96973 3.82674e-20)
(1.45413 -2.91379 4.19257e-20)
(1.46867 -2.8604 -4.13657e-20)
(1.48222 -2.80886 -4.15709e-20)
(1.4945 -2.75867 6.80273e-20)
(1.50533 -2.70952 4.54445e-20)
(1.51462 -2.66118 -1.10608e-20)
(1.52234 -2.61353 -2.91271e-20)
(1.52853 -2.56648 5.81863e-21)
(1.53323 -2.52002 -6.91943e-20)
(1.53652 -2.47412 8.46088e-20)
(1.53849 -2.42878 -5.80522e-20)
(1.53926 -2.38402 -2.51069e-21)
(1.53892 -2.33979 3.92696e-20)
(1.53755 -2.29606 -1.21023e-20)
(1.53523 -2.25275 -3.6998e-20)
(1.53209 -2.20971 4.59365e-20)
(1.52838 -2.16665 -1.12631e-21)
(1.52338 -2.12357 8.41468e-21)
(1.80769 -4.43622 -9.2605e-21)
(1.66256 -4.14783 -3.23443e-20)
(1.58584 -3.90892 -1.49185e-19)
(1.5378 -3.7174 5.4159e-20)
(1.50727 -3.56369 -1.67253e-20)
(1.49143 -3.43782 5.64751e-20)
(1.4865 -3.33274 4.53252e-21)
(1.48917 -3.24317 -6.59267e-20)
(1.49698 -3.16506 1.02073e-19)
(1.50803 -3.09537 -9.26376e-20)
(1.52087 -3.0318 -3.95281e-21)
(1.5344 -2.97267 2.3471e-20)
(1.54783 -2.91673 -4.00627e-20)
(1.56055 -2.86308 4.71564e-20)
(1.57218 -2.81109 -8.98648e-20)
(1.58245 -2.76032 -2.07192e-20)
(1.59119 -2.71048 5.57418e-20)
(1.59835 -2.66139 2.51918e-22)
(1.6039 -2.61295 -3.59062e-20)
(1.60789 -2.56511 9.88673e-20)
(1.61039 -2.51787 -5.33442e-20)
(1.6115 -2.47123 -7.20427e-20)
(1.61132 -2.4252 2.40934e-20)
(1.60997 -2.3798 -7.11316e-20)
(1.60756 -2.33501 -1.73317e-20)
(1.60419 -2.29079 -2.19683e-21)
(1.59993 -2.24708 -4.75623e-20)
(1.59492 -2.20371 5.70362e-20)
(1.58943 -2.16039 -3.18744e-20)
(1.58266 -2.11715 3.76185e-20)
(1.92469 -4.39121 -4.70766e-20)
(1.77526 -4.1136 -1.33892e-19)
(1.69534 -3.88292 6.56066e-20)
(1.64501 -3.69808 -6.39742e-20)
(1.6128 -3.54978 -4.67688e-20)
(1.5956 -3.42818 -2.7591e-20)
(1.58945 -3.32636 -1.03387e-19)
(1.59092 -3.23921 7.11289e-20)
(1.59748 -3.16282 -1.77946e-19)
(1.60716 -3.09426 -6.59911e-20)
(1.61851 -3.03135 2.35935e-20)
(1.63042 -2.97248 4.01661e-20)
(1.64207 -2.91651 -5.88196e-22)
(1.65291 -2.86259 -7.82763e-20)
(1.66254 -2.81014 1.85879e-20)
(1.6707 -2.75879 -7.32873e-20)
(1.67728 -2.70828 -5.30823e-20)
(1.68221 -2.65847 -3.2337e-20)
(1.68551 -2.60929 -6.49798e-21)
(1.68724 -2.5607 5.58122e-20)
(1.68748 -2.51274 8.03362e-20)
(1.68634 -2.46542 -2.43228e-20)
(1.68396 -2.41876 -2.40052e-20)
(1.68045 -2.3728 4.63896e-20)
(1.67595 -2.32753 2.57368e-20)
(1.67055 -2.28291 -2.06648e-20)
(1.66433 -2.23888 -2.33641e-20)
(1.65744 -2.19528 2.69231e-21)
(1.65018 -2.15179 2.43385e-20)
(1.64166 -2.10849 3.36052e-20)
(2.04062 -4.34322 -8.85343e-21)
(1.8874 -4.07653 1.72067e-19)
(1.80465 -3.85415 1.34262e-19)
(1.75232 -3.676 1.04814e-19)
(1.71865 -3.53308 -6.89659e-20)
(1.70024 -3.41568 -1.37887e-20)
(1.69297 -3.31705 1.21606e-20)
(1.6933 -3.23225 9.16444e-20)
(1.6986 -3.15752 3.4672e-20)
(1.70691 -3.09003 8.50536e-20)
(1.71672 -3.02773 -1.20682e-19)
(1.72694 -2.9691 1.20902e-20)
(1.73676 -2.91307 4.99095e-20)
(1.74562 -2.85886 3.1403e-20)
(1.75316 -2.80597 6.58264e-20)
(1.75915 -2.75406 -4.51324e-20)
(1.76347 -2.7029 -4.21855e-20)
(1.76611 -2.6524 7.87592e-21)
(1.76708 -2.60252 9.2088e-20)
(1.76647 -2.55325 -1.49042e-19)
(1.76438 -2.50462 5.2204e-20)
(1.76095 -2.45668 -3.18932e-22)
(1.75631 -2.40947 1.00446e-19)
(1.75061 -2.36303 -4.34348e-20)
(1.74397 -2.31735 -2.38208e-21)
(1.73652 -2.27243 -2.82589e-20)
(1.72833 -2.22818 2.69584e-20)
(1.71956 -2.18444 6.61511e-21)
(1.71054 -2.14088 -3.02416e-20)
(1.70028 -2.09764 1.03062e-19)
(2.1554 -4.29226 -1.75313e-19)
(1.99889 -4.03661 -1.05186e-19)
(1.91371 -3.82258 -2.7133e-19)
(1.85968 -3.6511 -1.25122e-19)
(1.82475 -3.51352 1.17762e-19)
(1.80528 -3.40026 -7.02005e-20)
(1.79697 -3.30475 -1.80124e-20)
(1.79619 -3.22223 -4.74709e-20)
(1.80025 -3.14908 8.19502e-20)
(1.80715 -3.08261 -1.94378e-20)
(1.81538 -3.02088 -3.047e-20)
(1.82384 -2.96245 -3.71718e-21)
(1.83175 -2.90635 -1.25598e-19)
(1.83856 -2.85186 -5.5296e-21)
(1.84392 -2.79853 3.35941e-20)
(1.84765 -2.74607 -4.22081e-21)
(1.84965 -2.6943 -1.34049e-19)
(1.84991 -2.64316 1.3137e-19)
(1.84848 -2.59262 -1.30195e-19)
(1.84547 -2.54272 5.12331e-20)
(1.841 -2.49349 7.32863e-21)
(1.83522 -2.44501 2.8038e-21)
(1.82828 -2.39733 -5.52261e-20)
(1.82034 -2.35048 1.89058e-20)
(1.81154 -2.30449 -6.00832e-23)
(1.80201 -2.25935 6.31829e-21)
(1.79185 -2.21498 -1.4127e-19)
(1.78121 -2.17121 3.83358e-20)
(1.77043 -2.12768 4.13801e-20)
(1.75847 -2.0846 4.65911e-20)
(2.26896 -4.23835 3.44341e-19)
(2.10967 -3.99383 1.21715e-19)
(2.02243 -3.78817 7.22771e-20)
(1.96699 -3.62335 1.1507e-19)
(1.93102 -3.49104 -1.42652e-20)
(1.91062 -3.38184 8.89747e-20)
(1.90136 -3.28939 1.99449e-19)
(1.8995 -3.20907 -2.51411e-20)
(1.90231 -3.13744 1.22992e-20)
(1.90777 -3.07194 2.43105e-19)
(1.91436 -3.01072 -3.22498e-20)
(1.921 -2.95248 3.49242e-20)
(1.92692 -2.89629 -1.30505e-20)
(1.93159 -2.84152 -1.61942e-21)
(1.93471 -2.78777 1.83834e-19)
(1.9361 -2.73479 7.05469e-21)
(1.93569 -2.68246 1.98935e-19)
(1.93349 -2.63072 -2.47813e-20)
(1.9296 -2.57959 -4.38277e-20)
(1.92413 -2.52912 1.02851e-19)
(1.91722 -2.47936 -9.44318e-20)
(1.90904 -2.43041 1.04325e-19)
(1.89975 -2.38233 5.66517e-20)
(1.88954 -2.33517 -4.60594e-20)
(1.87856 -2.28895 7.06866e-20)
(1.86694 -2.24368 8.51078e-21)
(1.85479 -2.19929 -2.99781e-20)
(1.84228 -2.15559 1.61577e-20)
(1.82977 -2.11221 1.07613e-19)
(1.81613 -2.06941 1.67431e-20)
(2.3812 -4.18152 -5.93316e-20)
(2.21966 -3.94819 -1.23617e-19)
(2.13076 -3.75091 5.1944e-20)
(2.07418 -3.59269 -2.07951e-19)
(2.03737 -3.46559 1.00167e-19)
(2.01617 -3.36038 -1.84786e-19)
(2.00602 -3.27089 -1.22982e-19)
(2.00311 -3.1927 3.47414e-20)
(2.00466 -3.12252 3.50612e-20)
(2.00864 -3.05794 -1.69096e-19)
(2.01354 -2.99722 -7.3938e-20)
(2.01829 -2.93914 3.46704e-20)
(2.02214 -2.88286 -9.54529e-20)
(2.02461 -2.82782 -3.83473e-20)
(2.02539 -2.77367 -2.59651e-20)
(2.02436 -2.72021 -2.61263e-20)
(2.02146 -2.66735 -1.11305e-19)
(2.01675 -2.61507 -7.01712e-20)
(2.01033 -2.56341 1.25748e-20)
(2.00234 -2.51243 2.32064e-20)
(1.99293 -2.46223 2.50902e-20)
(1.98231 -2.41288 -8.66764e-20)
(1.97064 -2.36448 3.28926e-20)
(1.95813 -2.31708 -6.79132e-20)
(1.94494 -2.27073 6.45148e-20)
(1.93122 -2.22543 -8.487e-20)
(1.91707 -2.18112 2.68923e-20)
(1.9027 -2.13761 -4.20335e-20)
(1.88847 -2.09449 -6.00954e-20)
(1.87319 -2.05208 -6.10869e-21)
(2.49207 -4.12179 -1.26977e-19)
(2.32879 -3.89969 -1.13045e-19)
(2.2386 -3.71077 -1.11231e-19)
(2.18117 -3.5591 -8.36437e-20)
(2.14371 -3.43712 2.58473e-19)
(2.12183 -3.33581 3.68593e-20)
(2.11085 -3.24919 1.12819e-19)
(2.1069 -3.17306 1.74177e-19)
(2.10718 -3.10428 8.46476e-20)
(2.10964 -3.04057 -1.13197e-19)
(2.11279 -2.98031 1.84513e-19)
(2.11558 -2.92238 -1.8032e-19)
(2.11729 -2.86601 1.72066e-19)
(2.11747 -2.81072 2.0689e-20)
(2.11584 -2.7562 4.45853e-20)
(2.11231 -2.7023 1.4858e-20)
(2.10687 -2.64897 1.82646e-19)
(2.09957 -2.59621 -2.72726e-20)
(2.09056 -2.54408 2.48351e-20)
(2.07999 -2.49268 8.36079e-20)
(2.06805 -2.44209 -9.37393e-20)
(2.05494 -2.39243 7.51717e-20)
(2.04085 -2.34378 3.0646e-21)
(2.02601 -2.29624 3.44428e-20)
(2.01058 -2.24984 6.32985e-20)
(1.99474 -2.2046 -1.07365e-20)
(1.97859 -2.16047 6.30229e-20)
(1.96236 -2.11725 9.17263e-20)
(1.94643 -2.07451 -9.96991e-20)
(1.92955 -2.03262 -6.16002e-20)
(2.60148 -4.05919 3.74422e-19)
(2.43698 -3.84833 -4.24158e-20)
(2.34589 -3.66773 8.7183e-20)
(2.28788 -3.52253 1.60623e-19)
(2.24995 -3.40559 -4.6715e-19)
(2.2275 -3.30807 5.14244e-20)
(2.21574 -3.22425 -1.80887e-19)
(2.21076 -3.1501 1.83501e-19)
(2.20974 -3.08265 -1.46813e-19)
(2.21064 -3.01977 7.97138e-20)
(2.21198 -2.95995 -2.91841e-19)
(2.21274 -2.90216 8.27987e-21)
(2.21223 -2.84571 -9.8265e-20)
(2.21004 -2.79019 1.49896e-19)
(2.20594 -2.73534 -1.59942e-19)
(2.19984 -2.68105 -8.34309e-21)
(2.19177 -2.6273 -1.31442e-19)
(2.18184 -2.57413 -1.12318e-20)
(2.17018 -2.52161 1.12735e-20)
(2.15699 -2.46985 2.96761e-20)
(2.14247 -2.41896 -1.68318e-19)
(2.12683 -2.36906 -5.18637e-21)
(2.1103 -2.32025 -9.49417e-20)
(2.09309 -2.27264 -2.2108e-20)
(2.0754 -2.22627 -5.86159e-20)
(2.05741 -2.18118 -6.43692e-20)
(2.03926 -2.13734 -6.74613e-20)
(2.02117 -2.09453 1.11896e-19)
(2.00357 -2.05228 3.02497e-20)
(1.98512 -2.01104 -5.99787e-20)
(2.70936 -3.99374 -2.49922e-19)
(2.54416 -3.79412 9.36487e-20)
(2.45254 -3.62178 -1.61143e-19)
(2.39423 -3.48296 2.38569e-20)
(2.35599 -3.37095 2.67116e-19)
(2.33307 -3.27712 -1.36335e-19)
(2.32058 -3.196 -1.46052e-19)
(2.31457 -3.12375 -1.24395e-19)
(2.31222 -3.05759 5.67702e-21)
(2.3115 -2.9955 8.11443e-20)
(2.31097 -2.9361 -5.95147e-20)
(2.30963 -2.87845 2.26532e-21)
(2.30683 -2.82195 1.88089e-19)
(2.3022 -2.76623 -9.58528e-20)
(2.29554 -2.71109 2.54848e-20)
(2.28681 -2.65647 -7.87363e-20)
(2.27607 -2.60237 3.02853e-20)
(2.26343 -2.54884 6.55984e-20)
(2.24909 -2.496 7.54117e-20)
(2.23323 -2.44396 -8.27646e-20)
(2.21609 -2.39284 1.17089e-20)
(2.1979 -2.34278 7.1728e-20)
(2.17889 -2.29389 1.24831e-19)
(2.15929 -2.24628 3.35665e-20)
(2.13932 -2.20003 -1.30164e-19)
(2.11917 -2.15517 1.52058e-19)
(2.09899 -2.1117 -7.63823e-20)
(2.07903 -2.06941 -9.17188e-20)
(2.05977 -2.02779 -5.63874e-20)
(2.03979 -1.98733 -7.7829e-20)
(2.81563 -3.92549 1.34155e-19)
(2.65026 -3.73707 -1.08223e-19)
(2.55851 -3.57291 4.15833e-20)
(2.50012 -3.44036 2.22702e-19)
(2.46174 -3.33314 6.14183e-20)
(2.43842 -3.24291 -5.26934e-20)
(2.42523 -3.16439 1.28577e-19)
(2.41818 -3.09399 2.99233e-20)
(2.41448 -3.02905 1.24556e-19)
(2.41209 -2.96773 6.89503e-20)
(2.40963 -2.90874 3.33785e-21)
(2.40612 -2.85125 4.4234e-20)
(2.40096 -2.79471 -1.4017e-20)
(2.39382 -2.73883 2.46243e-20)
(2.38454 -2.68345 6.95897e-20)
(2.37312 -2.62855 -3.83917e-20)
(2.35964 -2.57416 9.59211e-20)
(2.34427 -2.52037 9.79143e-20)
(2.32719 -2.46728 -1.12037e-19)
(2.30864 -2.41504 1.15753e-19)
(2.28885 -2.36377 2.47429e-19)
(2.26808 -2.31362 -1.60588e-19)
(2.24656 -2.26471 1.62577e-19)
(2.22455 -2.21717 -1.13996e-19)
(2.20227 -2.1711 -1.6376e-20)
(2.17993 -2.12655 1.24055e-19)
(2.15769 -2.08353 -2.51348e-20)
(2.13586 -2.04186 9.38261e-20)
(2.11493 -2.00098 9.37193e-20)
(2.09347 -1.96145 -1.88162e-19)
(2.92023 -3.85446 -1.29665e-19)
(2.75523 -3.67719 6.2123e-20)
(2.66371 -3.52109 2.5486e-20)
(2.60549 -3.39467 -2.62137e-19)
(2.56709 -3.29214 -1.37217e-19)
(2.54345 -3.20538 1.04196e-19)
(2.52957 -3.12939 -2.92563e-19)
(2.52148 -3.06076 3.56831e-19)
(2.51638 -2.99701 -2.01771e-19)
(2.51228 -2.93644 2.41292e-20)
(2.50781 -2.87786 -3.82445e-20)
(2.50207 -2.82052 -1.18409e-19)
(2.49448 -2.76398 2.47139e-19)
(2.48476 -2.70798 9.44147e-20)
(2.47281 -2.65243 -9.77458e-20)
(2.45864 -2.59732 2.92705e-21)
(2.44238 -2.54272 5.56862e-20)
(2.42422 -2.48873 -1.20716e-19)
(2.40439 -2.43548 2.58785e-20)
(2.38311 -2.38311 8.47987e-20)
(2.36066 -2.33177 -3.50473e-20)
(2.33729 -2.2816 5.89763e-20)
(2.31325 -2.23274 -1.16404e-19)
(2.2888 -2.18533 1.69697e-19)
(2.26419 -2.13947 4.00626e-20)
(2.23963 -2.09527 -1.08231e-19)
(2.21531 -2.05278 -9.41779e-20)
(2.19156 -2.0118 3.22749e-22)
(2.16896 -1.97178 1.3109e-19)
(2.14603 -1.93333 -3.17801e-20)
(3.02311 -3.78068 -3.55303e-20)
(2.85902 -3.61448 -2.60805e-19)
(2.76808 -3.46632 3.12919e-19)
(2.71024 -3.34588 2.13935e-19)
(2.67194 -3.24789 2.15974e-19)
(2.64803 -3.16451 6.13665e-20)
(2.63347 -3.09095 9.22643e-20)
(2.62432 -3.02403 4.78409e-20)
(2.61778 -2.96144 -1.89627e-19)
(2.61191 -2.90159 3.50096e-19)
(2.60539 -2.84343 -2.85457e-19)
(2.59734 -2.78628 -1.89162e-20)
(2.58726 -2.72977 4.25407e-20)
(2.57491 -2.67371 -1.89247e-19)
(2.56022 -2.61804 1.66597e-19)
(2.54326 -2.56279 -4.99131e-20)
(2.52418 -2.50805 -1.29336e-19)
(2.50321 -2.45395 5.04411e-20)
(2.48059 -2.40062 -9.70882e-20)
(2.45658 -2.34821 -8.6148e-20)
(2.43146 -2.29687 -9.28239e-20)
(2.40548 -2.24675 2.11362e-20)
(2.37892 -2.19799 1.24887e-20)
(2.35203 -2.15075 -2.30675e-19)
(2.32506 -2.10515 -8.8235e-20)
(2.29825 -2.06132 5.70059e-20)
(2.27179 -2.01936 7.11087e-20)
(2.24607 -1.97913 -9.82578e-20)
(2.22176 -1.94005 -3.75779e-20)
(2.19737 -1.90282 3.80447e-21)
(3.12424 -3.70418 -3.10185e-20)
(2.96162 -3.54897 1.68799e-19)
(2.87158 -3.40856 -4.81077e-20)
(2.81428 -3.29394 -5.93826e-20)
(2.77616 -3.20036 -3.36793e-19)
(2.75201 -3.12024 -7.46167e-20)
(2.7368 -3.04905 1.4381e-19)
(2.72656 -2.98379 -9.54606e-20)
(2.71855 -2.92233 -1.02178e-20)
(2.71086 -2.86319 -1.90113e-20)
(2.70221 -2.80545 1.08073e-19)
(2.69179 -2.74852 -1.72179e-19)
(2.67917 -2.69209 -1.16155e-19)
(2.66412 -2.63603 1.37223e-19)
(2.64665 -2.58031 -7.88213e-20)
(2.62685 -2.525 -9.54634e-20)
(2.60493 -2.47021 2.05269e-19)
(2.58113 -2.41608 -3.2314e-20)
(2.55571 -2.36276 1.22485e-19)
(2.52897 -2.31039 -1.12704e-19)
(2.50117 -2.25913 -9.16101e-20)
(2.47261 -2.20913 7.99234e-20)
(2.44353 -2.16053 -8.98392e-21)
(2.41421 -2.11349 -6.04067e-20)
(2.38488 -2.06814 5.3335e-20)
(2.3558 -2.02466 -1.67053e-19)
(2.32717 -1.9832 1.0211e-19)
(2.29941 -1.94371 -1.58944e-21)
(2.2733 -1.90561 -1.07406e-19)
(2.24744 -1.86967 1.63536e-19)
(3.22371 -3.62502 1.28754e-19)
(3.06305 -3.48064 -3.34215e-19)
(2.97414 -3.34776 -2.81207e-20)
(2.91749 -3.23878 1.59074e-19)
(2.87962 -3.1495 -4.16411e-20)
(2.85527 -3.07255 -1.17974e-19)
(2.8394 -3.00365 5.59604e-20)
(2.82805 -2.94001 6.50654e-20)
(2.81852 -2.87965 5.64186e-21)
(2.80896 -2.82124 8.11204e-20)
(2.79813 -2.76394 2.60832e-19)
(2.7853 -2.70727 -9.22381e-20)
(2.77006 -2.65097 2.40889e-20)
(2.75227 -2.59496 -6.2928e-20)
(2.73197 -2.53927 2.42786e-19)
(2.70931 -2.48399 -4.37817e-20)
(2.68453 -2.42924 1.45961e-19)
(2.65788 -2.37517 -5.68767e-20)
(2.62967 -2.32195 6.16079e-20)
(2.6002 -2.26971 9.34807e-20)
(2.56976 -2.21861 1.60824e-20)
(2.53862 -2.1688 6.34178e-20)
(2.50707 -2.12041 -5.26973e-20)
(2.47534 -2.0736 1.47336e-19)
(2.44369 -2.0285 -6.04305e-20)
(2.41235 -1.98531 2.22226e-19)
(2.38151 -1.94425 -6.43199e-20)
(2.35161 -1.90536 4.44845e-20)
(2.32362 -1.86812 -8.41387e-20)
(2.29629 -1.83348 1.5977e-19)
(3.32189 -3.54333 -2.845e-19)
(3.16343 -3.40945 1.05773e-20)
(3.07567 -3.28383 -1.74127e-19)
(3.01972 -3.18035 3.20412e-20)
(2.98216 -3.09525 8.91869e-21)
(2.95765 -3.02141 -1.57778e-19)
(2.94111 -2.95476 -2.98388e-19)
(2.92865 -2.8927 1.50203e-19)
(2.91756 -2.83342 -2.14393e-19)
(2.90607 -2.77573 -1.13989e-19)
(2.89301 -2.7189 -6.54636e-20)
(2.8777 -2.66253 -5.31942e-20)
(2.8598 -2.60643 1.54163e-21)
(2.83923 -2.55055 -1.91136e-19)
(2.81607 -2.49498 1.26691e-19)
(2.79052 -2.43981 -2.08336e-19)
(2.76285 -2.38519 -5.29521e-20)
(2.73337 -2.33129 5.80061e-20)
(2.70238 -2.27826 7.33096e-20)
(2.6702 -2.22625 7.35478e-20)
(2.63714 -2.17541 5.65077e-20)
(2.60349 -2.12587 -1.42117e-19)
(2.56952 -2.07775 1.43993e-19)
(2.53546 -2.03119 -1.53546e-20)
(2.50156 -1.98632 -3.89104e-20)
(2.46799 -1.94332 -1.54606e-19)
(2.43494 -1.90244 -8.23084e-20)
(2.40281 -1.86374 1.52782e-19)
(2.37263 -1.82686 -5.00419e-20)
(2.34355 -1.7936 -5.21701e-20)
(3.41923 -3.45878 1.2376e-19)
(3.26278 -3.33497 1.15016e-20)
(3.176 -3.21656 -3.44718e-20)
(3.12078 -3.11857 -7.52557e-21)
(3.0836 -3.03763 -6.30737e-20)
(3.05898 -2.96683 2.13198e-19)
(3.04181 -2.90237 -1.01234e-19)
(3.0282 -2.84186 6.65462e-20)
(3.01553 -2.78366 2.78571e-20)
(3.00206 -2.72671 1.01391e-19)
(2.98671 -2.67038 -3.96075e-20)
(2.96887 -2.61436 2.24458e-19)
(2.94826 -2.55851 -1.9516e-20)
(2.92487 -2.50285 1.47741e-19)
(2.89882 -2.44747 -2.49378e-19)
(2.87037 -2.39252 -1.92096e-20)
(2.83981 -2.33814 1.63132e-19)
(2.80749 -2.28451 -1.01676e-19)
(2.77373 -2.23179 -7.18309e-20)
(2.73889 -2.18012 -1.24126e-19)
(2.70327 -2.12963 -1.09478e-19)
(2.66717 -2.08046 1.17862e-19)
(2.63088 -2.03271 -1.11246e-19)
(2.59462 -1.98647 2.44435e-20)
(2.55864 -1.94186 9.05206e-20)
(2.52309 -1.899 6.28685e-20)
(2.48812 -1.858 5.99052e-20)
(2.45394 -1.81882 4.41655e-20)
(2.4211 -1.78151 -1.19537e-19)
(2.38918 -1.7492 -5.13672e-20)
(5.01143 -0.0292342 1.83116e-21)
(5.00393 -0.161046 1.81388e-20)
(4.99331 -0.291893 6.29658e-20)
(4.97955 -0.422057 3.44228e-20)
(4.96242 -0.551596 -7.27977e-20)
(4.94188 -0.680474 2.20444e-20)
(4.91791 -0.808626 -2.30842e-20)
(4.89056 -0.935972 -5.82984e-20)
(4.85984 -1.06242 1.48527e-19)
(4.82578 -1.1879 -3.54101e-20)
(4.78843 -1.3123 -3.57034e-20)
(4.74781 -1.43555 -7.54454e-20)
(4.70397 -1.55756 -2.16031e-19)
(4.65696 -1.67824 2.00161e-20)
(4.60681 -1.79752 -9.69598e-21)
(4.55358 -1.91531 -6.73605e-20)
(4.4973 -2.03154 1.44293e-19)
(4.43805 -2.14613 7.81876e-20)
(4.37585 -2.259 1.4939e-19)
(4.31078 -2.37008 7.28536e-20)
(4.24289 -2.4793 -1.63048e-19)
(4.17223 -2.5866 6.57491e-21)
(4.09887 -2.6919 -3.07147e-19)
(4.02286 -2.79515 4.65906e-19)
(3.94427 -2.89628 -1.52645e-19)
(3.86317 -2.99524 -1.96547e-19)
(3.77962 -3.09198 -2.75174e-20)
(3.6937 -3.18649 -1.60284e-21)
(3.6055 -3.27883 -1.47204e-19)
(3.515 -3.36939 2.6191e-19)
(5.03582 -0.0584485 7.5919e-21)
(5.02265 -0.190329 1.12112e-20)