/*--------------------------------*- C++ -*----------------------------------*\
  =========                 |
  \\      /  F ield         | OpenFOAM: The Open Source CFD Toolbox
   \\    /   O peration     | Website:  https://openfoam.org
    \\  /    A nd           | Version:  6.0
     \\/     M anipulation  |
\*---------------------------------------------------------------------------*/
FoamFile
{
    version     2.0;
    format      ascii;
    class       volScalarField;
    location    "13";
    object      p;
}
// * * * * * * * * * * * * * * * * * * * * * * * * * * * * * * * * * * * * * //

dimensions      [0 2 -2 0 0 0 0];

internalField   nonuniform List<scalar> 
2400
(
-0.406609
-0.393399
-0.385209
-0.378633
-0.37216
-0.365799
-0.359632
-0.353626
-0.347868
-0.34346
-0.420495
-0.406338
-0.39713
-0.389393
-0.381677
-0.374082
-0.366753
-0.359664
-0.352899
-0.348001
-0.438338
-0.422638
-0.411932
-0.402623
-0.393284
-0.384103
-0.375281
-0.366781
-0.358682
-0.353191
-0.460383
-0.442536
-0.429832
-0.418519
-0.407159
-0.396019
-0.385347
-0.37507
-0.365256
-0.359015
-0.486934
-0.46627
-0.451033
-0.437272
-0.423489
-0.410015
-0.397123
-0.384665
-0.372677
-0.365443
-0.518277
-0.494056
-0.475731
-0.459084
-0.442497
-0.426334
-0.41086
-0.395795
-0.381082
-0.372456
-0.554642
-0.52607
-0.504101
-0.484163
-0.464438
-0.445291
-0.426938
-0.408889
-0.390838
-0.38016
-0.596151
-0.562405
-0.536265
-0.512681
-0.48954
-0.467161
-0.445674
-0.424259
-0.402005
-0.388002
-0.642732
-0.603024
-0.572272
-0.544797
-0.518068
-0.492279
-0.467305
-0.441612
-0.412939
-0.392453
-0.693839
-0.64764
-0.612049
-0.5807
-0.550658
-0.522061
-0.49449
-0.465565
-0.431378
-0.402523
-1.16531
-1.14874
-1.11959
-1.08022
-1.03287
-0.979723
-0.922887
-0.864249
-0.805463
-0.748082
-1.06849
-1.05365
-1.02739
-0.991841
-0.949143
-0.901371
-0.850481
-0.798232
-0.746154
-0.695573
-0.985521
-0.974448
-0.952415
-0.921415
-0.883486
-0.840642
-0.794784
-0.747631
-0.700674
-0.655145
-0.907509
-0.901368
-0.884524
-0.858762
-0.825984
-0.78811
-0.746988
-0.704316
-0.661598
-0.620066
-0.831254
-0.8303
-0.819001
-0.798879
-0.771621
-0.738981
-0.702679
-0.664339
-0.62546
-0.587269
-0.759029
-0.762903
-0.756968
-0.742468
-0.720832
-0.693574
-0.662201
-0.628142
-0.592792
-0.557297
-0.692298
-0.70029
-0.699172
-0.689941
-0.673775
-0.651924
-0.625602
-0.595893
-0.563901
-0.530489
-0.631509
-0.642846
-0.645867
-0.641394
-0.630414
-0.613953
-0.592926
-0.567921
-0.539344
-0.507005
-0.576473
-0.590512
-0.597095
-0.596954
-0.590991
-0.580143
-0.565163
-0.546177
-0.522355
-0.490012
-0.527164
-0.542531
-0.551425
-0.554553
-0.552833
-0.547303
-0.538927
-0.528102
-0.514002
-0.490093
-0.450076
-0.584867
-0.710098
-0.823535
-0.922914
-1.00643
-1.07288
-1.12163
-1.15267
-1.1667
-0.400795
-0.526413
-0.643322
-0.749228
-0.841999
-0.919956
-0.981971
-1.02749
-1.05656
-1.06978
-0.334541
-0.452809
-0.563716
-0.664933
-0.754365
-0.830327
-0.89163
-0.937621
-0.968197
-0.983803
-0.265609
-0.376441
-0.481417
-0.57824
-0.664847
-0.739551
-0.801096
-0.848692
-0.882053
-0.90139
-0.202587
-0.305528
-0.404041
-0.495856
-0.578973
-0.651767
-0.712976
-0.761734
-0.79761
-0.820606
-0.148787
-0.243982
-0.335971
-0.42244
-0.501502
-0.571664
-0.631723
-0.680806
-0.718405
-0.744378
-0.104245
-0.192281
-0.278159
-0.359316
-0.434063
-0.501108
-0.559348
-0.607952
-0.646396
-0.674463
-0.0672475
-0.148379
-0.228799
-0.305049
-0.375628
-0.439475
-0.495599
-0.543232
-0.581875
-0.611282
-0.0367044
-0.110711
-0.186236
-0.258101
-0.324853
-0.385618
-0.439525
-0.485899
-0.524297
-0.554483
-0.0200813
-0.089283
-0.159991
-0.226618
-0.288431
-0.344854
-0.395141
-0.438768
-0.475403
-0.504864
0.525462
0.546463
0.568883
0.591855
0.614904
0.637368
0.658273
0.677026
0.698998
0.738
0.498716
0.516937
0.536857
0.556916
0.576439
0.594699
0.61064
0.623704
0.639613
0.673359
0.464491
0.478954
0.495556
0.511786
0.526713
0.539565
0.549262
0.555378
0.564061
0.591351
0.423089
0.432929
0.445482
0.457037
0.46638
0.472731
0.475027
0.473075
0.473499
0.493209
0.374902
0.379412
0.387304
0.393444
0.39634
0.395242
0.389156
0.378215
0.369551
0.380732
0.320398
0.319077
0.321858
0.32198
0.317724
0.308418
0.293193
0.272589
0.254248
0.256145
0.260135
0.252728
0.250152
0.243819
0.23189
0.213841
0.188976
0.158315
0.129978
0.122039
0.194846
0.181377
0.173416
0.160352
0.14042
0.113331
0.0786033
0.037793
-0.000579572
-0.0186811
0.125333
0.106554
0.0933928
0.073324
0.0451672
0.00894928
-0.0355962
-0.0863491
-0.134513
-0.162875
0.0500299
0.0289067
0.0110253
-0.016032
-0.0521551
-0.0972028
-0.151189
-0.211363
-0.268839
-0.307478
0.380347
0.383653
0.39415
0.402473
0.409001
0.415467
0.42347
0.435371
0.454032
0.476584
0.428847
0.433468
0.445194
0.456589
0.467006
0.477628
0.489711
0.505292
0.527852
0.556754
0.467749
0.476143
0.490395
0.505229
0.519688
0.534507
0.550636
0.569777
0.595879
0.630409
0.499812
0.512287
0.529397
0.54751
0.565728
0.584467
0.604363
0.626736
0.655855
0.695127
0.52528
0.541462
0.561269
0.582302
0.603816
0.625982
0.649125
0.674171
0.705594
0.748606
0.543878
0.563159
0.585239
0.608651
0.632815
0.657703
0.683344
0.710277
0.743113
0.788743
0.55534
0.576938
0.600684
0.625773
0.65177
0.678479
0.705659
0.733492
0.766688
0.813714
0.559398
0.582399
0.607079
0.633027
0.659909
0.687382
0.714966
0.742536
0.77491
0.822037
0.555837
0.579234
0.604032
0.629942
0.656661
0.683723
0.710443
0.73646
0.766735
0.81263
0.54453
0.567264
0.591314
0.616236
0.641685
0.667086
0.691589
0.714677
0.741506
0.784777
0.335136
0.290366
0.239217
0.18755
0.13634
0.0863468
0.038408
-0.00695616
-0.0494252
-0.0887968
0.339779
0.292218
0.239303
0.184826
0.130802
0.0782895
0.0281289
-0.0190486
-0.0628119
-0.102899
0.343444
0.290174
0.233669
0.176374
0.120009
0.0656281
0.0141088
-0.0338584
-0.0778073
-0.117478
0.346177
0.287855
0.227712
0.167507
0.108759
0.0525861
-9.26344e-05
-0.0485794
-0.092429
-0.131437
0.348068
0.28534
0.22165
0.158548
0.0975113
0.0397197
-0.0138958
-0.06267
-0.10622
-0.144439
0.350089
0.283186
0.216024
0.150146
0.0870174
0.0278268
-0.0265262
-0.0754474
-0.118652
-0.156157
0.353889
0.283112
0.212679
0.144185
0.0790861
0.0185421
-0.0366117
-0.0858739
-0.129067
-0.166329
0.362001
0.287698
0.214146
0.142998
0.0757095
0.0134043
-0.0431405
-0.0934958
-0.137557
-0.175538
0.376505
0.298011
0.220375
0.145333
0.0743756
0.00865505
-0.0510331
-0.104246
-0.15087
-0.191111
0.392446
0.306823
0.221989
0.139842
0.0619976
-0.0102372
-0.0759109
-0.134449
-0.185655
-0.229654
-0.125034
-0.158194
-0.188514
-0.216332
-0.242042
-0.266043
-0.288619
-0.309758
-0.32997
-0.340175
-0.139259
-0.171923
-0.201135
-0.227229
-0.250586
-0.271559
-0.290326
-0.306689
-0.320286
-0.324442
-0.152866
-0.184031
-0.211298
-0.235082
-0.255847
-0.274034
-0.289931
-0.303581
-0.314923
-0.320649
-0.165698
-0.195347
-0.220833
-0.242688
-0.261482
-0.277761
-0.291948
-0.304274
-0.314762
-0.321554
-0.177557
-0.2058
-0.229757
-0.250072
-0.267405
-0.282383
-0.295499
-0.307052
-0.317027
-0.324267
-0.188343
-0.215511
-0.238378
-0.257665
-0.274081
-0.288276
-0.300753
-0.311799
-0.321369
-0.328754
-0.19817
-0.224926
-0.247394
-0.266327
-0.282429
-0.296323
-0.308474
-0.319129
-0.32824
-0.335401
-0.208022
-0.235323
-0.258267
-0.277588
-0.293953
-0.307931
-0.319937
-0.330184
-0.338655
-0.345159
-0.225514
-0.254412
-0.278603
-0.298802
-0.315655
-0.329706
-0.341338
-0.350758
-0.358013
-0.363057
-0.266729
-0.297615
-0.32297
-0.343579
-0.360181
-0.373366
-0.383534
-0.390906
-0.395605
-0.397651
-0.396874
-0.365999
-0.349714
-0.340414
-0.333374
-0.327309
-0.32108
-0.312153
-0.296702
-0.282987
-0.394903
-0.367373
-0.352704
-0.344077
-0.337241
-0.331071
-0.324741
-0.316558
-0.304408
-0.296419
-0.392047
-0.367692
-0.354629
-0.346799
-0.340467
-0.334716
-0.328969
-0.322204
-0.313614
-0.309457
-0.388899
-0.367464
-0.355914
-0.348876
-0.343088
-0.337799
-0.332576
-0.326739
-0.319982
-0.31696
-0.386096
-0.367224
-0.357026
-0.350708
-0.345428
-0.34058
-0.335847
-0.33077
-0.325221
-0.322479
-0.384224
-0.367503
-0.358434
-0.352698
-0.347807
-0.343279
-0.338884
-0.334309
-0.329511
-0.326721
-0.383835
-0.368807
-0.360597
-0.355245
-0.350556
-0.346158
-0.341887
-0.337533
-0.333101
-0.330102
-0.385457
-0.371624
-0.363956
-0.358745
-0.354031
-0.349537
-0.345163
-0.34077
-0.336398
-0.333111
-0.389595
-0.376407
-0.368927
-0.363579
-0.358579
-0.353743
-0.34903
-0.344353
-0.339775
-0.336157
-0.396618
-0.38355
-0.375888
-0.370097
-0.364523
-0.359075
-0.353772
-0.348564
-0.343528
-0.339541
-0.335285
-0.283225
-0.252162
-0.209575
-0.175309
-0.142512
-0.115397
-0.0928167
-0.0753602
-0.062207
-0.0526168
-0.0454625
-0.0396151
-0.0335996
-0.0266267
-0.0186196
-0.0116414
-0.00591221
-0.00346665
0.00197987
-0.341681
-0.285936
-0.254889
-0.211796
-0.176854
-0.143254
-0.115233
-0.0918919
-0.074017
-0.0609649
-0.0520063
-0.0457586
-0.0406632
-0.0348934
-0.0276764
-0.019182
-0.0117744
-0.00577135
-0.00329968
0.00203528
-0.349934
-0.289234
-0.258079
-0.214446
-0.178759
-0.14438
-0.115458
-0.0913564
-0.0730243
-0.0600004
-0.05158
-0.0461442
-0.041719
-0.0361476
-0.0286843
-0.0197349
-0.0119287
-0.00566352
-0.0031556
0.00207346
-0.359879
-0.293121
-0.261637
-0.217483
-0.181013
-0.1459
-0.116105
-0.0912518
-0.0724246
-0.0593454
-0.0513491
-0.0466095
-0.0427626
-0.0373451
-0.0296413
-0.0202748
-0.0121034
-0.00558936
-0.00303504
0.00209433
-0.371261
-0.297644
-0.265468
-0.220866
-0.183603
-0.147817
-0.117188
-0.0916008
-0.0722426
-0.0590176
-0.0513168
-0.0471431
-0.0437776
-0.0384743
-0.0305428
-0.0208001
-0.012297
-0.00554802
-0.00293703
0.00209837
-0.383698
-0.30289
-0.269487
-0.224538
-0.186495
-0.15011
-0.1187
-0.092402
-0.0724815
-0.0590193
-0.0514782
-0.047732
-0.0447497
-0.0395263
-0.0313858
-0.0213093
-0.0125077
-0.00553845
-0.00286078
0.00208598
-0.396803
-0.309178
-0.273765
-0.228518
-0.189721
-0.152804
-0.120666
-0.0936762
-0.0731571
-0.0593576
-0.051828
-0.0483604
-0.0456609
-0.0404895
-0.0321669
-0.021803
-0.0127363
-0.00556105
-0.00280641
0.00205772
-0.410332
-0.317455
-0.278873
-0.233179
-0.193585
-0.156148
-0.123291
-0.0955812
-0.0743818
-0.0601003
-0.0523916
-0.0490201
-0.0464899
-0.0413489
-0.0328849
-0.0222878
-0.012991
-0.0056213
-0.00277764
0.00201332
-0.421805
-0.327928
-0.2852
-0.238785
-0.198267
-0.160263
-0.126651
-0.0981588
-0.076179
-0.0612686
-0.0531974
-0.0497487
-0.0472793
-0.0421436
-0.033566
-0.0227728
-0.0132696
-0.005714
-0.00277015
0.0019547
-0.420179
-0.334824
-0.289677
-0.242916
-0.201686
-0.163319
-0.129163
-0.1001
-0.0775588
-0.0622336
-0.0539894
-0.0505957
-0.0482309
-0.0430565
-0.0342785
-0.023223
-0.0134875
-0.00576764
-0.00273146
0.00189612
-0.395002
-0.333072
-0.289664
-0.243705
-0.202329
-0.164004
-0.129625
-0.100292
-0.0775146
-0.0622072
-0.0543714
-0.051657
-0.0498045
-0.0446166
-0.0353811
-0.0237837
-0.0136228
-0.00570607
-0.00256478
0.00182948
-0.378607
-0.327311
-0.284307
-0.240513
-0.20065
-0.163804
-0.130449
-0.1018
-0.0793614
-0.0641289
-0.0561692
-0.0532173
-0.0510451
-0.0455008
-0.0359376
-0.0241375
-0.013838
-0.00584177
-0.00255013
0.00163314
-0.358879
-0.314855
-0.273347
-0.233495
-0.196814
-0.16252
-0.131035
-0.103688
-0.081967
-0.0668918
-0.058567
-0.0549247
-0.0520229
-0.0459672
-0.0361629
-0.0243466
-0.0140615
-0.00607189
-0.00261054
0.00135609
-0.328254
-0.2948
-0.25788
-0.223477
-0.191372
-0.16057
-0.131627
-0.10601
-0.0852224
-0.0702953
-0.0613935
-0.0567452
-0.0528518
-0.0461909
-0.0362015
-0.0244872
-0.0143048
-0.00638495
-0.00272485
0.00100123
-0.288362
-0.2679
-0.238862
-0.210896
-0.184243
-0.157773
-0.132042
-0.108598
-0.0889759
-0.0742122
-0.0645518
-0.0586065
-0.0534757
-0.0461318
-0.0360363
-0.0245631
-0.0145835
-0.00679877
-0.00291164
0.000569506
-0.245893
-0.237113
-0.21763
-0.196631
-0.175661
-0.153951
-0.131919
-0.111027
-0.092799
-0.0782803
-0.0678074
-0.0604173
-0.0539082
-0.045846
-0.0357211
-0.0246085
-0.0149147
-0.00731579
-0.00318064
8.20346e-05
-0.207036
-0.206391
-0.195943
-0.18187
-0.166316
-0.149241
-0.131009
-0.112845
-0.0961689
-0.082027
-0.0708584
-0.0621078
-0.054263
-0.0455076
-0.0353896
-0.0246841
-0.0153078
-0.00791273
-0.00352256
-0.000418599
-0.175228
-0.179294
-0.17587
-0.167913
-0.157157
-0.144143
-0.129363
-0.113806
-0.0986989
-0.085059
-0.0734319
-0.0636083
-0.054652
-0.0452944
-0.0351735
-0.0248326
-0.0157445
-0.00853518
-0.00390503
-0.000876473
-0.152189
-0.158567
-0.159718
-0.156352
-0.149371
-0.139507
-0.127435
-0.114013
-0.100272
-0.0871656
-0.0753266
-0.0648056
-0.0550735
-0.0452673
-0.0351195
-0.0250389
-0.0161629
-0.00909308
-0.00426604
-0.00123419
-0.139281
-0.146563
-0.150014
-0.149228
-0.144492
-0.136494
-0.12602
-0.11389
-0.101013
-0.0882852
-0.076387
-0.0655221
-0.0553837
-0.0453322
-0.0351575
-0.0252148
-0.0164515
-0.00945945
-0.00451092
-0.0014405
-0.457498
-0.470282
-0.477718
-0.480333
-0.478984
-0.47497
-0.470167
-0.467198
-0.471097
-0.493769
-0.377659
-0.391174
-0.401736
-0.409855
-0.416219
-0.421664
-0.427079
-0.433185
-0.440082
-0.453307
-0.312249
-0.325361
-0.33694
-0.347177
-0.356226
-0.36417
-0.371038
-0.376972
-0.382002
-0.391845
-0.256722
-0.268343
-0.278915
-0.288486
-0.297114
-0.304899
-0.312017
-0.318781
-0.325239
-0.333856
-0.210444
-0.220495
-0.229866
-0.238598
-0.24674
-0.254353
-0.261491
-0.268205
-0.274427
-0.280885
-0.172867
-0.181461
-0.18958
-0.197232
-0.204426
-0.211173
-0.217485
-0.223384
-0.228883
-0.234091
-0.143089
-0.150368
-0.157286
-0.163839
-0.170026
-0.175849
-0.181314
-0.186429
-0.191198
-0.195583
-0.120571
-0.126784
-0.132708
-0.138334
-0.143652
-0.14866
-0.153355
-0.157739
-0.161813
-0.165554
-0.104902
-0.110328
-0.115511
-0.120437
-0.125097
-0.129485
-0.133597
-0.137431
-0.140989
-0.144267
-0.0963898
-0.101322
-0.106037
-0.110525
-0.114779
-0.118794
-0.122565
-0.126093
-0.129376
-0.132419
-0.031428
-0.0957157
-0.158627
-0.213479
-0.263434
-0.309107
-0.349819
-0.385165
-0.414964
-0.439091
-0.0490701
-0.0988391
-0.146593
-0.187182
-0.223892
-0.25804
-0.289102
-0.316628
-0.340531
-0.360846
-0.0599248
-0.0997364
-0.134954
-0.16479
-0.191912
-0.217295
-0.240666
-0.261765
-0.280627
-0.2974
-0.0646631
-0.0955771
-0.120482
-0.141683
-0.16162
-0.180666
-0.198504
-0.214972
-0.230106
-0.243999
-0.0638786
-0.0867921
-0.104339
-0.119558
-0.134437
-0.149007
-0.162888
-0.175941
-0.188191
-0.199684
-0.058975
-0.0754939
-0.0882735
-0.0997489
-0.111235
-0.122656
-0.133688
-0.144216
-0.154245
-0.163796
-0.0525155
-0.0644931
-0.0742574
-0.0833505
-0.0925125
-0.101663
-0.110588
-0.119201
-0.127493
-0.13546
-0.0463321
-0.0553186
-0.0631589
-0.0706721
-0.0782261
-0.0857649
-0.0931644
-0.100364
-0.107342
-0.114085
-0.0414365
-0.048617
-0.0552843
-0.0617852
-0.0682835
-0.0747487
-0.0811125
-0.0873323
-0.093384
-0.0992473
-0.0385498
-0.0449223
-0.0510773
-0.0571035
-0.0630713
-0.0689706
-0.0747645
-0.0804229
-0.0859248
-0.0912526
0.202709
0.203651
0.20605
0.209311
0.213757
0.217
0.219404
0.20942
0.185487
0.0800663
0.194359
0.19486
0.196202
0.197729
0.199344
0.198529
0.194489
0.176242
0.139321
0.0404281
0.184405
0.184444
0.184649
0.184315
0.183027
0.178312
0.168696
0.14527
0.103555
0.0215903
0.172721
0.172254
0.171243
0.168984
0.16481
0.156579
0.14238
0.116362
0.0735993
0.00506277
0.159364
0.158386
0.156187
0.152116
0.145373
0.134339
0.11699
0.0901863
0.0489305
-0.008766
0.144648
0.143206
0.13997
0.134381
0.125659
0.112736
0.0938296
0.0676084
0.030108
-0.0175837
0.129262
0.12745
0.123432
0.11676
0.106803
0.0929483
0.0739257
0.0493728
0.016879
-0.0218387
0.114369
0.112315
0.107828
0.100563
0.0901043
0.0761591
0.0580232
0.035748
0.00821796
-0.0231906
0.101706
0.099538
0.0948684
0.0874333
0.0770062
0.063498
0.0466286
0.0265803
0.00301133
-0.0231329
0.0937112
0.0915119
0.0868242
0.0794311
0.0692169
0.0561914
0.0402933
0.0217298
0.000498283
-0.0227161
0.238606
0.240654
0.246262
0.254984
0.268635
0.286749
0.313868
0.348799
0.401349
0.468587
0.236064
0.238038
0.243456
0.25185
0.265004
0.282305
0.308203
0.341029
0.389957
0.451073
0.23329
0.235187
0.240394
0.248423
0.261012
0.277362
0.301827
0.332011
0.376444
0.429284
0.230297
0.232115
0.237093
0.244722
0.256682
0.271954
0.294783
0.321799
0.360949
0.403329
0.227098
0.228836
0.233571
0.24077
0.252041
0.266118
0.287118
0.310458
0.343641
0.373312
0.223709
0.225369
0.229847
0.236591
0.247113
0.259893
0.278876
0.298065
0.324699
0.339304
0.220146
0.221734
0.22595
0.232223
0.241947
0.253352
0.270138
0.28476
0.30435
0.301391
0.21643
0.217963
0.221926
0.227736
0.236644
0.246649
0.261098
0.270826
0.282906
0.259581
0.212573
0.214064
0.217781
0.223131
0.231197
0.239778
0.25172
0.256254
0.260149
0.212735
0.208564
0.209942
0.213284
0.217997
0.224922
0.231733
0.240506
0.239398
0.233667
0.159111
0.25031
0.252725
0.258851
0.26855
0.283118
0.302052
0.328517
0.357232
0.39522
0.405427
0.250238
0.252663
0.258907
0.268767
0.283717
0.303282
0.331224
0.36283
0.406825
0.433426
0.249933
0.252332
0.258585
0.268431
0.283451
0.303198
0.331794
0.365267
0.413277
0.453405
0.249395
0.251769
0.258018
0.267844
0.282914
0.302824
0.331964
0.367115
0.418573
0.469562
0.248615
0.250962
0.257197
0.266988
0.282077
0.302111
0.331665
0.368221
0.422499
0.482061
0.247585
0.2499
0.256097
0.265817
0.280857
0.300906
0.330651
0.368184
0.424476
0.490509
0.2463
0.248577
0.254708
0.264315
0.279227
0.299165
0.328859
0.366892
0.424329
0.494782
0.244759
0.246988
0.253028
0.262479
0.277188
0.296881
0.326286
0.364324
0.421992
0.494798
0.24296
0.245136
0.251057
0.260308
0.274739
0.294049
0.322928
0.360459
0.417399
0.490468
0.240907
0.243022
0.248799
0.257808
0.271885
0.290669
0.318785
0.355283
0.410515
0.481733
0.205286
0.203891
0.200902
0.196127
0.189357
0.180376
0.16888
0.154686
0.137459
0.117342
0.210247
0.209044
0.206436
0.202185
0.195996
0.187535
0.176332
0.162042
0.144064
0.122448
0.21767
0.216813
0.214911
0.211673
0.206686
0.199413
0.189109
0.175067
0.156198
0.132241
0.225684
0.225297
0.224392
0.222639
0.219535
0.214289
0.205861
0.192906
0.173678
0.147063
0.233085
0.233244
0.23354
0.233641
0.233033
0.230674
0.225339
0.21473
0.196442
0.167406
0.239227
0.239948
0.241532
0.243681
0.245985
0.247219
0.246206
0.239443
0.224169
0.193635
0.243885
0.245131
0.247972
0.252173
0.257545
0.262807
0.267123
0.265703
0.255983
0.225502
0.247107
0.248806
0.252784
0.258884
0.267222
0.276624
0.286883
0.292162
0.290442
0.261363
0.249084
0.251144
0.256084
0.263809
0.27479
0.288102
0.304381
0.317472
0.326083
0.299481
0.250077
0.252381
0.258061
0.267032
0.280165
0.296815
0.318747
0.340268
0.362883
0.346151
0.102821
0.0966944
0.0904076
0.0840777
0.0776858
0.0712188
0.0646922
0.0581315
0.0515607
0.0450008
0.106375
0.0995439
0.0925223
0.0855206
0.0784624
0.0712958
0.0640359
0.0567203
0.0493825
0.0420499
0.11352
0.105182
0.0965101
0.0880679
0.0796812
0.0711879
0.062583
0.0539213
0.0452491
0.0365971
0.124836
0.114172
0.10283
0.0921289
0.0817392
0.0712755
0.0606828
0.0500443
0.0394268
0.028861
0.141119
0.127241
0.111993
0.0980724
0.0849225
0.071768
0.0584646
0.0451457
0.0319099
0.018782
0.163293
0.145279
0.124635
0.106348
0.089561
0.0728821
0.0560414
0.0392619
0.0226837
0.00631311
0.192266
0.169334
0.141607
0.117632
0.0961486
0.0748963
0.0535122
0.0323716
0.011648
-0.00869353
0.228061
0.199563
0.163151
0.132297
0.104911
0.0777893
0.0507156
0.0242616
-0.0014203
-0.0264257
0.270581
0.235482
0.189733
0.151368
0.116581
0.0819908
0.0479347
0.015096
-0.0163808
-0.0465144
0.318381
0.274714
0.221108
0.174
0.129202
0.085228
0.0429227
0.00281589
-0.0348855
-0.0700049
0.0384717
0.0319924
0.0255808
0.0192537
0.0130262
0.00691233
0.00092419
-0.00492747
-0.0106334
-0.0161842
0.0347481
0.0275024
0.020337
0.0132748
0.00633659
-0.000458627
-0.00709389
-0.013555
-0.0198303
-0.025885
0.0279908
0.0194557
0.0110169
0.00269784
-0.00548022
-0.0134982
-0.0213392
-0.0289891
-0.0364382
-0.0435981
0.0183665
0.00796412
-0.00232433
-0.0124785
-0.022481
-0.0323171
-0.0419741
-0.0514416
-0.0607197
-0.0696756
0.00576591
-0.00712971
-0.0198916
-0.0325075
-0.0449681
-0.0572666
-0.0694012
-0.0813758
-0.0932241
-0.10499
-0.00987355
-0.0258879
-0.0417365
-0.0574325
-0.0729972
-0.0884552
-0.10383
-0.119127
-0.134412
-0.150386
-0.0287095
-0.0484274
-0.0678646
-0.0870469
-0.106022
-0.124873
-0.143725
-0.162695
-0.182162
-0.203737
-0.0508571
-0.0747916
-0.0983006
-0.12144
-0.144238
-0.166709
-0.188893
-0.210883
-0.233956
-0.260252
-0.0753352
-0.102924
-0.129463
-0.155231
-0.180577
-0.205881
-0.231488
-0.257727
-0.286822
-0.317851
-0.102417
-0.132101
-0.159231
-0.184214
-0.207724
-0.230699
-0.254228
-0.279782
-0.312982
-0.355808
-0.0293412
-0.0482054
-0.0647254
-0.0778056
-0.0867613
-0.0914082
-0.0919433
-0.0887883
-0.0824382
-0.0734702
-0.0625818
-0.0507979
-0.0392845
-0.0294853
-0.0222286
-0.0179444
-0.0148991
-0.0118529
-0.00699571
-0.00270582
-0.0405653
-0.0601397
-0.076047
-0.0877407
-0.0949701
-0.097835
-0.0967374
-0.0922026
-0.0847124
-0.0747644
-0.0629814
-0.0503917
-0.0382384
-0.0281542
-0.0210789
-0.0173625
-0.0148786
-0.0120888
-0.00726046
-0.00266901
-0.0609874
-0.0812783
-0.0955649
-0.104448
-0.108427
-0.108128
-0.104303
-0.0975785
-0.0883338
-0.0768777
-0.0636799
-0.049773
-0.0365463
-0.0259686
-0.019178
-0.0163738
-0.0148018
-0.0124057
-0.00769617
-0.00253976
-0.0900127
-0.11005
-0.121241
-0.125615
-0.12475
-0.120152
-0.112938
-0.103683
-0.092509
-0.0793959
-0.0645873
-0.0491314
-0.0346262
-0.0234663
-0.0169897
-0.0151805
-0.0145864
-0.0126046
-0.00811469
-0.00228239
-0.126186
-0.144205
-0.150801
-0.148759
-0.141538
-0.131899
-0.121079
-0.109368
-0.0964621
-0.0818803
-0.065591
-0.048671
-0.0329596
-0.0212621
-0.0150361
-0.0140057
-0.0141703
-0.0125157
-0.00833684
-0.00190215
-0.165706
-0.180118
-0.18108
-0.17085
-0.156406
-0.141638
-0.127446
-0.113673
-0.0994828
-0.083863
-0.0664988
-0.0484889
-0.0318925
-0.0198128
-0.013717
-0.0130606
-0.013593
-0.012108
-0.00828939
-0.00144231
-0.202685
-0.213611
-0.208332
-0.18904
-0.167748
-0.148438
-0.13143
-0.116129
-0.101159
-0.0850058
-0.0671023
-0.0485345
-0.0315131
-0.0192765
-0.0132022
-0.0124945
-0.0129781
-0.0114759
-0.00800681
-0.000957488
-0.233097
-0.241871
-0.229829
-0.202176
-0.175448
-0.152485
-0.133308
-0.116946
-0.101573
-0.0852843
-0.0673134
-0.04869
-0.0316927
-0.0195301
-0.0134166
-0.0123385
-0.012447
-0.0107593
-0.00758084
-0.000493473
-0.259374
-0.264227
-0.24498
-0.210936
-0.180365
-0.154581
-0.133789
-0.116661
-0.101078
-0.0848781
-0.0671507
-0.0488358
-0.0322027
-0.0202986
-0.0141307
-0.0125087
-0.0120535
-0.0100658
-0.00710405
-7.88224e-05
-0.288591
-0.280154
-0.253775
-0.215719
-0.182814
-0.155019
-0.133042
-0.115252
-0.0994948
-0.0835215
-0.066339
-0.048748
-0.0328943
-0.0214991
-0.015296
-0.0129704
-0.0117693
-0.00938155
-0.00659166
0.000292816
-0.317556
-0.285097
-0.255379
-0.216456
-0.183101
-0.1543
-0.13137
-0.11273
-0.0965918
-0.0808812
-0.0646054
-0.0483266
-0.0338512
-0.0233034
-0.0170479
-0.0137674
-0.0115758
-0.00869428
-0.0060511
0.000604404
-0.33135
-0.285883
-0.254393
-0.214451
-0.181004
-0.151975
-0.128982
-0.110273
-0.0942186
-0.0788242
-0.0631447
-0.047661
-0.0340202
-0.0240242
-0.0178385
-0.0141361
-0.01146
-0.0083099
-0.00573093
0.000800767
-0.334827
-0.284201
-0.252143
-0.211475
-0.178288
-0.149368
-0.126561
-0.107925
-0.0919973
-0.0768747
-0.0616972
-0.0469126
-0.03404
-0.024585
-0.0185142
-0.0144819
-0.0113922
-0.00798855
-0.00544559
0.000979348
-0.334156
-0.282283
-0.250272
-0.209202
-0.176267
-0.147313
-0.124481
-0.105739
-0.0898373
-0.0749729
-0.0603468
-0.0463298
-0.0342649
-0.0253338
-0.0193167
-0.0148908
-0.0113491
-0.00767347
-0.0051624
0.00114861
-0.33232
-0.280745
-0.248874
-0.207576
-0.174812
-0.145648
-0.122586
-0.103576
-0.0876203
-0.0730277
-0.0590344
-0.0458839
-0.0346845
-0.0262627
-0.020235
-0.0153521
-0.0113236
-0.00736144
-0.00488061
0.00130833
-0.330182
-0.27963
-0.2479
-0.206468
-0.173784
-0.144277
-0.120829
-0.101432
-0.0853643
-0.0710522
-0.0577528
-0.0455434
-0.0352475
-0.0273161
-0.021227
-0.0158496
-0.0113185
-0.00706202
-0.00460659
0.00145642
-0.328401
-0.27902
-0.247446
-0.205917
-0.173195
-0.14322
-0.119246
-0.0993598
-0.0831213
-0.0690877
-0.0565242
-0.0453085
-0.0359349
-0.0284667
-0.022271
-0.0163753
-0.0113363
-0.00678122
-0.00434453
0.00159138
-0.327622
-0.279031
-0.247616
-0.205965
-0.173066
-0.142505
-0.117877
-0.0974089
-0.0809427
-0.0671755
-0.0553728
-0.0451839
-0.0367345
-0.0296947
-0.023351
-0.0169225
-0.0113777
-0.00652263
-0.00409705
0.00171226
-0.328332
-0.279734
-0.248465
-0.206612
-0.17339
-0.142144
-0.116755
-0.0956311
-0.0788829
-0.0653595
-0.054322
-0.04517
-0.0376285
-0.0309763
-0.0244486
-0.0174837
-0.0114425
-0.00628981
-0.00386698
0.00181779
-0.330838
-0.281142
-0.249995
-0.20783
-0.174146
-0.142145
-0.115917
-0.0940813
-0.0770016
-0.063687
-0.0533955
-0.0452643
-0.0385963
-0.0322864
-0.0255461
-0.0180517
-0.0115306
-0.00608557
-0.00365615
0.00190728
)
;

boundaryField
{
    inlet
    {
        type            freestreamPressure;
        freestreamValue uniform 0;
        supersonic      false;
        value           nonuniform List<scalar> 
40
(
0.202709
0.194359
0.184405
0.172721
0.159364
0.144648
0.129262
0.114369
0.101706
0.0937112
0.238606
0.236064
0.23329
0.230297
0.227098
0.223709
0.220146
0.21643
0.212573
0.208564
0.25031
0.250238
0.249933
0.249395
0.248615
0.247585
0.2463
0.244759
0.24296
0.240907
0.205286
0.210247
0.21767
0.225684
0.233085
0.239227
0.243885
0.247107
0.249084
0.250077
)
;
    }
    outlet
    {
        type            freestreamPressure;
        freestreamValue uniform 0;
        supersonic      false;
        value           nonuniform List<scalar> 
40
(
9.58647e-08
1.07997e-07
1.0572e-07
8.52115e-08
4.82398e-08
6.16935e-09
-2.40871e-08
-3.1131e-08
-1.83826e-08
-2.62161e-09
1.59948e-08
4.9598e-09
2.19912e-10
1.52757e-09
8.13074e-09
1.89038e-08
3.25044e-08
4.75109e-08
6.2603e-08
7.70304e-08
1.38578e-07
1.60395e-07
1.67618e-07
1.63646e-07
1.5048e-07
1.30343e-07
1.05876e-07
7.98327e-08
5.47879e-08
3.29454e-08
-2.82152e-08
-2.24529e-07
-4.95984e-07
-6.95766e-07
-7.27395e-07
-5.9901e-07
-3.90301e-07
-1.83626e-07
-2.54144e-08
7.8952e-08
)
;
    }
    top
    {
        type            symmetryPlane;
    }
    bottom
    {
        type            symmetryPlane;
    }
    cylinder
    {
        type            zeroGradient;
    }
    frontandback
    {
        type            empty;
    }
}


// ************************************************************************* //
