/*--------------------------------*- C++ -*----------------------------------*\
| =========                 |                                                 |
| \\      /  F ield         | OpenFOAM: The Open Source CFD Toolbox           |
|  \\    /   O peration     | Version:  v1912                                 |
|   \\  /    A nd           | Website:  www.openfoam.com                      |
|    \\/     M anipulation  |                                                 |
\*---------------------------------------------------------------------------*/
FoamFile
{
    version     2.0;
    format      ascii;
    class       volScalarField;
    location    "13";
    object      p;
}
// * * * * * * * * * * * * * * * * * * * * * * * * * * * * * * * * * * * * * //

dimensions      [0 2 -2 0 0 0 0];


internalField   nonuniform List<scalar> 
2400
(
-0.406197
-0.392682
-0.38469
-0.378155
-0.371689
-0.36534
-0.35919
-0.353198
-0.347383
-0.342884
-0.420009
-0.405505
-0.396532
-0.388834
-0.381121
-0.373536
-0.366222
-0.359155
-0.352317
-0.347272
-0.437823
-0.421662
-0.41127
-0.401996
-0.392653
-0.383481
-0.374673
-0.366193
-0.358066
-0.35245
-0.459933
-0.441328
-0.42915
-0.417845
-0.406462
-0.395333
-0.384675
-0.374423
-0.364601
-0.358217
-0.486739
-0.464591
-0.450444
-0.436585
-0.42274
-0.409274
-0.396397
-0.383971
-0.371992
-0.364571
-0.518441
-0.492228
-0.474934
-0.45834
-0.441705
-0.425547
-0.410089
-0.395066
-0.38038
-0.371516
-0.554719
-0.524294
-0.503224
-0.483379
-0.463613
-0.44447
-0.426135
-0.408137
-0.390137
-0.379162
-0.595989
-0.560737
-0.53535
-0.511861
-0.488689
-0.466317
-0.444851
-0.423505
-0.401335
-0.386932
-0.642441
-0.601404
-0.571327
-0.543948
-0.517197
-0.491416
-0.466465
-0.440858
-0.412271
-0.391127
-0.693513
-0.646037
-0.611092
-0.579841
-0.549784
-0.5212
-0.493654
-0.464788
-0.430517
-0.400623
-1.16565
-1.14904
-1.11983
-1.08039
-1.03295
-0.979714
-0.92279
-0.864069
-0.805212
-0.747779
-1.06723
-1.05232
-1.02599
-0.990385
-0.947635
-0.899823
-0.848906
-0.796643
-0.744559
-0.693974
-0.985014
-0.973881
-0.951783
-0.920718
-0.882725
-0.839823
-0.793917
-0.746727
-0.699741
-0.654194
-0.907151
-0.900944
-0.884031
-0.858201
-0.825356
-0.787421
-0.746247
-0.703532
-0.66078
-0.619223
-0.83091
-0.829884
-0.818514
-0.798324
-0.771001
-0.738302
-0.70195
-0.663567
-0.624648
-0.586426
-0.758742
-0.76254
-0.756536
-0.741971
-0.720275
-0.692965
-0.661545
-0.62744
-0.592044
-0.556503
-0.692077
-0.69999
-0.698806
-0.689518
-0.673303
-0.651411
-0.625052
-0.595301
-0.563259
-0.529789
-0.631347
-0.642596
-0.645552
-0.641031
-0.630014
-0.613528
-0.592479
-0.567441
-0.538821
-0.506449
-0.576423
-0.590359
-0.59687
-0.59668
-0.590687
-0.579825
-0.564836
-0.545827
-0.521973
-0.4896
-0.527261
-0.542552
-0.551399
-0.554502
-0.552784
-0.547285
-0.538962
-0.528189
-0.514071
-0.489806
-0.45012
-0.585544
-0.711204
-0.824178
-0.923283
-1.00674
-1.07319
-1.12196
-1.15303
-1.16706
-0.400411
-0.525516
-0.64208
-0.748191
-0.840989
-0.91892
-0.980911
-1.0264
-1.05542
-1.06859
-0.33426
-0.452462
-0.563394
-0.664805
-0.754112
-0.830006
-0.891281
-0.937248
-0.96779
-0.983351
-0.265334
-0.376162
-0.48115
-0.577922
-0.664648
-0.739351
-0.800884
-0.84847
-0.881802
-0.901091
-0.202235
-0.305168
-0.403708
-0.49555
-0.578743
-0.651553
-0.712773
-0.761538
-0.797389
-0.82033
-0.14833
-0.243531
-0.335583
-0.422117
-0.501231
-0.571457
-0.631559
-0.680677
-0.718258
-0.744168
-0.103693
-0.191778
-0.277753
-0.358994
-0.433821
-0.500951
-0.559248
-0.607918
-0.646343
-0.67433
-0.066627
-0.147965
-0.228514
-0.30484
-0.37551
-0.439496
-0.49567
-0.543379
-0.581954
-0.611232
-0.035557
-0.110156
-0.1859
-0.257838
-0.324662
-0.385521
-0.439697
-0.486329
-0.524601
-0.554581
-0.0166087
-0.0870555
-0.158267
-0.225131
-0.287085
-0.343515
-0.394413
-0.439111
-0.475814
-0.505089
0.525914
0.546824
0.569128
0.592035
0.615035
0.637454
0.658321
0.677011
0.698801
0.738138
0.499019
0.51723
0.537066
0.557066
0.576541
0.594754
0.610654
0.62365
0.639381
0.673427
0.464655
0.479197
0.495745
0.511915
0.526793
0.5396
0.549252
0.555298
0.563811
0.591369
0.42309
0.433123
0.445657
0.457151
0.466448
0.472755
0.475006
0.472985
0.473248
0.493195
0.37472
0.379565
0.387475
0.393552
0.396404
0.395266
0.389138
0.378132
0.369317
0.38071
0.320038
0.319215
0.322046
0.322097
0.317798
0.308459
0.293194
0.272529
0.254049
0.256138
0.259628
0.2529
0.250389
0.243968
0.231995
0.213915
0.189012
0.158296
0.129827
0.122074
0.194241
0.181652
0.173746
0.160562
0.140579
0.113458
0.0786936
0.0378324
-0.000671129
-0.0185796
0.124752
0.107037
0.0938655
0.073627
0.045406
0.00914757
-0.035439
-0.0862376
-0.134533
-0.162695
0.050094
0.0296865
0.011596
-0.0156319
-0.0518213
-0.0969276
-0.150966
-0.211169
-0.268733
-0.307288
0.379622
0.383647
0.394231
0.40256
0.409132
0.415644
0.423684
0.435607
0.454229
0.477007
0.428226
0.433447
0.445285
0.45669
0.467153
0.477826
0.489953
0.505552
0.528036
0.557243
0.467337
0.476118
0.490483
0.50535
0.519855
0.534723
0.550897
0.570049
0.596045
0.630944
0.499561
0.512281
0.529497
0.547654
0.565914
0.584696
0.604632
0.627011
0.656012
0.695687
0.52513
0.541463
0.561378
0.582466
0.604016
0.626216
0.649391
0.674432
0.705716
0.749162
0.543938
0.563225
0.585391
0.60885
0.633033
0.657936
0.683596
0.710512
0.743192
0.789269
0.555987
0.577322
0.600986
0.626037
0.65201
0.678706
0.705886
0.733688
0.766716
0.814185
0.559891
0.582929
0.607405
0.633272
0.660125
0.687578
0.715151
0.742681
0.774878
0.822435
0.556621
0.579856
0.604398
0.630195
0.656862
0.683887
0.710583
0.736549
0.766642
0.812944
0.545184
0.567749
0.59162
0.616457
0.641853
0.667211
0.691682
0.714711
0.741355
0.785002
0.335822
0.291217
0.2402
0.188427
0.137305
0.0881607
0.0382394
-0.00746723
-0.0498733
-0.0892294
0.339931
0.292336
0.239398
0.184886
0.130819
0.0783636
0.0275874
-0.0196193
-0.0632832
-0.103334
0.343548
0.290244
0.233714
0.176381
0.119924
0.0654685
0.0137302
-0.0342842
-0.0782167
-0.117889
0.346308
0.287985
0.227822
0.167571
0.108743
0.0525058
-0.000327933
-0.0489081
-0.0927975
-0.131838
0.348217
0.285481
0.221765
0.158626
0.0974972
0.0396377
-0.0140939
-0.0629608
-0.10657
-0.144837
0.350254
0.283328
0.216141
0.150285
0.0870003
0.0277265
-0.0267192
-0.0757251
-0.118997
-0.156559
0.354072
0.283252
0.212746
0.144111
0.0790326
0.0184254
-0.0368167
-0.0861628
-0.12943
-0.166757
0.362202
0.287843
0.214192
0.142998
0.0756834
0.0133154
-0.0433046
-0.0937335
-0.137863
-0.175905
0.376711
0.298246
0.2207
0.145615
0.0746157
0.00886627
-0.0508499
-0.104091
-0.150743
-0.191009
0.392786
0.307062
0.22209
0.139834
0.061858
-0.0105231
-0.0763508
-0.135044
-0.186397
-0.23053
-0.125497
-0.158716
-0.189119
-0.217038
-0.242865
-0.267001
-0.289731
-0.31104
-0.331366
-0.341597
-0.139694
-0.172377
-0.201624
-0.227767
-0.251182
-0.27222
-0.291061
-0.307504
-0.321194
-0.325579
-0.153295
-0.184488
-0.211793
-0.235625
-0.256441
-0.274681
-0.290637
-0.304343
-0.315746
-0.32159
-0.166136
-0.195824
-0.221353
-0.243254
-0.262093
-0.278418
-0.292649
-0.305014
-0.315538
-0.322358
-0.178
-0.206286
-0.230284
-0.250639
-0.268009
-0.283019
-0.296164
-0.307743
-0.317735
-0.324967
-0.188795
-0.216009
-0.238914
-0.258236
-0.274681
-0.288899
-0.301394
-0.312454
-0.322029
-0.329395
-0.198654
-0.225458
-0.247966
-0.266931
-0.283059
-0.296971
-0.309133
-0.319793
-0.328901
-0.336037
-0.208443
-0.235789
-0.25877
-0.278121
-0.294507
-0.308501
-0.320515
-0.330761
-0.339221
-0.345697
-0.225437
-0.254356
-0.278564
-0.298778
-0.315644
-0.329704
-0.341339
-0.35075
-0.357977
-0.362967
-0.26772
-0.298702
-0.324139
-0.344812
-0.361462
-0.374679
-0.384861
-0.392227
-0.396901
-0.398902
-0.398078
-0.365818
-0.350204
-0.340993
-0.333931
-0.327868
-0.321619
-0.312641
-0.296786
-0.281684
-0.396113
-0.367047
-0.353136
-0.344591
-0.337729
-0.331573
-0.325275
-0.317198
-0.305082
-0.296416
-0.393384
-0.367121
-0.354987
-0.347231
-0.340858
-0.335117
-0.329388
-0.322676
-0.314101
-0.309542
-0.390356
-0.366597
-0.356197
-0.349211
-0.343366
-0.338082
-0.332872
-0.32706
-0.320239
-0.316793
-0.38722
-0.366434
-0.357177
-0.350918
-0.345591
-0.340749
-0.336033
-0.330985
-0.325372
-0.322313
-0.384779
-0.366964
-0.358442
-0.352765
-0.347853
-0.343332
-0.338956
-0.334419
-0.32952
-0.326311
-0.384032
-0.368341
-0.360477
-0.355181
-0.35049
-0.346104
-0.341855
-0.337526
-0.333034
-0.329866
-0.385433
-0.371139
-0.363724
-0.358564
-0.353856
-0.349379
-0.345028
-0.340654
-0.336246
-0.332923
-0.389415
-0.375865
-0.368592
-0.363291
-0.3583
-0.353482
-0.34879
-0.344129
-0.339521
-0.335897
-0.396316
-0.382926
-0.375457
-0.369709
-0.364145
-0.358713
-0.35343
-0.348236
-0.343165
-0.339161
-0.336727
-0.280951
-0.25316
-0.209351
-0.176214
-0.143237
-0.116121
-0.0931333
-0.0753179
-0.0618892
-0.0523601
-0.0455382
-0.0402067
-0.0347746
-0.028147
-0.0199189
-0.0124083
-0.00629559
-0.00357928
0.00211894
-0.342904
-0.283704
-0.255871
-0.211784
-0.178034
-0.144288
-0.116189
-0.0922788
-0.0738292
-0.0603287
-0.0513795
-0.0455925
-0.0412347
-0.0362047
-0.0293485
-0.0205602
-0.0125459
-0.00611813
-0.00338354
0.00218404
-0.350945
-0.287067
-0.259065
-0.214639
-0.180172
-0.145684
-0.116613
-0.0918024
-0.0727006
-0.059062
-0.0505999
-0.0457474
-0.0422707
-0.0375845
-0.0304906
-0.0211813
-0.0127036
-0.00597716
-0.0032135
0.00223097
-0.360796
-0.290969
-0.262608
-0.21786
-0.18261
-0.147429
-0.117423
-0.0917469
-0.0719794
-0.0581307
-0.0500385
-0.0459963
-0.0432934
-0.0388919
-0.0315637
-0.0217791
-0.0128806
-0.00587318
-0.00306945
0.00225981
-0.372137
-0.295521
-0.266402
-0.221402
-0.185335
-0.149526
-0.118638
-0.0921386
-0.0716959
-0.0575618
-0.0497049
-0.0463306
-0.0442845
-0.040114
-0.0325626
-0.022352
-0.0130754
-0.00580546
-0.00295076
0.00227089
-0.38454
-0.300863
-0.27036
-0.225212
-0.18832
-0.151957
-0.120251
-0.0929777
-0.0718558
-0.0573623
-0.0496266
-0.0467398
-0.0452286
-0.0412411
-0.0334845
-0.0228994
-0.0132866
-0.00577257
-0.00285632
0.00226463
-0.39756
-0.307214
-0.274485
-0.229266
-0.191569
-0.154726
-0.122275
-0.0942755
-0.0724703
-0.0575391
-0.0497591
-0.0472083
-0.0461064
-0.0422598
-0.0343259
-0.0234222
-0.013515
-0.00577488
-0.00278619
0.00224169
-0.410916
-0.315376
-0.279244
-0.233846
-0.19533
-0.158044
-0.124893
-0.0961823
-0.0736546
-0.0581682
-0.0501407
-0.0477232
-0.0468907
-0.0431475
-0.0350818
-0.0239264
-0.0137694
-0.00581839
-0.00274429
0.00220146
-0.422369
-0.326203
-0.285267
-0.239349
-0.199888
-0.16212
-0.128253
-0.098795
-0.0754696
-0.0592923
-0.0508283
-0.0483187
-0.0476167
-0.0439396
-0.0357785
-0.0244224
-0.0140482
-0.00589813
-0.00272653
0.00214559
-0.420829
-0.334654
-0.290044
-0.24377
-0.20347
-0.165343
-0.130902
-0.100848
-0.0768954
-0.0602113
-0.0515042
-0.049073
-0.04853
-0.0448769
-0.0365218
-0.024886
-0.0142641
-0.00593696
-0.00267712
0.00208937
-0.393584
-0.332949
-0.290141
-0.24476
-0.204191
-0.166064
-0.131304
-0.10088
-0.0765614
-0.0597804
-0.0514787
-0.0499196
-0.0501961
-0.046649
-0.0377726
-0.0254882
-0.0143776
-0.00582935
-0.0024785
0.0020307
-0.37833
-0.327171
-0.28468
-0.241483
-0.202311
-0.16564
-0.13188
-0.10219
-0.0782866
-0.0616636
-0.0532878
-0.0514919
-0.0514484
-0.0475413
-0.0383053
-0.0257983
-0.0145562
-0.00593601
-0.0024494
0.00183456
-0.359003
-0.314747
-0.273621
-0.234374
-0.198246
-0.164058
-0.132158
-0.103848
-0.0807977
-0.0644841
-0.0558344
-0.0533357
-0.0524699
-0.047958
-0.0384297
-0.0259165
-0.0147305
-0.00614257
-0.00250292
0.00155295
-0.328891
-0.294962
-0.25814
-0.224254
-0.192552
-0.161769
-0.132414
-0.105947
-0.0840171
-0.0680517
-0.0589272
-0.055361
-0.0533379
-0.0480766
-0.0383096
-0.0259316
-0.0149126
-0.00643301
-0.00261385
0.00118902
-0.288399
-0.268127
-0.239151
-0.21154
-0.185148
-0.158625
-0.132509
-0.108362
-0.0878279
-0.0722613
-0.0624729
-0.0574821
-0.0539665
-0.0478316
-0.0379158
-0.0258451
-0.015119
-0.00682714
-0.00280225
0.000742091
-0.246073
-0.23722
-0.217842
-0.197115
-0.176296
-0.154502
-0.132134
-0.110691
-0.0917869
-0.0767008
-0.0661797
-0.0595699
-0.0543595
-0.0472874
-0.0373145
-0.0256999
-0.0153711
-0.00732881
-0.0030778
0.000232963
-0.207146
-0.206513
-0.196055
-0.182159
-0.1667
-0.149549
-0.131061
-0.112494
-0.095347
-0.0808341
-0.069671
-0.0615159
-0.0546526
-0.0466651
-0.036678
-0.0255772
-0.0156853
-0.00791492
-0.00342942
-0.000293923
-0.175256
-0.179367
-0.175882
-0.168012
-0.157311
-0.144248
-0.129303
-0.113481
-0.0980697
-0.0842044
-0.0726124
-0.0632273
-0.0549784
-0.0461931
-0.0361848
-0.0255463
-0.0160518
-0.00853057
-0.00382239
-0.000778952
-0.15225
-0.158665
-0.159715
-0.156283
-0.149303
-0.139421
-0.127267
-0.113697
-0.0997847
-0.086561
-0.0747768
-0.0645796
-0.0553638
-0.0459822
-0.0359249
-0.0256158
-0.0164163
-0.00908487
-0.0041922
-0.00116041
-0.139427
-0.14672
-0.149984
-0.149038
-0.144262
-0.13627
-0.125765
-0.113556
-0.100589
-0.0878128
-0.0759863
-0.065388
-0.0556679
-0.0459591
-0.0358539
-0.0257164
-0.0166754
-0.00945129
-0.00444249
-0.00138154
-0.4572
-0.46987
-0.47727
-0.479895
-0.478595
-0.474673
-0.470017
-0.467244
-0.47133
-0.495037
-0.377408
-0.390913
-0.401534
-0.409773
-0.416293
-0.421901
-0.427456
-0.43368
-0.44066
-0.454618
-0.311994
-0.325146
-0.336784
-0.347093
-0.356209
-0.364211
-0.371138
-0.377165
-0.382268
-0.392513
-0.25637
-0.268028
-0.278634
-0.288243
-0.296913
-0.304746
-0.311921
-0.31876
-0.325281
-0.334061
-0.210056
-0.220152
-0.229552
-0.238305
-0.246467
-0.254092
-0.261232
-0.267935
-0.274128
-0.280548
-0.172505
-0.18113
-0.189269
-0.196936
-0.204143
-0.2109
-0.217218
-0.22312
-0.228617
-0.233809
-0.142828
-0.150117
-0.157043
-0.163602
-0.169794
-0.175622
-0.181091
-0.186209
-0.190978
-0.195349
-0.120371
-0.126588
-0.132517
-0.138145
-0.143467
-0.148477
-0.153175
-0.157561
-0.161634
-0.165366
-0.104768
-0.110199
-0.115387
-0.120319
-0.124985
-0.129379
-0.133498
-0.137339
-0.140902
-0.144182
-0.096306
-0.101244
-0.105966
-0.110463
-0.114726
-0.118752
-0.122536
-0.126077
-0.129376
-0.132434
-0.0280999
-0.0936451
-0.157497
-0.212686
-0.262803
-0.308569
-0.349052
-0.385313
-0.415187
-0.439017
-0.0482079
-0.0986141
-0.146544
-0.187099
-0.223766
-0.257949
-0.289147
-0.316176
-0.340218
-0.360618
-0.0604487
-0.100474
-0.135418
-0.16502
-0.192036
-0.217341
-0.240584
-0.261283
-0.280185
-0.297083
-0.0656999
-0.0962658
-0.120697
-0.141613
-0.161403
-0.180333
-0.198044
-0.214352
-0.229579
-0.243582
-0.0644767
-0.0868938
-0.104134
-0.119272
-0.134151
-0.14873
-0.162626
-0.17571
-0.187774
-0.199243
-0.0590931
-0.0752654
-0.0879235
-0.0994119
-0.110923
-0.122345
-0.133364
-0.143872
-0.153845
-0.163399
-0.0524736
-0.0642764
-0.0740007
-0.083111
-0.0922857
-0.101433
-0.110349
-0.118953
-0.127224
-0.135189
-0.0462706
-0.0551735
-0.062993
-0.070508
-0.0780611
-0.0855932
-0.0929843
-0.100176
-0.107144
-0.113882
-0.0413761
-0.0485139
-0.0551662
-0.0616652
-0.0681618
-0.0746233
-0.0809833
-0.0872001
-0.0932486
-0.0991114
-0.0385246
-0.0448771
-0.0510147
-0.0570343
-0.0629994
-0.068896
-0.0746871
-0.0803436
-0.0858438
-0.0911672
0.202804
0.203793
0.206181
0.209438
0.213893
0.217135
0.219533
0.209334
0.185035
0.0770634
0.194478
0.195001
0.196334
0.197853
0.19947
0.198642
0.194596
0.176204
0.139568
0.0414221
0.18455
0.184589
0.18478
0.184438
0.183148
0.178423
0.168832
0.145475
0.104323
0.022999
0.172892
0.172402
0.171368
0.169098
0.16492
0.156686
0.142512
0.11657
0.0739207
0.00556168
0.159557
0.158537
0.156303
0.152221
0.145471
0.134435
0.117065
0.0902666
0.0488742
-0.00855538
0.14486
0.143362
0.14008
0.13448
0.125751
0.112819
0.0938761
0.0676639
0.0300963
-0.0172683
0.12949
0.127614
0.123544
0.116861
0.106899
0.0930479
0.0740209
0.0495222
0.0170466
-0.0214778
0.114617
0.112496
0.107955
0.100679
0.090227
0.0763055
0.0581932
0.0359653
0.00844148
-0.0229245
0.101983
0.09975
0.0950264
0.0875863
0.0771793
0.0636958
0.0468363
0.0267878
0.00318602
-0.0229749
0.0940085
0.0917513
0.0870205
0.0796357
0.0694502
0.0564421
0.0405315
0.0219314
0.000639835
-0.0226171
0.238622
0.240783
0.246358
0.255066
0.268713
0.286818
0.31396
0.348928
0.401599
0.469001
0.236083
0.238169
0.243554
0.251937
0.26509
0.282383
0.308309
0.341174
0.390177
0.451443
0.233314
0.23532
0.240496
0.248515
0.261106
0.277453
0.301952
0.332183
0.37667
0.429733
0.230326
0.23225
0.237199
0.24482
0.256788
0.272062
0.294936
0.322008
0.361208
0.403886
0.227134
0.228974
0.233681
0.240875
0.252158
0.266244
0.287303
0.310703
0.343941
0.373935
0.223751
0.22551
0.229962
0.236704
0.247242
0.260036
0.279092
0.298334
0.325039
0.339931
0.220197
0.221877
0.226069
0.232341
0.242083
0.253505
0.270372
0.28503
0.304713
0.301976
0.216488
0.218107
0.222048
0.227857
0.236783
0.246804
0.261338
0.271085
0.283313
0.260153
0.21264
0.21421
0.217908
0.223261
0.231351
0.239958
0.251997
0.256558
0.260775
0.213558
0.208641
0.21009
0.213424
0.218151
0.225116
0.231974
0.240851
0.239746
0.234592
0.160326
0.250331
0.252861
0.259003
0.268872
0.28369
0.302748
0.329316
0.358121
0.3962
0.405965
0.250256
0.252795
0.258986
0.26871
0.283689
0.303813
0.331642
0.363137
0.407239
0.433766
0.249948
0.252464
0.258664
0.268441
0.283374
0.303033
0.332399
0.365607
0.413591
0.45374
0.249407
0.251898
0.258105
0.267902
0.28293
0.302715
0.331991
0.367845
0.419154
0.470042
0.248625
0.25109
0.257284
0.267047
0.28211
0.30208
0.331544
0.369055
0.423397
0.482574
0.247594
0.250027
0.256182
0.265872
0.280885
0.300882
0.33054
0.36753
0.425324
0.491527
0.246309
0.248702
0.254792
0.264372
0.279258
0.299144
0.328786
0.36661
0.423664
0.497424
0.244768
0.247114
0.253113
0.26254
0.277229
0.296881
0.326263
0.364258
0.421668
0.492479
0.242971
0.245263
0.251145
0.260377
0.274793
0.294076
0.322952
0.360473
0.417448
0.49009
0.24092
0.24315
0.248891
0.257883
0.271953
0.290722
0.318852
0.355371
0.410748
0.482141
0.205426
0.204013
0.201029
0.196287
0.189552
0.180604
0.169129
0.154938
0.137674
0.117472
0.2104
0.209173
0.206552
0.202311
0.196136
0.187685
0.176487
0.1622
0.144203
0.12256
0.217826
0.216941
0.215013
0.211766
0.206778
0.199497
0.189183
0.175148
0.15628
0.132347
0.22584
0.225432
0.224497
0.222722
0.219606
0.214344
0.205888
0.192915
0.173679
0.147115
0.233234
0.233388
0.233661
0.233735
0.233107
0.230726
0.225363
0.214695
0.196357
0.167329
0.23936
0.240099
0.241672
0.243795
0.246081
0.247292
0.246263
0.23943
0.224103
0.193399
0.243994
0.245284
0.248124
0.252305
0.257668
0.262912
0.267226
0.265754
0.256107
0.225313
0.247192
0.248961
0.252945
0.259026
0.267363
0.276756
0.287014
0.292225
0.290743
0.261514
0.24915
0.251308
0.25626
0.263973
0.274951
0.288252
0.304519
0.317465
0.326251
0.299594
0.250121
0.25255
0.258255
0.267272
0.280457
0.297094
0.319031
0.340411
0.362835
0.344724
0.102736
0.0965996
0.0903626
0.084071
0.0777018
0.0712537
0.0647472
0.0582074
0.0516597
0.0451193
0.106363
0.0995416
0.0925749
0.0856034
0.0785584
0.0714044
0.064161
0.0568643
0.0495518
0.0422376
0.113513
0.105188
0.0966055
0.0882049
0.0798275
0.0713421
0.0627521
0.05411
0.0454892
0.0368629
0.124753
0.11409
0.102913
0.0922893
0.0819097
0.0714497
0.0608735
0.0502633
0.0397084
0.0291684
0.140878
0.126965
0.112012
0.0982386
0.0851101
0.0719635
0.0586988
0.045464
0.0322253
0.0190861
0.162783
0.144622
0.124457
0.106434
0.0896894
0.0730261
0.0562583
0.0396633
0.0231019
0.00667545
0.191548
0.168174
0.141103
0.117498
0.0960164
0.0746849
0.0532585
0.0326128
0.0119845
-0.00842579
0.227581
0.198253
0.162667
0.132257
0.1049
0.0778703
0.0512083
0.0245805
-0.00126233
-0.0263186
0.27049
0.234168
0.189095
0.150862
0.115869
0.0812363
0.0479075
0.0149692
-0.0165803
-0.0466628
0.319766
0.275665
0.222391
0.175041
0.129967
0.0856262
0.0428482
0.00229833
-0.0353642
-0.0703275
0.0386053
0.0321392
0.0257399
0.0194238
0.0132056
0.00709904
0.00111631
-0.00473162
-0.0104349
-0.0159841
0.0349494
0.0277166
0.0205651
0.0135169
0.00659255
-0.000189159
-0.00681125
-0.0132591
-0.0195198
-0.0255571
0.0282667
0.0197422
0.0113185
0.00301728
-0.00514149
-0.0131388
-0.0209573
-0.0285825
-0.0360026
-0.0431263
0.0186817
0.00828894
-0.00198457
-0.0121208
-0.0221036
-0.0319178
-0.0415496
-0.0509877
-0.0602298
-0.0691385
0.00607112
-0.00681304
-0.0195588
-0.0321561
-0.0445954
-0.0568695
-0.0689762
-0.0809191
-0.092728
-0.104448
-0.00955276
-0.025582
-0.0414352
-0.0571341
-0.0726989
-0.0881506
-0.10351
-0.118783
-0.134031
-0.150013
-0.0284894
-0.0482183
-0.0676562
-0.0868435
-0.105833
-0.12471
-0.143599
-0.162607
-0.182075
-0.203833
-0.0507722
-0.0747334
-0.0982682
-0.121425
-0.144231
-0.166708
-0.188911
-0.210942
-0.234079
-0.261105
-0.0754454
-0.103051
-0.129648
-0.155499
-0.180946
-0.206367
-0.232098
-0.25842
-0.287548
-0.319773
-0.102636
-0.13227
-0.159382
-0.184368
-0.207906
-0.230943
-0.254582
-0.280272
-0.31379
-0.357955
-0.0292045
-0.0480509
-0.0643872
-0.0772978
-0.0862115
-0.0909711
-0.0917446
-0.0889078
-0.082876
-0.0741269
-0.0632496
-0.0511976
-0.0391783
-0.0288466
-0.0213697
-0.0175136
-0.015138
-0.0125031
-0.0074304
-0.00289104
-0.0402859
-0.0598242
-0.0755719
-0.0871404
-0.0943663
-0.0973787
-0.0965636
-0.0924087
-0.0853018
-0.0756271
-0.0638615
-0.0509364
-0.0381437
-0.0273876
-0.0200917
-0.0168665
-0.0151679
-0.0128541
-0.0077778
-0.0028473
-0.0605736
-0.0808082
-0.0949234
-0.103694
-0.107674
-0.10754
-0.104081
-0.0978406
-0.0891295
-0.0780788
-0.064928
-0.0505821
-0.0364901
-0.0249972
-0.0179025
-0.0157817
-0.015205
-0.0133536
-0.00833351
-0.00270705
-0.0895858
-0.109545
-0.120445
-0.124598
-0.123728
-0.119334
-0.112522
-0.103893
-0.0935111
-0.0810207
-0.0663237
-0.0503001
-0.0346385
-0.0222669
-0.0154216
-0.0144981
-0.0151057
-0.0137271
-0.00886259
-0.00243365
-0.125775
-0.143718
-0.149845
-0.147436
-0.140174
-0.130727
-0.12029
-0.109427
-0.097639
-0.0839417
-0.0678634
-0.0502633
-0.0331049
-0.0199131
-0.0132583
-0.0132579
-0.0148252
-0.0137392
-0.00914932
-0.00203087
-0.165329
-0.179845
-0.18015
-0.169326
-0.154712
-0.139858
-0.12614
-0.113491
-0.100745
-0.0862736
-0.0692409
-0.0504898
-0.0322338
-0.01846
-0.0118799
-0.0122949
-0.0142301
-0.0133488
-0.00911152
-0.00154415
-0.202272
-0.213757
-0.20751
-0.187253
-0.165465
-0.146056
-0.129635
-0.115651
-0.102373
-0.0875926
-0.0701534
-0.0508401
-0.032061
-0.0180566
-0.0114777
-0.0117953
-0.0135968
-0.0126766
-0.00879452
-0.00103098
-0.23261
-0.242556
-0.228952
-0.200006
-0.172856
-0.149759
-0.131183
-0.116198
-0.102641
-0.0878749
-0.0704881
-0.0511628
-0.032411
-0.0185199
-0.011938
-0.0117831
-0.0130598
-0.0118851
-0.00830763
-0.000539511
-0.258421
-0.266277
-0.244184
-0.2088
-0.177784
-0.151746
-0.131514
-0.115731
-0.101987
-0.0873757
-0.0703128
-0.0513573
-0.0330404
-0.0195173
-0.01294
-0.0121373
-0.0126732
-0.0111099
-0.0077602
-9.98589e-05
-0.283856
-0.282323
-0.253542
-0.214054
-0.18056
-0.152373
-0.130874
-0.114313
-0.100305
-0.0858621
-0.0693442
-0.0511809
-0.0337909
-0.0209539
-0.0144021
-0.0128169
-0.0124029
-0.0103344
-0.00717205
0.000294251
-0.321359
-0.286013
-0.254828
-0.214985
-0.181306
-0.152139
-0.12956
-0.111807
-0.0971222
-0.082768
-0.0671499
-0.0504568
-0.0347456
-0.023088
-0.0166855
-0.0138877
-0.0122233
-0.00953519
-0.00654853
0.000623399
-0.333286
-0.285742
-0.253649
-0.212678
-0.179033
-0.149716
-0.127205
-0.109367
-0.0947143
-0.0805844
-0.0655051
-0.0496275
-0.0348671
-0.0239241
-0.0176687
-0.0143931
-0.0121226
-0.00910007
-0.00618552
0.000831891
-0.336235
-0.283394
-0.251585
-0.209816
-0.176548
-0.147417
-0.125106
-0.107223
-0.0925331
-0.0785702
-0.0639216
-0.0487452
-0.0348473
-0.0245845
-0.0184658
-0.0148639
-0.0120723
-0.00873453
-0.00586011
0.00102336
-0.335887
-0.281224
-0.250001
-0.207744
-0.174906
-0.145851
-0.123165
-0.105253
-0.0903615
-0.0765369
-0.0623814
-0.0480048
-0.0350405
-0.0254562
-0.0194811
-0.0154014
-0.0120454
-0.00837274
-0.00553474
0.00120557
-0.334257
-0.279347
-0.248821
-0.206276
-0.173847
-0.144
-0.12139
-0.103062
-0.0881169
-0.0744042
-0.0608254
-0.047372
-0.0354293
-0.0265242
-0.0206063
-0.0159919
-0.0120344
-0.00801234
-0.00521164
0.00137808
-0.332262
-0.277855
-0.248106
-0.205393
-0.172902
-0.142991
-0.120031
-0.101181
-0.0858384
-0.0722093
-0.059262
-0.0468236
-0.0359622
-0.0277255
-0.0218023
-0.0166159
-0.0120423
-0.00766462
-0.00489728
0.00153871
-0.330258
-0.277714
-0.248059
-0.204866
-0.172427
-0.142412
-0.1188
-0.0992842
-0.0834902
-0.0699968
-0.0577201
-0.0463646
-0.0366212
-0.0290298
-0.0230504
-0.0172633
-0.0120715
-0.00733637
-0.00459586
0.00168594
-0.329117
-0.276073
-0.248076
-0.204705
-0.172826
-0.142113
-0.117742
-0.097444
-0.0812805
-0.0678065
-0.0562277
-0.046003
-0.0373943
-0.0304146
-0.0243304
-0.017926
-0.0121228
-0.00703181
-0.00431054
0.00181858
-0.329647
-0.277462
-0.249166
-0.205793
-0.173598
-0.142143
-0.116923
-0.0957659
-0.0791285
-0.0656859
-0.0548153
-0.0457432
-0.0382639
-0.0318531
-0.0256204
-0.018595
-0.0121962
-0.00675473
-0.00404444
0.00193553
-0.332151
-0.279018
-0.250976
-0.207361
-0.174729
-0.142521
-0.116376
-0.0943129
-0.0771077
-0.0636926
-0.0535153
-0.045588
-0.0392089
-0.033316
-0.0268991
-0.0192619
-0.0122915
-0.0065084
-0.0038
0.00203593
)
;

boundaryField
{
    inlet
    {
        type            freestreamPressure;
        freestreamValue uniform 0;
        value           nonuniform List<scalar> 
40
(
0.202804
0.194478
0.18455
0.172892
0.159557
0.14486
0.12949
0.114617
0.101983
0.0940085
0.238622
0.236083
0.233314
0.230326
0.227134
0.223751
0.220197
0.216488
0.21264
0.208641
0.250331
0.250256
0.249948
0.249407
0.248625
0.247594
0.246309
0.244768
0.242971
0.24092
0.205426
0.2104
0.217826
0.22584
0.233234
0.23936
0.243994
0.247192
0.24915
0.250121
)
;
    }
    outlet
    {
        type            freestreamPressure;
        freestreamValue uniform 0;
        value           nonuniform List<scalar> 
40
(
9.09279e-08
1.07385e-07
1.10118e-07
9.4051e-08
5.9439e-08
1.67993e-08
-1.64015e-08
-2.70689e-08
-1.70158e-08
-2.48368e-09
3.08308e-08
1.35728e-08
3.29926e-09
5.8366e-14
3.0612e-09
1.14114e-08
2.36888e-08
3.83814e-08
5.40243e-08
6.96312e-08
1.68173e-07
1.97681e-07
2.09904e-07
2.08456e-07
1.95461e-07
1.73359e-07
1.45123e-07
1.13915e-07
8.27728e-08
5.43722e-08
-3.38801e-08
-2.69393e-07
-5.95118e-07
-8.35977e-07
-8.76564e-07
-7.25941e-07
-4.77881e-07
-2.29734e-07
-3.71483e-08
9.24666e-08
)
;
    }
    top
    {
        type            symmetryPlane;
    }
    bottom
    {
        type            symmetryPlane;
    }
    cylinder
    {
        type            zeroGradient;
    }
    frontandback
    {
        type            empty;
    }
}


// ************************************************************************* //
