/*--------------------------------*- C++ -*----------------------------------*\
  =========                 |
  \\      /  F ield         | OpenFOAM: The Open Source CFD Toolbox
   \\    /   O peration     | Website:  https://openfoam.org
    \\  /    A nd           | Version:  6.0
     \\/     M anipulation  |
\*---------------------------------------------------------------------------*/
FoamFile
{
    version     2.0;
    format      ascii;
    class       volScalarField;
    location    "18.6";
    object      p;
}
// * * * * * * * * * * * * * * * * * * * * * * * * * * * * * * * * * * * * * //

dimensions      [0 2 -2 0 0 0 0];

internalField   nonuniform List<scalar> 
9600
(
-171.06
-150.56
-135.733
-123.421
-112.179
-102.058
-93.0204
-84.9443
-77.7209
-71.2529
-65.4502
-60.2316
-55.5254
-51.2693
-47.4091
-43.8984
-40.6971
-37.7688
-35.0801
-32.6276
-172.375
-151.836
-136.93
-124.527
-113.197
-103
-93.8963
-85.7643
-78.4932
-71.9842
-66.1458
-60.8955
-56.1609
-51.8789
-47.9952
-44.4627
-41.2413
-38.2936
-35.5858
-33.119
-173.685
-153.089
-138.103
-125.61
-114.195
-103.922
-94.7545
-86.568
-79.2506
-72.7017
-66.8284
-61.5471
-56.7847
-52.4775
-48.5705
-45.0167
-41.7753
-38.8083
-36.0813
-33.6005
-174.983
-154.323
-139.252
-126.67
-115.171
-104.825
-95.5939
-87.3543
-79.9918
-73.4041
-67.4968
-62.1855
-57.396
-53.0642
-49.1345
-45.5597
-42.2987
-39.3126
-36.5666
-34.0724
-176.262
-155.535
-140.376
-127.705
-116.123
-105.705
-96.4129
-88.1217
-80.7154
-74.09
-68.15
-62.8096
-57.9939
-53.6382
-49.6866
-46.0914
-42.8112
-39.8063
-37.0419
-34.5354
-177.519
-156.722
-141.475
-128.715
-117.051
-106.562
-97.21
-88.8685
-81.4198
-74.7582
-68.7865
-63.4181
-58.5773
-54.1987
-50.226
-46.6113
-43.3128
-40.2898
-37.5076
-34.9901
-178.748
-157.881
-142.546
-129.696
-117.952
-107.394
-97.9834
-89.5932
-82.1037
-75.4071
-69.4052
-64.0101
-59.1453
-54.7449
-50.7523
-47.1192
-43.8034
-40.7632
-37.9644
-35.4375
-179.946
-159.01
-143.586
-130.648
-118.824
-108.198
-98.7313
-90.2941
-82.7651
-76.0352
-70.0044
-64.5839
-59.6965
-55.2758
-51.2646
-47.6145
-44.2827
-41.2268
-38.4129
-35.8786
-181.111
-160.106
-144.594
-131.568
-119.666
-108.974
-99.452
-90.9693
-83.4024
-76.6405
-70.5823
-65.138
-60.2295
-55.7899
-51.7618
-48.0963
-44.7504
-41.6804
-38.8535
-36.3145
-182.24
-161.166
-145.567
-132.455
-120.476
-109.719
-100.143
-91.6167
-84.0135
-77.2212
-71.1371
-65.6704
-60.7425
-56.2857
-52.2424
-48.5635
-45.2053
-42.1233
-39.2859
-36.7455
-183.332
-162.188
-146.503
-133.306
-121.252
-110.431
-100.803
-92.2341
-84.5961
-77.7748
-71.6663
-66.1789
-61.2331
-56.7611
-52.7045
-49.0142
-45.646
-42.5542
-39.7091
-37.1705
-184.385
-163.172
-147.402
-134.12
-121.991
-111.108
-101.43
-92.8195
-85.1477
-78.2985
-72.1669
-66.6602
-61.6984
-57.213
-53.1456
-49.4464
-46.0709
-42.9722
-40.1221
-37.5877
-185.399
-164.116
-148.26
-134.896
-122.693
-111.749
-102.021
-93.3704
-85.6658
-78.7897
-72.6358
-67.1108
-62.1342
-57.6372
-53.5611
-49.8563
-46.4771
-43.3755
-40.5244
-37.9986
-186.373
-165.019
-149.079
-135.631
-123.356
-112.352
-102.575
-93.8849
-86.148
-79.2453
-73.0696
-67.5266
-62.5357
-58.0279
-53.9446
-50.2362
-46.8568
-43.7568
-40.9118
-38.4067
-187.305
-165.879
-149.855
-136.326
-123.98
-112.916
-103.091
-94.3609
-86.5917
-79.6626
-73.465
-67.9042
-62.8991
-58.3805
-54.2898
-50.5777
-47.1985
-44.1027
-41.272
-38.8021
-188.2
-166.697
-150.589
-136.98
-124.562
-113.439
-103.565
-94.796
-86.9942
-80.0379
-73.8179
-68.239
-63.2198
-58.691
-54.5937
-50.8786
-47.4995
-44.4079
-41.5915
-39.1498
-189.068
-167.479
-151.282
-137.591
-125.102
-113.92
-103.998
-95.1883
-87.3528
-80.3676
-74.1229
-68.5237
-63.4888
-58.9498
-54.8488
-51.137
-47.767
-44.6862
-41.8795
-39.4408
-189.925
-168.234
-151.935
-138.159
-125.6
-114.359
-104.389
-95.5386
-87.6675
-80.6502
-74.3763
-68.7505
-63.6925
-59.136
-55.0267
-51.3199
-47.9694
-44.9178
-42.1496
-39.7808
-190.769
-168.959
-152.549
-138.687
-126.06
-114.762
-104.744
-95.8523
-87.9436
-80.8908
-74.5819
-68.9207
-63.8266
-59.2339
-55.0908
-51.3566
-47.9898
-44.9501
-42.282
-40.1955
-191.528
-169.631
-153.125
-139.182
-126.489
-115.137
-105.072
-96.1384
-88.1908
-81.1001
-74.7524
-69.0496
-63.9093
-59.2627
-55.0538
-51.2343
-47.7588
-44.6151
-41.9414
-39.991
-198.125
-198.103
-198.006
-197.882
-197.735
-197.558
-197.346
-197.1
-196.822
-196.514
-196.177
-195.812
-195.421
-195.005
-194.565
-194.103
-193.62
-193.12
-192.607
-192.086
-175.306
-175.339
-175.32
-175.265
-175.177
-175.055
-174.897
-174.704
-174.478
-174.222
-173.936
-173.623
-173.283
-172.918
-172.529
-172.116
-171.681
-171.222
-170.738
-170.216
-157.771
-157.849
-157.885
-157.883
-157.843
-157.767
-157.655
-157.511
-157.336
-157.131
-156.898
-156.639
-156.355
-156.047
-155.715
-155.36
-154.98
-154.574
-154.136
-153.657
-142.989
-143.086
-143.148
-143.172
-143.159
-143.111
-143.031
-142.921
-142.782
-142.616
-142.424
-142.209
-141.97
-141.71
-141.428
-141.123
-140.796
-140.443
-140.06
-139.643
-129.709
-129.807
-129.873
-129.906
-129.905
-129.871
-129.807
-129.716
-129.599
-129.457
-129.293
-129.107
-128.901
-128.676
-128.432
-128.168
-127.885
-127.579
-127.248
-126.887
-117.977
-118.066
-118.127
-118.158
-118.157
-118.127
-118.069
-117.986
-117.879
-117.75
-117.601
-117.433
-117.249
-117.048
-116.831
-116.599
-116.351
-116.084
-115.797
-115.483
-107.669
-107.746
-107.796
-107.819
-107.813
-107.78
-107.721
-107.639
-107.535
-107.412
-107.271
-107.114
-106.942
-106.757
-106.56
-106.352
-106.132
-105.897
-105.646
-105.373
-98.5727
-98.6362
-98.6752
-98.6882
-98.6743
-98.6348
-98.5716
-98.4869
-98.3825
-98.2602
-98.122
-97.97
-97.8062
-97.6323
-97.4501
-97.2602
-97.0625
-96.8556
-96.6363
-96.3998
-90.5051
-90.5556
-90.5829
-90.5855
-90.5629
-90.5163
-90.4475
-90.3585
-90.2512
-90.1275
-89.9895
-89.8397
-89.6804
-89.5139
-89.3425
-89.1675
-88.9892
-88.8067
-88.6169
-88.4145
-83.3142
-83.3529
-83.3693
-83.3622
-83.3312
-83.2775
-83.2028
-83.109
-82.9979
-82.8715
-82.7322
-82.5826
-82.4254
-82.2637
-82.1004
-81.9376
-81.7766
-81.6168
-81.4555
-81.2866
-76.8743
-76.9025
-76.9092
-76.8933
-76.8547
-76.7944
-76.7141
-76.6154
-76.5001
-76.3704
-76.2287
-76.0778
-75.921
-75.762
-75.6045
-75.4516
-75.306
-75.1679
-75.0349
-74.9003
-71.0818
-71.1009
-71.099
-71.0754
-71.03
-70.9638
-70.8782
-70.7748
-70.6554
-70.5219
-70.377
-70.2237
-70.0656
-69.9072
-69.7531
-69.6078
-69.4758
-69.3584
-69.2543
-69.1562
-65.8519
-65.8628
-65.8535
-65.8231
-65.7717
-65.7002
-65.6099
-65.5021
-65.3785
-65.2411
-65.0924
-64.9353
-64.7745
-64.6143
-64.4612
-64.3205
-64.1998
-64.1018
-64.0279
-63.9694
-61.114
-61.1179
-61.102
-61.0657
-61.0091
-60.9329
-60.8383
-60.7265
-60.5988
-60.4572
-60.3041
-60.1424
-59.9771
-59.8127
-59.6575
-59.5178
-59.4055
-59.3245
-59.2826
-59.2682
-56.8092
-56.8069
-56.7853
-56.7438
-56.6827
-56.6025
-56.5041
-56.3885
-56.257
-56.1111
-55.9532
-55.786
-55.6146
-55.4433
-55.2826
-55.1393
-55.0314
-54.9633
-54.9549
-54.9899
-52.8882
-52.8803
-52.8535
-52.8075
-52.7424
-52.6586
-52.5569
-52.438
-52.3029
-52.1528
-51.9898
-51.8162
-51.637
-51.4561
-51.286
-51.133
-51.0244
-50.9627
-50.9891
-51.076
-49.309
-49.2959
-49.2644
-49.2144
-49.1457
-49.0589
-48.9541
-48.8321
-48.6934
-48.539
-48.3706
-48.1898
-48.0013
-47.8079
-47.6233
-47.4528
-47.3349
-47.2707
-47.3352
-47.4703
-46.0335
-46.0165
-45.9815
-45.9285
-45.8574
-45.7683
-45.6614
-45.5369
-45.3952
-45.237
-45.0633
-44.8754
-44.6765
-44.4686
-44.2643
-44.067
-43.9253
-43.8427
-43.9548
-44.1478
-43.0263
-43.0074
-42.9713
-42.9181
-42.8475
-42.7594
-42.6534
-42.53
-42.3888
-42.2305
-42.0552
-41.8641
-41.6584
-41.4394
-41.2159
-40.9883
-40.8048
-40.6738
-40.8196
-41.1463
-40.2731
-40.2478
-40.2071
-40.1513
-40.08
-39.9924
-39.8882
-39.7673
-39.6292
-39.4743
-39.302
-39.113
-38.9067
-38.6842
-38.447
-38.1957
-37.9547
-37.736
-37.7725
-38.2583
-186.393
-187.446
-188.404
-189.341
-190.261
-191.145
-191.98
-192.762
-193.49
-194.164
-194.783
-195.347
-195.855
-196.309
-196.709
-197.057
-197.356
-197.61
-197.823
-197.999
-163.36
-164.413
-165.409
-166.371
-167.3
-168.186
-169.022
-169.806
-170.538
-171.218
-171.844
-172.419
-172.94
-173.41
-173.828
-174.197
-174.518
-174.792
-175.02
-175.195
-145.993
-147.018
-148.004
-148.95
-149.853
-150.71
-151.52
-152.281
-152.994
-153.657
-154.272
-154.838
-155.355
-155.823
-156.245
-156.619
-156.947
-157.228
-157.462
-157.645
-131.743
-132.715
-133.654
-134.553
-135.408
-136.218
-136.984
-137.705
-138.38
-139.01
-139.595
-140.134
-140.628
-141.078
-141.483
-141.845
-142.163
-142.437
-142.668
-142.852
-119.193
-120.103
-120.983
-121.825
-122.625
-123.382
-124.097
-124.769
-125.398
-125.985
-126.53
-127.032
-127.493
-127.912
-128.29
-128.628
-128.925
-129.182
-129.399
-129.575
-108.251
-109.1
-109.922
-110.708
-111.454
-112.158
-112.821
-113.443
-114.025
-114.566
-115.067
-115.529
-115.952
-116.336
-116.683
-116.991
-117.263
-117.497
-117.695
-117.855
-98.7075
-99.5036
-100.273
-101.007
-101.702
-102.357
-102.971
-103.545
-104.081
-104.578
-105.038
-105.46
-105.846
-106.195
-106.51
-106.789
-107.033
-107.244
-107.42
-107.562
-90.315
-91.0656
-91.7888
-92.4773
-93.1265
-93.7354
-94.3048
-94.8357
-95.329
-95.7855
-96.2061
-96.5916
-96.9427
-97.2602
-97.5445
-97.7961
-98.0153
-98.2025
-98.3579
-98.4816
-82.8793
-83.5915
-84.2751
-84.9232
-85.5315
-86.0994
-86.6282
-87.1194
-87.5741
-87.9936
-88.3789
-88.7311
-89.051
-89.3393
-89.5966
-89.8231
-90.0193
-90.1855
-90.3218
-90.4286
-76.2508
-76.9312
-77.5812
-78.1939
-78.7655
-79.2964
-79.7883
-80.2433
-80.663
-81.0489
-81.4024
-81.7246
-82.0165
-82.2788
-82.512
-82.7163
-82.8921
-83.0397
-83.1592
-83.251
-70.3117
-70.9663
-71.5881
-72.1696
-72.708
-73.2047
-73.6628
-74.0845
-74.4721
-74.8273
-75.1519
-75.4473
-75.7142
-75.9534
-76.1653
-76.3501
-76.5081
-76.6394
-76.7442
-76.8227
-64.9676
-65.6024
-66.2007
-66.7542
-67.2617
-67.7267
-68.153
-68.5438
-68.9015
-69.2286
-69.5269
-69.7979
-70.0424
-70.2611
-70.4542
-70.6219
-70.7643
-70.8815
-70.9734
-71.0404
-60.1425
-60.7632
-61.3421
-61.8698
-62.3479
-62.7826
-63.1788
-63.5402
-63.8699
-64.1709
-64.4451
-64.694
-64.9184
-65.1188
-65.2953
-65.448
-65.5767
-65.6816
-65.7624
-65.8193
-55.7751
-56.3874
-56.9495
-57.4522
-57.9015
-58.3067
-58.6738
-59.0069
-59.3101
-59.5865
-59.8385
-60.0672
-60.2735
-60.4576
-60.6195
-60.759
-60.8758
-60.9699
-61.041
-61.0891
-51.8163
-52.4275
-52.9731
-53.4483
-53.8682
-54.2445
-54.5827
-54.8881
-55.1657
-55.4192
-55.6504
-55.8607
-56.0507
-56.2202
-56.3692
-56.4971
-56.6035
-56.6882
-56.7507
-56.7912
-48.2196
-48.8448
-49.3731
-49.8155
-50.204
-50.5507
-50.8596
-51.1374
-51.3903
-51.6219
-51.8338
-52.0271
-52.2022
-52.3588
-52.4963
-52.614
-52.7112
-52.7876
-52.8427
-52.8763
-44.9261
-45.5893
-46.1058
-46.5118
-46.8665
-47.1824
-47.4612
-47.7118
-47.9411
-48.1521
-48.3463
-48.5244
-48.6864
-48.8317
-48.9592
-49.068
-49.1574
-49.2266
-49.2751
-49.3026
-41.8964
-42.5895
-43.1026
-43.4807
-43.8023
-44.0852
-44.3345
-44.5601
-44.7681
-44.9611
-45.1403
-45.3061
-45.4579
-45.5946
-45.7147
-45.8171
-45.9008
-45.9648
-46.0084
-46.0314
-39.2807
-39.8624
-40.3253
-40.7009
-40.9946
-41.2356
-41.4533
-41.6559
-41.8436
-42.0188
-42.1841
-42.3392
-42.4826
-42.6122
-42.7266
-42.8245
-42.9044
-42.9652
-43.0061
-43.0265
-37.5302
-37.7866
-37.9621
-38.3443
-38.6216
-38.7913
-38.955
-39.1241
-39.2805
-39.4252
-39.5643
-39.6979
-39.8224
-39.9351
-40.0344
-40.1189
-40.187
-40.2373
-40.2689
-40.2809
-26.3771
-28.5981
-31.0495
-33.7143
-36.6206
-39.8011
-43.2883
-47.1195
-51.3385
-55.9974
-61.1586
-66.8986
-73.3142
-80.5307
-88.72
-98.1206
-108.967
-121.449
-137.183
-159.05
-26.8442
-29.088
-31.5548
-34.2382
-37.1661
-40.3706
-43.8842
-47.7444
-51.9958
-56.6909
-61.8928
-67.679
-74.1472
-81.4243
-89.6838
-99.1655
-110.103
-122.678
-138.495
-160.416
-27.3155
-29.5815
-32.0636
-34.7659
-37.7161
-40.945
-44.4856
-48.3756
-52.6601
-57.3921
-62.6355
-68.4687
-74.9905
-82.3291
-90.6594
-100.222
-111.25
-123.918
-139.808
-161.762
-27.7905
-30.0775
-32.5746
-35.2962
-38.2689
-41.5228
-45.0907
-49.011
-53.3291
-58.0987
-63.3841
-69.2648
-75.8408
-83.2414
-91.6427
-101.287
-112.405
-125.166
-141.135
-163.131
-28.2677
-30.5747
-33.0867
-35.8278
-38.8234
-42.1026
-45.6982
-49.6492
-54.0014
-58.8088
-64.1368
-70.0654
-76.6959
-84.1587
-92.6313
-102.356
-113.565
-126.421
-142.476
-164.523
-28.7456
-31.072
-33.5988
-36.3599
-39.379
-42.6838
-46.3076
-50.2897
-54.6763
-59.522
-64.8928
-70.8697
-77.5549
-85.0803
-93.6244
-103.431
-114.73
-127.682
-143.825
-165.928
-29.2229
-31.5681
-34.1099
-36.8917
-39.9348
-43.2658
-46.9182
-50.9319
-55.3534
-60.2378
-65.6517
-71.6772
-78.4175
-86.0057
-94.6216
-104.509
-115.899
-128.946
-145.178
-167.338
-29.6988
-32.0622
-34.6193
-37.4225
-40.4903
-43.8481
-47.5297
-51.5755
-56.0322
-60.9557
-66.4132
-72.4875
-79.2831
-86.9343
-95.6223
-105.592
-117.072
-130.213
-146.531
-168.749
-30.1725
-32.5535
-35.1264
-37.9519
-41.0452
-44.4304
-48.1418
-52.2201
-56.7125
-61.6754
-67.1766
-73.2999
-80.151
-87.8653
-96.6253
-106.676
-118.246
-131.481
-147.885
-170.16
-30.6437
-33.042
-35.6311
-38.48
-41.5996
-45.0128
-48.7545
-52.8657
-57.3941
-62.3965
-67.9416
-74.114
-81.0204
-88.7978
-97.6295
-107.762
-119.421
-132.748
-149.237
-171.569
-31.1119
-33.5275
-36.1337
-39.0071
-42.154
-45.596
-49.3683
-53.5127
-58.0772
-63.1191
-68.7078
-74.9291
-81.8906
-89.7307
-98.6339
-108.847
-120.595
-134.014
-150.585
-172.974
-31.5782
-34.011
-36.6351
-39.5341
-42.7092
-46.1805
-49.9839
-54.1615
-58.762
-63.8431
-69.4751
-75.7447
-82.7609
-90.663
-99.6371
-109.93
-121.766
-135.275
-151.929
-174.372
-32.043
-34.494
-37.1375
-40.0637
-43.2678
-46.7686
-50.6028
-54.8132
-59.449
-64.5687
-70.2432
-76.5604
-83.6302
-91.5936
-100.638
-111.01
-122.932
-136.531
-153.264
-175.761
-32.5096
-34.9794
-37.6433
-40.5978
-43.8314
-47.3617
-51.2263
-55.4687
-60.1389
-65.2959
-71.0118
-77.3752
-84.4976
-92.5211
-101.634
-112.084
-124.092
-137.778
-154.59
-177.139
-32.9828
-35.4748
-38.1608
-41.144
-44.4061
-47.9641
-51.8571
-56.1296
-60.8321
-66.0246
-71.78
-78.1881
-85.3616
-93.4437
-102.624
-113.151
-125.243
-139.016
-155.905
-178.505
-33.4702
-35.9848
-38.6928
-41.7039
-44.9929
-48.5768
-52.496
-56.7962
-61.5286
-66.7542
-72.5469
-78.9976
-86.2201
-94.3591
-103.605
-114.207
-126.382
-140.24
-157.206
-179.856
-33.9968
-36.5395
-39.2642
-42.2947
-45.6028
-49.2061
-53.1461
-57.4692
-62.2276
-67.4831
-73.3103
-79.8013
-87.0708
-95.2647
-104.575
-115.249
-127.506
-141.449
-158.492
-181.192
-34.5763
-37.1369
-39.865
-42.9066
-46.2297
-49.8484
-53.8046
-58.1462
-62.9267
-68.2086
-74.0675
-80.5961
-87.9103
-96.157
-105.529
-116.275
-128.61
-142.638
-159.76
-182.515
-35.3248
-37.8633
-40.5399
-43.564
-46.8862
-50.5076
-54.4701
-58.8235
-63.6215
-68.9264
-74.814
-81.3778
-88.7345
-97.0319
-106.463
-117.278
-129.69
-143.8
-161.006
-183.826
-36.2319
-38.5828
-41.1924
-44.2248
-47.5511
-51.1687
-55.1316
-59.4929
-64.3051
-69.6303
-75.5444
-82.1413
-89.5385
-97.8846
-107.373
-118.253
-130.737
-144.922
-162.215
-185.13
-19.3474
-20.675
-22.5678
-24.8304
-27.3398
-30.0981
-33.1376
-36.4887
-40.1845
-44.2647
-48.7778
-53.7826
-59.353
-65.5855
-72.6167
-80.6479
-89.8886
-100.555
-114.431
-134.835
-19.8395
-21.2894
-23.2311
-25.4582
-27.9182
-30.6415
-33.6599
-36.9996
-40.6911
-44.7731
-49.2935
-54.3112
-59.9003
-66.1583
-73.2237
-81.2999
-90.5976
-101.329
-115.268
-135.719
-19.9149
-21.5962
-23.6475
-25.9162
-28.3957
-31.1308
-34.1564
-37.5016
-41.1998
-45.2915
-49.8252
-54.8606
-60.4727
-66.7603
-73.8633
-81.9874
-91.3448
-102.142
-116.135
-136.604
-20.1008
-21.8623
-23.9677
-26.2817
-28.8012
-31.5688
-34.6194
-37.9848
-41.7011
-45.8111
-50.3649
-55.4235
-61.0633
-67.3844
-74.5284
-82.7033
-92.1231
-102.992
-117.051
-137.557
-20.3645
-22.1516
-24.2897
-26.6368
-29.1889
-31.9868
-35.0649
-38.4556
-42.1963
-46.3305
-50.9098
-55.9964
-61.6681
-68.0265
-75.2152
-83.444
-92.9296
-103.877
-118.016
-138.578
-20.6167
-22.4438
-24.6186
-26.9961
-29.5764
-32.4017
-35.5066
-38.9238
-42.6911
-46.8528
-51.461
-56.5791
-62.2862
-68.6855
-75.9224
-84.2088
-93.7639
-104.794
-119.021
-139.647
-20.8628
-22.7371
-24.9475
-27.3547
-29.9638
-32.8172
-35.9498
-39.3946
-43.1901
-47.3811
-52.0207
-57.1729
-62.9183
-69.3616
-76.6499
-84.9974
-94.6254
-105.741
-120.058
-140.755
-21.1317
-23.0441
-25.2834
-27.7176
-30.3545
-33.2363
-36.3972
-39.8706
-43.6956
-47.9176
-52.5903
-57.7789
-63.565
-70.0548
-77.3975
-85.8092
-95.5128
-106.716
-121.126
-141.894
-21.4305
-23.3726
-25.6354
-28.093
-30.7555
-33.6641
-36.8527
-40.3549
-44.21
-48.464
-53.1713
-58.3979
-64.2266
-70.7652
-78.1648
-86.6432
-96.4252
-107.718
-122.222
-143.065
-21.7541
-23.723
-26.0064
-28.485
-31.1708
-34.1045
-37.3197
-40.8501
-44.7354
-49.0219
-53.7647
-59.0306
-64.9036
-71.4928
-78.9512
-87.4988
-97.3615
-108.746
-123.346
-144.266
-22.0989
-24.0937
-26.3961
-28.894
-31.6016
-34.5592
-37.8001
-41.3582
-45.2735
-49.5928
-54.3716
-59.6777
-65.5961
-72.2376
-79.7567
-88.3754
-98.3211
-109.799
-124.496
-145.493
-22.4642
-24.4841
-26.8038
-29.3196
-32.048
-35.0287
-38.2947
-41.88
-45.8251
-50.1772
-54.9926
-60.3396
-66.3045
-72.9995
-80.5809
-89.2725
-99.303
-110.876
-125.671
-146.746
-22.8495
-24.893
-27.2287
-29.7615
-32.5099
-35.5129
-38.8034
-42.4157
-46.3905
-50.7757
-55.6278
-61.0164
-67.0287
-73.7783
-81.4234
-90.1896
-100.307
-111.977
-126.87
-148.024
-23.2528
-25.3191
-27.6697
-30.2187
-32.9865
-36.0114
-39.326
-42.9651
-46.9696
-51.3879
-56.2772
-61.708
-67.7684
-74.5737
-82.2837
-91.1259
-101.331
-113.099
-128.092
-149.323
-23.6717
-25.7601
-28.125
-30.6899
-33.4767
-36.5232
-39.8619
-43.5276
-47.5619
-52.0134
-56.9404
-62.4137
-68.5231
-75.385
-83.1611
-92.0806
-102.375
-114.242
-129.336
-150.645
-24.1035
-26.2138
-28.5927
-31.1733
-33.9792
-37.0472
-40.4099
-44.1024
-48.1666
-52.6517
-57.6166
-63.1331
-69.2921
-76.2114
-84.0547
-93.0526
-103.438
-115.406
-130.601
-151.988
-24.5458
-26.6779
-29.0707
-31.6672
-34.4923
-37.582
-40.9688
-44.6883
-48.7827
-53.3017
-58.305
-63.8653
-70.0745
-77.0521
-84.9633
-94.0408
-104.518
-116.589
-131.887
-153.353
-24.9964
-27.1502
-29.5571
-32.1698
-35.0144
-38.1262
-41.5375
-45.2843
-49.4092
-53.9626
-59.0046
-64.6092
-70.8693
-77.9059
-85.886
-95.0437
-105.614
-117.789
-133.193
-154.742
-25.453
-27.6288
-30.0501
-32.6796
-35.5441
-38.6784
-42.1145
-45.889
-50.0448
-54.633
-59.7144
-65.3637
-71.6753
-78.7715
-86.8211
-96.0596
-106.723
-119.003
-134.517
-156.156
-25.9137
-28.1119
-30.548
-33.1949
-36.08
-39.2372
-42.6987
-46.5013
-50.6886
-55.3119
-60.433
-66.1276
-72.4911
-79.6474
-87.7669
-97.0866
-107.842
-120.225
-135.852
-157.598
-17.6591
-16.8672
-16.4468
-16.1902
-16.0045
-15.8539
-15.7361
-15.6419
-15.572
-15.5235
-15.4967
-15.4905
-15.5051
-15.5402
-15.596
-15.6724
-15.7696
-15.8878
-16.0274
-16.1885
-19.6924
-19.0363
-18.5326
-18.2215
-17.9921
-17.8187
-17.6839
-17.5789
-17.5013
-17.4476
-17.4173
-17.4092
-17.4229
-17.4581
-17.5147
-17.5925
-17.6918
-17.8124
-17.9545
-18.1184
-21.7875
-21.2325
-20.7462
-20.4091
-20.1484
-19.9529
-19.8007
-19.684
-19.5977
-19.5384
-19.5044
-19.4944
-19.5078
-19.5439
-19.6026
-19.6836
-19.7867
-19.912
-20.0594
-20.229
-24.1567
-23.6281
-23.1633
-22.8117
-22.5285
-22.3107
-22.1392
-22.0075
-21.9092
-21.8409
-21.8003
-21.7857
-21.7963
-21.8312
-21.89
-21.9723
-22.0779
-22.2065
-22.3581
-22.5328
-26.7452
-26.2323
-25.7811
-25.42
-25.1217
-24.8857
-24.6972
-24.551
-24.4408
-24.3631
-24.3154
-24.2957
-24.3029
-24.3361
-24.3947
-24.478
-24.5858
-24.7176
-24.8732
-25.053
-29.5551
-29.061
-28.621
-28.2535
-27.9449
-27.6943
-27.4916
-27.3323
-27.211
-27.1244
-27.0697
-27.0451
-27.0491
-27.0807
-27.1392
-27.2238
-27.334
-27.4693
-27.6295
-27.8149
-32.6243
-32.1463
-31.7153
-31.344
-31.0273
-30.7648
-30.5497
-30.3786
-30.247
-30.1517
-30.0903
-30.0609
-30.0618
-30.092
-30.1506
-30.2368
-30.3499
-30.4893
-30.6547
-30.8465
-35.9915
-35.5243
-35.099
-34.7247
-34.4011
-34.1283
-33.9023
-33.7203
-33.579
-33.4755
-33.4077
-33.3736
-33.3716
-33.4007
-33.4598
-33.548
-33.6645
-33.8086
-33.98
-34.1792
-39.6949
-39.233
-38.8097
-38.432
-38.1018
-37.8196
-37.5835
-37.3915
-37.241
-37.1298
-37.0558
-37.0173
-37.0128
-37.0411
-37.1011
-37.1919
-37.3126
-37.4622
-37.6407
-37.8484
-43.7763
-43.3151
-42.8902
-42.5076
-42.1701
-41.8788
-41.633
-41.4313
-41.272
-41.1533
-41.0734
-41.0308
-41.0241
-41.0521
-41.1136
-41.2077
-41.3334
-41.4896
-41.6761
-41.8937
-48.2849
-47.8195
-47.3893
-46.9997
-46.6536
-46.3525
-46.0966
-45.8852
-45.7171
-45.591
-45.5053
-45.4588
-45.4502
-45.4782
-45.5418
-45.6399
-45.7714
-45.9351
-46.1311
-46.3599
-53.2798
-52.8052
-52.3656
-51.9658
-51.6088
-51.2965
-51.0295
-50.8076
-50.6301
-50.4961
-50.4044
-50.3538
-50.3432
-50.3715
-50.4375
-50.5402
-50.6783
-50.8507
-51.0572
-51.2987
-58.8344
-58.3449
-57.891
-57.4769
-57.1057
-56.7795
-56.4992
-56.265
-56.0767
-55.9337
-55.8349
-55.7795
-55.7665
-55.7947
-55.8631
-55.9706
-56.1157
-56.2974
-56.5154
-56.7709
-65.044
-64.5328
-64.0582
-63.6243
-63.2342
-62.8899
-62.5928
-62.3432
-62.1414
-61.9869
-61.8791
-61.8172
-61.8002
-61.8271
-61.8971
-62.0088
-62.1608
-62.3517
-62.5817
-62.8517
-72.0437
-71.5022
-70.9989
-70.5377
-70.1219
-69.7535
-69.434
-69.1642
-68.9444
-68.7744
-68.6539
-68.5821
-68.5582
-68.5814
-68.6507
-68.7648
-68.9223
-69.1216
-69.3627
-69.6467
-80.0324
-79.4499
-78.9075
-78.4091
-77.9581
-77.5569
-77.207
-76.9095
-76.6649
-76.4731
-76.334
-76.2469
-76.2111
-76.2259
-76.2903
-76.4032
-76.563
-76.7677
-77.017
-77.3121
-89.2186
-88.5819
-87.9866
-87.4373
-86.9381
-86.4919
-86.1003
-85.7647
-85.4853
-85.2624
-85.0957
-84.9848
-84.9291
-84.9278
-84.9799
-85.0845
-85.2399
-85.444
-85.6959
-85.9967
-99.817
-99.1076
-98.4394
-97.821
-97.2573
-96.7513
-96.3043
-95.9172
-95.5904
-95.324
-95.1178
-94.9714
-94.8843
-94.8557
-94.8844
-94.9696
-95.1103
-95.3057
-95.5543
-95.8547
-113.596
-112.783
-112.018
-111.313
-110.671
-110.093
-109.578
-109.128
-108.742
-108.42
-108.163
-107.969
-107.839
-107.771
-107.766
-107.82
-107.938
-108.12
-108.366
-108.661
-133.845
-132.905
-132.045
-131.259
-130.545
-129.899
-129.321
-128.811
-128.368
-127.992
-127.685
-127.445
-127.272
-127.167
-127.127
-127.154
-127.251
-127.427
-127.679
-127.966
-16.3704
-16.5717
-16.7926
-17.033
-17.2931
-17.5729
-17.8724
-18.1915
-18.5298
-18.8865
-19.2609
-19.6506
-20.0497
-20.4522
-20.858
-21.2576
-21.5985
-21.8479
-22.115
-22.3698
-18.3036
-18.5088
-18.7339
-18.9789
-19.2438
-19.5283
-19.8324
-20.1558
-20.4977
-20.8573
-21.233
-21.6223
-22.0207
-22.4224
-22.8218
-23.211
-23.5714
-23.8688
-24.0774
-24.2766
-20.4207
-20.6329
-20.8658
-21.119
-21.3924
-21.6857
-21.9987
-22.3307
-22.6809
-23.0483
-23.4309
-23.8259
-24.2295
-24.6366
-25.0407
-25.434
-25.8084
-26.1455
-26.4139
-26.6573
-22.7303
-22.9492
-23.1894
-23.4505
-23.7323
-24.0344
-24.3563
-24.6972
-25.0561
-25.4318
-25.8222
-26.2244
-26.6347
-27.0485
-27.46
-27.8623
-28.2489
-28.6101
-28.9358
-29.2537
-25.2565
-25.4821
-25.7297
-25.999
-26.2894
-26.6005
-26.9316
-27.2818
-27.6501
-28.0349
-28.4341
-28.8449
-29.2638
-29.6867
-30.1086
-30.5238
-30.9265
-31.3107
-31.6785
-32.0527
-28.0251
-28.2581
-28.514
-28.7921
-29.092
-29.413
-29.7544
-30.1151
-30.494
-30.8895
-31.2993
-31.7209
-32.151
-32.586
-33.0217
-33.4536
-33.8769
-34.2881
-34.6928
-35.1088
-31.0642
-31.3056
-31.5707
-31.8588
-32.1693
-32.5016
-32.8547
-33.2275
-33.6187
-34.0268
-34.4495
-34.8844
-35.3285
-35.7786
-36.2314
-36.6832
-37.1305
-37.5718
-38.0128
-38.4661
-34.4054
-34.6564
-34.9319
-35.2314
-35.5541
-35.8991
-36.2656
-36.6524
-37.0581
-37.481
-37.9191
-38.37
-38.8312
-39.2998
-39.7729
-40.2478
-40.7221
-41.1954
-41.6727
-42.163
-38.0844
-38.3463
-38.6338
-38.9462
-39.2828
-39.6426
-40.0246
-40.4275
-40.8501
-41.2905
-41.7469
-42.2171
-42.6986
-43.1892
-43.6864
-44.1879
-44.6921
-45.1993
-45.7137
-46.242
-42.1411
-42.4155
-42.7167
-43.044
-43.3965
-43.7732
-44.1731
-44.5949
-45.0371
-45.4982
-45.9762
-46.4691
-46.9748
-47.4913
-48.0164
-48.5484
-49.0861
-49.6298
-50.1831
-50.7514
-46.6203
-46.909
-47.2259
-47.5702
-47.941
-48.3372
-48.7578
-49.2014
-49.6665
-50.1517
-50.6551
-51.1748
-51.7089
-52.2556
-52.8131
-53.3799
-53.955
-54.5387
-55.1339
-55.7454
-51.5737
-51.8786
-52.2132
-52.5768
-52.9683
-53.3868
-53.8311
-54.2998
-54.7915
-55.3046
-55.8375
-56.3884
-56.9555
-57.5372
-58.1319
-58.7384
-59.3555
-59.9834
-60.6246
-61.2836
-57.062
-57.3847
-57.7389
-58.1239
-58.5387
-58.9822
-59.4532
-59.9504
-60.4723
-61.0175
-61.5843
-62.171
-62.776
-63.3978
-64.035
-64.6864
-65.3508
-66.0279
-66.7201
-67.4317
-63.1598
-63.5012
-63.8764
-64.2844
-64.7244
-65.1953
-65.6958
-66.2247
-66.7804
-67.3614
-67.9663
-68.5934
-69.2412
-69.9082
-70.5933
-71.2951
-72.0123
-72.7442
-73.4931
-74.2631
-69.9712
-70.3312
-70.7274
-71.1591
-71.6253
-72.1249
-72.6567
-73.2193
-73.8114
-74.4314
-75.0779
-75.7493
-76.4441
-77.161
-77.8988
-78.6563
-79.4318
-80.2244
-81.0356
-81.8696
-77.6505
-78.027
-78.4424
-78.8961
-79.3873
-79.915
-80.4778
-81.0746
-81.7039
-82.3642
-83.054
-83.7719
-84.5163
-85.2861
-86.0801
-86.8972
-87.7356
-88.5933
-89.4714
-90.3736
-86.3441
-86.7316
-87.1606
-87.631
-88.1423
-88.6937
-89.284
-89.9118
-90.5756
-91.274
-92.0055
-92.7687
-93.5622
-94.3845
-95.2347
-96.1116
-97.0134
-97.9379
-98.8848
-99.8576
-96.202
-96.589
-97.0194
-97.4954
-98.0168
-98.5829
-99.1922
-99.8431
-100.534
-101.263
-102.029
-102.831
-103.667
-104.536
-105.436
-106.366
-107.327
-108.316
-109.334
-110.379
-108.986
-109.349
-109.761
-110.227
-110.745
-111.312
-111.928
-112.589
-113.294
-114.041
-114.828
-115.656
-116.521
-117.424
-118.361
-119.334
-120.344
-121.399
-122.496
-123.613
-128.223
-128.536
-128.918
-129.364
-129.867
-130.425
-131.034
-131.692
-132.397
-133.147
-133.942
-134.78
-135.661
-136.583
-137.545
-138.549
-139.603
-140.721
-141.901
-143.075
-144.133
-124.717
-111.444
-100.853
-91.2975
-82.7241
-75.0527
-68.1621
-61.9607
-56.3746
-51.3373
-46.788
-42.672
-38.9403
-35.5494
-32.4585
-29.6239
-27.0138
-24.6763
-22.6368
-145.223
-125.825
-112.519
-101.864
-92.236
-83.5927
-75.8564
-68.9069
-62.6527
-57.0194
-51.9397
-47.3521
-43.201
-39.4367
-36.0148
-32.8945
-30.0372
-27.4206
-25.0783
-22.9736
-146.368
-126.957
-113.611
-102.892
-93.192
-84.4781
-76.6766
-69.6683
-63.3618
-57.6822
-52.5613
-47.937
-43.753
-39.959
-36.5101
-33.3659
-30.4891
-27.8545
-25.4783
-23.3242
-147.56
-128.122
-114.725
-103.939
-94.1662
-85.3809
-77.5138
-70.4468
-64.0885
-58.3633
-53.2026
-48.5431
-44.3282
-40.5069
-37.0343
-33.8703
-30.978
-28.3307
-25.9396
-23.773
-148.792
-129.318
-115.863
-105.007
-95.1586
-86.301
-78.3678
-71.2422
-64.8325
-59.0626
-53.863
-49.1698
-44.9255
-41.0788
-37.5844
-34.4021
-31.4948
-28.8352
-26.4307
-24.2533
-150.058
-130.543
-117.025
-106.094
-96.1686
-87.2376
-79.2379
-72.0537
-65.5929
-59.7789
-54.5412
-49.8152
-45.5426
-41.6718
-38.157
-34.9577
-32.037
-29.3676
-26.9532
-24.7652
-151.355
-131.794
-118.209
-107.199
-97.1951
-88.1896
-80.123
-72.88
-66.3684
-60.5107
-55.2354
-50.4771
-46.1769
-42.2824
-38.7473
-35.531
-32.5964
-29.9161
-27.4897
-25.2883
-152.678
-133.069
-119.412
-108.322
-98.2367
-89.1556
-81.0215
-73.7196
-67.1572
-61.256
-55.9434
-51.1531
-46.8254
-42.9072
-39.3519
-36.1182
-33.1692
-30.4769
-28.0372
-25.8201
-154.026
-134.365
-120.634
-109.46
-99.2917
-90.134
-81.9317
-74.5706
-67.9575
-62.0127
-56.6628
-51.8405
-47.4852
-43.5431
-39.9669
-36.715
-33.7504
-31.0444
-28.5894
-26.3549
-155.394
-135.679
-121.871
-110.611
-100.358
-91.1227
-82.8517
-75.4312
-68.7671
-62.7787
-57.3914
-52.5369
-48.1536
-44.187
-40.5893
-37.3184
-34.3371
-31.6162
-29.1445
-26.8913
-156.781
-137.009
-123.12
-111.773
-101.434
-92.1197
-83.7795
-76.2992
-69.5839
-63.5518
-58.1269
-53.2398
-48.8281
-44.8366
-41.2167
-37.9258
-34.9267
-32.1895
-29.6998
-27.4274
-158.185
-138.352
-124.38
-112.943
-102.517
-93.1229
-84.7129
-77.1726
-70.406
-64.3298
-58.8671
-53.9472
-49.5066
-45.4895
-41.8467
-38.5352
-35.5174
-32.7628
-30.2543
-27.9621
-159.602
-139.705
-125.648
-114.119
-103.604
-94.13
-85.6499
-78.0493
-71.2311
-65.1109
-59.6101
-54.6569
-50.1871
-46.144
-42.4777
-39.1449
-36.1075
-33.3348
-30.8067
-28.4945
-161.029
-141.065
-126.921
-115.298
-104.694
-95.1388
-86.5883
-78.9273
-72.0575
-65.8929
-60.3539
-55.3673
-50.868
-46.7984
-43.1081
-39.7534
-36.696
-33.9043
-31.3561
-29.0241
-162.464
-142.43
-128.196
-116.479
-105.783
-96.1472
-87.526
-79.8045
-72.883
-66.6742
-61.0968
-56.0766
-51.5475
-47.4512
-43.7367
-40.3596
-37.2817
-34.4707
-31.9019
-29.5502
-163.904
-143.796
-129.47
-117.657
-106.871
-97.1524
-88.4605
-80.6786
-73.7057
-67.4528
-61.8371
-56.7833
-52.2243
-48.1011
-44.3621
-40.9626
-37.8639
-35.0331
-32.4437
-30.0727
-165.353
-145.163
-130.741
-118.83
-107.952
-98.1517
-89.3892
-81.5473
-74.5233
-68.2265
-62.5728
-57.4856
-52.8969
-48.7468
-44.9833
-41.5613
-38.4418
-35.5912
-32.9811
-30.5915
-166.817
-146.533
-132.006
-119.995
-109.024
-99.1424
-90.3098
-82.4084
-75.3339
-68.9938
-63.3024
-58.1821
-53.5638
-49.387
-45.5992
-42.1548
-39.0147
-36.1445
-33.514
-31.1069
-168.29
-147.902
-133.262
-121.149
-110.086
-100.124
-91.222
-83.2618
-76.1372
-69.7541
-64.0254
-58.8721
-54.2244
-50.0211
-46.2091
-42.7425
-39.582
-36.6923
-34.0421
-31.6189
-169.728
-149.252
-134.507
-122.293
-111.139
-101.097
-92.1269
-84.1082
-76.9338
-70.508
-64.742
-59.5559
-54.8788
-50.649
-46.8129
-43.3242
-40.1432
-37.2342
-34.5647
-32.1266
-25.686
-17.585
-12.3524
-8.60432
-5.95818
-4.08361
-2.74216
-1.79409
-1.13584
-0.691038
-0.401018
-0.220563
-0.115521
-0.060778
-0.0384175
-0.0360095
-0.0451568
-0.060328
-0.0779978
-0.0959889
-0.113057
-0.128541
-0.142165
-0.153881
-0.163703
-0.171718
-0.177867
-0.182166
-0.184296
-0.184249
-0.181395
-0.175895
-0.166825
-0.154624
-0.138542
-0.118901
-0.0966527
-0.0697649
-0.0444757
-0.01038
-26.1811
-17.9819
-12.6598
-8.84465
-6.1413
-4.22467
-2.85208
-1.88028
-1.20415
-0.745702
-0.445145
-0.256408
-0.144746
-0.0846449
-0.0579064
-0.0519013
-0.0580852
-0.0708143
-0.0864722
-0.102809
-0.118518
-0.132891
-0.145608
-0.156585
-0.165807
-0.173332
-0.17908
-0.183046
-0.184896
-0.184606
-0.181547
-0.175863
-0.16665
-0.154322
-0.138175
-0.11848
-0.0962631
-0.069407
-0.044235
-0.0102636
-26.6692
-18.3808
-12.9742
-9.09268
-6.33047
-4.36994