/*--------------------------------*- C++ -*----------------------------------*\
  =========                 |
  \\      /  F ield         | OpenFOAM: The Open Source CFD Toolbox
   \\    /   O peration     | Website:  https://openfoam.org
    \\  /    A nd           | Version:  6.0
     \\/     M anipulation  |
\*---------------------------------------------------------------------------*/
FoamFile
{
    version     2.0;
    format      ascii;
    class       volVectorField;
    location    "13.7515";
    object      U;
}
// * * * * * * * * * * * * * * * * * * * * * * * * * * * * * * * * * * * * * //

dimensions      [0 1 -1 0 0 0 0];

internalField   nonuniform List<vector> 
19200
(
(0.0985178 -4.7461 -6.52276e-21)
(0.0607376 -4.33526 3.29087e-21)
(0.0666527 -3.99863 1.52736e-21)
(0.0814811 -3.7231 1.34746e-21)
(0.0990561 -3.49717 1.50776e-21)
(0.120847 -3.31114 1.10085e-22)
(0.146264 -3.15712 2.14501e-21)
(0.174381 -3.02868 -1.41828e-22)
(0.204498 -2.92066 1.89207e-21)
(0.236021 -2.82893 8.00054e-22)
(0.268433 -2.75014 1.32762e-23)
(0.301291 -2.68165 1.272e-21)
(0.334224 -2.62132 2.08572e-21)
(0.366923 -2.56746 -1.41634e-21)
(0.39914 -2.51871 1.84192e-21)
(0.430672 -2.474 1.59671e-21)
(0.46136 -2.43246 -1.49642e-21)
(0.491083 -2.39342 2.57549e-21)
(0.519751 -2.35632 -1.63131e-21)
(0.5473 -2.32074 8.32273e-22)
(0.573692 -2.28632 1.16377e-21)
(0.598903 -2.25278 -3.66535e-22)
(0.622928 -2.2199 4.98689e-22)
(0.645772 -2.18748 -5.80502e-22)
(0.66745 -2.15535 -1.16628e-24)
(0.687983 -2.12335 3.12794e-22)
(0.707393 -2.09133 -1.97084e-22)
(0.725706 -2.05915 1.31432e-22)
(0.742956 -2.02662 2.86895e-22)
(0.759148 -1.99357 1.18394e-21)
(0.223033 -4.74357 -1.52503e-21)
(0.175163 -4.33901 1.0241e-20)
(0.172964 -4.00762 -5.39662e-21)
(0.181391 -3.73689 -7.35652e-21)
(0.193942 -3.51537 -3.30913e-21)
(0.21177 -3.33323 -2.39722e-21)
(0.234035 -3.18254 -5.18339e-21)
(0.259615 -3.05692 6.50603e-22)
(0.287653 -2.95122 -1.12991e-21)
(0.317436 -2.86132 -3.92126e-21)
(0.348352 -2.78395 -9.85525e-21)
(0.379883 -2.71648 4.84283e-21)
(0.411603 -2.65683 -1.78376e-21)
(0.443163 -2.60334 6.80087e-22)
(0.474278 -2.55469 -4.24151e-21)
(0.504725 -2.50984 -1.57381e-21)
(0.534328 -2.46797 1.81268e-22)
(0.562954 -2.42842 5.39114e-21)
(0.590506 -2.39068 -2.83561e-21)
(0.616916 -2.35434 -1.58532e-21)
(0.642142 -2.31907 -6.19742e-21)
(0.666162 -2.28462 1.59744e-21)
(0.688972 -2.25076 -1.02286e-21)
(0.710578 -2.21731 1.79772e-21)
(0.730999 -2.18413 -8.14919e-22)
(0.750257 -2.15107 -1.27279e-21)
(0.768376 -2.11796 4.2329e-22)
(0.785388 -2.08468 6.28933e-22)
(0.801349 -2.05103 -1.15148e-21)
(0.816229 -2.01681 6.05449e-22)
(0.347228 -4.73818 -7.5733e-22)
(0.289554 -4.34019 2.38631e-21)
(0.279634 -4.01432 3.42796e-21)
(0.281992 -3.74863 2.61425e-20)
(0.289783 -3.53169 -1.51486e-20)
(0.303861 -3.35355 1.39876e-20)
(0.323144 -3.20628 8.60671e-21)
(0.346319 -3.0835 6.69322e-21)
(0.372378 -2.98012 -6.52948e-21)
(0.400491 -2.89205 -7.66411e-22)
(0.429953 -2.81605 1.66254e-20)
(0.460177 -2.74956 2.80717e-21)
(0.490684 -2.69053 -7.65409e-21)
(0.521084 -2.63734 6.12153e-21)
(0.551065 -2.58874 -7.71524e-23)
(0.580382 -2.5437 2.63591e-21)
(0.608843 -2.50144 1.98808e-21)
(0.636307 -2.46134 6.51998e-21)
(0.662672 -2.4229 -2.92153e-21)
(0.687866 -2.38576 -9.722e-22)
(0.711848 -2.34961 -2.56319e-21)
(0.734597 -2.3142 1.12301e-20)
(0.756111 -2.27934 -9.36453e-21)
(0.7764 -2.24487 3.12853e-21)
(0.795484 -2.21064 1.39904e-21)
(0.813389 -2.1765 -5.66382e-21)
(0.830141 -2.14233 7.62467e-21)
(0.84578 -2.10796 -8.64311e-22)
(0.860379 -2.07322 -8.7151e-22)
(0.873872 -2.0379 -6.15691e-21)
(0.471261 -4.72981 -2.47526e-20)
(0.404067 -4.3388 -2.25789e-20)
(0.386724 -4.01874 -2.77918e-20)
(0.383296 -3.75831 1.03978e-21)
(0.386573 -3.5461 1.62952e-21)
(0.397106 -3.37206 -3.17055e-20)
(0.413574 -3.22826 1.4036e-21)
(0.434472 -3.10835 4.07857e-21)
(0.458648 -3.00727 -7.01672e-22)
(0.485154 -2.92099 7.19855e-21)
(0.513199 -2.84633 -2.90376e-20)
(0.54213 -2.78076 -1.83641e-20)
(0.571416 -2.72229 6.84231e-21)
(0.600632 -2.66936 1.37897e-20)
(0.629439 -2.62074 -1.61749e-20)
(0.657572 -2.57545 -2.60448e-21)
(0.684831 -2.53274 -9.64113e-21)
(0.711064 -2.49204 -4.64609e-21)
(0.736166 -2.45287 7.71833e-21)
(0.760067 -2.4149 -1.00051e-20)
(0.782724 -2.37783 8.6209e-21)
(0.804121 -2.34145 -1.03216e-20)
(0.824257 -2.30557 -8.22167e-21)
(0.843148 -2.27006 -5.80169e-21)
(0.860818 -2.23478 -1.76686e-21)
(0.877295 -2.1996 -1.21126e-20)
(0.892608 -2.16437 1.23254e-21)
(0.906802 -2.12896 2.18335e-21)
(0.919973 -2.09316 -6.3318e-21)
(0.932011 -2.05678 1.36196e-21)
(0.5951 -4.71838 -1.5104e-20)
(0.518709 -4.3348 2.12625e-21)
(0.494239 -4.02085 1.95531e-20)
(0.485298 -3.76589 2.07736e-20)
(0.484301 -3.55854 1.48545e-20)
(0.49149 -3.38869 6.09691e-21)
(0.505303 -3.24839 9.59871e-21)
(0.524048 -3.13135 4.47268e-20)
(0.546429 -3.03256 -2.6931e-20)
(0.571386 -2.94804 7.32102e-22)
(0.598045 -2.87467 6.53634e-21)
(0.625689 -2.80997 2.8686e-20)
(0.653741 -2.75201 -1.98094e-20)
(0.681742 -2.69927 1.43701e-20)
(0.709329 -2.65057 -1.61846e-20)
(0.736222 -2.60497 2.76861e-20)
(0.762211 -2.56178 -8.33133e-21)
(0.787141 -2.52042 2.61255e-22)
(0.810903 -2.48049 1.35616e-20)
(0.833429 -2.44164 9.45036e-21)
(0.85468 -2.40363 -9.74221e-21)
(0.874642 -2.36626 1.3227e-20)
(0.89332 -2.32937 -6.12484e-21)
(0.910733 -2.29283 7.00472e-21)
(0.926912 -2.25651 9.30055e-21)
(0.941888 -2.22029 3.39378e-21)
(0.955693 -2.18404 1.04061e-20)
(0.968378 -2.14761 -3.67537e-21)
(0.980058 -2.11081 -1.3486e-21)
(0.990577 -2.07342 -6.24262e-21)
(0.718682 -4.70389 -1.11613e-20)
(0.633448 -4.32816 -7.51743e-21)
(0.602159 -4.02062 -2.26661e-20)
(0.587981 -3.77132 -5.89204e-20)
(0.582947 -3.56896 1.99889e-20)
(0.586989 -3.40336 1.27145e-21)
(0.598303 -3.26659 -1.37939e-20)
(0.615014 -3.15242 2.98079e-21)
(0.635682 -3.05589 -1.89786e-21)
(0.659143 -2.97309 -3.62907e-20)
(0.684439 -2.90095 1.54403e-20)
(0.710796 -2.83706 2.67767e-20)
(0.737594 -2.77955 1.76928e-22)
(0.764342 -2.72694 1.01592e-20)
(0.790658 -2.67811 2.5199e-20)
(0.81625 -2.63216 -1.73593e-20)
(0.840899 -2.58842 3.09288e-20)
(0.864448 -2.54638 -1.47309e-20)
(0.886791 -2.50564 2.66806e-20)
(0.907859 -2.4659 -1.99343e-20)
(0.92762 -2.42694 9.06044e-21)
(0.946065 -2.38857 2.38399e-20)
(0.963204 -2.35067 1.38481e-21)
(0.979063 -2.31309 -2.20371e-20)
(0.993677 -2.27575 1.256e-20)
(1.00708 -2.23852 1.53887e-21)
(1.01931 -2.20128 -3.95013e-21)
(1.03043 -2.16388 1.5479e-20)
(1.04056 -2.12612 5.37868e-21)
(1.04951 -2.08779 -5.46598e-21)
(0.841937 -4.68632 3.11082e-20)
(0.748242 -4.31886 -1.33957e-21)
(0.710454 -4.01799 -4.69137e-20)
(0.691318 -3.77454 9.3361e-21)
(0.682487 -3.57728 -1.33405e-20)
(0.683576 -3.41598 9.74263e-21)
(0.692543 -3.28276 2.21257e-20)
(0.707331 -3.17145 4.04903e-20)
(0.726364 -3.07714 -4.41752e-20)
(0.748372 -2.99601 1.09127e-20)
(0.772323 -2.92506 -7.75736e-21)
(0.797386 -2.86193 5.8115e-21)
(0.822903 -2.8048 -2.54649e-20)
(0.848355 -2.75227 -1.49021e-21)
(0.873344 -2.70325 4.23355e-20)
(0.897567 -2.65689 -2.91609e-20)
(0.920802 -2.61257 -1.84529e-20)
(0.942892 -2.56981 -1.35929e-20)
(0.963732 -2.52824 2.52724e-20)
(0.983259 -2.4876 5.52025e-21)
(1.00145 -2.44767 -2.4894e-20)
(1.01829 -2.4083 3.36916e-20)
(1.03381 -2.36938 -3.03309e-20)
(1.04804 -2.3308 2.0409e-20)
(1.06102 -2.29245 -1.14386e-20)
(1.07279 -2.25424 7.64778e-21)
(1.08338 -2.21606 5.712e-21)
(1.09288 -2.17774 -2.53014e-20)
(1.10141 -2.13908 1.10549e-20)
(1.10873 -2.09988 2.72846e-22)
(0.964793 -4.66567 -3.10836e-20)
(0.863039 -4.30687 2.61097e-20)
(0.819085 -4.01294 -4.87844e-20)
(0.795276 -3.77549 9.36292e-20)
(0.782887 -3.58343 -2.64594e-20)
(0.781215 -3.42648 3.80759e-20)
(0.787982 -3.29681 1.09292e-22)
(0.800954 -3.18833 -5.10328e-21)
(0.818421 -3.09622 -8.0361e-21)
(0.839015 -3.01671 -1.63374e-22)
(0.861631 -2.94688 -3.15437e-20)
(0.885387 -2.88444 1.63009e-20)
(0.909589 -2.82765 -2.0175e-20)
(0.933697 -2.77514 -1.58351e-21)
(0.957297 -2.72587 -5.75117e-20)
(0.980082 -2.67907 1.87848e-20)
(1.00183 -2.63414 1.12188e-20)
(1.02237 -2.59062 -1.24739e-20)
(1.04163 -2.54821 -1.43527e-21)
(1.05953 -2.50664 -1.98321e-20)
(1.07606 -2.46574 -7.20106e-21)
(1.09123 -2.42539 7.03808e-22)
(1.10505 -2.38547 -1.76626e-20)
(1.11758 -2.3459 -2.62503e-20)
(1.12885 -2.30658 1.07447e-21)
(1.13892 -2.26743 -2.81032e-21)
(1.14782 -2.22834 8.41706e-21)
(1.15564 -2.18916 -2.08827e-20)
(1.16253 -2.14966 1.783e-20)
(1.16818 -2.10966 -3.6216e-20)
(1.08718 -4.64195 -7.88264e-20)
(0.977785 -4.29217 9.78644e-20)
(0.92801 -4.00542 -1.04466e-19)
(0.899818 -3.77413 -2.80432e-20)
(0.884108 -3.58733 -1.85264e-20)
(0.879864 -3.43476 -1.99651e-20)
(0.884575 -3.30865 -1.84586e-20)
(0.895832 -3.20297 -3.97308e-21)
(0.911797 -3.113 -1.88711e-20)
(0.931007 -3.03506 -4.77182e-21)
(0.952292 -2.9663 3.29971e-20)
(0.974721 -2.9045 -1.901e-20)
(0.99757 -2.84797 -2.32677e-20)
(1.02028 -2.79543 -3.94912e-20)
(1.04243 -2.74589 8.34398e-20)
(1.0637 -2.6986 -3.25984e-20)
(1.08387 -2.65301 1.21854e-20)
(1.10279 -2.60873 -4.58451e-20)
(1.12037 -2.56545 1.74391e-20)
(1.13656 -2.52296 -7.44271e-21)
(1.15136 -2.4811 9.13794e-21)
(1.16476 -2.43977 -3.52332e-21)
(1.17682 -2.39887 2.9972e-20)
(1.18757 -2.35834 -1.07635e-20)
(1.19708 -2.31809 2.94573e-20)
(1.20539 -2.27805 -5.5778e-21)
(1.21255 -2.23811 3.87964e-20)
(1.21864 -2.19812 1.07113e-20)
(1.22385 -2.15786 2.03702e-20)
(1.2278 -2.11714 -6.61804e-20)
(1.20902 -4.61516 1.25102e-19)
(1.09242 -4.27473 -2.48038e-20)
(1.03718 -3.99539 4.42678e-20)
(1.0049 -3.77038 -1.31564e-20)
(0.986108 -3.58893 4.59389e-20)
(0.979479 -3.44075 4.4094e-20)
(0.98227 -3.31818 5.08323e-20)
(0.991907 -3.21527 -4.37895e-21)
(1.00643 -3.1274 -4.9663e-20)
(1.02428 -3.05097 7.33846e-20)
(1.04423 -2.9832 -5.96026e-21)
(1.0653 -2.92198 5.3443e-20)
(1.08675 -2.86568 1.95365e-20)
(1.10801 -2.81305 7.09986e-21)
(1.12863 -2.76318 1.2243e-20)
(1.14831 -2.71538 1.61853e-20)
(1.16683 -2.66912 2.74999e-20)
(1.18404 -2.62405 -7.98193e-21)
(1.19986 -2.5799 4.10358e-20)
(1.21426 -2.53649 1.92351e-20)
(1.22723 -2.49368 -4.04031e-20)
(1.2388 -2.45139 7.18028e-20)
(1.24902 -2.40955 -9.55666e-20)
(1.25793 -2.36809 9.1381e-20)
(1.26561 -2.32696 -3.04071e-20)
(1.27211 -2.28608 5.76784e-21)
(1.27748 -2.24535 -4.06643e-20)
(1.28181 -2.20462 2.27121e-20)
(1.2853 -2.16366 8.32317e-21)
(1.28752 -2.12231 -1.05661e-20)
(1.33023 -4.58532 -7.28138e-20)
(1.20689 -4.25455 7.34937e-20)
(1.14654 -3.9828 -2.01735e-20)
(1.11047 -3.76419 5.87831e-20)
(1.08884 -3.58813 5.54621e-21)
(1.08 -3.44437 1.3237e-20)
(1.08101 -3.3253 -1.03497e-19)
(1.08911 -3.22512 -1.80767e-20)
(1.10224 -3.13929 6.82802e-20)
(1.11875 -3.06431 5.34211e-20)
(1.13735 -2.99749 -9.111e-20)
(1.15704 -2.93679 5.38648e-20)
(1.17705 -2.88065 -5.43505e-20)
(1.19678 -2.8279 3.84257e-20)
(1.2158 -2.77767 -6.38514e-20)
(1.23381 -2.72932 -4.84069e-20)
(1.25059 -2.68238 2.97889e-21)
(1.26601 -2.63651 -2.27617e-20)
(1.27999 -2.5915 4.07918e-20)
(1.29251 -2.54717 1.60929e-20)
(1.30358 -2.50344 -1.07121e-20)
(1.31324 -2.46022 -3.32913e-21)
(1.32154 -2.41746 1.29299e-20)
(1.32855 -2.37513 -4.30012e-20)
(1.33434 -2.33317 7.30849e-20)
(1.33898 -2.2915 -1.77157e-20)
(1.34252 -2.25004 -1.46922e-21)
(1.34506 -2.20865 6.48855e-20)
(1.34681 -2.16706 8.86331e-21)
(1.34727 -2.12517 -9.34161e-21)
(1.45076 -4.55242 1.81746e-21)
(1.32113 -4.2316 -4.09036e-20)
(1.25605 -3.96762 -3.87704e-20)
(1.21648 -3.75551 -6.32248e-20)
(1.19224 -3.58488 1.58802e-21)
(1.18139 -3.44551 -4.67964e-20)
(1.18073 -3.32993 5.57662e-20)
(1.18739 -3.23243 -4.78606e-21)
(1.19916 -3.14858 4.73547e-20)
(1.21434 -3.07499 -3.85392e-20)
(1.23158 -3.00906 -2.05712e-20)
(1.24985 -2.94883 1.12521e-20)
(1.26835 -2.8928 6.12492e-21)
(1.28649 -2.83989 -6.42706e-20)
(1.30384 -2.78927 3.84604e-20)
(1.3201 -2.74035 -1.97537e-20)
(1.33505 -2.69271 5.54045e-20)
(1.34859 -2.64605 -1.85377e-20)
(1.36064 -2.60017 1.98082e-20)
(1.3712 -2.55496 4.72897e-21)
(1.38029 -2.51032 3.38106e-20)
(1.38797 -2.4662 -6.95527e-21)
(1.39429 -2.42258 5.63295e-20)
(1.39934 -2.37942 -6.2635e-20)
(1.40319 -2.33668 -2.11893e-20)
(1.40592 -2.2943 1.76426e-20)
(1.4076 -2.25219 -1.43624e-21)
(1.40831 -2.2102 -3.12005e-20)
(1.40831 -2.16808 2.5599e-20)
(1.407 -2.12573 -3.1044e-20)
(1.57051 -4.51647 1.25517e-19)
(1.43508 -4.20586 3.60252e-20)
(1.36563 -3.94981 4.21718e-20)
(1.32287 -3.74427 5.88243e-20)
(1.29626 -3.57909 8.8248e-20)
(1.28356 -3.44411 -2.0646e-21)
(1.28136 -3.33197 1.27054e-20)
(1.28664 -3.2371 1.03523e-19)
(1.2971 -3.15518 -2.10812e-20)
(1.31095 -3.08291 -3.85737e-20)
(1.32681 -3.01781 6.98551e-20)
(1.34361 -2.95799 1.22122e-20)
(1.36055 -2.90204 1.00152e-21)
(1.37703 -2.84893 1.70678e-20)
(1.39263 -2.79789 3.15401e-20)
(1.40705 -2.74839 -6.56005e-20)
(1.42009 -2.70004 5.63207e-20)
(1.43166 -2.6526 9.91091e-21)
(1.4417 -2.60588 5.61994e-20)
(1.45022 -2.5598 -3.02096e-20)
(1.45726 -2.51429 5.12234e-20)
(1.46288 -2.46933 -5.44447e-20)
(1.46716 -2.42489 5.33955e-20)
(1.47019 -2.38096 7.53079e-21)
(1.47206 -2.3375 -3.59315e-20)
(1.47285 -2.29447 -1.19264e-20)
(1.47262 -2.25178 7.05319e-20)
(1.47149 -2.20928 5.16e-20)
(1.46972 -2.16671 1.39641e-20)
(1.46663 -2.12399 -9.91412e-21)
(1.68942 -4.4775 1.35198e-20)
(1.54867 -4.17733 3.17156e-20)
(1.47524 -3.92934 1.27238e-19)
(1.42958 -3.73043 -2.08658e-19)
(1.40083 -3.5707 -2.08589e-20)
(1.38645 -3.44009 -2.23355e-20)
(1.38284 -3.33135 1.04418e-20)
(1.38681 -3.23904 1.50832e-20)
(1.39598 -3.15898 2.41956e-20)
(1.4085 -3.08798 -6.45062e-20)
(1.42295 -3.02365 -1.30481e-20)
(1.43823 -2.96419 3.78604e-20)
(1.45354 -2.90828 4.14347e-20)
(1.46829 -2.85493 -4.08632e-20)
(1.48206 -2.80346 -4.10097e-20)
(1.49455 -2.75337 6.71532e-20)
(1.5056 -2.70433 4.48274e-20)
(1.51512 -2.65611 -1.09025e-20)
(1.52306 -2.60857 -2.86923e-20)
(1.52947 -2.56166 5.73967e-21)
(1.53438 -2.51532 -6.80745e-20)
(1.53787 -2.46955 8.3223e-20)
(1.54005 -2.42436 -5.70617e-20)
(1.54101 -2.37972 -2.45242e-21)
(1.54085 -2.33562 3.85721e-20)
(1.53967 -2.29202 -1.18668e-20)
(1.53751 -2.24883 -3.6242e-20)
(1.53452 -2.20591 4.49933e-20)
(1.53096 -2.16297 -1.09224e-21)
(1.5261 -2.11999 8.23679e-21)
(1.8074 -4.4355 -9.19728e-21)
(1.66184 -4.14597 -3.21125e-20)
(1.5848 -3.90615 -1.48064e-19)
(1.53655 -3.71392 5.37486e-20)
(1.50589 -3.55965 -1.65812e-20)
(1.48999 -3.43336 5.60235e-20)
(1.48506 -3.32796 4.50511e-21)
(1.48779 -3.23815 -6.52916e-20)
(1.4957 -3.15989 1.01096e-19)
(1.50688 -3.0901 -9.17055e-20)
(1.51988 -3.02648 -3.90339e-21)
(1.5336 -2.96734 2.32239e-20)
(1.54722 -2.91143 -3.96012e-20)
(1.56015 -2.85783 4.66077e-20)
(1.572 -2.80592 -8.87625e-20)
(1.58249 -2.75524 -2.04322e-20)
(1.59146 -2.70551 5.50404e-20)
(1.59883 -2.65653 2.78752e-22)
(1.60461 -2.60821 -3.53657e-20)
(1.60882 -2.5605 9.74141e-20)
(1.61153 -2.51339 -5.25664e-20)
(1.61284 -2.46687 -7.09047e-20)
(1.61286 -2.42098 2.36903e-20)
(1.6117 -2.3757 -6.99101e-20)
(1.60948 -2.33103 -1.70069e-20)
(1.60628 -2.28694 -2.13779e-21)
(1.60218 -2.24334 -4.66372e-20)
(1.59732 -2.20009 5.59325e-20)
(1.59198 -2.15687 -3.12161e-20)
(1.58535 -2.11373 3.68346e-20)
(1.92439 -4.39051 -4.68144e-20)
(1.7745 -4.11179 -1.33024e-19)
(1.69425 -3.88023 6.51378e-20)
(1.6437 -3.6947 -6.35148e-20)
(1.61136 -3.54587 -4.63769e-20)
(1.5941 -3.42386 -2.73433e-20)
(1.58796 -3.32174 -1.02489e-19)
(1.5895 -3.23437 7.04973e-20)
(1.59616 -3.15783 -1.76292e-19)
(1.60598 -3.08918 -6.53355e-20)
(1.6175 -3.02623 2.33759e-20)
(1.62959 -2.96737 3.97537e-20)
(1.64145 -2.91143 -5.98883e-22)
(1.6525 -2.85756 -7.73893e-20)
(1.66234 -2.8052 1.83792e-20)
(1.67074 -2.75394 -7.23925e-20)
(1.67754 -2.70353 -5.2388e-20)
(1.6827 -2.65384 -3.18807e-20)
(1.68622 -2.60477 -6.36932e-21)
(1.68816 -2.55631 5.50564e-20)
(1.68861 -2.50847 7.9161e-20)
(1.68768 -2.46127 -2.39536e-20)
(1.68549 -2.41474 -2.36305e-20)
(1.68217 -2.3689 4.56444e-20)
(1.67784 -2.32374 2.529e-20)
(1.67261 -2.27924 -2.03138e-20)
(1.66655 -2.23532 -2.29452e-20)
(1.65981 -2.19183 2.65678e-21)
(1.65268 -2.14844 2.38504e-20)
(1.6443 -2.10524 3.29223e-20)
(2.04031 -4.34253 -8.78382e-21)
(1.88661 -4.07476 1.70997e-19)
(1.80352 -3.85154 1.33357e-19)
(1.75097 -3.67272 1.04043e-19)
(1.71716 -3.52929 -6.84544e-20)
(1.69871 -3.4115 -1.36769e-20)
(1.69145 -3.31259 1.20554e-20)
(1.69184 -3.22759 9.08596e-20)
(1.69726 -3.15272 3.43525e-20)
(1.70571 -3.08515 8.4241e-20)
(1.71569 -3.02282 -1.19516e-19)
(1.72609 -2.9642 1.19753e-20)
(1.73612 -2.9082 4.93906e-20)
(1.7452 -2.85406 3.10685e-20)
(1.75296 -2.80125 6.50619e-20)
(1.75918 -2.74942 -4.46316e-20)
(1.76373 -2.69837 -4.16588e-20)
(1.76659 -2.64798 7.7896e-21)
(1.76778 -2.59821 9.0879e-20)
(1.76739 -2.54906 -1.47005e-19)
(1.76551 -2.50055 5.14832e-20)
(1.76228 -2.45273 -3.05273e-22)
(1.75783 -2.40564 9.89069e-20)
(1.7523 -2.35931 -4.27639e-20)
(1.74584 -2.31375 -2.36215e-21)
(1.73855 -2.26893 -2.77858e-20)
(1.73051 -2.22479 2.65012e-20)
(1.7219 -2.18115 6.49719e-21)
(1.713 -2.13769 -2.96607e-20)
(1.70288 -2.09454 1.01059e-19)
(2.15507 -4.29159 -1.74306e-19)
(1.99807 -4.03489 -1.04538e-19)
(1.91254 -3.82004 -2.69532e-19)
(1.85828 -3.64792 -1.2424e-19)
(1.82323 -3.50985 1.16914e-19)
(1.80371 -3.39622 -6.96489e-20)
(1.79542 -3.30045 -1.78734e-20)
(1.79471 -3.21774 -4.70572e-20)
(1.79888 -3.14447 8.12636e-20)
(1.80593 -3.07793 -1.9282e-20)
(1.81434 -3.01617 -3.02095e-20)
(1.82299 -2.95776 -3.67564e-21)
(1.8311 -2.90169 -1.24312e-19)
(1.83813 -2.84727 -5.43077e-21)
(1.84373 -2.79402 3.32523e-20)
(1.84768 -2.74164 -4.18287e-21)
(1.84991 -2.68998 -1.32477e-19)
(1.85039 -2.63895 1.29781e-19)
(1.84918 -2.58852 -1.28553e-19)
(1.84638 -2.53873 5.05763e-20)
(1.84212 -2.48963 7.23496e-21)
(1.83653 -2.44126 2.75873e-21)
(1.82978 -2.39368 -5.44355e-20)
(1.82202 -2.34695 1.8623e-20)
(1.81339 -2.30106 -6.93711e-23)
(1.80402 -2.25602 6.2141e-21)
(1.794 -2.21175 -1.38876e-19)
(1.7835 -2.16807 3.77216e-20)
(1.77285 -2.12464 4.06497e-20)
(1.76101 -2.08165 4.56878e-20)
(2.26861 -4.23769 3.42405e-19)
(2.10882 -3.99216 1.20939e-19)
(2.02123 -3.78571 7.18105e-20)
(1.96556 -3.62027 1.14296e-19)
(1.92946 -3.4875 -1.41482e-20)
(1.90902 -3.37796 8.8323e-20)
(1.89977 -3.28525 1.97898e-19)
(1.89799 -3.20476 -2.49394e-20)
(1.90093 -3.13302 1.22116e-20)
(1.90654 -3.06746 2.4097e-19)
(1.91331 -3.00623 -3.19818e-20)
(1.92015 -2.948 3.46126e-20)
(1.92627 -2.89185 -1.29114e-20)
(1.93117 -2.83714 -1.56427e-21)
(1.93452 -2.78347 1.81921e-19)
(1.93613 -2.73058 6.97925e-21)
(1.93595 -2.67835 1.9668e-19)
(1.93398 -2.62671 -2.45021e-20)
(1.9303 -2.57569 -4.32911e-20)
(1.92504 -2.52533 1.01569e-19)
(1.91833 -2.47569 -9.31716e-20)
(1.91034 -2.42684 1.02921e-19)
(1.90124 -2.37886 5.58552e-20)
(1.8912 -2.3318 -4.53595e-20)
(1.88039 -2.28569 6.9639e-20)
(1.86892 -2.24051 8.39097e-21)
(1.85691 -2.19621 -2.9465e-20)
(1.84454 -2.15261 1.59445e-20)
(1.83215 -2.10932 1.05754e-19)
(1.81863 -2.06659 1.64393e-20)
(2.38085 -4.18088 -5.90009e-20)
(2.21879 -3.94658 -1.22882e-19)
(2.12953 -3.74853 5.16251e-20)
(2.07272 -3.58973 -2.066e-19)
(2.03578 -3.46219 9.94828e-20)
(2.01455 -3.35665 -1.83465e-19)
(2.00442 -3.26692 -1.22044e-19)
(2.00159 -3.18857 3.44847e-20)
(2.00327 -3.11829 3.47566e-20)
(2.0074 -3.05366 -1.67694e-19)
(2.01249 -2.99292 -7.32897e-20)
(2.01744 -2.93486 3.43567e-20)
(2.0215 -2.87862 -9.45665e-20)
(2.02419 -2.82365 -3.79701e-20)
(2.02521 -2.76957 -2.56926e-20)
(2.0244 -2.7162 -2.58425e-20)
(2.02173 -2.66344 -1.10082e-19)
(2.01724 -2.61126 -6.93405e-20)
(2.01103 -2.55971 1.24593e-20)
(2.00324 -2.50884 2.29315e-20)
(1.99404 -2.45873 2.47659e-20)
(1.9836 -2.40949 -8.55485e-20)
(1.97212 -2.36119 3.245e-20)
(1.95977 -2.31389 -6.69584e-20)
(1.94674 -2.26763 6.3564e-20)
(1.93317 -2.22242 -8.36052e-20)
(1.91916 -2.17819 2.64526e-20)
(1.90492 -2.13477 -4.1381e-20)
(1.8908 -2.09173 -5.91015e-20)
(1.87563 -2.04939 -5.99322e-21)
(2.49171 -4.12117 -1.26325e-19)
(2.3279 -3.89813 -1.12428e-19)
(2.23734 -3.70848 -1.1055e-19)
(2.17969 -3.55625 -8.31033e-20)
(2.1421 -3.43386 2.56789e-19)
(2.12019 -3.33223 3.66039e-20)
(2.10924 -3.24539 1.12023e-19)
(2.10537 -3.16911 1.72885e-19)
(2.10578 -3.10024 8.3969e-20)
(2.10841 -3.03648 -1.12303e-19)
(2.11174 -2.97621 1.82948e-19)
(2.11474 -2.9183 -1.78754e-19)
(2.11666 -2.86198 1.70518e-19)
(2.11706 -2.80675 2.0502e-20)
(2.11567 -2.75231 4.41597e-20)
(2.11237 -2.6985 1.47343e-20)
(2.10714 -2.64525 1.8073e-19)
(2.10007 -2.59259 -2.69813e-20)
(2.09127 -2.54057 2.45633e-20)
(2.0809 -2.48926 8.2607e-20)
(2.06915 -2.43877 -9.26051e-20)
(2.05622 -2.38921 7.42166e-20)
(2.04232 -2.34066 3.02626e-21)
(2.02763 -2.29321 3.39779e-20)
(2.01236 -2.24689 6.24076e-20)
(1.99666 -2.20174 -1.05758e-20)
(1.98065 -2.15769 6.20637e-20)
(1.96454 -2.11455 9.0258e-20)
(1.94872 -2.07188 -9.81111e-20)
(1.93195 -2.03006 -6.05472e-20)
(2.60111 -4.05859 3.72529e-19)
(2.43607 -3.84683 -4.22124e-20)
(2.34461 -3.66552 8.66934e-20)
(2.28638 -3.5198 1.59619e-19)
(2.24832 -3.40246 -4.64183e-19)
(2.22584 -3.30465 5.11071e-20)
(2.21412 -3.22061 -1.79615e-19)
(2.20923 -3.14633 1.82204e-19)
(2.20835 -3.0788 -1.45747e-19)
(2.20941 -3.01587 7.90559e-20)
(2.21094 -2.95605 -2.8945e-19)
(2.21191 -2.89828 8.24875e-21)
(2.21162 -2.84188 -9.73585e-20)
(2.20965 -2.78642 1.48557e-19)
(2.20578 -2.73165 -1.58435e-19)
(2.1999 -2.67744 -8.24195e-21)
(2.19206 -2.62378 -1.30082e-19)
(2.18234 -2.5707 -1.11168e-20)
(2.17089 -2.51828 1.11544e-20)
(2.1579 -2.46661 2.93114e-20)
(2.14357 -2.41581 -1.66345e-19)
(2.12811 -2.366 -5.11412e-21)
(2.11175 -2.31729 -9.37394e-20)
(2.09469 -2.26976 -2.18049e-20)
(2.07716 -2.22348 -5.78005e-20)
(2.05931 -2.17846 -6.34377e-20)
(2.04128 -2.13469 -6.64341e-20)
(2.02331 -2.09196 1.1024e-19)
(2.00581 -2.04978 2.97864e-20)
(1.98746 -2.00861 -5.89873e-20)
(2.70898 -3.99317 -2.4867e-19)
(2.54323 -3.79267 9.3164e-20)
(2.45125 -3.61966 -1.60233e-19)
(2.39271 -3.48034 2.37005e-20)
(2.35435 -3.36795 2.65435e-19)
(2.33141 -3.27385 -1.3545e-19)
(2.31895 -3.19253 -1.45085e-19)
(2.31304 -3.12016 -1.23517e-19)
(2.31083 -3.05392 5.63666e-21)
(2.31029 -2.9918 8.0534e-20)
(2.30995 -2.9324 -5.90184e-20)
(2.30882 -2.87478 2.26278e-21)
(2.30624 -2.81832 1.865e-19)
(2.30183 -2.76266 -9.50328e-20)
(2.2954 -2.70759 2.52397e-20)
(2.2869 -2.65305 -7.79814e-20)
(2.27637 -2.59903 3.00049e-20)
(2.26395 -2.5456 6.49126e-20)
(2.24981 -2.49285 7.46097e-20)
(2.23415 -2.44089 -8.18605e-20)
(2.21719 -2.38986 1.1555e-20)
(2.19918 -2.33989 7.08768e-20)
(2.18033 -2.29108 1.23265e-19)
(2.16088 -2.24355 3.31271e-20)
(2.14105 -2.19737 -1.28456e-19)
(2.12104 -2.15259 1.49968e-19)
(2.10098 -2.10919 -7.53232e-20)
(2.08113 -2.06697 -9.03834e-20)
(2.06197 -2.02541 -5.55251e-20)
(2.04209 -1.98501 -7.6575e-20)
(2.81525 -3.92494 1.33518e-19)
(2.64932 -3.73568 -1.07664e-19)
(2.5572 -3.57088 4.13724e-20)
(2.4986 -3.43785 2.21446e-19)
(2.4601 -3.33028 6.10659e-20)
(2.43676 -3.23979 -5.23509e-20)
(2.42361 -3.16109 1.27743e-19)
(2.41667 -3.09057 2.97515e-20)
(2.41311 -3.02557 1.2371e-19)
(2.4109 -2.96422 6.84518e-20)
(2.40863 -2.90523 3.34252e-21)
(2.40533 -2.84776 4.38891e-20)
(2.40039 -2.79127 -1.38976e-20)
(2.39348 -2.73544 2.4409e-20)
(2.38442 -2.68014 6.89921e-20)
(2.37322 -2.62532 -3.80317e-20)
(2.35996 -2.57101 9.50164e-20)
(2.34479 -2.5173 9.69357e-20)
(2.32792 -2.4643 -1.10856e-19)
(2.30956 -2.41214 1.14542e-19)
(2.28995 -2.36095 2.4467e-19)
(2.26935 -2.31088 -1.58745e-19)
(2.24799 -2.26205 1.60637e-19)
(2.22612 -2.21459 -1.12593e-19)
(2.20398 -2.16858 -1.61664e-20)
(2.18176 -2.1241 1.22409e-19)
(2.15965 -2.08115 -2.48126e-20)
(2.13792 -2.03954 9.24782e-20)
(2.11709 -1.99871 9.23198e-20)
(2.09572 -1.95924 -1.85271e-19)
(2.91984 -3.85393 -1.29041e-19)
(2.75429 -3.67586 6.18464e-20)
(2.66239 -3.51916 2.53338e-20)
(2.60396 -3.39229 -2.60701e-19)
(2.56545 -3.28942 -1.36413e-19)
(2.5418 -3.20242 1.03571e-19)
(2.52797 -3.12625 -2.90718e-19)
(2.51998 -3.05751 3.54508e-19)
(2.51503 -2.99371 -2.00388e-19)
(2.51111 -2.9331 2.39497e-20)
(2.50684 -2.87453 -3.79728e-20)
(2.5013 -2.81722 -1.17476e-19)
(2.49394 -2.76072 2.45204e-19)
(2.48445 -2.70478 9.36221e-20)
(2.47271 -2.6493 -9.69091e-20)
(2.45876 -2.59426 2.91988e-21)
(2.44272 -2.53973 5.51912e-20)
(2.42477 -2.48582 -1.19534e-19)
(2.40512 -2.43265 2.56482e-20)
(2.38404 -2.38036 8.39373e-20)
(2.36176 -2.3291 -3.46595e-20)
(2.33855 -2.279 5.82967e-20)
(2.31467 -2.23022 -1.15032e-19)
(2.29036 -2.18287 1.67658e-19)
(2.26588 -2.13708 3.95354e-20)
(2.24144 -2.09295 -1.06847e-19)
(2.21723 -2.05051 -9.28838e-20)
(2.19358 -2.00959 3.82468e-22)
(2.17107 -1.96962 1.29241e-19)
(2.14823 -1.93122 -3.12862e-20)
(3.02272 -3.78017 -3.53443e-20)
(2.85808 -3.61322 -2.59535e-19)
(2.76677 -3.46448 3.1134e-19)
(2.70871 -3.34361 2.12803e-19)
(2.67031 -3.2453 2.14765e-19)
(2.64638 -3.16169 6.10053e-20)
(2.63189 -3.08798 9.17071e-20)
(2.62285 -3.02096 4.75566e-20)
(2.61646 -2.95831 -1.88342e-19)
(2.61077 -2.89844 3.47716e-19)
(2.60444 -2.84028 -2.8341e-19)
(2.59661 -2.78316 -1.87265e-20)
(2.58675 -2.7267 4.22596e-20)
(2.57462 -2.67069 -1.87718e-19)
(2.56015 -2.61508 1.65236e-19)
(2.5434 -2.5599 -4.94738e-20)
(2.52454 -2.50523 -1.28186e-19)
(2.50377 -2.4512 4.99652e-20)
(2.48134 -2.39795 -9.61572e-20)
(2.45751 -2.34561 -8.52731e-20)
(2.43256 -2.29434 -9.18406e-20)
(2.40674 -2.24429 2.09019e-20)
(2.38033 -2.19561 1.23359e-20)
(2.35357 -2.14843 -2.27975e-19)
(2.32673 -2.10289 -8.71238e-20)
(2.30003 -2.05911 5.63286e-20)
(2.27368 -2.0172 7.01801e-20)
(2.24806 -1.97703 -9.69309e-20)
(2.22383 -1.93801 -3.70304e-20)
(2.19952 -1.90082 3.75036e-21)
(3.12384 -3.70369 -3.08899e-20)
(2.96067 -3.54776 1.67977e-19)
(2.87027 -3.4068 -4.7859e-20)
(2.81275 -3.29178 -5.90695e-20)
(2.77454 -3.1979 -3.34965e-19)
(2.75039 -3.11757 -7.41557e-20)
(2.73524 -3.04623 1.42999e-19)
(2.72512 -2.98088 -9.48532e-20)
(2.71726 -2.91937 -1.0131e-20)
(2.70975 -2.86022 -1.8875e-20)
(2.7013 -2.80248 1.07283e-19)
(2.6911 -2.74558 -1.70947e-19)
(2.67869 -2.68919 -1.15284e-19)
(2.66387 -2.63318 1.36148e-19)
(2.64661 -2.57752 -7.81777e-20)
(2.62703 -2.52227 -9.46286e-20)
(2.60531 -2.46755 2.03468e-19)
(2.58171 -2.41349 -3.20094e-20)
(2.55648 -2.36023 1.21308e-19)
(2.52991 -2.30793 -1.1163e-19)
(2.50228 -2.25674 -9.06824e-20)
(2.47386 -2.2068 7.90712e-20)
(2.44493 -2.15827 -8.90297e-21)
(2.41573 -2.11129 -5.97309e-20)
(2.38653 -2.066 5.27024e-20)
(2.35756 -2.02257 -1.64985e-19)
(2.32903 -1.98116 1.00837e-19)
(2.30136 -1.94172 -1.56666e-21)
(2.27533 -1.90367 -1.05918e-19)
(2.24954 -1.86776 1.61234e-19)
(3.22331 -3.62456 1.28201e-19)
(3.0621 -3.4795 -3.32729e-19)
(2.97283 -3.3461 -2.79673e-20)
(2.91598 -3.23674 1.58296e-19)
(2.87802 -3.14717 -4.1442e-20)
(2.85368 -3.07003 -1.17316e-19)
(2.83787 -3.001 5.56786e-20)
(2.82664 -2.93727 6.469e-20)
(2.81727 -2.87686 5.61496e-21)
(2.80789 -2.81843 8.06094e-20)
(2.79726 -2.76114 2.59064e-19)
(2.78464 -2.70449 -9.16297e-20)
(2.76962 -2.64823 2.39112e-20)
(2.75205 -2.59228 -6.24166e-20)
(2.73197 -2.53664 2.4091e-19)
(2.70952 -2.48142 -4.34056e-20)
(2.68493 -2.42673 1.44738e-19)
(2.65848 -2.37273 -5.63584e-20)
(2.63045 -2.31957 6.10464e-20)
(2.60115 -2.2674 9.25787e-20)
(2.57086 -2.21636 1.59122e-20)
(2.53988 -2.16661 6.27557e-20)
(2.50846 -2.11828 -5.21207e-20)
(2.47686 -2.07151 1.45709e-19)
(2.44532 -2.02647 -5.9738e-20)
(2.41408 -1.98333 2.19561e-19)
(2.38334 -1.94231 -6.35431e-20)
(2.35353 -1.90347 4.39028e-20)
(2.32561 -1.86627 -8.29928e-20)
(2.29835 -1.83167 1.57574e-19)
(3.3215 -3.5429 -2.83354e-19)
(3.16249 -3.40837 1.05275e-20)
(3.07438 -3.28226 -1.73302e-19)
(3.01823 -3.17842 3.18946e-20)
(2.98058 -3.09306 8.86119e-21)
(2.95608 -3.01903 -1.56952e-19)
(2.93962 -2.95225 -2.96704e-19)
(2.92727 -2.89011 1.49336e-19)
(2.91635 -2.83079 -2.1312e-19)
(2.90505 -2.77309 -1.13268e-19)
(2.89219 -2.71627 -6.50244e-20)
(2.87709 -2.65992 -5.28488e-20)
(2.8594 -2.60385 1.53192e-21)
(2.83905 -2.54803 -1.89746e-19)
(2.8161 -2.4925 1.25726e-19)
(2.79076 -2.43739 -2.06686e-19)
(2.76329 -2.38283 -5.24917e-20)
(2.73398 -2.32899 5.75281e-20)
(2.70317 -2.27602 7.26731e-20)
(2.67116 -2.22407 7.28775e-20)
(2.63825 -2.17328 5.59533e-20)
(2.60475 -2.12379 -1.40685e-19)
(2.5709 -2.07573 1.42513e-19)
(2.53696 -2.02922 -1.51927e-20)
(2.50317 -1.9844 -3.84858e-20)
(2.4697 -1.94145 -1.52803e-19)
(2.43674 -1.9006 -8.12911e-20)
(2.40469 -1.86194 1.50859e-19)
(2.37458 -1.8251 -4.93984e-20)
(2.34556 -1.79188 -5.1473e-20)
(3.41884 -3.45837 1.23277e-19)
(3.26184 -3.33394 1.14562e-20)
(3.17472 -3.21508 -3.43336e-20)
(3.11931 -3.11675 -7.47286e-21)
(3.08205 -3.03556 -6.27635e-20)
(3.05744 -2.96459 2.12072e-19)
(3.04035 -2.90001 -1.00685e-19)
(3.02687 -2.83943 6.61821e-20)
(3.01436 -2.78119 2.77173e-20)
(3.00108 -2.72422 1.00794e-19)
(2.98594 -2.66791 -3.93477e-20)
(2.9683 -2.6119 2.22979e-19)
(2.94791 -2.55609 -1.93866e-20)
(2.92472 -2.50048 1.46692e-19)
(2.89889 -2.44515 -2.47499e-19)
(2.87063 -2.39024 -1.90342e-20)
(2.84027 -2.33592 1.61848e-19)
(2.80812 -2.28235 -1.00813e-19)
(2.77454 -2.22967 -7.12054e-20)
(2.73985 -2.17806 -1.22994e-19)
(2.70438 -2.12762 -1.08407e-19)
(2.66842 -2.0785 1.16746e-19)
(2.63225 -2.0308 -1.10088e-19)
(2.59611 -1.98461 2.42209e-20)
(2.56023 -1.94004 8.95409e-20)
(2.52478 -1.89722 6.2144e-20)
(2.4899 -1.85625 5.92004e-20)
(2.45579 -1.81711 4.36001e-20)
(2.42302 -1.77984 -1.18024e-19)
(2.39116 -1.74756 -5.0664e-20)
(5.01136 -0.0292287 1.82752e-21)
(5.00385 -0.161037 1.81e-20)
(4.99321 -0.291882 6.28295e-20)
(4.97943 -0.422042 3.43452e-20)
(4.9623 -0.551576 -7.26391e-20)
(4.94174 -0.680449 2.19957e-20)
(4.91776 -0.808595 -2.30295e-20)
(4.8904 -0.935934 -5.81621e-20)
(4.85966 -1.06238 1.48183e-19)
(4.82559 -1.18784 -3.53286e-20)
(4.78822 -1.31224 -3.56155e-20)
(4.74759 -1.43548 -7.52601e-20)
(4.70374 -1.55747 -2.15481e-19)
(4.65671 -1.67815 1.99713e-20)
(4.60655 -1.79741 -9.6579e-21)
(4.5533 -1.91519 -6.71884e-20)
(4.49702 -2.0314 1.43896e-19)
(4.43775 -2.14598 7.79734e-20)
(4.37555 -2.25883 1.48942e-19)
(4.31046 -2.3699 7.262e-20)
(4.24256 -2.4791 -1.62559e-19)
(4.17189 -2.58638 6.5626e-21)
(4.09852 -2.69166 -3.06153e-19)
(4.0225 -2.79489 4.64389e-19)
(3.9439 -2.896 -1.52127e-19)
(3.86279 -2.99493 -1.95872e-19)
(3.77924 -3.09166 -2.73967e-20)
(3.69331 -3.18614 -1.57413e-21)
(3.60511 -3.27846 -1.46633e-19)
(3.5146 -3.369 2.6092e-19)
(5.03572 -0.0584192 7.57523e-21)
(5.02252 -0.190295 1.11847e-20)
(5.00561 -0.32107 2.77753e-21)