/*--------------------------------*- C++ -*----------------------------------*\
  =========                 |
  \\      /  F ield         | OpenFOAM: The Open Source CFD Toolbox
   \\    /   O peration     | Website:  https://openfoam.org
    \\  /    A nd           | Version:  6.0
     \\/     M anipulation  |
\*---------------------------------------------------------------------------*/
FoamFile
{
    version     2.0;
    format      ascii;
    class       volVectorField;
    location    "6.752";
    object      U;
}
// * * * * * * * * * * * * * * * * * * * * * * * * * * * * * * * * * * * * * //

dimensions      [0 1 -1 0 0 0 0];

internalField   nonuniform List<vector> 
19200
(
(0.00654212 -0.478487 -4.26587e-22)
(0.00476238 -0.439073 2.36483e-22)
(0.00264309 -0.402787 1.21407e-22)
(0.000201949 -0.369461 1.18622e-22)
(-0.00242672 -0.338896 1.45309e-22)
(-0.0051031 -0.310891 7.27064e-24)
(-0.00773087 -0.285246 2.33071e-22)
(-0.0102415 -0.261768 -2.4373e-23)
(-0.0125859 -0.240273 2.31381e-22)
(-0.0147312 -0.220587 1.0122e-22)
(-0.016657 -0.20255 -1.07282e-23)
(-0.0183529 -0.186009 1.8065e-22)
(-0.0198165 -0.170827 3.41799e-22)
(-0.0210511 -0.156876 -2.49553e-22)
(-0.0220647 -0.144039 3.32294e-22)
(-0.022869 -0.13221 3.16211e-22)
(-0.0234782 -0.121293 -3.10969e-22)
(-0.0239083 -0.111198 5.69065e-22)
(-0.0241767 -0.101848 -3.82152e-22)
(-0.0243015 -0.0931711 1.93611e-22)
(-0.0243015 -0.0851033 3.00159e-22)
(-0.0241952 -0.0775876 -1.08738e-22)
(-0.0240009 -0.0705755 1.48107e-22)
(-0.0237364 -0.064025 -1.88046e-22)
(-0.0234194 -0.0578999 4.82719e-24)
(-0.0230667 -0.0521624 1.11875e-22)
(-0.0226948 -0.0467786 -7.62562e-23)
(-0.0223084 -0.0417172 4.16851e-23)
(-0.0218998 -0.0369517 1.16484e-22)
(-0.0215587 -0.0324575 5.7512e-22)
(0.0190987 -0.477663 -1.0277e-22)
(0.0162813 -0.437669 7.43659e-22)
(0.0132208 -0.400974 -4.15488e-22)
(0.00994402 -0.367376 -6.36255e-22)
(0.00658278 -0.336655 -3.22296e-22)
(0.00327022 -0.308589 -2.4562e-22)
(9.53819e-05 -0.28296 -5.71828e-22)
(-0.00288032 -0.259559 6.87903e-23)
(-0.0056147 -0.238189 -1.11639e-22)
(-0.0080812 -0.218664 -4.77707e-22)
(-0.0102656 -0.200813 -1.36986e-21)
(-0.0121632 -0.184478 7.12625e-22)
(-0.0137767 -0.169512 -2.86646e-22)
(-0.0151144 -0.155782 1.10156e-22)
(-0.0161889 -0.143166 -7.50935e-22)
(-0.0170158 -0.131553 -3.03533e-22)
(-0.0176133 -0.120843 2.93831e-23)
(-0.018001 -0.110945 1.14347e-21)
(-0.0181995 -0.101777 -5.93562e-22)
(-0.0182302 -0.0932661 -3.42488e-22)
(-0.0181146 -0.0853461 -1.53374e-21)
(-0.0178741 -0.0779588 4.07647e-22)
(-0.0175294 -0.0710544 -2.75499e-22)
(-0.017101 -0.0645908 5.19766e-22)
(-0.0166082 -0.0585305 -2.64093e-22)
(-0.0160707 -0.0528374 -4.2986e-22)
(-0.0155066 -0.0474771 1.34076e-22)
(-0.0149214 -0.0424195 2.45952e-22)
(-0.0143046 -0.0376381 -4.18384e-22)
(-0.0137598 -0.0331112 2.69133e-22)
(0.0315686 -0.476552 -4.90463e-23)
(0.0276943 -0.436002 1.28954e-22)
(0.0236998 -0.398932 2.22437e-22)
(0.019601 -0.365103 2.2022e-21)
(0.015525 -0.33427 -1.40239e-21)
(0.0115995 -0.306185 1.29533e-21)
(0.00790617 -0.280611 8.57969e-22)
(0.00449888 -0.257324 7.62779e-22)
(0.00141232 -0.236113 -7.75948e-22)
(-0.00133402 -0.216781 -1.29456e-22)
(-0.00373253 -0.199148 2.21706e-21)
(-0.0057847 -0.183045 4.23889e-22)
(-0.00749886 -0.168321 -1.19352e-21)
(-0.00888853 -0.154835 9.48084e-22)
(-0.00997108 -0.142462 -1.91296e-23)
(-0.0107667 -0.131085 4.67073e-22)
(-0.0112974 -0.120601 3.41739e-22)
(-0.0115867 -0.110916 1.31538e-21)
(-0.0116588 -0.101945 -5.59986e-22)
(-0.0115382 -0.0936132 -1.81129e-22)
(-0.0112497 -0.0858522 -5.90663e-22)
(-0.0108173 -0.0786025 2.82017e-21)
(-0.0102648 -0.0718133 -2.45567e-21)
(-0.00961493 -0.0654414 7.90354e-22)
(-0.00888984 -0.0594496 4.64539e-22)
(-0.00811143 -0.0538019 -1.78773e-21)
(-0.00730044 -0.0484646 2.4641e-21)
(-0.00646239 -0.0434084 -2.4773e-22)
(-0.00558369 -0.0386061 -2.96409e-22)
(-0.00478434 -0.0340398 -2.58589e-21)
(0.0439825 -0.475145 -1.54772e-21)
(0.0390245 -0.434084 -1.63336e-21)
(0.0340893 -0.396682 -2.19373e-21)
(0.0291758 -0.362668 8.1075e-24)
(0.0244022 -0.331765 1.38198e-22)
(0.0198881 -0.303704 -3.05967e-21)
(0.0157066 -0.278226 1.18599e-22)
(0.0119031 -0.25509 4.68909e-22)
(0.00850379 -0.234073 -6.25272e-23)
(0.00552056 -0.214967 9.39897e-22)
(0.00295376 -0.197581 -3.7786e-21)
(0.000795296 -0.181739 -2.61555e-21)
(-0.000969273 -0.167282 9.36418e-22)
(-0.00235903 -0.154065 2.19295e-21)
(-0.00339642 -0.141956 -2.57005e-21)
(-0.00410626 -0.130835 -4.28552e-22)
(-0.00451497 -0.120596 -1.7495e-21)
(-0.00464993 -0.11114 -8.75082e-22)
(-0.00453903 -0.102381 1.59861e-21)
(-0.00421026 -0.0942406 -2.11371e-21)
(-0.00369152 -0.0866498 2.00665e-21)
(-0.00301003 -0.079547 -2.39358e-21)
(-0.00219245 -0.0728799 -2.02659e-21)
(-0.00126432 -0.0666047 -1.58872e-21)
(-0.000250822 -0.0606838 -4.09915e-22)
(0.000823935 -0.0550816 -3.53408e-21)
(0.00193577 -0.0497658 3.79539e-22)
(0.00307964 -0.0447066 7.12552e-22)
(0.00427293 -0.0398764 -2.19577e-21)
(0.0053759 -0.0352618 4.33411e-22)
(0.0563434 -0.473431 -8.99153e-22)
(0.0502785 -0.43192 1.58368e-22)
(0.0443955 -0.394239 1.46058e-21)
(0.0386742 -0.360088 1.67135e-21)
(0.0332205 -0.329164 1.31936e-21)
(0.0281434 -0.301169 5.89165e-22)
(0.0235058 -0.275828 9.4858e-22)
(0.019343 -0.252883 4.81456e-21)
(0.0156722 -0.232095 -2.96816e-21)
(0.0124966 -0.213247 6.21696e-23)
(0.00980877 -0.196138 7.80223e-22)
(0.00759343 -0.180584 3.90153e-21)
(0.00582966 -0.16642 -2.7605e-21)
(0.00449249 -0.153495 2.13259e-21)
(0.0035541 -0.141672 -2.55662e-21)
(0.00298478 -0.130828 4.62765e-21)
(0.00275362 -0.120851 -1.38142e-21)
(0.00282912 -0.111641 5.40573e-23)
(0.00317953 -0.103109 2.62718e-21)
(0.00377327 -0.0951735 2.02499e-21)
(0.00457906 -0.0877642 -2.06586e-21)
(0.00556656 -0.0808176 2.97833e-21)
(0.00670579 -0.0742799 -1.45645e-21)
(0.00796854 -0.0681055 1.72141e-21)
(0.00932665 -0.0622572 2.50712e-21)
(0.010752 -0.0567004 1.02536e-21)
(0.0122187 -0.0514023 3.17663e-21)
(0.0137202 -0.0463348 -1.00647e-21)
(0.0152796 -0.0414676 -2.59369e-22)
(0.016734 -0.0367935 -2.20812e-21)
(0.0686468 -0.471411 -6.61203e-22)
(0.0614569 -0.429516 -4.81326e-22)
(0.0546223 -0.391615 -1.66285e-21)
(0.0481024 -0.357382 -4.81321e-21)
(0.041988 -0.326485 1.61119e-21)
(0.0363756 -0.298603 1.27866e-22)
(0.0313159 -0.273441 -1.31572e-21)
(0.0268329 -0.250724 3.26346e-22)
(0.0229336 -0.230202 -1.6181e-22)
(0.0196118 -0.211644 -4.26446e-21)
(0.0168517 -0.194842 1.77832e-21)
(0.0146302 -0.179604 3.42626e-21)
(0.0129195 -0.165759 -2.58489e-23)
(0.0116884 -0.153149 1.42124e-21)
(0.0109035 -0.141633 3.86819e-21)
(0.0105299 -0.131085 -2.82242e-21)
(0.0105321 -0.121388 5.21413e-21)
(0.0108743 -0.112441 -2.67463e-21)
(0.0115208 -0.10415 4.97869e-21)
(0.0124362 -0.096433 -3.91557e-21)
(0.0135857 -0.0892165 1.80246e-21)
(0.0149353 -0.0824357 5.23347e-21)
(0.0164528 -0.076034 5.049e-22)
(0.0181052 -0.0699664 -5.27587e-21)
(0.0198631 -0.0641918 3.08153e-21)
(0.0216938 -0.0586785 3.832e-22)
(0.0235677 -0.0533946 -1.15549e-21)
(0.0254789 -0.0483107 4.4694e-21)
(0.0274548 -0.0433956 1.7659e-21)
(0.029307 -0.0386485 -1.84931e-21)
(0.0808869 -0.46909 1.93999e-21)
(0.0725587 -0.42688 1.14568e-22)
(0.0647731 -0.388822 -3.37268e-21)
(0.0574671 -0.354563 7.26349e-22)
(0.0507146 -0.323745 -1.17398e-21)
(0.0445971 -0.296024 7.82514e-22)
(0.0391518 -0.271084 1.99467e-21)
(0.03439 -0.248635 4.05258e-21)
(0.0303073 -0.228414 -4.7238e-21)
(0.0268875 -0.21018 1.1591e-21)
(0.0241054 -0.193714 -1.00117e-21)
(0.0219298 -0.178819 7.56865e-22)
(0.0203256 -0.165316 -3.39491e-21)
(0.019255 -0.153044 -3.23441e-22)
(0.0186787 -0.141857 6.2911e-21)
(0.0185566 -0.131624 -4.39803e-21)
(0.0188484 -0.122226 -3.06893e-21)
(0.0195138 -0.113557 -2.48466e-21)
(0.0205129 -0.105522 4.44333e-21)
(0.0218066 -0.0980357 1.07303e-21)
(0.0233565 -0.0910231 -4.99445e-21)
(0.0251249 -0.0844172 7.04277e-21)
(0.0270756 -0.0781599 -6.59754e-21)
(0.0291738 -0.0722023 4.6509e-21)
(0.0313849 -0.0665051 -2.72646e-21)
(0.0336744 -0.0610337 1.89271e-21)
(0.0360076 -0.0557588 1.58191e-21)
(0.0383787 -0.0506504 -7.02867e-21)
(0.040821 -0.0456741 3.08921e-21)
(0.0431164 -0.0408383 6.83752e-23)
(0.0930574 -0.466471 -1.91436e-21)
(0.0835824 -0.424019 1.63893e-21)
(0.0748514 -0.38587 -3.62181e-21)
(0.0667762 -0.351646 7.18129e-21)
(0.0594116 -0.320962 -2.14016e-21)
(0.0528227 -0.29345 3.4116e-21)
(0.0470312 -0.268776 5.50957e-23)
(0.0420346 -0.246635 -4.5204e-22)
(0.0378162 -0.22675 -8.53483e-22)
(0.0343485 -0.20887 -5.41455e-23)
(0.0315965 -0.19277 -3.70636e-21)
(0.0295204 -0.178244 1.95671e-21)
(0.0280774 -0.165108 -2.64254e-21)
(0.0272227 -0.153196 -1.82713e-22)
(0.026911 -0.142357 -8.32055e-21)
(0.0270967 -0.132457 2.74547e-21)
(0.0277344 -0.123375 1.81152e-21)
(0.0287796 -0.115 -2.06511e-21)
(0.030188 -0.107236 -2.34298e-22)
(0.0319167 -0.0999936 -3.55553e-21)
(0.0339233 -0.0931962 -1.34613e-21)
(0.0361667 -0.0867745 1.97387e-22)
(0.0386069 -0.0806683 -3.62799e-21)
(0.0412052 -0.0748268 -5.83767e-21)
(0.0439243 -0.0692079 2.01476e-22)
(0.0467246 -0.063778 -7.56405e-22)
(0.0495686 -0.058507 2.14269e-21)
(0.0524491 -0.0533651 -5.54506e-21)
(0.0554063 -0.0483134 4.95153e-21)
(0.0581889 -0.0433712 -1.12636e-20)
(0.105152 -0.463558 -4.66062e-21)
(0.0945274 -0.420941 6.4359e-21)
(0.0848615 -0.382771 -7.45971e-21)
(0.0760386 -0.348645 -2.24836e-21)
(0.0680923 -0.318151 -1.5906e-21)
(0.0610693 -0.290898 -1.84977e-21)
(0.0549745 -0.266533 -1.72871e-21)
(0.0497902 -0.244738 -3.06717e-22)
(0.0454862 -0.225225 -1.93387e-21)
(0.0420231 -0.207731 -4.46201e-22)
(0.0393554 -0.192024 3.98915e-21)
(0.0374341 -0.177892 -2.08487e-21)
(0.0362082 -0.165146 -2.81884e-21)
(0.0356259 -0.153614 -5.2979e-21)
(0.0356355 -0.143142 1.15879e-20)
(0.0361857 -0.133594 -4.68818e-21)
(0.0372263 -0.124843 1.85687e-21)
(0.0387079 -0.116778 -7.50249e-21)
(0.0405822 -0.109298 2.93299e-21)
(0.0428022 -0.102313 -1.35417e-21)
(0.0453219 -0.0957422 1.6463e-21)
(0.048096 -0.0895145 -6.31407e-22)
(0.0510811 -0.083567 6.09263e-21)
(0.0542344 -0.0778467 -2.23616e-21)
(0.0575152 -0.0723088 6.69558e-21)
(0.0608797 -0.0669186 -1.67352e-21)
(0.0642845 -0.0616471 9.34076e-21)
(0.0677241 -0.0564615 2.92933e-21)
(0.0712433 -0.0513197 5.67993e-21)
(0.0745557 -0.0462523 -1.96313e-20)
(0.117165 -0.460356 7.33853e-21)
(0.105393 -0.417655 -1.51437e-21)
(0.0948085 -0.379536 3.29888e-21)
(0.0852646 -0.345572 -1.00531e-21)
(0.0767716 -0.315324 3.64922e-21)
(0.0693562 -0.28838 3.79299e-21)
(0.0630046 -0.26437 4.60103e-21)
(0.057683 -0.24296 -4.46288e-22)
(0.0533465 -0.223851 -5.15791e-21)
(0.0499431 -0.206774 7.72682e-21)
(0.0474161 -0.191486 -8.28072e-22)
(0.0457067 -0.177772 6.15845e-21)
(0.0447554 -0.165435 2.41494e-21)
(0.0445031 -0.154303 8.48876e-22)
(0.0448915 -0.144217 1.4753e-21)
(0.0458636 -0.135036 2.22164e-21)
(0.0473641 -0.126632 4.04767e-21)
(0.049339 -0.118891 -1.30858e-21)
(0.0517357 -0.111709 6.71082e-21)
(0.0545032 -0.104993 3.38529e-21)
(0.0575915 -0.0986607 -7.22842e-21)
(0.0609519 -0.0926372 1.361e-20)
(0.0645365 -0.0868572 -1.88453e-20)
(0.0682998 -0.0812636 1.86597e-20)
(0.072195 -0.0758107 -6.42937e-21)
(0.0761761 -0.0704595 1.17344e-21)
(0.0801929 -0.0651822 -9.49213e-21)
(0.0842395 -0.0599436 5.38878e-21)
(0.0883682 -0.0546952 2.09834e-21)
(0.0922517 -0.0494829 -2.90707e-21)
(0.129091 -0.45687 -4.18533e-21)
(0.11618 -0.414168 4.85888e-21)
(0.104699 -0.376175 -1.38183e-21)
(0.0944661 -0.342438 4.28633e-21)
(0.0854664 -0.312495 4.48917e-22)
(0.0777047 -0.285911 1.22933e-21)
(0.0711472 -0.262298 -9.06839e-21)
(0.0657423 -0.241312 -1.77366e-21)
(0.0614297 -0.222641 6.70327e-21)
(0.0581437 -0.206007 5.63675e-21)
(0.055816 -0.191163 -9.98357e-21)
(0.0543776 -0.177887 6.21262e-21)
(0.05376 -0.16598 -6.46019e-21)
(0.0538964 -0.155264 4.88892e-21)
(0.054722 -0.145579 -8.55998e-21)
(0.056174 -0.13678 -6.88421e-21)
(0.0581917 -0.128737 2.17264e-22)
(0.0607167 -0.121333 -3.64897e-21)
(0.0636923 -0.114461 6.31715e-21)
(0.0670632 -0.108027 2.74882e-21)
(0.0707757 -0.101944 -1.79598e-21)
(0.0747772 -0.0961351 -5.1776e-22)
(0.0790161 -0.0905313 2.60818e-21)
(0.0834421 -0.0850726 -8.65467e-21)
(0.0880057 -0.0797083 1.50751e-20)
(0.092654 -0.0743981 -3.6405e-21)
(0.0973333 -0.0691109 -4.6744e-22)
(0.102035 -0.0638103 1.51763e-20)
(0.10682 -0.058439 2.41521e-21)
(0.111314 -0.053061 -2.42589e-21)
(0.140925 -0.453103 2.01625e-22)
(0.12689 -0.410488 -2.49e-21)
(0.11454 -0.372698 -2.56546e-21)
(0.103656 -0.339256 -4.64144e-21)
(0.0941956 -0.309675 1.82979e-22)
(0.0861387 -0.2835 -4.01705e-21)
(0.0794304 -0.260329 4.8154e-21)
(0.0740002 -0.239802 -4.84526e-22)
(0.0697712 -0.221599 4.767e-21)
(0.0666635 -0.205435 -3.78952e-21)
(0.0645962 -0.191057 -2.14976e-21)
(0.0634898 -0.178239 1.26166e-21)
(0.0632665 -0.166778 7.31656e-22)
(0.0638518 -0.156492 -8.14894e-21)
(0.0651738 -0.147221 4.91198e-21)
(0.0671641 -0.138816 -2.74501e-21)
(0.0697567 -0.131145 7.8321e-21)
(0.0728886 -0.12409 -2.771e-21)
(0.076499 -0.117541 2.95394e-21)
(0.0805288 -0.1114 8.22028e-22)
(0.0849204 -0.105577 5.7846e-21)
(0.0896174 -0.0999933 -1.13149e-21)
(0.0945643 -0.0945753 1.05283e-20)
(0.0997063 -0.0892595 -1.19852e-20)
(0.10499 -0.0839902 -4.39654e-21)
(0.110357 -0.0787239 3.7416e-21)
(0.115748 -0.0734253 -2.22579e-22)
(0.121152 -0.0680547 -7.18287e-21)
(0.126638 -0.0625454 5.97457e-21)
(0.131785 -0.0569808 -8.08716e-21)
(0.152662 -0.449061 7.18178e-21)
(0.137525 -0.406623 2.17132e-21)
(0.124341 -0.369113 2.86462e-21)
(0.112851 -0.336034 4.25999e-21)
(0.10298 -0.306875 6.84944e-21)
(0.0946842 -0.281159 -2.30532e-22)
(0.087885 -0.25847 1.02256e-21)
(0.0824915 -0.238436 9.42135e-21)
(0.0784095 -0.22073 -1.92342e-21)
(0.0755439 -0.20506 -3.9826e-21)
(0.0738009 -0.191167 7.39508e-21)
(0.0730897 -0.178822 1.44219e-21)
(0.0733232 -0.16782 1.84727e-23)
(0.0744186 -0.157977 1.99218e-21)
(0.0762972 -0.149129 3.97121e-21)
(0.0788846 -0.141128 -8.78068e-21)
(0.0821098 -0.13384 7.69952e-21)
(0.0859052 -0.127142 1.3762e-21)
(0.090206 -0.120925 8.58795e-21)
(0.0949493 -0.115088 -4.75568e-21)
(0.100074 -0.109536 8.44395e-21)
(0.10552 -0.104188 -9.41636e-21)
(0.111228 -0.098966 9.49598e-21)
(0.117139 -0.0938023 1.62344e-21)
(0.123194 -0.0886362 -6.89266e-21)
(0.12933 -0.0834183 -2.56058e-21)
(0.135481 -0.0781103 1.47452e-20)
(0.141635 -0.0726642 1.1094e-20)
(0.147867 -0.0670036 3.07155e-21)
(0.153705 -0.0612329 -2.75279e-21)
(0.164296 -0.444748 7.50636e-22)
(0.148088 -0.40258 2.0381e-21)
(0.134112 -0.365432 8.94807e-21)
(0.122066 -0.332784 -1.51354e-20)
(0.111843 -0.304103 -1.69529e-21)
(0.10337 -0.278895 -1.85183e-21)
(0.0965441 -0.256727 8.16262e-22)
(0.0912538 -0.23722 1.26717e-21)
(0.0873859 -0.220036 2.32635e-21)
(0.0848295 -0.20488 -6.54279e-21)
(0.0834773 -0.191488 -1.56692e-21)
(0.0832268 -0.179629 3.99496e-21)
(0.0839813 -0.169095 4.82816e-21)
(0.0856493 -0.159702 -4.83546e-21)
(0.0881455 -0.151284 -5.42704e-21)
(0.0913892 -0.143693 8.52974e-21)
(0.0953045 -0.136793 6.11572e-21)
(0.0998195 -0.130461 -1.46845e-21)
(0.104865 -0.124583 -4.26261e-21)
(0.110376 -0.119057 8.5036e-22)
(0.116287 -0.113787 -1.1142e-20)
(0.122534 -0.108685 1.39148e-20)
(0.129054 -0.103671 -9.92564e-21)
(0.135785 -0.0986698 -5.80856e-22)
(0.142662 -0.0936167 7.0864e-21)
(0.149617 -0.0884553 -2.35799e-21)
(0.156575 -0.083142 -7.59664e-21)
(0.163526 -0.0776191 9.50056e-21)
(0.170549 -0.0717964 -3.10835e-22)
(0.177115 -0.0658033 2.0154e-21)
(0.175825 -0.440168 -4.96294e-22)
(0.158582 -0.398366 -2.04125e-21)
(0.143864 -0.36166 -1.03279e-20)
(0.13132 -0.329512 3.77195e-21)
(0.120808 -0.301368 -1.33471e-21)
(0.112225 -0.276714 4.35192e-21)
(0.105443 -0.255106 3.19979e-22)
(0.100327 -0.236154 -6.00906e-21)
(0.0967442 -0.219516 9.48738e-21)
(0.0945675 -0.20489 -8.99015e-21)
(0.0936754 -0.192011 -5.04358e-22)
(0.0939535 -0.180646 2.47792e-21)
(0.0952947 -0.170586 -4.49493e-21)
(0.0975993 -0.161646 5.52397e-21)
(0.100775 -0.153661 -1.09581e-20)
(0.104734 -0.146482 -2.86484e-21)
(0.109397 -0.139972 7.10092e-21)
(0.114687 -0.134007 -1.95081e-22)
(0.120532 -0.128475 -5.43388e-21)
(0.126862 -0.123267 1.47943e-20)
(0.133609 -0.118287 -7.95454e-21)
(0.140707 -0.113441 -1.1592e-20)
(0.14809 -0.108646 4.09076e-21)
(0.15569 -0.10382 -1.24828e-20)
(0.163438 -0.0988922 -3.31822e-21)
(0.17126 -0.0937987 -5.8646e-22)
(0.179074 -0.0884881 -9.49926e-21)
(0.186866 -0.0828921 1.1346e-20)
(0.194723 -0.0769008 -6.74958e-21)
(0.202055 -0.0706722 8.72151e-21)
(0.187244 -0.435328 -2.53664e-21)
(0.169013 -0.393989 -8.26236e-21)
(0.15361 -0.357808 4.50553e-21)
(0.140634 -0.326228 -4.55133e-21)
(0.129903 -0.298676 -3.68695e-21)
(0.121284 -0.274621 -2.36892e-21)
(0.11462 -0.253607 -8.80655e-21)
(0.109753 -0.235238 6.23715e-21)
(0.106531 -0.219164 -1.64396e-20)
(0.104807 -0.205082 -6.6131e-21)
(0.104448 -0.192724 2.16475e-21)
(0.105324 -0.181856 4.16126e-21)
(0.10732 -0.17227 9.67002e-23)
(0.110326 -0.163782 -8.97198e-21)
(0.114243 -0.156227 2.14762e-21)
(0.118978 -0.149456 -9.23032e-21)
(0.124445 -0.143334 -7.12921e-21)
(0.130564 -0.137737 -4.696e-21)
(0.13726 -0.132549 -1.28138e-21)
(0.144459 -0.127664 7.88531e-21)
(0.152093 -0.12298 1.21947e-20)
(0.16009 -0.1184 -3.83806e-21)
(0.168381 -0.113836 -3.96166e-21)
(0.176897 -0.109199 7.80614e-21)
(0.185563 -0.104412 4.62805e-21)
(0.194298 -0.0994011 -3.67573e-21)
(0.203014 -0.0941065 -4.3982e-21)
(0.21169 -0.0884458 3.95081e-22)
(0.220424 -0.0822864 5.08035e-21)
(0.228558 -0.0758146 7.70895e-21)
(0.19855 -0.430231 -6.45379e-22)
(0.179387 -0.389456 1.06962e-20)
(0.163365 -0.353882 9.08917e-21)
(0.150028 -0.322938 7.60294e-21)
(0.139155 -0.296032 -5.09436e-21)
(0.130579 -0.272619 -1.08101e-21)
(0.124114 -0.252232 9.35591e-22)
(0.119576 -0.234468 7.9984e-21)
(0.116793 -0.218974 3.22215e-21)
(0.115601 -0.205443 8.24184e-21)
(0.115848 -0.19361 -1.20719e-20)
(0.117396 -0.183238 1.14708e-21)
(0.120115 -0.174122 5.38506e-21)
(0.123889 -0.166079 3.57465e-21)
(0.12861 -0.158945 8.07176e-21)
(0.13418 -0.152574 -5.33891e-21)
(0.140507 -0.146832 -5.54028e-21)
(0.147509 -0.141595 8.88706e-22)
(0.155106 -0.136749 1.28705e-20)
(0.163223 -0.132185 -2.15726e-20)
(0.171787 -0.1278 7.64436e-21)
(0.180728 -0.123494 -1.22871e-22)
(0.189972 -0.119172 1.63135e-20)
(0.199447 -0.11474 -7.09056e-21)
(0.209075 -0.110111 -2.41923e-22)
(0.218767 -0.105202 -5.03322e-21)
(0.228426 -0.0999423 4.8717e-21)
(0.238031 -0.0942319 1.24783e-21)
(0.247681 -0.0879126 -6.19119e-21)
(0.256655 -0.0811983 2.29278e-20)
(0.20974 -0.424883 -1.01722e-20)
(0.189709 -0.384774 -6.59981e-21)
(0.173143 -0.349889 -1.82389e-20)
(0.159527 -0.319648 -9.07536e-21)
(0.148595 -0.29344 8.74279e-21)
(0.140147 -0.270709 -5.67318e-21)
(0.133966 -0.250978 -1.60184e-21)
(0.129842 -0.233838 -4.27048e-21)
(0.127581 -0.218935 7.32642e-21)
(0.127 -0.205962 -1.78311e-21)
(0.127932 -0.19465 -2.89562e-21)
(0.130226 -0.184768 -4.13381e-22)
(0.13374 -0.176111 -1.38521e-20)
(0.138349 -0.168499 -1.03793e-21)
(0.143938 -0.161772 3.68131e-21)
(0.150401 -0.155785 -4.92021e-22)
(0.157645 -0.150408 -1.70889e-20)
(0.16558 -0.145518 1.72742e-20)
(0.174125 -0.141004 -1.7865e-20)
(0.183204 -0.136755 7.17487e-21)
(0.192742 -0.132668 1.03953e-21)
(0.202667 -0.128641 4.54174e-22)
(0.212904 -0.124572 -8.62191e-21)
(0.223376 -0.120361 3.10783e-21)
(0.234005 -0.11591 7.09969e-23)
(0.244695 -0.111127 1.14308e-21)
(0.25534 -0.105927 -2.5814e-20)
(0.265915 -0.100191 6.70355e-21)
(0.276525 -0.0937276 7.84736e-21)
(0.286373 -0.0867821 1.06018e-20)
(0.220811 -0.41929 2.01487e-20)
(0.199987 -0.379948 8.10109e-21)
(0.182961 -0.345835 4.99257e-21)
(0.169153 -0.316361 8.1534e-21)
(0.158253 -0.290903 -1.1501e-21)
(0.150024 -0.268891 7.02977e-21)
(0.144218 -0.249841 1.66196e-20)
(0.140597 -0.233342 -2.0651e-21)
(0.138944 -0.219037 1.10536e-21)
(0.139058 -0.206619 2.32585e-20)
(0.140757 -0.195823 -2.9504e-21)
(0.143872 -0.186419 3.56244e-21)
(0.148254 -0.178204 -1.55245e-21)
(0.153767 -0.171004 -5.81501e-22)
(0.160287 -0.164661 2.12427e-20)
(0.167704 -0.159036 8.24765e-22)
(0.175917 -0.154001 2.50602e-20)
(0.184835 -0.149438 -3.01811e-21)
(0.194375 -0.145237 -5.97689e-21)
(0.204456 -0.141291 1.43049e-20)
(0.215005 -0.137496 -1.389e-20)
(0.225948 -0.133746 1.5547e-20)
(0.237211 -0.129938 8.80363e-21)
(0.248715 -0.125964 -7.63187e-21)
(0.260379 -0.121715 1.15869e-20)
(0.272103 -0.117087 1.3647e-21)
(0.283772 -0.111981 -5.59296e-21)
(0.295357 -0.106251 2.46867e-21)
(0.306966 -0.0996712 2.02381e-20)
(0.317725 -0.0925162 3.458e-21)
(0.231762 -0.413456 -3.45714e-21)
(0.210231 -0.374984 -7.95886e-21)
(0.192835 -0.341725 3.6143e-21)
(0.178932 -0.313083 -1.47272e-20)
(0.168162 -0.288422 7.55346e-21)
(0.160249 -0.267162 -1.45129e-20)
(0.154912 -0.248816 -1.03449e-20)
(0.151888 -0.232969 2.91717e-21)
(0.150934 -0.219264 3.47344e-21)
(0.15183 -0.207397 -1.56512e-20)
(0.154377 -0.197105 -7.26191e-21)
(0.158393 -0.18816 3.64716e-21)
(0.163717 -0.180365 -1.00199e-20)
(0.170203 -0.17355 -4.26258e-21)
(0.177718 -0.167563 -3.05965e-21)
(0.186147 -0.162268 -3.15846e-21)
(0.195384 -0.157545 -1.39553e-20)
(0.205333 -0.153279 -9.38029e-21)
(0.215908 -0.149365 1.38316e-21)
(0.227029 -0.145699 3.1515e-21)
(0.238621 -0.14218 3.72175e-21)
(0.250611 -0.138702 -1.27913e-20)
(0.262926 -0.135158 5.04753e-21)
(0.275488 -0.131435 -1.07358e-20)
(0.288213 -0.127414 1.06896e-20)
(0.301 -0.122975 -1.4161e-20)
(0.313725 -0.118004 4.87955e-21)
(0.326355 -0.112326 -7.2976e-21)
(0.339002 -0.10567 -1.1012e-20)
(0.350707 -0.0983428 -1.31465e-21)
(0.242591 -0.407387 -7.37778e-21)
(0.220448 -0.369889 -7.1806e-21)
(0.202786 -0.337563 -7.66433e-21)
(0.18889 -0.309813 -6.26379e-21)
(0.178354 -0.285994 1.93507e-20)
(0.17086 -0.265518 3.00959e-21)
(0.166093 -0.247893 9.23844e-21)
(0.163761 -0.232706 1.49913e-20)
(0.163599 -0.219601 7.8242e-21)
(0.165366 -0.208274 -1.0391e-20)
(0.168847 -0.198468 1.83256e-20)
(0.173845 -0.18996 -1.82486e-20)
(0.180187 -0.182557 1.82181e-20)
(0.187715 -0.176094 2.32915e-21)
(0.196292 -0.170425 5.0611e-21)
(0.205791 -0.165422 1.59145e-21)
(0.216103 -0.160969 2.2516e-20)
(0.227129 -0.15696 -3.40364e-21)
(0.238778 -0.153295 3.25799e-21)
(0.250972 -0.149877 1.16084e-20)
(0.263633 -0.146608 -1.31961e-20)
(0.276692 -0.143385 1.10792e-20)
(0.290076 -0.140101 5.09806e-22)
(0.303711 -0.136639 5.3796e-21)
(0.317515 -0.132869 1.02491e-20)
(0.331384 -0.12866 -1.79108e-21)
(0.345189 -0.123875 1.08591e-20)
(0.358895 -0.118308 1.64828e-20)
(0.372613 -0.111634 -1.7875e-20)
(0.385301 -0.10419 -1.28902e-20)
(0.253296 -0.401087 2.22901e-20)
(0.230648 -0.364665 -2.59259e-21)
(0.21283 -0.333352 5.87321e-21)
(0.199055 -0.306552 1.16102e-20)
(0.188862 -0.283617 -3.50458e-20)
(0.181893 -0.263951 3.97341e-21)
(0.177801 -0.247063 -1.49583e-20)
(0.176262 -0.232539 1.58365e-20)
(0.176988 -0.220027 -1.2948e-20)
(0.179718 -0.209228 7.8038e-21)
(0.184219 -0.199887 -2.85201e-20)
(0.190281 -0.191787 3.73373e-22)
(0.197717 -0.184741 -1.08302e-20)
(0.206361 -0.178591 1.63634e-20)
(0.216063 -0.173196 -1.81608e-20)
(0.226693 -0.168437 -1.04494e-21)
(0.238132 -0.164204 -1.62882e-20)
(0.250278 -0.160401 -1.51092e-21)
(0.263039 -0.156935 1.55882e-21)
(0.276333 -0.153718 4.27354e-21)
(0.290084 -0.150658 -2.36328e-20)
(0.304225 -0.147661 -8.44816e-22)
(0.318686 -0.144621 -1.42271e-20)
(0.333399 -0.141419 -3.46737e-21)
(0.348285 -0.137922 -9.44554e-21)
(0.363243 -0.133982 -1.07347e-20)
(0.378143 -0.129444 -1.17397e-20)
(0.392945 -0.124061 1.91237e-20)
(0.407766 -0.117449 5.29508e-21)
(0.421471 -0.109965 -1.23627e-20)
(0.263876 -0.394561 -1.4881e-20)
(0.240842 -0.359318 5.96238e-21)
(0.222988 -0.329093 -1.10707e-20)
(0.209452 -0.303299 1.71661e-21)
(0.199718 -0.281285 2.03242e-20)
(0.193388 -0.262453 -1.06405e-20)
(0.190077 -0.246312 -1.21639e-20)
(0.189434 -0.232451 -1.06343e-20)
(0.191146 -0.220523 4.00747e-22)
(0.194933 -0.210233 7.39346e-21)
(0.200543 -0.201332 -5.90679e-21)
(0.207751 -0.193608 -3.15866e-23)
(0.21636 -0.186881 1.982e-20)
(0.22619 -0.180998 -1.02806e-20)
(0.237085 -0.175828 3.07461e-21)
(0.248903 -0.171256 -9.30941e-21)
(0.261523 -0.167185 3.56248e-21)
(0.274834 -0.163524 8.24896e-21)
(0.288741 -0.160193 9.98726e-21)
(0.303161 -0.157113 -1.11251e-20)
(0.318018 -0.154206 1.63516e-21)
(0.333246 -0.151384 1.03573e-20)
(0.348783 -0.148553 1.87608e-20)
(0.364564 -0.145598 5.33992e-21)
(0.380522 -0.142382 -2.0437e-20)
(0.39656 -0.13875 2.4712e-20)
(0.412552 -0.134524 -1.25206e-20)
(0.428462 -0.129416 -1.56038e-20)
(0.444411 -0.122966 -9.89957e-21)
(0.459167 -0.11555 -1.594e-20)
(0.274331 -0.387814 8.16556e-21)
(0.25104 -0.353849 -7.05169e-21)
(0.233281 -0.324784 2.60978e-21)
(0.220109 -0.300048 1.593e-20)
(0.210956 -0.278989 4.60493e-21)
(0.205379 -0.26101 -4.21325e-21)
(0.20296 -0.245623 1.04125e-20)
(0.203318 -0.232423 2.16451e-21)
(0.206115 -0.221066 1.09989e-20)
(0.211052 -0.211264 6.35876e-21)
(0.217859 -0.202774 1.68943e-22)
(0.226299 -0.19539 4.42579e-21)
(0.236157 -0.18894 -1.47128e-21)
(0.247247 -0.183276 2.6846e-21)
(0.259401 -0.178274 7.8514e-21)
(0.272469 -0.173829 -4.55663e-21)
(0.286322 -0.16985 1.17102e-20)
(0.300843 -0.166259 1.24775e-20)
(0.315933 -0.162984 -1.4804e-20)
(0.331504 -0.159962 1.53987e-20)
(0.347481 -0.157127 3.45556e-20)
(0.363798 -0.154408 -2.29514e-20)
(0.380398 -0.151725 2.40708e-20)
(0.397227 -0.148975 -1.71673e-20)
(0.414227 -0.146029 -2.57278e-21)
(0.431317 -0.142729 1.9903e-20)
(0.448379 -0.138881 -3.94145e-21)
(0.465391 -0.134151 1.58847e-20)
(0.482483 -0.127993 1.63516e-20)
(0.498327 -0.120785 -3.62463e-20)
(0.28466 -0.38085 -7.99489e-21)
(0.261254 -0.34826 3.82306e-21)
(0.243727 -0.320425 1.8217e-21)
(0.231052 -0.296793 -1.89046e-20)
(0.222605 -0.276719 -1.05064e-20)
(0.217901 -0.259608 8.30529e-21)
(0.216485 -0.244979 -2.43777e-20)
(0.217949 -0.232431 3.09032e-20)
(0.221932 -0.22163 -1.81146e-20)
(0.228113 -0.212293 2.26215e-21)
(0.236206 -0.204183 -3.43283e-21)
(0.245958 -0.197103 -1.21725e-20)
(0.257145 -0.190885 2.58236e-20)
(0.269567 -0.185389 1.05398e-20)
(0.283047 -0.180498 -1.08788e-20)
(0.297427 -0.176113 2.73647e-22)
(0.312568 -0.172153 6.71562e-21)
(0.328348 -0.168548 -1.52824e-20)
(0.34466 -0.16524 3.19432e-21)
(0.361411 -0.162177 1.13405e-20)
(0.378523 -0.159312 -4.78064e-21)
(0.39593 -0.156593 8.58679e-21)
(0.413578 -0.153961 -1.71443e-20)
(0.431423 -0.151337 2.56433e-20)
(0.449422 -0.148611 6.48432e-21)
(0.467511 -0.145638 -1.70501e-20)
(0.485597 -0.142218 -1.55351e-20)
(0.503681 -0.137975 -3.35789e-22)
(0.521918 -0.132265 2.20281e-20)
(0.538882 -0.125444 -6.45914e-21)
(0.294863 -0.373671 -2.26681e-21)
(0.271496 -0.342551 -1.7716e-20)
(0.254348 -0.316008 2.17094e-20)
(0.242308 -0.293522 1.55789e-20)
(0.234695 -0.274458 1.6613e-20)
(0.230983 -0.258226 5.1351e-21)
(0.230684 -0.244354 7.70726e-21)
(0.23336 -0.23245 4.17115e-21)
(0.238627 -0.222187 -1.73072e-20)
(0.246144 -0.21329 3.26067e-20)
(0.255609 -0.20553 -2.81799e-20)
(0.266756 -0.198715 -2.28039e-21)
(0.279347 -0.192685 4.19417e-21)
(0.293173 -0.187307 -2.10576e-20)
(0.308046 -0.182468 1.88298e-20)
(0.3238 -0.178078 -5.75127e-21)
(0.340287 -0.174061 -1.56901e-20)
(0.357378 -0.170357 6.50768e-21)
(0.374957 -0.166916 -1.24915e-20)
(0.392925 -0.163701 -1.15302e-20)
(0.411198 -0.160679 -1.2951e-20)
(0.429705 -0.157824 3.01597e-21)
(0.448393 -0.155103 2.02696e-21)
(0.467222 -0.15247 -3.46932e-20)
(0.486165 -0.149853 -1.39139e-20)
(0.505182 -0.147139 8.72912e-21)
(0.524212 -0.144152 1.14653e-20)
(0.543302 -0.140491 -1.6132e-20)
(0.562665 -0.135403 -6.43227e-21)
(0.580779 -0.129195 1.13851e-21)
(0.304941 -0.366282 -1.68043e-21)
(0.28178 -0.336718 1.14516e-20)
(0.265166 -0.311526 -3.31638e-21)
(0.253901 -0.290221 -4.16879e-21)
(0.247253 -0.272186 -2.60025e-20)
(0.244655 -0.256842 -6.26456e-21)
(0.245584 -0.243724 1.19536e-20)
(0.249576 -0.232451 -8.41342e-21)
(0.256223 -0.222706 -1.04537e-21)
(0.265166 -0.214222 -1.73055e-21)
(0.276087 -0.20678 1.07746e-20)
(0.288706 -0.200194 -1.73739e-20)
(0.302774 -0.194311 -1.22711e-20)
(0.318072 -0.189003 1.5043e-20)
(0.334402 -0.184163 -8.99748e-21)
(0.351592 -0.179707 -1.14124e-20)
(0.369486 -0.175562 2.49247e-20)
(0.387944 -0.171675 -3.99023e-21)
(0.406845 -0.168002 1.61049e-20)
(0.426081 -0.164517 -1.48959e-20)
(0.445557 -0.1612 -1.27058e-20)
(0.465197 -0.158043 1.1335e-20)
(0.484939 -0.155045 -1.1549e-21)
(0.504743 -0.152199 -9.0161e-21)
(0.524589 -0.149487 8.18032e-21)
(0.544459 -0.146862 -2.63984e-20)
(0.564331 -0.144211 1.6206e-20)
(0.584326 -0.141165 -2.85527e-22)
(0.60477 -0.136883 -1.79205e-20)
(0.624074 -0.131574 2.91998e-20)
(0.314902 -0.358683 8.31885e-21)
(0.292126 -0.330758 -2.23867e-20)
(0.276202 -0.306964 -2.11516e-21)
(0.265855 -0.286871 1.17844e-20)
(0.260301 -0.269881 -3.24732e-21)
(0.258936 -0.255426 -9.65179e-21)
(0.261204 -0.243056 4.66671e-21)
(0.266614 -0.2324 5.75975e-21)
(0.274735 -0.223151 5.38116e-22)
(0.285189 -0.215055 7.7088e-21)
(0.297645 -0.2079 2.59342e-20)
(0.311808 -0.201508 -9.12104e-21)
(0.32742 -0.195733 2.69149e-21)
(0.344252 -0.190453 -7.1884e-21)
(0.362101 -0.185568 2.74735e-20)
(0.380785 -0.180993 -5.22739e-21)
(0.400143 -0.176661 1.78039e-20)
(0.420029 -0.172521 -7.25364e-21)
(0.440315 -0.168531 8.04828e-21)
(0.460884 -0.164667 1.26463e-20)
(0.481633 -0.160917 2.32399e-21)
(0.502474 -0.157284 9.12707e-21)
(0.523332 -0.153785 -7.84041e-21)
(0.544156 -0.150454 2.2134e-20)
(0.564918 -0.147329 -9.28253e-21)
(0.585608 -0.144456 3.50126e-20)
(0.606232 -0.141857 -1.01592e-20)
(0.627001 -0.139294 7.19901e-21)
(0.648453 -0.135914 -1.38933e-20)
(0.669028 -0.131793 2.78185e-20)
(0.324779 -0.350883 -1.80153e-20)
(0.302562 -0.324659 6.21948e-22)
(0.287479 -0.3023 -1.2731e-20)
(0.278187 -0.283443 2.41934e-21)
(0.273856 -0.267511 7.29001e-22)
(0.273843 -0.253948 -1.29723e-20)
(0.277559 -0.242315 -2.55078e-20)
(0.284485 -0.232259 1.32644e-20)
(0.294169 -0.223485 -1.93733e-20)
(0.306215 -0.215749 -1.08712e-20)
(0.320276 -0.208851 -6.55207e-21)
(0.336048 -0.202621 -5.60248e-21)
(0.353263 -0.196922 3.01158e-22)
(0.371683 -0.191637 -2.09691e-20)
(0.3911 -0.186669 1.48693e-20)
(0.411328 -0.181939 -2.46319e-20)
(0.432202 -0.17738 -6.59358e-21)
(0.453574 -0.17294 7.32283e-21)
(0.47531 -0.168576 9.56976e-21)
(0.497291 -0.164259 1.00105e-20)
(0.519408 -0.159971 7.97699e-21)
(0.541563 -0.15571 -2.04089e-20)
(0.563669 -0.151494 2.12273e-20)