/*--------------------------------*- C++ -*----------------------------------*\
| =========                 |                                                 |
| \\      /  F ield         | OpenFOAM: The Open Source CFD Toolbox           |
|  \\    /   O peration     | Version:  v1912                                 |
|   \\  /    A nd           | Website:  www.openfoam.com                      |
|    \\/     M anipulation  |                                                 |
\*---------------------------------------------------------------------------*/
FoamFile
{
    version     2.0;
    format      ascii;
    class       volScalarField;
    location    "17";
    object      p;
}
// * * * * * * * * * * * * * * * * * * * * * * * * * * * * * * * * * * * * * //

dimensions      [0 2 -2 0 0 0 0];


internalField   nonuniform List<scalar> 
2400
(
-0.398899
-0.385452
-0.377372
-0.370732
-0.364163
-0.357705
-0.351431
-0.345301
-0.339338
-0.334676
-0.411938
-0.397634
-0.388637
-0.380877
-0.373083
-0.365388
-0.35793
-0.350679
-0.343627
-0.338214
-0.429023
-0.413175
-0.402808
-0.393515
-0.384115
-0.374839
-0.365875
-0.357182
-0.348774
-0.342819
-0.450462
-0.432299
-0.420135
-0.408863
-0.397451
-0.386224
-0.375403
-0.364912
-0.354767
-0.348009
-0.476673
-0.455155
-0.440848
-0.427121
-0.413281
-0.399726
-0.386683
-0.374004
-0.361671
-0.353842
-0.507933
-0.48215
-0.464964
-0.44845
-0.431818
-0.415581
-0.399958
-0.384673
-0.369616
-0.360324
-0.54383
-0.513696
-0.492821
-0.473062
-0.453307
-0.434091
-0.415593
-0.397334
-0.378958
-0.367554
-0.584669
-0.549712
-0.524517
-0.501118
-0.47796
-0.455517
-0.433891
-0.412291
-0.389753
-0.374933
-0.630701
-0.589957
-0.560063
-0.532774
-0.506034
-0.48018
-0.45507
-0.429215
-0.400273
-0.378736
-0.681358
-0.634163
-0.599391
-0.568228
-0.538179
-0.50952
-0.481816
-0.452707
-0.418094
-0.387827
-1.15008
-1.13364
-1.10466
-1.06549
-1.01836
-0.965491
-0.908958
-0.850649
-0.792215
-0.735205
-1.05188
-1.03714
-1.01104
-0.975709
-0.933284
-0.885836
-0.835316
-0.783472
-0.731819
-0.681669
-0.969908
-0.95892
-0.937026
-0.90622
-0.868539
-0.825993
-0.78048
-0.733709
-0.687159
-0.642054
-0.892325
-0.886224
-0.869476
-0.843869
-0.811305
-0.773702
-0.732904
-0.690599
-0.648281
-0.607167
-0.816398
-0.815431
-0.804177
-0.784162
-0.757075
-0.724669
-0.688662
-0.650667
-0.612168
-0.574383
-0.744558
-0.748369
-0.742428
-0.727983
-0.706468
-0.679398
-0.648277
-0.614524
-0.57952
-0.544398
-0.678218
-0.686101
-0.68493
-0.675706
-0.659611
-0.637898
-0.61178
-0.582329
-0.550636
-0.517555
-0.617799
-0.628983
-0.631908
-0.627396
-0.616438
-0.600066
-0.57919
-0.554385
-0.52606
-0.494032
-0.563167
-0.577008
-0.583449
-0.58322
-0.577228
-0.566414
-0.551526
-0.532676
-0.509051
-0.476976
-0.514272
-0.529448
-0.538195
-0.541218
-0.539446
-0.533926
-0.525623
-0.514913
-0.500927
-0.476879
-0.435684
-0.570789
-0.696186
-0.808923
-0.907834
-0.99114
-1.05749
-1.10622
-1.13729
-1.15138
-0.386241
-0.511033
-0.627309
-0.733184
-0.825784
-0.903564
-0.96545
-1.01089
-1.0399
-1.05313
-0.32048
-0.438369
-0.549019
-0.650187
-0.739281
-0.815007
-0.876158
-0.922049
-0.952567
-0.968158
-0.252004
-0.362528
-0.467236
-0.563754
-0.650266
-0.724788
-0.786176
-0.833659
-0.866935
-0.886218
-0.189353
-0.291994
-0.390264
-0.481859
-0.564834
-0.637452
-0.698511
-0.74715
-0.782915
-0.805814
-0.135858
-0.230784
-0.322577
-0.408872
-0.487769
-0.557802
-0.617735
-0.666712
-0.704183
-0.730018
-0.0915841
-0.17941
-0.265137
-0.346149
-0.420767
-0.487706
-0.545832
-0.594351
-0.632651
-0.660538
-0.0548435
-0.135932
-0.216243
-0.292351
-0.36282
-0.42662
-0.482624
-0.530179
-0.568617
-0.597778
-0.024063
-0.0984233
-0.173936
-0.245665
-0.312297
-0.372977
-0.426987
-0.473461
-0.511589
-0.541439
-0.00531406
-0.0755321
-0.146529
-0.2132
-0.274977
-0.331242
-0.381985
-0.426527
-0.463087
-0.492226
0.534631
0.555599
0.577972
0.60096
0.624057
0.646594
0.667601
0.686454
0.708416
0.747887
0.508017
0.526307
0.546232
0.566337
0.585938
0.604302
0.620379
0.633577
0.649511
0.683711
0.473931
0.488574
0.505231
0.521531
0.536565
0.549556
0.559423
0.565707
0.574453
0.602185
0.432643
0.442799
0.455462
0.467111
0.476592
0.483116
0.485618
0.48387
0.484396
0.504535
0.384549
0.389537
0.397595
0.403851
0.406915
0.406027
0.400184
0.389485
0.380961
0.392562
0.330142
0.32948
0.332476
0.332728
0.328669
0.31961
0.304663
0.284338
0.266173
0.268485
0.270002
0.26345
0.261121
0.254923
0.243216
0.225446
0.200892
0.170544
0.142413
0.134893
0.20488
0.192478
0.18477
0.171829
0.152138
0.125354
0.0909666
0.0504997
0.0123534
-0.00531201
0.13564
0.118121
0.105163
0.0851913
0.0572864
0.0213912
-0.0227918
-0.0731734
-0.121096
-0.149007
0.0612083
0.0410034
0.0231496
-0.00378618
-0.0396354
-0.0843545
-0.137966
-0.197734
-0.254914
-0.293211
0.385913
0.389855
0.40035
0.408568
0.415017
0.421401
0.42932
0.441148
0.459712
0.482438
0.434706
0.439845
0.451604
0.462911
0.473262
0.483819
0.495835
0.511348
0.533784
0.562952
0.474025
0.48273
0.497027
0.511808
0.526216
0.540982
0.557059
0.57614
0.602101
0.636974
0.506477
0.519129
0.536287
0.554373
0.572551
0.591249
0.611107
0.633431
0.662411
0.702078
0.532301
0.548573
0.568436
0.589466
0.610952
0.633088
0.656207
0.681216
0.7125
0.755953
0.551366
0.570608
0.592729
0.616144
0.640284
0.665148
0.690778
0.717688
0.750392
0.796495
0.563598
0.584937
0.60859
0.633629
0.65959
0.686276
0.713457
0.741283
0.77436
0.821876
0.567809
0.590811
0.615306
0.641188
0.668052
0.695524
0.723131
0.750716
0.782992
0.830615
0.564758
0.588011
0.612598
0.638436
0.665145
0.692221
0.718986
0.745042
0.775243
0.821634
0.553608
0.576214
0.60014
0.625038
0.650503
0.675944
0.700519
0.723675
0.750459
0.794216
0.341974
0.297198
0.24603
0.194131
0.142895
0.0935812
0.0436779
-0.00207677
-0.0445248
-0.0839036
0.346004
0.298237
0.245146
0.190504
0.136331
0.0837781
0.0329695
-0.0142765
-0.0579615
-0.0980084
0.349498
0.296024
0.239346
0.181891
0.125338
0.0708103
0.0190338
-0.0290005
-0.072928
-0.112567
0.35213
0.293638
0.23333
0.172964
0.114051
0.0577525
0.00489265
-0.0436855
-0.0875438
-0.126523
0.353906
0.291
0.227141
0.163887
0.102691
0.044786
-0.00895649
-0.0578002
-0.101353
-0.139532
0.355807
0.288709
0.221379
0.155387
0.092075
0.0327758
-0.021663
-0.0706256
-0.11382
-0.151272
0.359499
0.288508
0.217875
0.149184
0.0840129
0.0233844
-0.0318338
-0.08112
-0.124294
-0.161497
0.367528
0.292996
0.219213
0.147941
0.0805745
0.0182018
-0.0383831
-0.0887423
-0.132771
-0.170685
0.381972
0.303331
0.225654
0.150482
0.0794399
0.0136891
-0.0459908
-0.0991621
-0.145714
-0.185857
0.397985
0.312077
0.226971
0.144619
0.0665926
-0.00579751
-0.0715961
-0.130226
-0.181487
-0.225503
-0.120178
-0.153389
-0.183768
-0.211653
-0.237438
-0.261531
-0.28423
-0.305537
-0.325921
-0.336263
-0.134342
-0.166975
-0.19615
-0.2222
-0.245505
-0.266424
-0.285153
-0.301511
-0.315171
-0.319584
-0.147912
-0.179016
-0.206206
-0.229897
-0.250555
-0.268631
-0.284433
-0.298023
-0.309378
-0.315245
-0.160727
-0.190291
-0.215669
-0.237394
-0.256042
-0.272173
-0.28623
-0.298465
-0.308933
-0.315783
-0.172575
-0.20071
-0.224532
-0.24469
-0.261854
-0.276662
-0.289632
-0.301085
-0.311027
-0.318296
-0.183368
-0.210415
-0.233133
-0.252254
-0.268497
-0.282525
-0.294862
-0.305819
-0.315364
-0.322784
-0.193245
-0.219878
-0.242202
-0.260978
-0.276922
-0.290672
-0.302711
-0.313304
-0.322414
-0.329631
-0.203075
-0.230257
-0.253068
-0.272252
-0.288487
-0.302357
-0.314292
-0.324517
-0.333024
-0.339616
-0.220145
-0.248913
-0.272969
-0.293041
-0.309788
-0.323766
-0.335371
-0.344817
-0.352149
-0.357312
-0.262559
-0.293398
-0.318692
-0.339239
-0.355792
-0.368961
-0.379162
-0.386629
-0.391488
-0.39375
-0.39323
-0.360385
-0.344297
-0.334736
-0.327456
-0.32132
-0.315145
-0.30639
-0.290937
-0.276267
-0.391564
-0.361863
-0.347437
-0.33853
-0.331442
-0.325208
-0.318981
-0.31113
-0.299383
-0.291215
-0.389086
-0.362171
-0.349491
-0.341371
-0.334771
-0.328945
-0.323271
-0.316746
-0.308474
-0.30429
-0.386298
-0.361761
-0.350844
-0.343517
-0.33745
-0.332081
-0.326917
-0.321274
-0.314757
-0.311776
-0.383273
-0.361516
-0.351924
-0.345325
-0.339772
-0.334841
-0.330154
-0.325238
-0.31986
-0.317166
-0.380625
-0.362011
-0.353122
-0.347138
-0.342021
-0.337409
-0.333039
-0.328588
-0.323848
-0.321012
-0.379479
-0.363185
-0.354968
-0.3494
-0.344524
-0.34004
-0.33577
-0.331482
-0.327071
-0.324038
-0.380338
-0.365617
-0.357901
-0.352509
-0.347635
-0.343056
-0.338659
-0.334285
-0.329911
-0.326657
-0.383654
-0.36985
-0.362344
-0.356852
-0.351715
-0.346791
-0.342026
-0.337318
-0.332683
-0.329053
-0.389806
-0.376329
-0.3687
-0.362804
-0.357114
-0.351573
-0.346192
-0.340903
-0.335741
-0.331651
-0.327785
-0.27049
-0.241048
-0.196208
-0.163824
-0.133295
-0.10999
-0.0909801
-0.0761454
-0.0638167
-0.0529534
-0.0431136
-0.0341434
-0.0274239
-0.0228029
-0.0191019
-0.0157433
-0.0115459
-0.00880719
0.000498031
-0.333199
-0.271553
-0.241669
-0.196428
-0.163877
-0.133559
-0.11057
-0.0919682
-0.0774306
-0.065142
-0.0539988
-0.0435534
-0.03381
-0.0264386
-0.0217049
-0.0186264
-0.0160126
-0.0123464
-0.00943134
0.000285098
-0.340393
-0.273561
-0.243058
-0.197356
-0.164472
-0.134262
-0.111463
-0.0931499
-0.0788077
-0.0664991
-0.0550573
-0.0440343
-0.0335619
-0.0255622
-0.0207013
-0.0182032
-0.0162951
-0.0131141
-0.0100225
6.62741e-05
-0.349546
-0.276375
-0.245128
-0.199004
-0.165629
-0.135425
-0.112666
-0.0945138
-0.0802622
-0.0678744
-0.0561242
-0.0445614
-0.0334141
-0.0248161
-0.0198063
-0.0178382
-0.0165863
-0.0138415
-0.0105757
-0.000156908
-0.360376
-0.280104
-0.247804
-0.20134
-0.167343
-0.13704
-0.114172
-0.0960479
-0.0817819
-0.0692605
-0.0571991
-0.0451403
-0.0333779
-0.0242156
-0.0190365
-0.0175351
-0.0168819
-0.0145232
-0.0110874
-0.000383018
-0.372412
-0.284891
-0.251002
-0.204308
-0.169584
-0.139078
-0.11596
-0.0977345
-0.0833549
-0.0706523
-0.0582822
-0.0457742
-0.0334593
-0.0237694
-0.0184007
-0.0172947
-0.0171773
-0.015155
-0.0115551
-0.000610615
-0.385159
-0.290933
-0.254703
-0.207862
-0.172329
-0.141518
-0.118017
-0.0995638
-0.0849768
-0.0720508
-0.0593804
-0.0464733
-0.0336707
-0.0234912
-0.017908
-0.0171171
-0.017466
-0.0157319
-0.0119765
-0.000838388
-0.39832
-0.299028
-0.259372
-0.212268
-0.175789
-0.144509
-0.120452
-0.101608
-0.0866976
-0.0734962
-0.0605326
-0.0472781
-0.0340538
-0.0234194
-0.0175845
-0.0170063
-0.0177386
-0.0162449
-0.0123484
-0.00106543
-0.409635
-0.310028
-0.26564
-0.217925
-0.180251
-0.148269
-0.123429
-0.103994
-0.0886136
-0.0750595
-0.0617856
-0.0482101
-0.0346095
-0.0235433
-0.0174246
-0.0169616
-0.0179998
-0.0166992
-0.0126753
-0.0012909
-0.407727
-0.318488
-0.270589
-0.222579
-0.183975
-0.151542
-0.126124
-0.106229
-0.0904446
-0.0765444
-0.0629301
-0.0489906
-0.0349903
-0.0235096
-0.017177
-0.0169212
-0.0183065
-0.0171771
-0.0129924
-0.00151044
-0.379701
-0.316082
-0.270043
-0.223137
-0.184591
-0.152626
-0.127454
-0.107773
-0.0920432
-0.0779995
-0.0640191
-0.0495249
-0.0348544
-0.0227596
-0.0162584
-0.0166994
-0.018846
-0.0180386
-0.0134837
-0.00180679
-0.363847
-0.310391
-0.265498
-0.221416
-0.184503
-0.153848
-0.129202
-0.10961
-0.0936489
-0.0792576
-0.0649227
-0.0501337
-0.0352639
-0.0229942
-0.0164349
-0.017044
-0.0194267
-0.0186149
-0.0137386
-0.00217437
-0.344583
-0.298761
-0.256162
-0.216657
-0.182882
-0.154241
-0.130518
-0.111152
-0.0949881
-0.0802753
-0.0656817
-0.0507898
-0.0359939
-0.0237854
-0.0171832
-0.0176976
-0.0199802
-0.0189892
-0.0137758
-0.00256371
-0.315143
-0.280316
-0.242775
-0.209147
-0.179738
-0.153805
-0.131422
-0.112494
-0.096243
-0.0812932
-0.0665449
-0.0516881
-0.0371344
-0.0251111
-0.0184307
-0.0185846
-0.020482
-0.0191671
-0.0135989
-0.00296678
-0.275986
-0.255177
-0.225951
-0.198978
-0.174703
-0.152185
-0.131669
-0.1135
-0.0973633
-0.0823258
-0.0675715
-0.0529125
-0.0387765
-0.0270604
-0.0202427
-0.0196897
-0.0208514
-0.0190748
-0.0131728
-0.0033528
-0.234629
-0.225507
-0.206548
-0.186716
-0.167748
-0.149103
-0.130983
-0.113989
-0.0982648
-0.0833572
-0.0687769
-0.0544724
-0.0408908
-0.0295648
-0.0225241
-0.0209338
-0.0210203
-0.0186909
-0.0125197
-0.00368204
-0.196735
-0.196245
-0.186301
-0.173325
-0.159446
-0.1447
-0.129295
-0.113869
-0.0988896
-0.0843543
-0.0701162
-0.0562698
-0.0432842
-0.0323516
-0.0250126
-0.0222054
-0.0210029
-0.0180942
-0.011743
-0.00391768
-0.165642
-0.170068
-0.167158
-0.160185
-0.150832
-0.139604
-0.126859
-0.113193
-0.0992098
-0.0852378
-0.0714449
-0.0580781
-0.0456281
-0.035023
-0.0273676
-0.0233888
-0.0209104
-0.0174518
-0.0110014
-0.00404325
-0.143151
-0.149967
-0.151625
-0.149078
-0.143255
-0.134811
-0.124272
-0.112215
-0.0992586
-0.0859079
-0.0725623
-0.059611
-0.047565
-0.037185
-0.0292559
-0.024357
-0.0208435
-0.0169348
-0.0104471
-0.0040764
-0.130617
-0.138357
-0.142248
-0.142137
-0.138399
-0.131628
-0.122437
-0.111419
-0.0991787
-0.0862832
-0.0732493
-0.0605586
-0.0487354
-0.0384642
-0.0303676
-0.0249483
-0.0208476
-0.0166542
-0.0101747
-0.00406255
-0.444597
-0.457141
-0.464409
-0.466897
-0.465456
-0.461395
-0.456601
-0.453679
-0.457609
-0.481102
-0.365289
-0.378667
-0.389146
-0.397224
-0.403565
-0.408973
-0.414305
-0.42028
-0.427021
-0.440723
-0.300322
-0.313361
-0.32487
-0.33503
-0.343974
-0.351781
-0.35849
-0.364273
-0.369122
-0.379083
-0.245128
-0.256694
-0.267199
-0.276691
-0.285227
-0.292904
-0.299901
-0.306531
-0.312817
-0.321334
-0.199209
-0.209247
-0.218581
-0.227259
-0.235335
-0.242863
-0.249891
-0.256468
-0.262519
-0.268787
-0.162029
-0.170622
-0.178727
-0.186353
-0.193513
-0.200215
-0.206469
-0.212294
-0.217701
-0.222788
-0.132698
-0.13998
-0.146899
-0.153451
-0.159635
-0.165453
-0.170908
-0.176009
-0.180756
-0.185096
-0.110534
-0.116764
-0.122708
-0.128355
-0.133697
-0.13873
-0.143452
-0.147864
-0.151962
-0.155719
-0.0951556
-0.100612
-0.105829
-0.110795
-0.115499
-0.119935
-0.124099
-0.12799
-0.131606
-0.134942
-0.0868255
-0.0917955
-0.0965546
-0.101093
-0.105403
-0.10948
-0.113322
-0.116927
-0.120294
-0.123426
-0.0168589
-0.0821881
-0.14589
-0.200936
-0.250917
-0.296551
-0.336905
-0.373067
-0.402826
-0.426536
-0.0371529
-0.0873985
-0.135243
-0.175707
-0.212274
-0.246362
-0.27747
-0.304394
-0.328325
-0.348615
-0.0496053
-0.0894963
-0.124385
-0.153925
-0.180865
-0.206094
-0.229263
-0.249886
-0.268701
-0.28551
-0.0550688
-0.0855265
-0.109924
-0.1308
-0.150533
-0.1694
-0.187047
-0.203285
-0.218478
-0.232421
-0.054065
-0.0764038
-0.0936241
-0.108739
-0.123582
-0.138121
-0.15198
-0.165028
-0.177034
-0.18845
-0.0488958
-0.0650144
-0.0776586
-0.0891307
-0.100616
-0.112009
-0.123
-0.133481
-0.143425
-0.15295
-0.0424772
-0.0542457
-0.0639609
-0.0730616
-0.0822218
-0.0913541
-0.100257
-0.10885
-0.117111
-0.125067
-0.0364512
-0.0453341
-0.0531484
-0.0606593
-0.0682072
-0.0757351
-0.0831247
-0.0903176
-0.0972895
-0.104035
-0.0316985
-0.0388261
-0.0454765
-0.0519759
-0.0584741
-0.0649396
-0.0713067
-0.077534
-0.0835964
-0.0894769
-0.0289341
-0.0352816
-0.0414195
-0.0474423
-0.0534131
-0.059318
-0.0651209
-0.0707926
-0.0763119
-0.0816589
0.211415
0.212417
0.214836
0.218146
0.22268
0.226046
0.228616
0.218705
0.194799
0.0876631
0.203157
0.203696
0.205061
0.206637
0.208339
0.207639
0.203771
0.185667
0.149423
0.0519632
0.193305
0.193359
0.193584
0.193299
0.192095
0.187498
0.178082
0.15499
0.114191
0.0333824
0.181727
0.181252
0.180252
0.17804
0.173947
0.165835
0.151827
0.126114
0.0837747
0.0158037
0.168475
0.167469
0.165269
0.161242
0.154575
0.14365
0.126433
0.0998256
0.058695
0.00156094
0.15386
0.152376
0.149126
0.143578
0.134923
0.12209
0.103279
0.0772224
0.0398642
-0.00727788
0.138567
0.136704
0.132663
0.126025
0.116128
0.102361
0.0834421
0.0590662
0.0267471
-0.0116167
0.123762
0.121652
0.117136
0.109899
0.0995009
0.0856472
0.0676191
0.0454845
0.0180708
-0.0131863
0.111181
0.108957
0.104254
0.0968458
0.0864826
0.0730533
0.056258
0.036279
0.0127519
-0.0133403
0.103237
0.100988
0.0962741
0.0889165
0.0787681
0.0658053
0.0499466
0.0314013
0.0101636
-0.0130485
0.246809
0.248974
0.254555
0.263276
0.276942
0.295072
0.322254
0.35728
0.410047
0.477569
0.244314
0.246405
0.251799
0.260198
0.273375
0.290705
0.316683
0.34963
0.398762
0.460216
0.241588
0.2436
0.248788
0.256827
0.269448
0.285842
0.310406
0.340742
0.385392
0.4387
0.238643
0.240573
0.245536
0.253182
0.265186
0.280516
0.303469
0.33067
0.370066
0.413046
0.235492
0.23734
0.242064
0.249286
0.260611
0.274763
0.295914
0.319466
0.352932
0.38329
0.232151
0.233917
0.238389
0.245163
0.255749
0.268619
0.287779
0.307199
0.33416
0.349483
0.228637
0.230326
0.234539
0.240847
0.250643
0.26215
0.279134
0.293994
0.313961
0.311726
0.224968
0.226596
0.23056
0.236408
0.245393
0.255509
0.270174
0.280149
0.292687
0.270108
0.22116
0.222738
0.22646
0.231856
0.240011
0.248723
0.260907
0.265723
0.270278
0.223734
0.217198
0.218657
0.222017
0.226791
0.233827
0.240798
0.249834
0.249005
0.244212
0.170727
0.258082
0.260611
0.266747
0.276626
0.291316
0.31031
0.336817
0.365462
0.403312
0.412628
0.25805
0.260585
0.26676
0.276427
0.29151
0.3114
0.339207
0.37058
0.414479
0.440609
0.257785
0.260296
0.266483
0.276239
0.291152
0.310917
0.339988
0.373111
0.420945
0.460769
0.257287
0.259774
0.265973
0.275758
0.290758
0.310497
0.339926
0.375466
0.426598
0.47725
0.256548
0.259011
0.265198
0.274951
0.289998
0.309922
0.339336
0.377184
0.431002
0.489982
0.255561
0.257992
0.264142
0.273825
0.288828
0.308798
0.338395
0.375109
0.433418
0.499079
0.25432
0.256712
0.2628
0.272375
0.287257
0.307127
0.336741
0.374489
0.431351
0.50483
0.252823
0.255169
0.261169
0.270595
0.285285
0.304931
0.334309
0.372302
0.429701
0.500894
0.25107
0.253363
0.259248
0.268484
0.282907
0.302195
0.331082
0.368622
0.425652
0.498349
0.249064
0.251296
0.257042
0.266042
0.280124
0.298909
0.327064
0.363621
0.419066
0.490499
0.212284
0.210856
0.207842
0.203051
0.19625
0.187217
0.175637
0.161324
0.143919
0.123561
0.217311
0.216069
0.213416
0.209125
0.202881
0.194341
0.183033
0.168617
0.150467
0.128654
0.224821
0.223921
0.22196
0.218662
0.213602
0.206227
0.195796
0.181621
0.162584
0.138459
0.232937
0.232515
0.231546
0.229719
0.226528
0.221169
0.212588
0.199465
0.18004
0.153263
0.240441
0.240581
0.240822
0.240843
0.24014
0.237659
0.232166
0.221337
0.202794
0.173532
0.246677
0.247402
0.248945
0.251017
0.25323
0.25434
0.253179
0.246175
0.230628
0.199666
0.251417
0.252695
0.255507
0.25964
0.264933
0.270077
0.27426
0.272609
0.262729
0.231644
0.254713
0.256471
0.260429
0.266467
0.274741
0.284039
0.294169
0.299195
0.297466
0.267896
0.25676
0.258908
0.263837
0.271507
0.282431
0.29565
0.311796
0.324555
0.333084
0.306007
0.257811
0.260231
0.265919
0.274904
0.288018
0.304597
0.326432
0.347633
0.369809
0.35121
0.108719
0.102539
0.0962609
0.0899291
0.0835201
0.0770328
0.0704883
0.0639121
0.0573295
0.0507566
0.112335
0.105466
0.0984532
0.0914367
0.0843464
0.0771471
0.0698588
0.0625181
0.0551627
0.0478073
0.119482
0.1111
0.102464
0.0940109
0.0855792
0.0770385
0.0683928
0.0596946
0.0510167
0.0423338
0.130734
0.120002
0.108762
0.0980751
0.0876307
0.0771033
0.0664573
0.0557753
0.045152
0.0345385
0.14689
0.132897
0.11787
0.104026
0.0908235
0.0775993
0.0642534
0.050934
0.037603
0.0243683
0.168832
0.150579
0.130331
0.112231
0.0954062
0.0786579
0.0618
0.0451108
0.028446
0.011908
0.197635
0.174157
0.146995
0.123307
0.101742
0.0803201
0.0587957
0.038059
0.0173248
-0.00320401
0.233695
0.204253
0.168569
0.138074
0.110635
0.0835247
0.0567856
0.030048
0.00409728
-0.0210719
0.27661
0.240164
0.194984
0.156658
0.121576
0.0868507
0.0534416
0.0204234
-0.0112091
-0.0413814
0.325874
0.281618
0.22822
0.180773
0.135627
0.0912467
0.0483438
0.00771922
-0.0299997
-0.0650164
0.0442127
0.0377195
0.0312964
0.0249602
0.0187261
0.012608
0.00661852
0.000769102
-0.00493019
-0.0104695
0.0404797
0.0332099
0.0260238
0.0189438
0.0119906
0.00518349
-0.00146058
-0.0079268
-0.0142021
-0.0202511
0.0336817
0.0251019
0.0166237
0.00826889
5.73759e-05
-0.00799187
-0.0158616
-0.0235374
-0.0310081
-0.0381842
0.0239741
0.0135014
0.00314598
-0.00707468
-0.017145
-0.0270503
-0.0367778
-0.0463171
-0.0556664
-0.0646907
0.0112536
-0.00173628
-0.0145948
-0.027313
-0.0398825
-0.0522976
-0.0645581
-0.0766699
-0.0886639
-0.100586
-0.00444076
-0.0206016
-0.0365995
-0.0524585
-0.0682012
-0.083851
-0.0994314
-0.114952
-0.130472
-0.146754
-0.0233989
-0.0432746
-0.0628783
-0.0822538
-0.101457
-0.120579
-0.139748
-0.159075
-0.178891
-0.201038
-0.0456516
-0.0697561
-0.093454
-0.116796
-0.139812
-0.162525
-0.184994
-0.207325
-0.230789
-0.258212
-0.0702644
-0.0979849
-0.124714
-0.150718
-0.176342
-0.201967
-0.22793
-0.254511
-0.283916
-0.31646
-0.0973784
-0.12707
-0.154245
-0.179308
-0.202947
-0.226123
-0.249965
-0.275954
-0.309928
-0.354762
-0.02365
-0.0423038
-0.0582604
-0.0705429
-0.0785294
-0.0821019
-0.0815942
-0.0777957
-0.0717287
-0.0646558
-0.0575268
-0.0512202
-0.045523
-0.0398361
-0.03256
-0.0233503
-0.013283
-0.00489635
-0.000904908
-5.63808e-05
-0.0350096
-0.0544251
-0.0698211
-0.0807184
-0.0868479
-0.0883237
-0.0857209
-0.0800401
-0.0724825
-0.0644425
-0.0569101
-0.0507571
-0.0455354
-0.0403178
-0.0331848
-0.0235466
-0.0128934
-0.00388855
-0.000347581
3.59753e-05
-0.0558038
-0.0760819
-0.0899486
-0.0980265
-0.100663
-0.0983843
-0.0921102
-0.0832511
-0.0732617
-0.0637011
-0.0556015
-0.0498162
-0.045497
-0.0411722
-0.0343519
-0.0240027
-0.0124254
-0.00237475
0.000452361
0.00026486
-0.0855448
-0.105866
-0.116767
-0.120294
-0.117675
-0.110228
-0.0992312
-0.0864444
-0.0735586
-0.0622684
-0.0536102
-0.0484126
-0.0453141
-0.0421643
-0.0357995
-0.024688
-0.012124
-0.000883621
0.00120927
0.00063606
-0.122637
-0.141475
-0.148077
-0.145211
-0.135939
-0.122232
-0.10601
-0.0891401
-0.0733675
-0.0604026
-0.0512421
-0.0466724
-0.0448428
-0.0429477
-0.0371412
-0.0254414
-0.0121226
0.000144003
0.00168526
0.0010801
-0.163102
-0.17927
-0.180825
-0.170035
-0.152872
-0.132898
-0.11177
-0.0912267
-0.0729476
-0.0585537
-0.0489493
-0.0448601
-0.0440195
-0.0432025
-0.0380153
-0.0260646
-0.0123981
0.000509308
0.00174044
0.00149683
-0.200641
-0.214801
-0.210755
-0.190883
-0.166612
-0.141322
-0.116166
-0.0927671
-0.0726265
-0.0571745
-0.0471708
-0.0432624
-0.0429551
-0.0428495
-0.0382573
-0.0264209
-0.0128379
0.000245245
0.00136765
0.00180863
-0.230707
-0.244623
-0.234089
-0.206142
-0.176625
-0.147279
-0.119234
-0.0939259
-0.0726096
-0.0564706
-0.0461131
-0.0420898
-0.0418415
-0.0420265
-0.0379288
-0.0264808
-0.0133241
-0.000478869
0.000682495
0.00198958
-0.255476
-0.267984
-0.250271
-0.216501
-0.183389
-0.151121
-0.121234
-0.0948101
-0.0728661
-0.0563423
-0.0456876
-0.0413594
-0.0408295
-0.0409707
-0.0372092
-0.0262974
-0.0137766
-0.00146108
-0.000174057
0.00205605
-0.281835
-0.2842
-0.259703
-0.222076
-0.18673
-0.152653
-0.121946
-0.095186
-0.0732031
-0.0566623
-0.0458272
-0.0409723
-0.0398812
-0.0398256
-0.0360346
-0.0257965
-0.0141424
-0.00260244
-0.00115577
0.00203934
-0.3158
-0.286588
-0.259056
-0.22083
-0.18559
-0.151492
-0.121281
-0.0951688
-0.0739038
-0.0578458
-0.0470105
-0.0413611
-0.0390306
-0.0379529
-0.0341344
-0.0248423
-0.0143723
-0.00380787
-0.0022137
0.00196575
-0.328943
-0.28633
-0.257415
-0.217848
-0.182604
-0.148639
-0.119063
-0.0936651
-0.0731334
-0.05762
-0.0470464
-0.0412317
-0.0384443
-0.0369857
-0.0330893
-0.0242587
-0.0144192
-0.00448956
-0.00284665
0.00189438
-0.332362
-0.283886
-0.254869
-0.214148
-0.179096
-0.14543
-0.116599
-0.0919898
-0.072247
-0.0573248
-0.0470608
-0.0411535
-0.0379857
-0.0361533
-0.0321598
-0.0237087
-0.0144322
-0.00512516
-0.00344512
0.00180386
-0.332007
-0.281276
-0.252284
-0.21074
-0.176049
-0.142755
-0.114675
-0.0908312
-0.0718294
-0.0574205
-0.0472772
-0.041201
-0.0375275
-0.0352197
-0.0311494
-0.0231444
-0.0144881
-0.0058231
-0.00407662
0.0016937
-0.330252
-0.279361
-0.249732
-0.207494
-0.173282
-0.140417
-0.113115
-0.0900431
-0.0717628
-0.0578249
-0.0477788
-0.0413252
-0.037034
-0.0341826
-0.030043
-0.0225576
-0.0145847
-0.00658038
-0.00473893
0.00156538
-0.327858
-0.274466
-0.247259
-0.204441
-0.170743
-0.13834
-0.111827
-0.0895322
-0.0719569
-0.0584599
-0.0484126
-0.0415054
-0.0365205
-0.0330817
-0.0288719
-0.0219581
-0.0147121
-0.00737635
-0.00541884
0.00142041
-0.325389
-0.272977
-0.245221
-0.201841
-0.16852
-0.136574
-0.11083
-0.0892989
-0.0723975
-0.0592342
-0.0491623
-0.0417386
-0.0360021
-0.0319404
-0.0276587
-0.0213554
-0.0148676
-0.00819839
-0.00610772
0.00126023
-0.323384
-0.271633
-0.242842
-0.199956
-0.166688
-0.135172
-0.110146
-0.089343
-0.0730682
-0.0602176
-0.0500143
-0.0420208
-0.0354909
-0.0307787
-0.0264224
-0.0207587
-0.0150505
-0.00903682
-0.00679858
0.0010863
-0.322891
-0.270679
-0.241598
-0.197118
-0.165163
-0.134163
-0.109777
-0.0896495
-0.0739253
-0.0613371
-0.0509445
-0.0423465
-0.0350004
-0.0296208
-0.0251849
-0.0201775
-0.015259
-0.00988123
-0.0074838
0.000900224
-0.3243
-0.270204
-0.241128
-0.196475
-0.164242
-0.13344
-0.109716
-0.0901965
-0.0749659
-0.0625422
-0.0519305
-0.0427115
-0.0345457
-0.0284933
-0.0239704
-0.0196218
-0.015491
-0.0107211
-0.00815582
0.000703586
)
;

boundaryField
{
    inlet
    {
        type            freestreamPressure;
        freestreamValue uniform 0;
        value           nonuniform List<scalar> 
40
(
0.211415
0.203157
0.193305
0.181727
0.168475
0.15386
0.138567
0.123762
0.111181
0.103237
0.246809
0.244314
0.241588
0.238643
0.235492
0.232151
0.228637
0.224968
0.22116
0.217198
0.258082
0.25805
0.257785
0.257287
0.256548
0.255561
0.25432
0.252823
0.25107
0.249064
0.212284
0.217311
0.224821
0.232937
0.240441
0.246677
0.251417
0.254713
0.25676
0.257811
)
;
    }
    outlet
    {
        type            freestreamPressure;
        freestreamValue uniform 0;
        value           nonuniform List<scalar> 
40
(
-1.92441e-06
-2.20521e-06
-2.39971e-06
-2.45554e-06
-2.31517e-06
-1.95648e-06
-1.42459e-06
-8.3539e-07
-3.33637e-07
-3.93434e-08
4.54628e-07
2.74957e-07
6.68471e-08
-1.63943e-07
-4.1084e-07
-6.66755e-07
-9.24645e-07
-1.17818e-06
-1.42165e-06
-1.6462e-06
5.37403e-07
6.18578e-07
6.94739e-07
7.59518e-07
8.06774e-07
8.30514e-07
8.25312e-07
7.86885e-07
7.12555e-07
6.01439e-07
-4.00457e-13
1.23194e-12
2.21852e-11
3.2081e-10
3.34583e-09
1.88885e-08
6.45761e-08
1.53198e-07
2.80054e-07
4.2513e-07
)
;
    }
    top
    {
        type            symmetryPlane;
    }
    bottom
    {
        type            symmetryPlane;
    }
    cylinder
    {
        type            zeroGradient;
    }
    frontandback
    {
        type            empty;
    }
}


// ************************************************************************* //
