/*--------------------------------*- C++ -*----------------------------------*\
  =========                 |
  \\      /  F ield         | OpenFOAM: The Open Source CFD Toolbox
   \\    /   O peration     | Website:  https://openfoam.org
    \\  /    A nd           | Version:  6.0
     \\/     M anipulation  |
\*---------------------------------------------------------------------------*/
FoamFile
{
    version     2.0;
    format      ascii;
    class       surfaceScalarField;
    location    "8.75";
    object      phi;
}
// * * * * * * * * * * * * * * * * * * * * * * * * * * * * * * * * * * * * * //

dimensions      [0 3 -1 0 0 0 0];

internalField   nonuniform List<scalar> 
4670
(
0.00358617
-0.816477
0.812891
0.00984797
-0.79614
0.789878
0.0162139
-0.762206
0.75584
0.0220131
-0.71537
0.70957
0.0273351
-0.669377
0.664055
0.0324094
-0.626806
0.621732
0.0374319
-0.588454
0.583432
0.0425378
-0.554567
0.549461
0.0478755
-0.524995
0.519657
-0.499362
0.493567
0.05367
0.0037153
-0.820192
0.00980971
-0.802234
0.0158749
-0.768271
0.0213616
-0.720856
0.0263889
-0.674405
0.031196
-0.631613
0.0359731
-0.593232
0.0408379
-0.559432
0.0459269
-0.530084
-0.50487
0.0514354
0.00370759
-0.8239
0.00954508
-0.808072
0.0152386
-0.773964
0.0203105
-0.725928
0.0249318
-0.679026
0.0293622
-0.636044
0.0337872
-0.597657
0.0382986
-0.563943
0.043002
-0.534788
-0.509949
0.0480808
0.00358547
-0.827485
0.0090882
-0.813574
0.0143336
-0.77921
0.0189142
-0.730509
0.0230406
-0.683152
0.026997
-0.64
0.0309863
-0.601646
0.0351084
-0.568066
0.0394758
-0.539155
-0.51477
0.0442964
0.0033533
-0.830839
0.00842674
-0.818648
0.0131709
-0.783954
0.017213
-0.734551
0.0207792
-0.686718
0.0241509
-0.643372
0.0275389
-0.605034
0.0310907
-0.571617
0.0349954
-0.54306
-0.519362
0.0395874
0.00302277
-0.833861
0.007579
-0.823204
0.0117436
-0.788119
0.0151991
-0.738006
0.0181883
-0.689708
0.0209572
-0.646141
0.0236571
-0.607734
0.0264415
-0.574402
0.0296559
-0.546274
-0.523623
0.0339173
0.00262463
-0.836486
0.00658923
-0.827169
0.010072
-0.791601
0.0128125
-0.740747
0.0151253
-0.69202
0.0172951
-0.64831
0.019419
-0.609858
0.0215027
-0.576486
0.023775
-0.548546
-0.526435
0.0265872
0.00224209
-0.838728
0.00562171
-0.830548
0.00834755
-0.794327
0.0101811
-0.74258
0.0114989
-0.693338
0.0127321
-0.649544
0.0141725
-0.611298
0.015799
-0.578112
0.0171376
-0.549885
-0.525731
0.0164335
0.00197783
-0.840706
0.00487141
-0.833442
0.00691054
-0.796366
0.00783437
-0.743504
0.00790576
-0.69341
0.00745718
-0.649095
0.0069332
-0.610774
0.00693431
-0.578113
0.00760085
-0.550552
-0.524809
0.00667898
0.00193915
-0.842645
0.00443804
-0.835941
0.00600193
-0.79793
0.00637259
-0.743875
0.00563151
-0.692668
0.00363951
-0.647103
4.08463e-05
-0.607175
-0.00499115
-0.573081
-0.00844192
-0.547101
-0.537556
0.00430511
0.860347
0.00274948
-0.863097
0.857688
0.00265951
0.855128
0.00256004
0.852713
0.00241424
0.850484
0.00222893
0.848483
0.00200145
0.846713
0.00177008
0.845169
0.00154344
0.843819
0.00135083
0.0011736
0.856747
0.00455219
-0.858549
0.854613
0.00479356
0.852278
0.00489432
0.849837
0.00485524
0.847364
0.00470253
0.844932
0.00443354
0.842585
0.00411661
0.840349
0.00378
0.838171
0.00352875
0.00340356
0.809797
0.0050281
-0.810273
0.80895
0.00564078
0.80781
0.00603456
0.806481
0.00618412
0.805042
0.00614085
0.803573
0.0059031
0.802139
0.00554985
0.800756
0.00516378
0.799403
0.00488179
0.00487613
0.749149
0.00503483
-0.749156
0.748828
0.00596161
0.748224
0.00663807
0.747481
0.00692752
0.746639
0.00698249
0.745841
0.00670147
0.745128
0.00626309
0.744587
0.0057041
0.744222
0.00524756
0.00522288
0.695386
0.00515483
-0.695506
0.695017
0.00633088
0.694363
0.00729188
0.69367
0.00762049
0.692868
0.00778481
0.692267
0.00730214
0.69178
0.0067503
0.691717
0.00576699
0.69205
0.00491498
0.00460409
0.649563
0.00559981
-0.650008
0.648933
0.00696096
0.647956
0.00826961
0.64707
0.00850647
0.645941
0.00891303
0.645287
0.00795613
0.644625
0.00741221
0.64485
0.00554222
0.645496
0.00426956
0.00299667
0.610187
0.00640724
-0.610995
0.609271
0.00787695
0.607882
0.00965857
0.60676
0.00962823
0.605052
0.0106215
0.604239
0.00876962
0.602989
0.00866133
0.603734
0.00479746
0.60416
0.00384375
-1.86682e-05
0.575919
0.00756068
-0.577073
0.57477
0.00902631
0.572985
0.0114437
0.571712
0.0109014
0.569266
0.0130671
0.568242
0.00979404
0.565726
0.011177
0.567543
0.00298044
0.567459
0.00392732
-0.00564049
0.5457
0.00908485
-0.547224
0.544373
0.0103537
0.54225
0.013567
0.540977
0.012174
0.537853
0.0161914
0.536635
0.0110118
0.532114
0.0156978
0.534489
0.000605691
0.534838
0.00357843
-0.0179037
0.518811
-0.520895
0.0111684
0.517228
0.0119366
0.514797
0.0159983
0.513565
0.0134059
0.510051
0.0197054
0.508673
0.0123895
0.502301
0.0220698
0.502103
0.000803859
0.501131
0.00455051
-0.0543291
0.87215
-0.000926174
-0.871224
0.872831
-0.000681042
0.873093
-0.0002617
0.872859
0.000233395
0.872119
0.000739963
0.870925
0.00119452
0.869334
0.00159066
0.867436
0.00189839
0.865312
0.00212383
0.00221515
0.850421
-0.00489661
-0.84645
0.853821
-0.00408139
0.856621
-0.0030617
0.858756
-0.00190164
0.860206
-0.00070983
0.861
0.000400532
0.861178
0.00141226
0.860799
0.00227814
0.859904
0.00301822
0.00356998
0.790858
-0.0100471
-0.785707
0.795502
-0.00872541
0.799518
-0.00707802
0.802858
-0.00524132
0.805547
-0.00339944
0.807618
-0.00166995
0.8091
-6.95282e-05
0.810012
0.00136587
0.810394
0.00263597
0.00369129
0.727362
-0.0154128
-0.721996
0.732236
-0.0136
0.736424
-0.0112659
0.739911
-0.00872794
0.742785
-0.00627331
0.745092
-0.00397709
0.746847
-0.0018252
0.748084
0.000129219
0.748832
0.00188771
0.00336811
0.675602
-0.0208118
-0.670203
0.680361
-0.0183599
0.684283
-0.0151879
0.687479
-0.0119236
0.690094
-0.00888798
0.69215
-0.00603341
0.693665
-0.00334052
0.694703
-0.000908412
0.69529
0.00130109
0.00315141
0.63301
-0.0265039
-0.627318
0.637604
-0.0229534
0.641127
-0.0187113
0.643978
-0.014774
0.646273
-0.0111833
0.647961
-0.00772138
0.649105
-0.00448431
0.649806
-0.00161005
0.650078
0.00102983
0.00322072
0.596781
-0.0329374
-0.590348
0.601174
-0.0273455
0.604269
-0.0218065
0.606875
-0.01738
0.608899
-0.0132076
0.610219
-0.00904172
0.61101
-0.00527503
0.611398
-0.00199752
0.611359
0.001068
0.00358548
0.5653
-0.0401014
-0.558136
0.569451
-0.031496
0.572228
-0.0245836
0.574654
-0.0198061
0.576376
-0.0149296
0.577346
-0.0100116
0.577852
-0.00578075
0.577994
-0.00214033
0.577694
0.00136883
0.00420633
0.537685
-0.045484
-0.532302
0.541705
-0.0355166
0.544726
-0.027604
0.546703
-0.0217833
0.547831
-0.0160574
0.54844
-0.010621
0.548707
-0.00604718
0.548648
-0.00208195
0.548094
0.00192284
0.00507603
0.512386
-0.52049
-0.0373807
0.516181
-0.0393118
0.52243
-0.0338526
0.52318
-0.022533
0.523021
-0.0158982
0.523276
-0.0108764
0.523351
-0.00612213
0.523056
-0.00178731
0.522173
0.0028064
0.00635418
0.0308788
0.466858
-0.465454
-0.032283
0.0288422
0.492184
-0.490148
0.0263403
0.519966
-0.517464
0.0234464
0.550939
-0.548045
0.0201355
0.585898
-0.582587
0.0163026
0.626139
-0.622306
0.0118194
0.674692
-0.670209
0.00674573
0.736504
-0.73143
0.00198452
0.803246
-0.798485
0.851911
-0.849927
0.0330813
0.46909
-0.0353129
0.0304579
0.494808
0.0275197
0.522905
0.0242851
0.554174
0.0206993
0.589484
0.0166465
0.630192
0.0119994
0.679339
0.00684116
0.741662
0.00209156
0.807996
0.854003
0.0336495
0.471275
-0.035835
0.0311085
0.497349
0.0282059
0.525807
0.0249222
0.557457
0.0212157
0.593191
0.0170072
0.634401
0.0122126
0.684134
0.00695263
0.746922
0.00215318
0.812795
0.856156
0.0372063
0.474706
-0.0406364
0.0336404
0.500914
0.0299507
0.529497
0.0260878
0.56132
0.0219618
0.597317
0.0174529
0.638909
0.0124499
0.689137
0.00706396
0.752308
0.00220262
0.817657
0.858359
0.0365847
0.477056
-0.0389352
0.033761
0.503738
0.0304914
0.532767
0.0267298
0.565082
0.0225086
0.601538
0.0178251
0.643593
0.012648
0.694314
0.00714123
0.757815
0.00223211
0.822566
0.860591
0.0414726
0.481315
-0.0457321
0.037002
0.508209
0.0324629
0.537306
0.0278763
0.569669
0.0231587
0.606255
0.0181682
0.648583
0.0127964
0.699685
0.00718831
0.763423
0.00224946
0.827505
0.86284
0.0393974
0.483027
-0.0411086
0.0364038
0.511202
0.0326188
0.541091
0.0282617
0.574026
0.0234954
0.611022
0.0183498
0.653729
0.0128329
0.705202
0.00714942
0.769106
0.00222036
0.832434
0.865061
0.0475131
0.489609
-0.0540956
0.0404872
0.518228
0.0343321
0.547246
0.0289484
0.579409
0.0237222
0.616248
0.0183336
0.659118
0.0127073
0.710829
0.00703249
0.774781
0.00216107
0.837305
0.867222
0.044157
0.495091
-0.0496388
0.0384923
0.523893
0.0338972
0.551841
0.0289525
0.584354
0.0235736
0.621627
0.018015
0.664676
0.0123558
0.716488
0.00676457
0.780372
0.00205017
0.84202
0.869272
0.0491414
-0.0745402
0.0407323
0.0344367
0.0284429
0.0227515
0.017225
0.0117171
0.00638223
0.00195162
0.0494163
0.448389
-0.455882
-0.0419236
0.0428417
0.47121
-0.464636
0.0351176
0.49479
-0.487066
0.028541
0.522306
-0.51573
0.0231693
0.553784
-0.548412
0.0184853
0.589603
-0.584919
0.0139227
0.632166
-0.627603
0.00896374
0.687063
-0.682104
0.00358048
0.752487
-0.747104
0.823745
-0.820165
0.0387303
0.452374
-0.0427155
0.0356525
0.474288
0.0319483
0.498494
0.0277267
0.526528
0.0233398
0.558171
0.0188994
0.594043
0.0142621
0.636803
0.00914301
0.692182
0.00367346
0.757957
0.827419
0.0338699
0.456606
-0.0381012
0.0312581
0.4769
0.028624
0.501128
0.0256709
0.529481
0.0222865
0.561555
0.0184411
0.597889
0.0140589
0.641185
0.00899623
0.697245
0.00354347
0.763409
0.830962
0.0317658
0.458257
-0.0334176
0.0296086
0.479057
0.0270385
0.503698
0.0242622
0.532257
0.0212079
0.56461
0.0177037
0.601393
0.0135591
0.64533
0.00862292
0.702181
0.00329475
0.768737
0.834257
0.030523
0.458997
-0.0312631
0.0287023
0.480878
0.0262974
0.506103
0.0235765
0.534978
0.0205645
0.567622
0.0171278
0.604829
0.013057
0.649401
0.00819368
0.707044
0.00301791
0.773913
0.837275
0.0295975
0.459888
-0.030488
0.0279017
0.482574
0.0257032
0.508301
0.0231332
0.537548
0.020187
0.570568
0.0167603
0.608256
0.0126807
0.65348
0.00783438
0.71189
0.00278062
0.778967
0.840056
0.0291987
0.461077
-0.0303883
0.0274733
0.484299
0.0253239
0.510451
0.0228225
0.54005
0.019924
0.573466
0.0165079
0.611672
0.0124089
0.657579
0.00755385
0.716746
0.002593
0.783928
0.842649
0.029427
0.462518
-0.030868
0.027552
0.486174
0.0253123
0.51269
0.0227549
0.542607
0.0198187
0.576403
0.0163679
0.615123
0.0122333
0.661714
0.00736729
0.721612
0.0024672
0.788828
0.845116
0.0296825
0.463944
-0.0311077
0.0277878
0.488069
0.0254903
0.514988
0.0228581
0.545239
0.0198474
0.579413
0.0163283
0.618642
0.0121356
0.665907
0.00724169
0.726505
0.00239457
0.793675
0.84751
0.0306529
-0.0321636
0.0285742
0.0260976
0.0232917
0.0201177
0.0164534
0.0121512
0.00722671
0.00241666
-0.421017
0.0539728
-0.0888379
-0.419499
0.0292433
-0.0307606
-0.418143
0.0276964
-0.0290527
-0.421478
0.00947651
-0.00614148
-0.422225
0.00776885
-0.00702237
-0.424592
-0.00167719
0.00404413
-0.426212
-0.00432053
0.00594133
-0.428882
-0.0103762
0.013046
-0.431661
-0.0134611
0.0162396
-0.0172161
-0.43508
0.0206359
-0.450809
0.0401464
-0.448069
0.0265027
-0.444117
0.0237443
-0.446196
0.0115556
-0.44655
0.00812326
-0.448692
0.000464297
-0.450229
-0.00278278
-0.452697
-0.00790865
-0.455233
-0.0109247
-0.0142143
-0.458235
-0.47885
0.0319311
-0.476692
0.0243447
-0.473082
0.0201342
-0.473806
0.0122793
-0.473907
0.00822491
-0.475661
0.00221772
-0.477174
-0.00126937
-0.479497
-0.00558613
-0.481949
-0.00847243
-0.0113731
-0.48479
-0.509935
0.0261365
-0.507306
0.0217155
-0.504645
0.0174727
-0.504482
0.0121165
-0.504442
0.00818483
-0.505771
0.00354671
-0.507232
0.000191649
-0.509426
-0.00339132
-0.511842
-0.00605703
-0.00858418
-0.514631
-0.543865
0.0215888
-0.54086
0.0187107
-0.538664
0.0152768
-0.538001
0.0114537
-0.537873
0.00805614
-0.53883
0.00450445
-0.540193
0.00155457
-0.542237
-0.00134755
-0.544602
-0.00369225
-0.0058356
-0.54735
-0.580927
0.0175968
-0.577825
0.0156085
-0.575668
0.0131205
-0.57462
0.0104055
-0.574309
0.00774511
-0.574899
0.0050949
-0.576061
0.00271598
-0.57787
0.000462036
-0.580094
-0.00146833
-0.00320215
-0.582728
-0.623652
0.013646
-0.620375
0.0123311
-0.617938
0.0106837
-0.616398
0.00886529
-0.615656
0.0070031
-0.615722
0.00516118
-0.616445
0.00343908
-0.617806
0.00182233
-0.619655
0.000380937
-0.000907984
-0.621949
-0.677704
0.00924619
-0.673848
0.008475
-0.670712
0.00754807
-0.668348
0.0065007
-0.666761
0.0054161
-0.665928
0.00432807
-0.66578
0.00329091
-0.666268
0.00231043
-0.667294
0.00140747
0.000587679
-0.66879
-0.741991
0.0041334
-0.737334
0.0038181
-0.733266
0.00348
-0.729872
0.0031063
-0.72716
0.00270432
-0.725125
0.0022929
-0.723725
0.00189166
-0.722924
0.00150889
-0.722656
0.00113938
0.000753154
-0.722821
-0.816031
-0.812213
-0.808733
-0.805627
-0.802923
-0.80063
-0.798738
-0.797229
-0.79609
-0.795337
-0.438458
-0.019178
0.0225557
-0.441839
-0.0211081
0.0244891
-0.445153
-0.0224274
0.0257418
-0.448403
-0.0233374
0.0265865
-0.451589
-0.0237094
0.0268957
-0.455053
-0.0231895
0.0266534
-0.458175
-0.0222731
0.0253953
-0.457696
-0.0214907
0.0210122
-0.457683
-0.0196685
0.0196552
-0.0162871
-0.465777
0.0243812
-0.461265
-0.0161476
-0.464353
-0.0180209
-0.467417
-0.0193628
-0.47046
-0.0202942
-0.473439
-0.0207311
-0.476168
-0.0204598
-0.47839
-0.0200515
-0.480006
-0.0198746
-0.481022
-0.0186522
-0.0163756
-0.480934
-0.487739
-0.0131988
-0.490783
-0.0149772
-0.493861
-0.0162843
-0.496945
-0.017211
-0.49996
-0.0177153
-0.502653
-0.0177667
-0.504976
-0.0177286
-0.507232
-0.0176191
-0.508846
-0.0170385
-0.0166723
-0.508549
-0.517594
-0.0102353
-0.520695
-0.0118765
-0.52387
-0.0131089
-0.527068
-0.0140136
-0.530198
-0.014585
-0.533086
-0.0148785
-0.53576
-0.0150553
-0.538316
-0.0150628
-0.540317
-0.0150377
-0.0156912
-0.541298
-0.55034
-0.00724518
-0.553514
-0.0087025
-0.556797
-0.00982618
-0.560125
-0.0106859
-0.563413
-0.0112967
-0.56657
-0.0117216
-0.569603
-0.0120221
-0.572451
-0.0122152
-0.574912
-0.0125762
-0.0135524
-0.577051
-0.585678
-0.00429473
-0.588868
-0.00551323
-0.592211
-0.00648233
-0.595646
-0.0072509
-0.599103
-0.00783998
-0.60253
-0.00829498
-0.605898
-0.00865421
-0.609115
-0.00899804
-0.612138
-0.00955273
-0.0105321
-0.615159
-0.624646
-0.00159833
-0.627637
-0.00252158
-0.630847
-0.00327265
-0.634217
-0.00388049
-0.637696
-0.00436147
-0.641242
-0.00474881
-0.644812
-0.00508377
-0.648346
-0.0054641
-0.651863
-0.00603569
-0.00687897
-0.655516
-0.670754
0.000366264
-0.673045
-0.00023108
-0.675621
-0.000696669
-0.678433
-0.00106887
-0.681441
-0.00135263
-0.684609
-0.00158117
-0.687903
-0.0017895
-0.691307
-0.00206055
-0.694853
-0.00248926
-0.00310822
-0.698624
-0.723341
0.000886121
-0.724195
0.000623241
-0.72534
0.00044819
-0.726745
0.000335908
-0.728363
0.000265221
-0.730168
0.000223756
-0.732146
0.000188941
-0.734327
0.000119682
-0.736768
-4.7666e-05
-0.000390682
-0.739486
-0.794451
-0.793827
-0.793379
-0.793043
-0.792778
-0.792554
-0.792365
-0.792246
-0.792293
-0.792684
3.37847e-05
-0.792718
0.00308665
-0.742539
0.00731912
-0.702856
0.0113809
-0.659578
0.0147912
-0.618569
0.0173861
-0.579646
0.0190969
-0.543009
0.0199926
-0.509445
0.0192474
-0.480188
-0.454035
0.00750513
0.00048433
-0.793202
0.00399226
-0.746046
0.00858483
-0.707449
0.0130023
-0.663996
0.0168156
-0.622382
0.020064
-0.582894
0.023096
-0.546041
0.0262285
-0.512577
0.0287407
-0.482701
-0.455743
0.0304488
0.000932758
-0.794135
0.00494825
-0.750062
0.00996781
-0.712469
0.0147945
-0.668822
0.0190846
-0.626672
0.0228671
-0.586677
0.0261768
-0.54935
0.0287893
-0.51519
0.0304916
-0.484403
-0.457093
0.0318414
0.00138447
-0.795519
0.00593317
-0.754611
0.0113693
-0.717905
0.0165889
-0.674042
0.0213304
-0.631414
0.0256971
-0.591044
0.0299167
-0.55357
0.0342914
-0.519564
0.0391333
-0.489245
-0.462623
0.0446635
0.00184863
-0.797368
0.00689171
-0.759654
0.0127164
-0.723729
0.0182722
-0.679598
0.0233327
-0.636474
0.0279742
-0.595685
0.032337
-0.557933
0.0365383
-0.523766
0.0406112
-0.493318
-0.46645
0.0444381
0.00230577
-0.799674
0.00779612
-0.765144
0.0139421
-0.729875
0.0197721
-0.685428
0.0251265
-0.641829
0.0301435
-0.600702
0.0350438
-0.562833
0.0400329
-0.528755
0.0452063
-0.498491
-0.471746
0.0505018
0.00273986
-0.802414
0.00860208
-0.771006
0.0149889
-0.736262
0.0209976
-0.691436
0.0265112
-0.647342
0.0316628
-0.605854
0.0366181
-0.567788
0.0414815
-0.533618
0.0462595
-0.503269
-0.476325
0.0508383
0.0031372
-0.805551
0.00929067
-0.77716
0.0158238
-0.742795
0.0219264
-0.697539
0.0275529
-0.652969
0.032881
-0.611182
0.0381116
-0.573019
0.0433912
-0.538898
0.0488081
-0.508686
-0.481892
0.0543751
0.00349812
-0.809049
0.00983936
-0.783501
0.0164038
-0.74936
0.0224793
-0.703615
0.0280752
-0.658565
0.0333823
-0.616489
0.0385923
-0.578229
0.0438369
-0.544142
0.0492091
-0.514058
-0.48746
0.0547778
0.00384172
0.0102186
0.0166983
0.0226541
0.0281446
0.0333874
0.0385902
0.0439095
0.0495088
0.0556157
0.0205265
-2.17169
2.20484
0.0205529
-1.62198
1.62195
0.0214108
-1.21719
1.21634
0.0270844
-0.947819
0.942146
0.0347268
-0.716224
0.708582
0.0397361
-0.546768
0.541759
0.0436963
-0.40724
0.40328
0.0463959
-0.294583
0.291884
0.0479632
-0.209457
0.20789
0.0479877
-0.158515
0.158491
0.0455351
-0.147826
0.150279
0.0402325
-0.165249
0.170552
0.0331252
-0.173638
0.180746
0.0265262
-0.131669
0.138268
0.0236773
-0.016133
0.0189819
0.0275637
0.152009
-0.155896
0.0377168
0.310095
-0.320249
0.0493687
0.364924
-0.376576
0.0589673
0.361283
-0.370882
0.21456
-0.218637
0.0130236
-2.13328
0.00887119
-1.61783
0.0116089
-1.21993
0.0190047
-0.955215
0.0285011
-0.72572
0.0350032
-0.553271
0.0400259
-0.412263
0.0435211
-0.298078
0.0455796
-0.211516
0.0458104
-0.158746
0.0434107
-0.145427
0.0382189
-0.160057
0.031454
-0.166874
0.0254796
-0.125694
0.0233657
-0.0140191
0.027718
0.147657
0.0378387
0.299975
0.0491626
0.3536
0.0584945
0.351951
0.210554
0.00531391
-2.09051
-0.00251837
-1.60999
0.00164326
-1.22409
0.0108047
-0.964376
0.0220285
-0.736944
0.0300207
-0.561263
0.0361113
-0.418354
0.0404311
-0.302398
0.0430302
-0.214115
0.0435362
-0.159252
0.0412714
-0.143162
0.0362681
-0.155054
0.0298949
-0.1605
0.0245414
-0.120341
0.023106
-0.0125837
0.0278509
0.142912
0.037898
0.289928
0.0489018
0.342596
0.0579997
0.342854
0.206579
-0.00195283
-2.04427
-0.0120764
-1.59987
-0.00734607
-1.22882
0.00281728
-0.97454
0.0153687
-0.749496
0.0247917
-0.570686
0.0319612
-0.425523
0.0371393
-0.307576
0.0403325
-0.217308
0.0411833
-0.160103
0.0391297
-0.141108
0.0343819
-0.150306
0.0284392
-0.154558
0.0236965
-0.115598
0.0228812
-0.0117684
0.02795
0.137843
0.03789
0.279988
0.0485858
0.331901
0.0574834
0.333956
0.202594
-0.00759439
-1.99708
-0.0181866
-1.58928
-0.0149918
-1.23202
-0.00514912
-0.984382
0.00838337
-0.763028
0.0192728
-0.581575
0.0275773
-0.433828
0.0336576
-0.313657
0.0375011
-0.221151
0.0387652
-0.161367
0.0369933
-0.139336
0.0325572
-0.14587
0.0270736
-0.149074
0.0229279
-0.111452
0.0226763
-0.0115168
0.0280059
0.132514
0.0378121
0.270182
0.0482159
0.321497
0.0569468
0.325225
0.198564
-0.0110208
-1.95215
-0.0248645
-1.57543
-0.0248676
-1.23202
-0.0149155
-0.994335
0.000426124
-0.77837
0.0132936
-0.594443
0.0229318
-0.443466
0.0299891
-0.320714
0.0345459
-0.225708
0.0362911
-0.163112
0.0348656
-0.137911
0.0307875
-0.141792
0.0257819
-0.144068
0.022217
-0.107887
0.0224776
-0.0117774
0.0280125
0.126979
0.0376647
0.260529
0.0477943
0.311367
0.0563916
0.316628
0.19445
-0.0260221
-1.89954
-0.0464465
-1.55501
-0.0433787
-1.23508
-0.0287617
-1.00895
-0.00925779
-0.797874
0.00661336
-0.610314
0.0179501
-0.454803
0.0261126
-0.328877
0.0314641
-0.23106
0.0337629
-0.165411
0.032746
-0.136894
0.0290643
-0.13811
0.0245465
-0.13955
0.0215439
-0.104885
0.0222723
-0.0125058
0.0279669
0.121284
0.0374505
0.251046
0.0473251
0.301493
0.0558198
0.308133
0.190219
-0.0673061
-1.8158
-0.0822813
-1.54004
-0.0665832
-1.25078
-0.0441847
-1.03135
-0.0197322
-0.822326
-0.000596784
-0.629449
0.0126289
-0.468028
0.0220117
-0.338259
0.0282459
-0.237294
0.0311761
-0.168341
0.0306306
-0.136348
0.0273791
-0.134859
0.0233508
-0.135522
0.0208885
-0.102423
0.0220478
-0.013665
0.0278678
0.115464
0.0371748
0.241739
0.0468134
0.291854
0.0552344
0.299712
0.185838
-0.0779164
-1.7312
-0.0834068
-1.53454
-0.0705957
-1.26359
-0.0506246
-1.05132
-0.0269891
-0.845962
-0.00707632
-0.649362
0.00738073
-0.482485
0.0178357
-0.348714
0.0249434
-0.244401
0.0285465
-0.171944
0.0285198
-0.136322
0.0257242
-0.132063
0.0221813
-0.131979
0.0202363
-0.100478
0.0217976
-0.0152263
0.0277202
0.109541
0.0368477
0.232611
0.0462672
0.282434
0.0546387
0.291341
0.181279
0.100257
-1.82715
0.0131637
-1.44745
-0.0286178
-1.22181
-0.0368853
-1.04305
-0.0275724
-0.855275
-0.0115871
-0.665347
0.00281179
-0.496884
0.0138727
-0.359775
0.0216753
-0.252204
0.0259072
-0.176176
0.0264064
-0.136821
0.0240872
-0.129744
0.0210446
-0.128937
0.0196155
-0.0990485
0.0215577
-0.0171685
0.0275544
0.103545
0.0364907
0.223675
0.0457011
0.273224
0.054034
0.283008
0.176513
0.548764
-1.44036
-0.935553
0.43512
-1.33381
0.353323
-1.14001
0.239593
-0.929324
0.161803
-0.777485
0.123954
-0.627498
0.102315
-0.475246
0.0884403
-0.3459
0.0804638
-0.244228
0.0751724
-0.170885
0.0693932
-0.131042
0.0612513
-0.121602
0.0513388
-0.119024
0.0427175
-0.0904272
0.0398642
-0.0143152
0.0462414
0.0971676
0.0613564
0.20856
0.0790993
0.255481
0.0956419
0.266465
0.167616
0.683596
-1.12329
-1.00067
0.478703
-1.12891
0.345784
-1.0071
0.255515
-0.839054
0.189841
-0.711811
0.148113
-0.58577
0.122335
-0.449468
0.105026
-0.328591
0.0943345
-0.233536
0.0873317
-0.163882
0.0803646
-0.124075
0.0711096
-0.112347
0.0600737
-0.107988
0.0506031
-0.0809565
0.0476032
-0.0113152
0.0547639
0.0900069
0.0715899
0.191734
0.0914412
0.23563
0.11016
0.247746
0.157284
0.805429
-0.850609
-1.07811
0.580641
-0.904126
0.433995
-0.860449
0.330635
-0.735695
0.244022
-0.625198
0.183259
-0.525006
0.147164
-0.413373
0.124635
-0.306062
0.110446
-0.219347
0.101234
-0.15467
0.0928603
-0.115701
0.0824669
-0.101954
0.0703795
-0.0959009
0.0601647
-0.0707417
0.0571355
-0.00828602
0.065162
0.0819804
0.0837204
0.173176
0.105722
0.213629
0.126805
0.226663
0.145339
0.810232
-0.596835
-1.06401
0.583906
-0.6778
0.430614
-0.707157
0.345724
-0.650805
0.277273
-0.556747
0.21644
-0.464173
0.173921
-0.370855
0.147002
-0.279142
0.129321
-0.201667
0.117411
-0.14276
0.107291
-0.105582
0.095705
-0.0903674
0.0826854
-0.0828814
0.0718888
-0.0599451
0.0689522
-0.00534939
0.077876
0.0730565
0.0981364
0.152915
0.122304
0.189461
0.145899
0.203068
0.131595
0.854016
-0.432536
-1.01832
0.695212
-0.518996
0.561038
-0.572983
0.451794
-0.54156
0.350196
-0.45515
0.264212
-0.378189
0.207028
-0.31367
0.173419
-0.245534
0.151689
-0.179936
0.136465
-0.127536
0.124137
-0.0932538
0.111277
-0.0775076
0.0975023
-0.0691069
0.0863703
-0.048813
0.083685
-0.00266413
0.093502
0.0632396
0.115354
0.131063
0.141632
0.163183
0.167854
0.176846
0.11587
0.880925
-0.305136
-1.00833
0.723457
-0.361528
0.560528
-0.410053
0.428055
-0.409088
0.341551
-0.368645
0.28266
-0.319298
0.237689
-0.268699
0.203619
-0.211464
0.177957
-0.154274
0.158789
-0.108368
0.143793
-0.0782576
0.12963
-0.0633451
0.115384
-0.0548605
0.104265
-0.0376938
0.102025
-0.000424537
0.112699
0.0525654
0.135972
0.107791
0.164249
0.134905
0.193186
0.147909
0.0979912
0.881336
-0.20036
-0.986112
0.763046
-0.243238
0.641063
-0.28807
0.534908
-0.302933
0.448768
-0.282506
0.37084
-0.24137
0.300475
-0.198334
0.245943
-0.156931
0.20874
-0.117071
0.183919
-0.0835471
0.166187
-0.0605252
0.151036
-0.048195
0.136799
-0.0406227
0.12615
-0.0270448
0.124592
0.00113307
0.136098
0.0410597
0.16063
0.0832587
0.1908
0.104736
0.22256
0.116148
0.077778
0.870135
-0.120764
-0.94973
0.774441
-0.147544
0.662038
-0.175666
0.548057
-0.188952
0.448565
-0.183014
0.36926
-0.162065
0.307553
-0.136627
0.261802
-0.111181
0.229872
-0.0851406
0.207413
-0.0610885
0.190354
-0.0434662
0.175583
-0.0334237
0.162061
-0.0271008
0.152362
-0.0173456
0.151745
0.0017502
0.164144
0.0286609
0.189924
0.0574785
0.222026
0.0726339
0.256827
0.0813469
0.0550044
0.865537
-0.0570659
-0.929236
0.787211
-0.0692188
0.695405
-0.0838604
0.599225
-0.0927719
0.508742
-0.0925299
0.430164
-0.0834881
0.364001
-0.0704647
0.310317
-0.0574963
0.269921
-0.0447442
0.241381
-0.0325484
0.221025
-0.0231107
0.205059
-0.0174577
0.191744
-0.013786
0.182934
-0.0085357
0.183367
0.00131746
0.196882
0.015146
0.224269
0.0300911
0.258742
0.0381618
0.297103
0.0429851
0.0293066
0.90719
-0.964256
0.837971
0.754111
0.661339
0.568809
0.485321
0.414856
0.35736
0.312616
0.280067
0.256957
0.239499
0.225713
0.217177
0.218495
0.233641
0.263732
0.301894
0.344879
1.1109
-0.00588401
-1.09385
1.12376
-0.000917773
1.13052
0.00923438
1.13307
0.01086
1.12789
0.0248856
1.11769
0.0225887
1.09441
0.0453463
1.0609
0.0343122
0.999426
0.0660259
0.00954396
1.11699
-0.0148997
-1.10798
1.12228
-0.00620547
1.12529
0.00622377
1.12157
0.0145829
1.11539
0.0310606
1.09849
0.0394879
1.08285
0.0609927
1.05599
0.0611691
1.04507
0.0769463
0.0539456
1.07033
-0.0158343
-1.0694
1.06988
-0.0057533
1.06957
0.00653276
1.06697
0.0171833
1.06706
0.0309771
1.06733
0.0392115
1.07637
0.0519515
1.08377
0.0537701
1.09319
0.0675322
0.0690194
1.00622
-0.0146726
-1.00738
1.00639
-0.00592644
1.00959
0.00332783
1.01513
0.01165
1.0254
0.0207058
1.03649
0.0281208
1.04915
0.0392903
1.05456
0.0483618
1.05943
0.0626636
0.0644417
0.973494
-0.0131601
-0.975007
0.973617
-0.00604945
0.9756
0.00134544
0.978289
0.00896068
0.981591
0.0174033
0.983812
0.0258999
0.987893
0.0352097
0.993936
0.0423191
1.0066
0.049995
0.0527303
0.95595
-0.00943958
-0.959671
0.953407
-0.00350592
0.952182
0.00257028
0.95248
0.00866305
0.955204
0.0146787
0.960856
0.0202483
0.970394
0.0256719
0.982211
0.030502
0.995931
0.0362747
0.040336
0.930091
-0.00634135
-0.93319
0.928863
-0.00227787
0.929671
0.00176306
0.932591
0.00574238
0.937601
0.00966882
0.944313
0.0135367
0.952543
0.0174413
0.961874
0.0211709
0.973181
0.0249679
0.0274052
0.900655
-0.00401644
-0.90298
0.899862
-0.00148467
0.900581
0.00104399
0.902785
0.00353843
0.906485
0.00596863
0.911727
0.00829424
0.918683
0.0104852
0.927373
0.0124814
0.937981
0.01436
0.0156557
0.889565
-0.00195896
-0.891622
0.888827
-0.000746714
0.889425
0.000445956
0.891366
0.00159781
0.894644
0.00269029
0.899231
0.00370733
0.905079
0.00463676
0.912096
0.00546415
0.920262
0.00619463
0.00668193
0.933584
-0.935543
0.932837
0.933283
0.934881
0.937571
0.941278
0.945915
0.951379
0.957574
0.857299
0.16045
-1.05513
0.917389
-0.0994013
0.957925
-0.0743891
0.973402
-0.0380103
0.990438
-0.0329333
1.01151
-0.0319511
1.03277
-0.0273812
1.05352
-0.0225318
1.07386
-0.0175383
-0.0136345
0.984113
0.104047
-0.92771
1.00121
-0.116498
1.02393
-0.0971114
1.0372
-0.0512744
1.04511
-0.0408443
1.05705
-0.0438946
1.07141
-0.0417411
1.08505
-0.0361728
1.0975
-0.0299869
-0.0241106
1.01958
0.0706976
-0.986228
1.02622
-0.123137
1.03255
-0.103448
1.04177
-0.0604948
1.04733
-0.046396
1.05193
-0.0484947
1.05806
-0.047872
1.06383
-0.0419426
1.06778
-0.0339376
-0.0257344
1.02458
0.0414274
-0.995306
1.01396
-0.112517
1.00822
-0.0977116
1.01202
-0.0642944
1.0148
-0.0491713
1.01398
-0.0476774
1.01247
-0.0463663
1.01115
-0.0406177
1.0095
-0.0322936
-0.0236089
1.04165
0.0196472
-1.01987
1.02052
-0.0913796
1.00539
-0.0825859
1.00199
-0.0608901
1.00013
-0.0473177
0.995126
-0.0426709
0.98857
-0.0398109
0.982691
-0.0347385
0.978186
-0.0277882
-0.0204299
1.06444
-0.00152066
-1.04327
1.03843
-0.0653768
1.01676
-0.0609087
1.00506
-0.0491963
0.997473
-0.039728
0.989169
-0.0343669
0.979971
-0.0306132
0.971531
-0.0262978
0.96478
-0.021038
-0.0153202
1.04537
-0.0151664
-1.03173
1.02085
-0.0408532
0.998822
-0.0388807
0.983351
-0.0337252
0.972224
-0.028601
0.962468
-0.0246103
0.953158
-0.0213032
0.944831
-0.0179711
0.938109
-0.0143167
-0.0104005
0.994969
-0.0142071
-0.995928
0.976994
-0.0228786
0.960198
-0.0220849
0.946622
-0.0201488
0.935862
-0.0178414
0.926837
-0.0155857
0.918958
-0.0134238
0.912226
-0.0112394
0.906853
-0.00894358
-0.00652721
0.964311
-0.00768382
-0.970834
0.951894
-0.0104618
0.939989
-0.0101806
0.929355
-0.009514
0.920129
-0.00861607
0.912163
-0.00761912
0.905315
-0.00657602
0.899565
-0.00548996
0.894976
-0.00435426
-0.00317348
1.00153
-1.00921
0.991066
0.980886
0.971372
0.962756
0.955136
0.94856
0.94307
0.938716
0.130242
0.0495757
-0.0523733
0.138829
0.15167
-0.160257
0.154479
0.258992
-0.274643
0.176654
0.378902
-0.401077
0.205999
0.506096
-0.53544
0.236436
0.646343
-0.67678
0.282726
0.758274
-0.804563
0.380375
0.953588
-1.05124
0.603977
1.18309
-1.4067
1.41599
-1.86714
0.152518
0.0458919
0.163033
0.141155
0.18243
0.239595
0.209993
0.351339
0.249427
0.466662
0.289998
0.605772
0.350995
0.697277
0.439497
0.865086
0.689351
0.933239
1.17763
0.178422
0.041215
0.190999
0.128578
0.215177
0.215417
0.247902
0.318614
0.301688
0.412875
0.35408
0.55338
0.44723
0.604127
0.532609
0.779708
0.75086
0.714988
0.942261
0.208613
0.0355316
0.222629
0.114563
0.252894
0.185152
0.288082
0.283426
0.359681
0.341277
0.420419
0.492642
0.546316
0.47823
0.640595
0.685429
0.82856
0.527023
0.775514
0.243676
0.0291534
0.258463
0.0997762
0.295266
0.148348
0.33106
0.247632
0.41668
0.255656
0.483212
0.42611
0.620231
0.341212
0.738661
0.566999
0.861822
0.403862
0.617462
0.283762
0.0226083
0.29963
0.083908
0.339718
0.108261
0.378519
0.208831
0.461439
0.172737
0.540516
0.347033
0.64656
0.235167
0.791561
0.421997
0.880713
0.31471
0.454907
0.328764
0.0159147
0.347326
0.0653456
0.382902
0.0726858
0.432011
0.159721
0.49068
0.114068
0.590384
0.247329
0.656142
0.169409
0.800319
0.277821
0.892745
0.222284
0.315924
0.379635
0.0096137
0.401776
0.0432043
0.428391
0.0460714
0.486611
0.101501
0.524023
0.0766559
0.624124
0.147228
0.677522
0.116011
0.795336
0.160007
0.884214
0.133406
0.20421
0.43975
0.00450507
0.462222
0.0207323
0.484418
0.0238756
0.538602
0.047317
0.573397
0.0418616
0.654291
0.0663339
0.710607
0.0596948
0.798437
0.0721768
0.870454
0.0613887
0.10383
0.512001
0.532733
0.556609
0.603926
0.645787
0.712121
0.771816
0.843993
0.905381
0.0720501
0.052142
-0.0533898
0.0739018
0.156548
-0.1584
0.0755389
0.264005
-0.265642
0.0760733
0.373796
-0.37433
0.0740296
0.486331
-0.484287
0.0691478
0.591105
-0.586224
0.0661724
0.72449
-0.721514
0.064838
0.97147
-0.970135
0.0639895
1.38132
-1.38047
2.00767