/*--------------------------------*- C++ -*----------------------------------*\
| =========                 |                                                 |
| \\      /  F ield         | OpenFOAM: The Open Source CFD Toolbox           |
|  \\    /   O peration     | Version:  v1912                                 |
|   \\  /    A nd           | Website:  www.openfoam.com                      |
|    \\/     M anipulation  |                                                 |
\*---------------------------------------------------------------------------*/
FoamFile
{
    version     2.0;
    format      ascii;
    class       volScalarField;
    location    "16";
    object      p;
}
// * * * * * * * * * * * * * * * * * * * * * * * * * * * * * * * * * * * * * //

dimensions      [0 2 -2 0 0 0 0];


internalField   nonuniform List<scalar> 
9600
(
-40.8195
-35.5161
-32.2515
-29.4773
-26.9463
-24.6644
-22.6019
-20.7298
-19.0292
-17.485
-16.0836
-14.8119
-13.6578
-12.6098
-11.6575
-10.7909
-10.0015
-9.28091
-8.62153
-8.02135
-41.5003
-36.1823
-32.8857
-30.0731
-27.5015
-25.18
-23.0805
-21.1747
-19.4441
-17.8734
-16.4486
-15.1566
-13.9847
-12.9211
-11.9548
-11.0759
-10.2754
-9.54454
-8.87544
-8.26729
-42.1837
-36.8454
-33.5152
-30.6641
-28.0517
-25.6906
-23.5541
-21.6148
-19.8542
-18.2573
-16.8095
-15.4974
-14.3079
-13.2289
-12.249
-11.3579
-10.5463
-9.80533
-9.12656
-8.51062
-42.8664
-37.5051
-34.14
-31.2495
-28.5962
-26.1952
-24.0219
-22.0492
-20.259
-18.636
-17.1656
-15.8337
-14.6269
-13.5327
-12.5394
-11.6363
-10.8139
-10.0628
-9.3745
-8.75102
-43.5457
-38.1599
-34.7589
-31.8286
-29.134
-26.6932
-24.4829
-22.4771
-20.6575
-19.0089
-17.5161
-16.1648
-14.9411
-13.832
-12.8256
-11.9107
-11.0777
-10.3167
-9.61894
-8.98824
-44.2198
-38.8086
-35.3711
-32.4003
-29.6641
-27.1834
-24.9364
-22.8976
-21.0491
-19.3752
-17.8605
-16.4901
-15.2499
-14.1263
-13.107
-12.1806
-11.3372
-10.5665
-9.85956
-9.22201
-44.8869
-39.4498
-35.9753
-32.9637
-30.1857
-27.6651
-25.3816
-23.3102
-21.433
-19.7342
-18.198
-16.809
-15.5526
-14.4148
-13.383
-12.4456
-11.5921
-10.812
-10.096
-9.45208
-45.5456
-40.0824
-36.5706
-33.5176
-30.6978
-28.1374
-25.8175
-23.7138
-21.8084
-20.0852
-18.5279
-17.1208
-15.8486
-14.6971
-13.6532
-12.705
-11.8418
-11.0526
-10.328
-9.67815
-46.1948
-40.705
-37.1557
-34.0612
-31.1994
-28.5993
-26.2434
-24.1077
-22.1746
-20.4274
-18.8496
-17.4248
-16.1373
-14.9725
-13.917
-12.9584
-12.0859
-11.2879
-10.5551
-9.89989
-46.8333
-41.3168
-37.7297
-34.5934
-31.6897
-29.05
-26.6583
-24.4912
-22.5308
-20.7601
-19.1622
-17.7202
-16.4179
-15.2403
-14.1735
-13.2051
-12.3237
-11.5174
-10.7768
-10.1169
-47.4601
-41.9166
-38.2915
-35.1133
-32.1676
-29.4886
-27.0615
-24.8634
-22.8761
-21.0826
-19.4651
-18.0064
-16.6897
-15.4998
-14.4222
-13.4443
-12.5545
-11.7403
-10.9924
-10.3285
-48.0744
-42.5035
-38.8404
-35.6201
-32.6324
-29.9143
-27.4522
-25.2234
-23.2099
-21.3939
-19.7573
-18.2824
-16.9519
-15.7499
-14.662
-13.6752
-12.7774
-11.956
-11.2013
-10.5339
-48.6755
-43.0768
-39.3753
-36.1128
-33.0833
-30.3264
-27.8296
-25.5707
-23.5313
-21.6933
-20.0382
-18.5474
-17.2034
-15.9899
-14.8921
-13.8967
-12.9916
-12.1634
-11.4025
-10.7325
-49.2629
-43.6357
-39.8957
-36.5908
-33.5196
-30.7241
-28.193
-25.9044
-23.8396
-21.9801
-20.3067
-18.8004
-17.4433
-16.2186
-15.1112
-14.1077
-13.1956
-12.3612
-11.595
-10.9236
-49.8362
-44.1794
-40.4006
-37.0533
-33.9405
-31.1067
-28.5419
-26.224
-24.1343
-22.2536
-20.5623
-19.0408
-17.6707
-16.4349
-15.318
-14.3065
-13.3877
-12.5475
-11.7766
-11.1052
-50.3948
-44.7073
-40.8894
-37.4998
-34.3455
-31.4738
-28.8755
-26.5289
-24.4147
-22.5132
-20.8042
-19.2676
-17.8846
-16.6377
-15.5113
-14.4917
-13.5661
-12.7202
-11.9448
-11.2724
-50.9401
-45.2192
-41.3616
-37.9296
-34.7339
-31.8247
-29.1935
-26.8186
-24.6803
-22.7584
-21.0319
-19.4803
-18.0843
-16.8262
-15.6902
-14.6625
-13.7304
-12.8792
-12.0985
-11.4222
-51.4766
-45.7163
-41.8162
-38.3414
-35.1049
-32.1587
-29.4953
-27.0927
-24.9309
-22.9888
-21.2449
-19.6781
-18.2687
-16.9987
-15.8525
-14.8165
-13.8782
-13.0218
-12.2366
-11.5645
-52.0062
-46.1981
-42.2518
-38.7343
-35.458
-32.4758
-29.7811
-27.3517
-25.1669
-23.205
-21.4437
-19.8612
-18.4374
-17.1541
-15.9953
-14.9479
-13.9988
-13.1325
-12.3458
-11.7027
-52.5071
-46.657
-42.6673
-39.109
-35.7944
-32.7777
-30.0526
-27.5972
-25.39
-23.4087
-21.6302
-20.0319
-18.5931
-17.2948
-16.1205
-15.0556
-14.0853
-13.196
-12.3996
-11.7617
-57.5032
-57.4743
-57.4098
-57.3245
-57.2175
-57.0861
-56.93
-56.7496
-56.5455
-56.3181
-56.0681
-55.796
-55.5024
-55.1881
-54.8539
-54.5005
-54.1292
-53.7417
-53.3409
-52.9299
-51.2098
-51.2082
-51.1756
-51.1177
-51.0351
-50.9272
-50.7943
-50.637
-50.4561
-50.2522
-50.0258
-49.7776
-49.5083
-49.2183
-48.9085
-48.5794
-48.2318
-47.8662
-47.4832
-47.0808
-46.6552
-46.6762
-46.6698
-46.6368
-46.5783
-46.4952
-46.388
-46.2575
-46.1041
-45.9286
-45.7314
-45.5131
-45.2744
-45.0157
-44.7376
-44.4405
-44.1248
-43.7904
-43.4373
-43.0635
-42.5277
-42.5649
-42.5774
-42.5646
-42.5275
-42.4671
-42.384
-42.2788
-42.152
-42.0041
-41.8357
-41.6474
-41.4395
-41.2126
-40.9672
-40.7034
-40.4216
-40.1217
-39.8034
-39.466
-38.7262
-38.7722
-38.7961
-38.797
-38.7754
-38.732
-38.6674
-38.5823
-38.4771
-38.3522
-38.2082
-38.0455
-37.8647
-37.6662
-37.4503
-37.2173
-36.9673
-36.7003
-36.4162
-36.1145
-35.3219
-35.3716
-35.4012
-35.4101
-35.3981
-35.366
-35.3143
-35.2436
-35.1544
-35.047
-34.922
-34.7798
-34.621
-34.4458
-34.2548
-34.048
-33.8257
-33.5878
-33.3342
-33.0645
-32.3019
-32.3515
-32.3828
-32.395
-32.388
-32.3625
-32.3189
-32.2579
-32.1797
-32.0848
-31.9739
-31.8472
-31.7053
-31.5487
-31.3776
-31.1923
-30.9931
-30.7798
-30.5524
-30.3103
-29.6283
-29.6753
-29.7054
-29.7178
-29.7125
-29.6901
-29.6511
-29.5959
-29.5249
-29.4387
-29.3376
-29.2223
-29.0932
-28.9507
-28.7952
-28.6272
-28.4467
-28.2539
-28.0484
-27.8298
-27.2615
-27.3044
-27.3315
-27.3422
-27.3365
-27.315
-27.278
-27.226
-27.1595
-27.0789
-26.9847
-26.8775
-26.7577
-26.626
-26.4827
-26.3283
-26.163
-25.9869
-25.7998
-25.6012
-25.1623
-25.2004
-25.2237
-25.2317
-25.2244
-25.2023
-25.1659
-25.1155
-25.0515
-24.9745
-24.885
-24.7835
-24.6706
-24.547
-24.4131
-24.2695
-24.1165
-23.9544
-23.7828
-23.6014
-23.2944
-23.3277
-23.3469
-23.3517
-23.3423
-23.3189
-23.2821
-23.2321
-23.1696
-23.0948
-23.0085
-22.9111
-22.8033
-22.6858
-22.5592
-22.4242
-22.2814
-22.131
-21.9729
-21.8064
-21.6258
-21.6543
-21.6695
-21.6712
-21.6593
-21.6344
-21.5967
-21.5467
-21.4848
-21.4115
-21.3273
-21.2329
-21.1289
-21.0161
-20.8952
-20.7672
-20.6328
-20.4923
-20.346
-20.1931
-20.1286
-20.1528
-20.1643
-20.1629
-20.1487
-20.1221
-20.0835
-20.0331
-19.9715
-19.8991
-19.8165
-19.7242
-19.6231
-19.5139
-19.3976
-19.2752
-19.1477
-19.0159
-18.8802
-18.7399
-18.7796
-18.7999
-18.808
-18.8038
-18.7875
-18.7593
-18.7197
-18.669
-18.6075
-18.5357
-18.4542
-18.3636
-18.2646
-18.1582
-18.0454
-17.9274
-17.8057
-17.6814
-17.5555
-17.4272
-17.5592
-17.5759
-17.581
-17.5744
-17.5562
-17.5267
-17.4862
-17.435
-17.3736
-17.3023
-17.2217
-17.1324
-17.035
-16.9307
-16.8205
-16.7059
-16.5888
-16.4708
-16.354
-16.2375
-16.451
-16.4646
-16.467
-16.4582
-16.4383
-16.4076
-16.3663
-16.3149
-16.2535
-16.1826
-16.1027
-16.0144
-15.9183
-15.8155
-15.7071
-15.5948
-15.4811
-15.3679
-15.2594
-15.1544
-15.4413
-15.4521
-15.4522
-15.4415
-15.4201
-15.3883
-15.3464
-15.2946
-15.2332
-15.1627
-15.0833
-14.9956
-14.9004
-14.7984
-14.691
-14.5798
-14.4679
-14.3578
-14.2561
-14.1614
-14.5183
-14.5269
-14.5251
-14.513
-14.4905
-14.458
-14.4156
-14.3637
-14.3025
-14.2323
-14.1534
-14.0663
-13.9716
-13.8701
-13.7628
-13.6515
-13.5396
-13.4306
-13.3346
-13.2475
-13.671
-13.6783
-13.6756
-13.6629
-13.6403
-13.608
-13.5663
-13.5153
-13.4552
-13.3864
-13.309
-13.2236
-13.1305
-13.0303
-12.924
-12.8129
-12.7002
-12.5909
-12.5007
-12.4256
-12.894
-12.8982
-12.893
-12.8785
-12.8548
-12.822
-12.7804
-12.7301
-12.6712
-12.6041
-12.5288
-12.4458
-12.3552
-12.2575
-12.1531
-12.0429
-11.9287
-11.8153
-11.7193
-11.666
-51.6538
-52.1849
-52.6811
-53.1646
-53.6325
-54.0786
-54.5003
-54.8965
-55.2663
-55.6088
-55.9232
-56.2092
-56.4664
-56.6946
-56.8937
-57.0631
-57.2034
-57.3159
-57.4026
-57.4654
-45.2397
-45.7768
-46.2877
-46.7785
-47.2485
-47.6955
-48.1179
-48.5152
-48.8868
-49.232
-49.5501
-49.8408
-50.1041
-50.3403
-50.5499
-50.7308
-50.8831
-51.0071
-51.1036
-51.1714
-40.6889
-41.2149
-41.7191
-42.2019
-42.6631
-43.1021
-43.5182
-43.9106
-44.2789
-44.6227
-44.9406
-45.2325
-45.4985
-45.7378
-45.9492
-46.1344
-46.2934
-46.4258
-46.5312
-46.6081
-36.6623
-37.1651
-37.6499
-38.1148
-38.5593
-38.9832
-39.3858
-39.7667
-40.1251
-40.4602
-40.7716
-41.058
-41.3206
-41.5589
-41.7724
-41.9614
-42.1257
-42.265
-42.3786
-42.4663
-33.0768
-33.552
-34.0115
-34.4532
-34.8758
-35.279
-35.6625
-36.0256
-36.3674
-36.6876
-36.9865
-37.2642
-37.5189
-37.7508
-37.9599
-38.1462
-38.3092
-38.4489
-38.5652
-38.6577
-29.961
-30.4073
-30.8396
-31.2555
-31.6538
-32.034
-32.3957
-32.7384
-33.0616
-33.3649
-33.6483
-33.9113
-34.153
-34.3735
-34.5736
-34.7526
-34.9099
-35.0454
-35.1594
-35.2517
-27.2627
-27.6809
-28.0861
-28.4761
-28.8496
-29.2063
-29.5455
-29.867
-30.1702
-30.4548
-30.7206
-30.9672
-31.1944
-31.4019
-31.589
-31.7583
-31.9074
-32.0362
-32.1448
-32.2335
-24.9171
-25.3089
-25.6885
-26.0538
-26.4036
-26.7375
-27.0548
-27.3553
-27.6386
-27.9043
-28.1523
-28.3824
-28.5944
-28.7882
-28.9637
-29.1193
-29.2587
-29.3793
-29.4809
-29.564
-22.8674
-23.2351
-23.5912
-23.9337
-24.2616
-24.5741
-24.8708
-25.1515
-25.4158
-25.6634
-25.8943
-26.1083
-26.3053
-26.4852
-26.6479
-26.7935
-26.9206
-27.032
-27.1259
-27.2025
-21.0652
-21.4111
-21.7461
-22.0681
-22.3758
-22.6688
-22.9465
-23.2089
-23.4555
-23.6863
-23.9011
-24.1
-24.2827
-24.4494
-24.5998
-24.734
-24.8519
-24.9534
-25.0393
-25.1091
-19.47
-19.7967
-20.1128
-20.4163
-20.706
-20.9812
-21.2416
-21.4871
-21.7175
-21.9328
-22.1329
-22.3178
-22.4874
-22.6418
-22.7808
-22.9045
-23.0129
-23.1058
-23.1839
-23.2469
-18.049
-18.3586
-18.6581
-18.9453
-19.2187
-19.4778
-19.7225
-19.9527
-20.1683
-20.3694
-20.556
-20.7281
-20.8857
-21.0288
-21.1575
-21.2716
-21.3712
-21.4564
-21.527
-21.5837
-16.7756
-17.0702
-17.3554
-17.6281
-17.8869
-18.1313
-18.3617
-18.5778
-18.7799
-18.9681
-19.1424
-19.3028
-19.4495
-19.5825
-19.7016
-19.807
-19.8987
-19.9765
-20.0405
-20.0915
-15.6284
-15.9099
-16.1828
-16.4429
-16.6883
-16.9194
-17.1366
-17.3398
-17.5295
-17.7058
-17.8689
-18.0188
-18.1556
-18.2793
-18.3899
-18.4874
-18.5719
-18.6433
-18.7019
-18.7471
-14.5903
-14.8606
-15.1234
-15.372
-15.6052
-15.824
-16.0288
-16.2202
-16.3984
-16.5637
-16.7165
-16.8568
-16.9846
-17.0999
-17.2029
-17.2933
-17.3713
-17.4368
-17.49
-17.5307
-13.6465
-13.9092
-14.1639
-14.4019
-14.6235
-14.8305
-15.0238
-15.2039
-15.3713
-15.5266
-15.6699
-15.8013
-15.9209
-16.0287
-16.1246
-16.2087
-16.2808
-16.3411
-16.3895
-16.426
-12.7797
-13.0417
-13.2921
-13.5199
-13.7302
-13.926
-14.1083
-14.2777
-14.4352
-14.5811
-14.7157
-14.8391
-14.9512
-15.0522
-15.1418
-15.2201
-15.2871
-15.3426
-15.3868
-15.4195
-11.9693
-12.2361
-12.4884
-12.7079
-12.9074
-13.0928
-13.265
-13.425
-13.5736
-13.7114
-13.8386
-13.9551
-14.0611
-14.1563
-14.2407
-14.3143
-14.3769
-14.4287
-14.4695
-14.4996
-11.2252
-11.4855
-11.74
-11.9554
-12.1459
-12.3212
-12.4841
-12.6356
-12.7764
-12.907
-13.0278
-13.1385
-13.2391
-13.3296
-13.4097
-13.4795
-13.5388
-13.5876
-13.6259
-13.6538
-10.6659
-10.9085
-11.129
-11.3353
-11.5151
-11.6743
-11.8222
-11.9607
-12.0893
-12.2085
-12.3186
-12.4195
-12.5109
-12.5929
-12.6652
-12.7278
-12.7806
-12.8236
-12.8567
-12.8799
-5.58091
-6.05123
-6.56926
-7.13244
-7.74745
-8.42192
-9.16379
-9.98278
-10.8913
-11.9051
-13.0445
-14.3362
-15.8147
-17.5246
-19.5242
-21.8897
-24.699
-27.9726
-31.9271
-37.887
-5.83463
-6.31694
-6.84405
-7.41773
-8.0448
-8.73258
-9.48915
-10.3245
-11.2512
-12.2854
-13.4477
-14.7651
-16.2725
-18.0151
-20.0511
-22.4566
-25.3087
-28.6249
-32.6145
-38.5929
-6.09003
-6.58435
-7.12067
-7.70508
-8.34445
-9.04579
-9.81732
-10.6693
-11.6145
-12.6694
-13.8549
-15.1984
-16.7351
-18.5105
-20.5832
-23.0288
-25.9233
-29.281
-33.3039
-39.2965
-6.34663
-6.85292
-7.39854
-7.9939
-8.64577
-9.36088
-10.1476
-11.0164
-11.9803
-13.0561
-14.2651
-15.6348
-17.201
-19.0095
-21.1189
-23.6046
-26.5412
-29.9405
-33.9977
-40.0092
-6.604
-7.12221
-7.67721
-8.28372
-8.94831
-9.67737
-10.4794
-11.3652
-12.3481
-13.445
-14.6775
-16.0736
-17.6695
-19.5112
-21.6574
-24.1831
-27.1619
-30.6027
-34.6951
-40.7287
-6.86179
-7.39182
-7.95629
-8.57415
-9.25165
-9.99483
-10.8124
-11.7153
-12.7173
-13.8354
-15.0916
-16.5144
-18.14
-20.015
-22.198
-24.7638
-27.7847
-31.2668
-35.3941
-41.4509
-7.1197
-7.66142
-8.23541
-8.86482
-9.5554
-10.3128
-11.146
-12.0663
-13.0874
-14.2268
-15.5069
-16.9564
-18.6119
-20.5202
-22.7401
-25.3459
-28.4086
-31.9318
-36.0933
-42.1737
-7.37748
-7.93072
-8.51427
-9.15539
-9.85919
-10.631
-11.4799
-12.4175
-13.4579
-14.6188
-15.9228
-17.399
-19.0844
-21.0261
-23.2828
-25.9285
-29.0328
-32.5966
-36.7916
-42.8955
-7.635
-8.19953
-8.79262
-9.44559
-10.1627
-10.949
-11.8137
-12.7687
-13.8283
-15.0107
-16.3386
-17.8415
-19.5569
-21.5318
-23.8253
-26.5106
-29.6562
-33.2601
-37.488
-43.6152
-7.89219
-8.46773
-9.07032
-9.73522
-10.4657
-11.2665
-12.147
-13.1193
-14.1982
-15.402
-16.7538
-18.2834
-20.0285
-22.0367
-24.3666
-27.0913
-30.2778
-33.9213
-38.1811
-44.3311
-8.14917
-8.73535
-9.34728
-10.0241
-10.768
-11.5831
-12.4793
-13.469
-14.567
-15.7921
-17.1676
-18.7238
-20.4986
-22.5398
-24.906
-27.6697
-30.8965
-34.579
-38.8697
-45.0421
-8.4062
-9.00252
-9.62354
-10.3123
-11.0694
-11.8987
-12.8104
-13.8172
-14.9343
-16.1804
-17.5796
-19.1621
-20.9664
-23.0403
-25.4424
-28.2447
-31.5112
-35.2321
-39.5526
-45.7466
-8.66371
-9.26949
-9.89915
-10.5995
-11.3696
-12.2129
-13.1399
-14.1636
-15.2993
-16.5664
-17.9889
-19.5975
-21.431
-23.5373
-25.975
-28.8152
-32.1209
-35.8793
-40.2286
-46.4435
-8.92234
-9.53659
-10.1742
-10.8858
-11.6685
-12.5254
-13.4673
-14.5075
-15.6617
-16.9493
-18.3948
-20.0292
-21.8916
-24.0298
-26.5026
-29.3803
-32.7244
-36.5196
-40.8963
-47.1315
-9.18274
-9.80402
-10.4486
-11.1707
-11.9655
-12.8355
-13.7919
-14.8482
-16.0205
-17.3283
-18.7965
-20.4564
-22.3471
-24.517
-27.0243
-29.9388
-33.3205
-37.1517
-41.5548
-47.8096
-9.44561
-10.0718
-10.7219
-11.4537
-12.2599
-13.1425
-14.1129
-15.185
-16.375
-17.7026
-19.1931
-20.878
-22.7968
-24.9977
-27.5389
-30.4894
-33.908
-37.7744
-42.2029
-48.4768
-9.7105
-10.3386
-10.9924
-11.7332
-12.5504
-13.4453
-14.4294
-15.5169
-16.7242
-18.0714
-19.5837
-21.2932
-23.2394
-25.4707
-28.0452
-31.031
-34.4856
-38.3865
-42.8398
-49.1327
-9.97607
-10.6014
-11.2576
-12.0074
-12.8358
-13.7427
-14.7403
-15.843
-17.0672
-18.4335
-19.9673
-21.7008
-23.6739
-25.9351
-28.542
-31.5622
-35.0517
-38.9863
-43.4643
-49.7772
-10.2342
-10.8517
-11.5112
-12.2728
-13.1137
-14.0331
-15.0442
-16.1619
-17.4029
-18.7879
-20.3428
-22.0998
-24.0992
-26.3895
-29.028
-32.0814
-35.6047
-39.572
-44.0753
-50.412
-10.465
-11.0701
-11.7492
-12.5305
-13.3848
-14.3163
-15.3407
-16.4732
-17.7306
-19.1339
-20.7092
-22.4893
-24.5143
-26.8328
-29.5018
-32.5872
-36.1425
-40.1407
-44.6685
-51.0386
-1.50432
-1.76333
-2.11738
-2.51452
-2.94446
-3.41312
-3.92718
-4.493
-5.11852
-5.81437
-6.59479
-7.4789
-8.49267
-9.6715
-11.0649
-12.7449
-14.7973
-17.2788
-20.4856
-25.9008
-1.64598
-1.91992
-2.29006
-2.69144
-3.12351
-3.59622
-4.11584
-4.68832
-5.32175
-6.027
-6.81855
-7.71583
-8.7452
-9.94255
-11.3579
-13.0637
-15.1458
-17.6591
-20.895
-26.3212
-1.77949
-2.07616
-2.45799
-2.86626
-3.30488
-3.78472
-4.31192
-4.89265
-5.53533
-6.25117
-7.05496
-7.96649
-9.01256
-10.2295
-11.668
-13.4005
-15.5129
-18.058
-21.322
-26.754
-1.93314
-2.23979
-2.62882
-3.04474
-3.49142
-3.97957
-4.51547
-5.10556
-5.75859
-6.48607
-7.30311
-8.22989
-9.29365
-10.5312
-11.9937
-13.7539
-15.8974
-18.4756
-21.771
-27.2177
-2.09729
-2.41027
-2.80614
-3.22992
-3.68492
-4.1818
-4.72703
-5.32727
-5.99149
-6.73149
-7.56268
-8.50564
-9.58802
-10.8472
-12.3346
-14.1236
-16.2994
-18.912
-22.2413
-27.7093
-2.2666
-2.58727
-2.99041
-3.42217
-3.88573
-4.39175
-4.94685
-5.55788
-6.23403
-6.98732
-7.8335
-8.7935
-9.89544
-11.1772
-12.6906
-14.5094
-16.7187
-19.367
-22.7314
-28.2235
-2.44261
-2.77173
-3.18204
-3.62175
-4.09409
-4.60963
-5.17508
-5.79746
-6.48615
-7.25344
-8.11537
-9.09325
-10.2156
-11.5208
-13.0614
-14.9111
-17.1549
-19.8399
-23.2401
-28.7581
-2.62673
-2.96423
-3.38145
-3.82907
-4.31035
-4.83567
-5.41184
-6.04602
-6.74781
-7.52971
-8.40809
-9.40462
-10.5483
-11.8779
-13.4464
-15.3281
-17.6075
-20.3301
-23.767
-29.3121
-2.81881
-3.16469
-3.58877
-4.04431
-4.53463
-5.06996
-5.65715
-6.30354
-7.0189
-7.81599
-8.71146
-9.72734
-10.8931
-12.248
-13.8454
-15.76
-18.076
-20.8372
-24.3114
-29.8845
-3.01836
-3.37287
-3.80385
-4.26737
-4.76688
-5.31242
-5.91093
-6.5699
-7.29928
-8.11207
-9.02522
-10.0611
-11.2497
-12.6307
-14.2579
-16.2063
-18.5598
-21.3605
-24.8726
-30.4743
-3.22498
-3.58847
-4.02645
-4.49804
-5.0069
-5.56288
-6.17299
-6.84488
-7.58871
-8.41769
-9.34908
-10.4057
-11.6177
-13.0255
-14.6834
-16.6665
-19.0583
-21.8993
-25.4498
-31.0805
-3.43834
-3.81112
-4.25624
-4.73603
-5.25442
-5.82107
-6.44307
-7.12822
-7.88689
-8.73253
-9.6827
-10.7605
-11.9968
-13.4322
-15.1215
-17.14
-19.571
-22.4529
-26.0423
-31.7022
-3.658
-4.04041
-4.49281
-4.98097
-5.5091
-6.08666
-6.72082
-7.41957
-8.19347
-9.05622
-10.0257
-11.1254
-12.3864
-13.8501
-15.5716
-17.6263
-20.0971
-23.0207
-26.6492
-32.3385
-3.88347
-4.27584
-4.73571
-5.23242
-5.77051
-6.35924
-7.00585
-7.71854
-8.50804
-9.38833
-10.3776
-11.4996
-12.7861
-14.2787
-16.033
-18.1247
-20.6361
-23.6018
-27.2699
-32.9887
-4.11423
-4.51689
-4.98444
-5.48992
-6.0382
-6.63837
-7.29773
-8.02466
-8.83015
-9.7284
-10.7379
-11.8828
-13.1953
-14.7175
-16.5053
-18.6346
-21.1872
-24.1956
-27.9035
-33.652
-4.34977
-4.76305
-5.23848
-5.75294
-6.31169
-6.92355
-7.59595
-8.33747
-9.15931
-10.0759
-11.1061
-12.2745
-13.6135
-15.1658
-16.9877
-19.1553
-21.7496
-24.8013
-28.5494
-34.3276
-4.58955
-5.01375
-5.49728
-6.02098
-6.59044
-7.21429
-7.90002
-8.65644
-9.49497
-10.4303
-11.4816
-12.6739
-14.0399
-15.6229
-17.4796
-19.6859
-22.3225
-25.4181
-29.2069
-35.0151
-4.83307
-5.26845
-5.7603
-6.29349
-6.87394
-7.51004
-8.2094
-8.98103
-9.8366
-10.7911
-11.8639
-13.0804
-14.4741
-16.0882
-17.9801
-20.2257
-22.9051
-26.0449
-29.8751
-35.7144
-5.07979
-5.52661
-6.02699
-6.56992
-7.16164
-7.81027
-8.52353
-9.31067
-10.1836
-11.1575
-12.2523
-13.4935
-14.9151
-16.5608
-18.4883
-20.7737
-23.4963
-26.6806
-30.5531
-36.426
-5.32924
-5.78773
-6.29684
-6.84978
-7.45302
-8.11445
-8.84189
-9.64484
-10.5354
-11.5292
-12.6461
-13.9125
-15.3623
-17.0401
-19.0036
-21.329
-24.095
-27.3239
-31.2382
-37.1509
-1.27117
-1.08199
-0.943461
-0.821417
-0.715376
-0.622797
-0.5426
-0.474013
-0.416548
-0.36985
-0.333647
-0.307718
-0.291887
-0.286012
-0.289844
-0.30295
-0.325385
-0.358014
-0.399687
-0.450831
-1.60463
-1.43758
-1.29529
-1.16856
-1.05822
-0.961714
-0.878076
-0.806506
-0.746495
-0.697664
-0.659725
-0.632441
-0.615622
-0.609107
-0.612686
-0.626068
-0.649168
-0.682151
-0.725031
-0.777475
-1.94524
-1.78589
-1.64389
-1.51629
-1.40416
-1.30584
-1.2206
-1.14775
-1.0868
-1.0374
-0.999253
-0.972121
-0.955807
-0.950133
-0.954905
-0.969916
-0.995091
-1.03044
-1.07586
-1.13116
-2.33878
-2.17839
-2.03394
-1.90385
-1.78861
-1.68725
-1.59924
-1.52401
-1.46113
-1.41026
-1.3711
-1.34342
-1.32701
-1.32167
-1.32722
-1.34348
-1.37036
-1.40778
-1.45559
-1.51366
-2.76998
-2.60797
-2.46035
-2.32697
-2.20815
-2.10332
-2.01212
-1.9341
-1.8689
-1.81619
-1.77569
-1.74718
-1.73042
-1.72524
-1.73143
-1.74882
-1.7773
-1.81674
-1.86698
-1.92792
-3.23741
-3.07313
-2.92223
-2.78531
-2.66276
-2.55435
-2.45985
-2.37892
-2.31126
-2.2566
-2.21467
-2.18524
-2.16809
-2.16304
-2.16989
-2.18847
-2.21863
-2.26022
-2.31306
-2.37708
-3.74776
-3.57983
-3.42501
-3.28407
-3.15746
-3.04516
-2.94707
-2.86298
-2.79263
-2.73579
-2.69222
-2.66172
-2.64406
-2.63906
-2.64652
-2.66626
-2.69813
-2.74196
-2.79755
-2.86484
-4.30822
-4.13528
-3.97557
-3.82985
-3.69857
-3.58188
-3.47975
-3.39206
-3.31862
-3.25925
-3.21373
-3.18187
-3.16346
-3.15832
-3.16625
-3.18707
-3.22061
-3.26668
-3.32509
-3.39578
-4.92693
-4.74764
-4.58193
-4.43046
-4.29372
-4.17192
-4.06511
-3.97323
-3.89617
-3.83377
-3.78586
-3.75225
-3.73274
-3.72717
-3.73533
-3.75704
-3.79213
-3.84038
-3.90161
-3.97576
-5.61442
-5.42733
-5.2543
-5.09593
-4.9527
-4.82486
-4.71252
-4.61569
-4.53429
-4.4682
-4.41729
-4.38137
-4.36029
-4.35385
-4.36187
-4.38417
-4.42056
-4.47082
-4.53476
-4.61235
-6.38473
-6.18816
-6.00627
-5.83957
-5.68854
-5.55347
-5.4345
-5.33169
-5.245
-5.17434
-5.11961
-5.08064
-5.05729
-5.04937
-5.05671
-5.07912
-5.11641
-5.16835
-5.23473
-5.31558
-7.2567
-7.04868
-6.85605
-6.67927
-6.51882
-6.37499
-6.24797
-6.13784
-6.04461
-5.96821
-5.90856
-5.86553
-5.83897
-5.82871
-5.83457
-5.85639
-5.89394
-5.94699
-6.01533
-6.09904
-8.25594
-8.0341
-7.82845
-7.63942
-7.4675
-7.31298
-7.17608
-7.05691
-6.95551
-6.87183
-6.80581
-6.75735
-6.72629
-6.71249
-6.71578
-6.73596
-6.77284
-6.82614
-6.89567
-6.98154
-9.41738
-9.17884
-8.95741
-8.75346
-8.56751
-8.39988
-8.25079
-8.12037
-8.00869
-7.91573
-7.84145
-7.78574
-7.74847
-7.72951
-7.72868
-7.74581
-7.78066
-7.83297
-7.9025
-7.98944
-10.79
-10.5313
-10.2907
-10.0686
-9.86548
-9.68171
-9.51753
-9.3731
-9.24848
-9.14368
-9.05867
-8.99336
-8.94763
-8.92134
-8.91434
-8.92644
-8.9574
-9.00692
-9.07475
-9.16112
-12.4451
-12.1622
-11.8984
-11.6542
-11.4302
-11.2266
-11.0439
-10.882
-10.7412
-10.6214
-10.5226
-10.4447
-10.3876
-10.3512
-10.3354
-10.3398
-10.3644
-10.4087
-10.4725
-10.5561
-14.4683
-14.1567
-13.8655
-13.595
-13.346
-13.1188
-12.9137
-12.7308
-12.5702
-12.4319
-12.3159
-12.2222
-12.1505
-12.1009
-12.0732
-12.0671
-12.0825
-12.1191
-12.1765
-12.2548
-16.9161
-16.5723
-16.2498
-15.9495
-15.6721
-15.418
-15.1873
-14.9803
-14.797
-14.6373
-14.5013
-14.389
-14.3001
-14.2348
-14.1927
-14.1738
-14.1779
-14.2048
-14.2541
-14.3248
-20.0881
-19.7079
-19.3497
-19.0159
-18.7071
-18.4231
-18.1641
-17.9299
-17.7204
-17.5358
-17.376
-17.2408
-17.1304
-17.0445
-16.983
-16.9458
-16.9327
-16.9439
-16.9792
-17.0363
-25.4478
-25.0252
-24.6351
-24.2746
-23.9415
-23.6348
-23.354
-23.099
-22.8697
-22.6661
-22.4883
-22.3362
-22.21
-22.1095
-22.035
-21.9864
-21.9643
-21.971
-22.0078
-22.064
-0.511023
-0.579935
-0.657507
-0.743614
-0.83813
-0.940902
-1.05176
-1.17051
-1.29691
-1.43066
-1.5714
-1.71861
-1.87155
-2.02903
-2.18951
-2.35079
-2.50845
-2.65294
-2.76884
-2.87945
-0.839348
-0.910289
-0.990201
-1.07893
-1.17633
-1.28223
-1.39644
-1.51875
-1.64888
-1.78652
-1.93125
-2.08253
-2.23962
-2.40139
-2.5663
-2.73274
-2.89896
-3.05728
-3.19209
-3.34288
-1.19625
-1.27073
-1.35452
-1.44743
-1.5493
-1.65994
-1.77916
-1.9067
-2.04228
-2.18557
-2.33611
-2.49337
-2.65662
-2.82486
-2.99677
-3.17118
-3.34715
-3.52027
-3.68429
-3.86772
-1.58192
-1.65996
-1.74767
-1.84485
-1.95133
-2.0669
-2.19134
-2.32439
-2.46573
-2.61502
-2.77179
-2.93551
-3.10549
-3.28082
-3.46047
-3.64357
-3.82931
-4.01533
-4.20169
-4.40803
-1.99948
-2.08124
-2.17306
-2.27476
-2.38613
-2.50694
-2.63697
-2.77592
-2.92349
-3.07929
-3.24288
-3.41373
-3.59119
-3.7745
-3.96284
-4.1556
-4.35217
-4.55141
-4.7557
-4.9779
-2.45221
-2.53798
-2.63427
-2.74086
-2.85754
-2.98407
-3.1202
-3.26565
-3.42007
-3.5831
-3.75429
-3.93314
-4.11906
-4.31141
-4.50957
-4.71312
-4.92166
-5.13489
-5.35541
-5.59101
-2.94378
-3.03384
-3.13492
-3.24679
-3.36921
-3.50196
-3.64476
-3.79731
-3.95929
-4.13031
-4.30995
-4.49774
-4.69316
-4.89566
-5.10479
-5.32022
-5.54176
-5.76954
-6.00573
-6.25478
-3.47873
-3.57332
-3.6795
-3.797
-3.92561
-4.06506
-4.21508
-4.37538
-4.54561
-4.72542
-4.9144
-5.1121
-5.31807
-5.53185
-5.75307
-5.9815
-6.21703
-6.45999
-6.71191
-6.97533
-4.0628
-4.16216
-4.27368
-4.39715
-4.53233
-4.67895
-4.83674
-5.0054
-5.18461
-5.374
-5.57319
-5.78178
-5.99935
-6.22551
-6.45995
-6.70249
-6.95306
-7.21195
-7.48018
-7.7592
-4.70356
-4.80774
-4.92481
-5.05447
-5.19654
-5.35073
-5.51677
-5.69438
-5.88321
-6.08294
-6.29319
-6.51359
-6.74376
-6.98337
-7.23213
-7.48986
-7.75652
-8.03228
-8.31773
-8.61374
-5.41086
-5.51978
-5.64251
-5.77849
-5.92761
-6.08965
-6.26432
-6.45133
-6.65035
-6.86106
-7.08311
-7.31616
-7.55986
-7.81388
-8.07797
-8.35196
-8.63574
-8.92936
-9.23311
-9.54756
-6.19811
-6.31156
-6.43945
-6.58204
-6.73817
-6.90811
-7.09159
-7.28829
-7.49789
-7.72008
-7.95452
-8.20089
-8.45886
-8.72813
-9.00844
-9.2996
-9.60147
-9.91395
-10.2371
-10.5714
-7.08379
-7.20131
-7.33415
-7.48198
-7.64548
-7.82319
-8.0154
-8.22182
-8.44214
-8.67604
-8.92319
-9.1833
-9.45604
-9.74113
-10.0383
-10.3474
-10.6681
-11.0003
-11.3439
-11.6992
-8.09385
-8.21445
-8.35148
-8.50452
-8.67348
-8.85876
-9.05942
-9.27534
-9.50599
-9.75132
-10.0111
-10.2849
-10.5726
-10.8738
-11.1882
-11.5156
-11.8557
-12.2082
-12.5729
-12.9501
-9.26614
-9.38827
-9.52799
-9.68496
-9.8589
-10.0496
-10.2576
-10.4831
-10.7227
-10.9786
-11.2503
-11.5375
-11.8399
-12.157
-12.4885
-12.8341
-13.1937
-13.5666
-13.9527
-14.3522
-10.6595
-10.7809
-10.9211
-11.0799
-11.257
-11.4523
-11.665
-11.8947
-12.1439
-12.4105
-12.6935
-12.9933
-13.3096
-13.6414
-13.9888
-14.3517
-14.7299
-15.1228
-15.5298
-15.9512
-12.3535
-12.4714
-12.6095
-12.7674
-12.9452
-13.1425
-13.359
-13.5943
-13.8488
-14.1224
-14.4158
-14.726
-15.0532
-15.3962
-15.7568
-16.1349
-16.53
-16.9413
-17.3678
-17.8095
-14.4147
-14.526
-14.6583
-14.8112
-14.9852
-15.1801
-15.3957
-15.6317
-15.8877
-16.1628
-16.4568
-16.7714
-17.1062
-17.4623
-17.8372
-18.23
-18.6407
-19.0689
-19.5134
-19.9735
-17.1136
-17.21
-17.329
-17.4721
-17.6387
-17.828
-18.0397
-18.2733
-18.5285
-18.8048
-19.1015
-19.4188
-19.7569
-20.1161
-20.496
-20.8961
-21.3162
-21.7572
-22.2188
-22.6961
-22.114
-22.192
-22.2986
-22.4318
-22.5901
-22.7723
-22.9778
-23.2063
-23.4572
-23.7303
-24.0254
-24.3424
-24.6815
-25.0429
-25.4266
-25.8326
-26.2621
-26.7189
-27.2057
-27.7043
-28.1702
-23.1808
-20.4486
-18.2666
-16.3871
-14.7653
-13.3399
-12.0663
-10.9167
-9.87269
-8.9203
-8.04905
-7.25049
-6.51759
-5.84438
-5.22559
-4.6552
-4.12703
-3.64906
-3.24794
-28.6612
-23.679
-20.9367
-18.7362
-16.835
-15.1896
-13.7403
-12.4433
-11.2717
-10.207
-9.23579
-8.34768
-7.53433
-6.78883
-6.10538
-5.47878
-4.90358
-4.37688
-3.91122
-3.51268
-29.1782
-24.1935
-21.4394
-19.2195
-17.2954
-15.6254
-14.1513
-12.8302
-11.6357
-10.5499
-9.55942
-8.65404
-7.82547
-7.06683
-6.37225
-5.73648
-5.15417
-4.62258
-4.15073
-3.73404
-29.7172
-24.7251
-21.9569
-19.7161
-17.7677
-16.0721
-14.5723
-13.2263
-12.0082
-10.9006
-9.89021
-8.96692
-8.12238
-7.34957
-6.64245
-5.99547
-5.4031
-4.86196
-4.37827
-3.94409
-30.2749
-25.273
-22.4888
-20.2258
-18.2518
-16.5293
-15.0027
-13.6308
-12.3885
-11.2583
-10.2275
-9.2856
-8.42437
-7.63658
-6.91593
-6.25659
-5.65276
-5.10048
-4.60416
-4.15505
-30.8495
-25.8365
-23.0344
-20.7479
-18.7468
-16.9962
-15.4419
-14.0433
-12.7759
-11.6226
-10.5705
-9.60954
-8.73102
-7.92761
-7.19277
-6.52042
-5.90454
-5.34084
-4.83243
-4.37042
-31.4401
-26.4158
-23.5921
-21.2816
-19.2522
-17.4723
-15.8892
-14.4631
-13.1699
-11.9928
-10.919
-9.93837
-9.0421
-8.22268
-7.47331
-6.78771
-6.15972
-5.58482
-5.06503
-4.59151
-32.0458
-27.0097
-24.1612
-21.8259
-19.7672
-17.9569
-16.344
-14.8896
-13.5699
-12.3684
-11.2725
-10.2718
-9.35745
-8.52176
-7.75771
-7.05883
-6.41884
-5.83303
-5.30244
-4.81834
-32.6656
-27.6167
-24.7417
-22.38
-20.2909
-18.4492
-16.8057
-15.3222
-13.9753
-12.749
-11.6305
-10.6094
-9.67683
-8.82474
-8.04598
-7.33387
-6.68203
-6.08557
-5.5446
-5.05051
-33.2984
-28.2353
-25.3329
-22.9434
-20.8227
-18.9486
-17.2736
-15.7602
-14.3856
-13.134
-11.9926
-10.951
-9.99993
-9.13139
-8.33791
-7.61264
-6.94909
-6.34217
-5.79108
-5.2874
-33.9431
-28.8646
-25.9339
-23.5151
-21.3617
-19.4542
-17.7469
-16.203
-14.8003
-13.5229
-12.3583
-11.2959
-10.3264
-9.44136
-8.63319
-7.89484
-7.21967
-6.60238
-6.04134
-5.5283
-34.5989
-29.5037
-26.5438
-24.0944
-21.9071
-19.9653
-18.2249
-16.6499
-15.2185
-13.9152
-12.7272
-11.6439
-10.6558
-9.75422
-8.93139
-8.18
-7.49327
-6.86568
-6.29476
-5.77252
-35.2646
-30.1515
-27.1615
-24.6802
-22.4581
-20.4811
-18.7068
-17.1002
-15.6398
-14.3101
-13.0985
-11.9943
-10.9875
-10.0695
-9.23202
-8.46763
-7.76938
-7.13148
-6.55072
-6.0194
-35.9395
-30.8072
-27.7861
-25.2717
-23.0136
-21.0006
-19.1919
-17.5532
-16.0633
-14.7071
-13.4718
-12.3465
-11.3211
-10.3866
-9.53453
-8.75718
-8.04742
-7.39921
-6.80862
-6.26829
-36.6225
-31.4696
-28.4164
-25.8678
-23.5729
-21.5231
-19.6793
-18.008
-16.4884
-15.1055
-13.8464
-12.7
-11.656
-10.705
-9.83836
-9.04809
-8.32684
-7.6683
-7.06786
-6.5186
-37.3127
-32.1375
-29.0515
-26.4676
-24.1348
-22.0475
-20.1681
-18.4638
-16.9143
-15.5045
-14.2216
-13.0541
-11.9915
-11.0241
-10.143
-9.33979
-8.60706
-7.93817
-7.32787
-6.76978
-38.0099
-32.8102
-29.6901
-27.0698
-24.6984
-22.5729
-20.6574
-18.9198
-17.3402
-15.9035
-14.5967
-13.4081
-12.327
-11.3433
-10.4477
-9.63172
-8.88754
-8.20828
-7.58811
-7.02129
-38.7156
-33.4872
-30.3309
-27.6731
-25.2622
-23.098
-21.1461
-19.375
-17.7652
-16.3016
-14.971
-13.7615
-12.6619
-11.662
-10.752
-9.92328
-9.1677
-8.47808
-7.84806
-7.27264
-39.4303
-34.1676
-30.9722
-28.2759
-25.8252
-23.6219
-21.6333
-19.8287
-18.1886
-16.6981
-15.3438
-14.1134
-12.9956
-11.9795
-11.0553
-10.2139
-9.44699
-8.74705
-8.10721
-7.52338
-40.1412
-34.8465
-31.6125
-28.8775
-26.3868
-24.1443
-22.1188
-20.2805
-18.6101
-17.0927
-15.7148
-14.4637
-13.3277
-12.2956
-11.3573
-10.5033
-9.72505
-9.01479
-8.36518
-7.77312
-6.31789
-4.36003
-3.1173
-2.173
-1.52147
-1.04617
-0.708635
-0.470631
-0.306604
-0.196851
-0.126792
-0.0852078
-0.0638465
-0.056438
-0.0584095
-0.0663821
-0.0779191
-0.0912691
-0.105203
-0.118855
-0.131647
-0.14316
-0.153157
-0.161373
-0.167718
-0.171853
-0.17376
-0.17287
-0.16925
-0.162178
-0.151847
-0.137942
-0.120559
-0.101234
-0.0786936
-0.0585026
-0.0355504
-0.0211405
-0.00380787
-0.00080202
-6.55436
-4.52839
-3.25381
-2.28053
-1.60686
-1.11537
-0.765142
-0.517358
-0.345577
-0.229585
-0.154429
-0.108613
-0.0837045
-0.0732928
-0.0727063
-0.0784921
-0.0881533
-0.0998923
-0.112442
-0.124908
-0.136684
-0.147327