/*--------------------------------*- C++ -*----------------------------------*\
| =========                 |                                                 |
| \\      /  F ield         | OpenFOAM: The Open Source CFD Toolbox           |
|  \\    /   O peration     | Version:  v1912                                 |
|   \\  /    A nd           | Website:  www.openfoam.com                      |
|    \\/     M anipulation  |                                                 |
\*---------------------------------------------------------------------------*/
FoamFile
{
    version     2.0;
    format      ascii;
    class       surfaceScalarField;
    location    "16";
    object      phi;
}
// * * * * * * * * * * * * * * * * * * * * * * * * * * * * * * * * * * * * * //

dimensions      [0 3 -1 0 0 0 0];
oriented        oriented;


internalField   nonuniform List<scalar> 
18940
(
0.000313796
-0.235152
0.234838
0.00122029
-0.217678
0.216771
0.00256081
-0.206146
0.204806
0.0041802
-0.198071
0.196452
0.0059616
-0.191882
0.190101
0.00781409
-0.186604
0.184751
0.00967188
-0.181697
0.179839
0.0114911
-0.176894
0.175075
0.0132452
-0.172083
0.170329
0.0149208
-0.167238
0.165562
0.0165139
-0.162379
0.160786
0.018027
-0.157545
0.156032
0.0194666
-0.152778
0.151338
0.0208415
-0.148117
0.146742
0.022162
-0.143594
0.142274
0.0234388
-0.139229
0.137953
0.0246823
-0.135031
0.133787
0.0259022
-0.130993
0.129773
0.0271059
-0.127096
0.125892
-0.123301
0.122109
0.0282976
0.000336288
-0.235488
0.00126218
-0.218604
0.00261312
-0.207497
0.00423831
-0.199697
0.00601722
-0.193661
0.00785887
-0.188445
0.00969852
-0.183537
0.0114937
-0.178689
0.0132194
-0.173808
0.0148638
-0.168882
0.0164242
-0.163939
0.0179043
-0.159025
0.0193112
-0.154185
0.0206546
-0.149461
0.021945
-0.144885
0.0231935
-0.140478
0.0244108
-0.136248
0.0256068
-0.132189
0.0267895
-0.128278
-0.124476
0.0279639
0.000356987
-0.235845
0.00129867
-0.219545
0.00265875
-0.208857
0.00428645
-0.201324
0.00605972
-0.195435
0.00788735
-0.190273
0.00970566
-0.185355
0.0114737
-0.180457
0.0131681
-0.175503
0.0147786
-0.170493
0.016304
-0.165465
0.017749
-0.16047
0.0191215
-0.155557
0.0204318
-0.150771
0.0216906
-0.146144
0.0229094
-0.141696
0.024099
-0.137437
0.0252697
-0.13336
0.0264301
-0.129439
-0.125631
0.027586
0.000370229
-0.236215
0.00132675
-0.220502
0.0026957
-0.210226
0.00432387
-0.202952
0.0060886
-0.197199
0.00789909
-0.192083
0.00969291
-0.187149
0.0114308
-0.182195
0.0130912
-0.177163
0.0146654
-0.172067
0.0161537
-0.166953
0.0175616
-0.161878
0.0188981
-0.156894
0.0201738
-0.152047
0.0213997
-0.14737
0.0225875
-0.142884
0.0237482
-0.138598
0.0248926
-0.134504
0.0260296
-0.130576
-0.126768
0.0271661
0.000381005
-0.236596
0.0013499
-0.221471
0.0027253
-0.211602
0.00435113
-0.204578
0.0061042
-0.198952
0.00789438
-0.193873
0.00966063
-0.188915
0.0113655
-0.1839
0.0129892
-0.178787
0.0145248
-0.173603
0.0159738
-0.168402
0.017343
-0.163247
0.0186419
-0.158193
0.0198815
-0.153286
0.0210733
-0.148562
0.0222289
-0.14404
0.0233597
-0.139729
0.0244766
-0.135621
0.0255893
-0.131689
-0.127884
0.0267056
0.000389741
-0.236986
0.00136852
-0.22245
0.00274776
-0.212981
0.0043684
-0.206199
0.00610673
-0.200691
0.00787345
-0.19564
0.00960912
-0.190651
0.0112781
-0.185569
0.0128626
-0.180371
0.0143574
-0.175097
0.0157652
-0.16981
0.0170938
-0.164575
0.0183536
-0.159452
0.0195558
-0.154489
0.0207123
-0.149718
0.0218345
-0.145162
0.0229341
-0.140829
0.0240225
-0.136709
0.0251099
-0.132776
-0.128979
0.0262051
0.00039701
-0.237383
0.0013833
-0.223436
0.00276363
-0.214361
0.00437611
-0.207811
0.00609658
-0.202411
0.00783674
-0.19738
0.00953887
-0.192353
0.0111693
-0.187199
0.0127121
-0.181914
0.0141638
-0.176549
0.0155284
-0.171175
0.0168148
-0.165862
0.0180339
-0.160672
0.0191974
-0.155652
0.0203172
-0.150838
0.0214048
-0.14625
0.0224721
-0.141896
0.0235307
-0.137768
0.0245917
-0.133837
-0.130052
0.0256649
0.000402968
-0.237786
0.00139452
-0.224427
0.00277327
-0.21574
0.00437463
-0.209413
0.00607418
-0.204111
0.00778476
-0.199091
0.00945047
-0.194018
0.0110397
-0.188789
0.0125384
-0.183413
0.0139448
-0.177955
0.0152643
-0.172494
0.0165068
-0.167104
0.0176836
-0.161848
0.018807
-0.156775
0.0198886
-0.151919
0.0209403
-0.147301
0.0219738
-0.142929
0.0230012
-0.138795
0.0240343
-0.13487
-0.131102
0.0250842
0.000407719
-0.238194
0.00140247
-0.225422
0.00277708
-0.217115
0.00436445
-0.211
0.0060401
-0.205786
0.00771816
-0.200769
0.00934466
-0.195645
0.0108901
-0.190334
0.0123424
-0.184865
0.0137014
-0.179314
0.0149739
-0.173767
0.0161705
-0.168301
0.0173034
-0.162981
0.018385
-0.157857
0.0194269
-0.152961
0.020441
-0.148315
0.021439
-0.143927
0.0224334
-0.13979
0.0234369
-0.135874
-0.132127
0.024462
0.000411331
-0.238605
0.00140741
-0.226418
0.00277548
-0.218483
0.00434612
-0.212571
0.00599499
-0.207435
0.00763772
-0.202412
0.00922236
-0.19723
0.0107215
-0.191833
0.0121251
-0.186269
0.0134346
-0.180624
0.014658
-0.17499
0.015807
-0.16945
0.0168942
-0.164069
0.017932
-0.158895
0.0189324
-0.153962
0.0199069
-0.14929
0.0208673
-0.144888
0.0218264
-0.140749
0.0227979
-0.136845
-0.133125
0.023796
0.000413904
-0.239019
0.00140965
-0.227414
0.00276897
-0.219842
0.00432029
-0.214122
0.00593968
-0.209055
0.0075444
-0.204016
0.00908464
-0.19877
0.0105351
-0.193284
0.0118878
-0.187622
0.0131457
-0.181882
0.0143181
-0.176162
0.0154174
-0.170549
0.0164567
-0.165108
0.0174488
-0.159887
0.0184055
-0.154918
0.019338
-0.150222
0.0202581
-0.145808
0.0211789
-0.14167
0.0221154
-0.137782
-0.134094
0.0230834
0.000415584
-0.239434
0.0014096
-0.228408
0.00275818
-0.221191
0.00428776
-0.215652
0.00587512
-0.210642
0.00743934
-0.205581
0.0089328
-0.200263
0.0103324
-0.194683
0.0116321
-0.188921
0.0128363
-0.183086
0.0139556
-0.177282
0.0150031
-0.171597
0.0159924
-0.166097
0.0169363
-0.160831
0.0178466
-0.155829
0.0187342
-0.15111
0.0196107
-0.146684
0.0204895
-0.142548
0.0213869
-0.138679
-0.135028
0.0223211
0.00041664
-0.239851
0.00140785
-0.229399
0.00274387
-0.222527
0.00424948
-0.217157
0.00580245
-0.212195
0.00732387
-0.207102
0.0087684
-0.201708
0.0101151
-0.19603
0.0113598
-0.190166
0.0125084
-0.184234
0.0135725
-0.178346
0.014566
-0.17259
0.0155028
-0.167034
0.0163958
-0.161724
0.0172566
-0.156689
0.0180958
-0.151949
0.0189248
-0.147513
0.019757
-0.143381
0.0206101
-0.139532
-0.135923
0.0215049
0.000417537
-0.240269
0.0014052
-0.230387
0.00272704
-0.223849
0.00420658
-0.218637
0.00572298
-0.213711
0.00719954
-0.208579
0.0085932
-0.203101
0.00988524
-0.197322
0.0110732
-0.191354
0.0121644
-0.185326
0.0131714
-0.179353
0.0141086
-0.173527
0.0149903
-0.167916
0.0158293
-0.162563
0.0166369
-0.157497
0.0174234
-0.152736
0.0181997
-0.14829
0.0189793
-0.14416
0.019781
-0.140334
-0.13677
0.0206289
0.000419062
-0.240688
0.00140278
-0.231371
0.0027088
-0.225155
0.00416027
-0.220088
0.00563815
-0.215189
0.00706804
-0.210009
0.00840924
-0.204443
0.00964512
-0.198558
0.0107749
-0.192484
0.0118073
-0.186358
0.0127556
-0.180301
0.0136345
-0.174406
0.0144583
-0.16874
0.0152399
-0.163344
0.01599
-0.158247
0.0167185
-0.153464
0.0174354
-0.149006
0.018154
-0.144879
0.018894
-0.141074
-0.137561
0.019685
0.000422345
-0.24111
0.00140186
-0.23235
0.00269028
-0.226443
0.00411181
-0.22151
0.00554948
-0.216627
0.00693123
-0.21139
0.00821872
-0.20573
0.00939742
-0.199737
0.0104682
-0.193555
0.0114408
-0.187331
0.0123291
-0.181189
0.0131481
-0.175225
0.013912
-0.169503
0.0146331
-0.164065
0.0153215
-0.158936
0.0159862
-0.154129
0.016636
-0.149656
0.0172831
-0.145526
0.0179487
-0.14174
-0.138283
0.0186706
0.000428756
-0.241539
0.00140368
-0.233325
0.0026727
-0.227712
0.00406262
-0.2229
0.00545863
-0.218023
0.00679108
-0.212723
0.00802402
-0.206963
0.00914498
-0.200858
0.0101564
-0.194566
0.0110689
-0.188243
0.0118968
-0.182017
0.0126551
-0.175984
0.0133575
-0.170206
0.0140157
-0.164724
0.0146391
-0.159559
0.0152354
-0.154725
0.0158118
-0.150233
0.0163786
-0.146093
0.0169571
-0.142318
-0.138913
0.0175872
0.000440616
-0.241979
0.00141084
-0.234295
0.00265845
-0.22896
0.00401467
-0.224256
0.0053674
-0.219376
0.00664947
-0.214005
0.00782739
-0.208141
0.00889068
-0.201921
0.00984314
-0.195518
0.0106962
-0.189096
0.0114642
-0.182785
0.0121617
-0.176681
0.0128017
-0.170846
0.0133946
-0.165317
0.0139489
-0.160113
0.0144709
-0.155247
0.0149668
-0.150729
0.0154432
-0.146569
0.0159144
-0.142789
-0.139407
0.0164081
0.000465522
-0.242445
0.00143057
-0.23526
0.00265155
-0.230181
0.00396975
-0.225574
0.00527684
-0.220683
0.00650762
-0.215236
0.00763061
-0.209264
0.00863714
-0.202927
0.00953229
-0.196413
0.010328
-0.189892
0.0110387
-0.183496
0.0116778
-0.17732
0.0122566
-0.171425
0.0127833
-0.165843
0.013263
-0.160593
0.0136987
-0.155683
0.0140916
-0.151121
0.0144403
-0.146918
0.0147501
-0.143099
-0.139742
0.0150851
0.000523534
-0.242968
0.00147143
-0.236208
0.00265158
-0.231361
0.00392648
-0.226849
0.00518628
-0.221943
0.0063657
-0.216415
0.00743469
-0.210333
0.00838632
-0.203879
0.00922701
-0.197254
0.00996951
-0.190634
0.0106282
-0.184155
0.011216
-0.177908
0.0117425
-0.171951
0.0122128
-0.166313
0.0126266
-0.161007
0.0129769
-0.156033
0.0132478
-0.151392
0.0134136
-0.147084
0.0134659
-0.143151
-0.139889
0.0136132
0.25004
0.000389221
-0.250429
0.249677
0.000362209
0.249323
0.000354164
0.24897
0.000353668
0.248613
0.000356125
0.248253
0.000360004
0.247889
0.000364602
0.247519
0.000369343
0.247146
0.000373837
0.246768
0.000377871
0.246386
0.000381347
0.246002
0.000384234
0.245616
0.000386508
0.245227
0.000388139
0.244838
0.000388996
0.24445
0.000388867
0.244063
0.000386696
0.243681
0.000381923
0.243316
0.000365353
0.000347302
0.25082
0.000953629
-0.251384
0.250223
0.000959563
0.249599
0.00097769
0.248951
0.00100195
0.248279
0.00102784
0.247585
0.00105374
0.246871
0.0010792
0.246136
0.00110372
0.245383
0.00112686
0.244613
0.00114837
0.243826
0.00116811
0.243024
0.00118603
0.242209
0.00120211
0.24138
0.00121634
0.240541
0.00122855
0.239691
0.00123852
0.238833
0.00124511
0.237967
0.00124804
0.237091
0.00124091
0.00123019
0.248713
0.00148139
-0.24924
0.248123
0.00154922
0.247483
0.00161717
0.246799
0.00168642
0.246072
0.00175475
0.245305
0.00182069
0.2445
0.00188389
0.24366
0.00194411
0.242786
0.0020011
0.24188
0.00205468
0.240943
0.00210475
0.239978
0.00215134
0.238985
0.0021945
0.237967
0.0022343
0.236925
0.00227073
0.23586
0.00230376
0.234772
0.00233286
0.233662
0.00235823
0.232525
0.00237746
0.00239476
0.244013
0.00189183
-0.244423
0.243536
0.00202538
0.242999
0.00215421
0.242406
0.00228001
0.241758
0.00240232
0.241059
0.0025201
0.24031
0.00263301
0.239513
0.00274086
0.23867
0.00284348
0.237784
0.00294076
0.236856
0.00303267
0.235889
0.00311931
0.234882
0.00320082
0.233839
0.00327744
0.23276
0.00334937
0.231647
0.00341693
0.2305
0.00348016
0.229319
0.00353964
0.228101
0.00359465
0.0036471
0.237397
0.00215157
-0.237657
0.237071
0.0023521
0.236679
0.0025458
0.236225
0.0027337
0.235712
0.00291597
0.23514
0.00309195
0.234511
0.00326127
0.233829
0.0034237
0.233093
0.0035791
0.232306
0.00372737
0.231471
0.00386854
0.230587
0.00400275
0.229658
0.00413026
0.228684
0.00425145
0.227666
0.0043668
0.226606
0.0044769
0.225504
0.00458229
0.22436
0.00468385
0.223173
0.00478171
0.00487741
0.229585
0.00226788
-0.229701
0.229402
0.0025347
0.229155
0.00279358
0.228843
0.00304498
0.22847
0.00328907
0.228037
0.00352541
0.227544
0.00375361
0.226995
0.0039734
0.226389
0.00418462
0.225729
0.00438716
0.225017
0.00458106
0.224253
0.00476651
0.22344
0.00494386
0.222577
0.00511363
0.221668
0.00527654
0.220711
0.00543351
0.219708
0.00558547
0.218658
0.00573371
0.217561
0.00587902
0.00602312
0.221214
0.0022682
-0.221215
0.22115
0.00259902
0.221022
0.00292118
0.220833
0.00323473
0.220582
0.00353973
0.220272
0.00383574
0.219903
0.00412241
0.219477
0.00439939
0.218995
0.00466646
0.218459
0.00492351
0.217869
0.00517056
0.217228
0.00540781
0.216536
0.00563569
0.215795
0.00585486
0.215005
0.00606627
0.214167
0.00627114
0.213282
0.00647087
0.212349
0.00666723
0.211366
0.00686162
0.00705606
0.212765
0.00218531
-0.212682
0.212787
0.00257691
0.212749
0.0029593
0.212651
0.00333226
0.212495
0.00369566
0.212282
0.00404907
0.212012
0.00439207
0.211687
0.00472426
0.211308
0.00504535
0.210877
0.00535519
0.210393
0.00565375
0.20986
0.00594123
0.209278
0.00621811
0.208647
0.00648518
0.20797
0.00674358
0.207246
0.00699488
0.206476
0.00724098
0.205659
0.00748421
0.204794
0.00772674
0.00797108
0.204553
0.00204954
-0.204417
0.204631
0.00249851
0.204653
0.00293773
0.204618
0.00336682
0.204528
0.00378551
0.204384
0.00419329
0.204186
0.00458969
0.203936
0.00497423
0.203635
0.00534654
0.203284
0.00570639
0.202884
0.00605368
0.202437
0.0063886
0.201943
0.0067116
0.201405
0.00702356
0.200823
0.00732583
0.200197
0.00762031
0.199529
0.0079095
0.198817
0.00819638
0.198059
0.00848414
0.00877605
0.196763
0.00188565
-0.196599
0.196873
0.00238873
0.196929
0.00288154
0.196932
0.00336355
0.196883
0.00383436
0.196783
0.00429341
0.196633
0.0047401
0.196433
0.00517389
0.196185
0.00559432
0.195891
0.00600102
0.195551
0.00639384
0.195166
0.00677283
0.19474
0.00713843
0.194272
0.00749152
0.193764
0.00783361
0.193217
0.00816692
0.192632
0.00849459
0.192008
0.00882045
0.191343
0.00914903
0.00948478
0.189483
0.00171207
-0.189309
0.189605
0.00226645
0.189677
0.00280999
0.189698
0.00334207
0.18967
0.00386215
0.189594
0.00436958
0.189471
0.00486369
0.189301
0.00534381
0.189086
0.00580937
0.188827
0.00625987
0.188526
0.00669501
0.188184
0.00711469
0.187803
0.00751924
0.187385
0.00790943
0.186932
0.00828691
0.186445
0.00865404
0.185924
0.00901481
0.185371
0.00937383
0.184782
0.00973768
0.0101123
0.182735
0.00154145
-0.182564
0.182857
0.00214484
0.18293
0.00273681
0.182955
0.00331658
0.182934
0.00388353
0.182867
0.00443691
0.182754
0.00497595
0.182598
0.00549986
0.1824
0.00600794
0.18216
0.00649952
0.181881
0.0069741
0.181564
0.00743138
0.181212
0.00787145
0.180827
0.00829486
0.18041
0.00870324
0.179965
0.00909893
0.179493
0.00948686
0.178995
0.00987224
0.178468
0.0102648
0.0106722
0.176503
0.00138188
-0.176344
0.176616
0.00203256
0.176681
0.00267111
0.176701
0.00329668
0.176676
0.00390858
0.176607
0.00450594
0.176495
0.00508788
0.176342
0.00565351
0.176148
0.00620195
0.175915
0.00673235
0.175645
0.00724397
0.17534
0.0077362
0.175003
0.00820882
0.174636
0.00866193
0.174242
0.00909701
0.173825
0.00951592
0.173387
0.00992474
0.172931
0.0103286
0.172453
0.0107422
0.0111744
0.17075
0.00123814
-0.170606
0.170848
0.00193474
0.170901
0.00261843
0.170909
0.00328835
0.170874
0.00394369
0.170796
0.00458348
0.170678
0.00520674
0.170519
0.00581245
0.170321
0.00639956
0.170086
0.00696701
0.169817
0.00751377
0.169514
0.00803885
0.169181
0.00854159
0.168822
0.00902142
0.168439
0.00947944
0.168039
0.00991638
0.167624
0.0103397
0.1672
0.0107526
0.166763
0.0111786
0.0116243
0.165428
0.00111266
-0.165303
0.165509
0.00185412
0.165545
0.00258181
0.165539
0.00329491
0.16549
0.00399249
0.1654
0.00467349
0.16527
0.00533682
0.165101
0.00598133
0.164895
0.0066058
0.164653
0.00720894
0.164377
0.00778942
0.16407
0.0083458
0.163735
0.00887685
0.163375
0.00938108
0.162996
0.00985891
0.162603
0.010309
0.162203
0.0107404
0.161804
0.0111511
0.161403
0.0115794
0.0120209
0.160487
0.00100641
-0.160381
0.16055
0.00179166
0.160569
0.00256241
0.160546
0.00331772
0.160482
0.00405653
0.160378
0.00477771
0.160235
0.00548007
0.160054
0.00616233
0.159837
0.00682312
0.159585
0.00746091
0.1593
0.00807405
0.158985
0.00866062
0.158643
0.00921874
0.158279
0.00974578
0.157896
0.0102411
0.157505
0.0107002
0.157112
0.0111337
0.156734
0.0115287
0.156366
0.0119479
0.0123533
0.155879
0.000919185
-0.155792
0.155924
0.00174705
0.155926
0.00256
0.155887
0.00335659
0.155808
0.00413568
0.15569
0.00489607
0.155534
0.00563649
0.15534
0.00635553
0.155112
0.00705169
0.154849
0.00772322
0.154555
0.00836817
0.154232
0.00898417
0.153882
0.00956861
0.15351
0.0101176
0.153122
0.010629
0.152728
0.011094
0.152338
0.0115243
0.151978
0.0118884
0.151637
0.0122885
0.0125984
0.151561
0.000848369
-0.15149
0.151589
0.00171894
0.151576
0.00257306
0.151522
0.00340991
0.15143
0.00422824
0.151299
0.00502673
0.151132
0.00580408
0.150928
0.0065588
0.150691
0.00728924
0.15042
0.00799351
0.150119
0.00866939
0.149789
0.00931411
0.149433
0.00992442
0.149056
0.0104952
0.148662
0.0110225
0.148264
0.0114921
0.147874
0.011915
0.147532
0.0122297
0.147215
0.0126063
0.0127292
0.147491
0.000793224
-0.147436
0.147506
0.00170472
0.14748
0.00259868
0.147415
0.0034744
0.147313
0.00433047
0.147174
0.00516555
0.147
0.00597828
0.146792
0.00676713
0.146551
0.00753036
0.146278
0.00826594
0.145976
0.00897148
0.145646
0.00964393
0.145291
0.0102796
0.144914
0.0108722
0.14452
0.0114166
0.14412
0.0118921
0.143727
0.0123082
0.143404
0.0125521
0.143125
0.0128858
0.0127029
0.143635
-0.143593
0.000751587
0.143639
0.00170074
0.143605
0.00263273
0.143534
0.00354525
0.143427
0.00443685
0.143287
0.00530623
0.143113
0.00615204
0.142907
0.00697269
0.142671
0.0077664
0.142406
0.00853105
0.142114
0.00926421
0.141795
0.00996262
0.141452
0.0106225
0.141087
0.0112368
0.140704
0.0118001
0.14031
0.0122863
0.139911
0.0127066
0.139576
0.0128876
0.139331
0.0131301
0.0121449
0.253358
7.20837e-05
-0.253431
0.253326
3.29214e-05
0.253298
2.73701e-05
0.253263
3.47348e-05
0.253216
4.77711e-05
0.253151
6.42098e-05
0.253069
8.27746e-05
0.252966
0.000102381
0.252844
0.000122235
0.252702
0.000141892
0.252541
0.000160928
0.252362
0.000178911
0.252166
0.000195862
0.251954
0.000212351
0.251725
0.000229111
0.251481
0.000243877
0.251225
0.000255869
0.25096
0.00026515
0.250694
0.000265981
0.00026532
0.253985
-0.000226707
-0.253687
0.254227
-0.000208564
0.254427
-0.000172903
0.254586
-0.000124231
0.254703
-6.89981e-05
0.254777
-9.95638e-06
0.254808
5.17589e-05
0.254795
0.000115033
0.254739
0.000179044
0.254637
0.000243301
0.254492
0.000306232
0.254304
0.000366983
0.254075
0.000425013
0.253808
0.000479411
0.253496
0.000540796
0.253144
0.00059528
0.252756
0.000644685
0.252331
0.000689317
0.251873
0.000724404
0.000754042
0.248769
-0.000845907
-0.24815
0.249319
-0.000758308
0.249807
-0.000661126
0.250237
-0.000554249
0.250609
-0.000441013
0.250923
-0.000323766
0.251178
-0.000203608
0.251375
-8.21078e-05
0.251514
3.98185e-05
0.251593
0.000165226
0.251612
0.000287212
0.251573
0.000405412
0.251476
0.000522236
0.251318
0.000637148
0.251108
0.000750954
0.250843
0.000860088
0.250524
0.000963579
0.250152
0.00106152
0.249724
0.00115207
0.00123807
0.240177
-0.00172246
-0.239301
0.240986
-0.00156669
0.241728
-0.00140397
0.242408
-0.00123338
0.243023
-0.00105637
0.243574
-0.00087477
0.24406
-0.000689901
0.244481
-0.000503012
0.244836
-0.000314858
0.245124
-0.000123377
0.245344
6.79772e-05
0.245501
0.000248356
0.245591
0.000432157
0.245615
0.000612913
0.245576
0.000790223
0.245473
0.000963207
0.245305
0.00113069
0.245075
0.00129223
0.24478
0.00144687
0.00159508
0.230022
-0.00278222
-0.228962
0.231018
-0.00256303
0.231951
-0.00233662
0.23282
-0.00210249
0.233625
-0.00186132
0.234365
-0.00161457
0.235039
-0.00136362
0.235645
-0.00110963
0.236184
-0.000853578
0.236657
-0.000596134
0.237064
-0.000339671
0.2374
-8.7312e-05
0.237668
0.000164063
0.237869
0.000412277
0.238001
0.0006574
0.238067
0.000897834
0.238065
0.00113273
0.237996
0.00136141
0.237859
0.00158306
0.00179754
0.21947
-0.00395885
-0.218294
0.220588
-0.00368103
0.221646
-0.00339444
0.222643
-0.00309916
0.223577
-0.00279579
0.224448
-0.00248568
0.225255
-0.00217034
0.225997
-0.00185114
0.226672
-0.00152946
0.227283
-0.00120661
0.227827
-0.000883958
0.228303
-0.000563003
0.228711
-0.000244489
0.229055
6.90389e-05
0.229331
0.00038137
0.229539
0.000689771
0.22968
0.000991783
0.229754
0.00128738
0.229761
0.00157593
0.00185706
0.209232
-0.00519965
-0.207992
0.210419
-0.00486726
0.211548
-0.00452402
0.21262
-0.00417049
0.213631
-0.00380752
0.214582
-0.0034366
0.215471
-0.00305944
0.216298
-0.0026777
0.217061
-0.00229295
0.217761
-0.0019066
0.218397
-0.00151995
0.218969
-0.00113448
0.219475
-0.000751007
0.219915
-0.000370266
0.220297
-6.1629e-07
0.22061
0.000376663
0.220858
0.000743589
0.221041
0.00110385
0.22116
0.00145707
0.00180272
0.199682
-0.00646636
-0.198415
0.200897
-0.00608264
0.202059
-0.00568572
0.203165
-0.0052765
0.204214
-0.00485627
0.205204
-0.00442687
0.206135
-0.00399032
0.207006
-0.00354852
0.207816
-0.00310323
0.208566
-0.00265604
0.209254
-0.00220833
0.209881
-0.00176152
0.210447
-0.00131668
0.210951
-0.000874834
0.211388
-0.00043738
0.211774
-9.73815e-06
0.212093
0.00042502
0.212351
0.000846163
0.212547
0.00126087
0.00166792
0.190966
-0.0077335
-0.189699
0.192184
-0.00730097
0.193351
-0.0068526
0.194464
-0.00638958
0.195522
-0.00591379
0.196522
-0.00542766
0.197466
-0.00493359
0.198351
-0.00443379
0.199178
-0.00393023
0.199947
-0.00342464
0.200657
-0.00291851
0.201308
-0.00241321
0.201902
-0.0019099
0.202436
-0.00140956
0.202913
-0.000913527
0.203326
-0.000422949
0.203689
6.22566e-05
0.203989
0.000545466
0.204232
0.00101799
0.00148307
0.183094
-0.00898566
-0.181842
0.1843
-0.00850633
0.185455
-0.00800805
0.186558
-0.00749231
0.187606
-0.00696195
0.188598
-0.00642017
0.189535
-0.00586985
0.190414
-0.00531355
0.191238
-0.00475347
0.192005
-0.00419148
0.192715
-0.0036291
0.19337
-0.00306768
0.193968
-0.00250836
0.194511
-0.00195216
0.194997
-0.00140011
0.195427
-0.000853136
0.195802
-0.000312111
0.196124
0.000223677
0.196389
0.000752806
0.00127274
0.176005
-0.0102148
-0.174776
0.177189
-0.0096905
0.178325
-0.00914322
0.179407
-0.00857507
0.180436
-0.0079904
0.181409
-0.00739339
0.182327
-0.00678751
0.183189
-0.00617569
0.183996
-0.00556036
0.184748
-0.00494347
0.185445
-0.00432654
0.186088
-0.00371087
0.186678
-0.00309757
0.187213
-0.00248761
0.187695
-0.0018819
0.188123
-0.00128134
0.188497
-0.000686545
0.188821
-9.98717e-05
0.189091
0.000482481
0.00105488
0.169607
-0.0114182
-0.168403
0.170767
-0.0108508
0.171879
-0.0102548
0.172937
-0.00963377
0.173941
-0.00899437
0.17489
-0.00834199
0.175783
-0.0076807
0.176621
-0.00701386
0.177405
-0.0063441
0.178135
-0.00567338
0.178811
-0.00500318
0.179435
-0.0043347
0.180007
-0.00366896
0.180526
-0.00300688
0.180993
-0.00234933
0.181409
-0.00169716
0.181774
-0.0010512
0.182087
-0.000412796
0.182351
0.00021796
0.000841756
0.1638
-0.0125967
-0.162621
0.164938
-0.0119888
0.166026
-0.0113435
0.167061
-0.0106682
0.168039
-0.00997294
0.168962
-0.00926442
0.169829
-0.00854736
0.17064
-0.00782556
0.171398
-0.00710179
0.172102
-0.00637793
0.172755
-0.00565533
0.173355
-0.00493506
0.173904
-0.00421803
0.174402
-0.00350507
0.17485
-0.00279701
0.175247
-0.00209468
0.175595
-0.00139878
0.175892
-0.00071018
0.176143
-3.28851e-05
0.000641169
0.158495
-0.0137539
-0.157337
0.159615
-0.0131091
0.160684
-0.0124127
0.161696
-0.0116806
0.162651
-0.0109276
0.163548
-0.0101614
0.164388
-0.00938756
0.165173
-0.00861039
0.165904
-0.00783263
0.166582
-0.00705597
0.167208
-0.00628155
0.167783
-0.00551023
0.168308
-0.00474275
0.168783
-0.00397985
0.169208
-0.00322227
0.169584
-0.00247082
0.169912
-0.00172627
0.170191
-0.000989827
0.170421
-0.000262953
0.000456169
0.153615
-0.0148963
-0.152473
0.154725
-0.0142191
0.15578
-0.0134678
0.156774
-0.0126748
0.157707
-0.0118607
0.15858
-0.0110342
0.159394
-0.0102018
0.160152
-0.00936839
0.160856
-0.00853637
0.161507
-0.00770708
0.162107
-0.00688129
0.162656
-0.00605954
0.163156
-0.00524235
0.163606
-0.0044303
0.164008
-0.00362405
0.164362
-0.00282436
0.164668
-0.00203208
0.164926
-0.00124822
0.165137
-0.000473909
0.000290328
0.149103
-0.016036
-0.147963
0.150212
-0.0153288
0.151259
-0.0145147
0.152239
-0.0136546
0.153152
-0.0127738
0.154001
-0.0118826
0.154788
-0.0109894
0.155518
-0.0100987
0.156194
-0.0092122
0.156818
-0.00833061
0.157391
-0.00745408
0.157914
-0.00658269
0.158388
-0.00571663
0.158814
-0.00485628
0.159192
-0.0040022
0.159523
-0.0031551
0.159807
-0.00231582
0.160044
-0.00148527
0.160235
-0.000664778
0.000143865
0.144915
-0.0172002
-0.143751
0.146038
-0.0164518
0.147081
-0.0155582
0.148048
-0.014621
0.148938
-0.0136646
0.149759
-0.0127033
0.150517
-0.0117471
0.151217
-0.0107988
0.151863
-0.00985839
0.152458
-0.00892554
0.153004
-0.0079995
0.153501
-0.00707967
0.15395
-0.00616584
0.154352
-0.00525821
0.154707
-0.00435722
0.155015
-0.00346355
0.155277
-0.00257807
0.155494
-0.00170168
0.155664
-0.000835342
1.61013e-05
0.141022
-0.0184487
-0.139773
0.142175
-0.0176055
0.143214
-0.0165966
0.144161
-0.0155678
0.145021
-0.0145251
0.145807
-0.0134891
0.14653
-0.0124697
0.147196
-0.0114654
0.147811
-0.0104733
0.148377
-0.00949133
0.148895
-0.00851772
0.149366
-0.0075511
0.149791
-0.00659089
0.15017
-0.00563711
0.150503
-0.0046902
0.150791
-0.00375085
0.151033
-0.00281997
0.15123
-0.00189868
0.151383
-0.000988284
-9.11622e-05
0.137431
-0.0198444
-0.136036
0.138608
-0.0187823
0.139623
-0.0176116
0.140531
-0.0164754
0.141348
-0.0153419
0.14209
-0.0142318
0.142773
-0.0131527
0.143405
-0.0120967
0.143988
-0.0110568
0.144526
-0.0100289
0.145018
-0.00901011
0.145466
-0.00799852
0.145868
-0.00699333
0.146225
-0.00599456
0.146538
-0.00500271
0.146806
-0.00401859
0.147029
-0.00304319
0.147208
-0.0020778
0.147344
-0.00112395
-0.000183621
0.134191
-0.132862
-0.0211737
0.13528
-0.0198716
0.136258
-0.0185898
0.137099
-0.0173155
0.137859
-0.016102
0.138558
-0.0149313
0.139204
-0.0137981
0.139802
-0.0126949
0.140356
-0.0116114
0.140868
-0.0105407
0.141337
-0.00947874
0.141762
-0.0084236
0.142143
-0.00737455
0.14248
-0.00633175
0.142773
-0.00529592
0.143023
-0.00426802
0.143229
-0.00324917
0.143392
-0.00224059
0.143512
-0.00124394
-0.00026499
0.0280951
0.108623
-0.107263
-0.0294547
0.0267149
0.111839
-0.110459
0.0253111
0.115204
-0.1138
0.0238798
0.118739
-0.117307
0.0224172
0.122475
-0.121012
0.0209201
0.126452
-0.124954
0.0193857
0.130723
-0.129189
0.0178121
0.135364
-0.13379
0.0161979
0.140469
-0.138855
0.0145428
0.146159
-0.144504
0.0128477
0.15258
-0.150885
0.0111161
0.159902
-0.158171
0.00935554
0.168307
-0.166546
0.00758122
0.177964
-0.17619
0.0058203
0.188987
-0.187226
0.00411881
0.201346
-0.199645
0.00255014
0.214747
-0.213178
0.00122563
0.228429
-0.227105
0.000301591
0.240791
-0.239867
0.248983
-0.248682
0.0279843
0.109981
-0.029342
0.0266062
0.113217
0.0252047
0.116605
0.023776
0.120167
0.0223163
0.123934
0.0208223
0.127946
0.0192912
0.132255
0.0177208
0.136934
0.0161099
0.14208
0.014458
0.147811
0.0127662
0.154272
0.0110383
0.16163
0.00928251
0.170063
0.00751467
0.179732
0.00576309
0.190738
0.0040752
0.203034
0.0025258
0.216296
0.00122562
0.22973
0.000326634
0.24169
0.24931
0.027833
0.111334
-0.0291864
0.0264592
0.114591
0.0250622
0.118002
0.0236383
0.121591
0.0221836
0.125389
0.0206949
0.129434
0.0191692
0.13378
0.0176043
0.138499
0.0159988
0.143685
0.0143524
0.149457
0.0126663
0.155958
0.0109445
0.163352
0.00919574
0.171811
0.00743664
0.181491
0.00569641
0.192478
0.00402342
0.204707
0.00249294
0.217827
0.00121419
0.231008
0.000331064
0.242573
0.249641
0.0276424
0.112681
-0.0289895
0.0262752
0.115958
0.0248849
0.119392
0.0234679
0.123008
0.0220203
0.126837
0.0205388
0.130916
0.0190205
0.135298
0.0174632
0.140057
0.0158653
0.145283
0.0142265
0.151096
0.0125482
0.157636
0.0108347
0.165065
0.00909521
0.173551
0.0073469
0.183239
0.00561979
0.194206
0.00396291
0.206364
0.00245166
0.219338
0.00119367
0.232266
0.000327416
0.243439
0.249968
0.0274146
0.11402
-0.0287532
0.0260558
0.117317
0.0246742
0.120774
0.0232659
0.124417
0.0218272
0.128275
0.0203549
0.132388
0.0188459
0.136807
0.017298
0.141604
0.0157097
0.146872
0.0140806
0.152725
0.0124122
0.159305
0.0107091
0.166769
0.00898084
0.175279
0.00724535
0.184975
0.00553326
0.195918
0.00389422
0.208003
0.00240362
0.220829
0.00116755
0.233502
0.00031993
0.244287
0.250288
0.0271516
0.115348
-0.0284803
0.0258029
0.118666
0.0244316
0.122145
0.0230337
0.125814
0.0216056
0.129703
0.0201441
0.13385
0.0186461
0.138305
0.0171094
0.143141
0.0155324
0.148449
0.0139149
0.154343
0.0122583
0.160961
0.0105676
0.168459
0.00885272
0.176994
0.0071321
0.186696
0.0054371
0.197613
0.00381788
0.209622
0.00234976
0.222297
0.00113718
0.234715
0.000309796
0.245114
0.250598
0.026856
0.116666
-0.0281735
0.0255186
0.120003
0.0241588
0.123505
0.0227727
0.127201
0.0213566
0.13112
0.0199072
0.135299
0.0184218
0.139791
0.0168979
0.144665
0.015334
0.150013
0.0137297
0.155947
0.0120869
0.162604
0.0104105
0.170136
0.00871106
0.178693
0.0070074
0.188399
0.00533156
0.199288
0.00373422
0.211219
0.00229048
0.22374
0.00110308
0.235902
0.000297705
0.245919
0.250896
0.0265302
0.117971
-0.0278358
0.025205
0.121328
0.0238576
0.124852
0.0224842
0.128574
0.0210812
0.132523
0.0196453
0.136735
0.0181737
0.141262
0.0166641
0.146175
0.0151148
0.151562
0.0135256
0.157536
0.0118983
0.164231
0.0102382
0.171796
0.00855607
0.180376
0.00687144
0.190084
0.00521689
0.200943
0.00364349
0.212793
0.00222611
0.225158
0.00106577
0.237063
0.00028425
0.246701
0.25118
0.0261768
0.119265
-0.0274703
0.024864
0.122641
0.0235295
0.126187
0.0221695
0.129934
0.0207804
0.133912
0.019359
0.138156
0.0179024
0.142719
0.0164083
0.147669
0.0148751
0.153095
0.0133026
0.159109
0.0116926
0.165841
0.0100506
0.173438
0.00838793
0.182038
0.00672443
0.191747
0.00509329
0.202574
0.00354597
0.21434
0.00215702
0.226547
0.00102572
0.238194
0.000269842
0.247457
0.25145
0.0257981
0.120547
-0.0270801
0.0244974
0.123942
0.0231759
0.127508
0.0218296
0.13128
0.0204549
0.135286
0.0190488
0.139562
0.0176082
0.144159
0.0161309
0.149146
0.0146152
0.154611
0.0130609
0.160663
0.0114699
0.167432
0.00984808
0.175059
0.00820678
0.18368
0.00656652
0.193388
0.00496098
0.20418
0.00344194
0.215859
0.00208354
0.227905
0.000983271
0.239294
0.000254724
0.248185
0.251705
0.0253961
0.121819
-0.026668
0.0241066
0.125231
0.0227975
0.128818
0.0214648
0.132613
0.0201049
0.136646
0.0187147
0.140953
0.0172911
0.145583
0.0158318
0.150605
0.014335
0.156108
0.0128006
0.162198
0.0112304
0.169002
0.00963056
0.176659
0.00801273
0.185297
0.00639788
0.195002
0.00482017
0.205757
0.00333163
0.217348
0.00200595
0.229231
0.000938695
0.240361
0.000239055
0.248885
0.251944
0.0249719
0.123083
-0.0262359
0.023692
0.126511
0.0223944
0.130115
0.021075
0.133932
0.0197301
0.137991
0.0183564
0.142326
0.0169508
0.146989
0.0155107
0.152046
0.0140344
0.157584
0.0125214