/*--------------------------------*- C++ -*----------------------------------*\
  =========                 |
  \\      /  F ield         | OpenFOAM: The Open Source CFD Toolbox
   \\    /   O peration     | Website:  https://openfoam.org
    \\  /    A nd           | Version:  6.0
     \\/     M anipulation  |
\*---------------------------------------------------------------------------*/
FoamFile
{
    version     2.0;
    format      ascii;
    class       surfaceScalarField;
    location    "22.75";
    object      phi;
}
// * * * * * * * * * * * * * * * * * * * * * * * * * * * * * * * * * * * * * //

dimensions      [0 3 -1 0 0 0 0];

internalField   nonuniform List<scalar> 
4670
(
-0.000187086
-0.0216599
0.021847
-0.000513148
-0.0167833
0.0171094
-0.000853799
-0.013156
0.0134966
-0.00114042
-0.0104677
0.0107543
-0.00133898
-0.00846999
0.00866854
-0.00143889
-0.00697014
0.00707005
-0.00144607
-0.00582255
0.00582973
-0.00137837
-0.00491912
0.00485142
-0.00126266
-0.00418031
0.0040646
-0.00354889
0.00341866
-0.00113243
-0.000171898
-0.021488
-0.000447056
-0.0165082
-0.000695458
-0.0129076
-0.000847608
-0.0103156
-0.000870152
-0.00844745
-0.00075345
-0.00708684
-0.000504622
-0.00607138
-0.000143681
-0.00528006
0.000298395
-0.00462239
-0.00403182
0.000781332
-0.000148134
-0.0213399
-0.000345045
-0.0163113
-0.000460114
-0.0127925
-0.000425367
-0.0103503
-0.000208862
-0.00866395
0.000198588
-0.00749429
0.00079002
-0.00666281
0.00154497
-0.00603501
0.00242951
-0.00550693
-0.00499816
0.00339584
-0.000114372
-0.0212255
-0.00020623
-0.0162194
-0.000148367
-0.0128503
0.000122472
-0.0106211
0.000634998
-0.00917648
0.00139752
-0.00825682
0.00240426
-0.00766954
0.00363654
-0.00726729
0.00506006
-0.00693044
-0.00655849
0.00662038
-6.95041e-05
-0.021156
-2.82065e-05
-0.0162607
0.000242685
-0.0131212
0.000797493
-0.0111759
0.00165846
-0.0100374
0.00283104
-0.00942939
0.00431042
-0.00914893
0.00608192
-0.00903879
0.00811499
-0.00896351
-0.00879567
0.0103522
-1.18381e-05
-0.0211442
0.00019334
-0.0164659
0.000719822
-0.0136477
0.00160781
-0.0120639
0.0028683
-0.0112979
0.00449952
-0.0110606
0.00649488
-0.0111443
0.00884408
-0.011388
0.0115256
-0.011645
-0.0117561
0.014486
6.0735e-05
-0.0212049
0.000463629
-0.0168688
0.00129168
-0.0144758
0.00256549
-0.0133378
0.00427892
-0.0130114
0.00641623
-0.0131979
0.00896197
-0.01369
0.0119058
-0.0143319
0.0152385
-0.0149777
-0.0154407
0.0189232
0.000150056
-0.021355
0.000786372
-0.0175051
0.00196386
-0.0156533
0.00367888
-0.0150528
0.00590266
-0.0152351
0.00859734
-0.0158926
0.0117271
-0.0168198
0.0152687
-0.0178735
0.0192207
-0.0189297
-0.0198127
0.0235927
0.000256956
-0.0216119
0.00116066
-0.0184088
0.00273231
-0.0172249
0.00494205
-0.0172625
0.00773629
-0.0180294
0.0110498
-0.0192061
0.0148142
-0.0205842
0.0189697
-0.0220289
0.0234997
-0.0234598
-0.0248449
0.028532
0.000381233
-0.0219932
0.00157693
-0.0196045
0.00357391
-0.0192219
0.00631814
-0.0200067
0.00973788
-0.0214491
0.013753
-0.0232212
0.0182764
-0.0251076
0.0232061
-0.0269586
0.0284262
-0.0286799
-0.0303059
0.0338872
0.0302223
0.00118678
-0.0314091
0.029031
0.00119127
0.0278622
0.00116889
0.0267412
0.001121
0.0256902
0.001051
0.0247272
0.000962974
0.0238662
0.000860966
0.0231179
0.000748286
0.0224909
0.000627073
0.000497691
0.0401996
0.00370852
-0.0427214
0.0375597
0.00383116
0.0348722
0.00385641
0.0322045
0.00378866
0.0296192
0.00363633
0.0271717
0.0034105
0.0249097
0.003123
0.0228733
0.00278459
0.0210964
0.00240402
0.00198961
0.0489951
0.00688075
-0.0521674
0.0455538
0.00727246
0.0419367
0.00747355
0.0382396
0.00748574
0.0345571
0.00731884
0.0309786
0.00698905
0.0275858
0.00651578
0.0244525
0.0059179
0.0216451
0.00521141
0.00441281
0.0562634
0.0102258
-0.0596085
0.0524967
0.0110391
0.0484063
0.011564
0.0441003
0.0117917
0.0396928
0.0117263
0.0352982
0.0113837
0.0310271
0.0107868
0.0269857
0.00995931
0.0232776
0.0089195
0.00768365
0.0619497
0.0134299
-0.0651538
0.0581944
0.0147944
0.0539751
0.0157833
0.0493973
0.0163695
0.0445798
0.0165439
0.0396491
0.0163144
0.0347343
0.0157016
0.0299663
0.0147274
0.025484
0.0134018
0.0117185
0.0661709
0.0163115
-0.0690525
0.0626444
0.0183209
0.0585403
0.0198874
0.0539484
0.0209614
0.0489789
0.0215134
0.0437561
0.0215372
0.0384128
0.0210449
0.0330897
0.0200505
0.0279497
0.0185418
0.016447
0.0691287
0.0187893
-0.0716065
0.0659524
0.0214972
0.06212
0.0237198
0.0576989
0.0253825
0.0527798
0.0264324
0.0474723
0.0268447
0.0418966
0.0266205
0.0361813
0.0257659
0.0304867
0.0242364
0.0218261
0.071049
0.0208509
-0.0731106
0.0682719
0.0242743
0.0647977
0.027194
0.0606688
0.0295114
0.0559517
0.0311495
0.0507326
0.0320638
0.0451055
0.0322476
0.0391596
0.0317118
0.0330006
0.0303955
0.027868
0.0721419
0.0225259
-0.0738168
0.0697636
0.0266525
0.0666813
0.0302763
0.0629147
0.033278
0.0585069
0.0355573
0.0535198
0.0370509
0.048017
0.0377504
0.0420283
0.0377005
0.0355174
0.0369064
0.0347055
0.0725766
-0.0739191
0.0238684
0.0705642
0.0286649
0.0678686
0.032972
0.0644933
0.0366532
0.0604638
0.0395868
0.055824
0.0416907
0.0506211
0.0429534
0.0448512
0.0434703
0.0383208
0.0434369
0.0427203
0.0367775
-0.00032422
-0.0364533
0.0368994
-0.000121946
0.0368145
8.49882e-05
0.0365255
0.000288947
0.0360418
0.000483667
0.0353786
0.000663259
0.0345563
0.000822278
0.0336003
0.000955964
0.0325401
0.00106026
0.00113098
0.0509371
-0.00149668
-0.0497646
0.051683
-0.000867832
0.0519905
-0.000222519
0.0518541
0.000425364
0.0512777
0.00106002
0.0502764
0.00166458
0.0488767
0.00222195
0.0471169
0.00271578
0.0450459
0.00313127
0.00345553
0.0589626
-0.00346321
-0.0569961
0.060414
-0.0023192
0.0613233
-0.0011318
0.0616689
7.97582e-05
0.0614388
0.0012901
0.0606332
0.00247018
0.0592663
0.00358887
0.0573674
0.00461465
0.0549813
0.00551734
0.00626948
0.0629511
-0.00606682
-0.0603475
0.0650328
-0.00440085
0.0665512
-0.00265017
0.0674683
-0.000837385
0.0677548
0.00100362
0.0673925
0.00283243
0.0663771
0.00460429
0.0647196
0.00627214
0.0624481
0.00778885
0.00910916
0.0644124
-0.00913086
-0.0613484
0.0669914
-0.00697979
0.0690308
-0.00468958
0.0704791
-0.0022857
0.0712933
0.000189372
0.0714407
0.00268504
0.0709002
0.00514482
0.0696641
0.00750823
0.0677402
0.00971274
0.0116956
0.0644046
-0.0125041
-0.0610313
0.0673485
-0.00992376
0.0697926
-0.00713366
0.071675
-0.00416807
0.0729457
-0.00108131
0.0735644
0.00206631
0.0734999
0.00520926
0.0727308
0.00827739
0.0712469
0.0111966
0.01389
0.0636284
-0.0160843
-0.0600482
0.0668349
-0.0131302
0.0695734
-0.00987222
0.0717777
-0.00637239
0.0734
-0.00270359
0.0744013
0.00106505
0.0747479
0.00486267
0.074411
0.00861428
0.0733682
0.0122395
0.0156516
0.0625314
-0.0198348
-0.0587809
0.0659304
-0.0165293
0.0688665
-0.0128082
0.0712827
-0.00878864
0.0731453
-0.00456614
0.0744245
-0.00021417
0.0750903
0.00419685
0.075112
0.00859252
0.0744604
0.0128911
0.0170015
0.0614175
-0.0237783
-0.057474
0.0649382
-0.02005
0.0679718
-0.0158418
0.070494
-0.0113109
0.0724932
-0.00656535
0.0739515
-0.00167244
0.0748438
0.0033046
0.0751401
0.0082962
0.0748082
0.0132229
0.0179929
0.0604783
-0.0564178
-0.0278389
0.0640209
-0.0235925
0.0670342
-0.0188551
0.0695676
-0.0138443
0.07162
-0.00861778
0.0731774
-0.00322983
0.0742165
0.00226554
0.0747081
0.00780453
0.0746201
0.0133109
0.0186939
0.0423559
0.0134188
-0.00813861
-0.0476361
0.0369912
0.0141544
-0.00878972
0.0315434
0.0150288
-0.00958101
0.026029
0.0160895
-0.0105752
0.0204921
0.0173954
-0.0118584
0.0150267
0.0189976
-0.0135323
0.00981313
0.0209026
-0.015689
0.00516905
0.0229978
-0.0183537
0.00162081
0.024922
-0.0213737
0.0258475
-0.0242267
0.0421254
0.0186717
-0.0473783
0.0367866
0.0194932
0.0313638
0.0204516
0.0258739
0.0215794
0.0203612
0.0229082
0.0149206
0.0244382
0.00973357
0.0260896
0.00511903
0.0276123
0.00160145
0.0284395
0.027449
0.0415218
0.023867
-0.0467172
0.0362401
0.0247749
0.0308759
0.0258158
0.0254473
0.027008
0.0200001
0.0283554
0.0146308
0.0298075
0.00952204
0.0311984
0.00499115
0.0321432
0.00155314
0.0318775
0.0290021
0.0405484
0.0289769
-0.0456584
0.0353536
0.0299697
0.0300806
0.0310888
0.0247498
0.0323389
0.0194092
0.033696
0.014158
0.0350587
0.0091796
0.0361768
0.00478693
0.0365359
0.00147774
0.0351867
0.0304799
0.0392081
0.0339759
-0.0442071
0.0341286
0.0350492
0.0289789
0.0362385
0.0237822
0.0375356
0.0185898
0.0388884
0.013504
0.0401445
0.00870839
0.0409723
0.00450844
0.0407359
0.00137646
0.0383187
0.0318563
0.0375004
0.03884
-0.0423645
0.0325643
0.0399853
0.0275704
0.0412324
0.0225453
0.0425608
0.0175439
0.0438898
0.0126716
0.0450168
0.00811168
0.0455322
0.00415849
0.0446891
0.00125076
0.0412265
0.0331071
0.0354181
0.0435447
-0.0401228
0.0306552
0.0447482
0.0258527
0.0460349
0.0210395
0.047374
0.0162741
0.0486552
0.0116651
0.0496257
0.00739426
0.0498031
0.00374106
0.0483422
0.00110259
0.0438649
0.0342097
0.0329419
0.0480581
-0.0374553
0.0283895
0.0493007
0.0238216
0.0506027
0.019266
0.0519296
0.014785
0.0531362
0.0104912
0.0539196
0.0065631
0.0537311
0.00326176
0.0516436
0.000934616
0.0461921
0.0351443
0.0300257
0.0523432
-0.0343109
0.0257462
0.0535803
0.0214743
0.0548746
0.0172303
0.0561737
0.0130862
0.0572802
0.00916062
0.0578452
0.00562859
0.0572632
0.00272854
0.0545436
0.000750757
0.0481699
0.0358951
0.0266187
-0.0306932
0.0227249
0.0188187
0.0149441
0.011193
0.00768981
0.00460544
0.00215299
0.000558229
0.0246469
-0.0358331
0.0401026
-0.0289164
0.0206619
-0.0356356
0.0396205
0.0168201
-0.035104
0.0389458
0.0131453
-0.034064
0.0377388
0.00971189
-0.0321904
0.0356238
0.00661739
-0.0290079
0.0321024
0.00397607
-0.0238671
0.0265084
0.001909
-0.0159244
0.0179915
0.000537602
-0.00413524
0.00550663
0.0128099
-0.0122723
0.028077
-0.0315075
-0.0324027
0.0238029
-0.0313614
0.0196144
-0.0309155
0.0155524
-0.0300021
0.0116906
-0.0283286
0.00813174
-0.025449
0.00500672
-0.0207421
0.00247417
-0.0133918
0.000723416
-0.00238448
0.0135333
0.0310894
-0.0270286
-0.0355684
0.0265891
-0.0268611
0.0221197
-0.0264461
0.0177324
-0.0256148
0.0135008
-0.0240969
0.00953114
-0.0214794
0.00596897
-0.0171799
0.00300712
-0.01043
0.000899541
-0.0002769
0.0144328
0.0337181
-0.0223809
-0.0383657
0.0290248
-0.0221677
0.0243243
-0.0217456
0.019665
-0.0209556
0.0151185
-0.0195505
0.0107926
-0.0171535
0.00684432
-0.0132316
0.00349652
-0.0070822
0.00106293
0.00215669
0.0154957
0.0360024
-0.0175732
-0.0408101
0.0311359
-0.0173012
0.0262371
-0.0168468
0.0213475
-0.016066
0.0165339
-0.0147369
0.0119032
-0.0125227
0.00762044
-0.0089489
0.00393375
-0.00339551
0.00121011
0.00488033
0.0167059
0.037949
-0.0126213
-0.0429009
0.0329299
-0.0122821
0.0278616
-0.0117785
0.0227783
-0.0109828
0.0177412
-0.00969976
0.0128545
-0.00763599
0.00828859
-0.00438301
0.00431218
0.000580896
0.00133818
0.00785434
0.018044
0.0395524
-0.00754681
-0.0446269
0.0344051
-0.0071347
0.0291965
-0.00656988
0.0239549
-0.0057412
0.0187357
-0.0044806
0.0136402
-0.00254049
0.00884222
0.000414981
0.00462671
0.00479641
0.00144483
0.0110362
0.0194889
0.0408036
-0.00237554
-0.0459749
0.0355555
-0.00188662
0.0302375
-0.00125189
0.0248731
-0.000376728
0.0195128
0.000879607
0.0142552
0.00271715
0.00927618
0.00539402
0.00487337
0.00919922
0.00152826
0.0143813
0.0210171
0.0416932
0.00286336
-0.0469321
0.0363744
0.00343212
0.0309796
0.00414297
0.0255284
0.00507438
0.0200683
0.00633975
0.0146951
0.00809034
0.00958644
0.0105027
0.00504924
0.0137364
0.00158731
0.0178433
0.0226044
0.0422135
-0.0474887
0.0368559
0.0314178
0.025917
0.0203983
0.0149564
0.00977008
0.00515277
0.00162229
0.0442498
0.0213646
-0.0255118
0.0477536
0.0174308
-0.0209345
0.0506684
0.0130012
-0.015916
0.0530433
0.00824892
-0.0106238
0.0548664
0.00331878
-0.00514183
0.0561088
-0.00168871
0.00044626
0.0567319
-0.00667173
0.00604862
0.0566941
-0.0115169
0.0115547
0.0559576
-0.0160993
0.0168359
-0.0202853
0.0544947
0.0217482
0.0434855
0.0174996
0.0468952
0.014021
0.0497561
0.0101403
0.0520309
0.00597415
0.053698
0.00165165
0.0547283
-0.00271901
0.055087
-0.00703043
0.05474
-0.0111699
0.0536604
-0.0150197
-0.0184607
0.0518358
0.0425307
0.0139147
0.0457178
0.0108339
0.0483783
0.00747987
0.0504386
0.00391384
0.0518551
0.000235144
0.0525916
-0.00345554
0.0526166
-0.00705535
0.0519058
-0.0104591
0.0504481
-0.013562
-0.0162643
0.0482517
0.0410504
0.0106032
0.043933
0.00795131
0.0462825
0.00513037
0.0480195
0.00217684
0.04909
-0.000835367
0.0494556
-0.00382115
0.049091
-0.00669075
0.0479858
-0.00935392
0.0461483
-0.0117246
-0.013726
0.04361
0.0386186
0.00760832
0.0411304
0.00543955
0.0430836
0.00317719
0.0444101
0.000850276
0.0450607
-0.00148595
0.0450041
-0.00376454
0.0442275
-0.00591418
0.0427383
-0.00786471
0.0405662
-0.00955246
-0.010925
0.0377653
0.0347045
0.00500628
0.0367781
0.00336588
0.0382708
0.00168453
0.0391335
-1.24013e-05
0.0393321
-0.00168462
0.0388513
-0.00328371
0.0376961
-0.00475894
0.0358935
-0.00606217
0.0334935
-0.00715243
-0.00799953
0.030568
0.0286313
0.00288338
0.0302101
0.00178717
0.0312116
0.000683038
0.0316087
-0.000409559
0.0313881
-0.00146402
0.0305541
-0.00244971
0.0291308
-0.00333568
0.0271628
-0.00409418
0.0247141
-0.00470368
-0.00515102
0.0218656
0.0195603
0.00131455
0.0206197
0.00072778
0.0211546
0.000148089
0.0211588
-0.000413747
0.0206386
-0.000943838
0.0196158
-0.00142689
0.0181284
-0.00184828
0.0162302
-0.00219591
0.0139883
-0.00246178
-0.00264311
0.0114803
0.00647485
0.000346336
0.00704313
0.000159499
0.00721118
-1.99642e-05
0.00698735
-0.000189913
0.00638972
-0.000346207
0.00544723
-0.000484397
0.00419949
-0.000600535
0.00269532
-0.00069174
0.00099027
-0.000756731
-0.00079688
-0.000855964
-0.0119259
-0.0117664
-0.0117864
-0.0119763
-0.0123225
-0.0128069
-0.0134074
-0.0140992
-0.0148559
-0.0156528
0.0522978
-0.0239573
0.0261542
0.0493829
-0.026955
0.0298699
0.0457998
-0.0292022
0.0327853
0.0416317
-0.0306495
0.0348176
0.0369871
-0.0313065
0.0359511
0.0319823
-0.0312432
0.036248
0.0267095
-0.0305674
0.0358403
0.0211851
-0.0293606
0.0348849
0.0152906
-0.0274908
0.0333853
-0.0240284
0.00851195
0.0308071
0.0492772
-0.0213986
0.0460227
-0.0237006
0.0421445
-0.0253239
0.037744
-0.026249
0.0329417
-0.0265043
0.0278571
-0.0261586
0.0225804
-0.0252907
0.0171439
-0.0239241
0.0115503
-0.0218972
-0.0186159
0.0061378
0.0453504
-0.0184973
0.0418075
-0.0201576
0.037716
-0.0212325
0.0331929
-0.0217259
0.0283664
-0.0216778
0.0233587
-0.0211509
0.0182687
-0.0202007
0.0131716
-0.018827
0.00818272
-0.0169083
-0.0141466
0.00371345
0.0404281
-0.0153154
0.0366886
-0.0164182
0.0325011
-0.017045
0.0279911
-0.0172158
0.0232879
-0.0169746
0.0185119
-0.0163749
0.0137672
-0.015456
0.00915336
-0.0142132
0.0048185
-0.0125735
-0.0104109
0.00108273
0.0344125
-0.0119626
0.0306105
-0.0126162
0.0264765
-0.012911
0.0221354
-0.0128747
0.0177094
-0.0125486
0.0133098
-0.0119752
0.00903562
-0.0111818
0.00498737
-0.0101649
0.00130056
-0.00888666
-0.00730451
-0.0018058
0.0272058
-0.00860043
0.0235163
-0.00892665
0.0196138
-0.00900849
0.0156125
-0.00887346
0.0116191
-0.00855518
0.00772806
-0.00808419
0.00402414
-0.00747793
0.000593412
-0.00673418
-0.00245831
-0.00583494
-0.00477077
-0.00499204
0.0187065
-0.00544137
0.0153416
-0.0055617
0.011871
-0.00553797
0.00838958
-0.005392
0.0049814
-0.005147
0.00171914
-0.00482193
-0.00133255
-0.00442624
-0.00410886
-0.00395787
-0.00653574
-0.00340806
-0.0027767
-0.00852981
0.00878339
-0.00274442
0.00598569
-0.002764
0.00316441
-0.00271668
0.00038838
-0.00261597
-0.0022841
-0.00247452
-0.00480442
-0.00230161
-0.0071297
-0.00210096
-0.00921714
-0.00187043
-0.0110198
-0.00160539
-0.00130693
-0.0124896
-0.00278924
-0.000811138
-0.00474869
-0.000804548
-0.00668587
-0.000779501
-0.00856023
-0.000741612
-0.0103397
-0.000695085
-0.0119986
-0.000642623
-0.0135147
-0.000584864
-0.0148648
-0.000520388
-0.016023
-0.000447184
-0.000366748
-0.0169632
-0.0164639
-0.0172685
-0.018048
-0.0187896
-0.0194847
-0.0201273
-0.0207122
-0.0212325
-0.0216797
-0.0220465
0.000266759
-0.0223132
0.000974875
-0.0176713
0.00208824
-0.0136029
0.0035973
-0.0100389
0.00550057
-0.00689531
0.00779398
-0.00409921
0.0104641
-0.0015874
0.013478
0.000699587
0.016789
0.00282676
0.00488251
0.0204184
0.000180226
-0.0224935
0.000664304
-0.0181554
0.0014362
-0.0143748
0.00249291
-0.0110956
0.00383367
-0.00823606
0.00545479
-0.00572033
0.00735001
-0.00348262
0.00951871
-0.00146911
0.0119973
0.000348137
0.00193025
0.0149496
9.85907e-05
-0.0225921
0.000381625
-0.0184384
0.000854502
-0.0148477
0.00152754
-0.0117686
0.00241151
-0.00912003
0.00351703
-0.00682585
0.00485759
-0.00482319
0.0064559
-0.00306742
0.00834977
-0.00154574
-0.000299276
0.0105793
2.64391e-05
-0.0226185
0.000135626
-0.0185476
0.000355618
-0.0150677
0.000711235
-0.0121242
0.00122444
-0.00963324
0.00191564
-0.00751705
0.00280608
-0.00571363
0.00391943
-0.00418078
0.00527732
-0.00290362
-0.00189909
0.00687713
-3.53825e-05
-0.0225831
-7.20878e-05
-0.0185109
-6.04662e-05
-0.0150793
3.70847e-05
-0.0122218
0.000250142
-0.0098463
0.000602666
-0.00786957
0.00111469
-0.00622566
0.00180201
-0.0048681
0.0026708
-0.00377241
-0.00293417
0.00370588
-8.69528e-05
-0.0224962
-0.000242026
-0.0183558
-0.000396356
-0.014925
-0.000502295
-0.0121159
-0.000526202
-0.00982239
-0.000444744
-0.00795103
-0.000242811
-0.00642759
8.65959e-05
-0.0051975
0.000539431
-0.00422525
-0.0034907
0.00109596
-0.000128236
-0.0223679
-0.000374231
-0.0181098
-0.000652716
-0.0146465
-0.000908592
-0.01186
-0.00110662
-0.00962436
-0.00122607
-0.00783158
-0.00125749
-0.00639618
-0.00120108
-0.00525391
-0.00106718
-0.00435915
-0.0036807
-0.000877173
-0.000158832
-0.0222091
-0.000467712
-0.0178009
-0.000827744
-0.0142865
-0.00117835
-0.0115094
-0.00148403
-0.00931869
-0.00172719
-0.00758842
-0.0019035
-0.00621986
-0.0020189
-0.00513851
-0.00208812
-0.00428993
-0.00363511
-0.00213372
-0.000177991
-0.0220311
-0.000520966
-0.017458
-0.000918853
-0.0138886
-0.00130684
-0.0111214
-0.00164965
-0.00897588
-0.00193264
-0.00730544
-0.00215582
-0.00599668
-0.0023298
-0.00496453
-0.0024732
-0.00414653
-0.00349765
-0.00261066
-0.000184075
-0.000532657
-0.000924639
-0.0012917
-0.00159903
-0.00183441
-0.00200136
-0.00211447
-0.00219639
-0.00227538
-0.000937611
-0.00939113
0.00919631
0.00178495
-0.0110207
0.0082981
0.00553908
-0.0115263
0.0077722
0.0099027
-0.0127569
0.00839332
0.0145356
-0.0140428
0.00940992
0.0191252
-0.0153625
0.010773
0.0235267
-0.0169993
0.0125977
0.0276156
-0.0187754
0.0146865
0.0313338
-0.0203812
0.0166631
0.03466
-0.0207028
0.0173766
0.0376501
-0.0191587
0.0161685
0.0403533
-0.0132594
0.0105561
0.0429145
-0.00550103
0.00293992
0.0453424
0.00579897
-0.00822687
0.0478098
0.00942424
-0.0118917
0.0499362
0.000645771
-0.00277215
0.0517059
-0.0190174
0.0172478
0.0523861
-0.0533341
0.0526539
0.0530168
-0.0311252
0.0304945
0.00568502
-0.00652789
0.00150063
-0.0101104
0.00442064
-0.0139407
0.00824344
-0.0153491
0.0125331
-0.0170467
0.017013
-0.0185227
0.0214062
-0.0197557
0.0255824
-0.0211755
0.0294305
-0.0226235
0.0329006
-0.0238513
0.035985
-0.0237871
0.0387531
-0.0219268
0.0412802
-0.0157865
0.0437227
-0.00794353
0.0461025
0.00341915
0.0485538
0.00697296
0.0506424
-0.00144281
0.0523208
-0.0206959
0.0528175
-0.0538308
0.0532859
-0.0315936
0.00487478
0.00477672
-0.0114913
0.00786932
-0.0170333
0.0116941
-0.019174
0.0158142
-0.0211667
0.0200374
-0.0227459
0.0241383
-0.0238566
0.0280058
-0.025043
0.0315447
-0.0261624
0.0347128
-0.0270194
0.0375138
-0.0265882
0.0400269
-0.02444
0.0423492
-0.0181088
0.0446451
-0.0102394
0.0469484
0.00111581
0.0493563
0.00456511
0.0513907
-0.00347727
0.0529767
-0.0222818
0.0533108
-0.0541649
0.0536403
-0.0319231
0.00407538
0.00875712
-0.013628
0.0119734
-0.0202495
0.0157123
-0.0229129
0.0195663
-0.0250207
0.0234389
-0.0266185
0.0271667
-0.0275843
0.0306595
-0.0285359
0.033839
-0.0293419
0.0366691
-0.0298495
0.0391623
-0.0290813
0.0414033
-0.026681
0.0435055
-0.020211
0.0456376
-0.0123715
0.0478438
-0.00109039
0.0501867
0.0022222
0.0521558
-0.00544635
0.0536531
-0.0237791
0.0538521
-0.0543639
0.054072
-0.032143
0.00326196
0.013278
-0.0165539
0.0165411
-0.0235126
0.0200835
-0.0264553
0.0235766
-0.0285139
0.0270191
-0.030061
0.0303124
-0.0308776
0.0333863
-0.0316099
0.0361773
-0.0321328
0.0386537
-0.0323259
0.0408332
-0.0312608
0.0428019
-0.0286496
0.0446836
-0.0220927
0.0466472
-0.0143352
0.0487452
-0.0031884
0.0510093
-4.19449e-05
0.0529087
-0.00734573
0.054328
-0.0251984
0.054426
-0.0544619
0.0545716
-0.0322886
0.00240672
0.0181483
-0.0202162
0.0213515
-0.0267158
0.0245682
-0.029672
0.0276113
-0.0315569
0.0305634
-0.0330131
0.0333846
-0.0336989
0.0360196
-0.0342448
0.0384158
-0.034529
0.0405436
-0.0344538
0.0424223
-0.0331395
0.0441355
-0.0303629
0.0458116
-0.0237687
0.0476154
-0.0161389
0.0496053
-0.00517831
0.0517863
-0.00222294
0.0536196
-0.00917904
0.0549783
-0.0265571
0.0550159
-0.0544996
0.0551282
-0.0324008
0.00147861
0.0231422
-0.0244352
0.0261485
-0.0297221
0.028906
-0.0324296
0.0314249
-0.0340758
0.0338522
-0.0354403
0.0361911
-0.0360378
0.0383931
-0.0364468
0.0404116
-0.0365475
0.0422164
-0.0362586
0.0438251
-0.0347482
0.0453158
-0.0318536
0.0468156
-0.0252685
0.0484816
-0.0178049
0.0503753
-0.00707201
0.052479
-0.00432667
0.0542584
-0.0109584
0.0555811
-0.0278798
0.0556046
-0.0545231
0.0557298
-0.032526
0.000443361
0.028001
-0.0288435
0.0306385
-0.0323596
0.0328208
-0.0346119
0.0347698
-0.0360249
0.0366706
-0.0373411
0.0385476
-0.0379148
0.0403496
-0.0382487
0.0420303
-0.0382282
0.0435567
-0.0377849
0.0449424
-0.0361339
0.0462578
-0.033169
0.0476238
-0.0266345
0.0491865
-0.0193676
0.0510075
-0.008893
0.0530504
-0.00636957
0.0547965
-0.0127046
0.0561144
-0.0291977
0.0561749
-0.0545835
0.0563638
-0.0327149
-0.000736273
0.0325556
-0.0328672
0.0345774
-0.0343813
0.0360829
-0.0361174
0.0374449
-0.0373869
0.0388471
-0.0387434
0.0403075
-0.0393751
0.0417632
-0.0397044
0.0431634
-0.0396284
0.0444702
-0.0390917
0.0456916
-0.0373553
0.0468889
-0.0343663
0.0481732
-0.0279188
0.0496766
-0.020871
0.051458
-0.0106744
0.0534659
-0.00837753
0.0552077
-0.0144464
0.056558
-0.030548
0.0567105
-0.054736
0.0570175
-0.033022
-0.00210004
0.0368781
-0.0358581
0.0379025
-0.0354057
0.0385934
-0.0368082
0.0393668
-0.0381603
0.0403058
-0.0396824
0.0414008
-0.0404701
0.0425685
-0.0408721
0.0437492
-0.0408091
0.0448993
-0.0402418
0.0460184
-0.0384744
0.0471586
-0.0355066
0.0484165
-0.0291767
0.049909
-0.0223635
0.05169
-0.0124554
0.0536947
-0.0103823
0.0554687
-0.0162204
0.0568921
-0.0319714
0.0571963
-0.0550403
0.0576784
-0.033504
-0.00368968
0.117909
-0.0273041
-0.126463
0.113395
-0.0308925
0.110807
-0.0342201
0.109308
-0.0366609
0.108338
-0.0387125
0.107777
-0.039909
0.107428
-0.0405227
0.107147
-0.0405283
0.106802
-0.0398967
0.106352
-0.0380252
0.105844
-0.0349985
0.105553
-0.0288852
0.105783
-0.0225936
0.106922
-0.0135949
0.108925
-0.0123852
0.110715
-0.0180103
0.111661
-0.0329167
0.109832
-0.0532112
0.108019
-0.0316911
-0.00433958
0.165293
-0.0167326
-0.175864
0.157084
-0.0226834
0.151323
-0.0284593
0.147247
-0.0325853
0.144138
-0.0356029
0.141756
-0.0375268
0.139835
-0.0386017
0.138175
-0.038869
0.136616
-0.0383379
0.135087
-0.0364962
0.133626
-0.033537
0.132502
-0.0277615
0.132013
-0.0221046
0.132591
-0.0141722
0.134074
-0.0138689
0.135366
-0.0193022
0.135666
-0.0332165
0.133002
-0.0505474
0.130417
-0.0291063
-0.0047064
0.216587
-0.00615314
-0.227167
0.207551
-0.0136468
0.199829
-0.020738
0.193547
-0.0263028
0.188321
-0.0303767
0.183953
-0.0331588
0.180218
-0.0348671
0.176917
-0.035568
0.173893
-0.0353132
0.171063
-0.0336662
0.168462
-0.0309359
0.166346
-0.0256457
0.164971
-0.0207295
0.164783
-0.0139851
0.165471
-0.0145561
0.165968
-0.0197999
0.165317
-0.0325657
0.161657
-0.0468866
0.158209
-0.0256584
-0.00467521
0.26815
0.0022929
-0.276596
0.260359
-0.00585528
0.252647
-0.0130264
0.245501
-0.0191568
0.23903
-0.0239057
0.233209
-0.0273382
0.227954
-0.0296112
0.223151
-0.0307657
0.218715
-0.0308766
0.214599
-0.0295504
0.210862
-0.0271994
0.207752
-0.0225358
0.205454
-0.0184311
0.204396
-0.012927
0.204056
-0.0142166
0.203487
-0.0192301
0.201577
-0.0306559
0.196828
-0.0421375
0.19254
-0.0213712
-0.00416121
0.317805
0.00754329
-0.323055
0.31224
-0.000290012
0.306081
-0.0068674
0.299595
-0.0126714
0.293165
-0.0174751
0.286956
-0.0211298
0.281022
-0.0236769
0.275366
-0.0251099
0.27001
-0.0255206
0.264994
-0.0245342
0.260431
-0.022636
0.256585
-0.0186901
0.253551
-0.0153978
0.251711
-0.0110865
0.25029
-0.0127953
0.248515
-0.0174558
0.24516
-0.0273006
0.239354
-0.0363318
0.234444
-0.0164611
-0.00316705
0.366573
0.00965118
-0.368681
0.363269
0.0030143
0.359083
-0.00268175
0.354079
-0.00766697
0.348593
-0.0119893
0.342911
-0.0154477
0.337185
-0.017951
0.3315
-0.0194251
0.325958
-0.019979
0.32069
-0.0192658
0.315858
-0.0178038
0.31177
-0.0146022
0.308419
-0.0120469
0.306122
-0.00878963
0.303844
-0.0105171
0.300994
-0.0146059
0.296282
-0.0225891
0.289618
-0.0296673
0.284547
-0.0113898
-0.00184776
0.417468
0.00932044
-0.417137
0.416091
0.00439144
0.413602
-0.000193097
0.410116
-0.00418059
0.40582
-0.00769413
0.401003
-0.0106305
0.395896
-0.0128435
0.390655
-0.0141838
0.385427
-0.0147514
0.380415
-0.0142539
0.375797
-0.0131861
0.371933
-0.0107381
0.368712
-0.00882549
0.366385
-0.0064626
0.363705
-0.00783775
0.360196
-0.0110964
0.354579
-0.0169721
0.3474
-0.0224883
0.342822
-0.00681224
-0.000537324
0.47391
0.00729099
-0.47188
0.474157
0.00414426
0.473046
0.000917876
0.470804
-0.00193913
0.467565
-0.00445469
0.463548
-0.00661408
0.459018
-0.00831341
0.454214
-0.00937933
0.449331
-0.00986872
0.444644
-0.00956664
0.440328
-0.00887044
0.436798
-0.00720793
0.43387
-0.00589723
0.43174
-0.00433307
0.429077
-0.00517379
0.425396
-0.00741571
0.419539
-0.0111149
0.412198
-0.0151477
0.408728
-0.00334237
0.000337133
0.539724
0.00408373
-0.536516
0.541302
0.00256546
0.541346
0.000874199
0.540072
-0.000665433
0.537636
-0.00201806
0.534213
-0.00319134
0.530046
-0.00414684
0.525437
-0.00476949
0.52064
-0.005072
0.516013
-0.00493924
0.511737
-0.00459446
0.508279
-0.00375012
0.505442
-0.00306092
0.503385
-0.00227551
0.500835
-0.00262406
0.497203
-0.00378377
0.491579
-0.00549039
0.484197
-0.0077664
0.482052
-0.00119654
0.000479886
0.620109
-0.616025
0.622674
0.623549
0.622883
0.620865
0.617674
0.613527
0.608757
0.603685
0.598746
0.594152
0.590402
0.587341
0.585065
0.582441
0.578657
0.573167
0.565401
0.564204
0.167603
0.0228925
-0.166627
0.1678
0.0284681
0.167035
0.0337372
0.165121
0.0385668
0.161892
0.0428162
0.157232
0.0463504
0.151126
0.0490598
0.143708
0.050888
0.135339
0.0518059
0.0515966
0.191869
0.0209229
-0.189899
0.193526
0.026811
0.194723
0.0325404
0.195288
0.0380015
0.195035
0.0430692
0.193776
0.0476093
0.191343
0.0514925
0.187612
0.054619
0.182461
0.0569572
0.0581934
0.217601
0.018401
-0.21508
0.220239
0.0241732
0.222898
0.0298812
0.225447
0.0354529
0.227712
0.0408046
0.229479
0.0458417
0.230511
0.0504612
0.230576
0.0545535
0.229498
0.0580356
0.0605243
0.246128
0.0157367
-0.243464
0.249185
0.0211161
0.252593
0.0264736
0.256282
0.0317633
0.260155
0.0369313
0.264082
0.0419152
0.2679
0.0466431
0.271419
0.0510341
0.274433
0.0550221
0.058361
0.278511
0.0130768
-0.275851
0.281742
0.0178854
0.285534
0.0226814
0.289866
0.0274315
0.294698
0.0320998
0.299966
0.0366468
0.30558
0.0410294
0.311414
0.0451997
0.317325
0.0491108
0.0526313
0.315552
0.0104502
-0.312926
0.318883
0.0145549
0.322916
0.0186481
0.327644
0.0227036
0.333049
0.0266943
0.339104
0.030592
0.345766
0.0343674
0.352976
0.0379896
0.360661
0.0414262
0.044611
0.35816
0.0078641
-0.355573
0.36157
0.011144
0.365805
0.0144134
0.370858
0.0176512
0.376716
0.0208361
0.383361
0.0239464
0.390768
0.0269605
0.398901
0.0298565
0.407715
0.0326122
0.0351891
0.407742
0.00530261
-0.40518
0.411251
0.00763462
0.415706
0.00995888
0.421097
0.0122599
0.427411
0.0145222
0.434627
0.01673
0.44272
0.0188681
0.451655
0.0209211
0.461394
0.0228738
0.0247025
0.466432
0.00271528
-0.463845
0.470103
0.00396387
0.474853
0.00520889
0.480671
0.00644173
0.487539
0.00765372
0.495433
0.00883623
0.50432
0.00998077
0.514163
0.011079
0.524914
0.0121226
0.0130999
0.537639
-0.534923
0.541602
0.546811
0.553253
0.560907
0.569743
0.579724
0.590803
0.602925
0.143425
-0.0301878
-0.141076
0.146273
-0.0264412
0.149233
-0.0218152
0.152208
-0.016819
0.155124
-0.0115333
0.157936
-0.00604214
0.160584
-0.000382408
0.162985
0.00540299
0.16504
0.0112561
0.0171069
0.170844
-0.0318552
-0.169177
0.172666
-0.0282628
0.174594
-0.023743
0.176628
-0.0188536
0.178751
-0.013656
0.180948
-0.0082394
0.183204
-0.00263795
0.185485
0.0031219
0.18774
0.00900055
0.0149478
0.202166
-0.0323119
-0.20171
0.202812
-0.0289086
0.203592
-0.0245225
0.204541
-0.0198033
0.205705
-0.0148193
0.207099
-0.00963371
0.208735
-0.00427391
0.210617
0.0012397
0.212739
0.00687873
0.0126073
0.237249
-0.0314632
-0.238098
0.236588
-0.0282469
0.236193
-0.0241275
0.236098
-0.0197081
0.236348
-0.0150692
0.236968
-0.0102542
0.237976
-0.00528216
0.239388
-0.000172125
0.241216
0.00505123
0.0103593
0.27604
-0.0293065
-0.278197
0.274112
-0.0263186
0.27259
-0.0226054
0.271517
-0.0186353
0.270926
-0.014478
0.270838
-0.0101662
0.271271
-0.00571516
0.272241
-0.00114276
0.273764
0.00352813
0.00827226
0.319129
-0.0258615
-0.322574
0.316025
-0.0232145
0.313452
-0.0200331
0.311461
-0.0166441
0.310078
-0.0130949
0.309322
-0.00941063
0.309213
-0.00560579
0.309768
-0.00169724
0.311001
0.00229463
0.00634764
0.367563
-0.0211647
-0.37226
0.363348
-0.0189994
0.35978
-0.0164649
0.356907
-0.0137706
0.354757
-0.010945
0.353352
-0.00800622
0.352714
-0.00496788
0.352862
-0.00184494
0.353811
0.00134556
0.00458527
0.422781
-0.015265
-0.42868
0.417498
-0.0137169
0.412967
-0.011934
0.409235
-0.0100381
0.406334
-0.00804457
0.404294
-0.00596581
0.403139
-0.00381265
0.40289
-0.0015967
0.403567
0.000669273
0.00297166
0.486913
-0.00820141
-0.493976
0.480581
-0.00738516
0.475096
-0.00644962
0.47051
-0.00545182
0.466864
-0.0043987
0.464195
-0.00329672
0.462535
-0.00215213
0.46191
-0.000971583
0.462341
0.000237745
0.00146823
0.563323
-0.571524
0.555938
0.549488
0.544036
0.539638
0.536341
0.534189
0.533217
0.533455
0.126774
0.00231504
-0.00222359
0.126517
0.00702371
-0.00676659
0.126101
0.0121356
-0.0117194
0.125528
0.0180334
-0.0174602
0.124852
0.0250759
-0.0244
0.124129
0.0343139
-0.0335913
0.123823
0.0456373
-0.0453306
0.124093
0.0633705
-0.063641
0.12883