/*--------------------------------*- C++ -*----------------------------------*\
  =========                 |
  \\      /  F ield         | OpenFOAM: The Open Source CFD Toolbox
   \\    /   O peration     | Website:  https://openfoam.org
    \\  /    A nd           | Version:  6.0
     \\/     M anipulation  |
\*---------------------------------------------------------------------------*/
FoamFile
{
    version     2.0;
    format      ascii;
    class       volVectorField;
    location    "3.5";
    object      U;
}
// * * * * * * * * * * * * * * * * * * * * * * * * * * * * * * * * * * * * * //

dimensions      [0 1 -1 0 0 0 0];

internalField   nonuniform List<vector> 
9600
(
(0.976148 -14.3407 -1.72777e-20)
(0.235585 -13.483 -1.85538e-20)
(0.218302 -12.7029 2.31227e-21)
(0.262307 -11.9769 -1.10115e-20)
(0.260406 -11.2996 4.83424e-21)
(0.255566 -10.6595 -3.52204e-21)
(0.253045 -10.0514 -7.28105e-21)
(0.249823 -9.47343 7.01131e-21)
(0.245615 -8.92513 2.17086e-21)
(0.240799 -8.40618 -3.52779e-20)
(0.235597 -7.91622 1.88214e-20)
(0.230176 -7.4547 -1.60899e-20)
(0.224696 -7.02083 -6.91477e-21)
(0.219306 -6.61361 9.03864e-21)
(0.214138 -6.23184 -5.99721e-21)
(0.209279 -5.87411 -3.07369e-21)
(0.204771 -5.53884 5.21092e-21)
(0.200907 -5.22435 -6.14933e-21)
(0.198302 -4.92895 -1.53637e-21)
(0.194557 -4.65111 -2.98292e-21)
(1.53728 -14.292 -1.78602e-19)
(0.76581 -13.4696 -9.07454e-20)
(0.718487 -12.6944 4.40993e-20)
(0.734091 -11.969 -5.46715e-20)
(0.705686 -11.2928 1.44253e-20)
(0.67576 -10.6532 -1.54212e-20)
(0.649354 -10.0449 6.14206e-20)
(0.62341 -9.4666 -2.0688e-21)
(0.597649 -8.91801 -3.71666e-20)
(0.572449 -8.39886 4.6124e-20)
(0.548023 -7.9088 2.23474e-20)
(0.524518 -7.44729 -1.67952e-21)
(0.502062 -7.01356 2.56989e-20)
(0.480764 -6.60662 -1.45012e-21)
(0.460711 -6.22525 9.58237e-21)
(0.441933 -5.86805 2.36864e-20)
(0.424411 -5.53341 9.52474e-21)
(0.408421 -5.21961 1.29875e-20)
(0.394621 -4.9248 -6.00632e-21)
(0.380229 -4.64748 1.20316e-20)
(2.09725 -14.2224 2.91397e-19)
(1.29516 -13.4356 1.94144e-19)
(1.21814 -12.6663 -2.7349e-19)
(1.20556 -11.9425 -1.24063e-19)
(1.15076 -11.2684 9.79259e-20)
(1.09577 -10.6301 1.65433e-19)
(1.04547 -10.0226 -1.95423e-19)
(0.996777 -9.44496 4.69245e-20)
(0.949437 -8.89696 -8.70727e-20)
(0.903831 -8.37842 -5.71879e-20)
(0.860168 -7.88905 4.94826e-20)
(0.818577 -7.4283 -2.62394e-20)
(0.779152 -6.99541 -6.91385e-20)
(0.741966 -6.58939 3.63866e-20)
(0.707057 -6.20904 -1.15647e-20)
(0.674399 -5.85296 -1.28506e-21)
(0.643915 -5.51953 1.21567e-20)
(0.615858 -5.20696 2.38835e-20)
(0.590912 -4.91327 -2.82748e-20)
(0.565874 -4.63702 2.31776e-20)
(2.65354 -14.1311 -1.58078e-19)
(1.82254 -13.3811 7.3929e-20)
(1.71639 -12.6188 9.3302e-20)
(1.67594 -11.8978 1.25294e-19)
(1.59491 -11.2267 -4.19548e-20)
(1.51493 -10.5907 3.36055e-20)
(1.44075 -9.98487 -2.48231e-20)
(1.36932 -9.40871 5.36985e-20)
(1.30041 -8.86214 1.16346e-19)
(1.23441 -8.34504 -6.80325e-20)
(1.17153 -7.85713 -4.07646e-20)
(1.11188 -7.39787 -4.25934e-20)
(1.05552 -6.9665 -1.4083e-20)
(1.00249 -6.56205 3.31061e-20)
(0.952774 -6.18333 -2.01733e-20)
(0.906302 -5.82894 -6.3531e-20)
(0.862931 -5.49727 4.84056e-20)
(0.822892 -5.18645 -3.00832e-20)
(0.786879 -4.89443 -2.92051e-21)
(0.751228 -4.61979 -2.54875e-21)
(3.2061 -14.0185 -2.01185e-19)
(2.34767 -13.3065 -3.41516e-19)
(2.21272 -12.5521 3.8813e-19)
(2.14456 -11.8347 -1.0719e-19)
(2.03747 -11.1676 -2.93679e-19)
(1.93259 -10.5348 -6.7396e-21)
(1.83458 -9.93157 -1.06415e-19)
(1.74044 -9.35778 -2.89655e-20)
(1.64999 -8.81351 -7.12144e-20)
(1.56364 -8.29868 1.61572e-19)
(1.48158 -7.81301 -2.16535e-19)
(1.40393 -7.35599 5.41177e-20)
(1.3307 -6.92683 -8.44411e-20)
(1.26189 -6.52459 1.11407e-19)
(1.19745 -6.1481 -9.88713e-20)
(1.13725 -5.79597 5.15092e-20)
(1.08109 -5.46661 -2.90892e-20)
(1.02918 -5.1581 7.80723e-21)
(0.982205 -4.86825 2.85469e-20)
(0.93601 -4.59578 -4.0294e-21)
(3.75388 -13.8846 5.10241e-20)
(2.86968 -13.2115 3.15246e-19)
(2.70637 -12.4661 1.98378e-19)
(2.61073 -11.7534 -1.29305e-19)
(2.47775 -11.0912 3.28138e-19)
(2.34808 -10.4625 5.27367e-20)
(2.22631 -9.86281 6.997e-21)
(2.10954 -9.29228 -1.22876e-19)
(1.99761 -8.75116 2.74232e-20)
(1.89098 -8.23942 1.60052e-19)
(1.78983 -7.75678 -7.03744e-20)
(1.69425 -7.30272 1.30258e-19)
(1.60424 -6.87646 -3.31055e-20)
(1.51974 -6.47708 -2.64619e-20)
(1.44068 -6.10341 5.73577e-20)
(1.36686 -5.75412 5.94232e-20)
(1.29803 -5.42762 -3.16523e-20)
(1.23438 -5.12194 2.29012e-20)
(1.17657 -4.83479 -6.56517e-20)
(1.11993 -4.56504 8.02818e-20)
(4.29617 -13.7295 4.64503e-19)
(3.38791 -13.0965 -5.61424e-19)
(3.19669 -12.3611 -4.5995e-19)
(3.07378 -11.6539 4.64567e-19)
(2.9151 -10.9976 -1.59931e-19)
(2.76076 -10.3739 -2.16464e-19)
(2.61534 -9.77864 1.90099e-19)
(2.47601 -9.21226 9.00737e-21)
(2.34271 -8.67515 6.12022e-20)
(2.21589 -8.16732 -1.88618e-19)
(2.09575 -7.68849 9.02298e-20)
(1.98236 -7.23812 -7.04738e-20)
(1.87567 -6.81546 1.93192e-19)
(1.77561 -6.41957 -1.03577e-19)
(1.68204 -6.04933 6.35106e-21)
(1.59473 -5.70344 -1.2915e-20)
(1.51337 -5.38033 -1.13138e-20)
(1.43814 -5.078 2.1511e-20)
(1.36966 -4.79407 1.27737e-20)
(1.30271 -4.52761 -1.48709e-20)
(4.83211 -13.5534 -6.7577e-19)
(3.90157 -12.9614 3.68267e-19)
(3.68295 -12.237 7.43863e-20)
(3.533 -11.5364 -8.71756e-21)
(3.34882 -10.8869 -9.47511e-23)
(3.16997 -10.2691 1.44172e-19)
(3.00102 -9.67916 -3.74036e-19)
(2.83927 -9.11781 -3.56326e-20)
(2.68471 -8.58557 -6.72911e-20)
(2.53783 -8.08247 9.00714e-20)
(2.39884 -7.60823 5.93789e-21)
(2.26777 -7.1623 7.73712e-20)
(2.14455 -6.74391 -9.31704e-21)
(2.02906 -6.35215 -1.72442e-19)
(1.92113 -5.98593 -3.36739e-20)
(1.82047 -5.64399 1.43717e-19)
(1.72674 -5.3248 -5.20637e-20)
(1.6401 -5.02635 -1.19665e-20)
(1.56113 -4.74614 -2.63226e-21)
(1.48404 -4.48353 7.89316e-21)
(5.36092 -13.3566 4.29166e-19)
(4.40993 -12.8065 -4.10189e-19)
(4.16443 -12.0941 -5.73897e-19)
(3.98771 -11.401 -7.28623e-20)
(3.77825 -10.7592 -2.2815e-19)
(3.57507 -10.1483 -7.35511e-20)
(3.38274 -9.56448 -2.04639e-19)
(3.19871 -9.00905 3.52431e-19)
(3.02305 -8.48253 -1.46448e-19)
(2.85628 -7.98498 -6.64897e-20)
(2.6986 -7.5161 -2.27316e-20)
(2.55 -7.07534 8.844e-20)
(2.41041 -6.66191 -9.04943e-22)
(2.27964 -6.27491 -2.49118e-20)
(2.1575 -5.9133 -5.20633e-20)
(2.04367 -5.57586 -6.02673e-20)
(1.93775 -5.26113 8.56782e-20)
(1.8399 -4.96706 3.17701e-20)
(1.75064 -4.69108 -1.42551e-19)
(1.66361 -4.43288 1.0755e-20)
(5.8818 -13.1393 -4.26845e-19)
(4.91221 -12.6319 9.35096e-19)
(4.64041 -11.9325 -6.70684e-19)
(4.43721 -11.2478 4.05025e-19)
(4.20272 -10.6145 4.82617e-19)
(3.97541 -10.0114 -1.58124e-19)
(3.75989 -9.43473 1.08512e-20)
(3.55376 -8.88609 4.01876e-20)
(3.35717 -8.36615 1.4056e-19)
(3.17069 -7.87497 -1.38565e-19)
(2.9945 -7.41223 -7.72115e-20)
(2.82858 -6.97736 8.77047e-20)
(2.67278 -6.56957 -1.43722e-21)
(2.52693 -6.18797 1.2529e-20)
(2.39076 -5.83154 1.33629e-19)
(2.26392 -5.49915 -6.75651e-20)
(2.146 -5.18938 1.21508e-20)
(2.03714 -4.9002 -7.30239e-20)
(1.93782 -4.62897 1.90443e-19)
(1.84109 -4.37574 9.96096e-20)
(6.39396 -12.9018 6.24959e-19)
(5.40768 -12.4379 1.22824e-19)
(5.11018 -11.7523 2.52459e-19)
(4.88081 -11.077 -2.65005e-19)
(4.62156 -10.4532 7.25762e-20)
(4.37035 -9.8587 4.92912e-19)
(4.13184 -9.29005 -6.84614e-20)
(3.90381 -8.74909 3.21995e-19)
(3.68652 -8.23658 -1.98288e-19)
(3.48054 -7.75257 1.17792e-19)
(3.28606 -7.29674 2.41235e-19)
(3.10301 -6.86849 -7.33981e-20)
(2.93123 -6.46702 1.06817e-19)
(2.77047 -6.09143 -3.00174e-20)
(2.62046 -5.74077 -1.32655e-19)
(2.48081 -5.41396 1.83106e-19)
(2.35109 -5.10967 -4.74821e-20)
(2.23145 -4.82587 1.6682e-19)
(2.12231 -4.55988 1.49538e-20)
(2.01614 -4.31218 -2.33328e-19)
(6.89666 -12.6444 -1.86624e-18)
(5.8956 -12.2246 3.01641e-19)
(5.57302 -11.5538 -2.24359e-19)
(5.31782 -10.8888 -6.71293e-19)
(5.0341 -10.2753 -1.09621e-19)
(4.75925 -9.69036 -1.23315e-19)
(4.49798 -9.13062 -4.36973e-20)
(4.2483 -8.59821 -2.26646e-19)
(4.01054 -8.09396 -1.15256e-19)
(3.78531 -7.61794 -2.18716e-20)
(3.57277 -7.16978 -6.26195e-20)
(3.37283 -6.74887 9.84409e-20)
(3.18527 -6.35437 5.57893e-20)
(3.00982 -5.98542 -3.01639e-19)
(2.84617 -5.6411 1.20535e-19)
(2.69391 -5.32041 -1.25288e-19)
(2.5526 -5.02211 -7.37133e-20)
(2.4224 -4.74417 6.4082e-20)
(2.30369 -4.4839 3.26611e-20)
(2.18839 -4.2423 -6.39209e-20)
(7.38918 -12.3676 2.36853e-18)
(6.37526 -11.9925 1.03228e-18)
(6.02823 -11.3373 4.58116e-19)
(5.74755 -10.6834 4.39032e-19)
(5.43968 -10.0811 -1.94449e-19)
(5.14146 -9.50658 1.0153e-18)
(4.85772 -8.95663 -4.33763e-19)
(4.58665 -8.43363 7.94874e-19)
(4.32869 -7.93848 -2.91254e-19)
(4.08447 -7.47123 5.09159e-19)
(3.85414 -7.0315 2.24594e-19)
(3.63756 -6.61863 1.28397e-19)
(3.43447 -6.23178 -3.12774e-19)
(3.24455 -5.87009 2.63283e-19)
(3.06747 -5.53267 -5.79563e-20)
(2.9028 -5.21862 1.88445e-19)
(2.7501 -4.92679 4.8618e-20)
(2.60958 -4.65522 2.02085e-19)
(2.48157 -4.40116 -4.67101e-20)
(2.35747 -4.1662 -3.04447e-21)
(7.8708 -12.0716 -1.22031e-18)
(6.84596 -11.7417 5.94463e-19)
(6.47513 -11.1029 9.65048e-20)
(6.16934 -10.4609 -7.85233e-19)
(5.83765 -9.87079 -3.50493e-20)
(5.51638 -9.30757 5.8846e-21)
(5.21045 -8.76829 1.54629e-19)
(4.9183 -8.25556 -1.98345e-19)
(4.64044 -7.77033 7.55268e-20)
(4.37752 -7.31264 8.44345e-20)
(4.12968 -6.88207 -1.39104e-19)
(3.89674 -6.47793 -9.29984e-20)
(3.67837 -6.09938 4.96895e-20)
(3.47421 -5.74554 -8.01309e-20)
(3.28391 -5.41559 2.48015e-19)
(3.10702 -5.1087 -2.57077e-19)
(2.94314 -4.82385 -1.51299e-19)
(2.79252 -4.55911 2.16989e-19)
(2.6555 -4.31178 -8.13974e-20)
(2.52295 -4.08407 -1.03326e-19)
(8.34089 -11.7569 -6.24936e-19)
(7.30702 -11.4726 -6.63888e-19)
(6.91301 -10.8509 -1.62065e-19)
(6.5825 -10.2218 8.02821e-19)
(6.22736 -9.6446 -3.49306e-19)
(5.88338 -9.09357 2.12591e-20)
(5.5556 -8.56583 -8.17897e-19)
(5.24268 -8.06421 1.27792e-19)
(4.94526 -7.58971 -1.67008e-19)
(4.66398 -7.14234 1.38031e-19)
(4.39894 -6.72165 -3.07509e-19)
(4.14992 -6.32693 1.31231e-19)
(3.91653 -5.9573 -1.77982e-19)
(3.69837 -5.61191 1.07256e-19)
(3.49504 -5.28996 6.28071e-20)
(3.30612 -4.99073 -6.96883e-20)
(3.13122 -4.71333 -2.72405e-19)
(2.97069 -4.45591 1.49013e-19)
(2.82487 -4.21582 -6.05399e-20)
(2.6842 -3.99604 2.49462e-20)
(8.79882 -11.424 2.28646e-18)
(7.75775 -11.1855 -4.33183e-19)
(7.34117 -10.5817 -5.62201e-19)
(6.98638 -9.96619 2.30844e-19)
(6.60819 -9.40282 3.02235e-19)
(6.24185 -8.86485 -4.25192e-19)
(5.89258 -8.34951 2.69681e-19)
(5.55928 -7.85983 -3.56646e-19)
(5.24264 -7.39686 4.27353e-19)
(4.94335 -6.96055 -4.36665e-19)
(4.66146 -6.55044 1.90153e-19)
(4.39668 -6.16579 -3.53496e-20)
(4.14856 -5.80569 -2.98808e-20)
(3.91663 -5.46931 -1.89811e-19)
(3.70047 -5.15587 2.92411e-19)
(3.49966 -4.86477 -5.26727e-21)
(3.31386 -4.59527 -2.13228e-20)
(3.14351 -4.34564 -5.95396e-21)
(2.98901 -4.1133 -9.96994e-21)
(2.84045 -3.90191 -7.62182e-20)
(9.24421 -11.0733 -1.88503e-18)
(8.19759 -10.8808 -2.73046e-19)
(7.75894 -10.2955 -3.33368e-19)
(7.3803 -9.69445 -1.74671e-18)
(6.97949 -9.14572 -8.5794e-19)
(6.59119 -8.62167 9.71688e-19)
(6.22082 -8.11958 -3.31323e-19)
(5.86753 -7.64267 1.64527e-19)
(5.5321 -7.19199 2.35451e-19)
(5.21519 -6.76747 5.96515e-20)
(4.91681 -6.36862 1.42049e-19)
(4.6366 -5.99466 -6.80309e-20)
(4.37405 -5.64469 1.73981e-19)
(4.12862 -5.31784 -1.52699e-19)
(3.89985 -5.01342 4.82758e-20)
(3.68731 -4.73091 -3.64037e-19)
(3.49071 -4.46975 2.35498e-19)
(3.31062 -4.22836 1.42962e-19)
(3.14756 -4.00422 1.54061e-19)
(2.99151 -3.80138 -3.17506e-20)
(9.67709 -10.7058 8.57487e-19)
(8.62622 -10.5589 6.73659e-19)
(8.16572 -9.99259 5.21817e-19)
(7.76359 -9.40682 1.52979e-18)
(7.34059 -8.87357 -1.37587e-18)
(6.93077 -8.36431 3.54338e-19)
(6.53975 -7.87634 -4.01993e-21)
(6.16691 -7.41301 -3.26691e-19)
(5.81312 -6.97538 3.1519e-19)
(5.47902 -6.56335 -8.55295e-20)
(5.16456 -6.17639 -9.07179e-20)
(4.86929 -5.8137 -3.88371e-20)
(4.59262 -5.47438 9.20174e-20)
(4.33396 -5.15759 2.60456e-21)
(4.09276 -4.86265 -1.39051e-19)
(3.86861 -4.5892 -1.56209e-19)
(3.66133 -4.33686 -2.12138e-19)
(3.47168 -4.10418 1.08805e-19)
(3.30044 -3.88871 -1.36551e-19)
(3.13777 -3.69552 3.36779e-20)
(10.0977 -10.322 -1.18795e-19)
(9.04347 -10.22 -1.44709e-18)
(8.56099 -9.67314 -1.2948e-19)
(8.13558 -9.10357 -2.30677e-20)
(7.69088 -8.58674 2.58361e-19)
(7.26002 -8.09318 8.22199e-19)
(6.84882 -7.62018 -2.36598e-19)
(6.45695 -7.17123 -3.38163e-19)
(6.0853 -6.74737 3.62605e-20)
(5.73449 -6.34848 1.377e-19)
(5.40438 -5.97399 -1.13039e-19)
(5.09443 -5.62309 -1.15425e-19)
(4.80397 -5.29488 -1.99059e-20)
(4.53224 -4.98851 1.06825e-19)
(4.27866 -4.7034 -4.202e-19)
(4.04278 -4.4393 1.95983e-19)
(3.82457 -4.196 6.455e-20)
(3.62507 -3.97226 -7.99835e-20)
(3.44528 -3.76669 8.47177e-20)
(3.27605 -3.58744 1.25552e-19)
(10.5048 -9.9209 6.03175e-19)
(9.44845 -9.86314 1.40005e-18)
(8.94413 -9.33723 1.97135e-19)
(8.4957 -8.78521 -1.06895e-19)
(8.0298 -8.28584 8.07348e-19)
(7.57848 -7.80887 -2.14365e-19)
(7.14767 -7.35166 -2.39654e-19)
(6.7373 -6.91783 5.88045e-19)
(6.34834 -6.50844 -3.50557e-19)
(5.98134 -6.12329 1.58393e-19)
(5.6361 -5.76179 -2.58316e-20)
(5.31196 -5.42313 -3.81156e-20)
(5.00807 -5.10634 -1.50589e-19)
(4.72358 -4.81061 1.8057e-19)
(4.45768 -4.53537 -4.26288e-19)
(4.20975 -4.2804 1.975e-19)
(3.97973 -4.0455 -5.53399e-20)
(3.7684 -3.83012 -1.17427e-20)
(3.5757 -3.63607 1.6228e-19)
(3.39521 -3.47435 -2.6743e-19)
(14.5386 0.416395 1.03374e-19)
(14.5364 -0.15685 -3.39391e-20)
(14.5119 -0.728232 -1.78051e-19)
(14.4661 -1.29734 4.81603e-19)
(14.3986 -1.86364 -5.36091e-19)
(14.3093 -2.42641 -2.4243e-19)
(14.1981 -2.98486 1.9029e-19)
(14.0652 -3.5382 2.65847e-19)
(13.9108 -4.08564 -2.00292e-19)
(13.7351 -4.62638 2.03994e-19)
(13.5386 -5.15964 -4.74838e-22)
(13.3214 -5.68461 1.30458e-20)
(13.0839 -6.20054 -1.47026e-19)
(12.8267 -6.70665 6.28392e-19)
(12.55 -7.20224 -6.36903e-19)
(12.2544 -7.68657 4.48929e-19)
(11.9402 -8.15908 -6.23726e-19)
(11.6084 -8.61898 1.50805e-18)
(11.2585 -9.0664 -1.17802e-19)
(10.8937 -9.49948 4.955e-20)
(13.8302 -0.295368 -1.9723e-20)
(13.801 -0.838925 -1.08807e-19)
(13.7498 -1.37962 2.06745e-19)
(13.6773 -1.91697 3.34284e-19)
(13.5837 -2.4505 -8.55261e-20)
(13.4691 -2.97951 -4.46785e-19)
(13.3336 -3.50319 8.16581e-19)
(13.1776 -4.02075 -1.65757e-19)
(13.0012 -4.53141 -9.40011e-19)
(12.805 -5.0344 4.63561e-19)
(12.5892 -5.52897 1.66852e-19)
(12.3542 -6.01438 8.62056e-19)
(12.1005 -6.48991 -1.64355e-18)
(11.8285 -6.95487 4.42485e-21)
(11.5386 -7.4086 4.15986e-19)
(11.2315 -7.85045 6.68721e-19)
(10.9074 -8.27991 3.07902e-19)
(10.5672 -8.69636 -4.11579e-19)
(10.2105 -9.09955 -9.48388e-19)
(9.83834 -9.4885 9.32288e-19)
(13.1075 -0.289834 5.95501e-20)
(13.0821 -0.803326 -7.19587e-20)
(13.0356 -1.31479 4.40482e-20)
(12.9683 -1.82348 -1.48742e-19)
(12.8805 -2.32876 1.82808e-19)
(12.7723 -2.82985 4.57563e-19)
(12.644 -3.32594 -4.85349e-19)
(12.4959 -3.81623 7.81388e-20)
(12.3284 -4.29995 3.21977e-19)
(12.1417 -4.77633 6.79916e-19)
(11.9363 -5.24465 -1.5518e-19)
(11.7125 -5.70418 1.13575e-18)
(11.4708 -6.15422 5.4362e-20)
(11.2116 -6.5941 -1.23767e-18)
(10.9353 -7.02319 -1.66754e-19)
(10.6425 -7.44084 2.66457e-19)
(10.3336 -7.84651 -6.91008e-19)
(10.009 -8.23956 -3.15761e-19)
(9.66895 -8.61959 -6.1882e-19)
(9.31391 -8.98556 6.49188e-19)
(12.3713 -0.22797 1.88416e-20)
(12.352 -0.71131 4.35144e-20)
(12.3128 -1.19338 1.77383e-20)
(12.2538 -1.67332 -4.08397e-19)
(12.175 -2.15034 2.52141e-19)
(12.0769 -2.62367 -7.32542e-20)
(11.9596 -3.09252 2.31334e-19)
(11.8234 -3.55611 -9.24852e-21)
(11.6685 -4.01369 -4.89669e-19)
(11.4953 -4.46452 9.84726e-21)
(11.3042 -4.90788 -2.75908e-19)
(11.0954 -5.34307 7.07957e-20)
(10.8695 -5.76941 -1.4355e-18)
(10.6269 -6.18623 7.25601e-19)
(10.3678 -6.5929 -6.55719e-19)
(10.0929 -6.98879 -1.26429e-19)
(9.80258 -7.37332 -1.66192e-18)
(9.49721 -7.74583 1.65743e-18)
(9.17731 -8.10584 -7.82872e-19)
(8.84321 -8.4524 -4.95355e-19)
(11.6512 -0.216021 5.17842e-21)
(11.6354 -0.670093 -7.12141e-20)
(11.601 -1.12329 1.04678e-19)
(11.5478 -1.57478 1.29067e-19)
(11.4761 -2.02375 -1.51275e-19)
(11.386 -2.46945 4.8774e-19)
(11.2777 -2.91113 3.04417e-19)
(11.1514 -3.34806 -9.78785e-20)
(11.0075 -3.7795 -1.05131e-19)
(10.8461 -4.20476 3.23447e-19)
(10.6677 -4.62313 5.682e-19)
(10.4726 -5.03393 2.2866e-19)
(10.261 -5.43649 1.45606e-19)
(10.0335 -5.83019 -3.82825e-19)
(9.79042 -6.21439 -9.0594e-19)
(9.5322 -6.58845 9.98969e-19)
(9.25928 -6.95182 1.05348e-18)
(8.97208 -7.30382 -7.44143e-19)
(8.67116 -7.64397 2.62203e-19)
(8.35678 -7.97141 -5.92791e-20)
(10.961 -0.209007 1.19477e-20)
(10.9478 -0.635112 -1.65606e-20)
(10.9172 -1.06059 -8.44312e-20)
(10.869 -1.48465 3.58764e-20)
(10.8032 -1.90655 1.69322e-21)
(10.7202 -2.32556 1.77111e-20)
(10.62 -2.74097 -2.29171e-19)
(10.5028 -3.15207 1.70417e-19)
(10.369 -3.55819 -3.47542e-19)
(10.2186 -3.95865 3.59369e-19)
(10.0522 -4.35278 -2.13004e-20)
(9.86982 -4.73992 -3.38679e-19)
(9.67199 -5.11945 1.28985e-19)
(9.459 -5.49074 1.04942e-18)
(9.23124 -5.85318 6.02521e-19)
(8.98911 -6.20617 -4.33949e-19)
(8.73307 -6.54914 -6.31583e-19)
(8.4635 -6.88145 3.16907e-19)
(8.18095 -7.20262 -2.08475e-19)
(7.88566 -7.51185 6.62923e-19)
(10.3078 -0.200431 -8.05295e-21)
(10.2965 -0.60011 3.79826e-20)
(10.2689 -0.999323 2.66403e-20)
(10.2248 -1.39736 -3.35291e-20)
(10.1642 -1.79352 1.24279e-19)
(10.0874 -2.1871 -3.53794e-19)
(9.99444 -2.57744 2.02494e-19)
(9.88554 -2.96388 -1.49986e-19)
(9.7609 -3.34577 -1.24303e-21)
(9.62075 -3.72248 -2.35191e-19)
(9.46535 -4.09336 3.57045e-19)
(9.29499 -4.45781 9.03549e-19)
(9.10999 -4.81523 -1.00564e-18)
(8.91067 -5.16501 -1.38704e-20)
(8.69742 -5.50659 -9.39677e-19)
(8.4706 -5.83937 2.75496e-19)
(8.23061 -6.1628 -3.01864e-19)
(7.97786 -6.47629 -3.21613e-21)
(7.71288 -6.77935 6.99661e-19)
(7.43587 -7.07122 -1.42137e-20)
(9.69449 -0.19268 -3.55668e-21)
(9.68452 -0.567586 2.51939e-20)
(9.65918 -0.942137 8.99489e-21)
(9.61839 -1.31568 -1.43064e-19)
(9.5622 -1.68756 1.51006e-19)
(9.49072 -2.05712 -1.32751e-19)
(9.4041 -2.42373 3.86771e-19)
(9.3025 -2.78679 -3.83693e-20)
(9.18609 -3.14567 -2.1094e-19)
(9.0551 -3.49979 4.20164e-20)
(8.90975 -3.84855 -7.80497e-20)
(8.75032 -4.19137 -2.12674e-19)
(8.5771 -4.52768 -3.09362e-19)
(8.39039 -4.85692 -2.05876e-19)
(8.19056 -5.17855 -2.28024e-19)
(7.97795 -5.49201 -2.60635e-19)
(7.75296 -5.79677 -2.15948e-19)
(7.51593 -6.09224 -3.30407e-19)
(7.26742 -6.37798 4.20771e-20)
(7.00761 -6.65326 1.48142e-20)
(9.12112 -0.185746 2.48197e-21)
(9.11194 -0.537522 3.40879e-21)
(9.08836 -0.889012 -1.49682e-21)
(9.0503 -1.23961 -3.79556e-20)
(8.99779 -1.58871 -8.93629e-20)
(8.93093 -1.9357 -5.32983e-20)
(8.84986 -2.27999 -2.6647e-19)
(8.75472 -2.62101 2.48002e-19)
(8.64566 -2.95818 -1.43609e-19)
(8.52289 -3.29096 3.1513e-19)
(8.38663 -3.61878 -6.51154e-20)
(8.23712 -3.9411 5.40588e-19)
(8.07464 -4.2574 2.75369e-20)
(7.89948 -4.56715 7.33647e-19)
(7.71197 -4.86983 -4.99722e-19)
(7.51245 -5.16492 3.57675e-19)
(7.30132 -5.45191 5.49915e-19)
(7.07892 -5.73026 3.1913e-19)
(6.84571 -5.99952 3.40584e-19)
(6.60194 -6.25899 -4.92374e-19)
(8.58596 -0.179182 -2.16975e-20)
(8.57729 -0.509388 4.28024e-22)
(8.5551 -0.839352 7.84835e-20)
(8.51932 -1.16851 -7.43936e-20)
(8.46999 -1.4963 4.517e-20)
(8.40719 -1.82214 1.74569e-19)
(8.33104 -2.1455 -5.3803e-20)
(8.24166 -2.46583 -5.39069e-20)
(8.13922 -2.78261 -7.15571e-20)
(8.02388 -3.0953 1.17364e-19)
(7.89586 -3.4034 -1.7685e-19)
(7.75538 -3.70641 -4.2669e-20)
(7.6027 -4.00382 -3.28225e-19)
(7.4381 -4.29516 8.73499e-20)
(7.26191 -4.57993 1.5862e-19)
(7.07445 -4.85766 1.11486e-19)
(6.8761 -5.12786 -2.16124e-19)
(6.66719 -5.39001 7.92171e-20)
(6.44822 -5.64368 -3.28111e-19)
(6.21937 -5.88819 3.88242e-20)
(8.08657 -0.172816 2.12806e-20)
(8.07824 -0.482906 5.75256e-20)
(8.0572 -0.792783 -1.27331e-19)
(8.0234 -1.10192 -9.89502e-20)
(7.97688 -1.40979 -4.98396e-20)
(7.9177 -1.71586 -1.38645e-19)
(7.84597 -2.01962 9.94852e-20)
(7.76182 -2.32057 1.27493e-19)
(7.66537 -2.61822 -2.68114e-19)
(7.5568 -2.91207 1.27995e-19)
(7.43629 -3.20165 1.36967e-19)
(7.30407 -3.4865 1.73958e-19)
(7.16038 -3.76616 -2.44381e-19)
(7.00548 -4.04017 3.33979e-19)
(6.83969 -4.30809 -3.02821e-19)
(6.66332 -4.56948 -5.8866e-20)
(6.47676 -4.82387 -9.19973e-20)
(6.28034 -5.07079 3.98566e-19)
(6.07455 -5.30979 3.05129e-19)
(5.85959 -5.54023 -1.28261e-19)
(7.6203 -0.166599 -1.76332e-20)
(7.61222 -0.457914 9.8128e-21)
(7.5922 -0.749036 7.85106e-20)
(7.56017 -1.03947 1.13776e-20)
(7.51619 -1.32873 1.13197e-19)
(7.4603 -1.61631 9.3326e-20)
(7.39262 -1.90174 -7.85357e-20)
(7.31324 -2.18456 -1.11753e-19)
(7.22229 -2.46429 9.64844e-20)
(7.11993 -2.74049 6.94991e-20)
(7.00634 -3.01271 -7.81294e-20)
(6.88171 -3.28052 3.13241e-19)
(6.74629 -3.54351 -4.72595e-19)
(6.60033 -3.80126 1.0831e-19)
(6.44412 -4.05337 1.35786e-19)
(6.27798 -4.29942 -2.29955e-19)
(6.10231 -4.539 -4.66496e-19)
(5.91744 -4.77166 1.5304e-19)
(5.72388 -4.99694 1.02408e-19)
(5.52184 -5.21421 2.05548e-20)
(7.18462 -0.160523 -6.74244e-21)
(7.17677 -0.434299 5.84259e-21)
(7.15768 -0.707899 -3.46016e-20)
(7.12731 -0.980862 -2.13111e-20)
(7.08567 -1.25272 -5.81602e-21)
(7.03284 -1.52302 -8.21878e-20)
(6.96889 -1.79131 2.17501e-19)
(6.89393 -2.05716 1.16448e-20)
(6.80808 -2.32012 -1.23161e-21)
(6.71147 -2.57979 -1.93937e-19)
(6.60427 -2.83575 1.1652e-19)
(6.48668 -3.08761 -1.09355e-19)
(6.3589 -3.33498 2.04496e-19)
(6.22119 -3.5775 -3.04073e-19)
(6.07384 -3.81479 -8.45117e-21)
(5.91716 -4.04649 -1.76561e-19)
(5.75155 -4.27223 3.66266e-19)
(5.57737 -4.4916 -9.34461e-20)
(5.39516 -4.70411 -2.01501e-20)
(5.20518 -4.90919 -1.2034e-19)
(6.77727 -0.154611 2.12229e-20)
(6.76968 -0.411992 -1.69529e-21)
(6.7515 -0.669212 4.26507e-20)
(6.72269 -0.92584 -4.527e-20)
(6.68327 -1.18144 5.40736e-20)
(6.6333 -1.43558 -3.10254e-20)
(6.57286 -1.68784 -1.17542e-19)
(6.50203 -1.93782 5.09213e-20)
(6.42093 -2.18511 4.21403e-20)
(6.32969 -2.42931 -5.63981e-20)
(6.22845 -2.67006 -1.10894e-19)
(6.11739 -2.90699 -5.44732e-21)
(5.99672 -3.13974 -1.93455e-19)
(5.86668 -3.368 2.14782e-19)
(5.72753 -3.59143 1.11818e-19)
(5.57959 -3.80974 4.18333e-19)
(5.42328 -4.02258 -5.97766e-19)
(5.25898 -4.22963 1.54963e-19)
(5.08734 -4.43036 3.94291e-19)
(4.90858 -4.62426 3.06157e-19)
(6.39633 -0.148914 -1.53345e-20)
(6.38906 -0.390961 1.15476e-20)
(6.37179 -0.632868 -1.54912e-20)
(6.3445 -0.874225 -8.95726e-20)
(6.30721 -1.11462 9.14294e-20)
(6.25997 -1.35366 3.24907e-20)
(6.20284 -1.59095 7.56462e-21)
(6.13591 -1.8261 9.07872e-20)
(6.05928 -2.05873 -2.04667e-19)
(5.97306 -2.28849 1.65533e-19)
(5.87741 -2.51502 -1.74781e-20)
(5.77247 -2.73798 2.67321e-19)
(5.65843 -2.95708 -3.33879e-19)
(5.53552 -3.17202 6.26292e-22)
(5.40399 -3.38252 -1.87018e-19)
(5.26415 -3.58836 2.09769e-20)
(5.11643 -3.78922 3.30481e-19)
(4.96124 -3.98495 -2.73712e-19)
(4.79939 -4.17489 -6.92031e-20)
(4.63106 -4.35877 -4.84552e-19)
(6.04025 -0.14351 4.22814e-21)
(6.03337 -0.371213 5.44142e-22)
(6.01705 -0.598799 -3.2174e-20)
(5.99126 -0.825883 1.43426e-20)
(5.95603 -1.05208 2.81289e-20)
(5.9114 -1.27701 4.05963e-20)
(5.85743 -1.50031 -1.5761e-20)
(5.7942 -1.72162 3.85424e-20)
(5.7218 -1.94058 -7.00259e-20)
(5.64033 -2.15685 5.11595e-20)
(5.54993 -2.37011 -3.60554e-20)
(5.45075 -2.58007 -1.91448e-20)
(5.34293 -2.78643 -3.28584e-20)
(5.22669 -2.98896 -2.55772e-20)
(5.10226 -3.18743 6.94448e-20)
(4.96994 -3.38168 -5.9882e-21)
(4.83015 -3.57148 -2.70177e-19)
(4.68332 -3.75687 -4.28926e-20)
(4.53053 -3.93703 2.8548e-19)
(4.3718 -4.1123 1.48238e-19)
(5.70784 -0.138491 4.71385e-22)
(5.70142 -0.352773 8.77962e-21)
(5.68607 -0.566969 1.03417e-22)
(5.66178 -0.780714 2.996e-20)
(5.62855 -0.993645 -5.98164e-20)
(5.58645 -1.20541 -6.50454e-20)
(5.53552 -1.41566 8.80233e-20)
(5.47583 -1.62405 -6.11089e-20)
(5.40747 -1.83026 -1.5079e-21)
(5.33054 -2.03398 6.67253e-20)
(5.24514 -2.2349 4.2672e-21)
(5.15142 -2.43275 1.16954e-19)
(5.0495 -2.62728 -5.15621e-20)
(4.93957 -2.81828 -6.06968e-20)
(4.82182 -3.00558 -1.74295e-19)
(4.69651 -3.18911 -1.17992e-20)
(4.56407 -3.36874 -1.74892e-19)
(4.4249 -3.54478 1.12867e-19)
(4.28045 -3.71615 1.65326e-19)
(4.13039 -3.88448 -9.89234e-20)
(5.39817 -0.133832 -7.92247e-21)
(5.39227 -0.335623 1.67639e-20)
(5.37793 -0.53736 2.75553e-20)
(5.35512 -0.738698 -3.16966e-20)
(5.32387 -0.939295 4.9012e-20)
(5.28423 -1.13882 -1.51068e-20)
(5.23624 -1.33695 -2.17334e-20)
(5.17998 -1.53336 -1.45294e-20)
(5.11552 -1.72776 6.2085e-22)
(5.04295 -1.91984 -3.87921e-20)
(4.96238 -2.10933 1.40277e-20)
(4.87391 -2.29599 5.33482e-20)
(4.77766 -2.47959 1.31063e-19)
(4.67376 -2.65995 2.42755e-19)
(4.56238 -2.83696 -2.36824e-20)
(4.44369 -3.01063 2.72949e-19)
(4.3181 -3.18098 -1.12668e-19)
(4.18587 -3.34868 1.60288e-19)
(4.049 -3.51245 8.79312e-20)
(3.90634 -3.67583 -4.98603e-20)
(5.11045 -0.129364 3.02384e-21)
(5.10514 -0.319721 -8.1068e-21)
(5.09183 -0.510066 -5.88816e-20)
(5.07051 -0.700074 -4.89864e-20)
(5.0412 -0.889425 5.82613e-20)
(5.00395 -1.07781 8.72431e-20)
(4.95881 -1.26493 5.23488e-21)
(4.90584 -1.45048 -4.861e-20)
(4.84512 -1.63418 -6.8361e-20)
(4.77672 -1.81577 1.08258e-19)
(4.70073 -1.995 -7.07788e-21)
(4.61725 -2.17162 -2.11454e-19)
(4.52635 -2.34546 -2.14897e-19)
(4.42812 -2.51634 8.13088e-20)
(4.32268 -2.68422 9.55543e-20)
(4.21005 -2.84912 -1.04923e-20)
(4.09061 -3.0113 -7.59336e-20)
(3.96414 -3.17181 -5.8862e-20)
(3.83353 -3.32993 -7.95687e-20)
(3.69554 -3.49214 1.26676e-19)
(4.8439 -0.125885 -9.20381e-21)
(4.83925 -0.30552 1.60457e-20)
(4.82703 -0.485268 1.05002e-20)
(4.80725 -0.664824 1.59759e-20)
(4.77991 -0.843893 -6.00642e-20)
(4.74506 -1.02219 -7.38103e-20)
(4.70274 -1.19943 -1.7859e-20)
(4.65299 -1.37535 9.12139e-20)
(4.59588 -1.54969 4.49061e-20)
(4.53147 -1.72219 2.18722e-20)
(4.45981 -1.89261 -7.99837e-20)
(4.38096 -2.06076 1.62152e-19)
(4.29497 -2.22644 -1.53278e-19)
(4.20187 -2.38952 -3.62724e-20)
(4.1017 -2.54993 -4.73627e-20)
(3.99429 -2.70773 -5.36329e-21)
(3.87994 -2.86325 -7.65099e-20)
(3.75741 -3.01772 9.68204e-20)
(3.63124 -3.17176 5.53972e-20)
(3.49401 -3.33873 -2.84414e-19)
(10.0009 10.5912 9.82124e-19)
(10.4109 10.1865 -1.47331e-18)
(10.8033 9.76729 5.02246e-19)
(11.1794 9.33493 1.13661e-18)
(11.5384 8.88918 7.57434e-20)
(11.8794 8.43004 -7.86137e-19)
(12.2017 7.95795 -1.52328e-19)
(12.5049 7.47357 -7.44639e-19)
(12.7884 6.9776 -4.40331e-20)
(13.0519 6.4708 2.79074e-19)
(13.2949 5.95393 3.45364e-19)
(13.5171 5.42783 -5.60674e-19)
(13.7182 4.89334 2.85805e-19)
(13.8978 4.35131 8.19154e-19)
(14.0557 3.80262 -1.48251e-19)
(14.1917 3.24817 -4.82547e-19)
(14.3056 2.68875 6.4106e-19)
(14.3975 2.12549 -3.9483e-19)
(14.4671 1.55848 -5.8316e-20)
(14.5151 0.990314 -4.04686e-20)
(9.96492 9.52312 4.98707e-19)
(10.3394 9.12903 -1.45706e-18)
(10.6964 8.72083 -8.46236e-19)
(11.0363 8.2994 3.69568e-19)
(11.3591 7.86495 -9.23027e-19)
(11.6641 7.41781 5.27386e-19)
(11.9508 6.95855 1.17583e-19)
(12.2187 6.48796 -7.54103e-19)
(12.4674 6.00677 2.75659e-19)
(12.6964 5.51575 1.85463e-19)
(12.9053 5.01571 6.51883e-19)
(13.0937 4.50746 -5.63307e-19)
(13.2614 3.99187 -2.93238e-19)
(13.4081 3.4698 6.34628e-19)
(13.5335 2.94211 -3.6921e-19)
(13.6374 2.40972 6.49641e-20)
(13.7197 1.87342 -2.30357e-19)
(13.7805 1.33419 -2.58414e-21)
(13.8193 0.792445 -1.14473e-19)
(13.8362 0.24941 3.23327e-20)
(9.40098 8.93695 1.06797e-19)
(9.75684 8.57227 1.3606e-19)
(10.0971 8.19338 1.17074e-18)
(10.4213 7.80086 -3.84696e-19)
(10.7293 7.3952 9.86893e-21)
(11.0207 6.977 6.86297e-19)
(11.2948 6.54692 -2.03246e-19)
(11.5512 6.10566 -9.36609e-19)
(11.7894 5.65402 1.07856e-18)
(12.0091 5.1927 -6.52718e-19)
(12.2097 4.72249 -2.882e-19)
(12.391 4.24416 -4.65959e-19)
(12.5526 3.75854 2.43383e-19)
(12.6941 3.26645 -2.70527e-19)
(12.8155 2.76871 2.0151e-19)
(12.9163 2.26619 -4.22118e-19)
(12.9965 1.75967 4.48442e-19)
(13.056 1.25005 1.86819e-19)
(13.0944 0.737977 -3.21015e-20)
(13.1116 0.224472 3.9743e-20)
(8.79968 8.39463 -6.70456e-19)
(9.13663 8.05785 -5.13815e-20)
(9.45966 7.70722 2.2109e-19)
(9.76815 7.34329 -5.67369e-19)
(10.0616 6.96662 9.42679e-19)
(10.3395 6.57785 2.84574e-19)
(10.6014 6.17763 -1.64741e-19)
(10.8469 5.76659 -5.55111e-20)
(11.0754 5.34541 7.83439e-19)
(11.2866 4.91481 3.18419e-19)
(11.48 4.47549 6.39119e-19)
(11.6553 4.02818 -1.37724e-19)
(11.812 3.57365 -6.65019e-20)
(11.9501 3.11266 -1.89864e-19)
(12.069 2.646 3.15148e-19)
(12.1687 2.17448 -1.59292e-19)
(12.2489 1.69886 -1.58272e-19)
(12.3094 1.21998 6.0205e-20)
(12.3501 0.738611 -3.94113e-21)
(12.3707 0.255674 -1.00399e-20)
(8.26164 7.84757 6.30936e-19)
(8.57824 7.53428 9.15386e-20)
(8.88223 7.20797 -1.22614e-18)
(9.17282 6.86905 -3.96311e-19)
(9.44947 6.51808 -1.7752e-19)
(9.71172 6.15563 -7.98231e-19)
(9.95914 5.78232 -4.36576e-19)
(10.1912 5.39872 -3.2672e-19)
(10.4075 5.00542 3.73936e-19)
(10.6077 4.60311 -1.4607e-19)
(10.7913 4.19243 2.44145e-19)
(10.958 3.77408 3.60617e-20)
(11.1074 3.34875 5.96833e-20)
(11.2392 2.91715 -6.05885e-19)
(11.3532 2.48004 -1.09766e-19)
(11.4492 2.03814 6.29107e-20)
(11.5268 1.59222 -3.3541e-20)
(11.586 1.14304 5.36988e-20)
(11.6266 0.691394 -6.57078e-20)
(11.6482 0.238087 9.04491e-21)
(7.76227 7.33532 -1.16872e-19)
(8.05917 7.043 7.73212e-21)
(8.34439 6.73849 4.90929e-19)
(8.61724 6.42215 -1.09225e-19)
(8.87713 6.09448 3.00285e-19)
(9.12365 5.756 -9.91888e-19)
(9.35633 5.40727 6.80095e-19)
(9.57476 5.04882 -1.23468e-19)
(9.77853 4.68122 -1.09054e-20)
(9.96722 4.30506 1.34029e-19)
(10.1405 3.92098 2.68433e-19)
(10.2979 3.52959 -4.59515e-19)
(10.4393 3.13155 2.34859e-19)
(10.5643 2.72754 3.50725e-19)
(10.6726 2.31822 2.15675e-20)
(10.7639 1.90431 -1.41364e-19)
(10.8382 1.48649 -9.06734e-21)
(10.8952 1.06551 -3.05404e-20)
(10.9348 0.642095 7.51282e-21)
(10.9566 0.216986 -5.73667e-21)
(7.29775 6.86289 2.00184e-19)
(7.57604 6.58954 1.23092e-19)
(7.84346 6.30483 7.90214e-20)
(8.09936 6.00904 -4.77389e-19)
(8.3432 5.70261 -4.37179e-19)
(8.57455 5.38604 9.89878e-19)
(8.793 5.05982 1.00652e-19)
(8.99817 4.72449 8.90452e-20)
(9.18964 4.38053 3.03163e-19)
(9.36702 4.02851 -4.76017e-19)
(9.53002 3.66902 7.39438e-20)
(9.67827 3.30263 2.16886e-19)
(9.81149 2.92995 -1.55584e-19)
(9.92939 2.55161 -6.47773e-20)
(10.0317 2.16824 2.54168e-19)
(10.1182 1.78048 -4.76048e-21)
(10.1888 1.38901 -7.74829e-21)
(10.2431 0.99448 -3.14258e-20)
(10.2812 0.597598 5.26688e-21)
(10.3026 0.199042 3.00829e-20)