/*--------------------------------*- C++ -*----------------------------------*\
| =========                 |                                                 |
| \\      /  F ield         | OpenFOAM: The Open Source CFD Toolbox           |
|  \\    /   O peration     | Version:  v1912                                 |
|   \\  /    A nd           | Website:  www.openfoam.com                      |
|    \\/     M anipulation  |                                                 |
\*---------------------------------------------------------------------------*/
FoamFile
{
    version     2.0;
    format      ascii;
    class       surfaceScalarField;
    location    "14";
    object      phi;
}
// * * * * * * * * * * * * * * * * * * * * * * * * * * * * * * * * * * * * * //

dimensions      [0 3 -1 0 0 0 0];
oriented        oriented;


internalField   nonuniform List<scalar> 
4670
(
-0.000186338
-0.0216292
0.0218156
-0.000508132
-0.0167013
0.0170231
-0.000842706
-0.0130259
0.0133604
-0.00112095
-0.0102942
0.0105725
-0.00130853
-0.00825712
0.00844469
-0.00139486
-0.00672126
0.00680758
-0.001386
-0.00554078
0.00553193
-0.00130015
-0.00460747
0.00452161
-0.00116359
-0.0038428
0.00370624
-0.00318847
0.0030347
-0.00100981
-0.000170612
-0.0214586
-0.000439748
-0.0164322
-0.000679581
-0.012786
-0.000820006
-0.0101538
-0.000827341
-0.00824978
-0.000691936
-0.00685666
-0.000420887
-0.00581183
-3.41799e-05
-0.00499418
0.000435131
-0.00431211
-0.0037003
0.000946962
-0.000146975
-0.0213116
-0.000336581
-0.0162426
-0.000441574
-0.012681
-0.000392955
-0.0102024
-0.000158334
-0.00848441
0.000271503
-0.0072865
0.000889529
-0.00642986
0.00167502
-0.00577966
0.00259466
-0.00523176
-0.00470614
0.0036005
-0.000113986
-0.0211977
-0.000197414
-0.0161592
-0.000129406
-0.0127491
0.000156353
-0.0104882
0.00068847
-0.00901652
0.00147533
-0.00807336
0.00251126
-0.00746578
0.00377763
-0.00704603
0.0052401
-0.00669423
-0.0063098
0.00684376
-6.8799e-05
-0.0211289
-2.34417e-05
-0.0162045
0.000259962
-0.0130325
0.000830224
-0.0110585
0.00171089
-0.00989719
0.00290802
-0.0092705
0.00441707
-0.00897482
0.00622346
-0.00885243
0.00829669
-0.00876746
-0.00859205
0.0105789
-5.41888e-06
-0.0211234
0.000201718
-0.0164116
0.00073628
-0.013567
0.0016382
-0.0119604
0.0029173
-0.0111763
0.00457189
-0.0109251
0.00659561
-0.0109985
0.00897838
-0.0112352
0.0116989
-0.011488
-0.0115969
0.0147037
6.45468e-05
-0.021188
0.000470661
-0.0168178
0.00130653
-0.0144029
0.00259307
-0.0132469
0.00432363
-0.0129068
0.00648244
-0.0130839
0.00905418
-0.0135703
0.0120288
-0.0142098
0.0153974
-0.0148566
-0.015323
0.0191235
0.000150436
-0.0213384
0.000791898
-0.0174592
0.00197738
-0.0155884
0.00370426
-0.0149738
0.00594385
-0.0151464
0.00865814
-0.0157982
0.0118113
-0.0167234
0.01538
-0.0177786
0.0193634
-0.0188399
-0.0197315
0.023772
0.000257171
-0.0215956
0.00116584
-0.0183679
0.00274544
-0.017168
0.00496663
-0.017195
0.00777587
-0.0179557
0.0111076
-0.01913
0.0148931
-0.0205089
0.0190722
-0.0219576
0.0236282
-0.023396
-0.0247914
0.0286881
0.000381775
-0.0219774
0.00158246
-0.0195686
0.00358763
-0.0191731
0.00634351
-0.0199509
0.00977837
-0.0213905
0.0138116
-0.0231632
0.0183554
-0.0250527
0.0233066
-0.0269088
0.0285471
-0.0286365
-0.0302741
0.0340298
0.0302257
0.00118924
-0.0314149
0.0290318
0.00119389
0.0278603
0.00117152
0.0267367
0.00112358
0.0256832
0.00105347
0.0247179
0.000965285
0.0238549
0.000863075
0.0231047
0.00075013
0.0224762
0.000628558
0.00049881
0.0402141
0.00371564
-0.0427405
0.037569
0.00383896
0.0348759
0.00386459
0.0322025
0.00379701
0.0296113
0.00364467
0.0271579
0.00341868
0.0248901
0.0031309
0.0228481
0.00279209
0.0210657
0.00241098
0.00199591
0.0490226
0.00689369
-0.0522006
0.0455745
0.00728705
0.0419497
0.00748931
0.0382445
0.00750226
0.0345533
0.00733581
0.0309658
0.00700619
0.0275639
0.00653284
0.0244214
0.00593459
0.021605
0.0052274
0.00442776
0.0563041
0.0102449
-0.0596553
0.0525301
0.0110611
0.0484311
0.0115883
0.0441156
0.0118178
0.0396977
0.0117538
0.0352917
0.0114121
0.0310087
0.0108159
0.0269548
0.00998847
0.0232341
0.00894813
0.00771096
0.0620025
0.0134548
-0.0652124
0.05824
0.0148236
0.0540122
0.0158161
0.0494245
0.0164054
0.0445957
0.0165826
0.0396523
0.0163555
0.0347235
0.0157447
0.0299401
0.0147719
0.0254416
0.0134466
0.0117621
0.0662338
0.0163417
-0.0691207
0.0627008
0.0183566
0.0585888
0.0199281
0.0539875
0.0210067
0.0490069
0.0215632
0.0437709
0.0215915
0.0384122
0.0211034
0.0330714
0.0201127
0.0279118
0.0186061
0.0165107
0.0691992
0.0188243
-0.0716817
0.0660173
0.0215385
0.0621782
0.0237671
0.0577489
0.0254359
0.0528198
0.0264924
0.0474995
0.0269117
0.041908
0.0266949
0.0361733
0.0258474
0.0304561
0.0243234
0.0219141
0.0711245
0.0208901
-0.0731903
0.0683429
0.0243201
0.0648636
0.0272464
0.0607282
0.0295713
0.0560027
0.0312179
0.0507723
0.0321422
0.04513
0.0323373
0.0391639
0.0318134
0.0329796
0.0305077
0.0279848
0.0722198
0.022569
-0.0738988
0.0698383
0.0267017
0.0667525
0.0303322
0.0629816
0.0333421
0.0585678
0.0356317
0.0535716
0.0371384
0.0480551
0.0378537
0.0420464
0.0378221
0.0355072
0.0370469
0.0348556
0.0726547
-0.0740008
0.023915
0.0706404
0.028716
0.0679432
0.0330293
0.0645662
0.0367192
0.0605333
0.0396646
0.0558876
0.0417842
0.0506738
0.0430675
0.0448857
0.0436102
0.0383232
0.0436094
0.0429046
0.0367977
-0.000327485
-0.0364702
0.0369167
-0.000119045
0.0368221
9.46205e-05
0.036534
0.000288053
0.0360518
0.000482264
0.0353892
0.00066253
0.0345668
0.000822412
0.0336099
0.000956918
0.032548
0.00106188
0.00113312
0.0509604
-0.00149485
-0.049793
0.0517068
-0.000865456
0.0520209
-0.000219485
0.0518836
0.00042537
0.0513072
0.00105868
0.0503055
0.00166418
0.0489048
0.00222315
0.047143
0.00271874
0.0450689
0.00313592
0.00346159
0.0590033
-0.00345893
-0.0570392
0.060455
-0.00231722
0.0613676
-0.00113207
0.0617112
8.18259e-05
0.0614821
0.00128769
0.0606768
0.00246957
0.0593092
0.00359066
0.0574085
0.00461945
0.0550192
0.00552527
0.00628018
0.0630009
-0.006061
-0.0603989
0.0650828
-0.00439905
0.0666018
-0.00265113
0.0675226
-0.000838991
0.0678095
0.0010008
0.0674483
0.00283084
0.066433
0.00460591
0.0647742
0.00627825
0.0624997
0.00779981
0.00912453
0.0644648
-0.00912405
-0.0614018
0.067045
-0.00697926
0.0690869
-0.00469305
0.0705391
-0.00229112
0.0713558
0.000184128
0.0715055
0.00268113
0.0709663
0.00514509
0.0697297
0.00751486
0.0678032
0.00972628
0.0117153
0.0644559
-0.0124974
-0.0610825
0.067403
-0.00992635
0.0698514
-0.00714145
0.0717383
-0.00417803
0.0730135
-0.00109105
0.0736358
0.00205882
0.0735741
0.00520676
0.0728052
0.00828377
0.071319
0.0112124
0.0139137
0.0636767
-0.0160793
-0.0600948
0.0668887
-0.0131383
0.0696335
-0.00988624
0.0718438
-0.00638836
0.0734716
-0.00271884
0.0744776
0.00105288
0.0748285
0.00485581
0.0744923
0.00861997
0.0734472
0.0122575
0.0156791
0.062576
-0.0198343
-0.0588211
0.0659838
-0.0165461
0.068928
-0.0128304
0.0713511
-0.00881151
0.0732202
-0.0045879
0.0745046
-0.000231514
0.0751767
0.00418369
0.0751989
0.0085978
0.0745442
0.0129122
0.017033
0.0614589
-0.0237911
-0.0575021
0.0649922
-0.0200794
0.0680357
-0.0158739
0.0705644
-0.0113401
0.0725686
-0.00659215
0.0740363
-0.00169917
0.0749368
0.00328315
0.0752316
0.008303
0.074895
0.0132488
0.0180292
0.0605258
-0.056415
-0.0279019
0.0640772
-0.0236308
0.0671016
-0.0188984
0.0696392
-0.0138778
0.0716921
-0.00864508
0.0732627
-0.00326973
0.0743174
0.00222846
0.074802
0.00781839
0.0747072
0.0133436
0.0187357
0.0423298
0.0134807
-0.00820567
-0.0476048
0.0369709
0.014224
-0.00886517
0.0315286
0.0151047
-0.00966242
0.0260188
0.0161703
-0.0106606
0.0204854
0.0174794
-0.0119459
0.0150226
0.0190822
-0.0136194
0.00981081
0.0209839
-0.0157721
0.00516788
0.02307
-0.0184271
0.00162041
0.0249763
-0.0214288
0.0258722
-0.0242518
0.0421012
0.0187306
-0.047351
0.0367661
0.0195591
0.0313473
0.0205235
0.0258613
0.0216564
0.0203519
0.0229888
0.0149141
0.0245199
0.00972941
0.0261686
0.00511677
0.0276826
0.00160067
0.0284924
0.0274729
0.0415
0.0239246
-0.046694
0.0362204
0.0248387
0.0308589
0.025885
0.0254333
0.027082
0.019989
0.028433
0.0146226
0.0298863
0.00951649
0.0312747
0.00498804
0.0322111
0.00155206
0.0319284
0.0290249
0.0405284
0.0290348
-0.0456387
0.0353345
0.0300326
0.0300632
0.0311563
0.0247347
0.0324106
0.0193967
0.033771
0.0141484
0.0351346
0.009173
0.0362501
0.00478317
0.0366009
0.0014764
0.0352351
0.0305014
0.039188
0.0340349
-0.0441881
0.0341088
0.0351118
0.0289605
0.0363046
0.0237659
0.0376052
0.0185762
0.0389607
0.0134933
0.0402175
0.00870097
0.0410425
0.00450419
0.0407977
0.00137494
0.0383644
0.0318763
0.0374774
0.0388998
-0.0423423
0.0325421
0.0400471
0.0275501
0.0412966
0.0225274
0.0426279
0.017529
0.0439591
0.01266
0.0450864
0.00810365
0.0455989
0.00415391
0.0447474
0.00124911
0.0412692
0.0331254
0.0353897
0.0436038
-0.0400936
0.0306291
0.0448077
0.0258297
0.046096
0.0210199
0.0474377
0.0162581
0.0487209
0.0116529
0.0496916
0.00738585
0.0498659
0.00373636
0.0483969
0.00110094
0.0439046
0.0342263
0.0329057
0.0481139
-0.0374158
0.0283587
0.0493547
0.0237959
0.0506588
0.0192449
0.0519887
0.0147683
0.0531975
0.0104787
0.0539813
0.00655472
0.0537899
0.00325725
0.0516944
0.000933262
0.0462286
0.0351596
0.0299788
0.0523885
-0.0342534
0.0257111
0.0536223
0.0214469
0.0549229
0.0172089
0.0562267
0.01307
0.0573364
0.00914883
0.0579024
0.0056208
0.0573179
0.00272472
0.0545905
0.000750576
0.0482028
0.0359102
0.0265714
-0.0305979
0.0226916
0.0187935
0.0149255
0.0111793
0.00767998
0.004599
0.00215029
0.000560009
0.0246815
-0.0357673
0.0400196
-0.0289338
0.0206984
-0.0355644
0.0395476
0.0168551
-0.0350335
0.0388769
0.0131772
-0.0339959
0.0376737
0.00973922
-0.0321263
0.0355643
0.00663881
-0.0289502
0.0320506
0.00399075
-0.0238179
0.0264659
0.00191698
-0.0158857
0.0179595
0.000540306
-0.00410925
0.00548592
0.0128187
-0.0122784
0.0281184
-0.0314372
-0.0324485
0.0238421
-0.0312881
0.01965
-0.0308415
0.0155837
-0.0299296
0.0117169
-0.0282595
0.00815216
-0.0253854
0.00502075
-0.0206865
0.00248192
-0.0133469
0.000726074
-0.00235341
0.0135447
0.0311388
-0.0269503
-0.0356258
0.026632
-0.0267813
0.0221568
-0.0263663
0.0177639
-0.0255367
0.0135266
-0.0240221
0.00955095
-0.0214098
0.00598256
-0.0171181
0.00301471
-0.010379
0.000902142
-0.000240842
0.0144469
0.0337701
-0.0222926
-0.0384277
0.0290686
-0.0220798
0.0243612
-0.0216589
0.0196957
-0.0208713
0.0151434
-0.0194698
0.0108116
-0.017078
0.00685729
-0.0131638
0.00350371
-0.00702547
0.00106552
0.00219735
0.0155124
0.0360524
-0.0174738
-0.0408713
0.0311771
-0.0172045
0.0262714
-0.0167532
0.021376
-0.0159758
0.0165569
-0.0146507
0.0119207
-0.0124418
0.00763246
-0.00887555
0.00394047
-0.00333348
0.00121252
0.00492531
0.0167249
0.0379958
-0.0125075
-0.0429621
0.0329668
-0.0121755
0.0278918
-0.0116782
0.0228032
-0.0108872
0.0177613
-0.00960875
0.0128698
-0.00755034
0.00829916
-0.0043049
0.00431814
0.000647541
0.00134031
0.00790313
0.0180652
0.0395868
-0.00741338
-0.0446809
0.0344322
-0.00702094
0.0292189
-0.00646486
0.0239737
-0.00564197
0.0187512
-0.00438628
0.0136523
-0.00245144
0.00885067
0.000496722
0.00463154
0.00486666
0.00144658
0.0110881
0.0195118
0.0407868
-0.00227488
-0.0459253
0.0355524
-0.00178655
0.0302417
-0.00115411
0.0248806
-0.000280889
0.0195212
0.000973134
0.0142627
0.00280705
0.00928182
0.0054776
0.00487671
0.00927177
0.00152951
0.0144353
0.0210413
0.0416632
0.00294124
-0.0468794
0.0363597
0.00351704
0.0309739
0.00423168
0.025528
0.00516495
0.0200705
0.00643063
0.0146982
0.00817938
0.00958918
0.0105866
0.005051
0.0138099
0.00158801
0.0178983
0.0226293
0.0421854
-0.0474498
0.0368373
0.0314065
0.0259109
0.0203956
0.0149556
0.00977012
0.005153
0.00162247
0.0441825
0.0214178
-0.0255808
0.0476936
0.0174985
-0.0210096
0.0506201
0.0130802
-0.0160067
0.0530014
0.00833472
-0.0107161
0.0548242
0.0034155
-0.00523824
0.0561255
-0.00156076
0.000259401
0.0567429
-0.00658041
0.00596305
0.0567065
-0.0114462
0.0114826
0.0559721
-0.0160382
0.0167727
-0.0202285
0.0545141
0.0216864
0.0434179
0.0175474
0.0468362
0.0140803
0.0497068
0.0102096
0.0519905
0.006051
0.0536698
0.00173626
0.0547303
-0.00262128
0.0550987
-0.00694878
0.0547568
-0.0111044
0.0536825
-0.0149638
-0.0184108
0.0518648
0.0424667
0.0139576
0.0456617
0.0108853
0.0483319
0.00753938
0.0504032
0.00397964
0.0518333
0.000306158
0.0525904
-0.00337831
0.0526288
-0.00698724
0.051927
-0.0104026
0.0504773
-0.0135142
-0.0162229
0.0482895
0.0409909
0.0106404
0.0438815
0.00799474
0.0462412
0.00517977
0.04799
0.00223084
0.0490741
-0.00077795
0.0494571
-0.00376134
0.0491066
-0.00663676
0.0480123
-0.00930825
0.0461844
-0.0116863
-0.0136939
0.0436554
0.0385656
0.00763911
0.0410857
0.00547461
0.0430492
0.00321632
0.0443881
0.000891957
0.045052
-0.0014419
0.0450109
-0.00372021
0.0442481
-0.00587392
0.0427703
-0.00783052
0.0406083
-0.00952426
-0.0109023
0.0378166
0.0346598
0.00502989
0.0367422
0.00339223
0.0382447
0.00171378
0.0391203
1.64224e-05
0.0393314
-0.001653
0.0388643
-0.00325313
0.0377217
-0.00473138
0.0359302
-0.00603895
0.0335396
-0.00713374
-0.00798509
0.0306225
0.0285966
0.00289926
0.0301842
0.00180454
0.031196
0.000702051
0.0316028
-0.000390452
0.0313944
-0.00144458
0.0305724
-0.00243112
0.0291602
-0.00331918
0.0272018
-0.00408052
0.0247611
-0.00469304
-0.00514325
0.0219193
0.0195358
0.00132295
0.0206038
0.000736541
0.0211469
0.000158985
0.0211601
-0.00040369
0.0206498
-0.00093428
0.0196366
-0.00141793
0.018158
-0.0018405
0.0162671
-0.00218966
0.0140312
-0.00245714
-0.00264
0.0115279
0.0064597
0.000349174
0.00703354
0.000162701
0.00720979
-1.72698e-05
0.00699279
-0.000186692
0.00640182
-0.000343309
0.00546572
-0.000481832
0.00422366
-0.000598429
0.00272417
-0.000690173
0.00102275
-0.00075572
-0.000796384
-0.000820872
-0.0119292
-0.0117665
-0.0117838
-0.0119705
-0.0123138
-0.0127956
-0.013394
-0.0140842
-0.0148399
-0.0156363
0.0523254
-0.0239024
0.026091
0.0494214
-0.0269015
0.0298055
0.0458515
-0.0291505
0.0327204
0.0416984
-0.0306001
0.0347531
0.0370707
-0.03126
0.0358877
0.0320842
-0.0311996
0.0361861
0.0268309
-0.0305262
0.0357794
0.0213261
-0.0293201
0.0348249
0.0154479
-0.0274462
0.0333244
-0.023961
0.00872044
0.0306885
0.0493152
-0.0213528
0.0460719
-0.0236582
0.0422063
-0.0252849
0.0378199
-0.0262137
0.0330328
-0.0264729
0.0279641
-0.0261309
0.0227037
-0.0252658
0.0172828
-0.0238993
0.0117036
-0.0218669
-0.0185664
0.00630898
0.0453978
-0.0184612
0.0418656
-0.020126
0.0377858
-0.0212052
0.0332751
-0.0217029
0.0284614
-0.0216592
0.0234666
-0.0211361
0.0183891
-0.0201883
0.0133039
-0.0188141
0.00832628
-0.0168893
-0.0141102
0.00387
0.0404831
-0.0152888
0.0367535
-0.0163964
0.0325761
-0.0170277
0.0280761
-0.017203
0.0233828
-0.0169659
0.0186164
-0.0163696
0.0138807
-0.0154526
0.00927528
-0.0142087
0.00494877
-0.0125628
-0.0103856
0.00122425
0.0344726
-0.0119448
0.030679
-0.0126027
0.0265529
-0.0129017
0.0222193
-0.0128693
0.0178002
-0.0125468
0.0134069
-0.0119763
0.00913837
-0.0111841
0.00509551
-0.0101658
0.00141469
-0.00888195
-0.00728828
-0.00168268
0.0272676
-0.0085899
0.0235845
-0.00891968
0.0196876
-0.00900482
0.0156911
-0.00887287
0.0117017
-0.00855734
0.00781385
-0.00808844
0.0041127
-0.00748299
0.00068483
-0.00673793
-0.00236285
-0.00583426
-0.0047617
-0.00488943
0.0187656
-0.00543627
0.015405
-0.00555902
0.0119377
-0.00553753
0.00845846
-0.00539365
0.00505165
-0.00515053
0.00179007
-0.00482686
-0.00126122
-0.0044317
-0.00403674
-0.00396241
-0.00646139
-0.00340962
-0.00277282
-0.00845026
0.0088344
-0.00274273
0.00603897
-0.00276359
0.00321891
-0.00271747
0.000443147
-0.00261789
-0.00222991
-0.00247747
-0.0047514
-0.00230537
-0.00707804
-0.00210506
-0.00916637
-0.00187407
-0.0109685
-0.00160747
-0.00130611
-0.0124352
-0.00275256
-0.000811046
-0.00471129
-0.000804854
-0.00664857
-0.000780183
-0.00852382
-0.000742652
-0.0103048
-0.000696468
-0.0119659
-0.000644289
-0.0134843
-0.000586652
-0.0148364
-0.00052201
-0.0159956
-0.000448251
-0.000366682
-0.016935
-0.0164473
-0.0172522
-0.0180324
-0.018775
-0.0194715
-0.0201158
-0.0207024
-0.0212245
-0.0216727
-0.0220394
0.000265098
-0.0223045
0.000970142
-0.0176401
0.00207696
-0.013542
0.00357627
-0.00994957
0.00546621
-0.00677938
0.00774165
-0.00395812
0.0103879
-0.00142195
0.0133692
0.000888654
0.0166352
0.00304295
0.00512093
0.0202347
0.000176965
-0.0224814
0.000655603
-0.0181187
0.00141765
-0.0143041
0.00246092
-0.0109928
0.00378464
-0.0081031
0.00538493
-0.00555841
0.00725551
-0.00329253
0.00939503
-0.00125086
0.0118418
0.000596196
0.00221062
0.0147521
9.526e-05
-0.0225767
0.000370116
-0.0183936
0.000830141
-0.0147641
0.00148701
-0.0116497
0.00235135
-0.00896744
0.00343395
-0.00664101
0.00474875
-0.00460734
0.0063193
-0.0028214
0.0081854
-0.0012699
1.33872e-05
0.0103826
2.69058e-05
-0.0226036
0.000121972
-0.0184886
0.000327738
-0.0149699
0.000666107
-0.0119881
0.00115857
-0.00945991
0.00182607
-0.00730851
0.00269042
-0.00547168
0.00377622
-0.00390721
0.00510619
-0.00259987
-0.00156511
0.00668468
-3.60628e-05
-0.0225676
-8.64498e-05
-0.0184382
-8.87143e-05
-0.0149676
-7.88063e-06
-0.0120689
0.000185495
-0.00965328
0.00051578
-0.0076388
0.00100365
-0.00595955
0.00166547
-0.00456903
0.0025101
-0.00344449
-0.00258021
0.0035252
-9.32917e-05
-0.0224743
-0.000254626
-0.0182769
-0.000421001
-0.0148013
-0.000541702
-0.0119482
-0.000582608
-0.00961238
-0.000520004
-0.0077014
-0.000338114
-0.00614144
-2.8921e-05
-0.00487822
0.00040119
-0.00387461
-0.00311271
0.000933691
-0.000133139
-0.0223411
-0.000384314
-0.0180257
-0.000671627
-0.0145139
-0.000938508
-0.0116813
-0.00114895
-0.00940193
-0.00128195
-0.0075684
-0.00132784
-0.00609556
-0.00128684
-0.00491922
-0.0011677
-0.00399375
-0.00328897
-0.000991436
-0.000161965
-0.0221792
-0.000474042
-0.0177136
-0.000839213
-0.0141488
-0.00119602
-0.0113245
-0.00150833
-0.00908962
-0.00175836
-0.00731838
-0.00194166
-0.00591225
-0.00206399
-0.00479689
-0.00213977
-0.00391797
-0.00323716
-0.00219158
-0.000179479
-0.0219997
-0.000523177
-0.01737
-0.000922216
-0.0137497
-0.0013112
-0.0109355
-0.00165443
-0.00874639
-0.00193714
-0.00703567
-0.00215939
-0.00569
-0.00233188
-0.0046244
-0.00247341
-0.00377644
-0.00310077
-0.0026098
-0.000184112
-0.000530945
-0.000920228
-0.00128327
-0.00158496
-0.00181305
-0.00197112
-0.00207391
-0.0021441
-0.00221018
-0.000642845
-0.00710919
0.00674222
0.0021868
-0.00810734
0.00527769
0.0061224
-0.00905501
0.00511941
0.010633
-0.0120315
0.00752093
0.0153681
-0.0168987
0.0121636
0.0199341
-0.0230208
0.0184548
0.0241439
-0.0295906
0.0253809
0.0278929
-0.034479
0.03073
0.031267
-0.0349063
0.0315322
0.0344549
-0.027802
0.0246141
0.0376156
-0.0113939
0.0082332
0.0407977
0.0113
-0.0144822
0.0441643
0.030832
-0.0341985
0.0478704
0.0325681
-0.0362743
0.0517234
0.0109355
-0.0147885
0.0547772
-0.0278629
0.024809
0.0570153
-0.0602335
0.0579954
0.058412
-0.0733974
0.0720008
0.0607461
-0.0592332
0.056899
-0.0142215
0.0122631
0.00186169
-0.00802392
0.00496385
-0.0112095
0.00899389
-0.013085
0.0134494
-0.0164871
0.0180106
-0.0214598
0.0223174
-0.0273276
0.0262011
-0.0334743
0.0295868
-0.0378647
0.0325949
-0.0379144
0.035465
-0.0306722
0.0384182
-0.014347
0.0415426
0.00817563
0.0449746
0.0273999
0.0487675
0.0287753
0.052623
0.00708004
0.0555691
-0.030809
0.0576194
-0.0622838
0.0587982
-0.0745762
0.0609153
-0.0613503
-0.0160877
0.00517753
-0.00960095
0.00851253
-0.0145445
0.0125711
-0.0171436
0.01687
-0.020786
0.0211528
-0.0257426
0.0251127
-0.0312875
0.0286048
-0.0369665
0.0315839
-0.0408438
0.034196
-0.0405265
0.03672
-0.0331962
0.0394294
-0.0170565
0.04245
0.00515498
0.0458917
0.0239583
0.04971
0.024957
0.0535163
0.00327368
0.0563318
-0.0336245
0.0581997
-0.0641517
0.0591848
-0.0755613
0.0611074
-0.0632729
-0.0178878
0.00919594
-0.0119531
0.0126779
-0.0180264
0.0166695
-0.0211353
0.0207078
-0.0248243
0.0246173
-0.0296521
0.0281584
-0.0348286
0.0312136
-0.0400217
0.0337646
-0.0433949
0.035974
-0.0427359
0.0381454
-0.0353676
0.040593
-0.019504
0.0434747
0.00227323
0.0468744
0.0205586
0.0506595
0.0211719
0.0543698
-0.000436665
0.0570386
-0.0362933
0.0587369
-0.06585
0.059559
-0.0763835
0.0613153
-0.0650291
-0.0196512
0.013738
-0.0151122
0.0172705
-0.021559
0.0210738
-0.0249385
0.0247477
-0.0284983
0.0282029
-0.0331072
0.0312726
-0.0378983
0.0338672
-0.0426162
0.0359911
-0.0455188
0.0378136
-0.0445584
0.0396488
-0.0372028
0.0418359
-0.0216911
0.0445578
-0.000448609
0.0478727
0.0172437
0.051573
0.0174716
0.0551487
-0.00401236
0.0576629
-0.0388075
0.0592117
-0.0673988
0.0599077
-0.0770795
0.0615314
-0.0666528
-0.0214098
0.018612
-0.0190205
0.0220755
-0.0250225
0.0255485
-0.0284114
0.0287594
-0.0317092
0.0316977
-0.0360456
0.0342658
-0.0404663
0.0363986
-0.0447491
0.0381176
-0.0472378
0.0395896
-0.0460304
0.0411254
-0.0387385
0.0430744
-0.0236402
0.0456305
-0.00300466
0.0488309
0.0140433
0.0524054
0.0138971
0.0558184
-0.00742536
0.0581796
-0.0411688
0.0596062
-0.0688254
0.0602182
-0.0776914
0.061748
-0.0681827
-0.023198
0.023599
-0.0234959
0.0268497
-0.0282733
0.0298437
-0.0314054
0.0325068
-0.0343723
0.0348902
-0.038429
0.0369515
-0.0425277
0.0386439
-0.0464415
0.0399991
-0.048593
0.0411746
-0.0472059
0.0424657
-0.0400297
0.0442161
-0.0253905
0.0466207
-0.00540921
0.0496909
0.0109731
0.0531121
0.0104759
0.0563466
-0.0106599
0.0585659
-0.043388
0.0599043
-0.0701638
0.0604789
-0.078266
0.0619578
-0.0696616
-0.0250525
0.028443
-0.0281669
0.03131
-0.0311403
0.0336953
-0.0337907
0.0357546
-0.0364316
0.0375772
-0.0402516
0.0391546
-0.0441051
0.0404501
-0.047737
0.0414999
-0.0496427
0.0424468
-0.0481528
0.0435621
-0.041145
0.04517
-0.0269985
0.0474537
-0.00769292
0.0503954
0.00803134
0.0536512
0.00722012
0.0567044
-0.013713
0.058802
-0.0454857
0.060092
-0.0714538
0.0606794
-0.0788534
0.0621537
-0.0711359
-0.0270114
0.0329476
-0.0324265
0.0351962
-0.0333889
0.0368728
-0.0354672
0.0383072
-0.0378661
0.039596
-0.0415403
0.0407381
-0.0452472
0.0416991
-0.048698
0.0425142
-0.0504578
0.0433086
-0.0489472
0.0443241
-0.0421605
0.0458553
-0.0285297
0.048061
-0.00989855
0.0508906
0.00520175
0.0539837
0.00412698
0.0568659
-0.0165952
0.0588717
-0.0474915
0.0601585
-0.0727406
0.0608114
-0.0795062
0.0623294
-0.072654
-0.0291137
0.037199
-0.0355957
0.038435
-0.0346248
0.0392727
-0.036305
0.0400814
-0.0386748
0.0408771
-0.042336
0.0416443
-0.0460145
0.0423399
-0.0493936
0.0429936
-0.0511114
0.0437103
-0.049664
0.0446993
-0.0431495
0.0462176
-0.030048
0.0483891
-0.0120701
0.0511277
0.00246321
0.0540715
0.00118316
0.0568061
-0.0193299
0.058761
-0.0494464
0.060095
-0.0740746
0.0608695
-0.0802807
0.0624782
-0.0742627
-0.0314002
0.118343
-0.0272
-0.126739
0.114178
-0.0304599
0.112089
-0.0342159
0.111069
-0.0376549
0.110349
-0.041616
0.109641
-0.0453064
0.108625
-0.0483775
0.107176
-0.049663
0.105372
-0.0478595
0.103615
-0.0413923
0.102686
-0.0291193
0.103511
-0.0128948
0.106605
-0.000630576
0.111192
-0.00340416
0.115582
-0.0237195
0.117822
-0.0516867
0.117853
-0.0741062
0.116265
-0.0786918
0.115778
-0.0737765
-0.032682
0.165755
-0.0166759
-0.176279
0.157935
-0.0226396
0.152609
-0.0288905
0.148943
-0.0339889
0.145997
-0.03867
0.143376
-0.0426852
0.140703
-0.0457045
0.137819
-0.0467793
0.134778
-0.0448181
0.131974
-0.0385881
0.130204
-0.0273496
0.13042
-0.0131111
0.13307
-0.00327991
0.137202
-0.00753609
0.140957
-0.0274748
0.142365
-0.0530951
0.141383
-0.0731235
0.138744
-0.0760529
0.137187
-0.0722198
-0.0334978
0.217169
-0.00620478
-0.22764
0.208402
-0.0138724
0.201022
-0.0215106
0.195024
-0.0279904
0.18983
-0.0334762
0.185102
-0.0379575
0.180531
-0.0411335
0.175989
-0.0422372
0.171549
-0.0403782
0.167602
-0.034641
0.16492
-0.0246675
0.164398
-0.0125888
0.16633
-0.00521229
0.169565
-0.0107709
0.172153
-0.0300629
0.172228
-0.0531704
0.16981
-0.0707056
0.165813
-0.0720558
0.162845
-0.069252
-0.0336025
0.268709
0.00214595
-0.277059
0.261108
-0.00627209
0.253624
-0.0140267
0.246591
-0.0209574
0.239982
-0.0268673
0.233659
-0.031634
0.227488
-0.0349624
0.221471
-0.0362206
0.215778
-0.0346852
0.210835
-0.0296977
0.207369
-0.0212016
0.206131
-0.0113508
0.207156
-0.00623743
0.209072
-0.0126873
0.209933
-0.030924
0.208144
-0.0513809
0.203855
-0.0664169
0.198215
-0.0664159
0.193504
-0.0645407
-0.032731
0.318357
0.0072007
-0.323412
0.312833
-0.000748628
0.306753
-0.00794626
0.300201
-0.0144053
0.293449
-0.0201153
0.286593
-0.0247785
0.279681
-0.0280497
0.27287
-0.0294103
0.266474
-0.0282888
0.260994
-0.0242175
0.257119
-0.017327
0.255402
-0.00963389
0.255533
-0.00636806
0.255902
-0.0130569
0.254635
-0.0296562
0.250567
-0.0473134
0.244069
-0.0599186
0.236598
-0.0589444
0.229908
-0.0578511
-0.0306349
0.366912
0.00924102
-0.368952
0.363708
0.00245493
0.359412
-0.00365029
0.354188
-0.0091813
0.348242
-0.0141695
0.34181
-0.0183462
0.335081
-0.0213208
0.328325
-0.0226545
0.321961
-0.0219244
0.316558
-0.0188148
0.312773
-0.0135414
0.310956
-0.00781703
0.310439
-0.00585165
0.309373
-0.0119909
0.305948
-0.0262304
0.299509
-0.0408753
0.290715
-0.0511243
0.281417
-0.0496461
0.272713
-0.0491473
-0.0271418
0.417624
0.00892486
-0.417307
0.416253
0.00382597
0.413594
-0.000991796
0.409779
-0.00536577
0.404952
-0.00934308
0.39936
-0.0127542
0.393287
-0.0152477
0.387081
-0.0164485
0.381212
-0.0160557
0.376273
-0.0138755
0.372873
-0.0101413
0.371209
-0.00615265
0.370349
-0.00499192
0.368248
-0.00988972
0.36308
-0.0210623
0.354618
-0.0324138
0.343801
-0.0403076
0.332935
-0.0387797
0.322447
-0.0386594
-0.0222142
0.473868
0.006981
-0.471924
0.474027
0.00366651
0.472712
0.000323699
0.470089
-0.00274312
0.4663
-0.00555422
0.461545
-0.0079988
0.456139
-0.00984211
0.450492
-0.0108012
0.445104
-0.0106677
0.44056
-0.00933147
0.437415
-0.00699664
0.435783
-0.0045207
0.434648
-0.00385634
0.431904
-0.0071461
0.425616
-0.0147741
0.415761
-0.0225587
0.403455
-0.0280016
0.391447
-0.0267725
0.379608
-0.0268203
-0.015961
0.539514
0.00391082
-0.536444
0.540906
0.00227431
0.540689
0.000540768
0.539023
-0.00107714
0.536041
-0.0025721
0.531926
-0.00388347
0.526979
-0.00489574
0.521636
-0.00545774
0.516424
-0.00545533
0.511927
-0.00483518
0.508653
-0.00372223
0.50668
-0.00254783
0.505066
-0.0022423
0.501798
-0.00387828
0.494795
-0.00777134
0.484022
-0.0117851
0.470644
-0.0146236
0.457797
-0.0139253
0.444966
-0.0139892
-0.00855052
0.619793
-0.615883
0.622068
0.622608
0.621531
0.618959
0.615076
0.61018
0.604722
0.599267
0.594432
0.590709
0.588162
0.585919
0.582041
0.57427
0.562485
0.547861
0.533936
0.519947
0.167772
0.0229372
-0.166794
0.167972
0.0285154
0.167213
0.0337893
0.165306
0.0386261
0.162085
0.0428849
0.157439
0.0464308
0.15135
0.0491558
0.143953
0.0510073
0.135603
0.0519597
0.0517691
0.192028
0.0209516
-0.190043
0.193703
0.0268403
0.194921
0.0325715
0.195511
0.0380365
0.195285
0.0431107
0.194055
0.0476609
0.191651
0.051559
0.187953
0.0547054
0.182841
0.0570721
0.0583311
0.217751
0.0184102
-0.21521
0.22041
0.0241813
0.223092
0.0298896
0.225666
0.035463
0.227958
0.0408185
0.229757
0.0458619
0.230826
0.0504905
0.230936
0.0545952
0.229912
0.0580961
0.0606025
0.246288
0.0157321
-0.24361
0.24936
0.0211095
0.252784
0.0264655
0.256494
0.0317539
0.26039
0.0369216
0.264346
0.0419061
0.268201
0.0466362
0.271764
0.0510316
0.274833
0.0550276
0.0583759
0.27867
0.0130603
-0.275999
0.281914
0.0178665
0.285719
0.02266
0.290065
0.0274078
0.294913
0.0320739
0.3002
0.0366191
0.305835
0.0410004
0.311697
0.0451706
0.317641
0.0490829
0.0526057
0.31571
0.0104261
-0.313076
0.319048
0.0145285
0.323089
0.0186192
0.327825
0.0226718
0.333239
0.0266594
0.339305
0.0305539
0.345979
0.034326
0.353204
0.0379451
0.360908
0.0413791
0.044562
0.358294
0.00783856
-0.355706
0.361706
0.011116
0.365943
0.0143826
0.370997
0.0176173
0.376858
0.0207987
0.383507
0.0239052
0.390917
0.0269152
0.399056
0.0298069
0.407876
0.0325583
0.0351309
0.40784
0.0052812
-0.405283
0.411345
0.00761114
0.415795
0.00993303
0.42118
0.0122314
0.427489
0.0144906
0.434699
0.0166951
0.442784
0.0188294
0.451713
0.0208785
0.461444
0.0228269
0.0246512
0.466496
0.00270283
-0.463917
0.470157
0.00395027
0.474896
0.00519396
0.480702
0.00642528
0.487557
0.00763554
0.495436
0.00881611
0.504307
0.00995846
0.514131
0.0110543
0.524863
0.0120953
0.0130698
0.537683
-0.534981
0.541634
0.546828
0.553253
0.560889
0.569705
0.579663
0.590717
0.602813
0.143437
-0.0305532
-0.140786
0.146335
-0.0265287
0.149328
-0.0218911
0.152319
-0.0168692
0.155242
-0.0115679
0.158044
-0.00607114
0.160776
-0.000503884
0.16316
0.0054342
0.165208
0.0112958
0.0171496
0.170904
-0.0322527
-0.169204
0.17274
-0.0283647
0.174668
-0.0238197
0.176705
-0.0189064
0.178837
-0.0136995
0.181051
-0.0082851
0.183264
-0.00271736
0.185599
0.00309981
0.187869
0.00902536
0.0149764
0.202358
-0.0326649
-0.201945
0.202977
-0.0289841
0.203732
-0.0245748
0.204666
-0.01984
0.205818
-0.0148515
0.207199
-0.0096665
0.208797
-0.0043152
0.21071
0.00118657
0.212851
0.00688429
0.0126176
0.237453
-0.0317235
-0.238394
0.236757
-0.0282889
0.236338
-0.024155
0.236227
-0.0197299
0.236467
-0.0150909
0.237077
-0.0102768
0.238069
-0.00530752
0.239511
-0.000254724
0.241349
0.0050458
0.0103564
0.276208
-0.0294771
-0.278454
0.274267
-0.0263482
0.272739
-0.0226275
0.271667
-0.018657
0.271078
-0.014502
0.270993
-0.0101925
0.27143
-0.00574436
0.272362
-0.00118664
0.2739
0.00350813
0.00825736
0.319277
-0.0259677
-0.322787
0.31617
-0.0232411
0.313599
-0.0200559
0.311609
-0.016667
0.310226
-0.0131194
0.30947
-0.00943635
0.309359
-0.00563317
0.309903
-0.00173092
0.311143
0.002268
0.00632477
0.367719
-0.0212276
-0.372459
0.3635
-0.0190215
0.359929
-0.0164856
0.357054
-0.0137915
0.354901
-0.0109667
0.353494
-0.00802893
0.352852
-0.00499188
0.352994
-0.0018721
0.353942
0.00131913
0.00456127
0.422933
-0.0152999
-0.428861
0.417644
-0.0137324
0.413108
-0.0119493
0.40937
-0.0100537
0.406464
-0.00806089
0.404418
-0.00598293
0.403257
-0.0038308
0.403002
-0.00161672
0.403673
0.000647669
0.00295173
0.487051
-0.00821853
-0.494132
0.480713
-0.00739412
0.475222
-0.00645865
0.47063
-0.00546107
0.466977
-0.00440828
0.464301
-0.00330671
0.462633
-0.00216266
0.461999
-0.000983042
0.462422
0.000224411
0.00145658
0.563474
-0.571693
0.55608
0.549621
0.54416
0.539752
0.536445
0.534283
0.5333
0.533524
0.126771
0.00231293
-0.00222215
0.126516
0.00703674
-0.00678221
0.126102
0.0121687
-0.0117544
0.125532
0.0180908
-0.0175212
0.12486
0.0251679