/*--------------------------------*- C++ -*----------------------------------*\
  =========                 |
  \\      /  F ield         | OpenFOAM: The Open Source CFD Toolbox
   \\    /   O peration     | Website:  https://openfoam.org
    \\  /    A nd           | Version:  6.0
     \\/     M anipulation  |
\*---------------------------------------------------------------------------*/
FoamFile
{
    version     2.0;
    format      ascii;
    class       volVectorField;
    location    "14";
    object      U;
}
// * * * * * * * * * * * * * * * * * * * * * * * * * * * * * * * * * * * * * //

dimensions      [0 1 -1 0 0 0 0];

internalField   nonuniform List<vector> 
2400
(
(0.0179151 -0.434154 -1.30617e-20)
(0.00560464 -0.336929 5.92929e-21)
(-0.003757 -0.263573 -6.62678e-21)
(-0.0106263 -0.208405 -4.32621e-21)
(-0.0150033 -0.16676 -7.60062e-21)
(-0.0169961 -0.134996 1.05247e-20)
(-0.0170525 -0.110369 4.31297e-21)
(-0.0156862 -0.090849 4.07575e-21)
(-0.0133866 -0.0749528 -9.51194e-21)
(-0.0111494 -0.0616369 -7.47378e-22)
(0.0515346 -0.427839 1.45623e-20)
(0.0320194 -0.32941 -1.51207e-21)
(0.0184241 -0.256991 3.11438e-21)
(0.00949207 -0.203817 4.07874e-20)
(0.00464004 -0.164543 -3.12196e-20)
(0.00332131 -0.135086 -1.659e-21)
(0.00475251 -0.112418 -3.66501e-22)
(0.00817914 -0.0943186 -4.2275e-21)
(0.0129528 -0.0791528 -7.52906e-21)
(0.0177545 -0.0658334 -3.07085e-21)
(0.0843963 -0.419338 2.68854e-20)
(0.0579503 -0.321091 2.78597e-20)
(0.0410419 -0.250661 -8.09146e-20)
(0.0312693 -0.200267 2.69452e-20)
(0.0273006 -0.163951 4.50784e-20)
(0.0280712 -0.137242 -2.61414e-20)
(0.0324207 -0.116873 -2.2667e-20)
(0.039338 -0.100429 2.14909e-20)
(0.0480159 -0.0860911 -4.92138e-20)
(0.0567093 -0.0727148 5.35848e-20)
(0.11648 -0.408884 -9.40541e-20)
(0.0836973 -0.312431 4.77441e-20)
(0.064643 -0.245082 -4.75421e-20)
(0.0554323 -0.198201 2.45466e-20)
(0.0538205 -0.165339 -2.86997e-20)
(0.0581498 -0.141736 4.63177e-20)
(0.0668486 -0.123946 2.52986e-20)
(0.0786436 -0.109379 -7.67282e-20)
(0.0925789 -0.0959758 -7.5607e-20)
(0.106379 -0.082508 9.09925e-20)
(0.147809 -0.396699 3.86251e-21)
(0.109715 -0.303797 -1.85785e-20)
(0.0900068 -0.240587 -8.35612e-21)
(0.0829875 -0.197818 -1.04703e-20)
(0.0853458 -0.168729 -7.12589e-20)
(0.0947633 -0.148413 1.1757e-20)
(0.109233 -0.133347 -7.89898e-21)
(0.127225 -0.120809 8.39379e-20)
(0.147663 -0.108456 -5.94301e-20)
(0.167642 -0.0949282 -4.43799e-20)
(0.178484 -0.383001 9.09491e-20)
(0.13662 -0.295464 -9.40775e-21)
(0.11813 -0.237324 1.45093e-19)
(0.115188 -0.199038 -1.87779e-20)
(0.123281 -0.173767 9.21346e-20)
(0.139373 -0.156626 -1.05495e-20)
(0.161001 -0.144171 -8.8497e-22)
(0.186398 -0.13365 6.85636e-20)
(0.214424 -0.122425 -3.85252e-20)
(0.241477 -0.108973 7.63046e-20)
(0.208683 -0.367993 -3.44595e-20)
(0.165185 -0.287599 1.24633e-20)
(0.150183 -0.235247 -3.72453e-20)
(0.15346 -0.201513 -4.70825e-20)
(0.169192 -0.179735 -5.10887e-21)
(0.193581 -0.165252 1.57052e-19)
(0.223687 -0.154897 -5.67912e-20)
(0.257524 -0.146075 2.85047e-20)
(0.293996 -0.135941 -9.8835e-20)
(0.328816 -0.122827 -6.45662e-20)
(0.238671 -0.351845 1.65917e-19)
(0.196296 -0.280233 -1.90875e-20)
(0.18742 -0.234108 -2.02218e-19)
(0.19926 -0.204648 1.14983e-20)
(0.224618 -0.185625 5.00608e-20)
(0.258895 -0.172786 -7.52406e-20)
(0.298649 -0.163451 -1.02183e-19)
(0.341678 -0.155465 1.56434e-19)
(0.387112 -0.146013 -1.32851e-20)
(0.430232 -0.13347 -1.49035e-19)
(0.268795 -0.334676 -1.39361e-19)
(0.230889 -0.273226 8.36574e-20)
(0.231056 -0.233451 1.33562e-19)
(0.25391 -0.207663 3.67703e-20)
(0.290872 -0.190287 -1.4483e-19)
(0.336513 -0.177563 9.68625e-20)
(0.38681 -0.167382 6.07981e-20)
(0.439227 -0.158179 1.29458e-19)
(0.493273 -0.147474 -7.9282e-20)
(0.544693 -0.134625 -1.19822e-19)
(0.299449 -0.316469 4.74893e-20)
(0.269821 -0.266188 -1.99004e-20)
(0.282068 -0.232613 -6.65873e-22)
(0.318376 -0.209733 4.1861e-20)
(0.368914 -0.192822 3.59539e-20)
(0.427545 -0.178591 -2.54791e-20)
(0.489734 -0.16527 -5.18585e-20)
(0.552414 -0.151542 8.33989e-20)
(0.614675 -0.135434 -7.12529e-20)
(0.673172 -0.119223 6.70032e-20)
(0.61727 -0.00932446 4.22455e-21)
(0.590785 -0.055208 1.21927e-20)
(0.561188 -0.0972534 -4.078e-20)
(0.529427 -0.135421 3.58055e-20)
(0.496337 -0.169818 1.34652e-20)
(0.462638 -0.200689 1.67136e-19)
(0.428903 -0.228382 -6.39229e-20)
(0.395545 -0.253317 -8.56856e-20)
(0.362836 -0.275974 8.88787e-20)
(0.330885 -0.296875 -1.53938e-19)
(0.832543 0.0174628 1.52229e-20)
(0.779738 -0.0410431 -4.88664e-21)
(0.721327 -0.0920824 -4.11008e-20)
(0.659477 -0.13531 1.08925e-19)
(0.59624 -0.170795 -3.6369e-20)
(0.533481 -0.198995 2.73891e-19)
(0.472782 -0.220702 -1.68875e-19)
(0.415383 -0.23698 2.40915e-19)
(0.362156 -0.249094 -1.63965e-19)
(0.313599 -0.258414 -8.37338e-20)
(1.01824 0.067067 -3.04093e-20)
(0.954704 -0.000612062 4.47975e-21)
(0.882255 -0.0599484 -1.31969e-19)
(0.803566 -0.110013 1.01522e-19)
(0.721385 -0.150421 -1.02655e-19)
(0.638382 -0.181335 -1.92122e-19)
(0.556987 -0.203451 -6.22646e-20)
(0.479262 -0.217947 -5.32292e-20)
(0.40682 -0.226408 1.68282e-19)
(0.340824 -0.230688 8.68321e-20)
(1.16844 0.117168 1.3969e-20)
(1.1042 0.0444015 -2.44446e-20)
(1.02789 -0.020696 -3.30965e-20)
(0.942127 -0.0766327 -1.2976e-19)
(0.84987 -0.122448 7.55895e-20)
(0.754197 -0.157786 2.18768e-19)
(0.658115 -0.182939 9.42189e-20)
(0.564355 -0.198869 1.82426e-20)
(0.475233 -0.207177 4.9897e-20)
(0.392659 -0.210017 -1.65108e-21)
(1.28327 0.159868 -1.65652e-20)
(1.22459 0.0856998 -6.50478e-20)
(1.15137 0.0177427 8.75946e-21)
(1.06579 -0.0421023 1.1288e-19)
(0.970572 -0.0923537 1.1594e-19)
(0.868807 -0.132078 -7.64347e-20)
(0.76373 -0.161013 -1.42339e-19)
(0.65847 -0.179688 -6.86723e-20)
(0.555832 -0.189515 8.05245e-20)
(0.458341 -0.192866 1.09838e-19)
(1.36628 0.193318 3.46681e-21)
(1.31663 0.120613 5.55283e-20)
(1.25092 0.0523775 -1.30011e-19)
(1.17065 -0.00927459 1.62852e-19)
(1.07799 -0.062479 9.60128e-20)
(0.975677 -0.105773 1.74174e-19)
(0.866823 -0.138284 -3.72336e-20)
(0.754605 -0.159963 -9.91748e-20)
(0.641935 -0.171855 2.34911e-19)
(0.531506 -0.176552 -1.90814e-19)
(1.42254 0.217458 8.58685e-21)
(1.3833 0.148165 -6.70746e-20)
(1.32746 0.0816471 -4.16824e-20)
(1.25575 0.0200399 -8.89869e-20)
(1.16961 -0.0345775 -1.25723e-20)
(1.07119 -0.0803231 -1.30931e-19)
(0.963154 -0.115714 -8.0987e-20)
(0.848386 -0.140002 -1.67968e-20)
(0.729386 -0.153659 -1.46294e-19)
(0.60805 -0.159518 2.07874e-19)
(1.45735 0.233273 -7.63208e-21)
(1.42847 0.168484 5.62827e-20)
(1.3833 0.105011 -2.50138e-20)
(1.32185 0.0448552 5.59625e-20)
(1.24481 -0.00985875 1.37303e-19)
(1.15361 -0.0569683 2.2337e-19)
(1.0503 -0.0944196 -6.42306e-20)
(0.937234 -0.120606 -2.20074e-19)
(0.815977 -0.13501 5.98182e-20)
(0.685975 -0.140467 -3.43133e-19)
(1.47548 0.242382 1.11568e-20)
(1.45602 0.182412 -1.32832e-20)
(1.42122 0.122586 -1.36377e-19)
(1.37051 0.0646547 4.16467e-20)
(1.30391 0.0106304 -9.65556e-20)
(1.22212 -0.0372063 -4.00174e-20)
(1.12659 -0.0763192 -3.19814e-20)
(1.01916 -0.104055 9.16909e-20)
(0.900454 -0.118007 1.05769e-19)
(0.765491 -0.1192 6.44503e-20)
(1.48067 0.246395 -2.74299e-20)
(1.46924 0.191368 4.91375e-20)
(1.44386 0.135462 2.28767e-20)
(1.40355 0.0800898 6.98334e-20)
(1.34772 0.0270046 -8.04326e-21)
(1.27649 -0.0215939 -5.37286e-21)
(1.19077 -0.0629197 -1.81017e-19)
(1.0923 -0.0934209 2.30791e-19)
(0.98183 -0.108278 -1.42836e-19)
(0.848653 -0.102719 2.97842e-20)
(0.537826 0.499791 -5.94976e-20)
(0.57764 0.460351 6.86789e-20)
(0.6111 0.415475 1.15808e-21)
(0.637537 0.366126 -1.70253e-19)
(0.656445 0.313392 1.26636e-19)
(0.667592 0.258466 -9.5075e-20)
(0.671025 0.202568 -2.31912e-20)
(0.667062 0.146875 -2.21224e-20)
(0.656276 0.0924548 3.66672e-20)
(0.639442 0.040188 2.54634e-21)
(0.752791 0.674394 8.91857e-20)
(0.813104 0.631952 2.37808e-20)
(0.864035 0.57939 -1.23418e-19)
(0.904039 0.518256 -1.51344e-19)
(0.93187 0.45035 1.19838e-19)
(0.946714 0.377698 -1.07676e-19)
(0.948251 0.302464 1.28514e-19)
(0.936674 0.22684 -3.37204e-20)
(0.9127 0.152928 -1.12892e-19)
(0.877519 0.0826114 -8.48848e-21)
(0.886914 0.755103 -6.81177e-21)
(0.959111 0.71866 2.09534e-21)
(1.02186 0.669886 8.22154e-20)
(1.07306 0.610263 8.34458e-20)
(1.11092 0.541583 1.91872e-19)
(1.13404 0.46594 6.89052e-20)
(1.14157 0.385657 -4.65268e-20)
(1.13318 0.303199 -1.02477e-19)
(1.10916 0.221058 8.31078e-20)
(1.07041 0.141624 5.71832e-21)
(0.968609 0.775024 2.4031e-20)
(1.04667 0.746887 -5.68913e-20)
(1.1165 0.70592 -2.80571e-20)
(1.17574 0.653288 -1.59217e-19)
(1.22226 0.590476 -9.73065e-20)
(1.2543 0.519297 1.8746e-19)
(1.27051 0.441848 1.27562e-19)
(1.27003 0.360447 -1.07443e-19)
(1.25257 0.277553 4.99707e-21)
(1.21843 0.195659 -4.79653e-21)
(1.01686 0.758795 -6.5181e-20)
(1.09665 0.73843 1.09887e-19)
(1.16984 0.705787 -2.86696e-20)
(1.23394 0.661653 8.67294e-20)
(1.28674 0.607122 -6.05605e-20)
(1.32631 0.543626 -1.13373e-19)
(1.35103 0.472892 6.04952e-20)
(1.35966 0.396902 -6.39897e-20)
(1.35136 0.317846 -6.38913e-20)
(1.32583 0.238049 2.80165e-20)
(1.0447 0.723339 -1.17882e-20)
(1.12368 0.709252 2.0119e-20)
(1.19752 0.68404 -1.93748e-20)
(1.26374 0.648065 -1.65021e-19)
(1.32023 0.602055 9.50301e-20)
(1.36513 0.547085 1.90017e-20)
(1.39676 0.484507 -1.04624e-19)
(1.41367 0.415927 -3.86218e-20)
(1.41469 0.343173 3.61586e-20)
(1.39903 0.26826 -1.02325e-20)
(1.06076 0.679376 -1.52011e-20)
(1.13776 0.67001 5.32397e-21)
(1.21051 0.65094 2.66159e-20)
(1.27669 0.622028 9.36378e-20)
(1.33451 0.583708 2.37241e-20)
(1.38239 0.536792 6.02712e-20)
(1.41877 0.482334 1.28123e-19)
(1.44219 0.421606 -5.48648e-20)
(1.45133 0.356085 5.13913e-20)
(1.44507 0.287432 -1.93363e-20)
(1.07056 0.633351 -1.45922e-20)
(1.14524 0.627778 2.13133e-20)
(1.21579 0.613721 2.07254e-20)
(1.28026 0.590562 -4.85047e-20)
(1.33748 0.558629 -3.18118e-20)
(1.38626 0.518622 -6.63769e-20)
(1.42528 0.471406 9.34342e-21)
(1.45321 0.418007 -1.56814e-20)
(1.46869 0.359607 -1.09793e-19)
(1.47047 0.297538 1.54471e-20)
(1.07827 0.589614 -2.29807e-21)
(1.14995 0.587577 -1.53809e-20)
(1.21711 0.57754 -1.73713e-20)
(1.27849 0.558743 1.07787e-20)
(1.33365 0.531717 -4.60304e-21)
(1.38177 0.497205 5.90402e-20)
(1.42176 0.455972 2.66819e-20)
(1.45241 0.408873 4.31022e-20)
(1.47244 0.356856 5.29228e-20)
(1.48056 0.300974 -2.27701e-20)
(1.09009 0.549695 -2.68578e-21)
(1.15686 0.549097 2.52464e-20)
(1.21854 0.541551 -6.93135e-20)
(1.27516 0.525843 -4.75408e-21)
(1.3268 0.502658 9.00757e-20)
(1.37281 0.472753 4.41581e-21)
(1.4122 0.436774 5.40348e-20)
(1.44388 0.39539 -1.19556e-19)
(1.46668 0.349328 -1.45771e-21)
(1.47938 0.299377 1.22428e-20)
(0.597023 0.193817 -9.3282e-21)
(0.556248 0.209367 3.18777e-21)
(0.509554 0.227927 1.05115e-21)
(0.456158 0.250637 -1.69527e-20)
(0.395129 0.278981 7.51853e-21)
(0.325958 0.314493 2.22356e-20)
(0.249071 0.358126 -2.06454e-20)
(0.166737 0.40888 -5.28729e-21)
(0.0871587 0.46123 -6.33727e-21)
(0.0323541 0.500699 -2.2944e-20)
(0.619525 0.251482 -2.56532e-20)
(0.580653 0.271849 5.23477e-20)
(0.535892 0.295671 -4.81173e-20)
(0.484784 0.323825 -8.14665e-21)
(0.426455 0.35732 1.35204e-20)
(0.360375 0.396723 -1.58796e-20)
(0.286858 0.441232 -4.47916e-20)
(0.207809 0.486918 5.17794e-20)
(0.130501 0.523485 -8.40846e-23)
(0.0749048 0.528788 2.31983e-20)
(0.649509 0.306322 -8.54424e-20)
(0.61326 0.33127 8.80673e-20)
(0.571125 0.36012 3.06609e-20)
(0.523056 0.393424 1.68281e-21)
(0.468183 0.431714 1.95754e-20)
(0.40583 0.474597 7.70852e-21)
(0.335969 0.51954 -1.27473e-20)
(0.259737 0.559776 -2.80057e-20)
(0.182755 0.580491 -2.0459e-20)
(0.121585 0.552482 2.96145e-20)
(0.686607 0.357347 -7.06544e-20)
(0.653615 0.386528 6.42532e-20)
(0.614735 0.420039 5.15439e-20)
(0.57039 0.458035 -3.51562e-20)
(0.519653 0.500566 -1.29485e-19)
(0.461573 0.546301 4.17005e-20)
(0.395562 0.591047 -2.99373e-20)
(0.321618 0.625379 8.16192e-20)
(0.24305 0.630398 7.15472e-20)
(0.171804 0.570813 -6.25153e-20)
(0.730301 0.403668 -5.05825e-20)
(0.701081 0.436628 2.2294e-20)
(0.665996 0.474306 -6.16852e-20)
(0.625966 0.516368 4.83675e-20)
(0.579931 0.562391 -2.31227e-20)
(0.526542 0.610149 -1.94232e-20)
(0.464442 0.653894 -1.94663e-20)
(0.39216 0.681808 -3.13173e-21)
(0.310147 0.671514 -2.8234e-20)
(0.22475 0.582919 -1.65837e-20)
(0.779911 0.444527 1.2661e-19)
(0.754835 0.480717 2.50808e-20)
(0.723975 0.521936 -8.37495e-20)
(0.688732 0.567273 7.81848e-20)
(0.647821 0.615859 3.59038e-20)
(0.599369 0.664625 5.78424e-20)
(0.541072 0.706418 -3.33793e-21)
(0.469716 0.727371 3.50878e-20)
(0.382479 0.702381 8.78904e-21)
(0.279436 0.5881 3.33107e-20)
(0.834561 0.479329 -1.366e-19)
(0.813847 0.518107 1.53114e-19)
(0.787519 0.562101 -7.37456e-20)
(0.757405 0.609762 -4.15304e-20)
(0.721872 0.659814 5.1808e-22)
(0.678412 0.708421 -5.59389e-20)
(0.623615 0.747205 3.79005e-20)
(0.55233 0.760661 4.21559e-20)
(0.45821 0.721832 5.89354e-21)
(0.334742 0.585849 -2.46886e-20)
(0.89313 0.507747 -9.99187e-21)
(0.876834 0.5483 -5.92935e-20)
(0.855235 0.594125 2.51147e-20)
(0.830474 0.642998 -5.14355e-21)
(0.800407 0.693284 -1.98502e-20)
(0.761781 0.740456 9.61103e-21)
(0.709974 0.775118 -3.65448e-21)
(0.637788 0.780601 -9.15703e-21)
(0.535294 0.729042 7.93382e-21)
(0.389454 0.575872 -9.13092e-21)
(0.954212 0.52993 2.05907e-20)
(0.942251 0.571211 6.5537e-21)
(0.925583 0.617633 -4.1628e-20)
(0.906325 0.666387 3.13836e-20)
(0.881613 0.715533 -1.36268e-20)
(0.847418 0.759916 -3.82538e-21)
(0.797867 0.789345 -9.08946e-21)
(0.723705 0.786487 -1.98407e-21)
(0.611566 0.723562 -5.6894e-20)
(0.442342 0.558121 3.49293e-20)
(1.01446 0.543601 -2.60159e-20)
(1.00648 0.584758 1.83864e-20)
(0.995834 0.631091 -4.53034e-21)
(0.9827 0.678878 -3.37585e-21)
(0.963302 0.725781 -1.23514e-20)
(0.933038 0.766165 -6.1051e-21)
(0.884857 0.789381 8.1932e-21)
(0.807599 0.777994 4.01049e-20)
(0.684842 0.705313 5.25612e-20)
(0.492229 0.532759 7.64576e-21)
(0.769544 -0.31722 1.56791e-19)
(0.740365 -0.338511 -9.51189e-20)
(0.703238 -0.357928 3.60693e-20)
(0.657582 -0.370356 -8.20604e-20)
(0.598635 -0.371093 -5.36096e-20)
(0.520358 -0.352622 -8.28891e-20)
(0.415161 -0.304033 -1.00435e-19)
(0.273507 -0.210946 -4.58605e-20)
(0.0840945 -0.0551145 -6.33147e-20)
(-0.16749 0.186337 3.10517e-20)
(0.726871 -0.28385 -9.41137e-20)
(0.696607 -0.303717 -7.57821e-20)
(0.657656 -0.322274 1.30598e-19)
(0.610333 -0.334947 6.41585e-20)
(0.550901 -0.336923 9.50974e-20)
(0.474056 -0.320654 -1.59769e-19)
(0.373191 -0.275088 5.48513e-20)
(0.240187 -0.185364 1.12022e-19)
(0.0661204 -0.0320824 7.60959e-20)
(-0.158785 0.209976 -8.00925e-20)
(0.686934 -0.244237 4.43828e-20)
(0.654736 -0.262085 -1.75699e-20)
(0.614182 -0.279038 1.85519e-19)
(0.565308 -0.29097 -1.11528e-19)
(0.505103 -0.293117 -9.07579e-20)
(0.42912 -0.278108 5.2117e-20)
(0.331875 -0.235085 -7.31577e-22)
(0.206874 -0.149227 -2.25344e-19)
(0.0479238 -0.000831886 -9.08614e-21)
(-0.149517 0.236265 7.0466e-20)
(0.65202 -0.200274 2.94013e-19)
(0.617471 -0.215337 -1.3348e-19)
(0.575058 -0.22962 4.47715e-20)
(0.524471 -0.239553 -7.63888e-20)
(0.463203 -0.240604 1.99047e-19)
(0.387622 -0.225744 -1.05525e-20)
(0.293387 -0.184585 -3.72867e-20)
(0.175712 -0.102861 5.71709e-21)
(0.0313017 0.0385425 1.8512e-20)
(-0.138859 0.265202 -9.19593e-20)
(0.622912 -0.151873 -2.543e-19)
(0.58599 -0.163586 -2.69578e-21)
(0.541675 -0.174427 1.00134e-19)
(0.489362 -0.181365 -4.86617e-21)
(0.426934 -0.180214 -1.14435e-20)
(0.351497 -0.164447 1.30662e-19)
(0.259817 -0.124432 -2.43569e-20)
(0.148796 -0.0469679 2.99468e-20)
(0.0180315 0.0855622 5.75894e-21)
(-0.126004 0.296564 1.22643e-19)
(0.600218 -0.099421 9.36532e-21)
(0.561171 -0.107317 -1.4471e-19)
(0.515145 -0.114113 1.30228e-19)
(0.461294 -0.117249 -1.14149e-20)
(0.39782 -0.112951 2.19704e-20)
(0.322485 -0.095327 -1.10335e-19)
(0.233077 -0.0557652 -1.64581e-20)
(0.128078 0.0173899 -8.21254e-21)
(0.00979317 0.139387 -5.70286e-20)
(-0.11019 0.329929 -2.66933e-20)
(0.58446 -0.0436425 1.31233e-19)
(0.543728 -0.0473108 -1.21308e-19)
(0.496365 -0.0495704 -5.7469e-21)
(0.441349 -0.0482482 -1.43453e-19)
(0.377142 -0.0400129 7.81219e-20)
(0.302076 -0.0197193 -4.93145e-20)
(0.214832 0.0200011 4.12429e-20)
(0.11528 0.0888277 -7.88364e-20)
(0.00808642 0.198857 -7.35453e-20)
(-0.0907364 0.36469 -5.19696e-20)
(0.576044 0.0145846 8.22434e-20)
(0.534209 0.015479 -8.09717e-20)
(0.486024 0.0181403 3.58311e-20)
(0.43037 0.0244301 2.52009e-20)
(0.365923 0.0372231 -4.64397e-20)
(0.291478 0.0608358 7.95536e-20)
(0.206451 0.101207 4.83169e-20)
(0.111836 0.165679 -1.46245e-19)
(0.0141675 0.262531 2.45083e-20)
(-0.0670869 0.400085 6.25993e-20)
(0.57525 0.0742776 8.72332e-20)
(0.533002 0.0799716 -1.28353e-20)
(0.484614 0.0878239 -7.3499e-21)
(0.42897 0.0994394 -5.86716e-22)
(0.364914 0.117231 3.11947e-20)
(0.291594 0.144626 -9.18392e-20)
(0.208973 0.185988 7.54432e-20)
(0.118844 0.246043 5.85799e-21)
(0.0290015 0.328741 -2.7385e-21)
(-0.0388365 0.435231 4.57464e-20)
(0.582234 0.134383 -2.53161e-20)
(0.54033 0.145001 -2.5847e-21)
(0.492427 0.158194 6.80218e-21)
(0.437521 0.175336 7.54456e-21)
(0.374587 0.198378 1.8972e-20)
(0.303005 0.229811 -1.36621e-20)
(0.22308 0.272327 -7.99496e-21)
(0.137036 0.327839 -1.24004e-20)
(0.0532352 0.395639 1.14176e-20)
(-0.00573473 0.469152 -8.23577e-21)
(0.82909 -0.3508 1.52837e-19)
(0.878786 -0.372996 -5.61279e-20)
(0.924444 -0.38985 1.46032e-20)
(0.966237 -0.399427 5.96917e-20)
(1.00429 -0.401894 3.04876e-20)
(1.03772 -0.397663 2.5194e-21)
(1.06516 -0.386936 2.97194e-21)
(1.08509 -0.369925 -2.34103e-21)
(1.09585 -0.346967 -1.47919e-21)
(1.09574 -0.31859 1.15748e-21)
(0.792753 -0.368237 6.94497e-20)
(0.844526 -0.390035 5.59068e-20)
(0.893044 -0.405362 5.18203e-20)
(0.937018 -0.412914 -1.52398e-20)
(0.975766 -0.412679 -1.31911e-20)
(1.00829 -0.405003 -1.0522e-20)
(1.03321 -0.390235 1.78994e-21)
(1.049 -0.368844 3.50708e-21)
(1.05403 -0.341491 1.98426e-21)
(1.04679 -0.309092 -2.23455e-21)
(0.754096 -0.385199 -2.03709e-19)
(0.80586 -0.404605 2.02776e-20)
(0.854854 -0.416752 -9.80675e-20)
(0.898833 -0.42086 -1.51233e-20)
(0.936425 -0.416798 4.8688e-20)
(0.966309 -0.404879 1.46745e-20)
(0.98702 -0.38562 -1.64065e-21)
(0.997045 -0.359763 -1.25763e-21)
(0.994957 -0.328311 -7.8953e-21)
(0.979577 -0.292557 1.55357e-21)
(0.707641 -0.396102 -5.37934e-20)
(0.757978 -0.41288 -7.79917e-20)
(0.805372 -0.421266 -7.42275e-21)
(0.847258 -0.421035 -2.49003e-20)
(0.881747 -0.412275 -2.53734e-20)
(0.907204 -0.395478 -2.37732e-21)
(0.922094 -0.37143 -2.77772e-21)
(0.925036 -0.341205 5.21929e-22)
(0.914919 -0.306172 8.09366e-21)
(0.891054 -0.267988 -1.8106e-21)
(0.647406 -0.394803 -1.15983e-19)
(0.695174 -0.408474 1.21242e-19)
(0.739205 -0.412688 6.61746e-21)
(0.776949 -0.407708 -5.4981e-21)
(0.806307 -0.394013 1.37534e-20)
(0.825529 -0.372432 4.27013e-21)
(0.833164 -0.344113 -6.23824e-21)
(0.828106 -0.310502 9.80514e-21)
(0.809694 -0.273324 -1.52937e-21)
(0.777828 -0.23453 -7.35101e-22)
(0.566342 -0.37348 1.66186e-19)
(0.609936 -0.383576 -9.19295e-20)
(0.648704 -0.383588 -2.77784e-20)
(0.680276 -0.374198 -6.49656e-21)
(0.702632 -0.356322 -1.06645e-20)
(0.714159 -0.33119 4.40885e-21)
(0.713681 -0.300334 -5.82741e-21)
(0.700517 -0.265545 -3.6513e-21)
(0.674554 -0.228816 2.56576e-21)
(0.63631 -0.192248 3.29012e-21)
(0.455715 -0.32166 2.69745e-20)
(0.492713 -0.328428 1.64949e-20)
(0.52397 -0.325206 3.24928e-21)
(0.547411 -0.313044 -9.81333e-21)
(0.561309 -0.293253 3.05091e-20)
(0.564405 -0.267426 6.55366e-22)
(0.555961 -0.237392 8.39543e-22)
(0.535811 -0.205153 1.03056e-21)
(0.504401 -0.172788 3.508e-21)
(0.462784 -0.142337 -2.48997e-21)
(0.304707 -0.225987 7.77106e-20)
(0.331788 -0.231101 5.49336e-20)
(0.35291 -0.227368 -9.24436e-20)
(0.366419 -0.216093 -1.71896e-20)
(0.371049 -0.198827 -2.85067e-20)
(0.366026 -0.177335 -1.67681e-21)
(0.351117 -0.153526 -8.83189e-21)
(0.326645 -0.129354 1.15454e-20)
(0.293487 -0.106714 -1.52331e-22)
(0.253013 -0.0873296 5.25678e-21)
(0.100061 -0.0701718 -1.41465e-20)
(0.112553 -0.07786 -9.16747e-20)
(0.120255 -0.0792929 6.86126e-20)
(0.122088 -0.0757501 -2.22769e-20)
(0.11735 -0.0686702 2.81309e-20)
(0.10577 -0.0596047 -1.39426e-21)
(0.0875284 -0.0501366 -7.24476e-21)
(0.0632387 -0.0417876 5.93044e-22)
(0.0339077 -0.0359269 -4.41682e-22)
(0.000849321 -0.0336976 -2.67013e-21)
(-0.176467 0.16506 -1.38585e-20)
(-0.185988 0.14612 4.73953e-20)
(-0.196643 0.128866 -1.96052e-20)
(-0.208758 0.112658 5.64423e-21)
(-0.222454 0.0968442 -5.72579e-21)
(-0.237645 0.0807646 -1.84968e-22)
(-0.254043 0.0637929 1.18145e-21)
(-0.27118 0.0453794 5.39573e-21)
(-0.28845 0.0250878 -2.55772e-21)
(-0.305165 0.0026053 -9.05939e-22)
(1.08312 -0.285583 1.84428e-21)
(1.05671 -0.249143 -8.92762e-21)
(1.01581 -0.210905 4.87878e-20)
(0.960567 -0.17299 -3.54076e-20)
(0.892144 -0.137934 4.17082e-21)
(0.812736 -0.108532 -3.58796e-20)
(0.72522 -0.087547 1.80243e-19)
(0.632326 -0.0772949 9.13129e-21)
(0.532711 -0.0796638 -5.37175e-20)
(0.414893 -0.0911367 1.21129e-19)
(1.02597 -0.272863 5.98427e-21)
(0.990807 -0.234431 -1.77772e-20)
(0.941265 -0.195789 -1.80045e-20)
(0.878216 -0.159249 -1.32758e-20)
(0.803496 -0.127297 -3.81609e-20)
(0.719726 -0.10236 -9.26038e-22)
(0.629797 -0.0864784 -1.16718e-20)
(0.535857 -0.0808172 3.2902e-20)
(0.436749 -0.0852049 1.05807e-19)
(0.326803 -0.0931743 -2.32682e-20)
(0.950104 -0.2541 -4.02986e-21)
(0.906424 -0.214896 3.55634e-20)
(0.849229 -0.177128 9.27402e-21)
(0.780082 -0.143104 -2.00639e-21)
(0.701355 -0.115053 4.14946e-20)
(0.61594 -0.0948555 1.80262e-20)
(0.526708 -0.083702 3.49437e-20)
(0.435681 -0.081609 -3.77902e-20)
(0.342779 -0.0868377 -7.5432e-20)
(0.246687 -0.0929356 -1.77251e-19)
(0.853256 -0.228564 4.91976e-21)
(0.802123 -0.190053 -1.5624e-20)
(0.739053 -0.154667 2.26564e-20)
(0.666191 -0.124525 -5.14977e-20)
(0.586281 -0.101444 -3.04756e-20)
(0.502333 -0.0866795 -1.44127e-20)
(0.41714 -0.0806291 -7.30401e-20)
(0.332739 -0.0824917 -3.3767e-20)
(0.249966 -0.0899112 4.07819e-21)
(0.169672 -0.0977256 5.47695e-20)
(0.732989 -0.196216 2.42445e-21)
(0.676451 -0.160564 -3.18103e-23)
(0.6102 -0.129623 1.49021e-20)
(0.536775 -0.105157 4.58281e-20)
(0.45907 -0.0884591 -7.76466e-21)
(0.380019 -0.0801473 -6.77451e-20)
(0.30222 -0.0799665 1.14176e-19)
(0.227615 -0.0866091 -3.48103e-20)
(0.15743 -0.0975973 -2.61482e-20)
(0.0930911 -0.108964 -1.23231e-20)
(0.586875 -0.157935 -6.66716e-21)
(0.528057 -0.127889 7.02683e-21)
(0.462212 -0.10381 2.32551e-20)
(0.392013 -0.0869782 -2.23967e-20)
(0.320258 -0.0781206 4.44334e-20)
(0.249602 -0.0772817 -5.42296e-21)
(0.182301 -0.0837253 4.2603e-21)
(0.120044 -0.0958838 2.85923e-20)
(0.0640239 -0.11139 2.23901e-20)
(0.0154749 -0.127163 7.19493e-21)
(0.412488 -0.115676 9.83963e-22)
(0.355604 -0.0944341 -1.33123e-21)
(0.294571 -0.0798236 3.30657e-20)
(0.231911 -0.0725838 -3.96005e-20)
(0.17008 -0.0729081 -7.54294e-20)
(0.111281 -0.0803943 3.63816e-20)
(0.0573075 -0.0940214 -1.92754e-20)
(0.00948092 -0.112172 2.05912e-20)
(-0.0312664 -0.132723 5.7927e-20)
(-0.0641133 -0.153251 -6.27214e-20)
(0.206911 -0.0726441 -1.04059e-21)
(0.157227 -0.0637267 -2.06099e-20)
(0.10616 -0.0612415 2.92023e-20)
(0.0558027 -0.0654136 1.8031e-20)
(0.00806665 -0.0760166 -5.50264e-20)
(-0.0354259 -0.0923811 -4.32595e-20)
(-0.0734096 -0.113414 -3.06642e-21)
(-0.10498 -0.137642 6.77565e-21)
(-0.12953 -0.163297 8.65531e-21)
(-0.146618 -0.188493 -2.43707e-20)
(-0.0344657 -0.0359517 1.74642e-21)
(-0.0704161 -0.0430788 2.8343e-20)
(-0.105393 -0.0552496 1.16603e-20)
(-0.137974 -0.0723066 -3.83832e-20)
(-0.166948 -0.0937941 3.80348e-20)
(-0.19135 -0.119002 -4.98799e-20)
(-0.210469 -0.146996 6.54809e-20)
(-0.223819 -0.176644 -7.87438e-20)
(-0.231096 -0.206664 -4.1703e-20)
(-0.232119 -0.235726 -1.12155e-19)
(-0.320578 -0.0222822 -4.87799e-22)
(-0.33397 -0.0492301 -8.11942e-21)
(-0.344725 -0.0781573 6.02229e-21)
(-0.352319 -0.108779 7.1755e-21)
(-0.356367 -0.140696 -1.62191e-20)
(-0.356611 -0.17344 1.59953e-20)
(-0.352897 -0.20649 -1.95785e-20)
(-0.345149 -0.239271 1.517e-20)
(-0.333344 -0.271172 -3.85414e-20)
(-0.317482 -0.301579 4.2552e-20)
(-0.297475 -0.329867 6.08719e-20)
(-0.226868 -0.262619 -4.64408e-20)
(-0.155963 -0.211637 -4.85659e-20)
(-0.0881268 -0.171734 6.565e-20)
(-0.0235444 -0.140454 -6.05901e-21)
(0.038334 -0.116442 7.89443e-20)
(0.0976981 -0.0984101 9.04607e-21)
(0.154796 -0.0854694 -7.14207e-20)
(0.21097 -0.0776765 1.32262e-19)
(0.265437 -0.0718132 -1.87015e-20)
(-0.27398 -0.355149 -6.42664e-20)
(-0.21585 -0.286358 1.79047e-19)
(-0.157731 -0.231846 -7.47849e-21)
(-0.102753 -0.18767 -5.99515e-20)
(-0.0510244 -0.151685 4.78247e-20)
(-0.00189393 -0.122496 -1.09358e-19)
(0.0450394 -0.0987191 1.26487e-19)
(0.090411 -0.0793679 -1.07315e-19)
(0.135749 -0.0646752 1.9345e-20)
(0.179373 -0.0540009 8.60142e-20)
(-0.247393 -0.377314 3.68634e-20)
(-0.199803 -0.306503 -1.12814e-19)
(-0.152789 -0.248687 3.93894e-20)
(-0.108978 -0.200916 -2.19551e-20)
(-0.0682585 -0.161337 4.07967e-20)
(-0.0298377 -0.128645 -3.06385e-20)
(0.00684679 -0.101645 -2.92722e-20)
(0.0424825 -0.0795998 3.97995e-20)
(0.0780841 -0.0627746 -9.31637e-20)
(0.111631 -0.0510124 1.43123e-19)
(-0.218194 -0.396164 -7.86892e-20)
(-0.179654 -0.322785 8.73491e-21)
(-0.142366 -0.261884 4.1303e-20)
(-0.108314 -0.211214 5.63261e-20)
(-0.0771536 -0.169108 -8.64871e-20)
(-0.048008 -0.13431 7.22521e-21)
(-0.0202851 -0.105732 -4.87498e-20)
(0.0065923 -0.0827257 -1.0272e-19)
(0.033251 -0.0653564 1.96281e-19)
(0.0579801 -0.0533136 7.68897e-20)
(-0.186918 -0.411566 5.512e-20)
(-0.156382 -0.335079 1.28012e-20)
(-0.127726 -0.271296 5.031e-20)
(-0.10226 -0.218337 -6.20567e-21)
(-0.0794229 -0.174552 6.73221e-20)
(-0.0583023 -0.138605 3.32179e-20)
(-0.0383379 -0.109356 8.53643e-20)
(-0.019084 -0.0860469 -8.70266e-20)
(-0.000159428 -0.0684217 -9.02907e-21)
(0.0171244 -0.0559843 -1.00562e-19)
(-0.154099 -0.423477 3.65295e-20)
(-0.130917 -0.343421 -4.37794e-20)
(-0.110043 -0.276968 -9.92266e-21)
(-0.0921626 -0.222255 -1.7342e-20)
(-0.0765439 -0.17746 -1.91242e-20)
(-0.0622885 -0.141038 -2.44637e-20)
(-0.0489028 -0.111681 4.00382e-20)
(-0.0360677 -0.0884285 -5.37053e-20)
(-0.0235704 -0.0707074 4.86153e-20)
(-0.01239 -0.0578683 6.55242e-21)
(-0.120232 -0.431929 -6.34794e-20)
(-0.104081 -0.348003 -3.25703e-20)
(-0.0903181 -0.279148 5.68855e-20)
(-0.0791256 -0.223183 -2.13295e-20)
(-0.0696767 -0.17794 3.17979e-20)
(-0.0611353 -0.141559 -9.67132e-20)
(-0.0531072 -0.112491 7.41438e-20)
(-0.0453989 -0.0895466 -2.79217e-20)
(-0.0379344 -0.0718907 5.06656e-20)
(-0.0314695 -0.0587532 -6.26879e-20)
(-0.0857636 -0.43703 2.92647e-20)
(-0.0765606 -0.349164 -1.27907e-20)
(-0.0693486 -0.278272 -1.98652e-20)
(-0.0639906 -0.221572 -8.00769e-21)
(-0.0596624 -0.176402 4.43985e-21)
(-0.0556491 -0.14051 1.34534e-20)
(-0.0516929 -0.112062 -3.33117e-20)
(-0.0477389 -0.0896452 2.03573e-20)
(-0.0438416 -0.0722159 6.27206e-20)
(-0.0406511 -0.0589105 -6.21862e-20)
(-0.051075 -0.43896 2.19189e-20)
(-0.0488898 -0.347355 6.26404e-23)
(-0.0477197 -0.274925 3.08459e-20)
(-0.0473425 -0.218062 -2.67754e-20)
(-0.0470572 -0.173493 8.32124e-21)
(-0.0463392 -0.138524 -9.34598e-21)
(-0.0451128 -0.111016 -5.34363e-21)
(-0.0434842 -0.0893428 -3.12045e-20)
(-0.0416442 -0.0722952 3.41355e-20)
(-0.0402507 -0.0589352 3.65188e-20)
(-0.0164585 -0.437948 -3.8665e-21)
(-0.0214316 -0.343099 -3.34986e-21)
(-0.0258006 -0.269786 -3.03758e-21)
(-0.0295208 -0.213405 -1.17109e-20)
(-0.0321572 -0.17 1.27132e-20)
(-0.033456 -0.1364 4.66863e-21)
(-0.0335758 -0.110162 -1.00459e-20)
(-0.0328127 -0.0894531 6.19867e-22)
(-0.0315022 -0.0729243 -6.13146e-21)
(-0.0304193 -0.0595793 -4.33017e-22)
(-0.00926437 -0.0264379 -1.39654e-21)
(0.00163267 -0.0252912 -1.41323e-21)
(0.0557839 -0.0263621 3.18026e-21)
(0.107068 -0.0344665 -2.14054e-21)
(0.169988 -0.0459105 -7.02205e-22)
(0.229993 -0.057964 -1.35571e-21)
(0.287903 -0.0675083 4.76565e-22)
(0.340229 -0.070279 -5.89995e-22)
(0.3879 -0.0623949 2.97961e-22)
(0.432631 -0.0417659 5.83084e-23)
(0.476818 -0.0103573 -3.1639e-22)
(0.521783 0.0226819 7.82349e-23)
(0.568383 0.0435644 -7.55465e-23)
(0.620536 0.0380482 -1.65845e-22)
(0.6758 0.00783624 2.7543e-23)
(0.730996 -0.035264 -4.65172e-23)
(0.766611 -0.0649736 1.77724e-23)
(0.805889 -0.0727651 8.11565e-24)
(0.819733 -0.0558877 -9.43175e-24)
(0.886699 -0.0132456 1.46691e-23)
(0.0256489 -0.0290823 6.49718e-21)
(0.0390834 -0.0364909 4.94706e-21)
(0.0967555 -0.039872 -4.70077e-21)
(0.148957 -0.0486068 2.61946e-21)
(0.210996 -0.0594069 -5.12288e-21)
(0.26886 -0.0699482 -2.03949e-22)
(0.323297 -0.0777453 -4.84041e-22)
(0.371087 -0.0788516 -8.94184e-22)
(0.41339 -0.0697287 6.14513e-22)
(0.452514 -0.0483601 1.93514e-22)
(0.491792 -0.0165641 7.3711e-23)
(0.533771 0.0167126 6.21073e-22)
(0.579891 0.0376148 -6.98485e-22)
(0.633614 0.0321259 -1.50173e-22)
(0.690423 0.00230113 1.13032e-22)
(0.745744 -0.0394282 7.25601e-23)
(0.779295 -0.0680525 -1.34695e-22)
(0.815018 -0.0747951 1.1147e-22)
(0.824813 -0.0586318 2.22591e-23)
(0.887788 -0.0155592 -3.37792e-23)
(0.0734011 -0.0341076 -2.25698e-20)
(0.0898007 -0.0485687 2.92178e-21)
(0.150822 -0.0535968 2.2096e-20)
(0.203047 -0.0623826 -1.11845e-20)
(0.262846 -0.0722188 -1.55309e-21)
(0.317296 -0.08109 -5.09241e-21)
(0.367153 -0.0870746 -1.2848e-23)
(0.409569 -0.0865368 -1.87869e-21)
(0.445881 -0.0762679 -6.03985e-22)
(0.478873 -0.0543325 -4.71714e-22)
(0.512678 -0.0223914 -9.44425e-23)
(0.551 0.0108742 5.31039e-23)
(0.595865 0.0316406 7.03329e-22)
(0.650239 0.0261843 -3.13888e-22)
(0.707632 -0.00313405 -2.59525e-22)
(0.762241 -0.0433712 2.48052e-22)
(0.793303 -0.070838 -4.28951e-23)
(0.82521 -0.0765242 -5.12305e-23)
(0.830961 -0.061096 -8.03575e-23)
(0.889567 -0.0177366 -5.46049e-23)
(0.134083 -0.041894 -6.14256e-21)
(0.153446 -0.0613805 2.41249e-20)
(0.216883 -0.06725 -1.1365e-20)
(0.267922 -0.0754696 -6.25666e-21)
(0.324022 -0.0840517 5.00589e-21)
(0.373814 -0.0911631 -9.36746e-22)
(0.418107 -0.0953393 2.16849e-21)
(0.454478 -0.093231 -7.19943e-22)
(0.484381 -0.081936 1.90102e-21)
(0.510933 -0.0596072 8.40501e-22)
(0.538899 -0.0277483 -1.8161e-21)
(0.573029 0.00527397 2.38538e-22)
(0.61592 0.0257611 -7.32164e-23)
(0.670029 0.0203405 5.16069e-22)
(0.727063 -0.00837493 1.28974e-22)
(0.780165 -0.0470376 -1.84066e-22)
(0.808362 -0.0733052 -1.32248e-22)
(0.836265 -0.0779441 -1.51035e-22)