/*--------------------------------*- C++ -*----------------------------------*\
  =========                 |
  \\      /  F ield         | OpenFOAM: The Open Source CFD Toolbox
   \\    /   O peration     | Website:  https://openfoam.org
    \\  /    A nd           | Version:  6.0
     \\/     M anipulation  |
\*---------------------------------------------------------------------------*/
FoamFile
{
    version     2.0;
    format      ascii;
    class       volScalarField;
    location    "11";
    object      p;
}
// * * * * * * * * * * * * * * * * * * * * * * * * * * * * * * * * * * * * * //

dimensions      [0 2 -2 0 0 0 0];

internalField   nonuniform List<scalar> 
9600
(
-118.134
-102.436
-91.1651
-81.9649
-73.6562
-66.2448
-59.6809
-53.8608
-48.6954
-44.1076
-40.0276
-36.3926
-33.1473
-30.2433
-27.6384
-25.2962
-23.1854
-21.2775
-19.548
-17.9927
-118.955
-103.242
-91.9272
-82.6712
-74.3078
-66.8477
-60.2415
-54.3853
-49.189
-44.5749
-40.4721
-36.8173
-33.5544
-30.6346
-28.0155
-25.6603
-23.5375
-21.618
-19.8769
-18.3133
-119.781
-104.038
-92.6768
-83.3664
-74.9496
-67.4414
-60.7937
-54.9021
-49.6758
-45.036
-40.911
-37.2367
-33.9566
-31.0215
-28.3884
-26.0205
-23.8858
-21.9549
-20.2023
-18.6307
-120.606
-104.827
-93.4156
-84.0505
-75.5808
-68.0253
-61.3368
-55.4105
-50.1549
-45.49
-41.3434
-37.6503
-34.3535
-31.4033
-28.7566
-26.3763
-24.23
-22.2878
-20.524
-18.9449
-121.425
-105.607
-94.1432
-84.7229
-76.2007
-68.5985
-61.8699
-55.9098
-50.6255
-45.9363
-41.7687
-38.0573
-34.7443
-31.7796
-29.1197
-26.7273
-24.5698
-22.6165
-20.8418
-19.2559
-122.235
-106.376
-94.8589
-85.3827
-76.8083
-69.16
-62.3921
-56.3988
-51.0867
-46.3739
-42.186
-38.4569
-35.1283
-32.1496
-29.4771
-27.0731
-24.9048
-22.9408
-21.1557
-19.5638
-123.032
-107.133
-95.5611
-86.0288
-77.4024
-69.7087
-62.9023
-56.8767
-51.5375
-46.8018
-42.5945
-38.8484
-35.5048
-32.5128
-29.8283
-27.4133
-25.2347
-23.2606
-21.4656
-19.8686
-123.816
-107.875
-96.2485
-86.66
-77.982
-70.2435
-63.3993
-57.3423
-51.9769
-47.2192
-42.993
-39.2307
-35.873
-32.8684
-30.1725
-27.7473
-25.5592
-23.5757
-21.7716
-20.1705
-124.584
-108.601
-96.9195
-87.275
-78.5459
-70.7632
-63.8821
-57.7944
-52.4036
-47.6247
-43.3806
-39.6029
-36.2317
-33.2153
-30.509
-28.0744
-25.8777
-23.8856
-22.0735
-20.4697
-125.334
-109.309
-97.5728
-87.8725
-79.0927
-71.2666
-64.3492
-58.2318
-52.8164
-48.0171
-43.7559
-39.9636
-36.5799
-33.5526
-30.8366
-28.3936
-26.1893
-24.1897
-22.3707
-20.7659
-126.066
-109.998
-98.2072
-88.4514
-79.6213
-71.7524
-64.7996
-58.653
-53.2139
-48.3949
-44.1174
-40.3113
-36.916
-33.8786
-31.1541
-28.7037
-26.4929
-24.487
-22.6626
-21.0584
-126.779
-110.667
-98.8215
-89.0104
-80.1305
-72.2194
-65.2317
-59.0568
-53.5945
-48.7567
-44.4635
-40.6444
-37.2382
-34.1919
-31.4599
-29.0034
-26.7874
-24.7765
-22.9482
-21.346
-127.472
-111.316
-99.4148
-89.5485
-80.6191
-72.6663
-65.6444
-59.4417
-53.9568
-49.1005
-44.7922
-40.9607
-37.5444
-34.4899
-31.7516
-29.2904
-27.0709
-25.057
-23.2267
-21.6289
-128.144
-111.942
-99.9859
-90.0648
-81.0863
-73.0921
-66.0364
-59.8063
-54.2992
-49.4247
-45.1015
-41.2578
-37.8317
-34.7696
-32.0257
-29.561
-27.3398
-25.325
-23.496
-21.9078
-128.795
-112.546
-100.534
-90.5585
-81.5312
-73.496
-66.4068
-60.1494
-54.6202
-49.7276
-45.3895
-41.5336
-38.0976
-35.0278
-32.2783
-29.8103
-27.5879
-25.5737
-23.7496
-22.1774
-129.427
-113.126
-101.059
-91.029
-81.9531
-73.8769
-66.7543
-60.4698
-54.9183
-50.0073
-45.6541
-41.7858
-38.3397
-35.2621
-32.507
-30.0355
-27.8116
-25.7982
-23.9796
-22.4204
-130.046
-113.687
-101.56
-91.4751
-82.3506
-74.2336
-67.0777
-60.766
-55.1919
-50.262
-45.8927
-42.011
-38.5541
-35.4686
-32.7086
-30.2357
-28.0135
-26.0033
-24.1884
-22.6323
-130.665
-114.234
-102.038
-91.8955
-82.7228
-74.5657
-67.3769
-61.0379
-55.4407
-50.4905
-46.1032
-42.2054
-38.7346
-35.638
-32.8714
-30.398
-28.1822
-26.1829
-24.3837
-22.8625
-131.284
-114.765
-102.492
-92.291
-83.0715
-74.8757
-67.6546
-61.2884
-55.6672
-50.6953
-46.2872
-42.3692
-38.8784
-35.7621
-32.9775
-30.4897
-28.2648
-26.2683
-24.5119
-23.1238
-131.845
-115.263
-102.922
-92.6659
-83.4018
-75.1689
-67.9162
-61.5226
-55.8771
-50.8822
-46.4516
-42.5102
-38.9939
-35.8488
-33.0301
-30.4994
-28.2201
-26.1702
-24.4091
-23.0821
-136.893
-136.867
-136.786
-136.686
-136.57
-136.432
-136.267
-136.077
-135.862
-135.624
-135.365
-135.084
-134.782
-134.462
-134.124
-133.77
-133.401
-133.022
-132.637
-132.251
-119.705
-119.719
-119.694
-119.643
-119.568
-119.466
-119.337
-119.183
-119.003
-118.8
-118.574
-118.328
-118.061
-117.775
-117.471
-117.15
-116.813
-116.46
-116.092
-115.698
-106.655
-106.701
-106.717
-106.703
-106.661
-106.592
-106.496
-106.376
-106.232
-106.065
-105.876
-105.668
-105.44
-105.193
-104.929
-104.647
-104.347
-104.029
-103.69
-103.324
-95.7962
-95.8579
-95.893
-95.8996
-95.8784
-95.8311
-95.7593
-95.6643
-95.5472
-95.4091
-95.251
-95.0739
-94.8788
-94.6663
-94.437
-94.1909
-93.9277
-93.6462
-93.3444
-93.0192
-86.0914
-86.1561
-86.1971
-86.2123
-86.2017
-86.1668
-86.1092
-86.0302
-85.9309
-85.8122
-85.6752
-85.5209
-85.3503
-85.164
-84.9625
-84.7458
-84.5138
-84.2653
-83.9991
-83.7128
-77.5604
-77.6215
-77.6611
-77.6775
-77.6702
-77.6402
-77.5892
-77.5185
-77.4291
-77.3219
-77.1981
-77.0588
-76.905
-76.7373
-76.5565
-76.3627
-76.1556
-75.9347
-75.6984
-75.4447
-70.112
-70.1663
-70.2009
-70.214
-70.2052
-70.1754
-70.126
-70.0583
-69.9734
-69.8722
-69.756
-69.6259
-69.483
-69.3283
-69.1625
-68.9859
-68.7986
-68.5999
-68.3884
-68.1619
-63.5887
-63.635
-63.6628
-63.6705
-63.6577
-63.6254
-63.5748
-63.5071
-63.4233
-63.3247
-63.2124
-63.0876
-62.9517
-62.8057
-62.6507
-62.4874
-62.3157
-62.1354
-61.945
-61.7422
-57.8524
-57.8906
-57.9112
-57.9128
-57.8951
-57.8591
-57.8059
-57.7366
-57.6522
-57.5541
-57.4433
-57.3214
-57.1897
-57.0497
-56.9027
-56.7496
-56.5909
-56.4263
-56.2545
-56.073
-52.7882
-52.8188
-52.8324
-52.828
-52.8054
-52.7654
-52.709
-52.6374
-52.5516
-52.4527
-52.3422
-52.2215
-52.0923
-51.9563
-51.8151
-51.6702
-51.5224
-51.3718
-51.2171
-51.0557
-48.2989
-48.3227
-48.33
-48.3201
-48.2929
-48.249
-48.1896
-48.1154
-48.0277
-47.9275
-47.8164
-47.6959
-47.5679
-47.4343
-47.2974
-47.159
-47.0206
-46.8827
-46.7445
-46.6028
-44.3037
-44.3215
-44.3233
-44.3086
-44.2772
-44.2298
-44.1674
-44.0908
-44.001
-43.8993
-43.787
-43.6659
-43.5381
-43.4057
-43.2716
-43.1381
-43.0078
-42.8817
-42.7597
-42.6382
-40.7355
-40.7481
-40.7452
-40.7261
-40.6911
-40.6407
-40.5756
-40.4967
-40.405
-40.3015
-40.1878
-40.0655
-39.9369
-39.8045
-39.6717
-39.5414
-39.4177
-39.3024
-39.1968
-39.0966
-37.5385
-37.5466
-37.5395
-37.5169
-37.4787
-37.4256
-37.3583
-37.2774
-37.1837
-37.0785
-36.963
-36.839
-36.7088
-36.5752
-36.442
-36.3131
-36.1943
-36.0883
-35.9994
-35.9223
-34.666
-34.6702
-34.6596
-34.6339
-34.5931
-34.5378
-34.4684
-34.3857
-34.2904
-34.1834
-34.066
-33.9398
-33.8073
-33.6711
-33.536
-33.4061
-33.2899
-33.1908
-33.1192
-33.0671
-32.0788
-32.0796
-32.0659
-32.0375
-31.9945
-31.9373
-31.8662
-31.782
-31.6851
-31.5763
-31.4569
-31.3282
-31.1926
-31.0526
-30.9135
-30.7798
-30.6632
-30.5675
-30.5129
-30.4869
-29.7438
-29.7415
-29.725
-29.6943
-29.6493
-29.5904
-29.5179
-29.4322
-29.3337
-29.2232
-29.1015
-28.97
-28.8304
-28.6852
-28.5396
-28.3984
-28.277
-28.1799
-28.1416
-28.1391
-27.6314
-27.6268
-27.6084
-27.576
-27.5297
-27.4696
-27.396
-27.3092
-27.2095
-27.0974
-26.9736
-26.839
-26.695
-26.5435
-26.3892
-26.2363
-26.1031
-25.9973
-25.9768
-25.9986
-25.7151
-25.7096
-25.6908
-25.6584
-25.6125
-25.5531
-25.4804
-25.3945
-25.2956
-25.1841
-25.0604
-24.925
-24.7788
-24.6232
-24.4611
-24.2956
-24.1437
-24.017
-24.0086
-24.086
-23.9812
-23.9717
-23.9499
-23.9157
-23.869
-23.8097
-23.7378
-23.6533
-23.5564
-23.4473
-23.3259
-23.1927
-23.0477
-22.8918
-22.7253
-22.5505
-22.3744
-22.2091
-22.1493
-22.2956
-128.91
-129.613
-130.25
-130.878
-131.499
-132.097
-132.663
-133.196
-133.693
-134.155
-134.58
-134.968
-135.319
-135.633
-135.909
-136.15
-136.357
-136.533
-136.68
-136.804
-111.577
-112.287
-112.958
-113.607
-114.236
-114.838
-115.406
-115.94
-116.44
-116.905
-117.335
-117.73
-118.088
-118.412
-118.7
-118.953
-119.173
-119.36
-119.515
-119.633
-98.6118
-99.3072
-99.9763
-100.618
-101.232
-101.815
-102.368
-102.889
-103.377
-103.833
-104.256
-104.646
-105.003
-105.326
-105.617
-105.875
-106.1
-106.292
-106.451
-106.573
-88.0694
-88.7309
-89.3708
-89.9834
-90.5668
-91.1212
-91.6466
-92.1426
-92.6086
-93.0442
-93.4492
-93.8235
-94.1669
-94.4795
-94.7614
-95.0126
-95.233
-95.4224
-95.5803
-95.7056
-78.8164
-79.4365
-80.0377
-80.6138
-81.1623
-81.6831
-82.1764
-82.642
-83.0794
-83.4883
-83.8685
-84.22
-84.5429
-84.8371
-85.1027
-85.3397
-85.5482
-85.728
-85.879
-86.0007
-70.7864
-71.3663
-71.9288
-72.4682
-72.9814
-73.468
-73.9282
-74.3618
-74.7687
-75.1485
-75.5015
-75.8275
-76.1267
-76.3991
-76.645
-76.8642
-77.0569
-77.2232
-77.3629
-77.4758
-63.8329
-64.3767
-64.9037
-65.4087
-65.8886
-66.3426
-66.771
-67.1738
-67.5509
-67.9024
-68.2284
-68.529
-68.8044
-69.0547
-69.2801
-69.4807
-69.6565
-69.8078
-69.9343
-70.0361
-57.7708
-58.2832
-58.7788
-59.2528
-59.7022
-60.1264
-60.5255
-60.8998
-61.2494
-61.5744
-61.8752
-62.1519
-62.4049
-62.6342
-62.8401
-63.0228
-63.1822
-63.3186
-63.4319
-63.5223
-52.4517
-52.9371
-53.4055
-53.8521
-54.2743
-54.6716
-55.0443
-55.3927
-55.7172
-56.0182
-56.296
-56.551
-56.7835
-56.9937
-57.1818
-57.348
-57.4923
-57.6149
-57.7159
-57.7953
-47.7591
-48.2216
-48.6666
-49.0894
-49.4875
-49.8608
-50.2096
-50.5347
-50.8366
-51.1158
-51.3729
-51.6083
-51.8225
-52.0155
-52.1877
-52.3392
-52.47
-52.5802
-52.6701
-52.7396
-43.5992
-44.0427
-44.4678
-44.8699
-45.2466
-45.5981
-45.9253
-46.2292
-46.5106
-46.7702
-47.0087
-47.2267
-47.4245
-47.6023
-47.7604
-47.8989
-48.0177
-48.1172
-48.1972
-48.2579
-39.8962
-40.3243
-40.7329
-41.1167
-41.474
-41.8057
-42.1132
-42.3977
-42.6603
-42.9021
-43.1239
-43.3262
-43.5094
-43.6738
-43.8194
-43.9465
-44.0549
-44.1449
-44.2163
-44.2694
-36.5884
-37.0045
-37.3994
-37.7672
-38.1067
-38.4199
-38.7089
-38.9754
-39.2208
-39.4463
-39.6529
-39.8411
-40.0113
-40.1637
-40.2984
-40.4155
-40.5149
-40.5966
-40.6606
-40.707
-33.6253
-34.0327
-34.4165
-34.7695
-35.0922
-35.3879
-35.6595
-35.909
-36.1383
-36.3488
-36.5415
-36.7169
-36.8755
-37.0174
-37.1425
-37.2508
-37.3422
-37.4167
-37.4743
-37.515
-30.9659
-31.3683
-31.7423
-32.0809
-32.3871
-32.6659
-32.9206
-33.1538
-33.3679
-33.5645
-33.7444
-33.9083
-34.0565
-34.189
-34.3056
-34.4063
-34.4908
-34.5591
-34.6111
-34.6469
-28.5737
-28.9784
-29.344
-29.6665
-29.9556
-30.2175
-30.4555
-30.6729
-30.8725
-31.056
-31.2242
-31.3777
-31.5165
-31.6406
-31.7497
-31.8437
-31.9221
-31.985
-32.0321
-32.0635
-26.4054
-26.8272
-27.1889
-27.4939
-27.7649
-28.0095
-28.2308
-28.4329
-28.6189
-28.7904
-28.948
-29.0921
-29.2227
-29.3395
-29.4421
-29.5301
-29.6033
-29.6614
-29.7043
-29.7318
-24.4197
-24.864
-25.2308
-25.5219
-25.7748
-26.0021
-26.2077
-26.3961
-26.5703
-26.7315
-26.8804
-27.017
-27.1412
-27.2524
-27.35
-27.4337
-27.503
-27.5576
-27.5972
-27.6219
-22.668
-23.0813
-23.4408
-23.7299
-23.9677
-24.1752
-24.365
-24.541
-24.7041
-24.8558
-24.9969
-25.1273
-25.2461
-25.3528
-25.4466
-25.5271
-25.5937
-25.646
-25.6838
-25.7069
-21.4233
-21.7085
-21.9518
-22.2385
-22.4617
-22.6336
-22.7948
-22.9501
-23.0942
-23.228
-23.3532
-23.4696
-23.576
-23.6712
-23.7547
-23.8258
-23.8841
-23.9291
-23.9604
-23.9778
-13.8892
-15.2932
-16.8634
-18.5942
-20.5067
-22.6259
-24.9779
-27.5928
-30.5067
-33.7625
-37.412
-41.519
-46.1633
-51.4466
-57.5049
-64.5205
-72.6615
-82.0577
-93.9646
-110.532
-14.2276
-15.6452
-17.224
-18.9656
-20.891
-23.0245
-25.3924
-28.0251
-30.959
-34.2374
-37.9125
-42.0489
-46.727
-52.0495
-58.1533
-65.2213
-73.421
-82.877
-94.8347
-111.432
-14.5699
-16.0008
-17.5883
-19.3411
-21.2797
-23.4279
-25.8121
-28.4631
-31.4175
-34.719
-38.4205
-42.5869
-47.2995
-52.6617
-58.8114
-65.9321
-74.1902
-83.7046
-95.7069
-112.319
-14.9152
-16.3589
-17.9553
-19.7195
-21.6715
-23.8348
-26.2357
-28.9053
-31.8806
-35.2056
-38.9337
-43.1305
-47.878
-53.2805
-59.4763
-66.6494
-74.9656
-84.5396
-96.5913
-113.227
-15.2626
-16.7188
-18.3239
-20.0999
-22.0658
-24.2443
-26.6622
-29.3507
-32.3472
-35.696
-39.4511
-43.6785
-48.4612
-53.904
-60.1461
-67.3717
-75.7461
-85.3812
-97.4873
-114.155
-15.6113
-17.0796
-18.6937
-20.4817
-22.4618
-24.656
-27.091
-29.7987
-32.8167
-36.1896
-39.9718
-44.2303
-49.0483
-54.5317
-60.8204
-68.0987
-76.5316
-86.2281
-98.3905
-115.093
-15.9605
-17.4408
-19.0639
-20.8645
-22.8591
-25.0691
-27.5217
-30.2489
-33.2886
-36.6859
-40.4956
-44.7852
-49.6389
-55.1632
-61.4986
-68.83
-77.3214
-87.0791
-99.2977
-116.036
-16.3098
-17.8016
-19.434
-21.2476
-23.2571
-25.4834
-27.9539
-30.7008
-33.7625
-37.1844
-41.0218
-45.3428
-50.2323
-55.7977
-62.1802
-69.5647
-78.1145
-87.9329
-100.207
-116.983
-16.6589
-18.1619
-19.8037
-21.6307
-23.6556
-25.8985
-28.387
-31.154
-34.2379
-37.6846
-41.5499
-45.9024
-50.8279
-56.4344
-62.864
-70.3017
-78.9098
-88.7885
-101.118
-117.93
-17.0074
-18.5213
-20.1728
-22.0137
-24.0544
-26.3141
-28.821
-31.6081
-34.7144
-38.1859
-42.0792
-46.4633
-51.4248
-57.0725
-63.5491
-71.04
-79.7061
-89.6446
-102.029
-118.878
-17.3554
-18.8799
-20.5414
-22.3967
-24.4534
-26.7302
-29.2556
-32.0631
-35.1917
-38.6881
-42.6092
-47.0249
-52.0223
-57.7111
-64.2346
-71.7784
-80.5022
-90.5
-102.938
-119.824
-17.7034
-19.2382
-20.9098
-22.78
-24.8531
-27.1471
-29.691
-32.5187
-35.6695
-39.1907
-43.1395
-47.5864
-52.6195
-58.3492
-64.9194
-72.5156
-81.2968
-91.3531
-103.844
-120.766
-18.0521
-19.597
-21.279
-23.1643
-25.254
-27.5652
-30.1274
-32.975
-36.1478
-39.6933
-43.6694
-48.1473
-53.2157
-58.9858
-65.6022
-73.2506
-82.0885
-92.2026
-104.745
-121.702
-18.4032
-19.9579
-21.65
-23.5507
-25.6568
-27.9848
-30.5649
-33.432
-36.6261
-40.1954
-44.1982
-48.7065
-53.8097
-59.6196
-66.2817
-73.9817
-82.8757
-93.047
-105.641
-122.631
-18.7591
-20.3234
-22.0255
-23.9411
-26.0629
-28.4069
-31.0041
-33.8897
-37.1043
-40.6965
-44.7253
-49.2632
-54.4003
-60.2495
-66.9565
-74.7073
-83.6568
-93.8846
-106.528
-123.553
-19.1236
-20.6961
-22.4066
-24.3361
-26.4726
-28.8316
-31.4446
-34.3476
-37.5816
-41.1957
-45.2494
-49.8159
-54.9862
-60.8737
-67.6248
-75.4256
-84.4299
-94.7137
-107.408
-124.465
-19.5049
-21.0843
-22.7998
-24.7397
-26.8882
-29.2598
-31.8867
-34.8053
-38.0571
-41.6917
-45.7691
-50.3632
-55.5655
-61.4904
-68.2847
-76.1344
-85.1927
-95.5324
-108.277
-125.368
-19.906
-21.4843
-23.1991
-25.1473
-27.3068
-29.6896
-32.3286
-35.2611
-38.5292
-42.1828
-46.2826
-50.9031
-56.1364
-62.0975
-68.9338
-76.8313
-85.9421
-96.3375
-109.135
-126.263
-20.3612
-21.9186
-23.6151
-25.5652
-27.7315
-30.1212
-32.7689
-35.7128
-38.9954
-42.6666
-46.7876
-51.4332
-56.6963
-62.6925
-69.5695
-77.5132
-86.6747
-97.1249
-109.98
-127.154
-20.8262
-22.3132
-24.0092
-25.979
-28.1545
-30.5487
-33.203
-36.157
-39.4527
-43.1403
-47.2812
-51.9508
-57.2426
-63.2726
-70.1889
-78.1769
-87.386
-97.8862
-110.8
-128.044
-9.02168
-9.94348
-11.2184
-12.7256
-14.409
-16.2819
-18.3706
-20.7006
-23.3008
-26.2061
-29.4588
-33.1107
-37.2264
-41.8889
-47.2128
-53.3595
-60.4865
-68.7477
-79.51
-95.2023
-9.30053
-10.2839
-11.5856
-13.0753
-14.735
-16.5916
-18.6706
-20.9955
-23.5943
-26.5016
-29.7594
-33.4196
-37.5472
-42.2259
-47.5713
-53.7463
-60.9088
-69.209
-80.005
-95.716
-9.37585
-10.4741
-11.8298
-13.3407
-15.0118
-16.876
-18.9601
-21.2893
-23.8929
-26.8066
-30.073
-33.7445
-37.8866
-42.584
-47.9531
-54.158
-61.3574
-69.6969
-80.5198
-96.2286
-9.50675
-10.6481
-12.0318
-13.5661
-15.2579
-17.1391
-19.2368
-21.5773
-24.1916
-27.1164
-30.3951
-34.0809
-38.2403
-42.9586
-48.3534
-54.5899
-61.8276
-70.2104
-81.0704
-96.7925
-9.67711
-10.8351
-12.2372
-13.7896
-15.4988
-17.3964
-19.5089
-21.8635
-24.4916
-27.4305
-30.7243
-34.4271
-38.606
-43.3475
-48.7701
-55.0401
-62.3185
-70.7489
-81.6563
-97.4068
-9.84675
-11.0264
-12.4478
-14.0169
-15.7421
-17.6551
-19.7828
-22.1524
-24.7957
-27.7505
-31.0615
-34.7832
-38.9838
-43.7505
-49.2031
-55.5089
-62.8302
-71.3111
-82.271
-98.0576
-10.0191
-11.2228
-12.6623
-14.2475
-15.9887
-17.9177
-20.0611
-22.4465
-25.1061
-28.0781
-31.4076
-35.1499
-39.3739
-44.1678
-49.6524
-55.9963
-63.3627
-71.8959
-82.9102
-98.7365
-10.207
-11.4308
-12.8852
-14.485
-16.2416
-18.1863
-20.3457
-22.7475
-25.4243
-28.4144
-31.7637
-35.5279
-39.7767
-44.5994
-50.118
-56.502
-63.9154
-72.5024
-83.5727
-99.4412
-10.4137
-11.654
-13.1208
-14.7333
-16.5041
-18.4638
-20.639
-23.0572
-25.7515
-28.7605
-32.1304
-35.9176
-40.1926
-45.0456
-50.5996
-57.0255
-64.4878
-73.1302
-84.2578
-100.171
-10.637
-11.8925
-13.3702
-14.9943
-16.7782
-18.7522
-20.9426
-23.3772
-26.089
-29.1172
-32.5084
-36.3195
-40.6216
-45.5061
-51.0971
-57.5664
-65.0793
-73.7787
-84.965
-100.924
-10.8756
-12.1458
-13.6335
-15.2682
-17.0645
-19.0522
-21.2574
-23.7082
-26.4377
-29.4853
-32.8982
-36.7338
-41.0641
-45.9811
-51.6103
-58.1244
-65.6894
-74.4472
-85.6933
-101.699
-11.1289
-12.4132
-13.9101
-15.555
-17.3631
-19.3641
-21.5839
-24.0506
-26.7978
-29.8652
-33.3001
-37.1608
-41.5199
-46.4705
-52.139
-58.6993
-66.3177
-75.1351
-86.4419
-102.495
-11.3963
-12.6942
-14.1998
-15.8541
-17.6738
-19.6878
-21.9219
-24.4046
-27.1696
-30.2568
-33.7142
-37.6005
-41.9891
-46.9741
-52.6829
-59.2905
-66.9636
-75.8418
-87.21
-103.311
-11.6766
-12.9879
-14.5016
-16.1652
-17.9962
-20.0229
-22.2714
-24.77
-27.5528
-30.66
-34.1402
-38.0526
-42.4714
-47.4915
-53.2416
-59.8976
-67.6265
-76.5665
-87.9969
-104.146
-11.9684
-13.2929
-14.8146
-16.4873
-18.3294
-20.3689
-22.6316
-25.1462
-27.947
-31.0746
-34.5779
-38.5168
-42.9664
-48.0224
-53.8146
-60.52
-68.3059
-77.3088
-88.8022
-105
-12.2705
-13.6081
-15.1376
-16.8195
-18.6728
-20.7251
-23.0021
-25.5328
-28.3518
-31.4999
-35.0267
-38.9927
-43.4735
-48.5661
-54.4013
-61.1569
-69.0008
-78.0679
-89.6253
-105.872
-12.5815
-13.9322
-15.4695
-17.1607
-19.0253
-21.0905
-23.382
-25.929
-28.7664
-31.9354
-35.486
-39.4794
-43.9921
-49.1219
-55.0007
-61.8075
-69.7104
-78.843
-90.466
-106.763
-12.9
-14.2639
-15.8091
-17.5098
-19.3859
-21.4642
-23.7704
-26.334
-29.19
-32.3803
-35.9551
-39.9764
-44.5214
-49.6891
-55.6122
-62.4706
-70.4332
-79.6326
-91.3238
-107.673
-13.2249
-14.602
-16.1554
-17.8657
-19.7537
-21.8453
-24.1665
-26.7469
-29.622
-32.8338
-36.4332
-40.4827
-45.0605
-50.2665
-56.2344
-63.1451
-71.1677
-80.4346
-92.1976
-108.606
-13.5549
-14.9455
-16.5071
-18.2276
-20.1277
-22.233
-24.5694
-27.167
-30.0613
-33.295
-36.9193
-40.9975
-45.6085
-50.8531
-56.8662
-63.8294
-71.9116
-81.2448
-93.0816
-109.563
-8.129
-7.7087
-7.48341
-7.33701
-7.23191
-7.14912
-7.08678
-7.04082
-7.01074
-6.99531
-6.99415
-7.0068
-7.033
-7.07247
-7.12505
-7.19054
-7.26879
-7.35968
-7.46317
-7.57931
-9.41964
-9.06653
-8.8011
-8.62759
-8.50167
-8.40691
-8.33612
-8.28451
-8.25045
-8.2323
-8.22936
-8.24097
-8.26671
-8.30623
-8.35926
-8.42558
-8.50497
-8.59723
-8.70226
-8.8201
-10.7862
-10.4796
-10.2199
-10.0342
-9.89334
-9.78782
-9.70883
-9.65162
-9.61365
-9.59304
-9.58877
-9.59999
-9.62615
-9.66679
-9.72157
-9.7902
-9.8724
-9.96791
-10.0766
-10.1984
-12.3479
-12.0529
-11.7996
-11.6059
-11.453
-11.3362
-11.2474
-11.1825
-11.1386
-11.1136
-11.1062
-11.1154
-11.1405
-11.181
-11.2364
-11.3063
-11.3905
-11.4885
-11.6001
-11.7255
-14.0741
-13.7875
-13.5387
-13.3394
-13.178
-13.0517
-12.9542
-12.8819
-12.8321
-12.8025
-12.7917
-12.7986
-12.8225
-12.8626
-12.9184
-12.9896
-13.0756
-13.176
-13.2907
-13.4197
-15.9744
-15.6975
-15.4533
-15.2505
-15.0831
-14.9492
-14.8443
-14.7656
-14.7102
-14.6763
-14.6624
-14.6672
-14.69
-14.7299
-14.7864
-14.8589
-14.9471
-15.0503
-15.1683
-15.3013
-18.0784
-17.8095
-17.5693
-17.3643
-17.1922
-17.0521
-16.9409
-16.8562
-16.7957
-16.7577
-16.7408
-16.7437
-16.7655
-16.8054
-16.8627
-16.937
-17.0275
-17.1339
-17.2557
-17.3933
-20.4167
-20.1527
-19.915
-19.7081
-19.5321
-19.3866
-19.2696
-19.1794
-19.1142
-19.0724
-19.0525
-19.0536
-19.0746
-19.1147
-19.1732
-19.2494
-19.3428
-19.4528
-19.579
-19.7217
-23.0204
-22.7587
-22.5215
-22.3125
-22.1327
-21.9822
-21.8599
-21.7646
-21.6948
-21.6493
-21.6268
-21.6262
-21.6466
-21.6871
-21.7471
-21.8258
-21.9225
-22.0366
-22.1678
-22.3164
-25.9257
-25.6636
-25.425
-25.2129
-25.0289
-24.8734
-24.7459
-24.6456
-24.5715
-24.5224
-24.4974
-24.4953
-24.5152
-24.5565
-24.6183
-24.6998
-24.8004
-24.9193
-25.0562
-25.2116
-29.1752
-28.91
-28.6678
-28.4514
-28.2623
-28.1013
-27.9683
-27.8629
-27.7842
-27.7316
-27.7039
-27.7004
-27.7201
-27.7623
-27.8262
-27.9111
-28.0161
-28.1404
-28.2838
-28.4469
-32.8206
-32.5493
-32.3011
-32.0784
-31.8828
-31.7153
-31.576
-31.4648
-31.3812
-31.3245
-31.294
-31.2888
-31.3082
-31.3514
-31.4177
-31.5062
-31.616
-31.7463
-31.8969
-32.0685
-36.9261
-36.6454
-36.3881
-36.1565
-35.9522
-35.7764
-35.6293
-35.5111
-35.4214
-35.3599
-35.3258
-35.3184
-35.337
-35.3809
-35.4494
-35.5415
-35.6564
-35.793
-35.9513
-36.132
-41.5742
-41.2797
-41.0093
-40.7653
-40.5493
-40.3623
-40.2051
-40.0778
-39.9802
-39.9121
-39.873
-39.8621
-39.8789
-39.9227
-39.9926
-40.0879
-40.2075
-40.3503
-40.5163
-40.7064
-46.8783
-46.5645
-46.2759
-46.0146
-45.7825
-45.5806
-45.4096
-45.2699
-45.1615
-45.0842
-45.0375
-45.021
-45.0339
-45.0757
-45.1456
-45.2428
-45.3661
-45.5143
-45.6874
-45.8862
-52.9982
-52.6584
-52.3451
-52.0603
-51.8061
-51.5836
-51.3937
-51.2369
-51.1133
-51.0226
-50.9647
-50.939
-50.9448
-50.9817
-51.0488
-51.1454
-51.2703
-51.4221
-51.6002
-51.8057
-60.091
-59.7172
-59.3704
-59.0536
-58.7692
-58.5187
-58.303
-58.1226
-57.9776
-57.8679
-57.7932
-57.7531
-57.747
-57.7742
-57.834
-57.9258
-58.0483
-58.1998
-58.3795
-58.5883
-68.3102
-67.891
-67.4984
-67.1384
-66.8138
-66.5264
-66.2767
-66.065
-65.8913
-65.7554
-65.657
-65.5956
-65.5708
-65.5819
-65.628
-65.7084
-65.8225
-65.9693
-66.1476
-66.3565
-79.0105
-78.525
-78.0711
-77.6574
-77.2848
-76.9537
-76.6635
-76.4142
-76.2054
-76.0368
-75.9083
-75.8194
-75.7698
-75.7586
-75.785
-75.8484
-75.9497
-76.0911
-76.2715
-76.4799
-94.5949
-94.0238
-93.5096
-93.0469
-92.6318
-92.2614
-91.9346
-91.6508
-91.4097
-91.2108
-91.0542
-90.9395
-90.8666
-90.835
-90.8439
-90.8935
-90.9867
-91.1301
-91.3227
-91.5327
-7.70776
-7.84767
-7.99902
-8.16163
-8.33539
-8.52014
-8.71572
-8.92186
-9.13822
-9.36434
-9.59961
-9.84274
-10.091
-10.3408
-10.5904
-10.8339
-11.0466
-11.2038
-11.3313
-11.4483
-8.95054
-9.09265
-9.2464
-9.41152
-9.58785
-9.77518
-9.97323
-10.1817
-10.4001
-10.6278
-10.8639
-11.1071
-11.3548
-11.6038
-11.8502
-12.0895
-12.3121
-12.4943
-12.6102
-12.7341
-10.3333
-10.4801
-10.639
-10.8095
-10.9914
-11.1844
-11.3883
-11.6025
-11.8265
-12.0596
-12.3007
-12.5483
-12.8002
-13.0533
-13.3039
-13.5478
-13.78
-13.9868
-14.1506
-14.319
-11.8644
-12.0158
-12.1795
-12.3552
-12.5426
-12.7414
-12.9511
-13.1712
-13.4011
-13.6399
-13.8865
-14.1392
-14.3959
-14.6539
-14.91
-15.1606
-15.4012
-15.6245
-15.8283
-16.0443
-13.5627
-13.7187
-13.8873
-14.0684
-14.2614
-14.4661
-14.6818
-14.908
-15.1441
-15.389
-15.6415
-15.9001
-16.1627
-16.4269
-16.6901
-16.9492
-17.2006
-17.4401
-17.6727
-17.921
-15.449
-15.6099
-15.7841
-15.971
-16.1703
-16.3814
-16.6039
-16.837
-17.0801
-17.332
-17.5916
-17.8573
-18.1274
-18.3996
-18.6719
-18.9419
-19.2066
-19.4644
-19.7214
-19.9928
-17.5461
-17.7128
-17.8931
-18.0867
-18.2929
-18.5114
-18.7416
-18.9826
-19.2337
-19.4939
-19.7619
-20.0364
-20.3157
-20.598
-20.8814
-21.1642
-21.4445
-21.7218
-22.0017
-22.2939
-19.8804
-20.0535
-20.2409
-20.4419
-20.6562
-20.8831
-21.122
-21.3721
-21.6327
-21.9026
-22.1808
-22.4658
-22.7563
-23.0505
-23.3473
-23.645
-23.9424
-24.2402
-24.5424
-24.8556
-22.4819
-22.6624
-22.8577
-23.0673
-23.2907
-23.5273
-23.7763
-24.037
-24.3086
-24.59
-24.8801
-25.1777
-25.4814
-25.79
-26.1022
-26.4169
-26.7335
-27.0526
-27.3775
-27.7126
-25.3849
-25.5737
-25.7782
-25.9976
-26.2314
-26.4791
-26.7397
-27.0127
-27.2971
-27.5919
-27.896
-28.2084
-28.5278
-28.8531
-29.1832
-29.5174
-29.8552
-30.1971
-30.5457
-30.9045
-28.6288
-28.8272
-29.0419
-29.2725
-29.5182
-29.7785
-30.0526
-30.3397
-30.6389
-30.9492
-31.2698
-31.5994
-31.937
-32.2816
-32.6324
-32.9887
-33.35
-33.7167
-34.0909
-34.4757
-32.2601
-32.4691
-32.6954
-32.9384
-33.1975
-33.4721
-33.7613
-34.0645
-34.3806
-34.7089
-35.0482
-35.3977
-35.7563
-36.1232
-36.4976
-36.8788
-37.2664
-37.6606
-38.0629
-38.4763
-36.3341
-36.5545
-36.7933
-37.05
-37.3239
-37.6142
-37.9204
-38.2416
-38.5768
-38.9253
-39.286
-39.6581
-40.0406
-40.4326
-40.8336
-41.2429
-41.6599
-42.0843
-42.5178
-42.9632
-40.9193
-41.1516
-41.4035
-41.6745
-41.9641
-42.2715
-42.596
-42.9368
-43.293
-43.6638
-44.0483
-44.4454
-44.8544
-45.2746
-45.7052
-46.1456
-46.5951
-47.0531
-47.521
-48.0019
-46.1094
-46.353
-46.6178
-46.9031
-47.2086
-47.5335
-47.8771
-48.2385
-48.6169
-49.0115
-49.4213
-49.8456
-50.2833
-50.7339
-51.1968
-51.6712
-52.1562
-52.651
-53.1565
-53.6759
-52.0372
-52.2905
-52.5665
-52.8649
-53.1851
-53.5266
-53.8886
-54.2704
-54.671
-55.0896
-55.5255
-55.9776
-56.4452
-56.9277
-57.4244
-57.9347
-58.4575
-58.9914
-59.5368
-60.0967
-58.8248
-59.0841
-59.3676
-59.6752
-60.0068
-60.3618
-60.7396
-61.1393
-61.5601
-62.0011
-62.4614
-62.9402
-63.4368
-63.9503
-64.4804
-65.0262
-65.5867
-66.1603
-66.7463
-67.3474
-66.5926
-66.8507
-67.1337
-67.4434
-67.7799
-68.1428
-68.531
-68.9437
-69.3797
-69.8383
-70.3186
-70.8197
-71.3409
-71.8815
-72.4406
-73.0176
-73.6123
-74.2243
-74.8526
-75.4962
-76.7005
-76.9417
-77.2118
-77.5139
-77.8471
-78.2099
-78.6009
-79.0188
-79.4625
-79.9308
-80.4231
-80.9387
-81.4768
-82.0369
-82.6177
-83.2191
-83.8437
-84.4961
-85.1754
-85.8638
-91.7039
-91.9094
-92.1593
-92.4486
-92.7732
-93.1302
-93.5174
-93.9334
-94.377
-94.8471
-95.3433
-95.865
-96.4121
-96.9842
-97.5807
-98.2024
-98.8554
-99.5518
-100.291
-101.021
-101.646
-86.5356
-76.1505
-67.9624
-60.6698
-54.2079
-48.4948
-43.4203
-38.9011
-34.8716
-31.2746
-28.0597
-25.1821
-22.6021
-20.2852
-18.1996
-16.3119
-14.5953
-13.0736
-11.776
-102.293
-87.2067
-76.8083
-68.5845
-61.2505
-54.7473
-48.9954
-43.8853
-39.3342
-35.2762
-31.6541
-28.4169
-25.5196
-22.9224
-20.5903
-18.4915
-16.5959
-14.8852
-13.3825
-12.0709
-102.979
-87.8919
-77.4755
-69.2168
-61.8411
-55.2963
-49.5053
-44.3596
-39.7767
-35.6906
-32.0439
-28.7851
-25.869
-23.2554
-20.909
-18.7984
-16.8944
-15.1777
-13.6595
-12.3132
-103.696
-88.5978
-78.1561
-69.8603
-62.4424
-55.8553
-50.0247
-44.8433
-40.2286
-36.1147
-32.4436
-29.1636
-26.229
-23.5993
-21.239
-19.1166
-17.2031
-15.4779
-13.9465
-12.5819
-104.44
-89.3236
-78.8512
-70.5158
-63.0543
-56.4241
-50.5536
-45.3362
-40.6898
-36.5481
-32.8529
-29.552
-26.5992
-23.9537
-21.5795
-19.4449
-17.5209
-15.7855
-14.241
-12.862
-105.206
-90.068
-79.5611
-71.1833
-63.6766
-57.0026
-51.0915
-45.8379
-41.1597
-36.9904
-33.2712
-29.9495
-26.9786
-24.3173
-21.9294
-19.7828
-17.8482
-16.1036
-14.5483
-13.1571
-105.991
-90.8292
-80.2848
-71.8623
-64.3091
-57.5901
-51.6381
-46.3479
-41.6378
-37.4408
-33.6976
-30.3552
-27.3663
-24.6893
-22.2876
-20.1288
-18.1837
-16.4298
-14.8639
-13.4611
-106.793
-91.6056
-81.0214
-72.5522
-64.9509
-58.1862
-52.1925
-46.8655
-42.1233
-37.8985
-34.1313
-30.7682
-27.7613
-25.0686
-22.6531
-20.4821
-18.5264
-16.7633
-15.1868
-13.7724
-107.611
-92.3958
-81.7696
-73.2519
-65.6012
-58.7899
-52.754
-47.3899
-42.6153
-38.3627
-34.5715
-31.1876
-28.1627
-25.4541
-23.0247
-20.8413
-18.8748
-17.1021
-15.5148
-14.0888
-108.443
-93.1982
-82.5283
-73.9605
-66.2592
-59.4003
-53.3217
-47.9202
-43.1131
-38.8325
-35.0172
-31.6124
-28.5693
-25.8449
-23.4013
-21.2054
-19.2278
-17.4451
-15.8468
-14.409
-109.288
-94.0116
-83.2961
-74.6767
-66.9236
-60.0165
-53.8947
-48.4554
-43.6157
-39.307
-35.4675
-32.0417
-28.9803
-26.2398
-23.782
-21.5733
-19.5843
-17.7913
-16.1816
-14.732
-110.145
-94.8347
-84.0719
-75.3993
-67.5935
-60.6374
-54.472
-48.9946
-44.1221
-39.7852
-35.9214
-32.4745
-29.3947
-26.638
-24.1657
-21.944
-19.9434
-18.1396
-16.5183
-15.0569
-111.011
-95.6662
-84.8542
-76.1272
-68.2676
-61.2619
-55.0525
-49.5368
-44.6314
-40.2661
-36.3779
-32.91
-29.8117
-27.0386
-24.5516
-22.3167
-20.3042
-18.4894
-16.8562
-15.3831
-111.887
-96.5044
-85.6416
-76.859
-68.9448
-61.8888
-55.6351
-50.081
-45.1425
-40.749
-36.8364
-33.3472
-30.2303
-27.4407
-24.939
-22.6908
-20.6661
-18.84
-17.1948
-15.7101
-112.771
-97.3475
-86.4325
-77.5934
-69.6237
-62.5171
-56.2188
-50.6262
-45.6547
-41.2328
-37.2957
-33.7853
-30.6498
-27.8437
-25.3271
-23.0654
-21.0284
-19.1908
-17.5334
-16.0373
-113.661
-98.1944
-87.2255
-78.329
-70.3032
-63.1454
-56.8023
-51.1711
-46.1667
-41.7165
-37.7552
-34.2236
-31.0695
-28.2468
-25.7153
-23.4401
-21.3907
-19.5414
-17.8717
-16.3645
-114.56
-99.0452
-88.0192
-79.0638
-70.9812
-63.772
-57.3841
-51.7146
-46.6774
-42.1992
-38.2137
-34.6611
-31.4885
-28.6493
-26.103
-23.8142
-21.7524
-19.8913
-18.2093
-16.6915
-115.475
-99.9015
-88.8122
-79.7956
-71.6558
-64.3953
-57.9628
-52.2552
-47.1856
-42.6797
-38.6703
-35.0969
-31.906
-29.0505
-26.4894
-24.1871
-22.113
-20.2402
-18.546
-17.0179
-116.402
-100.761
-89.6025
-80.5232
-72.3264
-65.015
-58.5383
-52.793
-47.6912
-43.1579
-39.1248
-35.5308
-32.3216
-29.4499
-26.8741
-24.5585
-22.4722
-20.5876
-18.8815
-17.3439
-117.308
-101.612
-90.3883
-81.2471
-72.994
-65.6323
-59.1117
-53.3287
-48.195
-43.6342
-39.5776
-35.9629
-32.7356
-29.8477
-27.2573
-24.9284
-22.8298
-20.9336
-19.2157
-17.6691
-13.6509
-8.95308
-6.1092
-4.11011
-2.77938
-1.85836
-1.21992
-0.779963
-0.480125
-0.280283
-0.151301
-0.0719754
-0.0267649
-0.00432522
0.00357101
0.0028454
-0.00227439
-0.00880784
-0.0146967
-0.0185979
-0.0197243
-0.017787
-0.012887
-0.00560179
0.00313115
0.0116353
0.0178914
0.0188879
0.0123038
-0.00488971
-0.0326653
-0.0725244
-0.120101
-0.174601
-0.225693
-0.262452
-0.277546
-0.23068
-0.185302
-0.0218728
-13.9773
-9.19945
-6.30369
-4.26318
-2.89734
-1.95167
-1.29406
-0.839508
-0.528434
-0.319828
-0.183917
-0.0990344
-0.0493082
-0.0231601
-0.0121946
-0.0103683
-0.0133628
-0.0181285
-0.0225529
-0.0252499
-0.0253969
-0.0226755
-0.0171623
-0.00941253
-0.000343884
0.00839338
0.0148139
0.0159725
0.00961489
-0.00717291
-0.0343305
-0.0732111
-0.119571
-0.172351
-0.221807
-0.256599
-0.270931
-0.223919
-0.180076
-0.0200878
-14.3033
-9.45025
-6.50317
-4.42095