/*--------------------------------*- C++ -*----------------------------------*\
| =========                 |                                                 |
| \\      /  F ield         | OpenFOAM: The Open Source CFD Toolbox           |
|  \\    /   O peration     | Version:  v1912                                 |
|   \\  /    A nd           | Website:  www.openfoam.com                      |
|    \\/     M anipulation  |                                                 |
\*---------------------------------------------------------------------------*/
FoamFile
{
    version     2.0;
    format      ascii;
    class       volScalarField;
    location    "1.5";
    object      p;
}
// * * * * * * * * * * * * * * * * * * * * * * * * * * * * * * * * * * * * * //

dimensions      [0 2 -2 0 0 0 0];


internalField   nonuniform List<scalar> 
9600
(
-24.6359
-19.1976
-15.9369
-13.2995
-11.0708
-9.23492
-7.72341
-6.47532
-5.44409
-4.59148
-3.88563
-3.30024
-2.8137
-2.40828
-2.06949
-1.78554
-1.5468
-1.34502
-1.17338
-1.03063
-24.6723
-19.2421
-15.9821
-13.3418
-11.1106
-9.27183
-7.75786
-6.50781
-5.47503
-4.6212
-3.91438
-3.32817
-2.84089
-2.43475
-2.09523
-1.81051
-1.57097
-1.36828
-1.19555
-1.05242
-24.7174
-19.2897
-16.03
-13.3862
-11.1525
-9.31098
-7.79455
-6.54254
-5.50825
-4.65324
-3.94548
-3.35849
-2.87051
-2.46368
-2.12345
-1.83799
-1.59766
-1.39404
-1.22025
-1.07673
-24.7693
-19.3413
-16.0805
-13.433
-11.1965
-9.35214
-7.83325
-6.57931
-5.54353
-4.6874
-3.97876
-3.39105
-2.90241
-2.49495
-2.15405
-1.86787
-1.62676
-1.42225
-1.2474
-1.10351
-24.8262
-19.3966
-16.1337
-13.4823
-11.2427
-9.3953
-7.87391
-6.61804
-5.58081
-4.72359
-4.01412
-3.42574
-2.93651
-2.52846
-2.18694
-1.90009
-1.65823
-1.45283
-1.27695
-1.1327
-24.8871
-19.4553
-16.1895
-13.5339
-11.2908
-9.44031
-7.91638
-6.65857
-5.61991
-4.76166
-4.05142
-3.46243
-2.97267
-2.56409
-2.222
-1.93452
-1.69195
-1.48569
-1.30881
-1.16423
-24.9514
-19.5169
-16.2476
-13.5876
-11.3408
-9.48699
-7.96046
-6.70072
-5.66066
-4.80142
-4.09048
-3.50095
-3.01072
-2.60168
-2.25908
-1.97103
-1.72781
-1.52073
-1.34288
-1.19802
-25.0186
-19.5811
-16.3078
-13.6431
-11.3923
-9.53513
-8.00595
-6.74426
-5.70284
-4.84266
-4.13108
-3.54108
-3.05046
-2.64103
-2.29801
-2.00945
-1.76564
-1.5578
-1.37902
-1.23395
-25.0883
-19.6474
-16.3699
-13.7001
-11.4451
-9.58446
-8.05258
-6.78896
-5.74621
-4.88514
-4.17298
-3.58258
-3.09164
-2.68191
-2.33854
-2.04956
-1.80523
-1.5967
-1.41706
-1.27185
-25.1602
-19.7156
-16.4334
-13.7584
-11.499
-9.6347
-8.10009
-6.83453
-5.79048
-4.92858
-4.2159
-3.62517
-3.134
-2.72405
-2.38041
-2.0911
-1.84633
-1.63719
-1.45676
-1.3115
-25.234
-19.7853
-16.498
-13.8176
-11.5536
-9.68557
-8.14817
-6.88067
-5.83535
-4.97266
-4.25952
-3.66854
-3.1772
-2.7671
-2.42329
-2.13374
-1.88863
-1.67896
-1.49783
-1.35262
-25.3095
-19.8563
-16.5636
-13.8774
-11.6086
-9.73672
-8.19651
-6.92708
-5.8805
-5.01706
-4.30351
-3.71232
-3.22088
-2.81071
-2.46681
-2.1771
-1.93175
-1.72165
-1.5399
-1.39485
-25.3865
-19.9282
-16.6297
-13.9375
-11.6637
-9.78785
-8.24478
-6.9734
-5.9256
-5.06143
-4.3475
-3.75613
-3.26464
-2.85446
-2.51052
-2.22073
-1.97522
-1.76479
-1.5825
-1.43773
-25.4651
-20.0009
-16.696
-13.9974
-11.7184
-9.83859
-8.29264
-7.01932
-5.97029
-5.10542
-4.39112
-3.7996
-3.30806
-2.89788
-2.55394
-2.26412
-2.01852
-1.80783
-1.62507
-1.4807
-25.5451
-20.0738
-16.7622
-14.057
-11.7726
-9.88863
-8.33976
-7.06451
-6.01426
-5.14869
-4.43401
-3.84232
-3.35072
-2.94052
-2.59655
-2.30669
-2.061
-1.85007
-1.66685
-1.52296
-25.6264
-20.1466
-16.8279
-14.1158
-11.8258
-9.93764
-8.38585
-7.10866
-6.05722
-5.19094
-4.47587
-3.88397
-3.39224
-2.98193
-2.63786
-2.34786
-2.10201
-1.89079
-1.70699
-1.56332
-25.7104
-20.2193
-16.8926
-14.1733
-11.8776
-9.98521
-8.43052
-7.15147
-6.09887
-5.2319
-4.51642
-3.92425
-3.43229
-3.02177
-2.67743
-2.38715
-2.14102
-1.92939
-1.74465
-1.60062
-25.8013
-20.2929
-16.9558
-14.2288
-11.9273
-10.0308
-8.47334
-7.19257
-6.13892
-5.27133
-4.55545
-3.96294
-3.47065
-3.05969
-2.71484
-2.42397
-2.17724
-1.96475
-1.77826
-1.63401
-25.9013
-20.367
-17.0164
-14.2814
-11.9743
-10.074
-8.51413
-7.23183
-6.17729
-5.30917
-4.59293
-4.00008
-3.50733
-3.09572
-2.74997
-2.45787
-2.20938
-1.99417
-1.80421
-1.66052
-25.9903
-20.4357
-17.0731
-14.3313
-12.0195
-10.1158
-8.55359
-7.26985
-6.21449
-5.3459
-4.62934
-4.03618
-3.543
-3.13075
-2.78403
-2.49037
-2.23908
-2.0198
-1.82654
-1.67842
-26.2093
-26.2562
-26.2881
-26.317
-26.3418
-26.3602
-26.3712
-26.375
-26.3719
-26.3621
-26.3458
-26.3236
-26.2957
-26.2629
-26.2257
-26.1849
-26.1418
-26.098
-26.0566
-26.0211
-20.5904
-20.648
-20.6944
-20.7334
-20.7651
-20.7892
-20.8054
-20.8142
-20.8158
-20.8108
-20.7993
-20.7818
-20.7588
-20.7308
-20.6983
-20.662
-20.6226
-20.5807
-20.537
-20.4897
-17.1466
-17.2092
-17.262
-17.3057
-17.3414
-17.3693
-17.3896
-17.4026
-17.4087
-17.4082
-17.4015
-17.3889
-17.3709
-17.3478
-17.3202
-17.2885
-17.2531
-17.2141
-17.1718
-17.1253
-14.3495
-14.4115
-14.4654
-14.5103
-14.5472
-14.5768
-14.5991
-14.6145
-14.6232
-14.6257
-14.6222
-14.613
-14.5987
-14.5794
-14.5557
-14.5278
-14.4961
-14.4607
-14.4218
-14.3792
-12.0083
-12.0686
-12.1216
-12.1661
-12.2027
-12.2322
-12.2549
-12.271
-12.2807
-12.2845
-12.2826
-12.2753
-12.263
-12.2461
-12.2249
-12.1996
-12.1707
-12.1382
-12.1023
-12.0632
-10.105
-10.1602
-10.2104
-10.2528
-10.2877
-10.3156
-10.337
-10.3522
-10.3614
-10.3649
-10.3631
-10.3562
-10.3446
-10.3285
-10.3085
-10.2846
-10.2573
-10.2267
-10.1929
-10.1564
-8.56365
-8.61524
-8.65902
-8.69794
-8.73028
-8.75587
-8.77509
-8.78834
-8.79593
-8.79815
-8.7953
-8.78768
-8.77561
-8.75941
-8.73941
-8.71592
-8.6892
-8.65953
-8.62702
-8.59202
-7.3115
-7.35882
-7.40008
-7.43391
-7.46222
-7.48497
-7.50162
-7.51243
-7.5178
-7.51806
-7.51351
-7.50444
-7.49118
-7.47405
-7.45338
-7.42948
-7.40265
-7.37315
-7.34113
-7.30697
-6.29472
-6.33766
-6.37472
-6.40557
-6.43007
-6.44887
-6.46261
-6.47079
-6.47365
-6.4716
-6.46496
-6.45404
-6.43916
-6.42065
-6.39883
-6.37404
-6.34659
-6.31676
-6.28474
-6.25088
-5.46738
-5.50616
-5.53919
-5.56635
-5.58769
-5.60317
-5.6134
-5.61885
-5.61917
-5.61471
-5.60585
-5.59291
-5.57621
-5.55609
-5.53288
-5.50694
-5.47859
-5.44814
-5.41579
-5.38192
-4.79156
-4.82646
-4.85578
-4.8794
-4.89743
-4.91004
-4.91707
-4.91974
-4.91761
-4.91081
-4.89975
-4.88479
-4.86625
-4.84446
-4.81979
-4.79259
-4.76322
-4.73201
-4.69921
-4.66516
-4.23665
-4.268
-4.29391
-4.3143
-4.32928
-4.33907
-4.34394
-4.34347
-4.33897
-4.33
-4.31689
-4.30002
-4.27972
-4.25633
-4.23022
-4.20177
-4.17136
-4.13937
-4.10607
-4.07183
-3.77813
-3.80626
-3.82909
-3.84657
-3.85881
-3.86601
-3.86836
-3.8659
-3.8591
-3.84813
-3.83318
-3.81457
-3.79266
-3.76779
-3.74035
-3.71072
-3.67932
-3.64658
-3.61281
-3.57842
-3.39644
-3.42171
-3.4418
-3.45669
-3.46651
-3.47144
-3.47167
-3.4674
-3.45857
-3.44582
-3.42924
-3.4091
-3.38577
-3.35958
-3.33092
-3.30022
-3.26791
-3.23448
-3.20029
-3.16587
-3.07613
-3.09885
-3.11653
-3.12915
-3.13686
-3.13982
-3.13822
-3.13221
-3.12184
-3.10757
-3.08957
-3.06812
-3.04356
-3.01622
-2.98649
-2.95483
-2.92169
-2.88763
-2.85307
-2.81875
-2.80498
-2.82547
-2.84102
-2.85166
-2.85752
-2.8588
-2.85565
-2.8482
-2.83652
-2.82093
-2.80173
-2.77917
-2.75355
-2.72521
-2.69455
-2.66201
-2.62809
-2.59342
-2.55848
-2.52445
-2.57342
-2.59194
-2.60563
-2.61454
-2.61881
-2.61863
-2.61416
-2.60551
-2.59268
-2.57599
-2.55577
-2.53225
-2.50572
-2.4765
-2.44497
-2.41159
-2.37686
-2.34151
-2.30594
-2.27229
-2.37379
-2.39069
-2.40287
-2.41038
-2.41338
-2.41208
-2.40658
-2.39692
-2.38309
-2.36561
-2.34463
-2.32038
-2.29312
-2.26319
-2.23093
-2.19679
-2.16128
-2.1252
-2.08872
-2.05507
-2.1999
-2.2156
-2.22668
-2.23321
-2.23538
-2.23351
-2.22769
-2.21772
-2.20313
-2.18519
-2.16394
-2.13945
-2.112
-2.08188
-2.04945
-2.01512
-1.97938
-1.94311
-1.90616
-1.87324
-2.04775
-2.06153
-2.07084
-2.07573
-2.0764
-2.07327
-2.06703
-2.05828
-2.04222
-2.02308
-2.00127
-1.97648
-1.94884
-1.91863
-1.88613
-1.85172
-1.81588
-1.77937
-1.7419
-1.71392
-23.1977
-23.3923
-23.5743
-23.7626
-23.9543
-24.1443
-24.3302
-24.5112
-24.6865
-24.8553
-25.0171
-25.1712
-25.3172
-25.4551
-25.5845
-25.7057
-25.8187
-25.9243
-26.0238
-26.1192
-17.612
-17.8145
-18.0106
-18.2045
-18.3963
-18.5844
-18.7675
-18.9451
-19.1168
-19.2822
-19.4406
-19.5918
-19.7353
-19.871
-19.9987
-20.1185
-20.2304
-20.3341
-20.4297
-20.5159
-14.2595
-14.4578
-14.6517
-14.8409
-15.0262
-15.2075
-15.384
-15.5553
-15.721
-15.8805
-16.0336
-16.1796
-16.3184
-16.4495
-16.5728
-16.6884
-16.7969
-16.8974
-16.9894
-17.0727
-11.5886
-11.7769
-11.9621
-12.143
-12.3201
-12.4932
-12.6618
-12.8256
-12.984
-13.1367
-13.2834
-13.4237
-13.5573
-13.6841
-13.8037
-13.9159
-14.0196
-14.1153
-14.2028
-14.2815
-9.39529
-9.57275
-9.74809
-9.91982
-10.0878
-10.252
-10.4118
-10.567
-10.717
-10.8617
-11.0005
-11.1332
-11.2595
-11.3791
-11.4918
-11.5972
-11.6949
-11.7852
-11.8677
-11.9422
-7.63932
-7.8069
-7.97273
-8.1354
-8.29453
-8.44988
-8.60108
-8.74774
-8.88951
-9.02602
-9.15696
-9.28203
-9.40095
-9.51347
-9.61933
-9.71836
-9.8104
-9.89537
-9.97306
-10.0434
-6.23928
-6.39805
-6.55516
-6.70937
-6.86019
-7.00732
-7.1504
-7.28907
-7.42297
-7.55176
-7.67515
-7.79287
-7.90465
-8.01027
-8.10954
-8.20227
-8.28834
-8.36763
-8.44
-8.50556
-5.12156
-5.27251
-5.4218
-5.56833
-5.71158
-5.85119
-5.98683
-6.11811
-6.24471
-6.36631
-6.48263
-6.59341
-6.69843
-6.79747
-6.89036
-6.97694
-7.0571
-7.13074
-7.19774
-7.25822
-4.22902
-4.37302
-4.51533
-4.65496
-4.79136
-4.92416
-5.053
-5.17753
-5.29743
-5.4124
-5.52217
-5.62652
-5.72523
-5.81811
-5.90501
-5.9858
-6.06035
-6.12861
-6.19047
-6.24604
-3.51576
-3.65353
-3.78958
-3.92299
-4.05319
-4.17979
-4.30244
-4.4208
-4.53455
-4.64343
-4.74719
-4.84561
-4.93849
-5.02568
-5.10703
-5.18243
-5.25177
-5.315
-5.37204
-5.423
-2.94458
-3.07668
-3.20709
-3.33486
-3.45942
-3.58036
-3.69734
-3.81003
-3.91815
-4.02143
-4.11965
-4.21262
-4.30015
-4.38211
-4.45835
-4.52879
-4.59333
-4.65192
-4.70451
-4.7512
-2.4856
-2.6125
-2.73779
-2.86044
-2.97981
-3.09555
-3.20731
-3.31479
-3.4177
-3.51583
-3.60896
-3.69692
-3.77954
-3.8567
-3.92827
-3.99417
-4.05431
-4.10867
-4.15719
-4.19997
-2.1149
-2.23703
-2.3577
-2.47566
-2.59027
-2.7012
-2.80813
-2.91077
-3.00888
-3.10226
-3.1907
-3.27406
-3.35219
-3.42496
-3.49227
-3.55403
-3.61018
-3.66069
-3.70552
-3.74477
-1.81347
-1.93124
-2.04779
-2.16146
-2.27167
-2.37814
-2.48059
-2.57875
-2.67241
-2.76139
-2.84553
-2.92468
-2.99869
-3.06746
-3.13088
-3.1889
-3.24143
-3.28847
-3.32999
-3.36606
-1.56626
-1.68016
-1.79312
-1.90287
-2.00899
-2.11132
-2.20958
-2.30357
-2.39311
-2.47805
-2.55822
-2.63349
-2.70374
-2.76886
-2.82877
-2.88339
-2.93267
-2.9766
-3.01515
-3.04839
-1.36143
-1.47231
-1.58228
-1.68842
-1.79071
-1.88914
-1.98348
-2.07356
-2.15926
-2.24043
-2.31694
-2.38865
-2.45545
-2.51724
-2.57394
-2.62549
-2.67184
-2.71297
-2.74887
-2.77959
-1.18887
-1.29838
-1.40622
-1.50894
-1.60757
-1.70232
-1.79295
-1.87938
-1.96149
-2.03917
-2.11229
-2.18073
-2.24437
-2.30313
-2.35693
-2.40571
-2.44943
-2.48806
-2.5216
-2.5501
-1.03756
-1.14778
-1.25491
-1.35465
-1.44993
-1.54133
-1.62862
-1.71176
-1.7907
-1.86531
-1.93546
-2.00105
-2.06197
-2.11813
-2.16946
-2.21589
-2.25739
-2.29394
-2.32552
-2.35217
-0.899605
-1.01236
-1.12049
-1.2182
-1.31077
-1.39931
-1.48375
-1.56412
-1.64037
-1.71239
-1.78005
-1.84326
-1.9019
-1.9559
-2.00519
-2.04971
-2.08942
-2.1243
-2.15434
-2.17956
-0.805154
-0.923051
-1.02856
-1.12259
-1.21128
-1.29572
-1.3761
-1.45249
-1.52484
-1.59304
-1.65698
-1.71657
-1.77172
-1.82237
-1.86845
-1.90994
-1.94679
-1.979
-2.00656
-2.0295
1.05693
1.01084
0.947748
0.866261
0.760427
0.622655
0.443761
0.212301
-0.085932
-0.468425
-0.956632
-1.57693
-2.36187
-3.35184
-4.5982
-6.16989
-8.14804
-10.5821
-13.693
-19.0699
0.983199
0.934271
0.869377
0.785925
0.678041
0.53828
0.357489
0.124212
-0.175798
-0.560108
-1.05032
-1.673
-2.46098
-3.45494
-4.70659
-6.2852
-8.27205
-10.7159
-13.8346
-19.2116
0.905872
0.853924
0.787098
0.701529
0.591415
0.449465
0.266552
0.0312075
-0.27085
-0.657272
-1.14979
-1.77519
-2.56654
-3.56485
-4.82212
-6.40787
-8.40341
-10.8569
-13.9826
-19.3566
0.825205
0.770065
0.701194
0.61337
0.500863
0.356544
0.171312
-0.066315
-0.370656
-0.75944
-1.25453
-1.88291
-2.67791
-3.68082
-4.94395
-6.53701
-8.54132
-11.0047
-14.1394
-19.5157
0.74141
0.682924
0.6119
0.521682
0.406624
0.259764
0.0720254
-0.16809
-0.474937
-0.86632
-1.36424
-1.99586
-2.79477
-3.80256
-5.07183
-6.67252
-8.68594
-11.1597
-14.3048
-19.6871
0.654694
0.592721
0.519439
0.42669
0.308924
0.159352
-0.0310796
-0.273887
-0.583459
-0.977677
-1.47867
-2.1138
-2.91689
-3.92985
-5.20558
-6.81426
-8.83722
-11.3218
-14.478
-19.8676
0.565257
0.499677
0.42404
0.328627
0.208002
0.0555554
-0.13775
-0.383447
-0.695962
-1.09325
-1.59756
-2.23645
-3.04401
-4.06241
-5.3449
-6.9619
-8.99476
-11.4905
-14.6579
-20.0559
0.473285
0.404003
0.32593
0.227729
0.104104
-0.0513701
-0.247717
-0.496492
-0.812156
-1.21273
-1.72061
-2.36352
-3.1758
-4.19994
-5.48948
-7.11509
-9.15815
-11.6653
-14.8443
-20.2512
0.378948
0.305898
0.225321
0.124222
-0.00252817
-0.161167
-0.360707
-0.61273
-0.931733
-1.33581
-1.84748
-2.49465
-3.31192
-4.34206
-5.63892
-7.27344
-9.32699
-11.8458
-15.0367
-20.4529
0.282391
0.205544
0.122422
0.0183328
-0.111649
-0.273569
-0.476436
-0.731861
-1.05438
-1.46215
-1.97782
-2.62949
-3.45199
-4.48838
-5.79284
-7.43653
-9.50085
-12.0316
-15.2345
-20.6603
0.183741
0.103118
0.0174396
-0.0897063
-0.223002
-0.388295
-0.594601
-0.853559
-1.17974
-1.59139
-2.11127
-2.76765
-3.5956
-4.6385
-5.95081
-7.60392
-9.67924
-12.2221
-15.4372
-20.8726
0.0831117
-0.00120637
-0.0894079
-0.199643
-0.336302
-0.505034
-0.714865
-0.977469
-1.30746
-1.72314
-2.2474
-2.9087
-3.74234
-4.79198
-6.11236
-7.77512
-9.86166
-12.4168
-15.6442
-21.0893
-0.0193799
-0.107228
-0.197868
-0.311185
-0.451224
-0.623431
-0.836849
-1.10319
-1.43711
-1.85698
-2.3858
-3.05221
-3.89175
-4.94834
-6.27701
-7.94964
-10.0476
-12.6152
-15.8549
-21.3098
-0.123579
-0.214686
-0.307616
-0.423966
-0.567368
-0.743062
-0.960117
-1.23028
-1.56824
-1.99245
-2.526
-3.19771
-4.04334
-5.10708
-6.44427
-8.12697
-10.2366
-12.8167
-16.069
-21.5336
-0.229225
-0.323185
-0.4182
-0.5375
-0.684232
-0.863422
-1.08416
-1.35824
-1.70036
-2.12904
-2.6675
-3.34469
-4.19661
-5.26771
-6.61359
-8.30655
-10.4279
-13.0209
-16.2857
-21.7602
-0.335849
-0.432084
-0.528948
-0.651128
-0.80118
-0.983903
-1.20841
-1.48651
-1.83293
-2.26626
-2.80979
-3.49265
-4.35103
-5.42967
-6.78444
-8.48783
-10.6212
-13.2272
-16.5049
-21.9893
-0.442573
-0.54032
-0.638858
-0.763959
-0.917425
-1.1038
-1.33223
-1.61451
-1.96542
-2.40356
-2.95235
-3.64105
-4.50608
-5.59242
-6.95622
-8.67018
-10.8157
-13.4349
-16.7261
-22.221
-0.547609
-0.646085
-0.74648
-0.874893
-1.0321
-1.22241
-1.45501
-1.74172
-2.09732
-2.54047
-3.09469
-3.78941
-4.66124
-5.75542
-7.12837
-8.85299
-11.0107
-13.6434
-16.9489
-22.456
-0.647316
-0.746099
-0.849745
-0.982655
-1.14431
-1.33906
-1.57621
-1.86764
-2.22817
-2.67652
-3.23633
-3.9372
-4.81593
-5.91802
-7.30014
-9.03545
-11.2054
-13.8517
-17.1729
-22.6963
-0.736481
-0.836046
-0.94801
-1.08756
-1.25422
-1.45376
-1.69581
-1.99221
-2.35783
-2.81153
-3.37707
-4.08418
-4.96989
-6.0799
-7.47114
-9.217
-11.3989
-14.0581
-17.3954
-22.9443
1.55164
1.54547
1.50873
1.44507
1.35052
1.21789
1.03809
0.800183
0.491075
0.095
-0.407095
-1.03847
-1.82791
-2.81117
-4.03242
-5.55772
-7.46273
-9.784
-12.7692
-18.0433
1.55474
1.54355
1.50477
1.44319
1.35192
1.2228
1.04678
0.812951
0.508146
0.116529
-0.381038
-1.00788
-1.79256
-2.77104
-3.98979
-5.51132
-7.41334
-9.73484
-12.7156
-17.9773
1.56998
1.55199
1.51042
1.44824
1.35743
1.22955
1.05547
0.824179
0.522374
0.134097
-0.359904
-0.982868
-1.76374
-2.7392
-3.95467
-5.47323
-7.37277
-9.69429
-12.6699
-17.9147
1.58262
1.56145
1.51794
1.45472
1.36367
1.23625
1.06326
0.83361
0.533925
0.148153
-0.34291
-0.962789
-1.74112
-2.71361
-3.92627
-5.44268
-7.34052
-9.66226
-12.6367
-17.8738
1.59306
1.5698
1.52447
1.4601
1.36858
1.24127
1.06893
0.840408
0.542278
0.158511
-0.330183
-0.948062
-1.72394
-2.694
-3.90466
-5.41972
-7.31679
-9.63963
-12.6158
-17.8514
1.60049
1.57501
1.528
1.4626
1.37058
1.24325
1.07133
0.843652
0.546772
0.164712
-0.32255
-0.938502
-1.71239
-2.6807
-3.89009
-5.40459
-7.30184
-9.62667
-12.6059
-17.8429
1.60472
1.5758
1.52719
1.46096
1.36848
1.24108
1.06951
0.842574
0.546803
0.165753
-0.320043
-0.934416
-1.70685
-2.674
-3.88276
-5.39741
-7.29574
-9.62337
-12.6065
-17.8465
1.59803
1.56976
1.52085
1.45412
1.36133
1.23391
1.06286
0.836454
0.54145
0.161507
-0.323047
-0.936226
-1.70765
-2.67413
-3.88282
-5.39828
-7.29849
-9.62973
-12.6176
-17.862
1.58692
1.55914
1.50954
1.44203
1.34892
1.22152
1.05056
0.824754
0.530552
0.151563
-0.332007
-0.944295
-1.71506
-2.6813
-3.89044
-5.40733
-7.31016
-9.64578
-12.6392
-17.8888
1.57137
1.54313
1.49273
1.42447
1.33093
1.20344
1.03265
0.807307
0.513758
0.135533
-0.347265
-0.958906
-1.72931
-2.69571
-3.90577
-5.42467
-7.33081
-9.67151
-12.6712
-17.9267
1.55039
1.52142
1.47024
1.40124
1.3072
1.17951
1.00881
0.783799
0.490759
0.113142
-0.369065
-0.980284
-1.75063
-2.71753
-3.92897
-5.45041
-7.36049
-9.70692
-12.7135
-17.9755
1.52385
1.494
1.44202
1.37224
1.27762
1.14963
0.978878
0.754055
0.461382
0.0842176
-0.397581
-1.0086
-1.77915
-2.74692
-3.96016
-5.48464
-7.39925
-9.75201
-12.7661
-18.0349
1.49182
1.46095
1.40811
1.33748
1.24218
1.11375
0.942806
0.718018
0.425551
0.0486648
-0.432921
-1.04397
-1.815
-2.78396
-3.9994
-5.52742
-7.4471
-9.80678
-12.8289
-18.1048
1.45443
1.42235
1.36859
1.29702
1.20092
1.0719
0.900612
0.675691
0.383249
0.00645028
-0.47513
-1.08644
-1.85823
-2.8287
-4.04674
-5.57876
-7.50407
-9.87122
-12.9018
-18.1854
1.41181
1.37834
1.32357
1.25095
1.15392
1.02417
0.85236
0.627123
0.334513
-0.0424055
-0.524202
-1.13602
-1.90884
-2.88116
-4.10219
-5.63865
-7.57012
-9.94532
-12.985
-18.2765
1.36413
1.32908
1.2732
1.19942
1.10131
0.970662
0.798157
0.572408
0.279421
-0.097836
-0.580082
-1.19266
-1.9668
-2.94129
-4.16568
-5.70705
-7.6452
-10.029
-13.0784
-18.3782
1.31159
1.27474
1.21765
1.14259
1.04325
0.911533
0.738141
0.511675
0.218093
-0.159732
-0.64267
-1.25626
-2.03201
-3.009
-4.23714
-5.78384
-7.72918
-10.1223
-13.1822
-18.491
1.25438
1.21553
1.15711
1.08064
0.979916
0.84695
0.672477
0.445081
0.150677
-0.227957
-0.711837
-1.32672
-2.10436
-3.08417
-4.31642
-5.86888
-7.82189
-10.2248
-13.2962
-18.6154
1.19271
1.15165
1.09179
1.01377
0.911504
0.777112
0.601358
0.372818
0.0773636
-0.302318
-0.787393
-1.40382
-2.18364
-3.16657
-4.40326
-5.96188
-7.92301
-10.3363
-13.4204
-18.7527
1.12679
1.08329
1.02186
0.942169
0.838183
0.702174
0.524931
0.295019
-0.00173052
-0.382718
-0.869257
-1.48752
-2.2698
-3.25615
-4.49759
-6.06267
-8.03222
-10.456
-13.5535
-18.9046
1.62485
1.66763
1.65362
1.61934
1.57126
1.51199
1.44338
1.36667
1.28288
1.19286
1.09735
0.996994
0.89236
0.783953
0.672226
0.55758
0.44039
0.321021
0.199827
0.0771372
1.57638
1.60851
1.60208
1.57362
1.52909
1.47189
1.4043
1.32787
1.2438
1.15305
1.05645
0.954678
0.84836
0.738036
0.62419
0.507257
0.387642
0.265739
0.141943
0.0166214
1.53103
1.54774
1.53968
1.51237
1.46892
1.41221
1.34452
1.26752
1.1825
1.09049
0.992352
0.888823
0.780541
0.66807
0.551916
0.432539
0.310366
0.185817
0.0593232
-0.068722
1.45771
1.46445
1.45355
1.42574
1.38242
1.32577
1.25779
1.18009
1.094
1.00059
0.900757
0.79527
0.684803
0.569948
0.45124
0.329168
0.204191
0.0767627
-0.0526501
-0.183626
1.3542
1.35309
1.33842
1.30878
1.26459
1.20731
1.13856
1.05983
0.972383
0.877294
0.775488
0.667765
0.554828
0.437301
0.315751
0.1907
0.0626436
-0.0679264
-0.200502
-0.334633
1.21434
1.20617
1.18682
1.15424
1.10814
1.04941
0.979285
0.899033
0.809829
0.712722
0.608635
0.498385
0.382698
0.262228
0.137572
0.00928879
-0.122088
-0.256023
-0.391965
-0.529441
1.02826
1.01355
0.989062
0.952704
0.903846
0.842907
0.770774
0.688495
0.597121
0.49764
0.390958
0.277892
0.159186
0.0355158
-0.0924885
-0.224233
-0.359145
-0.496643
-0.636132
-0.777116
0.784504
0.763629
0.733767
0.693074
0.64076
0.576934
0.502196
0.417381
0.323407
0.221183
0.111578
-0.0045986
-0.126598
-0.253724
-0.385318
-0.520751
-0.659409
-0.800663
-0.943873
-1.08852
0.469767
0.442952
0.407597
0.362166
0.305839
0.238532
0.160626
0.072772
-0.0242473
-0.129605
-0.242482
-0.362088
-0.487676
-0.618532
-0.753974
-0.893338
-1.03597
-1.18119
-1.32831
-1.47681
0.0681893
0.0355875
-0.0053288
-0.0557893
-0.116579
-0.187885
-0.269484
-0.360876
-0.461398
-0.57031
-0.686842
-0.810234
-0.939742
-1.07464
-1.21423
-1.35781
-1.50468
-1.65411
-1.80537
-1.95794
-0.439322
-0.477602
-0.524117
-0.579823
-0.64544
-0.721201
-0.806986
-0.90241
-1.00691
-1.11983
-1.24045
-1.36804
-1.50186
-1.64119
-1.78529
-1.93343
-2.08487
-2.23883
-2.39454
-2.55147
-1.07604
-1.11991
-1.17203
-1.23313
-1.30388
-1.3845
-1.47493
-1.57488
-1.68386
-1.80129
-1.92649
-2.05876
-2.19738
-2.34159
-2.49066
-2.64381
-2.80027
-2.95918
-3.11974
-3.28144
-1.87083
-1.92006
-1.97769
-2.04427
-2.12037
-2.20618
-2.30169
-2.40665
-2.52064
-2.64313
-2.77347
-2.911
-3.05497
-3.20465
-3.35927
-3.51802
-3.68007
-3.84449
-4.01044
-4.17745
-2.85948
-2.91361
-2.97651
-3.0485
-3.13003
-3.22131
-3.32229
-3.43275
-3.5523
-3.68043
-3.81655
-3.95999
-4.11001
-4.26586
-4.42675
-4.59183
-4.7602
-4.93087
-5.10295
-5.27599
-4.08416
-4.1448
-4.21316
-4.29035
-4.37742
-4.47445
-4.58131
-4.69775
-4.82338
-4.95777
-5.10033
-5.2504
-5.40725
-5.5701
-5.73811
-5.91042
-6.08605
-6.26392
-6.44305
-6.62303
-5.61317
-5.67533
-5.74819
-5.83133
-5.92437
-6.02743
-6.14021
-6.26267
-6.39461
-6.53565
-6.68521
-6.8426
-7.00706
-7.17777
-7.35386
-7.53441
-7.71842
-7.90465
-8.09199
-8.27996
-7.52051
-7.5863
-7.66274
-7.75006
-7.84732
-7.9549
-8.07197
-8.19946
-8.33735
-8.48505
-8.64184
-8.80696
-8.97959
-9.15888
-9.3439
-9.53369
-9.72718
-9.92303
-10.1198
-10.3169
-9.84396
-9.91041
-9.98605
-10.0722
-10.1707
-10.2814
-10.4051
-10.5403
-10.6858
-10.8413
-11.0061
-11.1797
-11.3611
-11.5497
-11.7444
-11.9443
-12.1482
-12.3549
-12.5628
-12.7704
-12.8234
-12.8853
-12.9584
-13.0444
-13.1433
-13.2553
-13.3803
-13.5178
-13.6671
-13.8274
-13.998
-14.1782
-14.3672
-14.564
-14.7676
-14.9771
-15.1913
-15.4099
-15.6319
-15.8527
-18.0674
-18.1109
-18.1756
-18.2584
-18.3568
-18.4696
-18.5963
-18.7361
-18.8884
-19.0525
-19.2278
-19.4134
-19.6087
-19.8128
-20.0248
-20.2438
-20.4696
-20.7036
-20.9461
-21.1846
-0.0467748
-0.171184
-0.295715
-0.419668
-0.542186
-0.662189
-0.778346
-0.889066
-0.992511
-1.08666
-1.16941
-1.23877
-1.29304
-1.33101
-1.35206
-1.35606
-1.34379
-1.31387
-1.24275
-1.11698
-0.109941
-0.236908
-0.363884
-0.490101
-0.614651
-0.736406
-0.85401
-0.965871
-1.07018
-1.16498
-1.24827
-1.31817
-1.3731
-1.41195
-1.43406
-1.43936
-1.4289
-1.40215
-1.34609
-1.2514
-0.198012
-0.327619
-0.457127
-0.585714
-0.712432
-0.836128
-0.955441
-1.06881
-1.17448
-1.27061
-1.35534
-1.42694
-1.48399
-1.52548
-1.55083
-1.56001
-1.55391
-1.5326
-1.48969
-1.42325
-0.315829
-0.448243
-0.580426
-0.711507
-0.840506
-0.966251
-1.08738
-1.20237
-1.30953
-1.40712
-1.4934
-1.56679
-1.62599
-1.67009
-1.69859
-1.7115
-1.70948
-1.69263
-1.65826
-1.61001
-0.469955
-0.605354
-0.740367
-0.874074
-1.00547
-1.13336
-1.25641
-1.37311
-1.48185
-1.58099
-1.6689
-1.74413
-1.8055
-1.85219
-1.88378
-1.90034
-1.90244
-1.89037
-1.86368
-1.82743
-0.668051
-0.806582
-0.944552
-1.081
-1.21489
-1.34503
-1.47009
-1.58861
-1.69904
-1.79984
-1.8895
-1.96669
-2.03033
-2.0797
-2.11444
-2.1347
-2.14105
-2.13406
-2.11455
-2.08729
-0.919163
-1.06095
-1.20199
-1.34127
-1.47775
-1.61022
-1.73739
-1.85782
-1.97006
-2.07263
-2.16415
-2.2434
-2.30941
-2.36153
-2.39949
-2.42349
-2.43416
-2.43233
-2.41945
-2.39967
-1.23416
-1.37933
-1.52355
-1.66577
-1.80493
-1.93984
-2.06921
-2.19167
-2.30582
-2.41029
-2.5038
-2.58523
-2.6537
-2.70867
-2.74994
-2.77777
-2.79283
-2.79615
-2.78946
-2.77622
-1.62619
-1.7749
-1.92244
-2.06772
-2.20969
-2.34716
-2.47887
-2.60351
-2.71973
-2.82627
-2.92192
-3.00569
-3.07679
-3.13476
-3.17949
-3.21128
-3.23085
-3.23932
-3.23846
-3.23129
-2.11129
-2.26373
-2.41476
-2.5633
-2.70826
-2.84848
-2.98273
-3.10974
-3.22825
-3.33707
-3.43511
-3.52144
-3.5954
-3.6566
-3.70499
-3.74094
-3.76516
-3.77878
-3.78352
-3.78202
-2.70908
-2.86551
-3.02032
-3.17236
-3.32058
-3.46381
-3.60087
-3.73055
-3.85165
-3.96306
-4.06379
-4.15301
-4.23013
-4.29484
-4.34716
-4.38748
-4.41651
-4.43532
-4.4455
-4.44946
-3.4437
-3.60451
-3.76345
-3.91937
-4.07121
-4.21783
-4.35809
-4.49082
-4.61491
-4.72932
-4.83313
-4.92562
-5.00627
-5.07484
-5.1314
-5.17633
-5.21034
-5.2344
-5.24995
-5.25925
-4.34491
-4.51062
-4.67419
-4.83448
-4.99044
-5.14096
-5.28492
-5.42121
-5.54879
-5.66669
-5.77408
-5.87031
-5.95492
-6.02774
-6.08887
-6.13869
-6.17787
-6.20726
-6.22816
-6.24277
-5.44935
-5.62061
-5.78948
-5.95479
-6.11552
-6.27058
-6.41888
-6.55938
-6.69107
-6.81306
-6.9246
-7.02509
-7.11416
-7.19166
-7.25772
-7.31274
-7.3573
-7.39214
-7.41842
-7.43833
-6.80316
-6.98082
-7.15579
-7.32692
-7.49322
-7.65362
-7.80705
-7.9525
-8.08904
-8.21582
-8.33215
-8.4375
-8.53154
-8.61417
-8.68554
-8.74605
-8.79622
-8.83664
-8.86831
-8.89348
-8.46785
-8.65284
-8.83485
-9.01275
-9.18556
-9.35222
-9.5117
-9.66301
-9.80525
-9.93761
-10.0594
-10.1703
-10.2699
-10.3581
-10.4352
-10.5016
-10.5576
-10.6038
-10.6409
-10.6711
-10.5135
-10.7068
-10.8968
-11.0824
-11.2628
-11.4367
-11.6033
-11.7615
-11.9104
-12.0492
-12.1774
-12.2946
-12.4004
-12.495
-12.5784
-12.6511
-12.7136
-12.7663
-12.8093
-12.8449
-12.9763
-13.1785
-13.3769
-13.5709
-13.7596
-13.9417
-14.1162
-14.2821
-14.4385
-14.5845
-14.7197
-14.8436
-14.956
-15.0569
-15.1467
-15.2255
-15.2941
-15.353
-15.4026
-15.4425
-16.0663
-16.2756
-16.4814
-16.6836
-16.8807
-17.0715
-17.2546
-17.4288
-17.5932
-17.747
-17.8896
-18.0206
-18.1399
-18.2477
-18.344
-18.4292
-18.5045
-18.5721
-18.6329
-18.6822
-21.3904
-21.5986
-21.8087
-22.0174
-22.222
-22.4202
-22.6106
-22.7918
-22.9628
-23.1227
-23.271
-23.4074
-23.5319
-23.6449
-23.747
-23.8387
-23.9226
-24.0041
-24.0867
-24.152
-24.1546
-18.7121
-15.472
-12.876
-10.6963
-8.91406
-7.45386
-6.25312
-5.26449
-4.4496
-3.77703
-3.22107
-2.76074
-2.37958
-2.06149
-1.79554
-1.57096
-1.37831
-1.21267
-1.06862
-24.1583
-18.7321
-15.4943
-12.8981
-10.7145
-8.92872
-7.46408
-6.25874
-5.26558
-4.44619
-3.76922
-3.20912
-2.74581
-2.36018
-2.03892
-1.7703
-1.54411
-1.35336
-1.19724
-1.06363
-24.1661
-18.7471
-15.5118
-12.9149
-10.7281
-8.93985
-7.47132
-6.26182
-5.26458
-4.44127
-3.76094
-3.19828
-2.73116
-2.3429
-2.01951
-1.74927
-1.52236
-1.33232
-1.1782
-1.04677
-24.1759
-18.7602
-15.5263
-12.9283
-10.739
-8.94756
-7.47604
-6.26321
-5.26252
-4.43626
-3.75349
-3.18756
-2.71806
-2.32789
-2.003
-1.73176
-1.50449
-1.31469
-1.16049
-1.02827
-24.1863
-18.7721
-15.5388
-12.9396
-10.7482
-8.95394
-7.47958
-6.26378
-5.26038
-4.43176
-3.74615
-3.17802
-2.70669
-2.31502
-1.98895
-1.71689
-1.48918
-1.29912
-1.14409
-1.01097
-24.1968
-18.7837
-15.5503
-12.95
-10.7565
-8.95972
-7.48272
-6.26431
-5.25853
-4.42769
-3.73999
-3.17005
-2.69717
-2.30423
-1.97717
-1.70438
-1.47618
-1.28561
-1.12944
-0.995751
-24.2078
-18.7954
-15.5618
-12.9601
-10.7647
-8.96548
-7.48602
-6.26528
-5.25741
-4.42441
-3.73514
-3.16378
-2.68958
-2.29555
-1.9676
-1.69412
-1.46542
-1.27423
-1.11685
-0.983695
-24.2195
-18.8077
-15.5737
-12.9707
-10.7733
-8.9718
-7.49007
-6.26727
-5.2576
-4.42263
-3.73157
-3.15885
-2.68374
-2.28896
-1.9602
-1.68602
-1.45675
-1.26479
-1.10631
-0.975096
-24.2325
-18.8212
-15.5867
-12.9822
-10.7829
-8.97924
-7.49568
-6.27082
-5.25903
-4.42248
-3.73003
-3.15617
-2.67996
-2.28417
-1.95463
-1.67975
-1.44982
-1.25745
-1.0985
-0.963905
-24.2473
-18.8363
-15.6012
-12.9952
-10.7938
-8.98847
-7.50279
-6.27581
-5.26223
-4.42416
-3.73042
-3.15545
-2.67824
-2.28155
-1.95122
-1.67558
-1.44497
-1.2521
-1.09228
-0.95513
-24.2644
-18.8535
-15.6177
-13.0101
-10.8065
-8.99963
-7.51147
-6.28259
-5.26733
-4.42782
-3.73285
-3.1568
-2.67865
-2.2811
-1.94998
-1.6736
-1.44231
-1.2488
-1.0879
-0.949499
-24.2842
-18.8733
-15.6365
-13.0271
-10.822
-9.01229
-7.52206
-6.29136
-5.27446
-4.43356
-3.73741
-3.16034
-2.68128
-2.2829
-1.951
-1.67388
-1.44192
-1.2477
-1.08571
-0.9466
-24.3073
-18.8959
-15.658
-13.0466
-10.8398
-9.0271
-7.53478
-6.30227
-5.28377
-4.44151
-3.74421
-3.16614
-2.68619
-2.287
-1.95433
-1.67648
-1.44384
-1.24888
-1.08582
-0.946207
-24.3342
-18.9216
-15.6823
-13.0687
-10.8599
-9.0443
-7.54978
-6.31543
-5.29534
-4.45174
-3.75332
-3.17428
-2.69346
-2.29347
-1.96003
-1.68144
-1.4481
-1.25238
-1.08827
-0.94823
-24.365
-18.9507
-15.7096
-13.0937
-10.8824
-9.06399
-7.56719
-6.33095
-5.30926
-4.46434
-3.76481
-3.18482
-2.70314
-2.30235
-1.96815
-1.68882
-1.45476
-1.25824
-1.09308
-0.952644
-24.4003
-18.9831
-15.7399
-13.1216
-10.9076
-9.08624
-7.58705
-6.34888
-5.32559
-4.47936
-3.77872
-3.19779
-2.71528
-2.31369
-1.97872
-1.69864
-1.46384
-1.2665
-1.10028
-0.959462
-24.4411
-19.0193
-15.7737
-13.1521
-10.9354
-9.11098
-7.60932
-6.3692
-5.34432
-4.49679
-3.79509
-3.21324
-2.72989
-2.32753
-1.99179
-1.71094
-1.47538
-1.27719
-1.1099
-0.968712
-24.4905
-19.0605
-15.8114
-13.1847
-10.9653
-9.13801
-7.63388
-6.3918
-5.36537
-4.51659
-3.81385
-3.23112
-2.74697
-2.34384
-2.00734
-1.72573
-1.4894
-1.29035
-1.12198
-0.980412
-24.5499
-19.1067
-15.852
-13.2196
-10.9974
-9.16733
-7.66078
-6.41676
-5.38878
-4.53876
-3.83502
-3.25143
-2.7665
-2.36263
-2.02539
-1.74301
-1.5059
-1.30597
-1.13653
-0.994581
-24.6076
-19.1542
-15.8942
-13.2574
-11.0323
-9.19953
-7.69054
-6.44452
-5.41495
-4.56365
-3.85887
-3.2744
-2.78868
-2.38404
-2.04604
-1.76289
-1.52498
-1.32415
-1.15362
-1.01129
-0.6707
-0.392088
-0.257231
-0.171097
-0.119194
-0.0790854
-0.0489993
-0.0267631
-0.0116541
-0.002516
0.00236268
0.00447875
0.00502088
0.00474956
0.00412339
0.00339177
0.00269626
0.0020881
0.00158222
0.00116435
0.000820965
0.000538986
0.000314093
0.000138906
7.75498e-06
-8.4566e-05
-0.00014458
-0.000175616
-0.000185553
-0.000179782
-0.000161895
-0.000139717
-0.000114621
-8.94568e-05
-6.77068e-05
-4.74945e-05
-3.05823e-05
-1.79778e-05
-1.16237e-05
-1.44662e-06
-0.697506
-0.399979
-0.264438
-0.17137
-0.118314
-0.0769873
-0.0473308
-0.0255987
-0.0111109
-0.00242175
0.00213571
0.00404901
0.0044672