/*--------------------------------*- C++ -*----------------------------------*\
  =========                 |
  \\      /  F ield         | OpenFOAM: The Open Source CFD Toolbox
   \\    /   O peration     | Website:  https://openfoam.org
    \\  /    A nd           | Version:  6.0
     \\/     M anipulation  |
\*---------------------------------------------------------------------------*/
FoamFile
{
    version     2.0;
    format      ascii;
    class       surfaceScalarField;
    location    "22.5015";
    object      phi;
}
// * * * * * * * * * * * * * * * * * * * * * * * * * * * * * * * * * * * * * //

dimensions      [0 3 -1 0 0 0 0];

internalField   nonuniform List<scalar> 
4670
(
0.0119498
-0.782973
0.771024
0.0325395
-0.809635
0.789045
0.0533572
-0.833251
0.812433
0.0722588
-0.831089
0.812187
0.0895385
-0.819134
0.801855
0.105996
-0.805207
0.788749
0.12227
-0.792855
0.776581
0.138672
-0.783067
0.766665
0.155484
-0.775945
0.759133
-0.772977
0.755272
0.17319
0.0121599
-0.795133
0.0320406
-0.829516
0.0516953
-0.852906
0.0693106
-0.848704
0.0853486
-0.835172
0.100662
-0.820521
0.115849
-0.808041
0.131147
-0.798365
0.14679
-0.791588
-0.78938
0.163193
0.0119929
-0.807126
0.0308368
-0.84836
0.0490635
-0.871132
0.0651141
-0.864755
0.0796135
-0.849672
0.0934631
-0.83437
0.107204
-0.821781
0.120946
-0.812108
0.13479
-0.805433
-0.803504
0.148914
0.011452
-0.818578
0.0289822
-0.86589
0.0455764
-0.887727
0.0598857
-0.879064
0.0726408
-0.862427
0.0847753
-0.846505
0.0968555
-0.833861
0.109063
-0.824315
0.121572
-0.817942
-0.816388
0.134455
0.0105546
-0.829133
0.0264963
-0.881832
0.0412961
-0.902526
0.0537661
-0.891534
0.0646667
-0.873327
0.0748389
-0.856677
0.0847794
-0.843802
0.0948265
-0.834362
0.105544
-0.82866
-0.828178
0.117334
0.00935754
-0.83849
0.0234701
-0.895944
0.0362684
-0.915325
0.0467674
-0.902033
0.0558009
-0.882361
0.0640781
-0.864954
0.0718325
-0.851556
0.0793546
-0.841884
0.0877473
-0.837052
-0.839043
0.0986127
0.00799998
-0.84649
0.0201398
-0.908084
0.0307043
-0.925889
0.0388952
-0.910224
0.0457583
-0.889224
0.0521583
-0.871354
0.0582072
-0.857605
0.0636149
-0.847292
0.0687263
-0.842164
-0.844615
0.0742981
0.00671054
-0.853201
0.0169837
-0.918357
0.0252698
-0.934175
0.0308042
-0.915759
0.0347257
-0.893145
0.0383073
-0.874936
0.0423996
-0.861698
0.0467917
-0.851684
0.0490697
-0.844442
-0.837393
0.0418481
0.00571568
-0.858916
0.0144819
-0.927123
0.0208556
-0.940549
0.0239904
-0.918894
0.0246255
-0.89378
0.0235829
-0.873893
0.0220243
-0.860139
0.0218753
-0.851535
0.0235977
-0.846164
-0.832212
0.0184164
0.00519418
-0.86411
0.0128695
-0.934799
0.0179651
-0.945644
0.0197097
-0.920638
0.018443
-0.892514
0.0137421
-0.869193
0.00441316
-0.85081
-0.00903081
-0.838091
-0.0160337
-0.839161
-0.875029
0.0267831
0.920231
0.00843957
-0.928671
0.911831
0.00839965
0.9037
0.00813137
0.89608
0.00761971
0.889109
0.00697102
0.882898
0.00621123
0.877428
0.00547011
0.872608
0.00481959
0.868242
0.004366
0.00413185
0.999819
0.0144019
-1.00578
0.992957
0.0152613
0.98554
0.0155481
0.977873
0.0152873
0.970192
0.0146519
0.962695
0.013708
0.95549
0.0126748
0.948573
0.0117366
0.941769
0.0111699
0.0111022
0.984274
0.0167537
-0.986626
0.980958
0.0185767
0.976928
0.0195784
0.972462
0.0197535
0.967812
0.0193015
0.963176
0.0183436
0.9587
0.0171512
0.954394
0.0160419
0.950168
0.0153968
0.0156253
0.941717
0.0182013
-0.943164
0.939488
0.0208056
0.936664
0.0224024
0.933614
0.0228038
0.930552
0.0223631
0.92775
0.0211459
0.925337
0.0195645
0.923417
0.0179616
0.922014
0.0167999
0.0170011
0.908347
0.0204415
-0.910587
0.905517
0.0236356
0.90213
0.0257888
0.898868
0.0260661
0.895759
0.025472
0.893375
0.0235296
0.891637
0.0213031
0.890893
0.0187047
0.891349
0.0163441
0.0158367
0.885277
0.0239034
-0.888739
0.881453
0.0274592
0.876854
0.0303877
0.872853
0.0300675
0.868791
0.0295336
0.866269
0.0260519
0.864351
0.0232208
0.864327
0.0187288
0.865672
0.0149995
0.0123159
0.867843
0.0285626
-0.872503
0.863224
0.0320787
0.857288
0.036324
0.852762
0.0345932
0.847111
0.0351847
0.844423
0.0287395
0.84137
0.0262737
0.843184
0.0169147
0.844376
0.0138078
0.00588206
0.852632
0.0343978
-0.858467
0.847561
0.0371496
0.840316
0.0435687
0.835913
0.0389963
0.828155
0.0429428
0.825552
0.0313429
0.819128
0.0326974
0.824943
0.0111002
0.826178
0.0125727
-0.00603119
0.838171
0.0416297
-0.845403
0.83284
0.0424807
0.824401
0.0520074
0.820755
0.0426422
0.811103
0.0525952
0.808814
0.0336316
0.796739
0.0447728
0.80459
0.00324927
0.8101
0.00706185
-0.0350919
0.824678
-0.833818
0.0507693
0.818926
0.0482324
0.809583
0.0613505
0.806797
0.0454288
0.796471
0.0629212
0.794282
0.0358207
0.777534
0.0615202
0.77695
0.00383376
0.782503
0.0015089
-0.127618
0.958518
-0.00303568
-0.955483
0.960598
-0.0020795
0.961384
-0.00078598
0.960704
0.000680049
0.958444
0.0022596
0.95469
0.0037542
0.94958
0.00510995
0.943367
0.00621313
0.936274
0.00709327
0.00760315
0.987295
-0.0137423
-0.976588
0.996624
-0.0114091
1.00431
-0.00847337
1.01011
-0.00512
1.01391
-0.00153563
1.01573
0.00192915
1.01568
0.00516219
1.0139
0.00799573
1.01053
0.0104644
0.0123482
0.937876
-0.0274671
-0.924152
0.950371
-0.0239041
0.961234
-0.0193364
0.970199
-0.0140842
0.977239
-0.00857621
0.982442
-0.0032737
0.985887
0.00171733
0.987648
0.00623407
0.987846
0.0102673
0.0135681
0.89039
-0.0417293
-0.876127
0.903414
-0.0369285
0.914617
-0.0305399
0.923793
-0.0232593
0.931064
-0.015848
0.936619
-0.00882796
0.940479
-0.00214298
0.942766
0.00394734
0.943581
0.00945148
0.0139852
0.864735
-0.056293
-0.850171
0.877636
-0.04983
0.888166
-0.0410699
0.896467
-0.0315599
0.902884
-0.0222647
0.90759
-0.0135345
0.910497
-0.00504951
0.911868
0.00257665
0.91177
0.00954854
0.0151685
0.850624
-0.0719611
-0.834955
0.863595
-0.0628011
0.873184
-0.0506592
0.880574
-0.0389504
0.886237
-0.0279271
0.890059
-0.0173562
0.891855
-0.00684565
0.892163
0.00226792
0.890928
0.0107837
0.0173581
0.840655
-0.0895245
-0.823092
0.8538
-0.0759456
0.862228
-0.0590875
0.86899
-0.0457119
0.87422
-0.0331568
0.877289
-0.0204257
0.878142
-0.00769823
0.877653
0.0027571
0.875475
0.0129612
0.0203305
0.831858
-0.107437
-0.813946
0.845021
-0.089108
0.852539
-0.0666059
0.858972
-0.0521448
0.863617
-0.0378022
0.865811
-0.0226191
0.865914
-0.00780138
0.864933
0.00373817
0.862002
0.0158918
0.0238654
0.823761
-0.116183
-0.815015
0.835427
-0.100774
0.845236
-0.0764146
0.851343
-0.0582527
0.85413
-0.040589
0.855033
-0.0235218
0.854537
-0.00730533
0.853226
0.00504956
0.849536
0.0195818
0.0279978
0.817239
-0.843346
-0.0900764
0.815031
-0.0985653
0.842764
-0.104147
0.84843
-0.0639191
0.84625
-0.0384091
0.845417
-0.022689
0.844857
-0.00674467
0.84337
0.00653641
0.838975
0.0239765
0.0331552
0.090544
0.708048
-0.707523
-0.091069
0.0865641
0.71487
-0.71089
0.0800539
0.718223
-0.711713
0.0714791
0.720414
-0.71184
0.0611554
0.723291
-0.712967
0.0491445
0.729554
-0.717543
0.0353278
0.746121
-0.732304
0.0199784
0.788667
-0.773318
0.0058273
0.859253
-0.845102
0.907597
-0.90177
0.0946286
0.713246
-0.0998263
0.0881031
0.721395
0.0801149
0.726211
0.0708386
0.729691
0.0602562
0.733874
0.0482183
0.741592
0.0344993
0.75984
0.0193746
0.803792
0.00563201
0.872995
0.913229
0.0893386
0.715249
-0.0913415
0.0850745
0.725659
0.0785875
0.732698
0.0700504
0.738228
0.0597227
0.744201
0.0477213
0.753593
0.0340137
0.773548
0.019002
0.818804
0.0054992
0.886498
0.918728
0.0999387
0.724429
-0.109119
0.0909995
0.734598
0.0815625
0.742136
0.071396
0.748394
0.0601993
0.755398
0.0477455
0.766047
0.0338372
0.787456
0.0188326
0.833808
0.00545824
0.899873
0.924187
0.0947101
0.726537
-0.0968174
0.0895636
0.739745
0.0820412
0.749658
0.0723069
0.758129
0.060862
0.766843
0.0480235
0.778886
0.0338275
0.801652
0.0187288
0.848907
0.00544578
0.913156
0.929632
0.107734
0.737137
-0.118334
0.0971142
0.750365
0.0860016
0.760771
0.0742553
0.769875
0.0617691
0.779329
0.0483795
0.792275
0.033896
0.816135
0.0186952
0.864108
0.00548632
0.926365
0.935119
0.103116
0.735961
-0.10194
0.0970463
0.756434
0.0872805
0.770536
0.0754161
0.781739
0.062479
0.792266
0.0486474
0.806107
0.0338434
0.830939
0.0185189
0.879432
0.00542499
0.939459
0.940544
0.121354
0.74885
-0.134243
0.105186
0.772602
0.0899
0.785823
0.0762001
0.795439
0.0626953
0.805771
0.0485037
0.820298
0.0334468
0.845996
0.018197
0.894682
0.00531389
0.952342
0.945858
0.1242
0.762224
-0.137573
0.104607
0.792195
0.0899918
0.800438
0.0766633
0.808768
0.062547
0.819887
0.0477182
0.835127
0.0324957
0.861218
0.0174724
0.909705
0.00499853
0.964816
0.950856
0.126519
-0.207641
0.103699
0.0901907
0.0758662
0.0607979
0.0457542
0.0308453
0.0163991
0.0046267
0.181668
0.61066
-0.633757
-0.158571
0.159545
0.613763
-0.59164
0.132704
0.602572
-0.575732
0.10845
0.592412
-0.568158
0.087202
0.584855
-0.563607
0.0677792
0.580284
-0.560861
0.049156
0.584494
-0.565871
0.0305159
0.61486
-0.596219
0.0120695
0.691441
-0.672995
0.817494
-0.805425
0.161144
0.63059
-0.181074
0.144512
0.630395
0.126657
0.620427
0.107659
0.61141
0.0884178
0.604097
0.069281
0.599421
0.0502378
0.603538
0.0309803
0.634117
0.0121077
0.710314
0.829602
0.148948
0.657272
-0.17563
0.133405
0.645938
0.118381
0.635451
0.10258
0.627211
0.0857989
0.620878
0.0681268
0.617093
0.049701
0.621963
0.0305471
0.653271
0.0117012
0.729159
0.841303
0.141139
0.670862
-0.154729
0.127521
0.659556
0.113
0.649971
0.0979473
0.642264
0.0822876
0.636537
0.0657493
0.633631
0.0481398
0.639573
0.0294436
0.671967
0.0109991
0.747604
0.852302
0.132787
0.678054
-0.139979
0.12132
0.671023
0.108013
0.663278
0.0937716
0.656506
0.078861
0.651448
0.0630891
0.649403
0.0461727
0.656489
0.0279952
0.690145
0.0101441
0.765455
0.862446
0.124897
0.685121
-0.131964
0.11477
0.681151
0.102891
0.675157
0.0897853
0.669611
0.0757026
0.66553
0.0605789
0.664527
0.0442049
0.672863
0.0265131
0.707836
0.00929705
0.782671
0.871743
0.115448
0.692026
-0.122354
0.106886
0.689713
0.0966512
0.685392
0.0850201
0.681242
0.0721266
0.678424
0.0579093
0.678744
0.042201
0.688572
0.0250488
0.724989
0.00848304
0.799237
0.880226
0.110338
0.699077
-0.117389
0.101995
0.698057
0.0922101
0.695177
0.0811839
0.692268
0.0689608
0.690647
0.0554082
0.692297
0.0402945
0.703685
0.0236823
0.741601
0.00775528
0.815164
0.887982
0.101275
0.703265
-0.105462
0.0950308
0.7043
0.0868527
0.703355
0.0770413
0.70208
0.0657675
0.701921
0.0529752
0.705089
0.0384703
0.71819
0.022381
0.75769
0.00711284
0.830432
0.895094
0.0992948
-0.103554
0.0927056
0.0843474
0.0745875
0.0635408
0.0510867
0.0369726
0.0213448
0.00667543
-0.545446
0.185099
-0.27341
-0.529447
0.128952
-0.144951
-0.520565
0.121125
-0.130008
-0.522467
0.065818
-0.0639159
-0.520302
0.0568588
-0.0590234
-0.523145
0.0211616
-0.0183192
-0.525535
0.00794682
-0.00555612
-0.532403
-0.0182002
0.0250675
-0.540446
-0.0323552
0.0403987
-0.0494795
-0.55124
0.0602738
-0.553685
0.147144
-0.537298
0.112565
-0.520214
0.104042
-0.519821
0.0654249
-0.516089
0.0531269
-0.518987
0.0240599
-0.521313
0.0102728
-0.527989
-0.0115248
-0.535602
-0.0247424
-0.0395829
-0.545498
-0.549639
0.121052
-0.537219
0.100145
-0.52083
0.0876526
-0.517801
0.0623954
-0.513415
0.048741
-0.515659
0.0263038
-0.517999
0.0126128
-0.524328
-0.00519607
-0.531698
-0.0173717
-0.0301191
-0.541162
-0.547125
0.100019
-0.534198
0.0872173
-0.520814
0.0742691
-0.515577
0.0571581
-0.510932
0.0440964
-0.511902
0.0272734
-0.513996
0.0147065
-0.519691
0.000498837
-0.526741
-0.0103211
-0.0210221
-0.535838
-0.545068
0.0814798
-0.530826
0.0729747
-0.518959
0.0624022
-0.512147
0.0503467
-0.507288
0.0392367
-0.506864
0.0268495
-0.508428
0.0162709
-0.513239
0.00530982
-0.519793
-0.0037674
-0.0124091
-0.528406
-0.54346
0.0640785
-0.528693
0.0582082
-0.51696
0.0506686
-0.508915
0.0423022
-0.503533
0.0338541
-0.501736
0.0250531
-0.502413
0.0169481
-0.50604
0.00893607
-0.511717
0.00190964
-0.00464379
-0.519482
-0.548884
0.0470907
-0.533966
0.0432907
-0.521772
0.0384748
-0.512559
0.0330892
-0.506139
0.0274337
-0.502753
0.0216677
-0.501957
0.0161521
-0.503835
0.0108138
-0.507892
0.00596626
0.00148725
-0.514023
-0.579003
0.0298739
-0.563527
0.0278154
-0.550297
0.0252441
-0.539521
0.0223129
-0.531276
0.0191889
-0.525611
0.0160031
-0.52236
0.0129007
-0.521467
0.00992148
-0.522667
0.00716548
0.00462848
-0.525808
-0.6555
0.0123792
-0.639377
0.0116931
-0.624971
0.0108379
-0.612505
0.00984632
-0.602071
0.00875554
-0.5937
0.00763144
-0.587318
0.00651881
-0.58285
0.00545427
-0.58014
0.00445493
0.00349922
-0.579011
-0.793045
-0.781352
-0.770514
-0.760668
-0.751913
-0.744281
-0.737762
-0.732308
-0.727853
-0.724354
-0.561991
-0.0593712
0.0701215
-0.573158
-0.0693694
0.080537
-0.584409
-0.0762917
0.0875428
-0.5959
-0.081866
0.0933569
-0.607951
-0.0849405
0.0969916
-0.621299
-0.084951
0.0982983
-0.632564
-0.0830266
0.0942916
-0.632191
-0.0797989
0.0794263
-0.639938
-0.0717418
0.0794885
-0.0601857
-0.666653
0.0869012
-0.555705
-0.0491639
-0.566583
-0.0584914
-0.577674
-0.0652008
-0.589059
-0.0704811
-0.600581
-0.0734182
-0.611551
-0.073981
-0.621014
-0.0735641
-0.628551
-0.0722617
-0.634815
-0.0654778
-0.0568956
-0.638105
-0.551256
-0.0390702
-0.562199
-0.0475487
-0.573545
-0.0538542
-0.585231
-0.0587951
-0.596841
-0.0618089
-0.607591
-0.0632306
-0.617478
-0.0636773
-0.627071
-0.062669
-0.633649
-0.0588994
-0.0565128
-0.634032
-0.545866
-0.029043
-0.55691
-0.0365042
-0.568523
-0.0422415
-0.580528
-0.0467904
-0.592455
-0.0498816
-0.603831
-0.0518549
-0.614745
-0.052763
-0.625062
-0.0523521
-0.632671
-0.0512897
-0.0525858
-0.636598
-0.538252
-0.019197
-0.549283
-0.0254729
-0.561052
-0.0304724
-0.573317
-0.0345251
-0.585675
-0.0375235
-0.597858
-0.0396723
-0.609741
-0.0408802
-0.620803
-0.0412899
-0.630092
-0.0420008
-0.0447037
-0.637974
-0.528756
-0.00992332
-0.539383
-0.0148452
-0.550955
-0.0189008
-0.563211
-0.022269
-0.575829
-0.0249056
-0.588595
-0.0269063
-0.60122
-0.0282554
-0.613229
-0.0292804
-0.624395
-0.0308352
-0.0337454
-0.635353
-0.521856
-0.00209048
-0.531176
-0.00552524
-0.541652
-0.00842397
-0.553054
-0.0108673
-0.565122
-0.0128381
-0.577645
-0.014383
-0.590323
-0.0155771
-0.602871
-0.016732
-0.615342
-0.0183651
-0.0208604
-0.628227
-0.530688
0.00278993
-0.537063
0.000849666
-0.544717
-0.000770004
-0.553472
-0.0021126
-0.56313
-0.00317999
-0.573512
-0.00400112
-0.584417
-0.00467258
-0.595724
-0.0054245
-0.607555
-0.00653398
-0.00818281
-0.620233
-0.579286
0.00306476
-0.580823
0.00238722
-0.583461
0.00186773
-0.587075
0.00150206
-0.591517
0.00126115
-0.596658
0.00114061
-0.602416
0.00108481
-0.608826
0.000985479
-0.616059
0.000699139
9.4275e-05
-0.624336
-0.721289
-0.718902
-0.717034
-0.715532
-0.714271
-0.71313
-0.712046
-0.71106
-0.710361
-0.710267
8.7303e-05
-0.710354
0.00966575
-0.633914
0.0235986
-0.634166
0.0374782
-0.642106
0.0493086
-0.647184
0.0583055
-0.646971
0.0642709
-0.642564
0.0669054
-0.636666
0.0608493
-0.632049
-0.624304
0.0185005
0.00115838
-0.711513
0.0123352
-0.645091
0.0276453
-0.649476
0.0427542
-0.657215
0.0559141
-0.660344
0.0669116
-0.657968
0.0763677
-0.65202
0.0844735
-0.644772
0.0889252
-0.636501
-0.626741
0.091362
0.00243201
-0.713945
0.0153692
-0.658028
0.0322029
-0.666309
0.0487353
-0.673748
0.0634957
-0.675104
0.0763086
-0.670781
0.0871054
-0.662817
0.0952929
-0.65296
0.101241
-0.642449
-0.633655
0.108154
0.0038389
-0.717783
0.0186074
-0.672797
0.0369492
-0.684651
0.054847
-0.691645
0.0710526
-0.69131
0.0856071
-0.685336
0.0991333
-0.676343
0.112853
-0.666679
0.128405
-0.658001
-0.652078
0.146828
0.0053646
-0.723148
0.0218825
-0.689315
0.0415925
-0.704361
0.0606581
-0.710711
0.0780142
-0.708666
0.0937802
-0.701102
0.108475
-0.691037
0.122614
-0.680819
0.136464
-0.67185
-0.665159
0.149545
0.00691155
-0.73006
0.0250057
-0.707409
0.0458335
-0.725189
0.0657978
-0.730675
0.084085
-0.726953
0.101033
-0.718049
0.117377
-0.707382
0.133863
-0.697305
0.15091
-0.688897
-0.682931
0.168682
0.00840901
-0.738469
0.0278004
-0.7268
0.0494167
-0.746806
0.0699357
-0.751194
0.0887708
-0.745788
0.106332
-0.735611
0.123209
-0.724259
0.139723
-0.713819
0.155797
-0.704971
-0.698229
0.171095
0.00976703
-0.748236
0.0301142
-0.747147
0.05214
-0.768831
0.0728396
-0.771894
0.0918907
-0.764839
0.109868
-0.753588
0.12748
-0.741871
0.145218
-0.731557
0.163319
-0.723072
-0.717193
0.182284
0.0109267
-0.759162
0.0318294
-0.76805
0.0538452
-0.790847
0.0743041
-0.792353
0.093113
-0.783648
0.110933
-0.771408
0.128443
-0.759381
0.146026
-0.74914
0.163825
-0.740871
-0.735426
0.182058
0.0118611
0.0328563
0.0544424
0.0742771
0.0924836
0.109825
0.127025
0.14455
0.162812
0.182658
0.0957207
-3.82174
3.89921
0.0613634
-3.48984
3.5242
0.0573678
-2.95819
2.96219
0.04187
-2.59122
2.60672
0.0290956
-2.25498
2.26776
0.0305731
-1.75541
1.75394
0.0274144
-1.24619
1.24935
0.0255885
-0.85822
0.860046
0.0240657
-0.572688
0.574211
0.0218878
-0.358515
0.360693
0.0192254
-0.211671
0.214333
0.0172105
-0.129951
0.131966
0.0160722
-0.0907474
0.0918857
0.0153607
-0.0706853
0.0713968
0.0147116
-0.0583264
0.0589755
0.0139156
-0.0454759
0.046272
0.0129197
-0.0291997
0.0301956
0.0112544
-0.00544951
0.00711486
0.00635578
0.0657491
-0.0608505
0.104282
-0.100548
0.0832451
-3.7418
0.0345045
-3.4411
0.0250544
-2.94874
0.0161304
-2.5823
0.00933343
-2.24818
0.0150303
-1.76111
0.0175189
-1.24868
0.0189595
-0.859661
0.0195921
-0.57332
0.0187675
-0.35769
0.0168298
-0.209733
0.0151104
-0.128232
0.0140553
-0.0896922
0.0133299
-0.0699598
0.0126329
-0.0576292
0.0117923
-0.0446352
0.0107956
-0.028203
0.0091098
-0.00376385
0.00446338
0.0703958
0.107666
0.0625255
-3.65541
0.00751611
-3.38609
-0.00611236
-2.93512
-0.00935362
-2.57906
-0.00935014
-2.24819
0.000436345
-1.7709
0.00782509
-1.25607
0.0124397
-0.864275
0.0151855
-0.576066
0.0157218
-0.358227
0.0145148
-0.208526
0.0130808
-0.126798
0.0121031
-0.0887144
0.0113687
-0.0692254
0.0106375
-0.0568981
0.00976935
-0.043767
0.00879024
-0.0272239
0.00710713
-0.00208074
0.00293393
0.074569
0.110666
0.0461935
-3.56715
-0.00941989
-3.33048
-0.0263683
-2.91817
-0.0289671
-2.57646
-0.025378
-2.25178
-0.0130929
-1.78318
-0.00176707
-1.26739
0.00595216
-0.871994
0.0108241
-0.580938
0.0127482
-0.360151
0.0122878
-0.208065
0.0111344
-0.125644
0.0102302
-0.0878102
0.00949243
-0.0684876
0.00873954
-0.0561452
0.00785828
-0.0428858
0.00691166
-0.0262773
0.00524974
-0.000418828
0.00154575
0.078273
0.113195
0.0321155
-3.48193
-0.014598
-3.28377
-0.0378778
-2.89489
-0.0455413
-2.5688
-0.0417814
-2.25554
-0.0274346
-1.79753
-0.0118625
-1.28297
-0.000655289
-0.883202
0.00647599
-0.588069
0.00984062
-0.363515
0.0101538
-0.208379
0.00928236
-0.124773
0.00845017
-0.086978
0.00771468
-0.0677521
0.00695116
-0.0553817
0.00606859
-0.0420032
0.00516565
-0.0253743
0.00353885
0.00120798
0.000306652
0.0815052
0.115228
0.0271524
-3.41047
-0.0234673
-3.23315
-0.0592662
-2.85909
-0.0725103
-2.55555
-0.0672062
-2.26084
-0.0465147
-1.81822
-0.0235271
-1.30595
-0.00759043
-0.899138
0.00209999
-0.59776
0.00698775
-0.368403
0.00811416
-0.209505
0.0075334
-0.124192
0.00677416
-0.0862188
0.00604682
-0.0670248
0.00528216
-0.054617
0.00440742
-0.0411285
0.0035558
-0.0245227
0.00197353
0.00279024
-0.000793743
0.0842725
0.11678
-0.018686
-3.31748
-0.0943608
-3.15747
-0.125867
-2.82758
-0.12776
-2.55366
-0.108346
-2.28026
-0.0720446
-1.85452
-0.0370658
-1.34093
-0.0149152
-0.921289
-0.00233507
-0.61034
0.00417171
-0.37491
0.00616465
-0.211498
0.00589292
-0.12392
0.00521093
-0.0855368
0.00449773
-0.0663116
0.00373979
-0.053859
0.00287947
-0.0402682
0.0020835
-0.0237267
0.000550978
0.00432276
-0.00177293
0.0865964
0.117873
-0.136227
-3.13941
-0.207792
-3.08591
-0.211528
-2.82385
-0.191291
-2.5739
-0.150361
-2.32118
-0.0963495
-1.90853
-0.0500502
-1.38723
-0.0221519
-0.949187
-0.00676276
-0.625729
0.00139252
-0.383065
0.00430154
-0.214407
0.00436427
-0.123983
0.003767
-0.0849395
0.00307387
-0.0656184
0.00232879
-0.053114
0.00148706
-0.0394264
0.000748082
-0.0229877
-0.000733234
0.00580408
-0.00264326
0.0885064
0.118538
-0.151265
-2.96973
-0.200556
-3.03662
-0.211101
-2.8133
-0.194663
-2.59033
-0.154695
-2.36115
-0.10305
-1.96018
-0.0576062
-1.43268
-0.0281781
-0.978615
-0.0108927
-0.643015
-0.00126249
-0.392695
0.00255171
-0.218221
0.0029601
-0.124392
0.00245061
-0.0844301
0.00178103
-0.0649488
0.00105262
-0.0523855
0.000231189
-0.038605
-0.000452278
-0.0223043
-0.00188438
0.00723618
-0.00341482
0.0900368
0.118807
0.409354
-3.3523
0.227187
-2.85445
0.0791978
-2.66531
0.0043697
-2.51551
-0.0468161
-2.30997
-0.0683951
-1.9386
-0.0549463
-1.44613
-0.0319782
-1.00158
-0.0142945
-0.660698
-0.00361828
-0.403371
0.000982312
-0.222822
0.00170935
-0.125119
0.00127442
-0.0839951
0.000627149
-0.0643016
-8.428e-05
-0.0516741
-0.000884456
-0.0378048
-0.00152046
-0.0216682
-0.00289721
0.00861293
-0.0040884
0.091228
0.118722
0.884241
-2.63309
-1.60344
0.67853
-2.64874
0.862901
-2.84968
0.699481
-2.35209
0.475187
-2.08567
0.279923
-1.74333
0.156228
-1.32243
0.0952762
-0.940632
0.0606805
-0.626103
0.0372123
-0.379903
0.0220673
-0.207677
0.0124359
-0.115487
0.0066698
-0.078229
0.00280441
-0.0604362
-0.00033248
-0.0485372
-0.00312453
-0.0350128
-0.00535469
-0.0194381
-0.00864196
0.0119002
-0.009882
0.0924681
0.116709
1.37989
-2.23205
-1.78093
1.13919
-2.40804
0.748232
-2.45873
0.592234
-2.19609
0.426589
-1.92003
0.276434
-1.59318
0.168429
-1.21442
0.107275
-0.879478
0.0702903
-0.589117
0.0423798
-0.351993
0.0236141
-0.188911
0.0117513
-0.103624
0.0045199
-0.0709976
-0.0003406
-0.0555757
-0.00423533
-0.0446425
-0.00755881
-0.0316893
-0.010134
-0.0168628
-0.0135785
0.0153447
-0.0136696
0.0925592
0.113049
1.66171
-1.76906
-2.1247
1.22374
-1.97007
0.876846
-2.11184
0.725456
-2.0447
0.558944
-1.75352
0.364453
-1.39869
0.212378
-1.06235
0.129153
-0.796253
0.0825574
-0.542522
0.0473514
-0.316787
0.0238038
-0.165364
0.00964458
-0.0894652
0.000990425
-0.0623435
-0.00490005
-0.0496852
-0.00959146
-0.0399511
-0.0134432
-0.0278376
-0.0163227
-0.0139833
-0.0197725
0.0187944
-0.018255
0.0910417
0.107289
1.77065
-1.2874
-2.25232
1.42676
-1.62618
1.08122
-1.76629
0.77262
-1.7361
0.571732
-1.55263
0.377563
-1.20452
0.229079
-0.913866
0.143902
-0.711076
0.092199
-0.490819
0.0506373
-0.275225
0.021963
-0.136689
0.00555728
-0.0730594
-0.00435357
-0.0524326
-0.0112119
-0.0428269
-0.0166648
-0.0344981
-0.020971
-0.0235314
-0.0240838
-0.0108705
-0.0272149
0.0219255
-0.0235902
0.0874171
0.0990623
1.92816
-0.997
-2.21856
1.54034
-1.23835
1.12378
-1.34974
0.887366
-1.49968
0.694186
-1.35945
0.464944
-0.975278
0.283847
-0.732769
0.172988
-0.600216
0.101811
-0.419642
0.0502364
-0.223651
0.0167078
-0.103161
-0.00130372
-0.0550479
-0.01201
-0.0417263
-0.0196112
-0.0352257
-0.025674
-0.0284353
-0.0302792
-0.0189262
-0.0334916
-0.00765804
-0.0358414
0.0242752
-0.0296053
0.081181
0.0881284
2.00914
-0.745328
-2.26081
1.60859
-0.837804
1.3513
-1.09245
1.05504
-1.20342
0.625116
-0.929526
0.362244
-0.712406
0.263574
-0.634099
0.18374
-0.520382
0.099998
-0.3359
0.0400488
-0.163701
0.00548666
-0.0685986
-0.0119409
-0.0376204
-0.0224801
-0.0311871
-0.0303729
-0.0273329
-0.0367489
-0.0220593
-0.0414127
-0.0142623
-0.0445085
-0.00456226
-0.0454787
0.0252454
-0.0361734
0.0718758
0.0744521
1.9215
-0.485674
-2.18115
1.64944
-0.565746
1.3115
-0.754511
0.835768
-0.727687
0.525975
-0.619733
0.461928
-0.648359
0.384677
-0.556847
0.224265
-0.35997
0.0837926
-0.195428
0.0139862
-0.0938951
-0.0141427
-0.0404696
-0.0270479
-0.0247152
-0.036038
-0.022197
-0.0436056
-0.0197653
-0.0498818
-0.0157831
-0.0543033
-0.00984078
-0.0569672
-0.0018983
-0.0558539
0.0241321
-0.0431365
0.0591583
0.0582519
1.74232
-0.286257
-1.94173
1.52106
-0.344485
1.17177
-0.405221
0.889482
-0.445403
0.785903
-0.516154
0.560101
-0.422558
0.261226
-0.257972
0.064134
-0.162878
-0.0182885
-0.113006
-0.0364804
-0.0757032
-0.0403606
-0.0365895
-0.0454439
-0.0196319
-0.0522651
-0.0153758
-0.0590973
-0.012933
-0.0648819
-0.00999846
-0.0687658
-0.00595686
-0.0705953
-6.88393e-05
-0.0666575
0.0201943
-0.0503766
0.0428774
0.0399641
1.45761
-0.132538
-1.61133
1.25356
-0.140432
1.01955
-0.171208
0.791321
-0.217175
0.492014
-0.216847
0.162512
-0.0930558
-0.0295054
-0.065955
-0.0458319
-0.146551
-0.0420981
-0.116739
-0.0514712
-0.0663301
-0.0576699
-0.0303908
-0.063296
-0.0140058
-0.0698741
-0.00879761
-0.0761987
-0.00660844
-0.0813379
-0.00485923
-0.0845274
-0.00276732
-0.0851195
0.000523294
-0.0777161
0.0127909
-0.0579245
0.0230858
0.0200698
1.20045
-1.33299
1.06002
0.888809
0.671634
0.454787
0.361732
0.295777
0.149225
0.032486
-0.033844
-0.0642348
-0.0782406
-0.0870382
-0.0936466
-0.0985059
-0.101273
-0.10075
-0.087959
-0.0648731
1.88846
0.014037
-1.85172
1.91754
0.0191523
1.9316
0.0472906
1.94141
0.0356187
1.93458
0.0697522
1.92053
0.0498706
1.87965
0.1024
1.82117
0.0623083
1.71642
0.106263
-0.0146437
2.03273
-0.0154942
-2.0032
2.04939
0.00249271
2.06111
0.0355766
2.05521
0.0415205
2.04389
0.0810657
2.00561
0.0881576
1.96776
0.140248
1.90636
0.123705
1.87236
0.140261
0.0767863
2.16497
-0.0226613
-2.1578
2.16808
-0.000611497
2.16985
0.0338022
2.16206
0.0493121
2.15648
0.0866405
2.14797
0.0966702
2.15676
0.131459
2.162
0.11847
2.17696
0.125301
0.129045
2.09385
-0.0194534
-2.09706
2.09446
-0.00122046
2.10559
0.0226698
2.12025
0.0346519
2.15084
0.0560559
2.18501
0.0624957
2.22913
0.0873439
2.24937
0.0982279
2.24917
0.125507
0.125894
2.06488
-0.0230764
-2.06126
2.07508
-0.0114217
2.09654
0.00120748
2.11996
0.01123
2.14718
0.0288373
2.16251
0.0471655
2.17431
0.0755438
2.17951
0.093027
2.19923
0.105791
0.106563
2.11348
-0.02955
-2.10701
2.12165
-0.0195929
2.13037
-0.00751303
2.13484
0.00676541
2.13895
0.0247267
2.14525
0.0408636
2.16552
0.055273
2.19626
0.0622855
2.23282
0.0692387
0.0785703
1.9871
-0.0277601
-1.98889
1.98652
-0.0190168
1.98865
-0.00964424
1.99615
-0.000732123
2.01327
0.0076038
2.04019
0.0139457
2.07486
0.0205999
2.11028
0.0268711
2.14367
0.0358417
0.0410942
1.80773
-0.0233523
-1.81213
1.80749
-0.018776
1.81218
-0.0143347
1.82163
-0.0101911
1.8352
-0.00596532
1.85091
-0.00175576
1.86845
0.00305197
1.88815
0.00717636
1.91249
0.0114967
0.0118531
1.58042
-0.013165
-1.59061
1.57281
-0.0111608
1.56768
-0.00921329
1.56487
-0.00738104
1.56463
-0.00571648
1.56719
-0.00432302
1.57348
-0.00323131
1.58321
-0.00255652
1.59673
-0.00202723
-0.00274867
1.38135
-1.39451
1.37018
1.36097
1.35359
1.34787
1.34355
1.34032
1.33776
1.33574
1.43951
0.495205
-2.02479
1.53657
-0.195627
1.63934
-0.206922
1.65773
-0.0823037
1.67036
-0.0510438
1.69866
-0.0509872
1.73318
-0.0412618
1.77
-0.0302919
1.80858
-0.0145952
-0.00999349
1.71287
0.338491
-1.55616
1.75905
-0.241802
1.79438
-0.242253
1.83568
-0.123605
1.84979
-0.0651512
1.87127
-0.0724735
1.90309
-0.0730759
1.93717
-0.0643762
1.97215
-0.049571
-0.041047
1.9657
0.337287
-1.9645
2.04345
-0.319553
2.06495
-0.263743
2.07687
-0.135533
2.08741
-0.0756924
2.09702
-0.0820772
2.11248
-0.0885403
2.131
-0.0828972
2.14736
-0.0659276
-0.0514917
2.12842
0.322431
-2.11357
2.12778
-0.31891
2.1247
-0.260665
2.11948
-0.130314
2.11596
-0.0721665
2.11157
-0.0776936
2.10948
-0.0864469
2.10785
-0.0812671
2.10461
-0.0626881
-0.0439431
2.2212
0.31479
-2.21356
2.16463
-0.262342
2.1279
-0.223933
2.12068
-0.123096
2.11309
-0.0645744
2.09855
-0.0631558
2.08468
-0.0725694
2.07341
-0.0700047
2.06612
-0.0553986
-0.0390753
2.3036
0.266473
-2.25528
2.23096
-0.189706
2.1745
-0.167467
2.15458
-0.103183
2.1497
-0.0596862
2.13834
-0.0517954
2.12279
-0.057024
2.11064
-0.0578523
2.10585
-0.0506122
-0.0402329
2.18844
0.182696
-2.10467
2.1161
-0.117363
2.05619
-0.107557
2.0304
-0.0773876
2.02613
-0.0554174
2.02192
-0.0475896
2.01209
-0.0471917
2.00096
-0.0467238
1.99311
-0.0427587
-0.0360132
1.98005
0.111119
-1.90848
1.93004
-0.0673536
1.88823
-0.0657418
1.86693
-0.0560901
1.85841
-0.0468962
1.85187
-0.0410519
1.84247
-0.0377938
1.83097
-0.0352201
1.82021
-0.0320025
-0.0279332
1.777
0.0478266
-1.7137
1.74258
-0.0329405
1.71048
-0.0336443
1.68596
-0.0315642
1.66708
-0.0280186
1.65048
-0.0244527
1.63421
-0.0215259
1.61819
-0.0191999
1.60336
-0.0171663
-0.0151834
1.61821
-1.57038
1.58527
1.55162
1.52006
1.49204
1.46759
1.44606
1.42686
1.40969
0.133811
0.106771
-0.111252
0.173819
0.326586
-0.366595
0.249554
0.688369
-0.764103
0.325874
1.06156
-1.13788
0.410811
1.37311
-1.45804
0.520347
1.70629
-1.81583
0.690813
2.05467
-2.22514
0.881592
2.43573
-2.62651
1.18627
2.49034
-2.79501
2.29936
-3.13788
0.158479
0.101715
0.196133
0.288932
0.285639
0.598862
0.383012
0.964184
0.493515
1.2626
0.619657
1.58015
0.827191
1.84714
1.05409
2.20884
1.31483
2.2296
2.05803
0.188461
0.0930482
0.220999
0.256394
0.326515
0.493346
0.44666
0.844039
0.592521
1.11674
0.758017
1.41465
0.993974
1.61118
1.24981
1.953
1.43158
2.04783
1.5251
0.222166
0.0783678
0.250297
0.228264
0.358955
0.384688
0.510397
0.692597
0.70292
0.924217
0.882476
1.2351
1.13324
1.36041
1.51029
1.57596
1.58271
1.9754
0.994241
0.257933
0.0577447
0.28612
0.200077
0.389305
0.281502
0.535
0.546902
0.769573
0.689644
1.05763
0.947047
1.16785
1.25019
1.71467
1.02914
1.89893
1.79115
0.679608
0.295106
0.0350157
0.338358
0.156825
0.406612
0.213249
0.590889
0.362625
0.680703
0.59983
1.18506
0.442694
1.14785
1.28739
1.62114
0.555853
2.09248
1.31982
0.516803
0.335927
0.0281724
0.407195
0.0855566
0.359595
0.260849
0.584246
0.137974
0.471187
0.712889
0.901083
0.0127971
1.29737
0.891109
1.56428
0.288943
2.30125
0.582842
0.713384
0.403394
0.0515979
0.479332
0.00961796
0.458047
0.282135
0.667682
-0.0716616
0.9528
0.427772
1.00759
-0.0419902
1.51341
0.385284
1.56111
0.241242
1.78635
0.357605
0.59126
0.516618
0.0432515
0.565614
-0.0393778
0.745378
0.102371
0.75294
-0.0792233
1.04779
0.13292
0.978915
0.0268864
1.21726
0.146942
1.30421
0.154291
1.50041
0.1614
0.377968
0.586202
0.546824
0.649195
0.569972
0.702892
0.729778
0.87672
1.03101
1.19241
0.0761492
0.138671
-0.147489
0.0975828
0.491147
-0.512581
0.112732
0.85575
-0.870899
0.122493
1.1351
-1.14486
0.135537
1.41284
-1.42588
0.14762
1.77942
-1.79151
0.152852
2.16553
-2.17077
0.161214
2.51155
-2.51991
0.15786
2.94803
-2.94467
3.48063
-3.41384
0.0748574
0.130897
0.0954814
0.470523
0.110189
0.841042
0.117947
1.12734
0.1283
1.40248
0.137982
1.76974
0.138598
2.16492
0.141793
2.50835
0.149609
2.94021
3.53041
0.0736859
0.124269
0.093108
0.451101
0.107204
0.826946
0.112796
1.12175
0.119844
1.39543
0.12748
1.76211
0.122194
2.1702
0.119458
2.51109