/*--------------------------------*- C++ -*----------------------------------*\
  =========                 |
  \\      /  F ield         | OpenFOAM: The Open Source CFD Toolbox
   \\    /   O peration     | Website:  https://openfoam.org
    \\  /    A nd           | Version:  6.0
     \\/     M anipulation  |
\*---------------------------------------------------------------------------*/
FoamFile
{
    version     2.0;
    format      ascii;
    class       volScalarField;
    location    "12.005";
    object      p;
}
// * * * * * * * * * * * * * * * * * * * * * * * * * * * * * * * * * * * * * //

dimensions      [0 2 -2 0 0 0 0];

internalField   nonuniform List<scalar> 
2400
(
-0.409816
-0.396583
-0.388364
-0.381765
-0.37527
-0.36889
-0.362706
-0.356686
-0.350908
-0.346455
-0.424098
-0.409908
-0.40067
-0.392916
-0.385189
-0.377587
-0.370253
-0.363159
-0.356381
-0.351435
-0.442324
-0.426577
-0.415837
-0.406514
-0.397172
-0.387993
-0.379173
-0.370674
-0.362564
-0.357016
-0.464732
-0.446822
-0.434075
-0.42275
-0.411391
-0.400258
-0.389594
-0.379319
-0.36949
-0.363179
-0.491618
-0.470872
-0.455583
-0.441808
-0.428028
-0.414563
-0.401678
-0.38922
-0.377212
-0.369888
-0.523258
-0.49894
-0.480552
-0.463887
-0.447301
-0.431145
-0.415674
-0.400603
-0.385862
-0.377124
-0.559875
-0.531193
-0.509151
-0.489189
-0.46946
-0.450312
-0.431955
-0.413892
-0.395803
-0.38499
-0.601585
-0.567721
-0.541498
-0.517882
-0.494727
-0.472337
-0.450833
-0.429391
-0.407089
-0.392924
-0.648309
-0.608485
-0.57764
-0.550124
-0.523368
-0.497551
-0.472541
-0.446803
-0.418071
-0.397383
-0.699504
-0.653195
-0.617503
-0.586101
-0.556016
-0.527369
-0.499737
-0.470743
-0.436473
-0.40739
-1.16929
-1.15306
-1.12422
-1.08513
-1.03801
-0.985063
-0.928383
-0.869857
-0.81114
-0.753778
-1.07254
-1.05802
-1.03204
-0.996752
-0.954274
-0.906682
-0.85593
-0.803775
-0.751747
-0.70117
-0.98944
-0.97868
-0.956936
-0.926195
-0.888488
-0.845828
-0.800113
-0.753059
-0.706156
-0.660637
-0.911281
-0.905449
-0.888895
-0.863398
-0.830852
-0.793173
-0.752208
-0.70965
-0.667001
-0.625491
-0.834859
-0.834204
-0.823193
-0.803339
-0.776324
-0.743894
-0.707769
-0.669564
-0.630775
-0.59263
-0.762456
-0.766614
-0.76096
-0.746728
-0.72534
-0.698308
-0.667131
-0.633232
-0.597999
-0.562578
-0.695551
-0.703807
-0.702956
-0.693986
-0.678069
-0.656453
-0.630344
-0.60082
-0.568975
-0.535671
-0.6346
-0.646177
-0.649445
-0.64522
-0.634481
-0.618257
-0.597454
-0.572652
-0.544252
-0.512062
-0.57943
-0.593682
-0.600487
-0.600571
-0.594835
-0.584213
-0.569457
-0.550684
-0.527061
-0.494899
-0.530017
-0.545576
-0.554669
-0.557998
-0.556484
-0.551162
-0.542995
-0.532378
-0.518474
-0.494669
-0.451
-0.585977
-0.711431
-0.82513
-0.924802
-1.00864
-1.07543
-1.12454
-1.15594
-1.17034
-0.401875
-0.527678
-0.64481
-0.750971
-0.844027
-0.922296
-0.984642
-1.03051
-1.05992
-1.0735
-0.335668
-0.454102
-0.56521
-0.666661
-0.756356
-0.832608
-0.894223
-0.940541
-0.971452
-0.987394
-0.266795
-0.377776
-0.482931
-0.579963
-0.666807
-0.741775
-0.803606
-0.851507
-0.885184
-0.904843
-0.203841
-0.306916
-0.405587
-0.497585
-0.580911
-0.65394
-0.715407
-0.764442
-0.80061
-0.823907
-0.150108
-0.245424
-0.337551
-0.42418
-0.503425
-0.573793
-0.634081
-0.683411
-0.721273
-0.747522
-0.105633
-0.193783
-0.27978
-0.361072
-0.435977
-0.503202
-0.561642
-0.610464
-0.649143
-0.677458
-0.0687011
-0.149955
-0.230473
-0.306833
-0.377546
-0.441547
-0.497844
-0.545667
-0.584515
-0.614142
-0.0381523
-0.11233
-0.187942
-0.2599
-0.32677
-0.387674
-0.441735
-0.488278
-0.526856
-0.557235
-0.02132
-0.0907791
-0.161582
-0.228314
-0.290259
-0.34683
-0.397278
-0.441075
-0.477886
-0.507529
0.524234
0.545235
0.567665
0.590661
0.613741
0.636243
0.65719
0.675993
0.698031
0.737063
0.497469
0.515711
0.535653
0.555746
0.575312
0.593621
0.609619
0.622745
0.638731
0.672524
0.463215
0.477727
0.494365
0.510636
0.525614
0.538528
0.548294
0.554484
0.563253
0.590608
0.421776
0.431696
0.444297
0.4559
0.465303
0.471726
0.474102
0.472233
0.472749
0.492541
0.373543
0.378167
0.386119
0.392311
0.395274
0.394257
0.38826
0.377409
0.36884
0.38012
0.318987
0.317814
0.320666
0.320842
0.316658
0.307439
0.292308
0.271799
0.253554
0.255564
0.258667
0.251444
0.248944
0.242664
0.23081
0.212851
0.188082
0.157517
0.129272
0.12146
0.19332
0.180067
0.172182
0.159167
0.139309
0.11231
0.0776778
0.0369595
-0.00132658
-0.01929
0.123754
0.105218
0.0921202
0.0720926
0.0440071
0.00787555
-0.0365795
-0.0872478
-0.135335
-0.163551
0.0484525
0.0275259
0.0096828
-0.0173317
-0.0533851
-0.0983536
-0.152259
-0.212359
-0.269772
-0.308258
0.379026
0.382448
0.392923
0.401204
0.407696
0.414125
0.422089
0.433955
0.452578
0.475029
0.427526
0.432236
0.443939
0.455289
0.465667
0.47625
0.488292
0.503836
0.526364
0.55517
0.466444
0.474886
0.489117
0.50391
0.51833
0.53311
0.549199
0.568306
0.594382
0.628824
0.49852
0.511017
0.528105
0.546184
0.564366
0.583069
0.602928
0.625271
0.654372
0.693567
0.524005
0.540189
0.559973
0.580979
0.602463
0.624599
0.647711
0.672733
0.704149
0.747094
0.542622
0.561889
0.583947
0.607339
0.631481
0.656345
0.681964
0.708883
0.741723
0.7873
0.554101
0.575675
0.599401
0.624478
0.650463
0.677159
0.704327
0.732155
0.765369
0.812356
0.558173
0.581145
0.605809
0.631754
0.658635
0.686106
0.713691
0.741269
0.773672
0.820776
0.554619
0.57799
0.602779
0.628695
0.655423
0.682496
0.70923
0.735269
0.765586
0.811475
0.543311
0.566029
0.590078
0.615016
0.640485
0.66591
0.690442
0.713565
0.740449
0.783732
0.334078
0.289378
0.238321
0.186703
0.135553
0.0856319
0.0377708
-0.00750821
-0.0498826
-0.0891495
0.338641
0.291127
0.238277
0.183873
0.129935
0.077519
0.0274637
-0.0195991
-0.0632382
-0.103192
0.342261
0.289042
0.232611
0.175403
0.119137
0.0648653
0.0134664
-0.0343704
-0.0781802
-0.117704
0.344961
0.286704
0.226643
0.166533
0.107893
0.0518416
-0.000704629
-0.0490491
-0.0927487
-0.131601
0.346819
0.284163
0.220561
0.157564
0.0966473
0.0389893
-0.0144811
-0.0631013
-0.106492
-0.144548
0.348805
0.281979
0.214914
0.149151
0.086154
0.0271091
-0.0270875
-0.0758455
-0.118884
-0.156224
0.35257
0.281877
0.211548
0.143179
0.0782223
0.0178335
-0.0371559
-0.0862492
-0.129274
-0.166371
0.360649
0.286434
0.212993
0.141977
0.074836
0.0126911
-0.043686
-0.0938708
-0.137764
-0.175583
0.37511
0.296702
0.219176
0.144264
0.0734538
0.00789253
-0.0516289
-0.104673
-0.15113
-0.191211
0.390947
0.305408
0.220684
0.138668
0.0609737
-0.0110969
-0.0765973
-0.134958
-0.185987
-0.229815
-0.125272
-0.158308
-0.188495
-0.216171
-0.241728
-0.265568
-0.287977
-0.308954
-0.329002
-0.33892
-0.139411
-0.171926
-0.200983
-0.226918
-0.250109
-0.270914
-0.289515
-0.305729
-0.319199
-0.323229
-0.15294
-0.183948
-0.211056
-0.234681
-0.255288
-0.273321
-0.289076
-0.302606
-0.31386
-0.31953
-0.165704
-0.195193
-0.220523
-0.242227
-0.260876
-0.277023
-0.291094
-0.30333
-0.313764
-0.320541
-0.177505
-0.20559
-0.229398
-0.249574
-0.266782
-0.281649
-0.294677
-0.30617
-0.316121
-0.32338
-0.18825
-0.215266
-0.237994
-0.257158
-0.273468
-0.287576
-0.299989
-0.311002
-0.320573
-0.328005
-0.198057
-0.224669
-0.24701
-0.265834
-0.281847
-0.295673
-0.307781
-0.318423
-0.327556
-0.334782
-0.207917
-0.235081
-0.257906
-0.277128
-0.293414
-0.307336
-0.319311
-0.329556
-0.338062
-0.344644
-0.225464
-0.254226
-0.278298
-0.298394
-0.315167
-0.32916
-0.34076
-0.350179
-0.357471
-0.362598
-0.266727
-0.297461
-0.322681
-0.343172
-0.359674
-0.372783
-0.382903
-0.390262
-0.39499
-0.397119
-0.396486
-0.365676
-0.349331
-0.339918
-0.332735
-0.326517
-0.320141
-0.311097
-0.295561
-0.281708
-0.394725
-0.367246
-0.352513
-0.34377
-0.33679
-0.330465
-0.323988
-0.315688
-0.303468
-0.295362
-0.39214
-0.36782
-0.35469
-0.346747
-0.340275
-0.334375
-0.328485
-0.321605
-0.312938
-0.308683
-0.389315
-0.367898
-0.356282
-0.349137
-0.343219
-0.337792
-0.332437
-0.32649
-0.319653
-0.31654
-0.386874
-0.368007
-0.357745
-0.351332
-0.345935
-0.340963
-0.336112
-0.330934
-0.325305
-0.322478
-0.385391
-0.368664
-0.359538
-0.353718
-0.348726
-0.344092
-0.339595
-0.334931
-0.330056
-0.32719
-0.385404
-0.370366
-0.362105
-0.356683
-0.351911
-0.347425
-0.34307
-0.338641
-0.334141
-0.331074
-0.387437
-0.373591
-0.36588
-0.360613
-0.355832
-0.351269
-0.346829
-0.342378
-0.337949
-0.334603
-0.391986
-0.378785
-0.371268
-0.365877
-0.360827
-0.35594
-0.351179
-0.346459
-0.341839
-0.338169
-0.39942
-0.386335
-0.378642
-0.372819
-0.36721
-0.361728
-0.356394
-0.351158
-0.346093
-0.342058
-0.338251
-0.285669
-0.253506
-0.209377
-0.173743
-0.140274
-0.113415
-0.0918131
-0.075667
-0.0637811
-0.0550903
-0.0479294
-0.0406476
-0.0321115
-0.0229475
-0.0147242
-0.00888035
-0.00446286
-0.00232969
0.00189467
-0.345077
-0.288531
-0.255956
-0.210827
-0.174119
-0.139686
-0.112084
-0.0902276
-0.0744188
-0.0633951
-0.0557556
-0.0493564
-0.0422423
-0.0333399
-0.023601
-0.0148561
-0.00873045
-0.00423383
-0.00219208
0.0019226
-0.353725
-0.291971
-0.258912
-0.212813
-0.175008
-0.139642
-0.111268
-0.0890919
-0.0735119
-0.0632261
-0.0565163
-0.0507816
-0.0437845
-0.034523
-0.0242511
-0.0150236
-0.00862726
-0.00404134
-0.00207316
0.00193762
-0.364016
-0.295989
-0.26229
-0.215315
-0.176428
-0.140184
-0.111022
-0.0884559
-0.0729785
-0.0632789
-0.0573534
-0.0521775
-0.0452535
-0.035651
-0.0248944
-0.0152261
-0.00857146
-0.00388699
-0.00197392
0.00193975
-0.375686
-0.300632
-0.266001
-0.218306
-0.17838
-0.141327
-0.111373
-0.0883467
-0.0728343
-0.0635505
-0.0582487
-0.0535234
-0.0466366
-0.0367197
-0.0255299
-0.0154621
-0.0085612
-0.00377006
-0.0018937
0.0019293
-0.38834
-0.305981
-0.269958
-0.221727
-0.180834
-0.143053
-0.112314
-0.0887631
-0.0730764
-0.0640294
-0.0591833
-0.0548017
-0.0479243
-0.0377263
-0.0261558
-0.0157291
-0.00859431
-0.00368993
-0.00183213
0.00190654
-0.401589
-0.312358
-0.274237
-0.225603
-0.183821
-0.145384
-0.113867
-0.0897172
-0.0737065
-0.0647033
-0.0601351
-0.0559908
-0.0491046
-0.0386684
-0.0267742
-0.0160287
-0.00867148
-0.00364714
-0.00178944
0.00187186
-0.415186
-0.32073
-0.279442
-0.230339
-0.18767
-0.14858
-0.11623
-0.0913475
-0.0748041
-0.0655983
-0.0610927
-0.0570676
-0.0501647
-0.0395496
-0.0273976
-0.016374
-0.00880292
-0.003648
-0.00176905
0.00182513
-0.426651
-0.331296
-0.285941
-0.236171
-0.192533
-0.152739
-0.119471
-0.0937052
-0.0764191
-0.0667694
-0.062116
-0.0580918
-0.051156
-0.0404028
-0.0280372
-0.0167611
-0.00898085
-0.00368709
-0.00176803
0.00176727
-0.42495
-0.338129
-0.290387
-0.240331
-0.195992
-0.155791
-0.121923
-0.0955849
-0.077839
-0.0679716
-0.063308
-0.0593129
-0.052275
-0.0412739
-0.0286118
-0.0170577
-0.00908002
-0.00368334
-0.00174138
0.00170694
-0.399516
-0.335998
-0.289948
-0.240645
-0.196143
-0.156018
-0.12204
-0.0956748
-0.0781247
-0.0688091
-0.0648588
-0.0613033
-0.0541266
-0.0425531
-0.0292552
-0.0172146
-0.00895563
-0.00350442
-0.00160089
0.00163022
-0.382162
-0.329465
-0.284065
-0.23731
-0.194719
-0.156369
-0.123551
-0.0978536
-0.0805009
-0.0710436
-0.0667236
-0.0627099
-0.0550867
-0.043179
-0.0296849
-0.0175251
-0.0091433
-0.00361043
-0.00162253
0.00145692
-0.361454
-0.316253
-0.272697
-0.230408
-0.191528
-0.156095
-0.125261
-0.100699
-0.0836377
-0.07376
-0.0685817
-0.0637047
-0.0555203
-0.0434217
-0.0299595
-0.0178711
-0.0094548
-0.00385229
-0.00172231
0.00122447
-0.330069
-0.295653
-0.257077
-0.220783
-0.187014
-0.155416
-0.127161
-0.104024
-0.0872743
-0.0767763
-0.0704446
-0.0644768
-0.0556744
-0.0434751
-0.0301777
-0.0182678
-0.009858
-0.00419806
-0.00187682
0.000932552
-0.289669
-0.268453
-0.238155
-0.208808
-0.180987
-0.154018
-0.128938
-0.10755
-0.0911879
-0.0799391
-0.0722221
-0.0649761
-0.0555233
-0.0433339
-0.0303523
-0.0187376
-0.0103785
-0.00467048
-0.00210258
0.000580136
-0.246904
-0.237562
-0.217175
-0.195228
-0.173498
-0.151521
-0.130051
-0.110736
-0.0949378
-0.0829796
-0.0738308
-0.0652477
-0.0551559
-0.043072
-0.0305258
-0.0192976
-0.0110226
-0.00526924
-0.0024049
0.000181091
-0.207902
-0.206855
-0.195792
-0.1811
-0.165085
-0.147897
-0.13011
-0.113069
-0.0980626
-0.085624
-0.0752421
-0.0654494
-0.054781
-0.0428385
-0.0307595
-0.0199448
-0.0117632
-0.00595962
-0.00276958
-0.00023423
-0.176036
-0.179821
-0.175993
-0.167644
-0.156621
-0.143578
-0.129128
-0.114322
-0.100286
-0.0876868
-0.07644
-0.0657158
-0.0545793
-0.0427538
-0.0310794
-0.0206348
-0.0125337
-0.00667322
-0.00316199
-0.000623093
-0.152981
-0.159159
-0.160041
-0.156424
-0.149286
-0.139428
-0.127594
-0.114664
-0.101592
-0.0890895
-0.0773666
-0.0660467
-0.0545851
-0.042829
-0.0314379
-0.0212681
-0.0132222
-0.00730639
-0.00352219
-0.000936625
-0.140071
-0.147196
-0.150446
-0.14948
-0.144636
-0.136655
-0.126361
-0.114584
-0.102167
-0.0898203
-0.0779083
-0.0663035
-0.054676
-0.0429535
-0.03171
-0.021692
-0.0136717
-0.00771854
-0.00376096
-0.00112344
-0.460067
-0.472992
-0.480583
-0.483363
-0.482188
-0.478354
-0.473729
-0.470937
-0.475009
-0.497855
-0.379999
-0.393601
-0.404251
-0.412457
-0.418911
-0.424451
-0.429973
-0.436203
-0.443245
-0.456607
-0.314376
-0.327524
-0.339134
-0.349401
-0.358476
-0.366445
-0.373339
-0.379299
-0.384359
-0.394224
-0.258622
-0.270241
-0.280806
-0.290364
-0.298974
-0.306735
-0.313823
-0.320554
-0.326979
-0.335557
-0.212147
-0.222175
-0.231519
-0.240217
-0.248321
-0.25589
-0.262978
-0.269636
-0.275799
-0.28219
-0.174405
-0.182966
-0.191048
-0.198658
-0.205807
-0.212503
-0.218759
-0.224596
-0.23003
-0.235167
-0.144493
-0.151736
-0.158615
-0.165125
-0.171266
-0.177039
-0.182451
-0.187509
-0.192219
-0.196538
-0.121873
-0.128051
-0.133937
-0.139522
-0.144798
-0.149761
-0.154409
-0.158744
-0.162766
-0.166451
-0.106134
-0.111527
-0.116674
-0.121563
-0.126185
-0.130533
-0.134603
-0.138395
-0.141908
-0.14514
-0.097584
-0.102485
-0.107167
-0.11162
-0.115838
-0.119816
-0.123549
-0.127038
-0.130281
-0.133282
-0.033217
-0.0975616
-0.160464
-0.215372
-0.265402
-0.311152
-0.351949
-0.387388
-0.41729
-0.441532
-0.0508288
-0.100619
-0.148316
-0.188954
-0.225746
-0.259973
-0.291111
-0.318716
-0.342702
-0.363101
-0.0617153
-0.101502
-0.136695
-0.166576
-0.193763
-0.219203
-0.242622
-0.263767
-0.282673
-0.299489
-0.0664808
-0.0973324
-0.122227
-0.143461
-0.163434
-0.182507
-0.200364
-0.216848
-0.231995
-0.245895
-0.0656723
-0.0885127
-0.106051
-0.121288
-0.136179
-0.150753
-0.164633
-0.177682
-0.189924
-0.201405
-0.0606951
-0.0771503
-0.0899204
-0.101401
-0.112885
-0.124296
-0.135315
-0.145825
-0.155835
-0.165361
-0.0541436
-0.0660737
-0.0758256
-0.0849138
-0.0940645
-0.103197
-0.112102
-0.120692
-0.128958
-0.136896
-0.0478737
-0.056826
-0.0646506
-0.0721515
-0.079689
-0.0872072
-0.0945833
-0.101757
-0.108708
-0.115419
-0.0429085
-0.0500635
-0.0567124
-0.0631968
-0.0696762
-0.0761197
-0.0824596
-0.0886536
-0.0946775
-0.100511
-0.039979
-0.0463305
-0.0524654
-0.058473
-0.0644213
-0.070299
-0.0760694
-0.0817027
-0.0871777
-0.0924769
0.201287
0.202241
0.204631
0.207884
0.212314
0.215549
0.217924
0.207951
0.183969
0.0786261
0.19293
0.193437
0.194769
0.196285
0.197882
0.197053
0.192974
0.174706
0.137684
0.038762
0.182969
0.183007
0.183201
0.182856
0.181548
0.176815
0.167157
0.1437
0.101897
0.0199511
0.171278
0.170803
0.169779
0.167508
0.163314
0.155062
0.140823
0.114775
0.071952
0.00344036
0.157913
0.15692
0.154706
0.150622
0.143861
0.132806
0.115422
0.0885918
0.0472919
-0.0103987
0.14319
0.141728
0.138473
0.132871
0.124134
0.111192
0.0922588
0.066015
0.0284838
-0.0192063
0.127796
0.125961
0.121921
0.115237
0.105269
0.0914008
0.0723601
0.0477921
0.0152839
-0.0234229
0.112896
0.110817
0.106307
0.0990318
0.0885668
0.0746146
0.05647
0.03419
0.00666183
-0.0247237
0.100227
0.0980348
0.0933417
0.0858979
0.0754695
0.0619609
0.0450916
0.0250483
0.00149366
-0.0246179
0.0922256
0.0900036
0.0852934
0.0778931
0.0676808
0.0546597
0.0387678
0.0202161
-0.000993517
-0.024169
0.237251
0.23933
0.244931
0.253656
0.267303
0.285426
0.312535
0.347493
0.400022
0.467325
0.234701
0.236706
0.242115
0.250512
0.26366
0.280969
0.306853
0.339709
0.388608
0.449815
0.231919
0.233847
0.239044
0.247074
0.259656
0.276013
0.30046
0.330677
0.37507
0.428033
0.228919
0.230766
0.235734
0.243363
0.255315
0.270593
0.2934
0.320452
0.35955
0.402089
0.225713
0.227479
0.232203
0.239401
0.250661
0.264743
0.285719
0.309097
0.342216
0.372082
0.222317
0.224003
0.22847
0.235212
0.245722
0.258505
0.277461
0.296689
0.323249
0.33808
0.218748
0.22036
0.224565
0.230835
0.240545
0.251951
0.268707
0.283367
0.302875
0.300166
0.215025
0.216581
0.220532
0.226337
0.235231
0.245234
0.259651
0.269413
0.28141
0.258341
0.211162
0.212673
0.216378
0.221722
0.229772
0.238349
0.250259
0.254822
0.258638
0.21148
0.207147
0.208544
0.211875
0.216582
0.223493
0.2303
0.239044
0.237964
0.232163
0.157895
0.249026
0.251476
0.257606
0.267315
0.281899
0.300857
0.327351
0.356106
0.394115
0.404422
0.248949
0.25141
0.257655
0.267524
0.282487
0.302072
0.330033
0.36167
0.405663
0.432336
0.248637
0.251073
0.257325
0.26718
0.282211
0.301976
0.330586
0.364089
0.412086
0.452286
0.248093
0.250502
0.25675
0.266584
0.281663
0.30159
0.330741
0.365921
0.417364
0.46842
0.247306
0.249688
0.25592
0.265719
0.280815
0.300864
0.330426
0.367012
0.421274
0.480891
0.246269
0.248618
0.254811
0.264538
0.279583
0.299647
0.329397
0.366958
0.423235
0.489312
0.244977
0.247287
0.253413
0.263027
0.277942
0.297894
0.327589
0.365649
0.423072
0.49356
0.243427
0.24569
0.251724
0.26118
0.275891
0.295597
0.325001
0.363064
0.42072
0.493557
0.241621
0.24383
0.249744
0.259
0.27343
0.292752
0.321627
0.359183
0.41611
0.489214
0.239561
0.241708
0.247477
0.256489
0.270564
0.289359
0.317467
0.353992
0.409208
0.480472
0.204134
0.202725
0.199725
0.194949
0.188181
0.1792
0.1677
0.153494
0.136244
0.116095
0.209092
0.207879
0.205262
0.201011
0.194827
0.18637
0.175166
0.16087
0.142876
0.121236
0.216507
0.215643
0.213737
0.210502
0.205523
0.198258
0.18796
0.173922
0.155049
0.131086
0.224508
0.22412
0.223216
0.221469
0.218375
0.213142
0.204727
0.191787
0.17257
0.14597
0.231892
0.232057
0.23236
0.232468
0.231872
0.229528
0.224213
0.213629
0.195367
0.16637
0.238016
0.23875
0.240344
0.242501
0.244818
0.24607
0.245081
0.238347
0.223115
0.192639
0.242656
0.243922
0.246774
0.250983
0.256368
0.261649
0.265991
0.264602
0.254929
0.224519
0.24586
0.247586
0.251576
0.257682
0.266033
0.275455
0.285739
0.291044
0.289363
0.260339
0.247822
0.249913
0.254862
0.262594
0.273587
0.286917
0.30322
0.316332
0.324966
0.298367
0.248802
0.251141
0.256826
0.265803
0.278947
0.295613
0.317567
0.339113
0.361761
0.345053
0.101524
0.095385
0.0890881
0.0827408
0.0763271
0.0698368
0.0632858
0.0566994
0.0501012
0.0435124
0.105112
0.098269
0.0912412
0.0842237
0.0771435
0.0699526
0.0626672
0.0553243
0.047957
0.0405929
0.112315
0.103966
0.0952981
0.0868445
0.0784357
0.0699172
0.0612858
0.0525957
0.0438922
0.0352058
0.123699
0.113021
0.101703
0.0910008
0.0805907
0.0701019
0.0594837
0.0488176
0.0381689
0.0275679
0.140041
0.126141
0.110951
0.0970477
0.0838816
0.0707048
0.0573805
0.0440392
0.0307764
0.0176163
0.162257
0.144205
0.123666
0.10542
0.0886238
0.0719289
0.0550772
0.0382858
0.0216906
0.00529682
0.19126
0.168261
0.140691
0.116783
0.0952979
0.0740398
0.0526597
0.0315232
0.010798
-0.00955084
0.227071
0.198464
0.16226
0.131496
0.104118
0.0770069
0.0499579
0.0235287
-0.00213319
-0.0271229
0.269583
0.234342
0.188841
0.150575
0.115811
0.0812583
0.0472521
0.0144636
-0.0169642
-0.0470478
0.317262
0.27351
0.220096
0.173065
0.128323
0.0844268
0.0422099
0.00219588
-0.0354079
-0.0704239
0.036953
0.030442
0.0239975
0.0176363
0.0113737
0.0052235
-0.000801844
-0.00669126
-0.012435
-0.0180234
0.0332575
0.0259762
0.0187733
0.0116718
0.00469262
-0.00214534
-0.00882512
-0.0153323
-0.0216544
-0.0277566
0.0265623
0.0179871
0.00950515
0.0011401
-0.00708702
-0.0151573
-0.0230537
-0.0307625
-0.038273
-0.0454959
0.0170342
0.0065884
-0.00374769
-0.013954
-0.0240134
-0.0339115
-0.0436358
-0.0531762
-0.0625321
-0.0715675
0.00456286
-0.00837541
-0.0211856
-0.0338559
-0.0463773
-0.0587435
-0.0709528
-0.0830092
-0.0949459
-0.106801
-0.0109188
-0.026968
-0.0428581
-0.0586027
-0.0742235
-0.0897456
-0.105192
-0.120567
-0.135936
-0.15199
-0.0295794
-0.0493154
-0.0687763
-0.0879879
-0.106998
-0.125888
-0.144785
-0.163803
-0.183321
-0.204944
-0.0515421
-0.0754682
-0.0989721
-0.122109
-0.144905
-0.167373
-0.189549
-0.211525
-0.234583
-0.260864
-0.0758169
-0.103352
-0.129835
-0.155545
-0.180829
-0.20607
-0.231609
-0.257775
-0.286806
-0.317767
-0.102727
-0.132295
-0.159304
-0.184161
-0.207538
-0.230376
-0.253766
-0.27918
-0.312253
-0.354951
-0.0312948
-0.0503054
-0.0669056
-0.0799765
-0.088759
-0.0929565
-0.09266
-0.0882562
-0.0803765
-0.0699426
-0.0581501
-0.046431
-0.0361541
-0.0284558
-0.0233574
-0.0198706
-0.0158142
-0.0109142
-0.00526638
-0.00192486
-0.0426008
-0.0624044
-0.0784788
-0.0902636
-0.0974096
-0.0998515
-0.0978317
-0.0918192
-0.0824705
-0.0707274
-0.0578325
-0.0453143
-0.034682
-0.0271877
-0.0226938
-0.0198368
-0.0160964
-0.0111738
-0.00540703
-0.00183415
-0.0631302
-0.0838048
-0.0984392
-0.107631
-0.111722
-0.111073
-0.106172
-0.097552
-0.0858416
-0.0719793
-0.0572727
-0.0434168
-0.0321816
-0.0250304
-0.0215514
-0.0197394
-0.0165305
-0.0115617
-0.00565782
-0.00163456
-0.0922297
-0.112872
-0.124715
-0.129766
-0.129347
-0.124538
-0.11605
-0.104315
-0.0898233
-0.0734572
-0.0565859
-0.0411246
-0.0291792
-0.0224434
-0.0201292
-0.0194901
-0.0168819
-0.0118808
-0.00591018
-0.00133149
-0.128338
-0.147238
-0.154931
-0.154097
-0.147797
-0.138178
-0.125888
-0.111019
-0.0938074
-0.0750004
-0.0560107
-0.0389935
-0.0263799
-0.020005
-0.0186665
-0.0189902
-0.0169077
-0.0119403
-0.00604847
-0.000953566
-0.167517
-0.183116
-0.18573
-0.17734
-0.164397
-0.149969
-0.134175
-0.11662
-0.097191
-0.0764227
-0.0557406
-0.0375101
-0.0243926
-0.0182161
-0.0174155
-0.0182568
-0.0165206
-0.01167
-0.00601624
-0.000543946
-0.203799
-0.216214
-0.213144
-0.196316
-0.17712
-0.158522
-0.139902
-0.120402
-0.0995162
-0.0775139
-0.0558006
-0.0368769
-0.0234983
-0.0173388
-0.0165807
-0.0174321
-0.0158121
-0.0111276
-0.00582513
-0.00014345
-0.233241
-0.243745
-0.23435
-0.209678
-0.185563
-0.163685
-0.143019
-0.122319
-0.100699
-0.0781698
-0.0560877
-0.0369961
-0.0236096
-0.0173394
-0.016234
-0.0166829
-0.0149622
-0.0104385
-0.00552921
0.00021952
-0.258525
-0.265211
-0.248868
-0.218166
-0.190587
-0.166207
-0.144146
-0.122775
-0.100924
-0.0783831
-0.0564389
-0.0375917
-0.0244067
-0.0179719
-0.0162975
-0.0160971
-0.0141235
-0.00972145
-0.00519053
0.000530537
-0.287137
-0.280458
-0.256992
-0.222352
-0.192531
-0.166276
-0.143261
-0.121548
-0.0998621
-0.0778167
-0.0565833
-0.0384891
-0.0257995
-0.0191955
-0.0167357
-0.0156305
-0.0132643
-0.00896159
-0.00481766
0.000793542
-0.316412
-0.285484
-0.258305
-0.222314
-0.191567
-0.164052
-0.140255
-0.118314
-0.0971357
-0.0762122
-0.0564858
-0.0398671
-0.0280591
-0.0212213
-0.0176216
-0.0152429
-0.0123227
-0.00812813
-0.00441219
0.000988355
-0.330347
-0.286368
-0.257252
-0.220011
-0.188918
-0.161004
-0.137162
-0.115394
-0.0947066
-0.07455
-0.0557853
-0.0401019
-0.0288987
-0.0220678
-0.0179854
-0.0150144
-0.011816
-0.00765923
-0.0041609
0.00111965
-0.334093
-0.284928
-0.255105
-0.216913
-0.185802
-0.157769
-0.134048
-0.112503
-0.0922719
-0.0728033
-0.0549241
-0.0401326
-0.0295406
-0.0227889
-0.0183368
-0.0148712
-0.0114153
-0.00725966
-0.003931
0.00124396
-0.333789
-0.283267
-0.253254
-0.214339
-0.183144
-0.154856
-0.131119
-0.109729
-0.0899646
-0.0712492
-0.0543269
-0.040457
-0.0304379
-0.0236791
-0.0187724
-0.0147586
-0.011024
-0.00686258
-0.00370342
0.00136072
-0.332384
-0.281978
-0.251775
-0.212217
-0.180805
-0.152097
-0.12821
-0.106927
-0.0876734
-0.069815
-0.0539562
-0.0410559
-0.0315729
-0.0247171
-0.0192728
-0.0146633
-0.0106339
-0.0064639
-0.00347736
0.00146911
-0.330719
-0.281104
-0.250647
-0.21047
-0.178709
-0.149454
-0.12531
-0.104097
-0.0853874
-0.0684678
-0.0537547
-0.0418546
-0.0328699
-0.0258496
-0.0198186
-0.0145923
-0.0102602
-0.00607472
-0.00325706
0.00156811
-0.329433
-0.280724
-0.249977
-0.209167
-0.176913
-0.14699
-0.122486
-0.101302
-0.0831499
-0.0672265
-0.0537152
-0.0428242
-0.0342925
-0.02705
-0.0204012
-0.0145512
-0.00991248
-0.00570211
-0.0030456
0.0016568
-0.329154
-0.280946
-0.24988
-0.208379
-0.175478
-0.144777
-0.11981
-0.0986046
-0.0810086
-0.0661163
-0.053838
-0.0439456
-0.0358142
-0.0282985
-0.0210136
-0.0145425
-0.00959598
-0.00535034
-0.00284505
0.00173447
-0.330359
-0.28184
-0.250428
-0.208145
-0.174449
-0.142878
-0.117355
-0.0960749
-0.0790129
-0.0651587
-0.0541162
-0.0451914
-0.0374025
-0.0295723
-0.0216472
-0.0145678
-0.00931599
-0.00502422
-0.00265784
0.0018003
-0.333345
-0.283423
-0.251644
-0.208479
-0.173861
-0.141357
-0.115197
-0.0937858
-0.0772145
-0.064374
-0.0545385
-0.0465305
-0.0390248
-0.0308502
-0.0222943
-0.0146281
-0.00907622
-0.00472711
-0.00248534
0.00185386
)
;

boundaryField
{
    inlet
    {
        type            freestreamPressure;
        freestreamValue uniform 0;
        supersonic      false;
        value           nonuniform List<scalar> 
40
(
0.201287
0.19293
0.182969
0.171278
0.157913
0.14319
0.127796
0.112896
0.100227
0.0922256
0.237251
0.234701
0.231919
0.228919
0.225713
0.222317
0.218748
0.215025
0.211162
0.207147
0.249026
0.248949
0.248637
0.248093
0.247306
0.246269
0.244977
0.243427
0.241621
0.239561
0.204134
0.209092
0.216507
0.224508
0.231892
0.238016
0.242656
0.24586
0.247822
0.248802
)
;
    }
    outlet
    {
        type            freestreamPressure;
        freestreamValue uniform 0;
        supersonic      false;
        value           nonuniform List<scalar> 
40
(
2.32264e-10
3.40211e-09
8.27033e-09
1.14042e-08
9.8123e-09
3.41831e-09
-3.98374e-09
-7.34894e-09
-5.01467e-09
-7.69065e-10
1.64496e-07
1.29795e-07
9.84959e-08
7.1396e-08
4.89489e-08
3.12399e-08
1.80603e-08
8.96781e-09
3.37907e-09
6.3466e-10
3.50314e-07
3.68162e-07
3.75116e-07
3.71638e-07
3.5855e-07
3.3705e-07
3.08705e-07
2.75359e-07
2.3894e-07
2.01383e-07
-2.02165e-08
-1.55461e-07
-3.23409e-07
-4.17315e-07
-3.84815e-07
-2.47719e-07
-6.745e-08
1.00307e-07
2.26203e-07
3.07707e-07
)
;
    }
    top
    {
        type            symmetryPlane;
    }
    bottom
    {
        type            symmetryPlane;
    }
    cylinder
    {
        type            zeroGradient;
    }
    frontandback
    {
        type            empty;
    }
}


// ************************************************************************* //
