/*--------------------------------*- C++ -*----------------------------------*\
  =========                 |
  \\      /  F ield         | OpenFOAM: The Open Source CFD Toolbox
   \\    /   O peration     | Website:  https://openfoam.org
    \\  /    A nd           | Version:  6.0
     \\/     M anipulation  |
\*---------------------------------------------------------------------------*/
FoamFile
{
    version     2.0;
    format      ascii;
    class       volScalarField;
    location    "18.752";
    object      p;
}
// * * * * * * * * * * * * * * * * * * * * * * * * * * * * * * * * * * * * * //

dimensions      [0 2 -2 0 0 0 0];

internalField   nonuniform List<scalar> 
19200
(
-0.394486
-0.38944
-0.385674
-0.382543
-0.379667
-0.377026
-0.374575
-0.372262
-0.370048
-0.367906
-0.365816
-0.363765
-0.361743
-0.359743
-0.357763
-0.355799
-0.353852
-0.351921
-0.350009
-0.348117
-0.346245
-0.344397
-0.342573
-0.340775
-0.339004
-0.337265
-0.335555
-0.333821
-0.332045
-0.330817
-0.398176
-0.393007
-0.389214
-0.386057
-0.383139
-0.380442
-0.377921
-0.375527
-0.373224
-0.370986
-0.368794
-0.366638
-0.364507
-0.362397
-0.360305
-0.358231
-0.356174
-0.354136
-0.352119
-0.350125
-0.348155
-0.346213
-0.344299
-0.342416
-0.340564
-0.338751
-0.336973
-0.335167
-0.333309
-0.332089
-0.40244
-0.397058
-0.39317
-0.389949
-0.386963
-0.384188
-0.38158
-0.379089
-0.376681
-0.374332
-0.372025
-0.369749
-0.367496
-0.365263
-0.363049
-0.360852
-0.358675
-0.356518
-0.354386
-0.352279
-0.350202
-0.348156
-0.346144
-0.344168
-0.342229
-0.340336
-0.338485
-0.336601
-0.334651
-0.333451
-0.407063
-0.401527
-0.39754
-0.394234
-0.391157
-0.388283
-0.385569
-0.382964
-0.380435
-0.377959
-0.375521
-0.373111
-0.370723
-0.368354
-0.366003
-0.363671
-0.361361
-0.359074
-0.356815
-0.354586
-0.35239
-0.350231
-0.348112
-0.346034
-0.344001
-0.342021
-0.340092
-0.338124
-0.336072
-0.334906
-0.412096
-0.406418
-0.402322
-0.398913
-0.395726
-0.392735
-0.389895
-0.387159
-0.384492
-0.381874
-0.37929
-0.376731
-0.374193
-0.371674
-0.369174
-0.366694
-0.364238
-0.36181
-0.359412
-0.357049
-0.354724
-0.352442
-0.350206
-0.348018
-0.345882
-0.343809
-0.341795
-0.339735
-0.337573
-0.336454
-0.417574
-0.411744
-0.407524
-0.403994
-0.400678
-0.397551
-0.394569
-0.391683
-0.388862
-0.386085
-0.38334
-0.380618
-0.377915
-0.375232
-0.372568
-0.369928
-0.367313
-0.36473
-0.362181
-0.359672
-0.357208
-0.354792
-0.352429
-0.350121
-0.347874
-0.345699
-0.343595
-0.341436
-0.339152
-0.338095
-0.423513
-0.417516
-0.413154
-0.409485
-0.406022
-0.40274
-0.399598
-0.396546
-0.393553
-0.390602
-0.387679
-0.384778
-0.381896
-0.379034
-0.376194
-0.373378
-0.370592
-0.36784
-0.365128
-0.362461
-0.359844
-0.357283
-0.354782
-0.352345
-0.349977
-0.347693
-0.345492
-0.343225
-0.340809
-0.339827
-0.429928
-0.423744
-0.419222
-0.415396
-0.411767
-0.408313
-0.404991
-0.401755
-0.398575
-0.395432
-0.392315
-0.38922
-0.386144
-0.383088
-0.380056
-0.377051
-0.37408
-0.371146
-0.368257
-0.365419
-0.362638
-0.359919
-0.357269
-0.354691
-0.352192
-0.34979
-0.347484
-0.345101
-0.34254
-0.341648
-0.436833
-0.43044
-0.425739
-0.421737
-0.417924
-0.414277
-0.410758
-0.40732
-0.403934
-0.400582
-0.397256
-0.39395
-0.390665
-0.387401
-0.384162
-0.380954
-0.377783
-0.374654
-0.371574
-0.368552
-0.365592
-0.362704
-0.359892
-0.357161
-0.35452
-0.35199
-0.34957
-0.347062
-0.344345
-0.343556
-0.444241
-0.437614
-0.432715
-0.428517
-0.424499
-0.420642
-0.416907
-0.413248
-0.409638
-0.406061
-0.402509
-0.398977
-0.395466
-0.391979
-0.388519
-0.385093
-0.381707
-0.378369
-0.375085
-0.371863
-0.368712
-0.36564
-0.362653
-0.359757
-0.356962
-0.354293
-0.351749
-0.349105
-0.346219
-0.345548
-0.452163
-0.445278
-0.440159
-0.435746
-0.431504
-0.427415
-0.423445
-0.419547
-0.415696
-0.411876
-0.408081
-0.404307
-0.400556
-0.39683
-0.393134
-0.389475
-0.38586
-0.382297
-0.378794
-0.375359
-0.372002
-0.368731
-0.365555
-0.362481
-0.359519
-0.356699
-0.354021
-0.351229
-0.348159
-0.34762
-0.46061
-0.453443
-0.448081
-0.443433
-0.438945
-0.434606
-0.43038
-0.426225
-0.422114
-0.418035
-0.41398
-0.409948
-0.405941
-0.401961
-0.398014
-0.394108
-0.39025
-0.386447
-0.38271
-0.379047
-0.375469
-0.371984
-0.368604
-0.365336
-0.362193
-0.359208
-0.356384
-0.353431
-0.350162
-0.349769
-0.469594
-0.462117
-0.456491
-0.451586
-0.446832
-0.442221
-0.437721
-0.433289
-0.428901
-0.424545
-0.420215
-0.415909
-0.411629
-0.407381
-0.403169
-0.399
-0.394884
-0.390827
-0.386841
-0.382934
-0.379119
-0.375405
-0.371805
-0.368327
-0.364986
-0.361822
-0.358838
-0.355709
-0.352225
-0.35199
-0.479126
-0.471312
-0.465398
-0.460213
-0.455172
-0.450269
-0.445474
-0.440747
-0.436064
-0.431414
-0.426791
-0.422196
-0.41763
-0.413098
-0.408606
-0.404161
-0.399772
-0.395446
-0.391195
-0.38703
-0.382961
-0.379001
-0.375164
-0.371458
-0.367903
-0.364544
-0.361383
-0.358061
-0.354343
-0.354278
-0.489215
-0.481035
-0.47481
-0.469324
-0.463972
-0.458756
-0.453647
-0.448605
-0.443609
-0.438648
-0.433718
-0.428818
-0.423951
-0.419122
-0.414336
-0.409601
-0.404924
-0.400316
-0.395785
-0.391345
-0.387006
-0.382783
-0.378689
-0.374738
-0.370949
-0.367374
-0.364019
-0.360485
-0.35651
-0.356626
-0.499872
-0.491296
-0.484734
-0.478923
-0.47324
-0.467689
-0.462246
-0.456871
-0.451545
-0.446257
-0.441003
-0.435784
-0.430603
-0.425462
-0.420369
-0.415331
-0.410354
-0.405448
-0.400623
-0.395891
-0.391265
-0.38676
-0.382391
-0.378173
-0.374129
-0.370318
-0.366748
-0.362978
-0.358722
-0.359025
-0.511105
-0.502102
-0.495178
-0.489019
-0.48298
-0.477074
-0.471277
-0.465551
-0.459877
-0.454247
-0.448655
-0.443103
-0.437594
-0.43213
-0.426718
-0.421363
-0.416072
-0.410856
-0.405722
-0.400683
-0.395753
-0.390947
-0.386282
-0.381774
-0.377451
-0.373378
-0.369568
-0.365536
-0.360969
-0.361463
-0.522921
-0.513459
-0.506146
-0.499615
-0.4932
-0.486916
-0.480745
-0.474651
-0.468613
-0.462624
-0.456681
-0.450784
-0.444934
-0.439136
-0.433392
-0.42771
-0.422095
-0.416555
-0.411099
-0.405738
-0.400485
-0.395358
-0.390374
-0.385552
-0.380922
-0.376559
-0.372479
-0.368153
-0.36324
-0.363923
-0.535327
-0.525373
-0.517643
-0.510717
-0.503901
-0.49722
-0.490656
-0.484175
-0.477757
-0.471397
-0.465089
-0.458834
-0.452634
-0.44649
-0.440407
-0.434387
-0.428437
-0.422562
-0.41677
-0.411072
-0.405481
-0.400012
-0.394686
-0.389522
-0.384554
-0.379866
-0.375481
-0.370821
-0.365521
-0.366382
-0.548326
-0.537845
-0.529672
-0.522326
-0.515087
-0.507987
-0.501012
-0.494128
-0.487316
-0.48057
-0.473886
-0.467263
-0.460702
-0.454205
-0.447773
-0.441408
-0.435114
-0.428895
-0.422757
-0.416708
-0.41076
-0.40493
-0.399235
-0.393699
-0.388357
-0.383305
-0.378569
-0.373527
-0.367787
-0.368806
-0.561921
-0.550877
-0.542234
-0.534443
-0.526759
-0.51922
-0.511816
-0.504513
-0.497292
-0.490149
-0.483078
-0.476078
-0.46915
-0.462292
-0.455505
-0.448789
-0.442145
-0.435574
-0.42908
-0.422669
-0.41635
-0.410136
-0.404047
-0.398104
-0.392348
-0.386881
-0.381739
-0.376253
-0.370005
-0.371143
-0.576111
-0.564469
-0.555326
-0.547067
-0.538916
-0.530919
-0.523069
-0.515331
-0.50769
-0.500138
-0.492671
-0.485287
-0.477985
-0.470761
-0.463615
-0.456545
-0.449547
-0.44262
-0.435765
-0.428983
-0.422278
-0.415663
-0.409152
-0.402766
-0.396546
-0.390606
-0.384988
-0.378975
-0.372126
-0.373321
-0.590893
-0.578617
-0.568946
-0.560195
-0.551556
-0.543081
-0.534769
-0.526583
-0.51851
-0.51054
-0.50267
-0.494896
-0.487215
-0.479624
-0.472118
-0.464692
-0.457341
-0.450059
-0.44284
-0.435682
-0.428584
-0.42155
-0.414591
-0.407722
-0.400985
-0.394498
-0.388313
-0.381665
-0.374088
-0.375239
-0.606262
-0.593314
-0.583087
-0.57382
-0.564671
-0.555703
-0.546913
-0.538268
-0.529751
-0.521356
-0.513076
-0.504908
-0.496847
-0.488888
-0.481024
-0.473247
-0.465547
-0.457914
-0.450337
-0.442806
-0.435311
-0.427849
-0.420421
-0.413032
-0.405716
-0.398597
-0.391729
-0.384295
-0.375806
-0.37675
-0.622213
-0.608552
-0.597738
-0.587931
-0.578255
-0.568775
-0.559495
-0.550379
-0.541412
-0.532584
-0.523891
-0.515327
-0.506887
-0.498563
-0.490346
-0.482226
-0.474187
-0.466216
-0.458293
-0.450401
-0.442519
-0.434632
-0.426723
-0.418783
-0.410829
-0.402978
-0.395279
-0.38685
-0.377167
-0.37763
-0.638738
-0.624315
-0.612883
-0.602516
-0.592293
-0.582289
-0.572507
-0.562912
-0.553486
-0.544222
-0.535113
-0.526154
-0.517337
-0.508654
-0.500093
-0.491642
-0.483281
-0.474992
-0.466748
-0.458522
-0.450281
-0.441991
-0.433615
-0.425114
-0.416476
-0.407789
-0.399077
-0.389362
-0.37805
-0.37758
-0.65583
-0.640584
-0.628504
-0.617556
-0.606772
-0.596231
-0.585938
-0.575856
-0.565967
-0.556263
-0.546737
-0.537384
-0.528195
-0.519161
-0.51027
-0.501505
-0.492847
-0.484271
-0.475745
-0.467232
-0.458685
-0.450051
-0.441265
-0.432247
-0.422933
-0.413357
-0.403483
-0.392171
-0.378623
-0.37645
-0.673519
-0.65734
-0.64457
-0.633027
-0.62167
-0.610584
-0.599772
-0.589198
-0.578842
-0.568696
-0.558754
-0.54901
-0.539455
-0.530081
-0.520874
-0.511818
-0.502893
-0.494071
-0.485318
-0.476589
-0.467826
-0.458955
-0.449881
-0.440475
-0.430595
-0.420188
-0.409116
-0.395911
-0.379067
-0.37337
-0.691857
-0.674552
-0.661037
-0.64889
-0.636959
-0.625324
-0.613992
-0.602923
-0.592098
-0.58151
-0.571153
-0.561022
-0.551108
-0.541404
-0.531898
-0.522576
-0.513418
-0.5044
-0.495488
-0.486637
-0.477784
-0.468843
-0.459688
-0.450128
-0.439906
-0.428793
-0.416348
-0.400191
-0.376754
-0.362422
-0.710375
-0.692025
-0.677836
-0.665113
-0.652617
-0.640436
-0.62858
-0.617013
-0.605717
-0.594686
-0.583915
-0.573398
-0.563131
-0.553107
-0.543317
-0.533752
-0.524396
-0.515233
-0.506239
-0.497383
-0.48862
-0.479881
-0.471058
-0.461961
-0.452296
-0.441669
-0.429156
-0.411046
-0.380989
-0.355087
-1.18383
-1.18101
-1.17627
-1.17006
-1.16242
-1.1534
-1.14306
-1.1315
-1.11878
-1.10499
-1.09022
-1.07455
-1.05808
-1.04087
-1.02302
-1.00461
-0.985719
-0.966423
-0.946798
-0.926915
-0.906843
-0.886649
-0.866394
-0.846135
-0.825927
-0.805817
-0.785849
-0.766032
-0.746353
-0.72724
-1.14935
-1.14655
-1.14201
-1.13597
-1.1285
-1.11968
-1.10959
-1.09831
-1.08593
-1.07253
-1.0582
-1.04301
-1.02705
-1.0104
-0.993151
-0.975369
-0.957136
-0.938527
-0.919615
-0.900467
-0.881152
-0.861732
-0.842269
-0.822818
-0.803436
-0.784173
-0.765083
-0.74621
-0.727606
-0.709456
-1.12095
-1.11818
-1.11378
-1.10791
-1.10064
-1.09205
-1.08222
-1.07124
-1.0592
-1.04616
-1.03222
-1.01746
-1.00196
-0.985795
-0.969051
-0.951802
-0.934125
-0.916092
-0.897773
-0.879237
-0.860548
-0.841769
-0.822958
-0.804173
-0.785466
-0.766891
-0.748498
-0.730339
-0.712474
-0.694977
-1.0942
-1.09155
-1.08734
-1.08169
-1.07467
-1.06636
-1.05684
-1.0462
-1.03451
-1.02187
-1.00834
-0.994006
-0.978957
-0.963267
-0.947016
-0.930279
-0.913129
-0.895638
-0.877877
-0.85991
-0.841802
-0.823615
-0.805405
-0.787229
-0.769139
-0.751186
-0.733418
-0.715884
-0.698635
-0.681719
-1.06707
-1.06464
-1.06069
-1.05533
-1.04863
-1.04067
-1.03152
-1.02127
-1.00999
-0.997766
-0.984682
-0.970815
-0.956245
-0.941051
-0.925309
-0.909094
-0.892479
-0.875536
-0.858331
-0.840931
-0.823399
-0.805794
-0.788174
-0.770593
-0.753103
-0.735753
-0.718589
-0.701656
-0.684999
-0.668655
-1.03984
-1.03771
-1.0341
-1.0291
-1.02279
-1.01523
-1.0065
-0.996686
-0.985861
-0.974105
-0.9615
-0.948124
-0.934057
-0.919375
-0.904154
-0.888469
-0.872392
-0.855994
-0.83934
-0.822498
-0.805528
-0.78849
-0.771441
-0.754433
-0.737519
-0.720745
-0.704157
-0.687796
-0.671704
-0.655915
-1.01261
-1.01086
-1.00765
-1.00308
-0.997212
-0.990111
-0.981856
-0.972524
-0.962192
-0.950939
-0.938844
-0.925986
-0.912441
-0.898287
-0.8836
-0.868451
-0.852915
-0.837059
-0.820951
-0.804655
-0.788233
-0.771745
-0.755245
-0.738788
-0.722422
-0.706196
-0.690154
-0.674336
-0.658781
-0.643522
-0.985401
-0.984088
-0.981344
-0.977254
-0.971877
-0.965282
-0.957543
-0.948736
-0.938935
-0.928218
-0.916663
-0.904347
-0.891347
-0.877738
-0.863596
-0.848992
-0.833999
-0.818686
-0.803118
-0.787361
-0.771475
-0.755519
-0.73955
-0.72362
-0.707779
-0.692075
-0.67655
-0.661246
-0.646199
-0.631444
-0.958262
-0.957435
-0.955199
-0.951631
-0.94679
-0.940741
-0.933556
-0.925308
-0.916071
-0.90592
-0.894932
-0.883182
-0.870746
-0.857699
-0.844114
-0.830064
-0.81562
-0.800849
-0.785819
-0.770593
-0.755233
-0.739796
-0.724339
-0.708916
-0.693576
-0.678367
-0.663332
-0.648513
-0.633946
-0.619667
-0.931265
-0.930958
-0.929262
-0.926249
-0.921975
-0.916504
-0.909903
-0.902244
-0.893598
-0.884039
-0.87364
-0.862477
-0.850624
-0.838153
-0.825138
-0.811651
-0.797761
-0.783536
-0.769041
-0.754341
-0.739496
-0.724566
-0.709606
-0.694669
-0.679807
-0.665068
-0.650496
-0.636134
-0.622017
-0.608185
-0.904483
-0.904717
-0.903583
-0.901148
-0.897464
-0.892592
-0.886599
-0.87955
-0.871517
-0.862569
-0.85278
-0.842222
-0.830967
-0.819087
-0.806654
-0.793738
-0.780408
-0.766731
-0.752772
-0.738594
-0.724258
-0.709822
-0.695344
-0.680876
-0.66647
-0.652176
-0.63804
-0.624105
-0.61041
-0.596995
-0.877991
-0.878776
-0.878214
-0.876368
-0.873288
-0.86903
-0.863658
-0.857237
-0.849831
-0.841511
-0.832347
-0.822407
-0.811764
-0.800487
-0.788646
-0.77631
-0.763547
-0.750422
-0.736999
-0.723341
-0.709508
-0.695559
-0.681549
-0.667533
-0.653564
-0.639692
-0.625964
-0.612427
-0.599122
-0.586092
-0.85186
-0.853195
-0.853208
-0.851954
-0.849482
-0.845844
-0.841102
-0.835315
-0.828548
-0.820866
-0.812336
-0.803027
-0.793006
-0.782342
-0.771103
-0.759355
-0.747165
-0.734597
-0.721713
-0.708575
-0.695242
-0.681771
-0.668219
-0.65464
-0.641088
-0.627614
-0.614268
-0.601098
-0.588151
-0.575472
-0.826158
-0.828034
-0.828614
-0.827947
-0.826079
-0.823061
-0.818949
-0.8138
-0.807674
-0.800635
-0.792747
-0.784074
-0.774684
-0.764641
-0.754011
-0.742859
-0.731249
-0.719243
-0.706902
-0.694285
-0.68145
-0.668454
-0.655352
-0.642197
-0.629044
-0.615945
-0.602953
-0.59012
-0.577496
-0.565133
-0.800944
-0.803345
-0.804477
-0.804386
-0.803113
-0.800707
-0.797219
-0.792703
-0.787218
-0.780822
-0.773577
-0.765545
-0.75679
-0.747374
-0.73736
-0.726811
-0.715787
-0.70435
-0.692556
-0.680464
-0.668129
-0.655605
-0.642946
-0.630205
-0.617436
-0.60469
-0.592024
-0.579494
-0.567155
-0.555068
-0.776271
-0.779174
-0.780839
-0.781305
-0.780611
-0.778803
-0.775929
-0.772039
-0.767187
-0.76143
-0.754826
-0.747435
-0.739316
-0.73053
-0.721137
-0.711196
-0.700766
-0.689904
-0.678664
-0.667103
-0.655271
-0.643221
-0.631003
-0.618668
-0.606268
-0.593856
-0.581488
-0.569226
-0.55713
-0.545272
-0.752183
-0.755563
-0.757735
-0.758736
-0.758601
-0.757373
-0.755096
-0.751818
-0.747588
-0.742462
-0.736494
-0.729739
-0.722256
-0.714101
-0.705331
-0.696003
-0.686172
-0.675892
-0.665216
-0.654192
-0.642871
-0.631299
-0.619524
-0.607592
-0.595551
-0.583453
-0.571355
-0.559322
-0.547423
-0.535742
-0.728717
-0.732543
-0.735195
-0.736704
-0.737104
-0.736434
-0.734734
-0.73205
-0.728429
-0.72392
-0.718578
-0.712453
-0.7056
-0.698074
-0.689929
-0.681218
-0.671992
-0.662303
-0.652197
-0.641723
-0.630922
-0.619838
-0.608511
-0.596982
-0.585295
-0.573496
-0.561641
-0.549796
-0.53804
-0.52647
-0.705903
-0.710143
-0.713244
-0.715232
-0.716139
-0.716001
-0.714856
-0.712745
-0.709712
-0.705806
-0.701076
-0.695571
-0.689342
-0.682441
-0.674919
-0.666826
-0.658211
-0.64912
-0.639597
-0.629683
-0.619417
-0.608834
-0.597967
-0.58685
-0.575517
-0.564007
-0.552369
-0.540668
-0.528991
-0.517454
-0.683761
-0.688383
-0.6919
-0.694336
-0.695721
-0.696087
-0.69547
-0.693908
-0.691443
-0.688121
-0.683986
-0.679087
-0.673472
-0.66719
-0.660288
-0.652814
-0.644814
-0.636329
-0.627399
-0.618061
-0.608347
-0.598283
-0.587896
-0.577206
-0.566235
-0.555011
-0.543569
-0.531967
-0.520296
-0.50869
-0.662308
-0.667278
-0.671177
-0.67403
-0.675861
-0.676701
-0.676583
-0.675544
-0.673623
-0.670862
-0.667305
-0.662996
-0.657982
-0.652309
-0.646022
-0.639166
-0.631782
-0.623911
-0.615587
-0.606842
-0.5977
-0.588181
-0.5783
-0.568062
-0.557475
-0.546543
-0.535284
-0.523736
-0.511986
-0.500182
-0.641551
-0.646836
-0.651085
-0.65432
-0.656565
-0.657849
-0.658201
-0.657657
-0.656253
-0.65403
-0.651028
-0.647291
-0.642862
-0.637786
-0.632106
-0.625864
-0.619099
-0.611847
-0.604141
-0.596007
-0.587462
-0.578519
-0.569178
-0.559431
-0.549261
-0.538647
-0.527571
-0.516037
-0.504114
-0.491939
-0.621495
-0.627061
-0.631627
-0.635212
-0.637839
-0.639534
-0.640326
-0.640247
-0.639332
-0.63762
-0.635151
-0.631964
-0.628103
-0.623609
-0.618525
-0.61289
-0.606743
-0.600117
-0.59304
-0.585535
-0.577615
-0.569282
-0.560526
-0.551321
-0.541623
-0.531373
-0.520503
-0.508959
-0.496759
-0.483988
-0.602138
-0.607954
-0.612805
-0.616708
-0.619684
-0.621759
-0.622958
-0.623314
-0.62286
-0.621632
-0.619669
-0.617009
-0.613695
-0.609767
-0.605266
-0.60023
-0.594697
-0.588698
-0.582261
-0.575404
-0.568137
-0.560456
-0.552338
-0.54374
-0.534589
-0.524782
-0.514179
-0.502628
-0.490056
-0.476388
-0.583476
-0.589511
-0.594615
-0.598804
-0.602098
-0.60452
-0.606097
-0.606857
-0.606833
-0.60606
-0.604576
-0.602419
-0.599629
-0.596247
-0.592312
-0.587865
-0.582939
-0.577568
-0.571777
-0.565586
-0.559002
-0.552015
-0.544596
-0.536687
-0.528187
-0.518942
-0.508721
-0.497227
-0.484227
-0.469283
-0.565498
-0.571723
-0.577049
-0.581491
-0.58507
-0.587807
-0.589727
-0.590857
-0.591231
-0.590882
-0.589847
-0.588163
-0.585871
-0.583011
-0.579622
-0.575745
-0.571414
-0.566665
-0.561524
-0.55601
-0.550132
-0.543881
-0.537226
-0.530098
-0.522377
-0.513861
-0.504215
-0.492941
-0.479577
-0.462983
-0.548196
-0.554581
-0.560099
-0.564764
-0.568595
-0.571613
-0.573842
-0.575309
-0.576046
-0.576086
-0.575465
-0.574221
-0.572393
-0.570024
-0.567152
-0.563818
-0.560062
-0.555916
-0.551414
-0.546576
-0.541416
-0.53593
-0.530092
-0.523837
-0.517036
-0.509459
-0.500665
-0.489911
-0.476452
-0.457879
-0.531561
-0.538101
-0.543804
-0.548682
-0.552756
-0.556044
-0.55857
-0.56036
-0.561447
-0.561862
-0.561641
-0.560824
-0.559449
-0.557558
-0.555193
-0.552396
-0.549207
-0.545665
-0.541804
-0.537652
-0.53323
-0.528544
-0.52358
-0.518291
-0.512568
-0.506188
-0.49865
-0.488956
-0.475916
-0.45436
-0.515562
-0.522274
-0.52818
-0.533291
-0.537627
-0.541206
-0.544053
-0.546194
-0.547661
-0.548486
-0.548706
-0.54836
-0.547489
-0.546136
-0.544344
-0.542157
-0.53962
-0.536774
-0.533658
-0.530306
-0.526748
-0.523003
-0.519078
-0.514957
-0.510586
-0.505827
-0.500272
-0.492844
-0.481813
-0.455835
-0.500108
-0.506774
-0.512666
-0.517798
-0.522187
-0.525853
-0.52882
-0.531116
-0.532772
-0.533822
-0.534303
-0.534258
-0.533728
-0.53276
-0.531402
-0.529703
-0.527711
-0.525478
-0.52305
-0.520476
-0.517799
-0.51506
-0.5123
-0.509553
-0.506858
-0.504272
-0.501702
-0.498546
-0.494832
-0.475339
-0.405326
-0.453147
-0.499679
-0.545534
-0.590528
-0.634493
-0.677315
-0.718883
-0.759095
-0.797853
-0.835069
-0.870658
-0.904547
-0.936667
-0.966955
-0.995359
-1.02183
-1.04633
-1.06884
-1.08932
-1.10776
-1.12416
-1.13851
-1.15082
-1.16111
-1.1694
-1.17572
-1.18007
-1.18247
-1.18329
-0.397455
-0.444118
-0.489705
-0.534461
-0.578269
-0.621013
-0.662599
-0.702932
-0.741918
-0.779467
-0.815496
-0.849925
-0.882683
-0.913705
-0.942934
-0.970318
-0.995815
-1.01939
-1.04101
-1.06066
-1.07833
-1.09401
-1.1077
-1.11942
-1.12918
-1.13701
-1.14295
-1.14703
-1.14929
-1.14992
-0.386532
-0.432186
-0.476919
-0.520796
-0.563712
-0.605568
-0.646274
-0.685739
-0.723874
-0.760593
-0.795815
-0.829464
-0.86147
-0.891772
-0.920312
-0.947042
-0.971921
-0.994914
-1.01599
-1.03514
-1.05235
-1.06761
-1.08093
-1.09233
-1.10181
-1.10941
-1.11516
-1.11911
-1.1213
-1.12183
-0.372218
-0.416959
-0.460872
-0.503953
-0.546096
-0.587202
-0.627181
-0.665944
-0.703403
-0.739474
-0.774078
-0.80714
-0.838594
-0.868375
-0.896431
-0.922711
-0.947176
-0.969792
-0.990533
-1.00938
-1.02632
-1.04136
-1.05449
-1.06573
-1.0751
-1.08263
-1.08834
-1.09229
-1.0945
-1.09506
-0.354957
-0.398798
-0.441885
-0.484178
-0.525568
-0.565955
-0.60525
-0.643362
-0.680206
-0.715698
-0.749761
-0.782322
-0.813312
-0.84267
-0.870342
-0.89628
-0.920442
-0.942795
-0.963312
-0.981975
-0.998773
-1.0137
-1.02676
-1.03797
-1.04735
-1.05491
-1.06069
-1.06474
-1.06708
-1.06778
-0.335484
-0.378434
-0.420692
-0.462199
-0.502845
-0.542531
-0.581168
-0.618664
-0.654936
-0.6899
-0.72348
-0.755601
-0.786198
-0.815209
-0.842578
-0.868258
-0.892207
-0.914391
-0.934781
-0.95336
-0.970113
-0.985037
-0.998134
-1.00941
-1.01889
-1.02659
-1.03254
-1.03679
-1.03935
-1.0403
-0.314493
-0.356545
-0.397964
-0.438678
-0.478578
-0.517568
-0.555556
-0.592453
-0.628175
-0.66264
-0.695771
-0.727494
-0.757743
-0.786457
-0.81358
-0.839063
-0.862863
-0.884945
-0.905281
-0.923849
-0.940636
-0.955634
-0.968845
-0.980276
-0.989941
-0.997862
-1.00407
-1.00859
-1.01146
-1.01274
-0.292594
-0.333736
-0.374298
-0.414203
-0.453344
-0.491628
-0.528962
-0.56526
-0.600436
-0.63441
-0.667105
-0.698448
-0.728372
-0.756815
-0.783722
-0.809042
-0.832732
-0.854756
-0.875082
-0.89369
-0.910562
-0.925689
-0.939071
-0.950713
-0.960625
-0.968828
-0.975347
-0.980213
-0.983453
-0.985125
-0.270313
-0.310525
-0.350211
-0.389287
-0.427652
-0.465213
-0.50188
-0.537567
-0.572189
-0.605668
-0.637925
-0.668888
-0.698492
-0.726673
-0.753374
-0.778546
-0.802144
-0.82413
-0.844472
-0.863146
-0.880133
-0.895423
-0.909012
-0.920902
-0.931103
-0.939631
-0.946508
-0.951762
-0.95542
-0.957534
-0.248077
-0.287345
-0.326135
-0.364363
-0.401932
-0.438751
-0.474733
-0.509793
-0.543847
-0.576816
-0.608624
-0.639199
-0.668474
-0.696387
-0.72288
-0.747903
-0.771411
-0.793363
-0.813726
-0.832476
-0.849591
-0.865058
-0.878872
-0.891031
-0.901543
-0.91042
-0.917682
-0.923355
-0.927462
-0.93005
-0.226226
-0.264535
-0.302414
-0.339777
-0.376532
-0.412593
-0.447872
-0.482286
-0.515753
-0.548195
-0.579537
-0.609707
-0.638638
-0.666268
-0.69254
-0.717402
-0.740808
-0.762718
-0.783097
-0.801918
-0.819158
-0.834803
-0.848843
-0.861276
-0.872106
-0.881342
-0.889002
-0.895107
-0.89968
-0.902761
-0.205013
-0.242356
-0.279313
-0.315799
-0.351727
-0.387013
-0.421573
-0.455324
-0.488186
-0.520082
-0.550938
-0.580683
-0.60925
-0.636578
-0.662608
-0.68729
-0.710577
-0.732426
-0.752804
-0.771681
-0.789033
-0.804843
-0.819101
-0.8318
-0.842943
-0.852535
-0.860592
-0.867131
-0.872173
-0.875753
-0.184624
-0.220998
-0.257027
-0.292629
-0.32772
-0.362221
-0.396048
-0.429121
-0.461363
-0.492696
-0.523047
-0.552346
-0.580527
-0.607529
-0.633295
-0.657773
-0.680916
-0.702682
-0.723035
-0.741945
-0.759387
-0.775343
-0.789799
-0.802747
-0.814187
-0.824123
-0.832565
-0.83953
-0.845034
-0.849108
-0.165184
-0.200591
-0.235692
-0.270407
-0.304658
-0.338366
-0.371452
-0.403838
-0.435445
-0.466199
-0.496028
-0.524862
-0.552636
-0.57929
-0.604766
-0.629014
-0.651987
-0.673642
-0.693943
-0.71286
-0.730366
-0.74644
-0.761069
-0.774243
-0.785957
-0.796215
-0.805023
-0.812396
-0.818347
-0.822902
-0.146769
-0.181216
-0.215393
-0.249224
-0.282635
-0.31555
-0.347892
-0.379583
-0.410548
-0.440711
-0.470003
-0.498354
-0.525702
-0.551985
-0.577149
-0.601141
-0.623916
-0.645432
-0.665653
-0.684546
-0.702085
-0.718249
-0.733021
-0.746391
-0.758352
-0.768905
-0.778054
-0.78581
-0.792185
-0.797202
-0.129416
-0.162915
-0.196177
-0.229131
-0.261708
-0.293834
-0.325432
-0.356427
-0.386744
-0.41631
-0.445053
-0.472909
-0.499812
-0.525705
-0.550533
-0.574246
-0.596797
-0.618146
-0.638256
-0.657096
-0.674637
-0.690858
-0.705742
-0.719276
-0.731452
-0.742269
-0.751729
-0.75984
-0.766613
-0.772065
-0.113135
-0.145698
-0.178057
-0.210146
-0.241899
-0.273244
-0.304105
-0.334407
-0.364076
-0.39304
-0.421228
-0.448576
-0.475022
-0.500509
-0.524982
-0.548392
-0.570695
-0.591851
-0.611822
-0.630578
-0.64809
-0.664337
-0.679299
-0.692964
-0.705323
-0.716371
-0.726109
-0.734544
-0.741683
-0.747541
-0.0979107
-0.129553
-0.161024
-0.192263
-0.223207
-0.253783
-0.283917
-0.313534
-0.342558
-0.37092
-0.39855
-0.425384
-0.451362
-0.476427
-0.500529
-0.523618
-0.545651
-0.566589
-0.586395
-0.605039
-0.622492
-0.638733
-0.653742
-0.667505
-0.680012
-0.691258
-0.701241
-0.709965
-0.717437
-0.723669
-0.0837146
-0.114451
-0.14505
-0.175457
-0.205608
-0.235433
-0.264854
-0.293796
-0.322184
-0.349947
-0.377018
-0.403335
-0.428837
-0.453472
-0.477189
-0.49994
-0.521684
-0.542383
-0.562
-0.580506
-0.597873
-0.614078
-0.629103
-0.642932
-0.655554
-0.666964
-0.677157
-0.686137
-0.693908
-0.700481
-0.0705047
-0.100346
-0.130092
-0.159687
-0.189069
-0.218162
-0.246889
-0.27517
-0.302932
-0.330103
-0.356619
-0.382417
-0.407441
-0.431637
-0.454959
-0.477359
-0.498799
-0.519239
-0.538647
-0.556991
-0.574247
-0.590389
-0.605401
-0.619265
-0.631971
-0.643511
-0.653882
-0.663083
-0.67112
-0.677999
-0.0582318
-0.0871871
-0.116098
-0.144906
-0.173542
-0.201928
-0.22998
-0.257618
-0.284767
-0.311357
-0.337322
-0.362604
-0.387148
-0.410903
-0.433822
-0.455862
-0.476984
-0.497151
-0.51633
-0.534494
-0.551615
-0.56767
-0.582642
-0.596513
-0.609273
-0.620913
-0.631428
-0.640819
-0.649086
-0.656238
-0.0468401
-0.074912
-0.103009
-0.131056
-0.158976
-0.186681
-0.214083
-0.241098
-0.267649
-0.293668
-0.319092
-0.343863
-0.367928
-0.391239
-0.413752
-0.435424
-0.456218
-0.4761
-0.495037
-0.513002
-0.529968
-0.545915
-0.560822
-0.574675
-0.587461
-0.599172
-0.609802
-0.619349
-0.627816
-0.635207
-0.0362687
-0.063451
-0.0907581
-0.118076
-0.145312
-0.172367
-0.199145
-0.225558
-0.251529
-0.276991
-0.301883
-0.32615
-0.349741
-0.372609
-0.394714
-0.416014
-0.436474
-0.45606
-0.474743
-0.492495
-0.50929
-0.525109
-0.539931
-0.553742
-0.56653
-0.578284
-0.589
-0.598675
-0.60731
-0.614909
-0.0264484
-0.0527215
-0.07927
-0.105896
-0.132486
-0.158926
-0.185108
-0.210942
-0.236352
-0.261273
-0.285645
-0.309416
-0.332538
-0.354968
-0.376665
-0.397591
-0.417713
-0.436998
-0.455417
-0.472944
-0.489556
-0.50523
-0.519949
-0.533698
-0.546464
-0.558239
-0.569015
-0.57879
-0.587564
-0.59534
-0.017294
-0.0426336
-0.0684706
-0.0944515
-0.12044
-0.146304
-0.171922
-0.197202
-0.222071
-0.246466
-0.27033
-0.293616
-0.316277
-0.338273
-0.359566
-0.380119
-0.3999
-0.41888
-0.437029
-0.454322
-0.470738
-0.486254
-0.500854
-0.514523
-0.527248
-0.53902
-0.549833
-0.559683
-0.568569
-0.576495
-0.00869546
-0.0331269
-0.0583402
-0.0837359
-0.109174
-0.134501
-0.159585
-0.184335
-0.208681
-0.232564
-0.255932
-0.278741
-0.300948
-0.322515
-0.343405
-0.363585
-0.383024
-0.401693
-0.419565
-0.436616
-0.452825
-0.46817
-0.482636
-0.496207
-0.508872
-0.52062
-0.531446
-0.541345
-0.550317
-0.558364
-0.000497674
-0.0240981
-0.0488314
-0.0737133
-0.0986517
-0.123481
-0.148058
-0.172296
-0.196133
-0.219516
-0.242398
-0.264738
-0.286497
-0.307639
-0.32813
-0.347938
-0.367035
-0.385391
-0.402982
-0.419785
-0.435779
-0.450943
-0.465262
-0.478722
-0.491309
-0.503015
-0.513833
-0.52376
-0.532793
-0.540935
0.00775126
-0.0147879
-0.039214
-0.0636999
-0.088223
-0.112614
-0.136728
-0.160494
-0.183857
-0.206773
-0.229202
-0.251105
-0.272447
-0.293194
-0.313315
-0.332779
-0.351558
-0.369627
-0.386961
-0.403536
-0.419333
-0.434333
-0.44852
-0.46188
-0.4744
-0.486072
-0.496888
-0.506845
-0.515941
-0.524177
0.0173168
-0.00383964
-0.0283153
-0.052691
-0.0770141
-0.101116
-0.124884
-0.148277
-0.171259
-0.193795
-0.215849
-0.23739
-0.258384
-0.278802
-0.298612
-0.317789
-0.336304
-0.354133
-0.371252
-0.387641
-0.40328
-0.41815
-0.432236
-0.445525
-0.458004
-0.469666
-0.480502
-0.49051
-0.499688
-0.508036
0.0270428
0.00368914
-0.0218715
-0.0463659
-0.0706229
-0.0944927
-0.117906
-0.140887
-0.163427
-0.185499
-0.207078
-0.228136
-0.248647
-0.268583
-0.287919
-0.30663
-0.324692
-0.342084
-0.358784
-0.374774
-0.390035
-0.404553
-0.418313
-0.431303
-0.443513
-0.454934
-0.465562
-0.475393
-0.484426
-0.492662
0.539321
0.54634
0.553523
0.560836
0.568277
0.575843
0.583526
0.591313
0.599193
0.607148
0.615161
0.623212
0.631276
0.639327
0.64734
0.655285
0.663138
0.670874
0.67848
0.685952
0.693306
0.700587
0.707874
0.7153
0.723069
0.731478
0.740838
0.751422
0.765036
0.784791
0.532144
0.538902
0.545925
0.553059
0.5603
0.567655
0.575115
0.582668
0.590299
0.597992
0.605726
0.61348
0.621229
0.628945
0.636599
0.644164
0.65161
0.658914
0.66606
0.673045
0.679886
0.686628
0.693357
0.700211
0.707403
0.715245
0.724067
0.734172
0.747421
0.767063
0.524113
0.530561
0.5374
0.544329
0.551339
0.558451
0.565657
0.572941
0.580288
0.58768
0.595096
0.602512
0.609903
0.617238
0.624489
0.631624
0.638614
0.645435
0.652069
0.658515
0.664789
0.670941
0.67706
0.683292
0.689863
0.697099
0.705355
0.714966
0.727864
0.747404
0.515237
0.521325
0.527955
0.534654
0.541404
0.548242
0.55516
0.562142
0.569169
0.576224
0.583283
0.590321
0.597311
0.604222
0.611023
0.617682
0.624168
0.630455
0.636527
0.642382
0.648038
0.653549
0.659009
0.664573
0.670478
0.677068
0.68472
0.6938
0.706281
0.725561
0.505524
0.511206
0.517603
0.524045
0.530506
0.537039
0.543638
0.550283
0.556956
0.563636
0.5703
0.57692
0.583468
0.589912
0.596218
0.602353
0.608287
0.613992
0.619452
0.624665
0.629653
0.634473
0.639225
0.644074
0.649269
0.655171
0.66218
0.67069
0.682698
0.701615
0.494985
0.500215
0.506356
0.512516
0.518659
0.524856
0.531104
0.537381
0.543665
0.549934
0.556165
0.562328
0.568393
0.574326
0.580093
0.58566
0.590994
0.596068
0.600867
0.605389
0.609661
0.613741
0.617738
0.621826
0.626268
0.631441
0.637767
0.645669
0.657157
0.675635
0.483634
0.488367
0.494229
0.500082
0.505878
0.51171
0.517576
0.523451
0.529312
0.535136
0.540897
0.546564
0.552106
0.557487
0.562672
0.567626
0.572314
0.576711
0.580801
0.584585
0.588091
0.591385
0.594582
0.597865
0.601511
0.605915
0.61152
0.618775
0.629701
0.647676
0.471484
0.475678
0.481238
0.48676
0.492181
0.497618
0.503072
0.508514
0.51392
0.519263
0.524518
0.529652
0.534632
0.539421
0.543982
0.548279
0.552278
0.555952
0.559287
0.562287
0.564982
0.567443
0.569795
0.572232
0.575042
0.578638
0.583484
0.590058
0.600379
0.617793
0.458549
0.462163
0.467401
0.472567
0.477587
0.482601
0.487613
0.492592
0.497509
0.50234
0.507054
0.511619
0.515998
0.520156
0.524053
0.527651
0.530918
0.533826
0.536362
0.538532
0.540372
0.541959
0.543424
0.544972
0.546908
0.54966
0.553713
0.559571
0.569248
0.586048
0.444847
0.447842
0.452738
0.457525
0.462116
0.466679
0.471222
0.475707
0.480106
0.484391
0.488531
0.492491
0.496235
0.499723
0.502917
0.505777
0.50827
0.51037
0.512065
0.513364
0.514307
0.514978
0.515516
0.516139
0.517165
0.519038
0.522265
0.527374
0.536372
0.552506
0.430393