/*--------------------------------*- C++ -*----------------------------------*\
| =========                 |                                                 |
| \\      /  F ield         | OpenFOAM: The Open Source CFD Toolbox           |
|  \\    /   O peration     | Version:  v1912                                 |
|   \\  /    A nd           | Website:  www.openfoam.com                      |
|    \\/     M anipulation  |                                                 |
\*---------------------------------------------------------------------------*/
FoamFile
{
    version     2.0;
    format      ascii;
    class       volVectorField;
    location    "35";
    object      U;
}
// * * * * * * * * * * * * * * * * * * * * * * * * * * * * * * * * * * * * * //

dimensions      [0 1 -1 0 0 0 0];


internalField   nonuniform List<vector> 
19200
(
(0.635765 -19.3595 -8.20869e-20)
(0.1427 -18.5617 0)
(0.340592 -17.9597 0)
(0.342997 -17.4999 0)
(0.386415 -17.1058 0)
(0.435674 -16.7403 0)
(0.480185 -16.3843 -1.64094e-20)
(0.520969 -16.0286 1.6093e-20)
(0.557985 -15.6704 0)
(0.591018 -15.3103 0)
(0.620261 -14.9507 -2.38104e-20)
(0.646098 -14.5944 1.3378e-21)
(0.66896 -14.2439 2.16284e-20)
(0.68928 -13.9016 0)
(0.707456 -13.5689 1.75718e-20)
(0.723841 -13.2471 -9.29471e-22)
(0.738733 -12.9369 -1.6047e-20)
(0.752378 -12.6384 0)
(0.764975 -12.3516 0)
(0.776683 -12.0764 0)
(0.787628 -11.8124 0)
(0.797914 -11.5591 0)
(0.807628 -11.3161 1.00645e-20)
(0.816852 -11.0828 -9.90376e-21)
(0.825661 -10.8585 0)
(0.834121 -10.6423 0)
(0.842274 -10.4333 -1.55529e-20)
(0.850259 -10.2303 1.53169e-20)
(0.858416 -10.0315 0)
(0.865794 -9.83512 0)
(1.1418 -19.3447 -1.07653e-19)
(0.630882 -18.5777 5.4323e-20)
(0.813374 -17.9837 0)
(0.803541 -17.531 0)
(0.836481 -17.1401 0)
(0.875831 -16.7752 0)
(0.910489 -16.4181 -1.34406e-19)
(0.941333 -16.0603 6.47936e-20)
(0.968305 -15.6995 -1.89334e-21)
(0.991239 -15.3367 -3.24005e-21)
(1.01041 -14.9745 -9.88447e-20)
(1.02629 -14.6158 9.14286e-20)
(1.03939 -14.2631 -4.35575e-20)
(1.05021 -13.9189 0)
(1.05919 -13.5847 0)
(1.06671 -13.2616 0)
(1.07308 -12.9502 0)
(1.07855 -12.6508 0)
(1.0833 -12.3632 0)
(1.0875 -12.0874 0)
(1.09125 -11.8228 -2.38859e-20)
(1.09463 -11.5691 0)
(1.09773 -11.3257 -4.06122e-20)
(1.1006 -11.0921 3.99637e-20)
(1.10329 -10.8675 -3.56609e-20)
(1.10586 -10.6512 3.51058e-20)
(1.10831 -10.4422 0)
(1.11078 -10.2391 2.95054e-20)
(1.1137 -10.0404 -2.90631e-20)
(1.11577 -9.84406 2.74095e-20)
(1.64876 -19.3177 -2.2173e-19)
(1.11969 -18.5813 -1.00858e-19)
(1.28732 -17.9948 5.91938e-21)
(1.26576 -17.5499 9.10907e-20)
(1.28835 -17.1621 0)
(1.31782 -16.7979 -1.44398e-19)
(1.34259 -16.44 7.69441e-20)
(1.3634 -16.0803 1.3042e-19)
(1.3802 -15.7172 -5.88135e-20)
(1.39289 -15.352 -1.04425e-19)
(1.40185 -14.9874 1.0247e-19)
(1.40765 -14.6265 0)
(1.41089 -14.272 -8.27823e-20)
(1.41211 -13.9262 8.12845e-20)
(1.41181 -13.5907 -7.35402e-20)
(1.41039 -13.2665 0)
(1.40818 -12.9543 0)
(1.40542 -12.6541 0)
(1.4023 -12.3661 0)
(1.39895 -12.0898 1.00129e-19)
(1.39547 -11.8249 -7.45818e-20)
(1.39192 -11.5709 8.75145e-20)
(1.38838 -11.3273 -8.60992e-20)
(1.38487 -11.0935 -7.67531e-20)
(1.38143 -10.8689 1.47508e-19)
(1.37809 -10.6526 -1.38372e-19)
(1.37482 -10.4437 6.64894e-20)
(1.37177 -10.2408 0)
(1.36943 -10.0423 2.87931e-20)
(1.36613 -9.84612 0)
(2.15433 -19.2779 -4.34732e-19)
(1.60824 -18.5722 2.19724e-19)
(1.76183 -17.9933 -1.86988e-19)
(1.72922 -17.5563 1.15893e-20)
(1.74166 -17.172 1.68306e-19)
(1.76128 -16.8086 0)
(1.77612 -16.4499 0)
(1.7868 -16.0886 0)
(1.7933 -15.7235 3.48297e-19)
(1.79563 -15.3561 -6.54841e-21)
(1.79425 -14.9894 -1.03135e-19)
(1.78986 -14.6266 -1.79882e-19)
(1.78312 -14.2706 1.7659e-19)
(1.77467 -13.9234 1.54644e-19)
(1.76502 -13.5869 -7.83394e-20)
(1.75461 -13.2619 0)
(1.74377 -12.9491 0)
(1.73274 -12.6485 0)
(1.72171 -12.3602 0)
(1.71078 -12.0837 0)
(1.70005 -11.8186 9.43196e-20)
(1.68956 -11.5645 -9.27746e-20)
(1.67936 -11.3209 0)
(1.66945 -11.0871 -7.74138e-20)
(1.65987 -10.8626 1.48793e-19)
(1.65062 -10.6465 -1.39605e-19)
(1.64162 -10.4378 6.70886e-20)
(1.63305 -10.2352 6.01422e-20)
(1.62545 -10.037 -1.44604e-19)
(1.61673 -9.8413 -5.33709e-20)
(2.65906 -19.2254 2.22615e-19)
(2.09692 -18.5506 4.20985e-19)
(2.23687 -17.9793 3.89654e-19)
(2.19363 -17.5504 1.72727e-19)
(2.19609 -17.1695 3.18175e-19)
(2.20588 -16.807 5.20535e-22)
(2.21075 -16.4478 2.87181e-19)
(2.21121 -16.0851 3.8867e-19)
(2.2073 -15.7181 1.19072e-19)
(2.19912 -15.3488 2.18523e-19)
(2.1873 -14.9804 6.37426e-21)
(2.1726 -14.616 1.91974e-19)
(2.15581 -14.2587 5.32624e-21)
(2.1376 -13.9105 4.81026e-19)
(2.11854 -13.5732 -4.46637e-19)
(2.09909 -13.2478 2.80683e-19)
(2.07958 -12.9346 0)
(2.06026 -12.6339 0)
(2.04129 -12.3454 1.12104e-19)
(2.02277 -12.0689 0)
(2.00478 -11.8039 9.78147e-20)
(1.98733 -11.55 8.89434e-20)
(1.97045 -11.3065 -8.75049e-20)
(1.95415 -11.0729 8.02719e-20)
(1.93843 -10.8486 0)
(1.92325 -10.6328 0)
(1.90854 -10.4245 6.63594e-20)
(1.89446 -10.2224 6.23698e-20)
(1.88162 -10.0247 5.5545e-20)
(1.86746 -9.82956 -1.18153e-19)
(3.16245 -19.1599 -2.24379e-19)
(2.58535 -18.5164 -4.20984e-19)
(2.71208 -17.9528 -5.78846e-19)
(2.65866 -17.5319 -1.62055e-19)
(2.65131 -17.1547 -3.0758e-19)
(2.6513 -16.7933 1.087e-20)
(2.64614 -16.4337 -2.7848e-19)
(2.63628 -16.0698 -2.56618e-19)
(2.62184 -15.7012 -2.36687e-19)
(2.60305 -15.3303 -4.3138e-19)
(2.58067 -14.9603 1.32949e-20)
(2.55558 -14.5947 3.81242e-19)
(2.52864 -14.2364 -1.67786e-19)
(2.50061 -13.8875 1.6688e-19)
(2.47209 -13.5498 4.44793e-19)
(2.44356 -13.224 -1.42097e-19)
(2.41536 -12.9108 0)
(2.38772 -12.6101 1.2104e-19)
(2.3608 -12.3218 2.20184e-19)
(2.33468 -12.0456 -3.15169e-19)
(2.30941 -11.7808 1.03697e-19)
(2.285 -11.5272 2.71482e-19)
(2.26145 -11.284 7.78732e-20)
(2.23875 -11.0508 -3.22004e-19)
(2.21688 -10.8269 2.30823e-19)
(2.1958 -10.6115 0)
(2.17538 -10.4038 5.66822e-22)
(2.15583 -10.2024 1.23011e-19)
(2.13778 -10.0053 -2.79849e-21)
(2.11818 -9.8109 1.14066e-19)
(3.66424 -19.0815 4.30003e-19)
(3.07336 -18.4695 -4.4667e-19)
(3.18727 -17.9136 0)
(3.12399 -17.501 -3.61712e-19)
(3.10699 -17.1274 -3.21435e-19)
(3.09718 -16.7672 -2.86727e-19)
(3.08193 -16.4074 2.90117e-19)
(3.06166 -16.0425 0)
(3.03658 -15.6726 -2.39531e-19)
(3.00708 -15.3003 0)
(2.97403 -14.9292 -4.07672e-19)
(2.93846 -14.5626 -3.77269e-19)
(2.90131 -14.2036 -1.74231e-19)
(2.8634 -13.8543 -1.61613e-19)
(2.82538 -13.5164 1.43048e-19)
(2.78774 -13.1907 -4.27504e-19)
(2.75083 -12.8776 0)
(2.71486 -12.5773 -1.2104e-19)
(2.67999 -12.2894 7.92807e-22)
(2.64627 -12.0136 -1.05434e-19)
(2.61373 -11.7493 0)
(2.58236 -11.4961 8.84563e-20)
(2.55214 -11.2535 -2.6407e-19)
(2.52304 -11.0208 6.32127e-22)
(2.49504 -10.7974 7.29835e-20)
(2.46806 -10.5827 -6.75948e-21)
(2.44197 -10.3757 -7.32073e-20)
(2.41697 -10.1751 -3.15821e-19)
(2.39375 -9.97884 6.25012e-20)
(2.36872 -9.78535 0)
(4.16409 -18.99 -1.13952e-21)
(3.56063 -18.4098 0)
(3.66212 -17.8618 -3.82687e-19)
(3.58928 -17.4574 1.10055e-18)
(3.56277 -17.0877 -1.11086e-20)
(3.54318 -16.7288 2.96784e-19)
(3.51779 -16.3689 5.57491e-19)
(3.48702 -16.0033 -1.61187e-20)
(3.45119 -15.6324 -8.34431e-21)
(3.41087 -15.259 2.15427e-19)
(3.36707 -14.8869 -4.05417e-19)
(3.32093 -14.5197 5.80309e-19)
(3.27352 -14.1603 -3.4205e-19)
(3.22569 -13.811 3.35861e-19)
(3.17814 -13.4732 -2.95028e-19)
(3.13137 -13.1478 1.53356e-20)
(3.08573 -12.8352 2.69692e-19)
(3.04143 -12.5354 0)
(2.9986 -12.2481 1.08798e-19)
(2.95728 -11.973 -2.18763e-19)
(2.91748 -11.7094 1.94429e-19)
(2.87916 -11.4569 -9.23875e-21)
(2.84228 -11.2149 -1.79062e-19)
(2.80681 -10.9829 -8.15469e-20)
(2.7727 -10.7603 0)
(2.73985 -10.5464 7.23939e-20)
(2.70811 -10.3402 0)
(2.6777 -10.1405 0)
(2.64937 -9.94526 0)
(2.61893 -9.75293 0)
(4.66166 -18.8857 -9.14728e-19)
(4.04685 -18.3373 8.60611e-19)
(4.13632 -17.7973 -7.96806e-19)
(4.05419 -17.4012 -3.6374e-19)
(4.01831 -17.0354 9.29588e-21)
(3.98896 -16.6779 1.09866e-20)
(3.95336 -16.3183 -2.83385e-19)
(3.912 -15.9521 0)
(3.86533 -15.5804 0)
(3.81409 -15.2062 -1.4117e-20)
(3.75945 -14.8336 -4.25245e-19)
(3.70269 -14.4661 7.54091e-19)
(3.64495 -14.1066 -2.02458e-20)
(3.58717 -13.7574 -3.37901e-19)
(3.53006 -13.42 3.05901e-19)
(3.47416 -13.0952 -2.76245e-19)
(3.41979 -12.7834 5.28756e-19)
(3.36717 -12.4844 -2.52896e-19)
(3.31639 -12.198 0)
(3.26749 -11.9237 5.98181e-21)
(3.22043 -11.661 1.0055e-20)
(3.17518 -11.4094 4.14089e-21)
(3.13167 -11.1683 0)
(3.08984 -10.9372 0)
(3.04963 -10.7155 0)
(3.01094 -10.5025 -7.23939e-20)
(2.97359 -10.2973 0)
(2.93783 -10.0987 2.5119e-19)
(2.90443 -9.90461 -1.09232e-20)
(2.86861 -9.71366 -4.79158e-19)
(5.15662 -18.7683 1.37151e-18)
(4.53168 -18.252 -4.41041e-19)
(4.60953 -17.7201 -4.15452e-19)
(4.51839 -17.3324 0)
(4.47327 -16.9705 0)
(4.43415 -16.6146 0)
(4.3883 -16.2554 0)
(4.33625 -15.8889 -1.03925e-18)
(4.27865 -15.5167 5.01348e-19)
(4.2164 -15.1421 4.47473e-19)
(4.15085 -14.7692 0)
(4.08341 -14.4016 -3.82924e-19)
(4.0153 -14.0424 -3.46166e-19)
(3.94754 -13.6937 1.85319e-20)
(3.88087 -13.357 9.72393e-21)
(3.81582 -13.0331 -2.77976e-19)
(3.75274 -12.7222 2.73127e-19)
(3.6918 -12.4243 -2.4154e-19)
(3.6331 -12.139 2.37429e-19)
(3.57663 -11.8659 -2.15325e-19)
(3.52235 -11.6043 -2.0272e-19)
(3.47019 -11.3538 5.5773e-19)
(3.42006 -11.1137 -5.41104e-19)
(3.3719 -10.8836 3.24619e-19)
(3.32563 -10.6629 -3.19502e-19)
(3.28113 -10.451 0)
(3.2382 -10.2471 0)
(3.19714 -10.0497 -1.29978e-19)
(3.15874 -9.85693 0)
(3.1176 -9.66756 -3.57532e-19)
(5.64864 -18.6381 -4.83526e-19)
(5.01479 -18.1539 -3.41846e-20)
(5.08142 -17.6301 3.87664e-19)
(4.98153 -17.2508 -3.57282e-19)
(4.92728 -16.893 -3.29446e-19)
(4.87841 -16.5389 6.25545e-19)
(4.82223 -16.1802 -1.87296e-20)
(4.75942 -15.8137 -5.32352e-19)
(4.6908 -15.4412 5.04068e-19)
(4.61746 -15.0665 4.3822e-19)
(4.54094 -14.6936 -8.48325e-19)
(4.46277 -14.3263 3.8725e-19)
(4.38427 -13.9677 -3.58945e-19)
(4.30651 -13.6199 0)
(4.23027 -13.2842 0)
(4.15609 -12.9614 -5.67644e-19)
(4.0843 -12.6518 2.82424e-19)
(4.01508 -12.3552 -2.3708e-19)
(3.94847 -12.0712 1.19598e-20)
(3.88446 -11.7994 5.00623e-21)
(3.82298 -11.5392 4.0678e-19)
(3.76394 -11.2899 1.80761e-19)
(3.70723 -11.0511 -1.87988e-19)
(3.65277 -10.8223 0)
(3.60047 -10.6028 3.06979e-19)
(3.55019 -10.3921 -1.54117e-19)
(3.50174 -10.1895 0)
(3.45544 -9.99358 1.29978e-19)
(3.4121 -9.80223 3.63613e-19)
(3.3657 -9.61468 -1.27646e-19)
(6.13736 -18.495 4.36752e-19)
(5.49581 -18.0429 -3.42662e-20)
(5.55164 -17.5274 -2.45588e-20)
(5.44326 -17.1565 -3.83174e-19)
(5.37999 -16.8028 6.79683e-19)
(5.32136 -16.4506 -1.23375e-18)
(5.25481 -16.0927 1.17246e-18)
(5.18116 -15.7265 5.16602e-19)
(5.10144 -15.3541 -2.99224e-20)
(5.01695 -14.9794 -2.72139e-20)
(4.92939 -14.6069 -1.40241e-20)
(4.84045 -14.2403 -9.72613e-21)
(4.75154 -13.8826 -3.61788e-19)
(4.66378 -13.5359 1.86779e-20)
(4.57798 -13.2015 1.70444e-20)
(4.49468 -12.8802 5.84883e-19)
(4.41421 -12.5721 -2.6822e-19)
(4.33672 -12.2771 2.50104e-19)
(4.26224 -11.9947 4.56825e-19)
(4.19073 -11.7244 -2.3099e-19)
(4.12209 -11.4657 -2.0406e-19)
(4.0562 -11.218 1.91054e-19)
(3.99294 -10.9806 0)
(3.93222 -10.7531 -3.29252e-19)
(3.87393 -10.535 1.48828e-20)
(3.81792 -10.3258 1.5628e-19)
(3.76399 -10.1246 2.73236e-19)
(3.7125 -9.93028 -2.69089e-19)
(3.66431 -9.74057 1.18922e-19)
(3.61272 -9.55505 -1.04895e-20)
(6.62246 -18.3391 2.32231e-18)
(5.97441 -17.919 4.52185e-19)
(6.01982 -17.4119 -3.68236e-19)
(5.90321 -17.0495 7.70217e-19)
(5.83105 -16.7001 1.35068e-18)
(5.76265 -16.3499 -1.90944e-20)
(5.68568 -15.993 0)
(5.60112 -15.6272 0)
(5.51022 -15.2552 0)
(5.4145 -14.881 4.57125e-19)
(5.31587 -14.5092 0)
(5.21613 -14.1436 0)
(5.1168 -13.787 3.62843e-19)
(5.01904 -13.4418 -3.26914e-19)
(4.92369 -13.109 6.2503e-19)
(4.83131 -12.7894 -5.89866e-19)
(4.74219 -12.4831 7.98782e-19)
(4.65647 -12.1899 -2.65248e-19)
(4.57416 -11.9094 2.3631e-19)
(4.49518 -11.6409 -4.29744e-19)
(4.41942 -11.384 1.03146e-18)
(4.34672 -11.1379 -3.95606e-19)
(4.27696 -10.9022 5.34672e-19)
(4.21001 -10.6762 -1.86319e-19)
(4.14577 -10.4597 -1.66459e-19)
(4.08408 -10.252 1.50179e-19)
(4.02473 -10.0525 4.16449e-19)
(3.96812 -9.85989 -2.71042e-19)
(3.91515 -9.67197 1.25124e-19)
(3.85847 -9.4887 -1.18151e-19)
(7.10358 -18.1705 4.18295e-21)
(6.45021 -17.7824 4.20854e-21)
(6.4856 -17.2836 8.17251e-19)
(6.36105 -16.9298 -7.25519e-19)
(6.28007 -16.5846 2.45821e-20)
(6.20192 -16.2367 -6.31949e-19)
(6.11447 -15.881 -5.65965e-19)
(6.01893 -15.516 1.09412e-18)
(5.91678 -15.1446 0)
(5.8098 -14.7712 -4.57126e-19)
(5.70005 -14.4005 -4.11852e-19)
(5.5895 -14.0361 4.04227e-19)
(5.47974 -13.6811 -3.62844e-19)
(5.372 -13.3376 0)
(5.26713 -13.0067 -2.96565e-19)
(5.16568 -12.6892 8.91742e-19)
(5.06795 -12.385 -2.71357e-19)
(4.97405 -12.0939 4.96411e-19)
(4.88395 -11.8154 -1.18523e-18)
(4.79756 -11.549 8.86962e-19)
(4.71471 -11.294 -1.03654e-18)
(4.63526 -11.0498 3.98068e-19)
(4.55904 -10.8159 -1.81415e-19)
(4.48591 -10.5917 -1.63498e-19)
(4.41577 -10.3769 1.60509e-20)
(4.34845 -10.1709 4.53035e-19)
(4.28373 -9.97321 -5.66309e-19)
(4.22208 -9.78246 2.72959e-19)
(4.16442 -9.5965 -1.25125e-19)
(4.10276 -9.41569 1.20019e-19)
(7.5804 -17.9893 -4.05982e-20)
(6.92288 -17.6329 -1.81175e-18)
(6.94865 -17.1426 -1.61072e-18)
(6.81639 -16.7974 2.37229e-20)
(6.7267 -16.4566 -6.70583e-19)
(6.63879 -16.111 6.57444e-19)
(6.54083 -15.7567 0)
(6.43424 -15.3928 -5.39066e-19)
(6.3208 -15.0223 0)
(6.2025 -14.6501 0)
(6.08161 -14.2807 -4.13908e-19)
(5.96023 -13.918 7.89711e-19)
(5.84005 -13.5649 -3.76447e-19)
(5.72235 -13.2234 6.60795e-19)
(5.60799 -12.8948 -1.5782e-18)
(5.49753 -12.5795 6.03668e-19)
(5.39123 -12.2776 0)
(5.28919 -11.9889 -7.52305e-19)
(5.19135 -11.7127 4.89304e-19)
(5.09759 -11.4486 0)
(5.00772 -11.1958 -2.0913e-19)
(4.92156 -10.9537 0)
(4.83893 -10.7218 1.7411e-19)
(4.75967 -10.4996 -6.87938e-19)
(4.68368 -10.2866 7.77993e-21)
(4.61078 -10.0825 -2.96636e-19)
(4.54077 -9.88677 -2.7237e-19)
(4.47415 -9.69805 2.7484e-19)
(4.41189 -9.51422 -2.47606e-19)
(4.34539 -9.33609 2.56481e-19)
(8.05258 -17.7955 0)
(7.39205 -17.4708 0)
(7.40859 -16.989 7.97182e-19)
(7.26888 -16.6522 -2.73652e-20)
(7.17058 -16.3159 -6.73739e-19)
(7.07291 -15.9729 6.60539e-19)
(6.96438 -15.6203 -5.71382e-19)
(6.8467 -15.2576 1.10452e-18)
(6.72191 -14.8885 -5.02076e-19)
(6.59226 -14.5177 -4.49473e-19)
(6.46021 -14.15 2.51503e-20)
(6.32801 -13.7893 7.93555e-19)
(6.19743 -13.4384 3.36686e-19)
(6.0698 -13.0993 -3.60058e-19)
(5.94599 -12.7732 -6.17692e-19)
(5.82655 -12.4605 6.06782e-19)
(5.71174 -12.1612 2.75776e-19)
(5.60162 -11.8751 0)
(5.4961 -11.6015 0)
(5.39502 -11.3398 2.24707e-19)
(5.29819 -11.0894 6.18654e-19)
(5.20537 -10.8497 -7.86598e-19)
(5.11638 -10.62 2.01276e-19)
(5.03105 -10.3999 8.65631e-19)
(4.94927 -10.189 -1.70723e-19)
(4.87085 -9.98695 0)
(4.7956 -9.79328 2.87267e-19)
(4.72409 -9.60676 0)
(4.65735 -9.42521 2.49349e-19)
(4.58616 -9.24998 -3.85143e-19)
(8.51977 -17.5893 -9.00613e-19)
(7.85736 -17.296 1.83211e-18)
(7.86507 -16.8227 8.28617e-19)
(7.71818 -16.4945 0)
(7.61133 -16.1627 -6.99648e-19)
(7.5039 -15.8224 0)
(7.38477 -15.4717 -5.93009e-19)
(7.25596 -15.1106 -1.4875e-20)
(7.11977 -14.7431 -1.70891e-20)
(6.97874 -14.3741 -4.65887e-19)
(6.83554 -14.0084 -4.30905e-19)
(6.69252 -13.65 -3.99064e-19)
(6.55157 -13.3016 0)
(6.41404 -12.9652 3.25405e-19)
(6.28083 -12.6419 -3.46887e-20)
(6.15248 -12.3321 -6.09805e-19)
(6.02921 -12.0358 -8.14802e-19)
(5.91106 -11.7525 2.71116e-19)
(5.79792 -11.4817 4.70177e-19)
(5.68959 -11.2228 -1.12681e-18)
(5.58584 -10.975 2.2105e-19)
(5.48643 -10.7377 0)
(5.39114 -10.5105 0)
(5.29979 -10.2927 1.6658e-19)
(5.21227 -10.0841 -4.98558e-19)
(5.12839 -9.88424 0)
(5.04798 -9.69283 -1.44103e-19)
(4.97167 -9.50866 0)
(4.90054 -9.32956 0)
(4.82482 -9.15745 4.98306e-19)
(8.98166 -17.3708 -1.8985e-18)
(8.31846 -17.1087 -8.94566e-19)
(8.31772 -16.6439 -8.28621e-19)
(8.16392 -16.3242 0)
(8.0486 -15.997 1.40236e-18)
(7.93141 -15.6596 -6.25814e-19)
(7.80165 -15.311 6.30134e-19)
(7.66165 -14.9518 5.65408e-19)
(7.51404 -14.5861 5.06531e-19)
(7.36162 -14.2193 9.19462e-19)
(7.20726 -13.856 -1.41755e-20)
(7.05345 -13.5002 2.20245e-20)
(6.90216 -13.1547 7.63646e-19)
(6.75479 -12.8214 -6.70539e-19)
(6.61223 -12.5012 6.58551e-19)
(6.47502 -12.1945 5.80944e-19)
(6.34335 -11.9013 -1.11253e-18)
(6.21724 -11.6211 1.0509e-18)
(6.09654 -11.3534 -4.72628e-19)
(5.98101 -11.0974 4.64687e-19)
(5.87041 -10.8525 9.98377e-21)
(5.76446 -10.618 7.95472e-19)
(5.66293 -10.3934 -3.81888e-19)
(5.56563 -10.1781 5.17467e-19)
(5.47242 -9.97192 -1.72716e-19)
(5.38315 -9.77449 0)
(5.29764 -9.58551 0)
(5.21661 -9.40385 -3.98625e-19)
(5.14121 -9.22738 5.28004e-19)
(5.06115 -9.05862 1.27738e-19)
(9.43791 -17.1401 1.90427e-18)
(8.77501 -16.9089 0)
(8.76618 -16.4526 8.0785e-19)
(8.60575 -16.1413 -7.91837e-19)
(8.48203 -15.8188 2.97868e-21)
(8.35507 -15.4845 6.28495e-19)
(8.21465 -15.1383 -6.16274e-19)
(8.06343 -14.7812 0)
(7.90438 -14.4178 -5.06534e-19)
(7.74056 -14.0534 9.11057e-19)
(7.57505 -13.6929 -8.94004e-19)
(7.41049 -13.3401 3.80466e-19)
(7.24891 -12.9978 -1.49199e-18)
(7.09174 -12.6677 3.82769e-20)
(6.9399 -12.351 1.28817e-18)
(6.79389 -12.0477 -6.15565e-19)
(6.6539 -11.7579 5.44318e-19)
(6.51989 -11.4811 -7.9484e-19)
(6.39168 -11.2167 -4.74996e-19)
(6.26903 -10.9639 4.67015e-19)
(6.15163 -10.7221 -6.28861e-19)
(6.03921 -10.4906 4.09445e-19)
(5.93149 -10.2688 0)
(5.82828 -10.0563 -1.75454e-19)
(5.72945 -9.85267 0)
(5.63484 -9.65781 0)
(5.5443 -9.47143 -5.72704e-19)
(5.45862 -9.29244 4.26598e-19)
(5.37907 -9.11878 5.08844e-19)
(5.29487 -8.95359 -1.0337e-18)
(9.88819 -16.8973 -9.13834e-19)
(9.22671 -16.6968 9.49257e-19)
(9.21013 -16.2488 8.11236e-19)
(9.04331 -15.946 -7.95156e-19)
(8.91125 -15.6283 -7.05698e-19)
(8.77452 -15.2971 -6.31099e-19)
(8.62342 -14.9536 3.74508e-20)
(8.46096 -14.599 1.10626e-18)
(8.29045 -14.2382 -5.25849e-19)
(8.11524 -13.8766 0)
(7.9386 -13.5191 0)
(7.76332 -13.1696 7.84621e-19)
(7.59151 -12.8308 -7.70258e-19)
(7.42461 -12.5044 0)
(7.26355 -12.1913 0)
(7.10882 -11.8918 0)
(6.96057 -11.6057 0)
(6.81872 -11.3325 0)
(6.68309 -11.0716 -4.77276e-19)
(6.55336 -10.8223 4.69256e-19)
(6.42923 -10.5838 4.18359e-19)
(6.31038 -10.3555 -4.11506e-19)
(6.19653 -10.1367 0)
(6.08747 -9.92714 0)
(5.98307 -9.72637 0)
(5.88317 -9.53428 0)
(5.78766 -9.35066 0)
(5.69742 -9.17453 0)
(5.6138 -9.00387 0)
(5.52567 -8.84248 0)
(10.3322 -16.6426 0)
(9.67322 -16.4725 0)
(9.64925 -16.0328 0)
(9.47625 -15.7383 0)
(9.33591 -15.4255 1.42283e-18)
(9.18942 -15.0977 1.30936e-18)
(9.02762 -14.757 6.22047e-19)
(8.85389 -14.4052 1.68375e-18)
(8.67192 -14.0473 0)
(8.48533 -13.6888 0)
(8.2976 -13.3348 1.72633e-18)
(8.11166 -12.9889 -1.62214e-18)
(7.92966 -12.654 2.25727e-18)
(7.75311 -12.3315 -1.86775e-20)
(7.58292 -12.0224 6.50218e-19)
(7.41953 -11.7269 1.66257e-20)
(7.26309 -11.4447 1.14305e-18)
(7.11349 -11.1754 5.12868e-19)
(6.97048 -10.9183 -1.17492e-20)
(6.83374 -10.6726 4.48709e-19)
(6.70293 -10.4376 -4.41264e-19)
(6.57771 -10.2127 0)
(6.45777 -9.99728 3.79517e-19)
(6.34291 -9.79085 3.56472e-19)
(6.23297 -9.59312 3.35128e-19)
(6.12783 -9.40398 3.15334e-19)
(6.02741 -9.22333 5.79485e-19)
(5.93266 -9.05024 -2.46316e-20)
(5.84508 -8.88275 -1.0532e-18)
(5.75325 -8.72539 2.10011e-20)
(10.7696 -16.3761 2.85259e-18)
(10.1142 -16.2361 -9.56644e-19)
(10.0832 -15.8045 8.74e-19)
(9.90422 -15.5183 -7.52e-19)
(9.75566 -15.2104 -3.54217e-18)
(9.59941 -14.8863 6.82468e-19)
(9.42688 -14.5487 -1.79167e-18)
(9.24189 -14.1999 5.78783e-19)
(9.04845 -13.8452 -3.1728e-20)
(8.85051 -13.4903 -9.78638e-19)
(8.65174 -13.14 -8.50065e-19)
(8.45519 -12.7981 8.37547e-19)
(8.2631 -12.4673 -7.52814e-19)
(8.07697 -12.1491 6.84727e-19)
(7.89771 -11.8443 -1.32007e-18)
(7.72576 -11.553 2.39191e-21)
(7.5612 -11.275 -1.116e-18)
(7.40391 -11.0098 5.27994e-19)
(7.25359 -10.7567 -2.26978e-20)
(7.1099 -10.5149 -2.27481e-20)
(6.97245 -10.2837 -1.29878e-18)
(6.8409 -10.0624 4.15359e-19)
(6.71491 -9.85049 -7.6078e-19)
(6.59428 -9.64744 1.6863e-21)
(6.47885 -9.45298 -9.9231e-19)
(6.36851 -9.26703 3.31613e-19)
(6.2632 -9.08954 -5.82717e-19)
(6.164 -8.91968 5.73873e-19)
(6.07254 -8.75557 2.65331e-19)
(5.97725 -8.60246 0)
(11.2002 -16.0981 6.93551e-21)
(10.5495 -15.9878 1.83311e-18)
(10.5117 -15.5642 -1.69177e-18)
(10.3269 -15.2862 -5.81495e-21)
(10.1702 -14.9833 2.86191e-18)
(10.0041 -14.6629 4.8062e-21)
(9.82088 -14.3287 -1.21467e-18)
(9.62461 -13.9833 -1.11548e-18)
(9.41973 -13.6322 1.02924e-18)
(9.21047 -13.2811 -9.54228e-19)
(9.00072 -12.9349 -8.79554e-19)
(8.79364 -12.5973 0)
(8.59153 -12.2709 7.36694e-19)
(8.39591 -11.9572 -2.12968e-18)
(8.20768 -11.657 0)
(8.02724 -11.3702 -6.07864e-19)
(7.85465 -11.0966 0)
(7.68973 -10.8358 -2.03208e-21)
(7.53216 -10.5869 -1.09446e-20)
(7.38156 -10.3492 -4.75379e-19)
(7.23752 -10.122 9.20792e-21)
(7.09966 -9.90457 8.14913e-19)
(6.96766 -9.69638 -1.00851e-20)
(6.84127 -9.49695 3.4385e-19)
(6.72036 -9.306 -1.02926e-18)
(6.60482 -9.12347 0)
(6.49467 -8.9494 0)
(6.39104 -8.78299 -2.82849e-19)
(6.29579 -8.62248 -2.65334e-19)
(6.19731 -8.47389 -5.20083e-19)
(11.6237 -15.8086 -1.93861e-18)
(10.9787 -15.7278 -2.72635e-18)
(10.9345 -15.3119 -8.28909e-19)
(10.7439 -15.042 1.55938e-18)
(10.579 -14.7442 -1.43361e-18)
(10.4033 -14.4277 -1.31917e-18)
(10.2093 -14.0972 1.21468e-18)
(10.0017 -13.7555 1.12334e-18)
(9.78543 -13.4082 0)
(9.5649 -13.0613 9.54236e-19)
(9.34424 -12.7195 0)
(9.12671 -12.3866 0)
(8.91468 -12.065 0)
(8.70967 -11.7561 7.04446e-19)
(8.51256 -11.4606 0)
(8.32373 -11.1786 0)
(8.14319 -10.9097 5.55734e-19)
(7.97071 -10.6534 5.17952e-19)
(7.80595 -10.4089 0)
(7.64848 -10.1755 0)
(7.49787 -9.9525 4.3668e-19)
(7.35372 -9.73917 -4.09493e-19)
(7.21568 -9.53494 3.84396e-19)
(7.08352 -9.33937 0)
(6.9571 -9.15218 3.3832e-19)
(6.83635 -8.97333 0)
(6.72131 -8.80292 0)
(6.61324 -8.64023 5.67085e-19)
(6.51424 -8.48359 0)
(6.41279 -8.33986 0)
(12.0399 -15.5079 0)
(11.4015 -15.456 0)
(11.3511 -15.0477 1.70438e-18)
(11.155 -14.7858 0)
(10.982 -14.4932 -6.9857e-19)
(10.7964 -14.1809 6.84883e-19)
(10.5917 -13.8543 -1.18433e-18)
(10.3729 -13.5166 2.25716e-18)
(10.1452 -13.1735 -3.12694e-20)
(9.9135 -12.8311 -9.60601e-19)
(9.68201 -12.4941 1.75095e-18)
(9.45414 -12.1661 -2.3278e-20)
(9.23229 -11.8496 7.63514e-19)
(9.018 -11.5458 0)
(8.81213 -11.2553 1.30116e-18)
(8.615 -10.9783 -1.22796e-18)
(8.42659 -10.7142 1.16016e-18)
(8.24663 -10.4627 -1.05388e-18)
(8.07474 -10.2228 1.01187e-18)
(7.91044 -9.99392 4.67748e-19)
(7.75328 -9.77528 1.49373e-21)
(7.60283 -9.56621 4.09497e-19)
(7.45873 -9.36614 -3.844e-19)
(7.32073 -9.17463 3.62513e-19)
(7.18872 -8.99142 3.41013e-19)
(7.06264 -8.81651 0)
(6.94259 -8.65003 -2.88743e-19)
(6.82996 -8.49131 2.5772e-20)
(6.72702 -8.33883 1.34624e-18)
(6.62259 -8.20037 -2.78369e-19)
(12.4487 -15.196 1.02444e-18)
(11.8177 -15.1727 -1.7819e-18)
(11.7614 -14.7718 5.19428e-20)
(11.5598 -14.5177 1.6269e-18)
(11.3786 -14.2304 1.44811e-18)
(11.1833 -13.9225 6.45421e-19)
(10.9679 -13.6001 1.22686e-18)
(10.7378 -13.2667 1.099e-18)
(10.4988 -12.9282 -3.12561e-18)
(10.256 -12.5907 1.9527e-18)
(10.0138 -12.2588 -1.77993e-18)
(9.77566 -11.936 2.52575e-21)
(9.54412 -11.6248 -7.63522e-19)
(9.32067 -11.3263 -7.11385e-19)
(9.10615 -11.0412 -6.59632e-19)
(8.90084 -10.7693 1.21588e-18)
(8.70466 -10.5104 -1.73664e-18)
(8.5173 -10.2637 0)
(8.33832 -10.0286 -4.9987e-19)
(8.16723 -9.80439 -4.67753e-19)
(8.00353 -9.59028 -8.66887e-19)
(7.84677 -9.38563 4.21683e-19)
(7.69657 -9.1899 7.55485e-19)
(7.55267 -9.00265 -1.10594e-18)
(7.41496 -8.82365 -3.41017e-19)
(7.2834 -8.65291 -6.2972e-19)
(7.15816 -8.49061 3.17378e-19)
(7.04071 -8.33614 -8.45791e-19)
(6.93346 -8.18816 2.82422e-19)
(6.82575 -8.05521 -2.68764e-19)
(12.8502 -14.8733 -3.69461e-20)
(12.227 -14.8781 8.79054e-19)
(12.165 -14.4844 1.72201e-18)
(11.9581 -14.238 -8.11113e-19)
(11.7687 -13.956 -1.45281e-18)
(11.5636 -13.6527 -1.29029e-18)
(11.3374 -13.3348 -5.92395e-19)
(11.0962 -13.006 -1.13059e-18)
(10.8459 -12.6725 1.04615e-18)
(10.592 -12.3401 0)
(10.3392 -12.0136 8.91339e-19)
(10.091 -11.6965 -8.25656e-19)
(9.8499 -11.3908 -7.68087e-19)
(9.61744 -11.098 7.11392e-19)
(9.39441 -10.8183 -6.6357e-19)
(9.18103 -10.5519 -6.16215e-19)
(8.97719 -10.2981 5.59472e-19)
(8.78252 -10.0565 -5.51435e-19)
(8.59652 -9.82638 0)
(8.41867 -9.60692 0)
(8.24843 -9.39745 0)
(8.08532 -9.19736 8.06732e-19)
(7.92895 -9.00611 -7.93685e-19)
(7.77906 -8.82331 0)
(7.63555 -8.64875 0)
(7.4984 -8.4825 0)
(7.36786 -8.32482 0)
(7.24546 -8.17511 -2.87549e-19)
(7.13371 -8.03208 -5.3198e-19)
(7.02266 -7.90469 2.80944e-19)
(13.2452 -14.5405 9.47449e-19)
(12.6296 -14.5724 -9.77048e-19)
(12.5614 -14.1854 -2.55725e-18)
(12.3495 -13.9464 2.40454e-18)
(12.1517 -13.67 -7.05305e-19)
(11.9368 -13.3715 6.91486e-19)
(11.6999 -13.0584 3.87869e-20)
(11.4475 -12.7347 3.41143e-18)
(11.1861 -12.4064 -2.12709e-18)
(10.9213 -12.0796 9.69074e-19)
(10.658 -11.7589 8.96393e-19)
(10.3999 -11.4476 8.06455e-19)
(10.1494 -11.1478 7.46588e-19)
(9.90809 -10.8608 -6.9559e-19)
(9.6767 -10.5869 1.3648e-18)
(9.45541 -10.326 6.3586e-19)
(9.24404 -10.0776 5.76241e-19)
(9.04216 -9.84125 -5.25479e-19)
(8.84922 -9.6161 1.00788e-18)
(8.66464 -9.40147 -4.83088e-19)
(8.48783 -9.19669 0)
(8.31828 -9.00118 0)
(8.15556 -8.81446 0)
(7.99942 -8.6362 7.13977e-19)
(7.84977 -8.46628 -7.02721e-19)
(7.70668 -8.30492 0)
(7.57057 -8.15249 0)
(7.44318 -8.00837 2.87553e-19)
(7.32721 -7.8712 -5.34161e-19)
(7.21387 -7.7508 8.2616e-19)
(13.6352 -14.1983 -4.05443e-20)
(13.026 -14.2551 -9.80422e-19)
(12.9501 -13.8743 -1.7325e-18)
(12.7335 -13.6431 -8.16462e-19)
(12.5275 -13.3725 7.07402e-19)
(12.3026 -13.0793 -1.34443e-18)
(12.055 -12.7713 -1.23413e-18)
(11.7916 -12.453 -1.13718e-18)
(11.5191 -12.1303 0)
(11.2436 -11.8094 -1.91176e-18)
(10.97 -11.4948 9.27376e-19)
(10.7021 -11.1896 -8.08602e-19)
(10.4424 -10.896 7.95791e-19)
(10.1924 -10.6151 0)
(9.95287 -10.3471 -6.65367e-19)
(9.72384 -10.0919 6.21179e-19)
(9.5051 -9.84906 5.79166e-19)
(9.29615 -9.61795 0)
(9.09639 -9.39785 0)
(8.90516 -9.18805 0)
(8.72181 -8.98791 4.42616e-19)
(8.54573 -8.79686 -3.95226e-19)
(8.37642 -8.61447 7.97047e-19)
(8.21354 -8.44051 3.65711e-19)
(8.0569 -8.27501 0)
(7.90658 -8.11842 0)
(7.76327 -7.97127 -2.92923e-19)
(7.62912 -7.83298 8.7646e-19)
(7.50685 -7.70334 0)
(7.38969 -7.59545 0)
(14.0194 -13.8443 -1.93789e-18)
(13.4162 -13.9245 9.83543e-19)
(13.3308 -13.5506 8.9238e-19)
(13.1093 -13.3286 5.18632e-20)
(12.8956 -13.064 -7.05274e-19)
(12.6609 -12.7764 1.34444e-18)
(12.4027 -12.4739 0)
(12.1283 -12.1613 0)
(11.8449 -11.8446 0)
(11.5588 -11.5299 -9.45113e-19)
(11.275 -11.2216 2.86604e-20)
(10.9975 -10.9229 0)
(10.7288 -10.6357 -7.72194e-19)
(10.4704 -10.3611 0)
(10.2229 -10.0992 0)
(9.98629 -9.84986 -1.22729e-18)
(9.76037 -9.61265 1.63547e-20)
(9.54455 -9.3869 0)
(9.33815 -9.17187 0)
(9.14046 -8.96687 4.6185e-19)
(8.95072 -8.77122 -8.96809e-19)
(8.76826 -8.58438 -1.22626e-18)
(8.59241 -8.4059 7.98207e-19)
(8.42262 -8.23556 -3.65716e-19)
(8.25838 -8.07346 0)
(8.09937 -7.92015 0)
(7.94598 -7.7761 -3.04964e-19)
(7.79986 -7.64132 -2.87655e-19)
(7.66132 -7.51982 5.32824e-19)
(7.5262 -7.42942 -5.53844e-19)
(19.965 0.122415 9.63573e-20)
(19.9491 -0.403625 1.25617e-19)
(19.92 -0.926853 3.79597e-19)
(19.8791 -1.44783 5.02246e-19)
(19.8256 -1.96682 -2.56754e-19)
(19.759 -2.48372 2.56626e-19)
(19.6789 -2.99826 2.22851e-20)
(19.5855 -3.51018 -5.13047e-19)
(19.4787 -4.01919 1.02436e-18)
(19.3588 -4.52496 -1.53659e-18)
(19.2256 -5.02719 1.02289e-18)
(19.0795 -5.52552 -1.51183e-18)
(18.9203 -6.01963 -1.53164e-18)
(18.7484 -6.50919 1.12613e-21)
(18.5637 -6.99387 4.50235e-20)
(18.3665 -7.47333 0)
(18.1569 -7.94727 9.72987e-19)
(17.9351 -8.41535 2.03034e-18)
(17.7013 -8.87727 -2.02813e-18)
(17.4555 -9.33272 9.67912e-19)
(17.198 -9.7814 0)
(16.929 -10.223 -2.98021e-18)
(16.6488 -10.6573 3.70284e-21)
(16.3574 -11.0839 2.01192e-18)
(16.0551 -11.5027 0)
(15.7423 -11.9133 -1.04295e-18)
(15.419 -12.3158 4.79778e-20)
(15.0859 -12.7098 -9.49055e-19)
(14.7421 -13.0961 9.97012e-19)
(14.3911 -13.4731 1.94208e-18)
(19.8895 -0.370056 0)
(19.8576 -0.892433 -6.37812e-20)
(19.8112 -1.41168 -9.35247e-21)
(19.751 -1.92814 -2.55046e-19)
(19.6774 -2.44207 -4.86311e-19)
(19.5902 -2.95332 4.8631e-19)
(19.4896 -3.46154 5.09621e-19)
(19.3757 -3.9664 0)
(19.2485 -4.46759 -9.70845e-19)
(19.1081 -4.96478 4.9907e-19)
(18.9548 -5.45762 -4.71435e-19)
(18.7885 -5.94579 1.00532e-18)
(18.6095 -6.42894 -4.97874e-19)
(18.4179 -6.90674 -9.66446e-19)
(18.2139 -7.37886 1.979e-18)
(17.9976 -7.84497 0)
(17.7693 -8.30477 -1.97268e-18)
(17.5291 -8.75792 9.62719e-19)
(17.2771 -9.20414 0)
(17.0138 -9.64312 -1.00543e-18)
(16.7391 -10.0746 -1.91311e-18)
(16.4535 -10.4982 2.91513e-18)
(16.157 -10.9138 -1.906e-18)
(15.85 -11.321 1.90602e-18)
(15.5326 -11.7197 0)
(15.2052 -12.1096 1.82222e-18)
(14.8678 -12.4907 -9.02105e-19)
(14.5208 -12.8627 9.90083e-19)
(14.1634 -13.2258 0)
(13.7968 -13.5796 -9.85814e-19)
(19.6832 -0.185448 0)
(19.6571 -0.699892 0)
(19.6163 -1.21273 -7.05127e-21)
(19.5613 -1.72351 2.17619e-19)
(19.4922 -2.23199 -4.49812e-19)
(19.4093 -2.73784 6.67421e-19)
(19.3128 -3.24072 0)
(19.2028 -3.74024 4.35003e-19)
(19.0793 -4.23608 8.98327e-19)
(18.9426 -4.72787 4.61828e-19)
(18.7928 -5.21528 -4.35707e-19)
(18.63 -5.69797 2.76765e-20)
(18.4544 -6.17558 4.06024e-19)
(18.2662 -6.64778 -1.76107e-18)
(18.0655 -7.11424 1.76017e-18)
(17.8526 -7.57463 -8.64578e-19)
(17.6276 -8.02862 -8.91325e-19)
(17.3907 -8.47589 8.91329e-19)
(17.1422 -8.91614 -8.61133e-19)
(16.8823 -9.34907 -8.59824e-19)
(16.6112 -9.77437 0)
(16.3291 -10.1918 -9.11497e-19)
(16.0363 -10.601 1.76849e-18)
(15.733 -11.0018 1.76173e-18)
(15.4194 -11.3939 -1.76175e-18)
(15.0958 -11.7771 -5.34911e-20)
(14.7623 -12.1511 -1.75051e-18)
(14.4191 -12.5158 2.59714e-18)
(14.066 -12.8709 1.74208e-18)
(13.7034 -13.2157 -8.99656e-19)
(19.3728 -0.208243 0)
(19.3487 -0.713044 0)
(19.3104 -1.21676 -1.06635e-19)
(19.258 -1.71877 -2.13306e-19)
(19.1917 -2.21866 -1.99523e-19)
(19.1116 -2.71606 1.85763e-19)
(19.0178 -3.21061 4.12075e-19)
(18.9104 -3.70195 -1.25041e-18)
(18.7896 -4.1897 4.1195e-19)
(18.6555 -4.67351 0)
(18.5083 -5.153 3.98433e-19)
(18.3481 -5.62784 4.254e-19)
(18.1751 -6.09765 -8.50088e-19)
(17.9894 -6.56209 1.64436e-18)
(17.7914 -7.02082 -2.87305e-20)
(17.5811 -7.4735 2.77624e-20)