/*--------------------------------*- C++ -*----------------------------------*\
  =========                 |
  \\      /  F ield         | OpenFOAM: The Open Source CFD Toolbox
   \\    /   O peration     | Website:  https://openfoam.org
    \\  /    A nd           | Version:  6.0
     \\/     M anipulation  |
\*---------------------------------------------------------------------------*/
FoamFile
{
    version     2.0;
    format      ascii;
    class       volVectorField;
    location    "17";
    object      U;
}
// * * * * * * * * * * * * * * * * * * * * * * * * * * * * * * * * * * * * * //

dimensions      [0 1 -1 0 0 0 0];

internalField   nonuniform List<vector> 
9600
(
(0.963755 -14.1687 -2.32678e-20)
(0.264235 -13.3531 -2.5829e-20)
(0.305629 -12.7925 4.3952e-21)
(0.411897 -12.3485 -1.75397e-20)
(0.470493 -11.9578 8.31318e-21)
(0.521148 -11.5831 -6.9665e-21)
(0.56816 -11.2101 -1.46586e-20)
(0.608344 -10.8369 1.44076e-20)
(0.641817 -10.4662 5.27451e-21)
(0.669697 -10.1021 -7.95309e-20)
(0.693009 -9.74843 4.47338e-20)
(0.712655 -9.40807 -3.96751e-20)
(0.729417 -9.08292 -1.82311e-20)
(0.74394 -8.77404 2.53637e-20)
(0.756751 -8.48171 -1.68438e-20)
(0.76825 -8.20568 -9.05076e-21)
(0.778726 -7.94508 1.69389e-20)
(0.788651 -7.69845 -2.0179e-20)
(0.798975 -7.46345 -5.33781e-21)
(0.807648 -7.23692 -1.10197e-20)
(1.51986 -14.1364 -2.54549e-19)
(0.792293 -13.3755 -1.40141e-19)
(0.812732 -12.8299 6.83995e-20)
(0.901474 -12.3899 -9.33858e-20)
(0.9441 -11.9997 2.23553e-20)
(0.979044 -11.6224 -2.77808e-20)
(1.0102 -11.2452 1.20735e-19)
(1.03445 -10.8673 -1.67264e-21)
(1.05212 -10.4921 -7.90226e-20)
(1.06455 -10.124 1.0452e-19)
(1.07294 -9.767 5.4393e-20)
(1.07833 -9.42391 -3.74681e-21)
(1.08155 -9.09663 6.85877e-20)
(1.08328 -8.78609 -3.42258e-21)
(1.08404 -8.49254 2.7942e-20)
(1.0842 -8.21565 7.41814e-20)
(1.08399 -7.95456 2.86086e-20)
(1.08388 -7.70773 4.33889e-20)
(1.08491 -7.47272 -2.14117e-20)
(1.0845 -7.24637 4.33514e-20)
(2.07606 -14.0834 4.13601e-19)
(1.32225 -13.3774 2.9654e-19)
(1.3228 -12.847 -4.33744e-19)
(1.39444 -12.4114 -2.11757e-19)
(1.4211 -12.022 1.69718e-19)
(1.44009 -11.6425 3.11301e-19)
(1.45504 -11.2617 -3.81912e-19)
(1.46297 -10.8797 9.94212e-20)
(1.46448 -10.5006 -1.84638e-19)
(1.46115 -10.1292 -1.3149e-19)
(1.45437 -9.76951 1.18812e-19)
(1.44529 -9.42436 -6.54916e-20)
(1.43482 -9.09557 -1.85449e-19)
(1.42364 -8.78397 1.01717e-19)
(1.41227 -8.48974 -3.29178e-20)
(1.40103 -8.21251 -4.01084e-21)
(1.39011 -7.95138 3.99115e-20)
(1.37996 -7.70481 8.22015e-20)
(1.37172 -7.47024 -1.00685e-19)
(1.36211 -7.24457 8.27679e-20)
(2.62988 -14.009 -2.28491e-19)
(1.85297 -13.3586 1.08418e-19)
(1.83484 -12.8437 1.44159e-19)
(1.88984 -12.4128 2.12547e-19)
(1.90058 -12.0244 -6.62198e-20)
(1.90341 -11.6433 6.93297e-20)
(1.90181 -11.2593 -4.70641e-20)
(1.89308 -10.8738 1.10015e-19)
(1.87811 -10.4916 2.56721e-19)
(1.85875 -10.1176 -1.51945e-19)
(1.83658 -9.75591 -9.40918e-20)
(1.81287 -9.40939 -1.08165e-19)
(1.78857 -9.07972 -4.08023e-20)
(1.7644 -8.76766 9.20823e-20)
(1.74084 -8.4733 -5.80739e-20)
(1.71818 -8.19622 -2.0059e-19)
(1.69654 -7.93554 1.56236e-19)
(1.67639 -7.68967 -1.05434e-19)
(1.65892 -7.45598 -1.23228e-20)
(1.64005 -7.23151 -1.00508e-20)
(3.18127 -13.9133 -2.93048e-19)
(2.38413 -13.319 -5.31835e-19)
(2.34827 -12.8197 6.31864e-19)
(2.38692 -12.3937 -1.75998e-19)
(2.38172 -12.0068 -5.31471e-19)
(2.36815 -11.6244 -1.17855e-20)
(2.34969 -11.2378 -2.05193e-19)
(2.32396 -10.8495 -5.84157e-20)
(2.29222 -10.4649 -1.60392e-19)
(2.25658 -10.089 3.81355e-19)
(2.21884 -9.72609 -5.27788e-19)
(2.18037 -9.37889 1.35536e-19)
(2.14217 -9.04901 -2.32215e-19)
(2.10495 -8.7371 3.16922e-19)
(2.06917 -8.44317 -2.96404e-19)
(2.03508 -8.16675 1.59157e-19)
(2.00275 -7.90698 -9.44612e-20)
(1.97265 -7.66225 2.58846e-20)
(1.94603 -7.42988 1.03635e-19)
(1.91787 -7.20716 -1.14222e-20)
(3.72916 -13.7963 8.06441e-20)
(2.9148 -13.2584 5.00935e-19)
(2.8622 -12.775 3.29199e-19)
(2.88478 -12.3541 -2.26708e-19)
(2.86362 -11.969 5.86878e-19)
(2.83342 -11.5858 9.21055e-20)
(2.7978 -11.1972 4.89434e-21)
(2.75478 -10.8068 -2.70687e-19)
(2.706 -10.4204 5.27448e-20)
(2.65389 -10.0435 3.72282e-19)
(2.60043 -9.68002 -1.79356e-19)
(2.54709 -9.33285 3.36186e-19)
(2.49494 -9.00342 -8.78429e-20)
(2.44465 -8.69228 -7.72765e-20)
(2.39666 -8.39933 1.70291e-19)
(2.35116 -8.1241 1.89813e-19)
(2.30817 -7.86571 -1.04981e-19)
(2.26821 -7.62258 8.43568e-20)
(2.23254 -7.39195 -2.34494e-19)
(2.1951 -7.17154 2.99593e-19)
(4.27283 -13.658 6.86853e-19)
(3.44425 -13.1767 -8.62065e-19)
(3.37583 -12.7092 -7.59995e-19)
(3.38256 -12.2936 8.10364e-19)
(3.34539 -11.9107 -2.69714e-19)
(3.29835 -11.5272 -4.09851e-19)
(3.24528 -11.1372 3.844e-19)
(3.18468 -10.7455 2.0885e-20)
(3.11864 -10.3582 1.37479e-19)
(3.04988 -9.98087 -4.43858e-19)
(2.98059 -9.61768 2.26317e-19)
(2.91234 -9.27126 -1.8691e-19)
(2.8462 -8.94297 5.31114e-19)
(2.78285 -8.63321 -2.92184e-19)
(2.72267 -8.34183 2.04256e-20)
(2.66581 -8.0683 -4.1504e-20)
(2.61224 -7.81176 -4.15441e-20)
(2.56251 -7.57066 7.16828e-20)
(2.51792 -7.34222 4.79976e-20)
(2.47124 -7.1247 -5.24269e-20)
(4.81138 -13.4983 -9.98425e-19)
(3.97157 -13.0737 5.75584e-19)
(3.88827 -12.6223 1.20363e-19)
(3.87937 -12.2123 -2.08594e-20)
(3.82613 -11.8318 -3.33586e-21)
(3.76203 -11.4486 2.85469e-19)
(3.69124 -11.0579 -7.56894e-19)
(3.61283 -10.6656 -8.40931e-20)
(3.52932 -10.2781 -1.63647e-19)
(3.44379 -9.90125 2.03352e-19)
(3.35859 -9.53908 1.17355e-20)
(3.27539 -9.19416 2.08899e-19)
(3.19528 -8.86768 -1.45142e-20)
(3.11889 -8.55994 -5.01297e-19)
(3.04658 -8.2707 -1.15979e-19)
(2.97843 -7.99939 4.54237e-19)
(2.91435 -7.7452 -1.7018e-19)
(2.85499 -7.50657 -4.24463e-20)
(2.80161 -7.28075 -7.134e-21)
(2.7458 -7.0667 3.14146e-20)
(5.344 -13.3175 6.3594e-19)
(4.49591 -12.9495 -6.33412e-19)
(4.39862 -12.5142 -9.48434e-19)
(4.3743 -12.1099 -1.34918e-19)
(4.30491 -11.7323 -4.14282e-19)
(4.22354 -11.3499 -1.28988e-19)
(4.13479 -10.9593 -4.16483e-19)
(4.03835 -10.567 7.60736e-19)
(3.93723 -10.1802 -3.25986e-19)
(3.83482 -9.80463 -1.62926e-19)
(3.73368 -9.44428 -7.27806e-20)
(3.63553 -9.10158 2.24198e-19)
(3.54148 -8.77761 -1.91389e-21)
(3.45212 -8.47254 -7.68285e-20)
(3.36774 -8.18602 -1.67544e-19)
(3.28838 -7.91747 -2.00671e-19)
(3.2139 -7.6661 2.85883e-19)
(3.14503 -7.43039 1.18187e-19)
(3.08303 -7.20762 -5.16861e-19)
(3.01821 -6.99765 4.65764e-20)
(5.86983 -13.1158 -6.44448e-19)
(5.01636 -12.8039 1.48607e-18)
(4.90598 -12.3848 -1.12392e-18)
(4.86641 -11.9864 7.02435e-19)
(4.78081 -11.6121 8.95092e-19)
(4.68198 -11.2311 -3.20314e-19)
(4.57505 -10.8412 5.32812e-21)
(4.46039 -10.4499 8.30941e-20)
(4.34153 -10.0646 3.26104e-19)
(4.22219 -9.69108 -3.32548e-19)
(4.10509 -9.33333 -2.05425e-19)
(3.99203 -8.99361 2.20584e-19)
(3.88409 -8.67285 -1.13474e-20)
(3.78184 -8.37109 3.61902e-20)
(3.68549 -8.08788 4.16956e-19)
(3.59501 -7.82263 -2.11632e-19)
(3.51025 -7.57457 3.93542e-20)
(3.43202 -7.34222 -2.59621e-19)
(3.36156 -7.12294 6.96021e-19)
(3.28789 -6.91768 3.67134e-19)
(6.38803 -12.8932 9.2878e-19)
(5.53205 -12.6371 1.96336e-19)
(5.40941 -12.2341 4.4216e-19)
(5.35476 -11.8419 -4.79951e-19)
(5.25288 -11.4712 1.12759e-19)
(5.13642 -11.0922 9.53848e-19)
(5.01112 -10.7038 -1.52739e-19)
(4.8781 -10.3143 7.05353e-19)
(4.74141 -9.93131 -4.61189e-19)
(4.60511 -9.5607 2.67518e-19)
(4.47208 -9.20634 6.15649e-19)
(4.34416 -8.87035 -1.85963e-19)
(4.22243 -8.5535 3.09835e-19)
(4.10737 -8.25569 -8.24241e-20)
(3.99916 -7.9764 -4.15633e-19)
(3.89766 -7.71498 5.85604e-19)
(3.80274 -7.47073 -1.59246e-19)
(3.71527 -7.24218 5.90285e-19)
(3.63653 -7.02684 7.28274e-20)
(3.55419 -6.82691 -8.72428e-19)
(6.89778 -12.65 -2.82077e-18)
(6.04209 -12.4491 4.83819e-19)
(5.908 -12.0621 -3.64965e-19)
(5.83842 -11.6763 -1.20262e-18)
(5.7202 -11.3097 -2.14546e-19)
(5.58595 -10.9334 -2.30639e-19)
(5.44211 -10.5472 -7.40502e-20)
(5.29061 -10.1603 -4.87425e-19)
(5.13605 -9.78045 -2.60224e-19)
(4.98279 -9.41358 -5.85192e-20)
(4.83388 -9.06341 -1.61044e-19)
(4.69119 -8.7319 2.70787e-19)
(4.55576 -8.41966 1.74915e-19)
(4.42802 -8.12647 -8.82481e-19)
(4.30805 -7.8517 3.6999e-19)
(4.19567 -7.59468 -4.0292e-19)
(4.09069 -7.35474 -2.51911e-19)
(3.99414 -7.13044 2.18171e-19)
(3.90726 -6.91947 1.18031e-19)
(3.81648 -6.72547 -2.39511e-19)
(7.39829 -12.3866 3.60443e-18)
(6.54559 -12.2401 1.70216e-18)
(6.40083 -11.869 8.18227e-19)
(6.31646 -11.4897 8.09681e-19)
(6.18184 -11.1277 -3.70361e-19)
(6.02965 -10.7546 2.04108e-18)
(5.86716 -10.3715 -9.00811e-19)
(5.6971 -9.98795 1.74371e-18)
(5.52464 -9.61217 -6.75102e-19)
(5.35447 -9.24988 1.23369e-18)
(5.18974 -8.90468 5.87246e-19)
(5.03238 -8.57839 3.58114e-19)
(4.88337 -8.27147 -8.83545e-19)
(4.74307 -7.98355 7.71897e-19)
(4.61146 -7.71392 -1.86824e-19)
(4.48831 -7.46187 5.96807e-19)
(4.37341 -7.22678 1.57624e-19)
(4.26792 -7.00721 7.14189e-19)
(4.17311 -6.80104 -1.596e-19)
(4.0742 -6.61358 -1.1809e-20)
(7.88878 -12.1031 -1.86561e-18)
(7.0417 -12.0103 9.68461e-19)
(6.88698 -11.6548 1.90676e-19)
(6.78796 -11.2822 -1.4192e-18)
(6.63688 -10.9253 -1.00656e-19)
(6.46664 -10.5561 -2.5141e-20)
(6.28539 -10.1768 3.06744e-19)
(6.09673 -9.79756 -4.53943e-19)
(5.9064 -9.42665 1.65382e-19)
(5.71937 -9.06974 2.15524e-19)
(5.53894 -8.73029 -3.48142e-19)
(5.36702 -8.40994 -2.4493e-19)
(5.20454 -8.10901 1.35667e-19)
(5.05178 -7.82701 -2.50223e-19)
(4.90863 -7.56313 7.73149e-19)
(4.77479 -7.31666 -8.18935e-19)
(4.65007 -7.08697 -5.23909e-19)
(4.5358 -6.87264 7.55413e-19)
(4.43327 -6.67178 -2.89305e-19)
(4.32655 -6.4917 -3.90099e-19)
(8.36853 -11.8001 -9.56482e-19)
(7.52957 -11.7598 -1.08094e-18)
(7.36555 -11.4197 -2.77313e-19)
(7.25198 -11.0541 1.47131e-18)
(7.08441 -10.7027 -6.52606e-19)
(6.89603 -10.3381 6.55008e-20)
(6.69596 -9.9634 -1.72857e-18)
(6.48871 -9.58928 2.57599e-19)
(6.28057 -9.22408 -4.04986e-19)
(6.0768 -8.87335 3.4159e-19)
(5.88079 -8.5404 -7.92714e-19)
(5.69444 -8.22669 3.45868e-19)
(5.5186 -7.93239 -5.08133e-19)
(5.35345 -7.65692 3.16561e-19)
(5.19881 -7.39939 2.11227e-19)
(5.05428 -7.15904 -2.03237e-19)
(4.91973 -6.9353 -9.1531e-19)
(4.79668 -6.72671 5.1265e-19)
(4.6864 -6.53179 -2.20842e-19)
(4.57197 -6.36018 9.42459e-20)
(8.83684 -11.4777 3.53023e-18)
(8.00835 -11.4889 -7.03506e-19)
(7.83561 -11.164 -1.0004e-18)
(7.70762 -10.8055 4.23034e-19)
(7.52353 -10.4601 6.00037e-19)
(7.31695 -10.1009 -8.59934e-19)
(7.09804 -9.73153 5.68933e-19)
(6.87225 -9.36336 -7.89398e-19)
(6.6464 -9.00468 1.0099e-18)
(6.42603 -8.66091 -1.06841e-18)
(6.2146 -8.33517 4.92974e-19)
(6.01398 -8.02877 -8.24339e-20)
(5.82493 -7.74174 -7.84689e-20)
(5.64752 -7.47338 -5.72017e-19)
(5.48143 -7.22275 8.96014e-19)
(5.3262 -6.98907 -1.96975e-20)
(5.18168 -6.77176 -7.22936e-20)
(5.04957 -6.56942 -1.49999e-20)
(4.93108 -6.38106 -3.18155e-20)
(4.80859 -6.21846 -2.85359e-19)
(9.29326 -11.1366 -2.90496e-18)
(8.47732 -11.198 -4.24808e-19)
(8.29628 -10.8879 -5.33539e-19)
(8.15396 -10.5367 -3.16807e-18)
(7.95336 -10.1978 -1.67665e-18)
(7.72855 -9.84457 1.95471e-18)
(7.49082 -9.48144 -6.9399e-19)
(7.24657 -9.12004 3.57862e-19)
(7.00317 -8.76868 5.47956e-19)
(6.76637 -8.43261 1.46168e-19)
(6.5397 -8.11476 3.69843e-19)
(6.32498 -7.8163 -1.77118e-19)
(6.12287 -7.53712 5.12698e-19)
(5.93333 -7.27647 -4.32959e-19)
(5.75594 -7.03334 1.65007e-19)
(5.59012 -6.80695 -1.18208e-18)
(5.4357 -6.59676 7.78757e-19)
(5.29445 -6.40127 5.05946e-19)
(5.16749 -6.21975 5.51441e-19)
(5.03707 -6.06553 -1.18346e-19)
(9.73776 -10.7776 1.32011e-18)
(8.93603 -10.8874 1.10517e-18)
(8.74677 -10.5917 9.07848e-19)
(8.59012 -10.248 2.83721e-18)
(8.373 -9.91604 -2.64869e-18)
(8.12997 -9.56956 7.04779e-19)
(7.8735 -9.21346 -1.22238e-21)
(7.61096 -8.85965 -7.42344e-19)
(7.35021 -8.51637 7.41613e-19)
(7.09721 -8.18867 -1.90704e-19)
(6.85549 -7.87931 -2.30341e-19)
(6.6268 -7.58929 -1.1589e-19)
(6.41167 -7.31845 2.54877e-19)
(6.20995 -7.06599 8.58819e-21)
(6.02117 -6.83093 -4.34647e-19)
(5.84473 -6.61263 -5.19708e-19)
(5.68062 -6.4105 -7.06808e-19)
(5.53086 -6.2227 3.78736e-19)
(5.39658 -6.04856 -4.96597e-19)
(5.26013 -5.90438 1.19011e-19)
(10.1705 -10.4014 -1.7783e-19)
(9.38414 -10.5572 -2.39282e-18)
(9.18639 -10.2754 -2.224e-19)
(9.01523 -9.93962 -3.90714e-20)
(8.78161 -9.6153 4.85094e-19)
(8.52045 -9.27634 1.68713e-18)
(8.2454 -8.92809 -4.85705e-19)
(7.9648 -8.58267 -7.59776e-19)
(7.687 -8.24818 7.2905e-20)
(7.4181 -7.92945 3.26997e-19)
(7.16161 -7.62905 -3.05153e-19)
(6.9191 -7.34782 -3.37074e-19)
(6.69093 -7.08552 -9.34796e-20)
(6.47672 -6.84138 2.81394e-19)
(6.27581 -6.61456 -1.30171e-18)
(6.08758 -6.4046 6.20597e-19)
(5.91245 -6.21084 2.2081e-19)
(5.75325 -6.03126 -2.78815e-19)
(5.61115 -5.86752 3.03175e-19)
(5.46868 -5.74393 4.69401e-19)
(10.5902 -10.0067 9.32746e-19)
(9.82058 -10.2066 2.32361e-18)
(9.61431 -9.93917 3.27643e-19)
(9.4285 -9.61217 -2.30126e-19)
(9.17846 -9.29624 1.5593e-18)
(8.89935 -8.96559 -4.27863e-19)
(8.60596 -8.62601 -5.16003e-19)
(8.30764 -8.28974 1.32458e-18)
(8.01319 -7.96471 -8.25551e-19)
(7.72883 -7.6555 3.92564e-19)
(7.45801 -7.36444 -5.928e-20)
(7.20211 -7.0922 -1.01266e-19)
(6.9612 -6.8384 -4.37757e-19)
(6.73454 -6.60225 5.62709e-19)
(6.52097 -6.38295 -1.31881e-18)
(6.31935 -6.18004 6.28541e-19)
(6.12975 -5.99277 -1.86042e-19)
(5.95438 -5.82037 -4.48823e-20)
(5.79218 -5.67138 5.88468e-19)
(5.62961 -5.57654 -9.87122e-19)
(14.8793 0.4216 1.6885e-19)
(14.8672 -0.165014 -5.37683e-20)
(14.8321 -0.748976 -2.87583e-19)
(14.7751 -1.32983 7.74872e-19)
(14.696 -1.90701 -8.67377e-19)
(14.5945 -2.47976 -3.93131e-19)
(14.4708 -3.04728 3.02764e-19)
(14.3249 -3.60875 4.23952e-19)
(14.1574 -4.16337 -3.20783e-19)
(13.9683 -4.71033 3.19308e-19)
(13.7582 -5.24883 -1.15139e-20)
(13.5273 -5.77806 1.43376e-20)
(13.2762 -6.29725 -2.2078e-19)
(13.0051 -6.80563 1.01531e-18)
(12.7147 -7.30247 -1.00913e-18)
(12.4055 -7.78705 6.99355e-19)
(12.0778 -8.25875 -9.78108e-19)
(11.7326 -8.71683 2.37175e-18)
(11.3695 -9.16133 -1.73899e-19)
(10.9918 -9.59048 7.38518e-20)
(14.7581 -0.285848 -3.18797e-20)
(14.7124 -0.8647 -1.85184e-19)
(14.6427 -1.43937 3.61573e-19)
(14.5499 -2.00923 5.81962e-19)
(14.4342 -2.5737 -1.55251e-19)
(14.296 -3.13196 -7.81795e-19)
(14.1354 -3.68313 1.39825e-18)
(13.953 -4.22633 -2.88909e-19)
(13.749 -4.7607 -1.61577e-18)
(13.5241 -5.2854 7.73488e-19)
(13.2788 -5.79963 2.62937e-19)
(13.0134 -6.30259 1.46934e-18)
(12.7287 -6.79351 -2.78573e-18)
(12.4252 -7.27165 4.0575e-20)
(12.1034 -7.7363 7.04785e-19)
(11.7642 -8.18679 1.12187e-18)
(11.4078 -8.62252 5.19981e-19)
(11.0353 -9.0429 -7.03188e-19)
(10.6464 -9.44753 -1.55514e-18)
(10.2424 -9.83564 1.55525e-18)
(14.4768 -0.272669 1.09432e-19)
(14.4358 -0.837623 -1.29451e-19)
(14.3708 -1.39929 8.88949e-20)
(14.2821 -1.95673 -2.63366e-19)
(14.1703 -2.5091 3.33535e-19)
(14.0355 -3.0555 8.20301e-19)
(13.8783 -3.59494 -8.84149e-19)
(13.6989 -4.12647 1.38327e-19)
(13.4981 -4.64918 5.84603e-19)
(13.2762 -5.16218 1.22447e-18)
(13.0337 -5.66463 -2.88631e-19)
(12.7714 -6.15567 2.05932e-18)
(12.4896 -6.63452 1.0456e-19)
(12.1892 -7.10039 -2.2157e-18)
(11.8707 -7.55255 -2.98505e-19)
(11.5349 -7.99029 4.92617e-19)
(11.1821 -8.41296 -1.23804e-18)
(10.8133 -8.81988 -5.94506e-19)
(10.4287 -9.21044 -1.06132e-18)
(10.0291 -9.58384 1.16494e-18)
(14.0495 -0.206507 3.52226e-20)
(14.0185 -0.752297 8.34912e-20)
(13.964 -1.29588 3.24925e-20)
(13.8863 -1.83615 -7.76088e-19)
(13.7856 -2.37211 4.72897e-19)
(13.6622 -2.90276 -1.44927e-19)
(13.5165 -3.42713 4.4541e-19)
(13.349 -3.94424 -2.35038e-20)
(13.16 -4.45314 -9.13862e-19)
(12.9501 -4.95292 2.61171e-20)
(12.7199 -5.44269 -5.30717e-19)
(12.4697 -5.92159 1.32668e-19)
(12.2004 -6.38879 -2.70244e-18)
(11.9123 -6.84347 1.35906e-18)
(11.6063 -7.28485 -1.25198e-18)
(11.2829 -7.71218 -2.50756e-19)
(10.9428 -8.12473 -3.14613e-18)
(10.5867 -8.52177 3.05092e-18)
(10.2152 -8.90258 -1.45528e-18)
(9.82896 -9.26635 -9.12983e-19)
(13.5424 -0.193859 1.01998e-20)
(13.5192 -0.717684 -1.41034e-19)
(13.4735 -1.24006 2.05737e-19)
(13.4053 -1.75988 2.58075e-19)
(13.3147 -2.2761 -3.0483e-19)
(13.2021 -2.78774 9.77537e-19)
(13.0678 -3.29383 6.05029e-19)
(12.9122 -3.79339 -1.94005e-19)
(12.7357 -4.2855 -2.05763e-19)
(12.5386 -4.76923 6.49158e-19)
(12.3215 -5.24369 1.11569e-18)
(12.085 -5.70801 4.29905e-19)
(11.8295 -6.16133 2.68511e-19)
(11.5556 -6.60283 -7.73913e-19)
(11.264 -7.03171 -1.83315e-18)
(10.9553 -7.44716 1.95248e-18)
(10.6301 -7.84844 2.03586e-18)
(10.2892 -8.23476 -1.4531e-18)
(9.93314 -8.60537 5.02203e-19)
(9.56272 -8.95949 -1.51368e-19)
(13.0046 -0.189033 2.52386e-20)
(12.9874 -0.689912 -3.39489e-20)
(12.9488 -1.18987 -1.80796e-19)
(12.8886 -1.68788 8.05992e-20)
(12.807 -2.18293 -9.85606e-22)
(12.7042 -2.67405 5.67095e-20)
(12.5806 -3.1603 -4.71144e-19)
(12.4363 -3.64075 3.51211e-19)
(12.2718 -4.11449 -7.08339e-19)
(12.0874 -4.58061 7.52967e-19)
(11.8837 -5.03824 -4.98921e-20)
(11.6609 -5.48651 -7.01524e-19)
(11.4198 -5.92459 2.62273e-19)
(11.1608 -6.35165 2.15991e-18)
(10.8845 -6.76687 1.23812e-18)
(10.5916 -7.16946 -8.98438e-19)
(10.2826 -7.55864 -1.30871e-18)
(9.95818 -7.93362 6.68282e-19)
(9.61909 -8.29364 -4.41991e-19)
(9.26593 -8.6379 1.33709e-18)
(12.4698 -0.184458 -1.80602e-20)
(12.4568 -0.662689 8.45315e-20)
(12.4234 -1.14037 5.4777e-20)
(12.3695 -1.61654 -6.51153e-20)
(12.2952 -2.09026 2.7519e-19)
(12.2006 -2.56058 -7.71572e-19)
(12.0861 -3.02661 4.42887e-19)
(11.9518 -3.48746 -3.34749e-19)
(11.7981 -3.94225 1.2396e-20)
(11.6253 -4.39011 -5.1756e-19)
(11.4338 -4.8302 7.91236e-19)
(11.2241 -5.26169 1.96154e-18)
(10.9967 -5.68376 -2.20283e-18)
(10.752 -6.09561 -4.11237e-20)
(10.4906 -6.49643 -2.04176e-18)
(10.2131 -6.88545 5.93936e-19)
(9.92013 -7.26187 -6.67867e-19)
(9.61229 -7.62492 2.00217e-21)
(9.29023 -7.97383 1.50411e-18)
(8.95456 -8.30777 -1.10094e-20)
(11.9582 -0.181653 -8.83099e-21)
(11.9477 -0.638329 5.87098e-20)
(11.9178 -1.09469 1.92653e-20)
(11.8684 -1.54984 -3.25361e-19)
(11.7996 -2.00288 3.58648e-19)
(11.7115 -2.45293 -3.15573e-19)
(11.6043 -2.89914 9.00164e-19)
(11.4783 -3.34066 -9.58044e-20)
(11.3337 -3.77666 -4.82732e-19)
(11.1709 -4.20631 9.12143e-20)
(10.9902 -4.62883 -1.54104e-19)
(10.792 -5.0434 -4.94519e-19)
(10.5768 -5.44926 -7.34437e-19)
(10.3451 -5.84562 -4.8519e-19)
(10.0973 -6.23173 -5.04283e-19)
(9.8341 -6.60682 -5.863e-19)
(9.55606 -6.97011 -5.00107e-19)
(9.26377 -7.32082 -7.57641e-19)
(8.95788 -7.65821 9.77196e-20)
(8.63895 -7.98141 5.61697e-20)
(11.4795 -0.179961 6.78652e-21)
(11.4702 -0.616542 7.21589e-21)
(11.4425 -1.05293 -6.91872e-21)
(11.3962 -1.4883 -9.02665e-20)
(11.3314 -1.92179 -2.07144e-19)
(11.2482 -2.35259 -1.36124e-19)
(11.1469 -2.77987 -6.38111e-19)
(11.0276 -3.20285 5.92921e-19)
(10.8905 -3.62073 -3.46692e-19)
(10.7361 -4.03275 7.61994e-19)
(10.5645 -4.43815 -1.45856e-19)
(10.3763 -4.83618 1.29476e-18)
(10.1718 -5.22611 6.01602e-20)
(9.95141 -5.6072 1.74236e-18)
(9.71578 -5.97872 -1.20743e-18)
(9.46539 -6.33993 8.51271e-19)
(9.20086 -6.6901 1.30443e-18)
(8.92276 -7.02844 7.57248e-19)
(8.63175 -7.35421 8.12163e-19)
(8.32834 -7.66653 -1.164e-18)
(11.0366 -0.178493 -5.46563e-20)
(11.0276 -0.596524 -1.27236e-21)
(11.0011 -1.01442 1.96768e-19)
(10.9569 -1.4314 -1.81394e-19)
(10.8951 -1.84666 1.12328e-19)
(10.8157 -2.25943 4.35482e-19)
(10.719 -2.66893 -1.42236e-19)
(10.6052 -3.07442 -1.36339e-19)
(10.4744 -3.47515 -1.83127e-19)
(10.3269 -3.87041 3.0979e-19)
(10.1631 -4.25948 -4.42577e-19)
(9.9834 -4.64167 -9.35446e-20)
(9.78809 -5.01627 -8.12444e-19)
(9.57767 -5.38262 2.25937e-19)
(9.35267 -5.74002 3.83774e-19)
(9.11362 -6.08778 2.81293e-19)
(8.86114 -6.42517 -5.40588e-19)
(8.59581 -6.75144 1.78105e-19)
(8.3183 -7.06581 -8.1442e-19)
(8.0291 -7.36742 9.52123e-20)
(10.6282 -0.176822 5.63197e-20)
(10.6191 -0.57778 1.50721e-19)
(10.5933 -0.978619 -3.36622e-19)
(10.5505 -1.3786 -2.62098e-19)
(10.4909 -1.77696 -1.35033e-19)
(10.4146 -2.17297 -3.69569e-19)
(10.3216 -2.5659 2.64005e-19)
(10.2123 -2.95505 3.3203e-19)
(10.0867 -3.33971 -7.1987e-19)
(9.94519 -3.71921 3.54485e-19)
(9.78806 -4.09289 3.61585e-19)
(9.61563 -4.46009 4.5456e-19)
(9.42832 -4.82017 -6.29775e-19)
(9.22657 -5.17252 8.83535e-19)
(9.01089 -5.51647 -8.08696e-19)
(8.78184 -5.85139 -1.36572e-19)
(8.54006 -6.17659 -2.38377e-19)
(8.28615 -6.49133 1.03033e-18)
(8.02082 -6.79481 7.97964e-19)
(7.74458 -7.08612 -3.26491e-19)
(10.2513 -0.174779 -4.87361e-20)
(10.2419 -0.560002 2.89874e-20)
(10.2164 -0.945098 2.14512e-19)
(10.1747 -1.32936 2.62786e-20)
(10.1169 -1.71208 3.07934e-19)
(10.043 -2.09255 2.54474e-19)
(9.95321 -2.47009 -2.18058e-19)
(9.84767 -2.84402 -3.12323e-19)
(9.72659 -3.21368 2.55787e-19)
(9.59023 -3.57846 2.03464e-19)
(9.43887 -3.93771 -2.04198e-19)
(9.27283 -4.29084 8.65427e-19)
(9.09253 -4.63726 -1.29298e-18)
(8.89837 -4.97642 3.01639e-19)
(8.69092 -5.30769 3.62287e-19)
(8.47069 -5.63053 -6.27333e-19)
(8.23843 -5.94425 -1.27929e-18)
(7.99472 -6.24818 4.19574e-19)
(7.74041 -6.54145 2.56488e-19)
(7.47601 -6.8231 5.87849e-20)
(9.9023 -0.17231 -2.06822e-20)
(9.8925 -0.542978 1.86693e-20)
(9.86721 -0.913502 -9.9902e-20)
(9.82637 -1.28321 -5.91484e-20)
(9.77002 -1.65142 -1.91525e-20)
(9.69826 -2.01746 -2.32082e-19)
(9.61121 -2.38068 6.22574e-19)
(9.50903 -2.74045 2.27755e-20)
(9.39192 -3.09614 -3.26253e-21)
(9.2601 -3.44716 -5.49518e-19)
(9.11386 -3.79291 3.42733e-19)
(8.95349 -4.13288 -3.05432e-19)
(8.7794 -4.46648 5.80481e-19)
(8.59198 -4.79326 -8.73269e-19)
(8.39182 -5.11264 -2.75919e-20)
(8.17942 -5.42419 -5.29091e-19)
(7.95564 -5.7272 1.0509e-18)
(7.72106 -6.02114 -2.61774e-19)
(7.47676 -6.30502 -9.35698e-20)
(7.22324 -6.57782 -3.53629e-19)
(9.57758 -0.169429 6.32131e-20)
(9.56737 -0.526568 -4.6674e-21)
(9.54225 -0.883545 1.26587e-19)
(9.50216 -1.23971 -1.3144e-19)
(9.44715 -1.59442 1.5633e-19)
(9.3773 -1.94702 -9.41557e-20)
(9.29274 -2.2969 -3.43735e-19)
(9.1936 -2.64346 1.40836e-19)
(9.08008 -2.98609 1.29428e-19)
(8.95238 -3.32425 -1.76004e-19)
(8.81076 -3.65738 -3.24509e-19)
(8.65551 -3.985 -2.00727e-20)
(8.48701 -4.30658 -5.71108e-19)
(8.30564 -4.62176 6.34727e-19)
(8.112 -4.92997 3.30867e-19)
(7.90655 -5.23101 1.23335e-18)
(7.69035 -5.52406 -1.77606e-18)
(7.46388 -5.80893 4.62322e-19)
(7.22874 -6.0843 1.15545e-18)
(6.98522 -6.34927 9.16737e-19)
(9.27393 -0.166178 -4.7426e-20)
(9.26336 -0.51068 3.5726e-20)
(9.23842 -0.855001 -4.53561e-20)
(9.19905 -1.19852 -2.78702e-19)
(9.14529 -1.54061 2.81489e-19)
(9.07723 -1.88065 9.84625e-20)
(8.99498 -2.21806 2.45233e-20)
(8.89867 -2.55225 2.75023e-19)
(8.78847 -2.88266 -6.30096e-19)
(8.66456 -3.20877 5.01977e-19)
(8.52721 -3.53004 -5.3584e-20)
(8.37665 -3.84608 8.24174e-19)
(8.21326 -4.15634 -1.03871e-18)
(8.03736 -4.46064 1.03212e-21)
(7.84961 -4.75833 -5.77488e-19)
(7.65034 -5.0496 7.17356e-20)
(7.44093 -5.33337 1.02008e-18)
(7.22155 -5.61015 -8.5109e-19)
(6.99484 -5.87794 -2.2639e-19)
(6.76042 -6.13643 -1.49894e-18)
(8.98861 -0.162636 1.33908e-20)
(8.97774 -0.495266 1.56139e-21)
(8.953 -0.827702 -1.02676e-19)
(8.91434 -1.15934 4.3216e-20)
(8.8618 -1.48958 9.17423e-20)
(8.79545 -1.81783 1.31512e-19)
(8.7154 -2.14352 -5.11971e-20)
(8.62176 -2.4661 1.26653e-19)
(8.5147 -2.78502 -2.30421e-19)
(8.39437 -3.0998 1.60923e-19)
(8.26102 -3.40992 -1.16974e-19)
(8.11484 -3.71504 -6.0111e-20)
(7.9562 -4.01464 -1.15704e-19)
(7.78533 -4.30868 -8.62573e-20)
(7.60294 -4.59643 2.15822e-19)
(7.40915 -4.87862 -2.15004e-20)
(7.20582 -5.15367 -8.60095e-19)
(6.99245 -5.42349 -1.51405e-19)
(6.7736 -5.68448 9.07621e-19)
(6.54708 -5.93835 4.6888e-19)
(8.7193 -0.158926 1.79992e-21)
(8.7082 -0.480331 2.85838e-20)
(8.68369 -0.801532 -7.73107e-22)
(8.64576 -1.12194 1.00232e-19)
(8.59442 -1.44098 -1.98542e-19)
(8.52976 -1.75809 -2.14482e-19)
(8.45185 -2.0727 2.91757e-19)
(8.36081 -2.3843 -1.98745e-19)
(8.25679 -2.69236 -1.02921e-20)
(8.13992 -2.99643 2.19212e-19)
(8.01043 -3.29601 8.35594e-21)
(7.86846 -3.5908 3.93325e-19)
(7.71437 -3.88028 -1.76052e-19)
(7.54823 -4.16459 -2.13122e-19)
(7.37088 -4.44286 -5.89195e-19)
(7.18201 -4.71656 -4.99005e-20)
(6.98416 -4.98332 -5.83326e-19)
(6.77559 -5.24748 3.6278e-19)
(6.56424 -5.50223 5.56518e-19)
(6.34395 -5.75403 -3.31574e-19)
(8.4641 -0.154928 -2.6675e-20)
(8.45283 -0.465766 5.67824e-20)
(8.42861 -0.77638 9.44936e-20)
(8.39143 -1.0862 -1.05752e-19)
(8.34132 -1.39467 1.6384e-19)
(8.27834 -1.70123 -5.33252e-20)
(8.20258 -2.00537 -7.1105e-20)
(8.11414 -2.30658 -4.98505e-20)
(8.01315 -2.60437 -1.48853e-21)
(7.89974 -2.89829 -1.35007e-19)
(7.7741 -3.18788 4.406e-20)
(7.63632 -3.47287 1.95215e-19)
(7.48677 -3.75274 4.51689e-19)
(7.32531 -4.02776 8.17954e-19)
(7.15292 -4.29693 -8.89114e-20)
(6.96859 -4.56251 9.32042e-19)
(6.77586 -4.8212 -3.91544e-19)
(6.57064 -5.08123 5.51465e-19)
(6.3665 -5.33055 3.13569e-19)
(6.14927 -5.58483 -1.76727e-19)
(8.22131 -0.150113 1.07692e-20)
(8.20996 -0.451297 -2.85175e-20)
(8.18609 -0.752255 -2.05573e-19)
(8.14971 -1.05243 -1.69961e-19)
(8.10084 -1.35127 2.03513e-19)
(8.03954 -1.64826 3.04151e-19)
(7.9659 -1.9429 1.98846e-20)
(7.88001 -2.2347 -1.72337e-19)
(7.78199 -2.5232 -2.41148e-19)
(7.67194 -2.80798 3.73079e-19)
(7.55005 -3.0886 -2.58044e-20)
(7.41632 -3.36479 -7.39445e-19)
(7.27117 -3.63607 -7.46247e-19)
(7.11413 -3.90276 2.83012e-19)
(6.94647 -4.16377 3.36885e-19)
(6.76602 -4.42192 -3.31379e-20)
(6.57776 -4.67304 -2.69322e-19)
(6.3733 -4.93032 -2.12092e-19)
(6.17493 -5.176 -2.77141e-19)
(5.95225 -5.44501 4.57961e-19)
(7.9893 -0.146093 -3.28046e-20)
(7.97792 -0.437945 5.68488e-20)
(7.9545 -0.729764 3.55915e-20)
(7.91901 -1.021 5.62996e-20)
(7.87147 -1.31114 -2.1362e-19)
(7.8119 -1.59968 -2.61426e-19)
(7.74038 -1.88615 -6.10142e-20)
(7.65694 -2.17008 3.22832e-19)
(7.56171 -2.45103 1.57724e-19)
(7.45471 -2.72858 7.68053e-20)
(7.33614 -3.00232 -2.91196e-19)
(7.20583 -3.27199 5.74603e-19)
(7.06432 -3.53709 -5.52235e-19)
(6.91065 -3.79792 -1.34868e-19)
(6.74662 -4.05336 -1.70816e-19)
(6.56823 -4.30634 -2.08931e-20)
(6.38281 -4.55191 -2.80412e-19)
(6.17431 -4.80714 3.56235e-19)
(5.97913 -5.0478 2.01013e-19)
(5.73812 -5.35079 -1.0501e-18)
(10.3198 10.924 1.57189e-18)
(10.7416 10.5055 -2.35858e-18)
(11.1448 10.0716 8.10714e-19)
(11.5305 9.62387 1.81735e-18)
(11.8981 9.16216 1.35648e-19)
(12.2466 8.68654 -1.26596e-18)
(12.5753 8.19752 -2.61152e-19)
(12.8835 7.69583 -1.2162e-18)
(13.1709 7.18229 -6.67075e-20)
(13.4371 6.65774 4.60544e-19)
(13.6816 6.12304 5.66214e-19)
(13.904 5.57912 -9.09744e-19)
(14.1042 5.02691 4.66027e-19)
(14.2817 4.46736 1.33214e-18)
(14.4364 3.90141 -2.37504e-19)
(14.5682 3.33007 -7.80477e-19)
(14.6768 2.75417 1.04263e-18)
(14.7625 2.17495 -6.40307e-19)
(14.8249 1.59253 -9.56422e-20)
(14.8649 1.00959 -6.70759e-20)
(10.7136 10.258 8.56e-19)
(11.1192 9.838 -2.51316e-18)
(11.5053 9.40176 -1.4518e-18)
(11.8724 8.95037 6.37794e-19)
(12.2203 8.48417 -1.57543e-18)
(12.5483 8.00365 9.06737e-19)
(12.8555 7.50955 1.72369e-19)
(13.1416 7.00278 -1.31166e-18)
(13.4058 6.48426 4.73656e-19)
(13.6479 5.95497 3.41115e-19)
(13.8674 5.41589 1.1465e-18)
(14.0637 4.86805 -9.68884e-19)
(14.2368 4.31248 -5.03956e-19)
(14.3862 3.75025 1.1028e-18)
(14.5117 3.18241 -6.36746e-19)
(14.6133 2.61007 1.20209e-19)
(14.6907 2.03417 -4.0422e-19)
(14.7442 1.45591 -9.23885e-21)
(14.7733 0.875834 -2.00627e-19)
(14.7785 0.295358 5.37031e-20)
(10.4111 9.90093 1.77876e-19)
(10.8115 9.50634 2.59832e-19)
(11.1944 9.09462 2.14596e-18)
(11.5591 8.6665 -6.84608e-19)
(11.9051 8.22258 2.3601e-20)
(12.2319 7.76361 1.24525e-18)
(12.5388 7.29043 -3.72812e-19)
(12.8251 6.80394 -1.71217e-18)
(13.0902 6.30511 1.94599e-18)
(13.3337 5.79489 -1.17987e-18)
(13.5549 5.27427 -5.22256e-19)
(13.7536 4.74428 -8.51916e-19)
(13.9292 4.20595 4.47023e-19)
(14.0815 3.66037 -4.89772e-19)
(14.2102 3.10859 3.64849e-19)
(14.3151 2.55172 -7.71954e-19)
(14.396 1.99077 8.111e-19)
(14.4528 1.42688 3.3643e-19)
(14.4853 0.8609 -6.01447e-20)
(14.4934 0.294115 7.15319e-20)
(9.96815 9.48078 -1.26805e-18)
(10.3582 9.11337 -9.80452e-20)
(10.7325 8.72871 4.59114e-19)
(11.0901 8.32742 -1.03772e-18)
(11.4303 7.91018 1.8023e-18)
(11.7524 7.47777 5.61558e-19)
(12.0558 7.031 -3.06831e-19)
(12.3399 6.57072 -1.09972e-19)
(12.6038 6.09779 1.49461e-18)
(12.8473 5.61314 6.16547e-19)
(13.0695 5.11769 1.21443e-18)
(13.2702 4.61243 -2.77199e-19)
(13.4489 4.09834 -1.21346e-19)
(13.6052 3.57647 -3.68817e-19)
(13.7387 3.04783 6.0848e-19)
(13.8492 2.5135 -2.97209e-19)
(13.9365 1.97449 -3.05099e-19)
(14.0003 1.43192 1.21266e-19)
(14.0405 0.886779 -7.96396e-21)
(14.057 0.340276 -1.84216e-20)
(9.53539 9.0011 1.2283e-18)
(9.91008 8.65709 1.95886e-19)
(10.2704 8.29636 -2.44502e-18)
(10.6154 7.91943 -7.59567e-19)
(10.9442 7.52693 -3.4061e-19)
(11.2562 7.11959 -1.55026e-18)
(11.5506 6.69815 -8.57228e-19)
(11.8269 6.26337 -6.36939e-19)
(12.0844 5.81606 7.70499e-19)
(12.3225 5.35705 -2.81277e-19)
(12.5408 4.88724 4.92519e-19)
(12.7386 4.40752 6.90998e-20)
(12.9157 3.91884 1.18698e-19)
(13.0715 3.42216 -1.21404e-18)
(13.2056 2.91847 -2.24538e-19)
(13.3179 2.40877 1.28805e-19)
(13.408 1.89406 -6.73892e-20)
(13.4756 1.37538 1.11354e-19)
(13.5207 0.853778 -1.33222e-19)
(13.543 0.330329 1.82953e-20)
(9.11935 8.53436 -2.52822e-19)
(9.47713 8.21062 3.02658e-20)
(9.82162 7.87095 1.01449e-18)
(10.1518 7.51574 -2.21813e-19)
(10.467 7.14555 6.32491e-19)
(10.7663 6.76103 -2.0764e-18)
(11.0493 6.36286 1.39891e-18)
(11.3152 5.95175 -2.53653e-19)
(11.5636 5.52845 -2.6219e-20)
(11.7938 5.09373 2.87343e-19)
(12.0053 4.64841 5.65209e-19)
(12.1976 4.19335 -9.84721e-19)
(12.3703 3.72941 4.99311e-19)
(12.523 3.25751 7.30633e-19)
(12.6552 2.77857 2.58927e-20)
(12.7667 2.29352 -2.92944e-19)
(12.8572 1.80334 -2.44348e-20)
(12.9264 1.30899 -6.05399e-20)
(12.9742 0.811464 1.49817e-20)
(13.0003 0.31177 -1.21996e-20)
(8.73297 8.10351 4.43436e-19)
(9.07381 7.79723 2.78016e-19)
(9.40216 7.47581 1.67784e-19)
(9.7171 7.13958 -1.03956e-18)
(10.0179 6.78903 -9.63391e-19)
(10.3038 6.42476 2.19026e-18)
(10.5743 6.04739 2.16991e-19)
(10.8288 5.6576 2.09346e-19)
(11.0668 5.25606 6.79515e-19)
(11.2876 4.8435 -1.06495e-18)
(11.4908 4.42071 1.67247e-19)
(11.676 3.98846 4.64512e-19)
(11.8427 3.54759 -3.37611e-19)
(11.9904 3.09894 -1.42198e-19)
(12.1189 2.64337 5.5692e-19)
(12.2278 2.18178 -1.2837e-20)
(12.3168 1.71506 -2.04483e-20)
(12.3857 1.24414 -6.55192e-20)
(12.4343 0.769942 1.06561e-20)
(12.4623 0.293408 6.66116e-20)
(8.38332 7.71264 -6.08071e-19)