/*--------------------------------*- C++ -*----------------------------------*\
  =========                 |
  \\      /  F ield         | OpenFOAM: The Open Source CFD Toolbox
   \\    /   O peration     | Website:  https://openfoam.org
    \\  /    A nd           | Version:  6.0
     \\/     M anipulation  |
\*---------------------------------------------------------------------------*/
FoamFile
{
    version     2.0;
    format      ascii;
    class       surfaceScalarField;
    location    "21.49";
    object      phi;
}
// * * * * * * * * * * * * * * * * * * * * * * * * * * * * * * * * * * * * * //

dimensions      [0 3 -1 0 0 0 0];

internalField   nonuniform List<scalar> 
4670
(
-0.00018608
-0.0216444
0.0218304
-0.00050963
-0.0167472
0.0170708
-0.000846555
-0.0131056
0.0134426
-0.00112846
-0.0104074
0.0106893
-0.00132148
-0.00840285
0.00859587
-0.00141519
-0.00689849
0.00699219
-0.00141559
-0.00574825
0.00574866
-0.00134064
-0.00484372
0.00476877
-0.0012173
-0.0041051
0.00398175
-0.00347494
0.00333678
-0.00107913
-0.000170481
-0.0214739
-0.000442213
-0.0164755
-0.000685606
-0.0128622
-0.000831444
-0.0102616
-0.00084658
-0.00838772
-0.000721526
-0.00702354
-0.000463526
-0.00600625
-9.2703e-05
-0.00521454
0.000359858
-0.00455766
-0.00396885
0.000853765
-0.000146445
-0.0213274
-0.000339308
-0.0162826
-0.00044848
-0.0127531
-0.000406308
-0.0103038
-0.00018107
-0.00861295
0.000236253
-0.00744087
0.000838564
-0.00660856
0.00160528
-0.00598126
0.00250233
-0.00545472
-0.0049483
0.00348178
-0.000112552
-0.0212149
-0.000200041
-0.0161951
-0.000135806
-0.0128173
0.00014307
-0.0105826
0.000665067
-0.00913495
0.00143832
-0.00821412
0.00245689
-0.00762714
0.00370199
-0.00722636
0.00513914
-0.00689186
-0.00652288
0.00671372
-6.76793e-05
-0.0211472
-2.1962e-05
-0.0162409
0.000255403
-0.0130947
0.000818398
-0.0111456
0.00168903
-0.0100056
0.00287256
-0.00939764
0.00436403
-0.00911861
0.00614859
-0.00901091
0.00819551
-0.00893879
-0.00877448
0.0104471
-1.01046e-05
-0.0211371
0.000199332
-0.0164503
0.00073209
-0.0136274
0.00162805
-0.0120416
0.00289794
-0.0112755
0.00453983
-0.0110395
0.00654692
-0.0111257
0.00890875
-0.0113727
0.0116036
-0.0116336
-0.0117487
0.0145778
6.23176e-05
-0.0211994
0.000469168
-0.0168571
0.00130309
-0.0144613
0.00258437
-0.0133229
0.00430664
-0.0129977
0.00645394
-0.0131868
0.00901063
-0.0136824
0.0119662
-0.0143283
0.0153111
-0.0149786
-0.0154458
0.0190083
0.000151462
-0.0213509
0.000791361
-0.017497
0.00197419
-0.0156442
0.00369603
-0.0150447
0.00592786
-0.0152296
0.0086316
-0.0158906
0.0117712
-0.016822
0.0153233
-0.0178804
0.0192861
-0.0189414
-0.0198286
0.023669
0.00025819
-0.0216091
0.00116508
-0.0184039
0.00274151
-0.0172206
0.00495733
-0.0172605
0.00775868
-0.0180309
0.0110802
-0.0192121
0.0148532
-0.020595
0.0190176
-0.0220448
0.0235569
-0.0234807
-0.02487
0.0285982
0.000382314
-0.0219914
0.00158083
-0.0196024
0.00358201
-0.0192218
0.00633152
-0.02001
0.00975735
-0.0214568
0.0137791
-0.0232338
0.0183095
-0.0251254
0.0232464
-0.0269817
0.0284738
-0.0287081
-0.0303384
0.0339422
0.0302268
0.00118715
-0.0314139
0.0290351
0.00119171
0.0278657
0.0011694
0.0267441
0.00112158
0.0256925
0.00105164
0.0247288
0.000963674
0.0238671
0.000861716
0.023118
0.000749087
0.02249
0.000627938
0.000498648
0.0402118
0.00370947
-0.0427341
0.0375712
0.00383236
0.0348827
0.00385788
0.0322139
0.0037904
0.0296272
0.00363834
0.0271781
0.00341277
0.0249143
0.00312551
0.022876
0.00278736
0.0210968
0.00240709
0.00199306
0.0490136
0.00688212
-0.0521863
0.0455716
0.00727434
0.0419535
0.00747599
0.0382551
0.00748878
0.034571
0.00732249
0.0309904
0.00699332
0.0275953
0.00652067
0.0244592
0.00592343
0.0216486
0.00521766
0.0044199
0.0562864
0.0102273
-0.0596316
0.0525195
0.0110413
0.0484283
0.0115671
0.0441213
0.0117958
0.0397122
0.0117315
0.0353155
0.01139
0.0310419
0.0107943
0.0269973
0.00996801
0.0232854
0.00892954
0.00769524
0.0619757
0.0134309
-0.0651794
0.0582206
0.0147964
0.0540011
0.0157865
0.0494227
0.0163743
0.044604
0.0165502
0.0396715
0.0163225
0.0347543
0.0157116
0.029983
0.0147393
0.0254967
0.0134159
0.0117351
0.0661986
0.0163117
-0.0690793
0.0626728
0.0183222
0.058569
0.0198903
0.0539771
0.0209661
0.049007
0.0215203
0.0437829
0.0215466
0.0384376
0.0210569
0.0331115
0.0200654
0.0279675
0.0185599
0.0164688
0.0691569
0.0187883
-0.0716335
0.0659817
0.0214974
0.0621503
0.0237217
0.0577298
0.0253867
0.0528108
0.0264393
0.0475027
0.0268547
0.0419256
0.026634
0.0362078
0.0257832
0.0305096
0.0242581
0.021853
0.071077
0.0208483
-0.073137
0.0683014
0.024273
0.0648287
0.0271944
0.060701
0.0295144
0.0559847
0.0311556
0.0507657
0.0320737
0.045138
0.0322618
0.0391903
0.0317309
0.0330283
0.0304201
0.0278996
0.0721691
0.0225216
-0.0738424
0.0697927
0.0266494
0.0667121
0.030275
0.0629472
0.0332793
0.0585409
0.0355619
0.0535547
0.0370599
0.0480521
0.0377645
0.0420625
0.0377204
0.0355494
0.0369332
0.0347408
0.0726027
-0.0739435
0.0238624
0.0705923
0.0286598
0.0678987
0.0329686
0.0645256
0.0366524
0.060498
0.0395895
0.0558599
0.041698
0.0506578
0.0429665
0.0448879
0.0434903
0.0383562
0.043465
0.0427586
0.0367836
-0.000324176
-0.0364594
0.0369055
-0.000121899
0.0368204
8.5042e-05
0.0365314
0.000289013
0.0360477
0.000483751
0.0353843
0.000663369
0.0345619
0.000822422
0.0336057
0.000956151
0.0325452
0.0010605
0.00113128
0.0509508
-0.00149666
-0.0497783
0.0516967
-0.000867815
0.0520042
-0.000222496
0.0518678
0.000425408
0.0512915
0.0010601
0.0502901
0.00166472
0.0488904
0.00222219
0.0471304
0.00271614
0.0450591
0.00313179
0.00345624
0.0589807
-0.00346333
-0.057014
0.0604322
-0.00231934
0.0613417
-0.00113195
0.0616875
7.96088e-05
0.0614576
0.00128999
0.0606521
0.00247015
0.0592854
0.00358897
0.0573865
0.00461495
0.0550004
0.00551792
0.0062704
0.0629713
-0.00606716
-0.0603674
0.0650532
-0.00440126
0.0665719
-0.00265064
0.0674894
-0.00083789
0.0677763
0.00100311
0.0674144
0.00283198
0.0663994
0.00460397
0.0647423
0.00627206
0.0624711
0.00778912
0.00910993
0.0644332
-0.00913146
-0.0613689
0.0670124
-0.00698053
0.0690523
-0.00469045
0.070501
-0.00228667
0.0713158
0.000188329
0.0714638
0.00268399
0.0709239
0.00514385
0.0696885
0.00750748
0.0677653
0.00971237
0.0116958
0.0644251
-0.012505
-0.0610516
0.0673694
-0.00992484
0.0698139
-0.00713496
0.0716968
-0.00416956
0.0729681
-0.00108298
0.0735876
0.00206453
0.073524
0.00520748
0.0727557
0.00827575
0.0712727
0.0111953
0.0138892
0.0636483
-0.0160854
-0.0600679
0.0668551
-0.0131316
0.0695941
-0.00987395
0.0717989
-0.00637442
0.0734219
-0.00270591
0.0744239
0.0010625
0.0747714
0.00485998
0.0744356
0.0086116
0.0733939
0.012237
0.0156497
0.0625505
-0.0198362
-0.0587997
0.0659498
-0.016531
0.0688863
-0.0128104
0.071303
-0.0087912
0.0731662
-0.0045691
0.0744462
-0.000217505
0.075113
0.00419323
0.0751358
0.00858874
0.0744855
0.0128874
0.0169981
0.0614357
-0.0237799
-0.0574919
0.0649567
-0.020052
0.0679906
-0.0158443
0.0705134
-0.0113139
0.0725132
-0.00656892
0.0739722
-0.00167653
0.0748654
0.00330006
0.0751628
0.00829133
0.0748323
0.0132179
0.017988
0.0604957
-0.056435
-0.0278406
0.0640385
-0.0235948
0.0670522
-0.018858
0.069586
-0.0138477
0.071639
-0.00862189
0.073197
-0.0032346
0.074237
0.00226014
0.0747297
0.00779859
0.074643
0.0133046
0.0186875
0.042356
0.0134354
-0.00815524
-0.0476362
0.0369914
0.0141717
-0.00880705
0.0315435
0.0150469
-0.00959906
0.0260292
0.0161083
-0.0105939
0.0204922
0.0174147
-0.0118777
0.0150268
0.0190172
-0.0135518
0.00981319
0.0209217
-0.0157081
0.00516909
0.0230152
-0.0183711
0.00162083
0.0249355
-0.0213872
0.0258538
-0.024233
0.0421256
0.0186883
-0.0473785
0.0367868
0.0195106
0.031364
0.0204697
0.0258741
0.0215982
0.0203613
0.0229275
0.0149207
0.0244578
0.00973362
0.0261088
0.00511906
0.0276298
0.00160146
0.0284531
0.0274553
0.0415221
0.0238837
-0.0467175
0.0362404
0.0247923
0.0308761
0.0258339
0.0254475
0.0270268
0.0200002
0.0283748
0.0146309
0.0298271
0.00952208
0.0312176
0.00499116
0.0321607
0.00155314
0.0318911
0.0290084
0.0405488
0.0289937
-0.0456588
0.035354
0.0299872
0.0300809
0.031107
0.02475
0.0323578
0.0194093
0.0337155
0.0141581
0.0350784
0.00917964
0.036196
0.00478694
0.0365534
0.00147773
0.0352003
0.0304861
0.0392086
0.0339927
-0.0442076
0.0341291
0.0350667
0.0289792
0.0362568
0.0237824
0.0375546
0.01859
0.0389079
0.013504
0.0401643
0.00870842
0.0409916
0.00450843
0.0407534
0.00137644
0.0383323
0.0318626
0.037501
0.0388569
-0.0423652
0.0325648
0.040003
0.0275708
0.0412508
0.0225456
0.0425799
0.0175441
0.0439094
0.0126717
0.0450367
0.00811172
0.0455516
0.00415847
0.0447066
0.00125074
0.0412401
0.0331133
0.0354188
0.0435617
-0.0401236
0.0306558
0.044766
0.0258532
0.0460533
0.0210398
0.0473932
0.0162743
0.048675
0.0116652
0.0496457
0.0073943
0.0498225
0.00374105
0.0483599
0.00110257
0.0438785
0.0342159
0.0329428
0.0480752
-0.0374562
0.0283902
0.0493186
0.0238222
0.0506213
0.0192664
0.051949
0.0147853
0.0531561
0.0104913
0.0539397
0.00656316
0.0537507
0.00326175
0.0516613
0.000934588
0.0462057
0.0351505
0.0300266
0.0523605
-0.0343119
0.025747
0.0535982
0.021475
0.0548933
0.0172308
0.0561932
0.0130866
0.0573003
0.00916085
0.0578654
0.00562867
0.0572829
0.00272853
0.0545614
0.000750725
0.0481835
0.0359012
0.0266196
-0.0306942
0.0227259
0.0188195
0.0149448
0.0111935
0.00769009
0.00460555
0.00215299
0.000558196
0.0246467
-0.0358162
0.0400859
-0.0289164
0.0206617
-0.0356179
0.0396029
0.01682
-0.0350855
0.0389273
0.0131453
-0.0340448
0.0377195
0.00971202
-0.0321706
0.0356038
0.00661764
-0.028988
0.0320824
0.00397637
-0.0238479
0.0264892
0.00190925
-0.0159073
0.0179744
0.000537723
-0.00412241
0.00549394
0.0128155
-0.0122778
0.0280769
-0.0314906
-0.0324026
0.0238028
-0.0313438
0.0196143
-0.0308971
0.0155525
-0.029983
0.0116908
-0.0283089
0.00813198
-0.0254292
0.00500699
-0.0207229
0.00247441
-0.0133747
0.000723526
-0.00237153
0.013539
0.0310893
-0.0270117
-0.0355682
0.026589
-0.0268435
0.0221197
-0.0264278
0.0177325
-0.0255958
0.013501
-0.0240773
0.00953136
-0.0214596
0.00596922
-0.0171608
0.00300733
-0.0104128
0.00089964
-0.000263844
0.0144386
0.0337179
-0.0223642
-0.0383655
0.0290247
-0.0221502
0.0243242
-0.0217274
0.0196651
-0.0209366
0.0151187
-0.0195309
0.0107928
-0.0171338
0.00684455
-0.0132125
0.00349671
-0.007065
0.00106302
0.00216984
0.0155017
0.0360023
-0.0175565
-0.0408099
0.0311358
-0.0172837
0.026237
-0.0168286
0.0213475
-0.0160471
0.016534
-0.0147174
0.0119034
-0.0125031
0.00762064
-0.0089298
0.00393391
-0.00337827
0.00121019
0.00489357
0.0167119
0.0379489
-0.0126047
-0.0429008
0.0329299
-0.0122647
0.0278616
-0.0117603
0.0227784
-0.0109639
0.0177413
-0.00968035
0.0128546
-0.00761638
0.00828877
-0.00436392
0.00431233
0.00059817
0.00133824
0.00786765
0.0180501
0.0395524
-0.00753016
-0.0446269
0.034405
-0.00711734
0.0291965
-0.00655179
0.0239549
-0.0057224
0.0187358
-0.00446124
0.0136404
-0.00252091
0.00884238
0.000434067
0.00462684
0.00481371
0.00144488
0.0110496
0.019495
0.0408036
-0.00235891
-0.0459748
0.0355555
-0.00186928
0.0302376
-0.00123383
0.0248731
-0.00035797
0.019513
0.000898931
0.0142553
0.0027367
0.00927631
0.0054131
0.00487347
0.00921655
0.00152831
0.0143948
0.0210233
0.0416932
0.00287999
-0.0469321
0.0363745
0.00344945
0.0309796
0.00416102
0.0255285
0.00509312
0.0200684
0.00635906
0.0146952
0.00810988
0.00958655
0.0105218
0.00504932
0.0137538
0.00158735
0.0178567
0.0226106
0.0422136
-0.0474888
0.036856
0.0314179
0.0259171
0.0203985
0.0149565
0.00977017
0.00515283
0.00162232
0.0442329
0.0213638
-0.0255108
0.0477363
0.0174295
-0.020933
0.0506508
0.0129996
-0.0159141
0.0530252
0.00824707
-0.0106214
0.0548475
0.00331676
-0.00513912
0.0560891
-0.00169073
0.000449134
0.0567112
-0.00667349
0.00605142
0.0566722
-0.011518
0.011557
0.0559342
-0.0160993
0.0168373
-0.0202837
0.05447
0.021748
0.0434677
0.017499
0.0468771
0.0140202
0.0497375
0.0101392
0.0520117
0.00597288
0.0536781
0.00165034
0.0547075
-0.00272016
0.0550652
-0.00703119
0.0547171
-0.0111699
0.0536363
-0.0150186
-0.018458
0.0518106
0.042512
0.0139144
0.0456988
0.0108334
0.0483587
0.00747921
0.0504185
0.00391314
0.0518343
0.000234534
0.05257
-0.00345589
0.052594
-0.0070552
0.0518823
-0.0104582
0.0504237
-0.01356
-0.0162608
0.0482265
0.0410308
0.0106031
0.0439131
0.00795111
0.0462621
0.00513016
0.0479986
0.00217668
0.0490685
-0.000835353
0.0494334
-0.0038208
0.049068
-0.00668989
0.0479622
-0.0093523
0.0461241
-0.0117219
-0.0137221
0.0435854
0.0385985
0.00760844
0.0411099
0.00543966
0.0430627
0.00317734
0.0443889
0.000850553
0.045039
-0.00148546
0.0449819
-0.00376371
0.0442048
-0.00591286
0.0427153
-0.00786275
0.040543
-0.00954968
-0.0109213
0.0377422
0.0346842
0.00500657
0.0367577
0.00336621
0.0382501
0.00168495
0.0391125
-1.18501e-05
0.0393109
-0.00168386
0.0388298
-0.00328266
0.0376745
-0.00475749
0.035872
-0.00606024
0.0334722
-0.00714992
-0.00799637
0.0305473
0.028612
0.00288374
0.0301906
0.00178758
0.031192
0.000683534
0.0315891
-0.000408944
0.0313685
-0.00146324
0.0305346
-0.00244872
0.0291115
-0.00333442
0.0271439
-0.00409262
0.0246958
-0.00470178
-0.00514876
0.0218482
0.0195433
0.00131485
0.0206028
0.000728122
0.0211378
0.000148486
0.0211422
-0.000413278
0.0206222
-0.000943276
0.0195997
-0.00142621
0.0181127
-0.00184747
0.0162151
-0.00219496
0.013974
-0.00246068
-0.00264186
0.0114671
0.00646231
0.000346478
0.00703078
0.000159654
0.00719906
-1.97896e-05
0.0069755
-0.000189715
0.0063782
-0.000345981
0.00543613
-0.000484138
0.0041889
-0.000600241
0.00268535
-0.000691409
0.000981037
-0.000756365
-0.000796484
-0.000864343
-0.0119313
-0.0117716
-0.0117914
-0.0119811
-0.0123271
-0.0128113
-0.0134115
-0.0141029
-0.0148593
-0.0156558
0.0522717
-0.0239534
0.0261517
0.0493555
-0.0269481
0.0298643
0.0457717
-0.0291916
0.0327754
0.0416034
-0.0306344
0.0348026
0.0369597
-0.0312862
0.0359299
0.031957
-0.0312169
0.0362196
0.0266878
-0.0305341
0.0358033
0.0211689
-0.029319
0.0348379
0.0152822
-0.0274398
0.0333265
-0.0239672
0.0085141
0.0307353
0.0492509
-0.0213937
0.0459958
-0.023693
0.0421175
-0.0253132
0.0377177
-0.0262346
0.0329171
-0.0264857
0.0278354
-0.0261352
0.0225631
-0.0252618
0.0171327
-0.0238886
0.011547
-0.0218542
-0.0185645
0.00614433
0.0453247
-0.0184919
0.0417817
-0.02015
0.0376908
-0.0212223
0.0331691
-0.0217129
0.0283451
-0.0216616
0.0233409
-0.021131
0.0182557
-0.0201766
0.0131648
-0.0187978
0.00818384
-0.0168732
-0.0141048
0.00372409
0.0404036
-0.0153101
0.0366647
-0.0164111
0.0324784
-0.017036
0.0279703
-0.0172048
0.02327
-0.0169613
0.0184979
-0.0163589
0.0137583
-0.0154369
0.00915071
-0.0141902
0.00482346
-0.0125459
-0.0103781
0.00109679
0.03439
-0.0119578
0.030589
-0.0126101
0.0264567
-0.0129037
0.022118
-0.0128661
0.0176952
-0.0125385
0.0132996
-0.0119634
0.00903038
-0.0111677
0.00498816
-0.010148
0.00130853
-0.00886629
-0.00728024
-0.00178934
0.027186
-0.00859657
0.023498
-0.00892208
0.0195974
-0.00900318
0.0155987
-0.00886738
0.0116084
-0.00854823
0.00772124
-0.00807615
0.00402194
-0.00746843
0.000596719
-0.00672276
-0.00244846
-0.0058211
-0.00475418
-0.00497452
0.0186903
-0.00543874
0.015327
-0.00555871
0.0118584
-0.00553464
0.00837934
-0.00538831
0.00497401
-0.00514289
0.00171511
-0.00481725
-0.0013326
-0.00442072
-0.00410418
-0.00395118
-0.00652544
-0.00339984
-0.0027667
-0.00851292
0.00877137
-0.00274302
0.00597514
-0.00276249
0.00315557
-0.00271507
0.000381509
-0.00261425
-0.00228872
-0.00247266
-0.00480644
-0.00229953
-0.00712866
-0.0020985
-0.00921244
-0.0018674
-0.0110107
-0.00160157
-0.00130216
-0.0124753
-0.00279665
-0.000810717
-0.00475502
-0.000804116
-0.00669102
-0.000779066
-0.00856409
-0.000741177
-0.0103421
-0.000694641
-0.0119995
-0.000642141
-0.0135137
-0.000584293
-0.0148615
-0.000519653
-0.0160168
-0.000446203
-0.000365454
-0.0169535
-0.0164665
-0.0172706
-0.0180497
-0.0187908
-0.0194855
-0.0201276
-0.0207119
-0.0212316
-0.0216778
-0.0220432
0.000265133
-0.0223083
0.000969147
-0.0176575
0.00207648
-0.0135826
0.00357799
-0.0100144
0.00547247
-0.006869
0.00775606
-0.00407293
0.0104155
-0.00156263
0.0134178
0.000721771
0.0167164
0.00284572
0.00489814
0.0203324
0.000178303
-0.0224866
0.000657771
-0.018137
0.00142303
-0.0143479
0.00247152
-0.0110629
0.00380274
-0.00820022
0.00541322
-0.00568341
0.00729688
-0.00344628
0.00945324
-0.00143459
0.0119189
0.000380003
0.00195899
0.0148581
9.64712e-05
-0.0225831
0.000374628
-0.0184152
0.000840618
-0.0148138
0.00150519
-0.0117275
0.00237941
-0.00907444
0.00347411
-0.0067781
0.00480295
-0.00477513
0.00638884
-0.00302048
0.00826985
-0.001501
-0.000257528
0.0104864
2.42714e-05
-0.0226074
0.000128636
-0.0185195
0.000341933
-0.0150271
0.000689398
-0.012075
0.00119325
-0.00957829
0.00187409
-0.00745894
0.00275332
-0.00565435
0.00385478
-0.00412195
0.0052003
-0.00284652
-0.00184472
0.0067875
-3.74249e-05
-0.02257
-7.85359e-05
-0.0184784
-7.29364e-05
-0.0150327
1.73424e-05
-0.0121652
0.000222084
-0.00978304
0.000565387
-0.00780224
0.00106741
-0.00615637
0.00174405
-0.00479859
0.00260162
-0.0037041
-0.00286819
0.00362509
-8.86958e-05
-0.0224813
-0.000247408
-0.0183197
-0.000406627
-0.0148735
-0.000518418
-0.0120534
-0.000549002
-0.00975245
-0.000474968
-0.00787628
-0.000281145
-0.0063502
3.9527e-05
-0.00511926
0.000483072
-0.00414764
-0.00341495
0.00102984
-0.000129528
-0.0223517
-0.000378101
-0.0180711
-0.000659958
-0.0145917
-0.000919818
-0.0117936
-0.00112238
-0.00954989
-0.0012469
-0.00775176
-0.00128389
-0.0063132
-0.00123358
-0.00516957
-0.00110628
-0.00427495
-0.0035979
-0.000923331
-0.000159567
-0.0221922
-0.000469761
-0.0177609
-0.000831389
-0.01423
-0.00118381
-0.0114412
-0.00149152
-0.00924218
-0.00173697
-0.00750631
-0.00191588
-0.00613429
-0.0020342
-0.00505125
-0.00210668
-0.00420246
-0.00354869
-0.0021559
-0.000178119
-0.0220141
-0.000521058
-0.017418
-0.000918662
-0.0138324
-0.00130616
-0.0110537
-0.00164835
-0.00889999
-0.00193066
-0.00722399
-0.0021532
-0.00591175
-0.00232662
-0.00487783
-0.00246959
-0.0040595
-0.00341151
-0.00260677
-0.000183609
-0.000530846
-0.000920721
-0.00128505
-0.00158917
-0.00182097
-0.00198406
-0.00209311
-0.00217086
-0.00224559
-0.000858229
-0.00901786
0.00879695
0.00188167
-0.0108918
0.00815189
0.00563861
-0.0119686
0.00821165
0.00998157
-0.0140571
0.00971413
0.0145623
-0.0163145
0.0117338
0.0190658
-0.01838
0.0138764
0.0233579
-0.0200786
0.0157864
0.0273428
-0.0207982
0.0168134
0.0310095
-0.0198317
0.016165
0.0343792
-0.0163393
0.0129695
0.0375238
-0.0103263
0.00718169
0.0404744
-0.00194666
-0.00100387
0.0433451
0.0037876
-0.00665835
0.0460328
0.00595819
-0.00864591
0.0484643
-0.0075432
0.00511176
0.0501291
-0.0260207
0.0243559
0.0512793
-0.0451666
0.0440164
0.0518058
-0.0437344
0.0432079
0.0529859
0.0113734
-0.0125535
0.0225691
-0.0238533
0.0016079
-0.00977199
0.00454969
-0.0138336
0.00837264
-0.0157915
0.0126293
-0.0183137
0.0170342
-0.0207194
0.0213117
-0.0226575
0.0253488
-0.0241156
0.0290716
-0.024521
0.0324876
-0.0232478
0.0356397
-0.0194913
0.0386164
-0.013303
0.0414629
-0.00479315
0.0442753
0.000975176
0.0469253
0.00330821
0.0492746
-0.00989245
0.050801
-0.0275472
0.0517574
-0.0461231
0.0520765
-0.0440535
0.053194
0.0102559
0.0212479
0.00490461
-0.0111948
0.00802293
-0.0169519
0.0118457
-0.0196143
0.0159224
-0.0223904
0.0200522
-0.0248492
0.0240139
-0.0266192
0.0277192
-0.0278209
0.0311171
-0.0279189
0.0342306
-0.0263613
0.03712
-0.0223807
0.039887
-0.0160701
0.0425886
-0.00749472
0.0453029
-0.00173906
0.04788
0.000731104
0.0501248
-0.0121373
0.0515117
-0.0289341
0.0522884
-0.0468997
0.052424
-0.0441891
0.0534925
0.00918747
0.019874
0.00889738
-0.0133785
0.0121424
-0.0201969
0.0158773
-0.0233492
0.01968
-0.0261931
0.0234454
-0.0286146
0.0270174
-0.0301911
0.0303331
-0.0311367
0.0333627
-0.0309485
0.0361403
-0.0291389
0.038739
-0.0249794
0.0412691
-0.0186002
0.0437962
-0.0100218
0.0463811
-0.004324
0.0488571
-0.0017449
0.0509819
-0.014262
0.0522349
-0.030187
0.0528535
-0.0475184
0.0528373
-0.044173
0.0538752
0.0081496
0.0184294
0.0134224
-0.0163538
0.016716
-0.0234905
0.0202523
-0.0268856
0.0236881
-0.0296289
0.0270145
-0.031941
0.0301428
-0.0333194
0.0330331
-0.034027
0.0356726
-0.033588
0.0381018
-0.0315681
0.0404008
-0.0272785
0.0426833
-0.0208826
0.0450199
-0.0123584
0.0474556
-0.00675969
0.0498115
-0.00410088
0.0518094
-0.0162599
0.0529421
-0.0313198
0.0534322
-0.0480085
0.0533034
-0.0440442
0.0543337
0.0071193
0.0168945
0.0182893
-0.0200652
0.021523
-0.0267242
0.0247314
-0.0300939
0.0277128
-0.0326103
0.0305444
-0.0347727
0.0331982
-0.0359732
0.0356512
-0.0364799
0.0379016
-0.0358384
0.0399912
-0.0336576
0.042001
-0.0292884
0.0440427
-0.0229243
0.0461881
-0.0145038
0.0484678
-0.00903932
0.0506959
-0.00632904
0.0525694
-0.0181334
0.0536036
-0.032354
0.0540024
-0.0484072
0.0538069
-0.0438487
0.0548579
0.00606826
0.0152471
0.023274
-0.024331
0.0263089
-0.0297592
0.029055
-0.03284
0.0315092
-0.0350645
0.0338152
-0.0370787
0.0359901
-0.0381482
0.0380189
-0.0385087
0.0399042
-0.0377237
0.0416833
-0.0354368
0.0434332
-0.0310382
0.0452583
-0.0247494
0.0472276
-0.0164731
0.0493584
-0.0111701
0.051463
-0.00843365
0.053225
-0.0198954
0.0541902
-0.0333191
0.0545412
-0.0487582
0.0543312
-0.0436387
0.0554363
0.00496308
0.0134621
0.0281196
-0.0287816
0.0307819
-0.0324215
0.0329488
-0.0350069
0.0348307
-0.0369465
0.0366121
-0.03886
0.0383331
-0.0398692
0.0399763
-0.0401519
0.041542
-0.0392894
0.043059
-0.0369538
0.0445952
-0.0325743
0.0462441
-0.0263984
0.0480674
-0.0182964
0.0500705
-0.0131731
0.052068
-0.0104312
0.0537412
-0.0215686
0.0546738
-0.0342516
0.0550263
-0.0491108
0.0548588
-0.0434712
0.0560563
0.00376554
0.0115117
0.0326584
-0.0328417
0.0346997
-0.0344628
0.0361854
-0.0364926
0.0374785
-0.0382396
0.0387652
-0.0401467
0.0400808
-0.0411848
0.0413962
-0.0414673
0.0427036
-0.0405967
0.0440199
-0.0382701
0.0454005
-0.033955
0.0469251
-0.027923
0.0486442
-0.0200155
0.0505523
-0.0150813
0.0524703
-0.0123492
0.0540865
-0.0231848
0.0550293
-0.0351944
0.0554371
-0.0495186
0.0553727
-0.0434067
0.0567047
0.0024335
0.00936533
0.0369624
-0.0358619
0.038
-0.0355004
0.0386672
-0.0371598
0.0393718
-0.0389443
0.0402018
-0.0409767
0.0411664
-0.0421494
0.0422152
-0.0425161
0.0433274
-0.041709
0.0445064
-0.0394492
0.0457918
-0.0352403
0.0472475
-0.0293787
0.0489085
-0.0216766
0.0507612
-0.016934
0.0526347
-0.0142227
0.0542328
-0.0247829
0.0552353
-0.0361969
0.0557539
-0.0500372
0.0558586
-0.0435113
0.0573679
0.00092415
0.00698979
0.118095
-0.0273768
-0.126581
0.113654
-0.0310587
0.111107
-0.0346132
0.109576
-0.0374132
0.108467
-0.0398678
0.10765
-0.0413323
0.106959
-0.0418251
0.106325
-0.0410749
0.105747
-0.0388713
0.105339
-0.034832
0.105308
-0.0293475
0.105941
-0.0223097
0.107309
-0.0183024
0.109221
-0.0161345
0.110754
-0.0263156
0.110932
-0.036375
0.109564
-0.0486688
0.106938
-0.0408861
0.107254
0.000608683
0.00471111
0.165477
-0.0168578
-0.175996
0.157323
-0.0229054
0.151586
-0.0288755
0.147461
-0.0332882
0.144198
-0.0366055
0.141554
-0.0386875
0.139294
-0.0395658
0.1373
-0.0390802
0.13554
-0.0371118
0.134101
-0.0333929
0.133183
-0.0284295
0.133053
-0.0221795
0.133753
-0.0190027
0.135068
-0.017449
0.135923
-0.0271711
0.135404
-0.035856
0.133152
-0.0464173
0.129708
-0.0374423
0.129599
0.000718581
0.00249976
0.216746
-0.00631211
-0.227292
0.207742
-0.0139017
0.20002
-0.0211529
0.193667
-0.0269357
0.188278
-0.0312164
0.183653
-0.0340628
0.179606
-0.0355187
0.176019
-0.0354927
0.17286
-0.0339526
0.170194
-0.0307273
0.168202
-0.0264372
0.167107
-0.0210845
0.166891
-0.0187866
0.167316
-0.0178746
0.167171
-0.0270259
0.165693
-0.0343781
0.162367
-0.0430913
0.158063
-0.0331376
0.157437
0.00134466
0.000537913
0.268265
0.00212108
-0.276698
0.260478
-0.00611516
0.252738
-0.013412
0.2455
-0.0196983
0.238861
-0.0245767
0.232802
-0.028004
0.227281
-0.0299984
0.222272
-0.0304831
0.217801
-0.0294816
0.213949
-0.0268758
0.210884
-0.0233716
0.208769
-0.0189695
0.207497
-0.0175144
0.20681
-0.0171883
0.205381
-0.0255966
0.202722
-0.0317187
0.198197
-0.0385664
0.193132
-0.0280724
0.191982
0.00249416
-0.00096445
0.317868
0.00737816
-0.323125
0.312281
-0.000528097
0.306068
-0.0071988
0.299475
-0.0131056
0.292877
-0.0179791
0.28646
-0.0215865
0.280323
-0.023862
0.274557
-0.0247167
0.269284
-0.024209
0.264642
-0.0222333
0.260799
-0.0195293
0.25787
-0.0160396
0.255629
-0.0152744
0.25381
-0.0153692
0.250996
-0.0227822
0.247074
-0.0277964
0.241386
-0.0328786
0.235835
-0.0225211
0.234331
0.00399747
-0.00182461
0.366587
0.00950778
-0.368716
0.363242
0.00281686
0.358986
-0.00294314
0.35387
-0.00798946
0.34823
-0.0123397
0.342377
-0.0157331
0.336515
-0.0179999
0.330812
-0.0190134
0.32546
-0.0188571
0.320653
-0.0174264
0.316562
-0.0154385
0.31327
-0.0127472
0.310417
-0.0124217
0.30774
-0.0126917
0.303757
-0.0187992
0.298749
-0.0227885
0.292174
-0.0263037
0.286575
-0.0169222
0.285135
0.00543772
-0.0019779
0.417438
0.00920825
-0.417139
0.416012
0.00424353
0.413449
-0.000380357
0.409859
-0.00439944
0.405435
-0.00791599
0.40049
-0.0107884
0.395308
-0.0128174
0.390119
-0.0138245
0.385151
-0.0138888
0.380638
-0.0129134
0.376733
-0.011534
0.373521
-0.00953554
0.370503
-0.00940322
0.36744
-0.00962843
0.362806
-0.014165
0.357166
-0.017149
0.350211
-0.0193482
0.345052
-0.0117638
0.344306
0.00618413
-0.00156295
0.473845
0.0072146
-0.471851
0.474041
0.00404726
0.472861
0.000799906
0.470532
-0.0020704
0.467194
-0.00457858
0.463094
-0.00668792
0.458539
-0.00826304
0.453832
-0.00911741
0.449236
-0.00929237
0.445031
-0.0087084
0.44135
-0.00785361
0.438327
-0.00651195
0.435358
-0.00643482
0.432264
-0.00653446
0.42752
-0.00942019
0.421771
-0.0114005
0.414986
-0.0125631
0.410577
-0.00735475
0.411142
0.00561902
-0.000911088
0.53963
0.00404471
-0.536461
0.54116
0.00251728
0.541143
0.000817405
0.539799
-0.000726156
0.537292
-0.00207185
0.533821
-0.00321732
0.529668
-0.00410989
0.525181
-0.00462981
0.520671
-0.00478233
0.516482
-0.00452026
0.512744
-0.00411546
0.509669
-0.00343637
0.50662
-0.00338611
0.503496
-0.00341036
0.498847
-0.00477146
0.493224
-0.00577743
0.486868
-0.00620742
0.483122
-0.00360864
0.485257
0.00348422
-0.000368162
0.619993
-0.615949
0.622511
0.623328
0.622602
0.62053
0.617313
0.613203
0.608573
0.603791
0.59927
0.595155
0.591719
0.588332
0.584922
0.580151
0.574373
0.568166
0.564557
0.568041
0.167657
0.0228832
-0.166678
0.167858
0.0284591
0.167097
0.0337291
0.165189
0.0385604
0.161966
0.0428125
0.157314
0.0463505
0.151215
0.049065
0.143806
0.0508994
0.135446
0.051825
0.0516242
0.191923
0.020911
-0.189951
0.193584
0.0267987
0.194785
0.032528
0.195355
0.0379897
0.195109
0.0430587
0.193859
0.0476011
0.191436
0.0514878
0.187716
0.0546189
0.182578
0.0569633
0.0582064
0.217655
0.0183873
-0.215131
0.220295
0.0241586
0.222957
0.0298658
0.22551
0.035437
0.22778
0.0407887
0.229555
0.0458265
0.230595
0.0504475
0.230672
0.0545423
0.229607
0.0580281
0.0605214
0.246178
0.0157221
-0.243513
0.249237
0.0211003
0.252646
0.0264565
0.256338
0.031745
0.260214
0.0369122
0.264145
0.0418954
0.26797
0.0466231
0.271497
0.0510146
0.274521
0.0550039
0.0583447
0.278557
0.0130622
-0.275897
0.281787
0.0178695
0.28558
0.022664
0.289912
0.0274127
0.294745
0.0320796
0.300015
0.0366252
0.305631
0.0410067
0.31147
0.0451762
0.317387
0.0490867
0.0526069
0.315589
0.0104367
-0.312964
0.318919
0.0145401
0.322951
0.0186319
0.327678
0.0226859
0.333082
0.0266751
0.339136
0.0305712
0.345798
0.0343451
0.353008
0.0379658
0.360694
0.041401
0.0445844
0.358185
0.00785271
-0.355601
0.361594
0.0111315
0.365826
0.0143996
0.370876
0.0176362
0.376731
0.0208197
0.383374
0.0239285
0.390778
0.0269411
0.398908
0.0298356
0.407719
0.0325897
0.035165
0.407754
0.00529427
-0.405196
0.41126
0.00762545
0.415711
0.00994879
0.421098
0.0122489
0.427408
0.01451
0.43462
0.0167168
0.442707
0.0188537
0.451637
0.0209055
0.46137
0.0228569
0.0246843
0.466431
0.0027108
-0.463848
0.470098
0.00395894
0.474843
0.00520346
0.480656
0.00643576
0.487519
0.00764717
0.495407
0.00882906
0.504287
0.00997291
0.514123
0.0110704
0.524866
0.0121133
0.0130898
0.537628
-0.534917
0.541587
0.54679
0.553226
0.560873
0.569702
0.579675
0.590746
0.602859
0.143458
-0.0301904
-0.141108
0.146308
-0.0264451
0.14927
-0.0218196
0.152246
-0.0168241
0.155164
-0.0115391
0.157978
-0.00604866
0.160627
-0.000389687
0.163031
0.00539499
0.165088
0.0112475
0.0170978
0.170882
-0.0318588
-0.169214
0.172705
-0.028268
0.174634
-0.0237487
0.17667
-0.01886
0.178794
-0.013663
0.180993
-0.00824725
0.18325
-0.00264664
0.185532
0.00311233
0.18779
0.0089901
0.0149366
0.202209
-0.0323164
-0.201751
0.202856
-0.0289147
0.203636
-0.0245292
0.204586
-0.0198104
0.205751
-0.0148272
0.207146
-0.00964243
0.208783
-0.00428353
0.210666
0.0012291
0.212789
0.00686709
0.0125946
0.237295
-0.0314682
-0.238143
0.236634
-0.0282534
0.236239
-0.0241345
0.236144
-0.0197157
0.236395
-0.0150775
0.237016
-0.0102633
0.238024
-0.00529221
0.239437
-0.000183204
0.241265
0.00503904
0.0103459
0.276087
-0.0293116
-0.278243
0.274158
-0.0263248
0.272636
-0.0226123
0.271563
-0.0186428
0.270972
-0.0144862
0.270883
-0.0101752
0.271316
-0.00572508
0.272287
-0.0011537
0.27381
0.00351608
0.008259
0.319173
-0.0258663
-0.322619
0.316069
-0.0232202
0.313496
-0.0200393
0.311504
-0.0166509
0.31012
-0.0131024
0.309364
-0.0094189
0.309254
-0.00561492
0.309807
-0.00170732
0.31104
0.0022835
0.00633537
0.367603
-0.0211687
-0.372301
0.363387
-0.0190041
0.359818
-0.0164701
0.356943
-0.0137763
0.354792
-0.0109513
0.353387
-0.00801317
0.352747
-0.00497557
0.352893
-0.00185343
0.353841
0.00133618
0.00457493
0.422814
-0.015268
-0.428714
0.41753
-0.0137203
0.412997
-0.0119378
0.409263
-0.0100422
0.406361
-0.00804917
0.404319
-0.0059709
0.403162
-0.00381827
0.402911
-0.00160292
0.403585
0.000662412
0.0029641
0.486937
-0.00820302
-0.494002
0.480604
-0.00738698
0.475118
-0.00645165
0.47053
-0.00545407
0.466882
-0.00440119
0.46421
-0.00329947
0.462547
-0.00215517
0.461919
-0.000974933
0.462348
0.000234054
0.00146416
0.563342
-0.571545
0.555955
0.549504
0.54405
0.539648
0.536349
0.534194
0.533219
0.533453
0.126774
0.00231848
-0.00222718
0.126518
0.00703457
-0.00677797
0.126102
0.0121542
-0.0117388
0.125531
0.0180596
-0.0174877
0.124857
0.0251094
-0.0244354
0.124136
0.0343542
-0.0336341
0.123833
0.045683
-0.0453797
0.124108
0.0634219
-0.0636966
0.128852
0.0813899
-0.086134
0.120823
-0.133079
0.147934
0.00238082