/*--------------------------------*- C++ -*----------------------------------*\
  =========                 |
  \\      /  F ield         | OpenFOAM: The Open Source CFD Toolbox
   \\    /   O peration     | Website:  https://openfoam.org
    \\  /    A nd           | Version:  6.0
     \\/     M anipulation  |
\*---------------------------------------------------------------------------*/
FoamFile
{
    version     2.0;
    format      ascii;
    class       volVectorField;
    location    "22.75";
    object      U;
}
// * * * * * * * * * * * * * * * * * * * * * * * * * * * * * * * * * * * * * //

dimensions      [0 1 -1 0 0 0 0];

internalField   nonuniform List<vector> 
19200
(
(0.652798 -16.9187 -5.38961e-20)
(0.213563 -16.1768 2.53326e-20)
(0.233411 -15.6281 1.188e-20)
(0.299022 -15.1967 1.06435e-20)
(0.33986 -14.8346 1.18868e-20)
(0.380479 -14.5077 6.99286e-22)
(0.421847 -14.1962 1.98531e-21)
(0.460752 -13.8898 -1.29667e-21)
(0.496322 -13.5839 1.46422e-20)
(0.52844 -13.2774 6.07006e-21)
(0.557156 -12.9709 -6.17632e-23)
(0.582677 -12.666 9.60539e-21)
(0.605306 -12.3645 1.59516e-20)
(0.625389 -12.0683 -1.08701e-20)
(0.643269 -11.7788 1.37993e-20)
(0.659265 -11.4971 1.19419e-20)
(0.673666 -11.2241 -1.12676e-20)
(0.686719 -10.9603 1.92264e-20)
(0.698636 -10.706 -1.22993e-20)
(0.709591 -10.4611 6.10918e-21)
(0.719732 -10.2257 8.63219e-21)
(0.729179 -9.99951 -2.84801e-21)
(0.738039 -9.78221 3.82654e-21)
(0.746402 -9.5734 -4.47805e-21)
(0.754355 -9.37256 9.73271e-21)
(0.761966 -9.17899 2.34334e-21)
(0.769285 -8.99188 -1.57988e-21)
(0.776423 -8.81018 9.2445e-22)
(0.783596 -8.63261 2.23611e-21)
(0.790094 -8.45765 8.29086e-21)
(1.09494 -16.9028 -1.22188e-20)
(0.638823 -16.1881 7.77986e-20)
(0.644903 -15.6502 -4.12842e-20)
(0.699275 -15.2246 -5.67834e-20)
(0.730553 -14.8659 -2.58211e-20)
(0.762387 -14.5402 -1.84126e-20)
(0.795234 -14.2284 -3.74252e-20)
(0.825649 -13.9206 5.04941e-21)
(0.852679 -13.6126 -8.11688e-21)
(0.876208 -13.3038 -2.92446e-20)
(0.89633 -12.9948 -7.33654e-20)
(0.91331 -12.6876 3.56634e-20)
(0.927517 -12.3841 -1.34145e-20)
(0.939347 -12.0859 5.05854e-21)
(0.949186 -11.7947 -3.06934e-20)
(0.957388 -11.5116 -1.12992e-20)
(0.96426 -11.2374 1.27184e-21)
(0.97006 -10.9725 3.83705e-20)
(0.975003 -10.7173 -2.01472e-20)
(0.979261 -10.4717 -1.1157e-20)
(0.982976 -10.2357 -4.40537e-20)
(0.986258 -10.0089 1.13169e-20)
(0.989201 -9.7912 -7.10057e-21)
(0.991885 -9.58205 1.26232e-20)
(0.994379 -9.38095 -1.58705e-20)
(0.996734 -9.18723 -9.17333e-21)
(0.998972 -9.00004 2.97722e-21)
(1.00121 -8.81831 4.68153e-21)
(1.00372 -8.64073 -8.22381e-21)
(1.00555 -8.46572 3.7899e-21)
(1.53768 -16.8764 -5.75524e-21)
(1.06456 -16.1885 1.53879e-20)
(1.05742 -15.6615 2.48275e-20)
(1.10097 -15.2418 1.96747e-19)
(1.1229 -14.8867 -1.14189e-19)
(1.14603 -14.5624 1.03666e-19)
(1.17034 -14.2503 -9.33929e-20)
(1.1922 -13.9412 5.01615e-20)
(1.21058 -13.6314 -4.73425e-20)
(1.2254 -13.3204 -5.07738e-21)
(1.23681 -13.0093 1.19101e-19)
(1.24513 -12.7 1.99615e-20)
(1.2508 -12.3946 -5.52849e-20)
(1.25428 -12.0948 4.31215e-20)
(1.25599 -11.8021 -6.90662e-23)
(1.25633 -11.5178 1.84055e-20)
(1.25561 -11.2426 1.30971e-20)
(1.25411 -10.9769 4.4644e-20)
(1.25203 -10.7209 -1.95296e-20)
(1.24956 -10.4748 -6.36951e-21)
(1.24682 -10.2383 -1.70677e-20)
(1.24391 -10.0113 7.61855e-20)
(1.24092 -9.79327 -6.37431e-20)
(1.23791 -9.58395 2.05376e-20)
(1.23493 -9.38275 4.79118e-20)
(1.23202 -9.18901 -3.91663e-20)
(1.22918 -9.00189 5.22256e-20)
(1.22651 -8.8203 -5.5459e-21)
(1.22438 -8.64285 -5.89557e-21)
(1.22149 -8.46799 -3.80946e-20)
(1.97929 -16.8388 -1.93194e-19)
(1.49019 -16.1779 -1.6742e-19)
(1.47054 -15.6619 -2.05573e-19)
(1.50375 -15.2483 5.40052e-21)
(1.51657 -14.8969 1.25207e-20)
(1.53108 -14.5741 -2.31702e-19)
(1.54685 -14.2618 -1.14562e-19)
(1.56008 -13.9517 3.01892e-20)
(1.56973 -13.6402 -5.10608e-21)
(1.57572 -13.3273 5.1492e-20)
(1.57829 -13.0143 -2.02424e-19)
(1.57784 -12.7032 -1.26172e-19)
(1.57488 -12.3961 4.66965e-20)
(1.56993 -12.0948 9.33213e-20)
(1.56344 -11.801 -1.07914e-19)
(1.55585 -11.5157 -1.68794e-20)
(1.54748 -11.2397 -6.40735e-20)
(1.53863 -10.9734 -3.0139e-20)
(1.52951 -10.717 5.09371e-20)
(1.52027 -10.4705 -6.50604e-20)
(1.51105 -10.2338 5.69973e-20)
(1.50194 -10.0065 -6.73186e-20)
(1.493 -9.78844 -5.30517e-20)
(1.48428 -9.57908 -3.83513e-20)
(1.47583 -9.37794 4.44313e-20)
(1.46766 -9.18434 -7.89244e-20)
(1.45973 -8.99743 8.22284e-21)
(1.45218 -8.81612 1.42206e-20)
(1.4454 -8.63898 -4.14151e-20)
(1.43777 -8.46443 8.07439e-21)
(2.42006 -16.7901 -1.1378e-19)
(1.91588 -16.1565 1.61386e-20)
(1.88419 -15.6515 1.41406e-19)
(1.90739 -15.2441 1.47926e-19)
(1.91131 -14.8965 1.06885e-19)
(1.91726 -14.5753 4.43085e-20)
(1.92448 -14.263 2.70992e-20)
(1.92902 -13.9519 3.11228e-19)
(1.92982 -13.639 -1.86115e-19)
(1.92689 -13.3244 5.2369e-21)
(1.92051 -13.0097 4.45862e-20)
(1.91119 -12.697 1.92593e-19)
(1.89951 -12.3885 -1.30484e-19)
(1.88603 -12.086 9.37482e-20)
(1.87128 -11.7913 -1.0408e-19)
(1.8557 -11.5052 1.78762e-19)
(1.83965 -11.2286 -5.23977e-20)
(1.82342 -10.962 1.9639e-21)
(1.80721 -10.7053 8.48993e-20)
(1.7912 -10.4587 5.9856e-20)
(1.77548 -10.2219 -6.07712e-20)
(1.76015 -9.99467 8.22586e-20)
(1.74525 -9.77666 -3.74752e-20)
(1.73082 -9.56744 4.33227e-20)
(1.7169 -9.3665 4.83653e-20)
(1.70346 -9.17318 2.13675e-20)
(1.69046 -8.98664 6.5e-20)
(1.67804 -8.80576 -2.31422e-20)
(1.66663 -8.62907 -7.46067e-21)
(1.65424 -8.45503 -3.49808e-20)
(2.8596 -16.73 -8.24186e-20)
(2.34135 -16.1241 -5.18431e-20)
(2.29813 -15.6303 -1.59155e-19)
(2.31162 -15.2291 -4.16367e-19)
(2.30682 -14.8854 1.38957e-19)
(2.30429 -14.5659 9.12704e-21)
(2.30293 -14.2538 1.9592e-21)
(2.29871 -13.9419 1.84714e-20)
(2.29058 -13.6277 -1.34473e-20)
(2.27861 -13.3116 -2.39719e-19)
(2.26319 -12.9954 1.00067e-19)
(2.2449 -12.6814 1.72418e-19)
(2.2244 -12.3717 2.5401e-22)
(2.20233 -12.0684 6.34757e-20)
(2.17926 -11.7729 1.57488e-19)
(2.15565 -11.4864 -1.08639e-19)
(2.13187 -11.2095 1.90476e-19)
(2.10823 -10.9427 -9.12867e-20)
(2.08493 -10.686 1.61284e-19)
(2.06211 -10.4394 -1.21376e-19)
(2.03989 -10.2027 5.38424e-20)
(2.01833 -9.97569 1.42014e-19)
(1.99747 -9.75792 8.41934e-21)
(1.97734 -9.549 -1.32019e-19)
(1.95794 -9.34842 7.25384e-20)
(1.93925 -9.15553 2.21088e-20)
(1.9212 -8.9695 -2.3979e-20)
(1.90392 -8.78921 9.08558e-20)
(1.88792 -8.61312 3.22235e-20)
(1.87074 -8.43977 -2.97211e-20)
(3.29767 -16.6586 2.32746e-19)
(2.76639 -16.0806 -2.49874e-21)
(2.71212 -15.5982 -3.217e-19)
(2.7162 -15.2033 6.60732e-20)
(2.70283 -14.8635 -9.15989e-20)
(2.69186 -14.5458 6.67178e-20)
(2.68191 -14.234 -3.19229e-20)
(2.66885 -13.9215 2.65422e-19)
(2.6517 -13.6063 -2.86534e-19)
(2.63059 -13.289 6.99602e-20)
(2.60602 -12.9715 -4.92181e-20)
(2.57868 -12.6564 3.58333e-20)
(2.5493 -12.3458 -1.59215e-19)
(2.51858 -12.0418 -1.07664e-20)
(2.48712 -11.7459 2.55316e-19)
(2.45544 -11.4591 -1.75747e-19)
(2.42392 -11.1822 -1.11642e-19)
(2.39284 -10.9154 -8.1388e-20)
(2.36243 -10.6589 1.46824e-19)
(2.33281 -10.4126 3.17347e-20)
(2.30408 -10.1763 -1.45333e-19)
(2.2763 -9.94959 1.93513e-19)
(2.24948 -9.73223 -1.75094e-19)
(2.22364 -9.52376 1.15782e-19)
(2.19878 -9.32369 -6.59672e-20)
(2.17485 -9.13137 1.98332e-20)
(2.15176 -8.946 3.21699e-20)
(2.12967 -8.76644 -1.44205e-19)
(2.10909 -8.59111 6.1753e-20)
(2.08713 -8.41865 8.81457e-22)
(3.73397 -16.5759 -2.2729e-19)
(3.19072 -16.0261 1.75723e-19)
(3.1259 -15.5552 -3.29489e-19)
(3.12083 -15.1666 6.27755e-19)
(3.09905 -14.8309 -1.75589e-19)
(3.07969 -14.5151 2.49704e-19)
(3.06111 -14.2037 1.94927e-19)
(3.03915 -13.8908 -3.48695e-20)
(3.01288 -13.5747 -4.99254e-20)
(2.98254 -13.2563 -4.70065e-22)
(2.94874 -12.9379 -1.92402e-19)
(2.91226 -12.622 1.00488e-19)
(2.87392 -12.3108 -1.20757e-19)
(2.83449 -12.0064 -9.51386e-21)
(2.79462 -11.7103 -3.38254e-19)
(2.75484 -11.4235 1.10685e-19)
(2.71554 -11.1467 6.39604e-20)
(2.67703 -10.8803 -7.26818e-20)
(2.63949 -10.6242 -8.53934e-21)
(2.60307 -10.3783 -1.11255e-19)
(2.56784 -10.1425 -3.97849e-20)
(2.53383 -9.91636 3.58428e-21)
(2.50106 -9.69958 -9.74447e-20)
(2.46953 -9.49172 -1.45385e-19)
(2.43923 -9.29231 6.17268e-21)
(2.41008 -9.10071 2.02481e-20)
(2.38197 -8.91615 4.60088e-20)
(2.35509 -8.73747 -1.13672e-19)
(2.32998 -8.56305 9.69061e-20)
(2.30325 -8.39167 -1.74769e-19)
(4.16822 -16.4819 -5.58257e-19)
(3.61405 -15.9604 6.46401e-19)
(3.53918 -15.5011 -6.84522e-19)
(3.52524 -15.119 -1.85993e-19)
(3.49518 -14.7875 -1.18338e-19)
(3.46747 -14.4736 -1.2943e-19)
(3.44023 -14.1628 -2.9546e-19)
(3.40931 -13.8496 -2.50937e-20)
(3.37383 -13.5329 -1.19072e-19)
(3.33417 -13.2137 -2.39807e-20)
(3.29105 -12.8946 1.99566e-19)
(3.24536 -12.5781 -1.12862e-19)
(3.19801 -12.2666 -1.33202e-19)
(3.14982 -11.962 -2.2555e-19)
(3.1015 -11.666 4.74073e-19)
(3.0536 -11.3795 -1.81731e-19)
(3.00651 -11.1031 6.80334e-20)
(2.96055 -10.8372 -2.54559e-19)
(2.9159 -10.5817 9.81644e-20)
(2.87268 -10.3365 -4.01633e-20)
(2.83095 -10.1014 5.07468e-20)
(2.79073 -9.876 -1.7129e-20)
(2.75203 -9.65997 1.59471e-19)
(2.71482 -9.45289 -5.63959e-20)
(2.67908 -9.25428 1.57351e-19)
(2.64473 -9.06356 -3.20747e-19)
(2.61164 -8.87994 2.04765e-19)
(2.58002 -8.70229 5.68395e-20)
(2.55042 -8.52893 1.06233e-19)
(2.51893 -8.35883 -3.06437e-19)
(4.60012 -16.3766 8.80515e-19)
(4.03611 -15.8836 -1.62709e-19)
(3.95168 -15.436 2.95612e-19)
(3.92913 -15.0605 -8.30613e-20)
(3.89093 -14.7331 2.92266e-19)
(3.8549 -14.4214 2.7639e-19)
(3.81897 -14.1113 1.30228e-19)
(3.77901 -13.798 -4.78826e-20)
(3.73425 -13.4808 -2.99549e-19)
(3.68518 -13.1612 4.37912e-19)
(3.63266 -12.8416 -3.39668e-20)
(3.57769 -12.5248 3.07104e-19)
(3.52128 -12.2132 1.11589e-19)
(3.4643 -11.9088 4.08039e-20)
(3.4075 -11.6131 6.33359e-20)
(3.35146 -11.3271 8.94814e-20)
(3.29659 -11.0514 1.48844e-19)
(3.24318 -10.7862 -4.30368e-20)
(3.19142 -10.5315 2.20059e-19)
(3.14141 -10.2872 1.01496e-19)
(3.0932 -10.053 -2.11438e-19)
(3.04679 -9.82853 3.76239e-19)
(3.00217 -9.61342 -4.97146e-19)
(2.9593 -9.40728 4.70061e-19)
(2.91816 -9.20963 -1.55762e-19)
(2.87864 -9.01992 -6.47115e-20)
(2.8406 -8.8374 -1.67779e-20)
(2.80427 -8.66091 1.15248e-19)
(2.77024 -8.48876 4.12538e-20)
(2.73401 -8.32013 -4.66007e-20)
(5.02938 -16.26 -4.98925e-19)
(4.4566 -15.7957 4.6793e-19)
(4.3631 -15.3599 -1.26977e-19)
(4.3322 -14.991 3.64759e-19)
(4.28599 -14.6678 3.64621e-20)
(4.24168 -14.3583 7.79041e-20)
(4.19702 -14.0491 -6.25696e-19)
(4.14796 -13.7359 2.91262e-19)
(4.09383 -13.4185 4.00717e-19)
(4.03528 -13.0986 3.03122e-19)
(3.97329 -12.7788 -5.16374e-19)
(3.90899 -12.462 3.00558e-19)
(3.84346 -12.1506 -2.99611e-19)
(3.77766 -11.8466 2.05918e-19)
(3.71237 -11.5515 -3.46006e-19)
(3.64818 -11.2663 -2.56757e-19)
(3.58552 -10.9915 1.54017e-20)
(3.52468 -10.7273 -1.17884e-19)
(3.46582 -10.4737 2.08794e-19)
(3.40904 -10.2305 8.3844e-20)
(3.35437 -9.99735 -5.47216e-20)
(3.30179 -9.77397 -1.56155e-20)
(3.25128 -9.55995 6.52181e-20)
(3.20278 -9.3549 -2.1791e-19)
(3.15626 -9.15837 3.60723e-19)
(3.1116 -8.96981 -8.80193e-20)
(3.06865 -8.78853 -1.5073e-19)
(3.02766 -8.61335 3.15591e-19)
(2.98925 -8.44257 4.2511e-20)
(2.94833 -8.27561 -4.16826e-20)
(5.45569 -16.1323 2.17667e-20)
(4.87521 -15.6967 -2.60291e-19)
(4.77314 -15.2727 -2.37798e-19)
(4.73415 -14.9104 -3.96474e-19)
(4.68006 -14.5916 1.47022e-20)
(4.62748 -14.2844 -2.84106e-19)
(4.57407 -13.9762 3.35474e-19)
(4.51583 -13.6634 -1.65997e-19)
(4.45227 -13.346 2.691e-19)
(4.38416 -13.026 -2.22651e-19)
(4.31264 -12.7063 -1.13626e-19)
(4.23895 -12.3897 6.23093e-20)
(4.16428 -12.0788 3.37461e-20)
(4.08964 -11.7755 -3.42495e-19)
(4.01585 -11.4813 2.01074e-19)
(3.94352 -11.1971 -9.95194e-20)
(3.87308 -10.9234 2.82998e-19)
(3.80482 -10.6605 -9.33149e-20)
(3.73889 -10.4082 9.6844e-20)
(3.67536 -10.1663 2.4411e-20)
(3.61425 -9.93443 1.66396e-19)
(3.55553 -9.71234 -3.37472e-20)
(3.49915 -9.49959 2.74321e-19)
(3.44506 -9.29579 -3.05699e-19)
(3.39319 -9.10052 -1.04083e-19)
(3.34342 -8.91327 8.48526e-20)
(3.2956 -8.73336 -8.74052e-21)
(3.25001 -8.55964 -2.3312e-19)
(3.20729 -8.39036 1.19395e-19)
(3.16172 -8.22528 -1.30674e-19)
(5.87876 -15.9934 8.37927e-19)
(5.29164 -15.5865 2.14375e-19)
(5.1815 -15.1745 2.60092e-19)
(5.13467 -14.8189 3.48575e-19)
(5.07282 -14.5044 5.24744e-19)
(5.012 -14.1997 -1.67906e-20)
(4.9498 -13.8926 7.63911e-20)
(4.88233 -13.5803 8.8425e-19)
(4.80926 -13.2632 2.54202e-19)
(4.73152 -12.9434 -2.14626e-19)
(4.65041 -12.6241 3.75489e-19)
(4.5673 -12.3081 6.32461e-20)
(4.48346 -11.9979 2.5896e-21)
(4.39996 -11.6956 8.95625e-20)
(4.31767 -11.4025 1.59538e-19)
(4.23721 -11.1196 -3.28468e-19)
(4.15901 -10.8473 2.79343e-19)
(4.08335 -10.5858 4.65982e-20)
(4.01037 -10.335 2.73049e-19)
(3.94013 -10.0946 -1.4864e-19)
(3.87262 -9.86429 2.44441e-19)
(3.80779 -9.64367 -2.60746e-19)
(3.74557 -9.43236 2.51633e-19)
(3.68591 -9.22998 3.53819e-20)
(3.62873 -9.03612 -1.69522e-19)
(3.5739 -8.85032 -5.54385e-20)
(3.52125 -8.67192 3.23921e-19)
(3.47113 -8.4998 -4.90606e-20)
(3.42415 -8.33218 6.24901e-20)
(3.374 -8.16917 -4.00624e-20)
(6.29831 -15.8434 8.33227e-20)
(5.70561 -15.4653 1.85996e-19)
(5.58787 -15.0651 7.62531e-19)
(5.53344 -14.7163 -1.24167e-18)
(5.46395 -14.4063 -1.22589e-19)
(5.39492 -14.1041 -1.34042e-19)
(5.32389 -13.7983 5.88515e-20)
(5.24714 -13.4868 7.68201e-20)
(5.16449 -13.1701 1.95992e-19)
(5.07707 -12.8509 -3.49495e-19)
(4.98633 -12.5322 -6.76202e-20)
(4.89376 -12.217 1.92855e-19)
(4.80073 -11.9079 2.08219e-19)
(4.70837 -11.6068 -2.08553e-19)
(4.61758 -11.3152 -2.06527e-19)
(4.529 -11.0338 3.33453e-19)
(4.44307 -10.7632 2.1717e-19)
(4.36005 -10.5034 -5.66993e-20)
(4.28006 -10.2543 -1.39321e-19)
(4.20314 -10.0156 2.46289e-20)
(4.12926 -9.78697 -3.21016e-19)
(4.05835 -9.568 3.85854e-19)
(3.99034 -9.35831 -2.64101e-19)
(3.92515 -9.15751 -1.12178e-20)
(3.8627 -8.96521 1.7325e-19)
(3.80285 -8.781 -5.43364e-20)
(3.74542 -8.60426 -1.64064e-19)
(3.69082 -8.43387 2.52394e-20)
(3.63966 -8.26805 -7.04978e-21)
(3.585 -8.10732 3.08062e-20)
(6.71402 -15.6825 -6.35737e-20)
(6.11679 -15.333 -1.96244e-19)
(5.99194 -14.9447 -8.75979e-19)
(5.93017 -14.6026 3.1408e-19)
(5.85314 -14.2972 -9.52015e-20)
(5.77592 -13.9976 3.10589e-19)
(5.69604 -13.6934 2.22026e-20)
(5.60995 -13.3827 -3.57111e-19)
(5.51766 -13.0669 2.98608e-20)
(5.42051 -12.7484 -4.8371e-19)
(5.3201 -12.4306 -1.88941e-20)
(5.21804 -12.1165 1.16e-19)
(5.11581 -11.8088 -2.01134e-19)
(5.0146 -11.5092 2.27366e-19)
(4.91533 -11.2193 -4.34959e-19)
(4.81866 -10.9397 -9.84917e-20)
(4.72502 -10.671 2.61339e-19)
(4.63466 -10.4131 -1.14346e-21)
(4.5477 -10.166 -1.66065e-19)
(4.46414 -9.92923 4.48899e-19)
(4.38393 -9.70249 -2.40141e-19)
(4.307 -9.48537 -3.2258e-19)
(4.23323 -9.27747 1.07575e-19)
(4.16255 -9.07841 -3.12532e-19)
(4.09487 -8.88784 -7.53208e-20)
(4.03004 -8.70536 -9.74767e-21)
(3.9679 -8.53042 -2.02887e-19)
(3.90888 -8.36189 2.4257e-19)
(3.85362 -8.19802 -8.64292e-20)
(3.79453 -8.03978 1.39199e-19)
(7.12562 -15.5106 -2.93077e-19)
(6.52489 -15.1897 -7.78331e-19)
(6.39341 -14.8133 3.75912e-19)
(6.32452 -14.478 -3.5525e-19)
(6.24007 -14.1771 -2.64153e-19)
(6.15468 -13.8803 -1.51814e-19)
(6.06592 -13.5778 -5.52601e-19)
(5.97044 -13.2683 3.73912e-19)
(5.86847 -12.9534 -6.66085e-19)
(5.76153 -12.636 -9.24417e-19)
(5.65142 -12.3194 1.19704e-19)
(5.53986 -12.0068 1.97896e-19)
(5.42843 -11.7006 -3.11439e-21)
(5.31837 -11.4029 -3.76435e-19)
(5.21064 -11.1149 8.74197e-20)
(5.10592 -10.8374 -3.39305e-19)
(5.00461 -10.5708 -2.44106e-19)
(4.90696 -10.3151 -1.46549e-19)
(4.81307 -10.0702 -2.97476e-20)
(4.72292 -9.83555 2.47833e-19)
(4.63643 -9.61092 3.54611e-19)
(4.5535 -9.39583 -1.06223e-19)
(4.47403 -9.1899 -1.01496e-19)
(4.39791 -8.99276 1.9759e-19)
(4.32504 -8.80406 1.10127e-19)
(4.25528 -8.62345 -8.6881e-20)
(4.18846 -8.45045 -9.65289e-20)
(4.1251 -8.28393 1.0848e-20)
(4.06583 -8.12215 8.65132e-20)
(4.00239 -7.9666 -1.23602e-19)
(7.5328 -15.3279 -5.74073e-20)
(6.92962 -15.0354 9.77377e-19)
(6.79197 -14.6709 7.51455e-19)
(6.7162 -14.3424 5.83731e-19)
(6.62443 -14.0461 -3.77012e-19)
(6.53088 -13.7522 -7.55111e-20)
(6.43322 -13.4515 6.95952e-20)
(6.3283 -13.1434 4.71507e-19)
(6.2166 -12.8298 1.76943e-19)
(6.09985 -12.5137 2.68639e-19)
(5.98 -12.1987 -5.8889e-19)
(5.85894 -11.8877 6.04213e-20)
(5.73831 -11.5835 2.37764e-19)
(5.61943 -11.2878 1.44096e-19)
(5.50328 -11.0021 3.00706e-19)
(5.39053 -10.7269 -2.04109e-19)
(5.2816 -10.4627 -1.89735e-19)
(5.17671 -10.2095 3.64576e-20)
(5.07593 -9.96687 4.02297e-19)
(4.97923 -9.73462 -6.48931e-19)
(4.88651 -9.51229 2.25671e-19)
(4.79765 -9.29943 -1.74031e-21)
(4.71251 -9.09565 4.24445e-19)
(4.63099 -8.90059 -1.83695e-19)
(4.55298 -8.71392 -9.63359e-21)
(4.47834 -8.53534 -1.15785e-19)
(4.40692 -8.36441 -1.02158e-19)
(4.33928 -8.20003 2.15619e-20)
(4.27607 -8.04049 -2.50594e-19)
(4.2084 -7.88785 3.64629e-19)
(7.93528 -15.1345 -1.07577e-18)
(7.33067 -14.8703 -5.93072e-19)
(7.18733 -14.5176 -1.5111e-18)
(7.1049 -14.1958 -6.80772e-19)
(7.0059 -13.9042 6.31147e-19)
(6.90421 -13.6133 -3.6956e-19)
(6.79761 -13.3147 -8.61856e-20)
(6.68322 -13.0082 -2.41242e-19)
(6.56175 -12.6961 4.0415e-19)
(6.43516 -12.3817 -3.72748e-19)
(6.30557 -12.0684 4.55665e-20)
(6.175 -11.7594 -1.8305e-20)
(6.0452 -11.4574 -5.79168e-19)
(5.91752 -11.1641 -2.38277e-20)
(5.79297 -10.8809 1.53021e-19)
(5.67224 -10.6083 -1.64304e-20)
(5.55574 -10.3468 -5.87298e-19)
(5.44365 -10.0961 5.7007e-19)
(5.33604 -9.85616 -5.57946e-19)
(5.23285 -9.62648 2.17041e-19)
(5.13395 -9.40665 3.04313e-20)
(5.0392 -9.19622 1.25615e-20)
(4.94845 -8.99477 -2.2707e-19)
(4.86158 -8.80196 2.27825e-19)
(4.77848 -8.61749 -9.71398e-20)
(4.699 -8.44108 1.05565e-19)
(4.62303 -8.27237 -5.62214e-19)
(4.55118 -8.11027 1.52041e-19)
(4.48413 -7.95311 1.63425e-19)
(4.41234 -7.80358 1.61747e-19)
(8.33277 -14.9305 2.08703e-18)
(7.72776 -14.6943 6.79302e-19)
(7.57918 -14.3534 3.92227e-19)
(7.49029 -14.0384 6.19576e-19)
(7.38415 -13.7515 -7.81336e-20)
(7.27435 -13.4637 4.57043e-19)
(7.1588 -13.1673 1.01025e-18)
(7.03489 -12.8627 -1.29608e-19)
(6.90362 -12.5524 5.47517e-20)
(6.76716 -12.2398 1.16129e-18)
(6.62782 -11.9286 1.07937e-18)
(6.48777 -11.622 1.57333e-19)
(6.34881 -11.3225 -5.77323e-20)
(6.21237 -11.0319 -5.6467e-21)
(6.07947 -10.7514 8.12275e-19)
(5.95081 -10.4817 3.14021e-20)
(5.82678 -10.223 8.5697e-19)
(5.70756 -9.97521 -1.09164e-19)
(5.59318 -9.73809 -1.83849e-19)
(5.48354 -9.51119 4.27626e-19)
(5.37852 -9.29407 -3.91197e-19)
(5.27793 -9.08625 -4.20479e-19)
(5.18161 -8.88733 -3.81566e-20)
(5.08944 -8.69695 -1.86054e-19)
(5.00129 -8.51483 2.80504e-19)
(4.91704 -8.34075 3.26097e-20)
(4.83656 -8.17439 -1.1602e-19)
(4.76058 -8.01471 6.22054e-20)
(4.68977 -7.86008 4.14518e-19)
(4.614 -7.71389 5.72197e-20)
(8.725 -14.7161 -3.58877e-19)
(8.12059 -14.5077 -6.7837e-19)
(7.96723 -14.1784 2.74111e-19)
(7.87208 -13.8701 -1.10115e-18)
(7.75889 -13.588 5.17159e-19)
(7.64098 -13.3034 -9.40818e-19)
(7.51645 -13.0095 -6.11588e-19)
(7.38301 -12.707 1.68294e-19)
(7.24191 -12.3987 1.62814e-19)
(7.09557 -12.0883 -7.99611e-19)
(6.94649 -11.7795 1.21483e-19)
(6.79696 -11.4755 1.31205e-19)
(6.64888 -11.1787 -4.28445e-19)
(6.50372 -10.891 -1.69358e-19)
(6.36253 -10.6136 -1.13424e-19)
(6.226 -10.347 -1.13722e-19)
(6.0945 -10.0914 -4.697e-19)
(5.9682 -9.84676 -2.93535e-19)
(5.84709 -9.6127 -6.26266e-20)
(5.73108 -9.3888 2.37794e-19)
(5.61997 -9.17458 3.20818e-19)
(5.5136 -8.96958 -3.47301e-19)
(5.41177 -8.77337 1.29096e-19)
(5.31433 -8.5856 -2.67695e-19)
(5.22119 -8.40601 2.4969e-19)
(5.1322 -8.23442 -3.28828e-19)
(5.04727 -8.07057 1.01873e-19)
(4.96721 -7.91344 -1.60833e-19)
(4.89273 -7.7615 -2.26308e-19)
(4.81311 -7.61887 -2.11874e-20)
(9.1117 -14.4912 -7.45651e-19)
(8.5089 -14.3105 -6.0293e-19)
(8.35119 -13.9927 -5.89638e-19)
(8.24997 -13.691 -4.28215e-19)
(8.1298 -13.4137 1.31104e-18)
(8.0038 -13.1326 1.80156e-19)
(7.87028 -12.8412 5.48941e-19)
(7.72727 -12.541 8.31248e-19)
(7.57633 -12.2351 3.96249e-19)
(7.4201 -11.9272 -5.23397e-19)
(7.26129 -11.6211 8.30322e-19)
(7.10231 -11.3199 2.40548e-19)
(6.94515 -11.0262 7.51586e-19)
(6.79132 -10.7418 8.55579e-20)
(6.6419 -10.4676 1.8843e-19)
(6.49755 -10.2044 6.02598e-20)
(6.35865 -9.95217 -2.99256e-21)
(6.22533 -9.71083 -2.21466e-20)
(6.09756 -9.48005 9.90848e-20)
(5.97521 -9.25935 3.35866e-19)
(5.85809 -9.04825 -3.72779e-19)
(5.74597 -8.84626 2.94822e-19)
(5.63867 -8.65296 9.87332e-21)
(5.53602 -8.46799 1.31986e-19)
(5.43792 -8.2911 2.40104e-19)
(5.34422 -8.12216 -4.17878e-20)
(5.25489 -7.96096 2.36811e-19)
(5.17082 -7.80654 3.39959e-19)
(5.09274 -7.65743 -3.68429e-19)
(5.0094 -7.51859 -1.99677e-19)
(9.49261 -14.2562 2.16864e-18)
(8.89242 -14.1028 -2.19009e-19)
(8.73078 -13.7964 4.5168e-19)
(8.62365 -13.5013 8.26718e-19)
(8.49657 -13.2288 -2.34054e-18)
(8.36249 -12.9512 2.46981e-19)
(8.21996 -12.6626 -8.72992e-19)
(8.06737 -12.365 8.53233e-19)
(7.90657 -12.0617 -6.75117e-19)
(7.74046 -11.7566 3.59951e-19)
(7.57194 -11.4534 -1.30385e-18)
(7.40355 -11.1554 4.87444e-20)
(7.23736 -10.8651 -1.40455e-18)
(7.07493 -10.5841 6.31921e-19)
(6.91733 -10.3136 3.25035e-19)
(6.76523 -10.0539 4.9173e-19)
(6.61899 -9.80527 -5.36773e-19)
(6.47872 -9.56749 -4.19801e-20)
(6.34435 -9.34019 4.1488e-20)
(6.21572 -9.1229 1.17074e-19)
(6.09262 -8.91511 -6.54016e-19)
(5.97481 -8.71633 -1.96071e-20)
(5.86207 -8.52613 -3.62478e-19)
(5.75424 -8.34414 -8.55653e-20)
(5.65121 -8.17015 -2.20934e-19)
(5.55285 -8.00403 -2.39889e-19)
(5.45916 -7.84566 -2.47901e-19)
(5.37111 -7.69408 4.08444e-19)
(5.2895 -7.54796 1.08679e-19)
(5.20258 -7.41313 -1.90346e-19)
(9.86751 -14.011 -1.44264e-18)
(9.2709 -13.8847 4.89536e-19)
(9.10572 -13.5895 -8.28906e-19)
(8.99284 -13.3009 1.25322e-19)
(8.8589 -13.0333 1.32234e-18)
(8.71674 -12.7593 -6.65244e-19)
(8.56519 -12.4738 -6.82407e-19)
(8.403 -12.179 -5.82014e-19)
(8.23234 -11.8786 2.94908e-20)
(8.05638 -11.5765 3.67565e-19)
(7.87818 -11.2766 -2.65189e-19)
(7.70043 -10.9821 1.34991e-20)
(7.52527 -10.6954 5.82694e-19)
(7.3543 -10.4182 3.64018e-19)
(7.18859 -10.1515 1.02946e-19)
(7.02882 -9.89562 -3.20636e-19)
(6.87531 -9.6508 1.20698e-19)
(6.72814 -9.41677 2.64705e-19)
(6.58723 -9.19316 2.9229e-19)
(6.45237 -8.97948 -3.20542e-19)
(6.32334 -8.7752 4.97845e-20)
(6.19987 -8.57983 2.7188e-19)
(6.08173 -8.39292 4.70546e-19)
(5.96874 -8.21412 1.2135e-19)
(5.86081 -8.04321 -4.79132e-19)
(5.75781 -7.88011 5.55519e-19)
(5.65977 -7.72474 -2.77342e-19)
(5.56779 -7.57618 -3.29021e-19)
(5.48271 -7.43321 -2.01795e-19)
(5.39239 -7.3026 -2.43062e-19)
(10.2362 -13.756 7.55736e-19)
(9.64412 -13.6564 -5.60141e-19)
(9.47575 -13.3722 2.1469e-19)
(9.35724 -13.09 1.10714e-18)
(9.21649 -12.8273 2.95752e-19)
(9.06625 -12.5571 -2.53469e-19)
(8.90567 -12.2748 6.06241e-19)
(8.73387 -11.9831 1.42251e-19)
(8.55336 -11.6858 5.55006e-19)
(8.36756 -11.3871 3.04008e-19)
(8.17973 -11.0908 1.10842e-20)
(7.99268 -10.8001 1.87815e-19)
(7.80862 -10.5173 -5.96986e-20)
(7.62919 -10.2441 -5.22258e-19)
(7.45547 -9.98139 -7.61553e-20)
(7.2881 -9.72961 -1.53809e-19)
(7.12739 -9.48881 3.7487e-19)
(6.97339 -9.25875 3.8e-19)
(6.82599 -9.03902 -4.32599e-19)
(6.68495 -8.82913 4.40371e-19)
(6.55002 -8.62855 9.32344e-19)
(6.42091 -8.43676 -6.0009e-19)
(6.29738 -8.25334 5.98913e-19)
(6.17924 -8.07792 -4.20331e-19)
(6.0664 -7.9103 -5.85589e-20)
(5.95875 -7.75042 4.447e-19)
(5.85638 -7.59827 -9.0265e-20)
(5.76048 -7.45291 3.31886e-19)
(5.672 -7.3133 3.2802e-19)
(5.57844 -7.18725 -5.81912e-19)
(10.5985 -13.4911 -7.29343e-19)
(10.0119 -13.418 3.14008e-19)
(9.8406 -13.1445 1.30713e-19)
(9.71655 -12.8687 -1.28415e-18)
(9.56902 -12.6109 -6.5804e-19)
(9.41072 -12.3447 4.86513e-19)
(9.2411 -12.0657 -1.33953e-18)
(9.0597 -11.7774 1.59788e-18)
(8.86935 -11.4836 -8.92783e-19)
(8.67375 -11.1885 1.06404e-19)
(8.47635 -10.8961 -1.68434e-19)
(8.28006 -10.6094 -4.95463e-19)
(8.08719 -10.3308 1.0121e-18)
(7.89938 -10.0619 3.78688e-19)
(7.71773 -9.80346 4.85026e-19)
(7.54285 -9.55596 9.0641e-21)
(7.37503 -9.31939 2.13047e-19)
(7.21427 -9.09347 -4.65306e-19)
(7.06043 -8.87781 9.63984e-20)
(6.91326 -8.67188 3.1554e-19)
(6.77246 -8.47515 -1.3422e-19)
(6.63772 -8.28713 2.16768e-19)
(6.50878 -8.10736 -4.27219e-19)
(6.38546 -7.93551 6.1098e-19)
(6.26766 -7.77137 1.40822e-19)
(6.1553 -7.61494 -3.85184e-19)
(6.04853 -7.46621 -3.3154e-19)
(5.94867 -7.32428 1.65876e-22)
(5.8567 -7.1883 4.5197e-19)
(5.7599 -7.06731 -9.74262e-20)
(10.9543 -13.2166 -2.02389e-19)
(10.3739 -13.1695 -1.30337e-18)
(10.2 -12.9064 1.54281e-18)
(10.0705 -12.6369 1.03123e-18)
(9.91621 -12.3842 1.01664e-18)
(9.74983 -12.1221 2.76225e-19)
(9.57117 -11.8468 4.15095e-19)
(9.38017 -11.562 2.06061e-19)
(9.18002 -11.2719 -8.25813e-19)
(8.97467 -10.9808 1.49304e-18)
(8.76776 -10.6926 -1.18739e-18)
(8.56233 -10.4102 -7.96774e-20)
(8.36074 -10.1361 1.68686e-19)
(8.16466 -9.87166 -7.47396e-19)
(7.97518 -9.61777 1.17346e-18)
(7.79289 -9.37475 2.20273e-19)
(7.61803 -9.14259 -4.93274e-19)
(7.45059 -8.921 1.87977e-19)
(7.29039 -8.70955 -3.63646e-19)
(7.13712 -8.50773 -3.20353e-19)
(6.99047 -8.31502 -3.39385e-19)
(6.8501 -8.1309 7.71833e-20)
(6.71574 -7.95495 4.20049e-20)
(6.58718 -7.78683 -8.20081e-19)
(6.46434 -7.62636 -3.10045e-19)
(6.34714 -7.47355 1.99299e-19)
(6.23582 -7.32845 2.45991e-19)
(6.13179 -7.19018 -3.39478e-19)
(6.03603 -7.05815 -1.29258e-19)
(5.93575 -6.94239 9.44859e-21)
(11.3037 -12.9326 -1.74855e-19)
(10.7301 -12.9112 8.44399e-19)
(10.5536 -12.6583 -2.39686e-19)
(10.4187 -12.3949 -2.91056e-19)
(10.2577 -12.1473 -1.56631e-18)
(10.0833 -11.8894 -3.41053e-19)
(9.89556 -11.618 6.33865e-19)
(9.69499 -11.3371 -4.18889e-19)
(9.48507 -11.0511 -4.54327e-20)
(9.27004 -10.7642 -8.38517e-20)
(9.05371 -10.4804 4.49855e-19)
(8.83924 -10.2027 -6.99738e-19)
(8.62905 -9.93326 -4.63424e-19)
(8.42482 -9.67358 5.4021e-19)
(8.22761 -9.42442 -3.05418e-19)
(8.03802 -9.18608 1.44068e-19)
(7.85623 -8.9585 3.03729e-20)
(7.6822 -8.74138 -1.2411e-19)
(7.51569 -8.53429 4.51502e-19)
(7.35637 -8.33671 -4.10344e-19)
(7.20389 -8.14813 -3.28795e-19)
(7.05789 -7.96804 2.87477e-19)
(6.91807 -7.79604 -3.25327e-20)
(6.78423 -7.63181 -2.10808e-19)
(6.65626 -7.47518 1.8623e-19)
(6.53413 -7.32623 -5.7459e-19)
(6.41812 -7.18504 3.50257e-19)
(6.30973 -7.05074 -5.78251e-21)
(6.20996 -6.9228 -3.62109e-19)
(6.10626 -6.81194 4.86903e-19)
(11.6473 -12.6398 6.90185e-19)
(11.0806 -12.6431 -1.6376e-18)
(10.9012 -12.3999 -1.36334e-19)
(10.761 -12.1427 7.42689e-19)
(10.5932 -11.9002 -1.85664e-19)
(10.4107 -11.6468 -5.2913e-19)
(10.2139 -11.3795 2.38055e-19)
(10.0038 -11.1028 2.75385e-19)
(9.78421 -10.8211 2.12557e-20)
(9.55958 -10.5388 3.32153e-19)
(9.33394 -10.2597 1.05673e-18)
(9.11056 -9.9869 -3.68163e-19)
(8.89189 -9.72245 9.21152e-20)
(8.67963 -9.46775 -2.44776e-19)
(8.47485 -9.22353 9.24805e-19)
(8.27808 -8.99005 -1.67087e-19)
(8.08948 -8.7672 2.4449e-19)
(7.90894 -8.55469 -4.12689e-19)
(7.7362 -8.35206 2.22952e-19)
(7.57088 -8.1588 3.36377e-19)
(7.41258 -7.97442 5.70736e-20)
(7.26091 -7.79843 2.23335e-19)
(7.11554 -7.63046 -1.83293e-19)
(6.97627 -7.47022 5.08393e-19)
(6.84302 -7.31762 -2.06743e-19)
(6.71579 -7.17286 7.53297e-19)
(6.59501 -7.03606 -2.17414e-19)
(6.48236 -6.90621 1.49155e-19)
(6.37888 -6.78283 -2.81669e-19)
(6.2725 -6.67808 4.69731e-19)
(11.9862 -12.3386 -1.51337e-18)
(11.4257 -12.3651 5.54164e-20)
(11.2427 -12.1311 -8.23004e-19)
(11.0968 -11.8801 1.45508e-19)
(10.9224 -11.6431 4.24761e-20)
(10.7318 -11.3943 -6.92717e-19)
(10.526 -11.1315 -1.29462e-18)
(10.3064 -10.8592 6.36871e-19)
(10.0772 -10.5822 -8.95935e-19)
(9.84306 -10.3048 -4.66371e-19)
(9.60823 -10.0308 -2.63129e-19)
(9.37606 -9.76309 -2.03332e-19)
(9.14907 -9.50386 2.74544e-21)
(8.92895 -9.25436 -7.30621e-19)
(8.71673 -9.01527 4.692e-19)
(8.51293 -8.7868 -7.74198e-19)
(8.31766 -8.56883 -1.96326e-19)
(8.13075 -8.36102 2.20204e-19)
(7.95188 -8.16292 -8.88492e-20)
(7.78063 -7.97402 2.57661e-19)
(7.61652 -7.79382 1.97583e-19)
(7.45911 -7.62189 -4.93693e-19)
(7.30802 -7.45785 4.92607e-19)
(7.16297 -7.30152 -5.32178e-20)
(7.02384 -7.15292 -1.30827e-19)
(6.89071 -7.01242 -5.17655e-19)
(6.76429 -6.8802 -2.73757e-19)
(6.64665 -6.75527 5.04906e-19)
(6.53866 -6.63855 -1.67256e-19)
(6.42886 -6.54623 -1.52482e-19)
(12.3198 -12.0271 6.59888e-19)
(11.7648 -12.0756 6.00677e-20)
(11.5776 -11.8516 -1.57453e-19)
(11.4259 -11.6075 -3.41947e-20)
(11.2449 -11.3762 -2.76405e-19)
(11.0464 -11.1325 9.37877e-19)
(10.8317 -10.8744 -4.34666e-19)
(10.6026 -10.6069 2.84039e-19)
(10.3639 -10.3348 1.15636e-19)
(10.1204 -10.0625 4.08601e-19)
(9.87647 -9.79378 -1.54783e-19)
(9.63566 -9.53154 8.74378e-19)
(9.4005 -9.27776 -7.39474e-20)
(9.17267 -9.03367 5.54436e-19)
(8.95319 -8.79989 -9.26736e-19)
(8.74253 -8.57659 -6.80748e-20)
(8.54074 -8.36361 5.88491e-19)
(8.34762 -8.16059 -3.65125e-19)
(8.16279 -7.96706 1.4997e-19)
(7.98574 -7.7825 2.54788e-19)
(7.81595 -7.60642 -3.69703e-19)
(7.65288 -7.43835 4.05102e-19)
(7.49603 -7.27795 -3.77972e-19)
(7.34495 -7.12505 8.1451e-20)
(7.19928 -6.97976 3.02625e-19)
(7.05884 -6.84252 2.08964e-19)
(6.92426 -6.71354 1.94127e-19)
(6.79725 -6.59273 1.44038e-19)
(6.67709 -6.48526 -3.87949e-19)
(6.55548 -6.41008 -1.48835e-19)
(17.4511 0.207385 8.24359e-21)
(17.44 -0.252453 8.07206e-20)
(17.4173 -0.71007 2.80598e-19)
(17.3841 -1.16584 1.53299e-19)
(17.3398 -1.6199 -3.26275e-19)
(17.284 -2.07214 9.86132e-20)
(17.2164 -2.52236 -1.03105e-19)
(17.1372 -2.97032 -2.61402e-19)
(17.0463 -3.41578 1.38297e-19)
(16.9438 -3.85846 -1.60502e-19)
(16.8297 -4.29809 -1.6056e-19)
(16.7043 -4.73436 -3.43942e-19)
(16.5675 -5.16699 -9.94015e-19)
(16.4194 -5.59569 9.08452e-20)
(16.2602 -6.02018 -4.21782e-20)
(16.0901 -6.44015 -3.18265e-19)
(15.9091 -6.85534 6.75006e-19)
(15.7173 -7.26546 3.70326e-19)
(15.515 -7.67024 7.10359e-19)
(15.3023 -8.06941 3.49076e-19)
(15.0792 -8.4627 -7.88838e-19)
(14.8462 -8.84986 3.10722e-20)
(14.6031 -9.23064 -1.51096e-18)
(14.3504 -9.6048 2.29864e-18)
(14.0881 -9.9721 -7.5624e-19)
(13.8165 -10.3324 -9.91297e-19)
(13.5358 -10.6854 -1.48911e-19)
(13.2465 -11.0311 -1.90743e-20)
(12.9479 -11.3699 -7.73818e-19)
(12.643 -11.7007 1.35984e-18)
(17.3682 -0.228931 3.04718e-20)
(17.3418 -0.684993 4.45977e-20)
(17.3028 -1.13856 1.06805e-20)
(17.252 -1.58982 -3.92555e-19)
(17.1895 -2.03887 -3.52663e-19)
(17.1152 -2.48554 3.11604e-19)
(17.0292 -2.92957 3.8594e-19)
(16.9314 -3.37068 2.02882e-19)
(16.8221 -3.80859 -2.16634e-21)