/*--------------------------------*- C++ -*----------------------------------*\
  =========                 |
  \\      /  F ield         | OpenFOAM: The Open Source CFD Toolbox
   \\    /   O peration     | Website:  https://openfoam.org
    \\  /    A nd           | Version:  6.0
     \\/     M anipulation  |
\*---------------------------------------------------------------------------*/
FoamFile
{
    version     2.0;
    format      ascii;
    class       volScalarField;
    location    "23";
    object      p;
}
// * * * * * * * * * * * * * * * * * * * * * * * * * * * * * * * * * * * * * //

dimensions      [0 2 -2 0 0 0 0];

internalField   nonuniform List<scalar> 
19200
(
-0.386631
-0.381595
-0.377834
-0.374704
-0.371829
-0.369188
-0.366737
-0.364423
-0.362208
-0.360065
-0.357975
-0.355923
-0.353899
-0.351898
-0.349915
-0.347948
-0.345998
-0.344065
-0.342149
-0.340253
-0.338378
-0.336525
-0.334696
-0.332892
-0.331115
-0.32937
-0.327654
-0.325913
-0.324129
-0.322895
-0.390215
-0.385059
-0.381273
-0.378118
-0.375202
-0.372505
-0.369985
-0.36759
-0.365286
-0.363047
-0.360854
-0.358696
-0.356562
-0.35445
-0.352355
-0.350277
-0.348216
-0.346174
-0.344152
-0.342152
-0.340176
-0.338228
-0.336307
-0.334416
-0.332557
-0.330736
-0.32895
-0.327136
-0.325268
-0.32404
-0.394373
-0.389008
-0.385128
-0.381911
-0.378928
-0.376154
-0.373546
-0.371055
-0.368647
-0.366296
-0.363987
-0.361709
-0.359453
-0.357217
-0.354998
-0.352796
-0.350613
-0.348451
-0.346312
-0.344198
-0.342114
-0.34006
-0.33804
-0.336054
-0.334106
-0.332203
-0.330343
-0.328449
-0.326488
-0.325279
-0.398893
-0.393375
-0.389399
-0.386099
-0.383025
-0.380154
-0.37744
-0.374835
-0.372305
-0.369828
-0.367388
-0.364975
-0.362583
-0.360209
-0.357853
-0.355515
-0.353198
-0.350905
-0.348637
-0.3464
-0.344195
-0.342027
-0.339898
-0.33781
-0.335766
-0.333775
-0.331834
-0.329854
-0.327792
-0.326615
-0.403824
-0.398167
-0.394083
-0.390681
-0.387499
-0.384511
-0.381673
-0.378936
-0.376269
-0.373649
-0.371063
-0.368501
-0.365958
-0.363434
-0.360927
-0.358441
-0.355977
-0.35354
-0.351133
-0.34876
-0.346425
-0.344133
-0.341885
-0.339686
-0.337538
-0.335452
-0.333426
-0.331353
-0.329178
-0.328047
-0.409201
-0.403395
-0.399189
-0.395667
-0.392357
-0.389234
-0.386254
-0.383369
-0.380548
-0.377769
-0.375021
-0.372295
-0.369588
-0.366898
-0.364228
-0.361579
-0.358956
-0.356363
-0.353804
-0.351284
-0.348808
-0.34638
-0.344005
-0.341685
-0.339424
-0.337236
-0.335119
-0.332946
-0.330648
-0.329578
-0.415041
-0.409071
-0.404724
-0.401065
-0.39761
-0.394333
-0.391193
-0.388142
-0.38515
-0.382196
-0.37927
-0.376365
-0.373478
-0.37061
-0.367761
-0.364937
-0.362141
-0.359379
-0.356655
-0.353976
-0.351347
-0.348773
-0.346259
-0.343808
-0.341426
-0.339128
-0.336912
-0.334631
-0.3322
-0.331204
-0.42136
-0.415205
-0.410701
-0.406886
-0.403266
-0.399817
-0.396499
-0.393265
-0.390084
-0.386939
-0.38382
-0.38072
-0.377638
-0.374575
-0.371535
-0.368521
-0.365538
-0.362594
-0.359693
-0.356842
-0.354047
-0.351315
-0.348651
-0.346058
-0.343544
-0.341127
-0.338805
-0.336408
-0.333833
-0.332925
-0.428171
-0.421809
-0.417128
-0.413139
-0.409335
-0.405696
-0.402181
-0.398745
-0.395358
-0.392005
-0.388676
-0.385365
-0.382074
-0.378802
-0.375555
-0.372337
-0.369154
-0.366013
-0.362921
-0.359885
-0.356912
-0.354008
-0.351182
-0.348436
-0.34578
-0.343234
-0.340798
-0.338275
-0.335544
-0.334739
-0.435488
-0.428895
-0.424016
-0.419833
-0.415826
-0.411977
-0.408247
-0.40459
-0.400981
-0.397402
-0.393847
-0.39031
-0.386793
-0.383298
-0.379829
-0.376392
-0.372995
-0.369644
-0.366346
-0.363111
-0.359945
-0.356858
-0.353855
-0.350944
-0.348133
-0.345449
-0.342889
-0.340229
-0.337329
-0.336642
-0.443321
-0.436473
-0.431376
-0.426979
-0.422749
-0.418669
-0.414705
-0.41081
-0.406959
-0.403139
-0.39934
-0.395562
-0.391803
-0.388069
-0.384364
-0.380694
-0.377067
-0.373491
-0.369974
-0.366525
-0.363153
-0.359867
-0.356675
-0.353585
-0.350607
-0.347771
-0.345077
-0.342269
-0.339186
-0.338631
-0.451683
-0.444554
-0.439217
-0.434585
-0.430111
-0.425782
-0.421563
-0.417411
-0.413302
-0.409222
-0.405164
-0.401127
-0.397112
-0.393124
-0.389168
-0.38525
-0.38138
-0.377564
-0.373813
-0.370135
-0.366541
-0.363041
-0.359645
-0.356361
-0.353202
-0.350202
-0.347361
-0.344393
-0.341112
-0.340702
-0.460585
-0.453148
-0.447548
-0.442661
-0.437922
-0.433322
-0.428829
-0.424402
-0.420016
-0.415659
-0.411325
-0.407015
-0.402729
-0.398471
-0.394249
-0.39007
-0.38594
-0.38187
-0.37787
-0.373948
-0.370117
-0.366388
-0.362772
-0.359278
-0.355922
-0.352743
-0.349742
-0.346598
-0.343102
-0.342851
-0.470038
-0.462266
-0.45638
-0.451215
-0.446189
-0.441297
-0.436511
-0.431789
-0.427108
-0.422458
-0.417833
-0.413233
-0.40866
-0.40412
-0.399617
-0.395161
-0.390759
-0.38642
-0.382155
-0.377974
-0.37389
-0.369915
-0.366061
-0.36234
-0.35877
-0.355395
-0.35222
-0.348883
-0.345152
-0.345073
-0.480052
-0.471916
-0.465719
-0.460254
-0.454919
-0.449716
-0.444616
-0.43958
-0.434587
-0.429626
-0.424694
-0.419789
-0.414916
-0.410078
-0.405282
-0.400535
-0.395846
-0.391224
-0.386679
-0.382224
-0.377869
-0.373631
-0.369522
-0.365555
-0.361751
-0.358162
-0.354793
-0.351245
-0.347258
-0.34736
-0.490638
-0.482107
-0.475575
-0.469786
-0.46412
-0.458583
-0.45315
-0.447782
-0.442459
-0.437172
-0.431916
-0.426693
-0.421505
-0.416357
-0.411254
-0.406203
-0.401214
-0.396295
-0.391456
-0.386709
-0.382068
-0.377548
-0.373163
-0.368931
-0.364872
-0.361047
-0.357464
-0.353681
-0.349414
-0.349705
-0.501803
-0.492847
-0.485953
-0.479818
-0.473798
-0.467906
-0.462119
-0.456401
-0.450731
-0.445102
-0.439509
-0.433953
-0.428438
-0.422966
-0.417544
-0.412178
-0.406875
-0.401645
-0.396498
-0.391445
-0.386499
-0.381678
-0.376999
-0.372477
-0.36814
-0.364054
-0.360232
-0.356188
-0.351612
-0.352095
-0.513557
-0.504142
-0.49686
-0.490354
-0.483958
-0.477689
-0.47153
-0.465443
-0.45941
-0.453423
-0.447479
-0.441578
-0.435723
-0.429917
-0.424165
-0.418472
-0.412844
-0.407291
-0.401822
-0.396447
-0.39118
-0.386039
-0.381041
-0.376206
-0.371563
-0.367188
-0.363096
-0.35876
-0.353841
-0.354514
-0.525904
-0.515997
-0.5083
-0.501399
-0.494603
-0.487938
-0.481386
-0.474913
-0.468501
-0.462143
-0.455835
-0.449577
-0.443371
-0.437221
-0.431128
-0.425099
-0.419137
-0.413249
-0.407445
-0.401733
-0.396128
-0.390646
-0.385306
-0.38013
-0.37515
-0.370452
-0.366056
-0.361388
-0.356083
-0.356937
-0.538849
-0.528415
-0.520276
-0.512955
-0.505737
-0.498654
-0.491691
-0.484816
-0.47801
-0.471266
-0.464583
-0.457958
-0.451392
-0.444888
-0.438448
-0.432073
-0.425768
-0.419538
-0.413387
-0.407326
-0.401365
-0.395522
-0.389815
-0.384267
-0.378915
-0.373852
-0.369108
-0.364059
-0.358315
-0.359329
-0.552393
-0.541398
-0.532788
-0.525023
-0.517361
-0.509839
-0.502448
-0.495154
-0.48794
-0.4808
-0.473729
-0.466728
-0.459796
-0.452932
-0.446137
-0.439412
-0.432757
-0.426176
-0.41967
-0.413247
-0.406916
-0.400691
-0.39459
-0.388637
-0.382871
-0.377396
-0.372246
-0.366754
-0.360504
-0.36164
-0.566537
-0.554944
-0.545835
-0.537602
-0.529473
-0.521493
-0.513656
-0.505929
-0.498294
-0.490746
-0.483281
-0.475896
-0.46859
-0.461361
-0.454208
-0.447129
-0.440122
-0.433186
-0.42632
-0.419526
-0.412811
-0.406185
-0.399663
-0.393268
-0.387039
-0.381092
-0.375468
-0.369451
-0.362602
-0.363797
-0.581278
-0.56905
-0.559413
-0.550688
-0.542071
-0.533615
-0.525316
-0.517141
-0.509075
-0.501109
-0.493241
-0.485467
-0.477783
-0.470188
-0.462676
-0.455242
-0.447883
-0.440591
-0.433363
-0.426195
-0.419087
-0.412043
-0.405075
-0.398198
-0.391453
-0.38496
-0.378771
-0.372119
-0.364544
-0.365698
-0.59661
-0.583709
-0.573515
-0.564275
-0.555149
-0.546198
-0.537423
-0.528789
-0.52028
-0.51189
-0.503613
-0.495445
-0.487383
-0.47942
-0.471551
-0.463767
-0.45606
-0.448419
-0.440833
-0.433293
-0.425789
-0.418319
-0.410882
-0.403486
-0.396164
-0.38904
-0.382168
-0.374732
-0.366246
-0.367196
-0.612527
-0.598912
-0.588132
-0.578352
-0.568698
-0.559237
-0.549971
-0.540867
-0.531908
-0.523086
-0.514397
-0.505834
-0.497393
-0.489067
-0.480846
-0.472719
-0.464675
-0.456696
-0.448766
-0.440866
-0.432977
-0.425081
-0.417166
-0.40922
-0.401261
-0.393405
-0.385704
-0.377274
-0.367595
-0.368067
-0.629022
-0.614645
-0.603247
-0.592906
-0.582705
-0.57272
-0.562953
-0.55337
-0.543953
-0.534696
-0.525591
-0.516634
-0.507817
-0.499132
-0.490569
-0.482113
-0.473747
-0.465452
-0.457202
-0.44897
-0.440722
-0.432426
-0.424044
-0.415539
-0.406896
-0.398206
-0.389493
-0.379778
-0.368469
-0.368011
-0.646089
-0.630887
-0.61884
-0.607919
-0.597157
-0.586635
-0.576357
-0.566287
-0.556408
-0.546711
-0.537191
-0.52784
-0.518652
-0.509618
-0.500725
-0.491957
-0.483295
-0.474715
-0.466184
-0.457666
-0.449115
-0.440477
-0.431686
-0.422665
-0.413348
-0.40377
-0.393894
-0.382581
-0.369036
-0.366878
-0.663757
-0.647621
-0.634883
-0.623365
-0.61203
-0.600963
-0.590167
-0.579606
-0.56926
-0.559123
-0.549187
-0.539446
-0.529894
-0.52052
-0.511313
-0.502255
-0.493328
-0.484503
-0.475747
-0.467015
-0.458249
-0.449375
-0.440299
-0.43089
-0.421009
-0.410601
-0.399527
-0.386321
-0.369478
-0.363795
-0.682076
-0.664813
-0.651329
-0.639208
-0.627299
-0.615683
-0.604367
-0.593311
-0.582497
-0.571918
-0.561568
-0.551441
-0.541531
-0.531829
-0.522324
-0.513001
-0.503843
-0.494824
-0.485911
-0.477058
-0.468205
-0.459264
-0.450108
-0.440548
-0.430326
-0.419211
-0.406766
-0.390605
-0.367161
-0.352834
-0.70058
-0.682271
-0.668112
-0.655413
-0.64294
-0.630778
-0.618938
-0.607385
-0.5961
-0.585078
-0.574315
-0.563804
-0.553542
-0.543521
-0.533733
-0.524169
-0.514814
-0.505652
-0.49666
-0.487806
-0.479044
-0.470307
-0.461486
-0.452392
-0.442728
-0.432102
-0.419588
-0.401469
-0.371389
-0.345473
-1.175
-1.17211
-1.1673
-1.16104
-1.15334
-1.14425
-1.13386
-1.12224
-1.10946
-1.09563
-1.08081
-1.06509
-1.04857
-1.03132
-1.01344
-0.994991
-0.976067
-0.956741
-0.937088
-0.917181
-0.897089
-0.876876
-0.856606
-0.836335
-0.816118
-0.796003
-0.776032
-0.756216
-0.73654
-0.717435
-1.14051
-1.13765
-1.13304
-1.12693
-1.11941
-1.11053
-1.10038
-1.08905
-1.07662
-1.06317
-1.04879
-1.03356
-1.01756
-1.00087
-0.98358
-0.965764
-0.9475
-0.928863
-0.909925
-0.890755
-0.87142
-0.851984
-0.832507
-0.813047
-0.793657
-0.774391
-0.755299
-0.736429
-0.717831
-0.699689
-1.1121
-1.10927
-1.10481
-1.09888
-1.09155
-1.0829
-1.07302
-1.06199
-1.04989
-1.03681
-1.02282
-1.00802
-0.992472
-0.976271
-0.959491
-0.94221
-0.924503
-0.906442
-0.8881
-0.869542
-0.850836
-0.832041
-0.813219
-0.794424
-0.775712
-0.757133
-0.738741
-0.720585
-0.702727
-0.68524
-1.08535
-1.08264
-1.07837
-1.07266
-1.06558
-1.05722
-1.04765
-1.03695
-1.02522
-1.01252
-0.998944
-0.984572
-0.969482
-0.953756
-0.937469
-0.9207
-0.903521
-0.886004
-0.868219
-0.850233
-0.832108
-0.813906
-0.795685
-0.777501
-0.759406
-0.74145
-0.723684
-0.706153
-0.688912
-0.672007
-1.05823
-1.05574
-1.05173
-1.04631
-1.03956
-1.03154
-1.02233
-1.01203
-1.0007
-0.988432
-0.975303
-0.961394
-0.946784
-0.931553
-0.915777
-0.89953
-0.882887
-0.865917
-0.84869
-0.831271
-0.813722
-0.796103
-0.778472
-0.760884
-0.743389
-0.726037
-0.708875
-0.691947
-0.675297
-0.658964
-1.03102
-1.02882
-1.02515
-1.0201
-1.01373
-1.00611
-0.997331
-0.987463
-0.976588
-0.964786
-0.952136
-0.938718
-0.924611
-0.909892
-0.894637
-0.878921
-0.862816
-0.846392
-0.829716
-0.812854
-0.795868
-0.778817
-0.761757
-0.744742
-0.727823
-0.711048
-0.694462
-0.678106
-0.662022
-0.646243
-1.00381
-1.00199
-0.998724
-0.994095
-0.988168
-0.981011
-0.972702
-0.963318
-0.952937
-0.941637
-0.929497
-0.916597
-0.903013
-0.888822
-0.8741
-0.858921
-0.843356
-0.827474
-0.811344
-0.795029
-0.77859
-0.762088
-0.745578
-0.729113
-0.712744
-0.696516
-0.680476
-0.664663
-0.649115
-0.633866
-0.976617
-0.975241
-0.972437
-0.968288
-0.962854
-0.956203
-0.94841
-0.93955
-0.9297
-0.918936
-0.907336
-0.894978
-0.881938
-0.868292
-0.854115
-0.83948
-0.824458
-0.809119
-0.793529
-0.777751
-0.761849
-0.745879
-0.729899
-0.713962
-0.698116
-0.68241
-0.666887
-0.651587
-0.636547
-0.621802
-0.949501
-0.948613
-0.946316
-0.942689
-0.93779
-0.931686
-0.924447
-0.916146
-0.906859
-0.896661
-0.885627
-0.873834
-0.861358
-0.848273
-0.834654
-0.820572
-0.806098
-0.791301
-0.776248
-0.761001
-0.745623
-0.730172
-0.714704
-0.699272
-0.683927
-0.668716
-0.653682
-0.638867
-0.624306
-0.610037
-0.92253
-0.922161
-0.920405
-0.917334
-0.913002
-0.907475
-0.90082
-0.893108
-0.884412
-0.874804
-0.86436
-0.853153
-0.841259
-0.82875
-0.8157
-0.80218
-0.788259
-0.774007
-0.759488
-0.744767
-0.729903
-0.714958
-0.699985
-0.68504
-0.670172
-0.65543
-0.640858
-0.626498
-0.612388
-0.598566
-0.895776
-0.895949
-0.894755
-0.892261
-0.888519
-0.883591
-0.877543
-0.870442
-0.862358
-0.853362
-0.843526
-0.832924
-0.821627
-0.809708
-0.797239
-0.784289
-0.770928
-0.757222
-0.743238
-0.729037
-0.714682
-0.70023
-0.685738
-0.67126
-0.656848
-0.64255
-0.628413
-0.61448
-0.60079
-0.587384
-0.869313
-0.870038
-0.869417
-0.867512
-0.864374
-0.86006
-0.854633
-0.848158
-0.840702
-0.832333
-0.823121
-0.813137
-0.802451
-0.791134
-0.779256
-0.766885
-0.754089
-0.740935
-0.727485
-0.713804
-0.69995
-0.685983
-0.671959
-0.657932
-0.643954
-0.630077
-0.616347
-0.602811
-0.58951
-0.576488
-0.843214
-0.844489
-0.844442
-0.84313
-0.8406
-0.836907
-0.832109
-0.826269
-0.81945
-0.811718
-0.803141
-0.793786
-0.783721
-0.773016
-0.761738
-0.749955
-0.737731
-0.725132
-0.71222
-0.699057
-0.685702
-0.672212
-0.658645
-0.645053
-0.631491
-0.61801
-0.60466
-0.591491
-0.578546
-0.565874
-0.817543
-0.81936
-0.81988
-0.819156
-0.817231
-0.814157
-0.809989
-0.804786
-0.798609
-0.791519
-0.783583
-0.774864
-0.765429
-0.755344
-0.744675
-0.733486
-0.721841
-0.709802
-0.697432
-0.684788
-0.67193
-0.658913
-0.645793
-0.632624
-0.61946
-0.606352
-0.593355
-0.58052
-0.567897
-0.555539
-0.792361
-0.794703
-0.795777
-0.795628
-0.794299
-0.791837
-0.788293
-0.783724
-0.778186
-0.77174
-0.764446
-0.756367
-0.747567
-0.738107
-0.728053
-0.717465
-0.706405
-0.694934
-0.683109
-0.670989
-0.658629
-0.646083
-0.633405
-0.620647
-0.607864
-0.595109
-0.582436
-0.569902
-0.557562
-0.545477
-0.767719
-0.770565
-0.772172
-0.772581
-0.771832
-0.769968
-0.767038
-0.763094
-0.75819
-0.752383
-0.74573
-0.738291
-0.730126
-0.721296
-0.71186
-0.701879
-0.691412
-0.680514
-0.669242
-0.657651
-0.645792
-0.633718
-0.621479
-0.609126
-0.59671
-0.584286
-0.571909
-0.559641
-0.547543
-0.535686
-0.743663
-0.746986
-0.749101
-0.750046
-0.749857
-0.748573
-0.746241
-0.742909
-0.738628
-0.733451
-0.727432
-0.720629
-0.713099
-0.704899
-0.696086
-0.686717
-0.676847
-0.666531
-0.65582
-0.644765
-0.633415
-0.621817
-0.610018
-0.598065
-0.586007
-0.573895
-0.561786
-0.549744
-0.537841
-0.526158
-0.720229
-0.723999
-0.726595
-0.728049
-0.728395
-0.727669
-0.725915
-0.723177
-0.719504
-0.714945
-0.709552
-0.703378
-0.696478
-0.688906
-0.680717
-0.671963
-0.662698
-0.65297
-0.642829
-0.632321
-0.621489
-0.610377
-0.599024
-0.587473
-0.575766
-0.563951
-0.552082
-0.540226
-0.528463
-0.51689
-0.697445
-0.701631
-0.704677
-0.706611
-0.707464
-0.707272
-0.706072
-0.703908
-0.700824
-0.696867
-0.692086
-0.686532
-0.680255
-0.673308
-0.665741
-0.657605
-0.648948
-0.639818
-0.630257
-0.620308
-0.610009
-0.599396
-0.588501
-0.577359
-0.566004
-0.554474
-0.54282
-0.531107
-0.51942
-0.507877
-0.675334
-0.679903
-0.683365
-0.685749
-0.68708
-0.687393
-0.686722
-0.685108
-0.682591
-0.679218
-0.675033
-0.670085
-0.664422
-0.658092
-0.651145
-0.643627
-0.635584
-0.627058
-0.618089
-0.608715
-0.598965
-0.58887
-0.578452
-0.567735
-0.55674
-0.545493
-0.534032
-0.522415
-0.510731
-0.499117
-0.65391
-0.658828
-0.662675
-0.665475
-0.667254
-0.668041
-0.667871
-0.66678
-0.664808
-0.661996
-0.658389
-0.654031
-0.648968
-0.643247
-0.636914
-0.630013
-0.622586
-0.614673
-0.606309
-0.597525
-0.588347
-0.578794
-0.56888
-0.558613
-0.547998
-0.537042
-0.525761
-0.514194
-0.50243
-0.490613
-0.633182
-0.638416
-0.642614
-0.645798
-0.647992
-0.649223
-0.649524
-0.648928
-0.647474
-0.6452
-0.642149
-0.638362
-0.633885
-0.628761
-0.623034
-0.616746
-0.609937
-0.602643
-0.594895
-0.586721
-0.578138
-0.569159
-0.559783
-0.550005
-0.539805
-0.529164
-0.518063
-0.506507
-0.494565
-0.482375
-0.613154
-0.618671
-0.623187
-0.626722
-0.629299
-0.630942
-0.631683
-0.631554
-0.630589
-0.628827
-0.626308
-0.623072
-0.619163
-0.614621
-0.60949
-0.60381
-0.597617
-0.590947
-0.583828
-0.576282
-0.568322
-0.559951
-0.551159
-0.541919
-0.532189
-0.521909
-0.511012
-0.499442
-0.487221
-0.474431
-0.593825
-0.599593
-0.604395
-0.608249
-0.611176
-0.6132
-0.61435
-0.614656
-0.614153
-0.612875
-0.610863
-0.608155
-0.604792
-0.600817
-0.596268
-0.591186
-0.585607
-0.579564
-0.573083
-0.566184
-0.558876
-0.551155
-0.542999
-0.534364
-0.525179
-0.515339
-0.504706
-0.493126
-0.480529
-0.466838
-0.575188
-0.581177
-0.586234
-0.590376
-0.593621
-0.595994
-0.597522
-0.598233
-0.598161
-0.597339
-0.595807
-0.593601
-0.590764
-0.587334
-0.583353
-0.578858
-0.573886
-0.56847
-0.562636
-0.556401
-0.549774
-0.542746
-0.535288
-0.52734
-0.518803
-0.509522
-0.499268
-0.487742
-0.474712
-0.45974
-0.557236
-0.563416
-0.568696
-0.573092
-0.576624
-0.579313
-0.581185
-0.582268
-0.582594
-0.582198
-0.581114
-0.579383
-0.577043
-0.574136
-0.5707
-0.566776
-0.5624
-0.557605
-0.552419
-0.546861
-0.540939
-0.534646
-0.527949
-0.520781
-0.513021
-0.504467
-0.494784
-0.483474
-0.470077
-0.453449
-0.53996
-0.5463
-0.551774
-0.556394
-0.560179
-0.56315
-0.565332
-0.566753
-0.567443
-0.567436
-0.566768
-0.565477
-0.563603
-0.561186
-0.558268
-0.554888
-0.551085
-0.546894
-0.542346
-0.537464
-0.532259
-0.52673
-0.520849
-0.514551
-0.50771
-0.500092
-0.491259
-0.480466
-0.46697
-0.448356
-0.523349
-0.529846
-0.535505
-0.54034
-0.544369
-0.547611
-0.550091
-0.551837
-0.552878
-0.553247
-0.55298
-0.552116
-0.550695
-0.548757
-0.546346
-0.543503
-0.540268
-0.53668
-0.532774
-0.528577
-0.52411
-0.519379
-0.514371
-0.509038
-0.503273
-0.49685
-0.48927
-0.479534
-0.466453
-0.44485
-0.507373
-0.514043
-0.519907
-0.524976
-0.529267
-0.532803
-0.535605
-0.537703
-0.539124
-0.539905
-0.540079
-0.539688
-0.538771
-0.537372
-0.535534
-0.533302
-0.530719
-0.527827
-0.524665
-0.521268
-0.517665
-0.513874
-0.509904
-0.505739
-0.501324
-0.496521
-0.490923
-0.483452
-0.472378
-0.446343
-0.491942
-0.498568
-0.504419
-0.50951
-0.513856
-0.51748
-0.520405
-0.522658
-0.52427
-0.525277
-0.525714
-0.525624
-0.52505
-0.524038
-0.522635
-0.52089
-0.518854
-0.516575
-0.514102
-0.511483
-0.50876
-0.505977
-0.503171
-0.500379
-0.497639
-0.495008
-0.492395
-0.489196
-0.485443
-0.465897
-0.398262
-0.446048
-0.492543
-0.53836
-0.583313
-0.627236
-0.670011
-0.711532
-0.751693
-0.790399
-0.82756
-0.863093
-0.896924
-0.928983
-0.95921
-0.98755
-1.01396
-1.0384
-1.06083
-1.08124
-1.09962
-1.11595
-1.13023
-1.14247
-1.15269
-1.16091
-1.16716
-1.17145
-1.17378
-1.17453
-0.390368
-0.436996
-0.482547
-0.527264
-0.571031
-0.613731
-0.655271
-0.695556
-0.734492
-0.771989
-0.807962
-0.842335
-0.875034
-0.905997
-0.935164
-0.962485
-0.987917
-1.01143
-1.03298
-1.05257
-1.07016
-1.08578
-1.0994
-1.11105
-1.12074
-1.12851
-1.13438
-1.13839
-1.14058
-1.14115
-0.37943
-0.425049
-0.469746
-0.513583
-0.556459
-0.598271
-0.638931
-0.678348
-0.716433
-0.753099
-0.788266
-0.821859
-0.853807
-0.884049
-0.912528
-0.939196
-0.964011
-0.986939
-1.00795
-1.02704
-1.04418
-1.05937
-1.07262
-1.08395
-1.09336
-1.1009
-1.10658
-1.11046
-1.11258
-1.11305
-0.365105
-0.409812
-0.453688
-0.49673
-0.538832
-0.579895
-0.619829
-0.658544
-0.695953
-0.731972
-0.766521
-0.799528
-0.830923
-0.860646
-0.88864
-0.914859
-0.939261
-0.961813
-0.982489
-1.00127
-1.01815
-1.03312
-1.04618
-1.05735
-1.06666
-1.07411
-1.07976
-1.08364
-1.08578
-1.08628
-0.347834
-0.391641
-0.434692
-0.476947
-0.518296
-0.558641
-0.59789
-0.635955
-0.672749
-0.70819
-0.7422
-0.774705
-0.805638
-0.834938
-0.86255
-0.888426
-0.912526
-0.934816
-0.955269
-0.973867
-0.990599
-1.00546
-1.01846
-1.0296
-1.03891
-1.0464
-1.05212
-1.0561
-1.05837
-1.05901
-0.328353
-0.371269
-0.413491
-0.45496
-0.495567
-0.535211
-0.573803
-0.611253
-0.647476
-0.682389
-0.715916
-0.747984
-0.778524
-0.807478
-0.834788
-0.860408
-0.884295
-0.906416
-0.926744
-0.945258
-0.961946
-0.976804
-0.989835
-1.00105
-1.01046
-1.01809
-1.02398
-1.02816
-1.03066
-1.03154
-0.307353
-0.349373
-0.390757
-0.431434
-0.471295
-0.510243
-0.548187
-0.585039
-0.620714
-0.655129
-0.688208
-0.719878
-0.750073
-0.77873
-0.805795
-0.831219
-0.854958
-0.876979
-0.897252
-0.915757
-0.93248
-0.947414
-0.960559
-0.971924
-0.981523
-0.989379
-0.995518
-0.999975
-1.00278
-1.00399
-0.285446
-0.326556
-0.367084
-0.406953
-0.446056
-0.484299
-0.521591
-0.557844
-0.592974
-0.6269
-0.659544
-0.690836
-0.720706
-0.749094
-0.775944
-0.801207
-0.824838
-0.846801
-0.867066
-0.885611
-0.90242
-0.917484
-0.930801
-0.942378
-0.952226
-0.960364
-0.966818
-0.971619
-0.974795
-0.976403
-0.263156
-0.303338
-0.342991
-0.382032
-0.42036
-0.457881
-0.494507
-0.530151
-0.564728
-0.598159
-0.630368
-0.661281
-0.690832
-0.718959
-0.745606
-0.770721
-0.794261
-0.816188
-0.83647
-0.855082
-0.872007
-0.887235
-0.90076
-0.912587
-0.922724
-0.931187
-0.938
-0.94319
-0.946785
-0.948835
-0.240912
-0.28015
-0.318908
-0.357102
-0.394635
-0.431417
-0.467359
-0.502377
-0.536387
-0.56931
-0.601071
-0.631597
-0.660821
-0.688682
-0.715122
-0.74009
-0.76354
-0.785435
-0.80574
-0.824429
-0.841483
-0.856889
-0.87064
-0.882737
-0.893186
-0.902
-0.909199
-0.914808
-0.918852
-0.921377
-0.219052
-0.257332
-0.29518
-0.33251
-0.369231
-0.405255
-0.440496
-0.474869
-0.508294
-0.540692
-0.571988
-0.60211
-0.630992
-0.658572
-0.684792
-0.7096
-0.732952
-0.754805
-0.775127
-0.793889
-0.81107
-0.826654
-0.840633
-0.853005
-0.863773
-0.872947
-0.880544
-0.886587
-0.891097
-0.894115
-0.197831
-0.235145
-0.272072
-0.308526
-0.344422
-0.379672
-0.414194
-0.447906
-0.480728
-0.512582
-0.543394
-0.573093
-0.601612
-0.628891
-0.654871
-0.679501
-0.702733
-0.724528
-0.74485
-0.76367
-0.780964
-0.796716
-0.810913
-0.823552
-0.834634
-0.844166
-0.85216
-0.858638
-0.863618
-0.867137
-0.177433
-0.213779
-0.249779
-0.28535
-0.32041
-0.354876
-0.388668
-0.421704
-0.453906
-0.485197
-0.515506
-0.544761
-0.572896
-0.599851
-0.625568
-0.649995
-0.673086
-0.694799
-0.715098
-0.733953
-0.751339
-0.767237
-0.781634
-0.794523
-0.805904
-0.815779
-0.824161
-0.831065
-0.836508
-0.840522
-0.157983
-0.193364
-0.228437
-0.263122
-0.297342
-0.331018
-0.36407
-0.396419
-0.427989
-0.458703
-0.48849
-0.517282
-0.545012
-0.571619
-0.597049
-0.621248
-0.64417
-0.665774
-0.686023
-0.704886
-0.722336
-0.738355
-0.752927
-0.766043
-0.777699
-0.787898
-0.796647
-0.803959
-0.809851
-0.814347
-0.139559
-0.173981
-0.208131
-0.241934
-0.275315
-0.308198
-0.340507
-0.372163
-0.403091
-0.433217
-0.462468
-0.490779
-0.518083
-0.544322
-0.56944
-0.593386
-0.616112
-0.637579
-0.657748
-0.676589
-0.694075
-0.710184
-0.724901
-0.738214
-0.750118
-0.760613
-0.769704
-0.777402
-0.783719
-0.788677
-0.122197
-0.155672
-0.188908
-0.221835
-0.254383
-0.286478
-0.318044
-0.349006
-0.379287
-0.408816
-0.437521
-0.465337
-0.492199
-0.51805
-0.542834
-0.566501
-0.589005
-0.610306
-0.630367
-0.649156
-0.666645
-0.682814
-0.697644
-0.711123
-0.723243
-0.734004
-0.743407
-0.751461
-0.758176
-0.763571
-0.105907
-0.138447
-0.170781
-0.202844
-0.234569
-0.265884
-0.296714
-0.326984
-0.356619
-0.385547
-0.413698
-0.441008
-0.467414
-0.49286
-0.51729
-0.540657
-0.562915
-0.584024
-0.603948
-0.622654
-0.640116
-0.656312
-0.671222
-0.684834
-0.697138
-0.708131
-0.717814
-0.726193
-0.733276
-0.739078
-0.0906747
-0.122295
-0.153741
-0.184955
-0.215871
-0.246419
-0.276523
-0.306108
-0.3351
-0.363427
-0.391022
-0.417819
-0.443758
-0.468784
-0.492845
-0.515892
-0.537881
-0.558774
-0.578534
-0.597131
-0.614536
-0.630727
-0.645685
-0.659396
-0.671851
-0.683043
-0.692972
-0.701642
-0.709059
-0.715236
-0.0764704
-0.107184
-0.13776
-0.168143
-0.198268
-0.228065
-0.257458
-0.286369
-0.314725
-0.342455
-0.369492
-0.395773
-0.421238
-0.445835
-0.469512
-0.492223
-0.513925
-0.53458
-0.554153
-0.572613
-0.589933
-0.60609
-0.621066
-0.634844
-0.647416
-0.658773
-0.668914
-0.677841
-0.685559
-0.692078
-0.0632525
-0.0930729
-0.122796
-0.152368
-0.181724
-0.210791
-0.239489
-0.267741
-0.295472
-0.322611
-0.349094
-0.374857
-0.399845
-0.424005
-0.447288
-0.46965
-0.491049
-0.511447
-0.530812
-0.549112
-0.566322
-0.582418
-0.597382
-0.611198
-0.623854
-0.635344
-0.645664
-0.654814
-0.662798
-0.669625
-0.0509719
-0.0799069
-0.108796
-0.137581
-0.166193
-0.194553
-0.222578
-0.250188
-0.277307
-0.303865
-0.329799
-0.355048
-0.379557
-0.403276
-0.426158
-0.44816
-0.469242
-0.489369
-0.508507
-0.526628
-0.543705
-0.559715
-0.574641
-0.588465
-0.601177
-0.612768
-0.623234
-0.632575
-0.640792
-0.647892
-0.039573
-0.0676253
-0.0957011
-0.123726
-0.151622
-0.179303
-0.206679
-0.233666
-0.260188
-0.286177
-0.31157
-0.336308
-0.36034
-0.383617
-0.406094
-0.427729
-0.448485
-0.468328
-0.487225
-0.505148
-0.522072
-0.537975
-0.552838
-0.566646
-0.579386
-0.591049
-0.601631
-0.61113
-0.619548
-0.626889
-0.0289948
-0.0561582
-0.0834452
-0.110742
-0.137955
-0.164986
-0.191738
-0.218124
-0.244068
-0.269501
-0.294362
-0.318598
-0.342156
-0.364991
-0.387061
-0.408326
-0.428749
-0.448298
-0.466942
-0.484653
-0.501408
-0.517184
-0.531964
-0.545731
-0.558474
-0.570182
-0.580852
-0.59048
-0.599067
-0.606617
-0.0191683
-0.045423
-0.0719522
-0.0985574
-0.125125
-0.151542
-0.1777
-0.203508
-0.228891
-0.253783
-0.278125
-0.301866
-0.324957
-0.347354
-0.369017
-0.38991
-0.409996
-0.429244
-0.447626
-0.465114
-0.481686
-0.49732
-0.511997
-0.525704
-0.538427
-0.550157
-0.560888
-0.570617
-0.579345
-0.587074
-0.0100081
-0.0353299
-0.0611484
-0.0871097
-0.113077
-0.138918
-0.164512
-0.189767
-0.21461
-0.238977
-0.262813
-0.286068
-0.308699
-0.330664
-0.351923
-0.372443
-0.39219
-0.411134
-0.429247
-0.446503
-0.46288
-0.478357
-0.492918
-0.506545
-0.519229
-0.530958
-0.541727
-0.551532
-0.560374
-0.568254
-0.0014042
-0.0258187
-0.051014
-0.0763909
-0.101809
-0.127114
-0.152175
-0.1769
-0.20122
-0.225076
-0.248417
-0.271196
-0.293373
-0.314909
-0.335767
-0.355915
-0.37532
-0.393955
-0.411792
-0.428807
-0.444979
-0.460286
-0.474713
-0.488245
-0.500869
-0.512576
-0.523359
-0.533216
-0.542144
-0.550147
0.00679868
-0.0167858
-0.041502
-0.0663658
-0.0912849
-0.116093
-0.140647
-0.164861
-0.188673
-0.212029
-0.234884
-0.257196
-0.278926
-0.300038
-0.320498
-0.340274
-0.359338
-0.377661
-0.395219
-0.411987
-0.427944
-0.443072
-0.457353
-0.470774
-0.483323
-0.494989
-0.505767
-0.515652
-0.524643
-0.532742
0.0150522
-0.00747251
-0.0318825
-0.0563512
-0.0808556
-0.105226
-0.129318
-0.15306
-0.176398
-0.199289
-0.22169
-0.243565
-0.264879
-0.285597
-0.305687
-0.325121
-0.343869
-0.361905
-0.379206
-0.395747
-0.41151
-0.426474
-0.440625
-0.453947
-0.46643
-0.478063
-0.48884
-0.498757
-0.507812
-0.516007
0.0246218
0.00347736
-0.0209836
-0.0453426
-0.0696476
-0.0937295
-0.117475
-0.140845
-0.163803
-0.186312
-0.20834
-0.229854
-0.25082
-0.271209
-0.290991
-0.310137
-0.328621
-0.346419
-0.363507
-0.379863
-0.395467
-0.410303
-0.424354
-0.437607
-0.45005
-0.461674
-0.472473
-0.482442
-0.49158
-0.499888
0.0343556
0.0110121
-0.0145347
-0.0390134
-0.0632529
-0.0871032
-0.110495
-0.133453
-0.155968
-0.178015
-0.199568
-0.220599
-0.241083
-0.260991
-0.280299
-0.29898
-0.317013
-0.334374
-0.351044
-0.367002
-0.382231
-0.396716
-0.410442
-0.423397
-0.435572
-0.446958
-0.457549
-0.467343
-0.476338
-0.484536
0.546312
0.553329
0.560509
0.567819
0.575258
0.582821
0.5905
0.598285
0.606161
0.614113
0.622123
0.630169
0.638229
0.646277
0.654285
0.662225
0.670073
0.677804
0.685404
0.69287
0.700219
0.707493
0.714773
0.722193
0.729956
0.738358
0.747714
0.758293
0.771903
0.791657
0.539142
0.545897
0.552917
0.560049
0.567286
0.574638
0.582094
0.589644
0.597271
0.60496
0.61269
0.62044
0.628184
0.635895
0.643545
0.651104
0.658544
0.665842
0.672982
0.679961
0.686795
0.69353
0.700251
0.707098
0.714283
0.722118
0.730935
0.741034
0.754279
0.773918
0.531118
0.537562
0.544398
0.551324
0.558331
0.565439
0.572641
0.579921
0.587264
0.594651
0.602063
0.609474
0.61686
0.62419
0.631435
0.638564
0.645548
0.652362
0.65899
0.665428
0.671695
0.677838
0.68395
0.690174
0.696737
0.703966
0.712215
0.72182
0.734713
0.754249
0.522248
0.528333
0.53496
0.541655
0.548401
0.555235
0.562149
0.569126
0.576149
0.583199
0.590253
0.597286
0.60427
0.611175
0.61797
0.624622
0.631101
0.637381
0.643445
0.649292
0.65494
0.660442
0.665894
0.671449
0.677345
0.683927
0.691572
0.700646
0.713121
0.732398
0.512542
0.518221
0.524614
0.531052
0.537509
0.544037
0.550632
0.557272
0.56394
0.570615
0.577273
0.583888
0.59043
0.596867
0.603166
0.609294
0.61522
0.620917
0.626368
0.631573
0.636552
0.641363
0.646106
0.650945
0.656131
0.662025
0.669025
0.677529
0.689531
0.708442
0.502011
0.507237
0.513374
0.519529
0.525668
0.53186
0.538103
0.544375
0.550653
0.556917
0.563142
0.569298
0.575357
0.581283
0.587043
0.592602
0.597927
0.602993
0.607782
0.612295
0.616557
0.620627
0.624614
0.628693
0.633125
0.638289
0.644606
0.6525
0.663982
0.682454
0.490667
0.495396
0.501253
0.507102
0.512893
0.518719
0.524581
0.53045
0.536305
0.542123
0.547878
0.553538
0.559073
0.564447
0.569624
0.574569
0.579248
0.583636
0.587716
0.59149
0.594986
0.598268
0.601455
0.604728
0.608363
0.612757
0.618353
0.625601
0.636519
0.654488
0.478524
0.482713
0.488269
0.493786
0.499202
0.504634
0.510083
0.515519
0.520918
0.526255
0.531503
0.53663
0.541603
0.546383
0.550936
0.555224
0.559213
0.562878
0.566202
0.569191
0.571875
0.574325
0.576666
0.579091
0.58189
0.585476
0.590313
0.596878
0.607191
0.624599
0.465597
0.469206
0.47444
0.479601
0.484615
0.489623
0.49463
0.499602
0.504513
0.509337
0.514044
0.518601
0.522973
0.527122
0.531009
0.534598
0.537855
0.540752
0.543277
0.545436
0.547264
0.548839
0.550292
0.551829
0.553754
0.556495
0.560538
0.566386
0.576056
0.592848
0.451902
0.454893
0.459784
0.464566
0.469151
0.473709
0.478246
0.482724
0.487116
0.491394
0.495526
0.499478
0.503214
0.506693
0.509877
0.512727
0.51521
0.517299
0.518982
0.520269
0.5212
0.521858
0.522384
0.522995
0.524008
0.52587
0.529087
0.534187
0.543176
0.559302
0.437457
0.439793
0.444323