/*--------------------------------*- C++ -*----------------------------------*\
  =========                 |
  \\      /  F ield         | OpenFOAM: The Open Source CFD Toolbox
   \\    /   O peration     | Website:  https://openfoam.org
    \\  /    A nd           | Version:  6.0
     \\/     M anipulation  |
\*---------------------------------------------------------------------------*/
FoamFile
{
    version     2.0;
    format      ascii;
    class       surfaceScalarField;
    location    "23";
    object      phi;
}
// * * * * * * * * * * * * * * * * * * * * * * * * * * * * * * * * * * * * * //

dimensions      [0 3 -1 0 0 0 0];

internalField   nonuniform List<scalar> 
38030
(
-8.50389e-06
-0.00797921
0.00798771
-2.72299e-05
-0.00733442
0.00735315
-5.40557e-05
-0.00674304
0.00676987
-8.7009e-05
-0.00620202
0.00623498
-0.000124271
-0.00570792
0.00574519
-0.000164297
-0.00525721
0.00529724
-0.000205802
-0.00484643
0.00488793
-0.000247729
-0.00447222
0.00451414
-0.000289219
-0.00413141
0.0041729
-0.000329584
-0.00382102
0.00386138
-0.000368288
-0.00353826
0.00357697
-0.000404926
-0.00328056
0.0033172
-0.000439203
-0.00304554
0.00307982
-0.000470927
-0.00283102
0.00286275
-0.000499992
-0.00263501
0.00266407
-0.000526367
-0.00245568
0.00248206
-0.000550088
-0.00229139
0.00231511
-0.000571249
-0.00214063
0.00216179
-0.000589996
-0.00200206
0.0020208
-0.000606514
-0.00187445
0.00189097
-0.000621027
-0.00175673
0.00177124
-0.000633789
-0.0016479
0.00166066
-0.000645075
-0.00154709
0.00155838
-0.000655177
-0.00145356
0.00146366
-0.000664399
-0.0013666
0.00137583
-0.00067305
-0.00128564
0.00129429
-0.000681434
-0.00121013
0.00121851
-0.000689849
-0.00113962
0.00114804
-0.000698588
-0.0010737
0.00108244
-0.00101195
0.00102131
-0.000707943
-7.50001e-06
-0.00797171
-2.59246e-05
-0.007316
-5.23497e-05
-0.00671662
-8.4542e-05
-0.00616983
-0.000120637
-0.00567183
-0.000159075
-0.00521878
-0.000198562
-0.00480694
-0.000238035
-0.00443274
-0.000276633
-0.00409281
-0.00031367
-0.00378398
-0.000348611
-0.00350332
-0.000381053
-0.00324812
-0.000410708
-0.00301589
-0.000437389
-0.00280434
-0.000460997
-0.0026114
-0.000481511
-0.00243517
-0.000498977
-0.00227392
-0.000513502
-0.0021261
-0.000525242
-0.00199032
-0.000534402
-0.00186529
-0.000541221
-0.00174991
-0.000545972
-0.00164314
-0.000548952
-0.00154411
-0.000550478
-0.00145203
-0.000550878
-0.0013662
-0.000550487
-0.00128603
-0.000549639
-0.00121098
-0.000548662
-0.0011406
-0.000547875
-0.00107449
-0.00101222
-0.000547604
-7.11541e-06
-0.0079646
-2.49431e-05
-0.00729817
-5.05496e-05
-0.00669101
-8.15701e-05
-0.00613881
-0.00011607
-0.00563733
-0.000152452
-0.00518239
-0.000189405
-0.00476999
-0.000225854
-0.00439629
-0.000260935
-0.00405773
-0.000293959
-0.00375096
-0.000324393
-0.00347289
-0.000351835
-0.00322068
-0.000376003
-0.00299172
-0.000396714
-0.00278363
-0.000413875
-0.00259424
-0.000427471
-0.00242157
-0.00043756
-0.00226383
-0.000444256
-0.00211941
-0.000447731
-0.00198684
-0.000448203
-0.00186482
-0.000445929
-0.00175218
-0.000441203
-0.00164787
-0.000434344
-0.00155097
-0.000425697
-0.00146068
-0.000415617
-0.00137628
-0.000404472
-0.00129717
-0.000392629
-0.00122282
-0.00038045
-0.00115278
-0.000368294
-0.00108664
-0.001024
-0.000356522
-6.86983e-06
-0.00795773
-2.40251e-05
-0.00728101
-4.85637e-05
-0.00666647
-7.80775e-05
-0.0061093
-0.000110587
-0.00560482
-0.000144464
-0.00514852
-0.000178378
-0.00473607
-0.000211244
-0.00436343
-0.000242193
-0.00402678
-0.000270534
-0.00372261
-0.000295734
-0.00344769
-0.000317394
-0.00319902
-0.000335232
-0.00297388
-0.00034907
-0.00276979
-0.00035882
-0.00258449
-0.000364473
-0.00241592
-0.000366091
-0.00226221
-0.000363802
-0.0021217
-0.000357786
-0.00199286
-0.000348275
-0.00187433
-0.000335545
-0.00176491
-0.00031991
-0.00166351
-0.000301714
-0.00156917
-0.000281329
-0.00148106
-0.000259145
-0.00139847
-0.000235564
-0.00132075
-0.000210992
-0.00124739
-0.000185832
-0.00117794
-0.000160489
-0.00111199
-0.00104912
-0.000135368
-6.63721e-06
-0.00795109
-2.30426e-05
-0.00726461
-4.63165e-05
-0.0066432
-7.40324e-05
-0.00608158
-0.000104185
-0.00557467
-0.000135128
-0.00511757
-0.000165514
-0.00470569
-0.000194254
-0.00433469
-0.000220472
-0.00400056
-0.000243477
-0.00369961
-0.000262736
-0.00342843
-0.000277852
-0.0031839
-0.000288544
-0.00296319
-0.000294636
-0.0027637
-0.000296043
-0.00258308
-0.00029276
-0.0024192
-0.000284855
-0.00227012
-0.00027246
-0.00213409
-0.000255768
-0.00200955
-0.000235022
-0.00189508
-0.000210515
-0.00178942
-0.000182581
-0.00169144
-0.000151589
-0.00160016
-0.000117942
-0.00151471
-8.20657e-05
-0.00143434
-4.4401e-05
-0.00135842
-5.39882e-06
-0.00128639
3.44885e-05
-0.00121783
7.48061e-05
-0.00115231
-0.0010894
0.000115091
-6.38007e-06
-0.00794471
-2.19403e-05
-0.00724905
-4.37632e-05
-0.00662138
-6.94094e-05
-0.00605593
-9.6859e-05
-0.00554722
-0.000124454
-0.00508998
-0.00015084
-0.0046793
-0.000174924
-0.0043106
-0.00019583
-0.00397966
-0.000212866
-0.00368257
-0.0002255
-0.00341579
-0.000233335
-0.00317607
-0.000236093
-0.00296043
-0.000233599
-0.0027662
-0.000225766
-0.00259092
-0.000212594
-0.00243237
-0.000194152
-0.00228856
-0.000170577
-0.00215767
-0.00014207
-0.00203806
-0.000108885
-0.00192826
-7.1328e-05
-0.00182697
-2.9753e-05
-0.00173302
1.54445e-05
-0.00164536
6.3832e-05
-0.0015631
0.000114946
-0.00148546
0.000168301
-0.00141177
0.000223396
-0.00134149
0.000279724
-0.00127415
0.000336769
-0.00120935
-0.00114663
0.000394002
-6.08485e-06
-0.00793862
-2.06926e-05
-0.00723444
-4.08787e-05
-0.00660119
-6.41911e-05
-0.00603262
-8.86021e-05
-0.00552281
-0.000112449
-0.00506613
-0.000134376
-0.00465737
-0.000153291
-0.00429169
-0.000168318
-0.00396463
-0.000178771
-0.00367212
-0.000184117
-0.00341045
-0.000183963
-0.00317622
-0.000178029
-0.00296637
-0.000166141
-0.00277809
-0.000148212
-0.00260884
-0.00012424
-0.00245634
-9.42943e-05
-0.00231851
-5.85155e-05
-0.00219345
-1.71064e-05
-0.00207947
2.96699e-05
-0.00197504
8.14945e-05
-0.0018788
0.000137996
-0.00178952
0.000198756
-0.00170612
0.00026331
-0.00162765
0.000331155
-0.0015533
0.00040176
-0.00148238
0.000474567
-0.0014143
0.000549008
-0.00134859
0.000624497
-0.00128484
-0.00122257
0.000700429
-5.74761e-06
-0.00793288
-1.92881e-05
-0.0072209
-3.76489e-05
-0.00658283
-5.83664e-05
-0.0060119
-7.94095e-05
-0.00550176
-9.91159e-05
-0.00504643
-0.000116135
-0.00464035
-0.000129379
-0.00427844
-0.000137979
-0.00395603
-0.000141252
-0.00366885
-0.000138671
-0.00341303
-0.000129844
-0.00318505
-0.000114492
-0.00298172
-9.24385e-05
-0.00280014
-6.35965e-05
-0.00263769
-2.79594e-05
-0.00249198
1.4405e-05
-0.00236087
6.33587e-05
-0.0022424
0.000118698
-0.00213481
0.000180156
-0.0020365
0.000247404
-0.00194605
0.000320058
-0.00186217
0.000397674
-0.00178373
0.00047976
-0.00170974
0.000565774
-0.00163932
0.000655133
-0.00157174
0.000747223
-0.00150639
0.000841403
-0.00144278
0.000937012
-0.00138045
-0.00131891
0.00103336
-5.36719e-06
-0.00792751
-1.7722e-05
-0.00720854
-3.40657e-05
-0.00656649
-5.19267e-05
-0.00599404
-6.92748e-05
-0.00548441
-8.44542e-05
-0.00503125
-9.61241e-05
-0.00462868
-0.000103206
-0.00427136
-0.000104841
-0.00395439
-0.000100355
-0.00367333
-8.92276e-05
-0.00342416
-7.1069e-05
-0.00320321
-4.56028e-05
-0.00300718
-1.26505e-05
-0.00283309
2.78791e-05
-0.00267822
7.59977e-05
-0.0025401
0.000131643
-0.00241652
0.000194683
-0.00230544
0.000264918
-0.00220504
0.000342081
-0.00211366
0.000425839
-0.00202981
0.000515797
-0.00195213
0.000611495
-0.00187943
0.000712411
-0.00181065
0.000817965
-0.00174487
0.000927523
-0.0016813
0.00104041
-0.00161927
0.0011559
-0.00155827
0.00127326
-0.0014978
-0.00143734
0.00139169
-4.94353e-06
-0.00792257
-1.59908e-05
-0.0071975
-3.01227e-05
-0.00655235
-4.48632e-05
-0.0059793
-5.81888e-05
-0.00547109
-6.8456e-05
-0.00502098
-7.43386e-05
-0.0046228
-7.47739e-05
-0.00427093
-6.89178e-05
-0.00396025
-5.61076e-05
-0.00368614
-3.58323e-05
-0.00344443
-7.70853e-06
-0.00323133
2.85383e-05
-0.00304343
7.30883e-05
-0.00287764
0.000126037
-0.00273117
0.000187405
-0.00260147
0.000257137
-0.00248625
0.000335112
-0.00238341
0.000421139
-0.00229107
0.000514956
-0.00220748
0.000616233
-0.00213108
0.00072457
-0.00206047
0.000839493
-0.00199435
0.000960457
-0.00193162
0.00108685
-0.00187126
0.00121798
-0.00181243
0.0013531
-0.0017544
0.00149143
-0.0016966
0.00163212
-0.00163849
-0.00157948
0.00177426
-4.47601e-06
-0.00791809
-1.40914e-05
-0.00718788
-2.58123e-05
-0.00654063
-3.71647e-05
-0.00596795
-4.61374e-05
-0.00546212
-5.11057e-05
-0.00501601
-5.07642e-05
-0.00462314
-4.40718e-05
-0.00427762
-3.02039e-05
-0.00397412
-8.51481e-06
-0.00370783
2.14935e-05
-0.00347444
6.01957e-05
-0.00327003
0.000107862
-0.0030911
0.000164674
-0.00293445
0.000230733
-0.00279722
0.000306066
-0.0026768
0.000390633
-0.00257082
0.000484326
-0.00247711
0.000586967
-0.00239371
0.000698308
-0.00231882
0.000818027
-0.0022508
0.000945727
-0.00218816
0.00108093
-0.00212956
0.00122307
-0.00207376
0.0013715
-0.00201969
0.00152549
-0.00196642
0.00168423
-0.00191314
0.00184684
-0.00185921
0.00201238
-0.00180402
-0.0017469
0.0021798
-3.96357e-06
-0.00791413
-1.20193e-05
-0.00717983
-2.11251e-05
-0.00653153
-2.8816e-05
-0.00596026
-3.31005e-05
-0.00545783
-3.23789e-05
-0.00501673
-2.53743e-05
-0.00463015
-1.10728e-05
-0.00429192
1.13242e-05
-0.00399651
4.24404e-05
-0.00373895
8.27558e-05
-0.00351475
0.000132633
-0.00331991
0.000192335
-0.0031508
0.000262042
-0.00300416
0.000341859
-0.00287704
0.000431827
-0.00276677
0.000531918
-0.00267091
0.000642041
-0.00258723
0.000762041
-0.00251371
0.000891689
-0.00244847
0.00103068
-0.00238979
0.00117863
-0.00233611
0.00133505
-0.00228598
0.00149939
-0.0022381
0.00167097
-0.00219127
0.00184901
-0.00214446
0.00203265
-0.00209678
0.00222091
-0.00204748
0.00241274
-0.00199585
-0.00194113
0.00260696
-3.40479e-06
-0.00791072
-9.76855e-06
-0.00717346
-1.6049e-05
-0.00652525
-1.97979e-05
-0.00595651
-1.90512e-05
-0.00545858
-1.22423e-05
-0.00502354
1.8706e-06
-0.00464426
2.42663e-05
-0.00431432
5.57112e-05
-0.00402796
9.68002e-05
-0.00378004
0.00014799
-0.00356594
0.000209625
-0.00338155
0.000281959
-0.00322313
0.000365166
-0.00308737
0.000459357
-0.00297123
0.00056458
-0.00287199
0.000680825
-0.00278715
0.000808023
-0.00271443
0.000946045
-0.00265173
0.00109469
-0.00259711
0.00125368
-0.00254878
0.00142264
-0.00250508
0.00160113
-0.00246447
0.00178857
-0.00242553
0.00198428
-0.00238698
0.00218745
-0.00234763
0.00239715
-0.00230648
0.00261233
-0.00226266
0.00283181
-0.00221533
-0.0021636
0.00305428
-2.79751e-06
-0.00790792
-7.33195e-06
-0.00716893
-1.05692e-05
-0.00652201
-1.00868e-05
-0.00595699
-3.95647e-06
-0.00546471
9.34689e-06
-0.00503685
3.10218e-05
-0.00466594
6.20044e-05
-0.0043453
0.000103021
-0.00406898
0.000154631
-0.00383165
0.000217261
-0.00362857
0.000291232
-0.00345552
0.00037678
-0.00330868
0.000474072
-0.00318466
0.000583217
-0.00308038
0.000704272
-0.00299305
0.000837246
-0.00292012
0.000982094
-0.00285928
0.00113872
-0.00280835
0.00130695
-0.00276534
0.00148655
-0.00272838
0.00167719
-0.00269572
0.00187843
-0.00266572
0.00208974
-0.00263684
0.00231042
-0.00260766
0.00253965
-0.00257686
0.00277646
-0.00254328
0.00301971
-0.0025059
0.00326809
-0.00246372
-0.00241567
0.00352016
-2.13931e-06
-0.00790578
-4.70095e-06
-0.00716637
-4.66874e-06
-0.00652204
3.44439e-07
-0.00596201
1.2222e-05
-0.00547659
3.24385e-05
-0.00505706
6.21405e-05
-0.00469564
0.000102214
-0.00438537
0.000153336
-0.0041201
0.000216023
-0.00389434
0.000290662
-0.00370321
0.000377545
-0.0035424
0.000476883
-0.00340802
0.000588828
-0.0032966
0.000713484
-0.00320503
0.000850913
-0.00313048
0.00100114
-0.00307035
0.00116414
-0.00302228
0.00133986
-0.00298407
0.00152817
-0.00295365
0.00172887
-0.00292909
0.0019417
-0.00290854
0.00216625
-0.00289027
0.00240203
-0.00287262
0.00264837
-0.002854
0.00290444
-0.00283294
0.00316924
-0.00280808
0.00344155
-0.00277822
0.00371998
-0.00274214
-0.00269857
0.00400288
-1.4273e-06
-0.00790436
-1.86614e-06
-0.00716593
1.67092e-06
-0.00652558
1.15256e-05
-0.00597186
2.9526e-05
-0.00549459
5.70875e-05
-0.00508462
9.52956e-05
-0.00473385
0.000144976
-0.00443505
0.00020675
-0.00418187
0.000281081
-0.00396867
0.00036831
-0.00379044
0.000468687
-0.00364278
0.000582391
-0.00352172
0.000709552
-0.00342377
0.000850259
-0.00334574
0.00100457
-0.00328479
0.00117253
-0.00323831
0.00135413
-0.00320388
0.00154936
-0.00317929
0.00175812
-0.00316242
0.0019803
-0.00315127
0.00221568
-0.00314392
0.00246393
-0.00313853
0.00272461
-0.0031333
0.0029971
-0.00312649
0.0032806
-0.00311643
0.00357407
-0.00310156
0.00387628
-0.00308042
0.0041857
-0.00305156
-0.00301342
0.00450054
-6.58634e-07
-0.0079037
1.18213e-06
-0.00716777
8.46902e-06
-0.00653287
2.34869e-05
-0.00598688
4.79989e-05
-0.0055191
8.33508e-05
-0.00511998
0.000130558
-0.00478105
0.000190379
-0.00449487
0.000263367
-0.00425486
0.000349926
-0.00405522
0.000450339
-0.00389086
0.000564805
-0.00375724
0.000693461
-0.00365038
0.000836402
-0.00356671
0.000993695
-0.00350303
0.00116539
-0.00345649
0.00135152
-0.00342444
0.00155211
-0.00340448
0.00176718
-0.00339435
0.00199669
-0.00339193
0.00224058
-0.00339516
0.00249872
-0.00340206
0.00277088
-0.00341068
0.00305668
-0.0034191
0.00335559
-0.0034254
0.00366686
-0.0034277
0.00398949
-0.00342419
0.00432219
-0.00341313
0.00466337
-0.00339274
-0.00336112
0.00501108
1.69597e-07
-0.00790387
4.45329e-06
-0.00717205
1.57439e-05
-0.00654416
3.62578e-05
-0.00600739
6.7682e-05
-0.00555052
0.000111283
-0.00516358
0.000167998
-0.00483777
0.000238507
-0.00456538
0.00032329
-0.00433964
0.000422677
-0.00415461
0.000536887
-0.00400507
0.000666057
-0.00388641
0.000810268
-0.00379459
0.000969568
-0.00372601
0.00114399
-0.00367745
0.00133355
-0.00364605
0.00153828
-0.00362917
0.00175822
-0.00362442
0.0019934
-0.00362953
0.00224384
-0.00364237
0.00250956
-0.00366088
0.00279052
-0.00368301
0.00308658
-0.00370674
0.00339749
-0.00373001
0.00372284
-0.00375075
0.00406197
-0.00376683
0.00441395
-0.00377616
0.00477749
-0.00377667
0.00515095
-0.0037662
-0.0037424
0.00553223
1.06013e-06
-0.00790493
7.95596e-06
-0.00717895
2.35122e-05
-0.00655971
4.9864e-05
-0.00603374
8.86113e-05
-0.00558927
0.000140932
-0.0052159
0.000207676
-0.00490451
0.000289435
-0.00464714
0.000386609
-0.00443682
0.000499446
-0.00426745
0.000628089
-0.00413371
0.000772601
-0.00403092
0.000932995
-0.00395498
0.00110926
-0.00390227
0.00130137
-0.00386956
0.0015093
-0.00385398
0.00173306
-0.00385294
0.00197268
-0.00386403
0.0022282
-0.00388505
0.00249969
-0.00391386
0.00278723
-0.00394842
0.00309088
-0.00398667
0.00341065
-0.00402651
0.00374642
-0.00406579
0.00409795
-0.00410227
0.00446471
-0.00413359
0.0048459
-0.00415735
0.00524031
-0.00417108
0.00564626
-0.00417214
-0.00415767
0.00606154
2.01491e-06
-0.00790694
1.16968e-05
-0.00718863
3.17868e-05
-0.0065798
6.43253e-05
-0.00606628
0.000110814
-0.00563576
0.000172333
-0.00527742
0.000249634
-0.00498181
0.000343218
-0.00474072
0.000453393
-0.00454699
0.00058032
-0.00439438
0.000724052
-0.00427744
0.000884571
-0.00419144
0.00106181
-0.00413222
0.00125567
-0.00409613
0.00146606
-0.00407995
0.00169291
-0.00408083
0.00193615
-0.00409618
0.00219579
-0.00412367
0.00247186
-0.00416112
0.00276447
-0.00420647
0.00307373
-0.00425769
0.00339983
-0.00431276
0.00374289
-0.00436957
0.00410301
-0.00442591
0.00448012
-0.00447938
0.00487393
-0.0045274
0.00528382
-0.00456724
0.00570871
-0.00459598
0.006147
-0.00461043
-0.00460704
0.00659637
3.03529e-06
-0.00790998
1.56804e-05
-0.00720127
4.05759e-05
-0.0066047
7.96535e-05
-0.00610536
0.000134304
-0.00569041
0.000205501
-0.00534861
0.000293893
-0.0050702
0.000399881
-0.00484671
0.000523674
-0.00467079
0.00066534
-0.00453604
0.000824839
-0.00443694
0.00100206
-0.00436866
0.00119683
-0.00432699
0.00140897
-0.00430828
0.0016383
-0.00430928
0.00188464
-0.00432717
0.00214788
-0.00435941
0.00242793
-0.00440372
0.0027248
-0.00445799
0.00303857
-0.00452024
0.00336942
-0.00458854
0.00371759
-0.00466093
0.00408337
-0.00473535
0.00446704
-0.00480958
0.00486881
-0.00488114
0.00528866
-0.00494726
0.00572627
-0.00500485
0.00618082
-0.00505053
0.00665081
-0.00508042
-0.00509018
0.00713394
4.12156e-06
-0.0079141
1.99085e-05
-0.00721706
4.98824e-05
-0.00663467
9.585e-05
-0.00615133
0.000159081
-0.00575364
0.000240431
-0.00542996
0.00034044
-0.00517021
0.000459404
-0.00496568
0.000597432
-0.00480881
0.000754492
-0.0046931
0.000930442
-0.00461289
0.00112507
-0.00456328
0.0013381
-0.00454003
0.00156925
-0.00453943
0.00181822
-0.00455825
0.00208473
-0.00459368
0.00236854
-0.00464322
0.00266949
-0.00470466
0.00298748
-0.00477598
0.00332255
-0.00485531
0.00367486
-0.00494085
0.0040447
-0.00503077
0.00443248
-0.00512313
0.0048387
-0.00521579
0.00526384
-0.00530629
0.00570829
-0.00539171
0.00617212
-0.00546868
0.0066549
-0.0055333
0.00715542
-0.00558094
-0.00560621
0.00767146
5.27323e-06
-0.00791937
2.43803e-05
-0.00723617
5.97032e-05
-0.00666999
0.000112906
-0.00620453
0.000185122
-0.00582586
0.000277086
-0.00552193
0.000389222
-0.00528235
0.000521718
-0.00509817
0.00067458
-0.00496168
0.000847674
-0.0048662
0.00104076
-0.00480598
0.00125351
-0.00477604
0.00148555
-0.00477207
0.00173648
-0.00479035
0.00200586
-0.00482763
0.00229329
-0.00488111
0.00259838
-0.00494832
0.00292084
-0.00502712
0.00326043
-0.00511558
0.00361708
-0.00521196
0.00399086
-0.00531463
0.00438203
-0.00542194
0.00479108
-0.00553218
0.00521868
-0.00564339
0.00566564
-0.00575324
0.00613278
-0.00585885
0.00662074
-0.00595664
0.00712966
-0.00604223
0.00765883
-0.00611011
-0.00615364
0.00820626
6.48889e-06
-0.00792586
2.90941e-05
-0.00725877
7.0031e-05
-0.00671093
0.000130799
-0.0062653
0.000212388
-0.00590745
0.000315398
-0.00562494
0.000440138
-0.00540709
0.000586688
-0.00524472
0.00075495
-0.00512994
0.000944688
-0.00505593
0.00115556
-0.00501685
0.00138714
-0.00500761
0.00163893
-0.00502387
0.00191042
-0.00506184
0.00220104
-0.00511825
0.00251023
-0.0051903
0.00283746
-0.00527555
0.00318223
-0.00537188
0.00354413
-0.00547748
0.00392289
-0.00559072
0.00431841
-0.00571014
0.00473083
-0.00583436
0.00516058
-0.00596194
0.00560844
-0.00609125
0.00607548
-0.00622028
0.00656302
-0.00634639
0.00707238
-0.00646601
0.00760457
-0.00657441
0.00815967
-0.00666521
-0.00673014
0.00873617
7.7688e-06
-0.00793363
3.40502e-05
-0.00728506
8.08571e-05
-0.00675774
0.000149502
-0.00633394
0.000240815
-0.00599876
0.000355265
-0.00573939
0.00049304
-0.00554486
0.000654111
-0.00540579
0.00083828
-0.00531411
0.00104521
-0.00526287
0.00127447
-0.0052461
0.00152553
-0.00525867
0.0017978
-0.00529613
0.00209062
-0.00535466
0.00240332
-0.00543095
0.00273519
-0.00552217
0.00308552
-0.00562587
0.00345361
-0.00573997
0.00383881
-0.00586269
0.0042406
-0.00599251
0.0046586
-0.00612814
0.00509268
-0.00626844
0.00554306
-0.00641232
0.00601041
-0.00655861
0.00649594
-0.00670582
0.00700139
-0.00685183
0.00752889
-0.00699351
0.0080806
-0.00712612
0.00865789
-0.00724251
-0.00733241
0.00926016
9.11954e-06
-0.00794275
3.92595e-05
-0.0073152
9.21779e-05
-0.00681066
0.000168976
-0.00641074
0.000270322
-0.0061001
0.000396546
-0.00586561
0.00054772
-0.00569604
0.000723708
-0.00558178
0.000924212
-0.00551461
0.00114881
-0.00548746
0.00139696
-0.00549426
0.00166806
-0.00552977
0.00196142
-0.0055895
0.0022763
-0.00566954
0.0026119
-0.00576655
0.00296737
-0.00587765
0.00334185
-0.00600036
0.00373445
-0.00613257
0.00414428
-0.00627251
0.00457048
-0.00641872
0.00501233
-0.00656999
0.00546929
-0.00672539
0.00594113
-0.00688416
0.00642815
-0.00704563
0.00693134
-0.00720901
0.00745259
-0.00737309
0.00799476
-0.00753567
0.00856145
-0.0076928
0.00915604
-0.0078371
-0.00795581
0.00977945
1.05657e-05
-0.00795332
4.47564e-05
-0.00734939
0.000104003
-0.0068699
0.000189183
-0.00649592
0.000300804
-0.00621172
0.000439065
-0.00600387
0.000603919
-0.00586089
0.000795124
-0.00577299
0.00101229
-0.00573177
0.00125489
-0.00573006
0.00152232
-0.00576169
0.00181388
-0.00582134
0.00212882
-0.00590444
0.00246632
-0.00600704
0.0028255
-0.00612573
0.00320542
-0.00625757
0.00360509
-0.00640003
0.00402348
-0.00655095
0.00445948
-0.00670851
0.00491197
-0.00687121
0.00537982
-0.00703785
0.00586199
-0.00720756
0.0063576
-0.00737978
0.00686622
-0.00755425
0.00738812
-0.00773091
0.0079247
-0.00790966
0.00847895
-0.00808993
0.00905581
-0.00826966
0.00966148
-0.00844277
-0.00859393
0.0102996
1.21759e-05
-0.00796549
5.06234e-05
-0.00738783
0.000116364
-0.00693564
0.000210079
-0.00658964
0.000332136
-0.00633378
0.000482607
-0.00615434
0.000661324
-0.00603961
0.000867935
-0.0059796
0.00110195
-0.00596578
0.00136275
-0.00599087
0.00164966
-0.0060486
0.00196192
-0.0061336
0.00229871
-0.00624123
0.00265916
-0.00636749
0.00304236
-0.00650892
0.00344732
-0.00666253
0.00387302
-0.00682573
0.00431835
-0.00699628
0.00478212
-0.00717228
0.00526304
-0.00735212
0.0057597
-0.00753451
0.00627061
-0.00771847
0.00679423
-0.0079034
0.00732913
-0.00808914
0.00787426
-0.00827603
0.0084295
-0.00846491
0.00899657
-0.008657
0.0095803
-0.00885339
0.0101898
-0.0090523
-0.00924103
0.0108369
1.41734e-05
-0.00797966
5.70601e-05
-0.00743072
0.000129329
-0.00700791
0.000231612
-0.00669192
0.000364163
-0.00646633
0.000526917
-0.0063171
0.000719573
-0.00623227
0.000941655
-0.00620168
0.00119256
-0.00621669
0.00147159
-0.0062699
0.00177799
-0.00635499
0.00211092
-0.00646653
0.00246954
-0.00659984
0.00285295
-0.00675089
0.00326022
-0.00691619
0.0036904
-0.00709272
0.0041425
-0.00727783
0.00461547
-0.00746926
0.0051082
-0.00766501
0.00561946
-0.00786338
0.00614788
-0.00806292
0.00669187
-0.00826246
0.00724958
-0.00846111
0.00781883
-0.00865839
0.00839715
-0.00885435
0.00898207
-0.00904983
0.00957191
-0.00924685
0.0101678
-0.00944923
0.0107788
-0.0096634
-0.0099021
0.0114399
1.73697e-05
-0.00799703
6.44527e-05
-0.0074778
0.000142959
-0.00708642
0.000253676
-0.00680264
0.000396673
-0.00660933
0.000571691
-0.00649211
0.000778257
-0.00643883
0.00101575
-0.00643917
0.00128345
-0.00648438
0.00158054
-0.006567
0.00190619
-0.00668064
0.0022595
-0.00681985
0.00263958
-0.00697992
0.00304552
-0.00715683
0.00347641
-0.00734709
0.00393136
-0.00754766
0.00440948
-0.00775595
0.0049099
-0.00796967
0.00543176
-0.00818687
0.00597419
-0.00840582
0.00653633
-0.00862506
0.00711723
-0.00884336
0.0077158
-0.00905969
0.00833068
-0.00927327
0.00896003
-0.0094837
0.00960136
-0.00969117
0.0102513
-0.00989674
0.0109043
-0.0101023
0.0115559
-0.010315
-0.0105574
0.0122112
0.0089921
4.6065e-05
-0.00903816
0.00894698
4.51184e-05
0.00890215
4.48251e-05
0.00885748
4.46713e-05
0.00881299
4.44976e-05
0.00876874
4.42481e-05
0.00872484
4.39007e-05
0.00868139
4.34493e-05
0.00863849
4.28941e-05
0.00859625
4.22388e-05
0.00855477
4.14885e-05
0.00851412
4.06486e-05
0.00847439
3.97254e-05
0.00843567
3.87247e-05
0.00839802
3.76527e-05
0.0083615
3.65153e-05
0.00832618
3.53185e-05
0.00829211
3.40679e-05
0.00825934
3.27685e-05
0.00822792
3.14255e-05
0.00819788
3.00438e-05
0.00816925
2.8628e-05
0.00814207
2.71822e-05
0.00811635
2.57107e-05
0.00809214
2.42156e-05
0.00806945
2.26935e-05
0.00804832
2.11255e-05
0.00802887
1.94518e-05
0.0080114
1.74652e-05
1.43683e-05
0.0102827
0.000164587
-0.0104013
0.010163
0.000164804
0.0100427
0.000165135
0.00992209
0.000165326
0.00980135
0.000165233
0.00968081
0.000164785
0.00956076
0.000163949
0.0094415
0.000162715
0.00932331
0.000161087
0.00920647
0.000159074
0.00909127
0.000156692
0.00897796
0.00015396
0.00886679
0.000150895
0.00875799
0.00014752
0.00865179
0.000143855
0.00854838
0.000139921
0.00844796
0.000135738
0.0083507
0.000131328
0.00825676
0.000126707
0.00816629
0.000121896
0.00807943
0.000116912
0.00799628
0.000111769
0.00791698
0.000106484
0.00784163
0.000101068
0.00777031
9.55289e-05
0.00770314
8.98632e-05
0.00764022
8.40431e-05
0.00758168
7.7992e-05
0.00752764
7.15141e-05
6.42009e-05
0.0115385
0.000343562
-0.0117175
0.0113568
0.000346553
0.011173
0.000348869
0.0109879
0.000350446
0.0108019
0.000351211
0.0106156
0.000351121
0.0104294
0.000350153
0.0102438
0.000348305
0.0100593
0.000345588
0.00987636
0.000342026
0.00969541
0.000337647
0.00951688
0.000332488
0.00934119
0.000326586
0.00916873
0.000319983
0.00899986
0.000312721
0.00883494
0.000304842
0.00867429
0.000296389
0.00851821
0.000287403
0.00836699
0.000277925
0.0082209
0.000267991
0.00808017
0.000257639
0.00794504
0.000246903
0.00781571
0.000235813
0.00769238
0.000224398
0.00757523
0.000212679
0.00746443
0.000200668
0.00736011
0.000188357
0.00726239
0.000175709
0.00717127
0.00016264
0.000149051
0.0127498
0.000572256
-0.0129785
0.0125168
0.000579615
0.0122802
0.000585446
0.0120409
0.000589759
0.0117996
0.000592534
0.0115569
0.000593758
0.0113137
0.000593427
0.0110704
0.000591554
0.0108278
0.000588165
0.0105866
0.000583298
0.0103472
0.000577001
0.0101104
0.00056933
0.0098766
0.000560345
0.00964647
0.000550112
0.00942049
0.0005387
0.00919916
0.000526176
0.00898294
0.000512611
0.00877227
0.000498072
0.00856757
0.000482625
0.00836922
0.000466335
0.0081776
0.00044926
0.00799304
0.00043146
0.00781587
0.000412989
0.00764637
0.000393898
0.00748481
0.000374233
0.00733145
0.000354035
0.00718647
0.000333338
0.00705001
0.000312165
0.00692211
0.000290539
0.000268524
0.0139087
0.000840922
-0.0141774
0.0136339
0.000854401
0.0133539
0.000865438
0.0130696
0.000874056
0.0127819
0.00088026
0.0124916
0.000884058
0.0121996
0.000885463
0.0119066
0.000884502
0.0116136
0.000881217
0.0113212
0.000875663
0.0110303
0.000867907
0.0107416
0.000858026
0.0104558
0.000846106
0.0101737
0.000832238
0.0098959
0.00081652
0.00962303
0.000799048
0.00935572
0.000779924
0.00909455
0.000759244
0.00884007
0.000737105
0.0085928
0.0007136
0.00835324
0.000688819
0.00812186
0.000662847
0.00789908
0.000635768
0.00768531
0.000607663
0.00748093
0.000578611
0.00728628
0.000548694
0.00710162
0.000517995
0.00692718
0.000486607
0.00676307
0.000454642
0.000422268
0.0150089
0.00114084
-0.0153088
0.014701
0.00116232
0.0143861
0.00118038
0.0140651
0.00119503
0.0137391
0.00120628
0.013409
0.00121415
0.0130758
0.00121864
0.0127405
0.00121981
0.012404
0.0012177
0.0120673
0.00121239
0.0117312
0.00120396
0.0113967
0.00119251
0.0110647
0.00117814
0.010736
0.00116098
0.0104113
0.00114115
0.0100916
0.00111878
0.0097775
0.00109401
0.0094698
0.00106695
0.00916916
0.00103775
0.00887624
0.00100652
0.00859168
0.000973381
0.00831607
0.00093846
0.00804997
0.000901868
0.00779391
0.000863719
0.00754839
0.000824133
0.00731385
0.000783236
0.00709067
0.000741169
0.00687918
0.000698095
0.00667961
0.000654211
0.000609768
0.0160459
0.00146422
-0.0163693
0.0157126
0.00149567
0.0153703
0.00152266
0.0150201
0.00154519
0.0146632
0.00156324
0.0143005
0.00157683
0.0139331
0.00158597
0.0135623
0.00159071
0.0131889
0.00159109
0.012814
0.00158721
0.0124388
0.00157916
0.0120643
0.00156706
0.0116914
0.00155103
0.0113211
0.00153123
0.0109545
0.0015078
0.0105924
0.0014809
0.0102357
0.00145069
0.00988532
0.00141734
0.00954205
0.00138101
0.0092067
0.00134186
0.00888004
0.00130004
0.0085628
0.0012557
0.00825568
0.00120899
0.00795935
0.00116005
0.00767443
0.00110905
0.0074015
0.00105617
0.00714107
0.0010016
0.00689359
0.000945574
0.00665942
0.000888382
0.00083036
0.0170166
0.00180419
-0.0173566
0.0166647
0.00184758
0.0163019
0.00188545
0.0159293
0.00191776
0.0155481
0.00194447
0.0151594
0.00196556
0.0147643
0.00198104
0.0143641
0.00199094
0.0139598
0.00199533
0.0135528
0.00199427
0.0131441
0.00198789
0.0127348
0.0019763
0.0123262
0.00195965
0.0119193
0.0019381
0.0115153
0.00191185
0.0111151
0.00188106
0.0107199
0.00184594
0.0103305
0.00180667
0.0099481
0.00176346
0.00957347
0.00171648
0.00920758
0.00166593
0.0088513
0.00161198
0.00850547
0.00155482
0.0081709
0.00149462
0.00784837
0.00143159
0.00753859
0.00136594
0.00724224
0.00129795
0.00695991
0.00122791
0.00669208
0.0011562
0.00108327
0.0179192
0.00215467
-0.0182697
0.0175549
0.00221195
0.0171777
0.00226265
0.0167888
0.00230666
0.0163893
0.00234392
0.0159805
0.00237436
0.0155636
0.00239797
0.0151398
0.00241477
0.0147103
0.00242479
0.0142765
0.00242812
0.0138395
0.00242486
0.0134006
0.00241514
0.0129612
0.00239911
0.0125223
0.00237697
0.0120853
0.00234891
0.0116512
0.00231513
0.0112213
0.00227585
0.0107966
0.00223131
0.0103784
0.00218171
0.0099676
0.00212728
0.00956531
0.00206822
0.00917255
0.00200475
0.0087903
0.00193706
0.00841954
0.00186538
0.00806119
0.00178993
0.00771614
0.00171099
0.00738524
0.00162886
0.00706922
0.00154393
0.00676875
0.00145667
0.00136764
0.0187532
0.00251034
-0.0191089
0.0183818
0.00258341
0.0179956
0.00264884
0.0175958
0.00270647
0.0171835
0.00275616
0.0167601
0.00279782
0.0163266
0.00283141
0.0158845
0.00285689
0.015435
0.0028743
0.0149794
0.00288369
0.0145191
0.00288515
0.0140555
0.00287881
0.0135897
0.00286484
0.0131233
0.00284342
0.0126574
0.00281476
0.0121935
0.00277909
0.0117327
0.00273666
0.0112763
0.00268771
0.0108255
0.00263247
0.0103816
0.0025712
0.00994568
0.00250412
0.00951897
0.00243146
0.00910259
0.00235345
0.00869766
0.00227031
0.0083053
0.0021823
0.00792656
0.00208972
0.00756248
0.00199294
0.00721398
0.00189242
0.00688192
0.00178873
0.00168256
0.0195189
0.00286662
-0.0198752
0.0191451
0.00295728
0.0187546
0.00303927
0.0183488
0.00311235
0.0179286
0.00317634
0.0174953
0.00323109
0.0170502
0.0032765
0.0165946
0.0033125
0.0161298
0.00333908
0.0156572
0.00335628
0.0151782
0.00336415
0.0146942
0.00336283
0.0142066
0.00335247
0.0137167
0.00333325
0.0132261
0.00330539
0.0127361
0.00326913
0.012248
0.00322473
0.0117633
0.00317244
0.0112832
0.00311254
0.0108091
0.00304527
0.0103424
0.00297089
0.00988421
0.00288962
0.00943595
0.00280171
0.00899888
0.00270737
0.00857429
0.00260689
0.00816343
0.00250058
0.00776754
0.00238883
0.00738777
0.00227219
0.00702517
0.00215133
0.00202709
0.0202176
0.00321961
-0.0205706
0.0198453
0.00332952
0.0194548
0.00342978
0.0190471
0.00352008
0.0186233
0.00360017
0.0181845
0.00366982
0.0177322
0.00372887
0.0172675
0.00377721
0.0167918
0.00381478
0.0163065
0.00384157
0.015813
0.00385762
0.0153128
0.00386303
0.0148073
0.00385793
0.0142981
0.0038425
0.0137865
0.00381696
0.0132741
0.00378155
0.0127623
0.00373653
0.0122526
0.00368219
0.0117463
0.00361878
0.011245
0.00354658
0.0107501
0.00346583