/*--------------------------------*- C++ -*----------------------------------*\
  =========                 |
  \\      /  F ield         | OpenFOAM: The Open Source CFD Toolbox
   \\    /   O peration     | Website:  https://openfoam.org
    \\  /    A nd           | Version:  6.0
     \\/     M anipulation  |
\*---------------------------------------------------------------------------*/
FoamFile
{
    version     2.0;
    format      ascii;
    class       volScalarField;
    location    "12.7505";
    object      p;
}
// * * * * * * * * * * * * * * * * * * * * * * * * * * * * * * * * * * * * * //

dimensions      [0 2 -2 0 0 0 0];

internalField   nonuniform List<scalar> 
19200
(
-7.01435
-6.1488
-5.55851
-5.10024
-4.69698
-4.34292
-4.03032
-3.75059
-3.4977
-3.26731
-3.05608
-2.86141
-2.68125
-2.51396
-2.35817
-2.21278
-2.07685
-1.94957
-1.83024
-1.71826
-1.61308
-1.51423
-1.42128
-1.33383
-1.25155
-1.17411
-1.10124
-1.03268
-0.968126
-0.907523
-7.19338
-6.32714
-5.73461
-5.27289
-4.86551
-4.50692
-4.18955
-3.90494
-3.64713
-3.41186
-3.19584
-2.9965
-2.8118
-2.64013
-2.48014
-2.33073
-2.19095
-2.06
-1.93718
-1.82188
-1.71355
-1.6117
-1.51591
-1.42578
-1.34095
-1.2611
-1.18595
-1.11521
-1.04852
-0.986181
-7.37717
-6.50873
-5.91338
-5.44801
-5.03634
-4.67308
-4.35081
-4.06118
-3.79833
-3.55806
-3.33713
-3.133
-2.94368
-2.76753
-2.60325
-2.44973
-2.30602
-2.17133
-2.04495
-1.92627
-1.81473
-1.70984
-1.61117
-1.5183
-1.43088
-1.34859
-1.27113
-1.19816
-1.12931
-1.06522
-7.56405
-6.69312
-6.09466
-5.62544
-5.20933
-4.84125
-4.51393
-4.21915
-3.95113
-3.70575
-3.47979
-3.27077
-3.0767
-2.89599
-2.72733
-2.56961
-2.4219
-2.2834
-2.15339
-2.03127
-1.91647
-1.8085
-1.7069
-1.61126
-1.52121
-1.43643
-1.35663
-1.28141
-1.21037
-1.1445
-7.7536
-6.88003
-6.27825
-5.805
-5.38429
-5.01124
-4.67874
-4.37867
-4.10536
-3.85473
-3.62364
-3.40962
-3.21071
-3.02534
-2.8522
-2.69021
-2.53843
-2.39604
-2.26236
-2.13674
-2.01863
-1.90752
-1.80295
-1.7045
-1.6118
-1.52451
-1.44232
-1.36482
-1.29156
-1.22392
-7.94552
-7.0692
-6.46395
-5.9865
-5.56104
-5.18287
-4.84505
-4.53957
-4.26085
-4.00486
-3.76851
-3.54938
-3.34553
-3.15541
-2.97771
-2.81137
-2.65544
-2.50911
-2.37168
-2.24252
-2.12105
-2.00677
-1.89919
-1.7979
-1.70251
-1.61267
-1.52808
-1.44828
-1.37277
-1.30335
-8.13952
-7.26039
-6.65153
-6.16976
-5.7394
-5.35598
-5.0127
-4.70167
-4.4174
-4.15593
-3.91422
-3.68987
-3.48099
-3.28602
-3.10369
-2.93291
-2.77277
-2.62244
-2.48122
-2.34846
-2.22359
-2.10609
-1.99548
-1.89132
-1.79321
-1.70081
-1.61379
-1.53166
-1.45389
-1.38269
-8.33535
-7.45337
-6.8408
-6.35456
-5.91916
-5.53035
-5.18148
-4.86478
-4.57484
-4.30777
-4.06058
-3.83092
-3.6169
-3.417
-3.22995
-3.05467
-2.89025
-2.73586
-2.59079
-2.4544
-2.32609
-2.20535
-2.09167
-1.98461
-1.88376
-1.78878
-1.69932
-1.61484
-1.53479
-1.46181
-8.53279
-7.64791
-7.03152
-6.54069
-6.10014
-5.7058
-5.35121
-5.02871
-4.73298
-4.46019
-4.20742
-3.97233
-3.75309
-3.54817
-3.35633
-3.17649
-3.00772
-2.84922
-2.70026
-2.56019
-2.42842
-2.30439
-2.18762
-2.07765
-1.97405
-1.87647
-1.78455
-1.6977
-1.61537
-1.54061
-8.73161
-7.84378
-7.22348
-6.72796
-6.28211
-5.88213
-5.52169
-5.19326
-4.89161
-4.613
-4.35454
-4.11394
-3.88937
-3.67936
-3.48265
-3.29818
-3.12502
-2.96236
-2.80947
-2.66568
-2.53041
-2.40309
-2.28321
-2.1703
-2.06394
-1.96375
-1.86937
-1.78015
-1.69551
-1.619
-8.93157
-8.04075
-7.41646
-6.91613
-6.46488
-6.05912
-5.69271
-5.35823
-5.05056
-4.76601
-4.50175
-4.25553
-4.02557
-3.81038
-3.60874
-3.41957
-3.24197
-3.0751
-2.91825
-2.77072
-2.63193
-2.50129
-2.37829
-2.26244
-2.1533
-2.0505
-1.95365
-1.86207
-1.77513
-1.69687
-9.13244
-8.23861
-7.61025
-7.105
-6.64823
-6.23658
-5.86407
-5.52343
-5.20961
-4.91901
-4.64886
-4.39694
-4.16149
-3.94106
-3.73442
-3.54051
-3.35841
-3.18731
-3.02645
-2.87516
-2.73282
-2.59885
-2.47272
-2.35393
-2.24203
-2.13661
-2.0373
-1.94335
-1.85411
-1.77413
-9.334
-8.43712
-7.80462
-7.29436
-6.83195
-6.41428
-6.03556
-5.68864
-5.36856
-5.07182
-4.79568
-4.53797
-4.29696
-4.07122
-3.85951
-3.66081
-3.47418
-3.2988
-3.13392
-2.97885
-2.83296
-2.69565
-2.56639
-2.44465
-2.32998
-2.22196
-2.1202
-2.02388
-1.93235
-1.85069
-9.53602
-8.63607
-7.99935
-7.48398
-7.01583
-6.59203
-6.20698
-5.85366
-5.52723
-5.22424
-4.94202
-4.67844
-4.4318
-4.20067
-3.98386
-3.78031
-3.58912
-3.40943
-3.24051
-3.08164
-2.93219
-2.79154
-2.65915
-2.53448
-2.41704
-2.30643
-2.20223
-2.10356
-2.00976
-1.92644
-9.73828
-8.83523
-8.19422
-7.67365
-7.19965
-6.76961
-6.37812
-6.0183
-5.6854
-5.37607
-5.08768
-4.81815
-4.56581
-4.32925
-4.10728
-3.89885
-3.70306
-3.51905
-3.34606
-3.18339
-3.03037
-2.88639
-2.75087
-2.62327
-2.50309
-2.38991
-2.28329
-2.18229
-2.08622
-2.00129
-9.94055
-9.03438
-8.38902
-7.86315
-7.38319
-6.94681
-6.54877
-6.18234
-5.84288
-5.52712
-5.23248
-4.95693
-4.69882
-4.45678
-4.2296
-4.01627
-3.81584
-3.62749
-3.45043
-3.28395
-3.12736
-2.98005
-2.84142
-2.71091
-2.588
-2.47227
-2.36325
-2.25995
-2.16165
-2.07514
-10.1426
-9.23331
-8.58353
-8.05226
-7.56625
-7.12342
-6.71872
-6.34558
-5.99948
-5.67719
-5.37623
-5.09459
-4.83067
-4.58308
-4.35067
-4.13239
-3.92732
-3.73461
-3.55347
-3.38317
-3.22303
-3.07239
-2.93066
-2.79726
-2.67165
-2.55339
-2.442
-2.33643
-2.23591
-2.14788
-10.3443
-9.4318
-8.77753
-8.24079
-7.74862
-7.29923
-6.88778
-6.50784
-6.15498
-5.8261
-5.51874
-5.23096
-4.96117
-4.70801
-4.47032
-4.24708
-4.03734
-3.84026
-3.65504
-3.48093
-3.31723
-3.16328
-3.01846
-2.88218
-2.75389
-2.63313
-2.51941
-2.41159
-2.30888
-2.21938
-10.5453
-9.62964
-8.97082
-8.42851
-7.93009
-7.47404
-7.05574
-6.6689
-6.30922
-5.97366
-5.65985
-5.36587
-5.09015
-4.83138
-4.5884
-4.36017
-4.14576
-3.9443
-3.75499
-3.57707
-3.40982
-3.25258
-3.10469
-2.96555
-2.8346
-2.71136
-2.59533
-2.48529
-2.38043
-2.2895
-10.7455
-9.82664
-9.16319
-8.61522
-8.11044
-7.64764
-7.22239
-6.82857
-6.46199
-6.11969
-5.79936
-5.49913
-5.21747
-4.95306
-4.70476
-4.47153
-4.25243
-4.0466
-3.8532
-3.67147
-3.50068
-3.34014
-3.18919
-3.04721
-2.91361
-2.78792
-2.66961
-2.55739
-2.45039
-2.35808
-10.9447
-10.0226
-9.35445
-8.80072
-8.28949
-7.81983
-7.38755
-6.98666
-6.61311
-6.26401
-5.93712
-5.63061
-5.34296
-5.07289
-4.81926
-4.58102
-4.35724
-4.14702
-3.94954
-3.76401
-3.58968
-3.42586
-3.27185
-3.12703
-2.9908
-2.86267
-2.74208
-2.62769
-2.51856
-2.42492
-11.1427
-10.2173
-9.54439
-8.9848
-8.46701
-7.99041
-7.551
-7.14299
-6.7624
-6.40645
-6.07296
-5.76013
-5.46649
-5.19074
-4.93177
-4.68852
-4.46005
-4.24546
-4.0439
-3.85457
-3.67671
-3.50959
-3.35253
-3.20488
-3.06601
-2.93543
-2.81258
-2.69602
-2.58475
-2.48977
-11.3394
-10.4107
-9.73283
-9.16726
-8.64281
-8.15917
-7.71257
-7.29736
-6.90968
-6.54684
-6.20672
-5.88756
-5.5879
-5.30648
-5.04217
-4.79392
-4.56077
-4.34181
-4.13618
-3.94305
-3.76166
-3.59125
-3.43113
-3.28061
-3.13908
-3.00604
-2.8809
-2.76214
-2.64868
-2.55236
-11.5348
-10.6025
-9.91957
-9.3479
-8.81668
-8.32592
-7.87206
-7.44959
-7.05478
-6.68503
-6.33825
-6.01274
-5.70708
-5.41999
-5.15035
-4.89712
-4.6593
-4.43599
-4.2263
-4.02939
-3.84446
-3.67075
-3.50754
-3.35414
-3.20991
-3.07434
-2.94686
-2.82584
-2.71008
-2.61234
-11.7287
-10.7925
-10.1044
-9.5265
-8.98841
-8.49044
-8.02926
-7.59949
-7.19753
-6.82084
-6.46741
-6.13557
-5.8239
-5.53117
-5.25623
-4.99803
-4.75558
-4.52794
-4.31421
-4.11352
-3.92506
-3.74804
-3.58172
-3.42539
-3.27839
-3.14022
-3.01028
-2.88687
-2.76863
-2.66934
-11.9211
-10.9807
-10.2871
-9.70282
-9.15776
-8.65253
-8.18398
-7.74689
-7.33776
-6.95414
-6.59406
-6.2559
-5.93827
-5.63992
-5.35972
-5.0966
-4.84956
-4.61763
-4.39989
-4.19545
-4.00347
-3.82313
-3.65367
-3.49436
-3.34452
-3.20362
-3.07107
-2.94506
-2.82406
-2.72279
-12.1123
-11.1667
-10.4674
-9.87661
-9.3245
-8.81196
-8.33603
-7.89161
-7.47532
-7.08477
-6.71807
-6.37363
-6.05007
-5.74616
-5.46075
-5.19277
-4.9412
-4.70503
-4.48334
-4.27519
-4.07972
-3.89609
-3.72349
-3.56116
-3.4084
-3.26464
-3.12932
-3.00049
-2.8762
-2.77208
-12.3032
-11.3507
-10.645
-10.0475
-9.48832
-8.96846
-8.48515
-8.03343
-7.61001
-7.21258
-6.83931
-6.48864
-6.15921
-5.8498
-5.55926
-5.28649
-5.03046
-4.79015
-4.56458
-4.3528
-4.15391
-3.96703
-3.79132
-3.62596
-3.4702
-3.32347
-3.18515
-3.05306
-2.92454
-2.81686
-12.4951
-11.5325
-10.8192
-10.2151
-9.64886
-9.12177
-8.63115
-8.17218
-7.74167
-7.33742
-6.95763
-6.6008
-6.26558
-5.95076
-5.65517
-5.37772
-5.11733
-4.87297
-4.64364
-4.42834
-4.22615
-4.03614
-3.85743
-3.68913
-3.5304
-3.38055
-3.23874
-3.10219
-2.96793
-2.85681
-12.6805
-11.7088
-10.9891
-10.3788
-9.806
-9.27186
-8.77403
-8.30787
-7.87034
-7.45931
-7.07308
-6.71016
-6.36923
-6.04908
-5.74855
-5.46651
-5.20187
-4.95359
-4.72062
-4.50196
-4.29665
-4.10373
-3.9223
-3.75144
-3.59026
-3.43789
-3.29296
-3.1525
-3.01485
-2.89903
-15.771
-15.7512
-15.722
-15.6883
-15.6493
-15.6043
-15.5532
-15.4959
-15.4325
-15.3628
-15.2869
-15.205
-15.1171
-15.0232
-14.9235
-14.8181
-14.7072
-14.5908
-14.469
-14.3422
-14.2103
-14.0735
-13.9321
-13.7861
-13.6359
-13.4816
-13.3236
-13.1623
-12.9982
-12.8342
-14.7338
-14.7189
-14.6954
-14.6656
-14.6295
-14.587
-14.5381
-14.483
-14.4217
-14.3541
-14.2805
-14.2008
-14.1152
-14.0237
-13.9264
-13.8235
-13.7151
-13.6014
-13.4823
-13.3581
-13.229
-13.0951
-12.9565
-12.8134
-12.6661
-12.5148
-12.3597
-12.2011
-12.0392
-11.8748
-13.8945
-13.8833
-13.8645
-13.8387
-13.8063
-13.7675
-13.7224
-13.6709
-13.6133
-13.5495
-13.4798
-13.404
-13.3224
-13.2349
-13.1418
-13.0432
-12.9391
-12.8296
-12.715
-12.5952
-12.4706
-12.3412
-12.2072
-12.0687
-11.926
-11.7791
-11.6284
-11.474
-11.316
-11.1544
-13.1331
-13.1253
-13.1106
-13.089
-13.0609
-13.0264
-12.9857
-12.9388
-12.8857
-12.8267
-12.7617
-12.6908
-12.6142
-12.5318
-12.4439
-12.3505
-12.2517
-12.1477
-12.0385
-11.9244
-11.8053
-11.6816
-11.5532
-11.4204
-11.2834
-11.1422
-10.9971
-10.8481
-10.6954
-10.5391
-12.3942
-12.3898
-12.3789
-12.3615
-12.3377
-12.3078
-12.2717
-12.2295
-12.1814
-12.1274
-12.0676
-12.002
-11.9308
-11.8541
-11.7718
-11.6842
-11.5913
-11.4932
-11.3901
-11.2821
-11.1693
-11.0518
-10.9298
-10.8034
-10.6727
-10.5379
-10.3991
-10.2564
-10.11
-9.95991
-11.6894
-11.6882
-11.6809
-11.6675
-11.6478
-11.6222
-11.5907
-11.5533
-11.51
-11.4611
-11.4065
-11.3463
-11.2806
-11.2095
-11.133
-11.0514
-10.9645
-10.8726
-10.7758
-10.6742
-10.5679
-10.4569
-10.3415
-10.2218
-10.0978
-9.96976
-9.83772
-9.70183
-9.56217
-9.41887
-11.0237
-11.0254
-11.0213
-11.0113
-10.9955
-10.9739
-10.9466
-10.9136
-10.875
-10.8309
-10.7813
-10.7263
-10.6659
-10.6003
-10.5296
-10.4537
-10.3729
-10.2871
-10.1966
-10.1013
-10.0014
-9.89705
-9.7883
-9.67529
-9.55813
-9.43692
-9.31179
-9.18284
-9.05017
-8.91391
-10.3973
-10.4014
-10.4001
-10.3932
-10.3807
-10.3626
-10.3391
-10.3101
-10.2757
-10.2361
-10.1911
-10.141
-10.0857
-10.0253
-9.95993
-9.88964
-9.81451
-9.73463
-9.65009
-9.56097
-9.46738
-9.36941
-9.26718
-9.16077
-9.05029
-8.93586
-8.81757
-8.69553
-8.56984
-8.44061
-9.81018
-9.81636
-9.81733
-9.81294
-9.80323
-9.78824
-9.76801
-9.74258
-9.71199
-9.6763
-9.63556
-9.58981
-9.53913
-9.48357
-9.4232
-9.35809
-9.28831
-9.21395
-9.13508
-9.05179
-8.96417
-8.8723
-8.77629
-8.67622
-8.57219
-8.4643
-8.35265
-8.23733
-8.11844
-7.9961
-9.26193
-9.26966
-9.27244
-9.27012
-9.26273
-9.25032
-9.23291
-9.21054
-9.18323
-9.15105
-9.11404
-9.07223
-9.0257
-8.97449
-8.91866
-8.85828
-8.79342
-8.72415
-8.65054
-8.57267
-8.49062
-8.40447
-8.31432
-8.22023
-8.12231
-8.02065
-7.91533
-7.80644
-7.69408
-7.57837
-8.75142
-8.76028
-8.76443
-8.76374
-8.75822
-8.74793
-8.73287
-8.71307
-8.68858
-8.65943
-8.62567
-8.58733
-8.54446
-8.49712
-8.44537
-8.38926
-8.32886
-8.26422
-8.19542
-8.12253
-8.04562
-7.96476
-7.88005
-7.79154
-7.69934
-7.60352
-7.50416
-7.40135
-7.29518
-7.18576
-8.27706
-8.28668
-8.29182
-8.29236
-8.28831
-8.2797
-8.26656
-8.24891
-8.22679
-8.20022
-8.16925
-8.13392
-8.09426
-8.05034
-8.0022
-7.9499
-7.89348
-7.83302
-7.76857
-7.70021
-7.62799
-7.55199
-7.47228
-7.38893
-7.30202
-7.21162
-7.11783
-7.0207
-6.92033
-6.81682
-7.83694
-7.84702
-7.85282
-7.85424
-7.85129
-7.84401
-7.83241
-7.81652
-7.79635
-7.77196
-7.74337
-7.71062
-7.67375
-7.63281
-7.58785
-7.53891
-7.48604
-7.42932
-7.36878
-7.30449
-7.23653
-7.16494
-7.08979
-7.01117
-6.92912
-6.84374
-6.75508
-6.66323
-6.56827
-6.47027
-7.42898
-7.43924
-7.44543
-7.44745
-7.4453
-7.43903
-7.42864
-7.41415
-7.39561
-7.37303
-7.34645
-7.3159
-7.28143
-7.24307
-7.20088
-7.1549
-7.10518
-7.05177
-6.99472
-6.9341
-6.86996
-6.80236
-6.73136
-6.65703
-6.57944
-6.49864
-6.41472
-6.32773
-6.23776
-6.14489
-7.05096
-7.06121
-7.06756
-7.06993
-7.06834
-7.06281
-7.05335
-7.03999
-7.02275
-7.00167
-6.97678
-6.9481
-6.91568
-6.87956
-6.83979
-6.79639
-6.74944
-6.69896
-6.64502
-6.58767
-6.52697
-6.46296
-6.39571
-6.32528
-6.25173
-6.17513
-6.09554
-6.01302
-5.92765
-5.8395
-6.70066
-6.71074
-6.71709
-6.71963
-6.71838
-6.71338
-6.70462
-6.69214
-6.67596
-6.65612
-6.63263
-6.60553
-6.57487
-6.54067
-6.50299
-6.46187
-6.41734
-6.36946
-6.31828
-6.26385
-6.20621
-6.14543
-6.08156
-6.01466
-5.94478
-5.87199
-5.79635
-5.71792
-5.63677
-5.55298
-6.37593
-6.38571
-6.39192
-6.39448
-6.39343
-6.38877
-6.38053
-6.36873
-6.3534
-6.33456
-6.31224
-6.28649
-6.25732
-6.22478
-6.18892
-6.14977
-6.10738
-6.0618
-6.01306
-5.96123
-5.90635
-5.84846
-5.78763
-5.72392
-5.65736
-5.58803
-5.51599
-5.44129
-5.36401
-5.28422
-6.07466
-6.08406
-6.09003
-6.09251
-6.09152
-6.08708
-6.07921
-6.06793
-6.05327
-6.03526
-6.01392
-5.98929
-5.9614
-5.9303
-5.89602
-5.8586
-5.81809
-5.77453
-5.72797
-5.67845
-5.62602
-5.57074
-5.51265
-5.45181
-5.38826
-5.32207
-5.2533
-5.182
-5.10825
-5.03213
-5.7949
-5.80386
-5.80952
-5.81183
-5.81081
-5.80649
-5.79886
-5.78798
-5.77385
-5.75651
-5.73599
-5.71232
-5.68553
-5.65566
-5.62276
-5.58686
-5.54801
-5.50624
-5.46162
-5.41417
-5.36395
-5.311
-5.25538
-5.19713
-5.1363
-5.07296
-5.00715
-4.93895
-4.86842
-4.79566
-5.5348
-5.54329
-5.54859
-5.55068
-5.54956
-5.54527
-5.53781
-5.52722
-5.51352
-5.49673
-5.47689
-5.45403
-5.42819
-5.3994
-5.36771
-5.33314
-5.29576
-5.25559
-5.21268
-5.16709
-5.11884
-5.068
-5.0146
-4.9587
-4.90034
-4.83958
-4.77647
-4.71108
-4.64349
-4.57379
-5.29266
-5.30066
-5.30559
-5.30741
-5.30615
-5.30183
-5.29447
-5.28409
-5.27073
-5.2544
-5.23514
-5.21298
-5.18796
-5.16011
-5.12947
-5.09609
-5.06001
-5.02127
-4.9799
-4.93597
-4.88951
-4.84056
-4.78918
-4.7354
-4.67928
-4.62086
-4.5602
-4.49737
-4.43244
-4.36554
-5.06694
-5.07444
-5.07897
-5.08051
-5.07908
-5.0747
-5.06738
-5.05716
-5.04407
-5.02812
-5.00935
-4.98779
-4.96349
-4.93646
-4.90677
-4.87444
-4.83952
-4.80205
-4.76208
-4.71965
-4.67479
-4.62757
-4.57801
-4.52617
-4.47208
-4.41579
-4.35735
-4.29684
-4.23432
-4.16995
-4.85621
-4.86322
-4.86735
-4.8686
-4.86698
-4.8625
-4.8552
-4.8451
-4.83222
-4.81659
-4.79824
-4.77721
-4.75353
-4.72725
-4.69839
-4.667
-4.63312
-4.5968
-4.55808
-4.51701
-4.47361
-4.42795
-4.38006
-4.32997
-4.27774
-4.22339
-4.16698
-4.10856
-4.04821
-3.98614
-4.65919
-4.66572
-4.66946
-4.67041
-4.66859
-4.66401
-4.6567
-4.64667
-4.63397
-4.61862
-4.60064
-4.58007
-4.55695
-4.53132
-4.50321
-4.47267
-4.43974
-4.40446
-4.36687
-4.32703
-4.28496
-4.24073
-4.19435
-4.14588
-4.09534
-4.04277
-3.9882
-3.93168
-3.87326
-3.81325
-4.47471
-4.48078
-4.48415
-4.48481
-4.48278
-4.47809
-4.47075
-4.46078
-4.44823
-4.43311
-4.41545
-4.3953
-4.37268
-4.34763
-4.3202
-4.29043
-4.25835
-4.22402
-4.18747
-4.14875
-4.1079
-4.06496
-4.01998
-3.97299
-3.92402
-3.87308
-3.8202
-3.76541
-3.70869
-3.65052
-4.30174
-4.30736
-4.31036
-4.31073
-4.3085
-4.30368
-4.29629
-4.28637
-4.27393
-4.25901
-4.24164
-4.22185
-4.19967
-4.17516
-4.14834
-4.11925
-4.08795
-4.05447
-4.01886
-3.98117
-3.94143
-3.89969
-3.85599
-3.81036
-3.76283
-3.7134
-3.66207
-3.60885
-3.55361
-3.49716
-4.13934
-4.14453
-4.14717
-4.14726
-4.14481
-4.13985
-4.13241
-4.1225
-4.11015
-4.09539
-4.07826
-4.05878
-4.03699
-4.01293
-3.98665
-3.95818
-3.92756
-3.89485
-3.86008
-3.8233
-3.78455
-3.74389
-3.70134
-3.65694
-3.61072
-3.56268
-3.51277
-3.46097
-3.40692
-3.35213
-3.98665
-3.9915
-3.99386
-3.99374
-3.99115
-3.98612
-3.97866
-3.96881
-3.95658
-3.942
-3.92512
-3.90595
-3.88455
-3.86094
-3.83517
-3.80728
-3.77731
-3.74531
-3.71132
-3.67539
-3.63757
-3.5979
-3.55642
-3.51317
-3.46818
-3.42144
-3.37288
-3.32241
-3.26926
-3.21577
-3.84277
-3.84745
-3.84971
-3.84955
-3.84699
-3.84204
-3.83474
-3.82511
-3.81318
-3.79896
-3.7825
-3.76382
-3.74297
-3.71999
-3.69491
-3.66778
-3.63864
-3.60754
-3.57452
-3.53964
-3.50293
-3.46446
-3.42426
-3.38239
-3.33886
-3.29369
-3.2468
-3.19802
-3.14612
-3.0942
-3.70701
-3.71088
-3.71244
-3.71168
-3.70861
-3.70327
-3.69567
-3.68584
-3.6738
-3.65959
-3.64323
-3.62476
-3.60422
-3.58164
-3.55706
-3.53054
-3.5021
-3.47181
-3.4397
-3.40582
-3.37022
-3.33297
-3.29409
-3.25367
-3.21173
-3.16832
-3.12343
-3.07686
-3.02738
-2.9822
-13.256
-13.4111
-13.5579
-13.7046
-13.8496
-13.9914
-14.1294
-14.2634
-14.3928
-14.5175
-14.6372
-14.7516
-14.8605
-14.9638
-15.0614
-15.1529
-15.2385
-15.3178
-15.3908
-15.4575
-15.5176
-15.5713
-15.6183
-15.6587
-15.6924
-15.7196
-15.7401
-15.7543
-15.7623
-15.7658
-12.2194
-12.3787
-12.5312
-12.6803
-12.8259
-12.9675
-13.1049
-13.2381
-13.3666
-13.4904
-13.6092
-13.7228
-13.831
-13.9337
-14.0307
-14.1219
-14.2071
-14.2862
-14.3591
-14.4258
-14.4861
-14.5399
-14.5873
-14.6282
-14.6625
-14.6902
-14.7115
-14.7263
-14.7347
-14.7369
-11.3694
-11.5283
-11.6819
-11.8311
-11.9761
-12.1171
-12.2538
-12.3861
-12.5139
-12.637
-12.7552
-12.8683
-12.9762
-13.0787
-13.1757
-13.267
-13.3525
-13.432
-13.5056
-13.573
-13.6342
-13.6892
-13.7378
-13.78
-13.8158
-13.8452
-13.8681
-13.8846
-13.8945
-13.8978
-10.6003
-10.7567
-10.9087
-11.0564
-11.2
-11.3396
-11.475
-11.6061
-11.7328
-11.8549
-11.9723
-12.0847
-12.1921
-12.2943
-12.3912
-12.4826
-12.5683
-12.6484
-12.7226
-12.791
-12.8533
-12.9095
-12.9596
-13.0035
-13.0411
-13.0725
-13.0975
-13.1161
-13.1283
-13.134
-9.8643
-10.0171
-10.1663
-10.3116
-10.453
-10.5904
-10.7239
-10.8532
-10.9782
-11.0988
-11.2149
-11.3262
-11.4327
-11.5342
-11.6305
-11.7216
-11.8074
-11.8876
-11.9622
-12.0312
-12.0944
-12.1517
-12.2031
-12.2485
-12.2879
-12.3211
-12.3483
-12.3692
-12.3839
-12.3922
-9.17547
-9.32429
-9.46994
-9.61198
-9.75035
-9.88501
-10.0158
-10.1427
-10.2655
-10.3841
-10.4983
-10.608
-10.7131
-10.8134
-10.9088
-10.9992
-11.0844
-11.1644
-11.239
-11.3082
-11.3719
-11.4299
-11.4823
-11.5289
-11.5697
-11.6046
-11.6337
-11.6567
-11.6737
-11.6846
-8.53893
-8.68335
-8.82492
-8.96316
-9.09798
-9.2293
-9.357
-9.48096
-9.60102
-9.71708
-9.82898
-9.93659
-10.0398
-10.1384
-10.2324
-10.3216
-10.4059
-10.4852
-10.5593
-10.6283
-10.692
-10.7504
-10.8033
-10.8507
-10.8925
-10.9287
-10.9593
-10.9841
-11.0031
-11.0164
-7.95392
-8.09369
-8.23085
-8.36492
-8.4958
-8.62338
-8.74756
-8.86819
-8.98513
-9.09826
-9.20745
-9.31256
-9.41347
-9.51005
-9.60219
-9.68977
-9.77268
-9.85082
-9.92411
-9.99243
-10.0557
-10.1139
-10.1669
-10.2147
-10.2571
-10.2942
-10.3258
-10.352
-10.3727
-10.3878
-7.41859
-7.55358
-7.68614
-7.81582
-7.94251
-8.06612
-8.1865
-8.30352
-8.41706
-8.52697
-8.63314
-8.73543
-8.83372
-8.9279
-9.01785
-9.10346
-9.18463
-9.26126
-9.33326
-9.40054
-9.46302
-9.52063
-9.57331
-9.62098
-9.66359
-9.70108
-9.73341
-9.76053
-9.78239
-9.79899
-6.93031
-7.06048
-7.18836
-7.31356
-7.43595
-7.55542
-7.67186
-7.78511
-7.89505
-8.00155
-8.10449
-8.20374
-8.29918
-8.3907
-8.4782
-8.56156
-8.64069
-8.71549
-8.78589
-8.85179
-8.91312
-8.96981
-9.02179
-9.06901
-9.1114
-9.14893
-9.18153
-9.20917
-9.23182
-9.24945
-6.48577
-6.61116
-6.73439
-6.8551
-6.97315
-7.08846
-7.20088
-7.31029
-7.41654
-7.51952
-7.61911
-7.71517
-7.80761
-7.89631
-7.98117
-8.06208
-8.13895
-8.2117
-8.28025
-8.34451
-8.40441
-8.45988
-8.51087
-8.55732
-8.59918
-8.63639
-8.66891
-8.69672
-8.71977
-8.73805
-6.08138
-6.2021
-6.32076
-6.43704
-6.55081
-6.66198
-6.77041
-6.87596
-6.97851
-7.07794
-7.17412
-7.26694
-7.3563
-7.44207
-7.52418
-7.60251
-7.67699
-7.74752
-7.81404
-7.87646
-7.93472
-7.98876
-8.03852
-8.08395
-8.125
-8.16162
-8.19377
-8.22143
-8.24456
-8.26315
-5.71351
-5.82968
-5.94391
-6.05587
-6.16547
-6.27258
-6.37708
-6.47884
-6.57773
-6.67363
-6.76642
-6.85599
-6.94224
-7.02506
-7.10436
-7.18005
-7.25204
-7.32026
-7.38464
-7.4451
-7.50158
-7.55402
-7.60237
-7.64659
-7.68662
-7.72242
-7.75397
-7.78123
-7.80417
-7.8228
-5.37858
-5.4904
-5.60034
-5.70814
-5.81369
-5.91688
-6.01757
-6.11563
-6.21095
-6.30339
-6.39285
-6.47921
-6.56238
-6.64226
-6.71875
-6.79178
-6.86126
-6.92712
-6.98929
-7.04771
-7.10231
-7.15305
-7.19988
-7.24274
-7.28161
-7.31644
-7.34719
-7.37386
-7.3964
-7.41483
-5.07325
-5.18089
-5.28674
-5.39055
-5.49222
-5.59163
-5.68865
-5.78315
-5.87501
-5.9641
-6.05031
-6.13355
-6.2137
-6.29068
-6.3644
-6.43479
-6.50177
-6.56526
-6.62521
-6.68156
-6.73424
-6.78322
-6.82845
-6.86987
-6.90747
-6.9412
-6.97104
-6.99696
-7.01894
-7.03699
-4.79441
-4.89806
-5
-5.10001
-5.19798
-5.2938
-5.38731
-5.4784
-5.56693
-5.65279
-5.73587
-5.81608
-5.8933
-5.96747
-6.03849
-6.10629
-6.1708
-6.23196
-6.2897
-6.34398
-6.39473
-6.44193
-6.48551
-6.52546
-6.56172
-6.59428
-6.62311
-6.64818
-6.66949
-6.68703
-4.53922
-4.63907
-4.73731
-4.83371
-4.92818
-5.02057
-5.11075
-5.19858
-5.28394
-5.36672
-5.4468
-5.52408
-5.59849
-5.66993
-5.73833
-5.80362
-5.86573
-5.9246
-5.98018
-6.03242
-6.08127
-6.12668
-6.16863
-6.20707
-6.24198
-6.27332
-6.30109
-6.32525
-6.34579
-6.36273
-4.30513
-4.40137
-4.4961
-4.5891
-4.68024
-4.7694
-4.85642
-4.94117
-5.02352
-5.10335
-5.18056
-5.25506
-5.32676
-5.39559
-5.46146
-5.52433
-5.58412
-5.64077
-5.69425
-5.7445
-5.79148
-5.83514
-5.87547
-5.91242
-5.94596
-5.97608
-6.00276
-6.02597
-6.04571
-6.06198
-4.08985
-4.18266
-4.27407
-4.36386
-4.45189
-4.53801
-4.62205
-4.70388
-4.78337
-4.8604
-4.93488
-5.00673
-5.07584
-5.14217
-5.20563
-5.26616
-5.32372
-5.37824
-5.42969
-5.47801
-5.52318
-5.56514
-5.60388
-5.63937
-5.67157
-5.70047
-5.72605
-5.7483
-5.7672
-5.78278
-3.89134
-3.98088
-4.06917
-4.15596
-4.24107
-4.32433
-4.40557
-4.48465
-4.56143
-4.63582
-4.70771
-4.77702
-4.84368
-4.90761
-4.96876
-5.02708
-5.08249
-5.13497
-5.18447
-5.23095
-5.27436
-5.31469
-5.35189
-5.38595
-5.41684
-5.44454
-5.46905
-5.49034
-5.5084
-5.52326
-3.70778
-3.79421
-3.87959
-3.96358
-4.04597
-4.12656
-4.20517
-4.28165
-4.35588
-4.42776
-4.49719
-4.5641
-4.62842
-4.69008
-4.74903
-4.80522
-4.8586
-4.90913
-4.95677
-5.00147
-5.04321
-5.08196
-5.11769
-5.15038
-5.18
-5.20654
-5.22999
-5.25034
-5.26758
-5.28172
-3.53754
-3.62102
-3.70371
-3.78512
-3.86499
-3.94309
-4.01923
-4.09327
-4.16509
-4.23459
-4.30169
-4.36631
-4.42841
-4.48792
-4.54478
-4.59895
-4.6504
-4.69907
-4.74493
-4.78794
-4.82809
-4.86533
-4.89965
-4.93102
-4.95943
-4.98485
-5.00729
-5.02673
-5.04315
-5.05659
-3.37916
-3.45985
-3.5401
-3.61916
-3.6967
-3.77248
-3.84632
-3.91806
-3.9876
-4.05485
-4.11974
-4.1822
-4.24219
-4.29964
-4.35453
-4.40679
-4.45639
-4.50329
-4.54747
-4.58889
-4.62751
-4.66332
-4.6963
-4.72642
-4.75366
-4.77802
-4.79948
-4.81804
-4.83369
-4.84644
-3.23127
-3.30935
-3.38749
-3.46444
-3.53985
-3.61349
-3.68517
-3.75474
-3.82212
-3.88724
-3.95003
-4.01045
-4.06843
-4.12395
-4.17695
-4.2274
-4.27526
-4.32049
-4.36307
-4.40297
-4.44016
-4.47461
-4.50631
-4.53524
-4.56138
-4.58473
-4.60526
-4.62298
-4.63788
-4.64998
-3.09261
-3.16837
-3.2448
-3.3199
-3.39337
-3.46504
-3.53469
-3.60221
-3.66755
-3.73065
-3.79145
-3.84992
-3.90601
-3.95969
-4.01091
-4.05964
-4.10584
-4.1495
-4.19057
-4.22903
-4.26485
-4.29803
-4.32852
-4.35633
-4.38142
-4.4038
-4.42346
-4.44038
-4.45457
-4.46604
-2.96202
-3.03613
-3.11139
-3.18488
-3.25659
-3.32641
-3.39414
-3.45971
-3.5231
-3.58426
-3.64317
-3.69978
-3.75406
-3.80598
-3.8555
-3.9026
-3.94723
-3.98938
-4.02901
-4.06611
-4.10064
-4.13259
-4.16194
-4.18867
-4.21277
-4.23424
-4.25305
-4.26921
-4.28272
-4.29358
-2.83752
-2.91148
-2.98645
-3.05855
-3.12862
-3.1967
-3.26259
-3.32629
-3.38781
-3.44712
-3.50421
-3.55905
-3.61161
-3.66186
-3.70977
-3.75531
-3.79845
-3.83917
-3.87745
-3.91325
-3.94655
-3.97735
-4.00561
-4.03133
-4.05449
-4.07508
-4.0931
-4.10854
-4.1214
-4.13168
-2.71405
-2.78986
-2.86612
-2.93726
-3.00594
-3.07248
-3.13672
-3.19873
-3.25857
-3.31623
-3.3717
-3.42497
-3.47601
-3.52479
-3.57128
-3.61546
-3.65731
-3.69679
-3.73388
-3.76857
-3.80082
-3.83063
-3.85797
-3.88282
-3.90519
-3.92505
-3.94241
-3.95725
-3.96957
-3.97939
-2.58779
-2.66736
-2.74701
-2.81819
-2.88596
-2.9513
-3.01422
-3.07486
-3.13333
-3.18964
-3.24379
-3.29577
-3.34555
-3.39312
-3.43845
-3.48151
-3.52229
-3.56076
-3.59689
-3.63067
-3.66207
-3.69108
-3.71769
-3.74188
-3.76364
-3.78295
-3.79982
-3.81424
-3.82621
-3.83573
-2.49142
-2.57939
-2.65985
-2.73013
-2.79624
-2.85947
-2.9202
-2.97865
-3.03491
-3.08902
-3.14098
-3.19079
-3.23842
-3.28387
-3.32712
-3.36814
-3.40692
-3.44345
-3.4777
-3.50966
-3.53932
-3.56665
-3.59166
-3.61432
-3.63464
-3.6526
-3.6682
-3.68145
-3.69233
-3.70086
-0.331439
-0.373045
-0.417903
-0.466234
-0.518543
-0.575327
-0.637119
-0.704544
-0.778338
-0.859358
-0.948603
-1.04724
-1.15665
-1.2784
-1.41438
-1.56672
-1.73795
-1.93093
-2.14898
-2.39582
-2.67566
-2.99312
-3.3532
-3.76108
-4.22217
-4.74201
-5.32166
-5.95458
-6.69405
-7.64659
-0.400184
-0.444168
-0.49067
-0.540846
-0.595194
-0.654128
-0.71818
-0.787992
-0.864311
-0.948005
-1.04008
-1.14173
-1.25433
-1.37949
-1.51909
-1.6753
-1.85064
-2.04801
-2.27073
-2.52255
-2.80766
-3.13068
-3.49657
-3.91046
-4.37766
-4.90356
-5.489
-6.12695
-6.86952
-7.82118
-0.469758
-0.516162
-0.564332
-0.616387
-0.672813
-0.733935
-0.800287
-0.872529
-0.951418
-1.03783
-1.1328
-1.23751
-1.35336
-1.48199
-1.62527
-1.7854
-1.96493
-2.16677
-2.39424
-2.6511
-2.94155
-3.27019
-3.64195
-4.06189
-4.5352
-5.06707
-5.65805
-6.30061
-7.04556
-7.99558
-0.540103
-0.588966
-0.63883
-0.692795
-0.751332
-0.814679
-0.883368
-0.958077
-1.03958
-1.12875
-1.22665
-1.33447
-1.45362
-1.58576
-1.73278
-1.89689
-2.08066
-2.28701
-2.51929
-2.78125
-3.07709
-3.4114
-3.78906
-4.21506
-4.69447
-5.23227
-5.82874
-6.47594
-7.22394
-8.17433
-0.611173
-0.662529
-0.714109
-0.770015
-0.830699
-0.896304
-0.967366
-1.04458
-1.12873
-1.22071
-1.32158
-1.43255
-1.55505
-1.69074
-1.84155
-2.0097
-2.19776
-2.40868
-2.64581
-2.91292
-3.21421
-3.55423
-3.93782
-4.36991
-4.85542
-5.39917
-6.00114
-6.65308
-7.40454
-8.35642
-0.682918
-0.736798
-0.790115
-0.847991
-0.910854
-0.978752
-1.05222
-1.13198
-1.21881
-1.31364
-1.41751
-1.53168
-1.65758
-1.79687
-1.95151
-2.12374
-2.31615
-2.53169
-2.77373
-3.04604
-3.35281
-3.69858
-4.08815
-4.52635
-5.018
-5.56771
-6.17522
-6.83195
-7.58705
-8.54094
-0.755288
-0.811716
-0.866788
-0.926664
-0.991738
-1.06196
-1.13787
-1.2202
-1.30976
-1.40746
-1.51439
-1.63179
-1.76112
-1.90407
-2.06259
-2.23894
-2.43574
-2.65595
-2.90294
-3.1805
-3.4928
-3.84437
-4.23994
-4.68428
-5.18209
-5.73779
-6.35088
-7.01246
-7.77131
-8.7275
-0.828235
-0.887229
-0.944072
-1.00598
-1.07329
-1.14587
-1.22425
-1.30918
-1.40149
-1.50211
-1.61213
-1.7328
-1.8656
-2.01224
-2.17468
-2.35521
-2.55644
-2.78136
-3.03335
-3.3162
-3.63407
-3.99147
-4.39308
-4.84359
-5.34758
-5.90929
-6.52798
-7.19446
-7.95715
-8.91583
-0.90171
-0.963284
-1.02191
-1.08587
-1.15545
-1.23041
-1.31129
-1.39886
-1.49396
-1.59753
-1.71066
-1.83464
-1.97094
-2.1213
-2.2877
-2.47244
-2.67815
-2.90782
-3.16485
-3.45303
-3.77651
-4.13976
-4.54745
-5.00415
-5.51433
-6.08208
-6.7064
-7.3778
-8.1444
-9.10565
-0.975667
-1.03983
-1.10025
-1.16629
-1.23817
-1.31554
-1.39894
-1.48917
-1.58708
-1.69362
-1.8099
-1.93722
-2.07707
-2.23118
-2.40158
-2.59056
-2.80077
-3.03523
-3.29734
-3.59088
-3.92
-4.28914
-4.70292
-5.16584
-5.68223
-6.25601
-6.88598
-7.56231
-8.33283
-9.29673
-1.05006
-1.11681
-1.17904
-1.24718
-1.32138
-1.40118
-1.48713
-1.58005
-1.6808
-1.79033
-1.90979
-2.04046
-2.18388
-2.34179
-2.5162
-2.70946
-2.92421
-3.1635
-3.43071
-3.72964
-4.06442
-4.43948
-4.85937
-5.32851
-5.85112
-6.43094
-7.06654
-7.74781
-8.52226
-9.48883
-1.12485
-1.19418
-1.25822
-1.32849
-1.40503
-1.48728
-1.5758
-1.67142
-1.77503
-1.88758
-2.01023
-2.1443
-2.2913
-2.45302
-2.63149
-2.82905
-3.04837
-3.2925
-3.56484
-3.86919
-4.20966
-4.59065
-5.01666
-5.49203
-6.02085
-6.60671
-7.24793
-7.93412
-8.71248
-9.68172
-1.2
-1.2719
-1.33775
-1.41016
-1.48906
-1.57378
-1.66488
-1.76323
-1.86971
-1.9853
-2.11117
-2.24863
-2.39925
-2.5648
-2.74734
-2.94922
-3.17313
-3.42213
-3.69963
-4.00941
-4.35558
-4.74251
-5.17464
-5.65624
-6.19128
-6.78315
-7.42997
-8.12104
-8.90329
-9.87521
-1.27547
-1.34993
-1.41758
-1.49215
-1.57343
-1.66062
-1.75432
-1.8554
-1.96477
-2.08341
-2.2125
-2.35339
-2.50763
-2.67703
-2.86365
-3.06987
-3.2984
-3.55228
-3.83494
-4.15017
-4.50206
-4.89493
-5.33319
-5.82101
-6.36223
-6.96009
-7.61247
-8.30839
-9.09449
-10.0691
-1.35125
-1.42823
-1.49767
-1.57441
-1.65807
-1.74775
-1.84405
-1.94788
-2.06013
-2.18183
-2.31416
-2.45847
-2.61635
-2.78961
-2.98033
-3.1909
-3.42405
-3.68282
-3.97067
-4.29135
-4.64895
-5.04777
-5.49214
-5.98616
-6.53354
-7.13735
-7.79525
-8.49597
-9.28588
-10.2631
-1.4273
-1.50676
-1.57799
-1.6569
-1.74295
-1.83512
-1.93402
-2.04058
-2.15573
-2.28049
-2.41605
-2.56379
-2.72531
-2.90243
-3.09726
-3.31219
-3.54996
-3.81364
-4.10666
-4.4328
-4.79612
-5.20087
-5.65135
-6.15154
-6.70505
-7.31477
-7.97813
-8.68359
-9.47726
-10.4571
-1.50363
-1.58552
-1.6585
-1.73958
-1.82801
-1.92266
-2.02415
-2.13345
-2.25148
-2.37929
-2.51808
-2.66925
-2.83441
-3.0154
-3.21433
-3.43362
-3.67602
-3.94461
-4.24281
-4.5744
-4.94342
-5.3541
-5.81065
-6.31698
-6.87658
-7.49215
-8.16092
-8.87106
-9.66843
-10.6509
-1.58023
-1.66449
-1.73918
-1.82242
-1.91321
-2.01032
-2.11439
-2.2264
-2.3473
-2.47815
-2.62016
-2.77476
-2.94354
-3.12839
-3.33143
-3.55508
-3.8021
-4.07559
-4.37896
-4.716
-5.09071
-5.50728
-5.96988
-6.48232
-7.04796
-7.66932
-8.34342
-9.05817
-9.85918
-10.8442
-1.65712
-1.74365
-1.81999
-1.90536
-1.9985
-2.09803
-2.20464
-2.31934
-2.4431
-2.57697
-2.72219
-2.88019
-3.0526
-3.2413
-3.44843
-3.67643
-3.92807
-4.20644
-4.51499
-4.85744
-5.23783
-5.66027
-6.12888
-6.64739
-7.219
-7.84609
-8.52545
-9.24472
-10.0493
-11.0369
-1.73431
-1.82299
-1.90092
-1.98837
-2.0838
-2.18572
-2.29484
-2.4122
-2.53877
-2.67564
-2.82404
-2.98543
-3.16145
-3.35399
-3.5652
-3.79754
-4.05379
-4.33704