/*--------------------------------*- C++ -*----------------------------------*\
  =========                 |
  \\      /  F ield         | OpenFOAM: The Open Source CFD Toolbox
   \\    /   O peration     | Website:  https://openfoam.org
    \\  /    A nd           | Version:  6.0
     \\/     M anipulation  |
\*---------------------------------------------------------------------------*/
FoamFile
{
    version     2.0;
    format      ascii;
    class       volScalarField;
    location    "10";
    object      p;
}
// * * * * * * * * * * * * * * * * * * * * * * * * * * * * * * * * * * * * * //

dimensions      [0 2 -2 0 0 0 0];

internalField   nonuniform List<scalar> 
19200
(
-0.411454
-0.406448
-0.402689
-0.399544
-0.396644
-0.393971
-0.391481
-0.389125
-0.386865
-0.384676
-0.382538
-0.380438
-0.378366
-0.376316
-0.374284
-0.372269
-0.37027
-0.368287
-0.366322
-0.364376
-0.362451
-0.360547
-0.358667
-0.356812
-0.354983
-0.353185
-0.351414
-0.349617
-0.347777
-0.34649
-0.415087
-0.409971
-0.406192
-0.403028
-0.400092
-0.397367
-0.394813
-0.39238
-0.390035
-0.387753
-0.385516
-0.383312
-0.381132
-0.378973
-0.376831
-0.374705
-0.372597
-0.370506
-0.368434
-0.366384
-0.364357
-0.362356
-0.360382
-0.358437
-0.356523
-0.354645
-0.3528
-0.350924
-0.348995
-0.347708
-0.419299
-0.41398
-0.410114
-0.406892
-0.403893
-0.401095
-0.398457
-0.395931
-0.393485
-0.391094
-0.388744
-0.386423
-0.384123
-0.381842
-0.379578
-0.37733
-0.3751
-0.372889
-0.3707
-0.368536
-0.366398
-0.36429
-0.362214
-0.360171
-0.358165
-0.356201
-0.354277
-0.352317
-0.350287
-0.349015
-0.423876
-0.41841
-0.414451
-0.41115
-0.408065
-0.405172
-0.402432
-0.399795
-0.397231
-0.394716
-0.392237
-0.389784
-0.38735
-0.384934
-0.382534
-0.380151
-0.377787
-0.375445
-0.373128
-0.370838
-0.36858
-0.366355
-0.364167
-0.362019
-0.359913
-0.357857
-0.355848
-0.353796
-0.351658
-0.350413
-0.428869
-0.423267
-0.419205
-0.415804
-0.412613
-0.409607
-0.406745
-0.40398
-0.401281
-0.398626
-0.396003
-0.393403
-0.390821
-0.388255
-0.385706
-0.383175
-0.380665
-0.378179
-0.375722
-0.373296
-0.370906
-0.368555
-0.366246
-0.363984
-0.36177
-0.359615
-0.357516
-0.355366
-0.353108
-0.351904
-0.434313
-0.428565
-0.424381
-0.420864
-0.417547
-0.414408
-0.411406
-0.408495
-0.405644
-0.402833
-0.40005
-0.397288
-0.394543
-0.391813
-0.389101
-0.386409
-0.38374
-0.381099
-0.378489
-0.375915
-0.373382
-0.370894
-0.368454
-0.366067
-0.363737
-0.361476
-0.359281
-0.357025
-0.354637
-0.353489
-0.440225
-0.434313
-0.429991
-0.426337
-0.422876
-0.419585
-0.416425
-0.41335
-0.41033
-0.407346
-0.404387
-0.401448
-0.398524
-0.395617
-0.392728
-0.389861
-0.387019
-0.384209
-0.381434
-0.3787
-0.376012
-0.373375
-0.370794
-0.368272
-0.365817
-0.363441
-0.361143
-0.358773
-0.356245
-0.355166
-0.44662
-0.440523
-0.436043
-0.432234
-0.428609
-0.425148
-0.421811
-0.418553
-0.415347
-0.412173
-0.409022
-0.405889
-0.402772
-0.399672
-0.396592
-0.393535
-0.390508
-0.387515
-0.384562
-0.381655
-0.378799
-0.376002
-0.373267
-0.370601
-0.368009
-0.365511
-0.363102
-0.36061
-0.357929
-0.356935
-0.453513
-0.447206
-0.442548
-0.438564
-0.434756
-0.431104
-0.427572
-0.424114
-0.420702
-0.417322
-0.413963
-0.410621
-0.407295
-0.403987
-0.4007
-0.39744
-0.394212
-0.391023
-0.387878
-0.384784
-0.381748
-0.378778
-0.375878
-0.373055
-0.370316
-0.367685
-0.365156
-0.362533
-0.359687
-0.358792
-0.460915
-0.454373
-0.449515
-0.445337
-0.441325
-0.437464
-0.433716
-0.430039
-0.426405
-0.422801
-0.419216
-0.415649
-0.412098
-0.408568
-0.40506
-0.401582
-0.398139
-0.394739
-0.391388
-0.388093
-0.384864
-0.381706
-0.378628
-0.375636
-0.372739
-0.369963
-0.367306
-0.36454
-0.361518
-0.360736
-0.468837
-0.462035
-0.456956
-0.452562
-0.448326
-0.444234
-0.440252
-0.436337
-0.432463
-0.428617
-0.424791
-0.420982
-0.417191
-0.413422
-0.409679
-0.405968
-0.402295
-0.398669
-0.395097
-0.391588
-0.38815
-0.384792
-0.381522
-0.378346
-0.375277
-0.372345
-0.36955
-0.366631
-0.363417
-0.362764
-0.477291
-0.470201
-0.464879
-0.460248
-0.455766
-0.451424
-0.447187
-0.443015
-0.438883
-0.434778
-0.430693
-0.426626
-0.42258
-0.418557
-0.414563
-0.410604
-0.406688
-0.402822
-0.399014
-0.395275
-0.391613
-0.388039
-0.384562
-0.381189
-0.377935
-0.374833
-0.371887
-0.368801
-0.365382
-0.36487
-0.486287
-0.478882
-0.473292
-0.468403
-0.463654
-0.45904
-0.454529
-0.450081
-0.445672
-0.44129
-0.43693
-0.432591
-0.428273
-0.423982
-0.419722
-0.415501
-0.411325
-0.407204
-0.403146
-0.399162
-0.395261
-0.391455
-0.387754
-0.384169
-0.380713
-0.377428
-0.374316
-0.371049
-0.367407
-0.367051
-0.495835
-0.488087
-0.482205
-0.477035
-0.471997
-0.46709
-0.462285
-0.457541
-0.452837
-0.448162
-0.443511
-0.438882
-0.434278
-0.429704
-0.425164
-0.420665
-0.416216
-0.411825
-0.407502
-0.403257
-0.399101
-0.395046
-0.391106
-0.38729
-0.383616
-0.38013
-0.376838
-0.373373
-0.36949
-0.369301
-0.505945
-0.497823
-0.491626
-0.486151
-0.480802
-0.475581
-0.470461
-0.465403
-0.460386
-0.455401
-0.450442
-0.445509
-0.440604
-0.435732
-0.430898
-0.426108
-0.421372
-0.416697
-0.412093
-0.407571
-0.403143
-0.398822
-0.394623
-0.390559
-0.386647
-0.382943
-0.379452
-0.375768
-0.371623
-0.371612
-0.516624
-0.508099
-0.501561
-0.495759
-0.490075
-0.484518
-0.479063
-0.473672
-0.468325
-0.463013
-0.457731
-0.452478
-0.447259
-0.442076
-0.436934
-0.431841
-0.426803
-0.42183
-0.41693
-0.412115
-0.407398
-0.402794
-0.398318
-0.393983
-0.389814
-0.385869
-0.382158
-0.378234
-0.3738
-0.373972
-0.527882
-0.518921
-0.512016
-0.505862
-0.499822
-0.493908
-0.488098
-0.482355
-0.476661
-0.471005
-0.465385
-0.4598
-0.454252
-0.448745
-0.443284
-0.437874
-0.432522
-0.427237
-0.422027
-0.416904
-0.411882
-0.406974
-0.4022
-0.397574
-0.393122
-0.388913
-0.384958
-0.380767
-0.376014
-0.376371
-0.539724
-0.530296
-0.522996
-0.516468
-0.510048
-0.503755
-0.49757
-0.491457
-0.485398
-0.479384
-0.473412
-0.467481
-0.461593
-0.455751
-0.449958
-0.444221
-0.438543
-0.432933
-0.4274
-0.421954
-0.416608
-0.411378
-0.406283
-0.40134
-0.39658
-0.392078
-0.387851
-0.383361
-0.378256
-0.378797
-0.552155
-0.542225
-0.534505
-0.527577
-0.520754
-0.514062
-0.507483
-0.500983
-0.494543
-0.488157
-0.481819
-0.475531
-0.469291
-0.463103
-0.45697
-0.450894
-0.44488
-0.438935
-0.433065
-0.427281
-0.421594
-0.416022
-0.410583
-0.405296
-0.400197
-0.395368
-0.390832
-0.386007
-0.38051
-0.381225
-0.565178
-0.554713
-0.546544
-0.539193
-0.531945
-0.524831
-0.51784
-0.510935
-0.504101
-0.497328
-0.490613
-0.483956
-0.477356
-0.470813
-0.46433
-0.457908
-0.45155
-0.445259
-0.439042
-0.432906
-0.426862
-0.420927
-0.415118
-0.409458
-0.403983
-0.398788
-0.3939
-0.38869
-0.38275
-0.383618
-0.578795
-0.56776
-0.559114
-0.551315
-0.54362
-0.536065
-0.528642
-0.521318
-0.514073
-0.506902
-0.4998
-0.492764
-0.485795
-0.478891
-0.472052
-0.465278
-0.458569
-0.451926
-0.445352
-0.438852
-0.432436
-0.426117
-0.419913
-0.413846
-0.407955
-0.402345
-0.39705
-0.391394
-0.384943
-0.385926
-0.593003
-0.581363
-0.572213
-0.563942
-0.555777
-0.547762
-0.539891
-0.53213
-0.524464
-0.516883
-0.509384
-0.501963
-0.494619
-0.487348
-0.480149
-0.473019
-0.465955
-0.458955
-0.452019
-0.445147
-0.438345
-0.431623
-0.424997
-0.418486
-0.412131
-0.406047
-0.400276
-0.394093
-0.38704
-0.388075
-0.6078
-0.595518
-0.585836
-0.577069
-0.568412
-0.559918
-0.551583
-0.543374
-0.535273
-0.527273
-0.519369
-0.511557
-0.503833
-0.496194
-0.488634
-0.481147
-0.473729
-0.466372
-0.459071
-0.451823
-0.444626
-0.437485
-0.43041
-0.423417
-0.416544
-0.409914
-0.403577
-0.396758
-0.388976
-0.389963
-0.623178
-0.610218
-0.599975
-0.590689
-0.581521
-0.57253
-0.563716
-0.555045
-0.5465
-0.538073
-0.529758
-0.521551
-0.513446
-0.505437
-0.497517
-0.489678
-0.481909
-0.4742
-0.46654
-0.458917
-0.451323
-0.443754
-0.436209
-0.428696
-0.421246
-0.413984
-0.406964
-0.399362
-0.390668
-0.391442
-0.639133
-0.625453
-0.614619
-0.604792
-0.595092
-0.585589
-0.576282
-0.567139
-0.558141
-0.549281
-0.540551
-0.531947
-0.523461
-0.515085
-0.506811
-0.498627
-0.490518
-0.482469
-0.474461
-0.466477
-0.458495
-0.450499
-0.442475
-0.43441
-0.426323
-0.41833
-0.410481
-0.401886
-0.392001
-0.39229
-0.655654
-0.641208
-0.629753
-0.619363
-0.609114
-0.599084
-0.589274
-0.579649
-0.570192
-0.560894
-0.551747
-0.542745
-0.53388
-0.525144
-0.516524
-0.508007
-0.499575
-0.491206
-0.482876
-0.474556
-0.466214
-0.457815
-0.449323
-0.440698
-0.431928
-0.423101
-0.414242
-0.404365
-0.392855
-0.392206
-0.672737
-0.657462
-0.645356
-0.634383
-0.623571
-0.613002
-0.602679
-0.592566
-0.582644
-0.572904
-0.563339
-0.553941
-0.544702
-0.535613
-0.526661
-0.517829
-0.509096
-0.500439
-0.491825
-0.483217
-0.474568
-0.465825
-0.456922
-0.447781
-0.438336
-0.428623
-0.418605
-0.407136
-0.393396
-0.391041
-0.690408
-0.674198
-0.661399
-0.649827
-0.638441
-0.627325
-0.616483
-0.605876
-0.595485
-0.585302
-0.575318
-0.565527
-0.555921
-0.54649
-0.537219
-0.528094
-0.519092
-0.510187
-0.501344
-0.492518
-0.483651
-0.47467
-0.465479
-0.455949
-0.44594
-0.435398
-0.424186
-0.410833
-0.393805
-0.387927
-0.708721
-0.691381
-0.677836
-0.665659
-0.653697
-0.642031
-0.630666
-0.619563
-0.608702
-0.598074
-0.587674
-0.577494
-0.567526
-0.557763
-0.548191
-0.538797
-0.529561
-0.520457
-0.511452
-0.502502
-0.493544
-0.484491
-0.475219
-0.465535
-0.455185
-0.443938
-0.431359
-0.415063
-0.391466
-0.376973
-0.727204
-0.708818
-0.694598
-0.681843
-0.669315
-0.657102
-0.645212
-0.633609
-0.622275
-0.611203
-0.600386
-0.589818
-0.579496
-0.56941
-0.559552
-0.549911
-0.540474
-0.531223
-0.522135
-0.513178
-0.504307
-0.495454
-0.486511
-0.47729
-0.467495
-0.456738
-0.444094
-0.425863
-0.395695
-0.369684
-1.19629
-1.19368
-1.18916
-1.18317
-1.17575
-1.16693
-1.1568
-1.14544
-1.13292
-1.11932
-1.10474
-1.08926
-1.07295
-1.05592
-1.03823
-1.01998
-1.00123
-0.98208
-0.96259
-0.942835
-0.922885
-0.902804
-0.882654
-0.862494
-0.842376
-0.822349
-0.802456
-0.782706
-0.763085
-0.744023
-1.16187
-1.15929
-1.15496
-1.14913
-1.14187
-1.13325
-1.12336
-1.11228
-1.1001
-1.08689
-1.07273
-1.05772
-1.04193
-1.02545
-1.00836
-0.990728
-0.972641
-0.954171
-0.93539
-0.916368
-0.89717
-0.877861
-0.858501
-0.839147
-0.819853
-0.800671
-0.781654
-0.762847
-0.744302
-0.726203
-1.1335
-1.13095
-1.12676
-1.1211
-1.11403
-1.10564
-1.09601
-1.08523
-1.07337
-1.06052
-1.04676
-1.03217
-1.01684
-1.00084
-0.984247
-0.967148
-0.949614
-0.931717
-0.913528
-0.895115
-0.876542
-0.857871
-0.839162
-0.820471
-0.801852
-0.783357
-0.765037
-0.746944
-0.729137
-0.711691
-1.10677
-1.10433
-1.10032
-1.09488
-1.08806
-1.07995
-1.07063
-1.06018
-1.04868
-1.03622
-1.02286
-1.0087
-0.993821
-0.978292
-0.962194
-0.945604
-0.928596
-0.91124
-0.893606
-0.875761
-0.857768
-0.839688
-0.821579
-0.803497
-0.785493
-0.76762
-0.749925
-0.732456
-0.715266
-0.698402
-1.07964
-1.07741
-1.07367
-1.06852
-1.06202
-1.05425
-1.0453
-1.03523
-1.02414
-1.0121
-0.99919
-0.985493
-0.971087
-0.956052
-0.940462
-0.924393
-0.907918
-0.891108
-0.87403
-0.856751
-0.839332
-0.821834
-0.804315
-0.786827
-0.769424
-0.752153
-0.735062
-0.718195
-0.701597
-0.685306
-1.0524
-1.05047
-1.04706
-1.04227
-1.03615
-1.02879
-1.02025
-1.01063
-0.999987
-0.988411
-0.975979
-0.962772
-0.948867
-0.934343
-0.919274
-0.903734
-0.887797
-0.871531
-0.855004
-0.838282
-0.821425
-0.804494
-0.787545
-0.770631
-0.753803
-0.737109
-0.720594
-0.7043
-0.688268
-0.672532
-1.02515
-1.0236
-1.02059
-1.01622
-1.01055
-1.00364
-0.995575
-0.98643
-0.976281
-0.965206
-0.953284
-0.940593
-0.927211
-0.913215
-0.898678
-0.883675
-0.868278
-0.852555
-0.836573
-0.820397
-0.804089
-0.787708
-0.771308
-0.754945
-0.738667
-0.722522
-0.706554
-0.690803
-0.675309
-0.660104
-0.997911
-0.996796
-0.994249
-0.990355
-0.985171
-0.978767
-0.971218
-0.962596
-0.952978
-0.942438
-0.931055
-0.918906
-0.906068
-0.892616
-0.878625
-0.864167
-0.849313
-0.834133
-0.818692
-0.803056
-0.787284
-0.771436
-0.755568
-0.739733
-0.723981
-0.708358
-0.692909
-0.677673
-0.662688
-0.647989
-0.970733
-0.970101
-0.968059
-0.964684
-0.960034
-0.954174
-0.947177
-0.939115
-0.930058
-0.920083
-0.909266
-0.897683
-0.885409
-0.872519
-0.859086
-0.845182
-0.830878
-0.816241
-0.801339
-0.786234
-0.770989
-0.755661
-0.740307
-0.72498
-0.70973
-0.694603
-0.679646
-0.664897
-0.650394
-0.636173
-0.94369
-0.943575
-0.94207
-0.939247
-0.935161
-0.929877
-0.923463
-0.915988
-0.907521
-0.898137
-0.887909
-0.876912
-0.865221
-0.852908
-0.840045
-0.826704
-0.812955
-0.798865
-0.784499
-0.769922
-0.755194
-0.740373
-0.725517
-0.710679
-0.695908
-0.681254
-0.666761
-0.65247
-0.63842
-0.624647
-0.916857
-0.917279
-0.916333
-0.914084
-0.910586
-0.905899
-0.90009
-0.893224
-0.885368
-0.876594
-0.866975
-0.856583
-0.84549
-0.833768
-0.821488
-0.808719
-0.795531
-0.78199
-0.768161
-0.754107
-0.739889
-0.725566
-0.711193
-0.696825
-0.682513
-0.668306
-0.654251
-0.64039
-0.626763
-0.613409
-0.890312
-0.89128
-0.890902
-0.889239
-0.886341
-0.882265
-0.877076
-0.870834
-0.863604
-0.855457
-0.846461
-0.836688
-0.826206
-0.815087
-0.803399
-0.791211
-0.778591
-0.765603
-0.752312
-0.73878
-0.725067
-0.711232
-0.69733
-0.683416
-0.669542
-0.655759
-0.642114
-0.628654
-0.615419
-0.602453
-0.864125
-0.865638
-0.86583
-0.864756
-0.862462
-0.859004
-0.85444
-0.848831
-0.842237
-0.834726
-0.826364
-0.81722
-0.807361
-0.796854
-0.785768
-0.774169
-0.762123
-0.749693
-0.736942
-0.723932
-0.710721
-0.697366
-0.683925
-0.67045
-0.656996
-0.643613
-0.630352
-0.617262
-0.604388
-0.591776
-0.838365
-0.840414
-0.841168
-0.840677
-0.838983
-0.836141
-0.832205
-0.82723
-0.821275
-0.814405
-0.806683
-0.798175
-0.788945
-0.779059
-0.768583
-0.75758
-0.746114
-0.734248
-0.722041
-0.709554
-0.696843
-0.683965
-0.670975
-0.657927
-0.644875
-0.63187
-0.618966
-0.606215
-0.593665
-0.581372
-0.813092
-0.815661
-0.816962
-0.817041
-0.815938
-0.813704
-0.810388
-0.806044
-0.800727
-0.794497
-0.787417
-0.779548
-0.770952
-0.761692
-0.751831
-0.741431
-0.730553
-0.719255
-0.707598
-0.695637
-0.683428
-0.671025
-0.658481
-0.645849
-0.633182
-0.620534
-0.607959
-0.595513
-0.583252
-0.571236
-0.788361
-0.791426
-0.793254
-0.793885
-0.793357
-0.791717
-0.789011
-0.785288
-0.780601
-0.775008
-0.768566
-0.761336
-0.753375
-0.744744
-0.735503
-0.725711
-0.715426
-0.704705
-0.693603
-0.682173
-0.67047
-0.658542
-0.646441
-0.634218
-0.621924
-0.609611
-0.597337
-0.585162
-0.573147
-0.561363
-0.764215
-0.767751
-0.770081
-0.771241
-0.771267
-0.770202
-0.768089
-0.764973
-0.760905
-0.755939
-0.750131
-0.743534
-0.736207
-0.728205
-0.719587
-0.710407
-0.700721
-0.690583
-0.680044
-0.669154
-0.657962
-0.646515
-0.634859
-0.62304
-0.611108
-0.599113
-0.587112
-0.575168
-0.563353
-0.551749
-0.740693
-0.744669
-0.747472
-0.749135
-0.74969
-0.749178
-0.747637
-0.745111
-0.741647
-0.737295
-0.732109
-0.726139
-0.71944
-0.712066
-0.704071
-0.695507
-0.686426
-0.676877
-0.66691
-0.65657
-0.6459
-0.634941
-0.623736
-0.612323
-0.600747
-0.589054
-0.577298
-0.565546
-0.553876
-0.542387
-0.717824
-0.722208
-0.725453
-0.727589
-0.728646
-0.72866
-0.727669
-0.725711
-0.722831
-0.719078
-0.7145
-0.709146
-0.703069
-0.696317
-0.688943
-0.680996
-0.672524
-0.663574
-0.654189
-0.64441
-0.634275
-0.623819
-0.613075
-0.602076
-0.590856
-0.579454
-0.567919
-0.556314
-0.544727
-0.533273
-0.695629
-0.700388
-0.704044
-0.706621
-0.70815
-0.708662
-0.708193
-0.706779
-0.704462
-0.701288
-0.697302
-0.692551
-0.687083
-0.680948
-0.674191
-0.666861
-0.659002
-0.650657
-0.641865
-0.632662
-0.623079
-0.613144
-0.602881
-0.592311
-0.581456
-0.570342
-0.559005
-0.547502
-0.535924
-0.524405
-0.674124
-0.679225
-0.683257
-0.686244
-0.688212
-0.689193
-0.689218
-0.688321
-0.686543
-0.683925
-0.680511
-0.676347
-0.671477
-0.665947
-0.659802
-0.653087
-0.645843
-0.63811
-0.629922
-0.621311
-0.612301
-0.602911
-0.593155
-0.583039
-0.57257
-0.561752
-0.5506
-0.539154
-0.527501
-0.515786
-0.653319
-0.658727
-0.663102
-0.666466
-0.668842
-0.67026
-0.670749
-0.670341
-0.669074
-0.666989
-0.664126
-0.660528
-0.656239
-0.651302
-0.645761
-0.639657
-0.633029
-0.625914
-0.618342
-0.61034
-0.601927
-0.593112
-0.583897
-0.574273
-0.564223
-0.553725
-0.542759
-0.531331
-0.519507
-0.507426
-0.633216
-0.638899
-0.643584
-0.647291
-0.650043
-0.651866
-0.652788
-0.652839
-0.652056
-0.650476
-0.64814
-0.645088
-0.641362
-0.637003
-0.632054
-0.626554
-0.62054
-0.614047
-0.607103
-0.599729
-0.591939
-0.583734
-0.575104
-0.566022
-0.556445
-0.546313
-0.535557
-0.524121
-0.512025
-0.499352
-0.613814
-0.61974
-0.624704
-0.628722
-0.631817
-0.634014
-0.635337
-0.635817
-0.635488
-0.634387
-0.632551
-0.630021
-0.626837
-0.623039
-0.618668
-0.613763
-0.608359
-0.60249
-0.596182
-0.589455
-0.582315
-0.574761
-0.566769
-0.558294
-0.549266
-0.539578
-0.529091
-0.517652
-0.505188
-0.491622
-0.595108
-0.601248
-0.606459
-0.610756
-0.614163
-0.616701
-0.618394
-0.619272
-0.619367
-0.618715
-0.617353
-0.615319
-0.612654
-0.609397
-0.605588
-0.601265
-0.596465
-0.59122
-0.585556
-0.57949
-0.573031
-0.566169
-0.558875
-0.551089
-0.542711
-0.533586
-0.523484
-0.512105
-0.499216
-0.484382
-0.577089
-0.583412
-0.588838
-0.593383
-0.597068
-0.599915
-0.601945
-0.603187
-0.603674
-0.60344
-0.60252
-0.600954
-0.59878
-0.596039
-0.592771
-0.589013
-0.584804
-0.580176
-0.575156
-0.569765
-0.564009
-0.55788
-0.551347
-0.544341
-0.536742
-0.528347
-0.51882
-0.507663
-0.494415
-0.47794
-0.559748
-0.566225
-0.571837
-0.576598
-0.580529
-0.583651
-0.585983
-0.587556
-0.588399
-0.588548
-0.588037
-0.586904
-0.585189
-0.582932
-0.580174
-0.576956
-0.573315
-0.569286
-0.5649
-0.56018
-0.555138
-0.54977
-0.544051
-0.537916
-0.531235
-0.523777
-0.515103
-0.504468
-0.491129
-0.472688
-0.543076
-0.549701
-0.555492
-0.560461
-0.564629
-0.568014
-0.570637
-0.572527
-0.573714
-0.574231
-0.574114
-0.573402
-0.572133
-0.570349
-0.568092
-0.565404
-0.562325
-0.558894
-0.555145
-0.551106
-0.546797
-0.542225
-0.537376
-0.532204
-0.526598
-0.520336
-0.512917
-0.503342
-0.490425
-0.469021
-0.527041
-0.533833
-0.539821
-0.545017
-0.549441
-0.553111
-0.556049
-0.558283
-0.559844
-0.560766
-0.561083
-0.560836
-0.560065
-0.558812
-0.557123
-0.555039
-0.552606
-0.549865
-0.546855
-0.543611
-0.540161
-0.536526
-0.532712
-0.528705
-0.524448
-0.519804
-0.514366
-0.507056
-0.49615
-0.470354
-0.511553
-0.518292
-0.524261
-0.529471
-0.533941
-0.537692
-0.540744
-0.543126
-0.544869
-0.546008
-0.54658
-0.546626
-0.546189
-0.545315
-0.544051
-0.542447
-0.540552
-0.538415
-0.536086
-0.53361
-0.531034
-0.528397
-0.525741
-0.523099
-0.52051
-0.51803
-0.515567
-0.512517
-0.508907
-0.489596
-0.413107
-0.460959
-0.507534
-0.553443
-0.598502
-0.642543
-0.685451
-0.727116
-0.767435
-0.80631
-0.843652
-0.879377
-0.913411
-0.945683
-0.976133
-1.00471
-1.03135
-1.05604
-1.07873
-1.09941
-1.11805
-1.13465
-1.14921
-1.16174
-1.17225
-1.18075
-1.18729
-1.19186
-1.19449
-1.19553
-0.405351
-0.452046
-0.497677
-0.542488
-0.586361
-0.629181
-0.670854
-0.711284
-0.750376
-0.788042
-0.824196
-0.85876
-0.891662
-0.922836
-0.952225
-0.979776
-1.00545
-1.0292
-1.05101
-1.07085
-1.08872
-1.1046
-1.1185
-1.13043
-1.1404
-1.14845
-1.1546
-1.1589
-1.16138
-1.16223
-0.394521
-0.440208
-0.484985
-0.528915
-0.571896
-0.613827
-0.654618
-0.694179
-0.73242
-0.769254
-0.8046
-0.838382
-0.870531
-0.900983
-0.929681
-0.956577
-0.981628
-1.0048
-1.02606
-1.0454
-1.06281
-1.07827
-1.09179
-1.10339
-1.11308
-1.12089
-1.12686
-1.13102
-1.13342
-1.13417
-0.380299
-0.425071
-0.469026
-0.512159
-0.554365
-0.595544
-0.635606
-0.674463
-0.712025
-0.748209
-0.782935
-0.816128
-0.847721
-0.87765
-0.905861
-0.932304
-0.956939
-0.979731
-1.00065
-1.01969
-1.03682
-1.05206
-1.06539
-1.07683
-1.08641
-1.09414
-1.10007
-1.10422
-1.10665
-1.10742
-0.363134
-0.407004
-0.450131
-0.492473
-0.533923
-0.574381
-0.613755
-0.651958
-0.688902
-0.724504
-0.758686
-0.791374
-0.8225
-0.852003
-0.879827
-0.905924
-0.930252
-0.952777
-0.973473
-0.992321
-1.00931
-1.02443
-1.03769
-1.0491
-1.05867
-1.06644
-1.07243
-1.07669
-1.07923
-1.08015
-0.343764
-0.386739
-0.429033
-0.470586
-0.511289
-0.551043
-0.589755
-0.627338
-0.663706
-0.698776
-0.73247
-0.764715
-0.795444
-0.824595
-0.852112
-0.877947
-0.902058
-0.92441
-0.944975
-0.963733
-0.980672
-0.995785
-1.00907
-1.02055
-1.03023
-1.03813
-1.04429
-1.04873
-1.0515
-1.05266
-0.322878
-0.364954
-0.406406
-0.447162
-0.487115
-0.526167
-0.564227
-0.601207
-0.63702
-0.671586
-0.704826
-0.736669
-0.767045
-0.795894
-0.82316
-0.848793
-0.87275
-0.894995
-0.915501
-0.934244
-0.951211
-0.966394
-0.979793
-0.991416
-1.00128
-1.0094
-1.0158
-1.02052
-1.02359
-1.02508
-0.301091
-0.342252
-0.382844
-0.422787
-0.461977
-0.500318
-0.53772
-0.574095
-0.609358
-0.643428
-0.676227
-0.707683
-0.737729
-0.766302
-0.793346
-0.818811
-0.842652
-0.864834
-0.885324
-0.904101
-0.921148
-0.936455
-0.950021
-0.961849
-0.971953
-0.980349
-0.987064
-0.992126
-0.995565
-0.997435
-0.278924
-0.319153
-0.358864
-0.397974
-0.436383
-0.473997
-0.510727
-0.546486
-0.58119
-0.614758
-0.647115
-0.678186
-0.707905
-0.73621
-0.763043
-0.788353
-0.812096
-0.834234
-0.854734
-0.873571
-0.890727
-0.906191
-0.919958
-0.93203
-0.942417
-0.951133
-0.958201
-0.963648
-0.967501
-0.969809
-0.256805
-0.296085
-0.334897
-0.373155
-0.410764
-0.447632
-0.483672
-0.518799
-0.552928
-0.585982
-0.617883
-0.64856
-0.677945
-0.705975
-0.732593
-0.757748
-0.781394
-0.803492
-0.824007
-0.842913
-0.860191
-0.875826
-0.889812
-0.902147
-0.912839
-0.921899
-0.929348
-0.935208
-0.939505
-0.942284
-0.235072
-0.27339
-0.311287
-0.348677
-0.385468
-0.421572
-0.456904
-0.49138
-0.524917
-0.557438
-0.588867
-0.619133
-0.648167
-0.675908
-0.702299
-0.727286
-0.750824
-0.772872
-0.793396
-0.812367
-0.829763
-0.845569
-0.859775
-0.872378
-0.883382
-0.892796
-0.900636
-0.906924
-0.911681
-0.914948
-0.213978
-0.251327
-0.288298
-0.324807
-0.360767
-0.396092
-0.4307
-0.464507
-0.497435
-0.529404
-0.560342
-0.590176
-0.61884
-0.646272
-0.672414
-0.697214
-0.720626
-0.742607
-0.763122
-0.782143
-0.799644
-0.815608
-0.830024
-0.842887
-0.854198
-0.863962
-0.872193
-0.878909
-0.88413
-0.887891
-0.193707
-0.230084
-0.266125
-0.301745
-0.336864
-0.3714
-0.40527
-0.438395
-0.470697
-0.502097
-0.532524
-0.561906
-0.590178
-0.617278
-0.643149
-0.667738
-0.690999
-0.71289
-0.733373
-0.75242
-0.770004
-0.786107
-0.800715
-0.81382
-0.825421
-0.835521
-0.844132
-0.851267
-0.856945
-0.861195
-0.174383
-0.209791
-0.2449
-0.279631
-0.313905
-0.347645
-0.38077
-0.413202
-0.444864
-0.475681
-0.505579
-0.53449
-0.562349
-0.589094
-0.614669
-0.639022
-0.662106
-0.683878
-0.704303
-0.723349
-0.74099
-0.757204
-0.771978
-0.785301
-0.79717
-0.807585
-0.816555
-0.824092
-0.830211
-0.834937
-0.156082
-0.190528
-0.224711
-0.258554
-0.291985
-0.324927
-0.357304
-0.389037
-0.420051
-0.450272
-0.479628
-0.508051
-0.535477
-0.561846
-0.587101
-0.611192
-0.634072
-0.655699
-0.676035
-0.695051
-0.712717
-0.729014
-0.743924
-0.757436
-0.769544
-0.780248
-0.789552
-0.797466
-0.804002
-0.809183
-0.138841
-0.172336
-0.205601
-0.238565
-0.271158
-0.303308
-0.334937
-0.36597
-0.396332
-0.42595
-0.454752
-0.482674
-0.50965
-0.535623
-0.560537
-0.584341
-0.606991
-0.628444
-0.648663
-0.667617
-0.685279
-0.701626
-0.71664
-0.730309
-0.742626
-0.753586
-0.763194
-0.771457
-0.778384
-0.783994
-0.122668
-0.155226
-0.187585
-0.219681
-0.251448
-0.282813
-0.313701
-0.344037
-0.373747
-0.402757
-0.431
-0.458409
-0.484923
-0.510483
-0.535036
-0.558532
-0.580927
-0.60218
-0.622254
-0.641118
-0.658744
-0.675109
-0.690195
-0.703988
-0.716479
-0.727664
-0.737543
-0.746122
-0.753409
-0.759419
-0.107549
-0.139184
-0.170653
-0.201896
-0.23285
-0.263444
-0.293601
-0.323248
-0.352309
-0.380714
-0.408393
-0.435283
-0.461324
-0.486458
-0.510633
-0.533802
-0.555921
-0.57695
-0.596852
-0.615598
-0.633158
-0.64951
-0.664636
-0.67852
-0.691153
-0.702528
-0.712645
-0.721507
-0.729121
-0.735498
-0.0934532
-0.12418
-0.154776
-0.185185
-0.215344
-0.245183
-0.274625
-0.303593
-0.332014
-0.359816
-0.386932
-0.4133
-0.43886
-0.463558
-0.487343
-0.510169
-0.531993
-0.552776
-0.572484
-0.591085
-0.608552
-0.624862
-0.639997
-0.65394
-0.666681
-0.678213
-0.688534
-0.697645
-0.70555
-0.712261
-0.0803403
-0.110171
-0.139911
-0.169507
-0.198894
-0.227998
-0.256742
-0.285046
-0.312837
-0.340044
-0.366601
-0.392446
-0.417523
-0.441778
-0.465163
-0.487633
-0.509146
-0.529665
-0.549157
-0.567591
-0.58494
-0.601181
-0.616295
-0.630267
-0.643085
-0.654742
-0.665233
-0.674558
-0.682722
-0.689733
-0.0681603
-0.0971036
-0.126007
-0.154813
-0.183452
-0.211847
-0.239913
-0.267572
-0.294746
-0.321368
-0.347371
-0.372696
-0.397288
-0.421097
-0.444075
-0.466179
-0.487369
-0.50761
-0.526868
-0.545114
-0.562323
-0.57847
-0.593538
-0.607511
-0.620377
-0.632126
-0.642755
-0.652263
-0.660652
-0.667928
-0.0568577
-0.0849164
-0.113004
-0.141047
-0.168968
-0.196679
-0.224093
-0.251125
-0.277699
-0.303747
-0.329204
-0.354015
-0.378125
-0.401485
-0.424052
-0.445784
-0.466642
-0.486591
-0.505602
-0.523643
-0.540692
-0.556725
-0.571723
-0.58567
-0.598556
-0.610369
-0.621106
-0.630764
-0.639346
-0.646854
-0.0463717
-0.0735397
-0.100836
-0.128147
-0.155382
-0.182441
-0.209228
-0.235655
-0.261647
-0.287135
-0.312057
-0.33636
-0.359991
-0.382906
-0.40506
-0.426415
-0.446934
-0.466584
-0.485334
-0.503158
-0.52003
-0.535929
-0.550836
-0.564736
-0.577616
-0.589467
-0.600284
-0.610063
-0.618806
-0.626515
-0.0366332
-0.0628909
-0.089427
-0.116044
-0.14263
-0.169072
-0.195261
-0.221107
-0.246535
-0.271478
-0.295878
-0.319682
-0.342842
-0.365313
-0.387056
-0.408033
-0.428209
-0.447553
-0.466035
-0.483629
-0.500311
-0.51606
-0.530859
-0.54469
-0.557543
-0.569408
-0.580279
-0.590152
-0.599027
-0.606908
-0.0275575
-0.0528804
-0.0787031
-0.104673
-0.130656
-0.156519
-0.182141
-0.207432
-0.232316
-0.256731
-0.280621
-0.303936
-0.326632
-0.348666
-0.370001
-0.3906
-0.410432
-0.429465
-0.447673
-0.465028
-0.481509
-0.497096
-0.511769
-0.525515
-0.538321
-0.550178
-0.561079
-0.57102
-0.580002
-0.588026
-0.0190348
-0.0434482
-0.0686449
-0.0940277
-0.119457
-0.144782
-0.169868
-0.194626
-0.218985
-0.242886
-0.266277
-0.289113
-0.311351
-0.332953
-0.353882
-0.374105
-0.39359
-0.412309
-0.430235
-0.447343
-0.463612
-0.479023
-0.493557
-0.5072
-0.519939
-0.531767
-0.542675
-0.55266
-0.561721
-0.56986
-0.0109116
-0.0344916
-0.0592052
-0.0840715
-0.108999
-0.133823
-0.1584
-0.182644
-0.206493
-0.229892
-0.252795
-0.27516
-0.296947
-0.318121
-0.338648
-0.358495
-0.377634
-0.396036
-0.413677
-0.430533
-0.446582
-0.461807
-0.476189
-0.489715
-0.502372
-0.514152
-0.525047
-0.535053
-0.54417
-0.552398
-0.00273895
-0.0252531
-0.0496549
-0.0741221
-0.0986317
-0.123015
-0.147128
-0.170898
-0.194271
-0.217201
-0.239648
-0.261574
-0.282942
-0.303718
-0.323871
-0.343371
-0.362189
-0.3803
-0.397679
-0.414303
-0.430152
-0.445207
-0.459452
-0.472874
-0.485459
-0.497199
-0.508087
-0.518118
-0.527292
-0.535608
0.00674543
-0.0143789
-0.038823
-0.0631756
-0.0874822
-0.111574
-0.135339
-0.158735
-0.181725
-0.204273
-0.226344
-0.247905
-0.268923
-0.289367
-0.309207
-0.328415
-0.346966
-0.364833
-0.381994
-0.398427
-0.414113
-0.429034
-0.443174
-0.45652
-0.46906
-0.480784
-0.491687
-0.501764
-0.511014
-0.519437
0.0163994
-0.00691116
-0.0324349
-0.0569024
-0.0811402
-0.104998
-0.128407
-0.15139
-0.173937
-0.196021
-0.217615
-0.238692
-0.259225
-0.279186
-0.298549
-0.317289
-0.335384
-0.352811
-0.369549
-0.38558
-0.400885
-0.41545
-0.429259
-0.442301
-0.454567
-0.466047
-0.476736
-0.48663
-0.49573
-0.504035
0.526835
0.533881
0.54109
0.548432
0.555903
0.563501
0.571217
0.579039
0.586955
0.594949
0.603004
0.611097
0.619207
0.627307
0.63537
0.64337
0.651279
0.659075
0.666743
0.67428
0.681702
0.689053
0.696412
0.703911
0.711752
0.720232
0.72966
0.740304
0.753969
0.773763
0.519745
0.526532
0.533584
0.540749
0.548023
0.555412
0.562908
0.570499
0.57817
0.585905
0.593683
0.601484
0.609283
0.617051
0.624761
0.632384
0.639891
0.647259
0.654473
0.661528
0.668442
0.675259
0.682064
0.688995
0.696263
0.704179
0.713072
0.72324
0.736542
0.756226
0.511799
0.518279
0.525149
0.532112
0.539157
0.546306
0.55355
0.560875
0.568266
0.575703
0.583167
0.590634
0.598078
0.60547
0.61278
0.619978
0.627034
0.633923
0.64063
0.64715
0.653502
0.659734
0.665934
0.672247
0.678898
0.686212
0.694541
0.704217
0.717171
0.736756
0.503008
0.509131
0.515794
0.522528
0.529316
0.536193
0.543154
0.550179
0.557253
0.564356
0.571467
0.578559
0.585607
0.592578
0.599443
0.606168
0.612724
0.619085
0.625234
0.631168
0.636907
0.642502
0.648047
0.653696
0.659685
0.666356
0.674084
0.683232
0.695771
0.7151
0.493379
0.499099
0.505531
0.51201
0.518512
0.525086
0.53173
0.538422
0.545145
0.551877
0.558595
0.565274
0.571883
0.57839
0.584764
0.590971
0.596978
0.602761
0.608302
0.6136
0.618675
0.623583
0.628425
0.633363
0.638646
0.644632
0.65172
0.6603
0.672369
0.691336
0.482923
0.488194
0.494372
0.500572
0.506757
0.512999
0.519294
0.525621
0.531957
0.538282
0.54457
0.550795
0.556924
0.562926
0.568764
0.574406
0.579819
0.584975
0.589859
0.59447
0.598832
0.603005
0.607096
0.611278
0.615811
0.621071
0.627479
0.635453
0.647005
0.665536
0.471654
0.476431
0.482332
0.488227
0.494068
0.499947
0.505863
0.511791
0.517707
0.523589
0.529411
0.535143
0.540753
0.546206
0.551467
0.556499
0.56127
0.565753
0.569933
0.573809
0.577411
0.580801
0.584095
0.587476
0.591217
0.595711
0.6014
0.608731
0.619721
0.637753
0.459586
0.463826
0.469427
0.474993
0.480462
0.485948
0.491455
0.496952
0.502415
0.507821
0.51314
0.518342
0.523393
0.528258
0.532898
0.537277
0.541363
0.545127
0.548556
0.551651
0.554445
0.557008
0.559461
0.561998
0.564907
0.568596
0.57353
0.58018
0.590568
0.608042
0.446732
0.450394
0.455675
0.460888
0.465956
0.471022
0.47609
0.481126
0.486104
0.490999
0.495781
0.500417
0.504871
0.509108
0.513087
0.516772
0.520128
0.52313
0.525764
0.528035
0.529977
0.531668
0.533238
0.534891
0.536928
0.539777
0.543919
0.549856
0.559602
0.576465
0.433108
0.436155
0.441095
0.44593
0.450573
0.455191
0.459791
0.464336
0.468799
0.47315
0.477361
0.481395
0.485217
0.488788
0.492067
0.495017
0.497604
0.499802
0.501598
0.503001
0.504051
0.504829
0.505476
0.506206
0.507336
0.509308
0.512627
0.517817
0.526886
0.543086
0.418732
0.421127
0.425707
0.430143