/*--------------------------------*- C++ -*----------------------------------*\
  =========                 |
  \\      /  F ield         | OpenFOAM: The Open Source CFD Toolbox
   \\    /   O peration     | Website:  https://openfoam.org
    \\  /    A nd           | Version:  6.0
     \\/     M anipulation  |
\*---------------------------------------------------------------------------*/
FoamFile
{
    version     2.0;
    format      ascii;
    class       surfaceScalarField;
    location    "5.74";
    object      phi;
}
// * * * * * * * * * * * * * * * * * * * * * * * * * * * * * * * * * * * * * //

dimensions      [0 3 -1 0 0 0 0];

internalField   nonuniform List<scalar> 
4670
(
-0.000172808
-0.0213392
0.021512
-0.000455555
-0.0160255
0.0163083
-0.000723888
-0.0120855
0.0123538
-0.000910166
-0.00917012
0.0093564
-0.000981787
-0.00700756
0.00707918
-0.000929817
-0.0053899
0.00533793
-0.000761993
-0.00416114
0.00399332
-0.000498304
-0.00320565
0.00294196
-0.000168232
-0.00243805
0.00210798
-0.00179604
0.00143607
0.000191732
-0.000148419
-0.0211907
-0.000358937
-0.015815
-0.0005041
-0.0119403
-0.000516434
-0.00915779
-0.000364418
-0.00715957
-4.01118e-05
-0.0057142
0.00044758
-0.00464883
0.00107646
-0.00383454
0.00181266
-0.00317425
-0.00259551
0.00261213
-0.000117837
-0.0210729
-0.000233883
-0.015699
-0.000221896
-0.0119523
-1.66934e-05
-0.00936299
0.00041156
-0.00758783
0.00107032
-0.00637297
0.00195092
-0.00552943
0.00303074
-0.00491435
0.00427269
-0.0044162
-0.00394713
0.00562432
-7.97916e-05
-0.0209931
-8.00623e-05
-0.0156987
0.000120892
-0.0121532
0.000582939
-0.00982503
0.00133238
-0.00833727
0.00237565
-0.00741623
0.00370517
-0.00685896
0.00530008
-0.00650926
0.00712268
-0.0062388
-0.00593746
0.00911301
-3.28922e-05
-0.0209602
0.000105694
-0.0158373
0.000528447
-0.012576
0.0012858
-0.0105824
0.00239718
-0.00944865
0.0038657
-0.00888476
0.00568441
-0.00867766
0.00783605
-0.0086609
0.0102864
-0.0086892
-0.00862304
0.012972
2.51244e-05
-0.0209853
0.000329312
-0.0161415
0.00101048
-0.0132572
0.00210447
-0.0116764
0.00361884
-0.010963
0.00554881
-0.0108147
0.00788475
-0.0110136
0.010613
-0.0113892
0.0137079
-0.0117841
-0.0120249
0.0171098
9.70123e-05
-0.0210824
0.000597866
-0.0166423
0.00157902
-0.0142383
0.00305619
-0.0131535
0.00501906
-0.0129259
0.00744789
-0.0132436
0.010323
-0.0138887
0.0136295
-0.0146957
0.0173529
-0.0155075
-0.0161221
0.0214501
0.000185153
-0.0212675
0.000916632
-0.0173738
0.0022425
-0.0155642
0.0041535
-0.0150646
0.00661579
-0.0153882
0.00958639
-0.0162142
0.0130241
-0.0173264
0.0168997
-0.0185713
0.0212052
-0.0198131
-0.02086
0.0259432
0.000290729
-0.0215582
0.00128569
-0.0183688
0.00299855
-0.017277
0.00539274
-0.0174587
0.00840836
-0.0184038
0.011974
-0.0197798
0.0160148
-0.0213672
0.0204643
-0.0230208
0.0252991
-0.0246479
-0.0261981
0.0306372
0.000413694
-0.0219719
0.00169595
-0.019651
0.00382477
-0.0194058
0.00673765
-0.0203716
0.0103547
-0.0220208
0.0145877
-0.0240128
0.019342
-0.0261215
0.0245092
-0.028188
0.0299688
-0.0301074
-0.0318963
0.0356669
0.0304219
0.00119769
-0.0316196
0.0292164
0.00120557
0.0280298
0.00118657
0.0268879
0.00114191
0.0258131
0.00107477
0.024824
0.000989062
0.0239353
0.000888773
0.0231579
0.000777339
0.0225008
0.000657145
0.000528863
0.04073
0.00373185
-0.0432641
0.0380693
0.00386623
0.035352
0.00390386
0.0326454
0.00384854
0.0300121
0.00370803
0.0275084
0.00349278
0.0251829
0.00321428
0.0230768
0.0028835
0.0212241
0.00250978
0.00210198
0.0497846
0.00690436
-0.0529571
0.0463318
0.00731904
0.0426901
0.00754556
0.0389541
0.00758452
0.0352178
0.00744439
0.0315705
0.00713999
0.0280949
0.00668989
0.0248655
0.00611293
0.0219495
0.00542574
0.00464567
0.0572365
0.01023
-0.0605622
0.0534776
0.0110779
0.04938
0.0116432
0.0450491
0.0119154
0.0405969
0.0118966
0.0361364
0.0116004
0.0317782
0.0110481
0.0276285
0.0102626
0.0237916
0.00926265
0.00806564
0.0630361
0.0133929
-0.0661989
0.0593122
0.0148018
0.0551102
0.0158452
0.0505308
0.0164947
0.0456891
0.0167384
0.0407083
0.0165812
0.0357157
0.0160408
0.0308408
0.0151374
0.0262224
0.0138811
0.0122672
0.0673111
0.0162133
-0.0701315
0.0638398
0.0182731
0.0597794
0.0199056
0.0552142
0.0210599
0.0502483
0.0217043
0.0450009
0.0218287
0.0396004
0.0214413
0.0341846
0.0205532
0.028914
0.0191517
0.0171684
0.0702768
0.018614
-0.0726776
0.0671762
0.0213738
0.0634128
0.023669
0.0590472
0.0254255
0.0541629
0.0265885
0.0488621
0.0271294
0.0432585
0.0270449
0.0374752
0.0263365
0.0316677
0.0249592
0.0227146
0.0721725
0.0205877
-0.0741462
0.0694868
0.0240595
0.0661026
0.0270532
0.0620555
0.0294727
0.0574039
0.0312401
0.052225
0.0323083
0.0466041
0.0326659
0.0406228
0.0323178
0.0343792
0.0312029
0.0289057
0.0732192
0.022169
-0.0748004
0.0709427
0.026336
0.0679659
0.0300299
0.0643026
0.0331359
0.0599876
0.035555
0.0550727
0.0372233
0.0496112
0.0381274
0.0436234
0.0383056
0.0370629
0.0377633
0.0358612
0.0735946
-0.0748418
0.0234162
0.071689
0.0282416
0.0691085
0.0326104
0.0658517
0.0363927
0.0619361
0.0394707
0.0573958
0.0417636
0.0522663
0.0432568
0.0465334
0.0440385
0.0399895
0.0443072
0.0439545
0.0369847
-0.000328598
-0.0366561
0.037111
-0.000126342
0.0370303
8.07689e-05
0.0367451
0.000285181
0.0362644
0.000480696
0.0356029
0.000661484
0.0347808
0.00082214
0.0338228
0.000957925
0.0327581
0.00106477
0.00113843
0.0513991
-0.0015143
-0.0502134
0.0521589
-0.000886121
0.0524807
-0.000241045
0.0523586
0.000407307
0.0517959
0.00104339
0.0508068
0.00165059
0.0494169
0.00221204
0.0476633
0.00271157
0.0455936
0.00313448
0.00346785
0.0595644
-0.00350068
-0.057578
0.0610373
-0.00235904
0.0619697
-0.00117346
0.0623397
3.73078e-05
0.0621347
0.00124839
0.061354
0.00243129
0.0600106
0.00355543
0.0581324
0.00458984
0.0557621
0.00550473
0.00627287
0.0636135
-0.00612772
-0.0609865
0.0657214
-0.00446686
0.0672688
-0.00272085
0.0682177
-0.000911608
0.0685384
0.000927675
0.0682122
0.00275747
0.0672336
0.004534
0.0656122
0.00621122
0.063374
0.00774294
0.00908467
0.0650861
-0.00921605
-0.0619978
0.067693
-0.00707368
0.0697641
-0.00479196
0.0712482
-0.00239569
0.0721023
7.3553e-05
0.0722934
0.00256631
0.0717999
0.00502751
0.0706129
0.00739822
0.0687384
0.0096175
0.0116241
0.065062
-0.0126125
-0.0616655
0.0680334
-0.0100451
0.0705093
-0.00726792
0.0724285
-0.00431484
0.0737413
-0.00123925
0.0744077
0.00189991
0.0743964
0.00503883
0.0736852
0.00810939
0.0722629
0.0110398
0.0137555
0.064256
-0.016214
-0.0606545
0.0674882
-0.0132773
0.0702571
-0.0100369
0.0724971
-0.00655486
0.0741611
-0.00290323
0.0752107
0.000850314
0.0756127
0.0046368
0.0753385
0.00838368
0.0743649
0.0120134
0.0154428
0.0631238
-0.0199838
-0.059354
0.0665465
-0.0166999
0.0695105
-0.0130009
0.07196
-0.00900441
0.0738621
-0.00480527
0.075188
-0.000475613
0.0759087
0.00391615
0.075994
0.00829829
0.075415
0.0125925
0.0167116
0.0619743
-0.023945
-0.0580131
0.065516
-0.0202416
0.0685747
-0.0160595
0.071127
-0.0115568
0.0731625
-0.00684076
0.0746645
-0.00197756
0.0756091
0.00297158
0.0759675
0.00793989
0.0757083
0.0128516
0.0176195
0.0610008
-0.0569268
-0.028019
0.0645615
-0.0238023
0.0675967
-0.0190948
0.0701568
-0.0141168
0.0722419
-0.00892587
0.0738393
-0.00357495
0.0749271
0.00188376
0.0754777
0.00738928
0.0754601
0.0128692
0.0182377
0.0424722
0.0138577
-0.0085709
-0.047759
0.0370995
0.0146101
-0.00923735
0.0316418
0.0155011
-0.0100434
0.0261157
0.0165766
-0.0110505
0.0205649
0.0178931
-0.0123423
0.0150836
0.0194972
-0.0140159
0.00985256
0.021387
-0.016156
0.00519092
0.0234362
-0.0187745
0.00162793
0.0252618
-0.0216989
0.0260049
-0.024377
0.0422356
0.019117
-0.0474949
0.0368888
0.0199569
0.0314565
0.0209334
0.0259553
0.0220778
0.0204292
0.0234192
0.0149734
0.024953
0.00976992
0.0265905
0.005139
0.0280671
0.00160786
0.028793
0.0276128
0.0416285
0.0243189
-0.0468305
0.0363388
0.0252466
0.030965
0.0263072
0.0255251
0.0275177
0.0200647
0.0288796
0.0146806
0.030337
0.00955602
0.0317152
0.00500958
0.0326135
0.00155896
0.0322436
0.0291718
0.0406543
0.0294359
-0.0457713
0.0354511
0.0304499
0.0301681
0.0315901
0.0248257
0.0328601
0.0194718
0.0342334
0.0142059
0.035603
0.00921192
0.0367091
0.00480422
0.0370212
0.00148307
0.0355648
0.0306548
0.0393155
0.0344427
-0.0443223
0.0342269
0.0355385
0.0290667
0.0367504
0.0238579
0.038069
0.0186518
0.0394394
0.013551
0.0407038
0.00873974
0.0415204
0.00452494
0.041236
0.00138142
0.0387083
0.0320363
0.0376114
0.0393156
-0.0424844
0.0326653
0.0404846
0.0276602
0.0417555
0.0226223
0.0431069
0.0176066
0.0444552
0.0127187
0.0455917
0.0081427
0.0460964
0.00417455
0.0452042
0.00125547
0.0416274
0.0332917
0.0355343
0.0440302
-0.0402488
0.0307606
0.0452583
0.0259461
0.04657
0.0211193
0.0479337
0.0163386
0.0492358
0.0117132
0.0502172
0.00742558
0.050384
0.00375703
0.0488727
0.00110715
0.0442772
0.0343989
0.0330642
0.0485537
-0.0375878
0.0285006
0.0498219
0.0239201
0.0511505
0.01935
0.0525038
0.0148527
0.0537331
0.0105412
0.0545287
0.00659533
0.0543299
0.00327793
0.0521901
0.000939117
0.0466161
0.035338
0.0301542
0.0528478
-0.0344483
0.0258643
0.0541118
0.0215796
0.0554352
0.0173201
0.0567633
0.0131583
0.0578949
0.00921354
0.0584734
0.00566228
0.0578811
0.00274517
0.0551073
0.000755276
0.048606
0.0360933
0.0267528
-0.0308318
0.0228516
0.0189327
0.0150415
0.0112709
0.00774646
0.00464108
0.00217031
0.000562823
0.0249567
-0.0355104
0.0397995
-0.0292459
0.0209465
-0.0353169
0.0393271
0.017075
-0.0347936
0.0386651
0.0133658
-0.0337673
0.0374764
0.00989354
-0.0319143
0.0353866
0.00675628
-0.028761
0.0318982
0.00407022
-0.0236584
0.0263444
0.00196023
-0.0157631
0.0178731
0.000554154
-0.00402982
0.00543589
0.0128505
-0.0122963
0.0283599
-0.0311657
-0.0327046
0.0240633
-0.0310203
0.0198485
-0.0305788
0.0157561
-0.029675
0.0118596
-0.0280178
0.00826195
-0.0251634
0.00509582
-0.0204923
0.00252318
-0.0131904
0.000739445
-0.00224608
0.0135899
0.0313467
-0.0266696
-0.0358428
0.0268263
-0.0264999
0.0223337
-0.0260861
0.0179194
-0.0252606
0.0136567
-0.0237551
0.00965209
-0.0211588
0.00605238
-0.0168926
0.00305339
-0.0101914
0.000914833
-0.000107522
0.0145048
0.0339506
-0.0220068
-0.0386134
0.0292396
-0.021789
0.0245186
-0.0213651
0.0198355
-0.0205775
0.0152613
-0.0191809
0.010904
-0.0168015
0.00692163
-0.0129102
0.00353972
-0.00680953
0.00107732
0.00235487
0.0155821
0.0362115
-0.0171859
-0.0410324
0.0313296
-0.0169071
0.0264127
-0.0164483
0.021502
-0.0156668
0.0166639
-0.0143427
0.012005
-0.0121426
0.00769145
-0.00859664
0.00397364
-0.00309172
0.00122347
0.00510504
0.0168056
0.0381365
-0.0122225
-0.0430999
0.033104
-0.0118745
0.0280198
-0.0113641
0.0229179
-0.0105649
0.0178589
-0.00928367
0.012947
-0.00723071
0.00835334
-0.00400299
0.00434869
0.000912941
0.00135044
0.00810328
0.018156
0.0397206
-0.00713799
-0.0448051
0.0345615
-0.00671541
0.0293389
-0.00614157
0.0240807
-0.00530669
0.018842
-0.00404498
0.013724
-0.00211264
0.00890094
0.000820021
0.00465987
0.00515401
0.00145598
0.0113072
0.019612
0.0409549
-0.00195801
-0.0461349
0.0356964
-0.00145691
0.030366
-0.000811135
0.0249866
7.26304e-05
0.0196089
0.00133279
0.0143309
0.00316534
0.00932926
0.00582165
0.00490333
0.00957995
0.00153832
0.0146722
0.0211503
0.0418302
0.00328863
-0.0470768
0.0365021
0.00387118
0.031096
0.00459499
0.0256314
0.00553721
0.0201553
0.0068089
0.0147636
0.00855701
0.00963441
0.0109508
0.00507625
0.0141381
0.00159633
0.0181521
0.0227466
0.0423389
-0.0476212
0.0369727
0.0315243
0.0260111
0.0204777
0.0150187
0.00981356
0.00517714
0.00163038
0.0439684
0.0217018
-0.0258707
0.0474985
0.017795
-0.021325
0.0504446
0.0133918
-0.0163379
0.0528561
0.00866519
-0.0110768
0.054722
0.00375916
-0.00562504
0.0560143
-0.00122707
-6.51897e-05
0.0566949
-0.00619331
0.00551267
0.0567229
-0.0110279
0.0109999
0.0560607
-0.0156079
0.0162702
-0.0198013
0.0546804
0.0211815
0.04322
0.0178089
0.0466613
0.0143536
0.0495585
0.0104946
0.0518751
0.00634862
0.0535903
0.00204392
0.0546757
-0.0023125
0.0550971
-0.00661471
0.0548207
-0.0107515
0.0538192
-0.0146065
-0.0180617
0.0520797
0.0422835
0.0141906
0.0455082
0.011129
0.0482107
0.00779204
0.0503186
0.00424078
0.0517887
0.000573796
0.0525855
-0.00310927
0.0526774
-0.00670667
0.0520404
-0.0101144
0.0506624
-0.0132286
-0.0159498
0.0485505
0.0408267
0.0108403
0.0437524
0.00820323
0.0461497
0.00539474
0.0479396
0.00245084
0.0490686
-0.0005552
0.0494984
-0.00353903
0.0492034
-0.00641172
0.0481727
-0.00908371
0.0464135
-0.0114693
-0.0134918
0.0439555
0.0384249
0.00780207
0.0409846
0.00564355
0.0429902
0.00338909
0.0443739
0.0010672
0.0450861
-0.00126741
0.0450953
-0.0035483
0.0443883
-0.00570462
0.0429711
-0.00766654
0.0408721
-0.00937036
-0.0107633
0.0381436
0.0345473
0.00515301
0.0366721
0.0035187
0.0382199
0.00184131
0.0391413
0.000145779
0.0394019
-0.00152794
0.0389853
-0.00313174
0.0378957
-0.00461502
0.0361589
-0.00592969
0.0338231
-0.00703455
-0.00789887
0.0309586
0.0285157
0.00298177
0.030146
0.00188834
0.031202
0.000785334
0.0316559
-0.000308055
0.0314933
-0.0013654
0.0307177
-0.00235616
0.0293521
-0.00324936
0.0274395
-0.00401713
0.0250426
-0.00463765
-0.00509734
0.0222411
0.0194874
0.00136744
0.0205943
0.000781381
0.0211783
0.000201398
0.0212321
-0.000361838
0.0207611
-0.000894484
0.0197862
-0.00138123
0.0183442
-0.00180737
0.0164878
-0.00216068
0.0142831
-0.00243296
-0.00262116
0.0118069
0.00644015
0.000363191
0.00704524
0.000176286
0.00725023
-3.59306e-06
0.00706272
-0.000174326
0.0065
-0.000331767
0.00559021
-0.000471438
0.00437219
-0.000589345
0.00289405
-0.000682545
0.00121078
-0.000749686
-0.000792059
-0.000618323
-0.0119332
-0.0117569
-0.0117605
-0.0119348
-0.0122666
-0.012738
-0.0133273
-0.0140099
-0.0147596
-0.0155516
0.0525735
-0.023491
0.025598
0.0497541
-0.0265163
0.0293356
0.0462701
-0.0287983
0.0322823
0.042202
-0.0302826
0.0343506
0.0376568
-0.0309715
0.0355167
0.0327502
-0.0309258
0.0358325
0.0275754
-0.030245
0.0354197
0.0221515
-0.029006
0.03443
0.0163598
-0.0270775
0.0328692
-0.0235227
0.00968103
0.0302015
0.0496115
-0.0210229
0.0464511
-0.0233559
0.042668
-0.0250151
0.0383615
-0.0259761
0.0336506
-0.0262607
0.0286547
-0.0259299
0.0234653
-0.0250557
0.0181162
-0.0236569
0.0126087
-0.02157
-0.0181922
0.00727815
0.0457367
-0.0182091
0.0422819
-0.0199011
0.0382772
-0.0210104
0.0338376
-0.0215364
0.0290903
-0.0215134
0.0241581
-0.0209977
0.0191414
-0.020039
0.0141172
-0.0186327
0.00920148
-0.0166543
-0.0137991
0.0048084
0.0408542
-0.0151077
0.0371933
-0.0162403
0.0330805
-0.0168976
0.0286401
-0.017096
0.0240014
-0.0168747
0.0192858
-0.0162821
0.0145999
-0.015353
0.0100457
-0.0140785
0.00577408
-0.0123827
-0.010136
0.00211095
0.0348608
-0.0118249
0.0311244
-0.0125039
0.0270504
-0.0128236
0.0227632
-0.0128089
0.0183858
-0.0124973
0.0140313
-0.0119277
0.00980184
-0.0111235
0.00580136
-0.010078
0.00216976
-0.00875111
-0.00709876
-0.000867459
0.0276528
-0.00851898
0.0240137
-0.00886476
0.0201551
-0.00896504
0.0161915
-0.00884529
0.0122309
-0.0085367
0.0083704
-0.00806713
0.00469819
-0.00745127
0.00130463
-0.00668447
-0.00169944
-0.00574704
-0.0046294
-0.0041688
0.0191231
-0.00540095
0.0157926
-0.00553427
0.01235
-0.00552247
0.00889084
-0.00538612
0.0055011
-0.00514697
0.00225622
-0.00482225
-0.000775441
-0.0044196
-0.0035246
-0.0039353
-0.00591215
-0.0033595
-0.00269228
-0.00784927
0.00913563
-0.00272968
0.00635748
-0.00275612
0.00355004
-0.00271503
0.000783226
-0.00261931
-0.00188283
-0.00248091
-0.00439688
-0.0023082
-0.00671257
-0.00210391
-0.00878296
-0.00186492
-0.0105565
-0.00158593
-0.00126813
-0.0119807
-0.00253936
-0.000808648
-0.00449126
-0.000804218
-0.00642513
-0.000781152
-0.00829953
-0.000744912
-0.0100809
-0.000699491
-0.0117418
-0.000647308
-0.0132571
-0.000588647
-0.0146003
-0.000521694
-0.0157421
-0.000444152
-0.000357455
-0.0166528
-0.0163603
-0.0171645
-0.0179456
-0.0186906
-0.01939
-0.0200374
-0.020626
-0.0211477
-0.0215918
-0.0219493
0.000249972
-0.0221993
0.000913322
-0.0173161
0.00196136
-0.0130287
0.00339109
-0.009279
0.0052059
-0.00598361
0.00740492
-0.00306647
0.009976
-0.000460131
0.0128847
0.00189966
0.016079
0.00408386
0.00619007
0.01957
0.000155357
-0.0223546
0.000579176
-0.0177399
0.001266
-0.0137155
0.0022206
-0.0102336
0.00344768
-0.00721069
0.00494725
-0.00456605
0.00671538
-0.00222826
0.00875276
-0.000137723
0.0110976
0.00173905
0.00336808
0.0139196
6.6684e-05
-0.0224213
0.000276825
-0.0179501
0.000649082
-0.0140878
0.00120236
-0.0107869
0.00195334
-0.00796166
0.00291686
-0.00552958
0.00410988
-0.00342127
0.00555846
-0.00158631
0.00730481
-7.30367e-06
0.00127733
0.00939555
-1.01189e-05
-0.0224112
1.90198e-05
-0.0179792
0.000130536
-0.0141993
0.000358107
-0.0110144
0.000729525
-0.00833308
0.0012695
-0.00606956
0.002003
-0.00415477
0.0029575
-0.00254082
0.00415895
-0.00120875
-0.000173067
0.00560935
-7.32217e-05
-0.022338
-0.000189843
-0.0178626
-0.000284552
-0.0141046
-0.000311307
-0.0109877
-0.000235325
-0.00840906
-2.89477e-05
-0.00627593
0.000330995
-0.00451471
0.000863332
-0.00307315
0.00157731
-0.00192273
-0.00105615
0.00246039
-0.000122249
-0.0222157
-0.000349098
-0.0176358
-0.000596758
-0.0138569
-0.000810219
-0.0107742
-0.000951735
-0.00826754
-0.000995359
-0.00623231
-0.000923988
-0.00458608
-0.00072888
-0.00326826
-0.000412585
-0.00223902
-0.00147484
6.10922e-06
-0.000157302
-0.0220584
-0.000459365
-0.0173337
-0.000807968
-0.0135083
-0.00114223
-0.01044
-0.00142418
-0.0079856
-0.00163175
-0.00602474
-0.00175477
-0.00446307
-0.00179305
-0.00322998
-0.00175685
-0.00227522
-0.00156375
-0.00166795
-0.000178667
-0.0218798
-0.000521823
-0.0169905
-0.000920541
-0.0131096
-0.00131031
-0.0100502
-0.00165428
-0.00764163
-0.00193472
-0.00574429
-0.00214774
-0.00425005
-0.00229997
-0.00307774
-0.00240714
-0.00216805
-0.00147773
-0.00249316
-0.000186697
-0.0216931
-0.000538366
-0.0166389
-0.000938319
-0.0127097
-0.00131968
-0.00966885
-0.00164706
-0.00731424
-0.00190661
-0.00548475
-0.00209957
-0.00405709
-0.00223806
-0.00293926
-0.00234242
-0.00206369
-0.00138089
-0.00243926
-0.000181098
-0.0005117
-0.000867577
-0.00118003
-0.00141509
-0.0015619
-0.00162568
-0.00162298
-0.00157869
-0.00152351
0.00127534
0.000310226
-0.00139383
0.00515197
-0.00430108
0.000424447
0.0103725
-0.0140818
0.00886128
0.0163841
-0.0295484
0.0235368
0.0226271
-0.0465297
0.0402866
0.0286912
-0.0597389
0.0536749
0.0345951
-0.0655008
0.0595969
0.0405792
-0.0619677
0.0559837
0.0468286
-0.049821
0.0435715
0.0531816
-0.0320151
0.0256621
0.0591472
-0.0131288
0.00716321
0.0641728
0.00241898
-0.00744457
0.0679178
0.0121879
-0.0159329
0.0703493
0.0162235
-0.018655
0.0716715
0.0162012
-0.0175233
0.0721843
0.0140283
-0.014541
0.0721708
0.0112723
-0.0112588
0.0718354
0.00841379
-0.00807841
0.0713131
0.00649113
-0.00596881
0.00383095
-0.00317217
0.00449509
-0.00157274
0.00876492
-0.00857091
0.0141181
-0.019435
0.019946
-0.0353762
0.0257553
-0.0523389
0.0312366
-0.0652202
0.0364896
-0.0707539
0.0418269
-0.067305
0.0475037
-0.0554977
0.053422
-0.0379334
0.0591153
-0.0188221
0.0640058
-0.00247147
0.0677038
0.00848989
0.070134
0.0137932
0.0714753
0.0148599
0.0720165
0.013487
0.072037
0.0112518
0.0717398
0.00871099
0.0712598
0.00697113
0.00444454
0.00839741
-0.00434583
0.0129906
-0.0131641
0.0183544
-0.0247988
0.0238535
-0.0408753
0.0291016
-0.057587
0.0339127
-0.0700314
0.0384621
-0.0753032
0.0431138
-0.0719568
0.0481724
-0.0605563
0.0535989
-0.0433598
0.0589619
-0.0241851
0.063673
-0.00718264
0.0673016
0.00486131
0.0697287
0.0113661
0.0711031
0.0134855
0.0716974
0.0128927
0.0717833
0.0111659
0.0715606
0.00893372
0.071163
0.00736869
0.00496915
0.0128035
-0.00803634
0.0176122
-0.0179728
0.0228369
-0.0300235
0.0278643
-0.0459028
0.0324446
-0.0621674
0.0365283
-0.074115
0.0403563
-0.0791312
0.0443219
-0.0759224
0.0487552
-0.0649897
0.0536656
-0.0482703
0.0586639
-0.0291834
0.0631658
-0.0116846
0.0667094
0.00131775
0.0691345
0.00894102
0.0705569
0.0120632
0.0712288
0.0122208
0.0714113
0.0109834
0.0712989
0.00904614
0.0710234
0.00764416
0.00536158
0.0175314
-0.0125958
0.0224093
-0.0228506
0.0273197
-0.0349339
0.0317392
-0.0503223
0.03557
-0.0659982
0.0388995
-0.0774445
0.0420207
-0.0822523
0.0453324
-0.0792341
0.0491671
-0.0688244
0.0535688
-0.0526719
0.0581928
-0.0338074
0.0624717
-0.0159634
0.0659236
-0.00213422
0.068352
0.00651268
0.0698387
0.0105765
0.0706131
0.0114463
0.070923
0.0106735
0.0709562
0.00901299
0.0708417
0.00775862
0.00557941
0.0223966
-0.0178825
0.027161
-0.0276151
0.0315662
-0.039339
0.0352558
-0.0540119
0.0382847
-0.0690271
0.0408639
-0.0800236
0.0433203
-0.0847088
0.0460371
-0.0819508
0.0493277
-0.0721151
0.0532554
-0.0565996
0.0575189
-0.0380708
0.0615773
-0.0200219
0.0649408
-0.0054977
0.0673824
0.00407113
0.0689516
0.00900725
0.0698536
0.0105444
0.0703212
0.0102059
0.0705344
0.00879976
0.070619
0.00767411
0.00558127
0.0271993
-0.0236318
0.0316377
-0.0320534
0.0353498
-0.0430511
0.0382135
-0.0568756
0.0404221
-0.0712357
0.0422847
-0.0818863
0.0441423
-0.0865663
0.0463436
-0.0841521
0.0491656
-0.0749371
0.0526763
-0.0601103
0.0566135
-0.042008
0.0604698
-0.0238782
0.0637577
-0.00878552
0.0662274
0.00160141
0.0678992
0.00733546
0.0689541
0.00948944
0.0696093
0.00955067
0.0700362
0.00837292
0.0703565
0.00735378
0.00532713
0.0317173
-0.029406
0.03559
-0.035926
0.0384526
-0.0459138
0.0404351
-0.058858
0.0418436
-0.0726443
0.0430527
-0.0830954
0.0443975
-0.087911
0.0461779
-0.0859326
0.0486219
-0.0773811
0.0517895
-0.0632779
0.0554514
-0.04567
0.0591377
-0.0275645
0.0623719
-0.0120197
0.0648897
-0.000916372
0.0666861
0.00553906
0.0679194
0.00825604
0.0687914
0.00867875
0.0694642
0.00770008
0.0700558
0.00676222
0.00477851
0.035809
-0.0345778
0.0388171
-0.0389341
0.0407121
-0.0478089
0.0418094
-0.0599553
0.0424802
-0.0733151
0.0431234
-0.0837386
0.0440517
-0.0888393
0.0455089
-0.0873898
0.0476674
-0.0795395
0.0505709
-0.0661814
0.0540171
-0.0491162
0.0575743
-0.0311217
0.0607836
-0.0152291
0.0633732
-0.00350597
0.0653177
0.00359455
0.0667551
0.00681864
0.067872
0.00756185
0.068822
0.00675013
0.0697186
0.00586556
0.00389871
0.0395528
-0.0384636
0.0412846
-0.040666
0.0420869
-0.0486111
0.0423462
-0.0602146
0.0423744
-0.0733433
0.042553
-0.0839173
0.043156
-0.0894423
0.0443723
-0.088606
0.0463219
-0.0814892
0.0490299
-0.0688894
0.0523158
-0.0524021
0.0557844
-0.0345903
0.0589987
-0.0184433
0.0616847
-0.00619194
0.063801
0.00147828
0.0654674
0.00515221
0.0668564
0.0061728
0.0681131
0.00549343
0.0693469
0.00463175
0.00265298
0.124905
-0.0320725
-0.131297
0.122834
-0.0385949
0.122351
-0.0481274
0.121912
-0.0597755
0.120595
-0.0720269
0.118459
-0.0817809
0.1159
-0.0868833
0.113555
-0.0862609
0.112089
-0.0800234
0.11202
-0.0688207
0.113455
-0.0538366
0.115979
-0.0371148
0.118875
-0.0213398
0.121499
-0.00881497
0.123512
-0.000534997
0.124877
0.00378684
0.125728
0.00532195
0.12622
0.00500122
0.126511
0.00434125
0.00252404
0.172225
-0.0231956
-0.181102
0.166033
-0.0324027
0.161816
-0.0439106
0.158186
-0.0561456
0.154126
-0.0679666
0.149568
-0.0772227
0.144847
-0.0821629
0.140558
-0.0819718
0.137346
-0.0768111
0.135751
-0.0672254
0.135951
-0.0540368
0.137603
-0.038767
0.13999
-0.0237265
0.142389
-0.0112141
0.144356
-0.00250193
0.145758
0.00238431
0.146671
0.00440957
0.147219
0.00445326
0.147554
0.00400626
0.00237036
0.222494
-0.0137334
-0.231956
0.214797
-0.0247063
0.207849
-0.0369623
0.201197
-0.0494936
0.194248
-0.0610177
0.186991
-0.0699657
0.179798
-0.0749697
0.173256
-0.0754296
0.167984
-0.0715398
0.164517
-0.0637586
0.1631
-0.0526191
0.163497
-0.0391645
0.165052
-0.0252814
0.167001
-0.0131631
0.168789
-0.0042898
0.170164
0.00100888
0.171114
0.00345957
0.171713
0.00385438
0.172096
0.0036237
0.00218829
0.272202
-0.00571846
-0.280217
0.26481
-0.0173144
0.256888
-0.0290407
0.248373
-0.0409786
0.239245
-0.0518899
0.229717
-0.060437
0.220282
-0.0655345
0.211582
-0.0667304
0.204242
-0.064199
0.198783
-0.0582995
0.195511
-0.0493476
0.19434
-0.0379939
0.194748
-0.025689
0.195995
-0.0144104
0.19744
-0.00573489
0.198701
-0.00025169
0.199651
0.00250964
0.200289
0.0032157
0.20072
0.00319282
0.00197443
0.319643
-0.000215652
-0.325145
0.313479
-0.0111509
0.306053
-0.0216143
0.297161
-0.032087
0.287084
-0.0418131
0.276277
-0.0496297
0.265363
-0.0546201
0.255054
-0.0564214
0.246003
-0.0551488
0.23874
-0.0510366
0.23363
-0.0442376
0.230753
-0.0351169
0.229789
-0.0247243
0.230107
-0.0147287
0.231036
-0.00666383
0.232076
-0.00129129
0.232973
0.00161218
0.233632
0.00255674
0.234108
0.00271654
0.00172636
0.366209
0.00271561
-0.36914
0.361511
-0.00645282
0.355169
-0.0152732
0.346919
-0.0238363
0.336988
-0.0318824
0.325937
-0.0385785
0.314465
-0.0431478
0.30331
-0.0452669
0.293141
-0.0449799
0.284501
-0.0423964
0.277812
-0.037548
0.273309
-0.0306145
0.270903
-0.0223181
0.270144
-0.01397
0.270405
-0.00692494
0.271112
-0.00199779
0.271892
0.000831905
0.272542
0.00190634
0.273056
0.00220278
0.00144356
0.41499
0.00364456
-0.415919
0.411703
-0.0031661
0.406483
-0.0100533
0.399244
-0.0165967
0.39008
-0.0227191
0.379481
-0.0279794
0.368142
-0.0318086
0.35678
-0.0339048
0.346041
-0.0342408
0.336475
-0.0328309
0.328558
-0.0296307
0.322654
-0.0247104
0.31888
-0.0185444
0.316997
-0.0120865
0.316485
-0.00641377
0.316757
-0.00226944
0.31735
0.000238666
0.317956
0.00130065
0.318494
0.0016645
0.00112787
0.469359
0.00321295
-0.468927
0.467366
-0.00117376
0.463208
-0.00589478
0.456988
-0.0103765
0.448786
-0.0145177
0.438954
-0.0181469
0.428091
-0.0209456
0.416857
-0.0226706
0.405858
-0.0232425
0.395651
-0.0226232
0.386763
-0.0207433
0.379669
-0.0176161
0.374652
-0.0135274
0.371665
-0.00909942
0.370329
-0.00507806
0.370091
-0.00203085
0.370435
-0.000105813
0.37096
0.000775678
0.371508
0.00111651
0.000782622
0.533143
0.00189464
-0.531824
0.532216
-0.000247165
0.528999
-0.00267761
0.52363
-0.00500723
0.51625
-0.00713838
0.507124
-0.00902086
0.496714
-0.010535
0.485589
-0.0115458
0.474326
-0.0119795
0.463497
-0.0117942
0.453694
-0.0109409
0.445492
-0.00941359
0.439311
-0.00734644
0.435262
-0.00505086
0.4331
-0.00291527
0.432322
-0.00125349
0.432387
-0.000171068
0.432812
0.0003511
0.433362
0.00056659
0.000409247
0.611647
-0.609752
0.6114
0.608722
0.603715
0.596577
0.587556
0.577021
0.565475
0.553495
0.541701
0.53076
0.521347
0.514
0.50895
0.506034
0.504781
0.50461
0.504961
0.505527
0.169615
0.022287
-0.168486
0.169996
0.0278605
0.169452
0.0331546
0.1678
0.0380448
0.164872
0.0423985
0.160549
0.0460869
0.154803
0.0490027
0.147757
0.0510843
0.139761
0.0523039
0.0524186
0.193782
0.0201976
-0.191693
0.195591
0.0260521
0.19698
0.0317657
0.197788
0.0372371
0.197836
0.0423496
0.196946
0.0469778
0.194949
0.0509995
0.191716
0.0543175
0.187109
0.0569107
0.0584254
0.219348
0.0176025
-0.216753
0.222082
0.0233177
0.224871
0.028977
0.227594
0.0345142
0.23009
0.0398528
0.232162
0.0449065
0.23358
0.049581
0.234124
0.0537735
0.233622
0.0574126
0.0600919
0.247632
0.0149103
-0.24494
0.25073
0.0202196
0.254199
0.0255087
0.257978
0.0307349
0.261981
0.0358494
0.266093
0.0407949
0.270168
0.0455064
0.274031
0.0499102
0.277495
0.053949
0.0573698
0.279654
0.0122659
-0.27701
0.282874
0.0169999
0.286663
0.0217191
0.291006
0.0263922
0.29587
0.0309856
0.301202
0.035463
0.306923
0.0397852
0.312924
0.0439092
0.31908
0.0477936
0.0513039
0.316181
0.00970147
-0.313617
0.319447
0.0137337
0.323416
0.0177505
0.328081
0.0217267
0.333431
0.0256362
0.339441
0.0294526
0.346078
0.0331484
0.353292
0.0366953
0.361022
0.0400639
0.0431856
0.358122
0.00722791
-0.355649
0.361412
0.0104438
0.365518
0.0136449
0.370434
0.0168103
0.376151
0.0199192
0.382653
0.0229507
0.389917
0.0258841
0.397913
0.0286989
0.406603
0.0313741
0.0338703
0.406917
0.00483072
-0.404519
0.410247
0.00711392
0.414506
0.0093854
0.419687
0.0116297
0.425774
0.0138315
0.43275
0.0159752
0.440588
0.018046
0.449258
0.0200291
0.458722
0.0219098
0.0236651
0.464767
0.00245775
-0.462394
0.468202
0.00367911
0.472693
0.00489434
0.478228
0.00609471
0.484788
0.00727153
0.492347
0.00841617
0.500873
0.00952015
0.510327
0.0105753
0.520663
0.0115735
0.0125039
0.535224
-0.532766
0.538903
0.543797
0.549892
0.557163
0.56558
0.5751
0.585675
0.597248
0.144542
-0.0304053
-0.142155
0.14745
-0.0267106
0.150471
-0.0221158
0.153509
-0.0171553
0.156494
-0.0119101
0.159381
-0.00646212
0.162112
-0.000847179
0.164607
0.00489378
0.166771
0.0107057
0.0165225
0.172085
-0.0321113
-0.170379
0.173954
-0.0285797
0.17593
-0.0240923
0.178014
-0.0192387
0.180187
-0.0140835
0.182439
-0.00871374
0.184754
-0.00316236
0.187103
0.00254507
0.189438
0.00837071
0.0142671
0.203511
-0.0325973
-0.203025
0.204186
-0.029255
0.204996
-0.0249021
0.205975
-0.0202182
0.207169
-0.0152772
0.208595
-0.0101401
0.210266
-0.00483309
0.212187
0.000623717
0.214355
0.00620276
0.0118696
0.238627
-0.0317619
-0.239463
0.237973
-0.0286011
0.237587
-0.0245155
0.2375
-0.0201318
0.237759
-0.0155358
0.238389
-0.0107697
0.239407
-0.00585142
0.24083
-0.000799843
0.242673
0.00436062
0.00960206
0.277342
-0.0296002
-0.279504
0.2754
-0.0266587
0.273864
-0.0229793
0.272777
-0.0190449
0.272171
-0.0149297
0.272067
-0.0106657
0.272483
-0.00626739
0.273436
-0.00175261
0.27494
0.00285576
0.00753269
0.320221
-0.0261312
-0.32369
0.317084
-0.0235211
0.314476
-0.0203715
0.312448
-0.0170166
0.311025
-0.0135068
0.310226
-0.00986677
0.310069
-0.00611084
0.310573
-0.00225592
0.311751
0.00167744
0.00566705
0.368307
-0.0213925
-0.373046
0.364041
-0.0192549
0.360417
-0.0167479
0.357484
-0.0140834
0.355269
-0.0112916
0.353792
-0.00839049
0.353075
-0.00539383
0.353136
-0.00231671
0.35399
0.000823557
0.00400849
0.423055
-0.0154346
-0.429013
0.417705
-0.013905
0.4131
-0.0121427
0.409285
-0.010269
0.406294
-0.00830058
0.404153
-0.00624961
0.402887
-0.00412722
0.402515
-0.00194525
0.403056
0.000283322
0.00254466
0.486659
-0.00829628
-0.493798
0.480243
-0.00748927
0.474666
-0.00656467
0.469975
-0.00557887
0.466214
-0.00453911
0.463416
-0.00345196
0.461613
-0.00232386
0.460829
-0.00116161
0.461085
2.74354e-05
0.00123548
0.562612
-0.570909
0.555123
0.548558
0.54298
0.53844
0.534988
0.532665
0.531503
0.53153
0.126778
0.00235796
-0.00227037
0.126535
0.00717905
-0.00693538
0.126143
0.0124268
-0.0120354
0.125609
0.0184791
-0.017945
0.12499
0.025683
-0.0250644
0.124346
0.0350954
-0.0344513
0.124156
0.0465478
-0.0463571
0.124566
0.0644671
-0.0648771
0.129566
0.0823722
-0.0873723
0.122033
-0.134623
0.147938
0.00241571
0.147774