/*--------------------------------*- C++ -*----------------------------------*\
  =========                 |
  \\      /  F ield         | OpenFOAM: The Open Source CFD Toolbox
   \\    /   O peration     | Website:  https://openfoam.org
    \\  /    A nd           | Version:  6.0
     \\/     M anipulation  |
\*---------------------------------------------------------------------------*/
FoamFile
{
    version     2.0;
    format      ascii;
    class       volScalarField;
    location    "6.25";
    object      p;
}
// * * * * * * * * * * * * * * * * * * * * * * * * * * * * * * * * * * * * * //

dimensions      [0 2 -2 0 0 0 0];

internalField   nonuniform List<scalar> 
9600
(
-104.193
-88.4186
-77.1772
-68.148
-60.1331
-53.1055
-46.9847
-41.6435
-36.9761
-32.8936
-29.3181
-26.1818
-23.4259
-20.9998
-18.8597
-16.9684
-15.2938
-13.807
-12.4836
-11.32
-104.636
-88.8654
-77.6041
-68.5444
-60.4988
-53.444
-47.2997
-41.9386
-37.2542
-33.1572
-29.5694
-26.4224
-23.657
-21.2225
-19.0748
-17.1766
-15.4956
-14.0024
-12.6725
-11.5048
-105.09
-89.3077
-78.0245
-68.9356
-60.8603
-53.7788
-47.6114
-42.2308
-37.5299
-33.419
-29.8192
-26.6617
-23.8872
-21.4445
-19.2895
-17.3845
-15.6972
-14.1978
-12.8614
-11.6901
-105.549
-89.7497
-78.4406
-69.322
-61.2174
-54.1095
-47.9196
-42.5199
-37.803
-33.6785
-30.0671
-26.8995
-24.1162
-21.6656
-19.5034
-17.5919
-15.8985
-14.3929
-13.0502
-11.8756
-106.011
-90.1903
-78.8529
-69.7038
-61.5699
-54.436
-48.224
-42.8057
-38.0732
-33.9355
-30.3128
-27.1356
-24.3437
-21.8855
-19.7165
-17.7987
-16.0994
-14.5878
-13.2391
-12.0616
-106.471
-90.6284
-79.2611
-70.0807
-61.9175
-54.7578
-48.5239
-43.0875
-38.3398
-34.1894
-30.5559
-27.3693
-24.5693
-22.1039
-19.9284
-18.0047
-16.2998
-14.7825
-13.428
-12.2482
-106.929
-91.0626
-79.6644
-70.4521
-62.2595
-55.0743
-48.819
-43.3648
-38.6024
-34.4398
-30.7959
-27.6005
-24.7927
-22.3204
-20.1388
-18.2096
-16.4995
-14.9768
-13.6171
-12.4354
-107.382
-91.4916
-80.0619
-70.8173
-62.5953
-55.3849
-49.1085
-43.637
-38.8604
-34.6859
-31.0322
-27.8283
-25.0133
-22.5347
-20.3474
-18.4131
-16.6983
-15.1707
-13.8061
-12.6233
-107.829
-91.9143
-80.4527
-71.1757
-62.9242
-55.6888
-49.3917
-43.9033
-39.113
-34.9272
-31.264
-28.0522
-25.2304
-22.746
-20.5536
-18.6148
-16.8958
-15.3639
-13.9951
-12.8121
-108.269
-92.3298
-80.836
-71.5263
-63.2455
-55.9852
-49.6678
-44.163
-39.3593
-35.1627
-31.4906
-28.2714
-25.4433
-22.9536
-20.7567
-18.814
-17.0915
-15.5559
-14.1837
-13.0013
-108.702
-92.7373
-81.2108
-71.8684
-63.5583
-56.2734
-49.936
-44.415
-39.5985
-35.3915
-31.7109
-28.4847
-25.651
-23.1565
-20.9557
-19.0099
-17.2845
-15.7461
-14.3713
-13.1907
-109.128
-93.1361
-81.5766
-72.2011
-63.8617
-56.5524
-50.1953
-44.6585
-39.8294
-35.6124
-31.9238
-28.6911
-25.8521
-23.3535
-21.1496
-19.2013
-17.474
-15.9336
-14.5572
-13.3793
-109.545
-93.5255
-81.9324
-72.5238
-64.155
-56.8214
-50.4447
-44.8924
-40.051
-35.8242
-32.1278
-28.889
-26.0453
-23.5431
-21.3366
-19.3868
-17.6587
-16.1174
-14.7407
-13.567
-109.955
-93.9049
-82.2776
-72.8357
-64.4374
-57.0795
-50.6835
-45.1158
-40.2622
-36.0257
-32.3216
-29.0768
-26.2285
-23.7231
-21.5146
-19.564
-17.8361
-16.2953
-14.9203
-13.7538
-110.355
-94.2732
-82.6113
-73.1361
-64.7084
-57.3262
-50.9107
-45.3277
-40.4618
-36.2156
-32.5038
-29.2529
-26.3999
-23.8911
-21.6807
-19.7296
-18.0023
-16.4632
-15.0921
-13.9363
-110.748
-94.6304
-82.933
-73.4246
-64.9672
-57.5606
-51.1256
-45.5271
-40.6488
-36.3926
-32.6728
-29.4155
-26.5577
-24.0454
-21.8328
-19.8809
-18.1542
-16.617
-15.2504
-14.1039
-111.14
-94.9796
-83.2427
-73.6999
-65.2126
-57.7813
-51.3268
-45.7128
-40.8219
-36.5554
-32.8269
-29.5627
-26.6994
-24.1833
-21.9688
-20.0169
-18.2923
-16.7582
-15.395
-14.2524
-111.544
-95.326
-83.5403
-73.9604
-65.4433
-57.9879
-51.5141
-45.8844
-40.9806
-36.7029
-32.9647
-29.6918
-26.8212
-24.2995
-22.082
-20.1307
-18.4107
-16.8835
-15.53
-14.4105
-111.959
-95.6685
-83.8251
-74.2064
-65.6606
-58.182
-51.6893
-46.0439
-41.1266
-36.8367
-33.0869
-29.8028
-26.921
-24.3886
-22.1614
-20.2028
-18.4785
-16.9535
-15.6259
-14.5886
-112.329
-95.9882
-84.0968
-74.4418
-65.8687
-58.368
-51.8566
-46.1954
-41.264
-36.9609
-33.1982
-29.9006
-27.0041
-24.4548
-22.2078
-20.2243
-18.468
-16.912
-15.5851
-14.5857
-115.454
-115.44
-115.382
-115.316
-115.242
-115.154
-115.049
-114.927
-114.789
-114.636
-114.469
-114.289
-114.096
-113.892
-113.678
-113.457
-113.229
-112.999
-112.773
-112.556
-98.7391
-98.7565
-98.7448
-98.7163
-98.6727
-98.6115
-98.5318
-98.434
-98.3197
-98.19
-98.0458
-97.8881
-97.7178
-97.5361
-97.3441
-97.1429
-96.9341
-96.7182
-96.4956
-96.2576
-86.4116
-86.4523
-86.4713
-86.4697
-86.4485
-86.4084
-86.3501
-86.2746
-86.1831
-86.0766
-85.956
-85.8223
-85.6764
-85.5192
-85.3514
-85.1738
-84.9865
-84.7887
-84.5785
-84.3502
-76.395
-76.4456
-76.4775
-76.489
-76.4806
-76.4539
-76.4102
-76.3505
-76.2758
-76.187
-76.085
-75.9706
-75.8447
-75.708
-75.5611
-75.4043
-75.2375
-75.0598
-74.8699
-74.6653
-67.5675
-67.6188
-67.6536
-67.6699
-67.6675
-67.6479
-67.6125
-67.5623
-67.498
-67.4206
-67.331
-67.2299
-67.1182
-66.9967
-66.8658
-66.7258
-66.5766
-66.4177
-66.2482
-66.0665
-59.904
-59.9518
-59.9846
-60.0007
-59.9996
-59.9824
-59.9503
-59.9043
-59.8454
-59.7742
-59.6918
-59.599
-59.4966
-59.3854
-59.266
-59.1387
-59.0035
-58.8602
-58.7078
-58.545
-53.2939
-53.3364
-53.365
-53.378
-53.3751
-53.3571
-53.3251
-53.2801
-53.223
-53.1546
-53.0758
-52.9876
-52.8908
-52.7864
-52.675
-52.557
-52.4326
-52.3016
-52.1631
-52.0159
-47.5741
-47.6107
-47.634
-47.6427
-47.6365
-47.616
-47.5824
-47.5365
-47.4791
-47.4113
-47.3338
-47.2478
-47.1542
-47.054
-46.9481
-46.8369
-46.7209
-46.5999
-46.4732
-46.3394
-42.6073
-42.6379
-42.6559
-42.6599
-42.6498
-42.6262
-42.59
-42.5423
-42.4837
-42.4152
-42.3377
-42.2524
-42.1603
-42.0626
-41.9603
-41.8543
-41.745
-41.6325
-41.516
-41.3943
-38.2807
-38.3059
-38.3187
-38.3182
-38.3042
-38.2773
-38.2385
-38.1885
-38.1281
-38.0583
-37.98
-37.8945
-37.8029
-37.7066
-37.6067
-37.5045
-37.4008
-37.2957
-37.1887
-37.0783
-34.4998
-34.5202
-34.5284
-34.5237
-34.5062
-34.4762
-34.4347
-34.3824
-34.3201
-34.2487
-34.1692
-34.0828
-33.991
-33.8951
-33.7968
-33.6975
-33.5983
-33.5
-33.402
-33.3028
-31.1857
-31.2018
-31.206
-31.1977
-31.177
-31.1443
-31.1003
-31.0458
-30.9816
-30.9084
-30.8274
-30.7399
-30.6472
-30.5512
-30.4535
-30.3561
-30.2608
-30.1686
-30.0795
-29.9917
-28.2726
-28.285
-28.2858
-28.2744
-28.2508
-28.2157
-28.1696
-28.1131
-28.047
-27.9722
-27.8896
-27.8005
-27.7066
-27.6096
-27.5118
-27.4154
-27.323
-27.2362
-27.1561
-27.0804
-25.7056
-25.7149
-25.7127
-25.6986
-25.6728
-25.6355
-25.5875
-25.5293
-25.4615
-25.385
-25.3007
-25.21
-25.1143
-25.0158
-24.9169
-24.8203
-24.7298
-24.6475
-24.5766
-24.5139
-23.4387
-23.4453
-23.4406
-23.4243
-23.3964
-23.3574
-23.3078
-23.2481
-23.1788
-23.1007
-23.0147
-22.922
-22.8243
-22.7235
-22.6225
-22.5244
-22.4343
-22.3552
-22.2935
-22.245
-21.4329
-21.4372
-21.4304
-21.4121
-21.3826
-21.3421
-21.2911
-21.23
-21.1593
-21.0797
-20.992
-20.8973
-20.7971
-20.6934
-20.5891
-20.4879
-20.3963
-20.3181
-20.2652
-20.2314
-19.6555
-19.6577
-19.6489
-19.629
-19.5979
-19.5561
-19.5038
-19.4414
-19.3694
-19.2883
-19.1988
-19.1018
-18.9987
-18.8911
-18.7823
-18.6757
-18.5798
-18.4994
-18.454
-18.4329
-18.0773
-18.078
-18.0678
-18.0467
-18.0145
-17.9717
-17.9185
-17.8551
-17.7819
-17.6995
-17.6082
-17.5089
-17.4026
-17.2908
-17.176
-17.0618
-16.9576
-16.8708
-16.8325
-16.8234
-16.6726
-16.6728
-16.6624
-16.6411
-16.6091
-16.5666
-16.5137
-16.4508
-16.378
-16.2957
-16.2043
-16.1044
-15.9966
-15.8821
-15.7624
-15.6406
-15.5249
-15.4258
-15.3917
-15.4129
-15.4262
-15.4233
-15.4105
-15.3875
-15.3545
-15.3114
-15.2585
-15.196
-15.124
-15.0428
-14.9525
-14.8537
-14.7464
-14.6315
-14.5093
-14.3818
-14.252
-14.1303
-14.0642
-14.1242
-109.623
-110.108
-110.54
-110.974
-111.41
-111.836
-112.241
-112.624
-112.984
-113.321
-113.633
-113.92
-114.182
-114.418
-114.63
-114.817
-114.981
-115.124
-115.251
-115.364
-92.8303
-93.3263
-93.7932
-94.2492
-94.6947
-95.1228
-95.5293
-95.913
-96.2738
-96.6112
-96.9249
-97.2144
-97.4795
-97.7203
-97.9371
-98.1302
-98.3007
-98.4489
-98.5753
-98.6752
-80.5976
-81.086
-81.557
-82.01
-82.4445
-82.8593
-83.2533
-83.6259
-83.9769
-84.3059
-84.6125
-84.8966
-85.1579
-85.3964
-85.6122
-85.8054
-85.9762
-86.124
-86.2481
-86.3452
-70.8306
-71.2959
-71.7474
-72.1803
-72.5932
-72.9867
-73.3608
-73.715
-74.0491
-74.3626
-74.6552
-74.9267
-75.177
-75.406
-75.6136
-75.7998
-75.9645
-76.1072
-76.2274
-76.3241
-62.3342
-62.7706
-63.1952
-63.6029
-63.9916
-64.3617
-64.7133
-65.0461
-65.3598
-65.6541
-65.9287
-66.1835
-66.4183
-66.6333
-66.8282
-67.003
-67.1576
-67.2918
-67.4054
-67.498
-55.0247
-55.4335
-55.8316
-56.2143
-56.5791
-56.9258
-57.2547
-57.5655
-57.8581
-58.1321
-58.3875
-58.6242
-58.8421
-59.0413
-59.2217
-59.3833
-59.526
-59.6497
-59.7543
-59.8397
-48.7567
-49.1411
-49.5152
-49.8747
-50.2171
-50.5418
-50.8493
-51.1392
-51.4115
-51.6661
-51.903
-52.1221
-52.3234
-52.507
-52.6729
-52.8211
-52.9516
-53.0643
-53.1592
-53.2361
-43.351
-43.7144
-44.0675
-44.4062
-44.7283
-45.0332
-45.3211
-45.592
-45.8458
-46.0825
-46.3023
-46.5051
-46.6911
-46.8602
-47.0126
-47.1482
-47.2671
-47.3693
-47.4546
-47.5232
-38.665
-39.0105
-39.3453
-39.6659
-39.9701
-40.2573
-40.5278
-40.7815
-41.0187
-41.2394
-41.4438
-41.632
-41.8041
-41.9602
-42.1004
-42.2246
-42.333
-42.4255
-42.5021
-42.563
-34.5861
-34.9164
-35.2358
-35.5408
-35.8293
-36.1008
-36.3557
-36.5942
-36.8165
-37.0229
-37.2135
-37.3887
-37.5486
-37.6931
-37.8225
-37.9367
-38.0357
-38.1197
-38.1885
-38.2424
-31.0227
-31.3403
-31.6468
-31.9383
-32.2131
-32.4707
-32.7116
-32.9364
-33.1453
-33.3389
-33.5173
-33.681
-33.8299
-33.9643
-34.0842
-34.1896
-34.2805
-34.357
-34.4191
-34.4669
-27.8995
-28.2069
-28.5026
-28.7827
-29.0452
-29.2902
-29.5185
-29.7308
-29.9277
-30.1097
-30.2772
-30.4306
-30.57
-30.6955
-30.807
-30.9048
-30.9886
-31.0587
-31.1149
-31.1574
-25.1546
-25.4538
-25.741
-26.0113
-26.2627
-26.496
-26.7127
-26.9135
-27.0994
-27.271
-27.4287
-27.5729
-27.7038
-27.8215
-27.9258
-28.0169
-28.0947
-28.1592
-28.2103
-28.2483
-22.7364
-23.0295
-23.3103
-23.5719
-23.813
-24.0354
-24.2411
-24.4312
-24.607
-24.769
-24.9179
-25.0539
-25.1773
-25.2881
-25.3862
-25.4715
-25.5441
-25.6038
-25.6506
-25.6847
-20.6022
-20.8916
-21.1675
-21.421
-21.6521
-21.864
-22.0592
-22.2392
-22.4054
-22.5587
-22.6996
-22.8284
-22.9452
-23.05
-23.1426
-23.223
-23.291
-23.3467
-23.3898
-23.4206
-18.7147
-19.0053
-19.2778
-19.5227
-19.7435
-19.945
-20.1299
-20.3003
-20.4576
-20.6028
-20.7365
-20.8588
-20.9698
-21.0693
-21.1572
-21.2333
-21.2974
-21.3495
-21.3895
-21.4174
-17.0338
-17.3361
-17.6095
-17.8448
-18.0545
-18.2456
-18.4205
-18.5817
-18.7308
-18.8688
-18.9961
-19.1127
-19.2187
-19.3137
-19.3974
-19.4698
-19.5306
-19.5796
-19.6168
-19.6422
-15.5167
-15.8391
-16.1215
-16.3496
-16.5487
-16.7297
-16.8956
-17.0488
-17.1911
-17.3232
-17.4454
-17.5577
-17.6598
-17.7514
-17.8321
-17.9018
-17.9601
-18.0069
-18.042
-18.0656
-14.1769
-14.4963
-14.7856
-15.0143
-15.2052
-15.3757
-15.533
-15.6793
-15.8154
-15.9423
-16.0602
-16.1689
-16.2679
-16.3568
-16.4353
-16.503
-16.5596
-16.6051
-16.639
-16.6616
-13.2091
-13.4744
-13.7042
-13.9294
-14.1102
-14.2597
-14.3994
-14.532
-14.6557
-14.771
-14.8783
-14.9775
-15.0678
-15.1488
-15.2199
-15.2808
-15.3314
-15.3714
-15.4005
-15.4189
-7.75332
-8.80227
-10.0026
-11.354
-12.8784
-14.6016
-16.5515
-18.7607
-21.268
-24.1193
-27.3695
-31.0852
-35.3478
-40.2584
-45.949
-52.5929
-60.3446
-69.3219
-80.7929
-96.9962
-7.99518
-9.05202
-10.2565
-11.6136
-13.1449
-14.8758
-16.8345
-19.0537
-21.5723
-24.4365
-27.7014
-31.4342
-35.7167
-40.6507
-46.3689
-53.0453
-60.8339
-69.8489
-81.3508
-97.5707
-8.24189
-9.30655
-10.5153
-11.8784
-13.4169
-15.156
-17.1238
-19.3534
-21.8837
-24.7612
-28.0415
-31.792
-36.095
-41.0531
-46.7993
-53.5084
-61.3339
-70.3856
-81.9131
-98.1358
-8.49263
-9.56497
-10.7782
-12.1474
-13.6934
-15.4409
-17.4182
-19.6583
-22.2007
-25.0919
-28.3879
-32.1564
-36.4805
-41.4629
-47.2375
-53.9793
-61.8416
-70.9315
-82.4897
-98.7238
-8.7467
-9.82659
-11.0443
-12.42
-13.9738
-15.7299
-17.7168
-19.9678
-22.5225
-25.4276
-28.7395
-32.5264
-36.8716
-41.8787
-47.682
-54.4567
-62.3561
-71.4859
-83.0803
-99.3342
-9.00353
-10.0908
-11.3132
-12.6957
-14.2575
-16.0225
-18.0193
-20.2814
-22.8485
-25.7678
-29.0959
-32.9013
-37.268
-42.3001
-48.1323
-54.9403
-62.8773
-72.0478
-83.6806
-99.9584
-9.26262
-10.3572
-11.5844
-12.974
-14.5441
-16.3183
-18.3252
-20.5986
-23.1785
-26.1122
-29.4566
-33.2809
-37.6694
-42.7267
-48.5883
-55.43
-63.4049
-72.6162
-84.2877
-100.591
-9.5236
-10.6253
-11.8575
-13.2544
-14.8332
-16.6168
-18.634
-20.919
-23.5118
-26.4601
-29.8212
-33.6645
-38.075
-43.1579
-49.0492
-55.925
-63.9381
-73.1901
-84.9003
-101.23
-9.78617
-10.8948
-12.1321
-13.5368
-15.1245
-16.9176
-18.9454
-21.2421
-23.848
-26.8112
-30.1891
-34.0516
-38.4844
-43.593
-49.5142
-56.4244
-64.4759
-73.7686
-85.5174
-101.874
-10.0502
-11.1655
-12.4081
-13.8208
-15.4177
-17.2206
-19.259
-21.5675
-24.1867
-27.1648
-30.5596
-34.4416
-38.8967
-44.0313
-49.9825
-56.9272
-65.0172
-74.3507
-86.1381
-102.522
-10.3158
-11.4376
-12.6855
-14.1065
-15.7127
-17.5254
-19.5746
-21.895
-24.5275
-27.5205
-30.9323
-34.8336
-39.3112
-44.4718
-50.4532
-57.4325
-65.5612
-74.9354
-86.7612
-103.172
-10.5833
-11.7112
-12.9644
-14.3939
-16.0095
-17.8321
-19.8919
-22.2242
-24.8699
-27.8777
-31.3064
-35.2272
-39.7271
-44.9138
-50.9254
-57.9394
-66.1066
-75.5213
-87.3852
-103.823
-10.8533
-11.9869
-13.2453
-14.6832
-16.3081
-18.1405
-20.2109
-22.5548
-25.2134
-28.236
-31.6814
-35.6214
-40.1436
-45.3563
-51.3981
-58.4466
-66.6523
-76.1075
-88.0091
-104.474
-11.1269
-12.2655
-13.5285
-14.9747
-16.6087
-18.4504
-20.531
-22.8862
-25.5576
-28.5945
-32.0564
-36.0155
-40.5598
-45.7982
-51.87
-58.9531
-67.1972
-76.6925
-88.6316
-105.123
-11.4055
-12.5481
-13.815
-15.2689
-16.9113
-18.7618
-20.8521
-23.2181
-25.9017
-28.9527
-32.4307
-36.4084
-40.9745
-46.2384
-52.34
-59.4574
-67.7398
-77.2754
-89.2518
-105.769
-11.6909
-12.8353
-14.1044
-15.565
-17.2151
-19.0739
-21.1733
-23.5496
-26.245
-29.3094
-32.803
-36.799
-41.3866
-46.6756
-52.8066
-59.958
-68.2787
-77.8547
-89.8688
-106.413
-11.9861
-13.1295
-14.398
-15.8634
-17.5202
-19.3863
-21.4938
-23.8797
-26.5862
-29.6635
-33.1723
-37.186
-41.7946
-47.1083
-53.2683
-60.4532
-68.8119
-78.4289
-90.4822
-107.053
-12.288
-13.4237
-14.6892
-16.1598
-17.8236
-19.6969
-21.8122
-24.2071
-26.924
-30.0137
-33.5371
-37.568
-42.197
-47.535
-53.7233
-60.9411
-69.3371
-78.9955
-91.0908
-107.693
-12.6058
-13.7226
-14.9798
-16.4554
-18.1257
-20.0048
-22.1269
-24.53
-27.2568
-30.3583
-33.8956
-37.9432
-42.592
-47.9535
-54.1696
-61.4194
-69.8514
-79.5509
-91.6932
-108.336
-12.8813
-13.9702
-15.2467
-16.7431
-18.4229
-20.3076
-22.4359
-24.8468
-27.583
-30.6956
-34.2463
-38.31
-42.9779
-48.3621
-54.6049
-61.8855
-70.3511
-80.0878
-92.2791
-108.987
-4.79119
-5.54743
-6.5862
-7.82121
-9.22515
-10.8187
-12.631
-14.6921
-17.0365
-19.7055
-22.7482
-26.2237
-30.204
-34.7782
-40.0641
-46.2199
-53.389
-61.6981
-72.4803
-88.1519
-4.94332
-5.73834
-6.79277
-8.01394
-9.40038
-10.9814
-12.7852
-14.8405
-17.1812
-19.8484
-22.8911
-26.3684
-30.3524
-34.9324
-40.227
-46.3955
-53.5813
-61.9075
-72.7003
-88.3713
-4.96307
-5.83127
-6.91835
-8.15144
-9.54382
-11.1282
-12.9335
-14.9893
-17.3308
-19.9995
-23.0447
-26.5259
-30.5154
-35.1031
-40.408
-46.5902
-53.7935
-62.1369
-72.9332
-88.583
-5.01684
-5.91265
-7.01665
-8.26368
-9.66819
-11.2621
-13.0744
-15.1357
-17.4819
-20.1552
-23.2055
-26.6928
-30.6897
-35.2867
-40.6032
-46.8002
-54.022
-62.386
-73.1959
-88.84
-5.09547
-6.00216
-7.11733
-8.37529
-9.79012
-11.3933
-13.2136
-15.2822
-17.6352
-20.3153
-23.3727
-26.8676
-30.8736
-35.4814
-40.8111
-47.0242
-54.2661
-62.6549
-73.4886
-89.1421
-5.17605
-6.09602
-7.22261
-8.49056
-9.91483
-11.5269
-13.3556
-15.4322
-17.7931
-20.4811
-23.5469
-27.051
-31.0674
-35.6874
-41.0319
-47.2629
-54.527
-62.9429
-73.8053
-89.4761
-5.26168
-6.19589
-7.33285
-8.61016
-10.0438
-11.665
-13.5025
-15.5877
-17.9572
-20.6541
-23.7292
-27.2436
-31.2717
-35.9054
-41.2662
-47.5168
-54.8048
-63.2495
-74.1426
-89.8344
-5.36027
-6.30633
-7.45157
-8.73706
-10.1794
-11.8095
-13.656
-15.7501
-18.1288
-20.8352
-23.9205
-27.4462
-31.4871
-36.1357
-41.5142
-47.7861
-55.0996
-63.5743
-74.4995
-90.2151
-5.47394
-6.4297
-7.58156
-8.87406
-10.3243
-11.9628
-13.8179
-15.921
-18.309
-21.0254
-24.1216
-27.6593
-31.7139
-36.3785
-41.7759
-48.0705
-55.4111
-63.9173
-74.8762
-90.6178
-5.60185
-6.56634
-7.72384
-9.02247
-10.4799
-12.1262
-13.9896
-16.1015
-18.4989
-21.2255
-24.333
-27.8834
-31.9524
-36.6339
-42.0515
-48.3701
-55.7391
-64.2784
-75.2724
-91.0418
-5.74327
-6.71608
-7.87852
-9.18265
-10.6467
-12.3004
-14.1718
-16.2924
-18.6993
-21.4363
-24.5553
-28.1189
-32.203
-36.9023
-42.3409
-48.6847
-56.0836
-64.6573
-75.6877
-91.4863
-5.89788
-6.87864
-8.04548
-9.35464
-10.8249
-12.4857
-14.3649
-16.494
-18.9104
-21.658
-24.7889
-28.366
-32.4659
-37.1837
-42.6443
-49.0144
-56.4444
-65.0537
-76.1215
-91.9503
-6.06516
-7.05359
-8.22441
-9.53826
-11.0145
-12.6821
-14.569
-16.7066
-19.1325
-21.8908
-25.0338
-28.6249
-32.7411
-37.4781
-42.9616
-49.359
-56.8213
-65.4673
-76.5736
-92.4333
-6.24434
-7.24026
-8.4148
-9.73314
-11.2152
-12.8895
-14.7839
-16.9301
-19.3655
-22.1346
-25.2901
-28.8955
-33.0284
-37.7853
-43.2925
-49.7183
-57.2139
-65.8978
-77.0435
-92.935
-6.43448
-7.43783
-8.61593
-9.93867
-11.4264
-13.1074
-15.0093
-17.1641
-19.6092
-22.3893
-25.5575
-29.1776
-33.3278
-38.1051
-43.6368
-50.0918
-57.6219
-66.345
-77.5311
-93.4549
-6.63465
-7.64543
-8.82704
-10.1542
-11.6477
-13.3353
-15.2449
-17.4082
-19.8632
-22.6545
-25.8356
-29.4709
-33.6388
-38.4372
-43.9941
-50.4791
-58.0447
-66.8083
-78.0363
-93.9934
-6.84389
-7.86214
-9.04726
-10.3789
-11.8782
-13.5726
-15.4899
-17.662
-20.127
-22.9298
-26.1242
-29.7748
-33.961
-38.781
-44.3637
-50.8795
-58.4818
-67.2874
-78.5591
-94.5508
-7.06127
-8.08706
-9.27578
-10.6121
-12.1173
-13.8186
-15.7437
-17.9249
-20.4001
-23.2146
-26.4226
-30.089
-34.2938
-39.136
-44.7451
-51.2924
-58.932
-67.781
-79.0992
-95.1287
-7.28586
-8.31927
-9.5117
-10.8528
-12.3642
-14.0726
-16.0058
-18.1961
-20.6818
-23.5083
-26.7301
-30.4127
-34.6365
-39.5013
-45.1373
-51.7166
-59.3939
-68.2873
-79.6561
-95.7295
-7.51686
-8.558
-9.7543
-11.1005
-12.6183
-14.334
-16.2754
-18.4751
-20.9715
-23.8103
-27.0462
-30.7453
-34.9884
-39.8761
-45.5394
-52.1511
-59.8659
-68.8026
-80.2242
-96.3562
-4.235
-4.00346
-3.90357
-3.85619
-3.837
-3.83399
-3.84519
-3.86822
-3.90237
-3.9468
-4.001
-4.06447
-4.13677
-4.21745
-4.30611
-4.40234
-4.50571
-4.61583
-4.73238
-4.85518
-5.2406
-5.05018
-4.92423
-4.85891
-4.8269
-4.81663
-4.82317
-4.84334
-4.87575
-4.91923
-4.97305
-5.03658
-5.10925
-5.19058
-5.28009
-5.37734
-5.48188
-5.59326
-5.71112
-5.83528
-6.33675
-6.17551
-6.05243
-5.97925
-5.93819
-5.92157
-5.92365
-5.94105
-5.97185
-6.01464
-6.06848
-6.1326
-6.20635
-6.28916
-6.38053
-6.47995
-6.58696
-6.70107
-6.82189
-6.94925
-7.60969
-7.45682
-7.33719
-7.2589
-7.21036
-7.18692
-7.18339
-7.1966
-7.22437
-7.26512
-7.31775
-7.38136
-7.45519
-7.53862
-7.63107
-7.73201
-7.8409
-7.95722
-8.08056
-8.2108
-9.04466
-8.89921
-8.78285
-8.70153
-8.64797
-8.61912
-8.61076
-8.6201
-8.64494
-8.68367
-8.73506
-8.79812
-8.87201
-8.95604
-9.04957
-9.15201
-9.2628
-9.38136
-9.50725
-9.64042
-10.6587
-10.5217
-10.4096
-10.3271
-10.2705
-10.2377
-10.2256
-10.2317
-10.2541
-10.2911
-10.3415
-10.4043
-10.4784
-10.5633
-10.6581
-10.7623
-10.8753
-10.9964
-11.1251
-11.2616
-12.4837
-12.354
-12.2461
-12.1636
-12.1052
-12.0696
-12.0546
-12.0581
-12.0784
-12.114
-12.1636
-12.2263
-12.3009
-12.3868
-12.4832
-12.5895
-12.7049
-12.8288
-12.9608
-13.1009
-14.5529
-14.4288
-14.3244
-14.2425
-14.1831
-14.1455
-14.1282
-14.1296
-14.1482
-14.1827
-14.2318
-14.2945
-14.3699
-14.4571
-14.5554
-14.664
-14.7822
-14.9094
-15.045
-15.1893
-16.9025
-16.7825
-16.6807
-16.5996
-16.5396
-16.5006
-16.4815
-16.4812
-16.4985
-16.5322
-16.5811
-16.6443
-16.7207
-16.8096
-16.9101
-17.0215
-17.143
-17.2738
-17.4137
-17.5627
-19.5746
-19.4571
-19.3571
-19.2764
-19.216
-19.1759
-19.1554
-19.1539
-19.1703
-19.2035
-19.2525
-19.3164
-19.3943
-19.4852
-19.5884
-19.7031
-19.8284
-19.9636
-20.1083
-20.2628
-22.6185
-22.5023
-22.403
-22.3223
-22.2612
-22.22
-22.1985
-22.1959
-22.2116
-22.2447
-22.2942
-22.3592
-22.4388
-22.5323
-22.6387
-22.7573
-22.8871
-23.0272
-23.1775
-23.3383
-26.0936
-25.977
-25.8772
-25.7957
-25.7335
-25.691
-25.6682
-25.6647
-25.6799
-25.713
-25.7631
-25.8296
-25.9114
-26.0078
-26.118
-26.241
-26.3759
-26.5218
-26.6785
-26.8465
-30.0715
-29.9528
-29.851
-29.7674
-29.7032
-29.6588
-29.6343
-29.6296
-29.644
-29.6771
-29.728
-29.796
-29.8803
-29.98
-30.0943
-30.2224
-30.363
-30.5153
-30.6791
-30.8551
-34.6411
-34.5179
-34.412
-34.3245
-34.2568
-34.2093
-34.1822
-34.1755
-34.1886
-34.2213
-34.2727
-34.3421
-34.4288
-34.5319
-34.6506
-34.7839
-34.9308
-35.0901
-35.2616
-35.4464
-39.9193
-39.7885
-39.6756
-39.5818
-39.5083
-39.4558
-39.4244
-39.4142
-39.425
-39.4562
-39.5073
-39.5775
-39.6661
-39.7722
-39.8952
-40.0339
-40.1872
-40.3538
-40.5335
-40.7274
-46.0635
-45.9213
-45.7976
-45.6938
-45.6113
-45.5507
-45.5124
-45.4966
-45.5028
-45.5308
-45.58
-45.6497
-45.7391
-45.8474
-45.9738
-46.1174
-46.2768
-46.4506
-46.6381
-46.8406
-53.2167
-53.0583
-52.9184
-52.7993
-52.7028
-52.6297
-52.5807
-52.5556
-52.5543
-52.5763
-52.621
-52.6878
-52.7758
-52.8843
-53.0125
-53.1593
-53.3234
-53.5032
-53.6976
-53.9077
-61.5052
-61.3223
-61.1569
-61.0145
-60.8971
-60.8061
-60.7413
-60.7026
-60.6895
-60.7016
-60.7381
-60.7984
-60.8818
-60.9873
-61.1139
-61.2607
-61.4268
-61.6114
-61.8131
-62.0309
-72.2481
-72.0215
-71.8169
-71.6426
-71.4986
-71.3846
-71.2998
-71.2433
-71.2144
-71.2126
-71.2371
-71.2873
-71.3624
-71.4616
-71.5836
-71.7277
-71.8947
-72.0867
-72.3023
-72.5304
-87.8311
-87.5377
-87.2917
-87.0869
-86.9186
-86.7835
-86.6798
-86.6063
-86.5622
-86.5468
-86.5594
-86.5996
-86.6668
-86.7604
-86.8792
-87.0232
-87.1953
-87.4019
-87.6419
-87.8826
-4.98382
-5.11741
-5.2558
-5.39867
-5.54581
-5.69699
-5.85201
-6.01068
-6.17277
-6.33805
-6.50619
-6.67653
-6.8475
-7.01702
-7.18362
-7.34311
-7.47916
-7.57191
-7.62606
-7.65727
-5.96542
-6.10055
-6.24053
-6.38499
-6.53368
-6.68633
-6.8427
-7.00252
-7.16551
-7.33131
-7.49941
-7.66902
-7.83873
-8.00636
-8.16921
-8.32422
-8.46483
-8.57158
-8.61805
-8.66397
-7.08287
-7.22166
-7.3655
-7.51398
-7.66683
-7.82371
-7.98435
-8.14842
-8.31556
-8.48531
-8.65705
-8.82987
-9.00241
-9.17268
-9.33801
-9.49572
-9.64219
-9.76542
-9.84885
-9.93293
-8.34763
-8.48985
-8.63738
-8.78974
-8.94664
-9.1077
-9.27259
-9.44092
-9.61224
-9.78603
-9.96157
-10.1379
-10.3136
-10.4868
-10.6553
-10.8166
-10.9675
-11.1009
-11.2139
-11.3343
-9.78052
-9.92625
-10.0775
-10.2338
-10.3948
-10.56
-10.7292
-10.9018
-11.0774
-11.2552
-11.4347
-11.6147
-11.7939
-11.9706
-12.143
-12.309
-12.4656
-12.6089
-12.7421
-12.8855
-11.4053
-11.5549
-11.7102
-11.8708
-12.0362
-12.2061
-12.3799
-12.5572
-12.7374
-12.9199
-13.1038
-13.2882
-13.4718
-13.6531
-13.8306
-14.0027
-14.167
-14.3216
-14.4714
-14.6299
-13.2487
-13.4026
-13.5624
-13.7278
-13.8982
-14.0732
-14.2522
-14.4348
-14.6203
-14.8081
-14.9974
-15.1871
-15.3761
-15.5632
-15.7472
-15.9267
-16.1001
-16.267
-16.4318
-16.6031
-15.3417
-15.5004
-15.6654
-15.8361
-16.0121
-16.1929
-16.3778
-16.5665
-16.7581
-16.9521
-17.1477
-17.3438
-17.5395
-17.7338
-17.9255
-18.1138
-18.2975
-18.4771
-18.6561
-18.8401
-17.7203
-17.8846
-18.0554
-18.2322
-18.4146
-18.6019
-18.7937
-18.9893
-19.1881
-19.3894
-19.5924
-19.7963
-20.0001
-20.2029
-20.4039
-20.6023
-20.7976
-20.9903
-21.1832
-21.3802
-20.4265
-20.5971
-20.7746
-20.9584
-21.148
-21.3429
-21.5426
-21.7463
-21.9534
-22.1632
-22.3751
-22.5881
-22.8015
-23.0144
-23.2262
-23.4364
-23.6444
-23.851
-24.0583
-24.2694
-23.5089
-23.6867
-23.8718
-24.0636
-24.2617
-24.4653
-24.6739
-24.887
-25.1038
-25.3237
-25.5459
-25.7697
-25.9943
-26.2191
-26.4435
-26.667
-26.8894
-27.111
-27.3336
-27.5601
-27.0249
-27.2109
-27.4047
-27.6056
-27.8131
-28.0266
-28.2457
-28.4695
-28.6975
-28.9289
-29.1632
-29.3995
-29.6373
-29.8759
-30.1147
-30.3535
-30.5919
-30.83
-31.0695
-31.3131
-31.0424
-31.2375
-31.4409
-31.6519
-31.8701
-32.0948
-32.3255
-32.5616
-32.8023
-33.0471
-33.2952
-33.546
-33.7988
-34.0532
-34.3086
-34.5647
-34.821
-35.0775
-35.3356
-35.5984
-35.6432
-35.8482
-36.062
-36.284
-36.5139
-36.751
-36.9946
-37.2443
-37.4993
-37.7589
-38.0226
-38.2897
-38.5596
-38.8318
-39.1059
-39.3815
-39.6579
-39.9348
-40.2137
-40.4978
-40.9339
-41.1491
-41.3737
-41.6073
-41.8494
-42.0996
-42.3571
-42.6214
-42.8919
-43.1678
-43.4486
-43.7336
-44.0223
-44.3142
-44.609
-44.9061
-45.2049
-45.5046
-45.8065
-46.114
-47.0565
-47.2815
-47.5165
-47.7614
-48.0158
-48.279
-48.5507
-48.8301
-49.1166
-49.4095
-49.7084
-50.0124
-50.3212
-50.6342
-50.9511
-51.2716
-51.5947
-51.9192
-52.2459
-52.578
-54.1319
-54.3652
-54.609
-54.8635
-55.1285
-55.4036
-55.6884
-55.9822
-56.2843
-56.5939
-56.9106
-57.2337
-57.5627
-57.8971
-58.2366
-58.5808
-58.9289
-59.2793
-59.6318
-59.9896
-62.2611
-62.4985
-62.7461
-63.0059
-63.2781
-63.5623
-63.8577
-64.1635
-64.479
-64.8033
-65.1358
-65.476
-65.8234
-66.1775
-66.5376
-66.9034
-67.275
-67.6523
-68.0345
-68.4211
-72.7546
-72.9836
-73.2258
-73.4847
-73.7592
-74.0481
-74.3501
-74.6639
-74.9885
-75.3233
-75.6675
-76.0207
-76.3825
-76.7524
-77.1296
-77.5141
-77.9088
-78.3189
-78.7435
-79.1648
-88.0673
-88.2699
-88.5007
-88.7547
-89.0281
-89.3177
-89.6218
-89.9388
-90.2677
-90.6078
-90.9586
-91.3199
-91.6918
-92.0741
-92.4664
-92.8698
-93.2909
-93.7422
-94.2231
-94.6802
-95.0189
-79.5569
-68.8075
-60.3516
-52.9145
-46.4259
-40.7864
-35.8655
-31.561
-27.791
-24.4852
-21.5827
-19.0308
-16.7839
-14.8028
-13.0524
-11.498
-10.1108
-8.9031
-7.89514
-95.3664
-79.9365
-69.1868
-60.7112
-53.2497
-46.737
-41.0749
-36.1332
-31.8102
-28.0237
-24.7035
-21.7883
-19.2254
-16.9692
-14.9803
-13.224
-11.6682
-10.2919
-9.10922
-8.10022
-95.7416
-80.3194
-69.5655
-61.0718
-53.5868
-47.0502
-41.3655
-36.4034
-32.062
-28.2595
-24.9251
-21.9977
-19.4243
-17.1592
-15.1628
-13.4005
-11.8412
-10.4633
-9.27146
-8.23632
-96.1379
-80.713
-69.9483
-61.4353
-53.9267
-47.3659
-41.6587
-36.6762
-32.3167
-28.4982
-25.15
-22.2106
-19.6267
-17.3525
-15.3482
-13.5793
-12.0148
-10.6319
-9.43005
-8.37829
-96.5501
-81.1169
-70.3371
-61.8028
-54.2699
-47.6848
-41.9549
-36.9519
-32.5743
-28.7401
-25.3782
-22.4268
-19.8325
-17.5491
-15.5367
-13.7604
-12.1891
-10.7994
-9.58714
-8.52318
-96.9747
-81.5307
-70.7324
-62.175
-54.6168
-48.007
-42.2541
-37.2306
-32.835
-28.985
-25.6094
-22.6461
-20.0414
-17.7488
-15.7282
-13.9446
-12.3667
-10.9706
-9.74999
-8.67651
-97.4096
-81.953
-71.1343
-62.552
-54.9677
-48.3325
-42.5564
-37.5123
-33.0986
-29.233
-25.8438
-22.8686
-20.2536
-17.9518
-15.923
-14.132
-12.5475
-11.1455
-9.91738
-8.83583
-97.8535
-82.383
-71.5423
-62.9338
-55.3224
-48.6614
-42.8618
-37.7969
-33.3652
-29.4838
-26.081
-23.0941
-20.4687
-18.1579
-16.121
-14.3227
-12.732
-11.3244
-10.0894
-9.00044
-98.3056
-82.82
-71.956
-63.3202
-55.6809
-48.9936
-43.1702
-38.0843
-33.6344
-29.7374
-26.321
-23.3224
-20.6868
-18.3669
-16.322
-14.5166
-12.9197
-11.5066
-10.2649
-9.16901
-98.7652
-83.2634
-72.375
-63.7108
-56.0429
-49.3288
-43.4813
-38.3743
-33.9062
-29.9935
-26.5636
-23.5532
-20.9074
-18.5786
-16.5257
-14.7133
-13.1102
-11.6916
-10.4432
-9.34068
-99.232
-83.7128
-72.7988
-64.1054
-56.4081
-49.6667
-43.7949
-38.6667
-34.1802
-30.2518
-26.8084
-23.7864
-21.1304
-18.7926
-16.7318
-14.9123
-13.3031
-11.8788
-10.6238
-9.5147
-99.7055
-84.1676
-73.227
-64.5035
-56.7762
-50.007
-44.1106
-38.9611
-34.4563
-30.5121
-27.0552
-24.0215
-21.3554
-19.0087
-16.9399
-15.1133
-13.4978
-12.0677
-10.806
-9.69054
-100.186
-84.6275
-73.6591
-64.9046
-57.1467
-50.3494
-44.4282
-39.2572
-34.734
-30.7741
-27.3037
-24.2584
-21.5821
-19.2264
-17.1497
-15.3159
-13.694
-12.258
-10.9896
-9.8678
-100.672
-85.0918
-74.0945
-65.3083
-57.5192
-50.6934
-44.7472
-39.5547
-35.0131
-31.0375
-27.5536
-24.4966
-21.8102
-19.4456
-17.3609
-15.5199
-13.8915
-12.4494
-11.1741
-10.0462
-101.164
-85.5597
-74.5326
-65.714
-57.8932
-51.0387
-45.0673
-39.8532
-35.2932
-31.3019
-27.8046
-24.736
-22.0394
-19.6659
-17.5731
-15.7249
-14.0899
-12.6416
-11.3594
-10.2256
-101.662
-86.0308
-74.9726
-66.1212
-58.2683
-51.3846
-45.3879
-40.1522
-35.5739
-31.567
-28.0564
-24.9762
-22.2695
-19.887
-17.7863
-15.9308
-14.2892
-12.8346
-11.5453
-10.4058
-102.169
-86.5063
-75.4142
-66.5288
-58.6432
-51.7301
-45.7082
-40.4511
-35.8546
-31.8323
-28.3084
-25.2168
-22.5001
-20.1088
-18.0001
-16.1373
-14.4891
-13.028
-11.7318
-10.5868
-102.692
-86.9886
-75.8567
-66.9353
-59.0168
-52.0744
-46.0274
-40.7491
-36.1347
-32.0972
-28.5603
-25.4575
-22.7309
-20.3308
-18.2142
-16.3443
-14.6894
-13.222
-11.9188
-10.7686
-103.229
-87.4767
-76.2991
-67.3402
-59.389
-52.4179
-46.346
-41.0466
-36.4145
-32.362
-28.8123
-25.6983
-22.9619
-20.5531
-18.4287
-16.5516
-14.8902
-13.4164
-12.1064
-10.9514
-103.749
-87.9589
-76.7405
-67.745
-59.7617
-52.7621
-46.6655
-41.3451
-36.6953
-32.6277
-29.065
-25.9398
-23.1936
-20.7761
-18.6439
-16.7597
-15.0917
-13.6114
-12.2947
-11.1352
-8.16005
-5.11795
-3.45945
-2.36013
-1.69942
-1.26043
-0.975861
-0.787628
-0.665083
-0.586749
-0.538976
-0.512212
-0.499906
-0.497347
-0.501097
-0.508431
-0.516844
-0.523498
-0.524812
-0.516605
-0.495204
-0.459074
-0.409847
-0.351977
-0.29122
-0.2329
-0.180779
-0.136775
-0.101256
-0.0735792
-0.0525911
-0.0370077
-0.0256294
-0.0174278
-0.0116047
-0.00746796
-0.00465057
-0.00254419
-0.00136674
4.03874e-05
-8.35725
-5.25651
-3.57039
-2.44423
-1.7628
-1.30926
-1.01311
-0.816172
-0.686773
-0.603009
-0.550818
-0.520387
-0.504963
-0.499692
-0.501028
-0.506176
-0.512611
-0.517554
-0.517578
-0.508712
-0.487438
-0.452203
-0.404428
-0.348245
-0.289109
-0.232137
-0.181007
-0.137645
-0.102479
-0.07494
-0.0539449
-0.0382671
-0.0267445
-0.01838
-0.0123903
-0.00808781
-0.00512277
-0.0028612
-0.00156698
1.3574e-05
-8.55672
-5.39956
-3.68496
-2.53153
-1.82825
-1.35957