/*--------------------------------*- C++ -*----------------------------------*\
| =========                 |                                                 |
| \\      /  F ield         | OpenFOAM: The Open Source CFD Toolbox           |
|  \\    /   O peration     | Version:  v1912                                 |
|   \\  /    A nd           | Website:  www.openfoam.com                      |
|    \\/     M anipulation  |                                                 |
\*---------------------------------------------------------------------------*/
FoamFile
{
    version     2.0;
    format      ascii;
    class       volScalarField;
    location    "71.5";
    object      p;
}
// * * * * * * * * * * * * * * * * * * * * * * * * * * * * * * * * * * * * * //

dimensions      [0 2 -2 0 0 0 0];


internalField   nonuniform List<scalar> 
9600
(
-41.4882
-36.2235
-32.9968
-30.2597
-27.7543
-25.4876
-23.431
-21.5569
-19.8476
-18.2895
-16.87
-15.5772
-14.3997
-13.3266
-12.348
-11.4545
-10.6375
-9.88917
-9.202
-8.57379
-42.2483
-36.966
-33.7033
-30.9233
-28.3729
-26.062
-23.9641
-22.0521
-20.3089
-18.7208
-17.2749
-15.9589
-14.7611
-13.6702
-12.6757
-11.7679
-10.9381
-10.1781
-9.47977
-8.84228
-43.01
-37.7045
-34.4044
-31.5814
-28.9856
-26.6304
-24.4911
-22.5414
-20.7645
-19.1467
-17.6747
-16.3359
-15.118
-14.0094
-12.9992
-12.0775
-11.2351
-10.4633
-9.75396
-9.10738
-43.7701
-38.4386
-35.0997
-32.2329
-29.5914
-27.1918
-25.0111
-23.0239
-21.2136
-19.5664
-18.0686
-16.7073
-15.4697
-14.3438
-13.3182
-12.3826
-11.5278
-10.7445
-10.0241
-9.36876
-44.5258
-39.1667
-35.7881
-32.8769
-30.1893
-27.7452
-25.5232
-23.4987
-21.6554
-19.9791
-18.456
-17.0725
-15.8156
-14.6726
-13.632
-12.6829
-11.8158
-11.0211
-10.29
-9.62613
-45.2748
-39.8874
-36.4684
-33.5122
-30.7783
-28.2896
-26.0265
-23.965
-22.0889
-20.384
-18.836
-17.4309
-16.155
-14.9954
-13.94
-12.9777
-12.0987
-11.2928
-10.5511
-9.87923
-46.0154
-40.5993
-37.1394
-34.1376
-31.3573
-28.8241
-26.52
-24.4218
-22.5135
-20.7804
-19.208
-17.7816
-16.4873
-15.3115
-14.2417
-13.2666
-12.3759
-11.5592
-10.8073
-10.1278
-46.7461
-41.3009
-37.7997
-34.7521
-31.9252
-29.3475
-27.0027
-24.8683
-22.9281
-21.1674
-19.5711
-18.1241
-16.8117
-15.6202
-14.5365
-13.549
-12.6471
-11.8199
-11.058
-10.3715
-47.4655
-41.9909
-38.4482
-35.3545
-32.4809
-29.8589
-27.4738
-25.3035
-23.3321
-21.5443
-19.9247
-18.4575
-17.1277
-15.9208
-14.8237
-13.8243
-12.9116
-12.0743
-11.3029
-10.61
-48.1724
-42.6681
-39.0838
-35.9437
-33.0235
-30.3574
-27.9323
-25.7267
-23.7245
-21.9102
-20.2678
-18.781
-17.4343
-16.2127
-15.1027
-14.0918
-13.1688
-12.3219
-11.5415
-10.8428
-48.8657
-43.3315
-39.7053
-36.5188
-33.5519
-30.8421
-28.3773
-26.1369
-24.1045
-22.2643
-20.5997
-19.0939
-17.7308
-16.495
-15.3725
-14.3507
-13.4179
-12.5619
-11.7731
-11.0695
-49.5444
-43.98
-40.3118
-37.0787
-34.0653
-31.3119
-28.808
-26.5333
-24.4713
-22.6058
-20.9196
-19.3953
-18.0163
-16.7668
-15.6324
-14.6001
-13.6582
-12.7937
-11.997
-11.2891
-50.2078
-44.6127
-40.9024
-37.6225
-34.5628
-31.7662
-29.2236
-26.9151
-24.824
-22.9338
-21.2265
-19.6842
-18.2898
-17.0271
-15.8812
-14.8391
-13.8885
-13.0161
-12.2123
-11.501
-50.8553
-45.229
-41.4762
-38.1496
-35.0435
-32.2041
-29.6233
-27.2815
-25.162
-23.2475
-21.5195
-19.9597
-18.5503
-17.2747
-16.1178
-15.0662
-14.1076
-13.2279
-12.4177
-11.7045
-51.4863
-45.8278
-42.0324
-38.659
-35.5069
-32.6249
-30.0064
-27.632
-25.4845
-23.5462
-21.798
-20.2209
-18.7967
-17.5084
-16.3406
-15.2798
-14.3133
-13.4269
-12.6113
-11.8977
-52.1004
-46.4084
-42.5703
-39.1502
-35.9522
-33.0282
-30.3725
-27.9659
-25.7909
-23.8292
-22.0611
-20.467
-19.0281
-17.7272
-16.5485
-15.4783
-14.504
-13.6109
-12.7901
-12.0751
-52.6989
-46.9709
-43.0893
-39.6224
-36.3788
-33.4131
-30.7208
-28.2827
-26.0808
-24.0961
-22.3083
-20.6972
-19.2436
-17.93
-16.7403
-15.661
-14.6792
-13.7799
-12.9531
-12.2335
-53.2862
-47.5162
-43.5884
-40.0746
-36.7858
-33.7792
-31.0511
-28.5821
-26.3538
-24.3465
-22.5391
-20.9109
-19.4421
-18.115
-16.9138
-15.825
-14.8361
-13.9311
-13.0994
-12.3842
-53.8642
-48.0438
-44.0663
-40.5056
-37.1728
-34.1264
-31.3634
-28.8645
-26.6105
-24.581
-22.754
-21.1081
-19.6232
-18.2809
-17.0656
-15.9639
-14.9629
-14.0471
-13.214
-12.5314
-54.4112
-48.5462
-44.5219
-40.9162
-37.5412
-34.4563
-31.6597
-29.1316
-26.8527
-24.8014
-22.9551
-21.2914
-19.7895
-18.4304
-17.1974
-16.076
-15.0513
-14.1097
-13.2657
-12.5894
-59.8681
-59.8367
-59.7674
-59.6749
-59.5586
-59.4158
-59.2461
-59.05
-58.8281
-58.5809
-58.3089
-58.0127
-57.693
-57.3505
-56.9859
-56.6001
-56.1942
-55.7699
-55.33
-54.8777
-53.5192
-53.5165
-53.4808
-53.4175
-53.3273
-53.2097
-53.0651
-52.8941
-52.6973
-52.4755
-52.2292
-51.9591
-51.6657
-51.3497
-51.0117
-50.6525
-50.2726
-49.8725
-49.4528
-49.0114
-48.8747
-48.8965
-48.8889
-48.8526
-48.7887
-48.6983
-48.5818
-48.44
-48.2733
-48.0825
-47.8682
-47.6308
-47.3709
-47.0891
-46.7859
-46.4617
-46.1169
-45.7513
-45.3649
-44.9556
-44.6438
-44.6833
-44.6962
-44.682
-44.6415
-44.5758
-44.4857
-44.3715
-44.234
-44.0735
-43.8907
-43.6861
-43.4602
-43.2134
-42.9461
-42.6587
-42.3513
-42.0238
-41.676
-41.3069
-40.7317
-40.781
-40.8065
-40.8072
-40.7837
-40.7367
-40.667
-40.5749
-40.461
-40.3258
-40.1699
-39.9936
-39.7975
-39.5819
-39.3473
-39.0938
-38.8216
-38.5306
-38.2206
-37.8911
-37.2181
-37.2717
-37.3035
-37.3129
-37.3
-37.2655
-37.2099
-37.1337
-37.0374
-36.9215
-36.7865
-36.6329
-36.461
-36.2714
-36.0642
-35.8399
-35.5983
-35.3396
-35.0635
-34.7693
-34.0942
-34.1477
-34.1814
-34.1945
-34.1872
-34.1599
-34.1132
-34.0476
-33.9636
-33.8616
-33.7421
-33.6056
-33.4526
-33.2834
-33.0985
-32.898
-32.6821
-32.4507
-32.2036
-31.9403
-31.3231
-31.3737
-31.4061
-31.4196
-31.4141
-31.3903
-31.3487
-31.2896
-31.2136
-31.1212
-31.0127
-30.8888
-30.7499
-30.5965
-30.429
-30.2477
-30.0528
-29.8441
-29.6215
-29.3844
-28.8649
-28.9111
-28.9403
-28.9519
-28.9461
-28.9234
-28.8841
-28.8287
-28.7577
-28.6715
-28.5708
-28.4559
-28.3275
-28.1862
-28.0322
-27.8662
-27.6882
-27.4984
-27.2964
-27.0816
-26.6799
-26.7209
-26.746
-26.7548
-26.7474
-26.7241
-26.6854
-26.6319
-26.5638
-26.4818
-26.3863
-26.278
-26.1574
-26.0251
-25.8818
-25.7279
-25.5638
-25.3896
-25.2051
-25.0095
-24.7309
-24.7667
-24.7874
-24.7929
-24.7831
-24.7586
-24.7197
-24.6668
-24.6004
-24.521
-24.4292
-24.3256
-24.2108
-24.0855
-23.9505
-23.8064
-23.6537
-23.4928
-23.3234
-23.1447
-22.9851
-23.0157
-23.0322
-23.0343
-23.0221
-22.9959
-22.9563
-22.9035
-22.838
-22.7604
-22.6712
-22.571
-22.4606
-22.3407
-22.2123
-22.0762
-21.933
-21.7835
-21.6274
-21.4641
-21.414
-21.4401
-21.4526
-21.4515
-21.4369
-21.4091
-21.3685
-21.3155
-21.2505
-21.1741
-21.0868
-20.9892
-20.8822
-20.7665
-20.6434
-20.5137
-20.3786
-20.2389
-20.0949
-19.9459
-19.994
-20.0159
-20.0249
-20.0209
-20.0041
-19.9747
-19.9332
-19.88
-19.8153
-19.7397
-19.6539
-19.5583
-19.4539
-19.3416
-19.2225
-19.098
-18.9696
-18.8385
-18.7058
-18.5704
-18.7052
-18.7234
-18.7292
-18.7227
-18.7039
-18.6732
-18.6309
-18.5774
-18.5129
-18.4381
-18.3534
-18.2595
-18.1571
-18.0473
-17.9314
-17.811
-17.688
-17.5641
-17.4419
-17.3199
-17.5311
-17.546
-17.549
-17.5402
-17.5197
-17.4878
-17.4449
-17.3911
-17.3269
-17.2527
-17.169
-17.0764
-16.9756
-16.8677
-16.754
-16.6364
-16.5174
-16.3993
-16.2866
-16.1779
-16.4579
-16.4698
-16.4703
-16.4595
-16.4375
-16.4046
-16.3611
-16.3072
-16.2432
-16.1695
-16.0865
-15.9948
-15.8951
-15.7884
-15.676
-15.5598
-15.4431
-15.3287
-15.2243
-15.1274
-15.4737
-15.4831
-15.4817
-15.4694
-15.4464
-15.4128
-15.3689
-15.315
-15.2513
-15.1781
-15.0959
-15.005
-14.9061
-14.8
-14.6879
-14.5718
-14.4554
-14.3426
-14.2451
-14.1573
-14.5673
-14.5753
-14.5729
-14.5601
-14.537
-14.5038
-14.4607
-14.4078
-14.3455
-14.274
-14.1935
-14.1046
-14.0075
-13.903
-13.7921
-13.6762
-13.5591
-13.4458
-13.3553
-13.2817
-13.7334
-13.7382
-13.7333
-13.7187
-13.6945
-13.6609
-13.6181
-13.5661
-13.5053
-13.4357
-13.3577
-13.2715
-13.1773
-13.0756
-12.9669
-12.8521
-12.7331
-12.6152
-12.5181
-12.4689
-53.5744
-54.15
-54.6884
-55.2117
-55.7172
-56.1987
-56.6534
-57.0803
-57.4784
-57.8469
-58.1851
-58.4924
-58.7685
-59.0132
-59.2256
-59.406
-59.5552
-59.6743
-59.7655
-59.8304
-47.0912
-47.6721
-48.225
-48.7555
-49.2631
-49.7455
-50.2012
-50.6295
-51.0297
-51.4013
-51.7436
-52.0564
-52.34
-52.595
-52.8192
-53.0122
-53.1744
-53.3064
-53.4086
-53.4798
-42.4467
-43.0153
-43.5603
-44.0819
-44.58
-45.054
-45.5029
-45.9262
-46.3233
-46.6933
-47.0354
-47.3494
-47.6349
-47.8907
-48.1181
-48.3173
-48.4879
-48.6297
-48.7424
-48.8244
-38.3224
-38.8658
-39.3895
-39.8916
-40.3715
-40.8289
-41.2632
-41.6738
-42.06
-42.4213
-42.7563
-43.0645
-43.3469
-43.603
-43.8329
-44.0364
-44.213
-44.3623
-44.4842
-44.5781
-34.6444
-35.1577
-35.654
-36.1306
-36.5866
-37.0216
-37.435
-37.8262
-38.1945
-38.5394
-38.8614
-39.1601
-39.434
-39.6834
-39.9084
-40.1087
-40.2839
-40.434
-40.5588
-40.6582
-31.4456
-31.9275
-32.3939
-32.8424
-33.2718
-33.6815
-34.0712
-34.4402
-34.7881
-35.1145
-35.4194
-35.7021
-35.962
-36.1992
-36.4141
-36.6064
-36.7754
-36.9211
-37.0435
-37.1428
-28.6736
-29.1246
-29.5614
-29.9815
-30.3838
-30.7677
-31.1327
-31.4785
-31.8045
-32.1104
-32.396
-32.6609
-32.9049
-33.1276
-33.3288
-33.5104
-33.6705
-33.8087
-33.9254
-34.0207
-26.2615
-26.6836
-27.0923
-27.4854
-27.8617
-28.2206
-28.5616
-28.8844
-29.1885
-29.4738
-29.7398
-29.9866
-30.214
-30.4217
-30.6099
-30.777
-30.9265
-31.0557
-31.1648
-31.254
-24.1507
-24.5463
-24.9292
-25.2974
-25.6495
-25.985
-26.3034
-26.6044
-26.8877
-27.1531
-27.4005
-27.6297
-27.8406
-28.0332
-28.2075
-28.3634
-28.4996
-28.6188
-28.7195
-28.8015
-22.2909
-22.6627
-23.0224
-23.3679
-23.698
-24.012
-24.3096
-24.5904
-24.8544
-25.1013
-25.3311
-25.5437
-25.7391
-25.9172
-26.0781
-26.2215
-26.3475
-26.4562
-26.5481
-26.6228
-20.6406
-20.9912
-21.3302
-21.6554
-21.9656
-22.26
-22.5386
-22.801
-23.0472
-23.2771
-23.4907
-23.688
-23.8691
-24.0338
-24.1821
-24.3141
-24.4298
-24.529
-24.6126
-24.68
-19.1661
-19.4979
-19.8186
-20.1259
-20.4181
-20.6948
-20.956
-21.2016
-21.4315
-21.6459
-21.8447
-22.0281
-22.196
-22.3484
-22.4854
-22.607
-22.7132
-22.804
-22.8794
-22.94
-17.8404
-18.1557
-18.4606
-18.7518
-19.0278
-19.2885
-19.5339
-19.764
-19.9791
-20.1792
-20.3646
-20.5352
-20.6912
-20.8325
-20.9592
-21.0713
-21.1688
-21.2517
-21.3197
-21.3743
-16.6419
-16.9428
-17.2341
-17.5112
-17.7725
-18.0184
-18.2492
-18.4652
-18.6666
-18.8538
-19.0268
-19.1858
-19.331
-19.4622
-19.5796
-19.6831
-19.7729
-19.8488
-19.9113
-19.9593
-15.5536
-15.8422
-16.122
-16.3864
-16.6342
-16.8664
-17.0837
-17.2865
-17.4752
-17.6503
-17.8121
-17.9605
-18.0958
-18.218
-18.3269
-18.4228
-18.5055
-18.5751
-18.6315
-18.6748
-14.5607
-14.8408
-15.1114
-15.3638
-15.5988
-15.818
-16.0224
-16.2128
-16.3897
-16.5537
-16.705
-16.8437
-16.97
-17.0839
-17.1852
-17.2741
-17.3504
-17.4143
-17.4656
-17.5045
-13.6455
-13.9245
-14.1899
-14.431
-14.6532
-14.86
-15.0522
-15.2308
-15.3967
-15.5503
-15.6921
-15.822
-15.9402
-16.0465
-16.141
-16.2236
-16.2943
-16.353
-16.3999
-16.4348
-12.7875
-13.0707
-13.3374
-13.569
-13.7793
-13.9744
-14.1554
-14.3235
-14.4795
-14.6242
-14.7577
-14.8802
-14.9915
-15.0915
-15.1803
-15.2578
-15.3238
-15.3784
-15.4216
-15.4534
-12
-12.2737
-12.5411
-12.7679
-12.9681
-13.1518
-13.3224
-13.4809
-13.6282
-13.7649
-13.8913
-14.0072
-14.1127
-14.2075
-14.2916
-14.3649
-14.4272
-14.4786
-14.519
-14.5486
-11.4093
-11.6601
-11.8879
-12.1047
-12.2931
-12.459
-12.6131
-12.7573
-12.8913
-13.0155
-13.1303
-13.2356
-13.3311
-13.4168
-13.4924
-13.558
-13.6134
-13.6586
-13.6935
-13.718
-6.00729
-6.49866
-7.0371
-7.61957
-8.2525
-8.94328
-9.69958
-10.5308
-11.4493
-12.4705
-13.615
-14.9097
-16.3899
-18.1019
-20.106
-22.4815
-25.3097
-28.6128
-32.6103
-38.6063
-6.27794
-6.78284
-7.33182
-7.92636
-8.57307
-9.27904
-10.0521
-10.9018
-11.8408
-12.8849
-14.055
-15.3783
-16.8906
-18.6386
-20.6829
-23.1026
-25.9778
-29.3277
-33.3637
-39.3808
-6.55002
-7.06846
-7.62808
-8.23493
-8.89567
-9.61708
-10.4071
-11.2756
-12.2355
-13.3028
-14.4988
-15.851
-17.3959
-19.1802
-21.2649
-23.7287
-26.6505
-30.0462
-34.1189
-40.1524
-6.82303
-7.35496
-7.9253
-8.54467
-9.21967
-9.95672
-10.7639
-11.6515
-12.6324
-13.7231
-14.9452
-16.3267
-17.9043
-19.7251
-21.8503
-24.3582
-27.3264
-30.7676
-34.8781
-40.9329
-7.09655
-7.64188
-8.22302
-8.85511
-9.54456
-10.2974
-11.122
-12.0288
-13.0309
-14.1453
-15.3937
-16.8046
-18.415
-20.2725
-22.4382
-24.9902
-28.0047
-31.4914
-35.6405
-41.7197
-7.37019
-7.9288
-8.5208
-9.16582
-9.86991
-10.6388
-11.4809
-12.407
-13.4305
-14.5687
-15.8435
-17.2839
-18.9273
-20.8216
-23.0279
-25.6239
-28.6846
-32.2167
-36.404
-42.5085
-7.64364
-8.21536
-8.81828
-9.4764
-10.1953
-10.9803
-11.8401
-12.7856
-13.8307
-14.9927
-16.2941
-17.7642
-19.4406
-21.3717
-23.6186
-26.2586
-29.3653
-32.9423
-37.167
-43.2972
-7.91665
-8.50127
-9.11512
-9.78653
-10.5204
-11.3216
-12.1991
-13.1642
-14.2308
-15.4168
-16.7449
-18.2446
-19.9541
-21.922
-24.2095
-26.8933
-30.0456
-33.6671
-37.9285
-44.0841
-8.18906
-8.78634
-9.41109
-10.0959
-10.8448
-11.6624
-12.5576
-13.5423
-14.6305
-15.8404
-17.1951
-18.7245
-20.4671
-22.4717
-24.7996
-27.527
-30.7245
-34.3899
-38.6872
-44.8679
-8.46084
-9.07045
-9.70603
-10.4043
-11.1684
-12.0022
-12.9152
-13.9194
-15.0292
-16.2629
-17.6442
-19.2032
-20.9787
-23.0199
-25.388
-28.1586
-31.4009
-35.1095
-39.4417
-45.6471
-8.7321
-9.35363
-9.99989
-10.7117
-11.4908
-12.3409
-13.2716
-14.2951
-15.4263
-16.6838
-18.0915
-19.6799
-21.4882
-23.5658
-25.9737
-28.7872
-32.0737
-35.8248
-40.1908
-46.4201
-9.00312
-9.63606
-10.2927
-11.018
-11.812
-12.6781
-13.6262
-14.669
-15.8214
-17.1025
-18.5363
-20.1539
-21.9948
-24.1084
-26.5559
-29.4116
-32.7417
-36.5345
-40.933
-47.1855
-9.2744
-9.91802
-10.5846
-11.323
-12.1317
-13.0136
-13.9789
-15.0405
-16.2139
-17.5182
-18.978
-20.6245
-22.4976
-24.6469
-27.1334
-30.0308
-33.4037
-37.2374
-41.6672
-47.9421
-9.54665
-10.1999
-10.8758
-11.6269
-12.4498
-13.347
-14.3291
-15.4093
-16.6032
-17.9305
-19.4158
-21.0908
-22.9957
-25.1802
-27.7052
-30.6437
-34.0585
-37.9321
-42.3919
-48.6884
-9.82064
-10.4821
-11.1661
-11.9293
-12.7659
-13.6779
-14.6762
-15.7745
-16.9886
-18.3383
-19.8487
-21.5519
-23.4881
-25.7074
-28.2703
-31.249
-34.7049
-38.6176
-43.1061
-49.4234
-10.0973
-10.7649
-11.4555
-12.2298
-13.0793
-14.0055
-15.0196
-16.1355
-17.3692
-18.741
-20.2761
-22.0068
-23.9738
-26.2272
-28.8273
-31.8455
-35.3416
-39.2924
-43.8084
-50.146
-10.3765
-11.047
-11.7424
-12.5269
-13.3888
-14.3287
-15.3581
-16.4912
-17.7442
-19.1374
-20.6967
-22.4545
-24.4518
-26.7386
-29.3751
-32.4319
-35.9672
-39.9552
-44.4981
-50.8556
-10.6575
-11.326
-12.0243
-12.8189
-13.6932
-14.6465
-15.6908
-16.8406
-18.1124
-19.5268
-21.1097
-22.894
-24.9208
-27.2403
-29.9124
-33.0067
-36.58
-40.6044
-45.1737
-51.5522
-10.9329
-11.5936
-12.2951
-13.1023
-13.9902
-14.9571
-16.0162
-17.1825
-18.4728
-19.9078
-21.5138
-23.324
-25.3797
-27.7311
-30.4377
-33.5684
-37.1784
-41.2382
-45.8341
-52.2373
-11.1843
-11.8297
-12.5504
-13.3781
-14.2804
-15.2603
-16.3338
-17.5163
-18.8245
-20.2795
-21.9081
-23.7435
-25.8272
-28.2096
-30.9496
-34.1152
-37.7603
-41.8533
-46.4748
-52.9125
-1.58531
-1.83925
-2.18713
-2.57605
-2.9946
-3.44814
-3.94298
-4.48504
-5.08181
-5.74357
-6.48425
-7.32288
-8.28559
-9.40844
-10.7423
-12.3616
-14.3558
-16.7863
-19.9615
-25.3562
-1.7385
-2.00887
-2.37522
-2.77009
-3.19207
-3.65096
-4.15271
-4.70285
-5.30904
-5.98179
-6.73532
-7.58897
-8.56933
-9.71295
-11.0713
-12.7192
-14.7464
-17.2124
-20.4198
-25.8284
-1.88604
-2.1805
-2.56001
-2.96302
-3.39274
-3.86002
-4.37071
-4.93054
-5.54752
-6.23251
-7.00005
-7.86989
-8.86906
-10.0347
-11.4187
-13.0963
-15.1571
-17.6585
-20.8975
-26.3147
-2.05586
-2.36116
-2.74887
-3.16061
-3.59954
-4.07636
-4.59709
-5.16773
-5.79663
-6.49494
-7.27756
-8.16464
-9.18367
-10.3723
-11.783
-13.4914
-15.5868
-18.1249
-21.3987
-26.8336
-2.23701
-2.5494
-2.94496
-3.36567
-3.8141
-4.30091
-4.83232
-5.41458
-6.05626
-6.76882
-7.56748
-8.47277
-9.51267
-10.7253
-12.1638
-13.9041
-16.0352
-18.6117
-21.9229
-27.3819
-2.42364
-2.74465
-3.14855
-3.57839
-4.03661
-4.53386
-5.07656
-5.67112
-6.32636
-7.054
-7.86957
-8.79402
-9.85578
-11.0936
-12.5609
-14.3342
-16.5024
-19.1183
-22.4683
-27.9543
-2.61728
-2.9478
-3.35996
-3.79895
-4.26723
-4.77536
-5.32986
-5.93734
-6.60682
-7.35028
-8.18359
-9.12808
-10.2127
-11.4766
-12.9739
-14.7814
-16.9877
-19.6442
-23.0337
-28.5486
-2.81931
-3.15932
-3.57953
-4.02766
-4.5062
-5.02554
-5.59227
-6.21319
-6.89751
-7.65748
-8.50928
-9.47465
-10.5829
-11.874
-13.4023
-15.2451
-17.4907
-20.1887
-23.6186
-29.1635
-3.02952
-3.37908
-3.8073
-4.26461
-4.75358
-5.28441
-5.86374
-6.49854
-7.19825
-7.97535
-8.84635
-9.83337
-10.9662
-12.2853
-13.8457
-15.7247
-18.0107
-20.7513
-24.2223
-29.798
-3.2473
-3.60672
-4.04306
-4.50966
-5.00924
-5.55181
-6.14409
-6.79322
-7.50881
-8.30363
-9.19448
-10.2039
-11.3622
-12.7101
-14.3034
-16.2198
-18.547
-21.3312
-24.8439
-30.4511
-3.47222
-3.84191
-4.28649
-4.76251
-5.27291
-5.82751
-6.43308
-7.09693
-7.8289
-8.64197
-9.55331
-10.5858
-11.7702
-13.1479
-14.7751
-16.7297
-19.0991
-21.9276
-25.4826
-31.1217
-3.70391
-4.08423
-4.53723
-5.02283
-5.54428
-6.11117
-6.73037
-7.40934
-8.15813
-8.99
-9.9224
-10.9786
-12.1899
-13.5982
-15.26
-17.2537
-19.6663
-22.5399
-26.1375
-31.8087
-3.94188
-4.33322
-4.79482
-5.2902
-5.82293
-6.40241
-7.03555
-7.73003
-8.4961
-9.34726
-10.3013
-11.3819
-12.6208
-14.0604
-15.7577
-17.7913
-20.2477
-23.1671
-26.8077
-32.5112
-4.18562
-4.58836
-5.05877
-5.56414
-6.10841
-6.70076
-7.34819
-8.05855
-8.84232
-9.71326
-10.6895
-11.7951
-13.0622
-14.5338
-16.2674
-18.3417
-20.8427
-23.8084
-27.4924
-33.2283
-4.43458
-4.84908
-5.32853
-5.84413
-6.40021
-7.00574
-7.66777
-8.39439
-9.19627
-10.0875
-11.0864
-12.2175
-13.5136
-15.0178
-16.7884
-18.9041
-21.4504
-24.4631
-28.1908
-33.9591
-4.68821
-5.11483
-5.60354
-6.12962
-6.6978
-7.3168
-7.99377
-8.737
-9.5574
-10.4693
-11.4914
-12.6486
-13.9742
-15.5118
-17.32
-19.4778
-22.07
-25.1302
-28.9019
-34.7028
-4.94596
-5.38501
-5.88322
-6.42004
-7.0006
-7.63338
-8.32561
-9.0858
-9.92511
-10.8581
-11.9039
-13.0878
-14.4433
-16.0149
-17.8614
-20.0619
-22.7005
-25.8087
-29.625
-35.4588
-5.20727
-5.65905
-6.167
-6.71483
-7.30806
-7.95491
-8.66272
-9.44022
-10.2988
-11.2533
-12.3232
-13.5342
-14.9203
-16.5264
-18.4117
-20.6554
-23.3411
-26.4977
-30.3592
-36.2268
-5.47161
-5.93636
-6.45428
-7.01339
-7.61958
-8.28079
-9.00449
-9.79962
-10.6778
-11.6543
-12.7487
-13.9872
-15.4043
-17.0453
-18.9699
-21.2574
-23.9904
-27.196
-31.1034
-37.0074
-5.73845
-6.21643
-6.74452
-7.31518
-7.93461
-8.61048
-9.35035
-10.1634
-11.0616
-12.0603
-13.1796
-14.4461
-15.8946
-17.571
-19.5353
-21.8668
-24.6474
-27.9017
-31.855
-37.8013
-1.33752
-1.13079
-0.977003
-0.840263
-0.720185
-0.614228
-0.521276
-0.440538
-0.371512
-0.313838
-0.267251
-0.231539
-0.206533
-0.192095
-0.188089
-0.194301
-0.210515
-0.23686
-0.273524
-0.320278
-1.66733
-1.48388
-1.32611
-1.18415
-1.05924
-0.948809
-0.85189
-0.767677
-0.695658
-0.635455
-0.586786
-0.549429
-0.523201
-0.507952
-0.503537
-0.509782
-0.526531
-0.553798
-0.591679
-0.639835
-1.9998
-1.82423
-1.66648
-1.52337
-1.39633
-1.28372
-1.18484
-1.09901
-1.02576
-0.964715
-0.915614
-0.87823
-0.852378
-0.8379
-0.83465
-0.842473
-0.86125
-0.890931
-0.931369
-0.982828
-2.38346
-2.20623
-2.04544
-1.89937
-1.76875
-1.65263
-1.55054
-1.46192
-1.38636
-1.32352
-1.27313
-1.23496
-1.20882
-1.19456
-1.19201
-1.20102
-1.22149
-1.25332
-1.2964
-1.35077
-2.80211
-2.62242
-2.45766
-2.30764
-2.1728
-2.05263
-1.94679
-1.85488
-1.77653
-1.71144
-1.65935
-1.62004
-1.59332
-1.57902
-1.57697
-1.58703
-1.60907
-1.64299
-1.68867
-1.74608
-3.25329
-3.07037
-2.90143
-2.74708
-2.60778
-2.48334
-2.37356
-2.27815
-2.19682
-2.1293
-2.07536
-2.03478
-2.00738
-1.99297
-1.9914
-2.00252
-2.0262
-2.0623
-2.11069
-2.17132
-3.74317
-3.55552
-3.38166
-3.22238
-3.07817
-2.94908
-2.835
-2.73576
-2.65114
-2.58091
-2.52486
-2.48279
-2.45453
-2.43989
-2.43871
-2.45085
-2.47616
-2.51449
-2.5657
-2.62976
-4.27854
-4.08467
-3.90481
-3.73972
-3.58992
-3.45555
-3.33662
-3.23305
-3.14466
-3.07129
-3.01275
-2.96886
-2.93943
-2.92432
-2.92334
-2.93636
-2.96321
-3.00374
-3.05781
-3.12537
-4.86709
-4.66555
-4.47846
-4.30649
-4.15017
-4.00972
-3.88521
-3.77663
-3.68386
-3.60677
-3.54522
-3.49903
-3.46804
-3.45209
-3.45102
-3.46467
-3.49289
-3.53551
-3.59238
-3.66348
-5.51896
-5.30819
-5.11244
-4.93232
-4.76834
-4.62076
-4.48973
-4.37526
-4.2773
-4.19575
-4.13049
-4.08138
-4.04826
-4.03097
-4.02936
-4.04328
-4.07257
-4.11704
-4.17654
-4.25108
-6.24789
-6.02609
-5.82
-5.63018
-5.45712
-5.30111
-5.16233
-5.04084
-4.93663
-4.84963
-4.77976
-4.72687
-4.69084
-4.67152
-4.66875
-4.68239
-4.71225
-4.75817
-4.81997
-4.8977
-7.0726
-6.83764
-6.61921
-6.41779
-6.23388
-6.06778
-5.91969
-5.78972
-5.67788
-5.58415
-5.50845
-5.45067
-5.41068
-5.38835
-5.38353
-5.39607
-5.42579
-5.4725
-5.53603
-5.61647
-8.01884
-7.76818
-7.53496
-7.31961
-7.12263
-6.94434
-6.78496
-6.64463
-6.52339
-6.42124
-6.33811
-6.27393
-6.22857
-6.20191
-6.1938
-6.20409
-6.23261
-6.27914
-6.34351
-6.42586
-9.12213
-8.85269
-8.6017
-8.36954
-8.15674
-7.96363
-7.79045
-7.63736
-7.50443
-7.39166
-7.29903
-7.22646
-7.17384
-7.14106
-7.12797
-7.13443
-7.16025
-7.2052
-7.26909
-7.35211
-10.4328
-10.1408
-9.86844
-9.61595
-9.38393
-9.17273
-8.98261
-8.81374
-8.66621
-8.54004
-8.43521
-8.35166
-8.28931
-8.24803
-8.22769
-8.22815
-8.24921
-8.2906
-8.35212
-8.43403
-12.0244
-11.7056
-11.4075
-11.1304
-10.8751
-10.6419
-10.431
-10.2427
-10.077
-9.93397
-9.81358
-9.7158
-9.64055
-9.58771
-9.55715
-9.54874
-9.56227
-9.59745
-9.65405
-9.73234
-13.9863
-13.6358
-13.3073
-13.0012
-12.7182
-12.4587
-12.2229
-12.0111
-11.8233
-11.6595
-11.5198
-11.4041
-11.3124
-11.2446
-11.2004
-11.1799
-11.1828
-11.2088
-11.2577
-11.3295
-16.38
-15.994
-15.6309
-15.2917
-14.9772
-14.6878
-14.4236
-14.1848
-13.9715
-13.7837
-13.6215
-13.4847
-13.3734
-13.2875
-13.2269
-13.1914
-13.181
-13.1954
-13.2343
-13.297
-19.5164
-19.0906
-18.6886
-18.3129
-17.9639
-17.6417
-17.3462
-17.0774
-16.8353
-16.6199
-16.4313
-16.2693
-16.134
-16.0254
-15.9432
-15.8874
-15.8579
-15.855
-15.8786
-15.9265
-24.8531
-24.3822
-23.9458
-23.5406
-23.1647
-22.8171
-22.4973
-22.2052
-21.9408
-21.704
-21.495
-21.3136
-21.1602
-21.0347
-20.9371
-20.8677
-20.8271
-20.8175
-20.8404
-20.8855
-0.377038
-0.443481
-0.519569
-0.60522
-0.700349
-0.804852
-0.918597
-1.04142
-1.17311
-1.3134
-1.4619
-1.61811
-1.78121
-1.94998
-2.12278
-2.29731
-2.46911
-2.62838
-2.75973
-2.88958
-0.698472
-0.767194
-0.845924
-0.934549
-1.03296
-1.14105
-1.25864
-1.38556
-1.52157
-1.66636
-1.81952
-1.98051
-2.14853
-2.32244
-2.50061
-2.6814
-2.86303
-3.03778
-3.19044
-3.36277
-1.04497
-1.11754
-1.20049
-1.29369
-1.39701
-1.51031
-1.63342
-1.76614
-1.90819
-2.05926
-2.21891
-2.38658
-2.56154
-2.74273
-2.92883
-3.11861
-3.31113
-3.502
-3.68551
-3.89159
-1.41634
-1.49277
-1.57999
-1.67786
-1.78623
-1.90495
-2.03383
-2.17263
-2.32107
-2.47881
-2.64541
-2.82032
-3.00282
-3.19202
-3.38684
-3.5864
-3.78991
-3.99505
-4.20232
-4.43212
-1.81517
-1.89562
-1.98731
-2.09009
-2.20381
-2.32829
-2.46332
-2.60865
-2.76399
-2.92897
-3.10317
-3.28604
-3.47694
-3.67509
-3.87968
-4.09008
-4.30569
-4.52547
-4.75206
-4.99861
-2.24425
-2.32899
-2.42549
-2.53357
-2.65307
-2.78379
-2.92552
-3.07798
-3.24089
-3.41386
-3.59649
-3.78827
-3.98861
-4.19686
-4.41241
-4.63483
-4.86374
-5.09891
-5.34311
-5.60418
-2.70673
-2.79599
-2.89761
-3.01137
-3.13709
-3.27456
-3.42355
-3.58379
-3.75497
-3.93675
-4.1287
-4.33037
-4.54124
-4.76076
-4.98847
-5.22407
-5.46735
-5.71853
-5.9798
-6.25563
-3.20638
-3.30053
-3.40758
-3.52737
-3.65972
-3.80442
-3.96124
-4.1299
-4.3101
-4.50149
-4.70369
-4.91626
-5.13876
-5.37072
-5.61178
-5.86171
-6.12042
-6.38824
-6.66674
-6.95839
-3.74879
-3.84784
-3.96052
-4.08662
-4.22598
-4.37837
-4.54355
-4.72125
-4.91118
-5.11299
-5.32634
-5.55081
-5.78601
-6.03156
-6.28714
-6.55256
-6.82778
-7.11307
-7.40945
-7.71827
-4.34066
-4.44467
-4.56317
-4.69578
-4.84242
-5.00288
-5.17689
-5.36419
-5.5645
-5.77749
-6.00282
-6.24013
-6.48907
-6.74928
-7.0205
-7.30254
-7.59535
-7.8991
-8.21433
-8.54186
-4.99138
-5.10028
-5.22441
-5.36373
-5.51782
-5.68658
-5.86978
-6.06712
-6.27834
-6.50314
-6.74119
-6.99218
-7.25575
-7.53161
-7.8195
-8.11923
-8.4307
-8.75394
-9.0892
-9.43695
-5.71386
-5.82735
-5.95702
-6.10268
-6.26425
-6.44137
-6.63387
-6.84151
-7.064
-7.30105
-7.55238
-7.81768
-8.09664
-8.38897
-8.6944
-9.01275
-9.34386
-9.68761
-10.044
-10.4135
-6.52626
-6.6437
-6.77837
-6.93
-7.09849
-7.28395
-7.48569
-7.70348
-7.93725
-8.18672
-8.45161
-8.73161
-9.02642
-9.33576
-9.65938
-9.99706
-10.3486
-10.7137
-11.0923
-11.4847
-7.45439
-7.57471
-7.71342
-7.87024
-8.04494
-8.23752
-8.44877
-8.67592
-8.92062
-9.18222
-9.46047
-9.75512
-10.0659
-10.3924
-10.7345
-11.0919
-11.4643
-11.8514
-12.2529
-12.6691
-8.53647
-8.65797
-8.7991
-8.95963
-9.1394
-9.33795
-9.55478
-9.79217
-10.0475
-10.3202
-10.6111
-10.9198
-11.2462
-11.5897
-11.9501
-12.3271
-12.7204
-13.1295
-13.5541
-13.9945
-9.83243
-9.95257
-10.0937
-10.2556
-10.4383
-10.6413
-10.8642
-11.107
-11.37
-11.6535
-11.9562
-12.2783
-12.6194
-12.9788
-13.3562
-13.7517
-14.165
-14.5955
-15.0427
-15.5067
-11.4238
-11.5394
-11.6776
-11.8383
-12.0212
-12.2259
-12.4523
-12.7001
-12.9693
-13.2599
-13.5727
-13.9066
-14.2596
-14.6311
-15.0223
-15.4338
-15.8651
-16.3153
-16.7834
-17.2694
-13.3815
-13.4895
-13.6217
-13.7778
-13.9566
-14.1583
-14.3832
-14.6312
-14.9019
-15.1949
-15.5094
-15.8459
-16.2058
-16.5898
-16.9962
-17.4235
-17.8715
-18.3397
-18.8272
-19.333
-15.9967
-16.0886
-16.2046
-16.3461
-16.5144
-16.7087
-16.9284
-17.1729
-17.4419
-17.7351
-18.0519
-18.3918
-18.7553
-19.1428
-19.5541
-19.9888
-20.4465
-20.928
-21.4332
-21.9571
-20.9272
-20.9996
-21.1029
-21.2348
-21.3941
-21.5802
-21.7927
-22.031
-22.2948
-22.5839
-22.898
-23.2371
-23.6012
-23.9908
-24.4059
-24.8464
-25.3135
-25.8111
-26.3416
-26.8874
-27.4042
-22.4918
-19.8567
-17.7734
-15.9877
-14.4506
-13.0999
-11.8907
-10.7958
-9.7971
-8.88158
-8.03952
-7.2633
-6.54672
-5.88457
-5.27233
-4.70475
-4.17624
-3.6953
-3.2909
-27.949
-23.0426
-20.396
-18.2925
-16.4829
-14.9202
-13.5435
-12.3087
-11.1895
-10.1681
-9.23183
-8.37106
-7.57836
-6.84764
-6.17388
-5.55266
-4.97924
-4.45123
-3.98179
-3.5793
-28.5223
-23.6123
-20.9525
-18.8276
-16.9929
-15.4033
-13.9995
-12.7384
-11.594
-10.5493
-9.59168
-8.71171
-7.90201
-7.15653
-6.47021
-5.83854
-5.25689
-4.72299
-4.24641
-3.82441
-29.12
-24.2016
-21.5263
-19.3786
-17.5171
-15.8994
-14.4673
-13.1788
-12.0085
-10.9397
-9.96002
-9.06012
-8.23257
-7.47123
-6.77081
-6.12654
-5.53354
-4.98888
-4.49929
-4.05856
-29.739
-24.8098
-22.1166
-19.9447
-18.055
-16.4077
-14.9462
-13.6293
-12.4322
-11.3385
-10.336
-9.41543
-8.56925
-7.79112
-7.07555
-6.41743
-5.8116
-5.25454
-4.75116
-4.29427
-30.3777
-25.4374
-22.7216
-20.525
-18.6057
-16.9275
-15.4355
-14.0892
-12.8644
-11.745
-10.7189
-9.77698
-8.91145
-8.11584
-7.38437
-6.71169
-6.09239
-5.5226
-5.00593
-4.53496
-31.0351
-26.083
-23.341
-21.1185
-19.1684
-17.458
-15.9343
-14.5576
-13.3042
-12.1584
-11.1082
-10.1443
-9.25887
-8.4453
-7.69753
-7.00999
-6.37711
-5.79478
-5.26554
-4.78188
-31.7098
-26.7444
-23.9745
-21.7244
-19.7421
-17.9983
-16.4419
-15.0339
-13.7511
-12.5782
-11.5032
-10.5168
-9.61119
-8.77935
-8.01508
-7.3126
-6.66621
-6.07163
-5.53038
-5.03495
-32.4005
-27.4203
-24.6212
-22.3419
-20.3261
-18.5477
-16.9575
-15.5172
-14.2043
-13.0037
-11.9034
-10.8943
-9.96807
-9.11777
-8.33692
-7.61952
-6.95975
-6.35314
-5.80029
-5.29367
-33.1059
-28.1094
-25.2803
-22.97
-20.9194
-19.1053
-17.4802
-16.0068
-14.6632
-13.4342
-12.3083
-11.276
-10.3291
-9.46023
-8.66275
-7.93047
-7.25743
-6.63896
-6.07476
-5.55733
-33.8248
-28.8107
-25.9506
-23.6077
-21.5211
-19.67
-18.0091
-16.5019
-15.1268
-13.8691
-12.7173
-11.6616
-10.6938
-9.80626
-8.99215
-8.24503
-7.5588
-6.92856
-6.35315
-5.82512
-34.556
-29.523
-26.6309
-24.2541
-22.13
-20.2411
-18.5435
-17.0017
-15.5946
-14.3078
-13.1296
-12.0504
-11.0615
-10.1553
-9.32459
-8.56266
-7.86328
-7.2213
-6.63474
-6.09626
-35.2985
-30.2453
-27.3201
-24.9079
-22.7453
-20.8174
-19.0822
-17.5052
-16.0657
-14.7493
-13.5446
-12.4417
-11.4318
-10.5068
-9.65947
-8.88276
-8.17023
-7.5165
-6.91882
-6.36998
-36.0512
-30.9763
-28.017
-25.5681
-23.3657
-21.3979
-19.6245
-18.0116
-16.5392
-15.193
-13.9616
-12.8348
-11.8038
-10.8601
-9.99616
-9.20467
-8.479
-7.81351
-7.20467
-6.64555
-36.8128
-31.7148
-28.7204
-26.2335
-23.9902
-21.9817
-20.1692
-18.52
-17.0142
-15.638
-14.3797
-13.2291
-12.1769
-11.2146
-10.334
-9.52774
-8.78894
-8.11164
-7.49163
-6.92228
-37.5823
-32.4595
-29.4289
-26.9028
-24.6177
-22.5675
-20.7154
-19.0293
-17.49
-16.0835
-14.7983
-13.6238
-12.5505
-11.5694
-10.6723
-9.85131
-9.09938
-8.41024
-7.77903
-7.19953
-38.3592
-33.2092
-30.1412
-27.5748
-25.2468
-23.1542
-21.2619
-19.5386
-17.9655
-16.5287
-15.2164
-14.0181
-12.9237
-11.924
-11.0104
-10.1747
-9.40968
-8.70869
-8.06625
-7.47669
-39.1448
-33.9634
-30.8559
-28.2479
-25.8762
-23.7405
-21.8076
-20.0468
-18.4397
-16.9725
-15.6333
-14.4112
-13.2958
-12.2776
-11.3476
-10.4973
-9.7192
-9.00634
-8.35268
-7.7532
-39.9394
-34.721
-31.571
-28.9203
-26.5044
-24.3253
-22.3513
-20.5529
-18.9117
-17.4142
-16.0482
-14.8023
-13.6661
-12.6295
-11.6832
-10.8184
-10.0273
-9.30262
-8.63776
-8.02854
-40.7302
-35.4769
-32.2848
-29.5911
-27.1308
-24.908
-22.8928
-21.0565
-19.3813
-17.8534
-16.4606
-15.1912
-14.0342
-12.9794
-12.0168
-11.1376
-10.3336
-9.59705
-8.92104
-8.30227
-6.78097
-4.67487
-3.31458
-2.26897
-1.53437
-0.994832
-0.607278
-0.332128
-0.141062
-0.0123377
0.070671
0.120596
0.147022
0.157107
0.156165
0.148068
0.135629
0.120849
0.105139
0.0894636
0.0744696
0.0605675
0.0479935
0.0368675
0.0272106
0.0190026
0.0121496
0.006587
0.00214525
-0.00120492
-0.00372624
-0.0053114
-0.0064078
-0.0066056
-0.00673889
-0.00581329
-0.00540511
-0.00348945
-0.00294556
3.72808e-05
-7.03667
-4.85727
-3.46084
-2.38414
-1.62543
-1.06847
-0.667349
-0.381753
-0.182443
-0.0470959
0.0413345
0.0957601
0.125967
0.139255
0.141043
0.135279
0.12484
0.111774
0.0975306
0.0831101
0.0691864
0.0561947
0.0443926
0.0339184
0.0248092