/*--------------------------------*- C++ -*----------------------------------*\
  =========                 |
  \\      /  F ield         | OpenFOAM: The Open Source CFD Toolbox
   \\    /   O peration     | Website:  https://openfoam.org
    \\  /    A nd           | Version:  6.0
     \\/     M anipulation  |
\*---------------------------------------------------------------------------*/
FoamFile
{
    version     2.0;
    format      ascii;
    class       surfaceScalarField;
    location    "21";
    object      phi;
}
// * * * * * * * * * * * * * * * * * * * * * * * * * * * * * * * * * * * * * //

dimensions      [0 3 -1 0 0 0 0];

internalField   nonuniform List<scalar> 
38030
(
-8.46466e-06
-0.00797698
0.00798544
-2.70808e-05
-0.00732836
0.00734697
-5.37308e-05
-0.00673367
0.00676032
-8.6447e-05
-0.00618977
0.00622249
-0.000123415
-0.00569317
0.00573014
-0.000163094
-0.00524029
0.00527997
-0.000204203
-0.00482761
0.00486872
-0.000245688
-0.00445176
0.00449325
-0.000286694
-0.00410953
0.00415053
-0.000326537
-0.00379791
0.00383775
-0.000364682
-0.00351409
0.00355223
-0.000400727
-0.00325548
0.00329152
-0.000434381
-0.00301969
0.00305334
-0.000465452
-0.00280451
0.00283559
-0.000493837
-0.00260796
0.00263634
-0.000519507
-0.00242819
0.00245386
-0.000542498
-0.00226354
0.00228653
-0.000562908
-0.00211252
0.00213293
-0.000580881
-0.00197376
0.00199173
-0.000596606
-0.00184603
0.00186175
-0.000610308
-0.00172824
0.00174194
-0.000622239
-0.00161941
0.00163134
-0.000632676
-0.00151865
0.00152909
-0.000641914
-0.0014252
0.00143444
-0.000650256
-0.00133836
0.0013467
-0.00065801
-0.00125754
0.00126529
-0.000665484
-0.0011822
0.00118967
-0.000672976
-0.0011119
0.00111939
-0.000680779
-0.00104621
0.00105402
-0.000984728
0.000993136
-0.000689187
-7.45332e-06
-0.00796952
-2.57473e-05
-0.00731006
-5.1965e-05
-0.00670745
-8.38789e-05
-0.00615786
-0.00011963
-0.00565742
-0.000157664
-0.00520226
-0.000196692
-0.00478859
-0.000235654
-0.0044128
-0.000273693
-0.00407149
-0.000310127
-0.00376147
-0.000344424
-0.00347979
-0.000376183
-0.00322372
-0.000405119
-0.00299075
-0.000431048
-0.00277859
-0.000453872
-0.00258513
-0.000473572
-0.00240849
-0.000490197
-0.00224692
-0.000503853
-0.00209886
-0.000514699
-0.00196291
-0.00052294
-0.00183779
-0.000528817
-0.00172236
-0.000532604
-0.00161562
-0.000534598
-0.00151666
-0.000535116
-0.00142468
-0.000534488
-0.00133899
-0.000533049
-0.00125898
-0.000531136
-0.00118411
-0.000529075
-0.00111396
-0.00052719
-0.0010481
-0.000986112
-0.000525806
-7.06164e-06
-0.00796246
-2.47395e-05
-0.00729239
-5.01091e-05
-0.00668208
-8.08131e-05
-0.00612715
-0.000114923
-0.00562331
-0.000150849
-0.00516633
-0.000187283
-0.00475215
-0.000223157
-0.00437693
-0.000257609
-0.00403704
-0.000289955
-0.00372913
-0.000319664
-0.00345008
-0.00034634
-0.00319704
-0.0003697
-0.00296739
-0.000389565
-0.00275872
-0.000405845
-0.00256885
-0.000418527
-0.00239581
-0.000427668
-0.00223778
-0.000433386
-0.00209314
-0.000435853
-0.00196044
-0.000435289
-0.00183835
-0.000431952
-0.0017257
-0.000426136
-0.00162144
-0.000418162
-0.00152463
-0.000408372
-0.00143447
-0.000397127
-0.00135024
-0.000384792
-0.00127131
-0.000371738
-0.00119717
-0.000358327
-0.00112737
-0.00034492
-0.0010615
-0.000999152
-0.00033188
-6.80951e-06
-0.00795565
-2.37974e-05
-0.0072754
-4.80722e-05
-0.00665781
-7.72344e-05
-0.00609799
-0.000109312
-0.00559123
-0.000142684
-0.00513296
-0.000176025
-0.00471881
-0.000208256
-0.00434469
-0.000238512
-0.00400678
-0.000266106
-0.00370153
-0.000290508
-0.00342568
-0.000311323
-0.00317623
-0.000328272
-0.00295044
-0.000341179
-0.00274581
-0.000349957
-0.00256008
-0.000354601
-0.00239116
-0.000355175
-0.0022372
-0.000351806
-0.00209651
-0.000344677
-0.00196757
-0.000334022
-0.00184901
-0.000320117
-0.0017396
-0.000303276
-0.00163828
-0.000283845
-0.00154406
-0.000262196
-0.00145612
-0.000238718
-0.00137371
-0.000213816
-0.00129621
-0.000187897
-0.00122309
-0.000161369
-0.0011539
-0.000134634
-0.00108824
-0.00102568
-0.000108104
-6.57096e-06
-0.00794908
-2.27932e-05
-0.00725918
-4.5779e-05
-0.00663482
-7.31117e-05
-0.00607066
-0.000102795
-0.00556155
-0.000133188
-0.00510257
-0.000162953
-0.00468905
-0.000191003
-0.00431664
-0.00021647
-0.00398132
-0.000238665
-0.00367934
-0.00025706
-0.00340728
-0.00027126
-0.00316203
-0.000280988
-0.00294071
-0.000286071
-0.00274073
-0.000286425
-0.00255972
-0.000282048
-0.00239554
-0.000273009
-0.00224624
-0.000259442
-0.00211008
-0.000241542
-0.00198547
-0.000219552
-0.001871
-0.000193768
-0.00176539
-0.000164523
-0.00166752
-0.000132188
-0.0015764
-9.71652e-05
-0.00149114
-5.98796e-05
-0.001411
-2.07748e-05
-0.00133532
1.96958e-05
-0.00126356
6.10772e-05
-0.00119528
0.000102912
-0.00113007
-0.00106751
0.000144735
-6.30858e-06
-0.00794277
-2.16717e-05
-0.00724381
-4.3185e-05
-0.00661331
-6.842e-05
-0.00604542
-9.53661e-05
-0.00553461
-0.000122373
-0.00507556
-0.000148094
-0.00466333
-0.000171441
-0.0042933
-0.000191542
-0.00396121
-0.000207712
-0.00366317
-0.000219422
-0.00339557
-0.000226279
-0.00315517
-0.000228007
-0.00293898
-0.000224433
-0.00274431
-0.000215474
-0.00256868
-0.000201131
-0.00240988
-0.000181475
-0.0022659
-0.000156647
-0.00213491
-0.000126845
-0.00201527
-9.23275e-05
-0.00190551
-5.34016e-05
-0.00180432
-1.04218e-05
-0.0017105
3.62157e-05
-0.00162304
8.60786e-05
-0.00154101
0.000138704
-0.00146363
0.000193604
-0.00139022
0.000250275
-0.00132023
0.000308208
-0.00125321
0.000366882
-0.00118875
-0.00112639
0.000425768
-6.00884e-06
-0.00793676
-2.04073e-05
-0.00722941
-4.02652e-05
-0.00659345
-6.31421e-05
-0.00602255
-8.70203e-05
-0.00551073
-0.000110245
-0.00505234
-0.000131469
-0.0046421
-0.000149604
-0.00427516
-0.000163782
-0.00394704
-0.000173319
-0.00365363
-0.00017769
-0.0033912
-0.000176501
-0.00315636
-0.000169478
-0.00294601
-0.000156449
-0.00275733
-0.00013733
-0.0025878
-0.000112119
-0.00243509
-8.08908e-05
-0.00229713
-4.37849e-05
-0.00217201
-1.00665e-06
-0.00205805
4.71796e-05
-0.0019537
0.000100454
-0.00185759
0.000158443
-0.00176849
0.000220728
-0.00168532
0.000286843
-0.00160712
0.000356289
-0.00153307
0.000428529
-0.00146246
0.000503007
-0.00139471
0.000579147
-0.00132935
0.000656362
-0.00126596
-0.00120408
0.000734045
-5.6678e-06
-0.0079311
-1.89889e-05
-0.00721609
-3.70057e-05
-0.00657543
-5.72672e-05
-0.00600229
-7.77524e-05
-0.00549024
-9.6808e-05
-0.00503328
-0.000113091
-0.00462582
-0.00012552
-0.00426273
-0.000133232
-0.00393932
-0.000135547
-0.00365131
-0.000131945
-0.00339481
-0.000122036
-0.00316627
-0.000105544
-0.0029625
-8.22974e-05
-0.00278058
-5.22096e-05
-0.00261789
-1.5277e-05
-0.00247203
2.84306e-05
-0.00234084
7.87736e-05
-0.00222236
0.000135547
-0.00211482
0.000198481
-0.00201663
0.000267247
-0.00192636
0.000341458
-0.0018427
0.000420671
-0.00176453
0.000504393
-0.00169084
0.000592081
-0.00162076
0.000683153
-0.00155353
0.000776991
-0.00148854
0.000872952
-0.00142531
0.000970368
-0.00136338
-0.00130225
0.00106854
-5.28433e-06
-0.00792581
-1.74114e-05
-0.00720397
-3.33984e-05
-0.00655944
-5.07864e-05
-0.0059849
-6.75561e-05
-0.00547347
-8.20609e-05
-0.00501877
-9.29676e-05
-0.00461491
-9.92046e-05
-0.0042565
-9.99191e-05
-0.00393861
-9.4441e-05
-0.00365679
-8.22546e-05
-0.00340699
-6.29743e-05
-0.00318555
-3.63269e-05
-0.00298915
-2.13676e-06
-0.00281477
3.96847e-05
-0.00265971
8.91468e-05
-0.00252149
0.000146186
-0.00239787
0.000210667
-0.00228684
0.000282388
-0.00218654
0.000361082
-0.00209533
0.000446415
-0.00201169
0.000537989
-0.00193428
0.000635342
-0.00186189
0.000737953
-0.00179346
0.000845242
-0.00172805
0.000956574
-0.00166486
0.00107127
-0.00160324
0.00118861
-0.00154265
0.00130784
-0.00148261
-0.00142258
0.00142817
-4.85833e-06
-0.00792095
-1.56716e-05
-0.00719315
-2.94366e-05
-0.00654568
-4.3691e-05
-0.00597064
-5.6422e-05
-0.00546074
-6.59956e-05
-0.0050092
-7.10938e-05
-0.00460982
-7.06604e-05
-0.00425693
-6.38574e-05
-0.00394541
-5.00272e-05
-0.00367062
-2.86632e-05
-0.00342836
6.1406e-07
-0.00321483
3.80758e-05
-0.00302661
8.38989e-05
-0.00286059
0.000138177
-0.00271399
0.000200926
-0.00258424
0.000272092
-0.00246904
0.000351549
-0.0023663
0.000439105
-0.0022741
0.000534497
-0.00219072
0.000637393
-0.00211458
0.000747391
-0.00204427
0.000864015
-0.00197851
0.000986721
-0.00191616
0.00111489
-0.00185622
0.00124784
-0.00179781
0.00138483
-0.00174023
0.00152505
-0.00168288
0.00166766
-0.00162522
-0.00156666
0.00181174
-4.38918e-06
-0.00791656
-1.37659e-05
-0.00718378
-2.51128e-05
-0.00653433
-3.59692e-05
-0.00595979
-4.43355e-05
-0.00545237
-4.85962e-05
-0.00500494
-4.74543e-05
-0.00461096
-3.98754e-05
-0.00426451
-2.5041e-05
-0.00396025
-2.31065e-06
-0.00369335
2.88091e-05
-0.00345948
6.8689e-05
-0.00325471
0.000117596
-0.00307551
0.000175708
-0.00291871
0.000243123
-0.0027814
0.000319868
-0.00266098
0.000405898
-0.00255507
0.000501104
-0.0024615
0.000605305
-0.0023783
0.000718254
-0.00230367
0.000839625
-0.00223596
0.000969019
-0.00217367
0.00110596
-0.00211545
0.00124987
-0.00206007
0.00140011
-0.00200646
0.00155596
-0.00195366
0.00171659
-0.00190086
0.00188113
-0.00184742
0.00204861
-0.0017927
-0.00173606
0.00221801
-3.87577e-06
-0.00791269
-1.169e-05
-0.00717596
-2.04171e-05
-0.00652561
-2.76058e-05
-0.0059526
-3.12758e-05
-0.0054487
-2.98373e-05
-0.00500638
-2.20213e-05
-0.00461877
-6.82117e-06
-0.00427971
1.65558e-05
-0.00398362
4.87279e-05
-0.00372552
9.01704e-05
-0.00350092
0.000141242
-0.00330578
0.000202202
-0.00313647
0.000273227
-0.00298973
0.000354421
-0.0028626
0.00044582
-0.00275238
0.000547394
-0.00265664
0.000659052
-0.00257316
0.000780634
-0.00249988
0.00091191
-0.00243494
0.00105257
-0.00237662
0.00120224
-0.00232333
0.00136042
-0.00227363
0.00152655
-0.00222621
0.00169996
-0.00217987
0.00187988
-0.00213357
0.00206542
-0.0020864
0.00225562
-0.00203762
0.00244942
-0.0019865
-0.00193228
0.00264564
-3.31663e-06
-0.00790937
-9.43766e-06
-0.00716984
-1.53372e-05
-0.00651971
-1.85808e-05
-0.00594935
-1.72155e-05
-0.00545007
-9.68453e-06
-0.00501391
5.24568e-06
-0.0046337
2.85469e-05
-0.00430301
6.09794e-05
-0.00401606
0.000103133
-0.00376768
0.000155459
-0.00355325
0.000218298
-0.00336862
0.0002919
-0.00321008
0.000376437
-0.00307427
0.000472015
-0.00295817
0.000578679
-0.00285904
0.000696419
-0.00277438
0.000825163
-0.0027019
0.000964778
-0.0026395
0.00111506
-0.00258523
0.00127573
-0.00253729
0.00144643
-0.00249403
0.00162668
-0.00245389
0.00181592
-0.00241545
0.00201347
-0.00237742
0.00221851
-0.00233861
0.00243012
-0.00229801
0.00264724
-0.00225474
0.00286869
-0.00220795
-0.00215674
0.00309316
-2.70956e-06
-0.00790666
-7.00153e-06
-0.00716555
-9.85799e-06
-0.00651685
-8.87002e-06
-0.00595034
-2.12055e-06
-0.00545682
1.19059e-05
-0.00502794
3.43995e-05
-0.0046562
6.62895e-05
-0.0043349
0.000108296
-0.00405806
0.000160973
-0.00382035
0.000224742
-0.00361701
0.00029992
-0.0034438
0.00038674
-0.0032969
0.000485364
-0.00317289
0.000595899
-0.00306871
0.0007184
-0.00298155
0.000852871
-0.00290886
0.000999266
-0.0028483
0.00115748
-0.00279772
0.00132735
-0.0027551
0.00150864
-0.00271858
0.001701
-0.00268639
0.00190401
-0.0026569
0.00211712
-0.00262856
0.00233964
-0.00259993
0.00257074
-0.00256971
0.00280944
-0.00253672
0.00305462
-0.00249992
0.00330496
-0.00245829
-0.00241078
0.003559
-2.05209e-06
-0.00790461
-4.37287e-06
-0.00716323
-3.96206e-06
-0.00651726
1.55427e-06
-0.00595586
1.40483e-05
-0.00546931
3.49851e-05
-0.00504887
6.55033e-05
-0.00468672
0.000106481
-0.00437588
0.00015859
-0.00411017
0.000222341
-0.00388411
0.000298117
-0.00369279
0.000386204
-0.00353188
0.00048681
-0.0033975
0.000600084
-0.00328617
0.000726126
-0.00319475
0.000864996
-0.00312042
0.00101671
-0.00306057
0.00118126
-0.00301284
0.00135856
-0.00297502
0.0015485
-0.00294504
0.00175088
-0.00292096
0.00196542
-0.00290093
0.00219173
-0.00288321
0.00242929
-0.00286612
0.00267745
-0.00284809
0.00293537
-0.00282764
0.00320205
-0.00280339
0.00347626
-0.00277413
0.00375661
-0.00273864
-0.00269563
0.00404146
-1.34127e-06
-0.00790327
-1.54205e-06
-0.00716303
2.36962e-06
-0.00652117
1.27225e-05
-0.00596621
3.1334e-05
-0.00548793
5.96097e-05
-0.00507715
9.86273e-05
-0.00472573
0.000149205
-0.00442646
0.000211959
-0.00417293
0.000287347
-0.00395949
0.000375705
-0.00378115
0.000477277
-0.00363346
0.00059224
-0.00351246
0.000720719
-0.00341465
0.000862802
-0.00333683
0.00101855
-0.00327616
0.00118798
-0.00323001
0.00137111
-0.00319597
0.0015679
-0.00317181
0.00177829
-0.00315542
0.00200212
-0.00314479
0.00223919
-0.003138
0.00248918
-0.00313319
0.00275162
-0.00312856
0.0030259
-0.00312237
0.00331121
-0.00311295
0.00360653
-0.00309871
0.00391061
-0.0030782
0.00422191
-0.00304994
-0.00301237
0.00453865
-5.74164e-07
-0.0079027
1.5008e-06
-0.0071651
9.15671e-06
-0.00652883
2.46659e-05
-0.00598172
4.97808e-05
-0.00551304
8.58379e-05
-0.00511321
0.000133845
-0.00477374
0.000194553
-0.00448716
0.00026851
-0.00424688
0.000356113
-0.0040471
0.000457641
-0.00388268
0.000573289
-0.0037491
0.000703189
-0.00364236
0.000847434
-0.00355889
0.00100608
-0.00349548
0.00117919
-0.00344926
0.00136678
-0.0034176
0.00156888
-0.00339807
0.00178549
-0.00338843
0.00201659
-0.00338652
0.00226212
-0.00339031
0.00252192
-0.0033978
0.00279577
-0.00340704
0.0030833
-0.00341609
0.00338396
-0.00342304
0.00369701
-0.003426
0.00402144
-0.00342314
0.00435597
-0.00341273
0.00469899
-0.00339296
-0.00336192
0.00504854
2.52176e-07
-0.00790295
4.76534e-06
-0.00716962
1.6418e-05
-0.00654048
3.74144e-05
-0.00600272
6.94311e-05
-0.00554506
0.000113726
-0.0051575
0.000171228
-0.00483124
0.00024261
-0.00455854
0.000328346
-0.00433262
0.000428762
-0.00414751
0.00054407
-0.00399799
0.000674404
-0.00387944
0.00081984
-0.0037878
0.000980423
-0.00371947
0.00115618
-0.00367124
0.00134713
-0.00364021
0.0015533
-0.00362377
0.00177471
-0.00361949
0.00201141
-0.00362512
0.00226341
-0.00363853
0.00253072
-0.00365762
0.0028133
-0.00368038
0.00311102
-0.00370476
0.00342362
-0.00372869
0.00375068
-0.0037501
0.00409154
-0.00376686
0.00444526
-0.00377687
0.00481058
-0.00377804
0.00518581
-0.00376819
-0.00374498
0.00556887
1.14056e-06
-0.00790409
8.2604e-06
-0.00717674
2.41706e-05
-0.00655639
5.09945e-05
-0.00602954
9.03221e-05
-0.00558438
0.000143323
-0.0052105
0.000210838
-0.00489876
0.000293454
-0.00464116
0.000391563
-0.00443073
0.000505409
-0.00426136
0.00063513
-0.00412771
0.000780783
-0.00402509
0.000942379
-0.0039494
0.0011199
-0.00389699
0.00131332
-0.00386466
0.00152261
-0.00384951
0.00174778
-0.00384893
0.00198884
-0.00386055
0.00224584
-0.00388212
0.00251885
-0.00391154
0.00280794
-0.00394672
0.00311318
-0.00398561
0.00343455
-0.00402613
0.00377196
-0.0040661
0.00412514
-0.00410328
0.00449358
-0.0041353
0.00487646
-0.00415975
0.00527257
-0.00417415
0.00568023
-0.00417586
-0.00416198
0.00609722
2.09299e-06
-0.00790618
1.19929e-05
-0.00718664
3.24277e-05
-0.00657683
6.54268e-05
-0.00606254
0.000112482
-0.00563144
0.000174665
-0.00527268
0.00025272
-0.00497681
0.000347142
-0.00473558
0.000458231
-0.00454182
0.000586144
-0.00438927
0.000730931
-0.00427249
0.000892566
-0.00418673
0.00107098
-0.00412781
0.00126607
-0.00409208
0.00147774
-0.00407633
0.00170591
-0.00407768
0.00195052
-0.00409355
0.00221157
-0.00412159
0.00248908
-0.00415964
0.00278316
-0.00420562
0.00309394
-0.00425749
0.00342156
-0.00431324
0.00376618
-0.00437075
0.00412788
-0.00442779
0.00450658
-0.00448198
0.004902
-0.00453072
0.00531351
-0.00457126
0.00574004
-0.00460068
0.00617995
-0.00461577
-0.00461299
0.00663096
3.11087e-06
-0.00790929
1.59675e-05
-0.00719949
4.11982e-05
-0.00660206
8.07237e-05
-0.00610207
0.000135926
-0.00568664
0.00020777
-0.00534453
0.000296896
-0.00506594
0.0004037
-0.00484239
0.000528385
-0.0046665
0.000671013
-0.0045319
0.000831539
-0.00443302
0.00100984
-0.00436503
0.00120576
-0.00432372
0.0014191
-0.00430542
0.00164967
-0.0043069
0.0018973
-0.00432531
0.00216186
-0.00435811
0.00244328
-0.00440301
0.00274155
-0.00445791
0.00305675
-0.00452082
0.00338906
-0.0045898
0.00373871
-0.00466289
0.00410599
-0.00473803
0.00449117
-0.00481298
0.00489446
-0.00488527
0.00531586
-0.00495211
0.00575502
-0.00501042
0.00621111
-0.00505678
0.00668266
-0.00508732
-0.00509768
0.00716735
4.19456e-06
-0.00791349
2.01862e-05
-0.00721548
5.0485e-05
-0.00663235
9.68874e-05
-0.00614847
0.000160654
-0.00575041
0.000242632
-0.00542651
0.000343355
-0.00516666
0.000463113
-0.00496214
0.000602008
-0.0048054
0.000760002
-0.00468989
0.00093695
-0.00460997
0.00113263
-0.00456071
0.00134678
-0.00453787
0.00157909
-0.00453774
0.00182926
-0.00455708
0.00209702
-0.00459307
0.00238212
-0.00464321
0.00268438
-0.00470527
0.00300373
-0.00477726
0.00334018
-0.00485727
0.00369389
-0.00494351
0.00406515
-0.00503415
0.00445437
-0.00512724
0.00486203
-0.00522064
0.00528864
-0.00531187
0.00573455
-0.00539803
0.00619985
-0.00547572
0.0066841
-0.00554103
0.00718609
-0.00558931
-0.00561518
0.00770359
5.3436e-06
-0.00791883
2.46485e-05
-0.00723479
6.02857e-05
-0.00666799
0.000113909
-0.00620209
0.000186645
-0.00582314
0.000279217
-0.00551908
0.000392045
-0.00527949
0.000525311
-0.00509541
0.000679013
-0.0049591
0.000853013
-0.00486389
0.00104706
-0.00480402
0.00126084
-0.00477449
0.00149396
-0.00477099
0.001746
-0.00478978
0.00201655
-0.00482763
0.00230518
-0.0048817
0.00261152
-0.00494955
0.00293525
-0.005029
0.00327615
-0.00511815
0.00363412
-0.00521524
0.00400924
-0.00531863
0.00440177
-0.00542668
0.00481219
-0.00553766
0.00524117
-0.00564962
0.00568951
-0.00576022
0.00615804
-0.00586656
0.00664739
-0.00596506
0.00715769
-0.00605133
0.00768824
-0.00611986
-0.00616397
0.00823704
6.55663e-06
-0.00792539
2.93527e-05
-0.00725758
7.05931e-05
-0.00670923
0.000131769
-0.00626327
0.000213859
-0.00590523
0.000317458
-0.00562268
0.000442868
-0.0054049
0.000590162
-0.0052427
0.000759235
-0.00512818
0.000949849
-0.00505451
0.00116165
-0.00501582
0.00139422
-0.00500705
0.00164705
-0.00502382
0.00191962
-0.00506235
0.00221136
-0.00511937
0.00252172
-0.00519205
0.00285014
-0.00527796
0.00319613
-0.00537499
0.00355928
-0.0054813
0.0039393
-0.00559527
0.0043361
-0.00571543
0.00474982
-0.0058404
0.00518088
-0.00596873
0.00563005
-0.00609879
0.0060984
-0.00622856
0.00658724
-0.0063554
0.00709791
-0.00647573
0.00763139
-0.00658481
0.00818777
-0.00667625
-0.00674175
0.00876555
7.83395e-06
-0.00793322
3.42993e-05
-0.00728405
8.13989e-05
-0.00675633
0.000150436
-0.0063323
0.000242234
-0.00599703
0.000357253
-0.0057377
0.000495674
-0.00554332
0.000657463
-0.00540449
0.000842416
-0.00531313
0.00105019
-0.00526228
0.00128035
-0.00524598
0.00153236
-0.00525906
0.00180562
-0.00529708
0.00209949
-0.00535621
0.00241327
-0.00543315
0.00274625
-0.00552503
0.00309772
-0.00562943
0.00346697
-0.00574425
0.00385337
-0.0058677
0.00425636
-0.00599826
0.00467558
-0.00613465
0.00511089
-0.00627571
0.00556251
-0.00642034
0.0060311
-0.00656738
0.00651786
-0.00671533
0.00702454
-0.00686207
0.00755325
-0.00700444
0.00810616
-0.00713772
0.00868464
-0.00725473
-0.00734518
0.00928808
9.18217e-06
-0.0079424
3.94993e-05
-0.00731437
9.26998e-05
-0.00680953
0.000169877
-0.00640948
0.000271689
-0.00609884
0.000398462
-0.00586447
0.000550259
-0.00569512
0.000726938
-0.00558117
0.000928197
-0.00551439
0.0011536
-0.00548769
0.00140262
-0.005495
0.00167463
-0.00553107
0.00196895
-0.0055914
0.00228482
-0.00567209
0.00262145
-0.00576977
0.00297798
-0.00588157
0.00335355
-0.006005
0.00374726
-0.00613795
0.00415821
-0.00627865
0.00458556
-0.00642562
0.00502857
-0.00657766
0.00548668
-0.00673382
0.00595969
-0.00689335
0.00644787
-0.00705556
0.00695222
-0.00721968
0.00747462
-0.00738447
0.00801792
-0.00754774
0.00858572
-0.00770552
0.0091814
-0.00785042
-0.00796967
0.00980589
1.06259e-05
-0.00795303
4.49871e-05
-0.00734873
0.000104505
-0.00686905
0.00019005
-0.00649503
0.00030212
-0.00621091
0.000440909
-0.00600326
0.000606363
-0.00586057
0.000798233
-0.00577304
0.00101612
-0.00573227
0.0012595
-0.00573107
0.00152776
-0.00576326
0.00182019
-0.00582351
0.00213605
-0.00590725
0.00247449
-0.00601053
0.00283464
-0.00612993
0.00321557
-0.0062625
0.00361627
-0.0064057
0.00403571
-0.00655739
0.00447277
-0.00671571
0.00492634
-0.00687918
0.00539528
-0.00704659
0.00587853
-0.00721707
0.00637523
-0.00739006
0.00688494
-0.00756527
0.00740791
-0.00774265
0.00794555
-0.00792211
0.00850086
-0.00810305
0.00907875
-0.0082834
0.00968542
-0.00845709
-0.00860877
0.0103245
1.22338e-05
-0.00796526
5.08454e-05
-0.00738734
0.000116847
-0.00693505
0.000210914
-0.00658909
0.000333403
-0.0063334
0.000484382
-0.00615424
0.000663674
-0.00603986
0.000870923
-0.00598029
0.00110563
-0.00596698
0.00136718
-0.00599262
0.00165488
-0.00605096
0.00196797
-0.0061366
0.00230563
-0.00624491
0.00266698
-0.00637188
0.0030511
-0.00651405
0.00345701
-0.00666841
0.00388368
-0.00683237
0.00432999
-0.0070037
0.00479476
-0.00718048
0.00527667
-0.0073611
0.00577434
-0.00754426
0.00628626
-0.00772899
0.00681089
-0.00791468
0.00734679
-0.00810117
0.0078929
-0.00828877
0.00844913
-0.00847834
0.00901717
-0.00867108
0.00960185
-0.00886808
0.0102123
-0.00906755
-0.00925676
0.0108603
1.42291e-05
-0.00797949
5.72738e-05
-0.00743038
0.000129795
-0.00700757
0.000232416
-0.00669171
0.000365383
-0.00646637
0.000528624
-0.00631748
0.000721832
-0.00623307
0.000944525
-0.00620298
0.0011961
-0.00621855
0.00147584
-0.00627236
0.00178298
-0.0063581
0.00211671
-0.00647032
0.00247615
-0.00660435
0.0028604
-0.00675613
0.00326854
-0.00692219
0.00369962
-0.00709948
0.00415262
-0.00728538
0.00462651
-0.00747759
0.00512015
-0.00767412
0.00563233
-0.00787328
0.00616167
-0.0080736
0.00670659
-0.00827391
0.00726522
-0.00847331
0.00783537
-0.00867132
0.00841458
-0.00886798
0.00900039
-0.00906415
0.00959111
-0.0092618
0.0101878
-0.00946478
0.0107998
-0.0096795
-0.00991867
0.0114617
1.74234e-05
-0.00799691
6.46587e-05
-0.00747762
0.000143408
-0.00708632
0.000254449
-0.00680276
0.000397847
-0.00660977
0.000573332
-0.00649296
0.000780427
-0.00644017
0.0010185
-0.00644106
0.00128683
-0.00648687
0.0015846
-0.00657014
0.00191097
-0.00668446
0.00226503
-0.00682439
0.00264588
-0.0069852
0.00305262
-0.00716287
0.00348433
-0.0073539
0.0039401
-0.00755526
0.00441906
-0.00776433
0.00492032
-0.00797885
0.00544302
-0.00819682
0.00598629
-0.00841656
0.00654926
-0.00863657
0.00713098
-0.00885563
0.00773036
-0.00907269
0.00834604
-0.009287
0.00897617
-0.00949812
0.00961826
-0.00970625
0.0102689
-0.00991245
0.0109227
-0.0101186
0.0115751
-0.0103318
-0.0105747
0.0122311
0.00899292
4.6076e-05
-0.009039
0.00894779
4.51307e-05
0.00890295
4.48389e-05
0.00885826
4.46866e-05
0.00881375
4.45145e-05
0.00876948
4.42665e-05
0.00872556
4.39207e-05
0.00868209
4.34706e-05
0.00863917
4.29167e-05
0.00859691
4.22629e-05
0.0085554
4.15142e-05
0.00851472
4.0676e-05
0.00847497
3.97543e-05
0.00843621
3.87551e-05
0.00839853
3.76846e-05
0.00836198
3.65486e-05
0.00832663
3.53531e-05
0.00829252
3.41037e-05
0.00825972
3.28055e-05
0.00822825
3.14638e-05
0.00819817
3.00833e-05
0.0081695
2.86686e-05
0.00814228
2.7224e-05
0.00811652
2.57537e-05
0.00809226
2.42598e-05
0.00806952
2.27391e-05
0.00804835
2.11724e-05
0.00802885
1.95004e-05
0.00801134
1.75155e-05
1.44204e-05
0.0102851
0.000164621
-0.0104036
0.0101654
0.000164843
0.010045
0.00016518
0.00992432
0.000165377
0.00980355
0.000165289
0.00968297
0.000164847
0.00956287
0.000164017
0.00944355
0.000162789
0.0093253
0.000161166
0.0092084
0.00015916
0.00909313
0.000156784
0.00897975
0.000154058
0.00886851
0.000150999
0.00875963
0.00014763
0.00865335
0.000143971
0.00854985
0.000140042
0.00844934
0.000135865
0.00835198
0.00013146
0.00825795
0.000126845
0.00816737
0.000122039
0.0080804
0.000117059
0.00799714
0.000111921
0.00791773
0.000106641
0.00784225
0.00010123
0.00777081
9.56964e-05
0.00770352
9.00362e-05
0.00764047
8.4222e-05
0.00758179
7.81771e-05
0.0075276
7.17059e-05
6.43998e-05
0.0115422
0.000343623
-0.0117212
0.0113605
0.000346626
0.0111767
0.000348954
0.0109915
0.000350542
0.0108055
0.00035132
0.0106191
0.000351243
0.0104328
0.000350288
0.0102472
0.000348452
0.0100626
0.000345749
0.00987954
0.0003422
0.00969849
0.000337835
0.00951985
0.00033269
0.00934405
0.000326801
0.00917147
0.000320211
0.00900248
0.000312962
0.00883743
0.000305096
0.00867664
0.000296655
0.00852041
0.000287682
0.00836904
0.000278215
0.00822279
0.000268293
0.00808189
0.000257953
0.00794659
0.000247228
0.00781708
0.00023615
0.00769356
0.000224747
0.00757622
0.00021304
0.00746521
0.000201042
0.00736069
0.000188744
0.00726276
0.00017611
0.00717141
0.000163056
0.000149483
0.0127548
0.000572341
-0.0129835
0.0125217
0.000579719
0.0122851
0.000585571
0.0120458
0.000589905
0.0118044
0.000592701
0.0115617
0.000593947
0.0113183
0.000593638
0.011075
0.000591788
0.0108323
0.000588422
0.0105909
0.000583579
0.0103515
0.000577306
0.0101145
0.000569659
0.00988059
0.000560698
0.00965031
0.000550489
0.00942418
0.000539099
0.00920267
0.000526598
0.00898627
0.000513055
0.00877542
0.000498538
0.00857052
0.000483113
0.00837197
0.000466844
0.00818013
0.000449791
0.00799535
0.000432012
0.00781793
0.000413562
0.00764819
0.000394493
0.00748638
0.00037485
0.00733274
0.000354676
0.00718748
0.000334003
0.00705074
0.000312855
0.00692254
0.000291256
0.000269268
0.0139148
0.000841022
-0.0141835
0.01364
0.00085453
0.01336
0.000865597
0.0130757
0.000874246
0.0127879
0.000880483
0.0124975
0.000884314
0.0122054
0.000885752
0.0119124
0.000884826
0.0116192
0.000881577
0.0113267
0.00087606
0.0110357
0.000868341
0.0107468
0.000858497
0.0104609
0.000846614
0.0101786
0.000832783
0.00990064
0.000817101
0.00962757
0.000799665
0.00936005
0.000780576
0.00909866
0.000759931
0.00884394
0.000737826
0.00859643
0.000714356
0.00835662
0.000689608
0.00812496
0.000663671
0.00790189
0.000636626
0.00768783
0.000608555
0.00748314
0.000579539
0.00728816
0.000549659
0.00710316
0.000518998
0.00692837
0.00048765
0.0067639
0.000455727
0.000423396
0.0150161
0.00114094
-0.015316
0.0147081
0.00116246
0.0143932
0.00118056
0.0140722
0.00119526
0.0137461
0.00120655
0.0134159
0.00121446
0.0130827
0.00121901
0.0127473
0.00122022
0.0124107
0.00121817
0.0120739
0.00121291
0.0117377
0.00120453
0.011403
0.00119313
0.0110708
0.00117882
0.0107419
0.00116171
0.0104171
0.00114193
0.0100971
0.00111961
0.00978282
0.00109489
0.00947487
0.00106788
0.00917397
0.00103873
0.00888077
0.00100755
0.00859592
0.000974464
0.00832
0.000939593
0.00805357
0.000903051
0.00779717
0.000864954
0.00755129
0.00082542
0.00731637
0.000784577
0.00709281
0.000742565
0.00688091
0.000699549
0.00668091
0.000655724
0.000611344
0.016054
0.00146431
-0.0163773
0.0157206
0.0014958
0.0153783
0.00152285
0.0150282
0.00154544
0.0146712
0.00156355
0.0143084
0.0015772
0.013941
0.0015864
0.0135701
0.0015912
0.0131966
0.00159165
0.0128216
0.00158784
0.0124463
0.00157986
0.0120716
0.00156783
0.0116985
0.00155188
0.0113281
0.00153214
0.0109613
0.00150878
0.0105989
0.00148195
0.010242
0.00145181
0.00989134
0.00141854
0.00954779
0.00138228
0.00921214
0.0013432
0.00888516
0.00130144
0.00856758
0.00125717
0.00826011
0.00121053
0.0079634
0.00116166
0.00767808
0.00111074
0.00740473
0.00105793
0.00714386
0.00100343
0.00689592
0.000947489
0.00666126
0.000890379
0.000832441
0.0170254
0.00180424
-0.0173654
0.0166736
0.00184769
0.0163108
0.00188563
0.0159382
0.00191801
0.015557
0.00194479
0.0151682
0.00196595
0.0147731
0.00198151
0.0143728
0.0019915
0.0139685
0.00199597
0.0135613
0.00199501
0.0131525
0.00198871
0.0127431
0.00197721
0.0123343
0.00196065
0.0119273
0.0019392
0.011523
0.00191304
0.0111226
0.00188234
0.0107271
0.00184731
0.0103375
0.00180814
0.00995476
0.00176502
0.00957982
0.00171814
0.00921359
0.00166767
0.00885694
0.00161382
0.00851073
0.00155674
0.00817575
0.00149664
0.00785278
0.0014337
0.00754255
0.00136816
0.00724572
0.00130026
0.00696288
0.00123033
0.00669453
0.00115873
0.00108591
0.0179288
0.00215466
-0.0182792
0.0175644
0.00221201
0.0171873
0.00226279
0.0167984
0.00230689
0.016399
0.00234423
0.0159901
0.00237476
0.0155732
0.00239847
0.0151493
0.00241537
0.0147198
0.0024255
0.0142859
0.00242894
0.0138488
0.00242579
0.0134098
0.00241618
0.0129702
0.00240027
0.0125311
0.00237825
0.0120939
0.0023503
0.0116596
0.00231664
0.0112294
0.00227748
0.0108045
0.00223305
0.010386
0.00218357
0.00997484
0.00212925
0.0095722
0.00207032
0.00917905
0.00200696
0.0087964
0.0019394
0.00842521
0.00186784
0.0080664
0.00179251
0.00772087
0.00171369
0.00738944
0.00163169
0.00707288
0.00154689
0.00677185
0.00145977
0.00137088
0.0187633
0.00251024
-0.0191189
0.0183919
0.0025834
0.0180058
0.00264893
0.017606
0.00270665
0.0171938
0.00275644
0.0167704
0.00279822
0.0163369
0.00283192
0.0158948
0.00285752
0.0154452
0.00287506
0.0149896
0.00288457
0.0145292
0.00288617
0.0140654
0.00287997
0.0135996
0.00286613
0.013133
0.00284486
0.0126669
0.00281634
0.0122027
0.00278082
0.0117417
0.00273853
0.011285
0.00268972
0.0108339
0.00263463
0.0103897
0.00257351
0.00995343
0.00250658
0.00952633
0.00243406
0.00910953
0.0023562
0.00870416
0.00227321
0.00831132
0.00218535
0.00793207
0.00209293
0.00756744
0.00199632
0.00721837
0.00189596
0.0068857
0.00179244
0.00168644
0.0195295
0.00286642
-0.0198857
0.0191557
0.00295718
0.0187654
0.00303927
0.0183596
0.00311246
0.0179395
0.00317657
0.0175062
0.00323145
0.0170612
0.00327699
0.0166056
0.00331313
0.0161407
0.00333986
0.0156681
0.00335721
0.015189
0.00336524
0.0147049
0.00336409
0.0142172
0.00335389
0.0137272
0.00333483
0.0132364
0.00330714
0.0127462
0.00327106
0.0122579
0.00322683
0.0117729
0.00317472
0.0112925
0.003115
0.0108181
0.00304791
0.010351
0.0029737
0.00989242
0.00289262
0.00944373
0.00280488
0.00900621
0.00271073
0.00858112
0.00261044
0.00816974
0.00250432
0.00777328
0.00239277
0.00739291
0.00227633
0.00702967
0.00215568
0.00203165
0.0202285
0.00321927
-0.0205814
0.0198564
0.00332929
0.019466
0.00342967
0.0190584
0.0035201
0.0186346
0.00360031
0.018196
0.0036701
0.0177437
0.00372931
0.017279
0.00377781
0.0168033
0.00381555
0.016318
0.00384252
0.0158245
0.00385875
0.0153242
0.00386435
0.0148187
0.00385944
0.0143093
0.00384421
0.0137976
0.00381887
0.013285
0.00378366
0.0127729
0.00373886
0.0122629
0.00368472
0.0117564
0.00362152
0.0112548
0.00354953
0.0107595
0.00346899
0.010272
0.00338015
0.00979363