/*--------------------------------*- C++ -*----------------------------------*\
  =========                 |
  \\      /  F ield         | OpenFOAM: The Open Source CFD Toolbox
   \\    /   O peration     | Website:  https://openfoam.org
    \\  /    A nd           | Version:  6.0
     \\/     M anipulation  |
\*---------------------------------------------------------------------------*/
FoamFile
{
    version     2.0;
    format      ascii;
    class       surfaceScalarField;
    location    "2.25";
    object      phi;
}
// * * * * * * * * * * * * * * * * * * * * * * * * * * * * * * * * * * * * * //

dimensions      [0 3 -1 0 0 0 0];

internalField   nonuniform List<scalar> 
38030
(
4.50166e-06
-0.0809001
0.0808956
4.78878e-05
-0.0767431
0.0766997
0.000124426
-0.0731077
0.0730311
0.000229897
-0.0699029
0.0697974
0.000360975
-0.0670511
0.06692
0.000514151
-0.0644858
0.0643327
0.000685865
-0.0621531
0.0619814
0.00087267
-0.0600094
0.0598226
0.00107133
-0.05802
0.0578214
0.00127892
-0.0561576
0.05595
0.00149283
-0.0544009
0.054187
0.00171083
-0.0527333
0.0525153
0.00193103
-0.0511421
0.0509219
0.00215187
-0.0496175
0.0493966
0.00237212
-0.048152
0.0479317
0.00259082
-0.0467398
0.0465211
0.00280726
-0.0453764
0.04516
0.00302095
-0.0440584
0.0438447
0.00323158
-0.0427827
0.0425721
0.00343895
-0.0415472
0.0413399
0.003643
-0.0403498
0.0401458
0.00384373
-0.0391888
0.038988
0.00404121
-0.0380625
0.037865
0.00423549
-0.0369694
0.0367751
0.00442665
-0.0359083
0.0357171
0.00461472
-0.0348777
0.0346896
0.00479969
-0.0338764
0.0336915
0.00498148
-0.0329035
0.0327217
0.00515992
-0.0319578
0.0317793
-0.031038
0.0308631
0.00533478
1.13934e-05
-0.0809115
5.57684e-05
-0.0767875
0.000133003
-0.0731849
0.000239982
-0.0700099
0.000373189
-0.0671843
0.000528895
-0.0646415
0.000703351
-0.0623276
0.000892956
-0.060199
0.00109437
-0.0582215
0.00130458
-0.0563678
0.00152094
-0.0546172
0.00174118
-0.0529535
0.0019634
-0.0513643
0.00218605
-0.0498401
0.0024079
-0.0483738
0.00262804
-0.0469599
0.00284578
-0.0455942
0.00306066
-0.0442732
0.00327241
-0.0429945
0.00348089
-0.0417557
0.00368607
-0.040555
0.00388801
-0.0393907
0.0040868
-0.0382613
0.00428256
-0.0371652
0.00447539
-0.0361011
0.00466539
-0.0350676
0.00485256
-0.0340636
0.00503686
-0.0330878
0.00521817
-0.0321391
-0.0312161
0.00539625
1.39123e-05
-0.0809254
6.05934e-05
-0.0768341
0.000139914
-0.0732642
0.000249257
-0.0701192
0.000385126
-0.0673201
0.000543699
-0.0648001
0.000721112
-0.062505
0.000913661
-0.0603916
0.00111792
-0.0584257
0.00133081
-0.0565807
0.00154964
-0.0548361
0.00177213
-0.053176
0.00199636
-0.0515885
0.00222079
-0.0500646
0.00244423
-0.0485973
0.00266577
-0.0471815
0.00288477
-0.0458132
0.00310081
-0.0444893
0.00331364
-0.0432073
0.00352319
-0.0419653
0.00372947
-0.0407613
0.00393259
-0.0395938
0.00413268
-0.0384614
0.00432992
-0.0373624
0.00452444
-0.0362956
0.00471637
-0.0352596
0.00490577
-0.034253
0.00509263
-0.0332747
0.00527685
-0.0323233
-0.0313975
0.00545823
1.53487e-05
-0.0809408
6.42252e-05
-0.076883
0.000145997
-0.073346
0.00025807
-0.0702313
0.000396899
-0.067459
0.000558563
-0.0649618
0.000739092
-0.0626855
0.000934689
-0.0605872
0.00114185
-0.0586329
0.00135746
-0.0567963
0.00157877
-0.0550574
0.00180349
-0.0534007
0.0020297
-0.0518147
0.00225588
-0.0502907
0.00248085
-0.0488223
0.00270374
-0.0474044
0.00292393
-0.0460334
0.00314105
-0.0447064
0.00335491
-0.0434212
0.00356547
-0.0421758
0.0037728
-0.0409686
0.00397705
-0.0397981
0.0041784
-0.0386627
0.00437708
-0.0375611
0.00457326
-0.0364918
0.00476712
-0.0354534
0.00495876
-0.0344446
0.0051482
-0.0334641
0.00533536
-0.0325105
-0.0315822
0.00552009
1.63972e-05
-0.0809572
6.73127e-05
-0.0769339
0.000151641
-0.0734303
0.000266622
-0.0703463
0.000408587
-0.0676009
0.000573488
-0.0651267
0.000757239
-0.0628693
0.000955953
-0.0607859
0.00116606
-0.058843
0.00138438
-0.0570146
0.00160815
-0.0552812
0.00183506
-0.0536276
0.00206321
-0.0520429
0.00229107
-0.0505186
0.00251749
-0.0490487
0.00274163
-0.0476285
0.00296293
-0.0462547
0.00318105
-0.0449245
0.00339585
-0.043636
0.00360734
-0.0423873
0.00381563
-0.0411769
0.00402093
-0.0400034
0.00422348
-0.0388653
0.00442354
-0.0377611
0.00462134
-0.0366896
0.0048171
-0.0356492
0.00501095
-0.0346385
0.00520296
-0.0336561
0.00539308
-0.0327006
-0.0317703
0.00558117
1.72772e-05
-0.0809744
7.01343e-05
-0.0769868
0.000157053
-0.0735172
0.000275034
-0.0704643
0.000420238
-0.0677461
0.000588465
-0.0652949
0.0007755
-0.0630563
0.000977364
-0.0609878
0.00119042
-0.059056
0.00141143
-0.0572357
0.00163762
-0.0555073
0.00186666
-0.0538567
0.00209665
-0.0522729
0.0023261
-0.0507481
0.00255387
-0.0492764
0.00277916
-0.0478538
0.00300146
-0.0464769
0.00322046
-0.0451435
0.00343608
-0.0438516
0.00364838
-0.0425996
0.00385753
-0.0413861
0.00406378
-0.0402096
0.00426743
-0.0390689
0.00446878
-0.0379625
0.00466813
-0.036889
0.00486573
-0.0358468
0.00506174
-0.0348345
0.00525628
-0.0338507
0.00544934
-0.0328936
-0.0319617
0.00564079
1.80831e-05
-0.0809925
7.2827e-05
-0.0770415
0.000162344
-0.0736067
0.000283374
-0.0705853
0.000431873
-0.0678946
0.000603471
-0.0654665
0.000793827
-0.0632467
0.000998839
-0.0611928
0.00121481
-0.059272
0.00143847
-0.0574593
0.00166701
-0.0557359
0.00189808
-0.0540877
0.00212982
-0.0525046
0.00236073
-0.050979
0.00258972
-0.0495054
0.00281603
-0.0480801
0.00303918
-0.0467001
0.00325893
-0.0453633
0.00347523
-0.0440679
0.0036882
-0.0428126
0.00389806
-0.0415959
0.00410513
-0.0404167
0.00430976
-0.0392735
0.0045123
-0.038165
0.00471309
-0.0370897
0.00491242
-0.0360461
0.00511053
-0.0350326
0.00530755
-0.0340477
0.00550349
-0.0330896
-0.0321565
0.00569827
1.88548e-05
-0.0810114
7.54597e-05
-0.0770981
0.000167579
-0.0736989
0.000291679
-0.0707094
0.000443497
-0.0680465
0.000618488
-0.0656415
0.000812158
-0.0634404
0.0010203
-0.0614009
0.00123913
-0.0594908
0.00146536
-0.0576855
0.00169614
-0.0559667
0.00192914
-0.0543207
0.00216248
-0.0527379
0.00239471
-0.0512112
0.00262478
-0.0497355
0.00285195
-0.0483073
0.00307578
-0.0469239
0.0032961
-0.0455836
0.00351291
-0.0442847
0.00372639
-0.043026
0.0039368
-0.0418064
0.00414453
-0.0406244
0.00434997
-0.039479
0.00455355
-0.0383686
0.00475565
-0.0372918
0.00495661
-0.0362471
0.00515671
-0.0352327
0.0053561
-0.0342471
0.00555486
-0.0332883
-0.0323546
0.0057529
1.96145e-05
-0.081031
7.80666e-05
-0.0771566
0.000172791
-0.0737936
0.000299968
-0.0708366
0.000455107
-0.0682016
0.00063348
-0.0658199
0.000830436
-0.0636373
0.00104165
-0.0616121
0.00126328
-0.0597125
0.00149196
-0.0579142
0.00172486
-0.0561996
0.00195964
-0.0545555
0.00219443
-0.0529727
0.00242782
-0.0514446
0.00265877
-0.0499665
0.00288661
-0.0485351
0.00311094
-0.0471483
0.00333164
-0.0458043
0.00354876
-0.0445018
0.00376254
-0.0432398
0.00397331
-0.0420171
0.0041815
-0.0408326
0.00438758
-0.0396851
0.00459202
-0.0385731
0.00479526
-0.0374951
0.0049977
-0.0364495
0.00519964
-0.0354347
0.0054013
-0.0344487
0.00560277
-0.0334898
-0.0325558
0.005804
2.03696e-05
-0.0810514
8.06671e-05
-0.0772169
0.000177994
-0.0738909
0.000308245
-0.0709668
0.000466689
-0.06836
0.000648406
-0.0660016
0.000848595
-0.0638375
0.00106282
-0.0618264
0.00128712
-0.0599368
0.00151814
-0.0581452
0.00175301
-0.0564344
0.0019894
-0.0547919
0.00222546
-0.0532088
0.0024598
-0.0516789
0.00269144
-0.0501981
0.00291974
-0.0487634
0.00314435
-0.0473729
0.0033652
-0.0460251
0.00358241
-0.044719
0.00379626
-0.0434537
0.00400716
-0.042228
0.0042156
-0.0410411
0.00442209
-0.0398916
0.00462718
-0.0387781
0.00483137
-0.0376993
0.0050351
-0.0366533
0.00523872
-0.0356383
0.00544249
-0.0346525
0.00564654
-0.0336938
-0.0327601
0.00585083
2.11248e-05
-0.0810725
8.32663e-05
-0.077279
0.000183192
-0.0739908
0.000316503
-0.0711001
0.000478221
-0.0685218
0.000663229
-0.0661866
0.000866578
-0.0640408
0.0010837
-0.0620435
0.00131058
-0.0601636
0.00154377
-0.0583784
0.00178044
-0.0566711
0.00201824
-0.0550297
0.00225536
-0.0534459
0.00249044
-0.051914
0.00272254
-0.0504302
0.00295105
-0.0489919
0.0031757
-0.0475975
0.00339646
-0.0462459
0.0036135
-0.0449361
0.00382717
-0.0436673
0.00403794
-0.0424388
0.00424636
-0.0412495
0.00445302
-0.0400982
0.00465851
-0.0389836
0.00486341
-0.0379042
0.00506821
-0.0368581
0.00527331
-0.0358434
0.00547902
-0.0348582
0.00568547
-0.0339003
-0.0329673
0.00589269
2.18821e-05
-0.0810944
8.58647e-05
-0.077343
0.000188382
-0.0740934
0.000324732
-0.0712365
0.000489684
-0.0686867
0.000677915
-0.0663748
0.000884327
-0.0642473
0.00110423
-0.0622634
0.00133352
-0.0603929
0.00156873
-0.0586136
0.00180699
-0.0569094
0.002046
-0.0552687
0.00228395
-0.0536839
0.00251953
-0.0521496
0.00275182
-0.0506625
0.0029803
-0.0492204
0.00320471
-0.047822
0.00342509
-0.0464663
0.00364168
-0.0451527
0.00385489
-0.0438805
0.00406524
-0.0426491
0.00427335
-0.0414576
0.00447988
-0.0403047
0.0046855
-0.0391893
0.00489083
-0.0381095
0.00509643
-0.0370637
0.00530278
-0.0360497
0.0055102
-0.0350656
0.00571888
-0.034109
-0.0331773
0.00592885
2.26397e-05
-0.081117
8.84623e-05
-0.0774088
0.000193558
-0.0741985
0.000332921
-0.0713759
0.000501053
-0.0688548
0.000692424
-0.0665662
0.000901778
-0.0644566
0.00112432
-0.0624859
0.00135587
-0.0606245
0.00159289
-0.0588507
0.00183253
-0.057149
0.0020725
-0.0555087
0.00231104
-0.0539224
0.00254685
-0.0523854
0.00277907
-0.0508947
0.00300722
-0.0494485
0.00323111
-0.0480458
0.00345082
-0.046686
0.00366665
-0.0453685
0.00387906
-0.044093
0.00408867
-0.0428588
0.00429614
-0.0416651
0.00450221
-0.0405108
0.00470763
-0.0393947
0.00491308
-0.038315
0.00511919
-0.0372698
0.0053265
-0.036257
0.00553537
-0.0352745
0.00574604
-0.0343196
-0.0333898
0.00595855
2.3397e-05
-0.0811404
9.1053e-05
-0.0774765
0.000198714
-0.0743061
0.000341057
-0.0715182
0.000512308
-0.0690261
0.000706721
-0.0667606
0.000918885
-0.0646688
0.00114391
-0.062711
0.00137752
-0.0608581
0.00161615
-0.0590893
0.00185693
-0.0573898
0.00209761
-0.0557494
0.00233646
-0.0541612
0.00257222
-0.0526212
0.00280408
-0.0511266
0.0030316
-0.0496761
0.00325464
-0.0482689
0.00347335
-0.0469047
0.00368808
-0.0455832
0.00389937
-0.0443042
0.00410787
-0.0430672
0.00431433
-0.0418715
0.00451957
-0.0407161
0.00472441
-0.0395995
0.00492962
-0.0385202
0.00513589
-0.037476
0.00534382
-0.036465
0.00555385
-0.0354845
0.00576623
-0.034532
-0.0336046
0.00598106
2.41514e-05
-0.0811646
9.36333e-05
-0.077546
0.000203841
-0.0744163
0.000349126
-0.0716635
0.000523431
-0.0692004
0.000720779
-0.066958
0.000935604
-0.0648836
0.00116292
-0.0629383
0.00139838
-0.0610936
0.00163841
-0.0593293
0.00188008
-0.0576315
0.00212119
-0.0559905
0.00236006
-0.0544001
0.00259547
-0.0528566
0.00282665
-0.0513578
0.00305322
-0.0499026
0.00327508
-0.0484908
0.00349245
-0.0471221
0.00370572
-0.0457965
0.0039155
-0.044514
0.00412249
-0.0432742
0.00432754
-0.0420766
0.00453153
-0.04092
0.00473536
-0.0398033
0.0049399
-0.0387247
0.00514594
-0.0376821
0.00535414
-0.0366732
0.00556499
-0.0356954
0.0057788
-0.0347458
-0.0338215
0.00599566
2.49011e-05
-0.0811895
9.61994e-05
-0.0776173
0.000208936
-0.0745291
0.000357126
-0.0718117
0.00053441
-0.0693777
0.000734578
-0.0671581
0.000951901
-0.0651009
0.0011813
-0.0631677
0.0014184
-0.0613307
0.00165955
-0.0595705
0.00190186
-0.0578738
0.00214312
-0.0562317
0.00238171
-0.0546387
0.00261645
-0.0530913
0.00284663
-0.0515879
0.0030719
-0.0501279
0.00329224
-0.0487111
0.0035079
-0.0473377
0.00371933
-0.0460079
0.00392719
-0.0447219
0.00413225
-0.0434793
0.00433542
-0.0422798
0.00453771
-0.0411223
0.00474008
-0.0400057
0.00494352
-0.0389281
0.0051489
-0.0378875
0.00535694
-0.0368812
0.00556822
-0.0359066
0.00578307
-0.0349607
-0.03404
0.00600159
2.56422e-05
-0.0812151
9.8747e-05
-0.0776904
0.000213998
-0.0746443
0.000365053
-0.0719627
0.000545239
-0.0695579
0.000748102
-0.067361
0.000967748
-0.0653206
0.00119901
-0.0633989
0.00143748
-0.0615691
0.0016795
-0.0598125
0.00192218
-0.0581165
0.00216329
-0.0564728
0.00240128
-0.0548767
0.00263503
-0.0533251
0.00286387
-0.0518168
0.0030875
-0.0503515
0.00330596
-0.0489296
0.00351952
-0.0475513
0.00372872
-0.0462171
0.00393423
-0.0449274
0.00413694
-0.043682
0.00433782
-0.0424806
0.00453794
-0.0413224
0.00473838
-0.0402061
0.0049402
-0.03913
0.00514436
-0.0380916
0.0053517
-0.0370886
0.00556284
-0.0361178
0.00577819
-0.035176
-0.0342597
0.00599791
2.63712e-05
-0.0812415
0.000101274
-0.0777653
0.000219029
-0.0747621
0.000372913
-0.0721166
0.000555921
-0.0697409
0.000761346
-0.0675664
0.000983128
-0.0655424
0.00121601
-0.0636318
0.00145558
-0.0618087
0.00169819
-0.0600551
0.00194093
-0.0583592
0.00218161
-0.0567135
0.00241868
-0.0551137
0.0026511
-0.0535575
0.00287825
-0.0520439
0.00309989
-0.0505732
0.0033161
-0.0491458
0.00352723
-0.0477624
0.00373382
-0.0464237
0.00393663
-0.0451302
0.00413657
-0.043882
0.00433469
-0.0426787
0.0045321
-0.0415199
0.00472998
-0.040404
0.00492948
-0.0393295
0.0051317
-0.0382938
0.00533757
-0.0372944
0.00554788
-0.0363281
0.00576313
-0.0353913
-0.0344801
0.00598351
2.70852e-05
-0.0812686
0.000103785
-0.077842
0.000224042
-0.0748823
0.000380722
-0.0722733
0.000566466
-0.0699266
0.000774308
-0.0677743
0.000998027
-0.0657661
0.00123229
-0.0638661
0.00147267
-0.0620491
0.00171555
-0.060298
0.00195803
-0.0586017
0.00219799
-0.0569535
0.00243381
-0.0553496
0.00266456
-0.0537882
0.00288969
-0.0522691
0.00310904
-0.0507925
0.00332272
-0.0493594
0.00353108
-0.0479708
0.00373472
-0.0466274
0.00393441
-0.0453299
0.00413108
-0.0440786
0.00432582
-0.0428735
0.00451982
-0.0417139
0.00471435
-0.0405986
0.00491071
-0.0395258
0.00511014
-0.0384933
0.00531378
-0.0374981
0.00552253
-0.0365368
0.00573701
-0.0356058
-0.0347005
0.00595748
2.77791e-05
-0.0812963
0.000106286
-0.0779205
0.000229061
-0.0750051
0.000388511
-0.0724327
0.000576899
-0.070115
0.000787
-0.0679844
0.00101245
-0.0659915
0.00124783
-0.0641015
0.00148872
-0.06229
0.00173153
-0.0605408
0.00197346
-0.0588436
0.00221232
-0.0571924
0.00244663
-0.0555839
0.00267542
-0.054017
0.00289828
-0.0524919
0.00311506
-0.0510093
0.00332589
-0.0495703
0.00353113
-0.048176
0.00373139
-0.0468276
0.00392742
-0.0455259
0.00412022
-0.0442714
0.0043109
-0.0430642
0.00450076
-0.0419037
0.00469116
-0.040789
0.00488356
-0.0397182
0.00507937
-0.0386891
0.00527991
-0.0376986
0.00548626
-0.0367432
0.00569917
-0.0358187
-0.0349204
0.00591898
2.84505e-05
-0.0813248
0.000108799
-0.0780008
0.000234128
-0.0751304
0.000396329
-0.0725949
0.000587259
-0.0703059
0.000799444
-0.0681965
0.00102638
-0.0662185
0.00126262
-0.0643377
0.00150372
-0.0625311
0.00174614
-0.0607832
0.00198714
-0.0590846
0.00222462
-0.0574298
0.00245713
-0.0558164
0.00268376
-0.0542436
0.00290405
-0.0527122
0.00311792
-0.0512232
0.00332553
-0.0497779
0.00352723
-0.0483777
0.00372361
-0.047024
0.0039155
-0.0457178
0.00410388
-0.0444598
0.00428993
-0.0432502
0.00447499
-0.0420888
0.00466052
-0.0409745
0.00484811
-0.0399058
0.00503935
-0.0388803
0.00523576
-0.037895
0.00543864
-0.0369461
0.00564895
-0.036029
-0.0351385
0.00586714
2.91011e-05
-0.0813539
0.000111361
-0.0780831
0.000239316
-0.0752584
0.000404249
-0.0727599
0.000597601
-0.0704993
0.000811667
-0.0684106
0.00103985
-0.0664466
0.00127665
-0.0645745
0.00151766
-0.0627721
0.00175937
-0.0610249
0.00199911
-0.0593244
0.00223491
-0.0576656
0.00246532
-0.0560468
0.00268947
-0.0544678
0.00290689
-0.0529296
0.0031175
-0.0514338
0.00332149
-0.0499819
0.00351927
-0.0485755
0.00371144
-0.0472162
0.00389881
-0.0459052
0.00408237
-0.0446434
0.0042633
-0.0434312
0.00444295
-0.0422684
0.00462284
-0.0411544
0.00480468
-0.0400876
0.00499023
-0.0390659
0.00518127
-0.038086
0.00537938
-0.0371442
0.0055858
-0.0362354
-0.0353539
0.00580114
2.97464e-05
-0.0813836
0.000114048
-0.0781674
0.000244733
-0.0753891
0.000412374
-0.0729275
0.000607995
-0.0706949
0.000823703
-0.0686263
0.00105283
-0.0666758
0.0012899
-0.0648116
0.00153051
-0.0630127
0.0017712
-0.0612656
0.00200937
-0.0595625
0.00224311
-0.0578994
0.00247109
-0.0562748
0.00269241
-0.0546891
0.00290666
-0.0531439
0.00311371
-0.0516408
0.00331382
-0.050182
0.00350743
-0.0487691
0.00369515
-0.0474039
0.00387775
-0.0460878
0.00405619
-0.0448218
0.00423158
-0.0436065
0.00440525
-0.0424421
0.00457876
-0.0413279
0.00475386
-0.0402627
0.0049325
-0.0392445
0.00511672
-0.0382703
0.00530847
-0.0373359
0.00550936
-0.0364363
-0.0355648
0.0057203
3.04283e-05
-0.0814141
0.000116997
-0.078254
0.000250547
-0.0755226
0.000420842
-0.0730978
0.000618526
-0.0708926
0.000835584
-0.0688434
0.00106534
-0.0669055
0.00130234
-0.0650486
0.00154221
-0.0632525
0.00178155
-0.061505
0.00201782
-0.0597988
0.00224917
-0.0581307
0.00247435
-0.0565
0.00269256
-0.0549073
0.00290335
-0.0533547
0.00310668
-0.0518442
0.00330272
-0.050378
0.00349202
-0.0489584
0.00367513
-0.047587
0.0038528
-0.0462655
0.0040259
-0.0449949
0.00419547
-0.0437761
0.00436275
-0.0426094
0.00452922
-0.0414944
0.00469666
-0.0404302
0.00486713
-0.039415
0.00504292
-0.0384461
0.00522641
-0.0375194
0.00541974
-0.0366296
-0.0357693
0.00562423
3.12624e-05
-0.0814453
0.000120452
-0.0783432
0.000257011
-0.0756592
0.000429832
-0.0732706
0.000629287
-0.071092
0.000847337
-0.0690614
0.00107735
-0.0671355
0.0013139
-0.0652851
0.00155269
-0.0634913
0.00179036
-0.0617426
0.0020244
-0.0600328
0.00225305
-0.0583594
0.00247512
-0.056722
0.00268992
-0.0551221
0.00289705
-0.0535618
0.00309648
-0.0520436
0.00328841
-0.05057
0.00347328
-0.0491433
0.00365174
-0.0477655
0.00382445
-0.0464382
0.00399218
-0.0451626
0.00415586
-0.0439398
0.00431656
-0.0427701
0.00447562
-0.0416534
0.00463469
-0.0405892
0.00479582
-0.0395761
0.0049615
-0.0386117
0.00513454
-0.0376925
0.00531775
-0.0368128
-0.0359647
0.00551314
3.25064e-05
-0.0814778
0.000124825
-0.0784355
0.000264468
-0.0757988
0.000439551
-0.0734457
0.000640367
-0.0712929
0.00085897
-0.06928
0.00108881
-0.0673654
0.00132455
-0.0655209
0.0015619
-0.0637287
0.00179755
-0.0619783
0.00202906
-0.0602643
0.00225471
-0.058585
0.00247341
-0.0569407
0.00268452
-0.0553332
0.00288779
-0.0537651
0.00308317
-0.052239
0.00327092
-0.0507577
0.00345145
-0.0493238
0.00362529
-0.0479393
0.00379316
-0.046606
0.00395572
-0.0453252
0.00411373
-0.0440978
0.00426806
-0.0429244
0.00441978
-0.0418052
0.00457025
-0.0407397
0.00472129
-0.0397272
0.00487536
-0.0387658
0.00503561
-0.0378527
0.00520567
-0.0369829
-0.0361476
0.0053886
3.46612e-05
-0.0815125
0.000130737
-0.0785316
0.000273343
-0.0759414
0.0004502
-0.0736226
0.000651815
-0.0714945
0.000870454
-0.0694987
0.00109968
-0.0675946
0.00133418
-0.0657554
0.00156972
-0.0639642
0.00180303
-0.0622116
0.00203171
-0.060493
0.00225409
-0.0588074
0.00246915
-0.0571558
0.00267635
-0.0555404
0.00287552
-0.0539642
0.00306675
-0.0524302
0.00325026
-0.0509412
0.00342651
-0.0495
0.003596
-0.0481088
0.00375933
-0.0467693
0.00391714
-0.045483
0.00407006
-0.0442507
0.00421873
-0.0430731
0.00436385
-0.0419503
0.00450633
-0.0408822
0.00464747
-0.0398683
0.00478923
-0.0389076
0.00493466
-0.0379981
0.00508819
-0.0371364
-0.0363142
0.00525471
3.86579e-05
-0.0815512
0.000139151
-0.078632
0.000284176
-0.0760865
0.000461966
-0.0738004
0.000663631
-0.0716961
0.000881704
-0.0697167
0.00110982
-0.0678227
0.00134268
-0.0659882
0.00157605
-0.0641976
0.00180668
-0.0624422
0.00203222
-0.0607186
0.00225107
-0.0590262
0.00246227
-0.057367
0.00266535
-0.0557435
0.00286024
-0.0541591
0.00304714
-0.0526171
0.00322639
-0.0511205
0.00339844
-0.0496721
0.00356383
-0.0482742
0.00372309
-0.0469286
0.00387682
-0.0456367
0.00402555
-0.0443995
0.00416979
-0.0432173
0.00430988
-0.0420904
0.00444617
-0.0410185
0.00457914
-0.0400013
0.00470964
-0.0390381
0.00483948
-0.038128
0.00497296
-0.0372699
-0.0364598
0.00511865
4.69527e-05
-0.0815981
0.000152065
-0.0787372
0.000297767
-0.0762322
0.000474975
-0.0739776
0.000675686
-0.0718969
0.00089253
-0.0699336
0.00111905
-0.0680492
0.00134987
-0.0662191
0.00158071
-0.0644284
0.00180834
-0.0626699
0.00203045
-0.0609407
0.0022455
-0.0592413
0.00245259
-0.0575741
0.00265137
-0.0559423
0.00284183
-0.0543496
0.00302426
-0.0527995
0.00319915
-0.0512954
0.00336705
-0.04984
0.00352853
-0.0484357
0.00368421
-0.0470843
0.00383463
-0.0457872
0.00398038
-0.0445452
0.00412188
-0.0433588
0.00425938
-0.0422279
0.00439281
-0.0411519
0.00452183
-0.0401303
0.00464561
-0.0391618
0.00476275
-0.0382451
0.00487435
-0.0373815
-0.0365802
0.00499469
6.73444e-05
-0.0816655
0.00017246
-0.0788423
0.000314384
-0.0763741
0.000488793
-0.074152
0.00068751
-0.0720956
0.000902557
-0.0701486
0.00112709
-0.0682738
0.00135553
-0.0664475
0.00158352
-0.0646564
0.00180784
-0.0628942
0.00202621
-0.061159
0.00223718
-0.0594523
0.00243993
-0.0577768
0.00263418
-0.0561365
0.00282003
-0.0545354
0.00299787
-0.0529774
0.00316829
-0.0514658
0.00333195
-0.0500037
0.0034896
-0.0485933
0.00364194
-0.0472366
0.00378969
-0.0459349
0.00393361
-0.0446891
0.00407433
-0.0434995
0.00421247
-0.042366
0.00434846
-0.0412879
0.00448235
-0.0402642
0.004613
-0.0392925
0.0047349
-0.038367
0.0048354
-0.037482
-0.0366579
0.00491312
0.0827261
5.03708e-05
-0.0827765
0.0826866
3.95367e-05
0.0826507
3.58888e-05
0.0826159
3.47865e-05
0.0825812
3.4753e-05
0.082546
3.52189e-05
0.0825101
3.58777e-05
0.0824735
3.6571e-05
0.0824363
3.72238e-05
0.0823985
3.78086e-05
0.0823602
3.83141e-05
0.0823214
3.87368e-05
0.0822823
3.90787e-05
0.082243
3.93406e-05
0.0822035
3.95248e-05
0.0821639
3.96321e-05
0.0821242
3.96648e-05
0.0820846
3.96238e-05
0.0820451
3.95077e-05
0.0820057
3.93175e-05
0.0819667
3.90502e-05
0.081928
3.87014e-05
0.0818897
3.82593e-05
0.081852
3.77074e-05
0.081815
3.70076e-05
0.0817789
3.60862e-05
0.0817441
3.47814e-05
0.0817114
3.27169e-05
0.0816827
2.87207e-05
1.72563e-05
0.0814843
0.000122297
-0.0815563
0.0814083
0.000115537
0.0813311
0.000113088
0.0812527
0.000113171
0.0811729
0.00011458
0.0810914
0.000116725
0.0810081
0.000119229
0.0809228
0.000121836
0.0808356
0.000124391
0.0807466
0.000126803
0.0806559
0.000129021
0.0805636
0.000131018
0.0804699
0.000132775
0.080375
0.000134285
0.080279
0.000135542
0.0801821
0.000136545
0.0800844
0.000137293
0.0799863
0.000137786
0.0798878
0.000138021
0.0797891
0.000137997
0.0796904
0.000137707
0.079592
0.000137141
0.079494
0.000136274
0.0793966
0.00013507
0.0793002
0.00013346
0.0792049
0.000131317
0.0791113
0.000128401
0.0790198
0.000124234
0.0789308
0.000117726
0.000105768
0.0800779
0.000202499
-0.0801581
0.0799892
0.000204277
0.0798947
0.000207563
0.0797957
0.000212179
0.0796927
0.00021762
0.0795858
0.00022354
0.0794754
0.000229677
0.0793614
0.000235807
0.0792441
0.000241767
0.0791234
0.000247442
0.0789997
0.000252754
0.0788731
0.000257649
0.0787437
0.000262091
0.078612
0.000266056
0.078478
0.000269531
0.078342
0.000272504
0.0782043
0.000274969
0.0780652
0.000276923
0.0779249
0.00027836
0.0777836
0.000279276
0.0776416
0.000279661
0.0774993
0.000279499
0.0773568
0.000278765
0.0772144
0.000277414
0.0770725
0.000275373
0.0769313
0.000272515
0.0767911
0.000268632
0.076652
0.000263367
0.0765136
0.000256062
0.000245321
0.0784947
0.000281058
-0.0785733
0.0784066
0.00029246
0.0783102
0.000303913
0.0782067
0.000315636
0.0780969
0.000327513
0.077981
0.000339392
0.0778596
0.000351128
0.0777328
0.000362572
0.077601
0.000373593
0.0774643
0.000384086
0.0773231
0.000393969
0.0771776
0.000403177
0.077028
0.000411664
0.0768747
0.000419393
0.0767178
0.000426342
0.0765579
0.000432492
0.076395
0.000437831
0.0762296
0.000442348
0.0760619
0.000446038
0.0758923
0.00044889
0.075721
0.000450897
0.0755485
0.000452041
0.075375
0.000452299
0.0752008
0.000451632
0.0750261
0.000449978
0.0748514
0.000447243
0.0746768
0.000443279
0.0745023
0.000437866
0.0743277
0.00043065
0.000421033
0.076748
0.000349549
-0.0768165
0.0766691
0.000371298
0.0765807
0.000392366
0.0764833
0.000412979
0.0763777
0.000433148
0.0762643
0.000452819
0.0761435
0.000471915
0.0760157
0.000490344
0.0758813
0.000508013
0.0757405
0.000524835
0.0755938
0.000540735
0.0754413
0.000555648
0.0752835
0.000569524
0.0751205
0.000582321
0.0749529
0.000594009
0.0747808
0.000604563
0.0746046
0.000613966
0.0744248
0.000622203
0.0742416
0.000629265
0.0740553
0.00063514
0.0738664
0.00063982
0.0736751
0.00064329
0.0734819
0.000645534
0.073287
0.000646522
0.0730908
0.000646215
0.0728935
0.000644552
0.0726953
0.00064145
0.0724964
0.000636788
0.0722966
0.000630409
0.000622086
0.0748625
0.000402345
-0.0749153
0.0747986
0.000435131
0.0747242
0.00046682
0.0746396
0.000497561
0.0745454
0.000527383
0.0744419
0.000556259
0.0743297
0.00058414
0.0742091
0.00061096
0.0740804
0.00063665
0.0739441
0.00066114
0.0738005
0.000684364
0.0736499
0.000706256
0.0734927
0.000726764
0.0733291
0.000745844
0.0731597
0.00076346
0.0729847
0.000779584
0.0728044
0.000794194
0.0726194
0.000807272
0.0724298
0.000818804
0.0722362
0.000828778
0.0720388
0.000837185
0.0718381
0.000844016
0.0716344
0.000849261
0.071428
0.000852904
0.0712193
0.000854927
0.0710085
0.000855301
0.070796
0.000853992
0.0705818
0.000850958
0.0703661
0.000846151
0.000839517
0.0728698
0.000436297
-0.0729038
0.0728243
0.000480721
0.0727673
0.000523775
0.0726993
0.000565524
0.0726207
0.00060598
0.0725319
0.00064511
0.0724332
0.000682866
0.0723249
0.000719188
0.0722076
0.000754009
0.0720814
0.000787275
0.0719469
0.000818929
0.0718042
0.000848895
0.0716539
0.000877116
0.0714962
0.00090355
0.0713315
0.000928154
0.0711602
0.000950895
0.0709826
0.000971749
0.0707992
0.000990691
0.0706103
0.00100771
0.0704163
0.00102278
0.0702176
0.00103591
0.0700145
0.00104708
0.0698075
0.00105629
0.0695968
0.00106354
0.0693829
0.00106883
0.0691661
0.00107216
0.0689465
0.00107353
0.0687245
0.00107295
0.0685003
0.00107044
0.00106602
0.0708041
0.000450159
-0.070818
0.0707782
0.000506701
0.0707403
0.000561653
0.0706908
0.000615038
0.0706299
0.000666826
0.0705581
0.000716969
0.0704755
0.000765407
0.0703827
0.000812068
0.0702798
0.000856886
0.0701673
0.000899785
0.0700455
0.000940733
0.0699147
0.00097967
0.0697753
0.0010165
0.0696277
0.00105119
0.0694721
0.00108368
0.0693091
0.00111393
0.0691389
0.00114192
0.068962
0.00116762
0.0687787
0.00119101
0.0685894
0.00121207
0.0683945
0.0012308
0.0681944
0.00124719
0.0679895
0.00126124
0.06778
0.00127297
0.0675665
0.00128238
0.0673492
0.00128949
0.0671283
0.00129435
0.0669043
0.00129698
0.0666773
0.00129745
0.00129582
0.0686986
0.000444074
-0.0686925
0.0686923
0.000513073
0.0686736
0.000580311
0.0686429
0.000645754
0.0686004
0.000709357
0.0685463
0.000771043
0.068481
0.000830734
0.0684047
0.000888348
0.0683178
0.000943793
0.0682205
0.000997012
0.0681134
0.00104792
0.0679966
0.00109647
0.0678704
0.0011426
0.0677354
0.00118624
0.0675917
0.00122734
0.0674398
0.00126583
0.06728
0.0013017
0.0671128
0.0013349
0.0669384
0.00136542
0.0667572
0.00139322
0.0665697
0.0014183
0.0663762
0.00144066
0.0661772
0.0014603
0.0659729
0.00147725
0.0657637
0.00149152
0.0655501
0.00150316
0.0653322
0.0015122
0.0651105
0.00151872
0.0648851
0.0015228
0.00152453
0.0665837
0.00041918
-0.0665588
0.066596
0.000500846
0.0665957
0.0005806
0.066583
0.000658382
0.0665583
0.000734109
0.0665216
0.000807683
0.0664734
0.000879012
0.0664137
0.000947998
0.066343
0.00101454
0.0662614
0.00107853
0.0661694
0.00113992
0.0660673
0.00119861
0.0659554
0.00125454
0.065834
0.00130765
0.0657034
0.00135787
0.0655641
0.00140515
0.0654164
0.00144944
0.0652605
0.00149074
0.065097
0.00152897
0.0649261
0.00156412
0.0647482
0.00159617
0.0645637
0.00162512
0.0643731
0.00165098
0.0641765
0.00167377
0.0639745
0.00169352
0.0637674
0.00171028
0.0635555
0.00172412
0.0633391
0.0017351
0.0631186
0.00174334
0.00174893
0.0644857
0.000377245
-0.0644437
0.0645148
0.000471684
0.0645313
0.000564081
0.0645354
0.000654343
0.0645271
0.000742364
0.0645068
0.000828027
0.0644746
0.000911224
0.0644307
0.000991842
0.0643755
0.00106977
0.0643091
0.00114488
0.064232
0.00121708
0.0641443
0.00128627
0.0640465
0.00135238
0.0639388
0.00141535
0.0638216
0.00147509
0.0636952
0.00153154
0.06356
0.00158466
0.0634163
0.0016344
0.0632645
0.00168079
0.0631048
0.00172377
0.0629377
0.00176326
0.0627636
0.00179929
0.0625827
0.00183185
0.0623955
0.00186097
0.0622023
0.00188669
0.0620036
0.00190907
0.0617995
0.00192817
0.0615905
0.00194408
0.0613769
0.00195693
0.00196683
0.062426
0.000320435
-0.0623692
0.0624701
0.000427662
0.0625014
0.000532726
0.0625202
0.000635512
0.0625267
0.00073589
0.062521
0.000833728
0.0625033
0.000928897
0.0624739
0.00102127
0.062433
0.00111073
0.0623807
0.00119713
0.0623174
0.00128034
0.0622434
0.00136028
0.062159
0.00143684
0.0620644
0.00150993
0.06196
0.00157947
0.0618462
0.00164538
0.0617232
0.00170761
0.0615915
0.00176615
0.0614513
0.00182092
0.0613032
0.00187195
0.0611472
0.00191924
0.0609838
0.00196269
0.0608133
0.00200232
0.0606361
0.00203814
0.0604526
0.0020702
0.0602631
0.00209855
0.060068
0.00212328
0.0598676
0.00214449
0.0596623
0.0021623
0.00217684
0.0604223
0.000251091
-0.060353
0.0604789
0.000371054
0.0605229
0.000488742
0.0605544
0.00060402
0.0605735
0.000716739
0.0605805
0.000826748
0.0605755
0.0009339
0.0605587
0.00103806
0.0605304
0.00113908
0.0604907
0.00123681
0.0604399
0.00133113
0.0603783
0.00142192
0.0603061
0.00150905
0.0602236
0.00159242
0.0601311
0.00167194
0.0600289
0.00174754
0.0599175
0.0018191
0.059797
0.00188657
0.059668
0.00194997
0.0595307
0.00200927
0.0593855
0.00206444
0.0592326
0.00211552
0.0590725
0.00216245
0.0589054
0.00220522
0.0587318
0.00224386
0.0585519
0.00227845
0.0583661
0.00230906
0.0581748
0.00233581
0.0579782
0.00235882
0.00237825
0.058488
0.000171597
-0.0584085
0.0585548
0.000304199
0.0586092
0.000434419
0.0586511
0.000562104
0.0586807
0.000687086
0.0586983
0.000809196
0.0587039
0.000928272
0.0586978
0.00104416
0.0586802
0.0011567
0.0586512
0.00126575
0.0586112
0.00137115
0.0585604
0.00147278
0.0584989
0.00157051
0.0584271
0.00166421
0.0583453
0.00175378
0.0582537
0.00183912
0.0581526
0.00192014
0.0580425
0.00199675
0.0579236
0.00206888
0.0577963
0.00213655
0.057661
0.00219977
0.057518
0.0022585
0.0573676
0.00231278
0.0572102
0.00236263
0.0570461
0.00240801
0.0568755
0.00244898
0.056699
0.00248562
0.0565167
0.00251804
0.0563292
0.0025464
0.00257087
0.056633
8.42795e-05
-0.0565457
0.0567078
0.000229395
0.0567702
0.000372022
0.0568203
0.000511989
0.0568583
0.000649114
0.0568843
0.000783211
0.0568984
0.000914102
0.056901
0.00104162
0.0568921
0.00116559
0.056872