/*--------------------------------*- C++ -*----------------------------------*\
  =========                 |
  \\      /  F ield         | OpenFOAM: The Open Source CFD Toolbox
   \\    /   O peration     | Website:  https://openfoam.org
    \\  /    A nd           | Version:  6.0
     \\/     M anipulation  |
\*---------------------------------------------------------------------------*/
FoamFile
{
    version     2.0;
    format      ascii;
    class       volScalarField;
    location    "11.501";
    object      p;
}
// * * * * * * * * * * * * * * * * * * * * * * * * * * * * * * * * * * * * * //

dimensions      [0 2 -2 0 0 0 0];

internalField   nonuniform List<scalar> 
19200
(
-6.9978
-6.13367
-5.54541
-5.08951
-4.68879
-4.33732
-4.0273
-3.7501
-3.49965
-3.27159
-3.06259
-2.87004
-2.69189
-2.52649
-2.37249
-2.22879
-2.09444
-1.96865
-1.85072
-1.74005
-1.6361
-1.53839
-1.44651
-1.36006
-1.27871
-1.20215
-1.13009
-1.06228
-0.998443
-0.938495
-7.17811
-6.31328
-5.72276
-5.26339
-4.85854
-4.50254
-4.18775
-3.90565
-3.65027
-3.41733
-3.20352
-3.00629
-2.82359
-2.6538
-2.49559
-2.34785
-2.20964
-2.08016
-1.95872
-1.84471
-1.73759
-1.63688
-1.54214
-1.45299
-1.36907
-1.29007
-1.21572
-1.14571
-1.07972
-1.01801
-7.36329
-6.49624
-5.90288
-5.43985
-5.03071
-4.67003
-4.35032
-4.06318
-3.80275
-3.5648
-3.34608
-3.14404
-2.9567
-2.78242
-2.6199
-2.46803
-2.32588
-2.19264
-2.06762
-1.95021
-1.83986
-1.73608
-1.63844
-1.54653
-1.46001
-1.37854
-1.30185
-1.2296
-1.16143
-1.09794
-7.55167
-6.6821
-6.08563
-5.61874
-5.20513
-4.83961
-4.51484
-4.22254
-3.95693
-3.71384
-3.49008
-3.28314
-3.09103
-2.91218
-2.74525
-2.58917
-2.44299
-2.30592
-2.17726
-2.05638
-1.94275
-1.83586
-1.73526
-1.64056
-1.55139
-1.46741
-1.38835
-1.31383
-1.24344
-1.17817
-7.74283
-6.87059
-6.27078
-5.79985
-5.38162
-5.01112
-4.68114
-4.38355
-4.11263
-3.86428
-3.63536
-3.42339
-3.22643
-3.04289
-2.87147
-2.71109
-2.56082
-2.41984
-2.28747
-2.16308
-2.0461
-1.93605
-1.83246
-1.73493
-1.64306
-1.55655
-1.47509
-1.39826
-1.32562
-1.25855
-7.93645
-7.06145
-6.45814
-5.983
-5.56
-5.18436
-4.84905
-4.54602
-4.26966
-4.01593
-3.78173
-3.56464
-3.36271
-3.17439
-2.9984
-2.83364
-2.67918
-2.53424
-2.3981
-2.27013
-2.14977
-2.03651
-1.92989
-1.82948
-1.7349
-1.64582
-1.56193
-1.48276
-1.40786
-1.33898
-8.13227
-7.25443
-6.64749
-6.168
-5.74008
-5.35916
-5.01837
-4.70978
-4.42784
-4.16861
-3.92902
-3.70669
-3.4997
-3.30651
-3.12584
-2.95663
-2.79793
-2.64895
-2.50899
-2.37739
-2.2536
-2.13709
-2.0274
-1.92409
-1.82677
-1.73509
-1.64873
-1.56721
-1.49002
-1.41933
-8.33002
-7.4493
-6.83862
-6.35463
-5.92166
-5.53533
-5.18892
-4.87462
-4.58699
-4.32214
-4.07704
-3.84936
-3.63721
-3.43906
-3.25364
-3.07989
-2.91688
-2.76381
-2.61996
-2.4847
-2.35743
-2.23765
-2.12485
-2.01861
-1.91851
-1.82422
-1.73539
-1.65149
-1.57199
-1.49949
-8.52947
-7.64582
-7.0313
-6.5427
-6.10454
-5.71266
-5.3605
-5.04037
-4.74692
-4.47631
-4.22561
-3.99247
-3.77506
-3.57185
-3.38161
-3.20325
-3.03587
-2.87865
-2.73087
-2.59189
-2.46112
-2.33802
-2.2221
-2.1129
-2.01002
-1.91309
-1.82177
-1.73548
-1.65365
-1.57935
-8.73039
-7.84376
-7.22531
-6.73198
-6.2885
-5.89094
-5.5329
-5.20681
-4.90741
-4.63095
-4.37452
-4.13583
-3.91306
-3.70472
-3.50957
-3.32654
-3.15473
-2.9933
-2.84155
-2.69882
-2.56451
-2.43807
-2.319
-2.20683
-2.10115
-2.00157
-1.90776
-1.81906
-1.7349
-1.6588
-8.93255
-8.0429
-7.42042
-6.92226
-6.47334
-6.06997
-5.70592
-5.37375
-5.06829
-4.78585
-4.52358
-4.27924
-4.05103
-3.83747
-3.63734
-3.44958
-3.27328
-3.10761
-2.95184
-2.80533
-2.66745
-2.53765
-2.41542
-2.30027
-2.19177
-2.08955
-1.99323
-1.90212
-1.81563
-1.73775
-9.1357
-8.243
-7.61643
-7.11332
-6.65884
-6.24953
-5.87935
-5.54097
-5.22933
-4.9408
-4.6726
-4.42251
-4.18877
-3.96993
-3.76475
-3.5722
-3.39135
-3.22139
-3.06158
-2.91126
-2.76979
-2.63662
-2.51121
-2.39308
-2.28176
-2.17689
-2.07807
-1.98455
-1.89573
-1.81609
-9.33963
-8.44384
-7.81309
-7.30493
-6.84478
-6.42942
-6.05298
-5.70828
-5.39034
-5.09562
-4.82138
-4.56546
-4.32611
-4.1019
-3.89161
-3.69422
-3.50879
-3.3345
-3.17062
-3.01646
-2.87139
-2.73483
-2.60625
-2.48512
-2.371
-2.26348
-2.16216
-2.06625
-1.97509
-1.89373
-9.54409
-8.6452
-8.01019
-7.49688
-7.03094
-6.60941
-6.2266
-5.87546
-5.55111
-5.25009
-4.96972
-4.70788
-4.46284
-4.2332
-4.01775
-3.81546
-3.62541
-3.44677
-3.27879
-3.12078
-2.9721
-2.83215
-2.70039
-2.57628
-2.45935
-2.34919
-2.2454
-2.1471
-2.05362
-1.97057
-9.74887
-8.84683
-8.2075
-7.68894
-7.21711
-6.78929
-6.4
-6.0423
-5.71144
-5.40403
-5.11744
-4.84959
-4.5988
-4.36366
-4.143
-3.93577
-3.74106
-3.55804
-3.38594
-3.22407
-3.07177
-2.92843
-2.79349
-2.66641
-2.54669
-2.43392
-2.32766
-2.22699
-2.13122
-2.0465
-9.95372
-9.04853
-8.4048
-7.8809
-7.40307
-6.96886
-6.57296
-6.2086
-5.87112
-5.55722
-5.26433
-4.9904
-4.73378
-4.4931
-4.26717
-4.05497
-3.85557
-3.66815
-3.49192
-3.32618
-3.17026
-3.02354
-2.88543
-2.75538
-2.63289
-2.51752
-2.40882
-2.30581
-2.20776
-2.12143
-10.1584
-9.25006
-8.60186
-8.07253
-7.5886
-7.14788
-6.74527
-6.37415
-6.02996
-5.70948
-5.4102
-5.13012
-4.86762
-4.62134
-4.39011
-4.1729
-3.96879
-3.77694
-3.59657
-3.42696
-3.26742
-3.11732
-2.97606
-2.84307
-2.71782
-2.59987
-2.48876
-2.38343
-2.28313
-2.19524
-10.3628
-9.45121
-8.79848
-8.26363
-7.77348
-7.32615
-6.91673
-6.53875
-6.18775
-5.86061
-5.55487
-5.26857
-5.00014
-4.74821
-4.51164
-4.2894
-4.08056
-3.88428
-3.69976
-3.52627
-3.36312
-3.20965
-3.06525
-2.92932
-2.80134
-2.68085
-2.56735
-2.45973
-2.3572
-2.2678
-10.5666
-9.65176
-8.99444
-8.45396
-7.95751
-7.50346
-7.08713
-6.70219
-6.3443
-6.01041
-5.69814
-5.40558
-5.13116
-4.87355
-4.63161
-4.40432
-4.19073
-3.99
-3.80133
-3.62397
-3.45721
-3.30038
-3.15284
-3.01401
-2.88332
-2.76029
-2.64444
-2.53456
-2.42983
-2.33897
-10.7696
-9.85152
-9.18952
-8.64333
-8.14047
-7.6796
-7.25626
-6.86427
-6.49941
-6.15871
-5.83985
-5.54097
-5.26052
-4.9972
-4.74987
-4.5175
-4.29916
-4.09398
-3.90116
-3.71992
-3.54955
-3.38937
-3.23872
-3.09698
-2.96359
-2.83806
-2.71988
-2.60777
-2.50086
-2.40858
-10.9716
-10.0503
-9.38353
-8.83153
-8.32215
-7.85437
-7.42392
-7.02479
-6.65289
-6.30532
-5.97982
-5.67458
-5.38807
-5.11901
-4.86627
-4.62882
-4.40571
-4.19608
-3.9991
-3.814
-3.64003
-3.47649
-3.32273
-3.1781
-3.04202
-2.914
-2.7935
-2.67917
-2.5701
-2.47643
-11.1725
-10.2478
-9.57626
-9.01833
-8.50234
-8.02754
-7.58991
-7.18357
-6.80455
-6.45006
-6.11788
-5.80624
-5.51365
-5.23884
-4.98068
-4.73814
-4.51027
-4.29619
-4.09506
-3.90609
-3.72851
-3.56163
-3.40475
-3.25723
-3.11845
-2.98793
-2.86512
-2.74858
-2.63732
-2.54228
-11.3721
-10.444
-9.76751
-9.20355
-8.68083
-8.19893
-7.75402
-7.34041
-6.95423
-6.59276
-6.25386
-5.9358
-5.63712
-5.35655
-5.09297
-4.84535
-4.61272
-4.3942
-4.18892
-3.99609
-3.81491
-3.64467
-3.48466
-3.33423
-3.19274
-3.0597
-2.93455
-2.81576
-2.70226
-2.60584
-11.5704
-10.6387
-9.95709
-9.38697
-8.85741
-8.36831
-7.91607
-7.49512
-7.10173
-6.73325
-6.38762
-6.06313
-5.75835
-5.47203
-5.20304
-4.95035
-4.71298
-4.49003
-4.28062
-4.08392
-3.89914
-3.72553
-3.56238
-3.409
-3.26475
-3.12914
-3.00159
-2.88049
-2.76466
-2.66678
-11.7672
-10.8317
-10.1448
-9.56836
-9.03186
-8.53549
-8.07584
-7.64751
-7.24688
-6.87138
-6.519
-6.18809
-5.87722
-5.58516
-5.31079
-5.05305
-4.81097
-4.58361
-4.37008
-4.16954
-3.98116
-3.80417
-3.63784
-3.48147
-3.3344
-3.19613
-3.06607
-2.94253
-2.82418
-2.7247
-11.9627
-11.0228
-10.3304
-9.74749
-9.20395
-8.70023
-8.23314
-7.79741
-7.38951
-7.00699
-6.64787
-6.31055
-5.99362
-5.69585
-5.41613
-5.15339
-4.90663
-4.67491
-4.4573
-4.25292
-4.06096
-3.88059
-3.71106
-3.55165
-3.40167
-3.26062
-3.1279
-3.00172
-2.88054
-2.77904
-12.1568
-11.2118
-10.5135
-9.92411
-9.37343
-8.86233
-8.38776
-7.94461
-7.52946
-7.13992
-6.77409
-6.43039
-6.10744
-5.80402
-5.519
-5.25131
-4.99994
-4.7639
-4.54226
-4.33411
-4.13858
-3.95485
-3.78212
-3.61963
-3.46667
-3.32271
-3.18716
-3.05811
-2.9336
-2.8292
-12.3507
-11.3987
-10.694
-10.0979
-9.54
-9.02149
-8.53946
-8.08891
-7.66653
-7.27001
-6.89752
-6.54749
-6.21858
-5.90957
-5.61932
-5.34676
-5.09085
-4.85058
-4.62498
-4.41313
-4.21411
-4.02707
-3.85116
-3.68558
-3.52958
-3.38258
-3.24399
-3.11162
-2.98283
-2.87481
-12.5456
-11.5834
-10.8711
-10.2682
-9.70328
-9.17745
-8.68802
-8.23013
-7.80057
-7.39712
-7.01802
-6.66173
-6.32693
-6.01242
-5.71704
-5.4397
-5.17934
-4.93494
-4.70551
-4.49006
-4.28768
-4.09744
-3.91847
-3.74988
-3.59086
-3.44069
-3.29855
-3.16166
-3.02707
-2.91555
-12.7339
-11.7627
-11.0439
-10.4348
-9.86315
-9.33019
-8.83345
-8.36827
-7.93159
-7.52127
-7.13562
-6.77314
-6.43254
-6.1126
-5.81218
-5.53016
-5.26548
-5.01707
-4.78393
-4.56505
-4.35947
-4.16627
-3.98452
-3.81331
-3.65178
-3.49905
-3.35374
-3.21289
-3.07484
-2.95857
-15.8951
-15.8738
-15.8431
-15.8078
-15.7672
-15.7205
-15.6676
-15.6084
-15.543
-15.4713
-15.3934
-15.3093
-15.2191
-15.123
-15.021
-14.9132
-14.7998
-14.6808
-14.5565
-14.427
-14.2925
-14.153
-14.0088
-13.8601
-13.707
-13.5499
-13.389
-13.2247
-13.0577
-12.8906
-14.8572
-14.8408
-14.8159
-14.7845
-14.7468
-14.7026
-14.652
-14.595
-14.5317
-14.4622
-14.3865
-14.3047
-14.2169
-14.1232
-14.0236
-13.9184
-13.8075
-13.6913
-13.5697
-13.4429
-13.3112
-13.1746
-13.0333
-12.8875
-12.7374
-12.5832
-12.4252
-12.2637
-12.099
-11.9316
-14.017
-14.0044
-13.9842
-13.9569
-13.923
-13.8825
-13.8356
-13.7824
-13.7229
-13.6572
-13.5855
-13.5076
-13.4239
-13.3343
-13.239
-13.138
-13.0315
-12.9196
-12.8025
-12.6803
-12.5531
-12.4211
-12.2844
-12.1432
-11.9977
-11.8482
-11.6946
-11.5374
-11.3765
-11.2121
-13.2545
-13.2454
-13.2292
-13.2062
-13.1766
-13.1406
-13.0982
-13.0496
-12.9948
-12.9339
-12.867
-12.7941
-12.7154
-12.631
-12.5409
-12.4453
-12.3442
-12.2378
-12.1263
-12.0097
-11.8882
-11.7619
-11.631
-11.4956
-11.3559
-11.212
-11.0641
-10.9124
-10.7569
-10.5978
-12.5141
-12.5085
-12.4963
-12.4775
-12.4524
-12.4209
-12.3833
-12.3395
-12.2897
-12.2339
-12.1723
-12.1048
-12.0317
-11.9529
-11.8686
-11.7788
-11.6837
-11.5834
-11.478
-11.3677
-11.2525
-11.1325
-11.008
-10.8791
-10.7458
-10.6084
-10.467
-10.3217
-10.1726
-10.0198
-11.8076
-11.8053
-11.7968
-11.7821
-11.7611
-11.7341
-11.7011
-11.6621
-11.6173
-11.5667
-11.5104
-11.4484
-11.3808
-11.3078
-11.2294
-11.1457
-11.0568
-10.9627
-10.8637
-10.7599
-10.6512
-10.538
-10.4202
-10.298
-10.1716
-10.041
-9.90644
-9.76799
-9.62574
-9.47983
-11.14
-11.1407
-11.1355
-11.1243
-11.1073
-11.0843
-11.0556
-11.0212
-10.9811
-10.9354
-10.8842
-10.8275
-10.7654
-10.698
-10.6254
-10.5476
-10.4648
-10.377
-10.2843
-10.1869
-10.0849
-9.97825
-9.86723
-9.7519
-9.63237
-9.50877
-9.38121
-9.2498
-9.11464
-8.97586
-10.5116
-10.5148
-10.5124
-10.5044
-10.4907
-10.4714
-10.4466
-10.4163
-10.3805
-10.3394
-10.2929
-10.2411
-10.1842
-10.1221
-10.055
-9.98289
-9.90589
-9.82408
-9.73756
-9.64641
-9.55074
-9.45065
-9.34624
-9.23762
-9.1249
-9.00817
-8.88756
-8.76316
-8.63508
-8.50345
-9.92237
-9.92764
-9.92765
-9.92223
-9.91144
-9.89531
-9.87388
-9.84719
-9.81528
-9.77822
-9.73604
-9.68881
-9.63658
-9.57942
-9.51739
-9.45057
-9.37903
-9.30285
-9.22211
-9.1369
-9.0473
-8.95342
-8.85535
-8.75318
-8.64701
-8.53693
-8.42307
-8.3055
-8.18433
-8.05968
-9.37192
-9.37881
-9.38069
-9.37743
-9.36904
-9.35557
-9.33704
-9.31349
-9.28496
-9.25149
-9.21314
-9.16994
-9.12196
-9.06924
-9.01186
-8.94987
-8.88335
-8.81236
-8.73699
-8.65731
-8.5734
-8.48535
-8.39324
-8.29716
-8.19721
-8.09347
-7.98604
-7.87501
-7.76048
-7.64256
-8.85918
-8.86726
-8.87059
-8.86901
-8.86257
-8.85129
-8.83519
-8.8143
-8.78866
-8.75831
-8.7233
-8.68365
-8.63943
-8.59069
-8.53748
-8.47985
-8.41789
-8.35164
-8.28118
-8.20658
-8.12791
-8.04526
-7.9587
-7.86831
-7.77418
-7.67639
-7.57503
-7.47018
-7.36194
-7.25042
-8.38259
-8.39149
-8.39587
-8.39559
-8.39067
-8.38115
-8.36705
-8.34838
-8.32518
-8.29749
-8.26536
-8.22881
-8.18788
-8.14264
-8.09313
-8.03941
-7.98153
-7.91955
-7.85355
-7.78357
-7.7097
-7.632
-7.55055
-7.46542
-7.37668
-7.28443
-7.18873
-7.08967
-6.98734
-6.88183
-7.94027
-7.94968
-7.95477
-7.95543
-7.95168
-7.94355
-7.93105
-7.9142
-7.89304
-7.8676
-7.83792
-7.80403
-7.76598
-7.7238
-7.67755
-7.62728
-7.57304
-7.51489
-7.45289
-7.38709
-7.31756
-7.24437
-7.16759
-7.08728
-7.00351
-6.91637
-6.82591
-6.73223
-6.63539
-6.5355
-7.53014
-7.53979
-7.54532
-7.54662
-7.54373
-7.53666
-7.52543
-7.51006
-7.49058
-7.46702
-7.43942
-7.40781
-7.37223
-7.33272
-7.28932
-7.24209
-7.19108
-7.13633
-7.07791
-7.01586
-6.95025
-6.88115
-6.8086
-6.73268
-6.65346
-6.571
-6.48537
-6.39665
-6.30491
-6.21023
-7.15002
-7.15969
-7.16543
-7.16714
-7.16485
-7.15858
-7.14833
-7.13414
-7.11603
-7.09404
-7.06819
-7.03851
-7.00505
-6.96785
-6.92694
-6.88238
-6.83421
-6.78248
-6.72724
-6.66855
-6.60647
-6.54104
-6.47233
-6.4004
-6.32532
-6.24714
-6.16594
-6.08177
-5.99472
-5.90487
-6.79769
-6.80722
-6.81299
-6.81492
-6.81302
-6.80732
-6.79783
-6.78456
-6.76757
-6.74687
-6.72248
-6.69445
-6.66281
-6.6276
-6.58885
-6.54663
-6.50096
-6.4519
-6.3995
-6.34381
-6.28488
-6.22276
-6.15751
-6.08919
-6.01787
-5.94359
-5.86642
-5.78644
-5.7037
-5.61828
-6.47098
-6.48026
-6.48592
-6.48791
-6.48624
-6.48094
-6.472
-6.45947
-6.44337
-6.42373
-6.40057
-6.37393
-6.34385
-6.31036
-6.2735
-6.23331
-6.18985
-6.14316
-6.09327
-6.04025
-5.98414
-5.925
-5.86287
-5.79782
-5.72989
-5.65916
-5.58567
-5.5095
-5.43071
-5.34938
-6.16782
-6.17675
-6.18221
-6.18414
-6.18257
-6.17752
-6.169
-6.15703
-6.14165
-6.12288
-6.10075
-6.07529
-6.04654
-6.01454
-5.97932
-5.94093
-5.89941
-5.8548
-5.80716
-5.75652
-5.70294
-5.64647
-5.58715
-5.52505
-5.4602
-5.39268
-5.32255
-5.24985
-5.17468
-5.09709
-5.88624
-5.89475
-5.89993
-5.90173
-5.90017
-5.89527
-5.88703
-5.87549
-5.86069
-5.84264
-5.82137
-5.79692
-5.76932
-5.7386
-5.70481
-5.668
-5.62819
-5.58544
-5.53979
-5.49128
-5.43997
-5.3859
-5.32912
-5.26968
-5.20763
-5.14303
-5.07593
-5.00641
-4.93452
-4.86037
-5.62439
-5.63246
-5.63731
-5.63891
-5.63729
-5.63245
-5.62441
-5.6132
-5.59886
-5.58141
-5.56086
-5.53727
-5.51066
-5.48107
-5.44854
-5.41311
-5.37482
-5.33372
-5.28985
-5.24325
-5.19398
-5.14207
-5.08758
-5.03055
-4.97103
-4.90908
-4.84475
-4.7781
-4.70922
-4.63821
-5.38059
-5.38818
-5.39268
-5.39405
-5.39231
-5.38747
-5.37956
-5.36861
-5.35464
-5.33767
-5.31775
-5.29489
-5.26914
-5.24053
-5.20911
-5.17491
-5.13798
-5.09835
-5.05608
-5.0112
-4.96376
-4.91381
-4.86139
-4.80655
-4.74933
-4.68978
-4.62796
-4.56393
-4.49778
-4.42963
-5.15327
-5.16039
-5.16452
-5.16562
-5.16373
-5.15886
-5.15102
-5.14026
-5.12659
-5.11004
-5.09064
-5.06843
-5.04343
-5.01569
-4.98525
-4.95214
-4.91642
-4.87812
-4.83728
-4.79395
-4.74817
-4.7
-4.64946
-4.5966
-4.54147
-4.48411
-4.42457
-4.36292
-4.29924
-4.2337
-4.94102
-4.94766
-4.95141
-4.95225
-4.95019
-4.94525
-4.93745
-4.92683
-4.91341
-4.89721
-4.87827
-4.85661
-4.83228
-4.80531
-4.77575
-4.74362
-4.70898
-4.67187
-4.63233
-4.59041
-4.54614
-4.49957
-4.45074
-4.3997
-4.34648
-4.29111
-4.23365
-4.17416
-4.1127
-4.04951
-4.74254
-4.74873
-4.75211
-4.75267
-4.75043
-4.74541
-4.73762
-4.72711
-4.71389
-4.69799
-4.67945
-4.65828
-4.63455
-4.60827
-4.57949
-4.54825
-4.51459
-4.47856
-4.44019
-4.39954
-4.35665
-4.31155
-4.26429
-4.2149
-4.16343
-4.10989
-4.05432
-3.99679
-3.93731
-3.87622
-4.55668
-4.56242
-4.56544
-4.56573
-4.56331
-4.55819
-4.5504
-4.53997
-4.52693
-4.51129
-4.49309
-4.47237
-4.44916
-4.4235
-4.39543
-4.36499
-4.33223
-4.29718
-4.25989
-4.2204
-4.17876
-4.13501
-4.08919
-4.04133
-3.99146
-3.93961
-3.88578
-3.83001
-3.77229
-3.71309
-4.38238
-4.38769
-4.39036
-4.39037
-4.38777
-4.38254
-4.37473
-4.36436
-4.35146
-4.33605
-4.31816
-4.29783
-4.27509
-4.24999
-4.22256
-4.19284
-4.16088
-4.12673
-4.09041
-4.05199
-4.0115
-3.96898
-3.92448
-3.87802
-3.82964
-3.77934
-3.72711
-3.67297
-3.61676
-3.55933
-4.21872
-4.22361
-4.22593
-4.22568
-4.22288
-4.21753
-4.20968
-4.19935
-4.18656
-4.17133
-4.1537
-4.13371
-4.11139
-4.08677
-4.05991
-4.03083
-3.99959
-3.96622
-3.93078
-3.89331
-3.85384
-3.81244
-3.76913
-3.72395
-3.67692
-3.62804
-3.57728
-3.52459
-3.46963
-3.41388
-4.06483
-4.06939
-4.07145
-4.07101
-4.06808
-4.06267
-4.05482
-4.04457
-4.03191
-4.01689
-3.99954
-3.97988
-3.95796
-3.93382
-3.9075
-3.87903
-3.84846
-3.81584
-3.78121
-3.74462
-3.70611
-3.66573
-3.62353
-3.57953
-3.53377
-3.48623
-3.43686
-3.38554
-3.33152
-3.2771
-3.9198
-3.92421
-3.92617
-3.92571
-3.92282
-3.91752
-3.90985
-3.89983
-3.88749
-3.87284
-3.85593
-3.83679
-3.81545
-3.79196
-3.76635
-3.73866
-3.70895
-3.67726
-3.64362
-3.60811
-3.57075
-3.5316
-3.49071
-3.44812
-3.40386
-3.35793
-3.31026
-3.26068
-3.20794
-3.15509
-3.78295
-3.78656
-3.78784
-3.78678
-3.7834
-3.77772
-3.76977
-3.75957
-3.74714
-3.73252
-3.71574
-3.69682
-3.67581
-3.65275
-3.62767
-3.60062
-3.57164
-3.54078
-3.50809
-3.47361
-3.43739
-3.39949
-3.35996
-3.31885
-3.27622
-3.23209
-3.18647
-3.13914
-3.08888
-3.04277
-13.3901
-13.5459
-13.6932
-13.8403
-13.9858
-14.1279
-14.2663
-14.4004
-14.5301
-14.6549
-14.7746
-14.889
-14.9979
-15.101
-15.1984
-15.2897
-15.3749
-15.4538
-15.5263
-15.5924
-15.652
-15.7049
-15.7512
-15.7907
-15.8235
-15.8497
-15.8692
-15.8822
-15.889
-15.8912
-12.3524
-12.5123
-12.6654
-12.8149
-12.9609
-13.1029
-13.2407
-13.3741
-13.5028
-13.6267
-13.7456
-13.8592
-13.9673
-14.0699
-14.1667
-14.2576
-14.3425
-14.4212
-14.4937
-14.5598
-14.6195
-14.6727
-14.7193
-14.7593
-14.7927
-14.8195
-14.8397
-14.8534
-14.8607
-14.8616
-11.5007
-11.6602
-11.8144
-11.964
-12.1095
-12.2509
-12.3879
-12.5205
-12.6485
-12.7717
-12.89
-13.0031
-13.111
-13.2134
-13.3102
-13.4012
-13.4864
-13.5656
-13.6388
-13.7057
-13.7663
-13.8207
-13.8686
-13.91
-13.945
-13.9734
-13.9953
-14.0107
-14.0195
-14.0216
-10.7294
-10.8863
-11.0389
-11.1871
-11.3312
-11.4712
-11.6069
-11.7383
-11.8652
-11.9875
-12.105
-12.2175
-12.3249
-12.427
-12.5238
-12.6149
-12.7004
-12.7802
-12.854
-12.9219
-12.9837
-13.0393
-13.0887
-13.1319
-13.1687
-13.1992
-13.2233
-13.2409
-13.2521
-13.2566
-9.99078
-10.1442
-10.294
-10.4398
-10.5816
-10.7195
-10.8533
-10.9829
-11.1081
-11.229
-11.3451
-11.4566
-11.5631
-11.6645
-11.7608
-11.8517
-11.9372
-12.0172
-12.0915
-12.16
-12.2227
-12.2795
-12.3303
-12.375
-12.4136
-12.4461
-12.4724
-12.4924
-12.506
-12.5133
-9.29914
-9.44857
-9.59478
-9.73733
-9.87617
-10.0112
-10.1424
-10.2696
-10.3927
-10.5115
-10.6259
-10.7357
-10.8408
-10.9411
-11.0364
-11.1267
-11.2117
-11.2915
-11.3658
-11.4346
-11.4979
-11.5554
-11.6072
-11.6532
-11.6934
-11.7276
-11.7558
-11.778
-11.794
-11.8039
-8.65969
-8.80471
-8.94684
-9.08559
-9.22087
-9.35261
-9.48069
-9.60497
-9.72531
-9.84159
-9.95367
-10.0614
-10.1647
-10.2633
-10.3573
-10.4464
-10.5305
-10.6096
-10.6835
-10.7522
-10.8155
-10.8734
-10.9258
-10.9727
-11.0139
-11.0494
-11.0792
-11.1032
-11.1214
-11.1337
-8.07174
-8.2121
-8.3498
-8.48438
-8.61571
-8.74372
-8.86827
-8.98923
-9.10646
-9.21983
-9.3292
-9.43445
-9.53545
-9.63207
-9.7242
-9.81172
-9.89452
-9.9725
-10.0456
-10.1136
-10.1766
-10.2344
-10.2869
-10.3342
-10.376
-10.4125
-10.4435
-10.4689
-10.4888
-10.503
-7.53352
-7.66907
-7.80216
-7.93233
-8.05948
-8.18349
-8.30425
-8.4216
-8.53542
-8.64558
-8.75194
-8.85438
-8.95278
-9.04702
-9.13698
-9.22255
-9.30363
-9.38012
-9.45193
-9.51897
-9.58116
-9.63843
-9.6907
-9.73792
-9.78001
-9.81694
-9.84865
-9.87509
-9.89622
-9.91202
-7.0424
-7.17311
-7.30151
-7.42718
-7.55001
-7.66989
-7.78669
-7.90027
-8.01049
-8.11724
-8.22037
-8.31978
-8.41534
-8.50693
-8.59445
-8.67779
-8.75686
-8.83155
-8.90178
-8.96747
-9.02854
-9.08492
-9.13655
-9.18335
-9.22528
-9.26229
-9.29433
-9.32135
-9.34332
-9.36022
-6.59512
-6.72104
-6.84476
-6.96593
-7.08441
-7.20011
-7.31289
-7.42261
-7.52914
-7.63236
-7.73215
-7.82838
-7.92094
-8.00971
-8.0946
-8.17551
-8.25234
-8.32499
-8.3934
-8.45747
-8.51714
-8.57234
-8.62301
-8.66908
-8.71051
-8.74725
-8.77926
-8.80649
-8.82892
-8.84653
-6.18811
-6.30933
-6.42846
-6.54518
-6.65936
-6.77091
-6.87968
-6.98554
-7.08836
-7.18803
-7.28441
-7.37739
-7.46687
-7.55273
-7.63488
-7.71321
-7.78765
-7.85811
-7.92451
-7.98677
-8.04482
-8.09861
-8.14808
-8.19317
-8.23383
-8.27001
-8.30169
-8.32882
-8.35138
-8.36935
-5.81772
-5.93438
-6.04905
-6.16144
-6.27142
-6.3789
-6.48373
-6.58579
-6.68494
-6.78107
-6.87406
-6.96379
-7.05016
-7.13307
-7.21241
-7.28811
-7.36008
-7.42824
-7.49251
-7.55282
-7.60911
-7.66133
-7.70942
-7.75332
-7.79299
-7.8284
-7.85951
-7.88628
-7.90869
-7.92674
-5.4804
-5.59267
-5.70305
-5.81125
-5.91718
-6.02071
-6.12171
-6.22006
-6.31563
-6.4083
-6.49794
-6.58446
-6.66775
-6.74772
-6.82426
-6.8973
-6.96677
-7.03257
-7.09465
-7.15294
-7.20737
-7.25791
-7.30449
-7.34706
-7.3856
-7.42006
-7.45041
-7.47662
-7.49868
-7.51657
-5.1728
-5.28086
-5.38712
-5.49132
-5.59334
-5.69309
-5.79041
-5.88518
-5.97728
-6.06658
-6.15298
-6.23636
-6.31663
-6.3937
-6.46748
-6.53789
-6.60485
-6.66829
-6.72816
-6.78439
-6.83692
-6.88571
-6.9307
-6.97187
-7.00916
-7.04255
-7.07201
-7.09751
-7.11904
-7.13659
-4.89179
-4.99585
-5.09818
-5.19855
-5.29686
-5.39299
-5.48679
-5.57814
-5.6669
-5.75297
-5.83622
-5.91657
-5.99391
-6.06816
-6.13923
-6.20706
-6.27156
-6.33267
-6.39034
-6.44451
-6.49513
-6.54214
-6.58552
-6.62521
-6.6612
-6.69344
-6.72192
-6.7466
-6.76748
-6.78455
-4.63454
-4.73478
-4.83338
-4.93014
-5.02492
-5.11761
-5.20806
-5.29614
-5.38173
-5.46469
-5.54494
-5.62237
-5.69688
-5.76841
-5.83686
-5.90217
-5.96427
-6.02311
-6.07862
-6.13075
-6.17947
-6.22472
-6.26647
-6.30468
-6.33933
-6.37038
-6.39781
-6.42161
-6.44175
-6.45826
-4.39849
-4.4951
-4.59017
-4.6835
-4.77496
-4.8644
-4.95168
-5.03666
-5.11922
-5.19924
-5.27661
-5.35124
-5.42305
-5.49195
-5.55788
-5.62076
-5.68055
-5.73717
-5.79058
-5.84074
-5.88759
-5.93111
-5.97125
-6.00798
-6.04128
-6.07112
-6.09748
-6.12035
-6.13971
-6.15558
-4.18135
-4.27451
-4.36625
-4.45635
-4.54468
-4.63106
-4.71535
-4.7974
-4.87709
-4.9543
-5.02894
-5.1009
-5.17012
-5.23652
-5.30003
-5.36059
-5.41814
-5.47263
-5.52401
-5.57225
-5.6173
-5.65912
-5.69769
-5.73297
-5.76494
-5.79358
-5.81886
-5.84079
-5.85934
-5.87453
-3.98107
-4.07094
-4.15954
-4.24663
-4.33202
-4.41554
-4.49702
-4.57631
-4.65328
-4.72783
-4.79987
-4.8693
-4.93605
-5.00006
-5.06125
-5.11958
-5.175
-5.22745
-5.27689
-5.32328
-5.36659
-5.40677
-5.44381
-5.47768
-5.50835
-5.53581
-5.56004
-5.58102
-5.59876
-5.61325
-3.79582
-3.88257
-3.96825
-4.05253
-4.13518
-4.21601
-4.29485
-4.37153
-4.44595
-4.51798
-4.58755
-4.65457
-4.71897
-4.7807
-4.8397
-4.89591
-4.94929
-4.99979
-5.04737
-5.09199
-5.13363
-5.17225
-5.20782
-5.24033
-5.26974
-5.29605
-5.31924
-5.3393
-5.35622
-5.37002
-3.62398
-3.70776
-3.79073
-3.87242
-3.95254
-4.03087
-4.10723
-4.18146
-4.25345
-4.3231
-4.39033
-4.45507
-4.51724
-4.57681
-4.63372
-4.68791
-4.73935
-4.78799
-4.8338
-4.87674
-4.91678
-4.9539
-4.98807
-5.01927
-5.04748
-5.07269
-5.09487
-5.11404
-5.13016
-5.14327
-3.46408
-3.54504
-3.62557
-3.7049
-3.78267
-3.85869
-3.93273
-4.00465
-4.07435
-4.14174
-4.20675
-4.26932
-4.32938
-4.3869
-4.44182
-4.49409
-4.54369
-4.59057
-4.63469
-4.67604
-4.71457
-4.75026
-4.7831
-4.81305
-4.84011
-4.86425
-4.88548
-4.90378
-4.91914
-4.93158
-3.31473
-3.39307
-3.47148
-3.54869
-3.62432
-3.69818
-3.77005
-3.8398
-3.90734
-3.97259
-4.0355
-4.09601
-4.15407
-4.20964
-4.26268
-4.31314
-4.36099
-4.4062
-4.44873
-4.48856
-4.52565
-4.56
-4.59156
-4.62034
-4.6463
-4.66944
-4.68975
-4.70722
-4.72185
-4.73365
-3.17468
-3.2507
-3.32738
-3.40273
-3.47643
-3.5483
-3.61813
-3.68583
-3.75131
-3.81453
-3.87545
-3.93401
-3.99017
-4.04389
-4.09514
-4.14389
-4.19009
-4.23371
-4.27474
-4.31313
-4.34887
-4.38193
-4.4123
-4.43995
-4.46488
-4.48707
-4.50651
-4.52319
-4.53712
-4.54831
-3.04276
-3.11712
-3.19264
-3.26637
-3.33829
-3.40831
-3.47622
-3.54195
-3.60548
-3.66676
-3.72577
-3.78246
-3.83681
-3.88878
-3.93833
-3.98543
-4.03006
-4.07218
-4.11177
-4.14879
-4.18324
-4.21509
-4.24431
-4.2709
-4.29484
-4.31612
-4.33473
-4.35066
-4.36392
-4.37452
-2.91698
-2.99119
-3.06643
-3.13875
-3.20904
-3.27731
-3.34337
-3.40722
-3.46887
-3.52829
-3.58548
-3.6404
-3.69302
-3.74331
-3.79125
-3.8368
-3.87993
-3.92063
-3.95885
-3.99459
-4.02781
-4.05851
-4.08665
-4.11223
-4.13523
-4.15565
-4.17347
-4.18869
-4.20131
-4.21134
-2.79224
-2.86832
-2.94486
-3.01624
-3.08512
-3.15184
-3.21625
-3.27841
-3.33837
-3.39613
-3.4517
-3.50504
-3.55614
-3.60496
-3.65147
-3.69566
-3.7375
-3.77695
-3.814
-3.84863
-3.8808
-3.91051
-3.93773
-3.96246
-3.98467
-4.00437
-4.02153
-4.03617
-4.04826
-4.05784
-2.66473
-2.7446
-2.82457
-2.89598
-2.96395
-3.02947
-3.09255
-3.15333
-3.21192
-3.26833
-3.32257
-3.37461
-3.42445
-3.47206
-3.51741
-3.56048
-3.60125
-3.63969
-3.67578
-3.7095
-3.74083
-3.76975
-3.79625
-3.82031
-3.84192
-3.86107
-3.87776
-3.89198
-3.90373
-3.91302
-2.56735
-2.65565
-2.73642
-2.80694
-2.87323
-2.93663
-2.9975
-3.05608
-3.11244
-3.16664
-3.21868
-3.26855
-3.31623
-3.36171
-3.40497
-3.44599
-3.48476
-3.52125
-3.55546
-3.58736
-3.61693
-3.64418
-3.66907
-3.69161
-3.71179
-3.72959
-3.74502
-3.75807
-3.76874
-3.77705
-0.397534
-0.439741
-0.485223
-0.534203
-0.587188
-0.644675
-0.707197
-0.775381
-0.849962
-0.931799
-1.02189
-1.12141
-1.23173
-1.35444
-1.4914
-1.64479
-1.81711
-2.01124
-2.2305
-2.47863
-2.75985
-3.07878
-3.44041
-3.84993
-4.31273
-4.83431
-5.41566
-6.05014
-6.79084
-7.74408
-0.466699
-0.511307
-0.558452
-0.609299
-0.664347
-0.724009
-0.788817
-0.859416
-0.936552
-1.02109
-1.11406
-1.21662
-1.33018
-1.45633
-1.59696
-1.75425
-1.93073
-2.12931
-2.3533
-2.60646
-2.893
-3.21754
-3.58505
-4.00064
-4.46961
-4.9973
-5.58449
-6.22404
-6.96788
-7.92027
-0.536688
-0.583739
-0.632573
-0.68532
-0.742468
-0.804343
-0.871478
-0.944535
-1.02427
-1.11157
-1.20745
-1.31311
-1.42996
-1.55961
-1.70397
-1.86524
-2.04595
-2.24904
-2.47783
-2.73609
-3.02804
-3.35826
-3.7317
-4.15339
-4.62853
-5.16224
-5.75503
-6.39923
-7.14548
-8.09624
-0.607444
-0.656977
-0.707524
-0.762202
-0.821486
-0.88561
-0.955108
-1.03066
-1.11304
-1.20313
-1.30197
-1.41078
-1.53096
-1.66417
-1.81231
-1.9776
-2.1626
-2.37026
-2.6039
-2.86732
-3.16471
-3.50067
-3.88006
-4.30788
-4.78917
-5.32887
-5.92719
-6.57607
-7.32539
-8.27655
-0.67892
-0.73097
-0.783252
-0.839893
-0.901345
-0.967753
-1.03965
-1.11773
-1.20279
-1.29572
-1.39756
-1.50956
-1.63313
-1.76994
-1.92191
-2.09127
-2.28062
-2.49289
-2.73145
-3.00007
-3.30296
-3.64468
-4.03007
-4.46403
-4.95148
-5.49718
-6.10105
-6.7547
-7.50752
-8.46019
-0.751067
-0.805663
-0.859701
-0.918333
-0.981988
-1.05071
-1.12504
-1.2057
-1.29347
-1.38927
-1.49416
-1.60939
-1.73639
-1.87684
-2.03269
-2.20618
-2.39991
-2.61686
-2.86037
-3.13425
-3.44268
-3.79021
-4.18163
-4.62177
-5.11541
-5.66712
-6.27657
-6.93506
-7.69155
-8.64624
-0.823835
-0.881
-0.936812
-0.997465
-1.06335
-1.13443
-1.21122
-1.29448
-1.385
-1.48371
-1.59169
-1.71018
-1.84065
-1.98479
-2.14456
-2.32223
-2.5204
-2.74206
-2.99059
-3.26977
-3.58378
-3.93716
-4.33465
-4.78098
-5.28083
-5.83859
-6.45366
-7.11703
-7.8773
-8.83431
-0.897174
-0.956927
-1.01453
-1.07723
-1.14538
-1.21883
-1.29813
-1.38401
-1.47732
-1.57898
-1.69007
-1.81187
-1.94585
-2.09372
-2.25745
-2.43933
-2.64199
-2.86841
-3.12199
-3.40651
-3.72615
-4.08542
-4.489
-4.94156
-5.44764
-6.01146
-6.63218
-7.30048
-8.06462
-9.02414
-0.971036
-1.03339
-1.09279
-1.15757
-1.22801
-1.30387
-1.38569
-1.47424
-1.57036
-1.67499
-1.78924
-1.91438
-2.0519
-2.20353
-2.37127
-2.5574
-2.76457
-2.9958
-3.25446
-3.54437
-3.86967
-4.23486
-4.64456
-5.10337
-5.61571
-6.18561
-6.812
-7.48526
-8.25332
-9.21544
-1.04537
-1.11034
-1.17155
-1.23843
-1.31119
-1.38948
-1.47385
-1.56509
-1.66405
-1.77168
-1.88911
-2.01762
-2.15872
-2.31415
-2.48592
-2.67634
-2.88807
-3.12413
-3.38792
-3.68324
-4.01424
-4.38536
-4.80122
-5.26629
-5.78489
-6.36088
-6.99295
-7.67118
-8.44319
-9.40797
-1.12015
-1.18771
-1.25075
-1.31976
-1.39486
-1.4756
-1.56254
-1.65649
-1.75832
-1.86898
-1.98961
-2.12152
-2.26623
-2.42548
-2.60131
-2.79605
-3.01237
-3.25329
-3.52224
-3.823
-4.15972
-4.53681
-4.95883
-5.43018
-5.95505
-6.53713
-7.17487
-7.85807
-8.63403
-9.60149
-1.19531
-1.26548
-1.33034
-1.40149
-1.47896
-1.56217
-1.65171
-1.74839
-1.8531
-1.96681
-2.09067
-2.226
-2.37433
-2.53743
-2.71735
-2.91644
-3.13737
-3.38319
-3.65732
-3.96354
-4.306
-4.68908
-5.11727
-5.5949
-6.12604
-6.71419
-7.3576
-8.04574
-8.82564
-9.7958
-1.27082
-1.34358
-1.41027
-1.48358
-1.56343
-1.64914
-1.74128
-1.84071
-1.94832
-2.0651
-2.1922
-2.33097
-2.48294
-2.64992
-2.83395
-3.0374
-3.26296
-3.5137
-3.79303
-4.10474
-4.45295
-4.84202
-5.27639
-5.7603
-6.29769
-6.8919
-7.54095
-8.23401
-9.01781
-9.99066
-1.34665
-1.42198
-1.4905
-1.56599
-1.64823
-1.73644
-1.8312
-1.93339
-2.04391
-2.16377
-2.29413
-2.43635
-2.59198
-2.76284
-2.95099
-3.15883
-3.38904
-3.64471
-3.92925
-4.24646
-4.60044
-4.99551
-5.43605
-5.92623
-6.46985
-7.07009
-7.72473
-8.42267
-9.21035
-10.1859
-1.42278
-1.50065
-1.57098
-1.64865
-1.7333
-1.82402
-1.9214
-2.02636
-2.1398
-2.26274
-2.39637
-2.54204
-2.70135
-2.8761
-3.06839
-3.28061
-3.51549
-3.7761
-4.06587
-4.38858
-4.74832
-5.14939
-5.5961
-6.09252
-6.64235
-7.24859
-7.90878
-8.61154
-9.40305
-10.3812
-1.49918
-1.57955
-1.65167
-1.73154
-1.8186
-1.91183
-2.01183
-2.11955
-2.23591
-2.36194
-2.49883
-2.64796
-2.81094
-2.98959
-3.18603
-3.40265
-3.6422
-3.90775
-4.20275
-4.53096
-4.89647
-5.30352
-5.75637
-6.25902
-6.81503
-7.4272
-8.09289
-8.80042
-9.59571
-10.5765
-1.57585
-1.65867
-1.73256
-1.81462
-1.90408
-1.9998
-2.10242
-2.2129
-2.33217
-2.46127
-2.60142
-2.75402
-2.92066
-3.10322
-3.30379
-3.52482
-3.76903
-4.03953
-4.33975
-4.67347
-5.04472
-5.45774
-5.91672
-6.42556
-6.98769
-7.60576
-8.27689
-8.98912
-9.78812
-10.7716
-1.65279
-1.73799
-1.8136
-1.89784
-1.98968
-2.08789
-2.1931
-2.30632
-2.42848
-2.56065
-2.70405
-2.8601
-3.03041
-3.21686
-3.42157
-3.64699
-3.89587
-4.17131
-4.47675
-4.81596
-5.19295
-5.61191
-6.07698
-6.59197
-7.16018
-7.78408
-8.46057
-9.17742
-9.98008
-10.9661
-1.73001
-1.81749
-1.89478
-1.98116
-2.07536
-2.17601
-2.2838
-2.39973
-2.52476
-2.65998
-2.80662
-2.96609
-3.14006
-3.33039
-3.53924
-3.76904
-4.02258
-4.30295
-4.6136
-4.95827
-5.34098
-5.76586
-6.23699
-6.75808
-7.3323
-7.96196
-8.64374
-9.36514
-10.1714
-11.16
-1.80753
-1.89718
-1.97606
-2.06454
-2.16105
-2.26411
-2.37442
-2.49303
-2.62091
-2.75915
-2.90899
-3.07189
-3.24949
-3.4437
-3.65666
-3.89084
-4.14902
-4.43431
-4.75015
-5.10027