/*--------------------------------*- C++ -*----------------------------------*\
| =========                 |                                                 |
| \\      /  F ield         | OpenFOAM: The Open Source CFD Toolbox           |
|  \\    /   O peration     | Version:  v1912                                 |
|   \\  /    A nd           | Website:  www.openfoam.com                      |
|    \\/     M anipulation  |                                                 |
\*---------------------------------------------------------------------------*/
FoamFile
{
    version     2.0;
    format      ascii;
    class       surfaceScalarField;
    location    "36";
    object      phi;
}
// * * * * * * * * * * * * * * * * * * * * * * * * * * * * * * * * * * * * * //

dimensions      [0 3 -1 0 0 0 0];
oriented        oriented;


internalField   nonuniform List<scalar> 
18940
(
0.000356428
-0.234395
0.234038
0.00137244
-0.216378
0.215362
0.00286952
-0.204844
0.203347
0.00467783
-0.19705
0.195242
0.00666713
-0.191279
0.18929
0.00873614
-0.186467
0.184398
0.0108114
-0.182027
0.179952
0.0128437
-0.177666
0.175633
0.0148031
-0.173259
0.171299
0.0166742
-0.168778
0.166907
0.0184524
-0.164244
0.162466
0.02014
-0.1597
0.158012
0.0217442
-0.155193
0.153588
0.0232746
-0.150766
0.149235
0.0247425
-0.146456
0.144988
0.0261595
-0.142286
0.140869
0.0275371
-0.13827
0.136892
0.0288856
-0.134404
0.133055
0.0302136
-0.130668
0.12934
-0.127024
0.125712
0.0315263
0.000379816
-0.234775
0.0014157
-0.217414
0.0029235
-0.206351
0.00473619
-0.198863
0.00672009
-0.193263
0.00877398
-0.188521
0.0108257
-0.184079
0.0128275
-0.179667
0.0147513
-0.175182
0.0165837
-0.17061
0.0183214
-0.165982
0.0199683
-0.161347
0.0215324
-0.156757
0.023024
-0.152258
0.0244549
-0.147886
0.0258369
-0.143668
0.0271817
-0.139614
0.0285002
-0.135722
0.0298012
-0.131969
-0.128314
0.0310907
0.000401212
-0.235176
0.00145331
-0.218466
0.00296985
-0.207868
0.00478319
-0.200676
0.00675806
-0.195238
0.0087932
-0.190556
0.0108176
-0.186103
0.0127855
-0.181635
0.0146707
-0.177068
0.0164615
-0.172401
0.0181564
-0.167677
0.0197604
-0.162951
0.0212826
-0.158279
0.0227338
-0.153709
0.0241262
-0.149279
0.0254718
-0.145014
0.0267827
-0.140925
0.0280698
-0.137009
0.0293427
-0.133242
-0.129579
0.0306079
0.00041506
-0.235591
0.00148219
-0.219533
0.00300665
-0.209392
0.00481809
-0.202488
0.00678059
-0.1972
0.00879343
-0.192569
0.0107871
-0.188097
0.0127178
-0.183566
0.0145614
-0.178911
0.0163081
-0.174148
0.0179579
-0.169327
0.0195172
-0.16451
0.0209958
-0.159757
0.0224053
-0.155118
0.023758
-0.150631
0.0250661
-0.146322
0.0263419
-0.142201
0.0275967
-0.138264
0.0288403
-0.134486
-0.130819
0.0300804
0.00042631
-0.236017
0.00150571
-0.220613
0.00303525
-0.210922
0.00484155
-0.204294
0.00678815
-0.199147
0.00877513
-0.194556
0.0107347
-0.190056
0.0126251
-0.185456
0.0144243
-0.18071
0.0161244
-0.175848
0.0177271
-0.170929
0.0192399
-0.166023
0.0206734
-0.161191
0.0220399
-0.156485
0.0233517
-0.151943
0.0246213
-0.147592
0.025861
-0.143441
0.0270824
-0.139485
0.028296
-0.135699
-0.132033
0.0295103
0.000435389
-0.236453
0.00152427
-0.221702
0.0030559
-0.212454
0.0048538
-0.206092
0.00678102
-0.201074
0.00873869
-0.196513
0.0106609
-0.191979
0.012508
-0.187303
0.0142601
-0.182462
0.0159113
-0.177499
0.0174649
-0.172483
0.0189295
-0.167487
0.0203166
-0.162578
0.0216387
-0.157807
0.0229086
-0.153213
0.0241387
-0.148822
0.0253413
-0.144643
0.0265285
-0.140672
0.0277111
-0.136882
-0.133221
0.0288988
0.000442862
-0.236896
0.00153854
-0.222797
0.00306918
-0.213984
0.00485532
-0.207878
0.00675971
-0.202979
0.00868469
-0.198438
0.0105663
-0.19386
0.0123672
-0.189104
0.0140697
-0.184165
0.0156699
-0.179099
0.0171725
-0.173985
0.0185873
-0.168902
0.0199265
-0.163917
0.0212031
-0.159083
0.0224298
-0.15444
0.0236193
-0.150011
0.0247838
-0.145808
0.0259355
-0.141824
0.0270862
-0.138033
-0.134381
0.0282465
0.000448884
-0.237344
0.00154885
-0.223897
0.00307548
-0.215511
0.00484658
-0.209649
0.00672479
-0.204857
0.0086138
-0.200327
0.0104518
-0.195698
0.0122037
-0.190856
0.0138542
-0.185816
0.0154012
-0.180646
0.0168509
-0.175435
0.0182143
-0.170266
0.0195041
-0.165207
0.0207338
-0.160313
0.0219162
-0.155622
0.0230638
-0.151159
0.0241889
-0.146933
0.0253039
-0.142939
0.0264214
-0.13915
-0.135513
0.0275532
0.000453562
-0.237798
0.00155549
-0.224999
0.00307524
-0.217031
0.00482815
-0.211402
0.00667693
-0.206706
0.00852684
-0.202177
0.0103183
-0.19749
0.0120187
-0.192557
0.0136147
-0.187412
0.0151064
-0.182138
0.0165014
-0.17683
0.0178116
-0.171576
0.0190506
-0.166446
0.020232
-0.161494
0.0213686
-0.156759
0.0224727
-0.152263
0.0235568
-0.148017
0.0246336
-0.144016
0.0257162
-0.140233
-0.136615
0.026818
0.000456969
-0.238255
0.00155873
-0.226101
0.00306895
-0.218541
0.00480066
-0.213134
0.00661693
-0.208522
0.00842476
-0.203985
0.0101669
-0.199232
0.0118132
-0.194203
0.0133526
-0.188951
0.0147869
-0.183572
0.0161252
-0.178169
0.0173806
-0.172831
0.018567
-0.167632
0.0196983
-0.162626
0.0207874
-0.157848
0.0218463
-0.153322
0.0228875
-0.149058
0.0239237
-0.145052
0.0249693
-0.141278
-0.137685
0.026039
0.000459211
-0.238714
0.00155893
-0.227201
0.00305716
-0.220039
0.00476487
-0.214842
0.00654574
-0.210303
0.00830871
-0.205748
0.00999895
-0.200922
0.0115887
-0.195793
0.0130694
-0.190432
0.0144443
-0.184947
0.0157241
-0.179448
0.0169226
-0.17403
0.0180546
-0.168764
0.0191338
-0.163705
0.0201732
-0.158887
0.0211848
-0.154333
0.0221804
-0.150054
0.0231733
-0.146045
0.0241789
-0.142284
-0.13872
0.0252137
0.000460443
-0.239175
0.00155654
-0.228297
0.00304057
-0.221523
0.00472168
-0.216523
0.00646445
-0.212045
0.00817998
-0.207464
0.00981593
-0.202558
0.0113471
-0.197324
0.0127668
-0.191851
0.0140804
-0.186261
0.0152998
-0.180668
0.0164395
-0.175169
0.0175148
-0.16984
0.0185397
-0.16473
0.019527
-0.159875
0.0204882
-0.155295
0.0214351
-0.151001
0.0223812
-0.146991
0.0233428
-0.143246
-0.139716
0.0243389
0.000460943
-0.239636
0.00155215
-0.229388
0.00302002
-0.222991
0.00467214
-0.218175
0.00637438
-0.213748
0.00804012
-0.209129
0.00961962
-0.204137
0.0110901
-0.198794
0.0124471
-0.193208
0.0136976
-0.187511
0.0148545
-0.181825
0.0159333
-0.176248
0.0169496
-0.170856
0.0179176
-0.165698
0.0188496
-0.160807
0.0197571
-0.156202
0.0206515
-0.151895
0.0215461
-0.147886
0.0224586
-0.144158
-0.140668
0.0234106
0.00046119
-0.240097
0.00154664
-0.230474
0.00299656
-0.224441
0.00461751
-0.219796
0.00627698
-0.215407
0.00789086
-0.210743
0.00941202
-0.205659
0.0108201
-0.200202
0.0121128
-0.194501
0.0132984
-0.188697
0.0143911
-0.182917
0.0154069
-0.177264
0.0163616
-0.171811
0.0172694
-0.166606
0.0181426
-0.16168
0.018992
-0.157052
0.0198287
-0.152732
0.020666
-0.148723
0.0215224
-0.145015
-0.141568
0.0224227
0.000461985
-0.240559
0.00154115
-0.231553
0.00297141
-0.225871
0.00455913
-0.221384
0.00617386
-0.217022
0.00773411
-0.212303
0.00919541
-0.20712
0.0105398
-0.201547
0.0117668
-0.195728
0.0128863
-0.189816
0.0139132
-0.183944
0.014864
-0.178215
0.0157544
-0.172701
0.0165987
-0.16745
0.0174086
-0.16249
0.0181945
-0.157837
0.0189666
-0.153504
0.0197379
-0.149495
0.0205279
-0.145804
-0.142407
0.0213667
0.000464475
-0.241023
0.00153701
-0.232625
0.00294577
-0.22728
0.00449837
-0.222936
0.00606669
-0.21859
0.00757192
-0.213809
0.00897225
-0.20852
0.0102521
-0.202827
0.0114127
-0.196889
0.0124652
-0.190869
0.0134253
-0.184904
0.0143096
-0.179099
0.0151337
-0.173525
0.0159112
-0.168227
0.0166535
-0.163232
0.0173698
-0.158554
0.0180693
-0.154203
0.0187639
-0.150189
0.0194742
-0.146515
-0.143172
0.0202393
0.000470049
-0.241493
0.00153552
-0.233691
0.00292096
-0.228665
0.00443678
-0.224452
0.00595734
-0.220111
0.00740649
-0.215258
0.00874515
-0.209859
0.00996
-0.204041
0.0110541
-0.197983
0.0120396
-0.191854
0.0129325
-0.185797
0.0137495
-0.179916
0.0145057
-0.174281
0.0152143
-0.168936
0.0158854
-0.163903
0.0165273
-0.159196
0.0171476
-0.154824
0.0177563
-0.150798
0.018374
-0.147133
-0.143839
0.0190407
0.000481036
-0.241974
0.0015393
-0.234749
0.00289944
-0.230026
0.00437647
-0.225929
0.00584774
-0.221582
0.00723992
-0.21665
0.00851665
-0.211136
0.00966685
-0.205192
0.0106951
-0.199011
0.0116145
-0.192774
0.0124409
-0.186624
0.0131907
-0.180666
0.0138781
-0.174969
0.0145148
-0.169573
0.0151102
-0.164498
0.0156714
-0.159757
0.016205
-0.155357
0.0167174
-0.15131
0.0172214
-0.147637
-0.144358
0.0177414
0.000505018
-0.242479
0.00155557
-0.2358
0.00288527
-0.231355
0.00431934
-0.227363
0.00573914
-0.223002
0.00707363
-0.217985
0.00828877
-0.212351
0.00937555
-0.206278
0.01034
-0.199976
0.0111957
-0.193629
0.0119585
-0.187386
0.0126437
-0.181351
0.0132636
-0.175589
0.0138273
-0.170136
0.0143406
-0.165012
0.0148072
-0.160224
0.015229
-0.155779
0.0156047
-0.151686
0.0159389
-0.147971
-0.144713
0.0162936
0.000562111
-0.243041
0.00159265
-0.23683
0.0028782
-0.232641
0.0042642
-0.228749
0.00563104
-0.224369
0.00690801
-0.219262
0.0080628
-0.213506
0.00908838
-0.207304
0.00999228
-0.200879
0.0107889
-0.194426
0.0114942
-0.188092
0.0121225
-0.181979
0.0126845
-0.176151
0.0131857
-0.170638
0.0136258
-0.165452
0.0139976
-0.160595
0.0142842
-0.156065
0.0144594
-0.151861
0.0145181
-0.148029
-0.144884
0.0146887
0.250699
0.000414019
-0.251113
0.250312
0.000387633
0.249931
0.000380338
0.249551
0.000380447
0.249167
0.000383371
0.24878
0.000387761
0.248387
0.000392892
0.247989
0.000398175
0.247585
0.000403219
0.247178
0.000407818
0.246766
0.000411874
0.24635
0.000415363
0.245932
0.000418265
0.245512
0.000420557
0.245089
0.000422115
0.244667
0.000422732
0.244245
0.000421361
0.243828
0.000417452
0.243426
0.000401806
0.000384678
0.252621
0.00102075
-0.253228
0.251979
0.00102983
0.251308
0.00105082
0.250611
0.0010777
0.249888
0.00110596
0.249142
0.00113424
0.248373
0.00116205
0.247582
0.00118892
0.246771
0.0012144
0.24594
0.00123825
0.245092
0.00126036
0.244226
0.00128069
0.243345
0.00129925
0.24245
0.00131602
0.241541
0.00133087
0.24062
0.00134359
0.239689
0.00135307
0.238747
0.00135904
0.237794
0.00135524
0.00134829
0.251366
0.00159099
-0.251936
0.250731
0.00166466
0.250043
0.00173855
0.249307
0.00181355
0.248526
0.00188731
0.247702
0.00195862
0.246837
0.00202713
0.245933
0.00209263
0.244992
0.00215487
0.244017
0.00221368
0.243008
0.00226902
0.241968
0.00232094
0.240898
0.0023695
0.239799
0.00241483
0.238673
0.00245695
0.237521
0.00249587
0.236343
0.00253108
0.235139
0.00256283
0.233905
0.00258872
0.00261294
0.247236
0.00203318
-0.247678
0.246725
0.00217634
0.246148
0.00231489
0.245511
0.00245026
0.244817
0.00258181
0.244067
0.00270872
0.243263
0.00283068
0.242408
0.0029475
0.241504
0.00305906
0.240553
0.00316527
0.239556
0.00326616
0.238515
0.00336184
0.237432
0.00345253
0.236308
0.0035385
0.235145
0.00362002
0.233943
0.00369746
0.232703
0.00377091
0.231425
0.003841
0.230107
0.003907
0.00397091
0.240973
0.00231157
-0.241252
0.240624
0.00252585
0.240205
0.00273337
0.239721
0.00293497
0.239172
0.00313061
0.238561
0.00331982
0.237889
0.00350227
0.237159
0.00367778
0.236372
0.00384621
0.235529
0.00400753
0.234634
0.00416181
0.233686
0.00430924
0.232689
0.00445016
0.231642
0.00458502
0.230548
0.00471435
0.229407
0.00483886
0.228218
0.00495914
0.226983
0.00507613
0.2257
0.00519001
0.00530242
0.233367
0.00243475
-0.23349
0.233174
0.00271946
0.232911
0.00299625
0.23258
0.00326541
0.232184
0.00352699
0.231723
0.00378067
0.231199
0.00402613
0.230614
0.00426313
0.229968
0.00449154
0.229265
0.00471131
0.228504
0.00492255
0.227688
0.00512551
0.226817
0.00532062
0.225894
0.00550851
0.224918
0.00568997
0.223891
0.00586604
0.222812
0.00603777
0.221682
0.00620654
0.220499
0.00637319
0.00653958
0.225119
0.00243313
-0.225117
0.225052
0.00278572
0.224919
0.00312964
0.224719
0.00346482
0.224455
0.00379118
0.224128
0.00410845
0.223737
0.00441629
0.223286
0.00471441
0.222775
0.00500265
0.222205
0.00528094
0.221579
0.00554939
0.220896
0.00580827
0.220158
0.00605811
0.219367
0.0062997
0.218523
0.00653408
0.217626
0.00676265
0.216677
0.00698693
0.215675
0.00720883
0.214618
0.00742987
0.00765223
0.216753
0.00234276
-0.216663
0.216779
0.0027597
0.216741
0.00316736
0.216641
0.00356547
0.216478
0.00395379
0.216255
0.00433202
0.215971
0.00469977
0.215629
0.00505671
0.215229
0.00540261
0.214772
0.00573737
0.214261
0.00606105
0.213695
0.00637396
0.213076
0.00667666
0.212406
0.00697009
0.211685
0.00725555
0.210912
0.00753479
0.21009
0.0078099
0.209215
0.00808341
0.208287
0.00835765
0.00863532
0.208617
0.00219683
-0.208471
0.208702
0.00267434
0.208728
0.00314202
0.208694
0.00359942
0.208601
0.00404621
0.208451
0.00448201
0.208245
0.00490638
0.207982
0.0053189
0.207666
0.00571927
0.207296
0.00610732
0.206874
0.00648306
0.206401
0.00684676
0.205879
0.00719901
0.205308
0.00754084
0.20469
0.00787379
0.204024
0.00819998
0.203312
0.00852215
0.202552
0.00884357
0.201742
0.00916766
0.00949797
0.20091
0.00202223
-0.200735
0.201027
0.00255675
0.201088
0.00308086
0.201094
0.00359402
0.201044
0.0040958
0.20094
0.0045857
0.200784
0.00506322
0.200575
0.00552785
0.200315
0.00597921
0.200005
0.006417
0.199647
0.00684117
0.199242
0.00725187
0.198791
0.00764969
0.198296
0.00803565
0.197759
0.00841153
0.197179
0.00877975
0.196557
0.00914383
0.195893
0.00950791
0.195184
0.00987693
0.0102557
0.193724
0.00183877
-0.193541
0.193854
0.0024272
0.19393
0.00300464
0.193954
0.00357043
0.193925
0.00412404
0.193846
0.00466488
0.193717
0.00519235
0.193539
0.00570586
0.193313
0.00620488
0.193041
0.00668901
0.192724
0.00715802
0.192364
0.00761194
0.191963
0.00805123
0.191522
0.00847683
0.191043
0.00889066
0.190527
0.00929535
0.189975
0.00969533
0.189388
0.0100956
0.188761
0.0105034
0.0109251
0.187084
0.00165983
-0.186905
0.187211
0.00229967
0.187288
0.00292792
0.187315
0.00354376
0.187292
0.00414657
0.187221
0.00473568
0.187103
0.00531037
0.186939
0.00586995
0.18673
0.00641374
0.186478
0.00694118
0.186184
0.00745185
0.185851
0.00794554
0.185479
0.00842249
0.185073
0.0088834
0.184633
0.00933022
0.184163
0.00976553
0.183664
0.0101949
0.183135
0.0106239
0.182575
0.0110632
0.0115212
0.180968
0.00149373
-0.180802
0.181085
0.00218314
0.181153
0.00286022
0.181172
0.00352404
0.181145
0.00417395
0.181071
0.00480917
0.180953
0.00542888
0.180791
0.00603224
0.180586
0.00661844
0.18034
0.00718671
0.180056
0.00773638
0.179735
0.00826691
0.179379
0.00877823
0.178992
0.00927055
0.178576
0.00974571
0.178136
0.0102057
0.177673
0.0106576
0.17719
0.0111067
0.176684
0.0115693
0.0120549
0.175336
0.00134532
-0.175188
0.175436
0.00208277
0.17549
0.00280711
0.175496
0.00351737
0.175457
0.00421275
0.175374
0.00489239
0.175248
0.00555538
0.175079
0.00620074
0.17487
0.00682749
0.174622
0.00743464
0.174337
0.00802121
0.174018
0.00858627
0.173667
0.00912929
0.173288
0.00964974
0.172884
0.0101491
0.172462
0.0106281
0.172024
0.0110955
0.171576
0.0115544
0.171115
0.012031
0.012532
0.170135
0.00121686
-0.170006
0.170216
0.00200127
0.170252
0.00277163
0.170242
0.00352702
0.170188
0.00426656
0.170092
0.00498929
0.169953
0.00569418
0.169773
0.00638014
0.169555
0.00704602
0.169299
0.00769056
0.169008
0.00831249
0.168683
0.00891037
0.16833
0.0094831
0.16795
0.0100291
0.16755
0.0105493
0.167136
0.011042
0.166714
0.011518
0.166294
0.0119741
0.165871
0.0124539
0.0129513
0.16531
0.00110915
-0.165203
0.165372
0.00193944
0.165389
0.00275477
0.165362
0.0035542
0.165292
0.00433678
0.165179
0.00510146
0.165026
0.00584712
0.164834
0.00657254
0.164604
0.0072764
0.164337
0.0079572
0.164036
0.00861333
0.163704
0.00924284
0.163343
0.00984395
0.162958
0.0104138
0.162555
0.0109523
0.162143
0.0114539
0.161729
0.0119322
0.161333
0.0123705
0.160945
0.0128417
0.0133007
0.16081
0.00102169
-0.160723
0.160853
0.00189681
0.160851
0.0027561
0.160807
0.00359853
0.160721
0.0044231
0.160593
0.00522865
0.160427
0.006014
0.160221
0.00677782
0.159979
0.00751864
0.159702
0.00823473
0.159391
0.00892416
0.159049
0.00958449
0.15868
0.0102132
0.158288
0.0108059
0.157879
0.0113613
0.157464
0.0118684
0.157053
0.0123433
0.156677
0.0127467
0.156319
0.0131994
0.0135544
0.156587
0.000952652
-0.156518
0.156612
0.00187184
0.156594
0.00277393
0.156535
0.00365821
0.156434
0.00452355
0.156294
0.00536876
0.156116
0.00619258
0.1559
0.00699362
0.155648
0.00777024
0.155362
0.00852057
0.155044
0.00924238
0.154696
0.00993282
0.15432
0.0105887
0.153922
0.0112042
0.153507
0.0117763
0.153088
0.0122873
0.152677
0.0127547
0.152322
0.0131018
0.151988
0.0135327
0.0136817
0.152599
0.000900096
-0.152547
0.152609
0.00186168
0.152578
0.00280505
0.152507
0.00372964
0.152396
0.00463414
0.152248
0.00551735
0.152062
0.006378
0.151841
0.00721461
0.151586
0.00802546
0.151298
0.00880854
0.150979
0.00956146
0.150631
0.010281
0.150256
0.0109636
0.149858
0.0116021
0.149442
0.0121923
0.14902
0.012709
0.148605
0.0131697
0.148271
0.013436
0.147979
0.0138251
0.0136309
0.148807
-0.148769
0.000862449
0.148806
0.0018624
0.148766
0.0028451
0.148688
0.00380777
0.148573
0.00474903
0.148422
0.00566782
0.148237
0.00656285
0.148019
0.00743259
0.14777
0.00827527
0.147489
0.00908878
0.14718
0.00987069
0.146844
0.0106176
0.146481
0.0113258
0.146096
0.0119872
0.145691
0.0125976
0.145274
0.0131255
0.144852
0.0135921
0.144502
0.0137862
0.144244
0.0140824
0.0129915
0.254324
7.40351e-05
-0.254398
0.254288
3.62791e-05
0.254256
3.23738e-05
0.254214
4.12387e-05
0.254159
5.56052e-05
0.254085
7.33935e-05
0.253992
9.33013e-05
0.253878
0.000114205
0.253743
0.000135292
0.253587
0.000156056
0.253411
0.000176057
0.253216
0.000195012
0.253002
0.000213399
0.25277
0.000232259
0.25252
0.000249521
0.252256
0.000264676
0.251978
0.00027731
0.251691
0.000287336
0.251402
0.000288901
0.000288881
0.256136
-0.00024073
-0.255821
0.256389
-0.000217022
0.256598
-0.000176323
0.256762
-0.000122743
0.25688
-6.27966e-05
0.256953
9.11191e-07
0.256979
6.72381e-05
0.256958
0.000135093
0.25689
0.000203556
0.256774
0.000271699
0.256612
0.000338276
0.256405
0.000402057
0.256156
0.000461826
0.25586
0.000528769
0.255519
0.000590429
0.255136
0.000647457
0.254714
0.000699774
0.254254
0.000747327
0.253757
0.000785458
0.000818382
0.251545
-0.00089569
-0.25089
0.252127
-0.000799199
0.252644
-0.000692863
0.253098
-0.000576841
0.25349
-0.000454644
0.253819
-0.000328516
0.254086
-0.000199602
0.25429
-6.93193e-05
0.254432
6.23464e-05
0.254508
0.000194868
0.254522
0.000324362
0.254474
0.000450446
0.25436
0.00057541
0.254189
0.000700058
0.253959
0.000820641
0.25367
0.000936226
0.253324
0.00104632
0.25292
0.00115083
0.252458
0.0012478
0.00134005
0.243216
-0.00182869
-0.242283
0.244077
-0.00165964
0.244867
-0.00148333
0.245589
-0.00129901
0.246243
-0.00110836
0.246828
-0.000913178
0.247343
-0.000714815
0.247788
-0.000514529
0.248163
-0.000313009
0.248466
-0.000107515
0.248696
9.38898e-05
0.248859
0.000288033
0.24895
0.000484131
0.248973
0.000677211
0.248927
0.00086623
0.248813
0.00105028
0.248631
0.0012286
0.248381
0.00140082
0.248063
0.00156589
0.00172434
0.233131
-0.00295992
-0.232
0.234194
-0.00272286
0.235189
-0.00247828
0.236116
-0.00222578
0.236974
-0.00196625
0.237762
-0.00170119
0.238479
-0.00143202
0.239125
-0.00115996
0.239698
-0.000885956
0.240201
-0.000610807
0.240633
-0.000337707
0.240989
-6.81144e-05
0.241273
0.000200071
0.241485
0.000464928
0.241625
0.000726077
0.241693
0.00098208
0.24169
0.0012322
0.241615
0.00147583
0.241469
0.00171216
0.00194112
0.222576
-0.00421726
-0.221318
0.22377
-0.00391705
0.224899
-0.00360777
0.225963
-0.00328957
0.22696
-0.00296325
0.227889
-0.00263024
0.228749
-0.0022921
0.22954
-0.00195029
0.23026
-0.00160626
0.23091
-0.00126135
0.23149
-0.000917122
0.231997
-0.00057486
0.232432
-0.000235429
0.232797
9.96193e-05
0.233092
0.000431794
0.233314
0.000759982
0.233464
0.00108148
0.233544
0.00139624
0.233553
0.0017036
0.00200335
0.212331
-0.00554331
-0.211005
0.213598
-0.00518414
0.214804
-0.0048138
0.215947
-0.00443292
0.217027
-0.00404254
0.218041
-0.00364427
0.218988
-0.00323992
0.219869
-0.00283122
0.220683
-0.00241981
0.221429
-0.00200715
0.222106
-0.00159465
0.222715
-0.00118372
0.223255
-0.000775145
0.223724
-0.000369668
0.224131
2.49895e-05
0.224466
0.000425256
0.224731
0.000815858
0.224928
0.00119916
0.225057
0.00157508
0.00194321
0.202806
-0.00689643
-0.201453
0.204104
-0.00648163
0.205343
-0.00605326
0.206523
-0.00561233
0.207641
-0.00516033
0.208695
-0.00469924
0.209687
-0.00423122
0.210614
-0.00375826
0.211476
-0.0032822
0.212274
-0.00280465
0.213006
-0.0023271
0.213673
-0.00185091
0.214275
-0.00137715
0.214812
-0.000906786
0.215279
-0.000441185
0.21569
1.35651e-05
0.21603
0.000475826
0.216306
0.000923352
0.216517
0.00136434
0.00179743
0.194161
-0.00824893
-0.192808
0.19546
-0.00778103
0.196704
-0.00729687
0.197889
-0.00679777
0.199015
-0.00628587
0.200079
-0.00576379
0.201082
-0.00523406
0.202023
-0.00469901
0.202901
-0.00416071
0.203718
-0.00362091
0.204472
-0.00308116
0.205164
-0.0025428
0.205794
-0.00200701
0.206361
-0.00147471
0.206868
-0.000947308
0.207307
-0.00042611
0.207693
9.03797e-05
0.208013
0.000602704
0.208273
0.0011049
0.00159924
0.186402
-0.00958408
-0.185067
0.187686
-0.00906505
0.188915
-0.00852658
0.190088
-0.00797036
0.191202
-0.00739954
0.192255
-0.00681753
0.193249
-0.00622742
0.194182
-0.00563188
0.195054
-0.0050332
0.195867
-0.00443328
0.196619
-0.00383369
0.197312
-0.00323574
0.197946
-0.00264059
0.19852
-0.00204919
0.199035
-0.00146255
0.199491
-0.000881579
0.199888
-0.000307014
0.200229
0.000261566
0.200511
0.00082318
0.00137532
0.179458
-0.0108932
-0.178149
0.180718
-0.0103248
0.181924
-0.00973279
0.183073
-0.00911966
0.184164
-0.00849012
0.185195
-0.00784863
0.186166
-0.00719885
0.187078
-0.00654386
0.187931
-0.00588618
0.188726
-0.00522777
0.189462
-0.00457019
0.190141
-0.00391471
0.190763
-0.00326238
0.191328
-0.00261414
0.191836
-0.00197084
0.192288
-0.00133335
0.192683
-0.00070219
0.193025
-8.02895e-05
0.19331
0.000537687
0.00114493
0.173225
-0.0121733
-0.171945
0.174457
-0.0115573
0.175637
-0.0109119
0.176758
-0.0102412
0.177821
-0.0095525
0.178823
-0.00885136
0.179767
-0.00814211
0.180651
-0.00742826
0.181477
-0.00671251
0.182246
-0.00599683
0.182959
-0.00528268
0.183615
-0.00457124
0.184216
-0.00386345
0.184762
-0.00316018
0.185254
-0.00246221
0.185691
-0.00177036
0.186074
-0.00108539
0.186403
-0.000408871
0.186681
0.000259372
0.00092113
0.167594
-0.0134253
-0.166342
0.168801
-0.0127639
0.169953
-0.0120644
0.171047
-0.0113347
0.17208
-0.0105857
0.173053
-0.00982419
0.173966
-0.0090552
0.17482
-0.00828266
0.175617
-0.00750939
0.176358
-0.00673725
0.177043
-0.00596756
0.177673
-0.00520131
0.178249
-0.00443934
0.178771
-0.0036824
0.17924
-0.00293122
0.179656
-0.0021866
0.18002
-0.00144903
0.18033
-0.000719239
0.180593
-3.99726e-06
0.000712277
0.162466
-0.0146528
-0.161239
0.163652
-0.0139495
0.164781
-0.0131938
0.165849
-0.0124027
0.166855
-0.0115915
0.167799
-0.0107681
0.168682
-0.00993852
0.169506
-0.00910701
0.170273
-0.00827637
0.170984
-0.00744823
0.17164
-0.00662367
0.172243
-0.00580345
0.172791
-0.00498823
0.173288
-0.00417865
0.173732
-0.00337534
0.174124
-0.00257906
0.174466
-0.00179046
0.174757
-0.00101085
0.174995
-0.000242039
0.000519998
0.157758
-0.0158626
-0.156548
0.15893
-0.0151215
0.160042
-0.0143058
0.161088
-0.0134493
0.16207
-0.0125728
0.162987
-0.011685
0.163841
-0.0107931
0.164636
-0.00990186
0.165373
-0.00901362
0.166055
-0.00812969
0.166682
-0.00725074
0.167256
-0.00637723
0.167777
-0.00550955
0.168247
-0.00464817
0.168665
-0.00379366
0.169032
-0.00294671
0.16935
-0.00210807
0.169618
-0.00127869
0.169836
-0.000459702
0.000349141
0.153406
-0.0170672
-0.152202
0.154575
-0.0162904
0.155677
-0.0154073
0.156707
-0.0144794
0.157666
-0.0135319
0.158556
-0.0125755
0.159382
-0.0116189
0.160147
-0.0106666
0.160854
-0.00972049
0.161505
-0.00878104
0.162103
-0.00784834
0.162648
-0.00692234
0.163141
-0.00600309
0.163584
-0.00509085
0.163977
-0.00418607
0.164319
-0.00328935
0.164613
-0.00240145
0.164857
-0.0015232
0.165053
-0.000655803
0.000199768
0.149367
-0.0182957
-0.148138
0.150548
-0.0174713
0.151645
-0.0165044
0.152661
-0.0154954
0.153597
-0.0144675
0.154457
-0.0134364
0.155251
-0.0124124
0.155983
-0.0113986
0.156657
-0.0103949
0.157277
-0.00940092
0.157845
-0.00841571
0.158361
-0.0074385
0.158827
-0.00646891
0.159243
-0.00550696
0.15961
-0.00455296
0.159928
-0.00360748
0.160198
-0.00267126
0.16042
-0.00174519
0.160594
-0.000830244
7.12081e-05
0.145609
-0.0196124
-0.144293
0.146824
-0.018686
0.147917
-0.0175978
0.148914
-0.0164918
0.149818
-0.0153714
0.150641
-0.0142594
0.151396
-0.0131674
0.15209
-0.0120933
0.15273
-0.0110342
0.153317
-0.00998799
0.153854
-0.00895242
0.154341
-0.00792592
0.15478
-0.00690762
0.15517
-0.00589736
0.155512
-0.00489538
0.155807
-0.00390224
0.156055
-0.00291872
0.156255
-0.00194588
0.15641
-0.000984704
-3.7143e-05
0.142149
-0.0210871
-0.140675
0.143395
-0.0199316
0.144466
-0.0186692
0.145421
-0.0174464
0.146276
-0.0162269
0.147051
-0.0150341
0.147761
-0.013877
0.148415
-0.0127472
0.149018
-0.0116372
0.149572
-0.0105423
0.150079
-0.00945932
0.150539
-0.0083858
0.150952
-0.00732064
0.151318
-0.00626359
0.151637
-0.00521494
0.151911
-0.00417534
0.152137
-0.00314562
0.152319
-0.00212698
0.152455
-0.00112091
-0.000128961
0.139056
-0.137641
-0.0225015
0.140215
-0.0210904
0.141246
-0.0197005
0.142121
-0.0183217
0.142909
-0.0170148
0.143632
-0.0157566
0.144296
-0.0145412
0.14491
-0.0133611
0.145478
-0.0122055
0.146002
-0.0110661
0.146481
-0.00993837
0.146915
-0.00881987
0.147304
-0.00770945
0.147647
-0.00660699
0.147945
-0.00551298
0.148198
-0.00442821
0.148406
-0.00335365
0.148569
-0.00229032
0.148688
-0.0012398
-0.000209532
0.0307136
0.111906
-0.110427
-0.0321923
0.029208
0.114918
-0.113412
0.0276725
0.118063
-0.116528
0.0261037
0.121365
-0.119796
0.0244982
0.124856
-0.12325
0.0228533
0.128577
-0.126932
0.0211668
0.132587
-0.130901
0.0194373
0.136966
-0.135236
0.0176642
0.141816
-0.140043
0.0158478
0.147268
-0.145452
0.0139897
0.153483
-0.151625
0.0120942
0.160647
-0.158752
0.0101701
0.16896
-0.167036
0.0082342
0.17861
-0.176674
0.00631614
0.189718
-0.1878
0.00446594
0.20225
-0.2004
0.00276314
0.21587
-0.214168
0.00132788
0.229726
-0.228291
0.000328941
0.242042
-0.241043
0.249697
-0.249368
0.0305279
0.113377
-0.0319992
0.0290296
0.116416
0.0275017
0.119591
0.0259407
0.122926
0.0243433
0.126453
0.0227065
0.130214
0.0210281
0.134266
0.0193067
0.138687
0.0175413
0.143581
0.0157322
0.149077
0.0138815
0.155334
0.0119935
0.162535
0.0100777
0.170876
0.00815151
0.180536
0.00624595
0.191624
0.00441247
0.204084
0.00273208
0.217551
0.00132436
0.231134
0.00035276
0.243014
0.250049
0.0303002
0.114839
-0.031762
0.0288115
0.117905
0.0272934
0.121109
0.0257425
0.124477
0.0241552
0.12804
0.0225288
0.13184
0.0208607
0.135934
0.0191495
0.140399
0.0173941
0.145337
0.015595
0.150876
0.0137539
0.157175
0.0118759
0.164413
0.00997075
0.172781
0.00805678
0.18245
0.00616586
0.193515
0.00435053
0.205899
0.00269229
0.219209
0.0013091
0.232517
0.000355893
0.243967
0.250405
0.0300324
0.116289
-0.0314825
0.0285554
0.119382
0.0270493
0.122615
0.0255104
0.126016
0.0239353
0.129615
0.0223212
0.133454
0.0206656
0.137589
0.0189666
0.142098
0.0172235
0.14708
0.0154364
0.152664
0.0136073
0.159004
0.0117415
0.166279
0.00984932
0.174673
0.00794969
0.184349
0.00607531
0.195389
0.00427945
0.207695
0.00264376
0.220845
0.00128455
0.233876
0.00035089
0.244901
0.250756
0.0297265
0.117726
-0.0311631
0.0282632
0.120845
0.0267709
0.124108
0.0252459
0.127541
0.0236849
0.131176
0.0220849
0.135054
0.0204435
0.139231
0.0187589
0.143782
0.0170299
0.148809
0.0152568
0.154437
0.0134419
0.160819
0.0115905
0.16813
0.00971341
0.17655
0.00783023
0.186233
0.0059744
0.197245
0.00419984
0.20947
0.00258825
0.222456
0.00125428
0.23521
0.000342034
0.245813
0.251098
0.0293852
0.119147
-0.0308067
0.0279371
0.122293
0.0264601
0.125585
0.0249506
0.12905
0.0234053
0.132722
0.0218211
0.136638
0.0201956
0.140856
0.0185269
0.145451
0.0168139
0.150522
0.0150569
0.156194
0.0132581
0.162618
0.0114231
0.169965
0.00956322
0.17841
0.00769862
0.188097
0.00586349
0.19908
0.00411232
0.211221
0.00252676
0.224042
0.00121967
0.236517
0.000330493
0.246702
0.251429
0.0290113
0.120552
-0.0304166
0.0275795
0.123725
0.0261191
0.127045
0.0246263
0.130543
0.0230979
0.13425
0.0215309
0.138205
0.0199228
0.142464
0.0182716
0.147102
0.0165763
0.152217
0.014837
0.157933
0.0130562
0.164399
0.0112397
0.171782
0.00939905
0.180251
0.00755517
0.189941
0.00574289
0.200892
0.00401726
0.212946
0.0024597
0.225599
0.00118127
0.237796
0.000316973
0.247566
0.251746
0.0286075
0.121941
-0.029996
0.0271928
0.12514
0.0257497
0.128488
0.0242746
0.132018
0.0227641
0.13576
0.0212154
0.139754
0.0196259
0.144054
0.0179937
0.148734
0.0163175
0.153893
0.0145977
0.159653
0.0128366
0.16616
0.0110405
0.173578
0.00922118
0.18207
0.00740014
0.191762
0.00561289
0.20268
0.00391493
0.214644
0.00238744
0.227127
0.0011396
0.239043
0.000302076
0.248404
0.252048
0.0281768
0.123313
-0.0295485
0.0267793
0.126537
0.0253539
0.129914
0.023897
0.133475
0.0224052
0.137252
0.0208756
0.141284
0.0193058
0.145624
0.0176937
0.150347
0.0160381
0.155549
0.0143393
0.161352
0.0125998
0.167899
0.0108258
0.175352
0.00902985
0.183866
0.00723378
0.193558
0.00547373
0.20444
0.00380565
0.216312
0.00231035
0.228622
0.00109513
0.240259
0.000286219
0.249213
0.252334
0.0277219
0.124668
-0.0290776
0.0263411
0.127918
0.0249333
0.131321
0.0234947
0.134914
0.0220219
0.138725
0.0205122
0.142793
0.0189629
0.147173
0.0173721
0.151937
0.0157384
0.157183
0.0140621
0.163028
0.0123457
0.169616
0.0105959
0.177102
0.00882527
0.185637
0.00705629
0.195327
0.00532568
0.20617
0.0036897
0.217948
0.00222879
0.230083
0.00104824
0.241439
0.000269648
0.249991
0.252604
0.0272452
0.126009
-0.0285863
0.0258801
0.129283
0.0244891
0.132712
0.0230685
0.136334
0.0216149
0.140179
0.0201254
0.144283
0.0185975
0.148701
0.0170289
0.153506
0.0154184
0.158793
0.0137661
0.16468
0.0120747
0.171307
0.0103508
0.178826
0.00860758
0.18738
0.00686788
0.197067
0.00516894
0.207869
0.00356736
0.21955
0.00214304
0.231507
0.000999191
0.242583
0.000252521
0.250738
0.252856
0.0267483
0.127339
-0.0280774
0.0253969
0.130635
0.0240215
0.134088
0.0226183
0.137737
0.0211839
0.141613
0.0197151
0.145752
0.0182093
0.150207
0.0166641
0.155051
0.0150781
0.160379
0.0134514
0.166307
0.0117866