/*--------------------------------*- C++ -*----------------------------------*\
  =========                 |
  \\      /  F ield         | OpenFOAM: The Open Source CFD Toolbox
   \\    /   O peration     | Website:  https://openfoam.org
    \\  /    A nd           | Version:  6.0
     \\/     M anipulation  |
\*---------------------------------------------------------------------------*/
FoamFile
{
    version     2.0;
    format      ascii;
    class       volVectorField;
    location    "17.25";
    object      U;
}
// * * * * * * * * * * * * * * * * * * * * * * * * * * * * * * * * * * * * * //

dimensions      [0 1 -1 0 0 0 0];

internalField   nonuniform List<vector> 
9600
(
(1.5623 -18.8889 -6.27787e-20)
(0.326319 -17.9821 -7.26812e-20)
(0.37629 -17.31 1.24292e-20)
(0.514795 -16.7155 -5.00522e-20)
(0.56728 -16.1542 2.37423e-20)
(0.608111 -15.5984 -2.00158e-20)
(0.64657 -15.0439 -4.2129e-20)
(0.678453 -14.4971 4.17178e-20)
(0.704329 -13.9657 1.54572e-20)
(0.725807 -13.4555 -2.32462e-19)
(0.744011 -12.97 1.31395e-19)
(0.759735 -12.511 -1.16896e-19)
(0.773574 -12.0784 -5.38517e-20)
(0.785957 -11.6715 7.52622e-20)
(0.797205 -11.289 -5.00758e-20)
(0.807518 -10.9294 -2.70589e-20)
(0.81696 -10.5909 5.42658e-20)
(0.826129 -10.2713 -6.04756e-20)
(0.8371 -9.96721 -1.60667e-20)
(0.845954 -9.67409 -3.40021e-20)
(2.30349 -18.8324 -6.86752e-19)
(1.03669 -18.0034 -3.92152e-19)
(1.06076 -17.3445 1.93225e-19)
(1.17508 -16.7501 -2.64973e-19)
(1.20432 -16.187 6.44716e-20)
(1.22196 -15.6273 -7.96413e-20)
(1.23726 -15.0682 3.47139e-19)
(1.24636 -14.517 -4.79034e-21)
(1.2502 -13.9819 -2.2925e-19)
(1.25063 -13.4688 3.04585e-19)
(1.24891 -12.9812 1.58953e-19)
(1.24588 -12.5206 -1.09054e-20)
(1.24211 -12.0868 2.02162e-19)
(1.23797 -11.679 -1.03677e-20)
(1.23372 -11.2959 8.2911e-20)
(1.22946 -10.9358 2.20525e-19)
(1.22516 -10.5972 -2.98979e-19)
(1.22143 -10.2776 1.29598e-19)
(1.22052 -9.97373 -6.40932e-20)
(1.21757 -9.68113 1.33409e-19)
(3.04434 -18.7482 1.11464e-18)
(1.74873 -17.9968 8.29108e-19)
(1.74787 -17.3513 -1.21944e-18)
(1.83823 -16.7576 -5.98196e-19)
(1.84405 -16.1935 4.82941e-19)
(1.83816 -15.6308 8.87722e-19)
(1.82991 -15.0678 -1.09451e-18)
(1.81588 -14.5132 2.87056e-19)
(1.79739 -13.9754 -5.33642e-19)
(1.77655 -13.4604 -3.8215e-19)
(1.75474 -12.9715 3.45806e-19)
(1.73284 -12.5102 -1.91202e-19)
(1.71137 -12.076 -5.44574e-19)
(1.69065 -11.6681 2.99424e-19)
(1.67085 -11.285 -9.75736e-20)
(1.65199 -10.9251 -1.18056e-20)
(1.63394 -10.5868 9.41031e-20)
(1.61734 -10.2678 2.1863e-19)
(1.60458 -9.96455 -3.00003e-19)
(1.58962 -9.67306 2.53254e-19)
(3.7811 -18.6353 -6.13966e-19)
(2.46098 -17.9619 3.01979e-19)
(2.43629 -17.3303 4.0608e-19)
(2.50295 -16.738 6.00769e-19)
(2.48528 -16.1736 -1.89043e-19)
(2.45556 -15.6086 1.95447e-19)
(2.42342 -15.0428 -1.33514e-19)
(2.38596 -14.4857 3.16214e-19)
(2.34489 -13.9462 7.4011e-19)
(2.3026 -13.4302 -4.39134e-19)
(2.26059 -12.941 -2.73785e-19)
(2.21973 -12.4798 -3.14409e-19)
(2.18053 -12.046 -1.19177e-19)
(2.14321 -11.6387 2.70405e-19)
(2.10786 -11.2562 -1.71174e-19)
(2.0744 -10.8971 -5.90961e-19)
(2.04263 -10.5597 4.61479e-19)
(2.01323 -10.2417 -6.16003e-19)
(1.98869 -9.93968 -3.67051e-20)
(1.9616 -9.64993 -3.09539e-20)
(4.51414 -18.494 -7.83889e-19)
(3.17301 -17.8991 -1.47554e-18)
(3.12519 -17.2815 1.76548e-18)
(3.16819 -16.691 -4.93476e-19)
(3.12689 -16.1269 -1.49934e-18)
(3.07307 -15.5606 -3.31789e-20)
(3.01673 -14.9929 -5.83501e-19)
(2.95556 -14.4344 -1.67839e-19)
(2.89173 -13.8942 -4.60002e-19)
(2.82786 -13.3782 1.10082e-18)
(2.76556 -12.8896 -1.52766e-18)
(2.70572 -12.4293 3.94892e-19)
(2.64877 -11.9968 -6.76478e-19)
(2.59486 -11.5908 9.26542e-19)
(2.54399 -11.2096 -8.68412e-19)
(2.49598 -10.8518 4.68369e-19)
(2.45055 -10.5158 -2.77713e-19)
(2.40844 -10.1995 -1.02397e-20)
(2.37223 -9.89913 3.05509e-19)
(2.33294 -9.6118 -3.47991e-20)
(5.24171 -18.3242 2.17941e-19)
(3.88347 -17.8078 1.38603e-18)
(3.81336 -17.2047 9.14634e-19)
(3.83276 -16.6166 -6.32884e-19)
(3.76771 -16.0536 1.65158e-18)
(3.68953 -15.4867 2.62578e-19)
(3.60872 -14.9182 1.53761e-20)
(3.52363 -14.3593 -7.70947e-19)
(3.43688 -13.8194 1.52294e-19)
(3.35134 -13.3044 1.06964e-18)
(3.26872 -12.8173 -5.16339e-19)
(3.1899 -12.3588 9.74285e-19)
(3.11524 -11.9283 -2.54133e-19)
(3.0448 -11.5243 -2.26044e-19)
(2.97846 -11.1452 4.98096e-19)
(2.91597 -10.7894 5.55198e-19)
(2.85696 -10.4554 -3.07065e-19)
(2.8023 -10.1412 6.21957e-19)
(2.75455 -9.84298 -6.89477e-19)
(2.70303 -9.55878 9.06017e-19)
(5.963 -18.1259 1.83129e-18)
(4.59142 -17.6882 -2.38257e-18)
(4.49974 -17.0997 -2.1126e-18)
(4.49554 -16.5145 2.26292e-18)
(4.40658 -15.9533 -7.60607e-19)
(4.30382 -15.3869 -1.15436e-18)
(4.19831 -14.8185 1.08777e-18)
(4.08912 -14.2603 6.03723e-20)
(3.97934 -13.7218 3.93158e-19)
(3.87209 -13.2088 -1.27193e-18)
(3.76916 -12.7241 6.51523e-19)
(3.6714 -12.2684 -5.39417e-19)
(3.57909 -11.8407 1.53832e-18)
(3.49219 -11.4395 -8.4904e-19)
(3.41048 -11.0631 5.95729e-20)
(3.33361 -10.7099 -1.2197e-19)
(3.26115 -10.3785 -1.20898e-19)
(3.19408 -10.0668 6.4063e-19)
(3.13497 -9.77136 4.92456e-20)
(3.07125 -9.49102 -1.57671e-19)
(6.67673 -17.8993 -2.65295e-18)
(5.29557 -17.54 1.58402e-18)
(5.1831 -16.9665 3.33878e-19)
(5.15534 -16.3848 -5.7347e-20)
(5.04233 -15.8262 -9.55777e-21)
(4.91478 -15.2612 8.02399e-19)
(4.78438 -14.694 -2.13513e-18)
(4.65095 -14.1375 -2.37589e-19)
(4.51808 -13.6014 -4.64728e-19)
(4.38912 -13.0914 5.82702e-19)
(4.26592 -12.6102 3.36983e-20)
(4.1493 -12.1581 6.01097e-19)
(4.03945 -11.734 -4.24006e-20)
(3.9362 -11.3364 -1.45046e-18)
(3.83924 -10.9634 -3.35651e-19)
(3.7481 -10.6134 1.31906e-18)
(3.66234 -10.2852 -4.95418e-19)
(3.58305 -9.97668 -1.23505e-19)
(3.51277 -9.68443 2.77308e-19)
(3.43693 -9.40874 9.42825e-20)
(7.38185 -17.6446 1.68731e-18)
(5.99481 -17.3633 -1.73953e-18)
(5.86228 -16.805 -2.62122e-18)
(5.81096 -16.2274 -3.71449e-19)
(5.6738 -15.6723 -1.15432e-18)
(5.52128 -15.1096 -3.59956e-19)
(5.36582 -14.5446 -1.17097e-18)
(5.20806 -13.991 2.14893e-18)
(5.05209 -13.4584 -9.23342e-19)
(4.90145 -12.9524 -4.63459e-19)
(4.75807 -12.4756 -2.07878e-19)
(4.6227 -12.0279 6.44349e-19)
(4.49542 -11.6084 -6.08838e-21)
(4.37596 -11.2151 -2.21381e-19)
(4.26388 -10.8462 -4.82986e-19)
(4.15863 -10.5001 -5.80611e-19)
(4.05971 -10.1757 8.29229e-19)
(3.96841 -9.8709 3.42252e-19)
(3.88717 -9.58241 -1.36825e-18)
(3.79935 -9.31219 1.10981e-18)
(8.07717 -17.362 -1.70214e-18)
(6.68789 -17.1581 4.07177e-18)
(6.53604 -16.6153 -3.09474e-18)
(6.4612 -16.0424 1.94814e-18)
(6.29978 -15.4915 2.49039e-18)
(6.12215 -14.9322 -8.91261e-19)
(5.94153 -14.3705 1.64956e-20)
(5.7594 -13.8208 2.33508e-19)
(5.58033 -13.2928 9.242e-19)
(5.4081 -12.7919 -9.44732e-19)
(5.24465 -12.3204 -5.85456e-19)
(5.09066 -11.8782 6.32201e-19)
(4.9461 -11.4639 -3.24925e-20)
(4.81058 -11.0757 1.04325e-19)
(4.68354 -10.7117 1.20213e-18)
(4.56432 -10.3703 -6.10664e-19)
(4.45242 -10.0503 1.14044e-19)
(4.34931 -9.7497 -7.5082e-19)
(4.25732 -9.46553 2.01525e-18)
(4.15768 -9.20166 -1.30337e-18)
(8.76161 -17.0517 2.45135e-18)
(7.37365 -16.9246 5.37343e-19)
(7.20317 -16.3975 1.21312e-18)
(7.10485 -15.8299 -1.32402e-18)
(6.91911 -15.284 3.13122e-19)
(6.71626 -14.7291 2.65796e-18)
(6.5104 -14.1718 -4.25062e-19)
(6.30389 -13.6272 1.98106e-18)
(6.1018 -13.1048 -1.30188e-18)
(5.90808 -12.61 7.58656e-19)
(5.72469 -12.1448 1.75021e-18)
(5.55225 -11.7089 -5.302e-19)
(5.39058 -11.3008 8.8595e-19)
(5.23916 -10.9186 -2.3691e-19)
(5.09732 -10.5602 -1.19358e-18)
(4.9643 -10.224 1.68554e-18)
(4.83959 -9.90905 -4.59343e-19)
(4.72487 -9.61333 1.70247e-18)
(4.62231 -9.33406 2.07687e-19)
(4.51101 -9.0774 -2.31721e-18)
(9.43407 -16.7142 -7.42266e-18)
(8.05087 -16.6629 1.32107e-18)
(7.86247 -16.1516 -1.00334e-18)
(7.74072 -15.59 -3.30932e-18)
(7.5306 -15.0501 -5.92887e-19)
(7.30247 -14.5005 -6.41321e-19)
(7.07134 -13.9488 -2.06398e-19)
(6.8405 -13.4102 -1.36598e-18)
(6.61547 -12.8947 -7.34666e-19)
(6.40041 -12.407 -1.63899e-19)
(6.19725 -11.949 -4.57279e-19)
(6.00651 -11.5203 7.71586e-19)
(5.82792 -11.1192 4.97094e-19)
(5.66079 -10.7437 -2.52431e-18)
(5.50433 -10.3917 1.06104e-18)
(5.35768 -10.0616 -1.15659e-18)
(5.22034 -9.75239 -7.24244e-19)
(5.0942 -9.4621 6.28151e-19)
(4.98125 -9.1883 3.39846e-19)
(4.85856 -8.93965 -7.09289e-19)
(10.0935 -16.3499 9.46336e-18)
(8.71842 -16.3733 4.61989e-18)
(8.51274 -15.878 2.22934e-18)
(8.36763 -15.3229 2.21958e-18)
(8.13312 -14.7898 -1.01937e-18)
(7.87966 -14.2466 5.65349e-18)
(7.62328 -13.7015 -2.50987e-18)
(7.36819 -13.1703 4.87499e-18)
(7.12036 -12.6625 -1.89825e-18)
(6.88411 -12.1829 3.47697e-18)
(6.66136 -11.7331 1.6599e-18)
(6.45251 -11.3125 1.01586e-18)
(6.25714 -10.9193 -2.51486e-18)
(6.07446 -10.5514 2.20214e-18)
(5.90355 -10.2065 -5.34425e-19)
(5.74346 -9.8833 1.70957e-18)
(5.5937 -9.58058 4.51684e-19)
(5.4564 -9.2964 2.04717e-18)
(5.33336 -9.02866 -4.59523e-19)
(5.19969 -8.78887 -3.51074e-20)
(10.7388 -15.9591 -4.89337e-18)
(9.37512 -16.0561 2.61848e-18)
(9.15278 -15.5769 5.11105e-19)
(8.98441 -15.029 -3.89072e-18)
(8.72553 -14.5035 -2.72191e-19)
(8.44675 -13.9678 -7.05047e-20)
(8.16519 -13.4304 8.49496e-19)
(7.88596 -12.9075 -1.2681e-18)
(7.61552 -12.4086 4.61955e-19)
(7.35827 -11.9381 6.02551e-19)
(7.11611 -11.4973 -9.83803e-19)
(6.88931 -11.0857 -6.95278e-19)
(6.67731 -10.7012 3.85283e-19)
(6.47918 -10.3416 -7.13079e-19)
(6.29388 -10.0048 2.20321e-18)
(6.12042 -9.68916 -2.34066e-18)
(5.95839 -9.39376 -1.49802e-18)
(5.8102 -9.11643 2.16184e-18)
(5.67744 -8.85555 -8.30667e-19)
(5.53327 -8.62601 -1.15078e-18)
(11.3691 -15.5425 -2.49961e-18)
(10.0198 -15.7116 -2.92818e-18)
(9.78142 -15.2486 -7.59708e-19)
(9.58991 -14.7085 4.01429e-18)
(9.30671 -14.1916 -1.79109e-18)
(9.00268 -13.6643 1.77648e-19)
(8.69603 -13.1358 -4.78976e-18)
(8.39286 -12.6223 7.1592e-19)
(8.10001 -12.1332 -1.12983e-18)
(7.822 -11.6727 9.5541e-19)
(7.56065 -11.2419 -2.2315e-18)
(7.31609 -10.84 9.75929e-19)
(7.0876 -10.4649 -1.43953e-18)
(6.87407 -10.1145 8.97755e-19)
(6.67438 -9.78637 6.00528e-19)
(6.48744 -9.47917 -5.81263e-19)
(6.31299 -9.19182 -2.61174e-18)
(6.15381 -8.92211 1.46396e-18)
(6.01118 -8.66922 -6.3133e-19)
(5.85643 -8.45195 2.77135e-19)
(11.9833 -15.1004 9.20719e-18)
(10.6515 -15.3403 -1.90155e-18)
(10.3975 -14.8935 -2.71203e-18)
(10.183 -14.3619 1.14755e-18)
(9.87559 -13.8543 1.64183e-18)
(9.54639 -13.3366 -2.36549e-18)
(9.21482 -12.8179 1.57237e-18)
(8.88791 -12.3148 -2.19107e-18)
(8.57291 -11.8365 2.81638e-18)
(8.27439 -11.3869 -2.99066e-18)
(7.99409 -10.9669 1.38493e-18)
(7.73199 -10.5756 -2.33567e-19)
(7.48719 -10.2107 -2.2183e-19)
(7.25844 -9.87014 -1.62004e-18)
(7.04443 -9.55155 2.54318e-18)
(6.84394 -9.2535 -5.65244e-20)
(6.65678 -8.97494 -2.05118e-19)
(6.486 -8.71365 -4.44017e-20)
(6.33236 -8.46988 -9.04942e-20)
(6.16605 -8.26574 -8.39864e-19)
(12.5811 -14.6339 -7.56479e-18)
(11.2692 -14.9428 -1.14737e-18)
(10.9999 -14.5122 -1.44677e-18)
(10.7625 -13.9895 -8.61876e-18)
(10.4311 -13.4922 -4.57858e-18)
(10.0769 -12.9849 5.36604e-18)
(9.72059 -12.4771 -1.91396e-18)
(9.37022 -11.9855 9.91517e-19)
(9.03335 -11.5189 1.52324e-18)
(8.71459 -11.081 4.07845e-19)
(8.41554 -10.6726 1.03672e-18)
(8.13604 -10.2924 -4.98798e-19)
(7.87504 -9.93857 1.4443e-18)
(7.6312 -9.60862 -1.22458e-18)
(7.40309 -9.30043 4.64765e-19)
(7.18937 -9.01259 -3.35199e-18)
(6.9898 -8.74402 2.21319e-18)
(6.80742 -8.49222 1.43719e-18)
(6.6423 -8.25795 -8.15865e-19)
(6.46449 -8.06539 -8.39702e-19)
(13.1623 -14.1443 3.43527e-18)
(11.8725 -14.5196 2.97093e-18)
(11.5879 -14.1049 2.45708e-18)
(11.3275 -13.5918 7.69932e-18)
(10.9721 -13.1055 -7.21847e-18)
(10.5932 -12.6097 1.9308e-18)
(10.2125 -12.1139 -3.99629e-21)
(9.83898 -11.6347 -2.05198e-18)
(9.48061 -11.1806 2.05711e-18)
(9.1419 -10.7552 -5.32612e-19)
(8.82428 -10.3588 -6.44831e-19)
(8.52738 -9.9904 -3.24716e-19)
(8.24999 -9.64796 7.1689e-19)
(7.99066 -9.32922 2.42757e-20)
(7.74798 -9.03228 -1.22799e-18)
(7.52079 -8.75594 -1.46842e-18)
(7.30929 -8.49896 1.01407e-18)
(7.117 -8.25803 6.95078e-19)
(6.94333 -8.03427 -1.41074e-18)
(6.75785 -7.85654 3.49781e-19)
(13.7268 -13.632 -4.59584e-19)
(12.4609 -14.0707 -6.41477e-18)
(12.1605 -13.6719 -5.96638e-19)
(11.8769 -13.1693 -1.0986e-19)
(11.4979 -12.6951 1.32631e-18)
(11.0944 -12.2119 4.60807e-18)
(10.6897 -11.729 -1.33485e-18)
(10.2936 -11.2631 -2.09453e-18)
(9.91422 -10.8223 2.01296e-19)
(9.556 -10.4098 9.08021e-19)
(9.22014 -10.0259 -8.51432e-19)
(8.90595 -9.66938 -9.42481e-19)
(8.61186 -9.33832 -2.60103e-19)
(8.33612 -9.03067 7.92465e-19)
(8.07708 -8.7449 5.92882e-19)
(7.83368 -8.48015 2.54505e-18)
(7.60723 -8.23493 6.22286e-19)
(7.40303 -8.00584 -7.88807e-19)
(7.22059 -7.79888 8.58589e-19)
(7.02881 -7.65603 1.37812e-18)
(14.2723 -13.0953 2.41786e-18)
(13.0329 -13.5955 6.22241e-18)
(12.7169 -13.2136 8.85893e-19)
(12.41 -12.7229 -6.20787e-19)
(12.0074 -12.2619 4.23616e-18)
(11.58 -11.7923 -1.1706e-18)
(11.1518 -11.3234 -1.41452e-18)
(10.7337 -10.8715 3.64584e-18)
(10.3339 -10.4447 -2.28271e-18)
(9.95682 -10.0456 1.08743e-18)
(9.60335 -9.6744 -1.65698e-19)
(9.27245 -9.32975 -2.83758e-19)
(8.9621 -9.00966 -1.22401e-18)
(8.66996 -8.71219 3.10595e-18)
(8.39356 -8.43593 -3.70105e-18)
(8.13094 -8.18005 1.76546e-18)
(7.88262 -7.94309 -5.24114e-19)
(7.65276 -7.72472 -1.26932e-19)
(7.43818 -7.54336 1.65905e-18)
(7.21584 -7.44916 -2.88869e-18)
(19.6736 0.8491 4.28862e-19)
(19.6727 0.0730459 -1.3688e-19)
(19.6409 -0.700535 -7.31198e-19)
(19.5801 -1.47083 1.97091e-18)
(19.4902 -2.23704 -2.20569e-18)
(19.3709 -2.99819 -1.00035e-18)
(19.2221 -3.75317 7.71248e-19)
(19.0441 -4.50091 1.08119e-18)
(18.8372 -5.24034 -8.17409e-19)
(18.6017 -5.9704 8.16497e-19)
(18.3382 -6.69002 -2.61814e-20)
(18.0471 -7.39815 3.93695e-20)
(17.7288 -8.09377 -5.66802e-19)
(17.384 -8.77583 2.59812e-18)
(17.013 -9.44339 -2.58942e-18)
(16.6169 -10.0954 1.79619e-18)
(16.1956 -10.7311 -2.52035e-18)
(15.751 -11.3494 -2.02859e-18)
(15.2816 -11.9504 -4.52928e-19)
(14.7925 -12.5315 1.88221e-19)
(19.4026 -0.40559 -8.40821e-20)
(19.3486 -1.16734 -4.8659e-19)
(19.2632 -1.9243 9.48618e-19)
(19.1478 -2.67548 1.52766e-18)
(19.0027 -3.42014 -4.06505e-19)
(18.828 -4.15732 -2.05259e-18)
(18.6241 -4.88589 3.67751e-18)
(18.3915 -5.60471 -7.5828e-19)
(18.1306 -6.31266 -4.25351e-18)
(17.8422 -7.00867 2.04056e-18)
(17.5268 -7.69168 6.97807e-19)
(17.185 -8.36066 3.88153e-18)
(16.8175 -9.0146 -7.36363e-18)
(16.425 -9.65251 9.98478e-20)
(16.0082 -10.2735 1.8669e-18)
(15.568 -10.8766 2.97993e-18)
(15.1047 -11.461 5.1303e-18)
(14.6198 -12.0259 -1.8664e-18)
(14.1126 -12.5707 -4.15444e-18)
(13.5846 -13.0944 4.15043e-18)
(18.9153 -0.389334 2.88801e-19)
(18.8688 -1.12879 -3.4193e-19)
(18.7914 -1.86464 2.33666e-19)
(18.6837 -2.59564 -6.96236e-19)
(18.546 -3.32077 8.80968e-19)
(18.3786 -4.03893 2.1688e-18)
(18.1821 -4.74891 -2.3361e-18)
(17.957 -5.4495 3.66205e-19)
(17.7037 -6.13953 1.54693e-18)
(17.423 -6.81787 3.24374e-18)
(17.1154 -7.48342 -7.63865e-19)
(16.7816 -8.13512 5.46357e-18)
(16.4223 -8.77191 2.8021e-19)
(16.0383 -9.39277 -5.89278e-18)
(15.6302 -9.99674 -7.97259e-19)
(15.199 -10.5829 -1.55755e-18)
(14.7452 -11.1504 -3.30872e-18)
(14.2697 -11.6981 -1.58901e-18)
(13.7727 -12.2254 -2.85255e-18)
(13.2552 -12.731 3.12197e-18)
(18.2511 -0.291426 -5.80471e-20)
(18.2173 -1.00232 1.58682e-19)
(18.1536 -1.71096 -2.18623e-19)
(18.0603 -2.41601 -1.21467e-18)
(17.9376 -3.11619 -5.47679e-19)
(17.7859 -3.81033 -6.97164e-19)
(17.6055 -4.49721 2.49375e-18)
(17.3971 -5.17561 -6.18516e-20)
(17.161 -5.84436 -2.43298e-18)
(16.8979 -6.5023 6.7896e-20)
(16.6083 -7.14832 -1.41292e-18)
(16.2929 -7.78133 3.54832e-19)
(15.9523 -8.40026 -7.21391e-18)
(15.5873 -9.00405 3.63247e-18)
(15.1987 -9.59174 -2.16211e-18)
(14.787 -10.1623 -6.69386e-19)
(14.353 -10.7147 -8.43999e-18)
(13.8977 -11.2481 8.20445e-18)
(13.4215 -11.7613 -3.91906e-18)
(12.9255 -12.2534 -2.46558e-18)
(17.5205 -0.280406 2.72405e-20)
(17.4945 -0.96064 -3.76597e-19)
(17.44 -1.63944 5.49433e-19)
(17.357 -2.31547 6.88956e-19)
(17.2457 -2.98747 -8.13665e-19)
(17.1064 -3.6542 2.61019e-18)
(16.9395 -4.31449 -8.43271e-19)
(16.7453 -4.96718 -1.18893e-20)
(16.5244 -5.61111 -1.24451e-18)
(16.2772 -6.24515 2.67795e-18)
(16.0043 -6.86818 1.96289e-18)
(15.7062 -7.47914 1.15558e-18)
(15.3837 -8.07694 7.24556e-19)
(15.0373 -8.66054 -2.07377e-18)
(14.6679 -9.22895 1.50513e-18)
(14.276 -9.78108 5.25761e-18)
(13.8625 -10.3159 5.49492e-18)
(13.4281 -10.8325 -3.92497e-18)
(12.9736 -11.3298 1.35518e-18)
(12.4998 -11.8067 -4.09465e-19)
(16.7858 -0.276866 6.77769e-20)
(16.765 -0.926564 -9.11691e-20)
(16.717 -1.57531 -4.85147e-19)
(16.6419 -2.22187 2.16156e-19)
(16.5398 -2.86501 -2.49065e-21)
(16.4108 -3.50357 1.51329e-19)
(16.2553 -4.13639 -1.26541e-18)
(16.0737 -4.76238 9.43615e-19)
(15.8664 -5.38041 -1.90418e-18)
(15.6338 -5.98939 2.02392e-18)
(15.3764 -6.58826 -2.83659e-19)
(15.0948 -7.17595 1.04644e-18)
(14.7896 -7.75141 -3.01894e-18)
(14.4614 -8.31366 -1.26952e-18)
(14.1109 -8.86164 3.34619e-18)
(13.7387 -9.39428 -2.43028e-18)
(13.3457 -9.91065 -3.5466e-18)
(12.9326 -10.4097 1.81014e-18)
(12.5001 -10.8904 -1.2007e-18)
(12.049 -11.3516 3.64093e-18)
(16.0818 -0.270127 -4.87585e-20)
(16.0641 -0.890665 2.28046e-19)
(16.0206 -1.51054 1.47831e-19)
(15.9512 -2.12862 -1.75899e-19)
(15.8561 -2.74373 7.4218e-19)
(15.7354 -3.35478 -2.08138e-18)
(15.5893 -3.96066 1.19489e-18)
(15.4183 -4.56031 -9.03237e-19)
(15.2227 -5.15268 3.27009e-20)
(15.0028 -5.73673 -1.39806e-18)
(14.7593 -6.31143 2.13767e-18)
(14.4925 -6.87577 5.3074e-18)
(14.203 -7.42876 -5.19598e-18)
(13.8915 -7.96941 -3.87855e-18)
(13.5586 -8.49669 -2.27027e-18)
(13.2049 -9.0096 1.61413e-18)
(12.8313 -9.50719 -1.81874e-18)
(12.4385 -9.98839 9.76824e-22)
(12.0272 -10.4522 4.10449e-18)
(11.598 -10.8975 -3.14952e-20)
(15.425 -0.264141 -2.39122e-20)
(15.4088 -0.857532 1.59142e-19)
(15.368 -1.45042 5.2207e-20)
(15.3026 -2.04174 -8.8171e-19)
(15.2126 -2.63042 9.71251e-19)
(15.0981 -3.21538 -8.54676e-19)
(14.9596 -3.7956 2.43888e-18)
(14.7971 -4.37007 -2.59039e-19)
(14.6111 -4.93779 -1.30863e-18)
(14.402 -5.49778 2.478e-19)
(14.1702 -6.04906 -4.19112e-19)
(13.9161 -6.59068 -1.34216e-18)
(13.6404 -7.12172 -3.10766e-18)
(13.3437 -7.6412 -1.3213e-18)
(13.0264 -8.14813 3.13013e-18)
(12.6894 -8.64161 -2.24728e-18)
(12.3334 -9.12064 -1.3681e-18)
(11.9591 -9.58417 -2.07661e-18)
(11.5673 -10.0312 2.65131e-19)
(11.1586 -10.4607 1.52105e-19)
(14.8196 -0.258789 1.84472e-20)
(14.8038 -0.827199 1.97059e-20)
(14.7646 -1.39518 -1.8666e-20)
(14.7019 -1.96173 -2.45661e-19)
(14.6156 -2.52583 -5.63709e-19)
(14.5061 -3.08648 -3.69875e-19)
(14.3734 -3.64269 -1.73591e-18)
(14.2179 -4.19352 1.61354e-18)
(14.04 -4.73801 -9.43741e-19)
(13.8398 -5.27526 2.07481e-18)
(13.618 -5.80433 -3.97496e-19)
(13.3749 -6.32435 3.53139e-18)
(13.111 -6.83444 2.32404e-18)
(12.8271 -7.33366 4.76186e-18)
(12.5236 -7.82111 -3.30176e-18)
(12.2013 -8.29592 2.97522e-18)
(11.861 -8.75709 -5.8277e-19)
(11.5034 -9.2036 2.08136e-18)
(11.1293 -9.63446 2.23619e-18)
(10.7392 -10.0485 -3.20974e-18)
(14.2631 -0.253341 -1.49308e-19)
(14.2472 -0.798815 -3.32288e-21)
(14.2089 -1.34388 5.37103e-19)
(14.1481 -1.8876 -4.95443e-19)
(14.0648 -2.42899 3.06639e-19)
(13.9591 -2.96712 1.18862e-18)
(13.8314 -3.50105 -3.87831e-19)
(13.6817 -4.02987 -3.7223e-19)
(13.5105 -4.55271 -4.99835e-19)
(13.318 -5.0687 8.45239e-19)
(13.1047 -5.57697 -1.21006e-18)
(12.8711 -6.07673 2.25235e-18)
(12.6176 -6.5671 -2.2252e-18)
(12.3448 -7.04725 6.18308e-19)
(12.0535 -7.51636 1.0544e-18)
(11.7443 -7.97355 7.7308e-19)
(11.418 -8.41789 -1.49353e-18)
(11.0753 -8.84835 -2.36884e-18)
(10.7172 -9.26392 8.28763e-19)
(10.3441 -9.66336 2.63874e-19)
(13.7503 -0.247587 1.54228e-19)
(13.7341 -0.771941 4.12668e-19)
(13.6964 -1.29589 -9.2111e-19)
(13.6371 -1.81853 -7.16894e-19)
(13.5562 -2.33895 -3.69047e-19)
(13.4538 -2.85623 -1.01064e-18)
(13.3302 -3.36951 7.22135e-19)
(13.1856 -3.87792 9.09096e-19)
(13.0203 -4.38063 -1.96948e-18)
(12.8345 -4.87683 9.69383e-19)
(12.6288 -5.36572 9.9114e-19)
(12.4035 -5.84655 2.37201e-18)
(12.1591 -6.3185 -1.72958e-18)
(11.8962 -6.78086 2.42811e-18)
(11.6156 -7.23283 -2.22285e-18)
(11.318 -7.67361 -3.781e-19)
(11.0042 -8.1023 -6.59988e-19)
(10.675 -8.51788 2.84868e-18)
(10.3314 -8.91929 7.85824e-19)
(9.97393 -9.30519 -9.07182e-19)
(13.2753 -0.241522 -1.33724e-19)
(13.2588 -0.746331 7.9265e-20)
(13.2216 -1.25072 5.88333e-19)
(13.1636 -1.75384 7.25733e-20)
(13.0848 -2.25481 8.44458e-19)
(12.9854 -2.75276 6.9769e-19)
(12.8656 -3.24686 -5.97462e-19)
(12.7255 -3.7363 -8.55738e-19)
(12.5654 -4.22028 7.02367e-19)
(12.3857 -4.69805 5.56807e-19)
(12.1867 -5.16885 -5.62048e-19)
(11.9688 -5.63203 1.50479e-18)
(11.7326 -6.0868 -3.55669e-18)
(11.4786 -6.53258 8.30185e-19)
(11.2076 -6.96859 1.00034e-18)
(10.9202 -7.39418 -1.73154e-18)
(10.6176 -7.80842 -3.53882e-18)
(10.3006 -8.21039 1.15957e-18)
(9.97028 -8.59889 -1.01062e-18)
(9.62736 -8.97248 -9.52918e-19)
(12.833 -0.235193 -5.66363e-20)
(12.8162 -0.721807 5.10245e-20)
(12.7795 -1.208 -2.74231e-19)
(12.7227 -1.69294 -1.62701e-19)
(12.6459 -2.17578 -5.21519e-20)
(12.5492 -2.65572 -6.3751e-19)
(12.4328 -3.13193 1.70901e-18)
(12.2968 -3.60367 6.40273e-20)
(12.1416 -4.07016 -8.87188e-21)
(11.9674 -4.53071 -1.51083e-18)
(11.7746 -4.98461 1.51991e-18)
(11.5634 -5.43129 -8.40932e-19)
(11.3346 -5.86996 1.60019e-18)
(11.0886 -6.30028 -2.40749e-18)
(10.8262 -6.72139 -7.61262e-20)
(10.5481 -7.13294 -1.45977e-18)
(10.2556 -7.53388 2.91017e-18)
(9.94955 -7.92354 -7.27215e-19)
(9.63145 -8.30049 -2.56423e-19)
(9.30207 -8.66309 -1.8279e-18)
(12.4188 -0.228652 1.73871e-19)
(12.4018 -0.698239 -1.29214e-20)
(12.3655 -1.16739 3.47919e-19)
(12.3099 -1.63532 -3.61704e-19)
(12.235 -2.10121 4.30279e-19)
(12.1409 -2.56428 -2.58298e-19)
(12.0278 -3.02374 -9.45418e-19)
(11.8957 -3.47888 3.88964e-19)
(11.745 -3.92895 3.55147e-19)
(11.5759 -4.37336 -4.82488e-19)
(11.3888 -4.81136 4.06527e-20)
(11.1839 -5.24253 -5.41215e-20)
(10.9618 -5.66606 -1.57508e-18)
(10.723 -6.08189 1.7525e-18)
(10.4684 -6.48899 9.14973e-19)
(10.1985 -6.88757 3.41552e-18)
(9.9152 -7.27622 -4.92574e-18)
(9.61883 -7.65494 1.28306e-18)
(9.31206 -8.02169 3.22124e-18)
(8.99534 -8.3749 2.56004e-18)
(12.029 -0.221944 -1.30489e-19)
(12.0119 -0.675517 9.82657e-20)
(11.9762 -1.12865 -1.25204e-19)
(11.9218 -1.58059 -7.65558e-19)
(11.8487 -2.03053 7.73777e-19)
(11.757 -2.47773 2.70905e-19)
(11.647 -2.92142 6.72031e-20)
(11.5186 -3.36095 7.56999e-19)
(11.3722 -3.79555 -1.73325e-18)
(11.2079 -4.22474 1.38278e-18)
(11.0261 -4.64771 -1.52598e-19)
(10.827 -5.06425 2.27138e-18)
(10.6112 -5.47341 -2.86258e-18)
(10.3789 -5.8756 2.80953e-21)
(10.1315 -6.26939 -1.59687e-18)
(9.86866 -6.65601 1.97329e-19)
(9.59362 -7.03315 2.83095e-18)
(9.30551 -7.40238 -2.36609e-18)
(9.00937 -7.76023 -6.29683e-19)
(8.70421 -8.10606 -4.19122e-18)
(11.6608 -0.215156 3.68759e-20)
(11.6436 -0.653589 4.32796e-21)
(11.6084 -1.09159 -2.82307e-19)
(11.5551 -1.52841 1.19316e-19)
(11.4838 -1.96328 2.51706e-19)
(11.3946 -2.39548 3.61e-19)
(11.2875 -2.82426 -1.40451e-19)
(11.1626 -3.24901 3.47429e-19)
(11.0203 -3.66897 -6.32188e-19)
(10.8605 -4.08374 -8.8851e-19)
(10.6838 -4.49244 -3.21411e-19)
(10.49 -4.89509 -1.65413e-19)
(10.2802 -5.29053 -3.16704e-19)
(10.0538 -5.67979 -2.3775e-19)
(9.81294 -6.06076 5.97783e-19)
(9.55616 -6.43635 -5.82333e-20)
(9.28862 -6.80251 -2.38767e-18)
(9.00695 -7.16402 -4.19498e-19)
(8.72107 -7.51391 2.53216e-18)
(8.4258 -7.85507 1.31284e-18)
(11.3115 -0.208467 4.89078e-21)
(11.2943 -0.632498 7.86926e-20)
(11.2596 -1.0561 -1.84215e-21)
(11.2075 -1.47854 2.74968e-19)
(11.1379 -1.89906 -5.44915e-19)
(11.051 -2.31697 -5.89078e-19)
(10.9468 -2.73155 8.00977e-19)
(10.8253 -3.14221 -5.46803e-19)
(10.687 -3.5482 -2.68426e-20)
(10.5316 -3.94919 6.09176e-19)
(10.3598 -4.34424 2.48304e-20)
(10.1712 -4.73361 1.08104e-18)
(9.96711 -5.11582 -4.8378e-19)
(9.74611 -5.49268 -5.84141e-19)
(9.51155 -5.86104 -1.62406e-18)
(9.25973 -6.22639 -1.35068e-19)
(8.99917 -6.58164 -1.61683e-18)
(8.72148 -6.93787 1.00848e-18)
(8.44611 -7.28037 1.54907e-18)
(8.15792 -7.6206 -9.27323e-19)
(10.9792 -0.201554 -7.33773e-20)
(10.9619 -0.611976 1.56013e-19)
(10.9278 -1.02195 2.59068e-19)
(10.8768 -1.43075 -2.90872e-19)
(10.8089 -1.83765 4.50402e-19)
(10.7242 -2.24196 -1.45682e-19)
(10.6229 -2.64299 -1.95977e-19)
(10.5048 -3.04019 -1.36652e-19)
(10.3704 -3.43282 -3.0955e-21)
(10.2194 -3.8206 -1.13976e-18)
(10.0526 -4.20255 1.22103e-19)
(9.86912 -4.57913 5.32765e-19)
(9.67085 -4.94853 1.24158e-18)
(9.45517 -5.31335 2.25739e-18)
(9.22699 -5.66917 -2.42375e-19)
(8.97927 -6.02464 2.575e-18)
(8.72555 -6.36843 -1.0821e-18)
(8.44846 -6.72245 1.52822e-18)
(8.18427 -7.05869 8.69817e-19)
(7.89683 -7.40658 -4.93716e-19)
(10.6617 -0.193075 2.94673e-20)
(10.6444 -0.591091 -7.81249e-20)
(10.6108 -0.988675 -5.6342e-19)
(10.5609 -1.38509 -4.66063e-19)
(10.4947 -1.77962 5.57492e-19)
(10.4122 -2.1716 8.33396e-19)
(10.3136 -2.56037 5.38662e-20)
(10.1988 -2.94539 -4.71368e-19)
(10.0683 -3.32597 -6.60446e-19)
(9.92145 -3.70184 3.22152e-19)
(9.75951 -4.07203 -7.02464e-20)
(9.58091 -4.43708 -2.03097e-18)
(9.38837 -4.79501 -2.05378e-18)
(9.17756 -5.14894 7.79252e-19)
(8.95571 -5.49327 9.27522e-19)
(8.71075 -5.83962 -9.20203e-20)
(8.46342 -6.17158 -7.43553e-19)
(8.18125 -6.52597 -5.85765e-19)
(7.92757 -6.8575 -7.71739e-19)
(7.62282 -7.23905 1.27772e-18)
(10.3568 -0.185772 -9.15611e-20)
(10.3395 -0.57173 1.58715e-19)
(10.3064 -0.957583 1.00012e-19)
(10.2576 -1.3426 1.57149e-19)
(10.193 -1.72607 -5.95259e-19)
(10.1127 -2.10736 -7.28946e-19)
(10.0168 -2.48582 -1.71125e-19)
(9.90493 -2.86097 9.00643e-19)
(9.77782 -3.23211 -5.15866e-19)
(9.63461 -3.59899 2.14695e-19)
(9.47671 -3.96064 -8.11005e-19)
(9.3019 -4.31762 1.60711e-18)
(9.11384 -4.66786 -1.54231e-18)
(8.90604 -5.01466 -3.75945e-19)
(8.68885 -5.35165 -4.78239e-19)
(8.44334 -5.69223 -5.80627e-20)
(8.20028 -6.01485 -7.84929e-19)
(7.90416 -6.37041 9.98725e-19)
(7.65843 -6.68955 5.6734e-19)
(7.31067 -7.14114 -2.98557e-18)
(13.4122 14.6308 4.06083e-18)
(13.9778 14.0875 -6.09125e-18)
(14.5191 13.5228 2.08637e-18)
(15.0377 12.9391 -3.27037e-18)
(15.5329 12.3366 3.44844e-19)
(16.0034 11.7155 -3.25056e-18)
(16.448 11.0763 -6.67081e-19)
(16.8661 10.4199 -3.11177e-18)
(17.2571 9.74748 -1.6969e-19)
(17.6203 9.06008 1.17681e-18)
(17.9552 8.35886 1.445e-18)
(18.2614 7.64499 -2.32002e-18)
(18.5384 6.91965 1.18819e-18)
(18.7859 6.18412 3.39253e-18)
(19.0036 5.43954 -6.0587e-19)
(19.1912 4.68734 -1.98641e-18)
(19.3485 3.92841 2.6516e-18)
(19.4758 3.16464 -1.62833e-18)
(19.5725 2.39577 -2.42906e-19)
(19.6396 1.62569 -1.70194e-19)
(14.0591 13.4268 2.2865e-18)
(14.5897 12.8753 -6.71892e-18)
(15.0951 12.3026 -2.43849e-18)
(15.5758 11.7103 2.45898e-18)
(16.0316 11.099 -1.30924e-18)
(16.4615 10.4691 2.40727e-18)
(16.8647 9.8215 4.57967e-19)
(17.2403 9.15733 -3.47023e-18)
(17.5878 8.47782 1.25506e-18)
(17.9064 7.78419 8.99564e-19)
(18.1958 7.0777 3.02273e-18)
(18.4554 6.35965 -2.55546e-18)
(18.6848 5.63136 -1.3269e-18)
(18.8836 4.89421 2.90267e-18)
(19.0515 4.14948 -1.67584e-18)
(19.1884 3.39863 3.1516e-19)
(19.2941 2.6428 -1.06185e-18)
(19.3688 1.88356 -2.38023e-20)
(19.4119 1.12158 -5.26525e-19)
(19.4238 0.358504 1.41389e-19)
(13.5852 12.8946 4.75874e-19)
(14.1046 12.3768 -2.83552e-19)
(14.6014 11.8374 5.76877e-18)
(15.0748 11.2772 -1.84126e-18)
(15.5242 10.697 1.85679e-18)
(15.9489 10.0975 -1.23161e-18)
(16.348 9.47985 -9.94756e-19)
(16.7206 8.84509 -4.56266e-18)
(17.0662 8.19443 5.1861e-18)
(17.384 7.5291 -3.13939e-18)
(17.6734 6.85031 -1.38771e-18)
(17.9339 6.15936 -2.26115e-18)
(18.1649 5.45754 1.18519e-18)
(18.3661 4.7462 -1.29728e-18)
(18.5371 4.02663 9.66699e-19)
(18.6776 3.30024 -2.04168e-18)
(18.7874 2.56824 2.14553e-18)
(18.8664 1.83208 8.89552e-19)
(18.9142 1.09281 -1.5866e-19)
(18.9307 0.351951 1.89011e-19)
(12.9483 12.3236 -5.12763e-19)
(13.451 11.8408 -2.665e-19)
(13.9335 11.3364 1.24382e-18)
(14.3944 10.8111 -2.80801e-18)
(14.833 10.2659 4.86974e-18)
(15.2484 9.70146 1.60978e-18)
(15.6397 9.11894 2.22573e-19)
(16.0063 8.51935 -2.9446e-19)
(16.3474 7.90376 4.01185e-18)
(16.6622 7.27332 1.652e-18)
(16.9502 6.62917 3.24845e-18)
(17.2107 5.97251 -7.41458e-19)
(17.4432 5.30457 -3.24068e-19)
(17.6473 4.62661 -9.83785e-19)
(17.8225 3.9399 6.35853e-19)
(17.9685 3.24574 9.96932e-19)
(18.085 2.54537 -1.65219e-18)
(18.1718 1.84014 6.25811e-19)
(18.2286 1.13132 4.16691e-20)
(18.2551 0.420319 1.02522e-19)
(12.3703 11.697 3.36685e-18)
(12.851 11.2425 5.31539e-19)
(13.3131 10.7673 -6.68197e-18)
(13.7552 10.2719 -2.06638e-18)
(14.1763 9.75724 -9.26909e-19)
(14.5757 9.22406 -4.20687e-18)
(14.9525 8.6733 3.86776e-18)
(15.3061 8.10592 -1.7191e-18)
(15.6357 7.52292 2.0852e-18)
(15.9406 6.92534 -7.57442e-19)
(16.2202 6.31424 1.32606e-18)
(16.474 5.69077 -2.07737e-18)
(16.7012 5.05605 -1.79072e-19)
(16.9016 4.41129 -8.31864e-19)
(17.0746 3.75766 -6.01463e-19)
(17.2199 3.0964 3.45217e-19)
(17.3372 2.42874 -1.80227e-19)
(17.4261 1.75593 2.97653e-19)
(17.4865 1.07926 -3.56142e-19)
(17.518 0.400014 4.88837e-20)
(11.8343 11.1098 -7.0092e-19)
(12.2925 10.6794 8.36038e-20)
(12.7331 10.2294 2.78868e-18)
(13.1549 9.76014 -6.11558e-19)
(13.557 9.27239 1.73286e-18)
(13.9386 8.7669 -5.67615e-18)
(14.2989 8.24453 -9.2759e-19)
(14.6373 7.70617 -2.79533e-18)
(14.9531 7.15275 6.88672e-19)
(15.2456 6.58523 9.28054e-19)
(15.5142 6.00462 1.89514e-18)
(15.7584 5.41199 -2.66623e-18)
(15.9777 4.80842 1.35047e-18)
(16.1715 4.195 1.97248e-18)
(16.3394 3.57288 6.92364e-20)
(16.4811 2.9432 -7.8984e-19)
(16.5963 2.30714 -6.59815e-20)
(16.6845 1.66589 -1.63036e-19)
(16.7457 1.02066 4.0293e-20)
(16.7795 0.372633 -3.27722e-20)
(11.3456 10.5804 1.23329e-18)
(11.7822 10.1708 7.6947e-19)
(12.202 9.74263 4.58842e-19)
(12.604 9.29617 -2.87501e-18)
(12.9873 8.83203 -2.65571e-18)
(13.351 8.35093 6.02445e-18)
(13.6946 7.85368 5.93136e-19)
(14.0175 7.34112 -2.04111e-18)
(14.3189 6.81412 1.8607e-18)
(14.5982 6.27361 -2.90945e-18)
(14.855 5.72053 4.55552e-19)
(15.0886 5.1559 1.26409e-18)
(15.2986 4.58072 -9.18251e-19)
(15.4844 3.99606 -3.8605e-19)
(15.6458 3.40298 1.51037e-18)
(15.7823 2.80258 -3.48134e-20)
(15.8937 2.19595 -5.53758e-20)
(15.9795 1.58422 -1.77107e-19)
(16.0396 0.968532 2.89098e-20)
(16.0737 0.350004 1.79927e-19)
(10.9066 10.1047 -1.70295e-18)
(11.3231 9.71319 2.1416e-18)