/*--------------------------------*- C++ -*----------------------------------*\
  =========                 |
  \\      /  F ield         | OpenFOAM: The Open Source CFD Toolbox
   \\    /   O peration     | Website:  https://openfoam.org
    \\  /    A nd           | Version:  6.0
     \\/     M anipulation  |
\*---------------------------------------------------------------------------*/
FoamFile
{
    version     2.0;
    format      ascii;
    class       volScalarField;
    location    "8.001";
    object      p;
}
// * * * * * * * * * * * * * * * * * * * * * * * * * * * * * * * * * * * * * //

dimensions      [0 2 -2 0 0 0 0];

internalField   nonuniform List<scalar> 
2400
(
-144.348
-113.612
-93.0799
-77.3991
-64.5405
-54.1091
-45.6534
-38.7139
-32.9325
-28.1386
-146.291
-115.3
-94.5339
-78.685
-65.7171
-55.2143
-46.7073
-39.7239
-33.9025
-29.0877
-148.143
-116.899
-95.9069
-79.8971
-66.8251
-56.2548
-47.7006
-40.6775
-34.8217
-29.9938
-149.873
-118.388
-97.1825
-81.022
-67.8524
-57.2168
-48.6152
-41.5542
-35.6752
-30.8585
-151.449
-119.739
-98.3377
-82.0432
-68.7908
-58.0992
-49.4513
-42.3491
-36.4519
-31.6656
-152.85
-120.925
-99.3386
-82.9269
-69.6154
-58.8951
-50.2227
-43.0868
-37.1651
-32.3904
-154.071
-121.925
-100.15
-83.6203
-70.2612
-59.5423
-50.8926
-43.7731
-37.8572
-33.0834
-155.126
-122.743
-100.757
-84.0827
-70.6442
-59.9031
-51.2832
-44.2452
-38.472
-33.8945
-156.032
-123.402
-101.188
-84.3324
-70.7474
-59.8787
-51.1638
-44.1397
-38.6371
-34.6757
-156.779
-123.929
-101.495
-84.4469
-70.6728
-59.5843
-50.606
-43.3364
-37.7724
-34.0501
-160.902
-160.749
-160.462
-160.097
-159.685
-159.242
-158.782
-158.313
-157.839
-157.343
-126.352
-126.314
-126.183
-125.99
-125.756
-125.495
-125.222
-124.943
-124.656
-124.334
-103.027
-103.006
-102.916
-102.775
-102.601
-102.413
-102.226
-102.053
-101.89
-101.719
-85.6552
-85.5945
-85.4736
-85.3089
-85.1208
-84.9299
-84.7608
-84.6296
-84.5465
-84.5011
-71.7605
-71.6454
-71.4745
-71.2618
-71.035
-70.8135
-70.6343
-70.5169
-70.4927
-70.56
-60.602
-60.4372
-60.2184
-59.9558
-59.6858
-59.4197
-59.2175
-59.0943
-59.1199
-59.2868
-51.5589
-51.3534
-51.0949
-50.7875
-50.4748
-50.1482
-49.9061
-49.749
-49.835
-50.0862
-44.1137
-43.8787
-43.5924
-43.2534
-42.907
-42.5084
-42.1979
-41.9493
-42.1226
-42.4909
-37.8833
-37.628
-37.3289
-36.9833
-36.6286
-36.1742
-35.7723
-35.3464
-35.5474
-36.1953
-32.6743
-32.3759
-32.0486
-31.7007
-31.3438
-30.8642
-30.3535
-29.6926
-29.5829
-30.5083
-152.212
-153.908
-155.424
-156.776
-157.951
-158.928
-159.699
-160.268
-160.65
-160.859
-118.15
-119.682
-121.084
-122.338
-123.424
-124.329
-125.056
-125.612
-126.01
-126.256
-95.8514
-97.2238
-98.4849
-99.5998
-100.546
-101.321
-101.938
-102.409
-102.743
-102.948
-79.5793
-80.8322
-81.968
-82.9447
-83.7464
-84.3864
-84.884
-85.2522
-85.4984
-85.6299
-66.6508
-67.8339
-68.8722
-69.7205
-70.3867
-70.9047
-71.2966
-71.5715
-71.7352
-71.7953
-56.2559
-57.4303
-58.4044
-59.134
-59.6764
-60.0917
-60.3962
-60.5932
-60.6881
-60.6888
-47.7647
-48.9807
-49.921
-50.5477
-50.9883
-51.3229
-51.5558
-51.6896
-51.7305
-51.6863
-40.7837
-41.9876
-42.8687
-43.4199
-43.7986
-44.0744
-44.2482
-44.3354
-44.3414
-44.2695
-35.3961
-36.313
-36.9312
-37.422
-37.7794
-37.9949
-38.1038
-38.1544
-38.1427
-38.0583
-31.9982
-32.366
-32.2305
-32.6126
-32.9632
-33.0684
-33.0609
-33.0462
-33.001
-32.8901
-22.3226
-26.7625
-32.142
-38.5364
-46.2279
-55.6243
-67.2135
-81.6452
-101.606
-133.364
-22.721
-27.2462
-32.6925
-39.1646
-46.953
-56.4694
-68.2108
-82.8388
-103.044
-135.054
-23.1917
-27.7954
-33.3028
-39.852
-47.738
-57.3757
-69.2716
-84.0985
-104.542
-136.779
-23.7448
-28.4081
-33.9679
-40.5947
-48.5814
-58.343
-70.396
-85.4255
-106.111
-138.571
-24.3818
-29.1069
-34.7149
-41.4149
-49.4969
-59.3773
-71.5844
-86.8167
-107.747
-140.433
-25.0394
-29.8299
-35.5009
-42.2883
-50.4723
-60.4727
-72.8327
-88.2674
-109.443
-142.357
-25.7806
-30.6709
-36.4007
-43.2563
-51.524
-61.6325
-74.1377
-89.7689
-111.186
-144.326
-26.5569
-31.5551
-37.3488
-44.2757
-52.6299
-62.8448
-75.4883
-91.3067
-112.96
-146.324
-27.7353
-32.7755
-38.4867
-45.3969
-53.8029
-64.1045
-76.8671
-92.8575
-114.741
-148.33
-29.3806
-34.0641
-39.5963
-46.5421
-55.02
-65.3898
-78.2464
-94.3887
-116.49
-150.312
-19.7307
-22.5562
-26.8621
-32.5442
-39.529
-48.0519
-58.4931
-71.3372
-89.054
-118.098
-20.6984
-23.7598
-28.1098
-33.683
-40.5383
-48.9799
-59.4016
-72.2931
-90.1445
-119.415
-20.5369
-24.1659
-28.833
-34.5205
-41.4055
-49.8654
-60.3273
-73.3025
-91.3069
-120.798
-20.457
-24.3265
-29.1942
-35.0402
-42.057
-50.6316
-61.2057
-74.3162
-92.5127
-122.251
-20.6027
-24.546
-29.5021
-35.4521
-42.5938
-51.3053
-62.0265
-75.3108
-93.7372
-123.753
-20.8236
-24.8469
-29.873
-35.8935
-43.1277
-51.9576
-62.8251
-76.2963
-94.9723
-125.28
-21.0533
-25.1775
-30.2836
-36.3756
-43.6944
-52.6314
-63.6378
-77.2958
-96.2262
-126.828
-21.3144
-25.5294
-30.712
-36.8802
-44.2887
-53.335
-64.4809
-78.3269
-97.5116
-128.402
-21.6179
-25.907
-31.1572
-37.4018
-44.9046
-54.066
-65.3568
-79.3954
-98.8375
-130.014
-21.9609
-26.3195
-31.6324
-37.951
-45.5481
-54.8268
-66.2666
-80.5024
-100.205
-131.67
-16.3373
-15.1302
-14.8165
-14.969
-15.1528
-15.3867
-15.6501
-15.9763
-16.385
-16.8495
-20.7465
-19.7597
-19.1737
-19.1557
-19.2397
-19.4517
-19.7075
-20.0386
-20.4403
-20.8948
-25.6038
-24.8299
-24.2541
-24.1085
-24.1107
-24.2817
-24.5257
-24.8595
-25.2619
-25.7201
-31.5006
-30.7756
-30.2516
-30.0285
-29.9703
-30.089
-30.3091
-30.6328
-31.0319
-31.495
-38.6076
-37.8953
-37.3922
-37.1243
-37.0287
-37.1046
-37.3025
-37.6146
-38.0131
-38.486
-47.2045
-46.5102
-46.0078
-45.7086
-45.5864
-45.6318
-45.8138
-46.1187
-46.5233
-47.0141
-57.6701
-56.978
-56.4581
-56.1246
-55.9711
-55.9875
-56.1535
-56.4535
-56.8688
-57.385
-70.4741
-69.7326
-69.1547
-68.7595
-68.5509
-68.522
-68.6592
-68.948
-69.3721
-69.9153
-88.0511
-87.1731
-86.4687
-85.9615
-85.6569
-85.5511
-85.6343
-85.8941
-86.3127
-86.8653
-116.832
-115.728
-114.834
-114.166
-113.725
-113.508
-113.504
-113.704
-114.083
-114.597
-17.3429
-17.8311
-18.3306
-18.8509
-19.4062
-19.9273
-20.2828
-20.5308
-21.0723
-21.4814
-21.3841
-21.8829
-22.3971
-22.9212
-23.4535
-23.9551
-24.3798
-24.6952
-24.8947
-24.9728
-26.2174
-26.7353
-27.2732
-27.8188
-28.3621
-28.8814
-29.3647
-29.7603
-29.9661
-30.0238
-32.0034
-32.5414
-33.1031
-33.6746
-34.2439
-34.7967
-35.324
-35.7804
-36.0981
-36.3202
-39.0127
-39.5773
-40.1702
-40.7778
-41.3882
-41.9885
-42.5638
-43.083
-43.5256
-43.9359
-47.5696
-48.172
-48.8097
-49.47
-50.141
-50.8087
-51.4555
-52.064
-52.6408
-53.2265
-57.9796
-58.6315
-59.3286
-60.0589
-60.8103
-61.5684
-62.3177
-63.0508
-63.7836
-64.5496
-70.5516
-71.2557
-72.0185
-72.8284
-73.6731
-74.5391
-75.4159
-76.3034
-77.2175
-78.1819
-87.5167
-88.2486
-89.0563
-89.9291
-90.8533
-91.8183
-92.8207
-93.8672
-94.9697
-96.1337
-115.189
-115.886
-116.681
-117.559
-118.505
-119.512
-120.585
-121.738
-122.978
-124.279
-125.597
-97.3484
-79.2048
-65.372
-53.8663
-44.4082
-36.6431
-30.2381
-25.0406
-20.7315
-127.021
-98.6273
-80.2881
-66.2628
-54.5879
-44.9939
-37.1374
-30.6712
-25.3299
-20.7291
-128.577
-99.9984
-81.4524
-67.241
-55.4132
-45.7031
-37.7584
-31.2027
-25.7486
-21.1019
-130.266
-101.471
-82.7049
-68.311
-56.3423
-46.5308
-38.5184
-31.9213
-26.448
-21.8268
-132.077
-103.042
-84.0436
-69.4677
-57.3625
-47.4518
-39.3689
-32.7227
-27.2124
-22.583
-133.997
-104.699
-85.4587
-70.6999
-58.4622
-48.4575
-40.3103
-33.6198
-28.0695
-23.4094
-136.011
-106.429
-86.9357
-71.9922
-59.6239
-49.5261
-41.3109
-34.5648
-28.9563
-24.248
-138.097
-108.215
-88.4578
-73.3279
-60.8325
-50.6465
-42.3678
-35.5699
-29.9089
-25.1601
-140.223
-110.032
-90.0065
-74.6891
-62.069
-51.7975
-43.4571
-36.6097
-30.9034
-26.1313
-142.33
-111.847
-91.5591
-76.0566
-63.3147
-52.9612
-44.5618
-37.6683
-31.9251
-27.144
-15.9312
-5.67767
-2.57761
-1.4746
-0.798276
-0.553959
-0.461869
-0.450649
-0.471916
-0.51435
-0.581975
-0.679233
-0.782121
-0.826706
-0.743685
-0.548092
-0.33342
-0.169514
-0.0693205
-0.00687181
-16.9021
-6.39717
-2.85173
-1.63146
-0.904004
-0.614835
-0.503024
-0.479239
-0.491732
-0.526776
-0.586633
-0.674702
-0.768183
-0.806994
-0.725915
-0.538452
-0.331555
-0.171411
-0.0715751
-0.00783067
-17.8613
-7.15364
-3.17223
-1.79868
-1.01517
-0.678204
-0.54433
-0.507391
-0.510935
-0.5386
-0.590857
-0.670138
-0.754854
-0.788505
-0.709521
-0.529775
-0.330102
-0.17338
-0.0738134
-0.00878622
-18.8646
-7.9176
-3.49133
-1.95463
-1.12471
-0.743029
-0.585827
-0.535239
-0.529664
-0.54996
-0.594798
-0.665702
-0.742265
-0.771294
-0.694486
-0.522023
-0.329035
-0.175423
-0.0760322
-0.00974505
-19.8633
-8.57918
-3.73909
-2.07518
-1.22549
-0.807843
-0.627276
-0.562777
-0.547999
-0.560969
-0.598584
-0.661522
-0.730507
-0.755388
-0.680774
-0.515148
-0.328331
-0.177536
-0.0782333
-0.0107101
-20.6685
-9.08169
-3.94844
-2.19253
-1.32986
-0.87579
-0.669272
-0.590096
-0.566008
-0.571719
-0.602325
-0.657704
-0.719647
-0.740782
-0.668332
-0.509095
-0.327965
-0.179716
-0.0804174
-0.0116836
-21.3871
-9.82269
-4.39483
-2.4333
-1.48192
-0.959723
-0.715497
-0.618306
-0.584092
-0.582407
-0.606155
-0.654354
-0.709765
-0.727506
-0.65713
-0.503823
-0.327916
-0.181957
-0.0825854
-0.0126672
-23.0141
-11.5655
-5.38748
-2.9014
-1.71517
-1.07288
-0.7718
-0.649835
-0.603268
-0.593472
-0.610245
-0.651555
-0.700971
-0.7157
-0.647275
-0.49939
-0.328217
-0.184279
-0.0847464
-0.0136631
-25.9966
-13.9414
-6.60284
-3.40796
-1.95132
-1.19466
-0.834134
-0.683939
-0.623517
-0.604986
-0.614582
-0.649177
-0.69309
-0.705258
-0.638763
-0.495843
-0.328917
-0.186711
-0.086913
-0.0146766
-25.8979
-14.1608
-6.80114
-3.42405
-1.98273
-1.24833
-0.872876
-0.70827
-0.639633
-0.614905
-0.618544
-0.646852
-0.685142
-0.694535
-0.629975
-0.49207
-0.329433
-0.189008
-0.0890039
-0.0157047
-20.0087
-12.1721
-6.04454
-3.00273
-1.8246
-1.22898
-0.882589
-0.719416
-0.650475
-0.623709
-0.622863
-0.643533
-0.672732
-0.676257
-0.613663
-0.483608
-0.328424
-0.191538
-0.0917189
-0.017163
-14.6586
-10.0168
-5.4186
-2.78631
-1.74401
-1.24754
-0.9296
-0.758016
-0.678961
-0.643319
-0.633365
-0.643706
-0.661864
-0.657455
-0.595141
-0.472619
-0.325803
-0.193609
-0.0945672
-0.0188031
-10.8837
-8.09904
-4.85421
-2.66365
-1.68435
-1.24958
-0.970887
-0.798226
-0.709415
-0.664889
-0.645626
-0.645328
-0.652123
-0.639231
-0.576247
-0.460491
-0.322078
-0.195119
-0.0972957
-0.0205023
-7.82972
-6.35705
-4.27963
-2.59329
-1.67358
-1.25576
-1.00809
-0.839579
-0.741235
-0.68747
-0.658889
-0.647736
-0.642894
-0.621311
-0.557412
-0.448203
-0.318214
-0.196664
-0.100164
-0.0223452
-5.86266
-5.05323
-3.70905
-2.44087
-1.64162
-1.25473
-1.03633
-0.878537
-0.773833
-0.710998
-0.673161
-0.651226
-0.634848
-0.604652
-0.539611
-0.436466
-0.314546
-0.1983
-0.103131
-0.0242906
-4.50331
-3.94548
-3.08592
-2.24441
-1.63706
-1.28115
-1.06681
-0.914174
-0.80605
-0.735136
-0.688281
-0.655965
-0.628561
-0.590097
-0.523613
-0.425702
-0.311136
-0.199913
-0.10607
-0.0262647
-3.52045
-3.15905
-2.64035
-2.08743
-1.61566
-1.28907
-1.08379
-0.942217
-0.836446
-0.759505
-0.703995
-0.66189
-0.624331
-0.578219
-0.510023
-0.416316
-0.308106
-0.201429
-0.108859
-0.0281825
-2.90516
-2.65082
-2.30386
-1.92117
-1.57156
-1.30175
-1.11233
-0.974452
-0.866999
-0.783522
-0.719582
-0.668546
-0.622123
-0.569339
-0.49932
-0.408717
-0.305627
-0.202791
-0.111351
-0.0299299
-2.55053
-2.34522
-2.09104
-1.81215
-1.54162
-1.30941
-1.12882
-0.992513
-0.886092
-0.800752
-0.731899
-0.674454
-0.621373
-0.563458
-0.49181
-0.403245
-0.303842
-0.203899
-0.113337
-0.0313498
-2.38167
-2.19944
-1.98817
-1.75615
-1.52278
-1.31194
-1.13919
-1.00466
-0.898525
-0.811853
-0.73989
-0.678472
-0.621398
-0.560432
-0.487722
-0.400206
-0.302854
-0.204586
-0.114519
-0.0322204
-25.6879
-25.2035
-24.6974
-24.2428
-23.7363
-23.1608
-22.3326
-21.3766
-20.2973
-20.4625
-17.8503
-17.2447
-16.6201
-16.0505
-15.4235
-14.7875
-14.0475
-13.5558
-13.3663
-14.2196
-11.9848
-11.5431
-11.116
-10.7538
-10.4418
-10.2438
-10.1657
-10.2775
-10.4531
-10.8005
-8.54545
-8.34553
-8.17977
-8.06703
-8.00028
-7.97082
-7.91902
-7.8049
-7.6242
-7.59944
-6.50035
-6.40325
-6.31291
-6.21874
-6.10655
-5.96982
-5.81135
-5.66961
-5.59608
-5.6519
-4.96218
-4.88826
-4.81212
-4.73188
-4.65272
-4.58498
-4.53692
-4.50993
-4.49584
-4.49618
-3.9088
-3.87242
-3.83629
-3.80001
-3.76393
-3.72739
-3.68814
-3.64435
-3.59927
-3.56415
-3.26473
-3.2445
-3.22024
-3.19179
-3.15936
-3.12364
-3.08569
-3.04681
-3.00891
-2.97362
-2.88653
-2.8728
-2.85477
-2.83277
-2.80717
-2.77839
-2.74682
-2.71276
-2.67667
-2.63902
-2.70768
-2.69705
-2.68207
-2.66297
-2.63999
-2.61341
-2.58352
-2.55065
-2.51513
-2.47731
-28.382
-29.1464
-26.9879
-26.8524
-27.1703
-27.0376
-26.7315
-26.5021
-26.3096
-26.0723
-24.0367
-23.8299
-20.7742
-19.7403
-19.9599
-19.921
-19.5144
-19.0958
-18.7415
-18.3639
-18.3572
-17.5048
-14.5101
-13.2507
-13.4264
-13.6603
-13.48
-13.1136
-12.7508
-12.3942
-12.7637
-12.0576
-9.89707
-8.88932
-9.03861
-9.40798
-9.46817
-9.2708
-9.00853
-8.76705
-8.73792
-8.44826
-7.2163
-6.54562
-6.59774
-6.87883
-7.00243
-6.92506
-6.76672
-6.61831
-6.10212
-6.07016
-5.48578
-5.09569
-5.05918
-5.17911
-5.25171
-5.22168
-5.13483
-5.04258
-4.33517
-4.38408
-4.17034
-4.00019
-3.96204
-3.99676
-4.0263
-4.01984
-3.98727
-3.94721
-3.26709
-3.33079
-3.29552
-3.25976
-3.25743
-3.27584
-3.29326
-3.299
-3.2936
-3.28127
-2.74034
-2.80525
-2.8305
-2.8437
-2.859
-2.87607
-2.89013
-2.89818
-2.89979
-2.89567
-2.53076
-2.59315
-2.62998
-2.65291
-2.67192
-2.689
-2.70263
-2.71145
-2.71511
-2.71377
0.252091
0.210037
0.113461
-0.0824279
-0.424004
-1.06025
-2.06059
-3.94878
-7.53205
-16.932
0.0836895
0.0362969
-0.0667703
-0.274251
-0.630047
-1.28956
-2.34203
-4.33904
-7.66994
-15.7516
-0.098498
-0.14882
-0.251475
-0.458776
-0.79871
-1.44433
-2.4023
-4.32549
-6.92775
-12.598
-0.291065
-0.343967
-0.441997
-0.644671
-0.942584
-1.55506
-2.31006
-3.93982
-5.90601
-9.38897
-0.488465
-0.543474
-0.63272
-0.828669
-1.07351
-1.61591
-2.20376
-3.34322
-4.80432
-6.7561
-0.684363
-0.736801
-0.817552
-0.991877
-1.20544
-1.61362
-2.10933
-2.78363
-3.77665
-4.93916
-0.87033
-0.911145
-0.98686
-1.12176
-1.31834
-1.58337
-1.9787
-2.37669
-2.99734
-3.71711
-1.03101
-1.05745
-1.12492
-1.22208
-1.38587
-1.55883
-1.8399
-2.11513
-2.50437
-2.9423
-1.14967
-1.16806
-1.2221
-1.29658
-1.42036
-1.55462
-1.75301
-1.96749
-2.23373
-2.52681
-1.21607
-1.23239
-1.27614
-1.34108
-1.44082
-1.56171
-1.7206
-1.90236
-2.11383
-2.35007
1.30497
1.29333
1.25958
1.17393
0.98402
0.635127
-0.0381738
-1.15615
-3.52616
-11.548
1.19399
1.17912
1.13774
1.04061
0.83442
0.461637
-0.233573
-1.41786
-3.69035
-11.5808
1.0845
1.06653
1.01791
0.909511
0.688005
0.289695
-0.425114
-1.68571
-3.89047
-11.6728
0.976812
0.95588
0.900504
0.78102
0.545185
0.119827
-0.61201
-1.95758
-4.14354
-11.8915
0.871206
0.847477
0.785842
0.655494
0.406225
-0.0476252
-0.794541
-2.22956
-4.41449
-12.1362
0.767904
0.741568
0.674192
0.533246
0.271223
-0.212319
-0.973967
-2.50146
-4.7357
-12.3986
0.667094
0.638372
0.565759
0.414549
0.140126
-0.373687
-1.15161
-2.76103
-5.08579
-12.5271
0.568951
0.538143
0.460753
0.299647
0.012731
-0.531054
-1.33294
-3.00445
-5.56476
-12.7271
0.473555
0.441069
0.359432
0.188828
-0.11144
-0.683529
-1.52151
-3.22165
-6.08119
-13.0718
0.380533
0.346171
0.260709
0.0816341
-0.2331
-0.833829
-1.73288
-3.48055
-6.77769
-14.5868
2.40643
2.42938
2.4789
2.52667
2.52358
2.37914
2.01904
0.661078
-4.02052
-13.275
2.30313
2.32157
2.3614
2.39028
2.35677
2.14566
1.67143
0.303671
-4.42807
-13.9681
2.19754
2.21275
2.24407
2.25743
2.20554
1.97911
1.51701
0.472638
-3.32442
-12.0576
2.08968
2.10186
2.12544
2.126
2.06169
1.84027
1.41298
0.626402
-2.52292
-11.1879
1.97985
1.98878
2.00455
1.99293
1.91499
1.69067
1.24912
0.497603
-2.48232
-11.2085
1.8685
1.87402
1.88165
1.85752
1.7622
1.52131
1.02373
0.18373
-2.7451
-11.2954
1.75609
1.75813
1.75741
1.72051
1.60535
1.34169
0.784857
-0.142295
-2.9602
-11.2747
1.64308
1.64164
1.63248
1.58289
1.4476
1.16178
0.562885
-0.416535
-3.10133
-11.283
1.52993
1.52502
1.50748
1.44554
1.29099
0.984733
0.357746
-0.660346
-3.23315
-11.3683
1.41709
1.40877
1.38299
1.30905
1.13634
0.809532
0.159124
-0.903521
-3.37922
-11.4883
4.0335
4.04928
4.08009
4.12359
4.17413
4.22465
4.2685
4.29952
4.31204
4.2987
3.9737
3.99461
4.0356
4.09369
4.16237
4.23348
4.29891
4.34988
4.37726
4.36708
3.86622
3.89469
3.95058
4.03015
4.12558
4.22736
4.32623
4.41194
4.46862
4.46986
3.71851
3.75477
3.82602
3.92775
4.05057
4.18268
4.31318
4.43438
4.52459
4.55581
3.53971
3.58226
3.66603
3.78587
3.93077
4.08517
4.2289
4.35041
4.42517
4.44801
3.34091
3.38699
3.47799
3.60885
3.77025
3.94958
4.09518
4.1005
3.95257
3.859
3.13351
3.17986
3.27114
3.39955
3.55012
3.70929
3.81566
3.66661
3.13158
2.59796
2.9276
2.97113
3.05658
3.17331
3.30208
3.43918
3.5105
3.06942
1.70169
0.14746
2.73094
2.76949
2.8444
2.94055
3.0285
3.09519
3.08197
2.33755
-0.0804961
-3.15423
2.54787
2.57995
2.64294
2.71519
2.75688
2.72863
2.582
1.51952
-2.14809
-7.99733
4.27135
4.25687
4.23883
4.21823
4.19522
4.16965
4.14145
4.11066
4.07734
4.04161
4.33837
4.31952
4.29419
4.26624
4.23599
4.20288
4.16672
4.12765
4.08587
4.04157
4.44668
4.41901
4.38066
4.34151
4.3014
4.259
4.2142
4.1674
4.11894
4.0691
4.5911
4.56107
4.5152
4.4682
4.41926
4.36726
4.31221
4.25425
4.1935
4.13015
4.55133
4.52066
4.48181
4.4379
4.38646
4.32735
4.26087
4.18812
4.11019
4.02788
4.13975
4.16048
4.13916
4.08464
4.01079
3.929
3.84101
3.74778
3.64724
3.53732
2.93912
2.97384
2.91417
2.86727
2.82506
2.77898
2.70324
2.59577
2.4486
2.26406
0.413985
0.697756
0.80357
0.867025
0.8085
0.683931
0.482117
0.230393
-0.0951245
-0.479399
-2.76599
-2.14114
-2.24455
-2.47806
-2.88067
-3.23623
-3.6329
-4.0467
-4.55751
-5.12959
-8.26832
-7.8678
-8.3883
-8.78728
-9.21728
-9.5316
-9.89289
-10.2831
-10.7859
-11.348
4.00356
3.96332
3.92104
3.87687
3.83094
3.78341
3.73443
3.68416
3.63275
3.58039
3.99498
3.94641
3.8962
3.84479
3.79268
3.74044
3.68872
3.63824
3.58971
3.54221
4.01815
3.96636
3.91386
3.86071
3.80685
3.75233
3.6974
3.64215
3.58466
3.51841
4.06436
3.99618
3.92563
3.85315
3.77967
3.70512
3.62626
3.53636
3.42894
3.31121
3.94034
3.845
3.74067
3.63378
3.53639
3.44445
3.31291
3.07948
2.76244
2.55771
3.41136
3.25876
3.07533
2.8883
2.75357
2.66977
2.46294
1.87594
0.993211
0.653128
2.04118
1.77163
1.44183
1.08807
0.829947
0.729633
0.472744
-0.571425
-2.38518
-3.05558
-0.899704
-1.34459
-1.85226
-2.43086
-2.95362
-3.22361
-3.51429
-4.8433
-7.45971
-8.33723
-5.7138
-6.27389
-6.86939
-7.56096
-8.3044
-8.83168
-9.11788
-10.243
-12.9804
-13.6566
-11.9187
-12.4546
-13.0057
-13.6174
-14.3225
-14.9612
-15.2558
-15.7055
-17.6495
-18.0592
3.44513
3.18043
2.88375
2.44406
1.91088
1.41768
1.02426
0.714518
0.454723
0.210797
-0.0516631
-0.364007
-0.750488
-1.08526
-1.03762
-0.55117
-0.0489559
0.152033
0.13719
0.0492563
3.40492
3.17477
2.94172
2.35341
1.74786
1.27311
0.91322
0.627951
0.395152
0.182678
-0.06192
-0.389875
-0.821971
-1.20349
-1.17815
-0.683561
-0.146227
0.0971755
0.112844
0.0445477
3.32233
3.03872
2.82689
2.0849
1.50866
1.10321
0.785984
0.529541
0.323869
0.132737
-0.106419
-0.45307
-0.91723
-1.31972
-1.30172
-0.806941
-0.249276
0.0320331
0.0817417
0.0383128
3.01341
2.60122
2.47564
1.75917
1.27967
0.939498
0.659843
0.430462
0.243363
0.0618235
-0.175214
-0.526573
-0.989976
-1.37591
-1.34915
-0.869188
-0.320997
-0.0232635
0.0523193
0.0318475
2.38014
2.12357
2.08848
1.48738
1.07667
0.784015
0.537787
0.331153
0.157103
-0.0166953
-0.246341
-0.586247
-1.02397
-1.37218
-1.33122
-0.878204
-0.361089
-0.0647879
0.0273924
0.0257698
1.25675
1.75416
1.57585
1.20075
0.87376
0.633459
0.421045
0.235413
0.0734018
-0.091029
-0.307899
-0.62555
-1.02505
-1.32955
-1.27643
-0.856712
-0.379818
-0.0945361
0.00727226
0.0203681
-1.10258
0.896815
0.831185
0.829573
0.652253
0.482568
0.308678
0.145502
-0.00320927
-0.156309
-0.357129
-0.648069
-1.00665
-1.26999
-1.20871
-0.822981
-0.386494
-0.115602
-0.00864377
0.0157246
-4.62278
-0.758257
0.0355697
0.420418
0.423489
0.333653
0.20154
0.0626163
-0.0710869
-0.21137
-0.394917
-0.659164
-0.979892
-1.20798
-1.14182
-0.787287
-0.387091
-0.13063
-0.0211603
0.0118122
-8.19668
-2.56604
-0.63316
0.0790327
0.214675
0.195407
0.102191
-0.0129975
-0.130976
-0.25793
-0.424641
-0.664399
-0.952119
-1.15099
-1.08191
-0.754282
-0.38495
-0.141514
-0.0309928
0.00856709
-9.71379
-3.46373
-0.981869
-0.0940206
0.0693908
0.0917786
0.0224397
-0.0766265
-0.182867
-0.299323
-0.451684
-0.669218
-0.926718
-1.0998
-1.02909
-0.724895
-0.381549
-0.149461
-0.0387626
0.00585449
-8.2916
-3.28184
-1.04233
-0.0870879
0.0220586
0.0531494
-0.012236
-0.109348
-0.214395
-0.328658
-0.472832
-0.672674
-0.904946
-1.05763
-0.987004
-0.701576
-0.378015
-0.15477
-0.0443231
0.00373297
-7.7033
-2.92887
-1.24621
-0.165092
-0.0596948
-0.0125028
-0.0611475
-0.148158
-0.245187
-0.353138
-0.490697
-0.680217
-0.896596
-1.03342
-0.958399
-0.682635
-0.372451
-0.156606
-0.0473855
0.00244286
-8.32186
-2.7357
-1.4769
-0.277149
-0.13255
-0.0780293
-0.110622
-0.187902
-0.276338
-0.377068
-0.5076
-0.687184
-0.888932
-1.01096
-0.930659
-0.662836
-0.365444
-0.157446
-0.0499552
0.00129806
-9.19674
-2.67428
-1.65259
-0.42295
-0.204152
-0.142069
-0.157912
-0.225157
-0.305289
-0.39896
-0.522169
-0.691419
-0.878877
-0.987623
-0.903848
-0.64457
-0.359342
-0.158506
-0.0524961
0.000191167
-10.1188
-2.8059
-1.77379
-0.581456
-0.275869
-0.204066
-0.203993
-0.260853
-0.332708
-0.419269
-0.534854
-0.693507
-0.867009
-0.963593
-0.877761
-0.627682
-0.354145
-0.159828
-0.0550378
-0.000889789
-10.9438
-3.04069
-1.8654
-0.741958
-0.351076
-0.264152
-0.249079
-0.29528
-0.358846
-0.438179
-0.545904
-0.6939
-0.853982
-0.939459
-0.852501
-0.611825
-0.34951
-0.161256
-0.0575331
-0.00193964
-11.783
-3.38149
-1.95582
-0.898463
-0.431048
-0.322714
-0.293198
-0.328465
-0.383712
-0.45573
-0.555447
-0.692847
-0.840138
-0.915568
-0.828256
-0.596964
-0.345342
-0.162749
-0.059973
-0.00296087
-12.6882
-3.8043
-2.05752
-1.04776
-0.515943
-0.380313
-0.336411
-0.360477
-0.407353
-0.472
-0.563639
-0.690594
-0.825757
-0.892152
-0.80517
-0.583154
-0.341654
-0.164316
-0.0623661
-0.00395932
-13.7375
-4.34581
-2.18804
-1.19048
-0.605389
-0.437576
-0.378819
-0.391424
-0.429858
-0.487105
-0.570664
-0.687407
-0.811123
-0.869418
-0.783341
-0.570415
-0.338449
-0.165965
-0.0647201
-0.0049405
-14.8601
-4.98309
-2.35785
-1.33015
-0.699198
-0.49518
-0.420565
-0.421432
-0.451337
-0.501175
-0.576712
-0.68354
-0.7965
-0.847552
-0.762833
-0.558735
-0.335712
-0.167696
-0.0670397
-0.0059093
)
;

boundaryField
{
    inlet
    {
        type            freestreamPressure;
        freestreamValue uniform 0;
        supersonic      false;
        value           nonuniform List<scalar> 
40
(
0.252091
0.0836895
-0.098498
-0.291065
-0.488465
-0.684363
-0.87033
-1.03101
-1.14967
-1.21607
1.30497
1.19399
1.0845
0.976812
0.871206
0.767904
0.667094
0.568951
0.473555
0.380533
2.40643
2.30313
2.19754
2.08968
1.97985
1.8685
1.75609
1.64308
1.52993
1.41709
4.0335
3.9737
3.86622
3.71851
3.53971
3.34091
3.13351
2.9276
2.73094
2.54787
)
;
    }
    outlet
    {
        type            freestreamPressure;
        freestreamValue uniform 0;
        supersonic      false;
        value           nonuniform List<scalar> 
40
(
-6.19397e-05
-6.2693e-05
-6.16026e-05
-5.8645e-05
-5.32526e-05
-4.50387e-05
-3.41584e-05
-2.15778e-05
-9.41573e-06
-1.19051e-06
-3.26295e-05
-3.64563e-05
-4.00494e-05
-4.34293e-05
-4.65994e-05
-4.95607e-05
-5.23123e-05
-5.48571e-05
-5.7207e-05
-5.93408e-05
1.997e-05
1.30031e-05
6.86007e-06
1.0018e-06
-4.6174e-06
-9.95283e-06
-1.50015e-05
-1.97791e-05
-2.43007e-05
-2.85782e-05
6.57126e-06
4.44193e-05
8.16563e-05
0.000100908
0.000102517
9.27211e-05
7.7517e-05
6.09482e-05
4.53213e-05
3.13556e-05
)
;
    }
    top
    {
        type            symmetryPlane;
    }
    bottom
    {
        type            symmetryPlane;
    }
    cylinder
    {
        type            zeroGradient;
    }
    frontandback
    {
        type            empty;
    }
}


// ************************************************************************* //
