/*--------------------------------*- C++ -*----------------------------------*\
  =========                 |
  \\      /  F ield         | OpenFOAM: The Open Source CFD Toolbox
   \\    /   O peration     | Website:  https://openfoam.org
    \\  /    A nd           | Version:  6.0
     \\/     M anipulation  |
\*---------------------------------------------------------------------------*/
FoamFile
{
    version     2.0;
    format      ascii;
    class       volScalarField;
    location    "28";
    object      p;
}
// * * * * * * * * * * * * * * * * * * * * * * * * * * * * * * * * * * * * * //

dimensions      [0 2 -2 0 0 0 0];

internalField   nonuniform List<scalar> 
19200
(
-41.502
-37.9423
-35.3751
-33.2562
-31.2954
-29.486
-27.8124
-26.2526
-24.7925
-23.4227
-22.1362
-20.9272
-19.7909
-18.7231
-17.7199
-16.7775
-15.8924
-15.0612
-14.2805
-13.5471
-12.858
-12.2102
-11.6009
-11.0276
-10.4877
-9.97916
-9.49979
-9.04767
-8.62096
-8.21896
-41.986
-38.4272
-35.8509
-33.7171
-31.7388
-29.9107
-28.2178
-26.6388
-25.16
-23.7723
-22.4689
-21.244
-20.093
-19.0116
-17.9958
-17.042
-16.1463
-15.3054
-14.5159
-13.7744
-13.0777
-12.423
-11.8073
-11.228
-10.6826
-10.1688
-9.68457
-9.22774
-8.79639
-8.39068
-42.4751
-38.9116
-36.325
-34.1762
-32.1803
-30.3333
-28.6211
-27.0228
-25.5253
-24.1197
-22.7993
-21.5587
-20.393
-19.298
-18.2698
-17.3045
-16.3984
-15.5479
-14.7496
-14
-13.2959
-12.6343
-12.0123
-11.4271
-10.8761
-10.3571
-9.86796
-9.40642
-8.97044
-8.56109
-42.9664
-39.3957
-36.7975
-34.6333
-32.6197
-30.7537
-29.0219
-27.4044
-25.8881
-24.4646
-23.1273
-21.8709
-20.6905
-19.5821
-18.5415
-17.5648
-16.6483
-15.7883
-14.9813
-14.2237
-13.5123
-12.8439
-12.2155
-11.6244
-11.068
-10.5439
-10.0498
-9.58358
-9.14298
-8.73007
-43.4577
-39.8791
-37.2684
-35.0884
-33.0567
-31.1715
-29.4202
-27.7832
-26.2481
-24.8067
-23.4526
-22.1804
-20.9855
-19.8636
-18.8107
-17.8228
-16.896
-16.0266
-15.2109
-14.4454
-13.7267
-13.0515
-12.4169
-11.82
-11.2582
-10.7289
-10.23
-9.75908
-9.31388
-8.8975
-43.9481
-40.361
-37.7374
-35.5412
-33.4911
-31.5865
-29.8155
-28.1591
-26.6052
-25.1458
-23.7748
-22.4869
-21.2776
-20.1424
-19.0773
-18.0782
-17.1412
-16.2625
-15.4382
-14.6649
-13.939
-13.2572
-12.6164
-12.0137
-11.4464
-10.9121
-10.4084
-9.93282
-9.48304
-9.06329
-44.4367
-40.8409
-38.204
-35.9913
-33.9227
-31.9985
-30.2077
-28.5317
-26.9589
-25.4816
-24.0938
-22.7904
-21.5666
-20.4182
-19.3409
-18.3308
-17.3837
-16.4958
-15.6631
-14.882
-14.149
-13.4606
-12.8137
-12.2053
-11.6327
-11.0933
-10.5849
-10.1047
-9.65035
-9.22732
-44.9229
-41.3183
-38.6678
-36.4383
-34.351
-32.4071
-30.5963
-28.9008
-27.3091
-25.814
-24.4094
-23.0904
-21.8523
-20.6908
-19.6016
-18.5805
-17.6234
-16.7263
-15.8853
-15.0966
-14.3565
-13.6616
-13.0087
-12.3947
-11.8168
-11.2725
-10.7594
-10.2746
-9.81572
-9.38952
-45.4063
-41.7927
-39.1285
-36.882
-34.7758
-32.8121
-30.9813
-29.266
-27.6555
-26.1425
-24.7213
-23.3868
-22.1345
-20.96
-19.8589
-18.827
-17.8601
-16.954
-16.1048
-15.3085
-14.5615
-13.8602
-13.2013
-12.5818
-11.9987
-11.4495
-10.9317
-10.4423
-9.97903
-9.54978
-45.8863
-42.2638
-39.5857
-37.322
-35.1967
-33.213
-31.3621
-29.6273
-27.9979
-26.4671
-25.0292
-23.6794
-22.413
-21.2256
-20.1127
-19.0701
-18.0935
-17.1785
-16.3212
-15.5175
-14.7637
-14.0561
-13.3914
-12.7664
-12.1782
-11.6241
-11.1018
-10.6079
-10.1402
-9.70802
-46.3626
-42.731
-40.0389
-37.758
-35.6135
-33.6097
-31.7387
-29.9841
-28.3359
-26.7873
-25.333
-23.9679
-22.6875
-21.4873
-20.3629
-19.3098
-18.3235
-17.3998
-16.5345
-15.7235
-14.963
-14.2492
-13.5787
-12.9484
-12.3551
-11.7963
-11.2695
-10.7712
-10.2991
-9.86415
-46.8348
-43.1941
-40.4878
-38.1895
-36.0257
-34.0019
-32.1106
-30.3364
-28.6693
-27.1031
-25.6323
-24.2521
-22.9579
-21.7451
-20.6092
-19.5456
-18.5499
-17.6176
-16.7445
-15.9263
-15.1592
-14.4393
-13.7632
-13.1276
-12.5294
-11.966
-11.4347
-10.932
-10.4557
-10.0181
-47.3026
-43.6527
-40.9322
-38.6164
-36.4332
-34.3891
-32.4777
-30.6837
-28.9979
-27.4141
-25.927
-24.5318
-23.2238
-21.9986
-20.8514
-19.7776
-18.7726
-17.8318
-16.9509
-16.1257
-15.3521
-14.6263
-13.9447
-13.3039
-12.7009
-12.1329
-11.5973
-11.0904
-10.6099
-10.1697
-47.7655
-44.1064
-41.3716
-39.0382
-36.8355
-34.7712
-32.8395
-31.0259
-29.3214
-27.7201
-26.2168
-24.8067
-23.4852
-22.2477
-21.0893
-20.0054
-18.9912
-18.0422
-17.1537
-16.3216
-15.5416
-14.81
-14.1229
-13.4771
-12.8694
-12.297
-11.7572
-11.2461
-10.7615
-10.319
-48.2232
-44.555
-41.8058
-39.4547
-37.2325
-35.1478
-33.1959
-31.3627
-29.6396
-28.0209
-26.5015
-25.0767
-23.7418
-22.4921
-21.3227
-20.2289
-19.2057
-18.2485
-17.3526
-16.5137
-15.7275
-14.9901
-14.2978
-13.6471
-13.0349
-12.4581
-11.9142
-11.399
-10.9104
-10.4658
-48.6755
-44.9981
-42.2345
-39.8656
-37.6237
-35.5188
-33.5466
-31.6939
-29.9522
-28.3162
-26.7809
-25.3415
-23.9934
-22.7317
-21.5515
-20.4479
-19.4158
-18.4506
-17.5474
-16.7019
-15.9096
-15.1667
-14.4692
-13.8137
-13.197
-12.6161
-12.0681
-11.549
-11.0565
-10.6099
-49.1221
-45.4355
-42.6573
-40.2705
-38.009
-35.8837
-33.8914
-32.0191
-30.259
-28.6058
-27.0547
-25.6009
-24.2397
-22.9662
-21.7754
-20.6621
-19.6214
-18.6483
-17.738
-16.8859
-16.0877
-15.3393
-14.6368
-13.9767
-13.3556
-12.7706
-12.2189
-11.696
-11.1997
-10.7513
-49.5627
-45.8668
-43.0741
-40.6693
-38.3881
-36.2424
-34.2299
-32.3382
-30.5598
-28.8895
-27.3228
-25.8548
-24.4807
-23.1955
-21.9942
-20.8714
-19.8222
-18.8414
-17.9241
-17.0656
-16.2616
-15.5079
-14.8005
-14.1358
-13.5105
-12.9216
-12.3662
-11.8396
-11.3397
-10.8898
-49.9972
-46.292
-43.4845
-41.0617
-38.7607
-36.5947
-34.562
-32.6509
-30.8543
-29.1672
-27.5849
-26.1028
-24.716
-23.4194
-22.2077
-21.0757
-20.018
-19.0296
-18.1054
-17.2408
-16.431
-15.6721
-14.9599
-14.2908
-13.6615
-13.0688
-12.5099
-11.9797
-11.4764
-11.0251
-50.4253
-46.7107
-43.8884
-41.4475
-39.1266
-36.9402
-34.8874
-32.9571
-31.1423
-29.4384
-27.8409
-26.3449
-24.9455
-23.6376
-22.4157
-21.2746
-20.2087
-19.2128
-18.2819
-17.4111
-16.5958
-15.8317
-15.1149
-14.4415
-13.8082
-13.2119
-12.6496
-12.116
-11.6094
-11.1569
-50.8469
-47.1228
-44.2856
-41.8264
-39.4856
-37.2788
-35.206
-33.2564
-31.4237
-29.7032
-28.0905
-26.5808
-25.169
-23.85
-22.6182
-21.468
-20.394
-19.3908
-18.4533
-17.5764
-16.7556
-15.9866
-15.2651
-14.5876
-13.9504
-13.3506
-12.785
-12.2482
-11.7384
-11.285
-51.262
-47.5281
-44.6758
-42.1983
-39.8375
-37.6102
-35.5174
-33.5488
-31.6982
-29.9613
-28.3336
-26.8104
-25.3865
-24.0565
-22.8148
-21.6558
-20.5738
-19.5634
-18.6193
-17.7365
-16.9103
-16.1363
-15.4103
-14.7286
-14.0877
-13.4845
-12.9157
-12.3759
-11.8631
-11.4089
-51.6707
-47.9267
-45.059
-42.5628
-40.1819
-37.9343
-35.8215
-33.8339
-31.9657
-30.2125
-28.5701
-27.0335
-25.5976
-24.2568
-23.0055
-21.8378
-20.7479
-19.7304
-18.7799
-17.8912
-17.0596
-16.2806
-15.5502
-14.8644
-14.2197
-13.6132
-13.0413
-12.4986
-11.9828
-11.528
-52.0731
-48.3183
-45.4348
-42.9199
-40.5188
-38.2507
-36.1181
-34.1116
-32.2259
-30.4567
-28.7997
-27.25
-25.8023
-24.4509
-23.1901
-22.0138
-20.9162
-19.8917
-18.9347
-18.0402
-17.2032
-16.4194
-15.6844
-14.9945
-14.3461
-13.7362
-13.1614
-12.6157
-12.0971
-11.642
-52.4694
-48.7028
-45.8031
-43.2692
-40.8477
-38.5593
-36.4069
-34.3818
-32.4788
-30.6938
-29.0225
-27.4598
-26.0005
-24.6388
-23.3686
-22.1839
-21.0787
-20.0472
-19.0838
-18.1834
-17.3411
-16.5522
-15.8127
-15.1186
-14.4664
-13.853
-13.2752
-12.7266
-12.2053
-11.7503
-52.8597
-49.0799
-46.1636
-43.6104
-41.1686
-38.8598
-36.6877
-34.6442
-32.7241
-30.9236
-29.2381
-27.6629
-26.1922
-24.8203
-23.5409
-22.3479
-21.2351
-20.1967
-19.2271
-18.3208
-17.473
-16.6791
-15.9348
-15.2363
-14.5801
-13.9631
-13.382
-12.8304
-12.3064
-11.8506
-53.2454
-49.4498
-46.5159
-43.9432
-41.4809
-39.1518
-36.9603
-34.8986
-32.9617
-31.1459
-29.4467
-27.8591
-26.3773
-24.9954
-23.707
-22.5059
-21.3857
-20.3405
-19.3645
-18.4523
-17.599
-16.7998
-16.0507
-15.3476
-14.6871
-14.0661
-13.4816
-12.9269
-12.3994
-11.941
-53.6308
-49.8137
-46.8596
-44.2669
-41.784
-39.4348
-37.2242
-35.1446
-33.1913
-31.3606
-29.6479
-28.0482
-26.5557
-25.164
-23.8669
-22.6578
-21.5303
-20.4784
-19.4961
-18.578
-17.719
-16.9145
-16.1601
-15.4521
-14.7869
-14.1619
-13.5737
-13.0155
-12.484
-12.0262
-54.0192
-50.1711
-47.1932
-44.5801
-42.0773
-39.7086
-37.4793
-35.3822
-33.4129
-31.5676
-29.8419
-28.2305
-26.7274
-25.3264
-24.0207
-22.8039
-21.6693
-20.6107
-19.6221
-18.6981
-17.8333
-17.0232
-16.2633
-15.5497
-14.879
-14.2486
-13.6549
-13.0909
-12.557
-12.1122
-54.3868
-50.5126
-47.514
-44.8825
-42.3613
-39.9738
-37.7264
-35.6124
-33.6274
-31.768
-30.0295
-28.4066
-26.8933
-25.4831
-24.1691
-22.9447
-21.8032
-20.7381
-19.7434
-18.8134
-17.9429
-17.1269
-16.3611
-15.6412
-14.9639
-14.3258
-13.7222
-13.1473
-12.6113
-12.1706
-59.6403
-59.6263
-59.5909
-59.5491
-59.4991
-59.4383
-59.366
-59.2819
-59.1862
-59.0786
-58.9593
-58.8281
-58.6852
-58.5308
-58.3649
-58.1877
-57.9994
-57.8002
-57.5901
-57.3695
-57.1386
-56.8976
-56.6467
-56.3863
-56.1167
-55.8386
-55.5528
-55.2606
-54.9653
-54.6713
-55.5635
-55.5653
-55.5489
-55.5207
-55.481
-55.429
-55.3648
-55.2884
-55.2
-55.0998
-54.9877
-54.8638
-54.7284
-54.5814
-54.4232
-54.2537
-54.0732
-53.8818
-53.6798
-53.4673
-53.2445
-53.0116
-52.769
-52.5168
-52.2554
-51.9851
-51.7066
-51.4203
-51.1267
-50.8246
-52.2259
-52.2397
-52.2379
-52.2222
-52.1937
-52.1526
-52.0992
-52.0336
-51.956
-51.8667
-51.7656
-51.653
-51.5289
-51.3935
-51.2469
-51.0893
-50.9208
-50.7416
-50.5519
-50.3519
-50.1417
-49.9215
-49.6915
-49.452
-49.2031
-48.9451
-48.6781
-48.4022
-48.117
-47.8212
-49.1957
-49.2187
-49.2278
-49.2233
-49.2059
-49.1761
-49.1342
-49.0804
-49.0148
-48.9376
-48.849
-48.749
-48.6379
-48.5156
-48.3825
-48.2386
-48.0841
-47.9191
-47.7438
-47.5584
-47.3629
-47.1577
-46.9427
-46.7183
-46.4845
-46.2414
-45.989
-45.7274
-45.4561
-45.1747
-46.2681
-46.2984
-46.3164
-46.3215
-46.3141
-46.2947
-46.2636
-46.221
-46.1669
-46.1015
-46.0251
-45.9377
-45.8394
-45.7304
-45.6109
-45.4809
-45.3406
-45.1902
-45.0297
-44.8594
-44.6794
-44.4897
-44.2906
-44.0821
-43.8644
-43.6374
-43.4013
-43.1558
-42.9009
-42.6363
-43.4962
-43.5323
-43.5572
-43.57
-43.5709
-43.5603
-43.5384
-43.5054
-43.4615
-43.4067
-43.3413
-43.2653
-43.1789
-43.0822
-42.9753
-42.8584
-42.7316
-42.5951
-42.4489
-42.2931
-42.128
-41.9536
-41.77
-41.5773
-41.3756
-41.1648
-40.9451
-40.7163
-40.4784
-40.231
-40.9026
-40.9428
-40.9726
-40.991
-40.9982
-40.9945
-40.98
-40.9549
-40.9194
-40.8736
-40.8175
-40.7514
-40.6754
-40.5895
-40.4939
-40.3887
-40.2741
-40.1501
-40.0169
-39.8746
-39.7232
-39.563
-39.3939
-39.2161
-39.0296
-38.8344
-38.6305
-38.4179
-38.1965
-37.9661
-38.4877
-38.5303
-38.5632
-38.5854
-38.597
-38.5983
-38.5894
-38.5705
-38.5416
-38.5029
-38.4545
-38.3966
-38.3292
-38.2525
-38.1665
-38.0714
-37.9673
-37.8544
-37.7326
-37.6022
-37.4632
-37.3158
-37.1599
-36.9957
-36.8231
-36.6423
-36.4531
-36.2557
-36.0498
-35.8355
-36.248
-36.2916
-36.326
-36.3504
-36.3649
-36.3695
-36.3646
-36.3501
-36.3262
-36.2931
-36.2507
-36.1993
-36.1389
-36.0696
-35.9917
-35.905
-35.8099
-35.7063
-35.5945
-35.4744
-35.3462
-35.2099
-35.0657
-34.9136
-34.7536
-34.5857
-34.41
-34.2264
-34.0348
-33.8353
-34.1768
-34.2203
-34.2551
-34.2804
-34.2963
-34.303
-34.3006
-34.2892
-34.2689
-34.2398
-34.202
-34.1556
-34.1007
-34.0375
-33.9659
-33.8863
-33.7985
-33.7028
-33.5993
-33.488
-33.3691
-33.2425
-33.1085
-32.967
-32.8181
-32.6617
-32.498
-32.3268
-32.1482
-31.962
-32.2647
-32.3071
-32.3413
-32.3666
-32.383
-32.3906
-32.3896
-32.3802
-32.3623
-32.336
-32.3015
-32.2589
-32.2083
-32.1497
-32.0833
-32.0093
-31.9276
-31.8384
-31.7418
-31.6379
-31.5268
-31.4086
-31.2833
-31.1511
-31.0118
-30.8656
-30.7125
-30.5524
-30.3853
-30.2111
-30.5004
-30.5411
-30.574
-30.5985
-30.6146
-30.6224
-30.622
-30.6136
-30.5972
-30.5728
-30.5407
-30.5009
-30.4534
-30.3985
-30.3362
-30.2666
-30.1898
-30.1059
-30.0151
-29.9174
-29.8129
-29.7018
-29.584
-29.4597
-29.3289
-29.1916
-29.0478
-28.8975
-28.7406
-28.5771
-28.872
-28.9107
-28.9419
-28.9651
-28.9803
-28.9877
-28.9873
-28.9793
-28.9636
-28.9405
-28.9099
-28.8721
-28.827
-28.7748
-28.7157
-28.6496
-28.5768
-28.4973
-28.4112
-28.3187
-28.2198
-28.1147
-28.0034
-27.8859
-27.7624
-27.6329
-27.4973
-27.3556
-27.2079
-27.0539
-27.3677
-27.4041
-27.4334
-27.455
-27.469
-27.4756
-27.4748
-27.4666
-27.4513
-27.4288
-27.3993
-27.3628
-27.3195
-27.2694
-27.2127
-27.1495
-27.0798
-27.0039
-26.9218
-26.8336
-26.7394
-26.6394
-26.5335
-26.422
-26.3049
-26.1822
-26.0538
-25.9198
-25.7802
-25.6347
-25.9762
-26.0102
-26.0374
-26.0572
-26.0699
-26.0754
-26.0738
-26.0653
-26.0499
-26.0277
-25.9988
-25.9632
-25.9212
-25.8727
-25.8179
-25.757
-25.6899
-25.6169
-25.5381
-25.4535
-25.3634
-25.2677
-25.1667
-25.0603
-24.9487
-24.832
-24.71
-24.5829
-24.4505
-24.3127
-24.6868
-24.7185
-24.7435
-24.7616
-24.7727
-24.777
-24.7746
-24.7655
-24.7498
-24.7276
-24.699
-24.6641
-24.623
-24.5757
-24.5225
-24.4634
-24.3985
-24.3279
-24.2518
-24.1703
-24.0836
-23.9917
-23.8948
-23.7929
-23.6863
-23.5748
-23.4586
-23.3376
-23.2118
-23.081
-23.49
-23.5193
-23.5422
-23.5584
-23.568
-23.5711
-23.5677
-23.5579
-23.5418
-23.5195
-23.4911
-23.4566
-23.4161
-23.3698
-23.3178
-23.2602
-23.1971
-23.1286
-23.0548
-22.976
-22.8922
-22.8036
-22.7103
-22.6124
-22.5101
-22.4034
-22.2923
-22.1769
-22.0571
-21.9327
-22.3767
-22.4038
-22.4247
-22.4392
-22.4473
-22.4491
-22.4447
-22.4342
-22.4176
-22.3951
-22.3667
-22.3324
-22.2925
-22.247
-22.196
-22.1396
-22.078
-22.0113
-21.9396
-21.863
-21.7818
-21.6961
-21.6059
-21.5116
-21.4131
-21.3107
-21.2044
-21.0941
-20.9798
-20.8613
-21.3392
-21.3641
-21.3831
-21.3959
-21.4026
-21.4032
-21.3979
-21.3866
-21.3696
-21.3468
-21.3183
-21.2842
-21.2447
-21.1998
-21.1497
-21.0944
-21.0341
-20.9689
-20.899
-20.8245
-20.7455
-20.6623
-20.575
-20.4838
-20.3889
-20.2903
-20.1882
-20.0827
-19.9735
-19.8606
-20.3703
-20.3933
-20.4105
-20.4217
-20.427
-20.4265
-20.4203
-20.4083
-20.3907
-20.3676
-20.3391
-20.3052
-20.266
-20.2217
-20.1723
-20.1179
-20.0588
-19.995
-19.9267
-19.8539
-19.777
-19.6961
-19.6113
-19.5229
-19.4311
-19.336
-19.2379
-19.1367
-19.0325
-18.9249
-19.4639
-19.485
-19.5005
-19.5103
-19.5143
-19.5127
-19.5056
-19.493
-19.475
-19.4516
-19.423
-19.3892
-19.3503
-19.3065
-19.2578
-19.2043
-19.1462
-19.0836
-19.0167
-18.9456
-18.8705
-18.7916
-18.709
-18.6232
-18.5342
-18.4423
-18.3478
-18.2508
-18.1511
-18.0488
-18.6143
-18.6336
-18.6476
-18.656
-18.6589
-18.6564
-18.6484
-18.6352
-18.6168
-18.5932
-18.5645
-18.5308
-18.4922
-18.4488
-18.4007
-18.3481
-18.2909
-18.2295
-18.1638
-18.0942
-18.0207
-17.9436
-17.8631
-17.7795
-17.693
-17.604
-17.5128
-17.4196
-17.3245
-17.2272
-17.8165
-17.8343
-17.8469
-17.854
-17.8558
-17.8524
-17.8438
-17.83
-17.8112
-17.7874
-17.7586
-17.7251
-17.6868
-17.6438
-17.5963
-17.5444
-17.4881
-17.4277
-17.3633
-17.2949
-17.2229
-17.1474
-17.0687
-16.9871
-16.9029
-16.8165
-16.7283
-16.6387
-16.5478
-16.4556
-17.0663
-17.0827
-17.0939
-17.0999
-17.1008
-17.0965
-17.0872
-17.073
-17.0538
-17.0298
-17.0011
-16.9677
-16.9296
-16.8871
-16.8402
-16.7889
-16.7335
-16.6741
-16.6107
-16.5436
-16.4729
-16.3988
-16.3217
-16.2418
-16.1596
-16.0755
-15.99
-15.9036
-15.8169
-15.7297
-16.3598
-16.3748
-16.3848
-16.3898
-16.3897
-16.3848
-16.3749
-16.3603
-16.3408
-16.3167
-16.2879
-16.2547
-16.2169
-16.1748
-16.1284
-16.0779
-16.0232
-15.9647
-15.9023
-15.8363
-15.7668
-15.694
-15.6183
-15.5399
-15.4593
-15.3771
-15.2939
-15.2105
-15.1277
-15.0456
-15.6935
-15.7072
-15.7161
-15.7201
-15.7193
-15.7136
-15.7033
-15.6882
-15.6685
-15.6443
-15.6156
-15.5824
-15.545
-15.5032
-15.4574
-15.4074
-15.3536
-15.2958
-15.2344
-15.1694
-15.1009
-15.0293
-14.9548
-14.8776
-14.7984
-14.7176
-14.6362
-14.5552
-14.476
-14.3993
-15.0644
-15.0769
-15.0848
-15.0879
-15.0863
-15.08
-15.0692
-15.0537
-15.0338
-15.0094
-14.9807
-14.9477
-14.9105
-14.8691
-14.8237
-14.7743
-14.721
-14.664
-14.6034
-14.5392
-14.4717
-14.401
-14.3274
-14.2512
-14.1728
-14.093
-14.0127
-13.9334
-13.857
-13.7851
-14.4697
-14.4813
-14.4884
-14.4908
-14.4886
-14.4818
-14.4706
-14.4549
-14.4349
-14.4105
-14.3818
-14.349
-14.312
-14.271
-14.2261
-14.1772
-14.1246
-14.0683
-14.0084
-13.945
-13.8783
-13.8084
-13.7355
-13.66
-13.5822
-13.5028
-13.423
-13.3446
-13.2701
-13.2018
-13.9065
-13.9176
-13.9243
-13.9264
-13.9241
-13.9173
-13.9062
-13.8908
-13.8711
-13.8471
-13.8191
-13.7869
-13.7507
-13.7106
-13.6667
-13.6189
-13.5675
-13.5124
-13.4539
-13.3919
-13.3266
-13.2581
-13.1866
-13.1124
-13.0357
-12.9572
-12.8778
-12.8002
-12.7278
-12.6661
-13.3732
-13.3825
-13.3876
-13.3884
-13.385
-13.3773
-13.3655
-13.3496
-13.3297
-13.3057
-13.2778
-13.246
-13.2105
-13.1711
-13.1281
-13.0816
-13.0314
-12.9779
-12.9209
-12.8607
-12.7973
-12.7308
-12.6612
-12.5889
-12.5138
-12.4365
-12.3574
-12.2792
-12.204
-12.1575
-53.3648
-53.7316
-54.0745
-54.4188
-54.7611
-55.0962
-55.4224
-55.739
-56.0454
-56.341
-56.6251
-56.8974
-57.1576
-57.4052
-57.6402
-57.8622
-58.0711
-58.2668
-58.4491
-58.618
-58.7735
-58.9154
-59.044
-59.1591
-59.261
-59.35
-59.4265
-59.4913
-59.5464
-59.5944
-49.2219
-49.6031
-49.9661
-50.3211
-50.6684
-51.0061
-51.3336
-51.6508
-51.9573
-52.2528
-52.5369
-52.8094
-53.0699
-53.3181
-53.5539
-53.777
-53.9873
-54.1846
-54.3689
-54.5401
-54.698
-54.8428
-54.9743
-55.0926
-55.1979
-55.2903
-55.3701
-55.4374
-55.4928
-55.5349
-45.8249
-46.2076
-46.5765
-46.9338
-47.281
-47.6179
-47.9446
-48.2609
-48.5665
-48.8613
-49.145
-49.4173
-49.6779
-49.9267
-50.1635
-50.388
-50.6001
-50.7997
-50.9866
-51.1608
-51.3222
-51.4707
-51.6064
-51.7293
-51.8393
-51.9365
-52.021
-52.0927
-52.1513
-52.1958
-42.7826
-43.1586
-43.5235
-43.8771
-44.2203
-44.5535
-44.8766
-45.1896
-45.4923
-45.7844
-46.0658
-46.3362
-46.5954
-46.8433
-47.0795
-47.3041
-47.5167
-47.7173
-47.9058
-48.0821
-48.246
-48.3976
-48.5368
-48.6635
-48.7778
-48.8796
-48.9688
-49.0454
-49.109
-49.1592
-39.9028
-40.2682
-40.6246
-40.9708
-41.3071
-41.6336
-41.9506
-42.2577
-42.555
-42.8421
-43.1189
-43.3852
-43.6408
-43.8856
-44.1194
-44.3419
-44.5532
-44.7529
-44.9411
-45.1177
-45.2825
-45.4354
-45.5765
-45.7057
-45.8228
-45.9279
-46.0209
-46.1016
-46.17
-46.2255
-37.2366
-37.5897
-37.9351
-38.2712
-38.598
-38.9156
-39.224
-39.5231
-39.8127
-40.0927
-40.3629
-40.6231
-40.8731
-41.1129
-41.3421
-41.5607
-41.7686
-41.9656
-42.1516
-42.3265
-42.4902
-42.6427
-42.7838
-42.9136
-43.032
-43.1388
-43.234
-43.3175
-43.3892
-43.4489
-34.7974
-35.1371
-35.4699
-35.7942
-36.1098
-36.4167
-36.7149
-37.0043
-37.2848
-37.556
-37.818
-38.0705
-38.3133
-38.5464
-38.7695
-38.9825
-39.1853
-39.3778
-39.5599
-39.7315
-39.8924
-40.0427
-40.1822
-40.3109
-40.4288
-40.5356
-40.6315
-40.7163
-40.7898
-40.8521
-32.5735
-32.8992
-33.2186
-33.5302
-33.8336
-34.1289
-34.4159
-34.6946
-34.9648
-35.2263
-35.479
-35.7226
-35.9571
-36.1823
-36.398
-36.6042
-36.8007
-36.9874
-37.1643
-37.3311
-37.4879
-37.6346
-37.771
-37.8972
-38.0131
-38.1186
-38.2136
-38.2981
-38.3721
-38.4354
-30.5493
-30.861
-31.1668
-31.4653
-31.7562
-32.0394
-32.3148
-32.5823
-32.8417
-33.0928
-33.3355
-33.5696
-33.7951
-34.0117
-34.2193
-34.4178
-34.6071
-34.7871
-34.9577
-35.1189
-35.2705
-35.4125
-35.5448
-35.6673
-35.7801
-35.883
-35.9761
-36.0592
-36.1322
-36.1953
-28.7075
-29.0055
-29.2978
-29.5834
-29.8617
-30.1328
-30.3965
-30.6527
-30.9011
-31.1417
-31.3742
-31.5986
-31.8146
-32.0222
-32.2213
-32.4117
-32.5933
-32.7661
-32.9299
-33.0848
-33.2305
-33.3671
-33.4945
-33.6127
-33.7215
-33.821
-33.9111
-33.9918
-34.0631
-34.1249
-27.0297
-27.3145
-27.5939
-27.8668
-28.1329
-28.3922
-28.6444
-28.8895
-29.1271
-29.3572
-29.5796
-29.7942
-30.0009
-30.1995
-30.3899
-30.572
-30.7457
-30.911
-31.0678
-31.216
-31.3555
-31.4863
-31.6084
-31.7216
-31.826
-31.9215
-32.0081
-32.0858
-32.1545
-32.2143
-25.4983
-25.7705
-26.0375
-26.2984
-26.5528
-26.8007
-27.0419
-27.2761
-27.5033
-27.7233
-27.9358
-28.1409
-28.3384
-28.5281
-28.7099
-28.8838
-29.0497
-29.2076
-29.3572
-29.4987
-29.6318
-29.7567
-29.8732
-29.9813
-30.0809
-30.1721
-30.2548
-30.329
-30.3947
-30.452
-24.0967
-24.3571
-24.6124
-24.8619
-25.1053
-25.3423
-25.573
-25.797
-26.0142
-26.2244
-26.4275
-26.6234
-26.812
-26.9931
-27.1667
-27.3326
-27.4909
-27.6414
-27.7841
-27.9188
-28.0457
-28.1646
-28.2755
-28.3784
-28.4732
-28.5599
-28.6386
-28.7092
-28.7716
-28.826
-22.8102
-23.0594
-23.3038
-23.5426
-23.7755
-24.0025
-24.2232
-24.4375
-24.6452
-24.8462
-25.0404
-25.2276
-25.4077
-25.5806
-25.7462
-25.9045
-26.0555
-26.1989
-26.3348
-26.4631
-26.5839
-26.697
-26.8024
-26.9001
-26.9902
-27.0725
-27.147
-27.2138
-27.2729
-27.3243
-21.6255
-21.8644
-22.0986
-22.3274
-22.5506
-22.768
-22.9794
-23.1846
-23.3835
-23.5758
-23.7615
-23.9405
-24.1126
-24.2777
-24.4358
-24.5869
-24.7308
-24.8675
-24.997
-25.1191
-25.234
-25.3415
-25.4417
-25.5344
-25.6198
-25.6977
-25.7683
-25.8314
-25.8871
-25.9354
-20.5313
-20.7605
-20.9852
-21.2047
-21.4188
-21.6274
-21.8301
-22.0268
-22.2174
-22.4016
-22.5794
-22.7506
-22.9151
-23.073
-23.224
-23.3682
-23.5055
-23.6358
-23.7592
-23.8755
-23.9848
-24.087
-24.1821
-24.2701
-24.351
-24.4248
-24.4914
-24.551
-24.6034
-24.6488
-19.5176
-19.7377
-19.9536
-20.1645
-20.3703
-20.5706
-20.7652
-20.954
-21.1368
-21.3134
-21.4837
-21.6477
-21.8052
-21.9562
-22.1005
-22.2383
-22.3694
-22.4937
-22.6113
-22.7221
-22.8261
-22.9233
-23.0137
-23.0972
-23.1738
-23.2436
-23.3066
-23.3627
-23.412
-23.4545
-18.5758
-18.7875
-18.9952
-19.1982
-19.3961
-19.5888
-19.7759
-19.9573
-20.1329
-20.3024
-20.4657
-20.6229
-20.7738
-20.9183
-21.0564
-21.1881
-21.3134
-21.4321
-21.5443
-21.6499
-21.749
-21.8415
-21.9273
-22.0066
-22.0793
-22.1453
-22.2048
-22.2576
-22.3039
-22.3437
-17.6985
-17.9024
-18.1025
-18.2981
-18.4888
-18.6744
-18.8546
-19.0291
-19.1979
-19.3607
-19.5176
-19.6684
-19.813
-19.9515
-20.0838
-20.2098
-20.3296
-20.443
-20.5502
-20.6509
-20.7454
-20.8334
-20.9151
-20.9904
-21.0593
-21.1218
-21.178
-21.2278
-21.2713
-21.3085
-16.8792
-17.0758
-17.2689
-17.4578
-17.6419
-17.8209
-17.9945
-18.1627
-18.3251
-18.4817
-18.6325
-18.7773
-18.9161
-19.0489
-19.1757
-19.2964
-19.411
-19.5196
-19.6219
-19.7182
-19.8082
-19.8921
-19.9699
-20.0415
-20.1069
-20.1661
-20.2192
-20.2662
-20.307
-20.3418
-16.1125
-16.3022
-16.4889
-16.6716
-16.8495
-17.0225
-17.1901
-17.3522
-17.5087
-17.6595
-17.8045
-17.9436
-18.077
-18.2045
-18.3261
-18.4418
-18.5516
-18.6555
-18.7534
-18.8454
-18.9314
-19.0114
-19.0855
-19.1536
-19.2157
-19.2719
-19.3221
-19.3664
-19.4048
-19.4374
-15.3932
-15.5765
-15.7574
-15.9345
-16.1069
-16.2742
-16.4361
-16.5926
-16.7435
-16.8888
-17.0283
-17.1622
-17.2904
-17.4129
-17.5296
-17.6406
-17.7459
-17.8454
-17.9391
-18.0271
-18.1093
-18.1857
-18.2564
-18.3212
-18.3803
-18.4337
-18.4812
-18.5231
-18.5592
-18.5896
-14.7171
-14.8944
-15.0703
-15.2423
-15.4095
-15.5716
-15.7283
-15.8795
-16.025
-16.1651
-16.2995
-16.4284
-16.5517
-16.6694
-16.7815
-16.8881
-16.9891
-17.0845
-17.1744
-17.2586
-17.3372
-17.4103
-17.4777
-17.5396
-17.5958
-17.6465
-17.6916
-17.7311
-17.7651
-17.7936
-14.0799
-14.2518
-14.4235
-14.5912
-14.7537
-14.9109
-15.0626
-15.2087
-15.3493
-15.4843
-15.6139
-15.738
-15.8566
-15.9699
-16.0777
-16.1801
-16.2771
-16.3687
-16.4549
-16.5356
-16.6109
-16.6808
-16.7452
-16.8043
-16.8579
-16.9061
-16.9488
-16.9863
-17.0183
-17.045
-13.4783
-13.6453
-13.8139
-13.9779
-14.1361
-14.2887
-14.4356
-14.577
-14.7127
-14.843
-14.9679
-15.0875
-15.2018
-15.3108
-15.4145
-15.513
-15.6063
-15.6942
-15.7769
-15.8544
-15.9266
-15.9935
-16.0551
-16.1115
-16.1627
-16.2086
-16.2492
-16.2847
-16.3149
-16.34
-12.9085
-13.0725
-13.2395
-13.4003
-13.5544
-13.7026
-13.845
-13.9816
-14.1127
-14.2384
-14.3589
-14.4741
-14.5842
-14.6892
-14.7891
-14.8838
-14.9735
-15.058
-15.1375
-15.2118
-15.2811
-15.3452
-15.4042
-15.4581
-15.507
-15.5507
-15.5894
-15.623
-15.6515
-15.675
-12.364
-12.5295
-12.6975
-12.8554
-13.0055
-13.1494
-13.2873
-13.4194
-13.546
-13.6674
-13.7836
-13.8947
-14.0009
-14.1021
-14.1983
-14.2895
-14.3758
-14.4571
-14.5335
-14.605
-14.6714
-14.733
-14.7895
-14.8411
-14.8878
-14.9295
-14.9663
-14.9982
-15.0251
-15.0472
-11.8309
-12.0036
-12.1777
-12.3338
-12.4802
-12.6203
-12.7541
-12.8821
-13.0047
-13.1221
-13.2346
-13.3421
-13.4448
-13.5427
-13.6357
-13.7239
-13.8073
-13.8859
-13.9597
-14.0287
-14.0928
-14.1521
-14.2066
-14.2563
-14.3012
-14.3412
-14.3765
-14.4069
-14.4326
-14.4535
-11.3097
-11.4892
-11.6738
-11.8311
-11.9748
-12.1114
-12.2417
-12.366
-12.4851
-12.5992
-12.7084
-12.8129
-12.9126
-13.0076
-13.098
-13.1836
-13.2646
-13.3408
-13.4124
-13.4793
-13.5416
-13.5991
-13.6519
-13.7001
-13.7436
-13.7824
-13.8165
-13.846
-13.8708
-13.891
-10.8988
-11.0831
-11.2625
-11.4193
-11.5582
-11.6878
-11.8115
-11.9296
-12.0426
-12.1507
-12.2542
-12.353
-12.4473
-12.537
-12.6221
-12.7027
-12.7788
-12.8504
-12.9175
-12.98
-13.0381
-13.0917
-13.1408
-13.1855
-13.2256
-13.2613
-13.2926
-13.3194
-13.3417
-13.3597
-5.77127
-6.08687
-6.421
-6.77356
-7.1463
-7.54094
-7.95913
-8.40275
-8.87395
-9.37521
-9.9094
-10.4799
-11.0905
-11.7461
-12.452
-13.2151
-14.0431
-14.9458
-15.9345
-17.023
-18.2276
-19.5674
-21.0643
-22.7429
-24.6304
-26.7562
-29.1315
-31.7362
-34.7897
-38.697
-5.95093
-6.27242
-6.61064
-6.96786
-7.3458
-7.74596
-8.17002
-8.6199
-9.09779
-9.60621
-10.1481
-10.7268
-11.3463
-12.0113
-12.7276
-13.5016
-14.3416
-15.2571
-16.2598
-17.3633
-18.5841
-19.9413
-21.4569
-23.1552
-25.0632
-27.2097
-29.6052
-32.2274
-35.2916
-39.1981
-6.1312
-6.45858
-6.80093
-7.16288
-7.5461
-7.95187
-8.38186
-8.83807
-9.32273
-9.8384
-10.388
-10.975
-11.6035
-12.2782
-13.0047
-13.7899
-14.6419
-15.5705
-16.5872
-17.7059
-18.943
-20.3178
-21.852
-23.57
-25.4984
-27.6652
-30.08
-32.7184
-35.7912
-39.6936
-6.3119
-6.64517
-6.99168
-7.35843
-7.74698
-8.15841
-8.59441
-9.05701
-9.5485
-10.0715
-10.6289
-11.2243
-11.8618
-12.5461
-13.2831
-14.0795
-14.9437
-15.8853
-16.9161
-18.05
-19.3035
-20.6958
-22.2488
-23.9864
-25.9349
-28.1218
-30.5555
-33.2102
-36.2937
-40.1976
-6.49289
-6.83203
-7.18275
-7.55436
-7.94831
-8.36546
-8.80751
-9.27657
-9.77495
-10.3053
-10.8706
-11.4744
-12.121
-12.815
-13.5625
-14.3702
-15.2465
-16.2012
-17.2462
-18.3954
-19.6654
-21.0752
-22.6468
-24.404
-26.3726
-28.5795
-31.032
-33.7032
-36.7989
-40.7078
-6.67407
-7.01905
-7.37399
-7.75053
-8.14994
-8.57286
-9.02103
-9.49659
-10.0019
-10.5397
-11.1129
-11.7253
-12.3809
-13.0848
-13.8427
-14.6618
-15.5503
-16.5182
-17.5774
-18.7419
-20.0283
-21.4558
-23.0461
-24.8228
-26.8114
-29.0382
-31.5096
-34.1973
-37.3055
-41.2208
-6.85529
-7.20608
-7.56528
-7.94679
-8.35172
-8.78047
-9.2348
-9.71692
-10.2292
-10.7744
-11.3557
-11.9766
-12.6414
-13.3551
-14.1236
-14.9541
-15.8549
-16.836
-17.9094
-19.0893
-20.3922
-21.8373
-23.4462
-25.2424
-27.2511
-29.4977
-31.9879
-34.6921
-37.813
-41.7354
-7.03644
-7.39299
-7.75647
-8.14302
-8.55352
-8.98814
-9.44868
-9.93741
-10.4568
-11.0095
-11.5987
-12.2282
-12.9022
-13.6258
-14.405
-15.2469
-16.16
-17.1544
-18.2421
-19.4374
-20.7568
-22.2195
-23.8471
-25.6628
-27.6914
-29.9578
-32.4667
-35.1874
-38.3211
-42.2511
-7.21742
-7.57967
-7.94744
-8.33909
-8.7552
-9.19575
-9.66254
-10.1579
-10.6843
-11.2446
-11.8419
-12.48
-13.1633
-13.8968
-14.6866
-15.54
-16.4654
-17.4731
-18.5752
-19.7858
-21.1218
-22.6021
-24.2483
-26.0835
-28.132
-30.4182
-32.9457
-35.6828
-38.8293
-42.7672
-7.39812
-7.766
-8.13807
-8.53486
-8.95664
-9.40315
-9.87623
-10.3783
-10.9118
-11.4796
-12.0851
-12.7318
-13.4243
-14.1678
-14.9683
-15.8331
-16.771
-17.792
-18.9084
-20.1345
-21.4869
-22.9849
-24.6497
-26.5043
-28.5727
-30.8785
-33.4246
-36.178
-39.3372
-43.2831
-7.57844
-7.95187
-8.32824
-8.73023
-9.15772
-9.61022
-10.0896
-10.5984
-11.139
-11.7145
-12.328
-12.9834
-13.6852
-14.4386
-15.2498
-16.1262
-17.0764
-18.1108
-19.2415
-20.483
-21.852
-23.3675
-25.051
-26.9249
-29.013
-31.3383
-33.9029
-36.6725
-39.8443
-43.7982
-7.75829
-8.13718
-8.51787
-8.9251
-9.35834
-9.81686
-10.3026
-10.8181
-11.3659
-11.9489
-12.5706
-13.2347
-13.9458
-14.7092
-15.5311
-16.4189
-17.3815
-18.4292
-19.5743
-20.8312
-22.2167
-23.7499
-25.4518
-27.345
-29.4528
-31.7975
-34.3803
-37.1659
-40.3502
-44.312
-7.93762
-8.32187
-8.70685
-9.11937
-9.55839
-10.0229
-10.515
-11.0373
-11.5922
-12.1829
-12.8127
-13.4855
-14.2058
-14.9792
-15.8118
-16.7112
-17.6861
-18.7472
-19.9066
-21.1789
-22.5809
-24.1315
-25.8519
-27.7644
-29.8916
-32.2556
-34.8565
-37.6578
-40.8544
-44.8239
-8.11636
-8.50587
-8.89513
-9.31297
-9.75778
-10.2284
-10.7269
-11.2558
-11.818
-12.4162
-13.0541
-13.7356
-14.4652
-15.2485
-16.0918
-17.0027
-17.99
-19.0643
-20.2381
-21.5258
-22.9441
-24.5123
-26.2511
-28.1826
-30.3292
-32.7122
-35.331
-38.1479
-41.3565
-45.3336
-8.29449
-8.68912
-9.08264
-9.50582
-9.95646
-10.4331
-10.938
-11.4736
-12.0429
-12.6488
-13.2948
-13.9849
-14.7238
-15.517
-16.371
-17.2933
-18.2929
-19.3805
-20.5685
-21.8715
-23.3063
-24.8918
-26.6489
-28.5993
-30.7652
-33.167
-35.8035
-38.6356
-41.856
-45.8406
-8.472
-8.87161
-9.26935
-9.69789
-10.1543
-10.6371
-11.1482
-11.6906
-12.267
-12.8805
-13.5345
-14.2332
-14.9813
-15.7844
-16.649
-17.5827
-18.5947
-19.6955
-20.8977
-22.216
-23.667
-25.2698
-27.0451
-29.0144
-31.1992
-33.6197
-36.2735
-39.1207
-42.3526
-46.3444
-8.6489
-9.05335
-9.45525
-9.88915
-10.3514
-10.8401
-11.3576
-11.9067
-12.4901
-13.1111
-13.7731
-14.4804
-15.2377
-16.0506
-16.9258
-17.8709
-18.895
-20.009
-21.2254
-22.5588
-24.0261
-25.6461
-27.4394
-29.4273
-31.631
-34.0699
-36.7409
-39.6027
-42.8459
-46.8447
-8.82528
-9.23438
-9.64036
-10.0796
-10.5476
-11.0423
-11.566
-12.1217
-12.7121
-13.3405
-14.0105
-14.7263
-15.4927
-16.3154
-17.201
-18.1574
-19.1937
-20.3208
-21.5513
-22.8998
-24.3831
-26.0202
-27.8315
-29.8379
-32.0602
-34.5173
-37.205
-40.0813
-43.3354
-47.341
-9.00124
-9.41476
-9.8247
-10.2692
-10.7429
-11.2435
-11.7733
-12.3355
-12.9329
-13.5686
-14.2465
-14.9706
-15.7461
-16.5785
-17.4745
-18.4421
-19.4906
-20.6306
-21.8751
-23.2386
-24.738
-26.392
-28.221
-30.2457
-32.4864
-34.9614
-37.6657
-40.5561
-43.8208
-47.8331
-9.17694
-9.59462
-10.0084
-10.458
-10.9373
-11.4436
-11.9795
-12.5481
-13.1522
-13.7952
-14.4809
-15.2134
-15.9977
-16.8397
-17.7461
-18.7248
-19.7853
-20.9383
-22.1966
-23.575
-25.0903
-26.7611
-28.6077
-30.6505
-32.9094
-35.402
-38.1225