/*--------------------------------*- C++ -*----------------------------------*\
| =========                 |                                                 |
| \\      /  F ield         | OpenFOAM: The Open Source CFD Toolbox           |
|  \\    /   O peration     | Version:  v1912                                 |
|   \\  /    A nd           | Website:  www.openfoam.com                      |
|    \\/     M anipulation  |                                                 |
\*---------------------------------------------------------------------------*/
FoamFile
{
    version     2.0;
    format      ascii;
    class       surfaceScalarField;
    location    "63.5";
    object      phi;
}
// * * * * * * * * * * * * * * * * * * * * * * * * * * * * * * * * * * * * * //

dimensions      [0 3 -1 0 0 0 0];
oriented        oriented;


internalField   nonuniform List<scalar> 
18940
(
0.000358472
-0.234359
0.234
0.00137975
-0.216316
0.215295
0.00288436
-0.204781
0.203276
0.00470177
-0.197001
0.195183
0.00670107
-0.191249
0.18925
0.00878052
-0.186459
0.184379
0.0108663
-0.182041
0.179955
0.0129088
-0.1777
0.175658
0.0148781
-0.173312
0.171343
0.0167586
-0.168849
0.166968
0.0185455
-0.16433
0.162543
0.0202415
-0.1598
0.158104
0.0218535
-0.155305
0.153693
0.0233913
-0.150889
0.149351
0.0248662
-0.146589
0.145114
0.0262898
-0.142429
0.141005
0.0276737
-0.138421
0.137037
0.0290283
-0.134563
0.133208
0.0303622
-0.130836
0.129502
-0.127199
0.12588
0.0316805
0.000381902
-0.234741
0.00142307
-0.217357
0.00293841
-0.206296
0.00476012
-0.198822
0.00675388
-0.193243
0.00881799
-0.188523
0.0108799
-0.184103
0.0128916
-0.179712
0.014825
-0.175246
0.0166663
-0.17069
0.0184125
-0.166077
0.0200673
-0.161455
0.0216388
-0.156876
0.0231375
-0.152388
0.024575
-0.148026
0.0259633
-0.143817
0.0273142
-0.139772
0.0286384
-0.135887
0.029945
-0.132142
-0.128493
0.0312399
0.000403332
-0.235144
0.00146073
-0.218414
0.00298479
-0.20782
0.00480705
-0.200645
0.00679162
-0.195227
0.00883673
-0.190568
0.0108711
-0.186137
0.0128485
-0.181689
0.0147429
-0.17714
0.0165423
-0.172489
0.0182452
-0.167779
0.0198568
-0.163066
0.021386
-0.158405
0.022844
-0.153846
0.0242426
-0.149425
0.0255943
-0.145169
0.0269108
-0.141088
0.0282035
-0.13718
0.0294815
-0.13342
-0.129764
0.0307519
0.00041721
-0.235561
0.00148965
-0.219487
0.00302158
-0.209352
0.00484182
-0.202465
0.00681383
-0.197199
0.00883638
-0.19259
0.0108397
-0.18814
0.0127796
-0.183629
0.0146319
-0.178992
0.0163868
-0.174244
0.0180444
-0.169437
0.0196108
-0.164633
0.0210961
-0.159891
0.0225119
-0.155262
0.0238706
-0.150784
0.0251844
-0.146483
0.0264656
-0.142369
0.0277256
-0.13844
0.0289742
-0.134669
-0.131009
0.0302191
0.000428482
-0.23599
0.00151319
-0.220572
0.00305013
-0.210889
0.00486509
-0.20428
0.00682098
-0.199155
0.0088174
-0.194587
0.0107862
-0.190109
0.0126855
-0.185528
0.0144931
-0.1808
0.016201
-0.175952
0.017811
-0.171047
0.0193306
-0.166152
0.0207705
-0.161331
0.0221429
-0.156634
0.0234604
-0.152101
0.0247354
-0.147758
0.0259802
-0.143614
0.0272065
-0.139666
0.0284248
-0.135887
-0.132228
0.0296437
0.000437577
-0.236427
0.00153174
-0.221666
0.00307069
-0.212428
0.00487709
-0.206086
0.00681337
-0.201091
0.00878019
-0.196554
0.0107113
-0.19204
0.0125669
-0.187384
0.014327
-0.18256
0.0159857
-0.177611
0.0175462
-0.172607
0.0190172
-0.167623
0.0204103
-0.162724
0.0217381
-0.157962
0.0230133
-0.153376
0.0242484
-0.148993
0.0254559
-0.144822
0.0266476
-0.140858
0.0278347
-0.137074
-0.13342
0.0290268
0.00044506
-0.236872
0.00154599
-0.222767
0.00308384
-0.213966
0.0048783
-0.207881
0.00679151
-0.203005
0.00872533
-0.198487
0.0106155
-0.19393
0.0124245
-0.189193
0.0141347
-0.18427
0.0157419
-0.179218
0.017251
-0.174117
0.0186718
-0.169044
0.0200167
-0.164069
0.0212986
-0.159244
0.0225304
-0.154608
0.0237246
-0.150187
0.0248937
-0.145991
0.0260498
-0.142014
0.0272047
-0.138229
-0.134584
0.028369
0.000451085
-0.237323
0.00155625
-0.223872
0.00308997
-0.2155
0.00486921
-0.20966
0.00675597
-0.204891
0.00865351
-0.200385
0.0104997
-0.195777
0.0122594
-0.190953
0.0139171
-0.185928
0.0154707
-0.180772
0.0169266
-0.175572
0.0182956
-0.170413
0.0195908
-0.165364
0.0208255
-0.160478
0.0220126
-0.155795
0.0231647
-0.151339
0.0242941
-0.14712
0.0254133
-0.143133
0.0265347
-0.13935
-0.13572
0.0276703
0.000455759
-0.237779
0.00156282
-0.224979
0.00308954
-0.217026
0.00485037
-0.211421
0.00670743
-0.206748
0.00856555
-0.202243
0.0103649
-0.197576
0.0120726
-0.192661
0.0136755
-0.187531
0.0151734
-0.18227
0.0165741
-0.176973
0.0178897
-0.171729
0.0191337
-0.166608
0.0203197
-0.161664
0.0214608
-0.156936
0.0225692
-0.152448
0.0236573
-0.148208
0.0247379
-0.144214
0.0258243
-0.140437
-0.136825
0.0269296
0.000459156
-0.238238
0.00156599
-0.226086
0.00308301
-0.218543
0.00482244
-0.21316
0.0066467
-0.208573
0.00846241
-0.204059
0.010212
-0.199326
0.0118653
-0.194314
0.0134111
-0.189076
0.0148513
-0.18371
0.0161951
-0.178317
0.0174554
-0.172989
0.0186465
-0.167799
0.0197822
-0.1628
0.0208754
-0.15803
0.0219383
-0.15351
0.0229832
-0.149253
0.0240231
-0.145254
0.0250722
-0.141486
-0.137898
0.0261453
0.000461382
-0.2387
0.00156609
-0.227191
0.00307097
-0.220048
0.00478616
-0.214875
0.00657473
-0.210361
0.00834524
-0.205829
0.0100426
-0.201023
0.011639
-0.19591
0.0131256
-0.190563
0.0145061
-0.18509
0.0157909
-0.179602
0.0169941
-0.174192
0.0181304
-0.168935
0.0192138
-0.163883
0.020257
-0.159073
0.0212723
-0.154526
0.0222714
-0.150252
0.0232678
-0.14625
0.0242765
-0.142495
-0.138936
0.0253145
0.000462593
-0.239162
0.00156358
-0.228291
0.00305409
-0.221539
0.00474244
-0.216564
0.00649263
-0.212111
0.00821535
-0.207552
0.00985806
-0.202666
0.0113954
-0.197448
0.0128208
-0.191988
0.0141396
-0.186409
0.0153636
-0.180826
0.0165077
-0.175336
0.017587
-0.170014
0.0186157
-0.164912
0.0196066
-0.160064
0.0205712
-0.15549
0.0215215
-0.151203
0.0224707
-0.147199
0.0234352
-0.143459
-0.139935
0.0244343
0.000463066
-0.239625
0.00155906
-0.229387
0.00303324
-0.223013
0.00469236
-0.218223
0.00640171
-0.213821
0.00807431
-0.209225
0.00966019
-0.204251
0.0111365
-0.198924
0.0124988
-0.193351
0.013754
-0.187664
0.0149153
-0.181987
0.0159981
-0.176419
0.0170181
-0.171034
0.0179896
-0.165884
0.018925
-0.160999
0.0198357
-0.156401
0.0207331
-0.1521
0.0216306
-0.148097
0.022546
-0.144375
-0.14089
0.0235006
0.000463282
-0.240089
0.00155341
-0.230478
0.00300946
-0.224469
0.00463716
-0.219851
0.00630344
-0.215487
0.00792383
-0.210845
0.00945102
-0.205779
0.0108646
-0.200337
0.0121622
-0.194648
0.0133522
-0.188854
0.0144489
-0.183084
0.0154683
-0.177439
0.0164264
-0.171993
0.0173374
-0.166795
0.0182137
-0.161875
0.0190661
-0.157253
0.0199056
-0.15294
0.0207456
-0.148937
0.0216046
-0.145234
-0.141792
0.0225073
0.000464042
-0.240553
0.00154778
-0.231561
0.00298397
-0.225905
0.00457819
-0.221445
0.00619943
-0.217108
0.00776585
-0.212411
0.00923282
-0.207246
0.0105823
-0.201687
0.0118139
-0.19588
0.0129374
-0.189978
0.013968
-0.184114
0.0149221
-0.178393
0.0158157
-0.172886
0.0166628
-0.167642
0.0174755
-0.162688
0.0182641
-0.158042
0.0190388
-0.153714
0.0198126
-0.149711
0.0206049
-0.146026
-0.142633
0.021446
0.000466494
-0.241019
0.00154348
-0.232638
0.00295799
-0.22732
0.00451683
-0.223004
0.00609136
-0.218683
0.00760243
-0.213923
0.00900807
-0.208651
0.0102926
-0.202971
0.0114575
-0.197045
0.0125137
-0.191034
0.0134771
-0.185078
0.0143644
-0.17928
0.0151913
-0.173713
0.0159715
-0.168422
0.0167163
-0.163433
0.017435
-0.158761
0.0181368
-0.154416
0.0188336
-0.150407
0.0195461
-0.146738
-0.143401
0.0203131
0.000472027
-0.241491
0.00154183
-0.233708
0.00293283
-0.228711
0.00445464
-0.224525
0.00598111
-0.220209
0.00743578
-0.215377
0.0087794
-0.209995
0.00999864
-0.204191
0.0110966
-0.198143
0.0120855
-0.192023
0.0129814
-0.185974
0.0138011
-0.1801
0.0145599
-0.174472
0.0152707
-0.169133
0.015944
-0.164106
0.0165881
-0.159405
0.0172104
-0.155038
0.0178211
-0.151018
0.0184406
-0.147358
-0.144069
0.0191091
0.000482973
-0.241974
0.00154545
-0.234771
0.00291096
-0.230076
0.00439373
-0.226008
0.00587062
-0.221686
0.007268
-0.216775
0.00854935
-0.211276
0.00970361
-0.205345
0.0107354
-0.199174
0.0116578
-0.192945
0.012487
-0.186803
0.0132391
-0.180852
0.0139287
-0.175161
0.0145675
-0.169772
0.0151648
-0.164703
0.0157278
-0.159968
0.0162632
-0.155574
0.0167772
-0.151532
0.0172828
-0.147863
-0.14459
0.017804
0.00050691
-0.242481
0.00156156
-0.235825
0.00289644
-0.231411
0.00433601
-0.227448
0.00576115
-0.223111
0.00710052
-0.218114
0.00831997
-0.212496
0.00941048
-0.206435
0.0103781
-0.200142
0.0112366
-0.193804
0.0120018
-0.187568
0.0126891
-0.181539
0.0133109
-0.175783
0.0138763
-0.170337
0.0143912
-0.165218
0.0148592
-0.160436
0.0152823
-0.155997
0.0156593
-0.151909
0.0159946
-0.148199
-0.144946
0.0163503
0.000563959
-0.243045
0.00159846
-0.23686
0.00288903
-0.232702
0.00428031
-0.228839
0.0056522
-0.224483
0.00693375
-0.219395
0.00809254
-0.213655
0.00912155
-0.207464
0.0100284
-0.201049
0.0108274
-0.194603
0.0115349
-0.188276
0.0121651
-0.182169
0.0127287
-0.176347
0.0132313
-0.17084
0.0136726
-0.16566
0.0140454
-0.160809
0.0143326
-0.156284
0.0145083
-0.152085
0.0145672
-0.148258
-0.145118
0.014739
0.250731
0.000415209
-0.251146
0.250342
0.000388852
0.24996
0.000381589
0.249579
0.000381726
0.249194
0.000384675
0.248805
0.00038909
0.248411
0.000394248
0.248011
0.000399559
0.247607
0.000404627
0.247197
0.000409253
0.246784
0.000413338
0.246367
0.000416856
0.245947
0.000419788
0.245525
0.00042211
0.245101
0.000423701
0.244677
0.000424354
0.244254
0.000423021
0.243835
0.000419154
0.243431
0.00040355
0.000386467
0.252707
0.00102394
-0.253315
0.252062
0.00103317
0.25139
0.00105429
0.25069
0.0010813
0.249965
0.00110968
0.249216
0.00113807
0.248444
0.001166
0.247651
0.00119298
0.246837
0.00121858
0.246004
0.00124255
0.245152
0.00126477
0.244284
0.00128522
0.2434
0.00130389
0.242501
0.00132079
0.241589
0.00133576
0.240665
0.00134861
0.23973
0.00135823
0.238784
0.00136435
0.237827
0.0013607
0.00135394
0.251492
0.00159613
-0.252064
0.250855
0.00167009
0.250165
0.00174427
0.249426
0.00181955
0.248643
0.00189358
0.247816
0.00196515
0.246948
0.00203392
0.246041
0.00209968
0.245097
0.00216217
0.244119
0.00222124
0.243107
0.00227683
0.242063
0.00232901
0.240989
0.00237784
0.239886
0.00242343
0.238756
0.00246582
0.2376
0.00250503
0.236417
0.00254054
0.235209
0.00257259
0.233971
0.00259881
0.00262336
0.247388
0.00203973
-0.247832
0.246875
0.00218337
0.246297
0.00232239
0.245658
0.00245823
0.244961
0.00259023
0.244209
0.00271759
0.243403
0.00283999
0.242545
0.00295725
0.241638
0.00306925
0.240684
0.00317589
0.239683
0.00327721
0.238639
0.00337333
0.237552
0.00346447
0.236425
0.00355089
0.235258
0.00363288
0.234052
0.0037108
0.232808
0.00378475
0.231525
0.00385534
0.230202
0.00392188
0.00398634
0.241141
0.00231887
-0.24142
0.240791
0.00253384
0.240371
0.00274204
0.239885
0.0029443
0.239335
0.00314059
0.238722
0.00333045
0.238048
0.00351355
0.237316
0.00368969
0.236526
0.00385875
0.235681
0.00402071
0.234783
0.00417562
0.233833
0.0043237
0.232832
0.00446527
0.231782
0.00460079
0.230684
0.00473081
0.229539
0.00485602
0.228346
0.00497701
0.227107
0.00509476
0.22582
0.0052094
0.00532263
0.233544
0.00244223
-0.233667
0.23335
0.00272783
0.233086
0.00300549
0.232755
0.00327552
0.232358
0.00353796
0.231896
0.00379249
0.23137
0.00403879
0.230783
0.00427663
0.230136
0.00450587
0.229431
0.00472649
0.228668
0.00493857
0.227849
0.00514238
0.226976
0.00533835
0.22605
0.00552712
0.225071
0.00570948
0.22404
0.00588648
0.222958
0.00605916
0.221824
0.00622892
0.220637
0.0063966
0.00656407
0.2253
0.00244038
-0.225298
0.225234
0.00279405
0.2251
0.00313903
0.224901
0.00347526
0.224636
0.00380266
0.224308
0.00412097
0.223916
0.00442984
0.223464
0.004729
0.222952
0.00501826
0.222381
0.00529759
0.221752
0.00556707
0.221068
0.005827
0.220328
0.00607791
0.219534
0.00632058
0.218688
0.00655608
0.217789
0.00678579
0.216836
0.00701126
0.215831
0.00723439
0.214771
0.00745673
0.00768043
0.216938
0.00234953
-0.216847
0.216965
0.00276771
0.216927
0.00317661
0.216826
0.00357594
0.216664
0.00396547
0.21644
0.00434491
0.216156
0.00471387
0.215813
0.00507201
0.215412
0.00541912
0.214954
0.00575508
0.214441
0.00607998
0.213874
0.00639412
0.213254
0.00669808
0.212582
0.00699278
0.211858
0.00727955
0.211084
0.00756014
0.210259
0.00783665
0.209381
0.00811162
0.208451
0.00838739
0.00866667
0.208805
0.002203
-0.208659
0.208891
0.00268191
0.208917
0.00315098
0.208883
0.00360975
0.208791
0.00405792
0.20864
0.00449508
0.208433
0.0049208
0.208171
0.00533468
0.207854
0.00573641
0.207483
0.00612583
0.20706
0.00650295
0.206586
0.00686804
0.206062
0.00722171
0.20549
0.00756498
0.20487
0.00789941
0.204203
0.00822712
0.203489
0.00855088
0.202727
0.00887396
0.201914
0.00919981
0.00953197
0.201102
0.00202781
-0.200927
0.20122
0.00256387
0.201281
0.0030895
0.201287
0.00360418
0.201238
0.00410745
0.201134
0.00459886
0.200977
0.00507787
0.200767
0.005544
0.200507
0.00599685
0.200197
0.00643615
0.199838
0.00686183
0.199432
0.00727407
0.19898
0.00767344
0.198484
0.00806099
0.197945
0.00843848
0.197364
0.00880839
0.19674
0.00917422
0.196074
0.00954014
0.195363
0.0099111
0.0102919
0.193921
0.00184381
-0.193737
0.194051
0.0024339
0.194128
0.00301299
0.194151
0.00358042
0.194123
0.00413565
0.194044
0.00467812
0.193915
0.00520721
0.193736
0.00572232
0.19351
0.00622296
0.193238
0.00670871
0.19292
0.00717936
0.192559
0.00763494
0.192157
0.0080759
0.191715
0.0085032
0.191234
0.00891877
0.190717
0.00932527
0.190164
0.00972713
0.189575
0.0101294
0.188947
0.0105393
0.0109633
0.187286
0.00166442
-0.187106
0.187414
0.00230604
0.187491
0.00293606
0.187517
0.00355365
0.187495
0.00415819
0.187424
0.00474903
0.187306
0.00532545
0.187141
0.00588675
0.186932
0.00643227
0.186679
0.00696144
0.186385
0.00747385
0.18605
0.00796929
0.185678
0.00844801
0.185271
0.00891073
0.18483
0.00935939
0.184359
0.0097966
0.183858
0.0102279
0.183328
0.010659
0.182767
0.0111006
0.0115611
0.181176
0.00149797
-0.18101
0.181293
0.00218927
0.181361
0.00286822
0.181381
0.0035339
0.181353
0.00418565
0.18128
0.0048227
0.181161
0.00544424
0.180998
0.00604942
0.180793
0.00663745
0.180547
0.00720754
0.180262
0.00775904
0.179939
0.0082914
0.179583
0.00880458
0.179195
0.00929878
0.178778
0.00977587
0.178337
0.0102379
0.177873
0.0106918
0.177389
0.011143
0.176882
0.011608
0.0120962
0.17555
0.0013493
-0.175401
0.17565
0.00208875
0.175704
0.00281506
0.17571
0.00352728
0.175671
0.0042246
0.175588
0.00490617
0.175461
0.00557108
0.175292
0.00621835
0.175082
0.00684702
0.174834
0.00745608
0.174548
0.00804456
0.174228
0.00861154
0.173876
0.00915649
0.173496
0.00967888
0.173092
0.0101802
0.172668
0.0106613
0.172229
0.0111308
0.171781
0.0115918
0.171318
0.0120708
0.0125745
0.170355
0.00122068
-0.170226
0.170436
0.00200719
0.170472
0.00277962
0.170462
0.00353706
0.170408
0.00427864
0.170311
0.00500338
0.170171
0.00571028
0.169992
0.00639825
0.169772
0.00706612
0.169516
0.00771265
0.169224
0.00833656
0.168899
0.00893643
0.168544
0.00951116
0.168164
0.0100592
0.167763
0.0105814
0.167348
0.0110761
0.166925
0.0115542
0.166504
0.0120125
0.16608
0.0124948
0.0129948
0.165536
0.00111289
-0.165428
0.165597
0.00194537
0.165614
0.00276286
0.165587
0.00356444
0.165516
0.00434914
0.165404
0.00511592
0.16525
0.00586367
0.165057
0.00659118
0.164826
0.00729711
0.164559
0.00797998
0.164258
0.00863817
0.163924
0.00926974
0.163562
0.0098729
0.163177
0.0104448
0.162773
0.0109853
0.16236
0.011489
0.161945
0.0119694
0.161547
0.0124098
0.161159
0.0128835
0.0133449
0.161041
0.00102541
-0.160953
0.161083
0.00190282
0.161082
0.00276435
0.161037
0.00360901
0.16095
0.00443578
0.160823
0.00524352
0.160655
0.00603104
0.16045
0.00679702
0.160207
0.00753999
0.159928
0.00825822
0.159617
0.00894978
0.159274
0.00961223
0.158904
0.010243
0.158511
0.0108379
0.158101
0.0113953
0.157686
0.0119044
0.157274
0.0123815
0.156897
0.0127867
0.156538
0.0132419
0.0135991
0.156822
0.000956425
-0.156753
0.156847
0.00187798
0.156829
0.00278239
0.156769
0.00366897
0.156668
0.00453659
0.156528
0.00538406
0.156349
0.00621013
0.156132
0.0070134
0.15588
0.00779225
0.155593
0.00854479
0.155274
0.0092688
0.154925
0.00996143
0.154549
0.0106194
0.15415
0.0112371
0.153734
0.0118113
0.153314
0.0123243
0.152901
0.0127938
0.152546
0.0131424
0.152212
0.0135759
0.0137261
0.152838
0.00090397
-0.152786
0.152848
0.00186799
0.152817
0.00281377
0.152745
0.00374072
0.152634
0.00464757
0.152485
0.00553311
0.152299
0.00639607
0.152077
0.00723499
0.151821
0.00804813
0.151533
0.0088335
0.151213
0.00958868
0.150864
0.0103105
0.150488
0.0109953
0.150089
0.011636
0.149672
0.0122283
0.149249
0.012747
0.148833
0.0132098
0.148499
0.0134771
0.148206
0.0138689
0.0136741
0.149048
-0.149011
0.00086649
0.149047
0.00186892
0.149007
0.00285408
0.148929
0.00381918
0.148813
0.00476286
0.148662
0.00568403
0.148477
0.00658144
0.148259
0.00745355
0.148008
0.00829858
0.147727
0.00911445
0.147417
0.00989869
0.14708
0.0106479
0.146717
0.0113584
0.14633
0.012022
0.145924
0.0126347
0.145507
0.0131645
0.145083
0.0136334
0.144732
0.013828
0.144474
0.0141267
0.0130307
0.25437
7.40832e-05
-0.254444
0.254334
3.63989e-05
0.254301
3.2572e-05
0.25426
4.15115e-05
0.254204
5.59475e-05
0.25413
7.3804e-05
0.254036
9.37805e-05
0.253922
0.000114751
0.253786
0.000135898
0.253629
0.000156717
0.253452
0.000176769
0.253256
0.000195774
0.253042
0.00021423
0.252809
0.000233198
0.252559
0.000250488
0.252293
0.000265665
0.252015
0.000278332
0.251726
0.000288396
0.251436
0.000289997
0.000290009
0.256237
-0.000241588
-0.255921
0.256491
-0.000217595
0.2567
-0.000176647
0.256865
-0.000122826
0.256983
-6.26417e-05
0.257056
1.30229e-06
0.257082
6.78618e-05
0.25706
0.000135943
0.256992
0.000204622
0.256875
0.000272965
0.256712
0.00033973
0.256505
0.000403669
0.256255
0.000463536
0.255957
0.000531039
0.255615
0.000592738
0.255231
0.000649897
0.254807
0.00070236
0.254345
0.000750059
0.253847
0.000788339
0.000821423
0.251674
-0.000898459
-0.251017
0.252258
-0.000801518
0.252776
-0.000694727
0.253232
-0.000578254
0.253625
-0.000455609
0.253955
-0.000329036
0.254223
-0.000199684
0.254427
-6.89584e-05
0.254569
6.31506e-05
0.254646
0.000196061
0.25466
0.000325938
0.254611
0.000452408
0.254497
0.00057777
0.254325
0.000702886
0.254094
0.000823808
0.253804
0.000939718
0.253456
0.00105014
0.253051
0.00115497
0.252587
0.00125226
0.00134481
0.243356
-0.0018344
-0.24242
0.244219
-0.00166469
0.245012
-0.0014877
0.245736
-0.0013027
0.246392
-0.00111137
0.246979
-0.000915514
0.247495
-0.000716482
0.247942
-0.000515534
0.248319
-0.00031336
0.248622
-0.00010718
0.248853
9.47782e-05
0.249016
0.000289566
0.249107
0.000486272
0.24913
0.000679958
0.249084
0.000869557
0.24897
0.00105416
0.248787
0.00123301
0.248536
0.00140576
0.248217
0.00157134
0.0017303
0.233273
-0.0029693
-0.232138
0.23434
-0.00273135
0.235338
-0.00248587
0.236267
-0.00223246
0.237128
-0.00197202
0.237919
-0.00170605
0.238638
-0.00143598
0.239286
-0.00116303
0.23986
-0.000888141
0.240365
-0.000612115
0.240798
-0.00033818
0.241156
-6.77428e-05
0.241441
0.000201267
0.241654
0.000466943
0.241794
0.000728888
0.241863
0.00098566
0.241859
0.00123653
0.241784
0.0014809
0.241638
0.00171795
0.00194762
0.222716
-0.00423075
-0.221455
0.223914
-0.00392943
0.225047
-0.00361903
0.226114
-0.00329969
0.227115
-0.00297224
0.228047
-0.0026381
0.22891
-0.00229883
0.229702
-0.00195591
0.230425
-0.00161077
0.231078
-0.00126478
0.231659
-0.000919476
0.232167
-0.000576162
0.232604
-0.000235697
0.232971
0.000100389
0.233266
0.000433567
0.233489
0.000762721
0.233641
0.00108518
0.233721
0.00140088
0.233729
0.00170917
0.00200983
0.21247
-0.00556111
-0.21114
0.213741
-0.00520062
0.214951
-0.00482894
0.216098
-0.0044467
0.217181
-0.00405497
0.218198
-0.00365536
0.219149
-0.00324966
0.220033
-0.00283963
0.220849
-0.0024269
0.221597
-0.00201295
0.222277
-0.00159917
0.222888
-0.00118699
0.223429
-0.000777178
0.2239
-0.00037049
0.224308
2.54188e-05
0.224644
0.000426797
0.224911
0.000818565
0.225109
0.001203
0.225238
0.00158004
0.00194927
0.202947
-0.00691858
-0.20159
0.204249
-0.00650225
0.205492
-0.00607232
0.206675
-0.00562982
0.207796
-0.00517625
0.208855
-0.0047136
0.209849
-0.00424403
0.210779
-0.00376953
0.211644
-0.00329195
0.212444
-0.00281291
0.213179
-0.00233389
0.213848
-0.00185626
0.214452
-0.00138107
0.214991
-0.000909305
0.215458
-0.000442315
0.215871
1.37596e-05
0.216213
0.000477363
0.216489
0.000926196
0.216701
0.00136847
0.00180284
0.194305
-0.00827535
-0.192948
0.195608
-0.00780571
0.196856
-0.00731977
0.198045
-0.00681889
0.199174
-0.00630522
0.200242
-0.00578136
0.201248
-0.00524987
0.202191
-0.00471309
0.203072
-0.00417307
0.203891
-0.00363159
0.204647
-0.00309019
0.205341
-0.00255021
0.205973
-0.00201281
0.206543
-0.00147894
0.20705
-0.000949996
0.207491
-0.000427289
0.207878
9.06967e-05
0.2082
0.000604489
0.20846
0.00110813
0.0016039
0.186552
-0.00961465
-0.185212
0.18784
-0.00909366
0.189073
-0.0085532
0.190249
-0.00799497
0.191366
-0.00742216
0.192423
-0.00683817
0.193419
-0.0062461
0.194355
-0.00564863
0.19523
-0.00504805
0.196044
-0.00444626
0.196799
-0.00384484
0.197494
-0.00324509
0.198129
-0.00264818
0.198705
-0.00205505
0.199222
-0.00146671
0.199679
-0.000884073
0.200077
-0.000307869
0.20042
0.000262327
0.200702
0.000825534
0.00137925
0.179615
-0.0109278
-0.178302
0.180879
-0.0103572
0.182088
-0.00976295
0.183241
-0.0091476
0.184335
-0.00851584
0.185369
-0.00787215
0.186343
-0.00722021
0.187257
-0.00656309
0.188112
-0.00590333
0.188909
-0.00524288
0.189648
-0.0045833
0.190328
-0.00392586
0.190952
-0.00327161
0.191518
-0.0026215
0.192028
-0.00197635
0.192481
-0.00133705
0.192877
-0.000704111
0.19322
-8.04606e-05
0.193506
0.000539243
0.00114818
0.173391
-0.0122117
-0.172107
0.174627
-0.0115932
0.175809
-0.0109454
0.176934
-0.0102723
0.177999
-0.00958112
0.179005
-0.00887757
0.17995
-0.00816596
0.180837
-0.0074498
0.181665
-0.00673178
0.182437
-0.00601389
0.183151
-0.00529758
0.183809
-0.00458402
0.184412
-0.00387417
0.184959
-0.00316888
0.185451
-0.00246892
0.18589
-0.00177513
0.186274
-0.00108825
0.186603
-0.000409857
0.186882
0.000260236
0.000923819
0.167769
-0.0134673
-0.166513
0.168979
-0.0128033
0.170134
-0.0121011
0.171231
-0.0113687
0.172267
-0.010617
0.173242
-0.00985291
0.174158
-0.00908135
0.175014
-0.00830632
0.175813
-0.00753061
0.176555
-0.0067561
0.177242
-0.00598409
0.177873
-0.00521558
0.17845
-0.0044514
0.178974
-0.0036923
0.179444
-0.00293901
0.179861
-0.00219232
0.180226
-0.00145271
0.180537
-0.000720919
0.180801
-3.71258e-06
0.000714505
0.162649
-0.0146983
-0.161418
0.163838
-0.0139921
0.164971
-0.0132335
0.166041
-0.0124394
0.167049
-0.0116253
0.167996
-0.0107992
0.168881
-0.00996681
0.169708
-0.00913263
0.170476
-0.00829938
0.171189
-0.00746871
0.171846
-0.00664168
0.17245
-0.00581906
0.173
-0.0050015
0.173497
-0.00418962
0.173942
-0.00338407
0.174336
-0.0025856
0.174678
-0.00179484
0.17497
-0.00101311
0.175209
-0.000242223
0.000521867
0.157949
-0.0159115
-0.156736
0.159125
-0.0151672
0.160239
-0.0143483
0.161289
-0.0134887
0.162272
-0.012609
0.163191
-0.0117183
0.164048
-0.0108234
0.164845
-0.00992929
0.165584
-0.00903829
0.166267
-0.00815167
0.166895
-0.00727011
0.16747
-0.00639405
0.167992
-0.00552389
0.168463
-0.0046601
0.168882
-0.00380322
0.16925
-0.00295395
0.169569
-0.00211304
0.169837
-0.00128143
0.170055
-0.000460254
0.000350746
0.153606
-0.0171193
-0.152398
0.154778
-0.016339
0.155882
-0.0154524
0.156915
-0.0145212
0.157876
-0.0135704
0.158768
-0.0126108
0.159596
-0.011651
0.160363
-0.0106958
0.161071
-0.0097467
0.161724
-0.0088044
0.162323
-0.00786894
0.162869
-0.00694026
0.163363
-0.0060184
0.163807
-0.00510361
0.1642
-0.00419634
0.164543
-0.00329719
0.164837
-0.00240691
0.165082
-0.00152633
0.165278
-0.000656634
0.000201199
0.149574
-0.0183509
-0.148342
0.150757
-0.0175228
0.151857
-0.0165522
0.152876
-0.0155396
0.153813
-0.0145083
0.154676
-0.0134736
0.155472
-0.0124464
0.156205
-0.0114293
0.156881
-0.0104225
0.157502
-0.00942552
0.158071
-0.00843741
0.158588
-0.00745738
0.159054
-0.00648505
0.159471
-0.00552043
0.159839
-0.00456383
0.160157
-0.00361582
0.160427
-0.00267711
0.16065
-0.0017486
0.160824
-0.00083127
7.25448e-05
0.145823
-0.019671
-0.144502
0.14704
-0.0187404
0.148136
-0.0176483
0.149135
-0.0165385
0.150041
-0.0154142
0.150866
-0.0142986
0.151623
-0.0132029
0.152319
-0.0121254
0.152959
-0.0110631
0.153547
-0.0100136
0.154085
-0.00897504
0.154573
-0.00794559
0.155013
-0.00692445
0.155404
-0.00591141
0.155747
-0.00490674
0.156042
-0.00391096
0.156289
-0.00292486
0.15649
-0.0019495
0.156645
-0.000985843
-3.5843e-05
0.142369
-0.0211495
-0.14089
0.143618
-0.0199893
0.144692
-0.0187224
0.145649
-0.0174954
0.146506
-0.0162716
0.147282
-0.0150748
0.147993
-0.0139139
0.148648
-0.0127805
0.149252
-0.011667
0.149807
-0.0105688
0.150315
-0.00948267
0.150776
-0.00840612
0.151189
-0.00733801
0.151556
-0.00627809
0.151876
-0.00522667
0.152149
-0.00418434
0.152376
-0.00315197
0.152558
-0.00213073
0.152694
-0.0011221
-0.000127634
0.139282
-0.137864
-0.0225679
0.140444
-0.0211515
0.141478
-0.0197564
0.142355
-0.0183724
0.143145
-0.0170609
0.143868
-0.0157985
0.144534
-0.014579
0.145148
-0.0133952
0.145717
-0.012236
0.146242
-0.0110932
0.146721
-0.00996226
0.147156
-0.00884065
0.147545
-0.00772721
0.147889
-0.00662183
0.148187
-0.00552496
0.14844
-0.0044374
0.148648
-0.00336011
0.148811
-0.00229411
0.14893
-0.00124096
-0.000208169
0.0308446
0.112054
-0.110569
-0.0323292
0.0293327
0.115056
-0.113544
0.0277906
0.11819
-0.116648
0.0262149
0.121481
-0.119905
0.0246023
0.124959
-0.123347
0.02295
0.128668
-0.127016
0.0212559
0.132666
-0.130972
0.0195186
0.137031
-0.135294
0.0177375
0.141868
-0.140087
0.015913
0.147309
-0.145484
0.0140467
0.153513
-0.151647
0.0121431
0.160669
-0.158765
0.0102109
0.168977
-0.167045
0.00826692
0.178626
-0.176682
0.00634104
0.189739
-0.187813
0.00448343
0.202281
-0.200423
0.00277393
0.215913
-0.214203
0.0013331
0.229779
-0.228338
0.000330357
0.242097
-0.241094
0.249729
-0.249399
0.0306552
0.113531
-0.0321321
0.0291508
0.11656
0.0276166
0.119725
0.0260491
0.123048
0.0244447
0.126564
0.0228008
0.130312
0.0211151
0.134351
0.019386
0.13876
0.0176129
0.143641
0.015796
0.149125
0.0139373
0.155372
0.0120413
0.162565
0.0101175
0.170901
0.00818348
0.18056
0.00627024
0.191653
0.0044295
0.204121
0.00274255
0.2176
0.00132941
0.231192
0.000354115
0.243072
0.250083
0.0304237
0.114998
-0.0318909
0.0289293
0.118055
0.0274051
0.121249
0.0258478
0.124606
0.0242539
0.128158
0.0226206
0.131945
0.0209455
0.136027
0.0192269
0.140479
0.017464
0.145404
0.0156572
0.150932
0.0138084
0.157221
0.0119226
0.164451
0.0100096
0.172814
0.00808795
0.182482
0.00618952
0.193551
0.00436707
0.205944
0.00270243
0.219264
0.00131397
0.232581
0.000357185
0.244029
0.25044
0.030152
0.116453
-0.0316073
0.0286696
0.119537
0.0271577
0.122761
0.0256127
0.126151
0.0240313
0.129739
0.0224105
0.133566
0.020748
0.137689
0.019042
0.142185
0.0172916
0.147155
0.015497
0.152727
0.0136604
0.159057
0.011787
0.166324
0.00988722
0.174714
0.00798004
0.184389
0.00609831
0.195433
0.00429549
0.207747
0.00265355
0.220906
0.00128922
0.233945
0.000352115
0.244966
0.250793
0.0298423
0.117895
-0.0312837
0.0283738
0.121006
0.0268759
0.124259
0.0253451
0.127682
0.023778
0.131306
0.0221717
0.135173
0.0205236
0.139337
0.0188321
0.143876
0.0170961
0.148891
0.0153159
0.154507
0.0134936
0.160879
0.0116348
0.168183
0.00975028
0.176598
0.00785972
0.18628
0.00599671
0.197296
0.00421536
0.209528
0.00259768
0.222524
0.00125875
0.235284
0.00034319
0.245881
0.251136
0.0294971
0.119321
-0.0309232
0.028044
0.122459
0.0265618
0.125741
0.0250467
0.129197
0.0234955
0.132857
0.0219052
0.136763
0.0202734
0.140969
0.0185981
0.145552
0.0168783
0.15061
0.0151143
0.156271
0.0133083
0.162685
0.0114662
0.170025
0.00959903
0.178465
0.00772723
0.188152
0.00588508
0.199138
0.0041273
0.211286
0.00253582
0.224116
0.00122393
0.236596
0.000331578
0.246774
0.251467
0.0291193
0.12073
-0.0305289
0.0276828
0.123895
0.0262173
0.127206
0.0247193
0.130695
0.0231852
0.134391
0.0216124
0.138336
0.0199981
0.142583
0.0183406
0.147209
0.0166387
0.152312
0.0148927
0.158017
0.013105
0.164473
0.0112814
0.171848
0.00943377
0.180313
0.00758288
0.190002
0.00576376
0.200957
0.00403168
0.213018
0.00246838
0.225679
0.00118532
0.237879
0.000317987
0.247641
0.251785
0.0287116
0.122123
-0.0301043
0.0272924
0.125314
0.0258446
0.128654
0.0243644
0.132175
0.0228486
0.135907
0.0212943
0.13989
0.0196989
0.144178
0.0180605
0.148847
0.016378
0.153995
0.0146516
0.159743
0.0128839
0.166241
0.0110809
0.173651
0.00925479
0.182139
0.00742693
0.19183
0.00563302
0.202751
0.00392879
0.214722
0.00239573
0.227212
0.00114343
0.239131
0.000303019
0.248481
0.252088
0.028277
0.123499
-0.0296527
0.0268753
0.126716
0.0254454
0.130084
0.0239837
0.133637
0.0224868
0.137404
0.0209518
0.141425
0.0193764
0.145754
0.0177583
0.150465
0.0160966
0.155656
0.0143915
0.161449
0.0126455
0.167987
0.010865
0.175432
0.00906233
0.183942
0.00725962
0.193633
0.0054931
0.204517
0.00381893
0.216396
0.00231825
0.228713
0.00109874
0.240351
0.00028709
0.249293
0.252375
0.0278184
0.124858
-0.0291777
0.0264336
0.128101
0.0250215
0.131496
0.0235783
0.13508
0.0221006
0.138882
0.0205858
0.14294
0.0190311
0.147309
0.0174345
0.152062
0.0157949
0.157296
0.0141125
0.163131
0.0123899
0.169709
0.0106337
0.177188
0.00885661
0.185719
0.00708118
0.195408
0.00534428
0.206254
0.0037024
0.218038
0.00223629
0.230179
0.00105163
0.241536
0.000270445
0.250074
0.252646
0.027338
0.126203
-0.0286825
0.025969
0.12947
0.024574
0.132891
0.023149
0.136505
0.0216908
0.14034
0.0201964
0.144434
0.0186632
0.148842
0.0170892
0.153636
0.015473
0.158912
0.0138148
0.164789
0.0121174
0.171407
0.0103873
0.178918
0.00863776
0.187468
0.0068918
0.197154
0.00518677
0.207959
0.00357947
0.219645
0.00215014
0.231608
0.00100236
0.242683
0.000253245
0.250823
0.252899
0.0268374
0.127535
-0.0281697
0.0254824
0.130825
0.0241032
0.13427
0.0226959
0.137912
0.021257
0.141779
0.0197835
0.145908
0.0182726
0.150353
0.0167222
0.155186
0.0151307
0.160504
0.0134983
0.166422
0.0118277
0.173077
0.0101258
0.18062
0.0084059
0.189188
0.00669162
0.198869