/*--------------------------------*- C++ -*----------------------------------*\
  =========                 |
  \\      /  F ield         | OpenFOAM: The Open Source CFD Toolbox
   \\    /   O peration     | Website:  https://openfoam.org
    \\  /    A nd           | Version:  6.0
     \\/     M anipulation  |
\*---------------------------------------------------------------------------*/
FoamFile
{
    version     2.0;
    format      ascii;
    class       volScalarField;
    location    "3";
    object      p;
}
// * * * * * * * * * * * * * * * * * * * * * * * * * * * * * * * * * * * * * //

dimensions      [0 2 -2 0 0 0 0];

internalField   nonuniform List<scalar> 
2400
(
-96.3203
-66.5155
-48.3407
-35.8618
-26.5458
-19.7077
-14.7351
-11.0956
-8.40782
-6.47831
-96.6703
-66.8188
-48.6016
-36.0922
-26.7567
-19.9071
-14.9269
-11.2812
-8.58861
-6.65865
-97.0202
-67.1129
-48.8549
-36.3195
-26.969
-20.1112
-15.1267
-11.4779
-8.7838
-6.85627
-97.3643
-67.3976
-49.0992
-36.5415
-27.1791
-20.3157
-15.3291
-11.6802
-8.98897
-7.06913
-97.6927
-67.6661
-49.3306
-36.755
-27.3848
-20.5181
-15.5304
-11.8822
-9.19691
-7.28947
-97.9988
-67.9102
-49.5391
-36.9511
-27.5801
-20.7165
-15.7317
-12.0853
-9.40591
-7.51022
-98.2828
-68.1234
-49.712
-37.1125
-27.7472
-20.8976
-15.9281
-12.294
-9.62692
-7.74506
-98.5505
-68.305
-49.8401
-37.2206
-27.8564
-21.0218
-16.0777
-12.4771
-9.85449
-8.02848
-98.7967
-68.4574
-49.9276
-37.2729
-27.8898
-21.0451
-16.1022
-12.5294
-9.9897
-8.30944
-98.9842
-68.577
-49.988
-37.2894
-27.8682
-20.9791
-15.9827
-12.3663
-9.83714
-8.23146
-99.2084
-99.2983
-99.3238
-99.3189
-99.2967
-99.2604
-99.2137
-99.162
-99.1116
-99.0606
-68.4377
-68.5447
-68.6132
-68.6563
-68.6805
-68.69
-68.6893
-68.683
-68.6719
-68.6457
-49.7708
-49.868
-49.9372
-49.9828
-50.0087
-50.0209
-50.0261
-50.0295
-50.0306
-50.0232
-37.1392
-37.2138
-37.2618
-37.286
-37.2914
-37.2851
-37.2768
-37.2729
-37.278
-37.2885
-27.8061
-27.8566
-27.8798
-27.8791
-27.8608
-27.8327
-27.8076
-27.7934
-27.8024
-27.8315
-20.9857
-21.0163
-21.0186
-20.9967
-20.9574
-20.9084
-20.8666
-20.8401
-20.8534
-20.8992
-16.0323
-16.0484
-16.035
-15.9968
-15.9393
-15.87
-15.8099
-15.7673
-15.786
-15.8436
-12.4164
-12.4236
-12.4
-12.3508
-12.2785
-12.1902
-12.1073
-12.0413
-12.0682
-12.1397
-9.76408
-9.76717
-9.739
-9.68556
-9.60482
-9.50309
-9.39482
-9.29479
-9.31754
-9.43672
-7.84846
-7.8414
-7.8051
-7.74603
-7.6579
-7.54671
-7.4112
-7.26522
-7.21181
-7.373
-94.6927
-95.3779
-95.9928
-96.5725
-97.1179
-97.6151
-98.0539
-98.431
-98.7494
-99.0114
-64.3518
-64.9523
-65.5184
-66.0537
-66.5513
-67.0019
-67.3999
-67.7438
-68.0345
-68.2692
-46.2253
-46.7572
-47.2669
-47.7446
-48.1799
-48.5679
-48.9069
-49.1977
-49.4398
-49.6324
-34.0678
-34.5499
-35.0094
-35.434
-35.8139
-36.1468
-36.4337
-36.6762
-36.8745
-37.0292
-25.106
-25.5512
-25.9709
-26.3527
-26.6888
-26.9794
-27.2264
-27.432
-27.5968
-27.7217
-18.561
-18.9836
-19.3758
-19.7242
-20.0261
-20.2844
-20.5018
-20.68
-20.8198
-20.9219
-13.7976
-14.2153
-14.5937
-14.9161
-15.19
-15.4232
-15.618
-15.7761
-15.8977
-15.9836
-10.2946
-10.7142
-11.0913
-11.3976
-11.6515
-11.8662
-12.0452
-12.1902
-12.3008
-12.3769
-7.74275
-8.12801
-8.4949
-8.79889
-9.04462
-9.24641
-9.41424
-9.5519
-9.65727
-9.72899
-6.13898
-6.42002
-6.6982
-6.99278
-7.23022
-7.40852
-7.55303
-7.67322
-7.76505
-7.82474
-2.43769
-4.1203
-6.54524
-9.86821
-14.4276
-20.7065
-29.2782
-40.837
-58.0737
-87.336
-2.69033
-4.38664
-6.82014
-10.1544
-14.7296
-21.0301
-29.6327
-41.2374
-58.5422
-87.8929
-2.97328
-4.68551
-7.12924
-10.4771
-15.0704
-21.3955
-30.0332
-41.6885
-59.0616
-88.4886
-3.28594
-5.01504
-7.4695
-10.8322
-15.4453
-21.7971
-30.4732
-42.1847
-59.6337
-89.1437
-3.62734
-5.37466
-7.84002
-11.2177
-15.8507
-22.2298
-30.9462
-42.7184
-60.2522
-89.8567
-3.99772
-5.7608
-8.23514
-11.6275
-16.2809
-22.6881
-31.4462
-43.2827
-60.9079
-90.6152
-4.40284
-6.17912
-8.65705
-12.0602
-16.7319
-23.1667
-31.9672
-43.8698
-61.591
-91.4071
-4.83052
-6.60751
-9.08477
-12.5004
-17.1935
-23.6574
-32.501
-44.4711
-62.2923
-92.2223
-5.30091
-7.05666
-9.51919
-12.9451
-17.6594
-24.1517
-33.0369
-45.0745
-63.0007
-93.0532
-5.70834
-7.42758
-9.91169
-13.3757
-18.119
-24.6392
-33.5639
-45.6663
-63.6981
-93.8875
-2.09516
-3.46845
-5.67137
-8.8633
-13.3075
-19.4504
-27.8355
-39.1044
-55.8736
-84.4876
-2.16597
-3.60809
-5.83353
-9.00178
-13.4102
-19.5223
-27.8838
-39.1354
-55.9027
-84.5475
-1.97281
-3.53028
-5.83662
-9.04264
-13.4654
-19.582
-27.944
-39.1955
-55.9659
-84.6251
-1.81856
-3.42454
-5.77714
-9.02127
-13.4767
-19.6199
-28.0039
-39.2756
-56.0687
-84.7571
-1.75286
-3.37513
-5.74667
-9.01027
-13.4891
-19.6586
-28.0709
-39.376
-56.2113
-84.9497
-1.75023
-3.38448
-5.76859
-9.04344
-13.5367
-19.7253
-28.1639
-39.5067
-56.3955
-85.198
-1.79632
-3.44201
-5.83761
-9.12301
-13.6289
-19.834
-28.2969
-39.6787
-56.6268
-85.5011
-1.89076
-3.54571
-5.95045
-9.24598
-13.765
-19.9874
-28.4756
-39.8988
-56.9108
-85.8634
-2.03274
-3.69556
-6.10716
-9.41178
-13.944
-20.1846
-28.6999
-40.1675
-57.2505
-86.2912
-2.21743
-3.88896
-6.30682
-9.62022
-14.1657
-20.4251
-28.9686
-40.4828
-57.6426
-86.7861
-1.3631
-1.19065
-1.21446
-1.33701
-1.49521
-1.66988
-1.86267
-2.06544
-2.28359
-2.51555
-3.10521
-2.97781
-2.95182
-3.04865
-3.19356
-3.36915
-3.56694
-3.77895
-4.00803
-4.25201
-5.45091
-5.37334
-5.35496
-5.43921
-5.57527
-5.75219
-5.95599
-6.17941
-6.42217
-6.68194
-8.7181
-8.66103
-8.66045
-8.74088
-8.87269
-9.04986
-9.25823
-9.49142
-9.74671
-10.0218
-13.2149
-13.1763
-13.1932
-13.277
-13.4116
-13.5926
-13.8082
-14.0527
-14.3223
-14.6148
-19.397
-19.3821
-19.418
-19.5115
-19.6555
-19.8459
-20.074
-20.3343
-20.623
-20.9381
-27.8127
-27.8219
-27.8771
-27.9841
-28.1418
-28.3468
-28.5929
-28.8751
-29.1903
-29.5367
-39.1022
-39.1253
-39.1921
-39.31
-39.4815
-39.7039
-39.9732
-40.2853
-40.6377
-41.027
-55.8601
-55.8697
-55.9291
-56.0491
-56.2305
-56.4716
-56.7699
-57.1234
-57.5271
-57.9689
-84.3941
-84.3504
-84.3817
-84.491
-84.6751
-84.9316
-85.2596
-85.6586
-86.118
-86.6061
-2.76388
-3.02795
-3.31096
-3.61301
-3.93009
-4.24342
-4.51405
-4.71553
-4.88939
-5.0787
-4.51304
-4.78964
-5.08356
-5.39269
-5.7116
-6.02602
-6.31033
-6.53098
-6.67896
-6.8435
-6.95937
-7.25194
-7.56028
-7.881
-8.20774
-8.52797
-8.82322
-9.0697
-9.2595
-9.44645
-10.3153
-10.6235
-10.9459
-11.2783
-11.6138
-11.9401
-12.2423
-12.5075
-12.7391
-12.9634
-14.9267
-15.2529
-15.5922
-15.9398
-16.2882
-16.6259
-16.9405
-17.226
-17.4902
-17.7457
-21.2743
-21.6248
-21.9874
-22.3569
-22.726
-23.0841
-23.4212
-23.7343
-24.0304
-24.316
-29.9065
-30.2897
-30.6843
-31.0848
-31.4843
-31.8737
-32.2453
-32.597
-32.9338
-33.26
-41.4406
-41.8646
-42.2996
-42.741
-43.1824
-43.6163
-44.0374
-44.4447
-44.841
-45.2276
-58.4267
-58.8934
-59.3745
-59.8665
-60.3619
-60.8546
-61.3428
-61.8278
-62.3078
-62.7698
-87.0807
-87.5793
-88.1054
-88.6504
-89.204
-89.761
-90.3232
-90.8949
-91.4654
-91.9901
-92.4086
-63.1855
-45.5905
-33.5668
-24.5828
-17.9863
-13.19
-9.6863
-7.14689
-5.38839
-92.799
-63.5546
-45.915
-33.8437
-24.8212
-18.1974
-13.3871
-9.88884
-7.36427
-5.5786
-93.1835
-63.8999
-46.2133
-34.0964
-25.0368
-18.3858
-13.5572
-10.0426
-7.48331
-5.63909
-93.5662
-64.232
-46.4925
-34.3298
-25.2333
-18.5541
-13.7037
-10.1686
-7.58182
-5.70955
-93.9472
-64.5554
-46.7595
-34.5504
-25.4175
-18.7094
-13.8347
-10.2759
-7.66234
-5.77073
-94.3306
-64.8744
-47.0187
-34.7633
-25.595
-18.8595
-13.9629
-10.3852
-7.75282
-5.84848
-94.7231
-65.1941
-47.2747
-34.9731
-25.7713
-19.0103
-14.0935
-10.4987
-7.84991
-5.93614
-95.1321
-65.5205
-47.5321
-35.1841
-25.9511
-19.1676
-14.2339
-10.6253
-7.96339
-6.04228
-95.5539
-65.8556
-47.7957
-35.4013
-26.1387
-19.3349
-14.3864
-10.7659
-8.09341
-6.16783
-95.9625
-66.1933
-48.0683
-35.6287
-26.3378
-19.5156
-14.554
-10.9232
-8.24226
-6.31415
-2.38082
-0.945969
-0.558651
-0.32272
-0.208015
-0.134141
-0.0801274
-0.0442137
-0.0222301
-0.0108935
-0.00544891
-0.00291518
-0.00166601
-0.000992779
-0.000598446
-0.0003547
-0.000201168
-0.00010202
-4.59641e-05
1.1221e-05
-2.57899
-0.988868
-0.577272
-0.32721
-0.205905
-0.131321
-0.0791849
-0.0451291
-0.0242121
-0.0131647
-0.00758284
-0.00473311
-0.00312
-0.00210944
-0.00141999
-0.00093747
-0.000599028
-0.000352492
-0.000181874
-2.20273e-05
-2.80157
-1.05262
-0.602939
-0.337793
-0.207371
-0.130786
-0.079564
-0.0467668
-0.0265847
-0.0156397
-0.00982036
-0.00660024
-0.00459946
-0.00323546
-0.00224762
-0.00152385
-0.00099621
-0.000603007
-0.000318474
-5.7988e-05
-3.05393
-1.13611
-0.634274
-0.354011
-0.212547
-0.13259
-0.0812949
-0.0491306
-0.0293401
-0.0183114
-0.0121563
-0.00851487
-0.00610127
-0.00437183
-0.00307991
-0.00211235
-0.00139435
-0.000854126
-0.000455324
-9.4401e-05
-3.3233
-1.22777
-0.666499
-0.374363
-0.221268
-0.136689
-0.0843727
-0.0522171
-0.0324699
-0.0211734
-0.0145866
-0.0104749
-0.00762436
-0.00551796
-0.00391652
-0.00270275
-0.00179334
-0.00110575
-0.000592473
-0.000131377
-3.58274
-1.32217
-0.700383
-0.398754
-0.233497
-0.142974
-0.0887323
-0.055993
-0.035952
-0.0242121
-0.0171038
-0.0124764
-0.00916682
-0.00667289
-0.00475697
-0.00329474
-0.00219308
-0.00135778
-0.000729964
-0.000169018
-3.86916
-1.47066
-0.759313
-0.433694
-0.251023
-0.151917
-0.0944859
-0.060474
-0.039772
-0.0274089
-0.0196928
-0.0145089
-0.0107218
-0.00783234
-0.0055987
-0.00388691
-0.0025928
-0.00160988
-0.000867708
-0.000207399
-4.37095
-1.77324
-0.87652
-0.489364
-0.277934
-0.165396
-0.10248
-0.066039
-0.0440844
-0.0308147
-0.022362
-0.016567
-0.0122814
-0.00898977
-0.00643714
-0.00447639
-0.00299093
-0.0018613
-0.00100543
-0.000246528
-5.11167
-2.16712
-1.01691
-0.553378
-0.311847
-0.183513
-0.113215
-0.0731633
-0.0492286
-0.0346385
-0.0252308
-0.0187169
-0.0138823
-0.0101653
-0.00728317
-0.00506884
-0.00339019
-0.00211322
-0.00114358
-0.000286648
-5.14917
-2.24881
-1.03123
-0.567088
-0.328348
-0.194936
-0.12133
-0.0794974
-0.0543381
-0.0386833
-0.0283558
-0.0210784
-0.0156348
-0.0114407
-0.00819084
-0.00569682
-0.00380848
-0.00237404
-0.00128551
-0.000328963
-3.97341
-2.00312
-0.906246
-0.511975
-0.310813
-0.186832
-0.117789
-0.0796508
-0.0569941
-0.0424451
-0.0321786
-0.0244025
-0.0182807
-0.0134285
-0.00962021
-0.00668278
-0.00445804
-0.00277133
-0.00149759
-0.000392863
-3.00309
-1.79513
-0.887792
-0.508302
-0.321741
-0.200229
-0.12892
-0.0889964
-0.0649311
-0.0490316
-0.0374919
-0.0285565
-0.0214348
-0.0157573
-0.0112923
-0.00784572
-0.00523446
-0.00325515
-0.00175937
-0.000469257
-2.30157
-1.55293
-0.85177
-0.497973
-0.328054
-0.215073
-0.142938
-0.100728
-0.0745839
-0.0567616
-0.0435479
-0.0332049
-0.024929
-0.0183254
-0.0131339
-0.00912805
-0.0060927
-0.00379209
-0.00205039
-0.000554195
-1.78355
-1.33082
-0.825435
-0.504701
-0.338139
-0.231146
-0.158889
-0.114158
-0.085659
-0.0656922
-0.0505657
-0.0385886
-0.0289652
-0.021281
-0.0152452
-0.0105927
-0.00706961
-0.00440154
-0.00237937
-0.000650786
-1.42036
-1.12466
-0.768486
-0.501305
-0.345823
-0.246775
-0.176635
-0.129705
-0.0984387
-0.0759424
-0.0585771
-0.0447001
-0.0335232
-0.0246036
-0.0176092
-0.0122272
-0.00815685
-0.00507844
-0.00274347
-0.000758038
-1.1383
-0.946369
-0.70482
-0.4968
-0.356292
-0.26311
-0.195456
-0.146896
-0.112669
-0.0873176
-0.0674305
-0.0514212
-0.0385126
-0.0282262
-0.0201779
-0.0139983
-0.00933242
-0.00580926
-0.00313537
-0.000873721
-0.924376
-0.80051
-0.638478
-0.483598
-0.363756
-0.277801
-0.213389
-0.164325
-0.127515
-0.0992745
-0.0767576
-0.0584997
-0.0437561
-0.0320231
-0.0228629
-0.0158454
-0.0105559
-0.00656869
-0.00354138
-0.000993792
-0.767295
-0.686384
-0.578195
-0.465726
-0.367635
-0.290028
-0.229029
-0.180332
-0.141686
-0.110882
-0.0858816
-0.0654511
-0.04891
-0.0357515
-0.0254951
-0.0176527
-0.0117509
-0.00730935
-0.00393615
-0.00111074
-0.660169
-0.605027
-0.530665
-0.447706
-0.367837
-0.298522
-0.240892
-0.193066
-0.153438
-0.120735
-0.0937143
-0.0714596
-0.0533805
-0.0389887
-0.0277797
-0.01922
-0.012786
-0.00795011
-0.00427655
-0.00121179
-0.602515
-0.559829
-0.502626
-0.435618
-0.366691
-0.302989
-0.247722
-0.200648
-0.160658
-0.126916
-0.0986823
-0.0752976
-0.0562494
-0.0410713
-0.0292511
-0.0202298
-0.0134528
-0.00836283
-0.00449462
-0.00127662
-5.65013
-5.58959
-5.5055
-5.40448
-5.2751
-5.12581
-4.92429
-4.7008
-4.4015
-4.31191
-3.87436
-3.79877
-3.7072
-3.60438
-3.48556
-3.35952
-3.21879
-3.10422
-3.00775
-3.03919
-2.82855
-2.78153
-2.72795
-2.67212
-2.61595
-2.56492
-2.51799
-2.47979
-2.43267
-2.39896
-2.13326
-2.11008
-2.08326
-2.05405
-2.02227
-1.98726
-1.94653
-1.90089
-1.85153
-1.8202
-1.62899
-1.61708
-1.60167
-1.58317
-1.56202
-1.53901
-1.51514
-1.49233
-1.4709
-1.45668
-1.26134
-1.25804
-1.25229
-1.24444
-1.2349
-1.22401
-1.2119
-1.1987
-1.18416
-1.17159
-0.996103
-0.997797
-0.997288
-0.994729
-0.990305
-0.984216
-0.976667
-0.967949
-0.958283
-0.949151
-0.809518
-0.813758
-0.816021
-0.816413
-0.815075
-0.812141
-0.80777
-0.802121
-0.795325
-0.787915
-0.687387
-0.692752
-0.696307
-0.698118
-0.698272
-0.696873
-0.694029
-0.689864
-0.684502
-0.678158
-0.623937
-0.62964
-0.633646
-0.636003
-0.63677
-0.636022
-0.633838
-0.630305
-0.625518
-0.61958
-5.11313
-5.27656
-5.1434
-5.29464
-5.46639
-5.55589
-5.60913
-5.65256
-5.68009
-5.68184
-3.97185
-4.08346
-3.80113
-3.77514
-3.88953
-3.95733
-3.97109
-3.96903
-3.95803
-3.92869
-2.89043
-2.97976
-2.76806
-2.71076
-2.79715
-2.87679
-2.90299
-2.90049
-2.88766
-2.86467
-2.04818
-2.15915
-2.05875
-2.02123
-2.07614
-2.14053
-2.16989
-2.17221
-2.16415
-2.15134
-1.49421
-1.60405
-1.57446
-1.55415
-1.57974
-1.61728
-1.63935
-1.64498
-1.64276
-1.63736
-1.11992
-1.19771
-1.19684
-1.19171
-1.20629
-1.22893
-1.2464
-1.25597
-1.26045
-1.26209
-0.84564
-0.893548
-0.90515
-0.913867
-0.92979
-0.948536
-0.964803
-0.97702
-0.985865
-0.992136
-0.6533
-0.686286
-0.704255
-0.720363
-0.73807
-0.755646
-0.77123
-0.784244
-0.794836
-0.803228
-0.533868
-0.56039
-0.580316
-0.598319
-0.615836
-0.632339
-0.647172
-0.660086
-0.671074
-0.680169
-0.474388
-0.498185
-0.518418
-0.536646
-0.5537
-0.569516
-0.583818
-0.596445
-0.607345
-0.61651
0.867087
0.861384
0.843971
0.810866
0.749472
0.641319
0.450779
0.0936597
-0.599464
-2.70692
0.796887
0.788065
0.765444
0.723485
0.649753
0.521783
0.30948
-0.108185
-0.825648
-2.57815
0.718125
0.706824
0.679748
0.630735
0.547873
0.408037
0.185615
-0.233155
-0.86729
-1.92913
0.63141
0.617966
0.586983
0.532654
0.443142
0.301102
0.0791359
-0.26742
-0.781173
-1.35555
0.538595
0.523619
0.489855
0.432896
0.340679
0.207901
0.00180048
-0.246241
-0.641113
-1.01058
0.443008
0.427384
0.392688
0.336428
0.247639
0.131522
-0.0446592
-0.225589
-0.522211
-0.813945
0.349646
0.334311
0.300846
0.24816
0.168214
0.0686595
-0.074759
-0.22307
-0.442077
-0.667135
0.265084
0.250768
0.220163
0.17259
0.103364
0.0173439
-0.0978516
-0.223096
-0.381252
-0.543653
0.197319
0.184322
0.157029
0.114655
0.0550088
-0.0196851
-0.113123
-0.217059
-0.33508
-0.455906
0.156311
0.14434
0.119466
0.0808054
0.027398
-0.0396075
-0.120329
-0.210716
-0.309271
-0.410153
1.25595
1.2638
1.27795
1.29948
1.32452
1.34688
1.36211
1.32349
1.23819
0.770461
1.21929
1.22601
1.23691
1.25341
1.26997
1.28163
1.27557
1.21993
1.06478
0.598463
1.1821
1.18767
1.19533
1.20676
1.21472
1.21549
1.18754
1.11377
0.886896
0.410688
1.14453
1.14894
1.15342
1.15972
1.15908
1.14869
1.09866
1.00507
0.705204
0.205436
1.10673
1.11
1.11136
1.11253
1.10334
1.0814
1.00953
0.893783
0.521401
-0.0162979
1.06886
1.07099
1.06934
1.06536
1.04779
1.0138
0.920732
0.779723
0.33726
-0.262653
1.03104
1.03207
1.02756
1.01843
0.992675
0.946076
0.832792
0.662502
0.157685
-0.536674
0.993429
0.993431
0.986235
0.971991
0.938247
0.878423
0.746089
0.541506
-0.0156333
-0.874366
0.956109
0.955166
0.945475
0.926156
0.884585
0.810904
0.660563
0.415702
-0.169989
-1.28096
0.919025
0.916851
0.904591
0.880106
0.830802
0.743059
0.575712
0.283835
-0.3313
-1.89042
1.56268
1.58025
1.62001
1.68424
1.77608
1.89721
2.04846
2.21778
2.1918
0.492527
1.53837
1.55517
1.59338
1.65468
1.74174
1.85429
1.9909
2.13063
2.17688
0.517278
1.51252
1.52849
1.56461
1.62202
1.70299
1.80593
1.93345
2.05409
2.20868
0.956347
1.48511
1.50022
1.53415
1.58766
1.66278
1.75675
1.87708
1.97827
2.19509
1.21333
1.45619
1.47038
1.50199
1.5515
1.6207
1.70542
1.81692
1.89417
2.11552
1.28357
1.42582
1.43905
1.46814
1.51342
1.5763
1.65113
1.75139
1.80399
1.99905
1.28449
1.3941
1.40632
1.43269
1.47351
1.52961
1.59413
1.68104
1.71165
1.86669
1.25148
1.36112
1.37229
1.39579
1.43196
1.48085
1.5349
1.6065
1.61805
1.72312
1.1794
1.32701
1.3371
1.35758
1.38897
1.43024
1.47377
1.52818
1.52249
1.56908
1.06845
1.2919
1.30088
1.31823
1.34474
1.37804
1.41101
1.44653
1.42435
1.40665
0.928286
1.78942
1.78861
1.78656
1.78248
1.77462
1.76052
1.7367
1.69948
1.64353
1.56499
1.79153
1.79246
1.79383
1.79462
1.7929
1.78549
1.7685
1.73667
1.6843
1.605
1.79077
1.79456
1.80159
1.81068
1.81967
1.82424
1.82005
1.79828
1.75365
1.67275
1.78304
1.79031
1.8044
1.82406
1.84706
1.86787
1.88161
1.8748
1.84287
1.76079
1.7665
1.7774
1.79896
1.83026
1.86908
1.90912
1.94383
1.95641
1.93946
1.86458
1.74138
1.75557
1.7841
1.82679
1.88178
1.94267
1.99967
2.03365
2.02551
1.96874
1.70937
1.72612
1.76031
1.81286
1.88296
1.96516
2.04654
2.1004
2.08434
2.02836
1.67277
1.69117
1.7293
1.78919
1.87172
1.97422
2.08497
2.15894
2.10632
1.95979
1.63393
1.65306
1.69338
1.7576
1.84824
1.96682
2.11182
2.2257
2.09605
1.65382
1.59474
1.61355
1.6543
1.7197
1.81301
1.93804
2.10771
2.31243
2.22903
1.20123
1.49844
1.46893
1.43694
1.40327
1.36795
1.3309
1.29214
1.25178
1.20997
1.16687
1.53589
1.50406
1.46857
1.43143
1.39261
1.35174
1.30875
1.26377
1.217
1.16862
1.602
1.56577
1.52281
1.47833
1.43258
1.38461
1.33402
1.28098
1.22578
1.16862
1.69321
1.65065
1.59509
1.53871
1.48271
1.42475
1.36379
1.30013
1.23427
1.1665
1.81902
1.76744
1.69022
1.61545
1.54519
1.47432
1.40124
1.32686
1.25209
1.17727
1.9929
1.93218
1.83099
1.73835
1.65357
1.56975
1.4868
1.40685
1.33125
1.26039
2.18901
2.12889
2.02249
1.92009
1.81896
1.71702
1.61607
1.5179
1.42321
1.33191
2.20821
2.15564
2.07257
1.98105
1.87536
1.76041
1.63868
1.51426
1.38882
1.26275
2.00393
2.02459
1.94873
1.83969
1.6938
1.53583
1.36538
1.18973
1.00732
0.817499
1.143
1.11054
0.907919
0.729869
0.531806
0.337836
0.130665
-0.0819862
-0.307448
-0.545846
1.12262
1.07742
1.03144
0.984884
0.937932
0.890793
0.843656
0.796714
0.750152
0.704152
1.11881
1.06779
1.01577
0.962971
0.909611
0.855927
0.802112
0.748345
0.69483
0.641631
1.10967
1.0491
0.987076
0.92378
0.859383
0.794039
0.72792
0.661126
0.59399
0.525872
1.09699
1.02592
0.953475
0.879791
0.804944
0.728964
0.651946
0.574177
0.496395
0.418031
1.10255
1.02815
0.954367
0.881562
0.809995
0.73951
0.669315
0.59773
0.520595
0.427889
1.19383
1.13029
1.06747
1.00232
0.931688
0.853018
0.763908
0.658603
0.522355
0.342537
1.24296
1.15433
1.06237
0.962804
0.853432
0.734155
0.594518
0.399085
0.117868
-0.165489
1.13424
0.999223
0.849926
0.677839
0.482827
0.275315
0.0394607
-0.307595
-0.798527
-1.13894
0.617613
0.4033
0.164664
-0.109287
-0.417604
-0.73223
-1.04363
-1.46934
-2.09268
-2.38673
-0.798564
-1.06727
-1.35986
-1.6829
-2.03626
-2.39083
-2.69245
-2.99762
-3.51379
-3.73165
0.593032
0.422175
0.267369
0.154289
0.0954287
0.0775535
0.0773518
0.0795636
0.0789503
0.0743899
0.0662233
0.0559003
0.0450689
0.0348863
0.0259829
0.018592
0.0126843
0.00803218
0.00437463
0.00124686
0.511731
0.306447
0.137133
0.0402666
0.0129572
0.0232458
0.0424298
0.057631
0.0656403
0.0662352
0.0609427
0.0523061
0.0425428
0.0330795
0.0246924
0.0176882
0.0120748
0.00764885
0.0041703
0.00118851
0.368999
0.0534047
-0.136848
-0.170907
-0.125974
-0.0647685
-0.0125848
0.0245275
0.0462216
0.0544205
0.0532328
0.0469925
0.0387508
0.0303316
0.0227129
0.0162945
0.0111318
0.00705478
0.00385143
0.00109787
0.245476
-0.331026
-0.517607
-0.43959
-0.298158
-0.170875
-0.0751698
-0.0108529
0.0260856
0.0420932
0.0450241
0.0411925
0.0345104
0.0272063
0.0204392
0.0146852
0.0100398
0.00636571
0.00348006
0.000992539
0.146772
-0.739079
-0.803984
-0.651157
-0.453423
-0.270405
-0.132055
-0.0418812
0.00841868
0.0309772
0.0373602
0.0355776
0.0302857
0.0240386
0.0181135
0.0130314
0.00891516
0.00565527
0.00309587
0.00088367
-0.148628
-1.01011
-0.863015
-0.741905
-0.540046
-0.331705
-0.169522
-0.0637513
-0.00505193
0.0218644
0.0306823
0.0304469
0.0263098
0.021011
0.0158735
0.0114331
0.0078266
0.00496725
0.00272267
0.000777958
-0.647334
-1.09623
-0.823072
-0.750013
-0.554057
-0.350064
-0.185991
-0.076164
-0.0142437
0.0148051
0.0250454
0.0258858
0.0226804
0.0182126
0.0137914
0.00994411
0.0068117
0.00432574
0.00237374
0.000679136
-1.34971
-1.14515
-0.800103
-0.713435
-0.525091
-0.341663
-0.188014
-0.081566
-0.0200573
0.00946702
0.0203659
0.021921
0.0194569
0.0157014
0.0119135
0.00859808
0.00589309
0.00374469
0.0020567
0.000589427
-2.12558
-1.23831
-0.791279
-0.666815
-0.488025
-0.324412
-0.183143
-0.0828638
-0.0235174
0.00555772
0.0166289
0.0186148
0.0167031
0.0135254
0.0102725
0.00741545
0.00508299
0.00323088
0.00177513
0.000510034
-2.45758
-1.27148
-0.728599
-0.606552
-0.442758
-0.300642
-0.173599
-0.0813483
-0.025404
0.0024735
0.0133348
0.0155785
0.0141421
0.0115007
0.00875233
0.00632688
0.0043423
0.00276438
0.00152034
0.000437971
-1.95482
-1.16097
-0.602143
-0.515595
-0.373991
-0.261012
-0.155417
-0.0764972
-0.027028
-0.00150413
0.00912053
0.0119681
0.0113344
0.0094346
0.00729073
0.00533108
0.00369222
0.00236982
0.00131017
0.00037636
-1.66235
-1.12901
-0.578009
-0.482682
-0.344881
-0.239879
-0.141995
-0.0698808
-0.0248883
-0.0017789
0.00785975
0.0104926
0.00999256
0.00834609
0.00646699
0.00474048
0.00329059
0.00211662
0.00117124
0.000335833
-1.57642
-1.09262
-0.565308
-0.456271
-0.323782
-0.223722
-0.13053
-0.0632982
-0.0220857
-0.00133756
0.00715601
0.00939555
0.00889033
0.00740241
0.00572701
0.00419566
0.00291237
0.00187383
0.00103656
0.000297487
-1.5739
-1.04491
-0.554173
-0.428928
-0.302777
-0.208316
-0.12071
-0.0582171
-0.0202832
-0.00145901
0.00616388
0.00815948
0.00772411
0.00643033
0.00497471
0.00364556
0.00253203
0.00163031
0.000901871
0.000259959
-1.6196
-1.00087
-0.545384
-0.402698
-0.28234
-0.193123
-0.111694
-0.0540794
-0.0192255
-0.00205492
0.00490092
0.00677738
0.00648132
0.00541861
0.00420212
0.00308532
0.00214694
0.00138486
0.00076672
0.000222988
-1.68796
-0.962174
-0.5389
-0.379061
-0.26373
-0.178983
-0.103545
-0.0506097
-0.0186277
-0.00292582
0.00348712
0.00531648
0.00519825
0.00438649
0.00341922
0.00251999
0.00175954
0.00113852
0.00063146
0.000186571
-1.77837
-0.933358
-0.535272
-0.358776
-0.247335
-0.166347
-0.0964739
-0.047845
-0.0184625
-0.00403638
0.00194873
0.00379349
0.00388485
0.00333969
0.00262925
0.00195129
0.00137069
0.000891656
0.000496191
0.000150623
-1.89124
-0.915316
-0.534926
-0.342482
-0.23334
-0.155397
-0.0905639
-0.0458275
-0.0187499
-0.00539528
0.000282094
0.00220693
0.00254056
0.00227805
0.00183217
0.00137922
0.000980397
0.000644243
0.000360869
0.000115012
-2.03168
-0.910575
-0.538353
-0.330744
-0.221965
-0.146285
-0.0858477
-0.0445564
-0.0194846
-0.00699865
-0.00151075
0.000557844
0.00116586
0.00120179
0.00102807
0.000803838
0.000588615
0.00039628
0.00022538
7.96001e-05
-2.19766
-0.920483
-0.546037
-0.324026
-0.213446
-0.139159
-0.0823574
-0.0440209
-0.0206499
-0.00883502
-0.00342337
-0.00115035
-0.000237491
0.000111828
0.000217401
0.000225363
0.000195387
0.000147795
8.96178e-05
4.42424e-05
)
;

boundaryField
{
    inlet
    {
        type            freestreamPressure;
        freestreamValue uniform 0;
        supersonic      false;
        value           nonuniform List<scalar> 
40
(
0.867087
0.796887
0.718125
0.63141
0.538595
0.443008
0.349646
0.265084
0.197319
0.156311
1.25595
1.21929
1.1821
1.14453
1.10673
1.06886
1.03104
0.993429
0.956109
0.919025
1.56268
1.53837
1.51252
1.48511
1.45619
1.42582
1.3941
1.36112
1.32701
1.2919
1.78942
1.79153
1.79077
1.78304
1.7665
1.74138
1.70937
1.67277
1.63393
1.59474
)
;
    }
    outlet
    {
        type            freestreamPressure;
        freestreamValue uniform 0;
        supersonic      false;
        value           nonuniform List<scalar> 
40
(
-1.25829e-09
-1.41468e-09
-1.53863e-09
-1.61635e-09
-1.61315e-09
-1.49353e-09
-1.23355e-09
-8.41439e-10
-3.90754e-10
-5.13181e-11
4.16137e-11
-8.11132e-11
-2.1172e-10
-3.41253e-10
-4.69536e-10
-5.96355e-10
-7.21401e-10
-8.44182e-10
-9.65007e-10
-1.08678e-09
1.37854e-09
1.24056e-09
1.10605e-09
9.71353e-10
8.36121e-10
7.00933e-10
5.66115e-10
4.31796e-10
2.98069e-10
1.64992e-10
7.28741e-11
5.44686e-10
1.14452e-09
1.63676e-09
1.93789e-09
2.05539e-09
2.03284e-09
1.92094e-09
1.76392e-09
1.57772e-09
)
;
    }
    top
    {
        type            symmetryPlane;
    }
    bottom
    {
        type            symmetryPlane;
    }
    cylinder
    {
        type            zeroGradient;
    }
    frontandback
    {
        type            empty;
    }
}


// ************************************************************************* //
