/*--------------------------------*- C++ -*----------------------------------*\
| =========                 |                                                 |
| \\      /  F ield         | OpenFOAM: The Open Source CFD Toolbox           |
|  \\    /   O peration     | Version:  v1912                                 |
|   \\  /    A nd           | Website:  www.openfoam.com                      |
|    \\/     M anipulation  |                                                 |
\*---------------------------------------------------------------------------*/
FoamFile
{
    version     2.0;
    format      ascii;
    class       volVectorField;
    location    "2";
    object      U;
}
// * * * * * * * * * * * * * * * * * * * * * * * * * * * * * * * * * * * * * //

dimensions      [0 1 -1 0 0 0 0];


internalField   nonuniform List<vector> 
9600
(
(0.463352 -9.57648 -1.00087e-19)
(0.136137 -8.91587 0)
(0.161508 -8.31141 -4.96401e-20)
(0.167163 -7.75988 0)
(0.161322 -7.25036 0)
(0.158344 -6.77443 -1.3476e-20)
(0.156136 -6.32769 1.24443e-22)
(0.15349 -5.90789 9.41528e-21)
(0.150439 -5.51377 0)
(0.147086 -5.14459 -1.45971e-20)
(0.143533 -4.79969 0)
(0.139914 -4.47836 -7.35168e-22)
(0.136375 -4.17972 -1.26996e-21)
(0.13305 -3.90272 -8.16311e-21)
(0.130053 -3.64616 6.09688e-21)
(0.127454 -3.40875 -5.99001e-21)
(0.125276 -3.18916 4.85275e-21)
(0.123625 -2.98606 0)
(0.122809 -2.79816 -3.42324e-21)
(0.121977 -2.62428 3.85454e-21)
(0.838353 -9.55051 -1.93966e-19)
(0.48681 -8.90625 1.21354e-20)
(0.488951 -8.30374 1.03933e-19)
(0.473415 -7.75411 -7.71304e-20)
(0.448028 -7.24601 7.60681e-20)
(0.426679 -6.77076 0)
(0.407178 -6.32423 2.44568e-20)
(0.388241 -5.90437 -2.36042e-20)
(0.369868 -5.51011 -3.76253e-20)
(0.352151 -5.14078 4.18578e-20)
(0.335179 -4.79582 -2.6797e-20)
(0.319072 -4.47453 -9.16725e-21)
(0.30395 -4.17608 1.93086e-20)
(0.289915 -3.89941 0)
(0.277042 -3.64331 0)
(0.265352 -3.40645 2.12541e-20)
(0.254816 -3.18747 -3.55684e-20)
(0.245513 -2.985 0)
(0.237761 -2.79767 0)
(0.230486 -2.6243 -1.40148e-20)
(1.21248 -9.51052 4.01974e-19)
(0.836816 -8.88324 0)
(0.815974 -8.28352 -1.99924e-19)
(0.779435 -7.73651 -1.67782e-19)
(0.734621 -7.23059 0)
(0.69496 -6.75671 2.26478e-19)
(0.658174 -6.31103 -2.05907e-19)
(0.622932 -5.89175 3.51722e-20)
(0.589212 -5.49793 -8.07728e-20)
(0.557105 -5.12902 -1.18703e-19)
(0.526695 -4.78452 1.50644e-19)
(0.498091 -4.46379 -8.83705e-20)
(0.471389 -4.166 -3.6341e-20)
(0.446661 -3.89012 0)
(0.423939 -3.6349 1.78225e-21)
(0.403197 -3.39902 2.29911e-20)
(0.384352 -3.18105 8.62618e-21)
(0.367448 -2.97957 0)
(0.352808 -2.79316 1.50873e-20)
(0.339122 -2.62063 1.51588e-20)
(1.58458 -9.45624 -5.37091e-19)
(1.18553 -8.8469 -2.21112e-19)
(1.14205 -8.25088 2.17857e-19)
(1.08477 -7.70728 3.23275e-19)
(1.02068 -7.20426 -1.53352e-19)
(0.962785 -6.73241 5.52816e-22)
(0.908744 -6.28822 9.87806e-20)
(0.857198 -5.87011 8.3064e-20)
(0.808124 -5.47731 1.40435e-19)
(0.761618 -5.10937 0)
(0.717769 -4.76585 4.37583e-20)
(0.676676 -4.44618 -4.96552e-20)
(0.638417 -4.14953 4.67108e-21)
(0.603029 -3.87488 6.71697e-20)
(0.570504 -3.62098 5.0833e-20)
(0.540767 -3.38647 -7.02347e-20)
(0.513677 -3.1699 2.29469e-20)
(0.489243 -2.96979 -3.29571e-20)
(0.46778 -2.78464 3.26566e-20)
(0.447737 -2.6133 -1.51557e-20)
(1.95432 -9.38774 2.68894e-19)
(1.53269 -8.79734 0)
(1.46682 -8.20588 2.00645e-19)
(1.38902 -7.66644 0)
(1.3058 -7.167 0)
(1.22976 -6.69784 -1.2718e-19)
(1.1585 -6.25575 -2.07986e-19)
(1.09067 -5.83942 -1.55672e-19)
(1.02625 -5.44822 1.18013e-20)
(0.965355 -5.0818 -5.9979e-20)
(0.908084 -4.73981 0)
(0.854529 -4.42169 -4.3361e-20)
(0.804749 -4.12666 -7.37597e-20)
(0.758752 -3.85369 5.93434e-20)
(0.716488 -3.60154 -1.63923e-19)
(0.677829 -3.36881 2.65847e-20)
(0.642578 -3.15403 1.79186e-20)
(0.610702 -2.95566 -3.78131e-20)
(0.5825 -2.77212 -1.53603e-20)
(0.556174 -2.60229 4.38539e-20)
(2.32117 -9.30503 2.43236e-19)
(1.8778 -8.73457 2.11446e-19)
(1.78985 -8.14855 0)
(1.69176 -7.61404 0)
(1.58957 -7.11886 -2.62998e-19)
(1.49548 -6.65302 1.57111e-19)
(1.40706 -6.21366 3.17265e-19)
(1.32298 -5.79971 0)
(1.24324 -5.41069 7.08871e-20)
(1.16798 -5.04636 5.99789e-20)
(1.09732 -4.70641 -9.54764e-20)
(1.03135 -4.39035 1.37193e-19)
(0.970104 -4.09741 3.70661e-20)
(0.913565 -3.82657 0)
(0.861642 -3.57658 2.73961e-20)
(0.814152 -3.34604 1.13645e-19)
(0.770839 -3.13343 -6.78121e-20)
(0.731629 -2.93717 6.83416e-20)
(0.696794 -2.75559 -1.27145e-19)
(0.664281 -2.58762 1.44291e-19)
(2.68459 -9.20822 2.44013e-19)
(2.22042 -8.65868 -1.23935e-18)
(2.1107 -8.07895 0)
(1.99257 -7.5501 0)
(1.87159 -7.05985 0)
(1.75955 -6.59798 -2.39997e-19)
(1.65404 -6.16197 0)
(1.55375 -5.75101 -3.27688e-19)
(1.45874 -5.36475 2.88378e-19)
(1.36917 -5.00305 -2.52863e-19)
(1.28517 -4.66569 0)
(1.20683 -4.35218 0)
(1.1342 -4.06181 0)
(1.0672 -3.79354 -6.51554e-20)
(1.00571 -3.54614 0)
(0.949498 -3.31818 0)
(0.898241 -3.10814 -7.96683e-20)
(0.851821 -2.91435 7.82766e-20)
(0.810477 -2.73507 0)
(0.771896 -2.5693 0)
(3.04404 -9.09742 -8.15734e-19)
(2.56007 -8.56973 4.8446e-19)
(2.42894 -7.99715 0)
(2.29104 -7.47469 0)
(2.15143 -6.99002 0)
(2.02157 -6.53276 2.21945e-19)
(1.89906 -6.10071 -2.19754e-19)
(1.78263 -5.69333 -1.05452e-21)
(1.6724 -5.31042 -2.78967e-19)
(1.56857 -4.95192 2.53811e-19)
(1.4713 -4.61767 -1.04446e-19)
(1.38068 -4.30723 1.66357e-19)
(1.29674 -4.01988 -2.05514e-20)
(1.21938 -3.75463 -1.41241e-19)
(1.14844 -3.51023 -1.06799e-19)
(1.08362 -3.28526 1.04927e-19)
(1.02456 -3.07815 0)
(0.971066 -2.8872 0)
(0.923357 -2.71057 6.26539e-20)
(0.878847 -2.54734 -7.04542e-20)
(3.39899 -8.97278 5.44105e-19)
(2.89626 -8.46782 4.50417e-19)
(2.74412 -7.90322 -8.23583e-19)
(2.58673 -7.38785 3.73511e-19)
(2.4287 -6.90942 0)
(2.28115 -6.45739 2.4123e-19)
(2.14172 -6.02993 -1.8906e-19)
(2.00924 -5.62674 5.16857e-19)
(1.88386 -5.24776 -1.24045e-20)
(1.76585 -4.89302 0)
(1.6554 -4.5624 2.09818e-19)
(1.5526 -4.25552 0)
(1.45745 -3.97167 0)
(1.36984 -3.70987 -5.89726e-20)
(1.28957 -3.46889 1.2276e-19)
(1.21628 -3.24729 0)
(1.14955 -3.0435 8.26546e-20)
(1.08915 -2.85576 3.00147e-20)
(1.03523 -2.68213 -7.12943e-20)
(0.984952 -2.52178 6.56891e-20)
(3.74891 -8.83447 -5.47565e-19)
(3.22851 -8.35307 4.5219e-19)
(3.05579 -7.79725 -1.23791e-18)
(2.8792 -7.28967 3.75111e-19)
(2.70296 -6.81811 0)
(2.53787 -6.37194 -4.69355e-19)
(2.38165 -5.94968 2.22142e-19)
(2.2332 -5.55129 0)
(2.09278 -5.17682 -1.46707e-19)
(1.96069 -4.8264 -2.31916e-19)
(1.83715 -4.49995 -1.81808e-19)
(1.72227 -4.19712 2.47704e-20)
(1.61603 -3.91723 1.66963e-19)
(1.5183 -3.65931 5.89702e-20)
(1.42883 -3.42215 -1.43559e-20)
(1.34722 -3.20432 -1.08153e-19)
(1.27298 -3.00422 -4.48745e-20)
(1.20583 -2.82005 -3.86684e-20)
(1.14589 -2.64975 9.63816e-20)
(1.09002 -2.49265 -1.47467e-19)
(4.09328 -8.68267 5.47567e-19)
(3.55635 -8.22562 -3.77913e-20)
(3.3635 -7.67935 3.74844e-19)
(3.16804 -7.18022 0)
(2.97381 -6.71616 -2.69544e-19)
(2.79134 -6.27648 5.0935e-19)
(2.61844 -5.86004 -3.82661e-19)
(2.45416 -5.46704 3.76571e-19)
(2.2988 -5.09768 -1.27896e-19)
(2.15274 -4.75213 2.70009e-19)
(2.01624 -4.43038 1.06312e-19)
(1.8894 -4.13209 0)
(1.7722 -3.85661 0)
(1.66448 -3.603 -6.07131e-20)
(1.56595 -3.37006 1.43634e-20)
(1.47618 -3.15637 2.07596e-19)
(1.39459 -2.96033 -5.11812e-20)
(1.32088 -2.78008 1.51339e-19)
(1.2551 -2.61348 2.03577e-20)
(1.19383 -2.45995 -1.50931e-19)
(4.4316 -8.5176 -1.65259e-18)
(3.8793 -8.08562 -4.95593e-19)
(3.66681 -7.54964 -1.24151e-18)
(3.45281 -7.0596 -6.97586e-19)
(3.24083 -6.60367 -3.1489e-19)
(3.04115 -6.17108 -3.03393e-19)
(2.85173 -5.76107 -8.64356e-19)
(2.67173 -5.37408 -2.51372e-20)
(2.50157 -5.0104 -5.97091e-19)
(2.34168 -4.67029 1.87802e-20)
(2.19235 -4.35376 -2.16424e-19)
(2.05369 -4.06049 -1.85798e-19)
(1.92567 -3.78988 1.60258e-19)
(1.8081 -3.54099 -1.38894e-19)
(1.70067 -3.31265 -1.20961e-19)
(1.60289 -3.10347 -1.05851e-19)
(1.51413 -2.91186 -2.681e-19)
(1.43404 -2.73589 9.95537e-20)
(1.36262 -2.57334 2.16581e-19)
(1.29618 -2.42374 -2.28985e-19)
(4.76337 -8.33948 2.20837e-18)
(4.19692 -7.93325 2.43627e-18)
(3.96528 -7.40825 3.76421e-19)
(3.73307 -6.92793 1.72211e-18)
(3.50359 -6.48072 -3.22156e-19)
(3.28689 -6.05585 1.44635e-18)
(3.08111 -5.65289 3.81193e-19)
(2.88556 -5.2725 1.03193e-18)
(2.70075 -4.91509 -3.01634e-19)
(2.52718 -4.58097 7.82432e-19)
(2.36517 -4.27017 4.34737e-19)
(2.21485 -3.98242 3.73432e-19)
(2.07616 -3.7171 -4.74066e-19)
(1.9489 -3.47333 4.28654e-19)
(1.83272 -3.24998 2.43648e-19)
(1.72708 -3.04566 2.13399e-19)
(1.63132 -2.85882 1.87794e-19)
(1.54504 -2.68749 1.63373e-21)
(1.4682 -2.52933 1.47057e-19)
(1.39682 -2.38402 1.50818e-19)
(5.08811 -8.14857 -1.60605e-18)
(4.50876 -7.7687 5.61553e-19)
(4.25849 -7.25532 1.22238e-18)
(4.00841 -6.78531 -1.40767e-18)
(3.76167 -6.34744 3.18049e-19)
(3.52817 -5.93089 -9.56189e-19)
(3.30622 -5.53559 4.56269e-19)
(3.09528 -5.16241 -6.83128e-19)
(2.89599 -4.81185 2.50411e-20)
(2.70892 -4.48426 1.9286e-21)
(2.5344 -4.17971 -4.38487e-19)
(2.37258 -3.89794 -1.87634e-19)
(2.22339 -3.63834 3.25866e-19)
(2.0866 -3.40009 1.72915e-21)
(1.96182 -3.18206 -1.3138e-20)
(1.84848 -2.98295 -2.28163e-19)
(1.74589 -2.80122 -9.47309e-20)
(1.6536 -2.63488 -8.08535e-21)
(1.57154 -2.48148 -1.56696e-19)
(1.49549 -2.34084 -7.63183e-20)
(5.40539 -7.94512 0)
(4.81439 -7.59217 -9.95099e-19)
(4.546 -7.09102 3.46393e-21)
(4.27839 -6.6319 1.36045e-18)
(4.01467 -6.20394 4.96632e-19)
(3.76458 -5.79633 -5.41769e-19)
(3.52665 -5.4093 -4.19846e-19)
(3.30053 -5.04392 0)
(3.08696 -4.70079 -2.82656e-19)
(2.88657 -4.38028 2.62396e-19)
(2.69975 -4.08249 -1.73069e-20)
(2.52662 -3.80714 0)
(2.36711 -3.55369 -1.63816e-19)
(2.22094 -3.32131 1.28391e-19)
(2.08771 -3.10895 9.56535e-20)
(1.96682 -2.91534 -1.33338e-19)
(1.85754 -2.73903 -1.07386e-19)
(1.75939 -2.57802 1.72346e-19)
(1.67232 -2.42974 -1.53339e-19)
(1.59186 -2.29417 7.98794e-20)
(5.7148 -7.72939 1.62111e-18)
(5.1134 -7.40385 -1.02495e-18)
(4.82739 -6.91549 -7.71258e-19)
(4.54259 -6.46782 3.34474e-19)
(4.26215 -6.05038 -6.47423e-19)
(3.99572 -5.65231 0)
(3.74205 -5.27417 0)
(3.50096 -4.9172 0)
(3.27333 -4.58205 -2.09307e-20)
(3.05985 -4.26916 -5.23255e-19)
(2.86094 -3.97861 2.39295e-19)
(2.67671 -3.71015 1.8076e-19)
(2.50706 -3.46323 1.36327e-19)
(2.3517 -3.23706 -5.82547e-19)
(2.21017 -3.03065 2.69281e-19)
(2.08185 -2.84283 0)
(1.96599 -2.6722 -9.38484e-21)
(1.86212 -2.51683 -2.71756e-19)
(1.77019 -2.37404 -1.45239e-21)
(1.68554 -2.24391 -7.98876e-20)
(6.01605 -7.50168 -1.11747e-18)
(5.4054 -7.20398 -5.4167e-19)
(5.10221 -6.72891 3.23258e-19)
(4.80057 -6.29324 -1.13681e-19)
(4.5037 -5.8869 -1.80457e-18)
(4.22119 -5.49899 1.51977e-18)
(3.95202 -5.13035 -3.44885e-20)
(3.69622 -4.78237 3.6134e-19)
(3.45478 -4.45579 3.05513e-19)
(3.22846 -4.15103 2.6261e-19)
(3.01769 -3.86821 2.25456e-19)
(2.82259 -3.60706 3.76981e-19)
(2.64302 -3.36705 -1.79259e-19)
(2.47865 -3.14741 4.24467e-19)
(2.32898 -2.94722 -2.72384e-19)
(2.19336 -2.76538 -1.01374e-19)
(2.07102 -2.60066 4.11872e-19)
(1.96149 -2.4512 2.6005e-19)
(1.86483 -2.31421 -8.14892e-21)
(1.77628 -2.18984 0)
(6.30915 -7.26254 -5.61818e-19)
(5.69012 -6.99281 1.0067e-18)
(5.37004 -6.53145 7.86101e-19)
(5.05187 -6.10829 -1.14036e-19)
(4.73888 -5.71365 -6.10928e-19)
(4.44056 -5.33653 4.43648e-20)
(4.15617 -4.97801 2.03252e-21)
(3.88595 -4.63962 1.88807e-21)
(3.63098 -4.32216 0)
(3.3921 -4.02606 2.48629e-19)
(3.16976 -3.75143 -4.6819e-19)
(2.96405 -3.498 -1.82451e-19)
(2.7748 -3.26525 1.80822e-19)
(2.60163 -3.05242 -1.47228e-19)
(2.44397 -2.85865 1.30517e-19)
(2.30116 -2.68297 -1.13852e-19)
(2.1724 -2.52428 1.27476e-21)
(2.05724 -2.38087 -8.98369e-20)
(1.95594 -2.2499 -8.02146e-20)
(1.86384 -2.13173 -7.91124e-20)
(6.59451 -7.01244 0)
(5.96747 -6.77034 -4.68638e-19)
(5.63046 -6.32311 4.6327e-19)
(5.29602 -5.91309 7.18422e-19)
(4.96724 -5.53081 -6.04279e-19)
(4.65343 -5.16513 4.72395e-19)
(4.35413 -4.81736 -8.93607e-19)
(4.06979 -4.48917 -7.28286e-19)
(3.80162 -4.18138 -2.89954e-19)
(3.5505 -3.89444 2.07917e-20)
(3.3169 -3.62846 -2.14185e-19)
(3.10089 -3.38315 1.43725e-20)
(2.90225 -3.15797 0)
(2.7205 -2.95219 -2.82995e-19)
(2.55504 -2.76499 1.47521e-19)
(2.40512 -2.59548 0)
(2.2699 -2.44273 -1.02195e-19)
(2.14892 -2.30513 -1.74848e-19)
(2.04257 -2.18013 1.71805e-19)
(1.94678 -2.06927 8.21199e-20)
(6.87184 -6.75068 0)
(6.23702 -6.53597 0)
(5.88297 -6.1039 -7.9198e-19)
(5.53256 -5.70791 -6.03726e-19)
(5.18836 -5.33873 1.26229e-18)
(4.85943 -4.98515 0)
(4.54558 -4.64874 0)
(4.24748 -4.33131 3.65056e-19)
(3.96645 -4.03373 0)
(3.70346 -3.75646 0)
(3.45895 -3.49955 0)
(3.23299 -3.26274 0)
(3.02529 -3.04544 0)
(2.83532 -2.84693 0)
(2.66236 -2.66638 0)
(2.50557 -2.50295 0)
(2.36406 -2.35569 0)
(2.23706 -2.22313 0)
(2.12416 -2.10382 0)
(2.02247 -2.00094 0)
(9.70907 0.0867379 7.20049e-20)
(9.69966 -0.295951 1.37255e-19)
(9.67561 -0.676822 -1.44153e-19)
(9.63739 -1.0558 2.8865e-19)
(9.58466 -1.43257 -2.88649e-19)
(9.51727 -1.80667 -2.61202e-19)
(9.43527 -2.17758 -2.61217e-19)
(9.3388 -2.54478 8.65844e-19)
(9.22803 -2.90773 -5.77176e-19)
(9.10315 -3.2659 5.76259e-19)
(8.96437 -3.61875 -5.7626e-19)
(8.81195 -3.96576 5.75252e-19)
(8.64614 -4.30642 -1.14793e-18)
(8.46724 -4.64022 1.66674e-18)
(8.27555 -4.96669 0)
(8.0714 -5.28537 -1.65849e-18)
(7.85513 -5.59585 2.28262e-21)
(7.62718 -5.89774 1.70853e-18)
(7.38765 -6.19092 0)
(7.13805 -6.47464 0)
(9.1801 -0.214958 0)
(9.15922 -0.575528 -1.27268e-20)
(9.12366 -0.934021 0)
(9.07386 -1.29022 2.40353e-19)
(9.00991 -1.64378 2.60013e-19)
(8.93194 -1.9942 -7.29683e-19)
(8.84007 -2.34094 1.3318e-18)
(8.7345 -2.68347 -5.20234e-19)
(8.61546 -3.02128 -4.81539e-19)
(8.48317 -3.35384 -4.81216e-19)
(8.3379 -3.68066 3.79615e-20)
(8.17992 -4.00124 5.17247e-19)
(8.00954 -4.3151 -2.54965e-18)
(7.82707 -4.62179 -5.76735e-19)
(7.63286 -4.92089 1.03235e-18)
(7.42724 -5.21198 1.05305e-18)
(7.21055 -5.4947 5.50106e-19)
(6.98318 -5.76872 -1.02562e-18)
(6.74514 -6.03382 4.73106e-19)
(6.49699 -6.28949 0)
(8.63902 -0.167325 5.42535e-20)
(8.62249 -0.505469 -1.13457e-19)
(8.59184 -0.842248 3.18909e-19)
(8.54726 -1.17716 -2.37269e-19)
(8.48892 -1.50974 -2.18313e-19)
(8.41707 -1.83943 2.38023e-19)
(8.33185 -2.16569 0)
(8.23349 -2.48799 0)
(8.12221 -2.80582 8.81811e-19)
(7.99826 -3.11867 1.31829e-18)
(7.8619 -3.42606 -3.98305e-19)
(7.71341 -3.72751 1.30845e-18)
(7.5531 -4.02255 -3.9798e-19)
(7.38127 -4.31075 -1.27233e-18)
(7.19826 -4.59169 1.82219e-21)
(7.0044 -4.86498 7.97658e-19)
(6.80002 -5.13024 -3.31477e-19)
(6.58546 -5.38711 -7.99419e-19)
(6.36091 -5.6353 -4.67687e-19)
(6.12673 -5.87423 7.94688e-19)
(8.09409 -0.1452 0)
(8.08151 -0.46089 8.46943e-20)
(8.05561 -0.775712 8.38743e-20)
(8.01641 -1.08907 -3.53802e-19)
(7.9641 -1.40044 0)
(7.89889 -1.70927 0)
(7.82093 -2.01504 0)
(7.73043 -2.31722 0)
(7.6276 -2.6153 -4.00623e-19)
(7.51267 -2.90879 -4.00417e-19)
(7.38589 -3.19721 0)
(7.24755 -3.48009 7.3552e-19)
(7.09792 -3.75699 -1.81072e-18)
(6.93732 -4.02746 1.47292e-18)
(6.76605 -4.29109 -1.41049e-18)
(6.58443 -4.5475 -3.42758e-19)
(6.39281 -4.7963 1.1556e-19)
(6.19148 -5.0371 1.15362e-19)
(5.98079 -5.2696 -7.2345e-19)
(5.76098 -5.49322 -6.11177e-20)
(7.55887 -0.139059 0)
(7.54945 -0.432737 -8.35281e-20)
(7.52758 -0.725882 0)
(7.49323 -1.01792 1.67941e-19)
(7.44653 -1.30831 1.54941e-19)
(7.38765 -1.59654 1.33091e-19)
(7.31673 -1.88208 0)
(7.23394 -2.16444 0)
(7.13946 -2.44311 0)
(7.03351 -2.71762 0)
(6.91632 -2.9875 2.88245e-19)
(6.78815 -3.25229 3.31538e-19)
(6.64925 -3.51156 3.35143e-19)
(6.49992 -3.76488 -3.36762e-19)
(6.34044 -4.01184 -5.2018e-19)
(6.17113 -4.25205 6.68189e-19)
(5.9923 -4.48513 1.27909e-18)
(5.80427 -4.7107 6.1996e-19)
(5.60739 -4.92844 0)
(5.40188 -5.13781 -5.64137e-19)
(7.04223 -0.133113 1.50009e-20)
(7.03566 -0.405701 0)
(7.01747 -0.677976 -2.51149e-19)
(6.98761 -0.949418 -3.37703e-22)
(6.9462 -1.21953 8.88047e-21)
(6.89337 -1.48783 -4.01297e-20)
(6.82924 -1.75381 0)
(6.75394 -2.01699 1.81212e-20)
(6.66764 -2.27691 -2.62262e-19)
(6.57053 -2.53309 5.06192e-19)
(6.46281 -2.78509 -5.46128e-19)
(6.34471 -3.03247 3.19509e-19)
(6.21647 -3.27481 -1.53145e-18)
(6.07835 -3.5117 1.00749e-18)
(5.93062 -3.74274 5.64285e-19)
(5.77358 -3.96754 0)
(5.60751 -4.18573 -9.98296e-19)
(5.43273 -4.39693 -4.28774e-20)
(5.24958 -4.60083 -9.91516e-19)
(5.05827 -4.79694 1.06917e-18)
(6.55116 -0.128351 1.25949e-20)
(6.54689 -0.380897 -2.73656e-20)
(6.53181 -0.633348 2.29432e-19)
(6.50588 -0.885175 -7.20129e-21)
(6.46918 -1.13593 2.30621e-19)
(6.42183 -1.38517 -3.50807e-19)
(6.36391 -1.63243 0)
(6.29555 -1.87725 2.40395e-19)
(6.21688 -2.11919 2.07518e-19)
(6.12807 -2.3578 -2.40345e-19)
(6.02929 -2.59266 4.14436e-19)
(5.92075 -2.82335 9.22911e-19)
(5.80266 -3.04948 -4.06626e-19)
(5.67526 -3.27064 -4.76928e-19)
(5.53879 -3.48645 4.41319e-19)
(5.39354 -3.69654 0)
(5.23976 -3.90055 3.67454e-20)
(5.07776 -4.09811 1.56947e-21)
(4.90786 -4.28891 9.06709e-19)
(4.73027 -4.47248 4.03643e-19)
(6.09016 -0.125311 0)
(6.08748 -0.358922 3.08962e-21)
(6.07496 -0.592748 -4.0635e-20)
(6.05237 -0.826142 -1.95432e-19)
(6.01975 -1.05865 1.76641e-19)
(5.9772 -1.28989 0)
(5.9248 -1.51943 3.66536e-19)
(5.86267 -1.74685 5.51687e-23)
(5.7909 -1.97172 -5.70877e-19)
(5.70965 -2.19364 0)
(5.61907 -2.4122 -4.07841e-19)
(5.51933 -2.62701 2.40486e-20)
(5.41064 -2.8377 -1.10597e-18)
(5.2932 -3.04387 1.00439e-21)
(5.16725 -3.24518 3.75366e-19)
(5.03303 -3.44126 0)
(4.8908 -3.63177 -3.7158e-19)
(4.74082 -3.81635 1.48679e-21)
(4.58342 -3.9947 3.70098e-19)
(4.41879 -4.16639 -3.97218e-19)
(5.66156 -0.123511 0)
(5.66011 -0.339563 4.30021e-20)
(5.64949 -0.555865 9.14032e-20)
(5.62968 -0.772072 -1.61259e-19)
(5.60055 -0.987568 -1.20642e-20)
(5.56215 -1.20197 -8.09325e-20)
(5.51459 -1.41491 -3.26517e-19)
(5.45795 -1.62599 1.62239e-19)
(5.39233 -1.83483 1.21019e-20)
(5.31786 -2.04104 1.61966e-19)
(5.23466 -2.24424 1.41688e-19)
(5.14291 -2.44406 6.5038e-19)
(5.04277 -2.64016 3.26983e-19)
(4.93444 -2.83216 6.42596e-19)
(4.81813 -3.01974 -3.20796e-19)
(4.69406 -3.20256 1.9496e-20)
(4.56249 -3.38027 -3.18426e-19)
(4.42366 -3.55256 0)
(4.27786 -3.71912 2.94783e-19)
(4.12529 -3.87955 0)
(5.26616 -0.122377 1.72099e-20)
(5.26572 -0.322392 -4.97122e-20)
(5.25663 -0.522568 1.39481e-19)
(5.23897 -0.722703 -6.96285e-20)
(5.21279 -0.922439 8.08543e-21)
(5.17797 -1.12124 -6.97792e-20)
(5.13459 -1.31876 1.49698e-19)
(5.08276 -1.51463 -1.39788e-19)
(5.02256 -1.70852 1.39788e-19)
(4.95409 -1.90005 2.62699e-19)
(4.87748 -2.08888 -2.98574e-19)
(4.79287 -2.27467 -2.03826e-20)
(4.70042 -2.45708 -8.51296e-19)
(4.60031 -2.63578 1.02374e-21)
(4.49273 -2.81045 1.71308e-20)
(4.3779 -2.98078 5.51213e-19)
(4.25605 -3.14645 -2.71932e-19)
(4.12741 -3.30715 -2.53241e-19)
(3.99226 -3.4626 -1.93112e-20)
(3.85078 -3.61241 0)
(4.90393 -0.121772 0)
(4.90413 -0.307007 6.197e-20)
(4.89634 -0.492545 -2.11324e-19)
(4.88047 -0.677952 -5.38203e-20)
(4.85663 -0.863082 1.29089e-19)
(4.82485 -1.04747 0)
(4.78509 -1.23074 0)
(4.73742 -1.41255 1.21203e-19)
(4.68194 -1.59258 -1.21203e-19)
(4.61875 -1.7705 9.08734e-20)
(4.54795 -1.94598 -1.20793e-19)
(4.46968 -2.1187 2.40132e-19)
(4.38408 -2.28836 -4.79334e-19)
(4.29132 -2.45464 4.77355e-19)
(4.19158 -2.61725 1.59377e-20)
(4.08507 -2.7759 -2.52911e-19)
(3.97199 -2.9303 -2.3446e-19)
(3.85259 -3.08015 4.84767e-19)
(3.72711 -3.22518 2.18654e-19)
(3.59576 -3.36503 0)
(4.57406 -0.121547 7.1103e-22)
(4.57466 -0.293275 3.80059e-20)
(4.56779 -0.465357 8.23154e-20)
(4.5534 -0.637437 5.94523e-20)
(4.53156 -0.809152 5.29053e-20)
(4.50229 -0.980311 4.74362e-20)
(4.46559 -1.15048 0)
(4.42151 -1.31935 -2.0054e-19)
(4.37012 -1.48662 -1.05572e-19)
(4.31152 -1.65198 8.08746e-20)
(4.24581 -1.81512 0)
(4.17312 -1.97575 2.09038e-19)
(4.09358 -2.13359 -6.14383e-19)
(4.00734 -2.28835 2.08071e-19)
(3.91458 -2.43976 0)
(3.81549 -2.58755 -1.93853e-19)
(3.71028 -2.73145 -3.95845e-19)
(3.59917 -2.8712 1.92578e-19)
(3.48242 -3.00653 -1.29581e-20)
(3.36023 -3.1371 0)
(4.27524 -0.121564 1.23181e-21)
(4.27601 -0.281013 -2.43926e-20)
(4.26981 -0.440831 4.63497e-20)
(4.2566 -0.600705 -4.52919e-21)
(4.23637 -0.760276 9.29978e-20)
(4.20917 -0.919342 -1.45131e-19)
(4.17506 -1.07754 0)
(4.13403 -1.23456 2.03346e-20)
(4.08615 -1.39012 0)
(4.03153 -1.54394 -1.96216e-19)
(3.97026 -1.69573 0)
(3.90245 -1.84523 -1.74186e-19)
(3.82822 -1.99217 5.49156e-19)
(3.74774 -2.13629 -3.63084e-19)
(3.66115 -2.27734 1.80992e-19)
(3.56865 -2.41509 -1.48973e-19)
(3.47044 -2.54928 1.89219e-19)
(3.36675 -2.67968 -1.87903e-19)
(3.25782 -2.80603 0)
(3.14388 -2.92802 0)
(4.00578 -0.121711 1.07094e-20)
(4.00657 -0.270033 0)
(4.0008 -0.418732 0)
(3.98845 -0.567514 -8.67452e-20)
(3.96951 -0.716073 -7.8545e-20)
(3.94405 -0.864088 0)
(3.91209 -1.01138 0)
(3.87363 -1.1576 1.69233e-20)
(3.82876 -1.30248 1.56254e-19)
(3.77756 -1.44574 -7.41097e-20)
(3.72012 -1.58715 -8.15305e-20)
(3.65656 -1.72643 3.32491e-19)
(3.58699 -1.86336 -4.91855e-19)
(3.51155 -1.99771 3.12216e-19)
(3.4304 -2.12924 0)
(3.34372 -2.25774 6.32449e-19)
(3.25172 -2.383 -4.51741e-19)
(3.1546 -2.50479 1.55427e-19)
(3.05265 -2.62292 2.90988e-19)
(2.94611 -2.73703 0)
(3.7638 -0.121889 -8.66209e-21)
(3.76444 -0.260159 0)
(3.75891 -0.398806 -1.63246e-21)
(3.74718 -0.537548 -7.01706e-20)
(3.72928 -0.676106 2.20711e-19)
(3.70519 -0.814152 -3.66941e-20)
(3.67498 -0.951528 0)
(3.63869 -1.08792 2.9378e-19)
(3.59638 -1.22306 -1.53517e-19)
(3.54812 -1.35671 1.42628e-20)
(3.494 -1.48864 1.37863e-19)
(3.43413 -1.6186 1.43028e-19)
(3.36862 -1.74639 -2.85002e-19)
(3.2976 -1.87179 -2.76868e-19)
(3.22123 -1.9946 -2.67195e-19)
(3.13967 -2.11464 -2.93681e-19)
(3.05313 -2.23174 2.91124e-19)
(2.96184 -2.34569 -1.35725e-19)
(2.86607 -2.45635 -1.50166e-19)
(2.76615 -2.56331 0)
(3.54724 -0.122018 8.51027e-21)
(3.54761 -0.251226 -3.13265e-20)
(3.54214 -0.380804 -3.29737e-20)
(3.53083 -0.510484 9.90714e-20)
(3.51369 -0.640002 -3.60686e-20)
(3.49072 -0.769079 -3.28813e-20)
(3.46197 -0.89745 0)
(3.4275 -1.02491 -1.37359e-19)
(3.38736 -1.15123 0)
(3.34162 -1.27615 1.36222e-19)
(3.29037 -1.39946 -2.58842e-19)
(3.2337 -1.52095 1.27508e-19)
(3.17174 -1.64042 -2.53941e-19)
(3.1046 -1.75769 2.6604e-19)
(3.03242 -1.87257 1.49678e-19)
(2.95537 -1.98492 0)
(2.87365 -2.0946 -1.21455e-19)
(2.78748 -2.20144 1.21456e-19)
(2.69718 -2.30541 0)
(2.60314 -2.40595 0)
(3.35399 -0.122044 0)
(3.35398 -0.243093 3.07779e-20)
(3.34845 -0.364501 1.29655e-21)
(3.33738 -0.486013 -3.23214e-20)
(3.32081 -0.607373 -2.73558e-20)
(3.29875 -0.728312 -2.96289e-20)
(3.27123 -0.848573 1.13582e-19)
(3.23829 -0.96798 0)
(3.2 -1.08631 0)
(3.15644 -1.20334 5.80734e-20)
(3.10769 -1.31887 6.3161e-20)
(3.05385 -1.43269 2.20161e-19)
(2.99501 -1.54464 -1.13182e-19)
(2.93129 -1.65454 1.13182e-19)
(2.86283 -1.76225 1.23176e-19)
(2.78977 -1.86765 9.54541e-21)
(2.71231 -1.97065 -2.17621e-19)
(2.63066 -2.0711 1.30744e-21)
(2.54519 -2.16915 1.06848e-19)
(2.45632 -2.26388 0)
(3.18194 -0.121895 -6.66237e-21)
(3.1815 -0.235638 6.66232e-21)
(3.1758 -0.349726 0)
(3.16486 -0.463917 2.48944e-20)
(3.14871 -0.57796 8.28427e-20)
(3.1274 -0.691559 -1.03369e-19)
(3.1009 -0.80452 -1.11598e-19)
(3.06927 -0.916704 0)
(3.0326 -1.02787 0)
(2.99096 -1.13782 0)
(2.94443 -1.24635 -2.00927e-19)
(2.89309 -1.35329 -1.73072e-20)
(2.83705 -1.45848 -1.01849e-19)
(2.77639 -1.56177 7.93904e-21)
(2.71125 -1.66306 -2.00062e-19)
(2.64176 -1.76224 3.06403e-19)
(2.5681 -1.85928 -2.83628e-19)
(2.49041 -1.95405 9.67755e-20)
(2.40924 -2.04692 1.81561e-19)
(2.32479 -2.13602 0)
(3.02901 -0.121432 5.84873e-21)
(3.02809 -0.228727 0)
(3.02217 -0.336362 -2.44369e-20)
(3.01127 -0.444117 -5.08666e-20)
(2.99546 -0.551749 2.4456e-20)
(2.97478 -0.658872 1.95814e-19)
(2.94914 -0.765364 0)
(2.91862 -0.871195 -9.34454e-20)
(2.88336 -0.976079 -4.79857e-20)
(2.84341 -1.07981 -8.86477e-20)
(2.79882 -1.18221 -3.27102e-20)
(2.74969 -1.28313 -2.82874e-19)
(2.69609 -1.38242 -1.85512e-19)
(2.63812 -1.47997 1.92363e-19)
(2.57588 -1.57568 1.80808e-19)
(2.50948 -1.66949 -1.29701e-21)
(2.43907 -1.76141 7.94773e-21)
(2.36472 -1.85136 8.71702e-20)
(2.28727 -1.93988 -1.78401e-19)
(2.20627 -2.02303 0)
(2.89316 -0.120801 -1.22268e-20)
(2.89179 -0.222225 6.00771e-21)
(2.88564 -0.32401 -2.41557e-20)
(2.87476 -0.425979 2.41505e-20)
(2.85927 -0.527942 -6.89958e-20)
(2.8392 -0.629475 -2.17042e-19)
(2.81436 -0.730344 0)
(2.78489 -0.830543 9.92068e-20)
(2.75096 -0.929927 -9.10345e-20)
(2.71254 -1.02829 1.95557e-19)
(2.66971 -1.12547 1.93757e-19)
(2.62254 -1.2213 2.83268e-19)
(2.5711 -1.31567 -1.81911e-19)
(2.51546 -1.40846 9.03734e-20)
(2.45569 -1.4996 -8.77823e-20)
(2.39187 -1.58905 8.7793e-20)
(2.3241 -1.67686 0)
(2.25235 -1.76301 7.53731e-20)
(2.17806 -1.84808 -7.2174e-20)
(2.09948 -1.92553 0)
(6.80941 6.93045 0)
(7.0782 6.65541 0)
(7.33525 6.37162 5.27682e-19)
(7.58118 6.07932 7.86624e-21)
(7.81542 5.7781 -5.82843e-19)
(8.03743 5.46804 0)
(8.2468 5.14945 5.98178e-19)
(8.44321 4.82277 -1.08227e-18)
(8.62636 4.48849 -5.46493e-19)
(8.79595 4.14712 -5.51472e-19)
(8.95172 3.79923 5.5147e-19)
(9.09342 3.44536 -5.57542e-19)
(9.22083 3.08611 2.78056e-19)
(9.33377 2.72206 2.53134e-19)
(9.43208 2.35383 2.54375e-19)
(9.51564 1.982 -2.83751e-19)
(9.58434 1.60718 2.83751e-19)
(9.63817 1.22998 -1.42858e-19)
(9.67708 0.850762 -6.49492e-20)
(9.7014 0.470756 3.57717e-20)
(6.61431 6.29084 0)
(6.86355 6.0309 -4.17335e-19)
(7.10114 5.76164 -9.24498e-19)
(7.32748 5.48341 1.3508e-18)
(7.54237 5.19626 -9.62083e-19)
(7.74549 4.90056 9.50593e-19)
(7.93642 4.59671 5.48133e-19)
(8.11483 4.28519 -1.48249e-18)
(8.2804 3.96648 4.79545e-19)
(8.4328 3.64109 9.37489e-19)
(8.57176 3.30959 4.53846e-19)
(8.69701 2.97251 4.5713e-19)
(8.80834 2.63046 -5.00435e-19)
(8.90556 2.28401 7.21393e-19)
(8.98851 1.93379 -1.03998e-18)
(9.05705 1.58042 2.52975e-19)
(9.11107 1.22447 -2.35364e-19)
(9.15053 0.866552 0)
(9.17528 0.507052 1.27151e-20)
(9.18536 0.14672 0)
(6.15639 5.87471 -6.78259e-19)
(6.39326 5.63876 4.1256e-19)
(6.61995 5.39308 6.9594e-19)
(6.83618 5.13804 2.82991e-19)
(7.04175 4.87404 8.48184e-19)
(7.23637 4.60155 8.09782e-21)
(7.41965 4.32098 -4.22623e-19)
(7.59124 4.03282 -1.24012e-18)
(7.75082 3.73753 1.20699e-18)
(7.89806 3.43561 -1.25816e-18)
(8.03268 3.12758 -4.18873e-19)
(8.15439 2.81397 -8.33452e-19)
(8.26295 2.49535 0)
(8.35818 2.17227 0)
(8.43994 1.8453 0)
(8.50805 1.51496 -2.12594e-19)
(8.56235 1.18182 2.31572e-19)
(8.60273 0.846462 2.13692e-19)
(8.62903 0.509385 4.77616e-21)
(8.64114 0.171353 5.38961e-20)
(5.72004 5.4436 7.24546e-19)
(5.94253 5.22872 -6.12633e-19)
(6.15609 5.00441 -1.12808e-19)
(6.36021 4.77105 -1.13204e-19)
(6.55459 4.52902 1.58726e-18)
(6.73891 4.27878 -4.78102e-20)
(6.91281 4.02073 -1.64956e-21)
(7.07594 3.75528 -1.02201e-18)
(7.22797 3.48289 6.67564e-19)
(7.36858 3.20403 0)
(7.49749 2.91917 3.73602e-19)
(7.61441 2.62882 3.76702e-19)
(7.71911 2.33349 0)
(7.81133 2.0337 0)
(7.89085 1.72994 0)
(7.95753 1.42274 0)
(8.01123 1.11263 -1.38525e-20)
(8.05182 0.800174 1.79372e-19)
(8.07926 0.485947 -8.36715e-20)
(8.09331 0.170653 0)
(5.31177 5.01986 5.50054e-19)
(5.51918 4.82356 0)
(5.71864 4.61842 -1.55951e-18)
(5.9096 4.40474 -5.36573e-19)
(6.09172 4.18287 -5.81918e-19)
(6.26468 3.9532 -6.34797e-19)
(6.42811 3.71609 2.91384e-19)
(6.58169 3.47192 -3.08452e-19)
(6.72508 3.2211 8.12544e-19)
(6.85799 2.96405 -2.60827e-19)
(6.9801 2.70121 0)
(7.09117 2.43303 0)
(7.19092 2.15997 0)
(7.27912 1.88252 0)
(7.35554 1.60117 -4.22177e-19)
(7.42001 1.31646 1.48324e-19)
(7.47238 1.02891 -1.63241e-19)
(7.51252 0.739067 0)
(7.54042 0.447473 8.25196e-20)
(7.55585 0.154554 0)
(4.92681 4.62127 4.14781e-19)
(5.11944 4.44172 -2.93816e-20)
(5.30492 4.25399 8.96438e-19)
(5.48274 4.05827 4.445e-19)
(5.65255 3.85491 0)
(5.81404 3.64422 -4.88516e-19)
(5.96685 3.42653 3.71834e-20)
(6.11067 3.20219 -4.93608e-19)
(6.24517 2.97156 6.39815e-19)
(6.37006 2.73502 1.99001e-20)
(6.48506 2.49296 1.59518e-20)
(6.5899 2.2458 -2.42389e-19)
(6.68433 1.99396 4.68534e-19)
(6.76812 1.73789 0)
(6.84107 1.47805 3.92974e-20)
(6.90298 1.21493 2.4184e-19)
(6.95371 0.949005 9.01665e-22)
(6.99312 0.680775 -8.47108e-21)
(7.02104 0.410717 0)
(7.03731 0.13925 -1.49285e-20)
(4.568 4.24997 0)
(4.74651 4.08557 -2.95997e-20)
(4.91856 3.91359 6.74126e-21)
(5.0837 3.73423 -7.49964e-19)
(5.24157 3.54775 0)
(5.39186 3.35445 3.75785e-19)
(5.53425 3.15461 4.18757e-19)
(5.66842 2.94855 -1.18813e-18)
(5.79409 2.73659 -3.71e-20)
(5.91096 2.51906 -3.67796e-19)
(6.01877 2.29632 2.17767e-19)
(6.11726 2.06875 -1.88783e-19)
(6.2062 1.83674 -2.22677e-19)
(6.28536 1.60068 0)
(6.35454 1.361 1.21826e-19)
(6.41355 1.11813 -9.2923e-21)
(6.46225 0.872505 -1.06923e-19)
(6.50048 0.624568 -9.27541e-21)
(6.52812 0.374765 -2.7088e-20)
(6.5449 0.123638 5.44589e-20)
(4.23615 3.90588 0)
(4.40144 3.75522 2.91263e-19)
(4.56087 3.59757 6.29849e-21)
(4.71402 3.43311 -2.97556e-19)
(4.86057 3.26205 0)
(5.00021 3.08465 3.15451e-19)
(5.13263 2.90117 -2.90425e-19)
(5.25755 2.71188 -3.46085e-19)
(5.37468 2.51707 6.32878e-19)
(5.48376 2.31704 3.61945e-19)
(5.58454 2.11212 0)
(5.67676 1.90264 1.73233e-19)
(5.76021 1.68895 -2.07491e-21)
(5.83467 1.47143 1.05941e-20)
(5.89995 1.25044 0)
(5.95587 1.02639 -1.67738e-19)
(6.00228 0.799669 -9.08852e-20)
(6.03902 0.570693 1.30438e-19)
(6.066 0.33989 8.87729e-20)
(6.08302 0.107713 -1.24697e-20)
(3.93048 3.58839 0)
(4.08359 3.4503 -2.23256e-19)
(4.23136 3.30577 0)
(4.37341 3.15494 -2.55331e-19)
(4.50944 2.998 4.95689e-19)
(4.63915 2.83517 -5.12067e-19)
(4.76226 2.66667 8.29038e-19)
(4.87849 2.49276 -8.23885e-19)
(4.98758 2.31368 -5.62165e-19)
(5.08929 2.12971 -4.08224e-19)
(5.18336 1.94115 1.42956e-19)
(5.26958 1.74829 -3.04764e-19)
(5.34772 1.55146 8.39117e-21)
(5.41759 1.351 3.02133e-19)
(5.479 1.14724 -7.62685e-20)
(5.53178 0.940556 3.18294e-19)
(5.57578 0.731311 -1.54763e-19)
(5.61085 0.519885 6.70318e-20)
(5.63692 0.30667 -4.22817e-20)
(5.65377 0.0920626 0)
(3.64997 3.2964 0)
(3.79198 3.16987 4.24518e-19)
(3.92912 3.0374 1.99139e-19)
(4.06104 2.89909 -2.10548e-19)
(4.18744 2.75512 -4.40526e-19)
(4.30805 2.60565 6.77152e-19)
(4.42258 2.4509 4.88604e-21)
(4.5308 2.29107 -2.15375e-19)
(4.63246 2.1264 4.92194e-19)
(4.72731 1.95714 2.6083e-19)
(4.81513 1.78355 -2.31561e-19)
(4.89571 1.60592 1.26202e-19)
(4.96884 1.42453 1.02518e-20)
(5.03434 1.2397 -1.38224e-19)
(5.09202 1.05175 -6.55828e-20)
(5.14173 0.861002 1.31868e-19)