/*--------------------------------*- C++ -*----------------------------------*\
  =========                 |
  \\      /  F ield         | OpenFOAM: The Open Source CFD Toolbox
   \\    /   O peration     | Website:  https://openfoam.org
    \\  /    A nd           | Version:  6.0
     \\/     M anipulation  |
\*---------------------------------------------------------------------------*/
FoamFile
{
    version     2.0;
    format      ascii;
    class       surfaceScalarField;
    location    "19";
    object      phi;
}
// * * * * * * * * * * * * * * * * * * * * * * * * * * * * * * * * * * * * * //

dimensions      [0 3 -1 0 0 0 0];

internalField   nonuniform List<scalar> 
38030
(
9.54788e-05
-0.282318
0.282222
0.000443997
-0.270067
0.269719
0.000969073
-0.260931
0.260406
0.00160875
-0.253643
0.253003
0.00231814
-0.247442
0.246732
0.00306265
-0.241802
0.241058
0.0038169
-0.236416
0.235662
0.00456358
-0.231123
0.230377
0.00529176
-0.225853
0.225124
0.00599537
-0.220587
0.219883
0.00667183
-0.215338
0.214661
0.00732102
-0.210131
0.209482
0.00794435
-0.204994
0.204371
0.00854416
-0.199955
0.199356
0.00912318
-0.195037
0.194458
0.00968425
-0.190256
0.189695
0.0102301
-0.185626
0.18508
0.0107631
-0.181152
0.180619
0.0112855
-0.17684
0.176318
0.0117991
-0.172689
0.172175
0.0123056
-0.168697
0.168191
0.0128064
-0.164861
0.16436
0.0133029
-0.161174
0.160678
0.0137965
-0.157631
0.157138
0.0142884
-0.154222
0.15373
0.01478
-0.150936
0.150444
0.0152726
-0.147758
0.147266
0.0157669
-0.144673
0.144178
0.016263
-0.141658
0.141162
-0.138689
0.138192
0.01676
0.000113086
-0.282431
0.000464325
-0.270418
0.000989297
-0.261456
0.00162764
-0.254281
0.0023339
-0.248148
0.00307373
-0.242542
0.00382205
-0.237165
0.00456175
-0.231863
0.00528214
-0.226573
0.00597739
-0.221282
0.00664517
-0.216006
0.00728554
-0.210771
0.00790009
-0.205609
0.00849125
-0.200547
0.00906185
-0.195608
0.00961477
-0.190809
0.0101527
-0.186164
0.0106782
-0.181678
0.0111932
-0.177355
0.0116997
-0.173195
0.0121993
-0.169197
0.0126933
-0.165355
0.013183
-0.161664
0.0136699
-0.158118
0.0141552
-0.154707
0.0146403
-0.151421
0.0151266
-0.148245
0.015615
-0.145161
0.0161057
-0.142149
-0.139181
0.0165982
0.000128954
-0.28256
0.000483191
-0.270773
0.00100706
-0.26198
0.00164354
-0.254918
0.00234659
-0.248851
0.00308161
-0.243277
0.00382372
-0.237907
0.00455608
-0.232595
0.00526828
-0.227285
0.00595476
-0.221969
0.00661345
-0.216664
0.00724461
-0.211402
0.00785
-0.206214
0.00843216
-0.201129
0.00899402
-0.196169
0.00953847
-0.191354
0.0100683
-0.186694
0.0105858
-0.182195
0.0110933
-0.177863
0.0115924
-0.173695
0.0120848
-0.169689
0.0125717
-0.165842
0.0130545
-0.162147
0.0135344
-0.158598
0.0140128
-0.155186
0.0144912
-0.151899
0.0149708
-0.148724
0.015453
-0.145643
0.0159381
-0.142634
-0.139669
0.0164257
0.000135235
-0.282695
0.00049495
-0.271132
0.00102033
-0.262505
0.0016558
-0.255553
0.0023558
-0.249551
0.00308592
-0.244007
0.00382156
-0.238643
0.00454624
-0.23332
0.00524989
-0.227989
0.00592724
-0.222646
0.00657647
-0.217314
0.00719808
-0.212024
0.00779398
-0.20681
0.00836684
-0.201702
0.00891965
-0.196722
0.00945536
-0.191889
0.00997672
-0.187215
0.0104862
-0.182705
0.0109858
-0.178362
0.0114773
-0.174186
0.0119622
-0.170174
0.0124418
-0.166321
0.0129174
-0.162623
0.0133902
-0.159071
0.0138615
-0.155657
0.0143328
-0.152371
0.0148056
-0.149197
0.0152813
-0.146119
0.0157604
-0.143113
-0.140151
0.0162431
0.00013999
-0.282835
0.000504002
-0.271496
0.00103082
-0.263032
0.00166516
-0.256188
0.00236189
-0.250248
0.00308684
-0.244732
0.00381571
-0.239371
0.00453236
-0.234037
0.00522708
-0.228684
0.00589493
-0.223314
0.00653436
-0.217953
0.00714608
-0.212636
0.00773216
-0.207396
0.00829541
-0.202265
0.00883888
-0.197266
0.00936557
-0.192416
0.00987824
-0.187728
0.0103793
-0.183206
0.0108708
-0.178854
0.0113545
-0.17467
0.0118318
-0.170651
0.0123039
-0.166793
0.012772
-0.163091
0.0132374
-0.159536
0.0137014
-0.156121
0.0141655
-0.152835
0.0146313
-0.149663
0.0151002
-0.146588
0.0155733
-0.143586
-0.140629
0.0160507
0.000143092
-0.282978
0.000510442
-0.271864
0.00103853
-0.26356
0.00167167
-0.256821
0.00236492
-0.250941
0.0030844
-0.245452
0.00380615
-0.240093
0.00451442
-0.234745
0.00519986
-0.229369
0.00585785
-0.223972
0.00648713
-0.218582
0.00708862
-0.213237
0.00766458
-0.207972
0.00821792
-0.202818
0.00875177
-0.1978
0.00926918
-0.192934
0.0097729
-0.188231
0.0102654
-0.183698
0.0107486
-0.179337
0.0112242
-0.175145
0.0116936
-0.171121
0.012158
-0.167258
0.0126185
-0.163551
0.0130764
-0.159994
0.0135329
-0.156578
0.0139895
-0.153291
0.0144481
-0.150121
0.0149101
-0.14705
0.0153769
-0.144053
-0.141101
0.0158488
0.000145543
-0.283124
0.00051538
-0.272234
0.00104418
-0.264089
0.00167572
-0.257452
0.00236513
-0.25163
0.00307876
-0.246165
0.00379302
-0.240807
0.00449252
-0.235445
0.0051683
-0.230045
0.00581608
-0.22462
0.00643486
-0.219201
0.00702581
-0.213828
0.00759133
-0.208538
0.00813447
-0.203361
0.00865843
-0.198324
0.00916628
-0.193441
0.00966081
-0.188726
0.0101444
-0.184182
0.0106191
-0.179812
0.0110864
-0.175613
0.0115478
-0.171582
0.0120043
-0.167714
0.0124571
-0.164004
0.0129072
-0.160444
0.013356
-0.157026
0.0138051
-0.15374
0.0142563
-0.150573
0.0147112
-0.147505
0.0151715
-0.144513
-0.141567
0.0156379
0.000147442
-0.283271
0.000519076
-0.272605
0.00104803
-0.264618
0.00167753
-0.258082
0.00236267
-0.252315
0.00307005
-0.246873
0.0037764
-0.241514
0.00446675
-0.236135
0.00513249
-0.230711
0.00576969
-0.225257
0.00637763
-0.219809
0.0069577
-0.214408
0.00751248
-0.209092
0.00804513
-0.203894
0.00855892
-0.198837
0.00905696
-0.193939
0.00954206
-0.189211
0.0100166
-0.184657
0.0104825
-0.180277
0.0109414
-0.176072
0.0113945
-0.172035
0.011843
-0.168163
0.0122878
-0.164449
0.0127301
-0.160886
0.0131711
-0.157467
0.0136124
-0.154182
0.014056
-0.151016
0.0145037
-0.147953
0.0149574
-0.144967
-0.142028
0.0154181
0.000148969
-0.28342
0.000521813
-0.272978
0.00105037
-0.265147
0.00167733
-0.258709
0.00235774
-0.252996
0.00305841
-0.247573
0.00375643
-0.242212
0.00443722
-0.236816
0.00509253
-0.231366
0.00571878
-0.225883
0.00631553
-0.220406
0.0068844
-0.214977
0.00742813
-0.209636
0.00795
-0.204416
0.00845334
-0.199341
0.00894131
-0.194427
0.00941671
-0.189686
0.00988191
-0.185122
0.0103389
-0.180734
0.0107891
-0.176522
0.0112338
-0.17248
0.011674
-0.168603
0.0121107
-0.164885
0.012545
-0.161321
0.012978
-0.1579
0.0134114
-0.154615
0.0138473
-0.151452
0.0142877
-0.148393
0.0147346
-0.145413
-0.142483
0.0151896
0.00015017
-0.28357
0.000523725
-0.273352
0.00105135
-0.265674
0.00167528
-0.259333
0.00235049
-0.253671
0.00304399
-0.248267
0.00373324
-0.242901
0.00440404
-0.237487
0.00504853
-0.23201
0.00566346
-0.226498
0.00624868
-0.220991
0.00680601
-0.215534
0.00733838
-0.210169
0.00784916
-0.204927
0.00834176
-0.199833
0.00881939
-0.194905
0.00928484
-0.190152
0.00974047
-0.185577
0.0101882
-0.181182
0.0106295
-0.176963
0.0110656
-0.172916
0.0114975
-0.169035
0.0119259
-0.165314
0.012352
-0.161747
0.0127769
-0.158325
0.0132023
-0.155041
0.0136303
-0.15188
0.0140632
-0.148826
0.0145033
-0.145854
-0.142932
0.0149525
0.000151095
-0.283722
0.000524908
-0.273725
0.00105112
-0.266201
0.00167153
-0.259953
0.00234105
-0.254341
0.00302693
-0.248953
0.00370697
-0.243581
0.00436735
-0.238147
0.00500062
-0.232644
0.00560385
-0.227101
0.00617718
-0.221564
0.00672265
-0.21608
0.00724333
-0.210689
0.00774271
-0.205426
0.00822429
-0.200315
0.00869128
-0.195372
0.0091465
-0.190607
0.0095923
-0.186023
0.0100306
-0.18162
0.0104628
-0.177395
0.0108901
-0.173343
0.0113133
-0.169458
0.0117333
-0.165734
0.012151
-0.162164
0.0125677
-0.158742
0.012985
-0.155458
0.013405
-0.1523
0.0138303
-0.149251
0.0142634
-0.146287
-0.143375
0.0147067
0.000151767
-0.283873
0.000525425
-0.274099
0.00104979
-0.266725
0.00166621
-0.26057
0.00232958
-0.255004
0.00300737
-0.249631
0.00367774
-0.244251
0.00432729
-0.238796
0.00494894
-0.233265
0.00554009
-0.227692
0.00610117
-0.222125
0.00663442
-0.216613
0.00714308
-0.211198
0.00763076
-0.205914
0.00810099
-0.200785
0.00855704
-0.195828
0.00900174
-0.191052
0.00943743
-0.186459
0.00986597
-0.182049
0.0102888
-0.177818
0.010707
-0.173761
0.0111214
-0.169872
0.0115328
-0.166145
0.0119421
-0.162574
0.0123503
-0.15915
0.0127593
-0.155867
0.0131712
-0.152712
0.0135887
-0.149669
0.0140147
-0.146713
-0.143813
0.014452
0.000152196
-0.284025
0.000525339
-0.274472
0.00104743
-0.267247
0.00165944
-0.261182
0.00231619
-0.255661
0.00298544
-0.2503
0.0036457
-0.244912
0.004284
-0.239435
0.00489363
-0.233875
0.00547233
-0.228271
0.00602079
-0.222674
0.00654148
-0.217134
0.00703778
-0.211694
0.0075134
-0.206389
0.00797196
-0.201244
0.00841674
-0.196273
0.0088506
-0.191486
0.00927586
-0.186884
0.00969437
-0.182467
0.0101075
-0.178231
0.0105164
-0.17417
0.0109218
-0.170278
0.0113243
-0.166548
0.0117249
-0.162974
0.0121246
-0.15955
0.0125251
-0.156267
0.0129286
-0.153115
0.0133382
-0.150078
0.0137571
-0.147132
-0.144244
0.0141883
0.000152393
-0.284178
0.000524689
-0.274845
0.00104416
-0.267766
0.00165133
-0.261789
0.00230104
-0.25631
0.0029613
-0.25096
0.00361103
-0.245561
0.00423767
-0.240061
0.00483488
-0.234472
0.00540074
-0.228837
0.00593621
-0.223209
0.00644397
-0.217642
0.00692755
-0.212178
0.00739077
-0.206852
0.0078373
-0.20169
0.00827046
-0.196706
0.00869312
-0.191908
0.0091076
-0.187299
0.00951573
-0.182876
0.00991891
-0.178635
0.0103181
-0.174569
0.0107142
-0.170674
0.0111076
-0.166941
0.0114993
-0.163366
0.0118901
-0.159941
0.0122819
-0.156659
0.012677
-0.153511
0.0130785
-0.15048
0.01349
-0.147543
-0.144669
0.0139151
0.000152363
-0.28433
0.00052353
-0.275216
0.00104005
-0.268283
0.00164201
-0.262391
0.00228427
-0.256953
0.00293511
-0.251611
0.00357389
-0.2462
0.00418846
-0.240676
0.00477285
-0.235057
0.0053255
-0.22939
0.00584761
-0.223731
0.00634206
-0.218136
0.00681256
-0.212648
0.007263
-0.207303
0.00769712
-0.202124
0.00811828
-0.197127
0.00852934
-0.192319
0.00893265
-0.187702
0.00933001
-0.183273
0.00972281
-0.179027
0.010112
-0.174959
0.0104984
-0.17106
0.0108824
-0.167325
0.0112648
-0.163748
0.0116466
-0.160323
0.0120295
-0.157042
0.0124158
-0.153897
0.012809
-0.150873
0.0132128
-0.147947
-0.145088
0.0136317
0.000152118
-0.284482
0.00052192
-0.275586
0.00103522
-0.268796
0.00163162
-0.262987
0.00226602
-0.257587
0.00290705
-0.252252
0.00353449
-0.246828
0.00413658
-0.241278
0.00470778
-0.235628
0.00524682
-0.229929
0.00575519
-0.22424
0.00623597
-0.218617
0.006693
-0.213105
0.00713027
-0.20774
0.00755157
-0.202546
0.00796031
-0.197536
0.00835934
-0.192718
0.00875101
-0.188094
0.00913715
-0.183659
0.00951911
-0.179409
0.00989786
-0.175337
0.0102741
-0.171436
0.0106483
-0.1677
0.0110211
-0.164121
0.0113935
-0.160695
0.0117671
-0.157416
0.0121444
-0.154274
0.0125289
-0.151257
0.0129249
-0.148343
-0.1455
0.0133372
0.000151665
-0.284634
0.00051993
-0.275954
0.00102979
-0.269306
0.00162032
-0.263578
0.0022465
-0.258213
0.00287733
-0.252883
0.00349302
-0.247443
0.00408226
-0.241867
0.00463989
-0.236185
0.00516496
-0.230454
0.00565921
-0.224734
0.00612593
-0.219083
0.00656909
-0.213548
0.00699278
-0.208164
0.00740083
-0.202954
0.00779668
-0.197932
0.00818319
-0.193105
0.00856273
-0.188473
0.00893711
-0.184034
0.00930769
-0.17978
0.00967544
-0.175705
0.010041
-0.171802
0.0104049
-0.168064
0.0107677
-0.164484
0.0111303
-0.161058
0.0114941
-0.157779
0.0118619
-0.154642
0.0122373
-0.151633
0.0126251
-0.148731
-0.145906
0.0130306
0.000151026
-0.284785
0.000517653
-0.27632
0.0010239
-0.269812
0.00160829
-0.264162
0.00222591
-0.258831
0.00284616
-0.253503
0.00344975
-0.248047
0.00402577
-0.242443
0.00456946
-0.236729
0.00508019
-0.230964
0.00555995
-0.225214
0.00601223
-0.219536
0.00644112
-0.213977
0.00685078
-0.208574
0.00724513
-0.203348
0.00762758
-0.198314
0.00800104
-0.193478
0.00836787
-0.18884
0.00872988
-0.184396
0.00908845
-0.180138
0.00944454
-0.176061
0.00979881
-0.172156
0.0101518
-0.168416
0.0105039
-0.164836
0.010856
-0.16141
0.0112096
-0.158133
0.0115673
-0.155
0.0119331
-0.151998
0.0123121
-0.14911
-0.146304
0.0127105
0.000150241
-0.284935
0.000515219
-0.276685
0.00101775
-0.270315
0.00159574
-0.26474
0.00220447
-0.25944
0.00281381
-0.254112
0.00340494
-0.248638
0.0039674
-0.243006
0.0044968
-0.237258
0.00499283
-0.23146
0.00545774
-0.225679
0.00589519
-0.219973
0.0063094
-0.214392
0.00670461
-0.208969
0.00708475
-0.203728
0.00745328
-0.198683
0.0078131
-0.193838
0.00816656
-0.189193
0.0085155
-0.184744
0.00886131
-0.180484
0.00920497
-0.176405
0.00954714
-0.172498
0.00988831
-0.168758
0.010229
-0.165177
0.0105699
-0.161751
0.0109125
-0.158476
0.0112594
-0.155347
0.0116148
-0.152354
0.0119843
-0.149479
-0.146695
0.0123749
0.000149367
-0.285085
0.000512791
-0.277049
0.00101156
-0.270814
0.00158292
-0.265311
0.00218245
-0.260039
0.00278056
-0.25471
0.0033589
-0.249216
0.00390747
-0.243554
0.00442225
-0.237773
0.00490324
-0.231941
0.00535295
-0.226129
0.00577521
-0.220395
0.00617434
-0.214791
0.00655464
-0.209349
0.00692009
-0.204094
0.00727413
-0.199037
0.00761966
-0.194184
0.00795905
-0.189533
0.00829413
-0.18508
0.00862631
-0.180816
0.00895659
-0.176735
0.00928566
-0.172827
0.00961405
-0.169086
0.00994221
-0.165505
0.0102709
-0.162079
0.0106015
-0.158806
0.0109367
-0.155682
0.0112806
-0.152698
0.0116395
-0.149838
-0.147077
0.0120214
0.00014851
-0.285233
0.0005106
-0.277411
0.00100559
-0.271309
0.00157011
-0.265876
0.00216017
-0.260629
0.00274674
-0.255297
0.00331198
-0.249782
0.00384635
-0.244089
0.00434619
-0.238273
0.00481184
-0.232407
0.00524603
-0.226563
0.00565274
-0.220802
0.0060364
-0.215174
0.00640137
-0.209714
0.00675162
-0.204444
0.00709059
-0.199376
0.00742117
-0.194514
0.00774571
-0.189857
0.00806604
-0.1854
0.00838359
-0.181134
0.00869939
-0.177051
0.00901418
-0.173142
0.0093285
-0.1694
0.00964286
-0.165819
0.00995799
-0.162394
0.0102752
-0.159124
0.0105972
-0.156004
0.0109283
-0.153029
0.0112752
-0.150185
-0.147448
0.011647
0.000147841
-0.285381
0.000508944
-0.277772
0.00100018
-0.2718
0.00155766
-0.266433
0.00213796
-0.261209
0.00271269
-0.255872
0.00326455
-0.250334
0.00378443
-0.244609
0.00426906
-0.238758
0.00471908
-0.232857
0.00513745
-0.226981
0.00552831
-0.221193
0.00589616
-0.215542
0.00624539
-0.210063
0.00657997
-0.204778
0.0069033
-0.199699
0.00721824
-0.194829
0.00752711
-0.190166
0.00783174
-0.185705
0.00813354
-0.181436
0.00843358
-0.177351
0.00873265
-0.173441
0.00903136
-0.169699
0.00933025
-0.166118
0.00963008
-0.162694
0.00993222
-0.159426
0.0102392
-0.156311
0.0105556
-0.153345
0.0108886
-0.150518
-0.147808
0.0112486
0.000147655
-0.285529
0.000508268
-0.278133
0.000995771
-0.272287
0.00154599
-0.266984
0.00211623
-0.26178
0.00267883
-0.256434
0.00321701
-0.250872
0.00372212
-0.245114
0.00419128
-0.239227
0.00462543
-0.233291
0.00502775
-0.227383
0.0054025
-0.221568
0.00575426
-0.215894
0.00608741
-0.210396
0.00640589
-0.205097
0.00671306
-0.200006
0.0070117
-0.195128
0.00730408
-0.190459
0.00759198
-0.185992
0.0078768
-0.181721
0.00815963
-0.177634
0.00844129
-0.173723
0.00872247
-0.16998
0.00900379
-0.166399
0.00928609
-0.162977
0.00957081
-0.15971
0.00986055
-0.1566
0.0101599
-0.153644
0.0104767
-0.150835
-0.148154
0.0108221
0.000148431
-0.285677
0.000509226
-0.278493
0.000992928
-0.272771
0.00153556
-0.267526
0.0020954
-0.26234
0.00264553
-0.256985
0.00316975
-0.251396
0.00365985
-0.245604
0.00411333
-0.23968
0.00453142
-0.233709
0.00491751
-0.227769
0.00527598
-0.221926
0.00561145
-0.216229
0.00592827
-0.210713
0.00623032
-0.205399
0.00652089
-0.200297
0.00680265
-0.19541
0.00707776
-0.190734
0.00734793
-0.186263
0.00761449
-0.181987
0.00787849
-0.177898
0.00814078
-0.173985
0.00840207
-0.170241
0.00866311
-0.16666
0.00892486
-0.163238
0.00918891
-0.159974
0.00945802
-0.156869
0.00973692
-0.153923
0.0100337
-0.151132
-0.148481
0.0103609
0.000150957
-0.285828
0.000512685
-0.278855
0.000992262
-0.273251
0.00152683
-0.268061
0.00207586
-0.262889
0.0026132
-0.257522
0.00312317
-0.251906
0.00359804
-0.246079
0.00403567
-0.240118
0.00443758
-0.234111
0.00480735
-0.228139
0.00514947
-0.222268
0.00546855
-0.216548
0.00576892
-0.211014
0.00605437
-0.205684
0.00632805
-0.200571
0.0065925
-0.195674
0.00684973
-0.190991
0.00710128
-0.186514
0.00734837
-0.182234
0.00759192
-0.178141
0.0078327
-0.174226
0.00807141
-0.17048
0.00830878
-0.166898
0.00854591
-0.163475
0.00878457
-0.160213
0.00902779
-0.157113
0.00928044
-0.154176
0.00955095
-0.151402
-0.148786
0.00985571
0.000156302
-0.285984
0.000519516
-0.279218
0.000994273
-0.273725
0.00152021
-0.268587
0.00205803
-0.263426
0.00258222
-0.258046
0.00307768
-0.252401
0.0035371
-0.246538
0.00395875
-0.24054
0.00434443
-0.234497
0.0046979
-0.228493
0.00502369
-0.222594
0.00532645
-0.216851
0.00561043
-0.211298
0.00587929
-0.205953
0.00613602
-0.200827
0.00638297
-0.195921
0.00662195
-0.19123
0.00685427
-0.186746
0.00708092
-0.182461
0.00730262
-0.178363
0.00751994
-0.174443
0.00773337
-0.170694
0.00794351
-0.167108
0.00815135
-0.163683
0.00835871
-0.16042
0.00856887
-0.157323
0.00878726
-0.154394
0.00902368
-0.151639
-0.149062
0.00929974
0.000165613
-0.28615
0.000530489
-0.279583
0.000999629
-0.274195
0.00151633
-0.269104
0.00204243
-0.263952
0.00255304
-0.258557
0.00303362
-0.252882
0.00347738
-0.246982
0.00388296
-0.240945
0.00425244
-0.234866
0.00458971
-0.22883
0.00489938
-0.222904
0.00518606
-0.217138
0.00545392
-0.211565
0.00570646
-0.206206
0.00594648
-0.201067
0.00617609
-0.196151
0.00639681
-0.191451
0.00660965
-0.186959
0.00681527
-0.182667
0.00701405
-0.178562
0.0072062
-0.174636
0.0073919
-0.170879
0.00757145
-0.167287
0.00774553
-0.163857
0.0079158
-0.160591
0.00808567
-0.157493
0.00826128
-0.15457
0.0084544
-0.151832
-0.149291
0.00868346
0.000180637
-0.286331
0.000547956
-0.279951
0.00101047
-0.274657
0.00151653
-0.26961
0.00202977
-0.264466
0.00252597
-0.259053
0.00299117
-0.253347
0.00341903
-0.24741
0.00380852
-0.241335
0.00416191
-0.23522
0.00448324
-0.229151
0.00477714
-0.223198
0.0050482
-0.217409
0.00530047
-0.211818
0.00553729
-0.206443
0.00576124
-0.201291
0.00597415
-0.196363
0.00617719
-0.191654
0.00637094
-0.187153
0.00655554
-0.182851
0.00673076
-0.178737
0.00689617
-0.174801
0.00705124
-0.171034
0.00719563
-0.167432
0.00732958
-0.163991
0.00745476
-0.160716
0.00757494
-0.157613
0.0076956
-0.154691
0.00782515
-0.151961
-0.14943
0.00796384
0.000208669
-0.286539
0.000579306
-0.280321
0.00103056
-0.275108
0.00152199
-0.270101
0.00202008
-0.264964
0.00250079
-0.259534
0.00295014
-0.253796
0.00336198
-0.247822
0.00373546
-0.241708
0.00407303
-0.235557
0.0043788
-0.229457
0.00465747
-0.223476
0.00491356
-0.217665
0.00515104
-0.212055
0.00537311
-0.206665
0.00558212
-0.2015
0.00577965
-0.196561
0.00596647
-0.191841
0.00614269
-0.187329
0.00630776
-0.183016
0.00646051
-0.17889
0.00659917
-0.17494
0.00672147
-0.171157
0.00682485
-0.167535
0.00690713
-0.164074
0.00696779
-0.160777
0.0070091
-0.157654
0.00703599
-0.154718
0.00705758
-0.151983
-0.149453
0.00708136
0.000273634
-0.286813
0.000631071
-0.280679
0.00105885
-0.275536
0.00153075
-0.270573
0.00201195
-0.265445
0.00247666
-0.259998
0.00291012
-0.25423
0.00330609
-0.248218
0.00366384
-0.242066
0.00398598
-0.23588
0.00427674
-0.229748
0.00454083
-0.22374
0.00478279
-0.217907
0.00500651
-0.212279
0.00521508
-0.206873
0.00541072
-0.201696
0.00559481
-0.196745
0.00576789
-0.192014
0.00592972
-0.187491
0.00607922
-0.183166
0.0062144
-0.179025
0.00633212
-0.175057
0.00642772
-0.171252
0.00649465
-0.167602
0.00652394
-0.164103
0.0065038
-0.160756
0.00641985
-0.15757
0.00626097
-0.154559
0.00605046
-0.151772
-0.149464
0.00606097
0.290341
0.000188937
-0.29053
0.290189
0.000151329
0.290054
0.000135588
0.289926
0.000127495
0.289804
0.000122714
0.289683
0.000120223
0.289564
0.000119345
0.289444
0.00011946
0.289324
0.000120104
0.289203
0.000121004
0.289081
0.000121991
0.288958
0.000122969
0.288835
0.00012389
0.28871
0.00012472
0.288584
0.000125451
0.288458
0.000126075
0.288332
0.000126593
0.288205
0.000127006
0.288077
0.000127308
0.28795
0.000127495
0.287822
0.000127547
0.287695
0.000127434
0.287568
0.000127076
0.287441
0.000126389
0.287316
0.00012507
0.287193
0.00012296
0.287075
0.000118293
0.286964
0.000111416
0.286875
8.83101e-05
6.2493e-05
0.288501
0.000408691
-0.288721
0.288269
0.000383749
0.288034
0.000370535
0.287796
0.000365231
0.287555
0.000363403
0.287312
0.000363662
0.287065
0.00036559
0.286816
0.000368719
0.286564
0.00037257
0.286308
0.00037678
0.286049
0.000381127
0.285786
0.000385464
0.285521
0.000389685
0.285252
0.000393729
0.284979
0.00039755
0.284704
0.000401118
0.284427
0.000404421
0.284146
0.000407446
0.283863
0.000410174
0.283578
0.000412588
0.283291
0.000414645
0.283002
0.000416284
0.282712
0.000417361
0.282421
0.000417699
0.282129
0.000416819
0.281838
0.000414323
0.281548
0.000408244
0.28126
0.00039856
0.280971
0.000377507
0.000355075
0.285289
0.000617749
-0.285498
0.285058
0.000614572
0.284813
0.000615397
0.284558
0.000620985
0.284292
0.000629098
0.284017
0.000638463
0.283734
0.000648739
0.283443
0.000659689
0.283145
0.000671019
0.282839
0.000682454
0.282526
0.000693793
0.282207
0.0007049
0.281881
0.000715677
0.281548
0.000726052
0.28121
0.000735977
0.280866
0.000745419
0.280516
0.000754354
0.28016
0.000762774
0.2798
0.000770656
0.279435
0.000777978
0.279065
0.000784699
0.27869
0.000790741
0.278311
0.00079596
0.277929
0.000800163
0.277543
0.000802912
0.277153
0.000803847
0.27676
0.000801736
0.276362
0.000796693
0.275954
0.000785713
0.000772489
0.280655
0.000790843
-0.280828
0.280461
0.000808832
0.280249
0.000827478
0.280022
0.00084806
0.279781
0.000869946
0.279527
0.000892364
0.279261
0.000914992
0.278983
0.000937679
0.278694
0.000960242
0.278394
0.000982487
0.278083
0.00100425
0.277763
0.00102543
0.277432
0.00104593
0.277093
0.00106569
0.276744
0.00108469
0.276387
0.00110288
0.276021
0.00112027
0.275647
0.00113684
0.275265
0.0011526
0.274875
0.00116753
0.274478
0.0011816
0.274074
0.00119478
0.273663
0.00120694
0.273245
0.00121797
0.272821
0.00122756
0.272389
0.00123551
0.27195
0.00124118
0.271502
0.00124464
0.271043
0.00124462
0.00124232
0.274908
0.000912033
-0.27503
0.274767
0.000950273
0.274607
0.000987758
0.274429
0.00102542
0.274236
0.0010633
0.274027
0.00110107
0.273804
0.00113848
0.273566
0.0011754
0.273315
0.00121169
0.27305
0.00124722
0.272772
0.00128186
0.272482
0.00131551
0.27218
0.00134811
0.271866
0.00137961
0.271541
0.00140998
0.271204
0.00143922
0.270857
0.00146732
0.2705
0.0014943
0.270132
0.00152017
0.269755
0.00154495
0.269368
0.00156865
0.268971
0.00159125
0.268566
0.00161274
0.268151
0.00163305
0.267726
0.00165204
0.267292
0.00166962
0.266848
0.00168552
0.266392
0.00169978
0.265925
0.00171189
0.00172253
0.26837
0.000977827
-0.268436
0.268285
0.00103571
0.268181
0.0010922
0.268058
0.00114786
0.267919
0.00120289
0.267762
0.00125722
0.26759
0.00131068
0.267402
0.00136317
0.2672
0.00141458
0.266982
0.0014648
0.26675
0.00151375
0.266504
0.00156133
0.266245
0.0016075
0.265972
0.00165222
0.265687
0.00169547
0.265389
0.00173725
0.265078
0.00177757
0.264756
0.00181648
0.264422
0.001854
0.264077
0.0018902
0.263721
0.00192511
0.263353
0.00195879
0.262975
0.00199128
0.262585
0.0020226
0.262184
0.00205274
0.261772
0.00208174
0.261348
0.00210951
0.260912
0.00213619
0.260462
0.00216163
0.00218643
0.261361
0.000993442
-0.261377
0.261326
0.0010704
0.261273
0.00114561
0.261201
0.00121937
0.261113
0.00129188
0.261007
0.00136318
0.260884
0.00143316
0.260745
0.00150175
0.260591
0.00156885
0.260422
0.00163439
0.260237
0.00169829
0.260038
0.00176049
0.259825
0.00182093
0.259597
0.00187959
0.259356
0.00193646
0.259102
0.00199155
0.258835
0.0020449
0.258554
0.00209655
0.258262
0.00214657
0.257957
0.00219505
0.25764
0.00224208
0.257311
0.00228777
0.25697
0.00233222
0.256617
0.00237556
0.256252
0.00241788
0.255874
0.00245931
0.255484
0.00249993
0.25508
0.00253997
0.254662
0.00257946
0.00261894
0.254157
0.000968338
-0.254132
0.254163
0.00106366
0.254152
0.001157
0.254123
0.00124848
0.254076
0.00133825
0.254013
0.00142638
0.253934
0.00151281
0.253838
0.00159747
0.253726
0.0016803
0.2536
0.00176121
0.253458
0.00184016
0.253301
0.00191707
0.25313
0.00199192
0.252945
0.00206468
0.252746
0.00213536
0.252534
0.00220396
0.252308
0.00227055
0.25207
0.00233518
0.251818
0.00239795
0.251554
0.002459
0.251278
0.00251845
0.250989
0.00257647
0.250688
0.00263324
0.250375
0.00268896
0.250049
0.00274384
0.24971
0.0027981
0.249358
0.00285195
0.248992
0.00290567
0.248612
0.00295943
0.0030137
0.246968
0.000913069
-0.246913
0.247006
0.00102595
0.247026
0.00113665
0.24703
0.00124519
0.247016
0.00135169
0.246986
0.00145618
0.24694
0.00155865
0.246879
0.00165902
0.246802
0.00175724
0.24671
0.00185323
0.246603
0.00194694
0.246482
0.00203832
0.246347
0.00212734
0.246197
0.00221397
0.246034
0.00229823
0.245858
0.00238014
0.245669
0.00245976
0.245467
0.00253719
0.245252
0.00261255
0.245025
0.00268599
0.244786
0.00275769
0.244535
0.00282789
0.244271
0.00289684
0.243995
0.00296482
0.243707
0.00303214
0.243406
0.00309911
0.243092
0.00316606
0.242764
0.00323334
0.242422
0.00330121
0.00337011
0.239943
0.000837497
-0.239867
0.240002
0.000967095
0.240044
0.00109433
0.24007
0.00121919
0.24008
0.00134172
0.240074
0.00146195
0.240053
0.00157986
0.240016
0.00169539
0.239965
0.00180846
0.239899
0.00191902
0.239819
0.00202701
0.239725
0.00213238
0.239618
0.00223509
0.239496
0.00233513
0.239362
0.00243251
0.239215
0.00252727
0.239055
0.00261948
0.238883
0.00270924
0.238699
0.0027967
0.238503
0.00288205
0.238295
0.00296553
0.238076
0.00304743
0.237844
0.00312806
0.237601
0.0032078
0.237347
0.00328706
0.237079
0.00336626
0.2368
0.00344581
0.236507
0.00352619
0.2362
0.00360773
0.00369085
0.233172
0.000749941
-0.233085
0.233244
0.000895447
0.2333
0.00103843
0.23334
0.00117883
0.233365
0.00131668
0.233375
0.00145197
0.23337
0.00158468
0.233351
0.00171473
0.233317
0.00184205
0.23327
0.00196658
0.233209
0.00208826
0.233134
0.00220702
0.233046
0.00232285
0.232946
0.00243572
0.232833
0.00254563
0.232707
0.00265264
0.23257
0.00275682
0.232421
0.00285828
0.23226
0.0029572
0.232089
0.00305381
0.231906
0.00314837
0.231712
0.00324125
0.231507
0.00333283
0.231291
0.00342359
0.231064
0.00351403
0.230826
0.00360469
0.230576
0.00369613
0.230313
0.0037889
0.230037
0.00388345
0.00398022
0.226707
0.000656926
-0.226614
0.226785
0.000817607
0.226848
0.000975615
0.226896
0.00113086
0.226929
0.00128333
0.226948
0.00143303
0.226953
0.00157989
0.226944
0.00172383
0.226921
0.00186478
0.226885
0.00200267
0.226836
0.00213743
0.226774
0.00226899
0.226699
0.00239732
0.226613
0.00252239
0.226514
0.00264421
0.226404
0.00276282
0.226282
0.00287829
0.22615
0.00299077
0.226007
0.00310042
0.225853
0.00320751
0.225689
0.00331236
0.225515
0.00341537
0.225331
0.00351703
0.225136
0.00361789
0.224932
0.00371858
0.224717
0.00381979
0.224491
0.00392219
0.224253
0.00402649
0.224003
0.00413325
0.00424298
0.220566
0.000563233
-0.220473
0.220646
0.000738451
0.22071
0.000910851
0.220761
0.00108031
0.220797
0.0012468
0.22082
0.0014103
0.220829
0.00157072
0.220825
0.00172798
0.220808
0.00188199
0.220778
0.00203267
0.220736
0.00217993
0.220681
0.00232372
0.220614
0.00246396
0.220536
0.00260064
0.220446
0.00273375
0.220346
0.00286331
0.220235
0.00298942
0.220113
0.00311219
0.219982
0.00323183
0.219841
0.0033486
0.21969
0.00346288
0.219531
0.00357513
0.219362
0.00368589
0.219184
0.00379585
0.218997
0.00390575
0.2188
0.00401644
0.218593
0.00412878
0.218376
0.00424362
0.218148
0.00436171
0.00448366
0.21475
0.000472134
-0.214659
0.214827
0.000661358
0.21489
0.000847609
0.21494
0.00103075
0.214976
0.00121074
0.214998
0.00138751
0.215008
0.00156099
0.215005
0.00173106
0.214989
0.00189762
0.214962
0.00206059
0.214922
0.00221985
0.21487
0.00237534
0.214807
0.00252697
0.214733
0.00267471
0.214648
0.00281854
0.214553
0.00295847
0.214448
0.00309457
0.214333
0.00322697
0.214209
0.00335587
0.214076
0.00348155
0.213934
0.00360441
0.213785
0.00372496
0.213627
0.00384383
0.213461
0.00396182
0.213287
0.00407981
0.213104
0.00419884
0.212913
0.00431997
0.212712
0.00444428
0.212501
0.00457276
0.00470614
0.209243
0.000385695
-0.209157
0.209316
0.000588481
0.209376
0.000788142
0.209422
0.000984526
0.209455
0.00117757
0.209475
0.00136719
0.209483
0.00155329
0.209478
0.00173574
0.209462
0.00191444
0.209433
0.00208925
0.209393
0.00226009
0.209341
0.00242683
0.209279
0.00258941
0.209206
0.00274774
0.209122
0.00290179
0.209029
0.00305156
0.208927
0.0031971
0.208815
0.00333851
0.208695
0.003476
0.208567
0.00360984
0.208431
0.00374045
0.208287
0.00386838
0.208137
0.00399436
0.207979
0.00411926
0.207815
0.00424417
0.207644
0.0043703
0.207465
0.004499
0.207277
0.00463163
0.207081
0.00476947
0.00491348
0.204027
0.000305053
-0.203947
0.204095
0.000521043
0.204149
0.000733754
0.204191
0.000943023
0.204219
0.00114877
0.204236
0.00135088
0.20424
0.00154925
0.204232
0.00174374
0.204212
0.00193422
0.204181
0.00212054
0.204138
0.00230258
0.204085
0.00248023
0.204021
0.00265337
0.203947
0.0028219
0.203863
0.00298577
0.203769
0.00314493
0.203667
0.00329942
0.203556
0.00344931
0.203437
0.00359477
0.203311
0.00373609
0.203178
0.00387367
0.203038
0.00400811
0.202892
0.00414016
0.202741
0.00427086
0.202584
0.00440143
0.202421
0.00453335
0.202251
0.00466829
0.202075
0.00480796
0.20189
0.00495406
0.00510787
0.199079
0.000230687
-0.199004
0.19914
0.000459596
0.199189
0.000685071
0.199225
0.000906937
0.199248
0.0011251
0.19926
0.00133943
0.199259
0.00154979
0.199247
0.00175604
0.199223
0.00195802
0.199188
0.00215557
0.199142
0.00234855
0.199086
0.00253681
0.199019
0.00272021
0.198942
0.00289863
0.198856
0.00307198
0.198761
0.00324017
0.198657
0.00340321
0.198545
0.00356112
0.198426
0.00371404
0.1983
0.00386222
0.198167
0.00400605
0.198029
0.00414613
0.197886
0.00428328
0.197738
0.0044186
0.197586
0.00455354
0.19743
0.00468982
0.197269
0.00482952
0.197102
0.00497481
0.196928
0.00512793
0.00529066
0.194374
0.000162642
-0.194306
0.194429
0.000404239
0.194472
0.000642251
0.194503
0.000876491
0.194521
0.00110684
0.194527
0.00133317
0.194522
0.00155531
0.194504
0.0017731
0.194476
0.00198637
0.194437
0.00219494
0.194387
0.00239864
0.194326
0.00259729
0.194256