/*--------------------------------*- C++ -*----------------------------------*\
| =========                 |                                                 |
| \\      /  F ield         | OpenFOAM: The Open Source CFD Toolbox           |
|  \\    /   O peration     | Version:  v1912                                 |
|   \\  /    A nd           | Website:  www.openfoam.com                      |
|    \\/     M anipulation  |                                                 |
\*---------------------------------------------------------------------------*/
FoamFile
{
    version     2.0;
    format      ascii;
    class       volVectorField;
    location    "2.75";
    object      U;
}
// * * * * * * * * * * * * * * * * * * * * * * * * * * * * * * * * * * * * * //

dimensions      [0 1 -1 0 0 0 0];


internalField   nonuniform List<vector> 
19200
(
(0.00650796 -0.47821 -3.01788e-22)
(0.0046516 -0.439247 0)
(0.00242493 -0.404248 0)
(-0.000126022 -0.372909 0)
(-0.00283865 -0.344918 0)
(-0.00556208 -0.319975 0)
(-0.00819395 -0.297799 -9.51446e-23)
(-0.0106621 -0.278124 9.37159e-23)
(-0.012916 -0.260706 0)
(-0.0149223 -0.24532 0)
(-0.0166609 -0.231757 -1.74173e-22)
(-0.0181225 -0.219826 1.21693e-24)
(-0.0193053 -0.209355 1.67738e-22)
(-0.0202138 -0.200184 0)
(-0.0208572 -0.192169 1.59167e-22)
(-0.0212483 -0.185179 -1.18653e-24)
(-0.0214023 -0.179095 -1.53274e-22)
(-0.0213368 -0.17381 0)
(-0.0210703 -0.169226 0)
(-0.0206226 -0.165256 0)
(-0.020014 -0.161821 0)
(-0.0192648 -0.15885 0)
(-0.0183957 -0.156281 1.32666e-22)
(-0.0174265 -0.154056 -1.30781e-22)
(-0.0163769 -0.152127 0)
(-0.0152666 -0.150449 0)
(-0.0141152 -0.148985 -2.42321e-22)
(-0.0129288 -0.147703 2.38997e-22)
(-0.0116933 -0.146572 0)
(-0.0105088 -0.145562 0)
(0.0190602 -0.477345 -4.09269e-22)
(0.016202 -0.437763 2.17223e-22)
(0.0131184 -0.402342 0)
(0.00985067 -0.370737 0)
(0.00655134 -0.342609 0)
(0.00335877 -0.317634 0)
(0.000363062 -0.295507 -7.74467e-22)
(-0.00237488 -0.275949 3.79496e-22)
(-0.00481461 -0.258698 -3.66248e-24)
(-0.00693194 -0.243516 -2.58421e-24)
(-0.00871523 -0.230186 -7.07256e-22)
(-0.0101624 -0.218508 6.91471e-22)
(-0.0112784 -0.208302 -3.3925e-22)
(-0.012074 -0.199402 0)
(-0.0125636 -0.19166 0)
(-0.0127649 -0.184939 0)
(-0.0126977 -0.179117 0)
(-0.0123834 -0.174083 0)
(-0.0118444 -0.169737 0)
(-0.0111037 -0.165989 0)
(-0.0101846 -0.162758 -2.82763e-22)
(-0.00911055 -0.159971 0)
(-0.0079046 -0.157565 -5.35263e-22)
(-0.00658932 -0.155481 5.2766e-22)
(-0.00518653 -0.153669 -5.11284e-22)
(-0.00371844 -0.152087 5.04143e-22)
(-0.00220765 -0.150694 0)
(-0.000661354 -0.149461 4.77262e-22)
(0.000939737 -0.148356 -4.70773e-22)
(0.00248668 -0.147353 5.03477e-22)
(0.0315241 -0.476207 -8.33704e-22)
(0.0276467 -0.43605 -4.3624e-22)
(0.0237195 -0.400256 3.55144e-24)
(0.0197558 -0.368437 4.20456e-22)
(0.0158964 -0.340222 0)
(0.0122679 -0.31526 -7.98257e-22)
(0.00894783 -0.293225 3.94875e-22)
(0.00598505 -0.273819 7.68944e-22)
(0.00340913 -0.256766 -3.81957e-22)
(0.00123438 -0.241818 -7.29668e-22)
(-0.000536452 -0.228746 7.18607e-22)
(-0.00190924 -0.217343 0)
(-0.00289625 -0.207421 -6.8127e-22)
(-0.0035144 -0.19881 6.70981e-22)
(-0.00378405 -0.191355 -6.56959e-22)
(-0.00372799 -0.184916 0)
(-0.00337067 -0.179367 0)
(-0.00273767 -0.174594 0)
(-0.00185524 -0.170494 0)
(-0.000749929 -0.166974 1.15826e-21)
(0.000551669 -0.163952 -8.58652e-22)
(0.00202317 -0.161353 1.10564e-21)
(0.00363863 -0.159111 -1.08981e-21)
(0.0053728 -0.157168 -1.05555e-21)
(0.0072014 -0.155473 2.07212e-21)
(0.00910029 -0.153981 -2.02501e-21)
(0.0110431 -0.152656 9.94024e-22)
(0.0130228 -0.151464 0)
(0.0150645 -0.150373 4.74205e-22)
(0.0170348 -0.149362 0)
(0.0439321 -0.474788 -1.6826e-21)
(0.039012 -0.434123 8.95289e-22)
(0.0342408 -0.398014 -8.65821e-22)
(0.0295964 -0.366038 6.73585e-24)
(0.0252029 -0.337788 8.34343e-22)
(0.0211726 -0.312885 0)
(0.0175687 -0.290983 0)
(0.014427 -0.271766 0)
(0.0117653 -0.254945 2.27503e-21)
(0.00958725 -0.240259 -5.68772e-24)
(0.00788602 -0.227471 -7.27982e-22)
(0.00664725 -0.216365 -1.41162e-21)
(0.00585109 -0.206747 1.39025e-21)
(0.00547386 -0.198441 1.34734e-21)
(0.00548915 -0.191287 -6.70107e-22)
(0.00586879 -0.185143 0)
(0.00658346 -0.179878 0)
(0.00760318 -0.175375 0)
(0.0088977 -0.171529 0)
(0.0104368 -0.168244 0)
(0.0121905 -0.165436 1.14298e-21)
(0.0141291 -0.163027 -1.12649e-21)
(0.0162238 -0.160952 0)
(0.0184465 -0.159151 -1.06539e-21)
(0.0207702 -0.15757 2.09122e-21)
(0.0231671 -0.156166 -2.04326e-21)
(0.0256092 -0.154901 1.00288e-21)
(0.02809 -0.153743 9.70382e-22)
(0.030638 -0.152657 -2.38029e-21)
(0.0330933 -0.151628 -1.02122e-21)
(0.0562882 -0.473077 8.4411e-22)
(0.0503073 -0.43199 1.82344e-21)
(0.0446923 -0.395636 1.78087e-21)
(0.0393822 -0.363563 8.59757e-22)
(0.0344811 -0.335332 1.69436e-21)
(0.030084 -0.310537 1.28967e-23)
(0.0262379 -0.288811 1.63104e-21)
(0.0229642 -0.269821 2.37863e-21)
(0.0202679 -0.253265 7.86684e-22)
(0.0181409 -0.23887 1.51547e-21)
(0.0165665 -0.22639 1.63184e-23)
(0.0155211 -0.215603 1.44184e-21)
(0.0149769 -0.206308 1.52838e-23)
(0.0149031 -0.198323 4.11879e-21)
(0.0152671 -0.191486 -4.0223e-21)
(0.0160349 -0.18565 2.62696e-21)
(0.0171722 -0.180679 0)
(0.0186446 -0.176456 0)
(0.0204175 -0.17287 1.22373e-21)
(0.0224569 -0.169826 0)
(0.0247293 -0.167236 1.16662e-21)
(0.0272018 -0.165022 1.12786e-21)
(0.029842 -0.163115 -1.11171e-21)
(0.0326191 -0.161454 1.08628e-21)
(0.0355029 -0.159986 0)
(0.0384624 -0.158665 0)
(0.0414664 -0.157454 1.01228e-21)
(0.0445085 -0.156319 9.88624e-22)
(0.0476229 -0.155225 9.49531e-22)
(0.0506215 -0.154161 -2.07407e-21)
(0.0685894 -0.471078 -8.65924e-22)
(0.0615363 -0.429657 -1.82344e-21)
(0.0550821 -0.393135 -2.67485e-21)
(0.0491239 -0.361031 -8.66248e-22)
(0.0437435 -0.332877 -1.68684e-21)
(0.0390163 -0.30824 1.99527e-23)
(0.034971 -0.286734 -1.62474e-21)
(0.0316134 -0.268009 -1.58766e-21)
(0.0289342 -0.251751 -1.55124e-21)
(0.0269132 -0.237676 -3.03552e-21)
(0.0255228 -0.225529 3.38805e-23)
(0.0247298 -0.215083 2.92826e-21)
(0.024498 -0.206129 -1.39597e-21)
(0.0247892 -0.198482 1.41257e-21)
(0.0255641 -0.191976 4.05974e-21)
(0.0267831 -0.186458 -1.31207e-21)
(0.0284064 -0.181793 0)
(0.030395 -0.177857 1.26858e-21)
(0.0327101 -0.174541 2.46472e-21)
(0.0353137 -0.171744 -3.59766e-21)
(0.0381685 -0.169377 1.19051e-21)
(0.041238 -0.16736 3.43127e-21)
(0.0444868 -0.165622 1.10294e-21)
(0.0478805 -0.164101 -4.35604e-21)
(0.0513857 -0.162742 3.21431e-21)
(0.0549679 -0.161499 0)
(0.0585922 -0.160334 9.86178e-24)
(0.0622522 -0.159211 1.98531e-21)
(0.0659886 -0.158092 -1.02526e-23)
(0.0695834 -0.156975 2.08933e-21)
(0.0808306 -0.468793 1.75143e-21)
(0.0727008 -0.427134 -1.88467e-21)
(0.0654177 -0.390524 0)
(0.058833 -0.35846 -1.80076e-21)
(0.0530047 -0.330443 -1.73609e-21)
(0.0479862 -0.306016 -1.70318e-21)
(0.0437866 -0.284775 1.67068e-21)
(0.0403943 -0.266354 0)
(0.037785 -0.250426 -1.59944e-21)
(0.0359254 -0.2367 0)
(0.0347763 -0.224911 -3.02598e-21)
(0.0342944 -0.214825 -2.95402e-21)
(0.0344348 -0.206231 -1.43151e-21)
(0.0351514 -0.198938 -1.39747e-21)
(0.0363982 -0.192775 1.36966e-21)
(0.0381295 -0.187587 -4.02438e-21)
(0.0403002 -0.183237 0)
(0.0428663 -0.179597 -1.26858e-21)
(0.0457847 -0.176557 1.51944e-23)
(0.0490134 -0.174012 -1.2086e-21)
(0.0525111 -0.171872 0)
(0.0562378 -0.170055 1.15314e-21)
(0.0601544 -0.168488 -3.39598e-21)
(0.0642231 -0.167106 1.1822e-23)
(0.0684072 -0.165854 1.07224e-21)
(0.0726682 -0.164683 -2.05508e-23)
(0.0769671 -0.163555 -1.0426e-21)
(0.0812973 -0.162432 -5.00866e-21)
(0.085707 -0.161272 9.93751e-22)
(0.0899453 -0.16008 0)
(0.0930068 -0.466227 -1.78034e-23)
(0.0838027 -0.424429 0)
(0.0757069 -0.387816 -1.85173e-21)
(0.0685219 -0.355863 5.4595e-21)
(0.0622805 -0.328045 -2.39439e-23)
(0.0570126 -0.303883 1.72527e-21)
(0.0527057 -0.282952 3.39021e-21)
(0.0493297 -0.264873 -1.45994e-23)
(0.0468442 -0.24931 -1.99208e-23)
(0.0452021 -0.235959 1.56657e-21)
(0.0443518 -0.224553 -3.07629e-21)
(0.0442396 -0.214848 4.49913e-21)
(0.0448113 -0.20663 -2.91138e-21)
(0.0460128 -0.199704 2.86741e-21)
(0.047791 -0.193896 -2.7712e-21)
(0.0500939 -0.189049 2.6189e-23)
(0.0528712 -0.185022 2.66315e-21)
(0.0560737 -0.181687 0)
(0.0596538 -0.178928 1.25653e-21)
(0.0635654 -0.176641 -2.47318e-21)
(0.0677634 -0.174732 2.389e-21)
(0.0722039 -0.173118 -2.35563e-23)
(0.0768441 -0.171723 -2.29759e-21)
(0.0816426 -0.17048 -1.10941e-21)
(0.086559 -0.169331 0)
(0.0915507 -0.168226 1.06848e-21)
(0.0965742 -0.167126 0)
(0.101623 -0.165991 0)
(0.106752 -0.164772 0)
(0.111676 -0.163486 0)
(0.105113 -0.463384 -3.72091e-21)
(0.094844 -0.42155 3.92442e-21)
(0.0859582 -0.38502 -3.82799e-21)
(0.078204 -0.353254 -1.83354e-21)
(0.0715886 -0.3257 -7.7726e-24)
(0.0661163 -0.301855 2.36667e-23)
(0.0617518 -0.281281 -1.70615e-21)
(0.0584451 -0.263584 0)
(0.0561388 -0.248416 0)
(0.0547711 -0.235469 -4.16839e-23)
(0.0542775 -0.224466 -3.13508e-21)
(0.0545935 -0.215161 6.09744e-21)
(0.055655 -0.207334 -2.87535e-23)
(0.0573998 -0.200789 -2.91009e-21)
(0.0597675 -0.195347 2.84519e-21)
(0.0626998 -0.19085 -2.74072e-21)
(0.0661406 -0.187154 5.37259e-21)
(0.0700359 -0.184129 -2.6331e-21)
(0.0743334 -0.181658 0)
(0.0789829 -0.179633 2.88543e-23)
(0.0839351 -0.17796 2.51392e-23)
(0.0891425 -0.17655 -2.10548e-24)
(0.0945584 -0.175328 0)
(0.100138 -0.174223 0)
(0.105836 -0.173174 0)
(0.111606 -0.172131 -1.06848e-21)
(0.1174 -0.171051 0)
(0.12321 -0.16989 4.06908e-21)
(0.1291 -0.168594 -3.5288e-23)
(0.134746 -0.167192 -8.61953e-21)
(0.117143 -0.460269 5.57346e-21)
(0.105827 -0.418505 -1.95358e-21)
(0.0961809 -0.382145 -2.01928e-21)
(0.0878939 -0.350643 0)
(0.0809481 -0.323417 0)
(0.0753204 -0.299946 0)
(0.0709509 -0.279773 0)
(0.0677686 -0.262496 -6.85033e-21)
(0.0656986 -0.247756 3.35022e-21)
(0.0646632 -0.235238 3.22502e-21)
(0.0645849 -0.22466 0)
(0.0653875 -0.215771 -3.06811e-21)
(0.066997 -0.20835 -3.00009e-21)
(0.0693427 -0.202195 2.99109e-23)
(0.0723566 -0.197129 3.5653e-23)
(0.0759741 -0.192989 -2.77967e-21)
(0.0801333 -0.18963 2.73821e-21)
(0.0847752 -0.186921 -2.64154e-21)
(0.0898429 -0.184742 2.60261e-21)
(0.0952819 -0.182983 -2.50782e-21)
(0.101039 -0.181548 -2.4767e-21)
(0.107063 -0.180346 7.15848e-21)
(0.113303 -0.179298 -7.05934e-21)
(0.11971 -0.178331 4.54015e-21)
(0.126235 -0.177381 -4.47619e-21)
(0.132827 -0.176394 0)
(0.139432 -0.175325 0)
(0.146043 -0.174127 -2.07895e-21)
(0.152731 -0.172736 0)
(0.159129 -0.171197 -6.5427e-21)
(0.129094 -0.456886 -1.96699e-21)
(0.116756 -0.415299 -2.78805e-23)
(0.106386 -0.3792 1.92139e-21)
(0.0976075 -0.34804 -1.91331e-21)
(0.0903799 -0.321208 -1.90316e-21)
(0.0846497 -0.298164 3.69429e-21)
(0.080331 -0.278438 -5.15922e-23)
(0.0773311 -0.261617 -3.51079e-21)
(0.0755561 -0.247335 3.41007e-21)
(0.0749125 -0.23527 3.29109e-21)
(0.0753086 -0.225135 -6.49364e-21)
(0.0766563 -0.216679 3.16962e-21)
(0.0788716 -0.209674 -3.08866e-21)
(0.0818748 -0.203919 0)
(0.0855903 -0.199235 0)
(0.0899471 -0.195458 -5.67737e-21)
(0.0948774 -0.192441 2.81361e-21)
(0.100317 -0.190051 -2.68276e-21)
(0.106205 -0.188167 2.88022e-23)
(0.112482 -0.186678 -3.2357e-24)
(0.119091 -0.185483 4.98579e-21)
(0.125977 -0.184491 2.38735e-21)
(0.133086 -0.183618 -2.40917e-21)
(0.140363 -0.182789 0)
(0.147757 -0.181936 4.47948e-21)
(0.15521 -0.181001 -2.20783e-21)
(0.162664 -0.179937 0)
(0.170109 -0.178691 2.07894e-21)
(0.177626 -0.177188 6.10845e-21)
(0.184803 -0.175489 -2.21379e-21)
(0.140961 -0.453241 1.85004e-21)
(0.127634 -0.411937 -2.95412e-23)
(0.116584 -0.376191 -2.24164e-23)
(0.107362 -0.345452 -1.97297e-21)
(0.0999063 -0.319079 3.78859e-21)
(0.0941309 -0.296516 -7.40485e-21)
(0.0899224 -0.277281 7.25739e-21)
(0.0871654 -0.260952 3.52585e-21)
(0.0857465 -0.247156 -3.63155e-23)
(0.0855553 -0.235565 -3.56427e-23)
(0.0864858 -0.225891 -4.54557e-23)
(0.0884376 -0.217878 9.35909e-24)
(0.0913162 -0.211299 -3.13919e-21)
(0.0950327 -0.205951 3.32802e-23)
(0.099504 -0.201653 3.27014e-23)
(0.104652 -0.198241 5.75184e-21)
(0.110404 -0.195568 -2.78365e-21)
(0.11669 -0.193499 2.71215e-21)
(0.123445 -0.191911 5.29188e-21)
(0.130605 -0.190693 -2.63952e-21)
(0.13811 -0.189741 -2.50909e-21)
(0.1459 -0.18896 2.44523e-21)
(0.153917 -0.188264 0)
(0.162104 -0.187574 -4.64832e-21)
(0.170403 -0.186817 5.11665e-23)
(0.178753 -0.185933 2.2593e-21)
(0.187088 -0.184869 4.30938e-21)
(0.195398 -0.183565 -4.25025e-21)
(0.20377 -0.181934 2.05831e-21)
(0.211747 -0.180054 2.70528e-23)
(0.152745 -0.449336 9.97748e-21)
(0.138468 -0.408417 2.16779e-21)
(0.126787 -0.373128 -2.02029e-21)
(0.117176 -0.342887 4.02913e-21)
(0.109551 -0.317036 7.82695e-21)
(0.103792 -0.295006 1.76178e-23)
(0.0997571 -0.276305 0)
(0.0973065 -0.2605 0)
(0.096307 -0.247216 0)
(0.0966305 -0.236119 3.45925e-21)
(0.0981565 -0.22692 0)
(0.100772 -0.21936 0)
(0.104371 -0.213212 3.19363e-21)
(0.108856 -0.208274 -3.0659e-21)
(0.114136 -0.204363 6.00506e-21)
(0.120126 -0.201317 -5.88746e-21)
(0.126747 -0.198986 8.52938e-21)
(0.133926 -0.197237 -2.78364e-21)
(0.141591 -0.195946 2.71906e-21)
(0.149676 -0.194998 -5.22624e-21)
(0.158116 -0.194289 1.28176e-20)
(0.166849 -0.193721 -5.01628e-21)
(0.175811 -0.193203 7.27377e-21)
(0.184941 -0.192653 -2.43667e-21)
(0.194179 -0.191994 -2.31886e-21)
(0.203456 -0.191159 2.26111e-21)
(0.2127 -0.190091 6.56237e-21)
(0.221899 -0.188721 -4.29804e-21)
(0.23115 -0.186948 2.09051e-21)
(0.239941 -0.184871 -2.26899e-21)
(0.164446 -0.445171 9.24167e-23)
(0.149261 -0.404751 9.56616e-23)
(0.137002 -0.370013 4.24607e-21)
(0.12707 -0.340344 -4.06774e-21)
(0.119341 -0.31508 6.40595e-23)
(0.113664 -0.293635 -3.84287e-21)
(0.109869 -0.275507 -3.75943e-21)
(0.107791 -0.260258 7.42142e-21)
(0.107277 -0.247508 0)
(0.108179 -0.236922 -3.45926e-21)
(0.110363 -0.228208 -3.37938e-21)
(0.113701 -0.221107 3.32815e-21)
(0.118078 -0.215394 -3.19364e-21)
(0.123386 -0.210864 0)
(0.129526 -0.207339 -2.99002e-21)
(0.136406 -0.204654 8.92322e-21)
(0.143943 -0.202662 -2.86887e-21)
(0.152057 -0.201229 5.63666e-21)
(0.160673 -0.20023 -1.36753e-20)
(0.169721 -0.199551 1.06649e-20)
(0.179132 -0.199083 -1.29598e-20)
(0.18884 -0.198728 5.08487e-21)
(0.198778 -0.198391 -2.44459e-21)
(0.208883 -0.197983 -2.38256e-21)
(0.219087 -0.197423 8.44508e-23)
(0.229317 -0.196638 6.83796e-21)
(0.239494 -0.195566 -8.84214e-21)
(0.249605 -0.194127 4.34705e-21)
(0.25975 -0.192201 -2.09051e-21)
(0.269369 -0.18991 2.32454e-21)
(0.176058 -0.440751 8.45609e-24)
(0.160024 -0.400947 -8.81144e-21)
(0.147247 -0.366845 -8.51284e-21)
(0.137063 -0.337827 -2.05077e-23)
(0.1293 -0.313211 -4.04573e-21)
(0.123777 -0.2924 3.986e-21)
(0.120293 -0.274883 0)
(0.118658 -0.260219 -3.71845e-21)
(0.118697 -0.248024 0)
(0.120244 -0.237961 0)
(0.123148 -0.229739 -3.44114e-21)
(0.12727 -0.2231 6.73738e-21)
(0.132482 -0.217818 -3.2977e-21)
(0.138666 -0.213694 6.33949e-21)
(0.145716 -0.210546 -1.5489e-20)
(0.153534 -0.208215 6.07522e-21)
(0.16203 -0.206554 0)
(0.171118 -0.205429 -8.51498e-21)
(0.180722 -0.204716 5.59559e-21)
(0.190766 -0.2043 0)
(0.201179 -0.204071 -2.65126e-21)
(0.211891 -0.203927 0)
(0.222833 -0.203771 2.44525e-21)
(0.233936 -0.203508 -9.70926e-21)
(0.24513 -0.203052 2.93011e-23)
(0.256335 -0.202321 -4.57683e-21)
(0.267465 -0.201247 -4.4317e-21)
(0.278503 -0.199738 4.3972e-21)
(0.289558 -0.197654 -4.24127e-21)
(0.300011 -0.195137 4.58141e-21)
(0.187578 -0.436079 0)
(0.170765 -0.397002 0)
(0.157536 -0.36363 4.36186e-21)
(0.147176 -0.335337 -7.32201e-23)
(0.139456 -0.311428 -4.1322e-21)
(0.134163 -0.291297 4.07121e-21)
(0.131065 -0.274427 -3.91329e-21)
(0.129947 -0.260372 7.72471e-21)
(0.130609 -0.248748 -3.7645e-21)
(0.132869 -0.239218 -3.60362e-21)
(0.136559 -0.231491 4.37331e-23)
(0.141525 -0.225311 6.86142e-21)
(0.147628 -0.220456 3.27387e-21)
(0.154742 -0.216726 -3.25737e-21)
(0.162751 -0.213946 -6.27187e-21)
(0.171551 -0.211956 6.17786e-21)
(0.181045 -0.210612 3.00945e-21)
(0.191145 -0.209783 0)
(0.201769 -0.209345 0)
(0.212839 -0.209183 2.76637e-21)
(0.22428 -0.209187 7.95728e-21)
(0.23602 -0.209252 -1.03909e-20)
(0.247987 -0.209277 2.57609e-21)
(0.260109 -0.209163 1.23122e-20)
(0.27231 -0.208815 -2.43941e-21)
(0.284506 -0.208146 0)
(0.296603 -0.207077 4.54e-21)
(0.308582 -0.205502 0)
(0.320555 -0.203257 4.28821e-21)
(0.331847 -0.20051 -6.95524e-21)
(0.199 -0.431156 -4.27969e-21)
(0.181486 -0.39292 9.33293e-21)
(0.167886 -0.360368 4.54137e-21)
(0.15743 -0.332872 0)
(0.149837 -0.309728 -4.29607e-21)
(0.144855 -0.29032 0)
(0.142222 -0.274127 -4.0626e-21)
(0.141697 -0.260704 1.47648e-23)
(0.143057 -0.249663 -6.18155e-23)
(0.146099 -0.240671 -3.73377e-21)
(0.150639 -0.233437 -3.62961e-21)
(0.156511 -0.227711 -3.52812e-21)
(0.163562 -0.223271 0)
(0.171658 -0.219922 3.28916e-21)
(0.180673 -0.217492 -8.4494e-23)
(0.190498 -0.215825 -6.28429e-21)
(0.201029 -0.214781 -9.03767e-21)
(0.212173 -0.21423 2.96506e-21)
(0.223846 -0.214052 5.69603e-21)
(0.235966 -0.214131 -1.39162e-20)
(0.248456 -0.214358 2.72647e-21)
(0.261242 -0.214626 0)
(0.274249 -0.214831 0)
(0.287402 -0.214868 2.47521e-21)
(0.300623 -0.214636 -7.32073e-21)
(0.313822 -0.214038 0)
(0.326896 -0.212986 -2.28345e-21)
(0.339824 -0.211356 0)
(0.352721 -0.208956 0)
(0.364853 -0.20598 9.46254e-21)
(0.210319 -0.425986 -8.96071e-21)
(0.192193 -0.388705 -4.67105e-21)
(0.178311 -0.35706 -4.54139e-21)
(0.167849 -0.33043 0)
(0.16047 -0.308104 8.68827e-21)
(0.155886 -0.289459 -4.1953e-21)
(0.153802 -0.273972 4.11663e-21)
(0.15395 -0.261197 4.01749e-21)
(0.156082 -0.250748 3.91943e-21)
(0.159978 -0.242294 7.47971e-21)
(0.165436 -0.235549 -5.95217e-23)
(0.172275 -0.230265 4.82444e-23)
(0.180331 -0.226224 6.96857e-21)
(0.18946 -0.223236 -6.68118e-21)
(0.199528 -0.221134 6.58061e-21)
(0.210417 -0.219767 6.30775e-21)
(0.222019 -0.218998 -1.23424e-20)
(0.234238 -0.218702 1.20348e-20)
(0.246983 -0.218761 -5.78591e-21)
(0.260173 -0.219062 5.70118e-21)
(0.273727 -0.219498 3.89484e-23)
(0.28757 -0.21996 1.06933e-20)
(0.301626 -0.220341 -5.23306e-21)
(0.315817 -0.220532 7.55946e-21)
(0.330063 -0.220424 -2.50593e-21)
(0.344268 -0.219911 0)
(0.358324 -0.218892 0)
(0.372204 -0.217225 -6.69729e-21)
(0.386028 -0.214685 8.84891e-21)
(0.398998 -0.21149 2.34916e-21)
(0.221533 -0.420576 9.12236e-21)
(0.202892 -0.384356 0)
(0.188828 -0.353704 4.66873e-21)
(0.178455 -0.328005 -4.60183e-21)
(0.171385 -0.306547 9.93112e-23)
(0.167289 -0.288702 4.28676e-21)
(0.165842 -0.273945 -4.22285e-21)
(0.166745 -0.261832 0)
(0.169728 -0.25198 -3.91944e-21)
(0.174551 -0.244061 7.64157e-21)
(0.180993 -0.237793 -7.52572e-21)
(0.188862 -0.232934 3.61516e-21)
(0.19798 -0.229271 -1.41061e-20)
(0.208192 -0.22662 9.52531e-23)
(0.219356 -0.224818 1.33086e-20)
(0.231348 -0.22372 -6.50871e-21)
(0.244054 -0.223195 6.23289e-21)
(0.257372 -0.223122 -9.1636e-21)
(0.27121 -0.22339 -5.87898e-21)
(0.285483 -0.223888 5.79289e-21)
(0.300109 -0.224512 -8.31733e-21)
(0.315013 -0.225153 5.46553e-21)
(0.330118 -0.225704 0)
(0.345346 -0.22605 -2.54299e-21)
(0.360615 -0.226076 0)
(0.375824 -0.225665 0)
(0.39086 -0.224702 -9.34251e-21)
(0.40569 -0.223023 6.94071e-21)
(0.420439 -0.220367 8.86186e-21)
(0.434243 -0.216976 -1.92805e-20)
(0.23264 -0.414928 -4.65352e-21)
(0.213591 -0.379875 5.00757e-21)
(0.19945 -0.350297 4.77807e-21)
(0.189271 -0.325593 -4.7096e-21)
(0.182609 -0.305049 -4.49154e-21)
(0.179099 -0.288035 -4.38119e-21)
(0.178379 -0.274028 6.02631e-23)
(0.180122 -0.262586 8.32496e-21)
(0.184036 -0.25333 -4.07088e-21)
(0.189859 -0.245938 0)
(0.197356 -0.240134 0)
(0.206316 -0.235678 7.35078e-21)
(0.216551 -0.232367 -7.23949e-21)
(0.227896 -0.230021 0)
(0.2402 -0.228484 0)
(0.253331 -0.227618 0)
(0.267169 -0.227299 0)
(0.281609 -0.227412 0)
(0.296554 -0.227852 -5.97532e-21)
(0.311917 -0.228514 5.88782e-21)
(0.327618 -0.229296 5.63091e-21)
(0.343579 -0.230096 -5.54964e-21)
(0.359725 -0.230804 0)
(0.375979 -0.231304 0)
(0.392258 -0.231472 0)
(0.40846 -0.231182 0)
(0.424466 -0.230304 0)
(0.44024 -0.228649 0)
(0.455909 -0.225913 0)
(0.47054 -0.222362 0)
(0.243639 -0.409046 0)
(0.224297 -0.37526 0)
(0.210195 -0.346834 0)
(0.20032 -0.323184 0)
(0.194173 -0.303597 9.3992e-21)
(0.191346 -0.287442 9.12377e-21)
(0.191447 -0.2742 4.50789e-21)
(0.194119 -0.263434 1.28788e-20)
(0.199046 -0.254771 0)
(0.205945 -0.247893 0)
(0.214563 -0.242532 1.55796e-20)
(0.224677 -0.238454 -1.51001e-20)
(0.236086 -0.235463 2.20555e-20)
(0.248612 -0.233386 1.57491e-23)
(0.262097 -0.232075 6.96732e-21)
(0.276401 -0.231397 1.11431e-22)
(0.291398 -0.231238 1.31093e-20)
(0.306977 -0.23149 6.26091e-21)
(0.323039 -0.232055 5.62073e-24)
(0.339496 -0.232837 5.89448e-21)
(0.356265 -0.233741 -5.80877e-21)
(0.373271 -0.234668 0)
(0.39044 -0.235512 5.46741e-21)
(0.407698 -0.236158 5.3037e-21)
(0.424965 -0.236475 5.14546e-21)
(0.442139 -0.236328 4.99364e-21)
(0.459096 -0.235571 9.56201e-21)
(0.475799 -0.233985 -1.62488e-22)
(0.492377 -0.23122 -1.81903e-20)
(0.50783 -0.227561 -1.89281e-22)
(0.254526 -0.402931 1.48839e-20)
(0.235019 -0.370512 -5.25709e-21)
(0.221079 -0.343312 5.20405e-21)
(0.211624 -0.320769 -4.97544e-21)
(0.206102 -0.302176 -2.37334e-20)
(0.204064 -0.286903 4.85479e-21)
(0.205082 -0.274437 -1.32998e-20)
(0.208772 -0.264348 4.564e-21)
(0.214794 -0.256268 -1.52305e-22)
(0.222844 -0.249889 -8.24184e-21)
(0.232653 -0.244947 -7.71717e-21)
(0.243982 -0.241218 7.75904e-21)
(0.256619 -0.238511 -7.39953e-21)
(0.270375 -0.236662 7.33364e-21)
(0.285081 -0.23553 -1.40536e-20)
(0.30059 -0.234991 1.25787e-22)
(0.316769 -0.234938 -1.3127e-20)
(0.333504 -0.235273 6.36282e-21)
(0.350689 -0.235907 9.32608e-24)
(0.368236 -0.236754 -9.6048e-23)
(0.386062 -0.237729 -1.76209e-20)
(0.404092 -0.23874 5.72662e-21)
(0.422256 -0.239689 -1.1018e-20)
(0.440485 -0.240463 7.6831e-23)
(0.458704 -0.24093 -1.54226e-20)
(0.476814 -0.240947 5.13991e-21)
(0.494693 -0.240351 -9.67152e-21)
(0.512302 -0.238892 9.53881e-21)
(0.529775 -0.236165 4.59415e-21)
(0.54604 -0.23247 0)
(0.265302 -0.396588 2.50167e-22)
(0.245765 -0.365628 1.07868e-20)
(0.232117 -0.339723 -1.02111e-20)
(0.223206 -0.318337 -2.34294e-22)
(0.218423 -0.300769 1.9456e-20)
(0.21728 -0.286397 2.1226e-22)
(0.219315 -0.274714 -9.2549e-21)
(0.224114 -0.265297 -8.78308e-21)
(0.231313 -0.257789 8.52089e-21)
(0.24059 -0.251888 -8.44044e-21)
(0.251658 -0.247339 -8.01891e-21)
(0.264264 -0.243925 0)
(0.278182 -0.241463 7.56182e-21)
(0.293213 -0.239796 -2.22297e-20)
(0.309179 -0.238792 0)
(0.325924 -0.238336 -6.88629e-21)
(0.343308 -0.238329 0)
(0.361211 -0.238683 -1.17236e-22)
(0.379524 -0.239319 3.6272e-24)
(0.398154 -0.240164 -6.19316e-21)
(0.417019 -0.241144 7.04444e-25)
(0.436045 -0.242181 1.15426e-20)
(0.455167 -0.243186 -9.01978e-23)
(0.474322 -0.244056 5.36588e-21)
(0.493441 -0.244662 -1.58833e-20)
(0.512438 -0.244857 0)
(0.531193 -0.244466 0)
(0.549674 -0.243203 -4.8027e-21)
(0.568018 -0.240599 -4.59417e-21)
(0.585087 -0.236963 -1.01503e-20)
(0.275963 -0.390017 -1.02488e-20)
(0.256543 -0.360606 -1.61996e-20)
(0.243326 -0.33606 -5.37245e-21)
(0.235087 -0.315873 1.01451e-20)
(0.231162 -0.299358 -9.8396e-21)
(0.231023 -0.285899 -9.54288e-21)
(0.234174 -0.275 9.25496e-21)
(0.240172 -0.266248 9.17259e-21)
(0.248632 -0.259296 0)
(0.25921 -0.25385 8.44049e-21)
(0.271604 -0.249663 0)
(0.285545 -0.246528 0)
(0.300797 -0.244269 0)
(0.317148 -0.242738 7.46274e-21)
(0.334411 -0.241809 0)
(0.352422 -0.241376 0)
(0.371033 -0.241348 6.81007e-21)
(0.390117 -0.241649 6.60172e-21)
(0.40956 -0.242212 0)
(0.429266 -0.242974 0)
(0.449149 -0.243877 6.10744e-21)
(0.469139 -0.244859 -5.91457e-21)
(0.489172 -0.24585 5.72627e-21)
(0.509195 -0.246759 0)
(0.52915 -0.247473 5.28823e-21)
(0.548965 -0.247847 0)
(0.568531 -0.247699 0)
(0.587832 -0.246709 9.65308e-21)
(0.607017 -0.244335 0)
(0.624878 -0.24088 0)
(0.286509 -0.383222 0)
(0.267361 -0.355442 0)
(0.254721 -0.332311 1.07093e-20)
(0.247287 -0.31336 0)
(0.244342 -0.297919 -5.05087e-21)
(0.245318 -0.285381 4.9763e-21)
(0.249684 -0.275264 -9.49078e-21)
(0.256973 -0.267166 1.87491e-20)
(0.266774 -0.26075 2.41606e-23)
(0.278726 -0.255733 -8.80269e-21)
(0.29251 -0.251877 1.69048e-20)
(0.307844 -0.248983 1.80284e-23)
(0.324479 -0.246885 8.0099e-21)
(0.342192 -0.24544 0)
(0.360788 -0.244531 1.49097e-20)
(0.380093 -0.244059 -1.44371e-20)
(0.399953 -0.243943 1.41145e-20)
(0.420231 -0.244115 -1.34375e-20)
(0.440809 -0.244518 1.32497e-20)
(0.461584 -0.245104 6.41851e-21)
(0.482468 -0.245831 1.07216e-22)
(0.503388 -0.246656 5.9146e-21)
(0.524284 -0.247531 -5.72629e-21)
(0.545109 -0.248392 5.62878e-21)
(0.565821 -0.249147 5.44094e-21)
(0.586364 -0.24967 0)
(0.606655 -0.249784 -4.9125e-21)
(0.626702 -0.249144 2.73494e-22)
(0.646681 -0.247125 2.35529e-20)
(0.665321 -0.244005 -5.04088e-21)
(0.296938 -0.376204 5.64985e-21)
(0.278229 -0.350132 -1.14821e-20)
(0.266318 -0.328465 9.70726e-23)
(0.259826 -0.310781 1.09735e-20)
(0.257984 -0.296427 1.04224e-20)
(0.260185 -0.284813 5.12009e-21)
(0.265866 -0.275471 9.8911e-21)
(0.274534 -0.268011 9.60637e-21)
(0.285755 -0.262109 -2.74494e-20)
(0.299151 -0.257493 1.77721e-20)
(0.314387 -0.253935 -1.7239e-20)
(0.331167 -0.251245 1.7071e-22)
(0.34923 -0.249264 -8.00995e-21)
(0.368346 -0.247858 -7.91758e-21)
(0.388308 -0.246916 -7.52149e-21)
(0.408935 -0.246347 1.4728e-20)
(0.430064 -0.246075 -2.14481e-20)
(0.451552 -0.24604 0)
(0.473274 -0.246195 -6.62735e-21)
(0.495118 -0.246505 -6.41855e-21)
(0.516992 -0.24694 -1.24276e-20)
(0.538817 -0.247481 6.12321e-21)
(0.560534 -0.248105 1.16237e-20)
(0.582098 -0.24878 -1.70874e-20)
(0.603481 -0.249455 -5.44097e-21)
(0.624647 -0.25004 -1.04733e-20)
(0.645547 -0.250392 5.24909e-21)
(0.666233 -0.250156 -1.45967e-20)
(0.68694 -0.248627 4.86627e-21)
(0.706341 -0.24603 -5.03489e-21)
(0.307251 -0.368963 2.10194e-22)
(0.289158 -0.344669 5.65926e-21)
(0.278133 -0.324507 1.15001e-20)
(0.272721 -0.308111 -5.42495e-21)
(0.272105 -0.294853 -1.06641e-20)
(0.275641 -0.284161 -1.01229e-20)
(0.282735 -0.275581 -4.84777e-21)
(0.292867 -0.268741 -9.58125e-21)
(0.305585 -0.263329 9.48198e-21)
(0.320491 -0.259085 0)
(0.337235 -0.255791 8.70902e-21)
(0.355509 -0.253268 -8.43665e-21)
(0.375043 -0.251364 -8.33981e-21)
(0.395595 -0.249952 7.91763e-21)
(0.416953 -0.248929 -7.82291e-21)
(0.438926 -0.248207 -7.43042e-21)
(0.461346 -0.247718 7.06521e-21)
(0.484062 -0.247406 -7.09843e-21)
(0.506941 -0.247229 0)
(0.529865 -0.247161 0)
(0.552734 -0.247184 0)
(0.57546 -0.247294 1.22347e-20)
(0.597977 -0.247497 -1.20595e-20)
(0.620239 -0.247796 0)
(0.642221 -0.248192 0)
(0.663909 -0.24866 0)
(0.685286 -0.249127 0)
(0.706474 -0.249286 -4.99206e-21)
(0.727815 -0.248377 -9.42957e-21)
(0.747965 -0.246538 5.1128e-21)
(0.317455 -0.361502 5.9405e-21)
(0.300162 -0.339044 -6.08853e-21)
(0.290182 -0.320417 -1.72673e-20)
(0.285989 -0.305323 1.70833e-20)
(0.28672 -0.293165 -5.40701e-21)
(0.291697 -0.283387 5.32718e-21)
(0.300299 -0.275555 2.00474e-22)
(0.311979 -0.269313 2.98064e-20)
(0.326264 -0.264363 -1.91487e-20)
(0.34274 -0.26046 9.37752e-21)
(0.361043 -0.257398 9.07855e-21)
(0.380855 -0.255005 8.62695e-21)
(0.401893 -0.253141 8.35389e-21)
(0.423911 -0.251684 -8.08972e-21)
(0.446686 -0.250538 1.59363e-20)
(0.470026 -0.24962 7.71652e-21)
(0.493754 -0.248863 7.33781e-21)
(0.517716 -0.248216 -7.11227e-21)
(0.541773 -0.247639 1.38924e-20)
(0.5658 -0.247106 -6.78412e-21)
(0.589688 -0.246604 0)
(0.613342 -0.246138 0)
(0.636681 -0.245728 0)
(0.659649 -0.245411 1.16202e-20)
(0.682213 -0.245237 -1.14565e-20)
(0.704361 -0.245268 0)
(0.7261 -0.245559 0)
(0.747626 -0.245942 4.99209e-21)
(0.769478 -0.245684 -9.43572e-21)
(0.790393 -0.244818 1.51977e-20)
(0.32758 -0.353826 7.01427e-23)
(0.311269 -0.333243 -6.23819e-21)
(0.302482 -0.316168 -1.205e-20)
(0.299639 -0.302385 -5.68532e-21)
(0.301836 -0.291324 5.65474e-21)
(0.30836 -0.28245 -1.09196e-20)
(0.31856 -0.275347 -1.03377e-20)
(0.331866 -0.269678 -1.00069e-20)
(0.347785 -0.265162 0)
(0.365886 -0.261568 -1.87731e-20)
(0.385792 -0.258704 9.44296e-21)
(0.407174 -0.256408 -8.8045e-21)
(0.429743 -0.254549 8.84497e-21)
(0.453244 -0.253015 0)
(0.477452 -0.251714 -7.9794e-21)
(0.502168 -0.250568 7.88034e-21)
(0.527215 -0.249512 7.63005e-21)
(0.552436 -0.248495 0)
(0.57769 -0.247476 0)
(0.602852 -0.246424 0)
(0.627806 -0.245321 6.70286e-21)
(0.65245 -0.244164 -6.22726e-21)
(0.676694 -0.242968 1.25311e-20)
(0.70046 -0.241774 6.06093e-21)
(0.723689 -0.240653 0)
(0.746336 -0.239732 0)
(0.768374 -0.239202 -5.07671e-21)
(0.790014 -0.239105 1.54751e-20)
(0.812064 -0.238836 0)
(0.833662 -0.238577 0)
(0.33769 -0.345906 -1.19494e-20)
(0.322507 -0.327214 6.38823e-21)
(0.315039 -0.311718 6.0108e-21)
(0.313672 -0.299259 1.08461e-22)
(0.317451 -0.289294 -5.52604e-21)
(0.325626 -0.281308 1.09197e-20)
(0.337514 -0.274911 0)
(0.35252 -0.269787 0)
(0.370132 -0.265673 0)
(0.389905 -0.262355 -9.59303e-21)
(0.411449 -0.259654 1.78925e-22)
(0.434426 -0.257424 0)
(0.458539 -0.255541 -8.68426e-21)
(0.48353 -0.253903 0)
(0.50917 -0.252425 0)
(0.535258 -0.251033 -1.57705e-20)
(0.56162 -0.249667 1.42279e-22)
(0.5881 -0.248275 0)
(0.614561 -0.246812 0)
(0.640883 -0.24524 6.93262e-21)
(0.666959 -0.243528 -1.35347e-20)
(0.692694 -0.241653 -1.94728e-20)
(0.718002 -0.2396 1.28009e-20)
(0.742809 -0.237365 -6.06097e-21)
(0.767043 -0.234972 0)
(0.790628 -0.232496 0)
(0.813463 -0.230098 -5.40403e-21)
(0.835626 -0.227842 -5.13827e-21)
(0.857901 -0.225333 9.35254e-21)
(0.879981 -0.223913 -1.00636e-20)
(0.54727 -0.00598743 8.51118e-22)
(0.544321 -0.020269 1.12779e-21)
(0.541023 -0.0343445 3.38675e-21)
(0.537376 -0.0482452 4.49462e-21)
(0.53337 -0.0619741 -2.26199e-21)
(0.529012 -0.0755265 2.24871e-21)
(0.524313 -0.0888958 4.62116e-23)
(0.519286 -0.102075 -4.47501e-21)
(0.513943 -0.115058 8.76048e-21)
(0.508297 -0.127838 -1.31471e-20)
(0.502361 -0.140412 8.60532e-21)
(0.496145 -0.152774 -1.28257e-20)
(0.489663 -0.164922 -1.26312e-20)
(0.482924 -0.176851 1.1116e-22)
(0.475941 -0.18856 1.70011e-22)
(0.468723 -0.200046 0)
(0.461281 -0.211309 7.94555e-21)
(0.453623 -0.222347 1.572e-20)
(0.44576 -0.23316 -1.55224e-20)
(0.4377 -0.243747 7.48887e-21)
(0.42945 -0.254108 0)
(0.421019 -0.264244 -2.16904e-20)
(0.412413 -0.274154 2.88654e-22)
(0.40364 -0.283841 1.41891e-20)
(0.394705 -0.293303 0)
(0.385615 -0.302543 -6.66928e-21)
(0.376373 -0.311563 3.78904e-22)
(0.366987 -0.320371 -6.05842e-21)
(0.357464 -0.328996 6.43475e-21)
(0.34778 -0.337503 1.22104e-20)