/*--------------------------------*- C++ -*----------------------------------*\
  =========                 |
  \\      /  F ield         | OpenFOAM: The Open Source CFD Toolbox
   \\    /   O peration     | Website:  https://openfoam.org
    \\  /    A nd           | Version:  6.0
     \\/     M anipulation  |
\*---------------------------------------------------------------------------*/
FoamFile
{
    version     2.0;
    format      ascii;
    class       volScalarField;
    location    "24.75";
    object      p;
}
// * * * * * * * * * * * * * * * * * * * * * * * * * * * * * * * * * * * * * //

dimensions      [0 2 -2 0 0 0 0];

internalField   nonuniform List<scalar> 
9600
(
-0.388175
-0.380806
-0.375742
-0.371724
-0.368039
-0.364606
-0.361347
-0.358193
-0.355103
-0.352057
-0.349049
-0.346075
-0.343141
-0.340251
-0.337412
-0.334633
-0.331917
-0.329216
-0.326528
-0.324382
-0.393898
-0.38636
-0.381181
-0.377022
-0.37316
-0.369516
-0.366024
-0.362619
-0.359269
-0.35596
-0.352687
-0.349456
-0.346271
-0.343142
-0.340077
-0.33709
-0.334183
-0.331297
-0.328415
-0.326233
-0.400683
-0.392858
-0.387471
-0.383103
-0.379001
-0.375092
-0.371315
-0.367612
-0.363957
-0.36034
-0.356764
-0.353235
-0.349763
-0.34636
-0.343038
-0.339814
-0.336693
-0.333596
-0.33049
-0.328297
-0.408437
-0.400295
-0.394645
-0.390006
-0.385603
-0.381372
-0.377256
-0.373205
-0.369196
-0.365226
-0.361302
-0.357434
-0.353636
-0.349922
-0.346308
-0.342816
-0.339455
-0.336119
-0.332759
-0.330579
-0.417222
-0.408704
-0.402728
-0.397757
-0.392994
-0.388382
-0.383873
-0.379421
-0.37501
-0.37064
-0.366323
-0.362072
-0.357905
-0.353841
-0.349897
-0.346104
-0.342473
-0.338868
-0.335219
-0.333075
-0.427088
-0.418122
-0.411754
-0.406387
-0.401202
-0.396151
-0.391193
-0.386287
-0.381423
-0.376604
-0.371846
-0.367168
-0.362589
-0.358131
-0.353817
-0.349685
-0.345749
-0.341841
-0.337865
-0.33578
-0.438076
-0.428582
-0.421754
-0.415926
-0.410256
-0.404706
-0.399241
-0.393828
-0.388458
-0.383141
-0.377895
-0.372741
-0.367703
-0.362807
-0.358079
-0.353565
-0.349286
-0.345037
-0.340691
-0.338685
-0.450224
-0.440118
-0.432757
-0.426402
-0.420182
-0.414071
-0.408042
-0.402067
-0.39614
-0.390275
-0.384492
-0.378814
-0.37327
-0.367886
-0.362696
-0.357756
-0.35309
-0.348454
-0.343689
-0.34178
-0.463569
-0.452763
-0.444793
-0.437842
-0.431006
-0.424272
-0.417622
-0.41103
-0.404495
-0.398033
-0.391663
-0.385414
-0.379314
-0.373393
-0.367689
-0.36227
-0.357168
-0.352092
-0.346851
-0.345052
-0.478146
-0.466544
-0.457889
-0.450271
-0.442752
-0.435333
-0.428004
-0.420743
-0.41355
-0.406442
-0.39944
-0.392571
-0.385866
-0.379355
-0.373084
-0.367129
-0.361533
-0.355955
-0.350171
-0.348482
-0.493986
-0.481491
-0.472068
-0.463711
-0.455443
-0.447278
-0.439215
-0.431233
-0.423336
-0.415537
-0.407857
-0.400323
-0.392964
-0.385812
-0.378914
-0.37236
-0.366203
-0.360049
-0.353638
-0.35205
-0.511117
-0.497624
-0.487351
-0.478183
-0.469098
-0.460127
-0.451277
-0.442528
-0.433882
-0.425352
-0.416955
-0.408713
-0.400654
-0.392808
-0.385222
-0.378
-0.371204
-0.364384
-0.357241
-0.355719
-0.529562
-0.514962
-0.503753
-0.4937
-0.483735
-0.473902
-0.464216
-0.454656
-0.445223
-0.435925
-0.426776
-0.417791
-0.40899
-0.400399
-0.392065
-0.384097
-0.376569
-0.36897
-0.36096
-0.359435
-0.549333
-0.533513
-0.521281
-0.510274
-0.499365
-0.488617
-0.47805
-0.467643
-0.457391
-0.447298
-0.43737
-0.427612
-0.418035
-0.408655
-0.399509
-0.390711
-0.382342
-0.373822
-0.364765
-0.363114
-0.570432
-0.553275
-0.539934
-0.527905
-0.515995
-0.504285
-0.492798
-0.481512
-0.470418
-0.459512
-0.448788
-0.438241
-0.427865
-0.417658
-0.407643
-0.397927
-0.388587
-0.378958
-0.368599
-0.366601
-0.592849
-0.574235
-0.559701
-0.546585
-0.533622
-0.520907
-0.508471
-0.496284
-0.484334
-0.472607
-0.461085
-0.449747
-0.438568
-0.427518
-0.416591
-0.40587
-0.395409
-0.384431
-0.372396
-0.369675
-0.616557
-0.596362
-0.580555
-0.566295
-0.552234
-0.538481
-0.525071
-0.511971
-0.499162
-0.486621
-0.474319
-0.462214
-0.450258
-0.438387
-0.426548
-0.414778
-0.403079
-0.390505
-0.376305
-0.372209
-0.64154
-0.619613
-0.602453
-0.587
-0.571803
-0.556987
-0.542589
-0.528574
-0.514915
-0.501584
-0.48854
-0.475724
-0.463061
-0.450444
-0.437757
-0.424966
-0.411982
-0.39757
-0.380383
-0.373495
-0.667779
-0.643921
-0.625325
-0.608644
-0.592289
-0.576394
-0.561003
-0.546079
-0.531592
-0.517513
-0.503792
-0.490363
-0.477122
-0.463913
-0.450528
-0.436784
-0.42234
-0.405223
-0.382529
-0.36897
-0.694898
-0.669099
-0.649075
-0.631157
-0.613633
-0.596652
-0.580268
-0.564446
-0.549161
-0.53439
-0.520095
-0.506222
-0.492683
-0.479329
-0.465931
-0.452188
-0.437371
-0.418494
-0.390586
-0.367659
-1.16873
-1.1633
-1.15413
-1.14174
-1.12637
-1.10829
-1.08778
-1.06512
-1.0406
-1.0145
-0.987109
-0.958682
-0.929479
-0.89974
-0.86969
-0.83954
-0.80948
-0.779671
-0.750245
-0.721595
-1.11823
-1.11287
-1.10403
-1.09209
-1.07733
-1.06
-1.04038
-1.01876
-0.995406
-0.9706
-0.944602
-0.917669
-0.890043
-0.861954
-0.833617
-0.805235
-0.776994
-0.749065
-0.721613
-0.694868
-1.0761
-1.07108
-1.06275
-1.05143
-1.03737
-1.02084
-1.00212
-0.981477
-0.959188
-0.935517
-0.910722
-0.885051
-0.85874
-0.832011
-0.805074
-0.778124
-0.75134
-0.724891
-0.698935
-0.673632
-1.03618
-1.03179
-1.0242
-1.01369
-1.00051
-0.98492
-0.96719
-0.94759
-0.926388
-0.903843
-0.880211
-0.855734
-0.830646
-0.805165
-0.779495
-0.753827
-0.728336
-0.703184
-0.678519
-0.654481
-0.99565
-0.992144
-0.985511
-0.976012
-0.963887
-0.949392
-0.932787
-0.914338
-0.894306
-0.87295
-0.85052
-0.827256
-0.803388
-0.779132
-0.754692
-0.730254
-0.705993
-0.682064
-0.658613
-0.635768
-0.955077
-0.952635
-0.94713
-0.938802
-0.92788
-0.914608
-0.899241
-0.882035
-0.863248
-0.843133
-0.821936
-0.799895
-0.777238
-0.75418
-0.730923
-0.707653
-0.684544
-0.661754
-0.639425
-0.617685
-0.914835
-0.91358
-0.90932
-0.902275
-0.892662
-0.880712
-0.866671
-0.850785
-0.833304
-0.814475
-0.79454
-0.773733
-0.752279
-0.730393
-0.708274
-0.68611
-0.664078
-0.642337
-0.621032
-0.600298
-0.875138
-0.87513
-0.872179
-0.866485
-0.858249
-0.847689
-0.835037
-0.820528
-0.804404
-0.786902
-0.768257
-0.7487
-0.728449
-0.707716
-0.686701
-0.665591
-0.644564
-0.623787
-0.60341
-0.583578
-0.836215
-0.837463
-0.835838
-0.831519
-0.824689
-0.815554
-0.804329
-0.791237
-0.776505
-0.760363
-0.743037
-0.724746
-0.705704
-0.686117
-0.66618
-0.646079
-0.625995
-0.606099
-0.586551
-0.567512
-0.798288
-0.800757
-0.800433
-0.797474
-0.792049
-0.784343
-0.774556
-0.762899
-0.749583
-0.734825
-0.718839
-0.701834
-0.684014
-0.665573
-0.6467
-0.627576
-0.608379
-0.589282
-0.570461
-0.552091
-0.761541
-0.765165
-0.766086
-0.764443
-0.760387
-0.754088
-0.74573
-0.735505
-0.723612
-0.710252
-0.695625
-0.679926
-0.663345
-0.646063
-0.628253
-0.610086
-0.59173
-0.573357
-0.555151
-0.537308
-0.726121
-0.73081
-0.732896
-0.7325
-0.729757
-0.72482
-0.717858
-0.709046
-0.698567
-0.686608
-0.673353
-0.658982
-0.643664
-0.627564
-0.610834
-0.593622
-0.576077
-0.558358
-0.540649
-0.523162
-0.692134
-0.697786
-0.700941
-0.701705
-0.700199
-0.696562
-0.690944
-0.683508
-0.674422
-0.663857
-0.651981
-0.638956
-0.624933
-0.610052
-0.594437
-0.578203
-0.561463
-0.544341
-0.527007
-0.50966
-0.659654
-0.666157
-0.670276
-0.672103
-0.671745
-0.669328
-0.664989
-0.658878
-0.651149
-0.641959
-0.631462
-0.619802
-0.60711
-0.593499
-0.579059
-0.56386
-0.547954
-0.531401
-0.514321
-0.496839
-0.628717
-0.635961
-0.640934
-0.643719
-0.644411
-0.643125
-0.639989
-0.635139
-0.628718
-0.620873
-0.611746
-0.601465
-0.590144
-0.577869
-0.564692
-0.550627
-0.535643
-0.519683
-0.502764
-0.484802
-0.599338
-0.607209
-0.612925
-0.616557
-0.618194
-0.617941
-0.615917
-0.612249
-0.607074
-0.60053
-0.592749
-0.583852
-0.573938
-0.563072
-0.551272
-0.53849
-0.524589
-0.509341
-0.492583
-0.473785
-0.571509
-0.579902
-0.58625
-0.590618
-0.593089
-0.593762
-0.592748
-0.59017
-0.586158
-0.580848
-0.574368
-0.566836
-0.558346
-0.548953
-0.538651
-0.527341
-0.514768
-0.500472
-0.484026
-0.464053
-0.545203
-0.55405
-0.560957
-0.565984
-0.56921
-0.570728
-0.570646
-0.569084
-0.566173
-0.562044
-0.556831
-0.550654
-0.543614
-0.53577
-0.527116
-0.517528
-0.506655
-0.493751
-0.477928
-0.455857
-0.520338
-0.529616
-0.537057
-0.54272
-0.546682
-0.549034
-0.549884
-0.549353
-0.547573
-0.544683
-0.540822
-0.536124
-0.530706
-0.52465
-0.517977
-0.510603
-0.502184
-0.491778
-0.477831
-0.452318
-0.496807
-0.506139
-0.513752
-0.519701
-0.524063
-0.526929
-0.52841
-0.528631
-0.527731
-0.52586
-0.523178
-0.519842
-0.516007
-0.511813
-0.507368
-0.502746
-0.497841
-0.492057
-0.484889
-0.464635
-0.407669
-0.478355
-0.546762
-0.613078
-0.676896
-0.737834
-0.795567
-0.849804
-0.900282
-0.946772
-0.989081
-1.02705
-1.06058
-1.08957
-1.114
-1.13386
-1.14921
-1.1601
-1.16663
-1.16915
-0.392775
-0.460802
-0.526742
-0.590516
-0.651776
-0.710187
-0.765453
-0.817304
-0.865495
-0.909813
-0.950079
-0.986153
-1.01793
-1.04535
-1.06838
-1.08703
-1.10137
-1.11147
-1.11745
-1.11954
-0.370671
-0.436637
-0.500703
-0.562654
-0.622158
-0.678901
-0.732597
-0.782983
-0.829821
-0.872904
-0.912059
-0.947149
-0.978072
-1.00477
-1.02721
-1.04542
-1.05944
-1.06936
-1.07529
-1.07742
-0.342611
-0.406695
-0.469056
-0.529423
-0.587472
-0.642894
-0.695406
-0.744748
-0.790683
-0.833005
-0.871539
-0.906147
-0.936725
-0.963207
-0.985563
-1.0038
-1.01797
-1.02815
-1.03444
-1.03701
-0.310753
-0.372892
-0.433487
-0.492247
-0.548851
-0.602995
-0.654399
-0.702802
-0.747971
-0.789695
-0.827799
-0.862137
-0.892602
-0.919119
-0.941651
-0.960197
-0.974793
-0.985508
-0.992433
-0.995716
-0.277199
-0.337324
-0.396086
-0.453183
-0.508305
-0.561156
-0.611456
-0.658948
-0.703396
-0.744591
-0.782351
-0.816528
-0.847004
-0.873698
-0.896562
-0.915584
-0.930785
-0.942223
-0.949976
-0.954172
-0.243555
-0.301605
-0.358466
-0.413839
-0.467424
-0.518932
-0.568091
-0.614644
-0.658356
-0.699016
-0.736441
-0.770478
-0.801002
-0.827923
-0.851182
-0.870756
-0.886652
-0.898913
-0.907603
-0.912832
-0.210948
-0.26688
-0.321785
-0.375376
-0.427364
-0.47747
-0.525426
-0.570979
-0.613897
-0.653969
-0.691012
-0.724866
-0.755405
-0.78253
-0.806173
-0.826299
-0.842902
-0.856009
-0.865672
-0.87198
-0.180111
-0.233905
-0.286824
-0.338593
-0.388939
-0.437589
-0.484281
-0.528767
-0.570818
-0.610227
-0.646808
-0.680405
-0.710884
-0.738143
-0.762107
-0.78273
-0.799994
-0.813914
-0.824526
-0.831902
-0.151464
-0.203125
-0.254054
-0.30399
-0.35267
-0.399828
-0.445209
-0.488568
-0.529682
-0.568347
-0.604381
-0.637627
-0.667953
-0.695252
-0.719444
-0.740476
-0.75832
-0.772977
-0.784473
-0.792862
-0.125193
-0.174748
-0.223709
-0.271827
-0.318842
-0.364496
-0.408536
-0.450724
-0.490842
-0.528691
-0.564094
-0.596898
-0.626972
-0.654208
-0.678523
-0.699857
-0.718177
-0.733474
-0.74576
-0.755076
-0.101326
-0.148816
-0.195855
-0.242191
-0.287568
-0.331726
-0.374417
-0.415407
-0.454485
-0.49146
-0.52616
-0.558438
-0.588166
-0.615238
-0.639569
-0.661097
-0.679781
-0.695605
-0.708573
-0.718713
-0.0797813
-0.125253
-0.170435
-0.215051
-0.258833
-0.301525
-0.342876
-0.38266
-0.420673
-0.45673
-0.490672
-0.522354
-0.551654
-0.57847
-0.602716
-0.62433
-0.643267
-0.659504
-0.67304
-0.683891
-0.0604108
-0.103907
-0.147315
-0.190288
-0.23254
-0.27381
-0.313848
-0.352434
-0.38937
-0.424486
-0.457627
-0.488658
-0.517464
-0.543945
-0.568018
-0.58962
-0.608706
-0.625248
-0.639238
-0.650687
-0.043024
-0.0845876
-0.126326
-0.16775
-0.208549
-0.248456
-0.287219
-0.324625
-0.360491
-0.394652
-0.426967
-0.457309
-0.485568
-0.511649
-0.535474
-0.556979
-0.576119
-0.592864
-0.607202
-0.619138
-0.027398
-0.0671251
-0.107343
-0.147324
-0.186752
-0.225358
-0.26289
-0.299143
-0.333947
-0.367152
-0.398624
-0.428247
-0.455917
-0.481546
-0.505057
-0.52639
-0.545499
-0.562353
-0.576938
-0.589254
-0.0132402
-0.051273
-0.0901725
-0.128826
-0.166966
-0.204336
-0.240683
-0.275815
-0.309577
-0.341833
-0.372459
-0.401349
-0.428404
-0.453542
-0.47669
-0.49779
-0.516798
-0.533681
-0.548424
-0.561024
6.8806e-05
-0.0360351
-0.0738297
-0.111325
-0.148315
-0.184563
-0.219822
-0.253918
-0.286713
-0.318083
-0.347918
-0.376116
-0.402588
-0.427254
-0.450047
-0.47091
-0.489798
-0.506681
-0.521541
-0.534375
0.0135761
-0.0201178
-0.0571528
-0.0938402
-0.129977
-0.165331
-0.199681
-0.232893
-0.264853
-0.295451
-0.324589
-0.352176
-0.378128
-0.402373
-0.424846
-0.445494
-0.464276
-0.481161
-0.496132
-0.509185
0.0243261
-0.0100015
-0.0472044
-0.0832243
-0.118505
-0.152869
-0.18612
-0.218198
-0.24903
-0.278531
-0.306619
-0.333217
-0.358256
-0.381673
-0.403413
-0.423431
-0.44169
-0.458165
-0.472841
-0.485717
0.545699
0.556217
0.567105
0.578266
0.589679
0.601315
0.613126
0.625047
0.637004
0.648906
0.66066
0.672176
0.683383
0.69427
0.704936
0.715672
0.726923
0.739355
0.75628
0.78329
0.534294
0.544214
0.554679
0.565366
0.576243
0.587296
0.598475
0.609707
0.620908
0.631983
0.642829
0.653348
0.663467
0.673172
0.682571
0.691976
0.701877
0.713021
0.728848
0.755168
0.520977
0.530152
0.540103
0.550221
0.560453
0.570806
0.581227
0.591636
0.60194
0.612036
0.621813
0.631169
0.640026
0.648375
0.656334
0.664245
0.672648
0.682378
0.697004
0.722499
0.505777
0.514066
0.523416
0.532871
0.542349
0.551887
0.561429
0.570884
0.580151
0.58912
0.597674
0.605704
0.613134
0.619957
0.626311
0.632568
0.639326
0.647507
0.66078
0.685206
0.48873
0.495998
0.504663
0.513362
0.521984
0.530594
0.539138
0.547512
0.555607
0.563306
0.570486
0.577035
0.582875
0.588012
0.592601
0.597051
0.602021
0.608525
0.620306
0.643463
0.469879
0.476
0.4839
0.491754
0.499419
0.506994
0.514424
0.521596
0.52839
0.534683
0.540345
0.545262
0.549361
0.552658
0.555331
0.557831
0.560878
0.565585
0.575748
0.597462
0.449272
0.454129
0.461189
0.468114
0.474725
0.481163
0.487372
0.493225
0.498596
0.503352
0.507362
0.510507
0.512722
0.514035
0.514654
0.51507
0.516074
0.518872
0.527302
0.54741
0.426959
0.430448
0.436601
0.442517
0.447984
0.453189
0.458074
0.462502
0.466335
0.469435
0.471665
0.47291
0.47311
0.472309
0.470745
0.468958
0.467808
0.468599
0.475192
0.493542
0.402996
0.405026
0.410212
0.415044
0.419284
0.423168
0.426638
0.429541
0.431731
0.433065
0.433402
0.432629
0.430694
0.427662
0.423805
0.41971
0.41631
0.415008
0.419668
0.436118
0.377438
0.377934
0.382103
0.385785
0.388724
0.391209
0.393179
0.394469
0.394923
0.394392
0.392734
0.389838
0.385665
0.380302
0.374054
0.367562
0.361833
0.358365
0.361009
0.375425
0.350342
0.349247
0.35236
0.354836
0.356409
0.357427
0.357826
0.357425
0.356061
0.35358
0.349839
0.344732
0.338233
0.330453
0.321736
0.312775
0.304654
0.298962
0.299519
0.311776
0.321765
0.319044
0.321076
0.322299
0.322455
0.321949
0.320717
0.318561
0.315311
0.310808
0.304911
0.29752
0.288623
0.27836
0.267113
0.255631
0.24507
0.237112
0.235521
0.245504
0.291765
0.287408
0.288348
0.288286
0.286986
0.284916
0.282006
0.278045
0.272854
0.266273
0.258162
0.24843
0.237082
0.224286
0.210468
0.196429
0.1834
0.173148
0.169361
0.176965
0.260403
0.254429
0.254284
0.252921
0.250141
0.246481
0.241862
0.236058
0.228886
0.220185
0.209818
0.197704
0.183869
0.16851
0.152098
0.135488
0.119979
0.10742
0.101403
0.106537
0.227745
0.220208
0.219007
0.216346
0.212081
0.206818
0.200471
0.192801
0.183621
0.172771
0.160121
0.145601
0.12926
0.111328
0.0923185
0.0731394
0.0551577
0.0402943
0.0320258
0.0346096
0.19386
0.184859
0.182662
0.178727
0.17299
0.166126
0.158044
0.148495
0.13729
0.124275
0.109327
0.0923938
0.0735454
0.0530472
0.0314553
0.00972921
-0.010702
-0.0278522
-0.0383815
-0.0384105
0.158826
0.148519
0.145431
0.140274
0.13309
0.124637
0.114819
0.103382
0.0901427
0.0749549
0.0577077
0.0383659
0.0170252
-0.00601456
-0.0301546
-0.0543879
-0.0772292
-0.0966365
-0.109424
-0.112108
0.122807
0.111464
0.107647
0.101305
0.0926788
0.0826308
0.0710644
0.0577261
0.042443
0.0250803
0.00554137
-0.0161901
-0.039992
-0.0655305
-0.092166
-0.118849
-0.144045
-0.165666
-0.180693
-0.186039
0.0852153
0.073764
0.0696717
0.0621986
0.0521022
0.0404231
0.0270709
0.0118024
-0.00553939
-0.0250758
-0.0468893
-0.0709772
-0.0971914
-0.125165
-0.154222
-0.183275
-0.210752
-0.234531
-0.251763
-0.25974
0.044356
0.034931
0.0312005
0.0228921
0.011516
-0.00175396
-0.0169181
-0.0341434
-0.0535528
-0.0752523
-0.0993099
-0.125704
-0.154264
-0.184592
-0.21598
-0.247313
-0.276995
-0.302892
-0.322395
-0.333205
0.375496
0.377654
0.386316
0.392359
0.396527
0.40003
0.40314
0.405926
0.408492
0.410973
0.413525
0.416352
0.419704
0.423881
0.429208
0.43597
0.444305
0.453993
0.464
0.471568
0.405473
0.405425
0.412119
0.417824
0.422409
0.426652
0.430681
0.434488
0.438132
0.441716
0.445378
0.449301
0.453724
0.458936
0.465259
0.472995
0.482307
0.493023
0.504426
0.514401
0.430063
0.430068
0.436249
0.442204
0.447431
0.452463
0.45739
0.462182
0.466872
0.471538
0.476297
0.481314
0.486807
0.493053
0.500369
0.509064
0.519325
0.531029
0.543776
0.55606
0.451597
0.452544
0.458967
0.465422
0.471355
0.477193
0.48301
0.488768
0.494483
0.500213
0.506056
0.512156
0.518715
0.52599
0.53429
0.543929
0.555112
0.567759
0.581756
0.596141
0.47126
0.47333
0.480224
0.487277
0.493952
0.50061
0.507314
0.514024
0.520743
0.527516
0.534422
0.541588
0.549193
0.557479
0.566738
0.577289
0.58935
0.60288
0.618036
0.634378
0.489176
0.49241
0.499873
0.507583
0.515031
0.522519
0.530105
0.53775
0.545451
0.553239
0.56118
0.56938
0.578001
0.587264
0.597446
0.608863
0.621744
0.636085
0.652307
0.670484
0.505411
0.5098
0.517864
0.526246
0.534466
0.542774
0.551222
0.559774
0.568423
0.577188
0.586122
0.595315
0.604908
0.6151
0.626154
0.638379
0.652012
0.667083
0.684271
0.704159
0.519984
0.525492
0.534152
0.543188
0.552154
0.561252
0.570525
0.579943
0.589492
0.599184
0.609057
0.619186
0.629692
0.640752
0.652612
0.665572
0.679877
0.695588
0.713635
0.735104
0.53288
0.53945
0.548683
0.558335
0.568003
0.577843
0.587891
0.598117
0.608505
0.619059
0.629804
0.640798
0.652142
0.663994
0.67658
0.690191
0.705075
0.721327
0.740121
0.763032
0.544074
0.551633
0.561399
0.571617
0.581928
0.592448
0.603205
0.614171
0.625324
0.63666
0.648194
0.659968
0.672063
0.684615
0.697831
0.711994
0.727355
0.744041
0.763461
0.787668
0.553532
0.561993
0.572241
0.582963
0.593848
0.604976
0.616365
0.627986
0.639817
0.651845
0.664073
0.676526
0.689269
0.702417
0.716155
0.730759
0.746482
0.763485
0.783404
0.808754
0.56122
0.570481
0.581152
0.592308
0.603688
0.61534
0.627273
0.639458
0.651869
0.664485
0.677298
0.690319
0.703594
0.717216
0.731355
0.746276
0.762237
0.779434
0.79972
0.826052
0.5671
0.57705
0.588076
0.599589
0.611378
0.623462
0.635843
0.64849
0.661372
0.674462
0.687741
0.701205
0.714882
0.728847
0.743254
0.758356
0.774421
0.79168
0.812196
0.839347
0.571137
0.581653
0.592961
0.604749
0.616854
0.629273
0.641996
0.654995
0.668232
0.681672
0.695286
0.709057
0.722997
0.737163
0.75169
0.76683
0.782855
0.80004
0.820645
0.848445
0.573297
0.584248
0.595759
0.607737
0.620061
0.63271
0.645666
0.658898
0.672364
0.686023
0.699834
0.713768
0.72782
0.742032
0.756526
0.771548
0.787384
0.804351
0.824901
0.85318
0.573552
0.584801
0.596432
0.608509
0.62095
0.63372
0.646793
0.660135
0.673701
0.68744
0.701301
0.715244
0.72925
0.743346
0.757643
0.772385
0.787875
0.804478
0.824827
0.853413
0.57188
0.583282
0.594946
0.607031
0.619484
0.632261
0.645332
0.658657
0.672185
0.685859
0.699618
0.713411
0.727205
0.741015
0.754944
0.769238
0.78422
0.800308
0.820308
0.849032
0.568263
0.579671
0.591278
0.603277
0.615635
0.628304
0.641249
0.654424
0.667775
0.681235
0.694735
0.708212
0.721623
0.734971
0.748356
0.762028
0.776336
0.791756
0.811261
0.839968
0.562693
0.573956
0.585415
0.597231
0.609384
0.621827
0.63452
0.647413
0.660442
0.673536
0.686616
0.699608
0.712461
0.725168
0.737827
0.7507
0.764163
0.778759
0.797629
0.826189
0.555168
0.566133
0.577353
0.588889
0.600726
0.612825
0.62514
0.637614
0.650178
0.662752
0.675249
0.687586
0.699703
0.711589
0.723341
0.735233
0.747677
0.761281
0.779334
0.807516
0.362775
0.344521
0.320239
0.294866
0.268965
0.24288
0.216862
0.19101
0.1654
0.140114
0.115232
0.090823
0.066953
0.0436817
0.0210619
-0.000860596
-0.0220482
-0.0424721
-0.062112
-0.0809563
0.362705
0.344027
0.320351
0.294939
0.268827
0.242395
0.215894
0.189482
0.163281
0.137394
0.111914
0.0869247
0.0625007
0.0387098
0.0156119
-0.00674196
-0.0283095
-0.0490582
-0.0689645
-0.0880132
0.366007
0.344049
0.319258
0.293229
0.266573
0.239574
0.212481
0.185477
0.158702
0.132274
0.106297
0.0808609
0.0560482
0.0319313
0.00857383
-0.0139703
-0.0356567
-0.0564514
-0.0763302
-0.0952772
0.369051
0.344852
0.318961
0.292124
0.264727
0.23702
0.209239
0.181572
0.154171
0.127163
0.100659
0.0747591
0.0495488
0.0251049
0.0014934
-0.0212303
-0.0430215
-0.0638468
-0.0836832
-0.102517
0.371425
0.345676
0.318754
0.291043
0.26284
0.234378
0.205881
0.177536
0.1495
0.12191
0.0948847
0.0685287
0.0429338
0.0181796
-0.00566573
-0.0285461
-0.0504173
-0.0712474
-0.0910156
-0.109711
0.373465
0.346334
0.318334
0.289688
0.260635
0.231391
0.202163
0.173139
0.144479
0.116326
0.0888043
0.0620243
0.0360816
0.0110584
-0.0129761
-0.0359659
-0.0578683
-0.0786541
-0.0983056
-0.116817
0.375249
0.346816
0.31771
0.288088
0.258152
0.228102
0.198135
0.168434
0.139164
0.11047
0.0824829
0.0553153
0.0290659
0.00381835
-0.0203582
-0.0434092
-0.0652946
-0.0859894
-0.10548
-0.123768
0.376795
0.347133
0.316925
0.286309
0.255471
0.224603
0.193894
0.163526
0.133663
0.104455
0.0760345
0.0485168
0.0220018
-0.00342694
-0.0277017
-0.0507709
-0.0725987
-0.0931651
-0.112463
-0.130499
0.378169
0.347332
0.316035
0.284423
0.25268
0.220993
0.18955
0.158529
0.128097
0.0984046
0.0695848
0.0417544
0.0150128
-0.0105579
-0.0348932
-0.0579456
-0.0796848
-0.100097
-0.119183
-0.136957
0.379484
0.34751
0.315144
0.282547
0.249905
0.21741
0.185246
0.153594
0.122619
0.0924709
0.0632843
0.0351746
0.0082392
-0.017443
-0.0418117
-0.0648251
-0.0864597
-0.10671
-0.125581
-0.143101
0.380894
0.347817
0.31441
0.280846
0.247324
0.214036
0.181172
0.14891
0.117415
0.0868373
0.0573089
0.0289433
0.00183447
-0.0239433
-0.0483354
-0.0713067
-0.0928411
-0.112941
-0.13162
-0.148915
0.382602
0.348459
0.314042
0.279538
0.245158
0.211099
0.177553
0.144699
0.112701
0.0817075
0.0518484
0.0232333
-0.00404841
-0.029928
-0.0543574
-0.0773086
-0.0987736
-0.118763
-0.137296
-0.154424
0.384864
0.349693
0.314302
0.278887
0.24367
0.208857
0.174641
0.141201
0.108701
0.0772875
0.0470862
0.0182027
-0.00927906
-0.0352963
-0.0598077
-0.0827925
-0.104251
-0.124199
-0.142665
-0.159708
0.387983
0.35182
0.315486
0.279183
0.243143
0.207579
0.172686
0.138646
0.10562
0.0737525
0.0431656
0.0139602
-0.0137847
-0.0400125
-0.064688
-0.087797
-0.109346
-0.129358
-0.147864
-0.164935
0.392274
0.355146
0.317886
0.280697
0.243825
0.207487
0.171883
0.137194
0.103581
0.0711851
0.0401267
0.0105025
-0.0176131
-0.044168
-0.069132
-0.0924959
-0.114271
-0.134484
-0.153169
-0.170404
0.398005
0.359913
0.321711
0.283605
0.245852
0.208677
0.17228
0.136845
0.102532
0.0694836
0.0378161
0.00762484
-0.0210182
-0.0480638
-0.0734844
-0.0972735
-0.119444
-0.140026
-0.159052
-0.176605
0.405283
0.36619
0.326989
0.287889
0.24916
0.211034
0.173713
0.137384
0.10221
0.0683329
0.0358702
0.00491796
-0.0244517
-0.0521893
-0.0782674
-0.102679
-0.125438
-0.146571
-0.166109
-0.184138
0.413856
0.373668
0.333352
0.293128
0.253275
0.214032
0.175607
0.138189
0.101946
0.0670239
0.0335446
0.00160739
-0.0287118
-0.0573602
-0.0843072
-0.109543
-0.133079
-0.154938
-0.175147
-0.193789
0.422548
0.380875
0.339033
0.29729
0.255919
0.215161
0.175232
0.136326
0.0986211
0.0622697
0.0274032
-0.00587099
-0.037469
-0.0673309
-0.0954202
-0.121723
-0.146245
-0.169012
-0.190057
-0.20943
0.428498
0.384377
0.340083
0.295982
0.252298
0.209258
0.167084
0.125984
0.0861467
0.0477403
0.0109106
-0.0242211
-0.0575583
-0.0890301
-0.118592
-0.146224
-0.171936
-0.195769
-0.217802
-0.238012
-0.0990222
-0.116294
-0.132801
-0.148577
-0.16366
-0.178096
-0.191938
-0.205242
-0.218068
-0.230473
-0.242516
-0.254254
-0.265742
-0.277039
-0.288212
-0.299346
-0.310355
-0.320822
-0.330735
-0.326423
-0.106225
-0.123571
-0.140085
-0.155794
-0.170734
-0.184945
-0.198476
-0.211376
-0.223697
-0.235489
-0.246801
-0.257678
-0.268157
-0.278263
-0.287996
-0.297292
-0.305845
-0.312843
-0.316919
-0.30846
-0.113319
-0.130418
-0.146612
-0.161933
-0.176415
-0.190103
-0.203045
-0.215294
-0.226904
-0.237927
-0.248413
-0.258405
-0.267929
-0.276992
-0.285553
-0.293477
-0.300392
-0.305564
-0.308026
-0.303106
-0.120382
-0.137236
-0.153124
-0.168082
-0.182148
-0.195371
-0.207803
-0.219502
-0.230524
-0.240924
-0.250752
-0.260049
-0.268838
-0.277115
-0.284825
-0.291828
-0.297799
-0.302189
-0.304338
-0.301853
-0.12738
-0.143969
-0.159537
-0.174125
-0.187775
-0.200541
-0.212482
-0.223658
-0.234129
-0.243954
-0.253186
-0.261865
-0.270017
-0.277635
-0.284672
-0.291006
-0.296389
-0.300433
-0.302664
-0.301801
-0.134246
-0.150533
-0.165747
-0.179938
-0.193153
-0.205452
-0.216899
-0.227561
-0.237502
-0.246786
-0.255468
-0.263594
-0.271193
-0.278266
-0.284776
-0.290633
-0.295659
-0.29959
-0.302109
-0.302564
-0.140923
-0.15688
-0.17172
-0.185502
-0.198279
-0.210118
-0.221089
-0.231265
-0.240716
-0.24951
-0.257708
-0.265359
-0.2725
-0.27914
-0.285258
-0.290792
-0.295619
-0.299564
-0.302424
-0.303885
-0.147363
-0.162977
-0.177441
-0.190819
-0.203174
-0.214578
-0.225109
-0.234843
-0.243858
-0.252225
-0.260011
-0.267271
-0.274044
-0.280351
-0.286185
-0.291505
-0.296228
-0.300237
-0.303399
-0.305567
-0.153527
-0.168804
-0.182904
-0.195902
-0.207867
-0.218877
-0.229016
-0.238365
-0.247007
-0.255017
-0.262465
-0.269411
-0.275899
-0.281956
-0.287585
-0.29276
-0.297426
-0.301503
-0.304898
-0.307541
-0.159394
-0.174358
-0.188128
-0.200788
-0.212412
-0.223083
-0.232891
-0.241922
-0.25026
-0.257985
-0.265168
-0.271872
-0.278145
-0.284016
-0.289496
-0.294569
-0.299196
-0.303319
-0.306871
-0.309818
-0.164971
-0.179669
-0.193163
-0.205544
-0.216892
-0.227296
-0.236845
-0.245631
-0.25374
-0.261252
-0.268241
-0.274769
-0.280883
-0.286618
-0.291985
-0.296975
-0.301561
-0.305698
-0.309335
-0.312452
-0.170307
-0.184809
-0.198101
-0.210283
-0.221436
-0.231653
-0.241026
-0.249647
-0.257603
-0.264973
-0.271832
-0.278238
-0.284241
-0.289873
-0.295148
-0.300061
-0.304591
-0.308701
-0.312354
-0.315538
-0.17551
-0.189907
-0.203092
-0.215169
-0.226223
-0.236344
-0.245629
-0.254167
-0.262044
-0.26934
-0.276124
-0.282457
-0.288383
-0.293934
-0.299124
-0.303952
-0.3084
-0.312442
-0.316045
-0.319206
-0.18077
-0.195177
-0.208365
-0.220446
-0.231503
-0.241627
-0.250911
-0.259446
-0.267316
-0.274596
-0.281354
-0.287647
-0.293519
-0.298998
-0.3041
-0.308824
-0.313159
-0.317084
-0.320574
-0.323633
-0.186407
-0.200952
-0.214268
-0.226468
-0.237634
-0.247855
-0.257225
-0.26583
-0.273752
-0.281064
-0.287832
-0.294108
-0.299933
-0.305337
-0.310334
-0.314927
-0.319108
-0.322864
-0.326175
-0.329052
-0.192924
-0.207743
-0.221311
-0.233743
-0.245117
-0.255522
-0.265048
-0.273781
-0.2818
-0.289175
-0.295968
-0.302232
-0.308005
-0.313314
-0.318177
-0.322597
-0.326574
-0.3301
-0.333159
-0.33577
-0.200914
-0.216135
-0.230068
-0.242829
-0.254492
-0.265144
-0.274876
-0.28377
-0.291905
-0.29935
-0.306166
-0.312401
-0.318095
-0.323275
-0.32796
-0.332157
-0.33587
-0.339097
-0.341826
-0.344079
-0.211124
-0.226844
-0.241224
-0.254374
-0.266367
-0.277292
-0.287238
-0.29629
-0.304526
-0.312015
-0.318818
-0.324983
-0.33055
-0.335547
-0.339993
-0.343902
-0.347281
-0.350134
-0.352455
-0.354252
-0.227287
-0.243546
-0.25839
-0.271901
-0.284168
-0.295284
-0.305347
-0.314444
-0.322658
-0.330061
-0.336715
-0.34267
-0.347965
-0.35263
-0.356688
-0.360154
-0.363043
-0.365373
-0.36716
-0.36834
-0.255994
-0.272745
-0.287949
-0.301636
-0.313937
-0.324978
-0.334867
-0.343706
-0.351587
-0.358589
-0.364778
-0.370207
-0.374915
-0.378933
-0.382282
-0.384984
-0.387066
-0.388585
-0.389631
-0.389978
-0.388525
-0.368822
-0.355641
-0.345976
-0.33804
-0.33159
-0.326345
-0.322006
-0.318337
-0.315149
-0.312282
-0.309592
-0.306927
-0.304099
-0.300854
-0.296873
-0.29145
-0.281916
-0.263741
-0.247899
-0.38777
-0.369043
-0.356546
-0.34737
-0.339814
-0.333643
-0.328586
-0.324351
-0.320705
-0.317454
-0.314431
-0.311477
-0.308431
-0.305097
-0.301248
-0.296677
-0.291038
-0.282622
-0.268934
-0.26112
-0.386781
-0.368967
-0.357111
-0.34841
-0.34123
-0.335341
-0.330479
-0.326365
-0.32277
-0.319509
-0.316421
-0.313357
-0.310175
-0.306725
-0.302858
-0.298493
-0.293496
-0.286848
-0.277531
-0.275246
-0.385414
-0.368581
-0.357378
-0.349149
-0.342343
-0.336737
-0.33208
-0.328103
-0.324592
-0.321371
-0.318291
-0.315224
-0.312053
-0.308668
-0.304977
-0.300967
-0.296592
-0.291122
-0.284051
-0.283714
-0.383788
-0.367946
-0.357393
-0.34963
-0.343196
-0.337875
-0.333431
-0.32961
-0.326211
-0.323073
-0.320064
-0.317074
-0.314014
-0.310806
-0.307403
-0.303835
-0.300107
-0.295656
-0.290135
-0.290546
-0.382009
-0.367132
-0.357215
-0.34991
-0.343841
-0.338808
-0.334583
-0.330932
-0.327667
-0.324644
-0.321746
-0.318883
-0.315987
-0.313005
-0.309918
-0.306774
-0.3036
-0.299941
-0.295512
-0.296175
-0.380162
-0.366211
-0.356908
-0.350047
-0.344337
-0.339587
-0.335585
-0.332111
-0.328994
-0.326104
-0.32334
-0.320626
-0.317911
-0.315159
-0.312364
-0.309578
-0.306832
-0.303744
-0.300071
-0.300702
-0.378325
-0.365254
-0.356537
-0.350103
-0.34474
-0.340266
-0.336483
-0.333187
-0.330222
-0.327472
-0.324847
-0.322286
-0.319746
-0.317203
-0.314657
-0.312156
-0.309725
-0.307043
-0.303899
-0.304347
-0.376577
-0.364331
-0.356168
-0.350142
-0.345109
-0.340897
-0.337325
-0.334201
-0.331384
-0.328768
-0.326276
-0.323855
-0.321471
-0.319104
-0.316758
-0.31447
-0.312263
-0.309863
-0.307095
-0.307285
-0.374989
-0.363512
-0.35587
-0.350225
-0.3455
-0.341535
-0.338158
-0.335193
-0.332511
-0.330017
-0.327642
-0.325341
-0.323084
-0.320856
-0.318658
-0.316523
-0.314464
-0.312255
-0.309751
-0.309654
-0.373635
-0.362869
-0.355708
-0.350414
-0.345974
-0.342232
-0.339031
-0.336206
-0.333641
-0.331249
-0.328969
-0.326761
-0.324599
-0.322471
-0.320377
-0.31834
-0.316371
-0.314282
-0.311962
-0.311571
-0.372588
-0.36247
-0.355748
-0.350774
-0.346588
-0.343044
-0.339994
-0.337287
-0.334814
-0.332499
-0.330288
-0.328143
-0.326044
-0.323979
-0.321946
-0.319963
-0.318036
-0.316016
-0.313817
-0.313143
-0.37192
-0.362386
-0.356058
-0.351368
-0.347402