/*--------------------------------*- C++ -*----------------------------------*\
  =========                 |
  \\      /  F ield         | OpenFOAM: The Open Source CFD Toolbox
   \\    /   O peration     | Website:  https://openfoam.org
    \\  /    A nd           | Version:  6.0
     \\/     M anipulation  |
\*---------------------------------------------------------------------------*/
FoamFile
{
    version     2.0;
    format      ascii;
    class       surfaceScalarField;
    location    "16";
    object      phi;
}
// * * * * * * * * * * * * * * * * * * * * * * * * * * * * * * * * * * * * * //

dimensions      [0 3 -1 0 0 0 0];

internalField   nonuniform List<scalar> 
4670
(
-0.000189254
-0.0216915
0.0218808
-0.000520484
-0.0168543
0.0171855
-0.000868519
-0.013252
0.0136
-0.00116417
-0.0105793
0.0108749
-0.00137295
-0.00859016
0.00879894
-0.00148397
-0.0070937
0.00720472
-0.0015029
-0.00594539
0.00596432
-0.0014474
-0.00503794
0.00498243
-0.00134417
-0.00429238
0.00418916
-0.00365192
0.00353436
-0.00122661
-0.000174889
-0.0215166
-0.000457013
-0.0165721
-0.000715281
-0.0129937
-0.000879473
-0.0104151
-0.000915727
-0.0085539
-0.000814033
-0.00719539
-0.000581237
-0.00617818
-0.000237132
-0.00538205
0.000187498
-0.00471701
-0.00411698
0.000652556
-0.000151679
-0.0213649
-0.000356786
-0.016367
-0.000483436
-0.0128671
-0.000462842
-0.0104357
-0.000262498
-0.00875425
0.000127187
-0.00758508
0.000699553
-0.00675055
0.00143439
-0.00611688
0.00229799
-0.00558062
-0.00506182
0.00324283
-0.000118189
-0.0212468
-0.000218885
-0.0162663
-0.000173527
-0.0129124
8.19989e-05
-0.0106912
0.000577004
-0.00924925
0.00132023
-0.0083283
0.00230623
-0.00773655
0.00351662
-0.00732727
0.00491737
-0.00698136
-0.00659881
0.00645436
-7.33397e-05
-0.0211734
-4.09829e-05
-0.0162987
0.000217211
-0.0131706
0.000756435
-0.0112304
0.00159955
-0.0100924
0.00275246
-0.00948121
0.00421075
-0.00919484
0.00596004
-0.00907656
0.00797011
-0.00899143
-0.00881258
0.0101839
-1.54894e-05
-0.0211579
0.000181081
-0.0164953
0.000695276
-0.0136848
0.00156815
-0.0121033
0.00281131
-0.0113355
0.00442349
-0.0110934
0.00639849
-0.0111698
0.0087264
-0.0114045
0.0113861
-0.0116511
-0.011751
0.0143245
5.74031e-05
-0.0212153
0.000452328
-0.0168902
0.00126894
-0.0145014
0.00252865
-0.013363
0.00422593
-0.0130328
0.00634555
-0.013213
0.00887252
-0.0136968
0.0117969
-0.0143289
0.01511
-0.0149641
-0.0154162
0.0187751
0.00014711
-0.0213624
0.00077627
-0.0175193
0.00194343
-0.0156686
0.00364571
-0.0150653
0.00585496
-0.0152421
0.00853382
-0.0158919
0.011647
-0.01681
0.0151716
-0.0178536
0.0191068
-0.0188993
-0.0197718
0.0234625
0.000254407
-0.0216168
0.00115182
-0.0184168
0.00271437
-0.0172311
0.00491294
-0.0172639
0.00769453
-0.0180236
0.0109945
-0.0191918
0.0147448
-0.0205603
0.0188862
-0.021995
0.0234028
-0.0234159
-0.0247917
0.0284227
0.000379045
-0.0219959
0.00156929
-0.019607
0.00355842
-0.0192203
0.0062931
-0.0199985
0.00970221
-0.0214328
0.0137062
-0.0231958
0.0182184
-0.0250726
0.0231374
-0.026914
0.0283478
-0.0286262
-0.0302449
0.033801
0.030214
0.0011862
-0.0314002
0.0290234
0.00119057
0.0278553
0.00116806
0.0267353
0.00112006
0.0256854
0.00104992
0.0247236
0.000961777
0.0238639
0.000859643
0.0231171
0.000746821
0.0224917
0.000625427
0.000495805
0.0401776
0.00370708
-0.0426985
0.0375388
0.00382931
0.0348528
0.00385411
0.032187
0.00378587
0.0296039
0.00363304
0.0271589
0.00340669
0.0248999
0.00311864
0.0228671
0.00277963
0.0210942
0.00239834
0.00198304
0.0489624
0.00687878
-0.0521341
0.045522
0.00726969
0.0419062
0.00746985
0.0382111
0.007481
0.0345312
0.00731298
0.0309559
0.006982
0.0275671
0.00650747
0.0244385
0.00590817
0.0216368
0.00520007
0.00439954
0.0562231
0.010224
-0.0595683
0.0524567
0.011036
0.0483671
0.0115595
0.0440626
0.0117855
0.0396574
0.0117182
0.0352659
0.0113735
0.030999
0.0107743
0.0269629
0.00994428
0.0232614
0.0089016
0.00766242
0.0619048
0.013429
-0.0651098
0.0581489
0.0147919
0.0539296
0.0157788
0.0493524
0.0163626
0.0445364
0.0165342
0.0396083
0.0163016
0.0346974
0.0156853
0.0299345
0.0147071
0.0254591
0.0133771
0.0116887
0.0661238
0.0163122
-0.069007
0.0625959
0.0183198
0.0584907
0.019884
0.0538984
0.0209549
0.0489293
0.0215033
0.0437081
0.0215228
0.0383678
0.0210256
0.0330492
0.0200257
0.0279156
0.0185106
0.0164086
0.0690811
0.0187922
-0.0715611
0.0659026
0.0214983
0.0620683
0.0237183
0.0576456
0.0253775
0.0527259
0.0264231
0.0474186
0.02683
0.0418447
0.0265996
0.0361328
0.0257376
0.0304437
0.0241997
0.0217797
0.0710023
0.0208563
-0.0730664
0.0682224
0.0242782
0.0647455
0.0271952
0.060614
0.029509
0.055895
0.0311421
0.0506748
0.0320502
0.045048
0.0322264
0.0391041
0.0316815
0.0329492
0.0303546
0.0278149
0.0720967
0.0225341
-0.0737745
0.0697154
0.0266595
0.0666296
0.030281
0.0628597
0.0332789
0.0584489
0.0355529
0.0534594
0.0370397
0.0479554
0.0377304
0.0419672
0.0376697
0.0354591
0.0368628
0.0346478
0.0725334
-0.0738788
0.0238795
0.0705177
0.0286752
0.0678183
0.0329804
0.0644391
0.0366581
0.0604056
0.0395864
0.0557624
0.0416828
0.0505568
0.0429359
0.044786
0.0434405
0.038258
0.0433908
0.0426609
0.0367667
-0.000324271
-0.0364424
0.0368887
-0.000122003
0.0368038
8.49133e-05
0.0365149
0.000288847
0.0360314
0.000483535
0.0353683
0.000663087
0.0345463
0.000822054
0.0335906
0.000955675
0.0325307
0.00105989
0.00113052
0.050913
-0.00149666
-0.0497406
0.0516588
-0.000867816
0.0519662
-0.000222531
0.0518298
0.000425306
0.0512534
0.00105989
0.0502521
0.00166436
0.0488526
0.0022216
0.047093
0.00271525
0.0450224
0.0031305
0.00345446
0.0589313
-0.00346293
-0.056965
0.0603823
-0.00231888
0.0612913
-0.00113149
0.0616365
8.00377e-05
0.0614061
0.00129032
0.0606002
0.00247029
0.059233
0.0035888
0.0573339
0.00461431
0.0549478
0.0055166
0.00626821
0.0629165
-0.0060661
-0.0603134
0.0649977
-0.00440002
0.0665155
-0.00264931
0.0674321
-0.000836498
0.0677179
0.00100451
0.0673549
0.00283326
0.0663387
0.00460496
0.0646805
0.00627251
0.0624084
0.00778872
0.00910832
0.064377
-0.00912955
-0.0613136
0.0669553
-0.00697831
0.068994
-0.00468803
0.0704416
-0.00228403
0.0712549
0.00019116
0.0714013
0.00268688
0.0708596
0.0051466
0.0696224
0.00750977
0.0676973
0.00971379
0.0116959
0.0643697
-0.012502
-0.0609972
0.0673129
-0.00992154
0.0697562
-0.00713137
0.0716378
-0.00416555
0.0729074
-0.00107852
0.073525
0.00206932
0.0734592
0.00521239
0.0726886
0.00828043
0.071203
0.0111993
0.0138919
0.0635946
-0.0160812
-0.0600154
0.0668002
-0.0131272
0.0695381
-0.00986923
0.0717416
-0.00636905
0.0733629
-0.00269981
0.0743629
0.00106927
0.0747081
0.00486723
0.0743696
0.00861899
0.0733248
0.012244
0.0156556
0.0624986
-0.0198302
-0.0587496
0.0658969
-0.0165254
0.0688323
-0.0128047
0.0712479
-0.00878464
0.0731096
-0.0045615
0.0743877
-0.000208847
0.0750521
0.0042028
0.0750722
0.00859892
0.0744185
0.0128977
0.0170078
0.0613854
-0.0237703
-0.0574453
0.0649054
-0.0200454
0.0679386
-0.0158379
0.0704604
-0.0113065
0.072459
-0.00656005
0.0739163
-0.00166618
0.0748073
0.0033118
0.075102
0.0083042
0.0747683
0.0132315
0.0180016
0.0604448
-0.0563941
-0.027821
0.0639887
-0.0235894
0.067002
-0.0188511
0.0695353
-0.0138398
0.0715873
-0.00861208
0.073144
-0.0032228
0.0741819
0.00227384
0.0746721
0.00781401
0.0745822
0.0133214
0.018705
0.0423581
0.0133904
-0.00810986
-0.0476386
0.0369932
0.0141245
-0.00875956
0.0315451
0.0149975
-0.00954943
0.0260304
0.0160568
-0.0105422
0.0204932
0.0173614
-0.0118242
0.0150275
0.0189629
-0.0134973
0.00981368
0.0208684
-0.0156546
0.00516934
0.0229664
-0.0183221
0.00162091
0.0248973
-0.0213489
0.0258361
-0.0242152
0.0421272
0.0186435
-0.0473803
0.0367881
0.0194636
0.0313651
0.0204205
0.025875
0.0215469
0.0203621
0.0228744
0.0149213
0.0244037
0.00973403
0.0260557
0.00511928
0.0275811
0.00160154
0.0284151
0.0274376
0.0415231
0.0238391
-0.0467187
0.0362413
0.0247454
0.0308769
0.0257849
0.0254482
0.0269756
0.0200008
0.0283218
0.0146313
0.0297732
0.00952242
0.0311646
0.00499136
0.0321122
0.00155322
0.0318532
0.0289909
0.0405493
0.0289491
-0.0456593
0.0353545
0.0299403
0.0300814
0.031058
0.0247504
0.0323066
0.0194097
0.0336625
0.0141584
0.0350245
0.00917992
0.0361431
0.00478713
0.036505
0.00147781
0.0351625
0.0304687
0.0392086
0.033948
-0.0442075
0.0341292
0.0350198
0.0289794
0.0362078
0.0237826
0.0375034
0.0185902
0.0388549
0.0135043
0.0401104
0.00870865
0.0409387
0.0045086
0.040705
0.00137653
0.0382946
0.0318452
0.0375006
0.0388119
-0.0423646
0.0325645
0.0399559
0.0275707
0.0412016
0.0225455
0.0425285
0.0175441
0.0438563
0.0126718
0.0449826
0.00811188
0.0454986
0.00415863
0.0446583
0.00125083
0.0412024
0.033096
0.0354181
0.0435164
-0.0401227
0.0306552
0.0447188
0.0258527
0.0460041
0.0210395
0.0473418
0.0162741
0.0486217
0.0116652
0.0495916
0.00739438
0.0497695
0.00374118
0.0483115
0.00110265
0.0438409
0.0341987
0.032942
0.0480298
-0.0374554
0.0283893
0.0492716
0.0238213
0.050572
0.0192657
0.0518973
0.0147849
0.0531026
0.0104911
0.0538853
0.00656314
0.0536974
0.00326184
0.0516128
0.000934671
0.0461681
0.0351334
0.0300257
0.0523157
-0.0343116
0.0257455
0.0535518
0.0214735
0.054844
0.0172296
0.0561412
0.0130857
0.0572465
0.00916037
0.0578107
0.00562851
0.0572293
0.00272857
0.0545127
0.000750804
0.0481458
0.0358842
0.0266163
-0.0306947
0.0227228
0.0188171
0.0149429
0.0111922
0.00768932
0.00460524
0.00215298
0.000558268
0.0246593
-0.0358658
0.040138
-0.0289315
0.0206733
-0.0356707
0.0396567
0.0168302
-0.0351411
0.0389843
0.0131537
-0.0341034
0.0377799
0.00971844
-0.0322319
0.0356671
0.00662201
-0.0290507
0.0321471
0.00397886
-0.0239094
0.0265525
0.00191028
-0.0159629
0.0180315
0.000537924
-0.0041648
0.00553716
0.0127966
-0.0122586
0.0280877
-0.0315397
-0.0324139
0.0238126
-0.0313955
0.019623
-0.0309515
0.0155597
-0.0300402
0.0116964
-0.0283685
0.00813588
-0.0254902
0.00500927
-0.0207828
0.00247538
-0.013429
0.000723726
-0.00241315
0.0135203
0.0310982
-0.0270604
-0.0355775
0.0265972
-0.0268944
0.0221269
-0.0264813
0.0177386
-0.0256519
0.0135058
-0.0241357
0.00953475
-0.0215192
0.00597123
-0.0172193
0.0030082
-0.010466
0.000899826
-0.000304768
0.0144201
0.0337255
-0.0224123
-0.0383735
0.0290316
-0.0222005
0.0243303
-0.0217801
0.0196702
-0.0209917
0.0151227
-0.0195882
0.0107957
-0.0171921
0.00684627
-0.0132699
0.00349747
-0.00711719
0.00106319
0.00212952
0.0154833
0.0360087
-0.0176042
-0.0408169
0.0311416
-0.0173334
0.0262422
-0.0168806
0.0213519
-0.0161014
0.0165375
-0.0147738
0.0119058
-0.0125605
0.00762209
-0.00898617
0.00393456
-0.00342966
0.00121033
0.00485375
0.0166936
0.0379544
-0.0126518
-0.0429067
0.0329348
-0.0123138
0.0278659
-0.0118117
0.022782
-0.0110176
0.0177442
-0.0097359
0.0128567
-0.00767295
0.00828998
-0.00441949
0.00431286
0.000547452
0.00133836
0.00782825
0.018032
0.039557
-0.00757685
-0.044632
0.0344092
-0.00716601
0.0292001
-0.00660263
0.0239579
-0.00577542
0.0187382
-0.00451614
0.013642
-0.0025768
0.00884337
0.000379166
0.00462728
0.00476355
0.00144498
0.0110105
0.019477
0.0408075
-0.00240513
-0.0459792
0.035559
-0.0019175
0.0302405
-0.0012842
0.0248756
-0.000410478
0.0195149
0.000844576
0.0142567
0.00268138
0.00927713
0.00535874
0.00487383
0.00916684
0.0015284
0.014356
0.0210054
0.0416964
0.00283421
-0.0469358
0.0363773
0.00340162
0.0309821
0.00411106
0.0255305
0.00504103
0.02007
0.00630515
0.0146963
0.00805501
0.00958722
0.0104679
0.00504963
0.0137044
0.00158742
0.0178182
0.0225928
0.0422162
-0.0474919
0.0368583
0.0314199
0.0259187
0.0203997
0.0149574
0.00977072
0.00515309
0.00162239
0.0442825
0.0213774
-0.0255219
0.0477883
0.0174465
-0.0209523
0.0507051
0.0130192
-0.015936
0.0530829
0.00826882
-0.0106466
0.0549093
0.00334017
-0.00516663
0.0561558
-0.00166639
0.000419895
0.0567837
-0.00664926
0.00602136
0.0567515
-0.0114953
0.0115276
0.0560211
-0.0160801
0.0168104
-0.0202702
0.0545651
0.0217263
0.0435222
0.0175119
0.0469334
0.0140353
0.0497966
0.010156
0.0520743
0.00599111
0.053745
0.00166947
0.0547795
-0.00270091
0.0551431
-0.00701285
0.0548016
-0.0111539
0.053728
-0.0150065
-0.0184519
0.0519097
0.0425705
0.0139257
0.0457596
0.0108462
0.0484226
0.00749306
0.050486
0.00392768
0.0519062
0.000249264
0.052647
-0.00344172
0.0526767
-0.00704256
0.0519712
-0.0104483
0.0505189
-0.0135543
-0.0162608
0.0483278
0.0410932
0.0106124
0.0439781
0.00796125
0.0463304
0.00514081
0.0480706
0.00218747
0.0491448
-0.000824937
0.0495145
-0.00381143
0.0491543
-0.00668239
0.0480537
-0.00934768
0.0462207
-0.0117213
-0.0137265
0.0436864
0.0386641
0.0076154
0.0411783
0.00544702
0.0431343
0.0031848
0.044464
0.000857737
0.0451181
-0.00147899
0.0450652
-0.0037585
0.0442924
-0.00590958
0.0428068
-0.00786211
0.0406379
-0.00955242
-0.0109281
0.0378395
0.0347514
0.00501118
0.0368275
0.0033709
0.0383228
0.00168947
0.0391884
-7.80551e-06
0.03939
-0.00168063
0.0389122
-0.00328066
0.0377597
-0.00475716
0.0359596
-0.00606202
0.0335615
-0.00715424
-0.00800358
0.0306369
0.0286775
0.00288625
0.0302584
0.00179001
0.0312621
0.000685696
0.0316616
-0.000407259
0.0314432
-0.00146226
0.0306112
-0.00244868
0.0291897
-0.00333558
0.0272228
-0.0040952
0.0247746
-0.00470596
-0.00515467
0.0219256
0.0196019
0.00131582
0.020663
0.000728976
0.0211995
0.000149125
0.0212052
-0.000412963
0.0206864
-0.000943397
0.0196646
-0.00142688
0.0181778
-0.00184878
0.0162796
-0.00219699
0.0140371
-0.00246348
-0.00264544
0.0115279
0.00650635
0.000346626
0.00707558
0.00015975
0.00724449
-1.97811e-05
0.00702135
-0.000189826
0.00642419
-0.00034624
0.00548188
-0.000484572
0.00423397
-0.000600869
0.00272922
-0.000692242
0.00102315
-0.000757402
-0.000797708
-0.000824591
-0.011912
-0.0117523
-0.0117721
-0.0119619
-0.0123081
-0.0127927
-0.0133936
-0.0140858
-0.0148432
-0.0156409
0.0523752
-0.0239483
0.0261382
0.0494671
-0.0269542
0.0298623
0.0458901
-0.0292117
0.0327888
0.0417265
-0.0306712
0.0348348
0.0370844
-0.0313422
0.0359843
0.0320793
-0.0312945
0.0362996
0.0268029
-0.030636
0.0359124
0.0212712
-0.0294486
0.0349803
0.0153656
-0.0276018
0.0335074
-0.0241674
0.00856569
0.0309672
0.0493572
-0.0213958
0.0461083
-0.0237053
0.0422343
-0.0253378
0.0378363
-0.0262732
0.0330341
-0.02654
0.0279466
-0.026207
0.0226638
-0.0253531
0.0172175
-0.0240024
0.0116098
-0.021994
-0.0187341
0.0061765
0.0454314
-0.0184993
0.0418922
-0.0201662
0.0378031
-0.0212486
0.0332802
-0.0217503
0.0284515
-0.0217113
0.0234387
-0.0211941
0.0183404
-0.0202549
0.0132317
-0.0188937
0.00822732
-0.0169896
-0.0142441
0.00373735
0.0405077
-0.0153206
0.0367702
-0.0164287
0.032583
-0.0170613
0.028071
-0.0172384
0.0233636
-0.0170038
0.0185807
-0.0164113
0.0138264
-0.0155006
0.0091999
-0.0142672
0.00484887
-0.0126386
-0.010488
0.00109277
0.0344882
-0.0119693
0.0306863
-0.0126267
0.0265506
-0.0129257
0.0222059
-0.0128937
0.0177742
-0.0125721
0.0133666
-0.0120037
0.00908207
-0.011216
0.00502079
-0.010206
0.00131795
-0.00893574
-0.00736223
-0.0018078
0.0272746
-0.00860695
0.0235835
-0.00893571
0.019678
-0.00902013
0.015672
-0.00888771
0.0116721
-0.00857218
0.00777266
-0.00810429
0.00405839
-0.00750176
0.000615072
-0.00676264
-0.00245176
-0.00586891
-0.00481068
-0.00500331
0.0187651
-0.00544645
0.0153976
-0.00556816
0.0119232
-0.00554578
0.00843668
-0.00540114
0.00502206
-0.00515756
0.00175194
-0.00483417
-0.00130919
-0.00444063
-0.00409678
-0.00397505
-0.00653703
-0.00342866
-0.00280103
-0.00854668
0.00882879
-0.00274738
0.00602815
-0.00276752
0.00320309
-0.00272072
0.000422445
-0.0026205
-0.00225553
-0.00247959
-0.00478233
-0.00230737
-0.00711526
-0.00210769
-0.00921179
-0.00187853
-0.0110252
-0.00161524
-0.00131875
-0.0125075
-0.00275985
-0.000812117
-0.00472173
-0.000805639
-0.00666177
-0.000780678
-0.00853941
-0.000742863
-0.0103226
-0.000696422
-0.0119858
-0.000644097
-0.013507
-0.00058658
-0.014863
-0.000522496
-0.0160284
-0.000449839
-0.000370061
-0.0169771
-0.016453
-0.0172587
-0.0180393
-0.0187822
-0.0194786
-0.0201227
-0.0207093
-0.0212318
-0.0216816
-0.0220517
0.000270718
-0.0223224
0.000988539
-0.0176949
0.00211597
-0.0136349
0.00364251
-0.0100732
0.00556599
-0.00692679
0.00788184
-0.00412365
0.0105763
-0.00160169
0.0136161
0.000697566
0.0169545
0.00283811
0.0049069
0.0206133
0.000184698
-0.0225071
0.0006793
-0.0181895
0.00146619
-0.0144218
0.00254141
-0.0111484
0.00390351
-0.00828889
0.00554835
-0.00576849
0.00746922
-0.00352256
0.00966503
-0.00149825
0.0121717
0.000331456
0.00192669
0.0151519
0.000103322
-0.0226104
0.000397116
-0.0184833
0.00088508
-0.0149098
0.00157655
-0.0118399
0.00248168
-0.00919401
0.00361058
-0.00689739
0.0049763
-0.00488828
0.00660104
-0.00312299
0.00852203
-0.00158953
-0.000329822
0.0107785
3.11066e-05
-0.0226415
0.000150604
-0.0186028
0.000384835
-0.015144
0.000757705
-0.0122128
0.00129061
-0.00972692
0.00200353
-0.00761031
0.00291732
-0.00580208
0.00405527
-0.00426094
0.00543856
-0.00297281
-0.00195539
0.00706413
-3.11233e-05
-0.0226104
-5.86711e-05
-0.0185752
-3.45793e-05
-0.0151681
7.79713e-05
-0.0123253
0.000308108
-0.00995705
0.000679484
-0.00798169
0.00121188
-0.00633447
0.00192084
-0.0049699
0.00281228
-0.00386426
-0.00301384
0.00387073
-8.34261e-05
-0.022527
-0.000231133
-0.0184275
-0.000375581
-0.0150237
-0.000469708
-0.0122312
-0.000480165
-0.0099466
-0.000383791
-0.00807806
-0.0001656
-0.00655267
0.000181294
-0.00531679
0.000652718
-0.00433568
-0.00358989
0.00122877
-0.000125707
-0.0224013
-0.000366633
-0.0181866
-0.00063846
-0.0147518
-0.000886436
-0.0119832
-0.00107544
-0.00975759
-0.00118479
-0.00796871
-0.00120502
-0.00653244
-0.00113637
-0.00538545
-0.000989191
-0.00448286
-0.00379412
-0.000784963
-0.000157478
-0.0222438
-0.000463907
-0.0178802
-0.000820899
-0.0143948
-0.00116797
-0.0116362
-0.00146956
-0.009456
-0.00170801
-0.00773027
-0.0018789
-0.00636155
-0.00198809
-0.00527626
-0.00205029
-0.00442065
-0.00375632
-0.00208809
-0.00017788
-0.0220659
-0.000521124
-0.0175369
-0.000919705
-0.0139963
-0.00130865
-0.0112472
-0.00165247
-0.00911217
-0.00193635
-0.0074464
-0.00216014
-0.00613775
-0.00233433
-0.00510206
-0.00247747
-0.00427752
-0.00361962
-0.00261417
-0.000185161
-0.000536613
-0.000932847
-0.00130515
-0.00161838
-0.00186006
-0.00203349
-0.00215312
-0.00224147
-0.00232674
-0.00106408
-0.00979117
0.00962863
0.00165747
-0.0106702
0.00794865
0.00545403
-0.00986336
0.0060668
0.00991578
-0.00945065
0.0049889
0.0147103
-0.00925144
0.0044569
0.0195223
-0.00998371
0.00517177
0.0241835
-0.0126923
0.00803107
0.0285078
-0.0177955
0.0134712
0.0323417
-0.0248157
0.0209819
0.0355839
-0.0320019
0.0287597
0.0383043
-0.0358769
0.0331566
0.0407117
-0.0323701
0.0299627
0.0430838
-0.0173173
0.0149452
0.0454763
0.00625735
-0.00864982
0.0482005
0.0288017
-0.0315259
0.0510984
0.0329178
-0.0358157
0.0543216
0.0100489
-0.0132721
0.0565793
-0.021702
0.0194444
0.0584561
-0.0655349
0.0636581
-0.0488538
0.0474091
0.00132741
-0.010466
0.00424599
-0.0135888
0.0081268
-0.0137442
0.0125491
-0.013873
0.0172409
-0.0139432
0.0219111
-0.0146539
0.0263901
-0.0171713
0.030489
-0.0218944
0.0340531
-0.0283798
0.0369905
-0.0349394
0.0393925
-0.0382789
0.0415066
-0.0344842
0.0436696
-0.0194803
0.0459843
0.00394263
0.0487522
0.0260338
0.0517398
0.0299302
0.0549867
0.00680201
0.0572035
-0.0239188
0.0589215
-0.0672529
-0.0501709
0.00456913
-0.0117923
0.0076591
-0.0166787
0.0115544
-0.0176395
0.0158349
-0.0181535
0.02031
-0.0184183
0.0247296
-0.0190735
0.0289299
-0.0213716
0.0327259
-0.0256905
0.0359657
-0.0316196
0.0385666
-0.0375402
0.0406352
-0.0403475
0.0424463
-0.0362954
0.0443856
-0.0214196
0.0465997
0.00172852
0.0493792
0.0232542
0.0524225
0.0268869
0.0556672
0.00355729
0.05784
-0.0260915
0.0594157
-0.0688286
-0.0513892
0.00852924
-0.0138672
0.0117413
-0.0198908
0.01556
-0.0214582
0.0195949
-0.0221884
0.0237475
-0.0225708
0.0278208
-0.0231468
0.0316619
-0.0252128
0.0350947
-0.0291233
0.0379732
-0.0344981
0.0402237
-0.0397907
0.0419616
-0.0420854
0.0434778
-0.0378116
0.0451934
-0.0231352
0.0472933
-0.000371458
0.0500569
0.0204907
0.053124
0.0238198
0.0563441
0.000337204
0.0584736
-0.028221
0.0599285
-0.0702836
-0.052541
0.0130442
-0.0167275
0.0163019
-0.0231485
0.0199306
-0.0250869
0.0236175
-0.0258753
0.0273555
-0.0263089
0.0310059
-0.0267971
0.0344284
-0.0286353
0.0374586
-0.0321535
0.0399586
-0.0369981
0.041863
-0.0416951
0.0432905
-0.0435129
0.0445367
-0.0390578
0.0460439
-0.0246423
0.0480272
-0.00235476
0.0507535
0.0177643
0.0538172
0.0207561
0.0569956
-0.00284118
0.059088
-0.0303134
0.0604489
-0.0716445
-0.0536616
0.0179215
-0.0203245
0.0211195
-0.0263465
0.0244268
-0.0283942
0.0276698
-0.0291183
0.0309216
-0.0295606
0.0340966
-0.0299721
0.0370658
-0.0316046
0.0396769
-0.0347646
0.0418014
-0.0391226
0.0433819
-0.0432756
0.0445352
-0.0446662
0.0455517
-0.0400742
0.0468805
-0.0259711
0.0487567
-0.00423099
0.0514338
0.0150872
0.0544736
0.0177164
0.0576001
-0.00596774
0.0596675
-0.0323807
0.0609662
-0.0729431
-0.0547895
0.0229333
-0.0244827
0.0259364
-0.0293495
0.0287874
-0.0312453
0.0315071
-0.0318379
0.0342281
-0.0322817
0.0369047
-0.0326487
0.0394138
-0.0341137
0.0416134
-0.0369642
0.0433854
-0.0408945
0.0446799
-0.0445701
0.0456086
-0.0455949
0.0464487
-0.0409142
0.0476425
-0.0271649
0.0494336
-0.00602212
0.0520597
0.0124611
0.055064
0.014712
0.0581367
-0.00904037
0.0601971
-0.0344412
0.0614701
-0.0742161
-0.0559653
0.0278172
-0.0288375
0.0304559
-0.0319882
0.0327343
-0.0335236
0.0348811
-0.0339848
0.0370626
-0.0344632
0.0392511
-0.0348372
0.0413224
-0.036185
0.0431425
-0.0387843
0.0446036
-0.0423557
0.045664
-0.0456305
0.0464285
-0.0463595
0.0471553
-0.041641
0.0482685
-0.0282781
0.0500082
-0.00776185
0.0525929
0.00987638
0.0555601
0.0117448
0.0585853
-0.0120656
0.0606631
-0.0365189
0.0619513
-0.0755043
-0.0572318
0.0324022
-0.032817
0.0344316
-0.0340176
0.0360347
-0.0351267
0.0375883
-0.0355384
0.0392526
-0.0361275
0.0409912
-0.0365758
0.0426714
-0.0378651
0.0441636
-0.0402765
0.045371
-0.0435631
0.0462598
-0.0465193
0.0469275
-0.0470272
0.0476098
-0.0423233
0.0487035
-0.0293718
0.050434
-0.00949233
0.0529967
0.00731369
0.055935
0.00880655
0.0589281
-0.0150587
0.0610534
-0.0386442
0.0624011
-0.076852
-0.058633
0.0367595
-0.0357755
0.0377982
-0.0350563
0.0385858
-0.0359143
0.03954
-0.0364926
0.0407166
-0.037304
0.0420511
-0.0379103
0.0433943
-0.0392083
0.0446189
-0.0415011
0.0456371
-0.0445813
0.0464222
-0.0473043
0.047063
-0.0476681
0.0477704
-0.0430308
0.0489066
-0.0305081
0.0506725
-0.0112582
0.0532378
0.00474843
0.0561633
0.00588107
0.0591477
-0.0180431
0.0613581
-0.0408546
0.0628103
-0.0783042
-0.0602163
0.117591
-0.0271118
-0.126255
0.113006
-0.0304708
0.110445
-0.0333536
0.109147
-0.0351945
0.108592
-0.0367488
0.108631
-0.0379493
0.108957
-0.0395344
0.109239
-0.0417834
0.109132
-0.0444748
0.108376
-0.0465475
0.106955
-0.0462472
0.10519
-0.0412659
0.10398
-0.0292984
0.104321
-0.0115993
0.107028
0.00204149
0.111208
0.00170085
0.115289
-0.0221236
0.117427
-0.0429924
0.117163
-0.078041
-0.0600818
0.164993
-0.0164705
-0.175635
0.156752
-0.0222296
0.151052
-0.0276532
0.147202
-0.0313443
0.144517
-0.0340642
0.142727
-0.0361593
0.141447
-0.0382544
0.140291
-0.0406277
0.138885
-0.0430683
0.136953
-0.0446161
0.134475
-0.0437683
0.131768
-0.0385597
0.129775
-0.0273052
0.129561
-0.0113853
0.131936
-0.000333232
0.135867
-0.00222998
0.139505
-0.0257622
0.141079
-0.0445655
0.139791
-0.0767531
-0.0592191
0.216357
-0.00585888
-0.226969
0.207324
-0.0131964
0.199698
-0.0200275
0.193659
-0.025305
0.188846
-0.0292513
0.185023
-0.0323362
0.181842
-0.0350731
0.178923
-0.0377088
0.175906
-0.0400512
0.17254
-0.0412503
0.168823
-0.0400516
0.165082
-0.0348181
0.162251
-0.0244742
0.161386
-0.0105208
0.163189
-0.00213657
0.166494
-0.00553451
0.16921
-0.0284787
0.169802
-0.045157
0.167092
-0.0740426
-0.0573409
0.268017
0.00258221
-0.276458
0.260264
-0.00544344
0.252678
-0.012442
0.245783
-0.0184101
0.239691
-0.0231593
0.234329
-0.0269736
0.229485
-0.0302291
0.224881
-0.033105
0.220248
-0.0354182
0.215424
-0.0364259
0.210478
-0.0351063
0.205776
-0.0301159
0.202212
-0.0209097
0.200728
-0.00903711
0.201771
-0.00317972
0.204046
-0.00780949
0.205287
-0.0297197
0.204417
-0.0442872
0.199858
-0.069483
-0.0541409
0.317763
0.00779532
-0.322976
0.312268
5.20372e-05
0.306251
-0.0064259
0.300007
-0.0121653
0.293899
-0.0170512
0.288033
-0.0211082
0.282336
-0.0245317
0.276659
-0.0274281
0.270871
-0.0296302
0.264951
-0.0305057
0.259094
-0.0292497
0.25375
-0.0247717
0.249762
-0.0169215
0.247878
-0.00715313
0.248127
-0.00342894
0.24908
-0.00876278
0.248358
-0.0289975
0.245577
-0.0415066
0.238814
-0.0627196
-0.0493354
0.366599
0.00984694
-0.368651
0.363382
0.00326917
0.359337
-0.00238072
0.354539
-0.00736776
0.3493
-0.011812
0.343834
-0.015642
0.338169
-0.0188671
0.332252
-0.0215106
0.326062
-0.02344
0.319711
-0.024155
0.313524
-0.0230624
0.308053
-0.0193011
0.304098
-0.0129667
0.302194
-0.00524852
0.301839
-0.00307452
0.301451
-0.00837471
0.298549
-0.0260959
0.293601
-0.036558
0.28449
-0.0536092
-0.0427383
0.417531
0.0094553
-0.417139
0.416242
0.00455853
0.413874
-1.30598e-05
0.410543
-0.00403648
0.406407
-0.00767632
0.401683
-0.0109178
0.396488
-0.0136722
0.39085
-0.0158734
0.384827
-0.0174164
0.378619
-0.0179467
0.37263
-0.0170734
0.367488
-0.0141599
0.363942
-0.00942051
0.362367
-0.0036731
0.361743
-0.0024505
0.36032
-0.00695207
0.355455
-0.0212305
0.348429
-0.0295325
0.337165
-0.0423456
-0.0343401
0.473984
0.0073708
-0.471899
0.474305
0.00423708
0.473285
0.00100748
0.47114
-0.00189161
0.467973
-0.00450991
0.463941
-0.00688599
0.459212
-0.00894253
0.453908
-0.0105694
0.448164
-0.0116725
0.442248
-0.0120307
0.436601
-0.0114263
0.431882
-0.00944145
0.428768
-0.00630623
0.427569
-0.0024738
0.426902
-0.00178351
0.424894
-0.00494401
0.418634
-0.0149706
0.409959
-0.0208574
0.397041
-0.0294282
-0.0243213
0.53979
0.00411944
-0.536539
0.541423
0.00260399
0.541524
0.000906655
0.540293
-0.000660593
0.537855
-0.00207189
0.534329
-0.00335957
0.52988
-0.00449443
0.524706
-0.00539533
0.519029
-0.00599519
0.513184
-0.00618562
0.507636
-0.00587791
0.503057
-0.00486318
0.500046
-0.00329524
0.498927
-0.00135398
0.498164
-0.00102091
0.495848
-0.00262805
0.488737
-0.00785993
0.478877
-0.0109968
0.464787
-0.0153381
-0.0129054
0.620165
-0.616045
0.622769
0.623676
0.623015
0.620943
0.617583
0.613089
0.607694
0.601699
0.595513
0.589635
0.584772
0.581477
0.580123
0.579102
0.576474
0.568614
0.557617
0.542279
0.167516
0.022909
-0.166545
0.167706
0.0284849
0.166933
0.0337533
0.16501
0.038581
0.16177
0.0428268
0.157097
0.0463554
0.150977
0.0490568
0.143542
0.0508748
0.135153
0.0517804
0.0515587
0.19178
0.0209431
-0.189814
0.193432
0.0268325
0.194623
0.0325627
0.19518
0.038024
0.194916
0.0430908
0.193643
0.0476287
0.191191
0.051508
0.187438
0.0546286
0.18226
0.056958
0.058184
0.217514
0.0184234
-0.214994
0.220149
0.0241976
0.222804
0.0299075
0.225347
0.0354809
0.227604
0.0408338
0.229361
0.0458714
0.230379
0.0504902
0.230428
0.0545803
0.229327
0.0580583
0.0605423
0.246045
0.0157595
-0.243381
0.249102
0.0211411
0.252509
0.0265009
0.256197
0.0317928
0.260067
0.0369631
0.26399
0.0419489
0.267802
0.0466782
0.271312
0.0510702
0.274312
0.0550582
0.0583963
0.278436
0.0130981
-0.275775
0.281668
0.0179088
0.285462
0.022707
0.289796
0.0274594
0.294629
0.0321302
0.299898
0.0366796
0.305511
0.0410647
0.311344
0.0452373
0.317252
0.0491503
0.0526724
0.315486
0.0104685
-0.312856
0.318819
0.014575
0.322856
0.01867
0.327588
0.0227275
0.332998
0.0267204
0.339057
0.0306204
0.345724
0.0343981
0.352938
0.0380227
0.360627
0.0414617
0.0446488
0.358102
0.00787841
-0.355512
0.361518
0.0111595
0.365757
0.0144303
0.370815
0.0176696
0.376679
0.0208561
0.383332
0.0239681
0.390746
0.026984
0.398887
0.0298819
0.407709
0.0326395
0.0352184
0.407693
0.00531228
-0.405126
0.411207
0.00764508
0.415667
0.00997019
0.421065
0.0122721
0.427385
0.0145354
0.434609
0.0167443
0.44271
0.0188834
0.451654
0.0209376
0.461402
0.0228915
0.0247214
0.466388
0.00272015
-0.463796
0.470064
0.00396911
0.47482
0.00521453
0.480644
0.00644779
0.487519
0.00766024
0.49542
0.00884323
0.504315
0.00998826
0.514166
0.011087
0.524926
0.0121311
0.0131089
0.537595
-0.534875
0.541564
0.546779
0.553227
0.560887
0.56973
0.579718
0.590805
0.602937
0.143369
-0.0301803
-0.14101
0.146216
-0.0264365
0.149175
-0.0218099
0.152148
-0.0168126
0.155061
-0.011525
0.15787
-0.00603202
0.160514
-0.000370712
0.162912
0.00541617
0.164963
0.0112707
0.0171226
0.170784
-0.0318477
-0.169117
0.1726
-0.0282528
0.174525
-0.0237341
0.176557
-0.0188447
0.178677
-0.0136454
0.180872
-0.00822714
0.183126
-0.00262418
0.185405
0.00313722
0.187658
0.00901751
0.0149664
0.202098
-0.0323012
-0.201644
0.202741
-0.0288962
0.203518
-0.0245112
0.204466
-0.019792
0.205627
-0.0148069
0.20702
-0.00961986
0.208654
-0.00425863
0.210535
0.00125651
0.212655
0.00689725
0.0126277
0.237171
-0.0314517
-0.238021
0.236509
-0.0282344
0.236114
-0.0241158
0.236018
-0.0196961
0.236267
-0.0150562
0.236887
-0.0102399
0.237895
-0.00526651
0.239307
-0.000154975
0.241134
0.00507007
0.01038
0.275955
-0.0292962
-0.27811
0.274028
-0.0263075
0.272507
-0.0225946
0.271435
-0.0186239
0.270844
-0.0144656
0.270757
-0.0101527
0.271191
-0.00570039
0.272162
-0.0011266
0.273686
0.00354584
0.0082917
0.319042
-0.0258531
-0.322485
0.31594
-0.0232054
0.313369
-0.0200239
0.311379
-0.0166341
0.309998
-0.013084
0.309244
-0.00939878
0.309136
-0.00559289
0.309693
-0.00168317
0.310929
0.00230998
0.00636442
0.367479
-0.0211582
-0.372174
0.363266
-0.0189923
0.359699
-0.0164575
0.356828
-0.0137626
0.35468
-0.0109363
0.353278
-0.00799677
0.352643
-0.00495763
0.352794
-0.00183381
0.353746
0.00135765
0.00459842
0.4227
-0.0152606
-0.428597
0.417419
-0.013712
0.412891
-0.0119289
0.409161
-0.0100325
0.406263
-0.00803852
0.404225
-0.00595926
0.403073
-0.00380557
0.402829
-0.00158906
0.403509
0.000677538
0.0029806
0.486834
-0.00819922
-0.493896
0.480505
-0.0073827
0.475023
-0.00644698
0.47044
-0.00544896
0.466797
-0.0043956
0.464131
-0.00329336
0.462474
-0.00214851
0.461852
-0.000967685
0.462288
0.000241945
0.00147276
0.563244
-0.571443
0.555861
0.549414
0.543966
0.53957
0.536277
0.534128
0.53316
0.533402
0.126776
0.00230868
-0.00221661
0.126517
0.00699937
-0.00674072
0.126099
0.0120951
-0.0116771
0.125523
0.017977
-0.0174014
0.124844
0.0250058
-0.0243265
0.124118
0.0342308
-0.0335045
0.123805
0.0455458
-0.0452329
0.124071
0.0632692
-0.0635358
0.128789
0.0812404
-0.0859584