/*--------------------------------*- C++ -*----------------------------------*\
  =========                 |
  \\      /  F ield         | OpenFOAM: The Open Source CFD Toolbox
   \\    /   O peration     | Website:  https://openfoam.org
    \\  /    A nd           | Version:  6.0
     \\/     M anipulation  |
\*---------------------------------------------------------------------------*/
FoamFile
{
    version     2.0;
    format      ascii;
    class       volScalarField;
    location    "21.5";
    object      p;
}
// * * * * * * * * * * * * * * * * * * * * * * * * * * * * * * * * * * * * * //

dimensions      [0 2 -2 0 0 0 0];

internalField   nonuniform List<scalar> 
2400
(
-40.2931
-32.5524
-27.6469
-23.9012
-20.641
-17.8602
-15.5271
-13.5643
-11.8959
-10.4774
-42.0875
-34.1536
-29.032
-25.0937
-21.6778
-18.7763
-16.3506
-14.315
-12.5869
-11.1221
-43.8427
-35.7101
-30.3707
-26.2412
-22.6731
-19.6557
-17.1421
-15.0376
-13.2532
-11.7465
-45.5411
-37.2081
-31.6506
-27.3324
-23.6162
-20.4874
-17.8902
-15.7212
-13.8857
-12.3448
-47.1659
-38.633
-32.86
-28.3572
-24.4984
-21.2629
-18.5856
-16.3548
-14.4723
-12.9044
-48.7025
-39.9714
-33.9864
-29.3055
-25.3119
-21.9777
-19.2263
-16.9365
-15.0073
-13.41
-50.1413
-41.2114
-35.0165
-30.1626
-26.0428
-22.6216
-19.8096
-17.4718
-15.5004
-13.8712
-51.4794
-42.3463
-35.9391
-30.9119
-26.6671
-23.1631
-20.3002
-17.9324
-15.949
-14.3395
-52.7166
-43.3756
-36.7528
-31.5482
-27.1687
-23.5637
-20.6259
-18.2152
-16.2571
-14.7903
-53.8423
-44.3011
-37.4682
-32.0875
-27.5658
-23.8351
-20.7728
-18.2476
-16.2398
-14.8239
-59.845
-59.7045
-59.429
-59.0396
-58.5524
-57.9736
-57.3087
-56.5625
-55.7383
-54.8353
-48.7383
-48.7088
-48.567
-48.3252
-47.9919
-47.5732
-47.0748
-46.5005
-45.8518
-45.1226
-40.6307
-40.6576
-40.5938
-40.4464
-40.2202
-39.9218
-39.5584
-39.1337
-38.6484
-38.0971
-34.4713
-34.5028
-34.4595
-34.3466
-34.169
-33.9344
-33.6517
-33.3261
-32.9616
-32.5533
-29.5134
-29.5257
-29.474
-29.3629
-29.199
-28.9903
-28.7492
-28.4827
-28.2014
-27.9006
-25.5231
-25.5109
-25.4418
-25.3201
-25.1543
-24.9514
-24.729
-24.4948
-24.272
-24.0533
-22.2786
-22.2444
-22.1581
-22.0235
-21.8498
-21.6416
-21.4239
-21.2038
-21.0264
-20.8711
-19.586
-19.5354
-19.4362
-19.2916
-19.1095
-18.89
-18.6651
-18.4408
-18.3055
-18.206
-17.3052
-17.2449
-17.1401
-16.9933
-16.809
-16.5808
-16.341
-16.0897
-15.983
-15.9707
-15.3689
-15.2937
-15.1806
-15.033
-14.8494
-14.6184
-14.3586
-14.0588
-13.8944
-13.9773
-53.1469
-54.4657
-55.6457
-56.6916
-57.5953
-58.3481
-58.9458
-59.3907
-59.6874
-59.8355
-42.0077
-43.2408
-44.3628
-45.3663
-46.2431
-46.9878
-47.5989
-48.0784
-48.4269
-48.6451
-34.406
-35.5131
-36.5264
-37.4329
-38.2262
-38.9052
-39.4711
-39.9255
-40.2674
-40.5015
-29.034
-30.0126
-30.9037
-31.6939
-32.381
-32.9678
-33.4573
-33.8502
-34.1467
-34.3534
-24.8817
-25.751
-26.5295
-27.208
-27.7922
-28.2883
-28.6981
-29.0225
-29.2634
-29.427
-21.5948
-22.3851
-23.0687
-23.647
-24.1408
-24.5579
-24.8971
-25.1594
-25.3489
-25.4702
-18.9161
-19.6571
-20.2665
-20.7604
-21.1789
-21.5301
-21.8099
-22.0208
-22.1678
-22.254
-16.6855
-17.3683
-17.9146
-18.3464
-18.7074
-19.0041
-19.235
-19.4061
-19.5217
-19.5823
-14.9389
-15.4598
-15.897
-16.2884
-16.6095
-16.8539
-17.0392
-17.1787
-17.2719
-17.3154
-13.8856
-14.1385
-14.2931
-14.6313
-14.9208
-15.0972
-15.2182
-15.3144
-15.3784
-15.3989
-7.14305
-8.19696
-9.45998
-10.9282
-12.6706
-14.8149
-17.5499
-21.1926
-26.8551
-36.3064
-7.69238
-8.81603
-10.1477
-11.6977
-13.5403
-15.8067
-18.6922
-22.5199
-28.3982
-38.0511
-8.24912
-9.44321
-10.8443
-12.4783
-14.4234
-16.8144
-19.8528
-23.8674
-29.9595
-39.8047
-8.81575
-10.0794
-11.5491
-13.2678
-15.3166
-17.8334
-21.0256
-25.2279
-31.533
-41.5671
-9.38854
-10.7225
-12.2613
-14.0657
-16.2185
-18.8606
-22.2062
-26.5949
-33.1103
-43.3288
-9.97135
-11.3736
-12.9796
-14.8689
-17.1248
-19.8912
-23.3885
-27.9609
-34.6815
-45.0771
-10.5705
-12.0448
-13.715
-15.6837
-18.0371
-20.9231
-24.5674
-29.318
-36.2362
-46.7995
-11.1979
-12.7346
-14.4565
-16.4975
-18.9454
-21.9475
-25.7338
-30.6556
-37.7624
-48.4832
-11.9216
-13.4986
-15.2306
-17.3217
-19.8522
-22.9599
-26.8778
-31.9609
-39.2464
-50.1145
-12.7671
-14.2477
-15.961
-18.1207
-20.7386
-23.9444
-27.9843
-33.2177
-40.6693
-51.6772
-2.64717
-3.03989
-3.64912
-4.43289
-5.37767
-6.54865
-8.06636
-10.1504
-13.8521
-21.2797
-3.02866
-3.48506
-4.16371
-4.99187
-5.97784
-7.20476
-8.80167
-10.997
-14.8515
-22.4522
-3.32339
-3.88786
-4.64963
-5.54353
-6.59577
-7.90025
-9.5938
-11.9155
-15.935
-23.713
-3.69593
-4.32896
-5.15299
-6.11229
-7.23954
-8.63287
-10.4353
-12.8968
-17.0957
-25.0636
-4.12968
-4.81263
-5.69237
-6.7163
-7.92073
-9.40752
-11.3261
-13.937
-18.3268
-26.4949
-4.58743
-5.32385
-6.26297
-7.35465
-8.63971
-10.2245
-12.2656
-15.0335
-19.6223
-27.9967
-5.06133
-5.85743
-6.85924
-8.02201
-9.39204
-11.0803
-13.2501
-16.1823
-20.9766
-29.5609
-5.55589
-6.4142
-7.47973
-8.71578
-10.1744
-11.971
-14.2755
-17.3784
-22.384
-31.181
-6.0711
-6.99253
-8.12243
-9.43365
-10.984
-12.893
-15.3372
-18.6165
-23.8386
-32.8506
-6.60235
-7.58868
-8.78421
-10.1727
-11.8176
-13.8426
-16.4306
-19.8904
-25.3325
-34.563
-1.87853
-1.39726
-1.10899
-0.893146
-0.746893
-0.65262
-0.609901
-0.615622
-0.669473
-0.7707
-2.49348
-2.05284
-1.72382
-1.47933
-1.31232
-1.20539
-1.15651
-1.16157
-1.2195
-1.32896
-3.12524
-2.70844
-2.3673
-2.10784
-1.92593
-1.81039
-1.75833
-1.76555
-1.83042
-1.95118
-3.89867
-3.4625
-3.10185
-2.82352
-2.6237
-2.49615
-2.43787
-2.44501
-2.51546
-2.6472
-4.82224
-4.35168
-3.96105
-3.6562
-3.43379
-3.29008
-3.22217
-3.22662
-3.30105
-3.44328
-5.95252
-5.43742
-5.00687
-4.66639
-4.4143
-4.24824
-4.16552
-4.16307
-4.23832
-4.38905
-7.40376
-6.82571
-6.33873
-5.94774
-5.65269
-5.45223
-5.34403
-5.32526
-5.3933
-5.54598
-9.38775
-8.71611
-8.14406
-7.67653
-7.31461
-7.0576
-6.90353
-6.84993
-6.89429
-7.03443
-12.9417
-12.1309
-11.4312
-10.8481
-10.3828
-10.0347
-9.80238
-9.68399
-9.67739
-9.77886
-20.1827
-19.2011
-18.3471
-17.6229
-17.0289
-16.5643
-16.2279
-16.0193
-15.9363
-15.9704
-0.918244
-1.11048
-1.34564
-1.62089
-1.93169
-2.26954
-2.61838
-2.95928
-3.28576
-3.62002
-1.48862
-1.69652
-1.95047
-2.24709
-2.58149
-2.94729
-3.3349
-3.7248
-4.09656
-4.50895
-2.12624
-2.35335
-2.63015
-2.95321
-3.31789
-3.71878
-4.14865
-4.59418
-5.04686
-5.54767
-2.83836
-3.08642
-3.38893
-3.74258
-4.14327
-4.58618
-5.06494
-5.57141
-6.10665
-6.69581
-3.6512
-3.92205
-4.25343
-4.64228
-5.08505
-5.57753
-6.11437
-6.69088
-7.31082
-7.98868
-4.61302
-4.90724
-5.26948
-5.69697
-6.18666
-6.73497
-7.33794
-7.993
-8.70331
-9.47648
-5.78101
-6.09499
-6.48599
-6.95149
-7.48895
-8.09549
-8.76829
-9.5061
-10.3109
-11.1864
-7.26766
-7.58975
-7.99947
-8.49474
-9.07343
-9.73319
-10.4722
-11.29
-12.1882
-13.1683
-9.9827
-10.2869
-10.6915
-11.195
-11.7953
-12.4907
-13.2803
-14.1652
-15.1473
-16.2247
-16.1059
-16.3564
-16.7226
-17.2014
-17.7907
-18.4893
-19.2981
-20.2207
-21.2597
-22.4049
-23.6322
-17.3901
-14.2284
-12.1321
-10.3135
-8.72934
-7.3564
-6.15222
-5.10452
-4.23608
-24.9647
-18.641
-15.3623
-13.1424
-11.2074
-9.52101
-8.06402
-6.79823
-5.7113
-4.79376
-26.4017
-19.976
-16.5662
-14.2124
-12.1532
-10.3595
-8.81493
-7.48012
-6.33134
-5.34227
-27.934
-21.3892
-17.8335
-15.3351
-13.1438
-11.2366
-9.59915
-8.18909
-6.9758
-5.92983
-29.5515
-22.8717
-19.1562
-16.5026
-14.1717
-12.1459
-10.4114
-8.92268
-7.64301
-6.54002
-31.2425
-24.4131
-20.5248
-17.7063
-15.229
-13.0802
-11.2458
-9.67693
-8.33096
-7.17246
-32.9948
-26.0017
-21.9283
-18.9362
-16.3072
-14.0324
-12.0967
-10.4467
-9.03378
-7.8191
-34.796
-27.6254
-23.3551
-20.1817
-17.3971
-14.9948
-12.9576
-11.2271
-9.74793
-8.47854
-36.6306
-29.2704
-24.7927
-21.4319
-18.4891
-15.9593
-13.8215
-12.0118
-10.4679
-9.14641
-38.4741
-30.9196
-26.2283
-22.6759
-19.5741
-16.9176
-14.6809
-12.7937
-11.1869
-9.81609
-6.79428
-3.17176
-1.52859
-0.680436
-0.202583
0.00639348
0.0797351
0.0846394
0.0608888
0.0290103
-0.00175768
-0.0272059
-0.0458578
-0.0602476
-0.0677223
-0.0749928
-0.0749474
-0.0697812
-0.057575
-0.022975
-7.36378
-3.5515
-1.7236
-0.808386
-0.292889
-0.0538058
0.0377839
0.0550321
0.0400391
0.0145096
-0.0116863
-0.0338651
-0.050247
-0.0630357
-0.0695178
-0.0760509
-0.0755377
-0.0700135
-0.057421
-0.0226768
-7.93019
-3.95373
-1.93863
-0.941532
-0.384592
-0.113753
-0.00281553
0.0268833
0.0204312
0.00095953
-0.0209362
-0.0400665
-0.0543391
-0.0656379
-0.0711993
-0.0770337
-0.0760834
-0.0702026
-0.0572337
-0.0223698
-8.49896
-4.3661
-2.15865
-1.07169
-0.474296
-0.172752
-0.042144
2.80876e-05
0.00192598
-0.0117379
-0.0295713
-0.04585
-0.0581587
-0.0680686
-0.0727753
-0.0779454
-0.0765875
-0.0703516
-0.057014
-0.022057
-9.04614
-4.74771
-2.355
-1.18611
-0.557217
-0.229449
-0.0799636
-0.0255573
-0.0155548
-0.0236542
-0.0376434
-0.0512494
-0.0617271
-0.0703407
-0.0742529
-0.0787909
-0.0770521
-0.0704629
-0.0567651
-0.0217406
-9.51767
-5.07586
-2.53248
-1.29449
-0.638499
-0.285574
-0.116782
-0.0500437
-0.0321055
-0.034855
-0.0451971
-0.0562939
-0.065063
-0.0724655
-0.0756383
-0.0795746
-0.0774791
-0.0705393
-0.0564896
-0.0214223
-9.95631
-5.48013
-2.7981
-1.45762
-0.744599
-0.350736
-0.155937
-0.0746321
-0.048205
-0.0455602
-0.0523453
-0.061045
-0.0682001
-0.0744623
-0.0769423
-0.0803046
-0.0778741
-0.070587
-0.0561934
-0.0211047
-10.6662
-6.22493
-3.29566
-1.74081
-0.902441
-0.436431
-0.202553
-0.101576
-0.0648744
-0.0562688
-0.0593484
-0.0656437
-0.0712143
-0.0763734
-0.0781882
-0.0809996
-0.0782534
-0.0706219
-0.0558901
-0.0207928
-11.732
-7.17553
-3.89154
-2.05518
-1.06969
-0.528339
-0.252556
-0.129679
-0.08177
-0.0668987
-0.0661959
-0.0700968
-0.0741158
-0.0782067
-0.0793822
-0.0816616
-0.0786182
-0.0706466
-0.0555832
-0.0204895
-11.7296
-7.28135
-3.97843
-2.08846
-1.10429
-0.566112
-0.280179
-0.147449
-0.0934874
-0.0747329
-0.0714372
-0.073604
-0.0764774
-0.0797206
-0.08039
-0.0821732
-0.0788485
-0.0705512
-0.055178
-0.0201666
-9.97413
-6.51914
-3.57309
-1.85817
-1.01058
-0.54693
-0.282269
-0.152589
-0.0985964
-0.0789901
-0.0746941
-0.0760389
-0.078351
-0.0809897
-0.0813045
-0.0824838
-0.0787871
-0.0700693
-0.0543159
-0.019639
-8.09727
-5.64306
-3.21203
-1.69499
-0.952185
-0.55443
-0.310955
-0.179088
-0.119156
-0.0941343
-0.0852476
-0.0831098
-0.083034
-0.0838715
-0.0831438
-0.0832706
-0.0789095
-0.0695034
-0.053182
-0.0189013
-6.42791
-4.76106
-2.86804
-1.56012
-0.893112
-0.548802
-0.332767
-0.203782
-0.139442
-0.109771
-0.0965532
-0.0908307
-0.0881626
-0.0870082
-0.0851048
-0.0840481
-0.0789139
-0.0687222
-0.0518013
-0.0180451
-4.8687
-3.83616
-2.48835
-1.44223
-0.850399
-0.541621
-0.350148
-0.226832
-0.158699
-0.124536
-0.107333
-0.0982633
-0.093116
-0.0900188
-0.0869476
-0.0846368
-0.0786721
-0.0676473
-0.0501417
-0.0170967
-3.62256
-3.00624
-2.10321
-1.30819
-0.801178
-0.525618
-0.358632
-0.24556
-0.176188
-0.138192
-0.117416
-0.105294
-0.0978008
-0.0928356
-0.0886017
-0.0849844
-0.0781475
-0.0662719
-0.0482297
-0.0160838
-2.68192
-2.2971
-1.71686
-1.16067
-0.760997
-0.517669
-0.365136
-0.26018
-0.191241
-0.150327
-0.126464
-0.111681
-0.102051
-0.0953542
-0.0899769
-0.0850443
-0.0773219
-0.0646179
-0.0461258
-0.0150404
-2.02466
-1.77312
-1.40846
-1.03179
-0.722095
-0.506258
-0.36475
-0.268482
-0.202739
-0.160479
-0.134142
-0.117126
-0.105652
-0.0974365
-0.0909737
-0.0847898
-0.0762156
-0.062757
-0.0439368
-0.0140148
-1.61308
-1.42836
-1.18248
-0.918266
-0.680204
-0.495759
-0.365796
-0.275355
-0.211828
-0.1686
-0.140227
-0.121389
-0.108426
-0.0989756
-0.0915434
-0.084264
-0.0749294
-0.0608439
-0.0418294
-0.0130761
-1.37619
-1.22342
-1.0385
-0.838861
-0.648266
-0.487685
-0.36586
-0.278512
-0.216732
-0.173631
-0.144263
-0.124265
-0.110272
-0.0999399
-0.0917362
-0.0836204
-0.0736759
-0.0591462
-0.0400354
-0.0123262
-1.26382
-1.12511
-0.967116
-0.796963
-0.629603
-0.482258
-0.365695
-0.280239
-0.219435
-0.176488
-0.146563
-0.125851
-0.111242
-0.100406
-0.091723
-0.0831353
-0.0728013
-0.0580591
-0.0388732
-0.0119039
-12.719
-12.5747
-12.4012
-12.209
-11.9797
-11.7145
-11.3742
-10.9975
-10.5633
-10.4862
-9.63541
-9.44783
-9.2402
-9.02646
-8.79173
-8.55207
-8.29144
-8.10054
-7.98219
-8.19508
-7.12845
-6.97727
-6.82335
-6.68197
-6.55463
-6.45973
-6.39141
-6.37443
-6.36608
-6.46661
-5.25989
-5.17184
-5.09054
-5.02221
-4.96497
-4.91726
-4.86258
-4.80293
-4.73927
-4.76835
-3.89669
-3.84482
-3.79366
-3.74167
-3.68684
-3.63004
-3.5729
-3.52717
-3.50317
-3.53082
-2.92887
-2.89345
-2.85672
-2.81876
-2.7813
-2.74689
-2.71694
-2.69185
-2.6718
-2.66393
-2.2903
-2.26743
-2.24284
-2.21661
-2.18914
-2.1607
-2.13134
-2.10126
-2.07252
-2.04829
-1.88754
-1.87056
-1.85092
-1.82879
-1.80448
-1.77838
-1.75092
-1.72251
-1.69393
-1.66567
-1.65022
-1.63631
-1.61962
-1.60033
-1.57869
-1.55494
-1.52935
-1.50215
-1.47368
-1.44426
-1.53608
-1.52359
-1.50835
-1.49048
-1.47016
-1.44756
-1.42287
-1.3963
-1.36804
-1.33832
-12.8285
-13.1875
-12.5501
-12.6416
-12.8816
-12.9377
-12.9138
-12.8955
-12.8737
-12.8213
-11.1879
-11.3591
-10.2834
-9.96537
-10.1349
-10.2011
-10.1121
-9.99897
-9.89982
-9.78796
-9.07172
-9.03249
-7.90147
-7.41995
-7.53395
-7.67163
-7.63326
-7.51033
-7.38562
-7.26477
-6.85158
-6.77468
-5.85801
-5.40231
-5.46297
-5.62083
-5.64415
-5.55918
-5.45015
-5.35147
-4.92168
-4.89713
-4.31249
-3.97598
-3.98324
-4.09533
-4.13675
-4.09409
-4.02113
-3.95364
-3.45257
-3.47552
-3.19193
-3.00267
-2.9846
-3.03579
-3.06267
-3.04546
-3.00626
-2.96561
-2.47214
-2.51054
-2.41441
-2.34071
-2.32834
-2.3453
-2.35629
-2.35029
-2.33305
-2.31208
-1.90193
-1.93972
-1.92578
-1.91119
-1.91116
-1.91831
-1.92283
-1.92087
-1.91327
-1.90184
-1.61097
-1.64426
-1.65508
-1.65989
-1.66558
-1.67118
-1.67422
-1.67351
-1.66905
-1.66119
-1.4864
-1.51691
-1.53254
-1.54128
-1.54811
-1.55343
-1.55623
-1.55589
-1.55235
-1.5457
0.324786
0.293055
0.218977
0.078645
-0.157192
-0.564057
-1.23411
-2.40772
-4.33861
-8.51607
0.203646
0.169347
0.0929487
-0.0515645
-0.290568
-0.704471
-1.36457
-2.5559
-4.35232
-7.94757
0.0737387
0.0387498
-0.0355407
-0.176456
-0.400012
-0.793612
-1.3706
-2.45271
-3.9018
-6.57901
-0.0625375
-0.097663
-0.167753
-0.301721
-0.498927
-0.855382
-1.31764
-2.18414
-3.28583
-5.11324
-0.201457
-0.235746
-0.300177
-0.423636
-0.593094
-0.893635
-1.26307
-1.87051
-2.68377
-3.82774
-0.338252
-0.369171
-0.427648
-0.533807
-0.681711
-0.909592
-1.21262
-1.60042
-2.16209
-2.83946
-0.466408
-0.490901
-0.543237
-0.627767
-0.755655
-0.91656
-1.15317
-1.40064
-1.7603
-2.15392
-0.576705
-0.594562
-0.638944
-0.704554
-0.807664
-0.923837
-1.09409
-1.26489
-1.49086
-1.72751
-0.659648
-0.673517
-0.709048
-0.761512
-0.840657
-0.931807
-1.05357
-1.18255
-1.33583
-1.49634
-0.707217
-0.719499
-0.748891
-0.79393
-0.858577
-0.937175
-1.03448
-1.14214
-1.26279
-1.39195
1.1092
1.09325
1.05303
0.970142
0.816158
0.536849
0.0601489
-0.7636
-2.11377
-4.5381
1.02404
1.00641
0.962148
0.873221
0.711623
0.421331
-0.0701835
-0.917911
-2.31848
-4.85928
0.940714
0.921488
0.873375
0.778583
0.609464
0.308275
-0.198532
-1.07047
-2.52013
-5.17606
0.859379
0.838645
0.786917
0.686456
0.509899
0.197873
-0.324651
-1.22153
-2.72182
-5.49376
0.780158
0.75803
0.702946
0.597022
0.413092
0.0901988
-0.44852
-1.37103
-2.9232
-5.80368
0.703145
0.679755
0.621595
0.51042
0.31916
-0.0147443
-0.570305
-1.51933
-3.12869
-6.11432
0.628421
0.603926
0.542974
0.42675
0.228179
-0.116998
-0.6901
-1.66583
-3.33257
-6.40627
0.556054
0.530678
0.467234
0.346124
0.140196
-0.216701
-0.808558
-1.8143
-3.54916
-6.7384
0.486039
0.460054
0.394501
0.268702
0.05528
-0.31406
-0.925357
-1.96413
-3.75153
-7.08975
0.418068
0.39119
0.323664
0.193473
-0.0274767
-0.411109
-1.04815
-2.14487
-4.02616
-7.74874
2.01387
2.01411
2.01688
1.99965
1.92896
1.75219
1.41228
0.852231
-0.137231
-1.76597
1.92251
1.92003
1.91661
1.888
1.79967
1.59534
1.20665
0.586894
-0.450122
-2.17129
1.83101
1.82746
1.82022
1.78527
1.68998
1.48228
1.09384
0.484669
-0.486298
-2.16873
1.73922
1.73471
1.72416
1.68448
1.58513
1.37897
0.998804
0.395587
-0.554989
-2.30312
1.64732
1.6415
1.62719
1.58218
1.47695
1.2662
0.880312
0.248953
-0.750308
-2.59393
1.5556
1.54824
1.52974
1.47861
1.36543
1.14419
0.741595
0.0655237
-1.00042
-2.9152
1.46434
1.45533
1.43246
1.37489
1.25305
1.0193
0.598679
-0.117735
-1.24254
-3.2269
1.37383
1.3631
1.33582
1.27178
1.14147
0.895642
0.459844
-0.287892
-1.46806
-3.5431
1.28431
1.27183
1.24015
1.16973
1.03132
0.774129
0.324994
-0.449259
-1.68706
-3.87249
1.19602
1.1818
1.14579
1.06908
0.922809
0.654537
0.191998
-0.607347
-1.9032
-4.20843
3.93703
3.96512
4.01979
4.09571
4.18179
4.26527
4.33607
4.38904
4.42412
4.44485
3.82802
3.85823
3.91745
4.00037
4.09588
4.19108
4.27531
4.34235
4.39116
4.42606
3.64967
3.68206
3.74587
3.83567
3.94001
4.04566
4.14191
4.22182
4.28094
4.32619
3.43024
3.46338
3.52882
3.62102
3.7282
3.83614
3.93091
4.00101
4.04314
4.07895
3.19175
3.22362
3.28646
3.37396
3.47286
3.56695
3.63985
3.67705
3.67518
3.67645
2.95104
2.97976
3.03608
3.11259
3.19449
3.26388
3.29866
3.27
3.17483
3.1059
2.72
2.74422
2.79122
2.85173
2.90791
2.93914
2.9192
2.80345
2.5798
2.40186
2.50609
2.52501
2.56115
2.60311
2.62951
2.61585
2.53426
2.3175
1.90931
1.53644
2.31312
2.32657
2.35112
2.37226
2.36488
2.29769
2.14114
1.81804
1.20464
0.551849
2.14159
2.14942
2.1635
2.16493
2.12414
1.9995
1.75255
1.31076
0.478132
-0.658218
4.45151
4.45373
4.4556
4.45703
4.45799
4.45848
4.45843
4.45777
4.45636
4.45405
4.44787
4.45394
4.45821
4.46136
4.46349
4.46452
4.46436
4.46288
4.45996
4.45538
4.36774
4.38068
4.39065
4.39801
4.40308
4.40581
4.40609
4.40378
4.39871
4.39066
4.13755
4.16103
4.18077
4.19571
4.20638
4.21277
4.21472
4.21205
4.20457
4.19201
3.75078
3.78887
3.8206
3.84476
3.8621
3.87254
3.87589
3.87192
3.86034
3.84082
3.19993
3.26065
3.30922
3.34699
3.37437
3.39114
3.39704
3.39168
3.37463
3.34556
2.51633
2.60355
2.66937
2.72202
2.7602
2.7835
2.79141
2.78349
2.75925
2.71832
1.6619
1.79355
1.88514
1.95834
2.01034
2.04245
2.05435
2.04549
2.01478
1.96114
0.668083
0.843493
0.961081
1.06201
1.1351
1.18167
1.19983
1.18849
1.14584
1.07046
-0.542153
-0.248343
-0.0766059
0.0665385
0.162683
0.2203
0.237877
0.215727
0.152686
0.0482066
4.45064
4.4459
4.43961
4.4315
4.42132
4.40883
4.39378
4.37599
4.35534
4.3317
4.44894
4.44039
4.42943
4.41581
4.39926
4.37957
4.3565
4.32972
4.29884
4.26477
4.37936
4.36452
4.34577
4.32283
4.29552
4.2638
4.22702
4.18301
4.13071
4.08028
4.17408
4.15038
4.12041
4.08396
4.04158
3.99384
3.93772
3.86443
3.77359
3.70748
3.813
3.77629
3.72984
3.6737
3.61036
3.54212
3.46035
3.34053
3.1837
3.09954
3.30424
3.24997
3.18137
3.09852
3.00656
2.9116
2.798
2.61474
2.35705
2.23576
2.66063
2.58532
2.48995
2.37324
2.24145
2.10591
1.94821
1.68777
1.30093
1.11314
1.88412
1.78258
1.65315
1.49239
1.30491
1.10673
0.886904
0.549243
0.0469985
-0.201065
0.96228
0.820986
0.644184
0.428637
0.176598
-0.0941249
-0.375548
-0.749117
-1.2831
-1.51969
-0.0969824
-0.28212
-0.507155
-0.771593
-1.07273
-1.39663
-1.71759
-2.06017
-2.50613
-2.68215
4.26414
4.08504
3.87387
3.61197
3.27976
2.88071
2.4381
1.98159
1.54249
1.14618
0.810635
0.543056
0.34116
0.196482
0.0971055
0.032512
-0.00618707
-0.0255984
-0.0269428
-0.0140107
4.17346
3.96895
3.76711
3.49783
3.14959
2.7415
2.30003
1.85301
1.42962
1.05231
0.737031
0.487747
0.301505
0.168723
0.0780809
0.0198363
-0.0152442
-0.0315152
-0.0314426
-0.016766
3.9755
3.75844
3.56236
3.28041
2.92241
2.5154
2.08563
1.65999
1.26477
0.918813
0.634621
0.412385
0.248665
0.132361
0.053968
0.00393756
-0.0262578
-0.0385125
-0.0368204
-0.0192865
3.63775
3.44698
3.25008
2.97281
2.62936
2.24339
1.84065
1.44819
1.08977
0.781248
0.531444
0.338157
0.197606
0.097809
0.0317184
-0.0107515
-0.0360348
-0.0447118
-0.0417042
-0.0212313
3.11956
3.01829
2.84142
2.60192
2.30171
1.95791
1.5961
1.24475
0.926765
0.656262
0.439414
0.273144
0.15339
0.0683033
0.0130108
-0.0231648
-0.0440042
-0.0498996
-0.0458475
-0.0226975
2.36628
2.43531
2.34115
2.18272
1.95727
1.67638
1.3668
1.06103
0.783683
0.54884
0.361562
0.218889
0.116771
0.0441421
-0.00221712
-0.0332635
-0.0503336
-0.0541446
-0.0491972
-0.0237345
1.3332
1.65201
1.74433
1.72574
1.60836
1.40823
1.15887
0.900462
0.66198
0.459223
0.297529
0.17473
0.0871523
0.0247637
-0.0144016
-0.0413082
-0.0553093
-0.0575442
-0.0517965
-0.0244151
0.0856526
0.705099
1.0878
1.26165
1.27262
1.16079
0.973783
0.761756
0.55933
0.384988
0.245207
0.138997
0.0633425
0.00929598
-0.0241105
-0.0476808
-0.0592201
-0.0602375
-0.053764
-0.0248274
-1.12537
-0.220627
0.489712
0.856543
0.981713
0.946957
0.814617
0.643578
0.472873
0.323166
0.202079
0.109789
0.0440122
-0.00317468
-0.0319176
-0.0527655
-0.0623171
-0.0623681
-0.0552295
-0.0250457
-1.89938
-0.846384
0.109475
0.592834
0.776085
0.787686
0.691083
0.549746
0.403536
0.273398
0.167352
0.0862909
0.0284931
-0.0131566
-0.0381561
-0.0567953
-0.0647287
-0.0639994
-0.0562547
-0.0251021
-2.01151
-1.00386
6.10749e-06
0.513307
0.691683
0.714848
0.630384
0.501782
0.36738
0.247047
0.148706
0.0734606
0.0198642
-0.0188058
-0.0417685
-0.0591431
-0.0660962
-0.0649075
-0.0567265
-0.0250195
-2.14717
-1.06801
-0.126023
0.425378
0.600477
0.6336
0.562974
0.448694
0.327867
0.218897
0.129386
0.0606448
0.0115861
-0.0239905
-0.044953
-0.0611147
-0.0671992
-0.0655794
-0.0570172
-0.0249239
-2.51392
-1.17849
-0.290691
0.320106
0.510213
0.554616
0.498481
0.397464
0.28906
0.190744
0.109767
0.0474911
0.00303203
-0.0293544
-0.0482541
-0.0631416
-0.0683209
-0.0662384
-0.0572593
-0.0247939
-2.96308
-1.30958
-0.455245
0.20151
0.419607
0.476649
0.436693
0.349661
0.25347
0.165193
0.0920347
0.0355967
-0.0047332
-0.0342481
-0.051294
-0.0650149
-0.0693647
-0.06685
-0.0574587
-0.0246403
-3.45917
-1.4774
-0.611635
0.075516
0.330464
0.401552
0.37768
0.304563
0.220179
0.141469
0.0756571
0.024642
-0.0118822
-0.0387569
-0.0541097
-0.0667486
-0.0703341
-0.0674117
-0.0576126
-0.0244631
-3.97338
-1.67668
-0.758317
-0.0537039
0.241619
0.329405
0.321454
0.262046
0.188941
0.119262
0.0603421
0.0144001
-0.0185697
-0.042976
-0.0567546
-0.0683711
-0.0712418
-0.0679257
-0.0577196
-0.0242625
-4.50562
-1.91051
-0.900859
-0.18298
0.152712
0.260193
0.268016
0.222052
0.159715
0.0985352
0.0460535
0.00483689
-0.0248234
-0.0469253
-0.0592412
-0.0698895
-0.0720916
-0.0683923
-0.0577799
-0.0240401
-5.05617
-2.17743
-1.04388
-0.310105
0.0637315
0.193666
0.217298
0.18447
0.132419
0.0792345
0.0327588
-0.00406675
-0.030655
-0.0506125
-0.0615735
-0.0713064
-0.0728849
-0.0688107
-0.0577942
-0.0237978
-5.62789
-2.4794
-1.19315
-0.434495
-0.0250893
0.129491
0.169163
0.149156
0.106937
0.061276
0.0204011
-0.0123474
-0.0360871
-0.0540514
-0.0637585
-0.0726257
-0.0736236
-0.0691811
-0.0577639
-0.0235379
-6.21296
-2.81315
-1.35323
-0.557021
-0.113672
0.0672571
0.123405
0.115942
0.0831397
0.0445669
0.00891721
-0.0200464
-0.0411459
-0.0572579
-0.065805
-0.0738528
-0.07431
-0.0695039
-0.0576905
-0.0232625
)
;

boundaryField
{
    inlet
    {
        type            freestreamPressure;
        freestreamValue uniform 0;
        supersonic      false;
        value           nonuniform List<scalar> 
40
(
0.324786
0.203646
0.0737387
-0.0625375
-0.201457
-0.338252
-0.466408
-0.576705
-0.659648
-0.707217
1.1092
1.02404
0.940714
0.859379
0.780158
0.703145
0.628421
0.556054
0.486039
0.418068
2.01387
1.92251
1.83101
1.73922
1.64732
1.5556
1.46434
1.37383
1.28431
1.19602
3.93703
3.82802
3.64967
3.43024
3.19175
2.95104
2.72
2.50609
2.31312
2.14159
)
;
    }
    outlet
    {
        type            freestreamPressure;
        freestreamValue uniform 0;
        supersonic      false;
        value           nonuniform List<scalar> 
40
(
-9.50774e-05
-0.000102373
-0.000108699
-0.000112826
-0.000112749
-0.00010579
-8.93098e-05
-6.25449e-05
-2.98857e-05
-4.02955e-06
-4.62209e-05
-5.05153e-05
-5.50227e-05
-5.97111e-05
-6.45407e-05
-6.94635e-05
-7.44269e-05
-7.93765e-05
-8.42376e-05
-8.88567e-05
-1.69248e-05
-1.88245e-05
-2.0912e-05
-2.32139e-05
-2.57438e-05
-2.85137e-05
-3.15347e-05
-3.4815e-05
-3.83585e-05
-4.21621e-05
-3.2689e-08
-3.97017e-07
-1.11755e-06
-2.12631e-06
-3.43566e-06
-5.05826e-06
-7.00437e-06
-9.26789e-06
-1.1805e-05
-1.45471e-05
)
;
    }
    top
    {
        type            symmetryPlane;
    }
    bottom
    {
        type            symmetryPlane;
    }
    cylinder
    {
        type            zeroGradient;
    }
    frontandback
    {
        type            empty;
    }
}


// ************************************************************************* //
