/*--------------------------------*- C++ -*----------------------------------*\
  =========                 |
  \\      /  F ield         | OpenFOAM: The Open Source CFD Toolbox
   \\    /   O peration     | Website:  https://openfoam.org
    \\  /    A nd           | Version:  6.0
     \\/     M anipulation  |
\*---------------------------------------------------------------------------*/
FoamFile
{
    version     2.0;
    format      ascii;
    class       volScalarField;
    location    "8.015";
    object      p;
}
// * * * * * * * * * * * * * * * * * * * * * * * * * * * * * * * * * * * * * //

dimensions      [0 2 -2 0 0 0 0];

internalField   nonuniform List<scalar> 
2400
(
-0.410995
-0.397943
-0.389594
-0.382771
-0.376022
-0.36935
-0.362833
-0.356441
-0.35026
-0.345412
-0.422416
-0.408633
-0.399375
-0.391424
-0.383416
-0.375452
-0.367679
-0.360077
-0.35274
-0.347252
-0.437987
-0.422831
-0.412169
-0.402684
-0.393046
-0.383451
-0.37411
-0.364996
-0.356205
-0.350003
-0.458009
-0.440826
-0.428243
-0.41679
-0.405135
-0.393555
-0.382312
-0.371348
-0.360753
-0.353717
-0.482814
-0.462883
-0.447825
-0.43396
-0.419894
-0.405969
-0.392477
-0.37929
-0.36647
-0.358391
-0.512688
-0.489226
-0.47112
-0.454401
-0.437548
-0.420938
-0.404858
-0.389053
-0.373493
-0.364011
-0.547845
-0.520019
-0.498291
-0.478309
-0.458341
-0.438764
-0.419822
-0.401049
-0.382172
-0.370664
-0.588374
-0.555334
-0.529441
-0.505837
-0.482479
-0.459702
-0.437663
-0.41557
-0.392542
-0.377759
-0.634163
-0.595105
-0.564594
-0.53712
-0.510204
-0.484058
-0.458587
-0.432282
-0.402898
-0.381671
-0.684633
-0.639018
-0.603657
-0.572328
-0.542141
-0.513247
-0.485254
-0.455804
-0.420977
-0.39141
-1.15467
-1.13789
-1.1086
-1.06917
-1.02183
-0.96879
-0.912136
-0.853761
-0.795316
-0.738358
-1.05813
-1.04309
-1.01668
-0.98109
-0.938427
-0.890779
-0.840103
-0.788156
-0.736469
-0.686369
-0.975437
-0.964134
-0.941948
-0.910879
-0.872971
-0.830242
-0.784596
-0.73775
-0.691193
-0.646159
-0.897821
-0.891412
-0.874373
-0.848498
-0.815695
-0.777893
-0.736942
-0.694542
-0.652195
-0.611128
-0.822011
-0.820751
-0.809209
-0.788917
-0.761573
-0.728937
-0.69274
-0.654606
-0.616031
-0.578244
-0.750237
-0.753773
-0.747551
-0.732824
-0.711032
-0.683701
-0.652345
-0.618399
-0.583259
-0.548071
-0.68394
-0.691571
-0.690129
-0.680621
-0.664233
-0.642227
-0.615826
-0.58612
-0.55422
-0.520987
-0.623556
-0.634515
-0.637185
-0.632393
-0.621132
-0.60444
-0.583239
-0.55812
-0.529505
-0.49719
-0.568906
-0.582556
-0.588764
-0.588269
-0.581977
-0.57083
-0.555589
-0.53638
-0.512394
-0.479898
-0.519962
-0.534948
-0.543465
-0.546222
-0.544142
-0.538265
-0.52956
-0.518422
-0.504046
-0.47976
-0.443965
-0.578192
-0.702876
-0.815784
-0.914653
-0.997686
-1.06367
-1.11199
-1.14265
-1.15635
-0.394994
-0.520047
-0.636407
-0.741779
-0.834035
-0.9115
-0.97305
-1.01814
-1.04681
-1.0597
-0.329114
-0.446819
-0.557175
-0.657855
-0.746766
-0.822227
-0.883054
-0.9286
-0.95877
-0.974018
-0.260625
-0.370906
-0.475343
-0.571637
-0.657728
-0.731933
-0.792996
-0.840138
-0.873075
-0.892031
-0.198038
-0.300447
-0.398436
-0.489735
-0.572348
-0.64465
-0.705381
-0.753682
-0.789125
-0.811721
-0.144634
-0.239313
-0.330793
-0.416762
-0.495334
-0.565017
-0.624608
-0.673238
-0.710401
-0.735964
-0.100448
-0.187988
-0.273367
-0.354034
-0.428305
-0.494884
-0.552669
-0.600828
-0.638842
-0.666495
-0.063777
-0.144446
-0.224372
-0.300136
-0.370249
-0.43364
-0.489318
-0.536515
-0.574732
-0.603726
-0.0334545
-0.107083
-0.182128
-0.253514
-0.319811
-0.380136
-0.43361
-0.47956
-0.51754
-0.547316
-0.0167099
-0.0856564
-0.155931
-0.222126
-0.283532
-0.339562
-0.389463
-0.432709
-0.468963
-0.498042
0.52305
0.544156
0.566707
0.589843
0.613083
0.635767
0.656922
0.675951
0.698235
0.737516
0.496874
0.515239
0.535309
0.555548
0.575283
0.593785
0.610001
0.623364
0.639596
0.67362
0.463205
0.477855
0.494625
0.511049
0.526204
0.539321
0.549314
0.55575
0.564766
0.592336
0.422345
0.432418
0.445156
0.456917
0.466505
0.473139
0.475752
0.474138
0.474904
0.494896
0.374687
0.379478
0.38757
0.393927
0.397084
0.396287
0.390537
0.379951
0.371636
0.383103
0.320705
0.319711
0.322707
0.323053
0.319072
0.310084
0.295213
0.27498
0.256995
0.25918
0.260958
0.253923
0.25157
0.24547
0.233829
0.216114
0.191618
0.161344
0.133367
0.125722
0.196183
0.183126
0.175392
0.162566
0.142935
0.116196
0.0818539
0.0414445
0.00343665
-0.0143674
0.127183
0.108849
0.0959085
0.0760849
0.0482434
0.0123903
-0.0317527
-0.0820909
-0.129886
-0.157948
0.0524503
0.0317138
0.014042
-0.0127463
-0.0485341
-0.0932011
-0.146769
-0.206514
-0.263618
-0.301952
0.371374
0.374654
0.385033
0.393181
0.399516
0.405782
0.4136
0.425399
0.444165
0.467068
0.420546
0.425139
0.436808
0.448088
0.458371
0.468855
0.480814
0.49634
0.519029
0.548274
0.460149
0.468504
0.482737
0.497508
0.511887
0.526626
0.542688
0.561822
0.588077
0.622941
0.49291
0.505349
0.522465
0.540559
0.558745
0.577456
0.597338
0.61975
0.649046
0.688642
0.519068
0.53522
0.555055
0.576106
0.597631
0.619817
0.642996
0.668122
0.699746
0.743072
0.538343
0.557605
0.579731
0.603193
0.627408
0.652357
0.678079
0.705134
0.738194
0.784127
0.550465
0.572059
0.595868
0.621036
0.64712
0.673929
0.701231
0.729221
0.762663
0.809983
0.555166
0.578182
0.602942
0.628995
0.655994
0.683602
0.711345
0.739108
0.771746
0.81916
0.552229
0.575667
0.600562
0.626598
0.653462
0.680691
0.707603
0.733843
0.7644
0.810578
0.541529
0.564333
0.588497
0.613566
0.639184
0.664779
0.689505
0.712844
0.739971
0.783521
0.325737
0.28026
0.228434
0.176073
0.124181
0.0735124
0.0249014
-0.0211293
-0.0642553
-0.104271
0.330236
0.28192
0.228249
0.173031
0.118275
0.0650355
0.0141548
-0.03373
-0.078181
-0.118927
0.333625
0.279564
0.222265
0.164185
0.107039
0.0518818
-0.000400283
-0.0491082
-0.0937647
-0.134097
0.336098
0.276945
0.215961
0.154913
0.095326
0.0383249
-0.0151596
-0.0644163
-0.108984
-0.148641
0.337727
0.274113
0.209524
0.145519
0.0835877
0.0249214
-0.029533
-0.079092
-0.123354
-0.162191
0.339477
0.271627
0.203506
0.136672
0.0726028
0.0125048
-0.0427031
-0.0924057
-0.136297
-0.174374
0.34303
0.271249
0.199808
0.130317
0.0642484
0.00278269
-0.0532237
-0.103248
-0.147091
-0.184876
0.350992
0.275645
0.201053
0.128887
0.0606178
-0.00260785
-0.0599922
-0.111086
-0.155767
-0.194236
0.365575
0.286017
0.207327
0.131256
0.059312
-0.00733238
-0.067862
-0.121816
-0.169066
-0.209809
0.38187
0.295183
0.20929
0.126101
0.0472488
-0.0259419
-0.0925006
-0.151835
-0.203733
-0.248311
-0.141134
-0.174899
-0.2058
-0.234176
-0.260424
-0.284951
-0.308064
-0.329772
-0.350555
-0.361212
-0.15591
-0.18915
-0.218881
-0.245437
-0.269191
-0.290502
-0.309571
-0.32622
-0.340087
-0.344486
-0.170086
-0.201778
-0.229486
-0.25362
-0.27464
-0.292994
-0.309
-0.322738
-0.334172
-0.34001
-0.183465
-0.213574
-0.239407
-0.261491
-0.280399
-0.296692
-0.310828
-0.323086
-0.333529
-0.340305
-0.195816
-0.224438
-0.248642
-0.269073
-0.286399
-0.301269
-0.314219
-0.325599
-0.335432
-0.342569
-0.207002
-0.234471
-0.257496
-0.276809
-0.293136
-0.30715
-0.3194
-0.330222
-0.339604
-0.346838
-0.217101
-0.244096
-0.266667
-0.285579
-0.301559
-0.315259
-0.327182
-0.337617
-0.346542
-0.353541
-0.227075
-0.254593
-0.27763
-0.296938
-0.313207
-0.327037
-0.338873
-0.348958
-0.357292
-0.363666
-0.24459
-0.273742
-0.298076
-0.318327
-0.33517
-0.349174
-0.36075
-0.370126
-0.37735
-0.382352
-0.285851
-0.317082
-0.342679
-0.363451
-0.380163
-0.39344
-0.403711
-0.411213
-0.41606
-0.418227
-0.417466
-0.38518
-0.368048
-0.358367
-0.351283
-0.345472
-0.339746
-0.331524
-0.316883
-0.303912
-0.415317
-0.386294
-0.370745
-0.361724
-0.35484
-0.348914
-0.34306
-0.335528
-0.324115
-0.316826
-0.411996
-0.386132
-0.372182
-0.363955
-0.357563
-0.352032
-0.346727
-0.340567
-0.332663
-0.329225
-0.408027
-0.385136
-0.372724
-0.365291
-0.359426
-0.354321
-0.349487
-0.34419
-0.33805
-0.335706
-0.404008
-0.383803
-0.372795
-0.366092
-0.360712
-0.355998
-0.351581
-0.346954
-0.34193
-0.339777
-0.400522
-0.38265
-0.372851
-0.366744
-0.361726
-0.35727
-0.353101
-0.348867
-0.344474
-0.342145
-0.398152
-0.382208
-0.373365
-0.36766
-0.362816
-0.358417
-0.354267
-0.350124
-0.345953
-0.343253
-0.397496
-0.383012
-0.374824
-0.369282
-0.364379
-0.359806
-0.355436
-0.351108
-0.346833
-0.343662
-0.399148
-0.38559
-0.377709
-0.372055
-0.366832
-0.361835
-0.357004
-0.352238
-0.347582
-0.343887
-0.403586
-0.390421
-0.38248
-0.376411
-0.370584
-0.364896
-0.359355
-0.353904
-0.348612
-0.34436
-0.336023
-0.280429
-0.247594
-0.205065
-0.173411
-0.143825
-0.118002
-0.0927646
-0.0687078
-0.0470354
-0.0295859
-0.0169777
-0.00862158
-0.00340967
-0.000501692
0.000728745
0.000890552
0.000715961
0.000325534
0.000400504
-0.339302
-0.27982
-0.247557
-0.205983
-0.175668
-0.147215
-0.121771
-0.0961357
-0.0711595
-0.0484503
-0.0301365
-0.0169815
-0.00841177
-0.00322431
-0.000428669
0.000714871
0.000845234
0.0006749
0.000299571
0.000403749
-0.344866
-0.280274
-0.248406
-0.207592
-0.178313
-0.150783
-0.125571
-0.0995146
-0.0736766
-0.050014
-0.0308897
-0.0171898
-0.00836594
-0.00314725
-0.000417235
0.000669264
0.000784378
0.000626598
0.000270755
0.000404538
-0.352618
-0.281864
-0.25009
-0.209843
-0.181268
-0.154442
-0.129335
-0.102862
-0.0762423
-0.0517198
-0.0318414
-0.0176003
-0.00848377
-0.00317927
-0.000467774
0.000592185
0.00070839
0.000571443
0.00023916
0.000402808
-0.362322
-0.284666
-0.252531
-0.212672
-0.184462
-0.15812
-0.133011
-0.106149
-0.0788438
-0.0535581
-0.0329809
-0.0182032
-0.00875903
-0.00331743
-0.000578876
0.000484453
0.000617765
0.000509553
0.000204882
0.00039843
-0.373569
-0.288757
-0.255626
-0.215989
-0.187816
-0.161753
-0.136558
-0.109353
-0.0814647
-0.0555122
-0.03429
-0.0189817
-0.00917996
-0.00355505
-0.000747125
0.000347802
0.000513382
0.000441208
0.00016809
0.000391332
-0.385921
-0.294411
-0.259396
-0.219751
-0.19129
-0.165299
-0.139955
-0.112468
-0.0841103
-0.0575885
-0.0357712
-0.0199353
-0.009745
-0.00389131
-0.000972143
0.000182643
0.00039569
0.000366753
0.000128933
0.000381548
-0.399083
-0.302527
-0.264334
-0.224209
-0.195035
-0.168857
-0.143292
-0.115593
-0.0868869
-0.0598864
-0.0375043
-0.0211205
-0.0104926
-0.00435141
-0.00126884
-1.82278e-05
0.000262216
0.000285849
8.75437e-05
0.000369253
-0.410485
-0.313257
-0.270806
-0.229656
-0.19931
-0.172659
-0.146768
-0.118879
-0.0898896
-0.0624492
-0.039496
-0.0225283
-0.0114143
-0.00493418
-0.00164098
-0.000258898
0.000110507
0.000197514
4.36791e-05
0.000354299
-0.40872
-0.320547
-0.275824
-0.234296
-0.203148
-0.176195
-0.149979
-0.121798
-0.0924247
-0.0645086
-0.0410286
-0.0235732
-0.0120834
-0.00536185
-0.00193194
-0.000466189
-3.38524e-05
0.000106341
-3.23354e-06
0.000334872
-0.382752
-0.318675
-0.276275
-0.236215
-0.205593
-0.17925
-0.153076
-0.124519
-0.0944767
-0.0658435
-0.0417392
-0.0238161
-0.0120424
-0.00523525
-0.0018714
-0.00051187
-0.000143224
-3.60606e-06
-7.14072e-05
0.000299613
-0.367227
-0.314935
-0.273601
-0.235536
-0.205476
-0.179398
-0.153269
-0.124959
-0.0953283
-0.0671049
-0.0432171
-0.0252667
-0.0132836
-0.00619891
-0.00257489
-0.00100191
-0.00046574
-0.00019944
-0.000167812
0.00025727
-0.349256
-0.305087
-0.265609
-0.230874
-0.202434
-0.177065
-0.15142
-0.1239
-0.0953044
-0.0680593
-0.0448055
-0.0270656
-0.0149518
-0.00755143
-0.00356579
-0.00166996
-0.000882607
-0.00044047
-0.000282555
0.00020664
-0.320582
-0.287455
-0.252522
-0.222349
-0.196701
-0.172802
-0.148235
-0.121996
-0.0948643
-0.0689385
-0.0465441
-0.029122
-0.0168943
-0.00914114
-0.00473497
-0.00245887
-0.00137505
-0.000726511
-0.000418955
0.000144079
-0.28234
-0.262404
-0.235019
-0.210235
-0.188219
-0.16661
-0.143785
-0.119329
-0.0940642
-0.0697748
-0.0484591
-0.0314663
-0.0191472
-0.0110052
-0.00611404
-0.00339027
-0.00195443
-0.00106219
-0.000578613
6.96703e-05
-0.241007
-0.232762
-0.214464
-0.195595
-0.177601
-0.158897
-0.138416
-0.116168
-0.0930474
-0.0705935
-0.0505059
-0.034035
-0.0216563
-0.0131083
-0.00768434
-0.00445562
-0.00261639
-0.00144469
-0.000760332
-1.49239e-05
-0.202828
-0.202586
-0.192851
-0.179995
-0.166067
-0.150494
-0.132687
-0.112875
-0.0919868
-0.0713927
-0.0525668
-0.0366663
-0.0242677
-0.0153281
-0.00936169
-0.0056042
-0.00333368
-0.00186019
-0.000958517
-0.000106137
-0.171375
-0.175649
-0.17254
-0.165106
-0.15499
-0.142386
-0.127194
-0.109764
-0.090985
-0.0721069
-0.054457
-0.0391229
-0.0267495
-0.0174726
-0.0110059
-0.00674477
-0.00405312
-0.00227984
-0.00116023
-0.000197419
-0.148495
-0.154898
-0.156075
-0.152769
-0.145792
-0.135635
-0.122606
-0.107166
-0.0901343
-0.0726548
-0.0559671
-0.0411215
-0.0288059
-0.0192802
-0.0124134
-0.00773509
-0.00468538
-0.00265209
-0.00134049
-0.000277883
-0.135635
-0.142825
-0.146141
-0.145173
-0.140113
-0.131469
-0.119763
-0.105551
-0.0896028
-0.0729828
-0.0568837
-0.0423448
-0.0300788
-0.0204127
-0.013305
-0.00836914
-0.0050935
-0.00289438
-0.0014573
-0.000329985
-0.450685
-0.46312
-0.470204
-0.472457
-0.470732
-0.466322
-0.461097
-0.457669
-0.461114
-0.483328
-0.371457
-0.384681
-0.394941
-0.402744
-0.408777
-0.413875
-0.418925
-0.424647
-0.431166
-0.443961
-0.306641
-0.319523
-0.330868
-0.340867
-0.349668
-0.357353
-0.363945
-0.369576
-0.37428
-0.383756
-0.251651
-0.26309
-0.27348
-0.282869
-0.291312
-0.298906
-0.305826
-0.312382
-0.318621
-0.326996
-0.205866
-0.215775
-0.225008
-0.233605
-0.241617
-0.249104
-0.256117
-0.26271
-0.26881
-0.275127
-0.168731
-0.177213
-0.185227
-0.19278
-0.199882
-0.206544
-0.212776
-0.218603
-0.224036
-0.22917
-0.139326
-0.146515
-0.153349
-0.159825
-0.165941
-0.1717
-0.17711
-0.182177
-0.186907
-0.191252
-0.117102
-0.123239
-0.129093
-0.134652
-0.139911
-0.144866
-0.149515
-0.15386
-0.157901
-0.161613
-0.101643
-0.107001
-0.11212
-0.116986
-0.121592
-0.12593
-0.129997
-0.133791
-0.137314
-0.140561
-0.0932404
-0.0981079
-0.102762
-0.107192
-0.111393
-0.115357
-0.119083
-0.122568
-0.125813
-0.128819
-0.0284709
-0.0923172
-0.15477
-0.209224
-0.258796
-0.304089
-0.34443
-0.37941
-0.408851
-0.432626
-0.0460754
-0.095414
-0.142728
-0.182998
-0.219417
-0.253271
-0.284041
-0.311279
-0.334899
-0.35493
-0.0569609
-0.096353
-0.131227
-0.160814
-0.187706
-0.212852
-0.235983
-0.256847
-0.275478
-0.292022
-0.06177
-0.0922983
-0.116947
-0.137955
-0.157702
-0.176549
-0.194189
-0.210462
-0.225406
-0.239112
-0.0610709
-0.0836601
-0.101015
-0.116082
-0.130801
-0.145205
-0.158921
-0.171815
-0.183911
-0.195253
-0.0562608
-0.0725268
-0.08516
-0.0965128
-0.107866
-0.119148
-0.130045
-0.140442
-0.150346
-0.159775
-0.0499069
-0.0616957
-0.0713428
-0.0803323
-0.0893825
-0.0984174
-0.10723
-0.115736
-0.123924
-0.131791
-0.0438338
-0.0526793
-0.0604189
-0.0678393
-0.0752968
-0.0827377
-0.0900416
-0.0971487
-0.104039
-0.110696
-0.0390335
-0.0461041
-0.052679
-0.0590931
-0.0655045
-0.0718831
-0.0781623
-0.0843001
-0.0902728
-0.0960604
-0.0362014
-0.0424785
-0.0485439
-0.0544858
-0.0603716
-0.06619
-0.0719049
-0.0774867
-0.0829146
-0.0881712
0.200783
0.201765
0.204228
0.207602
0.212222
0.21573
0.218508
0.209114
0.185975
0.08202
0.192658
0.193198
0.194613
0.196265
0.198072
0.197542
0.193895
0.176237
0.140089
0.0424381
0.182954
0.18303
0.183314
0.183117
0.182034
0.177619
0.168409
0.145564
0.104602
0.0237632
0.171544
0.17111
0.170182
0.168069
0.16411
0.156185
0.142393
0.116934
0.0748879
0.00734048
0.158477
0.157529
0.155414
0.151494
0.14497
0.134241
0.117286
0.0910068
0.0504026
-0.0064602
0.144061
0.142646
0.13949
0.134052
0.125547
0.112917
0.0943846
0.0686376
0.0317096
-0.0152917
0.128969
0.12718
0.123237
0.11671
0.106962
0.0933836
0.0747034
0.0505693
0.0185674
-0.0195827
0.114344
0.11231
0.107892
0.100763
0.0905004
0.076809
0.0589812
0.0370713
0.00995973
-0.0209824
0.1019
0.0997487
0.095141
0.0878318
0.0775872
0.0643112
0.047719
0.0279918
0.00478278
-0.0209707
0.0940359
0.091852
0.087222
0.0799475
0.069906
0.0570983
0.0414578
0.0231886
0.00228288
-0.0205826
0.235371
0.237449
0.243046
0.251767
0.265413
0.283543
0.310674
0.345692
0.398334
0.465876
0.232959
0.234965
0.24038
0.248786
0.261953
0.279297
0.305244
0.338215
0.387304
0.448855
0.230315
0.232246
0.237458
0.24551
0.258131
0.274552
0.299101
0.329489
0.374147
0.427559
0.227452
0.229305
0.234295
0.24196
0.253971
0.269339
0.292288
0.319566
0.359004
0.402098
0.224382
0.226157
0.230911
0.238157
0.249496
0.263696
0.284853
0.308511
0.342044
0.372571
0.22112
0.222818
0.227322
0.234125
0.244733
0.257662
0.276837
0.296399
0.323446
0.33905
0.217684
0.21931
0.223559
0.229902
0.239729
0.251308
0.268323
0.28337
0.303437
0.301616
0.214091
0.215663
0.219665
0.225555
0.234585
0.244789
0.259505
0.269709
0.282337
0.260276
0.210357
0.211886
0.215647
0.221088
0.229295
0.2381
0.250352
0.255416
0.259944
0.213923
0.206468
0.207884
0.211279
0.216094
0.223178
0.230239
0.239363
0.238835
0.233823
0.160842
0.24584
0.248262
0.254309
0.263881
0.278258
0.296927
0.323024
0.351229
0.388526
0.397721
0.245882
0.248318
0.254487
0.26423
0.279005
0.298331
0.325938
0.35709
0.40047
0.42625
0.245693
0.248105
0.254288
0.264032
0.278898
0.298434
0.326739
0.359825
0.407298
0.446778
0.245274
0.247662
0.253848
0.263584
0.278518
0.298248
0.327137
0.361965
0.412962
0.463447
0.244616
0.246979
0.253157
0.26287
0.277843
0.297724
0.327065
0.363359
0.417255
0.47644
0.243709
0.246043
0.25219
0.261845
0.276786
0.296712
0.326281
0.363612
0.419603
0.485374
0.24255
0.244847
0.250936
0.26049
0.275324
0.295166
0.324723
0.362612
0.41983
0.490129
0.241136
0.243388
0.249392
0.258804
0.273453
0.293079
0.322384
0.360336
0.417867
0.490627
0.239466
0.241667
0.24756
0.256785
0.271174
0.290445
0.319262
0.356765
0.413648
0.48678
0.237543
0.239685
0.245443
0.254437
0.268491
0.287264
0.315354
0.351882
0.407134
0.478533
0.198902
0.19747
0.194421
0.189571
0.18271
0.173628
0.162032
0.147758
0.1305
0.110435
0.203949
0.202706
0.200028
0.195684
0.189377
0.180778
0.169426
0.154995
0.136907
0.115255
0.211517
0.210617
0.208633
0.205277
0.200135
0.192671
0.182143
0.167868
0.14876
0.124619
0.219721
0.21929
0.218293
0.2164
0.213103
0.207611
0.19888
0.185588
0.165967
0.138986
0.227341
0.227459
0.227658
0.227601
0.22677
0.224121
0.218412
0.207368
0.188532
0.15894
0.233718
0.234403
0.235889
0.23787
0.239933
0.240848
0.239409
0.232129
0.216176
0.184905
0.238613
0.239832
0.242575
0.246607
0.251732
0.256661
0.260525
0.258529
0.248028
0.216654
0.242064
0.243745
0.24763
0.253565
0.261661
0.270735
0.280537
0.285208
0.282637
0.2525
0.244259
0.246309
0.251159
0.258728
0.269481
0.282479
0.29832
0.310807
0.318547
0.290682
0.245453
0.247756
0.253349
0.262177
0.275101
0.29146
0.312988
0.333951
0.355782
0.33773
0.0959952
0.0899292
0.0837292
0.0774936
0.0712054
0.064857
0.0584663
0.0520591
0.04566
0.0392908
0.0991845
0.0923944
0.0854561
0.0785404
0.0715734
0.0645127
0.0573774
0.0502053
0.0430299
0.0358793
0.10576
0.0974269
0.0888347
0.0804651
0.0721454
0.0637316
0.0552262
0.0466837
0.0381493
0.0296542
0.116432
0.105712
0.0944399
0.0837889
0.0734277
0.0630018
0.0524682
0.0419085
0.0313875
0.0209356
0.132106
0.118083
0.102884
0.0889764
0.0757996
0.0626245
0.0493228
0.0360245
0.0228242
0.00974575
0.153788
0.135515
0.11488
0.096549
0.0796622
0.0628884
0.0459756
0.0291399
0.0125156
-0.00389277
0.182448
0.159115
0.131331
0.107232
0.0855582
0.0641221
0.0425763
0.0212852
0.000414447
-0.0200737
0.218121
0.189069
0.152511
0.121429
0.0937463
0.0663383
0.0389974
0.0122806
-0.0136679
-0.0389496
0.26065
0.224867
0.178871
0.140157
0.104961
0.0699738
0.0355319
0.00230494
-0.0295702
-0.0601197
0.308432
0.264004
0.209947
0.162329
0.117011
0.0725356
0.0297377
-0.0108631
-0.0490675
-0.0847071
0.0329722
0.0267237
0.0205641
0.0145105
0.00857864
0.00278263
-0.00286521
-0.00835363
-0.0136732
-0.0188149
0.0287798
0.0217569
0.0148351
0.00803742
0.00138458
-0.00510481
-0.0114146
-0.0175312
-0.0234432
-0.0291204
0.0212243
0.0128856
0.00466299
-0.00342025
-0.0113434
-0.0190883
-0.0266393
-0.0339838
-0.041113
-0.047949
0.0105729
0.000320191
-0.00980109
-0.0197715
-0.0295751
-0.0391987
-0.048632
-0.0578675
-0.0669075
-0.0756327
-0.0032066
-0.0160249
-0.0286975
-0.0412141
-0.0535681
-0.0657565
-0.0777818
-0.0896537
-0.101411
-0.113101
-0.0201098
-0.0361497
-0.0520227
-0.0677466
-0.0833483
-0.0988598
-0.114312
-0.129723
-0.145158
-0.161312
-0.0402394
-0.0601157
-0.0797267
-0.0991063
-0.118311
-0.137437
-0.156623
-0.176008
-0.195953
-0.218116
-0.0636737
-0.0879276
-0.111795
-0.135344
-0.158617
-0.181639
-0.204462
-0.227191
-0.251048
-0.278408
-0.0893834
-0.117454
-0.144528
-0.170901
-0.196942
-0.223054
-0.249613
-0.276959
-0.30724
-0.339816
-0.117666
-0.147929
-0.175677
-0.201326
-0.225557
-0.24933
-0.273789
-0.300472
-0.335068
-0.37988
-0.0309277
-0.0476654
-0.0614731
-0.0712503
-0.0764276
-0.0771137
-0.0740126
-0.0682184
-0.0608969
-0.052905
-0.0445422
-0.0357165
-0.0265047
-0.0175985
-0.0100647
-0.00472456
-0.00160591
-0.000267732
0.000154714
-0.000158853
-0.0428479
-0.0602281
-0.0731852
-0.0811906
-0.084121
-0.0824217
-0.0771434
-0.0696922
-0.061401
-0.0530651
-0.0447028
-0.0358987
-0.02658
-0.0174976
-0.00984209
-0.00448842
-0.00143062
-0.000164367
0.000205328
-0.000130009
-0.0646034
-0.0826361
-0.093571
-0.0980736
-0.0967784
-0.0907568
-0.0816929
-0.071502
-0.0617585
-0.0530829
-0.0449242
-0.0362641
-0.0267892
-0.0173963
-0.00951919
-0.00413005
-0.00116601
-8.20306e-06
0.000276291
-7.91733e-05
-0.0957096
-0.113526
-0.120857
-0.11989
-0.112316
-0.100247
-0.0861981
-0.0726427
-0.0613682
-0.0526287
-0.0450056
-0.0366674
-0.0270435
-0.0172773
-0.00913724
-0.00371465
-0.000869869
0.000161698
0.000346822
-1.73935e-05
-0.134914
-0.150938
-0.153175
-0.144653
-0.128869
-0.109483
-0.0897686
-0.0726483
-0.0599906
-0.0514644
-0.0446084
-0.0367351
-0.0270552
-0.0169954
-0.00866605
-0.00326604
-0.000573421
0.000323336
0.000406343
4.73265e-05
-0.178487
-0.191358
-0.187659
-0.169768
-0.144649
-0.117593
-0.0922447
-0.0717736
-0.0579173
-0.0496215
-0.043468
-0.0360821
-0.0265118
-0.0163867
-0.0080585
-0.0027906
-0.000292208
0.000465701
0.000450819
0.000109383
-0.220062
-0.230168
-0.220281
-0.192221
-0.158208
-0.12427
-0.0940515
-0.0707703
-0.055822
-0.0474687
-0.0416585
-0.0346327
-0.0253255
-0.0154102
-0.00731345
-0.00230077
-3.53643e-05
0.000584171
0.000480059
0.000165117
-0.254559
-0.263578
-0.247318
-0.209996
-0.168967
-0.129672
-0.0957858
-0.0703657
-0.0543579
-0.0455342
-0.0395977
-0.0327025
-0.0237111
-0.014193
-0.00649298
-0.00181855
0.000195215
0.000681967
0.000498179
0.000213512
-0.283663
-0.289964
-0.267033
-0.222795
-0.177049
-0.134029
-0.0977167
-0.0707915
-0.053768
-0.0441485
-0.0377008
-0.0307064
-0.0219921
-0.0129314
-0.0056867
-0.00136972
0.000401025
0.000765995
0.000511014
0.000255556
-0.314081
-0.307738
-0.278058
-0.229851
-0.181858
-0.137028
-0.0997559
-0.0720848
-0.054134
-0.0433414
-0.0358908
-0.0284904
-0.0200132
-0.0115265
-0.00486459
-0.000970918
0.00054954
0.000810795
0.000506158
0.000286384
-0.341411
-0.310602
-0.277627
-0.229452
-0.18265
-0.138894
-0.10263
-0.0751013
-0.0561177
-0.0433988
-0.0340715
-0.0257235
-0.0174207
-0.00976243
-0.00399024
-0.000700593
0.000535343
0.000740033
0.000448609
0.000287846
-0.354685
-0.310416
-0.275437
-0.226407
-0.1802
-0.137282
-0.102057
-0.0751015
-0.0560357
-0.0427108
-0.0327275
-0.0240879
-0.0159526
-0.00872861
-0.00341082
-0.000448425
0.000608782
0.000747669
0.000436196
0.000297737
-0.35773
-0.307631
-0.271654
-0.221846
-0.176454
-0.134694
-0.100834
-0.0747627
-0.0559089
-0.0422413
-0.0317905
-0.0229183
-0.0148754
-0.0079382
-0.00293368
-0.000210481
0.000703036
0.000775825
0.000435464
0.000312418
-0.355938
-0.3039
-0.267738
-0.217839
-0.173655
-0.133234
-0.100695
-0.0753029
-0.0563825
-0.0421184
-0.0310278
-0.0218352
-0.0138541
-0.00719744
-0.00249976
-3.49024e-06
0.000779507
0.000795476
0.000431763
0.000327058
-0.352288
-0.299857
-0.263802
-0.214358
-0.171721
-0.132793
-0.101516
-0.0765851
-0.0573228
-0.0422284
-0.0303486
-0.0207649
-0.0128306
-0.00646634
-0.00208817
0.000179611
0.000838594
0.000805443
0.00042422
0.000340977
-0.347735
-0.295677
-0.259886
-0.211272
-0.170415
-0.133096
-0.10303
-0.0783993
-0.058607
-0.0425401
-0.029787
-0.0197661
-0.0118545
-0.00577226
-0.00170729
0.000340005
0.000883924
0.000808375
0.00041412
0.000354243
-0.34302
-0.29156
-0.25619
-0.20868
-0.16974
-0.134089
-0.105151
-0.0806666
-0.0601931
-0.0430573
-0.0293786
-0.0188839
-0.0109627
-0.00513682
-0.00136627
0.000475297
0.000915506
0.000804643
0.000401675
0.000366622
-0.338914
-0.28776
-0.252946
-0.206706
-0.169731
-0.135742
-0.107813
-0.0833221
-0.0620439
-0.0437767
-0.029143
-0.0181445
-0.0101764
-0.00457265
-0.00107085
0.000583272
0.000932438
0.00079383
0.00038668
0.00037776
-0.336076
-0.284518
-0.250346
-0.205424
-0.170373
-0.137982
-0.110917
-0.0862819
-0.0641114
-0.0446876
-0.0290931
-0.0175692
-0.00951396
-0.00409048
-0.000825647
0.000662272
0.0009341
0.000775542
0.000369027
0.00038731
-0.335003
-0.282027
-0.248533
-0.204874
-0.171621
-0.140712
-0.11435
-0.089457
-0.0663471
-0.0457778
-0.0292388
-0.0171759
-0.00899151
-0.00370012
-0.000634759
0.000711083
0.000920196
0.000749565
0.000348675
0.000394962
)
;

boundaryField
{
    inlet
    {
        type            freestreamPressure;
        freestreamValue uniform 0;
        supersonic      false;
        value           nonuniform List<scalar> 
40
(
0.200783
0.192658
0.182954
0.171544
0.158477
0.144061
0.128969
0.114344
0.1019
0.0940359
0.235371
0.232959
0.230315
0.227452
0.224382
0.22112
0.217684
0.214091
0.210357
0.206468
0.24584
0.245882
0.245693
0.245274
0.244616
0.243709
0.24255
0.241136
0.239466
0.237543
0.198902
0.203949
0.211517
0.219721
0.227341
0.233718
0.238613
0.242064
0.244259
0.245453
)
;
    }
    outlet
    {
        type            freestreamPressure;
        freestreamValue uniform 0;
        supersonic      false;
        value           nonuniform List<scalar> 
40
(
2.85323e-09
2.01116e-09
1.26676e-09
6.54856e-10
2.18639e-10
-2.94989e-11
-1.16786e-10
-1.0058e-10
-4.63863e-11
-5.65011e-12
8.89769e-09
8.39158e-09
7.8359e-09
7.24545e-09
6.63303e-09
6.0114e-09
5.39332e-09
4.79142e-09
4.21158e-09
3.63869e-09
9.83451e-09
9.93899e-09
1.0143e-08
1.02839e-08
1.0339e-08
1.0312e-08
1.02e-08
1.00001e-08
9.71258e-09
9.34203e-09
-1.22932e-10
-7.83265e-10
-1.07306e-09
-3.65954e-10
1.28624e-09
3.44511e-09
5.62517e-09
7.52479e-09
9.05872e-09
1.00252e-08
)
;
    }
    top
    {
        type            symmetryPlane;
    }
    bottom
    {
        type            symmetryPlane;
    }
    cylinder
    {
        type            zeroGradient;
    }
    frontandback
    {
        type            empty;
    }
}


// ************************************************************************* //
