/*--------------------------------*- C++ -*----------------------------------*\
| =========                 |                                                 |
| \\      /  F ield         | OpenFOAM: The Open Source CFD Toolbox           |
|  \\    /   O peration     | Version:  v1912                                 |
|   \\  /    A nd           | Website:  www.openfoam.com                      |
|    \\/     M anipulation  |                                                 |
\*---------------------------------------------------------------------------*/
FoamFile
{
    version     2.0;
    format      ascii;
    class       volVectorField;
    location    "2.5";
    object      U;
}
// * * * * * * * * * * * * * * * * * * * * * * * * * * * * * * * * * * * * * //

dimensions      [0 1 -1 0 0 0 0];


internalField   nonuniform List<vector> 
19200
(
(0.63767 -19.473 -4.99815e-20)
(0.122089 -18.5903 0)
(0.268546 -17.7358 0)
(0.221451 -16.9392 0)
(0.223655 -16.1802 0)
(0.216496 -15.4559 0)
(0.21094 -14.7616 -7.00413e-21)
(0.205816 -14.0949 6.8691e-21)
(0.200542 -13.4544 0)
(0.195199 -12.839 0)
(0.189813 -12.2481 -8.16249e-21)
(0.184403 -11.6811 8.68883e-22)
(0.179001 -11.1374 7.01177e-21)
(0.17364 -10.6165 0)
(0.168351 -10.1178 4.80679e-21)
(0.16316 -9.64068 -5.02668e-22)
(0.158088 -9.18457 -4.14561e-21)
(0.153157 -8.74886 0)
(0.148384 -8.33294 0)
(0.143792 -7.9362 0)
(0.1394 -7.55799 0)
(0.135231 -7.19764 0)
(0.131306 -6.85446 1.74116e-21)
(0.127645 -6.5277 -1.71336e-21)
(0.124262 -6.21663 0)
(0.121155 -5.92047 0)
(0.118298 -5.63848 -2.15403e-21)
(0.115757 -5.36995 2.12134e-21)
(0.113771 -5.1142 0)
(0.111533 -4.87062 0)
(1.14618 -19.4475 -6.40101e-20)
(0.609722 -18.5814 3.18717e-20)
(0.733683 -17.7249 0)
(0.66566 -16.9305 0)
(0.648096 -16.173 0)
(0.622057 -15.4492 0)
(0.598228 -14.7553 -5.77266e-20)
(0.575669 -14.0888 2.75036e-20)
(0.55365 -13.4483 -1.24352e-21)
(0.532215 -12.833 -2.29036e-21)
(0.511383 -12.2422 -3.46869e-20)
(0.491159 -11.6753 3.03479e-20)
(0.471558 -11.1317 -1.40428e-20)
(0.4526 -10.6109 0)
(0.434301 -10.1123 0)
(0.416669 -9.63536 0)
(0.39971 -9.17941 0)
(0.383428 -8.74387 0)
(0.367826 -8.32814 0)
(0.352908 -7.9316 0)
(0.338677 -7.55362 -4.72148e-21)
(0.325139 -7.19354 0)
(0.312297 -6.85064 -6.98991e-21)
(0.300154 -6.52421 6.8783e-21)
(0.288708 -6.21347 -5.48721e-21)
(0.277936 -5.91767 5.40179e-21)
(0.267791 -5.63602 0)
(0.258339 -5.36781 3.85389e-21)
(0.24987 -5.1123 -3.79613e-21)
(0.241435 -4.86887 3.25315e-21)
(1.655 -19.4099 -1.33342e-19)
(1.09669 -18.5597 -5.54427e-20)
(1.19829 -17.7016 5.71469e-21)
(1.1094 -16.9103 4.76617e-20)
(1.07207 -16.1542 0)
(1.02732 -15.4316 -6.43417e-20)
(0.985294 -14.7386 3.66285e-20)
(0.945299 -14.0727 5.50621e-20)
(0.906544 -13.4328 -2.26794e-20)
(0.869024 -12.8181 -3.74273e-20)
(0.832749 -12.2277 3.67268e-20)
(0.797713 -11.6613 0)
(0.763917 -11.1182 -2.50933e-20)
(0.731366 -10.598 2.46393e-20)
(0.70006 -10.0999 -2.0395e-20)
(0.669992 -9.62337 0)
(0.641152 -9.1679 0)
(0.613526 -8.73284 0)
(0.587102 -8.31759 0)
(0.561866 -7.92154 2.03406e-20)
(0.537806 -7.54406 -1.52816e-20)
(0.514909 -7.18448 1.58626e-20)
(0.493164 -6.84212 -1.5606e-20)
(0.472554 -6.51624 -1.24301e-20)
(0.45306 -6.20608 2.32585e-20)
(0.434639 -5.91084 -2.06438e-20)
(0.417221 -5.62976 9.6405e-21)
(0.400873 -5.36207 0)
(0.385931 -5.107 3.63774e-21)
(0.3713 -4.86394 0)
(2.16183 -19.3593 -2.56239e-19)
(1.5822 -18.5255 1.27586e-19)
(1.66181 -17.6664 -9.73193e-20)
(1.55232 -16.8787 1.07439e-20)
(1.49532 -16.1245 8.29779e-20)
(1.43199 -15.4035 0)
(1.37185 -14.7118 0)
(1.31445 -14.0471 0)
(1.25898 -13.4082 1.33537e-19)
(1.20539 -12.7944 -4.58484e-21)
(1.15369 -12.205 -3.67724e-20)
(1.10385 -11.6394 -5.7383e-20)
(1.05588 -11.0972 5.63327e-20)
(1.00975 -10.5778 4.40666e-20)
(0.965447 -10.0805 -2.28839e-20)
(0.922957 -9.60484 0)
(0.88225 -9.15016 0)
(0.843295 -8.71588 0)
(0.806063 -8.30139 0)
(0.770525 -7.9061 0)
(0.736652 -7.52937 1.80113e-20)
(0.704415 -7.17056 -1.77162e-20)
(0.673785 -6.82897 0)
(0.644728 -6.50387 -1.24841e-20)
(0.617208 -6.19449 2.33642e-20)
(0.591161 -5.90005 -2.07462e-20)
(0.566495 -5.61974 9.69054e-21)
(0.543273 -5.35277 7.79981e-21)
(0.521876 -5.09834 -1.82837e-20)
(0.50106 -4.85584 -5.96338e-21)
(2.66725 -19.296 1.3339e-19)
(2.06655 -18.4788 2.33263e-19)
(2.12415 -17.6192 2.06659e-19)
(1.99423 -16.8356 8.47152e-20)
(1.91767 -16.0836 1.47306e-19)
(1.83579 -15.3648 -4.48118e-22)
(1.75762 -14.6749 1.26031e-19)
(1.68286 -14.0118 1.59141e-19)
(1.6107 -13.3744 4.54632e-20)
(1.54107 -12.7619 7.93864e-20)
(1.47397 -12.1738 3.78841e-21)
(1.40936 -11.6095 6.44316e-20)
(1.34723 -11.0686 2.88508e-21)
(1.28754 -10.5503 1.40246e-19)
(1.23027 -10.0543 -1.23037e-19)
(1.17538 -9.57974 7.40088e-20)
(1.12283 -9.12617 0)
(1.07257 -8.69296 0)
(1.02455 -8.27953 2.44935e-20)
(0.978736 -7.88526 0)
(0.935074 -7.50955 1.90684e-20)
(0.893522 -7.15174 1.59799e-20)
(0.854032 -6.81116 -1.57215e-20)
(0.816557 -6.48707 1.32189e-20)
(0.781039 -6.1787 0)
(0.747396 -5.88526 0)
(0.715512 -5.60594 9.27525e-21)
(0.685447 -5.33991 8.26459e-21)
(0.657621 -5.08632 6.65093e-21)
(0.630639 -4.84457 -1.45964e-20)
(3.17076 -19.2197 -1.33491e-19)
(2.54939 -18.4198 -2.33263e-19)
(2.585 -17.5602 -3.04124e-19)
(2.43485 -16.7812 -7.40377e-20)
(2.33882 -16.0319 -1.38153e-19)
(2.23845 -15.3157 8.56483e-21)
(2.14233 -14.628 -1.19079e-19)
(2.05027 -13.9669 -1.03967e-19)
(1.96147 -13.3314 -9.08222e-20)
(1.87584 -12.7207 -1.54526e-19)
(1.79337 -12.1343 8.0889e-21)
(1.71402 -11.5717 1.25386e-19)
(1.63776 -11.0324 -5.03452e-20)
(1.56455 -10.5157 4.96014e-20)
(1.49435 -10.0211 1.2078e-19)
(1.42709 -9.54809 -3.80551e-20)
(1.36273 -9.09595 0)
(1.30119 -8.66412 2.78789e-20)
(1.24242 -8.25202 4.66076e-20)
(1.18635 -7.85905 -6.51518e-20)
(1.13293 -7.48461 2.13127e-20)
(1.0821 -7.12806 4.90038e-20)
(1.03378 -6.78872 1.18291e-20)
(0.98792 -6.46587 -5.31009e-20)
(0.944441 -6.15873 3.65912e-20)
(0.903238 -5.86651 0)
(0.864174 -5.58838 5.57575e-23)
(0.827304 -5.32349 1.58564e-20)
(0.793085 -5.07094 -7.70877e-22)
(0.759968 -4.83014 1.34288e-20)
(3.67212 -19.1305 2.46075e-19)
(3.03052 -18.3483 -2.55613e-19)
(3.04415 -17.4893 0)
(2.87394 -16.7154 -1.79607e-19)
(2.75855 -15.9693 -1.48063e-19)
(2.63973 -15.2561 -1.20739e-19)
(2.52573 -14.5711 1.26665e-19)
(2.41643 -13.9125 0)
(2.31104 -13.2792 -9.10358e-20)
(2.20946 -12.6707 0)
(2.11167 -12.0865 -1.39156e-19)
(2.01762 -11.5259 -1.21819e-19)
(1.92728 -10.9886 -5.33184e-20)
(1.84059 -10.4738 -4.67467e-20)
(1.75749 -9.98116 3.67733e-20)
(1.67791 -9.50991 -1.1245e-19)
(1.60177 -9.05951 0)
(1.529 -8.62936 -2.78788e-20)
(1.45951 -8.21888 7.20002e-23)
(1.39323 -7.82749 -2.16664e-20)
(1.33009 -7.45458 0)
(1.27001 -7.09953 1.5296e-20)
(1.2129 -6.76166 -4.66731e-20)
(1.1587 -6.44027 6.32142e-23)
(1.1073 -6.13458 1.07095e-20)
(1.05858 -5.84379 -2.12983e-21)
(1.01238 -5.56706 -1.12048e-20)
(0.968754 -5.30352 -4.17956e-20)
(0.928186 -5.05221 8.24955e-21)
(0.888979 -4.81257 0)
(4.17098 -19.0283 -8.62829e-23)
(3.50964 -18.2645 0)
(3.50131 -17.4065 -1.95242e-19)
(3.31121 -16.6382 5.50743e-19)
(3.17656 -15.8958 -8.66603e-21)
(3.03937 -15.186 1.28286e-19)
(2.90756 -14.5042 2.32319e-19)
(2.78109 -13.8485 -1.2113e-20)
(2.65917 -13.218 -5.66414e-21)
(2.5417 -12.6121 7.53396e-20)
(2.42864 -12.0304 -1.36162e-19)
(2.31996 -11.4723 1.90373e-19)
(2.21558 -10.9373 -1.01211e-19)
(2.11546 -10.4248 9.93801e-20)
(2.01952 -9.93435 -7.79581e-20)
(1.92766 -9.46524 8.0627e-21)
(1.83979 -9.01689 6.73231e-20)
(1.75583 -8.58872 0)
(1.67567 -8.18015 2.21893e-20)
(1.59923 -7.79059 -4.60376e-20)
(1.5264 -7.41947 3.65462e-20)
(1.45712 -7.06616 -3.59782e-21)
(1.39127 -6.73 -3.18265e-20)
(1.32877 -6.4103 -1.33428e-20)
(1.2695 -6.10628 0)
(1.21331 -5.81713 1.06026e-20)
(1.16003 -5.54201 0)
(1.1097 -5.28002 0)
(1.06284 -5.03015 0)
(1.01759 -4.79189 0)
(4.66703 -18.9133 -5.35214e-19)
(3.98645 -18.1684 4.67865e-19)
(3.9562 -17.3121 -4.14599e-19)
(3.74639 -16.5498 -1.79763e-19)
(3.5926 -15.8115 8.52517e-21)
(3.43711 -15.1057 8.57693e-21)
(3.28758 -14.4274 -1.19447e-19)
(3.14402 -13.775 0)
(3.00563 -13.1477 0)
(2.87233 -12.5448 -8.70911e-21)
(2.74407 -11.966 -1.48061e-19)
(2.6208 -11.4107 2.37955e-19)
(2.50247 -10.8785 -1.21551e-20)
(2.38898 -10.3687 -9.95574e-20)
(2.28024 -9.88074 8.25435e-20)
(2.17616 -9.4141 -6.86815e-20)
(2.07663 -8.96812 1.27927e-19)
(1.98153 -8.54222 -5.94018e-20)
(1.89075 -8.13583 0)
(1.80418 -7.74839 2.27925e-21)
(1.72174 -7.3793 4.11014e-21)
(1.6433 -7.02798 1.83713e-21)
(1.56876 -6.69377 0)
(1.49801 -6.37597 0)
(1.43092 -6.07383 0)
(1.36733 -5.78653 -1.06026e-20)
(1.30702 -5.51323 0)
(1.25004 -5.253 3.22877e-20)
(1.19693 -5.00478 -2.89142e-21)
(1.1457 -4.7681 -5.76793e-20)
(5.15994 -18.7854 8.02781e-19)
(4.46064 -18.0599 -2.44999e-19)
(4.40855 -17.2059 -2.18782e-19)
(4.17921 -16.4501 0)
(4.00639 -15.7164 0)
(3.8327 -15.015 0)
(3.66553 -14.3407 0)
(3.50495 -13.6921 -4.06731e-19)
(3.35019 -13.0683 1.93856e-19)
(3.20112 -12.4689 1.59595e-19)
(3.05774 -11.8934 0)
(2.91996 -11.3413 -1.22292e-19)
(2.78773 -10.8122 -1.01576e-19)
(2.66094 -10.3054 1.06006e-20)
(2.53948 -9.82037 5.00059e-21)
(2.42325 -9.35651 -6.88487e-20)
(2.31211 -8.91321 6.76475e-20)
(2.20593 -8.48989 -5.34117e-20)
(2.10459 -8.08597 5.25028e-20)
(2.00797 -7.7009 -4.37669e-20)
(1.91595 -7.33411 -3.88419e-20)
(1.82841 -6.98501 9.95185e-20)
(1.74523 -6.65297 -9.47176e-20)
(1.66629 -6.33731 5.14443e-20)
(1.59144 -6.03726 -5.06333e-20)
(1.5205 -5.75203 0)
(1.45323 -5.48075 0)
(1.38966 -5.22248 -1.71176e-20)
(1.33037 -4.9761 0)
(1.2732 -4.7412 -4.23874e-20)
(5.64936 -18.6447 -2.89097e-19)
(4.93191 -17.9392 -3.32834e-20)
(4.85806 -17.088 1.96332e-19)
(4.60938 -16.3392 -1.70332e-19)
(4.41766 -15.6107 -1.47651e-19)
(4.22587 -14.914 2.74549e-19)
(4.04117 -14.2443 -1.31733e-20)
(3.86366 -13.5998 -2.10897e-19)
(3.69259 -12.98 1.9409e-19)
(3.52786 -12.3844 1.51308e-19)
(3.36942 -11.8126 -2.88539e-19)
(3.21722 -11.2642 1.22685e-19)
(3.07117 -10.7385 -1.07556e-19)
(2.93115 -10.2351 0)
(2.79706 -9.75328 0)
(2.66874 -9.29253 -1.41908e-19)
(2.54606 -8.85222 7.12017e-20)
(2.42887 -8.43177 -5.03897e-20)
(2.31704 -8.0306 5.37477e-21)
(2.21042 -7.64817 2.41541e-21)
(2.10889 -7.28393 7.78379e-20)
(2.01232 -6.93729 3.10158e-20)
(1.92057 -6.60766 -3.39986e-20)
(1.8335 -6.29434 0)
(1.75095 -5.9966 4.60544e-20)
(1.67273 -5.71364 -2.37291e-20)
(1.59856 -5.44459 0)
(1.52847 -5.18848 1.71176e-20)
(1.46307 -4.94413 4.48425e-20)
(1.40003 -4.7112 -1.60682e-20)
(6.13498 -18.4914 2.46573e-19)
(5.39994 -17.8064 -3.32903e-20)
(5.30444 -16.9585 -2.2876e-20)
(5.03663 -16.2173 -1.9204e-19)
(4.82615 -15.4943 3.14625e-19)
(4.61637 -14.8029 -5.34242e-19)
(4.41423 -14.138 4.94311e-19)
(4.21989 -13.4981 1.98111e-19)
(4.03262 -12.8828 -2.11285e-20)
(3.85231 -12.2914 -1.83979e-20)
(3.67892 -11.7238 -8.62617e-21)
(3.51238 -11.1793 -6.43697e-21)
(3.35259 -10.6574 -1.08519e-19)
(3.19944 -10.1577 1.06064e-20)
(3.05278 -9.67951 9.25009e-21)
(2.91246 -9.2222 1.50152e-19)
(2.77833 -8.78519 -6.41585e-20)
(2.65021 -8.36789 5.65408e-20)
(2.52795 -7.96975 9.48998e-20)
(2.41141 -7.59023 -4.92275e-20)
(2.30044 -7.22878 -3.8996e-20)
(2.1949 -6.88485 3.4549e-20)
(2.09464 -6.55784 0)
(1.99951 -6.24709 -5.20233e-20)
(1.90933 -5.95187 4.86086e-21)
(1.82389 -5.67138 2.40124e-20)
(1.74291 -5.40476 3.69517e-20)
(1.66638 -5.151 -3.63908e-20)
(1.59493 -4.90889 1.42298e-20)
(1.52611 -4.67811 -2.47026e-21)
(6.61645 -18.3255 1.34111e-18)
(5.86442 -17.6614 2.45967e-19)
(5.7474 -16.8175 -1.73216e-19)
(5.46067 -16.0843 3.8443e-19)
(5.23158 -15.3673 6.1311e-19)
(5.00392 -14.6816 -1.69043e-20)
(4.78446 -14.022 0)
(4.57341 -13.3872 0)
(4.37004 -12.7767 0)
(4.17425 -12.19 1.6047e-19)
(3.986 -11.6268 0)
(3.80522 -11.0867 0)
(3.6318 -10.569 1.07945e-19)
(3.4656 -10.0734 -8.96909e-20)
(3.30648 -9.5991 1.66923e-19)
(3.15425 -9.14555 -1.50686e-19)
(3.00874 -8.71214 1.86734e-19)
(2.86977 -8.2983 -6.32443e-20)
(2.73717 -7.90347 5.02207e-20)
(2.61078 -7.52712 -8.42302e-20)
(2.49044 -7.16872 1.96755e-19)
(2.376 -6.82773 -7.33857e-20)
(2.2673 -6.50357 8.97632e-20)
(2.16418 -6.1956 -3.30782e-20)
(2.06646 -5.9031 -2.69623e-20)
(1.97389 -5.62528 2.18994e-20)
(1.88616 -5.36129 5.6814e-20)
(1.80327 -5.11009 -3.66703e-20)
(1.72586 -4.87039 1.57059e-20)
(1.65135 -4.64198 -1.37466e-20)
(7.09346 -18.1471 3.97729e-22)
(6.32504 -17.5045 4.01305e-22)
(6.18664 -16.6651 4.16409e-19)
(5.88123 -15.9403 -3.41652e-19)
(5.63367 -15.2298 1.96692e-20)
(5.38828 -14.5502 -2.75125e-19)
(5.15163 -13.8964 -2.27276e-19)
(4.92398 -13.2671 4.32989e-19)
(4.70462 -12.6618 0)
(4.49345 -12.0802 -1.6047e-19)
(4.29046 -11.5219 -1.33084e-19)
(4.09554 -10.9864 1.3062e-19)
(3.90859 -10.4734 -1.07946e-19)
(3.72946 -9.98215 0)
(3.55796 -9.5121 -7.45909e-20)
(3.39392 -9.06263 2.2849e-19)
(3.23713 -8.63314 -6.45049e-20)
(3.08739 -8.22305 1.08334e-19)
(2.94454 -7.8318 -2.52109e-19)
(2.80838 -7.45888 1.78523e-19)
(2.67875 -7.10378 -1.97406e-19)
(2.5555 -6.76596 7.37058e-20)
(2.43844 -6.44488 -3.09617e-20)
(2.32741 -6.1399 -2.50941e-20)
(2.22221 -5.85033 5.01642e-21)
(2.12258 -5.57539 6.62519e-20)
(2.0282 -5.31421 -7.86736e-20)
(1.93905 -5.06577 3.69585e-20)
(1.85578 -4.82868 -1.5706e-20)
(1.77566 -4.60281 1.40487e-20)
(7.56568 -17.9564 -4.19603e-20)
(6.7815 -17.3356 -9.84073e-19)
(6.62188 -16.5013 -8.09343e-19)
(6.29801 -15.7854 2.32569e-20)
(6.03217 -15.0819 -2.98479e-19)
(5.76918 -14.4088 2.92632e-19)
(5.51547 -13.7613 0)
(5.27134 -13.1378 -2.10096e-19)
(5.03612 -12.5381 0)
(4.80971 -11.962 0)
(4.59208 -11.409 -1.33296e-19)
(4.38315 -10.8786 2.47683e-19)
(4.18278 -10.3705 -1.14716e-19)
(3.99082 -9.88404 1.80141e-19)
(3.80706 -9.41857 -4.18778e-19)
(3.6313 -8.97351 1.55611e-19)
(3.46333 -8.54823 0)
(3.30293 -8.14217 -1.65561e-19)
(3.14991 -7.75479 1.06662e-19)
(3.00407 -7.38556 0)
(2.86524 -7.034 -3.96451e-20)
(2.73325 -6.69959 0)
(2.60791 -6.3818 2.81555e-20)
(2.48905 -6.08003 -1.11441e-19)
(2.37646 -5.79359 2.57502e-21)
(2.26987 -5.52172 -4.22458e-20)
(2.16893 -5.26357 -3.58399e-20)
(2.07361 -5.01807 3.72547e-20)
(1.98457 -4.78378 -3.05028e-20)
(1.89897 -4.56065 3.17451e-20)
(8.03279 -17.7534 0)
(7.23349 -17.155 0)
(7.05284 -16.3263 3.93304e-19)
(6.71076 -15.6198 -2.36198e-20)
(6.42679 -14.9236 -2.9879e-19)
(6.14637 -14.2575 2.92936e-19)
(5.87574 -13.6166 -2.27806e-19)
(5.61527 -12.9994 4.34017e-19)
(5.36432 -12.4059 -1.84152e-19)
(5.12279 -11.8356 -1.52407e-19)
(4.89065 -11.2882 1.60466e-20)
(4.66783 -10.7633 2.48095e-19)
(4.45417 -10.2605 9.05575e-20)
(4.24949 -9.77913 -1.06426e-19)
(4.05359 -9.31857 -1.58782e-19)
(3.86623 -8.87822 1.55977e-19)
(3.68718 -8.45746 6.50377e-20)
(3.51622 -8.05573 0)
(3.35313 -7.67248 0)
(3.19771 -7.30721 4.49077e-20)
(3.04977 -6.95943 1.15244e-19)
(2.90912 -6.62866 -1.41521e-19)
(2.77559 -6.31439 3.75924e-20)
(2.64899 -6.01603 1.40105e-19)
(2.52909 -5.73293 -2.75849e-20)
(2.41563 -5.46433 0)
(2.30822 -5.20939 3.99165e-20)
(2.20683 -4.96702 0)
(2.11213 -4.73574 3.0799e-20)
(2.02117 -4.51553 -4.74606e-20)
(8.49447 -17.5383 -4.95683e-19)
(7.68071 -16.9627 9.86159e-19)
(7.47922 -16.1402 4.17563e-19)
(7.11919 -15.4434 0)
(6.81729 -14.7551 -3.16526e-19)
(6.51958 -14.0964 0)
(6.23219 -13.4625 -2.4129e-19)
(5.95553 -12.8521 -1.12584e-20)
(5.68898 -12.265 -1.13843e-20)
(5.43247 -11.7009 -1.61368e-19)
(5.18597 -11.1596 -1.4134e-19)
(4.94939 -10.6406 -1.2391e-19)
(4.72256 -10.1434 0)
(4.5053 -9.66748 8.55754e-20)
(4.29737 -9.21216 -1.85173e-20)
(4.09853 -8.77683 -1.56343e-19)
(3.90853 -8.36089 -1.88686e-19)
(3.72711 -7.96377 6.39407e-20)
(3.55405 -7.58493 9.65996e-20)
(3.38914 -7.22387 -2.25462e-19)
(3.23218 -6.88012 4.41769e-20)
(3.08297 -6.55323 0)
(2.94133 -6.24269 0)
(2.80707 -5.94795 2.55826e-20)
(2.67997 -5.66838 -7.79298e-20)
(2.55973 -5.40324 0)
(2.44596 -5.15171 -2.00364e-20)
(2.33861 -4.91268 0)
(2.23836 -4.68458 0)
(2.14216 -4.4675 5.97628e-20)
(8.9504 -17.3112 -1.07698e-18)
(8.12287 -16.7588 -4.71046e-19)
(7.90077 -15.943 -4.17565e-19)
(7.52302 -15.2564 0)
(7.20338 -14.5764 6.33378e-19)
(6.88857 -13.9256 -2.61403e-19)
(6.58458 -13.2991 2.69275e-19)
(6.29188 -12.6958 2.23936e-19)
(6.00989 -12.1156 1.84625e-19)
(5.73855 -11.5582 3.14218e-19)
(5.47783 -11.0233 -8.64734e-21)
(5.22762 -10.5105 1.30949e-20)
(4.98777 -10.0193 2.30629e-19)
(4.75806 -9.54916 -1.81286e-19)
(4.53824 -9.09939 1.78045e-19)
(4.32804 -8.6694 1.40553e-19)
(4.12719 -8.25858 -2.62105e-19)
(3.93543 -7.86635 2.37195e-19)
(3.75252 -7.49218 -9.69452e-20)
(3.57822 -7.13559 9.53163e-20)
(3.41233 -6.79613 3.85575e-21)
(3.25466 -6.47333 1.42856e-19)
(3.10501 -6.16674 -6.67337e-20)
(2.96318 -5.87583 8.22816e-20)
(2.82896 -5.6 -2.791e-20)
(2.70203 -5.33852 0)
(2.58201 -5.09059 0)
(2.46881 -4.85509 -5.13871e-20)
(2.36314 -4.63037 6.86363e-20)
(2.26185 -4.4166 1.55683e-20)
(9.40028 -17.0723 1.07762e-18)
(8.55967 -16.5435 0)
(8.3172 -15.7349 3.94438e-19)
(7.92201 -15.059 -3.86621e-19)
(7.58482 -14.3876 3.21992e-22)
(7.25309 -13.7451 2.6169e-19)
(6.93266 -13.1265 -2.56602e-19)
(6.62409 -12.5308 0)
(6.32682 -11.9578 -1.84626e-19)
(6.0408 -11.4074 3.06134e-19)
(5.76601 -10.8793 -3.00404e-19)
(5.50234 -10.3731 1.11216e-19)
(5.24961 -9.88828 -4.37667e-19)
(5.00759 -9.42422 2.12449e-20)
(4.77601 -8.98034 3.38305e-19)
(4.55458 -8.55599 -1.57067e-19)
(4.34302 -8.15058 1.24357e-19)
(4.14104 -7.76353 -1.79965e-19)
(3.94838 -7.39431 -9.72884e-20)
(3.7648 -7.04244 9.56537e-20)
(3.59009 -6.70749 -1.16762e-19)
(3.42404 -6.38902 7.53576e-20)
(3.26647 -6.0866 0)
(3.11716 -5.79973 -2.83487e-20)
(2.97591 -5.52782 0)
(2.84241 -5.2702 0)
(2.71623 -5.02606 -7.82033e-20)
(2.59731 -4.79429 5.87226e-20)
(2.48634 -4.57316 6.34669e-20)
(2.38011 -4.36289 -1.27344e-19)
(9.84381 -16.8217 -4.97155e-19)
(8.99085 -16.317 5.16428e-19)
(8.72825 -15.516 3.94822e-19)
(8.31587 -14.8511 -3.86997e-19)
(7.96134 -14.1889 -3.17176e-19)
(7.61288 -13.555 -2.61976e-19)
(7.27619 -12.9448 2.8018e-20)
(6.95193 -12.357 4.24533e-19)
(6.63955 -11.7917 -1.96259e-19)
(6.33901 -11.2487 0)
(6.05032 -10.7278 0)
(5.77334 -10.2285 2.35724e-19)
(5.50788 -9.75036 -2.31409e-19)
(5.2537 -9.29275 0)
(5.01051 -8.85506 0)
(4.77799 -8.43667 0)
(4.55585 -8.03696 0)
(4.34377 -7.65536 0)
(4.14148 -7.29135 -9.76267e-20)
(3.94873 -6.94446 9.59863e-20)
(3.7653 -6.61426 7.69462e-20)
(3.59098 -6.30035 -7.56857e-20)
(3.42557 -6.00231 0)
(3.26889 -5.71968 0)
(3.1207 -5.4519 0)
(2.98071 -5.19832 0)
(2.84849 -4.95818 0)
(2.72395 -4.73034 0)
(2.60782 -4.51299 0)
(2.49682 -4.30643 0)
(10.2807 -16.5596 0)
(9.41612 -16.0793 0)
(9.1337 -15.2866 0)
(8.70437 -14.633 0)
(8.33268 -13.9803 6.35634e-19)
(7.96771 -13.3556 5.54963e-19)
(7.61495 -12.754 2.55611e-19)
(7.27516 -12.1746 6.48404e-19)
(6.94785 -11.6174 0)
(6.63298 -11.0822 0)
(6.33055 -10.5688 5.53427e-19)
(6.04043 -10.0768 -5.00218e-19)
(5.76241 -9.60567 6.58187e-19)
(5.49623 -9.15482 -1.11246e-20)
(5.24158 -8.72364 1.69453e-19)
(4.99812 -8.3115 7.73622e-21)
(4.76552 -7.91777 2.7095e-19)
(4.54347 -7.5419 1.10584e-19)
(4.33168 -7.18336 -5.54888e-21)
(4.12987 -6.8417 8.69234e-20)
(3.93782 -6.5165 -8.54813e-20)
(3.75532 -6.20737 0)
(3.58218 -5.91392 6.45323e-20)
(3.41819 -5.63573 5.76743e-20)
(3.26316 -5.37227 5.16521e-20)
(3.11678 -5.12294 4.63575e-20)
(2.97862 -4.88699 7.95242e-20)
(2.84859 -4.66327 -6.67972e-21)
(2.72743 -4.44993 -1.35334e-19)
(2.61184 -4.24728 4.68534e-21)
(10.7107 -16.2863 1.57902e-18)
(9.83523 -15.8308 -5.17344e-19)
(9.53329 -15.0466 4.43535e-19)
(9.08724 -14.4047 -3.41051e-19)
(8.69858 -13.762 -1.57257e-18)
(8.31731 -13.1468 2.95341e-19)
(7.94869 -12.5543 -7.14116e-19)
(7.59357 -11.9837 2.25431e-19)
(7.25151 -11.4349 -2.00847e-20)
(6.92249 -10.9079 -3.44352e-19)
(6.6065 -10.4024 -2.69092e-19)
(6.30342 -9.91804 2.64494e-19)
(6.01301 -9.45427 -2.19002e-19)
(5.735 -9.01051 1.83089e-19)
(5.46904 -8.58615 -3.48931e-19)
(5.21478 -8.18054 3.26928e-22)
(4.97188 -7.79308 -2.57182e-19)
(4.74 -7.42321 1.1729e-19)
(4.51882 -7.0704 -1.04314e-20)
(4.30807 -6.73422 -9.38465e-21)
(4.10751 -6.41424 -2.44972e-19)
(3.91693 -6.11011 7.63193e-20)
(3.73613 -5.82147 -1.29374e-19)
(3.56493 -5.54792 3.10319e-22)
(3.40314 -5.28899 -1.50732e-19)
(3.25046 -5.04409 5.11797e-20)
(3.10646 -4.81252 -8.01812e-20)
(2.97104 -4.59315 7.89642e-20)
(2.84498 -4.38403 3.42001e-20)
(2.725 -4.18551 0)
(11.1334 -16.0017 9.62535e-22)
(10.2479 -15.5715 9.474e-19)
(9.9268 -14.7962 -8.39137e-19)
(9.46428 -14.1664 -7.26531e-22)
(9.05878 -13.5342 1.27317e-18)
(8.66146 -12.9288 5.62364e-22)
(8.27717 -12.3459 -4.85768e-19)
(7.90692 -11.7844 -4.2418e-19)
(7.55032 -11.2444 3.71078e-19)
(7.20734 -10.726 -3.253e-19)
(6.87799 -10.2287 -2.84732e-19)
(6.56213 -9.75235 0)
(6.25951 -9.29626 2.08111e-19)
(5.96983 -8.85991 -5.90417e-19)
(5.69274 -8.44265 0)
(5.42784 -8.04387 -1.49675e-19)
(5.17479 -7.66296 0)
(4.9332 -7.29934 -2.99973e-22)
(4.70277 -6.95252 -4.88211e-21)
(4.48319 -6.62205 -9.69269e-20)
(4.27423 -6.30753 3.69504e-21)
(4.07565 -6.00862 1.46064e-19)
(3.88729 -5.72499 -3.48188e-21)
(3.70895 -5.45628 5.3123e-20)
(3.54047 -5.20206 -1.61622e-19)
(3.38156 -4.9618 0)
(3.23181 -4.73482 0)
(3.09112 -4.52001 -3.82085e-20)
(2.96029 -4.31534 -3.42004e-20)
(2.83611 -4.12117 -6.41782e-20)
(11.5488 -15.7062 -1.08197e-18)
(10.654 -15.3016 -1.39885e-18)
(10.314 -14.5355 -3.98299e-19)
(9.83524 -13.9182 7.29545e-19)
(9.41307 -13.2968 -6.36902e-19)
(8.9999 -12.7017 -5.5611e-19)
(8.60018 -12.1287 4.85772e-19)
(8.215 -11.5767 4.25097e-19)
(7.84405 -11.046 0)
(7.48732 -10.5365 3.25302e-19)
(7.14481 -10.0479 0)
(6.81636 -9.5798 0)
(6.50173 -9.13173 0)
(6.20057 -8.70309 1.93204e-19)
(5.91251 -8.29324 0)
(5.63715 -7.90157 0)
(5.37408 -7.52746 1.25983e-19)
(5.12294 -7.17036 1.10727e-19)
(4.88339 -6.82977 0)
(4.6551 -6.50524 0)
(4.43783 -6.1964 8.2152e-20)
(4.23136 -5.90292 -7.32233e-20)
(4.0355 -5.62451 6.54066e-20)
(3.85009 -5.36083 0)
(3.67497 -5.11152 5.2266e-20)
(3.5099 -4.87608 0)
(3.35447 -4.6539 0)
(3.20858 -4.44387 7.67198e-20)
(3.07309 -4.24391 0)
(2.94494 -4.05434 0)
(11.9567 -15.3999 0)
(11.0532 -15.0213 0)
(10.6945 -14.2647 8.40765e-19)
(10.1999 -13.6602 0)
(9.76118 -13.0501 -3.01556e-19)
(9.33241 -12.4656 2.95649e-19)
(8.91747 -11.903 -4.6022e-19)
(8.51758 -11.361 8.54234e-19)
(8.1325 -10.8399 -2.24367e-20)
(7.76224 -10.3396 -3.26064e-19)
(7.40677 -9.85996 5.56413e-19)
(7.06595 -9.40052 -1.47532e-20)
(6.7395 -8.96078 2.20354e-19)
(6.42705 -8.54015 0)
(6.12821 -8.138 3.32597e-19)
(5.84254 -7.7537 -3.01885e-19)
(5.56964 -7.38666 2.73366e-19)
(5.30909 -7.03632 -2.29195e-19)
(5.06054 -6.70219 2.14178e-19)
(4.82367 -6.38383 9.26121e-20)
(4.5982 -6.08088 2.47715e-22)
(4.38391 -5.79303 7.32239e-20)
(4.18062 -5.52002 -6.54072e-20)
(3.98819 -5.26157 5.88046e-20)
(3.80648 -5.01735 5.27979e-20)
(3.63527 -4.78692 0)
(3.4742 -4.56974 -3.91379e-20)
(3.32316 -4.36473 6.88161e-21)
(3.18308 -4.16975 1.75521e-19)
(3.05114 -3.98505 -3.62665e-20)
(12.3567 -15.083 5.8523e-19)
(11.4454 -14.7307 -8.8324e-19)
(11.0682 -13.9839 4.617e-20)
(10.5579 -13.3925 7.75276e-19)
(10.1029 -12.7942 6.40787e-19)
(9.65873 -12.2208 2.61793e-19)
(9.22882 -11.6688 4.8722e-19)
(8.81445 -11.1371 4.03284e-19)
(8.41546 -10.626 -1.12012e-18)
(8.03189 -10.1354 6.72016e-19)
(7.66369 -9.66508 -5.71993e-19)
(7.31071 -9.21462 3.13549e-22)
(6.97265 -8.78352 -2.20356e-19)
(6.64912 -8.37119 -1.9411e-19)
(6.33969 -7.97701 -1.70713e-19)
(6.0439 -7.60035 2.93957e-19)
(5.76133 -7.24063 -4.06885e-19)
(5.49153 -6.89729 0)
(5.23413 -6.56983 -1.04298e-19)
(4.98879 -6.25785 -9.2613e-20)
(4.75522 -5.96099 -1.61079e-19)
(4.5332 -5.67896 7.73891e-20)
(4.32254 -5.41152 1.25665e-19)
(4.12311 -5.15846 -1.82464e-19)
(3.93481 -4.91949 -5.27984e-20)
(3.75747 -4.69426 -9.13449e-20)
(3.59075 -4.48227 4.70512e-20)
(3.43456 -4.28251 -1.13516e-19)
(3.2899 -4.09281 3.84865e-20)
(3.1543 -3.91326 -3.38185e-20)
(12.7492 -14.7557 -4.10163e-20)
(11.8304 -14.43 4.30359e-19)
(11.4349 -13.6932 8.43188e-19)
(10.9092 -13.1153 -3.85662e-19)
(10.4379 -12.529 -6.41386e-19)
(9.9786 -11.9672 -5.25374e-19)
(9.53397 -11.4263 -2.28511e-19)
(9.10536 -10.9054 -4.2596e-19)
(8.69271 -10.4046 3.73072e-19)
(8.29606 -9.92403 0)
(7.91537 -9.46335 2.86165e-19)
(7.55047 -9.0222 -2.51141e-19)
(7.20102 -8.60004 -2.20936e-19)
(6.86662 -8.19631 1.94112e-19)
(6.5468 -7.81037 -1.7124e-19)
(6.2411 -7.44161 -1.50831e-19)
(5.94902 -7.08944 1.26532e-19)
(5.67014 -6.75331 -1.24578e-19)
(5.40404 -6.43275 0)
(5.15036 -6.12734 0)
(4.90881 -5.83674 0)
(4.67913 -5.56069 1.40861e-19)
(4.46115 -5.29898 -1.38582e-19)
(4.25474 -5.05144 0)
(4.05984 -4.81787 0)
(3.87631 -4.598 0)
(3.70389 -4.3914 0)
(3.5425 -4.19718 -3.92365e-20)
(3.3932 -4.01315 -6.84019e-20)
(3.25417 -3.83905 3.68618e-20)
(13.135 -14.4189 5.02902e-19)
(12.2083 -14.1192 -5.20569e-19)
(11.7941 -13.3926 -1.24113e-18)
(11.2535 -12.8287 1.12326e-18)
(10.7661 -12.2548 -3.02374e-19)
(10.2917 -11.7049 2.9645e-19)
(9.83264 -11.1756 2.6545e-20)
(9.39005 -10.6658 1.28297e-18)
(8.964 -10.1758 -7.68997e-19)
(8.55453 -9.70559 3.27071e-19)
(8.16161 -9.25491 2.86773e-19)
(7.78503 -8.82338 2.3844e-19)
(7.42444 -8.41047 2.08063e-19)
(7.0794 -8.01561 -1.84534e-19)
(6.74942 -7.63818 3.61286e-19)
(6.43399 -7.27756 1.59795e-19)
(6.13262 -6.93317 1.33485e-19)
(5.84483 -6.60447 -1.12469e-19)
(5.57019 -6.29099 2.10356e-19)
(5.30832 -5.99233 -9.81232e-20)
(5.05889 -5.70815 0)
(4.82164 -5.43821 0)
(4.59638 -5.18234 0)
(4.38299 -4.94042 1.13398e-19)
(4.18141 -4.71234 -1.11611e-19)
(3.99158 -4.49794 0)
(3.81331 -4.29694 0)
(3.64654 -4.10859 3.92369e-20)
(3.49237 -3.93074 -6.87997e-20)
(3.35018 -3.76255 1.05965e-19)
(13.5154 -14.073 -4.18045e-20)
(12.5794 -13.7978 -5.21348e-19)
(12.1455 -13.0819 -8.44577e-19)
(11.5906 -12.5329 -3.86484e-19)
(11.0872 -11.9716 3.00464e-19)
(10.5978 -11.4342 -5.59101e-19)
(10.1246 -10.9169 -4.88068e-19)
(9.66833 -10.4186 -4.26724e-19)
(9.22914 -9.93976 0)
(8.80713 -9.48027 -6.36957e-19)
(8.40224 -9.03993 3.0437e-19)
(8.01424 -8.61833 -2.38707e-19)
(7.64275 -8.21496 2.34592e-19)
(7.28731 -7.82924 0)
(6.9474 -7.46056 -1.71479e-19)
(6.62248 -7.10832 1.5151e-19)
(6.31202 -6.77192 1.33895e-19)
(6.01552 -6.45084 0)
(5.73252 -6.14462 0)
(5.46261 -5.85285 0)
(5.20544 -5.57522 8.31092e-20)
(4.96072 -5.31148 -6.72972e-20)
(4.72822 -5.0615 1.39145e-19)
(4.50782 -4.8252 5.93905e-20)
(4.29944 -4.60258 0)
(4.10304 -4.39363 0)
(3.91853 -4.19828 -4.0036e-20)
(3.74584 -4.01594 1.21485e-19)
(3.58584 -3.84445 0)
(3.43903 -3.68264 0)
(13.8898 -13.7155 -1.04791e-18)
(12.9436 -13.4641 5.21962e-19)
(12.4884 -12.7611 4.45985e-19)
(11.9197 -12.2281 4.36754e-20)
(11.4012 -11.6795 -3.00182e-19)
(10.8969 -11.1555 5.59107e-19)
(10.4097 -10.6505 0)
(9.94011 -10.1642 0)
(9.48808 -9.6968 0)
(9.0538 -9.24837 -3.10189e-19)
(8.63721 -8.81866 1.73159e-20)
(8.23804 -8.40728 0)
(7.85591 -8.01373 -2.2146e-19)
(7.49032 -7.63741 0)
(7.14071 -7.27772 0)
(6.80652 -6.93407 -2.95534e-19)
(6.48719 -6.60586 7.61279e-21)
(6.18219 -6.29259 0)
(5.89103 -5.99379 0)
(5.61328 -5.70904 8.90218e-20)
(5.34855 -5.43804 -1.70655e-19)
(5.0965 -5.18055 -2.15752e-19)
(4.85687 -4.93643 1.39326e-19)
(4.62948 -4.70563 -5.93912e-20)
(4.41418 -4.4882 0)
(4.21088 -4.28433 0)
(4.01949 -4.09413 -4.34056e-20)
(3.84009 -3.91695 -3.93108e-20)
(3.67271 -3.75067 6.85193e-20)
(3.515 -3.59621 -7.13511e-20)
(19.5612 0.122937 5.13166e-20)
(19.5521 -0.392686 6.57276e-20)
(19.5301 -0.905873 1.99817e-19)
(19.4965 -1.41718 2.62851e-19)
(19.4507 -1.92688 -1.36757e-19)
(19.3919 -2.43485 1.36753e-19)
(19.32 -2.94087 2.12528e-20)
(19.2349 -3.44466 -2.73504e-19)
(19.1368 -3.94596 5.46932e-19)
(19.0256 -4.44444 -8.20399e-19)
(18.9015 -4.93979 5.46838e-19)
(18.7645 -5.43169 -7.99016e-19)
(18.6147 -5.9198 -8.20046e-19)
(18.4522 -6.4038 1.00299e-22)
(18.2771 -6.88336 4.24793e-20)
(18.0896 -7.35815 0)
(17.8898 -7.82787 5.03943e-19)
(17.6778 -8.29219 1.09228e-18)
(17.4539 -8.7508 -1.09206e-18)
(17.218 -9.20341 5.03446e-19)
(16.9705 -9.6497 0)
(16.7115 -10.0894 -1.59397e-18)
(16.4412 -10.5222 3.34787e-22)
(16.1598 -10.9479 1.09052e-18)
(15.8675 -11.3661 0)
(15.5645 -11.7768 -5.87166e-19)
(15.251 -12.1797 4.25039e-20)
(14.9277 -12.5747 -5.02423e-19)
(14.5935 -12.9625 5.44788e-19)
(14.252 -13.3414 1.04757e-18)
(18.7627 -0.368263 0)
(18.7433 -0.861587 -3.27542e-20)
(18.7103 -1.35256 -8.45994e-21)
(18.6648 -1.84154 -1.30995e-19)
(18.6067 -2.32876 -2.39668e-19)
(18.536 -2.81408 2.39668e-19)
(18.4528 -3.2972 2.62022e-19)
(18.357 -3.77781 0)
(18.2488 -4.25564 -4.79417e-19)
(18.1281 -4.73038 2.51087e-19)
(17.9952 -5.20172 -2.2832e-19)
(17.85 -5.66935 5.12951e-19)
(17.6926 -6.13294 -2.51027e-19)
(17.5232 -6.5922 -4.79144e-19)
(17.3419 -7.0468 1.00279e-18)
(17.1489 -7.49644 0)
(16.9441 -7.94083 -1.00221e-18)
(16.7279 -8.37966 4.7881e-19)
(16.5003 -8.81265 0)
(16.2616 -9.23951 -5.22962e-19)
(16.0119 -9.65997 -9.56441e-19)
(15.7514 -10.0738 1.47908e-18)
(15.4802 -10.4806 -9.55804e-19)
(15.1986 -10.8803 9.55812e-19)
(14.9068 -11.2726 0)
(14.6049 -11.6573 8.87818e-19)
(14.2931 -12.0344 -4.33038e-19)
(13.9717 -12.4035 5.21842e-19)
(13.6398 -12.765 0)
(13.2982 -13.118 -5.21918e-19)
(17.958 -0.198294 0)
(17.9449 -0.66895 0)
(17.9187 -1.13869 -5.84819e-21)
(17.8799 -1.60713 1.0015e-19)
(17.8288 -2.07408 -2.12439e-19)
(17.7654 -2.53931 3.1264e-19)
(17.6897 -3.00251 0)
(17.6019 -3.46337 2.00466e-19)
(17.5021 -3.92161 4.25045e-19)
(17.3903 -4.37693 2.23786e-19)
(17.2665 -4.82904 -2.01264e-19)
(17.131 -5.27765 2.32775e-20)
(16.9837 -5.72245 1.77198e-19)
(16.8249 -6.16315 -8.25756e-19)
(16.6545 -6.59945 8.25694e-19)
(16.4728 -7.03106 -4.00743e-19)
(16.2799 -7.45769 -4.24597e-19)
(16.076 -7.87906 4.24599e-19)
(15.8611 -8.2949 -4.0044e-19)
(15.6354 -8.70492 -4.0032e-19)
(15.3991 -9.10886 0)
(15.1524 -9.50647 -4.47831e-19)
(14.8955 -9.89749 8.47894e-19)
(14.6285 -10.2817 8.47302e-19)
(14.3516 -10.6589 -8.4731e-19)
(14.0649 -11.0288 -4.63712e-20)
(13.7686 -11.3913 -8.4643e-19)
(13.4628 -11.7461 1.24562e-18)
(13.1475 -12.0931 8.45739e-19)
(12.8225 -12.4313 -4.46913e-19)
(17.1704 -0.226974 0)
(17.1577 -0.676696 0)
(17.1329 -1.12562 -4.90656e-20)
(17.096 -1.57337 -9.81649e-20)
(17.0473 -2.01973 -8.72007e-20)
(16.9866 -2.46445 7.62414e-20)
(16.9142 -2.90726 1.84554e-19)
(16.83 -3.34787 -5.65628e-19)
(16.7341 -3.78598 1.84581e-19)
(16.6267 -4.2213 0)
(16.5079 -4.65355 1.74584e-19)
(16.3776 -5.08243 1.9651e-19)
(16.2361 -5.50765 -3.92987e-19)