/*--------------------------------*- C++ -*----------------------------------*\
  =========                 |
  \\      /  F ield         | OpenFOAM: The Open Source CFD Toolbox
   \\    /   O peration     | Website:  https://openfoam.org
    \\  /    A nd           | Version:  6.0
     \\/     M anipulation  |
\*---------------------------------------------------------------------------*/
FoamFile
{
    version     2.0;
    format      ascii;
    class       surfaceScalarField;
    location    "20.25";
    object      phi;
}
// * * * * * * * * * * * * * * * * * * * * * * * * * * * * * * * * * * * * * //

dimensions      [0 3 -1 0 0 0 0];

internalField   nonuniform List<scalar> 
18940
(
0.000509651
-0.472596
0.472087
0.00183196
-0.44997
0.448648
0.00355981
-0.434097
0.432369
0.00542524
-0.420148
0.418283
0.00728583
-0.406846
0.404985
0.00907142
-0.393528
0.391742
0.0107565
-0.380126
0.378441
0.0123418
-0.366834
0.365249
0.0138411
-0.353872
0.352373
0.0152719
-0.341411
0.33998
0.0166512
-0.329554
0.328174
0.017993
-0.318347
0.317005
0.0193076
-0.307797
0.306482
0.0206024
-0.297884
0.296589
0.0218829
-0.288576
0.287295
0.0231536
-0.279835
0.278564
0.02442
-0.271619
0.270353
0.0256882
-0.263871
0.262603
0.0269648
-0.256509
0.255232
-0.249415
0.248124
0.0282554
0.000550498
-0.473147
0.00187384
-0.451294
0.00358651
-0.435809
0.00542928
-0.421991
0.00725964
-0.408676
0.00901005
-0.395278
0.010658
-0.381774
0.0122063
-0.368382
0.0136697
-0.355336
0.0150663
-0.342808
0.0164133
-0.330901
0.0177245
-0.319658
0.0190099
-0.309082
0.0202766
-0.29915
0.0215293
-0.289829
0.0227722
-0.281078
0.0240104
-0.272857
0.0252503
-0.265111
0.0264989
-0.257757
-0.250679
0.0277632
0.000587081
-0.473734
0.00190938
-0.452616
0.0036029
-0.437503
0.00541832
-0.423806
0.00721509
-0.410473
0.00892759
-0.396991
0.0105358
-0.383382
0.0120444
-0.369891
0.0134695
-0.356761
0.0148297
-0.344168
0.0161423
-0.332213
0.017421
-0.320937
0.0186755
-0.310337
0.0199122
-0.300387
0.0211356
-0.291052
0.0223493
-0.282292
0.0235579
-0.274066
0.0247679
-0.266321
0.025987
-0.258976
-0.251916
0.027224
0.00059924
-0.474333
0.00192579
-0.453943
0.00360365
-0.439181
0.00539045
-0.425593
0.00715106
-0.412233
0.00882307
-0.398663
0.010389
-0.384948
0.0118557
-0.371358
0.0132402
-0.358145
0.0145619
-0.34549
0.0158382
-0.33349
0.0170826
-0.322181
0.0183046
-0.311559
0.0195101
-0.301593
0.0207031
-0.292245
0.0218866
-0.283475
0.0230649
-0.275244
0.0242445
-0.2675
0.025434
-0.260166
-0.253127
0.0266444
0.000610499
-0.474944
0.00193408
-0.455266
0.00359251
-0.440839
0.00534759
-0.427348
0.00706889
-0.413955
0.00869755
-0.400291
0.0102187
-0.386469
0.0116409
-0.37278
0.0129826
-0.359487
0.0142637
-0.346771
0.0155018
-0.334728
0.0167101
-0.32339
0.017898
-0.312747
0.019071
-0.302766
0.0202325
-0.293406
0.0213853
-0.284628
0.0225332
-0.276392
0.0236826
-0.26865
0.0248433
-0.261327
-0.254312
0.0260285
0.000614655
-0.475558
0.00193149
-0.456583
0.00356816
-0.442476
0.00528918
-0.429069
0.00696853
-0.415634
0.00855109
-0.401874
0.0100248
-0.387943
0.0114001
-0.374155
0.0126967
-0.360784
0.013935
-0.348009
0.0151328
-0.335925
0.0163033
-0.32456
0.0174554
-0.313899
0.0185947
-0.303905
0.019724
-0.294536
0.0208455
-0.28575
0.021963
-0.277509
0.0230828
-0.269769
0.0242157
-0.262459
-0.255473
0.0253773
0.000616977
-0.476175
0.00192241
-0.457888
0.00353314
-0.444087
0.0052167
-0.430753
0.00685103
-0.417268
0.00838463
-0.403408
0.00980815
-0.389367
0.011134
-0.375481
0.012383
-0.362033
0.0135762
-0.349202
0.0147314
-0.337081
0.0158619
-0.325691
0.0169766
-0.315013
0.0180806
-0.305009
0.0191765
-0.295632
0.0202664
-0.28684
0.0213533
-0.278596
0.022444
-0.27086
0.0235501
-0.263566
-0.256613
0.0246898
0.000615709
-0.476791
0.00190608
-0.459179
0.00348754
-0.445668
0.00513056
-0.432396
0.00671697
-0.418855
0.00819877
-0.404889
0.00956935
-0.390737
0.0108431
-0.376755
0.0120417
-0.363231
0.0131871
-0.350348
0.0142971
-0.338191
0.0153853
-0.326779
0.0164602
-0.316088
0.017527
-0.306076
0.0185882
-0.296693
0.0196453
-0.287897
0.0207015
-0.279652
0.0217633
-0.271922
0.0228435
-0.264646
-0.257732
0.0239627
0.000612251
-0.477403
0.00188414
-0.460451
0.00343285
-0.447217
0.00503211
-0.433995
0.00656756
-0.42039
0.00799463
-0.406316
0.00930939
-0.392052
0.010528
-0.377973
0.0116735
-0.364377
0.012768
-0.351442
0.0138298
-0.339253
0.0148725
-0.327821
0.0159047
-0.317121
0.0169316
-0.307103
0.0179557
-0.297717
0.0189785
-0.28892
0.0200028
-0.280677
0.0210352
-0.272954
0.0220897
-0.2657
-0.258832
0.0231893
0.000606326
-0.478009
0.00185676
-0.461701
0.00336974
-0.44873
0.00492232
-0.435548
0.00640394
-0.421872
0.0077734
-0.407686
0.0090294
-0.393308
0.0101899
-0.379134
0.0112788
-0.365466
0.0123191
-0.352482
0.0133291
-0.340263
0.0143225
-0.328815
0.0153083
-0.318106
0.0162916
-0.308086
0.0172751
-0.2987
0.0182604
-0.289905
0.0192503
-0.281667
0.0202515
-0.273956
0.0212789
-0.266728
-0.259912
0.0223589
0.000598594
-0.478608
0.00182504
-0.462927
0.00329958
-0.450204
0.00480278
-0.437051
0.00622782
-0.423297
0.00753683
-0.408995
0.00873104
-0.394502
0.00983011
-0.380233
0.010859
-0.366495
0.011841
-0.353464
0.012795
-0.341217
0.0137346
-0.329754
0.0146691
-0.319041
0.0156039
-0.309021
0.016542
-0.299639
0.0174851
-0.290848
0.0184362
-0.282618
0.0194022
-0.274922
0.0203992
-0.267725
-0.26097
0.0214576
0.000589441
-0.479197
0.00178989
-0.464128
0.00322374
-0.451638
0.00467524
-0.438502
0.00604122
-0.424663
0.00728707
-0.410241
0.00841649
-0.395632
0.00945074
-0.381267
0.0104156
-0.367459
0.011335
-0.354384
0.0122277
-0.342109
0.0131079
-0.330635
0.013985
-0.319918
0.0148651
-0.309901
0.0157516
-0.300525
0.0166465
-0.291743
0.0175529
-0.283524
0.0184782
-0.275847
0.0194396
-0.268686
-0.262001
0.0204705
0.000579753
-0.479777
0.00175286
-0.465301
0.00314419
-0.45303
0.00454197
-0.4399
0.00584668
-0.425968
0.00702689
-0.411421
0.00808871
-0.396693
0.00905479
-0.382233
0.00995166
-0.368356
0.0108033
-0.355235
0.0116288
-0.342935
0.0124423
-0.331448
0.0132541
-0.32073
0.0140708
-0.310718
0.0148969
-0.301351
0.0157354
-0.292581
0.0165899
-0.284379
0.0174682
-0.276725
0.0183879
-0.269606
-0.262994
0.0193808
0.000570654
-0.480348
0.0017158
-0.466446
0.00306307
-0.454377
0.00440547
-0.441243
0.00564711
-0.427209
0.00675965
-0.412534
0.00775143
-0.397685
0.00864634
-0.383128
0.00947135
-0.369181
0.0102503
-0.356014
0.0110022
-0.343687
0.011741
-0.332187
0.0124771
-0.321466
0.0132182
-0.311459
0.0139702
-0.302103
0.0147381
-0.293349
0.0155278
-0.285168
0.0163478
-0.277545
0.0172154
-0.270473
-0.263941
0.0181621
0.000563642
-0.480912
0.00168071
-0.467563
0.00298262
-0.455679
0.00426846
-0.442528
0.00544591
-0.428387
0.0064894
-0.413577
0.00740929
-0.398605
0.00823054
-0.38395
0.00898031
-0.369931
0.00968218
-0.356716
0.0103545
-0.344359
0.0110107
-0.332843
0.0116607
-0.322116
0.0123121
-0.31211
0.0129715
-0.302762
0.0136459
-0.294024
0.014344
-0.285866
0.0150778
-0.278279
0.0158699
-0.271265
-0.264847
0.0167759
0.000560132
-0.481472
0.00164915
-0.468652
0.00290508
-0.456935
0.00413418
-0.443757
0.00524729
-0.4295
0.00622118
-0.414551
0.00706806
-0.399452
0.00781376
-0.384695
0.00848539
-0.370603
0.00910598
-0.357337
0.00969312
-0.344946
0.0102596
-0.33341
0.0108147
-0.322671
0.011365
-0.31266
0.0119158
-0.303313
0.0124727
-0.294581
0.013044
-0.286438
0.0136473
-0.278882
0.0143227
-0.271941
-0.265697
0.0151724
0.000561219
-0.482033
0.00162326
-0.469714
0.00283433
-0.458146
0.00400743
-0.444931
0.00505656
-0.430549
0.005961
-0.415455
0.00673478
-0.400226
0.00740426
-0.385365
0.00799593
-0.371194
0.00853152
-0.357872
0.00902722
-0.345442
0.00949481
-0.333877
0.00994323
-0.323119
0.0103796
-0.313097
0.0108095
-0.303743
0.0112367
-0.295008
0.0116655
-0.286866
0.0121102
-0.279327
0.012617
-0.272448
-0.266326
0.0132467
0.000569926
-0.482603
0.00161026
-0.470755
0.00277821
-0.459314
0.00389455
-0.446047
0.00487917
-0.431534
0.00571483
-0.416291
0.00641711
-0.400928
0.00701235
-0.38596
0.00752556
-0.371708
0.00797588
-0.358323
0.00837612
-0.345842
0.00873443
-0.334235
0.00905678
-0.323442
0.00934971
-0.31339
0.00962259
-0.304016
0.00988814
-0.295273
0.0101588
-0.287137
0.0104383
-0.279607
0.0107148
-0.272724
-0.266434
0.0108226
0.000600954
-0.483204
0.00162585
-0.47178
0.00274523
-0.460433
0.00379969
-0.447101
0.00471846
-0.432452
0.00548728
-0.41706
0.00612223
-0.401563
0.00664899
-0.386487
0.0070908
-0.372149
0.00746367
-0.358696
0.00777557
-0.346154
0.00802754
-0.334487
0.00821569
-0.32363
0.00833463
-0.313509
0.00838289
-0.304064
0.00836944
-0.29526
0.00831738
-0.287085
0.00825943
-0.279549
0.00821909
-0.272684
-0.26635
0.00813525
0.0006945
-0.483898
0.00167599
-0.472761
0.00273052
-0.461488
0.00371991
-0.448091
0.00457483
-0.433307
0.00528149
-0.417766
0.00585595
-0.402137
0.00632336
-0.386954
0.00670583
-0.372532
0.00701748
-0.359007
0.00726319
-0.3464
0.0074387
-0.334663
0.0075305
-0.323721
0.00751476
-0.313493
0.00735441
-0.303904
0.00699432
-0.2949
0.00636544
-0.286456
0.00545335
-0.278637
0.00457003
-0.2718
-0.267351
0.00557037
0.491982
0.000542339
-0.492524
0.491495
0.000487068
0.491029
0.000466299
0.490572
0.000456809
0.490121
0.000450526
0.489676
0.000445693
0.489234
0.000442068
0.488794
0.000439248
0.488358
0.000436719
0.487923
0.000434219
0.487492
0.000431462
0.487063
0.000428677
0.486638
0.000425394
0.486215
0.000422659
0.485797
0.000418424
0.485381
0.000416084
0.484974
0.000406778
0.484573
0.000401221
0.484213
0.000359624
0.000314904
0.487413
0.0011292
-0.488
0.486781
0.00111889
0.486126
0.00112181
0.485447
0.00113559
0.484745
0.00115218
0.484023
0.00116771
0.483284
0.00118177
0.482528
0.00119442
0.48176
0.00120542
0.480979
0.00121461
0.480189
0.00122182
0.47939
0.0012275
0.478584
0.00123145
0.477772
0.00123497
0.476954
0.0012365
0.476132
0.00123827
0.475305
0.00123383
0.474477
0.00122893
0.473631
0.0012056
0.0011847
0.476341
0.00153175
-0.476743
0.47587
0.00158977
0.475345
0.00164662
0.474774
0.0017065
0.47416
0.00176616
0.473506
0.00182189
0.472815
0.0018727
0.472091
0.00191871
0.471336
0.00196003
0.470554
0.00199676
0.469747
0.00202905
0.468916
0.00205755
0.468065
0.00208258
0.467195
0.00210578
0.466305
0.00212641
0.465397
0.00214607
0.464467
0.0021636
0.463514
0.00218244
0.462521
0.00219772
0.00221858
0.460377
0.00171356
-0.460559
0.460126
0.00184152
0.45981
0.00196209
0.459438
0.00207827
0.459015
0.00218977
0.458542
0.00229442
0.458024
0.00239119
0.457463
0.00248003
0.456861
0.00256113
0.456223
0.00263482
0.455551
0.00270148
0.454846
0.00276204
0.454112
0.00281748
0.453348
0.00286907
0.452557
0.00291805
0.451735
0.00296718
0.450882
0.00301673
0.449995
0.00307024
0.449065
0.00312767
0.0031924
0.442521
0.00171773
-0.442525
0.442451
0.00191182
0.442318
0.00209532
0.442126
0.00226942
0.441881
0.00243474
0.441585
0.00259032
0.441241
0.00273541
0.440851
0.0028698
0.440419
0.00299359
0.439947
0.00310724
0.439437
0.00321129
0.438892
0.00330691
0.438314
0.00339569
0.437704
0.00347922
0.437062
0.00355973
0.436388
0.00364121
0.435679
0.00372575
0.434932
0.00381669
0.434143
0.00391669
0.00402851
0.42442
0.00160903
-0.424311
0.424467
0.00186394
0.424457
0.00210615
0.42439
0.00233577
0.424272
0.00255331
0.424104
0.00275836
0.423889
0.00295039
0.423629
0.00312908
0.423329
0.00329445
0.422989
0.00344688
0.422613
0.00358712
0.422203
0.00371661
0.421762
0.00383675
0.421291
0.00395043
0.42079
0.0040613
0.420258
0.00417297
0.419694
0.00428964
0.419094
0.0044162
0.418454
0.00455705
0.00471605
0.407025
0.00144543
-0.406862
0.407133
0.00175616
0.407187
0.00205253
0.407189
0.00233399
0.407141
0.00260068
0.407047
0.00285228
0.406909
0.00308832
0.40673
0.00330836
0.406512
0.0035123
0.406259
0.00370037
0.405972
0.0038734
0.405656
0.00403294
0.405312
0.00418069
0.404943
0.00431995
0.404548
0.00445557
0.404129
0.00459227
0.403683
0.00473562
0.403207
0.00489266
0.402694
0.00506979
0.00527248
0.390801
0.00126828
-0.390624
0.390927
0.00163081
0.391002
0.00197744
0.391028
0.0023072
0.391009
0.00261985
0.390947
0.0029149
0.390843
0.00319182
0.390702
0.00345
0.390525
0.00368914
0.390316
0.00390926
0.390078
0.00411121
0.389815
0.00429593
0.38953
0.00446598
0.389224
0.00462545
0.388901
0.004779
0.38856
0.00493304
0.3882
0.00509554
0.387817
0.00527554
0.387405
0.00548218
0.00572318
0.37587
0.00110242
-0.375704
0.375987
0.00151376
0.376057
0.00190767
0.376081
0.00228289
0.376062
0.00263882
0.376002
0.00297476
0.375904
0.00328997
0.37577
0.00358357
0.375605
0.00385499
0.37541
0.00410387
0.37519
0.00433091
0.37495
0.00453665
0.374692
0.00472372
0.374421
0.00489652
0.374139
0.00506068
0.373849
0.0052236
0.373548
0.00539596
0.373234
0.00558961
0.372899
0.00581727
0.00609023
0.362172
0.000960132
-0.36203
0.362267
0.00141818
0.362318
0.00185729
0.362325
0.00227594
0.36229
0.00267327
0.362217
0.00304825
0.362107
0.00339992
0.361964
0.00372698
0.36179
0.0040286
0.36159
0.00430376
0.361368
0.00455266
0.36113
0.0047754
0.360878
0.00497511
0.36062
0.00515471
0.360359
0.00532147
0.360099
0.00548382
0.359839
0.00565545
0.359577
0.00585161
0.359305
0.00609006
0.00638766
0.349573
0.000845622
-0.349459
0.349642
0.00134898
0.349668
0.00183193
0.349651
0.0022927
0.349594
0.00273025
0.349499
0.00314313
0.349369
0.00353022
0.349206
0.00388955
0.349015
0.00422012
0.348799
0.00451986
0.348563
0.00478869
0.348313
0.00502533
0.348054
0.00523346
0.347795
0.00541364
0.347541
0.0055755
0.347299
0.00572656
0.347069
0.00588552
0.34685
0.00607054
0.346633
0.00630724
0.0066206
0.337925
0.000758573
-0.337838
0.337967
0.00130637
0.337967
0.00183233
0.337925
0.00233447
0.337844
0.00281159
0.337725
0.00326184
0.337571
0.00368396
0.337386
0.00407512
0.337172
0.00443424
0.336934
0.00475771
0.336677
0.0050457
0.336408
0.00529378
0.336134
0.00550738
0.335866
0.00568235
0.335609
0.00583231
0.335376
0.00595979
0.335168
0.00609296
0.33499
0.00624919
0.334828
0.00646851
0.00678587
0.327089
0.000696602
-0.327027
0.327107
0.00128833
0.327082
0.00185683
0.327017
0.00239996
0.326912
0.00291642
0.32677
0.00340398
0.326593
0.00386124
0.326383
0.00428441
0.326145
0.00467257
0.325883
0.00501955
0.325602
0.00532684
0.325311
0.00558534
0.325015
0.00580314
0.32473
0.00596698
0.324463
0.00609965
0.324234
0.00618898
0.324044
0.00628273
0.323908
0.00638549
0.323808
0.00656837
0.0068721
0.316951
0.000656773
-0.316911
0.316947
0.00129215
0.316901
0.00190295
0.316814
0.00248692
0.316688
0.00304276
0.316524
0.00356787
0.316324
0.00406083
0.316092
0.00451665
0.31583
0.00493492
0.315543
0.0053062
0.315236
0.00563432
0.314918
0.00590263
0.314596
0.0061255
0.31429
0.00627292
0.314004
0.00638558
0.313774
0.0064189
0.313595
0.00646142
0.313508
0.00647343
0.313478
0.00659805
0.00685701
0.307418
0.000636485
-0.307398
0.307395
0.00131539
0.30733
0.00196834
0.307223
0.00259311
0.307078
0.00318853
0.306894
0.00375166
0.306674
0.00428113
0.30642
0.0047706
0.306134
0.00522058
0.305822
0.00561773
0.305488
0.00596915
0.305142
0.0062478
0.304789
0.00647919
0.304456
0.00660545
0.304142
0.00669972
0.303906
0.00665466
0.303727
0.00664035
0.303697
0.00650412
0.303745
0.00654999
0.0066977
0.298415
0.000633954
-0.298413
0.298374
0.00135633
0.298292
0.00205128
0.298168
0.0027168
0.298004
0.00335204
0.297802
0.00395369
0.297563
0.00452062
0.297288
0.00504506
0.29698
0.00552849
0.296645
0.00595338
0.296282
0.00633186
0.295907
0.00662269
0.295518
0.0068683
0.295153
0.00697032
0.294799
0.00705373
0.294551
0.0069026
0.294355
0.00683654
0.294395
0.0064647
0.294514
0.00643092
0.00631141
0.289881
0.000648396
-0.289896
0.289823
0.00141415
0.289724
0.00215081
0.289584
0.00285688
0.289404
0.00353202
0.289185
0.00417261
0.288928
0.0047778
0.288634
0.00533839
0.288306
0.00585713
0.287947
0.00631207
0.287558
0.00672123
0.287153
0.00702731
0.286726
0.00729512
0.286324
0.00737307
0.285917
0.00746045
0.285646
0.00717364
0.28541
0.00707232
0.285547
0.0063277
0.285702
0.00627626
0.00555695
0.281762
0.000679691
-0.281793
0.281687
0.00148844
0.281572
0.00226608
0.281417
0.00301205
0.281222
0.00372671
0.280989
0.00440616
0.280716
0.00504987
0.280408
0.00564725
0.280062
0.00620259
0.279685
0.0066893
0.279274
0.00713236
0.278844
0.00745751
0.278383
0.0077559
0.277941
0.00781468
0.277473
0.00792844
0.277159
0.00748777
0.276847
0.00738461
0.277127
0.00604776
0.277302
0.00610093
0.00422243
0.274001
0.00072791
-0.274049
0.273911
0.00157823
0.273783
0.00239493
0.273616
0.00317892
0.273411
0.0039315
0.273169
0.00464837
0.272889
0.00532946
0.272574
0.00596268
0.272222
0.00655441
0.271838
0.00707307
0.271419
0.00755152
0.270978
0.00789872
0.270499
0.00823424
0.270031
0.00828266
0.269512
0.00844753
0.269134
0.00786584
0.268685
0.00783376
0.269055
0.00567768
0.269396
0.00576035
0.0018179
0.266542
-0.266609
0.000795
0.266437
0.0016831
0.266297
0.00253457
0.266124
0.00335221
0.265917
0.00413849
0.265676
0.00488868
0.265403
0.00560325
0.265097
0.00626831
0.264759
0.00689292
0.264391
0.00744102
0.263989
0.00795277
0.263566
0.00832255
0.263103
0.00869682
0.262639
0.0087464
0.26211
0.00897676
0.261668
0.00830751
0.261058
0.00844454
0.261124
0.00561127
0.261475
0.0054095
-0.00405787
0.496322
0.000118302
-0.49644
0.496277
4.47746e-05
0.496244
3.33627e-05
0.4962
4.37348e-05
0.496139
6.1398e-05
0.496056
8.31824e-05
0.495947
0.000108215
0.495812
0.000135305
0.495649
0.000163121
0.495458
0.000190672
0.495241
0.000217149
0.494999
0.000242236
0.494734
0.000265246
0.494447
0.000286515
0.494143
0.000304512
0.493821
0.000321096
0.493491
0.000330694
0.493151
0.000339635
0.492827
0.000323991
0.000302636
0.48887
-0.00041442
-0.488338
0.489325
-0.000410196
0.489732
-0.000372836
0.490083
-0.000307892
0.490375
-0.000230605
0.490607
-0.000148255
0.490778
-6.26581e-05
0.490888
2.50777e-05
0.490938
0.000113331
0.490928
0.000200554
0.490859
0.000285394
0.490735
0.000367128
0.490555
0.000444727
0.490323
0.000518136
0.490042
0.000585607
0.489716
0.000647918
0.489346
0.000700464
0.48894
0.000745749
0.488491
0.000772846
0.000793472
0.471956
-0.00141297
-0.470957
0.47286
-0.00131429
0.473686
-0.00119902
0.47444
-0.00106199
0.475121
-0.00091084
0.475725
-0.000753088
0.476255
-0.000592136
0.47671
-0.000429623
0.47709
-0.000267223
0.477397
-0.000106621
0.477632
5.05747e-05
0.477796
0.000203311
0.47789
0.000350387
0.477917
0.000491287
0.477878
0.000624498
0.477776
0.0007499
0.477612
0.000864877
0.477387
0.000970379
0.477097
0.00106324
0.00114718
0.450945
-0.00267879
-0.44968
0.452128
-0.00249668
0.45323
-0.00230081
0.454256
-0.00208832
0.455207
-0.00186238
0.456083
-0.00162852
0.456881
-0.00139075
0.457603
-0.0011515
0.458249
-0.000912764
0.458819
-0.000676391
0.459313
-0.000444133
0.459734
-0.000217304
0.460082
2.80456e-06
0.460357
0.000215405
0.460563
0.000419248
0.460699
0.000613865
0.460766
0.000797849
0.460765
0.000971293
0.460695
0.00113307
0.00128292
0.42984
-0.00407277
-0.428446
0.431161
-0.00381809
0.432408
-0.00354764
0.433581
-0.00326195
0.434682
-0.00296326
0.43571
-0.00265578
0.436662
-0.00234361
0.437541
-0.00202989
0.438345
-0.00171709
0.439076
-0.00140728
0.439734
-0.00110231
0.440321
-0.000803638
0.440836
-0.000512544
0.441281
-0.00022994
0.441657
4.3144e-05
0.441965
0.000306098
0.442205
0.000558003
0.442378
0.000798398
0.442484
0.00102674
0.0012419
0.410144
-0.00550751
-0.408709
0.411513
-0.0051877
0.412814
-0.00484822
0.414044
-0.00449209
0.415203
-0.00412243
0.416291
-0.00374343
0.417307
-0.00335946
0.418251
-0.00297417
0.419124
-0.00259049
0.419928
-0.00221073
0.420662
-0.00183678
0.421329
-0.00147012
0.421928
-0.00111195
0.422461
-0.000763175
0.422929
-0.000424661
0.423332
-9.70597e-05
0.423671
0.000218907
0.423947
0.000522605
0.42416
0.000813747
0.00109122
0.392331
-0.00693486
-0.390903
0.393697
-0.00655383
0.394997
-0.00614815
0.396228
-0.00572289
0.397388
-0.00528294
0.398478
-0.00483344
0.399498
-0.00437931
0.400448
-0.00392466
0.401331
-0.00347279
0.402146
-0.00302617
0.402896
-0.00258671
0.403582
-0.00215577
0.404204
-0.00173442
0.404764
-0.00132346
0.405263
-0.000923589
0.405702
-0.000535405
0.40608
-0.000159496
0.406399
0.000203501
0.40666
0.000553365
0.000888987
0.376387
-0.00833356
-0.374989
0.377726
-0.00789251
0.378999
-0.00742086
0.380202
-0.0069259
0.381334
-0.00641494
0.382395
-0.00589471
0.383387
-0.00537091
0.38431
-0.00484808
0.385167
-0.00432979
0.385959
-0.00381862
0.386689
-0.00331636
0.387358
-0.00282418
0.387966
-0.00234292
0.388516
-0.00187317
0.389008
-0.00141542
0.389442
-0.000970167
0.389821
-0.00053786
0.390143
-0.000119126
0.390411
0.000285797
0.000675746
0.362083
-0.00969895
-0.360717
0.363387
-0.00919707
0.364624
-0.0086574
0.365788
-0.00809023
0.366879
-0.0075061
0.367898
-0.00691375
0.368847
-0.00631971
0.369728
-0.00572897
0.370543
-0.00514529
0.371296
-0.0045712
0.371988
-0.00400825
0.372621
-0.00345724
0.373197
-0.00291869
0.373716
-0.00239288
0.374181
-0.00188004
0.374591
-0.00138052
0.374948
-0.00089463
0.375252
-0.000422992
0.375504
3.41015e-05
0.000475428
0.349135
-0.0110355
-0.347799
0.350408
-0.0104702
0.351609
-0.00985818
0.352733
-0.00921431
0.353781
-0.00855351
0.354754
-0.00788671
0.355655
-0.00722115
0.356488
-0.0065622
0.357257
-0.00591374
0.357964
-0.00527805
0.358612
-0.00465614
0.359203
-0.00404836
0.359739
-0.00345472
0.360221
-0.0028751
0.36065
-0.00230944
0.361028
-0.00175785
0.361354
-0.00122056
0.361629
-0.000698143
0.361854
-0.000190999
0.000299588
0.337292
-0.0123521
-0.335975
0.338541
-0.0117189
0.33971
-0.0110274
0.340796
-0.0103004
0.341801
-0.00955836
0.342728
-0.0088141
0.343582
-0.00807526
0.344368
-0.00734762
0.345089
-0.00663497
0.34575
-0.00593895
0.346354
-0.00525984
0.346902
-0.00459724
0.347398
-0.00395056
0.347842
-0.00331916
0.348235
-0.0027026
0.348578
-0.00210076
0.348872
-0.00151375
0.349116
-0.000942165
0.349311
-0.000386483
0.000151894
0.32635
-0.0136599
-0.325042
0.327582
-0.0129516
0.328725
-0.01217
0.329776
-0.0113513
0.33074
-0.0105229
0.331624
-0.00969764
0.332432
-0.00888357
0.333172
-0.00808693
0.333848
-0.00731099
0.334465
-0.00655624
0.335027
-0.00582185
0.335536
-0.00510655
0.335995
-0.00440894
0.336403
-0.00372772
0.336763
-0.00306205
0.337073
-0.00241153
0.337336
-0.00177619
0.33755
-0.00115664
0.337717
-0.000553504
3.16649e-05
0.316155
-0.014972
-0.314843
0.317381
-0.014177
0.318501
-0.0132899
0.319519
-0.0123696
0.320445
-0.0114488
0.321286
-0.0105387
0.32205
-0.00964754
0.322745
-0.00878215
0.323378
-0.0079444
0.323955
-0.00713296
0.324479
-0.00634566
0.324952
-0.00558008
0.325377
-0.0048338
0.325754
-0.0041048
0.326084
-0.00339172
0.326366
-0.00269396
0.326602
-0.00201146
0.32679
-0.00134488
0.326932
-0.000695047
-6.37323e-05
0.306597
-0.0163031
-0.305266
0.307823
-0.0154025
0.308922
-0.0143893
0.309909
-0.0133567
0.310798
-0.0123374
0.311597
-0.0113377
0.312317
-0.0103681
0.31297
-0.00943505
0.313563
-0.00853765
0.314102
-0.00767213
0.314592
-0.00683477
0.315033
-0.0060217
0.315429
-0.00522925
0.315778
-0.00445453
0.316082
-0.00369576
0.316341
-0.00295208
0.316552
-0.00222342
0.316718
-0.00151052
0.316838
-0.000814491
-0.000137406
0.297601
-0.017673
-0.296231
0.298829
-0.016631
0.299908
-0.0154678
0.300865
-0.0143139
0.301716
-0.0131881
0.302472
-0.0120936
0.303149
-0.0110452
0.30376
-0.0100468
0.304315
-0.00909252
0.304819
-0.00817612
0.305277
-0.00729211
0.30569
-0.00643475
0.306059
-0.00559881
0.306385
-0.00478057
0.306667
-0.0039778
0.306905
-0.00318945
0.307097
-0.00241546
0.307243
-0.00165676
0.307343
-0.000914812
-0.000192093
0.289123
-0.0191162
-0.28768
0.29035
-0.0178585
0.291404
-0.0165218
0.292333
-0.0152422
0.293142
-0.0139978
0.293851
-0.0128022
0.294483
-0.0116771
0.295053
-0.010617
0.29557
-0.0096094
0.29604
-0.0086461
0.296468
-0.00771963
0.296854
-0.00682164
0.297201
-0.00594517
0.297506
-0.00508569
0.297769
-0.00424063
0.297988
-0.00340879
0.298163
-0.00259017
0.298292
-0.00178598
0.298375
-0.000998147
-0.000229699
0.281137
-0.0206983
-0.279555
0.282357
-0.019078
0.283378
-0.0175436
0.284276
-0.0161397
0.285037
-0.0147587
0.28569
-0.0134558
0.286273
-0.0122594
0.286799
-0.0111433
0.287277
-0.0100871
0.287713
-0.00908217
0.288111
-0.00811839
0.288474
-0.00718402
0.288799
-0.00627026
0.289085
-0.00537196
0.289331
-0.00448629
0.289534
-0.003612
0.289693
-0.00274925
0.289807
-0.00189962
0.289874
-0.00106566
-0.000251121
0.273599
-0.0224839
-0.271813
0.274824
-0.0203032
0.275806
-0.0185252
0.276656
-0.0169899
0.277354
-0.0154571
0.277945
-0.0140461
0.278471
-0.0127857
0.278949
-0.0116213
0.279386
-0.0105239
0.279788
-0.00948453
0.280159
-0.00848955
0.280499
-0.0075235
0.280804
-0.00657588
0.281074
-0.00564114
0.281304
-0.00471637
0.281492
-0.00380043
0.281637
-0.00289374
0.281735
-0.00199841
0.281787
-0.00111774
-0.000256489
0.266458
-0.0242362
-0.264705
0.267731
-0.0215764
0.268687
-0.0194812
0.269428
-0.0177311
0.270038
-0.0160667
0.270565
-0.0145731
0.271032
-0.013253
0.271457
-0.0120461
0.271851
-0.0109185
0.272221
-0.00985415
0.272566
-0.00883431
0.272883
-0.00784101
0.27317
-0.00686275
0.273423
-0.00589373
0.273637
-0.00493112
0.273811
-0.00397407
0.273941
-0.00302348
0.274024
-0.00208206
0.274061
-0.00115396
-0.000245306
0.259582
-0.259757
-0.0240612
0.260906
-0.0229008
0.262106
-0.0206811
0.262589
-0.0182135
0.263035
-0.0165134
0.263524
-0.0150615
0.263945
-0.0136746
0.264311
-0.0124119
0.264659
-0.0112666
0.264995
-0.0101903
0.265312
-0.00915112
0.265604
-0.00813318
0.265868
-0.00712659
0.266099
-0.00612505
0.266294
-0.00512564
0.266448
-0.00412807
0.266558
-0.00313393
0.266623
-0.00214655
0.26664
-0.00117076
-0.00021423
0.0270593
0.233717
-0.232562
-0.0282145
0.0258707
0.240634
-0.239446
0.0246509
0.24779
-0.24657
0.0234
0.255226
-0.253975
0.0221183
0.262993
-0.261711
0.0208066
0.271138
-0.269827
0.0194645
0.279711
-0.278369
0.0180895
0.288764
-0.287389
0.0166771
0.298358
-0.296945
0.0152205
0.308581
-0.307124
0.013711
0.319562
-0.318052
0.0121386
0.331497
-0.329924
0.0104931
0.344674
-0.343029
0.00876794
0.359497
-0.357772
0.00696611
0.376471
-0.37467
0.0051133
0.396131
-0.394278
0.00327956
0.418846
-0.417012
0.0016132
0.44426
-0.442594
0.000387521
0.469556
-0.46833
0.489552
-0.489164
0.0270704
0.234875
-0.028228
0.0258805
0.241824
0.0246599
0.24901
0.0234079
0.256478
0.0221244
0.264276
0.0208098
0.272453
0.0194637
0.281058
0.018084
0.290143
0.0166662
0.299776
0.0152038
0.310043
0.0136885
0.321077
0.0121105
0.333075
0.0104605
0.346324
0.00873261
0.361225
0.00693183
0.378272
0.0050867
0.397976
0.00327089
0.420662
0.00163513
0.445896
0.000438125
0.470753
0.48999
0.0270493
0.236035
-0.028209
0.0258589
0.243015
0.0246386
0.25023
0.023387
0.257729
0.0221033
0.26556
0.0207877
0.273769
0.0194397
0.282405
0.0180572
0.291526
0.016636
0.301197
0.0151698
0.311509
0.0136505
0.322596
0.012069
0.334656
0.0104162
0.347977
0.00868751
0.362953
0.00688934
0.38007
0.00505258
0.399813
0.00325267
0.422461
0.00163733
0.447511
0.00045171
0.471938
0.490442
0.0269945
0.237194
-0.0281541
0.0258056
0.244204
0.0245877
0.251448
0.0233383
0.258979
0.0220563
0.266842
0.0207416
0.275083
0.0193936
0.283754
0.0180102
0.292909
0.0165874
0.30262
0.0151192
0.312977
0.0135978
0.324118
0.0120144
0.33624
0.0103605
0.349631
0.00863236
0.364682
0.00683751
0.381865
0.00500836
0.401642
0.00322147
0.424248
0.00162309
0.44911
0.000452251
0.473109
0.490894
0.0269051
0.238351
-0.0280618
0.0257205
0.245388
0.0245073
0.252662
0.0232624
0.260224
0.0219842
0.26812
0.0206723
0.276395
0.0193261
0.2851
0.0179435
0.294292
0.0165208
0.304042
0.0150523
0.314446
0.0135303
0.32564
0.0119465
0.337823
0.010293
0.351284
0.00856659
0.366408
0.00677592
0.383656
0.00495469
0.403463
0.00318095
0.426022
0.00160106
0.450689
0.000448217
0.474262
0.491342
0.026784
0.239502
-0.0279351
0.0256061
0.246566
0.0243999
0.253868
0.0231614
0.261462
0.0218888
0.269393
0.0205813
0.277703
0.0192384
0.286443
0.0178582
0.295672
0.016437
0.305464
0.0149694
0.315914
0.0134483
0.327161
0.0118654
0.339406
0.0102136
0.352936
0.00849027
0.368131
0.00670513
0.385441
0.00489328
0.405275
0.00313429
0.427781
0.00157454
0.452249
0.000441069
0.475395
0.491783
0.0266331
0.240646
-0.0277765
0.0254642
0.247735
0.024267
0.255065
0.0230368
0.262692
0.0217713
0.270658
0.0204698
0.279004
0.0191315
0.287781
0.0177549
0.297049
0.0163364
0.306882
0.014871
0.317379
0.0133519
0.32868
0.0117713
0.340987
0.0101225
0.354585
0.00840373
0.36985
0.00662576
0.387219
0.00482504
0.407076
0.00308242
0.429524
0.00154392
0.453788
0.000431027
0.476508
0.492214
0.0264612
0.24178
-0.0275956
0.0253022
0.248894
0.0241149
0.256252
0.0228937
0.263914
0.021636
0.271916
0.0203409
0.280299
0.0190078
0.289114
0.0176353
0.298421
0.0162202
0.308297
0.0147578
0.318841
0.0132417
0.330196
0.0116644
0.342564
0.01002
0.356229
0.00830719
0.371563
0.006538
0.388988
0.00475009
0.408864
0.00302535
0.431248
0.00150926
0.455304
0.000418531
0.477599
0.492633
0.0262674
0.242904
-0.0273915
0.0251196
0.250042
0.0239434
0.257428
0.0227322
0.265125
0.021483
0.273165
0.020195
0.281587
0.0188677
0.290441
0.0174998
0.299789
0.0160888
0.309708
0.0146301
0.3203
0.0131178
0.331708
0.011545
0.344137
0.009906
0.357868
0.00820067
0.373268
0.00644185
0.390747
0.00466845
0.410637
0.00296323
0.432954
0.00147104
0.456796
0.000404193
0.478666
0.493037
0.0260716
0.244019
-0.0271867
0.0249334
0.25118
0.0237663
0.258595
0.022563
0.266328
0.0213204
0.274408
0.0200377
0.28287
0.0187148
0.291764
0.0173508
0.301153
0.0159433
0.311116
0.0144884
0.321755
0.0129803
0.333216
0.0114127
0.345704
0.00978048
0.359501
0.00808401
0.374965
0.0063372
0.392494
0.00458008
0.412394
0.0028962
0.434638
0.00142964
0.458263
0.000388379
0.479707
0.493425
0.0258583
0.245124
-0.0269631
0.0247308
0.252307
0.0235738
0.259752
0.0223791
0.267523
0.0211433
0.275644
0.019866
0.284147
0.0185474
0.293083
0.017187
0.302514
0.015783
0.312519
0.014332
0.323206
0.0128288
0.33472
0.0112673
0.347266
0.00964294
0.361125
0.00795688
0.376651
0.00622389
0.394227
0.00448506
0.414133
0.00282456
0.436298
0.00138553
0.459702
0.000371541
0.480721
0.493797
0.0256825
0.246226
-0.0267843
0.0245567
0.253433
0.0234003
0.260909
0.0222051
0.268718
0.0209682
0.276881
0.0196898
0.285426
0.0183707
0.294402
0.0170108
0.303874
0.0156085
0.313922
0.0141607
0.324654
0.0126624
0.336218
0.0111078
0.348821
0.00949263
0.36274
0.00781869
0.378325
0.00610152
0.395944
0.00438313
0.415852