/*--------------------------------*- C++ -*----------------------------------*\
| =========                 |                                                 |
| \\      /  F ield         | OpenFOAM: The Open Source CFD Toolbox           |
|  \\    /   O peration     | Version:  v1912                                 |
|   \\  /    A nd           | Website:  www.openfoam.com                      |
|    \\/     M anipulation  |                                                 |
\*---------------------------------------------------------------------------*/
FoamFile
{
    version     2.0;
    format      ascii;
    class       surfaceScalarField;
    location    "72";
    object      phi;
}
// * * * * * * * * * * * * * * * * * * * * * * * * * * * * * * * * * * * * * //

dimensions      [0 3 -1 0 0 0 0];
oriented        oriented;


internalField   nonuniform List<scalar> 
18940
(
0.000358499
-0.234358
0.234
0.00137984
-0.216315
0.215294
0.00288455
-0.20478
0.203275
0.00470208
-0.197
0.195182
0.00670152
-0.191248
0.189249
0.00878109
-0.186458
0.184379
0.010867
-0.182041
0.179955
0.0129097
-0.1777
0.175658
0.014879
-0.173313
0.171343
0.0167597
-0.168849
0.166969
0.0185468
-0.164331
0.162544
0.0202428
-0.159801
0.158105
0.0218549
-0.155306
0.153694
0.0233929
-0.150891
0.149353
0.0248678
-0.146591
0.145116
0.0262915
-0.142431
0.141007
0.0276755
-0.138423
0.137039
0.0290302
-0.134565
0.13321
0.0303641
-0.130838
0.129504
-0.127201
0.125882
0.0316825
0.00038193
-0.23474
0.00142316
-0.217356
0.0029386
-0.206295
0.00476044
-0.198822
0.00675432
-0.193242
0.00881856
-0.188523
0.0108806
-0.184103
0.0128924
-0.179712
0.0148259
-0.175246
0.0166674
-0.170691
0.0184137
-0.166078
0.0200686
-0.161456
0.0216402
-0.156878
0.023139
-0.152389
0.0245766
-0.148028
0.025965
-0.143819
0.0273159
-0.139774
0.0286402
-0.135889
0.0299469
-0.132144
-0.128496
0.0312419
0.00040336
-0.235143
0.00146082
-0.218414
0.00298498
-0.20782
0.00480736
-0.200644
0.00679206
-0.195227
0.0088373
-0.190568
0.0108718
-0.186137
0.0128494
-0.18169
0.0147438
-0.177141
0.0165433
-0.17249
0.0182464
-0.167781
0.0198581
-0.163068
0.0213874
-0.158407
0.0228454
-0.153848
0.0242442
-0.149427
0.0255959
-0.145171
0.0269125
-0.14109
0.0282052
-0.137182
0.0294833
-0.133422
-0.129766
0.0307537
0.000417238
-0.235561
0.00148975
-0.219486
0.00302177
-0.209352
0.00484213
-0.202465
0.00681426
-0.197199
0.00883694
-0.192591
0.0108404
-0.188141
0.0127804
-0.18363
0.0146329
-0.178993
0.0163879
-0.174245
0.0180455
-0.169438
0.019612
-0.164634
0.0210974
-0.159892
0.0225133
-0.155263
0.023872
-0.150786
0.025186
-0.146485
0.0264672
-0.142372
0.0277272
-0.138442
0.0289759
-0.134671
-0.131011
0.0302209
0.000428511
-0.235989
0.00151329
-0.220571
0.00305032
-0.210889
0.0048654
-0.20428
0.00682141
-0.199155
0.00881795
-0.194587
0.0107869
-0.19011
0.0126863
-0.185529
0.014494
-0.180801
0.016202
-0.175954
0.0178121
-0.171048
0.0193318
-0.166154
0.0207718
-0.161332
0.0221442
-0.156636
0.0234618
-0.152103
0.0247369
-0.14776
0.0259818
-0.143617
0.0272081
-0.139668
0.0284265
-0.135889
-0.13223
0.0296454
0.000437606
-0.236427
0.00153184
-0.221665
0.00307088
-0.212428
0.00487739
-0.206086
0.00681379
-0.201092
0.00878073
-0.196554
0.010712
-0.192041
0.0125677
-0.187385
0.0143279
-0.182561
0.0159866
-0.177612
0.0175472
-0.172609
0.0190184
-0.167625
0.0204115
-0.162726
0.0217394
-0.157964
0.0230146
-0.153378
0.0242499
-0.148995
0.0254574
-0.144824
0.0266492
-0.14086
0.0278364
-0.137077
-0.133422
0.0290284
0.000445088
-0.236872
0.00154608
-0.222766
0.00308403
-0.213966
0.0048786
-0.207881
0.00679192
-0.203005
0.00872586
-0.198488
0.0106162
-0.193931
0.0124253
-0.189194
0.0141355
-0.184271
0.0157428
-0.17922
0.017252
-0.174118
0.0186729
-0.169046
0.0200179
-0.16407
0.0212999
-0.159246
0.0225317
-0.15461
0.023726
-0.150189
0.0248951
-0.145993
0.0260513
-0.142016
0.0272062
-0.138232
-0.134587
0.0283706
0.000451114
-0.237323
0.00155635
-0.223872
0.00309016
-0.215499
0.00486951
-0.20966
0.00675637
-0.204892
0.00865403
-0.200386
0.0105003
-0.195778
0.0122601
-0.190954
0.0139179
-0.185929
0.0154716
-0.180773
0.0169275
-0.175574
0.0182967
-0.170415
0.019592
-0.165366
0.0208267
-0.16048
0.0220139
-0.155798
0.023166
-0.151341
0.0242955
-0.147123
0.0254147
-0.143136
0.0265362
-0.139353
-0.135722
0.0276718
0.000455788
-0.237779
0.00156292
-0.224979
0.00308972
-0.217026
0.00485066
-0.211421
0.00670783
-0.206749
0.00856605
-0.202244
0.0103655
-0.197577
0.0120733
-0.192662
0.0136763
-0.187532
0.0151743
-0.182271
0.0165751
-0.176975
0.0178907
-0.171731
0.0191348
-0.16661
0.0203209
-0.161667
0.021462
-0.156939
0.0225705
-0.15245
0.0236586
-0.148211
0.0247393
-0.144216
0.0258257
-0.140439
-0.136828
0.0269311
0.000459185
-0.238238
0.00156608
-0.226086
0.0030832
-0.218543
0.00482272
-0.21316
0.00664709
-0.208573
0.0084629
-0.20406
0.0102126
-0.199327
0.011866
-0.194315
0.0134119
-0.189078
0.0148522
-0.183712
0.016196
-0.178319
0.0174564
-0.172991
0.0186475
-0.167801
0.0197833
-0.162802
0.0208765
-0.158032
0.0219395
-0.153513
0.0229845
-0.149256
0.0240244
-0.145256
0.0250735
-0.141489
-0.137901
0.0261467
0.00046141
-0.238699
0.00156618
-0.22719
0.00307115
-0.220048
0.00478644
-0.214876
0.00657511
-0.210362
0.00834572
-0.20583
0.0100432
-0.201024
0.0116397
-0.195912
0.0131264
-0.190565
0.0145069
-0.185092
0.0157918
-0.179604
0.0169951
-0.174194
0.0181314
-0.168937
0.0192148
-0.163886
0.0202582
-0.159075
0.0212734
-0.154528
0.0222726
-0.150255
0.023269
-0.146253
0.0242778
-0.142497
-0.138939
0.0253158
0.00046262
-0.239162
0.00156367
-0.228291
0.00305427
-0.221539
0.00474272
-0.216564
0.00649301
-0.212112
0.00821582
-0.207553
0.00985862
-0.202667
0.011396
-0.197449
0.0128215
-0.19199
0.0141403
-0.186411
0.0153644
-0.180828
0.0165086
-0.175338
0.0175879
-0.170017
0.0186167
-0.164914
0.0196076
-0.160066
0.0205723
-0.155493
0.0215226
-0.151205
0.0224719
-0.147202
0.0234365
-0.143462
-0.139938
0.0244355
0.000463094
-0.239625
0.00155915
-0.229387
0.00303341
-0.223013
0.00469263
-0.218223
0.00640207
-0.213822
0.00807476
-0.209226
0.00966073
-0.204253
0.0111371
-0.198925
0.0124995
-0.193353
0.0137548
-0.187666
0.0149161
-0.181989
0.015999
-0.176421
0.0170191
-0.171037
0.0179905
-0.165886
0.018926
-0.161002
0.0198367
-0.156404
0.0207341
-0.152103
0.0216318
-0.148099
0.0225471
-0.144377
-0.140892
0.0235018
0.00046331
-0.240088
0.0015535
-0.230478
0.00300963
-0.224469
0.00463742
-0.219851
0.00630379
-0.215488
0.00792427
-0.210846
0.00945154
-0.20578
0.0108652
-0.200339
0.0121628
-0.19465
0.0133529
-0.188856
0.0144496
-0.183086
0.0154692
-0.177441
0.0164273
-0.171995
0.0173383
-0.166797
0.0182146
-0.161878
0.0190671
-0.157256
0.0199066
-0.152942
0.0207466
-0.148939
0.0216057
-0.145236
-0.141795
0.0225085
0.000464068
-0.240552
0.00154787
-0.231561
0.00298414
-0.225906
0.00457844
-0.221446
0.00619977
-0.217109
0.00776627
-0.212413
0.00923332
-0.207247
0.0105829
-0.201689
0.0118145
-0.195882
0.0129381
-0.18998
0.0139687
-0.184117
0.0149229
-0.178395
0.0158165
-0.172888
0.0166637
-0.167644
0.0174764
-0.162691
0.018265
-0.158045
0.0190398
-0.153717
0.0198136
-0.149713
0.020606
-0.146029
-0.142636
0.021447
0.000466519
-0.241019
0.00154357
-0.232639
0.00295815
-0.22732
0.00451708
-0.223004
0.00609169
-0.218684
0.00760284
-0.213924
0.00900855
-0.208653
0.0102932
-0.202973
0.011458
-0.197047
0.0125144
-0.191036
0.0134778
-0.18508
0.0143651
-0.179282
0.0151921
-0.173715
0.0159723
-0.168424
0.0167171
-0.163435
0.0174359
-0.158763
0.0181377
-0.154419
0.0188345
-0.15041
0.019547
-0.146741
-0.143403
0.0203141
0.000472054
-0.241491
0.00154191
-0.233708
0.00293298
-0.228711
0.00445488
-0.224526
0.00598143
-0.220211
0.00743617
-0.215379
0.00877986
-0.209997
0.00999916
-0.204193
0.0110972
-0.198145
0.0120861
-0.192025
0.0129821
-0.185976
0.0138018
-0.180102
0.0145606
-0.174474
0.0152715
-0.169135
0.0159448
-0.164109
0.0165889
-0.159407
0.0172113
-0.155041
0.0178219
-0.151021
0.0184415
-0.147361
-0.144072
0.01911
0.000482999
-0.241974
0.00154553
-0.234771
0.00291111
-0.230077
0.00439396
-0.226009
0.00587092
-0.221688
0.00726837
-0.216776
0.00854979
-0.211278
0.00970411
-0.205347
0.010736
-0.199177
0.0116584
-0.192948
0.0124876
-0.186805
0.0132398
-0.180854
0.0139294
-0.175164
0.0145682
-0.169774
0.0151655
-0.164706
0.0157286
-0.159971
0.0162639
-0.155577
0.016778
-0.151535
0.0172836
-0.147866
-0.144593
0.0178048
0.000506934
-0.242481
0.00156164
-0.235826
0.00289659
-0.231412
0.00433624
-0.227449
0.00576144
-0.223113
0.00710087
-0.218116
0.00832038
-0.212498
0.00941095
-0.206437
0.0103786
-0.200144
0.0112371
-0.193806
0.0120024
-0.18757
0.0126897
-0.181542
0.0133115
-0.175786
0.013877
-0.17034
0.0143919
-0.165221
0.0148599
-0.160439
0.015283
-0.156
0.01566
-0.151912
0.0159953
-0.148202
-0.144949
0.016351
0.000563982
-0.243045
0.00159853
-0.23686
0.00288917
-0.232702
0.00428052
-0.22884
0.00565249
-0.224485
0.00693409
-0.219397
0.00809294
-0.213656
0.00912199
-0.207467
0.0100288
-0.201051
0.010828
-0.194605
0.0115354
-0.188278
0.0121657
-0.182172
0.0127293
-0.176349
0.0132319
-0.170842
0.0136733
-0.165662
0.0140461
-0.160811
0.0143333
-0.156287
0.014509
-0.152088
0.0145679
-0.148261
-0.145121
0.0147397
0.250731
0.000415224
-0.251147
0.250342
0.000388869
0.249961
0.000381605
0.249579
0.000381742
0.249194
0.000384692
0.248805
0.000389108
0.248411
0.000394266
0.248011
0.000399577
0.247607
0.000404646
0.247198
0.000409272
0.246784
0.000413359
0.246367
0.000416876
0.245948
0.000419806
0.245525
0.000422131
0.245102
0.000423725
0.244677
0.000424377
0.244254
0.000423042
0.243835
0.000419176
0.243431
0.000403576
0.000386492
0.252708
0.00102398
-0.253317
0.252063
0.00103322
0.251391
0.00105434
0.250691
0.00108135
0.249966
0.00110973
0.249217
0.00113812
0.248445
0.00116606
0.247652
0.00119304
0.246838
0.00121863
0.246005
0.0012426
0.245153
0.00126483
0.244285
0.00128528
0.243401
0.00130395
0.242502
0.00132085
0.24159
0.00133583
0.240665
0.00134868
0.23973
0.0013583
0.238785
0.00136442
0.237828
0.00136078
0.00135401
0.251493
0.0015962
-0.252065
0.250856
0.00167017
0.250166
0.00174435
0.249428
0.00181963
0.248644
0.00189366
0.247817
0.00196524
0.246949
0.00203402
0.246042
0.00209977
0.245099
0.00216226
0.24412
0.00222134
0.243108
0.00227694
0.242064
0.00232911
0.24099
0.00237795
0.239887
0.00242356
0.238757
0.00246594
0.237601
0.00250514
0.236418
0.00254067
0.23521
0.00257273
0.233972
0.00259894
0.00262349
0.24739
0.00203982
-0.247834
0.246877
0.00218347
0.246299
0.00232249
0.24566
0.00245833
0.244963
0.00259034
0.244211
0.00271771
0.243405
0.00284011
0.242547
0.00295738
0.24164
0.00306938
0.240685
0.00317604
0.239685
0.00327735
0.238641
0.00337348
0.237554
0.00346463
0.236426
0.00355106
0.235259
0.00363304
0.234053
0.00371097
0.232809
0.00378494
0.231526
0.00385554
0.230203
0.00392207
0.00398654
0.241143
0.00231897
-0.241422
0.240793
0.00253395
0.240373
0.00274215
0.239887
0.00294442
0.239337
0.00314072
0.238724
0.0033306
0.23805
0.00351369
0.237318
0.00368984
0.236528
0.00385893
0.235683
0.00402089
0.234785
0.0041758
0.233834
0.0043239
0.232834
0.00446548
0.231784
0.004601
0.230686
0.00473102
0.22954
0.00485624
0.228348
0.00497726
0.227109
0.005095
0.225821
0.00520965
0.0053229
0.233546
0.00244234
-0.233669
0.233352
0.00272794
0.233089
0.00300561
0.232757
0.00327566
0.23236
0.00353811
0.231898
0.00379265
0.231373
0.00403895
0.230786
0.00427681
0.230139
0.00450606
0.229433
0.00472668
0.22867
0.00493878
0.227851
0.00514261
0.226978
0.00533859
0.226052
0.00552736
0.225073
0.00570974
0.224042
0.00588675
0.22296
0.00605945
0.221826
0.00622921
0.220639
0.00639691
0.0065644
0.225303
0.00244048
-0.225301
0.225236
0.00279416
0.225103
0.00313915
0.224903
0.0034754
0.224638
0.00380282
0.22431
0.00412114
0.223919
0.00443002
0.223466
0.00472919
0.222954
0.00501847
0.222383
0.0052978
0.221754
0.0055673
0.22107
0.00582725
0.22033
0.00607817
0.219537
0.00632085
0.21869
0.00655637
0.217791
0.0067861
0.216839
0.00701158
0.215833
0.00723473
0.214773
0.00745709
0.00768081
0.216941
0.00234962
-0.21685
0.216967
0.00276782
0.216929
0.00317674
0.216829
0.00357608
0.216666
0.00396563
0.216442
0.00434508
0.216158
0.00471405
0.215815
0.00507221
0.215414
0.00541933
0.214957
0.00575531
0.214444
0.00608023
0.213876
0.00639439
0.213256
0.00669836
0.212584
0.00699308
0.211861
0.00727987
0.211086
0.00756047
0.210261
0.007837
0.209383
0.00811199
0.208453
0.00838779
0.00866709
0.208808
0.00220309
-0.208661
0.208894
0.00268202
0.208919
0.0031511
0.208885
0.00360989
0.208793
0.00405807
0.208643
0.00449525
0.208436
0.004921
0.208173
0.00533489
0.207856
0.00573664
0.207485
0.00612607
0.207062
0.00650321
0.206588
0.00686832
0.206065
0.007222
0.205492
0.00756529
0.204873
0.00789974
0.204206
0.00822748
0.203491
0.00855126
0.202729
0.00887437
0.201916
0.00920024
0.00953242
0.201104
0.00202789
-0.200929
0.201222
0.00256397
0.201284
0.00308962
0.20129
0.00360431
0.20124
0.00410761
0.201136
0.00459903
0.200979
0.00507806
0.20077
0.00554421
0.200509
0.00599708
0.200199
0.0064364
0.19984
0.0068621
0.199434
0.00727436
0.198982
0.00767375
0.198486
0.00806132
0.197947
0.00843884
0.197366
0.00880876
0.196743
0.00917462
0.196076
0.00954057
0.195365
0.00991156
0.0102924
0.193924
0.00184388
-0.19374
0.194054
0.002434
0.19413
0.00301311
0.194154
0.00358056
0.194126
0.00413581
0.194046
0.00467829
0.193917
0.0052074
0.193739
0.00572254
0.193513
0.0062232
0.19324
0.00670897
0.192923
0.00717964
0.192562
0.00763524
0.192159
0.00807622
0.191717
0.00850355
0.191237
0.00891914
0.19072
0.00932566
0.190167
0.00972755
0.189578
0.0101299
0.188949
0.0105398
0.0109638
0.187288
0.00166448
-0.187109
0.187416
0.00230612
0.187493
0.00293616
0.18752
0.00355378
0.187497
0.00415835
0.187427
0.00474921
0.187308
0.00532565
0.187144
0.00588697
0.186935
0.00643251
0.186682
0.00696171
0.186387
0.00747414
0.186053
0.0079696
0.185681
0.00844835
0.185273
0.00891108
0.184833
0.00935977
0.184361
0.00979701
0.183861
0.0102284
0.183331
0.0106595
0.18277
0.0111011
0.0115616
0.181179
0.00149803
-0.181012
0.181296
0.00218935
0.181364
0.00286832
0.181383
0.00353403
0.181356
0.00418581
0.181282
0.00482288
0.181163
0.00544444
0.181001
0.00604965
0.180796
0.0066377
0.180549
0.00720781
0.180264
0.00775933
0.179942
0.00829173
0.179586
0.00880493
0.179197
0.00929916
0.178781
0.00977626
0.17834
0.0102383
0.177876
0.0106922
0.177392
0.0111435
0.176884
0.0116085
0.0120967
0.175553
0.00134936
-0.175404
0.175653
0.00208884
0.175706
0.00281517
0.175713
0.00352741
0.175674
0.00422476
0.17559
0.00490636
0.175464
0.00557129
0.175295
0.00621859
0.175085
0.00684728
0.174837
0.00745636
0.174551
0.00804487
0.174231
0.00861187
0.173879
0.00915685
0.173499
0.00967926
0.173094
0.0101807
0.172671
0.0106617
0.172232
0.0111312
0.171783
0.0115923
0.17132
0.0120713
0.0125751
0.170357
0.00122073
-0.170229
0.170439
0.00200727
0.170474
0.00277973
0.170465
0.0035372
0.170411
0.0042788
0.170313
0.00500357
0.170174
0.00571049
0.169994
0.00639848
0.169775
0.00706638
0.169519
0.00771294
0.169227
0.00833688
0.168902
0.00893678
0.168547
0.00951153
0.168167
0.0100596
0.167766
0.0105818
0.167351
0.0110765
0.166927
0.0115547
0.166507
0.012013
0.166083
0.0124953
0.0129954
0.165538
0.00111294
-0.165431
0.1656
0.00194545
0.165617
0.00276297
0.16559
0.00356457
0.165519
0.0043493
0.165407
0.00511611
0.165253
0.00586389
0.16506
0.00659142
0.164829
0.00729738
0.164562
0.00798028
0.16426
0.0086385
0.163927
0.00927009
0.163565
0.00987328
0.16318
0.0104452
0.162776
0.0109858
0.162363
0.0114894
0.161948
0.0119699
0.16155
0.0124103
0.161162
0.012884
0.0133455
0.161043
0.00102546
-0.160956
0.161086
0.0019029
0.161085
0.00276446
0.16104
0.00360915
0.160953
0.00443595
0.160826
0.00524371
0.160658
0.00603126
0.160452
0.00679727
0.16021
0.00754027
0.159931
0.00825853
0.15962
0.00895012
0.159277
0.0096126
0.158907
0.0102434
0.158514
0.0108383
0.158104
0.0113958
0.157688
0.0119049
0.157276
0.012382
0.156899
0.0127873
0.156541
0.0132425
0.0135997
0.156825
0.000956479
-0.156756
0.15685
0.00187806
0.156832
0.00278251
0.156772
0.00366912
0.156671
0.00453677
0.156531
0.00538426
0.156352
0.00621036
0.156135
0.00701366
0.155883
0.00779254
0.155596
0.00854511
0.155277
0.00926915
0.154928
0.00996181
0.154552
0.0106199
0.154153
0.0112375
0.153736
0.0118118
0.153317
0.0123248
0.152904
0.0127943
0.152549
0.013143
0.152215
0.0135765
0.0137267
0.152841
0.000904026
-0.152789
0.152851
0.00186808
0.15282
0.00281388
0.152748
0.00374087
0.152637
0.00464774
0.152488
0.00553331
0.152302
0.00639631
0.15208
0.00723526
0.151824
0.00804843
0.151536
0.00883383
0.151216
0.00958904
0.150867
0.0103109
0.150491
0.0109957
0.150092
0.0116364
0.149675
0.0122288
0.149252
0.0127475
0.148836
0.0132104
0.148502
0.0134777
0.148209
0.0138694
0.0136747
0.149051
-0.149014
0.000866547
0.149051
0.00186901
0.14901
0.0028542
0.148932
0.00381933
0.148816
0.00476304
0.148666
0.00568425
0.14848
0.00658169
0.148262
0.00745383
0.148011
0.00829889
0.14773
0.00911479
0.14742
0.00989906
0.147083
0.0106483
0.14672
0.0113588
0.146333
0.0120225
0.145927
0.0126352
0.14551
0.0131651
0.145086
0.0136339
0.144735
0.0138286
0.144477
0.0141273
0.0130313
0.254371
7.40849e-05
-0.254445
0.254335
3.64023e-05
0.254302
3.25754e-05
0.25426
4.15146e-05
0.254204
5.59526e-05
0.254131
7.38111e-05
0.254037
9.37872e-05
0.253922
0.000114757
0.253786
0.000135906
0.25363
0.000156726
0.253453
0.000176779
0.253257
0.000195784
0.253043
0.00021424
0.25281
0.000233209
0.252559
0.000250501
0.252293
0.000265679
0.252015
0.000278345
0.251727
0.000288409
0.251437
0.00029001
0.000290024
0.256238
-0.000241599
-0.255923
0.256492
-0.000217602
0.256702
-0.000176651
0.256866
-0.000122826
0.256984
-6.26371e-05
0.257057
1.30889e-06
0.257083
6.78698e-05
0.257062
0.000135955
0.256993
0.000204638
0.256877
0.000272984
0.256714
0.00033975
0.256506
0.00040369
0.256256
0.000463558
0.255959
0.00053107
0.255616
0.00059277
0.255232
0.000649931
0.254808
0.000702395
0.254346
0.000750096
0.253848
0.000788379
0.000821465
0.251676
-0.000898493
-0.251019
0.25226
-0.000801548
0.252778
-0.00069475
0.253233
-0.00057827
0.253626
-0.000455619
0.253957
-0.000329041
0.254224
-0.000199684
0.254429
-6.8951e-05
0.254571
6.31643e-05
0.254648
0.000196079
0.254661
0.00032596
0.254613
0.000452434
0.254498
0.000577802
0.254326
0.000702925
0.254095
0.000823852
0.253806
0.000939764
0.253458
0.00105019
0.253053
0.00115503
0.252589
0.00125233
0.00134488
0.243358
-0.00183447
-0.242422
0.244221
-0.00166475
0.245014
-0.00148775
0.245738
-0.00130275
0.246394
-0.00111141
0.246981
-0.000915542
0.247497
-0.0007165
0.247944
-0.000515542
0.248321
-0.00031336
0.248624
-0.000107173
0.248855
9.47914e-05
0.249018
0.000289588
0.249109
0.000486303
0.249132
0.000679998
0.249086
0.000869603
0.248972
0.00105421
0.248789
0.00123307
0.248538
0.00140583
0.248219
0.00157141
0.00173038
0.233275
-0.00296942
-0.23214
0.234341
-0.00273145
0.23534
-0.00248597
0.236269
-0.00223254
0.23713
-0.00197209
0.237921
-0.00170611
0.23864
-0.00143603
0.239288
-0.00116306
0.239863
-0.000888165
0.240367
-0.000612129
0.2408
-0.000338183
0.241158
-6.77335e-05
0.241443
0.000201289
0.241656
0.000466974
0.241796
0.000728927
0.241865
0.000985709
0.241861
0.00123659
0.241786
0.00148097
0.24164
0.00171803
0.00194771
0.222718
-0.00423092
-0.221456
0.223916
-0.00392959
0.225049
-0.00361917
0.226116
-0.00329982
0.227117
-0.00297235
0.228049
-0.00263819
0.228912
-0.00229891
0.229704
-0.00195598
0.230427
-0.00161082
0.23108
-0.00126481
0.231661
-0.000919501
0.23217
-0.000576173
0.232607
-0.000235694
0.232973
0.000100404
0.233268
0.000433594
0.233491
0.000762762
0.233643
0.00108524
0.233723
0.00140094
0.233732
0.00170925
0.00200992
0.212472
-0.00556134
-0.211142
0.213743
-0.00520083
0.214953
-0.00482913
0.2161
-0.00444688
0.217183
-0.00405513
0.2182
-0.00365549
0.219151
-0.00324978
0.220035
-0.00283973
0.220851
-0.00242699
0.221599
-0.00201302
0.222279
-0.00159923
0.22289
-0.00118702
0.223431
-0.000777198
0.223902
-0.000370495
0.224311
2.54295e-05
0.224646
0.000426823
0.224913
0.000818606
0.225111
0.00120306
0.22524
0.00158011
0.00194936
0.202949
-0.00691887
-0.201591
0.20425
-0.00650251
0.205494
-0.00607256
0.206677
-0.00563004
0.207798
-0.00517645
0.208857
-0.00471378
0.209851
-0.00424419
0.210781
-0.00376967
0.211646
-0.00329207
0.212446
-0.00281301
0.213181
-0.00233397
0.21385
-0.00185632
0.214454
-0.00138112
0.214993
-0.000909331
0.215461
-0.000442323
0.215874
1.3769e-05
0.216215
0.000477388
0.216492
0.000926237
0.216703
0.00136853
0.00180292
0.194307
-0.00827569
-0.19295
0.19561
-0.00780602
0.196858
-0.00732006
0.198047
-0.00681916
0.199176
-0.00630546
0.200244
-0.00578158
0.20125
-0.00525007
0.202193
-0.00471327
0.203074
-0.00417322
0.203893
-0.00363172
0.204649
-0.0030903
0.205343
-0.00255029
0.205975
-0.00201288
0.206545
-0.00147899
0.207053
-0.000950023
0.207494
-0.000427297
0.20788
9.0707e-05
0.208202
0.000604518
0.208462
0.00110818
0.00160397
0.186554
-0.00961504
-0.185214
0.187842
-0.00909402
0.189075
-0.00855353
0.190251
-0.00799529
0.191368
-0.00742244
0.192425
-0.00683843
0.193421
-0.00624633
0.194357
-0.00564884
0.195232
-0.00504823
0.196047
-0.00444642
0.196801
-0.00384497
0.197496
-0.00324521
0.198132
-0.00264827
0.198708
-0.00205512
0.199224
-0.00146675
0.199681
-0.000884098
0.20008
-0.000307873
0.200422
0.000262343
0.200705
0.000825569
0.0013793
0.179617
-0.0109282
-0.178304
0.180881
-0.0103576
0.18209
-0.00976333
0.183243
-0.00914795
0.184337
-0.00851616
0.185371
-0.00787245
0.186345
-0.00722048
0.187259
-0.00656333
0.188115
-0.00590354
0.188911
-0.00524306
0.18965
-0.00458346
0.190331
-0.00392599
0.190954
-0.00327172
0.191521
-0.00262158
0.19203
-0.00197642
0.192483
-0.00133709
0.19288
-0.000704128
0.193222
-8.04561e-05
0.193509
0.000539268
0.00114823
0.173393
-0.0122122
-0.172109
0.174629
-0.0115937
0.175811
-0.0109458
0.176936
-0.0102727
0.178001
-0.00958149
0.179007
-0.00887791
0.179953
-0.00816626
0.180839
-0.00745007
0.181668
-0.00673202
0.182439
-0.0060141
0.183153
-0.00529777
0.183811
-0.00458418
0.184414
-0.0038743
0.184961
-0.00316898
0.185454
-0.002469
0.185892
-0.00177519
0.186276
-0.00108828
0.186606
-0.000409863
0.186885
0.000260253
0.000923859
0.167771
-0.0134678
-0.166515
0.168981
-0.0128038
0.170137
-0.0121015
0.171233
-0.0113692
0.172269
-0.0106174
0.173245
-0.00985328
0.17416
-0.00908168
0.175017
-0.00830662
0.175815
-0.00753088
0.176558
-0.00675633
0.177244
-0.00598429
0.177876
-0.00521575
0.178453
-0.00445154
0.178976
-0.00369242
0.179446
-0.0029391
0.179864
-0.00219238
0.180228
-0.00145275
0.180539
-0.000720934
0.180803
-3.70288e-06
0.000714539
0.162652
-0.0146989
-0.161421
0.16384
-0.0139926
0.164973
-0.013234
0.166044
-0.0124399
0.167052
-0.0116258
0.167998
-0.0107996
0.168884
-0.00996717
0.16971
-0.00913295
0.170479
-0.00829967
0.171192
-0.00746897
0.171849
-0.0066419
0.172453
-0.00581925
0.173003
-0.00500166
0.1735
-0.00418975
0.173945
-0.00338418
0.174338
-0.00258567
0.174681
-0.00179489
0.174973
-0.00101313
0.175211
-0.000242219
0.000521897
0.157952
-0.0159121
-0.156739
0.159127
-0.0151677
0.160242
-0.0143488
0.161291
-0.0134892
0.162275
-0.0126095
0.163194
-0.0117187
0.164051
-0.0108238
0.164847
-0.00992964
0.165586
-0.0090386
0.166269
-0.00815194
0.166898
-0.00727035
0.167473
-0.00639426
0.167995
-0.00552407
0.168466
-0.00466024
0.168885
-0.00380334
0.169253
-0.00295403
0.169571
-0.00211309
0.16984
-0.00128146
0.170058
-0.000460255
0.000350773
0.153609
-0.0171199
-0.152401
0.15478
-0.0163396
0.155885
-0.015453
0.156917
-0.0145217
0.157879
-0.0135709
0.158771
-0.0126112
0.159599
-0.0116514
0.160365
-0.0106961
0.161074
-0.00974703
0.161726
-0.00880469
0.162325
-0.0078692
0.162872
-0.00694048
0.163366
-0.00601859
0.16381
-0.00510377
0.164203
-0.00419646
0.164546
-0.00329728
0.16484
-0.00240697
0.165085
-0.00152636
0.165281
-0.000656638
0.000201224
0.149576
-0.0183516
-0.148345
0.15076
-0.0175234
0.15186
-0.0165528
0.152878
-0.0155402
0.153816
-0.0145088
0.154679
-0.0134741
0.155474
-0.0124468
0.156208
-0.0114297
0.156884
-0.0104229
0.157505
-0.00942583
0.158073
-0.00843768
0.158591
-0.00745762
0.159057
-0.00648525
0.159474
-0.0055206
0.159842
-0.00456397
0.16016
-0.00361592
0.16043
-0.00267718
0.160653
-0.00174864
0.160827
-0.000831277
7.25683e-05
0.145825
-0.0196718
-0.144505
0.147043
-0.0187411
0.148139
-0.0176489
0.149138
-0.0165391
0.150044
-0.0154148
0.150869
-0.0142991
0.151626
-0.0132034
0.152322
-0.0121258
0.152962
-0.0110634
0.15355
-0.010014
0.154088
-0.00897533
0.154576
-0.00794584
0.155016
-0.00692466
0.155407
-0.00591159
0.15575
-0.00490688
0.156045
-0.00391107
0.156292
-0.00292494
0.156493
-0.00194954
0.156648
-0.000985851
-3.58199e-05
0.142372
-0.0211503
-0.140893
0.143621
-0.0199901
0.144695
-0.0187231
0.145652
-0.017496
0.146509
-0.0162722
0.147285
-0.0150753
0.147996
-0.0139144
0.148651
-0.0127809
0.149255
-0.0116673
0.14981
-0.0105692
0.150318
-0.00948297
0.150779
-0.00840637
0.151192
-0.00733823
0.151559
-0.00627827
0.151879
-0.00522681
0.152152
-0.00418445
0.152379
-0.00315205
0.152561
-0.00213077
0.152697
-0.00112211
-0.000127611
0.139285
-0.137867
-0.0225688
0.140447
-0.0211523
0.141481
-0.0197571
0.142358
-0.0183731
0.143148
-0.0170615
0.143871
-0.015799
0.144537
-0.0145795
0.145151
-0.0133956
0.14572
-0.0122363
0.146245
-0.0110935
0.146724
-0.00996256
0.147159
-0.00884091
0.147548
-0.00772744
0.147892
-0.00662201
0.14819
-0.00552511
0.148443
-0.00443751
0.148651
-0.00336019
0.148815
-0.00229415
0.148933
-0.00124097
-0.000208145
0.0308463
0.112056
-0.110571
-0.032331
0.0293343
0.115058
-0.113546
0.0277921
0.118192
-0.11665
0.0262164
0.121482
-0.119907
0.0246037
0.124961
-0.123348
0.0229513
0.128669
-0.127017
0.0212571
0.132667
-0.130972
0.0195197
0.137032
-0.135294
0.0177385
0.141869
-0.140088
0.0159138
0.147309
-0.145484
0.0140475
0.153513
-0.151647
0.0121437
0.160669
-0.158765
0.0102114
0.168977
-0.167045
0.00826735
0.178626
-0.176682
0.00634136
0.18974
-0.187814
0.00448366
0.202281
-0.200423
0.00277407
0.215913
-0.214204
0.00133317
0.22978
-0.228339
0.000330375
0.242097
-0.241094
0.24973
-0.249399
0.0306568
0.113533
-0.0321338
0.0291524
0.116562
0.0276181
0.119726
0.0260505
0.12305
0.024446
0.126565
0.022802
0.130313
0.0211162
0.134352
0.019387
0.138761
0.0176138
0.143642
0.0157968
0.149126
0.013938
0.155372
0.0120419
0.162565
0.010118
0.170901
0.00818389
0.180561
0.00627056
0.191653
0.00442973
0.204122
0.00274269
0.2176
0.00132948
0.231193
0.000354133
0.243073
0.250084
0.0304253
0.115
-0.0318926
0.0289308
0.118056
0.0274066
0.12125
0.0258492
0.124607
0.0242552
0.128159
0.0226218
0.131947
0.0209466
0.136028
0.0192279
0.14048
0.0174649
0.145405
0.015658
0.150933
0.0138091
0.157221
0.0119232
0.164451
0.0100101
0.172814
0.00808835
0.182482
0.00618983
0.193551
0.00436729
0.205944
0.00270256
0.219265
0.00131403
0.232582
0.000357202
0.244029
0.250441
0.0301536
0.116455
-0.0316089
0.0286711
0.119539
0.0271591
0.122763
0.025614
0.126152
0.0240325
0.129741
0.0224117
0.133568
0.0207491
0.13769
0.019043
0.142186
0.0172925
0.147155
0.0154978
0.152728
0.0136611
0.159058
0.0117876
0.166324
0.00988772
0.174714
0.00798043
0.18439
0.00609861
0.195433
0.0042957
0.207747
0.00265368
0.220907
0.00128928
0.233946
0.000352131
0.244967
0.250793
0.0298438
0.117897
-0.0312853
0.0283752
0.121008
0.0268773
0.12426
0.0253464
0.127683
0.0237792
0.131308
0.0221728
0.135174
0.0205247
0.139338
0.0188331
0.143877
0.017097
0.148892
0.0153166
0.154508
0.0134943
0.16088
0.0116354
0.168183
0.00975076
0.176599
0.0078601
0.18628
0.005997
0.197296
0.00421556
0.209529
0.0025978
0.222525
0.00125881
0.235285
0.000343205
0.245882
0.251136
0.0294986
0.119323
-0.0309247
0.0280454
0.122461
0.0265631
0.125743
0.025048
0.129198
0.0234967
0.132859
0.0219063
0.136764
0.0202744
0.14097
0.018599
0.145553
0.0168791
0.150611
0.015115
0.156272
0.013309
0.162686
0.0114667
0.170026
0.00959949
0.178466
0.00772761
0.188152
0.00588537
0.199139
0.0041275
0.211287
0.00253594
0.224116
0.00122399
0.236597
0.000331592
0.246775
0.251468
0.0291207
0.120733
-0.0305304
0.0276841
0.123897
0.0262186
0.127208
0.0247205
0.130697
0.0231864
0.134393
0.0216134
0.138337
0.0199991
0.142585
0.0183415
0.14721
0.0166395
0.152313
0.0148934
0.158018
0.0131056
0.164474
0.011282
0.171849
0.00943422
0.180314
0.00758324
0.190003
0.00576403
0.200958
0.00403187
0.213019
0.0024685
0.22568
0.00118537
0.23788
0.000318
0.247642
0.251786
0.0287129
0.122125
-0.0301057
0.0272937
0.125317
0.0258458
0.128656
0.0243656
0.132177
0.0228497
0.135909
0.0212953
0.139892
0.0196998
0.14418
0.0180614
0.148849
0.0163788
0.153996
0.0146523
0.159745
0.0128845
0.166242
0.0110815
0.173652
0.00925522
0.18214
0.00742727
0.191831
0.00563328
0.202752
0.00392897
0.214723
0.00239584
0.227213
0.00114348
0.239132
0.000303031
0.248482
0.252089
0.0282783
0.123501
-0.029654
0.0268765
0.126718
0.0254466
0.130086
0.0239848
0.133639
0.0224878
0.137406
0.0209528
0.141427
0.0193773
0.145756
0.0177592
0.150467
0.0160974
0.155658
0.0143922
0.16145
0.0126461
0.167988
0.0108655
0.175433
0.00906275
0.183943
0.00725996
0.193634
0.00549336
0.204518
0.00381911
0.216397
0.00231836
0.228714
0.00109879
0.240352
0.0002871
0.249294
0.252376
0.0278196
0.12486
-0.029179
0.0264348
0.128103
0.0250226
0.131498
0.0235793
0.135082
0.0221017
0.138884
0.0205867
0.142942
0.0190319
0.14731
0.0174353
0.152064
0.0157957
0.157297
0.0141132
0.163132
0.0123905
0.169711
0.0106342
0.177189
0.00885701
0.18572
0.0070815
0.195409
0.00534452
0.206255
0.00370257
0.218039
0.00223639
0.23018
0.00105168
0.241537
0.000270455
0.250075
0.252646
0.0273392
0.126205
-0.0286837
0.0259702
0.129472
0.0245751
0.132894
0.02315
0.136507
0.0216917
0.140342
0.0201973
0.144436
0.0186641
0.148844
0.01709
0.153638
0.0154737
0.158914
0.0138155
0.164791
0.0121179
0.171408
0.0103878
0.178919
0.00863815
0.187469
0.00689211
0.197156
0.005187
0.207961
0.00357963
0.219647
0.00215023
0.231609
0.0010024
0.242685
0.000253254
0.250824
0.2529
0.0268386
0.127537
-0.0281709
0.0254835
0.130827
0.0241043
0.134273
0.0226969
0.137914
0.0212579
0.141781
0.0197843
0.14591
0.0182734
0.150354
0.0167229
0.155188
0.0151314
0.160505
0.0134989
0.166423
0.0118283
0.173079
0.0101262
0.180621
0.00840628
0.189189
0.00669191
0.19887
0.005021