/*--------------------------------*- C++ -*----------------------------------*\
  =========                 |
  \\      /  F ield         | OpenFOAM: The Open Source CFD Toolbox
   \\    /   O peration     | Website:  https://openfoam.org
    \\  /    A nd           | Version:  6.0
     \\/     M anipulation  |
\*---------------------------------------------------------------------------*/
FoamFile
{
    version     2.0;
    format      ascii;
    class       surfaceScalarField;
    location    "7.25";
    object      phi;
}
// * * * * * * * * * * * * * * * * * * * * * * * * * * * * * * * * * * * * * //

dimensions      [0 3 -1 0 0 0 0];

internalField   nonuniform List<scalar> 
38030
(
2.49465e-05
-0.0791726
0.0791477
0.000138025
-0.0724609
0.0723478
0.000337519
-0.0669931
0.0667936
0.000619849
-0.0625409
0.0622586
0.000980218
-0.0589108
0.0585505
0.00141238
-0.055941
0.0555088
0.00190931
-0.053499
0.053002
0.00246365
-0.0514775
0.0509231
0.00306809
-0.04979
0.0491856
0.00371554
-0.0483672
0.0477198
0.00439928
-0.0471535
0.0464697
0.00511304
-0.0461042
0.0453904
0.00585105
-0.045184
0.044446
0.00660802
-0.0443646
0.0436076
0.00737922
-0.0436234
0.0428522
0.00816037
-0.0429428
0.0421616
0.00894773
-0.0423085
0.0415211
0.00973797
-0.0417094
0.0409192
0.0105282
-0.0411367
0.0403464
0.011316
-0.0405835
0.0397957
0.0120993
-0.0400443
0.039261
0.0128762
-0.0395146
0.0387377
0.0136454
-0.038991
0.0382218
0.0144056
-0.0384705
0.0377103
0.0151559
-0.0379505
0.0372003
0.0158953
-0.0374286
0.0366892
0.0166231
-0.0369026
0.0361748
0.0173386
-0.03637
0.0356545
0.018041
-0.0358282
0.0351258
-0.035274
0.0345857
0.0187293
3.36222e-05
-0.0792062
0.000152324
-0.0725796
0.000359089
-0.0671998
0.000650802
-0.0628326
0.00102198
-0.059282
0.00146576
-0.0563848
0.00197458
-0.0540078
0.00254068
-0.0520436
0.00315641
-0.0504058
0.0038144
-0.0490252
0.00450774
-0.0478468
0.00522998
-0.0468264
0.00597523
-0.0459292
0.00673814
-0.0451275
0.00751391
-0.0443992
0.00829827
-0.0437271
0.00908746
-0.0430977
0.00987819
-0.0425001
0.0106677
-0.0419262
0.0114534
-0.0413693
0.0122335
-0.0408243
0.0130062
-0.0402873
0.0137702
-0.039755
0.0145243
-0.0392247
0.0152678
-0.038694
0.0159998
-0.0381606
0.0167197
-0.0376226
0.0174271
-0.0370773
0.0181211
-0.0365223
-0.035954
0.0188011
3.79026e-05
-0.0792441
0.000163363
-0.072705
0.000378541
-0.067415
0.000680156
-0.0631342
0.00106225
-0.0596641
0.00151746
-0.05684
0.0020378
-0.0545281
0.00261513
-0.0526209
0.00324148
-0.0510321
0.00390925
-0.049693
0.00461132
-0.0485489
0.0053411
-0.0475562
0.0060926
-0.0466807
0.0068604
-0.0458953
0.00763966
-0.0451785
0.0084261
-0.0445136
0.00921598
-0.0438875
0.0100061
-0.0432902
0.0107936
-0.0427137
0.0115761
-0.0421519
0.0123519
-0.0416001
0.0131193
-0.0410547
0.013877
-0.0405127
0.014624
-0.0399717
0.0153596
-0.0394296
0.0160833
-0.0388843
0.0167945
-0.0383338
0.0174928
-0.0377757
0.0181778
-0.0372072
-0.036625
0.0188488
4.10812e-05
-0.0792852
0.000173032
-0.072837
0.000396722
-0.0676387
0.000708252
-0.0634458
0.00110111
-0.060057
0.00156745
-0.0573063
0.00209885
-0.0550595
0.00268683
-0.0532089
0.00332312
-0.0516684
0.00399988
-0.0503698
0.00470981
-0.0492588
0.00544619
-0.0482926
0.00620294
-0.0474375
0.00697457
-0.0466669
0.00775622
-0.0459601
0.00854363
-0.045301
0.00933306
-0.044677
0.0101213
-0.0440785
0.0109058
-0.0434981
0.0116841
-0.0429302
0.0124544
-0.0423704
0.0132154
-0.0418156
0.0139657
-0.0412631
0.0147047
-0.0407107
0.0154316
-0.0401565
0.0161461
-0.0395988
0.0168477
-0.0390354
0.0175363
-0.0384642
0.0182114
-0.0378823
-0.0372862
0.0188727
4.38435e-05
-0.079329
0.000181981
-0.0729751
0.000414024
-0.0678707
0.000735284
-0.063767
0.00113863
-0.0604603
0.00161571
-0.0577834
0.00215767
-0.0556015
0.00275567
-0.0538069
0.00340117
-0.0523139
0.00408611
-0.0510547
0.004803
-0.0499757
0.00554503
-0.0490346
0.00630599
-0.0481984
0.0070804
-0.0474413
0.00786336
-0.0467431
0.00865061
-0.0460882
0.00943849
-0.0454649
0.0102239
-0.0448638
0.0110041
-0.0442783
0.011777
-0.0437031
0.0125409
-0.0431344
0.0132945
-0.0425691
0.0140366
-0.0420052
0.0147665
-0.0414407
0.0154839
-0.0408739
0.0161883
-0.0403032
0.0168796
-0.0397267
0.0175576
-0.0391422
0.0182223
-0.038547
-0.0379372
0.0188733
4.63982e-05
-0.0793754
0.000190472
-0.0731192
0.000430636
-0.0681109
0.00076135
-0.0640977
0.00117483
-0.0608738
0.00166219
-0.0582708
0.00221414
-0.0561534
0.00282151
-0.0544142
0.00347547
-0.0529679
0.00416775
-0.051747
0.0048907
-0.0506986
0.00563739
-0.0497813
0.00640156
-0.0489626
0.00717767
-0.0482174
0.00796085
-0.0475263
0.00874686
-0.0468743
0.00953209
-0.0462501
0.0103135
-0.0456452
0.0110884
-0.0450533
0.011855
-0.0444696
0.0126114
-0.0438908
0.0133565
-0.0433143
0.0140895
-0.0427381
0.0148096
-0.0421608
0.0155166
-0.0415808
0.0162102
-0.0409968
0.0168905
-0.040407
0.0175574
-0.0398092
0.018211
-0.0392006
-0.0385775
0.0188513
4.88309e-05
-0.0794243
0.000198627
-0.073269
0.000446652
-0.0683589
0.000786498
-0.0644376
0.00120971
-0.061297
0.00170684
-0.0587679
0.0022682
-0.0567148
0.00288425
-0.0550303
0.00354589
-0.0536295
0.00424465
-0.0524457
0.00497273
-0.0514267
0.0057231
-0.0505317
0.00648945
-0.049729
0.00726621
-0.0489942
0.00804854
-0.0483086
0.00883222
-0.0476579
0.00961371
-0.0470316
0.01039
-0.0464215
0.0111587
-0.045822
0.0119178
-0.0452287
0.0126659
-0.0446388
0.0134017
-0.0440501
0.0141246
-0.043461
0.014834
-0.0428702
0.0155299
-0.0422767
0.016212
-0.041679
0.0168807
-0.0410756
0.0175359
-0.0404645
0.018178
-0.0398427
-0.0392065
0.018807
5.11753e-05
-0.0794755
0.0002065
-0.0734243
0.000462116
-0.0686146
0.000810743
-0.0647862
0.00124324
-0.0617295
0.00174962
-0.0592743
0.00231976
-0.0572849
0.00294377
-0.0556543
0.00361229
-0.054298
0.00431665
-0.0531501
0.00504893
-0.052159
0.00580199
-0.0512847
0.00656949
-0.0504965
0.00734586
-0.0497706
0.00812627
-0.049089
0.00890657
-0.0484382
0.00968328
-0.0478083
0.0104535
-0.0471917
0.0112149
-0.0465834
0.0119656
-0.0459795
0.0127043
-0.0453775
0.01343
-0.0447758
0.014142
-0.044173
0.0148401
-0.0435683
0.0155241
-0.0429607
0.0161942
-0.042349
0.0168506
-0.041732
0.0174937
-0.0411076
0.0181238
-0.0404729
-0.0398239
0.0187413
5.34484e-05
-0.0795289
0.000214116
-0.073585
0.000477044
-0.0688775
0.000834083
-0.0651432
0.0012754
-0.0621708
0.00179048
-0.0597894
0.00236875
-0.0578632
0.00299998
-0.0562855
0.00367457
-0.0549726
0.00438365
-0.0538592
0.00511918
-0.0528945
0.00587394
-0.0520395
0.00664157
-0.0512641
0.00741651
-0.0505455
0.00819395
-0.0498664
0.00896982
-0.0492141
0.00974073
-0.0485792
0.0105039
-0.0479549
0.011257
-0.0473365
0.0119985
-0.0467209
0.012727
-0.046106
0.0134417
-0.0454905
0.0141421
-0.0448734
0.014828
-0.0442542
0.0154996
-0.0436322
0.016157
-0.0430065
0.0168007
-0.0423757
0.0174312
-0.0417381
0.018049
-0.0410907
-0.0404294
0.0186545
5.56544e-05
-0.0795846
0.000221483
-0.0737508
0.000491437
-0.0691474
0.000856507
-0.0655083
0.00130618
-0.0626205
0.00182937
-0.0603126
0.0024151
-0.0584489
0.00305281
-0.0569232
0.00373263
-0.0556524
0.00444554
-0.0545721
0.00518337
-0.0536323
0.00593885
-0.052795
0.00670559
-0.0520309
0.00747807
-0.051318
0.00825152
-0.0506399
0.00902195
-0.0499846
0.00978605
-0.0493433
0.0105411
-0.04871
0.0112851
-0.0480805
0.0120164
-0.0474522
0.0127339
-0.0468235
0.0134368
-0.0461934
0.0141249
-0.0455615
0.0147981
-0.0449274
0.0154566
-0.0442907
0.0161009
-0.0436507
0.0167314
-0.0430063
0.017349
-0.0423556
0.0179541
-0.0416958
-0.0410228
0.0185475
5.77958e-05
-0.0796424
0.000228603
-0.0739216
0.000505292
-0.0694241
0.000877999
-0.065881
0.00133552
-0.063078
0.00186625
-0.0608433
0.00245876
-0.0590414
0.00310218
-0.0575666
0.00378641
-0.0563367
0.00450224
-0.0552879
0.00524142
-0.0543715
0.00599663
-0.0535502
0.00676149
-0.0527957
0.00753049
-0.052087
0.00829895
-0.0514083
0.00906295
-0.0507486
0.00981929
-0.0500996
0.0105654
-0.0494561
0.0112993
-0.0488144
0.0120196
-0.0481725
0.0127253
-0.0475292
0.0134157
-0.0468839
0.0140908
-0.0462366
0.0147506
-0.0455872
0.0153956
-0.0449357
0.0160262
-0.0442814
0.0166432
-0.0436233
0.0172475
-0.0429598
0.0178397
-0.042288
-0.0416037
0.0184207
5.98725e-05
-0.0797022
0.00023547
-0.0740972
0.000518599
-0.0697073
0.000898542
-0.066261
0.00136342
-0.0635429
0.00190108
-0.061381
0.00249969
-0.05964
0.00314804
-0.058215
0.00383583
-0.0570245
0.00455369
-0.0560058
0.00529328
-0.0551111
0.00604726
-0.0543042
0.00680924
-0.0535577
0.00757378
-0.0528515
0.00833626
-0.0521708
0.00909287
-0.0515052
0.00984052
-0.0508473
0.0105768
-0.0501924
0.0112998
-0.0495375
0.0120083
-0.048881
0.0127014
-0.0482222
0.0133787
-0.0475612
0.0140401
-0.0468981
0.014686
-0.0462331
0.0153169
-0.0455665
0.0159334
-0.0448979
0.0165365
-0.0442264
0.0171272
-0.0435504
0.0177062
-0.0428671
-0.0421722
0.0182747
6.18813e-05
-0.0797641
0.000242082
-0.0742774
0.000531348
-0.0699965
0.000918122
-0.0666477
0.00138985
-0.0640146
0.00193384
-0.0619249
0.00253784
-0.060244
0.00319036
-0.0588675
0.00388086
-0.057715
0.00459986
-0.0567248
0.00533892
-0.0558502
0.0060907
-0.0550559
0.00684884
-0.0543158
0.00760794
-0.0536106
0.00836349
-0.0529264
0.00911179
-0.0522535
0.00984986
-0.0515853
0.0105754
-0.0509179
0.0112867
-0.0502488
0.0119826
-0.0495769
0.0126625
-0.0489021
0.0133259
-0.0482247
0.0139732
-0.0475453
0.0146046
-0.0468646
0.015221
-0.0461828
0.015823
-0.0455
0.0164119
-0.0448153
0.0169886
-0.0441272
0.0175543
-0.0434328
-0.0427279
0.01811
6.38207e-05
-0.0798279
0.000248431
-0.074462
0.000543531
-0.0702916
0.000936726
-0.0670409
0.00141479
-0.0644927
0.0019645
-0.0624747
0.00257321
-0.0608527
0.00322912
-0.0595234
0.00392149
-0.0584073
0.00464072
-0.057444
0.00537834
-0.0565878
0.00612697
-0.0558046
0.00688032
-0.0550692
0.00763305
-0.0543633
0.00838075
-0.0536741
0.00911984
-0.0529925
0.00984746
-0.052313
0.0105615
-0.0516319
0.0112603
-0.0509476
0.0119429
-0.0502595
0.0126089
-0.049568
0.0132579
-0.0488738
0.0138904
-0.0481778
0.0145069
-0.0474811
0.0151082
-0.0467841
0.0156953
-0.0460871
0.0162696
-0.0453895
0.0168321
-0.0446897
0.0173843
-0.043985
-0.0432709
0.0179272
6.56874e-05
-0.0798936
0.000254511
-0.0746508
0.000555141
-0.0705923
0.000954348
-0.0674401
0.00143824
-0.0649766
0.00199306
-0.0630295
0.00260577
-0.0614655
0.0032643
-0.060182
0.00395771
-0.0591007
0.0046763
-0.0581626
0.00541155
-0.057323
0.00615612
-0.0565492
0.00690375
-0.0558168
0.0076492
-0.0551088
0.00838816
-0.054413
0.00911718
-0.0537216
0.00983355
-0.0530293
0.0105353
-0.0523336
0.0112209
-0.0516332
0.0118896
-0.0509282
0.0125409
-0.0502193
0.0131749
-0.0495078
0.0137921
-0.048795
0.0143931
-0.0480821
0.0149789
-0.04737
0.0155508
-0.046659
0.0161102
-0.0459488
0.0166583
-0.0452379
0.0171967
-0.0445234
-0.0438009
0.0177267
6.74793e-05
-0.0799611
0.00026032
-0.0748437
0.000566176
-0.0708981
0.00097099
-0.067845
0.00146019
-0.0654658
0.00201953
-0.0635888
0.00263555
-0.0620815
0.00329591
-0.0608423
0.00398954
-0.0597944
0.00470662
-0.0588797
0.00543862
-0.058055
0.00617822
-0.0572888
0.00691923
-0.0565578
0.00765652
-0.0558461
0.00838589
-0.0551424
0.00910403
-0.0544397
0.00980837
-0.0537337
0.010497
-0.0530223
0.0111688
-0.052305
0.0118228
-0.0515823
0.012459
-0.0508555
0.0130775
-0.0501263
0.0136788
-0.0493963
0.0142638
-0.0486671
0.0148338
-0.0479399
0.01539
-0.0472153
0.015934
-0.0464928
0.0164674
-0.0457713
0.0169919
-0.0450478
-0.0443178
0.0175088
6.91922e-05
-0.0800303
0.000265855
-0.0750403
0.000576641
-0.0712089
0.000986661
-0.068255
0.00148068
-0.0659598
0.00204391
-0.0641521
0.00266255
-0.0627001
0.00332399
-0.0615038
0.00401701
-0.0604874
0.00473173
-0.0595944
0.0054596
-0.0587829
0.00619336
-0.0580225
0.0069269
-0.0572914
0.00765518
-0.0565743
0.00837416
-0.0558614
0.00908063
-0.0551462
0.0097722
-0.0544252
0.0104471
-0.0536972
0.0111043
-0.0529622
0.0117432
-0.0522212
0.0123637
-0.051476
0.012966
-0.0507286
0.0135509
-0.0499812
0.0141195
-0.0492357
0.0146731
-0.0484935
0.0152132
-0.0477553
0.0157415
-0.0470212
0.0162599
-0.0462897
0.0167701
-0.045558
-0.0448214
0.0172737
7.08232e-05
-0.0801011
0.000271116
-0.0752406
0.000586544
-0.0715243
0.00100138
-0.0686698
0.00149971
-0.0664581
0.00206625
-0.0647186
0.00268681
-0.0633207
0.00334858
-0.0621655
0.00404018
-0.061179
0.0047517
-0.0603059
0.00547461
-0.0595058
0.00620168
-0.0587496
0.00692691
-0.0580166
0.00764539
-0.0572928
0.0083532
-0.0565692
0.00904729
-0.0558403
0.00972541
-0.0551034
0.010386
-0.0543578
0.011028
-0.0536042
0.0116511
-0.0528443
0.0122553
-0.0520801
0.012841
-0.0513143
0.0134091
-0.0505493
0.0139607
-0.0497873
0.0144974
-0.0490302
0.0150209
-0.0482788
0.0155331
-0.0475334
0.016036
-0.0467926
0.0165316
-0.0460535
-0.0453114
0.0170216
7.23701e-05
-0.0801735
0.00027611
-0.0754444
0.000595908
-0.0718441
0.00101518
-0.0690891
0.00151734
-0.0669603
0.00208658
-0.0652878
0.00270839
-0.0639425
0.00336973
-0.0628269
0.00405913
-0.0618684
0.00476664
-0.0610134
0.00548375
-0.0602229
0.00620333
-0.0594692
0.00691947
-0.0587327
0.00762739
-0.0580007
0.00832331
-0.0572651
0.00900434
-0.0565213
0.00966838
-0.0557674
0.010314
-0.0550034
0.0109404
-0.0542306
0.0115472
-0.0534511
0.0121346
-0.0526675
0.0127032
-0.0518829
0.0132539
-0.0511
0.0137881
-0.0503215
0.0143074
-0.0495494
0.0148137
-0.0487851
0.0153092
-0.0480289
0.0157961
-0.0472795
0.0162766
-0.0465341
-0.0457876
0.0167527
7.38283e-05
-0.0802473
0.000280849
-0.0756514
0.000604766
-0.072168
0.00102812
-0.0695124
0.00153362
-0.0674658
0.00210497
-0.0658592
0.00272734
-0.0645648
0.00338751
-0.0634871
0.00407393
-0.0625548
0.00477663
-0.0617161
0.00548717
-0.0609335
0.00619848
-0.0601805
0.00690479
-0.059439
0.00760144
-0.0586974
0.00828481
-0.0579485
0.00895217
-0.0571887
0.00960156
-0.0564168
0.0102317
-0.0556336
0.0108419
-0.0548408
0.011432
-0.0540411
0.0120022
-0.0532377
0.0125532
-0.0524339
0.0130861
-0.0516329
0.0136023
-0.0508377
0.0141036
-0.0500508
0.0145921
-0.0492737
0.0150702
-0.048507
0.0155405
-0.0477497
0.0160053
-0.0469989
-0.0462492
0.0164669
7.51965e-05
-0.0803225
0.000285356
-0.0758616
0.000613173
-0.0724959
0.00104026
-0.0699395
0.00154862
-0.0679741
0.00212148
-0.0664321
0.00274373
-0.0651871
0.00340201
-0.0641453
0.00408468
-0.0632375
0.00478182
-0.0624133
0.00548502
-0.0616367
0.00618734
-0.0608828
0.00688311
-0.0601348
0.00756784
-0.0593821
0.00823806
-0.0586187
0.00889119
-0.0578418
0.00952543
-0.057051
0.0101396
-0.0562478
0.0107332
-0.0554344
0.0113062
-0.0546141
0.0118588
-0.0537903
0.0123918
-0.0529669
0.0129064
-0.0521475
0.0134042
-0.0513354
0.0138869
-0.0505335
0.014357
-0.0497437
0.0148169
-0.048967
0.0152696
-0.0482024
0.0157179
-0.0474471
-0.0466956
0.0161643
7.64772e-05
-0.080399
0.000289677
-0.0760748
0.000621212
-0.0728274
0.0010517
-0.07037
0.00156244
-0.0684849
0.00213621
-0.0670058
0.00275766
-0.0658085
0.0034133
-0.064801
0.00409149
-0.0639157
0.00478232
-0.0631041
0.00547747
-0.0623318
0.00617011
-0.0615754
0.0068547
-0.0608194
0.00752692
-0.0600543
0.00818345
-0.0592752
0.00882187
-0.0584802
0.00944053
-0.0576697
0.0100384
-0.0568457
0.0106151
-0.0560111
0.0111706
-0.0551696
0.0117053
-0.0543251
0.0122201
-0.0534817
0.0127161
-0.0526435
0.0131949
-0.0518142
0.0136584
-0.0509971
0.0141092
-0.0501945
0.0145501
-0.0494078
0.0149842
-0.0486365
0.0154148
-0.0478778
-0.0471257
0.0158449
7.76869e-05
-0.0804767
0.000293891
-0.076291
0.000629007
-0.0731625
0.00106257
-0.0708036
0.00157518
-0.0689975
0.00214925
-0.0675799
0.0027692
-0.0664285
0.00342149
-0.0654533
0.00409447
-0.0645887
0.00477827
-0.0637879
0.00546469
-0.0630183
0.006147
-0.0622577
0.00681983
-0.0614922
0.00747901
-0.0607135
0.00812137
-0.0599176
0.00874468
-0.0591035
0.00934742
-0.0582724
0.00992874
-0.057427
0.0104883
-0.0565706
0.0110262
-0.0557074
0.0115428
-0.0548417
0.0120391
-0.053978
0.0125162
-0.0531206
0.0129757
-0.0522736
0.0134195
-0.0514409
0.0138502
-0.0506252
0.0142709
-0.0498285
0.0146851
-0.0490507
0.0150966
-0.0482893
-0.047538
0.015509
7.88677e-05
-0.0805555
0.00029814
-0.0765102
0.00063674
-0.0735011
0.00107304
-0.0712399
0.00158699
-0.0695114
0.00216069
-0.0681536
0.00277844
-0.0670463
0.00342666
-0.0661015
0.00409371
-0.0652557
0.00476981
-0.064464
0.00544685
-0.0636953
0.00611824
-0.0629291
0.00677878
-0.0621528
0.00742443
-0.0613592
0.00805224
-0.0605454
0.00866011
-0.0597114
0.00924669
-0.058859
0.00981125
-0.0579915
0.0103536
-0.0571129
0.0108738
-0.0562276
0.0113724
-0.0553404
0.0118502
-0.0544558
0.0123083
-0.0535787
0.0127483
-0.0527136
0.0131719
-0.0518645
0.0135818
-0.0510351
0.0139811
-0.0502278
0.0143738
-0.0494435
0.0147644
-0.0486799
-0.0479307
0.0151571
8.01352e-05
-0.0806357
0.000302672
-0.0767328
0.000644677
-0.0738431
0.00108331
-0.0716785
0.00159799
-0.0700261
0.00217062
-0.0687262
0.00278545
-0.0676611
0.00342887
-0.0667449
0.00408931
-0.0659161
0.00475705
-0.0651317
0.0054241
-0.0643623
0.00608403
-0.0635891
0.00673178
-0.0628005
0.00736353
-0.0619909
0.00797645
-0.0611583
0.00856865
-0.0603036
0.00913892
-0.0594293
0.00968667
-0.0585393
0.0102118
-0.057638
0.0107144
-0.0567303
0.0111951
-0.0558211
0.0116547
-0.0549154
0.0120941
-0.0540181
0.0125146
-0.0531341
0.012918
-0.0522679
0.0133065
-0.0514236
0.0136833
-0.0506046
0.0140527
-0.0498129
0.01442
-0.0490471
-0.048301
0.0147903
8.17452e-05
-0.0807174
0.000307905
-0.0769589
0.000653178
-0.0741884
0.00109361
-0.0721189
0.00160832
-0.0705408
0.00217913
-0.069297
0.00279029
-0.0682722
0.0034282
-0.0673828
0.00408134
-0.0665693
0.0047401
-0.0657905
0.0053966
-0.0650188
0.00604456
-0.064237
0.0066791
-0.0634351
0.00729658
-0.0626084
0.00789437
-0.0617561
0.00847074
-0.0608799
0.00902465
-0.0599832
0.00955564
-0.0590703
0.0100637
-0.058146
0.0105491
-0.0572157
0.0110123
-0.0562844
0.0114542
-0.0553572
0.0118754
-0.0544394
0.0122771
-0.0535358
0.0126606
-0.0526513
0.0130277
-0.0517907
0.0133813
-0.0509582
0.0137256
-0.0501573
0.0140667
-0.0493882
-0.0486457
0.0144114
8.41964e-05
-0.0808016
0.000314463
-0.0771892
0.000662683
-0.0745366
0.00110418
-0.0725604
0.00161807
-0.0710547
0.00218624
-0.0698652
0.00279296
-0.068879
0.00342466
-0.0680145
0.00406986
-0.0672145
0.00471904
-0.0664397
0.00536445
-0.0656643
0.00599998
-0.0648726
0.00662093
-0.064056
0.00722384
-0.0632113
0.0078063
-0.0623386
0.00836675
-0.0614404
0.00890433
-0.0605208
0.00941873
-0.0595847
0.00991004
-0.0586374
0.0103786
-0.0576843
0.0108251
-0.0567308
0.0112501
-0.0557822
0.0116542
-0.0548436
0.0120383
-0.0539199
0.0124031
-0.0530161
0.0127499
-0.0521374
0.0130805
-0.0512889
0.0133986
-0.0504754
0.0137107
-0.0497003
-0.0489608
0.0140258
8.84169e-05
-0.08089
0.000323317
-0.0774241
0.000673749
-0.074887
0.00111524
-0.0730019
0.00162729
-0.0715667
0.00219194
-0.0704299
0.00279345
-0.0694805
0.00341825
-0.0686393
0.00405489
-0.0678511
0.00469392
-0.0670787
0.00532775
-0.0662981
0.00595041
-0.0654952
0.00655742
-0.064663
0.00714552
-0.0637994
0.0077125
-0.0629056
0.00825699
-0.0619849
0.00877832
-0.0610421
0.00927636
-0.0600827
0.00975135
-0.0591123
0.0102038
-0.0581367
0.0106343
-0.0571613
0.0110435
-0.0561915
0.0114321
-0.0552322
0.0118006
-0.0542883
0.0121491
-0.0533647
0.012478
-0.0524663
0.0127878
-0.0515987
0.0130803
-0.0507679
0.0133607
-0.0499807
-0.0492417
0.0136416
9.68551e-05
-0.0809869
0.000336459
-0.0776637
0.000687181
-0.0752378
0.00112693
-0.0734417
0.0016359
-0.0720757
0.0021961
-0.0709901
0.00279166
-0.070076
0.00340891
-0.0692566
0.0040364
-0.0684786
0.00466477
-0.067707
0.00528653
-0.0669198
0.00589594
-0.0661046
0.00648869
-0.0652558
0.00706174
-0.0643725
0.0076131
-0.0634569
0.00814161
-0.0625134
0.00864682
-0.0615473
0.00912875
-0.0605646
0.00958785
-0.0595714
0.0100248
-0.0585736
0.0104403
-0.0575768
0.0108352
-0.0565864
0.0112102
-0.0556072
0.0115657
-0.0546438
0.0119017
-0.0537007
0.0122176
-0.0527822
0.0125121
-0.0518931
0.0127829
-0.0510387
0.0130307
-0.0502285
-0.0494847
0.0132737
0.000117289
-0.0811042
0.000356857
-0.0779033
0.000703257
-0.0755842
0.00113885
-0.0738773
0.00164347
-0.0725803
0.00219843
-0.071545
0.0027874
-0.070665
0.00339654
-0.0698657
0.00401435
-0.0690964
0.00463155
-0.0683242
0.00524083
-0.0675291
0.0058366
-0.0667004
0.00641479
-0.065834
0.00697258
-0.0649302
0.00750818
-0.0639925
0.00802068
-0.0630259
0.00850983
-0.0620365
0.00897586
-0.0610307
0.00941942
-0.060015
0.00984139
-0.0589956
0.0102428
-0.0579783
0.0106248
-0.0569684
0.0109883
-0.0559707
0.0113344
-0.0549899
0.0116636
-0.0540298
0.0119758
-0.0530944
0.0122692
-0.0521866
0.0125369
-0.0513065
0.012764
-0.0504556
-0.0496677
0.012947
0.0835232
9.05261e-05
-0.0836138
0.0834431
8.01703e-05
0.0833661
7.70129e-05
0.0832896
7.64252e-05
0.0832127
7.69258e-05
0.0831348
7.7938e-05
0.0830556
7.91442e-05
0.0829752
8.03796e-05
0.0828937
8.15646e-05
0.082811
8.26689e-05
0.0827273
8.36786e-05
0.0826427
8.45882e-05
0.0825573
8.53981e-05
0.0824712
8.61078e-05
0.0823845
8.67189e-05
0.0822973
8.7231e-05
0.0822096
8.76456e-05
0.0821217
8.79626e-05
0.0820335
8.81798e-05
0.0819452
8.82971e-05
0.0818569
8.83108e-05
0.0817687
8.82156e-05
0.0816807
8.7999e-05
0.081593
8.76439e-05
0.0815059
8.71123e-05
0.0814196
8.63314e-05
0.0813344
8.51421e-05
0.0812513
8.31725e-05
0.081172
7.92536e-05
6.78427e-05
0.0840231
0.000259106
-0.0841917
0.0838485
0.000254787
0.0836708
0.000254731
0.08349
0.000257176
0.083306
0.000260924
0.0831186
0.000265391
0.0829275
0.000270189
0.0827329
0.000275056
0.0825346
0.00027983
0.0823329
0.000284415
0.0821278
0.000288756
0.0819196
0.000292817
0.0817084
0.000296576
0.0814945
0.000300022
0.081278
0.000303146
0.0810593
0.000305942
0.0808386
0.000308408
0.080616
0.000310538
0.0803918
0.000312327
0.0801664
0.00031377
0.0799398
0.000314856
0.0797125
0.000315572
0.0794846
0.000315891
0.0792564
0.000315771
0.0790284
0.000315142
0.0788009
0.000313876
0.0785743
0.000311733
0.0783492
0.000308236
0.0781262
0.000302288
0.000290754
0.0843847
0.000474496
-0.0846001
0.0841576
0.000481979
0.0839214
0.00049087
0.0836776
0.000501001
0.0834266
0.000511872
0.0831689
0.000523145
0.0829045
0.000534555
0.0826337
0.000545873
0.0823566
0.000556931
0.0820734
0.00056761
0.0817843
0.000577823
0.0814897
0.000587506
0.0811896
0.000596616
0.0808845
0.000605123
0.0805747
0.000613004
0.0802604
0.000620244
0.0799419
0.000626827
0.0796197
0.000632744
0.0792941
0.00063798
0.0789653
0.000642524
0.0786338
0.000646358
0.0782999
0.00064946
0.077964
0.000651793
0.0776265
0.000653306
0.0772877
0.000653917
0.0769481
0.000653494
0.076608
0.000651821
0.0762677
0.000648533
0.0759271
0.000642954
0.00063365
0.0845088
0.000712522
-0.0847468
0.0842567
0.000734011
0.0839922
0.000755421
0.0837162
0.000776966
0.0834296
0.000798528
0.0831328
0.00081996
0.0828262
0.000841112
0.0825102
0.000861831
0.0821852
0.000881983
0.0818513
0.000901458
0.081509
0.000920162
0.0811585
0.000938019
0.0808001
0.00095497
0.0804343
0.000970972
0.0800613
0.00098599
0.0796816
0.000999992
0.0792954
0.00101296
0.0789033
0.00102486
0.0785056
0.00103568
0.0781027
0.0010454
0.0776951
0.001054
0.0772831
0.00106144
0.0768672
0.00106768
0.0764479
0.00107267
0.0760254
0.00107634
0.0756004
0.00107857
0.075173
0.00107921
0.0747435
0.001078
0.0743119
0.00107456
0.00106826
0.0843533
0.000953608
-0.0845943
0.0840965
0.000990766
0.0838248
0.0010271
0.083539
0.00106281
0.0832396
0.00109792
0.0829272
0.00113236
0.0826023
0.00116604
0.0822652
0.00119887
0.0819165
0.00123075
0.0815563
0.00126158
0.0811852
0.00129128
0.0808035
0.00131977
0.0804114
0.00134698
0.0800096
0.00137285
0.0795982
0.00139735
0.0791778
0.00142043
0.0787487
0.00144205
0.0783113
0.00146219
0.0778662
0.0014808
0.0774138
0.00149788
0.0769544
0.00151337
0.0764886
0.00152726
0.0760168
0.00153949
0.0755394
0.00155001
0.075057
0.00155877
0.0745699
0.00156566
0.0740785
0.00157059
0.0735831
0.00157339
0.0730838
0.00157388
0.00157174
0.0839114
0.00118364
-0.0841415
0.0836643
0.00123791
0.0834005
0.00129093
0.0831204
0.00134284
0.0828247
0.00139366
0.0825137
0.00144334
0.0821879
0.00149184
0.0818477
0.00153906
0.0814935
0.00158494
0.0811257
0.00162938
0.0807447
0.00167232
0.0803508
0.00171365
0.0799445
0.00175332
0.0795261
0.00179126
0.079096
0.00182741
0.0786547
0.00186173
0.0782026
0.00189417
0.0777401
0.00192468
0.0772677
0.00195323
0.0767858
0.00197978
0.0762949
0.00200429
0.0757954
0.00202671
0.0752879
0.00204702
0.0747727
0.00206515
0.0742504
0.00208106
0.0737214
0.00209467
0.0731861
0.00210591
0.0726448
0.0021147
0.0720977
0.00212092
0.00212444
0.0832006
0.00139324
-0.0834102
0.0829727
0.00146577
0.0827268
0.0015368
0.0824633
0.00160638
0.0821824
0.00167451
0.0818847
0.00174113
0.0815703
0.00180618
0.0812398
0.00186961
0.0808934
0.00193132
0.0805315
0.00199123
0.0801546
0.00204927
0.0797629
0.00210533
0.0793569
0.00215936
0.0789369
0.00221127
0.0785033
0.002261
0.0780565
0.00230848
0.077597
0.00235367
0.0771252
0.00239651
0.0766415
0.00243695
0.0761463
0.00247493
0.0756402
0.00251043
0.0751235
0.00254338
0.0745968
0.00257375
0.0740604
0.00260148
0.073515
0.00262652
0.0729608
0.00264883
0.0723984
0.00266835
0.0718281
0.00268503
0.0712502
0.00269881
0.00270962
0.0822521
0.0015768
-0.0824356
0.0820494
0.00166843
0.0818278
0.00175839
0.0815875
0.00184667
0.0813288
0.00193322
0.081052
0.00201799
0.0807573
0.00210089
0.080445
0.00218186
0.0801155
0.0022608
0.0797691
0.00233762
0.0794062
0.00241224
0.079027
0.00248455
0.0786318
0.00255447
0.0782212
0.00262193
0.0777953
0.00268683
0.0773547
0.00274912
0.0768997
0.00280872
0.0764306
0.00286556
0.075948
0.00291959
0.0754521
0.00297075
0.0749436
0.00301898
0.0744227
0.00306424
0.07389
0.00310646
0.0733459
0.0031456
0.0727908
0.00318161
0.0722252
0.00321444
0.0716495
0.00324406
0.0710641
0.00327044
0.0704694
0.00329353
0.00331328
0.0811043
0.0017316
-0.0812591
0.0809299
0.00184286
0.0807359
0.00195232
0.0805227
0.00205994
0.0802902
0.00216565
0.0800388
0.00226937
0.0797687
0.00237099
0.0794802
0.00247043
0.0791734
0.00256759
0.0788486
0.00266237
0.0785062
0.00275466
0.0781464
0.00284436
0.0777695
0.00293136
0.0773758
0.00301559
0.0769657
0.00309694
0.0765395
0.00317533
0.0760976
0.00325068
0.0756402
0.00332291
0.0751678
0.00339196
0.0746809
0.00345774
0.0741796
0.0035202
0.0736646
0.00357928
0.0731361
0.00363491
0.0725947
0.00368704
0.0720407
0.00373563
0.0714745
0.00378062
0.0708966
0.00382198
0.0703073
0.00385968
0.0697072
0.00389371
0.003924
0.0797975
0.00185708
-0.079923
0.0796522
0.00198819
0.0794871
0.00211744
0.0793023
0.00224474
0.0790979
0.00237001
0.0788742
0.00249313
0.0786312
0.00261399
0.0783691
0.00273248
0.0780882
0.00284849
0.0777887
0.00296191
0.0774707
0.00307262
0.0771346
0.00318049
0.0767805
0.00328542
0.0764088
0.0033873
0.0760197
0.00348602
0.0756136
0.0035815
0.0751906
0.00367363
0.0747512
0.00376233
0.0742957
0.0038475
0.0738243
0.00392908
0.0733376
0.00400697
0.0728357
0.00408112
0.0723192
0.00415145
0.0717883
0.0042179
0.0712435
0.00428042
0.0706852
0.00433895
0.0701137
0.00439347
0.0695295
0.00444393
0.0689328
0.00449033
0.0045326
0.0783709
0.00195417
-0.078468
0.0782539
0.00210513
0.0781172
0.0022542
0.0779607
0.00240127
0.0777845
0.00254622
0.0775887
0.00268892
0.0773734
0.00282924
0.0771388
0.00296705
0.0768851
0.00310225
0.0766123
0.00323469
0.0763207
0.00336423
0.0760104
0.00349075
0.0756817
0.00361413
0.0753348
0.00373424
0.0749698
0.00385097
0.0745871
0.00396421
0.0741869
0.00407384
0.0737695
0.00417977
0.0733351
0.0042819
0.072884
0.00438013
0.0724166
0.00447438
0.0719331
0.00456456
0.071434
0.0046506
0.0709195
0.00473242
0.0703899
0.00480997
0.0698457
0.00488318
0.0692871
0.00495202
0.0687146
0.00501645
0.0681285
0.00507645
0.00513196
0.0768603
0.00202483
-0.076931
0.07677
0.00219545
0.07666
0.00236418
0.0765304
0.00253088
0.0763812
0.00269542
0.0762124
0.00285765
0.0760243
0.00301742
0.0758167
0.0031746
0.0755899
0.00332905
0.075344
0.00348062
0.075079
0.00362917
0.0747952
0.00377455
0.0744927
0.00391664
0.0741717
0.00405528
0.0738323
0.00419036
0.0734748
0.00432175
0.0730993
0.00444934
0.0727061
0.00457299
0.0722953
0.00469262
0.0718674
0.0048081
0.0714224
0.00491934
0.0709607
0.00502625
0.0704826
0.00512874
0.0699883
0.00522672
0.0694781
0.00532012
0.0689524
0.00540889
0.0684115
0.00549297
0.0678556
0.00557233
0.0672851
0.00564692
0.0057167
0.0752975
0.00207165
-0.0753443
0.0752313
0.0022616
0.0751458
0.00244968
0.075041
0.00263572
0.0749168
0.00281959
0.0747733
0.00300112
0.0746106
0.00318015
0.0744287
0.00335653
0.0742276
0.0035301
0.0740075
0.00370072
0.0737685
0.00386822
0.0735106
0.00403245
0.0732339
0.00419326
0.0729387
0.00435051
0.072625
0.00450405
0.072293
0.00465375
0.0719429
0.00479948
0.0715748
0.00494111
0.0711889
0.00507852
0.0707854
0.00521159
0.0703645
0.00534022
0.0699265
0.00546429
0.0694715
0.00558371
0.0689998
0.00569838
0.0685117
0.00580823
0.0680075
0.00591318
0.0674873
0.00601317
0.0669514
0.00610816
0.0664002
0.00619811
0.00628296
0.0737095
0.00209756
-0.0737354
0.0736647
0.0023064
0.073601
0.0025134
0.0735183
0.0027184
0.0734167
0.00292122
0.0732961
0.00312168
0.0731566
0.00331963
0.0729982
0.0035149
0.072821
0.00370731
0.072625
0.00389672
0.0724103
0.00408294
0.0721769
0.00426582
0.071925
0.0044452
0.0716546
0.00462092
0.0713658
0.00479283
0.0710588
0.00496079
0.0707336
0.00512465
0.0703904
0.00528429
0.0700294
0.00543956
0.0696506
0.00559034
0.0692543
0.00573651
0.0688407
0.00587795
0.0684098
0.00601455
0.067962
0.00614622
0.0674974
0.00627285
0.0670162
0.00639437
0.0665186
0.00651071
0.066005
0.00662182
0.0654754
0.00672765
0.00682815
0.0721187
0.00210557
-0.0721267
0.0720923
0.00233282
0.0720474
0.00255826
0.0719841
0.00278173
0.0719023
0.00300302
0.071802
0.00322198
0.0716833
0.0034384
0.071546
0.00365213
0.0713903
0.00386299
0.0712163
0.0040708
0.0710238
0.00427539
0.070813
0.00447659
0.070584
0.00467422
0.0703368
0.00486813
0.0700715
0.00505816
0.0697881
0.00524416
0.0694868
0.00542598
0.0691676
0.00560346
0.0688307
0.00577648
0.0684761
0.00594489
0.0681041
0.00610857
0.0677146
0.0062674
0.0673079
0.00642124
0.0668842
0.00656999
0.0664435
0.00671354
0.065986
0.00685181
0.065512
0.00698472
0.0650216
0.00711219
0.0645151
0.00723421
0.00735072
0.0705432
0.00209868
-0.0705363
0.0705322
0.00234381
0.0705033
0.00258716
0.0704565
0.00282857
0.0703917
0.00306783
0.0703089
0.00330475
0.0702081
0.00353915
0.0700894
0.00377084
0.0699528
0.00399966
0.0697982