/*--------------------------------*- C++ -*----------------------------------*\
  =========                 |
  \\      /  F ield         | OpenFOAM: The Open Source CFD Toolbox
   \\    /   O peration     | Website:  https://openfoam.org
    \\  /    A nd           | Version:  6.0
     \\/     M anipulation  |
\*---------------------------------------------------------------------------*/
FoamFile
{
    version     2.0;
    format      ascii;
    class       surfaceScalarField;
    location    "10.248";
    object      phi;
}
// * * * * * * * * * * * * * * * * * * * * * * * * * * * * * * * * * * * * * //

dimensions      [0 3 -1 0 0 0 0];

internalField   nonuniform List<scalar> 
38030
(
-8.55946e-06
-0.0079825
0.00799106
-2.74332e-05
-0.00734495
0.00736382
-5.44915e-05
-0.0067614
0.00678845
-8.77595e-05
-0.00622868
0.00626195
-0.000125418
-0.00574329
0.00578095
-0.000165924
-0.0053016
0.00534211
-0.000207994
-0.00490009
0.00494216
-0.000250574
-0.00453536
0.00457794
-0.000292807
-0.00420418
0.00424641
-0.000334008
-0.00390353
0.00394474
-0.000373643
-0.0036306
0.00367023
-0.000411308
-0.00338276
0.00342043
-0.000446712
-0.00315763
0.00319303
-0.000479662
-0.00295299
0.00298594
-0.000510053
-0.00276682
0.00279722
-0.000537856
-0.0025973
0.0026251
-0.000563109
-0.00244275
0.002468
-0.000585906
-0.00230165
0.00232445
-0.000606392
-0.00217265
0.00219314
-0.000624756
-0.00205451
0.00207288
-0.000641223
-0.00194613
0.0019626
-0.000656046
-0.00184651
0.00186134
-0.000669502
-0.00175477
0.00176823
-0.000681885
-0.0016701
0.00168248
-0.0006935
-0.00159178
0.0016034
-0.000704656
-0.00151923
0.00153038
-0.000715661
-0.00145193
0.00146294
-0.000726818
-0.00138947
0.00140063
-0.000738423
-0.00133142
0.00134303
-0.00127738
0.00128973
-0.000750775
-7.56291e-06
-0.00797494
-2.61566e-05
-0.00732635
-5.28483e-05
-0.0067347
-8.54015e-05
-0.00619613
-0.000121952
-0.00570674
-0.000160941
-0.00526261
-0.000201078
-0.00485996
-0.000241303
-0.00449513
-0.000280759
-0.00416473
-0.000318762
-0.00386553
-0.00035478
-0.00359458
-0.000388413
-0.00334913
-0.000419376
-0.00312667
-0.000447483
-0.00292488
-0.000472638
-0.00274167
-0.00049482
-0.00257512
-0.000514077
-0.00242349
-0.000530517
-0.00228521
-0.000544298
-0.00215887
-0.000555625
-0.00204318
-0.000564739
-0.00193702
-0.000571913
-0.00183934
-0.000577444
-0.00174924
-0.00058165
-0.00166589
-0.000584859
-0.00158857
-0.000587409
-0.00151668
-0.000589638
-0.0014497
-0.000591878
-0.00138723
-0.000594454
-0.00132885
-0.00127414
-0.000597696
-7.18343e-06
-0.00796775
-2.51948e-05
-0.00730834
-5.10915e-05
-0.00670881
-8.25056e-05
-0.00616472
-0.000117503
-0.00567174
-0.000154489
-0.00522563
-0.000192154
-0.00482229
-0.000229431
-0.00445786
-0.000265457
-0.0041287
-0.000299548
-0.00383144
-0.000331175
-0.00356295
-0.00035994
-0.00332037
-0.000385563
-0.00310104
-0.000407863
-0.00290258
-0.000426751
-0.00272278
-0.000442213
-0.00255966
-0.000454308
-0.00241139
-0.000463154
-0.00227637
-0.000468922
-0.0021531
-0.000471831
-0.00204028
-0.000472141
-0.00193671
-0.000470144
-0.00184134
-0.00046616
-0.00175322
-0.00046053
-0.00167152
-0.000453613
-0.00159549
-0.000445777
-0.00152451
-0.000437395
-0.00145809
-0.000428835
-0.00139579
-0.00042046
-0.00133722
-0.00128196
-0.000412636
-6.94059e-06
-0.00796081
-2.42871e-05
-0.007291
-4.91287e-05
-0.00668397
-7.90545e-05
-0.00613479
-0.000112086
-0.00563871
-0.000146599
-0.00519111
-0.000181266
-0.00478762
-0.00021501
-0.00442411
-0.000246964
-0.00409675
-0.000276444
-0.00380196
-0.000302921
-0.00353648
-0.000326
-0.00329729
-0.000345403
-0.00308164
-0.000360955
-0.00288703
-0.000372571
-0.00271117
-0.000380244
-0.00255198
-0.000384039
-0.0024076
-0.000384084
-0.00227632
-0.000380562
-0.00215662
-0.000373706
-0.00204713
-0.000363793
-0.00194662
-0.000351136
-0.00185399
-0.000336079
-0.00176828
-0.000318988
-0.00168861
-0.000300253
-0.00161423
-0.000280278
-0.00154449
-0.000259476
-0.00147889
-0.000238259
-0.00141701
-0.000217032
-0.00135845
-0.00130279
-0.000196208
-6.70804e-06
-0.0079541
-2.33052e-05
-0.0072744
-4.68838e-05
-0.00666039
-7.50158e-05
-0.00610666
-0.000105698
-0.00560803
-0.000137288
-0.00515952
-0.000168446
-0.00475646
-0.000198087
-0.00439447
-0.000225343
-0.00406949
-0.000249529
-0.00377777
-0.000270117
-0.00351589
-0.000286713
-0.00328069
-0.000299043
-0.00306931
-0.000306935
-0.00287914
-0.000310305
-0.0027078
-0.000309151
-0.00255314
-0.000303545
-0.00241321
-0.00029362
-0.00228625
-0.00027957
-0.00217067
-0.000261641
-0.00206506
-0.000240126
-0.00196813
-0.000215359
-0.00187876
-0.000187709
-0.00179593
-0.000157572
-0.00171875
-0.000125364
-0.00164643
-9.15343e-05
-0.00157832
-5.65374e-05
-0.00151388
-2.08337e-05
-0.00145271
1.51159e-05
-0.0013944
-0.00133852
5.08452e-05
-6.4483e-06
-0.00794766
-2.21937e-05
-0.00725865
-4.43121e-05
-0.00663827
-7.03639e-05
-0.00608061
-9.83332e-05
-0.00558006
-0.000126567
-0.00513129
-0.00015372
-0.00472931
-0.000178705
-0.00436949
-0.000200654
-0.00404754
-0.000218881
-0.00375955
-0.000232862
-0.00350191
-0.000242206
-0.00327135
-0.000246638
-0.00306488
-0.000245987
-0.00287979
-0.000240173
-0.00271361
-0.000229196
-0.00256411
-0.000213128
-0.00242927
-0.000192109
-0.00230727
-0.000166341
-0.00219644
-0.000136078
-0.00209532
-0.000101629
-0.00200258
-6.33495e-05
-0.00191704
-2.1631e-05
-0.00183765
2.30996e-05
-0.00176348
7.03861e-05
-0.00169372
0.000119747
-0.00162768
0.000170673
-0.00156481
0.000222652
-0.00150469
0.00027516
-0.00144691
-0.00139102
0.000327667
-6.14774e-06
-0.00794151
-2.09269e-05
-0.00724387
-4.13886e-05
-0.00661781
-6.50824e-05
-0.00605691
-8.99864e-05
-0.00555515
-0.000114445
-0.00510683
-0.000137111
-0.00470664
-0.000156902
-0.0043497
-0.00017295
-0.00403149
-0.000184576
-0.00374792
-0.000191256
-0.00349523
-0.000192603
-0.00327
-0.000188342
-0.00306914
-0.000178304
-0.00288983
-0.000162408
-0.00272951
-0.000140652
-0.00258587
-0.000113111
-0.00245681
-7.99264e-05
-0.00234045
-4.1302e-05
-0.00223507
2.49778e-06
-0.00213912
5.11534e-05
-0.00205124
0.000104294
-0.00197018
0.000161499
-0.00189486
0.000222315
-0.0018243
0.000286246
-0.00175765
0.000352764
-0.0016942
0.000421312
-0.00163336
0.000491311
-0.00157469
0.000562173
-0.00151777
-0.00146214
0.00063329
-5.80254e-06
-0.0079357
-1.9494e-05
-0.00723018
-3.81001e-05
-0.0065992
-5.91615e-05
-0.00603585
-8.06546e-05
-0.00553366
-0.000100927
-0.00508656
-0.000118637
-0.00468893
-0.000132708
-0.00433563
-0.00014228
-0.00402192
-0.000146681
-0.00374352
-0.00014539
-0.00349652
-0.000138023
-0.00327737
-0.000124309
-0.00308285
-0.000104075
-0.00291006
-7.72399e-05
-0.00275634
-4.38e-05
-0.00261931
-3.82614e-06
-0.00249679
4.25417e-05
-0.00238682
9.50983e-05
-0.00228762
0.000153576
-0.0021976
0.000217646
-0.00211531
0.000286924
-0.00203946
0.00036097
-0.0019689
0.000439296
-0.00190262
0.000521373
-0.00183973
0.000606622
-0.00177945
0.000694429
-0.00172117
0.00078415
-0.00166441
0.000875115
-0.00160873
-0.00155366
0.000966633
-5.41171e-06
-0.00793029
-1.78907e-05
-0.0072177
-3.444e-05
-0.00658265
-5.25948e-05
-0.0060177
-7.03351e-05
-0.00551592
-8.60162e-05
-0.00507088
-9.83091e-05
-0.00467664
-0.000106147
-0.00432779
-0.000108683
-0.00401939
-0.000105251
-0.00374695
-9.53416e-05
-0.00350643
-7.8573e-05
-0.00329414
-5.46757e-05
-0.00310675
-2.34774e-05
-0.00294126
1.5108e-05
-0.00279493
6.10884e-05
-0.00266529
0.000114399
-0.0025501
0.000174904
-0.00244732
0.000242404
-0.00235512
0.00031663
-0.00227183
0.00039725
-0.00219593
0.00048387
-0.00212608
0.000576032
-0.00206106
0.000673221
-0.00199981
0.000774867
-0.00194137
0.00088035
-0.00188493
0.000988991
-0.00182981
0.00110007
-0.00177549
0.00121284
-0.0017215
-0.00166732
0.00132651
-4.97541e-06
-0.00792532
-1.61144e-05
-0.00720656
-3.04033e-05
-0.00656836
-4.53765e-05
-0.00600272
-5.90228e-05
-0.00550227
-6.9712e-05
-0.00506019
-7.61317e-05
-0.00467022
-7.72322e-05
-0.00432669
-7.21818e-05
-0.00402444
-6.03293e-05
-0.0037588
-4.11737e-05
-0.00352558
-1.4341e-05
-0.00332097
2.04357e-05
-0.00314153
6.33295e-05
-0.00298415
0.000114431
-0.00284603
0.000173755
-0.00272461
0.000241245
-0.00261759
0.000316777
-0.00252286
0.000400157
-0.0024385
0.000491125
-0.00236279
0.000589351
-0.00229416
0.000694435
-0.00223116
0.000805905
-0.00217253
0.000923224
-0.00211713
0.00104579
-0.00206394
0.00117292
-0.00201207
0.0013039
-0.00196078
0.00143791
-0.00190951
0.00157412
-0.00185771
-0.00180482
0.00171162
-4.49332e-06
-0.00792082
-1.41629e-05
-0.00719689
-2.59848e-05
-0.00655654
-3.74988e-05
-0.00599121
-4.67087e-05
-0.00549306
-5.20055e-05
-0.00505489
-5.20993e-05
-0.00467013
-4.59635e-05
-0.00433282
-3.27873e-05
-0.00403761
-1.19373e-05
-0.00377965
1.70729e-05
-0.00355459
5.46081e-05
-0.0033585
0.00010093
-0.00318785
0.000156213
-0.00303943
0.000220551
-0.00291037
0.000293968
-0.00279803
0.000376419
-0.00270004
0.000467794
-0.00261423
0.000567914
-0.00253862
0.000676531
-0.00247141
0.000793325
-0.00241095
0.000917897
-0.00235573
0.00104977
-0.00230441
0.00118839
-0.00225575
0.00133312
-0.00220867
0.00148324
-0.00216219
0.00163797
-0.0021155
0.00179641
-0.00206795
0.00195762
-0.00201893
-0.00196778
0.00212058
-3.96468e-06
-0.00791686
-1.20329e-05
-0.00718883
-2.11773e-05
-0.0065474
-2.89504e-05
-0.00598344
-3.33786e-05
-0.00548864
-3.28803e-05
-0.00505539
-2.61956e-05
-0.00467681
-1.2327e-05
-0.00434669
9.50932e-06
-0.00405945
3.99231e-05
-0.00381007
7.93821e-05
-0.00359405
0.000128238
-0.00340736
0.000186744
-0.00324636
0.000255073
-0.00310776
0.000333323
-0.00298862
0.000421529
-0.00288623
0.000519659
-0.00279817
0.000627621
-0.00272219
0.000745256
-0.00265626
0.000872337
-0.00259849
0.00100856
-0.00254717
0.00115354
-0.00250071
0.0013068
-0.00245767
0.00146778
-0.00241673
0.00163582
-0.0023767
0.00181016
-0.00233652
0.00198994
-0.00229528
0.00217421
-0.00225222
0.0023619
-0.00220663
-0.00215774
0.00255187
-3.38842e-06
-0.00791347
-9.71963e-06
-0.0071825
-1.59713e-05
-0.00654114
-1.97165e-05
-0.00597969
-1.9012e-05
-0.00548934
-1.23116e-05
-0.00506209
1.60746e-06
-0.00469073
2.37063e-05
-0.00436879
5.4735e-05
-0.00409048
9.52734e-05
-0.00385061
0.000145765
-0.00364454
0.000206543
-0.00346814
0.000277849
-0.00331766
0.00035985
-0.00318976
0.000452648
-0.00308142
0.000556285
-0.00298987
0.000670748
-0.00291263
0.000795965
-0.00284741
0.000931803
-0.0027921
0.00107806
-0.00274475
0.00123446
-0.00270357
0.00140065
-0.0026669
0.00157616
-0.00263318
0.00176043
-0.002601
0.00195279
-0.00256906
0.00215245
-0.00253618
0.00235848
-0.00250132
0.00256987
-0.00246361
0.00278543
-0.00242219
-0.00237618
0.00300386
-2.76276e-06
-0.00791071
-7.2173e-06
-0.00717804
-1.03548e-05
-0.00653801
-9.77809e-06
-0.00598027
-3.58271e-06
-0.00549554
9.73382e-06
-0.00507541
3.1349e-05
-0.00471235
6.21799e-05
-0.00439962
0.000102935
-0.00413123
0.000154158
-0.00390183
0.000216261
-0.00370665
0.000289551
-0.00354143
0.000374254
-0.00340236
0.000470527
-0.00328604
0.000578471
-0.00318936
0.000698136
-0.00310954
0.000829524
-0.00304402
0.000972588
-0.00299047
0.00112723
-0.00294674
0.00129327
-0.0029108
0.00147049
-0.00288079
0.00165855
-0.00285496
0.00185702
-0.00283166
0.00206537
-0.00280935
0.00228291
-0.00278661
0.00250884
-0.00276211
0.00274219
-0.00273467
0.00298185
-0.00270327
0.00322654
-0.00266688
-0.00262444
0.00347481
-2.08566e-06
-0.00790862
-4.51867e-06
-0.00717561
-4.31372e-06
-0.00653821
8.87277e-07
-0.00598547
1.29407e-05
-0.00550759
3.32963e-05
-0.00509576
6.30779e-05
-0.00474213
0.00010315
-0.00443969
0.000154172
-0.00418225
0.000216643
-0.0039643
0.000290935
-0.00378094
0.000377324
-0.00362782
0.00047601
-0.00350105
0.000587134
-0.00339716
0.000710792
-0.00331302
0.000847037
-0.00324578
0.000995887
-0.00319287
0.00115732
-0.00315191
0.00133126
-0.00312068
0.0015176
-0.00309713
0.00171613
-0.00307933
0.00192659
-0.00306542
0.00214859
-0.00305366
0.00238163
-0.00304239
0.00262505
-0.00303002
0.00287803
-0.00301509
0.00313958
-0.00299623
0.00340853
-0.00297221
0.00368347
-0.00294182
-0.00290378
0.00396281
-1.35461e-06
-0.00790727
-1.61574e-06
-0.00717535
2.16773e-06
-0.006542
1.23045e-05
-0.00599561
3.05929e-05
-0.00552588
5.84209e-05
-0.00512359
9.68498e-05
-0.00478056
0.000146683
-0.00448953
0.000208522
-0.00424409
0.000282811
-0.00403859
0.000369876
-0.003868
0.000469951
-0.00372789
0.000583202
-0.0036143
0.000709747
-0.00352371
0.000849665
-0.00345293
0.00100301
-0.00339913
0.00116981
-0.00335967
0.00135005
-0.00333215
0.00154372
-0.00331435
0.00175074
-0.00330415
0.00197097
-0.00329955
0.00220419
-0.00329865
0.00245011
-0.00329957
0.00270826
-0.00330054
0.00297804
-0.00329981
0.00325866
-0.00329571
0.00354912
-0.00328668
0.00384816
-0.00327126
0.00415432
-0.00324797
-0.00321527
0.00446581
-5.67149e-07
-0.0079067
1.49979e-06
-0.00717741
9.1059e-06
-0.0065496
2.44992e-05
-0.006011
4.94101e-05
-0.00555079
8.5155e-05
-0.00515934
0.000132724
-0.00482813
0.00019285
-0.00454965
0.000266067
-0.00431731
0.000352759
-0.00412528
0.000453191
-0.00396844
0.000567548
-0.00384225
0.00069595
-0.0037427
0.000838481
-0.00366624
0.000995196
-0.00360965
0.00116613
-0.00357006
0.00135132
-0.00354486
0.00155078
-0.00353161
0.00176451
-0.00352808
0.00199249
-0.00353213
0.00223464
-0.00354171
0.00249085
-0.00355485
0.00276087
-0.00356959
0.00304435
-0.00358402
0.00334076
-0.00359622
0.00364936
-0.00360431
0.00396917
-0.00360649
0.00429892
-0.003601
0.00463702
-0.00358608
-0.0035598
0.00498156
2.79266e-07
-0.00790698
4.83605e-06
-0.00718197
1.65164e-05
-0.00656128
3.74961e-05
-0.00603198
6.94268e-05
-0.00558272
0.000113544
-0.00520345
0.000170756
-0.00488534
0.000241719
-0.00462062
0.000326891
-0.00440248
0.000426582
-0.00422497
0.000540992
-0.00408285
0.00067024
-0.0039715
0.000814394
-0.00388686
0.000973486
-0.00382533
0.00114753
-0.0037837
0.00133655
-0.00375908
0.00154056
-0.00374886
0.00175957
-0.00375063
0.00199363
-0.00376213
0.00224275
-0.00378125
0.00250694
-0.0038059
0.00278615
-0.00383407
0.00308028
-0.00386372
0.00338906
-0.00389281
0.00371209
-0.00391925
0.00404873
-0.00394095
0.00439806
-0.00395581
0.00475881
-0.00396176
0.00512935
-0.00395662
-0.00393807
0.00550761
1.18703e-06
-0.00790817
8.40042e-06
-0.00718918
2.44132e-05
-0.00657729
5.13166e-05
-0.00605888
9.06725e-05
-0.00562208
0.000143626
-0.00525641
0.000210996
-0.00495271
0.000293352
-0.00470297
0.000391067
-0.0045002
0.000504371
-0.00433828
0.000633385
-0.00421186
0.000778155
-0.00411627
0.000938679
-0.00404738
0.00111493
-0.00400158
0.00130686
-0.00397563
0.00151445
-0.00396667
0.00173769
-0.0039721
0.00197659
-0.00398952
0.00223119
-0.00401673
0.00250155
-0.00405161
0.00278776
-0.0040921
0.00308986
-0.00413617
0.00340786
-0.00418172
0.00374167
-0.00422661
0.00409102
-0.00426861
0.00445544
-0.00430537
0.0048341
-0.00433448
0.00522584
-0.00435349
0.00562898
-0.00435976
-0.00435043
0.00604134
2.15778e-06
-0.00791033
1.21985e-05
-0.00719922
3.2807e-05
-0.0065979
6.59767e-05
-0.00609205
0.000113169
-0.00566927
0.000175428
-0.00531867
0.000253477
-0.00503076
0.000347788
-0.00479728
0.000458646
-0.00461106
0.000586189
-0.00446582
0.000730453
-0.00435612
0.000891398
-0.00427721
0.00106894
-0.00422492
0.00126297
-0.00419561
0.00147337
-0.00418604
0.00170006
-0.00419336
0.00194297
-0.00421501
0.00220208
-0.00424863
0.00247742
-0.00429207
0.00276908
-0.00434327
0.00307718
-0.00440021
0.00340189
-0.00446087
0.00374334
-0.00452317
0.00410163
-0.0045849
0.00447669
-0.00464367
0.00486824
-0.00469693
0.00527569
-0.00474193
0.00569798
-0.00477578
0.00613351
-0.00479529
-0.00479693
0.00658001
3.19259e-06
-0.00791352
1.62338e-05
-0.00721227
4.17039e-05
-0.00662337
8.14844e-05
-0.00613183
0.000136924
-0.00572471
0.000208959
-0.0053907
0.000298207
-0.00512001
0.00040504
-0.00490412
0.000529644
-0.00473566
0.000672063
-0.00460824
0.000832236
-0.0045163
0.00101003
-0.00445501
0.00120526
-0.00442016
0.00141774
-0.00440808
0.00164724
-0.00441555
0.0018936
-0.00443972
0.00215667
-0.00447807
0.00243636
-0.00452832
0.00273267
-0.00458838
0.00304566
-0.00465626
0.0033755
-0.00473005
0.00372242
-0.0048078
0.00408672
-0.00488747
0.00446866
-0.00496684
0.00486846
-0.00504347
0.00528613
-0.00511459
0.00572134
-0.00517713
0.00617329
-0.00522773
0.00664052
-0.00526252
-0.00527717
0.00712076
4.29155e-06
-0.00791781
2.05073e-05
-0.00722848
5.1105e-05
-0.00665397
9.78385e-05
-0.00617857
0.000161933
-0.0057888
0.000244206
-0.00547297
0.000345165
-0.00522096
0.000465078
-0.00502403
0.000604027
-0.00487461
0.000761956
-0.00476617
0.000938706
-0.00469305
0.00113404
-0.00465034
0.00134767
-0.00463379
0.00157929
-0.0046397
0.00182858
-0.00466484
0.00209525
-0.00470639
0.00237905
-0.00476187
0.00267978
-0.00482906
0.00299736
-0.00490595
0.00333178
-0.00499069
0.00368321
-0.00508148
0.00405192
-0.00517651
0.00443832
-0.00527386
0.00484288
-0.00537141
0.00526612
-0.00546671
0.00570841
-0.00555687
0.00616983
-0.00563856
0.00664998
-0.00570787
0.00714767
-0.00576021
-0.00579022
0.00766072
5.45398e-06
-0.00792326
2.50177e-05
-0.00724805
6.10059e-05
-0.00668996
0.000115027
-0.00623259
0.00018817
-0.00586194
0.000281128
-0.00556593
0.000394292
-0.00533413
0.000527822
-0.00515756
0.000681696
-0.00502848
0.000855757
-0.00494023
0.00104974
-0.00488703
0.00126331
-0.0048639
0.00149606
-0.00486654
0.00174756
-0.00489121
0.00201739
-0.00493466
0.0023051
-0.0049941
0.0026103
-0.00506707
0.00293266
-0.00515142
0.00327196
-0.00524524
0.00362807
-0.0053468
0.00400107
-0.00545448
0.0043912
-0.00556664
0.00479894
-0.0056816
0.00522494
-0.00579741
0.00567002
-0.00591178
0.00613498
-0.00602184
0.00662049
-0.00612406
0.0071267
-0.00621408
0.00765292
-0.00628644
-0.0063345
0.00819721
6.67837e-06
-0.00792994
2.97626e-05
-0.00727113
7.13983e-05
-0.0067316
0.000133028
-0.00629422
0.000215593
-0.00594451
0.000319653
-0.00566999
0.000445483
-0.00545996
0.000593132
-0.00530521
0.000762475
-0.00519783
0.000953253
-0.00513101
0.0011651
-0.00509888
0.00139757
-0.00509637
0.00165016
-0.00511913
0.00192231
-0.00516336
0.00221345
-0.00522581
0.00252302
-0.00530366
0.00285043
-0.00539449
0.0031952
-0.00549619
0.00355689
-0.00560693
0.00393519
-0.00572511
0.00433001
-0.00584929
0.00474146
-0.00597809
0.00516995
-0.00611009
0.00561624
-0.0062437
0.00608139
-0.00637693
0.00656672
-0.00650716
0.00707354
-0.00663089
0.00760289
-0.00674342
0.00815487
-0.00683842
-0.00690764
0.008728
7.96495e-06
-0.00793791
3.47425e-05
-0.00729791
8.22732e-05
-0.00677913
0.000151811
-0.00636376
0.000244136
-0.00603683
0.000359676
-0.00578553
0.000498584
-0.00559887
0.000660799
-0.00546742
0.000846097
-0.00538312
0.00105412
-0.00533903
0.0012844
-0.00532916
0.0015364
-0.00534837
0.0018095
-0.00539223
0.00210304
-0.0054569
0.00241632
-0.00553909
0.00274861
-0.00563595
0.00309918
-0.00574506
0.00346731
-0.00586432
0.00385235
-0.00599197
0.00425374
-0.0061265
0.00467107
-0.00626663
0.00510421
-0.00641123
0.00555335
-0.00655923
0.00601914
-0.00670949
0.00650276
-0.00686055
0.00700594
-0.00701034
0.00753079
-0.00715575
0.00807949
-0.00729212
0.00865343
-0.00741236
-0.00750626
0.00925205
9.32033e-06
-0.00794723
3.9968e-05
-0.00732855
9.36268e-05
-0.00683278
0.000171338
-0.00644147
0.000273718
-0.00613921
0.000401056
-0.00591287
0.000553387
-0.0057512
0.000730543
-0.00564458
0.000932198
-0.00558478
0.0011579
-0.00556473
0.0014071
-0.00557836
0.00167916
-0.00562043
0.00197337
-0.00568644
0.00228898
-0.0057725
0.00262516
-0.00587527
0.00298106
-0.00599185
0.00335579
-0.00611979
0.00374844
-0.00625697
0.0041581
-0.00640163
0.00458391
-0.00655231
0.0050251
-0.00670783
0.00548112
-0.00686725
0.00595171
-0.00702983
0.00643715
-0.00719492
0.00693839
-0.00736179
0.00745729
-0.00752924
0.00799669
-0.00769515
0.00856017
-0.00785561
0.00915115
-0.00800333
-0.00812568
0.00977057
1.07692e-05
-0.007958
4.54738e-05
-0.00736326
0.000105469
-0.00689278
0.000191571
-0.00652757
0.000304234
-0.00625188
0.000443617
-0.00605225
0.000609633
-0.00591721
0.000802008
-0.00583695
0.00102032
-0.00580309
0.00126402
-0.00580844
0.00153249
-0.00584682
0.00182499
-0.00591294
0.00214077
-0.00600221
0.00247896
-0.0061107
0.00283869
-0.006235
0.003219
-0.00637216
0.00361888
-0.00651967
0.00403727
-0.00667536
0.00447306
-0.00683742
0.0049251
-0.00700435
0.00539225
-0.00717497
0.00587343
-0.00734842
0.00636776
-0.00752415
0.00687474
-0.00770191
0.00739463
-0.00788167
0.00792878
-0.00806339
0.00848014
-0.00824651
0.0090536
-0.00842907
0.00965537
-0.0086051
-0.00875943
0.0102891
1.23804e-05
-0.00797038
5.13429e-05
-0.00740222
0.000117832
-0.00695927
0.000212467
-0.0066222
0.000335562
-0.00637497
0.000487145
-0.00620384
0.000667011
-0.00609708
0.000874774
-0.00604472
0.00110991
-0.00603823
0.00137179
-0.00607031
0.00165969
-0.00613473
0.00197284
-0.00622609
0.0023104
-0.00633978
0.00267149
-0.00647179
0.00305516
-0.00661867
0.00346043
-0.00677743
0.00388624
-0.00694548
0.00433148
-0.00712059
0.00479493
-0.00730087
0.00527528
-0.00748471
0.00577113
-0.00767082
0.00628094
-0.00785824
0.00680317
-0.00804638
0.00733634
-0.00823508
0.00787936
-0.0084247
0.00843208
-0.00861611
0.00899615
-0.00881057
0.00957632
-0.00900924
0.0101817
-0.00921045
-0.00940174
0.010824
1.43776e-05
-0.00798475
5.77754e-05
-0.00744562
0.000130785
-0.00703228
0.000233975
-0.00672539
0.000367547
-0.00650854
0.000531389
-0.00636768
0.000725163
-0.00629085
0.000948358
-0.00626791
0.00120034
-0.00629021
0.00148039
-0.00635036
0.00178771
-0.00644204
0.00212145
-0.00655984
0.00248075
-0.00669907
0.00286469
-0.00685572
0.00327232
-0.0070263
0.00370267
-0.00720778
0.00415473
-0.00739754
0.00462745
-0.00759331
0.00511969
-0.00779311
0.00563021
-0.00799523
0.00615762
-0.00819823
0.00670032
-0.00840095
0.00725645
-0.0086025
0.00782379
-0.00880242
0.00839984
-0.00900075
0.00898209
-0.00919836
0.0095688
-0.00939728
0.0101609
-0.00960138
0.0107676
-0.00981715
-0.0100575
0.0114234
1.75726e-05
-0.00800233
6.51584e-05
-0.00749321
0.00014439
-0.00711151
0.000255992
-0.006837
0.00039998
-0.00665253
0.000576048
-0.00654375
0.000783684
-0.00649849
0.00102223
-0.00650646
0.00129094
-0.00655891
0.00158896
-0.00664839
0.00191544
-0.00676852
0.00226946
-0.00691386
0.0026501
-0.00707971
0.00305643
-0.00726205
0.00348752
-0.00745739
0.00394246
-0.00766272
0.00442035
-0.00787543
0.0049203
-0.00809326
0.00544143
-0.00831424
0.00598287
-0.00853667
0.00654373
-0.00875909
0.00712304
-0.00898026
0.00771971
-0.00919918
0.00833236
-0.00941506
0.00895912
-0.0096275
0.00959746
-0.00983671
0.0102439
-0.0100437
0.010893
-0.0102505
0.0115398
-0.010464
-0.0107069
0.0121892
0.00899853
4.5906e-05
-0.00904444
0.00895356
4.49714e-05
0.00890887
4.46909e-05
0.00886432
4.45504e-05
0.00881993
4.43904e-05
0.00877577
4.41549e-05
0.00873195
4.38223e-05
0.00868856
4.33862e-05
0.00864572
4.28465e-05
0.00860351
4.22065e-05
0.00856204
4.14707e-05
0.00852139
4.06448e-05
0.00848166
3.97352e-05
0.00844291
3.87479e-05
0.00840522
3.76892e-05
0.00836866
3.65648e-05
0.00833328
3.53807e-05
0.00829913
3.41425e-05
0.00826628
3.28553e-05
0.00823475
3.15242e-05
0.0082046
3.01541e-05
0.00817585
2.87495e-05
0.00814854
2.73146e-05
0.00812268
2.58535e-05
0.00809831
2.43683e-05
0.00807546
2.28555e-05
0.00805416
2.1296e-05
0.00803453
1.96298e-05
0.00801688
1.76494e-05
1.45568e-05
0.0102996
0.000163936
-0.0104176
0.0101804
0.000164199
0.0100605
0.000164577
0.00994023
0.000164817
0.00981985
0.000164774
0.00969963
0.000164377
0.00957986
0.000163595
0.00946083
0.000162417
0.00934283
0.000160844
0.00922615
0.000158886
0.00911106
0.000156558
0.00899783
0.000153879
0.0088867
0.000150866
0.0087779
0.000147542
0.00867166
0.000143928
0.00856818
0.000140044
0.00846765
0.00013591
0.00837025
0.000131547
0.00827613
0.000126974
0.00818545
0.000122209
0.00809833
0.000117269
0.00801491
0.00011217
0.0079353
0.000106927
0.0078596
0.000101552
0.00778792
9.60511e-05
0.00772035
9.04214e-05
0.00765701
8.46345e-05
0.00759803
7.86131e-05
0.00754352
7.21607e-05
6.48682e-05
0.0115638
0.000342081
-0.011742
0.0113829
0.000345166
0.0111999
0.000347581
0.0110154
0.000349259
0.0108301
0.000350129
0.0106443
0.000350148
0.0104586
0.000349292
0.0102734
0.000347559
0.0100893
0.000344959
0.00990671
0.000341512
0.00972602
0.000337249
0.00954769
0.000332203
0.00937215
0.000326413
0.00919977
0.000319922
0.00903092
0.00031277
0.00886597
0.000305
0.00870523
0.000296654
0.008549
0.000287773
0.00839758
0.000278398
0.00825122
0.000268565
0.00811018
0.000258312
0.00797468
0.000247671
0.00784493
0.000236674
0.00772113
0.000225348
0.00760347
0.000213714
0.00749211
0.000201783
0.0073872
0.000189546
0.00728885
0.000176964
0.00719705
0.000163953
0.000150412
0.0127818
0.000569605
-0.0130093
0.0125499
0.000577118
0.0123143
0.000583111
0.012076
0.000587592
0.0118356
0.000590542
0.0115938
0.000591946
0.0113513
0.000591801
0.0111087
0.000590119
0.0108667
0.000586923
0.010626
0.000582251
0.0103871
0.000576147
0.0101506
0.000568669
0.00991718
0.000559877
0.00968726
0.000549836
0.00946142
0.000538613
0.00924014
0.000526277
0.0090239
0.000512897
0.00881313
0.000498541
0.00860826
0.000483273
0.00840966
0.000467158
0.00821772
0.000450256
0.00803277
0.000432623
0.00785513
0.000414314
0.0076851
0.000395379
0.00752295
0.000375862
0.00736893
0.000355805
0.00722324
0.000335237
0.00708602
0.000314181
0.00695731
0.000292658
0.00027073
0.0139458
0.000836767
-0.014213
0.0136724
0.000850467
0.0133938
0.000861737
0.0131108
0.000870598
0.0128243
0.000877055
0.0125351
0.000881116
0.0122441
0.000882792
0.0119521
0.000882111
0.01166
0.00087911
0.0113684
0.000873843
0.0110781
0.000866375
0.01079
0.000856783
0.0105048
0.000845152
0.010223
0.000831572
0.00994549
0.000816141
0.00967281
0.000798954
0.00940559
0.000780111
0.00914443
0.00075971
0.00888985
0.000737846
0.0086424
0.00071461
0.00840256
0.000690093
0.00817081
0.000664378
0.00794757
0.000637549
0.00773327
0.000609684
0.00752827
0.000580861
0.00733291
0.00055116
0.00714749
0.000520663
0.00697221
0.000489457
0.00680722
0.000457654
0.000425416
0.0150498
0.00113485
-0.0153479
0.0147436
0.00115662
0.0144304
0.00117499
0.014111
0.00118997
0.0137865
0.00120156
0.0134578
0.00120977
0.013126
0.00121463
0.0127919
0.00121618
0.0124566
0.00121446
0.0121209
0.00120954
0.0117857
0.0012015
0.0114521
0.00119045
0.0111208
0.00117648
0.0107926
0.00115972
0.0104685
0.00114029
0.0101491
0.00111832
0.00983527
0.00109394
0.00952771
0.00106727
0.0092271
0.00103845
0.00893411
0.0010076
0.00864936
0.000974842
0.00837345
0.000940286
0.00810695
0.000904048
0.0078504
0.000866241
0.00760427
0.000826982
0.00736904
0.000786395
0.00714509
0.000744616
0.00693274
0.000701805
0.00673224
0.000658153
0.000613908
0.0160893
0.0014561
-0.0164106
0.0157581
0.0014879
0.0154178
0.00151528
0.0150695
0.00153821
0.0147144
0.00155669
0.0143535
0.00157072
0.0139878
0.00158033
0.0136184
0.00158554
0.0132464
0.00158642
0.0128729
0.00158304
0.0124989
0.0015755
0.0121255
0.00156392
0.0117535
0.00154841
0.0113841
0.00152913
0.0110182
0.00150622
0.0106567
0.00147985
0.0103004
0.00145017
0.00995036
0.00141734
0.00960729
0.00138152
0.00927201
0.00134288
0.0089453
0.00130156
0.00862788
0.0012577
0.00832046
0.00121147
0.00802371
0.00116299
0.00773825
0.00111244
0.00746468
0.00105997
0.0072035
0.00100579
0.00695518
0.000950126
0.00672008
0.000893252
0.000835503
0.0170616
0.00179364
-0.0173991
0.0167121
0.00183745
0.0163516
0.00187577
0.0159812
0.00190856
0.0156021
0.00193578
0.0152154
0.00195741
0.0148223
0.00197345
0.0144239
0.00198394
0.0140214
0.00198893
0.0136159
0.0019885
0.0132087
0.00198274
0.0128008
0.00197179
0.0123934
0.0019558
0.0119877
0.00193491
0.0115846
0.00190932
0.0111852
0.00187919
0.0107907
0.00184473
0.0104019
0.00180613
0.0100198
0.00176357
0.00964545
0.00171725
0.00927967
0.00166733
0.00892336
0.00161401
0.00857737
0.00155746
0.0082425
0.00149786
0.00791954
0.0014354
0.00760921
0.0013703
0.00731218
0.00130282
0.00702906
0.00123325
0.00676034
0.00116196
0.00108939
0.0179649
0.00214141
-0.0183127
0.0176032
0.00219917
0.0172286
0.00225039
0.0168422
0.00229496
0.0164452
0.0023328
0.0160387
0.00236387
0.015624
0.00238814
0.0152023
0.00240563
0.0147749
0.00241637
0.0143429
0.00242044
0.0139077
0.00241793
0.0134706
0.00240898
0.0130326
0.00239375
0.0125951
0.0023724
0.0121593
0.00234514
0.0117263
0.00231218
0.0112973
0.00227372
0.0108735
0.00222998
0.0104558
0.0021812
0.0100455
0.00212757
0.00964354
0.00206931
0.00925094
0.00200662
0.0088687
0.0019397
0.00849779
0.00186877
0.00813915
0.00179404
0.00779367
0.00171578
0.00746219
0.0016343
0.00714548
0.00154996
0.0068442
0.00146324
0.00137467
0.0187988
0.00249414
-0.0191515
0.0184303
0.00256774
0.0180469
0.00263374
0.0176499
0.00269199
0.0172403
0.00274234
0.0168195
0.00278472
0.0163886
0.00281905
0.0159489
0.00284533
0.0155017
0.00286355
0.0150484
0.00287379
0.0145901
0.00287614
0.0141284
0.0028707
0.0136645
0.00285766
0.0131997
0.00283718
0.0127354
0.00280948
0.0122728
0.00277478
0.0118132
0.00273332
0.0113578
0.00268534
0.010908
0.00263108
0.0104647
0.00257078
0.0100294
0.00250466
0.00960305
0.00243296
0.00918688
0.00235587
0.008782
0.00227365
0.00838951
0.00218652
0.0080105
0.00209479
0.00764598
0.00199882
0.00729691
0.00189904
0.00696414
0.00179601
0.00169042
0.0195638
0.00284726
-0.0199169
0.0191931
0.00293848
0.0188057
0.00302108
0.0184029
0.00309484
0.0179856
0.00315956
0.0175553
0.00321509
0.017113
0.00326133
0.0166601
0.00329821
0.0161979
0.00332572
0.0157278
0.00334388
0.0152512
0.00335276
0.0147694
0.00335248
0.0142839
0.00334318
0.0137961
0.00332504
0.0133073
0.00329829
0.0128189
0.00326316
0.0123323
0.00321989
0.0118489
0.00316875
0.01137
0.00310999
0.0108969
0.00304387
0.0104309
0.00297063
0.00997338
0.0028905
0.00952556
0.00280369
0.00908876
0.00271045
0.00866424
0.00261104
0.0082533
0.00250574
0.00785714
0.00239497
0.00747694
0.00227923
0.00711377
0.00215919
0.00203567
0.0202611
0.00319689
-0.0206108
0.0198922
0.00330739
0.019505
0.00340829
0.0191006
0.00349931
0.0186799
0.00358017
0.0182444
0.00365067
0.0177951
0.00371062
0.0173334
0.00375993
0.0168606
0.00379852
0.0163781
0.00382638
0.0158873
0.00384355
0.0153896
0.00385012
0.0148866
0.00384622
0.0143796
0.00383202
0.0138702
0.00380774
0.0133597
0.00377362
0.0128497
0.0037299
0.0123416
0.00367687
0.0118368
0.00361479
0.0113367
0.00354391
0.0108429
0.00346449
0.0103566