/*--------------------------------*- C++ -*----------------------------------*\
  =========                 |
  \\      /  F ield         | OpenFOAM: The Open Source CFD Toolbox
   \\    /   O peration     | Website:  https://openfoam.org
    \\  /    A nd           | Version:  6.0
     \\/     M anipulation  |
\*---------------------------------------------------------------------------*/
FoamFile
{
    version     2.0;
    format      ascii;
    class       volVectorField;
    location    "10.248";
    object      U;
}
// * * * * * * * * * * * * * * * * * * * * * * * * * * * * * * * * * * * * * //

dimensions      [0 1 -1 0 0 0 0];

internalField   nonuniform List<vector> 
19200
(
(0.00655289 -0.479204 -4.30472e-22)
(0.00479291 -0.441276 2.38658e-22)
(0.00268669 -0.406525 1.22549e-22)
(0.000246733 -0.37477 1.197e-22)
(-0.00239634 -0.345802 1.46646e-22)
(-0.00510534 -0.319412 7.39399e-24)
(-0.00778574 -0.295394 2.35157e-22)
(-0.0103701 -0.273551 -2.45154e-23)
(-0.01281 -0.253694 2.33427e-22)
(-0.0150726 -0.235645 1.02148e-22)
(-0.0171373 -0.219242 -1.07461e-23)
(-0.0189933 -0.20433 1.82245e-22)
(-0.0206375 -0.190769 3.44662e-22)
(-0.0220724 -0.178429 -2.51586e-22)
(-0.0233052 -0.167193 3.35183e-22)
(-0.0243464 -0.156952 3.18988e-22)
(-0.0252093 -0.147609 -3.13608e-22)
(-0.0259088 -0.139074 5.74074e-22)
(-0.0264613 -0.131267 -3.85403e-22)
(-0.0268838 -0.124116 1.95386e-22)
(-0.0271939 -0.117557 3.02914e-22)
(-0.0274093 -0.11153 -1.09641e-22)
(-0.0275471 -0.105984 1.49367e-22)
(-0.0276245 -0.10087 -1.89706e-22)
(-0.0276573 -0.0961459 4.97525e-24)
(-0.027662 -0.0917773 1.1303e-22)
(-0.0276537 -0.0877337 -7.69037e-23)
(-0.027637 -0.0839894 4.21574e-23)
(-0.0276037 -0.0805192 1.17601e-22)
(-0.0276416 -0.0772995 5.8109e-22)
(0.0191274 -0.478378 -1.03877e-22)
(0.0163635 -0.439864 7.51001e-22)
(0.0133455 -0.404693 -4.19505e-22)
(0.0100963 -0.37265 -6.42469e-22)
(0.00674422 -0.343508 -3.25388e-22)
(0.00341995 -0.317036 -2.48028e-22)
(0.000210814 -0.29301 -5.77236e-22)
(-0.00282285 -0.271219 6.93981e-23)
(-0.0056394 -0.251459 -1.12854e-22)
(-0.0082124 -0.233544 -4.82285e-22)
(-0.0105274 -0.217299 -1.3829e-21)
(-0.0125793 -0.202564 7.19499e-22)
(-0.0143701 -0.189189 -2.89201e-22)
(-0.0159073 -0.177042 1.11146e-22)
(-0.0172024 -0.165997 -7.58273e-22)
(-0.0182703 -0.155944 -3.06582e-22)
(-0.0191279 -0.14678 2.96755e-23)
(-0.0197938 -0.138414 1.15522e-21)
(-0.0202876 -0.130762 -5.99494e-22)
(-0.0206294 -0.123751 -3.45993e-22)
(-0.0208397 -0.117314 -1.54979e-21)
(-0.0209385 -0.111392 4.11958e-22)
(-0.020946 -0.105929 -2.7866e-22)
(-0.0208811 -0.100879 5.25669e-22)
(-0.0207622 -0.0961999 -2.67014e-22)
(-0.0206076 -0.0918552 -4.34693e-22)
(-0.0204349 -0.0878159 1.35613e-22)
(-0.0202489 -0.0840567 2.48676e-22)
(-0.0200389 -0.0805525 -4.23269e-22)
(-0.0199055 -0.0772823 2.72679e-22)
(0.031615 -0.477264 -4.96402e-23)
(0.0278279 -0.438181 1.30652e-22)
(0.0239057 -0.402619 2.24678e-22)
(0.0198611 -0.370327 2.22511e-21)
(0.0158184 -0.341049 -1.41696e-21)
(0.0119027 -0.314533 1.30893e-21)
(0.00819417 -0.290536 8.66826e-22)
(0.00474545 -0.26883 7.70413e-22)
(0.00159078 -0.249199 -7.84225e-22)
(-0.00125045 -0.231446 -1.31096e-22)
(-0.00377043 -0.215386 2.24047e-21)
(-0.00597015 -0.200851 4.28441e-22)
(-0.00785728 -0.187685 -1.20556e-21)
(-0.00944453 -0.17575 9.58043e-22)
(-0.0107483 -0.164915 -1.97235e-23)
(-0.0117877 -0.155066 4.72049e-22)
(-0.0125839 -0.146096 3.45923e-22)
(-0.0131591 -0.137912 1.33038e-21)
(-0.0135363 -0.130427 -5.66546e-22)
(-0.0137391 -0.123565 -1.83322e-22)
(-0.0137907 -0.117258 -5.97994e-22)
(-0.0137142 -0.111446 2.85411e-21)
(-0.0135323 -0.106072 -2.48513e-21)
(-0.0132665 -0.101089 8.0052e-22)
(-0.0129375 -0.0964544 4.70283e-22)
(-0.0125661 -0.0921323 -1.80957e-21)
(-0.0121722 -0.0880941 2.49497e-21)
(-0.0117608 -0.0843148 -2.51165e-22)
(-0.0113179 -0.0807691 -3.0027e-22)
(-0.0109606 -0.0774395 -2.62025e-21)
(0.0440464 -0.47585 -1.56425e-21)
(0.0392089 -0.436241 -1.65089e-21)
(0.0343758 -0.400327 -2.21783e-21)
(0.0295437 -0.367826 8.44681e-24)
(0.024828 -0.338453 1.39496e-22)
(0.0203459 -0.311932 -3.09331e-21)
(0.0161689 -0.288 1.19739e-22)
(0.0123411 -0.266413 4.73798e-22)
(0.00888864 -0.246943 -6.31425e-23)
(0.00582302 -0.229381 9.50157e-22)
(0.00314489 -0.213532 -3.82122e-21)
(0.000846617 -0.199222 -2.64591e-21)
(-0.00108554 -0.186288 9.47147e-22)
(-0.00266983 -0.174584 2.21891e-21)
(-0.00392774 -0.163978 -2.6009e-21)
(-0.00488306 -0.154349 -4.34024e-22)
(-0.00556109 -0.145589 -1.77071e-21)
(-0.00598807 -0.137599 -8.86343e-22)
(-0.00619072 -0.130292 1.61867e-21)
(-0.00619584 -0.12359 -2.14105e-21)
(-0.00602998 -0.117421 2.03217e-21)
(-0.00571932 -0.111724 -2.42449e-21)
(-0.00528919 -0.106443 -2.05391e-21)
(-0.00476394 -0.101529 -1.60961e-21)
(-0.00416666 -0.0969395 -4.15717e-22)
(-0.00352101 -0.0926381 -3.5825e-21)
(-0.00284933 -0.0885965 3.84517e-22)
(-0.002157 -0.0847904 7.22593e-22)
(-0.00142573 -0.0811938 -2.22691e-21)
(-0.000792046 -0.0777935 4.3946e-22)
(0.0564243 -0.474128 -9.09236e-22)
(0.0505127 -0.434049 1.60056e-22)
(0.0447617 -0.397832 1.47696e-21)
(0.0391492 -0.365168 1.69085e-21)
(0.0337784 -0.335744 1.3345e-21)
(0.028756 -0.309258 5.95744e-22)
(0.0241432 -0.285429 9.59538e-22)
(0.0199742 -0.263997 4.87152e-21)
(0.0162659 -0.24472 -3.00305e-21)
(0.0130214 -0.227377 6.27297e-23)
(0.0102333 -0.211767 7.89283e-22)
(0.00788696 -0.197706 3.94894e-21)
(0.00596214 -0.185025 -2.79497e-21)
(0.00443471 -0.173574 2.15967e-21)
(0.00327782 -0.163215 -2.59013e-21)
(0.00246283 -0.153823 4.68763e-21)
(0.00195998 -0.145287 -1.4001e-21)
(0.00173893 -0.137505 5.44946e-23)
(0.00176917 -0.130387 2.66389e-21)
(0.00202033 -0.123853 2.0532e-21)
(0.00246251 -0.11783 -2.09516e-21)
(0.00306632 -0.112255 3.02124e-21)
(0.00380346 -0.107071 -1.47848e-21)
(0.00464658 -0.102228 1.7468e-21)
(0.00556986 -0.0976832 2.54407e-21)
(0.00654709 -0.0933996 1.04081e-21)
(0.00755234 -0.0893496 3.22493e-21)
(0.00858087 -0.0855084 -1.02067e-21)
(0.00965543 -0.0818495 -2.64008e-22)
(0.0106169 -0.0783655 -2.24257e-21)
(0.0687444 -0.472098 -6.68927e-22)
(0.0617399 -0.431611 -4.86921e-22)
(0.0550669 -0.395148 -1.68253e-21)
(0.0486833 -0.362372 -4.87058e-21)
(0.0426772 -0.332943 1.63035e-21)
(0.0371427 -0.306536 1.29366e-22)
(0.0321286 -0.282849 -1.33186e-21)
(0.0276582 -0.261606 3.31037e-22)
(0.0237379 -0.242554 -1.6344e-22)
(0.0203614 -0.225461 -4.31872e-21)
(0.017513 -0.210117 1.8012e-21)
(0.0151704 -0.196329 3.47103e-21)
(0.0133063 -0.183924 -2.58832e-23)
(0.0118905 -0.172745 1.4407e-21)
(0.0108905 -0.162651 3.92165e-21)
(0.0102725 -0.153513 -2.86142e-21)
(0.0100022 -0.145215 5.28834e-21)
(0.0100451 -0.137654 -2.71265e-21)
(0.0103666 -0.130737 5.05301e-21)
(0.0109327 -0.124381 -3.97337e-21)
(0.01171 -0.118512 1.83026e-21)
(0.0126659 -0.113065 5.31579e-21)
(0.0137686 -0.107982 5.13763e-22)
(0.0149881 -0.103211 -5.35854e-21)
(0.0162951 -0.0987104 3.13121e-21)
(0.0176604 -0.0944416 3.90152e-22)
(0.0190551 -0.0903769 -1.17385e-21)
(0.020474 -0.0864919 4.54382e-21)
(0.0219461 -0.0827576 1.79482e-21)
(0.0232857 -0.0791746 -1.87968e-21)
(0.0810006 -0.469765 1.96294e-21)
(0.0728892 -0.428937 1.16171e-22)
(0.0652947 -0.392288 -3.41389e-21)
(0.0581526 -0.359455 7.34827e-22)
(0.0515339 -0.33007 -1.18868e-21)
(0.0455178 -0.303785 7.91828e-22)
(0.0401395 -0.280281 2.02024e-21)
(0.0354095 -0.259265 4.10524e-21)
(0.031323 -0.240471 -4.78587e-21)
(0.0278634 -0.223657 1.17426e-21)
(0.025006 -0.208604 -1.01488e-21)
(0.0227201 -0.195114 7.67701e-22)
(0.0209712 -0.183007 -3.44153e-21)
(0.0197226 -0.17212 -3.27579e-22)
(0.0189359 -0.162308 6.38365e-21)
(0.0185721 -0.153439 -4.46195e-21)
(0.0185921 -0.145395 -3.11414e-21)
(0.0189569 -0.138068 -2.52282e-21)
(0.019628 -0.131364 4.51369e-21)
(0.0205677 -0.125196 1.09082e-21)
(0.0217388 -0.119489 -5.07464e-21)
(0.0231054 -0.114176 7.15989e-21)
(0.0246323 -0.109197 -6.7064e-21)
(0.0262859 -0.104501 4.73062e-21)
(0.0280343 -0.100043 -2.77196e-21)
(0.0298442 -0.0957857 1.92642e-21)
(0.0316834 -0.0917 1.61005e-21)
(0.0335468 -0.0877609 -7.1504e-21)
(0.0354696 -0.0839371 3.14407e-21)
(0.0372368 -0.080238 7.02074e-23)
(0.0931867 -0.467133 -1.93772e-21)
(0.0839592 -0.426035 1.65852e-21)
(0.0754483 -0.389264 -3.66782e-21)
(0.0675645 -0.356431 7.2724e-21)
(0.0603594 -0.327143 -2.16759e-21)
(0.0538955 -0.301028 3.45642e-21)
(0.0481927 -0.277747 5.70432e-23)
(0.0432476 -0.256994 -4.573e-22)
(0.0390429 -0.238491 -8.65484e-22)
(0.0355511 -0.221986 -5.51634e-23)
(0.0327375 -0.207251 -3.75938e-21)
(0.0305627 -0.194082 1.98391e-21)
(0.0289847 -0.182293 -2.68148e-21)
(0.0279597 -0.171717 -1.8511e-22)
(0.0274434 -0.162205 -8.44747e-21)
(0.0273914 -0.153621 2.78667e-21)
(0.0277595 -0.145844 1.84112e-21)
(0.0285045 -0.138764 -2.09735e-21)
(0.0295836 -0.132284 -2.37598e-22)
(0.0309552 -0.126314 -3.6153e-21)
(0.0325785 -0.120777 -1.36947e-21)
(0.034414 -0.115605 2.01578e-22)
(0.036423 -0.110736 -3.69179e-21)
(0.0385687 -0.106116 -5.9412e-21)
(0.0408152 -0.101701 2.04551e-22)
(0.0431259 -0.0974507 -7.68547e-22)
(0.0454642 -0.0933372 2.18186e-21)
(0.0478255 -0.0893333 -5.64696e-21)
(0.0502515 -0.0854044 5.04238e-21)
(0.0524944 -0.0815707 -1.14769e-20)
(0.105297 -0.464207 -4.71858e-21)
(0.094949 -0.422915 6.51728e-21)
(0.085532 -0.386089 -7.5565e-21)
(0.0769278 -0.353317 -2.27774e-21)
(0.0691665 -0.324179 -1.6123e-21)
(0.0622923 -0.298281 -1.87465e-21)
(0.056308 -0.275266 -1.75206e-21)
(0.051195 -0.254814 -3.10527e-22)
(0.0469227 -0.236634 -1.9602e-21)
(0.0434515 -0.220466 -4.53891e-22)
(0.0407363 -0.206074 4.04756e-21)
(0.0387286 -0.193248 -2.11467e-21)
(0.0373781 -0.181797 -2.86223e-21)
(0.0366342 -0.171551 -5.38161e-21)
(0.036446 -0.162355 1.17723e-20)
(0.0367636 -0.154072 -4.7651e-21)
(0.0375381 -0.146575 1.88754e-21)
(0.0387213 -0.139755 -7.62957e-21)
(0.0402666 -0.133509 2.98143e-21)
(0.0421283 -0.127747 -1.37869e-21)
(0.0442619 -0.12239 1.67416e-21)
(0.0466242 -0.117365 -6.44451e-22)
(0.0491729 -0.11261 6.20587e-21)
(0.0518676 -0.10807 -2.27864e-21)
(0.0546688 -0.103697 6.82106e-21)
(0.0575356 -0.0994514 -1.70454e-21)
(0.0604273 -0.0953033 9.51818e-21)
(0.0633387 -0.0912239 2.98511e-21)
(0.0663197 -0.0871733 5.78863e-21)
(0.0690853 -0.083185 -2.00188e-20)
(0.117324 -0.460992 7.42998e-21)
(0.105858 -0.419584 -1.53297e-21)
(0.0955509 -0.382776 3.34162e-21)
(0.0862525 -0.350127 -1.01892e-21)
(0.0779699 -0.321195 3.69806e-21)
(0.0707267 -0.295562 3.84492e-21)
(0.0645074 -0.272855 4.66538e-21)
(0.059277 -0.25274 -4.53081e-22)
(0.0549902 -0.234915 -5.23236e-21)
(0.0515949 -0.219112 7.83857e-21)
(0.0490347 -0.205088 -8.41721e-22)
(0.0472515 -0.192626 6.25214e-21)
(0.0461867 -0.181533 2.45232e-21)
(0.0457819 -0.171632 8.61415e-22)
(0.0459802 -0.162767 1.50076e-21)
(0.0467258 -0.154798 2.25765e-21)
(0.0479647 -0.147595 4.11688e-21)
(0.0496443 -0.141046 -1.33193e-21)
(0.0517136 -0.135046 6.82953e-21)
(0.0541232 -0.129502 3.44787e-21)
(0.0568247 -0.124333 -7.36311e-21)
(0.0597712 -0.119463 1.38658e-20)
(0.0629168 -0.114828 -1.92044e-20)
(0.0662169 -0.11037 1.90214e-20)
(0.0696287 -0.10604 -6.55486e-21)
(0.0731062 -0.101797 1.19554e-21)
(0.0766045 -0.0976087 -9.68084e-21)
(0.0801179 -0.0934431 5.49532e-21)
(0.0837042 -0.0892543 2.14044e-21)
(0.0870384 -0.0850908 -2.96724e-21)
(0.129265 -0.457492 -4.23823e-21)
(0.116688 -0.416052 4.92256e-21)
(0.105511 -0.379334 -1.40009e-21)
(0.0955505 -0.346874 4.34399e-21)
(0.0867861 -0.318204 4.5491e-22)
(0.0792197 -0.292885 1.24733e-21)
(0.0728159 -0.270529 -9.19551e-21)
(0.0675218 -0.250787 -1.79893e-21)
(0.0632767 -0.233349 6.80116e-21)
(0.0600149 -0.217937 5.72281e-21)
(0.0576684 -0.204302 -1.01368e-20)
(0.0561689 -0.192225 6.31052e-21)
(0.0554489 -0.181505 -6.56331e-21)
(0.0554425 -0.171965 4.97105e-21)
(0.0560861 -0.163445 -8.70362e-21)
(0.0573182 -0.155801 -7.00473e-21)
(0.0590797 -0.148904 2.19528e-22)
(0.0613134 -0.142637 -3.7169e-21)
(0.0639643 -0.136893 6.43385e-21)
(0.0669789 -0.131578 2.80008e-21)
(0.0703052 -0.126605 -1.82976e-21)
(0.0738925 -0.121899 -5.28319e-22)
(0.0776911 -0.11739 2.66034e-21)
(0.0816527 -0.113019 -8.8252e-21)
(0.08573 -0.108734 1.53808e-20)
(0.0898727 -0.104492 -3.7134e-21)
(0.0940298 -0.100258 -4.77352e-22)
(0.0981962 -0.0959969 1.54881e-20)
(0.102437 -0.0916537 2.46407e-21)
(0.106384 -0.0872941 -2.47685e-21)
(0.141112 -0.453712 2.04192e-22)
(0.127439 -0.412328 -2.52163e-21)
(0.115421 -0.375776 -2.59938e-21)
(0.104835 -0.343571 -4.70366e-21)
(0.0956337 -0.31522 1.85269e-22)
(0.0877947 -0.290265 -4.07363e-21)
(0.0812609 -0.2683 4.88296e-21)
(0.0759605 -0.248966 -4.90728e-22)
(0.0718163 -0.231944 4.83913e-21)
(0.0687484 -0.216947 -3.84475e-21)
(0.0666765 -0.203724 -2.1831e-21)
(0.0655215 -0.192047 1.28157e-21)
(0.0652068 -0.181716 7.43241e-22)
(0.0656589 -0.17255 -8.28647e-21)
(0.0668072 -0.164386 4.99606e-21)
(0.0685845 -0.157079 -2.79554e-21)
(0.0709266 -0.150498 7.97392e-21)
(0.0737718 -0.144522 -2.82303e-21)
(0.0770611 -0.139044 3.01078e-21)
(0.080737 -0.133966 8.37634e-22)
(0.084744 -0.129199 5.89943e-21)
(0.0890277 -0.124664 -1.15383e-21)
(0.0935345 -0.12029 1.07428e-20)
(0.0982124 -0.116012 -1.22287e-20)
(0.103009 -0.111775 -4.48634e-21)
(0.10787 -0.107534 3.81941e-21)
(0.112738 -0.103252 -2.26572e-22)
(0.117607 -0.0988864 -7.33299e-21)
(0.122551 -0.0943734 6.09996e-21)
(0.127154 -0.0897977 -8.25999e-21)
(0.152863 -0.449657 7.27362e-21)
(0.138115 -0.408419 2.1995e-21)
(0.125289 -0.372112 2.90273e-21)
(0.114121 -0.340229 4.31805e-21)
(0.104533 -0.312255 6.94432e-21)
(0.0964771 -0.287712 -2.33785e-22)
(0.0898722 -0.266179 1.0365e-21)
(0.0846268 -0.247288 9.56039e-21)
(0.0806461 -0.230708 -1.95135e-21)
(0.0778353 -0.21615 -4.04413e-21)
(0.076101 -0.203355 7.51232e-21)
(0.0753532 -0.192094 1.4665e-21)
(0.0755059 -0.182164 1.87121e-23)
(0.0764774 -0.173381 2.02486e-21)
(0.0781903 -0.165582 4.041e-21)
(0.0805716 -0.15862 -8.94003e-21)
(0.083552 -0.152362 7.84086e-21)
(0.0870654 -0.146685 1.4028e-21)
(0.0910489 -0.141481 8.75526e-21)
(0.0954414 -0.136649 -4.84774e-21)
(0.100184 -0.132098 8.61449e-21)
(0.105218 -0.127744 -9.60808e-21)
(0.110487 -0.123512 9.69287e-21)
(0.115934 -0.119334 1.65859e-21)
(0.121504 -0.115152 -7.03678e-21)
(0.127135 -0.110915 -2.61536e-21)
(0.132765 -0.106583 1.50604e-20)
(0.138386 -0.102107 1.13312e-20)
(0.14408 -0.0974104 3.13762e-21)
(0.14938 -0.0925998 -2.81114e-21)
(0.164511 -0.445332 7.60146e-22)
(0.148717 -0.404333 2.06494e-21)
(0.135125 -0.368352 9.06888e-21)
(0.123426 -0.33686 -1.53416e-20)
(0.113508 -0.30932 -1.71907e-21)
(0.105295 -0.285236 -1.87806e-21)
(0.0986823 -0.264175 8.27523e-22)
(0.0935571 -0.245757 1.28582e-21)
(0.089806 -0.229646 2.36195e-21)
(0.0873183 -0.215545 -6.6447e-21)
(0.0859872 -0.203194 -1.59375e-21)
(0.0857112 -0.192361 4.05972e-21)
(0.0863945 -0.18284 4.91097e-21)
(0.0879472 -0.174447 -4.91768e-21)
(0.0902851 -0.167019 -5.52551e-21)
(0.0933291 -0.160407 8.68103e-21)
(0.097005 -0.154476 6.23028e-21)
(0.101243 -0.149105 -1.49366e-21)
(0.105975 -0.144181 -4.34464e-21)
(0.111138 -0.139603 8.68383e-22)
(0.116668 -0.135275 -1.13688e-20)
(0.122506 -0.131111 1.42027e-20)
(0.128589 -0.127031 -1.0133e-20)
(0.134858 -0.122963 -5.93953e-22)
(0.141252 -0.118843 7.23853e-21)
(0.147704 -0.114616 -2.40843e-21)
(0.154144 -0.110236 -7.76033e-21)
(0.160564 -0.105647 9.70539e-21)
(0.167055 -0.100756 -3.17105e-22)
(0.173092 -0.0956942 2.0594e-21)
(0.176053 -0.440741 -5.02682e-22)
(0.15925 -0.400079 -2.06823e-21)
(0.144941 -0.364504 -1.04669e-20)
(0.132767 -0.333471 3.82294e-21)
(0.122581 -0.306423 -1.35377e-21)
(0.114277 -0.282846 4.41236e-21)
(0.107726 -0.262294 3.24129e-22)
(0.10279 -0.244378 -6.09896e-21)
(0.0993384 -0.228757 9.63117e-21)
(0.0972428 -0.215131 -9.12923e-21)
(0.0963829 -0.203235 -5.13512e-22)
(0.0966452 -0.192837 2.51865e-21)
(0.0979239 -0.183731 -4.57043e-21)
(0.100121 -0.175732 5.62056e-21)
(0.103144 -0.168676 -1.11527e-20)
(0.106909 -0.162414 -2.91993e-21)
(0.111337 -0.156813 7.2311e-21)
(0.116354 -0.15175 -2.00436e-22)
(0.121888 -0.147111 -5.54335e-21)
(0.127873 -0.142791 1.50925e-20)
(0.134243 -0.138694 -8.11453e-21)
(0.140933 -0.134729 -1.1833e-20)
(0.14788 -0.130812 4.17728e-21)
(0.15502 -0.126866 -1.27504e-20)
(0.162287 -0.122819 -3.3905e-21)
(0.169609 -0.11861 -5.99462e-22)
(0.176909 -0.114189 -9.70622e-21)
(0.184175 -0.109488 1.15931e-20)
(0.191506 -0.104396 -6.89507e-21)
(0.19832 -0.0990699 8.91305e-21)
(0.187486 -0.43589 -2.5681e-21)
(0.16972 -0.395663 -8.36927e-21)
(0.154749 -0.360578 4.56538e-21)
(0.142164 -0.330073 -4.6121e-21)
(0.131779 -0.303572 -3.73881e-21)
(0.123457 -0.280546 -2.40331e-21)
(0.11704 -0.260538 -8.93384e-21)
(0.112368 -0.243152 6.3288e-21)
(0.109288 -0.228041 -1.66878e-20)
(0.107657 -0.214902 -6.71785e-21)
(0.107339 -0.20347 2.19689e-21)
(0.108208 -0.193511 4.22855e-21)
(0.110148 -0.184819 1.00446e-22)
(0.113052 -0.177212 -9.12682e-21)
(0.116822 -0.170525 2.18495e-21)
(0.121367 -0.164611 -9.40019e-21)
(0.126602 -0.159337 -7.26568e-21)
(0.132451 -0.15458 -4.79021e-21)
(0.138838 -0.150225 -1.31066e-21)
(0.145695 -0.146168 8.04111e-21)
(0.152952 -0.142308 1.24448e-20)
(0.160543 -0.138551 -3.91826e-21)
(0.168401 -0.134808 -4.04661e-21)
(0.176458 -0.130996 7.97363e-21)
(0.184645 -0.127036 4.72851e-21)
(0.192883 -0.12286 -3.75559e-21)
(0.201088 -0.11841 -4.49424e-21)
(0.209245 -0.113603 4.03945e-22)
(0.217461 -0.108308 5.18938e-21)
(0.225089 -0.10271 7.87808e-21)
(0.198805 -0.430784 -6.54201e-22)
(0.180132 -0.391093 1.08323e-20)
(0.164565 -0.35658 9.20742e-21)
(0.15164 -0.326672 7.70491e-21)
(0.141131 -0.300774 -5.16292e-21)
(0.132868 -0.278342 -1.09622e-21)
(0.126663 -0.25891 9.48751e-22)
(0.122332 -0.242077 8.1148e-21)
(0.119701 -0.227491 3.27073e-21)
(0.11861 -0.214849 8.36989e-21)
(0.118906 -0.203883 -1.22628e-20)
(0.120452 -0.194363 1.1645e-21)
(0.123122 -0.186082 5.47442e-21)
(0.126798 -0.178859 3.63657e-21)
(0.131375 -0.172533 8.21865e-21)
(0.136757 -0.166959 -5.43357e-21)
(0.142856 -0.162004 -5.64581e-21)
(0.149588 -0.157547 9.03627e-22)
(0.156877 -0.153473 1.31254e-20)
(0.164651 -0.149677 -2.20079e-20)
(0.17284 -0.146057 7.79953e-21)
(0.181375 -0.142515 -1.26132e-22)
(0.190187 -0.138958 1.66607e-20)
(0.199204 -0.135296 -7.24166e-21)
(0.208354 -0.131441 -2.46415e-22)
(0.217553 -0.127316 -5.14264e-21)
(0.226706 -0.122853 4.9777e-21)
(0.235798 -0.117954 1.27504e-21)
(0.24494 -0.112462 -6.32145e-21)
(0.253418 -0.106592 2.34241e-20)
(0.210009 -0.425427 -1.02983e-20)
(0.190492 -0.386375 -6.68281e-21)
(0.174402 -0.352518 -1.84744e-20)
(0.161217 -0.323273 -9.19467e-21)
(0.150666 -0.298031 8.8589e-21)
(0.142544 -0.276234 -5.75188e-21)
(0.136634 -0.257409 -1.62411e-21)
(0.132727 -0.241149 -4.33358e-21)
(0.130627 -0.227101 7.43287e-21)
(0.130153 -0.214959 -1.80877e-21)
(0.13114 -0.20446 -2.93877e-21)
(0.133436 -0.195372 -4.20749e-22)
(0.136902 -0.187492 -1.40853e-20)
(0.141416 -0.180642 -1.06127e-21)
(0.146862 -0.174663 3.74283e-21)
(0.153139 -0.169413 -5.00291e-22)
(0.160153 -0.164763 -1.74077e-20)
(0.167818 -0.160593 1.76033e-20)
(0.176056 -0.156791 -1.82148e-20)
(0.184791 -0.153251 7.31709e-21)
(0.193952 -0.14987 1.06011e-21)
(0.20347 -0.146548 4.64086e-22)
(0.213272 -0.143188 -8.80243e-21)
(0.223288 -0.13969 3.17392e-21)
(0.233439 -0.135961 7.30126e-23)
(0.243637 -0.131912 1.16758e-21)
(0.253779 -0.127461 -2.63711e-20)
(0.263845 -0.122493 6.84978e-21)
(0.273954 -0.116819 8.0165e-21)
(0.283319 -0.110685 1.08259e-20)
(0.221095 -0.419826 2.03946e-20)
(0.200808 -0.381515 8.20291e-21)
(0.184278 -0.348398 5.05531e-21)
(0.170918 -0.319882 8.25804e-21)
(0.160413 -0.295347 -1.16634e-21)
(0.152522 -0.274223 7.12361e-21)
(0.146997 -0.256031 1.68496e-20)
(0.1436 -0.240361 -2.09424e-21)
(0.142113 -0.226858 1.1202e-21)
(0.142339 -0.215219 2.36095e-20)
(0.144094 -0.20518 -2.99338e-21)
(0.147213 -0.196513 3.61773e-21)
(0.151548 -0.189019 -1.58009e-21)
(0.156965 -0.182523 -5.96838e-22)
(0.163342 -0.17687 2.16097e-20)
(0.17057 -0.171924 8.38892e-22)
(0.178552 -0.167557 2.55215e-20)
(0.187198 -0.163654 -3.07272e-21)
(0.196426 -0.160107 -6.09319e-21)
(0.206161 -0.15681 1.45857e-20)
(0.21633 -0.153663 -1.41725e-20)
(0.226863 -0.150562 1.58646e-20)
(0.237689 -0.147406 8.98676e-21)
(0.248734 -0.14409 -7.79485e-21)
(0.259919 -0.140511 1.18319e-20)
(0.271149 -0.136566 1.39298e-21)
(0.282315 -0.132161 -5.7117e-21)
(0.293394 -0.127156 2.5225e-21)
(0.304507 -0.121326 2.06649e-20)
(0.314792 -0.114949 3.53053e-21)
(0.23206 -0.413984 -3.49926e-21)
(0.211089 -0.376519 -8.05604e-21)
(0.194209 -0.344224 3.65815e-21)
(0.180769 -0.316502 -1.49122e-20)
(0.170406 -0.292722 7.65026e-21)
(0.16284 -0.272307 -1.47038e-20)
(0.157791 -0.254771 -1.04862e-20)
(0.154995 -0.239703 2.95642e-21)
(0.15421 -0.22675 3.52577e-21)
(0.155219 -0.215609 -1.58786e-20)
(0.157822 -0.20602 -7.37199e-21)
(0.161841 -0.197758 3.70445e-21)
(0.167116 -0.190629 -1.01791e-20)
(0.173503 -0.184462 -4.3336e-21)
(0.180872 -0.179108 -3.11297e-21)
(0.189108 -0.174435 -3.21495e-21)
(0.198108 -0.170322 -1.42082e-20)
(0.20778 -0.166659 -9.55906e-21)
(0.218039 -0.163341 1.40515e-21)
(0.228809 -0.160268 3.21174e-21)
(0.240016 -0.157339 3.79623e-21)
(0.251591 -0.154453 -1.30483e-20)
(0.263464 -0.151505 5.15009e-21)
(0.275561 -0.148386 -1.09582e-20)
(0.287804 -0.144981 1.09124e-20)
(0.300094 -0.141176 -1.4458e-20)
(0.312314 -0.136859 4.98105e-21)
(0.324438 -0.131862 -7.45222e-21)
(0.336591 -0.125917 -1.12398e-20)
(0.34783 -0.119333 -1.34263e-21)
(0.242903 -0.407907 -7.46224e-21)
(0.221343 -0.371392 -7.26309e-21)
(0.204214 -0.339999 -7.75699e-21)
(0.190796 -0.313134 -6.34011e-21)
(0.180676 -0.290155 1.95895e-20)
(0.173535 -0.27048 3.04756e-21)
(0.16906 -0.25362 9.35748e-21)
(0.166959 -0.239164 1.51916e-20)
(0.166966 -0.226761 7.93516e-21)
(0.168844 -0.21611 -1.05365e-20)
(0.172378 -0.206956 1.85975e-20)
(0.177375 -0.199078 -1.85248e-20)
(0.183663 -0.192287 1.85019e-20)
(0.191087 -0.186418 2.36554e-21)
(0.19951 -0.181328 5.14365e-21)
(0.208811 -0.176892 1.61441e-21)
(0.21888 -0.172994 2.29113e-20)
(0.229621 -0.169532 -3.46421e-21)
(0.240947 -0.166407 3.31653e-21)
(0.252781 -0.163525 1.18309e-20)
(0.26505 -0.16079 -1.34502e-20)
(0.277686 -0.158104 1.12974e-20)
(0.290622 -0.155362 5.18714e-22)
(0.303786 -0.15245 5.48748e-21)
(0.317101 -0.149244 1.04566e-20)
(0.330467 -0.145617 -1.82905e-21)
(0.343764 -0.141439 1.10818e-20)
(0.35696 -0.136509 1.68158e-20)
(0.370185 -0.130506 -1.82368e-20)
(0.382412 -0.12377 -1.31435e-20)
(0.253623 -0.4016 2.25367e-20)
(0.231579 -0.366139 -2.61992e-21)
(0.214311 -0.335727 5.93947e-21)
(0.201024 -0.309777 1.17502e-20)
(0.191255 -0.287643 -3.5467e-20)
(0.184645 -0.268736 4.01932e-21)
(0.180845 -0.252568 -1.51503e-20)
(0.179535 -0.238729 1.60386e-20)
(0.180428 -0.226872 -1.31167e-20)
(0.183264 -0.2167 7.91683e-21)
(0.187813 -0.207961 -2.89317e-20)
(0.193867 -0.200441 3.73295e-22)
(0.201241 -0.193956 -1.10019e-20)
(0.209772 -0.188348 1.66162e-20)
(0.219312 -0.183481 -1.84538e-20)
(0.229733 -0.179235 -1.06583e-21)
(0.24092 -0.175505 -1.65703e-20)
(0.252772 -0.172195 -1.53581e-21)
(0.2652 -0.169215 1.58518e-21)
(0.278124 -0.16648 4.35605e-21)
(0.291474 -0.163901 -2.40734e-20)
(0.305183 -0.161386 -8.61654e-22)
(0.319186 -0.158834 -1.45022e-20)
(0.333419 -0.15613 -3.53819e-21)
(0.347808 -0.153144 -9.63475e-21)
(0.362256 -0.149737 -1.095e-20)
(0.37664 -0.145757 -1.19735e-20)
(0.390929 -0.140966 1.9502e-20)
(0.405254 -0.134984 5.39756e-21)
(0.418501 -0.128173 -1.25963e-20)
(0.264217 -0.395067 -1.50441e-20)
(0.241808 -0.360761 6.0271e-21)
(0.224519 -0.331408 -1.11943e-20)
(0.21148 -0.306429 1.73865e-21)
(0.202176 -0.285178 2.05644e-20)
(0.196205 -0.267064 -1.07692e-20)
(0.193185 -0.251601 -1.23097e-20)
(0.192768 -0.238382 -1.07697e-20)
(0.194641 -0.227063 4.05763e-22)
(0.198526 -0.217354 7.49307e-21)
(0.204174 -0.209008 -5.99369e-21)
(0.211365 -0.201816 -3.39825e-23)
(0.219901 -0.195601 2.01105e-20)
(0.229607 -0.190212 -1.04325e-20)
(0.240328 -0.185519 3.12406e-21)
(0.251926 -0.181411 -9.46068e-21)
(0.264281 -0.177792 3.61807e-21)
(0.277286 -0.174573 8.39335e-21)
(0.290848 -0.171677 1.01595e-20)
(0.304887 -0.169028 -1.13216e-20)
(0.319331 -0.166549 1.67121e-21)
(0.334116 -0.164158 1.05481e-20)
(0.349183 -0.161762 1.91171e-20)
(0.364474 -0.159253 5.43817e-21)
(0.379924 -0.156497 -2.08257e-20)
(0.395443 -0.153347 2.51872e-20)
(0.410911 -0.149631 -1.27616e-20)
(0.4263 -0.145069 -1.59021e-20)
(0.441748 -0.139208 -1.00886e-20)
(0.456047 -0.132427 -1.62316e-20)
(0.274686 -0.388313 8.24794e-21)
(0.252041 -0.355261 -7.12658e-21)
(0.234858 -0.32704 2.63767e-21)
(0.222191 -0.303085 1.61024e-20)
(0.21347 -0.282753 4.65403e-21)
(0.208252 -0.265453 -4.26364e-21)
(0.206119 -0.250703 1.05357e-20)
(0.206696 -0.238102 2.18732e-21)
(0.209645 -0.227311 1.11316e-20)
(0.21467 -0.218046 6.43973e-21)
(0.221504 -0.210066 1.65831e-22)
(0.229913 -0.20317 4.48579e-21)
(0.239686 -0.197186 -1.49302e-21)
(0.250637 -0.191969 2.72497e-21)
(0.262602 -0.187399 7.96506e-21)
(0.275436 -0.18337 -4.62862e-21)
(0.289009 -0.179796 1.18927e-20)
(0.30321 -0.176599 1.26808e-20)
(0.317941 -0.173711 -1.50562e-20)
(0.333117 -0.171071 1.56568e-20)
(0.348667 -0.168615 3.5158e-20)
(0.364528 -0.166277 -2.33575e-20)
(0.380646 -0.163979 2.45006e-20)
(0.396972 -0.161624 -1.74827e-20)
(0.413453 -0.159088 -2.61876e-21)
(0.430012 -0.15622 2.02678e-20)
(0.44654 -0.152833 -4.01441e-21)
(0.463021 -0.148603 1.61786e-20)
(0.479604 -0.14299 1.66446e-20)
(0.494987 -0.136378 -3.6899e-20)
(0.285029 -0.38134 -8.07532e-21)
(0.262287 -0.349641 3.85899e-21)
(0.245348 -0.322621 1.84316e-21)
(0.233183 -0.299737 -1.90999e-20)
(0.225168 -0.280354 -1.06196e-20)
(0.220818 -0.263885 8.39527e-21)
(0.219682 -0.249854 -2.46518e-20)
(0.221355 -0.237866 3.12582e-20)
(0.225478 -0.22759 -1.83339e-20)
(0.231733 -0.218748 2.2925e-21)
(0.239839 -0.211107 -3.47676e-21)
(0.249545 -0.204472 -1.23378e-20)
(0.260629 -0.198677 2.61677e-20)
(0.272896 -0.193586 1.06881e-20)
(0.286171 -0.189083 -1.10373e-20)
(0.300299 -0.185071 2.72834e-22)
(0.315144 -0.181472 6.81187e-21)
(0.330587 -0.178217 -1.55255e-20)
(0.346523 -0.17525 3.23888e-21)
(0.362864 -0.172524 1.15194e-20)
(0.379534 -0.169991 -4.86654e-21)
(0.39647 -0.167606 8.73453e-21)
(0.413623 -0.165311 -1.74464e-20)
(0.430951 -0.163034 2.60863e-20)
(0.448417 -0.160669 6.59634e-21)
(0.465964 -0.158077 -1.73532e-20)
(0.483502 -0.155069 -1.58141e-20)
(0.501042 -0.15128 -3.45896e-22)
(0.518758 -0.14607 2.24104e-20)
(0.535253 -0.139803 -6.57282e-21)
(0.295246 -0.374154 -2.29143e-21)
(0.27256 -0.343899 -1.78798e-20)
(0.256009 -0.318143 2.19168e-20)
(0.244482 -0.296374 1.57302e-20)
(0.237298 -0.277967 1.67799e-20)
(0.233934 -0.262341 5.18653e-21)
(0.233905 -0.24903 7.78807e-21)
(0.236777 -0.237647 4.21255e-21)
(0.242169 -0.227871 -1.75108e-20)
(0.249744 -0.21943 3.29866e-20)
(0.259205 -0.2121 -2.85212e-20)
(0.270287 -0.20569 -2.31857e-21)
(0.282757 -0.200045 4.23838e-21)
(0.296408 -0.195031 -2.13362e-20)
(0.311057 -0.190541 1.90802e-20)
(0.326539 -0.186484 -5.83676e-21)
(0.342712 -0.182787 -1.59129e-20)
(0.359447 -0.179392 6.60182e-21)
(0.376633 -0.176251 -1.26794e-20)
(0.394174 -0.17333 -1.17117e-20)
(0.411987 -0.170599 -1.31559e-20)
(0.430008 -0.168033 3.06608e-21)
(0.448185 -0.165605 2.05636e-21)
(0.466484 -0.163272 -3.52637e-20)
(0.484879 -0.160968 -1.41477e-20)
(0.503339 -0.158588 8.87165e-21)
(0.521806 -0.155963 1.1658e-20)
(0.540337 -0.152706 -1.6409e-20)
(0.559163 -0.148072 -6.5421e-21)
(0.576796 -0.142372 1.15192e-21)
(0.305337 -0.366755 -1.69723e-21)
(0.282873 -0.338034 1.15573e-20)
(0.266862 -0.313599 -3.34945e-21)
(0.256111 -0.29298 -4.21102e-21)
(0.249887 -0.27557 -2.62499e-20)
(0.247627 -0.260796 -6.33201e-21)
(0.248814 -0.248204 1.20661e-20)
(0.252986 -0.237417 -8.50549e-21)
(0.259742 -0.228123 -1.06086e-21)
(0.268724 -0.22006 -1.75312e-21)
(0.27962 -0.21301 1.0908e-20)
(0.292153 -0.206794 -1.75799e-20)
(0.306079 -0.201258 -1.24217e-20)
(0.321181 -0.196279 1.52347e-20)
(0.337265 -0.191751 -9.11531e-21)
(0.354163 -0.187591 -1.15724e-20)
(0.37172 -0.18373 2.52695e-20)
(0.389803 -0.180115 -4.05255e-21)
(0.408292 -0.176705 1.63384e-20)
(0.427081 -0.173475 -1.51069e-20)
(0.446081 -0.17041 -1.28902e-20)
(0.465218 -0.167503 1.15107e-20)
(0.484433 -0.164755 -1.17163e-21)
(0.503691 -0.162167 -9.15159e-21)
(0.522975 -0.159723 8.31067e-21)
(0.542272 -0.157383 -2.6814e-20)
(0.561565 -0.155045 1.64646e-20)
(0.580983 -0.152352 -2.91517e-22)
(0.600869 -0.148473 -1.82033e-20)
(0.619672 -0.143623 2.96683e-20)
(0.315311 -0.359146 8.38429e-21)
(0.293244 -0.332038 -2.25699e-20)
(0.277929 -0.308974 -2.13583e-21)
(0.268093 -0.289536 1.18824e-20)
(0.262956 -0.273138 -3.27146e-21)
(0.261918 -0.259222 -9.74208e-21)
(0.264428 -0.247344 4.70171e-21)
(0.270001 -0.23714 5.81229e-21)
(0.27821 -0.228309 5.40927e-22)
(0.288683 -0.2206 7.78558e-21)
(0.301091 -0.213804 2.62164e-20)
(0.315145 -0.207748 -9.21598e-21)
(0.330591 -0.202288 2.72092e-21)
(0.347204 -0.197304 -7.28126e-21)
(0.364783 -0.192697 2.78003e-20)
(0.383151 -0.188386 -5.2984e-21)
(0.402151 -0.184305 1.80254e-20)
(0.42164 -0.180403 -7.35314e-21)
(0.441493 -0.176643 8.15344e-21)
(0.461596 -0.173002 1.28204e-20)
(0.48185 -0.169468 2.35738e-21)
(0.50217 -0.166048 9.25604e-21)
(0.522486 -0.162764 -7.95223e-21)
(0.542747 -0.15965 2.24481e-20)
(0.562933 -0.156751 -9.41585e-21)
(0.583035 -0.154118 3.55205e-20)
(0.603063 -0.151782 -1.0309e-20)
(0.623234 -0.149517 7.30853e-21)
(0.644101 -0.146485 -1.4105e-20)
(0.664145 -0.142769 2.82409e-20)
(0.325199 -0.351336 -1.81465e-20)
(0.303703 -0.325902 6.28768e-22)
(0.289232 -0.304244 -1.28316e-20)
(0.280446 -0.286013 2.43657e-21)
(0.276522 -0.270643 7.37573e-22)
(0.276821 -0.257586 -1.30786e-20)
(0.280762 -0.246415 -2.57395e-20)
(0.287832 -0.236779 1.33857e-20)
(0.297582 -0.228392 -1.95558e-20)
(0.309623 -0.221012 -1.09797e-20)
(0.323612 -0.214442 -6.62122e-21)
(0.33925 -0.208518 -5.65335e-21)
(0.356273 -0.203104 3.0152e-22)
(0.374448 -0.198084 -2.11992e-20)
(0.39357 -0.193366 1.50287e-20)
(0.413458 -0.18887 -2.49178e-20)
(0.43395 -0.184533 -6.67892e-21)
(0.454901 -0.180302 7.40377e-21)
(0.476182 -0.176139 9.68075e-21)
(0.497677 -0.172014 1.01276e-20)
(0.51928 -0.167912 8.07849e-21)
(0.540896 -0.163834 -2.06736e-20)
(0.562442 -0.1598 2.14936e-20)
(0.583847 -0.155851 -2.27641e-21)
(0.60506 -0.152064 -6.05971e-21)