/*--------------------------------*- C++ -*----------------------------------*\
  =========                 |
  \\      /  F ield         | OpenFOAM: The Open Source CFD Toolbox
   \\    /   O peration     | Website:  https://openfoam.org
    \\  /    A nd           | Version:  6.0
     \\/     M anipulation  |
\*---------------------------------------------------------------------------*/
FoamFile
{
    version     2.0;
    format      ascii;
    class       volVectorField;
    location    "3";
    object      U;
}
// * * * * * * * * * * * * * * * * * * * * * * * * * * * * * * * * * * * * * //

dimensions      [0 1 -1 0 0 0 0];

internalField   nonuniform List<vector> 
2400
(
(0.463378 -4.46257 -2.25873e-19)
(0.163868 -3.9329 9.01454e-20)
(0.19007 -3.56206 -6.96373e-20)
(0.245871 -3.27155 -3.89268e-20)
(0.279521 -3.02653 -5.27259e-20)
(0.306031 -2.80764 7.33895e-20)
(0.32824 -2.60674 2.39994e-20)
(0.345916 -2.42063 1.64231e-20)
(0.360932 -2.24728 -3.70139e-20)
(0.371738 -2.08478 -2.54005e-21)
(0.814379 -4.42578 2.66723e-19)
(0.478797 -3.94354 -7.4441e-21)
(0.479073 -3.58532 5.62473e-20)
(0.513582 -3.2974 3.76219e-19)
(0.528325 -3.05167 -2.5236e-19)
(0.537192 -2.82985 -1.16987e-20)
(0.542795 -2.62524 -3.31336e-21)
(0.545039 -2.43569 -2.65926e-20)
(0.54606 -2.25957 -3.30092e-20)
(0.543918 -2.09524 -2.60986e-21)
(1.16305 -4.36266 4.77296e-19)
(0.79673 -3.93068 3.64677e-19)
(0.77299 -3.58651 -8.97515e-19)
(0.786614 -3.30212 2.54591e-19)
(0.782155 -3.05654 3.29808e-19)
(0.772731 -2.8328 -1.86398e-19)
(0.760997 -2.62564 -1.35718e-19)
(0.747182 -2.43399 9.494e-20)
(0.733723 -2.25662 -1.93617e-19)
(0.718216 -2.09224 1.96916e-19)
(1.50719 -4.27321 -1.64037e-18)
(1.1159 -3.89377 5.83972e-19)
(1.07001 -3.56481 -5.60203e-19)
(1.06303 -3.2848 2.28644e-19)
(1.03897 -3.04029 -2.21024e-19)
(1.01055 -2.81572 2.94122e-19)
(0.980753 -2.6073 9.26075e-20)
(0.950304 -2.415 -4.05949e-19)
(0.921986 -2.23794 -3.11127e-19)
(0.892864 -2.07542 3.43903e-19)
(1.84499 -4.15766 9.4791e-20)
(1.43459 -3.83237 -2.34419e-19)
(1.36827 -3.51949 -1.03454e-19)
(1.34079 -3.24463 -1.15459e-19)
(1.29662 -3.00216 -5.64087e-19)
(1.24847 -2.77797 7.62266e-20)
(1.19989 -2.56968 -4.81225e-20)
(1.15228 -2.37823 4.14311e-19)
(1.1088 -2.20312 -2.82482e-19)
(1.06596 -2.04443 -1.59795e-19)
(2.17453 -4.0163 1.46867e-18)
(1.7509 -3.74607 -1.18538e-19)
(1.66573 -3.44988 1.52221e-18)
(1.61771 -3.18095 -2.09482e-19)
(1.55286 -2.94157 6.83867e-19)
(1.48424 -2.71912 -8.74066e-20)
(1.41624 -2.51247 8.83565e-21)
(1.351 -2.3234 3.60326e-19)
(1.29212 -2.15184 -1.94125e-19)
(1.23561 -1.99879 2.63444e-19)
(2.49395 -3.84962 -5.88927e-19)
(2.06287 -3.63461 1.04453e-19)
(1.96021 -3.35549 -4.13973e-19)
(1.8915 -3.09327 -3.50068e-19)
(1.80537 -2.85819 2.23628e-20)
(1.71565 -2.63899 1.04483e-18)
(1.6277 -2.4356 -3.63867e-19)
(1.54451 -2.25051 1.05558e-19)
(1.47015 -2.08398 -4.8301e-19)
(1.40034 -1.93815 -2.17851e-19)
(2.80153 -3.6583 2.4256e-18)
(2.36848 -3.49787 -3.55054e-19)
(2.24944 -3.23597 -2.14645e-18)
(2.15975 -2.9813 1.09902e-19)
(2.05175 -2.75184 3.67535e-19)
(1.94035 -2.53755 -4.95177e-19)
(1.83209 -2.33921 -5.74413e-19)
(1.73086 -2.15968 8.28479e-19)
(1.64126 -1.99954 -7.63079e-20)
(1.55892 -1.86295 -6.15398e-19)
(3.09577 -3.44316 -2.00995e-18)
(2.66582 -3.33586 1.02718e-18)
(2.53112 -3.09117 1.37163e-18)
(2.42003 -2.84497 3.10955e-19)
(2.28957 -2.62258 -1.06304e-18)
(2.15598 -2.41492 6.32558e-19)
(2.02704 -2.22326 3.2629e-19)
(1.90753 -2.0506 6.43465e-19)
(1.80235 -1.89827 -4.17566e-19)
(1.70743 -1.77463 -5.30197e-19)
(3.37494 -3.20462 6.54074e-19)
(2.95275 -3.14845 -2.56547e-19)
(2.80292 -2.92121 -7.73878e-20)
(2.67005 -2.68463 2.93376e-19)
(2.51678 -2.47088 2.1829e-19)
(2.36079 -2.27147 -1.69056e-19)
(2.21098 -2.08777 -2.71557e-19)
(2.07245 -1.92279 4.25569e-19)
(1.94892 -1.77987 -3.3458e-19)
(1.83755 -1.67149 3.13159e-19)
(4.88996 0.133407 3.71766e-20)
(4.86339 -0.250063 1.19342e-19)
(4.80576 -0.628177 -3.69915e-19)
(4.71814 -0.99861 3.40683e-19)
(4.60158 -1.35906 1.37971e-19)
(4.45747 -1.70736 1.7461e-18)
(4.28718 -2.04153 -6.96867e-19)
(4.09237 -2.35979 -9.81644e-19)
(3.87457 -2.66061 1.11911e-18)
(3.63604 -2.94234 -1.94317e-18)
(4.70363 -0.157215 1.05111e-19)
(4.65145 -0.519342 -5.42343e-20)
(4.56723 -0.87395 -3.17163e-19)
(4.45228 -1.2182 8.53582e-19)
(4.3081 -1.54941 -2.96627e-19)
(4.137 -1.86516 2.31141e-18)
(3.94094 -2.16333 -1.53887e-18)
(3.72229 -2.44214 2.20063e-18)
(3.48329 -2.7001 -1.58135e-18)
(3.22645 -2.93588 -8.06872e-19)
(4.42505 -0.141555 -1.98117e-19)
(4.38486 -0.476211 8.1634e-21)
(4.31334 -0.805526 -8.62269e-19)
(4.21122 -1.12624 6.54317e-19)
(4.07995 -1.43547 -7.29188e-19)
(3.92164 -1.7306 -1.44164e-18)
(3.73848 -2.00919 -5.06488e-19)
(3.53252 -2.26925 -3.33328e-19)
(3.30625 -2.50896 1.47487e-18)
(3.06223 -2.72669 8.77141e-19)
(4.09338 -0.106978 7.94967e-20)
(4.06827 -0.410905 -1.3852e-19)
(4.01375 -0.71191 -1.9338e-19)
(3.93019 -1.00674 -8.04004e-19)
(3.81885 -1.29256 5.41653e-19)
(3.68112 -1.56679 1.4769e-18)
(3.51893 -1.82691 5.90768e-19)
(3.33458 -2.07065 1.29348e-19)
(3.12984 -2.29603 3.46693e-19)
(2.90755 -2.5012 5.49691e-20)
(3.75991 -0.0996664 -8.23772e-20)
(3.74487 -0.373232 -3.27951e-19)
(3.70296 -0.645577 2.54855e-20)
(3.63432 -0.913766 6.3132e-19)
(3.5399 -1.17516 6.93198e-19)
(3.42097 -1.42729 -4.74019e-19)
(3.27876 -1.66779 -8.36561e-19)
(3.11493 -1.89442 -4.42771e-19)
(2.93189 -2.10505 4.73724e-19)
(2.73165 -2.29783 7.69204e-19)
(3.45294 -0.0987708 2.09248e-20)
(3.44371 -0.344499 2.68842e-19)
(3.41026 -0.590069 -6.35133e-19)
(3.3526 -0.832935 7.76774e-19)
(3.27142 -1.07075 4.74833e-19)
(3.16774 -1.30127 9.13597e-19)
(3.04249 -1.52228 -1.93777e-19)
(2.89707 -1.73178 -5.57884e-19)
(2.73367 -1.9277 1.30206e-18)
(2.55394 -2.10835 -1.1402e-18)
(3.18412 -0.098462 3.90557e-20)
(3.1774 -0.319696 -2.88576e-19)
(3.14891 -0.541345 -1.89442e-19)
(3.09862 -0.761222 -4.1734e-19)
(3.02704 -0.977289 -5.97953e-20)
(2.93508 -1.18754 -5.98595e-19)
(2.82332 -1.38999 -3.95321e-19)
(2.69308 -1.58309 -6.32247e-20)
(2.54635 -1.76472 -7.74756e-19)
(2.38439 -1.93388 1.06671e-18)
(2.95521 -0.0980466 -3.20527e-20)
(2.94872 -0.298333 2.38892e-19)
(2.92258 -0.499236 -1.07947e-19)
(2.87685 -0.698857 2.33616e-19)
(2.8119 -0.895461 5.67141e-19)
(2.72826 -1.08729 9.57715e-19)
(2.62682 -1.27268 -2.53987e-19)
(2.50848 -1.45057 -9.23606e-19)
(2.37535 -1.61879 2.77027e-19)
(2.22784 -1.77756 -1.6275e-18)
(2.7627 -0.0962464 4.56174e-20)
(2.75519 -0.279167 -5.47878e-20)
(2.72978 -0.462726 -5.33827e-19)
(2.6866 -0.645261 1.61772e-19)
(2.62606 -0.825238 -3.90298e-19)
(2.54837 -1.00118 -1.70556e-19)
(2.45439 -1.17183 -1.09143e-19)
(2.34479 -1.33663 4.26107e-19)
(2.22204 -1.49357 4.10708e-19)
(2.08493 -1.64473 3.30572e-19)
(2.60084 -0.0941571 -1.07408e-19)
(2.5918 -0.262218 1.882e-19)
(2.56638 -0.431232 9.23153e-20)
(2.52467 -0.599746 2.59528e-19)
(2.46701 -0.76636 -2.73938e-20)
(2.39336 -0.929799 -2.19267e-20)
(2.30457 -1.0891 -6.34518e-19)
(2.20033 -1.24405 8.46231e-19)
(2.08462 -1.393 -5.35959e-19)
(1.95352 -1.54302 1.54921e-19)
(3.4078 3.5847 -1.02773e-18)
(3.68456 3.31226 1.07616e-18)
(3.93686 3.01709 -6.2723e-20)
(4.16301 2.70149 -1.84792e-18)
(4.36089 2.36767 1.35034e-18)
(4.52892 2.01804 -9.45956e-19)
(4.66585 1.6554 -2.12826e-19)
(4.77082 1.28276 -2.04614e-19)
(4.84327 0.903013 3.22114e-19)
(4.88336 0.519525 2.33706e-20)
(3.42611 3.11437 1.16588e-18)
(3.68331 2.86258 2.12795e-19)
(3.91702 2.58699 -1.1998e-18)
(4.12477 2.28983 -1.26846e-18)
(4.30417 1.97349 1.08002e-18)
(4.45337 1.64069 -8.58696e-19)
(4.5707 1.29449 9.63446e-19)
(4.65496 0.938249 -2.7274e-19)
(4.70534 0.575269 -8.10885e-19)
(4.7218 0.209116 -5.50029e-20)
(3.14878 2.77286 -2.33086e-19)
(3.39198 2.56023 -1.71965e-19)
(3.61543 2.32391 7.08403e-19)
(3.81627 2.06567 6.28481e-19)
(3.99215 1.78757 1.36782e-18)
(4.14093 1.49207 4.37614e-19)
(4.2607 1.18196 -3.03588e-19)
(4.34991 0.860292 -6.71655e-19)
(4.40743 0.530206 5.45127e-19)
(4.43271 0.195128 4.06608e-20)
(2.84289 2.44133 2.50018e-19)
(3.0675 2.26427 -6.24779e-19)
(3.27585 2.0649 -2.52585e-19)
(3.46528 1.84448 -1.13093e-18)
(3.63348 1.60466 -6.21646e-19)
(3.77822 1.34752 1.12043e-18)
(3.89759 1.07543 7.45063e-19)
(3.9899 0.791025 -6.27019e-19)
(4.0539 0.497084 2.70028e-20)
(4.08864 0.196698 -2.74396e-20)
(2.58302 2.12886 -9.2069e-19)
(2.78659 1.97953 1.06262e-18)
(2.9766 1.80992 -2.67634e-19)
(3.15053 1.62072 5.78246e-19)
(3.30631 1.41326 -3.80058e-19)
(3.44176 1.1893 -6.71725e-19)
(3.55513 0.950867 3.10815e-19)
(3.64477 0.700209 -3.36724e-19)
(3.70945 0.43976 -3.31836e-19)
(3.74806 0.172214 1.41266e-19)
(2.36942 1.86202 -1.21029e-19)
(2.55318 1.73428 1.92327e-19)
(2.72514 1.5882 -2.23088e-19)
(2.88312 1.42406 -1.10195e-18)
(3.02508 1.24293 6.01822e-19)
(3.14922 1.0464 9.98691e-20)
(3.25394 0.836238 -5.5278e-19)
(3.33776 0.614407 -1.88463e-19)
(3.39951 0.38306 1.76853e-19)
(3.43811 0.144535 -5.26903e-20)
(2.19881 1.64326 -4.46975e-19)
(2.36567 1.53215 8.44658e-21)
(2.52136 1.40451 2.27442e-19)
(2.66419 1.26018 6.18356e-19)
(2.79249 1.1001 1.30062e-19)
(2.90491 0.925729 3.19337e-19)
(2.99999 0.738687 6.35039e-19)
(3.07643 0.540755 -2.66703e-19)
(3.13318 0.333873 2.30773e-19)
(3.16926 0.120096 -8.77518e-20)
(2.06473 1.46675 -1.70419e-19)
(2.21743 1.36923 1.9477e-19)
(2.35914 1.25615 1.87309e-19)
(2.48814 1.12716 -2.95721e-19)
(2.60386 0.983629 -1.67508e-19)
(2.7051 0.826803 -3.57616e-19)
(2.79061 0.658249 3.63539e-20)
(2.85925 0.479664 -7.95319e-20)
(2.91007 0.292846 -4.90877e-19)
(2.94222 0.0996426 6.64642e-20)
(1.96023 1.32643 -6.0518e-20)
(2.09888 1.24148 -3.05575e-19)
(2.22834 1.1395 -1.31195e-19)
(2.34565 1.02229 6.38429e-20)
(2.45028 0.891559 -3.54467e-20)
(2.54155 0.748482 3.17483e-19)
(2.61837 0.594534 1.28749e-19)
(2.67968 0.431391 1.94569e-19)
(2.72461 0.260749 2.30778e-19)
(2.75242 0.0842942 -9.54338e-20)
(1.89276 1.20572 -2.07749e-19)
(2.01364 1.12969 3.81123e-19)
(2.12863 1.03625 -6.46815e-19)
(2.23435 0.928948 -1.32161e-20)
(2.32816 0.809634 5.57108e-19)
(2.4094 0.679018 2.70476e-20)
(2.47745 0.538353 2.55701e-19)
(2.53138 0.389182 -5.36324e-19)
(2.57034 0.233044 -5.08257e-21)
(2.59363 0.07143 4.90415e-20)
(0.528846 1.25338 -2.31978e-21)
(0.493869 1.39591 1.33797e-21)
(0.459512 1.57743 -1.25987e-21)
(0.423647 1.80942 3.58258e-21)
(0.386794 2.10425 -7.79615e-22)
(0.348021 2.47412 -1.75585e-20)
(0.309578 2.92938 3.35363e-20)
(0.288617 3.47288 1.65521e-20)
(0.238894 4.08523 3.44247e-20)
(-0.108379 4.71189 1.4315e-19)
(0.648219 1.30358 -7.173e-21)
(0.624368 1.44672 -1.17845e-21)
(0.602845 1.62813 8.06264e-21)
(0.583598 1.85956 5.36917e-21)
(0.568 2.15359 -1.7569e-20)
(0.556045 2.52253 1.50339e-20)
(0.550879 2.9758 9.73749e-20)
(0.569845 3.51268 -1.35543e-19)
(0.56489 4.11248 1.28236e-20)
(0.26314 4.73387 -1.8111e-19)
(0.774915 1.34382 1.06276e-20)
(0.7624 1.48716 -2.62024e-20)
(0.753854 1.66797 -1.6249e-20)
(0.751376 1.89796 -3.50293e-21)
(0.75716 2.18981 -3.99074e-20)
(0.772083 2.55576 -2.1571e-20)
(0.80003 3.00419 3.69873e-20)
(0.858009 3.5308 1.1191e-19)
(0.895767 4.11398 9.72308e-20)
(0.636882 4.72643 -3.4387e-19)
(0.908082 1.3729 3.31323e-20)
(0.906985 1.51596 -4.15989e-20)
(0.91152 1.69561 -5.92073e-20)
(0.925922 1.92321 2.09032e-20)
(0.953129 2.21143 2.2607e-19)
(0.994839 2.5723 -1.09042e-19)
(1.05552 3.01308 9.83093e-20)
(1.15136 3.52592 -3.97716e-19)
(1.2295 4.08876 -4.85268e-19)
(1.01062 4.6892 6.43701e-19)
(1.04666 1.38986 3.3115e-20)
(1.05691 1.5321 -2.91478e-20)
(1.07456 1.70988 8.91569e-20)
(1.10591 1.93404 -8.68368e-20)
(1.15449 2.21711 8.78182e-20)
(1.22275 2.57081 7.71753e-20)
(1.31554 3.00114 7.60086e-20)
(1.44787 3.49687 7.75656e-20)
(1.56378 4.03593 3.46585e-19)
(1.3819 4.62165 3.22039e-19)
(1.18936 1.39401 -1.54496e-19)
(1.21067 1.53474 -4.04416e-20)
(1.24143 1.70983 2.07524e-19)
(1.28974 1.92933 -2.46169e-19)
(1.35958 2.20567 -1.19477e-19)
(1.454 2.55008 -3.47538e-19)
(1.57806 2.9672 6.37025e-21)
(1.74512 3.44255 -4.4246e-19)
(1.89607 3.9547 -5.81056e-20)
(1.74809 4.52343 -9.91147e-19)
(1.33455 1.38491 3.03451e-19)
(1.36651 1.52334 -4.9509e-19)
(1.41032 1.69469 2.82486e-19)
(1.47561 1.90817 1.34077e-19)
(1.56653 2.17609 -4.32227e-20)
(1.68658 2.50904 5.15195e-19)
(1.84089 2.91025 -3.16449e-19)
(2.04065 3.36219 -9.60724e-19)
(2.22355 3.84446 -1.63544e-19)
(2.1065 4.3947 9.0497e-19)
(1.47998 1.36238 -1.03649e-20)
(1.52205 1.49742 2.58826e-19)
(1.57897 1.66377 -1.2179e-19)
(1.66132 1.86976 1.54574e-19)
(1.77311 2.12752 1.37588e-19)
(1.91819 2.4469 -2.652e-19)
(2.10147 2.82956 2.05789e-19)
(2.33177 3.25521 -5.34295e-19)
(2.54335 3.70519 1.3487e-18)
(2.45433 4.23589 -5.12282e-19)
(1.62307 1.32703 -1.98195e-19)
(1.67488 1.45674 -9.26516e-20)
(1.74536 1.61645 4.00188e-19)
(1.84503 1.81338 -6.09213e-19)
(1.97726 2.05929 6.28585e-19)
(2.14648 2.36297 -3.42507e-19)
(2.35718 2.7246 -5.91287e-19)
(2.61557 3.12118 1.68927e-19)
(2.85247 3.5368 -2.45498e-18)
(2.78892 4.04749 1.81916e-18)
(1.75863 1.27845 5.48288e-19)
(1.81938 1.40012 -4.38387e-19)
(1.9059 1.5517 4.64133e-19)
(2.02399 1.73847 -3.92785e-20)
(2.17648 1.971 -5.09859e-19)
(2.36875 2.25697 -2.69099e-19)
(2.60516 2.59506 3.03788e-19)
(2.88888 2.96025 8.90614e-19)
(3.14778 3.33992 1.20552e-18)
(3.10737 3.83116 1.52223e-20)
(-0.215876 0.503896 3.83037e-19)
(-0.355275 0.630616 -2.61343e-19)
(-0.518011 0.791833 8.82137e-20)
(-0.707675 0.984298 -1.90947e-19)
(-0.930191 1.21112 -1.07773e-19)
(-1.19636 1.47886 -1.28861e-19)
(-1.51839 1.80191 -5.1611e-20)
(-1.90196 2.21045 4.51547e-20)
(-2.39795 2.69244 1.26246e-19)
(-3.22 3.0769 -1.53327e-19)
(-0.173631 0.582314 -1.98356e-19)
(-0.300535 0.710597 -1.64822e-19)
(-0.449153 0.87536 2.97313e-19)
(-0.625526 1.07571 1.24644e-19)
(-0.833946 1.31605 1.48061e-19)
(-1.08376 1.60305 -1.9027e-19)
(-1.38539 1.95065 1.73349e-20)
(-1.74087 2.38756 -9.86606e-20)
(-2.19916 2.9025 -1.90547e-19)
(-2.98132 3.33607 3.87498e-19)
(-0.125958 0.66152 8.54923e-20)
(-0.241711 0.792114 -2.40893e-20)
(-0.37688 0.960179 3.24707e-19)
(-0.53895 1.16733 -1.99822e-19)
(-0.731596 1.41943 -1.13998e-19)
(-0.963014 1.72371 5.78703e-20)
(-1.24181 2.0937 -1.18722e-20)
(-1.56658 2.55616 1.72354e-19)
(-1.98457 3.1 1.60015e-19)
(-2.72344 3.57754 -2.75201e-19)
(-0.0719451 0.741698 4.78569e-19)
(-0.177508 0.874292 -2.11683e-19)
(-0.299673 1.04544 7.43103e-20)
(-0.446838 1.25864 -8.44957e-20)
(-0.622411 1.52098 2.28079e-19)
(-0.833605 1.84051 -3.70356e-20)
(-1.08734 2.23053 -5.11018e-20)
(-1.37904 2.7155 4.11008e-20)
(-1.75445 3.28409 1.98026e-20)
(-2.44728 3.8002 4.14897e-19)
(-0.0109112 0.822243 -3.71874e-19)
(-0.106708 0.956626 -5.31259e-21)
(-0.216165 1.13051 1.28113e-19)
(-0.348056 1.34893 -3.97506e-21)
(-0.505555 1.62009 -1.00607e-20)
(-0.69499 1.95286 9.14751e-20)
(-0.921723 2.36041 2.13881e-20)
(-1.17821 2.86462 -1.91127e-20)
(-1.50913 3.45355 1.74937e-21)
(-2.15376 4.00248 -5.02483e-19)
(0.0577754 0.902369 1.52046e-20)
(-0.0283601 1.03842 -1.80242e-19)
(-0.125283 1.2146 1.49925e-19)
(-0.241644 1.43738 -1.31581e-20)
(-0.380276 1.71593 6.92287e-21)
(-0.54668 2.05997 -3.9056e-20)
(-0.74467 2.48239 1.45805e-20)
(-0.96423 3.00239 1.13806e-20)
(-1.24915 3.60704 8.90336e-20)
(-1.84407 4.18289 9.76477e-20)
(0.134684 0.981017 1.41281e-19)
(0.0582728 1.11865 -1.3169e-19)
(-0.0262098 1.29668 -7.25727e-21)
(-0.126832 1.52294 -1.00359e-19)
(-0.245969 1.80748 4.25066e-20)
(-0.388247 2.16076 -6.18957e-21)
(-0.556121 2.59537 -1.31873e-20)
(-0.737314 3.12753 1.05637e-19)
(-0.975255 3.74316 1.23953e-19)
(-1.5197 4.34009 2.37671e-19)
(0.220195 1.0569 7.4014e-20)
(0.153693 1.19601 -7.09801e-20)
(0.0816284 1.37548 2.82425e-20)
(-0.00307154 1.60438 1.61256e-20)
(-0.102197 1.89352 -2.34781e-21)
(-0.219484 2.254 4.44856e-21)
(-0.356074 2.69803 -3.06002e-20)
(-0.497914 3.23867 1.8769e-19)
(-0.688419 3.86054 -5.2376e-20)
(-1.18229 4.4728 -2.66689e-19)
(0.314467 1.12859 6.82651e-20)
(0.258148 1.26904 -6.49712e-21)
(0.198545 1.44957 -3.83726e-21)
(0.129946 1.6803 -1.60107e-21)
(0.0512548 1.97269 1.99111e-21)
(-0.0403399 2.33834 2.40874e-20)
(-0.144768 2.78896 -6.80808e-20)
(-0.246531 3.33434 -2.53159e-20)
(-0.389613 3.9577 -4.57679e-21)
(-0.83346 4.5798 -2.21805e-19)
(0.41745 1.19457 -1.50825e-20)
(0.37164 1.33618 -8.644e-22)
(0.324596 1.51739 3.63639e-21)
(0.272279 1.74913 -4.91627e-22)
(0.214373 2.0434 -5.19738e-21)
(0.149002 2.41217 5.9912e-21)
(0.0773723 2.86652 5.81751e-21)
(0.0159664 3.41287 1.97856e-20)
(-0.0801313 4.03314 -4.71223e-20)
(-0.475414 4.66014 4.96351e-20)
(-0.247562 0.416868 4.63586e-19)
(-0.30274 0.357259 -1.98414e-19)
(-0.359278 0.292893 5.61503e-20)
(-0.419381 0.229853 3.26419e-19)
(-0.4811 0.167768 2.03225e-19)
(-0.543794 0.104746 1.81616e-20)
(-0.607003 0.038706 9.05584e-20)
(-0.669977 -0.0322489 1.37161e-20)
(-0.731788 -0.10951 2.66526e-20)
(-0.791425 -0.193794 -1.00167e-20)
(-0.406808 0.55412 2.03525e-19)
(-0.466073 0.48697 2.18709e-19)
(-0.527279 0.41454 2.26111e-19)
(-0.591438 0.342329 -7.26508e-20)
(-0.656736 0.269984 -9.96564e-20)
(-0.722276 0.195814 -1.53908e-19)
(-0.787346 0.117996 6.76693e-20)
(-0.851126 0.0349554 -2.09522e-19)
(-0.912702 -0.0544022 -1.56837e-20)
(-0.971085 -0.150597 1.38958e-20)
(-0.584688 0.710817 -6.0091e-19)
(-0.650911 0.633166 9.06966e-20)
(-0.718105 0.551137 -4.27077e-19)
(-0.7867 0.467892 -1.15496e-19)
(-0.855308 0.383122 3.66057e-19)
(-0.923049 0.295561 2.13853e-19)
(-0.989139 0.203808 7.35821e-20)
(-1.05276 0.106677 -3.27897e-20)
(-1.11301 0.00337835 6.05899e-20)
(-1.16896 -0.106421 -8.25738e-21)
(-0.786117 0.893192 -1.45398e-19)
(-0.861593 0.801472 -2.41833e-19)
(-0.936077 0.705946 -3.62391e-20)
(-1.00974 0.608195 -1.23917e-19)
(-1.08171 0.507876 -1.94226e-19)
(-1.1513 0.404103 -1.77366e-20)
(-1.21782 0.295889 -9.9945e-20)
(-1.28051 0.182406 -4.60388e-20)
(-1.33857 0.0631196 -7.22308e-20)
(-1.39111 -0.0621594 5.77203e-21)
(-1.02091 1.10442 -2.81597e-19)
(-1.10695 0.995018 3.39991e-19)
(-1.18956 0.881838 2.96505e-20)
(-1.26888 0.765674 -4.27074e-20)
(-1.34446 0.646266 7.51517e-20)
(-1.41586 0.523052 1.00581e-19)
(-1.48252 0.395401 1.5433e-19)
(-1.54381 0.262781 -1.00933e-19)
(-1.59902 0.124866 1.33673e-20)
(-1.64735 -0.0184171 -2.30585e-21)
(-1.30132 1.35115 3.09047e-19)
(-1.39946 1.21964 -1.94019e-19)
(-1.49143 1.08407 -7.11009e-20)
(-1.57747 0.944914 -1.60856e-20)
(-1.65743 0.802086 -5.07669e-20)
(-1.73104 0.655317 6.0853e-20)
(-1.79794 0.504273 5.26038e-20)
(-1.85762 0.348675 7.89304e-21)
(-1.90947 0.18838 -1.21653e-20)
(-1.95278 0.0234379 -6.08308e-21)
(-1.6412 1.64792 -1.47307e-20)
(-1.75449 1.48915 3.48731e-20)
(-1.85856 1.32566 5.88717e-21)
(-1.95372 1.15798 -4.45839e-20)
(-2.04001 0.986232 8.85285e-20)
(-2.11733 0.810436 -1.41399e-20)
(-2.18544 0.630545 -3.96289e-20)
(-2.24399 0.446528 -1.46813e-20)
(-2.29246 0.258431 -2.61876e-21)
(-2.33025 0.0664475 -8.52231e-22)
(-2.04992 2.02565 -9.86869e-20)
(-2.18496 1.83445 -6.68169e-20)
(-2.30729 1.63719 7.13291e-20)
(-2.41718 1.43466 5.24862e-21)
(-2.51476 1.22726 1.8558e-20)
(-2.60003 1.01536 -9.66985e-21)
(-2.67285 0.79924 -1.04051e-20)
(-2.73296 0.579173 2.04522e-20)
(-2.77999 0.355451 1.58572e-20)
(-2.81342 0.128425 1.74214e-20)
(-2.58007 2.47071 -4.8998e-20)
(-2.74463 2.23981 1.82696e-19)
(-2.89234 2.00044 -1.83313e-19)
(-3.02319 1.75374 2.01713e-19)
(-3.13726 1.50057 -1.99101e-19)
(-3.23445 1.24175 2.43633e-20)
(-3.31463 0.978033 -1.02692e-19)
(-3.37765 0.710172 2.30826e-20)
(-3.4233 0.438836 1.10462e-20)
(-3.45117 0.164647 -1.23882e-20)
(-3.43738 2.8003 1.20857e-19)
(-3.63013 2.51105 -3.50633e-19)
(-3.80077 2.20959 1.46954e-19)
(-3.94826 1.89775 -1.25029e-19)
(-4.07226 1.57707 6.74519e-20)
(-4.17235 1.24915 3.08785e-19)
(-4.24824 0.915579 4.12454e-20)
(-4.2998 0.577919 9.18497e-20)
(-4.32705 0.237668 -5.06998e-20)
(-4.32979 -0.103805 -1.13633e-20)
(-0.847822 -0.285136 -1.01404e-20)
(-0.899783 -0.382991 3.30664e-20)
(-0.945898 -0.486358 -1.11118e-19)
(-0.984657 -0.594003 6.28253e-20)
(-1.01435 -0.704583 -3.34383e-21)
(-1.03318 -0.816786 4.9636e-21)
(-1.03939 -0.929572 -3.52629e-20)
(-1.03098 -1.04235 1.62143e-20)
(-1.0045 -1.15286 -3.55969e-20)
(-0.956099 -1.25835 8.21927e-20)
(-1.02523 -0.253605 -2.60065e-20)
(-1.07393 -0.362935 5.16437e-20)
(-1.11575 -0.477715 4.32899e-20)
(-1.14921 -0.596836 1.83492e-20)
(-1.17263 -0.719073 1.93747e-20)
(-1.18434 -0.843167 -3.04386e-21)
(-1.18276 -0.967999 1.34879e-20)
(-1.16597 -1.09246 4.98267e-20)
(-1.13031 -1.21439 7.7513e-20)
(-1.07291 -1.33483 1.47515e-20)
(-1.21958 -0.222636 1.45923e-20)
(-1.2637 -0.344797 -8.15193e-20)
(-1.29992 -0.472111 -8.51106e-21)
(-1.32682 -0.603569 1.10741e-20)
(-1.34283 -0.738011 -1.97638e-20)
(-1.3464 -0.874261 -4.74415e-21)
(-1.33604 -1.01117 1.73616e-20)
(-1.31009 -1.14744 2.01683e-23)
(-1.26608 -1.28155 -8.33004e-20)
(-1.20261 -1.41564 -2.67147e-19)
(-1.43718 -0.193303 -1.2117e-20)
(-1.47567 -0.329873 3.64991e-20)
(-1.50523 -0.471145 -1.84759e-20)
(-1.52455 -0.61621 2.17984e-20)
(-1.53221 -0.764014 -1.34336e-22)
(-1.52675 -0.913474 3.65005e-21)
(-1.50692 -1.0635 -6.89249e-20)
(-1.47127 -1.21285 -3.50344e-20)
(-1.41835 -1.36051 -2.93342e-21)
(-1.34789 -1.50775 9.71968e-20)
(-1.68794 -0.166896 -1.92878e-22)
(-1.71976 -0.320147 2.40236e-21)
(-1.74155 -0.47751 -9.28419e-21)
(-1.75214 -0.638134 1.42697e-20)
(-1.75025 -0.801069 -3.665e-21)
(-1.73468 -0.96529 -9.87052e-20)
(-1.7043 -1.12975 1.77105e-19)
(-1.65799 -1.2933 -6.42375e-20)
(-1.59489 -1.45509 -9.6163e-20)
(-1.51511 -1.61535 -5.13817e-20)
(-1.98681 -0.14591 5.30793e-21)
(-2.01066 -0.319214 9.14332e-21)
(-2.02316 -0.495833 1.37279e-20)
(-2.02334 -0.674969 -4.03296e-21)
(-2.01006 -0.855662 9.7218e-20)
(-1.98235 -1.03693 -8.01644e-21)
(-1.93928 -1.21773 9.19074e-21)
(-1.88004 -1.39696 8.66224e-20)
(-1.80406 -1.57369 6.56412e-20)
(-1.71149 -1.74743 5.22873e-20)
(-2.35672 -0.129054 9.28218e-22)
(-2.37118 -0.3275 -8.10718e-22)
(-2.37257 -0.528227 7.10992e-20)
(-2.3601 -0.7304 -8.52593e-20)
(-2.33287 -0.933043 -1.62168e-19)
(-2.29008 -1.13512 1.1969e-19)
(-2.23106 -1.33552 -5.05501e-20)
(-2.1552 -1.53312 8.89151e-20)
(-2.06221 -1.72683 2.53867e-19)
(-1.95218 -1.91571 -2.3866e-19)
(-2.83265 -0.10131 -6.15786e-21)
(-2.83724 -0.332779 -8.2239e-20)
(-2.82634 -0.565286 1.15927e-19)
(-2.79934 -0.797858 6.34136e-20)
(-2.75565 -1.02947 -2.18333e-19)
(-2.6946 -1.25887 -1.98783e-19)
(-2.61581 -1.48491 -3.37088e-20)
(-2.51898 -1.70628 -2.59787e-20)
(-2.40401 -1.92176 1.38318e-19)
(-2.27093 -2.13016 -5.24144e-20)
(-3.46047 -0.111383 5.6155e-21)
(-3.45102 -0.387319 1.62194e-19)
(-3.42254 -0.662564 8.50638e-20)
(-3.37468 -0.935858 -2.38352e-19)
(-3.3071 -1.20596 2.54665e-19)
(-3.21959 -1.47145 -3.86907e-19)
(-3.11191 -1.73086 4.11802e-19)
(-2.9843 -1.98278 -4.89977e-19)
(-2.8369 -2.2259 -2.70841e-19)
(-2.6698 -2.45888 -8.56816e-19)
(-4.30696 -0.444957 -5.84061e-21)
(-4.25881 -0.781714 -8.08056e-20)
(-4.18619 -1.11423 6.86533e-20)
(-4.08917 -1.4405 7.19566e-20)
(-3.96796 -1.75883 -1.56792e-19)
(-3.82291 -2.06742 1.66304e-19)
(-3.65457 -2.36455 -2.29273e-19)
(-3.46371 -2.64856 1.95963e-19)
(-3.25131 -2.91808 -4.69886e-19)
(-3.01799 -3.17168 5.00916e-19)
(-2.76367 -3.40662 7.65976e-19)
(-2.48337 -2.67955 -4.16304e-19)
(-2.1202 -2.32989 -2.95238e-19)
(-1.82559 -2.0984 3.75117e-19)
(-1.60307 -1.91702 -7.48399e-21)
(-1.42007 -1.77357 2.52628e-19)
(-1.26237 -1.65607 -2.32784e-21)
(-1.12352 -1.5563 -1.47787e-19)
(-1.00012 -1.47122 1.95415e-19)
(-0.897124 -1.39981 -4.43007e-20)
(-2.49285 -3.61876 -8.48186e-19)
(-2.27972 -2.88548 1.61585e-18)
(-1.95282 -2.51915 -1.36507e-19)
(-1.68296 -2.27299 -3.18834e-19)
(-1.47934 -2.07983 2.00228e-19)
(-1.31098 -1.92544 -3.82587e-19)
(-1.1651 -1.7973 3.71036e-19)
(-1.03662 -1.68697 -2.25828e-19)
(-0.924025 -1.59007 7.06545e-20)
(-0.832057 -1.50308 1.31393e-19)
(-2.20582 -3.81001 5.38811e-19)
(-2.05939 -3.07621 -9.52333e-19)
(-1.76903 -2.69668 3.62065e-19)
(-1.52421 -2.43805 -1.32521e-19)
(-1.33975 -2.23441 1.94155e-19)
(-1.18635 -2.06967 -1.29681e-19)
(-1.05271 -1.93084 -9.36972e-20)
(-0.934942 -1.80938 9.54919e-20)
(-0.831971 -1.70066 -1.87359e-19)
(-0.746803 -1.60082 2.29194e-19)
(-1.90438 -3.97866 -1.13061e-18)
(-1.82352 -3.2505 1.47567e-19)
(-1.56959 -2.86128 3.11787e-19)
(-1.34983 -2.59233 3.15187e-19)
(-1.18457 -2.37951 -5.02949e-19)
(-1.04631 -2.20512 2.68486e-20)
(-0.925165 -2.05595 -1.47655e-19)
(-0.818139 -1.92355 -2.44495e-19)
(-0.724171 -1.80334 4.65543e-19)
(-0.645228 -1.6918 1.1075e-19)
(-1.59012 -4.12377 8.36864e-19)
(-1.57314 -3.40736 1.55646e-19)
(-1.35521 -3.01186 4.38469e-19)
(-1.16031 -2.73464 -4.04031e-21)
(-1.01416 -2.51389 3.97001e-19)
(-0.891149 -2.33066 1.70271e-19)
(-0.782733 -2.17174 2.97872e-19)
(-0.686707 -2.02901 -2.67508e-19)
(-0.601949 -1.89816 -9.52886e-21)
(-0.529861 -1.77603 -1.73698e-19)
(-1.26484 -4.24443 5.8352e-19)
(-1.30945 -3.54581 -5.0667e-19)
(-1.12674 -3.14734 -5.99131e-20)
(-0.956327 -2.86381 -1.09449e-19)
(-0.829155 -2.63636 -1.03593e-19)
(-0.721507 -2.44511 -1.08542e-19)
(-0.626147 -2.27714 1.62467e-19)
(-0.541566 -2.12485 -1.65726e-19)
(-0.466591 -1.98428 1.45949e-19)
(-0.402315 -1.85258 8.45731e-21)
(-0.930354 -4.33996 -1.04366e-18)
(-1.03369 -3.66495 -3.46719e-19)
(-0.885134 -3.26668 5.86542e-19)
(-0.738727 -2.97868 -1.67812e-19)
(-0.630372 -2.74568 1.94248e-19)
(-0.538274 -2.54725 -4.8282e-19)
(-0.456394 -2.371 3.40671e-19)
(-0.383839 -2.20999 -9.9957e-20)
(-0.319365 -2.06066 1.35663e-19)
(-0.263928 -1.92038 -1.6136e-19)
(-0.588525 -4.40992 4.80327e-19)
(-0.747168 -3.76403 -1.51131e-19)
(-0.631457 -3.36886 -1.81804e-19)
(-0.508486 -3.07807 -7.13124e-20)
(-0.41882 -2.8406 4.73125e-20)
(-0.342528 -2.6358 8.55078e-20)
(-0.27464 -2.45207 -1.39959e-19)
(-0.214766 -2.28325 8.45847e-20)
(-0.161559 -2.12618 1.88509e-19)
(-0.115967 -1.97839 -1.68558e-19)
(-0.241161 -4.45409 3.76376e-19)
(-0.451194 -3.84231 -1.20231e-20)
(-0.366849 -3.45284 2.9289e-19)
(-0.266741 -3.16077 -2.28894e-19)
(-0.195692 -2.91984 6.23688e-20)
(-0.135545 -2.7095 -6.3914e-20)
(-0.0822316 -2.51914 -2.3931e-20)
(-0.0357266 -2.34348 -1.18081e-19)
(0.00545417 -2.17976 1.18148e-19)
(0.0402566 -2.02567 9.10559e-20)
(0.110085 -4.47205 -7.60911e-20)
(-0.146975 -3.89896 -5.48774e-20)
(-0.0925281 -3.51758 -3.33508e-20)
(-0.0148011 -3.22563 -1.00967e-19)
(0.0376047 -2.9822 8.76763e-20)
(0.0811868 -2.76716 1.98048e-20)
(0.11929 -2.57104 -5.1685e-20)
(0.151729 -2.38959 4.21687e-21)
(0.18016 -2.22042 -1.90373e-20)
(0.203329 -2.06137 1.29798e-21)
(0.358391 -1.60489 -2.68306e-21)
(0.320496 -1.14786 -1.09718e-21)
(0.338876 -0.818927 2.65091e-21)
(0.3434 -0.564726 -1.50052e-21)
(0.380593 -0.331262 -3.68281e-22)
(0.465183 -0.115007 -7.40025e-22)
(0.58526 0.0498921 2.26221e-22)
(0.706597 0.141033 -2.04603e-22)
(0.80632 0.168693 7.00139e-23)
(0.878317 0.158332 -4.90519e-24)
(0.926173 0.132353 -4.42157e-23)
(0.956389 0.103988 4.21386e-24)
(0.974858 0.0788559 -4.80608e-24)
(0.985897 0.0583855 -6.95656e-24)
(0.992369 0.0423296 1.0028e-24)
(0.996074 0.0299903 -1.2048e-24)
(0.998146 0.0207086 3.39766e-25)
(0.999266 0.0136446 3.02044e-25)
(0.999787 0.00896067 -3.45336e-25)
(1.00009 0.00393107 -2.24494e-25)
(0.487146 -1.61458 1.91019e-20)
(0.389585 -1.15075 5.29816e-21)
(0.38772 -0.825088 -4.40359e-21)
(0.379592 -0.573354 1.72837e-21)
(0.403986 -0.346655 -3.0552e-21)
(0.473581 -0.137231 -2.13849e-22)
(0.581751 0.0261074 -2.78153e-22)
(0.697594 0.121047 -2.91123e-22)
(0.796725 0.154468 2.37105e-22)
(0.870339 0.149252 5.84988e-23)
(0.920229 0.126946 1.56162e-23)
(0.952155 0.100905 6.66493e-23)
(0.971878 0.077146 -5.46938e-23)
(0.983801 0.0574556 -1.10841e-23)
(0.990895 0.0418332 5.80351e-24)
(0.995044 0.0297303 2.28717e-24)
(0.997433 0.0205751 -5.48384e-24)
(0.998781 0.0135798 6.16472e-24)
(0.999449 0.00892936 9.82324e-25)
(0.999878 0.00391956 7.1798e-25)
(0.617844 -1.61781 -3.7846e-20)
(0.462694 -1.15376 1.34328e-20)
(0.438657 -0.832601 2.11272e-20)
(0.418217 -0.583304 -8.27475e-21)
(0.43048 -0.362351 -5.34491e-22)
(0.485979 -0.159081 -2.87871e-21)
(0.581965 0.00265311 -1.42406e-22)
(0.691237 0.101107 -7.88837e-22)
(0.788707 0.140146 -2.26659e-22)
(0.863208 0.140075 -1.21028e-22)
(0.914719 0.121485 -4.82112e-24)
(0.948142 0.0978023 1.45163e-23)
(0.969013 0.0754317 6.11491e-23)
(0.981764 0.0565252 -3.00215e-23)
(0.989452 0.0413349 -1.44544e-23)
(0.99403 0.0294661 1.3685e-23)
(0.996728 0.020436 -3.79349e-24)
(0.998299 0.0135091 -2.19073e-24)
(0.999111 0.00889225 -5.57741e-24)
(0.999661 0.00390518 2.15036e-24)
(0.749453 -1.61471 -1.1654e-20)
(0.539993 -1.15679 3.21576e-20)
(0.491656 -0.841297 -1.34569e-20)
(0.458919 -0.594493 -4.5125e-21)
(0.459518 -0.37835 3.27398e-21)
(0.501845 -0.180496 -4.09232e-22)
(0.585657 -0.0203147 1.12535e-21)
(0.687506 0.0813744 -1.25134e-22)
(0.782327 0.125836 6.47111e-22)
(0.856988 0.130857 1.76434e-22)
(0.909684 0.115997 -3.84933e-22)
(0.944373 0.0946915 4.89228e-23)
(0.966274 0.0737193 4.97497e-25)
(0.979793 0.0555973 5.0952e-23)
(0.988044 0.0408361 4.39988e-24)
(0.993034 0.0291985 -1.06412e-23)
(0.996031 0.0202916 -9.85469e-24)
(0.99782 0.0134328 -1.32263e-23)
(0.998774 0.00884968 1.03942e-23)
(0.999443 0.00388808 -4.62497e-24)
(0.880834 -1.60493 4.25965e-21)
(0.621605 -1.15886 2.23843e-21)
(0.546703 -0.850426 -1.03778e-21)
(0.501319 -0.60657 8.02411e-21)
(0.490519 -0.394579 5.45014e-21)
(0.520556 -0.201449 4.07269e-21)
(0.592463 -0.0426963 -2.04776e-21)
(0.686286 0.061977 5.35829e-22)
(0.777596 0.111635 2.3407e-22)
(0.851717 0.121655 2.06976e-22)
(0.905158 0.110509 -9.99438e-23)
(0.940868 0.0915866 -2.3085e-22)
(0.963671 0.0720152 1.5389e-23)
(0.977894 0.0546752 1.06335e-22)
(0.986672 0.040339 4.80318e-23)
(0.992057 0.0289286 -2.01553e-23)
(0.995343 0.0201427 4.02535e-23)
(0.997343 0.0133509 2.76979e-24)
(0.998438 0.00880156 5.53073e-24)
(0.999224 0.00386818 -9.15577e-25)
(1.01093 -1.58676 -1.03307e-19)
(0.707488 -1.15791 -1.29014e-20)
(0.603666 -0.858722 1.6034e-20)
(0.544962 -0.618911 -2.13335e-20)
(0.522898 -0.410819 -1.3367e-20)
(0.541443 -0.221867 -1.18694e-20)
(0.601932 -0.0644007 2.25175e-21)
(0.687396 0.0430314 4.90054e-22)
(0.774485 0.0976382 -9.19673e-22)
(0.84742 0.112528 -1.88108e-22)
(0.901169 0.105053 -4.28692e-23)
(0.937647 0.0885029 3.12451e-22)
(0.961216 0.0703271 -8.14442e-23)
(0.976071 0.053763 -6.03815e-23)
(0.985341 0.0398454 -3.76658e-23)
(0.991099 0.0286575 4.33476e-23)
(0.994664 0.0199896 5.64666e-24)