/*--------------------------------*- C++ -*----------------------------------*\
  =========                 |
  \\      /  F ield         | OpenFOAM: The Open Source CFD Toolbox
   \\    /   O peration     | Website:  https://openfoam.org
    \\  /    A nd           | Version:  6.0
     \\/     M anipulation  |
\*---------------------------------------------------------------------------*/
FoamFile
{
    version     2.0;
    format      ascii;
    class       volScalarField;
    location    "2.752";
    object      p;
}
// * * * * * * * * * * * * * * * * * * * * * * * * * * * * * * * * * * * * * //

dimensions      [0 2 -2 0 0 0 0];

internalField   nonuniform List<scalar> 
19200
(
-0.437501
-0.432784
-0.429104
-0.425874
-0.422759
-0.419749
-0.416814
-0.413914
-0.411026
-0.40813
-0.405216
-0.402275
-0.399306
-0.396307
-0.393278
-0.390221
-0.387137
-0.384028
-0.380897
-0.377747
-0.374581
-0.371402
-0.368212
-0.365013
-0.36181
-0.358609
-0.35541
-0.352147
-0.348803
-0.346109
-0.44348
-0.438525
-0.434736
-0.431416
-0.428201
-0.425084
-0.422035
-0.419018
-0.416008
-0.412988
-0.409947
-0.406879
-0.403782
-0.400655
-0.397499
-0.394315
-0.391105
-0.387872
-0.384619
-0.38135
-0.378066
-0.374772
-0.371471
-0.368164
-0.364855
-0.361555
-0.358263
-0.354898
-0.351432
-0.348744
-0.450138
-0.444847
-0.440875
-0.437421
-0.434075
-0.430825
-0.427642
-0.424489
-0.42134
-0.41818
-0.414999
-0.41179
-0.408552
-0.405285
-0.401989
-0.398667
-0.395321
-0.391954
-0.38857
-0.385171
-0.381762
-0.378346
-0.374926
-0.371505
-0.368086
-0.364682
-0.361294
-0.357823
-0.354227
-0.351563
-0.457256
-0.451676
-0.447512
-0.443898
-0.440394
-0.436988
-0.433649
-0.43034
-0.427035
-0.423718
-0.42038
-0.417016
-0.413622
-0.410201
-0.406753
-0.40328
-0.399787
-0.396275
-0.392749
-0.389213
-0.38567
-0.382124
-0.37858
-0.375037
-0.371501
-0.367989
-0.364499
-0.360917
-0.357183
-0.354564
-0.464875
-0.459012
-0.454639
-0.450841
-0.447158
-0.443574
-0.440059
-0.436574
-0.433094
-0.429604
-0.426094
-0.422558
-0.418995
-0.415406
-0.411793
-0.408158
-0.404505
-0.400838
-0.397161
-0.393477
-0.389791
-0.386109
-0.382431
-0.378762
-0.375102
-0.371475
-0.367879
-0.364178
-0.360298
-0.357741
-0.473018
-0.466859
-0.462256
-0.458253
-0.454367
-0.450585
-0.446874
-0.443195
-0.439523
-0.435842
-0.432143
-0.428421
-0.424674
-0.420904
-0.417112
-0.413303
-0.409479
-0.405645
-0.401805
-0.397963
-0.394125
-0.390295
-0.386476
-0.382672
-0.378886
-0.375137
-0.371431
-0.367605
-0.363569
-0.361091
-0.481695
-0.475217
-0.470364
-0.466135
-0.462027
-0.458025
-0.454099
-0.450208
-0.446325
-0.442436
-0.438532
-0.434607
-0.430662
-0.426697
-0.422714
-0.418717
-0.41471
-0.410697
-0.406683
-0.402671
-0.398668
-0.394679
-0.39071
-0.386761
-0.38284
-0.378966
-0.375143
-0.371188
-0.366988
-0.364606
-0.490908
-0.484088
-0.478964
-0.47449
-0.470138
-0.465898
-0.461737
-0.457613
-0.453501
-0.449387
-0.445261
-0.44112
-0.436961
-0.432787
-0.4286
-0.424403
-0.4202
-0.415996
-0.411794
-0.407601
-0.403422
-0.399264
-0.395133
-0.391031
-0.386963
-0.382956
-0.379012
-0.374918
-0.370547
-0.368275
-0.500657
-0.493472
-0.488058
-0.483318
-0.478703
-0.474204
-0.469788
-0.465413
-0.461055
-0.456698
-0.452335
-0.44796
-0.443574
-0.439177
-0.434771
-0.430361
-0.425949
-0.42154
-0.41714
-0.412754
-0.408388
-0.40405
-0.399747
-0.395481
-0.39126
-0.387108
-0.383034
-0.378794
-0.374239
-0.372093
-0.510945
-0.503371
-0.497645
-0.49262
-0.487722
-0.482944
-0.478254
-0.47361
-0.468987
-0.464371
-0.459753
-0.455131
-0.450502
-0.445868
-0.441231
-0.436593
-0.431959
-0.427333
-0.422721
-0.418128
-0.413563
-0.409033
-0.404547
-0.400107
-0.395722
-0.391422
-0.387207
-0.382812
-0.378059
-0.376051
-0.521769
-0.513783
-0.507726
-0.502397
-0.497196
-0.492119
-0.487136
-0.482203
-0.477298
-0.472406
-0.46752
-0.462634
-0.457748
-0.452863
-0.447979
-0.4431
-0.43823
-0.433374
-0.428537
-0.423726
-0.418948
-0.414213
-0.409529
-0.404904
-0.400343
-0.395885
-0.391524
-0.386961
-0.382
-0.380137
-0.533129
-0.52471
-0.518302
-0.512648
-0.507124
-0.501729
-0.496433
-0.491195
-0.485991
-0.480807
-0.475635
-0.470472
-0.465314
-0.460163
-0.455019
-0.449885
-0.444766
-0.439666
-0.43459
-0.429547
-0.424544
-0.41959
-0.414695
-0.409868
-0.405121
-0.40049
-0.395976
-0.391233
-0.386054
-0.384343
-0.545024
-0.536149
-0.52937
-0.523373
-0.517506
-0.511773
-0.506147
-0.500586
-0.495066
-0.489574
-0.484102
-0.478645
-0.473201
-0.467769
-0.462352
-0.45695
-0.451568
-0.446211
-0.440885
-0.435596
-0.430353
-0.425167
-0.420047
-0.415003
-0.410053
-0.405236
-0.400557
-0.395624
-0.39021
-0.388663
-0.557452
-0.5481
-0.54093
-0.534569
-0.52834
-0.522252
-0.516278
-0.510376
-0.504524
-0.498708
-0.49292
-0.487155
-0.48141
-0.475685
-0.469981
-0.464298
-0.458641
-0.453014
-0.447422
-0.441874
-0.436378
-0.430945
-0.425585
-0.420309
-0.415138
-0.410121
-0.405259
-0.400126
-0.394461
-0.393085
-0.57041
-0.560559
-0.552978
-0.546235
-0.539625
-0.533163
-0.526823
-0.520565
-0.514365
-0.50821
-0.502091
-0.496004
-0.489945
-0.483913
-0.477908
-0.471932
-0.465987
-0.460077
-0.454208
-0.448386
-0.442622
-0.436925
-0.431309
-0.425786
-0.420377
-0.415142
-0.410082
-0.404736
-0.398807
-0.3976
-0.583895
-0.573521
-0.565511
-0.558367
-0.551358
-0.544504
-0.537782
-0.531152
-0.524588
-0.518079
-0.511616
-0.505192
-0.498806
-0.492455
-0.486139
-0.479857
-0.473611
-0.467405
-0.461244
-0.455135
-0.449087
-0.443112
-0.437223
-0.431433
-0.425768
-0.420295
-0.41502
-0.409438
-0.403233
-0.402194
-0.5979
-0.586983
-0.578523
-0.57096
-0.563534
-0.556271
-0.549152
-0.542133
-0.535191
-0.528314
-0.521493
-0.514722
-0.507997
-0.501315
-0.494675
-0.488075
-0.481517
-0.475002
-0.468536
-0.462125
-0.455778
-0.449507
-0.443326
-0.43725
-0.431306
-0.425566
-0.420047
-0.414202
-0.407691
-0.406822
-0.612421
-0.600938
-0.592008
-0.584009
-0.576148
-0.56846
-0.560926
-0.553505
-0.546171
-0.538914
-0.531723
-0.524592
-0.517517
-0.510494
-0.503519
-0.496591
-0.489709
-0.482874
-0.47609
-0.469363
-0.462701
-0.456116
-0.449622
-0.443237
-0.436988
-0.430957
-0.425159
-0.419015
-0.412157
-0.411442
-0.627451
-0.615378
-0.605961
-0.597506
-0.589194
-0.581064
-0.573101
-0.565262
-0.557524
-0.549874
-0.542302
-0.534802
-0.527368
-0.519994
-0.512675
-0.505409
-0.498193
-0.491027
-0.483914
-0.476857
-0.469864
-0.462946
-0.456118
-0.449398
-0.442817
-0.436463
-0.430357
-0.423875
-0.41663
-0.416041
-0.642981
-0.630297
-0.620371
-0.611444
-0.602663
-0.594075
-0.585668
-0.5774
-0.569245
-0.561192
-0.55323
-0.545352
-0.537549
-0.529816
-0.522145
-0.514532
-0.506974
-0.499468
-0.492014
-0.484614
-0.477274
-0.470004
-0.462819
-0.455736
-0.448791
-0.442077
-0.435622
-0.428759
-0.421077
-0.420582
-0.659004
-0.645684
-0.635231
-0.625813
-0.616547
-0.607487
-0.598622
-0.589911
-0.581329
-0.572863
-0.564502
-0.556237
-0.548059
-0.53996
-0.531931
-0.523965
-0.516058
-0.508204
-0.5004
-0.492645
-0.484942
-0.4773
-0.469732
-0.462255
-0.454907
-0.447788
-0.440932
-0.433631
-0.42545
-0.425
-0.675508
-0.661529
-0.65053
-0.640604
-0.630836
-0.621288
-0.611953
-0.602788
-0.593769
-0.584881
-0.576114
-0.567456
-0.558897
-0.550427
-0.542034
-0.533712
-0.525451
-0.517243
-0.509081
-0.50096
-0.49288
-0.484846
-0.476869
-0.468964
-0.461167
-0.453588
-0.446265
-0.438451
-0.429686
-0.42921
-0.69248
-0.677819
-0.666254
-0.655803
-0.645518
-0.635469
-0.625651
-0.616022
-0.606557
-0.597241
-0.588061
-0.579005
-0.570061
-0.561215
-0.552458
-0.543776
-0.535159
-0.526594
-0.518069
-0.509575
-0.501106
-0.492663
-0.484251
-0.475878
-0.467581
-0.459473
-0.451599
-0.443173
-0.433706
-0.433093
-0.709909
-0.69454
-0.682389
-0.671396
-0.660579
-0.650016
-0.639705
-0.629603
-0.619684
-0.609933
-0.600336
-0.590878
-0.581546
-0.572325
-0.563202
-0.554162
-0.545189
-0.536266
-0.527378
-0.518508
-0.509645
-0.50078
-0.491908
-0.483031
-0.474176
-0.46546
-0.45693
-0.447754
-0.437415
-0.436498
-0.727779
-0.711674
-0.698915
-0.687365
-0.676003
-0.664916
-0.654102
-0.64352
-0.633141
-0.62295
-0.612932
-0.60307
-0.593349
-0.583753
-0.574266
-0.56487
-0.555547
-0.546273
-0.537028
-0.527788
-0.518533
-0.509241
-0.499895
-0.490482
-0.481013
-0.471597
-0.462277
-0.452164
-0.440697
-0.439213
-0.746075
-0.729198
-0.71581
-0.703688
-0.691771
-0.680149
-0.668827
-0.657757
-0.646914
-0.63628
-0.625838
-0.615571
-0.605461
-0.595493
-0.585647
-0.575904
-0.566239
-0.556627
-0.547041
-0.537449
-0.527819
-0.518114
-0.5083
-0.498337
-0.488209
-0.478001
-0.467732
-0.456427
-0.443444
-0.440969
-0.764786
-0.747086
-0.733047
-0.720341
-0.707859
-0.695697
-0.683859
-0.672299
-0.660988
-0.649907
-0.63904
-0.628368
-0.617873
-0.607536
-0.597339
-0.587258
-0.577268
-0.56734
-0.55744
-0.547531
-0.537567
-0.527495
-0.517256
-0.506777
-0.495996
-0.484949
-0.473603
-0.460844
-0.445824
-0.441663
-0.783934
-0.765314
-0.750591
-0.737293
-0.724241
-0.711535
-0.699179
-0.687125
-0.675343
-0.663815
-0.652522
-0.641445
-0.630567
-0.619868
-0.609329
-0.598925
-0.588631
-0.578416
-0.568245
-0.558073
-0.547846
-0.537495
-0.526933
-0.516044
-0.5047
-0.492859
-0.480403
-0.465937
-0.447961
-0.4405
-0.803567
-0.783846
-0.768394
-0.754503
-0.740885
-0.727637
-0.714764
-0.702215
-0.689962
-0.677985
-0.666266
-0.654785
-0.643525
-0.632469
-0.621597
-0.610886
-0.600312
-0.589847
-0.579458
-0.569101
-0.558717
-0.548228
-0.537521
-0.526425
-0.514712
-0.502182
-0.488453
-0.471334
-0.447535
-0.432317
-0.823197
-0.802473
-0.786374
-0.771926
-0.757759
-0.743977
-0.730588
-0.717544
-0.704818
-0.69239
-0.680241
-0.668356
-0.656716
-0.645306
-0.634109
-0.623105
-0.612275
-0.601599
-0.591054
-0.580608
-0.57022
-0.55983
-0.549344
-0.538596
-0.527332
-0.515215
-0.501446
-0.482722
-0.453438
-0.428243
-1.24105
-1.24243
-1.2418
-1.23962
-1.23589
-1.23067
-1.22401
-1.21597
-1.20663
-1.19606
-1.18434
-1.17154
-1.15773
-1.143
-1.12743
-1.11108
-1.09404
-1.0764
-1.05821
-1.03955
-1.0205
-1.00111
-0.981455
-0.96159
-0.941572
-0.921455
-0.901284
-0.881074
-0.860813
-0.840948
-1.20765
-1.20895
-1.2084
-1.20626
-1.20259
-1.19744
-1.1909
-1.18301
-1.17387
-1.16355
-1.15212
-1.13966
-1.12623
-1.11192
-1.0968
-1.08095
-1.06444
-1.04735
-1.02975
-1.01171
-0.993294
-0.974569
-0.955597
-0.936439
-0.917152
-0.897792
-0.878417
-0.859075
-0.839822
-0.820852
-1.17972
-1.18097
-1.1805
-1.17845
-1.1749
-1.16991
-1.16353
-1.15585
-1.14694
-1.13689
-1.12576
-1.11362
-1.10056
-1.08664
-1.07194
-1.05653
-1.04048
-1.02388
-1.00678
-0.989265
-0.971391
-0.953225
-0.93483
-0.916264
-0.897584
-0.878847
-0.86011
-0.841428
-0.822863
-0.804503
-1.15299
-1.15431
-1.15397
-1.15209
-1.14874
-1.14397
-1.13783
-1.13042
-1.1218
-1.11206
-1.10128
-1.08951
-1.07683
-1.06332
-1.04904
-1.03408
-1.01849
-1.00237
-0.985761
-0.968747
-0.95139
-0.933755
-0.915902
-0.897889
-0.879773
-0.861609
-0.84345
-0.82535
-0.807364
-0.789551
-1.12554
-1.12702
-1.1269
-1.12527
-1.12219
-1.11771
-1.1119
-1.10482
-1.09657
-1.08721
-1.07682
-1.06546
-1.05322
-1.04015
-1.02633
-1.01184
-0.996747
-0.981115
-0.965017
-0.94852
-0.931691
-0.914592
-0.897283
-0.879821
-0.862263
-0.844661
-0.827068
-0.809534
-0.792109
-0.77484
-1.09764
-1.09938
-1.09956
-1.09825
-1.09551
-1.0914
-1.08598
-1.07932
-1.07148
-1.06256
-1.05262
-1.04172
-1.02994
-1.01736
-1.00403
-0.990043
-0.975453
-0.960335
-0.944757
-0.928787
-0.912488
-0.895925
-0.879155
-0.862237
-0.845223
-0.828168
-0.811123
-0.794136
-0.777252
-0.760517
-1.06942
-1.07151
-1.07205
-1.07114
-1.06881
-1.06514
-1.06017
-1.05397
-1.04661
-1.03818
-1.02873
-1.01833
-1.00706
-0.994991
-0.982187
-0.968718
-0.954656
-0.940067
-0.925021
-0.909583
-0.893818
-0.877788
-0.861552
-0.845166
-0.828684
-0.812159
-0.795643
-0.779183
-0.762821
-0.746603
-1.04096
-1.04344
-1.04441
-1.04395
-1.04209
-1.0389
-1.03444
-1.02875
-1.02192
-1.01401
-1.0051
-0.995248
-0.984522
-0.972996
-0.960737
-0.947816
-0.9343
-0.920257
-0.905754
-0.890856
-0.875627
-0.860129
-0.844421
-0.828558
-0.812596
-0.796587
-0.780584
-0.764632
-0.748775
-0.733055
-1.01233
-1.01526
-1.01671
-1.01674
-1.01539
-1.01273
-1.0088
-1.00367
-0.997402
-0.990068
-0.981728
-0.972449
-0.962298
-0.951345
-0.939658
-0.927306
-0.914356
-0.900873
-0.886924
-0.872572
-0.857883
-0.842916
-0.827731
-0.812384
-0.796932
-0.781427
-0.76592
-0.75046
-0.735087
-0.719847
-0.98367
-0.987068
-0.989013
-0.989566
-0.988765
-0.986657
-0.983299
-0.978751
-0.973079
-0.966345
-0.958608
-0.949932
-0.940382
-0.930027
-0.918935
-0.907172
-0.894804
-0.881895
-0.86851
-0.854712
-0.840565
-0.826129
-0.811464
-0.796627
-0.781675
-0.766661
-0.751636
-0.73665
-0.721742
-0.706961
-0.955078
-0.958959
-0.96142
-0.962511
-0.962267
-0.960735
-0.957968
-0.954027
-0.948974
-0.942863
-0.935751
-0.927699
-0.918772
-0.909036
-0.898557
-0.8874
-0.875629
-0.863306
-0.850495
-0.837258
-0.823657
-0.809753
-0.795606
-0.781274
-0.766813
-0.752278
-0.737719
-0.723186
-0.708723
-0.694379
-0.926665
-0.931032
-0.934011
-0.935646
-0.935968
-0.935022
-0.93286
-0.929539
-0.925116
-0.919641
-0.913167
-0.905755
-0.897466
-0.888365
-0.878515
-0.867979
-0.856818
-0.845093
-0.832865
-0.820196
-0.807145
-0.793775
-0.780145
-0.766313
-0.752335
-0.738264
-0.724153
-0.710055
-0.696015
-0.682084
-0.898533
-0.90338
-0.906871
-0.909046
-0.909934
-0.909576
-0.908022
-0.905324
-0.901534
-0.896699
-0.890872
-0.884109
-0.876469
-0.868014
-0.858804
-0.8489
-0.83836
-0.827243
-0.815608
-0.803513
-0.79102
-0.778187
-0.765073
-0.751735
-0.73823
-0.724609
-0.710929
-0.697244
-0.683604
-0.670062
-0.87078
-0.876091
-0.880081
-0.882784
-0.884229
-0.884452
-0.883498
-0.881417
-0.878256
-0.874061
-0.868882
-0.862772
-0.855786
-0.847984
-0.839422
-0.830158
-0.820249
-0.809749
-0.798715
-0.787203
-0.775273
-0.76298
-0.750382
-0.737534
-0.72449
-0.711306
-0.698038
-0.684744
-0.671478
-0.658298
-0.843496
-0.849248
-0.853715
-0.856927
-0.858911
-0.859699
-0.859333
-0.857855
-0.855313
-0.851751
-0.847215
-0.841756
-0.835426
-0.828278
-0.820369
-0.811751
-0.802478
-0.792603
-0.782178
-0.771258
-0.759897
-0.748148
-0.736066
-0.723703
-0.711112
-0.69835
-0.685475
-0.672548
-0.659628
-0.646778
-0.816759
-0.822921
-0.827839
-0.831536
-0.834035
-0.835366
-0.835565
-0.834673
-0.832734
-0.829792
-0.825891
-0.821077
-0.815396
-0.808902
-0.801644
-0.793675
-0.785044
-0.7758
-0.765993
-0.755671
-0.744886
-0.733686
-0.72212
-0.710239
-0.698095
-0.685742
-0.67324
-0.660653
-0.648046
-0.635488
-0.790636
-0.797175
-0.802511
-0.806661
-0.809645
-0.811492
-0.812232
-0.811903
-0.810548
-0.80821
-0.804929
-0.800747
-0.795708
-0.78986
-0.783252
-0.775931
-0.767944
-0.759336
-0.750152
-0.740436
-0.730234
-0.719588
-0.708543
-0.697144
-0.685441
-0.673485
-0.661337
-0.64906
-0.636726
-0.624418
-0.765178
-0.77206
-0.777777
-0.782345
-0.785781
-0.788112
-0.789365
-0.789573
-0.78878
-0.787026
-0.784347
-0.780781
-0.776371
-0.77116
-0.765194
-0.758519
-0.751176
-0.743206
-0.73465
-0.725547
-0.715935
-0.705851
-0.695334
-0.684422
-0.673158
-0.661591
-0.649774
-0.637774
-0.625669
-0.613558
-0.740427
-0.747613
-0.753674
-0.758622
-0.762475
-0.765257
-0.766992
-0.767711
-0.767454
-0.766259
-0.76416
-0.761191
-0.757392
-0.752806
-0.747474
-0.741438
-0.734736
-0.727405
-0.719481
-0.710996
-0.701984
-0.692474
-0.682495
-0.672079
-0.661259
-0.650073
-0.638568
-0.62681
-0.614883
-0.602901
-0.716411
-0.723864
-0.730231
-0.735522
-0.739755
-0.742954
-0.74514
-0.746339
-0.746589
-0.745926
-0.744381
-0.741987
-0.738782
-0.734804
-0.730093
-0.724687
-0.71862
-0.711926
-0.704636
-0.696778
-0.688377
-0.679454
-0.67003
-0.660124
-0.649757
-0.638953
-0.627746
-0.616194
-0.604384
-0.592445
-0.693148
-0.700833
-0.707469
-0.713066
-0.717644
-0.721226
-0.723829
-0.725476
-0.726202
-0.726041
-0.725022
-0.723178
-0.720544
-0.717156
-0.713051
-0.708262
-0.702823
-0.696763
-0.690109
-0.682884
-0.675107
-0.666789
-0.657942
-0.648569
-0.638674
-0.628261
-0.617344
-0.605964
-0.5942
-0.58219
-0.670649
-0.678531
-0.685402
-0.691271
-0.696158
-0.700089
-0.703075
-0.705135
-0.706304
-0.706613
-0.706092
-0.704771
-0.702684
-0.699864
-0.696346
-0.692161
-0.687338
-0.681906
-0.67589
-0.669306
-0.662166
-0.654476
-0.646233
-0.637425
-0.628033
-0.618036
-0.607415
-0.596175
-0.584376
-0.572147
-0.648919
-0.656965
-0.664038
-0.670146
-0.675309
-0.679555
-0.682889
-0.685327
-0.686904
-0.687651
-0.687596
-0.68677
-0.685203
-0.682928
-0.679975
-0.676375
-0.672157
-0.667347
-0.661968
-0.656032
-0.649546
-0.642507
-0.634902
-0.626701
-0.61786
-0.608323
-0.598024
-0.586907
-0.574986
-0.562341
-0.627957
-0.636138
-0.643382
-0.649696
-0.655105
-0.659632
-0.663277
-0.666058
-0.668009
-0.669161
-0.669542
-0.669179
-0.668104
-0.666346
-0.663936
-0.660902
-0.657274
-0.653078
-0.648333
-0.643051
-0.637234
-0.630876
-0.623949
-0.61641
-0.608186
-0.59918
-0.589258
-0.578275
-0.566151
-0.55283
-0.607759
-0.616048
-0.623433
-0.629924
-0.635546
-0.640322
-0.644244
-0.647333
-0.649624
-0.651148
-0.65193
-0.651999
-0.651385
-0.650116
-0.648222
-0.645734
-0.64268
-0.639086
-0.634971
-0.630347
-0.625216
-0.619566
-0.613366
-0.606554
-0.599035
-0.590665
-0.581227
-0.570439
-0.558071
-0.543749
-0.588317
-0.596684
-0.604183
-0.61082
-0.616625
-0.621615
-0.625777
-0.629138
-0.631734
-0.633593
-0.634742
-0.635207
-0.635019
-0.634207
-0.632801
-0.630832
-0.628331
-0.625322
-0.621828
-0.617861
-0.613426
-0.608513
-0.603085
-0.597076
-0.590371
-0.582783
-0.574002
-0.563563
-0.551018
-0.535381
-0.56962
-0.578042
-0.585626
-0.592381
-0.598338
-0.603505
-0.607872
-0.61147
-0.614334
-0.616491
-0.617967
-0.61879
-0.61899
-0.618596
-0.617642
-0.61616
-0.61418
-0.611731
-0.608835
-0.605514
-0.601775
-0.597612
-0.592995
-0.587859
-0.582086
-0.57546
-0.567584
-0.557771
-0.545298
-0.528083
-0.551658
-0.560134
-0.567803
-0.574673
-0.580774
-0.586109
-0.590672
-0.594496
-0.597616
-0.600057
-0.601845
-0.603009
-0.60358
-0.60359
-0.603073
-0.602062
-0.600592
-0.598691
-0.596389
-0.593713
-0.590678
-0.587286
-0.583519
-0.57933
-0.574617
-0.569174
-0.562553
-0.55384
-0.541889
-0.52221
-0.534395
-0.54295
-0.550727
-0.557737
-0.564007
-0.569534
-0.574319
-0.5784
-0.581808
-0.584567
-0.586705
-0.588252
-0.589241
-0.589706
-0.589684
-0.589209
-0.588318
-0.587045
-0.585426
-0.583493
-0.581269
-0.578769
-0.575995
-0.572926
-0.569506
-0.565604
-0.560863
-0.554305
-0.544271
-0.5208
-0.517729
-0.526123
-0.533773
-0.54069
-0.546898
-0.552392
-0.557184
-0.561308
-0.564795
-0.56767
-0.569964
-0.571707
-0.572938
-0.573692
-0.57401
-0.573932
-0.573499
-0.572755
-0.571743
-0.570508
-0.569089
-0.567521
-0.565837
-0.564066
-0.562239
-0.560408
-0.558513
-0.556031
-0.552863
-0.535523
-0.362471
-0.411597
-0.459608
-0.507114
-0.553929
-0.599888
-0.644872
-0.688775
-0.73149
-0.772918
-0.812969
-0.851556
-0.8886
-0.924025
-0.957763
-0.989752
-1.01994
-1.04826
-1.0747
-1.0992
-1.12175
-1.14233
-1.16094
-1.17756
-1.1922
-1.20486
-1.21555
-1.22428
-1.23104
-1.23619
-0.356406
-0.404408
-0.451507
-0.497942
-0.543599
-0.588362
-0.632135
-0.674822
-0.716329
-0.756564
-0.795438
-0.832871
-0.868786
-0.903113
-0.935785
-0.966742
-0.995932
-1.02331
-1.04883
-1.07247
-1.0942
-1.11402
-1.13192
-1.14788
-1.16192
-1.17405
-1.18428
-1.19265
-1.19917
-1.20403
-0.346824
-0.393823
-0.440071
-0.485628
-0.530393
-0.574265
-0.617154
-0.658969
-0.699618
-0.739013
-0.77707
-0.813709
-0.848857
-0.882444
-0.914407
-0.944688
-0.973233
-0.999999
-1.02495
-1.04805
-1.06929
-1.08866
-1.10613
-1.12173
-1.13543
-1.14727
-1.15726
-1.16543
-1.17181
-1.17649
-0.33368
-0.379748
-0.425155
-0.469896
-0.513863
-0.55696
-0.599096
-0.64018
-0.680124
-0.71884
-0.756246
-0.792265
-0.826823
-0.859854
-0.891294
-0.921086
-0.949178
-0.975528
-1.0001
-1.02286
-1.0438
-1.06289
-1.08014
-1.09553
-1.10908
-1.12079
-1.13069
-1.13881
-1.14516
-1.14981
-0.317571
-0.362705
-0.407249
-0.451162
-0.494334
-0.536668
-0.578074
-0.61846
-0.65774
-0.695827
-0.73264
-0.768103
-0.802144
-0.834696
-0.865697
-0.89509
-0.922826
-0.948859
-0.973155
-0.995685
-1.01643
-1.03537
-1.05249
-1.0678
-1.08129
-1.09299
-1.10291
-1.11108
-1.11751
-1.12226
-0.299248
-0.343442
-0.387106
-0.430178
-0.472549
-0.514122
-0.554807
-0.594514
-0.633155
-0.670646
-0.706906
-0.74186
-0.775435
-0.807567
-0.838193
-0.867258
-0.89471
-0.920508
-0.944613
-0.966996
-0.987633
-1.00651
-1.0236
-1.03892
-1.05246
-1.06424
-1.07428
-1.0826
-1.0892
-1.09415
-0.279417
-0.322657
-0.365419
-0.407631
-0.449186
-0.48999
-0.529951
-0.568981
-0.606991
-0.6439
-0.679627
-0.714097
-0.747239
-0.778986
-0.809279
-0.83806
-0.865281
-0.890897
-0.91487
-0.937168
-0.957765
-0.97664
-0.99378
-1.00918
-1.02284
-1.03478
-1.04501
-1.05355
-1.06041
-1.06564
-0.258701
-0.300964
-0.3428
-0.384129
-0.424847
-0.464862
-0.504084
-0.542425
-0.579799
-0.616123
-0.651319
-0.68531
-0.718028
-0.749406
-0.779384
-0.807905
-0.83492
-0.860384
-0.884257
-0.906506
-0.927102
-0.946021
-0.96325
-0.978783
-0.992621
-1.00477
-1.01525
-1.02406
-1.03124
-1.03682
-0.237627
-0.278892
-0.319776
-0.360196
-0.400054
-0.439257
-0.47772
-0.515353
-0.552074
-0.5878
-0.622454
-0.65596
-0.68825
-0.719257
-0.748921
-0.777187
-0.804003
-0.829324
-0.853109
-0.875323
-0.895935
-0.91492
-0.932263
-0.947958
-0.962002
-0.974401
-0.985161
-0.994299
-1.00183
-1.00779
-0.216621
-0.256868
-0.296779
-0.336269
-0.375243
-0.413612
-0.451292
-0.488197
-0.524244
-0.559353
-0.593448
-0.626454
-0.658302
-0.688926
-0.718267
-0.746268
-0.772878
-0.79805
-0.821743
-0.84392
-0.864548
-0.883603
-0.901068
-0.916935
-0.9312
-0.943865
-0.954932
-0.964416
-0.972328
-0.978703
-0.196014
-0.23523
-0.274152
-0.312693
-0.350763
-0.388279
-0.425155
-0.46131
-0.496663
-0.531134
-0.56465
-0.597136
-0.628523
-0.658748
-0.687747
-0.715467
-0.741854
-0.766862
-0.790447
-0.812572
-0.833205
-0.852321
-0.869901
-0.885937
-0.900422
-0.913353
-0.924733
-0.934571
-0.942875
-0.949671
-0.176054
-0.214232
-0.252153
-0.289732
-0.326885
-0.36353
-0.399587
-0.434974
-0.469614
-0.503429
-0.536345
-0.56829
-0.599197
-0.629
-0.657637
-0.685053
-0.711196
-0.736017
-0.759472
-0.781525
-0.802143
-0.821301
-0.838981
-0.855169
-0.869858
-0.883043
-0.894725
-0.904909
-0.9136
-0.920816
-0.156917
-0.194054
-0.230969
-0.26758
-0.303807
-0.339572
-0.374797
-0.409404
-0.443317
-0.476459
-0.508758
-0.540144
-0.570548
-0.599907
-0.628159
-0.655248
-0.681121
-0.70573
-0.72903
-0.750985
-0.771563
-0.79074
-0.808495
-0.824812
-0.839681
-0.853096
-0.865057
-0.875567
-0.884626
-0.892249
-0.138716
-0.174816
-0.210727
-0.24637
-0.281669
-0.316551
-0.350939
-0.384759
-0.417934
-0.450391
-0.482059
-0.512867
-0.54275
-0.571644
-0.599487
-0.626224
-0.651802
-0.676172
-0.699291
-0.72112
-0.741631
-0.760798
-0.7786
-0.795017
-0.810036
-0.823651
-0.835862
-0.846669
-0.85607
-0.864079
-0.121519
-0.156592
-0.191506
-0.226185
-0.260561
-0.294561
-0.328113
-0.361143
-0.393576
-0.42534
-0.456366
-0.486583
-0.515928
-0.544338
-0.571751
-0.598113
-0.62337
-0.647476
-0.670385
-0.69206
-0.712473
-0.731599
-0.749416
-0.765901
-0.78104
-0.794823
-0.807251
-0.818322
-0.828035
-0.836402
-0.105357
-0.139416
-0.173343
-0.207069
-0.24053
-0.273657
-0.306378
-0.338621
-0.370312
-0.401381
-0.431758
-0.461375
-0.490169
-0.518078
-0.545044
-0.571008
-0.595922
-0.619737
-0.642411
-0.663904
-0.684189
-0.703242
-0.72104
-0.73756
-0.752784
-0.766703
-0.779314
-0.790616
-0.800609
-0.809302
-0.0902315
-0.123291
-0.156246
-0.189034
-0.221593
-0.253859
-0.28576
-0.317224
-0.348178
-0.378552
-0.408279
-0.437291
-0.465525
-0.492922
-0.519423
-0.544973
-0.569522
-0.593025
-0.615438
-0.636724
-0.656852
-0.6758
-0.693546
-0.710066
-0.725341
-0.739362
-0.752123
-0.763624
-0.773863
-0.78285
-0.0761252
-0.108201
-0.1402
-0.172066
-0.203742
-0.235162
-0.266256
-0.296953
-0.327179
-0.356866
-0.385945
-0.41435
-0.44202
-0.468897
-0.494923
-0.520044
-0.54421
-0.56738
-0.589511
-0.610565
-0.630511
-0.649326
-0.666988
-0.683475
-0.698769
-0.712857
-0.725735
-0.737401
-0.747853
-0.757098
-0.0630064
-0.0941137
-0.125174
-0.156137
-0.186947
-0.217541
-0.247847
-0.277792
-0.307303
-0.336311
-0.364749
-0.392551
-0.419657
-0.446009
-0.471552
-0.496233
-0.520004
-0.542823
-0.564653
-0.585454
-0.605195
-0.623852
-0.641403
-0.657827
-0.673106
-0.687229
-0.700191
-0.711989
-0.72262
-0.732088
-0.0508338
-0.0809839
-0.111122
-0.141202
-0.171169
-0.200958
-0.230495
-0.259707
-0.288519
-0.316862
-0.34467
-0.371876
-0.398422
-0.424249
-0.449307
-0.473541
-0.496906
-0.519362
-0.540874
-0.561403
-0.580918
-0.599394
-0.61681
-0.633144
-0.64838
-0.662506
-0.67552
-0.687416
-0.698191
-0.707847
-0.0395595
-0.0687589
-0.0979917
-0.12721
-0.156357
-0.185365
-0.214157
-0.242657
-0.270789
-0.298484
-0.325675
-0.352297
-0.37829
-0.403598
-0.42817
-0.451955
-0.474908
-0.496992
-0.518171
-0.538412
-0.557681
-0.575955
-0.593213
-0.609434
-0.6246
-0.638702
-0.651736
-0.663699
-0.674585
-0.684395
-0.0291281
-0.0573791
-0.0857224
-0.114102
-0.142455
-0.170708
-0.19878
-0.226591
-0.254066
-0.281132
-0.307723
-0.333775
-0.359227
-0.384023
-0.408114
-0.431451
-0.45399
-0.475694
-0.496532
-0.516469
-0.535476
-0.55353
-0.57061
-0.586694
-0.601766
-0.615818
-0.628846
-0.640845
-0.65181
-0.66174
-0.0194848
-0.0467764
-0.0742485
-0.101813
-0.1294
-0.156926
-0.184306
-0.211455
-0.238296
-0.264756
-0.290767
-0.316266
-0.34119
-0.365485
-0.389102
-0.411993
-0.434117
-0.455441
-0.475931
-0.495555
-0.514286
-0.532103
-0.548986
-0.564914
-0.579871
-0.59385
-0.606845
-0.618853
-0.629867
-0.639885
-0.0105639
-0.0368708
-0.0634945
-0.0902724
-0.117123
-0.143954
-0.170671
-0.197186
-0.223421
-0.249299
-0.274752
-0.299716
-0.324129
-0.347936
-0.371087
-0.393539
-0.415251
-0.436193
-0.456331
-0.475636
-0.494082
-0.51165
-0.528321
-0.544076
-0.558899
-0.572783
-0.585723
-0.597714
-0.608749
-0.618828
-0.00229278
-0.0275817
-0.0533865
-0.0794144
-0.105564
-0.131733
-0.157818
-0.18373
-0.209387
-0.23471
-0.25963
-0.284081
-0.308001
-0.331333
-0.354031
-0.37605
-0.397353
-0.417913
-0.437698
-0.456679
-0.474833
-0.492142
-0.50859
-0.524157
-0.53883
-0.552601
-0.565465
-0.577415
-0.588448
-0.59856
0.00541903
-0.018862
-0.0439237
-0.0692358
-0.0947237
-0.120265
-0.145748
-0.171084
-0.19619
-0.220984
-0.245394
-0.269352
-0.292794
-0.315666
-0.33792
-0.359512
-0.380411
-0.400588
-0.420017
-0.438669
-0.456523
-0.473565
-0.489778
-0.505145
-0.519652
-0.533292
-0.546059
-0.557947
-0.568952
-0.579075
0.0126953
-0.0106339
-0.0350629
-0.0597126
-0.0845702
-0.109515
-0.134422
-0.159205
-0.183782
-0.208069
-0.23199
-0.255473
-0.278453
-0.300877
-0.322697
-0.343871
-0.364369
-0.384167
-0.403239
-0.42156
-0.439111
-0.45588
-0.47185
-0.487006
-0.501336
-0.51483
-0.527484
-0.539291
-0.550249
-0.560358
0.0199761
-0.00211288
-0.0260434
-0.0501202
-0.0744175
-0.0988201
-0.123199
-0.147478
-0.171572
-0.195398
-0.218874
-0.241923
-0.26448
-0.286493
-0.307912
-0.328699
-0.348828
-0.368276
-0.387018
-0.405034
-0.422307
-0.438824
-0.454572
-0.469537
-0.483705
-0.497067
-0.509619
-0.521354
-0.532272
-0.542374
0.0284715
0.00806748
-0.0156509
-0.0394045
-0.0633389
-0.0873444
-0.111322
-0.135215
-0.158944
-0.182417
-0.205548
-0.228253
-0.250467
-0.272139
-0.293221
-0.31368
-0.333493
-0.352641
-0.371102
-0.388857
-0.405893
-0.422199
-0.437762
-0.452569
-0.466608
-0.479869
-0.492347
-0.504039
-0.514944
-0.525063
0.0366852
0.0144451
-0.0101594
-0.0338223
-0.0574958
-0.081106
-0.104613
-0.128021
-0.151275
-0.174283
-0.196948
-0.219184
-0.240923
-0.262109
-0.282697
-0.302659
-0.321975
-0.34063
-0.358606
-0.375888
-0.392467
-0.408335
-0.42348
-0.437893
-0.451563
-0.464481
-0.476643
-0.488048
-0.498696
-0.508591
0.540746
0.548081
0.555593
0.563254
0.571063
0.579017
0.587106
0.595322
0.603653
0.612086
0.620606
0.629194
0.637828
0.646486
0.655138
0.66376
0.672324
0.680811
0.689205
0.697505
0.705728
0.713917
0.72215
0.73054
0.739274
0.748633
0.758904
0.770323
0.784677
0.805083
0.534192
0.541302
0.548681
0.556193
0.563833
0.57161
0.579513
0.587534
0.595659
0.603874
0.612163
0.620505
0.628877
0.637253
0.645605
0.653904
0.662123
0.67024
0.678239
0.686118
0.693892
0.701607
0.709337
0.717206
0.725412
0.734248
0.744019
0.754991
0.76901
0.789338
0.526768
0.533604
0.540823
0.548157
0.555599
0.563165
0.57085
0.578641
0.586524
0.594485
0.602503
0.610559
0.618625
0.626675
0.634678
0.642605
0.650428
0.658123
0.665675
0.673081
0.680355
0.68754
0.694715
0.702013
0.709644
0.717916
0.727156
0.737664
0.751358
0.771618
0.518485
0.524995
0.532029
0.53916
0.546373
0.553698
0.561132
0.568659
0.576265
0.583932
0.591641
0.599368
0.607084
0.614761
0.622368
0.629876
0.637254
0.644478
0.651531
0.65841
0.665131
0.671734
0.678303
0.684982
0.691992
0.699658
0.70833
0.718336
0.731639
0.751673
0.509352
0.515488
0.522314
0.529215
0.536169
0.543222
0.550372
0.557602
0.564894
0.57223
0.579588
0.586943
0.594265
0.601524
0.60869
0.615731
0.622616
0.629318
0.63582
0.64212
0.648232
0.6542
0.660114
0.666126
0.672472
0.67949
0.687552
0.697015
0.709873
0.729577
0.49938
0.505096
0.51169
0.518337
0.525003
0.531754
0.538588
0.545485
0.552426
0.559392
0.566359
0.573299
0.580183
0.586981
0.59366
0.600188
0.606532
0.612663
0.618562
0.624229
0.629678
0.63496
0.64017
0.645471
0.651107
0.657435
0.664846
0.673729
0.686095
0.705396
0.488583
0.493833
0.500172
0.50654
0.512889
0.519306
0.525791
0.532322
0.538876
0.545434
0.551969
0.558455
0.564861
0.571154
0.577303
0.583271
0.589024
0.594533
0.59978
0.604761
0.609497
0.614042
0.618502
0.623046
0.627931
0.633526
0.640248
0.648511
0.660342
0.679178
0.47697
0.481711
0.487772
0.493835
0.499839
0.505891
0.511996
0.518126
0.524259
0.530373
0.53644
0.542433
0.548321
0.554068
0.559641
0.565002
0.570116
0.574954
0.579498
0.583745
0.587718
0.59148
0.595146
0.598891
0.602981
0.607805
0.613799
0.621407
0.63266
0.650972
0.464554
0.468742
0.474504
0.480237
0.485865
0.491523
0.497217
0.502915
0.508594
0.51423
0.519795
0.525259
0.530589
0.535749
0.540701
0.545408
0.549836
0.553957
0.557751
0.561217
0.564381
0.567319
0.570146
0.573049
0.576305
0.580318
0.585547
0.592464
0.6031
0.620835
0.451348
0.454943
0.460383
0.465759
0.470986
0.476221
0.481473
0.48671
0.491904
0.497029
0.502058
0.506957
0.511692
0.516224
0.520514
0.524525
0.528225
0.531584
0.534585
0.537224
0.53954
0.541607
0.543554
0.545573
0.547953
0.551118
0.555547
0.561739
0.571721
0.588828
0.437368
0.440331
0.445428
0.450426
0.455223
0.460007
0.464792
0.469537
0.474216
0.478799
0.483258
0.487557
0.49166
0.495526
0.499115