/*--------------------------------*- C++ -*----------------------------------*\
  =========                 |
  \\      /  F ield         | OpenFOAM: The Open Source CFD Toolbox
   \\    /   O peration     | Website:  https://openfoam.org
    \\  /    A nd           | Version:  6.0
     \\/     M anipulation  |
\*---------------------------------------------------------------------------*/
FoamFile
{
    version     2.0;
    format      ascii;
    class       volVectorField;
    location    "7";
    object      U;
}
// * * * * * * * * * * * * * * * * * * * * * * * * * * * * * * * * * * * * * //

dimensions      [0 1 -1 0 0 0 0];

internalField   nonuniform List<vector> 
19200
(
(0.0987643 -4.75138 -5.21189e-21)
(0.0611801 -4.35034 2.52529e-21)
(0.0671463 -4.02279 1.17323e-21)
(0.0820614 -3.75567 1.03771e-21)
(0.0995735 -3.53753 1.16306e-21)
(0.121146 -3.35876 8.07086e-23)
(0.146203 -3.21147 2.05547e-22)
(0.173825 -3.08931 -1.16622e-22)
(0.203316 -2.98712 1.45874e-21)
(0.23409 -2.90079 6.15075e-22)
(0.265634 -2.827 1.94296e-25)
(0.297512 -2.7631 9.81386e-22)
(0.329356 -2.70696 1.63382e-21)
(0.360867 -2.6569 -1.116e-21)
(0.391798 -2.61158 1.447e-21)
(0.421954 -2.56993 1.2662e-21)
(0.451181 -2.53109 -1.19124e-21)
(0.479365 -2.49441 2.06027e-21)
(0.506423 -2.45935 -1.31365e-21)
(0.532297 -2.42549 6.65306e-22)
(0.556954 -2.3925 9.43889e-22)
(0.580379 -2.36012 -3.0525e-22)
(0.602574 -2.32813 4.13501e-22)
(0.623551 -2.29635 -4.87868e-22)
(0.64333 -2.26463 1.08096e-21)
(0.661941 -2.23282 2.65246e-22)
(0.679411 -2.20079 -1.7097e-22)
(0.695774 -2.1684 1.07561e-22)
(0.711066 -2.1355 2.49062e-22)
(0.72528 -2.10192 9.80047e-22)
(0.223412 -4.7489 -1.21938e-21)
(0.175957 -4.35413 7.85962e-21)
(0.173978 -4.03175 -4.13028e-21)
(0.182628 -3.76931 -5.64881e-21)
(0.195229 -3.55545 -2.55393e-21)
(0.212935 -3.38042 -1.84541e-21)
(0.234925 -3.23634 -3.73992e-21)
(0.260084 -3.11685 4.96443e-22)
(0.287564 -3.01684 -8.47125e-22)
(0.31666 -2.93221 -2.99774e-21)
(0.346764 -2.85969 -7.6146e-21)
(0.377367 -2.79667 3.74699e-21)
(0.408047 -2.74107 -1.39179e-21)
(0.438462 -2.69125 5.28297e-22)
(0.468334 -2.64589 -3.31358e-21)
(0.497444 -2.60397 -1.23861e-21)
(0.525623 -2.56468 1.38504e-22)
(0.552746 -2.52737 4.26534e-21)
(0.578721 -2.49154 -2.23065e-21)
(0.603489 -2.45681 -1.24754e-21)
(0.627014 -2.42286 -4.96853e-21)
(0.649282 -2.38945 1.28242e-21)
(0.670295 -2.35639 -8.23757e-22)
(0.690068 -2.3235 1.46266e-21)
(0.708625 -2.29065 -1.82104e-21)
(0.725996 -2.2577 -1.0619e-21)
(0.742213 -2.22452 3.47152e-22)
(0.757313 -2.19098 5.3929e-22)
(0.771355 -2.15691 -9.65427e-22)
(0.784296 -2.12213 4.83174e-22)
(0.347742 -4.74354 -6.0179e-22)
(0.290702 -4.35529 1.77732e-21)
(0.281166 -4.03833 2.58077e-21)
(0.28388 -3.78081 1.99952e-20)
(0.291832 -3.57139 -1.16081e-20)
(0.305883 -3.40023 1.06337e-20)
(0.324976 -3.25942 -9.57981e-21)
(0.347806 -3.14263 5.1389e-21)
(0.373376 -3.0448 -4.99651e-21)
(0.400864 -2.96185 -6.07775e-22)
(0.429573 -2.89058 1.27446e-20)
(0.458923 -2.8284 2.17383e-21)
(0.488441 -2.77329 -5.92967e-21)
(0.517744 -2.72365 4.70671e-21)
(0.546527 -2.6782 -5.8997e-23)
(0.574549 -2.63596 2.04442e-21)
(0.601627 -2.59616 1.52153e-21)
(0.627628 -2.55817 5.10043e-21)
(0.652454 -2.52154 -2.25564e-21)
(0.676045 -2.4859 -7.43905e-22)
(0.698364 -2.45097 -2.01718e-21)
(0.719399 -2.41652 8.94548e-21)
(0.739155 -2.38237 -7.49067e-21)
(0.757649 -2.34837 2.46992e-21)
(0.774911 -2.3144 5.67953e-21)
(0.790971 -2.28032 -4.64186e-21)
(0.805863 -2.24601 6.25004e-21)
(0.819634 -2.21134 -6.86683e-22)
(0.832361 -2.17614 -7.16092e-22)
(0.843961 -2.14022 -4.85347e-21)
(0.47191 -4.73517 -1.9647e-20)
(0.405565 -4.35383 -1.72978e-20)
(0.388769 -4.04257 -2.12709e-20)
(0.385827 -3.79016 7.14221e-22)
(0.389373 -3.58533 1.24008e-21)
(0.399974 -3.41812 -2.41812e-20)
(0.416335 -3.28064 -1.2081e-20)
(0.436964 -3.16658 3.13231e-21)
(0.460721 -3.07091 -5.21451e-22)
(0.486667 -2.98963 5.5338e-21)
(0.51402 -2.91955 -2.21496e-20)
(0.542134 -2.85817 -1.40761e-20)
(0.570486 -2.8035 5.19075e-21)
(0.598656 -2.75398 1.0604e-20)
(0.626312 -2.70839 -1.23662e-20)
(0.653198 -2.66579 -1.9867e-21)
(0.679119 -2.62542 -7.43763e-21)
(0.703932 -2.58672 -3.58003e-21)
(0.72754 -2.54926 6.01524e-21)
(0.749879 -2.51268 -7.77973e-21)
(0.770917 -2.47674 6.78868e-21)
(0.790643 -2.44123 -8.0854e-21)
(0.809065 -2.40599 -6.47052e-21)
(0.826207 -2.37088 -4.64129e-21)
(0.8421 -2.3358 5.41882e-21)
(0.856779 -2.30061 -9.7166e-21)
(0.87028 -2.26521 9.98398e-22)
(0.882656 -2.22945 1.77507e-21)
(0.894006 -2.19316 -5.19246e-21)
(0.904201 -2.15615 1.02186e-21)
(0.595883 -4.72373 -1.19197e-20)
(0.52055 -4.34971 1.63569e-21)
(0.496785 -4.04443 1.48752e-20)
(0.488458 -3.79734 1.5767e-20)
(0.487837 -3.59722 1.13033e-20)
(0.495187 -3.43405 4.64895e-21)
(0.508976 -3.29993 2.89289e-21)
(0.52753 -3.1886 3.39552e-20)
(0.549563 -3.09509 -2.03665e-20)
(0.574028 -3.01543 5.38629e-22)
(0.600058 -2.94652 4.92844e-21)
(0.626946 -2.88588 2.18227e-20)
(0.65412 -2.83159 -1.50175e-20)
(0.68113 -2.78214 1.09188e-20)
(0.707619 -2.73636 -1.23237e-20)
(0.733316 -2.69334 2.1153e-20)
(0.758017 -2.65237 -6.31798e-21)
(0.781575 -2.61292 2.07427e-22)
(0.803891 -2.57459 1.04122e-20)
(0.824903 -2.53705 7.341e-21)
(0.844581 -2.50009 -7.51854e-21)
(0.862921 -2.46351 1.02578e-20)
(0.879934 -2.42718 -4.76266e-21)
(0.895648 -2.39098 5.46481e-21)
(0.910101 -2.35479 6.10165e-21)
(0.923331 -2.31852 2.7241e-21)
(0.935376 -2.28205 8.33559e-21)
(0.946298 -2.24525 -2.89305e-21)
(0.956214 -2.20792 -9.96065e-22)
(0.964945 -2.16989 -4.70549e-21)
(0.719596 -4.7092 -8.79243e-21)
(0.635625 -4.34291 -5.67946e-21)
(0.605194 -4.04388 -1.71832e-20)
(0.591752 -3.80229 -4.47553e-20)
(0.5872 -3.60701 1.5042e-20)
(0.591495 -3.44793 9.72962e-22)
(0.602869 -3.3172 1.81911e-22)
(0.619467 -3.20861 2.2491e-21)
(0.639861 -3.11722 -1.40282e-21)
(0.662899 -3.03916 -2.7394e-20)
(0.687634 -2.97135 1.15509e-20)
(0.713298 -2.91141 2.01565e-20)
(0.739279 -2.85745 9.21184e-23)
(0.765095 -2.80802 7.63573e-21)
(0.79037 -2.762 1.90693e-20)
(0.81482 -2.71851 -1.3177e-20)
(0.838235 -2.6769 2.34542e-20)
(0.860465 -2.63667 -1.12418e-20)
(0.881413 -2.59744 2.0306e-20)
(0.90102 -2.55893 -1.52337e-20)
(0.919261 -2.52093 6.89395e-21)
(0.936136 -2.48329 1.83258e-20)
(0.951664 -2.44588 1.15692e-21)
(0.965878 -2.40859 -1.7057e-20)
(0.978821 -2.37133 9.5059e-21)
(0.990536 -2.33401 2.96032e-21)
(1.00106 -2.29652 -3.12987e-21)
(1.01047 -2.25871 1.21523e-20)
(1.0189 -2.22041 4.31131e-21)
(1.02612 -2.18142 -4.07375e-21)
(0.842978 -4.69157 2.46119e-20)
(0.750742 -4.3334 -7.97207e-22)
(0.71396 -4.04088 -3.54491e-20)
(0.695679 -3.80497 7.06424e-21)
(0.687433 -3.61463 -1.01097e-20)
(0.688866 -3.45971 7.27259e-21)
(0.697978 -3.33238 -3.45895e-21)
(0.712733 -3.22651 3.03734e-20)
(0.731568 -3.13722 -3.31447e-20)
(0.753227 -3.06071 8.12972e-21)
(0.776686 -2.99396 -5.86884e-21)
(0.801124 -2.93466 4.36784e-21)
(0.825889 -2.88097 -1.91205e-20)
(0.850471 -2.83151 -1.20806e-21)
(0.87448 -2.78519 3.18053e-20)
(0.897621 -2.7412 -2.1855e-20)
(0.91968 -2.69892 -1.39446e-20)
(0.940509 -2.65788 -1.03448e-20)
(0.960011 -2.61773 1.90082e-20)
(0.978133 -2.57824 4.18511e-21)
(0.994858 -2.53921 -1.8922e-20)
(1.01019 -2.5005 2.56153e-20)
(1.02416 -2.46202 -2.31274e-20)
(1.0368 -2.42367 1.5579e-20)
(1.04817 -2.38537 -8.78044e-21)
(1.0583 -2.34704 2.78903e-21)
(1.06726 -2.30856 4.44049e-21)
(1.07511 -2.26981 -1.96658e-20)
(1.082 -2.23059 8.55616e-21)
(1.08765 -2.19072 1.80694e-22)
(0.965956 -4.67085 -2.45271e-20)
(0.865849 -4.32116 1.96626e-20)
(0.823042 -4.03541 -3.69063e-20)
(0.800204 -3.80533 7.04662e-20)
(0.7885 -3.62001 -1.9848e-20)
(0.787264 -3.46928 2.86103e-20)
(0.794262 -3.34537 2.28731e-20)
(0.807283 -3.2422 -3.79614e-21)
(0.824631 -3.15498 -6.00514e-21)
(0.844951 -3.07997 -1.4283e-22)
(0.867149 -3.01423 -2.35341e-20)
(0.890351 -2.95551 1.21399e-20)
(0.913871 -2.90205 -1.50609e-20)
(0.937176 -2.85251 -1.1621e-21)
(0.959862 -2.80585 -4.29688e-20)
(0.981627 -2.76132 1.39968e-20)
(1.00226 -2.71833 8.39614e-21)
(1.02161 -2.67646 -9.34983e-21)
(1.03958 -2.63539 -1.07346e-21)
(1.05614 -2.5949 -1.48435e-20)
(1.07127 -2.55484 -5.3902e-21)
(1.08498 -2.51508 5.50777e-22)
(1.09732 -2.47555 -1.32932e-20)
(1.10832 -2.43617 -1.9911e-20)
(1.11804 -2.39687 8.0097e-22)
(1.12654 -2.35756 2.95528e-21)
(1.13387 -2.31816 6.4386e-21)
(1.1401 -2.27853 -1.60209e-20)
(1.14542 -2.23846 1.37296e-20)
(1.14947 -2.19778 -2.61481e-20)
(1.08846 -4.64704 -6.18733e-20)
(0.980889 -4.30618 7.3811e-20)
(0.932395 -4.02741 -7.8604e-20)
(0.905286 -3.8033 -2.11646e-20)
(0.890361 -3.62309 -1.393e-20)
(0.886645 -3.4766 -1.50366e-20)
(0.891673 -3.3561 -3.46791e-20)
(0.903063 -3.2556 -2.90251e-21)
(0.91899 -3.17041 -1.4067e-20)
(0.938007 -3.09684 -3.44626e-21)
(0.958951 -3.03206 2.46787e-20)
(0.980901 -2.97387 -1.398e-20)
(1.00314 -2.92058 -1.71535e-20)
(1.02512 -2.87091 -2.92993e-20)
(1.04642 -2.82388 6.18459e-20)
(1.06674 -2.77878 -2.41127e-20)
(1.08587 -2.73505 9.03861e-21)
(1.10365 -2.69233 -3.414e-20)
(1.12002 -2.65033 1.30022e-20)
(1.13494 -2.60885 -5.55537e-21)
(1.14839 -2.56777 6.81459e-21)
(1.16041 -2.52698 -2.5775e-21)
(1.17104 -2.48643 2.24258e-20)
(1.18033 -2.44605 -8.03665e-21)
(1.18835 -2.40579 2.22395e-20)
(1.19516 -2.36557 -4.55916e-20)
(1.20081 -2.3253 2.93144e-20)
(1.20539 -2.28484 8.22221e-21)
(1.20909 -2.24399 1.55998e-20)
(1.21151 -2.2026 -4.71743e-20)
(1.2104 -4.62015 9.80956e-20)
(1.0958 -4.28842 -1.86072e-20)
(1.04197 -4.01686 3.34661e-20)
(1.01088 -3.79885 -9.85138e-21)
(0.99297 -3.62381 3.42929e-20)
(0.98696 -3.48156 3.28904e-20)
(0.990158 -3.36446 1.62054e-20)
(1.00001 -3.26662 -6.01204e-21)
(1.01458 -3.1834 -3.69367e-20)
(1.03232 -3.11123 5.43072e-20)
(1.05201 -3.04735 -4.50963e-21)
(1.07269 -2.98964 3.93892e-20)
(1.09361 -2.93647 1.44309e-20)
(1.11421 -2.88662 5.20695e-21)
(1.13406 -2.83918 8.86048e-21)
(1.15286 -2.79348 1.19019e-20)
(1.1704 -2.74901 2.02538e-20)
(1.18655 -2.70543 -5.92607e-21)
(1.20123 -2.66249 3.03329e-20)
(1.21441 -2.62003 1.4264e-20)
(1.22611 -2.57794 -2.9893e-20)
(1.23636 -2.53616 5.33293e-20)
(1.24521 -2.49462 -7.10416e-20)
(1.25273 -2.45328 6.79279e-20)
(1.25899 -2.4121 -2.26257e-20)
(1.26406 -2.37102 -9.41501e-21)
(1.26799 -2.32995 -2.6233e-21)
(1.27088 -2.28875 1.6997e-20)
(1.27294 -2.24719 6.24156e-21)
(1.27368 -2.20516 -7.40662e-21)
(1.33172 -4.59018 -5.68892e-20)
(1.21053 -4.26789 5.52715e-20)
(1.15171 -4.00371 -1.5082e-20)
(1.11693 -3.79192 4.37818e-20)
(1.09628 -3.6221 4.16016e-21)
(1.08816 -3.48411 9.89529e-21)
(1.08966 -3.37039 -7.66188e-20)
(1.09807 -3.27515 3.64247e-20)
(1.11134 -3.19386 5.0381e-20)
(1.12782 -3.12304 3.93746e-20)
(1.14625 -3.06 -6.70529e-20)
(1.16563 -3.00271 3.96001e-20)
(1.18518 -2.94962 -3.98504e-20)
(1.20434 -2.89956 2.81745e-20)
(1.22267 -2.85168 -4.69273e-20)
(1.23987 -2.80534 -3.55824e-20)
(1.25575 -2.76011 2.06261e-21)
(1.27017 -2.71567 -1.67832e-20)
(1.28308 -2.67181 2.98166e-20)
(1.29446 -2.62839 1.18752e-20)
(1.30433 -2.58532 -7.84568e-21)
(1.31274 -2.54256 -2.38863e-21)
(1.31975 -2.50007 9.6006e-21)
(1.32543 -2.45783 -3.18489e-20)
(1.32988 -2.4158 5.39606e-20)
(1.33315 -2.37392 -1.30538e-20)
(1.33531 -2.33211 -2.27862e-20)
(1.33648 -2.29023 4.81932e-20)
(1.33687 -2.24805 6.68442e-21)
(1.33593 -2.20547 -6.51982e-21)
(1.45234 -4.55715 1.59774e-21)
(1.32501 -4.24456 -3.05997e-20)
(1.26157 -3.98795 -2.88473e-20)
(1.22339 -3.78246 -4.71593e-20)
(1.20023 -3.6179 1.27915e-21)
(1.19018 -3.48416 -3.48094e-20)
(1.19012 -3.37379 4.12127e-20)
(1.19717 -3.28111 -2.03221e-20)
(1.20917 -3.2017 3.49333e-20)
(1.22442 -3.13217 -2.8252e-20)
(1.24158 -3.06992 -1.50323e-20)
(1.25962 -3.013 8.24232e-21)
(1.27776 -2.95993 4.49368e-21)
(1.29541 -2.90963 -4.70808e-20)
(1.31214 -2.86128 2.80223e-20)
(1.32768 -2.81431 -1.44079e-20)
(1.34181 -2.76831 4.03822e-20)
(1.35442 -2.72301 -1.35203e-20)
(1.36548 -2.67823 1.43472e-20)
(1.37497 -2.63387 3.4933e-21)
(1.38293 -2.58985 2.47098e-20)
(1.38943 -2.54616 -5.03225e-21)
(1.39453 -2.50278 4.12749e-20)
(1.39832 -2.45968 -4.59029e-20)
(1.4009 -2.41685 -1.5646e-20)
(1.40234 -2.37424 1.29913e-20)
(1.4027 -2.33177 -1.21107e-21)
(1.40211 -2.28929 -3.62524e-20)
(1.40081 -2.24657 1.88578e-20)
(1.39817 -2.20353 -2.14798e-20)
(1.57217 -4.52106 9.7802e-20)
(1.43917 -4.21843 2.67673e-20)
(1.37147 -3.96952 3.14505e-20)
(1.3302 -3.77041 4.36109e-20)
(1.30476 -3.61114 6.53711e-20)
(1.29296 -3.48165 -1.62527e-21)
(1.29146 -3.37459 9.33161e-21)
(1.29724 -3.28442 1.14818e-19)
(1.30802 -3.20683 3.35208e-20)
(1.32203 -3.13852 -2.83194e-20)
(1.3379 -3.07701 5.09887e-20)
(1.35457 -3.02041 8.94032e-21)
(1.37123 -2.96734 6.31809e-22)
(1.38731 -2.91675 1.23794e-20)
(1.40238 -2.86791 2.28705e-20)
(1.41615 -2.82029 -4.76258e-20)
(1.42845 -2.77353 4.078e-20)
(1.43918 -2.72738 7.12121e-21)
(1.4483 -2.68171 4.07815e-20)
(1.45583 -2.63643 -2.19493e-20)
(1.46181 -2.59151 3.71505e-20)
(1.46632 -2.54693 -3.95877e-20)
(1.46945 -2.5027 3.87547e-20)
(1.4713 -2.45881 5.57092e-21)
(1.47196 -2.41525 -2.61596e-20)
(1.47153 -2.37198 -8.756e-21)
(1.47006 -2.32892 5.14176e-20)
(1.4677 -2.28594 -7.69468e-21)
(1.46469 -2.24276 1.0161e-20)
(1.46034 -2.19937 -6.84968e-21)
(1.69116 -4.48193 1.04363e-20)
(1.55295 -4.18947 2.36257e-20)
(1.48137 -3.9484 9.48741e-20)
(1.4373 -3.75574 -1.54773e-19)
(1.40982 -3.60176 -1.54957e-20)
(1.39644 -3.47648 -1.65488e-20)
(1.39361 -3.3727 7.6062e-21)
(1.39818 -3.28498 1.08963e-20)
(1.40778 -3.20915 2.65132e-20)
(1.42056 -3.14201 -4.71626e-20)
(1.43511 -3.08118 -9.6205e-21)
(1.45036 -3.02487 2.73546e-20)
(1.46549 -2.97175 3.00531e-20)
(1.47993 -2.92086 -2.95966e-20)
(1.49325 -2.87152 -2.98778e-20)
(1.50519 -2.82324 4.84532e-20)
(1.51558 -2.77572 3.23693e-20)
(1.52433 -2.72874 -7.89855e-21)
(1.53144 -2.68221 -2.07584e-20)
(1.53692 -2.63605 4.08146e-21)
(1.54085 -2.59026 -4.9266e-20)
(1.54331 -2.54485 6.00621e-20)
(1.54441 -2.49983 -4.12273e-20)
(1.54426 -2.45521 -1.83052e-21)
(1.54296 -2.411 2.77801e-20)
(1.54062 -2.36714 -8.61918e-21)
(1.5373 -2.32359 -2.638e-20)
(1.53314 -2.28018 4.12434e-21)
(1.52842 -2.23664 -9.90801e-22)
(1.52237 -2.19299 5.55563e-21)
(1.80921 -4.43978 -7.16979e-21)
(1.66629 -4.15768 -2.4e-20)
(1.5912 -3.92456 -1.10204e-19)
(1.54463 -3.73838 3.97027e-20)
(1.51533 -3.5897 -1.22851e-20)
(1.50053 -3.46861 4.09769e-20)
(1.49649 -3.36804 3.2179e-21)
(1.49992 -3.28272 -4.7857e-20)
(1.50836 -3.20858 4.7551e-21)
(1.51991 -3.14256 -6.66623e-20)
(1.53312 -3.08236 -2.88468e-21)
(1.54689 -3.02628 1.67654e-20)
(1.56043 -2.97308 -2.86769e-20)
(1.57315 -2.92187 3.36107e-20)
(1.58465 -2.87202 -6.40295e-20)
(1.59466 -2.82309 -1.48472e-20)
(1.60305 -2.77482 3.9439e-20)
(1.60975 -2.72705 3.73518e-23)
(1.61476 -2.67967 -2.55802e-20)
(1.61813 -2.63268 6.99867e-20)
(1.61993 -2.58608 -3.75981e-20)
(1.62029 -2.53989 -5.09381e-20)
(1.6193 -2.49415 1.70637e-20)
(1.6171 -2.44888 -5.03004e-20)
(1.61381 -2.40408 -1.2309e-20)
(1.60952 -2.35972 -1.61744e-21)
(1.60433 -2.31576 -3.36687e-20)
(1.59836 -2.27202 4.02507e-20)
(1.59193 -2.22821 -1.44551e-20)
(1.58417 -2.1844 2.48158e-20)
(1.92625 -4.39462 -3.61324e-20)
(1.77911 -4.12305 -9.88441e-20)
(1.70089 -3.89797 4.83348e-20)
(1.65211 -3.7183 -4.67931e-20)
(1.62122 -3.5749 -3.42937e-20)
(1.60517 -3.45795 -2.01988e-20)
(1.60002 -3.36054 -7.49812e-20)
(1.60237 -3.27755 5.13343e-20)
(1.60967 -3.20505 -9.33039e-20)
(1.61997 -3.14008 -1.30852e-19)
(1.6318 -3.08046 1.67728e-20)
(1.64405 -3.02458 2.8636e-20)
(1.65593 -2.97128 -3.31483e-22)
(1.66685 -2.91973 -5.56705e-20)
(1.67644 -2.86936 1.31463e-20)
(1.68446 -2.8198 -5.19362e-20)
(1.69077 -2.77081 -3.7661e-20)
(1.69533 -2.72225 -2.29861e-20)
(1.69817 -2.67409 -4.75588e-21)
(1.69934 -2.62631 3.92192e-20)
(1.69896 -2.57895 5.65918e-20)
(1.69714 -2.53205 -1.71212e-20)
(1.69401 -2.48565 -1.6857e-20)
(1.68972 -2.4398 3.25674e-20)
(1.68439 -2.3945 1.81382e-20)
(1.67814 -2.34973 -1.44841e-20)
(1.67105 -2.30544 -1.63878e-20)
(1.66327 -2.26147 1.84008e-21)
(1.65513 -2.2175 1.47458e-20)
(1.64567 -2.17364 -2.21937e-20)
(2.04222 -4.34646 -6.94648e-21)
(1.89134 -4.08557 1.26812e-19)
(1.81037 -3.8686 9.86174e-20)
(1.75968 -3.69545 7.67879e-20)
(1.72743 -3.5573 -5.01731e-20)
(1.71027 -3.44444 -1.00152e-20)
(1.70412 -3.35013 8.80022e-21)
(1.70543 -3.2694 6.59946e-20)
(1.7116 -3.19846 2.49449e-20)
(1.72064 -3.1345 3.83837e-20)
(1.73105 -3.07542 -8.61257e-20)
(1.74172 -3.0197 8.56808e-21)
(1.75186 -2.96628 3.5437e-20)
(1.76092 -2.91438 2.22233e-20)
(1.76852 -2.8635 4.66699e-20)
(1.77445 -2.81331 -3.17386e-20)
(1.77859 -2.76362 -2.9804e-20)
(1.78094 -2.71433 5.494e-21)
(1.78153 -2.66542 6.47528e-20)
(1.78044 -2.61691 -1.04734e-19)
(1.77781 -2.56885 3.65777e-20)
(1.77376 -2.5213 -2.59391e-22)
(1.76844 -2.47433 7.04294e-20)
(1.76202 -2.42797 -3.03875e-20)
(1.75462 -2.38225 -1.60093e-21)
(1.74638 -2.33717 -1.97515e-20)
(1.73738 -2.29265 -1.74276e-20)
(1.72778 -2.24855 3.70131e-21)
(1.71793 -2.20451 -4.36436e-20)
(1.7068 -2.1607 6.73368e-20)
(2.15702 -4.29534 -1.34902e-19)
(2.00291 -4.04524 -7.75058e-20)
(1.91958 -3.83642 -1.99113e-19)
(1.86727 -3.6698 -9.1476e-20)
(1.83386 -3.53685 8.55569e-20)
(1.81575 -3.42802 -5.09403e-20)
(1.80868 -3.33674 -1.29921e-20)
(1.80901 -3.2582 -3.42389e-20)
(1.81405 -3.18877 5.85868e-20)
(1.8218 -3.12574 -5.4758e-20)
(1.83075 -3.06716 6.24493e-21)
(1.83978 -3.01158 -2.66626e-21)
(1.84812 -2.95801 -8.90798e-20)
(1.85522 -2.90577 -4.11181e-21)
(1.86075 -2.85439 2.35837e-20)
(1.86451 -2.8036 -2.92355e-21)
(1.86641 -2.75325 -9.42129e-20)
(1.86646 -2.70327 9.21473e-20)
(1.86473 -2.65366 -9.12207e-20)
(1.86132 -2.60448 3.57965e-20)
(1.85637 -2.55578 5.09951e-21)
(1.85004 -2.50766 1.98386e-21)
(1.84249 -2.46018 -3.84754e-20)
(1.83389 -2.4134 3.8903e-20)
(1.82439 -2.36736 -1.65924e-20)
(1.81414 -2.32204 1.83022e-20)
(1.80321 -2.2774 -9.84194e-20)
(1.7918 -2.23326 2.65258e-20)
(1.78025 -2.18926 2.87687e-20)
(1.76746 -2.14563 3.03974e-20)
(2.27059 -4.24127 2.64778e-19)
(2.11376 -4.00205 8.99235e-20)
(2.02844 -3.80141 5.30049e-20)
(1.97479 -3.64129 8.38999e-20)
(1.94045 -3.51349 -1.0454e-20)
(1.92153 -3.40863 6.43029e-20)
(1.91361 -3.3203 1.43717e-19)
(1.91299 -3.24387 -1.80177e-20)
(1.91691 -3.17588 8.71922e-21)
(1.92335 -3.11375 1.73388e-19)
(1.93077 -3.05562 1.62554e-19)
(1.9381 -3.00015 2.46643e-20)
(1.94456 -2.94644 -9.28269e-21)
(1.94963 -2.89385 -1.3338e-21)
(1.95301 -2.84199 1.29242e-19)
(1.95452 -2.79063 4.94965e-21)
(1.9541 -2.73965 1.39435e-19)
(1.95179 -2.68902 -1.73007e-20)
(1.94766 -2.63878 -3.06227e-20)
(1.94186 -2.58899 7.16783e-20)
(1.93454 -2.53974 -6.58933e-20)
(1.92587 -2.49111 -7.13057e-20)
(1.91604 -2.44321 -6.25357e-21)
(1.90523 -2.39609 -3.21077e-20)
(1.8936 -2.34981 4.90027e-20)
(1.88131 -2.30435 5.85298e-21)
(1.86845 -2.25969 -2.08666e-20)
(1.85523 -2.21563 1.10168e-20)
(1.84199 -2.17178 7.45746e-20)
(1.82758 -2.12843 1.08448e-20)
(2.38284 -4.18428 -4.56037e-20)
(2.22379 -3.95601 -9.09971e-20)
(2.13687 -3.76356 3.80196e-20)
(2.08219 -3.60989 -1.51386e-19)
(2.0471 -3.48718 7.26159e-20)
(2.0275 -3.3862 -1.33373e-19)
(2.01882 -3.30074 -8.85423e-20)
(2.01727 -3.22637 2.48022e-20)
(2.02006 -3.15975 2.51614e-20)
(2.02515 -3.09846 -1.20147e-19)
(2.031 -3.04075 1.83211e-20)
(2.03656 -2.98538 2.10169e-20)
(2.04106 -2.93151 -6.72393e-20)
(2.04403 -2.87859 -2.69825e-20)
(2.04517 -2.82627 -1.82649e-20)
(2.04435 -2.77437 -1.8338e-20)
(2.04154 -2.72281 -7.7818e-20)
(2.03678 -2.6716 -4.91044e-20)
(2.0302 -2.62079 -1.08679e-20)
(2.02195 -2.57045 4.02906e-20)
(2.0122 -2.52071 5.51458e-20)
(2.00115 -2.47166 -6.01014e-20)
(1.989 -2.42341 2.27687e-20)
(1.97594 -2.37604 -4.70227e-20)
(1.96216 -2.3296 4.46503e-20)
(1.94781 -2.28411 -5.86289e-20)
(1.93301 -2.23953 1.86312e-20)
(1.91797 -2.19565 -2.89568e-20)
(1.90307 -2.15207 -4.14538e-20)
(1.88707 -2.10913 -3.97308e-21)
(2.49371 -4.12438 -9.72895e-20)
(2.33296 -3.9071 -8.29127e-20)
(2.24481 -3.72284 -8.13832e-20)
(2.18936 -3.57558 -6.09554e-20)
(2.15373 -3.45788 1.86954e-19)
(2.13357 -3.36069 2.65894e-20)
(2.1242 -3.27801 8.0874e-20)
(2.12174 -3.20561 1.24437e-19)
(2.12339 -3.14031 6.04037e-20)
(2.12708 -3.07982 -8.02039e-20)
(2.13131 -3.02249 1.30622e-19)
(2.13502 -2.9672 3.76589e-20)
(2.1375 -2.91318 1.20973e-19)
(2.13828 -2.85995 1.44797e-20)
(2.13711 -2.8072 3.11589e-20)
(2.13388 -2.75481 1.02528e-20)
(2.1286 -2.70273 2.26122e-22)
(2.12134 -2.65099 -3.71274e-21)
(2.11225 -2.59966 1.72039e-20)
(2.10149 -2.54886 5.80465e-20)
(2.08926 -2.4987 -6.48803e-20)
(2.07578 -2.4493 5.19995e-20)
(2.06126 -2.40079 2.09671e-21)
(2.04592 -2.35325 2.37525e-20)
(2.02995 -2.30675 4.3629e-20)
(2.01353 -2.26132 -7.41978e-21)
(1.99678 -2.21691 4.34196e-20)
(1.97993 -2.17334 6.32168e-20)
(1.96338 -2.13014 -6.85126e-20)
(1.94582 -2.08774 -3.95942e-20)
(2.60312 -4.06162 2.86868e-19)
(2.44117 -3.85535 -3.09384e-20)
(2.35218 -3.67923 6.35386e-20)
(2.29625 -3.53831 1.16794e-19)
(2.26025 -3.42552 -3.37537e-19)
(2.23965 -3.33203 3.68598e-20)
(2.22963 -3.25206 -1.29676e-19)
(2.22628 -3.18156 1.30802e-19)
(2.22676 -3.11752 -1.04157e-19)
(2.22902 -3.05778 5.6671e-20)
(2.23157 -3.00082 -2.06165e-19)
(2.23337 -2.9456 6.96629e-21)
(2.23374 -2.89144 -2.28731e-19)
(2.23226 -2.83791 1.04819e-19)
(2.2287 -2.78478 5.36684e-20)
(2.223 -2.73194 8.28944e-20)
(2.21518 -2.67939 -9.14892e-20)
(2.20535 -2.62718 -7.77173e-21)
(2.19368 -2.57542 7.77838e-21)
(2.18036 -2.52422 2.06294e-20)
(2.16561 -2.47372 -1.1618e-19)
(2.14966 -2.42406 -3.60671e-21)
(2.13275 -2.37536 -6.53909e-20)
(2.11509 -2.32773 -1.52682e-20)
(2.09691 -2.28125 -4.03586e-20)
(2.07839 -2.23595 -4.42921e-20)
(2.05967 -2.19183 -4.64262e-20)
(2.041 -2.14867 7.66383e-20)
(2.02282 -2.10599 2.07002e-20)
(2.00374 -2.06425 -3.84049e-20)
(2.71099 -3.99603 -1.91415e-19)
(2.54836 -3.80076 6.85523e-20)
(2.45891 -3.63274 -1.17514e-19)
(2.40276 -3.49806 1.73806e-20)
(2.36658 -3.39008 1.92997e-19)
(2.34562 -3.30019 -9.79535e-20)
(2.335 -3.22283 -1.04435e-19)
(2.33076 -3.15415 -8.86518e-20)
(2.33006 -3.09132 4.01381e-21)
(2.33083 -3.0323 5.73437e-20)
(2.33163 -2.97568 -4.20896e-20)
(2.33145 -2.92054 1.49938e-21)
(2.32965 -2.86625 9.68467e-20)
(2.32583 -2.81246 6.04535e-20)
(2.31981 -2.75898 1.78188e-20)
(2.31156 -2.70575 -5.47795e-20)
(2.30114 -2.65279 2.09342e-20)
(2.28869 -2.60019 4.54944e-20)
(2.2744 -2.54806 5.21137e-20)
(2.25848 -2.49655 -5.70741e-20)
(2.24117 -2.44579 8.16438e-21)
(2.22271 -2.39593 4.93458e-20)
(2.20336 -2.34711 8.58838e-20)
(2.18336 -2.29947 2.30495e-20)
(2.16293 -2.25308 -8.91952e-20)
(2.14229 -2.20802 1.04181e-19)
(2.12158 -2.16427 -5.22106e-20)
(2.10109 -2.12163 -6.26992e-20)
(2.08128 -2.07958 -3.85752e-20)
(2.06073 -2.03864 -4.96954e-20)
(2.81724 -3.92762 1.02611e-19)
(2.65446 -3.74334 -7.92559e-20)
(2.56494 -3.58333 3.01486e-20)
(2.50882 -3.45479 1.61221e-19)
(2.47261 -3.35151 4.4194e-20)
(2.45139 -3.26511 -3.78835e-20)
(2.44021 -3.19028 9.17996e-20)
(2.43507 -3.12335 2.10756e-20)
(2.43314 -3.06167 8.80936e-20)
(2.43239 -3.00334 4.86471e-20)
(2.43138 -2.94707 2.19368e-21)
(2.42915 -2.892 3.10027e-20)
(2.42509 -2.83761 -9.82404e-21)
(2.41886 -2.78359 -8.83255e-20)
(2.41032 -2.72981 -1.24084e-20)
(2.39946 -2.67625 -2.66711e-20)
(2.38638 -2.62295 6.63594e-20)
(2.37126 -2.57003 6.76847e-20)
(2.3543 -2.51761 -7.73748e-20)
(2.33574 -2.46586 7.95908e-20)
(2.31584 -2.41491 1.70123e-19)
(2.29485 -2.36493 -1.10203e-19)
(2.27304 -2.31607 1.11423e-19)
(2.25066 -2.26847 -7.80386e-20)
(2.22796 -2.22225 -1.11903e-20)
(2.20516 -2.17747 8.47385e-20)
(2.18243 -2.13418 -1.709e-20)
(2.16009 -2.09217 6.40423e-20)
(2.13867 -2.05088 6.39407e-20)
(2.11667 -2.01089 -1.1964e-19)
(2.92182 -3.85644 -9.92399e-20)
(2.75943 -3.68311 4.5212e-20)
(2.67021 -3.53101 1.86455e-20)
(2.61434 -3.40847 -1.8959e-19)
(2.57824 -3.30977 -9.88664e-20)
(2.55683 -3.22675 7.46561e-20)
(2.54511 -3.15435 -2.08759e-19)
(2.53907 -3.08912 2.53445e-19)
(2.53589 -3.02855 -1.42808e-19)
(2.53355 -2.97088 1.70455e-20)
(2.53067 -2.91494 -2.67936e-20)
(2.52632 -2.85997 -8.30506e-20)
(2.51994 -2.8055 1.72397e-19)
(2.51123 -2.7513 6.57922e-20)
(2.5001 -2.69728 8.49078e-20)
(2.48658 -2.64345 1.94395e-21)
(2.47079 -2.58989 3.83909e-20)
(2.45295 -2.53672 -8.33356e-20)
(2.43329 -2.4841 1.76967e-20)
(2.41206 -2.43217 5.81818e-20)
(2.38954 -2.38112 -2.40957e-20)
(2.366 -2.33109 4.04639e-20)
(2.34171 -2.28225 -7.97087e-20)
(2.31693 -2.23475 1.15909e-19)
(2.29193 -2.18873 2.74097e-20)
(2.26694 -2.1443 -7.37448e-20)
(2.24216 -2.10151 -6.42499e-20)
(2.21793 -2.0602 1.7363e-23)
(2.19486 -2.01979 8.90531e-20)
(2.17144 -1.98091 -2.02163e-20)
(3.02468 -3.78252 -2.72977e-20)
(2.86322 -3.62007 -1.90776e-19)
(2.77465 -3.47576 2.27311e-19)
(2.71926 -3.35907 1.54567e-19)
(2.68338 -3.26481 1.55355e-19)
(2.66184 -3.18507 4.39866e-20)
(2.64959 -3.11503 6.57255e-20)
(2.64263 -3.05142 3.38565e-20)
(2.63815 -2.99192 -1.34183e-19)
(2.63417 -2.93491 2.46338e-19)
(2.62936 -2.8793 -2.00339e-19)
(2.62282 -2.82444 -1.34761e-20)
(2.61405 -2.76993 2.94279e-20)
(2.60281 -2.7156 -1.31607e-19)
(2.58903 -2.6614 2.07353e-19)
(2.57279 -2.60737 3.98669e-20)
(2.55426 -2.55362 -8.9174e-20)
(2.53367 -2.50029 3.47374e-20)
(2.51128 -2.44754 -6.66613e-20)
(2.48737 -2.39554 -5.91069e-20)
(2.46222 -2.34445 -6.35896e-20)
(2.43612 -2.29444 1.44656e-20)
(2.40933 -2.24567 8.54967e-21)
(2.38214 -2.19832 -1.57259e-19)
(2.35482 -2.15253 -6.02075e-20)
(2.3276 -2.10845 3.8655e-20)
(2.30071 -2.06618 4.83287e-20)
(2.27453 -2.02563 -6.67408e-20)
(2.24977 -1.98618 -2.55761e-20)
(2.22492 -1.94855 2.39576e-21)
(3.12578 -3.70589 -2.35657e-20)
(2.9658 -3.55423 1.23476e-19)
(2.87821 -3.41753 -3.49692e-20)
(2.82346 -3.30655 -4.28615e-20)
(2.78789 -3.2166 -2.42004e-19)
(2.76626 -3.14004 -5.35923e-20)
(2.7535 -3.07226 1.02158e-19)
(2.7456 -3.01024 -6.77609e-20)
(2.73979 -2.95178 -7.32888e-21)
(2.73412 -2.8954 -1.3405e-20)
(2.72731 -2.84014 7.59204e-20)
(2.71852 -2.78541 -1.20186e-19)
(2.7073 -2.73091 -8.08636e-20)
(2.69346 -2.67651 9.52736e-20)
(2.67698 -2.62219 -5.45857e-20)
(2.65798 -2.56804 2.59106e-20)
(2.63667 -2.51419 5.25555e-21)
(2.61331 -2.46079 -2.22574e-20)
(2.58818 -2.408 8.4088e-20)
(2.56158 -2.356 -7.70394e-20)
(2.5338 -2.30495 -6.25796e-20)
(2.50514 -2.25503 5.45643e-20)
(2.47588 -2.20639 -6.06566e-21)
(2.44628 -2.15921 -4.10568e-20)
(2.41663 -2.11366 3.62611e-20)
(2.38716 -2.0699 -1.13474e-19)
(2.35811 -2.02813 6.91967e-20)
(2.3299 -1.9883 -1.08644e-21)
(2.30338 -1.94984 -7.28108e-20)
(2.27709 -1.91353 1.03141e-19)
(3.22523 -3.62661 9.82826e-20)
(3.06723 -3.4856 -2.43673e-19)
(2.98083 -3.3563 -2.05246e-20)
(2.92685 -3.25085 1.14662e-19)
(2.89166 -3.16508 -2.97979e-20)
(2.86998 -3.0916 -8.43417e-20)
(2.8567 -3.02604 3.95974e-20)
(2.84784 -2.96554 4.60112e-20)
(2.84066 -2.9081 3.94512e-21)
(2.83325 -2.85236 5.69149e-20)
(2.82437 -2.79746 1.82617e-19)
(2.81327 -2.74291 -6.41415e-20)
(2.79955 -2.68847 1.6768e-20)
(2.78305 -2.63405 -4.37794e-20)
(2.76383 -2.5797 1.67666e-19)
(2.74203 -2.52552 -3.02615e-20)
(2.71792 -2.47165 4.58372e-20)
(2.69177 -2.41826 -7.68033e-20)
(2.6639 -2.36552 4.21706e-20)
(2.63461 -2.31361 6.39295e-20)
(2.60422 -2.26269 1.10101e-20)
(2.57303 -2.21293 4.32301e-20)
(2.54132 -2.16447 -3.5883e-20)
(2.50935 -2.11749 1.00045e-19)
(2.47739 -2.07216 -4.09845e-20)
(2.44567 -2.02867 1.50618e-19)
(2.41443 -1.98728 -4.34898e-20)
(2.38411 -1.94804 3.01254e-20)
(2.3557 -1.91045 -5.69635e-20)
(2.32799 -1.87548 1.00539e-19)
(3.32338 -3.5448 -2.16657e-19)
(3.1676 -3.41413 7.70812e-21)
(3.08243 -3.29196 -1.26371e-19)
(3.02927 -3.19189 2.30563e-20)
(2.99452 -3.11022 6.46333e-21)
(2.97282 -3.03975 -1.12555e-19)
(2.95904 -2.97634 -2.12114e-19)
(2.94921 -2.91733 1.06207e-19)
(2.94061 -2.86089 -1.50861e-19)
(2.9314 -2.80579 -7.99935e-20)
(2.92041 -2.75128 -4.58173e-20)
(2.90694 -2.69695 -3.69964e-20)
(2.89065 -2.64262 1.07198e-21)
(2.87146 -2.58827 -1.32243e-19)
(2.84945 -2.53396 8.74459e-20)
(2.82483 -2.47983 -1.434e-19)
(2.7979 -2.42604 -3.64612e-20)
(2.76895 -2.37277 4.20258e-20)
(2.73834 -2.32018 -1.64763e-20)
(2.70639 -2.26846 5.01382e-20)
(2.67343 -2.21776 3.85226e-20)
(2.63975 -2.16824 -9.6673e-20)
(2.60565 -2.12002 9.77041e-20)
(2.57138 -2.07327 -1.04026e-20)
(2.53718 -2.02814 -2.63127e-20)
(2.50326 -1.98481 -1.04605e-19)
(2.46981 -1.94356 -5.56977e-20)
(2.43724 -1.90449 1.03198e-19)
(2.40664 -1.86726 -3.37725e-20)
(2.3772 -1.83368 -3.27547e-20)
(3.4207 -3.46014 9.41114e-20)
(3.26695 -3.33938 8.29127e-21)
(3.18284 -3.2243 -2.48866e-20)
(3.13053 -3.12962 -5.53968e-21)
(3.09631 -3.052 -4.52355e-20)
(3.07464 -2.98449 1.5214e-19)
(3.06037 -2.92317 -7.18507e-20)
(3.04955 -2.86563 4.69278e-20)
(3.0395 -2.81017 1.94616e-20)
(3.02845 -2.75572 7.09388e-20)
(3.01529 -2.70162 -2.77091e-20)
(2.99939 -2.64756 1.5616e-19)
(2.98048 -2.59341 -1.35155e-20)
(2.95854 -2.5392 1.02122e-19)
(2.93372 -2.48503 -1.72042e-19)
(2.90626 -2.43105 -1.33257e-20)
(2.87649 -2.37744 1.11771e-19)
(2.84476 -2.32439 -6.96276e-20)
(2.81142 -2.27207 2.87267e-20)
(2.77684 -2.22064 4.93004e-20)
(2.74135 -2.17027 -7.28231e-20)
(2.70526 -2.12108 7.99158e-20)
(2.66886 -2.07321 -7.55272e-20)
(2.63241 -2.02676 1.64353e-20)
(2.59615 -1.98185 6.1181e-20)
(2.56027 -1.93863 4.25021e-20)
(2.52492 -1.89722 4.04139e-20)
(2.4903 -1.85761 2.98491e-20)
(2.45701 -1.81987 -8.05345e-20)
(2.42468 -1.78719 -3.22695e-20)
(5.01472 -0.029045 1.38659e-21)
(5.00707 -0.16094 1.37699e-20)
(4.9963 -0.291864 4.77942e-20)
(4.98238 -0.422096 2.61421e-20)
(4.96512 -0.551696 -5.52136e-20)
(4.94443 -0.68063 1.6727e-20)
(4.92034 -0.808831 -1.75378e-20)
(4.89286 -0.936221 -4.42591e-20)
(4.86202 -1.06271 2.28772e-20)
(4.82785 -1.18822 -2.68399e-20)
(4.79039 -1.31266 -2.71209e-20)
(4.74967 -1.43593 -5.72242e-20)
(4.70575 -1.55797 -1.63829e-19)
(4.65865 -1.67868 1.51564e-20)
(4.60843 -1.79798 -7.4865e-21)
(4.55513 -1.9158 -5.09609e-20)
(4.4988 -2.03205 1.09468e-19)
(4.43949 -2.14667 5.92478e-20)
(4.37726 -2.25957 1.13457e-19)
(4.31216 -2.37068 5.5414e-20)
(4.24425 -2.47995 -1.23655e-19)
(4.17357 -2.58728 4.93717e-21)
(4.1002 -2.69263 -2.33212e-19)
(4.02419 -2.79593 3.5376e-19)
(3.94561 -2.89712 -1.16036e-19)
(3.86451 -2.99615 -1.49273e-19)
(3.78098 -3.09297 -2.10049e-20)
(3.69508 -3.18755 -1.29298e-21)
(3.60691 -3.27999 -1.12011e-19)
(3.51643 -3.37064 1.99256e-19)
(5.04656 -0.0580634 5.50663e-21)
(5.03299 -0.19022 8.14725e-21)
(5.01571 -0.321259 2.04342e-21)