/*--------------------------------*- C++ -*----------------------------------*\
  =========                 |
  \\      /  F ield         | OpenFOAM: The Open Source CFD Toolbox
   \\    /   O peration     | Website:  https://openfoam.org
    \\  /    A nd           | Version:  6.0
     \\/     M anipulation  |
\*---------------------------------------------------------------------------*/
FoamFile
{
    version     2.0;
    format      ascii;
    class       volScalarField;
    location    "8.75";
    object      p;
}
// * * * * * * * * * * * * * * * * * * * * * * * * * * * * * * * * * * * * * //

dimensions      [0 2 -2 0 0 0 0];

internalField   nonuniform List<scalar> 
19200
(
-38.5262
-34.9308
-32.2958
-30.1122
-28.0967
-26.2459
-24.5457
-22.974
-21.516
-20.161
-18.9002
-17.7266
-16.6337
-15.6161
-14.6684
-13.786
-12.9643
-12.1991
-11.4863
-10.8222
-10.2032
-9.62604
-9.08759
-8.585
-8.11561
-7.67702
-7.26701
-6.88347
-6.52451
-6.18973
-38.8523
-35.2609
-32.6211
-30.4278
-28.4006
-26.5371
-24.8236
-23.2389
-21.7682
-20.401
-19.1288
-17.9446
-16.8419
-15.8152
-14.8593
-13.9693
-13.1408
-12.3693
-11.6508
-10.9814
-10.3577
-9.77607
-9.23354
-8.72716
-8.25423
-7.81232
-7.39919
-7.01264
-6.65066
-6.3137
-39.185
-35.5917
-32.9459
-30.7429
-28.7039
-26.8275
-25.1009
-23.503
-22.0195
-20.6402
-19.3567
-18.1618
-17.0493
-16.0137
-15.0495
-14.1521
-13.3167
-12.539
-11.8148
-11.1403
-10.5118
-9.92583
-9.37926
-8.86911
-8.39267
-7.94747
-7.53124
-7.14167
-6.77668
-6.43759
-39.5212
-35.9237
-33.2707
-31.0575
-29.0065
-27.1171
-25.3772
-23.7662
-22.2699
-20.8785
-19.5835
-18.3781
-17.2559
-16.2113
-15.239
-14.3341
-13.492
-12.7081
-11.9783
-11.2987
-10.6655
-10.0752
-9.52459
-9.01072
-8.5308
-8.08233
-7.66302
-7.27045
-6.90246
-6.56132
-39.8591
-36.2565
-33.5954
-31.3716
-29.3083
-27.4058
-25.6525
-24.0282
-22.5192
-21.1156
-19.8093
-18.5933
-17.4614
-16.4079
-15.4275
-14.5153
-13.6664
-12.8765
-12.1411
-11.4564
-10.8185
-10.224
-9.66945
-9.1519
-8.66854
-8.21684
-7.79447
-7.39891
-7.02794
-6.68481
-40.1978
-36.5895
-33.9198
-31.6851
-29.6092
-27.6935
-25.9267
-24.2891
-22.7672
-21.3515
-20.0338
-18.8073
-17.6657
-16.6034
-15.615
-14.6955
-13.84
-13.044
-12.3032
-11.6134
-10.971
-10.3722
-9.81374
-9.29255
-8.80579
-8.35089
-7.92549
-7.52695
-7.15303
-6.80798
-40.5364
-36.9224
-34.2436
-31.9976
-29.9091
-27.9799
-26.1995
-24.5485
-23.0138
-21.5859
-20.2569
-19.0199
-17.8687
-16.7977
-15.8013
-14.8745
-14.0125
-13.2105
-12.4643
-11.7696
-11.1226
-10.5196
-9.95734
-9.43257
-8.94244
-8.48438
-8.05599
-7.65451
-7.27766
-6.93075
-40.8747
-37.2546
-34.5666
-32.3092
-30.2078
-28.265
-26.4708
-24.8064
-23.2588
-21.8187
-20.4784
-19.231
-18.0703
-16.9905
-15.9862
-15.0523
-14.1837
-13.3759
-12.6243
-11.9247
-11.2733
-10.6662
-10.1001
-9.57184
-9.07841
-8.61723
-8.18589
-7.78148
-7.40173
-7.05306
-41.2122
-37.586
-34.8886
-32.6194
-30.5049
-28.5484
-26.7404
-25.0625
-23.502
-22.0498
-20.6982
-19.4404
-18.2702
-17.1818
-16.1697
-15.2287
-14.3537
-13.54
-12.7832
-12.0788
-11.423
-10.8119
-10.242
-9.71026
-9.21358
-8.74934
-8.31508
-7.90778
-7.52517
-7.17481
-41.5485
-37.9161
-35.2091
-32.9281
-30.8003
-28.83
-27.0081
-25.3166
-23.7432
-22.2789
-20.916
-19.6479
-18.4683
-17.3713
-16.3515
-15.4034
-14.5222
-13.7028
-12.9407
-12.2316
-11.5714
-10.9564
-10.3829
-9.84772
-9.34784
-8.8806
-8.44347
-8.03333
-7.64789
-7.29594
-41.8834
-38.2448
-35.528
-33.235
-31.0939
-29.1095
-27.2737
-25.5686
-23.9823
-22.5058
-21.1318
-19.8534
-18.6644
-17.559
-16.5315
-15.5765
-14.689
-13.864
-13.0968
-12.3831
-11.7186
-11.0997
-10.5226
-9.98409
-9.48108
-9.0109
-8.57096
-8.15802
-7.76981
-7.41635
-42.2166
-38.5717
-35.845
-33.5398
-31.3852
-29.3869
-27.537
-25.8183
-24.219
-22.7305
-21.3453
-20.0567
-18.8584
-17.7446
-16.7095
-15.7478
-14.8541
-14.0235
-13.2513
-12.533
-11.8644
-11.2416
-10.661
-10.1193
-9.61319
-9.14012
-8.69744
-8.28176
-7.89082
-7.53595
-42.5478
-38.8965
-36.1599
-33.8424
-31.6742
-29.6617
-27.7977
-26.0654
-24.4532
-22.9526
-21.5563
-20.2576
-19.0501
-17.928
-16.8854
-15.9169
-15.0172
-14.1812
-13.404
-12.6812
-12.0086
-11.3821
-10.798
-10.2531
-9.74402
-9.26815
-8.8228
-8.40443
-8.01082
-7.65467
-42.8768
-39.219
-36.4724
-34.1425
-31.9606
-29.9339
-28.0558
-26.3098
-24.6847
-23.1721
-21.7647
-20.4559
-19.2394
-18.109
-17.0591
-16.084
-15.1782
-14.3368
-13.5548
-12.8276
-12.151
-11.5208
-10.9335
-10.3854
-9.87344
-9.39485
-8.94691
-8.52592
-8.12972
-7.77238
-43.2034
-39.5391
-36.7823
-34.4399
-32.2442
-30.2032
-28.3109
-26.5513
-24.9132
-23.3887
-21.9703
-20.6516
-19.426
-18.2875
-17.2303
-16.2486
-15.337
-14.4903
-13.7035
-12.9721
-12.2915
-11.6578
-11.0671
-10.516
-10.0013
-9.52007
-9.06962
-8.64609
-8.24737
-7.88897
-43.5272
-39.8564
-37.0893
-34.7343
-32.5247
-30.4694
-28.5629
-26.7896
-25.1387
-23.6022
-22.173
-20.8443
-19.6098
-18.4633
-17.3988
-16.4107
-15.4933
-14.6414
-13.85
-13.1143
-12.4299
-11.7927
-11.1989
-10.6449
-10.1274
-9.64365
-9.19077
-8.7648
-8.36364
-8.00432
-43.8482
-40.1708
-37.3933
-35.0256
-32.802
-30.7322
-28.8115
-27.0246
-25.3608
-23.8125
-22.3724
-21.0339
-19.7905
-18.6361
-17.5646
-16.5701
-15.647
-14.79
-13.994
-13.2542
-12.5661
-11.9255
-11.3286
-10.7717
-10.2516
-9.76538
-9.3102
-8.88187
-8.47837
-8.11826
-44.166
-40.482
-37.6941
-35.3135
-33.0758
-30.9916
-29.0566
-27.256
-25.5795
-24.0194
-22.5685
-21.2203
-19.9682
-18.8059
-17.7273
-16.7266
-15.7979
-14.9359
-14.1354
-13.3915
-12.6997
-12.0558
-11.4559
-10.8963
-10.3736
-9.88508
-9.42768
-8.9971
-8.59136
-8.2306
-44.4807
-40.7899
-37.9915
-35.5979
-33.346
-31.2473
-29.298
-27.4838
-25.7945
-24.2226
-22.7611
-21.4032
-20.1424
-18.9724
-17.8869
-16.88
-15.9458
-15.0789
-14.2739
-13.5261
-12.8307
-12.1836
-11.5807
-11.0184
-10.4933
-10.0025
-9.54298
-9.11026
-8.70237
-8.34111
-44.792
-41.0944
-38.2852
-35.8786
-33.6124
-31.499
-29.5355
-27.7076
-26.0056
-24.4221
-22.9499
-21.5825
-20.3132
-19.1355
-18.0432
-17.0302
-16.0906
-15.2188
-14.4095
-13.6577
-12.9588
-12.3085
-11.7027
-11.1378
-10.6103
-10.1173
-9.65582
-9.22107
-8.81114
-8.44953
-45.0998
-41.3953
-38.5752
-36.1553
-33.8747
-31.7467
-29.7688
-27.9273
-26.2127
-24.6176
-23.1349
-21.758
-20.4802
-19.295
-18.196
-17.177
-16.232
-15.3554
-14.5417
-13.7861
-13.0837
-12.4302
-11.8216
-11.2542
-10.7244
-10.2293
-9.76588
-9.32919
-8.91731
-8.5555
-45.4043
-41.6925
-38.8613
-36.4279
-34.1328
-31.99
-29.9978
-28.1428
-26.4156
-24.8089
-23.3159
-21.9296
-20.6435
-19.4508
-18.3451
-17.3202
-16.3699
-15.4885
-14.6706
-13.9111
-13.2053
-12.5487
-11.9373
-11.3673
-10.8352
-10.3381
-9.87279
-9.43425
-9.0205
-8.65858
-45.7054
-41.9859
-39.1433
-36.6962
-34.3864
-32.2289
-30.2224
-28.3538
-26.6141
-24.996
-23.4927
-22.0972
-20.8027
-19.6027
-18.4905
-17.4596
-16.5041
-15.618
-14.7959
-14.0326
-13.3233
-12.6635
-12.0493
-11.4767
-10.9424
-10.4433
-9.97616
-9.53582
-9.12023
-8.75827
-46.0033
-42.2755
-39.4211
-36.9601
-34.6354
-32.4631
-30.4422
-28.5602
-26.808
-25.1787
-23.6651
-22.2605
-20.9579
-19.7506
-18.6319
-17.5953
-16.6346
-15.7438
-14.9174
-14.1503
-13.4375
-12.7746
-12.1575
-11.5823
-11.0456
-10.5444
-10.0755
-9.6334
-9.21598
-8.85415
-46.2983
-42.5612
-39.6944
-37.2192
-34.8795
-32.6923
-30.6571
-28.7617
-26.9973
-25.3567
-23.8331
-22.4195
-21.1089
-19.8944
-18.7693
-17.727
-16.7611
-15.8657
-15.0351
-14.2641
-13.5477
-12.8816
-12.2615
-11.6836
-11.1445
-10.6411
-10.1703
-9.72634
-9.30708
-8.9455
-46.5906
-42.8426
-39.963
-37.4733
-35.1185
-32.9163
-30.8669
-28.9582
-27.1816
-25.53
-23.9965
-22.5741
-21.2556
-20.0341
-18.9027
-17.8547
-16.8838
-15.9837
-15.1488
-14.3739
-13.654
-12.9845
-12.3613
-11.7805
-11.2388
-10.733
-10.26
-9.81398
-9.39269
-9.0307
-46.8813
-43.1199
-40.2265
-37.7221
-35.352
-33.1348
-31.0713
-29.1495
-27.3609
-25.6985
-24.1553
-22.7242
-21.398
-20.1696
-19.032
-17.9785
-17.0025
-16.0978
-15.2587
-14.4798
-13.7561
-13.0832
-12.4567
-11.8728
-11.3282
-10.8197
-10.3443
-9.89613
-9.47218
-9.10827
-47.1749
-43.3943
-40.4846
-37.9647
-35.5793
-33.3473
-31.2698
-29.3352
-27.5348
-25.8618
-24.3091
-22.8696
-21.5359
-20.3008
-19.1572
-18.0982
-17.1172
-16.208
-15.3646
-14.5818
-13.8543
-13.1777
-12.5477
-11.9605
-11.4126
-10.9011
-10.4231
-9.97221
-9.54492
-9.18081
-47.4747
-43.6655
-40.7356
-38.2001
-35.7997
-33.5534
-31.4624
-29.5152
-27.7034
-26.0201
-24.4582
-23.0104
-21.6693
-20.4277
-19.2783
-18.214
-17.2282
-16.3144
-15.4669
-14.68
-13.9487
-13.2683
-12.6345
-12.0435
-11.4917
-10.9764
-10.4942
-10.0385
-9.6081
-9.25175
-47.7571
-43.924
-40.9771
-38.4278
-36.0139
-33.7539
-31.6498
-29.6904
-27.8674
-26.174
-24.603
-23.1472
-21.799
-20.551
-19.3959
-18.3264
-17.3358
-16.4177
-15.566
-14.7752
-14.04
-13.3557
-12.718
-12.1228
-11.5665
-11.046
-10.5568
-10.0931
-9.66079
-9.3056
-51.8449
-51.8287
-51.7943
-51.7562
-51.7128
-51.6612
-51.6008
-51.5314
-51.4531
-51.3658
-51.2694
-51.1639
-51.0496
-50.9264
-50.7946
-50.6543
-50.5057
-50.349
-50.1844
-50.0121
-49.8323
-49.6454
-49.4515
-49.2511
-49.0446
-48.8325
-48.6157
-48.3957
-48.1756
-47.96
-47.8612
-47.8595
-47.8427
-47.8168
-47.7821
-47.7379
-47.6841
-47.621
-47.5485
-47.4669
-47.3762
-47.2765
-47.1679
-47.0506
-46.9247
-46.7904
-46.6479
-46.4973
-46.3388
-46.1728
-45.9993
-45.8187
-45.6311
-45.437
-45.2366
-45.0304
-44.8189
-44.6027
-44.3824
-44.1566
-44.6581
-44.6666
-44.6622
-44.6467
-44.6211
-44.5855
-44.5403
-44.4856
-44.4217
-44.3485
-44.2664
-44.1754
-44.0755
-43.9671
-43.8502
-43.7251
-43.5918
-43.4505
-43.3015
-43.145
-42.9811
-42.81
-42.632
-42.4474
-42.2564
-42.0591
-41.8559
-41.6467
-41.4313
-41.2085
-41.8091
-41.8246
-41.8289
-41.8222
-41.8053
-41.7786
-41.7423
-41.6968
-41.6421
-41.5783
-41.5057
-41.4244
-41.3345
-41.2361
-41.1295
-41.0148
-40.892
-40.7615
-40.6234
-40.4779
-40.3251
-40.1652
-39.9985
-39.825
-39.6451
-39.4587
-39.266
-39.0669
-38.8612
-38.6485
-39.0917
-39.1128
-39.1239
-39.1247
-39.1156
-39.0969
-39.069
-39.032
-38.9861
-38.9314
-38.868
-38.7962
-38.7161
-38.6278
-38.5314
-38.4272
-38.3152
-38.1956
-38.0686
-37.9344
-37.793
-37.6448
-37.4897
-37.3281
-37.1599
-36.9853
-36.8043
-36.6169
-36.4229
-36.2222
-36.5465
-36.5719
-36.5883
-36.595
-36.5922
-36.5802
-36.5593
-36.5297
-36.4915
-36.4448
-36.3898
-36.3267
-36.2555
-36.1764
-36.0896
-35.9951
-35.8932
-35.784
-35.6676
-35.5442
-35.4139
-35.2769
-35.1333
-34.9832
-34.8267
-34.6639
-34.4948
-34.3194
-34.1376
-33.9493
-34.1869
-34.2154
-34.2355
-34.2465
-34.2485
-34.2417
-34.2265
-34.2029
-34.171
-34.1311
-34.0832
-34.0274
-33.964
-33.893
-33.8146
-33.7289
-33.636
-33.5361
-33.4293
-33.3158
-33.1957
-33.0691
-32.9361
-32.7968
-32.6514
-32.4999
-32.3422
-32.1785
-32.0086
-31.8325
-32.0066
-32.0369
-32.0593
-32.0732
-32.0786
-32.0757
-32.0647
-32.0457
-32.0188
-31.9843
-31.9421
-31.8925
-31.8356
-31.7714
-31.7001
-31.6219
-31.5368
-31.445
-31.3467
-31.2419
-31.1308
-31.0135
-30.8901
-30.7607
-30.6254
-30.4842
-30.3372
-30.1844
-30.0257
-29.8612
-29.9977
-30.0287
-30.0523
-30.0679
-30.0754
-30.0751
-30.0671
-30.0515
-30.0284
-29.998
-29.9603
-29.9156
-29.8638
-29.8052
-29.7398
-29.6678
-29.5893
-29.5045
-29.4134
-29.3161
-29.2129
-29.1037
-28.9888
-28.8681
-28.7418
-28.61
-28.4726
-28.3296
-28.1812
-28.0273
-28.1507
-28.1816
-28.2055
-28.2218
-28.2305
-28.2317
-28.2256
-28.2123
-28.192
-28.1646
-28.1303
-28.0893
-28.0416
-27.9874
-27.9268
-27.8599
-27.7869
-27.7077
-27.6227
-27.5318
-27.4353
-27.3331
-27.2255
-27.1125
-26.9941
-26.8705
-26.7417
-26.6076
-26.4684
-26.324
-26.4547
-26.4849
-26.5084
-26.5246
-26.5336
-26.5356
-26.5306
-26.5188
-26.5002
-26.475
-26.4432
-26.405
-26.3605
-26.3097
-26.2529
-26.19
-26.1214
-26.047
-25.9669
-25.8814
-25.7905
-25.6943
-25.593
-25.4865
-25.3751
-25.2587
-25.1374
-25.0112
-24.8801
-24.7442
-24.898
-24.927
-24.9495
-24.9652
-24.974
-24.9761
-24.9716
-24.9606
-24.9431
-24.9193
-24.8892
-24.853
-24.8108
-24.7627
-24.7088
-24.6492
-24.5841
-24.5135
-24.4376
-24.3565
-24.2703
-24.1792
-24.0832
-23.9824
-23.8769
-23.7668
-23.652
-23.5327
-23.4089
-23.2805
-23.4689
-23.4963
-23.5176
-23.5323
-23.5405
-23.5423
-23.5378
-23.527
-23.5101
-23.4872
-23.4582
-23.4235
-23.383
-23.3369
-23.2852
-23.2282
-23.1658
-23.0983
-23.0258
-22.9484
-22.8662
-22.7792
-22.6877
-22.5918
-22.4914
-22.3867
-22.2778
-22.1645
-22.0471
-21.9254
-22.1559
-22.1816
-22.2015
-22.215
-22.2223
-22.2234
-22.2186
-22.2077
-22.191
-22.1685
-22.1403
-22.1065
-22.0672
-22.0225
-21.9726
-21.9176
-21.8575
-21.7925
-21.7227
-21.6483
-21.5693
-21.486
-21.3983
-21.3065
-21.2105
-21.1106
-21.0066
-20.8988
-20.7869
-20.6712
-20.9484
-20.9723
-20.9905
-21.0027
-21.0089
-21.0093
-21.0038
-20.9926
-20.9758
-20.9534
-20.9256
-20.8924
-20.854
-20.8104
-20.7618
-20.7083
-20.65
-20.587
-20.5195
-20.4476
-20.3714
-20.291
-20.2067
-20.1184
-20.0262
-19.9304
-19.8309
-19.7277
-19.6209
-19.5104
-19.8362
-19.8583
-19.8749
-19.8857
-19.8908
-19.8902
-19.884
-19.8724
-19.8553
-19.8328
-19.8052
-19.7724
-19.7345
-19.6918
-19.6442
-19.5918
-19.535
-19.4736
-19.408
-19.3381
-19.2642
-19.1864
-19.1048
-19.0196
-18.9308
-18.8385
-18.7429
-18.644
-18.5416
-18.4359
-18.8104
-18.8307
-18.8457
-18.8551
-18.859
-18.8574
-18.8504
-18.8382
-18.8207
-18.7981
-18.7704
-18.7378
-18.7004
-18.6582
-18.6113
-18.56
-18.5043
-18.4443
-18.3802
-18.3121
-18.2401
-18.1645
-18.0853
-18.0027
-17.9168
-17.8277
-17.7356
-17.6404
-17.5421
-17.4407
-17.8626
-17.8812
-17.8947
-17.9027
-17.9054
-17.9028
-17.895
-17.8821
-17.8642
-17.8413
-17.8136
-17.781
-17.7438
-17.7021
-17.6558
-17.6053
-17.5505
-17.4916
-17.4288
-17.3622
-17.2919
-17.2181
-17.141
-17.0607
-16.9774
-16.8911
-16.8021
-16.7103
-16.6157
-16.5184
-16.9855
-17.0024
-17.0144
-17.0211
-17.0226
-17.019
-17.0105
-16.9969
-16.9785
-16.9553
-16.9274
-16.8949
-16.8579
-16.8164
-16.7707
-16.7208
-16.6668
-16.6088
-16.5471
-16.4817
-16.4129
-16.3407
-16.2654
-16.1871
-16.1061
-16.0223
-15.9361
-15.8474
-15.7563
-15.6627
-16.1722
-16.1876
-16.1982
-16.2036
-16.2041
-16.1996
-16.1902
-16.1761
-16.1572
-16.1337
-16.1056
-16.0731
-16.0361
-15.9949
-15.9496
-15.9002
-15.8468
-15.7897
-15.7289
-15.6647
-15.5971
-15.5263
-15.4526
-15.3761
-15.297
-15.2155
-15.1318
-15.046
-14.9581
-14.868
-15.4169
-15.4309
-15.4401
-15.4444
-15.4438
-15.4385
-15.4284
-15.4136
-15.3943
-15.3705
-15.3422
-15.3096
-15.2728
-15.2318
-15.1868
-15.1378
-15.0851
-15.0287
-14.9687
-14.9054
-14.8389
-14.7693
-14.697
-14.622
-14.5447
-14.4653
-14.3838
-14.3007
-14.2158
-14.129
-14.7143
-14.727
-14.7349
-14.7381
-14.7366
-14.7304
-14.7197
-14.7044
-14.6846
-14.6605
-14.632
-14.5994
-14.5626
-14.5218
-14.4771
-14.4285
-14.3763
-14.3205
-14.2613
-14.1988
-14.1333
-14.0648
-13.9937
-13.9201
-13.8443
-13.7666
-13.6873
-13.6065
-13.5245
-13.441
-14.0596
-14.071
-14.0779
-14.08
-14.0776
-14.0707
-14.0593
-14.0435
-14.0234
-13.999
-13.9704
-13.9377
-13.9009
-13.8603
-13.8159
-13.7677
-13.7159
-13.6607
-13.6022
-13.5404
-13.4757
-13.4082
-13.3381
-13.2656
-13.1912
-13.115
-13.0376
-12.959
-12.8797
-12.7995
-13.4486
-13.4588
-13.4646
-13.4659
-13.4627
-13.4551
-13.4431
-13.4269
-13.4064
-13.3817
-13.353
-13.3202
-13.2836
-13.2431
-13.1989
-13.1511
-13.0998
-13.0451
-12.9871
-12.9261
-12.8621
-12.7954
-12.7261
-12.6547
-12.5814
-12.5065
-12.4306
-12.3541
-12.2773
-12.2004
-12.8775
-12.8867
-12.8915
-12.892
-12.888
-12.8798
-12.8673
-12.8506
-12.8298
-12.8049
-12.7761
-12.7433
-12.7068
-12.6664
-12.6225
-12.575
-12.5241
-12.4699
-12.4124
-12.352
-12.2886
-12.2226
-12.1542
-12.0835
-12.0111
-11.9373
-11.8627
-11.7879
-11.7135
-11.6399
-12.343
-12.3512
-12.3551
-12.3547
-12.3501
-12.3413
-12.3283
-12.3113
-12.2902
-12.2651
-12.2362
-12.2034
-12.1669
-12.1268
-12.083
-12.0358
-11.9853
-11.9315
-11.8746
-11.8146
-11.7519
-11.6864
-11.6186
-11.5486
-11.4768
-11.4038
-11.3301
-11.2567
-11.1844
-11.1142
-11.842
-11.8493
-11.8524
-11.8513
-11.846
-11.8366
-11.8232
-11.8058
-11.7844
-11.7592
-11.7301
-11.6973
-11.6608
-11.6208
-11.5772
-11.5303
-11.4801
-11.4266
-11.3701
-11.3106
-11.2482
-11.1832
-11.1158
-11.0462
-10.9748
-10.9022
-10.829
-10.7564
-10.6854
-10.6185
-11.3719
-11.3784
-11.3809
-11.3792
-11.3734
-11.3637
-11.3499
-11.3322
-11.3107
-11.2853
-11.2562
-11.2234
-11.1871
-11.1472
-11.1038
-11.0571
-11.0072
-10.9541
-10.8979
-10.8388
-10.7768
-10.7122
-10.6451
-10.5758
-10.5045
-10.4319
-10.3587
-10.2864
-10.216
-10.1513
-10.9299
-10.936
-10.9382
-10.9363
-10.9305
-10.9207
-10.907
-10.8894
-10.8681
-10.843
-10.8143
-10.782
-10.7461
-10.7068
-10.6642
-10.6182
-10.569
-10.5168
-10.4615
-10.4033
-10.3422
-10.2785
-10.2123
-10.1438
-10.0732
-10.001
-9.92801
-9.85623
-9.78669
-9.7266
-10.5142
-10.5189
-10.5198
-10.5168
-10.51
-10.4993
-10.485
-10.467
-10.4453
-10.4201
-10.3914
-10.3592
-10.3236
-10.2848
-10.2427
-10.1974
-10.1491
-10.0978
-10.0435
-9.98646
-9.92667
-9.86423
-9.79927
-9.73193
-9.66238
-9.59099
-9.51816
-9.44588
-9.37443
-9.32634
-46.9319
-47.2142
-47.4757
-47.7412
-48.007
-48.2683
-48.5231
-48.771
-49.0114
-49.2435
-49.4669
-49.6811
-49.8859
-50.0809
-50.266
-50.4409
-50.6054
-50.7595
-50.9031
-51.036
-51.1582
-51.2697
-51.3706
-51.4608
-51.5407
-51.6103
-51.6701
-51.7211
-51.7651
-51.8047
-42.8974
-43.1943
-43.476
-43.7522
-44.023
-44.2868
-44.5429
-44.7913
-45.0315
-45.2634
-45.4866
-45.7007
-45.9054
-46.1006
-46.2861
-46.4616
-46.627
-46.7822
-46.927
-47.0614
-47.1854
-47.2989
-47.4019
-47.4944
-47.5767
-47.6488
-47.7109
-47.7634
-47.8066
-47.8394
-39.6533
-39.9524
-40.2403
-40.5191
-40.7902
-41.0535
-41.309
-41.5565
-41.7959
-42.027
-42.2496
-42.4633
-42.6679
-42.8633
-43.0492
-43.2255
-43.392
-43.5486
-43.6952
-43.8318
-43.9581
-44.0743
-44.1803
-44.2762
-44.3618
-44.4373
-44.5027
-44.558
-44.6029
-44.6364
-36.8011
-37.095
-37.3801
-37.6562
-37.9243
-38.1847
-38.4375
-38.6824
-38.9194
-39.1483
-39.3688
-39.5808
-39.7841
-39.9784
-40.1637
-40.3398
-40.5064
-40.6636
-40.8111
-40.949
-41.0771
-41.1954
-41.3038
-41.4024
-41.491
-41.5697
-41.6384
-41.697
-41.7453
-41.7828
-34.1258
-34.4113
-34.6899
-34.9605
-35.2233
-35.4787
-35.7266
-35.967
-36.1997
-36.4246
-36.6415
-36.8502
-37.0505
-37.2423
-37.4255
-37.5998
-37.7652
-37.9214
-38.0686
-38.2064
-38.3349
-38.454
-38.5637
-38.6638
-38.7544
-38.8354
-38.9067
-38.9682
-39.0197
-39.0611
-31.665
-31.9409
-32.211
-32.4739
-32.7295
-32.9781
-33.2195
-33.4537
-33.6806
-33.8999
-34.1117
-34.3156
-34.5115
-34.6994
-34.879
-35.0501
-35.2128
-35.3668
-35.5121
-35.6485
-35.7761
-35.8946
-36.0042
-36.1046
-36.1959
-36.278
-36.3508
-36.4142
-36.4681
-36.5124
-29.4246
-29.6902
-29.9508
-30.2047
-30.4519
-30.6923
-30.926
-31.1529
-31.3728
-31.5855
-31.791
-31.989
-32.1794
-32.3621
-32.5369
-32.7038
-32.8625
-33.013
-33.1553
-33.2891
-33.4144
-33.5312
-33.6394
-33.7389
-33.8297
-33.9117
-33.9849
-34.0491
-34.1043
-34.1504
-27.3893
-27.6444
-27.8948
-28.1392
-28.3772
-28.6088
-28.8342
-29.053
-29.2651
-29.4705
-29.6689
-29.8602
-30.0443
-30.221
-30.3903
-30.5519
-30.7059
-30.852
-30.9902
-31.1204
-31.2425
-31.3566
-31.4624
-31.5599
-31.6492
-31.7301
-31.8025
-31.8665
-31.9219
-31.9688
-25.5424
-25.787
-26.0272
-26.2617
-26.4903
-26.7129
-26.9295
-27.1399
-27.344
-27.5416
-27.7325
-27.9167
-28.094
-28.2643
-28.4274
-28.5833
-28.7318
-28.8729
-29.0064
-29.1323
-29.2505
-29.361
-29.4637
-29.5585
-29.6454
-29.7243
-29.7952
-29.8581
-29.9129
-29.9595
-23.8668
-24.1011
-24.3312
-24.556
-24.7753
-24.9889
-25.1967
-25.3987
-25.5946
-25.7843
-25.9677
-26.1446
-26.3149
-26.4784
-26.6352
-26.785
-26.9277
-27.0634
-27.1918
-27.313
-27.4268
-27.5333
-27.6323
-27.7238
-27.8077
-27.8841
-27.9528
-28.0139
-28.0673
-28.1131
-22.3452
-22.5696
-22.7901
-23.0056
-23.2157
-23.4205
-23.6199
-23.8136
-24.0015
-24.1834
-24.3592
-24.5289
-24.6921
-24.849
-24.9993
-25.1429
-25.2798
-25.4099
-25.533
-25.6493
-25.7585
-25.8606
-25.9556
-26.0434
-26.124
-26.1974
-26.2635
-26.3224
-26.3739
-26.4182
-20.9614
-21.1765
-21.3878
-21.5943
-21.7958
-21.9922
-22.1833
-22.3691
-22.5492
-22.7236
-22.8921
-23.0547
-23.2111
-23.3614
-23.5053
-23.6428
-23.7739
-23.8984
-24.0163
-24.1275
-24.232
-24.3297
-24.4205
-24.5045
-24.5816
-24.6518
-24.715
-24.7713
-24.8206
-24.863
-19.7003
-19.9067
-20.1093
-20.3074
-20.5008
-20.6892
-20.8725
-21.0507
-21.2234
-21.3906
-21.5522
-21.7079
-21.8578
-22.0017
-22.1395
-22.2711
-22.3965
-22.5155
-22.6282
-22.7345
-22.8342
-22.9275
-23.0142
-23.0943
-23.1678
-23.2347
-23.2949
-23.3485
-23.3953
-23.4356
-18.5485
-18.7467
-18.9413
-19.1315
-19.3171
-19.4981
-19.6741
-19.8451
-20.0109
-20.1713
-20.3262
-20.4755
-20.6191
-20.7569
-20.8888
-21.0148
-21.1347
-21.2485
-21.3562
-21.4577
-21.5529
-21.6418
-21.7245
-21.8008
-21.8707
-21.9342
-21.9914
-22.0422
-22.0865
-22.1246
-17.4939
-17.6845
-17.8715
-18.0544
-18.2329
-18.4069
-18.5761
-18.7404
-18.8996
-19.0536
-19.2023
-19.3456
-19.4833
-19.6153
-19.7417
-19.8622
-19.9769
-20.0858
-20.1886
-20.2855
-20.3764
-20.4612
-20.5399
-20.6124
-20.6789
-20.7392
-20.7934
-20.8414
-20.8832
-20.919
-16.5259
-16.7094
-16.8896
-17.0657
-17.2375
-17.405
-17.5678
-17.7259
-17.879
-18.0271
-18.1699
-18.3074
-18.4395
-18.5662
-18.6873
-18.8028
-18.9126
-19.0167
-19.115
-19.2076
-19.2943
-19.3751
-19.45
-19.5191
-19.5822
-19.6394
-19.6906
-19.7359
-19.7753
-19.8088
-15.6353
-15.8123
-15.986
-16.1558
-16.3215
-16.483
-16.6399
-16.7922
-16.9396
-17.0821
-17.2194
-17.3516
-17.4785
-17.6001
-17.7163
-17.827
-17.9322
-18.0318
-18.1259
-18.2143
-18.2971
-18.3742
-18.4456
-18.5112
-18.5712
-18.6254
-18.6739
-18.7166
-18.7536
-18.785
-14.8141
-14.9849
-15.1526
-15.3167
-15.4768
-15.6326
-15.7841
-15.931
-16.0731
-16.2103
-16.3426
-16.4698
-16.5918
-16.7086
-16.8202
-16.9264
-17.0273
-17.1227
-17.2128
-17.2974
-17.3764
-17.45
-17.518
-17.5805
-17.6375
-17.6889
-17.7347
-17.775
-17.8098
-17.8391
-14.055
-14.2202
-14.3824
-14.5411
-14.696
-14.8467
-14.9931
-15.135
-15.2722
-15.4045
-15.532
-15.6545
-15.7719
-15.8843
-15.9915
-16.0936
-16.1904
-16.2819
-16.3682
-16.4492
-16.5248
-16.5951
-16.66
-16.7195
-16.7736
-16.8224
-16.8657
-16.9037
-16.9363
-16.9637
-13.3519
-13.5118
-13.669
-13.8228
-13.9729
-14.1189
-14.2606
-14.3978
-14.5303
-14.6582
-14.7811
-14.8992
-15.0124
-15.1206
-15.2237
-15.3219
-15.4149
-15.5028
-15.5855
-15.6631
-15.7354
-15.8026
-15.8646
-15.9213
-15.9728
-16.0191
-16.0601
-16.096
-16.1266
-16.1521
-12.6993
-12.8543
-13.0069
-13.1563
-13.302
-13.4436
-13.5809
-13.7138
-13.842
-13.9655
-14.0843
-14.1983
-14.3074
-14.4117
-14.511
-14.6054
-14.6949
-14.7793
-14.8588
-14.9332
-15.0025
-15.0668
-15.126
-15.1801
-15.2292
-15.2732
-15.312
-15.3458
-15.3746
-15.3984
-12.0924
-12.2427
-12.3912
-12.5367
-12.6784
-12.8159
-12.9492
-13.0779
-13.2021
-13.3216
-13.4364
-13.5465
-13.6518
-13.7524
-13.8481
-13.9391
-14.0252
-14.1064
-14.1828
-14.2542
-14.3207
-14.3823
-14.439
-14.4907
-14.5374
-14.5792
-14.6161
-14.648
-14.675
-14.6972
-11.5266
-11.6727
-11.8177
-11.9597
-12.0977
-12.2315
-12.3609
-12.4858
-12.6061
-12.7218
-12.8329
-12.9393
-13.0411
-13.1382
-13.2306
-13.3182
-13.4012
-13.4794
-13.5529
-13.6215
-13.6854
-13.7445
-13.7987
-13.8482
-13.8928
-13.9326
-13.9676
-13.9978
-14.0232
-14.0438
-10.9979
-11.1402
-11.2825
-11.4215
-11.5562
-11.6865
-11.8123
-11.9336
-12.0502
-12.1623
-12.2698
-12.3728
-12.4712
-12.565
-12.6542
-12.7388
-12.8189
-12.8942
-12.965
-13.031
-13.0924
-13.1491
-13.2012
-13.2485
-13.2911
-13.3291
-13.3623
-13.3909
-13.4148
-13.4341
-10.5027
-10.6419
-10.7824
-10.9188
-11.0504
-11.1775
-11.3
-11.4177
-11.5309
-11.6395
-11.7437
-11.8434
-11.9386
-12.0293
-12.1155
-12.1973
-12.2745
-12.3472
-12.4154
-12.479
-12.5381
-12.5926
-12.6426
-12.6879
-12.7287
-12.7649
-12.7965
-12.8236
-12.8461
-12.8641
-10.0375
-10.1751
-10.315
-10.4493
-10.5781
-10.7021
-10.8212
-10.9356
-11.0455
-11.1508
-11.2517
-11.3482
-11.4404
-11.5282
-11.6116
-11.6906
-11.7652
-11.8354
-11.9011
-11.9625
-12.0194
-12.0718
-12.1198
-12.1633
-12.2023
-12.2369
-12.267
-12.2926
-12.3138
-12.3306
-9.59634
-9.73638
-9.87781
-10.0102
-10.1362
-10.2572
-10.3732
-10.4843
-10.5908
-10.693
-10.7908
-10.8844
-10.9736
-11.0586
-11.1393
-11.2157
-11.2879
-11.3557
-11.4192
-11.4784
-11.5332
-11.5837
-11.6298
-11.6715
-11.7089
-11.742
-11.7707
-11.795
-11.815
-11.8307
-9.16689
-9.31502
-9.46207
-9.59331
-9.7168
-9.83509
-9.94816
-10.0563
-10.16
-10.2593
-10.3545
-10.4454
-10.5321
-10.6147
-10.6931
-10.7673
-10.8373
-10.9031
-10.9647
-11.022
-11.0751
-11.124
-11.1686
-11.2089
-11.2449
-11.2767
-11.3042
-11.3275
-11.3465
-11.3613
-8.7453
-8.90452
-9.06157
-9.1939
-9.3156
-9.43151
-9.54208
-9.64774
-9.74895
-9.84595
-9.9388
-10.0275
-10.1122
-10.1928
-10.2692
-10.3416
-10.4099
-10.4741
-10.5341
-10.59
-10.6417
-10.6893
-10.7327
-10.7719
-10.807
-10.8379
-10.8646
-10.8871
-10.9055
-10.9198
-8.4135
-8.58461
-8.7399
-8.87118
-8.9891
-9.09981
-9.20547
-9.30647
-9.40312
-9.49566
-9.58418
-9.66869
-9.7492
-9.82572
-9.89825
-9.96679
-10.0313
-10.0919
-10.1485
-10.201
-10.2496
-10.2941
-10.3346
-10.3711
-10.4036
-10.432
-10.4564
-10.4769
-10.4933
-10.5058
-4.16466
-4.42726
-4.70864
-5.00919
-5.33068
-5.67497
-6.04395
-6.43973
-6.8647
-7.32157
-7.8134
-8.34375
-8.91669
-9.53696
-10.2101
-10.9426
-11.7421
-12.6176
-13.5797
-14.6409
-15.8159
-17.1218
-18.5782
-20.2071
-22.0335
-24.0853
-26.3744
-28.8863
-31.8565
-35.6972
-4.30988
-4.57648
-4.86035
-5.16384
-5.48865
-5.83648
-6.20923
-6.60905
-7.03837
-7.49993
-7.99684
-8.53268
-9.11157
-9.7383
-10.4184
-11.1586
-11.9664
-12.8509
-13.8229
-14.8949
-16.0816
-17.4001
-18.8701
-20.5134
-22.3548
-24.4219
-26.7261
-29.251
-32.2286
-36.0663
-4.45603
-4.72665
-5.01305
-5.31955
-5.64776
-5.99919
-6.37578
-6.77972
-7.21346
-7.67979
-8.18185
-8.72326
-9.30818
-9.94145
-10.6287
-11.3766
-12.1928
-13.0865
-14.0685
-15.1513
-16.3498
-17.681
-19.1646
-20.8224
-22.6788
-24.7609
-27.0793
-29.6161
-32.5989
-36.4305
-4.60296
-4.8776
-5.16658
-5.47614
-5.8078
-6.1629
-6.54338
-6.95149
-7.38972
-7.86088
-8.36814
-8.91518
-9.50619
-10.1461
-10.8405
-11.5962
-12.4209
-13.3238
-14.3158
-15.4096
-16.6199
-17.9639
-19.4611
-21.1332
-23.0044
-25.1013
-27.4336
-29.9824
-32.9726
-36.8037
-4.75054
-5.02921
-5.3208
-5.63349
-5.96866
-6.32748
-6.71191
-7.12425
-7.56702
-8.04306
-8.55559
-9.10831
-9.70548
-10.352
-11.0537
-11.8172
-12.6504
-13.5627
-14.5648
-15.6694
-16.8916
-18.2484
-19.7592
-21.4456
-23.3316
-25.4432
-27.7895
-30.3505
-33.3496
-37.1837
-4.89867
-5.18136
-5.4756
-5.79147
-6.13021
-6.49282
-6.88126
-7.29788
-7.74525
-8.22622
-8.74407
-9.30253
-9.9059
-10.5592
-11.2681
-12.0395
-12.8814
-13.8029
-14.8152
-15.9308
-17.1649
-18.5344
-20.0589
-21.7596
-23.6604
-25.7867
-28.147
-30.7203
-33.7288
-37.5673
-5.04723
-5.33393
-5.63085
-5.94997
-6.29234
-6.65878
-7.05128
-7.47224
-7.92425
-8.41021
-8.93343
-9.49768
-10.1073
-10.7673
-11.4836
-12.263
-13.1135
-14.0444
-15.0668
-16.1936
-17.4395
-18.8219
-20.36
-22.0751
-23.9906
-26.1316
-28.5059
-31.0915
-34.1096
-37.9534
-5.1961
-5.4868
-5.78644
-6.10885
-6.45491
-6.82523
-7.22185
-7.64719
-8.1039
-8.5949
-9.12353
-9.69361
-10.3095
-10.9764
-11.7001
-12.4874
-13.3466
-14.287
-15.3196
-16.4574
-17.7154
-19.1105
-20.6623
-22.3917
-24.322
-26.4778
-28.866
-31.464
-34.4919
-38.3414
-5.3452
-5.63986
-5.94224
-6.26802
-6.61781
-6.99207
-7.39284
-7.82262
-8.28407
-8.78014
-9.31423
-9.89019
-10.5125
-11.1862
-11.9173
-12.7127
-13.5806
-14.5304
-15.5733
-16.7223
-17.9922
-19.4002
-20.9656
-22.7094
-24.6544
-26.8248
-29.2271
-31.8375
-34.8752
-38.7308
-5.49442
-5.79301
-6.09815
-6.42735
-6.78093
-7.15917
-7.56414
-7.9984
-8.46462
-8.96582
-9.5054
-10.0873
-10.7159
-11.3965
-12.1351
-12.9386
-13.8152
-14.7746
-15.8278
-16.9878
-18.2697
-19.6906
-21.2697
-23.0278
-24.9875
-27.1727
-29.5888
-32.2117
-35.2593
-39.121
-5.64368
-5.94614
-6.25407
-6.58674
-6.94416
-7.32642
-7.73564
-8.1744
-8.64544
-9.15179
-9.6969
-10.2847
-10.9198
-11.6073
-12.3533
-13.1649
-14.0503
-15.0192
-16.0827
-17.2539
-18.5479
-19.9817
-21.5744
-23.3468
-25.3212
-27.5209
-29.951
-32.5862
-35.6436
-39.5116
-5.79289
-6.09918
-6.40991
-6.7461
-7.10741
-7.49372
-7.90721
-8.35052
-8.8264
-9.33793
-9.88859
-10.4824
-11.1238
-11.8183
-12.5718
-13.3916
-14.2858
-15.2642
-16.338
-17.5204
-18.8264
-20.273
-21.8794
-23.6661
-25.6551
-27.8694
-30.3133
-32.9608
-36.0279
-39.9021
-5.94199
-6.25205
-6.56558
-6.90534
-7.27057
-7.66098
-8.07877
-8.52665
-9.00739
-9.52411
-10.0803
-10.6801
-11.328
-12.0294
-12.7905
-13.6183
-14.5214
-15.5093
-16.5935
-17.787
-19.105
-20.5645
-22.1845
-23.9854
-25.989
-28.2177
-30.6754
-33.335
-36.4117
-40.2921
-6.09092
-6.40468
-6.72102
-7.06439
-7.43358
-7.8281
-8.25022
-8.70267
-9.1883
-9.71023
-10.272
-10.8778
-11.5321
-12.2405
-13.009
-13.845
-14.7569
-15.7544
-16.8489
-18.0536
-19.3836
-20.8559
-22.4895
-24.3046
-26.3226
-28.5657
-31.0369
-33.7086
-36.7947
-40.6812
-6.23965
-6.55702
-6.87617
-7.22318
-7.59635
-7.99501
-8.42146
-8.8785
-9.36901
-9.89614
-10.4635
-11.0752
-11.736
-12.4513
-13.2274
-14.0715
-14.9922
-15.9992
-17.1041
-18.3199
-19.6618
-21.147
-22.7941
-24.6232
-26.6557
-28.913
-31.3977
-34.0811
-37.1766
-41.069
-6.38816
-6.70905
-7.03098
-7.38167
-7.75884
-8.16162
-8.5924
-9.05403
-9.54941
-10.0817
-10.6547
-11.2724
-11.9396
-12.6618
-13.4454
-14.2976
-15.2271
-16.2436
-17.3587
-18.5857
-19.9396
-21.4374
-23.098
-24.9412
-26.9879
-29.2593
-31.7573
-34.4524
-37.5569
-41.4552
-6.53647
-6.86076
-7.18545
-7.53981
-7.92097
-8.32788
-8.76297
-9.22916
-9.72938
-10.2669
-10.8453
-11.469
-12.1426
-12.8717
-13.6628
-14.5231
-15.4613
-16.4873
-17.6127
-18.8507
-20.2165
-21.7271
-23.401
-25.2581
-27.319
-29.6044
-32.1155
-34.822
-37.9355
-41.8394
-6.68461
-7.01217
-7.33956
-7.69759
-8.08272
-8.49371
-8.93308
-9.40379
-9.90882
-10.4515
-11.0354
-11.665
-12.3449
-13.0809
-13.8794
-14.7478
-15.6947
-16.7302
-17.8658
-19.1148
-20.4924
-22.0156
-23.7029
-25.5738
-27.6487
-29.9479
-32.4719
-35.1897
-38.3119
-42.2214
-6.83269
-7.16334
-7.49333
-7.85499
-8.24404
-8.65906
-9.10263
-9.57781
-10.0876
-10.6353
-11.2247
-11.8601
-12.5464
-13.2892
-14.0951
-14.9715
-15.9271
-16.972
-18.1178
-19.3778
-20.7671
-22.3028
-24.0033
-25.8879
-27.9767
-30.2895
-32.8262
-35.5551
-38.6858
-42.6007
-6.98081
-7.31434
-7.6468
-8.01199
-8.40488
-8.82383
-9.27153
-9.75108
-10.2655
-10.8183
-11.413
-12.0542
-12.7468
-13.4964
-14.3096
-15.194
-16.1582
-17.2124
-18.3683
-19.6392
-21.0403
-22.5884
-24.302
-26.2002
-28.3027
-30.6289
-33.1782
-35.9179
-39.057