/*--------------------------------*- C++ -*----------------------------------*\
  =========                 |
  \\      /  F ield         | OpenFOAM: The Open Source CFD Toolbox
   \\    /   O peration     | Website:  https://openfoam.org
    \\  /    A nd           | Version:  6.0
     \\/     M anipulation  |
\*---------------------------------------------------------------------------*/
FoamFile
{
    version     2.0;
    format      ascii;
    class       surfaceScalarField;
    location    "26";
    object      phi;
}
// * * * * * * * * * * * * * * * * * * * * * * * * * * * * * * * * * * * * * //

dimensions      [0 3 -1 0 0 0 0];

internalField   nonuniform List<scalar> 
38030
(
8.6036e-05
-0.1599
0.159814
0.000380479
-0.150239
0.149945
0.000846237
-0.143124
0.142658
0.0014485
-0.137812
0.137209
0.00215652
-0.133753
0.133045
0.00294242
-0.130537
0.129751
0.00378189
-0.127867
0.127028
0.00465438
-0.125535
0.124663
0.00554305
-0.1234
0.122511
0.00643445
-0.121367
0.120475
0.00731819
-0.119376
0.118492
0.00818658
-0.117392
0.116524
0.00903423
-0.115398
0.11455
0.00985763
-0.113386
0.112562
0.0106548
-0.111357
0.11056
0.0114251
-0.109316
0.108546
0.0121687
-0.107272
0.106528
0.0128865
-0.105232
0.104515
0.01358
-0.103207
0.102513
0.014251
-0.101204
0.100533
0.0149016
-0.0992301
0.0985795
0.0155339
-0.0972921
0.0966598
0.0161502
-0.0953942
0.0947779
0.0167527
-0.0935394
0.0929368
0.0173436
-0.0917287
0.0911377
0.0179249
-0.0899613
0.0893799
0.0184985
-0.0882344
0.0876609
0.0190656
-0.0865432
0.085976
0.0196272
-0.0848803
0.0843188
-0.083236
0.0826798
0.0201834
9.78826e-05
-0.159998
0.000396754
-0.150538
0.000866353
-0.143594
0.00147223
-0.138418
0.00218286
-0.134464
0.00297001
-0.131324
0.00380911
-0.128706
0.00467951
-0.126406
0.00556436
-0.124285
0.00645032
-0.122253
0.00732718
-0.120253
0.00818745
-0.118253
0.00902597
-0.116236
0.00983945
-0.114199
0.0106262
-0.112143
0.0113856
-0.110076
0.0121181
-0.108004
0.0128249
-0.105939
0.0135074
-0.103889
0.0141676
-0.101864
0.0148075
-0.0998701
0.0154296
-0.0979141
0.016036
-0.0960006
0.016629
-0.0941324
0.0172109
-0.0923105
0.0177837
-0.0905341
0.0183493
-0.0887999
0.018909
-0.0871029
0.0194639
-0.0854353
-0.0837865
0.0200144
0.000105522
-0.160103
0.000409959
-0.150842
0.000883881
-0.144068
0.0014934
-0.139027
0.00220648
-0.135177
0.0029945
-0.132112
0.00383271
-0.129544
0.0047004
-0.127273
0.00558078
-0.125165
0.00646064
-0.123132
0.00732997
-0.121122
0.00818149
-0.119104
0.00901028
-0.117065
0.00981329
-0.115002
0.010589
-0.112919
0.0113371
-0.110824
0.0120582
-0.108725
0.0127535
-0.106634
0.0134246
-0.104561
0.0140737
-0.102513
0.0147028
-0.100499
0.0153143
-0.0985257
0.0159105
-0.0965969
0.0164938
-0.0947157
0.0170664
-0.0928831
0.0176304
-0.0910981
0.0181877
-0.0893572
0.0187399
-0.087655
0.0192879
-0.0859833
-0.0843309
0.0198323
0.000110184
-0.160213
0.000420217
-0.151153
0.00089887
-0.144546
0.00151204
-0.13964
0.00222733
-0.135892
0.00301581
-0.132901
0.0038526
-0.130381
0.00471699
-0.128138
0.00559226
-0.12604
0.00646538
-0.124006
0.00732653
-0.121983
0.0081687
-0.119946
0.00898718
-0.117884
0.0097792
-0.115794
0.0105434
-0.113683
0.0112798
-0.11156
0.011989
-0.109435
0.0126724
-0.107318
0.0133319
-0.10522
0.0139695
-0.103151
0.0145875
-0.101117
0.0151882
-0.0991264
0.0157741
-0.0971827
0.0163474
-0.095289
0.0169105
-0.0934462
0.0174654
-0.091653
0.0180143
-0.089906
0.0185585
-0.0881993
0.0190994
-0.0865242
-0.0848689
0.0196375
0.000113598
-0.160327
0.000428647
-0.151468
0.000911855
-0.14503
0.00152842
-0.140257
0.00224554
-0.13661
0.003034
-0.133689
0.00386882
-0.131216
0.00472929
-0.128998
0.00559882
-0.12691
0.00646456
-0.124871
0.00731692
-0.122836
0.00814914
-0.120779
0.00895678
-0.118691
0.00973728
-0.116575
0.0104896
-0.114436
0.0112138
-0.112284
0.0119107
-0.110132
0.012582
-0.107989
0.0132295
-0.105868
0.0138554
-0.103776
0.014462
-0.101724
0.0150517
-0.0997161
0.0156269
-0.0977579
0.01619
-0.0958522
0.0167433
-0.0939996
0.0172891
-0.0921988
0.0178292
-0.0904461
0.0183654
-0.0887355
0.018899
-0.0870578
-0.0854005
0.0194306
0.000116349
-0.160443
0.00043581
-0.151787
0.000923176
-0.145517
0.00154274
-0.140876
0.00226122
-0.137328
0.00304913
-0.134477
0.00388138
-0.132048
0.00473732
-0.129854
0.00560049
-0.127773
0.00645823
-0.125729
0.00730121
-0.123679
0.00812291
-0.1216
0.00891917
-0.119488
0.00968768
-0.117343
0.0104276
-0.115176
0.0111392
-0.112996
0.0118236
-0.110816
0.0124824
-0.108648
0.0131176
-0.106503
0.0137315
-0.10439
0.0143264
-0.102319
0.0149049
-0.100295
0.0154693
-0.0983223
0.016022
-0.0964049
0.0165654
-0.0945429
0.0171017
-0.0927351
0.0176329
-0.0909774
0.0181609
-0.0892635
0.0186869
-0.0875838
-0.0859254
0.0192118
0.000118701
-0.160562
0.000442045
-0.15211
0.000933088
-0.146008
0.00155518
-0.141498
0.00227449
-0.138047
0.00306128
-0.135264
0.00389037
-0.132877
0.00474116
-0.130705
0.00559734
-0.128629
0.00644647
-0.126578
0.00727948
-0.124512
0.00809012
-0.122411
0.0088745
-0.120272
0.00963055
-0.118099
0.0103577
-0.115903
0.0110563
-0.113695
0.0117278
-0.111487
0.0123738
-0.109294
0.0129964
-0.107125
0.0135981
-0.104992
0.0141812
-0.102902
0.0147482
-0.100862
0.0153015
-0.0988757
0.0158437
-0.096947
0.0163769
-0.0950762
0.0169035
-0.0932617
0.0174257
-0.0914995
0.0179452
-0.089783
0.0184635
-0.0881021
-0.0864434
0.0189815
0.000120771
-0.160683
0.000447542
-0.152437
0.000941767
-0.146502
0.00156585
-0.142123
0.00228545
-0.138767
0.00307053
-0.136049
0.00389585
-0.133703
0.00474087
-0.13155
0.00558945
-0.129478
0.00642937
-0.127418
0.00725184
-0.125334
0.00805089
-0.12321
0.00882288
-0.121044
0.00956603
-0.118842
0.0102799
-0.116617
0.0109653
-0.11438
0.0116235
-0.112146
0.0122564
-0.109927
0.0128663
-0.107735
0.0134555
-0.105581
0.0140265
-0.103473
0.0145819
-0.101417
0.015124
-0.0994177
0.0156553
-0.0974783
0.0161782
-0.0955991
0.016695
-0.0937785
0.0172078
-0.0920124
0.0177187
-0.0902938
0.018229
-0.0886125
-0.0869544
0.01874
0.000122625
-0.160806
0.000452408
-0.152767
0.000949331
-0.146999
0.00157489
-0.142748
0.0022942
-0.139486
0.00307698
-0.136832
0.00389792
-0.134524
0.00473654
-0.132389
0.0055769
-0.130318
0.00640703
-0.128248
0.00721841
-0.126145
0.00800534
-0.123997
0.00876449
-0.121803
0.0094943
-0.119572
0.0101946
-0.117317
0.0108663
-0.115052
0.0115109
-0.11279
0.0121305
-0.110546
0.0127274
-0.108332
0.0133039
-0.106158
0.0138627
-0.104032
0.0144061
-0.10196
0.0149368
-0.0999484
0.0154571
-0.0979986
0.0159695
-0.0961114
0.0164762
-0.0942852
0.0169796
-0.0925158
0.0174816
-0.0907958
0.0179839
-0.0891147
-0.0874582
0.0184876
0.000124292
-0.16093
0.000456715
-0.153099
0.000955863
-0.147498
0.00158237
-0.143375
0.00230083
-0.140205
0.00308072
-0.137612
0.00389665
-0.135339
0.00472828
-0.13322
0.00555982
-0.13115
0.00637958
-0.129068
0.00717932
-0.126945
0.00795364
-0.124771
0.00869948
-0.122549
0.00941553
-0.120288
0.0101019
-0.118003
0.0107596
-0.115709
0.0113904
-0.113421
0.0119963
-0.111152
0.0125799
-0.108916
0.0131435
-0.106721
0.0136898
-0.104578
0.0142212
-0.102492
0.0147403
-0.100467
0.0152494
-0.0985077
0.015751
-0.096613
0.0162475
-0.0947817
0.0167412
-0.0930094
0.0172341
-0.0912888
0.0177281
-0.0896088
-0.0879546
0.0182245
0.000125792
-0.161056
0.000460504
-0.153434
0.000961428
-0.147999
0.00158837
-0.144002
0.00230543
-0.140922
0.00308183
-0.138388
0.00389216
-0.13615
0.00471617
-0.134044
0.00553831
-0.131972
0.00634714
-0.129877
0.00713471
-0.127733
0.00789594
-0.125532
0.00862802
-0.123281
0.00932993
-0.12099
0.010002
-0.118675
0.0106453
-0.116353
0.011262
-0.114038
0.0118541
-0.111744
0.0124241
-0.109486
0.0129747
-0.107272
0.0135083
-0.105112
0.0140274
-0.103011
0.0145346
-0.100975
0.0150323
-0.0990054
0.015523
-0.0971037
0.016009
-0.0952678
0.0164928
-0.0934932
0.0169765
-0.0917725
0.017462
-0.0900943
-0.0884434
0.0179509
0.000127138
-0.161183
0.000463803
-0.153771
0.000966075
-0.148501
0.00159296
-0.144628
0.00230806
-0.141637
0.0030804
-0.139161
0.00388453
-0.136954
0.00470034
-0.13486
0.0055125
-0.132784
0.00630986
-0.130674
0.00708476
-0.128508
0.00783242
-0.12628
0.00855032
-0.123999
0.00923769
-0.121678
0.00989504
-0.119333
0.0105238
-0.116981
0.011126
-0.11464
0.011704
-0.112322
0.0122603
-0.110042
0.0127975
-0.107809
0.0133182
-0.105632
0.0138249
-0.103518
0.0143201
-0.10147
0.0148062
-0.0994915
0.0152857
-0.0975832
0.015761
-0.0957431
0.0162346
-0.0939668
0.0167088
-0.0922467
0.0171856
-0.0905711
-0.0889245
0.0176668
0.000128331
-0.161311
0.00046664
-0.154109
0.000969849
-0.149005
0.0015962
-0.145255
0.00230883
-0.142349
0.00307653
-0.139928
0.00387389
-0.137751
0.00468092
-0.135667
0.00548255
-0.133586
0.0062679
-0.13146
0.00702963
-0.129269
0.00776327
-0.127014
0.00846657
-0.124702
0.00913903
-0.12235
0.00978137
-0.119975
0.0103952
-0.117595
0.0109827
-0.115227
0.0115463
-0.112886
0.0120886
-0.110584
0.0126122
-0.108333
0.0131198
-0.10614
0.0136139
-0.104012
0.0140968
-0.101953
0.0145711
-0.0999658
0.0150391
-0.0980513
0.0155035
-0.0962075
0.0159667
-0.09443
0.0164311
-0.0927111
0.016899
-0.091039
-0.0893977
0.0173722
0.000129379
-0.16144
0.000469032
-0.154449
0.000972796
-0.149508
0.00159816
-0.14588
0.0023078
-0.143059
0.00307033
-0.140691
0.00386035
-0.138541
0.00465804
-0.136465
0.00544859
-0.134376
0.00622142
-0.132232
0.00696951
-0.130017
0.00768869
-0.127733
0.008377
-0.12539
0.00903418
-0.123007
0.00966118
-0.120602
0.0102598
-0.118194
0.0108323
-0.1158
0.0113812
-0.113435
0.0119093
-0.111112
0.0124191
-0.108843
0.0129134
-0.106634
0.0133945
-0.104493
0.013865
-0.102423
0.0143271
-0.100428
0.0147835
-0.0985076
0.0152366
-0.0966605
0.015689
-0.0948824
0.0161433
-0.0931655
0.016602
-0.0914977
-0.0898628
0.0170671
0.000130281
-0.161571
0.000471
-0.154789
0.000974962
-0.150012
0.00159891
-0.146504
0.00230508
-0.143765
0.00306191
-0.141448
0.00384404
-0.139323
0.00463185
-0.137253
0.00541079
-0.135155
0.00617062
-0.132992
0.00690461
-0.130751
0.00760891
-0.128437
0.00828185
-0.126063
0.0089234
-0.123649
0.00953473
-0.121213
0.0101178
-0.118777
0.010675
-0.116357
0.011209
-0.113969
0.0117226
-0.111626
0.0122185
-0.109339
0.0126991
-0.107115
0.0131671
-0.104961
0.0136248
-0.102881
0.0140746
-0.100878
0.0145189
-0.0989519
0.0149604
-0.097102
0.0154017
-0.0953237
0.0158455
-0.0936093
0.0162946
-0.0919468
-0.0903193
0.0167512
0.00013104
-0.161702
0.000472569
-0.155131
0.000976402
-0.150516
0.00159854
-0.147126
0.00230077
-0.144468
0.00305139
-0.142198
0.0038251
-0.140097
0.00460251
-0.13803
0.00536935
-0.135922
0.00611569
-0.133739
0.00683515
-0.131471
0.00752417
-0.129126
0.00818136
-0.126721
0.00880695
-0.124274
0.0094023
-0.121809
0.00996954
-0.119344
0.0105112
-0.116899
0.0110301
-0.114488
0.0115289
-0.112125
0.0120105
-0.10982
0.0124773
-0.107582
0.0129318
-0.105415
0.0133764
-0.103326
0.0138135
-0.101315
0.0142454
-0.0993839
0.0146748
-0.0975314
0.0151045
-0.0957534
0.0155375
-0.0940423
0.0159766
-0.0923859
-0.0907671
0.0164243
0.000131656
-0.161833
0.000473766
-0.155473
0.000977184
-0.15102
0.00159714
-0.147746
0.00229499
-0.145165
0.0030389
-0.142942
0.00380369
-0.140862
0.00457019
-0.138796
0.00532445
-0.136676
0.00605686
-0.134471
0.00676137
-0.132175
0.00743473
-0.1298
0.00807582
-0.127362
0.00868512
-0.124884
0.0092642
-0.122388
0.00981533
-0.119895
0.0103412
-0.117424
0.0108446
-0.114991
0.0113284
-0.112609
0.0117954
-0.110287
0.012248
-0.108034
0.0126888
-0.105856
0.01312
-0.103757
0.013544
-0.101739
0.0139631
-0.099803
0.01438
-0.0979483
0.0147976
-0.096171
0.0152191
-0.0944638
0.0156476
-0.0928144
-0.0912055
0.016086
0.00013213
-0.161966
0.000474629
-0.155816
0.000977385
-0.151522
0.00159483
-0.148364
0.00228788
-0.145858
0.00302461
-0.143679
0.00377998
-0.141617
0.00453509
-0.139552
0.00527631
-0.137417
0.00599437
-0.135189
0.00668353
-0.132865
0.00734087
-0.130457
0.00796554
-0.127986
0.00855825
-0.125476
0.00912076
-0.12295
0.00965551
-0.12043
0.0101653
-0.117934
0.010653
-0.115479
0.0111215
-0.113077
0.0115736
-0.110739
0.0120117
-0.108472
0.0124384
-0.106283
0.0128558
-0.104174
0.0132663
-0.102149
0.013672
-0.100209
0.0140758
-0.0983521
0.0144807
-0.0965759
0.01489
-0.0948731
0.0153073
-0.0932317
-0.091634
0.0157358
0.000132469
-0.162098
0.000475213
-0.156158
0.00097711
-0.152024
0.00159173
-0.148978
0.00227957
-0.146546
0.00300866
-0.144408
0.00375415
-0.142363
0.00449741
-0.140295
0.00522516
-0.138145
0.00592846
-0.135892
0.00660191
-0.133538
0.00724289
-0.131098
0.00785083
-0.128594
0.00842666
-0.126052
0.00897234
-0.123496
0.00949044
-0.120948
0.00998384
-0.118428
0.0104555
-0.115951
0.0109084
-0.11353
0.0113453
-0.111176
0.0117687
-0.108896
0.0121809
-0.106695
0.0125841
-0.104577
0.0129805
-0.102546
0.0133724
-0.100601
0.0137624
-0.0987422
0.0141538
-0.0969672
0.01455
-0.0952694
0.0149552
-0.0936368
-0.0920518
0.015373
0.000132681
-0.162231
0.00047559
-0.156501
0.000976487
-0.152525
0.001588
-0.14959
0.00227024
-0.147229
0.00299125
-0.145129
0.00372639
-0.143098
0.00445737
-0.141026
0.00517124
-0.138859
0.0058594
-0.13658
0.00651681
-0.134195
0.00714112
-0.131722
0.00773205
-0.129185
0.00829075
-0.126611
0.00881935
-0.124025
0.00932055
-0.121449
0.00979734
-0.118904
0.0102528
-0.116406
0.0106898
-0.113967
0.0111111
-0.111597
0.0115193
-0.109304
0.0119166
-0.107092
0.0123051
-0.104966
0.0126869
-0.102927
0.0130643
-0.100978
0.0134398
-0.0991177
0.0138167
-0.0973441
0.0141989
-0.0956516
0.0145908
-0.0940287
-0.0924578
0.0149968
0.00013279
-0.162364
0.000475871
-0.156844
0.000975679
-0.153025
0.00158382
-0.150198
0.00226007
-0.147905
0.00297256
-0.145841
0.00369693
-0.143822
0.00441521
-0.141744
0.0051148
-0.139559
0.00578749
-0.137253
0.00642854
-0.134836
0.00703591
-0.13233
0.00760959
-0.129759
0.00815092
-0.127152
0.00866223
-0.124536
0.00914632
-0.121933
0.00960627
-0.119364
0.0100452
-0.116845
0.010466
-0.114388
0.0108715
-0.112003
0.0112641
-0.109697
0.011646
-0.107474
0.0120193
-0.105339
0.012386
-0.103294
0.012748
-0.10134
0.0131081
-0.0994778
0.0134695
-0.0977055
0.0138363
-0.0960184
0.0142136
-0.094406
-0.0928506
0.0146065
0.000132845
-0.162496
0.000476212
-0.157188
0.000974902
-0.153524
0.00157942
-0.150802
0.00224929
-0.148575
0.00295282
-0.146545
0.00366597
-0.144535
0.00437116
-0.142449
0.00505613
-0.140244
0.00571301
-0.13791
0.00633743
-0.135461
0.00692763
-0.13292
0.00748383
-0.130315
0.00800762
-0.127676
0.00850145
-0.12503
0.00896825
-0.1224
0.00941116
-0.119807
0.00983332
-0.117267
0.0102377
-0.114792
0.010627
-0.112392
0.0110036
-0.110073
0.0113698
-0.10784
0.0117273
-0.105697
0.0120781
-0.103645
0.0124241
-0.101686
0.0127678
-0.0998214
0.0131123
-0.09805
0.0134623
-0.0963683
0.0138232
-0.0947669
-0.0932287
0.0142012
0.000132948
-0.162629
0.000476855
-0.157532
0.000974431
-0.154021
0.00157504
-0.151403
0.0022381
-0.149238
0.00293223
-0.147239
0.00363376
-0.145237
0.00432546
-0.143141
0.00499547
-0.140914
0.00563628
-0.138551
0.00624381
-0.136068
0.00681663
-0.133493
0.00735521
-0.130854
0.00786132
-0.128182
0.00833755
-0.125506
0.00878693
-0.12285
0.00921266
-0.120233
0.00961789
-0.117672
0.0100056
-0.11518
0.0103784
-0.112765
0.0107387
-0.110434
0.0110886
-0.10819
0.0114299
-0.106038
0.0117641
-0.103979
0.0120932
-0.102015
0.0124193
-0.100147
0.0127457
-0.0983764
0.0130769
-0.0966996
0.0134193
-0.0951094
-0.0935896
0.0137803
0.000133296
-0.162763
0.000478164
-0.157876
0.000974629
-0.154518
0.00157098
-0.151999
0.00222678
-0.149893
0.00291104
-0.147923
0.00360051
-0.145926
0.00427837
-0.143819
0.0049331
-0.141568
0.00555757
-0.139175
0.00614802
-0.136659
0.00670332
-0.134048
0.00722416
-0.131375
0.0077125
-0.128671
0.00817107
-0.125965
0.00860298
-0.123281
0.00901147
-0.120641
0.00939967
-0.118061
0.00977052
-0.115551
0.0101267
-0.113121
0.0104704
-0.110777
0.0108036
-0.108523
0.011128
-0.106362
0.011445
-0.104296
0.0117563
-0.102326
0.0120637
-0.100455
0.0123702
-0.0986829
0.0126806
-0.09701
0.0130019
-0.0954306
-0.0939304
0.0133427
0.000134277
-0.162897
0.000480704
-0.158223
0.000975961
-0.155013
0.00156758
-0.152591
0.00221556
-0.150541
0.00288945
-0.148597
0.00356644
-0.146603
0.00423009
-0.144482
0.00486927
-0.142208
0.00547717
-0.139783
0.00605039
-0.137232
0.00658806
-0.134586
0.00709111
-0.131878
0.00756168
-0.129141
0.00800261
-0.126406
0.00841708
-0.123696
0.00880834
-0.121033
0.00917952
-0.118432
0.0095335
-0.115905
0.00987283
-0.11346
0.0101997
-0.111104
0.0105159
-0.10884
0.010823
-0.106669
0.0111222
-0.104595
0.0114147
-0.102619
0.0117021
-0.100742
0.0119871
-0.0989679
0.012274
-0.097297
0.0125705
-0.0957271
-0.0942473
0.0128874
0.000136567
-0.163033
0.000485245
-0.158572
0.000978937
-0.155507
0.00156516
-0.153177
0.00220468
-0.151181
0.00286767
-0.14926
0.00353175
-0.147267
0.00418084
-0.145132
0.00480419
-0.142831
0.00539534
-0.140374
0.00595121
-0.137788
0.00647121
-0.135106
0.00695649
-0.132363
0.00740936
-0.129594
0.00783275
-0.126829
0.00822991
-0.124093
0.00860409
-0.121407
0.00895839
-0.118786
0.00929561
-0.116242
0.00961819
-0.113783
0.00992819
-0.111414
0.0102273
-0.109139
0.0105167
-0.106959
0.0107975
-0.104876
0.0110705
-0.102892
0.0113369
-0.101009
0.0115984
-0.0992294
0.0118591
-0.0975577
0.0121267
-0.0959948
-0.0945357
0.0124151
0.000141175
-0.163175
0.000492676
-0.158923
0.000984076
-0.155998
0.00156403
-0.153757
0.00219436
-0.151811
0.00284586
-0.149912
0.00349657
-0.147918
0.00413077
-0.145766
0.00473804
-0.143438
0.00531229
-0.140949
0.00585075
-0.138326
0.00635309
-0.135608
0.00682069
-0.13283
0.007256
-0.130029
0.00766206
-0.127235
0.00804217
-0.124473
0.00839957
-0.121764
0.00873729
-0.119124
0.00905806
-0.116563
0.00936418
-0.114089
0.00965755
-0.111707
0.00993962
-0.109421
0.0102114
-0.107231
0.0104737
-0.105138
0.0107269
-0.103145
0.0109714
-0.101253
0.0112083
-0.0994663
0.0114404
-0.0977898
0.0116753
-0.0962297
-0.0947893
0.0119289
0.00014966
-0.163324
0.000504428
-0.159278
0.000992263
-0.156486
0.00156464
-0.15433
0.00218482
-0.152431
0.00282415
-0.150551
0.003461
-0.148555
0.00407995
-0.146385
0.00467093
-0.144029
0.00522817
-0.141506
0.00574919
-0.138847
0.00623395
-0.136093
0.00668402
-0.133281
0.00710202
-0.130447
0.00749107
-0.127624
0.00785451
-0.124837
0.00819556
-0.122105
0.00851721
-0.119445
0.00882207
-0.116868
0.0091123
-0.114379
0.00938958
-0.111985
0.00965513
-0.109686
0.00990968
-0.107485
0.0101535
-0.105382
0.0103867
-0.103378
0.010609
-0.101475
0.0108206
-0.0996779
0.0110221
-0.0979913
0.0112183
-0.0964259
-0.0949953
0.0114244
0.000166451
-0.163491
0.000524247
-0.159636
0.00100521
-0.156967
0.00156753
-0.154892
0.00217612
-0.15304
0.00280246
-0.151177
0.00342494
-0.149178
0.00402834
-0.146988
0.00460286
-0.144604
0.00514302
-0.142046
0.00564665
-0.139351
0.00611396
-0.13656
0.00654674
-0.133713
0.00694773
-0.130848
0.00732018
-0.127996
0.00766745
-0.125184
0.00799278
-0.122431
0.00829909
-0.119752
0.00858888
-0.117157
0.00886417
-0.114655
0.0091264
-0.112247
0.00937647
-0.109936
0.00961466
-0.107723
0.00984066
-0.105608
0.0100537
-0.103591
0.0102526
-0.101674
0.0104357
-0.099861
0.0105999
-0.0981554
0.0107442
-0.0965702
-0.0951388
0.0108876
0.000205878
-0.163697
0.000556881
-0.159987
0.00102304
-0.157433
0.0015719
-0.155441
0.00216756
-0.153636
0.0027803
-0.15179
0.0033881
-0.149785
0.00397578
-0.147576
0.00453375
-0.145162
0.00505684
-0.142569
0.00554318
-0.139837
0.00599322
-0.13701
0.00640897
-0.134129
0.00679335
-0.131233
0.00714968
-0.128353
0.0074814
-0.125516
0.00779175
-0.122741
0.00808365
-0.120044
0.00835954
-0.117433
0.00862132
-0.114916
0.00887029
-0.112496
0.00910707
-0.110173
0.0093315
-0.107948
0.00954257
-0.105819
0.00973827
-0.103787
0.00991538
-0.101851
0.0100683
-0.100014
0.0101859
-0.0982731
0.0102535
-0.0966377
-0.0952059
0.0103206
0.167131
0.000144518
-0.167275
0.167008
0.000122622
0.166894
0.000114182
0.166783
0.000110696
0.166674
0.000109528
0.166564
0.000109748
0.166453
0.000110741
0.166341
0.000112101
0.166228
0.000113586
0.166113
0.000115081
0.165996
0.000116521
0.165878
0.000117876
0.165759
0.000119137
0.165639
0.000120299
0.165517
0.000121364
0.165395
0.000122332
0.165272
0.000123205
0.165148
0.000123985
0.165023
0.000124668
0.164898
0.000125252
0.164772
0.000125726
0.164646
0.000126074
0.16452
0.000126257
0.164394
0.000126222
0.164268
0.000125856
0.164143
0.000124944
0.16402
0.000123023
0.163901
0.000119084
0.163791
0.000110025
9.41276e-05
0.168087
0.00036446
-0.168307
0.167857
0.000352277
0.167624
0.000347556
0.167387
0.000347486
0.167147
0.000349812
0.166903
0.000353699
0.166655
0.000358633
0.166403
0.000364169
0.166146
0.00036998
0.165886
0.000375849
0.165621
0.000381647
0.165351
0.000387292
0.165078
0.000392724
0.1648
0.000397916
0.164518
0.000402847
0.164233
0.000407502
0.163945
0.000411877
0.163653
0.000415964
0.163358
0.000419752
0.16306
0.00042323
0.162759
0.000426374
0.162456
0.000429147
0.162151
0.00043148
0.161844
0.000433261
0.161535
0.0004343
0.161226
0.000434261
0.160916
0.000432544
0.160607
0.000428177
0.160298
0.000419107
0.000405644
0.168301
0.000612663
-0.168549
0.168035
0.000618012
0.167756
0.000625885
0.167468
0.000636249
0.167169
0.000648053
0.166862
0.000660772
0.166547
0.00067413
0.166223
0.000687846
0.165892
0.000701672
0.165552
0.000715413
0.165205
0.00072893
0.16485
0.000742122
0.164488
0.000754917
0.164118
0.000767262
0.163742
0.000779124
0.163359
0.000790476
0.16297
0.0008013
0.162574
0.000811583
0.162172
0.000821306
0.161765
0.000830451
0.161353
0.000838989
0.160935
0.000846868
0.160512
0.000854012
0.160085
0.000860299
0.159654
0.000865536
0.159219
0.000869427
0.15878
0.000871525
0.158337
0.000871265
0.157888
0.000867642
0.000860941
0.167631
0.000856016
-0.167875
0.167369
0.00088011
0.167091
0.000904483
0.166797
0.000929649
0.16649
0.000955299
0.16617
0.000981155
0.165837
0.00100706
0.165492
0.00103286
0.165135
0.0010584
0.164767
0.00108353
0.164388
0.00110813
0.163998
0.00113213
0.163597
0.00115545
0.163186
0.00117804
0.162766
0.00119987
0.162335
0.00122089
0.161895
0.0012411
0.161446
0.00126047
0.160989
0.00127899
0.160523
0.00129664
0.160048
0.00131338
0.159566
0.00132918
0.159076
0.00134397
0.158579
0.00135763
0.158074
0.00137004
0.157563
0.00138097
0.157044
0.00139014
0.156518
0.00139726
0.155984
0.0014018
0.00140397
0.166116
0.00107011
-0.16633
0.165883
0.00111372
0.165631
0.00115662
0.165361
0.00119927
0.165075
0.00124165
0.164772
0.00128364
0.164454
0.00132515
0.164121
0.00136607
0.163773
0.00140631
0.163411
0.00144576
0.163034
0.00148433
0.162645
0.00152195
0.162242
0.00155856
0.161825
0.00159412
0.161397
0.00162859
0.160956
0.00166196
0.160503
0.00169419
0.160038
0.00172527
0.159562
0.00175519
0.159074
0.00178394
0.158576
0.0018115
0.158068
0.00183783
0.157549
0.0018629
0.15702
0.00188663
0.156481
0.00190892
0.155932
0.00192965
0.155373
0.00194867
0.154805
0.00196582
0.154226
0.00198088
0.00199407
0.163865
0.00124126
-0.164036
0.163674
0.00130511
0.163463
0.00136776
0.163232
0.00142952
0.162983
0.00149045
0.162717
0.00155052
0.162432
0.00160965
0.16213
0.00166779
0.161812
0.00172485
0.161477
0.00178075
0.161126
0.00183542
0.160759
0.00188881
0.160377
0.00194087
0.159979
0.00199155
0.159567
0.00204082
0.15914
0.00208867
0.158699
0.00213507
0.158245
0.00218002
0.157776
0.00222351
0.157295
0.00226555
0.1568
0.00230611
0.156293
0.0023452
0.155773
0.00238278
0.155241
0.00241884
0.154696
0.00245333
0.15414
0.00248618
0.153571
0.00251734
0.15299
0.00254676
0.152397
0.00257437
0.00260043
0.161027
0.0013644
-0.16115
0.160883
0.00144895
0.160719
0.00153199
0.160535
0.00161373
0.160331
0.00169424
0.160108
0.0017735
0.159866
0.00185148
0.159606
0.0019281
0.159327
0.00200332
0.159031
0.00207706
0.158717
0.00214926
0.158386
0.00221988
0.158038
0.00228886
0.157674
0.00235616
0.157293
0.00242177
0.156896
0.00248565
0.156483
0.00254781
0.156055
0.00260823
0.155611
0.00266692
0.155153
0.00272388
0.15468
0.00277914
0.154192
0.00283269
0.153691
0.00288454
0.153175
0.00293471
0.152645
0.00298319
0.152101
0.00302998
0.151543
0.00307508
0.150972
0.00311853
0.150386
0.00316032
0.00320074
0.157761
0.00144034
-0.157837
0.157664
0.00154567
0.157547
0.00164929
0.157409
0.00175133
0.157251
0.00185183
0.157074
0.00195079
0.156878
0.00204818
0.156662
0.00214393
0.156427
0.00223801
0.156174
0.00233033
0.155902
0.00242086
0.155612
0.00250953
0.155305
0.00259631
0.15498
0.00268115
0.154638
0.00276403
0.154278
0.00284493
0.153902
0.00292385
0.15351
0.00300079
0.153101
0.00307576
0.152676
0.00314877
0.152235
0.00321986
0.151779
0.00328906
0.151307
0.0033564
0.15082
0.00342192
0.150318
0.00348567
0.1498
0.00354769
0.149267
0.00360803
0.148719
0.00366678
0.148155
0.00372398
0.00377991
0.154214
0.0014735
-0.154247
0.15416
0.00159935
0.154086
0.00172336
0.153992
0.00184558
0.153877
0.00196605
0.153744
0.00208475
0.15359
0.00220165
0.153417
0.00231669
0.153225
0.00242982
0.153015
0.00254098
0.152786
0.00265011
0.152538
0.00275717
0.152272
0.00286211
0.151988
0.00296489
0.151687
0.00306548
0.151368
0.00316388
0.151032
0.00326008
0.150678
0.00335408
0.150308
0.0034459
0.149922
0.00353558
0.149518
0.00362316
0.149099
0.00370868
0.148663
0.00379222
0.148211
0.00387384
0.147743
0.00395363
0.147259
0.00403168
0.146759
0.00410808
0.146243
0.00418294
0.14571
0.00425636
0.00432859
0.150513
0.00147016
-0.15051
0.150496
0.00161603
0.15046
0.00175997
0.150403
0.00190198
0.150327
0.00204207
0.150232
0.00218022
0.150117
0.00231638
0.149983
0.0024505
0.14983
0.00258252
0.149659
0.00271238
0.149469
0.00284003
0.149261
0.00296541
0.149035
0.00308848
0.14879
0.00320921
0.148528
0.00332755
0.148248
0.00344351
0.147951
0.00355708
0.147637
0.00366827
0.147306
0.00377711
0.146958
0.00388364
0.146593
0.00398792
0.146212
0.00409002
0.145814
0.00419003
0.1454
0.00428806
0.144969
0.00438423
0.144522
0.00447866
0.144059
0.00457149
0.143579
0.00466288
0.143082
0.00475293
0.00484191
0.146761
0.00143728
-0.146728
0.146774
0.00160253
0.146768
0.00176577
0.146743
0.00192698
0.146699
0.00208614
0.146636
0.00224322
0.146554
0.00239816
0.146454
0.00255091
0.146335
0.0027014
0.146198
0.00284957
0.146043
0.00299537
0.145869
0.00313873
0.145678
0.00327962
0.145469
0.003418
0.145243
0.00355383
0.145
0.00368711
0.144739
0.00381783
0.144461
0.00394601
0.144166
0.00407169
0.143855
0.00419492
0.143527
0.00431577
0.143183
0.00443434
0.142822
0.00455073
0.142445
0.00466511
0.142052
0.0047776
0.141642
0.0048884
0.141216
0.00499768
0.140773
0.00510562
0.140314
0.00521239
0.00531823
0.143035
0.00138169
-0.14298
0.143072
0.0015656
0.143091
0.00174743
0.14309
0.00192715
0.143072
0.00210472
0.143035
0.00228008
0.14298
0.00245318
0.142907
0.00262396
0.142816
0.00279234
0.142707
0.00295826
0.142581
0.00312166
0.142437
0.00328249
0.142276
0.00344069
0.142098
0.00359623
0.141903
0.00374907
0.141691
0.0038992
0.141462
0.00404663
0.141216
0.00419138
0.140955
0.00433348
0.140677
0.00447299
0.140382
0.00461002
0.140072
0.00474467
0.139746
0.00487709
0.139403
0.00500744
0.139045
0.00513593
0.138671
0.00526277
0.13828
0.0053882
0.137873
0.00551244
0.13745
0.0056357
0.00575823
0.139394
0.00130965
-0.139322
0.139448
0.00151148
0.139484
0.00171117
0.139503
0.00190867
0.139504
0.00210392
0.139487
0.00229687
0.139452
0.00248745
0.139401
0.00267557
0.139332
0.00286118
0.139246
0.0030442
0.139143
0.00322457
0.139023
0.00340222
0.138887
0.00357711
0.138734
0.0037492
0.138565
0.00391844
0.138379
0.00408484
0.138177
0.00424838
0.13796
0.0044091
0.137726
0.00456703
0.137477
0.00472226
0.137212
0.00487488
0.136932
0.00502503
0.136636
0.00517288
0.136325
0.00531865
0.135998
0.00546256
0.135656
0.00560489
0.135298
0.00574593
0.134925
0.00588597
0.134535
0.00602527
0.00616411
0.135875
0.00122657
-0.135792
0.135941
0.0014456
0.135989
0.00166244
0.136021
0.001877
0.136036
0.00208923
0.136033
0.00229906
0.136015
0.00250641
0.135979
0.0027112
0.135927
0.00291334
0.135858
0.00311278
0.135773
0.00330943
0.135672
0.00350324
0.135555
0.00369414
0.135422
0.0038821
0.135274
0.00406707
0.13511
0.00424905
0.13493
0.00442803
0.134735
0.00460404
0.134525
0.00477713
0.1343
0.00494737
0.13406
0.00511488
0.133805
0.00527983
0.133535
0.0054424
0.133251
0.00560284
0.132952
0.00576144
0.132639
0.00591853
0.13231
0.00607447
0.131966
0.00622963
0.131607
0.00638432
0.0065389
0.132502
0.00113694
-0.132412
0.132575
0.00137252
0.132631
0.00160583
0.132672
0.00183679
0.132695
0.00206533
0.132703
0.00229137
0.132695
0.00251482
0.13267
0.00273559
0.13263
0.0029536
0.132574
0.00316878
0.132503
0.00338104
0.132415
0.00359031
0.132313
0.00379655
0.132195
0.00399969
0.132063
0.00419971
0.131915
0.00439657
0.131753
0.00459028
0.131576
0.00478087
0.131385
0.00496837
0.131179
0.00515289
0.13096
0.00533453
0.130726
0.00551348
0.130479
0.00568996
0.130217
0.00586425
0.129942
0.00603669
0.129653
0.00620769
0.12935
0.00637767
0.129032
0.00654711
0.1287
0.00671644
0.00688606
0.129287
0.00104436
-0.129195
0.129364
0.00129589
0.129425
0.00154508
0.12947
0.00179183
0.129499
0.00203607
0.129513
0.0022777
0.129511
0.00251663
0.129494
0.00275276
0.129461
0.002986
0.129414
0.00321628
0.129351
0.0034435
0.129274
0.0036676
0.129182
0.00388851
0.129075
0.00410618
0.128955
0.00432056
0.12882
0.00453162
0.12867
0.00473937
0.128508
0.00494381
0.128331
0.005145
0.128141
0.00534302
0.127937
0.00553801
0.127721
0.00573015
0.127491
0.00591968
0.127248
0.00610693
0.126993
0.00629229
0.126724
0.00647625
0.126442
0.00665933
0.126147
0.00684213
0.125839
0.0070252
0.00720907
0.126236
0.000951599
-0.126143
0.126313
0.00121857
0.126375
0.00148311
0.126422
0.00174512
0.126453
0.00200451
0.12647
0.00226119
0.126471
0.00251503
0.126458
0.00276596
0.12643
0.00301386
0.126388
0.00325866
0.126331
0.00350025
0.12626
0.00373858
0.126175
0.00397355
0.126076
0.00420512
0.125964
0.00443323
0.125837
0.00465785
0.125698
0.00487896
0.125545
0.00509657
0.125379
0.00531073
0.125201
0.00552152
0.12501
0.00572908
0.124806
0.00593358
0.124591
0.0061353
0.124363
0.0063346
0.124123
0.00653193
0.123872
0.00672784
0.123608
0.006923
0.123332
0.00711813
0.123043
0.00731398
0.00751122
0.123345
0.000860743
-0.123254
0.123421
0.00114271
0.123482
0.00142215
0.123528
0.00169896
0.123559
0.00197303
0.123576
0.00224426
0.123579
0.00251254
0.123567
0.00277775
0.123541
0.00303981
0.123501
0.0032986
0.123447
0.00355405
0.12338
0.00380606
0.123299