/*--------------------------------*- C++ -*----------------------------------*\
  =========                 |
  \\      /  F ield         | OpenFOAM: The Open Source CFD Toolbox
   \\    /   O peration     | Website:  https://openfoam.org
    \\  /    A nd           | Version:  6.0
     \\/     M anipulation  |
\*---------------------------------------------------------------------------*/
FoamFile
{
    version     2.0;
    format      ascii;
    class       volScalarField;
    location    "15";
    object      p;
}
// * * * * * * * * * * * * * * * * * * * * * * * * * * * * * * * * * * * * * //

dimensions      [0 2 -2 0 0 0 0];

internalField   nonuniform List<scalar> 
9600
(
-0.398958
-0.391611
-0.386554
-0.382537
-0.378851
-0.375415
-0.372153
-0.368993
-0.365897
-0.362843
-0.359825
-0.356841
-0.353894
-0.350991
-0.348137
-0.345344
-0.342612
-0.339895
-0.337189
-0.335028
-0.404471
-0.396961
-0.391793
-0.387637
-0.383774
-0.380128
-0.37663
-0.373218
-0.369858
-0.366537
-0.363251
-0.360004
-0.356802
-0.353655
-0.350571
-0.347564
-0.344637
-0.341729
-0.338826
-0.336625
-0.411051
-0.40326
-0.397888
-0.393525
-0.389424
-0.385512
-0.381728
-0.378016
-0.374348
-0.370716
-0.367122
-0.363573
-0.36008
-0.356654
-0.353309
-0.350061
-0.346916
-0.343793
-0.340663
-0.338448
-0.418607
-0.410504
-0.404872
-0.40024
-0.39584
-0.391606
-0.387482
-0.38342
-0.379396
-0.375408
-0.371463
-0.367572
-0.363748
-0.360008
-0.356366
-0.352847
-0.349458
-0.346095
-0.342707
-0.340502
-0.4272
-0.418728
-0.412774
-0.407812
-0.403052
-0.398438
-0.393921
-0.389456
-0.385028
-0.380637
-0.376296
-0.372019
-0.367824
-0.36373
-0.359756
-0.355932
-0.35227
-0.348635
-0.344957
-0.342787
-0.436882
-0.427967
-0.421625
-0.41627
-0.41109
-0.406037
-0.40107
-0.396151
-0.391267
-0.386426
-0.381642
-0.376934
-0.372325
-0.367834
-0.363488
-0.359323
-0.355354
-0.351416
-0.34741
-0.345298
-0.447696
-0.438259
-0.431459
-0.425646
-0.419982
-0.41443
-0.408957
-0.403529
-0.398139
-0.392799
-0.387524
-0.382339
-0.377269
-0.372338
-0.367575
-0.363028
-0.358715
-0.354434
-0.35006
-0.348028
-0.45968
-0.449635
-0.442306
-0.435968
-0.429756
-0.423644
-0.417607
-0.411616
-0.405669
-0.399779
-0.393966
-0.388256
-0.382678
-0.377258
-0.372033
-0.367057
-0.362358
-0.357691
-0.352899
-0.350965
-0.472871
-0.46213
-0.454196
-0.447264
-0.440438
-0.433704
-0.427046
-0.420439
-0.413883
-0.407394
-0.400995
-0.394712
-0.388577
-0.38262
-0.376881
-0.371426
-0.366291
-0.361185
-0.35592
-0.354098
-0.487305
-0.475773
-0.467157
-0.45956
-0.452052
-0.444634
-0.437298
-0.430022
-0.422809
-0.415674
-0.408642
-0.401739
-0.394998
-0.388452
-0.382145
-0.376156
-0.370528
-0.364922
-0.359116
-0.357408
-0.503015
-0.490593
-0.481211
-0.472877
-0.464622
-0.456459
-0.44839
-0.440394
-0.432476
-0.424651
-0.416942
-0.409375
-0.40198
-0.394793
-0.38786
-0.381273
-0.375086
-0.368907
-0.362477
-0.360874
-0.52003
-0.506611
-0.496381
-0.487238
-0.478167
-0.469201
-0.460345
-0.451583
-0.442917
-0.434361
-0.425935
-0.417662
-0.409568
-0.401688
-0.39407
-0.386816
-0.379992
-0.373149
-0.365992
-0.364459
-0.53837
-0.523846
-0.512681
-0.502656
-0.492706
-0.482878
-0.473188
-0.463616
-0.454165
-0.444843
-0.435666
-0.42665
-0.417817
-0.409194
-0.400828
-0.392831
-0.385278
-0.377659
-0.369639
-0.36811
-0.55805
-0.542307
-0.53012
-0.519141
-0.508249
-0.497508
-0.486938
-0.47652
-0.466252
-0.456137
-0.446183
-0.436396
-0.426789
-0.417378
-0.408203
-0.39938
-0.390989
-0.382452
-0.373388
-0.371739
-0.579072
-0.561991
-0.548696
-0.536695
-0.524804
-0.513101
-0.501614
-0.490319
-0.47921
-0.468284
-0.457536
-0.446962
-0.436559
-0.426325
-0.416284
-0.406546
-0.397186
-0.387545
-0.377182
-0.375193
-0.601424
-0.582885
-0.568397
-0.55531
-0.542366
-0.529661
-0.517225
-0.505032
-0.493069
-0.481324
-0.469782
-0.458421
-0.447217
-0.436144
-0.425194
-0.414455
-0.403978
-0.392989
-0.380956
-0.378249
-0.625081
-0.604957
-0.589196
-0.574966
-0.560924
-0.547182
-0.533774
-0.520671
-0.507852
-0.495297
-0.482977
-0.470853
-0.458877
-0.446986
-0.435128
-0.423344
-0.411633
-0.399051
-0.384855
-0.38078
-0.650024
-0.628166
-0.61105
-0.595627
-0.580451
-0.565647
-0.551253
-0.537237
-0.523571
-0.510229
-0.497171
-0.484341
-0.471662
-0.45903
-0.44633
-0.433528
-0.420537
-0.40612
-0.388937
-0.382074
-0.676236
-0.652443
-0.63389
-0.617238
-0.600904
-0.585023
-0.569639
-0.554715
-0.540225
-0.526139
-0.51241
-0.49897
-0.485719
-0.472501
-0.459108
-0.445358
-0.430911
-0.413791
-0.391097
-0.377559
-0.703339
-0.677601
-0.657617
-0.639728
-0.622226
-0.60526
-0.588885
-0.573066
-0.557781
-0.543008
-0.52871
-0.514833
-0.50129
-0.487933
-0.474534
-0.460792
-0.445976
-0.427096
-0.399175
-0.37625
-1.17845
-1.17291
-1.16362
-1.15112
-1.13566
-1.11748
-1.09687
-1.07412
-1.04952
-1.02334
-0.995874
-0.967382
-0.938119
-0.908327
-0.878233
-0.848044
-0.817955
-0.788124
-0.758685
-0.730031
-1.12793
-1.12246
-1.11351
-1.10147
-1.0866
-1.06918
-1.04947
-1.02776
-1.00433
-0.979448
-0.953382
-0.926387
-0.898706
-0.870569
-0.842192
-0.813776
-0.78551
-0.757565
-0.730104
-0.70336
-1.0858
-1.08067
-1.07223
-1.06081
-1.04665
-1.03003
-1.01122
-0.990491
-0.968123
-0.94438
-0.919519
-0.893788
-0.867424
-0.84065
-0.813675
-0.786694
-0.759888
-0.733424
-0.707463
-0.682163
-1.04589
-1.04139
-1.0337
-1.02309
-1.00981
-0.994124
-0.976306
-0.956622
-0.935341
-0.912725
-0.889027
-0.864492
-0.839352
-0.813826
-0.788119
-0.762422
-0.736909
-0.711743
-0.687074
-0.66304
-1.00538
-1.00177
-0.995032
-0.985432
-0.97321
-0.958621
-0.941927
-0.923394
-0.903285
-0.881856
-0.85936
-0.836037
-0.812117
-0.787816
-0.763339
-0.738871
-0.714588
-0.690646
-0.667189
-0.644349
-0.96484
-0.962293
-0.956684
-0.948255
-0.937235
-0.923869
-0.908413
-0.891123
-0.872256
-0.852068
-0.830804
-0.808702
-0.785992
-0.762888
-0.739591
-0.716291
-0.693159
-0.670354
-0.648018
-0.626281
-0.924635
-0.923275
-0.918913
-0.911767
-0.902056
-0.890013
-0.875881
-0.859909
-0.842347
-0.823443
-0.803439
-0.78257
-0.76106
-0.739125
-0.716964
-0.694768
-0.67271
-0.650952
-0.629639
-0.608905
-0.884979
-0.884868
-0.881816
-0.876022
-0.867688
-0.857033
-0.84429
-0.829694
-0.813487
-0.795908
-0.777193
-0.75757
-0.73726
-0.716475
-0.695415
-0.674269
-0.653214
-0.632416
-0.612027
-0.592193
-0.846101
-0.847248
-0.845522
-0.841103
-0.834177
-0.824947
-0.813629
-0.800449
-0.785634
-0.769413
-0.752012
-0.733653
-0.714548
-0.694905
-0.67492
-0.654779
-0.634662
-0.61474
-0.595177
-0.57613
-0.808218
-0.810589
-0.810166
-0.80711
-0.801587
-0.793787
-0.783909
-0.772162
-0.75876
-0.743921
-0.727858
-0.710781
-0.692894
-0.674394
-0.655468
-0.636299
-0.617063
-0.597937
-0.579094
-0.560712
-0.771517
-0.775044
-0.775869
-0.77413
-0.769979
-0.763587
-0.755136
-0.744822
-0.732842
-0.719398
-0.704692
-0.688917
-0.672266
-0.654919
-0.637053
-0.618835
-0.600435
-0.582026
-0.563792
-0.545931
-0.736141
-0.740737
-0.742729
-0.74224
-0.739403
-0.734374
-0.72732
-0.718418
-0.707852
-0.695808
-0.682471
-0.66802
-0.652629
-0.636461
-0.619668
-0.602399
-0.584804
-0.567042
-0.5493
-0.531787
-0.702198
-0.707759
-0.710824
-0.711497
-0.7099
-0.706172
-0.700463
-0.692938
-0.683764
-0.673113
-0.661152
-0.648046
-0.633946
-0.618992
-0.603309
-0.587013
-0.570216
-0.553045
-0.535669
-0.51829
-0.669759
-0.676176
-0.680208
-0.681947
-0.6815
-0.678994
-0.674567
-0.668367
-0.66055
-0.651274
-0.64069
-0.628947
-0.616175
-0.602488
-0.587975
-0.572707
-0.556738
-0.540128
-0.522998
-0.505474
-0.638862
-0.646024
-0.650914
-0.653613
-0.65422
-0.652847
-0.649624
-0.644686
-0.638179
-0.630248
-0.621033
-0.610668
-0.599265
-0.58691
-0.573656
-0.559517
-0.544462
-0.528438
-0.51146
-0.493446
-0.609521
-0.617314
-0.62295
-0.626501
-0.628055
-0.627718
-0.625609
-0.621856
-0.616596
-0.609965
-0.602097
-0.593115
-0.583118
-0.57217
-0.560289
-0.547427
-0.53345
-0.51813
-0.501304
-0.482443
-0.581729
-0.590047
-0.596318
-0.600609
-0.603001
-0.603593
-0.602496
-0.599836
-0.595741
-0.590345
-0.583779
-0.576162
-0.567588
-0.558111
-0.547725
-0.536332
-0.523678
-0.509301
-0.492779
-0.472729
-0.555458
-0.564233
-0.571067
-0.57602
-0.57917
-0.58061
-0.58045
-0.578808
-0.575815
-0.571603
-0.566305
-0.560045
-0.55292
-0.544992
-0.536252
-0.526577
-0.515618
-0.502628
-0.486719
-0.464556
-0.530625
-0.539835
-0.547207
-0.5528
-0.556689
-0.558967
-0.559741
-0.559133
-0.557274
-0.554302
-0.550359
-0.545579
-0.540077
-0.533936
-0.527177
-0.519715
-0.511207
-0.50071
-0.486671
-0.461046
-0.507125
-0.516394
-0.523942
-0.529824
-0.534118
-0.536914
-0.538324
-0.538471
-0.537495
-0.535547
-0.532786
-0.529371
-0.525455
-0.521178
-0.516649
-0.51194
-0.506947
-0.501073
-0.493815
-0.473444
-0.419254
-0.489888
-0.558239
-0.624493
-0.688243
-0.749107
-0.806762
-0.860915
-0.911304
-0.9577
-0.999911
-1.03778
-1.0712
-1.10008
-1.1244
-1.14415
-1.15938
-1.17016
-1.17657
-1.17898
-0.404327
-0.472302
-0.538185
-0.601897
-0.663088
-0.721425
-0.776612
-0.828379
-0.876481
-0.920706
-0.960875
-0.996847
-1.02852
-1.05583
-1.07875
-1.09729
-1.11152
-1.12151
-1.12737
-1.12935
-0.382201
-0.448116
-0.512125
-0.574013
-0.63345
-0.69012
-0.743738
-0.794041
-0.840791
-0.883782
-0.922841
-0.95783
-0.98865
-1.01524
-1.03757
-1.05567
-1.06958
-1.07939
-1.08521
-1.08723
-0.354123
-0.418157
-0.480462
-0.540768
-0.598751
-0.654102
-0.706538
-0.755798
-0.801647
-0.843879
-0.882319
-0.916828
-0.947305
-0.973682
-0.995931
-1.01406
-1.02812
-1.03819
-1.04437
-1.04683
-0.322246
-0.384336
-0.444879
-0.50358
-0.560119
-0.614194
-0.665524
-0.713849
-0.758934
-0.800571
-0.838582
-0.872825
-0.903191
-0.929605
-0.952033
-0.970472
-0.98496
-0.995566
-1.00238
-1.00556
-0.288673
-0.348751
-0.407461
-0.464503
-0.519564
-0.572347
-0.622577
-0.669993
-0.714361
-0.755471
-0.793143
-0.827226
-0.857607
-0.884201
-0.906963
-0.925881
-0.940977
-0.952307
-0.959953
-0.964042
-0.255008
-0.313014
-0.369826
-0.425145
-0.478671
-0.530117
-0.579207
-0.625688
-0.669323
-0.709902
-0.747242
-0.781189
-0.811621
-0.838445
-0.861606
-0.881079
-0.896873
-0.909029
-0.917614
-0.922737
-0.22238
-0.27827
-0.333128
-0.386667
-0.4386
-0.488646
-0.536537
-0.582021
-0.624866
-0.664861
-0.701822
-0.735591
-0.766041
-0.793074
-0.816622
-0.83665
-0.853153
-0.866159
-0.87572
-0.881924
-0.191523
-0.245276
-0.29815
-0.34987
-0.400163
-0.448756
-0.495386
-0.539807
-0.581789
-0.621123
-0.657627
-0.691142
-0.721537
-0.748708
-0.772581
-0.793109
-0.810278
-0.824099
-0.834612
-0.841888
-0.162854
-0.214476
-0.265362
-0.315252
-0.363881
-0.410985
-0.456307
-0.499605
-0.540652
-0.579247
-0.615207
-0.648376
-0.678621
-0.705837
-0.729942
-0.750884
-0.768635
-0.783199
-0.794599
-0.80289
-0.136564
-0.186081
-0.235001
-0.283074
-0.330041
-0.375643
-0.419628
-0.461757
-0.501811
-0.539594
-0.574927
-0.607657
-0.637655
-0.664811
-0.689043
-0.710292
-0.728524
-0.74373
-0.755924
-0.765147
-0.112677
-0.16013
-0.20713
-0.253424
-0.298754
-0.342863
-0.385501
-0.426435
-0.465453
-0.502365
-0.536999
-0.569207
-0.598863
-0.625859
-0.650111
-0.671557
-0.690157
-0.705895
-0.718775
-0.728824
-0.0911144
-0.136551
-0.181694
-0.226269
-0.270008
-0.312652
-0.353953
-0.393683
-0.431639
-0.467637
-0.501515
-0.533131
-0.562362
-0.589106
-0.613277
-0.634814
-0.653671
-0.669826
-0.683277
-0.694042
-0.0717271
-0.115189
-0.15856
-0.201493
-0.243703
-0.284928
-0.324918
-0.363452
-0.400334
-0.435393
-0.468474
-0.499443
-0.528183
-0.554595
-0.578598
-0.600126
-0.619136
-0.6356
-0.64951
-0.660876
-0.0543248
-0.0958552
-0.137558
-0.178943
-0.219701
-0.259564
-0.298281
-0.335639
-0.371452
-0.405559
-0.437817
-0.468099
-0.496296
-0.522312
-0.54607
-0.567506
-0.586574
-0.603244
-0.617506
-0.629363
-0.0386847
-0.0783794
-0.118562
-0.158506
-0.197895
-0.236459
-0.273946
-0.310152
-0.344907
-0.378059
-0.409477
-0.439044
-0.466655
-0.492222
-0.515669
-0.536936
-0.555976
-0.57276
-0.587272
-0.599514
-0.0245141
-0.0625154
-0.101381
-0.139998
-0.1781
-0.215429
-0.251733
-0.28682
-0.320535
-0.352741
-0.383316
-0.412151
-0.43915
-0.464229
-0.487317
-0.508354
-0.527297
-0.544113
-0.558787
-0.571316
-0.0111935
-0.0472673
-0.0850293
-0.12249
-0.159442
-0.195651
-0.230868
-0.26492
-0.29767
-0.328993
-0.358778
-0.386924
-0.413342
-0.437953
-0.460688
-0.481491
-0.500318
-0.517137
-0.531932
-0.544699
0.00232423
-0.0313417
-0.0683453
-0.104999
-0.141099
-0.176414
-0.210724
-0.243894
-0.27581
-0.306363
-0.335453
-0.36299
-0.388891
-0.413083
-0.435501
-0.456092
-0.474815
-0.49164
-0.506549
-0.519538
0.0130861
-0.0212144
-0.0583864
-0.0943728
-0.129618
-0.163944
-0.197157
-0.229194
-0.259983
-0.28944
-0.317482
-0.344033
-0.369023
-0.39239
-0.414078
-0.434042
-0.452246
-0.468664
-0.483282
-0.496098
0.534062
0.544579
0.555467
0.566628
0.57804
0.589675
0.601485
0.613405
0.62536
0.63726
0.649011
0.660523
0.671727
0.682609
0.693269
0.704
0.715244
0.727672
0.744595
0.771609
0.522673
0.532591
0.543055
0.553741
0.564615
0.575667
0.586843
0.598072
0.60927
0.620341
0.631182
0.641695
0.651808
0.661506
0.670897
0.680294
0.690188
0.701324
0.717149
0.74347
0.509371
0.518544
0.528493
0.538609
0.548837
0.559186
0.569604
0.580009
0.590307
0.600397
0.610168
0.619516
0.628365
0.636704
0.644654
0.652555
0.660948
0.670669
0.68529
0.710783
0.494186
0.502473
0.511819
0.52127
0.530745
0.540278
0.549814
0.559263
0.568524
0.577485
0.58603
0.594051
0.60147
0.608281
0.614623
0.620869
0.627614
0.635786
0.649051
0.673474
0.477155
0.48442
0.49308
0.501775
0.510391
0.518996
0.527532
0.535899
0.543986
0.551675
0.558844
0.565381
0.571209
0.576332
0.580907
0.585343
0.590299
0.596791
0.608563
0.631714
0.45832
0.464437
0.472331
0.48018
0.487838
0.495406
0.502828
0.50999
0.516775
0.523056
0.528705
0.533609
0.537694
0.540974
0.543632
0.546115
0.549148
0.553841
0.563993
0.585698
0.437728
0.442581
0.449635
0.456553
0.463156
0.469586
0.475785
0.481628
0.486987
0.491731
0.495725
0.498856
0.501054
0.50235
0.50295
0.503349
0.504336
0.507118
0.515536
0.535634
0.415432
0.418915
0.425062
0.430969
0.436428
0.441623
0.446498
0.450914
0.454734
0.457819
0.460034
0.461261
0.461442
0.460622
0.459039
0.457233
0.456064
0.456838
0.463417
0.481755
0.391486
0.393509
0.398688
0.403511
0.407742
0.411615
0.415073
0.417963
0.420139
0.421456
0.421776
0.420984
0.419029
0.415976
0.412098
0.407982
0.404563
0.403242
0.407887
0.424323
0.365945
0.366434
0.370595
0.374267
0.377196
0.379669
0.381626
0.382902
0.38334
0.382791
0.381114
0.378199
0.374004
0.368618
0.362348
0.355834
0.350085
0.346598
0.349225
0.363625
0.338867
0.337765
0.340869
0.343334
0.344897
0.345901
0.346286
0.34587
0.344489
0.341989
0.338228
0.3331
0.326578
0.318774
0.310034
0.30105
0.292907
0.287195
0.287734
0.299973
0.310309
0.30758
0.309602
0.310814
0.310958
0.310439
0.309192
0.30702
0.303751
0.299229
0.293311
0.285897
0.276977
0.266689
0.255418
0.243912
0.233328
0.225349
0.223739
0.233702
0.280328
0.275963
0.276892
0.276819
0.275506
0.273422
0.270497
0.266519
0.261309
0.254707
0.246574
0.236819
0.225446
0.212625
0.198782
0.184719
0.171666
0.161393
0.157586
0.165169
0.248986
0.243003
0.242848
0.241473
0.23868
0.235005
0.23037
0.224549
0.217357
0.208635
0.198245
0.186107
0.172246
0.156863
0.140425
0.12379
0.108257
0.0956768
0.0896396
0.0947497
0.216349
0.208803
0.207591
0.204918
0.20064
0.195362
0.188998
0.18131
0.17211
0.161239
0.148565
0.134021
0.117654
0.0996969
0.0806614
0.0614573
0.0434521
0.0285673
0.0202777
0.0228364
0.182486
0.173477
0.171269
0.167321
0.16157
0.154691
0.146592
0.137025
0.1258
0.112763
0.0977914
0.0808334
0.0619596
0.0414356
0.0198182
-0.00193266
-0.0223872
-0.0395588
-0.0501096
-0.0501652
0.147475
0.13716
0.13406
0.12889
0.121693
0.113224
0.103389
0.0919338
0.0786746
0.063465
0.0461946
0.0268284
0.00546261
-0.0176026
-0.0417677
-0.0660253
-0.0888894
-0.108318
-0.121127
-0.123839
0.11148
0.10013
0.0963009
0.0899458
0.0813064
0.0712432
0.0596599
0.0463032
0.031
0.0136158
-0.00594599
-0.0277014
-0.0515279
-0.0770911
-0.103751
-0.130457
-0.155675
-0.177318
-0.192366
-0.197742
0.0739143
0.0624559
0.0583518
0.0508662
0.0407563
0.0290622
0.0156935
0.000406829
-0.0169546
-0.036512
-0.0583478
-0.0824588
-0.108697
-0.136695
-0.165775
-0.19485
-0.222348
-0.246147
-0.263402
-0.271409
0.0330831
0.0236509
0.0199088
0.0115881
0.000198775
-0.0130859
-0.0282661
-0.045509
-0.0649374
-0.0866571
-0.110736
-0.137153
-0.165735
-0.196085
-0.227495
-0.25885
-0.288551
-0.314468
-0.333993
-0.344834
0.363384
0.365541
0.374208
0.380255
0.384426
0.387933
0.391047
0.393836
0.396407
0.398892
0.401449
0.40428
0.407637
0.411822
0.417157
0.423932
0.432285
0.441998
0.452042
0.459667
0.393394
0.393347
0.400047
0.405758
0.410348
0.414596
0.41863
0.422443
0.426094
0.429684
0.433353
0.437282
0.441712
0.446932
0.453266
0.461015
0.470345
0.481086
0.492525
0.502555
0.418018
0.418024
0.424212
0.430174
0.435408
0.440446
0.44538
0.45018
0.454877
0.459552
0.464319
0.469343
0.474846
0.481101
0.488428
0.497137
0.507416
0.519144
0.531926
0.544263
0.439585
0.440534
0.446965
0.453427
0.459367
0.465213
0.471037
0.476805
0.482528
0.488267
0.49412
0.50023
0.506799
0.514086
0.522397
0.532051
0.543252
0.555922
0.569952
0.584387
0.45928
0.461352
0.468255
0.475315
0.481998
0.488664
0.495377
0.502096
0.508826
0.515609
0.522526
0.529702
0.537319
0.545616
0.554889
0.565455
0.577534
0.591086
0.606273
0.622663
0.477226
0.480462
0.487934
0.495652
0.503108
0.510605
0.518201
0.525856
0.533568
0.541367
0.549319
0.557531
0.566165
0.575439
0.585635
0.597067
0.609966
0.624328
0.64058
0.658802
0.49349
0.497882
0.505954
0.514344
0.522572
0.53089
0.539348
0.547911
0.556571
0.565348
0.574294
0.583499
0.593105
0.60331
0.614377
0.626617
0.640267
0.655358
0.672573
0.692505
0.508089
0.513601
0.52227
0.531314
0.540288
0.549395
0.558679
0.568108
0.577668
0.587372
0.597258
0.607399
0.617918
0.628991
0.640864
0.65384
0.66816
0.68389
0.701963
0.723473
0.521011
0.527585
0.536826
0.546487
0.556163
0.566012
0.57607
0.586308
0.596707
0.607273
0.61803
0.629037
0.640394
0.652259
0.664857
0.678483
0.693382
0.709652
0.728469
0.751418
0.532229
0.539792
0.549566
0.559792
0.570111
0.580641
0.591408
0.602384
0.613548
0.624896
0.636443
0.648229
0.660336
0.672901
0.68613
0.700307
0.715681
0.732384
0.751825
0.776067
0.541711
0.550176
0.560431
0.571161
0.582054
0.59319
0.604589
0.616221
0.628063
0.640102
0.652341
0.664807
0.677562
0.690721
0.704471
0.719087
0.734823
0.751841
0.77178
0.797161
0.549421
0.558686
0.569364
0.580527
0.591914
0.603575
0.615516
0.627712
0.640133
0.65276
0.665583
0.678616
0.691901
0.705535
0.719685
0.734617
0.750589
0.767799
0.788103
0.814464
0.555322
0.565276
0.576308
0.587827
0.599624
0.611716
0.624104
0.63676
0.649652
0.662752
0.67604
0.689515
0.703202
0.717177
0.731593
0.746706
0.76278
0.780051
0.800582
0.827759
0.559379
0.569898
0.581212
0.593006
0.605118
0.617543
0.630274
0.643281
0.656526
0.669975
0.683598
0.697378
0.711327
0.725501
0.740037
0.755185
0.771218
0.788412
0.809031
0.836854
0.561558
0.572512
0.584029
0.596011
0.608341
0.620996
0.633959
0.647197
0.660671
0.674338
0.688156
0.702098
0.716157
0.730376
0.744877
0.759905
0.775748
0.792722
0.813284
0.841583
0.561832
0.573083
0.584718
0.5968
0.609246
0.62202
0.635099
0.648447
0.662019
0.675764
0.689631
0.70358
0.717592
0.731693
0.745995
0.760742
0.776237
0.792845
0.813202
0.841806
0.560177
0.571581
0.583248
0.595337
0.607794
0.620576
0.63365
0.64698
0.660512
0.674191
0.687955
0.701752
0.71555
0.729363
0.743295
0.757592
0.772577
0.788668
0.808675
0.837414
0.556577
0.567987
0.579597
0.591598
0.603958
0.61663
0.629578
0.642757
0.656111
0.669573
0.683077
0.696556
0.709969
0.723319
0.736704
0.750378
0.764686
0.780107
0.799617
0.828336
0.551023
0.562287
0.573749
0.585566
0.59772
0.610166
0.62286
0.635755
0.648786
0.661881
0.674962
0.687955
0.700807
0.713514
0.726172
0.739044
0.752505
0.7671
0.785973
0.814542
0.543514
0.55448
0.565701
0.577238
0.589075
0.601175
0.61349
0.625964
0.638528
0.651102
0.663598
0.675934
0.688048
0.699932
0.71168
0.723569
0.736009
0.749611
0.767663
0.795853
0.350631
0.332333
0.308008
0.282592
0.256645
0.230513
0.204447
0.178544
0.152882
0.127543
0.102605
0.0781391
0.0542106
0.0308791
0.00819765
-0.0137882
-0.0350406
-0.0555309
-0.0752386
-0.0941523
0.350565
0.331844
0.308124
0.282667
0.256508
0.230027
0.203475
0.17701
0.150754
0.12481
0.0992719
0.074222
0.0497359
0.0258813
0.00271787
-0.0197031
-0.0413393
-0.062158
-0.0821358
-0.101257
0.353863
0.331862
0.307026
0.28095
0.254245
0.227195
0.200048
0.172989
0.146157
0.11967
0.0936308
0.0681316
0.0432538
0.0190702
-0.00435581
-0.02697
-0.048728
-0.0695956
-0.0895485
-0.108571
0.356907
0.332664
0.306726
0.27984
0.252392
0.224632
0.196794
0.16907
0.141608
0.114538
0.0879699
0.0620032
0.0367247
0.0122108
-0.0114724
-0.0342692
-0.056135
-0.077036
-0.0969491
-0.11586
0.359282
0.333487
0.306517
0.278755
0.250499
0.221981
0.193425
0.165019
0.13692
0.109265
0.0821716
0.0557459
0.0300794
0.00525191
-0.0186683
-0.041625
-0.0635736
-0.084482
-0.104329
-0.123104
0.361324
0.334145
0.306095
0.277396
0.248287
0.218984
0.189696
0.160607
0.131881
0.103659
0.0760664
0.0492134
0.0231957
-0.00190405
-0.0260166
-0.0490856
-0.0710681
-0.0919347
-0.111667
-0.13026
0.36311
0.334628
0.30547
0.275792
0.245798
0.215686
0.185655
0.155887
0.126547
0.0977809
0.0697191
0.0424751
0.0161475
-0.0091797
-0.0334372
-0.0565701
-0.0785381
-0.0993157
-0.118889
-0.137259
0.364658
0.334945
0.304682
0.274008
0.243109
0.212176
0.1814
0.150961
0.121026
0.0917426
0.0632441
0.0356468
0.0090504
-0.016461
-0.0408196
-0.0639731
-0.0858854
-0.106536
-0.125918
-0.144037
0.366034
0.335144
0.303789
0.272117
0.24031
0.208555
0.177041
0.145947
0.115439
0.0856679
0.0567672
0.0288541
0.00202822
-0.023628
-0.0480494
-0.0711881
-0.0930135
-0.113512
-0.132681
-0.150539
0.367352
0.335321
0.302896
0.270235
0.237527
0.204961
0.172724
0.140995
0.10994
0.0797102
0.0504396
0.0222443
-0.00477803
-0.030548
-0.0550048
-0.0781062
-0.0998281
-0.120164
-0.13912
-0.156722
0.368764
0.335628
0.302158
0.268528
0.234936
0.201576
0.168635
0.136293
0.104716
0.0740531
0.0444381
0.0159843
-0.0112138
-0.0370813
-0.0615631
-0.0846234
-0.106246
-0.126432
-0.145194
-0.162571
0.370474
0.33627
0.301788
0.267216
0.232762
0.198628
0.165002
0.132065
0.0999821
0.0689016
0.0389534
0.010248
-0.0171247
-0.0430955
-0.0676155
-0.0906564
-0.112209
-0.132284
-0.150901
-0.168108
0.372739
0.337505
0.302046
0.266561
0.231269
0.196377
0.162078
0.128553
0.095966
0.0644629
0.0341707
0.00519521
-0.0223788
-0.0484882
-0.0730908
-0.0961654
-0.117711
-0.137745
-0.156293
-0.173414
0.375862
0.339635
0.303231
0.266854
0.230737
0.195092
0.160115
0.125988
0.092873
0.0609143
0.0302351
0.000936633
-0.0269015
-0.0532218
-0.0779887
-0.101187
-0.122823
-0.142919
-0.161506
-0.178653
0.380161
0.342967
0.305635
0.268371
0.23142
0.195
0.15931
0.124532
0.0908282
0.0583404
0.0271888
-0.0025292
-0.0307383
-0.0573859
-0.0824411
-0.105894
-0.127755
-0.148051
-0.166816
-0.184126
0.385904
0.347744
0.30947
0.271288
0.233455
0.196195
0.159712
0.124187
0.0897836
0.0566419
0.0248807
-0.00540463
-0.0341414
-0.0612795
-0.0867911
-0.110669
-0.132926
-0.15359
-0.172694
-0.190322
0.3932
0.354038
0.314765
0.275589
0.236779
0.198568
0.161161
0.124742
0.0894762
0.0555054
0.0229489
-0.00809751
-0.0375609
-0.0653911
-0.09156
-0.116061
-0.138905
-0.160121
-0.179737
-0.197841
0.401798
0.361542
0.321155
0.280854
0.24092
0.201593
0.163081
0.125573
0.0892385
0.054223
0.0206496
-0.0113819
-0.0417951
-0.0705364
-0.0975747
-0.1229
-0.146522
-0.168465
-0.188753
-0.20747
0.410528
0.368788
0.326876
0.285056
0.243605
0.202764
0.162747
0.123752
0.0859547
0.0495096
0.0145484
-0.018821
-0.050514
-0.0804701
-0.108652
-0.135046
-0.159656
-0.182509
-0.203635
-0.223087
0.416536
0.37235
0.327984
0.283808
0.240045
0.196921
0.15466
0.113469
0.073538
0.0350363
-0.00189028
-0.0371196
-0.0705546
-0.102124
-0.131782
-0.159509
-0.185313
-0.209236
-0.231356
-0.251649
-0.112289
-0.129632
-0.146214
-0.162065
-0.177224
-0.191738
-0.205659
-0.219044
-0.231953
-0.244442
-0.256571
-0.268395
-0.279973
-0.291362
-0.302631
-0.313863
-0.324972
-0.335542
-0.345558
-0.341327
-0.119543
-0.136964
-0.153554
-0.169341
-0.184359
-0.198649
-0.21226
-0.225241
-0.237644
-0.249519
-0.260914
-0.271875
-0.282438
-0.292631
-0.302451
-0.311834
-0.320473
-0.327555
-0.331705
-0.323292
-0.126689
-0.143865
-0.160137
-0.175536
-0.190097
-0.203863
-0.216884
-0.229213
-0.240902
-0.252005
-0.262571
-0.27264
-0.282242
-0.291383
-0.300021
-0.30802
-0.315006
-0.320243
-0.322757
-0.317864
-0.133804
-0.150736
-0.166703
-0.181739
-0.195884
-0.209185
-0.221695
-0.233471
-0.244569
-0.255044
-0.264946
-0.274314
-0.283174
-0.29152
-0.299297
-0.306362
-0.312392
-0.316832
-0.319016
-0.316546
-0.140853
-0.157522
-0.173169
-0.187835
-0.201563
-0.214406
-0.226422
-0.237671
-0.248214
-0.25811
-0.267409
-0.276154
-0.284368
-0.292047
-0.29914
-0.305526
-0.310955
-0.315035
-0.31729
-0.31643
-0.147769
-0.164136
-0.17943
-0.193698
-0.20699
-0.219363
-0.230883
-0.241614
-0.251622
-0.26097
-0.269714
-0.277899
-0.285552
-0.292675
-0.299233
-0.305131
-0.310192
-0.314148
-0.31668
-0.31713
-0.154496
-0.170532
-0.185451
-0.199309
-0.21216
-0.224071
-0.23511
-0.245351
-0.254864
-0.263716
-0.271969
-0.279671
-0.286858
-0.29354
-0.299697
-0.305262
-0.310114
-0.314075
-0.31694
-0.318388
-0.160982
-0.176676
-0.191216
-0.204668
-0.217094
-0.228567
-0.239161
-0.248956
-0.258027
-0.266446
-0.27428
-0.281583
-0.288396
-0.294737
-0.3006
-0.305942
-0.310681
-0.314698
-0.317857
-0.320007
-0.167189
-0.182544
-0.196719
-0.209789
-0.221822
-0.232896
-0.243094
-0.252498
-0.26119
-0.269246
-0.276736
-0.283718
-0.290237
-0.296321
-0.301971
-0.307162
-0.311837
-0.315913
-0.319299
-0.321919
-0.173095
-0.188135
-0.201978
-0.214706
-0.226394
-0.237126
-0.246988
-0.256069
-0.264452
-0.272216
-0.279435
-0.286169
-0.292466
-0.298357
-0.303851
-0.308933
-0.313562
-0.317679
-0.321216
-0.324135
-0.178705
-0.193477
-0.207041
-0.219488
-0.230896
-0.241355
-0.250955
-0.259786
-0.267935
-0.275481
-0.2825
-0.289051
-0.295185
-0.300933
-0.306309
-0.311302
-0.315885
-0.32001
-0.323627
-0.326713
-0.184068
-0.198641
-0.212
-0.224244
-0.235455
-0.245723
-0.255143
-0.263804
-0.271795
-0.279196
-0.286079
-0.292505
-0.298522
-0.304163
-0.309442
-0.314353
-0.318874
-0.322969
-0.326598
-0.329747
-0.189289
-0.203757
-0.217006
-0.229142
-0.240249
-0.25042
-0.259747
-0.268322
-0.276231
-0.283553
-0.290358
-0.296706
-0.302643
-0.308199
-0.31339
-0.318212
-0.322648
-0.326671
-0.330247
-0.33337
-0.19456
-0.209035
-0.222286
-0.234424
-0.245531
-0.255701
-0.265026
-0.273595
-0.281494
-0.288798
-0.295575
-0.301881
-0.307761
-0.313243
-0.318342
-0.323058
-0.327379
-0.331283
-0.334743
-0.337762
-0.2002
-0.214811
-0.228188
-0.240443
-0.251658
-0.261924
-0.271333
-0.279971
-0.28792
-0.295255
-0.30204
-0.308329
-0.314162
-0.319567
-0.324561
-0.329144
-0.333309
-0.337042
-0.340322
-0.343157
-0.206711
-0.221595
-0.235223
-0.24771
-0.259133
-0.269582
-0.279147
-0.287913
-0.295959
-0.303357
-0.310169
-0.316445
-0.322225
-0.327537
-0.332396
-0.336808
-0.340769
-0.34427
-0.347297
-0.349866
-0.214687
-0.229973
-0.243967
-0.256783
-0.268496
-0.279194
-0.288965
-0.297894
-0.306059
-0.313528
-0.320363
-0.326614
-0.332317
-0.337501
-0.342184
-0.346373
-0.350071
-0.353274
-0.355972
-0.358182
-0.224877
-0.240664
-0.255107
-0.268314
-0.280359
-0.291331
-0.301319
-0.310409
-0.318677
-0.326194
-0.33302
-0.339203
-0.344783
-0.349786
-0.354234
-0.358137
-0.361503
-0.364334
-0.366624
-0.36838
-0.241019
-0.257348
-0.272257
-0.285829
-0.298151
-0.309319
-0.319428
-0.328567
-0.336818
-0.344254
-0.350935
-0.356913
-0.362225
-0.366902
-0.370965
-0.37443
-0.377309
-0.37962
-0.381378
-0.382518
-0.269711
-0.286537
-0.301812
-0.315564
-0.327927
-0.339024
-0.348966
-0.357853
-0.365777
-0.372818
-0.379041
-0.384499
-0.389231
-0.393267
-0.396628
-0.399335
-0.401412
-0.402918
-0.403938
-0.404247
-0.402743
-0.382948
-0.369716
-0.360026
-0.352084
-0.345644
-0.340424
-0.336122
-0.332499
-0.329365
-0.326558
-0.323931
-0.321331
-0.318569
-0.315388
-0.311468
-0.306104
-0.296621
-0.278479
-0.26264
-0.401921
-0.383103
-0.370555
-0.361355
-0.353794
-0.347633
-0.342602
-0.338405
-0.334806
-0.331611
-0.328649
-0.32576
-0.322779
-0.319511
-0.315724
-0.311213
-0.305625
-0.29725
-0.283575
-0.275758
-0.400851
-0.382947
-0.371042
-0.362317
-0.355132
-0.349254
-0.344419
-0.340343
-0.336797
-0.333592
-0.330564
-0.327565
-0.324449
-0.321064
-0.317259
-0.312951
-0.308005
-0.301396
-0.292094
-0.289822
-0.399386
-0.382467
-0.371217
-0.362965
-0.356154
-0.35056
-0.345929
-0.341991
-0.338528
-0.335363
-0.332344
-0.32934
-0.326234
-0.322912
-0.319282
-0.315329
-0.311004
-0.305574
-0.298522
-0.298207
-0.397648
-0.381724
-0.371126
-0.363342
-0.356903
-0.351595
-0.347177
-0.343394
-0.340042
-0.336958
-0.334008
-0.33108
-0.328082
-0.324937
-0.321594
-0.318081
-0.314403
-0.309994
-0.304495
-0.304938
-0.395741
-0.380789
-0.370828
-0.363503
-0.357431
-0.35241
-0.348211
-0.344596
-0.341377
-0.338406
-0.335565
-0.332762
-0.329927
-0.327005
-0.323976
-0.320886
-0.317763
-0.314146
-0.309744
-0.310444
-0.393752
-0.379732
-0.370388
-0.363509
-0.357797
-0.353058
-0.34908
-0.345642
-0.342568
-0.339728
-0.337019
-0.334363
-0.331705
-0.329011
-0.326272
-0.32354
-0.320843
-0.317798
-0.314155
-0.314827
-0.391761
-0.378626
-0.369872
-0.363422
-0.358057
-0.353593
-0.349833
-0.346571
-0.343647
-0.340944
-0.338371
-0.335864
-0.333379
-0.330891
-0.328399
-0.325949
-0.323567
-0.320928
-0.317817
-0.318306
-0.389845
-0.377543
-0.369348
-0.363305
-0.35827
-0.354069
-0.350518
-0.347425
-0.344646
-0.342074
-0.339631
-0.337261
-0.334928
-0.332614
-0.330318
-0.328079
-0.325919
-0.323561
-0.320826
-0.321057
-0.388079
-0.376554
-0.368882
-0.363222
-0.358496
-0.35454
-0.351182
-0.348246
-0.345599
-0.343145
-0.340815
-0.338561
-0.336352
-0.334172
-0.332022
-0.329933
-0.327918
-0.325748
-0.323278
-0.32322
-0.386537
-0.375729
-0.368542
-0.363236
-0.358794
-0.355061
-0.351877
-0.349078
-0.346544
-0.344189
-0.341949
-0.339783
-0.337666
-0.335581
-0.33353
-0.331536
-0.329607
-0.327556
-0.325268
-0.324914
-0.385294
-0.375142
-0.368397
-0.363412
-0.359224
-0.355687
-0.352652
-0.349968
-0.347523
-0.345241
-0.343065
-0.340959
-0.338899
-0.336872
-0.334878
-0.332933
-0.331042
-0.329056
-0.326887
-0.326245
-0.384424
-0.374862
-0.368515
-0.363814
-0.359847