/*--------------------------------*- C++ -*----------------------------------*\
  =========                 |
  \\      /  F ield         | OpenFOAM: The Open Source CFD Toolbox
   \\    /   O peration     | Website:  https://openfoam.org
    \\  /    A nd           | Version:  6.0
     \\/     M anipulation  |
\*---------------------------------------------------------------------------*/
FoamFile
{
    version     2.0;
    format      ascii;
    class       surfaceScalarField;
    location    "7.496";
    object      phi;
}
// * * * * * * * * * * * * * * * * * * * * * * * * * * * * * * * * * * * * * //

dimensions      [0 3 -1 0 0 0 0];

internalField   nonuniform List<scalar> 
38030
(
-8.77962e-06
-0.00798639
0.00799517
-2.82151e-05
-0.00735201
0.00737144
-5.60897e-05
-0.00676784
0.00679571
-9.03488e-05
-0.00623136
0.00626562
-0.000129101
-0.00573954
0.0057783
-0.000170738
-0.00528919
0.00533083
-0.00021392
-0.00487711
0.00492029
-0.000257542
-0.00450017
0.00454379
-0.000300701
-0.0041554
0.00419856
-0.000342676
-0.00383996
0.00388193
-0.000382898
-0.0035512
0.00359142
-0.000420936
-0.00328666
0.0033247
-0.000456474
-0.00304405
0.00307959
-0.0004893
-0.00282128
0.00285411
-0.000519293
-0.00261642
0.00264641
-0.000546411
-0.00242771
0.00245483
-0.00057068
-0.00225356
0.00227783
-0.000592188
-0.00209252
0.00211403
-0.000611075
-0.00194328
0.00196217
-0.000627525
-0.00180467
0.00182112
-0.000641762
-0.00167563
0.00168986
-0.00065404
-0.00155522
0.0015675
-0.000664636
-0.00144265
0.00145325
-0.000673852
-0.00133724
0.00134646
-0.000681994
-0.0012384
0.00124654
-0.000689379
-0.00114553
0.00115291
-0.000696315
-0.00105806
0.00106499
-0.000703105
-0.000975499
0.000982289
-0.000710043
-0.000897424
0.000904361
-0.00082342
0.000830802
-0.000717424
-7.7972e-06
-0.00797859
-2.69877e-05
-0.00733282
-5.45438e-05
-0.00674028
-8.81422e-05
-0.00619776
-0.00012584
-0.00570185
-0.00016601
-0.00524902
-0.000207297
-0.00483582
-0.000248588
-0.00445888
-0.000288977
-0.00411501
-0.000327737
-0.0038012
-0.000364301
-0.00351464
-0.000398238
-0.00325272
-0.000429235
-0.00301306
-0.000457085
-0.00279343
-0.000481672
-0.00259183
-0.000502963
-0.00240642
-0.000520991
-0.00223553
-0.000535857
-0.00207765
-0.000547711
-0.00193143
-0.000556754
-0.00179562
-0.000563226
-0.00166916
-0.0005674
-0.00155105
-0.000569579
-0.00144047
-0.000570085
-0.00133674
-0.000569255
-0.00123923
-0.000567425
-0.00114736
-0.000564932
-0.00106055
-0.000562103
-0.000978328
-0.000559264
-0.000900264
-0.000825947
-0.000556737
-7.43257e-06
-0.00797116
-2.60772e-05
-0.00731417
-5.28888e-05
-0.00671347
-8.54061e-05
-0.00616525
-0.00012161
-0.00566564
-0.000159832
-0.0052108
-0.000198695
-0.00479695
-0.000237072
-0.0044205
-0.000274047
-0.00407803
-0.000308893
-0.00376635
-0.000341039
-0.00348249
-0.000370055
-0.00322371
-0.00039563
-0.00298748
-0.00041756
-0.0027715
-0.000435734
-0.00257366
-0.000450122
-0.00239203
-0.000460769
-0.00222488
-0.000467782
-0.00207064
-0.000471324
-0.00192788
-0.000471609
-0.00179534
-0.000468895
-0.00167187
-0.000463475
-0.00155647
-0.000455677
-0.00144827
-0.000445852
-0.00134656
-0.000434364
-0.00125072
-0.000421584
-0.00116014
-0.000407871
-0.00107426
-0.00039359
-0.000992608
-0.000379101
-0.000914753
-0.00084028
-0.000364768
-7.2051e-06
-0.00796395
-2.52233e-05
-0.00729615
-5.10333e-05
-0.00668766
-8.21247e-05
-0.00613415
-0.000116429
-0.00563134
-0.000152241
-0.00517499
-0.000188162
-0.00476103
-0.00022305
-0.00438561
-0.000255985
-0.0040451
-0.000286232
-0.00373611
-0.000313219
-0.0034555
-0.000336515
-0.00320041
-0.000355811
-0.00296819
-0.000370903
-0.00275641
-0.000381685
-0.00256287
-0.000388131
-0.00238559
-0.00039029
-0.00222272
-0.000388277
-0.00207265
-0.000382266
-0.00193389
-0.000372483
-0.00180512
-0.000359203
-0.00168515
-0.000342737
-0.00157293
-0.000323439
-0.00146757
-0.000301696
-0.0013683
-0.000277906
-0.00127451
-0.000252469
-0.00118557
-0.000225789
-0.00110094
-0.00019826
-0.00102014
-0.000170287
-0.000942725
-0.000868286
-0.000142282
-6.98878e-06
-0.00795696
-2.42979e-05
-0.00727884
-4.89019e-05
-0.00666306
-7.82666e-05
-0.00610479
-0.000110293
-0.00559931
-0.000143254
-0.00514203
-0.000175732
-0.00472856
-0.000206575
-0.00435477
-0.000234856
-0.00401682
-0.000259837
-0.00371112
-0.000280945
-0.0034344
-0.000297747
-0.00318361
-0.000309935
-0.002956
-0.000317304
-0.00274904
-0.00031975
-0.00256043
-0.000317248
-0.00238809
-0.000309852
-0.00223012
-0.000297683
-0.00208482
-0.000280923
-0.00195065
-0.00025981
-0.00182623
-0.00023463
-0.00171033
-0.000205716
-0.00160185
-0.000173448
-0.00149984
-0.000138239
-0.00140351
-0.000100539
-0.00131221
-6.0782e-05
-0.00122533
-1.94152e-05
-0.00114231
2.31191e-05
-0.00106267
6.63699e-05
-0.000985976
-0.000911787
0.00010987
-6.74603e-06
-0.00795022
-2.32457e-05
-0.00726234
-4.64499e-05
-0.00663985
-7.38065e-05
-0.00607743
-0.000103198
-0.00556992
-0.000132882
-0.00511234
-0.000161432
-0.00470001
-0.000187689
-0.00432851
-0.000210722
-0.00399378
-0.000229791
-0.00369205
-0.000244322
-0.00341987
-0.000253883
-0.00317405
-0.000258161
-0.00295172
-0.000256955
-0.00275024
-0.000250158
-0.00256723
-0.000237745
-0.0024005
-0.000219772
-0.00224809
-0.000196364
-0.00210823
-0.000167708
-0.00197931
-0.000134051
-0.00185989
-9.56956e-05
-0.00174869
-5.29876e-05
-0.00164455
-6.33249e-06
-0.00154649
4.38238e-05
-0.00145367
9.69993e-05
-0.00136538
0.000152696
-0.00128103
0.000210427
-0.00120004
0.00026969
-0.00112194
0.000329976
-0.00104626
-0.000972567
0.000390757
-6.46333e-06
-0.00794375
-2.20412e-05
-0.00724677
-4.36523e-05
-0.00661824
-6.87275e-05
-0.00605236
-9.51382e-05
-0.00554351
-0.000121134
-0.00508635
-0.000145283
-0.00467586
-0.000166428
-0.00430737
-0.000183635
-0.00397658
-0.000196166
-0.00367952
-0.000203446
-0.00341258
-0.000205043
-0.00317245
-0.000200645
-0.00295612
-0.000190047
-0.00276084
-0.000173139
-0.00258414
-0.000149897
-0.00242374
-0.000120373
-0.00227762
-8.46923e-05
-0.00214391
-4.30463e-05
-0.00202096
4.31102e-06
-0.00190725
5.70671e-05
-0.00180144
0.000114854
-0.00170234
0.000177254
-0.00160889
0.000243782
-0.0015202
0.000313922
-0.00143552
0.000387128
-0.00135423
0.000462845
-0.00127576
0.000540516
-0.00119961
0.000619558
-0.0011253
-0.00105238
0.000699368
-6.13669e-06
-0.00793762
-2.0673e-05
-0.00723223
-4.04949e-05
-0.00659842
-6.30183e-05
-0.00602983
-8.61077e-05
-0.00552042
-0.000108011
-0.00506444
-0.0001273
-0.00465657
-0.000142818
-0.00429185
-0.000153637
-0.00396576
-0.000159022
-0.00367414
-0.000158401
-0.00341321
-0.000151341
-0.00317951
-0.000137529
-0.00296993
-0.000116759
-0.00278161
-8.89169e-05
-0.00261198
-5.39727e-05
-0.00245869
-1.19757e-05
-0.00231961
3.69526e-05
-0.00219284
9.26217e-05
-0.00207662
0.000154775
-0.0019694
0.000223091
-0.00186976
0.000297189
-0.00177644
0.000376626
-0.00168833
0.000460897
-0.00160447
0.000549437
-0.00152406
0.00064165
-0.00144645
0.000736923
-0.00137103
0.000834619
-0.0012973
0.000934089
-0.00122477
-0.00115293
0.00103464
-5.76494e-06
-0.00793185
-1.91362e-05
-0.00721886
-3.69697e-05
-0.00658059
-5.667e-05
-0.00601013
-7.61004e-05
-0.00550099
-9.35133e-05
-0.00504703
-0.000107488
-0.00464259
-0.000116875
-0.00428246
-0.000120757
-0.00396188
-0.000118405
-0.00367649
-0.000109252
-0.00342236
-9.28666e-05
-0.0031959
-6.89368e-05
-0.00299386
-3.72522e-05
-0.0028133
2.3063e-06
-0.00265154
4.97746e-05
-0.00250615
0.000105111
-0.00237495
0.000168202
-0.00225593
0.00023886
-0.00214728
0.000316832
-0.00204737
0.000401795
-0.00195472
0.000493357
-0.001868
0.000591059
-0.00178603
0.000694368
-0.00170778
0.000802687
-0.00163238
0.000915352
-0.00155911
0.00103169
-0.00148737
0.00115098
-0.0014166
0.0012725
-0.00134629
-0.00127587
0.00139544
-5.34795e-06
-0.0079265
-1.74272e-05
-0.00720678
-3.30697e-05
-0.00656494
-4.96735e-05
-0.00599353
-6.51065e-05
-0.00548556
-7.76315e-05
-0.00503451
-8.58412e-05
-0.00463438
-8.8602e-05
-0.0042797
-8.50078e-05
-0.00396547
-7.43414e-05
-0.00368716
-5.60439e-05
-0.00344066
-2.96893e-05
-0.00322225
5.03426e-06
-0.00302858
4.83399e-05
-0.0028566
0.000100353
-0.00270355
0.000161118
-0.00256692
0.000230603
-0.00244444
0.000308706
-0.00233403
0.000395251
-0.00223383
0.000489989
-0.00214211
0.000592602
-0.00205733
0.000702695
-0.00197809
0.000819801
-0.00190314
0.000943365
-0.00183134
0.00107275
-0.00176177
0.00120725
-0.00169361
0.0013461
-0.00162621
0.00148851
-0.00155901
0.00163364
-0.00149141
-0.00142283
0.00178059
-4.88507e-06
-0.00792162
-1.55426e-05
-0.00719612
-2.87872e-05
-0.0065517
-4.20171e-05
-0.0059803
-5.31111e-05
-0.00547446
-6.03497e-05
-0.00502727
-6.23455e-05
-0.00463239
-5.79854e-05
-0.00428406
-4.63822e-05
-0.00397707
-2.68348e-05
-0.00370671
1.20359e-06
-0.0034687
3.81512e-05
-0.0032592
8.43171e-05
-0.00307475
0.000139916
-0.0029122
0.00020508
-0.00276871
0.000279864
-0.0026417
0.00036425
-0.00252882
0.000458149
-0.00242793
0.000561403
-0.00233708
0.000673776
-0.00225449
0.00079496
-0.00217852
0.000924564
-0.0021077
0.00106211
-0.00204069
0.00120705
-0.00197628
0.0013587
-0.00191342
0.00151631
-0.00185122
0.00167905
-0.00178895
0.00184602
-0.00172598
0.00201628
-0.00166168
-0.00159536
0.00218881
-4.37517e-06
-0.00791724
-1.34778e-05
-0.00718702
-2.41124e-05
-0.00654107
-3.3685e-05
-0.00597073
-4.00932e-05
-0.00546805
-4.16422e-05
-0.00502572
-3.69719e-05
-0.00463706
-2.49966e-05
-0.00429604
-4.85421e-06
-0.00399722
2.41347e-05
-0.00373569
6.24999e-05
-0.00350706
0.000110648
-0.00330735
0.000168881
-0.00313298
0.000237415
-0.00298074
0.000316387
-0.00284768
0.000405863
-0.00273118
0.000505841
-0.0026288
0.000616254
-0.00253835
0.000736962
-0.00245779
0.000867752
-0.00238528
0.00100833
-0.0023191
0.00115833
-0.00225769
0.00131726
-0.00219962
0.00148458
-0.00214359
0.00165959
-0.00208843
0.00184149
-0.00203313
0.00202939
-0.00197684
0.00222229
-0.00191888
0.00241913
-0.00185852
-0.00179498
0.00261875
-3.81678e-06
-0.00791343
-1.12266e-05
-0.00717961
-1.90329e-05
-0.00653326
-2.46575e-05
-0.0059651
-2.60254e-05
-0.00546669
-2.14743e-05
-0.00503027
-9.67977e-06
-0.00464885
1.04095e-05
-0.00431613
3.96232e-05
-0.00402643
7.86125e-05
-0.00377468
0.000127884
-0.00355633
0.000187827
-0.00336729
0.000258735
-0.00320389
0.000340818
-0.00306282
0.000434219
-0.00294109
0.000539015
-0.00283597
0.000655222
-0.00274501
0.000782793
-0.00266592
0.000921619
-0.00259661
0.00107151
-0.00253517
0.00123222
-0.0024798
0.00140337
-0.00242885
0.00158452
-0.00238078
0.00177511
-0.00233418
0.00197445
-0.00228777
0.0021817
-0.00224039
0.00239593
-0.00219107
0.00261602
-0.00213897
0.0028408
-0.0020833
-0.00202313
0.00306896
-3.20771e-06
-0.00791022
-8.78182e-06
-0.00717404
-1.35335e-05
-0.00652851
-1.49104e-05
-0.00596373
-1.08736e-05
-0.00547072
1.97496e-07
-0.00504134
1.95838e-05
-0.00466824
4.82935e-05
-0.00434484
8.71165e-05
-0.00406525
0.000136668
-0.00382424
0.000197425
-0.00361709
0.000269753
-0.00343962
0.000353928
-0.00328807
0.000450155
-0.00315905
0.000558575
-0.00304951
0.000679276
-0.00295667
0.000812291
-0.00287802
0.0009576
-0.00281123
0.00111512
-0.00275414
0.00128472
-0.00270476
0.00146615
-0.00266123
0.00165911
-0.0026218
0.00186317
-0.00258484
0.00207779
-0.0025488
0.00230229
-0.00251226
0.00253582
-0.00247392
0.00277739
-0.00243263
0.00302582
-0.00238741
0.00327979
-0.00233727
-0.00228117
0.00353783
-2.54548e-06
-0.00790767
-6.13464e-06
-0.00717045
-7.59702e-06
-0.00652705
-4.41628e-06
-0.00596691
5.40104e-06
-0.00548054
2.3424e-05
-0.00505936
5.08812e-05
-0.0046957
8.87294e-05
-0.00438269
0.00013771
-0.00411423
0.000198394
-0.00388492
0.00027122
-0.00368991
0.000356522
-0.00352492
0.000454553
-0.0033861
0.000565503
-0.00327
0.000689509
-0.00317351
0.000826663
-0.00309383
0.000977015
-0.00302838
0.00114057
-0.00297478
0.00131729
-0.00293086
0.00150707
-0.00289454
0.00170973
-0.00286389
0.00192501
-0.00283708
0.00215252
-0.00281235
0.00239178
-0.00278805
0.0026421
-0.00276259
0.00290267
-0.00273449
0.00317245
-0.00270241
0.00345021
-0.00266517
0.0037345
-0.00262155
-0.00257033
0.00402365
-1.82719e-06
-0.00790585
-3.27565e-06
-0.007169
-1.20486e-06
-0.00652912
6.85489e-06
-0.00597497
2.28406e-05
-0.00549653
4.82609e-05
-0.00508478
8.42821e-05
-0.00473172
0.000131801
-0.0044302
0.0001915
-0.00417393
0.000263898
-0.00395732
0.000349387
-0.0037754
0.00044826
-0.00362379
0.000560737
-0.00349857
0.000686984
-0.00339624
0.000827126
-0.00331365
0.000981255
-0.00324796
0.00114943
-0.00319655
0.00133169
-0.00315704
0.00152802
-0.00312719
0.00173837
-0.00310489
0.00196262
-0.00308815
0.00220058
-0.00307504
0.00245194
-0.00306371
0.00271624
-0.00305235
0.00299288
-0.00303923
0.00328105
-0.00302267
0.00357972
-0.00300108
0.0038876
-0.00297305
0.00420315
-0.0029371
-0.0028917
0.00452452
-1.04999e-06
-0.0079048
-1.95236e-07
-0.00716985
5.66219e-06
-0.00653497
1.89333e-05
-0.00598824
4.14884e-05
-0.00551908
7.4765e-05
-0.00511806
0.000119858
-0.00477681
0.000177594
-0.00448794
0.000248591
-0.00424493
0.000333302
-0.00404203
0.000432063
-0.00387416
0.000545116
-0.00373685
0.000672638
-0.0036261
0.000814761
-0.00353837
0.000971586
-0.00347048
0.00114319
-0.00341956
0.00132965
-0.00338301
0.001531
-0.00335839
0.00174729
-0.00334347
0.0019785
-0.0033361
0.00222459
-0.00333424
0.00248544
-0.00333589
0.00276084
-0.0033391
0.00305041
-0.00334192
0.00335363
-0.00334245
0.00366974
-0.00333878
0.00399774
-0.00332909
0.00433633
-0.00331164
0.00468388
-0.00328464
-0.00324621
0.00503839
-2.11014e-07
-0.00790459
3.11593e-06
-0.00717318
1.30222e-05
-0.00654488
3.1848e-05
-0.00600706
6.13852e-05
-0.00554862
0.00010299
-0.00515967
0.000157678
-0.0048315
0.000226196
-0.00455646
0.000309084
-0.00432782
0.000406726
-0.00413967
0.000519389
-0.00398683
0.000647251
-0.00386471
0.000790436
-0.00376928
0.000949028
-0.00369696
0.00112309
-0.00364454
0.00131268
-0.00360915
0.00151785
-0.00358818
0.00173866
-0.00357921
0.00197517
-0.00357998
0.00222744
-0.00358837
0.00249549
-0.00360229
0.00277928
-0.00361969
0.00307872
-0.00363854
0.00339356
-0.00365676
0.00372339
-0.00367227
0.00406754
-0.00368293
0.00442507
-0.00368662
0.00479471
-0.00368127
0.00517475
-0.00366469
-0.00363454
0.00556308
6.9242e-07
-0.00790528
6.66624e-06
-0.00717915
2.08914e-05
-0.00655911
4.5624e-05
-0.0060318
8.25661e-05
-0.00558556
0.000132984
-0.00521008
0.000197801
-0.00489632
0.000277677
-0.00463633
0.00037307
-0.00442321
0.00048428
-0.00425088
0.000611495
-0.00411404
0.000754822
-0.00400804
0.000914313
-0.00392877
0.00108999
-0.00387263
0.00128186
-0.00383641
0.00148995
-0.00381724
0.00171427
-0.0038125
0.00195488
-0.00381982
0.00221186
-0.00383696
0.0024853
-0.00386181
0.0027753
-0.00389229
0.00308194
-0.00392633
0.00340523
-0.00396183
0.00374508
-0.00399662
0.00410124
-0.00402843
0.0044732
-0.00405489
0.00486015
-0.00407357
0.00526085
-0.00408198
0.00567361
-0.00407745
-0.00405711
0.00609619
1.66215e-06
-0.00790694
1.0462e-05
-0.00718795
2.9282e-05
-0.00657793
6.02799e-05
-0.00606279
0.000105057
-0.00563034
0.000164777
-0.0052698
0.000240267
-0.00497181
0.000332092
-0.00472816
0.000440614
-0.00453173
0.000566046
-0.00437631
0.000708487
-0.00425648
0.000867959
-0.00416751
0.00104443
-0.00410524
0.00123785
-0.00406605
0.00144814
-0.00404671
0.00167527
-0.00404436
0.00191921
-0.00405644
0.00217998
-0.00408059
0.00245765
-0.00411463
0.00275233
-0.0041565
0.00306419
-0.00420415
0.00339341
-0.00425554
0.00374014
-0.00430856
0.00410449
-0.00436096
0.00448639
-0.00441033
0.00488557
-0.00445407
0.0053014
-0.0044894
0.0057328
-0.00451338
0.00617812
-0.00452277
-0.00451401
0.00663502
2.69941e-06
-0.00790964
1.45074e-05
-0.00719976
3.82012e-05
-0.00660162
7.5826e-05
-0.00610042
0.000128869
-0.00568338
0.000198385
-0.00533932
0.000285094
-0.00505851
0.000389459
-0.00483252
0.000511743
-0.00465402
0.000652063
-0.00451663
0.000810422
-0.00441484
0.000986745
-0.00434383
0.00118091
-0.00429941
0.00139276
-0.0042779
0.00162214
-0.00427609
0.00186891
-0.00429114
0.00213299
-0.00432051
0.00241431
-0.00436191
0.00271292
-0.00441324
0.00302891
-0.00447249
0.00336249
-0.00453773
0.00371392
-0.00460697
0.0040835
-0.00467815
0.00447155
-0.00474901
0.00487826
-0.00481705
0.00530365
-0.00487946
0.00574738
-0.00493313
0.00620862
-0.00497461
0.00668586
-0.00500001
-0.00500491
0.00717675
3.80433e-06
-0.00791344
1.88035e-05
-0.00721476
4.76507e-05
-0.00663047
9.2262e-05
-0.00614503
0.000153999
-0.00574512
0.000233797
-0.00541912
0.000332264
-0.00515698
0.000449755
-0.00495001
0.000586432
-0.00479069
0.000742308
-0.00467251
0.000917284
-0.00458982
0.00111118
-0.00453773
0.00132378
-0.004512
0.0015548
-0.00450892
0.00180399
-0.00452528
0.00207109
-0.00455824
0.0023559
-0.00460532
0.00265827
-0.00466428
0.00297814
-0.00473311
0.00331558
-0.00480993
0.00367075
-0.0048929
0.00404398
-0.0049802
0.0044357
-0.00506987
0.00484642
-0.00515973
0.00527665
-0.00524728
0.00572678
-0.00532959
0.00619689
-0.00540324
0.00668653
-0.00546426
0.00719449
-0.00550797
-0.00552892
0.0077185
4.97621e-06
-0.00791842
2.3349e-05
-0.00723313
5.76262e-05
-0.00666474
0.000109576
-0.00619698
0.000180422
-0.00581596
0.000270973
-0.00550967
0.000381718
-0.00526773
0.000512904
-0.0050812
0.000664585
-0.00494237
0.000836671
-0.00484459
0.00102896
-0.00478211
0.00124117
-0.00474994
0.00147295
-0.00474378
0.00172393
-0.0047599
0.00199371
-0.00479506
0.00228191
-0.00484644
0.00258817
-0.00491158
0.00291221
-0.00498832
0.00325384
-0.00507474
0.00361299
-0.00516908
0.00398976
-0.00526968
0.00438445
-0.00537489
0.00479756
-0.00548298
0.00522978
-0.00559195
0.00568194
-0.00569944
0.00615488
-0.00580253
0.00664925
-0.0058976
0.00716518
-0.00598019
0.00770196
-0.00604474
-0.00608451
0.00825755
6.21343e-06
-0.00792463
2.81412e-05
-0.00725506
6.81185e-05
-0.00670472
0.000127745
-0.00625661
0.000208094
-0.00589631
0.000309839
-0.00561141
0.000433351
-0.00539124
0.000578762
-0.00522661
0.000746024
-0.00510964
0.000934942
-0.00503351
0.00114521
-0.00499238
0.00137644
-0.00498117
0.00162817
-0.00499551
0.00189991
-0.00503164
0.00219112
-0.00508627
0.00250126
-0.00515659
0.00282983
-0.00524015
0.00317635
-0.00533485
0.00354045
-0.00543883
0.00392186
-0.00555048
0.00432051
-0.00566833
0.00473657
-0.00579095
0.00517049
-0.0059169
0.00562307
-0.00604452
0.0060954
-0.00617178
0.00658883
-0.00629596
0.0071047
-0.00641347
0.00764401
-0.0065195
0.00820685
-0.00660758
-0.00666934
0.00879168
7.516e-06
-0.00793215
3.31796e-05
-0.00728073
7.91173e-05
-0.00675066
0.000146736
-0.00632423
0.000236947
-0.00598652
0.000350287
-0.00572475
0.000487003
-0.00552795
0.000647118
-0.00538673
0.000830478
-0.005293
0.00103679
-0.00523983
0.00126565
-0.00522124
0.00151657
-0.00523208
0.00178897
-0.00526792
0.00208225
-0.00532491
0.00239574
-0.00539976
0.00272876
-0.0054896
0.00308062
-0.00559201
0.00345064
-0.00570487
0.0038382
-0.0058264
0.00424279
-0.00595507
0.00466405
-0.00608959
0.00510188
-0.00622878
0.00555653
-0.00637155
0.00602868
-0.00651668
0.00651958
-0.00666267
0.00703098
-0.00680736
0.00756504
-0.00694753
0.00812395
-0.0070784
0.00870908
-0.00719271
-0.00728006
0.0093198
8.89024e-06
-0.00794104
3.84742e-05
-0.00731031
9.06171e-05
-0.0068028
0.00016651
-0.00640012
0.000266895
-0.00608691
0.000392171
-0.00585003
0.000542462
-0.00567825
0.000717682
-0.00556195
0.000917576
-0.00549289
0.00114176
-0.00546401
0.00138972
-0.00546921
0.0016609
-0.00550326
0.00195461
-0.00556164
0.00227016
-0.00564046
0.00260675
-0.00573635
0.00296358
-0.00584643
0.00333979
-0.00596821
0.0037345
-0.00609958
0.00414685
-0.00623875
0.00457602
-0.00638423
0.00502127
-0.00653484
0.00548209
-0.0066896
0.00595828
-0.00684774
0.00645017
-0.00700857
0.00695877
-0.00717127
0.007486
-0.00733459
0.00803475
-0.00749629
0.00860866
-0.00765231
0.00921114
-0.00779519
-0.00791201
0.00984309
1.03604e-05
-0.0079514
4.40584e-05
-0.00734401
0.000102625
-0.00686137
0.000187023
-0.00648452
0.00029783
-0.00619772
0.000435306
-0.00598751
0.000599458
-0.0058424
0.000790089
-0.00575258
0.00100684
-0.00570965
0.00124924
-0.0057064
0.0015167
-0.00573667
0.00180856
-0.00579511
0.00212408
-0.00587716
0.00246246
-0.00597884
0.00282286
-0.00609675
0.00320434
-0.00622792
0.00360595
-0.00636982
0.00402664
-0.00652027
0.00446535
-0.00667745
0.00492095
-0.00683984
0.00539234
-0.00700623
0.00587848
-0.00717574
0.00637854
-0.0073478
0.00689208
-0.00752211
0.00741941
-0.0076986
0.00796196
-0.00787714
0.00852277
-0.0080571
0.00910683
-0.00823637
0.00972038
-0.00840874
-0.0085587
0.0103671
1.19948e-05
-0.0079634
5.00136e-05
-0.00738203
0.000115171
-0.00692653
0.000208229
-0.00657757
0.00032962
-0.00631911
0.000479473
-0.00613736
0.000657671
-0.0060206
0.000863904
-0.00595881
0.00109771
-0.00594346
0.00135853
-0.00596722
0.00164569
-0.00602383
0.00195847
-0.00610789
0.00229606
-0.00621475
0.00265762
-0.00634041
0.00304226
-0.00648138
0.003449
-0.00663466
0.00387684
-0.00679765
0.00432468
-0.00696811
0.00479133
-0.00714411
0.00527553
-0.00732403
0.00577587
-0.00750658
0.00629089
-0.00769075
0.00681904
-0.00787595
0.00735891
-0.00806198
0.00790948
-0.00824917
0.00847068
-0.00843833
0.00904424
-0.00863067
0.00963508
-0.00882721
0.0102524
-0.00902609
-0.00921437
0.0109081
1.40163e-05
-0.00797741
5.65382e-05
-0.00742455
0.000128322
-0.00699831
0.000230072
-0.00667933
0.000362105
-0.00645114
0.00052441
-0.00629966
0.000716729
-0.00621292
0.00093863
-0.00618071
0.00118954
-0.00619437
0.0014688
-0.00624648
0.00177566
-0.00633069
0.00210934
-0.00644156
0.00246898
-0.0065744
0.00285372
-0.00672515
0.00326265
-0.00689031
0.00369483
-0.00706684
0.00414928
-0.0072521
0.00462495
-0.00744379
0.00512075
-0.00763991
0.00563547
-0.00783875
0.00616772
-0.00803884
0.00671595
-0.00823898
0.00727831
-0.0084383
0.00785261
-0.00863628
0.0084364
-0.00883296
0.00902725
-0.00902919
0.00962352
-0.00922694
0.0102263
-0.00943004
0.0108451
-0.00964487
-0.00988408
0.0115148
1.72359e-05
-0.00799465
6.40176e-05
-0.00747133
0.000142135
-0.00707643
0.000252443
-0.00678963
0.00039507
-0.00659377
0.000569803
-0.0064744
0.000776214
-0.00641933
0.00101372
-0.00641822
0.00128162
-0.00646227
0.00157916
-0.00654401
0.00190549
-0.00665702
0.00225976
-0.00679583
0.00264109
-0.00695573
0.00304858
-0.00713264
0.00348135
-0.00732308
0.0039385
-0.00752399
0.00441917
-0.00773277
0.00492248
-0.0079471
0.0054476
-0.00816503
0.00599366
-0.00838481
0.0065598
-0.00860498
0.00714508
-0.00882427
0.00774843
-0.00904165
0.00836848
-0.00925633
0.00900342
-0.0094679
0.00965077
-0.00967654
0.0103072
-0.00988331
0.0109673
-0.0100901
0.0116265
-0.0103041
-0.010548
0.0122905
0.00899207
4.62213e-05
-0.00903829
0.00894679
4.52758e-05
0.00890181
4.49833e-05
0.00885698
4.48301e-05
0.00881232
4.46565e-05
0.00876791
4.44065e-05
0.00872386
4.40574e-05
0.00868025
4.36028e-05
0.00863721
4.30434e-05
0.00859483
4.23836e-05
0.0085532
4.1629e-05
0.00851241
4.07848e-05
0.00847256
3.98567e-05
0.00843371
3.88505e-05
0.00839593
3.77721e-05
0.00835931
3.66275e-05
0.00832388
3.54225e-05
0.00828972
3.41625e-05
0.00825687
3.28528e-05
0.00822537
3.14985e-05
0.00819527
3.01042e-05
0.00816659
2.86745e-05
0.00813938
2.72137e-05
0.00811365
2.57259e-05
0.00808944
2.42133e-05
0.00806677
2.26725e-05
0.00804568
2.10845e-05
0.00802629
1.93899e-05
0.00800891
1.73816e-05
1.42623e-05
0.0102836
0.000165169
-0.0104026
0.0101635
0.000165393
0.0100427
0.000165729
0.00992165
0.000165924
0.00980047
0.000165833
0.00967949
0.000165384
0.00955901
0.000164544
0.00943931
0.000163303
0.00932069
0.000161663
0.00920343
0.000159638
0.00908782
0.000157243
0.00897411
0.000154496
0.00886255
0.000151415
0.00875338
0.00014802
0.00864682
0.000144333
0.00854307
0.000140373
0.00844233
0.000136161
0.00834478
0.000131718
0.00825057
0.000127061
0.00815986
0.000122208
0.00807279
0.000117178
0.00798948
0.000111986
0.00791004
0.000106646
0.0078346
0.000101171
0.00776324
9.5568e-05
0.00769608
8.98341e-05
0.00763323
8.39414e-05
0.0075748
7.78138e-05
0.00752093
7.12561e-05
6.38602e-05
0.0115411
0.000344802
-0.0117207
0.0113587
0.00034781
0.0111743
0.00035014
0.0109885
0.000351728
0.0108018
0.000352501
0.0106148
0.000352413
0.0104279
0.000351441
0.0102416
0.000349582
0.0100564
0.000346849
0.00987276
0.000343267
0.00969114
0.000338865
0.00951196
0.000333678
0.00933563
0.000327744
0.00916255
0.000321103
0.00899308
0.000313796
0.00882759
0.000305865
0.0086664
0.000297353
0.00850982
0.0002883
0.00835813
0.000278745
0.00821162
0.000268727
0.00807051
0.000258281
0.00793506
0.00024744
0.00780547
0.000236236
0.00768194
0.000224698
0.00756466
0.000212846
0.00745381
0.000200692
0.00734952
0.000188229
0.00725191
0.00017542
0.00716099
0.000162183
0.00014842
0.0127547
0.000574347
-0.0129843
0.0125208
0.00058174
0.0122833
0.000587601
0.0120431
0.000591938
0.0118009
0.000594732
0.0115573
0.000595966
0.0113131
0.000595636
0.011069
0.000593754
0.0108255
0.000590347
0.0105833
0.000585454
0.010343
0.000579125
0.0101053
0.000571414
0.00987065
0.000562381
0.00963966
0.000552089
0.00941285
0.000540607
0.00919071
0.000528002
0.00897373
0.000514341
0.00876233
0.000499693
0.00855695
0.000484123
0.00835799
0.000467693
0.0081658
0.000450464
0.00798075
0.000432492
0.00780316
0.000413833
0.00763332
0.000394536
0.00747151
0.00037465
0.00731799
0.000354214
0.00717296
0.000333263
0.00703655
0.000311822
0.00690882
0.000289915
0.000267608
0.0139164
0.00084402
-0.0141861
0.0136406
0.000857558
0.0133595
0.000868648
0.0130742
0.000877311
0.0127853
0.000883553
0.0124939
0.000887376
0.0122008
0.000888793
0.0119067
0.00088783
0.0116125
0.000884531
0.011319
0.000878951
0.011027
0.000871159
0.0107372
0.000861229
0.0104503
0.000849247
0.0101671
0.000835301
0.0098882
0.000819488
0.0096143
0.000801903
0.00934599
0.000782645
0.00908387
0.000761811
0.0088285
0.000739496
0.0085804
0.000715792
0.00834008
0.000690787
0.00810801
0.000664567
0.00788462
0.000637214
0.00767035
0.000608808
0.00746557
0.000579432
0.00727062
0.000549165
0.00708579
0.000518093
0.0069113
0.00048631
0.00674728
0.000453932
0.000421127
0.0150198
0.00114506
-0.0153208
0.0147107
0.00116664
0.0143945
0.00118478
0.0140723
0.00119951
0.0137451
0.00121083
0.0134137
0.00121874
0.0130792
0.00122326
0.0127426
0.00122445
0.0124048
0.00122234
0.0120668
0.00121701
0.0117294
0.00120854
0.0113936
0.00119704
0.0110602
0.0011826
0.0107302
0.00116535
0.0104042
0.0011454
0.0100833
0.00112289
0.00976796
0.00109794
0.00945909
0.00107069
0.00915733
0.00104125
0.00886336
0.00100976
0.00857782
0.000976327
0.00830132
0.000941074
0.00803442
0.000904114
0.00777766
0.000865562
0.00753156
0.000825537
0.00729655
0.000784167
0.00707305
0.000741594
0.00686138
0.000697984
0.00666178
0.000653536
0.000608506
0.0160601
0.00146966
-0.0163847
0.0157255
0.00150124
0.0153819
0.00152836
0.0150304
0.001551
0.0146721
0.00156916
0.014308
0.00158283
0.0139393
0.00159203
0.0135669
0.0015968
0.013192
0.00159721
0.0128157
0.00159333
0.012439
0.00158525
0.0120629
0.0015731
0.0116885
0.00155701
0.0113168
0.0015371
0.0109486
0.00151353
0.0105851
0.00148647
0.010227
0.00145606
0.00987518
0.00142247
0.00953057
0.00138586
0.00919395
0.00134638
0.00886609
0.00130419
0.00854774
0.00125943
0.0082396
0.00121225
0.00794237
0.0011628
0.00765666
0.00111124
0.00738308
0.00105775
0.00712214
0.00100253
0.00687431
0.000945819
0.00663994
0.000887901
0.000829121
0.0170343
0.0018109
-0.0173756
0.0166811
0.00185447
0.0163169
0.00189252
0.015943
0.00192499
0.0155603
0.00195185
0.01517
0.00197306
0.0147734
0.00198864
0.0143716
0.00199862
0.0139658
0.00200306
0.013557
0.00200203
0.0131467
0.00199564
0.0127357
0.00198402
0.0123254
0.00196731
0.0119169
0.00194566
0.0115111
0.00191927
0.0111093
0.0018883
0.0107124
0.00185294
0.0103215
0.0018134
0.00993749
0.00176986
0.00956137
0.0017225
0.00919406
0.0016715
0.00883644
0.00161705
0.00848936
0.00155932
0.00815367
0.0014985
0.00783013
0.00143478
0.00751949
0.00136839
0.00722242
0.0012996
0.00693953
0.00122871
0.00667132
0.00115611
0.00108223
0.0179405
0.00216267
-0.0182923
0.0175748
0.0022202
0.0171962
0.00227113
0.0168058
0.00231537
0.0164049
0.00235282
0.0159945
0.00238344
0.0155759
0.00240721
0.0151504
0.00242413
0.0147192
0.00243425
0.0142836
0.00243764
0.0138449
0.00243441
0.0134042
0.00242469
0.0129629
0.00240862
0.0125222
0.00238639
0.0120832
0.00235818
0.0116473
0.00232421
0.0112156
0.0022847
0.0107891
0.00223984
0.0103691
0.00218987
0.0099566
0.002135
0.00955267
0.00207544
0.00915833
0.00201138
0.00877461
0.00194304
0.00840249
0.00187062
0.0080429
0.00179437
0.00769676
0.00171453
0.00736491
0.00163145
0.00704811
0.0015455
0.00674705
0.00145717
0.00136701
0.0187781
0.00251962
-0.019135
0.0184053
0.00259301
0.0180176
0.00265875
0.0176163
0.00271666
0.0172025
0.00276662
0.0167775
0.00280853
0.0163423
0.00284233
0.0158985
0.002868
0.0154471
0.00288556
0.0149897
0.00289506
0.0145275
0.0028966
0.0140619
0.0028903
0.0135942
0.00287632
0.0131258
0.00285483
0.0126579
0.00282605
0.0121919
0.00279021
0.0117291
0.00274752
0.0112707
0.00269824
0.0108179
0.00264261
0.0103721
0.00258086
0.00993431
0.00251321
0.0095058
0.0024399
0.00908771
0.00236113
0.00868118
0.00227715
0.00828733
0.00218821
0.00790726
0.00209461
0.00754198
0.00199672
0.00719247
0.00189502
0.00685957
0.00179007
0.00168257
0.0195472
0.00287716
-0.0199048
0.019172
0.00296822
0.0187802
0.00305058
0.0183728
0.00312403
0.0179511
0.00318837
0.0175162
0.00324344
0.0170694
0.00328914
0.016612
0.0033254
0.0161453
0.0033522
0.0156708
0.00336958
0.0151898
0.00337759
0.0147038
0.00337636
0.014214
0.00336603
0.0137221
0.00334679
0.0132293
0.00331884
0.0127371
0.00328242
0.0122468
0.00323777
0.0117599
0.00318516
0.0112777
0.00312485
0.0108015
0.00305707
0.0103326
0.00298207
0.00987243
0.00290009
0.00942223
0.00281134
0.00898331
0.00271607
0.00855698
0.00261454
0.00814453
0.00250707
0.00774719
0.00239406
0.00736614
0.00227606
0.00700245
0.00215376
0.002028
0.0202492
0.00323135
-0.0206034
0.0198756
0.00334174
0.0194838
0.00344247
0.0190746
0.00353322
0.0186492
0.00361373
0.0182089
0.00368379
0.0177548
0.00374322
0.0172883
0.0037919
0.0168107
0.00382978
0.0163234
0.00385683
0.0158279
0.0038731
0.0153256
0.00387866
0.014818
0.00387366
0.0143065
0.00385826
0.0137927
0.00383268
0.013278
0.00379715
0.0127638
0.00375192
0.0122517
0.00369726
0.0117431
0.00363344
0.0112395
0.00356071
0.0107422
0.00347931