/*--------------------------------*- C++ -*----------------------------------*\
| =========                 |                                                 |
| \\      /  F ield         | OpenFOAM: The Open Source CFD Toolbox           |
|  \\    /   O peration     | Version:  v1912                                 |
|   \\  /    A nd           | Website:  www.openfoam.com                      |
|    \\/     M anipulation  |                                                 |
\*---------------------------------------------------------------------------*/
FoamFile
{
    version     2.0;
    format      ascii;
    class       volVectorField;
    location    "16.75";
    object      U;
}
// * * * * * * * * * * * * * * * * * * * * * * * * * * * * * * * * * * * * * //

dimensions      [0 1 -1 0 0 0 0];


internalField   nonuniform List<vector> 
19200
(
(0.636421 -19.4014 -7.67553e-20)
(0.13822 -18.6146 0)
(0.325829 -17.9864 0)
(0.315987 -17.48 0)
(0.348492 -17.0328 0)
(0.385836 -16.615 0)
(0.419038 -16.2105 -1.47837e-20)
(0.449482 -15.8116 1.44987e-20)
(0.477133 -15.4156 0)
(0.501765 -15.0227 0)
(0.523516 -14.6346 -2.10048e-20)
(0.542675 -14.2531 1.28141e-21)
(0.559567 -13.8802 1.89806e-20)
(0.57452 -13.5172 0)
(0.587838 -13.1654 1.51809e-20)
(0.59979 -12.8255 -8.76459e-22)
(0.610603 -12.4977 -1.37914e-20)
(0.620467 -12.1822 0)
(0.629537 -11.8789 0)
(0.637936 -11.5874 0)
(0.645766 -11.3074 0)
(0.653112 -11.0383 0)
(0.66005 -10.7798 8.34302e-21)
(0.66665 -10.5312 -8.2098e-21)
(0.672985 -10.2917 0)
(0.679111 -10.0607 0)
(0.685061 -9.83707 -1.26384e-20)
(0.690973 -9.6196 1.24466e-20)
(0.697176 -9.40687 0)
(0.702684 -9.19725 0)
(1.14349 -19.3839 -1.00346e-19)
(0.627404 -18.6249 5.05746e-20)
(0.798734 -18.0017 0)
(0.775754 -17.5015 0)
(0.79646 -17.0571 0)
(0.822623 -16.6399 0)
(0.844865 -16.2347 -1.21122e-19)
(0.864431 -15.8343 5.83263e-20)
(0.881251 -15.4365 -1.79713e-21)
(0.895127 -15.0416 -3.12638e-21)
(0.906253 -14.6516 -8.73698e-20)
(0.914983 -14.2683 8.03957e-20)
(0.9217 -13.8937 -3.81989e-20)
(0.926774 -13.5294 0)
(0.930538 -13.1764 0)
(0.933279 -12.8354 0)
(0.935232 -12.5069 0)
(0.936585 -12.1907 0)
(0.937483 -11.8868 0)
(0.93804 -11.5948 0)
(0.938343 -11.3144 -2.00419e-20)
(0.938463 -11.0451 0)
(0.938458 -10.7863 -3.36571e-20)
(0.938383 -10.5375 3.31196e-20)
(0.93829 -10.298 -2.92614e-20)
(0.938214 -10.067 2.88059e-20)
(0.938156 -9.84342 0)
(0.938259 -9.6261 2.38609e-20)
(0.938931 -9.41352 -2.35033e-20)
(0.938861 -9.20401 2.19939e-20)
(1.6513 -19.3544 -2.06874e-19)
(1.11692 -18.6225 -9.32068e-20)
(1.27245 -18.0043 5.92222e-21)
(1.23665 -17.5109 8.37373e-20)
(1.2457 -17.0694 0)
(1.26074 -16.653 -1.30572e-19)
(1.27201 -16.2474 7.00675e-20)
(1.28063 -15.8458 1.17308e-19)
(1.28652 -15.4463 -5.24237e-20)
(1.28954 -15.0497 -9.24687e-20)
(1.28994 -14.658 9.07379e-20)
(1.28814 -14.2732 0)
(1.2846 -13.8973 -7.21768e-20)
(1.27972 -13.5318 7.08709e-20)
(1.27387 -13.1779 -6.3601e-20)
(1.26734 -12.8363 0)
(1.26039 -12.5071 0)
(1.2532 -12.1906 0)
(1.24589 -11.8863 0)
(1.23858 -11.5941 8.42197e-20)
(1.23133 -11.3135 -6.27806e-20)
(1.22421 -11.0441 7.28722e-20)
(1.21724 -10.7852 -7.16936e-20)
(1.21047 -10.5364 -6.32805e-20)
(1.20394 -10.297 1.21326e-19)
(1.19765 -10.0662 -1.1326e-19)
(1.19158 -9.84288 5.42876e-20)
(1.18587 -9.62587 0)
(1.181 -9.4136 2.32316e-20)
(1.1753 -9.2044 0)
(2.15753 -19.312 -4.04607e-19)
(1.60596 -18.6074 2.04197e-19)
(1.74641 -17.9946 -1.7174e-19)
(1.69827 -17.5081 1.15293e-20)
(1.69586 -17.0697 1.53715e-19)
(1.69983 -16.6542 0)
(1.70012 -16.2484 0)
(1.69773 -15.8458 0)
(1.69261 -15.445 3.1032e-19)
(1.68467 -15.047 -6.30538e-21)
(1.67425 -14.6539 -9.12638e-20)
(1.66185 -14.2678 -1.57549e-19)
(1.64797 -13.8909 1.54665e-19)
(1.63307 -13.5246 1.34061e-19)
(1.61755 -13.1701 -6.80636e-20)
(1.60172 -12.828 0)
(1.58583 -12.4986 0)
(1.57006 -12.1818 0)
(1.55453 -11.8775 0)
(1.53933 -11.5852 0)
(1.52452 -11.3047 7.89096e-20)
(1.51013 -11.0353 -7.7617e-20)
(1.4962 -10.7766 0)
(1.48273 -10.528 -6.38156e-20)
(1.46976 -10.2889 1.22368e-19)
(1.45725 -10.0583 -1.14261e-19)
(1.44517 -9.83545 5.47748e-20)
(1.43366 -9.61892 4.86443e-20)
(1.42325 -9.40712 -1.16694e-19)
(1.41189 -9.19841 -4.264e-20)
(2.66278 -19.2568 2.07568e-19)
(2.09485 -18.5798 3.89099e-19)
(2.22054 -17.9724 3.58414e-19)
(2.16037 -17.493 1.57621e-19)
(2.14665 -17.0578 2.88603e-19)
(2.13959 -16.6436 3.10182e-22)
(2.12888 -16.2377 2.59129e-19)
(2.11543 -15.8344 3.48359e-19)
(2.09921 -15.4326 1.05991e-19)
(2.08023 -15.0334 1.93656e-19)
(2.0589 -14.6392 5.99111e-21)
(2.03582 -14.2522 1.68899e-19)
(2.01154 -13.8745 4.96768e-21)
(1.98657 -13.5077 4.1781e-19)
(1.96133 -13.1529 -3.85969e-19)
(1.93617 -12.8106 2.41614e-19)
(1.91131 -12.4811 0)
(1.88694 -12.1644 0)
(1.86317 -11.8602 9.49138e-20)
(1.84007 -11.5682 0)
(1.81769 -11.2879 8.19957e-20)
(1.79603 -11.0188 7.40258e-20)
(1.77512 -10.7604 -7.28285e-20)
(1.75496 -10.5122 6.63135e-20)
(1.73554 -10.2734 0)
(1.71683 -10.0434 0)
(1.69875 -9.82109 5.40496e-20)
(1.68145 -9.6052 5.05668e-20)
(1.66553 -9.39404 4.46243e-20)
(1.64849 -9.186 -9.52744e-20)
(3.16654 -19.1887 -2.08951e-19)
(2.5832 -18.5395 -3.89098e-19)
(2.69449 -17.9379 -5.31886e-19)
(2.62261 -17.4657 -1.46815e-19)
(2.59774 -17.0339 -2.7817e-19)
(2.5797 -16.621 1.05098e-20)
(2.55796 -16.2154 -2.50636e-19)
(2.53338 -15.8116 -2.29764e-19)
(2.506 -15.4089 -2.1083e-19)
(2.47589 -15.0089 -3.81767e-19)
(2.44358 -14.6139 1.25201e-20)
(2.40974 -14.2263 3.34731e-19)
(2.37501 -13.8482 -1.46119e-19)
(2.33992 -13.4811 1.45173e-19)
(2.30494 -13.1262 3.83867e-19)
(2.27041 -12.784 -1.22488e-19)
(2.23657 -12.4547 0)
(2.20359 -12.1383 1.02955e-19)
(2.17157 -11.8345 1.85906e-19)
(2.14057 -11.5429 -2.65535e-19)
(2.11061 -11.2631 8.73331e-20)
(2.0817 -10.9944 2.26075e-19)
(2.05382 -10.7366 6.39414e-20)
(2.02696 -10.4889 -2.6604e-19)
(2.00111 -10.2507 1.90079e-19)
(1.97621 -10.0214 0)
(1.95214 -9.79979 4.64569e-22)
(1.92909 -9.58471 9.95253e-20)
(1.90768 -9.37435 -2.4844e-21)
(1.88496 -9.16718 9.16132e-20)
(3.66858 -19.1076 3.98613e-19)
(3.07084 -18.4865 -4.14063e-19)
(3.16802 -17.8909 0)
(3.08471 -17.4261 -3.30282e-19)
(3.04883 -16.9978 -2.91296e-19)
(3.01983 -16.5865 -2.57578e-19)
(2.98704 -16.1813 2.61536e-19)
(2.95128 -15.7773 0)
(2.91265 -15.3741 -2.13084e-19)
(2.87135 -14.9735 0)
(2.82799 -14.578 -3.59118e-19)
(2.78334 -14.19 -3.30661e-19)
(2.7381 -13.8118 -1.51978e-19)
(2.69286 -13.4448 -1.40261e-19)
(2.64811 -13.0901 1.22847e-19)
(2.6042 -12.7483 -3.67883e-19)
(2.56137 -12.4195 0)
(2.51977 -12.1036 -1.02955e-19)
(2.47951 -11.8004 6.39709e-22)
(2.44061 -11.5095 -8.87944e-20)
(2.40309 -11.2303 0)
(2.36691 -10.9623 7.34049e-20)
(2.33207 -10.7051 -2.19523e-19)
(2.29853 -10.4582 5.15782e-22)
(2.26627 -10.2208 5.97228e-20)
(2.23519 -9.99222 -6.07139e-21)
(2.20518 -9.77156 -6.01289e-20)
(2.17641 -9.55744 -2.56122e-19)
(2.14955 -9.34806 5.06861e-20)
(2.12117 -9.14196 0)
(4.16856 -19.0136 -8.99364e-22)
(3.55741 -18.4209 0)
(3.6408 -17.8314 -3.5034e-19)
(3.54636 -17.3741 1.00556e-18)
(3.4996 -16.9496 -1.0719e-20)
(3.45967 -16.54 2.67249e-19)
(3.41579 -16.1354 5.00177e-19)
(3.3688 -15.7315 -1.55989e-20)
(3.31886 -15.328 -7.93494e-21)
(3.26628 -14.9271 1.90154e-19)
(3.21182 -14.5314 -3.5651e-19)
(3.15631 -14.1434 5.09275e-19)
(3.10052 -13.7654 -2.97408e-19)
(3.04511 -13.3987 2.92027e-19)
(2.99057 -13.0445 -2.53967e-19)
(2.93727 -12.7034 1.43764e-20)
(2.88544 -12.3753 2.31003e-19)
(2.83524 -12.0603 0)
(2.78674 -11.7579 9.15777e-20)
(2.73996 -11.4678 -1.84625e-19)
(2.69488 -11.1895 1.62505e-19)
(2.65147 -10.9224 -8.44701e-21)
(2.60968 -10.6661 -1.48947e-19)
(2.56948 -10.42 -6.73525e-20)
(2.53082 -10.1836 0)
(2.49361 -9.95599 5.92427e-20)
(2.45767 -9.73639 0)
(2.42323 -9.52341 0)
(2.39098 -9.31518 0)
(2.35698 -9.11036 0)
(4.66613 -18.9066 -8.49375e-19)
(4.04262 -18.3425 7.92875e-19)
(4.11254 -17.7594 -7.30645e-19)
(4.00723 -17.3098 -3.31885e-19)
(3.94971 -16.8892 9.28356e-21)
(3.89888 -16.4815 1.06028e-20)
(3.84389 -16.0778 -2.54518e-19)
(3.7856 -15.6741 0)
(3.72429 -15.2707 0)
(3.66039 -14.8698 -1.32995e-20)
(3.59476 -14.4742 -3.75148e-19)
(3.52835 -14.0865 6.59361e-19)
(3.46199 -13.7089 -1.91788e-20)
(3.39638 -13.3429 -2.9366e-19)
(3.33205 -12.9895 2.63796e-19)
(3.26936 -12.6493 -2.36526e-19)
(3.20855 -12.3223 4.51646e-19)
(3.14976 -12.0083 -2.15469e-19)
(3.09304 -11.707 0)
(3.03838 -11.418 5.42393e-21)
(2.98577 -11.1408 9.22715e-21)
(2.93514 -10.8748 3.85633e-21)
(2.88643 -10.6195 0)
(2.8396 -10.3745 0)
(2.79458 -10.1391 0)
(2.75125 -9.91269 -5.92427e-20)
(2.70944 -9.69431 0)
(2.66939 -9.48263 2.03321e-19)
(2.6318 -9.27572 -9.65017e-21)
(2.59221 -9.0724 -3.85936e-19)
(5.16098 -18.7866 1.2736e-18)
(4.52614 -18.2514 -4.07347e-19)
(4.5829 -17.6749 -3.8121e-19)
(4.46699 -17.2331 0)
(4.39884 -16.8165 0)
(4.33712 -16.4109 0)
(4.27101 -16.0083 0)
(4.20137 -15.6052 -9.26541e-19)
(4.12863 -15.2021 4.4649e-19)
(4.05334 -14.8015 3.95603e-19)
(3.97651 -14.4063 0)
(3.89916 -14.0193 -3.35176e-19)
(3.82222 -13.6424 -3.00707e-19)
(3.74641 -13.2774 1.74771e-20)
(3.67228 -12.9251 9.02605e-21)
(3.60021 -12.5861 -2.37922e-19)
(3.53043 -12.2603 2.33771e-19)
(3.46307 -11.9477 -2.04728e-19)
(3.39815 -11.6477 2.01244e-19)
(3.33565 -11.3601 -1.81201e-19)
(3.27553 -11.0841 -1.6975e-19)
(3.21771 -10.8194 4.6418e-19)
(3.16212 -10.5654 -4.49629e-19)
(3.10868 -10.3216 2.67485e-19)
(3.05733 -10.0875 -2.63268e-19)
(3.00793 -9.86233 0)
(2.96029 -9.64535 0)
(2.91468 -9.43513 -1.05459e-19)
(2.87183 -9.22971 0)
(2.82671 -9.02812 -2.87672e-19)
(5.65275 -18.6538 -4.49835e-19)
(5.00762 -18.1476 -3.41246e-20)
(5.05156 -17.5779 3.54436e-19)
(4.92533 -17.144 -3.24591e-19)
(4.84665 -16.7316 -2.9741e-19)
(4.77408 -16.3283 5.63646e-19)
(4.6968 -15.9271 -1.78572e-20)
(4.61578 -15.5247 -4.75014e-19)
(4.53155 -15.1222 4.48659e-19)
(4.44484 -14.7223 3.8619e-19)
(4.35676 -14.3279 -7.46572e-19)
(4.26846 -13.9417 3.38645e-19)
(4.18091 -13.566 -3.12352e-19)
(4.0949 -13.2022 0)
(4.01098 -12.8513 0)
(3.92955 -12.5137 -4.8623e-19)
(3.85083 -12.1895 2.42119e-19)
(3.77492 -11.8784 -2.00311e-19)
(3.70184 -11.5801 1.10534e-20)
(3.63153 -11.2939 4.6899e-21)
(3.56394 -11.0195 3.40596e-19)
(3.49897 -10.7563 1.4996e-19)
(3.43652 -10.5037 -1.56663e-19)
(3.37651 -10.2613 0)
(3.31887 -10.0286 2.51826e-19)
(3.26344 -9.80496 -1.26697e-19)
(3.21003 -9.58952 0)
(3.15892 -9.38094 1.05459e-19)
(3.11087 -9.17719 2.9344e-19)
(3.06031 -8.97753 -1.03271e-19)
(6.14112 -18.5082 4.03933e-19)
(5.48674 -18.0312 -3.41882e-20)
(5.51818 -17.4683 -2.43669e-20)
(5.38189 -17.0425 -3.49796e-19)
(5.2928 -16.6344 6.15602e-19)
(5.20939 -16.2337 -1.11016e-18)
(5.12094 -15.834 1.05233e-18)
(5.02849 -15.4328 4.59567e-19)
(4.93273 -15.0312 -2.8716e-20)
(4.83455 -14.6321 -2.60095e-20)
(4.73521 -14.2388 -1.32042e-20)
(4.63593 -13.8539 -9.36035e-21)
(4.53778 -13.4796 -3.14793e-19)
(4.44157 -13.1173 1.75889e-20)
(4.34789 -12.7681 1.59916e-20)
(4.25713 -12.4323 5.02136e-19)
(4.1695 -12.1099 -2.28884e-19)
(4.08508 -11.8006 2.12398e-19)
(4.00386 -11.5041 3.85172e-19)
(3.92579 -11.2197 -1.95189e-19)
(3.85077 -10.947 -1.70846e-19)
(3.77868 -10.6855 1.59216e-19)
(3.70941 -10.4345 0)
(3.64288 -10.1938 -2.71309e-19)
(3.57899 -9.96264 1.33829e-20)
(3.51759 -9.74061 1.2849e-19)
(3.45846 -9.52688 2.22242e-19)
(3.40191 -9.3201 -2.18869e-19)
(3.34876 -9.11818 9.57549e-20)
(3.29283 -8.92068 -9.18197e-21)
(6.62573 -18.3498 2.15159e-18)
(5.96315 -17.902 4.16187e-19)
(5.98242 -17.3463 -3.33993e-19)
(5.83633 -16.9286 7.0267e-19)
(5.73695 -16.5251 1.22054e-18)
(5.64273 -16.127 -1.8911e-20)
(5.54308 -15.7292 0)
(5.43917 -15.3293 0)
(5.33185 -14.9289 0)
(5.22217 -14.5311 4.03328e-19)
(5.11154 -14.1391 0)
(5.00128 -13.7558 0)
(4.89253 -13.3832 3.15493e-19)
(4.78615 -13.0228 -2.82261e-19)
(4.68274 -12.6756 5.3839e-19)
(4.58267 -12.3418 -5.06175e-19)
(4.48616 -12.0215 6.8028e-19)
(4.39328 -11.7143 -2.26283e-19)
(4.30398 -11.4198 1.99643e-19)
(4.21818 -11.1375 -3.60586e-19)
(4.13577 -10.8667 8.63497e-19)
(4.05661 -10.607 -3.30416e-19)
(3.98058 -10.3579 4.42872e-19)
(3.90757 -10.1189 -1.55107e-19)
(3.83748 -9.88956 -1.37461e-19)
(3.77015 -9.66932 1.22953e-19)
(3.70537 -9.45746 3.3904e-19)
(3.64347 -9.25264 -2.20502e-19)
(3.58529 -9.05273 1.01171e-19)
(3.52411 -8.85761 -9.49191e-20)
(7.10626 -18.1787 3.3311e-21)
(6.43651 -17.7602 3.3557e-21)
(6.44393 -17.2117 7.46893e-19)
(6.28832 -16.8024 -6.57907e-19)
(6.17875 -16.4035 2.3798e-20)
(6.07376 -16.0083 -5.68754e-19)
(5.9629 -15.6125 -5.05463e-19)
(5.84749 -15.2143 9.75804e-19)
(5.72858 -14.8154 0)
(5.60738 -14.4192 -4.0333e-19)
(5.48544 -14.029 -3.60687e-19)
(5.36422 -13.6475 3.5401e-19)
(5.24489 -13.2769 -3.15494e-19)
(5.12835 -12.9188 0)
(5.01524 -12.5738 -2.54154e-19)
(4.90592 -12.2423 7.65403e-19)
(4.80058 -11.9243 -2.31435e-19)
(4.69927 -11.6195 4.20321e-19)
(4.60194 -11.3273 -1.00137e-18)
(4.50847 -11.0472 7.459e-19)
(4.41873 -10.7786 -8.67676e-19)
(4.33255 -10.521 3.32444e-19)
(4.2498 -10.2739 -1.50482e-19)
(4.17036 -10.0369 -1.34445e-19)
(4.09412 -9.80945 1.43462e-20)
(4.02093 -9.59116 3.71e-19)
(3.95055 -9.38133 -4.61768e-19)
(3.88338 -9.17862 2.22109e-19)
(3.82028 -8.98089 -1.01171e-19)
(3.75396 -8.78837 9.64968e-20)
(7.58237 -17.9951 -4.09874e-20)
(6.90648 -17.6058 -1.66684e-18)
(6.90239 -17.0648 -1.46989e-18)
(6.73751 -16.6638 2.37913e-20)
(6.61787 -16.2697 -6.04624e-19)
(6.50212 -15.8776 5.92778e-19)
(6.38004 -15.4841 0)
(6.25312 -15.0878 -4.80088e-19)
(6.12259 -14.6908 0)
(5.98986 -14.2965 0)
(5.85662 -13.9083 -3.62346e-19)
(5.72443 -13.529 6.89715e-19)
(5.59455 -13.1608 -3.27962e-19)
(5.4679 -12.8051 5.70171e-19)
(5.34513 -12.4627 -1.3586e-18)
(5.22659 -12.1339 5.18391e-19)
(5.11248 -11.8185 0)
(5.00281 -11.5162 -6.37448e-19)
(4.8975 -11.2266 4.14269e-19)
(4.79642 -10.949 0)
(4.69939 -10.6828 -1.75018e-19)
(4.60625 -10.4275 0)
(4.51684 -10.1826 1.43792e-19)
(4.43102 -9.9477 -5.68225e-19)
(4.3487 -9.72237 6.99593e-21)
(4.2697 -9.50619 -2.42423e-19)
(4.1938 -9.29854 -2.21164e-19)
(4.12143 -9.09811 2.23691e-19)
(4.05352 -8.90274 -1.99932e-19)
(3.9822 -8.71303 2.07303e-19)
(8.05373 -17.799 0)
(7.37273 -17.439 0)
(7.35745 -16.9054 7.25969e-19)
(7.18357 -16.5129 -2.67022e-20)
(7.05396 -16.1237 -6.07152e-19)
(6.92748 -15.735 5.95256e-19)
(6.79418 -15.3441 -5.09808e-19)
(6.65572 -14.95 9.84151e-19)
(6.51356 -14.5551 -4.44573e-19)
(6.3693 -14.163 -3.95234e-19)
(6.22477 -13.7772 2.38735e-20)
(6.08164 -13.4004 6.92825e-19)
(5.94123 -13.0349 2.90242e-19)
(5.80451 -12.682 -3.1285e-19)
(5.67213 -12.3425 -5.30295e-19)
(5.54444 -12.0165 5.20928e-19)
(5.42161 -11.704 2.35044e-19)
(5.30363 -11.4046 0)
(5.1904 -11.1177 0)
(5.08176 -10.8428 1.8889e-19)
(4.97752 -10.5792 5.16991e-19)
(4.87748 -10.3265 -6.55437e-19)
(4.78146 -10.084 1.68288e-19)
(4.68933 -9.85143 7.15031e-19)
(4.60097 -9.62838 -1.41013e-19)
(4.51623 -9.41448 0)
(4.43488 -9.20917 2.34321e-19)
(4.35742 -9.01119 0)
(4.28479 -8.81834 2.01411e-19)
(4.20863 -8.63167 -3.11223e-19)
(8.51999 -17.5905 -8.29449e-19)
(7.83491 -17.2597 1.68314e-18)
(7.80878 -16.7338 7.55976e-19)
(7.62614 -16.3498 0)
(7.48667 -15.9657 -6.31557e-19)
(7.3495 -15.5805 0)
(7.20497 -15.1924 -5.29996e-19)
(7.05498 -14.8008 -1.44344e-20)
(6.90118 -14.4083 -1.61915e-20)
(6.74538 -14.0188 -4.10389e-19)
(6.58958 -13.6357 -3.77762e-19)
(6.43553 -13.2618 -3.48182e-19)
(6.28464 -12.8993 0)
(6.13791 -12.5495 2.79901e-19)
(5.99597 -12.2131 -3.24405e-20)
(5.85918 -11.8903 -5.23397e-19)
(5.7277 -11.5809 -6.93381e-19)
(5.60148 -11.2846 2.31073e-19)
(5.4804 -11.0008 3.96139e-19)
(5.36427 -10.7288 -9.47273e-19)
(5.25287 -10.4681 1.85815e-19)
(5.14599 -10.218 0)
(5.04342 -9.9782 0)
(4.94504 -9.74816 1.37029e-19)
(4.85072 -9.52756 -4.10689e-19)
(4.76029 -9.31611 0)
(4.67357 -9.11331 -1.17557e-19)
(4.59109 -8.91793 0)
(4.51387 -8.72779 0)
(4.43304 -8.54438 4.01657e-19)
(8.98083 -17.3698 -1.75373e-18)
(8.29269 -17.068 -8.19924e-19)
(8.25605 -16.5499 -7.5598e-19)
(8.06489 -16.1745 0)
(7.91566 -15.7956 1.26558e-18)
(7.76783 -15.4141 -5.60623e-19)
(7.61209 -15.0291 5.65774e-19)
(7.45055 -14.6403 5.04037e-19)
(7.28511 -14.2506 4.48169e-19)
(7.11779 -13.864 8.08941e-19)
(6.95074 -13.4839 -1.33259e-20)
(6.78583 -13.1132 2.07721e-20)
(6.62451 -12.754 6.64646e-19)
(6.46781 -12.4076 -5.78108e-19)
(6.31638 -12.0746 5.67772e-19)
(6.17057 -11.7553 4.96191e-19)
(6.0305 -11.4493 -9.48083e-19)
(5.89611 -11.1564 8.924e-19)
(5.76724 -10.8758 -3.98167e-19)
(5.64369 -10.607 3.91477e-19)
(5.5252 -10.3494 9.08976e-21)
(5.41153 -10.1023 6.62826e-19)
(5.30249 -9.86527 -3.17502e-19)
(5.19791 -9.63794 4.26905e-19)
(5.09768 -9.41999 -1.42685e-19)
(5.00164 -9.21115 0)
(4.90962 -9.01102 0)
(4.82221 -8.81842 -3.23203e-19)
(4.74051 -8.63116 4.28404e-19)
(4.6552 -8.45125 1.03139e-19)
(9.43593 -17.137 1.75837e-18)
(8.74575 -16.8642 0)
(8.69892 -16.3538 7.34523e-19)
(8.49949 -15.9871 -7.19965e-19)
(8.3406 -15.6135 2.39792e-21)
(8.18215 -15.236 5.62783e-19)
(8.0152 -14.8543 -5.51839e-19)
(7.84211 -14.4686 0)
(7.66505 -14.082 -4.48172e-19)
(7.48623 -13.6986 8.0027e-19)
(7.30797 -13.3219 -7.85292e-19)
(7.13223 -12.9547 3.30198e-19)
(6.96054 -12.5991 -1.29522e-18)
(6.79394 -12.2564 3.58837e-20)
(6.63309 -11.9272 1.10782e-18)
(6.47833 -11.6116 -5.28113e-19)
(6.32974 -11.3093 4.62693e-19)
(6.18725 -11.0199 -6.75141e-19)
(6.05068 -10.7429 -4.0013e-19)
(5.91976 -10.4775 3.93407e-19)
(5.79425 -10.2232 -5.25479e-19)
(5.67387 -9.97924 3.4189e-19)
(5.5584 -9.74527 0)
(5.44769 -9.52087 -1.44946e-19)
(5.34161 -9.30575 0)
(5.24002 -9.0997 0)
(5.14276 -8.90242 -4.66613e-19)
(5.05051 -8.71276 3.47811e-19)
(4.96444 -8.52856 4.11484e-19)
(4.87486 -8.35236 -8.35341e-19)
(9.88497 -16.8922 -8.40073e-19)
(9.19377 -16.6483 8.72638e-19)
(9.13709 -16.1457 7.3725e-19)
(8.9296 -15.7877 -7.22637e-19)
(8.76114 -15.4196 -6.36425e-19)
(8.59211 -15.0462 -5.64884e-19)
(8.41396 -14.6681 3.60361e-20)
(8.22935 -14.2858 9.83123e-19)
(8.04067 -13.9027 -4.66165e-19)
(7.85039 -13.5227 0)
(7.66096 -13.1497 0)
(7.47445 -12.7864 6.82525e-19)
(7.29245 -12.4348 -6.70031e-19)
(7.11603 -12.0961 0)
(6.94584 -11.7708 0)
(6.7822 -11.4592 0)
(6.62518 -11.1609 0)
(6.47466 -10.8754 0)
(6.33044 -10.6021 -4.02024e-19)
(6.19224 -10.3403 3.95269e-19)
(6.05977 -10.0895 3.49335e-19)
(5.93273 -9.84897 -3.43613e-19)
(5.81091 -9.61827 0)
(5.69411 -9.39701 0)
(5.58224 -9.18492 0)
(5.47515 -8.98185 0)
(5.37273 -8.78757 0)
(5.27572 -8.60103 0)
(5.1854 -8.42009 0)
(5.09177 -8.24783 0)
(10.3276 -16.6356 0)
(9.63643 -16.4203 0)
(9.57022 -15.9257 0)
(9.35489 -15.5763 0)
(9.17696 -15.2138 1.28208e-18)
(8.99738 -14.8448 1.17405e-18)
(8.80806 -14.4706 5.56179e-19)
(8.61193 -14.092 1.49665e-18)
(8.41167 -13.7126 0)
(8.20996 -13.3365 0)
(8.00942 -12.9675 1.51002e-18)
(7.81222 -12.6083 -1.41413e-18)
(7.61999 -12.261 1.95845e-18)
(7.43382 -11.9266 -1.76811e-20)
(7.25437 -11.6056 5.58838e-19)
(7.08194 -11.2983 1.53e-20)
(6.91655 -11.0041 9.74656e-19)
(6.75809 -10.7227 4.33899e-19)
(6.6063 -10.4534 -1.09071e-20)
(6.46087 -10.1955 3.76296e-19)
(6.3215 -9.94846 -3.70053e-19)
(6.18787 -9.71155 0)
(6.05974 -9.48433 3.14914e-19)
(5.93691 -9.26642 2.94591e-19)
(5.8193 -9.05757 2.75852e-19)
(5.70676 -8.85767 2.58553e-19)
(5.59923 -8.66659 4.72415e-19)
(5.49752 -8.48334 -2.17378e-20)
(5.40307 -8.30585 -8.5392e-19)
(5.30563 -8.13777 1.8246e-20)
(10.7636 -16.3674 2.62629e-18)
(10.0735 -16.1806 -8.78605e-19)
(9.99803 -15.6937 7.97253e-19)
(9.77505 -15.3531 -6.78574e-19)
(9.58773 -14.9963 -3.18967e-18)
(9.39763 -14.6319 6.12942e-19)
(9.19716 -14.2618 -1.59747e-18)
(8.98955 -13.8872 5.14867e-19)
(8.77774 -13.5119 -2.99035e-20)
(8.56466 -13.14 -8.62917e-19)
(8.35306 -12.7754 -7.42745e-19)
(8.14524 -12.4207 7.31622e-19)
(7.94286 -12.0779 -6.53042e-19)
(7.74704 -11.748 5.89742e-19)
(7.55842 -11.4317 -1.13587e-18)
(7.37728 -11.1288 1.97558e-21)
(7.20362 -10.8391 -9.49385e-19)
(7.03729 -10.562 4.47767e-19)
(6.87799 -10.297 -2.10138e-20)
(6.72541 -10.0432 -2.07996e-20)
(6.57919 -9.80009 -1.08687e-18)
(6.43902 -9.56702 3.46847e-19)
(6.30462 -9.3435 -6.31303e-19)
(6.17581 -9.12916 1.4313e-21)
(6.05248 -8.92377 -8.15826e-19)
(5.93454 -8.72725 2.73011e-19)
(5.82193 -8.53956 -4.75189e-19)
(5.71557 -8.3598 4.67976e-19)
(5.61708 -8.18595 2.15211e-19)
(5.51606 -8.02231 0)
(11.1927 -16.0876 5.63484e-21)
(10.5046 -15.9292 1.67534e-18)
(10.4202 -15.4501 -1.53978e-18)
(10.1898 -15.1182 -4.71307e-21)
(9.99311 -14.7673 2.57732e-18)
(9.79255 -14.4076 3.89925e-21)
(9.58096 -14.0419 -1.08316e-18)
(9.36188 -13.6717 -9.90323e-19)
(9.13858 -13.3007 9.09464e-19)
(8.91417 -12.9334 -8.39021e-19)
(8.69161 -12.5734 -7.69956e-19)
(8.47325 -12.2235 0)
(8.26082 -11.8855 6.37437e-19)
(8.05545 -11.5606 -1.83985e-18)
(7.85775 -11.2491 0)
(7.66799 -10.9509 -5.19972e-19)
(7.48615 -10.6659 0)
(7.31201 -10.3934 -1.69208e-21)
(7.14528 -10.1328 -1.01036e-20)
(6.9856 -9.88333 -4.00377e-19)
(6.83259 -9.64441 8.42149e-21)
(6.68591 -9.4154 6.79147e-19)
(6.54528 -9.19581 -9.06797e-21)
(6.41051 -8.98527 2.83129e-19)
(6.2815 -8.78356 -8.48598e-19)
(6.15816 -8.59064 0)
(6.0405 -8.40656 0)
(5.92952 -8.2305 -2.30323e-19)
(5.82702 -8.06052 -2.15212e-19)
(5.72264 -7.90156 -4.20358e-19)
(11.6147 -15.7966 -1.78614e-18)
(10.9295 -15.6662 -2.48974e-18)
(10.8365 -15.1948 -7.51814e-19)
(10.5987 -14.8717 1.4111e-18)
(10.3928 -14.5267 -1.29081e-18)
(10.1818 -14.172 -1.182e-18)
(9.95912 -13.8111 1.08317e-18)
(9.72862 -13.4454 9.96718e-19)
(9.49387 -13.0791 0)
(9.25823 -12.7167 8.39029e-19)
(9.02478 -12.3617 0)
(8.79598 -12.0169 0)
(8.57361 -11.6841 0)
(8.35878 -11.3643 6.08033e-19)
(8.15212 -11.0578 0)
(7.95384 -10.7647 0)
(7.7639 -10.4846 4.72154e-19)
(7.58205 -10.2169 4.37995e-19)
(7.40795 -9.96091 0)
(7.24122 -9.71598 0)
(7.08146 -9.48145 3.65421e-19)
(6.9283 -9.25671 -3.41258e-19)
(6.78145 -9.04126 3.1905e-19)
(6.64071 -8.83474 0)
(6.50599 -8.63694 2.78575e-19)
(6.37724 -8.44786 0)
(6.2545 -8.26761 0)
(6.13889 -8.09548 4.61844e-19)
(6.03242 -7.9296 0)
(5.92487 -7.77561 0)
(12.0292 -15.4944 0)
(11.3479 -15.3919 0)
(11.2465 -14.928 1.55002e-18)
(11.0016 -14.6136 0)
(10.7864 -14.2748 -6.272e-19)
(10.5651 -13.9253 6.14912e-19)
(10.3313 -13.5693 -1.05325e-18)
(10.0895 -13.2086 2.00253e-18)
(9.84334 -12.8473 -3.00046e-20)
(9.59654 -12.4901 -8.44233e-19)
(9.3523 -12.1404 1.53016e-18)
(9.11318 -11.801 -2.20933e-20)
(8.88098 -11.4737 6.61833e-19)
(8.65682 -11.1592 0)
(8.4413 -10.8582 1.1165e-18)
(8.23462 -10.5703 -1.05027e-18)
(8.03667 -10.2953 9.88853e-19)
(7.84719 -10.0325 -8.92375e-19)
(7.66579 -9.78139 8.5493e-19)
(7.49206 -9.54117 3.93076e-19)
(7.32558 -9.31122 1.26356e-21)
(7.16595 -9.09092 3.41261e-19)
(7.01287 -8.87981 -3.19053e-19)
(6.86612 -8.67751 2.99737e-19)
(6.72564 -8.48384 2.80884e-19)
(6.59139 -8.29883 0)
(6.46348 -8.12265 -2.35198e-19)
(6.34313 -7.95466 2.27062e-20)
(6.23258 -7.79315 1.09303e-18)
(6.12193 -7.64448 -2.26084e-19)
(12.4363 -15.1811 9.4593e-19)
(11.7597 -15.1063 -1.62111e-18)
(11.6501 -14.6498 5.10194e-20)
(11.398 -14.3441 1.47432e-18)
(11.1737 -14.0116 1.30304e-18)
(10.942 -13.6676 5.7615e-19)
(10.6973 -13.3168 1.09309e-18)
(10.4441 -12.9613 9.7232e-19)
(10.1867 -12.6055 -2.75979e-18)
(9.92882 -12.2537 1.71814e-18)
(9.67391 -11.9097 -1.55697e-18)
(9.4246 -11.576 2.07902e-21)
(9.1827 -11.2544 -6.6184e-19)
(8.94934 -10.9456 -6.13763e-19)
(8.72509 -10.6501 -5.66612e-19)
(8.51011 -10.3677 1.03857e-18)
(8.30426 -10.098 -1.47957e-18)
(8.10724 -9.8404 0)
(7.91862 -9.59427 -4.21863e-19)
(7.73794 -9.35892 -3.9308e-19)
(7.56476 -9.1337 -7.24747e-19)
(7.39867 -8.91802 3.5219e-19)
(7.23933 -8.71141 6.25952e-19)
(7.08654 -8.51353 -9.15697e-19)
(6.9402 -8.32419 -2.80887e-19)
(6.80033 -8.14346 -5.15899e-19)
(6.66708 -7.97158 2.60498e-19)
(6.54178 -7.80798 -6.88401e-19)
(6.42683 -7.65112 2.3017e-19)
(6.31286 -7.508 -2.1764e-19)
(12.836 -14.8572 -3.78654e-20)
(12.1646 -14.8096 7.98843e-19)
(12.0468 -14.3604 1.56439e-18)
(11.7878 -14.0634 -7.34955e-19)
(11.5544 -13.7373 -1.30687e-18)
(11.3123 -13.399 -1.15221e-18)
(11.0566 -13.0537 -5.26496e-19)
(10.7922 -12.7038 -1.00264e-18)
(10.5236 -12.3536 9.23277e-19)
(10.2548 -12.0078 0)
(9.98934 -11.6697 7.79613e-19)
(9.72997 -11.342 -7.18864e-19)
(9.47852 -11.0263 -6.65609e-19)
(9.2361 -10.7235 6.1377e-19)
(9.00327 -10.4338 -5.69882e-19)
(8.78013 -10.157 -5.26902e-19)
(8.5665 -9.89282 4.75275e-19)
(8.36203 -9.64055 -4.68428e-19)
(8.16626 -9.39957 0)
(7.97869 -9.16922 0)
(7.79884 -8.94886 0)
(7.62627 -8.73793 6.71121e-19)
(7.46064 -8.53597 -6.60267e-19)
(7.30172 -8.34267 0)
(7.14945 -8.15788 0)
(7.00385 -7.98172 0)
(6.86516 -7.81449 0)
(6.73476 -7.65571 -2.34391e-19)
(6.61523 -7.50388 -4.31428e-19)
(6.49792 -7.36638 2.28296e-19)
(13.2292 -14.5235 8.6768e-19)
(12.5627 -14.502 -8.95317e-19)
(12.4364 -14.0597 -2.32112e-18)
(12.1706 -13.7714 2.17439e-18)
(11.928 -13.4519 -6.3269e-19)
(11.6756 -13.1196 6.20294e-19)
(11.409 -12.7802 3.67936e-20)
(11.1335 -12.4361 3.02455e-18)
(10.8537 -12.092 -1.87944e-18)
(10.5741 -11.7523 8.5119e-19)
(10.2983 -11.4205 7.83773e-19)
(10.029 -11.0992 7.00452e-19)
(9.76821 -10.7897 6.45334e-19)
(9.51691 -10.4931 -5.98738e-19)
(9.27565 -10.2094 1.17461e-18)
(9.0445 -9.93845 5.4489e-19)
(8.82323 -9.67987 4.90525e-19)
(8.61144 -9.43305 -4.44451e-19)
(8.4086 -9.19733 8.5071e-19)
(8.21419 -8.97206 -4.06869e-19)
(8.02767 -8.75662 0)
(7.84857 -8.55048 0)
(7.67652 -8.35325 0)
(7.51129 -8.16463 5.89445e-19)
(7.35282 -7.98456 -5.80152e-19)
(7.20119 -7.8133 0)
(7.05681 -7.65127 0)
(6.92123 -7.49799 2.34394e-19)
(6.79726 -7.35198 -4.33284e-19)
(6.67747 -7.2213 6.70083e-19)
(13.6172 -14.1802 -4.09051e-20)
(12.9543 -14.1827 -8.98112e-19)
(12.8185 -13.7474 -1.5731e-18)
(12.546 -13.4682 -7.39313e-19)
(12.2943 -13.1555 6.33973e-19)
(12.0316 -12.8295 -1.2026e-18)
(11.7542 -12.4964 -1.09904e-18)
(11.4676 -12.1586 -1.00803e-18)
(11.1769 -11.8209 0)
(10.8866 -11.4877 -1.67731e-18)
(10.6006 -11.1625 8.12593e-19)
(10.3216 -10.8477 -7.0223e-19)
(10.0516 -10.5448 6.91029e-19)
(9.79159 -10.2545 0)
(9.54209 -9.97699 -5.71381e-19)
(9.3031 -9.71208 5.31054e-19)
(9.07435 -9.4593 4.92985e-19)
(8.85538 -9.21803 0)
(8.64561 -8.98763 0)
(8.44445 -8.76746 0)
(8.2513 -8.55692 3.70487e-19)
(8.06563 -8.3555 -3.28178e-19)
(7.88697 -8.16283 6.63196e-19)
(7.71503 -7.97871 3.02543e-19)
(7.54967 -7.8032 0)
(7.39097 -7.63675 0)
(7.23953 -7.47994 -2.38826e-19)
(7.09726 -7.33237 7.15542e-19)
(6.96697 -7.19348 0)
(6.84326 -7.07427 0)
(13.9993 -13.825 -1.77815e-18)
(13.339 -13.8503 9.00663e-19)
(13.1926 -13.4235 8.12317e-19)
(12.9135 -13.1542 5.05419e-20)
(12.6531 -12.8486 -6.32222e-19)
(12.3801 -12.5294 1.20261e-18)
(12.092 -12.2027 0)
(11.7944 -11.8716 0)
(11.4929 -11.5406 0)
(11.1922 -11.2142 -8.28134e-19)
(10.8961 -10.8959 2.69017e-20)
(10.6076 -10.5879 0)
(10.3286 -10.2917 -6.69016e-19)
(10.0601 -10.0081 0)
(9.80251 -9.73696 0)
(9.55589 -9.47822 -1.04813e-18)
(9.31985 -9.23134 1.50528e-20)
(9.09389 -8.99572 0)
(8.87738 -8.77069 0)
(8.66965 -8.55561 3.87412e-19)
(8.47004 -8.34988 -7.51476e-19)
(8.27793 -8.15298 -1.02108e-18)
(8.09273 -7.96453 6.64234e-19)
(7.91396 -7.78434 -3.02546e-19)
(7.74118 -7.61253 0)
(7.57415 -7.44963 0)
(7.41325 -7.29617 -2.49557e-19)
(7.25991 -7.15217 -2.34578e-19)
(7.11473 -7.0208 4.32385e-19)
(6.97463 -6.91746 -4.496e-19)
(19.8883 0.122354 8.82584e-20)
(19.8739 -0.401704 1.1484e-19)
(19.8463 -0.923023 3.47231e-19)
(19.807 -1.44217 4.59127e-19)
(19.7551 -1.95942 -2.35137e-19)
(19.6901 -2.47466 2.35016e-19)
(19.6118 -2.98763 2.20787e-20)
(19.5201 -3.49806 -4.69845e-19)
(19.4152 -4.00567 9.38178e-19)
(19.2971 -4.51015 -1.40732e-18)
(19.1659 -5.01116 9.3693e-19)
(19.0216 -5.50837 -1.38311e-18)
(18.8644 -6.00146 -1.40311e-18)
(18.6944 -6.49009 9.45672e-22)
(18.5118 -6.97393 4.45527e-20)
(18.3166 -7.45266 0)
(18.1091 -7.92595 8.88272e-19)
(17.8893 -8.39349 1.86093e-18)
(17.6575 -8.85497 -1.8591e-18)
(17.4137 -9.31008 8.84065e-19)
(17.1583 -9.75851 0)
(16.8914 -10.2 -2.73013e-18)
(16.6132 -10.6342 3.02863e-21)
(16.3238 -11.0609 1.84577e-18)
(16.0236 -11.4798 0)
(15.7127 -11.8908 -9.60916e-19)
(15.3914 -12.2936 4.68987e-20)
(15.0603 -12.6881 -8.68816e-19)
(14.7184 -13.075 9.15668e-19)
(14.3693 -13.4527 1.78139e-18)
(19.6819 -0.37022 0)
(19.6526 -0.887324 -5.82017e-20)
(19.609 -1.40142 -9.18619e-21)
(19.5518 -1.91287 -2.32712e-19)
(19.4813 -2.42196 -4.41886e-19)
(19.3975 -2.92851 4.41885e-19)
(19.3004 -3.43222 4.64979e-19)
(19.1902 -3.93275 0)
(19.0668 -4.42979 -8.82187e-19)
(18.9304 -4.92302 4.5434e-19)
(18.7812 -5.4121 -4.27555e-19)
(18.6192 -5.8967 9.16425e-19)
(18.4445 -6.37649 -4.53318e-19)
(18.2574 -6.85115 -8.78451e-19)
(18.0579 -7.32033 1.8027e-18)
(17.8463 -7.78374 0)
(17.6226 -8.24104 -1.79742e-18)
(17.3872 -8.69193 8.75338e-19)
(17.1401 -9.13612 0)
(16.8816 -9.5733 -9.18336e-19)
(16.612 -10.0032 -1.74048e-18)
(16.3313 -10.4255 2.65601e-18)
(16.0398 -10.84 -1.73466e-18)
(15.7378 -11.2464 1.73467e-18)
(15.4254 -11.6445 0)
(15.1031 -12.0341 1.65391e-18)
(14.7706 -12.415 -8.17608e-19)
(14.4286 -12.787 9.05846e-19)
(14.0761 -13.1504 0)
(13.7142 -13.5046 -9.02462e-19)
(19.3748 -0.18845 0)
(19.3513 -0.69505 0)
(19.3134 -1.20021 -6.82796e-21)
(19.2615 -1.70348 1.96493e-19)
(19.196 -2.20461 -4.07065e-19)
(19.1169 -2.7033 6.03534e-19)
(19.0244 -3.1992 0)
(18.9187 -3.69197 3.92731e-19)
(18.7998 -4.18125 8.12941e-19)
(18.6679 -4.66672 4.18847e-19)
(18.5232 -5.14804 -3.934e-19)
(18.3657 -5.62489 2.68725e-20)
(18.1956 -6.09692 3.6472e-19)
(18.013 -6.56381 -1.59215e-18)
(17.8182 -7.02523 1.59139e-18)
(17.6113 -7.48085 -7.80802e-19)
(17.3925 -7.93038 -8.07005e-19)
(17.162 -8.37348 8.07009e-19)
(16.9199 -8.80987 -7.77922e-19)
(16.6666 -9.23923 -7.76835e-19)
(16.4022 -9.6613 0)
(16.1269 -10.0758 -8.27796e-19)
(15.8409 -10.4824 1.60229e-18)
(15.5445 -10.881 1.59676e-18)
(15.2379 -11.2712 -1.59677e-18)
(14.9213 -11.6528 -5.22543e-20)
(14.5949 -12.0256 -1.58764e-18)
(14.2589 -12.3895 2.35368e-18)
(13.913 -12.7441 1.58086e-18)
(13.5578 -13.0888 -8.18225e-19)
(18.9924 -0.212936 0)
(18.9703 -0.708173 0)
(18.9344 -1.20245 -9.62883e-20)
(18.8848 -1.69516 -1.92599e-19)
(18.8216 -2.18589 -1.79311e-19)
(18.745 -2.67429 1.66043e-19)
(18.6551 -3.16003 3.71094e-19)
(18.5519 -3.64274 -1.12702e-18)
(18.4357 -4.12207 3.70977e-19)
(18.3065 -4.59768 0)
(18.1645 -5.06922 3.58035e-19)
(18.0098 -5.53634 3.84087e-19)
(17.8426 -5.99871 -7.67565e-19)
(17.663 -6.45599 1.4814e-18)
(17.4713 -6.90785 -2.78262e-20)