/*--------------------------------*- C++ -*----------------------------------*\
  =========                 |
  \\      /  F ield         | OpenFOAM: The Open Source CFD Toolbox
   \\    /   O peration     | Website:  https://openfoam.org
    \\  /    A nd           | Version:  6.0
     \\/     M anipulation  |
\*---------------------------------------------------------------------------*/
FoamFile
{
    version     2.0;
    format      ascii;
    class       volVectorField;
    location    "11.504";
    object      U;
}
// * * * * * * * * * * * * * * * * * * * * * * * * * * * * * * * * * * * * * //

dimensions      [0 1 -1 0 0 0 0];

internalField   nonuniform List<vector> 
19200
(
(0.00654803 -0.478532 -4.29954e-22)
(0.00479607 -0.439417 2.38356e-22)
(0.00272536 -0.403603 1.22402e-22)
(0.000341077 -0.37089 1.19532e-22)
(-0.00222991 -0.341057 1.46468e-22)
(-0.00485288 -0.313881 7.4164e-24)
(-0.00743556 -0.289147 2.34874e-22)
(-0.00991249 -0.266649 -2.44605e-23)
(-0.0122369 -0.246192 2.33182e-22)
(-0.0143773 -0.227594 1.02065e-22)
(-0.0163144 -0.210685 -1.07255e-23)
(-0.0180384 -0.195308 1.82104e-22)
(-0.0195471 -0.181318 3.44418e-22)
(-0.0208437 -0.168585 -2.51416e-22)
(-0.0219361 -0.156985 3.3505e-22)
(-0.0228354 -0.14641 3.18928e-22)
(-0.0235551 -0.13676 -3.13535e-22)
(-0.0241108 -0.127944 5.74076e-22)
(-0.024519 -0.11988 -3.85396e-22)
(-0.024797 -0.112494 1.95431e-22)
(-0.0249627 -0.105721 3.03042e-22)
(-0.0250339 -0.099501 -1.09674e-22)
(-0.0250279 -0.0937797 1.49424e-22)
(-0.0249621 -0.0885086 -1.89834e-22)
(-0.0248523 -0.0836439 5.03736e-24)
(-0.0247151 -0.07915 1.13207e-22)
(-0.0245657 -0.0749961 -7.69662e-23)
(-0.0244089 -0.0711564 4.22335e-23)
(-0.0242367 -0.0676051 1.17771e-22)
(-0.024136 -0.0643185 5.82122e-22)
(0.0191063 -0.47772 -1.03924e-22)
(0.0163246 -0.438042 7.50513e-22)
(0.0133239 -0.401827 -4.19112e-22)
(0.0101177 -0.368845 -6.41905e-22)
(0.00682954 -0.338853 -3.25086e-22)
(0.00358679 -0.311609 -2.47851e-22)
(0.000473983 -0.286881 -5.76747e-22)
(-0.00245098 -0.264446 6.93041e-23)
(-0.0051485 -0.244098 -1.12827e-22)
(-0.00759382 -0.225642 -4.81982e-22)
(-0.00977398 -0.2089 -1.38229e-21)
(-0.0116851 -0.193707 7.19285e-22)
(-0.0133301 -0.179911 -2.89053e-22)
(-0.0147174 -0.167375 1.11094e-22)
(-0.0158595 -0.155973 -7.58306e-22)
(-0.0167716 -0.145591 -3.06674e-22)
(-0.0174714 -0.136125 2.96728e-23)
(-0.0179777 -0.127482 1.15585e-21)
(-0.0183106 -0.119577 -5.99728e-22)
(-0.0184906 -0.112335 -3.46179e-22)
(-0.0185383 -0.105687 -1.55117e-21)
(-0.0184741 -0.099574 4.12367e-22)
(-0.0183183 -0.0939399 -2.79079e-22)
(-0.01809 -0.0887356 5.26512e-22)
(-0.0178078 -0.0839176 -2.67472e-22)
(-0.0174902 -0.0794496 -4.35521e-22)
(-0.0171547 -0.0753021 1.35863e-22)
(-0.0168065 -0.0714493 2.49218e-22)
(-0.0164351 -0.0678658 -4.24253e-22)
(-0.0161403 -0.06453 2.73567e-22)
(0.0315784 -0.476621 -4.97392e-23)
(0.0277488 -0.436401 1.31082e-22)
(0.0238261 -0.39982 2.24607e-22)
(0.019812 -0.366609 2.22432e-21)
(0.0158247 -0.3365 -1.41644e-21)
(0.0119856 -0.309228 1.30853e-21)
(0.00837125 -0.284543 8.66488e-22)
(0.00503165 -0.262206 7.70058e-22)
(0.00199862 -0.241998 -7.84215e-22)
(-0.000710444 -0.223715 -1.3129e-22)
(-0.0030894 -0.207167 2.24058e-21)
(-0.00514064 -0.192182 4.28558e-22)
(-0.00687302 -0.178604 -1.20555e-21)
(-0.00830024 -0.166287 9.58222e-22)
(-0.00943956 -0.155101 -1.99172e-23)
(-0.0103108 -0.144929 4.72253e-22)
(-0.0109357 -0.135662 3.46294e-22)
(-0.0113371 -0.127206 1.33162e-21)
(-0.0115384 -0.119472 -5.67097e-22)
(-0.0115634 -0.112383 -1.83513e-22)
(-0.0114359 -0.105869 -5.98957e-22)
(-0.0111792 -0.0998695 2.85874e-21)
(-0.0108161 -0.0943273 -2.48934e-21)
(-0.0103684 -0.0891929 8.02129e-22)
(-0.00985709 -0.0844224 4.71426e-22)
(-0.0093031 -0.0799796 -1.81363e-21)
(-0.00872649 -0.0758353 2.50115e-21)
(-0.00813266 -0.0719644 -2.51876e-22)
(-0.0075077 -0.0683411 -3.01145e-22)
(-0.00696795 -0.0649475 -2.62839e-21)
(0.0439953 -0.475225 -1.5652e-21)
(0.0390918 -0.43451 -1.65115e-21)
(0.0342411 -0.397603 -2.21833e-21)
(0.029427 -0.364206 8.7512e-24)
(0.024758 -0.334023 1.39333e-22)
(0.0203469 -0.306764 -3.09362e-21)
(0.0162615 -0.282159 1.19623e-22)
(0.0125425 -0.259956 4.73695e-22)
(0.00921328 -0.239922 -6.30948e-23)
(0.00628324 -0.221841 9.5035e-22)
(0.00375113 -0.205515 -3.8228e-21)
(0.00160776 -0.190765 -2.64762e-21)
(-0.000161947 -0.177425 9.47641e-22)
(-0.00157734 -0.165349 2.22078e-21)
(-0.00266085 -0.154398 -2.60329e-21)
(-0.00343708 -0.144453 -4.34587e-22)
(-0.003932 -0.135402 -1.77268e-21)
(-0.00417244 -0.127145 -8.87663e-22)
(-0.00418562 -0.119594 1.62108e-21)
(-0.00399878 -0.112669 -2.14467e-21)
(-0.00363885 -0.106297 2.03579e-21)
(-0.00313232 -0.100417 -2.42899e-21)
(-0.00250484 -0.0949716 -2.05857e-21)
(-0.00178104 -0.0899097 -1.61342e-21)
(-0.000984232 -0.0851871 -4.16703e-22)
(-0.000138326 -0.0807679 -3.59265e-21)
(0.000734057 -0.0766226 3.85535e-22)
(0.00162722 -0.0727269 7.25102e-22)
(0.00255914 -0.0690545 -2.23533e-21)
(0.00339401 -0.0655918 4.40255e-22)
(0.0563597 -0.473523 -9.10582e-22)
(0.0503601 -0.432371 1.60029e-22)
(0.044575 -0.395191 1.47779e-21)
(0.0389683 -0.361657 1.69223e-21)
(0.0336354 -0.331444 1.33518e-21)
(0.0286783 -0.30424 5.95875e-22)
(0.0241537 -0.279756 9.60034e-22)
(0.0200923 -0.257723 4.87489e-21)
(0.0165079 -0.237895 -3.00497e-21)
(0.0134013 -0.220047 6.26715e-23)
(0.010763 -0.203971 7.89742e-22)
(0.00857675 -0.18948 3.95249e-21)
(0.00682075 -0.176404 -2.79798e-21)
(0.00546969 -0.164588 2.16227e-21)
(0.00449568 -0.153892 -2.59385e-21)
(0.00386921 -0.144191 4.69422e-21)
(0.00355977 -0.13537 -1.40241e-21)
(0.00353637 -0.127327 5.44634e-23)
(0.00376794 -0.119971 2.66931e-21)
(0.00422362 -0.113219 2.05769e-21)
(0.00487308 -0.106999 -2.09995e-21)
(0.00568655 -0.101245 3.02887e-21)
(0.00663536 -0.0958997 -1.48295e-21)
(0.00769187 -0.0909127 1.75189e-21)
(0.00883 -0.0862383 2.55217e-21)
(0.0100231 -0.0818398 1.04474e-21)
(0.0112451 -0.0776889 3.23764e-21)
(0.0124907 -0.0737602 -1.02335e-21)
(0.0137823 -0.0700274 -2.64715e-22)
(0.0149614 -0.0664824 -2.25122e-21)
(0.0686673 -0.471514 -6.70324e-22)
(0.0615544 -0.429992 -4.87713e-22)
(0.0548318 -0.392597 -1.68462e-21)
(0.0484421 -0.358978 -4.87555e-21)
(0.0424652 -0.328784 1.63203e-21)
(0.0369896 -0.301679 1.29435e-22)
(0.0320599 -0.277356 -1.33331e-21)
(0.027695 -0.25553 3.31843e-22)
(0.0238984 -0.235943 -1.63392e-22)
(0.0206611 -0.218357 -4.32404e-21)
(0.0179653 -0.202559 1.80358e-21)
(0.0157866 -0.188352 3.47587e-21)
(0.0140963 -0.175562 -2.57503e-23)
(0.0128629 -0.164028 1.44314e-21)
(0.0120528 -0.153606 3.92858e-21)
(0.0116312 -0.144165 -2.86654e-21)
(0.0115631 -0.13559 5.29896e-21)
(0.011813 -0.127775 -2.71825e-21)
(0.012346 -0.120626 5.06534e-21)
(0.0131274 -0.114058 -3.98303e-21)
(0.0141234 -0.107997 1.83533e-21)
(0.015301 -0.102375 5.33252e-21)
(0.0166278 -0.0971357 5.16485e-22)
(0.0180736 -0.092225 -5.3765e-21)
(0.0196086 -0.0875988 3.14275e-21)
(0.0212035 -0.0832185 3.92115e-22)
(0.0228287 -0.0790557 -1.17882e-21)
(0.0244788 -0.0750856 4.56541e-21)
(0.0261819 -0.0712792 1.80433e-21)
(0.0277534 -0.0676366 -1.88751e-21)
(0.0809123 -0.469204 1.96673e-21)
(0.0726737 -0.42738 1.15458e-22)
(0.0650149 -0.389832 -3.41982e-21)
(0.0578553 -0.356185 7.35477e-22)
(0.051257 -0.326061 -1.19034e-21)
(0.0452934 -0.299101 7.92693e-22)
(0.0399949 -0.27498 2.02356e-21)
(0.0353678 -0.253399 4.11171e-21)
(0.0314039 -0.234085 -4.79346e-21)
(0.0280838 -0.216794 1.17611e-21)
(0.0253803 -0.2013 -1.01664e-21)
(0.023261 -0.187404 7.69274e-22)
(0.0216897 -0.174921 -3.44751e-21)
(0.0206282 -0.163689 -3.27936e-22)
(0.0200369 -0.153559 6.3977e-21)
(0.0198759 -0.144397 -4.47137e-21)
(0.0201051 -0.136083 -3.1211e-21)
(0.0206848 -0.128509 -2.52941e-21)
(0.0215759 -0.121579 4.52638e-21)
(0.0227399 -0.115205 1.09445e-21)
(0.0241393 -0.109311 -5.09046e-21)
(0.0257376 -0.103829 7.18509e-21)
(0.0274991 -0.0986992 -6.73019e-21)
(0.02939 -0.0938678 4.74987e-21)
(0.0313777 -0.0892884 -2.78286e-21)
(0.0334286 -0.0849233 1.93573e-21)
(0.0355101 -0.0807426 1.61877e-21)
(0.0376164 -0.0767209 -7.18671e-21)
(0.0397819 -0.0728268 3.16135e-21)
(0.0417925 -0.0690695 7.10971e-23)
(0.0930884 -0.466597 -1.94253e-21)
(0.0837167 -0.424544 1.66217e-21)
(0.075128 -0.386909 -3.67564e-21)
(0.0672156 -0.353292 7.28689e-21)
(0.0600222 -0.323291 -2.17182e-21)
(0.0536042 -0.296525 3.46314e-21)
(0.0479763 -0.272648 5.80806e-23)
(0.0431307 -0.251349 -4.57667e-22)
(0.0390467 -0.232344 -8.67403e-22)
(0.0356936 -0.215376 -5.54095e-23)
(0.0330343 -0.200214 -3.76764e-21)
(0.0310276 -0.186651 1.98773e-21)
(0.0296296 -0.174499 -2.68764e-21)
(0.028795 -0.163589 -1.85414e-22)
(0.0284782 -0.153768 -8.46848e-21)
(0.0286338 -0.1449 2.79322e-21)
(0.0292168 -0.136862 1.84668e-21)
(0.0301829 -0.129543 -2.10294e-21)
(0.0314887 -0.122844 -2.38035e-22)
(0.033092 -0.116675 -3.62736e-21)
(0.0349514 -0.110958 -1.3745e-21)
(0.0370268 -0.105622 2.02948e-22)
(0.0392792 -0.100607 -3.70662e-21)
(0.041671 -0.0958566 -5.96713e-21)
(0.044166 -0.0913244 2.04922e-22)
(0.0467271 -0.0869707 -7.7154e-22)
(0.0493172 -0.0827656 2.19357e-21)
(0.0519308 -0.0786817 -5.67936e-21)
(0.0546088 -0.0746845 5.07302e-21)
(0.0571043 -0.0707938 -1.15467e-20)
(0.105189 -0.463696 -4.7334e-21)
(0.0946826 -0.42149 6.53526e-21)
(0.0851752 -0.383837 -7.57674e-21)
(0.076532 -0.350313 -2.28281e-21)
(0.068774 -0.32049 -1.61647e-21)
(0.0619388 -0.293966 -1.87863e-21)
(0.0560241 -0.270377 -1.75584e-21)
(0.0510067 -0.249398 -3.11168e-22)
(0.0468522 -0.230734 -1.96409e-21)
(0.0435182 -0.214119 -4.56118e-22)
(0.0409568 -0.199316 4.05701e-21)
(0.0391175 -0.18611 -2.11964e-21)
(0.0379482 -0.174308 -2.87022e-21)
(0.0373966 -0.163739 -5.39694e-21)
(0.0374108 -0.154245 1.1806e-20)
(0.0379395 -0.145687 -4.77985e-21)
(0.0389328 -0.137939 1.89343e-21)
(0.0403418 -0.130888 -7.65504e-21)
(0.042119 -0.124431 2.99074e-21)
(0.0442181 -0.118478 -1.38429e-21)
(0.0465939 -0.112946 1.67979e-21)
(0.0492025 -0.107764 -6.48028e-22)
(0.0520013 -0.102869 6.23458e-21)
(0.0549492 -0.0982028 -2.28998e-21)
(0.058006 -0.093718 6.85623e-21)
(0.0611305 -0.0893731 -1.71523e-21)
(0.0642812 -0.0851371 9.57203e-21)
(0.0674524 -0.0809806 3.00502e-21)
(0.0706923 -0.0768636 5.82982e-21)
(0.0737172 -0.0728195 -2.01512e-20)
(0.11721 -0.460506 7.4542e-21)
(0.105571 -0.418228 -1.53731e-21)
(0.0951618 -0.380629 3.34957e-21)
(0.0858148 -0.347262 -1.02201e-21)
(0.0775271 -0.317673 3.7079e-21)
(0.0703161 -0.291439 3.85507e-21)
(0.0641608 -0.268182 4.67815e-21)
(0.0590215 -0.24756 -4.54588e-22)
(0.0548492 -0.22927 -5.2459e-21)
(0.0515886 -0.213037 7.85878e-21)
(0.0491807 -0.198617 -8.44344e-22)
(0.0475653 -0.18579 6.26982e-21)
(0.0466817 -0.174358 2.45925e-21)
(0.0464701 -0.164147 8.6357e-22)
(0.0468722 -0.154995 1.50657e-21)
(0.047831 -0.146762 2.26454e-21)
(0.0492913 -0.139317 4.13111e-21)
(0.0511999 -0.132546 -1.33702e-21)
(0.0535048 -0.126343 6.85512e-21)
(0.0561558 -0.120616 3.46253e-21)
(0.0591039 -0.11528 -7.39528e-21)
(0.0623015 -0.11026 1.39292e-20)
(0.0657021 -0.10549 -1.92976e-20)
(0.0692605 -0.100912 1.91203e-20)
(0.0729332 -0.0964752 -6.59056e-21)
(0.0766737 -0.0921374 1.20095e-21)
(0.0804363 -0.0878649 -9.74204e-21)
(0.0842146 -0.0836252 5.52981e-21)
(0.0880645 -0.0793721 2.15618e-21)
(0.0916622 -0.0751536 -2.98839e-21)
(0.129144 -0.457031 -4.25426e-21)
(0.116383 -0.414766 4.93962e-21)
(0.105094 -0.377295 -1.40481e-21)
(0.0950756 -0.344149 4.35843e-21)
(0.0862982 -0.314852 4.55909e-22)
(0.0787573 -0.288959 1.25157e-21)
(0.0724116 -0.266075 -9.22263e-21)
(0.0672038 -0.245848 -1.80345e-21)
(0.0630692 -0.227964 6.82126e-21)
(0.059939 -0.21214 5.74115e-21)
(0.0577426 -0.198126 -1.01682e-20)
(0.0564092 -0.185697 6.33067e-21)
(0.0558695 -0.174654 -6.58457e-21)
(0.056056 -0.164815 4.98877e-21)
(0.0569037 -0.156021 -8.73337e-21)
(0.0583498 -0.148124 -7.03089e-21)
(0.0603341 -0.140996 2.19726e-22)
(0.0627986 -0.134516 -3.73278e-21)
(0.0656872 -0.128578 6.46096e-21)
(0.0689458 -0.123087 2.81219e-21)
(0.0725216 -0.117955 -1.83781e-21)
(0.076363 -0.113106 -5.31104e-22)
(0.08042 -0.108469 2.67525e-21)
(0.0846432 -0.103983 -8.87283e-21)
(0.0889849 -0.0995971 1.54732e-20)
(0.0933939 -0.0952648 -3.73446e-21)
(0.0978188 -0.0909512 -4.82057e-22)
(0.102253 -0.0866187 1.55993e-20)
(0.10676 -0.0822134 2.48599e-21)
(0.110973 -0.0777997 -2.49283e-21)
(0.140986 -0.453277 2.03614e-22)
(0.12712 -0.411111 -2.53035e-21)
(0.11498 -0.373845 -2.60926e-21)
(0.104328 -0.340988 -4.71854e-21)
(0.095106 -0.31204 1.84924e-22)
(0.0872856 -0.286537 -4.08623e-21)
(0.0808041 -0.264069 4.89778e-21)
(0.0755849 -0.244272 -4.91063e-22)
(0.0715469 -0.226823 4.85524e-21)
(0.0686069 -0.211433 -3.85624e-21)
(0.066682 -0.197846 -2.19058e-21)
(0.0656907 -0.185834 1.28579e-21)
(0.0655547 -0.175194 7.45611e-22)
(0.0661984 -0.165743 -8.31654e-21)
(0.0675501 -0.157317 5.0149e-21)
(0.0695411 -0.149769 -2.8077e-21)
(0.0721062 -0.142966 8.00682e-21)
(0.0751827 -0.136788 -2.83559e-21)
(0.0787105 -0.131126 3.0251e-21)
(0.0826316 -0.12588 8.41414e-22)
(0.0868895 -0.120963 5.92977e-21)
(0.091429 -0.116292 -1.15956e-21)
(0.0961959 -0.111795 1.08042e-20)
(0.101137 -0.107409 -1.22987e-20)
(0.1062 -0.103077 -4.51399e-21)
(0.111329 -0.0987506 3.84504e-21)
(0.116466 -0.0943929 -2.26438e-22)
(0.121605 -0.0899597 -7.38859e-21)
(0.126815 -0.0853866 6.1492e-21)
(0.131683 -0.0807577 -8.32474e-21)
(0.152732 -0.449247 7.30438e-21)
(0.137783 -0.407271 2.20949e-21)
(0.124828 -0.370289 2.91345e-21)
(0.113586 -0.337787 4.33517e-21)
(0.103971 -0.309246 6.96962e-21)
(0.0959269 -0.284182 -2.33738e-22)
(0.0893684 -0.262171 1.03971e-21)
(0.0841988 -0.242839 9.59549e-21)
(0.0803197 -0.225853 -1.95794e-21)
(0.0776327 -0.21092 -4.0581e-21)
(0.0760418 -0.197779 7.54024e-21)
(0.0754548 -0.186199 1.47236e-21)
(0.0757835 -0.175974 1.93493e-23)
(0.0769446 -0.166921 2.03228e-21)
(0.0788592 -0.158872 4.05779e-21)
(0.081453 -0.151681 -8.97869e-21)
(0.0846555 -0.145213 7.87539e-21)
(0.0883997 -0.139345 1.40991e-21)
(0.0926215 -0.133966 8.79847e-21)
(0.097259 -0.128976 -4.87095e-21)
(0.102252 -0.124282 8.66122e-21)
(0.107543 -0.119799 -9.66162e-21)
(0.113072 -0.115452 9.75054e-21)
(0.118783 -0.111173 1.67098e-21)
(0.12462 -0.1069 -7.08115e-21)
(0.130519 -0.102583 -2.63522e-21)
(0.136417 -0.0981799 1.5173e-20)
(0.142307 -0.0936402 1.14188e-20)
(0.148266 -0.0888858 3.16422e-21)
(0.153829 -0.0840229 -2.83463e-21)
(0.164377 -0.444946 7.64214e-22)
(0.148376 -0.403254 2.0745e-21)
(0.134647 -0.366634 9.10557e-21)
(0.122868 -0.334557 -1.54015e-20)
(0.112916 -0.306481 -1.72547e-21)
(0.104709 -0.281904 -1.88428e-21)
(0.098137 -0.260389 8.30788e-22)
(0.0930824 -0.241553 1.29206e-21)
(0.0894279 -0.225056 2.37138e-21)
(0.0870596 -0.2106 -6.66961e-21)
(0.085868 -0.19792 -1.60026e-21)
(0.0857492 -0.186785 4.07672e-21)
(0.0866054 -0.176985 4.93207e-21)
(0.088345 -0.168335 -4.93756e-21)
(0.0908822 -0.160671 -5.54944e-21)
(0.0941366 -0.153842 8.71809e-21)
(0.0980329 -0.147713 6.25965e-21)
(0.1025 -0.142161 -1.49879e-21)
(0.107469 -0.137073 -4.36551e-21)
(0.112876 -0.132346 8.74085e-22)
(0.118656 -0.127884 -1.14323e-20)
(0.124749 -0.123599 1.42865e-20)
(0.131092 -0.119412 -1.01949e-20)
(0.137623 -0.115249 -5.99165e-22)
(0.144283 -0.111044 7.28864e-21)
(0.151002 -0.106742 -2.42561e-21)
(0.15771 -0.102295 -7.82125e-21)
(0.164396 -0.0976459 9.78247e-21)
(0.171149 -0.0926997 -3.18984e-22)
(0.177445 -0.087586 2.07866e-21)
(0.175918 -0.44038 -5.04624e-22)
(0.158902 -0.399066 -2.07675e-21)
(0.144451 -0.362891 -1.05109e-20)
(0.132191 -0.331306 3.8389e-21)
(0.121964 -0.303752 -1.35922e-21)
(0.113661 -0.279708 4.43131e-21)
(0.107145 -0.258728 3.25955e-22)
(0.102275 -0.240417 -6.12302e-21)
(0.0989142 -0.224431 9.67088e-21)
(0.0969335 -0.210469 -9.16611e-21)
(0.0962089 -0.198263 -5.15914e-22)
(0.0966245 -0.187579 2.52974e-21)
(0.0980725 -0.178209 -4.58942e-21)
(0.100453 -0.169968 5.64615e-21)
(0.103673 -0.162689 -1.12026e-20)
(0.107646 -0.156224 -2.93438e-21)
(0.112292 -0.150437 7.26541e-21)
(0.117535 -0.145204 -2.015e-22)
(0.123304 -0.140411 -5.57369e-21)
(0.129531 -0.135952 1.51769e-20)
(0.136149 -0.13173 -8.1596e-21)
(0.143093 -0.127653 -1.19047e-20)
(0.150297 -0.123636 4.20408e-21)
(0.157698 -0.119601 -1.28381e-20)
(0.165228 -0.115475 -3.41683e-21)
(0.172814 -0.111197 -6.0568e-22)
(0.180378 -0.106713 -9.78828e-21)
(0.187908 -0.101955 1.169e-20)
(0.195496 -0.0968103 -6.95794e-21)
(0.202564 -0.0914329 8.9948e-21)
(0.187349 -0.435552 -2.5812e-21)
(0.169367 -0.394714 -8.4083e-21)
(0.15425 -0.359066 4.5859e-21)
(0.141574 -0.328042 -4.63334e-21)
(0.131143 -0.301065 -3.7542e-21)
(0.122816 -0.2776 -2.41318e-21)
(0.116429 -0.257188 -8.9721e-21)
(0.111816 -0.23943 6.35599e-21)
(0.108824 -0.223975 -1.67596e-20)
(0.107303 -0.21052 -6.74747e-21)
(0.107115 -0.198796 2.20612e-21)
(0.108134 -0.188568 4.24718e-21)
(0.110239 -0.179629 1.0122e-22)
(0.113324 -0.171794 -9.16832e-21)
(0.117287 -0.164898 2.19521e-21)
(0.122036 -0.158794 -9.44698e-21)
(0.127486 -0.153346 -7.30338e-21)
(0.133559 -0.14843 -4.81712e-21)
(0.140179 -0.143933 -1.31965e-21)
(0.147274 -0.139746 8.08583e-21)
(0.154776 -0.13577 1.25194e-20)
(0.162618 -0.131909 -3.94309e-21)
(0.17073 -0.128075 -4.07561e-21)
(0.179045 -0.124181 8.03018e-21)
(0.187492 -0.120148 4.76407e-21)
(0.195991 -0.115907 -3.78423e-21)
(0.204456 -0.111398 -4.53279e-21)
(0.212872 -0.106537 4.06111e-22)
(0.22134 -0.101192 5.23851e-21)
(0.229214 -0.0955442 7.95074e-21)
(0.198668 -0.430468 -6.5709e-22)
(0.179776 -0.390206 1.08853e-20)
(0.16406 -0.355166 9.25112e-21)
(0.151039 -0.324772 7.73985e-21)
(0.14048 -0.298427 -5.18639e-21)
(0.132207 -0.275583 -1.10095e-21)
(0.126027 -0.255772 9.52265e-22)
(0.121751 -0.238589 8.15132e-21)
(0.119203 -0.223681 3.2851e-21)
(0.118217 -0.210742 8.40708e-21)
(0.11864 -0.199503 -1.23192e-20)
(0.120332 -0.18973 1.16939e-21)
(0.123162 -0.181218 5.4999e-21)
(0.127015 -0.173783 3.6549e-21)
(0.131782 -0.167263 8.26093e-21)
(0.137365 -0.161511 -5.46112e-21)
(0.143674 -0.156394 -5.67625e-21)
(0.150627 -0.15179 9.07267e-22)
(0.158145 -0.147584 1.32025e-20)
(0.166155 -0.143669 -2.21403e-20)
(0.174586 -0.139942 7.84693e-21)
(0.183368 -0.136305 -1.27373e-22)
(0.19243 -0.132664 1.67781e-20)
(0.201702 -0.128926 -7.29181e-21)
(0.211107 -0.125005 -2.46669e-22)
(0.220562 -0.12082 -5.18504e-21)
(0.229971 -0.116303 5.01949e-21)
(0.239315 -0.111354 1.28622e-21)
(0.248702 -0.105813 -6.38571e-21)
(0.25742 -0.0998938 2.36505e-20)
(0.209872 -0.425133 -1.03508e-20)
(0.190136 -0.385548 -6.7158e-21)
(0.173894 -0.351199 -1.8563e-20)
(0.160609 -0.321499 -9.2383e-21)
(0.150004 -0.295839 8.90069e-21)
(0.141869 -0.273657 -5.77846e-21)
(0.13598 -0.254477 -1.63244e-21)
(0.132124 -0.23789 -4.35342e-21)
(0.130101 -0.223541 7.46816e-21)
(0.129729 -0.211122 -1.81804e-21)
(0.130838 -0.200367 -2.95339e-21)
(0.133275 -0.191044 -4.22711e-22)
(0.136899 -0.182948 -1.41558e-20)
(0.141585 -0.175901 -1.06779e-21)
(0.147217 -0.169742 3.76117e-21)
(0.153691 -0.164328 -5.0355e-22)
(0.160913 -0.159528 -1.75048e-20)
(0.168795 -0.155223 1.77042e-20)
(0.177257 -0.151299 -1.83244e-20)
(0.186225 -0.14765 7.36245e-21)
(0.195624 -0.144172 1.06686e-21)
(0.205384 -0.140764 4.67066e-22)
(0.215434 -0.137326 -8.86547e-21)
(0.225699 -0.133761 3.1994e-21)
(0.236101 -0.129972 7.40329e-23)
(0.24655 -0.125868 1.17869e-21)
(0.256941 -0.121367 -2.66101e-20)
(0.267254 -0.116352 6.90617e-21)
(0.277601 -0.110631 8.09254e-21)
(0.287196 -0.104449 1.09323e-20)
(0.220958 -0.419552 2.05002e-20)
(0.200453 -0.380746 8.24342e-21)
(0.183769 -0.347169 5.08042e-21)
(0.170308 -0.31823 8.29826e-21)
(0.159746 -0.293305 -1.1715e-21)
(0.151838 -0.271822 7.15821e-21)
(0.146329 -0.253299 1.69304e-20)
(0.142979 -0.237323 -2.10379e-21)
(0.141567 -0.223541 1.12643e-21)
(0.141889 -0.211643 2.37248e-20)
(0.143763 -0.201367 -3.00801e-21)
(0.147019 -0.192482 3.63667e-21)
(0.151508 -0.184788 -1.58885e-21)
(0.157093 -0.17811 -6.01166e-22)
(0.163652 -0.172291 2.17253e-20)
(0.171074 -0.167193 8.43112e-22)
(0.179259 -0.162689 2.56677e-20)
(0.188119 -0.158663 -3.08843e-21)
(0.197568 -0.155004 -6.13152e-21)
(0.207531 -0.151609 1.46792e-20)
(0.217935 -0.148373 -1.42684e-20)
(0.228706 -0.145194 1.59744e-20)
(0.239774 -0.141969 9.05291e-21)
(0.251063 -0.138593 -7.85705e-21)
(0.262494 -0.134959 1.19274e-20)
(0.27397 -0.130965 1.40467e-21)
(0.28538 -0.126514 -5.76898e-21)
(0.296698 -0.121465 2.53911e-21)
(0.308041 -0.115591 2.08731e-20)
(0.318548 -0.109167 3.56843e-21)
(0.231925 -0.413729 -3.51745e-21)
(0.210736 -0.375804 -8.09717e-21)
(0.193702 -0.343081 3.67699e-21)
(0.180159 -0.314966 -1.49868e-20)
(0.169736 -0.290823 7.68843e-21)
(0.162151 -0.270074 -1.47764e-20)
(0.157115 -0.252231 -1.05379e-20)
(0.154363 -0.23688 2.97138e-21)
(0.153649 -0.223667 3.54396e-21)
(0.154751 -0.212287 -1.59576e-20)
(0.15747 -0.202479 -7.40921e-21)
(0.161623 -0.194016 3.72442e-21)
(0.167048 -0.186702 -1.02319e-20)
(0.173599 -0.180367 -4.35682e-21)
(0.181146 -0.174861 -3.1301e-21)
(0.189572 -0.17005 -3.23277e-21)
(0.198773 -0.165812 -1.42925e-20)
(0.208654 -0.162036 -9.61901e-21)
(0.21913 -0.158618 1.41216e-21)
(0.230124 -0.155455 3.23268e-21)
(0.241561 -0.152447 3.82461e-21)
(0.25337 -0.149492 -1.31421e-20)
(0.26548 -0.146483 5.19032e-21)
(0.277817 -0.14331 -1.1045e-20)
(0.2903 -0.139857 1.10074e-20)
(0.30283 -0.136007 -1.45829e-20)
(0.315288 -0.131649 5.03172e-21)
(0.327644 -0.126611 -7.51948e-21)
(0.34002 -0.120625 -1.13554e-20)
(0.351472 -0.113995 -1.35663e-21)
(0.242769 -0.407671 -7.5023e-21)
(0.220993 -0.370729 -7.30157e-21)
(0.203711 -0.338939 -7.79683e-21)
(0.190189 -0.311708 -6.37274e-21)
(0.180008 -0.288394 1.96899e-20)
(0.172845 -0.268409 3.0633e-21)
(0.168382 -0.251264 9.40536e-21)
(0.166321 -0.236547 1.52694e-20)
(0.166397 -0.223904 7.97598e-21)
(0.168366 -0.213033 -1.05908e-20)
(0.172012 -0.203676 1.8696e-20)
(0.177139 -0.195613 -1.86229e-20)
(0.183573 -0.188653 1.86027e-20)
(0.191159 -0.182631 2.37958e-21)
(0.199757 -0.177403 5.17304e-21)
(0.209244 -0.17284 1.62371e-21)
(0.219509 -0.16883 2.30499e-20)
(0.230456 -0.165266 -3.48514e-21)
(0.241996 -0.162052 3.33843e-21)
(0.25405 -0.15909 1.19122e-20)
(0.266544 -0.156285 -1.35444e-20)
(0.27941 -0.153538 1.13823e-20)
(0.292578 -0.150742 5.24526e-22)
(0.305977 -0.147782 5.53295e-21)
(0.319527 -0.144534 1.05488e-20)
(0.333127 -0.140868 -1.84477e-21)
(0.346655 -0.136653 1.11884e-20)
(0.360077 -0.131685 1.69934e-20)
(0.373517 -0.125643 -1.84273e-20)
(0.385948 -0.118863 -1.3283e-20)
(0.253491 -0.401381 2.26583e-20)
(0.231235 -0.365523 -2.63435e-21)
(0.213814 -0.334745 5.97094e-21)
(0.200423 -0.308457 1.1811e-20)
(0.190592 -0.286012 -3.56514e-20)
(0.183959 -0.266819 4.04084e-21)
(0.180169 -0.250389 -1.52285e-20)
(0.178899 -0.236309 1.61237e-20)
(0.179857 -0.224231 -1.31861e-20)
(0.182782 -0.213856 7.95906e-21)
(0.18744 -0.204933 -2.90863e-20)
(0.193622 -0.197244 3.74036e-22)
(0.20114 -0.190605 -1.10641e-20)
(0.209829 -0.184858 1.67114e-20)
(0.219541 -0.179865 -1.85608e-20)
(0.230145 -0.175506 -1.07147e-21)
(0.241525 -0.171674 -1.66735e-20)
(0.253579 -0.168274 -1.54716e-21)
(0.266217 -0.165215 1.59765e-21)
(0.279357 -0.162409 4.38817e-21)
(0.292928 -0.159769 -2.42489e-20)
(0.306862 -0.1572 -8.69281e-22)
(0.321093 -0.154601 -1.46179e-20)
(0.335556 -0.151856 -3.56715e-21)
(0.350174 -0.148834 -9.72029e-21)
(0.364851 -0.145393 -1.10535e-20)
(0.37946 -0.141379 -1.2097e-20)
(0.393967 -0.136555 1.96982e-20)
(0.4085 -0.130536 5.45697e-21)
(0.421941 -0.123682 -1.27323e-20)
(0.264088 -0.394864 -1.51255e-20)
(0.24147 -0.360191 6.05957e-21)
(0.224029 -0.330499 -1.12538e-20)
(0.210888 -0.305208 1.74745e-21)
(0.201522 -0.283671 2.06725e-20)
(0.195528 -0.265294 -1.08256e-20)
(0.192517 -0.24959 -1.23757e-20)
(0.192138 -0.23615 -1.08264e-20)
(0.194074 -0.224628 4.07339e-22)
(0.198047 -0.214734 7.53285e-21)
(0.203803 -0.206219 -6.02599e-21)
(0.211119 -0.198874 -3.51836e-23)
(0.219796 -0.19252 2.02252e-20)
(0.229658 -0.187005 -1.04925e-20)
(0.240548 -0.182199 3.1437e-21)
(0.252326 -0.17799 -9.51862e-21)
(0.264871 -0.17428 3.64041e-21)
(0.278075 -0.170982 8.44656e-21)
(0.291844 -0.168017 1.02308e-20)
(0.306095 -0.165306 -1.14015e-20)
(0.320756 -0.162774 1.68139e-21)
(0.335762 -0.160337 1.06302e-20)
(0.351052 -0.157902 1.92743e-20)
(0.366568 -0.155357 5.48977e-21)
(0.382242 -0.152571 -2.10126e-20)
(0.397984 -0.149392 2.54267e-20)
(0.41367 -0.145647 -1.28844e-20)
(0.429271 -0.141054 -1.6068e-20)
(0.444919 -0.135159 -1.02005e-20)
(0.459404 -0.128336 -1.64068e-20)
(0.274559 -0.388124 8.29307e-21)
(0.251708 -0.354735 -7.1651e-21)
(0.234378 -0.3262 2.65183e-21)
(0.22161 -0.301958 1.61889e-20)
(0.212828 -0.281363 4.67927e-21)
(0.207587 -0.263822 -4.28625e-21)
(0.205463 -0.248851 1.05918e-20)
(0.206077 -0.236047 2.19861e-21)
(0.20909 -0.225072 1.11927e-20)
(0.214201 -0.215639 6.47498e-21)
(0.221141 -0.207506 1.67179e-22)
(0.229673 -0.200471 4.51114e-21)
(0.239586 -0.194361 -1.50137e-21)
(0.250691 -0.189032 2.7407e-21)
(0.262823 -0.184361 8.01427e-21)
(0.275834 -0.180243 -4.65777e-21)
(0.289595 -0.176589 1.19708e-20)
(0.303992 -0.173323 1.2767e-20)
(0.318925 -0.170375 -1.51622e-20)
(0.33431 -0.167682 1.57688e-20)
(0.350073 -0.165181 3.54255e-20)
(0.366151 -0.162804 -2.35411e-20)
(0.382488 -0.160474 2.47056e-20)
(0.399034 -0.15809 -1.76306e-20)
(0.415734 -0.155529 -2.64382e-21)
(0.43251 -0.152636 2.04643e-20)
(0.449251 -0.149224 -4.05079e-21)
(0.465938 -0.144966 1.63527e-20)
(0.482714 -0.139322 1.68367e-20)
(0.498274 -0.13267 -3.73129e-20)
(0.284904 -0.381166 -8.1195e-21)
(0.261962 -0.349154 3.88031e-21)
(0.244878 -0.321846 1.85297e-21)
(0.232615 -0.298699 -1.92036e-20)
(0.224541 -0.279075 -1.06772e-20)
(0.220169 -0.262385 8.44122e-21)
(0.219043 -0.248152 -2.47871e-20)
(0.220754 -0.23598 3.14312e-20)
(0.22494 -0.225536 -1.84354e-20)
(0.231281 -0.216542 2.30526e-21)
(0.239492 -0.208764 -3.49537e-21)
(0.24932 -0.202003 -1.24095e-20)
(0.260544 -0.196097 2.63225e-20)
(0.272963 -0.190905 1.07542e-20)
(0.286402 -0.186313 -1.11042e-20)
(0.300705 -0.182223 2.74753e-22)
(0.315735 -0.178554 6.85729e-21)
(0.331371 -0.175239 -1.56315e-20)
(0.347507 -0.172221 3.26091e-21)
(0.364053 -0.169451 1.16048e-20)
(0.380933 -0.166881 -4.90159e-21)
(0.398082 -0.164464 8.80671e-21)
(0.41545 -0.162143 -1.75923e-20)
(0.432993 -0.159843 2.63175e-20)
(0.450673 -0.157458 6.66389e-21)
(0.468431 -0.154847 -1.75181e-20)
(0.486177 -0.151818 -1.59806e-20)
(0.503917 -0.148004 -3.59389e-22)
(0.52182 -0.142766 2.26653e-20)
(0.538485 -0.13646 -6.64253e-21)
(0.295123 -0.373992 -2.30391e-21)
(0.272243 -0.34345 -1.79781e-20)
(0.255551 -0.31743 2.20371e-20)
(0.243928 -0.295419 1.58167e-20)
(0.236689 -0.276791 1.68724e-20)
(0.233305 -0.260964 5.2157e-21)
(0.233287 -0.24747 7.83148e-21)
(0.236198 -0.235921 4.23678e-21)
(0.241654 -0.225993 -1.76095e-20)
(0.249315 -0.217415 3.31746e-20)
(0.258881 -0.20996 -2.8688e-20)
(0.270085 -0.203439 -2.33268e-21)
(0.282693 -0.197694 4.26375e-21)
(0.296495 -0.192592 -2.147e-20)
(0.311307 -0.188024 1.92015e-20)
(0.326963 -0.183898 -5.87328e-21)
(0.343318 -0.180142 -1.60196e-20)
(0.360244 -0.176696 6.64939e-21)
(0.377627 -0.173513 -1.27693e-20)
(0.395369 -0.170555 -1.17986e-20)
(0.413389 -0.167795 -1.32597e-20)
(0.431619 -0.165204 3.09109e-21)
(0.450007 -0.162756 2.078e-21)
(0.468516 -0.160407 -3.55788e-20)
(0.487122 -0.158088 -1.42867e-20)
(0.505788 -0.155692 8.95321e-21)
(0.524458 -0.15305 1.17803e-20)
(0.543184 -0.149772 -1.65863e-20)
(0.562191 -0.145112 -6.62048e-21)
(0.579988 -0.139376 1.15886e-21)
(0.305218 -0.366605 -1.70656e-21)
(0.282564 -0.33762 1.16209e-20)
(0.266417 -0.312943 -3.3677e-21)
(0.255574 -0.292103 -4.23391e-21)
(0.249298 -0.274492 -2.6396e-20)
(0.247021 -0.259536 -6.36726e-21)
(0.248221 -0.246777 1.21346e-20)
(0.252435 -0.23584 -8.55356e-21)
(0.259255 -0.226409 -1.06679e-21)
(0.268324 -0.218223 -1.76268e-21)
(0.279326 -0.211063 1.0972e-20)
(0.291982 -0.204747 -1.76847e-20)
(0.306045 -0.199123 -1.24976e-20)
(0.321297 -0.194066 1.53297e-20)
(0.337543 -0.189471 -9.17391e-21)
(0.354613 -0.185252 -1.16494e-20)
(0.372351 -0.18134 2.54406e-20)
(0.390622 -0.177683 -4.07982e-21)
(0.409304 -0.174239 1.64591e-20)
(0.428293 -0.170981 -1.52191e-20)
(0.447496 -0.167892 -1.29929e-20)
(0.466838 -0.164968 1.16047e-20)
(0.48626 -0.162207 -1.17892e-21)
(0.505724 -0.159608 -9.23359e-21)
(0.525213 -0.157154 8.38862e-21)
(0.544713 -0.154804 -2.70853e-20)
(0.564204 -0.152453 1.66314e-20)
(0.583813 -0.149742 -2.93855e-22)
(0.603876 -0.14584 -1.8422e-20)
(0.622839 -0.140958 3.0022e-20)
(0.315194 -0.359008 8.43085e-21)
(0.292944 -0.331657 -2.26952e-20)
(0.277498 -0.308371 -2.14768e-21)
(0.267575 -0.288732 1.1949e-20)
(0.26239 -0.272152 -3.2902e-21)
(0.261338 -0.258071 -9.79719e-21)
(0.263865 -0.246042 4.72916e-21)
(0.269481 -0.235703 5.84618e-21)
(0.277758 -0.22675 5.44343e-22)
(0.288319 -0.218931 7.83188e-21)
(0.300833 -0.212036 2.6374e-20)
(0.315011 -0.205893 -9.27137e-21)
(0.330594 -0.200355 2.73852e-21)
(0.347357 -0.195304 -7.32846e-21)
(0.365097 -0.190638 2.7981e-20)
(0.383636 -0.186277 -5.33384e-21)
(0.402814 -0.182154 1.81501e-20)
(0.422489 -0.178218 -7.40584e-21)
(0.442533 -0.174431 8.2139e-21)
(0.462832 -0.170768 1.29192e-20)
(0.483286 -0.167219 2.37727e-21)
(0.503807 -0.163788 9.33378e-21)
(0.524325 -0.160496 -8.02333e-21)
(0.54479 -0.157377 2.26516e-20)
(0.565176 -0.154474 -9.50546e-21)
(0.585476 -0.151837 3.58796e-20)
(0.605698 -0.149493 -1.04137e-20)
(0.626057 -0.147216 7.39268e-21)
(0.6471 -0.144164 -1.42757e-20)
(0.667301 -0.140419 2.8588e-20)
(0.325086 -0.351208 -1.82473e-20)
(0.303413 -0.325552 6.32136e-22)
(0.288816 -0.303692 -1.29036e-20)
(0.279949 -0.285278 2.45046e-21)
(0.275981 -0.269742 7.41617e-22)
(0.276271 -0.256536 -1.31537e-20)
(0.280233 -0.24523 -2.58877e-20)
(0.287348 -0.235473 1.34637e-20)
(0.297168 -0.226976 -1.96701e-20)
(0.309299 -0.219498 -1.1045e-20)
(0.323397 -0.212842 -6.66139e-21)
(0.339159 -0.206841 -5.68941e-21)
(0.356319 -0.201359 3.04398e-22)
(0.374645 -0.196281 -2.13351e-20)
(0.393928 -0.191512 1.51309e-20)
(0.413985 -0.186975 -2.50868e-20)
(0.434654 -0.182603 -6.7259e-21)
(0.455789 -0.178346 7.45719e-21)
(0.477259 -0.174162 9.75306e-21)
(0.498946 -0.170022 1.02068e-20)
(0.520745 -0.165911 8.14478e-21)
(0.542559 -0.161828 -2.08472e-20)
(0.564303 -0.157792 2.16806e-20)
(0.585905 -0.153845 -2.2958e-21)