/*--------------------------------*- C++ -*----------------------------------*\
  =========                 |
  \\      /  F ield         | OpenFOAM: The Open Source CFD Toolbox
   \\    /   O peration     | Website:  https://openfoam.org
    \\  /    A nd           | Version:  6.0
     \\/     M anipulation  |
\*---------------------------------------------------------------------------*/
FoamFile
{
    version     2.0;
    format      ascii;
    class       volVectorField;
    location    "23";
    object      U;
}
// * * * * * * * * * * * * * * * * * * * * * * * * * * * * * * * * * * * * * //

dimensions      [0 1 -1 0 0 0 0];

internalField   nonuniform List<vector> 
2400
(
(3.69425 -15.2798 -1.97974e-18)
(0.832861 -15.8165 7.27023e-19)
(1.4312 -16.3249 -6.77557e-19)
(1.94686 -16.3375 -3.9442e-19)
(2.16953 -16.1418 -6.05004e-19)
(2.32597 -15.8842 8.08887e-19)
(2.47024 -15.6412 2.9453e-19)
(2.60196 -15.4404 2.34997e-19)
(2.75112 -15.2831 -5.27649e-19)
(2.88536 -15.2046 -3.11397e-20)
(4.96215 -15.188 2.23371e-18)
(2.13973 -16.1271 -1.41953e-19)
(2.74317 -16.5932 3.98269e-19)
(3.22036 -16.5272 3.74802e-18)
(3.40113 -16.2814 -2.60036e-18)
(3.52033 -15.9956 -1.36631e-19)
(3.63164 -15.7391 -2.7327e-20)
(3.73982 -15.5313 -2.91914e-19)
(3.87873 -15.3698 -4.3774e-19)
(3.97274 -15.2985 -7.53971e-20)
(6.23211 -14.9929 3.96479e-18)
(3.48288 -16.3148 3.17103e-18)
(4.08356 -16.7329 -8.21273e-18)
(4.50857 -16.5923 2.45123e-18)
(4.63775 -16.3026 3.56693e-18)
(4.71295 -15.9942 -1.98659e-18)
(4.78673 -15.7279 -1.52735e-18)
(4.86917 -15.5133 1.26526e-18)
(4.99001 -15.3445 -2.67914e-18)
(5.03376 -15.2859 2.33372e-18)
(7.49069 -14.6852 -1.37329e-17)
(4.84859 -16.3676 5.19101e-18)
(5.4378 -16.7358 -4.76214e-18)
(5.79937 -16.5283 2.16344e-18)
(5.86999 -16.2037 -2.28156e-18)
(5.89694 -15.8799 3.28767e-18)
(5.93149 -15.608 1.45477e-18)
(5.98946 -15.3885 -4.76874e-18)
(6.09316 -15.218 -4.12325e-18)
(6.07841 -15.1855 3.9577e-18)
(8.72618 -14.2598 7.57906e-19)
(6.22075 -16.2802 -1.98664e-18)
(6.79062 -16.5988 -7.50101e-19)
(7.07953 -16.3344 -9.70106e-19)
(7.08701 -15.9857 -5.52991e-18)
(7.06376 -15.6552 8.71105e-19)
(7.05777 -15.3826 -5.07334e-19)
(7.0875 -15.1593 4.97439e-18)
(7.16046 -14.9909 -3.39607e-18)
(7.07528 -15 -1.85542e-18)
(9.92447 -13.7121 1.20763e-17)
(7.58306 -16.0459 -8.88455e-19)
(8.12477 -16.3167 1.33309e-17)
(8.3326 -16.0063 -1.65683e-18)
(8.27376 -15.6455 6.79752e-18)
(8.20193 -15.3192 -7.36753e-19)
(8.16007 -15.0538 -3.92934e-20)
(8.16284 -14.8318 4.08559e-18)
(8.19578 -14.6739 -2.2052e-18)
(8.02838 -14.7355 3.0206e-18)
(11.0742 -13.0425 -4.66457e-18)
(8.92145 -15.6639 1.17634e-18)
(9.4256 -15.8884 -3.62504e-18)
(9.54266 -15.5413 -3.46872e-18)
(9.4109 -15.1782 -2.15093e-19)
(9.28892 -14.8652 1.04025e-17)
(9.21676 -14.6153 -3.66992e-18)
(9.20066 -14.4031 1.54326e-18)
(9.19416 -14.2654 -5.46098e-18)
(8.94589 -14.3827 -2.43441e-18)
(12.1655 -12.2545 1.96096e-17)
(10.2255 -15.1355 -1.89397e-18)
(10.6835 -15.3142 -1.74644e-17)
(10.7004 -14.937 9.50575e-19)
(10.4846 -14.5762 3.37031e-18)
(10.3002 -14.2788 -4.89524e-18)
(10.1901 -14.0472 -5.89097e-18)
(10.1603 -13.8547 8.81573e-18)
(10.1394 -13.7609 -7.91296e-19)
(9.85312 -13.9688 -6.3191e-18)
(13.191 -11.3546 -1.58474e-17)
(11.4875 -14.4667 7.68446e-18)
(11.8944 -14.6 1.06595e-17)
(11.8071 -14.1965 2.75179e-18)
(11.5001 -13.8369 -9.56993e-18)
(11.2348 -13.5482 5.9138e-18)
(11.0523 -13.3286 3.39866e-18)
(10.965 -13.1644 6.77402e-18)
(10.9089 -13.1581 -4.06277e-18)
(10.6224 -13.546 -5.21817e-18)
(14.1429 -10.3501 5.07981e-18)
(12.6996 -13.665 -1.99332e-18)
(13.0543 -13.7534 -4.43235e-19)
(12.867 -13.3263 2.70433e-18)
(12.4757 -12.9639 2.03133e-18)
(12.1312 -12.6734 -1.47203e-18)
(11.8516 -12.4563 -2.76834e-18)
(11.6204 -12.3304 4.06899e-18)
(11.3719 -12.4509 -3.48008e-18)
(10.9416 -13.0408 2.73294e-18)
(18.7036 3.2502 2.79054e-19)
(18.7182 1.73298 8.51234e-19)
(18.6101 0.226829 -2.75905e-18)
(18.3886 -1.25818 2.52186e-18)
(18.0601 -2.71244 9.51774e-19)
(17.632 -4.12857 1.30116e-17)
(17.1082 -5.4979 -5.04195e-18)
(16.4957 -6.81382 -7.53934e-18)
(15.7945 -8.06692 8.62675e-18)
(15.0126 -9.25001 -1.49392e-17)
(20.2189 -0.651824 7.83733e-19)
(19.9694 -2.20583 -3.22547e-19)
(19.5842 -3.73222 -2.31246e-18)
(19.0729 -5.21973 6.04896e-18)
(18.4433 -6.65582 -2.14967e-18)
(17.7061 -8.03256 1.68007e-17)
(16.8689 -9.33772 -1.07849e-17)
(15.9427 -10.5653 1.63293e-17)
(14.9335 -11.7012 -1.20072e-17)
(13.852 -12.7411 -6.53043e-18)
(19.9076 -0.654709 -1.45697e-18)
(19.7366 -2.1634 1.77426e-19)
(19.4322 -3.65886 -6.46635e-18)
(19.0005 -5.12992 4.93576e-18)
(18.447 -6.56379 -5.48703e-18)
(17.7807 -7.95029 -1.07326e-17)
(17.0084 -9.27662 -3.80212e-18)
(16.1413 -10.5333 -3.15359e-18)
(15.1864 -11.7064 1.08196e-17)
(14.1556 -12.7854 6.20246e-18)
(19.0571 -0.468056 6.16417e-19)
(18.9262 -1.90473 -1.07888e-18)
(18.6706 -3.33748 -1.51557e-18)
(18.2938 -4.75734 -6.10712e-18)
(17.8011 -6.15144 3.81958e-18)
(17.1994 -7.50982 1.12397e-17)
(16.4962 -8.8195 4.67565e-18)
(15.7017 -10.0697 9.69681e-19)
(14.8239 -11.2469 2.76222e-18)
(13.8763 -12.3384 -1.18081e-21)
(18.3947 -0.411217 -6.85141e-19)
(18.2571 -1.79064 -2.68222e-18)
(18.003 -3.16763 2.94499e-19)
(17.6327 -4.53889 4.86753e-18)
(17.1551 -5.8885 5.25696e-18)
(16.5739 -7.21147 -3.64934e-18)
(15.8996 -8.49218 -6.73756e-18)
(15.1407 -9.72188 -3.62386e-18)
(14.3077 -10.8862 4.0935e-18)
(13.4164 -11.9729 6.36415e-18)
(17.9412 -0.355037 1.43226e-19)
(17.786 -1.69238 2.188e-18)
(17.5235 -3.02266 -5.14851e-18)
(17.1434 -4.35702 6.40161e-18)
(16.6671 -5.6662 3.88985e-18)
(16.086 -6.96215 7.46948e-18)
(15.424 -8.21717 -1.60297e-18)
(14.6777 -9.43584 -4.78799e-18)
(13.8711 -10.5916 1.13764e-17)
(13.0186 -11.6754 -9.96603e-18)
(17.6001 -0.294184 3.29855e-19)
(17.4244 -1.60115 -2.4857e-18)
(17.1597 -2.88751 -1.56551e-18)
(16.762 -4.19695 -3.39485e-18)
(16.292 -5.46355 -4.90183e-19)
(15.6964 -6.74252 -5.07844e-18)
(15.0463 -7.96918 -3.33812e-18)
(14.29 -9.1968 -6.05499e-19)
(13.5054 -10.3572 -6.7906e-18)
(12.6789 -11.4508 9.77159e-18)
(17.3066 -0.218749 -2.81902e-19)
(17.1022 -1.51131 2.02964e-18)
(16.8512 -2.75639 -8.89618e-19)
(16.4217 -4.05903 1.97501e-18)
(15.9793 -5.27605 4.81726e-18)
(15.3443 -6.55195 8.13331e-18)
(14.7267 -7.72993 -2.21193e-18)
(13.9129 -8.99297 -8.22149e-18)
(13.1678 -10.1697 2.48761e-18)
(12.3258 -11.3365 -1.52102e-17)
(17.0396 -0.101773 4.00575e-19)
(16.7857 -1.39818 -4.64804e-19)
(16.5756 -2.60718 -4.55597e-18)
(16.0833 -3.93511 1.3771e-18)
(15.7104 -5.10019 -3.27456e-18)
(14.9832 -6.41322 -1.43345e-18)
(14.4522 -7.50738 -9.74132e-19)
(13.4688 -8.86331 3.64789e-18)
(12.8249 -10.0186 3.63903e-18)
(11.796 -11.4897 2.93712e-18)
(16.8071 -0.0305894 -8.65821e-19)
(16.4654 -1.33007 1.49491e-18)
(16.3217 -2.50346 7.17676e-19)
(15.7225 -3.88235 2.03449e-18)
(15.4546 -5.0198 -2.11986e-19)
(14.5674 -6.42429 -1.54259e-19)
(14.1575 -7.45769 -5.00764e-18)
(12.8617 -8.97219 6.79839e-18)
(12.3646 -10.0234 -4.44941e-18)
(10.8941 -12.0154 1.34656e-18)
(11.3883 16.0431 -8.65781e-18)
(12.6414 15.147 8.96048e-18)
(13.8026 14.1384 -4.24274e-19)
(14.8607 13.0256 -1.49465e-17)
(15.8035 11.8174 1.06757e-17)
(16.6224 10.5238 -7.3245e-18)
(17.309 9.15737 -1.65043e-18)
(17.8615 7.73227 -1.51505e-18)
(18.2763 6.26304 2.46486e-18)
(18.5581 4.76488 1.71653e-19)
(14.8503 13.1363 1.06106e-17)
(15.96 12.0989 2.16536e-18)
(16.9681 10.959 -1.02191e-17)
(17.8621 9.72367 -1.0341e-17)
(18.6291 8.40152 8.14999e-18)
(19.2609 7.00162 -6.52549e-18)
(19.7486 5.53813 7.19167e-18)
(20.0905 4.02466 -1.99299e-18)
(20.2814 2.479 -5.98674e-18)
(20.3257 0.914096 -4.29458e-19)
(14.3042 12.2348 -1.39171e-18)
(15.3858 11.2951 -1.14139e-18)
(16.3758 10.2585 5.38586e-18)
(17.2623 9.128 5.26444e-18)
(18.034 7.90886 1.13089e-17)
(18.6828 6.60828 3.57677e-18)
(19.2014 5.23888 -2.62381e-18)
(19.5864 3.81373 -5.18163e-18)
(19.8331 2.34764 4.06835e-18)
(19.9411 0.853369 2.77632e-19)
(13.6238 11.5522 3.11359e-18)
(14.6553 10.6861 -6.41e-18)
(15.5972 9.73377 -2.41527e-18)
(16.4391 8.69264 -1.02586e-17)
(17.1733 7.56455 -5.14239e-18)
(17.7939 6.35503 1.01305e-17)
(18.2965 5.07785 6.1176e-18)
(18.6773 3.74432 -5.15086e-18)
(18.9325 2.36832 2.25494e-19)
(19.0597 0.959646 -2.12075e-19)
(13.3534 11.073 -1.02886e-17)
(14.3415 10.2416 1.13873e-17)
(15.234 9.33646 -2.88861e-18)
(16.0206 8.34548 5.63875e-18)
(16.7003 7.26882 -3.83498e-18)
(17.2702 6.11163 -5.78941e-18)
(17.7304 4.89197 2.90459e-18)
(18.0755 3.61735 -3.05062e-18)
(18.3035 2.30331 -2.80424e-18)
(18.4097 0.954957 1.18324e-18)
(13.231 10.7562 -1.46434e-18)
(14.1939 9.94865 2.25352e-18)
(15.0557 9.07815 -2.59395e-18)
(15.7994 8.11697 -1.13687e-17)
(16.4345 7.07105 5.98981e-18)
(16.9595 5.94675 9.27431e-19)
(17.3824 4.76872 -5.21835e-18)
(17.6923 3.53516 -1.79951e-18)
(17.8932 2.26778 1.54142e-18)
(17.9734 0.962458 -4.1772e-19)
(13.1347 10.5216 -5.99516e-18)
(14.0679 9.74995 -1.10643e-19)
(14.9111 8.91232 2.68177e-18)
(15.6255 7.96281 6.56791e-18)
(16.2335 6.93333 1.34587e-18)
(16.7242 5.83016 3.11425e-18)
(17.1228 4.6856 5.86949e-18)
(17.4025 3.48078 -2.52605e-18)
(17.5859 2.25263 2.10494e-18)
(17.6415 0.979061 -7.64092e-19)
(13.0834 10.3119 -1.85093e-18)
(13.9309 9.63026 2.32444e-18)
(14.738 8.83365 2.37227e-18)
(15.4238 7.88016 -3.07975e-18)
(16.0232 6.86291 -1.64471e-18)
(16.4882 5.77481 -3.64958e-18)
(16.8788 4.65677 3.16336e-19)
(17.1312 3.46608 -8.15477e-19)
(17.3126 2.26944 -4.45678e-18)
(17.3424 1.0142 5.94607e-19)
(13.3033 9.94943 -6.35608e-19)
(13.9432 9.47107 -4.20359e-18)
(14.6278 8.73051 -1.34984e-18)
(15.2416 7.78046 7.13116e-19)
(15.8298 6.80527 -4.44277e-19)
(16.2546 5.74945 3.20166e-18)
(16.6436 4.66914 1.24896e-18)
(16.8582 3.49199 1.8423e-18)
(17.055 2.33186 2.11369e-18)
(17.0487 1.08902 -8.55966e-19)
(13.9454 9.1952 -2.75042e-18)
(14.3582 9.01212 4.65076e-18)
(14.7812 8.30992 -7.25536e-18)
(15.2318 7.39949 -7.1661e-20)
(15.7784 6.52013 5.57084e-18)
(16.1164 5.52965 2.71751e-19)
(16.4876 4.52542 2.30359e-18)
(16.6265 3.38997 -4.68594e-18)
(16.8457 2.30329 -3.64814e-20)
(16.773 1.09271 4.01021e-19)
(1.8536 14.275 2.18898e-19)
(1.83121 14.3499 -9.31479e-20)
(1.83955 14.3771 -4.54635e-20)
(1.81516 14.3913 6.05865e-19)
(1.7405 14.4245 -2.82458e-19)
(1.6269 14.5257 -9.18097e-19)
(1.50125 14.8324 9.7091e-19)
(1.55328 15.6663 2.97137e-19)
(1.38385 17.1156 3.90138e-19)
(-3.08415 18.3328 1.80318e-18)
(3.03296 14.0057 5.73793e-19)
(2.98909 14.1983 -1.70264e-18)
(2.98145 14.3074 1.67371e-18)
(2.94662 14.3796 3.26467e-19)
(2.87209 14.4594 -6.19804e-19)
(2.77013 14.6048 7.31324e-19)
(2.67509 14.9568 2.30129e-18)
(2.79627 15.8139 -2.89384e-18)
(2.72992 17.2453 3.33747e-20)
(-1.66209 18.6416 -2.05002e-18)
(4.07974 13.9331 2.22302e-18)
(4.08472 14.1003 -3.06332e-18)
(4.10092 14.2095 -1.17336e-18)
(4.0841 14.3 -8.55569e-20)
(4.02655 14.4092 -1.01817e-18)
(3.94464 14.5913 -4.13351e-19)
(3.88455 14.9836 7.19111e-19)
(4.07486 15.8563 1.97365e-18)
(4.10575 17.2597 1.41895e-18)
(-0.205883 18.832 -3.62893e-18)
(5.34676 13.4782 2.05491e-18)
(5.30117 13.7693 -2.45542e-18)
(5.28815 13.9591 -2.29348e-18)
(5.26207 14.1054 1.47437e-18)
(5.20999 14.2585 6.76475e-18)
(5.14559 14.4804 -2.51975e-18)
(5.12151 14.9099 1.90436e-18)
(5.37992 15.7909 -5.87711e-18)
(5.50197 17.1575 -6.39796e-18)
(1.27478 18.9046 7.03334e-18)
(6.41816 13.2659 1.52069e-18)
(6.42181 13.5064 -1.02309e-18)
(6.43476 13.6861 3.00894e-18)
(6.43342 13.8443 -2.57212e-18)
(6.40274 14.0219 1.79566e-18)
(6.3617 14.2745 1.54778e-18)
(6.37607 14.7346 1.51112e-18)
(6.70101 15.6158 1.04103e-18)
(6.9064 16.9376 3.70677e-18)
(2.76876 18.858 3.15807e-18)
(7.69997 12.6307 -4.49152e-18)
(7.63193 13.0117 -1.25826e-18)
(7.61698 13.2699 5.16807e-18)
(7.61679 13.4766 -5.5672e-18)
(7.60007 13.6895 -2.50338e-18)
(7.58234 13.9721 -5.77113e-18)
(7.63733 14.4569 4.30483e-19)
(8.02775 15.3296 -5.51267e-18)
(8.31005 16.5991 -6.02631e-19)
(4.26662 18.692 -9.64512e-18)
(8.77576 12.2078 6.27539e-18)
(8.75419 12.5594 -1.08437e-17)
(8.76476 12.8201 5.9598e-18)
(8.78824 13.0382 3.07364e-18)
(8.791 13.27 -6.14588e-19)
(8.79767 13.5743 7.64775e-18)
(8.89428 14.0762 -5.09827e-18)
(9.34811 14.932 -1.11618e-17)
(9.6984 16.1421 -1.27029e-18)
(5.75584 18.4048 8.9703e-18)
(10.0715 11.3592 -3.76334e-21)
(9.95316 11.8974 5.09125e-18)
(9.92138 12.248 -2.40241e-18)
(9.94075 12.5073 2.23392e-18)
(9.95877 12.7616 2.36069e-18)
(9.99339 13.0826 -3.63412e-18)
(10.1348 13.5936 2.4664e-18)
(10.6505 14.4227 -4.86246e-18)
(11.0625 15.5664 1.4195e-17)
(7.22634 17.9973 -4.30123e-18)
(11.276 10.6662 -2.77368e-18)
(11.1328 11.2615 -1.43941e-18)
(11.0578 11.641 6.72231e-18)
(11.067 11.9061 -9.21327e-18)
(11.0984 12.1684 8.81987e-18)
(11.1608 12.4983 -4.32876e-18)
(11.3466 13.01 -7.19015e-18)
(11.9204 13.8023 1.12462e-18)
(12.384 14.8732 -2.3477e-17)
(8.6637 17.4671 1.64305e-17)
(12.6302 9.8333 7.20559e-18)
(12.3154 10.5436 -6.67241e-18)
(12.116 10.9795 6.69055e-18)
(12.1233 11.2433 -5.65594e-19)
(12.1883 11.4992 -6.5949e-18)
(12.2856 11.827 -3.35787e-18)
(12.5156 12.3282 3.85621e-18)
(13.1444 13.0722 9.45593e-18)
(13.6547 14.0627 1.09724e-17)
(10.057 16.8176 -4.52741e-21)
(-6.05215 11.1971 -4.8389e-18)
(-6.26151 10.5332 3.79689e-18)
(-6.36863 10.0391 -1.54413e-18)
(-6.41253 9.74186 3.53147e-18)
(-6.47866 9.50553 2.72259e-18)
(-6.59287 9.28423 4.38591e-18)
(-6.83008 9.174 5.7383e-18)
(-7.28918 9.58654 2.83354e-18)
(-8.46033 10.6646 4.24446e-18)
(-13.3242 9.80738 -2.49525e-18)
(-5.82564 11.752 2.70745e-18)
(-5.97376 11.211 2.92061e-18)
(-5.97463 10.8315 -4.95492e-18)
(-5.93896 10.5736 -2.46145e-18)
(-5.96965 10.3386 -4.08775e-18)
(-6.0794 10.1143 7.40511e-18)
(-6.31899 10.0134 -2.98517e-18)
(-6.74957 10.4561 -6.55335e-18)
(-7.8428 11.6012 -4.68842e-18)
(-12.72 10.9816 6.34971e-18)
(-5.2246 12.2612 -1.00278e-18)
(-5.41842 11.8571 5.8169e-19)
(-5.43645 11.551 -6.46661e-18)
(-5.39524 11.3189 4.23957e-18)
(-5.41499 11.0945 3.49586e-18)
(-5.51851 10.8848 -2.30429e-18)
(-5.75068 10.8099 7.2241e-20)
(-6.14142 11.2923 1.13248e-17)
(-7.14504 12.5016 1.05066e-18)
(-12.0153 12.1119 -5.25441e-18)
(-4.44404 12.6795 -6.87916e-18)
(-4.66046 12.3787 4.1157e-18)
(-4.71737 12.1396 -1.23269e-18)
(-4.71264 11.9495 2.68892e-18)
(-4.75697 11.7593 -7.4883e-18)
(-4.87403 11.5853 2.63504e-19)
(-5.10497 11.5527 1.52855e-18)
(-5.45377 12.0835 -4.61243e-19)
(-6.36173 13.3535 -8.07333e-19)
(-11.2099 13.1872 6.20732e-18)
(-3.72161 13.178 5.67946e-18)
(-3.90525 12.923 1.65522e-19)
(-3.95125 12.7065 -3.11666e-18)
(-3.95673 12.5303 6.95299e-20)
(-4.01669 12.3626 4.89168e-19)
(-4.14632 12.2234 -4.96246e-18)
(-4.37623 12.2376 1.10424e-18)
(-4.68107 12.8203 -1.17887e-18)
(-5.49014 14.1455 -1.97176e-19)
(-10.3047 14.1955 -8.04322e-18)
(-2.88148 13.4826 -1.92622e-19)
(-3.05331 13.3181 4.18482e-18)
(-3.09991 13.1643 -3.89892e-18)
(-3.11984 13.0271 3.76131e-19)
(-3.19561 12.8944 -7.13424e-19)
(-3.33682 12.7955 4.11475e-18)
(-3.56414 12.8597 6.93787e-19)
(-3.82213 13.4943 4.36346e-19)
(-4.52947 14.8668 2.73658e-18)
(-9.30236 15.1261 1.68165e-18)
(-2.06731 13.8556 -2.86245e-18)
(-2.20134 13.7325 3.34588e-18)
(-2.22915 13.6 1.70185e-19)
(-2.24687 13.4772 4.61079e-18)
(-2.3234 13.3672 -2.60935e-18)
(-2.46389 13.3032 1.78764e-18)
(-2.67915 13.4154 -1.63066e-18)
(-2.88339 14.0986 3.47152e-18)
(-3.48551 15.5081 3.4627e-18)
(-8.20859 15.9693 3.32343e-18)
(-1.08825 13.9903 -1.78514e-18)
(-1.22085 13.964 2.2304e-18)
(-1.25961 13.9013 -1.05074e-18)
(-1.29441 13.8258 -7.88315e-19)
(-1.38142 13.7561 1.62022e-18)
(-1.52338 13.7348 -2.88866e-18)
(-1.72381 13.8971 -1.93094e-18)
(-1.86965 14.6252 6.39254e-18)
(-2.36339 16.0611 -1.18151e-18)
(-7.03105 16.7179 -3.93217e-18)
(-0.18382 14.236 -1.84158e-18)
(-0.266539 14.2211 3.74231e-19)
(-0.282688 14.1696 2.37059e-19)
(-0.311346 14.1118 1.52209e-20)
(-0.393684 14.0702 -1.08509e-18)
(-0.527427 14.0874 3.4305e-18)
(-0.705865 14.2982 -3.10066e-18)
(-0.788246 15.0669 -3.07086e-19)
(-1.17311 16.5179 1.12647e-19)
(-5.77832 17.365 -3.03455e-18)
(0.889316 14.187 5.52292e-19)
(0.807247 14.2685 8.2946e-20)
(0.78399 14.2899 -2.02771e-19)
(0.743634 14.2852 -2.59004e-19)
(0.656263 14.2887 -6.92222e-19)
(0.527469 14.351 5.27118e-19)
(0.372247 14.6116 3.24831e-19)
(0.355612 15.416 5.69219e-19)
(0.080157 16.8719 -6.35253e-19)
(-4.45991 17.9057 5.71021e-19)
(-5.90169 10.1135 -5.37888e-18)
(-7.26312 8.44579 2.32347e-18)
(-7.45481 7.45218 -9.06797e-19)
(-8.59118 6.16541 -3.25377e-18)
(-8.82675 5.21872 -2.05367e-18)
(-9.59085 4.04982 -1.46251e-19)
(-9.805 3.03953 -1.09216e-18)
(-10.3214 1.90169 -3.0602e-19)
(-10.5016 0.862491 -3.97647e-19)
(-10.8197 -0.223677 1.75282e-19)
(-6.47469 9.55574 -3.23582e-18)
(-7.38531 8.22048 -2.67985e-18)
(-7.6875 7.21091 -3.3893e-18)
(-8.5563 6.00666 7.45175e-19)
(-8.8475 5.07503 1.43921e-18)
(-9.48673 3.96662 2.25908e-18)
(-9.74475 2.99536 -9.66982e-19)
(-10.193 1.91546 3.18924e-18)
(-10.3993 0.914271 3.16347e-19)
(-10.6763 -0.132062 -2.79693e-19)
(-6.78829 9.06893 9.46697e-18)
(-7.42478 8.01822 -1.26541e-18)
(-7.8307 7.03239 5.85407e-18)
(-8.48689 5.93782 1.5582e-18)
(-8.84529 4.99887 -5.57941e-18)
(-9.37517 3.94759 -3.29916e-18)
(-9.67896 2.99266 -1.33149e-18)
(-10.0701 1.95918 5.88306e-19)
(-10.3034 0.98067 -1.35879e-18)
(-10.5525 -0.0349142 1.92832e-19)
(-6.90832 8.80128 2.3305e-18)
(-7.44185 7.85414 4.59422e-18)
(-7.89208 6.89605 4.44848e-19)
(-8.42174 5.88877 2.22494e-18)
(-8.81035 4.947 3.3702e-18)
(-9.25825 3.94658 3.21715e-19)
(-9.58263 3.00234 2.18678e-18)
(-9.92814 2.01052 1.01507e-18)
(-10.1754 1.05198 1.65313e-18)
(-10.4052 0.0664825 -2.14299e-19)
(-6.98054 8.60051 6.6296e-18)
(-7.46563 7.68554 -7.7304e-18)
(-7.91059 6.75354 -7.11112e-19)
(-8.36111 5.80604 1.02078e-18)
(-8.74187 4.87992 -1.46046e-18)
(-9.12775 3.92949 -2.47127e-18)
(-9.44573 3.00644 -4.07142e-18)
(-9.75361 2.05902 3.2259e-18)
(-9.9995 1.12791 -3.77586e-19)
(-10.2145 0.178304 -7.80697e-20)
(-7.07414 8.40616 -1.04902e-17)
(-7.52129 7.51091 6.08743e-18)
(-7.93564 6.60398 2.27542e-18)
(-8.32754 5.69598 3.68842e-19)
(-8.67782 4.79585 2.18338e-18)
(-9.0114 3.89045 -3.10523e-18)
(-9.30348 2.99755 -2.89618e-18)
(-9.57453 2.09485 -2.13156e-19)
(-9.80362 1.1981 5.99644e-19)
(-10.0003 0.289034 4.26172e-19)
(-7.29215 8.30366 -2.07862e-18)
(-7.70979 7.41835 -1.66733e-18)
(-8.08911 6.52784 -5.58994e-19)
(-8.4344 5.64172 2.29677e-18)
(-8.74519 4.76312 -6.53104e-18)
(-9.03029 3.8893 -2.08262e-18)
(-9.28385 3.02383 3.52417e-18)
(-9.51291 2.15741 8.91125e-19)
(-9.70969 1.29309 6.30916e-19)
(-9.87618 0.421341 -3.59515e-19)
(-7.76618 8.69533 -6.05938e-18)
(-8.18714 7.79446 -6.09882e-18)
(-8.55816 6.89283 1.01565e-17)
(-8.88582 5.99795 2.16197e-18)
(-9.17446 5.1123 8.75912e-18)
(-9.42971 4.23599 3.12473e-19)
(-9.65232 3.36837 -2.7497e-18)
(-9.84568 2.50505 3.57999e-18)
(-10.0075 1.64422 -1.32121e-19)
(-10.1379 0.780443 8.00958e-19)
(-8.99981 9.70402 9.04393e-19)
(-9.46956 8.73081 9.00874e-18)
(-9.87287 7.75568 -9.07468e-18)
(-10.2196 6.78433 5.74986e-18)
(-10.5137 5.82046 -9.00212e-18)
(-10.7606 4.86551 1.12409e-18)
(-10.9626 3.91946 -3.15594e-18)
(-11.1225 2.98079 1.21768e-18)
(-11.2399 2.0479 1.3939e-19)
(-11.3145 1.11868 -4.21507e-19)
(-13.8266 8.60045 2.1581e-18)
(-14.2313 7.37726 -6.1135e-18)
(-14.5473 6.14528 2.88443e-18)
(-14.7777 4.91386 -2.47186e-18)
(-14.9275 3.68774 1.02504e-18)
(-14.9994 2.47228 5.12882e-18)
(-14.9965 1.27082 6.06208e-19)
(-14.9207 0.0867557 1.43814e-18)
(-14.7734 -1.07724 -6.76544e-19)
(-14.5539 -2.21816 -1.68054e-19)
(-10.901 -1.23584 1.64607e-19)
(-11.0133 -2.27145 -6.80796e-19)
(-10.9606 -3.27138 3.18257e-18)
(-10.9021 -4.27617 -2.10298e-18)
(-10.7323 -5.23822 2.02209e-19)
(-10.5312 -6.16126 -1.69431e-18)
(-10.216 -7.02775 8.36472e-18)
(-9.84702 -7.88145 5.1883e-19)
(-9.50178 -8.62835 -2.33412e-18)
(-9.2418 -8.94889 4.83882e-18)
(-10.7791 -1.12843 6.01414e-19)
(-10.8783 -2.14586 -1.49031e-18)
(-10.8475 -3.1393 -1.32842e-18)
(-10.7815 -4.13722 -8.98793e-19)
(-10.6128 -5.10646 -2.35663e-18)
(-10.3898 -6.05085 -1.53575e-19)
(-10.0639 -6.96164 -5.56302e-19)
(-9.64787 -7.85231 2.03859e-18)
(-9.13259 -8.64352 5.12234e-18)
(-8.58627 -9.20885 -7.74995e-19)
(-10.6786 -1.01879 -4.07972e-19)
(-10.775 -2.01898 3.06103e-18)
(-10.7701 -3.0017 5.94856e-19)
(-10.7139 -3.98466 -2.13824e-19)
(-10.568 -4.94544 2.64654e-18)
(-10.3594 -5.88836 1.18032e-18)
(-10.0614 -6.80522 2.23525e-18)
(-9.6685 -7.68672 -1.87502e-18)
(-9.14522 -8.4865 -4.16e-18)
(-8.50751 -9.19731 -9.56456e-18)
(-10.5484 -0.902371 5.04362e-19)
(-10.6463 -1.88491 -1.42934e-18)
(-10.6631 -2.8581 1.73742e-18)
(-10.6192 -3.83176 -3.98212e-18)
(-10.4953 -4.79121 -2.17048e-18)
(-10.303 -5.73796 -9.39916e-19)
(-10.0272 -6.66035 -4.76999e-18)
(-9.6585 -7.5423 -2.03951e-18)
(-9.16711 -8.36581 1.40566e-19)
(-8.54691 -9.15777 3.11849e-18)
(-10.3667 -0.766359 2.55567e-19)
(-10.469 -1.72379 2.91065e-20)
(-10.504 -2.68033 1.22115e-18)
(-10.476 -3.64105 3.53619e-18)
(-10.3749 -4.59671 -6.20903e-19)
(-10.2019 -5.54564 -4.93317e-18)
(-9.94639 -6.47529 8.08291e-18)
(-9.59865 -7.37243 -2.39493e-18)
(-9.1411 -8.23346 -1.87538e-18)
(-8.56681 -9.08115 -8.15326e-19)
(-10.1493 -0.622653 -7.38514e-19)
(-10.251 -1.54676 6.69314e-19)
(-10.2961 -2.47674 1.99425e-18)
(-10.2817 -3.41518 -1.92156e-18)
(-10.2007 -4.35646 3.7287e-18)
(-10.0484 -5.2973 -4.42804e-19)
(-9.81553 -6.22747 3.72974e-19)
(-9.49272 -7.13891 2.11482e-18)
(-9.07046 -8.03254 1.50995e-18)
(-8.54508 -8.92013 5.51689e-19)
(-10.0043 -0.45611 1.23564e-19)
(-10.0905 -1.34464 -1.38049e-19)
(-10.1287 -2.24254 3.1506e-18)
(-10.1138 -3.15129 -3.74084e-18)
(-10.0395 -4.06781 -6.57559e-18)
(-9.89892 -4.98884 3.20389e-18)
(-9.6834 -5.90767 -1.65821e-18)
(-9.38483 -6.82029 1.6822e-18)
(-8.99715 -7.72804 4.64717e-18)
(-8.518 -8.6355 -4.88801e-18)
(-10.2322 -0.0875746 -1.46644e-19)
(-10.287 -0.962373 -2.28495e-18)
(-10.2976 -1.8446 2.99157e-18)
(-10.2602 -2.73532 1.64637e-18)
(-10.1691 -3.63296 -5.19458e-18)
(-10.0181 -4.53505 -3.93697e-18)
(-9.8007 -5.43815 -3.29281e-19)
(-9.51081 -6.34089 5.80384e-19)
(-9.14397 -7.24456 7.93404e-19)
(-8.69792 -8.15116 -2.02814e-18)
(-11.3427 0.193559 2.37381e-19)
(-11.3239 -0.72838 3.27039e-18)
(-11.2549 -1.64569 1.12319e-18)
(-11.1344 -2.559 -4.01609e-18)
(-10.9588 -3.46631 3.76721e-18)
(-10.7251 -4.36566 -4.79841e-18)
(-10.4301 -5.25523 6.29257e-18)
(-10.0719 -6.1355 -7.43042e-18)
(-9.64866 -7.00827 -3.90073e-18)
(-9.15922 -7.87464 -1.06173e-17)
(-14.2604 -3.33167 -6.5932e-20)
(-13.8955 -4.41137 -1.06455e-18)
(-13.4605 -5.45694 7.86431e-19)
(-12.9562 -6.46238 8.65502e-19)
(-12.3829 -7.42434 -1.91708e-18)
(-11.7418 -8.33762 1.80471e-18)
(-11.0348 -9.19885 -2.2302e-18)
(-10.2654 -10.0057 1.7297e-18)
(-9.43753 -10.7574 -4.4567e-18)
(-8.55454 -11.4525 4.8717e-18)
(-7.61974 -12.0877 7.24601e-18)
(-8.60323 -8.73299 -4.52688e-18)
(-8.17123 -9.05918 -4.24912e-18)
(-7.94757 -9.54219 5.40572e-18)
(-7.91963 -9.80618 -3.49e-19)
(-7.8841 -9.93327 5.26696e-18)
(-7.8138 -9.96525 4.43438e-19)
(-7.75755 -9.92295 -4.01898e-18)
(-7.86331 -9.7604 6.83865e-18)
(-8.44099 -9.26393 -1.08992e-18)
(-6.64349 -12.6631 -7.88553e-18)
(-7.97997 -9.58207 1.75702e-17)
(-7.56282 -9.96186 -8.1855e-19)
(-7.28764 -10.44 -4.8217e-18)
(-7.20353 -10.6808 3.47067e-18)
(-7.1167 -10.7752 -7.26766e-18)
(-7.00284 -10.7753 7.72072e-18)
(-6.89338 -10.7147 -5.75022e-18)
(-6.83259 -10.6017 1.22334e-18)
(-7.06873 -10.277 3.42042e-18)
(-5.62682 -13.1871 4.62075e-18)
(-7.2902 -10.4212 -1.10667e-17)
(-6.87367 -10.8563 3.66683e-18)
(-6.54336 -11.3231 -1.80794e-18)
(-6.40607 -11.5357 3.03043e-18)
(-6.27443 -11.5961 -2.07869e-18)
(-6.12153 -11.5644 -1.85436e-18)
(-5.97238 -11.4736 2.13181e-18)
(-5.87541 -11.3243 -4.53242e-18)
(-6.04875 -11.0224 5.22846e-18)
(-4.57427 -13.6578 -1.0321e-17)
(-6.53073 -11.2468 1.02016e-18)
(-6.10295 -11.7325 3.73563e-18)
(-5.71754 -12.1781 4.5088e-18)
(-5.53269 -12.3563 -6.72157e-18)
(-5.36261 -12.3812 5.03844e-19)
(-5.17417 -12.3247 -2.81225e-18)
(-4.98611 -12.2313 -5.36173e-18)
(-4.82701 -12.1272 9.86753e-18)
(-4.87273 -11.96 2.46351e-18)
(-3.48617 -14.0772 7.39692e-18)
(-5.6993 -12.0528 1.42122e-18)
(-5.25092 -12.5812 4.83501e-18)
(-4.81387 -12.9943 -3.77817e-19)
(-4.58938 -13.1304 5.23862e-18)
(-4.3918 -13.1148 2.35343e-18)
(-4.1858 -13.0262 5.13175e-18)
(-3.99337 -12.9091 -4.82557e-18)
(-3.84943 -12.7808 -3.4454e-19)
(-3.85324 -12.6265 -3.43764e-18)
(-2.36431 -14.4424 5.20152e-18)
(-4.79335 -12.8296 -4.78355e-18)
(-4.3178 -13.389 -8.56276e-19)
(-3.83571 -13.7576 -1.4339e-18)
(-3.58099 -13.8452 -1.44232e-18)
(-3.36478 -13.7876 -1.65107e-18)
(-3.1469 -13.6699 2.49506e-18)
(-2.94654 -13.5396 -2.9199e-18)
(-2.78283 -13.4203 2.56121e-18)
(-2.7152 -13.3103 1.93145e-19)
(-1.2093 -14.7508 -9.15109e-18)
(-3.81166 -13.5659 -3.5494e-18)
(-3.30573 -14.1428 5.80255e-18)
(-2.7885 -14.4553 -1.89339e-18)
(-2.51516 -14.4889 2.4702e-18)
(-2.29203 -14.3872 -6.70136e-18)
(-2.07557 -14.2376 4.80642e-18)
(-1.88394 -14.0845 -1.59622e-18)
(-1.73075 -13.9435 2.48341e-18)
(-1.62232 -13.8289 -2.4727e-18)
(-0.022809 -14.9972 4.2402e-18)
(-2.75439 -14.2481 -1.44138e-18)
(-2.21813 -14.8276 -1.97573e-18)
(-1.67828 -15.0738 -7.42792e-19)
(-1.39836 -15.0502 4.42239e-19)
(-1.17721 -14.9057 1.02657e-18)
(-0.96621 -14.7287 -2.08096e-18)
(-0.778679 -14.562 1.22671e-18)
(-0.611369 -14.4213 3.19874e-18)
(-0.461642 -14.3211 -2.47551e-18)
(1.19312 -15.1745 3.29446e-18)
(-1.62383 -14.8613 -2.66053e-20)
(-1.06066 -15.4289 3.08251e-18)
(-0.513043 -15.6011 -2.44584e-18)
(-0.239782 -15.5187 6.87279e-19)
(-0.0314575 -15.3328 -7.23482e-19)
(0.163573 -15.1298 -3.40397e-19)
(0.335734 -14.9482 -1.7921e-18)
(0.49745 -14.7973 1.83836e-18)
(0.662825 -14.7002 1.37504e-18)
(2.43445 -15.2726 -6.08166e-19)
(-0.425105 -15.3894 -4.21036e-19)
(0.159111 -15.9325 -3.208e-19)
(0.698685 -16.0257 -1.07121e-18)
(0.952763 -15.8853 1.01841e-18)
(1.13968 -15.6615 3.0223e-19)
(1.31346 -15.437 -6.69038e-19)
(1.4697 -15.2461 4.76913e-20)
(1.63398 -15.0959 -3.12321e-19)
(1.79611 -15.0105 -5.99782e-22)
(2.63578 -14.8498 -2.94389e-20)
(1.69479 -12.6235 -1.04805e-20)
(0.748946 -9.94538 2.31228e-20)
(0.61165 -8.06916 -9.13012e-21)
(0.725315 -6.51386 -5.24928e-22)
(0.568819 -4.71666 -1.64769e-21)
(0.480529 -3.11689 2.4501e-22)
(0.442622 -1.99518 -9.54967e-23)
(0.387842 -1.23358 3.72144e-23)
(0.351029 -0.708092 3.00118e-23)
(0.297203 -0.377026 -7.35844e-23)
(0.252593 -0.205821 3.87291e-23)
(0.225058 -0.129291 -3.14009e-23)
(0.211919 -0.094181 -9.65749e-23)
(0.200891 -0.0747781 1.55299e-23)
(0.193006 -0.0569709 -4.83539e-23)
(0.178932 -0.0357654 1.82874e-23)
(0.166558 -0.0085783 1.84262e-23)
(0.130206 0.0691395 -3.91183e-23)
(0.0236684 0.102233 -5.93012e-23)
(3.66694 -15.0781 1.80648e-19)
(2.51682 -12.8955 5.7518e-20)
(1.28641 -10.1669 -4.38758e-20)
(0.876072 -8.15823 9.53572e-21)
(0.875631 -6.54864 -1.26438e-20)
(0.670644 -4.75296 -1.87821e-21)
(0.529993 -3.12472 -5.55206e-22)
(0.462799 -1.99524 -1.98027e-22)
(0.390444 -1.23143 9.45209e-23)
(0.342078 -0.70364 7.01756e-24)
(0.281947 -0.371527 2.58899e-24)
(0.233623 -0.201722 2.47731e-22)
(0.204207 -0.127006 -3.36484e-22)
(0.189331 -0.0928571 -9.61199e-23)
(0.176513 -0.0737536 7.34339e-23)
(0.166708 -0.0559177 7.09297e-23)
(0.150957 -0.0346102 -1.60967e-22)
(0.138109 -0.0067274 2.87233e-22)
(0.0985703 0.0741653 9.08447e-23)
(0.00426846 0.105785 1.40986e-22)
(4.54071 -14.9648 -4.16265e-19)
(3.24861 -12.8909 1.56455e-19)
(1.79843 -10.2823 2.04922e-19)
(1.14828 -8.2406 -5.76099e-20)
(1.03248 -6.58704 2.75618e-21)
(0.778016 -4.79022 -9.9399e-21)
(0.586703 -3.14182 -8.07859e-22)
(0.486882 -2.00168 -7.04044e-22)
(0.395331 -1.2334 -1.14464e-22)
(0.334723 -0.701714 -9.51441e-23)
(0.268234 -0.367321 -5.11213e-23)
(0.215995 -0.198098 1.1731e-23)
(0.184537 -0.124817 3.60247e-22)
(0.167882 -0.0914659 -1.75405e-22)
(0.153328 -0.0726125 -1.90194e-22)
(0.141756 -0.0547532 2.08482e-22)
(0.124498 -0.0334089 -6.93103e-23)
(0.1114 -0.00481411 -1.67296e-22)
(0.0689739 0.0787263 -3.31315e-22)
(-0.00952357 0.108612 2.39951e-22)
(5.54557 -15.005 -1.18057e-19)
(4.07034 -13.0076 3.39397e-19)
(2.37752 -10.4033 -1.45295e-19)
(1.46593 -8.3008 -2.88574e-20)
(1.2079 -6.60125 1.73323e-20)
(0.891654 -4.81121 -6.82728e-22)
(0.648907 -3.15991 2.35452e-21)
(0.514624 -2.0127 1.04327e-22)
(0.402571 -1.23918 4.56943e-22)
(0.329015 -0.702313 2.73539e-22)
(0.256069 -0.364426 -6.06493e-22)
(0.19969 -0.194938 8.62087e-23)
(0.166023 -0.122714 -4.98026e-23)
(0.147554 -0.0900139 2.85196e-22)
(0.13133 -0.0713731 8.75515e-23)
(0.118148 -0.0535007 -1.51913e-22)
(0.0995518 -0.032186 -1.53635e-22)
(0.086404 -0.00287032 -3.97532e-22)
(0.0413984 0.082724 5.09448e-22)
(-0.0211468 0.111143 -5.11596e-22)
(6.43697 -14.8183 6.79871e-21)
(4.83835 -12.8823 2.16733e-20)
(2.95135 -10.3562 1.17722e-20)
(1.7968 -8.26625 6.27672e-20)
(1.38968 -6.56942 1.9985e-20)
(1.00521 -4.81354 1.25872e-20)
(0.712545 -3.17822 -3.597e-21)
(0.544812 -2.02821 4.59415e-22)
(0.412031 -1.24867 2.03763e-22)
(0.324977 -0.705422 3.35853e-22)
(0.245452 -0.362856 -6.40068e-23)
(0.184692 -0.192229 -6.19074e-22)
(0.148638 -0.120691 -1.05596e-22)
(0.128335 -0.0885103 4.74413e-22)
(0.110517 -0.0700554 3.9595e-22)
(0.095876 -0.0521832 -2.16242e-22)
(0.0761075 -0.0309649 5.98896e-22)
(0.0630855 -0.000925106 1.18061e-22)
(0.0158 0.0861797 1.74616e-22)
(-0.0309323 0.113089 -5.81336e-23)
(7.40775 -14.6415 -8.33419e-19)
(5.67401 -12.7144 -1.19856e-19)
(3.56481 -10.2281 9.71471e-20)
(2.14825 -8.18687 -1.63427e-19)
(1.57414 -6.54103 -4.95606e-20)
(1.11466 -4.83807 -3.49943e-20)
(0.775377 -3.21613 4.84668e-21)
(0.576873 -2.05368 4.78023e-22)
(0.423703 -1.26276 -8.30481e-22)
(0.322641 -0.711132 -2.99514e-22)
(0.236372 -0.362626 -2.14789e-22)
(0.170984 -0.189961 5.80221e-22)
(0.132361 -0.118741 -2.67497e-22)
(0.11021 -0.0869658 -3.19831e-22)
(0.0908806 -0.0686793 -2.61138e-22)
(0.0749298 -0.0508229 3.87632e-22)
(0.0541467 -0.029766 5.48366e-23)
(0.0414034 0.000996525 2.23554e-22)
(-0.00788011 0.0891039 -3.47882e-22)
(-0.0391666 0.114449 1.90471e-22)
(8.31161 -14.2157 8.21278e-19)
(6.46664 -12.4475 2.9434e-19)
(4.16932 -10.1517 -1.34819e-20)
(2.50515 -8.22128 1.93257e-19)
(1.76011 -6.64125 -5.52481e-20)
(1.22591 -4.96173 6.44976e-21)
(0.843027 -3.30827 1.18699e-20)
(0.613537 -2.09982 -2.42365e-21)
(0.438433 -1.28391 -2.19062e-21)
(0.322179 -0.71999 1.00416e-22)
(0.228822 -0.36389 -4.40484e-22)