/*--------------------------------*- C++ -*----------------------------------*\
| =========                 |                                                 |
| \\      /  F ield         | OpenFOAM: The Open Source CFD Toolbox           |
|  \\    /   O peration     | Version:  v1912                                 |
|   \\  /    A nd           | Website:  www.openfoam.com                      |
|    \\/     M anipulation  |                                                 |
\*---------------------------------------------------------------------------*/
FoamFile
{
    version     2.0;
    format      ascii;
    class       volScalarField;
    location    "14";
    object      p;
}
// * * * * * * * * * * * * * * * * * * * * * * * * * * * * * * * * * * * * * //

dimensions      [0 2 -2 0 0 0 0];


internalField   nonuniform List<scalar> 
19200
(
-0.399549
-0.39441
-0.390702
-0.387581
-0.38471
-0.382078
-0.379637
-0.377334
-0.375129
-0.372997
-0.370916
-0.368873
-0.366858
-0.364865
-0.36289
-0.360931
-0.358989
-0.357062
-0.355154
-0.353265
-0.351396
-0.349551
-0.34773
-0.345935
-0.344166
-0.342431
-0.340727
-0.338998
-0.337211
-0.33598
-0.40311
-0.397845
-0.394109
-0.390961
-0.388048
-0.385358
-0.382846
-0.38046
-0.378164
-0.375933
-0.373748
-0.371597
-0.369471
-0.367364
-0.365276
-0.363204
-0.361149
-0.359113
-0.357097
-0.355103
-0.353134
-0.351192
-0.349278
-0.347395
-0.345544
-0.343732
-0.341958
-0.340154
-0.33828
-0.337044
-0.407254
-0.401761
-0.397935
-0.394724
-0.39174
-0.388971
-0.38637
-0.383885
-0.381483
-0.379139
-0.376836
-0.374563
-0.372313
-0.370081
-0.367867
-0.36567
-0.363492
-0.361334
-0.3592
-0.357092
-0.355013
-0.352965
-0.350951
-0.348973
-0.347032
-0.345137
-0.343286
-0.341403
-0.339425
-0.338183
-0.411757
-0.406096
-0.402177
-0.398881
-0.395805
-0.392937
-0.390227
-0.387627
-0.385102
-0.382629
-0.380194
-0.377784
-0.375396
-0.373026
-0.370673
-0.368339
-0.366025
-0.363735
-0.361472
-0.359239
-0.357039
-0.354876
-0.352753
-0.350671
-0.348634
-0.346649
-0.344718
-0.342748
-0.340648
-0.339369
-0.416669
-0.410857
-0.406835
-0.403435
-0.400248
-0.397261
-0.394426
-0.391693
-0.389029
-0.386412
-0.383828
-0.381268
-0.378728
-0.376205
-0.3737
-0.371216
-0.368755
-0.36632
-0.363916
-0.361547
-0.359217
-0.35693
-0.354689
-0.352496
-0.350355
-0.348276
-0.346262
-0.344204
-0.342002
-0.340769
-0.422028
-0.416054
-0.411914
-0.408393
-0.405077
-0.401954
-0.398975
-0.396092
-0.393272
-0.390494
-0.387747
-0.385022
-0.382315
-0.379626
-0.376956
-0.374309
-0.371687
-0.369095
-0.366539
-0.364023
-0.361551
-0.359129
-0.35676
-0.354448
-0.352196
-0.350019
-0.347915
-0.345763
-0.34346
-0.342315
-0.42785
-0.421698
-0.417424
-0.413765
-0.410302
-0.407023
-0.403884
-0.400833
-0.39784
-0.394886
-0.39196
-0.389054
-0.386166
-0.383297
-0.380448
-0.377623
-0.374828
-0.372067
-0.369345
-0.36667
-0.364045
-0.361477
-0.35897
-0.356529
-0.354158
-0.351872
-0.349674
-0.34742
-0.344997
-0.343926
-0.434153
-0.427798
-0.423375
-0.419561
-0.415931
-0.41248
-0.409161
-0.405925
-0.402742
-0.399596
-0.396474
-0.393372
-0.390288
-0.387224
-0.384182
-0.381166
-0.378184
-0.375239
-0.37234
-0.369492
-0.366702
-0.363977
-0.361321
-0.358739
-0.356238
-0.353836
-0.351535
-0.34917
-0.346611
-0.345617
-0.440949
-0.434366
-0.429778
-0.425789
-0.421975
-0.418332
-0.414815
-0.411376
-0.407987
-0.404631
-0.401298
-0.397985
-0.394689
-0.391415
-0.388165
-0.384944
-0.381761
-0.37862
-0.375529
-0.372496
-0.369527
-0.366631
-0.363814
-0.36108
-0.358439
-0.35591
-0.353497
-0.351011
-0.348304
-0.347395
-0.448253
-0.441414
-0.436644
-0.432461
-0.428442
-0.424588
-0.420855
-0.417195
-0.413582
-0.409999
-0.406439
-0.402898
-0.399376
-0.395876
-0.392404
-0.388964
-0.385565
-0.382213
-0.378917
-0.375685
-0.372524
-0.369444
-0.366452
-0.363554
-0.36076
-0.358094
-0.355559
-0.352942
-0.350072
-0.349261
-0.456077
-0.44895
-0.443982
-0.439586
-0.435342
-0.431258
-0.427289
-0.42339
-0.419534
-0.415708
-0.411904
-0.40812
-0.404356
-0.400617
-0.396907
-0.393234
-0.389604
-0.386027
-0.382511
-0.379065
-0.375698
-0.37242
-0.369239
-0.366163
-0.363203
-0.360387
-0.357719
-0.354959
-0.351914
-0.351213
-0.464436
-0.456986
-0.451803
-0.447173
-0.442683
-0.438349
-0.434125
-0.429968
-0.425853
-0.421767
-0.417702
-0.413659
-0.409638
-0.405644
-0.401682
-0.39776
-0.393886
-0.390069
-0.386319
-0.382644
-0.379056
-0.375564
-0.37218
-0.368911
-0.36577
-0.362791
-0.359979
-0.357063
-0.353826
-0.353247
-0.473343
-0.465529
-0.460118
-0.455232
-0.450475
-0.445869
-0.441372
-0.436938
-0.432545
-0.428181
-0.423841
-0.419523
-0.415229
-0.410965
-0.406737
-0.402553
-0.39842
-0.394348
-0.390348
-0.38643
-0.382604
-0.378884
-0.37528
-0.371802
-0.368465
-0.365308
-0.362337
-0.35925
-0.355805
-0.35536
-0.482815
-0.474586
-0.468938
-0.463772
-0.458724
-0.453828
-0.449036
-0.444307
-0.439619
-0.434961
-0.430328
-0.425719
-0.421139
-0.416591
-0.412082
-0.407621
-0.403215
-0.398874
-0.394609
-0.390431
-0.386353
-0.382386
-0.378545
-0.374841
-0.371291
-0.367939
-0.364794
-0.361519
-0.357848
-0.357547
-0.492874
-0.484157
-0.478273
-0.4728
-0.467439
-0.46223
-0.457125
-0.452082
-0.447081
-0.442112
-0.437171
-0.432258
-0.427376
-0.42253
-0.417727
-0.412975
-0.408282
-0.403657
-0.399113
-0.39466
-0.390312
-0.386082
-0.381986
-0.378037
-0.374254
-0.370688
-0.367351
-0.363869
-0.359949
-0.359802
-0.503532
-0.494237
-0.488137
-0.482326
-0.476627
-0.471085
-0.465646
-0.460271
-0.454939
-0.449643
-0.444379
-0.439146
-0.433949
-0.428793
-0.423683
-0.418626
-0.413633
-0.408711
-0.403872
-0.399129
-0.394494
-0.389983
-0.385612
-0.381397
-0.37736
-0.373559
-0.370008
-0.366296
-0.362104
-0.362117
-0.514726
-0.504914
-0.49852
-0.492352
-0.486295
-0.480397
-0.474605
-0.468879
-0.4632
-0.457561
-0.451959
-0.446394
-0.44087
-0.43539
-0.42996
-0.424588
-0.419281
-0.414049
-0.408902
-0.403852
-0.398913
-0.394102
-0.389435
-0.384932
-0.380617
-0.376555
-0.372765
-0.368796
-0.364304
-0.364479
-0.526491
-0.516208
-0.509393
-0.502878
-0.496447
-0.490173
-0.484008
-0.477913
-0.471871
-0.465875
-0.459921
-0.454011
-0.448146
-0.442332
-0.436572
-0.430873
-0.425242
-0.419687
-0.414218
-0.408846
-0.403586
-0.398454
-0.39347
-0.388653
-0.384032
-0.379681
-0.375622
-0.371365
-0.366537
-0.366873
-0.53884
-0.528061
-0.520811
-0.513916
-0.507087
-0.500415
-0.493859
-0.487378
-0.480957
-0.474589
-0.468271
-0.462004
-0.45579
-0.449631
-0.443531
-0.437496
-0.43153
-0.425641
-0.419837
-0.414129
-0.40853
-0.403058
-0.397732
-0.392574
-0.387617
-0.382942
-0.378578
-0.373993
-0.368788
-0.369273
-0.551739
-0.540509
-0.532776
-0.525467
-0.518219
-0.511129
-0.504161
-0.497278
-0.490463
-0.483711
-0.477018
-0.470384
-0.46381
-0.457298
-0.45085
-0.444471
-0.438162
-0.43193
-0.425781
-0.419723
-0.413769
-0.407936
-0.402243
-0.396713
-0.391383
-0.386344
-0.38163
-0.376667
-0.371033
-0.371646
-0.565226
-0.553532
-0.545283
-0.537532
-0.529842
-0.522315
-0.514919
-0.507617
-0.500395
-0.493246
-0.486167
-0.479156
-0.472216
-0.465344
-0.458543
-0.451814
-0.445157
-0.438574
-0.43207
-0.425651
-0.419327
-0.413112
-0.407025
-0.401089
-0.395345
-0.389892
-0.384772
-0.379369
-0.373238
-0.37394
-0.579331
-0.567113
-0.558328
-0.550111
-0.541958
-0.533973
-0.526131
-0.518397
-0.510754
-0.503198
-0.495724
-0.48833
-0.481017
-0.473782
-0.466623
-0.45954
-0.452531
-0.445595
-0.438731
-0.431942
-0.425234
-0.418618
-0.41211
-0.405731
-0.399524
-0.393597
-0.388
-0.382074
-0.375353
-0.376082
-0.594049
-0.581248
-0.57191
-0.563201
-0.554562
-0.546101
-0.537798
-0.529617
-0.521543
-0.51357
-0.505694
-0.497912
-0.490221
-0.48262
-0.475103
-0.467667
-0.460307
-0.453016
-0.445791
-0.438628
-0.431527
-0.424494
-0.417538
-0.410678
-0.403952
-0.397478
-0.391313
-0.384754
-0.377315
-0.377968
-0.609372
-0.595934
-0.58602
-0.576796
-0.56765
-0.558696
-0.549916
-0.541276
-0.53276
-0.524363
-0.516079
-0.507905
-0.499836
-0.491869
-0.483996
-0.476211
-0.468504
-0.460864
-0.453282
-0.445748
-0.438252
-0.430792
-0.423368
-0.415987
-0.408682
-0.401574
-0.394723
-0.387379
-0.379038
-0.379449
-0.625291
-0.611163
-0.60065
-0.590886
-0.581213
-0.571749
-0.56248
-0.55337
-0.544404
-0.535576
-0.52688
-0.518312
-0.509866
-0.501536
-0.493313
-0.485186
-0.477143
-0.469168
-0.461243
-0.453349
-0.445469
-0.437584
-0.42968
-0.421747
-0.413803
-0.405959
-0.398272
-0.389932
-0.380404
-0.380296
-0.641797
-0.626923
-0.615782
-0.605458
-0.595239
-0.58525
-0.57548
-0.565891
-0.556469
-0.547206
-0.538096
-0.529134
-0.520314
-0.511627
-0.503063
-0.494608
-0.486246
-0.477955
-0.469712
-0.461487
-0.453249
-0.444963
-0.436593
-0.428099
-0.419468
-0.410784
-0.402076
-0.392446
-0.381293
-0.380204
-0.658883
-0.643192
-0.631397
-0.620492
-0.609712
-0.599187
-0.588906
-0.578831
-0.568947
-0.559246
-0.549721
-0.540367
-0.531177
-0.522142
-0.51325
-0.504485
-0.495828
-0.487254
-0.478732
-0.470224
-0.461684
-0.453056
-0.444276
-0.435266
-0.425957
-0.416377
-0.406496
-0.395258
-0.381871
-0.379014
-0.676578
-0.659954
-0.647465
-0.635963
-0.624611
-0.61354
-0.602742
-0.592176
-0.581826
-0.571685
-0.561746
-0.552004
-0.542451
-0.533078
-0.523873
-0.514821
-0.5059
-0.497085
-0.488339
-0.479619
-0.470865
-0.462005
-0.45294
-0.443542
-0.433666
-0.423249
-0.412157
-0.399019
-0.382331
-0.375817
-0.69493
-0.677176
-0.663941
-0.651835
-0.639908
-0.628289
-0.616971
-0.605911
-0.595094
-0.584512
-0.57416
-0.564033
-0.554123
-0.544424
-0.534924
-0.525609
-0.51646
-0.507453
-0.498553
-0.489716
-0.480878
-0.471953
-0.462812
-0.453264
-0.443046
-0.431916
-0.41944
-0.403342
-0.380028
-0.364545
-0.713462
-0.694673
-0.680757
-0.668073
-0.655582
-0.643416
-0.631575
-0.620018
-0.608731
-0.597707
-0.586943
-0.576433
-0.566174
-0.556158
-0.546377
-0.536823
-0.52748
-0.518333
-0.509358
-0.500523
-0.491782
-0.483067
-0.474267
-0.465192
-0.455538
-0.4449
-0.432352
-0.414254
-0.384107
-0.356577
-1.1898
-1.18684
-1.18197
-1.17564
-1.16787
-1.15872
-1.14825
-1.13656
-1.12372
-1.10981
-1.09492
-1.07913
-1.06254
-1.04522
-1.02726
-1.00875
-0.989753
-0.970357
-0.950637
-0.930663
-0.910504
-0.890227
-0.869894
-0.849563
-0.829287
-0.809115
-0.789089
-0.769221
-0.749496
-0.730357
-1.15469
-1.15176
-1.14709
-1.14092
-1.13333
-1.12438
-1.11417
-1.10277
-1.09027
-1.07676
-1.06231
-1.04701
-1.03094
-1.01419
-0.996832
-0.978953
-0.960625
-0.941926
-0.922927
-0.903697
-0.884304
-0.864811
-0.845279
-0.825765
-0.806324
-0.787009
-0.767871
-0.748958
-0.730319
-0.71213
-1.12656
-1.12366
-1.11914
-1.11314
-1.10574
-1.09703
-1.08708
-1.07598
-1.06381
-1.05066
-1.03661
-1.02173
-1.00612
-0.989854
-0.973007
-0.955659
-0.937886
-0.919762
-0.901356
-0.882736
-0.863969
-0.845116
-0.826236
-0.807386
-0.78862
-0.769991
-0.75155
-0.733349
-0.715448
-0.697921
-1.09981
-1.09704
-1.0927
-1.08693
-1.07979
-1.07135
-1.06172
-1.05095
-1.03915
-1.02638
-1.01274
-0.998299
-0.983142
-0.967348
-0.950995
-0.934159
-0.916915
-0.899334
-0.881486
-0.863438
-0.845252
-0.826992
-0.808714
-0.790475
-0.772327
-0.754321
-0.736506
-0.71893
-0.701647
-0.684702
-1.07266
-1.0701
-1.06603
-1.06055
-1.05373
-1.04564
-1.03637
-1.026
-1.01461
-1.00227
-0.989072
-0.975096
-0.960419
-0.945121
-0.929278
-0.912966
-0.896258
-0.879224
-0.861934
-0.844453
-0.826844
-0.809168
-0.791481
-0.773838
-0.75629
-0.738889
-0.721679
-0.704705
-0.688014
-0.671642
-1.04543
-1.04318
-1.03944
-1.03433
-1.02789
-1.02021
-1.01136
-1.00143
-0.990487
-0.978617
-0.9659
-0.952415
-0.938241
-0.923455
-0.908134
-0.892352
-0.876183
-0.859695
-0.842957
-0.826033
-0.808987
-0.791877
-0.774761
-0.757692
-0.740721
-0.723896
-0.707262
-0.690861
-0.674735
-0.658918
-1.01821
-1.01634
-1.01301
-1.00832
-1.00233
-0.995107
-0.986732
-0.977282
-0.966835
-0.955468
-0.943262
-0.930294
-0.916643
-0.902386
-0.887598
-0.872353
-0.856723
-0.840778
-0.824585
-0.808208
-0.79171
-0.775149
-0.758582
-0.742063
-0.725641
-0.709363
-0.693275
-0.677417
-0.661827
-0.646539
-0.991018
-0.989584
-0.986719
-0.982508
-0.977011
-0.970297
-0.96244
-0.953515
-0.943599
-0.932769
-0.921102
-0.908677
-0.89557
-0.881858
-0.867615
-0.852915
-0.837829
-0.822425
-0.806772
-0.790933
-0.77497
-0.758942
-0.742905
-0.726912
-0.711013
-0.695256
-0.679685
-0.66434
-0.649257
-0.634473
-0.963897
-0.962951
-0.960595
-0.956908
-0.951947
-0.94578
-0.938478
-0.930113
-0.920761
-0.910498
-0.899398
-0.887539
-0.874997
-0.861846
-0.84816
-0.834013
-0.819474
-0.804613
-0.789497
-0.774188
-0.758749
-0.743238
-0.727713
-0.712225
-0.696826
-0.681563
-0.666481
-0.651619
-0.637015
-0.622706
-0.93692
-0.936496
-0.934682
-0.931552
-0.927161
-0.921572
-0.914855
-0.90708
-0.89832
-0.888648
-0.878138
-0.866866
-0.854906
-0.842331
-0.829216
-0.81563
-0.801645
-0.787328
-0.772746
-0.757961
-0.743037
-0.728031
-0.713
-0.697998
-0.683076
-0.668281
-0.653659
-0.639252
-0.625098
-0.611233
-0.910162
-0.910281
-0.909031
-0.90648
-0.90268
-0.897693
-0.891584
-0.884421
-0.876274
-0.867214
-0.857315
-0.846647
-0.835285
-0.823301
-0.810766
-0.797751
-0.784325
-0.770555
-0.756507
-0.742244
-0.727826
-0.713314
-0.698763
-0.684227
-0.669759
-0.655407
-0.641219
-0.627237
-0.613502
-0.600052
-0.883696
-0.884368
-0.883693
-0.881733
-0.878539
-0.874167
-0.868681
-0.862146
-0.854628
-0.846196
-0.836921
-0.826873
-0.816123
-0.804742
-0.792798
-0.780363
-0.767502
-0.754283
-0.74077
-0.727025
-0.713109
-0.69908
-0.684996
-0.67091
-0.656875
-0.642942
-0.62916
-0.615574
-0.602225
-0.589158
-0.857592
-0.858817
-0.858719
-0.857354
-0.854769
-0.85102
-0.846165
-0.840266
-0.833387
-0.825594
-0.816955
-0.807537
-0.79741
-0.786641
-0.775299
-0.76345
-0.751162
-0.738499
-0.725523
-0.712296
-0.698877
-0.685326
-0.671697
-0.658045
-0.644425
-0.630887
-0.617483
-0.604262
-0.591268
-0.578549
-0.831917
-0.833686
-0.834158
-0.833382
-0.831405
-0.828277
-0.824054
-0.818794
-0.812558
-0.80541
-0.797413
-0.788633
-0.779136
-0.768988
-0.758255
-0.747002
-0.735293
-0.72319
-0.710756
-0.698048
-0.685126
-0.672046
-0.658864
-0.645634
-0.63241
-0.619244
-0.606191
-0.593302
-0.580628
-0.568221
-0.806731
-0.809028
-0.810054
-0.809857
-0.808478
-0.805964
-0.802367
-0.797743
-0.79215
-0.785646
-0.778293
-0.770155
-0.761293
-0.751772
-0.741655
-0.731004
-0.719881
-0.708346
-0.696458
-0.684273
-0.671849
-0.659239
-0.646498
-0.633679
-0.620834
-0.608019
-0.595288
-0.582698
-0.570305
-0.558169
-0.782085
-0.784888
-0.78645
-0.786813
-0.786016
-0.784103
-0.781122
-0.777126
-0.772168
-0.766305
-0.759595
-0.752098
-0.743874
-0.734984
-0.725487
-0.715445
-0.704914
-0.693954
-0.682618
-0.670963
-0.65904
-0.646902
-0.634599
-0.622182
-0.609704
-0.597218
-0.584781
-0.572454
-0.5603
-0.54839
-0.758024
-0.761306
-0.76338
-0.764281
-0.764046
-0.762715
-0.760335
-0.756953
-0.75262
-0.747389
-0.741316
-0.734458
-0.72687
-0.718612
-0.709739
-0.70031
-0.690379
-0.68
-0.669226
-0.658108
-0.646693
-0.635031
-0.623168
-0.61115
-0.599028
-0.586852
-0.574681
-0.562579
-0.550616
-0.538877
-0.734585
-0.738317
-0.740873
-0.742286
-0.742588
-0.741819
-0.740019
-0.737233
-0.733511
-0.728901
-0.723455
-0.717228
-0.710273
-0.702645
-0.694398
-0.685586
-0.67626
-0.666472
-0.656269
-0.645697
-0.634802
-0.623625
-0.612208
-0.600591
-0.588819
-0.576938
-0.565005
-0.553086
-0.54126
-0.529627
-0.711795
-0.715946
-0.718954
-0.72085
-0.721663
-0.721428
-0.720186
-0.717977
-0.714846
-0.710841
-0.70601
-0.700405
-0.694075
-0.687074
-0.679452
-0.671259
-0.662544
-0.653354
-0.643733
-0.633722
-0.62336
-0.612682
-0.601723
-0.590515
-0.579093
-0.567497
-0.555776
-0.543995
-0.532243
-0.520636
-0.689678
-0.694214
-0.697642
-0.699989
-0.701283
-0.701556
-0.700845
-0.699188
-0.696628
-0.693209
-0.688977
-0.68398
-0.678267
-0.671886
-0.664886
-0.657313
-0.649214
-0.64063
-0.631603
-0.622168
-0.612357
-0.602198
-0.591716
-0.580932
-0.56987
-0.558555
-0.547024
-0.535337
-0.523584
-0.511901
-0.668248
-0.673135
-0.67695
-0.679717
-0.68146
-0.682211
-0.682003
-0.680873
-0.678859
-0.676005
-0.672353
-0.667949
-0.662839
-0.65707
-0.650686
-0.643733
-0.636252
-0.628284
-0.619863
-0.61102
-0.601782
-0.592167
-0.582189
-0.571856
-0.561174
-0.550148
-0.538795
-0.527155
-0.515316
-0.503424
-0.647514
-0.652719
-0.656888
-0.66004
-0.662202
-0.663399
-0.663665
-0.663032
-0.66154
-0.659226
-0.656133
-0.652304
-0.647782
-0.642613
-0.636838
-0.630501
-0.623641
-0.616294
-0.608492
-0.600261
-0.59162
-0.58258
-0.573142
-0.563298
-0.553032
-0.54232
-0.531145
-0.519513
-0.50749
-0.495218
-0.627479
-0.63297
-0.637458
-0.640965
-0.643511
-0.645124
-0.645832
-0.645669
-0.644669
-0.64287
-0.640312
-0.637037
-0.633086
-0.628502
-0.623326
-0.617599
-0.611359
-0.604639
-0.597468
-0.589868
-0.581853
-0.573424
-0.564572
-0.555268
-0.545471
-0.535121
-0.524149
-0.512498
-0.50019
-0.487308
-0.608143
-0.613886
-0.618663
-0.622491
-0.625391
-0.627387
-0.628507
-0.628782
-0.628246
-0.626935
-0.624887
-0.622142
-0.618741
-0.614726
-0.610136
-0.605011
-0.599388
-0.593298
-0.586769
-0.579819
-0.572459
-0.564683
-0.556469
-0.547774
-0.538524
-0.528615
-0.517905
-0.506241
-0.493551
-0.479754
-0.589499
-0.595466
-0.6005
-0.604617
-0.607838
-0.610185
-0.611686
-0.612369
-0.612266
-0.611414
-0.60985
-0.607611
-0.604738
-0.601272
-0.597253
-0.592719
-0.587706
-0.582247
-0.576368
-0.570087
-0.563411
-0.556332
-0.548819
-0.540815
-0.532216
-0.522868
-0.512538
-0.500926
-0.487796
-0.472701
-0.57154
-0.577699
-0.582958
-0.587333
-0.590843
-0.593508
-0.595356
-0.596413
-0.596713
-0.596288
-0.595176
-0.593415
-0.591044
-0.588103
-0.584633
-0.580673
-0.57626
-0.571426
-0.566199
-0.560599
-0.554634
-0.548294
-0.541548
-0.534328
-0.526511
-0.517894
-0.508139
-0.496742
-0.483236
-0.466462
-0.554254
-0.560577
-0.566032
-0.570632
-0.574397
-0.577348
-0.579508
-0.580906
-0.581572
-0.581541
-0.580847
-0.579529
-0.577627
-0.57518
-0.572231
-0.56882
-0.564984
-0.560758
-0.556174
-0.551254
-0.546011
-0.540441
-0.534517
-0.528173
-0.521282
-0.513608
-0.504708
-0.493831
-0.480224
-0.461442
-0.537635
-0.544114
-0.549756
-0.554573
-0.558582
-0.561805
-0.564265
-0.565989
-0.567008
-0.567354
-0.567064
-0.566175
-0.564728
-0.562764
-0.560325
-0.557452
-0.554187
-0.550568
-0.546629
-0.542399
-0.537897
-0.53313
-0.528084
-0.522712
-0.516904
-0.510435
-0.502798
-0.492987
-0.479815
-0.458066
-0.521659
-0.528314
-0.534161
-0.539214
-0.543489
-0.547006
-0.54979
-0.551868
-0.55327
-0.554029
-0.554181
-0.553767
-0.552826
-0.551402
-0.549538
-0.547278
-0.544667
-0.541745
-0.538553
-0.535124
-0.531488
-0.527664
-0.52366
-0.51946
-0.515009
-0.510168
-0.504526
-0.49701
-0.485899
-0.45972
-0.50624
-0.512864
-0.518714
-0.523802
-0.528145
-0.531764
-0.534684
-0.536931
-0.538536
-0.539535
-0.539964
-0.539865
-0.53928
-0.538257
-0.536843
-0.535086
-0.533037
-0.530745
-0.528258
-0.525624
-0.522886
-0.520086
-0.517263
-0.514453
-0.511695
-0.509044
-0.50641
-0.50323
-0.499448
-0.479269
-0.413714
-0.461521
-0.508042
-0.553915
-0.59899
-0.643093
-0.685863
-0.727282
-0.767373
-0.806038
-0.84317
-0.878678
-0.912485
-0.944519
-0.97472
-1.00303
-1.02941
-1.05381
-1.07622
-1.09659
-1.11492
-1.13121
-1.14545
-1.15765
-1.16782
-1.17599
-1.18218
-1.18641
-1.18868
-1.18938
-0.405796
-0.452414
-0.497944
-0.542616
-0.586289
-0.628836
-0.67031
-0.710683
-0.749648
-0.787141
-0.823102
-0.857455
-0.89013
-0.921063
-0.950197
-0.977481
-1.00287
-1.02634
-1.04785
-1.06739
-1.08494
-1.1005
-1.11407
-1.12566
-1.1353
-1.14301
-1.14882
-1.15277
-1.1549
-1.1554
-0.394831
-0.440458
-0.485161
-0.529003
-0.571881
-0.613697
-0.654397
-0.693767
-0.731823
-0.768466
-0.80361
-0.837178
-0.8691
-0.899314
-0.927763
-0.954398
-0.979177
-1.00207
-1.02304
-1.04208
-1.05918
-1.07433
-1.08753
-1.09881
-1.10817
-1.11564
-1.12128
-1.1251
-1.12716
-1.12756
-0.380479
-0.425194
-0.469078
-0.512127
-0.554235
-0.595301
-0.635235
-0.673932
-0.711323
-0.747323
-0.781852
-0.814835
-0.846205
-0.875901
-0.903866
-0.930053
-0.954421
-0.976936
-0.997573
-1.01631
-1.03315
-1.04807
-1.06109
-1.07221
-1.08146
-1.08887
-1.09446
-1.09828
-1.10036
-1.1008
-0.363174
-0.406989
-0.450045
-0.492302
-0.533651
-0.573992
-0.613234
-0.651288
-0.688071
-0.723495
-0.757486
-0.789969
-0.820878
-0.850152
-0.877735
-0.903581
-0.927647
-0.9499
-0.970315
-0.988873
-1.00556
-1.02038
-1.03333
-1.04442
-1.05368
-1.06112
-1.06678
-1.0707
-1.07292
-1.0735
-0.343654
-0.386578
-0.428806
-0.470277
-0.510883
-0.550525
-0.58911
-0.626551
-0.662761
-0.697661
-0.731169
-0.763216
-0.793735
-0.822662
-0.849945
-0.875535
-0.89939
-0.921476
-0.941766
-0.960241
-0.976888
-0.991702
-1.00469
-1.01585
-1.02521
-1.03279
-1.03863
-1.04275
-1.04519
-1.04602
-0.322612
-0.36464
-0.40603
-0.44671
-0.486572
-0.525518
-0.563457
-0.6003
-0.635963
-0.670366
-0.703427
-0.735078
-0.765252
-0.793885
-0.820924
-0.846319
-0.870027
-0.892015
-0.912252
-0.930719
-0.947401
-0.962293
-0.975393
-0.986712
-0.996262
-1.00407
-1.01015
-1.01456
-1.0173
-1.01846
-0.300661
-0.341779
-0.382313
-0.422185
-0.461289
-0.499531
-0.536818
-0.573064
-0.608184
-0.642096
-0.674727
-0.706
-0.73585
-0.764216
-0.791042
-0.816277
-0.839878
-0.861809
-0.882041
-0.900549
-0.917319
-0.932342
-0.945617
-0.957148
-0.966949
-0.975038
-0.981441
-0.986189
-0.98931
-0.990862
-0.278324
-0.318514
-0.358173
-0.397218
-0.435547
-0.473067
-0.50969
-0.545327
-0.579896
-0.613316
-0.645511
-0.676408
-0.70594
-0.734047
-0.76067
-0.78576
-0.809272
-0.831168
-0.851418
-0.869996
-0.886884
-0.902072
-0.915557
-0.92734
-0.937431
-0.945847
-0.952611
-0.95775
-0.961291
-0.963287
-0.256032
-0.295278
-0.334042
-0.37224
-0.409775
-0.446556
-0.482496
-0.517508
-0.551511
-0.584424
-0.616171
-0.646684
-0.675891
-0.703732
-0.730151
-0.755095
-0.77852
-0.800386
-0.82066
-0.839317
-0.856336
-0.871705
-0.885417
-0.897472
-0.907877
-0.916645
-0.923797
-0.929357
-0.93335
-0.935822
-0.234123
-0.272411
-0.310266
-0.3476
-0.384323
-0.420347
-0.455585
-0.489955
-0.523373
-0.555762
-0.587047
-0.617157
-0.646023
-0.673585
-0.699785
-0.724571
-0.747898
-0.769725
-0.790019
-0.80875
-0.825898
-0.841447
-0.855389
-0.867721
-0.878448
-0.887578
-0.89513
-0.901125
-0.905587
-0.908554
-0.212852
-0.250175
-0.287109
-0.323568
-0.359465
-0.394716
-0.429237
-0.462945
-0.495761
-0.527608
-0.558409
-0.588096
-0.616602
-0.643865
-0.669827
-0.694436
-0.717647
-0.739417
-0.759713
-0.778504
-0.795767
-0.811485
-0.825648
-0.83825
-0.849292
-0.858782
-0.866734
-0.873166
-0.8781
-0.881569
-0.192406
-0.228761
-0.264767
-0.300343
-0.335405
-0.369872
-0.403663
-0.436696
-0.468893
-0.500178
-0.530478
-0.559722
-0.587845
-0.614785
-0.640486
-0.664895
-0.687965
-0.709655
-0.72993
-0.748758
-0.766115
-0.781982
-0.796347
-0.809201
-0.820544
-0.830381
-0.838722
-0.845583
-0.850981
-0.854948
-0.172909
-0.208298
-0.243377
-0.278067
-0.31229
-0.345966
-0.379018
-0.411365
-0.44293
-0.473639
-0.503419
-0.532201
-0.55992
-0.586514
-0.611929
-0.636111
-0.659015
-0.680598
-0.700824
-0.719662
-0.737086
-0.753076
-0.767617
-0.7807
-0.792322
-0.802484
-0.811194
-0.818466
-0.824315
-0.828767
-0.154438
-0.188868
-0.223024
-0.256831
-0.290215
-0.3231
-0.355408
-0.387063
-0.417988
-0.448108
-0.477354
-0.505656
-0.532951
-0.559178
-0.584282
-0.608212
-0.630922
-0.652369
-0.672518
-0.691336
-0.708797
-0.72488
-0.739569
-0.752851
-0.764723
-0.775184
-0.784238
-0.791898
-0.798174
-0.803091
-0.137031
-0.170513
-0.203754
-0.236685
-0.269236
-0.301333
-0.3329
-0.36386
-0.39414
-0.423664
-0.452364
-0.480172
-0.507026
-0.532866
-0.557638
-0.581291
-0.60378
-0.625064
-0.645106
-0.663874
-0.681341
-0.697485
-0.712288
-0.725739
-0.73783
-0.748558
-0.757927
-0.765945
-0.772623
-0.777978
-0.120698
-0.153244
-0.185583
-0.21765
-0.249377
-0.280694
-0.311525
-0.341794
-0.371428
-0.400352
-0.428499
-0.455803
-0.482201
-0.507637
-0.532057
-0.555411
-0.577655
-0.598749
-0.618655
-0.637343
-0.654785
-0.670958
-0.685844
-0.699429
-0.711706
-0.722669
-0.73232
-0.740665
-0.747712
-0.753477
-0.105423
-0.137049
-0.1685
-0.199717
-0.230636
-0.261186
-0.291291
-0.320876
-0.349866
-0.378191
-0.405781
-0.432573
-0.458506
-0.483524
-0.507575
-0.530611
-0.552588
-0.573467
-0.593211
-0.611791
-0.629177
-0.645348
-0.660284
-0.673971
-0.686399
-0.697564
-0.707463
-0.716102
-0.723486
-0.729628
-0.0911788
-0.121897
-0.152477
-0.182862
-0.21299
-0.242789
-0.272183
-0.301095
-0.32945
-0.357178
-0.384212
-0.410488
-0.435948
-0.460537
-0.484206
-0.506907
-0.528598
-0.54924
-0.568799
-0.587244
-0.604548
-0.620686
-0.635642
-0.649398
-0.661946
-0.673277
-0.683391
-0.692288
-0.699976
-0.706462
-0.0779224
-0.107746
-0.137472
-0.167046
-0.196405
-0.225474
-0.254174
-0.282426
-0.310157
-0.337295
-0.363775
-0.389535
-0.414518
-0.438672
-0.461947
-0.4843
-0.505689
-0.526076
-0.545429
-0.563716
-0.580911
-0.59699
-0.611936
-0.625731
-0.638366
-0.649832
-0.660126
-0.669249
-0.677204
-0.684001
-0.0656047
-0.0945414
-0.123432
-0.152219
-0.180834
-0.209196
-0.237223
-0.264834
-0.291953
-0.318511
-0.344443
-0.369688
-0.394193
-0.417907
-0.440782
-0.462777
-0.48385
-0.503967
-0.523095
-0.541204
-0.558268
-0.574264
-0.589173
-0.602979
-0.61567
-0.627239
-0.637682
-0.646997
-0.655187
-0.66226
-0.0541701
-0.0822224
-0.110299
-0.138326
-0.166225
-0.193908
-0.221285
-0.248274
-0.274797
-0.300786
-0.326178
-0.350914
-0.374942
-0.398214
-0.420685
-0.442313
-0.463062
-0.482896
-0.501784
-0.519698
-0.536612
-0.552501
-0.567349
-0.58114
-0.593861
-0.605504
-0.616064
-0.62554
-0.633933
-0.641248
-0.0435574
-0.0707187
-0.0980058
-0.125304
-0.152519
-0.179553
-0.206308
-0.232696
-0.258641
-0.284075
-0.308936
-0.333169
-0.356725
-0.379556
-0.40162
-0.422878
-0.443295
-0.462836
-0.481473
-0.499178
-0.515923
-0.531688
-0.546454
-0.560206
-0.572931
-0.584621
-0.59527
-0.604877
-0.613441
-0.620967
-0.0336967
-0.0599475
-0.0864761
-0.113083
-0.139653
-0.166073
-0.192234
-0.218045
-0.24343
-0.268323
-0.292666
-0.316405
-0.339493
-0.361887
-0.383545
-0.404432
-0.424512
-0.443754
-0.462129
-0.479614
-0.496179
-0.511803
-0.526468
-0.54016
-0.552867
-0.564579
-0.575292
-0.585001
-0.593708
-0.601415
-0.024502
-0.0498171
-0.0756349
-0.101598
-0.127568
-0.153414
-0.179012
-0.20427
-0.229116
-0.253484
-0.277321
-0.300576
-0.323204
-0.345165
-0.366421
-0.386935
-0.406676
-0.425614
-0.443721
-0.46098
-0.477352
-0.492821
-0.507369
-0.520984
-0.533652
-0.545365
-0.556116
-0.565904
-0.574726
-0.582586
-0.0158632
-0.0402658
-0.0654604
-0.0908395
-0.116261
-0.141572
-0.166638
-0.191368
-0.215691
-0.23955
-0.262892
-0.285671
-0.307847
-0.329379
-0.350234
-0.370376
-0.389775
-0.408404
-0.426235
-0.443261
-0.459431
-0.47473
-0.489147
-0.502665
-0.515275
-0.526967
-0.537735
-0.547574
-0.556485
-0.564469
-0.00762784
-0.0312
-0.0559161
-0.0807831
-0.105708
-0.130523
-0.155083
-0.179303
-0.203119
-0.226479
-0.249335
-0.271647
-0.293376
-0.314485
-0.33494
-0.354711
-0.37377
-0.392091
-0.409641
-0.426427
-0.442382
-0.4575
-0.471771
-0.485179
-0.497714
-0.509365
-0.520128
-0.529997
-0.538972
-0.547054
0.000663309
-0.0218807
-0.046299
-0.0707712
-0.0952818
-0.11966
-0.14376
-0.167507
-0.19085
-0.213742
-0.236145
-0.25802
-0.279331
-0.300045
-0.32013
-0.339556
-0.358299
-0.376345
-0.393636
-0.410206
-0.425953
-0.4409
-0.455037
-0.468345
-0.480812
-0.49243
-0.503191
-0.513092
-0.522131
-0.530309
0.0103462
-0.0108533
-0.0353469
-0.0597148
-0.0840236
-0.108113
-0.131867
-0.155242
-0.178204
-0.200716
-0.222745
-0.244258
-0.265223
-0.285608
-0.305382
-0.324517
-0.342986
-0.360765
-0.377786
-0.394292
-0.409895
-0.424711
-0.438751
-0.451991
-0.464421
-0.476032
-0.486816
-0.496772
-0.505895
-0.514189
0.020433
-0.00282685
-0.028426
-0.0529454
-0.0771951
-0.101058
-0.124467
-0.14744
-0.16997
-0.19203
-0.213596
-0.23464
-0.255134
-0.27505
-0.29436
-0.313035
-0.331036
-0.348267
-0.364589
-0.381137
-0.396474
-0.410972
-0.424711
-0.437676
-0.449857
-0.461248
-0.471843
-0.481639
-0.490635
-0.498834
0.532401
0.539405
0.546575
0.553879
0.561311
0.568868
0.576541
0.584318
0.592187
0.600131
0.608133
0.616172
0.624223
0.632261
0.64026
0.64819
0.656027
0.663746
0.671334
0.678787
0.686121
0.693381
0.700647
0.708051
0.715798
0.724187
0.733535
0.744097
0.757609
0.777555
0.525203
0.531955
0.538965
0.546088
0.553318
0.560662
0.568112
0.575653
0.583272
0.590952
0.598673
0.606413
0.614147
0.621848
0.629486
0.637033
0.644461
0.651746
0.658872
0.665836
0.672654
0.679372
0.686077
0.692906
0.700074
0.707894
0.716702
0.726782
0.739929
0.759758
0.517149
0.523602
0.530427
0.537343
0.544342
0.551441
0.558634
0.565906
0.573239
0.580617
0.588018
0.595419
0.602792
0.610111
0.617343
0.624458
0.631428
0.638227
0.644839
0.65126
0.657509
0.663635
0.669727
0.675933
0.682477
0.689689
0.697928
0.707513
0.720305
0.740034
0.508248
0.514355
0.52097
0.527653
0.53439
0.541215
0.548119
0.555086
0.562099
0.569137
0.57618
0.5832
0.590172
0.597064
0.603844
0.610481
0.616944
0.623207
0.629254
0.635082
0.640711
0.646193
0.651623
0.657158
0.663034
0.669598
0.677231
0.686283
0.698656
0.718125
0.498508
0.504224
0.510606
0.517029
0.523476
0.529994
0.536578
0.543208
0.549864
0.556527
0.563172
0.569773
0.576301
0.582723
0.589006
0.595118
0.601026
0.606704
0.612136
0.61732
0.622278
0.627066
0.631787
0.636605
0.641768
0.647642
0.65463
0.663111
0.675009
0.694112
0.487941
0.493222
0.499347
0.505486
0.511613
0.517795
0.524026
0.530286
0.536551
0.542802
0.549012
0.555154
0.561197
0.567107
0.572849
0.578389
0.583695
0.588741
0.593509
0.598
0.602238
0.606284
0.610248
0.614302
0.61871
0.623853
0.630156
0.638027
0.649405
0.668065
0.47656
0.481363
0.487208
0.493037
0.498816
0.504631
0.51048
0.516336
0.522178
0.527981
0.53372
0.539364
0.544882
0.550238
0.555396
0.560321
0.564979
0.569345
0.573402
0.577151
0.580622
0.58388
0.58704
0.590287
0.593898
0.598269
0.60385
0.611073
0.621887
0.64004
0.464379
0.468663
0.474206
0.479701
0.485103
0.490523
0.495958
0.50138
0.506764
0.512086
0.517317
0.522427
0.527381
0.532142
0.536674
0.54094
0.544907
0.548548
0.551847
0.55481
0.557467
0.55989
0.562203
0.564601
0.567374
0.570936
0.575756
0.582295
0.592505
0.610092
0.451412
0.455138
0.460359
0.465494
0.470494
0.475489
0.480482
0.485439
0.490334
0.49514
0.49983
0.504368
0.50872
0.512848
0.516714
0.52028
0.523512
0.526383
0.528882
0.531013
0.532813
0.534359
0.535783
0.537291
0.539187
0.541903
0.545928
0.55175
0.561317
0.578284
0.437675
0.440807
0.445685
0.450438
0.455008
0.459552
0.464074
0.468536
0.472911
0.47717
0.481284
0.485216
0.48893
0.492387
0.495548
0.498373
0.50083
0.502891