/*--------------------------------*- C++ -*----------------------------------*\
  =========                 |
  \\      /  F ield         | OpenFOAM: The Open Source CFD Toolbox
   \\    /   O peration     | Website:  https://openfoam.org
    \\  /    A nd           | Version:  6.0
     \\/     M anipulation  |
\*---------------------------------------------------------------------------*/
FoamFile
{
    version     2.0;
    format      ascii;
    class       volVectorField;
    location    "5.75";
    object      U;
}
// * * * * * * * * * * * * * * * * * * * * * * * * * * * * * * * * * * * * * //

dimensions      [0 1 -1 0 0 0 0];

internalField   nonuniform List<vector> 
19200
(
(0.270112 -9.69445 -2.41682e-20)
(0.122202 -9.21989 1.17797e-20)
(0.126732 -8.82744 5.4797e-21)
(0.148129 -8.4966 4.87302e-21)
(0.163359 -8.21086 5.39753e-21)
(0.1803 -7.9569 3.31412e-22)
(0.1989 -7.72509 7.59408e-21)
(0.21773 -7.50864 -5.5148e-22)
(0.236142 -7.30289 6.56459e-21)
(0.253761 -7.10475 2.7166e-21)
(0.270321 -6.91227 2.02005e-23)
(0.285659 -6.72428 4.26014e-21)
(0.299706 -6.54017 6.93476e-21)
(0.312453 -6.35971 -4.68628e-21)
(0.323938 -6.18287 5.93006e-21)
(0.334231 -6.00977 5.05465e-21)
(0.343421 -5.84058 -4.74996e-21)
(0.351607 -5.67549 8.0214e-21)
(0.358896 -5.51468 -5.09779e-21)
(0.365394 -5.35829 2.53492e-21)
(0.371205 -5.20642 3.5206e-21)
(0.37643 -5.0591 -1.1392e-21)
(0.381162 -4.91631 1.53318e-21)
(0.385483 -4.77798 -1.76772e-21)
(0.38947 -4.64396 3.8347e-21)
(0.393181 -4.51407 9.07259e-22)
(0.396659 -4.38809 -6.10379e-22)
(0.399962 -4.26577 3.65113e-22)
(0.403199 -4.14685 8.56958e-22)
(0.40614 -4.03104 3.30505e-21)
(0.523719 -9.68586 -5.41883e-21)
(0.364391 -9.22115 3.60201e-20)
(0.358991 -8.83371 -1.9119e-20)
(0.371958 -8.50635 -2.59974e-20)
(0.379939 -8.22333 -1.16832e-20)
(0.390422 -7.97121 -8.31104e-21)
(0.403084 -7.74046 -1.79809e-20)
(0.41632 -7.52447 2.30733e-21)
(0.429362 -7.31871 -3.73826e-21)
(0.441762 -7.12019 -1.315e-20)
(0.453208 -6.92705 -3.24021e-20)
(0.46352 -6.73824 1.56555e-20)
(0.472616 -6.5532 -5.84018e-21)
(0.480493 -6.37176 2.20855e-21)
(0.487193 -6.19393 -1.31677e-20)
(0.492795 -6.01987 -4.77604e-21)
(0.497397 -5.84976 5.58001e-22)
(0.501107 -5.68382 1.60202e-20)
(0.504039 -5.52224 -8.47415e-21)
(0.506305 -5.36516 -4.67139e-21)
(0.508015 -5.21269 -1.80005e-20)
(0.509269 -5.06487 4.60875e-21)
(0.510163 -4.92166 -2.85789e-21)
(0.510778 -4.78299 5.02987e-21)
(0.511188 -4.64872 -6.27014e-21)
(0.511447 -4.51863 -3.57468e-21)
(0.51159 -4.39251 1.175e-21)
(0.511682 -4.27008 1.79131e-21)
(0.511866 -4.15103 -3.1827e-21)
(0.511806 -4.03507 1.51765e-21)
(0.7771 -9.67121 -2.55503e-21)
(0.606446 -9.21633 7.37614e-21)
(0.591473 -8.83399 1.17805e-20)
(0.596288 -8.51031 9.02263e-20)
(0.597202 -8.23017 -5.19468e-20)
(0.601344 -7.98003 4.74686e-20)
(0.60814 -7.75048 2.91089e-20)
(0.615814 -7.53507 2.25182e-20)
(0.62349 -7.32939 -2.11662e-20)
(0.630652 -7.13058 -2.07519e-21)
(0.636952 -6.93691 5.27535e-20)
(0.642192 -6.74738 8.6703e-21)
(0.64629 -6.56153 -2.40688e-20)
(0.649244 -6.37922 1.8843e-20)
(0.651108 -6.20052 2.59992e-23)
(0.651968 -6.02561 7.89264e-21)
(0.651935 -5.85471 5.62869e-21)
(0.651125 -5.68804 1.87297e-20)
(0.649662 -5.52581 -8.29033e-21)
(0.647662 -5.36817 -2.7203e-21)
(0.64524 -5.21522 -7.01023e-21)
(0.642499 -5.067 3.09089e-20)
(0.639534 -4.9235 -2.57298e-20)
(0.636428 -4.78461 8.33715e-21)
(0.63325 -4.65019 1.89987e-20)
(0.63005 -4.52003 -1.53922e-20)
(0.626855 -4.39387 2.04632e-20)
(0.623734 -4.27143 -2.20941e-21)
(0.620862 -4.15238 -2.29638e-21)
(0.617789 -4.0364 -1.53818e-20)
(1.02998 -9.6502 -8.67198e-20)
(0.848299 -9.20538 -7.72981e-20)
(0.824056 -8.82835 -9.42813e-20)
(0.820975 -8.50853 2.97372e-21)
(0.815003 -8.23142 5.80074e-21)
(0.812925 -7.98339 -1.05149e-19)
(0.813925 -7.75515 4.90133e-21)
(0.816069 -7.54041 1.35086e-20)
(0.818382 -7.33491 -2.39092e-21)
(0.820288 -7.13594 2.27356e-20)
(0.82141 -6.94183 -8.97767e-20)
(0.821537 -6.75169 -5.52095e-20)
(0.820589 -6.56514 2.07092e-20)
(0.818572 -6.38208 4.03097e-20)
(0.815549 -6.20263 -4.67962e-20)
(0.811621 -6.027 -7.27093e-21)
(0.806909 -5.85542 -2.72573e-20)
(0.80154 -5.68815 -1.27283e-20)
(0.795644 -5.52539 2.12115e-20)
(0.789348 -5.3673 -2.7031e-20)
(0.782768 -5.21399 2.33283e-20)
(0.776011 -5.0655 -2.76274e-20)
(0.769173 -4.92181 -2.15271e-20)
(0.762333 -4.78282 -1.53199e-20)
(0.755561 -4.64837 1.76922e-20)
(0.748898 -4.51824 -3.12652e-20)
(0.742364 -4.39217 3.24212e-21)
(0.736034 -4.26984 5.5442e-21)
(0.73011 -4.15089 -1.60256e-20)
(0.724015 -4.035 3.36654e-21)
(1.28227 -9.62278 -5.13573e-20)
(1.08992 -9.18833 7.42097e-21)
(1.05666 -8.8168 6.53832e-20)
(1.0459 -8.50099 6.79895e-20)
(1.03321 -8.22706 4.87337e-20)
(1.02503 -7.98125 2.00838e-20)
(1.0203 -7.75443 3.0808e-20)
(1.01694 -7.54046 1.39999e-19)
(1.0139 -7.33525 -8.39195e-20)
(1.01053 -7.13619 2.47344e-21)
(1.00644 -6.94176 2.00472e-20)
(1.00141 -6.75113 8.4821e-20)
(0.995376 -6.56399 -5.74e-20)
(0.98834 -6.3803 4.08879e-20)
(0.980385 -6.20022 -4.49493e-20)
(0.971624 -6.02399 7.67091e-20)
(0.962191 -5.85187 -2.25513e-20)
(0.952226 -5.68411 8.29909e-22)
(0.941867 -5.52095 3.55976e-20)
(0.931246 -5.36253 2.46776e-20)
(0.920486 -5.20899 -2.51731e-20)
(0.909696 -5.06035 3.37355e-20)
(0.898972 -4.91658 -1.52095e-20)
(0.888392 -4.7776 1.75481e-20)
(0.878022 -4.64324 1.9278e-20)
(0.867897 -4.51326 8.36435e-21)
(0.858029 -4.38738 2.54728e-20)
(0.848497 -4.26528 -9.2751e-21)
(0.839528 -4.14655 -3.10234e-21)
(0.830412 -4.03087 -1.43959e-20)
(1.53384 -9.5889 -3.71766e-20)
(1.3312 -9.16514 -2.43154e-20)
(1.28918 -8.79932 -7.36239e-20)
(1.27095 -8.4877 -1.90687e-19)
(1.2517 -8.21707 6.4277e-20)
(1.23751 -7.9736 4.10548e-21)
(1.22712 -7.74828 -4.28884e-20)
(1.21829 -7.53518 8.17988e-21)
(1.20989 -7.33035 -6.32012e-21)
(1.20123 -7.13132 -1.07044e-19)
(1.1919 -6.93666 4.50578e-20)
(1.18168 -6.74566 7.64907e-20)
(1.17051 -6.55804 2.78327e-22)
(1.15841 -6.37385 2.78742e-20)
(1.14548 -6.19327 6.81667e-20)
(1.13185 -6.01657 -4.66921e-20)
(1.11765 -5.84403 8.14316e-20)
(1.10306 -5.67592 -3.86034e-20)
(1.08821 -5.51247 6.78486e-20)
(1.07324 -5.35386 -5.07505e-20)
(1.05828 -5.2002 2.24603e-20)
(1.04344 -5.05152 5.8211e-20)
(1.02883 -4.90781 3.00256e-21)
(1.0145 -4.76896 -5.35492e-20)
(1.00053 -4.63479 2.9318e-20)
(0.986953 -4.50507 8.87396e-21)
(0.973759 -4.37951 -9.448e-21)
(0.961037 -4.25775 3.58801e-20)
(0.949036 -4.13934 1.24955e-20)
(0.936902 -4.02399 -1.22802e-20)
(1.78452 -9.54856 1.04118e-19)
(1.57201 -9.13581 -2.76218e-21)
(1.5215 -8.77592 -1.49101e-19)
(1.49599 -8.46864 3.05438e-20)
(1.47033 -8.20142 -4.16594e-20)
(1.45025 -7.96039 3.10588e-20)
(1.43425 -7.73668 6.68954e-20)
(1.41998 -7.52454 1.20336e-19)
(1.40622 -7.32019 -1.29134e-19)
(1.39225 -7.12129 3.17447e-20)
(1.37765 -6.92652 -2.16105e-20)
(1.3622 -6.73525 1.57609e-20)
(1.34585 -6.54728 -7.02295e-20)
(1.32865 -6.36271 -4.32959e-21)
(1.3107 -6.18176 1.10779e-19)
(1.29215 -6.00472 -7.64012e-20)
(1.27317 -5.83189 -4.77538e-20)
(1.25392 -5.66356 -3.41737e-20)
(1.23455 -5.49996 6.22516e-20)
(1.21521 -5.34128 1.31892e-20)
(1.19604 -5.18762 -6.03663e-20)
(1.17715 -5.03903 7.97951e-20)
(1.15863 -4.89548 -7.18929e-20)
(1.14056 -4.75687 4.71381e-20)
(1.123 -4.62302 -2.67449e-20)
(1.10597 -4.49368 7.95464e-21)
(1.08946 -4.36854 1.27175e-20)
(1.07357 -4.24723 -5.72128e-20)
(1.05855 -4.12927 2.44999e-20)
(1.04341 -4.01438 3.86336e-22)
(2.03415 -9.50176 -1.01762e-19)
(1.8122 -9.10031 8.25821e-20)
(1.75346 -8.74657 -1.51584e-19)
(1.72088 -8.44378 2.89641e-19)
(1.68897 -8.1801 -8.08688e-20)
(1.66309 -7.9416 1.13735e-19)
(1.64154 -7.71959 -1.91856e-21)
(1.62185 -7.50851 -1.61758e-20)
(1.60273 -7.30474 -2.24497e-20)
(1.58344 -7.10607 -9.72003e-24)
(1.56353 -6.91129 -8.58044e-20)
(1.54282 -6.71987 4.49455e-20)
(1.52126 -6.53168 -5.31954e-20)
(1.49891 -6.34686 -4.31696e-21)
(1.4759 -6.16567 -1.47171e-19)
(1.45241 -5.98842 4.83123e-20)
(1.42861 -5.81543 2.73199e-20)
(1.40467 -5.64701 -3.1112e-20)
(1.38076 -5.48339 -3.68373e-21)
(1.35704 -5.32476 -4.69475e-20)
(1.33364 -5.17123 -1.66657e-20)
(1.31069 -5.02286 1.32947e-21)
(1.28826 -4.87959 -4.02824e-20)
(1.26646 -4.74134 -5.93326e-20)
(1.24531 -4.60792 2.60864e-21)
(1.22485 -4.47907 8.31266e-21)
(1.20504 -4.35447 1.8438e-20)
(1.186 -4.23373 -4.5318e-20)
(1.16799 -4.11633 3.84527e-20)
(1.14986 -4.00202 -7.29154e-20)
(2.28256 -9.44852 -2.51429e-19)
(2.05164 -9.05866 3.00905e-19)
(1.98494 -8.71125 -3.16682e-19)
(1.9455 -8.41311 -8.5022e-20)
(1.90748 -8.15309 -5.37693e-20)
(1.8759 -7.91722 -5.85225e-20)
(1.84886 -7.69699 -5.35063e-20)
(1.82377 -7.48706 -1.18339e-20)
(1.79929 -7.28396 -5.39674e-20)
(1.77465 -7.08563 -1.09663e-20)
(1.74942 -6.89096 8.83925e-20)
(1.7234 -6.69951 -5.12022e-20)
(1.69658 -6.51123 -5.93917e-20)
(1.66905 -6.32628 -9.89054e-20)
(1.64096 -6.14498 2.07307e-19)
(1.61249 -5.96766 -7.90867e-20)
(1.58383 -5.79466 2.93713e-20)
(1.55519 -5.62628 -1.08558e-19)
(1.52672 -5.46277 4.18662e-20)
(1.4986 -5.30432 -1.68102e-20)
(1.47097 -5.15105 2.14428e-20)
(1.44395 -5.003 -7.16497e-21)
(1.41763 -4.86014 6.58074e-20)
(1.39209 -4.72237 -2.32148e-20)
(1.36737 -4.58949 6.39245e-20)
(1.34349 -4.46124 -1.29918e-19)
(1.32041 -4.33731 8.26974e-20)
(1.29824 -4.21725 2.25013e-20)
(1.27726 -4.10052 4.20515e-20)
(1.25616 -3.9869 -1.28645e-19)
(2.52961 -9.38887 3.97063e-19)
(2.29015 -9.01084 -7.67075e-20)
(2.21579 -8.66998 1.35751e-19)
(2.16968 -8.37661 -3.82345e-20)
(2.1257 -8.12035 1.34739e-19)
(2.08852 -7.88721 1.26503e-19)
(2.05604 -7.66886 1.42214e-19)
(2.02558 -7.46016 -1.12711e-20)
(1.99573 -7.25784 -1.34972e-19)
(1.96573 -7.05994 1.97967e-19)
(1.93514 -6.8655 -1.44419e-20)
(1.90379 -6.67415 1.37637e-19)
(1.87168 -6.48589 4.95339e-20)
(1.83894 -6.30096 1.83408e-20)
(1.80572 -6.11969 2.83088e-20)
(1.77225 -5.94243 3.93073e-20)
(1.73872 -5.76955 6.45392e-20)
(1.70534 -5.60135 -1.82801e-20)
(1.67231 -5.43809 9.38955e-20)
(1.63979 -5.27995 4.26906e-20)
(1.60792 -5.12706 -8.89002e-20)
(1.57683 -4.97947 1.56804e-19)
(1.54662 -4.83713 -2.0604e-19)
(1.51735 -4.69995 1.93863e-19)
(1.48907 -4.56773 -6.39745e-20)
(1.46179 -4.44021 -2.60534e-20)
(1.43546 -4.31704 -6.50196e-21)
(1.41019 -4.19778 4.6678e-20)
(1.38629 -4.08184 1.65837e-20)
(1.36224 -3.96905 -1.97539e-20)
(2.77511 -9.32282 -2.25709e-19)
(2.5276 -8.95688 2.17344e-19)
(2.44586 -8.62273 -5.91224e-20)
(2.39329 -8.33428 1.69243e-19)
(2.34351 -8.08189 1.67898e-20)
(2.30082 -7.85156 3.50007e-20)
(2.26295 -7.63517 -2.87109e-19)
(2.22713 -7.4278 -5.04533e-20)
(2.19192 -7.22634 1.82255e-19)
(2.15654 -7.029 1.36526e-19)
(2.12056 -6.8349 -2.32217e-19)
(2.08384 -6.64377 1.3437e-19)
(2.04641 -6.45567 -1.3372e-19)
(2.00842 -6.27089 9.08033e-20)
(1.97006 -6.08978 -1.51749e-19)
(1.93155 -5.91274 -1.11411e-19)
(1.89313 -5.74011 7.45095e-21)
(1.85501 -5.57223 -5.00813e-20)
(1.8174 -5.40935 8.97506e-20)
(1.78046 -5.25166 3.54629e-20)
(1.74436 -5.09928 -2.32826e-20)
(1.70921 -4.95226 -6.71615e-21)
(1.67511 -4.81057 2.6815e-20)
(1.64213 -4.6741 -9.00272e-20)
(1.61032 -4.54265 1.48486e-19)
(1.57966 -4.41596 -3.63565e-20)
(1.55011 -4.29368 -6.13815e-20)
(1.52177 -4.17533 1.2795e-19)
(1.49497 -4.06029 1.68655e-20)
(1.46801 -3.94845 -1.77572e-20)
(3.0189 -9.25042 8.91105e-21)
(2.76382 -8.89678 -1.22683e-19)
(2.67499 -8.56952 -1.1138e-19)
(2.61617 -8.28611 -1.83783e-19)
(2.56073 -8.03768 6.44284e-21)
(2.51263 -7.81024 -1.29909e-19)
(2.46943 -7.5959 1.54313e-19)
(2.42827 -7.38995 -1.53776e-20)
(2.38769 -7.18946 1.21584e-19)
(2.34691 -6.99278 -1.01783e-19)
(2.30552 -6.79914 -5.15236e-20)
(2.2634 -6.60836 2.801e-20)
(2.22063 -6.42056 1.50406e-20)
(2.17736 -6.23607 -1.51079e-19)
(2.13382 -6.05527 8.88786e-20)
(2.09026 -5.87857 -4.32022e-20)
(2.04693 -5.70635 1.23135e-19)
(2.00406 -5.53893 -4.02106e-20)
(1.96186 -5.37656 4.18218e-20)
(1.92051 -5.21945 1.02638e-20)
(1.88017 -5.06771 7.02411e-20)
(1.84096 -4.92139 -1.4436e-20)
(1.80299 -4.78046 1.14342e-19)
(1.76632 -4.64481 -1.27241e-19)
(1.73099 -4.51425 -4.27774e-20)
(1.69698 -4.38851 3.48069e-20)
(1.66424 -4.26722 -3.72574e-21)
(1.63288 -4.1499 -9.4927e-20)
(1.60322 -4.03588 4.8529e-20)
(1.5734 -3.92511 -5.57611e-20)
(3.26083 -9.17171 3.79492e-19)
(2.99865 -8.83056 1.01306e-19)
(2.90304 -8.51035 1.21247e-19)
(2.83819 -8.2321 1.61899e-19)
(2.77724 -7.98771 2.42501e-19)
(2.72382 -7.76326 -7.39022e-21)
(2.67533 -7.55104 3.55589e-20)
(2.62885 -7.34661 2.6615e-19)
(2.5829 -7.14719 -5.51783e-20)
(2.5367 -6.95128 -9.70008e-20)
(2.48987 -6.75822 1.69582e-19)
(2.44233 -6.56792 2.79668e-20)
(2.39417 -6.38055 1.52677e-21)
(2.3456 -6.19649 4.01981e-20)
(2.29687 -6.01615 7.05766e-20)
(2.24824 -5.83995 -1.43829e-19)
(2.19999 -5.66827 1.22195e-19)
(2.15236 -5.50144 2.03096e-20)
(2.10557 -5.33973 1.1719e-19)
(2.0598 -5.18333 -6.36889e-20)
(2.01523 -5.03236 1.03792e-19)
(1.97198 -4.88686 -1.09984e-19)
(1.93015 -4.74681 1.05758e-19)
(1.8898 -4.6121 1.4312e-20)
(1.85098 -4.48255 -7.05942e-20)
(1.81365 -4.35786 -2.26619e-20)
(1.77776 -4.23769 1.33387e-19)
(1.74341 -4.12151 -2.01879e-20)
(1.71094 -4.00862 2.56291e-20)
(1.6783 -3.89905 -1.71266e-20)
(3.50073 -9.08673 3.80675e-20)
(3.23194 -8.75825 8.69404e-20)
(3.12984 -8.44523 3.53219e-19)
(3.05918 -8.17224 -5.76606e-19)
(2.99287 -7.93199 -5.61294e-20)
(2.93422 -7.71059 -6.16417e-20)
(2.88049 -7.50059 2.75332e-20)
(2.82871 -7.29775 3.57038e-20)
(2.77738 -7.0995 5.90707e-20)
(2.72574 -6.90448 -1.58365e-19)
(2.67346 -6.71213 -2.9571e-20)
(2.62047 -6.52244 8.74704e-20)
(2.56691 -6.33565 9.27761e-20)
(2.51301 -6.15216 -9.3174e-20)
(2.45906 -5.97242 -9.02386e-20)
(2.40536 -5.79686 1.47723e-19)
(2.35217 -5.62587 9.48883e-20)
(2.29978 -5.45979 -2.50458e-20)
(2.24839 -5.29887 -6.01847e-20)
(2.19823 -5.14332 1.06034e-20)
(2.14943 -4.99324 -1.36411e-19)
(2.10215 -4.84869 1.63615e-19)
(2.05648 -4.70964 -1.114e-19)
(2.01248 -4.57599 -4.42128e-21)
(1.97018 -4.44754 7.26184e-20)
(1.92957 -4.32403 -2.25127e-20)
(1.89056 -4.20509 -6.75185e-20)
(1.85327 -4.09016 1.06348e-20)
(1.81804 -3.97852 -2.79102e-21)
(1.78263 -3.87027 1.33945e-20)
(3.73843 -8.99553 -2.89834e-20)
(3.46353 -8.67988 -9.17921e-20)
(3.35526 -8.37418 -4.06515e-19)
(3.27899 -8.10655 1.46807e-19)
(3.20746 -7.87051 -4.37051e-20)
(3.14368 -7.65224 1.44639e-19)
(3.08475 -7.44452 1.06076e-20)
(3.02769 -7.24338 -1.63036e-19)
(2.97098 -7.04641 2.45409e-19)
(2.91389 -6.85238 -2.20613e-19)
(2.85612 -6.66088 -8.04519e-21)
(2.79766 -6.47193 5.24606e-20)
(2.73868 -6.28586 -9.02186e-20)
(2.67944 -6.10309 1.01305e-19)
(2.62026 -5.9241 -1.92929e-19)
(2.56146 -5.74933 -4.24894e-20)
(2.50335 -5.57918 1.15553e-19)
(2.44619 -5.41398 2.61894e-22)
(2.39022 -5.254 -7.09799e-20)
(2.33565 -5.09942 1.93032e-19)
(2.28265 -4.95037 -1.03639e-19)
(2.23135 -4.80689 -1.37317e-19)
(2.18185 -4.66896 4.54089e-20)
(2.13422 -4.53648 -1.31348e-19)
(2.08849 -4.40926 -3.11845e-20)
(2.04462 -4.28703 -3.76677e-21)
(2.00253 -4.16942 -8.39038e-20)
(1.96235 -4.05587 1.00629e-19)
(1.92442 -3.94558 -3.5503e-20)
(1.88629 -3.83879 6.05532e-20)
(3.97377 -8.89816 -1.3445e-19)
(3.69326 -8.59547 -3.66305e-19)
(3.57913 -8.29722 1.74883e-19)
(3.49747 -8.03504 -1.65643e-19)
(3.42088 -7.80328 -1.21515e-19)
(3.35204 -7.5882 -6.91689e-20)
(3.28797 -7.38285 -2.54158e-19)
(3.22563 -7.18349 1.72108e-19)
(3.16353 -6.9879 -4.20677e-19)
(3.10098 -6.795 -1.49932e-19)
(3.03772 -6.60446 5.55251e-20)
(2.97376 -6.4164 8.98879e-20)
(2.90933 -6.23118 -2.16467e-21)
(2.84474 -6.04929 -1.68595e-19)
(2.78032 -5.87119 3.92353e-20)
(2.71643 -5.69737 -1.49714e-19)
(2.65338 -5.52821 -1.0645e-19)
(2.59146 -5.36404 -6.28858e-20)
(2.53091 -5.20513 -1.17097e-20)
(2.47196 -5.05167 1.07878e-19)
(2.41476 -4.90377 1.52329e-19)
(2.35946 -4.76148 -4.53684e-20)
(2.30616 -4.62478 -4.30305e-20)
(2.25492 -4.49359 8.36999e-20)
(2.20578 -4.3677 4.61694e-20)
(2.1587 -4.24687 -3.65832e-20)
(2.11358 -4.13071 -4.03619e-20)
(2.07055 -4.01865 4.71347e-21)
(2.02997 -3.90984 3.57616e-20)
(1.9892 -3.80463 -5.40488e-20)
(4.20659 -8.79468 -2.47415e-20)
(3.92098 -8.50508 4.60151e-19)
(3.8013 -8.21437 3.5108e-19)
(3.71446 -7.95772 2.71107e-19)
(3.63295 -7.7303 -1.7589e-19)
(3.55915 -7.51848 -3.50546e-20)
(3.48997 -7.31558 3.25439e-20)
(3.42237 -7.11809 2.17355e-19)
(3.35489 -6.92398 8.09697e-20)
(3.28686 -6.73232 1.94566e-19)
(3.21808 -6.54288 -2.68212e-19)
(3.14861 -6.35585 2.79667e-20)
(3.07873 -6.17164 1.07482e-19)
(3.00877 -5.99077 6.45824e-20)
(2.93911 -5.81373 1.32871e-19)
(2.87012 -5.64099 -9.14059e-20)
(2.80213 -5.47297 -8.31346e-20)
(2.73546 -5.30998 1.65785e-20)
(2.67035 -5.15229 1.74871e-19)
(2.60702 -5.00007 -2.80743e-19)
(2.54565 -4.85345 9.7679e-20)
(2.48637 -4.71248 -5.582e-22)
(2.42929 -4.57714 1.80589e-19)
(2.37447 -4.44733 -7.82836e-20)
(2.32195 -4.32289 -4.4002e-21)
(2.27168 -4.20356 -4.87869e-20)
(2.22357 -4.08897 4.62104e-20)
(2.17775 -3.97851 1.12888e-20)
(2.13459 -3.8713 -5.00921e-20)
(2.09124 -3.76781 2.23343e-19)
(4.43674 -8.68515 -4.88044e-19)
(4.14653 -8.40874 -2.7893e-19)
(4.02163 -8.12567 -7.07267e-19)
(3.92983 -7.87461 -3.16642e-19)
(3.84354 -7.65158 2.9452e-19)
(3.76484 -7.44309 -1.70788e-19)
(3.6906 -7.2427 -3.94121e-20)
(3.61776 -7.04717 -1.10511e-19)
(3.54488 -6.85467 1.86715e-19)
(3.47137 -6.66437 -4.18855e-20)
(3.39705 -6.47616 -6.57615e-20)
(3.32207 -6.2903 -8.168e-21)
(3.24671 -6.10725 -2.6037e-19)
(3.17138 -5.92755 -8.79722e-21)
(3.09647 -5.75172 6.95212e-20)
(3.02238 -5.58023 -7.38323e-21)
(2.94948 -5.41349 -2.59126e-19)
(2.87806 -5.25183 2.50554e-19)
(2.8084 -5.09549 -2.43534e-19)
(2.74072 -4.94466 9.45965e-20)
(2.67519 -4.79945 1.32565e-20)
(2.61195 -4.65991 5.34016e-21)
(2.55111 -4.52603 -9.74264e-20)
(2.49274 -4.39773 3.22557e-20)
(2.43687 -4.27485 -4.60522e-23)
(2.38345 -4.15713 1.03395e-20)
(2.3324 -4.04421 -2.36589e-19)
(2.28384 -3.93546 6.45706e-20)
(2.23815 -3.82997 6.86589e-20)
(2.19231 -3.72833 7.12087e-20)
(4.66406 -8.56964 9.46751e-19)
(4.36976 -8.30649 3.16129e-19)
(4.23995 -8.03115 1.82998e-19)
(4.14341 -7.78573 2.89797e-19)
(4.05247 -7.56714 -3.57691e-20)
(3.96897 -7.36203 2.12569e-19)
(3.88969 -7.16423 4.67853e-19)
(3.81162 -6.97077 -6.04748e-20)
(3.73336 -6.77997 2.54095e-20)
(3.65435 -6.59116 5.31855e-19)
(3.57449 -6.40432 -7.1031e-20)
(3.49396 -6.21978 7.18297e-20)
(3.41314 -6.03804 -2.54201e-20)
(3.33243 -5.85966 -6.93047e-22)
(3.25227 -5.68519 3.64414e-19)
(3.1731 -5.5151 1.40941e-20)
(3.09528 -5.3498 3.79258e-19)
(3.01914 -5.18961 -4.88516e-20)
(2.94494 -5.03477 -8.03772e-20)
(2.87293 -4.88546 1.86697e-19)
(2.80326 -4.74178 -1.6908e-19)
(2.73609 -4.6038 1.84835e-19)
(2.67153 -4.4715 9.86344e-20)
(2.60963 -4.34481 -7.90749e-20)
(2.55043 -4.22358 1.19855e-19)
(2.4939 -4.10757 1.40343e-20)
(2.43994 -3.99644 -4.87122e-20)
(2.3887 -3.88953 2.70088e-20)
(2.34056 -3.78587 1.74632e-19)
(2.29229 -3.68622 2.52877e-20)
(4.88837 -8.44821 -1.6295e-19)
(4.59052 -8.19841 -3.18397e-19)
(4.45614 -7.93085 1.28106e-19)
(4.35506 -7.69112 -5.15963e-19)
(4.2596 -7.47701 2.41316e-19)
(4.17137 -7.27532 -4.38467e-19)
(4.08709 -7.08019 -2.83002e-19)
(4.0038 -6.88888 7.85162e-20)
(3.92015 -6.6999 7.35611e-20)
(3.83563 -6.51272 -3.69293e-19)
(3.75022 -6.32738 -1.56953e-19)
(3.66416 -6.1443 6.96928e-20)
(3.57785 -5.96402 -1.95171e-19)
(3.49177 -5.78713 -7.64098e-20)
(3.40638 -5.61417 -5.06297e-20)
(3.32213 -5.44564 -5.06442e-20)
(3.23941 -5.28192 -2.08189e-19)
(3.15857 -5.12335 -1.28456e-19)
(3.07986 -4.97015 2.39088e-20)
(3.00354 -4.82249 4.15694e-20)
(2.92976 -4.68048 4.29714e-20)
(2.85868 -4.54417 -1.50552e-19)
(2.79041 -4.41356 5.56701e-20)
(2.72501 -4.28858 -1.14978e-19)
(2.66252 -4.1691 1.06589e-19)
(2.60291 -4.05491 -1.40493e-19)
(2.54607 -3.94566 4.30375e-20)
(2.49219 -3.8407 -6.85579e-20)
(2.44166 -3.739 -9.58893e-20)
(2.39107 -3.64149 -9.32406e-21)
(5.10955 -8.32094 -3.40299e-19)
(4.80866 -8.08454 -2.84902e-19)
(4.67003 -7.82482 -2.76017e-19)
(4.56462 -7.5908 -1.99001e-19)
(4.46477 -7.38119 6.13926e-19)
(4.37187 -7.18298 8.35656e-20)
(4.28264 -6.99059 2.56088e-19)
(4.19414 -6.80153 3.86193e-19)
(4.10509 -6.61449 1.8223e-19)
(4.01507 -6.42905 -2.42608e-19)
(3.9241 -6.24537 3.79991e-19)
(3.8325 -6.0639 -3.68397e-19)
(3.74071 -5.88524 3.42119e-19)
(3.64926 -5.70998 3.85943e-20)
(3.55865 -5.5387 8.50763e-20)
(3.46934 -5.37187 2.7778e-20)
(3.38175 -5.2099 3.37157e-19)
(3.29622 -5.05308 -5.01789e-20)
(3.21303 -4.90166 4.38147e-20)
(3.13242 -4.75578 1.46828e-19)
(3.05457 -4.61556 -1.6299e-19)
(2.97961 -4.48104 1.27953e-19)
(2.90765 -4.35222 4.20178e-21)
(2.83877 -4.22906 5.69132e-20)
(2.77301 -4.11143 1.03085e-19)
(2.71034 -3.99914 -1.78563e-20)
(2.65067 -3.89189 1.01021e-19)
(2.5942 -3.78899 1.44383e-19)
(2.54134 -3.68938 -1.5689e-19)
(2.48851 -3.59415 -8.94268e-20)
(5.32743 -8.18791 9.87697e-19)
(5.02405 -7.96495 -1.04872e-19)
(4.88151 -7.71309 2.13183e-19)
(4.77196 -7.4848 3.87009e-19)
(4.66783 -7.27972 -1.09728e-18)
(4.57033 -7.08504 1.16329e-19)
(4.47616 -6.89546 -4.06715e-19)
(4.38247 -6.70875 3.97291e-19)
(4.28803 -6.52377 -3.14666e-19)
(4.1925 -6.34021 1.64461e-19)
(4.09597 -6.15832 -5.99583e-19)
(3.99882 -5.97862 2.07512e-20)
(3.90157 -5.80173 -1.90177e-19)
(3.80477 -5.62827 2.87285e-19)
(3.70895 -5.45881 -3.02746e-19)
(3.61461 -5.29384 -1.6666e-20)
(3.52217 -5.13375 -2.39024e-19)
(3.43198 -4.97884 -1.84384e-20)
(3.34434 -4.82933 1.81855e-20)
(3.25948 -4.68537 5.0727e-20)
(3.17757 -4.54705 -2.86555e-19)
(3.09875 -4.41443 -8.30327e-21)
(3.02313 -4.28751 -1.574e-19)
(2.9508 -4.16626 -3.68359e-20)
(2.88179 -4.05057 -9.49857e-20)
(2.81608 -3.94028 -1.02772e-19)
(2.75361 -3.83511 -1.05734e-19)
(2.69458 -3.73438 1.75229e-19)
(2.63945 -3.63699 4.65208e-20)
(2.58447 -3.54419 -8.57029e-20)
(5.54187 -8.04919 -6.57435e-19)
(5.23656 -7.83971 2.32067e-19)
(5.09043 -7.59573 -3.90062e-19)
(4.97693 -7.37316 5.85156e-20)
(4.86863 -7.17262 6.19004e-19)
(4.76657 -6.98151 -3.11957e-19)
(4.6675 -6.79483 -3.1874e-19)
(4.56862 -6.61056 -2.71434e-19)
(4.4688 -6.42776 1.41429e-20)
(4.36776 -6.24622 1.71017e-19)
(4.26568 -6.06627 -1.21449e-19)
(4.163 -5.88849 7.39155e-21)
(4.06029 -5.71352 3.63427e-19)
(3.95814 -5.54202 -1.82857e-19)
(3.85714 -5.37454 4.5846e-20)
(3.75779 -5.21159 -1.44138e-19)
(3.66054 -5.05353 5.46273e-20)
(3.56573 -4.90067 1.17886e-19)
(3.47368 -4.7532 1.29287e-19)
(3.38459 -4.61128 -1.41661e-19)
(3.29866 -4.47499 2.16525e-20)
(3.21602 -4.34438 1.18881e-19)
(3.13677 -4.21946 2.04405e-19)
(3.06099 -4.1002 5.23535e-20)
(2.98874 -3.98653 -2.07544e-19)
(2.92002 -3.87831 2.39614e-19)
(2.85475 -3.77531 -1.1973e-19)
(2.79319 -3.67686 -1.41481e-19)
(2.73584 -3.5818 -8.64247e-20)
(2.67881 -3.49159 -1.09945e-19)
(5.75274 -7.90489 3.44739e-19)
(5.44608 -7.70891 -2.64773e-19)
(5.29668 -7.47278 1.02879e-19)
(5.17939 -7.2559 5.22434e-19)
(5.067 -7.05991 1.39581e-19)
(4.96044 -6.87243 -1.18423e-19)
(4.85649 -6.68872 2.84714e-19)
(4.75244 -6.50701 6.86445e-20)
(4.64723 -6.32651 2.59751e-19)
(4.54069 -6.14713 1.41513e-19)
(4.43306 -5.96927 6.21492e-21)
(4.32486 -5.79356 8.66911e-20)
(4.21671 -5.62068 -2.72844e-20)
(4.10926 -5.45128 4.67369e-20)
(4.0031 -5.28595 1.26559e-19)
(3.89878 -5.12516 -6.91914e-20)
(3.79674 -4.96928 1.68391e-19)
(3.69736 -4.8186 1.69334e-19)
(3.60093 -4.67331 -1.91562e-19)
(3.50766 -4.53355 1.95564e-19)
(3.41775 -4.3994 4.10356e-19)
(3.33131 -4.2709 -2.63497e-19)
(3.24845 -4.14807 2.61775e-19)
(3.16925 -4.03089 -1.83352e-19)
(3.09378 -3.91931 -2.5447e-20)
(3.02203 -3.81323 1.927e-19)
(2.95397 -3.71247 -3.93454e-20)
(2.88989 -3.61638 1.42999e-19)
(2.83035 -3.52379 1.41051e-19)
(2.77136 -3.43633 -2.64061e-19)
(5.95995 -7.75507 -3.31917e-19)
(5.65251 -7.57261 1.51061e-19)
(5.50013 -7.34427 6.09409e-20)
(5.37918 -7.13305 -6.06605e-19)
(5.26278 -6.94163 -3.09258e-19)
(5.15177 -6.75782 2.28675e-19)
(5.04297 -6.57717 -6.27798e-19)
(4.93376 -6.39813 7.47776e-19)
(4.82318 -6.22006 -4.16509e-19)
(4.71114 -6.04298 4.92963e-20)
(4.59798 -5.86737 -7.92055e-20)
(4.48427 -5.69389 -2.27438e-19)
(4.37071 -5.52325 4.65773e-19)
(4.25797 -5.35612 1.72145e-19)
(4.1467 -5.19308 -1.79701e-19)
(4.03745 -5.0346 4.58356e-21)
(3.93068 -4.88104 9.63708e-20)
(3.82676 -4.73268 -2.0793e-19)
(3.72599 -4.5897 4.37302e-20)
(3.62859 -4.45222 1.40428e-19)
(3.53473 -4.32032 -5.926e-20)
(3.44453 -4.19403 9.4951e-20)
(3.35809 -4.07337 -1.87051e-19)
(3.27549 -3.95833 2.6718e-19)
(3.19679 -3.8489 6.0895e-20)
(3.12201 -3.74501 -1.67719e-19)
(3.05114 -3.64654 -1.43369e-19)
(2.98452 -3.55289 9.32431e-22)
(2.92281 -3.46287 1.95711e-19)
(2.86192 -3.37836 -4.43464e-20)
(6.16342 -7.5998 -9.1064e-20)
(5.85577 -7.43086 -6.15514e-19)
(5.70067 -7.21024 7.30913e-19)
(5.57617 -7.00464 4.87766e-19)
(5.45581 -6.8178 4.7912e-19)
(5.34038 -6.63773 1.29143e-19)
(5.22675 -6.46023 1.95101e-19)
(5.1124 -6.28398 9.70185e-20)
(4.99646 -6.10847 -3.84614e-19)
(4.87894 -5.93383 6.97046e-19)
(4.76026 -5.76062 -5.49929e-19)
(4.64108 -5.58953 -3.46886e-20)
(4.52213 -5.42129 7.94047e-20)
(4.40416 -5.25659 -3.41052e-19)
(4.28781 -5.096 2.96808e-19)
(4.17368 -4.93997 -8.97017e-20)
(4.06222 -4.78888 -2.22933e-19)
(3.95383 -4.64297 8.40651e-20)
(3.84878 -4.50242 -1.63005e-19)
(3.7473 -4.36733 -1.42557e-19)
(3.64954 -4.23778 -1.50172e-19)
(3.55562 -4.11378 3.40162e-20)
(3.46562 -3.99537 1.81848e-20)
(3.37963 -3.88255 -3.59871e-19)
(3.29771 -3.7753 -1.34959e-19)
(3.21988 -3.67363 8.76152e-20)
(3.14616 -3.57747 1.07122e-19)
(3.07695 -3.48628 -1.47496e-19)
(3.013 -3.39892 -5.57661e-20)
(2.95023 -3.31749 4.68081e-21)
(6.36316 -7.43918 -8.15262e-20)
(6.05582 -7.28373 3.98783e-19)
(5.89816 -7.07071 -1.13393e-19)
(5.77019 -6.87068 -1.38282e-19)
(5.64592 -6.68845 -7.39604e-19)
(5.52611 -6.51218 -1.58769e-19)
(5.40768 -6.33794 2.99766e-19)
(5.2882 -6.16459 -1.9587e-19)
(5.16692 -5.99178 -2.03416e-20)
(5.04394 -5.81974 -3.90871e-20)
(4.91977 -5.64908 2.07678e-19)
(4.79514 -5.48055 -3.24673e-19)
(4.67085 -5.31488 -2.13649e-19)
(4.54768 -5.15276 2.47779e-19)
(4.42632 -4.99476 -1.39291e-19)
(4.30736 -4.84135 -1.65841e-19)
(4.19128 -4.69285 3.51692e-19)
(4.07847 -4.54952 -5.58083e-20)
(3.9692 -4.41151 2.01861e-19)
(3.86369 -4.27893 -1.84115e-19)
(3.76209 -4.15181 -1.46365e-19)
(3.66449 -4.0302 1.27322e-19)
(3.57098 -3.91411 -1.47567e-20)
(3.48163 -3.80354 -9.30997e-20)
(3.39649 -3.6985 8.17503e-20)
(3.3156 -3.59905 -2.51445e-19)
(3.23898 -3.50518 1.53436e-19)
(3.16709 -3.41646 -2.48988e-21)
(3.10083 -3.33177 -1.57371e-19)
(3.03621 -3.2534 2.2328e-19)
(6.55947 -7.27344 3.15208e-19)
(6.25272 -7.13131 -7.8042e-19)
(6.09248 -6.92568 -6.35065e-20)
(5.96105 -6.73117 3.52769e-19)
(5.83291 -6.55358 -8.84551e-20)
(5.70875 -6.38122 -2.49275e-19)
(5.58555 -6.21034 1.13573e-19)
(5.46097 -6.04003 1.29756e-19)
(5.33437 -5.87007 1.01252e-20)
(5.20596 -5.70078 1.55622e-19)
(5.07634 -5.53284 4.91265e-19)
(4.94631 -5.36702 -1.72577e-19)
(4.81673 -5.20408 4.21513e-20)
(4.68841 -5.0447 -1.11165e-19)
(4.56209 -4.88945 4.24632e-19)
(4.43837 -4.73879 -7.56351e-20)
(4.31775 -4.59302 2.45601e-19)
(4.20059 -4.4524 -9.46055e-20)
(4.08718 -4.31705 1.00365e-19)
(3.97771 -4.18707 1.50438e-19)
(3.87233 -4.06249 2.51981e-20)
(3.77112 -3.94333 9.91312e-20)
(3.67414 -3.8296 -8.10085e-20)
(3.58145 -3.72132 2.24978e-19)
(3.49311 -3.61851 -9.12427e-20)
(3.40914 -3.52126 3.31308e-19)
(3.32957 -3.42965 -9.56988e-20)
(3.25492 -3.3433 6.51499e-20)
(3.18627 -3.26115 -1.22646e-19)
(3.11992 -3.18596 2.15989e-19)
(6.75312 -7.10286 -6.96445e-19)
(6.44666 -6.97347 2.6593e-20)
(6.28347 -6.775 -3.89368e-19)
(6.14853 -6.58605 6.93611e-20)
(6.01657 -6.41322 1.95836e-20)
(5.88811 -6.24488 -3.27882e-19)
(5.76017 -6.07749 -6.10043e-19)
(5.63053 -5.91036 3.00215e-19)
(5.49866 -5.7434 -4.22497e-19)
(5.36485 -5.57703 -2.18327e-19)
(5.22981 -5.41196 -1.22324e-19)
(5.09442 -5.24902 -9.46294e-20)
(4.95961 -5.08897 9.99629e-22)
(4.82622 -4.93249 -3.37516e-19)
(4.69502 -4.78015 2.14776e-19)
(4.56662 -4.63237 -3.54051e-19)
(4.44152 -4.48948 -8.86303e-20)
(4.32009 -4.35168 9.45798e-20)
(4.20262 -4.2191 1.1797e-19)
(4.08928 -4.09182 1.16079e-19)
(3.98021 -3.96985 8.82803e-20)
(3.87545 -3.85321 -2.20306e-19)
(3.77507 -3.74189 2.1979e-19)
(3.67909 -3.63591 -2.36842e-20)
(3.58755 -3.53532 -5.82052e-20)
(3.50045 -3.44022 -2.28801e-19)
(3.41785 -3.35072 -1.20364e-19)
(3.34024 -3.26644 2.21936e-19)
(3.26877 -3.18664 -7.3242e-20)
(3.20029 -3.11565 -7.02338e-20)
(6.94447 -6.92663 3.05245e-19)
(6.63749 -6.80937 2.98885e-20)
(6.47084 -6.61838 -7.56596e-20)
(6.33235 -6.43535 -1.51254e-20)
(6.19669 -6.26749 -1.30628e-19)
(6.06403 -6.10331 4.43557e-19)
(5.93142 -5.93956 -2.05625e-19)
(5.79677 -5.77575 1.35142e-19)
(5.65964 -5.61193 5.57931e-20)
(5.52048 -5.44862 1.92901e-19)
(5.38008 -5.28659 -7.17606e-20)
(5.2394 -5.12668 4.07669e-19)
(5.09941 -4.96968 -3.44463e-20)
(4.96102 -4.81626 2.56254e-19)
(4.825 -4.66697 -4.25301e-19)
(4.692 -4.52223 -2.99593e-20)
(4.56252 -4.38233 2.69334e-19)
(4.43692 -4.24748 -1.65531e-19)
(4.31548 -4.11778 -1.15282e-19)
(4.19837 -3.99328 -1.96338e-19)
(4.08569 -3.87401 -1.69326e-19)
(3.9775 -3.75994 1.82406e-19)
(3.87381 -3.65106 -1.68399e-19)
(3.77463 -3.54738 3.70092e-20)
(3.67994 -3.44894 1.34857e-19)
(3.58974 -3.35583 9.25985e-20)
(3.50407 -3.26808 8.63782e-20)
(3.42316 -3.18532 6.33724e-20)
(3.34734 -3.10785 -1.713e-19)
(3.2745 -3.04167 -6.85678e-20)
(9.93214 0.0122927 3.90532e-21)
(9.92332 -0.24938 3.78697e-20)
(9.90827 -0.50951 1.31617e-19)
(9.88721 -0.76851 7.16853e-20)
(9.8597 -1.0265 -1.53332e-19)
(9.82552 -1.28343 4.62593e-20)
(9.78465 -1.5392 -4.80597e-20)
(9.7371 -1.79367 -1.22169e-19)
(9.68291 -2.04668 3.16029e-19)
(9.62212 -2.29807 -7.54e-20)
(9.55477 -2.54767 -7.47588e-20)
(9.48091 -2.79532 -1.60881e-19)
(9.40062 -3.04084 -4.64655e-19)
(9.31395 -3.28407 4.28218e-20)
(9.22098 -3.52485 -1.81998e-20)
(9.12178 -3.76301 -1.49856e-19)
(9.01643 -3.9984 3.14457e-19)
(8.90501 -4.23085 1.7319e-19)
(8.78762 -4.46023 3.2914e-19)
(8.66434 -4.68637 1.60712e-19)
(8.53526 -4.90912 -3.67315e-19)
(8.40048 -5.12835 1.50428e-20)
(8.2601 -5.34392 -7.00235e-19)
(8.11424 -5.55569 1.06523e-18)
(7.963 -5.76354 -3.48949e-19)
(7.80651 -5.96735 -4.5911e-19)
(7.64489 -6.16703 -6.79294e-20)
(7.47829 -6.36256 -8.19107e-21)
(7.30683 -6.55398 -3.56648e-19)
(7.13111 -6.7414 6.26689e-19)
(9.79967 -0.126224 1.48956e-20)
(9.78441 -0.383558 2.16154e-20)
(9.76211 -0.63939 4.9457e-21)
(9.73322 -0.893904 -1.91612e-19)
(9.69773 -1.14715 -1.71851e-19)