/*--------------------------------*- C++ -*----------------------------------*\
| =========                 |                                                 |
| \\      /  F ield         | OpenFOAM: The Open Source CFD Toolbox           |
|  \\    /   O peration     | Version:  v1912                                 |
|   \\  /    A nd           | Website:  www.openfoam.com                      |
|    \\/     M anipulation  |                                                 |
\*---------------------------------------------------------------------------*/
FoamFile
{
    version     2.0;
    format      ascii;
    class       surfaceScalarField;
    location    "28.5";
    object      phi;
}
// * * * * * * * * * * * * * * * * * * * * * * * * * * * * * * * * * * * * * //

dimensions      [0 3 -1 0 0 0 0];
oriented        oriented;


internalField   nonuniform List<scalar> 
18940
(
0.000352211
-0.234469
0.234117
0.0013574
-0.216506
0.215501
0.00283899
-0.204973
0.203491
0.0046286
-0.197152
0.195363
0.00659733
-0.191341
0.189372
0.00864494
-0.186484
0.184436
0.0106988
-0.181999
0.179945
0.01271
-0.177595
0.175584
0.0146492
-0.173149
0.17121
0.0165011
-0.168633
0.166781
0.0182611
-0.164068
0.162308
0.0199316
-0.159496
0.157826
0.0215197
-0.154964
0.153376
0.023035
-0.150514
0.148999
0.0244885
-0.146183
0.14473
0.0258919
-0.141995
0.140592
0.0272564
-0.137961
0.136596
0.0285925
-0.134078
0.132742
0.0299085
-0.130327
0.129011
-0.126668
0.125367
0.0312095
0.000375514
-0.234845
0.00140053
-0.217531
0.00289281
-0.206465
0.00468697
-0.198947
0.00665061
-0.193305
0.00868355
-0.188517
0.0107143
-0.18403
0.0126958
-0.179577
0.0146002
-0.175054
0.0164141
-0.170447
0.0181345
-0.165789
0.019765
-0.161127
0.0213138
-0.156512
0.022791
-0.151992
0.0242082
-0.147601
0.0255772
-0.143364
0.0269097
-0.139293
0.0282163
-0.135385
0.0295059
-0.131617
-0.127947
0.0307844
0.000396843
-0.235241
0.00143803
-0.218572
0.00293911
-0.207966
0.00473411
-0.200742
0.00668909
-0.19526
0.00870377
-0.190532
0.0107079
-0.186034
0.0126561
-0.181525
0.0145226
-0.17692
0.0162958
-0.17222
0.0179741
-0.167467
0.0195626
-0.162715
0.0210702
-0.15802
0.0225077
-0.153429
0.0238871
-0.14898
0.0252205
-0.144697
0.0265196
-0.140592
0.0277955
-0.13666
0.0290575
-0.132879
-0.129201
0.0303121
0.000410633
-0.235652
0.00146684
-0.219629
0.00297595
-0.209475
0.0047693
-0.202535
0.0067123
-0.197203
0.00870521
-0.192524
0.0106793
-0.188008
0.012591
-0.183437
0.0144167
-0.178746
0.0161465
-0.17395
0.0177806
-0.169101
0.0193251
-0.16426
0.0207899
-0.159485
0.0221864
-0.154826
0.0235268
-0.15032
0.0248233
-0.145994
0.026088
-0.141857
0.0273321
-0.137905
0.0285654
-0.134112
-0.130432
0.0297955
0.000421838
-0.236074
0.00149034
-0.220697
0.00300466
-0.210989
0.00479317
-0.204323
0.0067207
-0.19913
0.00868833
-0.194492
0.0106289
-0.189949
0.0125012
-0.185309
0.0142832
-0.180528
0.0159673
-0.175634
0.017555
-0.170689
0.0190538
-0.165759
0.0204743
-0.160905
0.0218284
-0.15618
0.0231286
-0.151621
0.0243873
-0.147252
0.0256165
-0.143086
0.0268278
-0.139116
0.0280316
-0.135316
-0.131636
0.0292365
0.000430885
-0.236505
0.0015089
-0.221775
0.00302551
-0.212506
0.00480594
-0.206104
0.00671458
-0.201039
0.0086535
-0.196431
0.0105574
-0.191853
0.0123871
-0.187139
0.0141228
-0.182264
0.0157588
-0.17727
0.0172983
-0.172228
0.0187497
-0.16721
0.0201244
-0.16228
0.021435
-0.15749
0.0226939
-0.152879
0.0239136
-0.148472
0.0251063
-0.144279
0.0262838
-0.140293
0.0274573
-0.136489
-0.132815
0.0286361
0.00043834
-0.236943
0.00152323
-0.22286
0.00303906
-0.214022
0.00480811
-0.207873
0.00669442
-0.202925
0.00860127
-0.198338
0.0104653
-0.193717
0.0122496
-0.188923
0.0139365
-0.18395
0.0155223
-0.178856
0.0170115
-0.173718
0.0184139
-0.168612
0.0197415
-0.163607
0.0210071
-0.158756
0.0222235
-0.154096
0.0234032
-0.149652
0.0245583
-0.145434
0.0257011
-0.141436
0.0268431
-0.137631
-0.133967
0.027995
0.000444358
-0.237388
0.00153364
-0.223949
0.00304571
-0.215534
0.00480012
-0.209627
0.00666078
-0.204786
0.00853231
-0.200209
0.0103535
-0.195538
0.0120895
-0.190659
0.0137253
-0.185586
0.0152586
-0.180389
0.0166957
-0.175155
0.0180474
-0.169964
0.0193264
-0.164886
0.0205458
-0.159975
0.0217185
-0.155269
0.0228568
-0.15079
0.0239731
-0.14655
0.0250797
-0.142543
0.0261891
-0.138741
-0.135091
0.027313
0.000449044
-0.237837
0.00154042
-0.225041
0.00304589
-0.217039
0.00478253
-0.211364
0.00661433
-0.206618
0.00844743
-0.202042
0.0102228
-0.197313
0.0119081
-0.192344
0.0134902
-0.187168
0.014969
-0.181868
0.0163521
-0.176538
0.0176514
-0.171263
0.0188802
-0.166115
0.020052
-0.161147
0.0211794
-0.156396
0.022275
-0.151886
0.0233508
-0.147626
0.0244196
-0.143612
0.0254946
-0.139816
-0.136185
0.026589
0.000452473
-0.238289
0.00154383
-0.226132
0.00304007
-0.218536
0.00475597
-0.21308
0.00655584
-0.208417
0.00834755
-0.203834
0.0100743
-0.19904
0.0117063
-0.193976
0.0132326
-0.188695
0.0146548
-0.18329
0.0159821
-0.177865
0.0172272
-0.172508
0.0184041
-0.167292
0.0195264
-0.162269
0.0206069
-0.157477
0.0216578
-0.152936
0.0226911
-0.148659
0.02372
-0.14464
0.0247585
-0.140854
-0.137248
0.0258213
0.000454749
-0.238744
0.00154424
-0.227222
0.00302882
-0.22002
0.00472119
-0.214772
0.00648626
-0.210183
0.00823379
-0.205582
0.00990944
-0.200716
0.0114857
-0.195552
0.012954
-0.190163
0.0143176
-0.184654
0.0155871
-0.179135
0.0167761
-0.173697
0.0178991
-0.168415
0.01897
-0.16334
0.0200015
-0.158508
0.0210054
-0.15394
0.0219938
-0.149648
0.0229798
-0.145627
0.0239787
-0.141853
-0.138277
0.0250072
0.000456026
-0.2392
0.00154208
-0.228308
0.00301282
-0.221491
0.00467908
-0.216439
0.00640667
-0.21191
0.00810745
-0.207282
0.00972956
-0.202338
0.011248
-0.197071
0.0126561
-0.191571
0.0139592
-0.185957
0.015169
-0.180344
0.0162999
-0.174828
0.0173669
-0.169482
0.0183841
-0.164357
0.019364
-0.159488
0.0203181
-0.154895
0.0212583
-0.150588
0.0221979
-0.146566
0.0231533
-0.142808
-0.139267
0.0241435
0.000456583
-0.239656
0.00153796
-0.229389
0.0029929
-0.222946
0.00463068
-0.218076
0.00631835
-0.213598
0.00797004
-0.208934
0.00953646
-0.203904
0.010995
-0.198529
0.0123412
-0.192917
0.0135819
-0.187198
0.0147299
-0.181492
0.0158006
-0.175899
0.0168093
-0.170491
0.01777
-0.165318
0.0186953
-0.160413
0.0195963
-0.155795
0.0204843
-0.151476
0.0213729
-0.147455
0.0222798
-0.143715
-0.140213
0.0232263
0.000456896
-0.240113
0.00153274
-0.230465
0.0029701
-0.224383
0.00457723
-0.219683
0.00622275
-0.215243
0.00782329
-0.210535
0.00933212
-0.205413
0.010729
-0.199926
0.0120116
-0.1942
0.0131882
-0.188374
0.0142727
-0.182577
0.015281
-0.176907
0.0162287
-0.171439
0.01713
-0.166219
0.0179969
-0.16128
0.0188403
-0.156639
0.0196712
-0.152307
0.0205029
-0.148286
0.0213541
-0.144566
-0.141109
0.0222494
0.000457764
-0.240571
0.00152756
-0.231535
0.00294565
-0.225801
0.00452006
-0.221258
0.00612146
-0.216845
0.00766907
-0.212082
0.00911878
-0.206863
0.0104527
-0.20126
0.0116705
-0.195418
0.0127816
-0.189486
0.013801
-0.183596
0.0147449
-0.177851
0.0156291
-0.172323
0.0164673
-0.167058
0.0172715
-0.162084
0.0180519
-0.157419
0.0188188
-0.153074
0.0195851
-0.149053
0.0203703
-0.145352
-0.141943
0.0212045
0.000460333
-0.241031
0.00152374
-0.232598
0.00292072
-0.227198
0.00446053
-0.222798
0.00601615
-0.2184
0.00750943
-0.213576
0.00889888
-0.208252
0.010169
-0.20253
0.011321
-0.19657
0.012366
-0.190531
0.0133192
-0.184549
0.0141973
-0.178729
0.0150157
-0.173141
0.0157879
-0.16783
0.016525
-0.162821
0.0172364
-0.158131
0.0179312
-0.153768
0.0186212
-0.149743
0.0193273
-0.146058
-0.142704
0.0200882
0.00046599
-0.241497
0.00152258
-0.233655
0.00289663
-0.228572
0.00440018
-0.224301
0.00590865
-0.219909
0.00734652
-0.215013
0.00867501
-0.209581
0.00988088
-0.203736
0.0109671
-0.197656
0.0119457
-0.191509
0.0128325
-0.185436
0.0136439
-0.179541
0.014395
-0.173892
0.0150988
-0.168534
0.0157654
-0.163488
0.016403
-0.158768
0.0170191
-0.154384
0.0176238
-0.150347
0.0182377
-0.146672
-0.143367
0.018901
0.000477065
-0.241974
0.0015267
-0.234704
0.00287584
-0.229921
0.0043411
-0.225766
0.00580089
-0.221369
0.00718245
-0.216395
0.00844969
-0.210848
0.00959161
-0.204878
0.0106127
-0.198677
0.0115258
-0.192422
0.0123467
-0.186257
0.0130915
-0.180286
0.0137744
-0.174575
0.0144071
-0.169166
0.0149986
-0.164079
0.0155561
-0.159326
0.0160861
-0.154914
0.0165951
-0.150856
0.017096
-0.147173
-0.143885
0.0176134
0.000501138
-0.242476
0.00154331
-0.235746
0.0028624
-0.231241
0.00428519
-0.227189
0.00569408
-0.222777
0.00701859
-0.21772
0.00822492
-0.212054
0.00930407
-0.205957
0.010262
-0.199635
0.011112
-0.193272
0.0118699
-0.187015
0.0125508
-0.180966
0.0131668
-0.175191
0.0137271
-0.169727
0.0142373
-0.16459
0.014701
-0.15979
0.01512
-0.155333
0.0154932
-0.15123
0.015825
-0.147504
-0.144237
0.0161779
0.000558322
-0.243034
0.00158077
-0.236769
0.00285603
-0.232516
0.00423124
-0.228564
0.00558774
-0.224134
0.00685534
-0.218987
0.00800194
-0.213201
0.00902052
-0.206976
0.00991846
-0.200533
0.01071
-0.194064
0.0114109
-0.187716
0.0120355
-0.181591
0.0125942
-0.17575
0.0130925
-0.170225
0.0135302
-0.165027
0.0139
-0.160159
0.0141851
-0.155619
0.0143595
-0.151404
0.0144176
-0.147563
-0.144406
0.014586
0.250634
0.000411591
-0.251046
0.250249
0.000385143
0.249871
0.000377787
0.249494
0.00037784
0.249113
0.000380709
0.248728
0.000385045
0.248338
0.000390122
0.247942
0.000395351
0.247542
0.00040034
0.247137
0.000404883
0.246728
0.000408882
0.246316
0.000412311
0.245901
0.000415151
0.245483
0.000417378
0.245065
0.000418867
0.244645
0.00041941
0.244227
0.00041796
0.243813
0.000413966
0.243415
0.00039823
0.000381011
0.252445
0.00101425
-0.253048
0.251807
0.00102302
0.251141
0.00104373
0.250449
0.00107037
0.249731
0.00109838
0.24899
0.00112641
0.248226
0.00115399
0.24744
0.00118062
0.246635
0.00120587
0.24581
0.00122949
0.244968
0.00125136
0.244109
0.00127145
0.243234
0.00128976
0.242345
0.00130628
0.241443
0.00132087
0.240529
0.00133331
0.239605
0.00134251
0.23867
0.00134818
0.237725
0.00134404
0.00133673
0.251108
0.0015805
-0.251675
0.250478
0.00165358
0.249795
0.00172689
0.249064
0.00180133
0.248287
0.00187453
0.247469
0.00194529
0.246609
0.00201328
0.245712
0.00207824
0.244778
0.00213996
0.243809
0.00219824
0.242807
0.00225306
0.241774
0.00230444
0.240711
0.00235247
0.23962
0.00239725
0.238502
0.0024388
0.237359
0.00247713
0.236189
0.00251174
0.234995
0.00254285
0.233771
0.00256808
0.00259162
0.246925
0.00201983
-0.247364
0.246417
0.00216201
0.245844
0.0022996
0.245211
0.00243403
0.244521
0.00256464
0.243776
0.00269064
0.242977
0.00281168
0.242128
0.00292761
0.24123
0.00303827
0.240284
0.00314359
0.239294
0.00324358
0.23826
0.00333836
0.237184
0.00342813
0.236068
0.00351317
0.234913
0.00359374
0.23372
0.0036702
0.232489
0.00374263
0.231221
0.00381166
0.229912
0.00387656
0.00393933
0.24063
0.00229669
-0.240907
0.240283
0.00250958
0.239866
0.00271572
0.239385
0.00291596
0.238839
0.00311026
0.238231
0.00329815
0.237564
0.00347928
0.236838
0.00365348
0.236056
0.00382061
0.235219
0.00398062
0.234329
0.0041336
0.233387
0.00427971
0.232396
0.00441929
0.231356
0.00455279
0.230269
0.00468073
0.229136
0.0048038
0.227956
0.00492259
0.226729
0.00503805
0.225456
0.00515033
0.00526108
0.233006
0.00241952
-0.233129
0.232813
0.00270242
0.232551
0.00297742
0.232223
0.00324482
0.231828
0.00350465
0.23137
0.0037566
0.230849
0.00400034
0.230267
0.00423562
0.229625
0.00446231
0.228925
0.00468037
0.228169
0.00488988
0.227357
0.00509109
0.226492
0.00528443
0.225575
0.00547051
0.224605
0.00565013
0.223585
0.0058243
0.222513
0.00599406
0.221391
0.00616078
0.220216
0.0063253
0.00648947
0.224747
0.0024184
-0.224746
0.224681
0.0027688
0.224548
0.00311055
0.224349
0.00344358
0.224086
0.00376781
0.223759
0.00408296
0.223371
0.00438869
0.222922
0.00468471
0.222413
0.00497083
0.221847
0.00524701
0.221223
0.00551332
0.220544
0.00577005
0.219811
0.00601771
0.219025
0.00625707
0.218186
0.00648917
0.217294
0.00671537
0.216351
0.00693721
0.215356
0.00715657
0.214306
0.00737497
0.00759455
0.216375
0.00232906
-0.216285
0.2164
0.00274345
0.216362
0.0031486
0.216261
0.00354421
0.216099
0.00393005
0.215876
0.0043058
0.215594
0.00467109
0.215253
0.00502557
0.214855
0.005369
0.214401
0.00570128
0.213891
0.00602246
0.213329
0.00633284
0.212713
0.00663299
0.212047
0.0069238
0.211329
0.00720657
0.210562
0.00748303
0.209744
0.00775526
0.208874
0.00802576
0.207953
0.00829685
0.00857121
0.208232
0.00218437
-0.208087
0.208316
0.00265903
0.208341
0.00312387
0.208307
0.00357846
0.208214
0.00402246
0.208065
0.00445548
0.207859
0.00487706
0.207597
0.0052868
0.207282
0.00568439
0.206914
0.00606964
0.206494
0.00644256
0.206023
0.0068034
0.205503
0.00715275
0.204935
0.00749162
0.204321
0.00782153
0.203659
0.00814457
0.202951
0.00846347
0.202195
0.00878146
0.20139
0.00910195
0.00942845
0.200517
0.00201104
-0.200343
0.200633
0.00254242
0.200694
0.00306342
0.200699
0.00357349
0.200649
0.00407218
0.200546
0.00455902
0.200389
0.00503348
0.200181
0.00549505
0.199922
0.00594334
0.199614
0.00637806
0.199257
0.00679912
0.198854
0.00720669
0.198405
0.00760131
0.197913
0.00798402
0.197378
0.00835655
0.196801
0.00872131
0.196183
0.00908179
0.195522
0.00944208
0.194817
0.0098071
0.0101816
0.193322
0.00182873
-0.19314
0.193451
0.00241376
0.193526
0.00298783
0.19355
0.00355028
0.193521
0.00410055
0.193442
0.00463808
0.193313
0.00516225
0.193136
0.00567244
0.192911
0.00616815
0.19264
0.00664895
0.192325
0.00711461
0.191966
0.00756515
0.191567
0.00800101
0.191128
0.00842311
0.190651
0.00883334
0.190138
0.00923432
0.189589
0.00963043
0.189005
0.0100266
0.188382
0.0104301
0.0108472
0.186671
0.00165075
-0.186493
0.186798
0.00228695
0.186874
0.00291159
0.1869
0.00352386
0.186878
0.00412311
0.186807
0.00470868
0.18669
0.00527984
0.186526
0.00583588
0.186318
0.00637615
0.186067
0.00690004
0.185775
0.00740715
0.185443
0.00789724
0.185073
0.00837056
0.184668
0.00882777
0.184231
0.00927079
0.183763
0.00970219
0.183266
0.0101275
0.18274
0.0105522
0.182184
0.0109869
0.0114399
0.180544
0.00148541
-0.180379
0.18066
0.00217095
0.180727
0.0028442
0.180747
0.00350423
0.18072
0.00415037
0.180647
0.00478184
0.180529
0.00539781
0.180367
0.00599744
0.180163
0.00657992
0.179919
0.00714444
0.179636
0.00769036
0.179316
0.00821711
0.178962
0.00872462
0.178577
0.00921307
0.178163
0.00968429
0.177725
0.0101403
0.177265
0.0105879
0.176784
0.0110325
0.176281
0.0114903
0.0119707
0.1749
0.00133754
-0.174752
0.175
0.00207092
0.175053
0.00279122
0.175059
0.00349748
0.175021
0.0041889
0.174938
0.0048646
0.174812
0.00552365
0.174645
0.00616509
0.174437
0.00678794
0.17419
0.00739116
0.173906
0.00797382
0.173589
0.00853494
0.173239
0.00907399
0.172862
0.00959044
0.17246
0.0100858
0.17204
0.0105606
0.171604
0.0110237
0.171159
0.011478
0.170699
0.0119496
0.0124452
0.169686
0.00120945
-0.169558
0.169768
0.00198959
0.169803
0.00275571
0.169794
0.00350691
0.16974
0.00424229
0.169644
0.00496089
0.169506
0.00566167
0.169328
0.00634354
0.16911
0.00700533
0.168856
0.00764579
0.168566
0.00826363
0.168243
0.00885743
0.167891
0.00942606
0.167514
0.00996796
0.167115
0.010484
0.166704
0.0109725
0.166283
0.0114441
0.165865
0.0118957
0.165445
0.0123705
0.0128624
0.16485
0.00110195
-0.164743
0.164912
0.00192776
0.164929
0.00273866
0.164902
0.00353373
0.164832
0.00431197
0.164721
0.00507235
0.164569
0.00581372
0.164378
0.00653489
0.164148
0.00723449
0.163883
0.00791106
0.163584
0.00856296
0.163253
0.00918825
0.162894
0.00978513
0.162511
0.0103508
0.16211
0.010885
0.1617
0.0113825
0.161288
0.0118564
0.160893
0.0122905
0.160507
0.0127566
0.0132102
0.160339
0.00101454
-0.160252
0.160382
0.001885
0.160381
0.00273969
0.160337
0.00357758
0.160251
0.00439764
0.160125
0.00519873
0.159959
0.00597964
0.159755
0.00673904
0.159514
0.00747545
0.159238
0.00818715
0.158929
0.00887221
0.158589
0.00952818
0.158221
0.0101525
0.157831
0.010741
0.157424
0.011292
0.157012
0.011795
0.156602
0.0122656
0.156228
0.0126651
0.155872
0.0131126
0.0134632
0.156107
0.000945421
-0.156038
0.156132
0.00185978
0.156115
0.00275711
0.156056
0.00363669
0.155956
0.00449738
0.155817
0.00533796
0.155639
0.00615719
0.155424
0.00695366
0.155174
0.00772573
0.15489
0.00847152
0.154573
0.00918881
0.154227
0.00987476
0.153853
0.0105261
0.153457
0.0111373
0.153044
0.011705
0.152627
0.012212
0.152217
0.012675
0.151864
0.013019
0.151532
0.0134445
0.0135909
0.152111
0.000892678
-0.152058
0.152121
0.00184928
0.152091
0.00278775
0.15202
0.0037075
0.15191
0.0046072
0.151762
0.00548564
0.151578
0.00634156
0.151358
0.00717346
0.151104
0.00797962
0.150818
0.00875802
0.1505
0.00950627
0.150154
0.0102212
0.149781
0.0108991
0.149385
0.0115332
0.148971
0.0121189
0.148552
0.0126316
0.148139
0.0130879
0.147806
0.0133521
0.147514
0.0137358
0.0135427
0.148312
-0.148274
0.00085471
0.148312
0.00184958
0.148272
0.00282726
0.148195
0.00378496
0.148081
0.0047213
0.147931
0.0056352
0.147747
0.00652536
0.147531
0.00739026
0.147282
0.00822811
0.147003
0.00903682
0.146696
0.00981393
0.146361
0.0105561
0.146
0.0112595
0.145617
0.0119163
0.145214
0.0125222
0.1448
0.013046
0.144379
0.0135081
0.144031
0.013701
0.143774
0.0139919
0.0129113
0.25423
7.39315e-05
-0.254304
0.254194
3.60276e-05
0.254162
3.19646e-05
0.254122
4.06806e-05
0.254067
5.49034e-05
0.253994
7.25511e-05
0.253902
9.23218e-05
0.253789
0.000113094
0.253655
0.000134056
0.2535
0.000154706
0.253325
0.000174605
0.253132
0.00019346
0.25292
0.000211707
0.25269
0.000230346
0.252442
0.00024755
0.25218
0.000262659
0.251904
0.000275226
0.251619
0.000285177
0.251333
0.000286669
0.000286584
0.255929
-0.000238987
-0.255616
0.256181
-0.00021586
0.256388
-0.000175666
0.256552
-0.000122579
0.25667
-6.31195e-05
0.256742
1.10066e-07
0.256768
6.59673e-05
0.256748
0.00013336
0.256681
0.00020138
0.256566
0.000269117
0.256406
0.000335313
0.2562
0.000398777
0.255954
0.000458346
0.25566
0.000524137
0.255322
0.000585721
0.254942
0.00064248
0.254523
0.000694499
0.254066
0.000741755
0.253573
0.000779581
0.000812179
0.251281
-0.00089005
-0.25063
0.251859
-0.000794475
0.252373
-0.000689067
0.252824
-0.000573964
0.253214
-0.000452681
0.253541
-0.000327456
0.253807
-0.000199432
0.25401
-7.00543e-05
0.254151
6.07035e-05
0.254228
0.00019244
0.254242
0.000321156
0.254194
0.000446455
0.254082
0.000570604
0.253912
0.000694297
0.253683
0.000814187
0.253396
0.000929113
0.253052
0.00103854
0.252652
0.00114238
0.252193
0.00123871
0.00133033
0.24293
-0.00181704
-0.242003
0.243785
-0.00164935
0.24457
-0.00147442
0.245288
-0.00129148
0.245937
-0.00110221
0.246518
-0.000908405
0.24703
-0.000711407
0.247473
-0.000512473
0.247846
-0.000312285
0.248146
-0.000108181
0.248375
9.20952e-05
0.248537
0.000284925
0.248628
0.00047978
0.24865
0.000671622
0.248605
0.00085946
0.248492
0.00104239
0.248311
0.00121962
0.248062
0.00139076
0.247746
0.00155477
0.00171221
0.232842
-0.00294076
-0.231718
0.233898
-0.00270551
0.234886
-0.00246278
0.235807
-0.00221213
0.236659
-0.00195445
0.237442
-0.00169124
0.238154
-0.0014239
0.238796
-0.00115366
0.239365
-0.00088147
0.239865
-0.000608106
0.240294
-0.00033671
0.240647
-6.88426e-05
0.240929
0.00019766
0.24114
0.000460851
0.241279
0.000720376
0.241347
0.000974811
0.241343
0.0012234
0.241268
0.00146552
0.241123
0.00170038
0.00192789
0.222289
-0.00418968
-0.22104
0.223475
-0.00389175
0.224597
-0.00358476
0.225654
-0.00326887
0.226644
-0.00294486
0.227567
-0.00261416
0.228421
-0.00227831
0.229207
-0.00193879
0.229922
-0.00159701
0.230568
-0.00125432
0.231144
-0.000912266
0.231647
-0.000572151
0.23208
-0.000234832
0.232442
9.81041e-05
0.232735
0.000428236
0.232955
0.000754447
0.233104
0.00107399
0.233183
0.00138682
0.233191
0.00169229
0.00199018
0.212046
-0.0055069
-0.210729
0.213305
-0.00515045
0.214503
-0.00478284
0.215639
-0.00440472
0.216711
-0.0040171
0.217718
-0.00362158
0.21866
-0.00321997
0.219535
-0.00281398
0.220343
-0.00240525
0.221084
-0.00199524
0.221757
-0.00158534
0.222362
-0.00117697
0.222898
-0.000770915
0.223364
-0.000367911
0.223768
2.42099e-05
0.224101
0.000422192
0.224364
0.000810416
0.22456
0.0011914
0.224687
0.00156504
0.00193093
0.20252
-0.00685112
-0.201175
0.203809
-0.00643946
0.20504
-0.00601426
0.206212
-0.00557653
0.207323
-0.00512772
0.208371
-0.00466983
0.209356
-0.00420497
0.210277
-0.00373514
0.211134
-0.00326218
0.211926
-0.00278768
0.212654
-0.00231313
0.213317
-0.00183989
0.213915
-0.00136903
0.214449
-0.000901527
0.214912
-0.000438758
0.215321
1.3286e-05
0.215658
0.00047281
0.215932
0.000917668
0.216141
0.00135602
0.00178652
0.193867
-0.00819484
-0.192523
0.195158
-0.00773052
0.196394
-0.00724997
0.197572
-0.0067545
0.19869
-0.00624625
0.199748
-0.00572778
0.200745
-0.00520164
0.20168
-0.00467013
0.202553
-0.00413532
0.203364
-0.00359896
0.204114
-0.00306259
0.204802
-0.00252755
0.205428
-0.00199501
0.205992
-0.00146591
0.206495
-0.000941665
0.206932
-0.00042355
0.207315
8.98951e-05
0.207633
0.000599221
0.207891
0.00109846
0.00158989
0.186097
-0.00952149
-0.18477
0.187372
-0.00900648
0.188595
-0.00847206
0.18976
-0.00791992
0.190867
-0.00735317
0.191914
-0.00677522
0.192902
-0.00618911
0.193829
-0.00559752
0.194697
-0.00500272
0.195504
-0.0044066
0.196252
-0.00381075
0.196941
-0.00321647
0.197571
-0.00262491
0.198142
-0.00203703
0.198655
-0.00145386
0.199107
-0.000876289
0.199502
-0.000305071
0.199841
0.000260213
0.200121
0.000818578
0.00136751
0.179138
-0.0108225
-0.177837
0.18039
-0.0102585
0.181589
-0.009671
0.182731
-0.00906241
0.183815
-0.00843738
0.18484
-0.00780037
0.185806
-0.00715501
0.186713
-0.00650436
0.187561
-0.00585094
0.188352
-0.0051967
0.189084
-0.00454321
0.189759
-0.00389171
0.190378
-0.0032433
0.190939
-0.0025989
0.191445
-0.00195936
0.191894
-0.00132556
0.192287
-0.000698024
0.192627
-7.97015e-05
0.192911
0.000534758
0.00113852
0.172888
-0.0120947
-0.171616
0.174113
-0.0114836
0.175285
-0.0108432
0.1764
-0.0101776
0.177457
-0.00949379
0.178454
-0.00879756
0.179392
-0.00809314
0.180272
-0.00738402
0.181094
-0.00667289
0.181859
-0.00596173
0.182567
-0.00525199
0.183221
-0.00454486
0.183819
-0.00384128
0.184362
-0.00314214
0.184851
-0.00244821
0.185285
-0.00176033
0.185667
-0.00107926
0.185994
-0.000406574
0.18627
0.000257895
0.000915928
0.167239
-0.0133392
-0.165995
0.168439
-0.0126832
0.169585
-0.0119892
0.170672
-0.011265
0.1717
-0.0105214
0.172668
-0.00976524
0.173576
-0.00900147
0.174426
-0.00823404
0.175219
-0.00746575
0.175955
-0.00669846
0.176637
-0.0059335
0.177264
-0.00517186
0.177837
-0.0044144
0.178357
-0.00366187
0.178824
-0.002915
0.179238
-0.00217461
0.1796
-0.00144119
0.179909
-0.000715483
0.180171
-4.25193e-06
0.000708055
0.162093
-0.0145596
-0.160873
0.163272
-0.0138621
0.164395
-0.0131125
0.165457
-0.0123273
0.166458
-0.011522
0.167397
-0.0107044
0.168276
-0.00988039
0.169096
-0.00905435
0.16986
-0.00822903
0.170567
-0.00740606
0.17122
-0.00658653
0.17182
-0.00577122
0.172366
-0.00496079
0.17286
-0.00415588
0.173302
-0.00335716
0.173693
-0.00256536
0.174033
-0.00178115
0.174323
-0.00100586
0.17456
-0.000241302
0.000516545
0.157367
-0.0157625
-0.156164
0.158533
-0.0150279
0.159639
-0.0142187
0.160681
-0.0133686
0.161657
-0.0124984
0.162569
-0.0116168
0.16342
-0.0107309
0.164211
-0.00984543
0.164945
-0.00896284
0.165623
-0.0080844
0.166247
-0.00721079
0.166819
-0.00634248
0.167338
-0.00547986
0.167805
-0.00462343
0.168222
-0.00377375
0.168588
-0.00293152
0.168904
-0.00209752
0.169171
-0.00127269
0.169388
-0.000458177
0.000346258
0.153
-0.0169605
-0.151802
0.154163
-0.0161907
0.155259
-0.0153146
0.156284
-0.0143936
0.157238
-0.0134528
0.158124
-0.012503
0.158946
-0.0115527
0.159707
-0.0106067
0.160411
-0.00966654
0.161059
-0.0087329
0.161654
-0.00780584
0.162197
-0.00688532
0.162689
-0.00597141
0.16313
-0.00506437
0.163521
-0.00416466
0.163862
-0.0032729
0.164154
-0.00238987
0.164398
-0.00151639
0.164594
-0.00065368
0.000197274
0.148945
-0.0181825
-0.147723
0.15012
-0.0173658
0.151212
-0.0164063
0.152223
-0.0154045
0.153154
-0.0143839
0.154011
-0.0133598
0.154801
-0.0123426
0.15553
-0.0113354
0.156201
-0.0103381
0.156818
-0.00935021
0.157383
-0.00837094
0.157898
-0.00739949
0.158362
-0.00643549
0.158776
-0.00547898
0.159142
-0.0045303
0.159459
-0.00359
0.159728
-0.00265886
0.159949
-0.00173776
0.160123
-0.000827696
6.89341e-05
0.145174
-0.0194923
-0.143864
0.146383
-0.0185744
0.147471
-0.0174942
0.148462
-0.016396
0.149362
-0.0152833
0.150181
-0.014179
0.150932
-0.0130943
0.151624
-0.0120272
0.152261
-0.0109749
0.152846
-0.00993506
0.153381
-0.00890572
0.153866
-0.00788523
0.154304
-0.00687276
0.154693
-0.00586816
0.155034
-0.0048717
0.155328
-0.00388395
0.155575
-0.0029057
0.155775
-0.00193801
0.15593
-0.000981903
-3.93214e-05
0.141701
-0.0209591
-0.140235
0.14294
-0.0198131
0.144006
-0.0185599
0.144956
-0.0173458
0.145807
-0.0161349
0.146579
-0.0149504
0.147286
-0.0138012
0.147937
-0.0126788
0.148538
-0.0115758
0.149091
-0.0104876
0.149596
-0.00941109
0.150054
-0.00834379
0.150466
-0.00728465
0.150832
-0.00623344
0.15115
-0.00519049
0.151423
-0.00415644
0.151649
-0.00313216
0.15183
-0.00211885
0.151966
-0.00111799
-0.000131176
0.138594
-0.137187
-0.0223653
0.139745
-0.0209649
0.140771
-0.0195859
0.141643
-0.0182175
0.142428
-0.0169199
0.143148
-0.0156705
0.14381
-0.0144633
0.144423
-0.013291
0.144989
-0.0121426
0.145512
-0.0110101
0.14599
-0.00988902
0.146423
-0.00877689
0.146811
-0.00767263
0.147154
-0.00657616
0.147451
-0.00548798
0.147704
-0.0044089
0.147911
-0.00333992
0.148075
-0.00228206
0.148194
-0.00123693
-0.000211815
0.0304453
0.111605
-0.110139
-0.0319117
0.0289525
0.114637
-0.113145
0.0274305
0.117805
-0.116283
0.0258758
0.12113
-0.119575
0.0242851
0.124645
-0.123055
0.0226553
0.128393
-0.126763
0.0209844
0.13243
-0.130759
0.019271
0.136835
-0.135122
0.0175142
0.141711
-0.139954
0.0157142
0.147188
-0.145388
0.0138728
0.153424
-0.151583
0.0119941
0.160604
-0.158726
0.0100867
0.168927
-0.167019
0.00816725
0.178577
-0.176657
0.0062652
0.189676
-0.187774
0.00443016
0.202189
-0.200353
0.00274109
0.215783
-0.214094
0.00131721
0.229617
-0.228193
0.000326055
0.241931
-0.240939
0.24963
-0.249304
0.0302672
0.113065
-0.0317268
0.0287812
0.116123
0.0272662
0.11932
0.0257188
0.122677
0.0241355
0.126229
0.0225134
0.130015
0.0208501
0.134093
0.0191442
0.138541
0.0173946
0.143461
0.0156017
0.148981
0.0137672
0.155259
0.0118956
0.162476
0.00999612
0.170826
0.00808612
0.180487
0.00619626
0.191566
0.00437765
0.204007
0.00271068
0.21745
0.00131405
0.231013
0.000349999
0.242895
0.24998
0.0300473
0.114515
-0.0314979
0.0285703
0.1176
0.0270646
0.120825
0.0255267
0.124215
0.023953
0.127802
0.0223407
0.131627
0.0206873
0.135746
0.0189911
0.140237
0.0172511
0.145201
0.0154676
0.150764
0.0136424
0.157084
0.0117803
0.164338
0.00989117
0.172715
0.00799301
0.182385
0.00611748
0.193441
0.0043167
0.205808
0.00267158
0.219095
0.00129917
0.232386
0.000353261
0.24384
0.250333
0.0297872
0.115955
-0.0312268
0.0283215
0.119066
0.0268272
0.12232
0.0253008
0.125742
0.0237388
0.129364
0.0221383
0.133228
0.0204968
0.137388
0.0188124
0.141922
0.0170841
0.146929
0.0153122
0.152536
0.0134986
0.158898
0.0116484
0.166188
0.00977179
0.174592
0.00788762
0.184269
0.0060283
0.1953
0.00424667
0.20759
0.00262377
0.220718
0.00127502
0.233734
0.000348395
0.244767
0.250682
0.0294893
0.117381
-0.0309158
0.0280367
0.120519
0.0265557
0.123801
0.0250427
0.127255
0.0234942
0.130913
0.0219073
0.134815
0.0202795
0.139016
0.0186089
0.143592
0.0168943
0.148644
0.015136
0.154295
0.0133361
0.160698
0.0114999
0.168024
0.009638
0.176454
0.00776991
0.186137
0.00592879
0.197142
0.00416813
0.20935
0.002569
0.222317
0.00124517
0.235058
0.00033968
0.245673
0.251022
0.029156
0.118793
-0.030568
0.0277181
0.121957
0.0262519
0.125267
0.0247538
0.128753
0.0232204
0.132446
0.0216488
0.136386
0.0200364
0.140628
0.0183813
0.145248
0.0166822
0.150343
0.0149395
0.156037
0.0131552
0.162482
0.011335
0.169845
0.00948998
0.178299
0.00764012
0.187987
0.00581933
0.198962
0.00408172
0.211088
0.00250826
0.223891
0.00121098
0.236356
0.000328282
0.246555
0.25135
0.02879
0.12019
-0.0301863
0.0273679
0.123379
0.0259178
0.126717
0.0244359
0.130235
0.022919
0.133963
0.021364
0.137941
0.0197685
0.142224
0.0181304
0.146886
0.0164485
0.152024
0.0147231
0.157763
0.0129564
0.164248
0.0111542
0.171647
0.00932804
0.180125
0.00749852
0.189817
0.00570023
0.200761
0.00398779
0.2128
0.00244198
0.225437
0.00117301
0.237625
0.000314908
0.247413
0.251665
0.0283942
0.12157
-0.0297742
0.0269886
0.124784
0.0255553
0.12815
0.0240906
0.131699
0.0225912
0.135463
0.021054
0.139478
0.0194766
0.143801
0.0178569
0.148505
0.0161937
0.153688
0.0144873
0.159469
0.0127399
0.165996
0.0109577
0.173429
0.00915245
0.18193
0.00734539
0.191624
0.00557175
0.202534
0.00388662
0.214485
0.00237051
0.226953
0.00113178
0.238863
0.000300158
0.248245
0.251965
0.0279713
0.122933
-0.0293351
0.0265825
0.126173
0.0251664
0.129566
0.0237194
0.133146
0.0222381
0.136944
0.0207196
0.140997
0.0191614
0.145359
0.0175614
0.150105
0.0159183
0.155331
0.0142324
0.161155
0.0125062
0.167722
0.0107457
0.17519
0.00896343
0.183713
0.00718096
0.193406
0.00543415
0.204281
0.00377851
0.216141
0.00229423
0.228437
0.00108777
0.24007
0.00028445
0.249048
0.252249
0.0275242
0.124282
-0.0288723
0.0261517
0.127546
0.0247526
0.130965
0.0233235
0.134576
0.0218607
0.138406
0.0203616
0.142496
0.0188235
0.146898
0.0172442
0.151685
0.0156226
0.156952
0.0139588
0.162819
0.0122553
0.169426
0.0105186
0.176926
0.00876119
0.18547
0.00700543
0.195162
0.00528767
0.205999
0.00366376
0.217765
0.00221348
0.229887
0.00104132
0.241242
0.000268027
0.249822
0.252517
0.0270552
0.125616
-0.0283891
0.0256978
0.128903
0.0243151
0.132348
0.0229035
0.135987
0.0214595
0.13985
0.0199802
0.143975
0.0184629
0.148415
0.0169055
0.153242
0.0153066
0.158551
0.0136664
0.164459
0.0119874
0.171105
0.0102763
0.178637
0.00854588
0.1872
0.00681899
0.196889
0.00513254
0.207685
0.00354263
0.219355
0.00212856
0.231301
0.000992731
0.242378
0.00025105
0.250563
0.252768
0.0265656
0.126938
-0.027888
0.0252216
0.130247
0.0238541
0.133715
0.0224595
0.137382
0.0210342
0.141276
0.0195752
0.145434
0.0180796
0.14991
0.0165451
0.154777
0.0149703
0.160126
0.0133553
0.166074
0.0117025
0.172757
0.0100189
0.180321
0.00831758
0.188902
0.0066218
0.198585
0.00496895
0.209338