/*--------------------------------*- C++ -*----------------------------------*\
  =========                 |
  \\      /  F ield         | OpenFOAM: The Open Source CFD Toolbox
   \\    /   O peration     | Website:  https://openfoam.org
    \\  /    A nd           | Version:  6.0
     \\/     M anipulation  |
\*---------------------------------------------------------------------------*/
FoamFile
{
    version     2.0;
    format      ascii;
    class       volScalarField;
    location    "19.985";
    object      p;
}
// * * * * * * * * * * * * * * * * * * * * * * * * * * * * * * * * * * * * * //

dimensions      [0 2 -2 0 0 0 0];

internalField   nonuniform List<scalar> 
2400
(
-0.393842
-0.380667
-0.372444
-0.36583
-0.359323
-0.352926
-0.346718
-0.340666
-0.334849
-0.33035
-0.407303
-0.393243
-0.38404
-0.376289
-0.368552
-0.360925
-0.353548
-0.346395
-0.339546
-0.334522
-0.42474
-0.409187
-0.39852
-0.389219
-0.379873
-0.370665
-0.361791
-0.353214
-0.345011
-0.33936
-0.446409
-0.428746
-0.416108
-0.404825
-0.393472
-0.38231
-0.371585
-0.361223
-0.351288
-0.34486
-0.472618
-0.452161
-0.437012
-0.423299
-0.409536
-0.396047
-0.383102
-0.370555
-0.358435
-0.350992
-0.50365
-0.47965
-0.461427
-0.444842
-0.428286
-0.412114
-0.396588
-0.381432
-0.366585
-0.357736
-0.539728
-0.511382
-0.489524
-0.469658
-0.449972
-0.430819
-0.412418
-0.394279
-0.376097
-0.365192
-0.580967
-0.547446
-0.521421
-0.497916
-0.474816
-0.452435
-0.430902
-0.409403
-0.387026
-0.372796
-0.627286
-0.587801
-0.557163
-0.529768
-0.503082
-0.477291
-0.452273
-0.426502
-0.397712
-0.376982
-0.678136
-0.632157
-0.596676
-0.565408
-0.535411
-0.506813
-0.479202
-0.450203
-0.415892
-0.386773
-1.14795
-1.13141
-1.10232
-1.06305
-1.01583
-0.962857
-0.90622
-0.847804
-0.789258
-0.732125
-1.05133
-1.03652
-1.01032
-0.974875
-0.932314
-0.884714
-0.834024
-0.782
-0.730163
-0.679833
-0.968496
-0.957437
-0.935458
-0.904552
-0.866755
-0.824079
-0.778423
-0.731498
-0.684785
-0.639513
-0.89069
-0.884542
-0.86773
-0.842042
-0.809377
-0.771657
-0.730724
-0.688273
-0.645796
-0.604516
-0.814672
-0.813687
-0.802395
-0.782318
-0.755148
-0.722636
-0.686504
-0.648368
-0.609717
-0.57177
-0.74269
-0.746512
-0.740558
-0.726075
-0.704495
-0.677336
-0.646104
-0.612224
-0.577081
-0.541812
-0.676196
-0.684119
-0.68296
-0.673719
-0.657577
-0.635792
-0.609578
-0.580014
-0.548201
-0.514991
-0.615632
-0.626886
-0.629848
-0.62534
-0.614354
-0.597925
-0.57697
-0.552072
-0.523641
-0.491474
-0.560818
-0.574764
-0.58127
-0.581071
-0.575074
-0.564224
-0.549277
-0.530355
-0.506644
-0.474432
-0.511727
-0.527004
-0.535815
-0.538871
-0.537096
-0.531534
-0.523152
-0.512346
-0.498302
-0.474388
-0.434059
-0.568634
-0.69366
-0.806907
-0.90611
-0.989474
-1.05578
-1.10442
-1.13538
-1.14936
-0.384959
-0.510367
-0.627077
-0.732795
-0.825392
-0.903194
-0.965073
-1.01049
-1.03946
-1.05264
-0.318891
-0.436952
-0.54766
-0.648689
-0.737943
-0.813744
-0.874904
-0.920776
-0.951259
-0.966804
-0.250195
-0.360833
-0.465619
-0.562259
-0.648691
-0.723233
-0.78463
-0.832099
-0.865355
-0.884615
-0.18741
-0.290173
-0.388509
-0.48015
-0.563099
-0.635734
-0.696795
-0.745421
-0.781182
-0.804088
-0.133825
-0.228858
-0.320683
-0.406988
-0.485891
-0.555901
-0.615817
-0.664767
-0.702246
-0.728118
-0.089478
-0.177371
-0.263092
-0.344093
-0.41869
-0.485591
-0.543694
-0.592167
-0.630492
-0.658451
-0.0526608
-0.13368
-0.213945
-0.290041
-0.360477
-0.424186
-0.480177
-0.527683
-0.566207
-0.595503
-0.022215
-0.0961782
-0.171557
-0.243274
-0.309893
-0.370533
-0.424318
-0.470574
-0.508856
-0.538932
-0.00542741
-0.074688
-0.14528
-0.211795
-0.273516
-0.329853
-0.380057
-0.4236
-0.460148
-0.489519
0.53853
0.55954
0.581977
0.604981
0.628072
0.650586
0.671551
0.690376
0.712438
0.751481
0.5119
0.530155
0.550107
0.57021
0.589789
0.608114
0.624134
0.637287
0.6533
0.6871
0.477785
0.492315
0.508965
0.525249
0.540244
0.55318
0.562973
0.569196
0.577995
0.605356
0.436489
0.446434
0.459049
0.47067
0.480096
0.486546
0.488957
0.487129
0.487682
0.507477
0.388405
0.39306
0.401031
0.407246
0.410239
0.409258
0.403305
0.392506
0.383981
0.395264
0.334005
0.33287
0.335746
0.335952
0.331806
0.322634
0.30756
0.287115
0.268924
0.270938
0.273848
0.26667
0.2642
0.25796
0.246155
0.228256
0.203559
0.173074
0.144896
0.137089
0.208671
0.195472
0.187624
0.174659
0.154865
0.127943
0.0934009
0.0527823
0.0145776
-0.0033781
0.139279
0.120805
0.107756
0.0877933
0.0597891
0.0237542
-0.0205882
-0.0711341
-0.119122
-0.147327
0.0641553
0.0432961
0.0255186
-0.00141038
-0.0373611
-0.0822093
-0.135976
-0.195928
-0.253222
-0.291691
0.392057
0.395463
0.405933
0.414204
0.420682
0.427097
0.435048
0.446909
0.465551
0.488054
0.440678
0.445372
0.457075
0.46842
0.478789
0.489364
0.501398
0.516943
0.539489
0.568346
0.47972
0.488148
0.502381
0.517173
0.531588
0.546364
0.56245
0.58156
0.607656
0.642145
0.511921
0.524407
0.541498
0.559577
0.577758
0.59646
0.61632
0.63867
0.667792
0.707029
0.537532
0.553706
0.573494
0.594502
0.615986
0.638124
0.661241
0.686272
0.717708
0.760692
0.556275
0.575534
0.597597
0.620991
0.645136
0.670005
0.69563
0.72256
0.755421
0.801031
0.56788
0.589449
0.613179
0.63826
0.66425
0.690952
0.718128
0.745969
0.779203
0.826218
0.572079
0.595049
0.619718
0.645668
0.672554
0.700032
0.727627
0.75522
0.787644
0.834771
0.568653
0.592025
0.616819
0.642741
0.669476
0.696557
0.723304
0.749359
0.779697
0.825605
0.557475
0.580197
0.604252
0.629198
0.654675
0.68011
0.704656
0.727799
0.754704
0.798001
0.346978
0.302154
0.250974
0.199235
0.147965
0.0979236
0.0499424
0.0045435
-0.0379506
-0.0773372
0.351545
0.303903
0.250924
0.196392
0.142327
0.0897831
0.0396009
-0.00758752
-0.0513504
-0.0914252
0.355146
0.301794
0.245229
0.187889
0.131489
0.0770854
0.0255552
-0.0224104
-0.0663451
-0.105988
0.357827
0.299432
0.239233
0.178983
0.120205
0.0640144
0.0113323
-0.0371436
-0.0809679
-0.119936
0.359666
0.296866
0.23312
0.169976
0.108914
0.0511123
-0.00249776
-0.0512508
-0.0947644
-0.132932
0.361631
0.294656
0.227439
0.161524
0.0983754
0.0391824
-0.015156
-0.0640464
-0.107205
-0.144649
0.365377
0.294529
0.224043
0.155517
0.0904041
0.029865
-0.0252664
-0.0744899
-0.11763
-0.154825
0.373447
0.299072
0.22547
0.154294
0.0869961
0.0247006
-0.0318171
-0.0821296
-0.126134
-0.164047
0.387925
0.309356
0.231668
0.156595
0.085627
0.0199149
-0.0397474
-0.0929192
-0.139489
-0.179666
0.403816
0.318117
0.233231
0.151053
0.0731986
0.0009729
-0.0646745
-0.123171
-0.174323
-0.218258
-0.113579
-0.146735
-0.177043
-0.204843
-0.230529
-0.254504
-0.277059
-0.298194
-0.318412
-0.328509
-0.127763
-0.160391
-0.189558
-0.215598
-0.238892
-0.259798
-0.278503
-0.294824
-0.308406
-0.312548
-0.141336
-0.172448
-0.19965
-0.223359
-0.244041
-0.262141
-0.277961
-0.291556
-0.302877
-0.30861
-0.154143
-0.183724
-0.20913
-0.230895
-0.249592
-0.265774
-0.279875
-0.292139
-0.302602
-0.309403
-0.165984
-0.194146
-0.218013
-0.238229
-0.255461
-0.270338
-0.283368
-0.294862
-0.304813
-0.312068
-0.176759
-0.203841
-0.226613
-0.245802
-0.262119
-0.276221
-0.28862
-0.299617
-0.309171
-0.316581
-0.186587
-0.213256
-0.235633
-0.254474
-0.270488
-0.284303
-0.296393
-0.307015
-0.316126
-0.323322
-0.196455
-0.223674
-0.246534
-0.265775
-0.282067
-0.295986
-0.307954
-0.318189
-0.326681
-0.333237
-0.213998
-0.242822
-0.266938
-0.287068
-0.303865
-0.317878
-0.329495
-0.33893
-0.346233
-0.351355
-0.255263
-0.286075
-0.311359
-0.331906
-0.348461
-0.361624
-0.371802
-0.379222
-0.384009
-0.386178
-0.385546
-0.354397
-0.337871
-0.328404
-0.321263
-0.315171
-0.308989
-0.300195
-0.284946
-0.271364
-0.383721
-0.355878
-0.340953
-0.332154
-0.325215
-0.319016
-0.312729
-0.30467
-0.292718
-0.284866
-0.380986
-0.356292
-0.342965
-0.334962
-0.328529
-0.322747
-0.317038
-0.310385
-0.30197
-0.297962
-0.377905
-0.356121
-0.344311
-0.337105
-0.331219
-0.325898
-0.320709
-0.31497
-0.308364
-0.305482
-0.375092
-0.355883
-0.345437
-0.338962
-0.333589
-0.328709
-0.324003
-0.319006
-0.313581
-0.310961
-0.37312
-0.356093
-0.346799
-0.34092
-0.335943
-0.331382
-0.327004
-0.322491
-0.317786
-0.315093
-0.372535
-0.357253
-0.348848
-0.34337
-0.338605
-0.334172
-0.329907
-0.325593
-0.321223
-0.318288
-0.373875
-0.359854
-0.352028
-0.346711
-0.341928
-0.337399
-0.333018
-0.328643
-0.324301
-0.321042
-0.377658
-0.364357
-0.356759
-0.351327
-0.346269
-0.341396
-0.336663
-0.331981
-0.327403
-0.323773
-0.38428
-0.371173
-0.363436
-0.357584
-0.351963
-0.346478
-0.341144
-0.335909
-0.330842
-0.326803
-0.321976
-0.269213
-0.237605
-0.194843
-0.161245
-0.129863
-0.104559
-0.0837287
-0.0674904
-0.0551267
-0.0457421
-0.0388081
-0.0329599
-0.0276773
-0.0221244
-0.015605
-0.0126775
-0.00793504
-0.00686723
0.000219813
-0.327875
-0.271162
-0.239369
-0.196082
-0.162032
-0.130283
-0.104628
-0.0835715
-0.0672673
-0.0550383
-0.0459463
-0.0393813
-0.0337534
-0.028478
-0.0225031
-0.0153958
-0.0119788
-0.00717707
-0.0067392
-3.60129e-08
-0.335696
-0.2738
-0.241722
-0.197875
-0.163275
-0.131125
-0.105059
-0.0837244
-0.0672926
-0.0551328
-0.0462649
-0.0400035
-0.034547
-0.0292543
-0.0228754
-0.0152167
-0.0113225
-0.00646814
-0.00661926
-0.000227595
-0.345285
-0.277146
-0.24459
-0.200204
-0.164973
-0.132398
-0.10587
-0.0842059
-0.0675818
-0.0554184
-0.0466973
-0.0406665
-0.0353304
-0.0299983
-0.0232404
-0.0150741
-0.0107195
-0.00581841
-0.00650867
-0.00046034
-0.356386
-0.281257
-0.247894
-0.203037
-0.167115
-0.134101
-0.107068
-0.0850241
-0.0681415
-0.0558974
-0.0472405
-0.0413635
-0.0360971
-0.0307063
-0.0235993
-0.0149727
-0.0101771
-0.00523373
-0.00640785
-0.000696669
-0.368605
-0.286215
-0.251546
-0.206314
-0.169669
-0.13621
-0.108638
-0.0861706
-0.0689661
-0.0565639
-0.0478878
-0.0420876
-0.036842
-0.0313765
-0.0239532
-0.0149162
-0.00970148
-0.00471913
-0.00631703
-0.000934535
-0.381543
-0.292333
-0.255614
-0.210052
-0.172654
-0.138738
-0.110596
-0.0876548
-0.0700611
-0.0574188
-0.0486359
-0.0428334
-0.0375613
-0.0320084
-0.0243062
-0.0149108
-0.00930063
-0.00427897
-0.00623611
-0.00117187
-0.394949
-0.30056
-0.260673
-0.214616
-0.176357
-0.141905
-0.11311
-0.0896006
-0.071511
-0.0585136
-0.0495109
-0.0436102
-0.0382582
-0.0326068
-0.02467
-0.0149718
-0.0089906
-0.00392139
-0.00616513
-0.00140587
-0.40632
-0.311081
-0.267085
-0.220253
-0.180952
-0.145841
-0.116279
-0.0920791
-0.0733681
-0.0598891
-0.0505475
-0.0444502
-0.0389608
-0.0331928
-0.0250526
-0.0150956
-0.00876364
-0.00364039
-0.00610306
-0.00163699
-0.404526
-0.317947
-0.2716
-0.224441
-0.184396
-0.148897
-0.118808
-0.0941173
-0.0749515
-0.0611215
-0.0515407
-0.0453042
-0.0396909
-0.0337863
-0.0253926
-0.0151585
-0.00848244
-0.00335326
-0.00604272
-0.00187994
-0.378877
-0.315818
-0.271324
-0.225066
-0.185002
-0.149714
-0.119606
-0.0948567
-0.0756284
-0.0618142
-0.052345
-0.0462618
-0.0406738
-0.0346342
-0.0257718
-0.0150405
-0.00784367
-0.0028185
-0.00594894
-0.00225537
-0.362266
-0.310218
-0.266497
-0.222635
-0.18413
-0.150216
-0.120917
-0.0966081
-0.0775156
-0.063622
-0.0539444
-0.0475451
-0.0416104
-0.0352064
-0.0260007
-0.0150911
-0.00753505
-0.00267833
-0.00591643
-0.00265392
-0.3428
-0.298305
-0.256431
-0.216742
-0.181401
-0.149795
-0.121969
-0.0985163
-0.0797778
-0.0658347
-0.0558332
-0.0489113
-0.0424636
-0.0356099
-0.0261616
-0.0152782
-0.0074999
-0.00284855
-0.00591571
-0.00302222
-0.312799
-0.279063
-0.242033
-0.20798
-0.177138
-0.148689
-0.122902
-0.100635
-0.0824062
-0.0684208
-0.0580019
-0.0504112
-0.0433411
-0.035989
-0.026376
-0.0156632
-0.00775702
-0.00331025
-0.00592212
-0.00334122
-0.27366
-0.253087
-0.224118
-0.196628
-0.171132
-0.146636
-0.1235
-0.102806
-0.0852888
-0.0713106
-0.0604142
-0.0520358
-0.0442545
-0.036377
-0.0266981
-0.0163108
-0.00838462
-0.0040911
-0.00592105
-0.00356126
-0.231889
-0.223166
-0.203881
-0.183423
-0.163487
-0.143387
-0.123408
-0.10468
-0.0881244
-0.0742782
-0.0629322
-0.0537359
-0.0452148
-0.036824
-0.0271745
-0.0172413
-0.0093912
-0.0051496
-0.00589682
-0.00363336
-0.193606
-0.193152
-0.182997
-0.16948
-0.154837
-0.139062
-0.122424
-0.105924
-0.0905593
-0.0770216
-0.0653534
-0.0554329
-0.0462318
-0.0373853
-0.0278212
-0.0183946
-0.0106743
-0.00636222
-0.00585141
-0.00353891
-0.162232
-0.166577
-0.163509
-0.1561
-0.146146
-0.134195
-0.120665
-0.106398
-0.0923364
-0.0792674
-0.067458
-0.0570038
-0.0472624
-0.038056
-0.0285826
-0.0196153
-0.0120264
-0.00754853
-0.00581502
-0.00331698
-0.139491
-0.146196
-0.147737
-0.144906
-0.138645
-0.129682
-0.118635
-0.106261
-0.0933958
-0.0808484
-0.0690508
-0.0582803
-0.0481795
-0.0387295
-0.0293202
-0.0206806
-0.013184
-0.0085065
-0.00581954
-0.0030639
-0.126743
-0.13437
-0.138227
-0.137968
-0.133905
-0.126722
-0.117155
-0.105951
-0.0938678
-0.0816988
-0.0699648
-0.0590545
-0.0487762
-0.0391997
-0.0298293
-0.0213496
-0.0138988
-0.0090573
-0.0058508
-0.00288778
-0.442237
-0.454933
-0.462286
-0.46482
-0.463394
-0.45931
-0.454439
-0.451401
-0.455251
-0.477859
-0.362744
-0.37619
-0.386676
-0.39471
-0.400982
-0.40633
-0.411648
-0.417658
-0.424485
-0.437613
-0.297662
-0.310723
-0.322242
-0.332411
-0.341379
-0.34923
-0.355992
-0.361805
-0.366709
-0.376407
-0.242416
-0.253999
-0.264527
-0.274045
-0.28261
-0.290318
-0.297346
-0.304006
-0.310349
-0.318838
-0.196402
-0.206434
-0.215781
-0.224484
-0.232591
-0.24016
-0.247245
-0.253896
-0.260044
-0.266413
-0.159073
-0.167665
-0.17578
-0.183426
-0.190611
-0.197345
-0.203638
-0.209512
-0.214979
-0.220144
-0.129518
-0.136809
-0.14374
-0.150306
-0.156505
-0.162339
-0.167813
-0.172937
-0.177711
-0.182092
-0.107191
-0.113427
-0.119376
-0.125028
-0.130375
-0.135412
-0.140138
-0.144554
-0.148658
-0.152427
-0.0916674
-0.0971241
-0.10234
-0.107302
-0.112001
-0.11643
-0.120586
-0.124467
-0.128073
-0.131399
-0.0832405
-0.088206
-0.0929576
-0.0974857
-0.101783
-0.105844
-0.109666
-0.113247
-0.116588
-0.119691
-0.0172571
-0.081423
-0.144157
-0.198895
-0.248751
-0.294322
-0.334934
-0.370181
-0.399884
-0.423919
-0.0348998
-0.0845432
-0.13212
-0.172637
-0.209304
-0.243404
-0.274413
-0.301886
-0.325735
-0.345993
-0.0458487
-0.0855163
-0.12063
-0.150432
-0.177537
-0.202894
-0.226232
-0.247297
-0.266123
-0.282858
-0.0507183
-0.0814831
-0.106337
-0.12753
-0.147457
-0.166485
-0.184302
-0.200747
-0.215857
-0.229723
-0.0500605
-0.0728467
-0.0903735
-0.105598
-0.120472
-0.13503
-0.148899
-0.16194
-0.174179
-0.185658
-0.0452701
-0.0616988
-0.0744765
-0.0859642
-0.0974519
-0.108868
-0.119898
-0.130424
-0.140453
-0.150003
-0.0389225
-0.0508468
-0.0606175
-0.069725
-0.0788936
-0.0880474
-0.096978
-0.105599
-0.1139
-0.121878
-0.0328506
-0.0418115
-0.0496604
-0.0571873
-0.0647519
-0.0723008
-0.0797122
-0.0869261
-0.0939216
-0.100683
-0.0280507
-0.0352231
-0.0418986
-0.0484125
-0.0549242
-0.0614039
-0.0677844
-0.0740236
-0.0800974
-0.0859856
-0.0252234
-0.0315971
-0.0377598
-0.0437989
-0.049782
-0.0556983
-0.0615113
-0.0671916
-0.0727179
-0.078073
0.215685
0.216648
0.21906
0.22235
0.226835
0.230149
0.232635
0.222823
0.199066
0.0941421
0.207373
0.207889
0.209245
0.210801
0.212457
0.211711
0.20775
0.189648
0.152867
0.0543231
0.19746
0.197509
0.197728
0.197423
0.196176
0.191528
0.18199
0.158696
0.117126
0.0354957
0.185821
0.185356
0.184357
0.182127
0.177994
0.169825
0.155703
0.129803
0.0871911
0.0189378
0.172508
0.171526
0.169336
0.165292
0.158588
0.147611
0.130332
0.103631
0.062507
0.00501805
0.157836
0.156384
0.153151
0.147585
0.1389
0.126026
0.107182
0.081042
0.0436432
-0.00390555
0.142488
0.140662
0.136641
0.129988
0.120064
0.10625
0.0872774
0.0627845
0.030362
-0.00826355
0.127626
0.125555
0.12106
0.11381
0.103378
0.0894655
0.0713661
0.0491316
0.0216458
-0.00971211
0.114986
0.112799
0.108118
0.100692
0.090286
0.0768032
0.0599591
0.0399358
0.016389
-0.00973607
0.107
0.104783
0.100081
0.0926936
0.082497
0.069492
0.0536124
0.0350645
0.0138424
-0.00937021
0.251363
0.253444
0.259049
0.267782
0.281441
0.299581
0.326709
0.361695
0.414254
0.481592
0.248842
0.25085
0.256266
0.264674
0.277838
0.29517
0.321083
0.353979
0.402926
0.464191
0.24609
0.248021
0.253227
0.261272
0.273874
0.290261
0.314745
0.345016
0.389474
0.442521
0.243119
0.24497
0.249949
0.257595
0.269572
0.284886
0.30774
0.334858
0.37404
0.416689
0.239942
0.241712
0.246449
0.253668
0.264957
0.279082
0.300114
0.323572
0.356792
0.386797
0.236574
0.238266
0.242747
0.249512
0.260056
0.272889
0.291909
0.311232
0.33791
0.352914
0.233032
0.234651
0.238871
0.245167
0.254916
0.266379
0.283209
0.297978
0.317622
0.315123
0.229336
0.230899
0.234868
0.240702
0.249639
0.259705
0.274206
0.284092
0.296243
0.273429
0.2255
0.227018
0.230742
0.236118
0.244216
0.252863
0.264868
0.269572
0.273563
0.226711
0.22151
0.222914
0.226266
0.231008
0.237971
0.244854
0.253703
0.252779
0.247177
0.173277
0.26284
0.265287
0.271404
0.281092
0.295643
0.314554
0.340977
0.369635
0.407506
0.417609
0.262791
0.265249
0.271483
0.281334
0.296267
0.315811
0.343711
0.375263
0.419137
0.445637
0.262509
0.264941
0.271184
0.281024
0.29603
0.31576
0.344319
0.37775
0.425646
0.465699
0.261993
0.2644
0.27064
0.280461
0.29552
0.315419
0.344528
0.379649
0.431008
0.481941
0.261236
0.263616
0.269842
0.279631
0.294711
0.314739
0.344268
0.380805
0.434999
0.494517
0.260229
0.262577
0.268765
0.278486
0.293519
0.313567
0.343293
0.380818
0.437043
0.503043
0.258967
0.261276
0.2674
0.277009
0.291918
0.31186
0.341541
0.379577
0.436965
0.507398
0.257448
0.259711
0.265743
0.275199
0.289907
0.30961
0.339007
0.37706
0.434696
0.507501
0.255672
0.257881
0.263796
0.273055
0.287487
0.306813
0.335689
0.373247
0.430172
0.503264
0.253642
0.25579
0.261562
0.27058
0.284662
0.303467
0.331586
0.368124
0.423355
0.49463
0.217389
0.215973
0.212954
0.20815
0.201345
0.192319
0.180766
0.166503
0.149196
0.128992
0.222379
0.221156
0.21852
0.214239
0.208014
0.199507
0.188244
0.173883
0.155819
0.134111
0.229843
0.22897
0.227043
0.223776
0.218751
0.211429
0.201062
0.186945
0.167985
0.143931
0.237907
0.237509
0.236583
0.234801
0.231658
0.22636
0.217867
0.204834
0.185507
0.15879
0.245359
0.245513
0.245794
0.245866
0.245219
0.242807
0.237404
0.226714
0.208322
0.179179
0.251552
0.252276
0.253848
0.255969
0.258235
0.259417
0.258336
0.251487
0.236107
0.20546
0.256259
0.257516
0.260348
0.264522
0.269858
0.27507
0.279319
0.27781
0.267977
0.237375
0.259526
0.261244
0.265215
0.27129
0.279594
0.288952
0.299146
0.304331
0.302483
0.27325
0.261546
0.26363
0.268562
0.276266
0.287217
0.300489
0.316707
0.329705
0.338173
0.311347
0.262578
0.264911
0.270581
0.279534
0.292641
0.309256
0.331134
0.352576
0.37507
0.358128
0.114391
0.108241
0.101936
0.0955822
0.0891635
0.0826696
0.0761166
0.0695299
0.0629333
0.0563481
0.117947
0.111091
0.104053
0.0970269
0.0899394
0.082743
0.0754536
0.0681088
0.0607416
0.0533797
0.125102
0.116733
0.108051
0.0995846
0.0911642
0.0826356
0.073996
0.0652997
0.0565924
0.0479047
0.136434
0.125728
0.114388
0.103667
0.0932386
0.0827326
0.0720989
0.0614196
0.05076
0.0401506
0.152738
0.138797
0.123576
0.109643
0.0964487
0.0832445
0.0698943
0.0565292
0.0432447
0.0300652
0.174938
0.156831
0.136245
0.117958
0.101121
0.084386
0.0674953
0.0506664
0.034035
0.0176065
0.20395
0.18088
0.153247
0.129283
0.107743
0.0864307
0.0649966
0.0438065
0.023028
0.00262595
0.239795
0.2111
0.174816
0.14398
0.116532
0.0893516
0.0622322
0.035732
0.00999815
-0.0150655
0.282354
0.247014
0.201417
0.163063
0.128215
0.093576
0.0594826
0.0266057
-0.00491283
-0.0350912
0.330082
0.286216
0.232693
0.18556
0.140717
0.0967184
0.054399
0.0142814
-0.0234282
-0.0585542
0.0497942
0.043291
0.0368564
0.0305072
0.0242587
0.0181246
0.0121177
0.00624903
0.000528016
-0.00503555
0.046049
0.0387747
0.0315813
0.0244918
0.0175271
0.0107059
0.0040455
-0.00243965
-0.00873748
-0.0148129
0.0392624
0.030691
0.0222159
0.0138605
0.00564607
-0.0024087
-0.0102865
-0.0179731
-0.0254587
-0.0326541
0.0296112
0.0191627
0.00882681
-0.00137607
-0.0114289
-0.0213173
-0.0310283
-0.0405519
-0.0498879
-0.058902
0.0169947
0.00404193
-0.00878013
-0.0214596
-0.0339874
-0.0463577
-0.0585687
-0.0706247
-0.0825599
-0.0944144
0.00135759
-0.0147237
-0.0306448
-0.0464197
-0.0620705
-0.0776232
-0.0931013
-0.108512
-0.123919
-0.140018
-0.0174564
-0.0372473
-0.056765
-0.0760364
-0.0951105
-0.114072
-0.133049
-0.152158
-0.171779
-0.193523
-0.0395619
-0.0635697
-0.0871618
-0.110395
-0.1333
-0.155889
-0.178204
-0.200338
-0.223571
-0.250068
-0.0639611
-0.0916053
-0.118209
-0.144054
-0.169491
-0.194907
-0.22065
-0.24705
-0.276334
-0.307603
-0.0909737
-0.120667
-0.147811
-0.172818
-0.196365
-0.219395
-0.243008
-0.268684
-0.302061
-0.345145
-0.0182383
-0.037124
-0.0535806
-0.0665218
-0.0752467
-0.0796035
-0.079839
-0.0765828
-0.0705528
-0.0626648
-0.0537312
-0.0447011
-0.0364496
-0.0297599
-0.0253779
-0.0226799
-0.0202183
-0.0155291
-0.0079419
-0.00157596
-0.0295739
-0.0491983
-0.0650377
-0.0765582
-0.0834727
-0.0858936
-0.084279
-0.0794151
-0.0720812
-0.0631874
-0.0535017
-0.0439269
-0.035385
-0.0286698
-0.0247375
-0.0226327
-0.0207322
-0.0160837
-0.00787406
-0.00119553
-0.0501949
-0.0706059
-0.0848415
-0.0935133
-0.097034
-0.0960068
-0.0912573
-0.0837743
-0.0743789
-0.0639233
-0.0530699
-0.0426272
-0.0336002
-0.0268139
-0.0236136
-0.0224831
-0.021548
-0.0170009
-0.00785302
-0.000590987
-0.0795008
-0.0997961
-0.111016
-0.11517
-0.113662
-0.107926
-0.0991956
-0.0885686
-0.0768091
-0.0646246
-0.052482
-0.0410668
-0.03147
-0.0245762
-0.0222114
-0.0221827
-0.0223971
-0.0180021
-0.00792108
9.24985e-05
-0.116003
-0.134514
-0.141337
-0.139134
-0.131071
-0.119801
-0.106748
-0.0929248
-0.0789124
-0.0651661
-0.0518755
-0.0395898
-0.0294619
-0.0224327
-0.0207886
-0.0216941
-0.0229829
-0.0187887
-0.00806024
0.000725205
-0.155816
-0.171068
-0.172608
-0.162358
-0.146902
-0.130017
-0.112868
-0.096237
-0.0804055
-0.0654903
-0.051373
-0.0384675
-0.027949
-0.0207728
-0.0195765
-0.0210412
-0.0231368
-0.0191704
-0.00822309
0.00122363
-0.192922
-0.205141
-0.200902
-0.181791
-0.159395
-0.137593
-0.117047
-0.0982762
-0.0811977
-0.0655731
-0.0510089
-0.0377939
-0.0270816
-0.0197836
-0.0187256
-0.0203155
-0.022863
-0.0190993
-0.00835959
0.00155742
-0.223189
-0.23376
-0.22323
-0.195984
-0.168162
-0.142518
-0.119456
-0.0992343
-0.0814118
-0.0654543
-0.0507613
-0.0375133
-0.0267996
-0.0194379
-0.018269
-0.0196196
-0.0222808
-0.0186446
-0.00844034
0.00173674
-0.249104
-0.256179
-0.238824
-0.205415
-0.173857
-0.145377
-0.120593
-0.0994446
-0.0812179
-0.0651715
-0.0505631
-0.0374838
-0.0269206
-0.0195677
-0.0181363
-0.0190088
-0.0215286
-0.0179296
-0.00846136
0.00179314
-0.277967
-0.271896
-0.247559
-0.210285
-0.176542
-0.146217
-0.120432
-0.0987768
-0.0804179
-0.0645004
-0.0502001
-0.0375357
-0.0273326
-0.0201209
-0.0183197
-0.0184774
-0.0206177
-0.016968
-0.00840761
0.00175449
-0.306733
-0.276381
-0.248444
-0.210216
-0.176167
-0.145256
-0.119161
-0.0973219
-0.079015
-0.0634004
-0.0496454
-0.0377031
-0.0281377
-0.0212405
-0.0189345
-0.0180802
-0.0195704
-0.0157977
-0.0082586
0.00163526
-0.320501
-0.27704
-0.247176
-0.20783
-0.173704
-0.142729
-0.116873
-0.0953061
-0.0773464
-0.0621359
-0.0488501
-0.037429
-0.0282954
-0.021663
-0.0191591
-0.0178237
-0.0189552
-0.0150771
-0.00813445
0.00155934
-0.324089
-0.275317
-0.244697
-0.204472
-0.170559
-0.139796
-0.11438
-0.0932093
-0.0756573
-0.060862
-0.0480281
-0.0370991
-0.028376
-0.0220122
-0.019358
-0.0176048
-0.0183897
-0.0143894
-0.00799883
0.00148182
-0.323447
-0.273188
-0.242392
-0.201629
-0.167984
-0.137387
-0.112301
-0.0914147
-0.0741894
-0.0597668
-0.0473734
-0.0369387
-0.0286178
-0.022488
-0.0196148
-0.0173765
-0.0177753
-0.0136576
-0.007861
0.00138556
-0.321525
-0.271256
-0.240351
-0.199244
-0.165859
-0.135354
-0.11049
-0.0897985
-0.0728447
-0.058779
-0.0468384
-0.0369191
-0.0290019
-0.0230766
-0.0199174
-0.0171305
-0.017106
-0.0128784
-0.00772042
0.00126909
-0.319185
-0.269595
-0.23857
-0.197227
-0.164064
-0.133591
-0.108869
-0.0883101
-0.0715907
-0.0578735
-0.0463958
-0.0370064
-0.0294893
-0.0237429
-0.0202496
-0.0168732
-0.0163983
-0.0120672
-0.00757687
0.00113416
-0.317086
-0.26831
-0.237173
-0.195649
-0.162633
-0.132126
-0.107463
-0.0869744
-0.070449
-0.0570649
-0.0460502
-0.0371932
-0.0300641
-0.0244693
-0.020604
-0.0166103
-0.0156641
-0.0112358
-0.00743156
0.000981784
-0.315883
-0.267545
-0.236303
-0.194589
-0.161617
-0.131
-0.106305
-0.0858223
-0.0694452
-0.056371
-0.0458086
-0.0374755
-0.0307144
-0.0252421
-0.020975
-0.0163465
-0.0149132
-0.0103948
-0.00728617
0.000812644
-0.316095
-0.267408
-0.236057
-0.194092
-0.16104
-0.130236
-0.10542
-0.0848799
-0.0686021
-0.0558069
-0.045675
-0.0378452
-0.0314248
-0.026045
-0.0213559
-0.016087
-0.0141571
-0.00955635
-0.00714244
0.000628316
-0.318064
-0.267958
-0.236489
-0.194176
-0.160914
-0.129852
-0.10483
-0.0841732
-0.0679426
-0.0553873
-0.0456522
-0.0382929
-0.0321789
-0.0268619
-0.0217407
-0.0158376
-0.0134076
-0.0087321
-0.00700227
0.000429906
)
;

boundaryField
{
    inlet
    {
        type            freestreamPressure;
        freestreamValue uniform 0;
        supersonic      false;
        value           nonuniform List<scalar> 
40
(
0.215685
0.207373
0.19746
0.185821
0.172508
0.157836
0.142488
0.127626
0.114986
0.107
0.251363
0.248842
0.24609
0.243119
0.239942
0.236574
0.233032
0.229336
0.2255
0.22151
0.26284
0.262791
0.262509
0.261993
0.261236
0.260229
0.258967
0.257448
0.255672
0.253642
0.217389
0.222379
0.229843
0.237907
0.245359
0.251552
0.256259
0.259526
0.261546
0.262578
)
;
    }
    outlet
    {
        type            freestreamPressure;
        freestreamValue uniform 0;
        supersonic      false;
        value           nonuniform List<scalar> 
40
(
-5.48176e-08
-1.05805e-07
-1.68552e-07
-2.26205e-07
-2.5454e-07
-2.35473e-07
-1.73719e-07
-9.74161e-08
-3.64254e-08
-4.10933e-09
1.25018e-08
-1.3478e-12
-5.00469e-09
-4.95558e-09
-2.55049e-09
-3.42768e-10
-4.58792e-10
-4.38677e-09
-1.28877e-08
-2.63423e-08
4.86941e-07
4.42616e-07
3.93546e-07
3.37555e-07
2.77384e-07
2.16883e-07
1.59633e-07
1.08705e-07
6.65095e-08
3.43646e-08
-2.41348e-09
-1.7704e-08
-2.6139e-08
8.3854e-09
1.0808e-07
2.56225e-07
4.06191e-07
5.13309e-07
5.58212e-07
5.44136e-07
)
;
    }
    top
    {
        type            symmetryPlane;
    }
    bottom
    {
        type            symmetryPlane;
    }
    cylinder
    {
        type            zeroGradient;
    }
    frontandback
    {
        type            empty;
    }
}


// ************************************************************************* //
