/*--------------------------------*- C++ -*----------------------------------*\
| =========                 |                                                 |
| \\      /  F ield         | OpenFOAM: The Open Source CFD Toolbox           |
|  \\    /   O peration     | Version:  v1912                                 |
|   \\  /    A nd           | Website:  www.openfoam.com                      |
|    \\/     M anipulation  |                                                 |
\*---------------------------------------------------------------------------*/
FoamFile
{
    version     2.0;
    format      ascii;
    class       surfaceScalarField;
    location    "28";
    object      phi;
}
// * * * * * * * * * * * * * * * * * * * * * * * * * * * * * * * * * * * * * //

dimensions      [0 3 -1 0 0 0 0];
oriented        oriented;


internalField   nonuniform List<scalar> 
18940
(
0.000351722
-0.234478
0.234126
0.00135565
-0.216521
0.215518
0.00283544
-0.204988
0.203508
0.00462288
-0.197165
0.195378
0.00658921
-0.191349
0.189383
0.00863433
-0.186487
0.184442
0.0106856
-0.181997
0.179946
0.0126945
-0.177588
0.175579
0.0146313
-0.173138
0.171201
0.0164809
-0.168618
0.166768
0.0182388
-0.164049
0.162291
0.0199073
-0.159473
0.157805
0.0214935
-0.154938
0.153352
0.023007
-0.150486
0.148973
0.0244589
-0.146153
0.144701
0.0258606
-0.141962
0.14056
0.0272236
-0.137926
0.136563
0.0285582
-0.134041
0.132707
0.0298728
-0.130288
0.128974
-0.126628
0.125328
0.0311724
0.000375014
-0.234853
0.00139876
-0.217545
0.00288925
-0.206479
0.00468124
-0.198957
0.00664252
-0.19331
0.00867302
-0.188517
0.0107013
-0.184025
0.0126804
-0.179567
0.0145825
-0.17504
0.0163943
-0.170429
0.0181126
-0.165767
0.0197413
-0.161102
0.0212882
-0.156485
0.0227637
-0.151962
0.0241793
-0.147568
0.0255468
-0.14333
0.0268778
-0.139257
0.0281831
-0.135346
0.0294714
-0.131577
-0.127905
0.0307485
0.000396335
-0.235249
0.00143625
-0.218585
0.00293553
-0.207978
0.0047284
-0.20075
0.00668106
-0.195263
0.00869335
-0.19053
0.0106951
-0.186027
0.0126411
-0.181513
0.0145053
-0.176904
0.0162764
-0.172201
0.0179528
-0.167444
0.0195395
-0.162689
0.0210453
-0.157991
0.0224813
-0.153398
0.0238592
-0.148946
0.0251911
-0.144662
0.0264888
-0.140555
0.0277634
-0.136621
0.0290241
-0.132837
-0.129159
0.0302775
0.000410119
-0.235659
0.00146506
-0.21964
0.00297237
-0.209485
0.00476362
-0.202541
0.00670435
-0.197204
0.00869493
-0.19252
0.0106667
-0.187999
0.0125763
-0.183423
0.0143998
-0.178727
0.0161276
-0.173928
0.0177599
-0.169076
0.0193027
-0.164232
0.0207658
-0.159454
0.0221608
-0.154793
0.0234997
-0.150285
0.0247949
-0.145957
0.0260582
-0.141818
0.0273011
-0.137864
0.0285332
-0.13407
-0.130388
0.0297622
0.000421318
-0.236081
0.00148855
-0.220707
0.0030011
-0.210998
0.00478753
-0.204328
0.00671284
-0.199129
0.00867821
-0.194486
0.0106166
-0.189937
0.0124867
-0.185293
0.0142667
-0.180507
0.0159489
-0.175611
0.0175349
-0.170662
0.0190321
-0.165729
0.020451
-0.160873
0.0218037
-0.156145
0.0231025
-0.151584
0.0243599
-0.147214
0.0255878
-0.143046
0.0267979
-0.139074
0.0280006
-0.135272
-0.131591
0.0292044
0.000430361
-0.236511
0.00150711
-0.221784
0.00302198
-0.212513
0.00480037
-0.206106
0.00670684
-0.201035
0.00864356
-0.196422
0.0105453
-0.191839
0.012373
-0.18712
0.0141068
-0.182241
0.015741
-0.177245
0.0172788
-0.1722
0.0187287
-0.167179
0.020102
-0.162246
0.0214111
-0.157454
0.0226687
-0.152842
0.0238872
-0.148433
0.0250787
-0.144237
0.0262552
-0.14025
0.0274276
-0.136445
-0.132769
0.0286053
0.000437813
-0.236949
0.00152145
-0.222868
0.00303556
-0.214027
0.00480261
-0.207873
0.00668681
-0.20292
0.00859154
-0.198327
0.0104535
-0.193701
0.0122358
-0.188903
0.013921
-0.183926
0.015505
-0.178829
0.0169927
-0.173687
0.0183936
-0.16858
0.0197198
-0.163573
0.0209842
-0.158719
0.0221994
-0.154057
0.0233779
-0.149611
0.0245319
-0.145391
0.0256736
-0.141392
0.0268146
-0.137586
-0.13392
0.0279655
0.000443831
-0.237393
0.00153187
-0.223956
0.00304224
-0.215537
0.0047947
-0.209625
0.00665332
-0.204778
0.00852281
-0.200196
0.010342
-0.19552
0.0120762
-0.190637
0.0137102
-0.18556
0.0152419
-0.180361
0.0166776
-0.175123
0.0180279
-0.16993
0.0193056
-0.16485
0.0205238
-0.159937
0.0216953
-0.155228
0.0228326
-0.150748
0.0239478
-0.146507
0.0250534
-0.142498
0.0261618
-0.138694
-0.135043
0.0272848
0.000448518
-0.237841
0.00153866
-0.225046
0.00304247
-0.217041
0.00477721
-0.21136
0.00660703
-0.206608
0.00843816
-0.202028
0.0102116
-0.197293
0.0118951
-0.19232
0.0134756
-0.187141
0.0149529
-0.181838
0.0163347
-0.176505
0.0176327
-0.171228
0.0188603
-0.166078
0.0200309
-0.161108
0.0211573
-0.156355
0.0222518
-0.151843
0.0233266
-0.147581
0.0243945
-0.143566
0.0254686
-0.139768
-0.136136
0.0265621
0.00045195
-0.238293
0.0015421
-0.226136
0.00303671
-0.218535
0.00475076
-0.213074
0.00654872
-0.208406
0.00833853
-0.203817
0.0100635
-0.199018
0.0116938
-0.193951
0.0132186
-0.188666
0.0146394
-0.183259
0.0159653
-0.177831
0.0172092
-0.172472
0.018385
-0.167254
0.0195063
-0.162229
0.0205858
-0.157434
0.0216357
-0.152893
0.0226681
-0.148614
0.0236961
-0.144594
0.0247337
-0.140806
-0.137199
0.0257957
0.00045423
-0.238747
0.00154253
-0.227224
0.00302552
-0.220018
0.0047161
-0.214765
0.00647932
-0.210169
0.00822504
-0.205563
0.00989898
-0.200692
0.0114737
-0.195525
0.0129405
-0.190133
0.0143028
-0.184621
0.0155711
-0.179099
0.016759
-0.17366
0.0178809
-0.168376
0.0189509
-0.163299
0.0199814
-0.158465
0.0209844
-0.153896
0.0219719
-0.149601
0.0229571
-0.145579
0.0239552
-0.141804
-0.138226
0.0249829
0.000455512
-0.239203
0.0015404
-0.228309
0.00300958
-0.221488
0.00467411
-0.216429
0.00639992
-0.211895
0.00809898
-0.207262
0.00971947
-0.202313
0.0112364
-0.197042
0.0126432
-0.191539
0.013945
-0.185923
0.0151536
-0.180308
0.0162835
-0.17479
0.0173496
-0.169442
0.0183659
-0.164315
0.0193449
-0.159444
0.0202982
-0.154849
0.0212375
-0.150541
0.0221764
-0.146518
0.023131
-0.142759
-0.139216
0.0241205
0.000456076
-0.239659
0.00153631
-0.229389
0.00298973
-0.222941
0.00462584
-0.218065
0.00631181
-0.213581
0.00796186
-0.208912
0.00952674
-0.203878
0.0109839
-0.198499
0.0123288
-0.192884
0.0135683
-0.187162
0.0147153
-0.181455
0.015785
-0.175859
0.0167928
-0.170449
0.0177528
-0.165275
0.0186772
-0.160368
0.0195774
-0.155749
0.0204647
-0.151428
0.0213526
-0.147406
0.0222588
-0.143665
-0.140162
0.0232046
0.000456396
-0.240115
0.00153112
-0.230464
0.00296702
-0.224377
0.00457253
-0.219671
0.00621642
-0.215225
0.0078154
-0.210511
0.00932278
-0.205385
0.0107184
-0.199895
0.0119998
-0.194166
0.0131753
-0.188338
0.0142589
-0.182538
0.0152663
-0.176867
0.0162132
-0.171396
0.0171136
-0.166175
0.0179798
-0.161235
0.0188225
-0.156592
0.0196527
-0.152258
0.0204838
-0.148237
0.0213344
-0.144515
-0.141056
0.0222291
0.000457272
-0.240573
0.00152598
-0.231533
0.00294264
-0.225794
0.0045155
-0.221244
0.00611535
-0.216825
0.00766147
-0.212057
0.00910982
-0.206834
0.0104426
-0.201228
0.0116592
-0.195382
0.0127694
-0.189448
0.0137879
-0.183557
0.014731
-0.17781
0.0156144
-0.17228
0.0164519
-0.167013
0.0172555
-0.162038
0.0180352
-0.157372
0.0188015
-0.153024
0.0195671
-0.149002
0.0203517
-0.1453
-0.14189
0.0211854
0.000459851
-0.241032
0.00152219
-0.232595
0.0029178
-0.227189
0.00445611
-0.222782
0.00601025
-0.218379
0.00750213
-0.213549
0.0088903
-0.208222
0.0101593
-0.202497
0.0113103
-0.196533
0.0123544
-0.190492
0.0133068
-0.184509
0.0141841
-0.178687
0.0150019
-0.173097
0.0157734
-0.167785
0.0165099
-0.162775
0.0172208
-0.158082
0.017915
-0.153719
0.0186044
-0.149692
0.01931
-0.146005
-0.14265
0.0200705
0.000465517
-0.241498
0.00152107
-0.233651
0.00289379
-0.228562
0.00439591
-0.224284
0.00590297
-0.219886
0.00733952
-0.214986
0.00866682
-0.209549
0.00987163
-0.203701
0.0109569
-0.197619
0.0119347
-0.19147
0.0128207
-0.185395
0.0136315
-0.179498
0.014382
-0.173848
0.0150852
-0.168488
0.0157513
-0.163441
0.0163884
-0.15872
0.017004
-0.154334
0.0176082
-0.150296
0.0182217
-0.146619
-0.143313
0.0188845
0.000476602
-0.241975
0.00152523
-0.234699
0.00287309
-0.22991
0.00433698
-0.225748
0.00579542
-0.221344
0.00717573
-0.216366
0.00844187
-0.210815
0.00958281
-0.204842
0.0106031
-0.198639
0.0115154
-0.192382
0.0123357
-0.186215
0.0130799
-0.180242
0.0137623
-0.17453
0.0143944
-0.16912
0.0149854
-0.164032
0.0155425
-0.159277
0.0160721
-0.154864
0.0165807
-0.150805
0.0170812
-0.14712
-0.14383
0.0175984
0.000500685
-0.242475
0.00154189
-0.235741
0.00285973
-0.231228
0.00428121
-0.22717
0.00568882
-0.222752
0.00701216
-0.217689
0.00821745
-0.21202
0.00929571
-0.205921
0.0102528
-0.199596
0.0111022
-0.193232
0.0118596
-0.186973
0.0125399
-0.180922
0.0131555
-0.175146
0.0137153
-0.16968
0.0142251
-0.164541
0.0146885
-0.15974
0.0151072
-0.155283
0.01548
-0.151177
0.0158116
-0.147451
-0.144183
0.0161643
0.00055788
-0.243033
0.00157938
-0.236762
0.00285345
-0.232502
0.0042274
-0.228544
0.00558268
-0.224107
0.00684918
-0.218956
0.00799483
-0.213166
0.00901258
-0.206938
0.00990982
-0.200493
0.0107007
-0.194022
0.0114012
-0.187673
0.0120253
-0.181547
0.0125836
-0.175704
0.0130815
-0.170178
0.0135189
-0.164979
0.0138885
-0.16011
0.0141734
-0.155568
0.0143478
-0.151352
0.0144058
-0.147509
-0.144351
0.0145739
0.250627
0.00041131
-0.251038
0.250242
0.000384855
0.249865
0.000377492
0.249487
0.000377538
0.249107
0.000380401
0.248722
0.00038473
0.248332
0.000389801
0.247937
0.000395024
0.247537
0.000400006
0.247133
0.000404542
0.246724
0.000408535
0.246312
0.000411957
0.245897
0.000414789
0.24548
0.000417008
0.245062
0.000418489
0.244643
0.000419024
0.244225
0.000417564
0.243812
0.00041356
0.243414
0.000397813
0.000380584
0.252425
0.00101349
-0.253027
0.251787
0.00102223
0.251122
0.00104291
0.25043
0.00106951
0.249713
0.0010975
0.248972
0.0011255
0.248209
0.00115305
0.247424
0.00117965
0.246619
0.00120488
0.245795
0.00122847
0.244954
0.00125031
0.244095
0.00127038
0.243221
0.00128866
0.242333
0.00130515
0.241432
0.0013197
0.240519
0.00133212
0.239595
0.00134128
0.238662
0.00134691
0.237717
0.00134274
0.00133539
0.251079
0.00157928
-0.251644
0.250449
0.00165229
0.249766
0.00172553
0.249036
0.0017999
0.24826
0.00187305
0.247442
0.00194375
0.246583
0.00201167
0.245686
0.00207657
0.244753
0.00213822
0.243785
0.00219645
0.242784
0.0022512
0.241752
0.00230252
0.24069
0.00235049
0.2396
0.00239521
0.238483
0.00243668
0.23734
0.00247495
0.236172
0.00250949
0.234978
0.00254052
0.233755
0.00256568
0.00258913
0.246889
0.00201827
-0.247328
0.246381
0.00216034
0.245809
0.00229782
0.245177
0.00243213
0.244487
0.00256264
0.243742
0.00268853
0.242945
0.00280947
0.242096
0.00292529
0.241198
0.00303585
0.240254
0.00314107
0.239264
0.00324095
0.238231
0.00333563
0.237156
0.00342529
0.236041
0.00351022
0.234887
0.00359068
0.233695
0.00366702
0.232465
0.00373933
0.231197
0.00380823
0.22989
0.00387301
0.00393565
0.240591
0.00229495
-0.240867
0.240243
0.00250767
0.239828
0.00271366
0.239346
0.00291374
0.238801
0.00310788
0.238194
0.00329562
0.237527
0.0034766
0.236801
0.00365065
0.236019
0.00381762
0.235183
0.00397749
0.234294
0.00413031
0.233353
0.00427627
0.232363
0.00441569
0.231324
0.00454903
0.230238
0.0046768
0.229105
0.00479971
0.227926
0.00491833
0.226701
0.00503361
0.225428
0.0051457
0.00525626
0.232965
0.00241772
-0.233087
0.232772
0.00270042
0.23251
0.00297522
0.232182
0.00324241
0.231787
0.00350204
0.231329
0.00375379
0.230809
0.00399732
0.230227
0.00423241
0.229586
0.0044589
0.228886
0.00467675
0.228131
0.00488606
0.22732
0.00508707
0.226455
0.0052802
0.225538
0.00546608
0.224569
0.00564548
0.22355
0.00581942
0.222479
0.00598895
0.221357
0.00615543
0.220183
0.00631971
0.00648362
0.224705
0.00241666
-0.224704
0.224638
0.00276681
0.224505
0.00310831
0.224306
0.00344109
0.224043
0.00376507
0.223717
0.00407998
0.223329
0.00438546
0.22288
0.00468123
0.222372
0.00496711
0.221806
0.00524304
0.221183
0.00550911
0.220504
0.00576559
0.219771
0.00601299
0.218985
0.00625208
0.218147
0.00648392
0.217257
0.00670984
0.216314
0.0069314
0.215319
0.00715046
0.21427
0.00736854
0.0075878
0.216331
0.00232743
-0.216242
0.216357
0.00274153
0.216319
0.00314639
0.216218
0.0035417
0.216056
0.00392726
0.215833
0.00430272
0.215551
0.00466773
0.21521
0.00502192
0.214812
0.00536506
0.214358
0.00569705
0.213849
0.00601795
0.213287
0.00632803
0.212672
0.00662787
0.212006
0.00691838
0.211289
0.00720084
0.210522
0.00747697
0.209704
0.00774887
0.208836
0.00801901
0.207914
0.00828974
0.00856371
0.208188
0.00218288
-0.208043
0.208272
0.00265721
0.208297
0.00312172
0.208262
0.00357599
0.20817
0.00401967
0.20802
0.00445236
0.207815
0.00487362
0.207553
0.00528304
0.207238
0.0056803
0.20687
0.00606522
0.20645
0.00643781
0.20598
0.00679832
0.20546
0.00714733
0.204893
0.00748585
0.204278
0.0078154
0.203617
0.00813808
0.202909
0.00845659
0.202154
0.00877418
0.20135
0.00909426
0.0094203
0.200472
0.00200969
-0.200299
0.200588
0.00254071
0.200649
0.00306135
0.200654
0.00357106
0.200604
0.0040694
0.2005
0.00455588
0.200344
0.00502998
0.200136
0.0054912
0.199877
0.00593913
0.199569
0.00637349
0.199212
0.00679419
0.198809
0.00720139
0.198361
0.00759564
0.197869
0.00797797
0.197334
0.0083501
0.196758
0.00871446
0.19614
0.00907452
0.19548
0.00943437
0.194775
0.00979891
0.0101729
0.193276
0.00182751
-0.193094
0.193405
0.00241215
0.19348
0.00298583
0.193503
0.00354789
0.193475
0.00409778
0.193396
0.00463492
0.193267
0.0051587
0.19309
0.00566852
0.192865
0.00616384
0.192595
0.00664425
0.192279
0.00710952
0.191921
0.00755966
0.191521
0.00799512
0.191083
0.00841681
0.190606
0.00882662
0.190093
0.00922716
0.189545
0.00962281
0.188961
0.0100186
0.188338
0.0104215
0.010838
0.186624
0.00164964
-0.186446
0.18675
0.00228542
0.186827
0.00290965
0.186853
0.0035215
0.186831
0.00412033
0.18676
0.00470549
0.186642
0.00527624
0.186479
0.00583188
0.186271
0.00637173
0.18602
0.00689521
0.185728
0.0074019
0.185396
0.00789157
0.185027
0.00836446
0.184622
0.00882124
0.184185
0.00926382
0.183717
0.00969476
0.183221
0.0101195
0.182695
0.0105438
0.182139
0.0109779
0.0114303
0.180496
0.00148439
-0.18033
0.180611
0.00216948
0.180679
0.00284229
0.180698
0.00350188
0.180671
0.00414758
0.180598
0.00477862
0.18048
0.00539416
0.180319
0.00599335
0.180115
0.00657539
0.179871
0.00713948
0.179588
0.00768496
0.179268
0.00821127
0.178914
0.00871833
0.178529
0.00920633
0.178116
0.00967708
0.177678
0.0101326
0.177218
0.0105797
0.176738
0.0110238
0.176235
0.0114811
0.0119608
0.17485
0.00133659
-0.174702
0.17495
0.00206949
0.175003
0.00278933
0.175009
0.00349513
0.174971
0.00418608
0.174888
0.00486132
0.174762
0.00551992
0.174595
0.00616091
0.174387
0.00678329
0.17414
0.00738606
0.173857
0.00796826
0.173539
0.00852892
0.17319
0.00906751
0.172813
0.00958348
0.172412
0.0100783
0.171992
0.0105527
0.171556
0.0110152
0.171111
0.011469
0.170652
0.0119401
0.012435
0.169635
0.00120854
-0.169507
0.169716
0.00198818
0.169752
0.00275381
0.169743
0.00350453
0.169689
0.00423943
0.169593
0.00495755
0.169455
0.00565785
0.169277
0.00633924
0.169059
0.00700056
0.168805
0.00764054
0.168515
0.00825791
0.168193
0.00885122
0.167841
0.00941937
0.167464
0.00996079
0.167066
0.0104763
0.166654
0.0109643
0.166234
0.0114354
0.165816
0.0118865
0.165396
0.0123607
0.0128519
0.164798
0.00110106
-0.16469
0.164859
0.00192636
0.164876
0.00273675
0.16485
0.0035313
0.16478
0.00430905
0.164669
0.00506892
0.164517
0.0058098
0.164325
0.00653047
0.164096
0.00722958
0.163831
0.00790565
0.163532
0.00855706
0.163202
0.00918185
0.162843
0.00977823
0.16246
0.0103434
0.162059
0.0108771
0.16165
0.0113741
0.161238
0.0118475
0.160843
0.0122811
0.160457
0.0127465
0.0131996
0.160285
0.00101366
-0.160198
0.160328
0.00188358
0.160327
0.00273774
0.160283
0.00357511
0.160198
0.00439465
0.160071
0.00519521
0.159906
0.0059756
0.159702
0.0067345
0.159461
0.00747039
0.159185
0.00818158
0.158876
0.00886612
0.158536
0.00952158
0.158169
0.0101454
0.157779
0.0107334
0.157372
0.0112839
0.15696
0.0117864
0.156551
0.0122565
0.156176
0.0126556
0.15582
0.0131024
0.0134525
0.156052
0.000944535
-0.155983
0.156077
0.00185834
0.15606
0.00275512
0.156001
0.00363415
0.155901
0.0044943
0.155762
0.00533435
0.155585
0.00615305
0.15537
0.00694898
0.15512
0.00772052
0.154836
0.00846578
0.154519
0.00918254
0.154173
0.00986796
0.1538
0.0105188
0.153404
0.0111294
0.152991
0.0116966
0.152574
0.0122031
0.152165
0.0126656
0.151811
0.0130092
0.15148
0.0134341
0.0135803
0.152055
0.000891772
-0.152002
0.152066
0.0018478
0.152035
0.0027857
0.151964
0.00370489
0.151855
0.00460403
0.151707
0.00548192
0.151523
0.00633729
0.151303
0.00716864
0.151049
0.00797425
0.150763
0.00875211
0.150446
0.00949982
0.150099
0.0102142
0.149727
0.0108916
0.149331
0.0115251
0.148917
0.0121103
0.148498
0.0126225
0.148085
0.0130783
0.147752
0.0133422
0.147461
0.0137252
0.0135323
0.148256
-0.148218
0.000853771
0.148255
0.00184806
0.148216
0.00282515
0.148138
0.00378228
0.148024
0.00471805
0.147875
0.00563138
0.147691
0.00652098
0.147475
0.00738531
0.147226
0.0082226
0.146948
0.00903075
0.14664
0.0098073
0.146305
0.0105489
0.145945
0.0112518
0.145562
0.011908
0.145159
0.0125133
0.144745
0.0130366
0.144325
0.0134982
0.143977
0.0136909
0.143721
0.0139812
0.0129018
0.254219
7.39165e-05
-0.254293
0.254183
3.59957e-05
0.254151
3.19148e-05
0.254111
4.06138e-05
0.254056
5.48204e-05
0.253984
7.2452e-05
0.253891
9.2207e-05
0.253778
0.000112964
0.253644
0.000133912
0.25349
0.000154549
0.253316
0.000174436
0.253122
0.00019328
0.252911
0.000211511
0.252681
0.000230123
0.252433
0.000247322
0.252171
0.000262425
0.251896
0.000274984
0.251611
0.000284927
0.251325
0.000286411
0.000286318
0.255905
-0.000238798
-0.255592
0.256157
-0.000215736
0.256364
-0.000175601
0.256527
-0.000122569
0.256645
-6.31659e-05
0.256718
8.95859e-09
0.256744
6.58125e-05
0.256724
0.000133152
0.256657
0.000201122
0.256543
0.000268812
0.256382
0.000334965
0.256177
0.000398393
0.25593
0.000457939
0.255637
0.000523596
0.255299
0.000585172
0.25492
0.000641901
0.254501
0.000693886
0.254045
0.000741108
0.253552
0.000778898
0.000811459
0.25125
-0.000889422
-0.2506
0.251829
-0.000793951
0.252342
-0.000688649
0.252793
-0.000573652
0.253182
-0.000452473
0.253509
-0.000327352
0.253775
-0.00019943
0.253978
-7.01556e-05
0.254119
6.04973e-05
0.254195
0.000192144
0.254209
0.000320772
0.254162
0.000445981
0.25405
0.000570037
0.25388
0.000693619
0.253651
0.00081343
0.253365
0.00092828
0.253021
0.00103763
0.252621
0.0011414
0.252162
0.00123765
0.00132919
0.242897
-0.00181573
-0.241971
0.243751
-0.0016482
0.244536
-0.00147342
0.245253
-0.00129064
0.245902
-0.00110153
0.246483
-0.000907884
0.246994
-0.000711042
0.247436
-0.000512263
0.247809
-0.000312228
0.24811
-0.000108285
0.248338
9.18652e-05
0.2485
0.000284542
0.248591
0.000479256
0.248613
0.000670956
0.248568
0.000858658
0.248455
0.00104146
0.248274
0.00121856
0.248026
0.00138958
0.24771
0.00155347
0.00171079
0.232808
-0.0029386
-0.231685
0.233864
-0.00270356
0.234851
-0.00246104
0.235771
-0.00221059
0.236623
-0.00195313
0.237405
-0.00169013
0.238117
-0.00142301
0.238758
-0.00115298
0.239326
-0.00088099
0.239826
-0.000607831
0.240255
-0.00033663
0.240608
-6.896e-05
0.24089
0.000197349
0.241101
0.000460348
0.24124
0.000719687
0.241307
0.000973942
0.241303
0.00122235
0.241229
0.00146431
0.241083
0.00169899
0.00192633
0.222256
-0.00418656
-0.221008
0.223441
-0.00388889
0.224562
-0.00358217
0.225618
-0.00326654
0.226608
-0.0029428
0.22753
-0.00261236
0.228384
-0.00227678
0.229168
-0.00193751
0.229883
-0.00159599
0.230529
-0.00125355
0.231104
-0.000911751
0.231607
-0.000571882
0.232039
-0.000234804
0.232402
9.78878e-05
0.232694
0.000427783
0.232914
0.00075377
0.233063
0.00107309
0.233142
0.0013857
0.23315
0.00169095
0.00198862
0.212013
-0.00550277
-0.210697
0.213271
-0.00514663
0.214468
-0.00477934
0.215603
-0.00440153
0.216675
-0.00401423
0.217681
-0.00361903
0.218622
-0.00321773
0.219497
-0.00281205
0.220304
-0.00240363
0.221045
-0.00199392
0.221717
-0.00158432
0.222322
-0.00117624
0.222857
-0.000770477
0.223323
-0.000367755
0.223727
2.40645e-05
0.224059
0.000421793
0.224322
0.000809743
0.224517
0.00119046
0.224644
0.00156384
0.00192947
0.202487
-0.00684597
-0.201144
0.203775
-0.00643467
0.205005
-0.00600984
0.206176
-0.00557247
0.207286
-0.00512403
0.208333
-0.0046665
0.209318
-0.00420201
0.210238
-0.00373254
0.211095
-0.00325993
0.211886
-0.00278578
0.212614
-0.00231158
0.213276
-0.00183867
0.213874
-0.00136815
0.214407
-0.000900976
0.21487
-0.000438534
0.215278
1.32004e-05
0.215615
0.000472409
0.215889
0.00091696
0.216098
0.00135501
0.00178521
0.193833
-0.00818869
-0.192491
0.195124
-0.00772478
0.196358
-0.00724464
0.197535
-0.00674959
0.198653
-0.00624175
0.19971
-0.0057237
0.200706
-0.00519797
0.201641
-0.00466687
0.202513
-0.00413246
0.203324
-0.00359649
0.204073
-0.00306051
0.20476
-0.00252585
0.205386
-0.00199369
0.20595
-0.00146496
0.206452
-0.000941074
0.206889
-0.000423313
0.207271
8.97802e-05
0.207589
0.000598763
0.207847
0.00109766
0.00158875
0.186062
-0.00951436
-0.184736
0.187337
-0.00899981
0.188558
-0.00846586
0.189722
-0.00791419
0.190829
-0.00734791
0.191875
-0.00677042
0.192862
-0.00618477
0.193789
-0.00559363
0.194656
-0.00499927
0.195463
-0.0044036
0.19621
-0.00380817
0.196899
-0.00321431
0.197528
-0.00262316
0.198099
-0.0020357
0.198611
-0.00145292
0.199063
-0.000875742
0.199458
-0.000304908
0.199797
0.000259997
0.200076
0.000817987
0.00136655
0.179101
-0.0108144
-0.177801
0.180352
-0.0102509
0.18155
-0.00966397
0.182692
-0.0090559
0.183775
-0.00843139
0.1848
-0.00779489
0.185765
-0.00715003
0.186671
-0.00649988
0.187519
-0.00584695
0.188309
-0.00519319
0.189041
-0.00454016
0.189715
-0.00388913
0.190333
-0.00324116
0.190895
-0.0025972
0.1914
-0.0019581
0.191849
-0.00132473
0.192242
-0.000697607
0.192582
-7.96945e-05
0.192865
0.000534358
0.00113772
0.172849
-0.0120858
-0.171578
0.174074
-0.0114752
0.175245
-0.0108354
0.176359
-0.0101703
0.177415
-0.00948711
0.178412
-0.00879144
0.179349
-0.00808757
0.180228
-0.007379
0.18105
-0.0066684
0.181814
-0.00595775
0.182523
-0.00524853
0.183175
-0.00454188
0.183773
-0.0038388
0.184316
-0.00314013
0.184805
-0.00244666
0.185239
-0.00175924
0.18562
-0.00107862
0.185947
-0.000406371
0.186223
0.000257662
0.000915266
0.167199
-0.0133294
-0.165955
0.168397
-0.012674
0.169543
-0.0119806
0.170629
-0.0112571
0.171656
-0.0105141
0.172623
-0.00975853
0.173531
-0.00899536
0.174381
-0.00822852
0.175173
-0.00746079
0.175909
-0.00669406
0.176591
-0.00592964
0.177217
-0.00516854
0.17779
-0.00441159
0.178309
-0.00365957
0.178776
-0.0029132
0.17919
-0.00217329
0.179552
-0.00144035
0.179861
-0.000715112
0.180123
-4.34312e-06
0.000707506
0.16205
-0.0145489
-0.160831
0.163228
-0.0138522
0.164351
-0.0131032
0.165413
-0.0123187
0.166413
-0.011514
0.167351
-0.0106971
0.16823
-0.00987377
0.169049
-0.00904836
0.169812
-0.00822364
0.170519
-0.00740127
0.171172
-0.00658232
0.171771
-0.00576758
0.172317
-0.00495769
0.172811
-0.00415333
0.173253
-0.00335512
0.173644
-0.00256384
0.173983
-0.00178014
0.174274
-0.00100535
0.17451
-0.000241278
0.000516086
0.157323
-0.0157511
-0.156121
0.158488
-0.0150172
0.159593
-0.0142088
0.160634
-0.0133594
0.16161
-0.0124899
0.162522
-0.011609
0.163372
-0.0107238
0.164162
-0.009839
0.164896
-0.00895707
0.165574
-0.00807925
0.166198
-0.00720626
0.166769
-0.00633854
0.167287
-0.0054765
0.167755
-0.00462064
0.168171
-0.00377152
0.168537
-0.00292983
0.168853
-0.00209636
0.16912
-0.00127206
0.169337
-0.00045806
0.000345867
0.152953
-0.0169483
-0.151756
0.154116
-0.0161793
0.155211
-0.015304
0.156235
-0.0143838
0.157189
-0.0134438
0.158075
-0.0124947
0.158896
-0.0115452
0.159657
-0.0105998
0.16036
-0.00966039
0.161008
-0.00872742
0.161603
-0.00780101
0.162146
-0.00688112
0.162637
-0.00596782
0.163078
-0.00506137
0.163469
-0.00416225
0.16381
-0.00327107
0.164102
-0.00238859
0.164346
-0.00151566
0.164541
-0.000653492
0.000196929
0.148897
-0.0181695
-0.147676
0.150072
-0.0173538
0.151163
-0.0163951
0.152173
-0.0153941
0.153104
-0.0143743
0.15396
-0.013351
0.154749
-0.0123347
0.155478
-0.0113282
0.156149
-0.0103316
0.156766
-0.00934443
0.157331
-0.00836584
0.157845
-0.00739506
0.158309
-0.0064317
0.158723
-0.00547582
0.159089
-0.00452774
0.159405
-0.00358804
0.159674
-0.00265749
0.159896
-0.00173696
0.16007
-0.000827457
6.86168e-05
0.145125
-0.0194786
-0.143815
0.146332
-0.0185616
0.14742
-0.0174823
0.14841
-0.016385
0.149309
-0.0152733
0.150128
-0.0141698
0.15088
-0.0130859
0.151571
-0.0120197
0.152208
-0.0109681
0.152792
-0.00992903
0.153327
-0.0089004
0.153812
-0.0078806
0.154249
-0.0068688
0.154638
-0.00586485
0.15498
-0.00486903
0.155273
-0.00388189
0.15552
-0.00290425
0.15572
-0.00193715
0.155875
-0.000981632
-3.96246e-05
0.14165
-0.0209445
-0.140184
0.142888
-0.0197995
0.143953
-0.0185474
0.144903
-0.0173343
0.145754
-0.0161244
0.146525
-0.0149408
0.147231
-0.0137925
0.147882
-0.012671
0.148483
-0.0115687
0.149035
-0.0104814
0.149541
-0.00940559
0.149999
-0.00833901
0.150411
-0.00728056
0.150776
-0.00623002
0.151095
-0.00518773
0.151367
-0.00415431
0.151594
-0.00313066
0.151774
-0.00211796
0.15191
-0.0011177
-0.000131481
0.138541
-0.137136
-0.0223497
0.139692
-0.0209506
0.140717
-0.0195727
0.141588
-0.0182055
0.142373
-0.016909
0.143093
-0.0156607
0.143755
-0.0144544
0.144367
-0.013283
0.144934
-0.0121354
0.145456
-0.0110037
0.145934
-0.00988339
0.146367
-0.00877199
0.146755
-0.00766844
0.147097
-0.00657266
0.147395
-0.00548515
0.147647
-0.00440673
0.147855
-0.00333839
0.148018
-0.00228116
0.148137
-0.00123664
-0.000212124
0.0304145
0.111571
-0.110106
-0.0318795
0.0289232
0.114606
-0.113114
0.0274027
0.117775
-0.116255
0.0258497
0.121103
-0.11955
0.0242606
0.124622
-0.123033
0.0226326
0.128372
-0.126744
0.0209635
0.132412
-0.130743
0.0192519
0.13682
-0.135109
0.0174969
0.141699
-0.139944
0.0156989
0.147179
-0.145381
0.0138594
0.153418
-0.151578
0.0119826
0.160599
-0.158723
0.0100772
0.168923
-0.167017
0.00815958
0.178573
-0.176655
0.00625936
0.189671
-0.18777
0.00442607
0.202181
-0.200348
0.00273857
0.215773
-0.214085
0.001316
0.229604
-0.228181
0.000325726
0.241917
-0.240927
0.249622
-0.249297
0.0302372
0.113029
-0.0316955
0.0287526
0.11609
0.0272392
0.119289
0.0256933
0.122649
0.0241117
0.126203
0.0224912
0.129992
0.0208297
0.134074
0.0191255
0.138525
0.0173778
0.143447
0.0155868
0.14897
0.0137541
0.15525
0.0118844
0.162469
0.00998678
0.17082
0.00807863
0.180481
0.00619058
0.191559
0.00437367
0.203998
0.00270824
0.217438
0.00131287
0.230999
0.000349685
0.242881
0.249972
0.0300182
0.114479
-0.0314676
0.0285426
0.117566
0.0270384
0.120793
0.0255019
0.124186
0.0239298
0.127775
0.0223191
0.131603
0.0206674
0.135725
0.0189729
0.140219
0.0172347
0.145185
0.015453
0.150752
0.0136296
0.157074
0.0117694
0.164329
0.00988206
0.172708
0.00798571
0.182377
0.00611195
0.193432
0.00431284
0.205797
0.00266921
0.219082
0.00129804
0.23237
0.000352962
0.243826
0.250325
0.0297591
0.115917
-0.0311974
0.0282947
0.11903
0.0268018
0.122286
0.0252768
0.125711
0.0237163
0.129336
0.0221173
0.133202
0.0204774
0.137365
0.0187947
0.141902
0.0170682
0.146912
0.015298
0.152522
0.0134861
0.158885
0.0116377
0.166178
0.00976292
0.174582
0.00788052
0.18426
0.00602292
0.19529
0.00424292
0.207577
0.00262149
0.220703
0.00127394
0.233718
0.000348112
0.244752
0.250673
0.0294621
0.117342
-0.0308874
0.0280107
0.120482
0.026531
0.123766
0.0250193
0.127222
0.0234723
0.130883
0.021887
0.134787
0.0202607
0.138991
0.0185917
0.143571
0.0168788
0.148625
0.0151222
0.154279
0.013324
0.160684
0.0114895
0.168012
0.00962937
0.176443
0.00776301
0.186126
0.00592358
0.197129
0.00416451
0.209336
0.0025668
0.222301
0.00124413
0.235041
0.000339413
0.245656
0.251013
0.0291297
0.118753
-0.0305405
0.0276929
0.121918
0.026228
0.125231
0.0247312
0.128719
0.0231993
0.132415
0.0216291
0.136358
0.0200182
0.140602
0.0183646
0.145224
0.0166671
0.150322
0.014926
0.15602
0.0131435
0.162466
0.011325
0.169831
0.00948161
0.178286
0.00763343
0.187974
0.00581429
0.198949
0.00407823
0.211072
0.00250616
0.223873
0.00121
0.236337
0.000328032
0.246538
0.251341
0.0287646
0.120148
-0.0301599
0.0273436
0.123339
0.0258947
0.12668
0.0244141
0.1302
0.0228985
0.13393
0.0213449
0.137911
0.0197508
0.142196
0.0181142
0.146861
0.0164339
0.152003
0.01471
0.157743
0.012945
0.164231
0.0111444
0.171631
0.00931992
0.18011
0.00749205
0.189802
0.00569536
0.200745
0.00398443
0.212783
0.00243997
0.225418
0.00117208
0.237605
0.000314674
0.247396
0.251655
0.0283697
0.121527
-0.0297487
0.0269652
0.124744
0.025533
0.128112
0.0240695
0.131663
0.0225713
0.135429
0.0210355
0.139447
0.0194595
0.143772
0.0178412
0.148479
0.0161795
0.153664
0.0144746
0.159448
0.0127289
0.165977
0.0109482
0.173412
0.00914459
0.181914
0.00733914
0.191608
0.00556706
0.202517
0.00388339
0.214467
0.00236859
0.226932
0.0011309
0.238842
0.000299942
0.248227
0.251955
0.0279477
0.12289
-0.0293105
0.0265599
0.126132
0.0251449
0.129527
0.023699
0.133109
0.022219
0.136909
0.0207018
0.140964
0.0191449
0.145329
0.0175462
0.150078
0.0159046
0.155306
0.0142202
0.161133
0.0124955
0.167702
0.0107366
0.175171
0.00895584
0.183695
0.00717493
0.193389
0.00542964
0.204263
0.00377542
0.216121
0.0022924
0.228416
0.00108693
0.240048
0.00028425
0.249029
0.25224
0.0275015
0.124237
-0.0288487
0.0261299
0.127503
0.0247319
0.130925
0.0233038
0.134537
0.0218423
0.13837
0.0203444
0.142462
0.0188075
0.146866
0.0172296
0.151656
0.0156093
0.156926
0.013947
0.162795
0.012245
0.169404
0.0105097
0.176906
0.00875388
0.185451
0.00699962
0.195143
0.00528334
0.205979
0.00366081
0.217744
0.00221174
0.229865
0.00104054
0.241219
0.000267845
0.249802
0.252507
0.0270333
0.125571
-0.0283665
0.0256768
0.12886
0.0242952
0.132306
0.0228846
0.135948
0.0214417
0.139813
0.0199636
0.14394
0.0184475
0.148382
0.0168914
0.153212
0.0152939
0.158524
0.013655
0.164434
0.0119775
0.171081
0.0102677
0.178616
0.00853883
0.18718
0.00681342
0.196868
0.00512839
0.207664
0.00353981
0.219332
0.00212692
0.231277
0.000992
0.242354
0.000250885
0.250543
0.252758
0.0265447
0.126892
-0.0278663
0.0252015
0.130203
0.023835
0.133673
0.0224413
0.137341
0.0210171
0.141237
0.0195591
0.145398
0.0180647
0.149877
0.0165315
0.154745
0.014958
0.160097
0.0133443
0.166048
0.0116929
0.172733
0.0100107
0.180298
0.00831081
0.188879