/*--------------------------------*- C++ -*----------------------------------*\
  =========                 |
  \\      /  F ield         | OpenFOAM: The Open Source CFD Toolbox
   \\    /   O peration     | Website:  https://openfoam.org
    \\  /    A nd           | Version:  6.0
     \\/     M anipulation  |
\*---------------------------------------------------------------------------*/
FoamFile
{
    version     2.0;
    format      ascii;
    class       volVectorField;
    location    "9.9";
    object      U;
}
// * * * * * * * * * * * * * * * * * * * * * * * * * * * * * * * * * * * * * //

dimensions      [0 1 -1 0 0 0 0];

internalField   nonuniform List<vector> 
9600
(
(1.56866 -18.9513 -5.64697e-20)
(0.309745 -17.9888 -6.46523e-20)
(0.332001 -17.1985 1.01487e-20)
(0.443746 -16.4777 -4.28164e-20)
(0.472054 -15.8027 1.98997e-20)
(0.492045 -15.1506 -1.61438e-20)
(0.512668 -14.5161 -3.38503e-20)
(0.529336 -13.9018 3.33055e-20)
(0.542175 -13.3117 1.17758e-20)
(0.55232 -12.7488 -1.80883e-19)
(0.560498 -12.2145 1.00727e-19)
(0.567204 -11.709 -8.87261e-20)
(0.57282 -11.2319 -4.01359e-20)
(0.577632 -10.7819 5.50904e-20)
(0.581865 -10.3578 -3.66663e-20)
(0.585662 -9.95788 -1.9521e-20)
(0.589073 -9.58041 3.81e-20)
(0.592721 -9.22295 -4.23254e-20)
(0.598464 -8.88225 -1.10378e-20)
(0.602092 -8.55449 -2.30343e-20)
(2.31127 -18.8862 -6.07073e-19)
(1.01911 -17.9931 -3.38633e-19)
(1.011 -17.2129 1.66614e-19)
(1.09407 -16.4921 -2.22472e-19)
(1.09529 -15.8166 5.55539e-20)
(1.08901 -15.1627 -6.59195e-20)
(1.08401 -14.5255 2.80664e-19)
(1.07588 -13.9087 -5.47494e-21)
(1.06495 -13.3166 -1.81419e-19)
(1.05248 -12.7521 2.36874e-19)
(1.03926 -12.2166 1.21259e-19)
(1.02578 -11.7104 -8.55014e-21)
(1.01238 -11.2327 1.50269e-19)
(0.999298 -10.7824 -7.91489e-21)
(0.986688 -10.3581 6.01057e-20)
(0.974612 -9.95821 1.56685e-19)
(0.963033 -9.58099 -2.11475e-19)
(0.952572 -9.22401 9.03625e-20)
(0.945215 -8.88391 -4.38188e-20)
(0.935911 -8.55694 9.12201e-20)
(3.05289 -18.7934 9.86731e-19)
(1.72885 -17.9698 7.18315e-19)
(1.69113 -17.2002 -1.04574e-18)
(1.74577 -16.4803 -5.02775e-19)
(1.71987 -15.8054 4.04147e-19)
(1.68713 -15.1505 7.2676e-19)
(1.65628 -14.5117 -8.86939e-19)
(1.62315 -13.8934 2.27383e-19)
(1.58827 -13.3002 -4.23056e-19)
(1.55305 -12.7351 -2.96216e-19)
(1.51833 -12.1994 2.65089e-19)
(1.4846 -11.6932 -1.45085e-19)
(1.45215 -11.2158 -4.04733e-19)
(1.42115 -10.7659 2.20036e-19)
(1.39169 -10.3422 -7.12324e-20)
(1.36374 -9.94295 -8.4412e-21)
(1.33719 -9.56659 6.60448e-20)
(1.31268 -9.21068 1.51373e-19)
(1.29227 -8.87174 -2.05647e-19)
(1.26991 -8.54623 1.74187e-19)
(3.78977 -18.672 -5.40824e-19)
(2.43756 -17.9187 2.64913e-19)
(2.37116 -17.1606 3.5075e-19)
(2.39765 -16.4425 5.05687e-19)
(2.34469 -15.769 -1.62395e-19)
(2.28535 -15.1141 1.56511e-19)
(2.22848 -14.4747 -1.09335e-19)
(2.17018 -13.856 2.53122e-19)
(2.11123 -13.2627 5.80755e-19)
(2.05318 -12.6979 -3.43693e-19)
(1.99691 -12.1629 -2.1222e-19)
(1.9429 -11.6577 -2.37734e-19)
(1.89139 -11.1813 -8.69049e-20)
(1.84248 -10.7326 1.99156e-19)
(1.79619 -10.3101 -1.24866e-19)
(1.7524 -9.91217 -4.20513e-19)
(1.71094 -9.53725 3.26286e-19)
(1.67246 -9.18298 -4.28452e-19)
(1.63908 -8.84576 -2.40062e-20)
(1.60362 -8.5224 -2.05874e-20)
(4.52229 -18.5222 -6.89473e-19)
(3.14486 -17.84 -1.27293e-18)
(3.05031 -17.094 1.50445e-18)
(3.04876 -16.3785 -4.1984e-19)
(2.96872 -15.7074 -1.24185e-18)
(2.88269 -15.0535 -2.78952e-20)
(2.79964 -14.4144 -4.75429e-19)
(2.71604 -13.7963 -1.34898e-19)
(2.63294 -13.2039 -3.59492e-19)
(2.552 -12.6405 8.48879e-19)
(2.47417 -12.1071 -1.16822e-18)
(2.39989 -11.6037 2.99497e-19)
(2.32936 -11.1293 -5.00736e-19)
(2.26258 -10.6825 6.79347e-19)
(2.19951 -10.2618 -6.27717e-19)
(2.13995 -9.86586 3.3546e-19)
(2.08366 -9.493 -1.96427e-19)
(2.03133 -9.14092 -7.12962e-21)
(1.98512 -8.806 2.09313e-19)
(1.93654 -8.48549 -2.60508e-20)
(5.24872 -18.3441 1.86891e-19)
(3.84944 -17.7336 1.18945e-18)
(3.72747 -17.0004 7.76083e-19)
(3.69799 -16.2883 -5.29132e-19)
(3.59091 -15.6204 1.37309e-18)
(3.4781 -14.9685 2.19493e-19)
(3.36876 -14.3309 1.78122e-20)
(3.25978 -13.7144 -6.0655e-19)
(3.15247 -13.124 1.24186e-19)
(3.04864 -12.5628 8.29223e-19)
(2.94927 -12.032 -3.90798e-19)
(2.85478 -11.5313 7.34143e-19)
(2.76528 -11.0596 -1.90407e-19)
(2.68072 -10.6155 -1.64499e-19)
(2.60095 -10.1975 3.61233e-19)
(2.52572 -9.8041 3.94965e-19)
(2.4547 -9.43388 -2.16311e-19)
(2.38868 -9.08457 4.31393e-19)
(2.32979 -8.75252 -4.75208e-19)
(2.26813 -8.4356 6.17903e-19)
(5.96829 -18.1378 1.60451e-18)
(4.55044 -17.5995 -2.0651e-18)
(4.40166 -16.8798 -1.79452e-18)
(4.34434 -16.1719 1.89455e-18)
(4.21021 -15.5082 -6.4259e-19)
(4.07056 -14.8592 -9.45844e-19)
(3.93485 -14.2241 8.7582e-19)
(3.80044 -13.6102 4.67597e-20)
(3.66892 -13.0229 3.07678e-19)
(3.54224 -12.465 -9.83727e-19)
(3.4214 -11.9377 4.95254e-19)
(3.30677 -11.4406 -4.04008e-19)
(3.19841 -10.9724 1.14097e-18)
(3.09617 -10.5318 -6.25348e-19)
(2.99982 -10.1171 4.23485e-20)
(2.90902 -9.72697 -8.64637e-20)
(2.82342 -9.36001 -8.2977e-20)
(2.74388 -9.01403 4.47711e-19)
(2.67249 -8.6854 3.26231e-20)
(2.59785 -8.37282 -1.09831e-19)
(6.67973 -17.9034 -2.3265e-18)
(5.24664 -17.4377 1.36706e-18)
(5.07175 -16.7322 2.85415e-19)
(4.98671 -16.0294 -4.45514e-20)
(4.82557 -15.3706 -5.88264e-21)
(4.65904 -14.7257 6.49874e-19)
(4.49693 -14.0942 -1.72002e-18)
(4.33708 -13.484 -1.84002e-19)
(4.18138 -12.9007 -3.56911e-19)
(4.03191 -12.3472 4.55741e-19)
(3.88969 -11.8243 2.74404e-20)
(3.75506 -11.3316 4.48509e-19)
(3.62797 -10.8679 -3.78015e-20)
(3.50818 -10.4315 -1.06106e-18)
(3.39538 -10.0208 -2.34967e-19)
(3.28916 -9.63461 9.43656e-19)
(3.18914 -9.27151 -3.51128e-19)
(3.09627 -8.92942 -8.5606e-20)
(3.01259 -8.60478 1.908e-19)
(2.92511 -8.29732 6.32867e-20)
(7.38202 -17.6412 1.47882e-18)
(5.937 -17.2483 -1.50703e-18)
(5.73668 -16.5576 -2.22866e-18)
(5.62404 -15.8607 -3.0694e-19)
(5.43592 -15.208 -9.57673e-19)
(5.24251 -14.568 -3.02077e-19)
(5.05399 -13.9411 -9.42505e-19)
(4.86873 -13.3358 1.70306e-18)
(4.68893 -12.7576 -7.26225e-19)
(4.51678 -12.2093 -3.55273e-19)
(4.35332 -11.6918 -1.49195e-19)
(4.19882 -11.2045 4.89139e-19)
(4.05315 -10.7461 -4.69051e-21)
(3.91598 -10.3147 -1.59641e-19)
(3.7869 -9.90881 -3.44537e-19)
(3.66543 -9.52716 -4.1009e-19)
(3.55116 -9.16854 5.85096e-19)
(3.44517 -8.83091 2.34562e-19)
(3.34944 -8.51082 -9.44051e-19)
(3.24932 -8.20928 7.59104e-19)
(8.07403 -17.3514 -1.48495e-18)
(6.62037 -17.0314 3.50036e-18)
(6.39532 -16.3562 -2.62307e-18)
(6.25523 -15.666 1.63585e-18)
(6.04021 -15.0202 2.05479e-18)
(5.81995 -14.3863 -7.19115e-19)
(5.60505 -13.7651 2.31133e-20)
(5.39445 -13.1657 1.87413e-19)
(5.19065 -12.5936 7.1885e-19)
(4.99596 -12.0517 -7.28541e-19)
(4.81142 -11.5406 -4.39538e-19)
(4.63724 -11.0595 4.81515e-19)
(4.47318 -10.6071 -1.99657e-20)
(4.3188 -10.1815 7.6533e-20)
(4.17361 -9.78119 8.64584e-19)
(4.03706 -9.4048 -4.38963e-19)
(3.90873 -9.05128 8.11702e-20)
(3.78986 -8.71869 -5.21359e-19)
(3.6823 -8.40373 1.3886e-18)
(3.56977 -8.10893 -8.97034e-19)
(8.75471 -17.0345 2.1489e-18)
(7.29566 -16.7872 4.61308e-19)
(7.04657 -16.1281 1.01682e-18)
(6.8792 -15.4454 -1.09986e-18)
(6.63738 -14.8075 2.72021e-19)
(6.39032 -14.1807 2.17036e-18)
(6.14912 -13.5663 -3.34912e-19)
(5.91328 -12.9739 1.56619e-18)
(5.68563 -12.409 -1.01285e-18)
(5.46859 -11.8744 5.94098e-19)
(5.26316 -11.3706 1.32923e-18)
(5.0695 -10.8967 -4.03669e-19)
(4.88724 -10.4512 6.50604e-19)
(4.71586 -10.0322 -1.76423e-19)
(4.55476 -9.63816 -8.58647e-19)
(4.40331 -9.26771 1.20579e-18)
(4.26112 -8.91994 -3.24264e-19)
(4.12957 -8.59294 1.18492e-18)
(4.01043 -8.2837 1.33399e-19)
(3.88574 -7.99646 -1.59113e-18)
(9.42301 -16.6908 -6.47848e-18)
(7.96176 -16.5159 1.13349e-18)
(7.68934 -15.8734 -8.57807e-19)
(7.49487 -15.1991 -2.75869e-18)
(7.22638 -14.5701 -4.83032e-19)
(6.95261 -13.9515 -5.28964e-19)
(6.68521 -13.345 -1.75426e-19)
(6.42429 -12.7606 -1.08594e-18)
(6.17297 -12.204 -5.76056e-19)
(5.93377 -11.6777 -1.23451e-19)
(5.70768 -11.1821 -3.46756e-19)
(5.49475 -10.7162 5.74677e-19)
(5.29453 -10.2785 3.58582e-19)
(5.10636 -9.86696 -1.85075e-18)
(4.92955 -9.47991 7.6793e-19)
(4.76341 -9.11613 -8.26956e-19)
(4.60755 -8.77476 -5.09299e-19)
(4.46355 -8.45395 4.42376e-19)
(4.33305 -8.15098 2.35349e-19)
(4.19654 -7.87206 -4.87032e-19)
(10.0779 -16.3208 8.24709e-18)
(8.6176 -16.2179 3.93806e-18)
(8.32254 -15.5925 1.86126e-18)
(8.10118 -14.9275 1.83755e-18)
(7.80616 -14.3082 -8.37062e-19)
(7.50583 -13.6988 4.57604e-18)
(7.21238 -13.1013 -2.0137e-18)
(6.92656 -12.526 3.85725e-18)
(6.65179 -11.9787 -1.47982e-18)
(6.39066 -11.4617 2.68082e-18)
(6.14414 -10.9752 1.25487e-18)
(5.91217 -10.5183 7.55098e-19)
(5.6942 -10.0892 -1.86241e-18)
(5.48946 -9.68587 1.61508e-18)
(5.29715 -9.30664 -3.81983e-19)
(5.11653 -8.95028 1.22842e-18)
(4.94723 -8.61601 3.22776e-19)
(4.79102 -8.30202 1.42848e-18)
(4.64948 -8.00592 -3.23596e-19)
(4.50157 -7.73613 -2.36794e-20)
(10.7184 -15.9249 -4.25961e-18)
(9.26211 -15.8934 2.24142e-18)
(8.94508 -15.2857 4.17135e-19)
(8.69707 -14.6306 -3.23823e-18)
(8.37572 -14.0221 -2.03943e-19)
(8.04897 -13.423 -3.51295e-20)
(7.72967 -12.8355 6.91123e-19)
(7.41918 -12.2705 -9.92555e-19)
(7.12121 -11.7334 3.66218e-19)
(6.83842 -11.2266 4.59429e-19)
(6.57172 -10.7502 -7.52476e-19)
(6.32095 -10.3031 -5.24467e-19)
(6.08543 -9.88338 2.88245e-19)
(5.86429 -9.48909 -5.145e-19)
(5.65664 -9.11845 1.59112e-18)
(5.46168 -8.77029 -1.68031e-18)
(5.27912 -8.44387 -1.05154e-18)
(5.11097 -8.13738 1.51571e-18)
(4.95871 -7.84885 -5.78793e-19)
(4.79989 -7.58936 -7.89421e-19)
(11.3436 -15.5037 -2.17695e-18)
(9.89424 -15.5429 -2.50585e-18)
(9.55587 -14.9532 -6.40903e-19)
(9.28149 -14.309 3.33224e-18)
(8.93403 -13.7122 -1.47942e-18)
(8.58109 -13.1243 1.31024e-19)
(8.23617 -12.548 -3.83083e-18)
(7.90129 -11.9942 5.80501e-19)
(7.58042 -11.4684 -8.72575e-19)
(7.27626 -10.9728 7.34052e-19)
(6.98965 -10.5073 -1.69517e-18)
(6.72034 -10.0708 7.3735e-19)
(6.46748 -9.66125 -1.06463e-18)
(6.23008 -9.27672 6.58416e-19)
(6.00718 -8.91541 4.25396e-19)
(5.7979 -8.57616 -4.279e-19)
(5.60206 -8.25829 -1.84987e-18)
(5.42198 -7.96 1.03064e-18)
(5.25901 -7.67997 -4.37357e-19)
(5.08937 -7.43232 1.90407e-19)
(11.9526 -15.0576 8.00185e-18)
(10.513 -15.1667 -1.62931e-18)
(10.1539 -14.5955 -2.26894e-18)
(9.8534 -13.963 9.53742e-19)
(9.48013 -13.3788 1.3355e-18)
(9.10124 -12.8032 -1.9148e-18)
(8.73098 -12.2391 1.25896e-18)
(8.37202 -11.6975 -1.73293e-18)
(8.02857 -11.184 2.18967e-18)
(7.70337 -10.7004 -2.30444e-18)
(7.39717 -10.2467 1.0511e-18)
(7.10959 -9.82149 -1.82372e-19)
(6.83965 -9.42294 -1.67963e-19)
(6.58621 -9.04893 -1.18206e-18)
(6.34818 -8.69767 1.84775e-18)
(6.12459 -8.36804 -3.88378e-20)
(5.91533 -8.05938 -1.45244e-19)
(5.72295 -7.77 -3.40656e-20)
(5.54858 -7.49937 -6.53134e-20)
(5.36767 -7.26422 -5.77987e-19)
(12.5449 -14.5876 -6.5805e-18)
(11.1175 -14.7655 -9.95336e-19)
(10.738 -14.213 -1.2465e-18)
(10.4118 -13.593 -7.17927e-18)
(10.013 -13.0223 -3.74123e-18)
(9.60849 -12.46 4.35206e-18)
(9.2132 -11.9091 -1.53625e-18)
(8.83052 -11.3807 7.88271e-19)
(8.46487 -10.8804 1.19013e-18)
(8.11897 -10.4097 3.14478e-19)
(7.79349 -9.96845 7.8654e-19)
(7.48788 -9.55537 -3.78413e-19)
(7.20108 -9.1685 1.06113e-18)
(6.93183 -8.80576 -9.08868e-19)
(6.67893 -8.46538 3.28825e-19)
(6.44131 -8.14628 -2.3996e-18)
(6.21884 -7.84782 1.5766e-18)
(6.01416 -7.5682 1.0053e-18)
(5.82813 -7.30734 -5.72767e-19)
(5.63619 -7.08373 -5.78592e-19)
(13.1205 -14.0951 2.98969e-18)
(11.7075 -14.3398 2.54143e-18)
(11.3076 -13.8062 2.06887e-18)
(10.9557 -13.1993 6.37893e-18)
(10.5317 -12.6431 -5.92479e-18)
(10.1019 -12.0952 1.57144e-18)
(9.68202 -11.5584 -7.25957e-21)
(9.27605 -11.0443 -1.61367e-18)
(8.88863 -10.5579 1.60347e-18)
(8.52242 -10.1008 -4.2115e-19)
(8.17793 -9.67276 -4.92567e-19)
(7.85447 -9.27236 -2.38112e-19)
(7.55083 -8.89771 5.35651e-19)
(7.26566 -8.54685 1.73109e-20)
(6.99772 -8.21814 -8.88628e-19)
(6.74604 -7.91066 -1.0454e-18)
(6.51079 -7.62371 7.27417e-19)
(6.29498 -7.35499 4.88999e-19)
(6.09924 -7.10478 -9.79872e-19)
(5.89907 -6.89548 2.45354e-19)
(13.6793 -13.5804 -4.04016e-19)
(12.2824 -13.8897 -5.47891e-18)
(11.8619 -13.3752 -5.05307e-19)
(11.4842 -12.7825 -9.23472e-20)
(11.0354 -12.2419 1.095e-18)
(10.5808 -11.7094 3.72305e-18)
(10.1367 -11.1879 -1.07826e-18)
(9.70802 -10.6888 -1.6533e-18)
(9.29936 -10.2172 1.64197e-19)
(8.91332 -9.77431 7.06952e-19)
(8.55022 -9.35988 -6.40865e-19)
(8.20914 -8.97247 -6.95214e-19)
(7.88858 -8.61023 -1.73069e-19)
(7.58696 -8.27135 6.01458e-19)
(7.30285 -7.95444 4.46993e-19)
(7.03533 -7.65886 1.83381e-18)
(6.78532 -7.38374 4.4011e-19)
(6.55707 -7.12672 -5.54792e-19)
(6.35131 -6.89186 5.99634e-19)
(6.14362 -6.71208 9.49793e-19)
(14.219 -13.042 2.10349e-18)
(12.8409 -13.4142 5.31054e-18)
(12.4 -12.9204 7.55758e-19)
(11.9965 -12.3434 -4.96055e-19)
(11.5233 -11.8195 3.47695e-18)
(11.0444 -11.3034 -9.52323e-19)
(10.5769 -10.7981 -1.12907e-18)
(10.126 -10.315 2.87718e-18)
(9.69675 -9.85882 -1.7807e-18)
(9.29153 -9.43078 8.37622e-19)
(8.91046 -9.03035 -1.30203e-19)
(8.55233 -8.65609 -2.14415e-19)
(8.2153 -8.30613 -9.04335e-19)
(7.89732 -7.9787 2.2779e-18)
(7.59634 -7.67256 -2.69019e-18)
(7.31076 -7.38704 1.2739e-18)
(7.04096 -7.1212 -3.72464e-19)
(6.79035 -6.87486 -8.71295e-20)
(6.5573 -6.66171 1.15509e-18)
(6.32404 -6.52178 -1.99974e-18)
(19.5137 0.84473 3.69964e-19)
(19.5168 0.0751214 -1.19038e-19)
(19.4894 -0.692349 -6.32266e-19)
(19.4332 -1.45687 1.70583e-18)
(19.3481 -2.21766 -1.9058e-18)
(19.2338 -2.97374 -8.63315e-19)
(19.0902 -3.72403 6.69162e-19)
(18.9174 -4.46745 9.36824e-19)
(18.7159 -5.20294 -7.07622e-19)
(18.486 -5.92943 7.10689e-19)
(18.228 -6.64587 -1.66339e-20)
(17.9425 -7.35121 3.74863e-20)
(17.6299 -8.04441 -4.98906e-19)
(17.2907 -8.72446 2.2397e-18)
(16.9255 -9.3904 -2.2431e-18)
(16.535 -10.0412 1.56332e-18)
(16.1194 -10.6762 -2.18721e-18)
(15.6806 -11.2941 -1.7543e-18)
(15.2169 -11.8953 -3.99015e-19)
(14.7334 -12.477 1.66378e-19)
(18.9911 -0.410592 -7.27403e-20)
(18.943 -1.15651 -4.15186e-19)
(18.8643 -1.89812 8.03784e-19)
(18.7564 -2.63446 1.29545e-18)
(18.6195 -3.36484 -3.41084e-19)
(18.4538 -4.08834 -1.73728e-18)
(18.2595 -4.80387 3.12899e-18)
(18.037 -5.51033 -6.42514e-19)
(17.7869 -6.20662 -3.61341e-18)
(17.5096 -6.8917 1.74667e-18)
(17.2057 -7.56455 6.06001e-19)
(16.8759 -8.22414 3.30086e-18)
(16.5206 -8.8695 -6.27057e-18)
(16.1407 -9.49966 6.60806e-20)
(15.7366 -10.1137 1.58885e-18)
(15.3094 -10.7108 2.54118e-18)
(14.8593 -11.2902 4.37265e-18)
(14.3876 -11.8509 -1.58376e-18)
(13.8937 -12.3926 -3.55987e-18)
(13.3791 -12.9141 3.54029e-18)
(18.3389 -0.395396 2.41804e-19)
(18.2969 -1.11302 -2.87783e-19)
(18.2252 -1.82738 1.91186e-19)
(18.1243 -2.53733 -5.88004e-19)
(17.9946 -3.24189 7.37876e-19)
(17.8364 -3.94004 1.82439e-18)
(17.65 -4.63064 -1.9571e-18)
(17.4359 -5.31254 3.08935e-19)
(17.1947 -5.98463 1.29598e-18)
(16.9268 -6.64582 2.7223e-18)
(16.6328 -7.29508 -6.35845e-19)
(16.3134 -7.93138 4.57432e-18)
(15.9691 -8.55374 2.30062e-19)
(15.6007 -9.16116 -4.94645e-18)
(15.2088 -9.75274 -6.68396e-19)
(14.7941 -10.3276 -1.30446e-18)
(14.3573 -10.885 -2.77277e-18)
(13.8991 -11.4238 -1.31403e-18)
(13.4198 -11.9434 -2.41536e-18)
(12.92 -12.4426 2.61316e-18)
(17.5765 -0.296353 -4.8514e-20)
(17.545 -0.981995 1.30998e-19)
(17.4851 -1.66554 -1.82156e-19)
(17.3968 -2.34574 -1.00386e-18)
(17.2806 -3.02141 -4.5921e-19)
(17.1367 -3.69145 -5.76255e-19)
(16.9655 -4.35473 2.06357e-18)
(16.7673 -5.0101 -4.79934e-20)
(16.5427 -5.65648 -2.02428e-18)
(16.2922 -6.29277 5.25064e-20)
(16.0162 -6.91795 -1.16597e-18)
(15.7154 -7.53098 2.94409e-19)
(15.3903 -8.13087 -5.98122e-18)
(15.0416 -8.7166 3.01453e-18)
(14.6701 -9.28737 -1.78028e-18)
(14.2763 -9.84214 -5.47293e-19)
(13.8607 -10.3799 -6.97615e-18)
(13.4244 -10.9 6.82764e-18)
(12.9678 -11.4013 -3.25148e-18)
(12.4916 -11.8828 -2.04863e-18)
(16.787 -0.283009 2.24162e-20)
(16.7615 -0.936067 -3.09396e-19)
(16.7091 -1.58768 4.52194e-19)
(16.6296 -2.23664 5.64281e-19)
(16.5232 -2.88171 -6.65051e-19)
(16.3903 -3.5218 2.13533e-18)
(16.2312 -4.15582 -7.02717e-19)
(16.0461 -4.78266 -7.65309e-21)
(15.8357 -5.40128 -1.02451e-18)
(15.6002 -6.0106 2.19439e-18)
(15.3401 -6.60963 1.61364e-18)
(15.0561 -7.19734 9.58454e-19)
(14.7487 -7.77274 6.03191e-19)
(14.4184 -8.33489 -1.68894e-18)
(14.066 -8.88289 1.25786e-18)
(13.692 -9.41567 4.31285e-18)
(13.2971 -9.93236 4.51772e-18)
(12.8821 -10.4321 -3.21758e-18)
(12.4477 -10.9139 1.11694e-18)
(11.9945 -11.3767 -3.14544e-19)
(16.0121 -0.276544 5.48043e-20)
(15.9907 -0.897833 -7.42621e-20)
(15.9438 -1.51806 -3.90715e-19)
(15.8711 -2.13609 1.72097e-19)
(15.7729 -2.75077 5.39928e-22)
(15.6494 -3.36101 1.11897e-19)
(15.5008 -3.96578 -1.02819e-18)
(15.3274 -4.56404 7.66084e-19)
(15.1297 -5.15477 -1.54994e-18)
(14.9081 -5.73695 1.63545e-18)
(14.6629 -6.30961 -2.27424e-19)
(14.3948 -6.87175 8.60017e-19)
(14.1041 -7.42242 -2.43853e-18)
(13.7916 -7.96075 -1.04409e-18)
(13.4578 -8.48574 2.71101e-18)
(13.1032 -8.99637 -1.9646e-18)
(12.7287 -9.49189 -2.86478e-18)
(12.3349 -9.97128 1.45585e-18)
(11.9225 -10.4337 -9.63433e-19)
(11.492 -10.878 2.95739e-18)
(15.274 -0.266739 -3.88406e-20)
(15.2553 -0.85784 1.81915e-19)
(15.2124 -1.44811 1.20281e-19)
(15.1451 -2.03652 -1.45379e-19)
(15.0535 -2.62197 5.92365e-19)
(14.9378 -3.20345 -1.66696e-18)
(14.7982 -3.77994 9.55991e-19)
(14.635 -4.35046 -7.1874e-19)
(14.4487 -4.91405 1.80662e-20)
(14.2394 -5.46974 -1.11559e-18)
(14.0078 -6.0166 1.70239e-18)
(13.7541 -6.55368 4.24656e-18)
(13.4789 -7.08009 -4.14204e-18)
(13.1829 -7.59496 -3.10251e-18)
(12.8665 -8.09728 -1.81365e-18)
(12.5303 -8.58617 1.29145e-18)
(12.1752 -9.06084 -1.44473e-18)
(11.8015 -9.52027 -3.12236e-21)
(11.4102 -9.96363 3.28232e-18)
(11.0017 -10.3898 -3.60131e-20)
(14.583 -0.25782 -1.85671e-20)
(14.5659 -0.820712 1.25512e-19)
(14.5257 -1.38292 4.2015e-20)
(14.4624 -1.94347 -6.99196e-19)
(14.3759 -2.50136 7.61548e-19)
(14.2666 -3.0556 -6.69858e-19)
(14.1345 -3.60524 1.9209e-18)
(13.9799 -4.14936 -2.00755e-19)
(13.8033 -4.68703 -1.03459e-18)
(13.6048 -5.21735 1.98331e-19)
(13.385 -5.73943 -3.44371e-19)
(13.1441 -6.25237 -1.05569e-18)
(12.8829 -6.75539 -2.45764e-18)
(12.6017 -7.24753 -1.03423e-18)
(12.301 -7.7279 2.48603e-18)
(11.9817 -8.19573 -1.77732e-18)
(11.6442 -8.65013 -1.07406e-18)
(11.2892 -9.09015 -1.63329e-18)
(10.9175 -9.51497 2.08622e-19)
(10.5294 -9.92349 1.07795e-19)
(13.9413 -0.249817 1.39996e-20)
(13.9249 -0.786548 1.59577e-20)
(13.8865 -1.32267 -1.28273e-20)
(13.8262 -1.85728 -1.9265e-19)
(13.7438 -2.38941 -4.44659e-19)
(13.6396 -2.91815 -2.84712e-19)
(13.5138 -3.4426 -1.35723e-18)
(13.3666 -3.96187 1.26172e-18)
(13.1983 -4.4751 -7.35986e-19)
(13.0092 -4.98144 1.61679e-18)
(12.7997 -5.48003 -3.16023e-19)
(12.5702 -5.97009 2.75582e-18)
(12.3213 -6.45081 1.81665e-18)
(12.0533 -6.9213 3.72118e-18)
(11.7668 -7.38078 -2.56816e-18)
(11.4626 -7.82847 2.32455e-18)
(11.1412 -8.26349 -4.51444e-19)
(10.8032 -8.68494 1.62334e-18)
(10.4495 -9.09198 1.74105e-18)
(10.0804 -9.48352 -2.5035e-18)
(13.3462 -0.242059 -1.15491e-19)
(13.3301 -0.75456 -1.32232e-21)
(13.2931 -1.26649 4.15633e-19)
(13.2351 -1.77699 -3.86029e-19)
(13.1561 -2.28517 2.37741e-19)
(13.0563 -2.79014 9.20133e-19)
(12.9359 -3.29105 -2.95892e-19)
(12.795 -3.78708 -2.86775e-19)
(12.634 -4.27742 -3.83937e-19)
(12.4532 -4.76125 6.44239e-19)
(12.2528 -5.23777 -9.34269e-19)
(12.0335 -5.70629 1.74616e-18)
(11.7955 -6.16598 -1.72171e-18)
(11.5393 -6.61605 4.7307e-19)
(11.2656 -7.05582 8.19761e-19)
(10.975 -7.48449 5.94173e-19)
(10.6682 -7.90123 -1.1499e-18)
(10.3457 -8.30514 -1.82744e-18)
(10.0084 -8.6954 6.36467e-19)
(9.65676 -9.07087 2.03678e-19)
(12.7934 -0.234335 1.17817e-19)
(12.7775 -0.724349 3.15922e-19)
(12.7415 -1.21381 -7.03351e-19)
(12.6855 -1.7019 -5.46905e-19)
(12.6094 -2.18777 -2.79879e-19)
(12.5134 -2.67059 -7.69274e-19)
(12.3978 -3.14956 5.50206e-19)
(12.2625 -3.62389 6.95546e-19)
(12.1081 -4.09281 -1.49498e-18)
(11.9346 -4.55556 7.30001e-19)
(11.7425 -5.01143 7.54766e-19)
(11.5322 -5.45972 1.80981e-18)
(11.304 -5.89966 -1.32478e-18)
(11.0585 -6.3306 1.84613e-18)
(10.7964 -6.75185 -1.68568e-18)
(10.5181 -7.16268 -2.97277e-19)
(10.2245 -7.56229 -5.03301e-19)
(9.91621 -7.94984 2.17447e-18)
(9.59406 -8.32442 5.96965e-19)
(9.25857 -8.68489 -6.94196e-19)
(12.2783 -0.226608 -1.01038e-19)
(12.2624 -0.695674 5.88728e-20)
(12.2273 -1.16419 4.45477e-19)
(12.173 -1.63139 5.74942e-20)
(12.0996 -2.09645 6.39754e-19)
(12.0071 -2.5586 5.28e-19)
(11.8957 -3.01706 -4.49889e-19)
(11.7656 -3.47109 -6.43113e-19)
(11.6171 -3.91998 5.34931e-19)
(11.4503 -4.36299 4.135e-19)
(11.2657 -4.79948 -4.29258e-19)
(11.0636 -5.2288 1.13096e-18)
(10.8444 -5.65023 -2.68246e-18)
(10.6086 -6.06322 6.23098e-19)
(10.357 -6.4671 7.58399e-19)
(10.0899 -6.86127 -1.30505e-18)
(9.80834 -7.24493 -2.66175e-18)
(9.51297 -7.61729 8.72428e-19)
(9.20479 -7.9774 -7.55202e-19)
(8.88434 -8.32402 -7.17681e-19)
(11.7963 -0.21887 -4.16706e-20)
(11.7804 -0.668344 3.71669e-20)
(11.7462 -1.11728 -2.04764e-19)
(11.6935 -1.56492 -1.22697e-19)
(11.6225 -2.0105 -3.75928e-20)
(11.5332 -2.45328 -4.78136e-19)
(11.4258 -2.89253 1.27693e-18)
(11.3004 -3.32754 5.33812e-20)
(11.1573 -3.75761 -6.80192e-21)
(10.9968 -4.18211 -1.13062e-18)
(10.8191 -4.6004 1.13394e-18)
(10.6245 -5.01188 -6.31309e-19)
(10.4136 -5.41588 1.1952e-18)
(10.1867 -5.81204 -1.7925e-18)
(9.94455 -6.19961 -5.46909e-20)
(9.68767 -6.57823 -1.07408e-18)
(9.41715 -6.94703 2.16368e-18)
(9.1336 -7.30544 -5.43682e-19)
(8.83837 -7.65229 -1.71373e-19)
(8.532 -7.98629 -1.35374e-18)
(11.3436 -0.211126 1.2886e-19)
(11.3277 -0.642201 -9.79462e-21)
(11.2942 -1.07274 2.57856e-19)
(11.2431 -1.50201 -2.69556e-19)
(11.1744 -1.9293 3.20927e-19)
(11.0881 -2.35388 -1.90197e-19)
(10.9844 -2.77505 -7.02543e-19)
(10.8635 -3.19217 2.93254e-19)
(10.7255 -3.60454 2.60242e-19)
(10.5707 -4.01161 -3.52182e-19)
(10.3995 -4.41273 2.73019e-20)
(10.2119 -4.80738 -3.80587e-20)
(10.0086 -5.19497 -1.16494e-18)
(9.78983 -5.57525 1.29516e-18)
(9.55647 -5.94745 6.75468e-19)
(9.30883 -6.31155 2.523e-18)
(9.04842 -6.66648 -3.62916e-18)
(8.77554 -7.01217 9.44129e-19)
(8.49238 -7.34701 2.37873e-18)
(8.19918 -7.6698 1.87836e-18)
(10.9166 -0.203382 -9.57535e-20)
(10.9008 -0.617115 7.20816e-20)
(10.8681 -1.03031 -9.31723e-20)
(10.8185 -1.44228 -5.60125e-19)
(10.7519 -1.85231 5.67632e-19)
(10.6685 -2.25973 1.99489e-19)
(10.5684 -2.66386 4.86299e-20)
(10.4516 -3.06409 5.57095e-19)
(10.3185 -3.45975 -1.26957e-18)
(10.1692 -3.85034 1.01676e-18)
(10.0039 -4.23521 -1.11797e-19)
(9.82293 -4.61398 1.66146e-18)
(9.62674 -4.98599 -2.08835e-18)
(9.41549 -5.35128 2.62603e-21)
(9.19024 -5.70888 -1.16603e-18)
(8.95092 -6.05943 1.40425e-19)
(8.69977 -6.40132 2.06496e-18)
(8.43634 -6.7356 -1.72162e-18)
(8.16451 -7.05961 -4.51631e-19)
(7.8834 -7.37299 -3.04924e-18)
(10.5125 -0.195694 2.68891e-20)
(10.4969 -0.593012 3.2378e-21)
(10.465 -0.989797 -2.05265e-19)
(10.4168 -1.38538 8.80803e-20)
(10.3523 -1.77909 1.8182e-19)
(10.2717 -2.17027 2.61062e-19)
(10.1749 -2.55828 -1.01551e-19)
(10.0622 -2.94251 2.50084e-19)
(9.93372 -3.32235 -4.54935e-19)
(9.78959 -3.69733 -6.4429e-19)
(9.63007 -4.06679 -2.32026e-19)
(9.45525 -4.43048 -1.20519e-19)
(9.26581 -4.78768 -2.23735e-19)
(9.06153 -5.13874 -1.69553e-19)
(8.84381 -5.4824 4.35968e-19)
(8.61194 -5.82029 -4.09848e-20)
(8.36928 -6.14978 -1.72772e-18)
(8.11383 -6.47416 -2.95001e-19)
(7.85284 -6.78828 1.8305e-18)
(7.58231 -7.09461 9.49551e-19)
(10.129 -0.188209 3.39534e-21)
(10.1135 -0.569914 5.69297e-20)
(10.0824 -0.951093 -7.1318e-22)
(10.0357 -1.3311 1.97253e-19)
(9.97328 -1.70928 -3.91571e-19)
(9.89532 -2.08501 -4.23931e-19)
(9.80191 -2.45767 5.7544e-19)
(9.69309 -2.82668 -3.94794e-19)
(9.56909 -3.19147 -1.63727e-20)
(9.42998 -3.55159 4.38316e-19)
(9.27602 -3.90637 2.08773e-20)
(9.10722 -4.25569 7.72419e-19)
(8.92426 -4.59873 -3.44178e-19)
(8.72661 -4.9362 -4.12404e-19)
(8.51607 -5.2664 -1.1578e-18)
(8.29086 -5.5924 -9.09041e-20)
(8.05611 -5.90988 -1.15544e-18)
(7.80686 -6.22626 7.28014e-19)
(7.55659 -6.53113 1.10298e-18)
(7.29431 -6.83365 -6.60402e-19)
(9.76401 -0.180701 -5.26023e-20)
(9.74877 -0.547628 1.11606e-19)
(9.71851 -0.914024 1.84552e-19)
(9.67321 -1.27926 -2.0881e-19)
(9.6129 -1.6427 3.23053e-19)
(9.53762 -2.00375 -1.02799e-19)
(9.44751 -2.36182 -1.41295e-19)
(9.34257 -2.71636 -9.71762e-20)
(9.22305 -3.06682 -1.97443e-22)
(9.08893 -3.41276 -8.10702e-19)
(8.94056 -3.75356 8.90126e-20)
(8.77772 -4.08917 3.71965e-19)
(8.60127 -4.41867 8.80883e-19)
(8.41015 -4.74309 1.61129e-18)
(8.20677 -5.06024 -1.68103e-19)
(7.98767 -5.37483 1.82987e-18)
(7.76051 -5.68036 -7.64877e-19)
(7.51521 -5.99103 1.08266e-18)
(7.27575 -6.28767 6.09591e-19)
(7.01692 -6.593 -3.46174e-19)
(9.41591 -0.172179 2.07775e-20)
(9.40101 -0.525493 -5.52697e-20)
(9.37166 -0.878297 -3.99266e-19)
(9.32786 -1.22997 -3.30731e-19)
(9.26964 -1.57989 3.94734e-19)
(9.19703 -1.9275 5.90188e-19)
(9.11015 -2.27223 3.71696e-20)
(9.00903 -2.61355 -3.32032e-19)
(8.8939 -2.95097 -4.65799e-19)
(8.76464 -3.28405 2.30447e-19)
(8.62174 -3.6122 -4.91015e-20)
(8.46468 -3.93539 -1.43544e-18)
(8.2946 -4.25269 -1.45414e-18)
(8.10969 -4.5653 5.51281e-19)
(7.91328 -4.87061 6.53597e-19)
(7.69943 -5.17469 -6.70233e-20)
(7.47918 -5.46861 -5.2262e-19)
(7.23409 -5.77564 -4.09619e-19)
(7.00406 -6.06578 -5.44461e-19)
(6.73578 -6.39291 8.90677e-19)
(9.08316 -0.164879 -6.45339e-20)
(9.06864 -0.505039 1.12026e-19)
(9.04027 -0.844956 7.15274e-20)
(8.99806 -1.18402 1.11014e-19)
(8.94201 -1.52165 -4.19208e-19)
(8.87211 -1.85729 -5.1385e-19)
(8.78845 -2.19042 -1.21879e-19)
(8.69101 -2.52055 6.34798e-19)
(8.58004 -2.84718 -3.63919e-19)
(8.45527 -3.1699 1.51633e-19)
(8.31723 -3.48815 -5.66896e-19)
(8.16519 -3.80189 1.13163e-18)
(8.00054 -4.11019 -1.08098e-18)
(7.82053 -4.41422 -2.61315e-19)
(7.62972 -4.71118 -3.34969e-19)
(7.41882 -5.00771 -3.99645e-20)
(7.2035 -5.29254 -5.47391e-19)
(6.95242 -5.59686 6.95411e-19)
(6.72843 -5.87637 3.95667e-19)
(6.43267 -6.25332 -2.06904e-18)
(13.2722 14.4792 3.54074e-18)
(13.8318 13.9415 -5.31041e-18)
(14.3676 13.3827 1.81373e-18)
(14.8812 12.8054 -2.8473e-18)
(15.3719 12.2097 2.91641e-19)
(15.8384 11.5957 -2.82574e-18)
(16.2796 10.9639 -5.706e-19)
(16.6948 10.3152 -2.69334e-18)
(17.0834 9.65057 -1.4935e-19)
(17.4449 8.97117 1.01571e-18)
(17.7787 8.27803 1.24861e-18)
(18.0844 7.57229 -2.00911e-18)
(18.3613 6.85509 1.0277e-18)
(18.6094 6.12764 2.93481e-18)
(18.828 5.39106 -5.2633e-19)
(19.0172 4.64673 -1.72004e-18)
(19.1765 3.8955 2.29224e-18)
(19.3062 3.13924 -1.40847e-18)
(19.4057 2.37765 -2.09407e-19)
(19.4761 1.61459 -1.4629e-19)
(13.751 13.1249 1.95927e-18)
(14.2672 12.5823 -5.75119e-18)
(14.7589 12.0195 -2.09389e-18)
(15.2267 11.4382 2.11038e-18)
(15.6703 10.8388 -1.12412e-18)
(16.0891 10.2216 2.05855e-18)
(16.482 9.5876 4.07613e-19)
(16.8484 8.93776 -2.95698e-18)
(17.1877 8.27322 1.07307e-18)
(17.4994 7.59515 7.55981e-19)
(17.7828 6.9047 2.56596e-18)
(18.0376 6.2031 -2.181e-18)
(18.2633 5.49156 -1.13185e-18)
(18.4596 4.77137 2.4695e-18)
(18.6261 4.04374 -1.42807e-18)
(18.7627 3.31004 2.63914e-19)
(18.8692 2.5713 -9.00345e-19)
(18.9457 1.82905 -1.76199e-20)
(18.9917 1.08386 -4.46401e-19)
(19.0074 0.337304 1.21479e-19)
(13.1929 12.5276 4.10753e-19)
(13.6929 12.0188 -2.25167e-19)
(14.1709 11.4897 4.86227e-18)
(14.6263 10.9412 -1.5636e-18)
(15.0585 10.3739 1.57598e-18)
(15.467 9.78862 -1.04186e-18)
(15.8509 9.18628 -8.3731e-19)
(16.2094 8.56795 -3.84011e-18)
(16.5421 7.93475 4.37918e-18)
(16.8481 7.2878 -2.64836e-18)
(17.1271 6.62823 -1.1692e-18)
(17.3784 5.95724 -1.90071e-18)
(17.6016 5.27601 9.94918e-19)
(17.7964 4.5858 -1.09249e-18)
(17.9623 3.88779 8.14132e-19)
(18.0991 3.18329 -1.71388e-18)
(18.2066 2.47341 1.8058e-18)
(18.2846 1.75948 7.49264e-19)
(18.3329 1.04249 -1.32288e-19)
(18.3511 0.323833 1.59171e-19)
(12.5138 11.9344 -4.11488e-19)
(12.9947 11.4598 -2.22793e-19)
(13.4557 10.9651 1.01766e-18)
(13.896 10.4511 -2.36845e-18)
(14.3146 9.9186 4.05969e-18)
(14.7109 9.36833 1.33222e-18)
(15.0842 8.80131 1.81997e-19)
(15.4338 8.21851 -2.43297e-19)
(15.7589 7.62094 3.34127e-18)
(16.059 7.00966 1.37014e-18)
(16.3335 6.38572 2.70566e-18)
(16.5818 5.75024 -6.09211e-19)
(16.8034 5.10435 -2.72541e-19)
(16.9981 4.4492 -8.14162e-19)
(17.1652 3.78596 5.26387e-19)
(17.3047 3.11583 8.32755e-19)
(17.4161 2.43996 -1.37454e-18)
(17.4991 1.75958 5.17633e-19)
(17.5538 1.07586 3.51604e-20)
(17.5795 0.390099 8.54145e-20)
(11.9084 11.2996 2.79854e-18)
(12.3662 10.8531 4.30812e-19)
(12.8058 10.3873 -5.51762e-18)
(13.2261 9.903 -1.72167e-18)
(13.6261 9.40083 -7.71957e-19)
(14.0051 8.88164 -3.49209e-18)
(14.3625 8.34633 3.17841e-18)
(14.6977 7.79578 -1.42377e-18)
(15.0098 7.23093 1.70439e-18)
(15.2984 6.65274 -6.28849e-19)
(15.5629 6.06221 1.08829e-18)
(15.8027 5.46037 -1.70166e-18)
(16.0173 4.84829 -1.49078e-19)
(16.2064 4.22705 -6.70819e-19)
(16.3696 3.59776 -4.90967e-19)
(16.5064 2.96154 2.81833e-19)
(16.6167 2.31952 -1.47677e-19)
(16.7 1.67286 2.4207e-19)
(16.7564 1.02275 -2.91214e-19)
(16.7854 0.370353 3.99815e-20)
(11.3463 10.7044 -5.68143e-19)
(11.7812 10.2823 6.03472e-20)
(12.1989 9.84197 2.28216e-18)
(12.5985 9.38401 -5.03114e-19)
(12.9791 8.90906 1.41023e-18)
(13.3399 8.41787 -4.62441e-18)
(13.6803 7.91126 -7.62978e-19)
(13.9997 7.39006 -2.27626e-18)
(14.2975 6.85514 5.46644e-19)
(14.573 6.30741 7.52058e-19)
(14.8259 5.7478 1.54075e-18)
(15.0554 5.17728 -2.1549e-18)
(15.2613 4.59686 1.09331e-18)
(15.443 4.00756 1.60406e-18)
(15.6002 3.41041 6.66595e-20)
(15.7325 2.80649 -6.42924e-19)
(15.8397 2.19686 -5.06141e-20)
(15.9214 1.58262 -1.34191e-19)
(15.9776 0.96489 3.30834e-20)
(16.0077 0.34476 -2.64599e-20)
(10.8273 10.1616 9.93271e-19)
(11.2404 9.76118 6.16295e-19)
(11.6373 9.34356 3.7215e-19)
(12.017 8.90919 -2.32261e-18)
(12.3786 8.45865 -2.1375e-18)
(12.7216 7.99264 4.84167e-18)
(13.0452 7.51193 4.79075e-19)
(13.349 7.0173 -1.64959e-18)
(13.6323 6.50958 1.48929e-18)
(13.8946 5.98961 -2.32816e-18)
(14.1354 5.45829 3.63247e-19)
(14.3542 4.91654 1.02168e-18)
(14.5506 4.36531 -7.39612e-19)
(14.7242 3.80554 -3.09833e-19)
(14.8746 3.23824 1.21243e-18)
(15.0014 2.6644 -2.66124e-20)
(15.1044 2.08504 -4.25706e-20)
(15.1834 1.50119 -1.43812e-19)
(15.2381 0.913908 2.37048e-20)
(15.2683 0.324215 1.43834e-19)
(10.3534 9.66651 -1.35634e-18)