/*--------------------------------*- C++ -*----------------------------------*\
  =========                 |
  \\      /  F ield         | OpenFOAM: The Open Source CFD Toolbox
   \\    /   O peration     | Website:  https://openfoam.org
    \\  /    A nd           | Version:  6.0
     \\/     M anipulation  |
\*---------------------------------------------------------------------------*/
FoamFile
{
    version     2.0;
    format      ascii;
    class       volScalarField;
    location    "4";
    object      p;
}
// * * * * * * * * * * * * * * * * * * * * * * * * * * * * * * * * * * * * * //

dimensions      [0 2 -2 0 0 0 0];

internalField   nonuniform List<scalar> 
2400
(
-107.759
-77.4544
-58.4169
-44.9194
-34.5583
-26.7131
-20.8059
-16.3201
-12.8781
-10.2934
-108.331
-77.9474
-58.8401
-45.2943
-34.9032
-27.0396
-21.1199
-16.6232
-13.1722
-10.5855
-108.887
-78.4168
-59.2431
-45.6546
-35.2385
-27.361
-21.433
-16.9298
-13.4743
-10.8901
-109.416
-78.8597
-59.6225
-45.9964
-35.5596
-27.671
-21.7372
-17.2308
-13.7771
-11.2041
-109.906
-79.2658
-59.9712
-46.3147
-35.8634
-27.9673
-22.0287
-17.5196
-14.0713
-11.5166
-110.347
-79.6232
-60.2752
-46.5962
-36.141
-28.2479
-22.3115
-17.8016
-14.3578
-11.8182
-110.738
-79.9229
-60.5168
-46.8167
-36.3658
-28.4912
-22.5767
-18.084
-14.6553
-12.1323
-111.086
-80.1642
-60.6853
-46.9519
-36.4964
-28.6384
-22.7576
-18.313
-14.9508
-12.5127
-111.389
-80.3531
-60.7884
-47.0021
-36.5127
-28.6313
-22.7425
-18.3307
-15.0899
-12.8808
-111.616
-80.4912
-60.8472
-46.9981
-36.4502
-28.4985
-22.5229
-18.0353
-14.7964
-12.6928
-111.93
-112.034
-112.063
-112.054
-112.022
-111.974
-111.915
-111.85
-111.786
-111.717
-80.2766
-80.4084
-80.4932
-80.5467
-80.5778
-80.5925
-80.5969
-80.5958
-80.5897
-80.5655
-60.4908
-60.6103
-60.6955
-60.7527
-60.7882
-60.8096
-60.8257
-60.8429
-60.8606
-60.8702
-46.708
-46.7963
-46.8528
-46.8821
-46.8915
-46.8904
-46.8911
-46.9024
-46.93
-46.9688
-36.2642
-36.3193
-36.3425
-36.3384
-36.3166
-36.2864
-36.2658
-36.2647
-36.3001
-36.3681
-28.397
-28.4245
-28.4191
-28.3856
-28.3351
-28.2755
-28.2325
-28.2149
-28.2578
-28.3524
-22.4763
-22.4831
-22.4557
-22.3989
-22.3228
-22.2329
-22.1642
-22.1228
-22.1768
-22.2906
-17.9811
-17.9749
-17.9328
-17.8604
-17.7634
-17.6437
-17.5418
-17.4627
-17.5349
-17.6735
-14.5392
-14.5271
-14.4788
-14.4014
-14.2934
-14.1527
-14.0125
-13.8754
-13.9466
-14.1635
-11.9342
-11.908
-11.8489
-11.7661
-11.6494
-11.4962
-11.3139
-11.1011
-11.0542
-11.3429
-106.219
-107.122
-107.935
-108.691
-109.389
-110.014
-110.558
-111.017
-111.398
-111.705
-75.0666
-75.8645
-76.6109
-77.3066
-77.9432
-78.5118
-79.0082
-79.4328
-79.7878
-80.0721
-55.9767
-56.6825
-57.3504
-57.9669
-58.5207
-59.0082
-59.4302
-59.7893
-60.0861
-60.3211
-42.8333
-43.4712
-44.0695
-44.6122
-45.0897
-45.5029
-45.8558
-46.1514
-46.3912
-46.5767
-32.9047
-33.4947
-34.0377
-34.5182
-34.9327
-35.2867
-35.5847
-35.8297
-36.0235
-36.1682
-25.4282
-25.9931
-26.4963
-26.9249
-27.2881
-27.5959
-27.8517
-28.058
-28.2165
-28.3297
-19.7837
-20.3483
-20.8288
-21.2152
-21.5365
-21.8081
-22.0308
-22.2076
-22.34
-22.4303
-15.4726
-16.0372
-16.506
-16.8656
-17.1581
-17.4018
-17.5996
-17.7562
-17.8723
-17.9487
-12.2489
-12.7344
-13.1606
-13.5128
-13.7932
-14.0141
-14.1913
-14.3353
-14.4435
-14.5137
-10.2034
-10.4808
-10.7263
-11.0642
-11.3367
-11.5193
-11.6589
-11.778
-11.869
-11.9242
-5.27444
-7.55232
-10.6464
-14.6976
-20.0304
-27.1032
-36.4535
-48.7383
-66.6087
-96.361
-5.59041
-7.89139
-11.0019
-15.0744
-20.436
-27.547
-36.95
-49.3096
-67.2865
-97.1694
-5.93986
-8.26529
-11.3936
-15.49
-20.8831
-28.0355
-37.4955
-49.9348
-68.0174
-98.0161
-6.32416
-8.67334
-11.819
-15.9407
-21.3673
-28.5637
-38.0843
-50.6091
-68.804
-98.9227
-6.73943
-9.11496
-12.279
-16.4266
-21.887
-29.1277
-38.7106
-51.325
-69.6406
-99.8885
-7.18453
-9.58428
-12.766
-16.9406
-22.4359
-29.7221
-39.3686
-52.0758
-70.5176
-100.901
-7.67213
-10.0979
-13.2918
-17.4875
-23.0139
-30.3434
-40.053
-52.8537
-71.4249
-101.948
-8.19266
-10.6306
-13.8309
-18.049
-23.6092
-30.9831
-40.755
-53.6489
-72.3515
-103.017
-8.81246
-11.2304
-14.404
-18.631
-24.2198
-31.6335
-41.463
-54.4475
-73.2846
-104.1
-9.43722
-11.7623
-14.9335
-19.2045
-24.8311
-32.2809
-42.1625
-55.2322
-74.202
-105.179
-4.20756
-5.96323
-8.70759
-12.5486
-17.6869
-24.522
-33.5457
-45.3304
-62.3947
-91.029
-4.48227
-6.32974
-9.09299
-12.8872
-17.9655
-24.7532
-33.7456
-45.5164
-62.5977
-91.299
-4.33264
-6.36872
-9.25041
-13.0924
-18.1839
-24.973
-33.9662
-45.7449
-62.8528
-91.6098
-4.21797
-6.33667
-9.29009
-13.1895
-18.3289
-25.1567
-34.183
-45.9977
-63.1575
-91.9899
-4.21526
-6.36238
-9.3459
-13.2777
-18.456
-25.3266
-34.3988
-46.2689
-63.5055
-92.4382
-4.28094
-6.4521
-9.45715
-13.409
-18.6133
-25.5181
-34.6351
-46.5678
-63.8957
-92.9446
-4.39021
-6.58743
-9.6148
-13.5867
-18.8147
-25.75
-34.9098
-46.9069
-64.3329
-93.5058
-4.54464
-6.76459
-9.81199
-13.8047
-19.0581
-26.0255
-35.2296
-47.2943
-64.8231
-94.1252
-4.74668
-6.98543
-10.0493
-14.0619
-19.3416
-26.3432
-35.5946
-47.731
-65.3698
-94.8089
-4.9929
-7.24997
-10.3286
-14.3601
-19.6661
-26.7029
-36.0035
-48.2148
-65.9695
-95.5582
-2.97544
-2.63914
-2.61761
-2.75991
-2.94793
-3.16829
-3.42808
-3.72378
-4.0677
-4.45218
-5.31578
-5.04595
-4.93642
-5.03311
-5.19918
-5.42296
-5.69135
-6.00073
-6.35688
-6.75212
-8.28088
-8.08355
-7.98203
-8.05096
-8.20095
-8.42561
-8.70236
-9.02674
-9.39774
-9.80819
-12.2304
-12.0584
-11.9817
-12.0383
-12.1794
-12.4019
-12.684
-13.0201
-13.4045
-13.8303
-17.4419
-17.2918
-17.2374
-17.294
-17.4368
-17.6622
-17.9529
-18.3026
-18.7033
-19.1482
-24.3305
-24.2101
-24.1787
-24.2449
-24.3985
-24.6347
-24.9411
-25.3103
-25.7341
-26.2057
-33.3926
-33.3013
-33.2918
-33.3726
-33.5419
-33.7954
-34.1241
-34.5204
-34.9767
-35.4863
-45.196
-45.1172
-45.1177
-45.2081
-45.3913
-45.6641
-46.0202
-46.4526
-46.9542
-47.5162
-62.2335
-62.1287
-62.1121
-62.1978
-62.3879
-62.6798
-63.0692
-63.5503
-64.1134
-64.7405
-90.7572
-90.5741
-90.5101
-90.5717
-90.7567
-91.0616
-91.4832
-92.0165
-92.6451
-93.3307
-4.87223
-5.31399
-5.77251
-6.2395
-6.70442
-7.13421
-7.46949
-7.69601
-7.92788
-8.1691
-7.18221
-7.63406
-8.10116
-8.5719
-9.03298
-9.46023
-9.82055
-10.0818
-10.245
-10.4026
-10.2525
-10.7183
-11.1984
-11.6799
-12.1482
-12.5837
-12.9663
-13.2711
-13.4825
-13.6581
-14.2896
-14.7702
-15.2639
-15.7577
-16.237
-16.6842
-17.0839
-17.4217
-17.6948
-17.9343
-19.6272
-20.1274
-20.64
-21.1523
-21.6501
-22.1173
-22.5403
-22.9118
-23.2384
-23.5397
-26.7132
-27.2422
-27.7836
-28.325
-28.8529
-29.3528
-29.8127
-30.2286
-30.6095
-30.9699
-36.0347
-36.605
-37.188
-37.7721
-38.3448
-38.8931
-39.407
-39.884
-40.3323
-40.763
-48.1196
-48.7434
-49.3818
-50.0238
-50.6582
-51.2733
-51.8617
-52.4224
-52.9614
-53.4851
-65.4026
-66.0856
-66.7883
-67.5011
-68.2113
-68.9092
-69.5912
-70.2589
-70.9131
-71.5452
-94.0233
-94.7529
-95.5158
-96.297
-97.0814
-97.8605
-98.6347
-99.4095
-100.177
-100.897
-101.512
-72.1307
-53.9848
-41.1748
-31.3123
-23.8278
-18.1815
-13.8979
-10.6834
-8.33846
-102.106
-72.6736
-54.4501
-41.5627
-31.6359
-24.1028
-18.4278
-14.14
-10.9178
-8.50024
-102.702
-73.1994
-54.8967
-41.9363
-31.9505
-24.3739
-18.6687
-14.3531
-11.0812
-8.59881
-103.306
-73.7207
-55.3333
-42.302
-32.2609
-24.6434
-18.9085
-14.5676
-11.2662
-8.76012
-103.918
-74.2416
-55.7664
-42.6652
-32.5709
-24.913
-19.1462
-14.7767
-11.4447
-8.9195
-104.542
-74.7657
-56.1993
-43.0292
-32.884
-25.1881
-19.3922
-14.9991
-11.6437
-9.10257
-105.182
-75.296
-56.6344
-43.396
-33.2022
-25.4702
-19.6465
-15.2297
-11.8506
-9.29429
-105.841
-75.8358
-57.0738
-43.7674
-33.5279
-25.7635
-19.9154
-15.4782
-12.0786
-9.50917
-106.513
-76.3841
-57.5198
-44.1458
-33.8629
-26.0687
-20.1984
-15.7429
-12.3263
-9.74867
-107.166
-76.9311
-57.9718
-44.5327
-34.2085
-26.387
-20.4969
-16.0252
-12.5948
-10.0128
-4.46733
-1.67148
-1.0367
-0.621242
-0.438261
-0.319438
-0.238052
-0.170842
-0.114612
-0.0709502
-0.0411242
-0.0228901
-0.0124506
-0.00664441
-0.00343873
-0.00168564
-0.000750903
-0.000271109
-6.61904e-05
6.49043e-05
-4.78394
-1.78081
-1.06777
-0.637764
-0.438137
-0.315121
-0.232975
-0.167659
-0.114094
-0.0724433
-0.0435373
-0.0254174
-0.0146864
-0.00844092
-0.00480357
-0.00266491
-0.00141832
-0.000699435
-0.000297906
9.25354e-06
-5.12534
-1.92151
-1.11029
-0.661761
-0.443159
-0.314238
-0.230324
-0.166042
-0.114488
-0.0744483
-0.0462312
-0.0280928
-0.016993
-0.0102738
-0.00617977
-0.0036517
-0.00209096
-0.00112421
-0.000529909
-4.9221e-05
-5.5024
-2.08834
-1.15989
-0.691409
-0.453203
-0.316771
-0.230092
-0.165988
-0.115785
-0.0769492
-0.049193
-0.0309073
-0.0193678
-0.0121379
-0.00756944
-0.00464381
-0.0027657
-0.00154986
-0.000762451
-0.000108531
-5.89407
-2.25603
-1.20552
-0.723005
-0.467546
-0.3225
-0.232173
-0.167454
-0.117965
-0.0799289
-0.0524094
-0.0338532
-0.0218066
-0.0140311
-0.00897155
-0.00564078
-0.00344232
-0.00197633
-0.000995516
-0.000168937
-6.25177
-2.41371
-1.25118
-0.758052
-0.486469
-0.331301
-0.2364
-0.170341
-0.120977
-0.083355
-0.0558597
-0.0369185
-0.0243034
-0.0159505
-0.0103848
-0.006642
-0.00412054
-0.00240353
-0.00122909
-0.000230684
-6.63203
-2.6605
-1.34886
-0.81333
-0.514604
-0.344503
-0.243131
-0.174737
-0.124834
-0.0872142
-0.0595237
-0.0400862
-0.0268462
-0.0178885
-0.0118043
-0.00764476
-0.00479893
-0.00283082
-0.00146298
-0.000293907
-7.35122
-3.18352
-1.56403
-0.908961
-0.559246
-0.36546
-0.253942
-0.181416
-0.129927
-0.0916885
-0.0634719
-0.0433741
-0.029432
-0.0198366
-0.0132225
-0.00864362
-0.00547422
-0.00325656
-0.00169654
-0.000358579
-8.47507
-3.86854
-1.82356
-1.01499
-0.612317
-0.392637
-0.268677
-0.19062
-0.1366
-0.0970759
-0.0679079
-0.0469038
-0.0321288
-0.0218317
-0.0146588
-0.00964856
-0.00615123
-0.00368282
-0.00193055
-0.000425153
-8.48014
-3.98377
-1.84653
-1.0224
-0.630325
-0.40614
-0.277034
-0.196805
-0.141983
-0.102063
-0.0723637
-0.0506075
-0.0350173
-0.0239815
-0.016202
-0.0107193
-0.00686523
-0.00412702
-0.00217216
-0.000496285
-6.51094
-3.50851
-1.62716
-0.916178
-0.596033
-0.392126
-0.268099
-0.191561
-0.140319
-0.103622
-0.0759938
-0.0549127
-0.0390117
-0.0272231
-0.0186201
-0.0124142
-0.00798899
-0.00481353
-0.00253758
-0.000605901
-4.82633
-3.03211
-1.54046
-0.880976
-0.593915
-0.402646
-0.277358
-0.199545
-0.147816
-0.110771
-0.0826469
-0.0607533
-0.0438109
-0.0309433
-0.0213674
-0.014356
-0.00929791
-0.00563224
-0.00298157
-0.000734323
-3.64839
-2.5604
-1.44819
-0.848058
-0.584271
-0.41224
-0.289636
-0.21061
-0.157885
-0.119751
-0.0904429
-0.0672879
-0.0490608
-0.034983
-0.0243518
-0.0164742
-0.0107331
-0.0065359
-0.00347329
-0.000876855
-2.74695
-2.12111
-1.3609
-0.844903
-0.583936
-0.422736
-0.304417
-0.224125
-0.169864
-0.130296
-0.0995202
-0.074856
-0.0551191
-0.03963
-0.0277736
-0.0188944
-0.0123676
-0.00756235
-0.00402939
-0.00103962
-2.14879
-1.75501
-1.2354
-0.820041
-0.578459
-0.431
-0.320921
-0.240693
-0.184421
-0.142836
-0.110099
-0.0835304
-0.0619851
-0.0448581
-0.0316042
-0.0215939
-0.0141856
-0.00870199
-0.00464457
-0.00122088
-1.6993
-1.44515
-1.10481
-0.796756
-0.583479
-0.443672
-0.339478
-0.259874
-0.201373
-0.157236
-0.122043
-0.0931659
-0.0695197
-0.0505526
-0.0357581
-0.0245132
-0.0161478
-0.00993097
-0.0053061
-0.00141687
-1.37064
-1.20733
-0.98349
-0.760333
-0.582209
-0.453769
-0.35646
-0.27937
-0.219486
-0.17273
-0.134824
-0.10339
-0.0774513
-0.0565135
-0.0400909
-0.0275514
-0.0181864
-0.0112066
-0.00599093
-0.00162082
-1.13937
-1.0304
-0.881271
-0.721854
-0.578782
-0.46358
-0.372148
-0.297679
-0.237137
-0.18804
-0.147469
-0.113486
-0.0852578
-0.0623612
-0.044331
-0.0305191
-0.0201749
-0.0124497
-0.00665648
-0.00182005
-0.986269
-0.90941
-0.805745
-0.688349
-0.572714
-0.470329
-0.384341
-0.312381
-0.251911
-0.201172
-0.158402
-0.122242
-0.092035
-0.0674346
-0.0480061
-0.0330892
-0.0218954
-0.0135244
-0.00723017
-0.00199281
-0.905674
-0.844188
-0.763105
-0.667648
-0.56781
-0.473882
-0.391589
-0.321261
-0.261054
-0.209466
-0.165369
-0.127847
-0.0963856
-0.0706964
-0.0503704
-0.0347435
-0.0230029
-0.0142165
-0.0075975
-0.00210422
-8.79583
-8.69521
-8.56838
-8.42977
-8.25252
-8.04936
-7.75994
-7.4347
-7.00452
-6.93486
-5.9923
-5.8647
-5.71783
-5.56203
-5.38118
-5.19216
-4.9761
-4.81523
-4.70349
-4.83739
-4.24476
-4.16415
-4.07665
-3.99107
-3.90951
-3.8451
-3.79604
-3.77389
-3.74374
-3.74269
-3.16383
-3.12539
-3.08483
-3.04512
-3.00568
-2.96461
-2.91386
-2.85262
-2.78316
-2.7499
-2.41019
-2.38826
-2.36241
-2.33276
-2.2994
-2.26337
-2.22658
-2.19399
-2.16839
-2.15911
-1.86155
-1.85217
-1.84027
-1.82633
-1.81116
-1.79547
-1.77939
-1.76279
-1.74478
-1.72996
-1.47502
-1.4742
-1.4709
-1.46524
-1.4574
-1.44759
-1.436
-1.42306
-1.40929
-1.39712
-1.20808
-1.2116
-1.21261
-1.21125
-1.20772
-1.20223
-1.19501
-1.18629
-1.17626
-1.16569
-1.03786
-1.04334
-1.04641
-1.04719
-1.0458
-1.04239
-1.03711
-1.03015
-1.02168
-1.01202
-0.951102
-0.957135
-0.960887
-0.962434
-0.961872
-0.959309
-0.954861
-0.948656
-0.940823
-0.93151
-8.72563
-8.84023
-8.41082
-8.55876
-8.77123
-8.83787
-8.85077
-8.86787
-8.87777
-8.86
-6.87998
-6.91838
-6.2207
-6.06878
-6.21719
-6.2815
-6.24719
-6.19887
-6.15366
-6.0909
-4.98822
-4.97888
-4.41185
-4.20177
-4.31255
-4.42593
-4.43855
-4.40292
-4.36043
-4.31097
-3.45045
-3.5013
-3.18625
-3.04553
-3.1196
-3.22729
-3.26788
-3.25557
-3.22764
-3.19765
-2.43432
-2.53619
-2.40937
-2.33437
-2.36694
-2.43015
-2.46292
-2.46182
-2.44653
-2.42899
-1.78265
-1.87695
-1.84009
-1.80699
-1.81837
-1.84886
-1.8703
-1.87652
-1.87405
-1.86863
-1.33734
-1.40193
-1.40198
-1.39837
-1.41106
-1.43202
-1.45033
-1.46233
-1.46939
-1.47339
-1.03209
-1.07538
-1.09295
-1.108
-1.12731
-1.14806
-1.1666
-1.18158
-1.19322
-1.20198
-0.84769
-0.882596
-0.907509
-0.92969
-0.95149
-0.972145
-0.990576
-1.00634
-1.01942
-1.0299
-0.761797
-0.794127
-0.820642
-0.843917
-0.865519
-0.885466
-0.903333
-0.918864
-0.931995
-0.942733
0.986966
0.972479
0.93949
0.873215
0.763496
0.564224
0.250352
-0.344222
-1.36853
-4.72305
0.890863
0.873084
0.834211
0.75811
0.635639
0.412882
0.082392
-0.601325
-1.63523
-4.47016
0.784361
0.764405
0.721487
0.638517
0.510941
0.274262
-0.0475838
-0.748351
-1.6651
-3.42182
0.668554
0.647053
0.600954
0.513899
0.384395
0.148639
-0.162077
-0.75406
-1.51277
-2.43519
0.546106
0.524145
0.475821
0.389475
0.258402
0.0470755
-0.249225
-0.649326
-1.22467
-1.75882
0.421648
0.400537
0.351821
0.271721
0.144346
-0.0246128
-0.281404
-0.529283
-0.940317
-1.34579
0.302019
0.2826
0.236642
0.166144
0.0533391
-0.0765758
-0.277884
-0.461636
-0.756681
-1.07374
0.195639
0.178184
0.137784
0.0770802
-0.0160641
-0.123135
-0.278292
-0.438203
-0.651674
-0.877918
0.11178
0.0961795
0.0615871
0.00863772
-0.068651
-0.162824
-0.28634
-0.423053
-0.580608
-0.74319
0.0615328
0.0471852
0.0163072
-0.031868
-0.099993
-0.185493
-0.290665
-0.409178
-0.539109
-0.673813
1.54212
1.54486
1.55296
1.55689
1.55717
1.52281
1.47156
1.25388
1.00807
-0.51638
1.48762
1.4886
1.49241
1.48911
1.47888
1.42838
1.35317
1.10482
0.785433
-0.710028
1.43291
1.43216
1.43173
1.4213
1.40041
1.33409
1.23357
0.956088
0.557481
-0.922044
1.37818
1.37577
1.37118
1.35374
1.32212
1.24025
1.11337
0.807747
0.324134
-1.15761
1.32362
1.31963
1.31101
1.28669
1.24433
1.14711
0.99316
0.65977
0.088168
-1.40486
1.26941
1.26395
1.25143
1.22041
1.16735
1.05484
0.873523
0.511964
-0.151615
-1.67432
1.21572
1.20889
1.19267
1.15511
1.09144
0.963568
0.755037
0.363958
-0.38679
-1.95458
1.1627
1.15469
1.13497
1.09103
1.01688
0.873367
0.638275
0.214361
-0.621145
-2.31658
1.11046
1.10147
1.07851
1.02836
0.943826
0.784244
0.523691
0.0621446
-0.825278
-2.76988
1.05888
1.04864
1.02243
0.966261
0.871643
0.695837
0.410843
-0.10079
-1.04036
-3.58968
2.03179
2.05115
2.09722
2.16878
2.26663
2.38721
2.51847
2.64892
2.1826
-0.707167
1.98974
2.00753
2.0506
2.11636
2.2048
2.30957
2.41013
2.50068
2.09794
-0.865695
1.94591
1.96228
2.00195
2.0611
2.13927
2.22921
2.31225
2.38849
2.21151
-0.235599
1.90028
1.91518
1.95141
2.00417
2.0729
2.14962
2.22141
2.27947
2.25534
0.109935
1.85295
1.86628
1.89892
1.94526
2.00484
2.06781
2.12715
2.14756
2.15973
0.156205
1.80405
1.81571
1.84459
1.88427
1.93448
1.98234
2.02661
1.99929
1.99617
0.120535
1.75374
1.76368
1.7886
1.82138
1.86197
1.89373
1.92151
1.84843
1.81821
0.066089
1.7022
1.71036
1.7312
1.75689
1.78766
1.80289
1.81328
1.69963
1.63273
-0.0258142
1.64962
1.65597
1.67262
1.6911
1.71188
1.71049
1.70213
1.55157
1.43473
-0.163391
1.59619
1.60073
1.61312
1.62433
1.63495
1.61699
1.58809
1.40295
1.22509
-0.333645
2.57457
2.57762
2.58317
2.5903
2.59663
2.59853
2.59123
2.56878
2.5235
2.44718
2.56325
2.569
2.57995
2.59501
2.61162
2.62549
2.63129
2.62095
2.58618
2.51382
2.53887
2.54876
2.56807
2.59568
2.62895
2.66281
2.69123
2.70281
2.68839
2.62536
2.49963
2.51413
2.54284
2.58494
2.63791
2.69631
2.75325
2.79464
2.80931
2.76499
2.44622
2.46497
2.50253
2.55867
2.6313
2.7152
2.8023
2.87748
2.92425
2.90936
2.38155
2.40359
2.44821
2.51602
2.60569
2.71292
2.82886
2.93679
3.00343
3.01213
2.30966
2.33367
2.3829
2.45875
2.56092
2.68668
2.82866
2.96529
3.01444
2.98326
2.23468
2.25933
2.31063
2.39042
2.49939
2.63651
2.79734
2.95666
2.93785
2.69952
2.16014
2.1843
2.23554
2.31542
2.42538
2.56569
2.73107
2.87454
2.69347
2.02156
2.08845
2.11086
2.16023
2.2369
2.3424
2.47819
2.65211
2.83427
2.46016
0.811939
2.37504
2.34138
2.30284
2.26084
2.21563
2.16696
2.11468
2.05876
1.9993
1.93639
2.44154
2.40515
2.36135
2.31404
2.26347
2.20885
2.14973
2.08611
2.01811
1.94585
2.55795
2.51678
2.46274
2.40539
2.3453
2.28052
2.21012
2.13413
2.05281
1.96631
2.71473
2.66789
2.59978
2.52983
2.45872
2.38266
2.3003
2.21189
2.11779
2.01816
2.9034
2.85136
2.76998
2.69093
2.61319
2.53172
2.44571
2.35558
2.26122
2.16186
3.09732
3.0475
2.96476
2.88094
2.79289
2.69784
2.59573
2.48656
2.36981
2.2447
3.15004
3.09405
3.00931
2.91698
2.81537
2.70492
2.58463
2.45395
2.31139
2.15505
2.84838
2.81843
2.76422
2.69526
2.59703
2.47501
2.3273
2.1572
1.96161
1.73836
2.26409
2.33834
2.2546
2.12971
1.94623
1.74772
1.51851
1.26391
0.969672
0.634848
0.651393
0.659347
0.382704
0.15918
-0.0924972
-0.333826
-0.611597
-0.918333
-1.2752
-1.67573
1.87017
1.80082
1.72854
1.65357
1.57617
1.49665
1.41531
1.33246
1.24847
1.1636
1.86948
1.78919
1.7052
1.6178
1.52732
1.43413
1.33859
1.24108
1.14215
1.04175
1.87478
1.77843
1.67753
1.57238
1.46332
1.35078
1.23531
1.1176
0.998723
0.879041
1.91317
1.80316
1.68859
1.56993
1.44756
1.3217
1.1925
1.06003
0.923014
0.773759
2.05638
1.94343
1.82157
1.6895
1.54654
1.39309
1.2303
1.05668
0.860859
0.628941
2.11011
1.96444
1.80539
1.63158
1.4453
1.25033
1.03895
0.782227
0.462619
0.161558
1.98215
1.78855
1.56854
1.32097
1.05871
0.79766
0.506197
0.0873434
-0.470193
-0.838645
1.48508
1.19908
0.873276
0.505526
0.120479
-0.237419
-0.609524
-1.19793
-2.04061
-2.44621
0.262143
-0.143224
-0.586983
-1.07567
-1.58993
-2.05651
-2.45836
-3.06098
-4.05233
-4.40455
-2.1108
-2.5682
-3.05037
-3.55916
-4.0888
-4.58172
-4.94048
-5.29382
-6.06236
-6.36327
0.955381
0.612342
0.285058
0.0225247
-0.135061
-0.174835
-0.127902
-0.0513662
0.0131331
0.0532502
0.0714561
0.0736242
0.0662352
0.0546678
0.0423367
0.0310318
0.0214976
0.0137393
0.00753348
0.00211989
0.796582
0.356087
0.00126254
-0.22333
-0.325144
-0.314737
-0.224947
-0.11303
-0.0231232
0.0324488
0.0590588
0.0657918
0.0610765
0.0511692
0.0399302
0.0293899
0.0204115
0.0130659
0.00717857
0.00202076
0.583095
-0.0502367
-0.413447
-0.603464
-0.650373
-0.561058
-0.389069
-0.211653
-0.078694
0.00138714
0.0407931
0.0542937
0.0534476
0.0459258
0.0362811
0.0268797
0.0187411
0.0120268
0.00662606
0.00186803
0.346477
-0.455163
-0.679031
-0.887367
-0.928533
-0.790927
-0.552005
-0.313031
-0.136569
-0.0311554
0.0215213
0.0420086
0.0451202
0.0400749
0.0321456
0.0240071
0.0168178
0.0108259
0.00598382
0.00169127
0.0301855
-0.720226
-0.723074
-0.986662
-1.02408
-0.886914
-0.637565
-0.376916
-0.178463
-0.0573465
0.00477681
0.0307113
0.037114
0.0342777
0.027976
0.0210823
0.0148481
0.00959216
0.0053206
0.00150911
-0.362465
-0.880255
-0.755124
-0.972926
-0.982004
-0.868476
-0.644816
-0.397032
-0.199672
-0.0745847
-0.00811191
0.0211135
0.0298867
0.0288677
0.0240173
0.0182801
0.0129517
0.0084013
0.00467735
0.00133269
-1.04473
-1.01606
-0.833575
-0.927844
-0.904364
-0.802046
-0.608929
-0.388534
-0.205433
-0.0843716
-0.0175145
0.0131967
0.0235445
0.0239754
0.0203845
0.0156896
0.0111915
0.00729413
0.00407671
0.0011681
-2.12149
-1.212
-0.9329
-0.903485
-0.83526
-0.728708
-0.559419
-0.367162
-0.202426
-0.0891812
-0.0242829
0.00672864
0.018083
0.0196616
0.0171433
0.0133637
0.00960513
0.00629422
0.00353175
0.00101905
-3.32241
-1.53636
-1.01123
-0.887968
-0.780664
-0.665951
-0.512895
-0.34345
-0.195831
-0.0911621
-0.0291564
0.00154673
0.0135279
0.0159875
0.0143457
0.0113378
0.00821435
0.00541372
0.003049
0.000887655
-3.82621
-1.75051
-0.996845
-0.845788
-0.718323
-0.602306
-0.465856
-0.318059
-0.18698
-0.0912018
-0.032687
-0.00278919
0.00949877
0.0126556
0.0117851
0.00948195
0.00694416
0.00461399
0.0026117
0.000768015
-3.11955
-1.69255
-0.900722
-0.765737
-0.63876
-0.527678
-0.409749
-0.285706
-0.173593
-0.0891321
-0.0357983
-0.00740587
0.00514015
0.00917114
0.00923651
0.00772711
0.00579708
0.00392173
0.00224475
0.000662796
-2.73515
-1.65985
-0.910631
-0.737136
-0.606894
-0.493218
-0.381023
-0.265937
-0.162588
-0.0846707
-0.0352191
-0.00861302
0.00341305
0.00753166
0.00790598
0.00674037
0.00511456
0.0034889
0.00200632
0.000595077
-2.72701
-1.61869
-0.930225
-0.708669
-0.579057
-0.465333
-0.358619
-0.249904
-0.152714
-0.0798822
-0.0338726
-0.00910742
0.00220234
0.00622125
0.00676812
0.00585829
0.00448504
0.00307953
0.0017772
0.000531952
-2.83822
-1.56381
-0.947317
-0.681498
-0.551775
-0.438357
-0.337424
-0.23561
-0.144618
-0.0763996
-0.0332976
-0.0100001
0.000801972
0.00482526
0.00559334
0.00496097
0.00384965
0.00266827
0.00154796
0.000470433
-3.0069
-1.52432
-0.960566
-0.657444
-0.526211
-0.412901
-0.317118
-0.222189
-0.137552
-0.0738318
-0.0333576
-0.0112699
-0.000802838
0.0033243
0.00436677
0.00403911
0.00320334
0.00225282
0.00131769
0.000410001
-3.18304
-1.49718
-0.970163
-0.637468
-0.503085
-0.389878
-0.298516
-0.209928
-0.131337
-0.0718703
-0.0338016
-0.0127564
-0.00252065
0.00176748
0.00311367
0.00310516
0.00255195
0.0018356
0.00108724
0.00035068
-3.3785
-1.48912
-0.978813
-0.622403
-0.482826
-0.369619
-0.281957
-0.199085
-0.12606
-0.0704984
-0.0345859
-0.0144233
-0.00432779
0.000168544
0.00184155
0.00216299
0.00189732
0.00141738
0.000856838
0.000292312
-3.5989
-1.49853
-0.987997
-0.612862
-0.465833
-0.352309
-0.267549
-0.18973
-0.121761
-0.0697374
-0.0357209
-0.0162754
-0.0062266
-0.00147353
0.00054999
0.00121245
0.00123939
0.000998099
0.000626388
0.000234634
-3.86068
-1.53125
-0.999506
-0.60928
-0.452495
-0.338102
-0.25538
-0.181889
-0.118431
-0.069575
-0.0372
-0.0183102
-0.00821618
-0.00315843
-0.000760854
0.000253581
0.000578138
0.000577671
0.000395823
0.000177344
-4.15703
-1.58874
-1.01497
-0.611948
-0.44318
-0.327118
-0.245529
-0.175587
-0.116053
-0.0699869
-0.0390065
-0.0205186
-0.0102919
-0.00488384
-0.00208982
-0.000713097
-8.62369e-05
0.000156092
0.000165093
0.00012014
)
;

boundaryField
{
    inlet
    {
        type            freestreamPressure;
        freestreamValue uniform 0;
        supersonic      false;
        value           nonuniform List<scalar> 
40
(
0.986966
0.890863
0.784361
0.668554
0.546106
0.421648
0.302019
0.195639
0.11178
0.0615328
1.54212
1.48762
1.43291
1.37818
1.32362
1.26941
1.21572
1.1627
1.11046
1.05888
2.03179
1.98974
1.94591
1.90028
1.85295
1.80405
1.75374
1.7022
1.64962
1.59619
2.57457
2.56325
2.53887
2.49963
2.44622
2.38155
2.30966
2.23468
2.16014
2.08845
)
;
    }
    outlet
    {
        type            freestreamPressure;
        freestreamValue uniform 0;
        supersonic      false;
        value           nonuniform List<scalar> 
40
(
-9.07285e-09
-1.03526e-08
-1.13898e-08
-1.20868e-08
-1.21692e-08
-1.13519e-08
-9.43621e-09
-6.47156e-09
-3.01878e-09
-3.97682e-10
1.12872e-09
1.59765e-10
-8.42437e-10
-1.83868e-09
-2.82879e-09
-3.81223e-09
-4.7866e-09
-5.74716e-09
-6.697e-09
-7.66906e-09
1.13832e-08
1.03085e-08
9.27604e-09
8.2452e-09
7.2117e-09
6.18057e-09
5.15401e-09
4.13236e-09
3.11503e-09
2.10134e-09
5.85474e-10
4.36863e-09
9.17314e-09
1.31236e-08
1.55591e-08
1.65412e-08
1.64154e-08
1.55836e-08
1.43971e-08
1.29696e-08
)
;
    }
    top
    {
        type            symmetryPlane;
    }
    bottom
    {
        type            symmetryPlane;
    }
    cylinder
    {
        type            zeroGradient;
    }
    frontandback
    {
        type            empty;
    }
}


// ************************************************************************* //
