/*--------------------------------*- C++ -*----------------------------------*\
| =========                 |                                                 |
| \\      /  F ield         | OpenFOAM: The Open Source CFD Toolbox           |
|  \\    /   O peration     | Version:  v1912                                 |
|   \\  /    A nd           | Website:  www.openfoam.com                      |
|    \\/     M anipulation  |                                                 |
\*---------------------------------------------------------------------------*/
FoamFile
{
    version     2.0;
    format      ascii;
    class       volScalarField;
    location    "52";
    object      p;
}
// * * * * * * * * * * * * * * * * * * * * * * * * * * * * * * * * * * * * * //

dimensions      [0 2 -2 0 0 0 0];


internalField   nonuniform List<scalar> 
9600
(
-41.4848
-36.2199
-32.9931
-30.2558
-27.7504
-25.4835
-23.427
-21.5528
-19.8435
-18.2855
-16.8661
-15.5733
-14.3959
-13.323
-12.3445
-11.451
-10.6342
-9.88594
-9.19888
-8.57079
-42.2446
-36.9621
-33.6993
-30.9192
-28.3686
-26.0577
-23.9598
-22.0478
-20.3047
-18.7166
-17.2708
-15.9549
-14.7572
-13.6664
-12.672
-11.7643
-10.9347
-10.1747
-9.47656
-8.83919
-43.006
-37.7003
-34.4001
-31.577
-28.9811
-26.6259
-24.4865
-22.5369
-20.7601
-19.1423
-17.6705
-16.3317
-15.1139
-14.0055
-12.9954
-12.0738
-11.2315
-10.4599
-9.75065
-9.10421
-43.7658
-38.4341
-35.0951
-32.2282
-29.5866
-27.187
-25.0063
-23.0192
-21.209
-19.5619
-18.0642
-16.703
-15.4655
-14.3397
-13.3143
-12.3789
-11.5241
-10.7409
-10.0208
-9.3655
-44.5211
-39.1619
-35.7832
-32.8719
-30.1843
-27.7402
-25.5182
-23.4939
-21.6506
-19.9744
-18.4514
-17.0681
-15.8113
-14.6685
-13.6279
-12.679
-11.812
-11.0175
-10.2865
-9.62279
-45.2698
-39.8824
-36.4632
-33.5069
-30.7731
-28.2844
-26.0213
-23.9599
-22.084
-20.3792
-18.8313
-17.4263
-16.1506
-14.9911
-13.9358
-12.9737
-12.0948
-11.2891
-10.5476
-9.8758
-46.0101
-40.5939
-37.1339
-34.1321
-31.3518
-28.8186
-26.5146
-24.4165
-22.5083
-20.7754
-19.2031
-17.7769
-16.4827
-15.3071
-14.2374
-13.2625
-12.372
-11.5554
-10.8036
-10.1243
-46.7405
-41.2952
-37.794
-34.7463
-31.9194
-29.3418
-26.9971
-24.8628
-22.9228
-21.1623
-19.5661
-18.1193
-16.8071
-15.6156
-14.5321
-13.5448
-12.6431
-11.816
-11.0543
-10.3679
-47.4596
-41.9849
-38.4422
-35.3485
-32.4749
-29.8531
-27.468
-25.2979
-23.3266
-21.539
-19.9195
-18.4525
-17.1229
-15.9162
-14.8193
-13.82
-12.9075
-12.0703
-11.2991
-10.6063
-48.1662
-42.6619
-39.0775
-35.9375
-33.0173
-30.3514
-27.9263
-25.7209
-23.7189
-21.9048
-20.2625
-18.776
-17.4294
-16.208
-15.0981
-14.0874
-13.1646
-12.3179
-11.5376
-10.8391
-48.8592
-43.325
-39.6988
-36.5123
-33.5455
-30.8358
-28.3712
-26.1309
-24.0987
-22.2588
-20.5943
-19.0887
-17.7258
-16.4902
-15.3679
-14.3462
-13.4137
-12.5579
-11.7692
-11.0658
-49.5376
-43.9732
-40.3051
-37.072
-34.0587
-31.3055
-28.8017
-26.5272
-24.4654
-22.6001
-20.9141
-19.39
-18.0112
-16.7619
-15.6277
-14.5956
-13.6539
-12.7895
-11.993
-11.2853
-50.2008
-44.6057
-40.8954
-37.6156
-34.556
-31.7596
-29.2172
-26.9088
-24.818
-22.928
-21.2209
-19.6788
-18.2846
-17.0221
-15.8765
-14.8345
-13.8841
-13.0119
-12.2082
-11.4972
-50.848
-45.2217
-41.469
-38.1424
-35.0366
-32.1973
-29.6167
-27.2751
-25.1558
-23.2415
-21.5138
-19.9542
-18.545
-17.2696
-16.1129
-15.0616
-14.1031
-13.2237
-12.4136
-11.7006
-51.4788
-45.8203
-42.025
-38.6517
-35.4997
-32.618
-29.9997
-27.6254
-25.4782
-23.5401
-21.7922
-20.2153
-18.7913
-17.5032
-16.3357
-15.2751
-14.3088
-13.4226
-12.6071
-11.8937
-52.0927
-46.4007
-42.5626
-39.1427
-35.9449
-33.0211
-30.3656
-27.9592
-25.7845
-23.8231
-22.0552
-20.4613
-19.0227
-17.722
-16.5435
-15.4736
-14.4994
-13.6065
-12.7859
-12.0711
-52.691
-46.963
-43.0814
-39.6147
-36.3713
-33.4059
-30.7138
-28.2759
-26.0743
-24.0899
-22.3024
-20.6915
-19.2382
-17.9247
-16.7353
-15.6561
-14.6745
-13.7755
-12.9488
-12.2294
-53.278
-47.5081
-43.5804
-40.0667
-36.7782
-33.7718
-31.0439
-28.5752
-26.3473
-24.3402
-22.5331
-20.9051
-19.4366
-18.1097
-16.9087
-15.8202
-14.8315
-13.9267
-13.0951
-12.3801
-53.8558
-48.0355
-44.0581
-40.4976
-37.1651
-34.1189
-31.3562
-28.8575
-26.6039
-24.5746
-22.7479
-21.1023
-19.6176
-18.2756
-17.0605
-15.959
-14.9582
-14.0426
-13.2097
-12.5273
-54.4026
-48.5377
-44.5135
-40.908
-37.5333
-34.4487
-31.6523
-29.1246
-26.846
-24.795
-22.9489
-21.2855
-19.7839
-18.425
-17.1922
-16.0711
-15.0466
-14.1052
-13.2614
-12.5853
-59.8576
-59.8262
-59.7569
-59.6645
-59.5482
-59.4054
-59.2358
-59.0398
-58.8179
-58.5708
-58.2989
-58.0028
-57.6833
-57.3409
-56.9764
-56.5907
-56.185
-55.7608
-55.3211
-54.8689
-53.5089
-53.5063
-53.4705
-53.4072
-53.3171
-53.1996
-53.055
-52.884
-52.6873
-52.4656
-52.2194
-51.9493
-51.656
-51.3402
-51.0023
-50.6432
-50.2634
-49.8635
-49.444
-49.0027
-48.8648
-48.8866
-48.8791
-48.8427
-48.7789
-48.6885
-48.572
-48.4302
-48.2637
-48.0729
-47.8586
-47.6213
-47.3615
-47.0799
-46.7768
-46.4527
-46.1079
-45.7425
-45.3562
-44.9471
-44.6344
-44.6739
-44.6868
-44.6725
-44.632
-44.5664
-44.4763
-44.3622
-44.2246
-44.0642
-43.8815
-43.677
-43.4511
-43.2044
-42.9373
-42.6499
-42.3426
-42.0152
-41.6675
-41.2986
-40.7227
-40.7721
-40.7975
-40.7982
-40.7747
-40.7277
-40.658
-40.5659
-40.4521
-40.317
-40.161
-39.9848
-39.7888
-39.5733
-39.3388
-39.0854
-38.8133
-38.5224
-38.2125
-37.883
-37.2096
-37.2631
-37.295
-37.3044
-37.2915
-37.2569
-37.2013
-37.1252
-37.0289
-36.9131
-36.7781
-36.6245
-36.4527
-36.2631
-36.0561
-35.8318
-35.5903
-35.3317
-35.0556
-34.7616
-34.0861
-34.1396
-34.1733
-34.1864
-34.179
-34.1517
-34.1051
-34.0395
-33.9555
-33.8536
-33.7341
-33.5976
-33.4447
-33.2755
-33.0907
-32.8902
-32.6744
-32.4431
-32.1961
-31.9328
-31.3154
-31.366
-31.3984
-31.4118
-31.4064
-31.3826
-31.341
-31.2819
-31.2059
-31.1135
-31.0051
-30.8812
-30.7424
-30.589
-30.4216
-30.2403
-30.0454
-29.8369
-29.6143
-29.3773
-28.8576
-28.9037
-28.9329
-28.9446
-28.9388
-28.916
-28.8767
-28.8213
-28.7504
-28.6642
-28.5635
-28.4487
-28.3204
-28.179
-28.0251
-27.8591
-27.6812
-27.4914
-27.2895
-27.0747
-26.6729
-26.7139
-26.7391
-26.7478
-26.7404
-26.7171
-26.6785
-26.6249
-26.5569
-26.4749
-26.3794
-26.2711
-26.1505
-26.0183
-25.875
-25.7212
-25.5571
-25.383
-25.1985
-25.003
-24.7243
-24.76
-24.7808
-24.7862
-24.7765
-24.7519
-24.713
-24.6602
-24.5938
-24.5144
-24.4227
-24.319
-24.2043
-24.079
-23.9441
-23.8
-23.6474
-23.4865
-23.3171
-23.1385
-22.9787
-23.0094
-23.0259
-23.028
-23.0158
-22.9896
-22.9499
-22.8972
-22.8317
-22.7541
-22.6649
-22.5648
-22.4544
-22.3346
-22.2062
-22.07
-21.927
-21.7774
-21.6214
-21.4581
-21.408
-21.434
-21.4466
-21.4455
-21.4308
-21.403
-21.3625
-21.3095
-21.2445
-21.1681
-21.0808
-20.9833
-20.8763
-20.7607
-20.6375
-20.5079
-20.3728
-20.2331
-20.0892
-19.9402
-19.9883
-20.0102
-20.0192
-20.0152
-19.9983
-19.969
-19.9275
-19.8742
-19.8096
-19.7341
-19.6482
-19.5527
-19.4483
-19.336
-19.217
-19.0925
-18.9641
-18.833
-18.7003
-18.565
-18.6998
-18.718
-18.7238
-18.7172
-18.6984
-18.6678
-18.6255
-18.5719
-18.5075
-18.4327
-18.348
-18.2541
-18.1518
-18.042
-17.9262
-17.8057
-17.6827
-17.5589
-17.4367
-17.3148
-17.526
-17.5408
-17.5438
-17.535
-17.5145
-17.4827
-17.4397
-17.386
-17.3218
-17.2476
-17.1639
-17.0713
-16.9705
-16.8626
-16.749
-16.6314
-16.5124
-16.3943
-16.2817
-16.173
-16.453
-16.4649
-16.4654
-16.4546
-16.4326
-16.3997
-16.3562
-16.3023
-16.2383
-16.1646
-16.0816
-15.99
-15.8903
-15.7836
-15.6712
-15.555
-15.4384
-15.324
-15.2196
-15.1227
-15.469
-15.4785
-15.4771
-15.4648
-15.4417
-15.4082
-15.3643
-15.3104
-15.2467
-15.1735
-15.0913
-15.0004
-14.9015
-14.7955
-14.6834
-14.5673
-14.4509
-14.3381
-14.2406
-14.1529
-14.5629
-14.5709
-14.5685
-14.5557
-14.5326
-14.4994
-14.4563
-14.4034
-14.3411
-14.2696
-14.1892
-14.1002
-14.0032
-13.8987
-13.7878
-13.6719
-13.5549
-13.4416
-13.351
-13.2775
-13.7293
-13.7341
-13.7291
-13.7145
-13.6904
-13.6568
-13.6139
-13.562
-13.5011
-13.4316
-13.3536
-13.2674
-13.1732
-13.0716
-12.9628
-12.8481
-12.7291
-12.6112
-12.5141
-12.4649
-53.5659
-54.1413
-54.6795
-55.2027
-55.708
-56.1893
-56.6439
-57.0707
-57.4687
-57.837
-58.1751
-58.4823
-58.7584
-59.0029
-59.2153
-59.3956
-59.5448
-59.6639
-59.755
-59.8199
-47.083
-47.6637
-48.2164
-48.7467
-49.2542
-49.7364
-50.192
-50.6201
-51.0202
-51.3917
-51.7339
-52.0466
-52.3301
-52.585
-52.8092
-53.0021
-53.1643
-53.2962
-53.3983
-53.4695
-42.4389
-43.0073
-43.5521
-44.0735
-44.5715
-45.0453
-45.4941
-45.9173
-46.3142
-46.6841
-47.0261
-47.34
-47.6255
-47.8812
-48.1085
-48.3076
-48.4782
-48.6199
-48.7325
-48.8146
-38.315
-38.8582
-39.3817
-39.8836
-40.3634
-40.8207
-41.2548
-41.6653
-42.0514
-42.4126
-42.7475
-43.0556
-43.3379
-43.5939
-43.8237
-44.0271
-44.2037
-44.353
-44.4748
-44.5687
-34.6374
-35.1505
-35.6466
-36.1231
-36.5789
-37.0138
-37.4271
-37.8182
-38.1864
-38.5311
-38.853
-39.1516
-39.4255
-39.6748
-39.8997
-40.0999
-40.2751
-40.4251
-40.5499
-40.6493
-31.4389
-31.9206
-32.3869
-32.8353
-33.2645
-33.6741
-34.0636
-34.4325
-34.7803
-35.1066
-35.4114
-35.694
-35.9538
-36.1909
-36.4058
-36.598
-36.767
-36.9126
-37.0351
-37.1343
-28.6672
-29.118
-29.5547
-29.9747
-30.3768
-30.7606
-31.1255
-31.4712
-31.7971
-32.1029
-32.3884
-32.6533
-32.8971
-33.1198
-33.3209
-33.5024
-33.6625
-33.8007
-33.9174
-34.0126
-26.2553
-26.6773
-27.0859
-27.4789
-27.855
-28.2138
-28.5547
-28.8774
-29.1815
-29.4666
-29.7326
-29.9793
-30.2066
-30.4143
-30.6024
-30.7694
-30.9189
-31.0481
-31.1571
-31.2463
-24.1447
-24.5403
-24.9231
-25.2911
-25.6431
-25.9785
-26.2968
-26.5977
-26.881
-27.1463
-27.3936
-27.6227
-27.8336
-28.0261
-28.2003
-28.3562
-28.4924
-28.6116
-28.7122
-28.7942
-22.2852
-22.6569
-23.0165
-23.3619
-23.6919
-24.0058
-24.3033
-24.5841
-24.8479
-25.0948
-25.3245
-25.5371
-25.7324
-25.9105
-26.0713
-26.2147
-26.3406
-26.4493
-26.5412
-26.6158
-20.6351
-20.9856
-21.3245
-21.6496
-21.9597
-22.2541
-22.5325
-22.7949
-23.041
-23.2708
-23.4844
-23.6817
-23.8627
-24.0273
-24.1757
-24.3076
-24.4232
-24.5225
-24.606
-24.6734
-19.1608
-19.4925
-19.8132
-20.1203
-20.4124
-20.6891
-20.9502
-21.1958
-21.4256
-21.6399
-21.8387
-22.022
-22.1899
-22.3423
-22.4793
-22.6008
-22.7069
-22.7978
-22.8731
-22.9337
-17.8353
-18.1505
-18.4553
-18.7465
-19.0225
-19.283
-19.5283
-19.7584
-19.9734
-20.1735
-20.3588
-20.5294
-20.6854
-20.8267
-20.9533
-21.0654
-21.1629
-21.2457
-21.3137
-21.3683
-16.6371
-16.9379
-17.2291
-17.5061
-17.7674
-18.0132
-18.244
-18.4599
-18.6612
-18.8483
-19.0213
-19.1803
-19.3254
-19.4566
-19.574
-19.6775
-19.7672
-19.8431
-19.9056
-19.9536
-15.5489
-15.8375
-16.1172
-16.3815
-16.6293
-16.8614
-17.0786
-17.2814
-17.4701
-17.6452
-17.8068
-17.9553
-18.0905
-18.2127
-18.3216
-18.4174
-18.5001
-18.5697
-18.6261
-18.6693
-14.5562
-14.8363
-15.1068
-15.3592
-15.594
-15.8132
-16.0176
-16.2079
-16.3848
-16.5487
-16.7
-16.8387
-16.965
-17.0788
-17.1801
-17.269
-17.3453
-17.4092
-17.4605
-17.4994
-13.6413
-13.9202
-14.1855
-14.4265
-14.6487
-14.8555
-15.0477
-15.2262
-15.392
-15.5456
-15.6873
-15.8173
-15.9354
-16.0417
-16.1362
-16.2188
-16.2894
-16.3482
-16.395
-16.4299
-12.7834
-13.0665
-13.3332
-13.5648
-13.775
-13.9701
-14.1511
-14.3191
-14.4751
-14.6198
-14.7533
-14.8757
-14.9869
-15.087
-15.1758
-15.2532
-15.3192
-15.3738
-15.4169
-15.4488
-11.9961
-12.2698
-12.5371
-12.7639
-12.964
-13.1477
-13.3182
-13.4767
-13.624
-13.7607
-13.887
-14.003
-14.1084
-14.2032
-14.2873
-14.3605
-14.4229
-14.4742
-14.5147
-14.5442
-11.4055
-11.6563
-11.8841
-12.1008
-12.2892
-12.4551
-12.6091
-12.7533
-12.8873
-13.0115
-13.1263
-13.2315
-13.327
-13.4127
-13.4883
-13.5539
-13.6093
-13.6545
-13.6894
-13.7139
-6.00487
-6.49616
-7.03453
-7.61693
-8.24979
-8.94052
-9.69677
-10.528
-11.4464
-12.4676
-13.6121
-14.9068
-16.387
-18.0991
-20.1032
-22.4787
-25.3068
-28.6099
-32.6071
-38.603
-6.27545
-6.78027
-7.32916
-7.92362
-8.57026
-9.27616
-10.0491
-10.8989
-11.8378
-12.8819
-14.0519
-15.3752
-16.8876
-18.6356
-20.6799
-23.0995
-25.9747
-29.3245
-33.3603
-39.3772
-6.54746
-7.06581
-7.62534
-8.2321
-8.89277
-9.6141
-10.404
-11.2726
-12.2323
-13.2996
-14.4956
-15.8478
-17.3927
-19.177
-21.2616
-23.7254
-26.6472
-30.0427
-34.1152
-40.1486
-6.82041
-7.35224
-7.92248
-8.54175
-9.21666
-9.95364
-10.7608
-11.6483
-12.6291
-13.7198
-14.9419
-16.3234
-17.9009
-19.7217
-21.8468
-24.3547
-27.3228
-30.7638
-34.8742
-40.9288
-7.09386
-7.63908
-8.22011
-8.8521
-9.54146
-10.2943
-11.1187
-12.0254
-13.0275
-14.1418
-15.3902
-16.801
-18.4114
-20.2689
-22.4345
-24.9864
-28.0008
-31.4874
-35.6362
-41.7152
-7.36743
-7.92592
-8.51782
-9.16273
-9.86672
-10.6355
-11.4775
-12.4035
-13.427
-14.5651
-15.8399
-17.2802
-18.9235
-20.8178
-23.024
-25.6199
-28.6805
-32.2124
-36.3994
-42.5038
-7.64081
-8.21241
-8.81522
-9.47323
-10.192
-10.9769
-11.8366
-12.782
-13.827
-14.989
-16.2903
-17.7603
-19.4367
-21.3677
-23.6145
-26.2544
-29.3609
-32.9377
-37.1622
-43.2922
-7.91376
-8.49826
-9.11198
-9.78327
-10.517
-11.3182
-12.1955
-13.1605
-14.2271
-15.4129
-16.7409
-18.2406
-19.95
-21.9178
-24.2052
-26.8889
-30.041
-33.6622
-37.9234
-44.0788
-8.18611
-8.78325
-9.40788
-10.0926
-10.8414
-11.6588
-12.5539
-13.5385
-14.6266
-15.8364
-17.191
-18.7203
-20.4628
-22.4673
-24.7951
-27.5223
-30.7197
-34.3848
-38.6818
-44.8624
-8.45783
-9.0673
-9.70275
-10.4009
-11.1648
-11.9985
-12.9114
-13.9154
-15.0251
-16.2588
-17.6399
-19.1988
-20.9743
-23.0153
-25.3833
-28.1537
-31.3959
-35.1042
-39.4361
-45.6412
-8.72903
-9.35042
-9.99653
-10.7082
-11.4872
-12.3371
-13.2676
-14.2911
-15.4221
-16.6796
-18.0871
-19.6754
-21.4836
-23.561
-25.9688
-28.7821
-32.0684
-35.8192
-40.1849
-46.414
-8.99999
-9.63278
-10.2893
-11.0144
-11.8083
-12.6742
-13.6222
-14.6648
-15.8171
-17.0981
-18.5318
-20.1493
-21.99
-24.1035
-26.5508
-29.4063
-32.7361
-36.5287
-40.9269
-47.1792
-9.27121
-9.91468
-10.5811
-11.3194
-12.1279
-13.0096
-13.9748
-15.0363
-16.2095
-17.5137
-18.9733
-20.6197
-22.4926
-24.6418
-27.1281
-30.0253
-33.3979
-37.2313
-41.6608
-47.9354
-9.5434
-10.1965
-10.8722
-11.6232
-12.4459
-13.343
-14.3249
-15.4049
-16.5987
-17.9258
-19.4109
-21.0858
-22.9906
-25.1749
-27.6997
-30.638
-34.0525
-37.9258
-42.3853
-48.6815
-9.81734
-10.4787
-11.1625
-11.9255
-12.7619
-13.6737
-14.6719
-15.77
-16.984
-18.3335
-19.8438
-21.5468
-23.4828
-25.7019
-28.2646
-31.2431
-34.6987
-38.6111
-43.0992
-49.4162
-10.094
-10.7613
-11.4518
-12.2259
-13.0753
-14.0013
-15.0152
-16.1309
-17.3645
-18.736
-20.271
-22.0016
-23.9684
-26.2216
-28.8214
-31.8394
-35.3352
-39.2856
-43.8013
-50.1386
-10.3731
-11.0434
-11.7386
-12.523
-13.3847
-14.3244
-15.3536
-16.4865
-17.7393
-19.1324
-20.6915
-22.4491
-24.4462
-26.7328
-29.3691
-32.4255
-35.9605
-39.9483
-44.4907
-50.848
-10.654
-11.3223
-12.0205
-12.8149
-13.689
-14.6421
-15.6863
-16.8358
-18.1074
-19.5216
-21.1043
-22.8885
-24.9151
-27.2344
-29.9062
-33.0002
-36.5731
-40.5972
-45.1661
-51.5444
-10.9294
-11.5898
-12.2912
-13.0982
-13.9859
-14.9526
-16.0115
-17.1777
-18.4677
-19.9025
-21.5083
-23.3183
-25.3738
-27.7249
-30.4313
-33.5617
-37.1714
-41.2307
-45.8263
-52.2293
-11.1806
-11.8259
-12.5464
-13.374
-14.276
-15.2557
-16.329
-17.5113
-18.8193
-20.2742
-21.9025
-23.7377
-25.8212
-28.2033
-30.9431
-34.1083
-37.753
-41.8457
-46.4668
-52.9042
-1.58433
-1.8383
-2.18622
-2.57519
-2.9938
-3.44742
-3.94236
-4.48453
-5.08145
-5.74337
-6.48424
-7.32308
-8.28604
-9.40915
-10.7433
-12.3628
-14.3574
-16.7881
-19.9634
-25.3582
-1.73747
-2.00787
-2.37425
-2.76916
-3.1912
-3.65015
-4.152
-4.70226
-5.30858
-5.98149
-6.7352
-7.58906
-8.56964
-9.71352
-11.0721
-12.7203
-14.7478
-17.214
-20.4215
-25.8302
-1.88495
-2.17943
-2.55896
-2.96201
-3.39179
-3.85913
-4.36991
-4.92985
-5.54696
-6.2321
-6.99982
-7.86985
-8.86924
-10.0351
-11.4194
-13.0973
-15.1583
-17.66
-20.899
-26.3163
-2.05471
-2.36002
-2.74776
-3.15953
-3.5985
-4.07539
-4.5962
-5.16694
-5.79596
-6.49441
-7.27721
-8.16447
-9.18372
-10.3726
-11.7835
-13.4922
-15.5878
-18.1262
-21.4
-26.835
-2.23579
-2.54819
-2.94377
-3.36451
-3.81297
-4.29984
-4.83133
-5.41368
-6.05548
-6.76818
-7.56699
-8.47247
-9.51258
-10.7255
-12.1642
-13.9047
-16.0361
-18.6127
-21.924
-27.3831
-2.42235
-2.74337
-3.14728
-3.57714
-4.03539
-4.5327
-5.07546
-5.67012
-6.32547
-7.05323
-7.86896
-8.79358
-9.85554
-11.0935
-12.5611
-14.3347
-16.503
-19.1191
-22.4691
-27.9553
-2.61591
-2.94644
-3.35861
-3.79761
-4.26592
-4.7741
-5.32867
-5.93623
-6.60581
-7.34939
-8.18285
-9.1275
-10.2123
-11.4764
-12.9739
-14.7816
-16.9881
-19.6447
-23.0344
-28.5492
-2.81787
-3.15788
-3.57809
-4.02623
-4.5048
-5.02418
-5.59097
-6.21196
-6.89637
-7.65646
-8.5084
-9.47392
-10.5824
-11.8736
-13.4022
-15.2451
-17.4909
-20.1891
-23.619
-29.1639
-3.028
-3.37756
-3.80577
-4.2631
-4.75208
-5.28294
-5.86233
-6.4972
-7.19699
-7.9742
-8.84533
-9.83249
-10.9655
-12.2847
-13.8453
-15.7246
-18.0107
-20.7514
-24.2224
-29.7982
-3.24571
-3.60512
-4.04144
-4.50805
-5.00764
-5.55024
-6.14257
-6.79175
-7.50743
-8.30234
-9.19331
-10.2028
-11.3613
-12.7094
-14.3029
-16.2194
-18.5468
-21.3311
-24.8438
-30.451
-3.47056
-3.84022
-4.28479
-4.76081
-5.27122
-5.82583
-6.43144
-7.09534
-7.82738
-8.64055
-9.55199
-10.5846
-11.7692
-13.147
-14.7743
-16.7291
-19.0987
-21.9273
-25.4822
-31.1213
-3.70216
-4.08247
-4.53544
-5.02104
-5.54248
-6.10939
-6.72861
-7.40763
-8.15648
-8.98843
-9.92093
-10.9773
-12.1887
-13.5971
-15.2591
-17.2529
-19.6656
-22.5393
-26.1369
-31.8081
-3.94006
-4.33138
-4.79295
-5.28831
-5.82103
-6.40052
-7.03368
-7.7282
-8.49432
-9.34555
-10.2997
-11.3804
-12.6194
-14.0591
-15.7566
-17.7903
-20.2468
-23.1662
-26.8068
-32.5103
-4.18373
-4.58643
-5.05681
-5.56215
-6.10641
-6.69876
-7.3462
-8.05659
-8.8404
-9.7114
-10.6877
-11.7934
-13.0606
-14.5323
-16.2661
-18.3405
-20.8415
-23.8073
-27.4913
-33.2271
-4.43261
-4.84707
-5.32648
-5.84204
-6.39811
-7.00363
-7.66567
-8.3923
-9.19422
-10.0855
-11.0844
-12.2157
-13.5118
-15.0162
-16.7869
-18.9027
-21.449
-24.4617
-28.1893
-33.9576
-4.68617
-5.11273
-5.6014
-6.12744
-6.69559
-7.31458
-7.99155
-8.73478
-9.55521
-10.4671
-11.4893
-12.6466
-13.9722
-15.5099
-17.3183
-19.4761
-22.0684
-25.1285
-28.9002
-34.701
-4.94384
-5.38283
-5.881
-6.41777
-6.99829
-7.63105
-8.32327
-9.08346
-9.92279
-10.8558
-11.9017
-13.0856
-14.4412
-16.0129
-17.8594
-20.06
-22.6987
-25.8068
-29.623
-35.4567
-5.20508
-5.65679
-6.16468
-6.71246
-7.30565
-7.95247
-8.66026
-9.43775
-10.2963
-11.2509
-12.3208
-13.5319
-14.918
-16.5241
-18.4095
-20.6533
-23.3389
-26.4956
-30.3569
-36.2244
-5.46933
-5.93403
-6.45187
-7.01093
-7.61707
-8.27825
-9.00191
-9.79702
-10.6752
-11.6517
-12.7461
-13.9847
-15.4018
-17.0429
-18.9675
-21.255
-23.988
-27.1935
-31.1009
-37.0047
-5.7361
-6.21401
-6.74203
-7.31263
-7.932
-8.60783
-9.34766
-10.1607
-11.0589
-12.0576
-13.1769
-14.4434
-15.8919
-17.5684
-19.5327
-21.8642
-24.6448
-27.899
-31.8521
-37.7983
-1.33659
-1.12993
-0.976202
-0.83952
-0.719497
-0.613591
-0.520689
-0.439998
-0.371015
-0.313383
-0.266835
-0.231159
-0.206187
-0.191779
-0.187799
-0.194035
-0.210276
-0.236647
-0.273314
-0.320088
-1.66643
-1.48304
-1.32534
-1.18343
-1.05858
-0.948203
-0.851335
-0.767172
-0.695198
-0.635038
-0.58641
-0.54909
-0.522898
-0.507679
-0.503292
-0.509563
-0.526337
-0.553623
-0.591486
-0.639684
-1.99894
-1.82344
-1.66575
-1.5227
-1.39572
-1.28316
-1.18434
-1.09856
-1.02535
-0.964356
-0.915296
-0.87795
-0.852133
-0.837688
-0.834465
-0.842314
-0.861113
-0.890816
-0.931307
-0.982747
-2.38266
-2.2055
-2.04477
-1.89876
-1.7682
-1.65214
-1.55011
-1.46154
-1.38603
-1.32323
-1.27288
-1.23475
-1.20866
-1.19442
-1.1919
-1.20094
-1.22142
-1.25328
-1.29639
-1.35077
-2.80138
-2.62176
-2.45707
-2.30711
-2.17234
-2.05222
-1.94645
-1.85458
-1.77628
-1.71124
-1.6592
-1.61993
-1.59325
-1.57898
-1.57696
-1.58704
-1.60911
-1.64305
-1.68874
-1.74617
-3.25265
-3.0698
-2.90093
-2.74665
-2.60742
-2.48304
-2.37332
-2.27796
-2.19668
-2.12921
-2.07532
-2.03478
-2.00742
-1.99305
-1.99151
-2.00266
-2.02635
-2.06247
-2.11088
-2.17152
-3.74263
-3.55505
-3.38127
-3.22206
-3.07793
-2.9489
-2.83489
-2.73571
-2.65114
-2.58096
-2.52496
-2.48293
-2.45471
-2.44011
-2.43896
-2.45112
-2.47645
-2.5148
-2.56603
-2.6301
-4.27812
-4.08433
-3.90456
-3.73955
-3.58981
-3.45551
-3.33666
-3.23314
-3.14481
-3.0715
-3.013
-2.96916
-2.93978
-2.9247
-2.92375
-2.93679
-2.96367
-3.00422
-3.0583
-3.12587
-4.86682
-4.66537
-4.47836
-4.30648
-4.15024
-4.00985
-3.88542
-3.7769
-3.68419
-3.60716
-3.54566
-3.49952
-3.46857
-3.45266
-3.45162
-3.4653
-3.49354
-3.53618
-3.59307
-3.66417
-5.51886
-5.30819
-5.11253
-4.9325
-4.7686
-4.6211
-4.49014
-4.37573
-4.27784
-4.19635
-4.13115
-4.08208
-4.049
-4.03176
-4.03019
-4.04414
-4.07345
-4.11794
-4.17745
-4.252
-6.24799
-6.02628
-5.8203
-5.63057
-5.45759
-5.30167
-5.16296
-5.04154
-4.9374
-4.85047
-4.78065
-4.72782
-4.69184
-4.67256
-4.66983
-4.68349
-4.71338
-4.75932
-4.82113
-4.89887
-7.07292
-6.83807
-6.61974
-6.41842
-6.2346
-6.06858
-5.92058
-5.79069
-5.67893
-5.58526
-5.50962
-5.45189
-5.41196
-5.38967
-5.38489
-5.39746
-5.42721
-5.47394
-5.53748
-5.61793
-8.0194
-7.76886
-7.53575
-7.32051
-7.12362
-6.94543
-6.78614
-6.64589
-6.52473
-6.42265
-6.33959
-6.27546
-6.23015
-6.20354
-6.19547
-6.2058
-6.23435
-6.2809
-6.34529
-6.42764
-9.12296
-8.85365
-8.60278
-8.37073
-8.15804
-7.96503
-7.79194
-7.63894
-7.50609
-7.3934
-7.30084
-7.22833
-7.17577
-7.14303
-7.12999
-7.13649
-7.16234
-7.20731
-7.27122
-7.35426
-10.4339
-10.1421
-9.86983
-9.61746
-9.38555
-9.17446
-8.98444
-8.81566
-8.66822
-8.54213
-8.43738
-8.3539
-8.29161
-8.25038
-8.23009
-8.23059
-8.25168
-8.2931
-8.35464
-8.43656
-12.0258
-11.7072
-11.4092
-11.1323
-10.8771
-10.644
-10.4332
-10.245
-10.0794
-9.93643
-9.81613
-9.71843
-9.64324
-9.59046
-9.55996
-9.55159
-9.56516
-9.60037
-9.65699
-9.73529
-13.988
-13.6377
-13.3093
-13.0034
-12.7205
-12.4611
-12.2255
-12.0137
-11.826
-11.6624
-11.5228
-11.4072
-11.3155
-11.2477
-11.2037
-11.1832
-11.1861
-11.2122
-11.2611
-11.3329
-16.3819
-15.9961
-15.6332
-15.2942
-14.9798
-14.6905
-14.4265
-14.1878
-13.9746
-13.7869
-13.6248
-13.4881
-13.3769
-13.291
-13.2305
-13.1951
-13.1847
-13.1992
-13.2381
-13.3008
-19.5186
-19.0929
-18.6911
-18.3156
-17.9667
-17.6447
-17.3493
-17.0807
-16.8387
-16.6234
-16.4349
-16.273
-16.1378
-16.0292
-15.9472
-15.8914
-15.862
-15.8592
-15.8827
-15.9307
-24.8554
-24.3847
-23.9484
-23.5435
-23.1677
-22.8202
-22.5006
-22.2087
-21.9444
-21.7077
-21.4988
-21.3176
-21.1642
-21.0388
-20.9414
-20.872
-20.8314
-20.8219
-20.8449
-20.89
-0.37686
-0.44331
-0.519401
-0.60505
-0.700173
-0.804666
-0.918396
-1.0412
-1.17287
-1.31313
-1.4616
-1.61776
-1.78082
-1.94955
-2.12229
-2.29677
-2.46851
-2.62772
-2.759
-2.88877
-0.698335
-0.767063
-0.845794
-0.934415
-1.03282
-1.14089
-1.25847
-1.38537
-1.52135
-1.66611
-1.81924
-1.98018
-2.14816
-2.32201
-2.50013
-2.68086
-2.86243
-3.0371
-3.18969
-3.36193
-1.04489
-1.11747
-1.20042
-1.29361
-1.39692
-1.51021
-1.6333
-1.76599
-1.90801
-2.05905
-2.21866
-2.38629
-2.56119
-2.74233
-2.92836
-3.11809
-3.31054
-3.50134
-3.68476
-3.89075
-1.41633
-1.49277
-1.57998
-1.67785
-1.78621
-1.90491
-2.03377
-2.17254
-2.32095
-2.47866
-2.64521
-2.82007
-3.00252
-3.19166
-3.38641
-3.58591
-3.78934
-3.9944
-4.20159
-4.43128
-1.81526
-1.89571
-1.98739
-2.09017
-2.20388
-2.32834
-2.46334
-2.60864
-2.76394
-2.92889
-3.10304
-3.28586
-3.4767
-3.67479
-3.87931
-4.08964
-4.30516
-4.52486
-4.75135
-4.9978
-2.24446
-2.32919
-2.42568
-2.53376
-2.65324
-2.78394
-2.92564
-3.07807
-3.24094
-3.41387
-3.59645
-3.78817
-3.98845
-4.19663
-4.41211
-4.63445
-4.86327
-5.09836
-5.34245
-5.60341
-2.70706
-2.79633
-2.89794
-3.01169
-3.13739
-3.27484
-3.4238
-3.584
-3.75515
-3.93687
-4.12877
-4.33038
-4.54119
-4.76064
-4.98827
-5.22378
-5.46697
-5.71804
-5.97921
-6.25493
-3.2069
-3.30104
-3.40807
-3.52785
-3.66018
-3.80486
-3.96164
-4.13026
-4.31042
-4.50176
-4.7039
-4.91641
-5.13883
-5.37072
-5.61169
-5.86153
-6.12015
-6.38786
-6.66625
-6.95777
-3.74949
-3.84853
-3.9612
-4.08729
-4.22662
-4.37899
-4.54413
-4.72179
-4.91167
-5.11343
-5.32671
-5.55112
-5.78625
-6.03171
-6.2872
-6.55252
-6.82763
-7.11282
-7.40907
-7.71778
-4.34158
-4.44558
-4.56408
-4.69666
-4.84328
-5.00371
-5.17769
-5.36494
-5.5652
-5.77813
-6.00339
-6.24063
-6.48949
-6.74961
-7.02073
-7.30267
-7.59537
-7.899
-8.21411
-8.5415
-4.99255
-5.10145
-5.22557
-5.36486
-5.51894
-5.68766
-5.87082
-6.06811
-6.27928
-6.50401
-6.742
-6.9929
-7.25639
-7.53216
-7.81994
-8.11957
-8.43092
-8.75404
-9.08916
-9.43677
-5.71532
-5.82881
-5.95846
-6.1041
-6.26565
-6.44273
-6.63519
-6.84278
-7.06521
-7.30219
-7.55345
-7.81867
-8.09754
-8.38977
-8.69509
-9.01333
-9.34431
-9.68793
-10.0442
-10.4135
-6.52804
-6.64548
-6.78013
-6.93174
-7.10021
-7.28562
-7.48732
-7.70506
-7.93878
-8.18818
-8.45298
-8.7329
-9.02762
-9.33685
-9.66036
-9.99792
-10.3493
-10.7143
-11.0928
-11.485
-7.45654
-7.57685
-7.71554
-7.87234
-8.04702
-8.23956
-8.45077
-8.67787
-8.9225
-9.18402
-9.4622
-9.75675
-10.0674
-10.3938
-10.7358
-11.0931
-11.4654
-11.8523
-12.2537
-12.6697
-8.53901
-8.66051
-8.80162
-8.96213
-9.14187
-9.34038
-9.55716
-9.79449
-10.0498
-10.3224
-10.6132
-10.9218
-11.2481
-11.5915
-11.9518
-12.3287
-12.7218
-13.1308
-13.5552
-13.9954
-9.83539
-9.95553
-10.0966
-10.2585
-10.4412
-10.6442
-10.867
-11.1098
-11.3726
-11.6561
-11.9587
-12.2808
-12.6218
-12.981
-13.3583
-13.7536
-14.1668
-14.5971
-15.0441
-15.508
-11.4272
-11.5428
-11.681
-11.8417
-12.0245
-12.2292
-12.4556
-12.7033
-12.9724
-13.263
-13.5757
-13.9094
-14.2623
-14.6338
-15.0248
-15.4362
-15.8673
-16.3173
-16.7853
-17.2711
-13.3854
-13.4933
-13.6256
-13.7817
-13.9604
-14.1621
-14.3869
-14.6348
-14.9055
-15.1984
-15.5129
-15.8492
-16.209
-16.5929
-16.9992
-17.4264
-17.8742
-18.3422
-18.8295
-19.3352
-16.0009
-16.0928
-16.2088
-16.3503
-16.5186
-16.7129
-16.9325
-17.177
-17.446
-17.7391
-18.0557
-18.3956
-18.7589
-19.1463
-19.5575
-19.992
-20.4496
-20.9309
-21.4359
-21.9596
-20.9317
-21.0041
-21.1074
-21.2393
-21.3986
-21.5847
-21.7971
-22.0354
-22.2992
-22.5882
-22.9022
-23.2412
-23.6052
-23.9947
-24.4096
-24.85
-25.3169
-25.8143
-26.3447
-26.8903
-27.4069
-22.4941
-19.8586
-17.7749
-15.9888
-14.4514
-13.1004
-11.8909
-10.7957
-9.79678
-8.88108
-8.03889
-7.26257
-6.5459
-5.88369
-5.27141
-4.70381
-4.17529
-3.69435
-3.28996
-27.9514
-23.0447
-20.3977
-18.2938
-16.4838
-14.9207
-13.5437
-12.3087
-11.1892
-10.1677
-9.23119
-8.37029
-7.57749
-6.8467
-6.17288
-5.55163
-4.97819
-4.45018
-3.98074
-3.57826
-28.5245
-23.6142
-20.954
-18.8287
-16.9936
-15.4037
-13.9995
-12.7381
-11.5936
-10.5487
-9.59088
-8.71079
-7.901
-7.15546
-6.46909
-5.83739
-5.25573
-4.72183
-4.24526
-3.82328
-29.1219
-24.2032
-21.5275
-19.3794
-17.5176
-15.8995
-14.4671
-13.1784
-12.0079
-10.9389
-9.95908
-9.05906
-8.23143
-7.47002
-6.76957
-6.12528
-5.53227
-4.98761
-4.49804
-4.05733
-29.7406
-24.8112
-22.1176
-19.9453
-18.0552
-16.4076
-14.9459
-13.6287
-12.4314
-11.3375
-10.3349
-9.41422
-8.56796
-7.78978
-7.07417
-6.41605
-5.81021
-5.25316
-4.7498
-4.29294
-30.3792
-25.4385
-22.7224
-20.5254
-18.6057
-16.9272
-15.4349
-14.0884
-12.8634
-11.7438
-10.7177
-9.77561
-8.91002
-8.11436
-7.38287
-6.71018
-6.09088
-5.52111
-5.00447
-4.53353
-31.0363
-26.0838
-23.3415
-21.1186
-19.1681
-17.4574
-15.9335
-14.5566
-13.3031
-12.1571
-11.1067
-10.1427
-9.25728
-8.44367
-7.69589
-7.00835
-6.37548
-5.79317
-5.26396
-4.78034
-31.7107
-26.7449
-23.9747
-21.7243
-19.7417
-17.9976
-16.4409
-15.0326
-13.7497
-12.5766
-11.5016
-10.5151
-9.60945
-8.77758
-8.01331
-7.31083
-6.66446
-6.0699
-5.52869
-5.0333
-32.4011
-27.4205
-24.6212
-22.3415
-20.3254
-18.5467
-16.9562
-15.5158
-14.2028
-13.0019
-11.9016
-10.8924
-9.96618
-9.11586
-8.33501
-7.61762
-6.95787
-6.3513
-5.79849
-5.29192
-33.1061
-28.1094
-25.28
-22.9693
-20.9184
-19.104
-17.4787
-16.0052
-14.6614
-13.4323
-12.3064
-11.274
-10.327
-9.45817
-8.6607
-7.92844
-7.25543
-6.637
-6.07285
-5.55547
-33.8247
-28.8104
-25.9499
-23.6068
-21.5198
-19.6685
-18.0074
-16.5
-15.1248
-13.8671
-12.7151
-11.6594
-10.6916
-9.80405
-8.98996
-8.24287
-7.55667
-6.92648
-6.35112
-5.82315
-34.5556
-29.5224
-26.6299
-24.2528
-22.1285
-20.2393
-18.5415
-16.9996
-15.5924
-14.3055
-13.1273
-12.048
-11.0592
-10.153
-9.32226
-8.56036
-7.86102
-7.21909
-6.6326
-6.09418
-35.2978
-30.2443
-27.3189
-24.9064
-22.7435
-20.8154
-19.0801
-17.5029
-16.0633
-14.7468
-13.5421
-12.4391
-11.4292
-10.5043
-9.657
-8.88032
-8.16785
-7.51418
-6.91656
-6.36779
-36.0501
-30.975
-28.0155
-25.5663
-23.3636
-21.3957
-19.6221
-18.0091
-16.5365
-15.1903
-13.9589
-12.8321
-11.8011
-10.8575
-9.99354
-9.2021
-8.4765
-7.81107
-7.20231
-6.64326
-36.8115
-31.7132
-28.7185
-26.2314
-23.9879
-21.9792
-20.1666
-18.5172
-17.0114
-15.6351
-14.3768
-13.2262
-12.1741
-11.2118
-10.3312
-9.52504
-8.78631
-8.10908
-7.48915
-6.91988
-37.5806
-32.4575
-29.4267
-26.9004
-24.6151
-22.5647
-20.7125
-19.0263
-17.4869
-16.0805
-14.7952
-13.6207
-12.5475
-11.5665
-10.6694
-9.84849
-9.09663
-8.40757
-7.77644
-7.19703
-38.3572
-33.2069
-30.1388
-27.5721
-25.2439
-23.1512
-21.2588
-19.5354
-17.9622
-16.5254
-15.2132
-14.0149
-12.9205
-11.9209
-11.0073
-10.1718
-9.40681
-8.7059
-8.06355
-7.47408
-39.1424
-33.9609
-30.8532
-28.2449
-25.873
-23.7372
-21.8042
-20.0434
-18.4362
-16.969
-15.6299
-14.4078
-13.2925
-12.2744
-11.3444
-10.4942
-9.7162
-9.00344
-8.34987
-7.75049
-39.9367
-34.7181
-31.5679
-28.917
-26.5009
-24.3217
-22.3477
-20.5492
-18.9081
-17.4106
-16.0446
-14.7988
-13.6627
-12.6262
-11.6799
-10.8152
-10.0242
-9.2996
-8.63485
-8.02574
-40.7271
-35.4737
-32.2814
-29.5876
-27.127
-24.9042
-22.8889
-21.0527
-19.3774
-17.8496
-16.4568
-15.1875
-14.0306
-12.9759
-12.0134
-11.1343
-10.3303
-9.59393
-8.91803
-8.29936
-6.77834
-4.67285
-3.31304
-2.26786
-1.53362
-0.994351
-0.60701
-0.33202
-0.141071
-0.0124289
0.0705228
0.120411
0.146814
0.156886
0.155938
0.147839
0.135403
0.120628
0.104923
0.0892555
0.0742695
0.0603757
0.0478105
0.0366936
0.0270457
0.0188468
0.0120029
0.00644951
0.00201705
-0.00132339
-0.00383521
-0.00540992
-0.00649705
-0.00668306
-0.00680753
-0.00586751
-0.00545184
-0.00351721
-0.0029695
4.08785e-05
-7.03396
-4.85519
-3.45927
-2.38301
-1.62466
-1.06798
-0.667069
-0.381634
-0.182444
-0.0471799
0.0411923
0.0955799
0.125763
0.139037
0.140818
0.135053
0.124616
0.111554
0.0973162
0.0829025
0.068987
0.0560031
0.0442094
0.0337451
0.024645