/*--------------------------------*- C++ -*----------------------------------*\
| =========                 |                                                 |
| \\      /  F ield         | OpenFOAM: The Open Source CFD Toolbox           |
|  \\    /   O peration     | Version:  v1912                                 |
|   \\  /    A nd           | Website:  www.openfoam.com                      |
|    \\/     M anipulation  |                                                 |
\*---------------------------------------------------------------------------*/
FoamFile
{
    version     2.0;
    format      ascii;
    class       surfaceScalarField;
    location    "52";
    object      phi;
}
// * * * * * * * * * * * * * * * * * * * * * * * * * * * * * * * * * * * * * //

dimensions      [0 3 -1 0 0 0 0];
oriented        oriented;


internalField   nonuniform List<scalar> 
18940
(
0.000358308
-0.234362
0.234003
0.00137916
-0.216321
0.2153
0.00288317
-0.204786
0.203282
0.00469985
-0.197005
0.195188
0.00669835
-0.191251
0.189253
0.00877696
-0.186459
0.184381
0.0108619
-0.18204
0.179955
0.0129036
-0.177697
0.175656
0.014872
-0.173308
0.171339
0.0167518
-0.168843
0.166963
0.0185381
-0.164323
0.162537
0.0202334
-0.159792
0.158097
0.0218447
-0.155296
0.153684
0.023382
-0.150879
0.149342
0.0248563
-0.146578
0.145104
0.0262794
-0.142417
0.140994
0.0276628
-0.138409
0.137025
0.0290169
-0.13455
0.133196
0.0303503
-0.130822
0.129489
-0.127185
0.125867
0.0316681
0.000381735
-0.234743
0.00142248
-0.217362
0.00293722
-0.206301
0.00475821
-0.198826
0.00675118
-0.193244
0.00881446
-0.188523
0.0108755
-0.184101
0.0128865
-0.179708
0.0148191
-0.175241
0.0166597
-0.170684
0.0184052
-0.166069
0.0200594
-0.161446
0.0216303
-0.156867
0.0231284
-0.152377
0.0245654
-0.148015
0.0259532
-0.143805
0.0273035
-0.139759
0.0286273
-0.135874
0.0299335
-0.132128
-0.128479
0.031228
0.000403162
-0.235146
0.00146013
-0.218419
0.00298359
-0.207824
0.00480514
-0.200647
0.00678893
-0.195228
0.00883324
-0.190567
0.0108668
-0.186134
0.0128435
-0.181685
0.0147371
-0.177134
0.0165358
-0.172482
0.0182381
-0.167771
0.0198491
-0.163057
0.0213777
-0.158395
0.0228351
-0.153835
0.0242333
-0.149413
0.0255845
-0.145156
0.0269006
-0.141075
0.0281928
-0.137166
0.0294704
-0.133406
-0.129749
0.0307403
0.000417037
-0.235563
0.00148906
-0.219491
0.00302038
-0.209355
0.00483992
-0.202467
0.00681117
-0.197199
0.00883294
-0.192589
0.0108355
-0.188137
0.0127747
-0.183624
0.0146263
-0.178986
0.0163805
-0.174237
0.0180374
-0.169428
0.0196033
-0.164623
0.0210881
-0.15988
0.0225034
-0.15525
0.0238616
-0.150772
0.025175
-0.14647
0.0264557
-0.142356
0.0277152
-0.138426
0.0289634
-0.134654
-0.130994
0.030208
0.000428308
-0.235992
0.00151259
-0.220575
0.00304894
-0.210892
0.00486321
-0.204281
0.00681835
-0.199154
0.00881402
-0.194584
0.0107821
-0.190105
0.0126807
-0.185523
0.0144876
-0.180793
0.0161949
-0.175944
0.0178043
-0.171038
0.0193233
-0.166142
0.0207627
-0.161319
0.0221346
-0.156622
0.0234516
-0.152089
0.0247262
-0.147744
0.0259707
-0.1436
0.0271966
-0.139652
0.0284145
-0.135872
-0.132212
0.029633
0.000437402
-0.236429
0.00153114
-0.221669
0.00306951
-0.21243
0.00487522
-0.206087
0.00681078
-0.20109
0.00877687
-0.19655
0.0107073
-0.192035
0.0125622
-0.187378
0.0143216
-0.182552
0.0159797
-0.177602
0.0175397
-0.172598
0.0190102
-0.167612
0.0204028
-0.162712
0.0217301
-0.157949
0.0230049
-0.153363
0.0242396
-0.148979
0.0254467
-0.144808
0.0266381
-0.140843
0.0278248
-0.137059
-0.133404
0.0290165
0.000444884
-0.236874
0.00154539
-0.222769
0.00308266
-0.213967
0.00487646
-0.20788
0.00678896
-0.203003
0.00872208
-0.198484
0.0106116
-0.193925
0.0124199
-0.189186
0.0141295
-0.184262
0.0157361
-0.179209
0.0172447
-0.174106
0.0186651
-0.169033
0.0200095
-0.164056
0.021291
-0.159231
0.0225223
-0.154595
0.0237162
-0.150173
0.0248849
-0.145976
0.0260406
-0.141999
0.0271952
-0.138213
-0.134568
0.0283592
0.000450909
-0.237325
0.00155566
-0.223874
0.00308881
-0.215501
0.0048674
-0.209659
0.00675347
-0.204889
0.00865033
-0.20038
0.0104959
-0.19577
0.012255
-0.190945
0.0139121
-0.185919
0.0154651
-0.180762
0.0169205
-0.175562
0.0182891
-0.170401
0.0195839
-0.165351
0.0208182
-0.160465
0.0220049
-0.155781
0.0231566
-0.151325
0.0242857
-0.147105
0.0254045
-0.143118
0.0265256
-0.139334
-0.135703
0.0276609
0.000455583
-0.237781
0.00156224
-0.224981
0.00308839
-0.217027
0.00484859
-0.211419
0.00670499
-0.206745
0.00856245
-0.202238
0.0103611
-0.197569
0.0120683
-0.192652
0.0136706
-0.187521
0.015168
-0.182259
0.0165683
-0.176962
0.0178835
-0.171717
0.0191271
-0.166595
0.0203127
-0.161651
0.0214534
-0.156922
0.0225615
-0.152433
0.0236493
-0.148193
0.0247296
-0.144198
0.0258156
-0.140421
-0.136808
0.0269207
0.000458981
-0.23824
0.00156541
-0.226087
0.00308189
-0.218543
0.00482069
-0.213158
0.00664432
-0.208569
0.0084594
-0.204053
0.0102084
-0.199318
0.0118611
-0.194305
0.0134065
-0.189066
0.0148462
-0.183699
0.0161895
-0.178305
0.0174494
-0.172976
0.0186401
-0.167786
0.0197755
-0.162786
0.0208683
-0.158015
0.021931
-0.153495
0.0229756
-0.149238
0.0240152
-0.145238
0.0250639
-0.141469
-0.137881
0.0261368
0.000461208
-0.238701
0.00156552
-0.227191
0.00306987
-0.220048
0.00478446
-0.214873
0.00657241
-0.210357
0.00834231
-0.205823
0.0100391
-0.201015
0.011635
-0.195901
0.0131211
-0.190553
0.0145011
-0.185079
0.0157856
-0.17959
0.0169884
-0.174179
0.0181243
-0.168921
0.0192074
-0.163869
0.0202503
-0.159058
0.0212653
-0.15451
0.0222641
-0.150237
0.0232602
-0.146234
0.0242687
-0.142478
-0.138919
0.0253064
0.00046242
-0.239163
0.00156301
-0.228292
0.00305301
-0.221537
0.00474078
-0.21656
0.00649038
-0.212106
0.00821253
-0.207545
0.00985469
-0.202657
0.0113915
-0.197438
0.0128165
-0.191978
0.0141348
-0.186397
0.0153585
-0.180813
0.0165022
-0.175323
0.0175812
-0.17
0.0186096
-0.164898
0.0196002
-0.160049
0.0205646
-0.155475
0.0215146
-0.151186
0.0224635
-0.147183
0.0234278
-0.143442
-0.139917
0.0244266
0.000462896
-0.239626
0.00155851
-0.229388
0.00303218
-0.223011
0.00469075
-0.218219
0.00639953
-0.213815
0.00807157
-0.209217
0.00965695
-0.204242
0.0111328
-0.198913
0.0124947
-0.193339
0.0137495
-0.187652
0.0149104
-0.181974
0.015993
-0.176406
0.0170127
-0.17102
0.0179838
-0.165869
0.018919
-0.160984
0.0198294
-0.156385
0.0207265
-0.152084
0.0216239
-0.14808
0.022539
-0.144357
-0.140872
0.0234934
0.000463114
-0.240089
0.00155287
-0.230477
0.00300843
-0.224467
0.00463559
-0.219846
0.00630133
-0.215481
0.0079212
-0.210837
0.00944791
-0.205769
0.010861
-0.200327
0.0121582
-0.194637
0.0133479
-0.188842
0.0144443
-0.183071
0.0154634
-0.177425
0.0164213
-0.171978
0.017332
-0.166779
0.018208
-0.16186
0.0190602
-0.157237
0.0198995
-0.152923
0.0207392
-0.14892
0.021598
-0.145216
-0.141774
0.0225006
0.000463877
-0.240553
0.00154725
-0.231561
0.00298297
-0.225902
0.00457667
-0.22144
0.00619739
-0.217101
0.00776332
-0.212403
0.00922983
-0.207236
0.0105789
-0.201676
0.0118101
-0.195868
0.0129334
-0.189965
0.0139636
-0.184101
0.0149174
-0.178379
0.0158108
-0.172871
0.0166577
-0.167626
0.0174701
-0.162672
0.0182585
-0.158026
0.0190331
-0.153697
0.0198067
-0.149693
0.0205988
-0.146008
-0.142615
0.0214396
0.000466332
-0.241019
0.00154296
-0.232637
0.00295701
-0.227317
0.00451536
-0.222998
0.00608939
-0.218675
0.0076
-0.213913
0.00900521
-0.208641
0.0102894
-0.20296
0.0114539
-0.197032
0.0125099
-0.191021
0.013473
-0.185064
0.01436
-0.179266
0.0151867
-0.173698
0.0159667
-0.168406
0.0167112
-0.163417
0.0174298
-0.158744
0.0181314
-0.154399
0.018828
-0.15039
0.0195403
-0.14672
-0.143382
0.0203072
0.000471869
-0.241491
0.00154132
-0.233707
0.00293188
-0.228707
0.00445321
-0.22452
0.00597921
-0.220201
0.00743344
-0.215368
0.00877666
-0.209984
0.00999555
-0.204179
0.0110932
-0.19813
0.0120818
-0.19201
0.0129775
-0.18596
0.013797
-0.180085
0.0145555
-0.174457
0.0152662
-0.169117
0.0159393
-0.16409
0.0165832
-0.159388
0.0172054
-0.155021
0.0178159
-0.151
0.0184353
-0.14734
-0.144051
0.0191036
0.000482818
-0.241974
0.00154496
-0.234769
0.00291004
-0.230072
0.00439235
-0.226002
0.0058688
-0.221678
0.00726576
-0.216765
0.00854674
-0.211265
0.00970068
-0.205333
0.0107322
-0.199161
0.0116543
-0.192932
0.0124833
-0.186789
0.0132353
-0.180837
0.0139247
-0.175146
0.0145633
-0.169756
0.0151604
-0.164687
0.0157233
-0.159951
0.0162585
-0.155556
0.0167725
-0.151514
0.0172779
-0.147845
-0.144572
0.017799
0.00050676
-0.242481
0.00156108
-0.235823
0.00289555
-0.231407
0.00433468
-0.227441
0.00575939
-0.223103
0.00709837
-0.218104
0.00831748
-0.212484
0.0094077
-0.206423
0.0103751
-0.200129
0.0112333
-0.19379
0.0119984
-0.187554
0.0126855
-0.181524
0.0133071
-0.175768
0.0138724
-0.170321
0.0143872
-0.165202
0.0148551
-0.160419
0.015278
-0.155979
0.0156549
-0.151891
0.0159901
-0.148181
-0.144927
0.0163457
0.000563812
-0.243045
0.00159799
-0.236857
0.00288816
-0.232697
0.00427902
-0.228832
0.00565051
-0.224474
0.00693169
-0.219385
0.00809017
-0.213643
0.00911891
-0.207452
0.0100255
-0.201035
0.0108244
-0.194589
0.0115316
-0.188261
0.0121617
-0.182154
0.0127251
-0.176331
0.0132276
-0.170823
0.0136689
-0.165643
0.0140416
-0.160792
0.0143288
-0.156267
0.0145044
-0.152067
0.0145633
-0.148239
-0.145099
0.014735
0.250728
0.000415113
-0.251143
0.25034
0.000388756
0.249958
0.000381489
0.249577
0.000381623
0.249192
0.000384571
0.248803
0.000388985
0.248409
0.00039414
0.248009
0.000399447
0.247605
0.000404515
0.247196
0.000409139
0.246782
0.000413221
0.246366
0.000416736
0.245946
0.000419666
0.245524
0.000421987
0.245101
0.000423575
0.244676
0.000424225
0.244253
0.000422889
0.243834
0.000419018
0.243431
0.000403412
0.000386325
0.2527
0.00102368
-0.253308
0.252056
0.00103291
0.251383
0.00105401
0.250684
0.00108101
0.249959
0.00110938
0.24921
0.00113777
0.248439
0.00116569
0.247645
0.00119266
0.246832
0.00121825
0.245999
0.0012422
0.245147
0.00126442
0.244279
0.00128486
0.243395
0.00130352
0.242497
0.00132041
0.241585
0.00133537
0.240661
0.00134821
0.239726
0.00135782
0.238781
0.00136393
0.237825
0.00136027
0.00135349
0.251482
0.00159572
-0.252054
0.250845
0.00166966
0.250155
0.00174382
0.249417
0.00181907
0.248633
0.00189308
0.247806
0.00196463
0.246939
0.00203338
0.246032
0.00209912
0.245089
0.00216159
0.244111
0.00222063
0.243099
0.00227621
0.242055
0.00232836
0.240982
0.00237717
0.239879
0.00242275
0.238749
0.00246511
0.237593
0.0025043
0.236411
0.00253978
0.235204
0.00257181
0.233966
0.002598
0.00262253
0.247376
0.00203921
-0.24782
0.246863
0.00218281
0.246285
0.00232179
0.245646
0.00245759
0.24495
0.00258956
0.244198
0.00271688
0.243392
0.00283924
0.242534
0.00295647
0.241628
0.00306843
0.240673
0.00317504
0.239673
0.00327633
0.238629
0.00337242
0.237543
0.00346351
0.236416
0.0035499
0.235249
0.00363185
0.234043
0.00370973
0.2328
0.00378364
0.231517
0.0038542
0.230194
0.00392069
0.00398511
0.241128
0.00231829
-0.241407
0.240777
0.0025332
0.240358
0.00274135
0.239872
0.00294355
0.239322
0.00313979
0.238709
0.0033296
0.238035
0.00351265
0.237303
0.00368874
0.236514
0.00385775
0.235669
0.00401966
0.234771
0.00417452
0.233821
0.00432255
0.23282
0.00446406
0.231771
0.00459953
0.230673
0.00472949
0.229528
0.00485464
0.228336
0.00497558
0.227097
0.00509327
0.22581
0.00520785
0.00532101
0.23353
0.00244164
-0.233653
0.233336
0.00272716
0.233072
0.00300476
0.232741
0.00327472
0.232344
0.00353708
0.231882
0.00379155
0.231357
0.00403778
0.23077
0.00427555
0.230123
0.00450473
0.229417
0.00472527
0.228655
0.00493729
0.227836
0.00514103
0.226963
0.00533693
0.226037
0.00552563
0.225059
0.00570792
0.224029
0.00588484
0.222947
0.00605745
0.221813
0.00622713
0.220626
0.00639473
0.00656211
0.225286
0.0024398
-0.225284
0.225219
0.00279338
0.225086
0.00313828
0.224886
0.00347443
0.224622
0.00380175
0.224293
0.00411997
0.223902
0.00442876
0.22345
0.00472783
0.222938
0.00501701
0.222367
0.00529625
0.221738
0.00556566
0.221054
0.00582551
0.220314
0.00607633
0.219521
0.00631891
0.218675
0.00655432
0.217776
0.00678394
0.216824
0.00700931
0.215819
0.00723235
0.214759
0.00745458
0.00767818
0.216923
0.00234899
-0.216833
0.21695
0.00276707
0.216912
0.00317588
0.216812
0.0035751
0.216649
0.00396454
0.216425
0.00434388
0.216141
0.00471274
0.215798
0.00507079
0.215397
0.0054178
0.21494
0.00575366
0.214427
0.00607847
0.21386
0.00639251
0.21324
0.00669636
0.212568
0.00699097
0.211844
0.00727763
0.21107
0.00755811
0.210245
0.00783451
0.209368
0.00810936
0.208438
0.00838502
0.00866417
0.20879
0.00220251
-0.208644
0.208876
0.00268131
0.208902
0.00315026
0.208868
0.00360893
0.208775
0.00405698
0.208625
0.00449404
0.208418
0.00491965
0.208156
0.00533342
0.207839
0.00573504
0.207468
0.00612435
0.207045
0.00650136
0.206571
0.00686634
0.206048
0.00721989
0.205476
0.00756304
0.204856
0.00789736
0.204189
0.00822495
0.203475
0.00854858
0.202713
0.00887154
0.2019
0.00919725
0.00952925
0.201087
0.00202736
-0.200911
0.201205
0.0025633
0.201266
0.00308881
0.201272
0.00360337
0.201222
0.00410652
0.201118
0.0045978
0.200961
0.00507669
0.200752
0.0055427
0.200492
0.00599544
0.200181
0.00643462
0.199822
0.00686018
0.199417
0.00727229
0.198965
0.00767154
0.198469
0.00805896
0.19793
0.00843633
0.197349
0.0088061
0.196726
0.00917179
0.19606
0.00953756
0.195349
0.00990837
0.010289
0.193905
0.00184341
-0.193721
0.194035
0.00243337
0.194112
0.00301233
0.194136
0.00357962
0.194107
0.00413473
0.194028
0.00467706
0.193899
0.00520602
0.193721
0.00572101
0.193494
0.00622152
0.193222
0.00670714
0.192904
0.00717765
0.192544
0.00763309
0.192141
0.00807392
0.191699
0.00850109
0.191219
0.00891652
0.190702
0.00932288
0.190149
0.00972459
0.18956
0.0101267
0.188932
0.0105364
0.0109603
0.18727
0.00166405
-0.18709
0.187398
0.00230553
0.187474
0.0029354
0.187501
0.00355286
0.187479
0.00415726
0.187408
0.00474796
0.18729
0.00532424
0.187125
0.0058854
0.186916
0.00643079
0.186663
0.00695982
0.186369
0.00747209
0.186034
0.00796738
0.185662
0.00844597
0.185255
0.00890854
0.184814
0.00935705
0.184343
0.00979411
0.183843
0.0102253
0.183313
0.0106562
0.182752
0.0110976
0.0115579
0.18116
0.00149763
-0.180993
0.181276
0.00218878
0.181344
0.00286758
0.181364
0.00353311
0.181337
0.00418471
0.181263
0.00482162
0.181144
0.00544301
0.180981
0.00604805
0.180776
0.00663593
0.18053
0.00720587
0.180245
0.00775722
0.179923
0.00828944
0.179567
0.00880247
0.179179
0.00929652
0.178762
0.00977345
0.178321
0.0102353
0.177857
0.0106891
0.177373
0.0111401
0.176866
0.0116049
0.0120929
0.175533
0.00134898
-0.175384
0.175633
0.00208828
0.175686
0.00281443
0.175693
0.00352649
0.175654
0.00422365
0.175571
0.00490507
0.175444
0.00556982
0.175275
0.00621694
0.175065
0.00684546
0.174817
0.00745436
0.174531
0.0080427
0.174211
0.00860952
0.17386
0.00915432
0.17348
0.00967655
0.173075
0.0101778
0.172652
0.0106586
0.172213
0.0111279
0.171764
0.0115888
0.171302
0.0120676
0.0125711
0.170337
0.00122037
-0.170208
0.170419
0.00200672
0.170454
0.00277898
0.170444
0.00353626
0.17039
0.00427767
0.170293
0.00500226
0.170154
0.00570899
0.169974
0.0063968
0.169755
0.00706451
0.169499
0.00771088
0.169207
0.00833464
0.168882
0.00893435
0.168527
0.00950892
0.168147
0.0100568
0.167746
0.0105788
0.167331
0.0110733
0.166908
0.0115513
0.166487
0.0120094
0.166063
0.0124915
0.0129913
0.165518
0.00111259
-0.16541
0.165579
0.0019449
0.165596
0.00276221
0.165569
0.00356362
0.165498
0.00434815
0.165386
0.00511476
0.165232
0.00586234
0.16504
0.00658968
0.164809
0.00729545
0.164541
0.00797815
0.16424
0.00863618
0.163907
0.00926759
0.163545
0.00987058
0.163159
0.0104423
0.162756
0.0109827
0.162343
0.0114862
0.161928
0.0119664
0.16153
0.0124067
0.161142
0.0128801
0.0133414
0.161022
0.00102511
-0.160935
0.161065
0.00190234
0.161063
0.00276369
0.161019
0.00360818
0.160932
0.00443476
0.160804
0.00524233
0.160637
0.00602967
0.160431
0.00679549
0.160189
0.00753828
0.15991
0.00825634
0.159599
0.00894773
0.159256
0.00961001
0.158886
0.0102407
0.158493
0.0108353
0.158083
0.0113926
0.157668
0.0119015
0.157256
0.0123785
0.156879
0.0127835
0.156521
0.0132385
0.0135955
0.156804
0.000956125
-0.156735
0.156828
0.00187749
0.15681
0.00278171
0.15675
0.00366811
0.15665
0.00453555
0.156509
0.00538284
0.15633
0.00620873
0.156114
0.00701182
0.155862
0.00779049
0.155575
0.00854285
0.155256
0.00926669
0.154907
0.00995914
0.154531
0.010617
0.154131
0.0112345
0.153715
0.0118085
0.153296
0.0123214
0.152883
0.0127906
0.152528
0.0131392
0.152194
0.0135724
0.0137226
0.152819
0.000903663
-0.152766
0.152829
0.00186749
0.152798
0.00281307
0.152726
0.00373983
0.152615
0.00464649
0.152466
0.00553184
0.15228
0.00639462
0.152058
0.00723336
0.151803
0.00804632
0.151514
0.0088315
0.151194
0.0095865
0.150845
0.0103081
0.150469
0.0109927
0.150071
0.0116332
0.149654
0.0122255
0.149231
0.012744
0.148815
0.0132066
0.148481
0.0134738
0.148188
0.0138654
0.0136707
0.149029
-0.148992
0.000866169
0.149028
0.0018684
0.148988
0.00285336
0.148909
0.00381827
0.148794
0.00476175
0.148643
0.00568273
0.148458
0.00657995
0.148239
0.00745187
0.147989
0.00829672
0.147708
0.0091124
0.147398
0.00989645
0.147061
0.0106455
0.146698
0.0113558
0.146312
0.0120192
0.145905
0.0126318
0.145488
0.0131614
0.145065
0.0136301
0.144714
0.0138247
0.144456
0.0141232
0.0130276
0.254367
7.40804e-05
-0.254441
0.25433
3.63909e-05
0.254298
3.2557e-05
0.254256
4.14894e-05
0.2542
5.59208e-05
0.254127
7.37728e-05
0.254033
9.37428e-05
0.253918
0.000114706
0.253782
0.000135849
0.253626
0.000156665
0.253449
0.000176713
0.253253
0.000195713
0.253039
0.000214163
0.252806
0.000233122
0.252555
0.000250411
0.25229
0.000265586
0.252012
0.00027825
0.251723
0.000288311
0.251433
0.000289908
0.000289918
0.256229
-0.000241519
-0.255913
0.256483
-0.000217549
0.256692
-0.000176621
0.256856
-0.000122818
0.256975
-6.2652e-05
0.257047
1.27216e-06
0.257073
6.78116e-05
0.257052
0.000135876
0.256983
0.000204539
0.256867
0.000272866
0.256704
0.000339614
0.256497
0.00040354
0.256247
0.000463399
0.25595
0.000530859
0.255607
0.000592555
0.255223
0.000649704
0.254799
0.000702156
0.254338
0.000749842
0.25384
0.000788111
0.000821182
0.251664
-0.000898236
-0.251007
0.252248
-0.000801332
0.252766
-0.000694577
0.253221
-0.000578139
0.253614
-0.00045553
0.253944
-0.000328993
0.254212
-0.000199676
0.254416
-6.89849e-05
0.254558
6.30892e-05
0.254635
0.000195968
0.254649
0.000325812
0.2546
0.000452251
0.254486
0.000577582
0.254314
0.000702662
0.254083
0.000823557
0.253793
0.00093944
0.253445
0.00104984
0.253041
0.00115464
0.252577
0.00125191
0.00134443
0.243345
-0.00183394
-0.242409
0.244208
-0.00166428
0.245
-0.00148734
0.245725
-0.0013024
0.24638
-0.00111113
0.246967
-0.000915325
0.247483
-0.000716345
0.24793
-0.000515449
0.248306
-0.000313328
0.248609
-0.000107206
0.24884
9.47082e-05
0.249003
0.000289445
0.249095
0.000486103
0.249118
0.000679741
0.249072
0.000869293
0.248958
0.00105385
0.248775
0.00123266
0.248524
0.00140537
0.248205
0.00157091
0.00172983
0.233262
-0.00296855
-0.232127
0.234328
-0.00273066
0.235326
-0.00248526
0.236255
-0.00223192
0.237116
-0.00197155
0.237906
-0.00170566
0.238625
-0.00143566
0.239273
-0.00116278
0.239847
-0.000887963
0.240352
-0.000612008
0.240785
-0.00033814
0.241142
-6.77689e-05
0.241427
0.000201176
0.24164
0.000466785
0.241781
0.000728666
0.241849
0.000985376
0.241846
0.00123618
0.241771
0.0014805
0.241624
0.00171749
0.00194711
0.222705
-0.00422966
-0.221444
0.223903
-0.00392843
0.225035
-0.00361812
0.226102
-0.00329888
0.227102
-0.00297152
0.228034
-0.00263746
0.228897
-0.00229829
0.229689
-0.00195545
0.230412
-0.00161041
0.231064
-0.0012645
0.231645
-0.000919284
0.232154
-0.000576053
0.232591
-0.000235671
0.232957
0.000100331
0.233252
0.000433428
0.233475
0.000762505
0.233626
0.00108489
0.233706
0.00140051
0.233715
0.00170873
0.00200931
0.212459
-0.00555968
-0.211129
0.21373
-0.0051993
0.21494
-0.00482772
0.216086
-0.0044456
0.217169
-0.00405398
0.218186
-0.00365447
0.219136
-0.00324888
0.22002
-0.00283895
0.220836
-0.00242633
0.221584
-0.00201248
0.222263
-0.00159881
0.222874
-0.00118672
0.223415
-0.000777011
0.223886
-0.000370421
0.224294
2.5387e-05
0.22463
0.000426677
0.224896
0.000818352
0.225094
0.0012027
0.225223
0.00157964
0.00194879
0.202936
-0.00691681
-0.201579
0.204237
-0.00650059
0.20548
-0.00607079
0.206663
-0.00562842
0.207784
-0.00517497
0.208842
-0.00471245
0.209836
-0.004243
0.210766
-0.00376862
0.211631
-0.00329117
0.21243
-0.00281225
0.213165
-0.00233334
0.213834
-0.00185582
0.214438
-0.00138076
0.214976
-0.0009091
0.215444
-0.000442221
0.215857
1.37475e-05
0.216198
0.000477243
0.216475
0.00092597
0.216686
0.00136814
0.00180241
0.194294
-0.00827323
-0.192937
0.195597
-0.00780373
0.196844
-0.00731793
0.198033
-0.0068172
0.199161
-0.00630367
0.200229
-0.00577995
0.201234
-0.0052486
0.202178
-0.00471196
0.203059
-0.00417208
0.203877
-0.00363073
0.204633
-0.00308946
0.205327
-0.00254961
0.205959
-0.00201234
0.206528
-0.0014786
0.207036
-0.000949777
0.207477
-0.000427191
0.207863
9.06739e-05
0.208185
0.000604348
0.208445
0.00110787
0.00160353
0.18654
-0.0096122
-0.185201
0.187827
-0.00909137
0.18906
-0.00855106
0.190236
-0.007993
0.191353
-0.00742034
0.19241
-0.00683652
0.193406
-0.0062446
0.194341
-0.00564728
0.195216
-0.00504685
0.19603
-0.00444522
0.196785
-0.00384394
0.197479
-0.00324434
0.198115
-0.00264756
0.19869
-0.00205458
0.199207
-0.00146637
0.199664
-0.00088387
0.200062
-0.000307798
0.200404
0.000262268
0.200687
0.000825346
0.00137893
0.179603
-0.010925
-0.17829
0.180866
-0.0103546
0.182075
-0.00976053
0.183228
-0.00914536
0.184321
-0.00851377
0.185355
-0.00787026
0.186329
-0.00721849
0.187243
-0.00656155
0.188098
-0.00590195
0.188894
-0.00524166
0.189633
-0.00458225
0.190313
-0.00392496
0.190937
-0.00327087
0.191503
-0.0026209
0.192013
-0.00197591
0.192465
-0.00133675
0.192862
-0.000703955
0.193204
-8.04449e-05
0.19349
0.000539119
0.00114792
0.173377
-0.0122086
-0.172094
0.174613
-0.0115903
0.175795
-0.0109427
0.17692
-0.0102698
0.177985
-0.00957883
0.17899
-0.00887547
0.179936
-0.00816405
0.180822
-0.00744807
0.18165
-0.00673023
0.182421
-0.00601252
0.183135
-0.00529639
0.183793
-0.00458299
0.184396
-0.00387331
0.184943
-0.00316818
0.185436
-0.00246838
0.185874
-0.00177475
0.186258
-0.00108802
0.186587
-0.000409776
0.186866
0.000260168
0.000923604
0.167755
-0.0134639
-0.166499
0.168965
-0.0128001
0.17012
-0.0120981
0.171216
-0.011366
0.172252
-0.0106145
0.173227
-0.00985061
0.174142
-0.00907925
0.174999
-0.00830442
0.175797
-0.00752891
0.176539
-0.00675458
0.177226
-0.00598276
0.177857
-0.00521443
0.178434
-0.00445043
0.178958
-0.00369151
0.179428
-0.00293838
0.179845
-0.00219186
0.180209
-0.00145242
0.18052
-0.000720783
0.180784
-3.73432e-06
0.000714327
0.162635
-0.0146947
-0.161404
0.163823
-0.0139886
0.164955
-0.0132303
0.166026
-0.0124365
0.167034
-0.0116226
0.16798
-0.0107967
0.168865
-0.00996454
0.169691
-0.00913057
0.17046
-0.00829754
0.171173
-0.00746707
0.17183
-0.00664023
0.172433
-0.00581781
0.172983
-0.00500043
0.173481
-0.00418874
0.173926
-0.00338337
0.174319
-0.00258507
0.174661
-0.00179449
0.174953
-0.00101293
0.175192
-0.000242207
0.000521718
0.157934
-0.0159075
-0.156721
0.159109
-0.0151635
0.160224
-0.0143449
0.161273
-0.0134855
0.162256
-0.0126061
0.163175
-0.0117156
0.164032
-0.010821
0.164828
-0.00992709
0.165567
-0.00903631
0.16625
-0.0081499
0.166878
-0.00726855
0.167453
-0.0063927
0.167975
-0.00552274
0.168446
-0.00465914
0.168865
-0.00380245
0.169233
-0.00295337
0.169551
-0.00211264
0.169819
-0.00128121
0.170037
-0.000460208
0.00035062
0.15359
-0.0171151
-0.152383
0.154762
-0.0163351
0.155866
-0.0154488
0.156898
-0.0145179
0.157859
-0.0135673
0.158752
-0.012608
0.159579
-0.0116485
0.160345
-0.0106934
0.161054
-0.0097446
0.161706
-0.00880253
0.162305
-0.00786729
0.162851
-0.00693882
0.163346
-0.00601717
0.163789
-0.00510259
0.164182
-0.00419551
0.164525
-0.00329656
0.164819
-0.00240647
0.165064
-0.00152607
0.16526
-0.000656565
0.000201087
0.149557
-0.0183465
-0.148326
0.150741
-0.0175186
0.15184
-0.0165483
0.152858
-0.0155361
0.153796
-0.014505
0.154659
-0.0134706
0.155454
-0.0124436
0.156187
-0.0114268
0.156863
-0.0104203
0.157484
-0.00942355
0.158053
-0.00843566
0.15857
-0.00745586
0.159036
-0.00648375
0.159453
-0.00551935
0.15982
-0.00456296
0.160139
-0.00361515
0.160409
-0.00267664
0.160631
-0.00174833
0.160806
-0.000831185
7.24404e-05
0.145806
-0.0196663
-0.144486
0.147023
-0.018736
0.148119
-0.0176442
0.149117
-0.0165348
0.150023
-0.0154108
0.150848
-0.0142954
0.151605
-0.0132001
0.152301
-0.0121229
0.152941
-0.0110608
0.153529
-0.0100116
0.154067
-0.00897323
0.154555
-0.00794401
0.154994
-0.0069231
0.155385
-0.00591028
0.155728
-0.00490582
0.156023
-0.00391026
0.156271
-0.00292437
0.156472
-0.0019492
0.156626
-0.000985748
-3.59441e-05
0.142351
-0.0211445
-0.140873
0.1436
-0.0199847
0.144674
-0.0187181
0.145631
-0.0174914
0.146488
-0.0162681
0.147264
-0.0150715
0.147975
-0.0139109
0.14863
-0.0127778
0.149234
-0.0116646
0.149789
-0.0105667
0.150296
-0.0094808
0.150757
-0.00840449
0.15117
-0.00733661
0.151537
-0.00627693
0.151857
-0.00522573
0.15213
-0.00418362
0.152357
-0.00315146
0.152538
-0.00213042
0.152675
-0.001122
-0.000127737
0.139264
-0.137846
-0.0225626
0.140426
-0.0211466
0.14146
-0.0197519
0.142337
-0.0183683
0.143126
-0.0170572
0.143849
-0.0157951
0.144515
-0.014576
0.145129
-0.0133925
0.145698
-0.0122335
0.146222
-0.011091
0.146702
-0.00996035
0.147136
-0.00883899
0.147526
-0.00772579
0.147869
-0.00662064
0.148168
-0.005524
0.148421
-0.00443666
0.148629
-0.00335959
0.148792
-0.0022938
0.148911
-0.00124086
-0.000208275
0.0308341
0.112042
-0.110558
-0.0323182
0.0293227
0.115045
-0.113533
0.0277811
0.11818
-0.116639
0.026206
0.121472
-0.119896
0.024594
0.124951
-0.123339
0.0229423
0.128661
-0.127009
0.0212488
0.132659
-0.130966
0.0195121
0.137026
-0.135289
0.0177317
0.141864
-0.140084
0.0159078
0.147305
-0.145481
0.0140422
0.153511
-0.151645
0.0121392
0.160667
-0.158764
0.0102076
0.168976
-0.167044
0.0082643
0.178625
-0.176682
0.00633904
0.189738
-0.187812
0.00448204
0.202278
-0.200421
0.00277307
0.215909
-0.214201
0.00133268
0.229775
-0.228335
0.000330244
0.242092
-0.24109
0.249727
-0.249396
0.030645
0.113519
-0.0321215
0.0291411
0.116549
0.0276074
0.119714
0.0260404
0.123039
0.0244366
0.126555
0.0227933
0.130304
0.0211081
0.134345
0.0193797
0.138754
0.0176072
0.143637
0.0157909
0.149122
0.0139328
0.155369
0.0120375
0.162562
0.0101143
0.170899
0.00818092
0.180558
0.0062683
0.19165
0.00442814
0.204118
0.00274171
0.217596
0.00132901
0.231188
0.000354007
0.243067
0.250081
0.0304138
0.114985
-0.0318806
0.0289198
0.118043
0.0273962
0.121238
0.0258394
0.124595
0.024246
0.128148
0.0226132
0.131937
0.0209387
0.136019
0.0192207
0.140472
0.0174584
0.145399
0.0156522
0.150928
0.0138041
0.157217
0.0119188
0.164448
0.0100065
0.172811
0.00808545
0.18248
0.00618763
0.193548
0.00436575
0.20594
0.00270162
0.21926
0.00131358
0.232576
0.000357082
0.244024
0.250438
0.0301424
0.11644
-0.0315973
0.0286604
0.119525
0.027149
0.122749
0.0256045
0.12614
0.0240236
0.129729
0.0224034
0.133557
0.0207414
0.137681
0.019036
0.142178
0.0172861
0.147149
0.0154922
0.152722
0.0136562
0.159053
0.0117834
0.16632
0.00988419
0.17471
0.00797761
0.184386
0.00609647
0.195429
0.00429421
0.207743
0.00265277
0.220901
0.00128884
0.23394
0.000352017
0.244961
0.25079
0.029833
0.117881
-0.0312741
0.0283649
0.120993
0.0268675
0.124247
0.0253371
0.12767
0.0237705
0.131296
0.0221647
0.135163
0.0205172
0.139329
0.0188263
0.143869
0.0170908
0.148884
0.0153111
0.154501
0.0134895
0.160875
0.0116313
0.168179
0.00974733
0.176594
0.00785736
0.186276
0.00599492
0.197292
0.00421412
0.209523
0.00259693
0.222519
0.00125839
0.235278
0.000343097
0.245876
0.251133
0.0294882
0.119307
-0.0309139
0.0280355
0.122445
0.0265536
0.125728
0.025039
0.129185
0.0234883
0.132846
0.0218985
0.136753
0.0202671
0.14096
0.0185924
0.145544
0.0168731
0.150603
0.0151097
0.156265
0.0133043
0.16268
0.0114627
0.17002
0.00959616
0.178461
0.00772494
0.188147
0.00588336
0.199133
0.0041261
0.211281
0.00253509
0.22411
0.00122359
0.23659
0.000331491
0.246768
0.251464
0.0291106
0.120716
-0.0305199
0.0276745
0.123882
0.0262094
0.127193
0.0247118
0.130683
0.0231783
0.13438
0.0216059
0.138325
0.0199921
0.142574
0.0183351
0.147201
0.0166337
0.152305
0.0148882
0.15801
0.0131011
0.164467
0.0112781
0.171843
0.00943099
0.180308
0.00758066
0.189998
0.00576209
0.200952
0.00403053
0.213012
0.00246769
0.225673
0.00118499
0.237872
0.000317906
0.247635
0.251782
0.0287033
0.122109
-0.0300956
0.0272844
0.1253
0.025837
0.128641
0.0243572
0.132162
0.0228418
0.135895
0.021288
0.139879
0.019693
0.144169
0.0180552
0.148838
0.0163732
0.153987
0.0146473
0.159736
0.0128801
0.166234
0.0110777
0.173646
0.0092521
0.182134
0.00742478
0.191825
0.0056314
0.202745
0.00392768
0.214716
0.00239507
0.227205
0.00114312
0.239124
0.000302943
0.248475
0.252085
0.028269
0.123484
-0.0296443
0.0268676
0.126702
0.0254381
0.13007
0.0239767
0.133624
0.0224802
0.137392
0.0209457
0.141414
0.0193707
0.145744
0.0177532
0.150456
0.016092
0.155648
0.0143873
0.161441
0.0126418
0.16798
0.0108618
0.175426
0.00905973
0.183936
0.00725755
0.193627
0.00549155
0.204511
0.00381787
0.21639
0.00231762
0.228705
0.00109845
0.240344
0.00028702
0.249287
0.252372
0.0278106
0.124843
-0.0291697
0.0264262
0.128086
0.0250144
0.131482
0.0235716
0.135066
0.0220943
0.138869
0.0205799
0.142928
0.0190256
0.147298
0.0174295
0.152052
0.0157904
0.157287
0.0141085
0.163123
0.0123864
0.169702
0.0106307
0.177181
0.0088541
0.185712
0.00707919
0.195402
0.00534279
0.206248
0.00370138
0.218031
0.00223569
0.230171
0.00105136
0.241528
0.000270381
0.250068
0.252642
0.0273305
0.126187
-0.0286748
0.0259619
0.129455
0.0245672
0.132877
0.0231425
0.136491
0.0216847
0.140327
0.0201907
0.144422
0.018658
0.148831
0.0170844
0.153626
0.0154686
0.158903
0.0138109
0.16478
0.0121139
0.171399
0.0103844
0.178911
0.00863535
0.187461
0.00688988
0.197147
0.00518534
0.207952
0.0035785
0.219638
0.00214957
0.2316
0.00100211
0.242675
0.000253187
0.250817
0.252896
0.0268303
0.127519
-0.0281623
0.0254756
0.130809
0.0240967
0.134256
0.0226896
0.137898
0.0212511
0.141766
0.019778
0.145895
0.0182675
0.150341
0.0167175
0.155176
0.0151265
0.160494
0.0134946
0.166412
0.0118244
0.173069
0.010123
0.180612
0.00840358