/*--------------------------------*- C++ -*----------------------------------*\
| =========                 |                                                 |
| \\      /  F ield         | OpenFOAM: The Open Source CFD Toolbox           |
|  \\    /   O peration     | Version:  v1912                                 |
|   \\  /    A nd           | Website:  www.openfoam.com                      |
|    \\/     M anipulation  |                                                 |
\*---------------------------------------------------------------------------*/
FoamFile
{
    version     2.0;
    format      ascii;
    class       surfaceScalarField;
    location    "26.5";
    object      phi;
}
// * * * * * * * * * * * * * * * * * * * * * * * * * * * * * * * * * * * * * //

dimensions      [0 3 -1 0 0 0 0];
oriented        oriented;


internalField   nonuniform List<scalar> 
18940
(
0.000350023
-0.234508
0.234158
0.00134959
-0.216573
0.215574
0.00282315
-0.205041
0.203567
0.00460309
-0.197207
0.195427
0.00656117
-0.191376
0.189418
0.00859771
-0.186496
0.184459
0.0106404
-0.181988
0.179945
0.0126408
-0.177563
0.175562
0.0145695
-0.173097
0.171168
0.0164114
-0.168563
0.166721
0.018162
-0.163982
0.162231
0.0198237
-0.159395
0.157734
0.0214034
-0.15485
0.15327
0.0229107
-0.150389
0.148882
0.0243568
-0.146047
0.144601
0.025753
-0.141849
0.140453
0.0271107
-0.137805
0.136448
0.0284403
-0.133914
0.132584
0.0297499
-0.130155
0.128845
-0.126488
0.125193
0.0310447
0.000373281
-0.234881
0.00139266
-0.217593
0.00287691
-0.206525
0.00466147
-0.198992
0.00661462
-0.193329
0.00863672
-0.188518
0.0106567
-0.184008
0.0126276
-0.179533
0.0145219
-0.174991
0.0163262
-0.170367
0.0180376
-0.165693
0.0196597
-0.161017
0.0212004
-0.156391
0.0226701
-0.151859
0.0240802
-0.147457
0.0254424
-0.143211
0.0267684
-0.139131
0.0280688
-0.135214
0.0293524
-0.131438
-0.127761
0.030625
0.000394575
-0.235276
0.00143011
-0.218628
0.00292318
-0.208018
0.00470869
-0.200777
0.00665336
-0.195273
0.00865745
-0.190522
0.0106511
-0.186002
0.0125891
-0.181472
0.0144459
-0.176848
0.0162099
-0.172131
0.0178797
-0.167363
0.0194601
-0.162598
0.0209601
-0.157891
0.0223905
-0.153289
0.0237631
-0.14883
0.02509
-0.144538
0.026383
-0.140424
0.027653
-0.136484
0.0289092
-0.132695
-0.12901
0.0301583
0.000408336
-0.235684
0.00145889
-0.219679
0.00296003
-0.209519
0.00474402
-0.202561
0.00667693
-0.197206
0.00865953
-0.192505
0.0106234
-0.187966
0.0125254
-0.183374
0.0143417
-0.178664
0.0160628
-0.173852
0.0176887
-0.168989
0.0192256
-0.164135
0.0206832
-0.159348
0.0220729
-0.154679
0.0234069
-0.150164
0.0246973
-0.145828
0.0259561
-0.141683
0.0271946
-0.137723
0.0284225
-0.133922
-0.130235
0.0296474
0.000419518
-0.236104
0.00148236
-0.220742
0.00298881
-0.211026
0.00476811
-0.204341
0.00668578
-0.199124
0.00864338
-0.194462
0.0105742
-0.189896
0.012437
-0.185236
0.0142101
-0.180437
0.0158858
-0.175528
0.0174658
-0.170569
0.0189574
-0.165626
0.0203711
-0.160762
0.0217188
-0.156026
0.0230129
-0.151458
0.0242658
-0.147081
0.0254894
-0.142907
0.0266955
-0.138929
0.0278942
-0.135121
-0.131435
0.0290941
0.000428548
-0.236532
0.00150094
-0.221814
0.00300977
-0.212535
0.00478116
-0.206112
0.00668018
-0.201023
0.00860938
-0.196391
0.0105038
-0.191791
0.0123245
-0.187057
0.0140518
-0.182165
0.0156799
-0.177156
0.0172119
-0.172101
0.0186565
-0.167071
0.0200248
-0.16213
0.0213293
-0.157331
0.0225825
-0.152711
0.0237967
-0.148296
0.0249842
-0.144094
0.0261568
-0.140101
0.0273254
-0.13629
-0.132609
0.0284995
0.000435994
-0.236968
0.0015153
-0.222893
0.00302346
-0.214043
0.00478366
-0.207872
0.00666062
-0.2029
0.00855808
-0.198289
0.010413
-0.193646
0.0121887
-0.188833
0.0138676
-0.183844
0.0154458
-0.178735
0.0169281
-0.173583
0.018324
-0.168467
0.0196456
-0.163452
0.0209055
-0.158591
0.0221165
-0.153922
0.023291
-0.14947
0.0244412
-0.145244
0.0255793
-0.141239
0.0267168
-0.137427
-0.133756
0.0278643
0.00044201
-0.23741
0.00152576
-0.223977
0.00303029
-0.215547
0.00477606
-0.209618
0.00662765
-0.204752
0.00849013
-0.200151
0.0103026
-0.195458
0.0120304
-0.19056
0.0136585
-0.185472
0.0151848
-0.180261
0.0166153
-0.175014
0.0179609
-0.169812
0.0192343
-0.164725
0.0204483
-0.159805
0.021616
-0.15509
0.0227494
-0.150604
0.0238611
-0.146356
0.0249632
-0.142342
0.0260683
-0.138532
-0.134876
0.0271881
0.000446702
-0.237857
0.00153261
-0.225063
0.00303069
-0.217045
0.00475891
-0.211346
0.00658193
-0.206575
0.00840632
-0.201976
0.0101733
-0.197225
0.0118508
-0.192238
0.0134257
-0.187047
0.0148979
-0.181733
0.0162749
-0.176391
0.0175685
-0.171106
0.0187919
-0.165949
0.0199587
-0.160972
0.0210814
-0.156213
0.0221723
-0.151694
0.0232438
-0.147427
0.0243084
-0.143406
0.0253794
-0.139603
-0.135967
0.02647
0.000450142
-0.238307
0.00153612
-0.226149
0.00302512
-0.218534
0.00473284
-0.213054
0.00652423
-0.208366
0.00830759
-0.203759
0.0100264
-0.198944
0.011651
-0.193863
0.0131705
-0.188566
0.0145865
-0.183149
0.015908
-0.177712
0.0171478
-0.172346
0.0183197
-0.167121
0.0194373
-0.162089
0.0205134
-0.157289
0.02156
-0.152741
0.0225892
-0.148457
0.0236142
-0.144431
0.0246489
-0.140638
-0.137026
0.0257081
0.000452437
-0.238759
0.00153663
-0.227233
0.00301415
-0.220012
0.00469859
-0.214738
0.00645548
-0.210123
0.00819502
-0.205499
0.00986312
-0.200612
0.0114324
-0.195432
0.0128943
-0.190028
0.0142521
-0.184507
0.0155162
-0.178976
0.0167002
-0.17353
0.0178186
-0.168239
0.0188852
-0.163156
0.0199125
-0.158316
0.0209124
-0.153741
0.021897
-0.149441
0.0228793
-0.145414
0.0238747
-0.141634
-0.138051
0.0248998
0.000453738
-0.239213
0.0015346
-0.228314
0.00299845
-0.221476
0.00465703
-0.216397
0.00637677
-0.211843
0.00806993
-0.207192
0.00968488
-0.202227
0.0111967
-0.196944
0.0125989
-0.19143
0.0138965
-0.185804
0.0151013
-0.180181
0.0162276
-0.174656
0.0172903
-0.169302
0.0183035
-0.164169
0.0192795
-0.159292
0.0202299
-0.154691
0.0211665
-0.150378
0.0221027
-0.14635
0.0230549
-0.142586
-0.139038
0.0240419
0.000454324
-0.239668
0.00153062
-0.22939
0.00297886
-0.222924
0.00460923
-0.218027
0.00628936
-0.213523
0.0079338
-0.208836
0.00949345
-0.203787
0.0109458
-0.198396
0.0122864
-0.192771
0.013522
-0.18704
0.0146654
-0.181325
0.0157319
-0.175723
0.0167366
-0.170306
0.0176936
-0.165126
0.0186153
-0.160214
0.0195128
-0.155589
0.0203976
-0.151263
0.0212831
-0.147235
0.0221869
-0.143489
-0.139981
0.0231305
0.000454671
-0.240122
0.00152554
-0.230461
0.00295641
-0.224355
0.00455639
-0.219627
0.0061947
-0.215161
0.00778835
-0.21043
0.0092908
-0.205289
0.0106819
-0.199787
0.0119593
-0.194048
0.0131312
-0.188212
0.0142115
-0.182405
0.0152159
-0.176727
0.01616
-0.171251
0.0170578
-0.166024
0.0179214
-0.161077
0.0187617
-0.156429
0.0195896
-0.152091
0.0204184
-0.148064
0.0212668
-0.144338
-0.140874
0.0221594
0.000455578
-0.240578
0.00152053
-0.231526
0.00293232
-0.225767
0.00449985
-0.221195
0.00609437
-0.216756
0.00763544
-0.211971
0.00907916
-0.206733
0.0104077
-0.201116
0.0116206
-0.195261
0.0127275
-0.189319
0.013743
-0.18342
0.0146834
-0.177667
0.0155642
-0.172131
0.0163993
-0.166859
0.0172005
-0.161879
0.0179781
-0.157207
0.0187422
-0.152855
0.0195058
-0.148828
0.0202884
-0.145121
-0.141706
0.0211202
0.000458188
-0.241036
0.00151688
-0.232585
0.00290777
-0.227158
0.00444096
-0.222728
0.00599002
-0.218305
0.00747712
-0.213458
0.00886095
-0.208117
0.010126
-0.202381
0.0112737
-0.196408
0.0123147
-0.19036
0.0132644
-0.18437
0.0141392
-0.178542
0.0149546
-0.172947
0.015724
-0.167628
0.0164585
-0.162613
0.0171673
-0.157916
0.0178596
-0.153547
0.0185472
-0.149515
0.019251
-0.145824
-0.142465
0.0200098
0.000463889
-0.2415
0.00151589
-0.233637
0.00288405
-0.228526
0.00438126
-0.224225
0.00588348
-0.219807
0.00731553
-0.21489
0.00863877
-0.20944
0.00984
-0.203582
0.0109222
-0.197491
0.0118971
-0.191335
0.0127807
-0.185254
0.0135892
-0.179351
0.0143378
-0.173695
0.015039
-0.16833
0.0157032
-0.163277
0.0163386
-0.158551
0.0169525
-0.154161
0.0175551
-0.150118
0.018167
-0.146436
-0.143126
0.0188284
0.000475009
-0.241975
0.00152018
-0.234682
0.00286364
-0.229869
0.00432283
-0.225684
0.00577667
-0.221261
0.00715275
-0.216266
0.0084151
-0.210702
0.00955274
-0.20472
0.0105701
-0.198508
0.0114799
-0.192245
0.012298
-0.186072
0.0130403
-0.180093
0.0137209
-0.174376
0.0143514
-0.16896
0.0149408
-0.163867
0.0154963
-0.159107
0.0160245
-0.154689
0.0165316
-0.150625
0.0170309
-0.146936
-0.143642
0.017547
0.00049913
-0.242474
0.00153698
-0.23572
0.00285057
-0.231183
0.00426755
-0.227101
0.00567081
-0.222664
0.00699016
-0.217586
0.00819193
-0.211904
0.00926715
-0.205795
0.0102217
-0.199462
0.0110688
-0.193092
0.0118242
-0.186827
0.0125028
-0.180772
0.0131168
-0.17499
0.0136752
-0.169519
0.0141838
-0.164375
0.0146459
-0.159569
0.0150635
-0.155106
0.0154353
-0.150997
0.0157659
-0.147266
-0.143994
0.0161178
0.000556362
-0.24303
0.00157462
-0.236738
0.00284458
-0.232453
0.00421422
-0.228471
0.00556537
-0.224015
0.00682813
-0.218848
0.00797052
-0.213047
0.00898547
-0.20681
0.00988034
-0.200357
0.0106692
-0.193881
0.0113679
-0.187526
0.0119905
-0.181394
0.0125475
-0.175547
0.0130443
-0.170015
0.0134807
-0.164812
0.0138494
-0.159937
0.0141338
-0.155391
0.0143077
-0.151171
0.0143655
-0.147324
-0.144161
0.0145326
0.250601
0.000410341
-0.251011
0.250217
0.00038386
0.249841
0.000376473
0.249464
0.000376497
0.249085
0.000379338
0.248701
0.000383646
0.248313
0.000388695
0.247919
0.000393896
0.24752
0.000398856
0.247116
0.00040337
0.246709
0.000407339
0.246298
0.000410736
0.245885
0.000413544
0.245469
0.000415737
0.245052
0.000417189
0.244634
0.000417694
0.244218
0.000416203
0.243806
0.000412164
0.243409
0.00039638
0.000379113
0.252355
0.0010109
-0.252956
0.251719
0.00101951
0.251056
0.00104009
0.250366
0.00106659
0.24965
0.00109447
0.248912
0.00112238
0.248151
0.00114984
0.247368
0.00117634
0.246566
0.00120147
0.245744
0.00122497
0.244905
0.00124672
0.244049
0.00126668
0.243177
0.00128487
0.242292
0.00130125
0.241393
0.0013157
0.240483
0.00132801
0.239562
0.00133705
0.238632
0.00134256
0.23769
0.00133826
0.00133075
0.250977
0.0015751
-0.251541
0.250348
0.00164787
0.249668
0.00172088
0.248939
0.00179503
0.248166
0.00186795
0.24735
0.00193843
0.246493
0.00200614
0.245599
0.00207084
0.244668
0.00213227
0.243703
0.00219029
0.242705
0.00224483
0.241675
0.00229594
0.240616
0.00234369
0.23953
0.00238818
0.238416
0.00242943
0.237276
0.00246747
0.236112
0.00250175
0.234922
0.00253253
0.233703
0.00255742
0.0025806
0.246767
0.00201296
-0.247204
0.24626
0.00215464
0.245689
0.00229173
0.245058
0.00242567
0.24437
0.0025558
0.243628
0.00268133
0.242832
0.00280191
0.241985
0.00291737
0.24109
0.00302757
0.240148
0.00313242
0.239161
0.00323195
0.23813
0.00332626
0.237058
0.00341556
0.235947
0.00350011
0.234796
0.00358018
0.233607
0.00365613
0.232381
0.00372803
0.231117
0.00379651
0.229813
0.00386084
0.00392302
0.240456
0.00228904
-0.240732
0.240109
0.00250121
0.239694
0.00270665
0.239214
0.00290619
0.23867
0.00309979
0.238064
0.003287
0.237398
0.00346745
0.236675
0.00364097
0.235895
0.00380743
0.23506
0.00396677
0.234173
0.00411907
0.233235
0.0042645
0.232247
0.00440338
0.231211
0.00453617
0.230128
0.00466339
0.228998
0.00478572
0.227823
0.00490374
0.226601
0.0050184
0.225332
0.00512984
0.00523973
0.232823
0.0024117
-0.232945
0.23263
0.00269367
0.232369
0.00296775
0.232041
0.00323424
0.231648
0.00349317
0.23119
0.00374423
0.230671
0.00398707
0.23009
0.00422147
0.22945
0.00444727
0.228753
0.00466444
0.227999
0.00487305
0.22719
0.00507336
0.226327
0.00526578
0.225413
0.00545093
0.224446
0.00562959
0.223429
0.00580277
0.222362
0.00597151
0.221243
0.00613716
0.220072
0.00630059
0.0064636
0.224559
0.00241086
-0.224558
0.224492
0.00276013
0.224359
0.00310076
0.224161
0.00343268
0.223898
0.00375581
0.223573
0.00406987
0.223185
0.0043745
0.222737
0.00466943
0.22223
0.00495447
0.221665
0.00522955
0.221043
0.00549476
0.220366
0.00575038
0.219635
0.0059969
0.218851
0.0062351
0.218014
0.00646602
0.217126
0.006691
0.216186
0.00691157
0.215194
0.00712961
0.214148
0.00734663
0.00756477
0.216183
0.00232206
-0.216094
0.216208
0.00273514
0.21617
0.00313899
0.216069
0.00353331
0.215907
0.00391787
0.215685
0.00429235
0.215403
0.00465636
0.215063
0.00500957
0.214665
0.00535172
0.214212
0.00568272
0.213704
0.00600261
0.213143
0.00631169
0.212529
0.0066105
0.211865
0.00689995
0.211149
0.00718133
0.210384
0.00745635
0.209568
0.00772709
0.208702
0.00799602
0.207783
0.00826547
0.00853811
0.208037
0.00217804
-0.207893
0.208121
0.00265122
0.208145
0.0031146
0.208111
0.00356774
0.208018
0.0040103
0.207869
0.00444187
0.207663
0.00486202
0.207402
0.00527032
0.207088
0.00566647
0.20672
0.00605027
0.206301
0.00642173
0.205832
0.00678109
0.205313
0.00712894
0.204747
0.00746627
0.204134
0.0077946
0.203474
0.00811601
0.202768
0.00843321
0.202014
0.00874942
0.201212
0.00906804
0.00939256
0.200318
0.00200538
-0.200145
0.200434
0.00253513
0.200494
0.00305452
0.200499
0.00356299
0.200449
0.0040601
0.200346
0.00454536
0.200189
0.00501824
0.199981
0.00547823
0.199723
0.00592493
0.199415
0.00635806
0.199059
0.00677751
0.198657
0.00718345
0.19821
0.00757642
0.197718
0.00795744
0.197185
0.00832823
0.19661
0.0086912
0.195993
0.0090498
0.195334
0.00940813
0.194631
0.00977106
0.0101433
0.193119
0.00182367
-0.192937
0.193247
0.00240694
0.193322
0.00297927
0.193345
0.00353999
0.193317
0.00408855
0.193238
0.00462437
0.193109
0.00514682
0.192932
0.00565531
0.192708
0.00614931
0.192437
0.00662838
0.192122
0.00709231
0.191765
0.0075411
0.191366
0.00797517
0.190928
0.00839546
0.190452
0.00880382
0.189941
0.00920287
0.189394
0.00959696
0.188811
0.00999106
0.188189
0.0103922
0.0108069
0.186462
0.00164621
-0.186284
0.186588
0.00228052
0.186664
0.0029033
0.18669
0.00351372
0.186668
0.00411113
0.186597
0.00469487
0.18648
0.00526421
0.186317
0.00581843
0.186109
0.00635686
0.185859
0.00687893
0.185567
0.00738419
0.185236
0.00787241
0.184867
0.00834384
0.184463
0.00879913
0.184027
0.00924018
0.18356
0.00966955
0.183065
0.0100927
0.18254
0.0105152
0.181985
0.0109475
0.0113979
0.180329
0.00148126
-0.180164
0.180444
0.00216481
0.180512
0.00283608
0.180531
0.00349415
0.180504
0.00413834
0.180431
0.00476787
0.180313
0.00538191
0.180152
0.00597961
0.179949
0.00656016
0.179705
0.00712275
0.179423
0.00766672
0.179103
0.00819151
0.17875
0.00869704
0.178366
0.00918349
0.177953
0.00965265
0.177516
0.0101065
0.177057
0.0105519
0.176578
0.0109942
0.176076
0.0114495
0.0119271
0.174678
0.00133369
-0.17453
0.174778
0.00206496
0.174831
0.00278318
0.174837
0.00348737
0.174799
0.00417673
0.174716
0.00485039
0.174591
0.00550742
0.174424
0.00614683
0.174216
0.00676765
0.17397
0.00736885
0.173687
0.00794946
0.17337
0.00850854
0.173022
0.00904554
0.172645
0.00955991
0.172245
0.0100531
0.171826
0.0105258
0.171391
0.0109866
0.170947
0.0114386
0.170489
0.0119076
0.0124004
0.169458
0.0012058
-0.16933
0.169539
0.00198372
0.169575
0.00274765
0.169566
0.00349668
0.169512
0.00422992
0.169416
0.00494638
0.169279
0.00564503
0.169101
0.00632478
0.168884
0.00698446
0.16863
0.0076228
0.168341
0.00823853
0.168019
0.0088302
0.167668
0.00939671
0.167292
0.00993647
0.166894
0.0104503
0.166484
0.0109366
0.166064
0.011406
0.165647
0.0118553
0.165228
0.0123274
0.0128164
0.164616
0.0010984
-0.164508
0.164677
0.0019219
0.164695
0.00273051
0.164668
0.00352331
0.164598
0.00429931
0.164487
0.00505746
0.164336
0.00579662
0.164145
0.00651558
0.163916
0.00721298
0.163652
0.00788735
0.163353
0.00853706
0.163023
0.00916015
0.162665
0.00975484
0.162284
0.0103183
0.161884
0.0108503
0.161475
0.0113456
0.161063
0.0118172
0.16067
0.0122491
0.160284
0.0127125
0.0131634
0.160099
0.00101102
-0.160011
0.160142
0.00187906
0.160141
0.00273137
0.160097
0.00356691
0.160012
0.00438464
0.159886
0.00518341
0.15972
0.00596202
0.159517
0.00671914
0.159277
0.00745327
0.159001
0.00816269
0.158693
0.00884548
0.158354
0.00949918
0.157987
0.0101213
0.157598
0.0107075
0.157192
0.0112563
0.156781
0.0117571
0.156372
0.0122254
0.155999
0.0126229
0.155643
0.0130677
0.013416
0.155861
0.000941848
-0.155792
0.155887
0.0018537
0.155869
0.00274857
0.155811
0.00362572
0.155711
0.00448399
0.155572
0.00532218
0.155395
0.00613904
0.155181
0.00693313
0.154932
0.00770284
0.154648
0.00844628
0.154333
0.00916123
0.153987
0.00984485
0.153614
0.0104939
0.153219
0.0111028
0.152807
0.0116682
0.152391
0.0121731
0.151983
0.0126337
0.15163
0.0129761
0.151299
0.0133988
0.0135439
0.151861
0.000888995
-0.151808
0.151871
0.00184301
0.151841
0.00277895
0.151771
0.00369618
0.151661
0.0045934
0.151514
0.00546938
0.15133
0.00632284
0.151111
0.00715229
0.150858
0.00795602
0.150572
0.008732
0.150256
0.00947784
0.14991
0.0101904
0.149538
0.0108659
0.149143
0.0114976
0.14873
0.012081
0.148312
0.0125916
0.1479
0.0130456
0.147567
0.0133086
0.147277
0.0136894
0.0134968
0.148058
-0.14802
0.000850848
0.148058
0.00184309
0.148019
0.00281815
0.147942
0.00377328
0.147828
0.00470708
0.147679
0.00561844
0.147496
0.00650608
0.14728
0.00736847
0.147032
0.00820382
0.146754
0.00901004
0.146447
0.00978466
0.146113
0.0105243
0.145754
0.0112253
0.145372
0.0118797
0.14497
0.0124832
0.144556
0.0130048
0.144137
0.0134646
0.143789
0.0136568
0.143534
0.0139449
0.0128694
0.254182
7.38785e-05
-0.254256
0.254146
3.58982e-05
0.254114
3.17537e-05
0.254074
4.03926e-05
0.254019
5.45411e-05
0.253947
7.2116e-05
0.253855
9.18158e-05
0.253743
0.000112519
0.253609
0.000133417
0.253455
0.000154009
0.253282
0.000173856
0.253089
0.000192659
0.252878
0.000210834
0.252649
0.000229358
0.252402
0.000246533
0.252141
0.000261619
0.251866
0.000274151
0.251582
0.000284064
0.251297
0.000285519
0.000285401
0.255823
-0.000238086
-0.255511
0.256074
-0.000215258
0.256281
-0.000175327
0.256444
-0.000122494
0.256562
-6.32869e-05
0.256634
-3.046e-07
0.256661
6.53099e-05
0.256641
0.000132463
0.256574
0.000200255
0.25646
0.000267783
0.2563
0.000333784
0.256096
0.000397085
0.25585
0.000456552
0.255558
0.000521746
0.255221
0.000583293
0.254843
0.000639915
0.254425
0.00069178
0.25397
0.000738884
0.253479
0.000776553
0.000808983
0.251146
-0.000887132
-0.250497
0.251723
-0.00079203
0.252234
-0.000687103
0.252684
-0.000572477
0.253073
-0.000451666
0.253399
-0.000326907
0.253664
-0.000199344
0.253867
-7.04325e-05
0.254007
5.98546e-05
0.254084
0.000191188
0.254098
0.000319504
0.254051
0.000444398
0.253939
0.000568128
0.25377
0.000691327
0.253542
0.000810861
0.253257
0.000925448
0.252914
0.00103453
0.252515
0.00113803
0.252057
0.00123403
0.00132532
0.242785
-0.00181102
-0.241861
0.243637
-0.00164403
0.244419
-0.0014698
0.245134
-0.00128759
0.245782
-0.00109903
0.246361
-0.000905934
0.246871
-0.000709641
0.247312
-0.000511405
0.247684
-0.000311906
0.247983
-0.000108517
0.248212
9.11767e-05
0.248373
0.000283329
0.248463
0.000477544
0.248486
0.000668748
0.248441
0.000855978
0.248328
0.00103833
0.248148
0.00121499
0.2479
0.00138558
0.247585
0.00154906
0.00170596
0.232695
-0.00293084
-0.231575
0.233747
-0.00269654
0.234732
-0.00245476
0.23565
-0.00220506
0.236499
-0.00194834
0.237279
-0.00168608
0.237989
-0.0014197
0.238628
-0.0011504
0.239196
-0.000879137
0.239694
-0.000606694
0.240121
-0.000336178
0.240474
-6.91998e-05
0.240755
0.000196434
0.240965
0.000458766
0.241103
0.000717455
0.241171
0.000971081
0.241167
0.00121888
0.241092
0.00146023
0.240947
0.00169432
0.00192108
0.222144
-0.00417541
-0.220899
0.223326
-0.00387864
0.224444
-0.00357285
0.225497
-0.00325815
0.226484
-0.00293534
0.227404
-0.00260582
0.228255
-0.00227116
0.229038
-0.00193281
0.229751
-0.0015922
0.230395
-0.00125066
0.230968
-0.000909727
0.23147
-0.00057072
0.231901
-0.000234491
0.232262
9.73562e-05
0.232553
0.000426435
0.232773
0.000751624
0.232921
0.00107016
0.233
0.001382
0.233008
0.00168649
0.00198342
0.211903
-0.00548804
-0.21059
0.213157
-0.00513299
0.214351
-0.0047668
0.215483
-0.0043901
0.216552
-0.00400391
0.217556
-0.00360981
0.218494
-0.00320961
0.219366
-0.00280502
0.220172
-0.00239768
0.22091
-0.00198904
0.221581
-0.00158048
0.222184
-0.00117343
0.222718
-0.000768681
0.223182
-0.000366955
0.223585
2.38654e-05
0.223916
0.000420659
0.224178
0.000807659
0.224373
0.00118745
0.224499
0.00155991
0.00192464
0.202376
-0.00682762
-0.201036
0.20366
-0.00641759
0.204888
-0.00599404
0.206055
-0.00555795
0.207162
-0.0051108
0.208207
-0.00465455
0.209189
-0.00419133
0.210107
-0.00372313
0.210961
-0.00325176
0.211751
-0.00277884
0.212476
-0.00230584
0.213137
-0.00183412
0.213733
-0.00136477
0.214265
-0.00089874
0.214726
-0.000437432
0.215133
1.32119e-05
0.21547
0.000471324
0.215742
0.000914803
0.215951
0.00135179
0.00178095
0.19372
-0.00816678
-0.192381
0.195007
-0.00770431
0.196238
-0.00722563
0.197412
-0.00673205
0.198527
-0.00622567
0.199582
-0.00570907
0.200575
-0.00518478
0.201507
-0.00465511
0.202377
-0.0041221
0.203186
-0.00358752
0.203933
-0.0030529
0.204619
-0.00251957
0.205243
-0.00198872
0.205805
-0.00146128
0.206306
-0.000938658
0.206742
-0.000422137
0.207123
8.97375e-05
0.207441
0.000597512
0.207697
0.00109523
0.00158515
0.185943
-0.009489
-0.184621
0.187215
-0.00897606
0.188433
-0.00844375
0.189595
-0.00789372
0.190698
-0.00732908
0.191743
-0.00675322
0.192727
-0.00616918
0.193651
-0.00557963
0.194516
-0.00498684
0.195321
-0.0043927
0.196067
-0.00379877
0.196754
-0.00320639
0.197382
-0.00261669
0.197951
-0.00203064
0.198462
-0.00144925
0.198913
-0.000873444
0.199307
-0.000303955
0.199645
0.000259624
0.199924
0.000816311
0.00136359
0.178977
-0.0107857
-0.17768
0.180225
-0.010224
0.18142
-0.0096389
0.182559
-0.00903265
0.18364
-0.00840996
0.184662
-0.00777527
0.185625
-0.00713219
0.186529
-0.00648379
0.187375
-0.00583257
0.188163
-0.00518049
0.188893
-0.00452911
0.189566
-0.00387968
0.190183
-0.00323329
0.190743
-0.00259088
0.191247
-0.00195329
0.191695
-0.0013214
0.192087
-0.000695739
0.192426
-7.92695e-05
0.192709
0.000533375
0.00113534
0.172718
-0.0120539
-0.17145
0.17394
-0.0114453
0.175108
-0.0108075
0.17622
-0.0101444
0.177273
-0.00946324
0.178267
-0.00876955
0.179203
-0.00806763
0.18008
-0.00736096
0.1809
-0.00665223
0.181663
-0.0059434
0.182369
-0.00523596
0.183021
-0.00453105
0.183617
-0.00382966
0.184159
-0.00313266
0.184647
-0.00244082
0.18508
-0.001755
0.18546
-0.00107594
0.185786
-0.00040524
0.186062
0.000257279
0.000913386
0.16706
-0.0132944
-0.16582
0.168256
-0.0126413
0.169399
-0.0119501
0.170483
-0.0112288
0.171508
-0.0104879
0.172473
-0.00973453
0.173378
-0.00897347
0.174226
-0.00820869
0.175017
-0.00744297
0.175752
-0.0066782
0.176431
-0.00591569
0.177057
-0.00515645
0.177629
-0.00440131
0.178147
-0.00365107
0.178613
-0.00290644
0.179026
-0.00216824
0.179387
-0.00143697
0.179695
-0.000713377
0.179956
-4.22171e-06
0.000706032
0.161904
-0.0145111
-0.160688
0.16308
-0.0138167
0.1642
-0.0130702
0.165259
-0.012288
0.166257
-0.0114857
0.167194
-0.0106712
0.16807
-0.00985007
0.168888
-0.00902687
0.16965
-0.0082043
0.170356
-0.00738402
0.171007
-0.00656711
0.171605
-0.00575434
0.17215
-0.00494639
0.172643
-0.00414391
0.173084
-0.00334756
0.173474
-0.00255809
0.173813
-0.00177616
0.174103
-0.00100311
0.174339
-0.000240747
0.000514931
0.15717
-0.0157104
-0.15597
0.158332
-0.0149791
0.159435
-0.0141733
0.160474
-0.0133266
0.161447
-0.0124596
0.162357
-0.0115812
0.163206
-0.0106984
0.163995
-0.00981596
0.164727
-0.00893631
0.165404
-0.00806072
0.166026
-0.00718988
0.166596
-0.00632427
0.167114
-0.00546428
0.167581
-0.00461041
0.167996
-0.00376324
0.168362
-0.00292347
0.168677
-0.00209187
0.168944
-0.0012694
0.16916
-0.000457207
0.000344947
0.152793
-0.016905
-0.151599
0.153953
-0.0161388
0.155046
-0.0152663
0.156068
-0.0143488
0.15702
-0.0134115
0.157904
-0.0124651
0.158724
-0.0115182
0.159483
-0.0105753
0.160185
-0.00963832
0.160832
-0.00870771
0.161426
-0.00778358
0.161968
-0.00686592
0.162458
-0.00595477
0.162898
-0.00505044
0.163288
-0.00415337
0.163629
-0.00326419
0.163921
-0.00238368
0.164164
-0.00151268
0.164359
-0.000652396
0.000196166
0.148731
-0.0181235
-0.147512
0.149903
-0.0173108
0.150992
-0.0163552
0.152
-0.0153571
0.152929
-0.0143402
0.153783
-0.0133197
0.154571
-0.0123062
0.155298
-0.0113023
0.155968
-0.0103083
0.156584
-0.00932366
0.157148
-0.00834748
0.157661
-0.00737903
0.158124
-0.00641795
0.158538
-0.00546427
0.158903
-0.00451834
0.15922
-0.00358075
0.159488
-0.00265224
0.159709
-0.00173372
0.159883
-0.000826192
6.79392e-05
0.144952
-0.0194297
-0.143646
0.146158
-0.0185161
0.147243
-0.0174401
0.148231
-0.0163459
0.149129
-0.0152373
0.149946
-0.014137
0.150696
-0.013056
0.151386
-0.0119926
0.152021
-0.0109438
0.152605
-0.00990735
0.153139
-0.00888125
0.153624
-0.00786389
0.15406
-0.00685446
0.154449
-0.00585281
0.15479
-0.00485922
0.155083
-0.00387427
0.15533
-0.00289876
0.15553
-0.00193375
0.155684
-0.000980272
-4.02741e-05
0.141473
-0.0208924
-0.14001
0.142708
-0.0197512
0.14377
-0.0185028
0.144718
-0.0172932
0.145567
-0.0160868
0.146337
-0.0149066
0.147042
-0.0137615
0.147692
-0.0126429
0.148292
-0.0115436
0.148844
-0.010459
0.149349
-0.00938581
0.149806
-0.00832176
0.150218
-0.00726576
0.150582
-0.0062176
0.150901
-0.00517761
0.151173
-0.00414645
0.151399
-0.003125
0.15158
-0.00211445
0.151716
-0.00111631
-0.000132159
0.138357
-0.136955
-0.0222942
0.139505
-0.0208994
0.140528
-0.0195259
0.141398
-0.018163
0.142181
-0.0168703
0.1429
-0.0156255
0.143561
-0.0144226
0.144173
-0.0132543
0.144739
-0.0121097
0.145261
-0.0109808
0.145738
-0.00986316
0.14617
-0.00875435
0.146558
-0.00765331
0.1469
-0.00655996
0.147198
-0.00547482
0.14745
-0.00439871
0.147657
-0.00333263
0.147821
-0.00227762
0.14794
-0.00123528
-0.000212852
0.0303058
0.111454
-0.109994
-0.0317657
0.0288197
0.114497
-0.113011
0.0273049
0.117676
-0.116161
0.0257576
0.121014
-0.119466
0.0241745
0.124542
-0.122959
0.0225527
0.128303
-0.126681
0.0208899
0.132354
-0.130691
0.0191848
0.136773
-0.135068
0.0174365
0.141663
-0.139915
0.0156451
0.147152
-0.145361
0.0138124
0.153399
-0.151567
0.0119423
0.160587
-0.158717
0.0100436
0.168914
-0.167015
0.00813263
0.178564
-0.176653
0.00623886
0.189657
-0.187764
0.00441167
0.20216
-0.200332
0.00272969
0.215741
-0.214059
0.0013117
0.229562
-0.228144
0.000324563
0.241874
-0.240887
0.249596
-0.249272
0.0301315
0.112907
-0.031585
0.028652
0.115977
0.0271439
0.119184
0.0256036
0.122554
0.0240277
0.126118
0.0224132
0.129918
0.0207579
0.13401
0.01906
0.138471
0.0173187
0.143404
0.0155342
0.148937
0.0137081
0.155225
0.011845
0.162451
0.00995394
0.170805
0.0080523
0.180466
0.00617057
0.191539
0.00435965
0.203971
0.00269962
0.217401
0.00130872
0.230953
0.000348571
0.242834
0.249945
0.0299156
0.114352
-0.0313604
0.0284448
0.117447
0.0269457
0.120683
0.0254146
0.124085
0.0238481
0.127685
0.0222431
0.131523
0.0205974
0.135655
0.018909
0.14016
0.017177
0.145136
0.0154016
0.150712
0.0135847
0.157042
0.0117309
0.164304
0.00985
0.172686
0.00796002
0.182356
0.00609246
0.193407
0.00429922
0.205764
0.00266087
0.219039
0.00129404
0.23232
0.000351901
0.243776
0.250297
0.0296596
0.115786
-0.0310935
0.0281998
0.118907
0.0267118
0.122171
0.025192
0.125605
0.0236368
0.12924
0.0220434
0.133116
0.0204092
0.137289
0.0187324
0.141836
0.0170119
0.146857
0.0152479
0.152476
0.0134423
0.158848
0.0116002
0.166146
0.00973168
0.174555
0.00785551
0.184232
0.00600398
0.195258
0.00422971
0.207538
0.00261343
0.220655
0.00127009
0.233663
0.000347105
0.244699
0.250644
0.0293658
0.117207
-0.030787
0.0279188
0.120354
0.0264438
0.123646
0.024937
0.127112
0.0233952
0.130782
0.0218151
0.134696
0.0201944
0.13891
0.0185311
0.1435
0.016824
0.148564
0.0150734
0.154227
0.0132813
0.16064
0.0114529
0.167975
0.00959897
0.176409
0.00773871
0.186092
0.0059052
0.197092
0.00415173
0.209292
0.00255904
0.222248
0.00124046
0.234982
0.000338463
0.245601
0.250982
0.0290366
0.118614
-0.0304435
0.027604
0.121787
0.0261435
0.125107
0.0246515
0.128604
0.0231244
0.132309
0.0215594
0.136261
0.0199538
0.140516
0.0183057
0.145148
0.016614
0.150256
0.0148786
0.155962
0.013102
0.162417
0.0112894
0.169787
0.00945208
0.178246
0.00760985
0.187934
0.0057965
0.198905
0.00406589
0.211022
0.0024987
0.223815
0.00120649
0.236274
0.000327139
0.24648
0.251309
0.0286747
0.120006
-0.0300662
0.0272577
0.123204
0.025813
0.126552
0.0243369
0.13008
0.022826
0.13382
0.0212774
0.13781
0.0196884
0.142105
0.0180571
0.146779
0.0163823
0.15193
0.014664
0.15768
0.0129047
0.164176
0.01111
0.171582
0.00929129
0.180065
0.00746921
0.189756
0.00567816
0.200696
0.00397254
0.212728
0.00243282
0.225355
0.00116875
0.237538
0.000313841
0.247335
0.251623
0.028283
0.121381
-0.0296585
0.0268823
0.124604
0.0254541
0.12798
0.0239949
0.131539
0.0225013
0.135313
0.0209702
0.139341
0.0193991
0.143676
0.0177859
0.148392
0.0161295
0.153587
0.01443
0.15938
0.0126898
0.165916
0.0109148
0.173357
0.00911687
0.181863
0.00731706
0.191556
0.00555047
0.202463
0.00387197
0.214406
0.00236176
0.226865
0.00112774
0.238772
0.000299168
0.248164
0.251922
0.0278642
0.122741
-0.0292237
0.02648
0.125989
0.0250688
0.129391
0.023627
0.132981
0.0221513
0.136789
0.0206386
0.140853
0.0190864
0.145228
0.0174927
0.149986
0.0158562
0.155223
0.014177
0.161059
0.0124577
0.167636
0.0107043
0.17511
0.00892905
0.183638
0.00715362
0.193332
0.00541367
0.204203
0.00376448
0.216055
0.0022859
0.228344
0.00108396
0.239974
0.000283536
0.248964
0.252206
0.0274211
0.124085
-0.0287652
0.0260529
0.127357
0.0246586
0.130785
0.0232344
0.134405
0.0217769
0.138246
0.0202834
0.142347
0.018751
0.14676
0.0171779
0.151559
0.0155625
0.156839
0.0139052
0.162716
0.0122084
0.169332
0.0104785
0.17684
0.00872802
0.185388
0.0069791
0.195081
0.00526801
0.205914
0.00365034
0.217673
0.00220557
0.229789
0.00103775
0.241142
0.00026719
0.249735
0.252473
0.026956
0.125415
-0.0282862
0.0256027
0.12871
0.0242245
0.132163
0.0228176
0.135812
0.0213787
0.139685
0.0199047
0.143821
0.018393
0.148272
0.0168415
0.153111
0.0152487
0.158431
0.0136147
0.16435
0.0119422
0.171005
0.0102376
0.178545
0.00851393
0.187112
0.00679369
0.196801
0.0051137
0.207594
0.00352984
0.219257
0.00212107
0.231197
0.000989392
0.242273
0.00025029
0.250474
0.252723
0.0264704
0.126734
-0.0277892
0.0251302
0.13005
0.0237669
0.133527
0.0223769
0.137202
0.0209564
0.141106
0.0195024
0.145275
0.0180122
0.149762
0.0164834
0.15464
0.0149144
0.16
0.0133054
0.165959
0.011659
0.172651
0.0099817
0.180222
0.00828686
0.188807
0.00659753