/*--------------------------------*- C++ -*----------------------------------*\
| =========                 |                                                 |
| \\      /  F ield         | OpenFOAM: The Open Source CFD Toolbox           |
|  \\    /   O peration     | Version:  v1912                                 |
|   \\  /    A nd           | Website:  www.openfoam.com                      |
|    \\/     M anipulation  |                                                 |
\*---------------------------------------------------------------------------*/
FoamFile
{
    version     2.0;
    format      ascii;
    class       surfaceScalarField;
    location    "22.5";
    object      phi;
}
// * * * * * * * * * * * * * * * * * * * * * * * * * * * * * * * * * * * * * //

dimensions      [0 3 -1 0 0 0 0];
oriented        oriented;


internalField   nonuniform List<scalar> 
18940
(
0.000342775
-0.234642
0.234299
0.00132364
-0.216808
0.215827
0.00277034
-0.205282
0.203836
0.00451779
-0.197406
0.195659
0.00644002
-0.191508
0.189585
0.00843912
-0.186551
0.184552
0.0104441
-0.181967
0.179962
0.0124075
-0.177468
0.175504
0.0143005
-0.172934
0.171041
0.0161085
-0.168339
0.166532
0.0178268
-0.163704
0.161985
0.019458
-0.159068
0.157437
0.021009
-0.154479
0.152928
0.0224892
-0.149978
0.148498
0.0239096
-0.145601
0.14418
0.0252813
-0.141369
0.139997
0.0266156
-0.137294
0.13596
0.0279227
-0.133373
0.132066
0.0292106
-0.129586
0.128298
-0.125893
0.124619
0.0304843
0.000365872
-0.235008
0.00136644
-0.217809
0.00282377
-0.20674
0.00457606
-0.199159
0.00649384
-0.193425
0.00847923
-0.188537
0.0104624
-0.18395
0.0123975
-0.179403
0.0142573
-0.174794
0.0160289
-0.170111
0.0177094
-0.165384
0.0193024
-0.160661
0.0208158
-0.155992
0.0222596
-0.151422
0.0236451
-0.146986
0.0249841
-0.142708
0.0262878
-0.138598
0.0275668
-0.134652
0.0288297
-0.130849
-0.127145
0.0300822
0.00038704
-0.235395
0.00140367
-0.218825
0.00286988
-0.208206
0.00462342
-0.200912
0.00653329
-0.195335
0.00850147
-0.190505
0.0104594
-0.185908
0.0123627
-0.181306
0.0141863
-0.176618
0.0159189
-0.171844
0.0175591
-0.167024
0.0191118
-0.162214
0.0205857
-0.157466
0.0219915
-0.152828
0.0233408
-0.148336
0.0246456
-0.144013
0.0259173
-0.13987
0.027167
-0.135902
0.0284036
-0.132085
-0.128375
0.0296336
0.000400689
-0.235795
0.00143229
-0.219857
0.00290672
-0.20968
0.00465913
-0.202664
0.00655788
-0.197234
0.00850545
-0.192453
0.0104347
-0.187837
0.0123031
-0.183174
0.0140876
-0.178402
0.0157787
-0.173535
0.0173764
-0.168622
0.0188869
-0.163724
0.0203197
-0.158899
0.0216861
-0.154194
0.0229979
-0.149647
0.0242673
-0.145282
0.025506
-0.141108
0.0267252
-0.137121
0.0279344
-0.133295
-0.129582
0.0291412
0.000411783
-0.236207
0.00145568
-0.220901
0.00293563
-0.21116
0.00468381
-0.204413
0.00656804
-0.199118
0.00849157
-0.194376
0.0103888
-0.189734
0.0122194
-0.185005
0.013962
-0.180145
0.0156091
-0.175182
0.0171622
-0.170175
0.0186288
-0.165191
0.0200189
-0.160289
0.0213445
-0.15552
0.0226177
-0.150921
0.0238506
-0.146515
0.0250552
-0.142313
0.0262429
-0.138309
0.027424
-0.134476
-0.130765
0.0286067
0.000420748
-0.236628
0.00147425
-0.221954
0.00295686
-0.212643
0.00469767
-0.206153
0.00656403
-0.200985
0.00846016
-0.196272
0.0103222
-0.191596
0.0121119
-0.186795
0.01381
-0.181843
0.0154109
-0.176783
0.0169175
-0.171682
0.0183384
-0.166612
0.0196845
-0.161635
0.020968
-0.156804
0.0222014
-0.152154
0.0233967
-0.14771
0.0245662
-0.143482
0.0257215
-0.139464
0.0268734
-0.135628
-0.131923
0.0280313
0.000428151
-0.237056
0.00148868
-0.223015
0.00297096
-0.214125
0.00470118
-0.207884
0.00654633
-0.20283
0.00841177
-0.198138
0.0102356
-0.19342
0.0119815
-0.188541
0.0136327
-0.183494
0.015185
-0.178335
0.0166432
-0.17314
0.0180167
-0.167985
0.0193173
-0.162936
0.0205575
-0.158044
0.0217498
-0.153346
0.0229065
-0.148867
0.0240397
-0.144616
0.0251614
-0.140586
0.0262831
-0.136749
-0.133055
0.0274153
0.000434149
-0.23749
0.00149927
-0.22408
0.00297833
-0.215604
0.00469479
-0.2096
0.00651546
-0.20465
0.00834701
-0.199969
0.0101295
-0.195203
0.0118291
-0.19024
0.0134307
-0.185096
0.0149325
-0.179837
0.0163403
-0.174548
0.0176648
-0.16931
0.0189184
-0.164189
0.0201139
-0.159239
0.0212638
-0.154496
0.0223805
-0.149984
0.0234761
-0.145711
0.0245629
-0.141672
0.0256532
-0.13784
-0.13416
0.0267585
0.000438847
-0.237929
0.00150632
-0.225147
0.00297939
-0.217077
0.00467901
-0.2113
0.00647205
-0.206443
0.00826664
-0.201764
0.010005
-0.196941
0.0116555
-0.191891
0.0132054
-0.186646
0.0146544
-0.181286
0.01601
-0.175904
0.0172837
-0.170583
0.0184886
-0.165394
0.0196379
-0.160388
0.0207441
-0.155602
0.0218192
-0.151059
0.0228756
-0.146768
0.0239258
-0.142723
0.0249829
-0.138897
-0.135237
0.0260599
0.000442316
-0.238371
0.00151011
-0.226215
0.00297459
-0.218542
0.00465447
-0.21298
0.00641686
-0.208206
0.00817156
-0.203518
0.00986304
-0.198632
0.011462
-0.19349
0.0129578
-0.188141
0.014352
-0.18268
0.0156534
-0.177205
0.0168746
-0.171805
0.0180291
-0.166549
0.0191304
-0.16149
0.020191
-0.156663
0.0212227
-0.152091
0.0222378
-0.147783
0.0232492
-0.143734
0.0242709
-0.139918
-0.136284
0.0253175
0.000444661
-0.238816
0.00151096
-0.227281
0.0029645
-0.219995
0.00462189
-0.214637
0.00635079
-0.209935
0.00806286
-0.205231
0.00970487
-0.200274
0.0112499
-0.195035
0.0126894
-0.189581
0.0140268
-0.184017
0.0152721
-0.17845
0.0164388
-0.172971
0.017541
-0.167651
0.0185923
-0.162541
0.0196051
-0.157676
0.0205911
-0.153077
0.0215624
-0.148754
0.0225321
-0.144704
0.0235153
-0.140902
-0.137297
0.0245286
0.000446033
-0.239262
0.00150931
-0.228345
0.00294977
-0.221436
0.00458213
-0.216269
0.00627491
-0.211628
0.00794178
-0.206897
0.00953194
-0.201865
0.0110208
-0.196524
0.012402
-0.190962
0.0136805
-0.185296
0.0148678
-0.179638
0.0159779
-0.174081
0.0170256
-0.168699
0.0180246
-0.16354
0.0189871
-0.158638
0.0199246
-0.154014
0.0208488
-0.149678
0.0217731
-0.145628
0.0227139
-0.141842
-0.138273
0.02369
0.000446709
-0.239709
0.00150576
-0.229404
0.00293122
-0.222861
0.00453622
-0.217874
0.00619045
-0.213282
0.00780981
-0.208517
0.00934595
-0.203401
0.0107767
-0.197954
0.0120977
-0.192283
0.0133155
-0.186514
0.0144426
-0.180765
0.0154941
-0.175133
0.0164849
-0.16969
0.0174288
-0.164484
0.0183379
-0.159547
0.0192234
-0.1549
0.0200967
-0.150551
0.0209711
-0.146503
0.0218644
-0.142736
-0.139207
0.0227979
0.000447162
-0.240156
0.00150116
-0.230458
0.00290989
-0.22427
0.00448536
-0.21945
0.00609884
-0.214895
0.0076686
-0.210086
0.00914883
-0.204881
0.0105197
-0.199325
0.0117788
-0.193542
0.0129341
-0.187669
0.0139994
-0.18183
0.01499
-0.176124
0.0159212
-0.170621
0.0168069
-0.165369
0.017659
-0.160399
0.0184882
-0.155729
0.0193054
-0.151369
0.020124
-0.147321
0.0209628
-0.143574
-0.14009
0.0218461
0.000448189
-0.240604
0.00149666
-0.231506
0.00288696
-0.22566
0.00443087
-0.220994
0.00600162
-0.216466
0.00752
-0.211605
0.00894276
-0.206304
0.0102524
-0.200635
0.0114482
-0.194738
0.0125398
-0.188761
0.0135415
-0.182832
0.0144692
-0.177051
0.0153383
-0.17149
0.0161624
-0.166194
0.0169531
-0.16119
0.0177205
-0.156496
0.0184748
-0.152123
0.0192291
-0.148075
0.0200029
-0.144348
-0.140913
0.0208262
0.000450931
-0.241055
0.00149355
-0.232549
0.00286361
-0.22703
0.00437407
-0.222504
0.00590042
-0.217992
0.00736601
-0.21307
0.00873015
-0.207668
0.00997755
-0.201882
0.0111094
-0.19587
0.0121364
-0.189788
0.0130734
-0.183769
0.0139368
-0.177915
0.0147416
-0.172295
0.015501
-0.166953
0.0162259
-0.161915
0.0169256
-0.157196
0.017609
-0.152806
0.0182882
-0.148755
0.018984
-0.145044
-0.141664
0.0197351
0.000456772
-0.241512
0.00149312
-0.233585
0.00284112
-0.228378
0.00431647
-0.22398
0.00579704
-0.219473
0.00720874
-0.214482
0.00851351
-0.208973
0.00969829
-0.203067
0.0107659
-0.196937
0.011728
-0.19075
0.0126002
-0.184641
0.0133983
-0.178713
0.0141373
-0.173034
0.0148296
-0.167645
0.0154854
-0.162571
0.0161125
-0.157823
0.0167186
-0.153412
0.0173137
-0.14935
0.0179187
-0.145649
-0.142319
0.0185735
0.000468038
-0.24198
0.00149798
-0.234615
0.00282194
-0.229702
0.00426015
-0.225418
0.00569337
-0.220906
0.00705024
-0.215839
0.00829531
-0.210218
0.00941769
-0.204189
0.0104217
-0.197941
0.0113198
-0.191648
0.0121276
-0.185449
0.0128606
-0.179446
0.0135327
-0.173706
0.0141554
-0.168268
0.0147374
-0.163153
0.015286
-0.158372
0.0158073
-0.153934
0.016308
-0.14985
0.0168012
-0.146142
-0.14283
0.0173125
0.000492314
-0.242472
0.00151537
-0.235638
0.00281011
-0.230997
0.00420696
-0.226815
0.00559059
-0.22229
0.00689184
-0.21714
0.00807747
-0.211403
0.00913859
-0.205251
0.0100809
-0.198884
0.0109174
-0.192484
0.0116635
-0.186195
0.0123339
-0.180116
0.0129406
-0.174313
0.0134923
-0.16882
0.0139948
-0.163655
0.0144513
-0.158828
0.0148635
-0.154346
0.0152304
-0.150217
0.0155564
-0.146468
-0.143178
0.0159044
0.0005497
-0.243022
0.00155365
-0.236642
0.00280533
-0.232249
0.00415566
-0.228165
0.00548816
-0.223622
0.00673388
-0.218386
0.00786122
-0.212531
0.00886316
-0.206253
0.00974687
-0.199767
0.0105262
-0.193264
0.0112166
-0.186885
0.0118319
-0.180732
0.0123824
-0.174863
0.0128736
-0.169311
0.0133051
-0.164087
0.0136698
-0.159193
0.0139511
-0.154627
0.0141229
-0.150389
0.0141791
-0.146524
-0.143341
0.0143417
0.250491
0.000406055
-0.250897
0.250112
0.000379469
0.24974
0.000371929
0.249368
0.000371839
0.248993
0.000374615
0.248614
0.00037884
0.248231
0.000383794
0.247842
0.000388901
0.247448
0.000393769
0.24705
0.000398186
0.246648
0.000402053
0.246242
0.000405344
0.245834
0.000408043
0.245424
0.000410122
0.245013
0.000411454
0.244601
0.00041183
0.244191
0.000410201
0.243785
0.000406014
0.243395
0.000390072
0.000372648
0.252054
0.000999253
-0.252647
0.251426
0.00100733
0.250771
0.00102739
0.250089
0.00105342
0.249383
0.00108091
0.248653
0.00110841
0.247902
0.00113546
0.247129
0.00116157
0.246337
0.00118629
0.245525
0.00120938
0.244697
0.00123072
0.243852
0.00125027
0.242992
0.00126802
0.242118
0.00128397
0.241232
0.00129796
0.240334
0.00130979
0.239425
0.00131834
0.238508
0.00132333
0.23758
0.00131845
0.00131031
0.250534
0.00155603
-0.251091
0.249914
0.00162781
0.249241
0.00169977
0.248522
0.0017729
0.247758
0.0018449
0.246952
0.00191446
0.246106
0.00198125
0.245222
0.00204504
0.244303
0.00210557
0.24335
0.00216268
0.242364
0.00221631
0.241348
0.0022665
0.240303
0.00231331
0.23923
0.00235685
0.238131
0.00239711
0.237006
0.00243413
0.235857
0.00246736
0.234684
0.00249704
0.233481
0.00252079
0.00254278
0.246229
0.00198828
-0.246662
0.245729
0.00212833
0.245165
0.00226372
0.244542
0.00239598
0.243862
0.00252453
0.243128
0.00264848
0.242342
0.0027675
0.241506
0.00288141
0.240621
0.00299007
0.23969
0.00309338
0.238715
0.00319135
0.237698
0.00328409
0.236639
0.0033718
0.235541
0.00345473
0.234405
0.00353315
0.233232
0.00360738
0.232022
0.00367752
0.230775
0.00374417
0.229489
0.00380662
0.00386682
0.239861
0.00226099
-0.240134
0.239519
0.00247082
0.239108
0.00267386
0.238633
0.00287101
0.238096
0.00306231
0.237497
0.00324723
0.236839
0.00342542
0.236124
0.00359668
0.235353
0.00376088
0.234528
0.00391796
0.233652
0.00406799
0.232725
0.00421113
0.231749
0.00434769
0.230725
0.00447811
0.229656
0.00460291
0.22854
0.00472274
0.22738
0.00483819
0.226174
0.00495019
0.224921
0.00505888
0.00516589
0.232195
0.0023823
-0.232317
0.232005
0.00266122
0.231747
0.0029322
0.231422
0.0031956
0.231033
0.00345151
0.23058
0.00369957
0.230066
0.00393943
0.229492
0.00417085
0.228859
0.00439368
0.22817
0.00460786
0.227424
0.00481347
0.226624
0.00501075
0.225772
0.00520009
0.224868
0.0053821
0.223913
0.00555754
0.222909
0.00572741
0.221854
0.00589273
0.22075
0.00605485
0.219594
0.00621459
0.00637376
0.223913
0.00238163
-0.223912
0.223847
0.00272717
0.223715
0.00306404
0.223519
0.00339221
0.223258
0.00371164
0.222936
0.00402203
0.222552
0.004323
0.222109
0.00461427
0.221607
0.00489565
0.221048
0.00516705
0.220433
0.00542855
0.219763
0.00568041
0.21904
0.00592313
0.218265
0.00615744
0.217438
0.00638437
0.21656
0.00660525
0.215631
0.00682157
0.214651
0.00703519
0.213618
0.00724761
0.00746093
0.215525
0.00229394
-0.215437
0.215549
0.00270268
0.215511
0.00310217
0.215411
0.00349213
0.21525
0.00387238
0.21503
0.00424257
0.214751
0.0046023
0.214414
0.00495122
0.21402
0.00528908
0.213571
0.00561576
0.213069
0.00593129
0.212513
0.00623596
0.211906
0.00653029
0.211248
0.00681516
0.210541
0.00709184
0.209784
0.00736202
0.208978
0.00762773
0.208122
0.00789143
0.207214
0.0081554
0.00842229
0.207367
0.00215151
-0.207225
0.20745
0.0026198
0.207474
0.00307826
0.20744
0.0035265
0.207348
0.0039642
0.2072
0.00439093
0.206996
0.00480624
0.206737
0.0052097
0.206425
0.00560098
0.206061
0.00597989
0.205646
0.00634641
0.205181
0.00670078
0.204668
0.00704355
0.204108
0.00737569
0.203501
0.00769869
0.202848
0.0080146
0.20215
0.00832608
0.201405
0.00863631
0.200612
0.00894864
0.00926652
0.199636
0.00198055
-0.199465
0.199751
0.00250491
0.19981
0.00301889
0.199815
0.00352197
0.199765
0.00401373
0.199663
0.00449365
0.199508
0.00496119
0.199302
0.00541584
0.199045
0.00585718
0.19874
0.0062849
0.198388
0.00669891
0.197989
0.00709934
0.197546
0.00748672
0.19706
0.00786202
0.196532
0.00822694
0.195962
0.00858384
0.195352
0.00893612
0.194701
0.00928782
0.194006
0.00964375
0.0100086
0.192422
0.00180042
-0.192242
0.192549
0.00237784
0.192624
0.00294431
0.192646
0.0034992
0.192618
0.00404196
0.19254
0.00457199
0.192412
0.00508867
0.192237
0.00559137
0.192014
0.00607956
0.191746
0.0065528
0.191435
0.00701084
0.19108
0.00745367
0.190685
0.0078817
0.190251
0.00829583
0.189781
0.00869787
0.189274
0.00909038
0.188732
0.00947765
0.188156
0.00986458
0.187541
0.0102581
0.0106647
0.185748
0.00162429
-0.185572
0.185874
0.00225232
0.185949
0.00286883
0.185975
0.003473
0.185953
0.00406421
0.185883
0.00464176
0.185767
0.00520492
0.185605
0.00575296
0.1854
0.00628519
0.185151
0.00680103
0.184862
0.00730001
0.184534
0.0077819
0.184169
0.00824691
0.183769
0.00869567
0.183337
0.00913002
0.182875
0.00955249
0.182384
0.0099684
0.181865
0.0103833
0.181316
0.0108075
0.0112491
0.179596
0.00146037
-0.179432
0.179711
0.00213723
0.179778
0.00280184
0.179798
0.00345329
0.179771
0.0040909
0.179699
0.00471387
0.179583
0.00532137
0.179423
0.00591252
0.179222
0.00648651
0.17898
0.00704252
0.1787
0.00757987
0.178384
0.00809799
0.178034
0.00859677
0.177654
0.00907638
0.177245
0.00953855
0.176812
0.00998525
0.176358
0.0104231
0.175883
0.0108576
0.175387
0.0113043
0.0117726
0.173925
0.00131352
-0.173778
0.174025
0.00203773
0.174078
0.00274891
0.174085
0.00344612
0.174047
0.00412855
0.173966
0.0047953
0.173842
0.00544544
0.173676
0.00607797
0.173471
0.0066919
0.173227
0.00728619
0.172947
0.00785988
0.172633
0.00841199
0.172288
0.00894196
0.171915
0.00944924
0.171518
0.00993521
0.171103
0.0104006
0.170673
0.0108536
0.170233
0.0112976
0.169779
0.0117578
0.0122409
0.168685
0.00118605
-0.168558
0.168766
0.00195654
0.168802
0.00271309
0.168794
0.00345481
0.168741
0.00418077
0.168647
0.00489
0.168511
0.00558144
0.168335
0.00625399
0.16812
0.00690647
0.167869
0.00753761
0.167582
0.00814612
0.167264
0.00873056
0.166916
0.00928978
0.166543
0.00982224
0.16615
0.0103287
0.165743
0.0108075
0.165327
0.011269
0.164914
0.0117104
0.164499
0.0121735
0.0126527
0.163823
0.00107882
-0.163716
0.163885
0.00189454
0.163903
0.00269544
0.163877
0.00348059
0.163809
0.00424901
0.163699
0.00499961
0.163549
0.00573126
0.163361
0.00644271
0.163134
0.00713263
0.162873
0.00779951
0.162577
0.00844173
0.16225
0.00905733
0.161895
0.0096445
0.161517
0.0102005
0.161121
0.0107249
0.160716
0.0112127
0.160308
0.0116764
0.159918
0.0121007
0.159537
0.0125549
0.0129965
0.159288
0.000991386
-0.1592
0.159331
0.00185129
0.159331
0.00269558
0.159288
0.00352317
0.159204
0.00433302
0.15908
0.00512395
0.158916
0.00589476
0.158715
0.00664409
0.158477
0.00737045
0.158205
0.00807212
0.157899
0.00874714
0.157563
0.00939311
0.157201
0.0100075
0.156815
0.010586
0.156413
0.0111271
0.156005
0.0116205
0.155601
0.0120809
0.15523
0.0124714
0.154878
0.0129069
0.0132471
0.155034
0.000921892
-0.154964
0.15506
0.00182534
0.155043
0.00271189
0.154986
0.0035808
0.154888
0.00443092
0.154751
0.005261
0.154576
0.00606978
0.154364
0.00685582
0.154117
0.00761749
0.153836
0.00835291
0.153523
0.00905985
0.153181
0.00973547
0.152812
0.0103766
0.15242
0.0109776
0.152012
0.0115351
0.1516
0.0120326
0.151196
0.0124854
0.150845
0.0128219
0.150517
0.0132351
0.0133751
0.151019
0.000868566
-0.150965
0.15103
0.00181389
0.151001
0.00274125
0.150931
0.00365
0.150824
0.00453881
0.150678
0.00540642
0.150496
0.00625155
0.150279
0.0070727
0.150029
0.00786813
0.149746
0.00863583
0.149432
0.0093734
0.14909
0.0100777
0.148722
0.010745
0.148331
0.0113687
0.147922
0.011944
0.147507
0.0124472
0.147099
0.0128934
0.146769
0.0131521
0.146481
0.0135231
0.0133316
0.147204
-0.147165
0.000829667
0.147205
0.00181311
0.147167
0.00277936
0.147091
0.00372577
0.146979
0.00465094
0.146832
0.00555371
0.146651
0.00643279
0.146437
0.00728664
0.146191
0.00811345
0.145916
0.00891114
0.145612
0.00967725
0.145281
0.0104084
0.144925
0.011101
0.144547
0.0117471
0.144149
0.0123422
0.14374
0.0128565
0.143325
0.013308
0.14298
0.0134975
0.142727
0.013776
0.0127171
0.254018
7.35006e-05
-0.254092
0.253983
3.52837e-05
0.253952
3.08369e-05
0.253913
3.92105e-05
0.25386
5.3147e-05
0.253789
7.0496e-05
0.2537
8.99656e-05
0.253589
0.000110448
0.253458
0.000131138
0.253306
0.000151539
0.253135
0.000171217
0.252945
0.000189852
0.252738
0.000207784
0.252512
0.000225908
0.252269
0.000242994
0.252011
0.00025801
0.25174
0.000270432
0.25146
0.000280218
0.251178
0.000281545
0.000281316
0.25546
-0.000235836
-0.255151
0.255709
-0.000213947
0.255915
-0.000174892
0.256077
-0.000122913
0.256195
-6.45054e-05
0.256268
-2.3179e-06
0.256295
6.25101e-05
0.256277
0.000128884
0.256212
0.00019592
0.256101
0.000262769
0.255944
0.00032814
0.255743
0.000390919
0.2555
0.000450079
0.255213
0.000513166
0.254881
0.000574642
0.254509
0.000630822
0.254097
0.000682189
0.253648
0.000728792
0.253164
0.000765937
0.000797806
0.250679
-0.000878861
-0.250036
0.251251
-0.000785272
0.251758
-0.000681924
0.252204
-0.000568886
0.252589
-0.00044961
0.252913
-0.000326371
0.253176
-0.000200312
0.253378
-7.2914e-05
0.253518
5.57636e-05
0.253595
0.000185808
0.25361
0.000312852
0.253564
0.000436396
0.253456
0.000558729
0.253289
0.000680265
0.253065
0.000798628
0.252783
0.000912104
0.252446
0.00102006
0.252052
0.00112244
0.251601
0.00121733
0.00130754
0.242276
-0.00179319
-0.241362
0.243119
-0.00162847
0.243894
-0.00145659
0.244602
-0.00127674
0.245243
-0.00109053
0.245816
-0.000899767
0.246322
-0.00070579
0.246759
-0.000509849
0.247127
-0.00031263
0.247425
-0.000111699
0.247651
8.63144e-05
0.247811
0.000276099
0.247902
0.000468198
0.247925
0.000657288
0.247881
0.000842495
0.24777
0.00102295
0.247592
0.00119776
0.247348
0.00136652
0.247038
0.00152821
0.00168334
0.232177
-0.00290089
-0.23107
0.233219
-0.00266965
0.234193
-0.00243099
0.235101
-0.00218446
0.235941
-0.00193091
0.236713
-0.0016718
0.237416
-0.00140854
0.238048
-0.00114235
0.23861
-0.000874165
0.239103
-0.000604768
0.239526
-0.000337096
0.239876
-7.30724e-05
0.240154
0.000189667
0.240362
0.000449132
0.2405
0.000705044
0.240567
0.000956016
0.240563
0.00120122
0.24049
0.00144001
0.240346
0.00167157
0.00189584
0.22163
-0.00413174
-0.220399
0.222799
-0.00383882
0.223905
-0.00353693
0.224946
-0.00322618
0.225923
-0.00290732
0.226833
-0.00258175
0.227675
-0.00225101
0.22845
-0.00191654
0.229155
-0.00157976
0.229792
-0.00124201
0.23036
-0.000904776
0.230856
-0.00056942
0.231283
-0.000236776
0.231641
9.13576e-05
0.231929
0.000416881
0.232146
0.000738831
0.232293
0.00105403
0.232371
0.00136256
0.232378
0.00166382
0.00195753
0.211392
-0.00542987
-0.210094
0.212633
-0.00507943
0.213814
-0.00471791
0.214933
-0.00434592
0.21599
-0.00396445
0.216984
-0.00357506
0.217912
-0.00317953
0.218775
-0.00277958
0.219572
-0.00237681
0.220303
-0.00197268
0.220967
-0.00156856
0.221563
-0.00116587
0.222092
-0.000765392
0.222551
-0.000367816
0.22295
1.80563e-05
0.223277
0.000411555
0.223537
0.000794361
0.223729
0.00117018
0.223854
0.00153874
0.00189959
0.201863
-0.00675476
-0.200538
0.203133
-0.00635008
0.204347
-0.00593194
0.205503
-0.00550132
0.206598
-0.00505964
0.207632
-0.00460884
0.208603
-0.00415103
0.209512
-0.00368818
0.210357
-0.00322209
0.211139
-0.00275438
0.211857
-0.0022865
0.212511
-0.00181982
0.213101
-0.00135542
0.213627
-0.000894323
0.214083
-0.000437991
0.214487
8.16962e-06
0.21482
0.000461548
0.215089
0.000900484
0.215295
0.00133295
0.00175762
0.193197
-0.00807939
-0.191872
0.19447
-0.00762301
0.195688
-0.0071505
0.19685
-0.00666313
0.197953
-0.00616297
0.198997
-0.00565255
0.199981
-0.00513439
0.200903
-0.00461077
0.201765
-0.00408373
0.202565
-0.00355502
0.203305
-0.00302616
0.203984
-0.00249851
0.204602
-0.00197325
0.205159
-0.00145131
0.205655
-0.000934102
0.206086
-0.000422812
0.206464
8.36977e-05
0.206778
0.000586471
0.207031
0.00107907
0.00156395
0.185403
-0.00938747
-0.184095
0.186661
-0.00888138
0.187867
-0.00835599
0.189017
-0.00781293
0.190109
-0.00725525
0.191143
-0.00668631
0.192118
-0.00610911
0.193033
-0.00552629
0.193889
-0.00494013
0.194687
-0.0043525
0.195426
-0.00376497
0.196106
-0.00317885
0.196728
-0.00259531
0.197292
-0.00201531
0.197798
-0.00143988
0.198245
-0.000869912
0.198635
-0.000306171
0.19897
0.000251777
0.199246
0.000802852
0.00134459
0.178414
-0.0106705
-0.17713
0.179649
-0.0101165
0.180832
-0.00953905
0.181959
-0.00894054
0.18303
-0.00832557
0.184042
-0.00769852
0.184996
-0.00706299
0.185891
-0.006422
0.186729
-0.00577805
0.18751
-0.0051331
0.188234
-0.0044887
0.188901
-0.00384611
0.189512
-0.00320643
0.190067
-0.00257059
0.190567
-0.00193947
0.191011
-0.00131393
0.191399
-0.000694521
0.191735
-8.4067e-05
0.192016
0.000522372
0.00111837
0.172128
-0.0119256
-0.170873
0.173337
-0.0113254
0.174494
-0.0106961
0.175595
-0.0100416
0.176638
-0.0093689
0.177624
-0.00868359
0.17855
-0.00798991
0.17942
-0.00729131
0.180232
-0.00659048
0.180989
-0.00588938
0.181689
-0.00518948
0.182335
-0.00449195
0.182926
-0.00379779
0.183464
-0.00310786
0.183947
-0.00242298
0.184377
-0.00174397
0.184754
-0.00107161
0.185078
-0.000407468
0.185352
0.000248483
0.000898162
0.166441
-0.0131536
-0.165213
0.167625
-0.0125097
0.168757
-0.0118278
0.169831
-0.0111158
0.170847
-0.0103843
0.171803
-0.00963998
0.172701
-0.00888784
0.173541
-0.00813177
0.174325
-0.00737456
0.175054
-0.00661808
0.175728
-0.00586365
0.176349
-0.00511231
0.176916
-0.0043649
0.17743
-0.00362222
0.177892
-0.002885
0.178302
-0.00215407
0.178661
-0.00142995
0.178967
-0.000713378
0.179226
-1.11544e-05
0.000692224
0.161256
-0.0143582
-0.160052
0.16242
-0.0136739
0.16353
-0.0129376
0.16458
-0.0121656
0.165569
-0.0113734
0.166498
-0.0105686
0.167367
-0.00975707
0.168178
-0.0089432
0.168934
-0.00812972
0.169634
-0.00731828
0.17028
-0.00650998
0.170873
-0.00570562
0.171414
-0.00490588
0.171904
-0.00411143
0.172341
-0.00332294
0.172729
-0.00254118
0.173065
-0.00176682
0.173353
-0.00100122
0.173588
-0.000246187
0.000502215
0.156493
-0.015546
-0.155305
0.157645
-0.0148257
0.158738
-0.014031
0.159768
-0.0131952
0.160733
-0.0123389
0.161636
-0.0114711
0.162477
-0.0105985
0.16326
-0.00972598
0.163986
-0.00885599
0.164658
-0.00798979
0.165276
-0.00712809
0.165841
-0.00627137
0.166356
-0.00542007
0.166819
-0.00457469
0.167232
-0.00373583
0.167595
-0.00290419
0.167909
-0.00208058
0.168173
-0.00126596
0.168389
-0.000461489
0.000333008
0.15209
-0.0167294
-0.150906
0.153239
-0.0159753
0.154323
-0.0151147
0.155336
-0.0142088
0.156281
-0.013283
0.157157
-0.0123478
0.15797
-0.0114117
0.158724
-0.0104794
0.159421
-0.00955267
0.160063
-0.008632
0.160652
-0.00771754
0.16119
-0.00680926
0.161677
-0.00590727
0.162115
-0.00501187
0.162502
-0.00412353
0.162841
-0.00324291
0.163131
-0.00237078
0.163373
-0.001508
0.163568
-0.000655822
0.000184694
0.148002
-0.0179369
-0.146795
0.149164
-0.0171373
0.150244
-0.0161943
0.151243
-0.0152086
0.152164
-0.014204
0.153012
-0.0131955
0.153794
-0.0121935
0.154515
-0.0112009
0.155181
-0.0102178
0.155792
-0.00924365
0.156352
-0.00827765
0.156862
-0.00731907
0.157322
-0.00636759
0.157734
-0.00542327
0.158097
-0.00448649
0.158412
-0.00355782
0.158679
-0.00263807
0.158899
-0.00172813
0.159072
-0.000829029
5.66341e-05
0.1442
-0.0192314
-0.142906
0.145395
-0.0183322
0.146471
-0.0172698
0.147451
-0.0161888
0.148341
-0.0150936
0.149151
-0.0140063
0.149896
-0.0129378
0.150581
-0.0118863
0.151212
-0.010849
0.151792
-0.00982364
0.152323
-0.00880821
0.152805
-0.00780116
0.153239
-0.00680174
0.153626
-0.00580983
0.153965
-0.00482575
0.154257
-0.00385008
0.154503
-0.00288365
0.154702
-0.00192755
0.154856
-0.000982849
-5.15112e-05
0.140698
-0.0206807
-0.139249
0.141921
-0.0195555
0.142974
-0.0183227
0.143913
-0.017128
0.144756
-0.0159363
0.14552
-0.0147703
0.146221
-0.0136385
0.146867
-0.0125327
0.147464
-0.0114454
0.148012
-0.0103723
0.148514
-0.00931023
0.14897
-0.00825686
0.149379
-0.0072112
0.149743
-0.0061731
0.15006
-0.00514292
0.150331
-0.00412135
0.150557
-0.00310928
0.150737
-0.00210793
0.150873
-0.00111881
-0.000143575
0.137556
-0.136169
-0.0220679
0.138693
-0.0206916
0.139706
-0.0193366
0.14057
-0.0179916
0.141349
-0.0167149
0.142063
-0.0154851
0.142721
-0.0142963
0.14333
-0.0131412
0.143893
-0.0120091
0.144413
-0.010892
0.144889
-0.00978572
0.14532
-0.00868786
0.145706
-0.00759741
0.146047
-0.00651437
0.146343
-0.00543929
0.146595
-0.00437301
0.146802
-0.00331656
0.146965
-0.00227102
0.147085
-0.00123802
-0.000224378
0.0298512
0.110931
-0.109492
-0.03129
0.0283873
0.11401
-0.112546
0.0268956
0.117226
-0.115734
0.0253725
0.120603
-0.11908
0.0238144
0.124173
-0.122615
0.0222184
0.127976
-0.12638
0.0205822
0.132071
-0.130434
0.0189042
0.136533
-0.134855
0.0171835
0.141464
-0.139743
0.0154201
0.146992
-0.145229
0.0136156
0.153272
-0.151468
0.0117738
0.160485
-0.158643
0.0099033
0.168825
-0.166954
0.00802021
0.178474
-0.176591
0.0061535
0.18955
-0.187683
0.0043519
0.20202
-0.200218
0.00269299
0.21556
-0.213901
0.00129407
0.229348
-0.22795
0.000319838
0.241665
-0.240691
0.249476
-0.249156
0.0296902
0.112365
-0.0311235
0.0282319
0.115468
0.026746
0.118712
0.025229
0.12212
0.0236772
0.125725
0.0220876
0.129566
0.0204579
0.1337
0.0187863
0.138205
0.0170718
0.143179
0.0153145
0.148749
0.013516
0.155071
0.0116805
0.162321
0.00981706
0.170688
0.00794269
0.180348
0.00608747
0.191405
0.0043016
0.203805
0.0026641
0.217198
0.0012917
0.230721
0.000344061
0.242612
0.24982
0.0294877
0.11379
-0.0309133
0.0280373
0.116918
0.0265595
0.12019
0.0250507
0.123629
0.0235073
0.127268
0.0219264
0.131147
0.0203054
0.135321
0.0186424
0.139867
0.0169365
0.144885
0.0151875
0.150498
0.0133974
0.156861
0.0115706
0.164147
0.00971663
0.172542
0.00785332
0.182211
0.00601169
0.193247
0.00424292
0.205574
0.00262654
0.218814
0.00127768
0.23207
0.000347619
0.243542
0.250167
0.0292455
0.115206
-0.0306611
0.027805
0.118359
0.0263374
0.121657
0.0248389
0.125128
0.023306
0.128801
0.0217358
0.132717
0.0201255
0.136932
0.0184732
0.14152
0.0167779
0.14658
0.0150395
0.152237
0.01326
0.15864
0.0114442
0.165963
0.00960195
0.174385
0.00775183
0.184062
0.00592563
0.195073
0.00417526
0.207325
0.00258037
0.220409
0.00125445
0.233396
0.000343063
0.244454
0.25051
0.0289654
0.11661
-0.0303693
0.0275369
0.119787
0.0260813
0.123113
0.024595
0.126614
0.0230745
0.130321
0.0215167
0.134275
0.019919
0.138529
0.0182794
0.143159
0.0165967
0.148263
0.014871
0.153962
0.0131041
0.160407
0.0113014
0.167766
0.00947302
0.176213
0.00763816
0.185896
0.00582937
0.196882
0.00409919
0.209055
0.00252729
0.221981
0.00122554
0.234697
0.00033466
0.245345
0.250845
0.02865
0.118
-0.0300405
0.027235
0.121202
0.0257931
0.124555
0.0243206
0.128086
0.022814
0.131828
0.0212703
0.135819
0.0196869
0.140113
0.0180617
0.144785
0.0163934
0.149931
0.0146822
0.155674
0.0129301
0.162159
0.0111424
0.169554
0.00932999
0.178025
0.00751252
0.187714
0.00572325
0.198671
0.00401531
0.210763
0.00246829
0.223528
0.00119232
0.235973
0.000323583
0.246213
0.251169
0.028302
0.119376
-0.029678
0.0269016
0.122603
0.0254746
0.125982
0.0240172
0.129544
0.0225259
0.133319
0.0209977
0.137347
0.01943
0.14168
0.0178208
0.146394
0.0161686
0.151583
0.0144737
0.157369
0.0127381
0.163895
0.0109675
0.171324
0.00917315
0.17982
0.00737516
0.189512
0.00560755
0.200438
0.00392395
0.212446
0.00240377
0.225048
0.00115533
0.237222
0.000310535
0.247058
0.251479
0.027924
0.120737
-0.0292849
0.0265391
0.123988
0.0251277
0.127393
0.0236863
0.130985
0.0222114
0.134794
0.0206999
0.138858
0.0191492
0.143231
0.0175573
0.147986
0.0159228
0.153218
0.0142459
0.159046
0.0125287
0.165612
0.0107771
0.173076
0.00900273
0.181594
0.00722635
0.191288
0.00548254
0.202182
0.00382541
0.214103
0.00233409
0.226539
0.00111509
0.238441
0.000296115
0.247877
0.251775
0.0275189
0.122083
-0.0288645
0.0261495
0.125357
0.0247543
0.128788
0.0233295
0.13241
0.0218716
0.136252
0.0203777
0.140352
0.0188452
0.144764
0.0172719
0.149559
0.0156565
0.154833
0.0139991
0.160703
0.012302
0.167309
0.0105713
0.174807
0.00881897
0.183346
0.00706629
0.193041
0.00534846
0.2039
0.00371997
0.215732
0.00225962
0.228
0.00107207
0.239628
0.000280739
0.248669
0.252056
0.0270892
0.123414
-0.0284203
0.0257351
0.126711
0.0243559
0.130168
0.0229478
0.133818
0.0215074
0.137692
0.0200318
0.141828
0.0185184
0.146277
0.0169648
0.151113
0.0153698
0.156428
0.0137335
0.162339
0.0120583
0.168984
0.0103503
0.176514
0.00862204
0.185075
0.0068952
0.194768
0.00520555
0.20559
0.00360792
0.21733
0.00218071
0.229427
0.00102664
0.240782
0.00026465
0.249431
0.252321
0.0266373
0.124732
-0.0279553
0.0252973
0.128051
0.0239334
0.131532
0.0225419
0.13521
0.0211192
0.139115
0.0196625
0.143284
0.0181688
0.147771
0.0166361
0.152645
0.0150629
0.158001
0.0134493
0.163953
0.0117976
0.170636
0.0101143
0.178198
0.00841209
0.186777
0.00671325
0.196467
0.00505402
0.207249
0.00348952
0.218894
0.00209764
0.230819
0.000979071
0.241901
0.000248005
0.250162
0.252569
0.0261644
0.126039
-0.0274718
0.0248368
0.129379
0.0234872
0.132881
0.0221117
0.136585
0.0207068
0.14052
0.0192693
0.144722
0.0177964
0.149244
0.0162857
0.154156
0.0147356
0.159551
0.0131462
0.165542
0.0115199
0.172262
0.0098632
0.179854
0.00818919
0.188451
0.00652057