/*--------------------------------*- C++ -*----------------------------------*\
| =========                 |                                                 |
| \\      /  F ield         | OpenFOAM: The Open Source CFD Toolbox           |
|  \\    /   O peration     | Version:  v1912                                 |
|   \\  /    A nd           | Website:  www.openfoam.com                      |
|    \\/     M anipulation  |                                                 |
\*---------------------------------------------------------------------------*/
FoamFile
{
    version     2.0;
    format      ascii;
    class       volVectorField;
    location    "22.5";
    object      U;
}
// * * * * * * * * * * * * * * * * * * * * * * * * * * * * * * * * * * * * * //

dimensions      [0 1 -1 0 0 0 0];


internalField   nonuniform List<vector> 
9600
(
(0.456881 -9.37327 -1.53227e-19)
(0.158942 -8.65288 0)
(0.238939 -8.18085 -8.97591e-20)
(0.314827 -7.85824 0)
(0.379244 -7.61753 0)
(0.444781 -7.41647 -3.14612e-20)
(0.507563 -7.23172 -5.24353e-22)
(0.564539 -7.05145 2.62233e-20)
(0.614974 -6.87049 0)
(0.658906 -6.68747 -4.44062e-20)
(0.696714 -6.50302 0)
(0.729002 -6.31862 -1.80725e-21)
(0.756481 -6.13602 -2.59044e-21)
(0.779879 -5.95686 -3.09247e-20)
(0.799895 -5.78245 2.60309e-20)
(0.817156 -5.61372 -2.55745e-20)
(0.832194 -5.45109 2.27368e-20)
(0.845539 -5.29444 0)
(0.857962 -5.14299 -1.80508e-20)
(0.869159 -4.99524 1.98082e-20)
(0.825215 -9.36223 -3.06302e-19)
(0.50208 -8.67941 1.17921e-20)
(0.565264 -8.223 1.84921e-19)
(0.629505 -7.90955 -1.57276e-19)
(0.684718 -7.67329 1.55105e-19)
(0.742015 -7.47272 0)
(0.79674 -7.28577 5.99559e-20)
(0.845513 -7.10166 -5.97796e-20)
(0.887526 -6.91602 -1.03562e-19)
(0.922869 -6.72803 1.3074e-19)
(0.952031 -6.53869 -8.48643e-20)
(0.975733 -6.34974 -3.45534e-20)
(0.994794 -6.16308 6.97939e-20)
(1.01003 -5.98039 0)
(1.02219 -5.80302 0)
(1.03195 -5.63189 9.74705e-20)
(1.03985 -5.46738 -1.65225e-19)
(1.04642 -5.30932 0)
(1.05253 -5.15681 0)
(1.0576 -5.00826 -7.62288e-20)
(1.19384 -9.33764 6.32767e-19)
(0.847368 -8.69305 0)
(0.89498 -8.25245 -3.73712e-19)
(0.948293 -7.9483 -3.38342e-19)
(0.994596 -7.71649 0)
(1.04363 -7.51639 5.39399e-19)
(1.09008 -7.32727 -5.08959e-19)
(1.13032 -7.13946 9.96022e-20)
(1.16352 -6.94934 -2.21758e-19)
(1.18987 -6.75666 -3.68142e-19)
(1.21001 -6.56278 5.02009e-19)
(1.22478 -6.36968 -3.10146e-19)
(1.23512 -6.17935 -1.38821e-19)
(1.24194 -5.99356 0)
(1.24605 -5.81366 5.44127e-21)
(1.24815 -5.64053 1.0278e-19)
(1.24878 -5.47455 4.434e-20)
(1.24851 -5.31547 0)
(1.24825 -5.1623 8.03331e-20)
(1.24709 -5.01335 8.236e-20)
(1.56165 -9.29912 -8.55703e-19)
(1.19421 -8.69353 -4.00264e-19)
(1.22753 -8.26903 3.88426e-19)
(1.27063 -7.97419 6.65963e-19)
(1.30831 -7.74679 -3.23099e-19)
(1.34905 -7.54714 5.60134e-21)
(1.38699 -7.35591 2.50244e-19)
(1.41834 -7.16453 2.26419e-19)
(1.44234 -6.97019 4.14174e-19)
(1.45932 -6.77314 0)
(1.47007 -6.57511 1.59063e-19)
(1.4756 -6.37828 -1.68973e-19)
(1.47695 -6.18474 1.02621e-20)
(1.47513 -5.99629 2.65784e-19)
(1.47101 -5.81429 2.27442e-19)
(1.46532 -5.63959 -3.20971e-19)
(1.4586 -5.47254 1.05694e-19)
(1.45142 -5.31285 -1.71788e-19)
(1.44478 -5.15939 1.70969e-19)
(1.43734 -5.01048 -8.23996e-20)
(1.92834 -9.24662 4.31451e-19)
(1.54233 -8.68071 0)
(1.56252 -8.27246 3.80956e-19)
(1.59601 -7.9869 0)
(1.62529 -7.76384 0)
(1.65767 -7.56462 -2.96467e-19)
(1.68684 -7.37137 -5.29717e-19)
(1.70897 -7.17662 -4.48367e-19)
(1.72339 -6.97832 1.83772e-20)
(1.73063 -6.77728 -1.9343e-19)
(1.73165 -6.57552 0)
(1.72764 -6.37541 -1.59427e-19)
(1.71976 -6.17913 -2.86974e-19)
(1.70911 -5.98849 2.52048e-19)
(1.69661 -5.80483 -7.16013e-19)
(1.68302 -5.629 1.15881e-19)
(1.66888 -5.4613 9.16371e-20)
(1.65479 -5.30139 -1.89022e-19)
(1.64176 -5.14804 -8.25051e-20)
(1.628 -4.9996 2.46015e-19)
(2.29335 -9.18005 4.15795e-19)
(1.89122 -8.65437 4.11544e-19)
(1.89942 -8.26248 0)
(1.92389 -7.98613 0)
(1.94496 -7.76733 -6.16117e-19)
(1.96888 -7.56854 3.37222e-19)
(1.98902 -7.37336 8.09431e-19)
(2.00157 -7.17546 0)
(2.00604 -6.97355 2.13419e-19)
(2.00318 -6.76891 1.9343e-19)
(1.99417 -6.56388 -3.41221e-19)
(1.98034 -6.36097 4.9477e-19)
(1.96302 -6.16244 1.45025e-19)
(1.94337 -5.9701 0)
(1.92238 -5.78525 1.20525e-19)
(1.90081 -5.60872 5.40427e-19)
(1.87921 -5.4408 -3.22031e-19)
(1.8582 -5.28107 3.61319e-19)
(1.83883 -5.12821 -6.8687e-19)
(1.81876 -4.98069 7.94292e-19)
(2.65618 -9.0994 4.22699e-19)
(2.24038 -8.61433 -2.23701e-18)
(2.23771 -8.23884 0)
(2.25369 -7.97159 0)
(2.2667 -7.75695 0)
(2.28204 -7.55861 -5.97015e-19)
(2.29287 -7.36165 0)
(2.29549 -7.16087 -9.54884e-19)
(2.28966 -6.9557 8.80251e-19)
(2.27636 -6.7479 -8.16896e-19)
(2.25702 -6.54008 0)
(2.23315 -6.33489 0)
(2.2062 -6.13462 0)
(2.17741 -5.94107 -2.75382e-19)
(2.14782 -5.75552 0)
(2.11822 -5.57875 0)
(2.08914 -5.41101 -4.03208e-19)
(2.06124 -5.25187 3.96164e-19)
(2.03559 -5.0999 0)
(2.00923 -4.95375 0)
(3.01626 -9.00467 -1.37528e-18)
(2.58926 -8.56041 8.90277e-19)
(2.57681 -8.2013 0)
(2.58479 -7.94301 0)
(2.58987 -7.73246 0)
(2.59648 -7.53461 5.67679e-19)
(2.59771 -7.33604 -5.69207e-19)
(2.59007 -7.13266 -8.60154e-21)
(2.57359 -6.92464 -8.8083e-19)
(2.54955 -6.71415 8.24469e-19)
(2.51961 -6.50406 -3.71467e-19)
(2.48549 -6.29713 6.45204e-19)
(2.44875 -6.09566 -4.5936e-20)
(2.41072 -5.90141 -5.83174e-19)
(2.37247 -5.71564 -4.90819e-19)
(2.3348 -5.53907 4.82215e-19)
(2.29825 -5.37195 0)
(2.26349 -5.21379 0)
(2.23164 -5.0631 3.48074e-19)
(2.19906 -4.91878 -3.83356e-19)
(3.37304 -8.89589 9.19134e-19)
(2.9373 -8.4925 8.73704e-19)
(2.91613 -8.14965 -1.6552e-18)
(2.91657 -7.90018 7.81429e-19)
(2.9138 -7.69363 0)
(2.91152 -7.49632 6.0743e-19)
(2.90287 -7.29634 -5.32409e-19)
(2.88462 -7.09072 1.50401e-18)
(2.85717 -6.88027 -2.34461e-20)
(2.8221 -6.66761 0)
(2.78133 -6.45579 7.49415e-19)
(2.73678 -6.24766 0)
(2.69012 -6.04554 0)
(2.64276 -5.85113 -2.66453e-19)
(2.59581 -5.66562 5.37638e-19)
(2.55006 -5.48971 0)
(2.50605 -5.32363 4.20876e-19)
(2.4645 -5.16686 1.74923e-19)
(2.42654 -5.01783 -3.79933e-19)
(2.38784 -4.87581 3.68856e-19)
(3.72598 -8.77313 -9.46027e-19)
(3.28391 -8.4105 8.8764e-19)
(3.25505 -8.08374 -2.52657e-18)
(3.24838 -7.84289 7.94118e-19)
(3.23781 -7.64027 0)
(3.22647 -7.44358 -1.22512e-18)
(3.20764 -7.24244 5.8844e-19)
(3.17847 -7.03494 0)
(3.13974 -6.82254 -4.66061e-19)
(3.09337 -6.60823 -8.07435e-19)
(3.04158 -6.39525 -7.02657e-19)
(2.98644 -6.18651 5.29104e-20)
(2.92976 -5.98428 6.57005e-19)
(2.87302 -5.79025 2.66239e-19)
(2.81734 -5.60551 -3.74496e-20)
(2.76352 -5.43072 -5.01175e-19)
(2.71209 -5.26609 -2.23947e-19)
(2.66381 -5.1111 -2.01787e-19)
(2.61984 -4.96412 5.37844e-19)
(2.57514 -4.82487 -8.02097e-19)
(4.0745 -8.63648 9.46029e-19)
(3.6285 -8.31434 -4.64202e-20)
(3.59295 -8.00342 8.11431e-19)
(3.57955 -7.77098 0)
(3.56121 -7.57222 -6.70525e-19)
(3.54062 -7.37626 1.28819e-18)
(3.51133 -7.17424 -1.09929e-18)
(3.47092 -6.96526 1.08178e-18)
(3.42062 -6.75141 -4.37339e-19)
(3.36274 -6.53601 8.88277e-19)
(3.29973 -6.32246 3.84229e-19)
(3.23389 -6.11369 0)
(3.16712 -5.91194 0)
(3.10096 -5.71881 -2.76017e-19)
(3.03655 -5.53534 3.7848e-20)
(2.97468 -5.36213 9.86593e-19)
(2.91587 -5.19938 -2.44076e-19)
(2.86093 -5.04656 8.05049e-19)
(2.81108 -4.902 1.40506e-19)
(2.76053 -4.76599 -8.19214e-19)
(4.41805 -8.48605 -2.90929e-18)
(3.97047 -8.204 -9.74923e-19)
(3.92918 -7.9086 -2.59803e-18)
(3.9094 -7.68434 -1.57876e-18)
(3.8833 -7.48937 -7.48348e-19)
(3.85326 -7.29428 -7.31312e-19)
(3.81321 -7.09168 -2.38326e-18)
(3.76129 -6.88166 -4.85233e-20)
(3.69917 -6.66689 -1.91146e-18)
(3.62955 -6.45098 3.01047e-20)
(3.55519 -6.23746 -7.9226e-19)
(3.47855 -6.02925 -7.21402e-19)
(3.40165 -5.82856 6.58077e-19)
(3.32606 -5.63689 -6.01421e-19)
(3.25292 -5.45518 -5.50654e-19)
(3.18303 -5.284 -5.05079e-19)
(3.11689 -5.12355 -1.35521e-18)
(3.05537 -4.97327 4.82405e-19)
(2.99975 -4.83151 1.16916e-18)
(2.94352 -4.69921 -1.24479e-18)
(4.75609 -8.32199 3.91247e-18)
(4.30924 -8.07948 4.79944e-18)
(4.2631 -7.79922 8.23435e-19)
(4.23724 -7.58289 3.94229e-18)
(4.20335 -7.39166 -7.72034e-19)
(4.16365 -7.1976 3.85339e-18)
(4.11259 -6.99475 1.12581e-18)
(4.04887 -6.78416 3.15902e-18)
(3.9747 -6.56902 -9.65073e-19)
(3.89318 -6.35319 2.6699e-18)
(3.80736 -6.14031 1.59571e-18)
(3.71986 -5.93328 1.45316e-18)
(3.6328 -5.73422 -1.96582e-18)
(3.54778 -5.54454 1.84071e-18)
(3.46595 -5.36511 1.10978e-18)
(3.38807 -5.19641 1.01816e-18)
(3.31464 -5.03866 9.3572e-19)
(3.24661 -4.8913 7.19871e-21)
(3.18533 -4.75271 7.9356e-19)
(3.12365 -4.62459 8.26058e-19)
(5.0881 -8.14445 -2.90428e-18)
(4.64421 -7.94082 1.06927e-18)
(4.59406 -7.67524 2.64129e-18)
(4.56239 -7.46656 -3.2158e-18)
(4.52065 -7.27905 7.43026e-19)
(4.47109 -7.0862 -2.57745e-18)
(4.40875 -6.88347 1.26269e-18)
(4.33299 -6.6728 -2.1133e-18)
(4.24657 -6.45786 4.84815e-20)
(4.15301 -6.24273 1.15999e-20)
(4.05563 -6.0311 -1.61755e-18)
(3.95724 -5.82584 -7.31758e-19)
(3.86002 -5.62899 1.34456e-18)
(3.76559 -5.44185 8.53401e-21)
(3.6751 -5.26517 -3.66402e-20)
(3.58927 -5.09941 -1.06296e-18)
(3.50859 -4.94477 -4.71653e-19)
(3.43411 -4.8007 -2.6665e-20)
(3.36728 -4.66564 -8.27262e-19)
(3.30036 -4.54222 -4.17172e-19)
(5.41358 -7.95364 0)
(4.97481 -7.78808 -1.97503e-18)
(4.92142 -7.53666 2.2995e-20)
(4.88413 -7.33536 3.20948e-18)
(4.83449 -7.15155 1.34124e-18)
(4.77486 -6.96013 -1.39678e-18)
(4.70098 -6.75792 -1.20181e-18)
(4.61296 -6.54768 0)
(4.51414 -6.33352 -9.54683e-19)
(4.40844 -6.1197 9.10783e-19)
(4.29946 -5.90994 -3.85646e-20)
(4.19016 -5.70704 0)
(4.0828 -5.51296 -6.76859e-19)
(3.97899 -5.32886 5.8556e-19)
(3.87986 -5.15542 4.88572e-19)
(3.78609 -4.99303 -5.90793e-19)
(3.69816 -4.84188 -5.12058e-19)
(3.61721 -4.70145 8.88386e-19)
(3.54484 -4.5703 -8.19538e-19)
(3.47281 -4.45217 4.31475e-19)
(5.73205 -7.74972 2.99868e-18)
(5.30045 -7.62133 -2.03372e-18)
(5.24452 -7.38351 -1.73295e-18)
(5.20178 -7.18932 8.05966e-19)
(5.14413 -7.00921 -1.5638e-18)
(5.07422 -6.81947 0)
(4.9886 -6.61819 0)
(4.88814 -6.40893 0)
(4.77678 -6.19614 -4.39221e-20)
(4.65887 -5.98425 -1.82769e-18)
(4.53828 -5.77695 8.6287e-19)
(4.41811 -5.577 7.28782e-19)
(4.30065 -5.38621 6.15888e-19)
(4.18751 -5.20566 -2.52846e-18)
(4.07977 -5.03591 1.19835e-18)
(3.97806 -4.87727 0)
(3.88284 -4.72995 -2.9903e-20)
(3.79532 -4.59348 -1.37815e-18)
(3.71724 -4.46659 -5.58553e-21)
(3.64008 -4.3541 -4.31935e-19)
(6.04317 -7.53297 -2.04001e-18)
(5.62061 -7.44072 -1.07205e-18)
(5.56268 -7.21587 8.05505e-19)
(5.51463 -7.0285 -1.43353e-19)
(5.44887 -6.85211 -4.55567e-18)
(5.36848 -6.66433 4.11942e-18)
(5.27092 -6.46443 -4.85983e-20)
(5.15787 -6.2567 1.12641e-18)
(5.03388 -6.0459 1.00999e-18)
(4.90375 -5.83654 9.26644e-19)
(4.77158 -5.6323 8.42673e-19)
(4.64059 -5.43584 1.5048e-18)
(4.5131 -5.24886 -7.24182e-19)
(4.39071 -5.07232 1.87515e-18)
(4.27442 -4.90668 -1.21214e-18)
(4.16481 -4.75221 -5.00821e-19)
(4.06228 -4.6091 2.01186e-18)
(3.96809 -4.47691 1.34328e-18)
(3.88419 -4.35442 -2.74429e-20)
(3.80211 -4.24735 0)
(6.34691 -7.3039 -1.03694e-18)
(5.93489 -7.24642 2.04805e-18)
(5.87526 -7.03378 1.79032e-18)
(5.82193 -6.85296 -1.45267e-19)
(5.74796 -6.68036 -1.54546e-18)
(5.65691 -6.49485 7.00322e-20)
(5.54723 -6.29683 1.27869e-20)
(5.42149 -6.09119 1.14008e-20)
(5.28486 -5.88298 0)
(5.14253 -5.67676 9.0593e-19)
(4.99885 -5.47614 -1.72415e-18)
(4.85712 -5.28368 -7.37016e-19)
(4.7197 -5.10097 7.31637e-19)
(4.58811 -4.92886 -6.41409e-19)
(4.4633 -4.76774 5.93744e-19)
(4.34577 -4.61784 -5.40246e-19)
(4.23592 -4.47938 4.80893e-21)
(4.13514 -4.35177 -4.58583e-19)
(4.04566 -4.23372 -4.23471e-19)
(3.95943 -4.13272 -4.23788e-19)
(6.64362 -7.06296 0)
(6.24305 -7.03838 -9.97827e-19)
(6.18161 -6.83718 9.86377e-19)
(6.12296 -6.66277 1.71835e-18)
(6.04066 -6.49413 -1.55362e-18)
(5.9388 -6.31128 1.34063e-18)
(5.81689 -6.11565 -2.57728e-18)
(5.67842 -5.91271 -2.28645e-18)
(5.52917 -5.7077 -9.96417e-19)
(5.37474 -5.50519 4.38644e-20)
(5.21968 -5.30871 -8.24022e-19)
(5.06736 -5.1207 3.44376e-20)
(4.9201 -4.94261 0)
(4.77932 -4.7752 -1.25787e-18)
(4.64584 -4.6188 6.42093e-19)
(4.52006 -4.4737 0)
(4.40242 -4.34 -5.0215e-19)
(4.2945 -4.2169 -9.02341e-19)
(4.19855 -4.10401 8.86641e-19)
(4.10714 -4.01368 4.376e-19)
(6.93289 -6.80938 0)
(6.54446 -6.81587 0)
(6.48102 -6.626 -1.82772e-18)
(6.41695 -6.45822 -1.5694e-18)
(6.32628 -6.29382 3.18626e-18)
(6.21353 -6.11404 0)
(6.07934 -5.92134 0)
(5.92814 -5.72169 1.14863e-18)
(5.76638 -5.52048 0)
(5.60003 -5.32224 0)
(5.43382 -5.13039 0)
(5.27117 -4.9472 0)
(5.1143 -4.77398 0)
(4.96451 -4.61135 0)
(4.82235 -4.45958 0)
(4.68794 -4.31885 0)
(4.56155 -4.18904 0)
(4.44425 -4.06951 0)
(4.33621 -3.96326 0)
(4.23142 -3.88722 0)
(10.0337 0.0876578 1.45303e-19)
(10.0136 -0.307359 2.82629e-19)
(9.97819 -0.69973 -2.90363e-19)
(9.92807 -1.08931 5.78947e-19)
(9.86298 -1.47577 -5.78946e-19)
(9.78278 -1.85859 -5.46781e-19)
(9.68757 -2.23725 -5.45275e-19)
(9.57757 -2.6112 1.71843e-18)
(9.453 -2.97988 -1.14491e-18)
(9.31411 -3.34274 1.13546e-18)
(9.1612 -3.69925 -1.13546e-18)
(8.99457 -4.04886 1.12719e-18)
(8.81453 -4.39106 -2.2356e-18)
(8.62145 -4.72535 3.29161e-18)
(8.41569 -5.05124 0)
(8.19763 -5.36827 -3.23479e-18)
(7.96766 -5.67605 1.58603e-20)
(7.72632 -5.97418 3.26113e-18)
(7.47369 -6.26254 0)
(7.21145 -6.54043 0)
(10.0942 -0.210957 0)
(10.0536 -0.606098 -1.4976e-20)
(9.99623 -0.997491 0)
(9.92284 -1.3848 5.53065e-19)
(9.83365 -1.76761 5.76199e-19)
(9.72883 -2.14531 -1.66709e-18)
(9.60869 -2.51727 2.90398e-18)
(9.47356 -2.88289 -1.14623e-18)
(9.32383 -3.24156 -1.09224e-18)
(9.15987 -3.5927 -1.08784e-18)
(8.9821 -3.93574 4.44112e-20)
(8.79095 -4.27014 1.11531e-18)
(8.58687 -4.59537 -5.5439e-18)
(8.37035 -4.91096 -1.16384e-18)
(8.14188 -5.21642 2.21572e-18)
(7.90195 -5.51134 2.21347e-18)
(7.65103 -5.79532 1.12512e-18)
(7.38971 -6.06804 -2.16853e-18)
(7.11807 -6.32923 1.02666e-18)
(6.83705 -6.57857 0)
(10.0339 -0.149963 1.30566e-19)
(9.99667 -0.540241 -2.67437e-19)
(9.94219 -0.927395 7.72045e-19)
(9.87081 -1.31074 -5.47254e-19)
(9.78292 -1.68962 -5.21572e-19)
(9.67886 -2.06334 5.44811e-19)
(9.55901 -2.43118 0)
(9.42375 -2.79245 0)
(9.27352 -3.1465 2.06808e-18)
(9.10874 -3.49267 3.08531e-18)
(8.92989 -3.83036 -9.75325e-19)
(8.73745 -4.15899 3.0511e-18)
(8.53194 -4.47798 -9.71267e-19)
(8.31389 -4.78682 -2.97192e-18)
(8.08384 -5.085 1.32283e-20)
(7.84235 -5.37207 1.9072e-18)
(7.58995 -5.64758 -8.60108e-19)
(7.32723 -5.91113 -1.87694e-18)
(7.05451 -6.16236 -1.01488e-18)
(6.77253 -6.40075 1.8451e-18)
(9.85987 -0.113712 0)
(9.82931 -0.494491 2.25181e-19)
(9.78159 -0.872968 2.24234e-19)
(9.71688 -1.24825 -9.21477e-19)
(9.63552 -1.61954 0)
(9.53785 -1.98607 0)
(9.4242 -2.34709 0)
(9.29497 -2.70186 0)
(9.15055 -3.04967 -9.75774e-19)
(8.99139 -3.38983 -9.7211e-19)
(8.81796 -3.72169 0)
(8.63075 -4.04462 1.83741e-18)
(8.43028 -4.358 -4.54265e-18)
(8.2171 -4.66127 3.65323e-18)
(7.99178 -4.95389 -3.54059e-18)
(7.75488 -5.23533 -8.59176e-19)
(7.50699 -5.5051 1.55481e-19)
(7.2487 -5.76275 1.53939e-19)
(6.98051 -6.00782 -1.75081e-18)
(6.70317 -6.23983 -7.07569e-20)
(9.60212 -0.100372 0)
(9.57879 -0.468786 -2.22078e-19)
(9.53872 -0.835538 0)
(9.482 -1.19973 4.44279e-19)
(9.40886 -1.56054 4.23362e-19)
(9.31959 -1.91717 3.86797e-19)
(9.21448 -2.26886 0)
(9.09388 -2.61485 0)
(8.95815 -2.95441 0)
(8.8077 -3.28683 0)
(8.64297 -3.61142 7.99374e-19)
(8.46444 -3.92753 8.61855e-19)
(8.2726 -4.23451 8.57111e-19)
(8.068 -4.53176 -8.7008e-19)
(7.85117 -4.81869 -1.49576e-18)
(7.62269 -5.09475 1.70023e-18)
(7.38314 -5.3594 3.29608e-18)
(7.13313 -5.61213 1.6032e-18)
(6.87324 -5.85245 0)
(6.60415 -6.07987 -1.51049e-18)
(9.2925 -0.0915461 4.55853e-20)
(9.27596 -0.445728 0)
(9.24332 -0.798806 -7.47128e-19)
(9.19459 -1.14993 1.82171e-23)
(9.12993 -1.49829 1.59959e-20)
(9.04955 -1.8431 -6.78155e-20)
(8.95373 -2.1836 0)
(8.84275 -2.51904 3.06134e-20)
(8.71693 -2.84869 -7.58604e-19)
(8.57664 -3.17182 1.47784e-18)
(8.42226 -3.48776 -1.54157e-18)
(8.25425 -3.79582 8.42838e-19)
(8.07305 -4.09536 -4.41357e-18)
(7.87918 -4.38576 2.91096e-18)
(7.67315 -4.66639 1.54401e-18)
(7.45551 -4.9367 0)
(7.22683 -5.1961 -2.84879e-18)
(6.9877 -5.44406 -6.11365e-20)
(6.7387 -5.68005 -2.80592e-18)
(6.48048 -5.90356 2.91768e-18)
(8.9587 -0.0866027 4.09668e-20)
(8.94767 -0.425769 -8.58521e-20)
(8.92128 -0.764289 7.04018e-19)
(8.87949 -1.10137 -1.3911e-20)
(8.82241 -1.43623 7.03871e-19)
(8.75022 -1.76811 -1.06319e-18)
(8.66312 -2.09626 0)
(8.56137 -2.41997 7.1682e-19)
(8.44524 -2.73852 6.55921e-19)
(8.31504 -3.0512 -7.12831e-19)
(8.17114 -3.35734 1.30338e-18)
(8.01392 -3.65626 2.76463e-18)
(7.84381 -3.94734 -1.28502e-18)
(7.66127 -4.22993 -1.39403e-18)
(7.46678 -4.50343 1.33635e-18)
(7.26086 -4.76724 0)
(7.04406 -5.02079 6.4246e-20)
(6.81693 -5.26351 9.5447e-21)
(6.58005 -5.49488 2.65735e-18)
(6.33401 -5.71432 1.23487e-18)
(8.62128 -0.0852198 0)
(8.61424 -0.40943 6.17995e-21)
(8.59259 -0.733331 -1.43065e-19)
(8.5563 -1.05618 -6.35823e-19)
(8.50544 -1.37724 5.97397e-19)
(8.44013 -1.69579 0)
(8.36056 -2.01113 1.21609e-18)
(8.26694 -2.32254 -1.33231e-21)
(8.15949 -2.62936 -1.85765e-18)
(8.03851 -2.9309 0)
(7.9043 -3.22651 -1.28263e-18)
(7.75722 -3.51555 4.54926e-20)
(7.59765 -3.79739 -3.6041e-18)
(7.42601 -4.07141 6.31616e-21)
(7.24277 -4.33702 1.20814e-18)
(7.0484 -4.59362 0)
(6.84342 -4.84063 -1.18594e-18)
(6.62836 -5.0775 8.47386e-21)
(6.40376 -5.30367 1.17748e-18)
(6.17017 -5.51856 -1.2152e-18)
(8.29371 -0.0860687 0)
(8.28925 -0.3959 1.46727e-19)
(8.27095 -0.705651 3.04492e-19)
(8.23874 -1.01463 -5.63311e-19)
(8.19268 -1.32214 -2.44237e-20)
(8.13288 -1.6275 -2.81525e-19)
(8.05948 -1.93005 -1.12701e-18)
(7.97267 -2.22912 5.6029e-19)
(7.87264 -2.52406 2.35357e-20)
(7.75965 -2.81424 5.56945e-19)
(7.63397 -3.09902 5.12423e-19)
(7.49593 -3.37781 2.22051e-18)
(7.34589 -3.64999 1.11074e-18)
(7.18423 -3.91498 2.19378e-18)
(7.01138 -4.17219 -1.09403e-18)
(6.82779 -4.42106 3.82441e-20)
(6.63395 -4.66101 -1.08117e-18)
(6.43037 -4.89149 0)
(6.21758 -5.11194 1.02176e-18)
(5.99607 -5.32176 0)
(7.98368 -0.0880535 6.38276e-20)
(7.98069 -0.384367 -1.86901e-19)
(7.96456 -0.680741 5.12734e-19)
(7.93523 -0.976527 -2.55783e-19)
(7.89274 -1.27107 1.87264e-20)
(7.83718 -1.56374 -2.55631e-19)
(7.76869 -1.85389 5.31597e-19)
(7.68741 -2.14092 -5.08616e-19)
(7.59353 -2.42421 5.08614e-19)
(7.48727 -2.70315 9.75245e-19)
(7.3689 -2.97716 -1.05147e-18)
(7.2387 -3.24566 -4.45166e-20)
(7.097 -3.50808 -3.04301e-18)
(6.94417 -3.76387 5.25798e-21)
(6.78061 -4.01247 3.97279e-20)
(6.60676 -4.25333 1.97266e-18)
(6.42308 -4.48591 -9.74427e-19)
(6.23007 -4.70965 -9.27924e-19)
(6.02823 -4.92401 -3.70647e-20)
(5.81805 -5.12837 0)
(7.69474 -0.0904468 0)
(7.69238 -0.374222 2.37363e-19)
(7.67753 -0.658132 -8.16042e-19)
(7.65014 -0.941567 -2.16394e-19)
(7.61023 -1.22392 4.84308e-19)
(7.55788 -1.50458 0)
(7.49322 -1.78296 0)
(7.41638 -2.05848 4.62792e-19)
(7.32752 -2.33056 -4.6279e-19)
(7.22686 -2.59864 3.89378e-19)
(7.11463 -2.86217 -4.59806e-19)
(6.9911 -3.1206 9.11831e-19)
(6.85659 -3.37341 -1.81915e-18)
(6.71143 -3.62007 1.80975e-18)
(6.55602 -3.86006 3.42362e-20)
(6.39078 -4.09288 -9.31075e-19)
(6.21618 -4.318 -8.85739e-19)
(6.03268 -4.53488 1.80459e-18)
(5.84081 -4.74297 8.44437e-19)
(5.64102 -4.94165 0)
(7.42769 -0.092783 1.84866e-21)
(7.4254 -0.365009 1.5573e-19)
(7.41121 -0.637397 3.27056e-19)
(7.38506 -0.909374 2.28992e-19)
(7.34698 -1.18037 2.12319e-19)
(7.29705 -1.4498 1.97422e-19)
(7.23537 -1.71713 0)
(7.16207 -1.9818 -8.16017e-19)
(7.07731 -2.24326 -4.2074e-19)
(6.98127 -2.501 3.58544e-19)
(6.87419 -2.7545 0)
(6.75631 -3.00325 8.30988e-19)
(6.62794 -3.24675 -2.4575e-18)
(6.4894 -3.48454 8.26729e-19)
(6.34107 -3.71613 0)
(6.18336 -3.94105 -7.85864e-19)
(6.01675 -4.15879 -1.58742e-18)
(5.84171 -4.36887 7.81018e-19)
(5.6588 -4.5707 -2.88435e-20)
(5.46844 -4.76368 0)
(7.1817 -0.0947666 3.40981e-21)
(7.17913 -0.356386 -1.00778e-19)
(7.16518 -0.618162 1.94437e-19)
(7.1398 -0.879556 -1.29076e-20)
(7.10302 -1.14002 3.88527e-19)
(7.05492 -1.39903 -5.9679e-19)
(6.99558 -1.65605 0)
(6.92514 -1.91056 5.51489e-20)
(6.84374 -2.16206 0)
(6.75156 -2.41005 -7.96664e-19)
(6.64881 -2.65405 0)
(6.53573 -2.89359 -7.3489e-19)
(6.41261 -3.12822 2.27178e-18)
(6.27976 -3.3575 -1.50535e-18)
(6.13756 -3.581 7.50501e-19)
(5.98641 -3.79829 -6.6351e-19)
(5.8268 -4.0089 7.67166e-19)
(5.65923 -4.21239 -7.61913e-19)
(5.48431 -4.40816 0)
(5.30248 -4.59559 0)
(6.95506 -0.0962756 4.60967e-20)
(6.95202 -0.348132 0)
(6.93806 -0.600128 0)
(6.91314 -0.851752 -3.69328e-19)
(6.87731 -1.10249 -3.44578e-19)
(6.83062 -1.35182 0)
(6.77317 -1.59926 0)
(6.70508 -1.84431 4.90196e-20)
(6.62649 -2.0865 6.82327e-19)
(6.53756 -2.32535 -3.28998e-19)
(6.43851 -2.56042 -3.5063e-19)
(6.32955 -2.79128 1.4165e-18)
(6.21096 -3.0175 -2.10327e-18)
(6.08304 -3.23871 1.35606e-18)
(5.94616 -3.45449 0)
(5.80071 -3.66451 2.72449e-18)
(5.64724 -3.86832 -1.97773e-18)
(5.48622 -4.06557 6.72901e-19)
(5.31843 -4.25559 1.28657e-18)
(5.14426 -4.43782 0)
(6.74574 -0.0972427 -3.96074e-20)
(6.74212 -0.340087 0)
(6.728 -0.583051 -5.12509e-21)
(6.70336 -0.825641 -3.16959e-19)
(6.66823 -1.06736 9.82278e-19)
(6.62269 -1.30773 -1.63395e-19)
(6.56681 -1.54627 0)
(6.50071 -1.78252 1.30158e-18)
(6.42452 -2.01602 -6.70379e-19)
(6.33842 -2.24634 4.3701e-20)
(6.24257 -2.47305 6.2106e-19)
(6.13721 -2.69575 6.36649e-19)
(6.02258 -2.91407 -1.26956e-18)
(5.89898 -3.12765 -1.24167e-18)
(5.76675 -3.33614 -1.21265e-18)
(5.62629 -3.5393 -1.29082e-18)
(5.47817 -3.73668 1.28198e-18)
(5.32289 -3.92814 -6.11825e-19)
(5.16145 -4.11284 -6.52214e-19)
(4.99414 -4.29044 0)
(6.55156 -0.097645 3.89132e-20)
(6.54733 -0.332146 -1.46078e-19)
(6.53299 -0.566738 -1.51242e-19)
(6.50853 -0.800946 4.52846e-19)
(6.47398 -1.0343 -1.60853e-19)
(6.42941 -1.26634 -1.50315e-19)
(6.3749 -1.4966 0)
(6.31056 -1.72466 -6.17903e-19)
(6.23651 -1.95006 0)
(6.15291 -2.17241 6.13091e-19)
(6.05993 -2.39131 -1.18125e-18)
(5.95778 -2.60638 5.84696e-19)
(5.84669 -2.81727 -1.16578e-18)
(5.72693 -3.02369 1.20317e-18)
(5.59883 -3.22533 6.55068e-19)
(5.46278 -3.42204 0)
(5.31936 -3.6134 -5.65046e-19)
(5.16905 -3.79959 5.65047e-19)
(5.01326 -3.97945 0)
(4.85199 -4.15332 0)
(6.37046 -0.0975659 0)
(6.36565 -0.324285 1.4352e-19)
(6.35109 -0.551063 4.63182e-21)
(6.32678 -0.777448 -1.47993e-19)
(6.29276 -1.00299 -1.30462e-19)
(6.24909 -1.22724 -1.38521e-19)
(6.19584 -1.44978 5.35334e-19)
(6.13312 -1.67017 0)
(6.06106 -1.88802 0)
(5.97978 -2.10292 2.72042e-19)
(5.88947 -2.3145 2.8904e-19)
(5.7903 -2.52241 1.04577e-18)
(5.68248 -2.72635 -5.3434e-19)
(5.56626 -2.92604 5.34338e-19)
(5.44193 -3.12123 5.67357e-19)
(5.30983 -3.31192 3.32656e-20)
(5.1706 -3.49764 -1.04158e-18)
(5.02459 -3.67914 3.73777e-21)
(4.87389 -3.85459 5.15082e-19)
(4.7177 -4.02593 0)
(6.20059 -0.0970098 -3.20717e-20)
(6.19525 -0.316473 3.20713e-20)
(6.18052 -0.53597 0)
(6.15639 -0.75506 1.2079e-19)
(6.1229 -0.973311 3.92392e-19)
(6.08011 -1.1903 -4.95884e-19)
(6.0281 -1.40562 -5.25983e-19)
(5.96697 -1.61886 0)
(5.89684 -1.82964 0)
(5.81783 -2.03757 0)
(5.7301 -2.24232 -9.70719e-19)
(5.63381 -2.44355 -6.28034e-20)
(5.52915 -2.64097 -4.92145e-19)
(5.41632 -2.83436 2.95495e-20)
(5.29558 -3.0235 -9.73173e-19)
(5.16717 -3.20851 1.48314e-18)
(5.03177 -3.38899 -1.40499e-18)
(4.88944 -3.56641 4.76945e-19)
(4.74333 -3.73797 9.14097e-19)
(4.59087 -3.90835 0)
(6.04027 -0.0956313 2.88116e-20)
(6.03451 -0.308514 0)
(6.01969 -0.521419 -1.18615e-19)
(5.9958 -0.733916 -2.44417e-19)
(5.96287 -0.945592 1.18463e-19)
(5.92098 -1.15604 9.45952e-19)
(5.8702 -1.36488 0)
(5.81061 -1.5717 -4.55542e-19)
(5.74234 -1.77616 -2.32981e-19)
(5.6655 -1.97789 -4.37655e-19)
(5.58022 -2.17656 -1.75043e-19)
(5.48666 -2.37187 -1.38167e-18)
(5.38497 -2.56354 -9.119e-19)
(5.27528 -2.75136 9.38081e-19)
(5.15785 -2.93517 8.9777e-19)
(5.03268 -3.11516 -3.83184e-21)
(4.90055 -3.29103 2.93113e-20)
(4.76077 -3.46521 4.39396e-19)
(4.6182 -3.63413 -8.98192e-19)
(4.46644 -3.80723 0)
(5.88793 -0.0939533 -6.02517e-20)
(5.88188 -0.300538 2.96611e-20)
(5.86711 -0.507213 -1.18499e-19)
(5.84361 -0.713591 1.18445e-19)
(5.81139 -0.919285 -3.4066e-19)
(5.7705 -1.12391 -1.06073e-18)
(5.721 -1.32709 0)
(5.66298 -1.52845 4.82039e-19)
(5.59652 -1.72766 -4.5069e-19)
(5.52171 -1.92436 9.5434e-19)
(5.43868 -2.11824 9.4862e-19)
(5.34751 -2.309 1.39749e-18)
(5.24835 -2.49638 -9.06741e-19)
(5.14124 -2.68017 4.51636e-19)
(5.0264 -2.8602 -4.44085e-19)
(4.9035 -3.03666 4.4411e-19)
(4.77357 -3.20932 0)
(4.63407 -3.3812 4.01958e-19)
(4.4936 -3.54846 -3.9323e-19)
(4.33776 -3.73227 0)
(7.13026 7.25213 0)
(7.40987 6.96275 0)
(7.67661 6.66381 1.0733e-18)
(7.9312 6.35581 1.97199e-20)
(8.17305 6.03848 -1.13612e-18)
(8.40151 5.71186 0)
(8.61617 5.37636 1.17193e-18)
(8.8167 5.0325 -2.21004e-18)
(9.00278 4.68087 -1.11675e-18)
(9.17412 4.32207 -1.12707e-18)
(9.33045 3.95672 1.12707e-18)
(9.47154 3.58547 -1.13886e-18)
(9.59722 3.20902 5.68105e-19)
(9.70728 2.82805 5.4186e-19)
(9.80157 2.44323 5.4396e-19)
(9.88001 2.05524 -5.77608e-19)
(9.94258 1.66472 5.77608e-19)
(9.98936 1.27237 -2.89958e-19)
(10.0203 0.878597 -1.37649e-19)
(10.0359 0.484741 7.2545e-20)
(7.39484 7.04893 0)
(7.67409 6.76021 -9.82233e-19)
(7.93959 6.45999 -2.10025e-18)
(8.19166 6.14896 3.10543e-18)
(8.43006 5.82742 -2.15378e-18)
(8.65429 5.49583 2.16364e-18)
(8.86386 5.15477 1.17678e-18)
(9.05837 4.8049 -3.33784e-18)
(9.23743 4.44692 1.09186e-18)
(9.40068 4.08153 2.16978e-18)
(9.54781 3.70945 1.06872e-18)
(9.67858 3.33142 1.07543e-18)
(9.79279 2.94825 -1.13517e-18)
(9.89027 2.56067 1.6711e-18)
(9.97076 2.16943 -2.31937e-18)
(10.0341 1.7754 5.72384e-19)
(10.0804 1.37937 -5.49799e-19)
(10.1096 0.982158 0)
(10.1217 0.584299 1.50851e-20)
(10.117 0.186763 0)
(7.2454 6.91864 -1.72855e-18)
(7.52707 6.64732 9.70996e-19)
(7.79624 6.36324 1.77462e-18)
(8.05248 6.06707 8.02554e-19)
(8.29538 5.75938 2.01277e-18)
(8.52441 5.44077 1.95183e-20)
(8.73906 5.1119 -1.00876e-18)
(8.93883 4.77347 -3.00516e-18)
(9.1233 4.42619 2.96636e-18)
(9.29202 4.07076 -3.04517e-18)
(9.4446 3.70793 -1.01438e-18)
(9.58075 3.33845 -2.02932e-18)
(9.70017 2.96314 0)
(9.80261 2.58277 0)
(9.88795 2.1982 0)
(9.95603 1.81033 -5.17142e-19)
(10.0067 1.41998 5.41846e-19)
(10.0399 1.02803 5.18797e-19)
(10.0555 0.635168 6.22889e-21)
(10.0536 0.24236 1.30295e-19)
(7.01528 6.66493 1.79559e-18)
(7.29343 6.41215 -1.62955e-18)
(7.56028 6.14637 -1.68189e-19)
(7.81513 5.86812 -1.69121e-19)
(8.0574 5.57797 4.23399e-18)
(8.28657 5.27653 -7.07776e-20)
(8.50209 4.96441 3.56641e-21)
(8.70342 4.64228 -2.67713e-18)
(8.89008 4.31079 1.76609e-18)
(9.06161 3.97064 0)
(9.21753 3.62258 9.47418e-19)
(9.35747 3.26745 9.53914e-19)
(9.48118 2.90603 0)
(9.58834 2.53911 0)
(9.67872 2.16752 0)
(9.75214 1.79209 0)
(9.80841 1.41361 -2.14909e-20)
(9.84741 1.03294 4.66799e-19)
(9.86901 0.650885 -2.24081e-19)
(9.87322 0.268382 0)
(6.75152 6.35058 1.51937e-18)
(7.02171 6.11551 0)
(7.28171 5.86762 -4.47054e-18)
(7.53071 5.60735 -1.52361e-18)
(7.7681 5.3352 -1.60149e-18)
(7.99331 5.05174 -1.69787e-18)
(8.20577 4.75752 8.02075e-19)
(8.40493 4.45315 -8.42555e-19)
(8.59028 4.13926 2.33871e-18)
(8.76136 3.81653 -7.65397e-19)
(8.91777 3.4857 0)
(9.05901 3.14751 0)
(9.18471 2.80266 0)
(9.29457 2.45191 0)
(9.38835 2.09606 -1.20851e-18)
(9.4658 1.73594 4.15628e-19)
(9.5267 1.37232 -4.39177e-19)
(9.5709 1.00603 0)
(9.59826 0.637895 2.20995e-19)
(9.6087 0.268806 0)
(6.47613 6.02444 1.29824e-18)
(6.73607 5.8054 -4.77356e-20)
(6.98674 5.57397 2.73071e-18)
(7.22736 5.33047 1.36388e-18)
(7.45728 5.07537 0)
(7.67592 4.80918 -1.44854e-18)
(7.88273 4.53242 6.7722e-20)
(8.07717 4.24564 -1.47019e-18)
(8.25871 3.94942 2.03249e-18)
(8.42689 3.64441 3.24628e-20)
(8.58129 3.33124 2.78679e-20)
(8.72147 3.01053 -7.33208e-19)
(8.847 2.683 1.43774e-18)
(8.95758 2.3494 0)
(9.05296 2.01043 6.78497e-20)
(9.13282 1.66693 7.33935e-19)
(9.19691 1.31964 1.5984e-21)
(9.24504 0.969344 -1.5188e-20)
(9.2771 0.616827 0)
(9.29294 0.262916 -4.54911e-20)
(6.20977 5.70844 0)
(6.4584 5.50332 -4.86304e-20)
(6.6985 5.28632 1.71337e-20)
(6.92934 5.05775 -2.46651e-18)
(7.15028 4.81799 0)
(7.36074 4.5675 1.24691e-18)
(7.56021 4.30676 1.32849e-18)
(7.74815 4.03628 -3.86419e-18)
(7.92406 3.75659 -6.74946e-20)
(8.0875 3.46826 -1.2401e-18)
(8.23801 3.17188 6.83229e-19)
(8.37519 2.86805 -6.30682e-19)
(8.49864 2.55746 -6.93738e-19)
(8.60799 2.24076 0)
(8.70301 1.9187 3.66089e-19)
(8.78349 1.59184 -1.67138e-20)
(8.84904 1.26105 -3.39603e-19)
(8.89946 0.927058 -1.65777e-20)
(8.93463 0.590604 -8.5484e-20)
(8.95438 0.252448 1.71336e-19)
(5.96333 5.41379 0)
(6.20041 5.22051 1.06567e-18)
(6.42956 5.01592 1.57834e-20)
(6.65008 4.80028 -1.08142e-18)
(6.86135 4.57394 0)
(7.06284 4.33731 1.1248e-18)
(7.25404 4.09083 -1.07359e-18)
(7.43445 3.83496 -1.18909e-18)
(7.6036 3.5702 2.26069e-18)
(7.76105 3.29706 1.22038e-18)
(7.90639 3.0161 0)
(8.03921 2.7279 5.95038e-19)
(8.15914 2.43307 -4.28724e-21)
(8.26587 2.13226 2.16342e-20)
(8.35897 1.82613 0)
(8.43833 1.51528 -5.8542e-19)
(8.50379 1.20033 -3.0678e-19)
(8.55494 0.882087 4.48142e-19)
(8.59165 0.561276 3.02161e-19)
(8.61377 0.23859 -4.04062e-20)
(5.7404 5.14533 0)
(5.96626 4.96205 -9.19432e-19)
(6.18465 4.76805 0)
(6.3949 4.56353 -9.92137e-19)
(6.59644 4.34882 1.95296e-18)
(6.78876 4.12428 -1.99152e-18)
(6.97138 3.89032 3.11708e-18)
(7.14385 3.64735 -3.10767e-18)
(7.3057 3.39584 -2.09957e-18)
(7.45654 3.13628 -1.54813e-18)
(7.59597 2.8692 5.30979e-19)
(7.72361 2.59513 -1.10095e-18)
(7.83911 2.31465 1.84419e-20)
(7.94215 2.02835 1.09421e-18)
(8.03245 1.7368 -2.75259e-19)
(8.10963 1.44075 1.12777e-18)
(8.17362 1.14066 -5.5458e-19)
(8.22424 0.837224 2.55351e-19)
(8.26122 0.531178 -1.4576e-19)
(8.28438 0.223181 0)
(5.54076 4.90347 0)
(5.75604 4.72871 1.77836e-18)
(5.9642 4.54377 8.62085e-19)
(6.16461 4.34886 -8.87709e-19)
(6.35673 4.14423 -1.81839e-18)
(6.54009 3.93023 2.76685e-18)
(6.71424 3.70721 1.10311e-20)
(6.87876 3.47559 -9.01447e-19)
(7.03324 3.2358 1.93626e-18)
(7.17728 2.9883 1.00014e-18)
(7.31052 2.73359 -9.33812e-19)
(7.4326 2.47217 4.90458e-19)
(7.5432 2.20459 2.22418e-20)
(7.64201 1.9314 -5.16226e-19)
(7.72876 1.65317 -2.50071e-19)
(7.80316 1.37048 5.01424e-19)
(7.86498 1.08402 -2.51352e-19)
(7.91412 0.794267 -5.0723e-19)
(7.95041 0.501907 5.87441e-20)
(7.9736 0.20758 6.35544e-20)
(5.3623 4.68625 0)