/*--------------------------------*- C++ -*----------------------------------*\
  =========                 |
  \\      /  F ield         | OpenFOAM: The Open Source CFD Toolbox
   \\    /   O peration     | Website:  https://openfoam.org
    \\  /    A nd           | Version:  6.0
     \\/     M anipulation  |
\*---------------------------------------------------------------------------*/
FoamFile
{
    version     2.0;
    format      ascii;
    class       volScalarField;
    location    "0.49";
    object      p;
}
// * * * * * * * * * * * * * * * * * * * * * * * * * * * * * * * * * * * * * //

dimensions      [0 2 -2 0 0 0 0];

internalField   nonuniform List<scalar> 
2400
(
-0.33906
-0.301943
-0.267053
-0.231685
-0.196014
-0.162364
-0.132482
-0.107259
-0.0870472
-0.0722443
-0.360508
-0.321671
-0.284993
-0.247768
-0.210268
-0.174914
-0.143485
-0.116856
-0.0953554
-0.0796456
-0.391461
-0.350263
-0.311531
-0.272319
-0.232805
-0.195441
-0.16202
-0.133392
-0.109895
-0.0927407
-0.431355
-0.387231
-0.346171
-0.3048
-0.263055
-0.223363
-0.187515
-0.156337
-0.130203
-0.111111
-0.479422
-0.431847
-0.38817
-0.344426
-0.300188
-0.257822
-0.219115
-0.184875
-0.155528
-0.134047
-0.534659
-0.48317
-0.436575
-0.39019
-0.343142
-0.297722
-0.255722
-0.217939
-0.184854
-0.160535
-0.595863
-0.540066
-0.490239
-0.440892
-0.390657
-0.341768
-0.296052
-0.2543
-0.216991
-0.189302
-0.661682
-0.601241
-0.547861
-0.495178
-0.441319
-0.388492
-0.338592
-0.292388
-0.250211
-0.218491
-0.730616
-0.665265
-0.608023
-0.551628
-0.493713
-0.436482
-0.381832
-0.33029
-0.281812
-0.244758
-0.800763
-0.730472
-0.669172
-0.6088
-0.546643
-0.485007
-0.425765
-0.369113
-0.31456
-0.270455
-1.15659
-1.17565
-1.17842
-1.16626
-1.14057
-1.10293
-1.05511
-0.998962
-0.936385
-0.869466
-1.0598
-1.07825
-1.0815
-1.07068
-1.04711
-1.01228
-0.967851
-0.915571
-0.85727
-0.79489
-0.959751
-0.980216
-0.986369
-0.979109
-0.959566
-0.929081
-0.889144
-0.841394
-0.787589
-0.729538
-0.855039
-0.878021
-0.887708
-0.884745
-0.870032
-0.844681
-0.809974
-0.767366
-0.718466
-0.664995
-0.750204
-0.774876
-0.78743
-0.788294
-0.778141
-0.757841
-0.728429
-0.691118
-0.647315
-0.598593
-0.652105
-0.67737
-0.691725
-0.695449
-0.689034
-0.673135
-0.648541
-0.61621
-0.577249
-0.533043
-0.564403
-0.589339
-0.604496
-0.610069
-0.606431
-0.594079
-0.573592
-0.545641
-0.510969
-0.470735
-0.488007
-0.512096
-0.527391
-0.534054
-0.532402
-0.522839
-0.505793
-0.481647
-0.4506
-0.41326
-0.422211
-0.445325
-0.460515
-0.467942
-0.467917
-0.460827
-0.447044
-0.426766
-0.399371
-0.363553
-0.366276
-0.387519
-0.401757
-0.409175
-0.410108
-0.404999
-0.394337
-0.378507
-0.356658
-0.325963
-0.138405
-0.285475
-0.428332
-0.56463
-0.691757
-0.807318
-0.909275
-0.996001
-1.06634
-1.11974
-0.106002
-0.243111
-0.376628
-0.504128
-0.623143
-0.731428
-0.827074
-0.908559
-0.974795
-1.02518
-0.0527877
-0.180003
-0.304625
-0.424256
-0.536544
-0.639352
-0.730836
-0.809501
-0.874239
-0.924361
0.00278952
-0.113901
-0.229021
-0.340246
-0.445341
-0.542294
-0.629349
-0.705059
-0.768326
-0.818407
0.0511713
-0.0548572
-0.160205
-0.262562
-0.359808
-0.450082
-0.531756
-0.603482
-0.664222
-0.713248
0.090087
-0.00603433
-0.102191
-0.195962
-0.285356
-0.368697
-0.444503
-0.51155
-0.5689
-0.61588
0.120373
0.0329843
-0.0550688
-0.141002
-0.223031
-0.299696
-0.369662
-0.431831
-0.485373
-0.529688
0.144389
0.0649173
-0.0162461
-0.0953784
-0.170909
-0.241591
-0.306216
-0.3638
-0.413615
-0.45513
0.164067
0.0917862
0.0163017
-0.0570938
-0.127081
-0.192577
-0.252473
-0.305922
-0.352303
-0.391166
0.172193
0.103814
0.0328843
-0.0344777
-0.0983129
-0.157935
-0.212297
-0.260712
-0.302723
-0.337988
0.621062
0.648493
0.678971
0.711193
0.744843
0.779416
0.813877
0.847312
0.885072
0.940528
0.606613
0.632417
0.661486
0.692093
0.723768
0.755907
0.787307
0.81684
0.84978
0.900438
0.584187
0.607269
0.633995
0.661935
0.690384
0.718658
0.745431
0.76949
0.796198
0.840805
0.554015
0.573375
0.5969
0.621177
0.645216
0.668275
0.688948
0.706066
0.725236
0.762606
0.516419
0.5312
0.550772
0.570478
0.589023
0.605629
0.618869
0.627739
0.638224
0.667329
0.471807
0.481349
0.496358
0.510699
0.522788
0.531855
0.536502
0.536011
0.536873
0.556853
0.420694
0.424572
0.434587
0.442898
0.447715
0.448329
0.443423
0.432684
0.423208
0.433397
0.36383
0.361876
0.36664
0.368363
0.365221
0.356645
0.341446
0.319819
0.299534
0.299474
0.302093
0.294718
0.294101
0.288659
0.276952
0.258605
0.232583
0.199687
0.168386
0.157837
0.234905
0.224235
0.218013
0.204945
0.184433
0.156045
0.118949
0.0746824
0.0323832
0.0111798
0.343877
0.339808
0.341104
0.337876
0.33041
0.320567
0.311413
0.309477
0.325515
0.361476
0.402008
0.401088
0.407158
0.410444
0.410382
0.408552
0.407446
0.412585
0.434392
0.476649
0.453711
0.457801
0.468572
0.478016
0.485146
0.491083
0.497788
0.509824
0.5371
0.584988
0.499796
0.50917
0.524511
0.539557
0.553282
0.566435
0.580447
0.598952
0.631215
0.68396
0.539571
0.553953
0.573567
0.593646
0.613283
0.632934
0.653538
0.67783
0.714388
0.771097
0.572415
0.591283
0.61469
0.639119
0.663847
0.689094
0.71536
0.744534
0.784477
0.844133
0.597908
0.620522
0.64707
0.675036
0.703889
0.733658
0.764443
0.797371
0.839614
0.901071
0.615721
0.641165
0.67007
0.700652
0.732542
0.765605
0.799591
0.834951
0.878238
0.94026
0.625604
0.65284
0.683223
0.715418
0.749157
0.784167
0.819887
0.856205
0.899156
0.960443
0.627403
0.655313
0.68623
0.71898
0.753314
0.788839
0.824732
0.860423
0.901559
0.960739
0.291101
0.229625
0.164128
0.101124
0.0403138
-0.0176948
-0.071855
-0.121484
-0.166105
-0.205312
0.287776
0.223358
0.154438
0.0861472
0.019782
-0.0436108
-0.102967
-0.157457
-0.206428
-0.249348
0.276724
0.205835
0.131881
0.0584362
-0.0129525
-0.0811061
-0.144878
-0.203306
-0.255613
-0.301176
0.263617
0.185614
0.105623
0.0262479
-0.0508258
-0.12424
-0.192737
-0.25524
-0.310868
-0.358917
0.24765
0.162152
0.0753666
-0.0105121
-0.0936616
-0.172545
-0.245781
-0.312175
-0.370752
-0.420742
0.229235
0.135785
0.0417917
-0.0507024
-0.139789
-0.22379
-0.301206
-0.370751
-0.431384
-0.482317
0.211747
0.110552
0.0096213
-0.089003
-0.183342
-0.271607
-0.352222
-0.423855
-0.485458
-0.536295
0.202601
0.0947625
-0.0120726
-0.115801
-0.214363
-0.305904
-0.388816
-0.461778
-0.523788
-0.574221
0.212661
0.0991138
-0.01304
-0.121613
-0.224481
-0.319734
-0.405735
-0.481167
-0.545061
-0.596871
0.241962
0.121342
0.00201668
-0.113751
-0.22376
-0.325979
-0.418636
-0.500297
-0.569918
-0.626907
-0.238787
-0.266331
-0.287849
-0.303374
-0.31307
-0.317195
-0.316067
-0.309878
-0.297476
-0.275092
-0.285819
-0.315563
-0.33843
-0.354402
-0.363589
-0.366148
-0.362227
-0.351788
-0.333883
-0.306533
-0.339549
-0.370391
-0.393529
-0.408942
-0.416742
-0.417093
-0.410183
-0.396187
-0.375069
-0.347038
-0.398914
-0.430461
-0.453405
-0.467767
-0.473725
-0.471553
-0.46158
-0.444296
-0.420271
-0.39032
-0.461683
-0.493136
-0.515032
-0.5275
-0.530855
-0.52553
-0.512094
-0.491316
-0.464136
-0.431621
-0.523163
-0.553477
-0.573352
-0.583091
-0.583199
-0.574332
-0.557289
-0.533086
-0.502931
-0.468076
-0.576132
-0.604545
-0.62186
-0.628595
-0.625462
-0.613334
-0.593215
-0.566323
-0.533981
-0.497559
-0.613037
-0.639832
-0.655173
-0.659772
-0.654505
-0.640414
-0.618633
-0.590433
-0.557237
-0.520443
-0.636661
-0.664037
-0.679694
-0.684446
-0.679266
-0.665239
-0.643575
-0.61558
-0.582627
-0.546166
-0.67111
-0.702322
-0.721107
-0.72831
-0.724948
-0.712162
-0.691169
-0.663323
-0.630089
-0.592888
-0.552918
-0.50773
-0.481636
-0.458606
-0.42989
-0.394829
-0.354806
-0.310879
-0.263742
-0.223539
-0.512206
-0.468448
-0.441881
-0.418434
-0.390338
-0.357001
-0.319727
-0.279721
-0.238053
-0.204839
-0.472108
-0.429936
-0.402853
-0.378766
-0.351035
-0.319331
-0.284932
-0.249131
-0.213273
-0.185368
-0.434144
-0.393628
-0.365979
-0.340999
-0.313228
-0.282662
-0.250528
-0.218014
-0.186443
-0.162294
-0.399814
-0.360884
-0.332594
-0.3065
-0.278313
-0.24841
-0.218031
-0.188254
-0.160246
-0.139083
-0.370541
-0.332998
-0.303976
-0.276596
-0.247679
-0.21802
-0.188918
-0.161374
-0.136354
-0.117576
-0.347628
-0.311155
-0.281284
-0.252483
-0.222578
-0.192771
-0.164456
-0.138589
-0.115944
-0.0990374
-0.332235
-0.296391
-0.265523
-0.235195
-0.204091
-0.173786
-0.145781
-0.121007
-0.10008
-0.0845388
-0.325334
-0.289562
-0.257522
-0.225586
-0.193112
-0.161992
-0.133828
-0.109539
-0.089617
-0.0749
-0.327572
-0.291294
-0.257902
-0.22429
-0.190293
-0.158058
-0.129269
-0.104832
-0.0851549
-0.0706892
-0.0374698
0.0101629
0.00562908
0.00470231
0.00297024
0.00144444
0.000633507
0.000179696
-1.57673e-05
-2.70677e-05
-3.32215e-05
-1.14432e-05
-2.49775e-05
7.83409e-05
9.2404e-05
0.000104925
0.000121443
6.76504e-05
3.72854e-05
2.11624e-05
-0.0443841
0.00706777
0.00373669
0.00344721
0.00209767
0.000810442
0.000153931
-0.000188722
-0.000300673
-0.000248743
-0.000203859
-0.000141059
-0.000121783
5.73206e-06
4.02259e-05
6.76099e-05
9.67881e-05
5.19006e-05
2.91774e-05
1.86119e-05
-0.0569731
0.00196438
0.000931968
0.00174582
0.00101468
7.84908e-05
-0.000373733
-0.00057864
-0.000595119
-0.000476887
-0.000377991
-0.000271542
-0.000217905
-6.77824e-05
-1.31046e-05
2.89059e-05
7.09884e-05
3.58357e-05
2.08846e-05
1.59635e-05
-0.0747309
-0.00527916
-0.0028096
-0.000417476
-0.000289179
-0.000756351
-0.000951561
-0.000991596
-0.000900147
-0.000711112
-0.000555123
-0.000403097
-0.000313688
-0.000141837
-6.69789e-05
-1.05408e-05
4.45392e-05
1.96551e-05
1.25371e-05
1.32526e-05
-0.096839
-0.0147601
-0.00748773
-0.00304782
-0.00182122
-0.00169786
-0.00158041
-0.00142837
-0.00121633
-0.000951023
-0.000734818
-0.000535677
-0.000409331
-0.000216083
-0.00012085
-5.00888e-05
1.79108e-05
3.58701e-06
4.196e-06
1.05189e-05
-0.122089
-0.0264408
-0.0130413
-0.00611687
-0.0035711
-0.0027405
-0.00225614
-0.00188728
-0.00154269
-0.00119535
-0.000916287
-0.00066904
-0.000504823
-0.000290109
-0.000174197
-8.91956e-05
-8.5254e-06
-1.21968e-05
-4.08453e-06
7.79311e-06
-0.149373
-0.0405929
-0.0196084
-0.00967345
-0.00555678
-0.00389009
-0.00297964
-0.00236817
-0.00187891
-0.00144375
-0.00109931
-0.000802924
-0.000600046
-0.000363788
-0.000227016
-0.000127846
-3.47465e-05
-2.77154e-05
-1.22707e-05
5.07821e-06
-0.179087
-0.0588521
-0.0281478
-0.0141809
-0.00800261
-0.00525633
-0.00380423
-0.00289779
-0.00223901
-0.00170371
-0.00128786
-0.000939277
-0.000696054
-0.000437643
-0.000279627
-0.00016622
-6.08391e-05
-4.29793e-05
-2.03358e-05
2.38874e-06
-0.209622
-0.0814
-0.0391795
-0.0200756
-0.011201
-0.0070134
-0.00482712
-0.00352977
-0.00265265
-0.00199142
-0.00149062
-0.00108279
-0.000795396
-0.000513024
-0.000332739
-0.00020459
-8.68433e-05
-5.80285e-05
-2.83387e-05
-2.89015e-07
-0.221379
-0.0960571
-0.0470374
-0.0248264
-0.01402
-0.0086473
-0.00580722
-0.00414656
-0.00305966
-0.0022744
-0.00168971
-0.00122458
-0.000893613
-0.000587708
-0.000385356
-0.00024199
-0.00011219
-7.29204e-05
-3.65104e-05
-3.06179e-06
-0.196274
-0.0913708
-0.0439019
-0.0236212
-0.0137464
-0.00869852
-0.00598747
-0.00437016
-0.00328276
-0.00248028
-0.00186549
-0.00137101
-0.00100512
-0.000679007
-0.000452413
-0.000289846
-0.000145686
-9.32964e-05
-4.81058e-05
-7.06283e-06
-0.183256
-0.0975996
-0.0494317
-0.0277892
-0.0167609
-0.010661
-0.00724934
-0.00521653
-0.00387548
-0.00291171
-0.00218337
-0.00161071
-0.00117822
-0.000811878
-0.000547041
-0.000355731
-0.000192054
-0.000120569
-6.33748e-05
-1.23521e-05
-0.16116
-0.0970007
-0.0527498
-0.0310594
-0.0195258
-0.0126681
-0.00861776
-0.00616148
-0.00454646
-0.00340082
-0.00254376
-0.00188115
-0.00137431
-0.000960441
-0.000653172
-0.000429083
-0.000244351
-0.00015122
-8.03796e-05
-1.82829e-05
-0.131983
-0.088963
-0.0525862
-0.0325045
-0.021305
-0.0142609
-0.00984524
-0.00707408
-0.00522757
-0.00391335
-0.00293008
-0.00217393
-0.0015896
-0.00112287
-0.000770032
-0.000509763
-0.000302549
-0.000185377
-9.90507e-05
-2.47867e-05
-0.100981
-0.0757379
-0.0492643
-0.0322863
-0.0221094
-0.0153788
-0.0108889
-0.00793144
-0.00590633
-0.00444274
-0.00333839
-0.00248619
-0.00182212
-0.0012976
-0.000896455
-0.000597448
-0.000365944
-0.00022273
-0.00011915
-3.17533e-05
-0.0714609
-0.059407
-0.0428284
-0.0301824
-0.0217616
-0.0158394
-0.0116146
-0.00865278
-0.00653522
-0.00496078
-0.00375125
-0.00280721
-0.00206489
-0.0014801
-0.00102938
-0.000690309
-0.000432615
-0.000262575
-0.000140412
-3.90139e-05
-0.045666
-0.0423237
-0.0341127
-0.0262856
-0.0202247
-0.0155423
-0.0119124
-0.00915641
-0.00705958
-0.00543136
-0.00414431
-0.00312072
-0.00230636
-0.00166257
-0.00116322
-0.000784666
-0.000499804
-0.000303451
-0.000162133
-4.62673e-05
-0.0248476
-0.0267212
-0.0246556
-0.0212403
-0.0177604
-0.0145738
-0.0117727
-0.00940182
-0.00743722
-0.00581852
-0.00448888
-0.00340493
-0.00252981
-0.001833
-0.00128921
-0.000874393
-0.000563296
-0.000342702
-0.000182989
-5.30776e-05
-0.0098072
-0.0144759
-0.0163155
-0.0162266
-0.0150137
-0.013267
-0.0113315
-0.00941842
-0.00765251
-0.00609167
-0.00475257
-0.00363126
-0.00271186
-0.00197361
-0.00139418
-0.000949925
-0.000616577
-0.000376058
-0.000200754
-5.87691e-05
-0.00138632
-0.00725907
-0.0110454
-0.0128188
-0.0130185
-0.0122361
-0.0109067
-0.00933455
-0.00773438
-0.00623504
-0.00490336
-0.00376568
-0.00282232
-0.00206008
-0.0014594
-0.000997343
-0.000650052
-0.000397188
-0.000212032
-6.2327e-05
-0.29048
-0.304906
-0.31355
-0.316626
-0.314509
-0.307772
-0.297263
-0.284288
-0.270919
-0.265763
-0.210055
-0.222234
-0.230845
-0.236153
-0.238515
-0.238368
-0.236199
-0.232486
-0.227376
-0.224823
-0.147807
-0.158223
-0.166586
-0.173034
-0.177691
-0.180652
-0.18197
-0.181666
-0.179725
-0.178995
-0.097551
-0.106314
-0.113749
-0.11991
-0.124859
-0.128666
-0.131418
-0.133223
-0.134194
-0.135772
-0.0579504
-0.0653869
-0.0719837
-0.0777782
-0.0828121
-0.0871282
-0.0907703
-0.0937709
-0.0961656
-0.0985979
-0.0272083
-0.0335668
-0.0393781
-0.044657
-0.0494175
-0.0536742
-0.0574467
-0.0607552
-0.0636385
-0.0663882
-0.00381523
-0.00926473
-0.0143345
-0.0190276
-0.0233484
-0.0273027
-0.0309006
-0.0341554
-0.0370952
-0.0398363
0.0133504
0.00863849
0.00420819
6.20986e-05
-0.00380128
-0.00738702
-0.0106992
-0.0137419
-0.0165297
-0.0191057
0.0250459
0.0208699
0.0169147
0.0131871
0.00968998
0.00642456
0.00338962
0.000578945
-0.00201581
-0.00440773
0.0312125
0.027377
0.0237316
0.0202795
0.017023
0.0139636
0.011106
0.00845251
0.00599387
0.00371825
0.147073
0.085177
0.020502
-0.0347671
-0.0853134
-0.132386
-0.174915
-0.212228
-0.244051
-0.270187
0.117028
0.0699325
0.0199445
-0.0214358
-0.057907
-0.0920281
-0.123227
-0.150738
-0.17437
-0.194133
0.0937563
0.0566574
0.0199453
-0.0102669
-0.0364197
-0.0606762
-0.0830182
-0.102933
-0.120292
-0.135207
0.0788473
0.0508439
0.0254282
0.00434572
-0.0142786
-0.0316805
-0.0479046
-0.0626499
-0.0757979
-0.0874031
0.0717923
0.0515333
0.0341239
0.0193576
0.00585262
-0.00696012
-0.0190401
-0.0302163
-0.0404103
-0.0496395
0.0701992
0.0558188
0.0436647
0.0330166
0.022959
0.0132612
0.00401129
-0.00468658
-0.0127864
-0.0202879
0.0715185
0.0612705
0.0524475
0.0444167
0.0366562
0.029086
0.0217851
0.0148218
0.00822846
0.00201545
0.0739252
0.0663972
0.0596263
0.0532331
0.0469724
0.0408316
0.0348623
0.029108
0.0235949
0.0183386
0.0762514
0.0703444
0.0647676
0.0593789
0.0540739
0.048853
0.0437518
0.0388012
0.0340231
0.0294337
0.0776746
0.072492
0.0674359
0.0625087
0.0576725
0.0529248
0.0482873
0.043782
0.0394259
0.0352321
0.278976
0.27967
0.282699
0.287579
0.294166
0.301993
0.309884
0.312836
0.303907
0.233056
0.272724
0.273179
0.275269
0.278552
0.282579
0.286494
0.288193
0.282343
0.259472
0.188506
0.265029
0.265184
0.266213
0.267672
0.2689
0.268784
0.264719
0.252233
0.222515
0.160732
0.255721
0.255517
0.255419
0.254958
0.25335
0.249384
0.240445
0.223347
0.190698
0.136468
0.244799
0.244221
0.243013
0.2407
0.236492
0.229251
0.216766
0.196931
0.164298
0.1173
0.232497
0.231575
0.229372
0.225451
0.219128
0.209479
0.194908
0.174155
0.143904
0.104566
0.219388
0.218198
0.215212
0.210079
0.202299
0.191238
0.175934
0.155777
0.129163
0.0970332
0.206503
0.205149
0.201657
0.195784
0.18724
0.175677
0.160652
0.14199
0.119153
0.093026
0.195425
0.194006
0.190272
0.184083
0.175325
0.163872
0.149617
0.132628
0.112909
0.0911903
0.188383
0.186952
0.183148
0.176896
0.168186
0.157014
0.143434
0.127619
0.10978
0.0905087
0.301692
0.302783
0.308086
0.316788
0.329913
0.348531
0.375537
0.413528
0.469652
0.550154
0.300523
0.301588
0.3068
0.31535
0.328233
0.346471
0.372872
0.409794
0.46405
0.541028
0.299111
0.300145
0.305243
0.313597
0.326161
0.343883
0.369438
0.404772
0.4562
0.527498
0.297463
0.298463
0.303424
0.311542
0.323712
0.340791
0.365266
0.398503
0.446209
0.509625
0.295589
0.296554
0.301356
0.309199
0.320906
0.33722
0.360389
0.39104
0.434208
0.487457
0.293499
0.294433
0.299056
0.306587
0.317764
0.333201
0.354846
0.382444
0.420346
0.461015
0.291207
0.292117
0.296545
0.303735
0.314327
0.328797
0.34872
0.372862
0.40485
0.430375
0.288729
0.289631
0.293856
0.300693
0.310679
0.324142
0.342206
0.362608
0.388098
0.395662
0.286077
0.286991
0.291001
0.297471
0.306825
0.319235
0.33527
0.351647
0.369792
0.355766
0.28324
0.284135
0.287841
0.293806
0.302281
0.313238
0.326572
0.338105
0.346995
0.307818
0.2998
0.301094
0.305892
0.313742
0.325111
0.340394
0.360184
0.38159
0.405787
0.392025
0.301048
0.302314
0.30733
0.31552
0.327502
0.343842
0.36574
0.391113
0.423221
0.431991
0.302062
0.303275
0.308402
0.316771
0.32909
0.346032
0.369273
0.397611
0.435455
0.463067
0.30286
0.304038
0.309263
0.317797
0.330428
0.347935
0.372371
0.403425
0.446235
0.48923
0.303431
0.304592
0.309903
0.318585
0.331503
0.349531
0.375025
0.408515
0.455695
0.511233
0.303765
0.304916
0.31029
0.319085
0.332228
0.350677
0.377017
0.412519
0.463359
0.528839
0.303853
0.304998
0.310409
0.319275
0.33257
0.351317
0.378271
0.4153
0.469022
0.542002
0.303692
0.304829
0.310252
0.319145
0.332516
0.351434
0.378767
0.416818
0.472571
0.550734
0.303279
0.304405
0.309814
0.318689
0.332057
0.351014
0.378486
0.417042
0.473903
0.555015
0.302612
0.303723
0.309092
0.317903
0.33119
0.350047
0.37741
0.415947
0.472942
0.554824
0.233053
0.231983
0.228923
0.2238
0.216549
0.207076
0.195316
0.181291
0.165041
0.146974
0.23879
0.237793
0.234925
0.230058
0.223035
0.213643
0.201656
0.186978
0.169406
0.149439
0.247647
0.246801
0.244352
0.24009
0.233704
0.224784
0.212778
0.19734
0.177683
0.154391
0.257665
0.257067
0.255302
0.252081
0.246927
0.239186
0.227837
0.212123
0.190176
0.162509
0.267501
0.267234
0.266389
0.26463
0.26135
0.255679
0.246054
0.231147
0.207464
0.174851
0.27634
0.276446
0.276672
0.276681
0.275817
0.273092
0.266469
0.253923
0.230061
0.192636
0.283786
0.284262
0.285608
0.287526
0.289416
0.290318
0.287965
0.279489
0.257954
0.216636
0.289744
0.290543
0.29297
0.296768
0.301504
0.306398
0.309365
0.306581
0.29027
0.245316
0.294309
0.295344
0.298742
0.30425
0.311665
0.320528
0.329382
0.33388
0.326244
0.276776
0.2977
0.298883
0.303099
0.310025
0.319761
0.332265
0.347061
0.360344
0.367226
0.321983
0.134548
0.129459
0.124413
0.119446
0.114532
0.10966
0.104844
0.100105
0.0954617
0.0909286
0.135242
0.129482
0.123881
0.118423
0.113014
0.107636
0.102316
0.0970835
0.0919649
0.0869785
0.136739
0.129469
0.122588
0.116058
0.109653
0.103305
0.0970477
0.0909285
0.0849806
0.0792237
0.139654
0.129888
0.120824
0.112525
0.104543
0.0966925
0.0890009
0.0815424
0.0743642
0.0674856
0.145019
0.131509
0.118961
0.107894
0.0975428
0.0874804
0.0777003
0.0683199
0.0594133
0.0509957
0.154403
0.135663
0.117757
0.102466
0.0886393
0.0753847
0.0626069
0.050507
0.0392082
0.0287147
0.169962
0.144456
0.118626
0.0970554
0.078187
0.0603133
0.04322
0.0272676
0.0126389
-0.000692848
0.193572
0.160209
0.123499
0.0931913
0.0671212
0.042496
0.0191773
-0.0022214
-0.0214999
-0.0387379
0.22543
0.183262
0.134044
0.0934631
0.0577254
0.0235562
-0.0085466
-0.0377115
-0.0636993
-0.08649
0.263876
0.207987
0.145731
0.0928282
0.0439403
-0.00264693
-0.0458213
-0.0848539
-0.119451
-0.14937
0.0865179
0.0822399
0.0781043
0.0741185
0.0702938
0.0666391
0.0631489
0.0598175
0.0566455
0.0536323
0.0821399
0.0774628
0.0729589
0.068638
0.0645052
0.0605619
0.0568116
0.0532589
0.0499022
0.0467255
0.0736719
0.0683366
0.0632278
0.0583534
0.0537178
0.0493235
0.0451711
0.0412611
0.0375856
0.0340945
0.060914
0.0546544
0.0487125
0.0430921
0.0377941
0.032816
0.028154
0.0238058
0.0197555
0.0158716
0.0430595
0.0355964
0.0286032
0.0220758
0.0160071
0.0103872
0.00520414
0.000450671
-0.00389612
-0.00814912
0.0189939
0.0100187
0.00177198
-0.00576693
-0.0126258
-0.0188345
-0.0244241
-0.0294165
-0.0338272
-0.0383292
-0.0127926
-0.0237063
-0.0334624
-0.0420883
-0.0496197
-0.0561064
-0.0616188
-0.0662539
-0.0701026
-0.0746769
-0.0540327
-0.0674697
-0.0791345
-0.0891171
-0.0974967
-0.104322
-0.109603
-0.113336
-0.11549
-0.119177
-0.106063
-0.122449
-0.135754
-0.146172
-0.153993
-0.159594
-0.163419
-0.165907
-0.167108
-0.171151
-0.174387
-0.194384
-0.209346
-0.219385
-0.224776
-0.226001
-0.223883
-0.219799
-0.21611
-0.221756
0.0466624
0.0373631
0.0297125
0.0237662
0.0192518
0.0157379
0.0129173
0.0105931
0.0086315
0.00695387
0.00551982
0.00430648
0.00329623
0.00247232
0.0018132
0.00129324
0.000887953
0.000571132
0.000314674
9.47004e-05
0.0392273
0.0306449
0.0244614
0.0200103
0.0166752
0.0140027
0.0117545
0.00980029
0.00807093
0.0065424
0.00521104
0.00407397
0.00312381
0.00234731
0.00172414
0.00123165
0.000848085
0.000547136
0.000301137
9.06299e-05
0.0257356
0.0190273
0.0159339
0.0142415
0.0128459
0.0114659
0.0100668
0.00864489
0.00724416
0.00592855
0.00474742
0.00372335
0.00286198
0.00215643
0.00158828
0.00113806
0.000787202
0.000509697
0.000279598
8.44488e-05
0.00657034
0.00376963
0.00582324
0.00794033
0.00882938
0.00885435
0.00833342
0.00743715
0.00635715
0.00525516
0.00423097
0.00332938
0.00256626
0.00194033
0.00143407
0.00103129
0.000717355
0.000466313
0.000254498
7.7642e-05
-0.0179771
-0.0136602
-0.00421283
0.00225029
0.0053297
0.00661435
0.00682911
0.00634604
0.00552169
0.0046017
0.0037203
0.00293608
0.00226949
0.00172301
0.00127786
0.000922451
0.000646465
0.000422088
0.000228689
7.09665e-05
-0.0472319
-0.0313625
-0.0127101
-0.00213172
0.00271218
0.00495458
0.00566302
0.00543663
0.00478532
0.00400566
0.00324548
0.00256722
0.00198881
0.0015171
0.00112896
0.000818494
0.000579388
0.00037976
0.000203776
6.48107e-05
-0.0794829
-0.0471379
-0.0187631
-0.00499133
0.0010672
0.00389063
0.00482161
0.00470417
0.00415341
0.00347692
0.00281701
0.00223243
0.00173163
0.0013288
0.000992281
0.000723007
0.000518294
0.000340523
0.000180762
5.93381e-05
-0.111666
-0.0587746
-0.0221285
-0.00638592
0.00035305
0.00334341
0.00424603
0.00412182
0.00361675
0.00301454
0.00243695
0.00193488
0.00150094
0.00116085
0.000869971
0.000637374
0.000463689
0.000304766
0.000160298
5.45411e-05
-0.139033
-0.0638341
-0.0222904
-0.00599905
0.000699296
0.00333196
0.00394476
0.00369948
0.00318381
0.00262517
0.00210978
0.00167717
0.00129847
0.00101419
0.000762637
0.000562151
0.000415685
0.000272553
0.000142522
5.03416e-05
-0.160002
-0.0627168
-0.0204152
-0.00472013
0.00137128
0.00338027
0.00364911
0.00328601
0.0027686
0.00225953
0.00180661
0.00144139
0.00111359
0.000882336
0.000666342
0.000495081
0.000372876
0.000243343
0.000127034
4.65489e-05
-0.18665
-0.0695952
-0.026127
-0.0082703
-0.00083716
0.00187296
0.0025882
0.00252442
0.0022145
0.00185635
0.00151014
0.00122763
0.000954986
0.000774537
0.000590134
0.000443102
0.000339785
0.000220975
0.000115844
4.36113e-05
-0.18017
-0.0583151
-0.0208952
-0.00554206
0.000428913
0.00229936
0.00262482
0.00240207
0.00204328
0.00168913
0.00136271
0.00110698
0.000857277
0.000704985
0.000539355
0.000408448
0.000317424
0.000205111
0.000107736
4.13916e-05
-0.155865
-0.0394476
-0.0124225
-0.00155599
0.00215871
0.00290392
0.00273813
0.00231728
0.00189263
0.00153481
0.00122367
0.000990384
0.000761563
0.00063621
0.000488893
0.000374296
0.000295425
0.000189195
9.94523e-05
3.90964e-05
-0.131035
-0.0243032
-0.00616852
0.00119138
0.00321969
0.00316809
0.00268427
0.00215113
0.0017026
0.00136203
0.00107659
0.000870309
0.000664603
0.000567232
0.000438727
0.000340473
0.000273701
0.000173527
9.13437e-05
3.68417e-05
-0.107736
-0.0129334
-0.00177632
0.00302989
0.00383715
0.00322302
0.00253239
0.00193789
0.00148953
0.00117819
0.000924382
0.000747721
0.000566591
0.000497962
0.000388747
0.000306821
0.00025209
0.000158037
8.34177e-05
3.4624e-05
-0.0859301
-0.0038931
0.00164779
0.00439755
0.00422365
0.00317196
0.00233192
0.00170137
0.00126531
0.000989483
0.000770133
0.000623936
0.000468148
0.00042861
0.000339049
0.000273377
0.000230586
0.000142709
7.56175e-05
3.24255e-05
-0.0667976
0.00305488
0.00424086
0.00534755
0.00440145
0.00302442
0.00208645
0.00144278
0.00103061
0.000796578
0.000614269
0.000499055
0.000369408
0.000359264
0.000289778
0.00024022
0.000209237
0.000127583
6.79277e-05
3.02406e-05
-0.0516108
0.00785503
0.00593805
0.00584978
0.00435967
0.00277549
0.00179313
0.0011603
0.000784427
0.000599078
0.000456598
0.000372896
0.000270375
0.000289892
0.000241009
0.000207346
0.000188048
0.00011267
6.03586e-05
2.80614e-05
-0.0412901
0.0105781
0.00672812
0.00590407
0.00410265
0.00242725
0.00145261
0.000854827
0.000527289
0.000396282
0.000296549
0.000245658
0.000171355
0.000220151
0.000192241
0.000174245
0.000166665
9.78377e-05
5.28022e-05
2.58528e-05
-0.0364586
0.0113294
0.00662409
0.00552039
0.00363827
0.00198309
0.00106608
0.0005277
0.000260315
0.000187708
0.000133451
0.000117523
7.27935e-05
0.00014973
0.000142901
0.000140316
0.000144618
8.29098e-05
4.51313e-05
2.35707e-05
)
;

boundaryField
{
    inlet
    {
        type            freestreamPressure;
        freestreamValue uniform 0;
        supersonic      false;
        value           nonuniform List<scalar> 
40
(
0.278976
0.272724
0.265029
0.255721
0.244799
0.232497
0.219388
0.206503
0.195425
0.188383
0.301692
0.300523
0.299111
0.297463
0.295589
0.293499
0.291207
0.288729
0.286077
0.28324
0.2998
0.301048
0.302062
0.30286
0.303431
0.303765
0.303853
0.303692
0.303279
0.302612
0.233053
0.23879
0.247647
0.257665
0.267501
0.27634
0.283786
0.289744
0.294309
0.2977
)
;
    }
    outlet
    {
        type            freestreamPressure;
        freestreamValue uniform 0;
        supersonic      false;
        value           nonuniform List<scalar> 
40
(
-3.30394e-16
-4.60741e-16
-5.45506e-16
-5.48641e-16
-4.91815e-16
-3.86124e-16
-2.52829e-16
-1.26035e-16
-4.00877e-17
-4.06186e-18
2.90801e-15
2.33929e-15
1.83174e-15
1.39556e-15
1.0112e-15
6.79448e-16
3.99573e-16
1.69397e-16
-1.8495e-17
-1.75101e-16
1.18285e-14
1.07191e-14
9.60495e-15
8.50782e-15
7.47614e-15
6.53321e-15
5.6809e-15
4.90823e-15
4.19697e-15
3.5246e-15
5.61062e-16
4.54172e-15
9.83994e-15
1.39482e-14
1.64379e-14
1.74956e-14
1.74512e-14
1.65632e-14
1.5204e-14
1.3564e-14
)
;
    }
    top
    {
        type            symmetryPlane;
    }
    bottom
    {
        type            symmetryPlane;
    }
    cylinder
    {
        type            zeroGradient;
    }
    frontandback
    {
        type            empty;
    }
}


// ************************************************************************* //
