/*--------------------------------*- C++ -*----------------------------------*\
| =========                 |                                                 |
| \\      /  F ield         | OpenFOAM: The Open Source CFD Toolbox           |
|  \\    /   O peration     | Version:  v1912                                 |
|   \\  /    A nd           | Website:  www.openfoam.com                      |
|    \\/     M anipulation  |                                                 |
\*---------------------------------------------------------------------------*/
FoamFile
{
    version     2.0;
    format      ascii;
    class       volVectorField;
    location    "10";
    object      U;
}
// * * * * * * * * * * * * * * * * * * * * * * * * * * * * * * * * * * * * * //

dimensions      [0 1 -1 0 0 0 0];


internalField   nonuniform List<vector> 
9600
(
(0.458675 -9.44127 -1.44669e-19)
(0.152972 -8.76406 0)
(0.217777 -8.28462 -8.30162e-20)
(0.273977 -7.92874 0)
(0.319138 -7.64298 0)
(0.365871 -7.39326 -2.82102e-20)
(0.410891 -7.16075 -3.53197e-22)
(0.451676 -6.93585 2.29996e-20)
(0.487693 -6.71434 0)
(0.51898 -6.49503 -3.85481e-20)
(0.545819 -6.27832 0)
(0.568659 -6.06527 -1.61728e-21)
(0.588031 -5.85715 -2.41303e-21)
(0.604481 -5.65509 -2.61474e-20)
(0.618537 -5.45994 2.16894e-20)
(0.630672 -5.2722 -2.13091e-20)
(0.641279 -5.09195 1.87338e-20)
(0.650788 -4.91884 0)
(0.659895 -4.75201 -1.46565e-20)
(0.668081 -4.59021 1.6197e-20)
(0.829297 -9.4258 -2.87532e-19)
(0.499642 -8.77999 1.19685e-20)
(0.547093 -8.31239 1.71288e-19)
(0.590355 -7.96361 -1.43175e-19)
(0.624723 -7.6815 1.412e-19)
(0.661657 -7.43242 0)
(0.697219 -7.19847 5.34134e-20)
(0.728602 -6.97091 -5.30123e-20)
(0.755196 -6.74608 -9.09346e-20)
(0.777073 -6.52323 1.13101e-19)
(0.794587 -6.30304 -7.32841e-20)
(0.808272 -6.08677 -2.92212e-20)
(0.818737 -5.87578 5.9328e-20)
(0.82659 -5.67127 0)
(0.832401 -5.4741 0)
(0.836665 -5.28478 8.05267e-20)
(0.839776 -5.10337 -1.36297e-19)
(0.842177 -4.92944 0)
(0.844633 -4.76204 0)
(0.846366 -4.59982 -6.19503e-20)
(1.19987 -9.39664 5.93649e-19)
(0.847653 -8.78293 0)
(0.878715 -8.32744 -3.43185e-19)
(0.909632 -7.9861 -3.07811e-19)
(0.933468 -7.70784 0)
(0.960615 -7.45953 4.81187e-19)
(0.986575 -7.22433 -4.52052e-19)
(1.00832 -6.99431 8.72154e-20)
(1.02521 -6.76644 -1.94561e-19)
(1.03738 -6.54038 -3.18452e-19)
(1.04529 -6.31707 4.30597e-19)
(1.04956 -6.09797 -2.64424e-19)
(1.05089 -5.88451 -1.17189e-19)
(1.04996 -5.67794 0)
(1.04738 -5.47916 4.75459e-21)
(1.04366 -5.28865 8.51699e-20)
(1.03919 -5.10645 3.61787e-20)
(1.03443 -4.93209 0)
(1.03021 -4.7645 6.52702e-20)
(1.02541 -4.60226 6.70195e-20)
(1.56927 -9.35346 -8.00648e-19)
(1.19641 -8.77266 -3.68713e-19)
(1.2121 -8.32972 3.5897e-19)
(1.23127 -7.99603 6.04089e-19)
(1.24485 -7.72176 -2.92191e-19)
(1.26221 -7.47436 4.27428e-21)
(1.27842 -7.23808 2.21575e-19)
(1.29028 -7.00586 1.98772e-19)
(1.29719 -6.77525 3.60154e-19)
(1.29937 -6.54632 0)
(1.29741 -6.32029 1.34996e-19)
(1.29203 -6.09876 -1.44502e-19)
(1.28404 -5.88325 9.42483e-21)
(1.27416 -5.67505 2.23419e-19)
(1.26305 -5.47505 1.88513e-19)
(1.25125 -5.28374 -2.65374e-19)
(1.23914 -5.10115 8.73229e-20)
(1.22721 -4.92674 -1.3994e-19)
(1.2163 -4.75934 1.39241e-19)
(1.20494 -4.59751 -6.70345e-20)
(1.93719 -9.29624 4.03059e-19)
(1.54563 -8.74913 0)
(1.54688 -8.31907 3.48698e-19)
(1.55482 -7.99319 0)
(1.55835 -7.72301 0)
(1.56592 -7.47666 -2.64689e-19)
(1.5722 -7.2395 -4.67923e-19)
(1.57394 -7.00533 -3.90624e-19)
(1.5706 -6.77231 1.75544e-20)
(1.56253 -6.54089 -1.66339e-19)
(1.55044 -6.31255 0)
(1.5352 -6.08902 -1.35094e-19)
(1.5177 -5.8719 -2.41661e-19)
(1.49873 -5.6625 2.10146e-19)
(1.47899 -5.46171 -5.95092e-19)
(1.45904 -5.27001 9.63333e-20)
(1.43927 -5.08741 7.4826e-20)
(1.42015 -4.91335 -1.54753e-19)
(1.40259 -4.74652 -6.70067e-20)
(1.38466 -4.58552 1.99569e-19)
(2.30308 -9.22492 3.8466e-19)
(1.89484 -8.71218 3.74591e-19)
(1.88257 -8.29532 0)
(1.87975 -7.97736 0)
(1.87344 -7.71139 -5.49076e-19)
(1.87118 -7.46622 3.03926e-19)
(1.86737 -7.22838 7.14479e-19)
(1.85875 -6.99255 0)
(1.84488 -6.75747 1.84953e-19)
(1.8263 -6.52397 1.66339e-19)
(1.80386 -6.29376 -2.89996e-19)
(1.77857 -6.06869 4.20095e-19)
(1.7514 -5.85041 1.22035e-19)
(1.72322 -5.64025 0)
(1.69477 -5.43909 1.00097e-19)
(1.66662 -5.24742 4.44985e-19)
(1.63916 -5.06522 -2.65213e-19)
(1.61289 -4.89189 2.9414e-19)
(1.58872 -4.72602 -5.57886e-19)
(1.56425 -4.56628 6.46028e-19)
(2.66642 -9.13952 3.8996e-19)
(2.24355 -8.66169 -2.05369e-18)
(2.21866 -8.25828 0)
(2.20555 -7.94836 0)
(2.18957 -7.68667 0)
(2.17743 -7.44284 -5.27774e-19)
(2.16335 -7.20455 0)
(2.14412 -6.96737 -8.29576e-19)
(2.11948 -6.73061 7.60896e-19)
(2.09015 -6.49546 -7.01709e-19)
(2.05715 -6.26383 0)
(2.02163 -6.03769 0)
(1.98465 -5.81873 0)
(1.94717 -5.60827 -2.29712e-19)
(1.90995 -5.40719 0)
(1.87358 -5.21596 0)
(1.83844 -5.03456 -3.29866e-19)
(1.80505 -4.86234 3.24103e-19)
(1.77435 -4.69782 0)
(1.74339 -4.53979 0)
(3.02667 -9.04007 -1.27125e-18)
(2.59124 -8.59758 8.15143e-19)
(2.55463 -8.20783 0)
(2.53168 -7.90601 0)
(2.50616 -7.64869 0)
(2.48408 -7.40634 5.00458e-19)
(2.45954 -7.16785 -5.00712e-19)
(2.42947 -6.92966 -6.70016e-21)
(2.39382 -6.69163 -7.58171e-19)
(2.35351 -6.45528 7.07627e-19)
(2.30976 -6.22272 -3.15646e-19)
(2.26386 -5.996 5.4318e-19)
(2.21697 -5.77685 -4.18212e-20)
(2.17011 -5.56656 -4.87646e-19)
(2.12408 -5.366 -4.05745e-19)
(2.07947 -5.17563 3.98633e-19)
(2.03667 -4.99543 0)
(1.99623 -4.82472 0)
(1.9591 -4.66192 2.82174e-19)
(1.92174 -4.50606 -3.12402e-19)
(3.38328 -8.92665 8.49264e-19)
(2.93737 -8.51978 7.93612e-19)
(2.88993 -8.14382 -1.49716e-18)
(2.85755 -7.85015 7.03563e-19)
(2.82263 -7.59727 0)
(2.79053 -7.35659 5.35841e-19)
(2.75534 -7.11817 -4.63784e-19)
(2.7142 -6.87933 1.30563e-18)
(2.66731 -6.64045 -2.14813e-20)
(2.61582 -6.40338 0)
(2.56116 -6.1704 6.36428e-19)
(2.50475 -5.94361 0)
(2.44787 -5.72476 0)
(2.39157 -5.51512 -2.20693e-19)
(2.33671 -5.31554 4.46756e-19)
(2.28388 -5.12645 0)
(2.23346 -4.94785 3.44298e-19)
(2.18603 -4.77903 1.41285e-19)
(2.14257 -4.61835 -3.09397e-19)
(2.09892 -4.46511 2.99712e-19)
(3.73571 -8.79935 -8.70135e-19)
(3.28138 -8.42825 8.04433e-19)
(3.22401 -8.06615 -2.27905e-18)
(3.1826 -7.78065 7.13419e-19)
(3.13838 -7.5323 0)
(3.09616 -7.29346 -1.07522e-18)
(3.05014 -7.05541 5.15691e-19)
(2.99772 -6.8163 0)
(2.93936 -6.57703 -4.00564e-19)
(2.87652 -6.33974 -6.87359e-19)
(2.8108 -6.10685 -5.91796e-19)
(2.74379 -5.88053 4.83039e-20)
(2.67684 -5.66249 5.5213e-19)
(2.61108 -5.45399 2.20544e-19)
(2.54738 -5.25584 -3.33708e-20)
(2.48634 -5.06846 -4.14047e-19)
(2.42835 -4.89186 -1.83646e-19)
(2.37403 -4.72531 -1.64693e-19)
(2.32436 -4.56713 4.36206e-19)
(2.27457 -4.41696 -6.5401e-19)
(4.08342 -8.65828 8.70138e-19)
(3.62274 -8.32299 -4.46678e-20)
(3.55628 -7.97477 7.26777e-19)
(3.50622 -7.69743 0)
(3.45278 -7.45367 -5.9127e-19)
(3.40036 -7.21687 1.13409e-18)
(3.34332 -6.9795 -9.54618e-19)
(3.2794 -6.74054 9.39411e-19)
(3.2094 -6.50135 -3.72881e-19)
(3.13503 -6.26436 7.60497e-19)
(3.05814 -6.03211 3.25789e-19)
(2.98044 -5.80678 0)
(2.90339 -5.59008 0)
(2.82815 -5.38321 -2.28521e-19)
(2.75562 -5.18694 3.36486e-20)
(2.68641 -5.00169 8.13095e-19)
(2.62091 -4.82748 -2.01114e-19)
(2.55978 -4.6636 6.56185e-19)
(2.50403 -4.50829 1.12007e-19)
(2.44827 -4.36166 -6.6827e-19)
(4.42586 -8.5036 -2.66611e-18)
(3.96089 -8.20401 -8.81083e-19)
(3.88619 -7.86962 -2.33356e-18)
(3.82781 -7.6004 -1.40536e-18)
(3.76522 -7.36132 -6.62536e-19)
(3.70249 -7.12677 -6.46658e-19)
(3.63425 -6.89042 -2.07747e-18)
(3.55864 -6.65203 -4.42916e-20)
(3.47682 -6.41344 -1.64063e-18)
(3.3908 -6.17728 2.86509e-20)
(3.30264 -5.9462 -6.70704e-19)
(3.2142 -5.72242 -6.07044e-19)
(3.12702 -5.50757 5.50594e-19)
(3.04231 -5.30283 -5.00481e-19)
(2.96098 -5.10891 -4.55923e-19)
(2.88364 -4.92621 -4.1623e-19)
(2.81068 -4.75478 -1.11043e-18)
(2.74282 -4.59392 3.96961e-19)
(2.68114 -4.44185 9.51971e-19)
(2.6196 -4.29923 -1.01564e-18)
(4.76251 -8.33546 3.58111e-18)
(4.29527 -8.07137 4.33829e-18)
(4.21313 -7.75068 7.36148e-19)
(4.14676 -7.48953 3.50389e-18)
(4.07506 -7.2552 -6.82127e-19)
(4.00191 -7.02314 3.37004e-18)
(3.92231 -6.78816 9.74378e-19)
(3.83483 -6.55081 2.72345e-18)
(3.74104 -6.31331 -8.2819e-19)
(3.64325 -6.07854 2.27638e-18)
(3.54375 -5.8492 1.35048e-18)
(3.44454 -5.6275 1.22253e-18)
(3.34724 -5.41504 -1.64313e-18)
(3.25308 -5.21292 1.53312e-18)
(3.16299 -5.0218 9.18889e-19)
(3.07756 -4.84206 8.39156e-19)
(2.9972 -4.6738 7.67961e-19)
(2.92271 -4.51632 6.10668e-21)
(2.85522 -4.36787 6.4649e-19)
(2.78813 -4.22971 6.73685e-19)
(5.09287 -8.15406 -2.65058e-18)
(4.62535 -7.92515 9.6866e-19)
(4.53654 -7.61798 2.36084e-18)
(4.46245 -7.36481 -2.85763e-18)
(4.38167 -7.13531 6.59169e-19)
(4.29799 -6.90599 -2.25075e-18)
(4.20686 -6.67277 1.09923e-18)
(4.10736 -6.43692 -1.81964e-18)
(4.00147 -6.20105 4.42344e-20)
(3.89184 -5.96822 9.39918e-21)
(3.78096 -5.74117 -1.36823e-18)
(3.67097 -5.5221 -6.15486e-19)
(3.56356 -5.31255 1.12455e-18)
(3.45999 -5.11354 7.09774e-21)
(3.36117 -4.92567 -3.22764e-20)
(3.2677 -4.74931 -8.7821e-19)
(3.17999 -4.58459 -3.87177e-19)
(3.09892 -4.43084 -2.29427e-20)
(3.02575 -4.28636 -6.75393e-19)
(2.95334 -4.15316 -3.40298e-19)
(5.41645 -7.95959 0)
(4.95059 -7.76543 -1.78218e-18)
(4.85582 -7.47153 1.8259e-20)
(4.77426 -7.22626 2.84029e-18)
(4.68441 -7.00169 1.17107e-18)
(4.59009 -6.77536 -1.2248e-18)
(4.48728 -6.54431 -1.04284e-18)
(4.37562 -6.31045 0)
(4.25755 -6.07676 -8.1464e-19)
(4.13602 -5.84641 7.74952e-19)
(4.01375 -5.62222 -3.47094e-20)
(3.89301 -5.40632 0)
(3.77553 -5.20019 -5.66053e-19)
(3.66259 -5.00476 4.85021e-19)
(3.55508 -4.82057 4.00373e-19)
(3.45359 -4.64798 -4.90695e-19)
(3.35854 -4.48713 -4.22198e-19)
(3.27091 -4.33744 7.27299e-19)
(3.1921 -4.19731 -6.68809e-19)
(3.11455 -4.06962 3.52607e-19)
(5.73282 -7.75226 2.72562e-18)
(5.27047 -7.59231 -1.83366e-18)
(5.17038 -7.3114 -1.54163e-18)
(5.08156 -7.07391 7.11081e-19)
(4.98264 -6.85438 -1.3801e-18)
(4.87756 -6.63136 0)
(4.76296 -6.40288 0)
(4.63904 -6.17152 0)
(4.50871 -5.94055 -3.97521e-20)
(4.37527 -5.71326 -1.55431e-18)
(4.24163 -5.49247 7.3153e-19)
(4.11019 -5.28027 6.11077e-19)
(3.9827 -5.07804 5.1082e-19)
(3.86045 -4.88665 -2.10473e-18)
(3.74431 -4.70656 9.95111e-19)
(3.63482 -4.53808 0)
(3.53241 -4.38142 -2.58469e-20)
(3.43815 -4.23608 -1.1303e-18)
(3.35359 -4.1006 -4.87938e-21)
(3.27096 -3.97876 -3.52885e-19)
(6.04162 -7.53236 -1.85707e-18)
(5.58449 -7.40597 -9.66304e-19)
(5.47962 -7.13767 7.08636e-19)
(5.38372 -6.90786 -1.3833e-19)
(5.27571 -6.6935 -4.00083e-18)
(5.15979 -6.47407 3.59188e-18)
(5.03328 -6.24862 -4.64491e-20)
(4.89703 -6.02028 9.68757e-19)
(4.75442 -5.79258 8.63669e-19)
(4.60908 -5.56891 7.87397e-19)
(4.46414 -5.35207 7.12044e-19)
(4.32206 -5.14406 1.26332e-18)
(4.18467 -4.94622 -6.07216e-19)
(4.0532 -4.75929 1.55877e-18)
(3.92849 -4.58368 -1.00686e-18)
(3.81105 -4.41968 -4.11833e-19)
(3.70127 -4.26752 1.65649e-18)
(3.6003 -4.12679 1.10058e-18)
(3.50994 -3.99612 -2.35058e-20)
(3.42247 -3.88 0)
(6.34287 -7.30039 -9.42177e-19)
(5.89232 -7.2066 1.84045e-18)
(5.78295 -6.95042 1.58882e-18)
(5.68007 -6.72817 -1.39842e-19)
(5.56295 -6.51911 -1.35642e-18)
(5.4361 -6.30365 6.52172e-20)
(5.2976 -6.08169 1.04135e-20)
(5.14899 -5.85691 9.34204e-21)
(4.99413 -5.63305 0)
(4.83696 -5.41355 7.67523e-19)
(4.68081 -5.20116 -1.45899e-18)
(4.52822 -4.99784 -6.17972e-19)
(4.38102 -4.8048 6.13523e-19)
(4.24042 -4.62272 -5.33971e-19)
(4.1072 -4.45195 4.92449e-19)
(3.98182 -4.29277 -4.46111e-19)
(3.86467 -4.14546 4.28699e-21)
(3.75702 -4.00956 -3.76171e-19)
(3.66103 -3.8837 -3.46379e-19)
(3.5694 -3.77392 -3.46636e-19)
(6.63692 -7.05684 0)
(6.19377 -6.99414 -8.91717e-19)
(6.07978 -6.74955 8.81488e-19)
(5.96994 -6.53489 1.51671e-18)
(5.84371 -6.33141 -1.36139e-18)
(5.70587 -6.12031 1.16343e-18)
(5.55534 -5.90235 -2.23318e-18)
(5.39439 -5.68168 -1.96512e-18)
(5.22734 -5.46223 -8.48962e-19)
(5.05848 -5.24743 3.9681e-20)
(4.89127 -5.03999 -6.94535e-19)
(4.72833 -4.84177 3.07966e-20)
(4.57146 -4.65388 0)
(4.4218 -4.47693 -1.04577e-18)
(4.28002 -4.31122 5.34997e-19)
(4.14648 -4.15705 0)
(4.02161 -4.01465 -4.13536e-19)
(3.90682 -3.88342 -7.40184e-19)
(3.80435 -3.7628 7.27305e-19)
(3.7077 -3.66301 3.58352e-19)
(6.92342 -6.80093 0)
(6.48826 -6.76788 0)
(6.36947 -6.535 -1.61901e-18)
(6.25263 -6.32832 -1.37397e-18)
(6.11734 -6.13075 2.79695e-18)
(5.96852 -5.92444 0)
(5.80599 -5.711 0)
(5.63276 -5.495 9.87015e-19)
(5.45367 -5.2805 0)
(5.27329 -5.07093 0)
(5.09526 -4.8689 0)
(4.92223 -4.67615 0)
(4.75594 -4.49368 0)
(4.59743 -4.322 0)
(4.44716 -4.16133 0)
(4.30528 -4.01189 0)
(4.17208 -3.87367 0)
(4.0485 -3.7462 0)
(3.93497 -3.63181 0)
(3.82648 -3.54479 0)
(9.96528 0.0872406 1.30699e-19)
(9.94742 -0.305156 2.53601e-19)
(9.91441 -0.695104 -2.61174e-19)
(9.86686 -1.08246 5.20789e-19)
(9.80447 -1.46688 -5.20788e-19)
(9.72706 -1.84789 -4.89463e-19)
(9.63474 -2.22495 -4.88183e-19)
(9.5277 -2.59752 1.54674e-18)
(9.40617 -2.96506 -1.03056e-18)
(9.27039 -3.32703 1.02263e-18)
(9.12062 -3.68288 -1.02263e-18)
(8.95717 -4.03209 1.01572e-18)
(8.78033 -4.37413 -2.01586e-18)
(8.59045 -4.70852 2.96333e-18)
(8.38789 -5.03478 0)
(8.17301 -5.35246 -2.91653e-18)
(7.94619 -5.66114 1.29473e-20)
(7.70794 -5.96046 2.948e-18)
(7.45835 -6.25029 0)
(7.19907 -6.52993 0)
(9.90949 -0.211831 0)
(9.87282 -0.600091 -1.45084e-20)
(9.81984 -0.984927 0)
(9.75124 -1.36602 4.90565e-19)
(9.66725 -1.74298 5.12816e-19)
(9.56798 -2.11526 -1.47904e-18)
(9.4537 -2.48224 2.58811e-18)
(9.32473 -2.84333 -1.02038e-18)
(9.18143 -3.19795 -9.69275e-19)
(9.02413 -3.54555 -9.65563e-19)
(8.85322 -3.88557 4.30726e-20)
(8.6691 -4.21749 9.94485e-19)
(8.4722 -4.5408 -4.93919e-18)
(8.26297 -4.85504 -1.0452e-18)
(8.04185 -5.15974 1.97668e-18)
(7.80932 -5.4545 1.97907e-18)
(7.56581 -5.73895 1.0092e-18)
(7.31186 -6.01276 -1.93792e-18)
(7.04755 -6.27571 9.15061e-19)
(6.77374 -6.52744 0)
(9.76216 -0.15362 1.15401e-19)
(9.72885 -0.53389 -2.3681e-19)
(9.67884 -0.911355 6.81657e-19)
(9.61254 -1.28536 -4.85414e-19)
(9.53035 -1.65531 -4.60942e-19)
(9.43254 -2.02056 4.83288e-19)
(9.31947 -2.38042 0)
(9.19149 -2.73426 0)
(9.04898 -3.08144 1.82923e-18)
(8.89236 -3.42136 2.72909e-18)
(8.72203 -3.75345 -8.58926e-19)
(8.53846 -4.07715 2.69923e-18)
(8.34211 -4.39193 -8.55499e-19)
(8.13347 -4.69729 -2.62834e-18)
(7.91303 -4.99276 1.0938e-20)
(7.68131 -5.2779 1.68278e-18)
(7.4388 -5.55231 -7.53028e-19)
(7.18601 -5.81561 -1.65911e-18)
(6.92326 -6.06745 -9.04567e-19)
(6.65113 -6.30729 1.63314e-18)
(9.52911 -0.120102 0)
(9.50142 -0.488796 1.97246e-19)
(9.45728 -0.855464 1.96217e-19)
(9.39692 -1.21924 -8.08184e-19)
(9.32066 -1.57938 0)
(9.22878 -1.93518 0)
(9.12161 -2.28593 0)
(8.99949 -2.63095 0)
(8.8628 -2.96958 -8.59978e-19)
(8.71193 -3.30119 -8.56871e-19)
(8.54731 -3.62516 0)
(8.3694 -3.9409 1.6147e-18)
(8.17867 -4.24785 -3.9902e-18)
(7.97561 -4.54548 3.21214e-18)
(7.76074 -4.83329 -3.1092e-18)
(7.53458 -5.1108 -7.54446e-19)
(7.29765 -5.37756 1.4788e-19)
(7.05049 -5.63313 1.46671e-19)
(6.79356 -5.8771 -1.54311e-18)
(6.52748 -6.10898 -6.92057e-20)
(9.2338 -0.107392 0)
(9.21212 -0.462541 -1.94529e-19)
(9.17449 -0.816209 0)
(9.12104 -1.16754 3.89096e-19)
(9.05201 -1.51574 3.69587e-19)
(8.96762 -1.86011 3.35774e-19)
(8.86815 -2.19994 0)
(8.75393 -2.53452 0)
(8.62529 -2.86319 0)
(8.48259 -3.18528 0)
(8.32624 -3.50016 6.95954e-19)
(8.15668 -3.80724 7.54577e-19)
(7.97435 -4.10592 7.51293e-19)
(7.77974 -4.39564 -7.62234e-19)
(7.57336 -4.67587 -1.29739e-18)
(7.35571 -4.94611 1.49106e-18)
(7.12733 -5.20587 2.88696e-18)
(6.88876 -5.45466 1.40356e-18)
(6.64054 -5.69206 0)
(6.38324 -5.91758 -1.31813e-18)
(8.90115 -0.0981949 3.94982e-20)
(8.88518 -0.438481 0)
(8.85391 -0.77775 -6.47969e-19)
(8.80741 -1.1152 5.2867e-23)
(8.74583 -1.45007 1.46955e-20)
(8.66935 -1.78165 -6.2504e-20)
(8.57822 -2.10923 0)
(8.4727 -2.43212 2.8165e-20)
(8.35311 -2.74966 -6.58435e-19)
(8.21975 -3.06118 1.28105e-18)
(8.07301 -3.36606 -1.3401e-18)
(7.91327 -3.66368 7.37039e-19)
(7.74097 -3.95344 -3.82789e-18)
(7.55655 -4.23477 2.5237e-18)
(7.36048 -4.50714 1.34498e-18)
(7.15328 -4.76999 0)
(6.93544 -5.02284 -2.47134e-18)
(6.70751 -5.26518 -5.77851e-20)
(6.47002 -5.49655 -2.43571e-18)
(6.22351 -5.71644 2.54148e-18)
(8.55286 -0.0922202 3.52869e-20)
(8.5416 -0.417163 -7.41786e-20)
(8.51576 -0.741476 6.08989e-19)
(8.47538 -1.06442 -1.27089e-20)
(8.42054 -1.38525 6.08712e-19)
(8.35139 -1.70329 -9.19819e-19)
(8.26815 -2.01785 0)
(8.17104 -2.32826 6.20599e-19)
(8.06031 -2.63388 5.64856e-19)
(7.93626 -2.93405 -6.1709e-19)
(7.79921 -3.22815 1.12225e-18)
(7.64952 -3.51559 2.38989e-18)
(7.48758 -3.79576 -1.10557e-18)
(7.3138 -4.06811 -1.20701e-18)
(7.12864 -4.33208 1.15356e-18)
(6.93256 -4.58714 0)
(6.72604 -4.83276 5.91136e-20)
(6.50961 -5.06844 7.99458e-21)
(6.28377 -5.2937 2.29922e-18)
(6.04905 -5.50802 1.06402e-18)
(8.2051 -0.0893699 0)
(8.19733 -0.399159 5.5891e-21)
(8.17572 -0.708611 -1.22427e-19)
(8.14028 -1.01703 -5.47193e-19)
(8.09108 -1.32374 5.12193e-19)
(8.02823 -1.62805 0)
(7.9519 -1.92934 1.04351e-18)
(7.86229 -2.22696 -1.21056e-21)
(7.75962 -2.52027 -1.5958e-18)
(7.64413 -2.80868 0)
(7.51613 -3.09156 -1.10439e-18)
(7.37594 -3.36835 4.14194e-20)
(7.2239 -3.63846 -3.09192e-18)
(7.06041 -3.90135 5.45271e-21)
(6.88587 -4.15646 1.0372e-18)
(6.70074 -4.40327 0)
(6.50546 -4.64126 -1.01825e-18)
(6.30052 -4.86991 7.16022e-21)
(6.08643 -5.08875 1.0111e-18)
(5.86365 -5.29725 -1.04708e-18)
(7.8685 -0.0885522 0)
(7.86309 -0.383789 1.25856e-19)
(7.84457 -0.678891 2.61584e-19)
(7.81293 -0.973214 -4.81849e-19)
(7.76823 -1.26611 -2.21344e-20)
(7.71054 -1.55695 -2.40756e-19)
(7.64001 -1.84512 -9.63843e-19)
(7.55682 -2.13002 4.78922e-19)
(7.46115 -2.41105 2.13451e-20)
(7.35323 -2.68763 4.75918e-19)
(7.23332 -2.95918 4.35794e-19)
(7.10171 -3.22514 1.89762e-18)
(6.95873 -3.48498 9.49439e-19)
(6.80473 -3.73814 1.87377e-18)
(6.6401 -3.98412 -9.34395e-19)
(6.46525 -4.22239 3.47535e-20)
(6.28062 -4.45244 -9.23279e-19)
(6.08668 -4.67377 0)
(5.88389 -4.88589 8.70339e-19)
(5.6727 -5.08827 0)
(7.54924 -0.0888573 5.43785e-20)
(7.54526 -0.370365 -1.59023e-19)
(7.52886 -0.65187 4.36848e-19)
(7.50003 -0.932768 -2.17815e-19)
(7.45879 -1.21245 1.67569e-20)
(7.40523 -1.49033 -2.17647e-19)
(7.33945 -1.76583 4.53539e-19)
(7.26162 -2.03838 -4.32797e-19)
(7.1719 -2.30742 4.32795e-19)
(7.07049 -2.57239 8.27948e-19)
(6.95764 -2.83276 -8.96455e-19)
(6.8336 -3.08799 -4.01221e-20)
(6.69869 -3.33757 -2.58931e-18)
(6.55322 -3.58099 4.62396e-21)
(6.39757 -3.81776 3.56019e-20)
(6.23212 -4.04738 1.67672e-18)
(6.0573 -4.26935 -8.27833e-19)
(5.87355 -4.48319 -7.86349e-19)
(5.68133 -4.6884 -3.38247e-20)
(5.48107 -4.88446 0)
(7.25022 -0.0896732 0)
(7.24698 -0.358375 2.01603e-19)
(7.23196 -0.627149 -6.9237e-19)
(7.20514 -0.89543 -1.82863e-19)
(7.16653 -1.16265 4.11583e-19)
(7.1162 -1.42825 0)
(7.05427 -1.69169 0)
(6.98086 -1.95244 3.92168e-19)
(6.89614 -2.20996 -3.92166e-19)
(6.80027 -2.46373 3.2661e-19)
(6.69349 -2.71326 -3.89448e-19)
(6.57604 -2.95804 7.71909e-19)
(6.44819 -3.19759 -1.5398e-18)
(6.31027 -3.43144 1.53144e-18)
(6.16261 -3.65911 3.07585e-20)
(6.0056 -3.88014 -7.89407e-19)
(5.83965 -4.09406 -7.4887e-19)
(5.66519 -4.3004 1.52763e-18)
(5.48269 -4.49866 7.12136e-19)
(5.29255 -4.68831 0)
(6.97221 -0.0905946 1.62604e-21)
(6.96922 -0.347424 1.31509e-19)
(6.95503 -0.60436 2.76776e-19)
(6.92961 -0.860873 1.94217e-19)
(6.89298 -1.11643 1.79375e-19)
(6.8452 -1.3705 1.6621e-19)
(6.78637 -1.62258 0)
(6.71661 -1.87217 -6.87879e-19)
(6.63606 -2.11876 -3.55087e-19)
(6.54489 -2.36187 3.00001e-19)
(6.44331 -2.60103 0)
(6.33155 -2.83577 7.00662e-19)
(6.20988 -3.06565 -2.07057e-18)
(6.07857 -3.29021 6.96838e-19)
(5.93798 -3.50904 0)
(5.78847 -3.72169 -6.60584e-19)
(5.63046 -3.92772 -1.335e-18)
(5.46436 -4.1267 6.56217e-19)
(5.29068 -4.31812 -2.58497e-20)
(5.1098 -4.50143 0)
(6.71462 -0.0913515 2.99603e-21)
(6.71156 -0.337209 -8.50662e-20)
(6.69782 -0.583178 1.63808e-19)
(6.67337 -0.828761 -1.12885e-20)
(6.63824 -1.07346 3.27216e-19)
(6.59247 -1.31677 -5.03089e-19)
(6.53617 -1.55821 0)
(6.46943 -1.79732 4.84494e-20)
(6.39241 -2.03362 0)
(6.30525 -2.26665 -6.7115e-19)
(6.20815 -2.49598 0)
(6.10132 -2.72117 -6.16617e-19)
(5.98501 -2.94181 1.90842e-18)
(5.85952 -3.15748 -1.26392e-18)
(5.72515 -3.36781 6.3e-19)
(5.58227 -3.57239 -5.5328e-19)
(5.43131 -3.77081 6.44604e-19)
(5.27271 -3.96268 -6.39929e-19)
(5.10699 -4.14748 0)
(4.93455 -4.32467 0)
(6.47613 -0.0918216 3.88001e-20)
(6.47282 -0.327527 0)
(6.45929 -0.563338 0)
(6.43552 -0.798782 -3.10708e-19)
(6.40153 -1.03338 -2.89082e-19)
(6.35739 -1.26667 0)
(6.30318 -1.4982 0)
(6.239 -1.7275 4.272e-20)
(6.16498 -1.95415 5.71642e-19)
(6.08128 -2.17771 -2.75219e-19)
(5.98806 -2.39778 -2.93919e-19)
(5.88553 -2.61394 1.18744e-18)
(5.77394 -2.82582 -1.76206e-18)
(5.65355 -3.03305 1.13425e-18)
(5.52467 -3.23527 0)
(5.38766 -3.43216 2.27813e-18)
(5.24296 -3.62333 -1.65054e-18)
(5.09103 -3.80845 5.62024e-19)
(4.93248 -3.98697 1.07181e-18)
(4.76771 -4.1584 0)
(6.25515 -0.0919292 -3.3189e-20)
(6.25146 -0.318228 0)
(6.23797 -0.544622 -4.393e-21)
(6.21469 -0.770658 -2.65405e-19)
(6.18162 -0.995881 8.23199e-19)
(6.13883 -1.21985 -1.36895e-19)
(6.08639 -1.44212 0)
(6.02442 -1.66228 1.08973e-18)
(5.95301 -1.87991 -5.61631e-19)
(5.87233 -2.0946 3.77905e-20)
(5.78253 -2.30596 5.18631e-19)
(5.68381 -2.51363 5.31759e-19)
(5.57639 -2.71726 -1.0601e-18)
(5.46052 -2.91651 -1.0357e-18)
(5.33651 -3.11107 -1.01017e-18)
(5.20471 -3.30067 -1.07752e-18)
(5.06557 -3.48498 1.06946e-18)
(4.91955 -3.66379 -5.08984e-19)
(4.76745 -3.83647 -5.4405e-19)
(4.6096 -4.00267 0)
(6.04989 -0.0916383 3.26073e-20)
(6.04578 -0.30921 -1.22204e-19)
(6.03226 -0.526858 -1.26634e-19)
(6.00935 -0.744147 3.78964e-19)
(5.97705 -0.960645 -1.34809e-19)
(5.93542 -1.17593 -1.25707e-19)
(5.88455 -1.38959 0)
(5.82452 -1.60122 -5.16747e-19)
(5.75545 -1.81042 0)
(5.67747 -2.01681 5.12244e-19)
(5.59074 -2.22003 -9.85544e-19)
(5.49544 -2.41974 4.87286e-19)
(5.39178 -2.61561 -9.71244e-19)
(5.27998 -2.80736 1.00328e-18)
(5.16034 -2.9947 5.47295e-19)
(5.03318 -3.17747 0)
(4.89898 -3.35534 -4.69146e-19)
(4.7582 -3.52833 4.69147e-19)
(4.61187 -3.69565 0)
(4.4602 -3.85743 0)
(5.85867 -0.0910077 0)
(5.85414 -0.300443 1.20064e-19)
(5.84057 -0.50993 3.96543e-21)
(5.81797 -0.719055 -1.23808e-19)
(5.78636 -0.927407 -1.08915e-19)
(5.7458 -1.13458 -1.1569e-19)
(5.69635 -1.34019 4.4663e-19)
(5.63811 -1.54385 0)
(5.5712 -1.74517 0)
(5.49572 -1.94381 2.26631e-19)
(5.41184 -2.13941 2.41038e-19)
(5.31971 -2.33166 8.69845e-19)
(5.21952 -2.52027 -4.44221e-19)
(5.11147 -2.70497 4.44221e-19)
(4.99584 -2.88555 4.72216e-19)
(4.87291 -3.0619 2.82075e-20)
(4.74315 -3.23376 -8.63289e-19)
(4.607 -3.40147 3.5683e-21)
(4.46588 -3.5639 4.26233e-19)
(4.31954 -3.72229 0)
(5.67994 -0.0900387 -2.67953e-20)
(5.67503 -0.291897 2.6795e-20)
(5.66143 -0.493787 0)
(5.63914 -0.69531 1.00844e-19)
(5.6082 -0.896074 3.27627e-19)
(5.56865 -1.0957 -4.1365e-19)
(5.52058 -1.2938 -4.38828e-19)
(5.46406 -1.49002 0)
(5.39921 -1.684 0)
(5.32614 -1.8754 0)
(5.24498 -2.0639 -8.07275e-19)
(5.15588 -2.2492 -5.30062e-20)
(5.05902 -2.43102 -4.08604e-19)
(4.95456 -2.60915 2.48358e-20)
(4.84272 -2.78341 -8.069e-19)
(4.72374 -2.95376 1.22942e-18)
(4.59808 -3.12005 -1.16197e-18)
(4.46602 -3.28305 3.94433e-19)
(4.3296 -3.44113 7.53946e-19)
(4.18746 -3.59736 0)
(5.51229 -0.0884292 2.40702e-20)
(5.50707 -0.283402 0)
(5.49349 -0.478401 -9.9025e-20)
(5.47155 -0.673039 -2.04014e-19)
(5.44128 -0.866939 9.88636e-20)
(5.40274 -1.05974 7.89019e-19)
(5.35599 -1.25108 0)
(5.30113 -1.44061 -3.795e-19)
(5.23824 -1.628 -1.93904e-19)
(5.16745 -1.81293 -3.64061e-19)
(5.08887 -1.99509 -1.45247e-19)
(5.00263 -2.1742 -1.14806e-18)
(4.90887 -2.35002 -7.56836e-19)
(4.80773 -2.52233 7.78552e-19)
(4.69939 -2.691 7.43696e-19)
(4.58393 -2.85606 -3.57156e-21)
(4.46185 -3.01747 2.46596e-20)
(4.33291 -3.17655 3.62977e-19)
(4.20024 -3.33148 -7.40827e-19)
(4.05999 -3.48821 0)
(5.35436 -0.0866182 -5.03398e-20)
(5.34895 -0.275044 2.47831e-20)
(5.33551 -0.463561 -9.89608e-20)
(5.31403 -0.651817 9.89213e-20)
(5.28454 -0.839459 -2.84457e-19)
(5.24707 -1.02614 -8.85078e-19)
(5.2017 -1.21153 0)
(5.14849 -1.39529 4.01748e-19)
(5.08752 -1.5771 -3.75383e-19)
(5.01889 -1.75666 7.94344e-19)
(4.94268 -1.93367 7.88995e-19)
(4.859 -2.10788 1.16116e-18)
(4.76796 -2.27904 -7.5274e-19)
(4.66963 -2.44694 3.74761e-19)
(4.56415 -2.61146 -3.6773e-19)
(4.45137 -2.77262 3.6776e-19)
(4.33188 -2.93049 0)
(4.20424 -3.08667 3.3179e-19)
(4.07405 -3.23969 -3.23516e-19)
(3.93222 -3.40318 0)
(7.06371 7.18504 0)
(7.34088 6.8985 0)
(7.60542 6.60256 9.7115e-19)
(7.85805 6.29773 1.6316e-20)
(8.09819 5.9837 -1.03237e-18)
(8.32518 5.66048 0)
(8.53863 5.32847 1.06214e-18)
(8.7382 4.98817 -1.99501e-18)
(8.92358 4.64015 -1.00729e-18)
(9.09447 4.285 -1.01591e-18)
(9.25061 3.92332 1.0159e-18)
(9.39176 3.55573 -1.02576e-18)
(9.51773 3.18289 5.11771e-19)
(9.62836 2.80547 4.85448e-19)
(9.72351 2.42412 4.87197e-19)
(9.80309 2.03952 -5.19733e-19)
(9.86699 1.6523 5.19734e-19)
(9.91527 1.26316 -2.60844e-19)
(9.9479 0.872456 -1.23199e-19)
(9.96534 0.481529 6.5258e-20)
(7.24214 6.90132 0)
(7.51501 6.61762 -8.78326e-19)
(7.7745 6.32288 -1.88151e-18)
(8.02098 6.01779 2.77884e-18)
(8.25427 5.70264 -1.93011e-18)
(8.47385 5.37779 1.93414e-18)
(8.67929 5.0438 1.05623e-18)
(8.8702 4.70128 -2.9841e-18)
(9.04622 4.35089 9.75415e-19)
(9.20697 3.99332 1.93327e-18)
(9.35212 3.62923 9.50192e-19)
(9.48144 3.2593 9.55777e-19)
(9.59473 2.8843 -1.01149e-18)
(9.6918 2.50498 1.48579e-18)
(9.77254 2.12208 -2.06885e-18)
(9.83687 1.73631 5.09728e-19)
(9.88465 1.34837 -4.87955e-19)
(9.91588 0.959029 0)
(9.93046 0.568836 1.45894e-20)
(9.92872 0.178732 0)
(7.04375 6.72798 -1.53721e-18)
(7.3163 6.46208 8.68277e-19)
(7.57669 6.18407 1.57542e-18)
(7.82458 5.89461 7.06283e-19)
(8.05963 5.59427 1.79405e-18)
(8.28133 5.28357 1.62099e-20)
(8.48922 4.96315 -8.984e-19)
(8.68285 4.63363 -2.66905e-18)
(8.86184 4.29573 2.63073e-18)
(9.02582 3.95005 -2.70239e-18)
(9.1743 3.59728 -8.99438e-19)
(9.30704 3.23814 -1.79813e-18)
(9.42381 2.87344 0)
(9.52435 2.50394 0)
(9.60845 2.13039 0)
(9.67595 1.75352 -4.5743e-19)
(9.72679 1.37409 4.81001e-19)
(9.76097 0.992938 4.58795e-19)
(9.77832 0.610756 5.9428e-21)
(9.77876 0.228445 1.15188e-19)
(6.78863 6.45669 1.59992e-18)
(7.0558 6.20889 -1.44379e-18)
(7.31201 5.94883 -1.57872e-19)
(7.55664 5.67706 -1.58628e-19)
(7.78918 5.39416 3.73902e-18)
(8.00912 5.10066 -6.70654e-20)
(8.21598 4.79716 2.19452e-21)
(8.40928 4.48428 -2.36322e-18)
(8.58851 4.16262 1.55724e-18)
(8.75332 3.83278 0)
(8.90328 3.49547 8.3704e-19)
(9.038 3.15153 8.42444e-19)
(9.15728 2.80168 0)
(9.2608 2.44659 0)
(9.34831 2.08703 0)
(9.4196 1.7238 0)
(9.47455 1.35768 -1.99103e-20)
(9.51308 0.989453 4.10304e-19)
(9.53507 0.619842 -1.96368e-19)
(9.54042 0.249712 0)
(6.5123 6.13906 1.34284e-18)
(6.77061 5.90824 0)
(7.019 5.66543 -3.93217e-18)
(7.25678 5.41106 -1.33945e-18)
(7.48336 5.14566 -1.41103e-18)
(7.6982 4.86971 -1.49797e-18)
(7.90083 4.58377 7.06605e-19)
(8.09072 4.28839 -7.40309e-19)
(8.2674 3.98412 2.04809e-18)
(8.43041 3.67164 -6.68669e-19)
(8.57948 3.35163 0)
(8.71415 3.02481 0)
(8.83399 2.69177 0)
(8.93879 2.35319 0)
(9.02829 2.00986 -1.05496e-18)
(9.10224 1.66255 3.63407e-19)
(9.16047 1.31199 -3.85019e-19)
(9.20285 0.95894 0)
(9.22927 0.604149 1.93664e-19)
(9.23958 0.248428 0)
(6.22971 5.81543 1.13604e-18)
(6.47745 5.60006 -4.53854e-20)
(6.71614 5.37315 2.39054e-18)
(6.94509 5.13506 1.19182e-18)
(7.1637 4.88622 0)
(7.37143 4.6271 -1.2679e-18)
(7.56779 4.35819 6.19396e-20)
(7.75228 4.08002 -1.28478e-18)
(7.92444 3.79312 1.76618e-18)
(8.08381 3.49811 3.03583e-20)
(8.23004 3.19559 2.59413e-20)
(8.36274 2.8861 -6.38095e-19)
(8.4815 2.5703 1.24959e-18)
(8.58604 2.24891 0)
(8.67616 1.92256 6.25381e-20)
(8.75153 1.59202 6.37311e-19)
(8.81192 1.25802 1.31749e-21)
(8.85719 0.921252 -1.4012e-20)
(8.88723 0.582452 0)
(8.90187 0.242371 -3.94231e-20)
(5.95701 5.50269 0)
(6.19342 5.30095 -4.60882e-20)
(6.4215 5.0882 1.42966e-20)
(6.64059 4.86474 -2.14552e-18)
(6.85009 4.63095 0)
(7.04949 4.38725 1.08146e-18)
(7.23829 4.13411 1.15499e-18)
(7.41604 3.87199 -3.35293e-18)
(7.58227 3.60139 -6.172e-20)
(7.73656 3.32285 -1.07144e-18)
(7.87852 3.03693 5.93346e-19)
(8.00778 2.74416 -5.44626e-19)
(8.12399 2.44518 -6.02119e-19)
(8.22675 2.14061 0)
(8.31591 1.83111 3.18422e-19)
(8.39129 1.51722 -1.52727e-20)
(8.4525 1.19975 -2.93631e-19)
(8.49937 0.879384 -1.51517e-20)
(8.5318 0.556792 -7.3885e-20)
(8.54962 0.232671 1.48105e-19)
(5.70271 5.20946 0)
(5.92773 5.01956 9.20504e-19)
(6.14498 4.81921 1.32062e-20)
(6.35385 4.60866 -9.33685e-19)
(6.55378 4.38826 0)
(6.74427 4.15839 9.70032e-19)
(6.92485 3.91946 -9.23608e-19)
(7.09508 3.6719 -1.02742e-18)
(7.25454 3.41618 1.94595e-18)
(7.4028 3.15278 1.0544e-18)
(7.5395 2.88223 0)
(7.66428 2.60504 5.12783e-19)
(7.77679 2.32179 -3.58939e-21)
(7.87675 2.03306 1.98362e-20)
(7.96376 1.7395 0)
(8.03774 1.44164 -5.02609e-19)
(8.09854 1.14006 -2.63922e-19)
(8.14579 0.835508 3.84962e-19)
(8.17937 0.528649 2.59609e-19)
(8.19912 0.220121 -3.48383e-20)
(5.46964 4.93954 0)
(5.68361 4.75992 -7.87456e-19)
(5.89029 4.57039 0)
(6.08909 4.37119 -8.51369e-19)
(6.27947 4.16262 1.67364e-18)
(6.46097 3.94503 -1.70609e-18)
(6.63315 3.71879 2.67579e-18)
(6.79559 3.4843 -2.66519e-18)
(6.94789 3.24199 -1.8004e-18)
(7.08967 2.99232 -1.32486e-18)
(7.22057 2.73576 4.55072e-19)
(7.34024 2.47283 -9.4458e-19)
(7.44838 2.20404 1.68254e-20)
(7.54468 1.92994 9.37583e-19)
(7.62888 1.65108 -2.35742e-19)
(7.70065 1.36813 9.67044e-19)
(7.75992 1.08152 -4.74865e-19)
(7.80655 0.791891 2.17526e-19)
(7.84027 0.499922 -1.25084e-19)
(7.8609 0.206223 0)
(5.25768 4.69338 0)
(5.46122 4.52271 1.52075e-18)
(5.65785 4.34268 7.3397e-19)
(5.847 4.15349 -7.57755e-19)
(6.02818 3.9554 -1.55228e-18)
(6.20093 3.74871 2.36131e-18)
(6.36487 3.53379 9.32291e-21)
(6.51959 3.31099 -7.66797e-19)
(6.66473 3.08072 1.65388e-18)
(6.79992 2.84341 8.55236e-19)
(6.92483 2.59952 -7.94732e-19)
(7.03914 2.34952 4.18248e-19)
(7.14255 2.09389 2.00191e-20)
(7.23478 1.83316 -4.41233e-19)
(7.31557 1.56785 -2.132e-19)
(7.38468 1.2985 4.27473e-19)
(7.44189 1.02573 -2.14273e-19)
(7.4871 0.749994 -4.32451e-19)
(7.52019 0.471917 4.98654e-20)