/*--------------------------------*- C++ -*----------------------------------*\
  =========                 |
  \\      /  F ield         | OpenFOAM: The Open Source CFD Toolbox
   \\    /   O peration     | Website:  https://openfoam.org
    \\  /    A nd           | Version:  6.0
     \\/     M anipulation  |
\*---------------------------------------------------------------------------*/
FoamFile
{
    version     2.0;
    format      ascii;
    class       surfaceScalarField;
    location    "0.25";
    object      phi;
}
// * * * * * * * * * * * * * * * * * * * * * * * * * * * * * * * * * * * * * //

dimensions      [0 3 -1 0 0 0 0];

internalField   nonuniform List<scalar> 
18940
(
-4.05606e-05
-0.40107
0.40111
-1.1571e-07
-0.343448
0.343407
8.24291e-05
-0.290729
0.290647
0.000201464
-0.243159
0.24304
0.00038074
-0.201201
0.201022
0.000650295
-0.164707
0.164437
0.00103878
-0.133353
0.132964
0.00156894
-0.106726
0.106196
0.00225456
-0.0843597
0.0836741
0.00309951
-0.0657748
0.0649299
0.00409846
-0.0505057
0.0495068
0.00523861
-0.0381116
0.0369715
0.00650187
-0.0281825
0.0269193
0.00786704
-0.0203413
0.0189761
0.00931175
-0.0142455
0.0128008
0.0108139
-0.00958922
0.00808709
0.0123526
-0.00610439
0.00456569
0.0139088
-0.00356212
0.00200592
0.0154648
-0.00177314
0.000217135
-0.000589355
-0.000949949
0.0170041
-1.67398e-05
-0.401053
1.96577e-05
-0.343484
9.15152e-05
-0.290801
0.000197841
-0.243265
0.000361095
-0.201364
0.000611972
-0.164957
0.000979976
-0.133721
0.0014885
-0.107235
0.00215195
-0.0850231
0.00297486
-0.0665977
0.00395255
-0.0514834
0.00507279
-0.0392319
0.00631795
-0.0294277
0.00766719
-0.0216905
0.00909829
-0.0156766
0.0105892
-0.0110801
0.0121188
-0.00763398
0.0136677
-0.00511103
0.0152181
-0.00332354
-0.00212434
0.0167531
6.62291e-06
-0.40106
3.89118e-05
-0.343517
9.90068e-05
-0.290861
0.000192192
-0.243358
0.000339855
-0.201512
0.000572513
-0.16519
0.000920329
-0.134069
0.00140738
-0.107722
0.00204874
-0.0856645
0.00284958
-0.0673986
0.00380581
-0.0524396
0.00490575
-0.0403318
0.00613219
-0.0306541
0.00746458
-0.0230229
0.00888091
-0.017093
0.0103591
-0.0125583
0.0118781
-0.00915296
0.0134181
-0.00665107
0.0149613
-0.0048667
-0.00365346
0.0164904
1.12864e-05
-0.401071
4.6528e-05
-0.343552
0.000101078
-0.290916
0.000183529
-0.243441
0.000316775
-0.201645
0.000531923
-0.165405
0.000859908
-0.134397
0.00132561
-0.108187
0.00194483
-0.0862837
0.0027234
-0.0681772
0.00365784
-0.0533741
0.00473697
-0.0414109
0.00594399
-0.0318611
0.00725863
-0.0243376
0.00865905
-0.0184934
0.0101232
-0.0140225
0.01163
-0.0106598
0.0131597
-0.00818076
0.014694
-0.00640099
-0.00517525
0.0162158
1.61846e-05
-0.401087
5.18655e-05
-0.343588
0.000100846
-0.290965
0.000172879
-0.243513
0.000291961
-0.201764
0.000489866
-0.165603
0.000798222
-0.134705
0.00124265
-0.108632
0.00183968
-0.0868807
0.00259577
-0.0689333
0.00350805
-0.0542863
0.00456584
-0.0424687
0.00575272
-0.033048
0.00704872
-0.0256336
0.00843214
-0.0198768
0.00988108
-0.0154714
0.0113744
-0.012153
0.0128922
-0.00969858
0.0144162
-0.00792503
-0.00668822
0.0159292
1.74089e-05
-0.401104
5.31867e-05
-0.343623
9.76795e-05
-0.291009
0.000160169
-0.243575
0.000265523
-0.20187
0.000446395
-0.165784
0.000735206
-0.134994
0.00115834
-0.109055
0.001733
-0.0874554
0.00246633
-0.0696666
0.00335599
-0.055176
0.00439181
-0.0435045
0.00555777
-0.034214
0.00683418
-0.02691
0.00819954
-0.0212422
0.00963203
-0.0169039
0.0111106
-0.0136316
0.0126152
-0.0112032
0.0141276
-0.00943745
-0.00819116
0.0156306
1.84534e-05
-0.401123
5.34314e-05
-0.343658
9.30696e-05
-0.291049
0.000146006
-0.243628
0.000237661
-0.201961
0.000401501
-0.165948
0.000670725
-0.135263
0.00107243
-0.109457
0.00162451
-0.0880075
0.00233469
-0.0703768
0.00320121
-0.0560425
0.00421437
-0.0445177
0.00535856
-0.0353582
0.00661438
-0.0281658
0.00796056
-0.0225883
0.0093754
-0.0183187
0.0108379
-0.015094
0.0123281
-0.0126935
0.0138277
-0.010937
-0.00968292
0.0153194
1.8543e-05
-0.401141
5.23942e-05
-0.343692
8.71588e-05
-0.291083
0.000130566
-0.243672
0.000208494
-0.202039
0.000355217
-0.166095
0.000604715
-0.135513
0.00098479
-0.109837
0.00151395
-0.0885366
0.00220054
-0.0710633
0.0030433
-0.0568853
0.00403303
-0.0455074
0.00515453
-0.0364797
0.00638871
-0.0294
0.00771452
-0.0239141
0.00911047
-0.0197147
0.0105556
-0.0165392
0.0120302
-0.0141681
0.0135158
-0.0124226
-0.0111625
0.0149954
1.84028e-05
-0.40116
5.09035e-05
-0.343725
8.05541e-05
-0.291113
0.000114205
-0.243705
0.000178191
-0.202103
0.000307585
-0.166224
0.000537126
-0.135742
0.000895276
-0.110195
0.00140114
-0.0890425
0.00206358
-0.0717258
0.00288188
-0.0577036
0.0038473
-0.0464728
0.00494506
-0.0375774
0.00615644
-0.0306114
0.00746067
-0.0252184
0.00883645
-0.0210905
0.010263
-0.0179657
0.0117208
-0.0156259
0.0131915
-0.0138933
-0.0126289
0.0146579
1.79707e-05
-0.401178
4.90797e-05
-0.343756
7.34775e-05
-0.291137
9.71192e-05
-0.243729
0.00014688
-0.202153
0.000258658
-0.166336
0.000467938
-0.135951
0.000803805
-0.110531
0.0012859
-0.0895246
0.00192359
-0.0723635
0.00271663
-0.0584966
0.00365674
-0.0474129
0.0047296
-0.0386503
0.00591689
-0.0317986
0.00719819
-0.0264997
0.00855247
-0.0224448
0.00995923
-0.0193725
0.011399
-0.0170657
0.0128537
-0.015348
-0.0140816
0.0143064
1.75262e-05
-0.401195
4.7296e-05
-0.343786
6.6265e-05
-0.291156
7.95577e-05
-0.243742
0.000114716
-0.202188
0.000208511
-0.16643
0.000397159
-0.13614
0.000710331
-0.110844
0.00116815
-0.0899824
0.00178041
-0.0729757
0.00254732
-0.0592635
0.00346103
-0.0483266
0.00450769
-0.0396969
0.00566945
-0.0329604
0.0069263
-0.0277565
0.00825762
-0.0237761
0.0096432
-0.0207581
0.0110639
-0.0184864
0.0125018
-0.0167859
-0.0155199
0.01394
1.72626e-05
-0.401213
4.58533e-05
-0.343814
5.9207e-05
-0.29117
6.17632e-05
-0.243745
8.1869e-05
-0.202208
0.000157242
-0.166505
0.000324829
-0.136308
0.000614847
-0.111134
0.00104784
-0.0904154
0.00163399
-0.0735619
0.00237384
-0.0600034
0.00325997
-0.0492128
0.00427901
-0.040716
0.00541361
-0.034095
0.00664432
-0.0289872
0.00795102
-0.0250828
0.00931395
-0.022121
0.0107143
-0.0198867
0.0121345
-0.018206
-0.0169432
0.0135578
1.76119e-05
-0.40123
4.52773e-05
-0.343842
5.27344e-05
-0.291177
4.40442e-05
-0.243736
4.85429e-05
-0.202213
0.000104966
-0.166561
0.000251002
-0.136454
0.000517375
-0.1114
0.000924996
-0.090823
0.00148432
-0.0741212
0.00219619
-0.0607153
0.00305353
-0.0500701
0.00404342
-0.0417059
0.00514906
-0.0352006
0.00635165
-0.0301898
0.00763178
-0.0263629
0.00897031
-0.0234595
0.010349
-0.0212654
0.0117505
-0.0196076
-0.0183509
0.0131583
1.92548e-05
-0.401249
4.63365e-05
-0.343869
4.73661e-05
-0.291178
2.67295e-05
-0.243715
1.4929e-05
-0.202201
5.1788e-05
-0.166598
0.000175729
-0.136578
0.000417946
-0.111643
0.000799648
-0.0912047
0.00133149
-0.074653
0.0020145
-0.0613983
0.00284186
-0.0508975
0.00380101
-0.042665
0.00487574
-0.0362754
0.00604798
-0.0313621
0.00729918
-0.0276141
0.00861113
-0.0247715
0.00996634
-0.0226206
0.011348
-0.0209892
-0.0197424
0.0127395
2.31939e-05
-0.401273
4.99655e-05
-0.343896
4.35904e-05
-0.291172
1.00812e-05
-0.243682
-1.8799e-05
-0.202172
-2.1922e-06
-0.166615
9.9054e-05
-0.136679
0.000316583
-0.11186
0.000671846
-0.09156
0.00117562
-0.0751568
0.00182899
-0.0620517
0.00262527
-0.0516938
0.00355216
-0.0435919
0.00459393
-0.0373172
0.00573332
-0.0325015
0.00695278
-0.0288336
0.00823533
-0.0260541
0.00956466
-0.02395
0.0109246
-0.0223492
-0.0211164
0.0122986
3.04066e-05
-0.401303
5.68058e-05
-0.343922
4.17128e-05
-0.291157
-5.64488e-06
-0.243634
-5.23991e-05
-0.202125
-5.68166e-05
-0.16661
2.10366e-05
-0.136757
0.000213282
-0.112052
0.000541597
-0.0918883
0.0010168
-0.075632
0.00163995
-0.0626748
0.00240428
-0.0524581
0.00329756
-0.0444852
0.00430439
-0.038324
0.00540824
-0.0336053
0.0065927
-0.030018
0.00784225
-0.0273036
0.0091423
-0.02525
0.010478
-0.0236848
-0.0224707
0.0118323
4.14458e-05
-0.401344
6.74805e-05
-0.343948
4.26002e-05
-0.291132
-1.96829e-05
-0.243572
-8.53659e-05
-0.20206
-0.000111843
-0.166584
-5.82807e-05
-0.13681
0.000107985
-0.112219
0.000408837
-0.0921892
0.000855088
-0.0760783
0.00144764
-0.0632673
0.00217948
-0.0531899
0.0030382
-0.0453439
0.00400867
-0.0392945
0.00507458
-0.0346712
0.0062205
-0.0311639
0.00743256
-0.0285157
0.00869848
-0.0265159
0.0100058
-0.0249922
-0.0238024
0.0113375
5.82297e-05
-0.401403
8.59596e-05
-0.343976
4.97039e-05
-0.291096
-3.02946e-05
-0.243492
-0.00011716
-0.201973
-0.000167284
-0.166534
-0.00013913
-0.136838
3.90613e-07
-0.112358
0.000273292
-0.0924621
0.000690334
-0.0764953
0.0012522
-0.0638292
0.0019515
-0.0538892
0.00277586
-0.0461683
0.00370941
-0.040228
0.00473588
-0.0356977
0.00584
-0.032268
0.00700913
-0.0296848
0.0082338
-0.0277406
0.00950606
-0.0262644
-0.0251085
0.0108122
9.29579e-05
-0.401496
0.000124102
-0.344007
6.85779e-05
-0.29104
-3.61149e-05
-0.243388
-0.000148146
-0.201861
-0.000223972
-0.166458
-0.000222367
-0.13684
-0.000110265
-0.11247
0.000134323
-0.0927066
0.000522088
-0.0768831
0.00105352
-0.0643606
0.0017215
-0.0545572
0.0025126
-0.0469594
0.00341043
-0.0411258
0.00439774
-0.036685
0.00545846
-0.0333288
0.00657987
-0.0308062
0.00775389
-0.0289146
0.00897878
-0.0274893
-0.0263899
0.0102602
0.000181552
-0.401677
0.000189726
-0.344015
9.7569e-05
-0.290948
-3.90076e-05
-0.243251
-0.00017951
-0.20172
-0.000282712
-0.166355
-0.000308651
-0.136814
-0.000224654
-0.112554
-8.86547e-06
-0.0929224
0.00034977
-0.0772417
0.000851913
-0.0648628
0.0014898
-0.0551951
0.00224983
-0.0477194
0.00311534
-0.0419914
0.00406828
-0.0376379
0.005092
-0.0343525
0.00617256
-0.0318868
0.00729963
-0.0300417
0.00847134
-0.028661
-0.0276338
0.00971525
0.401569
6.22635e-05
-0.401631
0.401554
1.45223e-05
0.401556
-1.66353e-06
0.401563
-7.28323e-06
0.401572
-9.14427e-06
0.401581
-9.19632e-06
0.401589
-7.78716e-06
0.401594
-5.23075e-06
0.401596
-1.94064e-06
0.401595
1.43574e-06
0.40159
4.4544e-06
0.401583
7.06444e-06
0.401574
8.99521e-06
0.401564
1.03809e-05
0.401554
9.97373e-06
0.401545
9.06513e-06
0.401543
1.79288e-06
0.401549
-5.47161e-06
0.401593
-4.43903e-05
-8.42923e-05
0.342432
-0.000114073
-0.342256
0.342586
-0.000139074
0.342732
-0.000147801
0.34287
-0.000145457
0.342999
-0.000138339
0.343119
-0.000128972
0.34323
-0.000118949
0.343333
-0.000108192
0.343427
-9.56523e-05
0.343511
-8.31972e-05
0.343588
-7.17789e-05
0.343656
-6.12112e-05
0.343717
-5.18047e-05
0.343771
-4.38098e-05
0.34382
-3.86735e-05
0.343865
-3.60511e-05
0.343907
-4.09064e-05
0.343952
-5.04829e-05
0.343988
-7.99503e-05
-0.000111436
0.28735
-0.000476821
-0.286987
0.287681
-0.000469465
0.287989
-0.000456153
0.28828
-0.000436587
0.288555
-0.000413216
0.288813
-0.000387247
0.289054
-0.000359701
0.28928
-0.00033472
0.289494
-0.000309243
0.289692
-0.000281456
0.289877
-0.00025628
0.290048
-0.000232678
0.290206
-0.000209944
0.290352
-0.000189348
0.290485
-0.000172103
0.290608
-0.000158395
0.290718
-0.000150772
0.290815
-0.000148316
0.290891
-0.000155791
-0.000168216
0.237944
-0.000970861
-0.23745
0.238408
-0.000934005
0.238847
-0.000894713
0.239263
-0.000852512
0.239657
-0.000807521
0.240032
-0.000761878
0.240387
-0.000715467
0.24072
-0.000666961
0.241031
-0.000620583
0.241325
-0.000575549
0.241599
-0.000530207
0.241855
-0.000488522
0.242094
-0.000449379
0.242316
-0.000410972
0.24252
-0.000375794
0.242706
-0.000344408
0.242873
-0.000317941
0.243021
-0.000296424
0.243146
-0.00028141
-0.000272742
0.195471
-0.00154772
-0.194894
0.196019
-0.00148189
0.196539
-0.00141502
0.197034
-0.00134697
0.197504
-0.00127734
0.197949
-0.00120712
0.198369
-0.00113537
0.198765
-0.00106309
0.199137
-0.00099262
0.199486
-0.000923965
0.199812
-0.000856423
0.200113
-0.000789398
0.200389
-0.00072588
0.200646
-0.000667542
0.200882
-0.00061212
0.201096
-0.000558851
0.201288
-0.00050952
0.201457
-0.00046499
0.201601
-0.000425641
-0.000392244
0.160079
-0.0021576
-0.15947
0.160659
-0.00206156
0.161209
-0.001965
0.16173
-0.00186792
0.162223
-0.00176986
0.162687
-0.00167111
0.163123
-0.00157154
0.163532
-0.00147199
0.163913
-0.00137391
0.164267
-0.0012777
0.164592
-0.00118222
0.164892
-0.00108885
0.165166
-0.000999528
0.165411
-0.000913251
0.16563
-0.00083118
0.165826
-0.000754802
0.165998
-0.000681431
0.166144
-0.000610714
0.166263
-0.000544696
-0.000484069
0.131376
-0.00275425
-0.13078
0.13194
-0.00262547
0.132472
-0.00249639
0.132971
-0.00236705
0.133438
-0.00223712
0.133874
-0.00210673
0.134278
-0.00197612
0.134652
-0.00184593
0.134995
-0.0017171
0.135308
-0.00158995
0.13559
-0.00146429
0.135842
-0.00134119
0.136064
-0.00122119
0.136256
-0.00110531
0.136419
-0.000994587
0.136553
-0.000888339
0.136659
-0.000787665
0.136739
-0.000690939
0.136791
-0.000596488
-0.000507211
0.108649
-0.00329995
-0.108103
0.109159
-0.00313539
0.109633
-0.00297072
0.110072
-0.00280598
0.110476
-0.00264097
0.110845
-0.00247588
0.11118
-0.00231106
0.111481
-0.00214702
0.111749
-0.00198445
0.111982
-0.00182369
0.112183
-0.00166501
0.112351
-0.00150905
0.112486
-0.0013564
0.112589
-0.00120811
0.112659
-0.00106464
0.112698
-0.000927069
0.112705
-0.000795345
0.112683
-0.000669015
0.112634
-0.000546572
-0.00042787
0.0910207
-0.00376867
-0.090552
0.0914506
-0.00356524
0.0918417
-0.00336189
0.0921944
-0.00315868
0.092509
-0.00295555
0.0927859
-0.00275275
0.0930255
-0.00255067
0.0932283
-0.00234979
0.0933945
-0.00215066
0.0935244
-0.00195367
0.0936187
-0.00175923
0.0936774
-0.00156782
0.0937011
-0.0013801
0.0936899
-0.00119685
0.0936439
-0.00101869
0.0935634
-0.000846591
0.0934498
-0.000681739
0.0933042
-0.00052343
0.093128
-0.000370327
-0.000222298
0.077583
-0.00414648
-0.0772052
0.077919
-0.00390118
0.0782133
-0.00365619
0.0784662
-0.00341158
0.0786781
-0.00316743
0.0788494
-0.00292405
0.0789806
-0.00268186
0.0790721
-0.00244131
0.0791243
-0.0022029
0.0791377
-0.00196707
0.0791128
-0.00173427
0.0790499
-0.00150495
0.0789495
-0.00127973
0.0788119
-0.00105925
0.0786374
-0.000844218
0.0784266
-0.000635742
0.0781799
-0.000435006
0.0778988
-0.000242417
0.0775856
-5.70981e-05
0.000121602
0.0674828
-0.00443006
-0.0671993
0.0677218
-0.0041401
0.0679163
-0.00385071
0.0680667
-0.00356198
0.0681733
-0.0032741
0.0682367
-0.00298744
0.0682573
-0.00270244
0.0682356
-0.00241957
0.068172
-0.00213932
0.068067
-0.00186213
0.0679213
-0.00158847
0.0677351
-0.0013188
0.0675091
-0.00105369
0.0672436
-0.000793766
0.0669391
-0.000539737
0.0665961
-0.000292769
0.0662154
-5.42334e-05
0.065798
0.000174925
0.0653464
0.000394495
0.000605234
0.05997
-0.00462415
-0.0597759
0.060117
-0.00428705
0.060217
-0.00395075
0.0602705
-0.00361543
0.0602777
-0.00328135
0.0602392
-0.00294894
0.0601554
-0.00261867
0.0600269
-0.00229105
0.0598541
-0.00196654
0.0596376
-0.00164563
0.0593779
-0.00132876
0.0590755
-0.0010164
0.0587309
-0.000709091
0.0583446
-0.000407451
0.0579171
-0.000112247
0.057449
0.000175368
0.0569409
0.000453813
0.0563943
0.000721574
0.0558112
0.000977536
0.00122136
0.0544164
-0.00473881
-0.0543018
0.0544818
-0.00435239
0.054498
-0.00396702
0.0544655
-0.00358294
0.0543847
-0.00320048
0.0542559
-0.00282014
0.0540797
-0.00244244
0.0538565
-0.00206788
0.0535869
-0.00169696
0.0532714
-0.00133017
0.0529106
-0.000967938
0.052505
-0.000610729
0.0520549
-0.000259039
0.0515609
8.65293e-05
0.0510235
0.000425177
0.0504432
0.000755695
0.0498207
0.00107633
0.0491573
0.00138493
0.0484557
0.00167918
0.00195762
0.0503158
-0.0047868
-0.0502678
0.0503127
-0.00434929
0.0502587
-0.00391306
0.0501542
-0.0034784
0.0499995
-0.00304576
0.049795
-0.00261566
0.0495412
-0.00218867
0.0492387
-0.00176534
0.0488879
-0.00134617
0.0484894
-0.000931647
0.0480436
-0.000522197
0.0475512
-0.000118235
0.0470123
0.000279798
0.0464275
0.000671358
0.045797
0.00105567
0.0451212
0.0014315
0.0444007
0.00179687
0.0436366
0.00214894
0.042832
0.00248385
0.00279823
0.0472733
-0.00478158
-0.0472785
0.0472156
-0.00429163
0.0471057
-0.00380316
0.0469439
-0.00331655
0.0467304
-0.0028323
0.0464658
-0.00235102
0.0461504
-0.00187331
0.0457848
-0.00139975
0.0453695
-0.000930881
0.044905
-0.000467159
0.0443918
-8.99163e-06
0.0438303
0.000443268
0.0432208
0.000889277
0.0425636
0.00132862
0.0418586
0.00176065
0.0411059
0.00218421
0.0403055
0.00259723
0.0394584
0.0029961
0.0385671
0.00337517
0.00372735
0.0449894
-0.00473591
-0.0450351
0.0448904
-0.00419261
0.0447382
-0.00365097
0.0445331
-0.00311145
0.0442755
-0.00257464
0.0439656
-0.0020412
0.0436041
-0.00151178
0.0431914
-0.000987001
0.0427279
-0.000467411
0.0422142
4.6534e-05
0.0416507
0.00055447
0.0410379
0.00105613
0.0403758
0.00155131
0.0396646
0.00203982
0.038904
0.0025213
0.0380933
0.00299493
0.0372316
0.00345884
0.0363187
0.00390899
0.0353563
0.00433759
0.0047312
0.0432432
-0.00466108
-0.043318
0.0431145
-0.00406393
0.0429322
-0.00346864
0.0426964
-0.00287572
0.0424076
-0.00228584
0.0420662
-0.00169973
0.0416725
-0.00111809
0.041227
-0.000541568
0.0407304
2.92664e-05
0.0401829
0.000593966
0.0395852
0.00115222
0.0389375
0.00170386
0.0382399
0.00224889
0.0374923
0.00278742
0.036694
0.00331959
0.0358436
0.00384531
0.0349389
0.00436359
0.0339769
0.00487096
0.0329564
0.00535808
0.00580084
0.0418751
-0.00456655
-0.0419696
0.0417266
-0.00391551
0.0415245
-0.00326651
0.0412689
-0.00262014
0.0409602
-0.00197716
0.0405988
-0.00133834
0.0401852
-0.000704436
0.0397198
-7.61468e-05
0.0392031
0.00054595
0.0386356
0.00116142
0.0380179
0.00176999
0.0373501
0.00237163
0.0366324
0.00296656
0.0358646
0.00355529
0.0350455
0.0041387
0.0341729
0.00471791
0.0332425
0.00529391
0.0322473
0.00586615
0.0311784
0.00642701
0.00693755
0.0407723
-0.00446009
-0.0408788
0.0406123
-0.00375551
0.040399
-0.00305317
0.0401326
-0.00235375
0.0398135
-0.00165807
0.0394421
-0.000966964
0.0390189
-0.000281254
0.0385445
0.000398335
0.0380192
0.0010712
0.0374437
0.00173691
0.0368185
0.00239525
0.0361438
0.00304628
0.0354199
0.00369047
0.0346464
0.0043288
0.0338221
0.00496303
0.032944
0.00559599
0.0320059
0.00623199
0.0309946
0.00687748
0.0298859
0.00753566
0.00816243
0.0398565
-0.0399686
-0.00434795
0.0396915
-0.00359056
0.039474
-0.00283566
0.0392043
-0.002084
0.0388827
-0.00133647
0.0385097
-0.000593973
0.0380858
0.000142617
0.0376116
0.000872533
0.0370876
0.00159515
0.0365145
0.00231002
0.0358928
0.00301697
0.0352229
0.00371615
0.0345052
0.00440823
0.0337394
0.00509461
0.0329244
0.00577799
0.0320573
0.00646312
0.0311306
0.00715872
0.0301253
0.00788277
0.0289956
0.00866534
0.00952418
0.39991
2.23238e-05
-0.399932
0.399972
-6.2256e-05
0.400066
-9.44743e-05
0.400174
-0.00010784
0.400284
-0.00011019
0.400398
-0.000113338
0.400515
-0.000116893
0.400627
-0.000112733
0.400734
-0.000106838
0.400835
-0.000100372
0.400928
-9.37674e-05
0.401016
-8.74858e-05
0.401098
-8.16525e-05
0.401173
-7.57631e-05
0.401244
-7.1119e-05
0.401312
-6.71504e-05
0.401378
-6.66253e-05
0.401444
-6.58149e-05
0.401528
-8.39278e-05
-0.000102836
0.336853
-0.000317857
-0.336513
0.337174
-0.000383008
0.337499
-0.000419704
0.337825
-0.000434087
0.338152
-0.000436784
0.338471
-0.00043273
0.338787
-0.000432814
0.339105
-0.0004308
0.339417
-0.000418557
0.339721
-0.000404421
0.340016
-0.00038908
0.340303
-0.00037389
0.34058
-0.000359081
0.340848
-0.000343271
0.341105
-0.000328754
0.341355
-0.000316486
0.341595
-0.000307219
0.341829
-0.000299641
0.342049
-0.000303908
-0.00030951
0.278124
-0.000881857
-0.27756
0.278663
-0.00092224
0.279188
-0.000944496
0.279707
-0.000953329
0.280227
-0.000956805
0.280746
-0.000951092
0.281253
-0.000939948
0.281754
-0.000931492
0.282253
-0.000917838
0.282744
-0.000895485
0.283225
-0.00087054
0.283696
-0.00084477
0.284157
-0.000819407
0.284605
-0.000792169
0.285041
-0.000764044
0.285463
-0.000738733
0.285871
-0.000715616
0.286264
-0.000692565
0.286636
-0.000675443
-0.000661032
0.225651
-0.00160264
-0.22493
0.226353
-0.00162409
0.227046
-0.00163787
0.227739
-0.00164546
0.228425
-0.0016437
0.229107
-0.00163297
0.229784
-0.00161631
0.23045
-0.00159808
0.231108
-0.00157571
0.231758
-0.00154525
0.232397
-0.00150952
0.233023
-0.00147057
0.233634
-0.00143103
0.234233
-0.00139074
0.234817
-0.00134826
0.235382
-0.00130377
0.235928
-0.00126146
0.236457
-0.00122155
0.236964
-0.00118278
-0.00114632
0.180811
-0.00245544
-0.179959
0.181657
-0.00246942
0.182498
-0.00247884
0.183332
-0.00247933
0.184158
-0.00247051
0.184979
-0.00245314
0.18579
-0.00242761
0.186588
-0.00239594
0.187373
-0.00236111
0.188147
-0.00231898
0.188906
-0.00226904
0.189651
-0.00221505
0.190377
-0.00215714
0.191084
-0.00209805
0.191773
-0.00203686
0.192443
-0.00197345
0.193091
-0.0019104
0.193717
-0.00184726
0.194319
-0.0017841
-0.00172224
0.143853
-0.00342807
-0.142881
0.14482
-0.0034361
0.145777
-0.00343559
0.146723
-0.00342582
0.147659
-0.00340606
0.148582
-0.0033765
0.149492
-0.00333699
0.150386
-0.00329018
0.151263
-0.00323783
0.15212
-0.00317678
0.152959
-0.00310803
0.153778
-0.00303379
0.154576
-0.00295513
0.155352
-0.00287372
0.156104
-0.00278874
0.156831
-0.002701
0.157532
-0.0026117
0.158207
-0.00252137
0.158853
-0.00243015
-0.00233923
0.114403
-0.00449545
-0.113335
0.115457
-0.00449077
0.116498
-0.00447627
0.117523
-0.00445126
0.118532
-0.00441502
0.119523
-0.00436752
0.120495
-0.00430905
0.121446
-0.00424104
0.122373
-0.00416423
0.123276
-0.00407987
0.124155
-0.0039874
0.125009
-0.0038871
0.125835
-0.00378156
0.126633
-0.00367149
0.127401
-0.00355722
0.12814
-0.00343957
0.128848
-0.00331948
0.129524
-0.00319768
0.130168
-0.00307444
-0.00295086
0.0916608
-0.00562406
-0.0905322
0.0927716
-0.0056016
0.0938631
-0.00556777
0.0949337
-0.00552185
0.0959819
-0.00546321
0.0970062
-0.00539179
0.098005
-0.00530783
0.0989759
-0.00521197
0.099918
-0.00510637
0.10083
-0.00499217
0.101711
-0.0048684
0.10256
-0.0047359
0.103376
-0.004597
0.104157
-0.00445269
0.104903
-0.00430372
0.105615
-0.00415101
0.106291
-0.00399547
0.106931
-0.00383792
0.107535
-0.00367874
-0.00351891
0.0745941
-0.00678443
-0.0734338
0.0757313
-0.00673879
0.0768437
-0.00668019
0.0779297
-0.00660778
0.0789874
-0.00652094
0.0800151
-0.00641955
0.0810111
-0.00630378
0.0819736
-0.00617446
0.0829009
-0.00603364
0.0837913
-0.00588258
0.0846442
-0.00572137
0.0854591
-0.00555074
0.0862347
-0.0053726
0.0869707
-0.0051887
0.0876669
-0.00499997
0.0883234
-0.00480748
0.0889401
-0.00461218
0.0895171
-0.00441489
0.0900544
-0.00421607
-0.00401652
0.0621007
-0.00795171
-0.0609334
0.0632401
-0.00787815
0.0643499
-0.00778999
0.0654282
-0.0076861
0.066473
-0.00756577
0.0674823
-0.00742885
0.0684541
-0.00727558
0.0693866
-0.00710693
0.0702778
-0.00692482
0.0711264
-0.00673117
0.0719318
-0.00652678
0.0726935
-0.0063124
0.0734109
-0.00609004
0.074084
-0.0058618
0.0747129
-0.00562892
0.075298
-0.00539255
0.0758395
-0.00515368
0.0763377
-0.00491309
0.0767929
-0.00467127
-0.00442882
0.053138
-0.00910796
-0.0519818
0.0542628
-0.00900289
0.0553542
-0.00888137
0.0564099
-0.00874186
0.0574276
-0.0085835
0.0584049
-0.00840615
0.0593396
-0.00821027
0.0602297
-0.00799704
0.0610735
-0.00776853
0.0618695
-0.00752722
0.0626172
-0.00727452
0.0633166
-0.00701177
0.0639676
-0.00674105
0.0645703
-0.00646449
0.0651252
-0.00618378
0.0656327
-0.00590012
0.0660935
-0.00561446
0.066508
-0.00532753
0.0668765
-0.00503977
-0.00475162
0.0467993
-0.0102423
-0.045665
0.0478999
-0.0101035
0.0489645
-0.00994596
0.0499902
-0.00976754
0.050974
-0.00956732
0.0519132
-0.00934533
0.0528053
-0.00910241
0.0536484
-0.00884014
0.0544408
-0.00856095
0.0551813
-0.0082677
0.0558695
-0.00796274
0.0565056
-0.00764785
0.0570898
-0.00732525
0.0576227
-0.00699734
0.0581048
-0.00666591
0.0585369
-0.0063322
0.0589196
-0.00599714
0.0592534
-0.00566133
0.0595387
-0.00532512
-0.00498883
0.0423455
-0.0113497
-0.0412381
0.0434187
-0.0111767
0.0444542
-0.0109814
0.045448
-0.0107614
0.0463967
-0.010516
0.0472972
-0.0102458
0.0481468
-0.00995205
0.0489437
-0.00963707
0.0496865
-0.00930371
0.0503741
-0.00895531
0.0510063
-0.00859497
0.0515836
-0.00822509
0.0521064
-0.00784805
0.0525754
-0.00746641
0.0529916
-0.00708205
0.0533556
-0.00669621
0.0536681
-0.00630968
0.0539297
-0.00592294
0.0541408
-0.00553624
-0.00514975
0.0392065
-0.0124301
-0.0381261
0.0402534
-0.0122237
0.0412615
-0.0119895
0.0422257
-0.0117255
0.0431416
-0.011432
0.044006
-0.0111101
0.0448164
-0.0107625
0.0455712
-0.0103919
0.0462692
-0.0100017
0.0469097
-0.00959581
0.0474927
-0.00917792
0.0480186
-0.00875105
0.0484884
-0.00831781
0.0489027
-0.00788076
0.0492626
-0.0074419
0.0495687
-0.00700237
0.0498219
-0.00656283
0.0500225
-0.00612359
0.0501711
-0.00568479
-0.00524647
0.0369619
-0.0134863
-0.0359057
0.037987
-0.0132487
0.0389719
-0.0129744
0.0399102
-0.0126638
0.0407972
-0.0123189
0.0416297
-0.0119426
0.0424056
-0.0115384
0.0431237
-0.01111
0.0437832
-0.0106612
0.0443836
-0.0101963
0.0449252
-0.00971953
0.0454086
-0.00923444
0.0458347
-0.00874387
0.0462043
-0.00825042
0.0465184
-0.00775602
0.0467778
-0.00726176
0.0469831
-0.00676812
0.0471348
-0.00627527
0.0472332
-0.00578317
-0.00529181
0.0353153
-0.0145238
-0.0342778
0.0363245
-0.014258
0.0372912
-0.0139412
0.0382077
-0.0135803
0.0390695
-0.0131807
0.0398741
-0.0127473
0.0406203
-0.0122846
0.0413072
-0.0117969
0.0419345
-0.0112884
0.0425019
-0.0107637
0.0430099
-0.0102275
0.0434592
-0.00968369
0.0438506
-0.0091353
0.0441851
-0.0085849
0.0444635
-0.00803444
0.0446866
-0.00748485
0.0448549
-0.00693648
0.044969
-0.0063893
0.045029
-0.00584316
-0.00529795
0.0340646
-0.0155509
-0.0330375
0.0350653
-0.0152587
0.0360181
-0.014894
0.0369156
-0.0144777
0.0377549
-0.01402
0.0385351
-0.0135274
0.0392555
-0.0130051
0.0399161
-0.0124574
0.0405167
-0.011889
0.0410575
-0.0113045
0.0415388
-0.0107088
0.0419613
-0.0101062
0.042326
-0.00949996
0.0426337
-0.0088926
0.0428852
-0.00828592
0.0430811
-0.00768082
0.0432221
-0.00707745
0.0433084
-0.00647562
0.0433403
-0.00587507
-0.00527562
0.0330788
-0.0165839
-0.0320458
0.0340779
-0.0162578
0.035019
-0.015835
0.0358982
-0.015357
0.0367163
-0.0148381
0.037474
-0.0142851
0.0381718
-0.0137029
0.03881
-0.0130956
0.0393887
-0.0124677
0.039908
-0.0118238
0.0403683
-0.0111692
0.0407703
-0.0105082
0.0411147
-0.0098444
0.0414025
-0.00918034
0.0416343
-0.00851769
0.0418106
-0.00785719
0.0419321
-0.0071989
0.0419989
-0.00654247
0.0420114
-0.00588753
-0.00523382
0.0322845
-0.0176469
-0.0312215
0.0332805
-0.0172538
0.0342064
-0.0167609
0.0350652
-0.0162158
0.0358617
-0.0156347
0.0365983
-0.0150217
0.0372759
-0.0143805
0.0378949
-0.0137145
0.0384553
-0.0130281
0.0389574
-0.0123259
0.0394013
-0.0116131
0.0397875
-0.0108944
0.0401169
-0.0101738
0.0403901
-0.00945355
0.0406078
-0.00873539
0.0407706
-0.00801994
0.0408788
-0.00730713
0.0409328
-0.00659647
0.0409327
-0.00588748
-0.00517988
0.0316412
-0.0305732
-0.018715
0.0326188
-0.0182314
0.0335194
-0.0176614
0.0343544
-0.0170509
0.035129
-0.0164093
0.0358458
-0.0157385
0.0365054
-0.01504
0.0371079
-0.014317
0.0376532
-0.0135734
0.0381414
-0.0128141
0.0385725
-0.0120442
0.0389469
-0.0112688
0.0392651
-0.010492
0.0395279
-0.00971636
0.039736
-0.0089434
0.0398897
-0.00817368
0.0399896
-0.00740701
0.0400359
-0.00664279
0.0400289
-0.00588044
-0.00511963
0.0194041
0.00648842
-0.00504301
-0.0208495
0.0179346
0.00683425
-0.00536479
0.0164418
0.00727565
-0.00578288
0.0149278
0.007874
-0.00635992
0.0133964
0.00873061
-0.00719925
0.011855
0.0100069
-0.00846545
0.0103152
0.0119509
-0.0104111
0.00879464
0.0149283
-0.0134077
0.00731741
0.0194535
-0.0179763
0.00591452
0.0262123
-0.0248094
0.00462193
0.0360663
-0.0347737
0.00347659
0.0500245
-0.0488792
0.00250972
0.0691702
-0.0682033
0.00173857
0.094542
-0.0937708
0.00115867
0.126982
-0.126402
0.000740246
0.166993
-0.166574
0.000433634
0.214658
-0.214351
0.000191101
0.269635
-0.269393
1.3888e-05
0.330855
-0.330678
0.397242
-0.397228
0.0196439
0.00792583
-0.0210813
0.0181827
0.00829546
0.0166983
0.00876012
0.0151922
0.00938004
0.0136682
0.0102546
0.0121327
0.0115423
0.0105967
0.0134869
0.00907644
0.0164486
0.00759498
0.020935
0.00618206
0.0276252
0.00487269
0.0373757
0.0037035
0.0511937
0.00270638
0.0701673
0.00190049
0.0953479
0.00128465
0.127598
0.000833822
0.167444
0.000503985
0.214988
0.000251954
0.269888
7.05786e-05
0.331037
0.397313
0.0198495
0.00935348
-0.0212771
0.0183983
0.00974664
0.016924
0.0102345
0.0154279
0.0108762
0.0139131
0.0117694
0.0123857
0.0130697
0.0108555
0.015017
0.00933801
0.0179661
0.00785485
0.0224181
0.00643455
0.0290455
0.00511112
0.0386991
0.00392074
0.0523841
0.00289582
0.0711922
0.00205719
0.0961865
0.00140657
0.128249
0.000922971
0.167927
0.000566807
0.215344
0.000295998
0.270158
9.57257e-05
0.331237
0.397409
0.0200207
0.0107697
-0.0214368
0.0185812
0.0111861
0.0171188
0.0116969
0.0156344
0.0123605
0.0141308
0.013273
0.0126134
0.0145872
0.0110913
0.0165392
0.00957871
0.0194787
0.00809625
0.0239006
0.00667109
0.0304707
0.00533619
0.040034
0.00412722
0.0535931
0.00307693
0.0722425
0.00220763
0.0970558
0.00152359
0.128933
0.00100711
0.168444
0.000622046
0.215729
0.000328342
0.270452
0.000109793
0.331456
0.397518
0.0201574
0.0121728
-0.0215605
0.0187314
0.0126121
0.0172825
0.0131458
0.0158116
0.0138314
0.0143211
0.0147635
0.0128156
0.0160926
0.0113035
0.0180512
0.00979812
0.0209841
0.00831866
0.0253801
0.00689105
0.0318983
0.00554714
0.0413779
0.00432195
0.0548182
0.00324846
0.073316
0.00235029
0.097954
0.00163411
0.129649
0.00108531
0.168992
0.000671159
0.216143
0.000354533
0.270769
0.000119532
0.331691
0.397638
0.0202599
0.0135613
-0.0216484
0.0188488
0.0140231
0.0174151
0.0145795
0.0159594
0.0152871
0.0144836
0.0162393
0.012992
0.0175843
0.011492
0.0195512
0.00999588
0.0224802
0.00852169
0.0268542
0.00709403
0.033326
0.00574354
0.0427284
0.00450453
0.0560573
0.00341004
0.0744105
0.00248486
0.0988792
0.00173801
0.130396
0.00115807
0.169572
0.000715797
0.216585
0.00037712
0.271107
0.000126973
0.331941
0.397765
0.0203281
0.0149337
-0.0217006
0.0189335
0.0154177
0.0175166
0.0159964
0.0160777
0.0167261
0.0146184
0.0176986
0.0131424
0.0190603
0.0116564
0.0210372
0.0101717
0.0239649
0.00870503
0.0283209
0.00727967
0.0347513
0.00592507
0.044083
0.00467469
0.0573076
0.00356154
0.0755237
0.00261145
0.0998293
0.00183566
0.131172
0.00122593
0.170182
0.000756519
0.217055
0.000396365
0.271467
0.00013213
0.332205
0.397897
0.0203623
0.0162888
-0.0217174
0.0189855
0.0167945
0.0175868
0.0173952
0.0161662
0.0181466
0.0147251
0.0191397
0.0132665
0.0205189
0.0117965
0.0225072