/*--------------------------------*- C++ -*----------------------------------*\
| =========                 |                                                 |
| \\      /  F ield         | OpenFOAM: The Open Source CFD Toolbox           |
|  \\    /   O peration     | Version:  v1912                                 |
|   \\  /    A nd           | Website:  www.openfoam.com                      |
|    \\/     M anipulation  |                                                 |
\*---------------------------------------------------------------------------*/
FoamFile
{
    version     2.0;
    format      ascii;
    class       volScalarField;
    location    "9";
    object      p;
}
// * * * * * * * * * * * * * * * * * * * * * * * * * * * * * * * * * * * * * //

dimensions      [0 2 -2 0 0 0 0];


internalField   nonuniform List<scalar> 
9600
(
-38.4103
-33.0398
-29.7251
-26.9035
-24.3547
-22.08
-20.0449
-18.2167
-16.5729
-15.0949
-13.7664
-12.572
-11.4978
-10.5311
-9.66038
-8.87511
-8.16606
-7.52458
-6.94268
-6.41876
-38.9239
-33.5454
-30.2071
-27.3567
-24.7772
-22.4725
-20.4096
-18.5561
-16.8899
-15.3923
-14.0465
-12.8372
-11.7501
-10.7721
-9.89129
-9.09711
-8.38004
-7.73115
-7.14216
-6.61273
-39.4425
-34.0504
-30.6868
-27.8077
-25.1972
-22.8626
-20.7717
-18.8932
-17.2046
-15.6876
-14.3249
-13.1009
-12.001
-11.0118
-10.1212
-9.31821
-8.59324
-7.93701
-7.34099
-6.80619
-39.9634
-34.5549
-31.1644
-28.2559
-25.6144
-23.2496
-21.1309
-19.2273
-17.5167
-15.9804
-14.601
-13.3625
-12.25
-11.2499
-10.3496
-9.53804
-8.8053
-8.14181
-7.53885
-6.99889
-40.4841
-35.0576
-31.6395
-28.7009
-26.0281
-23.6329
-21.4864
-19.5579
-17.8254
-16.2701
-14.8743
-13.6216
-12.4968
-11.4859
-10.5762
-9.75622
-9.01588
-8.34527
-7.73549
-7.19061
-41.003
-35.5577
-32.1112
-29.142
-26.4375
-24.012
-21.8377
-19.8845
-18.1303
-16.5562
-15.1443
-13.8776
-12.7408
-11.7195
-10.8005
-9.97237
-9.22464
-8.54707
-7.93064
-7.38113
-41.5188
-36.054
-32.5788
-29.5784
-26.8419
-24.3861
-22.1841
-20.2063
-18.4307
-16.8382
-15.4104
-14.1301
-12.9816
-11.95
-11.0222
-10.1861
-9.43118
-8.74687
-8.124
-7.57022
-42.0303
-36.5456
-33.0414
-30.0093
-27.2408
-24.7545
-22.5249
-20.5228
-18.7261
-17.1154
-15.672
-14.3785
-13.2185
-12.1771
-11.2406
-10.3969
-9.6351
-8.94429
-8.31524
-7.75757
-42.5366
-37.0317
-33.498
-30.434
-27.6332
-25.1165
-22.8595
-20.8332
-19.0157
-17.3871
-15.9286
-14.6221
-13.4511
-12.4001
-11.4553
-10.6042
-9.8359
-9.13889
-8.50396
-7.94285
-43.0368
-37.5113
-33.948
-30.8517
-28.0184
-25.4714
-23.1871
-21.137
-19.2989
-17.6529
-16.1795
-14.8604
-13.6786
-12.6184
-11.6656
-10.8076
-10.033
-9.33014
-8.68968
-8.12561
-43.53
-37.9836
-34.3904
-31.2616
-28.3958
-25.8184
-23.507
-21.4333
-19.5751
-17.9119
-16.424
-15.0926
-13.9004
-12.8313
-11.8709
-11.0062
-10.2258
-9.5174
-8.8718
-8.30528
-44.0157
-38.4479
-34.8245
-31.6629
-28.7645
-26.1569
-23.8186
-21.7216
-19.8435
-18.1634
-16.6614
-15.3181
-14.1157
-13.0381
-12.0703
-11.1993
-10.4134
-9.6999
-9.04955
-8.48109
-44.4933
-38.9035
-35.2497
-32.055
-29.124
-26.4862
-24.1213
-22.0012
-20.1034
-18.4069
-16.8909
-15.5359
-14.3238
-13.2378
-12.2629
-11.386
-10.595
-9.87676
-9.22209
-8.65227
-44.9624
-39.3498
-35.6651
-32.4372
-29.4734
-26.8057
-24.4142
-22.2714
-20.3543
-18.6415
-17.1119
-15.7454
-14.5236
-13.4295
-12.4478
-11.5651
-10.7693
-10.0468
-9.3883
-8.81801
-45.4225
-39.7861
-36.0702
-32.8088
-29.8123
-27.1147
-24.697
-22.5316
-20.5955
-18.8667
-17.3236
-15.9458
-14.7144
-13.6122
-12.6237
-11.7353
-10.9348
-10.2082
-9.54645
-8.97658
-45.8734
-40.2117
-36.4643
-33.1693
-30.1401
-27.4127
-24.969
-22.7814
-20.8265
-19.0819
-17.5255
-16.1364
-14.8954
-13.785
-12.7895
-11.8954
-11.09
-10.3594
-9.69435
-9.12403
-46.3162
-40.6266
-36.8468
-33.518
-30.456
-27.699
-25.2297
-23.0203
-21.0469
-19.2866
-17.7169
-16.3166
-15.0659
-13.9471
-12.9445
-12.0444
-11.2343
-10.4998
-9.83074
-9.25763
-46.7555
-41.0319
-37.2168
-33.8538
-30.7592
-27.9731
-25.4786
-23.2477
-21.2562
-19.4805
-17.8976
-16.4858
-15.225
-14.0974
-13.0871
-12.1807
-11.3658
-10.6272
-9.95412
-9.3839
-47.1932
-41.4272
-37.5727
-34.1753
-31.0492
-28.2348
-25.7158
-23.4641
-21.4549
-19.664
-18.0679
-16.6443
-15.3727
-14.235
-13.2153
-12.3003
-11.4769
-10.7301
-10.0544
-9.50529
-47.6077
-41.8047
-37.9135
-34.4834
-31.3271
-28.4854
-25.9427
-23.6707
-21.6442
-19.8385
-18.2293
-16.7938
-15.511
-14.3621
-13.3309
-12.4029
-11.5637
-10.7992
-10.1161
-9.56957
-51.8241
-51.7941
-51.733
-51.6554
-51.5602
-51.4448
-51.3087
-51.1523
-50.9763
-50.7812
-50.5674
-50.3357
-50.0867
-49.8211
-49.5399
-49.244
-48.9346
-48.6136
-48.284
-47.9493
-45.6553
-45.6497
-45.6173
-45.5639
-45.4899
-45.3946
-45.2782
-45.1415
-44.985
-44.8096
-44.6156
-44.4039
-44.175
-43.9297
-43.6687
-43.3927
-43.1025
-42.7988
-42.4823
-42.1515
-41.3033
-41.3169
-41.3072
-41.2749
-41.2209
-41.146
-41.0509
-40.9363
-40.8026
-40.6506
-40.4807
-40.2936
-40.09
-39.8704
-39.6353
-39.3854
-39.1211
-38.8426
-38.5497
-38.2407
-37.4099
-37.4371
-37.4432
-37.4278
-37.3917
-37.3356
-37.2605
-37.1667
-37.0549
-36.9256
-36.7794
-36.6168
-36.4383
-36.2444
-36.0358
-35.8127
-35.5755
-35.3242
-35.0588
-34.7787
-33.8607
-33.8951
-33.9104
-33.9064
-33.883
-33.841
-33.7811
-33.7039
-33.6097
-33.4992
-33.3727
-33.231
-33.0743
-32.9033
-32.7184
-32.5199
-32.308
-32.083
-31.8447
-31.5929
-30.708
-30.7454
-30.7656
-30.7681
-30.7527
-30.72
-30.6707
-30.6053
-30.5242
-30.4278
-30.3168
-30.1916
-30.0526
-29.9003
-29.7353
-29.5576
-29.3678
-29.1657
-28.9516
-28.7251
-27.9298
-27.9673
-27.989
-27.9943
-27.9831
-27.9559
-27.9133
-27.8557
-27.7836
-27.6975
-27.5978
-27.485
-27.3596
-27.2221
-27.0728
-26.9123
-26.7406
-26.5579
-26.3642
-26.1595
-25.4852
-25.5206
-25.5414
-25.547
-25.5373
-25.5127
-25.4738
-25.4211
-25.3549
-25.2756
-25.1839
-25.0802
-24.9649
-24.8386
-24.7017
-24.5547
-24.3977
-24.231
-24.0544
-23.868
-23.3338
-23.366
-23.3845
-23.3888
-23.3788
-23.355
-23.3178
-23.2677
-23.2051
-23.1304
-23.0441
-22.9467
-22.8389
-22.721
-22.5936
-22.4571
-22.3119
-22.1582
-21.9959
-21.8249
-21.4377
-21.4661
-21.4815
-21.4836
-21.4724
-21.4481
-21.4113
-21.3624
-21.3018
-21.23
-21.1473
-21.0545
-20.952
-20.8403
-20.7202
-20.592
-20.4563
-20.3133
-20.1629
-20.005
-19.7617
-19.7862
-19.7983
-19.7979
-19.7848
-19.7595
-19.7224
-19.6738
-19.6143
-19.5441
-19.4639
-19.3742
-19.2755
-19.1686
-19.054
-18.9324
-18.8043
-18.6701
-18.5298
-18.3833
-18.2753
-18.2959
-18.3048
-18.3017
-18.2866
-18.26
-18.2221
-18.1734
-18.1143
-18.0451
-17.9665
-17.879
-17.7831
-17.6796
-17.5693
-17.4529
-17.331
-17.2043
-17.0728
-16.9364
-16.9517
-16.9688
-16.9746
-16.969
-16.952
-16.9239
-16.8852
-16.8361
-16.777
-16.7085
-16.6309
-16.5449
-16.4511
-16.3503
-16.2432
-16.1308
-16.0141
-15.8936
-15.77
-15.6429
-15.7686
-15.7825
-15.7856
-15.7777
-15.7588
-15.7294
-15.6897
-15.6402
-15.5811
-15.5129
-15.436
-15.3511
-15.2588
-15.1599
-15.0553
-14.9461
-14.8334
-14.7183
-14.6018
-14.4835
-14.7071
-14.7182
-14.7187
-14.7087
-14.6882
-14.6576
-14.6171
-14.5671
-14.5079
-14.4399
-14.3636
-14.2795
-14.1883
-14.0908
-13.988
-13.8811
-13.7716
-13.661
-13.5509
-13.441
-13.7513
-13.7598
-13.7581
-13.7462
-13.7243
-13.6926
-13.6514
-13.601
-13.5416
-13.4738
-13.3979
-13.3144
-13.224
-13.1274
-13.0258
-12.9205
-12.8132
-12.7059
-12.6014
-12.4999
-12.8878
-12.8939
-12.8903
-12.8768
-12.8535
-12.8208
-12.779
-12.7281
-12.6687
-12.6009
-12.5253
-12.4422
-12.3522
-12.2561
-12.155
-12.0503
-11.944
-11.8386
-11.7386
-11.6442
-12.1049
-12.1092
-12.104
-12.0892
-12.065
-12.0316
-11.9893
-11.9383
-11.8788
-11.8112
-11.7358
-11.653
-11.5633
-11.4674
-11.3662
-11.2612
-11.1547
-11.0498
-10.9531
-10.8635
-11.392
-11.3951
-11.3892
-11.3739
-11.3496
-11.3164
-11.2745
-11.2241
-11.1655
-11.099
-11.0247
-10.9432
-10.8547
-10.7599
-10.6594
-10.5545
-10.4476
-10.3425
-10.2495
-10.1676
-10.7432
-10.7437
-10.7356
-10.7187
-10.6933
-10.6596
-10.6176
-10.5677
-10.5099
-10.4446
-10.3719
-10.2921
-10.2056
-10.1127
-10.0138
-9.90977
-9.80189
-9.69432
-9.59731
-9.53152
-46.9251
-47.3669
-47.7783
-48.1813
-48.5728
-48.9469
-49.3008
-49.6336
-49.9445
-50.2326
-50.497
-50.7372
-50.953
-51.1443
-51.311
-51.4534
-51.5716
-51.6662
-51.7389
-51.7919
-40.6608
-41.1097
-41.5362
-41.9467
-42.3405
-42.7152
-43.0696
-43.403
-43.7151
-44.0052
-44.2723
-44.516
-44.7364
-44.9333
-45.1067
-45.2569
-45.3845
-45.4884
-45.5686
-45.6244
-36.3169
-36.7569
-37.179
-37.5833
-37.9697
-38.3375
-38.6861
-39.0148
-39.3233
-39.6124
-39.8794
-40.1239
-40.3466
-40.5474
-40.7255
-40.8806
-41.0119
-41.1206
-41.2065
-41.268
-32.5116
-32.9326
-33.3387
-33.7284
-34.101
-34.4563
-34.794
-35.1136
-35.4145
-35.6949
-35.956
-36.1954
-36.4152
-36.6146
-36.7929
-36.9497
-37.0851
-37.1992
-37.2917
-37.3621
-29.1412
-29.5393
-29.9246
-30.2951
-30.6497
-30.9881
-31.31
-31.6148
-31.9016
-32.1699
-32.4199
-32.653
-32.8663
-33.0601
-33.2344
-33.3889
-33.5234
-33.638
-33.7326
-33.807
-26.2237
-26.5981
-26.9612
-27.3107
-27.6454
-27.965
-28.2691
-28.5572
-28.8288
-29.0836
-29.3215
-29.5422
-29.7447
-29.9288
-30.0959
-30.2447
-30.3747
-30.486
-30.5787
-30.653
-23.706
-24.0574
-24.3985
-24.727
-25.0417
-25.3422
-25.6281
-25.899
-26.1545
-26.3942
-26.6179
-26.8253
-27.0161
-27.19
-27.346
-27.4869
-27.6105
-27.7164
-27.8048
-27.8762
-21.5257
-21.8558
-22.1761
-22.4846
-22.7802
-23.0623
-23.3305
-23.5846
-23.824
-24.0485
-24.2578
-24.4519
-24.6303
-24.7931
-24.9401
-25.0697
-25.1855
-25.2849
-25.3678
-25.4347
-19.6295
-19.9402
-20.2415
-20.5317
-20.8095
-21.0745
-21.3262
-21.5642
-21.7884
-21.9983
-22.1939
-22.375
-22.5413
-22.6929
-22.8296
-22.9514
-23.0571
-23.1491
-23.2259
-23.2876
-17.9719
-18.2651
-18.5495
-18.8231
-19.0848
-19.3341
-19.5706
-19.7939
-20.0039
-20.2003
-20.383
-20.5518
-20.7068
-20.8477
-20.9745
-21.0871
-21.1854
-21.2694
-21.3398
-21.396
-16.5148
-16.7925
-17.0618
-17.3207
-17.5679
-17.803
-18.0256
-18.2355
-18.4325
-18.6164
-18.7873
-18.9449
-19.0893
-19.2203
-19.3379
-19.4421
-19.5327
-19.6097
-19.6739
-19.7247
-15.2268
-15.4908
-15.7469
-15.9928
-16.2271
-16.4493
-16.6594
-16.857
-17.0422
-17.2147
-17.3748
-17.5221
-17.6568
-17.7788
-17.888
-17.9845
-18.0681
-18.139
-18.1969
-18.2426
-14.0823
-14.3343
-14.579
-14.8135
-15.0362
-15.2468
-15.4454
-15.6319
-15.8062
-15.9685
-16.1186
-16.2567
-16.3826
-16.4964
-16.598
-16.6874
-16.7645
-16.8294
-16.8818
-16.9231
-13.0603
-13.3019
-13.537
-13.7615
-13.9737
-14.1737
-14.3618
-14.5381
-14.7025
-14.8553
-14.9965
-15.1261
-15.2441
-15.3504
-15.4452
-15.5282
-15.5996
-15.6593
-15.7077
-15.7438
-12.1438
-12.3765
-12.6038
-12.8194
-13.022
-13.2122
-13.3907
-13.5574
-13.7128
-13.8569
-13.9899
-14.1117
-14.2225
-14.3222
-14.4107
-14.4881
-14.5543
-14.6092
-14.6531
-14.6856
-11.3179
-11.5447
-11.7661
-11.9735
-12.167
-12.3481
-12.5174
-12.6753
-12.8221
-12.9582
-13.0837
-13.1985
-13.3028
-13.3964
-13.4793
-13.5514
-13.6129
-13.6636
-13.7035
-13.7327
-10.5664
-10.7931
-11.0119
-11.2115
-11.396
-11.5684
-11.7291
-11.8786
-12.0176
-12.1463
-12.2648
-12.3733
-12.4716
-12.5597
-12.6376
-12.7051
-12.7623
-12.8092
-12.8457
-12.8719
-9.86897
-10.1012
-10.3227
-10.516
-10.6923
-10.8566
-11.0095
-11.1516
-11.2837
-11.406
-11.5187
-11.6218
-11.7151
-11.7987
-11.8724
-11.9361
-11.9898
-12.0336
-12.0674
-12.0912
-9.22841
-9.45999
-9.68579
-9.87637
-10.0459
-10.2026
-10.3485
-10.4841
-10.6101
-10.727
-10.8347
-10.9332
-11.0223
-11.1021
-11.1724
-11.2331
-11.2842
-11.3256
-11.3573
-11.3795
-8.74678
-8.97027
-9.17273
-9.35597
-9.51662
-9.66073
-9.79467
-9.91979
-10.036
-10.1435
-10.2425
-10.3329
-10.4145
-10.4872
-10.551
-10.6057
-10.6513
-10.6878
-10.7152
-10.7333
-4.31968
-4.72999
-5.18801
-5.69227
-6.24988
-6.86887
-7.55775
-8.3268
-9.18878
-10.1597
-11.2598
-12.5147
-13.9576
-15.6303
-17.5868
-19.8977
-22.636
-25.8208
-29.6643
-35.5371
-4.53833
-4.95774
-5.42223
-5.93408
-6.50049
-7.12926
-7.82902
-8.61025
-9.48595
-10.4724
-11.59
-12.8648
-14.3303
-16.0286
-18.014
-20.3568
-23.1294
-26.3486
-30.2203
-36.1071
-4.75914
-5.18772
-5.65881
-6.17849
-6.75395
-7.39274
-8.10361
-8.89729
-9.78698
-10.7892
-11.9246
-13.2197
-14.7081
-16.4324
-18.4467
-20.8216
-23.6281
-26.8807
-30.7792
-36.6756
-4.98166
-5.41942
-5.89722
-6.42493
-7.00964
-7.65866
-8.38085
-9.18717
-10.0911
-11.1092
-12.2627
-13.5783
-15.0898
-16.8402
-18.8837
-21.2906
-24.1309
-27.417
-31.3434
-37.2543
-5.20548
-5.65242
-6.13703
-6.67298
-7.26715
-7.92657
-8.66027
-9.47941
-10.3977
-11.432
-12.6037
-13.9398
-15.4746
-17.2512
-19.3241
-21.763
-24.6373
-27.957
-31.912
-37.8409
-5.43029
-5.88637
-6.3779
-6.92228
-7.5261
-8.1961
-8.94146
-9.77358
-10.7064
-11.757
-12.9471
-14.304
-15.8622
-17.6651
-19.7673
-22.2383
-25.1465
-28.4998
-32.4834
-38.4316
-5.65581
-6.12097
-6.61949
-7.17249
-7.78614
-8.46686
-9.22403
-10.0693
-11.0167
-12.0838
-13.2924
-14.6701
-16.2519
-18.0812
-20.2128
-22.716
-25.6579
-29.0447
-33.0564
-39.0242
-5.8818
-6.35593
-6.86151
-7.4233
-8.04691
-8.73849
-9.50757
-10.366
-11.3282
-12.4118
-13.639
-15.0377
-16.643
-18.4989
-20.6599
-23.1951
-26.1708
-29.5908
-33.63
-39.6176
-6.10813
-6.59107
-7.10371
-7.67443
-8.30813
-9.01064
-9.7917
-10.6634
-11.6404
-12.7406
-13.9864
-15.4061
-17.035
-18.9174
-21.1078
-23.6749
-26.6841
-30.137
-34.2032
-40.2107
-6.33473
-6.82626
-7.34594
-7.92567
-8.56952
-9.28299
-10.0761
-10.9611
-11.9529
-13.0696
-14.334
-15.7747
-17.4272
-19.336
-21.5557
-24.1545
-27.1969
-30.6825
-34.775
-40.802
-6.56168
-7.06149
-7.58809
-8.17686
-8.83085
-9.55524
-10.3603
-11.2585
-12.265
-13.3983
-14.6813
-16.1428
-17.8189
-19.754
-22.0028
-24.6332
-27.7084
-31.2262
-35.3442
-41.3904
-6.78915
-7.29682
-7.8301
-8.42783
-9.09187
-9.82707
-10.6439
-11.5553
-12.5765
-13.7261
-15.0276
-16.5099
-18.2093
-20.1706
-22.4483
-25.1098
-28.2176
-31.7671
-35.9098
-41.9747
-7.01749
-7.53238
-8.07195
-8.67843
-9.3523
-10.0981
-10.9266
-11.8509
-12.8865
-14.0524
-15.3722
-16.8751
-18.5978
-20.5849
-22.8913
-25.5836
-28.7234
-32.3041
-36.4706
-42.5538
-7.24711
-7.76831
-8.31355
-8.92839
-9.61177
-10.3678
-11.2077
-12.1447
-13.1946
-14.3765
-15.7144
-17.2377
-18.9833
-20.9962
-23.3308
-26.0536
-29.2249
-32.8362
-37.0255
-43.1265
-7.47843
-8.00459
-8.55458
-9.17723
-9.86967
-10.6357
-11.4866
-12.436
-13.4999
-14.6977
-16.0534
-17.5969
-19.3652
-21.4034
-23.766
-26.5187
-29.721
-33.3624
-37.5737
-43.692
-7.71164
-8.24079
-8.79431
-9.42409
-10.1251
-10.9007
-11.7624
-12.724
-13.8017
-15.0151
-16.3884
-17.9518
-19.7425
-21.8057
-24.1957
-26.9778
-30.2105
-33.8815
-38.1142
-44.2495
-7.94589
-8.47525
-9.03092
-9.66733
-10.3768
-11.1617
-12.0341
-13.0078
-14.0991
-15.3278
-16.7185
-18.3015
-20.1143
-22.202
-24.619
-27.4299
-30.6923
-34.3925
-38.6463
-44.7986
-8.17866
-8.7043
-9.2613
-9.90481
-10.623
-11.4176
-12.3006
-13.2863
-14.3911
-15.635
-17.0428
-18.6451
-20.4795
-22.5914
-25.0347
-27.8737
-31.1649
-34.8937
-39.169
-45.3396
-8.40082
-8.91918
-9.47973
-10.1334
-10.862
-11.6667
-12.5607
-13.5585
-14.6768
-15.9357
-17.3604
-18.9816
-20.8372
-22.9726
-25.4417
-28.3079
-31.627
-35.3835
-39.6816
-45.874
-8.59073
-9.10212
-9.68268
-10.354
-11.0942
-11.9093
-12.8143
-13.8242
-14.9557
-16.2294
-17.6705
-19.3102
-21.1865
-23.3448
-25.8388
-28.7313
-32.0767
-35.859
-40.1803
-46.4036
-0.974071
-1.22661
-1.57153
-1.96142
-2.38946
-2.86279
-3.38894
-3.9753
-4.63093
-5.36746
-6.19986
-7.14769
-8.2367
-9.50113
-10.9878
-12.7637
-14.9082
-17.4691
-20.7162
-26.1592
-1.08757
-1.35126
-1.70735
-2.09853
-2.52657
-3.0017
-3.53092
-4.12126
-4.78188
-5.52458
-6.36456
-7.3216
-8.42179
-9.69974
-11.2027
-12.9979
-15.1648
-17.7497
-21.0187
-26.4666
-1.19044
-1.47279
-1.83727
-2.2329
-2.66519
-3.14499
-3.67917
-4.27493
-4.94173
-5.69167
-6.54019
-7.50739
-8.61969
-9.91211
-11.4323
-13.2476
-15.4372
-18.0459
-21.3361
-26.7835
-1.3087
-1.5989
-1.96851
-2.36965
-2.80772
-3.29337
-3.83359
-4.43584
-5.10984
-5.86795
-6.7259
-7.7041
-8.82937
-10.1371
-11.6752
-13.5116
-15.7248
-18.3582
-21.6725
-27.1285
-1.4358
-1.73069
-2.10518
-2.512
-2.95606
-3.44795
-3.99479
-4.60424
-5.2862
-6.05326
-6.92143
-7.91145
-9.05048
-10.3743
-11.9313
-13.7896
-16.0274
-18.687
-22.0277
-27.4987
-1.56782
-1.86841
-2.24807
-2.66059
-3.1108
-3.60926
-4.16319
-4.78038
-5.47092
-6.24761
-7.12672
-8.12931
-9.28291
-10.6237
-12.2005
-14.0815
-16.345
-19.032
-22.4001
-27.8893
-1.70623
-2.01305
-2.39771
-2.81588
-3.27237
-3.77766
-4.33905
-4.96444
-5.66409
-6.451
-7.3417
-8.35757
-9.5265
-10.8851
-12.4825
-14.3873
-16.6775
-19.3928
-22.7891
-28.2981
-1.85234
-2.16525
-2.55466
-2.97838
-3.44122
-3.95352
-4.52262
-5.15657
-5.86577
-6.66341
-7.5663
-8.59609
-9.78108
-11.1583
-12.7772
-14.7066
-17.0244
-19.769
-23.1942
-28.7242
-2.00616
-2.32511
-2.71916
-3.14838
-3.61761
-4.13703
-4.71406
-5.35686
-6.07599
-6.88482
-7.80042
-8.84475
-10.0465
-11.4429
-13.0841
-15.0391
-17.3854
-20.1601
-23.6148
-29.1669
-2.16735
-2.4925
-2.89118
-3.3259
-3.80158
-4.32825
-4.91341
-5.56532
-6.29471
-7.11516
-8.04394
-9.10336
-10.3224
-11.7389
-13.4031
-15.3844
-17.76
-20.5657
-24.0506
-29.6253
-2.33563
-2.66721
-3.07056
-3.51082
-3.99304
-4.52711
-5.12058
-5.78186
-6.52183
-7.35427
-8.29671
-9.37174
-10.6087
-12.0459
-13.7339
-15.7422
-18.1479
-20.9853
-24.5009
-30.0987
-2.51069
-2.84896
-3.25706
-3.70293
-4.19181
-4.73343
-5.33541
-6.00632
-6.75718
-7.60197
-8.55849
-9.64963
-10.9051
-12.3636
-14.076
-16.1121
-18.5485
-21.4184
-24.965
-30.5863
-2.69217
-3.03738
-3.45034
-3.90195
-4.39763
-4.94697
-5.55767
-6.23844
-7.00049
-7.858
-8.82901
-9.93674
-11.2113
-12.6916
-14.4291
-16.4936
-18.9615
-21.8643
-25.4425
-31.0874
-2.87963
-3.23206
-3.65001
-4.1075
-4.61016
-5.16741
-5.78704
-6.47794
-7.25148
-8.12205
-9.10795
-10.2327
-11.5268
-13.0295
-14.7927
-16.8864
-19.3864
-22.3227
-25.9327
-31.6015
-3.07259
-3.43253
-3.85565
-4.31918
-4.82901
-5.39439
-6.02319
-6.72447
-7.50979
-8.39376
-9.39493
-10.5372
-11.8513
-13.377
-15.1664
-17.2897
-19.8224
-22.7929
-26.4351
-32.1279
-3.2706
-3.63832
-4.06679
-4.53655
-5.05376
-5.62749
-6.26569
-6.97761
-7.77501
-8.67271
-9.68954
-10.8497
-12.1843
-13.7335
-15.5497
-17.7033
-20.2692
-23.2743
-26.9492
-32.6662
-3.47317
-3.84895
-4.28294
-4.75916
-5.28397
-5.86627
-6.51412
-7.23696
-8.04672
-8.95848
-9.99131
-11.1697
-12.5253
-14.0984
-15.942
-18.1263
-20.7259
-23.7663
-27.4743
-33.216
-3.67983
-4.06391
-4.50363
-4.98651
-5.51917
-6.11029
-6.76803
-7.50204
-8.32447
-9.25059
-10.2998
-11.4969
-12.8737
-14.4713
-16.3426
-18.5581
-21.192
-24.268
-28.0099
-33.7774
-3.8901
-4.28272
-4.72836
-5.21814
-5.75888
-6.35905
-7.02694
-7.77238
-8.60774
-9.54852
-10.6144
-11.8305
-13.229
-14.8514
-16.7508
-18.998
-21.6665
-24.7785
-28.5553
-34.3511
-4.10355
-4.50493
-4.95669
-5.4536
-6.00265
-6.61213
-7.29041
-8.04754
-8.8961
-9.85184
-10.9347
-12.1701
-13.5907
-15.2382
-17.1661
-19.4451
-22.1485
-25.2967
-29.1078
-34.9383
-0.78331
-0.636581
-0.534544
-0.447486
-0.374762
-0.314087
-0.264466
-0.22517
-0.195717
-0.175782
-0.165084
-0.163056
-0.168843
-0.183118
-0.208031
-0.239656
-0.279736
-0.32768
-0.382963
-0.445314
-1.10284
-0.974842
-0.869539
-0.7788
-0.702815
-0.639258
-0.587178
-0.545807
-0.514633
-0.493287
-0.48147
-0.478735
-0.484451
-0.498704
-0.522382
-0.554524
-0.595014
-0.643443
-0.699478
-0.762857
-1.43704
-1.3159
-1.21117
-1.12002
-1.04288
-0.978187
-0.925162
-0.883107
-0.851526
-0.830035
-0.818309
-0.815969
-0.822611
-0.83824
-0.86312
-0.896787
-0.939012
-0.989339
-1.04749
-1.11323
-1.82576
-1.70467
-1.59848
-1.50568
-1.42636
-1.35954
-1.30462
-1.26099
-1.22821
-1.20587
-1.19365
-1.19119
-1.19819
-1.21459
-1.24039
-1.27521
-1.31883
-1.37085
-1.431
-1.49904
-2.25666
-2.13542
-2.02745
-1.93259
-1.8509
-1.78176
-1.72473
-1.67932
-1.64511
-1.62174
-1.60887
-1.60617
-1.61337
-1.63035
-1.65697
-1.69292
-1.73798
-1.79173
-1.85395
-1.92439
-2.73056
-2.60872
-2.49908
-2.40215
-2.31814
-2.24675
-2.18766
-2.14048
-2.10486
-2.08045
-2.06695
-2.06404
-2.07146
-2.08904
-2.11657
-2.15378
-2.20037
-2.25613
-2.32063
-2.39371
-3.25516
-3.13164
-3.01994
-2.9207
-2.83425
-2.76049
-2.69923
-2.65018
-2.61304
-2.58752
-2.57332
-2.57015
-2.57775
-2.59592
-2.62441
-2.66297
-2.7113
-2.76916
-2.83608
-2.91203
-3.83863
-3.71239
-3.59793
-3.49588
-3.40663
-3.3302
-3.26651
-3.21536
-3.17649
-3.14966
-3.1346
-3.13102
-3.13869
-3.15736
-3.18679
-3.22671
-3.27681
-3.33675
-3.40638
-3.48539
-4.4902
-4.36019
-4.24213
-4.13661
-4.04401
-3.96445
-3.89792
-3.84429
-3.80337
-3.77493
-3.75873
-3.75452
-3.76205
-3.78107
-3.81134
-3.85257
-3.90447
-3.96667
-4.03896
-4.1212
-5.22141
-5.08649
-4.96384
-4.85397
-4.75729
-4.67395
-4.604
-4.54736
-4.50389
-4.47341
-4.45568
-4.45049
-4.45758
-4.47671
-4.50762
-4.55003
-4.60363
-4.66805
-4.743
-4.82869
-6.0471
-5.90594
-5.77749
-5.66219
-5.56045
-5.47245
-5.39827
-5.33789
-5.29121
-5.25806
-5.23825
-5.23157
-5.23777
-5.25662
-5.28783
-5.33114
-5.38624
-5.45276
-5.53033
-5.61882
-6.98659
-6.83761
-6.70187
-6.57978
-6.47171
-6.3779
-6.29843
-6.23332
-6.1825
-6.14584
-6.12317
-6.11427
-6.11893
-6.1369
-6.16791
-6.21167
-6.26787
-6.33617
-6.4162
-6.50779
-8.06533
-7.90662
-7.7618
-7.63119
-7.51521
-7.41408
-7.32793
-7.25678
-7.2006
-7.15929
-7.13267
-7.12057
-7.12277
-7.13902
-7.16905
-7.21257
-7.26926
-7.33874
-7.4207
-7.51511
-9.31719
-9.14644
-8.9903
-8.84906
-8.72315
-8.6128
-8.51817
-8.4393
-8.37616
-8.32868
-8.2967
-8.28006
-8.27853
-8.29188
-8.31985
-8.36212
-8.41836
-8.48815
-8.57117
-8.66754
-10.7885
-10.603
-10.4328
-10.2783
-10.14
-10.018
-9.91266
-9.82391
-9.75177
-9.69617
-9.65697
-9.63401
-9.62707
-9.63592
-9.66029
-9.69989
-9.75436
-9.82321
-9.9061
-10.0032
-12.5459
-12.3422
-12.1547
-11.9838
-11.83
-11.6936
-11.5747
-11.4735
-11.3898
-11.3236
-11.2748
-11.2433
-11.2287
-11.231
-11.2498
-11.2849
-11.3359
-11.4022
-11.4834
-11.5796
-14.668
-14.4425
-14.2341
-14.0435
-13.8711
-13.7172
-13.5819
-13.4654
-13.3674
-13.2881
-13.2273
-13.1847
-13.1603
-13.1538
-13.1651
-13.1939
-13.2396
-13.3015
-13.3791
-13.4724
-17.2026
-16.9523
-16.7201
-16.507
-16.3135
-16.1397
-15.9858
-15.8518
-15.7377
-15.6433
-15.5686
-15.5134
-15.4775
-15.4607
-15.4629
-15.4835
-15.5211
-15.5761
-15.6477
-15.7355
-20.4233
-20.1442
-19.8835
-19.6438
-19.4254
-19.2284
-19.0524
-18.8975
-18.7633
-18.6499
-18.557
-18.4844
-18.432
-18.3994
-18.3863
-18.3926
-18.4194
-18.4665
-18.5333
-18.6165
-25.8162
-25.5006
-25.2142
-24.9538
-24.7172
-24.5033
-24.3116
-24.1417
-23.9936
-23.867
-23.7618
-23.6779
-23.6152
-23.5734
-23.5524
-23.5519
-23.573
-23.6182
-23.6887
-23.7732
-0.514532
-0.590206
-0.672187
-0.760226
-0.854083
-0.953495
-1.05819
-1.1679
-1.2823
-1.40108
-1.52386
-1.65017
-1.77936
-1.91048
-2.04221
-2.17265
-2.29788
-2.40937
-2.49141
-2.55918
-0.833391
-0.910598
-0.994312
-1.08426
-1.18019
-1.28183
-1.38889
-1.50108
-1.61807
-1.73952
-1.865
-1.99402
-2.12593
-2.25977
-2.39417
-2.52772
-2.65888
-2.78049
-2.87645
-2.97923
-1.1864
-1.26648
-1.3533
-1.44657
-1.54603
-1.65139
-1.76236
-1.87863
-1.99986
-2.12567
-2.25562
-2.38922
-2.5258
-2.6645
-2.80413
-2.94363
-3.08218
-3.21557
-3.33653
-3.4691
-1.57481
-1.65777
-1.74773
-1.84439
-1.94749
-2.05671
-2.17176
-2.29229
-2.41797
-2.5484
-2.68312
-2.82163
-2.96328
-3.10729
-3.25269
-3.39868
-3.54451
-3.68781
-3.82755
-3.98089
-2.00291
-2.08889
-2.18218
-2.28245
-2.38941
-2.50275
-2.62215
-2.74727
-2.87775
-3.01317
-3.15309
-3.29699
-3.44428
-3.59424
-3.74614
-3.89936
-4.05331
-4.20674
-4.3612
-4.52834
-2.47523
-2.56454
-2.66147
-2.76569
-2.8769
-2.99477
-3.11898
-3.24917
-3.38496
-3.52595
-3.67169
-3.82169
-3.97539
-4.13218
-4.29147
-4.45286
-4.61592
-4.7802
-4.94778
-5.12594
-2.99682
-3.08975
-3.19065
-3.29918
-3.41503
-3.53788
-3.66738
-3.80317
-3.94487
-4.09207
-4.24434
-4.40121
-4.56216
-4.72669
-4.89433
-5.06479
-5.23784
-5.41348
-5.59358
-5.78245
-3.57368
-3.6705
-3.77569
-3.88889
-4.0098
-4.13807
-4.27337
-4.41532
-4.56355
-4.71764
-4.87719
-5.04174
-5.21083
-5.38404
-5.56099
-5.74145
-5.92533
-6.11283
-6.30538
-6.50551
-4.21318
-4.31413
-4.42389
-4.54211
-4.66847
-4.80262
-4.94422
-5.09291
-5.2483
-5.40999
-5.57758
-5.75065
-5.9288
-6.11163
-6.29884
-6.49027
-6.68584
-6.88582
-7.09118
-7.30346
-4.92445
-5.02967
-5.14424
-5.26776
-5.39993
-5.54038
-5.68877
-5.84474
-6.00791
-6.17789
-6.35429
-6.53672
-6.72479
-6.91818
-7.11662
-7.31996
-7.52813
-7.74133
-7.96018
-8.18569
-5.71907
-5.82858
-5.94804
-6.07706
-6.2153
-6.3624
-6.51799
-6.68172
-6.85322
-7.03212
-7.21804
-7.4106
-7.60945
-7.81428
-8.02485
-8.241
-8.46267
-8.68993
-8.92313
-9.16303
-6.61081
-6.72563
-6.84991
-6.98445
-7.12889
-7.28283
-7.44591
-7.61777
-7.79805
-7.98637
-8.18239
-8.38574
-8.59608
-8.81312
-9.03664
-9.26646
-9.50247
-9.74463
-9.99311
-10.2485
-7.62165
-7.73909
-7.86906
-8.00904
-8.15961
-8.32039
-8.49103
-8.67117
-8.86044
-9.0585
-9.265
-9.47959
-9.70195
-9.9318
-10.1689
-10.4131
-10.6642
-10.922
-11.1866
-11.4586
-8.77707
-8.89811
-9.03105
-9.17648
-9.333
-9.50039
-9.67826
-9.8664
-10.0645
-10.2723
-10.4894
-10.7154
-10.95
-11.193
-11.4441
-11.703
-11.9697
-12.2437
-12.5251
-12.8144
-10.1144
-10.238
-10.3742
-10.5228
-10.6841
-10.8583
-11.0423
-11.2377
-11.4441
-11.6612
-11.8886
-12.1259
-12.3727
-12.6288
-12.8938
-13.1676
-13.4499
-13.7404
-14.0388
-14.3458
-11.6908
-11.8151
-11.9531
-12.1044
-12.2683
-12.4444
-12.635
-12.838
-13.0522
-13.278
-13.5151
-13.7629
-14.0209
-14.2891
-14.5673
-14.8554
-15.153
-15.4596
-15.7748
-16.0991
-13.5814
-13.7043
-13.8419
-13.994
-14.1602
-14.3399
-14.5336
-14.7409
-14.962
-15.1947
-15.4392
-15.6951
-15.9617
-16.24
-16.5297
-16.8305
-17.1421
-17.4637
-17.7946
-18.1349
-15.8395
-15.9577
-16.0912
-16.2403
-16.4046
-16.5837
-16.7772
-16.9843
-17.2051
-17.4403
-17.6893
-17.9519
-18.2285
-18.5175
-18.8185
-19.1313
-19.4556
-19.7911
-20.1369
-20.492
-18.7111
-18.8206
-18.9468
-19.0903
-19.2507
-19.4273
-19.6197
-19.8271
-20.0491
-20.2855
-20.5361
-20.8008
-21.0798
-21.3727
-21.6791
-21.9986
-22.3314
-22.6782
-23.0392
-23.4091
-23.8446
-23.9382
-24.0544
-24.191
-24.346
-24.5183
-24.7071
-24.9119
-25.1321
-25.3675
-25.618
-25.8834
-26.1638
-26.4592
-26.7696
-27.095
-27.4367
-27.7989
-28.1842
-28.5739
-28.9231
-23.7795
-20.8559
-18.4852
-16.4328
-14.6615
-13.1117
-11.738
-10.5111
-9.40979
-8.41807
-7.52296
-6.71377
-5.98138
-5.31795
-4.71644
-4.16925
-3.66903
-3.22208
-2.84926
-29.2911
-24.1574
-21.2274
-18.8426
-16.7734
-14.9837
-13.4153
-12.0234
-10.7792
-9.662
-8.6558
-7.7478
-6.92737
-6.18553
-5.51456
-4.90751
-4.35741
-3.86025
-3.42656
-3.05731
-29.6793
-24.5458
-21.608
-19.2086
-17.1218
-15.3131
-13.7255
-12.3149
-11.053
-9.91946
-8.89848
-7.97731
-7.14535
-6.39362
-5.71435
-5.10055
-4.5454
-4.0451
-3.60703
-3.22268
-30.084
-24.9461
-21.9982
-19.5831
-17.4779
-15.6494
-14.0418
-12.6119
-11.3319
-10.1816
-9.14542
-8.2106
-7.36652
-6.60405
-5.91529
-5.29302
-4.73029
-4.22274
-3.77515
-3.37601
-30.5026
-25.3579
-22.3981
-19.9661
-17.8414
-15.9923
-14.364
-12.9143
-11.6156
-10.4481
-9.39623
-8.44728
-7.5905
-6.81665
-6.11756
-5.48582
-4.91426
-4.39802
-3.94014
-3.52856
-30.9334
-25.7805
-22.8073
-20.3572
-18.2121
-16.3415
-14.6919
-13.2217
-11.9037
-10.7186
-9.65061
-8.6871
-7.81718
-7.03144
-6.32153
-5.6798
-5.09895
-4.5738
-4.10615
-3.68404
-31.3753
-26.2133
-23.2255
-20.7563
-18.5897
-16.6968
-15.0252
-13.5338
-12.1962
-10.9929
-9.90843
-8.93
-8.04664
-7.24873
-6.52775
-5.87589
-5.28574
-4.75193
-4.2752
-3.8439
-31.8276
-26.6557
-23.6522
-21.1629
-18.9739
-17.0579
-15.3635
-13.8504
-12.4926
-11.2708
-10.1696
-9.17598
-8.27896
-7.46875
-6.73665
-6.07469
-5.4754
-4.93325
-4.44801
-4.00844
-32.2896
-27.1071
-24.0871
-21.5767
-19.3643
-17.4243
-15.7065
-14.1713
-12.7929
-11.5522
-10.4339
-9.42499
-8.51421
-7.69166
-6.94845
-6.2765
-5.66827
-5.11805
-4.62473
-4.1775
-32.7607
-27.5669
-24.5297
-21.9973
-19.7605
-17.7958
-16.054
-14.4961
-13.0967
-11.8369
-10.7013
-9.67696
-8.75237
-7.91747
-7.16323
-6.48141
-5.86441
-5.30632
-4.80521
-4.35073
-33.2405
-28.0351
-24.9791
-22.4242
-20.1622
-18.172
-16.4056
-14.8245
-13.4037
-12.1246
-10.9717
-9.93174
-8.99332
-8.14613
-7.38093
-6.68934
-6.0637
-5.49788
-4.98916
-4.52769
-33.7288
-28.5119
-25.4343
-22.8567
-20.5688
-18.5524
-16.7608
-15.1562
-13.7138
-12.4151
-11.2447
-10.1892
-9.2369
-8.37745
-7.60136
-6.90011
-6.2659
-5.69243
-5.17622
-4.70795
-34.2253
-28.9961
-25.8955
-23.2943
-20.9799
-18.9366
-17.1193
-15.4908
-14.0265
-12.7081
-11.52
-10.4489
-9.48288
-8.61121
-7.82431
-7.11346
-6.47075
-5.88967
-5.36603
-4.8911
-34.7295
-29.487
-26.3622
-23.7364
-21.3948
-19.3241
-17.4807
-15.8278
-14.3415
-13.0032
-11.7975
-10.7108
-9.73096
-8.84713
-8.04948
-7.32909
-6.67794
-6.08925
-5.55822
-5.07674
-35.2409
-29.9836
-26.8339
-24.1826
-21.813
-19.7143
-17.8444
-16.167
-14.6583
-13.3001
-12.0767
-10.9744
-9.98083
-9.08491
-8.27656
-7.54669
-6.88713
-6.29085
-5.75245
-5.26453
-35.7588
-30.4853
-27.31
-24.6323
-22.234
-20.1068
-18.2099
-16.5076
-14.9766
-13.5984
-12.3573
-11.2394
-10.2322
-9.32421
-8.50524
-7.76594
-7.098
-6.49413
-5.94839
-5.45412
-36.2836
-30.9917
-27.7897
-25.0848
-22.657
-20.5008
-18.5766
-16.8494
-15.2958
-13.8975
-12.6388
-11.5054
-10.4846
-9.56467
-8.73515
-7.9865
-7.31021
-6.69877
-6.1457
-5.6452
-36.8172
-31.5029
-28.2721
-25.5389
-23.0811
-20.8955
-18.9438
-17.1914
-15.6153
-14.1971
-12.9208
-11.772
-10.7376
-9.80589
-8.96592
-8.20799
-7.52342
-6.90442
-6.34406
-5.83747
-37.3607
-32.0184
-28.7557
-25.9935
-23.5055
-21.2903
-19.3109
-17.5334
-15.9347
-14.4965
-13.2027
-12.0386
-10.9909
-10.0475
-9.19715
-8.43004
-7.73726
-7.11075
-6.54317
-6.03065
-37.9014
-32.5335
-29.2398
-26.4483
-23.9302
-21.6853
-19.6781
-17.8753
-16.254
-14.7959
-13.4847
-12.3054
-11.2444
-10.2893
-9.4287
-8.65248
-7.95154
-7.31754
-6.74279
-6.22452
-4.9521
-3.35477
-2.38456
-1.66872
-1.19642
-0.857375
-0.623624
-0.46126
-0.351399
-0.278893
-0.233263
-0.206548
-0.192998
-0.188333
-0.189464
-0.194185
-0.200995
-0.208961
-0.217634
-0.227014
-0.237556
-0.250237
-0.266584
-0.288534
-0.317911
-0.355539
-0.400042
-0.446989
-0.48879
-0.516071
-0.519516
-0.493436
-0.43832
-0.362805
-0.27984
-0.200826
-0.134595
-0.0788937
-0.0430088
-0.00249103
-5.14251
-3.48803
-2.49502
-1.75496
-1.26527
-0.913076
-0.669086
-0.498818
-0.382708
-0.305206
-0.255526
-0.225485
-0.209172
-0.202192
-0.20137
-0.204431
-0.209826
-0.216576
-0.224198
-0.232655
-0.242364
-0.254257
-0.269799
-0.290848
-0.319133
-0.355402
-0.39827