/*--------------------------------*- C++ -*----------------------------------*\
| =========                 |                                                 |
| \\      /  F ield         | OpenFOAM: The Open Source CFD Toolbox           |
|  \\    /   O peration     | Version:  v1912                                 |
|   \\  /    A nd           | Website:  www.openfoam.com                      |
|    \\/     M anipulation  |                                                 |
\*---------------------------------------------------------------------------*/
FoamFile
{
    version     2.0;
    format      ascii;
    class       surfaceScalarField;
    location    "9";
    object      phi;
}
// * * * * * * * * * * * * * * * * * * * * * * * * * * * * * * * * * * * * * //

dimensions      [0 3 -1 0 0 0 0];
oriented        oriented;


internalField   nonuniform List<scalar> 
18940
(
0.000213805
-0.236577
0.236363
0.000870606
-0.219865
0.219208
0.00186362
-0.207983
0.20699
0.00306957
-0.199006
0.1978
0.0044017
-0.191684
0.190351
0.00579098
-0.185219
0.183829
0.00718691
-0.179169
0.177774
0.00855586
-0.173313
0.171944
0.00987755
-0.167554
0.166232
0.0111417
-0.161867
0.160603
0.0123454
-0.156265
0.155061
0.0134904
-0.150773
0.149628
0.0145817
-0.145422
0.144331
0.0156265
-0.14024
0.139195
0.0166328
-0.135245
0.134239
0.0176095
-0.130448
0.129471
0.0185648
-0.12585
0.124895
0.0195062
-0.12144
0.120498
0.020439
-0.117196
0.116263
-0.113087
0.112161
0.0213653
0.000234682
-0.236812
0.00091165
-0.220542
0.00191498
-0.208986
0.00313112
-0.200222
0.00446822
-0.193021
0.00585676
-0.186607
0.00724694
-0.18056
0.008606
-0.174672
0.00991468
-0.168863
0.0111638
-0.163116
0.0123512
-0.157452
0.0134795
-0.151901
0.0145544
-0.146497
0.0155834
-0.141269
0.016575
-0.136237
0.0175382
-0.131411
0.0184818
-0.126793
0.0194137
-0.122372
0.0203398
-0.118122
-0.11401
0.0212629
0.000254332
-0.237066
0.000947443
-0.221235
0.00196196
-0.210001
0.00318589
-0.201446
0.00452583
-0.194361
0.00591148
-0.187993
0.00729361
-0.181942
0.00864044
-0.176019
0.00993385
-0.170156
0.0111657
-0.164348
0.0123349
-0.158621
0.0134448
-0.153011
0.0145017
-0.147554
0.0155134
-0.142281
0.0164888
-0.137212
0.0174372
-0.13236
0.0183677
-0.127724
0.0192887
-0.123293
0.0202067
-0.11904
-0.114929
0.0211252
0.000266748
-0.237333
0.000975356
-0.221943
0.00200218
-0.211028
0.00323301
-0.202677
0.00457386
-0.195701
0.00595441
-0.189373
0.00732614
-0.183313
0.00865842
-0.177351
0.00993435
-0.171432
0.011147
-0.165561
0.0122961
-0.15977
0.0133858
-0.154101
0.014423
-0.148591
0.015416
-0.143274
0.0163738
-0.13817
0.0173061
-0.133292
0.0182222
-0.12864
0.0191311
-0.124202
0.0200398
-0.119949
-0.115842
0.0209528
0.000276999
-0.23761
0.000999318
-0.222666
0.00203692
-0.212065
0.00327286
-0.203913
0.00461241
-0.197041
0.00598548
-0.190747
0.00734443
-0.184672
0.00865982
-0.178667
0.00991604
-0.172688
0.0111073
-0.166752
0.0122344
-0.160897
0.0133023
-0.155169
0.0143183
-0.149607
0.015291
-0.144246
0.0162299
-0.139109
0.0171447
-0.134207
0.0180452
-0.129541
0.0189407
-0.125097
0.0198391
-0.120847
-0.116748
0.0207457
0.000285506
-0.237895
0.00101972
-0.2234
0.00206635
-0.213112
0.00330543
-0.205152
0.00464141
-0.198377
0.00600458
-0.19211
0.0073483
-0.186016
0.00864443
-0.179963
0.00987871
-0.173922
0.0110465
-0.16792
0.0121497
-0.162001
0.013194
-0.156213
0.0141871
-0.150601
0.0151382
-0.145197
0.0160568
-0.140027
0.0169527
-0.135103
0.0178362
-0.130424
0.0187171
-0.125978
0.019604
-0.121734
-0.117648
0.0205032
0.000292867
-0.238188
0.00103727
-0.224144
0.00209094
-0.214166
0.00333096
-0.206392
0.00466098
-0.199707
0.00601176
-0.19346
0.00733777
-0.187342
0.00861227
-0.181237
0.00982233
-0.175132
0.0109646
-0.169062
0.012042
-0.163078
0.0130608
-0.157232
0.0140295
-0.151569
0.0149573
-0.146125
0.0158539
-0.140924
0.0167296
-0.135978
0.0175946
-0.131289
0.0184594
-0.126843
0.0193334
-0.122608
-0.118538
0.0202241
0.000299236
-0.238487
0.0010522
-0.224897
0.00211094
-0.215224
0.00334965
-0.207631
0.00467127
-0.201029
0.00600715
-0.194796
0.00731297
-0.188648
0.00856342
-0.182488
0.009747
-0.176316
0.0108616
-0.170177
0.0119111
-0.164127
0.0129026
-0.158223
0.0138451
-0.152512
0.0147479
-0.147028
0.015621
-0.141797
0.0164747
-0.136832
0.0173195
-0.132134
0.0181664
-0.12769
0.0190259
-0.123468
-0.119419
0.0199066
0.000304708
-0.238792
0.00106474
-0.225657
0.00212663
-0.216286
0.00336177
-0.208866
0.00467254
-0.202339
0.005991
-0.196115
0.00727413
-0.189931
0.00849813
-0.183712
0.00965294
-0.177471
0.0107377
-0.171262
0.0117573
-0.165147
0.0127195
-0.159186
0.0136338
-0.153426
0.0145098
-0.147904
0.0153575
-0.142645
0.0161872
-0.137662
0.0170098
-0.132957
0.0178368
-0.128517
0.0186796
-0.124311
-0.120288
0.0195485
0.000309341
-0.239101
0.00107509
-0.226423
0.0021383
-0.217349
0.00336765
-0.210095
0.00466515
-0.203637
0.00596369
-0.197413
0.00722168
-0.191189
0.00841684
-0.184907
0.00954057
-0.178595
0.0105933
-0.172314
0.0115808
-0.166134
0.0125116
-0.160117
0.0133956
-0.15431
0.0142427
-0.148751
0.0150628
-0.143465
0.0158663
-0.138465
0.0166642
-0.133754
0.0174686
-0.129321
0.0182923
-0.125134
-0.121142
0.0191467
0.000313215
-0.239415
0.00108349
-0.227193
0.00214631
-0.218412
0.00336772
-0.211317
0.00464956
-0.204919
0.00592576
-0.19869
0.00715619
-0.19242
0.00832015
-0.186071
0.00941052
-0.179685
0.0104289
-0.173333
0.0113821
-0.167088
0.0122794
-0.161014
0.0131309
-0.155161
0.0139467
-0.149567
0.0147367
-0.144255
0.0155113
-0.13924
0.0162815
-0.134525
0.0170601
-0.1301
0.017861
-0.125935
-0.121979
0.0186979
0.000316454
-0.239731
0.00109028
-0.227967
0.00215111
-0.219473
0.00336252
-0.212528
0.00462641
-0.206183
0.0058779
-0.199941
0.00707844
-0.19362
0.00820894
-0.187201
0.00926371
-0.18074
0.0102456
-0.174315
0.0111622
-0.168004
0.0120236
-0.161875
0.0128401
-0.155978
0.013622
-0.150349
0.0143791
-0.145012
0.0151216
-0.139982
0.0158605
-0.135264
0.0166092
-0.130848
0.0173832
-0.126709
-0.122794
0.0181983
0.000319297
-0.24005
0.00109593
-0.228744
0.0021533
-0.220531
0.00335271
-0.213728
0.00459646
-0.207426
0.00582101
-0.201166
0.00698946
-0.194789
0.00808433
-0.188296
0.00910136
-0.181757
0.0100445
-0.175258
0.0109224
-0.168882
0.0117454
-0.162698
0.0125243
-0.156757
0.0132694
-0.151094
0.0139904
-0.145733
0.0146971
-0.140689
0.0154004
-0.135967
0.0161143
-0.131562
0.0168558
-0.127451
-0.123582
0.0176436
0.000322179
-0.240372
0.00110116
-0.229523
0.00215368
-0.221583
0.00333916
-0.214913
0.00456065
-0.208648
0.00575615
-0.202361
0.00689047
-0.195923
0.00794773
-0.189353
0.00892506
-0.182734
0.00982752
-0.17616
0.0106644
-0.169719
0.0114466
-0.16348
0.0121852
-0.157495
0.0128904
-0.151799
0.0135715
-0.146414
0.0142381
-0.141355
0.0149007
-0.13663
0.0155735
-0.132235
0.0162753
-0.128152
-0.124335
0.0170279
0.000325852
-0.240698
0.00110701
-0.230304
0.00215318
-0.222629
0.00332279
-0.216083
0.00452002
-0.209845
0.00568456
-0.203526
0.00678292
-0.197021
0.00780085
-0.190371
0.0087368
-0.18367
0.00959681
-0.17702
0.0103908
-0.170513
0.01113
-0.16422
0.0118256
-0.158191
0.0124875
-0.152461
0.0131247
-0.147051
0.013746
-0.141977
0.0143615
-0.137245
0.0149851
-0.132859
0.015637
-0.128804
-0.125042
0.0163443
0.000331403
-0.24103
0.00111463
-0.231087
0.00215271
-0.223667
0.00330455
-0.217235
0.0044757
-0.211016
0.00560757
-0.204657
0.00666845
-0.198082
0.00764567
-0.191349
0.00853894
-0.184563
0.00935518
-0.177836
0.0101048
-0.171263
0.0107993
-0.164914
0.0114496
-0.158841
0.0120653
-0.153077
0.0126548
-0.147641
0.0132257
-0.142547
0.0137869
-0.137806
0.0143515
-0.133423
0.0149414
-0.129394
-0.125692
0.0155911
0.000340157
-0.24137
0.00112516
-0.231872
0.0021533
-0.224695
0.00328554
-0.218367
0.00442894
-0.21216
0.00552665
-0.205755
0.0065488
-0.199104
0.00748431
-0.192284
0.0083341
-0.185413
0.00910586
-0.178608
0.00981035
-0.171967
0.010459
-0.165563
0.0110625
-0.159445
0.0116298
-0.153644
0.0121685
-0.14818
0.0126849
-0.143064
0.0131861
-0.138307
0.0136834
-0.133921
0.0141993
-0.12991
-0.126265
0.0147726
0.000354427
-0.241724
0.00114107
-0.232659
0.00215717
-0.225712
0.00326747
-0.219477
0.00438114
-0.213273
0.00544319
-0.206817
0.00642562
-0.200087
0.00731891
-0.193177
0.00812508
-0.186219
0.00885243
-0.179336
0.00951185
-0.172627
0.0101145
-0.166165
0.0106703
-0.16
0.0111874
-0.154161
0.0116722
-0.148664
0.0121296
-0.143521
0.0125648
-0.138743
0.0129854
-0.134341
0.0134087
-0.130333
-0.126726
0.0138693
0.000381859
-0.242106
0.00116971
-0.233447
0.00216821
-0.22671
0.00325182
-0.220561
0.00433295
-0.214354
0.00535788
-0.207842
0.00630004
-0.201029
0.00715128
-0.194029
0.00791463
-0.186983
0.0085989
-0.18002
0.00921495
-0.173243
0.00977331
-0.166724
0.0102827
-0.16051
0.0107495
-0.154628
0.0111771
-0.149092
0.0115675
-0.143912
0.0119206
-0.139096
0.0122351
-0.134656
0.0125186
-0.130617
-0.127046
0.0128388
0.000442345
-0.242548
0.00122038
-0.234225
0.00218564
-0.227675
0.00323677
-0.221612
0.00428326
-0.215401
0.00527044
-0.208829
0.00617252
-0.201931
0.00698264
-0.194839
0.00770495
-0.187705
0.00834891
-0.180664
0.00892559
-0.173819
0.00944511
-0.167243
0.00991515
-0.16098
0.0103398
-0.155053
0.0107189
-0.149471
0.0110465
-0.144239
0.0113087
-0.139358
0.0114819
-0.134829
0.011552
-0.130687
-0.127178
0.0116847
0.248446
0.0003409
-0.248786
0.248133
0.000312643
0.24783
0.000303078
0.247528
0.000301362
0.247226
0.000302868
0.24692
0.000305667
0.246611
0.000309116
0.246298
0.000312664
0.245982
0.000315915
0.245664
0.000318652
0.245343
0.000320766
0.245021
0.000322215
0.244698
0.000322961
0.244375
0.000322961
0.244053
0.00032207
0.243733
0.000320056
0.243417
0.000315843
0.243108
0.000308838
0.242818
0.000289883
0.000269469
0.246504
0.000824024
-0.246987
0.245993
0.000823483
0.24546
0.000835925
0.244907
0.000854952
0.244334
0.000876076
0.243742
0.000897135
0.243134
0.000917713
0.242509
0.000937314
0.241869
0.000955477
0.241216
0.000971897
0.240551
0.00098641
0.239874
0.000998934
0.239187
0.00100941
0.238493
0.00101776
0.237791
0.00102379
0.237084
0.00102723
0.236373
0.00102689
0.235659
0.00102241
0.234942
0.00100704
0.000986772
0.24234
0.00127101
-0.242787
0.241836
0.00132733
0.241288
0.00138354
0.240702
0.00144139
0.240079
0.00149889
0.239422
0.00155399
0.238733
0.00160636
0.238015
0.00165574
0.237269
0.00170181
0.236496
0.00174433
0.2357
0.00178316
0.23488
0.00181822
0.23404
0.0018495
0.233181
0.00187698
0.232304
0.00190056
0.231411
0.00192013
0.230503
0.00193506
0.22958
0.00194545
0.228638
0.0019489
0.00194968
0.236216
0.00162332
-0.236568
0.235805
0.00173803
0.235341
0.00184773
0.234828
0.0019546
0.234268
0.00205854
0.233664
0.00215804
0.233018
0.00225268
0.232332
0.00234226
0.231607
0.00242651
0.230846
0.00250524
0.230051
0.00257833
0.229223
0.00264575
0.228365
0.00270754
0.227478
0.00276378
0.226564
0.00281458
0.225624
0.00286009
0.224659
0.00290024
0.223669
0.00293549
0.222653
0.00296513
0.00299089
0.228671
0.00185225
-0.2289
0.228383
0.00202577
0.228039
0.00219228
0.22764
0.00235316
0.22719
0.00250892
0.226689
0.00265849
0.226141
0.00280142
0.225545
0.00293743
0.224906
0.00306627
0.224223
0.00318772
0.2235
0.00330167
0.222737
0.00340814
0.221938
0.00350722
0.221102
0.00359911
0.220233
0.0036841
0.21933
0.0037626
0.218396
0.00383497
0.217429
0.0039019
0.216431
0.00396346
0.00402094
0.220269
0.00196243
-0.220379
0.220101
0.00219412
0.219875
0.00241777
0.219595
0.0026341
0.21926
0.00284356
0.218873
0.00304535
0.218435
0.00323901
0.217949
0.00342418
0.217414
0.00360053
0.216834
0.00376786
0.21621
0.00392603
0.215543
0.00407505
0.214835
0.00421507
0.214088
0.00434641
0.213302
0.00446951
0.21248
0.00458503
0.211621
0.00469367
0.210727
0.00479645
0.209796
0.00489401
0.00498779
0.211515
0.00197541
-0.211528
0.211446
0.00226345
0.211321
0.0025428
0.211141
0.0028137
0.210908
0.00307639
0.210624
0.00333017
0.210288
0.00357455
0.209903
0.00380908
0.20947
0.00403339
0.208991
0.0042472
0.208467
0.00445036
0.207899
0.00464287
0.207289
0.00482489
0.206639
0.00499682
0.205949
0.0051593
0.205221
0.00531319
0.204455
0.00545956
0.203651
0.00559981
0.20281
0.00573509
0.0058671
0.202788
0.0019174
-0.20273
0.202792
0.00225925
0.202743
0.0025919
0.202642
0.00291528
0.202489
0.00322939
0.202285
0.00353352
0.202033
0.00382715
0.201732
0.00410974
0.201384
0.00438084
0.200992
0.0046401
0.200555
0.00488731
0.200075
0.00512242
0.199554
0.00534563
0.198994
0.00555739
0.198395
0.00575847
0.197758
0.00595
0.197084
0.00613342
0.196373
0.00631057
0.195625
0.0064832
0.00665341
0.19434
0.0018129
-0.194235
0.194393
0.00220583
0.194396
0.00258909
0.194349
0.00296239
0.194252
0.00332553
0.194108
0.00367776
0.193917
0.00401847
0.19368
0.00434703
0.193398
0.0046629
0.193072
0.00496564
0.192704
0.00525496
0.192296
0.00553075
0.191849
0.00579317
0.191363
0.00604271
0.190841
0.00628026
0.190284
0.0065072
0.189692
0.0067254
0.189066
0.00693722
0.188404
0.0071452
0.00735205
0.186317
0.00168219
-0.186186
0.186399
0.0021236
0.186434
0.00255488
0.18642
0.00297557
0.186361
0.00338527
0.186255
0.00378319
0.186105
0.00416862
0.185911
0.00454082
0.185675
0.00489914
0.185398
0.00524304
0.18508
0.0055721
0.184725
0.00588613
0.184333
0.00618521
0.183906
0.0064698
0.183445
0.00674088
0.182952
0.00700005
0.182428
0.00724965
0.181873
0.00749268
0.181285
0.00773273
0.00797346
0.178792
0.0015407
-0.17865
0.178887
0.00202831
0.178937
0.00250533
0.178941
0.00297112
0.178901
0.00342515
0.178818
0.00386653
0.178692
0.00429443
0.178525
0.00470803
0.178318
0.00510654
0.178071
0.00548928
0.177788
0.0058557
0.177468
0.00620545
0.177115
0.00653846
0.17673
0.0068551
0.176314
0.00715639
0.17587
0.00744403
0.175399
0.00772093
0.174901
0.00799073
0.174375
0.00825856
0.00852936
0.171784
0.00139931
-0.171643
0.171881
0.00193127
0.171934
0.00245217
0.171944
0.00296119
0.171912
0.00345764
0.171838
0.00394056
0.171723
0.004409
0.171569
0.00486203
0.171377
0.00529872
0.171148
0.00571823
0.170884
0.00611982
0.170586
0.00650292
0.170258
0.00686729
0.1699
0.00721305
0.169515
0.00754114
0.169106
0.00785323
0.168674
0.00815283
0.16822
0.00844413
0.167744
0.00873454
0.00903048
0.165282
0.0012652
-0.165148
0.165373
0.00184017
0.165421
0.00240349
0.165428
0.00295422
0.165394
0.00349157
0.165321
0.00401449
0.165208
0.00452191
0.165057
0.00501275
0.16487
0.00548596
0.164647
0.0059405
0.164392
0.00637541
0.164105
0.00678987
0.163789
0.0071833
0.163446
0.0075555
0.16308
0.00790714
0.162694
0.0082396
0.16229
0.00855698
0.16187
0.00886362
0.161434
0.00917046
0.00948504
0.159255
0.00114288
-0.159132
0.159335
0.00175976
0.159374
0.00236439
0.159373
0.00295574
0.159331
0.00353284
0.159251
0.00409456
0.159134
0.00463972
0.158979
0.00516711
0.15879
0.00567552
0.158566
0.00616373
0.158311
0.00663051
0.158027
0.00707471
0.157714
0.00749535
0.157378
0.0078917
0.157021
0.00826398
0.156648
0.00861281
0.156262
0.00894284
0.155868
0.00925757
0.155465
0.00957362
0.00989774
0.153666
0.0010348
-0.153557
0.153732
0.00169289
0.153759
0.00233799
0.153745
0.00296906
0.153693
0.00358502
0.153603
0.0041846
0.153476
0.00476655
0.153314
0.00532952
0.153117
0.00587213
0.152888
0.00639296
0.152628
0.0068905
0.15234
0.00736324
0.152025
0.00780968
0.151689
0.00822839
0.151334
0.00861884
0.150966
0.00898035
0.150591
0.00931785
0.150217
0.00963204
0.149842
0.0099487
0.0102683
0.148473
0.000942105
-0.14838
0.148525
0.00164074
0.148537
0.00232567
0.14851
0.00299577
0.148446
0.00364986
0.148344
0.00428656
0.148206
0.00490452
0.148033
0.00550227
0.147827
0.00607828
0.147589
0.00663091
0.147321
0.00715839
0.147025
0.00765879
0.146705
0.00813005
0.146363
0.00856987
0.146006
0.00897662
0.145638
0.00934766
0.145269
0.00968765
0.144909
0.00999135
0.14456
0.0102983
0.0105888
0.143636
0.000864794
-0.143559
0.143674
0.00160338
0.143672
0.00232758
0.143631
0.0030361
0.143554
0.00372764
0.143439
0.00440076
0.14329
0.00505399
0.143106
0.00568577
0.14289
0.00629443
0.142643
0.00687813
0.142367
0.00743483
0.142063
0.00796224
0.141736
0.00845766
0.141388
0.00891787
0.141024
0.00933977
0.140654
0.00971796
0.140286
0.010056
0.139939
0.0103384
0.139611
0.0106257
0.010842
0.13912
0.000801618
-0.139056
0.139143
0.0015799
0.139128
0.00234271
0.139075
0.00308893
0.138986
0.00381715
0.138861
0.00452583
0.138701
0.00521345
0.138509
0.00587836
0.138284
0.00651876
0.13803
0.00713266
0.137747
0.00771781
0.137437
0.00827155
0.137104
0.00879066
0.136751
0.00927094
0.136383
0.00970766
0.13601
0.0100919
0.135641
0.0104243
0.135307
0.0106728
0.134998
0.0109346
0.0110112
0.134889
0.000751351
-0.134839
0.1349
0.00156827
0.134874
0.0023687
0.134812
0.00315155
0.134714
0.00391527
0.134581
0.00465827
0.134416
0.00537899
0.134218
0.0060757
0.133991
0.00674652
0.133734
0.00738935
0.13345
0.00800176
0.133141
0.00858085
0.132808
0.00912301
0.132456
0.00962318
0.132088
0.0100753
0.131714
0.0104663
0.131345
0.0107928
0.131026
0.0109926
0.130749
0.011211
0.0110733
0.130911
-0.130873
0.000712412
0.130915
0.00156526
0.130881
0.00240197
0.130813
0.00321973
0.130711
0.00401709
0.130577
0.00479246
0.130412
0.00554428
0.130217
0.00627075
0.129993
0.00696993
0.129743
0.00763964
0.129467
0.0082774
0.129168
0.00888017
0.128847
0.00944416
0.128506
0.00996377
0.128149
0.0104324
0.127782
0.0108333
0.127414
0.0111616
0.127089
0.0113174
0.126847
0.0114529
0.0107418
0.251173
6.85253e-05
-0.251241
0.251146
2.66043e-05
0.251128
1.78436e-05
0.251106
2.23032e-05
0.251073
3.27812e-05
0.251027
4.65896e-05
0.250964
6.25127e-05
0.250885
7.95475e-05
0.250788
9.6901e-05
0.250673
0.000114331
0.250542
0.00013144
0.250394
0.000147583
0.250232
0.000162706
0.250055
0.000176904
0.249865
0.00019004
0.249662
0.000202212
0.249449
0.000213374
0.249227
0.000221748
0.249006
0.000221372
0.00021959
0.249016
-0.000197276
-0.24875
0.249233
-0.000190104
0.249415
-0.000164324
0.249563
-0.000125264
0.249675
-7.9236e-05
0.249751
-2.93254e-05
0.24979
2.33282e-05
0.249792
7.7489e-05
0.249756
0.00013242
0.249681
0.000189173
0.249568
0.000244765
0.249417
0.000298346
0.24923
0.000350213
0.249006
0.00040028
0.248749
0.000447575
0.248461
0.000490664
0.248137
0.000536941
0.247782
0.000576782
0.247397
0.000606174
0.0006294
0.242215
-0.00074327
-0.241669
0.242698
-0.0006731
0.243127
-0.000593877
0.243507
-0.000504928
0.243837
-0.000409252
0.244117
-0.000309422
0.244347
-0.000206388
0.244526
-0.000101888
0.24466
-1.16429e-06
0.244737
0.000111727
0.244763
0.000218841
0.24474
0.000321513
0.244666
0.000423587
0.244543
0.000523597
0.24437
0.000620546
0.244146
0.000714346
0.243878
0.000805375
0.243564
0.000891092
0.243201
0.000969313
0.00104322
0.232836
-0.00150373
-0.232075
0.233537
-0.00137404
0.234181
-0.0012381
0.234771
-0.00109458
0.235306
-0.000944413
0.235786
-0.000789555
0.236211
-0.000631311
0.23658
-0.000471007
0.236888
-0.000309681
0.237145
-0.000144524
0.237337
2.63665e-05
0.237479
0.000180001
0.237562
0.000340129
0.237588
0.000497356
0.237557
0.000651388
0.23747
0.00080177
0.237328
0.000947755
0.23713
0.00108859
0.236876
0.00122299
0.00135121
0.222339
-0.00241568
-0.221427
0.223197
-0.00223173
0.224
-0.00204123
0.224749
-0.00184342
0.225443
-0.00163853
0.226081
-0.00142798
0.226663
-0.00121309
0.227187
-0.000994839
0.227651
-0.000774206
0.228058
-0.000551422
0.228412
-0.000327847
0.228702
-0.000109337
0.228933
0.000108973
0.229105
0.000324779
0.229218
0.000538829
0.229272
0.000748267
0.229266
0.000952955
0.229203
0.00115232
0.22908
0.00134532
0.00153149
0.211644
-0.00342436
-0.210636
0.212603
-0.0031908
0.213511
-0.00294916
0.214367
-0.00269931
0.21517
-0.00244142
0.215919
-0.00217671
0.216612
-0.00190653
0.217249
-0.00163209
0.21783
-0.00135466
0.218354
-0.00107534
0.218821
-0.000795258
0.219228
-0.000516243
0.219576
-0.000238834
0.219869
3.16785e-05
0.220101
0.000306501
0.220274
0.000575216
0.220389
0.000838762
0.220444
0.00109677
0.220441
0.00134842
0.00159311
0.201307
-0.00448669
-0.200245
0.202324
-0.00420733
0.203292
-0.00391788
0.204212
-0.00361866
0.20508
-0.00331009
0.205897
-0.00299348
0.206661
-0.00267031
0.207371
-0.00234205
0.208026
-0.00201013
0.208627
-0.00167584
0.209172
-0.00134029
0.209661
-0.00100508
0.210093
-0.000671248
0.210465
-0.000339692
0.210788
-1.70722e-05
0.21105
0.000313118
0.211255
0.000633869
0.211403
0.000948801
0.211494
0.00125743
0.00155904
0.191618
-0.00557159
-0.190533
0.192661
-0.00524948
0.193658
-0.00491501
0.194608
-0.00456884
0.19551
-0.00421176
0.196361
-0.00384534
0.197162
-0.00347133
0.197912
-0.00309142
0.198609
-0.00270721
0.199253
-0.00232014
0.199844
-0.00193152
0.200382
-0.00154279
0.200866
-0.00115506
0.201296
-0.000769409
0.201666
-0.000386978
0.201992
-1.31408e-05
0.202258
0.0003681
0.202469
0.000736858
0.202627
0.00109994
0.00145601
0.182692
-0.00665845
-0.181605
0.183739
-0.00629602
0.184743
-0.00591875
0.185701
-0.00552744
0.186613
-0.00512346
0.187476
-0.00470886
0.188291
-0.00428569
0.189055
-0.00385594
0.189769
-0.00342137
0.190433
-0.00298361
0.191045
-0.00254408
0.191607
-0.00210414
0.192117
-0.00166496
0.192575
-0.00122764
0.192981
-0.000793414
0.193332
-0.000363546
0.193638
6.21141e-05
0.193888
0.000486188
0.194088
0.000900788
0.0013086
0.174537
-0.00773488
-0.173461
0.175576
-0.00733418
0.176573
-0.0069157
0.177526
-0.00648043
0.178433
-0.00603056
0.179293
-0.00556879
0.180105
-0.00509763
0.180868
-0.00461933
0.181582
-0.00413592
0.182248
-0.00364913
0.182864
-0.00316045
0.183431
-0.00267123
0.183949
-0.00218266
0.184417
-0.00169585
0.184836
-0.00121184
0.185204
-0.000731644
0.185522
-0.000256384
0.185794
0.000214598
0.186015
0.000680007
0.001137
0.167106
-0.00879456
-0.166047
0.16813
-0.00835754
0.169113
-0.00789894
0.170053
-0.00742017
0.170947
-0.00692475
0.171794
-0.00641626
0.172594
-0.00589768
0.173347
-0.00537166
0.174051
-0.00484041
0.174708
-0.00430579
0.175317
-0.00376932
0.175878
-0.00323232
0.176391
-0.00269598
0.176857
-0.00216137
0.177274
-0.00162951
0.177644
-0.00110136
0.177965
-0.000577702
0.178242
-6.18342e-05
0.17847
0.000452073
0.000956231
0.160327
-0.00983548
-0.159286
0.161334
-0.00936434
0.162301
-0.00886618
0.163224
-0.00834361
0.164102
-0.00780233
0.164933
-0.00724693
0.165716
-0.00668098
0.166452
-0.00610752
0.16714
-0.005529
0.167782
-0.00494732
0.168377
-0.004364
0.168925
-0.0037803
0.169426
-0.00319739
0.169881
-0.0026163
0.170289
-0.00203803
0.170652
-0.00146358
0.170968
-0.000893963
0.171237
-0.000330954
0.171463
0.000225658
0.000776997
0.154122
-0.0108588
-0.153099
0.155114
-0.0103564
0.156066
-0.00981845
0.156974
-0.00925089
0.157834
-0.00866264
0.158646
-0.00805945
0.159411
-0.00744556
0.160128
-0.00682446
0.160798
-0.00619881
0.161421
-0.00557047
0.161998
-0.00494088
0.162529
-0.00431123
0.163014
-0.00368261
0.163454
-0.00305601
0.163848
-0.0024324
0.164197
-0.00181281
0.164501
-0.00119802
0.164759
-0.000588937
0.164977
7.76131e-06
0.000606613
0.148419
-0.0118681
-0.14741
0.149401
-0.0113385
0.150342
-0.0107591
0.151235
-0.0101441
0.152079
-0.00950671
0.152874
-0.00885396
0.153619
-0.00819088
0.154316
-0.0075215
0.154966
-0.0068485
0.155569
-0.00617362
0.156126
-0.00549815
0.156638
-0.0048231
0.157105
-0.00414942
0.157527
-0.00347804
0.157904
-0.00280989
0.158238
-0.00214596
0.158527
-0.00148719
0.158773
-0.000835085
0.158972
-0.000191721
0.000446619
0.143158
-0.0128696
-0.142156
0.144137
-0.0123175
0.145071
-0.0116928
0.145952
-0.0110258
0.146781
-0.0103357
0.147558
-0.00963051
0.148283
-0.00891641
0.14896
-0.00819781
0.149588
-0.00747719
0.150171
-0.00675591
0.150707
-0.00603492
0.151199
-0.005315
0.151647
-0.00459688
0.15205
-0.00388136
0.15241
-0.00316933
0.152725
-0.00246176
0.152998
-0.00175971
0.153227
-0.00106438
0.153413
-0.000377203
0.000301874
0.138289
-0.0138742
-0.137285
0.139274
-0.0133021
0.140205
-0.0126234
0.141076
-0.0118975
0.14189
-0.0111491
0.142647
-0.0103877
0.143351
-0.00962061
0.144005
-0.00885214
0.144612
-0.00808394
0.145173
-0.00731674
0.145689
-0.00655091
0.146161
-0.00578682
0.146589
-0.00502493
0.146973
-0.00426592
0.147315
-0.00351061
0.147613
-0.00275995
0.147868
-0.00201502
0.148081
-0.00127697
0.148251
-0.000547289
0.000172794
0.133777
-0.0149045
-0.132746
0.134776
-0.0143017
0.135705
-0.0135519
0.136564
-0.0127573
0.137359
-0.0119433
0.138093
-0.0111218
0.138773
-0.0103008
0.139404
-0.00948288
0.139988
-0.00866808
0.140527
-0.00785609
0.141023
-0.00704651
0.141475
-0.00623918
0.141885
-0.00543431
0.142251
-0.00463244
0.142575
-0.00383436
0.142856
-0.00304105
0.143095
-0.00225365
0.143291
-0.00147336
0.143445
-0.000701563
5.91362e-05
0.129589
-0.0160082
-0.128486
0.130612
-0.0153244
0.131532
-0.0144722
0.132373
-0.013598
0.133142
-0.0127117
0.133848
-0.0118282
0.134502
-0.0109547
0.135108
-0.0100894
0.13567
-0.00923011
0.136189
-0.00837509
0.136666
-0.00752313
0.1371
-0.00667356
0.137492
-0.00582642
0.137842
-0.0049822
0.13815
-0.00414174
0.138415
-0.00330611
0.138638
-0.00247654
0.138819
-0.00165442
0.138958
-0.000841229
-3.90967e-05
0.125718
-0.017231
-0.124496
0.126747
-0.0163528
0.127642
-0.0153674
0.128451
-0.0144069
0.129187
-0.0134479
0.129864
-0.0125051
0.130492
-0.0115826
0.131076
-0.0106735
0.131619
-0.00977242
0.13212
-0.00887619
0.132579
-0.007983
0.132998
-0.00709192
0.133374
-0.00620293
0.133709
-0.00531667
0.134001
-0.00443409
0.134251
-0.0035564
0.13446
-0.00268494
0.134627
-0.00182127
0.134753
-0.000967264
-0.000124903
0.122162
-0.121027
-0.018366
0.123106
-0.0172963
0.123975
-0.0162366
0.124744
-0.0151757
0.125448
-0.0141525
0.126102
-0.0131591
0.12671
-0.0121906
0.127277
-0.0112398
0.127803
-0.0102986
0.128289
-0.00936216
0.128734
-0.00842809
0.129138
-0.00749558
0.129499
-0.00656479
0.129819
-0.00563656
0.130097
-0.00471208
0.130334
-0.00379269
0.130528
-0.00287986
0.130682
-0.00197512
0.130795
-0.00108043
-0.000201963
0.0228642
0.0997022
-0.098569
-0.0239974
0.0217249
0.103357
-0.102218
0.0205758
0.107198
-0.106049
0.0194118
0.111245
-0.110081
0.0182283
0.115524
-0.11434
0.0170209
0.120067
-0.11886
0.015786
0.124922
-0.123688
0.0145206
0.130151
-0.128885
0.0132222
0.135831
-0.134533
0.0118895
0.142063
-0.14073
0.0105223
0.148965
-0.147598
0.00912236
0.156675
-0.155275
0.00769499
0.165338
-0.163911
0.00625158
0.175095
-0.173651
0.00481343
0.186044
-0.184606
0.00341732
0.198182
-0.196786
0.00212306
0.211307
-0.210013
0.00102322
0.224864
-0.223764
0.000248549
0.237617
-0.236842
0.247293
-0.247044
0.0228965
0.100843
-0.0240376
0.0217497
0.104504
0.0205932
0.108355
0.0194223
0.112416
0.0182324
0.116714
0.0170191
0.121281
0.0157787
0.126163
0.0145081
0.131421
0.0132048
0.137134
0.0118676
0.1434
0.0104962
0.150337
0.00909281
0.158078
0.0076632
0.166768
0.00621949
0.176539
0.00478395
0.18748
0.00339467
0.199571
0.00211276
0.212589
0.00103021
0.225946
0.000275962
0.238371
0.247569
0.0228909
0.10199
-0.0240375
0.0217387
0.105656
0.0205771
0.109516
0.0194015
0.113592
0.0182072
0.117908
0.01699
0.122498
0.0157462
0.127407
0.0144724
0.132695
0.0131663
0.13844
0.0118266
0.14474
0.0104532
0.15171
0.00904848
0.159483
0.00761877
0.168197
0.00617678
0.177981
0.00474564
0.188911
0.00336427
0.200953
0.00209428
0.213859
0.00102653
0.227014
0.000282935
0.239115
0.247851
0.0228481
0.10314
-0.0239979
0.0216927
0.106812
0.0205282
0.110681
0.01935
0.11477
0.0181534
0.119105
0.0169343
0.123717
0.0156889
0.128652
0.014414
0.13397
0.0131071
0.139747
0.0117669
0.14608
0.0103935
0.153084
0.0089895
0.160887
0.00756167
0.169625
0.00612329
0.179419
0.00469813
0.190336
0.00332575
0.202325
0.00206789
0.215117
0.00101414
0.228068
0.000281911
0.239847
0.248133
0.0227693
0.104291
-0.0239204
0.0216128
0.107968
0.0204474
0.111846
0.0192684
0.115949
0.0180714
0.120302
0.0168523
0.124936
0.0156072
0.129897
0.0143329
0.135244
0.0130271
0.141053
0.0116883
0.147419
0.0103169
0.154455
0.00891565
0.162288
0.00749166
0.171049
0.00605876
0.180852
0.00464134
0.191753
0.00327949
0.203687
0.00203501
0.216361
0.000996236
0.229107
0.000277037
0.240566
0.24841
0.0226562
0.105441
-0.0238067
0.0215002
0.109124
0.0203355
0.113011
0.0191575
0.117127
0.0179618
0.121497
0.0167443
0.126154
0.0155013
0.13114
0.0142295
0.136516
0.0129265
0.142356
0.011591
0.148755
0.0102234
0.155823
0.00882683
0.163685
0.00740862
0.172467
0.00598315
0.182277
0.00457539
0.193161
0.00322593
0.205036
0.00199653
0.217591
0.000974225
0.230129
0.000269594
0.241271
0.24868
0.0225105
0.10659
-0.0236591
0.0213565
0.110278
0.0201939
0.114174
0.0190183
0.118303
0.0178253
0.12269
0.016611
0.127368
0.0153716
0.13238
0.0141039
0.137784
0.0128054
0.143654
0.011475
0.150085
0.0101132
0.157185
0.00872311
0.165075
0.00731265
0.173878
0.00589659
0.183693
0.00450047
0.194557
0.00316533
0.206372
0.0019528
0.218803
0.000948599
0.231133
0.000260234
0.241959
0.24894
0.022334
0.107736
-0.0234799
0.0211829
0.111429
0.0200236
0.115333
0.0188516
0.119475
0.0176626
0.123879
0.0164528
0.128578
0.0152184
0.133614
0.0139563
0.139046
0.0126641
0.144947
0.0113405
0.151409
0.00998617
0.158539
0.00860457
0.166456
0.00720383
0.175279
0.0057992
0.185098
0.00441676
0.19594
0.00309791
0.20769
0.00190414
0.219997
0.000919835
0.232117
0.000249534
0.24263
0.24919
0.0221286
0.108878
-0.0232714
0.020981
0.112577
0.0198256
0.116488
0.018658
0.120642
0.0174741
0.125063
0.01627
0.129782
0.015042
0.134842
0.013787
0.140301
0.0125025
0.146231
0.0111875
0.152724
0.00984249
0.159884
0.00847127
0.167828
0.00708224
0.176668
0.00569111
0.186489
0.00432441
0.197306
0.0030239
0.208991
0.00185087
0.22117
0.000888377
0.23308
0.000237894
0.24328
0.249428
0.0218959
0.110018
-0.0230358
0.0207518
0.113721
0.0196006
0.11764
0.0184381
0.121805
0.01726
0.126241
0.0160626
0.130979
0.0148423
0.136062
0.0135958
0.141547
0.0123207
0.147506
0.0110159
0.154028
0.00968212
0.161218
0.00832323
0.169186
0.00694795
0.178043
0.00557241
0.187865
0.00422359
0.198655
0.00294355
0.210271
0.00179331
0.22232
0.000854569
0.234019
0.000225552
0.243909
0.249653
0.021637
0.111156
-0.022775
0.0204958
0.114862
0.0193488
0.118787
0.0181916
0.122962
0.0170201
0.127413
0.0158305
0.132169
0.014619
0.137274
0.0133825
0.142784
0.0121185
0.14877
0.0108257
0.155321
0.00950499
0.162538
0.00816043
0.170531
0.006801
0.179402
0.00544321
0.189222
0.00411448
0.199984
0.00285709
0.211528
0.00173173
0.223446
0.000818673
0.234932
0.000212664
0.244515
0.249866
0.021352
0.112294
-0.0224899
0.0202127
0.116001
0.0190695
0.11993
0.0179179
0.124113