/*--------------------------------*- C++ -*----------------------------------*\
  =========                 |
  \\      /  F ield         | OpenFOAM: The Open Source CFD Toolbox
   \\    /   O peration     | Website:  https://openfoam.org
    \\  /    A nd           | Version:  6.0
     \\/     M anipulation  |
\*---------------------------------------------------------------------------*/
FoamFile
{
    version     2.0;
    format      ascii;
    class       volScalarField;
    location    "15.001";
    object      p;
}
// * * * * * * * * * * * * * * * * * * * * * * * * * * * * * * * * * * * * * //

dimensions      [0 2 -2 0 0 0 0];

internalField   nonuniform List<scalar> 
19200
(
-7.21621
-6.34905
-5.75652
-5.29562
-4.88947
-4.53243
-4.21682
-3.9341
-3.67827
-3.445
-3.23099
-3.03363
-2.85087
-2.68107
-2.52288
-2.37518
-2.23704
-2.10764
-1.98628
-1.87236
-1.76533
-1.66471
-1.57007
-1.48101
-1.39719
-1.31829
-1.24403
-1.17413
-1.1083
-1.04649
-7.39439
-6.52657
-5.9318
-5.46743
-5.05717
-4.69559
-4.37521
-4.08759
-3.82683
-3.58868
-3.36987
-3.16782
-2.98052
-2.80633
-2.64393
-2.4922
-2.3502
-2.21712
-2.09227
-1.97502
-1.86483
-1.76122
-1.66374
-1.57199
-1.48562
-1.40431
-1.32777
-1.25569
-1.18774
-1.12419
-7.57718
-6.70718
-6.1096
-5.64159
-5.22704
-4.86079
-4.5355
-4.24286
-3.97705
-3.7339
-3.51016
-3.30332
-3.11138
-2.93272
-2.76601
-2.61016
-2.46423
-2.32741
-2.19899
-2.07836
-1.96496
-1.85831
-1.75794
-1.66347
-1.57451
-1.49076
-1.41191
-1.33761
-1.2675
-1.2022
-7.76293
-6.89046
-6.28979
-5.81793
-5.39894
-5.02787
-4.69753
-4.39973
-4.12876
-3.88048
-3.65171
-3.43998
-3.24329
-3.06005
-2.88896
-2.72891
-2.57898
-2.43834
-2.3063
-2.18223
-2.06558
-1.95583
-1.85255
-1.7553
-1.66373
-1.5775
-1.4963
-1.41977
-1.34746
-1.28042
-7.95122
-7.07612
-6.47214
-5.99626
-5.57268
-5.19664
-4.86112
-4.55805
-4.28178
-4.02826
-3.79435
-3.57761
-3.37607
-3.18818
-3.01261
-2.84829
-2.69428
-2.54977
-2.41405
-2.28649
-2.16653
-2.05366
-1.94741
-1.84736
-1.75314
-1.6644
-1.58084
-1.50203
-1.42752
-1.35871
-8.14173
-7.26392
-6.65648
-6.17642
-5.7481
-5.36695
-5.02611
-4.71763
-4.43594
-4.17706
-3.9379
-3.71605
-3.50958
-3.31693
-3.13681
-2.96814
-2.80999
-2.66154
-2.52209
-2.39099
-2.26768
-2.15164
-2.0424
-1.93952
-1.84262
-1.75135
-1.6654
-1.5843
-1.50755
-1.43698
-8.3342
-7.45362
-6.84259
-6.35821
-5.925
-5.53861
-5.19232
-4.8783
-4.59107
-4.32671
-4.08219
-3.85513
-3.64363
-3.44614
-3.26139
-3.0883
-2.92594
-2.7735
-2.63026
-2.49558
-2.36888
-2.24964
-2.13737
-2.03164
-1.93204
-1.83822
-1.74986
-1.66644
-1.58745
-1.51511
-8.52839
-7.64498
-7.03025
-6.54142
-6.1032
-5.71143
-5.35956
-5.03987
-4.74698
-4.47704
-4.22705
-3.99468
-3.77805
-3.57564
-3.38618
-3.2086
-3.04197
-2.88548
-2.73841
-2.60011
-2.47
-2.34752
-2.23221
-2.1236
-2.02128
-1.92489
-1.83411
-1.74836
-1.6671
-1.59301
-8.72407
-7.83778
-7.21926
-6.72587
-6.28249
-5.88522
-5.52764
-5.20217
-4.9035
-4.62785
-4.37229
-4.13451
-3.91266
-3.70525
-3.51101
-3.32888
-3.15793
-2.99735
-2.84641
-2.70445
-2.57088
-2.44515
-2.32677
-2.21526
-2.11021
-2.01125
-1.91803
-1.82994
-1.74641
-1.67057
-8.921
-8.03181
-7.40941
-6.91133
-6.46269
-6.05979
-5.69638
-5.36499
-5.06043
-4.77897
-4.51773
-4.27445
-4.0473
-3.83481
-3.63572
-3.44898
-3.27365
-3.10893
-2.95408
-2.80844
-2.67139
-2.54239
-2.42092
-2.30651
-2.19872
-2.09717
-2.00151
-1.91108
-1.82527
-1.7477
-9.11897
-8.22683
-7.60047
-7.09761
-6.64359
-6.23493
-5.86557
-5.52815
-5.21758
-4.9302
-4.66319
-4.41431
-4.18178
-3.96414
-3.76014
-3.56873
-3.38898
-3.22008
-3.06129
-2.91193
-2.77139
-2.6391
-2.51454
-2.39722
-2.28668
-2.18255
-2.08445
-1.99167
-1.90359
-1.82431
-9.31776
-8.42264
-7.79223
-7.28449
-6.82497
-6.41044
-6.03501
-5.69145
-5.37476
-5.08136
-4.80847
-4.55392
-4.31593
-4.09307
-3.8841
-3.68797
-3.50376
-3.33065
-3.16789
-3.0148
-2.87075
-2.73516
-2.6075
-2.48726
-2.37398
-2.26727
-2.16674
-2.07162
-1.98127
-1.9003
-9.51714
-8.61901
-7.98449
-7.47176
-7.00664
-6.58613
-6.20451
-5.8547
-5.53178
-5.23225
-4.95341
-4.69309
-4.44957
-4.22142
-4.00742
-3.80653
-3.61783
-3.44047
-3.27372
-3.11688
-2.96931
-2.83043
-2.69967
-2.57652
-2.46051
-2.35123
-2.24827
-2.15082
-2.05821
-1.97558
-9.71689
-8.81572
-8.17702
-7.65922
-7.18838
-6.76177
-6.37386
-6.01768
-5.68843
-5.38269
-5.0978
-4.83164
-4.58252
-4.34903
-4.12996
-3.92426
-3.73102
-3.54941
-3.37865
-3.21805
-3.06696
-2.92477
-2.79092
-2.66487
-2.54614
-2.4343
-2.32894
-2.22918
-2.13431
-2.05007
-9.9168
-9.01257
-8.36962
-7.84664
-7.37
-6.93718
-6.54286
-6.18022
-5.84454
-5.53249
-5.24146
-4.9694
-4.71462
-4.47572
-4.25153
-4.041
-3.8432
-3.6573
-3.48252
-3.31816
-3.16354
-3.01806
-2.88112
-2.75219
-2.63075
-2.51638
-2.40864
-2.30658
-2.20949
-2.12366
-10.1166
-9.20934
-8.56207
-8.03383
-7.55127
-7.11215
-6.71132
-6.3421
-5.9999
-5.68145
-5.38422
-5.10618
-4.84567
-4.60134
-4.37199
-4.15658
-3.95421
-3.764
-3.5852
-3.41707
-3.25894
-3.11016
-2.97016
-2.83835
-2.71423
-2.59735
-2.48725
-2.38292
-2.28363
-2.19627
-10.3162
-9.40581
-8.75416
-8.22058
-7.732
-7.28646
-6.87902
-6.50314
-6.15433
-5.82941
-5.52589
-5.24181
-4.97553
-4.7257
-4.49116
-4.27087
-4.06389
-3.86937
-3.68654
-3.51464
-3.353
-3.20095
-3.05789
-2.92324
-2.79645
-2.67708
-2.56466
-2.45809
-2.35662
-2.26778
-10.5153
-9.60179
-8.94569
-8.40667
-7.91198
-7.45993
-7.04578
-6.66314
-6.30763
-5.97616
-5.6663
-5.37611
-5.10401
-4.84867
-4.6089
-4.38369
-4.1721
-3.97327
-3.7864
-3.61075
-3.4456
-3.29029
-3.14419
-3.0067
-2.87728
-2.75546
-2.64074
-2.53197
-2.42835
-2.33807
-10.7137
-9.79706
-9.13645
-8.59191
-8.09101
-7.63235
-7.2114
-6.82191
-6.45962
-6.12153
-5.80526
-5.50893
-5.23097
-4.97007
-4.72506
-4.49492
-4.27871
-4.07556
-3.88466
-3.70524
-3.5366
-3.37804
-3.22892
-3.08863
-2.95659
-2.83234
-2.71535
-2.60441
-2.49866
-2.40701
-10.9113
-9.99144
-9.32625
-8.77609
-8.26889
-7.80352
-7.37567
-6.97926
-6.61012
-6.26534
-5.94262
-5.6401
-5.35625
-5.08976
-4.83949
-4.60441
-4.38357
-4.1761
-3.98117
-3.79801
-3.62588
-3.46408
-3.31195
-3.16886
-3.03423
-2.90757
-2.78835
-2.67526
-2.56741
-2.47442
-11.1078
-10.1847
-9.51489
-8.95902
-8.44541
-7.97325
-7.53842
-7.135
-6.75895
-6.40743
-6.0782
-5.76946
-5.47969
-5.2076
-4.95206
-4.71204
-4.48657
-4.27478
-4.07583
-3.88892
-3.71331
-3.54828
-3.39315
-3.24728
-3.11006
-2.98101
-2.85956
-2.74435
-2.63441
-2.54013
-11.303
-10.3768
-9.70219
-9.14051
-8.6204
-8.14135
-7.69946
-7.28896
-6.90593
-6.54763
-6.21186
-5.89686
-5.60116
-5.32346
-5.06265
-4.81768
-4.58759
-4.37149
-4.16852
-3.97787
-3.79878
-3.63052
-3.47239
-3.32374
-3.18393
-3.05248
-2.92882
-2.81148
-2.69945
-2.60387
-11.497
-10.5674
-9.88795
-9.32035
-8.79363
-8.3076
-7.85858
-7.44094
-7.0509
-6.68577
-6.34343
-6.02217
-5.72052
-5.43722
-5.17114
-4.92123
-4.68653
-4.46612
-4.25914
-4.06476
-3.8822
-3.71071
-3.54957
-3.39811
-3.2557
-3.12183
-2.99593
-2.87644
-2.76226
-2.66538
-11.6896
-10.7564
-10.072
-9.49834
-8.96492
-8.47183
-8.0156
-7.59078
-7.19367
-6.82169
-6.47278
-6.14524
-5.83766
-5.54876
-5.27742
-5.0226
-4.7833
-4.55861
-4.34764
-4.14953
-3.96349
-3.78876
-3.62459
-3.4703
-3.32525
-3.18891
-3.06071
-2.939
-2.82257
-2.72432
-11.8807
-10.9437
-10.2541
-9.67428
-9.13404
-8.63382
-8.17034
-7.73829
-7.3341
-6.95526
-6.59976
-6.26596
-5.95245
-5.65798
-5.38141
-5.1217
-4.87784
-4.64889
-4.43394
-4.23213
-4.04262
-3.86463
-3.69741
-3.54025
-3.39248
-3.25359
-3.12298
-2.99893
-2.88006
-2.7803
-12.0703
-11.1291
-10.4341
-9.84794
-9.30079
-8.79337
-8.3226
-7.8833
-7.47201
-7.08631
-6.72424
-6.3842
-6.0648
-5.76479
-5.48304
-5.21848
-4.9701
-4.73693
-4.51804
-4.31254
-4.11958
-3.93833
-3.76804
-3.60795
-3.45739
-3.31581
-3.18265
-3.05605
-2.93446
-2.83277
-12.2586
-11.3124
-10.6117
-10.0191
-9.46493
-8.95027
-8.47218
-8.02563
-7.60725
-7.21471
-6.84611
-6.49986
-6.17461
-5.86911
-5.58223
-5.31289
-5.06004
-4.82271
-4.59994
-4.3908
-4.19441
-4.00993
-3.83655
-3.6735
-3.52007
-3.3757
-3.23981
-3.11044
-2.98561
-2.8811
-12.4467
-11.4936
-10.7865
-10.1873
-9.62615
-9.10424
-8.61885
-8.16507
-7.73965
-7.3403
-6.9652
-6.61281
-6.28177
-5.97086
-5.67893
-5.40487
-5.14765
-4.90624
-4.67966
-4.46695
-4.26721
-4.07954
-3.90311
-3.73709
-3.58072
-3.43342
-3.29459
-3.162
-3.03299
-2.92497
-12.6359
-11.6726
-10.9581
-10.3522
-9.7841
-9.25503
-8.76241
-8.30146
-7.86903
-7.46294
-7.08142
-6.72295
-6.3862
-6.06996
-5.77306
-5.49439
-5.23289
-4.98751
-4.75723
-4.54107
-4.33809
-4.14736
-3.96798
-3.79907
-3.63978
-3.48943
-3.34715
-3.21015
-3.07546
-2.96407
-12.8184
-11.8462
-11.1252
-10.5133
-9.93866
-9.40262
-8.90286
-8.43481
-7.99544
-7.58267
-7.19478
-6.83031
-6.48794
-6.16645
-5.86468
-5.58151
-5.31583
-5.06659
-4.83275
-4.6133
-4.40726
-4.21368
-4.03164
-3.86022
-3.69854
-3.54571
-3.40035
-3.25949
-3.12148
-3.00547
-15.8459
-15.8273
-15.7994
-15.767
-15.7295
-15.686
-15.6364
-15.5807
-15.5189
-15.451
-15.377
-15.2969
-15.2109
-15.119
-15.0214
-14.9181
-14.8093
-14.6952
-14.5757
-14.4512
-14.3217
-14.1874
-14.0485
-13.9051
-13.7575
-13.6058
-13.4505
-13.2919
-13.1306
-12.9693
-14.8089
-14.7952
-14.7731
-14.7446
-14.7099
-14.6688
-14.6215
-14.5679
-14.5082
-14.4424
-14.3706
-14.2927
-14.209
-14.1195
-14.0243
-13.9235
-13.8172
-13.7056
-13.5888
-13.467
-13.3402
-13.2087
-13.0726
-12.9321
-12.7874
-12.6386
-12.4862
-12.3302
-12.1711
-12.0094
-13.9698
-13.9598
-13.9422
-13.9177
-13.8867
-13.8494
-13.8057
-13.7558
-13.6998
-13.6377
-13.5696
-13.4957
-13.4159
-13.3304
-13.2393
-13.1427
-13.0406
-12.9333
-12.8209
-12.7035
-12.5811
-12.4541
-12.3225
-12.1865
-12.0463
-11.902
-11.7539
-11.602
-11.4467
-11.2878
-13.2087
-13.202
-13.1884
-13.1681
-13.1413
-13.1082
-13.0689
-13.0235
-12.972
-12.9146
-12.8512
-12.7821
-12.7073
-12.6268
-12.5408
-12.4494
-12.3526
-12.2507
-12.1436
-12.0317
-11.9149
-11.7934
-11.6675
-11.5371
-11.4025
-11.2638
-11.1212
-10.9747
-10.8246
-10.6709
-12.4701
-12.4667
-12.457
-12.4408
-12.4183
-12.3896
-12.3549
-12.3142
-12.2676
-12.2151
-12.1569
-12.093
-12.0235
-11.9485
-11.8681
-11.7824
-11.6914
-11.5954
-11.4944
-11.3885
-11.2778
-11.1626
-11.0428
-10.9187
-10.7904
-10.658
-10.5217
-10.3815
-10.2376
-10.09
-11.7657
-11.7656
-11.7593
-11.747
-11.7286
-11.7042
-11.6739
-11.6379
-11.596
-11.5486
-11.4955
-11.4369
-11.3728
-11.3034
-11.2288
-11.1489
-11.0639
-10.974
-10.8792
-10.7796
-10.6753
-10.5665
-10.4533
-10.3358
-10.2141
-10.0884
-9.95871
-9.82521
-9.68799
-9.54714
-11.1005
-11.1032
-11.1001
-11.0912
-11.0765
-11.056
-11.0299
-10.9982
-10.961
-10.9182
-10.8701
-10.8166
-10.7578
-10.6938
-10.6248
-10.5506
-10.4716
-10.3877
-10.299
-10.2057
-10.1078
-10.0055
-9.89886
-9.78799
-9.67302
-9.55405
-9.4312
-9.30456
-9.17423
-9.04034
-10.4747
-10.4797
-10.4794
-10.4734
-10.462
-10.445
-10.4226
-10.3948
-10.3617
-10.3234
-10.2798
-10.2311
-10.1773
-10.1184
-10.0547
-9.98601
-9.91258
-9.83446
-9.75172
-9.66446
-9.57278
-9.47678
-9.37655
-9.2722
-9.16382
-9.05153
-8.93543
-8.81561
-8.69217
-8.56524
-9.88821
-9.89523
-9.89708
-9.89363
-9.8849
-9.87094
-9.85179
-9.82749
-9.7981
-9.76365
-9.7242
-9.6798
-9.63051
-9.57641
-9.51754
-9.45399
-9.38583
-9.31313
-9.23597
-9.15445
-9.06865
-8.97865
-8.88455
-8.78644
-8.68442
-8.57859
-8.46903
-8.35584
-8.23912
-8.11898
-9.34065
-9.34916
-9.35276
-9.35132
-9.34485
-9.3334
-9.31701
-9.2957
-9.26951
-9.2385
-9.2027
-9.16216
-9.11694
-9.0671
-9.0127
-8.95379
-8.89046
-8.82276
-8.75078
-8.67459
-8.59426
-8.50989
-8.42156
-8.32934
-8.23334
-8.13363
-8.03031
-7.92347
-7.81319
-7.69959
-8.83085
-8.84043
-8.84536
-8.84549
-8.84083
-8.83144
-8.81733
-8.79853
-8.77509
-8.74704
-8.71441
-8.67726
-8.63564
-8.58959
-8.53918
-8.48446
-8.42549
-8.36235
-8.29508
-8.22378
-8.14851
-8.06934
-7.98636
-7.89963
-7.80925
-7.7153
-7.61785
-7.51699
-7.41281
-7.3054
-8.35722
-8.36752
-8.37338
-8.37468
-8.37144
-8.36368
-8.35143
-8.33472
-8.31358
-8.28804
-8.25814
-8.22392
-8.18544
-8.14273
-8.09585
-8.04485
-7.9898
-7.93074
-7.86775
-7.80089
-7.73022
-7.65582
-7.57775
-7.49609
-7.41091
-7.3223
-7.23032
-7.13505
-7.03658
-6.93501
-7.91784
-7.92855
-7.93503
-7.93716
-7.93497
-7.92848
-7.91771
-7.9027
-7.88346
-7.86003
-7.83245
-7.80075
-7.76498
-7.72518
-7.6814
-7.63369
-7.58211
-7.52671
-7.46755
-7.40468
-7.33818
-7.2681
-7.19452
-7.11749
-7.0371
-6.9534
-6.86648
-6.7764
-6.68324
-6.5871
-7.51061
-7.52147
-7.5283
-7.53098
-7.52954
-7.52401
-7.5144
-7.50074
-7.48306
-7.46138
-7.43575
-7.40619
-7.37275
-7.33547
-7.2944
-7.24958
-7.20106
-7.1489
-7.09315
-7.03387
-6.97111
-6.90494
-6.83542
-6.76261
-6.68658
-6.60739
-6.52511
-6.43982
-6.35157
-6.26046
-7.13332
-7.14413
-7.15108
-7.15408
-7.15315
-7.14831
-7.13959
-7.127
-7.11058
-7.09035
-7.06634
-7.03859
-7.00714
-6.97203
-6.93331
-6.89101
-6.84519
-6.7959
-6.74318
-6.6871
-6.6277
-6.56504
-6.49919
-6.4302
-6.35813
-6.28305
-6.20503
-6.12411
-6.04038
-5.95392
-6.78375
-6.79435
-6.80126
-6.80439
-6.80376
-6.79941
-6.79134
-6.77959
-6.76418
-6.74512
-6.72247
-6.69625
-6.6665
-6.63325
-6.59656
-6.55647
-6.51301
-6.46624
-6.41622
-6.36298
-6.30658
-6.24708
-6.18454
-6.11899
-6.05052
-5.97918
-5.90502
-5.82812
-5.74853
-5.66634
-6.45972
-6.46999
-6.47672
-6.47984
-6.47937
-6.47533
-6.46774
-6.45662
-6.44201
-6.42392
-6.40239
-6.37745
-6.34914
-6.3175
-6.28257
-6.2444
-6.20302
-6.15848
-6.11083
-6.06013
-6.00641
-5.94974
-5.89016
-5.82773
-5.76251
-5.69455
-5.62392
-5.55067
-5.47488
-5.39661
-6.15914
-6.169
-6.17547
-6.17846
-6.17802
-6.17416
-6.1669
-6.15627
-6.14228
-6.12497
-6.10437
-6.08052
-6.05344
-6.02318
-5.98978
-5.95327
-5.91372
-5.87115
-5.82561
-5.77716
-5.72584
-5.6717
-5.6148
-5.55517
-5.49289
-5.428
-5.36057
-5.29065
-5.21831
-5.14364
-5.88004
-5.88944
-5.89556
-5.89836
-5.89786
-5.89408
-5.88704
-5.87676
-5.86327
-5.84659
-5.82677
-5.80382
-5.7778
-5.74873
-5.71665
-5.68162
-5.64366
-5.60283
-5.55917
-5.51273
-5.46356
-5.41169
-5.35719
-5.3001
-5.24047
-5.17836
-5.11383
-5.04694
-4.97775
-4.90637
-5.62058
-5.62948
-5.63523
-5.63777
-5.63715
-5.63337
-5.62646
-5.61643
-5.60333
-5.58717
-5.56799
-5.54582
-5.5207
-5.49266
-5.46174
-5.428
-5.39146
-5.35217
-5.31019
-5.26554
-5.21829
-5.16847
-5.11613
-5.06133
-5.0041
-4.94451
-4.88261
-4.81847
-4.75215
-4.68377
-5.37906
-5.38745
-5.39279
-5.39505
-5.39425
-5.39042
-5.38358
-5.37374
-5.36094
-5.3452
-5.32656
-5.30505
-5.28071
-5.25357
-5.22367
-5.19106
-5.15578
-5.11787
-5.07738
-5.03435
-4.98882
-4.94084
-4.89047
-4.83773
-4.78268
-4.72537
-4.66586
-4.60421
-4.5405
-4.47486
-5.15393
-5.1618
-5.16673
-5.16868
-5.16768
-5.16376
-5.15693
-5.14723
-5.13466
-5.11927
-5.10109
-5.08015
-5.05648
-5.03013
-5.00114
-4.96954
-4.93538
-4.8987
-4.85955
-4.81797
-4.774
-4.72769
-4.67909
-4.62823
-4.57516
-4.51993
-4.46258
-4.40319
-4.34184
-4.27867
-4.94377
-4.95113
-4.95564
-4.95727
-4.95606
-4.95203
-4.94519
-4.93557
-4.92319
-4.90809
-4.8903
-4.86985
-4.84678
-4.82113
-4.79293
-4.76223
-4.72908
-4.69351
-4.65556
-4.61529
-4.57274
-4.52795
-4.48096
-4.43181
-4.38054
-4.3272
-4.27182
-4.21448
-4.15523
-4.09431
-4.7473
-4.75416
-4.75826
-4.75958
-4.75815
-4.75398
-4.74711
-4.73754
-4.72532
-4.71046
-4.69301
-4.67299
-4.65045
-4.62542
-4.59794
-4.56805
-4.5358
-4.50122
-4.46438
-4.4253
-4.38403
-4.34062
-4.2951
-4.24751
-4.1979
-4.14628
-4.0927
-4.0372
-3.97983
-3.92091
-4.56334
-4.56972
-4.57343
-4.57444
-4.57279
-4.56849
-4.56156
-4.55203
-4.53993
-4.52529
-4.50813
-4.4885
-4.46642
-4.44195
-4.41511
-4.38596
-4.35452
-4.32086
-4.28501
-4.24701
-4.20692
-4.16477
-4.1206
-4.07446
-4.02635
-3.97632
-3.92438
-3.87057
-3.81485
-3.75773
-4.39087
-4.39678
-4.40011
-4.40081
-4.39893
-4.39449
-4.3875
-4.37799
-4.36598
-4.35151
-4.33461
-4.31531
-4.29366
-4.26968
-4.24342
-4.21493
-4.18424
-4.1514
-4.11645
-4.07945
-4.04042
-3.99943
-3.9565
-3.91167
-3.86497
-3.8164
-3.76597
-3.71368
-3.6594
-3.60395
-4.22894
-4.23441
-4.23736
-4.23777
-4.23566
-4.23106
-4.22399
-4.21447
-4.20253
-4.1882
-4.17151
-4.15251
-4.13121
-4.10767
-4.08192
-4.054
-4.02397
-3.99186
-3.95772
-3.92159
-3.88353
-3.84357
-3.80176
-3.75812
-3.71269
-3.66546
-3.61641
-3.56549
-3.51236
-3.45853
-4.0767
-4.08182
-4.08448
-4.08466
-4.0824
-4.0777
-4.0706
-4.06112
-4.04928
-4.03511
-4.01866
-3.99994
-3.979
-3.95588
-3.93062
-3.90326
-3.87384
-3.84242
-3.80903
-3.77372
-3.73655
-3.69755
-3.65677
-3.61425
-3.57
-3.52404
-3.47629
-3.42666
-3.37439
-3.32183
-3.93325
-3.93819
-3.94073
-3.94086
-3.93861
-3.93399
-3.92703
-3.91775
-3.90619
-3.89236
-3.8763
-3.85806
-3.83765
-3.81514
-3.79054
-3.76392
-3.73531
-3.70475
-3.67231
-3.63802
-3.60193
-3.5641
-3.52457
-3.48338
-3.44058
-3.39615
-3.35003
-3.30206
-3.251
-3.19999
-3.7979
-3.80202
-3.80384
-3.80336
-3.80059
-3.79555
-3.78827
-3.77878
-3.76709
-3.75324
-3.73727
-3.71921
-3.69908
-3.67695
-3.65283
-3.62678
-3.59885
-3.56907
-3.5375
-3.50419
-3.46918
-3.43252
-3.39428
-3.35451
-3.31325
-3.27054
-3.22638
-3.18057
-3.13189
-3.08765
-13.3183
-13.4732
-13.6199
-13.7664
-13.9113
-14.0531
-14.1911
-14.3251
-14.4546
-14.5794
-14.6991
-14.8137
-14.9229
-15.0265
-15.1243
-15.2162
-15.3022
-15.3819
-15.4555
-15.5227
-15.5834
-15.6377
-15.6855
-15.7266
-15.7612
-15.7892
-15.8107
-15.8258
-15.8349
-15.8394
-12.2822
-12.4413
-12.5936
-12.7426
-12.8881
-13.0297
-13.1671
-13.3002
-13.4288
-13.5527
-13.6716
-13.7854
-13.8938
-13.9968
-14.0941
-14.1856
-14.2712
-14.3508
-14.4242
-14.4914
-14.5523
-14.6068
-14.6549
-14.6965
-14.7316
-14.7602
-14.7823
-14.7981
-14.8076
-14.8109
-11.433
-11.5917
-11.7451
-11.8942
-12.0391
-12.18
-12.3167
-12.449
-12.5768
-12.7
-12.8183
-12.9316
-13.0397
-13.1424
-13.2397
-13.3313
-13.4172
-13.4972
-13.5712
-13.6391
-13.7009
-13.7565
-13.8058
-13.8487
-13.8853
-13.9155
-13.9393
-13.9567
-13.9677
-13.972
-10.6649
-10.821
-10.9729
-11.1204
-11.264
-11.4035
-11.5388
-11.6699
-11.7967
-11.9188
-12.0363
-12.1489
-12.2565
-12.3589
-12.456
-12.5477
-12.6338
-12.7143
-12.789
-12.8578
-12.9206
-12.9774
-13.0282
-13.0727
-13.1111
-13.1432
-13.1691
-13.1887
-13.2018
-13.2085
-9.93005
-10.0827
-10.2317
-10.3768
-10.5181
-10.6555
-10.7889
-10.9181
-11.0432
-11.1638
-11.28
-11.3914
-11.4981
-11.5997
-11.6963
-11.7877
-11.8738
-11.9544
-12.0294
-12.0988
-12.1625
-12.2204
-12.2724
-12.3184
-12.3585
-12.3925
-12.4204
-12.4422
-12.4578
-12.4671
-9.24247
-9.39109
-9.53655
-9.67844
-9.8167
-9.95126
-10.082
-10.2089
-10.3317
-10.4503
-10.5646
-10.6744
-10.7796
-10.8801
-10.9757
-11.0663
-11.1518
-11.2322
-11.3072
-11.3768
-11.4409
-11.4995
-11.5524
-11.5996
-11.641
-11.6767
-11.7064
-11.7303
-11.7482
-11.76
-8.60723
-8.75145
-8.89284
-9.03093
-9.16562
-9.29684
-9.42448
-9.54839
-9.66845
-9.78452
-9.89647
-10.0042
-10.1075
-10.2063
-10.3005
-10.3899
-10.4744
-10.554
-10.6286
-10.6979
-10.762
-10.8208
-10.8743
-10.9222
-10.9647
-11.0015
-11.0328
-11.0584
-11.0782
-11.0923
-8.02352
-8.16309
-8.30007
-8.434
-8.56475
-8.69224
-8.81634
-8.93692
-9.05385
-9.16699
-9.27622
-9.38141
-9.48242
-9.57914
-9.67145
-9.75924
-9.84239
-9.92082
-9.99442
-10.0631
-10.1268
-10.1854
-10.2389
-10.2871
-10.3301
-10.3678
-10.4001
-10.427
-10.4484
-10.4644
-7.48948
-7.62428
-7.75667
-7.88621
-8.01278
-8.13628
-8.25659
-8.37356
-8.48707
-8.59699
-8.70319
-8.80555
-8.90393
-8.99824
-9.08834
-9.17414
-9.25553
-9.33241
-9.4047
-9.47231
-9.53516
-9.59318
-9.64629
-9.69444
-9.73758
-9.77563
-9.80857
-9.83634
-9.8589
-9.87624
-7.00245
-7.13244
-7.26016
-7.38522
-7.50749
-7.62687
-7.74323
-7.85643
-7.96634
-8.07285
-8.17581
-8.27511
-8.37064
-8.46227
-8.54991
-8.63344
-8.71277
-8.78782
-8.85848
-8.92468
-8.98635
-9.04341
-9.09581
-9.14347
-9.18635
-9.2244
-9.25757
-9.28582
-9.30911
-9.32744
-6.55913
-6.68434
-6.80742
-6.92799
-7.04594
-7.16115
-7.2735
-7.38286
-7.48909
-7.59206
-7.69167
-7.78779
-7.8803
-7.9691
-8.05408
-8.13515
-8.21222
-8.28518
-8.35398
-8.41851
-8.47873
-8.53455
-8.58592
-8.63279
-8.67509
-8.71279
-8.74584
-8.77421
-8.79787
-8.8168
-6.15591
-6.27646
-6.39498
-6.51113
-6.62479
-6.73587
-6.84423
-6.94974
-7.05226
-7.15169
-7.24789
-7.34075
-7.43018
-7.51605
-7.59827
-7.67675
-7.7514
-7.82214
-7.88888
-7.95157
-8.01012
-8.06448
-8.1146
-8.16041
-8.20188
-8.23895
-8.2716
-8.29978
-8.32347
-8.34267
-5.78914
-5.90517
-6.01926
-6.1311
-6.24059
-6.34762
-6.45206
-6.55378
-6.65264
-6.74854
-6.84135
-6.93096
-7.01727
-7.10018
-7.17959
-7.25542
-7.32757
-7.39598
-7.46057
-7.52127
-7.57803
-7.63077
-7.67945
-7.72403
-7.76445
-7.80068
-7.83269
-7.86044
-7.88391
-7.9031
-5.45528
-5.56695
-5.67677
-5.78446
-5.88992
-5.99303
-6.09366
-6.19168
-6.28698
-6.37942
-6.46889
-6.5553
-6.63853
-6.71848
-6.79508
-6.86824
-6.93787
-7.00391
-7.06628
-7.12492
-7.17979
-7.23081
-7.27794
-7.32115
-7.36038
-7.3956
-7.42679
-7.45391
-7.47695
-7.4959
-5.15096
-5.25846
-5.3642
-5.46791
-5.56949
-5.66883
-5.7658
-5.86027
-5.9521
-6.04119
-6.12742
-6.2107
-6.29091
-6.36797
-6.44179
-6.5123
-6.57942
-6.64308
-6.70322
-6.75978
-6.81271
-6.86195
-6.90746
-6.94921
-6.98715
-7.02125
-7.05149
-7.07785
-7.10029
-7.11883
-4.87308
-4.97661
-5.07844
-5.17836
-5.27626
-5.372
-5.46547
-5.55652
-5.64504
-5.7309
-5.81401
-5.89425
-5.97153
-6.04577
-6.11689
-6.1848
-6.24945
-6.31076
-6.36869
-6.42317
-6.47415
-6.52159
-6.56545
-6.6057
-6.64229
-6.6752
-6.7044
-6.72988
-6.75162
-6.76963
-4.61881
-4.71855
-4.81669
-4.91301
-5.0074
-5.09973
-5.18987
-5.27767
-5.36302
-5.4458
-5.5259
-5.60323
-5.67769
-5.7492
-5.8177
-5.88309
-5.94534
-6.00436
-6.06011
-6.11254
-6.1616
-6.20725
-6.24946
-6.28818
-6.32339
-6.35507
-6.38319
-6.40773
-6.42869
-6.44606
-4.38559
-4.48173
-4.57636
-4.66929
-4.76037
-4.84948
-4.93646
-5.02118
-5.10352
-5.18336
-5.26059
-5.33513
-5.40689
-5.47579
-5.54175
-5.60472
-5.66464
-5.72144
-5.77508
-5.82551
-5.87269
-5.91658
-5.95715
-5.99436
-6.0282
-6.05863
-6.08564
-6.10921
-6.12933
-6.14602
-4.17114
-4.26385
-4.35518
-4.44491
-4.53288
-4.61895
-4.70296
-4.78477
-4.86425
-4.94129
-5.0158
-5.08768
-5.15686
-5.22325
-5.28679
-5.34743
-5.40511
-5.45977
-5.51137
-5.55987
-5.60523
-5.64741
-5.68638
-5.72211
-5.75459
-5.78379
-5.80968
-5.83227
-5.85154
-5.8675
-3.97342
-4.06287
-4.15109
-4.23782
-4.32288
-4.4061
-4.48731
-4.56637
-4.64315
-4.71755
-4.78947
-4.85882
-4.92553
-4.98954
-5.05077
-5.10918
-5.16472
-5.21733
-5.26698
-5.31362
-5.35722
-5.39774
-5.43517
-5.46947
-5.50062
-5.5286
-5.55341
-5.57502
-5.59343
-5.60865
-3.79061
-3.87697
-3.96228
-4.04622
-4.12856
-4.20911
-4.2877
-4.36417
-4.4384
-4.51029
-4.57975
-4.6467
-4.71107
-4.7728
-4.83184
-4.88813
-4.94162
-4.99228
-5.04005
-5.08492
-5.12684
-5.16578
-5.20172
-5.23463
-5.2645
-5.29131
-5.31505
-5.3357
-5.35326
-5.36775
-3.6211
-3.7045
-3.78713
-3.86849
-3.94831
-4.02638
-4.10251
-4.17654
-4.24836
-4.31788
-4.38501
-4.44968
-4.51183
-4.5714
-4.62834
-4.68261
-4.73417
-4.78296
-4.82896
-4.87213
-4.91244
-4.94987
-4.98439
-5.01598
-5.04462
-5.0703
-5.093
-5.11273
-5.12947
-5.14323
-3.4634
-3.54402
-3.62422
-3.70323
-3.78073
-3.85649
-3.93031
-4.00205
-4.07159
-4.13886
-4.20378
-4.26629
-4.32633
-4.38385
-4.43881
-4.49117
-4.54088
-4.5879
-4.63221
-4.67377
-4.71256
-4.74855
-4.78172
-4.81204
-4.83951
-4.86411
-4.88583
-4.90466
-4.9206
-4.93367
-3.31615
-3.39418
-3.47227
-3.54918
-3.62455
-3.69817
-3.76983
-3.8394
-3.9068
-3.97193
-4.03476
-4.09522
-4.15326
-4.20884
-4.26192
-4.31246
-4.36043
-4.40578
-4.44849
-4.48852
-4.52587
-4.56049
-4.59238
-4.62151
-4.64786
-4.67144
-4.69222
-4.7102
-4.72538
-4.73777
-3.17812
-3.25383
-3.3302
-3.40527
-3.47871
-3.55035
-3.61999
-3.68752
-3.75287
-3.81599
-3.87683
-3.93535
-3.99149
-4.04523
-4.09653
-4.14535
-4.19166
-4.23543
-4.27662
-4.31522
-4.3512
-4.38453
-4.4152
-4.4432
-4.4685
-4.4911
-4.51099
-4.52816
-4.54262
-4.55437
-3.04812
-3.12218
-3.19739
-3.27085
-3.34253
-3.41233
-3.48006
-3.54563
-3.60904
-3.67023
-3.72917
-3.78582
-3.84016
-3.89215
-3.94175
-3.98893
-4.03367
-4.07592
-4.11568
-4.1529
-4.18758
-4.21969
-4.2492
-4.27612
-4.30042
-4.32209
-4.34113
-4.35753
-4.37129
-4.38242
-2.92419
-2.9981
-3.07302
-3.14508
-3.21513
-3.28319
-3.34908
-3.41279
-3.47432
-3.53366
-3.59079
-3.64568
-3.6983
-3.74861
-3.7966
-3.84223
-3.88547
-3.9263
-3.96469
-4.00062
-4.03406
-4.06501
-4.09343
-4.11933
-4.14268
-4.16347
-4.1817
-4.19737
-4.21047
-4.22101
-2.80128
-2.87702
-2.95323
-3.02433
-3.09298
-3.15951
-3.22376
-3.28578
-3.34564
-3.40333
-3.45884
-3.51216
-3.56325
-3.6121
-3.65867
-3.70294
-3.74488
-3.78446
-3.82167
-3.85648
-3.88887
-3.91882
-3.94632
-3.97134
-3.99389
-4.01395
-4.03151
-4.04656
-4.05912
-4.06918
-2.67558
-2.75506
-2.83464
-2.90578
-2.97352
-3.03886
-3.10178
-3.16244
-3.22093
-3.27727
-3.33146
-3.38349
-3.43333
-3.48097
-3.52637
-3.56952
-3.61039
-3.64895
-3.6852
-3.7191
-3.75063
-3.77979
-3.80655
-3.8309
-3.85283
-3.87233
-3.8894
-3.90402
-3.91621
-3.92597
-2.57966
-2.66753
-2.74791
-2.81815
-2.88425
-2.94748
-3.00822
-3.06668
-3.12298
-3.17712
-3.22913
-3.27899
-3.32668
-3.3722
-3.41552
-3.45663
-3.49551
-3.53213
-3.5665
-3.59858
-3.62836
-3.65583
-3.68099
-3.70381
-3.72429
-3.74243
-3.75822
-3.77167
-3.78276
-3.79152
-0.421847
-0.463236
-0.507872
-0.555971
-0.60804
-0.664575
-0.72611
-0.79327
-0.866791
-0.947529
-1.03648
-1.13483
-1.24392
-1.36535
-1.50099
-1.65299
-1.82384
-2.01642
-2.23403
-2.4804
-2.75972
-3.07662
-3.43607
-3.84328
-4.30365
-4.82275
-5.40166
-6.03389
-6.7728
-7.72502
-0.490478
-0.534232
-0.580499
-0.630431
-0.684525
-0.743195
-0.806974
-0.876504
-0.952532
-1.03593
-1.1277
-1.22903
-1.34129
-1.46611
-1.60535
-1.76118
-1.93612
-2.13306
-2.35532
-2.60663
-2.8912
-3.21362
-3.57886
-3.99204
-4.4585
-4.98363
-5.5683
-6.20555
-6.94755
-7.89888
-0.55994
-0.606102
-0.654026
-0.705824
-0.761982
-0.822826
-0.888889
-0.960832
-1.03941
-1.12551
-1.22014
-1.32452
-1.44002
-1.56827
-1.71117
-1.8709
-2.05
-2.25138
-2.47836
-2.73469
-3.02457
-3.35258
-3.72366
-4.14287
-4.6154
-5.14647
-5.73667
-6.37851
-7.12287
-8.07256
-0.630175
-0.678784
-0.72839
-0.782085
-0.840341
-0.903395
-0.97178
-1.04617
-1.12735
-1.21619
-1.31373
-1.42119
-1.53997
-1.67171
-1.81832
-1.98201
-2.16533
-2.3712
-2.60295
-2.86435
-3.15959
-3.49325
-3.8702
-4.29544
-4.77404
-5.31102
-5.90668
-6.55314
-7.30054
-8.25058
-0.701138
-0.752228
-0.803538
-0.859162
-0.919551
-0.984849
-1.05559
-1.13247
-1.21628
-1.30791
-1.4084
-1.51899
-1.6411
-1.77638
-1.92675
-2.09445
-2.28203
-2.49244
-2.72902
-2.99555
-3.2962
-3.63553
-4.01839
-4.44968
-4.93437
-5.47727
-6.07841
-6.72959
-7.48043
-8.43197
-0.772778
-0.82638
-0.879416
-0.936998
-0.999552
-1.06713
-1.14026
-1.21967
-1.30615
-1.4006
-1.50409
-1.61785
-1.74333
-1.88219
-2.03638
-2.20813
-2.40003
-2.61503
-2.85649
-3.12819
-3.4343
-3.77936
-4.16816
-4.60554
-5.09633
-5.64517
-6.25183
-6.90778
-7.66226
-8.61579
-0.845046
-0.901184
-0.955964
-1.01553
-1.08029
-1.15017
-1.22573
-1.3077
-1.39688
-1.49419
-1.60072
-1.7177
-1.84658
-1.98907
-2.14711
-2.32297
-2.51923
-2.73888
-2.98527
-3.26218
-3.57379
-3.92461
-4.31939
-4.76289
-5.25981
-5.81461
-6.42683
-7.08761
-7.84583
-8.80165
-0.917894
-0.976586
-1.03313
-1.09471
-1.16169
-1.23392
-1.31194
-1.39649
-1.48841
-1.58862
-1.69821
-1.81844
-1.95078
-2.09694
-2.25888
-2.43888
-2.63955
-2.86388
-3.11524
-3.39742
-3.71457
-4.07119
-4.47198
-4.92162
-5.4247
-5.98549
-6.60329
-7.26895
-8.031
-8.98929
-0.991272
-1.05253
-1.11085
-1.17448
-1.24371
-1.31831
-1.39881
-1.48599
-1.58067
-1.68381
-1.7965
-1.92002
-2.05585
-2.2057
-2.37158
-2.55576
-2.76088
-2.98994
-3.24632
-3.53379
-3.85652
-4.21898
-4.62581
-5.08161
-5.59086
-6.15766
-6.78107
-7.45164
-8.21758
-9.17845
-1.06513
-1.12897
-1.18907
-1.25477
-1.32629
-1.40328
-1.48629
-1.57612
-1.6736
-1.77969
-1.89551
-2.02235
-2.16169
-2.31529
-2.48513
-2.67354
-2.88314
-3.11696
-3.37839
-3.6712
-3.99954
-4.36786
-4.78075
-5.24274
-5.75818
-6.33099
-6.96002
-7.63551
-8.40536
-9.36886
-1.13944
-1.20585
-1.26774
-1.33553
-1.40936
-1.48877
-1.57432
-1.66681
-1.76712
-1.87619
-1.99517
-2.12535
-2.26824
-2.4256
-2.59945
-2.7921
-3.00623
-3.24484
-3.51134
-3.80952
-4.1435
-4.5177
-4.93668
-5.40486
-5.92649
-6.50533
-7.13997
-7.82038
-8.59414
-9.56031
-1.21414
-1.28313
-1.34682
-1.41672
-1.49288
-1.57472
-1.66282
-1.75801
-1.86116
-1.97324
-2.09539
-2.22894
-2.3754
-2.53655
-2.71443
-2.91136
-3.13003
-3.37347
-3.64507
-3.94864
-4.28828
-4.66838
-5.09345
-5.56784
-6.09566
-6.68051
-7.32076
-8.00607
-8.78374
-9.75257
-1.2892
-1.36075
-1.42624
-1.49828
-1.57678
-1.66108
-1.75175
-1.84965
-1.95565
-2.07075
-2.1961
-2.33304
-2.48309
-2.64806
-2.82998
-3.03121
-3.25445
-3.50273
-3.77946
-4.08843
-4.43375
-4.81977
-5.25094
-5.73153
-6.26554
-6.85638
-7.5022
-8.19239
-8.97393
-9.94543
-1.36459
-1.43868
-1.50597
-1.58015
-1.66102
-1.74779
-1.84104
-1.94166
-2.05053
-2.16867
-2.29723
-2.43756
-2.59122
-2.76001
-2.946
-3.15155
-3.37937
-3.63251
-3.91439
-4.22878
-4.57978
-4.97172
-5.40899
-5.89578
-6.43595
-7.03275
-7.68413
-8.37915
-9.16453
-10.1387
-1.44028
-1.51688
-1.58596
-1.6623
-1.74554
-1.83478
-1.93063
-2.03397
-2.14572
-2.2669
-2.39867
-2.54241
-2.69969
-2.87233
-3.06239
-3.27228
-3.50469
-3.7627
-4.04973
-4.36955
-4.72624
-5.1241
-5.56746
-6.06043
-6.60673
-7.20947
-7.86635
-8.56615
-9.35534
-10.3321
-1.51625
-1.59533
-1.66618
-1.74468
-1.8303
-1.92202
-2.02045
-2.12652
-2.24115
-2.36536
-2.50036
-2.64752
-2.80842
-2.98489
-3.17904
-3.39326
-3.63028
-3.89317
-4.18536
-4.51061
-4.87299
-5.27676
-5.7262
-6.22531
-6.77773
-7.38636
-8.04868
-8.75321
-9.54615
-10.5256
-1.5925
-1.67401
-1.74659
-1.82726
-1.91525
-2.00943
-2.11044
-2.21923
-2.33673
-2.46399
-2.6022
-2.75276
-2.91729
-3.09761
-3.29584
-3.51441
-3.75603
-4.0238
-4.32115
-4.65183
-5.01989
-5.42955
-5.88504
-6.39028
-6.94876
-7.56322
-8.23093
-8.94013
-9.73676
-10.7188
-1.66903
-1.75289
-1.82718
-1.90999
-2.00034
-2.09697
-2.20054
-2.31203
-2.43239
-2.56267
-2.70409
-2.85806
-3.0262
-3.21036
-3.41268
-3.63558
-3.88181
-4.15445
-4.45695
-4.79305
-5.16677
-5.58231
-6.04383
-6.55515
-7.11964
-7.73989
-8.41292
-9.12671
-9.92698
-10.9116
-1.74584
-1.83197
-1.90791
-1.99284
-2.08551
-2.18456
-2.29067
-2.40484
-2.52803
-2.66132
-2.80593
-2.96329
-3.13503
-3.32303
-3.52942
-3.75665
-4.00748
-4.28499
-4.59263
-4.93413
-5.3135
-5.73489
-6.2024
-6.71976
-7.29021
-7.91617
-8.59444
-9.31276
-10.1166
-11.1037
-1.82296
-1.91124
-1.98875
-2.07575
-2.17071
-2.27213
-2.38073
-2.49755
-2.62355
-2.75982
-2.90761
-3.06834
-3.24367
-3.43549
-3.64595
-3.8775
-4.13291
-4.41528
-4.72804
-5.07493
-5.45992
-5.88713
-6.36058