/*--------------------------------*- C++ -*----------------------------------*\
| =========                 |                                                 |
| \\      /  F ield         | OpenFOAM: The Open Source CFD Toolbox           |
|  \\    /   O peration     | Version:  v1912                                 |
|   \\  /    A nd           | Website:  www.openfoam.com                      |
|    \\/     M anipulation  |                                                 |
\*---------------------------------------------------------------------------*/
FoamFile
{
    version     2.0;
    format      ascii;
    class       volScalarField;
    location    "74";
    object      p;
}
// * * * * * * * * * * * * * * * * * * * * * * * * * * * * * * * * * * * * * //

dimensions      [0 2 -2 0 0 0 0];


internalField   nonuniform List<scalar> 
9600
(
-41.4883
-36.2236
-32.9968
-30.2597
-27.7544
-25.4877
-23.4311
-21.557
-19.8477
-18.2896
-16.8701
-15.5773
-14.3997
-13.3267
-12.3481
-11.4545
-10.6376
-9.88923
-9.20206
-8.57385
-42.2483
-36.9661
-33.7034
-30.9234
-28.373
-26.0621
-23.9641
-22.0522
-20.309
-18.7209
-17.275
-15.959
-14.7612
-13.6702
-12.6757
-11.768
-10.9382
-10.1781
-9.47983
-8.84234
-43.0101
-37.7046
-34.4045
-31.5815
-28.9857
-26.6305
-24.4911
-22.5415
-20.7646
-19.1468
-17.6748
-16.336
-15.1181
-14.0095
-12.9993
-12.0775
-11.2351
-10.4634
-9.75402
-9.10744
-43.7702
-38.4387
-35.0998
-32.233
-29.5915
-27.1919
-25.0112
-23.024
-21.2137
-19.5665
-18.0687
-16.7074
-15.4698
-14.3438
-13.3183
-12.3827
-11.5278
-10.7445
-10.0242
-9.36882
-44.5259
-39.1668
-35.7882
-32.877
-30.1894
-27.7453
-25.5233
-23.4988
-21.6555
-19.9792
-18.4561
-17.0726
-15.8157
-14.6727
-13.632
-12.683
-11.8159
-11.0212
-10.2901
-9.62619
-45.2749
-39.8876
-36.4685
-33.5123
-30.7784
-28.2897
-26.0266
-23.9651
-22.089
-20.3841
-18.8361
-17.431
-16.1551
-14.9955
-13.9401
-12.9778
-12.0987
-11.2929
-10.5512
-9.87929
-46.0155
-40.5994
-37.1395
-34.1377
-31.3574
-28.8242
-26.5201
-24.4219
-22.5136
-20.7805
-19.2081
-17.7817
-16.4874
-15.3115
-14.2418
-13.2667
-12.376
-11.5593
-10.8073
-10.1278
-46.7462
-41.301
-37.7998
-34.7522
-31.9253
-29.3476
-27.0028
-24.8684
-22.9282
-21.1675
-19.5712
-18.1242
-16.8118
-15.6202
-14.5366
-13.5491
-12.6472
-11.82
-11.058
-10.3715
-47.4657
-41.991
-38.4483
-35.3546
-32.481
-29.8591
-27.4739
-25.3036
-23.3322
-21.5444
-19.9248
-18.4576
-17.1277
-15.9209
-14.8238
-13.8243
-12.9117
-12.0744
-11.303
-10.61
-48.1726
-42.6682
-39.0839
-35.9438
-33.0236
-30.3576
-27.9324
-25.7268
-23.7246
-21.9103
-20.2679
-18.7811
-17.4344
-16.2128
-15.1027
-14.0918
-13.1689
-12.322
-11.5416
-10.8429
-48.8658
-43.3316
-39.7054
-36.5189
-33.552
-30.8422
-28.3774
-26.137
-24.1046
-22.2644
-20.5998
-19.094
-17.7309
-16.4951
-15.3726
-14.3508
-13.418
-12.562
-11.7732
-11.0696
-49.5445
-43.9801
-40.312
-37.0788
-34.0654
-31.312
-28.8082
-26.5334
-24.4714
-22.6059
-20.9197
-19.3954
-18.0164
-16.7669
-15.6325
-14.6002
-13.6583
-12.7938
-11.9971
-11.2892
-50.2079
-44.6129
-40.9025
-37.6227
-34.5629
-31.7663
-29.2237
-26.9152
-24.8242
-22.9339
-21.2266
-19.6843
-18.2899
-17.0272
-15.8813
-14.8392
-13.8886
-13.0162
-12.2123
-11.5011
-50.8554
-45.2291
-41.4763
-38.1497
-35.0437
-32.2042
-29.6234
-27.2816
-25.1621
-23.2476
-21.5196
-19.9598
-18.5504
-17.2748
-16.1179
-15.0663
-14.1077
-13.228
-12.4178
-11.7046
-51.4864
-45.8279
-42.0325
-38.6591
-35.507
-32.6251
-30.0066
-27.6321
-25.4846
-23.5463
-21.7981
-20.221
-18.7968
-17.5085
-16.3407
-15.2799
-14.3134
-13.427
-12.6113
-11.8977
-52.1006
-46.4086
-42.5704
-39.1503
-35.9523
-33.0283
-30.3726
-27.966
-25.791
-23.8293
-22.0612
-20.4671
-19.0282
-17.7273
-16.5486
-15.4784
-14.504
-13.611
-12.7901
-12.0752
-52.6991
-46.971
-43.0894
-39.6225
-36.379
-33.4133
-30.721
-28.2828
-26.0809
-24.0962
-22.3084
-20.6973
-19.2438
-17.9301
-16.7404
-15.6611
-14.6792
-13.78
-12.9531
-12.2336
-53.2863
-47.5163
-43.5886
-40.0747
-36.786
-33.7793
-31.0512
-28.5822
-26.354
-24.3466
-22.5392
-20.911
-19.4422
-18.1151
-16.9139
-15.8251
-14.8362
-13.9312
-13.0995
-12.3843
-53.8644
-48.044
-44.0665
-40.5058
-37.173
-34.1266
-31.3636
-28.8646
-26.6107
-24.5811
-22.7541
-21.1082
-19.6233
-18.281
-17.0657
-15.9639
-14.963
-14.0471
-13.2141
-12.5315
-54.4114
-48.5464
-44.522
-40.9163
-37.5413
-34.4565
-31.6598
-29.1318
-26.8528
-24.8015
-22.9552
-21.2916
-19.7896
-18.4305
-17.1975
-16.0761
-15.0514
-14.1098
-13.2658
-12.5895
-59.8683
-59.8369
-59.7676
-59.6751
-59.5588
-59.416
-59.2463
-59.0502
-58.8283
-58.5811
-58.3091
-58.0129
-57.6932
-57.3507
-56.9861
-56.6003
-56.1944
-55.77
-55.3302
-54.8778
-53.5193
-53.5167
-53.481
-53.4176
-53.3275
-53.2099
-53.0653
-52.8943
-52.6975
-52.4757
-52.2294
-51.9592
-51.6659
-51.3499
-51.0119
-50.6526
-50.2727
-49.8727
-49.453
-49.0116
-48.8749
-48.8967
-48.8891
-48.8528
-48.7889
-48.6985
-48.582
-48.4401
-48.2735
-48.0827
-47.8684
-47.631
-47.3711
-47.0893
-46.7861
-46.4619
-46.1171
-45.7515
-45.365
-44.9557
-44.644
-44.6835
-44.6964
-44.6821
-44.6417
-44.576
-44.4858
-44.3717
-44.2341
-44.0737
-43.8909
-43.6863
-43.4604
-43.2136
-42.9463
-42.6589
-42.3515
-42.024
-41.6761
-41.3071
-40.7318
-40.7812
-40.8067
-40.8074
-40.7839
-40.7369
-40.6671
-40.5751
-40.4612
-40.326
-40.17
-39.9938
-39.7977
-39.5821
-39.3475
-39.094
-38.8218
-38.5308
-38.2208
-37.8912
-37.2183
-37.2718
-37.3037
-37.3131
-37.3002
-37.2656
-37.21
-37.1338
-37.0376
-36.9217
-36.7867
-36.633
-36.4612
-36.2715
-36.0644
-35.84
-35.5985
-35.3398
-35.0636
-34.7695
-34.0944
-34.1479
-34.1816
-34.1947
-34.1873
-34.16
-34.1133
-34.0478
-33.9638
-33.8617
-33.7423
-33.6058
-33.4527
-33.2836
-33.0986
-32.8981
-32.6822
-32.4509
-32.2038
-31.9404
-31.3232
-31.3739
-31.4063
-31.4197
-31.4143
-31.3905
-31.3488
-31.2898
-31.2138
-31.1213
-31.0129
-30.889
-30.7501
-30.5967
-30.4292
-30.2479
-30.0529
-29.8443
-29.6217
-29.3845
-28.865
-28.9112
-28.9404
-28.9521
-28.9463
-28.9235
-28.8842
-28.8288
-28.7578
-28.6717
-28.5709
-28.4561
-28.3277
-28.1863
-28.0324
-27.8663
-27.6884
-27.4985
-27.2965
-27.0817
-26.68
-26.7211
-26.7462
-26.755
-26.7475
-26.7242
-26.6856
-26.632
-26.564
-26.4819
-26.3865
-26.2781
-26.1575
-26.0253
-25.8819
-25.728
-25.5639
-25.3897
-25.2052
-25.0096
-24.731
-24.7668
-24.7876
-24.793
-24.7833
-24.7587
-24.7198
-24.6669
-24.6005
-24.5212
-24.4294
-24.3257
-24.2109
-24.0856
-23.9506
-23.8065
-23.6539
-23.4929
-23.3235
-23.1448
-22.9852
-23.0159
-23.0324
-23.0344
-23.0222
-22.9961
-22.9564
-22.9036
-22.8381
-22.7605
-22.6713
-22.5711
-22.4607
-22.3408
-22.2124
-22.0763
-21.9332
-21.7836
-21.6275
-21.4642
-21.4141
-21.4402
-21.4527
-21.4516
-21.437
-21.4092
-21.3686
-21.3156
-21.2506
-21.1742
-21.0869
-20.9893
-20.8823
-20.7667
-20.6435
-20.5138
-20.3787
-20.239
-20.0951
-19.946
-19.9941
-20.016
-20.025
-20.021
-20.0042
-19.9748
-19.9333
-19.8801
-19.8154
-19.7398
-19.654
-19.5584
-19.454
-19.3417
-19.2226
-19.0981
-18.9698
-18.8386
-18.7059
-18.5705
-18.7053
-18.7235
-18.7294
-18.7228
-18.704
-18.6733
-18.631
-18.5775
-18.513
-18.4382
-18.3535
-18.2596
-18.1572
-18.0474
-17.9315
-17.8111
-17.6881
-17.5642
-17.442
-17.32
-17.5312
-17.5461
-17.5491
-17.5403
-17.5198
-17.4879
-17.445
-17.3912
-17.327
-17.2528
-17.1691
-17.0764
-16.9757
-16.8678
-16.7541
-16.6365
-16.5175
-16.3994
-16.2867
-16.178
-16.458
-16.4699
-16.4704
-16.4596
-16.4376
-16.4047
-16.3612
-16.3073
-16.2433
-16.1695
-16.0866
-15.9949
-15.8952
-15.7885
-15.6761
-15.5599
-15.4432
-15.3288
-15.2243
-15.1274
-15.4737
-15.4832
-15.4818
-15.4695
-15.4465
-15.4129
-15.369
-15.3151
-15.2514
-15.1782
-15.096
-15.0051
-14.9062
-14.8001
-14.688
-14.5719
-14.4555
-14.3426
-14.2451
-14.1574
-14.5673
-14.5754
-14.573
-14.5602
-14.5371
-14.5039
-14.4607
-14.4079
-14.3456
-14.274
-14.1936
-14.1046
-14.0076
-13.9031
-13.7921
-13.6763
-13.5592
-13.4459
-13.3553
-13.2818
-13.7335
-13.7383
-13.7334
-13.7188
-13.6946
-13.661
-13.6181
-13.5662
-13.5053
-13.4358
-13.3578
-13.2715
-13.1774
-13.0757
-12.9669
-12.8522
-12.7332
-12.6153
-12.5182
-12.469
-53.5746
-54.1501
-54.6885
-55.2119
-55.7174
-56.1989
-56.6536
-57.0805
-57.4786
-57.8471
-58.1852
-58.4926
-58.7687
-59.0134
-59.2258
-59.4062
-59.5554
-59.6746
-59.7657
-59.8306
-47.0914
-47.6723
-48.2251
-48.7556
-49.2633
-49.7457
-50.2014
-50.6296
-51.0299
-51.4015
-51.7438
-52.0566
-52.3402
-52.5952
-52.8194
-53.0124
-53.1746
-53.3066
-53.4088
-53.48
-42.4468
-43.0155
-43.5605
-44.0821
-44.5802
-45.0541
-45.5031
-45.9264
-46.3234
-46.6935
-47.0356
-47.3496
-47.6351
-47.8909
-48.1183
-48.3174
-48.4881
-48.6299
-48.7426
-48.8246
-38.3226
-38.8659
-39.3896
-39.8917
-40.3716
-40.829
-41.2634
-41.674
-42.0602
-42.4215
-42.7565
-43.0647
-43.3471
-43.6032
-43.8331
-44.0365
-44.2131
-44.3625
-44.4844
-44.5783
-34.6446
-35.1579
-35.6541
-36.1308
-36.5867
-37.0217
-37.4352
-37.8264
-38.1947
-38.5396
-38.8616
-39.1602
-39.4342
-39.6836
-39.9086
-40.1088
-40.2841
-40.4342
-40.559
-40.6584
-31.4458
-31.9276
-32.3941
-32.8426
-33.2719
-33.6816
-34.0713
-34.4403
-34.7882
-35.1147
-35.4195
-35.7022
-35.9621
-36.1993
-36.4142
-36.6065
-36.7756
-36.9212
-37.0437
-37.1429
-28.6737
-29.1247
-29.5615
-29.9816
-30.3839
-30.7678
-31.1329
-31.4786
-31.8046
-32.1106
-32.3962
-32.6611
-32.905
-33.1277
-33.3289
-33.5105
-33.6706
-33.8089
-33.9256
-34.0209
-26.2616
-26.6837
-27.0924
-27.4855
-27.8618
-28.2207
-28.5617
-28.8845
-29.1887
-29.4739
-29.74
-29.9868
-30.2141
-30.4219
-30.61
-30.7771
-30.9266
-31.0559
-31.1649
-31.2541
-24.1508
-24.5464
-24.9294
-25.2975
-25.6496
-25.9851
-26.3035
-26.6045
-26.8878
-27.1532
-27.4006
-27.6298
-27.8407
-28.0333
-28.2076
-28.3635
-28.4998
-28.619
-28.7196
-28.8017
-22.291
-22.6628
-23.0225
-23.368
-23.6981
-24.0121
-24.3097
-24.5906
-24.8545
-25.1014
-25.3312
-25.5438
-25.7392
-25.9174
-26.0782
-26.2217
-26.3476
-26.4563
-26.5483
-26.6229
-20.6407
-20.9913
-21.3303
-21.6555
-21.9657
-22.2602
-22.5387
-22.8011
-23.0473
-23.2772
-23.4908
-23.6881
-23.8692
-24.0339
-24.1823
-24.3143
-24.4299
-24.5292
-24.6128
-24.6801
-19.1662
-19.498
-19.8188
-20.126
-20.4182
-20.6949
-20.9561
-21.2017
-21.4316
-21.646
-21.8448
-22.0282
-22.1961
-22.3486
-22.4856
-22.6071
-22.7133
-22.8042
-22.8795
-22.9401
-17.8405
-18.1558
-18.4607
-18.7519
-19.0279
-19.2886
-19.534
-19.7641
-19.9792
-20.1793
-20.3647
-20.5353
-20.6913
-20.8326
-20.9593
-21.0714
-21.1689
-21.2518
-21.3198
-21.3744
-16.642
-16.9429
-17.2342
-17.5113
-17.7726
-18.0185
-18.2493
-18.4653
-18.6667
-18.8539
-19.0269
-19.1859
-19.3311
-19.4623
-19.5797
-19.6833
-19.773
-19.8489
-19.9114
-19.9594
-15.5537
-15.8423
-16.1221
-16.3865
-16.6343
-16.8665
-17.0838
-17.2865
-17.4753
-17.6504
-17.8122
-17.9606
-18.0959
-18.2181
-18.327
-18.4229
-18.5056
-18.5752
-18.6316
-18.6749
-14.5608
-14.8409
-15.1114
-15.3639
-15.5988
-15.8181
-16.0225
-16.2129
-16.3898
-16.5538
-16.7051
-16.8438
-16.9701
-17.084
-17.1853
-17.2742
-17.3505
-17.4144
-17.4657
-17.5046
-13.6456
-13.9246
-14.19
-14.4311
-14.6533
-14.8601
-15.0523
-15.2309
-15.3968
-15.5504
-15.6922
-15.8221
-15.9402
-16.0466
-16.1411
-16.2237
-16.2944
-16.3531
-16.3999
-16.4349
-12.7875
-13.0708
-13.3374
-13.5691
-13.7793
-13.9745
-14.1555
-14.3236
-14.4796
-14.6243
-14.7578
-14.8803
-14.9915
-15.0916
-15.1804
-15.2579
-15.3239
-15.3785
-15.4217
-15.4535
-12
-12.2738
-12.5412
-12.768
-12.9681
-13.1519
-13.3224
-13.481
-13.6283
-13.765
-13.8913
-14.0073
-14.1128
-14.2076
-14.2917
-14.3649
-14.4273
-14.4787
-14.5191
-14.5487
-11.4093
-11.6602
-11.888
-12.1048
-12.2932
-12.4591
-12.6131
-12.7574
-12.8914
-13.0156
-13.1304
-13.2356
-13.3312
-13.4168
-13.4925
-13.5581
-13.6135
-13.6587
-13.6936
-13.7181
-6.00733
-6.4987
-7.03715
-7.61962
-8.25256
-8.94333
-9.69963
-10.5309
-11.4493
-12.4705
-13.615
-14.9097
-16.39
-18.102
-20.1061
-22.4816
-25.3098
-28.6129
-32.6103
-38.6063
-6.27799
-6.78289
-7.33187
-7.92641
-8.57312
-9.27909
-10.0521
-10.9019
-11.8409
-12.885
-14.055
-15.3783
-16.8907
-18.6387
-20.683
-23.1026
-25.9779
-29.3278
-33.3638
-39.3808
-6.55007
-7.06851
-7.62813
-8.23498
-8.89573
-9.61714
-10.4071
-11.2757
-12.2355
-13.3029
-14.4988
-15.8511
-17.3959
-19.1803
-21.2649
-23.7287
-26.6506
-30.0462
-34.1189
-40.1525
-6.82308
-7.35502
-7.92536
-8.54472
-9.21972
-9.95678
-10.764
-11.6515
-12.6324
-13.7232
-14.9453
-16.3268
-17.9043
-19.7252
-21.8504
-24.3582
-27.3265
-30.7677
-34.8782
-40.933
-7.0966
-7.64193
-8.22307
-8.85516
-9.54462
-10.2975
-11.1221
-12.0288
-13.031
-14.1453
-15.3938
-16.8046
-18.415
-20.2725
-22.4382
-24.9902
-28.0048
-31.4915
-35.6406
-41.7197
-7.37024
-7.92885
-8.52086
-9.16588
-9.86997
-10.6389
-11.481
-12.407
-13.4306
-14.5687
-15.8436
-17.284
-18.9274
-20.8216
-23.0279
-25.624
-28.6847
-32.2168
-36.404
-42.5086
-7.64369
-8.21541
-8.81833
-9.47646
-10.1954
-10.9804
-11.8401
-12.7857
-13.8307
-14.9928
-16.2942
-17.7643
-19.4407
-21.3718
-23.6187
-26.2587
-29.3654
-32.9424
-37.1671
-43.2973
-7.9167
-8.50133
-9.11518
-9.78659
-10.5205
-11.3217
-12.1992
-13.1643
-14.2309
-15.4169
-16.7449
-18.2447
-19.9542
-21.9221
-24.2095
-26.8934
-30.0457
-33.6672
-37.9286
-44.0842
-8.18912
-8.7864
-9.41115
-10.096
-10.8449
-11.6625
-12.5577
-13.5423
-14.6306
-15.8405
-17.1952
-18.7246
-20.4672
-22.4718
-24.7996
-27.5271
-30.7246
-34.39
-38.6873
-44.868
-8.4609
-9.07051
-9.70609
-10.4044
-11.1684
-12.0023
-12.9153
-13.9194
-15.0292
-16.263
-17.6443
-19.2032
-20.9788
-23.02
-25.3881
-28.1587
-31.401
-35.1096
-39.4418
-45.6472
-8.73216
-9.35369
-9.99995
-10.7118
-11.4909
-12.3409
-13.2716
-14.2952
-15.4264
-16.6839
-18.0916
-19.68
-21.4883
-23.5659
-25.9738
-28.7873
-32.0738
-35.8249
-40.1909
-46.4202
-9.00318
-9.63612
-10.2928
-11.018
-11.812
-12.6782
-13.6263
-14.6691
-15.8215
-17.1026
-18.5364
-20.154
-21.9949
-24.1085
-26.556
-29.4117
-32.7418
-36.5346
-40.9331
-47.1857
-9.27446
-9.91808
-10.5847
-11.3231
-12.1318
-13.0137
-13.979
-15.0406
-16.214
-17.5183
-18.9781
-20.6246
-22.4977
-24.647
-27.1335
-30.0309
-33.4038
-37.2375
-41.6673
-47.9422
-9.54671
-10.2
-10.8758
-11.627
-12.4499
-13.3471
-14.3292
-15.4094
-16.6033
-17.9305
-19.4159
-21.0909
-22.9958
-25.1803
-27.7053
-30.6438
-34.0586
-37.9323
-42.392
-48.6886
-9.8207
-10.4822
-11.1662
-11.9294
-12.766
-13.678
-14.6763
-15.7746
-16.9887
-18.3384
-19.8488
-21.552
-23.4882
-25.7075
-28.2704
-31.2491
-34.705
-38.6177
-43.1062
-49.4235
-10.0974
-10.7649
-11.4556
-12.2299
-13.0794
-14.0056
-15.0197
-16.1356
-17.3693
-18.7411
-20.2762
-22.0069
-23.974
-26.2273
-28.8274
-31.8456
-35.3417
-39.2925
-43.8086
-50.1461
-10.3766
-11.047
-11.7425
-12.527
-13.3889
-14.3288
-15.3582
-16.4913
-17.7443
-19.1375
-20.6968
-22.4546
-24.4519
-26.7387
-29.3752
-32.432
-35.9673
-39.9554
-44.4982
-50.8558
-10.6575
-11.3261
-12.0244
-12.8189
-13.6933
-14.6466
-15.6909
-16.8407
-18.1125
-19.5269
-21.1098
-22.8941
-24.9209
-27.2405
-29.9125
-33.0068
-36.5801
-40.6046
-45.1738
-51.5524
-10.933
-11.5936
-12.2952
-13.1023
-13.9902
-14.9572
-16.0163
-17.1826
-18.4729
-19.9079
-21.5139
-23.3241
-25.3798
-27.7312
-30.4378
-33.5685
-37.1786
-41.2383
-45.8343
-52.2375
-11.1844
-11.8298
-12.5504
-13.3782
-14.2804
-15.2604
-16.3339
-17.5164
-18.8246
-20.2796
-21.9082
-23.7436
-25.8273
-28.2097
-30.9497
-34.1153
-37.7604
-41.8535
-46.4749
-52.9126
-1.58533
-1.83927
-2.18715
-2.57607
-2.99462
-3.44815
-3.94299
-4.48505
-5.08182
-5.74358
-6.48426
-7.32288
-8.28559
-9.40843
-10.7423
-12.3615
-14.3558
-16.7863
-19.9614
-25.3561
-1.73852
-2.00889
-2.37524
-2.77011
-3.19209
-3.65097
-4.15272
-4.70286
-5.30905
-5.9818
-6.73532
-7.58897
-8.56932
-9.71294
-11.0713
-12.7192
-14.7464
-17.2123
-20.4197
-25.8283
-1.88606
-2.18052
-2.56003
-2.96304
-3.39276
-3.86003
-4.37073
-4.93056
-5.54753
-6.23252
-7.00006
-7.86989
-8.86906
-10.0346
-11.4187
-13.0963
-15.1571
-17.6585
-20.8974
-26.3146
-2.05589
-2.36118
-2.74889
-3.16064
-3.59956
-4.07638
-4.59711
-5.16775
-5.79664
-6.49495
-7.27757
-8.16464
-9.18367
-10.3723
-11.783
-13.4914
-15.5868
-18.1249
-21.3987
-26.8336
-2.23704
-2.54942
-2.94498
-3.36569
-3.81412
-4.30093
-4.83234
-5.41459
-6.05628
-6.76884
-7.56749
-8.47278
-9.51268
-10.7253
-12.1638
-13.9041
-16.0352
-18.6116
-21.9229
-27.3819
-2.42367
-2.74467
-3.14858
-3.57842
-4.03663
-4.53389
-5.07658
-5.67114
-6.32638
-7.05401
-7.86958
-8.79403
-9.85579
-11.0936
-12.5609
-14.3342
-16.5024
-19.1182
-22.4682
-27.9543
-2.6173
-2.94782
-3.35999
-3.79898
-4.26725
-4.77539
-5.32989
-5.93736
-6.60684
-7.3503
-8.18361
-9.1281
-10.2127
-11.4766
-12.9739
-14.7814
-16.9877
-19.6441
-23.0337
-28.5486
-2.81934
-3.15935
-3.57956
-4.02769
-4.50622
-5.02557
-5.5923
-6.21321
-6.89753
-7.6575
-8.5093
-9.47466
-10.583
-11.874
-13.4023
-15.2451
-17.4907
-20.1887
-23.6186
-29.1635
-3.02955
-3.3791
-3.80733
-4.26464
-4.75361
-5.28443
-5.86377
-6.49857
-7.19828
-7.97537
-8.84637
-9.83339
-10.9663
-12.2853
-13.8457
-15.7247
-18.0107
-20.7513
-24.2223
-29.798
-3.24733
-3.60675
-4.04309
-4.50969
-5.00927
-5.55184
-6.14412
-6.79325
-7.50884
-8.30365
-9.19451
-10.2039
-11.3622
-12.7101
-14.3034
-16.2198
-18.547
-21.3312
-24.8439
-30.4511
-3.47225
-3.84194
-4.28652
-4.76255
-5.27295
-5.82754
-6.43311
-7.09696
-7.82893
-8.642
-9.55333
-10.5858
-11.7702
-13.1479
-14.7751
-16.7297
-19.0991
-21.9276
-25.4826
-31.1217
-3.70394
-4.08426
-4.53726
-5.02287
-5.54431
-6.11121
-6.7304
-7.40937
-8.15816
-8.99003
-9.92243
-10.9787
-12.19
-13.5982
-15.2601
-17.2538
-19.6663
-22.5399
-26.1375
-31.8087
-3.94191
-4.33326
-4.79486
-5.29024
-5.82297
-6.40245
-7.03559
-7.73007
-8.49613
-9.34729
-10.3013
-11.3819
-12.6208
-14.0604
-15.7577
-17.7913
-20.2477
-23.1671
-26.8077
-32.5113
-4.18566
-4.5884
-5.05881
-5.56418
-6.10845
-6.7008
-7.34823
-8.05859
-8.84235
-9.71329
-10.6895
-11.7951
-13.0622
-14.5338
-16.2674
-18.3417
-20.8427
-23.8084
-27.4924
-33.2283
-4.43462
-4.84912
-5.32857
-5.84417
-6.40025
-7.00578
-7.66782
-8.39443
-9.19631
-10.0875
-11.0864
-12.2176
-13.5136
-15.0179
-16.7884
-18.9042
-21.4504
-24.4631
-28.1908
-33.9591
-4.68825
-5.11487
-5.60358
-6.12966
-6.69784
-7.31684
-7.99381
-8.73704
-9.55744
-10.4693
-11.4914
-12.6487
-13.9742
-15.5118
-17.32
-19.4778
-22.07
-25.1302
-28.9019
-34.7028
-4.946
-5.38505
-5.88327
-6.42008
-7.00064
-7.63342
-8.32566
-9.08585
-9.92516
-10.8582
-11.9039
-13.0878
-14.4434
-16.0149
-17.8614
-20.0619
-22.7006
-25.8088
-29.625
-35.4588
-5.20732
-5.65909
-6.16704
-6.71487
-7.3081
-7.95495
-8.66277
-9.44027
-10.2989
-11.2534
-12.3233
-13.5343
-14.9203
-16.5264
-18.4117
-20.6555
-23.3411
-26.4978
-30.3592
-36.2268
-5.47165
-5.93641
-6.45432
-7.01343
-7.61962
-8.28084
-9.00454
-9.79967
-10.6779
-11.6543
-12.7487
-13.9872
-15.4044
-17.0454
-18.97
-21.2574
-23.9905
-27.196
-31.1035
-37.0074
-5.73849
-6.21647
-6.74456
-7.31523
-7.93466
-8.61054
-9.3504
-10.1635
-11.0617
-12.0603
-13.1797
-14.4461
-15.8947
-17.5711
-19.5353
-21.8668
-24.6474
-27.9017
-31.855
-37.8013
-1.33754
-1.13081
-0.977018
-0.840277
-0.720198
-0.614239
-0.521287
-0.440548
-0.371521
-0.313846
-0.267259
-0.231546
-0.206539
-0.192101
-0.188094
-0.194306
-0.21052
-0.236865
-0.273528
-0.320282
-1.66734
-1.4839
-1.32613
-1.18416
-1.05925
-0.948821
-0.8519
-0.767687
-0.695667
-0.635463
-0.586793
-0.549435
-0.523207
-0.507957
-0.503542
-0.509786
-0.526535
-0.553802
-0.591683
-0.639838
-1.99981
-1.82425
-1.6665
-1.52338
-1.39634
-1.28373
-1.18485
-1.09902
-1.02576
-0.964722
-0.91562
-0.878235
-0.852382
-0.837905
-0.834654
-0.842476
-0.861253
-0.890933
-0.931372
-0.98283
-2.38348
-2.20625
-2.04545
-1.89938
-1.76876
-1.65264
-1.55055
-1.46193
-1.38637
-1.32352
-1.27313
-1.23496
-1.20883
-1.19456
-1.19201
-1.20102
-1.22149
-1.25332
-1.2964
-1.35077
-2.80213
-2.62243
-2.45767
-2.30765
-2.17281
-2.05264
-1.9468
-1.85488
-1.77653
-1.71144
-1.65935
-1.62005
-1.59332
-1.57902
-1.57697
-1.58703
-1.60907
-1.64299
-1.68867
-1.74608
-3.2533
-3.07038
-2.90144
-2.74708
-2.60779
-2.48335
-2.37357
-2.27815
-2.19682
-2.1293
-2.07536
-2.03478
-2.00738
-1.99297
-1.9914
-2.00252
-2.0262
-2.0623
-2.11069
-2.17132
-3.74318
-3.55553
-3.38167
-3.22238
-3.07818
-2.94908
-2.83501
-2.73576
-2.65114
-2.58091
-2.52486
-2.48279
-2.45453
-2.43989
-2.43871
-2.45085
-2.47615
-2.51448
-2.56569
-2.62976
-4.27855
-4.08467
-3.90481
-3.73973
-3.58992
-3.45555
-3.33663
-3.23305
-3.14466
-3.07129
-3.01274
-2.96885
-2.93943
-2.92431
-2.92334
-2.93635
-2.9632
-3.00374
-3.0578
-3.12537
-4.8671
-4.66556
-4.47846
-4.3065
-4.15017
-4.00972
-3.88521
-3.77662
-3.68385
-3.60677
-3.54521
-3.49902
-3.46803
-3.45208
-3.45101
-3.46466
-3.49288
-3.5355
-3.59237
-3.66347
-5.51897
-5.30819
-5.11244
-4.93232
-4.76834
-4.62076
-4.48972
-4.37525
-4.27729
-4.19574
-4.13048
-4.08137
-4.04824
-4.03096
-4.02935
-4.04327
-4.07256
-4.11703
-4.17653
-4.25107
-6.24789
-6.02608
-5.82
-5.63018
-5.45711
-5.3011
-5.16232
-5.04082
-4.93661
-4.84962
-4.77974
-4.72686
-4.69083
-4.67151
-4.66874
-4.68237
-4.71224
-4.75815
-4.81995
-4.89768
-7.0726
-6.83764
-6.6192
-6.41778
-6.23387
-6.06776
-5.91967
-5.7897
-5.67787
-5.58414
-5.50843
-5.45065
-5.41066
-5.38833
-5.38351
-5.39605
-5.42577
-5.47248
-5.53601
-5.61644
-8.01883
-7.76817
-7.53495
-7.31959
-7.12261
-6.94432
-6.78494
-6.64461
-6.52337
-6.42122
-6.33809
-6.2739
-6.22854
-6.20188
-6.19377
-6.20406
-6.23259
-6.27911
-6.34348
-6.42583
-9.12212
-8.85268
-8.60168
-8.36952
-8.15672
-7.9636
-7.79043
-7.63734
-7.5044
-7.39164
-7.299
-7.22643
-7.17381
-7.14102
-7.12793
-7.13439
-7.16022
-7.20516
-7.26905
-7.35208
-10.4327
-10.1408
-9.86842
-9.61592
-9.3839
-9.1727
-8.98258
-8.81371
-8.66617
-8.54
-8.43517
-8.35163
-8.28927
-8.24799
-8.22765
-8.22811
-8.24916
-8.29055
-8.35207
-8.43398
-12.0244
-11.7056
-11.4074
-11.1304
-10.8751
-10.6419
-10.431
-10.2427
-10.077
-9.93392
-9.81354
-9.71576
-9.6405
-9.58766
-9.5571
-9.54869
-9.56222
-9.5974
-9.654
-9.73229
-13.9862
-13.6358
-13.3073
-13.0012
-12.7182
-12.4586
-12.2229
-12.011
-11.8232
-11.6595
-11.5198
-11.4041
-11.3124
-11.2445
-11.2004
-11.1799
-11.1827
-11.2088
-11.2576
-11.3294
-16.3799
-15.9939
-15.6308
-15.2917
-14.9772
-14.6877
-14.4235
-14.1848
-13.9714
-13.7837
-13.6214
-13.4846
-13.3733
-13.2874
-13.2268
-13.1913
-13.1809
-13.1953
-13.2343
-13.2969
-19.5164
-19.0905
-18.6885
-18.3129
-17.9639
-17.6416
-17.3461
-17.0773
-16.8352
-16.6199
-16.4312
-16.2692
-16.1339
-16.0253
-15.9431
-15.8873
-15.8578
-15.855
-15.8785
-15.9264
-24.8531
-24.3822
-23.9457
-23.5406
-23.1647
-22.817
-22.4972
-22.2051
-21.9407
-21.7039
-21.4949
-21.3136
-21.1601
-21.0346
-20.9371
-20.8676
-20.827
-20.8174
-20.8403
-20.8854
-0.377042
-0.443485
-0.519573
-0.605223
-0.700353
-0.804856
-0.918601
-1.04143
-1.17312
-1.3134
-1.46191
-1.61811
-1.78122
-1.94999
-2.12279
-2.29732
-2.46913
-2.62839
-2.75974
-2.8896
-0.698475
-0.767197
-0.845926
-0.934552
-1.03297
-1.14105
-1.25864
-1.38556
-1.52157
-1.66637
-1.81953
-1.98051
-2.14854
-2.32245
-2.50062
-2.68141
-2.86304
-3.03779
-3.19045
-3.36279
-1.04497
-1.11755
-1.20049
-1.29369
-1.39701
-1.51031
-1.63343
-1.76614
-1.9082
-2.05926
-2.21891
-2.38659
-2.56154
-2.74274
-2.92884
-3.11862
-3.31115
-3.50202
-3.68553
-3.89161
-1.41634
-1.49277
-1.57999
-1.67786
-1.78623
-1.90495
-2.03383
-2.17263
-2.32107
-2.47882
-2.64542
-2.82032
-3.00283
-3.19203
-3.38685
-3.58641
-3.78992
-3.99506
-4.20234
-4.43213
-1.81517
-1.89562
-1.98731
-2.09009
-2.20381
-2.32829
-2.46332
-2.60865
-2.76399
-2.92897
-3.10317
-3.28605
-3.47695
-3.6751
-3.87969
-4.09009
-4.3057
-4.52548
-4.75207
-4.99863
-2.24425
-2.32899
-2.42548
-2.53357
-2.65307
-2.78379
-2.92552
-3.07798
-3.24089
-3.41387
-3.59649
-3.78827
-3.98861
-4.19686
-4.41241
-4.63484
-4.86375
-5.09893
-5.34313
-5.60419
-2.70673
-2.79598
-2.8976
-3.01136
-3.13708
-3.27455
-3.42354
-3.58378
-3.75497
-3.93675
-4.1287
-4.33037
-4.54124
-4.76077
-4.98848
-5.22408
-5.46736
-5.71854
-5.97982
-6.25564
-3.20638
-3.30052
-3.40757
-3.52736
-3.65971
-3.80442
-3.96123
-4.12989
-4.3101
-4.50149
-4.70369
-4.91626
-5.13876
-5.37072
-5.61179
-5.86172
-6.12043
-6.38825
-6.66675
-6.9584
-3.74878
-3.84783
-3.96051
-4.08661
-4.22597
-4.37836
-4.54354
-4.72125
-4.91117
-5.11299
-5.32633
-5.55081
-5.78601
-6.03156
-6.28714
-6.55257
-6.82778
-7.11308
-7.40946
-7.71829
-4.34065
-4.44465
-4.56316
-4.69576
-4.84241
-5.00286
-5.17688
-5.36418
-5.56449
-5.77748
-6.00281
-6.24013
-6.48906
-6.74928
-7.02049
-7.30254
-7.59536
-7.8991
-8.21434
-8.54187
-4.99136
-5.10026
-5.22439
-5.36371
-5.51781
-5.68657
-5.86976
-6.06711
-6.27833
-6.50313
-6.74118
-6.99217
-7.25574
-7.53161
-7.81949
-8.11923
-8.4307
-8.75394
-9.0892
-9.43696
-5.71384
-5.82733
-5.95699
-6.10266
-6.26423
-6.44135
-6.63385
-6.84149
-7.06398
-7.30103
-7.55236
-7.81767
-8.09663
-8.38895
-8.69439
-9.01274
-9.34385
-9.68761
-10.044
-10.4135
-6.52623
-6.64367
-6.77834
-6.92997
-7.09846
-7.28392
-7.48566
-7.70345
-7.93723
-8.1867
-8.45158
-8.73159
-9.0264
-9.33574
-9.65937
-9.99705
-10.3486
-10.7137
-11.0923
-11.4847
-7.45436
-7.57468
-7.71338
-7.8702
-8.04491
-8.23749
-8.44874
-8.67589
-8.92059
-9.18219
-9.46045
-9.75509
-10.0658
-10.3924
-10.7345
-11.0919
-11.4643
-11.8514
-12.2529
-12.6691
-8.53643
-8.65793
-8.79906
-8.95959
-9.13936
-9.3379
-9.55474
-9.79213
-10.0475
-10.3202
-10.611
-10.9198
-11.2461
-11.5897
-11.9501
-12.3271
-12.7204
-13.1295
-13.5541
-13.9945
-9.83238
-9.95252
-10.0936
-10.2556
-10.4382
-10.6413
-10.8641
-11.107
-11.3699
-11.6535
-11.9562
-12.2783
-12.6194
-12.9788
-13.3562
-13.7517
-14.1649
-14.5955
-15.0426
-15.5067
-11.4238
-11.5394
-11.6776
-11.8383
-12.0211
-12.2259
-12.4522
-12.7001
-12.9692
-13.2599
-13.5727
-13.9065
-14.2595
-14.6311
-15.0223
-15.4338
-15.865
-16.3152
-16.7834
-17.2694
-13.3814
-13.4894
-13.6217
-13.7778
-13.9565
-14.1582
-14.3831
-14.6311
-14.9018
-15.1948
-15.5094
-15.8458
-16.2057
-16.5898
-16.9961
-17.4235
-17.8715
-18.3397
-18.8272
-19.333
-15.9966
-16.0885
-16.2045
-16.346
-16.5143
-16.7087
-16.9283
-17.1728
-17.4419
-17.7351
-18.0518
-18.3917
-18.7552
-19.1427
-19.5541
-19.9887
-20.4464
-20.928
-21.4331
-21.9571
-20.9271
-20.9995
-21.1028
-21.2347
-21.394
-21.5802
-21.7926
-22.0309
-22.2947
-22.5838
-22.8979
-23.237
-23.6012
-23.9907
-24.4058
-24.8463
-25.3134
-25.811
-26.3416
-26.8874
-27.4042
-22.4917
-19.8566
-17.7734
-15.9877
-14.4506
-13.0999
-11.8907
-10.7958
-9.79711
-8.88159
-8.03953
-7.26332
-6.54673
-5.88459
-5.27235
-4.70477
-4.17626
-3.69532
-3.29092
-27.9489
-23.0426
-20.396
-18.2925
-16.4829
-14.9202
-13.5435
-12.3088
-11.1895
-10.1681
-9.23184
-8.37108
-7.57838
-6.84766
-6.1739
-5.55268
-4.97926
-4.45126
-3.98181
-3.57932
-28.5222
-23.6123
-20.9525
-18.8276
-16.9929
-15.4033
-13.9995
-12.7384
-11.5941
-10.5493
-9.59169
-8.71173
-7.90203
-7.15655
-6.47023
-5.83856
-5.25691
-4.72301
-4.24643
-3.82443
-29.1199
-24.2016
-21.5263
-19.3785
-17.5171
-15.8994
-14.4673
-13.1788
-12.0086
-10.9397
-9.96005
-9.06014
-8.2326
-7.47125
-6.77084
-6.12657
-5.53357
-4.9889
-4.49932
-4.05858
-29.7389
-24.8098
-22.1166
-19.9447
-18.055
-16.4077
-14.9462
-13.6293
-12.4323
-11.3385
-10.336
-9.41546
-8.56927
-7.79115
-7.07557
-6.41746
-5.81163
-5.25457
-4.75118
-4.2943
-30.3777
-25.4374
-22.7216
-20.525
-18.6057
-16.9275
-15.4355
-14.0892
-12.8644
-11.745
-10.719
-9.77701
-8.91148
-8.11587
-7.3844
-6.71172
-6.09242
-5.52263
-5.00596
-4.53499
-31.0351
-26.083
-23.341
-21.1185
-19.1684
-17.458
-15.9343
-14.5576
-13.3043
-12.1584
-11.1082
-10.1443
-9.2589
-8.44533
-7.69757
-7.01002
-6.37714
-5.79481
-5.26557
-4.78191
-31.7098
-26.7444
-23.9745
-21.7244
-19.7422
-17.9984
-16.4419
-15.0339
-13.7512
-12.5782
-11.5032
-10.5169
-9.61122
-8.77938
-8.01512
-7.31264
-6.66625
-6.07166
-5.53041
-5.03498
-32.4005
-27.4203
-24.6213
-22.3419
-20.3262
-18.5478
-16.9575
-15.5172
-14.2044
-13.0037
-11.9035
-10.8943
-9.96811
-9.11781
-8.33696
-7.61955
-6.95979
-6.35318
-5.80032
-5.29371
-33.1059
-28.1094
-25.2803
-22.97
-20.9195
-19.1053
-17.4802
-16.0068
-14.6632
-13.4342
-12.3084
-11.2761
-10.3291
-9.46027
-8.66279
-7.93051
-7.25747
-6.639
-6.0748
-5.55737
-33.8248
-28.8107
-25.9506
-23.6078
-21.5211
-19.6701
-18.0092
-16.502
-15.1269
-13.8692
-12.7173
-11.6616
-10.6938
-9.8063
-8.9922
-8.24507
-7.55884
-6.9286
-6.35319
-5.82516
-34.556
-29.5231
-26.6309
-24.2541
-22.13
-20.2411
-18.5435
-17.0017
-15.5947
-14.3078
-13.1296
-12.0504
-11.0616
-10.1554
-9.32464
-8.56271
-7.86332
-7.22134
-6.63478
-6.0963
-35.2985
-30.2453
-27.3201
-24.9079
-22.7453
-20.8174
-19.0823
-17.5053
-16.0657
-14.7494
-13.5447
-12.4417
-11.4318
-10.5069
-9.65952
-8.8828
-8.17028
-7.51655
-6.91886
-6.37002
-36.0512
-30.9763
-28.017
-25.5681
-23.3657
-21.398
-19.6245
-18.0117
-16.5392
-15.193
-13.9616
-12.8349
-11.8038
-10.8602
-9.99621
-9.20472
-8.47905
-7.81356
-7.20472
-6.64559
-36.8129
-31.7148
-28.7204
-26.2335
-23.9903
-21.9817
-20.1693
-18.52
-17.0143
-15.6381
-14.3798
-13.2292
-12.177
-11.2146
-10.334
-9.52779
-8.78899
-8.11169
-7.49168
-6.92233
-37.5824
-32.4595
-29.4289
-26.9029
-24.6177
-22.5676
-20.7155
-19.0294
-17.49
-16.0836
-14.7983
-13.6238
-12.5505
-11.5695
-10.6723
-9.85137
-9.09943
-8.41029
-7.77908
-7.19958
-38.3593
-33.2092
-30.1413
-27.5749
-25.2469
-23.1543
-21.262
-19.5387
-17.9655
-16.5287
-15.2165
-14.0181
-12.9237
-11.9241
-11.0104
-10.1748
-9.40974
-8.70874
-8.0663
-7.47674
-39.1449
-33.9635
-30.856
-28.2479
-25.8762
-23.7406
-21.8076
-20.0469
-18.4397
-16.9726
-15.6334
-14.4112
-13.2959
-12.2777
-11.3476
-10.4974
-9.71925
-9.0064
-8.35273
-7.75325
-39.9395
-34.7211
-31.5711
-28.9204
-26.5044
-24.3253
-22.3514
-20.553
-18.9118
-17.4143
-16.0482
-14.8024
-13.6662
-12.6296
-11.6833
-10.8185
-10.0274
-9.30267
-8.63782
-8.0286
-40.7303
-35.477
-32.2849
-29.5912
-27.1308
-24.908
-22.8929
-21.0566
-19.3814
-17.8535
-16.4607
-15.1913
-14.0343
-12.9794
-12.0169
-11.1377
-10.3336
-9.59711
-8.9211
-8.30232
-6.78102
-4.67491
-3.3146
-2.26899
-1.53439
-0.994841
-0.607283
-0.33213
-0.141062
-0.0123363
0.0706734
0.120599
0.147026
0.157111
0.156169
0.148071
0.135633
0.120853
0.105142
0.0894668
0.0744727
0.0605704
0.0479962
0.0368701
0.027213
0.0190049
0.0121518
0.00658908
0.00214721
-0.00120309
-0.00372453
-0.00530985
-0.00640638
-0.0066044
-0.00673779
-0.00581251
-0.00540436
-0.00348909
-0.00294518
3.71979e-05
-7.03672
-4.85731
-3.46087
-2.38417
-1.62544
-1.06848
-0.667354
-0.381755
-0.182444
-0.0470946
0.0413368
0.095763
0.125971
0.139259
0.141046
0.135283
0.124844
0.111778
0.0975339
0.0831133
0.0691894
0.0561976
0.0443953
0.033921