/*--------------------------------*- C++ -*----------------------------------*\
  =========                 |
  \\      /  F ield         | OpenFOAM: The Open Source CFD Toolbox
   \\    /   O peration     | Website:  https://openfoam.org
    \\  /    A nd           | Version:  6.0
     \\/     M anipulation  |
\*---------------------------------------------------------------------------*/
FoamFile
{
    version     2.0;
    format      ascii;
    class       volScalarField;
    location    "1.5";
    object      p;
}
// * * * * * * * * * * * * * * * * * * * * * * * * * * * * * * * * * * * * * //

dimensions      [0 2 -2 0 0 0 0];

internalField   nonuniform List<scalar> 
9600
(
-51.1416
-39.789
-32.0896
-26.3179
-21.5034
-17.5524
-14.345
-11.7401
-9.62435
-7.90678
-6.51246
-5.37978
-4.4585
-3.70784
-3.09485
-2.59305
-2.18105
-1.84112
-1.55925
-1.33122
-51.1728
-39.8371
-32.1417
-26.3672
-21.549
-17.5951
-14.3853
-11.7787
-9.6617
-7.94333
-6.54847
-5.41536
-4.49368
-3.74256
-3.12902
-2.62654
-2.21375
-1.87282
-1.58972
-1.36119
-51.2179
-39.8879
-32.1948
-26.4182
-21.5967
-17.6398
-14.4277
-11.8194
-9.70132
-7.98221
-6.58684
-5.45334
-4.53128
-3.77974
-3.16566
-2.66252
-2.24893
-1.90698
-1.62265
-1.39362
-51.2732
-39.9441
-32.2505
-26.4712
-21.6463
-17.6863
-14.472
-11.8621
-9.74291
-8.02312
-6.62731
-5.49349
-4.57112
-3.8192
-3.20463
-2.70086
-2.2865
-1.94357
-1.65803
-1.42853
-51.336
-40.0053
-32.3092
-26.5265
-21.6979
-17.7348
-14.5182
-11.9067
-9.78648
-8.06606
-6.66987
-5.53579
-4.61317
-3.86093
-3.24593
-2.74159
-2.32649
-1.98259
-1.69588
-1.46596
-51.4044
-40.071
-32.371
-26.5841
-21.7515
-17.7851
-14.5661
-11.953
-9.83185
-8.11086
-6.71436
-5.58009
-4.6573
-3.90482
-3.28946
-2.78461
-2.36884
-2.02402
-1.73618
-1.50592
-51.4772
-40.1403
-32.4356
-26.6437
-21.8068
-17.8371
-14.6156
-12.001
-9.87885
-8.15735
-6.76062
-5.62624
-4.70336
-3.95073
-3.33511
-2.82984
-2.41347
-2.0678
-1.7789
-1.54836
-51.5537
-40.2127
-32.5026
-26.7053
-21.8637
-17.8905
-14.6665
-12.0503
-9.92724
-8.20531
-6.80841
-5.67402
-4.75115
-3.99848
-3.38269
-2.8771
-2.46024
-2.11379
-1.82391
-1.5932
-51.6333
-40.2876
-32.5716
-26.7684
-21.9219
-17.9449
-14.7185
-12.1007
-9.97677
-8.25445
-6.85748
-5.72316
-4.80041
-4.04781
-3.43197
-2.92619
-2.50894
-2.16183
-1.87107
-1.64032
-51.7156
-40.3647
-32.6422
-26.8327
-21.9811
-18.0003
-14.7712
-12.1518
-10.0271
-8.30447
-6.90749
-5.77335
-4.85082
-4.09841
-3.48266
-2.97681
-2.55931
-2.21166
-1.92016
-1.68951
-51.8003
-40.4435
-32.7141
-26.8979
-22.0408
-18.056
-14.8244
-12.2034
-10.0779
-8.35498
-6.95808
-5.82419
-4.90199
-4.14989
-3.53436
-3.0286
-2.611
-2.26296
-1.97086
-1.74047
-51.8874
-40.5238
-32.7868
-26.9636
-22.1008
-18.1119
-14.8776
-12.255
-10.1287
-8.40557
-7.0088
-5.87524
-4.95347
-4.20179
-3.58662
-3.0811
-2.66355
-2.31529
-2.02274
-1.79281
-51.9769
-40.6052
-32.86
-27.0293
-22.1605
-18.1675
-14.9304
-12.3062
-10.1791
-8.45579
-7.05919
-5.92602
-5.00474
-4.25358
-3.63888
-3.13374
-2.71642
-2.36811
-2.07528
-1.84603
-52.0687
-40.6874
-32.9333
-27.0948
-22.2197
-18.2223
-14.9824
-12.3566
-10.2287
-8.50518
-7.10874
-5.97598
-5.05523
-4.30465
-3.69051
-3.18587
-2.76894
-2.42075
-2.12784
-1.89956
-52.1626
-40.7697
-33.0062
-27.1596
-22.278
-18.276
-15.0332
-12.4058
-10.2771
-8.55327
-7.15697
-6.02458
-5.10433
-4.35432
-3.74077
-3.23669
-2.82025
-2.47233
-2.17953
-1.95253
-52.2589
-40.8518
-33.0781
-27.2232
-22.335
-18.3282
-15.0825
-12.4533
-10.3237
-8.59964
-7.2034
-6.07129
-5.15146
-4.40193
-3.78889
-3.28532
-2.86937
-2.52179
-2.22917
-2.00335
-52.3618
-40.9352
-33.1488
-27.2851
-22.3899
-18.3783
-15.1295
-12.4987
-10.3683
-8.64384
-7.24759
-6.11565
-5.19607
-4.44684
-3.83414
-3.33097
-2.91547
-2.56822
-2.2755
-2.05024
-52.4805
-41.0234
-33.2179
-27.3437
-22.4415
-18.4253
-15.1737
-12.5414
-10.4102
-8.6855
-7.28916
-6.15721
-5.23764
-4.48843
-3.87576
-3.37274
-2.9575
-2.61031
-2.3171
-2.09368
-52.6162
-41.1158
-33.2843
-27.3982
-22.4897
-18.4694
-15.2154
-12.5816
-10.4498
-8.7247
-7.32813
-6.19592
-5.27601
-4.52631
-3.91303
-3.40927
-2.99299
-2.64425
-2.35042
-2.13397
-52.7281
-41.1991
-33.3472
-27.4506
-22.5366
-18.5126
-15.2561
-12.6209
-10.4881
-8.76248
-7.36543
-6.2327
-5.31206
-4.5613
-3.94655
-3.44057
-3.02068
-2.66757
-2.37272
-2.15683
-52.8906
-52.9335
-52.9532
-52.9743
-52.9962
-53.0133
-53.0235
-53.0265
-53.023
-53.0131
-52.9971
-52.9755
-52.9488
-52.9177
-52.8833
-52.8468
-52.8101
-52.7765
-52.7505
-52.7385
-41.2978
-41.3558
-41.4001
-41.4389
-41.4723
-41.4984
-41.5164
-41.5266
-41.5297
-41.5261
-41.5162
-41.5006
-41.4797
-41.4543
-41.4251
-41.3932
-41.3598
-41.3257
-41.2917
-41.2531
-33.3703
-33.4361
-33.4924
-33.5396
-33.5783
-33.6088
-33.6313
-33.6464
-33.6544
-33.6558
-33.6511
-33.6406
-33.625
-33.6047
-33.5804
-33.5525
-33.5215
-33.4874
-33.4491
-33.4039
-27.4268
-27.4928
-27.5507
-27.5993
-27.6389
-27.6706
-27.6948
-27.7119
-27.7223
-27.7264
-27.7245
-27.7171
-27.7047
-27.6877
-27.6665
-27.6413
-27.6124
-27.5797
-27.5426
-27.5006
-22.5007
-22.5632
-22.6186
-22.6656
-22.7041
-22.735
-22.7588
-22.7758
-22.7865
-22.7911
-22.79
-22.7836
-22.7724
-22.7568
-22.737
-22.7134
-22.686
-22.6552
-22.6204
-22.5818
-18.4907
-18.5489
-18.6005
-18.6445
-18.6805
-18.7092
-18.7312
-18.7466
-18.756
-18.7596
-18.7577
-18.7509
-18.7394
-18.7237
-18.7041
-18.6809
-18.6543
-18.6245
-18.5912
-18.5547
-15.264
-15.3178
-15.3654
-15.4056
-15.4384
-15.4642
-15.4834
-15.4965
-15.5037
-15.5053
-15.5018
-15.4935
-15.4808
-15.4641
-15.4438
-15.4201
-15.3934
-15.3639
-15.3314
-15.2961
-12.6674
-12.7169
-12.7602
-12.7965
-12.8257
-12.8483
-12.8645
-12.8748
-12.8794
-12.8786
-12.8729
-12.8626
-12.8481
-12.8299
-12.8083
-12.7836
-12.7562
-12.7264
-12.694
-12.6594
-10.5772
-10.6226
-10.6619
-10.6944
-10.72
-10.7393
-10.7524
-10.7597
-10.7615
-10.7582
-10.75
-10.7374
-10.7209
-10.7008
-10.6775
-10.6516
-10.6232
-10.5927
-10.5601
-10.5258
-8.89513
-8.9367
-8.97215
-9.001
-9.02328
-9.0393
-9.04937
-9.05376
-9.05278
-9.04675
-9.03607
-9.02113
-9.00237
-8.98024
-8.9552
-8.9277
-8.89811
-8.86682
-8.83385
-8.7995
-7.54085
-7.57883
-7.61071
-7.63613
-7.65517
-7.66813
-7.67526
-7.67683
-7.67314
-7.66452
-7.65136
-7.63406
-7.61307
-7.58887
-7.56197
-7.53285
-7.50197
-7.46979
-7.43635
-7.40196
-6.44884
-6.48345
-6.51201
-6.53423
-6.55025
-6.56031
-6.56466
-6.56357
-6.55732
-6.54624
-6.5307
-6.51112
-6.48797
-6.46173
-6.43295
-6.4022
-6.37001
-6.33689
-6.30302
-6.26868
-5.56609
-5.59756
-5.62303
-5.64229
-5.65549
-5.66287
-5.66465
-5.66108
-5.65244
-5.63906
-5.6213
-5.59958
-5.57436
-5.54615
-5.51555
-5.48318
-5.44967
-5.41564
-5.38141
-5.34726
-4.8499
-4.87846
-4.90107
-4.91761
-4.92823
-4.93314
-4.93256
-4.92673
-4.91592
-4.90043
-4.88064
-4.85693
-4.82978
-4.79972
-4.76736
-4.7334
-4.69857
-4.66366
-4.62914
-4.5954
-4.26605
-4.29192
-4.31192
-4.32598
-4.33425
-4.33693
-4.33422
-4.32635
-4.31358
-4.29622
-4.27459
-4.24909
-4.22017
-4.18837
-4.15432
-4.11879
-4.08262
-4.04681
-4.01206
-3.97905
-3.78725
-3.81065
-3.82827
-3.84007
-3.84622
-3.84689
-3.84228
-3.8326
-3.8181
-3.79906
-3.7758
-3.74868
-3.71816
-3.68474
-3.64907
-3.61196
-3.57436
-3.53752
-3.50247
-3.47053
-3.39184
-3.41298
-3.42844
-3.43822
-3.44246
-3.44133
-3.43502
-3.42373
-3.40768
-3.38715
-3.36243
-3.33385
-3.30184
-3.26687
-3.22958
-3.1908
-3.15157
-3.11344
-3.07769
-3.0469
-3.06254
-3.08176
-3.0954
-3.10348
-3.10613
-3.10351
-3.09579
-3.08316
-3.06585
-3.04408
-3.01813
-2.98831
-2.95499
-2.91863
-2.87979
-2.83931
-2.79827
-2.75858
-2.72174
-2.69195
-2.78572
-2.80349
-2.8158
-2.82267
-2.82423
-2.82063
-2.81204
-2.79863
-2.7806
-2.75819
-2.73162
-2.70119
-2.66722
-2.6301
-2.59036
-2.54873
-2.50627
-2.46525
-2.42761
-2.40133
-2.55217
-2.56762
-2.57784
-2.58286
-2.58279
-2.57778
-2.56799
-2.55357
-2.53471
-2.5116
-2.48448
-2.45357
-2.41915
-2.38154
-2.34113
-2.29852
-2.25452
-2.21111
-2.16996
-2.15035
-49.583
-49.7835
-49.9589
-50.149
-50.3515
-50.5561
-50.7577
-50.9547
-51.1465
-51.3324
-51.5113
-51.6826
-51.8456
-52.0001
-52.1461
-52.2838
-52.4139
-52.5378
-52.6581
-52.7782
-38.0297
-38.242
-38.4444
-38.6495
-38.8567
-39.0613
-39.2609
-39.455
-39.6431
-39.8248
-39.9995
-40.1667
-40.3261
-40.4773
-40.6203
-40.7551
-40.8821
-41.0013
-41.113
-41.2141
-30.2245
-30.4361
-30.644
-30.8481
-31.0486
-31.2448
-31.4359
-31.6216
-31.8017
-31.9755
-32.1426
-32.3026
-32.4553
-32.6002
-32.7373
-32.8663
-32.9871
-33.0993
-33.202
-33.2934
-24.4489
-24.6505
-24.8502
-25.0451
-25.235
-25.4205
-25.6013
-25.7771
-25.9474
-26.1118
-26.2698
-26.4211
-26.5653
-26.7022
-26.8315
-26.9529
-27.0662
-27.171
-27.2666
-27.3526
-19.6994
-19.8891
-20.0777
-20.2621
-20.4419
-20.6173
-20.7881
-20.9539
-21.1144
-21.2692
-21.4178
-21.56
-21.6953
-21.8236
-21.9446
-22.058
-22.1637
-22.2613
-22.3503
-22.4307
-15.8553
-16.0346
-16.213
-16.388
-16.5585
-16.7247
-16.8863
-17.043
-17.1944
-17.3401
-17.48
-17.6135
-17.7404
-17.8605
-17.9736
-18.0795
-18.1778
-18.2684
-18.3511
-18.4257
-12.7763
-12.947
-13.1168
-13.2835
-13.4459
-13.604
-13.7575
-13.9062
-14.0495
-14.1873
-14.3194
-14.4452
-14.5646
-14.6773
-14.7833
-14.8822
-14.9738
-15.0581
-15.1348
-15.2039
-10.3082
-10.472
-10.6347
-10.7942
-10.9497
-11.1008
-11.2474
-11.3891
-11.5255
-11.6564
-11.7816
-11.9007
-12.0135
-12.1198
-12.2194
-12.3121
-12.3979
-12.4765
-12.5477
-12.6117
-8.33042
-8.48845
-8.64514
-8.79866
-8.94817
-9.09335
-9.23394
-9.36961
-9.49998
-9.62483
-9.74403
-9.85724
-9.96418
-10.0647
-10.1588
-10.2461
-10.3265
-10.4
-10.4663
-10.5257
-6.74817
-6.90134
-7.05294
-7.20131
-7.34564
-7.48558
-7.62084
-7.75114
-7.87613
-7.99563
-8.10946
-8.21738
-8.31914
-8.41458
-8.50357
-8.58596
-8.66162
-8.7305
-8.79242
-8.84758
-5.48446
-5.63338
-5.78057
-5.92439
-6.06405
-6.19922
-6.32962
-6.455
-6.5751
-6.68969
-6.79862
-6.90173
-6.99877
-7.08954
-7.17394
-7.25187
-7.32318
-7.38784
-7.4457
-7.49694
-4.47639
-4.62148
-4.76475
-4.90442
-5.03973
-5.17041
-5.29624
-5.41701
-5.5325
-5.64251
-5.7469
-5.84553
-5.93816
-6.02461
-6.10479
-6.17858
-6.24587
-6.30662
-6.36072
-6.40833
-3.67262
-3.81422
-3.95395
-4.08973
-4.22085
-4.3472
-4.46863
-4.58497
-4.69607
-4.80174
-4.90184
-4.99624
-5.08474
-5.16715
-5.24336
-5.31329
-5.37683
-5.43395
-5.48454
-5.52875
-3.03126
-3.16972
-3.30628
-3.43831
-3.56532
-3.68742
-3.80457
-3.91664
-4.02351
-4.12504
-4.22105
-4.31145
-4.39604
-4.47463
-4.54712
-4.61342
-4.67345
-4.72716
-4.77447
-4.81553
-2.51829
-2.65412
-2.78791
-2.91626
-3.03919
-3.15712
-3.27009
-3.37801
-3.48082
-3.57837
-3.6705
-3.75709
-3.83797
-3.91295
-3.98191
-4.0448
-4.10153
-4.15205
-4.19631
-4.23443
-2.10626
-2.24054
-2.37204
-2.49668
-2.61552
-2.72935
-2.83822
-2.94212
-3.041
-3.13473
-3.22312
-3.30607
-3.3834
-3.45493
-3.52057
-3.58023
-3.63384
-3.68138
-3.72279
-3.75818
-1.7719
-1.90711
-2.03713
-2.15792
-2.27262
-2.38241
-2.48727
-2.58725
-2.68234
-2.77238
-2.8572
-2.93666
-3.01061
-3.07889
-3.14137
-3.198
-3.24871
-3.29347
-3.33224
-3.36511
-1.49213
-1.63213
-1.76255
-1.87976
-1.99049
-2.09643
-2.19754
-2.2939
-2.38549
-2.47217
-2.55376
-2.63008
-2.70101
-2.76639
-2.8261
-2.88006
-2.92824
-2.97059
-3.00709
-3.0378
-1.2505
-1.39934
-1.5324
-1.64706
-1.75432
-1.85673
-1.95444
-2.04755
-2.13606
-2.21978
-2.29853
-2.37213
-2.44045
-2.50334
-2.56068
-2.61241
-2.65848
-2.69886
-2.73352
-2.76252
-1.08965
-1.24674
-1.37443
-1.48346
-1.58527
-1.68215
-1.77462
-1.86281
-1.94657
-2.0257
-2.09997
-2.16924
-2.23337
-2.29223
-2.34573
-2.39381
-2.43644
-2.47359
-2.50526
-2.53148
1.01875
0.904203
0.746196
0.539128
0.268374
-0.0845611
-0.541659
-1.12954
-1.88045
-2.83335
-4.03549
-5.54437
-7.4304
-9.78059
-12.7072
-16.356
-20.8623
-26.3494
-33.8358
-45.1004
0.942498
0.825039
0.665348
0.456586
0.18424
-0.170041
-0.628243
-1.21705
-1.96881
-2.92264
-4.12595
-5.63648
-7.52489
-9.87846
-12.8099
-16.4653
-20.9805
-26.477
-33.9692
-45.2325
0.86142
0.740855
0.57933
0.368684
0.0945268
-0.261335
-0.720894
-1.3109
-2.0638
-3.01886
-4.22367
-5.73622
-7.62741
-9.98484
-12.9215
-16.5839
-21.1081
-26.6137
-34.109
-45.3626
0.775819
0.651963
0.488471
0.27577
-0.000387661
-0.358029
-0.819148
-1.41056
-2.1648
-3.1213
-4.32784
-5.84263
-7.73686
-10.0984
-13.0405
-16.7101
-21.2434
-26.7594
-34.2621
-45.5137
0.68594
0.558614
0.393016
0.178087
-0.100263
-0.459881
-0.922761
-1.51577
-2.27156
-3.22969
-4.43813
-5.95535
-7.8528
-10.2187
-13.1665
-16.8436
-21.3864
-26.9141
-34.4283
-45.6844
0.592024
0.461061
0.293222
0.0758851
-0.204854
-0.566652
-1.0315
-1.62632
-2.38386
-3.34382
-4.55437
-6.07423
-7.97513
-10.3456
-13.2995
-16.9845
-21.5373
-27.0775
-34.6048
-45.8687
0.494305
0.359556
0.189344
-0.0305749
-0.313896
-0.678073
-1.14509
-1.74194
-2.50144
-3.46345
-4.67633
-6.19905
-8.10366
-10.479
-13.4394
-17.1328
-21.6962
-27.2492
-34.7902
-46.0634
0.392996
0.254332
0.0816304
-0.14104
-0.427126
-0.79387
-1.26326
-1.86233
-2.624
-3.58826
-4.80369
-6.32952
-8.2381
-10.6187
-13.5859
-17.2881
-21.8625
-27.4288
-34.984
-46.2677
0.288281
0.145603
-0.0296905
-0.255266
-0.544285
-0.913768
-1.3857
-1.98718
-2.75121
-3.71792
-4.93611
-6.46527
-8.37808
-10.7642
-13.7386
-17.45
-22.0359
-27.6159
-35.1858
-46.481
0.18031
0.0335559
-0.144404
-0.373017
-0.665114
-1.03748
-1.51212
-2.11617
-2.88273
-3.85208
-5.07323
-6.60593
-8.5232
-10.9151
-13.897
-17.618
-22.2159
-27.8101
-35.3952
-46.7024
0.0692062
-0.0816325
-0.262294
-0.494047
-0.789337
-1.16472
-1.64219
-2.24896
-3.01821
-3.99036
-5.21465
-6.75108
-8.67305
-11.0709
-14.0607
-17.7917
-22.402
-28.0108
-35.6115
-46.9312
-0.0449551
-0.199811
-0.383152
-0.618097
-0.916653
-1.29513
-1.77554
-2.38514
-3.15722
-4.13233
-5.35991
-6.90028
-8.82716
-11.2314
-14.2292
-17.9706
-22.5937
-28.2175
-35.834
-47.1666
-0.162107
-0.32082
-0.506742
-0.744872
-1.04671
-1.42832
-1.91174
-2.52428
-3.29929
-4.2775
-5.50855
-7.05303
-8.98502
-11.3958
-14.402
-18.1541
-22.7904
-28.4296
-36.0623
-47.4081
-0.282112
-0.44438
-0.6327
-0.873956
-1.17906
-1.56381
-2.05027
-2.66583
-3.4439
-4.42535
-5.66001
-7.20877
-9.14607
-11.5636
-14.5785
-18.3416
-22.9916
-28.6466
-36.2959
-47.655
-0.404723
-0.57005
-0.760488
-1.00476
-1.31308
-1.70099
-2.19057
-2.80922
-3.59047
-4.57528
-5.81371
-7.36693
-9.30972
-11.7342
-14.7581
-18.5325
-23.1965
-28.8679
-36.5344
-47.9071
-0.529404
-0.697061
-0.889267
-1.13644
-1.44798
-1.83911
-2.33191
-2.95381
-3.73837
-4.72669
-5.96905
-7.52689
-9.47538
-11.907
-14.94
-18.7261
-23.4045
-29.093
-36.7775
-48.1645
-0.655016
-0.824006
-1.01773
-1.26787
-1.58277
-1.97728
-2.47348
-3.09883
-3.88692
-4.87894
-6.12537
-7.68797
-9.64228
-12.0812
-15.1236
-18.9215
-23.6147
-29.3212
-37.0254
-48.4278
-0.778998
-0.948245
-1.14379
-1.39756
-1.71635
-2.11464
-2.61458
-3.24365
-4.03549
-5.03144
-6.28213
-7.84962
-9.80983
-12.2563
-15.3081
-19.1179
-23.8261
-29.5514
-37.2777
-48.699
-0.895748
-1.0657
-1.26531
-1.52433
-1.84789
-2.25053
-2.75461
-3.3877
-4.18351
-5.18351
-6.43859
-8.01107
-9.97724
-12.4311
-15.4923
-19.314
-24.0369
-29.7815
-37.5341
-48.9817
-0.990804
-1.16585
-1.37944
-1.64787
-1.97738
-2.38495
-2.8936
-3.53095
-4.33086
-5.335
-6.5945
-8.17201
-10.1442
-12.6053
-15.6758
-19.5091
-24.246
-30.0079
-37.7888
-49.2808
1.46955
1.39398
1.24833
1.04258
0.765672
0.399675
-0.0767128
-0.688791
-1.46716
-2.44903
-3.67981
-5.21509
-7.123
-9.48753
-12.4166
-16.0493
-20.5109
-25.9148
-33.2854
-44.45
1.45084
1.37524
1.23301
1.03452
0.76532
0.406534
-0.0628821
-0.668117
-1.43979
-2.41513
-3.63948
-5.16838
-7.06988
-9.42789
-12.3504
-15.9767
-20.4323
-25.8286
-33.1855
-44.3296
1.45984
1.37674
1.23394
1.03719
0.770652
0.415303
-0.0499742
-0.650551
-1.41724
-2.38738
-3.60643
-5.12993
-7.02592
-9.37828
-12.2949
-15.9153
-20.3652
-25.7539
-33.093
-44.2034
1.4701
1.38376
1.24053
1.04411
0.778653
0.425175
-0.0375131
-0.634901
-1.39792
-2.36403
-3.57875
-5.0977
-6.98893
-9.33633
-12.2477
-15.8627
-20.3074
-25.6907
-33.0199
-44.1099
1.48018
1.39204
1.24815
1.05165
0.786774
0.434513
-0.0263905
-0.621475
-1.38172
-2.34465
-3.55585
-5.07099
-6.95815
-9.30124
-12.2081
-15.8185
-20.2588
-25.6393
-32.9657
-44.047
1.4893
1.3995
1.25481
1.05806
0.793508
0.442078
-0.0175361
-0.610901
-1.36902
-2.32945
-3.53782
-5.04982
-6.93365
-9.27321
-12.1764
-15.7831
-20.2203
-25.5997
-32.9265
-44.0048
1.49561
1.40432
1.25892
1.06191
0.797569
0.446774
-0.011835
-0.603849
-1.36031
-2.31877
-3.52491
-5.03446
-6.91561
-9.25237
-12.1528
-15.7568
-20.1922
-25.5715
-32.9002
-43.9787
1.49786
1.40532
1.2593
1.06205
0.797866
0.447602
-0.0101628
-0.601072
-1.35617
-2.31307
-3.51743
-5.02504
-6.9041
-9.23874
-12.1372
-15.7396
-20.1743
-25.5547
-32.8866
-43.9677
1.49539
1.4017
1.2551
1.05759
0.793522
0.443723
-0.0133039
-0.603252
-1.3572
-2.31279
-3.51571
-5.02177
-6.89929
-9.23247
-12.1297
-15.7315
-20.1666
-25.5493
-32.8858
-43.9713
1.48772
1.39292
1.24574
1.04795
0.783945
0.434547
-0.0218148
-0.610892
-1.36384
-2.31832
-3.52009
-5.02501
-6.90145
-9.23375
-12.1305
-15.7325
-20.1691
-25.5552
-32.8976
-43.9891
1.47455
1.37861
1.23084
1.03272
0.768723
0.419649
-0.036127
-0.624443
-1.37652
-2.33008
-3.53095
-5.03505
-6.91084
-9.24278
-12.1397
-15.7428
-20.1818
-25.5724
-32.9218
-44.0204
1.45562
1.35848
1.21009
1.01157
0.747493
0.398651
-0.056641
-0.644301
-1.39563
-2.34844
-3.54862
-5.05218
-6.92768
-9.25976
-12.1575
-15.7624
-20.2047
-25.6009
-32.9583
-44.065
1.43076
1.33233
1.18325
0.984257
0.719989
0.37127
-0.0836449
-0.670755
-1.42145
-2.37365
-3.57334
-5.07662
-6.95218
-9.28483
-12.1839
-15.7913
-20.238
-25.6407
-33.0069
-44.1224
1.39987
1.30003
1.15019
0.950622
0.686051
0.337336
-0.117319
-0.703998
-1.4542
-2.40593
-3.6053
-5.10854
-6.98448
-9.31814
-12.2191
-15.8298
-20.2815
-25.6917
-33.0678
-44.1928
1.36293
1.26152
1.11084
0.910594
0.645595
0.296751
-0.157776
-0.744154
-1.49398
-2.4454
-3.64464
-5.14807
-7.02469
-9.35975
-12.2631
-15.8777
-20.3354
-25.7541
-33.141
-44.2763
1.31995
1.21682
1.0652
0.86416
0.598594
0.249478
-0.205065
-0.791287
-1.54089
-2.49215
-3.69144
-5.19528
-7.07287
-9.4097
-12.316
-15.9351
-20.3996
-25.8279
-33.2268
-44.3731
1.27101
1.16599
1.01332
0.81136
0.545081
0.195539
-0.259175
-0.84539
-1.59493
-2.54619
-3.74569
-5.25016
-7.12899
-9.46796
-12.3777
-16.0019
-20.4739
-25.913
-33.3255
-44.484
1.21624
1.10912
0.955303
0.752282
0.485131
0.134997
-0.320054
-0.906431
-1.65606
-2.60749
-3.80741
-5.31271
-7.19305
-9.53449
-12.448
-16.0779
-20.5581
-26.0091
-33.4373
-44.6105
1.15579
1.0464
0.891302
0.68708
0.418897
0.0680042
-0.387553
-0.974257
-1.72415
-2.6759
-3.8764
-5.38274
-7.2648
-9.60898
-12.5266
-16.1626
-20.6515
-26.1153
-33.5622
-44.755
1.08983
0.977935
0.821429
0.615843
0.346442
-0.005402
-0.46166
-1.04889
-1.79922
-2.7515
-3.95277
-5.46033
-7.34435
-9.69151
-12.6136
-16.256
-20.7537
-26.2299
-33.6974
-44.9208
1.57641
1.61125
1.57045
1.50241
1.41611
1.31683
1.20767
1.09064
0.967205
0.838548
0.705608
0.569154
0.429868
0.288397
0.145343
0.00129971
-0.143108
-0.287192
-0.430176
-0.571235
1.43645
1.46206
1.43289
1.37275
1.29107
1.19427
1.08606
0.968895
0.844556
0.714392
0.579488
0.440708
0.298815
0.154534
0.00852529
-0.138555
-0.286024
-0.433133
-0.579041
-0.722877
1.27777
1.28613
1.25635
1.19855
1.11898
1.02328
0.9152
0.797385
0.671763
0.539827
0.402756
0.261493
0.116887
-0.0302829
-0.179301
-0.329456
-0.48001
-0.630162
-0.779019
-0.925685
1.05776
1.05445
1.02207
0.964625
0.886197
0.791264
0.683256
0.564806
0.437933
0.304239
0.16498
0.0211921
-0.126181
-0.276301
-0.428389
-0.58167
-0.735348
-0.888561
-1.04037
-1.18985
0.767214
0.75419
0.71792
0.659293
0.580836
0.48594
0.377577
0.258231
0.129934
-0.00567063
-0.147257
-0.293691
-0.443958
-0.597147
-0.752413
-0.908912
-1.06579
-1.22211
-1.37689
-1.52921
0.390075
0.368066
0.326766
0.265611
0.185957
0.0902569
-0.019024
-0.139625
-0.26959
-0.407276
-0.551315
-0.700499
-0.853741
-1.01007
-1.16857
-1.32832
-1.48841
-1.64785
-1.80559
-1.96072
-0.0957541
-0.126051
-0.172983
-0.237638
-0.319455
-0.416727
-0.527475
-0.649701
-0.781567
-0.921501
-1.0681
-1.2201
-1.37636
-1.53585
-1.69759
-1.86059
-2.02388
-2.1864
-2.34706
-2.50497
-0.716287
-0.754279
-0.807097
-0.875914
-0.960659
-1.06018
-1.17292
-1.29713
-1.43117
-1.57353
-1.72279
-1.87767
-2.037
-2.19968
-2.36466
-2.53091
-2.69737
-2.86293
-3.02648
-3.18714
-1.50246
-1.54771
-1.60652
-1.67997
-1.76825
-1.87062
-1.98584
-2.11244
-2.24895
-2.39395
-2.54602
-2.7039
-2.86637
-3.03229
-3.20056
-3.37008
-3.53974
-3.70835
-3.87478
-4.03822
-2.4917
-2.5439
-2.60876
-2.68718
-2.77952
-2.88527
-3.00347
-3.13288
-3.27222
-3.42014
-3.57524
-3.7363
-3.90206
-4.07136
-4.24303
-4.41594
-4.58889
-4.76064
-4.93005
-5.09637
-3.72956
-3.78851
-3.85949
-3.94318
-4.04003
-4.14968
-4.27137
-4.40409
-4.54671
-4.69791
-4.85639
-5.02092
-5.19026
-5.36319
-5.53851
-5.71503
-5.8915
-6.06661
-6.23921
-6.40866
-5.2718
-5.33741
-5.41459
-5.50385
-5.60566
-5.71973
-5.8455
-5.98212
-6.12853
-6.28353
-6.44588
-6.61436
-6.78771
-6.9647
-7.14409
-7.32465
-7.50504
-7.68389
-7.86008
-8.03307
-7.18666
-7.25894
-7.34248
-7.43761
-7.54484
-7.6639
-7.79439
-7.93561
-8.08651
-8.24598
-8.41287
-8.58597
-8.76399
-8.9457
-9.12982
-9.31505
-9.50001
-9.68323
-9.86361
-10.0408
-9.55822
-9.63722
-9.72725
-9.82859
-9.9417
-10.0664
-10.2024
-10.349
-10.5052
-10.67
-10.8424
-11.021
-11.2046
-11.392
-11.5817
-11.7726
-11.9631
-12.1516
-12.3371
-12.5193
-12.4943
-12.58
-12.6766
-12.7844
-12.9039
-13.0349
-13.1772
-13.3301
-13.4926
-13.6639
-13.8429
-14.0282
-14.2186
-14.4129
-14.6096
-14.8074
-15.0047
-15.1998
-15.3916
-15.5801
-16.1337
-16.2258
-16.3289
-16.4432
-16.5694
-16.7073
-16.8567
-17.0168
-17.1869
-17.3659
-17.5529
-17.7463
-17.945
-18.1478
-18.3531
-18.5595
-18.7655
-18.969
-19.1688
-19.3648
-20.6016
-20.6995
-20.8083
-20.9284
-21.0609
-21.2057
-21.3625
-21.5306
-21.7093
-21.8972
-22.0935
-22.2966
-22.5054
-22.7184
-22.9342
-23.1512
-23.3678
-23.5819
-23.7917
-23.9972
-26.0108
-26.1114
-26.2219
-26.3452
-26.4822
-26.633
-26.7969
-26.9732
-27.1608
-27.3585
-27.5651
-27.7792
-27.9994
-28.2242
-28.4521
-28.6813
-28.9105
-29.1381
-29.362
-29.5806
-33.3738
-33.4642
-33.5678
-33.6892
-33.8279
-33.9829
-34.1528
-34.3365
-34.5326
-34.7398
-34.9568
-35.1822
-35.4145
-35.6522
-35.8935
-36.1368
-36.3815
-36.6283
-36.8754
-37.1139
-44.4886
-44.5471
-44.6378
-44.7548
-44.8936
-45.051
-45.2251
-45.4143
-45.617
-45.832
-46.0578
-46.2931
-46.5365
-46.7867
-47.0419
-47.3009
-47.5645
-47.8366
-48.1164
-48.379
-0.709486
-0.843384
-0.971804
-1.09319
-1.2059
-1.30821
-1.39842
-1.47494
-1.53643
-1.58196
-1.6111
-1.62407
-1.62171
-1.60556
-1.57766
-1.54013
-1.49478
-1.44125
-1.36442
-1.23932
-0.86375
-0.999986
-1.13049
-1.25366
-1.3679
-1.4715
-1.56282
-1.64036
-1.70286
-1.74949
-1.77991
-1.79436
-1.79371
-1.7794
-1.75321
-1.71714
-1.67348
-1.6212
-1.54511
-1.44236
-1.06926
-1.20798
-1.34079
-1.46609
-1.58233
-1.68788
-1.78119
-1.86086
-1.92576
-1.97515
-2.00876
-2.02688
-2.03035
-2.02052
-1.99902
-1.96772
-1.92897
-1.88263
-1.82002
-1.74385
-1.3361
-1.47727
-1.61232
-1.7397
-1.85788
-1.96531
-2.06054
-2.14227
-2.20947
-2.26149
-2.29814
-2.31971
-2.32703
-2.32136
-2.30422
-2.27737
-2.2428
-2.20074
-2.14767
-2.08909
-1.67813
-1.82172
-1.959
-2.08841
-2.20849
-2.31776
-2.41486
-2.49858
-2.56801
-2.62256
-2.66209
-2.68693
-2.69785
-2.69603
-2.68288
-2.66008
-2.62933
-2.59111
-2.5449
-2.49713
-2.1123
-2.25829
-2.39777
-2.52919
-2.65117
-2.76229
-2.86128
-2.94702
-3.01869
-3.07578
-3.11819
-3.14624
-3.16068
-3.16258
-3.15329
-3.13439
-3.10745
-3.07332
-3.03306
-2.99257
-2.65918
-2.80753
-2.94917
-3.08259
-3.20646
-3.31944
-3.42033
-3.50811
-3.58204
-3.64166
-3.68692
-3.71813
-3.73599
-3.74152
-3.73599
-3.72092
-3.69783
-3.66795
-3.63309
-3.59823
-3.34396
-3.49466
-3.63847
-3.77389
-3.89966
-4.01451
-4.11734
-4.20719
-4.28339
-4.34556
-4.39365
-4.42798
-4.44921
-4.45832
-4.45652
-4.4453
-4.42616
-4.40054
-4.37064
-4.34058
-4.19769
-4.35077
-4.49679
-4.63426
-4.762
-4.87881
-4.98364
-5.07565
-5.1542
-5.21897
-5.26995
-5.30745
-5.3321
-5.34485
-5.34688
-5.33962
-5.32452
-5.30321
-5.27793
-5.25215
-5.25863
-5.41421
-5.56256
-5.70223
-5.83209
-5.95101
-6.05802
-6.15234
-6.23341
-6.30095
-6.35496
-6.39577
-6.424
-6.44055
-6.44658
-6.44341
-6.43256
-6.41561
-6.39469
-6.37295
-6.57395
-6.73229
-6.88322
-7.02533
-7.15757
-7.27886
-7.38833
-7.48523
-7.56908
-7.63964
-7.69695
-7.74133
-7.77338
-7.79397
-7.80419
-7.80539
-7.79898
-7.78641
-7.76977
-7.752
-8.20182
-8.36331
-8.51721
-8.66214
-8.79715
-8.92121
-9.03351
-9.13338
-9.22039
-9.29434
-9.35529
-9.40357
-9.43976
-9.46467
-9.47942
-9.48528
-9.48347
-9.47541
-9.46305
-9.4493
-10.2136
-10.3788
-10.5362
-10.6845
-10.8228
-10.9502
-11.0658
-11.1691
-11.2598
-11.3376
-11.4026
-11.4552
-11.4959
-11.5255
-11.5452
-11.556
-11.559
-11.5556
-11.5476
-11.5381
-12.6971
-12.8667
-13.0284
-13.1807
-13.323
-13.4542
-13.5738
-13.6812
-13.7761
-13.8582
-13.9278
-13.9852
-14.0309
-14.0657
-14.0905
-14.1066
-14.1149
-14.1164
-14.113
-14.1078
-15.7638
-15.9389
-16.1056
-16.2628
-16.4098
-16.5457
-16.67
-16.7821
-16.8818
-16.9689
-17.0437
-17.1063
-17.1574
-17.1977
-17.2282
-17.25
-17.2639
-17.2707
-17.2721
-17.2715
-19.5557
-19.7372
-19.9101
-20.0731
-20.2257
-20.3671
-20.4969
-20.6144
-20.7196
-20.8123
-20.8927
-20.9611
-21.0181
-21.0644
-21.101
-21.1289
-21.149
-21.1616
-21.1681
-21.1719
-24.197
-24.3864
-24.5664
-24.7361
-24.8951
-25.043
-25.1791
-25.303
-25.4145
-25.5134
-25.6001
-25.6748
-25.7381
-25.7908
-25.8339
-25.8683
-25.8948
-25.9137
-25.9255
-25.9337
-29.7913
-29.9892
-30.1763
-30.353
-30.5193
-30.6744
-30.8178
-30.9489
-31.0674
-31.1733
-31.2667
-31.3481
-31.4181
-31.4773
-31.5267
-31.5672
-31.6001
-31.6265
-31.6469
-31.6621
-37.3305
-37.5319
-37.7234
-37.9066
-38.0803
-38.2434
-38.3947
-38.5336
-38.6595
-38.7723
-38.8724
-38.9602
-39.0365
-39.1021
-39.1577
-39.2044
-39.2454
-39.2857
-39.3265
-39.3562
-48.5768
-48.7691
-48.9618
-49.1502
-49.3307
-49.5008
-49.6588
-49.804
-49.9359
-50.0544
-50.1598
-50.2529
-50.3349
-50.407
-50.4702
-50.5266
-50.5818
-50.6468
-50.7244
-50.7761
-50.726
-39.3564
-31.6712
-25.9396
-21.1742
-17.2701
-14.1023
-11.5286
-9.43606
-7.73523
-6.35286
-5.2289
-4.31431
-3.56911
-2.96073
-2.46243
-2.05117
-1.70749
-1.4224
-1.19346
-50.6784
-39.3423
-31.6698
-25.9389
-21.1714
-17.2647
-14.094
-11.5173
-9.42187
-7.71845
-6.33377
-5.20777
-4.29149
-3.54506
-2.93611
-2.43813
-2.02909
-1.69317
-1.42523
-1.20779
-50.6467
-39.326
-31.6642
-25.9359
-21.1673
-17.2586
-14.0856
-11.5066
-9.40899
-7.70364
-6.31731
-5.18999
-4.27273
-3.52574
-2.91669
-2.41919
-2.01156
-1.67836
-1.41327
-1.19649
-50.6264
-39.3134
-31.6582
-25.9321
-21.163
-17.2527
-14.0779
-11.497
-9.39774
-7.69099
-6.30356
-5.17543
-4.25767
-3.51048
-2.90158
-2.40459
-1.99795
-1.66596
-1.40073
-1.18179
-50.6139
-39.3051
-31.6538
-25.9293
-21.1597
-17.2481
-14.0716
-11.4892
-9.38873
-7.68096
-6.29277
-5.16413
-4.24607
-3.49879
-2.88994
-2.39314
-1.98683
-1.655
-1.38867
-1.16802
-50.6072
-39.3012
-31.6521
-25.9283
-21.1581
-17.2452
-14.0674
-11.4837
-9.3822
-7.67368
-6.28497
-5.156
-4.23778
-3.49043
-2.88157
-2.3848
-1.97854
-1.64654
-1.37903
-1.15718
-50.6056
-39.3015
-31.6537
-25.9299
-21.1588
-17.2446
-14.0655
-11.4808
-9.3784
-7.66929
-6.2802
-5.15103
-4.23269
-3.48529
-2.87638
-2.37955
-1.97323
-1.64099
-1.37242
-1.14979
-50.6087
-39.306
-31.6588
-25.9345
-21.1623
-17.2467
-14.0663
-11.4805
-9.37743
-7.66784
-6.27847
-5.14915
-4.23075
-3.4833
-2.87432
-2.37741
-1.97101
-1.63855
-1.36907
-1.14595
-50.6166
-39.3149
-31.6678
-25.9425
-21.1688
-17.2517
-14.07
-11.4832
-9.37939
-7.66937
-6.27977
-5.15034
-4.23188
-3.48438
-2.87534
-2.37834
-1.97185
-1.63919
-1.36891
-1.14545
-50.6294
-39.3281
-31.6806
-25.954
-21.1786
-17.2598
-14.0766
-11.4888
-9.38431
-7.67387
-6.28406
-5.15452
-4.23602
-3.48847
-2.87935
-2.38224
-1.97564
-1.64277
-1.37175
-1.14803
-50.6473
-39.3459
-31.6976
-25.9692
-21.1917
-17.271
-14.0863
-11.4974
-9.39219
-7.68132
-6.29128
-5.16164
-4.24308
-3.49546
-2.88624
-2.38898
-1.98224
-1.64911
-1.37736
-1.1534
-50.6705
-39.3684
-31.7187
-25.9882
-21.2083
-17.2855
-14.0991
-11.509
-9.403
-7.69168
-6.30139
-5.17162
-4.25296
-3.50525
-2.89588
-2.39844
-1.9915
-1.65804
-1.38553
-1.16134
-50.6995
-39.3958
-31.7442
-26.0109
-21.2283
-17.3031
-14.115
-11.5236
-9.41672
-7.70489
-6.31431
-5.18437
-4.26559
-3.51773
-2.90817
-2.41049
-2.00327
-1.66942
-1.3961
-1.17163
-50.7346
-39.4281
-31.7739
-26.0375
-21.2518
-17.324
-14.1339
-11.541
-9.43328
-7.72088
-6.32998
-5.19983
-4.28087
-3.53282
-2.92301
-2.42502
-2.01745
-1.68311
-1.40892
-1.18414
-50.7756
-39.4652
-31.8078
-26.068
-21.2787
-17.348
-14.1557
-11.5614
-9.45263
-7.73961
-6.34832
-5.21791
-4.29874
-3.55044
-2.94032
-2.44195
-2.03396
-1.69904
-1.42393
-1.19878
-50.8232
-39.507
-31.8458
-26.1021
-21.309
-17.3751
-14.1805
-11.5845
-9.4747
-7.761
-6.36928
-5.23858
-4.31914
-3.57054
-2.96006
-2.46125
-2.05274
-1.71717
-1.44105
-1.2155
-50.8799
-39.5546
-31.8878
-26.1397
-21.3424
-17.405
-14.2079
-11.6103
-9.49934
-7.78494
-6.39278
-5.26175
-4.34201
-3.59308
-2.98218
-2.48287
-2.07377
-1.73746
-1.46028
-1.23428
-50.9514
-39.6102
-31.9338
-26.1799
-21.3781
-17.4373
-14.2377
-11.6384
-9.52634
-7.81127
-6.41867
-5.28732
-4.36727
-3.61799
-3.00664
-2.50678
-2.09705
-1.75992
-1.48164
-1.25517
-51.0384
-39.6736
-31.9831
-26.2224
-21.4162
-17.472
-14.2699
-11.6689
-9.55579
-7.84003
-6.44698
-5.31529
-4.39492
-3.64525
-3.03343
-2.53299
-2.12258
-1.78458
-1.50516
-1.27819
-51.1171
-39.7372
-32.0356
-26.2684
-21.458
-17.5104
-14.3057
-11.7028
-9.5884
-7.8718
-6.47817
-5.34603
-4.42524
-3.67512
-3.06275
-2.56167
-2.1505
-1.81158
-1.53096
-1.30349
-0.77492
-0.410291
-0.25384
-0.158071
-0.104029
-0.0625449
-0.03263
-0.0111513
0.00255879
0.0100823
0.0132871
0.0138238
0.0129382
0.0114174
0.00971692
0.00807111
0.00658695
0.00530079
0.00421424
0.00331309
0.00257721
0.00198423
0.00151223
0.00114097
0.000852427
0.000630598
0.00046163
0.00033412
0.00023916
0.00016941
0.000118784
8.26989e-05
5.73063e-05
4.00941e-05
2.75391e-05
1.89442e-05
1.13145e-05
8.1678e-06
2.56944e-06
5.50583e-06
-0.810424
-0.423402
-0.264224
-0.160473
-0.104406
-0.0614363
-0.0316932
-0.0105926
0.00262968
0.00980506
0.0127742
0.0131739
0.0122171
0.0106711
0.00897599
0.00735574
0.00591014
0.00467068
0.00363437
0.00278529
0.00210117
0.00155844
0.00113401
0.000807646
0.000560092
0.000376896
0.000241635
0.000145841
7.83995e-05