/*--------------------------------*- C++ -*----------------------------------*\
| =========                 |                                                 |
| \\      /  F ield         | OpenFOAM: The Open Source CFD Toolbox           |
|  \\    /   O peration     | Version:  v1912                                 |
|   \\  /    A nd           | Website:  www.openfoam.com                      |
|    \\/     M anipulation  |                                                 |
\*---------------------------------------------------------------------------*/
FoamFile
{
    version     2.0;
    format      ascii;
    class       surfaceScalarField;
    location    "29";
    object      phi;
}
// * * * * * * * * * * * * * * * * * * * * * * * * * * * * * * * * * * * * * //

dimensions      [0 3 -1 0 0 0 0];
oriented        oriented;


internalField   nonuniform List<scalar> 
18940
(
0.000352668
-0.234461
0.234108
0.00135903
-0.216492
0.215486
0.00284229
-0.204959
0.203475
0.00463393
-0.197141
0.19535
0.00660488
-0.191334
0.189363
0.0086548
-0.186482
0.184432
0.0107109
-0.182002
0.179946
0.0127245
-0.177602
0.175589
0.0146658
-0.173161
0.171219
0.0165198
-0.168649
0.166795
0.0182818
-0.164087
0.162325
0.0199542
-0.159518
0.157845
0.021544
-0.154988
0.153398
0.0230609
-0.150541
0.149024
0.024516
-0.146212
0.144757
0.0259208
-0.142026
0.140621
0.0272868
-0.137993
0.136627
0.0286242
-0.134112
0.132775
0.0299415
-0.130363
0.129046
-0.126706
0.125404
0.0312437
0.00037598
-0.234837
0.00140217
-0.217519
0.00289613
-0.206453
0.00469229
-0.198937
0.00665812
-0.1933
0.00869332
-0.188517
0.0107264
-0.184035
0.01271
-0.179586
0.0146165
-0.175067
0.0164324
-0.170464
0.0181547
-0.165809
0.019787
-0.16115
0.0213374
-0.156538
0.0228162
-0.15202
0.0242348
-0.147631
0.0256053
-0.143396
0.0269391
-0.139327
0.028247
-0.13542
0.0295379
-0.131654
-0.127986
0.0308175
0.000397316
-0.235234
0.00143968
-0.218561
0.00294243
-0.207955
0.00473942
-0.200734
0.00669654
-0.195257
0.00871343
-0.190534
0.0107198
-0.186041
0.0126701
-0.181536
0.0145386
-0.176936
0.0163137
-0.172239
0.0179938
-0.167489
0.019584
-0.16274
0.0210931
-0.158047
0.0225321
-0.153459
0.023913
-0.149012
0.0252476
-0.144731
0.026548
-0.140627
0.0278251
-0.136697
0.0290883
-0.132917
-0.129241
0.0303441
0.000411112
-0.235646
0.0014685
-0.219618
0.00297927
-0.209466
0.00477457
-0.20253
0.00671968
-0.197202
0.00871474
-0.192529
0.0106909
-0.188017
0.0126047
-0.18345
0.0144323
-0.178763
0.016164
-0.173971
0.0177997
-0.169125
0.0193459
-0.164286
0.0208122
-0.159513
0.0222101
-0.154857
0.0235518
-0.150353
0.0248496
-0.146029
0.0261154
-0.141893
0.0273607
-0.137943
0.0285951
-0.134152
-0.130473
0.0298263
0.000422322
-0.236068
0.001492
-0.220688
0.00300797
-0.210982
0.0047984
-0.20432
0.00672799
-0.199132
0.00869771
-0.194499
0.0106404
-0.18996
0.0125145
-0.185324
0.0142984
-0.180547
0.0159842
-0.175657
0.0175736
-0.170714
0.0190739
-0.165787
0.0204958
-0.160935
0.0218513
-0.156212
0.0231527
-0.151655
0.0244126
-0.147288
0.0256429
-0.143124
0.0268553
-0.139155
0.0280602
-0.135356
-0.131679
0.0292661
0.000431372
-0.236499
0.00151056
-0.221767
0.0030288
-0.2125
0.00481111
-0.206102
0.00672176
-0.201042
0.0086627
-0.19644
0.0105686
-0.191866
0.0124001
-0.187156
0.0141377
-0.182285
0.0157753
-0.177295
0.0173163
-0.172255
0.0187691
-0.167239
0.0201452
-0.162311
0.021457
-0.157524
0.0227171
-0.152915
0.0239379
-0.148509
0.0251316
-0.144317
0.0263103
-0.140334
0.0274847
-0.136531
-0.132858
0.0286645
0.000438829
-0.236938
0.00152489
-0.222853
0.00304232
-0.214018
0.00481321
-0.207873
0.00670148
-0.202931
0.00861028
-0.198348
0.0104762
-0.193732
0.0122623
-0.188942
0.0139509
-0.183973
0.0155382
-0.178882
0.0170289
-0.173746
0.0184326
-0.168643
0.0197614
-0.16364
0.0210283
-0.158791
0.0222458
-0.154132
0.0234265
-0.14969
0.0245826
-0.145474
0.0257264
-0.141477
0.0268694
-0.137674
-0.134011
0.0280222
0.000444847
-0.237383
0.00153529
-0.223944
0.00304893
-0.215531
0.00480514
-0.20963
0.00666769
-0.204793
0.00854111
-0.200222
0.0103641
-0.195555
0.0121019
-0.19068
0.0137392
-0.185611
0.015274
-0.180417
0.0167125
-0.175184
0.0180654
-0.169996
0.0193456
-0.164921
0.0205661
-0.160011
0.0217398
-0.155306
0.0228792
-0.150829
0.0239964
-0.146591
0.0251039
-0.142585
0.0262141
-0.138784
-0.135136
0.0273389
0.000449533
-0.237832
0.00154205
-0.225036
0.00304906
-0.217038
0.00478746
-0.211368
0.00662109
-0.206627
0.008456
-0.202057
0.0102331
-0.197332
0.01192
-0.192367
0.0135036
-0.187194
0.0149838
-0.181897
0.0163682
-0.176569
0.0176687
-0.171296
0.0188986
-0.16615
0.0200714
-0.161184
0.0211999
-0.156435
0.0222963
-0.151926
0.023373
-0.147667
0.0244427
-0.143655
0.0255185
-0.13986
-0.136231
0.0266137
0.000452959
-0.238285
0.00154545
-0.226129
0.00304319
-0.218536
0.0047608
-0.213086
0.00656244
-0.208428
0.00835588
-0.20385
0.0100843
-0.19906
0.0117178
-0.194
0.0132455
-0.188722
0.0146691
-0.18332
0.0159975
-0.177897
0.0172437
-0.172543
0.0184217
-0.167328
0.0195449
-0.162307
0.0206264
-0.157516
0.0216781
-0.152977
0.0227123
-0.148702
0.023742
-0.144684
0.0247812
-0.140899
-0.137295
0.0258448
0.000455232
-0.238741
0.00154583
-0.227219
0.00303188
-0.220022
0.00472591
-0.21478
0.00649268
-0.210195
0.00824187
-0.205599
0.00991909
-0.200738
0.0114968
-0.195578
0.0129664
-0.190191
0.0143313
-0.184685
0.0156019
-0.179168
0.0167919
-0.173733
0.0179159
-0.168452
0.0189877
-0.163379
0.02002
-0.158548
0.0210248
-0.153982
0.0220139
-0.149691
0.0230007
-0.145671
0.0240003
-0.141899
-0.138324
0.0250294
0.000456504
-0.239197
0.00154364
-0.228306
0.00301581
-0.221494
0.00468367
-0.216447
0.0064129
-0.211924
0.00811527
-0.207302
0.00973888
-0.202361
0.0112587
-0.197098
0.0126681
-0.191601
0.0139723
-0.185989
0.0151831
-0.180379
0.0163149
-0.174865
0.0173829
-0.16952
0.0184009
-0.164397
0.0193816
-0.159529
0.0203365
-0.154937
0.0212773
-0.150632
0.0222176
-0.146611
0.0231737
-0.142855
-0.139315
0.0241645
0.000457055
-0.239654
0.00153949
-0.229389
0.00299582
-0.222951
0.00463515
-0.218087
0.00632439
-0.213614
0.0079776
-0.208955
0.00954542
-0.203929
0.0110052
-0.198558
0.0123526
-0.192948
0.0135943
-0.187231
0.0147433
-0.181528
0.0158149
-0.175936
0.0168244
-0.17053
0.0177859
-0.165359
0.0187119
-0.160455
0.0196136
-0.155839
0.0205023
-0.15152
0.0213916
-0.147501
0.022299
-0.143762
-0.140262
0.0232462
0.00045736
-0.240112
0.00153424
-0.230466
0.00297296
-0.224389
0.00458157
-0.219695
0.0062286
-0.215261
0.00783057
-0.210557
0.00934073
-0.205439
0.0107389
-0.199956
0.0120225
-0.194232
0.0132001
-0.188409
0.0142855
-0.182613
0.0152946
-0.176945
0.0162431
-0.171478
0.017145
-0.166261
0.0180126
-0.161323
0.0188567
-0.156683
0.0196882
-0.152352
0.0205205
-0.148333
0.0213723
-0.144614
-0.141158
0.0222681
0.00045822
-0.24057
0.00152903
-0.231537
0.00294842
-0.225809
0.00452427
-0.221271
0.00612711
-0.216864
0.00767608
-0.212106
0.00912703
-0.20689
0.0104621
-0.201291
0.0116808
-0.195451
0.0127929
-0.189521
0.0138131
-0.183633
0.0147578
-0.17789
0.0156426
-0.172363
0.0164815
-0.167099
0.0172863
-0.162127
0.0180673
-0.157464
0.0188347
-0.153119
0.0196015
-0.1491
0.0203872
-0.1454
-0.141992
0.021222
0.00046078
-0.241031
0.00152517
-0.232601
0.00292342
-0.227207
0.0044646
-0.222812
0.0060216
-0.218421
0.00751616
-0.2136
0.00890678
-0.208281
0.0101779
-0.202562
0.0113309
-0.196604
0.0123767
-0.190567
0.0133307
-0.184587
0.0142094
-0.178769
0.0150284
-0.173182
0.0158012
-0.167872
0.0165388
-0.162865
0.0172508
-0.158176
0.017946
-0.153815
0.0186366
-0.14979
0.0193431
-0.146106
-0.142754
0.0201045
0.000466427
-0.241497
0.00152397
-0.233659
0.00289925
-0.228582
0.00440412
-0.224317
0.00591389
-0.21993
0.00735298
-0.21504
0.00868257
-0.20961
0.00988941
-0.203769
0.0109765
-0.197691
0.0119558
-0.191546
0.0128432
-0.185475
0.0136552
-0.179581
0.014407
-0.173934
0.0151112
-0.168576
0.0157783
-0.163532
0.0164164
-0.158814
0.0170329
-0.154431
0.017638
-0.150395
0.0182524
-0.146721
-0.143417
0.018916
0.000477492
-0.241974
0.00152806
-0.234709
0.00287838
-0.229933
0.00434491
-0.225784
0.00580593
-0.221391
0.00718864
-0.216422
0.0084569
-0.210879
0.00959971
-0.204912
0.0106216
-0.198713
0.0115353
-0.19246
0.0123568
-0.186296
0.0131022
-0.180326
0.0137856
-0.174617
0.0144187
-0.16921
0.0150106
-0.164124
0.0155685
-0.159372
0.0160989
-0.154962
0.0166082
-0.150905
0.0171095
-0.147222
-0.143935
0.0176272
0.000501555
-0.242476
0.00154463
-0.235752
0.00286486
-0.231253
0.00428887
-0.227208
0.00569893
-0.222801
0.00702452
-0.217748
0.00823179
-0.212086
0.00931176
-0.205992
0.0102704
-0.199671
0.011121
-0.19331
0.0118795
-0.187055
0.0125608
-0.181007
0.0131772
-0.175234
0.0137379
-0.16977
0.0142484
-0.164635
0.0147124
-0.159836
0.0151317
-0.155381
0.0155052
-0.151278
0.0158373
-0.147554
-0.144288
0.0161903
0.00055873
-0.243035
0.00158205
-0.236775
0.00285842
-0.232529
0.00423479
-0.228584
0.00559239
-0.224159
0.006861
-0.219016
0.00800849
-0.213233
0.00902782
-0.207011
0.0099264
-0.20057
0.0107185
-0.194102
0.0114199
-0.187756
0.0120449
-0.181632
0.0126039
-0.175793
0.0131025
-0.170269
0.0135405
-0.165073
0.0139105
-0.160206
0.0141958
-0.155666
0.0143703
-0.151453
0.0144284
-0.147612
-0.144457
0.014597
0.250641
0.000411851
-0.251053
0.250256
0.000385409
0.249878
0.00037806
0.2495
0.000378119
0.249119
0.000380994
0.248733
0.000385336
0.248343
0.000390419
0.247947
0.000395654
0.247547
0.000400649
0.247141
0.000405198
0.246732
0.000409203
0.24632
0.000412638
0.245904
0.000415485
0.245486
0.000417719
0.245067
0.000419215
0.244647
0.000419767
0.244229
0.000418326
0.243815
0.000414341
0.243416
0.000398614
0.000381405
0.252464
0.00101494
-0.253067
0.251825
0.00102375
0.251159
0.00104449
0.250466
0.00107115
0.249748
0.00109919
0.249006
0.00112725
0.248241
0.00115485
0.247456
0.00118151
0.246649
0.00120678
0.245824
0.00123043
0.244981
0.00125232
0.244121
0.00127244
0.243246
0.00129078
0.242356
0.00130733
0.241454
0.00132194
0.240539
0.00133442
0.239614
0.00134364
0.238679
0.00134934
0.237732
0.00134525
0.00133798
0.251136
0.00158162
-0.251703
0.250505
0.00165476
0.249821
0.00172814
0.24909
0.00180263
0.248313
0.0018759
0.247494
0.00194672
0.246634
0.00201476
0.245735
0.00207979
0.244801
0.00214155
0.243831
0.0021999
0.242829
0.00225477
0.241795
0.00230621
0.240731
0.0023543
0.23964
0.00239914
0.238521
0.00244074
0.237376
0.00247914
0.236206
0.00251382
0.23501
0.002545
0.233785
0.0025703
0.00259391
0.246958
0.00202126
-0.247398
0.24645
0.00216354
0.245877
0.00230124
0.245243
0.00243576
0.244553
0.00256648
0.243807
0.00269257
0.243008
0.00281372
0.242158
0.00292974
0.241259
0.0030405
0.240313
0.00314592
0.239322
0.003246
0.238287
0.00334088
0.237211
0.00343075
0.236094
0.00351589
0.234938
0.00359656
0.233744
0.00367312
0.232512
0.00374567
0.231243
0.00381481
0.229933
0.00387983
0.00394273
0.240667
0.00229828
-0.240944
0.240319
0.00251132
0.239903
0.00271761
0.239421
0.002918
0.238875
0.00311244
0.238267
0.00330047
0.237599
0.00348175
0.236872
0.00365608
0.236089
0.00382335
0.235252
0.00398351
0.234361
0.00413662
0.233419
0.00428288
0.232427
0.0044226
0.231387
0.00455624
0.230299
0.00468433
0.229165
0.00480756
0.227984
0.00492652
0.226757
0.00504214
0.225482
0.00515459
0.00526553
0.233045
0.00242114
-0.233168
0.232852
0.00270424
0.23259
0.00297943
0.232261
0.00324702
0.231866
0.00350704
0.231408
0.00375918
0.230886
0.0040031
0.230304
0.00423857
0.229662
0.00446544
0.228961
0.00468368
0.228205
0.00489338
0.227393
0.00509478
0.226527
0.00528831
0.225609
0.00547459
0.224639
0.00565441
0.223617
0.00582878
0.222545
0.00599875
0.221422
0.00616569
0.220246
0.00633045
0.00649486
0.224787
0.00241997
-0.224786
0.224721
0.00277061
0.224587
0.00311259
0.224389
0.00344585
0.224125
0.00377031
0.223799
0.00408569
0.22341
0.00439164
0.222961
0.00468788
0.222452
0.00497424
0.221885
0.00525064
0.221261
0.00551719
0.220582
0.00577415
0.219848
0.00602204
0.219061
0.00626164
0.218222
0.00649399
0.21733
0.00672045
0.216386
0.00694255
0.21539
0.00716218
0.214339
0.00738087
0.00760075
0.216415
0.00233051
-0.216326
0.216441
0.00274518
0.216403
0.0031506
0.216302
0.00354647
0.21614
0.00393258
0.215917
0.0043086
0.215634
0.00467415
0.215293
0.0050289
0.214895
0.00537259
0.21444
0.00570514
0.213931
0.00602659
0.213368
0.00633725
0.212752
0.00663767
0.212085
0.00692876
0.211367
0.00721182
0.210599
0.00748859
0.209781
0.00776113
0.208911
0.00803195
0.207988
0.00830339
0.0085781
0.208273
0.00218569
-0.208128
0.208357
0.00266065
0.208382
0.0031258
0.208348
0.00358069
0.208256
0.00402499
0.208106
0.00445831
0.2079
0.00488019
0.207639
0.00529023
0.207323
0.00568811
0.206954
0.00607366
0.206534
0.00644689
0.206063
0.00680804
0.205543
0.00715771
0.204975
0.0074969
0.20436
0.00782713
0.203698
0.00815052
0.202989
0.00846977
0.202233
0.00878813
0.201428
0.00910902
0.00943592
0.200559
0.00201222
-0.200385
0.200675
0.00254393
0.200736
0.00306526
0.200741
0.00357566
0.200691
0.00407469
0.200588
0.00456186
0.200431
0.00503665
0.200223
0.00549855
0.199964
0.00594717
0.199655
0.00638222
0.199299
0.00680362
0.198895
0.00721152
0.198446
0.00760649
0.197954
0.00798955
0.197418
0.00836244
0.196841
0.00872758
0.196223
0.00908845
0.195562
0.00944916
0.194856
0.0098146
0.0101895
0.193365
0.00182977
-0.193183
0.193494
0.00241517
0.193569
0.0029896
0.193593
0.00355241
0.193564
0.00410304
0.193485
0.00464093
0.193356
0.00516545
0.193179
0.005676
0.192954
0.00617207
0.192683
0.00665323
0.192367
0.00711925
0.192009
0.00757015
0.191609
0.00800638
0.19117
0.00842887
0.190693
0.00883949
0.190179
0.00924087
0.18963
0.00963739
0.189045
0.0100341
0.188422
0.010438
0.0108556
0.186715
0.00165169
-0.186537
0.186842
0.00228827
0.186918
0.00291331
0.186945
0.00352596
0.186922
0.00412559
0.186851
0.00471154
0.186734
0.00528308
0.18657
0.00583951
0.186362
0.00638015
0.186111
0.00690443
0.185818
0.00741192
0.185486
0.0079024
0.185116
0.00837611
0.184711
0.00883372
0.184274
0.00927716
0.183806
0.00970899
0.183308
0.0101347
0.182783
0.0105599
0.182225
0.0109951
0.0114486
0.180589
0.00148626
-0.180424
0.180705
0.00217221
0.180773
0.00284587
0.180792
0.00350632
0.180765
0.00415286
0.180692
0.00478473
0.180574
0.0054011
0.180412
0.00600114
0.180208
0.00658401
0.179964
0.00714895
0.17968
0.00769527
0.17936
0.00822242
0.179006
0.00873034
0.178621
0.00921922
0.178207
0.00969087
0.177769
0.0101473
0.177308
0.0105954
0.176827
0.0110405
0.176324
0.0114988
0.0119797
0.174946
0.00133833
-0.174798
0.175046
0.00207214
0.175099
0.00279288
0.175106
0.00349957
0.175067
0.00419141
0.174984
0.00486753
0.174859
0.00552701
0.174691
0.00616887
0.174483
0.00679214
0.174236
0.00739579
0.173952
0.00797887
0.173634
0.00854041
0.173285
0.0090799
0.172907
0.00959678
0.172505
0.0100925
0.172085
0.0105679
0.171649
0.0110314
0.171203
0.0114862
0.170744
0.0119584
0.0124546
0.169734
0.00121019
-0.169606
0.169815
0.00199078
0.169851
0.00275736
0.169841
0.00350901
0.169788
0.00424484
0.169692
0.00496389
0.169554
0.00566511
0.169375
0.00634742
0.169158
0.00700965
0.168903
0.00765055
0.168613
0.00826884
0.16829
0.00886307
0.167938
0.00943215
0.16756
0.0099745
0.167162
0.010491
0.16675
0.0109799
0.166329
0.011452
0.165911
0.0119041
0.16549
0.0123795
0.0128719
0.164899
0.00110266
-0.164791
0.164961
0.00192895
0.164978
0.00274033
0.164951
0.00353586
0.164881
0.00431458
0.16477
0.00507541
0.164618
0.00581725
0.164426
0.00653887
0.164197
0.00723894
0.163931
0.00791596
0.163632
0.00856832
0.163301
0.00919406
0.162942
0.0097914
0.162559
0.0103575
0.162158
0.0108922
0.161747
0.0113901
0.161335
0.0118645
0.16094
0.0122991
0.160554
0.0127657
0.0132199
0.160389
0.00101524
-0.160302
0.160432
0.0018862
0.160431
0.00274138
0.160387
0.00357977
0.160301
0.00440031
0.160175
0.00520187
0.160009
0.00598326
0.159805
0.00674314
0.159563
0.00748002
0.159287
0.0081922
0.158978
0.00887773
0.158638
0.00953417
0.15827
0.010159
0.15788
0.0107479
0.157472
0.0112994
0.15706
0.0118029
0.15665
0.0122739
0.156275
0.0126739
0.155919
0.013122
0.013473
0.156158
0.000946128
-0.156089
0.156183
0.001861
0.156166
0.00275884
0.156107
0.00363893
0.156007
0.00450011
0.155867
0.0053412
0.15569
0.00616092
0.155475
0.00695788
0.155225
0.00773044
0.15494
0.00847672
0.154623
0.0091945
0.154277
0.00988093
0.153903
0.0105328
0.153506
0.0111444
0.153093
0.0117126
0.152676
0.01222
0.152266
0.0126835
0.151912
0.0130278
0.15158
0.013454
0.0136007
0.152163
0.0008934
-0.15211
0.152173
0.00185053
0.152143
0.00278953
0.152072
0.0037098
0.151962
0.00461001
0.151814
0.00548897
0.15163
0.00634539
0.15141
0.0071778
0.151156
0.00798447
0.150869
0.00876337
0.150551
0.00951213
0.150205
0.0102276
0.149832
0.010906
0.149435
0.0115405
0.149021
0.0121267
0.148601
0.0126399
0.148188
0.0130967
0.147855
0.0133611
0.147564
0.0137453
0.0135522
0.148365
-0.148327
0.000855463
0.148364
0.00185088
0.148325
0.00282909
0.148247
0.00378733
0.148133
0.0047242
0.147983
0.00563862
0.1478
0.00652931
0.147583
0.00739473
0.147334
0.0082331
0.147055
0.00904232
0.146747
0.00981995
0.146412
0.0105626
0.146052
0.0112666
0.145668
0.0119239
0.145265
0.0125302
0.14485
0.0130545
0.14443
0.0135171
0.144081
0.0137101
0.143824
0.0140016
0.01292
0.25424
7.3943e-05
-0.254314
0.254204
3.60549e-05
0.254172
3.20086e-05
0.254131
4.07403e-05
0.254076
5.49784e-05
0.254004
7.26409e-05
0.253911
9.24261e-05
0.253798
0.000113212
0.253664
0.000134187
0.253509
0.000154849
0.253334
0.00017476
0.253141
0.000193625
0.252929
0.000211887
0.252698
0.00023055
0.252451
0.000247761
0.252188
0.000262874
0.251912
0.000275448
0.251627
0.000285408
0.25134
0.000286908
0.00028683
0.255951
-0.000239172
-0.255638
0.256203
-0.000215983
0.256411
-0.000175736
0.256574
-0.000122596
0.256692
-6.30853e-05
0.256765
1.94866e-07
0.256791
6.61019e-05
0.256771
0.000133543
0.256703
0.000201611
0.256589
0.000269391
0.256428
0.000335628
0.256222
0.000399126
0.255975
0.000458716
0.255681
0.000524631
0.255343
0.000586224
0.254963
0.000643012
0.254543
0.000695063
0.254086
0.000742351
0.253593
0.000780209
0.000812843
0.251309
-0.000890651
-0.250658
0.251888
-0.000794978
0.252402
-0.000689472
0.252853
-0.000574272
0.253243
-0.000452892
0.253571
-0.000327571
0.253837
-0.000199453
0.25404
-6.99784e-05
0.254181
6.08764e-05
0.254258
0.000192696
0.254272
0.000321496
0.254224
0.000446879
0.254112
0.000571116
0.253941
0.000694911
0.253713
0.000814875
0.253426
0.000929872
0.253081
0.00103937
0.252681
0.00114329
0.252221
0.00123968
0.00133137
0.242961
-0.00181829
-0.242033
0.243816
-0.00165045
0.244602
-0.00147537
0.24532
-0.00129229
0.24597
-0.00110287
0.246551
-0.000908918
0.247064
-0.000711774
0.247506
-0.000512696
0.24788
-0.000312366
0.24818
-0.000108114
0.24841
9.22833e-05
0.248571
0.000285253
0.248662
0.000480242
0.248685
0.000672217
0.24864
0.000860181
0.248526
0.00104323
0.248345
0.00122058
0.248096
0.00139183
0.24778
0.00155596
0.0017135
0.232873
-0.00294281
-0.231748
0.23393
-0.00270737
0.234919
-0.00246444
0.23584
-0.00221359
0.236693
-0.00195571
0.237476
-0.0016923
0.238189
-0.00142478
0.238831
-0.00115434
0.2394
-0.000881955
0.239901
-0.0006084
0.24033
-0.000336822
0.240684
-6.87697e-05
0.240966
0.000197912
0.241177
0.000461282
0.241316
0.000720981
0.241384
0.000975583
0.24138
0.00122433
0.241305
0.00146662
0.24116
0.00170163
0.0019293
0.222319
-0.00419263
-0.22107
0.223506
-0.00389445
0.224629
-0.00358723
0.225687
-0.00327109
0.226678
-0.00294683
0.227601
-0.00261588
0.228456
-0.00227979
0.229242
-0.00194002
0.229958
-0.001598
0.230605
-0.00125508
0.231181
-0.000912792
0.231685
-0.000572448
0.232117
-0.000234903
0.23248
9.82591e-05
0.232773
0.000428609
0.232993
0.000755032
0.233143
0.00107479
0.233222
0.00138782
0.23323
0.0016935
0.00199158
0.212076
-0.0055108
-0.210758
0.213336
-0.00515406
0.214535
-0.00478616
0.215672
-0.00440774
0.216745
-0.00401983
0.217753
-0.00362402
0.218695
-0.00322211
0.219571
-0.00281583
0.22038
-0.00240682
0.221121
-0.00199653
0.221795
-0.00158635
0.2224
-0.0011777
0.222936
-0.000771377
0.223403
-0.000368108
0.223807
2.42816e-05
0.22414
0.000422509
0.224403
0.000810988
0.224599
0.00119222
0.224726
0.00156611
0.00193223
0.20255
-0.00685597
-0.201205
0.20384
-0.00644398
0.205072
-0.00601844
0.206245
-0.00558036
0.207356
-0.00513122
0.208405
-0.00467298
0.209391
-0.00420779
0.210313
-0.00373763
0.21117
-0.00326433
0.211963
-0.00278951
0.212692
-0.00231464
0.213355
-0.00184108
0.213954
-0.00136991
0.214488
-0.000902103
0.214951
-0.000439032
0.21536
1.33012e-05
0.215698
0.000473118
0.215972
0.000918261
0.216181
0.00135689
0.00178767
0.193898
-0.00820063
-0.192554
0.19519
-0.00773593
0.196427
-0.007255
0.197606
-0.00675914
0.198725
-0.0062505
0.199784
-0.00573164
0.200781
-0.00520512
0.201716
-0.00467324
0.20259
-0.00413805
0.203402
-0.00360132
0.204152
-0.00306459
0.20484
-0.0025292
0.205466
-0.00199632
0.206031
-0.00146687
0.206535
-0.000942288
0.206972
-0.000423843
0.207355
8.99274e-05
0.207674
0.000599575
0.207931
0.00109913
0.00159087
0.186129
-0.0095282
-0.184801
0.187406
-0.00901276
0.188629
-0.00847791
0.189795
-0.00792533
0.190902
-0.00735815
0.191951
-0.00677976
0.192939
-0.00619323
0.193867
-0.00560121
0.194735
-0.005006
0.195543
-0.00440948
0.196291
-0.00381322
0.196981
-0.00321855
0.197611
-0.00262661
0.198183
-0.00203836
0.198695
-0.00145481
0.199148
-0.000876879
0.199543
-0.000305303
0.199883
0.000260334
0.200163
0.000819046
0.00136833
0.179172
-0.01083
-0.17787
0.180424
-0.0102656
0.181624
-0.00967763
0.182767
-0.00906855
0.183852
-0.00844305
0.184878
-0.00780555
0.185845
-0.00715972
0.186752
-0.00650861
0.187601
-0.00585473
0.188391
-0.00520005
0.189124
-0.00454612
0.1898
-0.0038942
0.190419
-0.00324537
0.190981
-0.00260056
0.191487
-0.00196062
0.191936
-0.00132642
0.192329
-0.0006985
0.192669
-7.97933e-05
0.192953
0.000535042
0.00113918
0.172924
-0.0121032
-0.17165
0.174149
-0.0114915
0.175322
-0.0108506
0.176438
-0.0101844
0.177495
-0.0095001
0.178493
-0.00880334
0.179432
-0.00809841
0.180312
-0.00738878
0.181134
-0.00667716
0.1819
-0.00596551
0.182609
-0.00525531
0.183263
-0.00454771
0.183861
-0.00384369
0.184404
-0.0031441
0.184894
-0.00244975
0.185329
-0.00176144
0.18571
-0.00107995
0.186037
-0.000406855
0.186314
0.000258017
0.000916449
0.167277
-0.0133484
-0.166031
0.168477
-0.0126919
0.169624
-0.0119973
0.170712
-0.0112725
0.17174
-0.0105283
0.172708
-0.00977158
0.173617
-0.00900725
0.174468
-0.00823928
0.175261
-0.00747045
0.175998
-0.00670265
0.17668
-0.00593718
0.177307
-0.00517505
0.177881
-0.0044171
0.178401
-0.0036641
0.178868
-0.00291678
0.179282
-0.00217594
0.179644
-0.00144207
0.179954
-0.000715926
0.180216
-4.26642e-06
0.000708465
0.162132
-0.0145696
-0.160911
0.163312
-0.0138715
0.164436
-0.0131212
0.165499
-0.0123354
0.1665
-0.0115294
0.16744
-0.0107113
0.168319
-0.00988665
0.16914
-0.00906003
0.169903
-0.00823414
0.170611
-0.00741062
0.171265
-0.00659055
0.171864
-0.00577472
0.172411
-0.00496377
0.172905
-0.00415837
0.173348
-0.00335915
0.173739
-0.00256687
0.174079
-0.0017822
0.174369
-0.00100644
0.174606
-0.000241429
0.000516867
0.157409
-0.0157733
-0.156205
0.158575
-0.0150379
0.159682
-0.0142281
0.160724
-0.0133773
0.161701
-0.0125064
0.162614
-0.0116241
0.163465
-0.0107376
0.164256
-0.00985151
0.16499
-0.00896833
0.165669
-0.0080893
0.166293
-0.00721512
0.166865
-0.00634625
0.167384
-0.00548309
0.167852
-0.00462613
0.168269
-0.00377593
0.168635
-0.0029332
0.168952
-0.0020987
0.169219
-0.00127338
0.169436
-0.000458394
0.000346514
0.153043
-0.016972
-0.151844
0.154206
-0.0162014
0.155303
-0.0153246
0.156328
-0.0144028
0.157283
-0.0134613
0.15817
-0.0125108
0.158992
-0.0115599
0.159754
-0.0106131
0.160458
-0.00967237
0.161107
-0.00873811
0.161702
-0.00781045
0.162245
-0.00688934
0.162737
-0.00597486
0.163178
-0.00506726
0.163569
-0.00416701
0.163911
-0.00327472
0.164203
-0.00239117
0.164447
-0.00151718
0.164642
-0.000653966
0.000197482
0.14899
-0.0181946
-0.147767
0.150166
-0.0173772
0.151258
-0.0164169
0.152269
-0.0154143
0.153201
-0.0143929
0.154058
-0.013368
0.154849
-0.0123502
0.155578
-0.0113422
0.156249
-0.0103442
0.156867
-0.0093557
0.157432
-0.00837579
0.157947
-0.00740373
0.158411
-0.00643913
0.158826
-0.00548204
0.159192
-0.00453279
0.159509
-0.00359194
0.159778
-0.00266025
0.159999
-0.00173862
0.160173
-0.000828033
6.91139e-05
0.14522
-0.0195052
-0.14391
0.14643
-0.0185863
0.147518
-0.0175053
0.14851
-0.0164063
0.14941
-0.0152928
0.15023
-0.0141877
0.150982
-0.0131022
0.151674
-0.0120343
0.152311
-0.0109813
0.152896
-0.0099408
0.153431
-0.00891079
0.153917
-0.00788965
0.154354
-0.00687656
0.154744
-0.00587136
0.155085
-0.00487431
0.155379
-0.00388598
0.155626
-0.00290716
0.155826
-0.00193892
0.155981
-0.000982271
-3.9156e-05
0.141749
-0.0209729
-0.140281
0.142988
-0.0198258
0.144055
-0.0185716
0.145005
-0.0173566
0.145857
-0.0161448
0.146629
-0.0149594
0.147336
-0.0138093
0.147988
-0.0126862
0.148589
-0.0115824
0.149142
-0.0104936
0.149647
-0.00941632
0.150106
-0.00834837
0.150518
-0.00728858
0.150883
-0.00623674
0.151202
-0.00519319
0.151475
-0.00415854
0.151701
-0.00313368
0.151882
-0.00211979
0.152018
-0.00111837
-0.000131011
0.138643
-0.137236
-0.0223799
0.139795
-0.0209784
0.140822
-0.0195982
0.141694
-0.0182287
0.142479
-0.0169301
0.1432
-0.0156798
0.143862
-0.0144717
0.144474
-0.0132986
0.145041
-0.0121494
0.145564
-0.0110162
0.146042
-0.00989438
0.146475
-0.00878157
0.146863
-0.00767665
0.147206
-0.00657954
0.147504
-0.00549074
0.147756
-0.00441105
0.147964
-0.00334147
0.148127
-0.00228302
0.148246
-0.00123731
-0.000211645
0.0304741
0.111637
-0.110169
-0.0319418
0.0289799
0.114667
-0.113173
0.0274565
0.117832
-0.116308
0.0259003
0.121155
-0.119598
0.0243079
0.124667
-0.123075
0.0226765
0.128412
-0.126781
0.021004
0.132446
-0.130774
0.0192888
0.136849
-0.135133
0.0175302
0.141722
-0.139963
0.0157285
0.147196
-0.145395
0.0138853
0.15343
-0.151587
0.0120048
0.160609
-0.158728
0.0100956
0.16893
-0.167021
0.00817442
0.17858
-0.176659
0.00627065
0.18968
-0.187776
0.00443399
0.202195
-0.200358
0.00274344
0.215793
-0.214102
0.00131835
0.229628
-0.228203
0.000326362
0.241943
-0.240951
0.249637
-0.249311
0.0302951
0.113098
-0.031756
0.0288078
0.116154
0.0272915
0.119348
0.0257426
0.122703
0.0241578
0.126252
0.0225341
0.130036
0.0208692
0.134111
0.0191616
0.138556
0.0174103
0.143473
0.0156157
0.148991
0.0137795
0.155267
0.0119061
0.162482
0.0100049
0.170831
0.00809312
0.180492
0.00620158
0.191572
0.00438138
0.204015
0.00271297
0.217461
0.00131515
0.231026
0.000350293
0.242907
0.249988
0.0300744
0.114549
-0.0315262
0.0285962
0.117632
0.0270892
0.120855
0.0255498
0.124243
0.0239747
0.127827
0.0223608
0.131649
0.0207059
0.135766
0.019008
0.140254
0.0172664
0.145215
0.0154812
0.150776
0.0136543
0.157093
0.0117906
0.164346
0.00989969
0.172722
0.00799983
0.182392
0.00612266
0.193449
0.00432032
0.205818
0.00267379
0.219108
0.00130023
0.2324
0.000353542
0.243854
0.250341
0.0298135
0.11599
-0.0312542
0.0283466
0.119099
0.026851
0.122351
0.0253233
0.125771
0.0237599
0.129391
0.0221579
0.133251
0.0205149
0.137409
0.0188289
0.14194
0.0170991
0.146945
0.0153255
0.15255
0.0135102
0.158909
0.0116584
0.166198
0.00978009
0.1746
0.00789426
0.184278
0.00603333
0.19531
0.00425017
0.207601
0.00262591
0.220732
0.00127604
0.23375
0.000348661
0.244781
0.25069
0.0295148
0.117418
-0.0309423
0.028061
0.120553
0.0265787
0.123833
0.0250644
0.127285
0.0235146
0.13094
0.0219263
0.13484
0.0202971
0.139038
0.0186249
0.143612
0.0169088
0.148661
0.0151489
0.15431
0.0133474
0.16071
0.0115096
0.168036
0.00964607
0.176464
0.00777636
0.186147
0.00593367
0.197153
0.00417152
0.209363
0.00257105
0.222332
0.00124614
0.235075
0.000339931
0.245688
0.25103
0.0291806
0.118831
-0.0305936
0.0277415
0.121992
0.0262742
0.1253
0.0247749
0.128784
0.0232402
0.132475
0.0216673
0.136413
0.0200535
0.140652
0.0183969
0.145269
0.0166963
0.150361
0.014952
0.156054
0.0131662
0.162496
0.0113445
0.169857
0.00949782
0.178311
0.00764638
0.187999
0.00582406
0.198975
0.00408499
0.211102
0.00251024
0.223907
0.00121191
0.236373
0.000328518
0.246571
0.251358
0.0288137
0.120228
-0.030211
0.0273906
0.123415
0.0259393
0.126751
0.0244563
0.130267
0.0229382
0.133993
0.0213819
0.137969
0.019785
0.142249
0.0181455
0.146908
0.0164622
0.152045
0.0147353
0.157781
0.0129671
0.164264
0.0111634
0.171661
0.00933564
0.180138
0.00750458
0.18983
0.00570479
0.200775
0.00399094
0.212816
0.00244388
0.225454
0.0011739
0.237643
0.000315128
0.24743
0.251673
0.028417
0.121609
-0.029798
0.0270105
0.124822
0.0255761
0.128186
0.0241103
0.131733
0.0226097
0.135494
0.0210713
0.139507
0.0194926
0.143828
0.0178715
0.148529
0.016207
0.153709
0.0144991
0.159489
0.0127503
0.166013
0.0109665
0.173445
0.0091598
0.181945
0.00735125
0.191638
0.00557615
0.20255
0.00388964
0.214502
0.00237232
0.226971
0.00113262
0.238883
0.000300363
0.248262
0.251974
0.0279934
0.122974
-0.0293579
0.0266036
0.126212
0.0251865
0.129603
0.0237384
0.133181
0.022256
0.136976
0.0207364
0.141027
0.0191769
0.145387
0.0175755
0.150131
0.0159311
0.155354
0.0142439
0.161176
0.0125162
0.167741
0.0107543
0.175207
0.00897054
0.183729
0.00718661
0.193422
0.00543838
0.204298
0.00378141
0.216159
0.00229595
0.228457
0.00108855
0.24009
0.000284639
0.249066
0.252258
0.0275454
0.124322
-0.0288943
0.026172
0.127585
0.024772
0.131003
0.0233418
0.134611
0.021878
0.13844
0.0203777
0.142527
0.0188384
0.146927
0.0172579
0.151711
0.015635
0.156977
0.0139698
0.162841
0.012265
0.169446
0.0105268
0.176945
0.00876805
0.185488
0.00701087
0.195179
0.00529173
0.206017
0.00366653
0.217785
0.00221512
0.229908
0.00104206
0.241263
0.0002682
0.24984
0.252527
0.0270755
0.125657
-0.0284103
0.0257173
0.128943
0.0243338
0.132386
0.0229212
0.136024
0.0214762
0.139885
0.0199958
0.144008
0.0184773
0.148445
0.0169187
0.15327
0.0153186
0.158577
0.0136771
0.164483
0.0119968
0.171126
0.0102842
0.178657
0.00855248
0.187219
0.00682422
0.196908
0.00513643
0.207705
0.00354527
0.219376
0.00213011
0.231323
0.00099342
0.2424
0.000251207
0.250582
0.252778
0.0265852
0.12698
-0.0279083
0.0252404
0.130288
0.0238721
0.133755
0.0224765
0.137419
0.0210503
0.141311
0.0195902
0.145468
0.0180935
0.149942
0.0165578
0.154806
0.0149819
0.160153
0.0133656
0.166099
0.0117115
0.17278
0.0100266
0.180342
0.00832392
0.188922
0.00662681
0.198605
0.00497267