/*--------------------------------*- C++ -*----------------------------------*\
  =========                 |
  \\      /  F ield         | OpenFOAM: The Open Source CFD Toolbox
   \\    /   O peration     | Website:  https://openfoam.org
    \\  /    A nd           | Version:  6.0
     \\/     M anipulation  |
\*---------------------------------------------------------------------------*/
FoamFile
{
    version     2.0;
    format      ascii;
    class       surfaceScalarField;
    location    "22.05";
    object      phi;
}
// * * * * * * * * * * * * * * * * * * * * * * * * * * * * * * * * * * * * * //

dimensions      [0 3 -1 0 0 0 0];

internalField   nonuniform List<scalar> 
18940
(
0.000536776
-0.472365
0.471828
0.00191816
-0.44988
0.448499
0.00372029
-0.434359
0.432557
0.00566468
-0.420792
0.418848
0.00760307
-0.407832
0.405894
0.0094625
-0.3948
0.39294
0.0112166
-0.381632
0.379877
0.0128664
-0.368533
0.366883
0.0144263
-0.355737
0.354178
0.0159148
-0.343425
0.341936
0.0173498
-0.331706
0.330271
0.0187457
-0.320632
0.319236
0.0201135
-0.31021
0.308842
0.0214608
-0.300422
0.299075
0.0227931
-0.291237
0.289904
0.0241151
-0.282615
0.281293
0.025432
-0.274515
0.273198
0.0267501
-0.26688
0.265562
0.0280758
-0.259629
0.258304
-0.252643
0.251304
0.029415
0.000577829
-0.472943
0.00195989
-0.451262
0.00374577
-0.436145
0.00566591
-0.422713
0.00757209
-0.409738
0.00939417
-0.396622
0.0111089
-0.383346
0.0127194
-0.370143
0.0142413
-0.357259
0.0156936
-0.344877
0.0170943
-0.333107
0.0184577
-0.321995
0.0197945
-0.311547
0.0211118
-0.30174
0.0224146
-0.29254
0.023707
-0.283908
0.0249939
-0.275802
0.0262816
-0.268168
0.0275773
-0.260925
-0.253954
0.0288881
0.000614551
-0.473557
0.00199505
-0.452642
0.00376055
-0.43791
0.00565155
-0.424604
0.00752201
-0.411609
0.00930387
-0.398404
0.0109765
-0.385019
0.012545
-0.371712
0.0140263
-0.358741
0.0154401
-0.346291
0.0168043
-0.334471
0.0181333
-0.323324
0.0194372
-0.312851
0.0207228
-0.303025
0.0219944
-0.293811
0.0232557
-0.285169
0.0245111
-0.277057
0.025767
-0.269424
0.027031
-0.262189
-0.255235
0.0283122
0.000626764
-0.474184
0.00201081
-0.454027
0.00375925
-0.439659
0.00561969
-0.426464
0.00745173
-0.413441
0.00919068
-0.400143
0.0108186
-0.386647
0.0123427
-0.373236
0.0137812
-0.360179
0.0151543
-0.347664
0.0164801
-0.335797
0.0177728
-0.324617
0.0190422
-0.31412
0.0202946
-0.304278
0.0215338
-0.29505
0.022763
-0.286398
0.0239863
-0.278281
0.0252098
-0.270648
0.0264423
-0.263421
-0.256487
0.0276947
0.00063798
-0.474822
0.00201821
-0.455407
0.00374564
-0.441386
0.00557228
-0.428291
0.00736264
-0.415231
0.0090557
-0.401836
0.0106362
-0.388227
0.0121135
-0.374713
0.0135067
-0.361572
0.0148369
-0.348994
0.0161223
-0.337082
0.0173769
-0.325872
0.0186102
-0.315354
0.0198281
-0.305496
0.021034
-0.296256
0.0222306
-0.287595
0.0234215
-0.279472
0.0246129
-0.271839
0.0258146
-0.264623
-0.257712
0.0270397
0.000641994
-0.475464
0.00201448
-0.456779
0.00371843
-0.44309
0.00550879
-0.430081
0.00725469
-0.416977
0.00889903
-0.40348
0.0104295
-0.389758
0.0118573
-0.376141
0.013203
-0.362918
0.014488
-0.350279
0.0157309
-0.338325
0.0169455
-0.327086
0.0181411
-0.316549
0.0193233
-0.306678
0.020495
-0.297428
0.0216585
-0.288758
0.022817
-0.28063
0.023977
-0.272999
0.0251489
-0.265795
-0.258912
0.0263487
0.00064408
-0.476108
0.00200401
-0.458139
0.00368015
-0.444766
0.00543072
-0.431832
0.007129
-0.418675
0.00872166
-0.405073
0.0101993
-0.391235
0.011575
-0.377517
0.0128705
-0.364214
0.0141081
-0.351517
0.0153062
-0.339523
0.0164786
-0.328259
0.0176347
-0.317705
0.0187795
-0.307823
0.019916
-0.298564
0.0210458
-0.289888
0.022172
-0.281756
0.0233011
-0.274128
0.0244444
-0.266938
-0.260088
0.0256205
0.000642483
-0.476751
0.00198605
-0.459483
0.00363093
-0.446411
0.00533853
-0.433539
0.00698618
-0.420323
0.00852425
-0.406611
0.00994613
-0.392657
0.011267
-0.378838
0.0125097
-0.365456
0.013697
-0.352704
0.0148476
-0.340674
0.0159755
-0.329386
0.0170896
-0.318819
0.0181952
-0.308928
0.0192949
-0.299664
0.0203901
-0.290983
0.0214838
-0.28285
0.0225822
-0.275226
0.023698
-0.268054
-0.261242
0.024852
0.000638593
-0.477389
0.00196226
-0.460806
0.00357228
-0.448021
0.00523358
-0.4352
0.00682749
-0.421917
0.00830797
-0.408091
0.0096712
-0.394021
0.0109342
-0.380101
0.0121211
-0.366643
0.013255
-0.353838
0.0143551
-0.341774
0.0154352
-0.330466
0.0165044
-0.319888
0.017568
-0.309992
0.0186285
-0.300725
0.0196875
-0.292042
0.0207475
-0.28391
0.0218149
-0.276294
0.0229034
-0.269142
-0.262375
0.0240363
0.000632137
-0.478021
0.00193282
-0.462107
0.00350491
-0.449593
0.00511691
-0.436812
0.00665415
-0.423454
0.00807409
-0.409511
0.00937565
-0.395322
0.0105777
-0.381303
0.0117054
-0.367771
0.0127825
-0.354915
0.0138283
-0.34282
0.0148568
-0.331495
0.0158772
-0.320909
0.016895
-0.31101
0.0179128
-0.301743
0.0189323
-0.293062
0.0199561
-0.284934
0.0209906
-0.277329
0.0220505
-0.270202
-0.263487
0.0231624
0.000623787
-0.478645
0.00189886
-0.463382
0.00343022
-0.451125
0.00499015
-0.438372
0.00646791
-0.424932
0.00782442
-0.410868
0.00906124
-0.396559
0.010199
-0.382441
0.0112639
-0.368836
0.0122801
-0.355931
0.0132673
-0.343807
0.0142394
-0.332467
0.0152062
-0.321876
0.0161731
-0.311977
0.0171434
-0.302713
0.0181186
-0.294037
0.0191016
-0.285917
0.0200992
-0.278326
0.0211271
-0.27123
-0.264576
0.022216
0.000613939
-0.479259
0.0018613
-0.46463
0.00334963
-0.452613
0.00485512
-0.439878
0.00627087
-0.426348
0.0075612
-0.412158
0.00873024
-0.397728
0.00980028
-0.383511
0.0107983
-0.369834
0.0117491
-0.356882
0.0126723
-0.34473
0.0135824
-0.333377
0.0144892
-0.322782
0.015399
-0.312886
0.0163152
-0.303629
0.0172399
-0.294962
0.0181762
-0.286853
0.0191312
-0.279281
0.0201218
-0.272221
-0.265636
0.0211817
0.000603487
-0.479862
0.00182173
-0.465848
0.00326515
-0.454056
0.00471417
-0.441327
0.00606569
-0.427699
0.00728734
-0.41338
0.00838572
-0.398826
0.00938462
-0.38451
0.0103117
-0.370761
0.0111919
-0.357762
0.012045
-0.345583
0.0128857
-0.334218
0.0137243
-0.323621
0.014568
-0.31373
0.0154212
-0.304482
0.016287
-0.295828
0.0171692
-0.287735
0.0180752
-0.280187
0.0190223
-0.273168
-0.266656
0.0200423
0.000593564
-0.480456
0.00178203
-0.467036
0.00317901
-0.455453
0.00456989
-0.442718
0.00585537
-0.428985
0.00700629
-0.414531
0.00803158
-0.399852
0.00895628
-0.385434
0.0098085
-0.371613
0.0106131
-0.358567
0.0113895
-0.346359
0.0121524
-0.334981
0.0129123
-0.324381
0.0136773
-0.314495
0.0144533
-0.305258
0.0152457
-0.29662
0.0160604
-0.28855
0.016906
-0.281033
0.0177991
-0.274061
-0.267628
0.0187711
0.000585686
-0.481042
0.00174427
-0.468195
0.00309351
-0.456803
0.00442509
-0.444049
0.00564344
-0.430203
0.00672227
-0.415609
0.00767261
-0.400802
0.0085206
-0.386282
0.00929454
-0.372387
0.0100189
-0.359291
0.0107127
-0.347053
0.0113898
-0.335658
0.0120603
-0.325052
0.0127321
-0.315167
0.0134119
-0.305938
0.0141072
-0.297315
0.0148268
-0.289269
0.015583
-0.281789
0.0163982
-0.274876
-0.268558
0.0173286
0.000581292
-0.481623
0.00171004
-0.469324
0.00301098
-0.458104
0.00428314
-0.445321
0.00543425
-0.431354
0.00644048
-0.416616
0.00731478
-0.401676
0.00808416
-0.387052
0.00877686
-0.37308
0.0094168
-0.359931
0.0100222
-0.347659
0.0106062
-0.336242
0.0111782
-0.325624
0.0117452
-0.315734
0.0123126
-0.306505
0.012886
-0.297889
0.0134742
-0.289858
0.0140951
-0.28241
0.0147899
-0.275571
-0.269431
0.0156631
0.000581509
-0.482205
0.00168155
-0.470424
0.00293538
-0.459357
0.00414896
-0.446535
0.00523327
-0.432439
0.00616714
-0.417549
0.00696538
-0.402474
0.00765553
-0.387742
0.00826518
-0.373689
0.00881686
-0.360483
0.00932731
-0.348169
0.00980867
-0.336723
0.0102701
-0.326085
0.010719
-0.316183
0.0111612
-0.306948
0.0116006
-0.298328
0.0120416
-0.290299
0.0124987
-0.282867
0.013019
-0.276092
-0.270076
0.0136635
0.000589384
-0.482794
0.00166608
-0.4715
0.00287467
-0.460566
0.00402902
-0.447689
0.00504614
-0.433456
0.00590846
-0.418412
0.00663239
-0.403198
0.00724543
-0.388355
0.00777363
-0.374218
0.00823683
-0.360946
0.00864826
-0.34858
0.00901626
-0.337091
0.00934696
-0.326416
0.00964711
-0.316483
0.0099266
-0.307227
0.0101988
-0.2986
0.0104769
-0.290577
0.0107644
-0.283154
0.011047
-0.276374
-0.270177
0.0111479
0.000619637
-0.483414
0.00167937
-0.47256
0.00283742
-0.461724
0.00392757
-0.44878
0.00487634
-0.434404
0.00566923
-0.419205
0.00632325
-0.403852
0.00686522
-0.388897
0.00731933
-0.374672
0.00770221
-0.361329
0.00802207
-0.3489
0.00827989
-0.337349
0.00847157
-0.326607
0.0085915
-0.316603
0.00863825
-0.307274
0.00862146
-0.298584
0.00856567
-0.290521
0.00850564
-0.283094
0.00846509
-0.276334
-0.270086
0.00837386
0.000712482
-0.484126
0.00172745
-0.473575
0.0028188
-0.462815
0.00384173
-0.449802
0.00472434
-0.435287
0.00545275
-0.419933
0.00604399
-0.404444
0.00652435
-0.389377
0.0069169
-0.375064
0.00723627
-0.361648
0.00748748
-0.349152
0.00766607
-0.337528
0.00775805
-0.326699
0.00773879
-0.316583
0.00757002
-0.307105
0.00719484
-0.298208
0.00654225
-0.289868
0.00559896
-0.282151
0.00469268
-0.275427
-0.271144
0.00575159
0.492491
0.000556683
-0.493048
0.49199
0.000501494
0.491509
0.000480834
0.491038
0.000471415
0.490572
0.000465129
0.490112
0.000460283
0.489656
0.000456637
0.489202
0.000453778
0.488751
0.0004512
0.488302
0.000448655
0.487856
0.000445863
0.487413
0.000443069
0.486973
0.000439816
0.486536
0.000437153
0.486103
0.000433064
0.485672
0.000430944
0.48525
0.000421934
0.484833
0.000416785
0.484458
0.000375698
0.000331563
0.488716
0.00116287
-0.489322
0.488064
0.0011536
0.487387
0.00115747
0.486687
0.00117212
0.485962
0.00118947
0.485217
0.00120563
0.484453
0.00122024
0.483674
0.00123337
0.48288
0.00124479
0.482075
0.00125436
0.481259
0.00126193
0.480434
0.00126801
0.479601
0.0012724
0.478762
0.00127644
0.477916
0.00127861
0.477066
0.00128117
0.47621
0.00127775
0.475353
0.00127406
0.474476
0.00125214
0.00123296
0.478144
0.00157889
-0.47856
0.477658
0.0016395
0.477117
0.00169877
0.476528
0.0017609
0.475895
0.00182258
0.475221
0.00188015
0.474508
0.00193264
0.473761
0.00198017
0.472983
0.00202288
0.472177
0.00206091
0.471344
0.00209445
0.470488
0.00212419
0.46961
0.00215051
0.468711
0.00217505
0.467793
0.0021972
0.466855
0.00221868
0.465895
0.00223826
0.464909
0.00225944
0.463884
0.0022775
0.00230158
0.462459
0.0017661
-0.462646
0.4622
0.00189844
0.461876
0.00202312
0.461493
0.00214315
0.461058
0.00225822
0.460572
0.00236618
0.460038
0.00246601
0.459461
0.00255768
0.458842
0.0026414
0.458186
0.00271758
0.457493
0.00278662
0.456768
0.00284952
0.456011
0.0029073
0.455225
0.00296137
0.454409
0.00301305
0.453563
0.0030651
0.452683
0.00311797
0.451767
0.00317528
0.450808
0.00323705
0.00330675
0.444753
0.00176927
-0.444756
0.444682
0.00196951
0.444546
0.00215882
0.444351
0.0023384
0.4441
0.00250884
0.443797
0.00266921
0.443445
0.00281876
0.443045
0.00295731
0.442601
0.00308503
0.442116
0.00320238
0.441593
0.00330998
0.441034
0.00340907
0.44044
0.0035013
0.439812
0.00358844
0.439153
0.00367278
0.438459
0.00375841
0.43773
0.00384756
0.436961
0.00394378
0.436149
0.00404975
0.00416836
0.426746
0.00165588
-0.426633
0.426797
0.00191858
0.426788
0.00216817
0.426721
0.00240478
0.426601
0.00262888
0.42643
0.00284009
0.426211
0.00303788
0.425947
0.00322198
0.425639
0.00339245
0.425292
0.00354969
0.424907
0.00369454
0.424488
0.00382849
0.424036
0.00395312
0.423553
0.00407139
0.423039
0.00418706
0.422493
0.00430396
0.421914
0.00442645
0.421299
0.00455963
0.42064
0.00470799
0.00487556
0.409433
0.00148618
-0.409263
0.409545
0.00180619
0.409602
0.00211137
0.409606
0.00240117
0.409559
0.00267572
0.409464
0.0029347
0.409324
0.00317766
0.409142
0.0034042
0.40892
0.00361425
0.408662
0.00380809
0.40837
0.0039866
0.408047
0.00415143
0.407696
0.00430446
0.407318
0.00444907
0.406915
0.00459027
0.406486
0.00473301
0.406029
0.00488315
0.405541
0.00504791
0.405015
0.00523392
0.00544681
0.393295
0.00130302
-0.393112
0.393425
0.00167619
0.393504
0.00203293
0.393533
0.00237226
0.393514
0.00269392
0.393452
0.00299745
0.393347
0.00328231
0.393203
0.00354794
0.393024
0.00379404
0.392811
0.00402071
0.392569
0.00422881
0.392301
0.00441947
0.39201
0.00459534
0.391698
0.00476063
0.391368
0.00492025
0.39102
0.0050809
0.390653
0.00525084
0.390261
0.00543939
0.389839
0.00565601
0.00590866
0.378462
0.00113202
-0.378291
0.378583
0.00155527
0.378655
0.00196049
0.378681
0.00234641
0.378662
0.00271243
0.378602
0.00305783
0.378502
0.00338189
0.378367
0.00368376
0.378198
0.00396288
0.378
0.00421891
0.377776
0.00445265
0.37753
0.00466473
0.377268
0.00485795
0.376992
0.00503681
0.376705
0.00520723
0.376409
0.00537698
0.376102
0.00555709
0.375782
0.0057598
0.37544
0.00599825
0.00628409
0.364871
0.000985727
-0.364725
0.364969
0.00145689
0.365021
0.00190846
0.365029
0.00233889
0.364994
0.0027473
0.364919
0.00313265
0.364807
0.00349403
0.364661
0.00383007
0.364483
0.00414002
0.36428
0.00442284
0.364053
0.00467886
0.36381
0.0049082
0.363554
0.00511414
0.363291
0.00529978
0.363025
0.00547273
0.36276
0.00564178
0.362496
0.00582107
0.36223
0.00602643
0.361952
0.00627616
0.00658764
0.352385
0.000868337
-0.352268
0.352456
0.00138599
0.352482
0.0018825
0.352465
0.00235608
0.352406
0.00280566
0.352309
0.0032298
0.352176
0.00362738
0.35201
0.00399637
0.351814
0.00433585
0.351593
0.00464368
0.351352
0.00491992
0.351097
0.00516327
0.350833
0.00537756
0.35057
0.00556352
0.350311
0.0057312
0.350064
0.00588843
0.349831
0.00605458
0.349609
0.0062485
0.349388
0.00649656
0.00682456
0.340851
0.000779378
-0.340762
0.340894
0.00134262
0.340893
0.00188322
0.34085
0.00239917
0.340767
0.00288926
0.340645
0.00335162
0.340487
0.00378498
0.340297
0.00418645
0.340078
0.00455504
0.339835
0.00488696
0.339572
0.00518263
0.339298
0.00543739
0.339019
0.00565699
0.338745
0.00583722
0.338484
0.00599234
0.338247
0.00612504
0.338037
0.00626444
0.337857
0.00642874
0.337695
0.00665901
0.00699149
0.330128
0.000716264
-0.330065
0.330146
0.00132457
0.330121
0.00190878
0.330053
0.0024667
0.329945
0.00299705
0.329799
0.00349753
0.329618
0.00396681
0.329403
0.00440092
0.329159
0.0047991
0.328891
0.00515489
0.328604
0.00547012
0.328306
0.00573515
0.328004
0.00595875
0.327714
0.00612706
0.327443
0.00626403
0.327211
0.00635708
0.327019
0.00645563
0.326883
0.00656486
0.326785
0.00675766
0.00707662
0.3201
0.000675869
-0.32006
0.320096
0.00132895
0.320048
0.00195651
0.319959
0.00255624
0.319829
0.0031269
0.319661
0.00366576
0.319456
0.0041715
0.319218
0.00463889
0.318949
0.00506779
0.318656
0.00544821
0.318341
0.00578457
0.318017
0.00605917
0.317688
0.0062877
0.317377
0.0064385
0.317087
0.00655455
0.316854
0.00658933
0.316675
0.00663484
0.316589
0.00665054
0.316564
0.00678325
0.00705696
0.310674
0.000655451
-0.310653
0.310649
0.00135318
0.310582
0.00202394
0.310473
0.00266544
0.310323
0.0032766
0.310135
0.00385429
0.309909
0.00439737
0.309649
0.00489907
0.309356
0.00536031
0.309037
0.0057669
0.308695
0.00612704
0.308342
0.00641167
0.307981
0.00664876
0.307643
0.0067769
0.307324
0.00687385
0.307086
0.00682692
0.306907
0.00681376
0.306881
0.00667646
0.306936
0.0067279
0.0068884
0.301773
0.000653193
-0.301771
0.301731
0.00139553
0.301646
0.00210934
0.301519
0.00279255
0.301351
0.00344443
0.301144
0.0040615
0.300898
0.00464286
0.300617
0.00518021
0.300302
0.00567565
0.299958
0.00611035
0.299587
0.00649812
0.299204
0.00679457
0.298807
0.00704628
0.298435
0.00714827
0.298075
0.00723417
0.297826
0.00707627
0.297629
0.0070101
0.297677
0.00662913
0.297806
0.00659867
0.00648589
0.293338
0.000668404
-0.293354
0.293279
0.00145526
0.293176
0.00221182
0.293032
0.00293654
0.292847
0.00362923
0.292623
0.00428608
0.292359
0.00490658
0.292059
0.00548077
0.291722
0.00601236
0.291355
0.0064775
0.290956
0.00689674
0.290543
0.00720807
0.290106
0.00748287
0.289696
0.00755849
0.289281
0.00764922
0.289008
0.00734867
0.288771
0.00724737
0.288921
0.00647942
0.289087
0.0064326
0.00570439
0.285314
0.000701174
-0.285347
0.285237
0.00153217
0.285118
0.00233071
0.284958
0.00309624
0.284758
0.00382935
0.284519
0.00452591
0.284239
0.00518582
0.283923
0.00579755
0.283568
0.00636665
0.283182
0.00686401
0.28276
0.00731815
0.28232
0.00764824
0.281848
0.00795499
0.281398
0.00800897
0.280918
0.00812841
0.280602
0.00766513
0.280285
0.00756472
0.280585
0.00617938
0.280772
0.00624512
0.00432548
0.277644
0.000751848
-0.277695
0.277551
0.0016255
0.277417
0.00246404
0.277245
0.00326843
0.277034
0.00404031
0.276785
0.00477513
0.276498
0.00547332
0.276174
0.00612164
0.275812
0.00672808
0.275418
0.00725792
0.274988
0.00774859
0.274535
0.0081005
0.274044
0.00844622
0.273566
0.00848744
0.273032
0.00866182
0.272649
0.008048
0.272188
0.00802602
0.272584
0.005784
0.272943
0.00588561
0.0018412
0.270268
-0.270339
0.000822759
0.270158
0.00173516
0.270013
0.00260926
0.269833
0.00344802
0.269619
0.00425436
0.269371
0.00502324
0.269089
0.00575576
0.268774
0.00643667
0.268425
0.0070769
0.268046
0.00763666
0.267633
0.00816183
0.267197
0.00853627
0.266721
0.0089227
0.266245
0.00896318
0.265699
0.00920762
0.265249
0.00849818
0.264618
0.00865735
0.264698
0.00570354
0.26507
0.00551385
-0.0042335
0.496997
0.000116658
-0.497114
0.496953
4.41778e-05
0.496919
3.39237e-05
0.496873
4.54812e-05
0.496809
6.42872e-05
0.496722
8.71997e-05
0.496609
0.00011333
0.496467
0.000141467
0.496297
0.000170273
0.496098
0.000198751
0.495872
0.000226087
0.49562
0.000251959
0.495344
0.000275685
0.495047
0.000297598
0.494731
0.000316167
0.494397
0.000333254
0.494054
0.000343296
0.493701
0.000352615
0.493364
0.000337294
0.000316183
0.490246
-0.000433763
-0.489696
0.490717
-0.000426392
0.491136
-0.00038576
0.491499
-0.000317416
0.4918
-0.000236715
0.492038
-0.000150981
0.492214
-6.20552e-05
0.492326
2.89282e-05
0.492376
0.00012032
0.492364
0.000210549
0.492292
0.000298248
0.492161
0.000382688
0.491974
0.000462832
0.491733
0.000538618
0.491441
0.0006083
0.491102
0.000672653
0.490718
0.000727083
0.490296
0.000774084
0.489831
0.000802747
0.000824799
0.473624
-0.00146454
-0.472593
0.474558
-0.00136031
0.475412
-0.00123931
0.476191
-0.00109637
0.476893
-0.00093924
0.477518
-0.000775494
0.478064
-0.000608599
0.478533
-0.000440252
0.478926
-0.000272164
0.479242
-0.000106052
0.479484
5.64515e-05
0.479653
0.000214274
0.479749
0.000366202
0.479776
0.00051171
0.479735
0.000649284
0.479629
0.000778798
0.479459
0.000897637
0.479226
0.00100675
0.478926
0.00110299
0.00119011
0.452712
-0.00277193
-0.451404
0.453933
-0.0025819
0.455072
-0.00237782
0.456132
-0.0021569
0.457116
-0.00192238
0.45802
-0.00167991
0.458845
-0.00143357
0.459591
-0.00118588
0.460257
-0.000938889
0.460846
-0.000694475
0.461357
-0.000454425
0.461791
-0.000220079
0.46215
7.25435e-06
0.462435
0.000226772
0.462647
0.000437227
0.462788
0.000638139
0.462857
0.000828109
0.462857
0.00100723
0.462785
0.00117436
0.0013293
0.431646
-0.00421204
-0.430206
0.433011
-0.00394716
0.4343
-0.0036661
0.435512
-0.0033695
0.43665
-0.00305972
0.437711
-0.00274109
0.438695
-0.00241783
0.439602
-0.00209316
0.440433
-0.00176964
0.441188
-0.00144937
0.441868
-0.00113425
0.442473
-0.000825745
0.443006
-0.000525176
0.443466
-0.000233457
0.443855
4.83846e-05
0.444173
0.000319725
0.444422
0.00057966
0.444601
0.000827713
0.444712
0.00106334
0.00128545
0.411998
-0.00569421
-0.410516
0.413413
-0.00536199
0.414756
-0.00500955
0.416027
-0.00464007
0.417224
-0.00425684
0.418347
-0.00386423
0.419396
-0.00346672
0.420371
-0.00306809
0.421272
-0.00267134
0.422102
-0.00227883
0.42286
-0.00189252
0.423548
-0.00151387
0.424167
-0.00114413
0.424718
-0.000784207
0.425201
-0.000434953
0.425618
-9.70365e-05
0.425969
0.00022885
0.426255
0.000542039
0.426476
0.00084226
0.0011284
0.394262
-0.00716854
-0.392788
0.395673
-0.00677289
0.397015
-0.0063519
0.398286
-0.00591083
0.399484
-0.00545482
0.400609
-0.00498925
0.401661
-0.00451918
0.402642
-0.00404886
0.403553
-0.00358166
0.404394
-0.00312012
0.405167
-0.00266618
0.405875
-0.00222124
0.406517
-0.00178638
0.407095
-0.00136237
0.40761
-0.000949929
0.408063
-0.000549647
0.408454
-0.000162085
0.408784
0.000212087
0.409053
0.000572667
0.000918536
0.378425
-0.0086131
-0.376981
0.379807
-0.00815517
0.381121
-0.00766575
0.382363
-0.00715244
0.383531
-0.00662287
0.384626
-0.00608406
0.385648
-0.0055419
0.386601
-0.00500109
0.387484
-0.00446526
0.388301
-0.00393706
0.389053
-0.00341833
0.389742
-0.00291024
0.39037
-0.00241362
0.390936
-0.00192904
0.391443
-0.00145701
0.391892
-0.000997991
0.392282
-0.000552419
0.392615
-0.000120943
0.392891
0.000296213
0.000697872
0.364248
-0.0100232
-0.362838
0.365594
-0.00950203
0.366871
-0.00894197
0.368072
-0.00835373
0.369197
-0.00774831
0.370248
-0.00713481
0.371226
-0.00651998
0.372134
-0.00590893
0.372974
-0.00530552
0.37375
-0.00471236
0.374462
-0.00413099
0.375114
-0.00356224
0.375707
-0.00300657
0.376242
-0.00246425
0.376721
-0.0019355
0.377144
-0.00142063
0.377511
-0.000919956
0.377824
-0.000434095
0.378084
3.66638e-05
0.00049108
0.351439
-0.0114034
-0.350059
0.352753
-0.0108163
0.353992
-0.0101811
0.355152
-0.00951316
0.356232
-0.00882824
0.357234
-0.00813762
0.358163
-0.00744877
0.359021
-0.00676719
0.359813
-0.00609684
0.36054
-0.00544006
0.361207
-0.00479787
0.361816
-0.00417057
0.362367
-0.00355813
0.362863
-0.0029604
0.363305
-0.00237727
0.363693
-0.00180883
0.364029
-0.00125528
0.364312
-0.000717222
0.364543
-0.000195039
0.000309961
0.339738
-0.0127631
-0.338378
0.341027
-0.0121053
0.342233
-0.0113874
0.343353
-0.010633
0.344389
-0.00986392
0.345344
-0.00909309
0.346224
-0.0083284
0.347032
-0.00757578
0.347774
-0.00683911
0.348454
-0.00612006
0.349075
-0.00541885
0.34964
-0.00473505
0.35015
-0.00406796
0.350606
-0.00341692
0.35101
-0.0027814
0.351363
-0.00216126
0.351664
-0.00155658
0.351915
-0.00096798
0.352116
-0.000395925
0.000158153
0.328937
-0.014114
-0.327586
0.330209
-0.0133777
0.331387
-0.0125659
0.332471
-0.0117164
0.333464
-0.0108576
0.334374
-0.010003
0.335206
-0.00916043
0.335967
-0.00833648
0.336662
-0.00753445
0.337297
-0.0067548
0.337875
-0.00599661
0.338398
-0.00525851
0.338869
-0.00453898
0.339289
-0.00383666
0.339658
-0.00315061
0.339977
-0.0024804
0.340247
-0.00182604
0.340467
-0.00118814
0.340638
-0.000567325
3.48077e-05
0.318879
-0.0154692
-0.317524
0.320144
-0.0146424
0.321299
-0.0137206
0.322348
-0.0127654
0.323301
-0.0118111
0.324167
-0.0108686
0.324953
-0.00994634
0.325668
-0.00905136
0.326319
-0.00818555
0.326911
-0.00734746
0.327449
-0.00653476
0.327936
-0.0057449
0.328372
-0.00497532
0.328759
-0.00422385
0.329098
-0.00348906
0.329388
-0.00277029
0.329629
-0.00206746
0.329822
-0.00138122
0.329967
-0.000712438
-6.29155e-05
0.309453
-0.0168441
-0.308078
0.310717
-0.0159067
0.31185
-0.0148533
0.312866
-0.0137817
0.313781
-0.0127254
0.314602
-0.0116904
0.315343
-0.010687
0.316014
-0.00972223
0.316623
-0.00879495
0.317177
-0.00790118
0.317679
-0.00703699
0.318133
-0.00619832
0.318539
-0.00538129
0.318898
-0.00458287
0.31921
-0.00380114
0.319475
-0.00303519
0.319692
-0.00228493
0.319862
-0.0015511
0.319984
-0.000834861
-0.000138329
0.300583
-0.0182592
-0.299168
0.301849
-0.0171733
0.30296
-0.0159636
0.303944
-0.0147665
0.304819
-0.0136001
0.305596
-0.012467
0.306291
-0.0113824
0.306919
-0.0103504
0.307489
-0.0093646
0.308006
-0.00841856
0.308476
-0.00750648
0.3089
-0.00662235
0.309279
-0.00576071
0.309614
-0.00491762
0.309903
-0.00409071
0.310147
-0.0032789
0.310344
-0.00248206
0.310494
-0.00170117
0.310597
-0.00093774
-0.000194323
0.292226
-0.0197501
-0.290735
0.29349
-0.0184371
0.294573
-0.0170471
0.295527
-0.0157206
0.296359
-0.014432
0.297087
-0.0131947
0.297735
-0.0120312
0.298321
-0.0109357
0.298851
-0.00989521
0.299334
-0.00890105
0.299773
-0.00794544
0.30017
-0.00701968
0.300526
-0.00611648
0.30084
-0.00523108
0.30111
-0.00436076
0.301335
-0.00350426
0.301514
-0.00266157
0.301647
-0.0018339
0.301733
-0.00102328
-0.000232855
0.284355
-0.021384
-0.282721
0.285609
-0.0196907
0.286658
-0.0180963
0.28758
-0.0166428
0.288362
-0.0152137
0.289033
-0.0138658
0.289631
-0.0126291
0.290171
-0.0114763
0.290662
-0.0103859
0.29111
-0.00934898
0.29152
-0.00835513
0.291892
-0.00739209
0.292226
-0.00645064
0.292521
-0.00552538
0.292773
-0.00461334
0.292982
-0.0037132
0.293146
-0.0028251
0.293262
-0.00195068
0.293332
-0.00109258
-0.000254735
0.276925
-0.0232245
-0.275084
0.278183
-0.0209494
0.279192
-0.0191049
0.280067
-0.0175178
0.280785
-0.0159323
0.281392
-0.0144728
0.281934
-0.0131703
0.282425
-0.0119678
0.282874
-0.0108349
0.283287
-0.00976246
0.283669
-0.00873653
0.284018
-0.00774096
0.284332
-0.00676474
0.284608
-0.00580204
0.284845
-0.00484983
0.285039
-0.00390684
0.285187
-0.00297352
0.285288
-0.00205203
0.285342
-0.00114582
-0.00025988
0.269883
-0.0250201
-0.268088
0.271197
-0.0222633
0.272185
-0.0200929
0.27295
-0.018282
0.273578
-0.0165604
0.274121
-0.0150158
0.274601
-0.0136511
0.275038
-0.0124042
0.275443
-0.0112399
0.275822
-0.0101416
0.276176
-0.00909012
0.276501
-0.00806658
0.276795
-0.00705895
0.277054
-0.00606109
0.277275
-0.00507003
0.277453
-0.00408482
0.277585
-0.00310633
0.277671
-0.00213736
0.277707
-0.00118228
-0.000247507
0.263109
-0.263317
-0.0248121
0.26449
-0.0236443
0.265743
-0.0213457
0.266237
-0.0187758
0.266693
-0.0170164
0.267194
-0.0155175
0.267626
-0.0140831
0.267999
-0.0127772
0.268354
-0.0115945
0.268697
-0.0104845
0.26902
-0.0094134
0.269318
-0.00836476
0.269588
-0.00732828
0.269824
-0.00629728
0.270022
-0.0052686
0.270179
-0.00424183
0.270292
-0.00321858
0.270357
-0.0022023
0.270372
-0.00119805
-0.000213874
0.0281067
0.236424
-0.235226
-0.0293038
0.026874
0.243225
-0.241992
0.0256083
0.250258
-0.248992
0.0243099
0.257566
-0.256267
0.0229792
0.265198
-0.263867
0.0216169
0.273202
-0.27184
0.0202225
0.281627
-0.280232
0.0187936
0.290523
-0.289094
0.0173255
0.299953
-0.298485
0.0158112
0.310006
-0.308491
0.0142418
0.320811
-0.319242
0.0126071
0.332571
-0.330936
0.0108969
0.345581
-0.343871
0.00910432
0.360258
-0.358465
0.00723273
0.377126
-0.375255
0.00530891
0.396739
-0.394815
0.00340567
0.419476
-0.417572
0.00167696
0.44496
-0.443231
0.000405332
0.470275
-0.469003
0.490015
-0.48961
0.0281031
0.237622
-0.0293016
0.0268701
0.244458
0.0256045
0.251523
0.0243058
0.258864
0.022974
0.266529
0.0216096
0.274566
0.020212
0.283024
0.018779
0.291956
0.0173061
0.301426
0.0157866
0.311525
0.014212
0.322386
0.0125724
0.33421
0.0108583
0.347295
0.00906364
0.362053
0.00719381
0.378996
0.00527847
0.398654
0.00339412
0.42136
0.00169711
0.446657
0.000455318
0.471517
0.49047
0.028067
0.238822
-0.0292665
0.0268343
0.24569
0.02557
0.252788
0.0242724
0.260162
0.0229412
0.267861
0.0215765
0.275931
0.0201777
0.284423
0.0187426
0.293391
0.017267
0.302902
0.0157444
0.313048
0.0141665
0.323964
0.012524
0.335853
0.0108078
0.349011
0.00901303
0.363847
0.00714656
0.380862
0.00524045
0.40056
0.00337302
0.423228
0.00169757
0.448332
0.000468272
0.472746
0.490939
0.0279968
0.24002
-0.0291954
0.0267666
0.246921
0.0255054
0.254049
0.0242109
0.261456
0.0228822
0.269189
0.0215192
0.277294
0.020121
0.285821
0.0186858
0.294826
0.0172092
0.304378
0.0156853
0.314572
0.014106
0.325543
0.0124623
0.337497
0.0107457
0.350728
0.00895222
0.365641
0.00708986
0.382725
0.00519225
0.402458
0.00333887
0.425081
0.00168158
0.449989
0.000468172
0.473959
0.491407
0.0278915
0.241215
-0.0290863
0.0266666
0.248146
0.025411
0.255305
0.0241219
0.262745
0.0227978
0.270513
0.0214382
0.278654
0.0200427
0.287217
0.018609
0.29626
0.0171332
0.305854
0.0156096
0.316095
0.0140305
0.327122
0.0123871
0.33914
0.0106716
0.352444
0.00888065
0.367432
0.00702329
0.384582
0.00513452
0.404347
0.00329536
0.42692
0.00165776
0.451627
0.000463507
0.475154
0.49187
0.0277543
0.242403
-0.0289424
0.026537
0.249363
0.0252894
0.256552
0.0240076
0.264027
0.0226898
0.271831
0.0213355
0.280008
0.0199439
0.288608
0.0185133
0.29769
0.0170398
0.307328
0.0155179
0.317617
0.0139402
0.3287
0.0122986
0.340782
0.0105855
0.354157
0.00879841
0.369219
0.00694744
0.386433
0.005069
0.406225
0.00324568
0.428743
0.00162944
0.453243
0.000455726
0.476327
0.492326
0.0275868
0.243582
-0.0287659
0.0263795
0.25057
0.0251419
0.25779
0.0238693
0.2653
0.0225595
0.273141
0.0212119
0.281356
0.0198258
0.289994
0.0183994
0.299117
0.0169294
0.308798
0.0154104
0.319136
0.0138355
0.330275
0.0121969
0.34242
0.0104876
0.355866
0.00870583
0.371001
0.0068629
0.388276
0.00499657
0.408091
0.00319076
0.430549
0.001597
0.454837
0.000445048
0.477479
0.492771
0.0273984
0.244751
-0.0285675
0.0262021
0.251766
0.0249753
0.259017
0.0237126
0.266562
0.0224114
0.274442
0.021071
0.282696
0.0196908
0.291374
0.0182692
0.300538
0.0168033
0.310264
0.015288
0.320652
0.0137168
0.331846
0.0120823
0.344055
0.0103781
0.35757
0.00860314
0.372776
0.00676987
0.390109
0.00491737
0.409944
0.00313059
0.432336
0.00156052
0.456407
0.000431916
0.478608
0.493203
0.0271875
0.245909
-0.0283451
0.0260037
0.25295
0.0247891
0.260231
0.0235373
0.267814
0.0222455
0.275734
0.020913
0.284029
0.0195393
0.292748
0.0181231
0.301954
0.0166619
0.311725
0.015151
0.322162
0.0135843
0.333413
0.0119549
0.345684
0.010257
0.359268
0.00849035
0.374542
0.00666836
0.391931
0.00483139
0.411781
0.00306532
0.434102
0.00152045
0.457952
0.000416937
0.479711
0.49362
0.0269763
0.247056
-0.0281237
0.0258028
0.254124
0.0245982
0.261436
0.0233551
0.269057
0.0220706
0.277019
0.020744
0.285355
0.0193752
0.294117
0.0179635
0.303366
0.0165064
0.313182
0.0149999
0.323669
0.0134382
0.334974
0.0118147
0.347308
0.0101242
0.360959
0.00836727
0.376299
0.00655823
0.39374
0.00473861
0.4136
0.00299508
0.435846
0.00147717
0.45947
0.00040047
0.480788
0.49402
0.0267461
0.248192
-0.0278819
0.0255848
0.255285
0.0243913
0.262629
0.0231578
0.270291
0.0218809
0.278296
0.0205604
0.286676
0.0191965
0.295481
0.017789
0.304774
0.016336
0.314635
0.014834
0.325171
0.0132778
0.336531
0.0116611
0.348924
0.00997925
0.36264
0.00823356
0.378045
0.00643929
0.395535
0.00463906
0.415401
0.00292017
0.437564
0.00143114
0.460959
0.000382956
0.481836
0.494403
0.0265579
0.249324
-0.0276901
0.0253987
0.256444
0.0242062
0.263822
0.0229724
0.271525
0.0216945
0.279573
0.0203731
0.287997
0.019009
0.296845
0.0176023
0.30618
0.0161514
0.316086
0.0146531
0.326669
0.0131023
0.338081
0.0114931
0.350534
0.00982131
0.364312
0.00808859
0.379778
0.00631113
0.397312
0.00453246
0.417179
0.00284038
0.439257