/*--------------------------------*- C++ -*----------------------------------*\
  =========                 |
  \\      /  F ield         | OpenFOAM: The Open Source CFD Toolbox
   \\    /   O peration     | Website:  https://openfoam.org
    \\  /    A nd           | Version:  6.0
     \\/     M anipulation  |
\*---------------------------------------------------------------------------*/
FoamFile
{
    version     2.0;
    format      ascii;
    class       volScalarField;
    location    "8.9985";
    object      p;
}
// * * * * * * * * * * * * * * * * * * * * * * * * * * * * * * * * * * * * * //

dimensions      [0 2 -2 0 0 0 0];

internalField   nonuniform List<scalar> 
19200
(
-7.27381
-6.41076
-5.82406
-5.36992
-4.97095
-4.62111
-4.31254
-4.03655
-3.78708
-3.55976
-3.35125
-3.15897
-2.98085
-2.81529
-2.66093
-2.51669
-2.38164
-2.25499
-2.13608
-2.02429
-1.91912
-1.82009
-1.72681
-1.63888
-1.55599
-1.47783
-1.40414
-1.33467
-1.26915
-1.20749
-7.4566
-6.59284
-6.00386
-5.54623
-5.14309
-4.78868
-4.47527
-4.19433
-3.93986
-3.70758
-3.49419
-3.29713
-3.11439
-2.94434
-2.78567
-2.63728
-2.49827
-2.36783
-2.2453
-2.13007
-2.02163
-1.91949
-1.82325
-1.73252
-1.64696
-1.56628
-1.49021
-1.41844
-1.35069
-1.2872
-7.64426
-6.77828
-6.18646
-5.72514
-5.31767
-4.95853
-4.64015
-4.35411
-4.09452
-3.85715
-3.63876
-3.43681
-3.24932
-3.07469
-2.91161
-2.75899
-2.61592
-2.48162
-2.3554
-2.23667
-2.12489
-2.01959
-1.92034
-1.82676
-1.7385
-1.65526
-1.57676
-1.50267
-1.43264
-1.36731
-7.83516
-6.96666
-6.3717
-5.90649
-5.49453
-5.1305
-4.807
-4.51573
-4.25089
-4.0083
-3.78478
-3.57783
-3.38549
-3.20617
-3.03858
-2.88164
-2.73444
-2.5962
-2.46623
-2.34393
-2.22875
-2.12023
-2.01793
-1.92146
-1.83046
-1.74462
-1.66366
-1.58722
-1.51489
-1.4477
-8.02887
-7.15769
-6.55939
-6.0901
-5.67347
-5.30441
-4.97565
-4.67902
-4.40879
-4.16086
-3.93209
-3.72002
-3.52272
-3.33861
-3.16642
-3.00508
-2.85367
-2.71141
-2.57762
-2.45169
-2.33308
-2.22129
-2.1159
-2.01649
-1.92271
-1.83424
-1.75079
-1.67196
-1.59731
-1.52825
-8.22508
-7.35113
-6.74931
-6.27578
-5.85435
-5.48009
-5.14594
-4.8438
-4.56805
-4.31465
-4.08051
-3.86322
-3.66084
-3.47185
-3.29497
-3.12914
-2.97344
-2.8271
-2.68943
-2.55982
-2.43771
-2.32262
-2.21409
-2.11172
-2.01513
-1.924
-1.83804
-1.75679
-1.67979
-1.60886
-8.42353
-7.54674
-6.94127
-6.46336
-6.03696
-5.65737
-5.31767
-5.00989
-4.72849
-4.4695
-4.22987
-4.00723
-3.79969
-3.60572
-3.42406
-3.25365
-3.0936
-2.94311
-2.8015
-2.66815
-2.54251
-2.42406
-2.31237
-2.207
-2.10757
-2.01376
-1.92526
-1.84158
-1.76222
-1.68941
-8.62397
-7.74428
-7.13505
-6.65262
-6.22111
-5.83606
-5.49067
-5.17712
-4.88993
-4.62522
-4.37999
-4.1519
-3.93908
-3.74003
-3.55351
-3.37846
-3.21397
-3.05928
-2.91368
-2.77655
-2.64732
-2.52549
-2.4106
-2.3022
-2.19992
-2.10341
-2.01236
-1.92622
-1.84448
-1.76981
-8.82617
-7.94354
-7.33044
-6.84336
-6.40662
-6.01595
-5.66474
-5.34528
-5.05218
-4.78163
-4.53068
-4.29703
-4.07884
-3.87463
-3.68315
-3.50338
-3.3344
-3.17544
-3.0258
-2.88484
-2.752
-2.62676
-2.50864
-2.39721
-2.29205
-2.19282
-2.0992
-2.0106
-1.92646
-1.84993
-9.0299
-8.14428
-7.52722
-7.03537
-6.59326
-6.19685
-5.83969
-5.51418
-5.21505
-4.93854
-4.68176
-4.44244
-4.21878
-4.00931
-3.81281
-3.62825
-3.45472
-3.29144
-3.13771
-2.9929
-2.85641
-2.72773
-2.60637
-2.49187
-2.38382
-2.28187
-2.18568
-2.0946
-2.00806
-1.92969
-9.23493
-8.34628
-7.72517
-7.22844
-6.78084
-6.37855
-6.01531
-5.68363
-5.37834
-5.09575
-4.83302
-4.58794
-4.35872
-4.14391
-3.94232
-3.7529
-3.57476
-3.40712
-3.24926
-3.10055
-2.9604
-2.82826
-2.70364
-2.58607
-2.47512
-2.37045
-2.27168
-2.17813
-2.08919
-2.00899
-9.44104
-8.54932
-7.92408
-7.42236
-6.96914
-6.56085
-6.1914
-5.85342
-5.54185
-5.25306
-4.98429
-4.73334
-4.49847
-4.27825
-4.07149
-3.87715
-3.69436
-3.52231
-3.36029
-3.20766
-3.06381
-2.9282
-2.80031
-2.67967
-2.56583
-2.45843
-2.35709
-2.26106
-2.16973
-2.08773
-9.648
-8.75317
-8.12372
-7.6169
-7.15795
-6.74354
-6.36774
-6.02335
-5.70538
-5.41029
-5.13536
-4.87846
-4.63786
-4.41215
-4.20015
-4.00084
-3.81334
-3.63685
-3.47065
-3.31407
-3.16652
-3.02743
-2.89627
-2.77255
-2.65582
-2.5457
-2.44179
-2.34331
-2.24958
-2.16581
-9.85559
-8.95762
-8.32387
-7.81185
-7.34706
-6.9264
-6.54414
-6.19321
-5.86872
-5.56723
-5.28605
-5.0231
-4.77668
-4.54542
-4.32812
-4.1238
-3.93155
-3.75059
-3.58017
-3.41964
-3.26837
-3.12579
-2.99136
-2.86457
-2.74497
-2.63214
-2.52569
-2.42475
-2.32866
-2.24315
-10.0636
-9.16243
-8.52432
-8.007
-7.53624
-7.10922
-6.72039
-6.3628
-6.03169
-5.72368
-5.43616
-5.16708
-4.91477
-4.67788
-4.45524
-4.24586
-4.04883
-3.86336
-3.68871
-3.52421
-3.36922
-3.22316
-3.08546
-2.95562
-2.83314
-2.71763
-2.60865
-2.50529
-2.40684
-2.31964
-10.2717
-9.36738
-8.72484
-8.20212
-7.72529
-7.29179
-6.89626
-6.53191
-6.19407
-5.87944
-5.58549
-5.3102
-5.05194
-4.80937
-4.58134
-4.36685
-4.16501
-3.97501
-3.79612
-3.62764
-3.46893
-3.31938
-3.17844
-3.04555
-2.92022
-2.80204
-2.69056
-2.5848
-2.48402
-2.39516
-10.4798
-9.57226
-8.92521
-8.397
-7.91399
-7.47389
-7.07156
-6.70033
-6.35566
-6.03433
-5.73386
-5.45229
-5.18801
-4.9397
-4.70623
-4.4866
-4.27993
-4.08539
-3.90224
-3.72978
-3.56735
-3.41433
-3.27014
-3.13423
-3.00608
-2.88525
-2.7713
-2.66316
-2.56007
-2.46961
-10.6876
-9.77685
-9.12522
-8.59142
-8.10212
-7.65532
-7.24607
-6.86786
-6.51626
-6.18814
-5.88108
-5.59315
-5.3228
-5.06871
-4.82977
-4.60497
-4.39344
-4.19435
-4.00693
-3.83049
-3.66434
-3.50786
-3.36044
-3.22152
-3.09056
-2.96712
-2.85073
-2.74024
-2.63488
-2.54287
-10.895
-9.98093
-9.32465
-8.78517
-8.28948
-7.83587
-7.41959
-7.03431
-6.67569
-6.34069
-6.02697
-5.73263
-5.45614
-5.19623
-4.95178
-4.7218
-4.50539
-4.30173
-4.11005
-3.92962
-3.75977
-3.59983
-3.4492
-3.30729
-3.17354
-3.04751
-2.9287
-2.81591
-2.70829
-2.61479
-11.1016
-10.1843
-9.5233
-8.97803
-8.47584
-8.01532
-7.59192
-7.19946
-6.83374
-6.49179
-6.17133
-5.87053
-5.58788
-5.32211
-5.07213
-4.83694
-4.61564
-4.40741
-4.21146
-4.02705
-3.85349
-3.6901
-3.53627
-3.39138
-3.25487
-3.12627
-3.00507
-2.88999
-2.78015
-2.68519
-11.3074
-10.3868
-9.72096
-9.1698
-8.66101
-8.19346
-7.76284
-7.36312
-6.99022
-6.64126
-6.31401
-6.0067
-5.71784
-5.44619
-5.19065
-4.95024
-4.72406
-4.51125
-4.31103
-4.12264
-3.94537
-3.77855
-3.62151
-3.47365
-3.33438
-3.20323
-3.07966
-2.96231
-2.85025
-2.75388
-11.5122
-10.5881
-9.91743
-9.36027
-8.84477
-8.37009
-7.93216
-7.5251
-7.14494
-6.78891
-6.45483
-6.14097
-5.84588
-5.56833
-5.30723
-5.06159
-4.83051
-4.61313
-4.40864
-4.21628
-4.03531
-3.86504
-3.7048
-3.55396
-3.41193
-3.27822
-3.15228
-3.03266
-2.91837
-2.8206
-11.7158
-10.7882
-10.1125
-9.54924
-9.0269
-8.54501
-8.09968
-7.68521
-7.29773
-6.93457
-6.59363
-6.27319
-5.97185
-5.68839
-5.42173
-5.17087
-4.9349
-4.71295
-4.50419
-4.30786
-4.12318
-3.94946
-3.78602
-3.63219
-3.48737
-3.35107
-3.22273
-3.10082
-2.98425
-2.88505
-11.9181
-10.9869
-10.306
-9.73648
-9.2072
-8.71799
-8.26519
-7.84324
-7.4484
-7.07808
-6.73024
-6.40322
-6.09562
-5.80626
-5.53404
-5.27797
-5.03712
-4.81062
-4.59761
-4.3973
-4.20893
-4.03174
-3.86506
-3.70821
-3.56056
-3.42162
-3.29083
-3.16656
-3.04759
-2.9469
-12.1191
-11.1839
-10.4977
-9.92177
-9.38545
-8.88883
-8.42849
-7.99901
-7.59678
-7.21928
-6.86453
-6.53091
-6.21707
-5.92182
-5.64406
-5.38281
-5.13711
-4.90607
-4.68883
-4.48457
-4.29248
-4.11183
-3.94189
-3.78196
-3.63142
-3.48975
-3.35639
-3.22962
-3.10807
-3.00575
-12.3187
-11.3792
-10.6873
-10.1049
-9.5614
-9.05731
-8.58938
-8.15234
-7.74269
-7.35799
-6.99634
-6.65615
-6.33609
-6.03497
-5.75172
-5.48531
-5.23481
-4.99927
-4.77783
-4.56963
-4.37386
-4.18973
-4.0165
-3.85345
-3.69993
-3.5554
-3.41931
-3.28984
-3.16541
-3.06101
-12.5171
-11.5724
-10.8746
-10.2855
-9.73481
-9.2232
-8.74764
-8.30303
-7.88595
-7.49408
-7.12554
-6.77881
-6.45256
-6.14563
-5.85692
-5.58543
-5.33017
-5.0902
-4.86461
-4.65252
-4.45309
-4.2655
-4.08898
-3.92277
-3.76619
-3.61868
-3.4797
-3.34728
-3.21945
-3.11208
-12.7153
-11.7636
-11.0593
-10.4634
-9.90536
-9.38621
-8.90304
-8.45086
-8.02639
-7.62736
-7.25198
-6.89875
-6.56638
-6.25369
-5.95961
-5.68311
-5.42317
-5.17884
-4.94918
-4.73328
-4.53025
-4.33926
-4.15947
-3.9901
-3.83039
-3.67978
-3.53767
-3.40186
-3.26965
-3.15858
-12.9147
-11.9527
-11.2408
-10.6379
-10.0727
-9.54607
-9.05534
-8.59565
-8.16383
-7.75769
-7.37552
-7.01586
-6.67743
-6.35908
-6.05972
-5.77828
-5.51377
-5.26519
-5.03157
-4.81198
-4.60549
-4.41121
-4.22827
-4.05581
-3.893
-3.73915
-3.5934
-3.45297
-3.31484
-3.2002
-13.1075
-12.1364
-11.4179
-10.8087
-10.2367
-9.70276
-9.20456
-8.73741
-8.29828
-7.8851
-7.4962
-7.13017
-6.78576
-6.46183
-6.15727
-5.87101
-5.60204
-5.34933
-5.11189
-4.88875
-4.67898
-4.48165
-4.29585
-4.12071
-3.95533
-3.79884
-3.64987
-3.5054
-3.36374
-3.24426
-16.4011
-16.3766
-16.3424
-16.3036
-16.2593
-16.2088
-16.1519
-16.0887
-16.0192
-15.9433
-15.861
-15.7725
-15.6779
-15.5772
-15.4706
-15.3581
-15.24
-15.1163
-14.9872
-14.8529
-14.7135
-14.5692
-14.4202
-14.2667
-14.1088
-13.9469
-13.7812
-13.6122
-13.4405
-13.2688
-15.3607
-15.3412
-15.3129
-15.2781
-15.2368
-15.1888
-15.1344
-15.0734
-15.0061
-14.9325
-14.8525
-14.7664
-14.6742
-14.576
-14.472
-14.3621
-14.2467
-14.1258
-13.9995
-13.868
-13.7315
-13.5902
-13.4441
-13.2936
-13.1388
-12.9799
-12.8172
-12.6511
-12.4818
-12.3098
-14.517
-14.5014
-14.4779
-14.4473
-14.4099
-14.3659
-14.3153
-14.2583
-14.1949
-14.1252
-14.0493
-13.9673
-13.8793
-13.7854
-13.6857
-13.5803
-13.4693
-13.3529
-13.2312
-13.1044
-12.9726
-12.8359
-12.6946
-12.5488
-12.3988
-12.2446
-12.0865
-11.9247
-11.7593
-11.5904
-13.7496
-13.7377
-13.7185
-13.6924
-13.6595
-13.62
-13.5742
-13.5219
-13.4634
-13.3986
-13.3278
-13.2509
-13.1682
-13.0796
-12.9853
-12.8854
-12.78
-12.6693
-12.5533
-12.4323
-12.3063
-12.1755
-12.0401
-11.9003
-11.7561
-11.6078
-11.4555
-11.2993
-11.1395
-10.976
-13.0033
-12.995
-12.98
-12.9583
-12.93
-12.8954
-12.8544
-12.8072
-12.7539
-12.6945
-12.6292
-12.5579
-12.4809
-12.3981
-12.3098
-12.2159
-12.1167
-12.0123
-11.9027
-11.788
-11.6686
-11.5443
-11.4155
-11.2823
-11.1447
-11.003
-10.8573
-10.7078
-10.5544
-10.3974
-12.2899
-12.2851
-12.274
-12.2565
-12.2327
-12.2027
-12.1666
-12.1244
-12.0763
-12.0223
-11.9624
-11.8969
-11.8257
-11.7489
-11.6667
-11.5791
-11.4863
-11.3883
-11.2853
-11.1773
-11.0646
-10.9472
-10.8253
-10.6991
-10.5685
-10.4338
-10.2952
-10.1526
-10.0063
-9.85638
-11.6146
-11.613
-11.6054
-11.5917
-11.572
-11.5463
-11.5147
-11.4773
-11.4341
-11.3852
-11.3307
-11.2707
-11.2051
-11.1342
-11.058
-10.9766
-10.8901
-10.7985
-10.7021
-10.6008
-10.4949
-10.3844
-10.2695
-10.1502
-10.0268
-9.89924
-9.76777
-9.63245
-9.49342
-9.35078
-10.9779
-10.9791
-10.9745
-10.9641
-10.948
-10.9262
-10.8987
-10.8656
-10.8269
-10.7828
-10.7333
-10.6784
-10.6183
-10.5529
-10.4824
-10.4069
-10.3264
-10.241
-10.1509
-10.0562
-9.95685
-9.85308
-9.74498
-9.63264
-9.51619
-9.39575
-9.27141
-9.1433
-9.01153
-8.87622
-10.3801
-10.3835
-10.3815
-10.3739
-10.3609
-10.3424
-10.3185
-10.2893
-10.2547
-10.2149
-10.1699
-10.1197
-10.0645
-10.0042
-9.93907
-9.86904
-9.79423
-9.71473
-9.63063
-9.54202
-9.44899
-9.35164
-9.25007
-9.14439
-9.0347
-8.92111
-8.80372
-8.68263
-8.55796
-8.42983
-9.8209
-9.82606
-9.8261
-9.82087
-9.81041
-9.79477
-9.77397
-9.74805
-9.71705
-9.68103
-9.64004
-9.59412
-9.54334
-9.48775
-9.42744
-9.36245
-9.29287
-9.21878
-9.14025
-9.05738
-8.97024
-8.87893
-8.78353
-8.68415
-8.58088
-8.47382
-8.36306
-8.24871
-8.13087
-8.00965
-9.29933
-9.30583
-9.30746
-9.30408
-9.29573
-9.28245
-9.26426
-9.24117
-9.21324
-9.18053
-9.14306
-9.10089
-9.05406
-9.00264
-8.94669
-8.88627
-8.82145
-8.75229
-8.67888
-8.60128
-8.51959
-8.43388
-8.34423
-8.25074
-8.15348
-8.05256
-7.94807
-7.84009
-7.72873
-7.61409
-8.81397
-8.82142
-8.82423
-8.82229
-8.81562
-8.80425
-8.7882
-8.7675
-8.74218
-8.7123
-8.67788
-8.63897
-8.59563
-8.54789
-8.49583
-8.43949
-8.37894
-8.31424
-8.24547
-8.17269
-8.09598
-8.01541
-7.93106
-7.84301
-7.75134
-7.65614
-7.5575
-7.45549
-7.35021
-7.24177
-8.36302
-8.37109
-8.37474
-8.37387
-8.36849
-8.35865
-8.34435
-8.32561
-8.30247
-8.27499
-8.24319
-8.20711
-8.16679
-8.12228
-8.07364
-8.02093
-7.96419
-7.90349
-7.8389
-7.77047
-7.69828
-7.6224
-7.5429
-7.45985
-7.37332
-7.28341
-7.19018
-7.09373
-6.99412
-6.89147
-7.94447
-7.95287
-7.95707
-7.95696
-7.95256
-7.9439
-7.93099
-7.91386
-7.89254
-7.86707
-7.83749
-7.80383
-7.76613
-7.72444
-7.67881
-7.62929
-7.57593
-7.5188
-7.45795
-7.39344
-7.32533
-7.25369
-7.17859
-7.1001
-7.01829
-6.93323
-6.84499
-6.75366
-6.65932
-6.56204
-7.55617
-7.56469
-7.5692
-7.56959
-7.56589
-7.55813
-7.54632
-7.53048
-7.51066
-7.48688
-7.45917
-7.42757
-7.39213
-7.35288
-7.30988
-7.26317
-7.2128
-7.15883
-7.10131
-7.0403
-6.97587
-6.90806
-6.83695
-6.7626
-6.68508
-6.60445
-6.5208
-6.43418
-6.34468
-6.25238
-7.19595
-7.20442
-7.20903
-7.20972
-7.20651
-7.19942
-7.18846
-7.17365
-7.15505
-7.13267
-7.10654
-7.0767
-7.0432
-7.00606
-6.96535
-6.9211
-6.87336
-6.8222
-6.76765
-6.70977
-6.64863
-6.58427
-6.51676
-6.44616
-6.37254
-6.29595
-6.21648
-6.13418
-6.04913
-5.96142
-6.86166
-6.86993
-6.87452
-6.87534
-6.87244
-6.86583
-6.85551
-6.84153
-6.82391
-6.80269
-6.77789
-6.74955
-6.71771
-6.68241
-6.64369
-6.60159
-6.55618
-6.50749
-6.45558
-6.4005
-6.3423
-6.28105
-6.21678
-6.14958
-6.07949
-6.00657
-5.93091
-5.85256
-5.77159
-5.6881
-6.55123
-6.55921
-6.56365
-6.56449
-6.56176
-6.55548
-6.54565
-6.53231
-6.5155
-6.49523
-6.47155
-6.44448
-6.41407
-6.38035
-6.34337
-6.30317
-6.25981
-6.21332
-6.16375
-6.11117
-6.05561
-5.99714
-5.9358
-5.87166
-5.80477
-5.73519
-5.66299
-5.58824
-5.511
-5.43138
-6.26269
-6.27031
-6.27453
-6.27529
-6.27263
-6.26655
-6.25708
-6.24425
-6.22809
-6.20862
-6.18588
-6.15989
-6.13071
-6.09837
-6.06291
-6.02438
-5.98282
-5.93829
-5.89081
-5.84046
-5.78727
-5.73131
-5.67261
-5.61123
-5.54724
-5.48069
-5.41164
-5.34016
-5.26634
-5.19025
-5.99419
-6.00141
-6.00535
-6.00597
-6.0033
-5.99735
-5.98813
-5.97569
-5.96006
-5.94126
-5.91931
-5.89426
-5.86615
-5.83501
-5.80088
-5.76382
-5.72387
-5.68107
-5.63547
-5.58711
-5.53605
-5.48234
-5.42603
-5.36716
-5.3058
-5.24199
-5.1758
-5.1073
-5.03658
-4.96373
-5.74404
-5.75083
-5.75446
-5.75489
-5.75215
-5.74626
-5.73723
-5.72509
-5.70989
-5.69164
-5.67037
-5.64613
-5.61895
-5.58886
-5.55592
-5.52016
-5.48164
-5.44039
-5.39646
-5.3499
-5.30076
-5.24909
-5.19494
-5.13834
-5.07936
-5.01804
-4.95446
-4.88867
-4.82076
-4.75086
-5.51067
-5.51702
-5.52032
-5.52053
-5.51769
-5.51181
-5.5029
-5.491
-5.47615
-5.45837
-5.43769
-5.41415
-5.38778
-5.35862
-5.32673
-5.29213
-5.25488
-5.21503
-5.17261
-5.12767
-5.08027
-5.03045
-4.97825
-4.92372
-4.8669
-4.80786
-4.74663
-4.68329
-4.61793
-4.55072
-5.29265
-5.29856
-5.30152
-5.3015
-5.29852
-5.29262
-5.28379
-5.27208
-5.25753
-5.24015
-5.21997
-5.19704
-5.17139
-5.14307
-5.1121
-5.07855
-5.04245
-5.00385
-4.96279
-4.91932
-4.8735
-4.82535
-4.77493
-4.72229
-4.66745
-4.61047
-4.55139
-4.49028
-4.42721
-4.36242
-5.08868
-5.09416
-5.09677
-5.09651
-5.0934
-5.08744
-5.07867
-5.06711
-5.05281
-5.03577
-5.01604
-4.99365
-4.96865
-4.94106
-4.91094
-4.87832
-4.84326
-4.80579
-4.76597
-4.72384
-4.67944
-4.63283
-4.58404
-4.53312
-4.48009
-4.42501
-4.36788
-4.30879
-4.24776
-4.18513
-4.89758
-4.90264
-4.90492
-4.90442
-4.90116
-4.89514
-4.8864
-4.87497
-4.86087
-4.84414
-4.8248
-4.8029
-4.77847
-4.75155
-4.72218
-4.69042
-4.65629
-4.61986
-4.58116
-4.54025
-4.49717
-4.45196
-4.40467
-4.35533
-4.30397
-4.25062
-4.19529
-4.13803
-4.0788
-4.01811
-4.71829
-4.72294
-4.7249
-4.72416
-4.72074
-4.71464
-4.70591
-4.69458
-4.68066
-4.66419
-4.6452
-4.62373
-4.59981
-4.57349
-4.54481
-4.51381
-4.48054
-4.44504
-4.40737
-4.36757
-4.32568
-4.28176
-4.23584
-4.18796
-4.13814
-4.0864
-4.03272
-3.97713
-3.91946
-3.86057
-4.54987
-4.55413
-4.55577
-4.55478
-4.55119
-4.54501
-4.53627
-4.525
-4.51123
-4.49498
-4.47628
-4.45518
-4.43171
-4.40592
-4.37784
-4.34753
-4.31501
-4.28035
-4.2436
-4.20479
-4.16398
-4.12121
-4.07653
-4.02997
-3.98156
-3.93129
-3.87912
-3.82503
-3.76864
-3.71146
-4.39145
-4.3954
-4.3968
-4.39565
-4.39195
-4.38574
-4.37703
-4.36587
-4.35226
-4.33625
-4.31786
-4.29713
-4.2741
-4.24881
-4.22131
-4.19164
-4.15984
-4.12596
-4.09005
-4.05217
-4.01235
-3.97065
-3.92712
-3.88179
-3.83469
-3.78581
-3.73508
-3.68241
-3.62698
-3.57111
-4.2421
-4.24592
-4.24725
-4.2461
-4.24247
-4.23639
-4.22789
-4.217
-4.20373
-4.18813
-4.17021
-4.15003
-4.12762
-4.10301
-4.07626
-4.04741
-4.0165
-3.98359
-3.94872
-3.91195
-3.87332
-3.83289
-3.79072
-3.74683
-3.70128
-3.65406
-3.6051
-3.55422
-3.50011
-3.44575
-4.10112
-4.10416
-4.10482
-4.1031
-4.09901
-4.09257
-4.08381
-4.07276
-4.05945
-4.04389
-4.02614
-4.00622
-3.98417
-3.96003
-3.93385
-3.90566
-3.87553
-3.84349
-3.8096
-3.77391
-3.73647
-3.69733
-3.65656
-3.61421
-3.57033
-3.52496
-3.4781
-3.42955
-3.37801
-3.33042
-13.9133
-14.0711
-14.2203
-14.3692
-14.5162
-14.6597
-14.7992
-14.9343
-15.0648
-15.1902
-15.3104
-15.425
-15.5339
-15.637
-15.734
-15.8248
-15.9093
-15.9873
-16.0588
-16.1236
-16.1817
-16.2331
-16.2775
-16.3151
-16.3458
-16.3696
-16.3866
-16.397
-16.401
-16.4003
-12.8717
-13.0337
-13.1886
-13.3399
-13.4875
-13.6309
-13.7698
-13.9042
-14.0338
-14.1583
-14.2776
-14.3915
-14.4998
-14.6023
-14.6988
-14.7892
-14.8735
-14.9514
-15.0228
-15.0878
-15.1461
-15.1977
-15.2426
-15.2807
-15.3121
-15.3366
-15.3544
-15.3656
-15.3701
-15.3682
-12.0137
-12.1754
-12.3315
-12.4829
-12.63
-12.7727
-12.911
-13.0447
-13.1736
-13.2975
-13.4163
-13.5298
-13.6379
-13.7403
-13.8369
-13.9276
-14.0122
-14.0907
-14.1629
-14.2287
-14.2881
-14.341
-14.3873
-14.427
-14.46
-14.4863
-14.506
-14.5189
-14.5251
-14.5244
-11.2343
-11.3934
-11.5479
-11.698
-11.8437
-11.9852
-12.1222
-12.2548
-12.3827
-12.5057
-12.6238
-12.7368
-12.8445
-12.9467
-13.0433
-13.1343
-13.2193
-13.2985
-13.3715
-13.4384
-13.4991
-13.5535
-13.6014
-13.6429
-13.678
-13.7065
-13.7285
-13.7438
-13.7525
-13.7545
-10.4863
-10.6419
-10.7937
-10.9413
-11.0848
-11.2242
-11.3594
-11.4902
-11.6165
-11.7382
-11.8551
-11.967
-12.0739
-12.1756
-12.2719
-12.3627
-12.4479
-12.5273
-12.601
-12.6687
-12.7304
-12.7861
-12.8356
-12.8788
-12.9158
-12.9465
-12.9708
-12.9887
-13.0001
-13.005
-9.78439
-9.93599
-10.0842
-10.2286
-10.3692
-10.5058
-10.6385
-10.7669
-10.8911
-11.0108
-11.1259
-11.2364
-11.342
-11.4426
-11.538
-11.6283
-11.7131
-11.7925
-11.8664
-11.9345
-11.9969
-12.0535
-12.1041
-12.1488
-12.1875
-12.2201
-12.2465
-12.2668
-12.2808
-12.2885
-9.13428
-9.28145
-9.42559
-9.56621
-9.70323
-9.83655
-9.96607
-10.0916
-10.2131
-10.3304
-10.4433
-10.5517
-10.6556
-10.7546
-10.8488
-10.938
-11.022
-11.1009
-11.1744
-11.2425
-11.3051
-11.3622
-11.4136
-11.4593
-11.4992
-11.5333
-11.5616
-11.5838
-11.6001
-11.6104
-8.53555
-8.67803
-8.81771
-8.95415
-9.08721
-9.2168
-9.3428
-9.46507
-9.58347
-9.69787
-9.80813
-9.91412
-10.0157
-10.1128
-10.2052
-10.2929
-10.3757
-10.4536
-10.5264
-10.594
-10.6564
-10.7134
-10.7651
-10.8114
-10.8521
-10.8873
-10.9168
-10.9407
-10.9589
-10.9713
-7.98663
-8.12426
-8.25929
-8.3913
-8.52015
-8.64574
-8.76794
-8.88661
-9.00161
-9.11282
-9.22009
-9.32332
-9.42236
-9.5171
-9.60743
-9.69323
-9.7744
-9.85085
-9.92247
-9.98919
-10.0509
-10.1076
-10.1591
-10.2055
-10.2466
-10.2823
-10.3128
-10.3378
-10.3574
-10.3716
-7.48505
-7.61779
-7.74809
-7.87555
-8.00005
-8.12149
-8.23971
-8.3546
-8.46601
-8.57381
-8.67788
-8.77809
-8.87432
-8.96646
-9.05439
-9.13802
-9.21723
-9.29195
-9.36207
-9.42752
-9.48822
-9.5441
-9.5951
-9.64114
-9.68219
-9.71819
-9.74908
-9.77484
-9.79543
-9.81083
-7.02766
-7.15554
-7.28111
-7.40402
-7.52413
-7.64135
-7.75553
-7.86654
-7.97425
-8.07852
-8.17924
-8.27629
-8.36954
-8.45888
-8.54422
-8.62545
-8.70248
-8.77522
-8.84357
-8.90748
-8.96685
-9.02164
-9.07176
-9.11718
-9.15783
-9.19367
-9.22465
-9.25075
-9.27192
-9.28816
-6.61093
-6.73404
-6.85496
-6.97337
-7.08914
-7.20217
-7.31231
-7.41943
-7.52341
-7.62411
-7.72142
-7.81522
-7.9054
-7.99185
-8.07446
-8.15315
-8.22783
-8.29841
-8.3648
-8.42695
-8.48478
-8.53822
-8.58722
-8.63173
-8.6717
-8.70708
-8.73784
-8.76394
-8.78535
-8.80208
-6.23124
-6.34972
-6.46613
-6.58015
-6.69167
-6.80058
-6.90675
-7.01004
-7.11032
-7.20747
-7.30138
-7.39192
-7.47899
-7.56249
-7.64232
-7.71839
-7.79062
-7.85892
-7.92323
-7.98348
-8.03959
-8.09152
-8.1392
-8.1826
-8.22165
-8.25634
-8.28661
-8.31245
-8.33382
-8.35073
-5.88506
-5.99909
-6.11113
-6.22091
-6.32832
-6.43325
-6.53555
-6.6351
-6.73177
-6.82543
-6.91598
-7.00329
-7.08728
-7.16783
-7.24487
-7.31829
-7.38803
-7.45401
-7.51616
-7.57441
-7.62871
-7.679
-7.72523
-7.76735
-7.80534
-7.83914
-7.86874
-7.8941
-7.91519
-7.93204
-5.56903
-5.67878
-5.78665
-5.89236
-5.99583
-6.09692
-6.19549
-6.29143
-6.3846
-6.47487
-6.56215
-6.64631
-6.72727
-6.80492
-6.87919
-6.94998
-7.01723
-7.08087
-7.14083
-7.19705
-7.24947
-7.29805
-7.34274
-7.3835
-7.4203
-7.45309
-7.48186
-7.50658
-7.52722
-7.5438
-5.28001
-5.3857
-5.48957
-5.59142
-5.69111
-5.78854
-5.88355
-5.97602
-6.06583
-6.15284
-6.23695
-6.31806
-6.39608
-6.4709
-6.54246
-6.61067
-6.67547
-6.73678
-6.79456
-6.84874
-6.89927
-6.94611
-6.98922
-7.02855
-7.06408
-7.09578
-7.12361
-7.14757
-7.16763
-7.18381
-5.01517
-5.11697
-5.21706
-5.31523
-5.41135
-5.5053
-5.59692
-5.68609
-5.77268
-5.85657
-5.93764
-6.01582
-6.09099
-6.16308
-6.232
-6.2977
-6.3601
-6.41914
-6.47477
-6.52693
-6.57559
-6.62069
-6.66219
-6.70008
-6.7343
-6.76485
-6.79169
-6.81481
-6.8342
-6.84986
-4.77191
-4.87002
-4.96653
-5.06122
-5.15396
-5.24462
-5.33304
-5.41907
-5.5026
-5.58351
-5.66169
-5.73704
-5.80949
-5.87894
-5.94534
-6.00861
-6.06868
-6.12552
-6.17905
-6.22925
-6.27605
-6.31944
-6.35936
-6.39579
-6.42871
-6.45808
-6.48389
-6.50613
-6.52478
-6.53986
-4.54793
-4.64253
-4.73565
-4.82707
-4.91664
-5.0042
-5.08958
-5.17266
-5.25329
-5.33136
-5.40678
-5.47945
-5.54929
-5.61622
-5.68019
-5.74112
-5.79896
-5.85367
-5.90518
-5.95346
-5.99848
-6.04018
-6.07855
-6.11355
-6.14517
-6.17337
-6.19814
-6.21947
-6.23736
-6.2518
-4.34115
-4.43241
-4.52235
-4.61071
-4.6973
-4.78195
-4.86449
-4.94477
-5.02265
-5.09804
-5.17083
-5.24095
-5.3083
-5.37283
-5.43447
-5.49317
-5.54888
-5.60153
-5.65111
-5.69755
-5.74083
-5.78092
-5.81778
-5.85139
-5.88172
-5.90877
-5.93251
-5.95294
-5.97004
-5.98383
-4.14974
-4.23782
-4.32478
-4.41029
-4.49411
-4.57604
-4.65591
-4.73355
-4.80885
-4.88169
-4.95199
-5.01967
-5.08466
-5.1469
-5.20633
-5.2629
-5.31656
-5.36727
-5.41498
-5.45966
-5.50128
-5.53981
-5.57521
-5.60748
-5.63658
-5.6625
-5.68523
-5.70476
-5.72108
-5.73421
-3.97204
-4.0571
-4.14132
-4.2242
-4.30544
-4.38484
-4.4622
-4.53736
-4.61021
-4.68064
-4.74858
-4.81395
-4.8767
-4.93676
-4.99409
-5.04863
-5.10034
-5.14919
-5.19513
-5.23813
-5.27816
-5.3152
-5.34922
-5.38019
-5.4081
-5.43294
-5.45469
-5.47335
-5.48891
-5.50138
-3.80656
-3.88876
-3.9705
-4.05098
-4.12986
-4.2069
-4.28191
-4.35473
-4.42526
-4.49342
-4.55912
-4.6223
-4.68292
-4.74091
-4.79624
-4.84886
-4.89872
-4.9458
-4.99006
-5.03146
-5.06999
-5.1056
-5.13829
-5.16803
-5.19481
-5.21861
-5.23942
-5.25724
-5.27206
-5.28389
-3.6519
-3.73144
-3.81102
-3.88936
-3.96606
-4.04093
-4.11374
-4.18436
-4.2527
-4.31869
-4.38227
-4.44338
-4.50197
-4.55801
-4.61144
-4.66224
-4.71035
-4.75576
-4.79842
-4.83831
-4.8754
-4.90967
-4.9411
-4.96968
-4.99537
-5.01818
-5.0381
-5.05511
-5.06922
-5.08043
-3.50678
-3.58395
-3.66179
-3.73825
-3.81299
-3.88584
-3.95659
-4.02513
-4.0914
-4.15534
-4.2169
-4.27604
-4.33272
-4.38689
-4.43853
-4.4876
-4.53405
-4.57787
-4.61902
-4.65748
-4.69322
-4.72622
-4.75646
-4.78392
-4.80859
-4.83046
-4.84952
-4.86577
-4.8792
-4.88983
-3.37002
-3.4455
-3.52217
-3.59699
-3.66994
-3.74091
-3.80971
-3.87627
-3.94055
-4.00253
-4.06216
-4.11942
-4.17427
-4.22667
-4.2766
-4.32402
-4.36889
-4.4112
-4.45091
-4.48801
-4.52246
-4.55424
-4.58335
-4.60975
-4.63345
-4.65442
-4.67267
-4.68819
-4.70096
-4.71102
-3.23956
-3.31491
-3.39131
-3.46472
-3.536
-3.60521
-3.67214
-3.73679
-3.79917
-3.85927
-3.91706
-3.97252
-4.02563
-4.07635
-4.12465
-4.1705
-4.21388
-4.25476
-4.29311
-4.32891
-4.36214
-4.39278
-4.42081
-4.44621
-4.46899
-4.48911
-4.50658
-4.5214
-4.53356
-4.54307
-3.11021
-3.18748
-3.26526
-3.33771
-3.40758
-3.47522
-3.54048
-3.60341
-3.66408
-3.7225
-3.77866
-3.83254
-3.8841
-3.93334
-3.98021
-4.0247
-4.06678
-4.10641
-4.14359
-4.17828
-4.21046
-4.24012
-4.26724
-4.2918
-4.31379
-4.33321
-4.35004
-4.36428
-4.37593
-4.38501
-2.97815
-3.05927
-3.14059
-3.2131
-3.28205
-3.34847
-3.41238
-3.47393
-3.53321
-3.59026
-3.64508
-3.69765
-3.74795
-3.79597
-3.84167
-3.88503
-3.92604
-3.96466
-4.00088
-4.03467
-4.06601
-4.09489
-4.12129
-4.1452
-4.1666
-4.18549
-4.20187
-4.21571
-4.22704
-4.23585
-2.87709
-2.96671
-3.04882
-3.12045
-3.18769
-3.25194
-3.3136
-3.37289
-3.42992
-3.48472
-3.5373
-3.58765
-3.63576
-3.68161
-3.7252
-3.76649
-3.80547
-3.84213
-3.87644
-3.9084
-3.93798
-3.96517
-3.98996
-4.01234
-4.03231
-4.04985
-4.06496
-4.07765
-4.0879
-4.09574
-0.66183
-0.706553
-0.754664
-0.806384
-0.862232
-0.92271
-0.988358
-1.05981
-1.1378
-1.2232
-1.31702
-1.42044
-1.53483
-1.66181
-1.80324
-1.96131
-2.13854
-2.33783
-2.56252
-2.81636
-3.10356
-3.42878
-3.79698
-4.21331
-4.68306
-5.21158
-5.7996
-6.44011
-7.18557
-8.14152
-0.73286
-0.780056
-0.829884
-0.883532
-0.941509
-1.00423
-1.07224
-1.14619
-1.22682
-1.31502
-1.41181
-1.51837
-1.63611
-1.76665
-1.91187
-2.07398
-2.25552
-2.45941
-2.68898
-2.94802
-3.24074
-3.57176
-3.94602
-4.36861
-4.84473
-5.37955
-5.97357
-6.61929
-7.36799
-8.32316
-0.804701
-0.854412
-0.905983
-0.961592
-1.02174
-1.08674
-1.15716
-1.23364
-1.31696
-1.408
-1.5078
-1.61757
-1.73871
-1.87287
-2.02195
-2.18816
-2.37408
-2.58263
-2.81717
-3.08148
-3.37978
-3.71667
-4.09705
-4.52594
-5.00841
-5.54942
-6.14921
-6.7997
-7.55092
-8.50453
-0.877297
-0.929559
-0.982898
-1.0405
-1.10285
-1.17017
-1.24302
-1.32208
-1.40812
-1.50205
-1.60491
-1.71793
-1.84252
-1.98034
-2.13333
-2.30371
-2.49405
-2.70732
-2.94688
-3.21651
-3.52044
-3.86324
-4.24978
-4.68497
-5.17378
-5.72096
-6.32643
-6.98173
-7.73612
-8.69018
-0.950598
-1.00545
-1.06057
-1.1202
-1.18478
-1.25446
-1.32979
-1.41146
-1.50026
-1.59712
-1.70308
-1.81938
-1.94747
-2.08901
-2.24595
-2.42054
-2.61537
-2.83341
-3.07804
-3.35305
-3.66264
-4.01139
-4.40411
-4.84564
-5.34079
-5.89413
-6.50531
-7.16551
-7.92348
-8.87913
-1.02455
-1.08202
-1.13895
-1.20063
-1.26748
-1.33955
-1.41738
-1.5017
-1.59331
-1.69313
-1.80223
-1.92187
-2.05349
-2.1988
-2.35974
-2.53858
-2.73794
-2.96081
-3.21055
-3.49098
-3.8063
-4.16104
-4.55997
-5.00785
-5.50937
-6.0689
-6.68581
-7.35097
-8.1127
-9.07044
-1.09911
-1.15921
-1.21798
-1.28174
-1.35089
-1.42538
-1.50575
-1.59275
-1.68719
-1.79001
-1.90229
-2.0253
-2.1605
-2.30961
-2.4746
-2.65775
-2.86169
-3.08941
-3.34433
-3.63022
-3.9513
-4.31207
-4.71724
-5.17151
-5.67941
-6.24514
-6.86782
-7.53798
-8.30358
-9.2637
-1.17422
-1.23698
-1.29759
-1.36345
-1.43493
-1.51187
-1.59481
-1.68452
-1.78183
-1.88769
-2.00318
-2.1296
-2.26842
-2.42137
-2.59044
-2.77794
-2.9865
-3.21913
-3.47925
-3.77066
-4.09753
-4.46436
-4.87581
-5.33648
-5.85079
-6.42274
-7.05121
-7.72641
-8.49597
-9.45865
-1.24984
-1.31526
-1.37772
-1.44573
-1.51956
-1.59898
-1.68452
-1.77697
-1.87717
-1.98609
-2.10483
-2.23469
-2.37716
-2.53399
-2.70718
-2.89906
-3.11228
-3.34986
-3.61523
-3.91218
-4.24488
-4.6178
-5.03555
-5.50264
-6.02336
-6.60155
-7.23583
-7.9161
-8.68967
-9.65501
-1.32591
-1.394
-1.45833
-1.5285
-1.60472
-1.68663
-1.77479
-1.87001
-1.97314
-2.08515
-2.20716
-2.34049
-2.48664
-2.64738
-2.82473
-3.02102
-3.23893
-3.4815
-3.75214
-4.05466
-4.39322
-4.77226
-5.19632
-5.66985
-6.19701
-6.78143
-7.42152
-8.10687
-8.88447
-9.85253
-1.4024
-1.47315
-1.53936
-1.6117
-1.69033
-1.77477
-1.86558
-1.96358
-2.06966
-2.18478
-2.31009
-2.44691
-2.59678
-2.76145
-2.94299
-3.14372
-3.36636
-3.61393
-3.88988
-4.198
-4.54244
-4.92761
-5.35801
-5.83798
-6.37156
-6.96223
-7.60811
-8.29854
-9.08015
-10.051
-1.47925
-1.55267
-1.62075
-1.6953
-1.77636
-1.86333
-1.9568
-2.05762
-2.16666
-2.28492
-2.41355
-2.55389
-2.70748
-2.87612
-3.06185
-3.26706
-3.49444
-3.74705
-4.02832
-4.34207
-4.69241
-5.08373
-5.52047
-6.00688
-6.54688
-7.14376
-7.79543
-8.4909
-9.27653
-10.2501
-1.55643
-1.6325
-1.70245
-1.77923
-1.86273
-1.95226
-2.04841
-2.15205
-2.26407
-2.38548
-2.51745
-2.66132
-2.81866
-2.99127
-3.18124
-3.39093
-3.62308
-3.88074
-4.16736
-4.48674
-4.843
-5.24047
-5.68355
-6.17639
-6.7228
-7.32587
-7.9833
-8.68377
-9.47337
-10.4497
-1.63391
-1.7126
-1.78443
-1.86344
-1.9494
-2.0415
-2.14034
-2.24681
-2.36182
-2.48639
-2.6217
-2.76912
-2.93022
-3.10683
-3.30103
-3.51523
-3.75215
-4.01488
-4.30686
-4.63189
-4.99406
-5.39768
-5.8471
-6.34636
-6.89915
-7.50838
-8.17152
-8.87696
-9.67049
-10.6495
-1.71166
-1.79295
-1.86663
-1.94789
-2.03632
-2.13099
-2.23252
-2.34183
-2.45984
-2.58758
-2.72624
-2.8772
-3.04207
-3.22268
-3.42113
-3.63984
-3.88156
-4.14936
-4.4467
-4.77738
-5.14546
-5.55523
-6.01096
-6.51663
-7.07576
-7.69111
-8.35991
-9.07025
-9.86768
-10.8494
-1.78967
-1.8735
-1.94902
-2.03253
-2.12343
-2.22068
-2.3249
-2.43704
-2.55804
-2.68894
-2.83095
-2.98547
-3.15411
-3.33872
-3.54143
-3.76466
-4.01116
-4.28404
-4.58675
-4.92307
-5.29706
-5.71297
-6.17499
-6.68703
-7.25246
-7.87388
-8.54827
-9.26346
-10.0647
-11.0491
-1.86792
-1.95424
-2.03158
-2.11733
-2.21069
-2.3105
-2.4174
-2.53237
-2.65636
-2.79041
-2.93577
-3.09383
-3.26624
-3.45485
-3.66181
-3.88955
-4.14084
-4.4188
-4.72686
-5.06882
-5.44871
-5.87073
-6.33902
-6.85738
-7.42907
-8.0565
-8.73641
-9.45637
-10.2614
-11.2485
-1.94641
-2.03516
-2.11427
-2.20225
-2.29805
-2.4004
-2.50996
-2.62774
-2.75469
-2.89189
-3.04058
-3.20218
-3.37834
-3.57094
-3.78215
-4.0144
-4.27047
-4.55349
-4.86691
-5.21449
-5.60025
-6.02836
-6.50288
-7.02752
-7.60541
-8.23877
-8.92414
-9.64879
-10.4575
-11.4472
-2.02517
-2.11625
-2.19706
-2.28724
-2.38546
-2.49032
-2.60251
-2.72306
-2.85296
-2.99328
-3.14527
-3.3104
-3.4903
-3.68689
-3.90232
-4.13907
-4.39992
-4.68799
-5.00674
-5.35992
-5.75153
-6.18569
-6.6664
-7.19727
-7.78129
-8.42051
-9.11125
-9.84051
-10.6529
-11.6451
-2.1042
-2.19749
-2.27994
-2.37227
-2.47285
-2.58017
-2.69494
-2.81824
-2.95104
-3.09446
-3.24974
-3.41837
-3.602
-3.80255
-4.0222
-4.26343
-4.52903
-4.82214
-5.1462
-5.50496
-5.90239
-6.34256