/*--------------------------------*- C++ -*----------------------------------*\
  =========                 |
  \\      /  F ield         | OpenFOAM: The Open Source CFD Toolbox
   \\    /   O peration     | Website:  https://openfoam.org
    \\  /    A nd           | Version:  6.0
     \\/     M anipulation  |
\*---------------------------------------------------------------------------*/
FoamFile
{
    version     2.0;
    format      ascii;
    class       volScalarField;
    location    "18";
    object      p;
}
// * * * * * * * * * * * * * * * * * * * * * * * * * * * * * * * * * * * * * //

dimensions      [0 2 -2 0 0 0 0];

internalField   nonuniform List<scalar> 
19200
(
-41.1829
-37.6177
-35.0342
-32.9002
-30.9256
-29.1043
-27.4211
-25.8542
-24.3893
-23.0171
-21.73
-20.5224
-19.389
-18.3255
-17.3276
-16.3916
-15.5138
-14.6904
-13.9181
-13.1935
-12.5136
-11.8752
-11.2756
-10.7121
-10.1822
-9.68357
-9.21424
-8.77216
-8.35556
-7.96371
-41.6381
-38.0744
-35.4825
-33.3345
-31.3435
-29.5046
-27.8032
-26.2182
-24.7357
-23.3466
-22.0437
-20.8212
-19.674
-18.5977
-17.5882
-16.6415
-15.7537
-14.9214
-14.1408
-13.4087
-12.7218
-12.077
-11.4714
-10.9024
-10.3673
-9.86386
-9.38997
-8.94352
-8.5226
-8.12734
-42.0987
-38.5307
-35.9293
-33.7673
-31.7597
-29.903
-28.1833
-26.5802
-25.0801
-23.6742
-22.3554
-21.118
-19.9571
-18.8681
-17.8469
-16.8895
-15.9921
-15.1507
-14.362
-13.6224
-12.9285
-12.2774
-11.6659
-11.0914
-10.5512
-10.0429
-9.5645
-9.11368
-8.68846
-8.28986
-42.5616
-38.9871
-36.3748
-34.1983
-32.174
-30.2993
-28.5613
-26.94
-25.4223
-23.9995
-22.6648
-21.4126
-20.238
-19.1364
-18.1037
-17.1357
-16.2285
-15.3783
-14.5815
-13.8344
-13.1337
-12.4763
-11.8589
-11.279
-10.7336
-10.2206
-9.73768
-9.28251
-8.85298
-8.45112
-43.0248
-39.4428
-36.8189
-34.6275
-32.5861
-30.6933
-28.9369
-27.2973
-25.7619
-24.3223
-22.9717
-21.7048
-20.5165
-19.4024
-18.3582
-17.3797
-16.4629
-15.6039
-14.7991
-14.0446
-13.3372
-12.6735
-12.0504
-11.465
-10.9146
-10.3968
-9.90941
-9.44988
-9.01609
-8.61104
-43.4873
-39.8973
-37.2612
-35.0546
-32.996
-31.0849
-29.3099
-27.6519
-26.0988
-24.6423
-23.276
-21.9943
-20.7925
-19.6659
-18.6103
-17.6213
-16.6951
-15.8274
-15.0146
-14.2529
-13.5388
-12.8688
-12.24
-11.6493
-11.0939
-10.5714
-10.0795
-9.6157
-9.17765
-8.76952
-43.9482
-40.3501
-37.7015
-35.4792
-33.4031
-31.4736
-29.6799
-28.0035
-26.4327
-24.9594
-23.5773
-22.281
-21.0657
-19.9267
-18.8597
-17.8605
-16.9248
-16.0486
-15.2279
-14.459
-13.7383
-13.0622
-12.4277
-11.8317
-11.2714
-10.7443
-10.248
-9.77985
-9.33757
-8.92644
-44.4071
-40.8007
-38.1393
-35.9012
-33.8074
-31.8593
-30.0468
-28.352
-26.7633
-25.2732
-23.8754
-22.5646
-21.3358
-20.1846
-19.1064
-18.097
-17.152
-16.2673
-15.4389
-14.6628
-13.9356
-13.2535
-12.6134
-12.0122
-11.447
-10.9153
-10.4146
-9.94223
-9.49576
-9.08174
-44.8634
-41.2486
-38.5742
-36.3201
-34.2085
-32.2416
-30.4102
-28.6969
-27.0905
-25.5836
-24.1701
-22.8448
-21.6028
-20.4394
-19.3501
-18.3306
-17.3764
-16.4833
-15.6472
-14.8642
-14.1305
-13.4425
-12.7969
-12.1906
-11.6206
-11.0843
-10.5793
-10.1027
-9.65211
-9.23531
-45.3168
-41.6935
-39.006
-36.7357
-34.606
-32.6203
-30.77
-29.0381
-27.414
-25.8903
-24.4613
-23.1215
-21.8663
-20.6909
-19.5906
-18.5611
-17.5978
-16.6965
-15.8529
-15.063
-14.323
-13.6291
-12.9781
-12.3667
-11.792
-11.2512
-10.742
-10.2612
-9.80653
-9.38707
-45.7668
-42.1349
-39.4341
-37.1475
-34.9998
-32.9951
-31.1258
-29.3754
-27.7335
-26.1931
-24.7486
-23.3945
-22.1262
-20.9388
-19.8278
-18.7884
-17.8162
-16.9067
-16.0557
-15.259
-14.5127
-13.8132
-13.1568
-12.5404
-11.9611
-11.4159
-10.9026
-10.4177
-9.95893
-9.53693
-46.213
-42.5726
-39.8584
-37.5554
-35.3894
-33.3657
-31.4773
-29.7083
-28.0488
-26.4918
-25.0318
-23.6636
-22.3823
-21.1831
-20.0613
-19.0123
-18.0312
-17.1138
-16.2554
-15.4521
-14.6997
-13.9945
-13.3329
-12.7117
-12.1277
-11.5783
-11.0609
-10.5719
-10.1092
-9.6848
-46.6552
-43.0061
-40.2785
-37.9589
-35.7745
-33.7318
-31.8243
-30.0368
-28.3596
-26.7861
-25.3108
-23.9285
-22.6343
-21.4235
-20.2911
-19.2325
-18.2428
-17.3174
-16.4519
-15.642
-14.8837
-14.1729
-13.5062
-12.8802
-12.2918
-11.7382
-11.2168
-10.7239
-10.2573
-9.83061
-47.0929
-43.4352
-40.6941
-38.3578
-36.155
-34.0931
-32.1666
-30.3605
-28.6657
-27.0758
-25.5852
-24.189
-22.8821
-21.6598
-20.517
-19.4489
-18.4507
-17.5176
-16.6451
-15.8287
-15.0645
-14.3483
-13.6766
-13.046
-12.4532
-11.8955
-11.3702
-10.8734
-10.403
-9.97423
-47.526
-43.8596
-41.1048
-38.7518
-36.5305
-34.4495
-32.5038
-30.6793
-28.9669
-27.3606
-25.8549
-24.4449
-23.1255
-21.8918
-20.7387
-19.6613
-18.6547
-17.714
-16.8346
-16.012
-15.2419
-14.5205
-13.8439
-13.2088
-12.6117
-12.0501
-11.521
-11.0204
-10.5463
-10.1156
-47.954
-44.2789
-41.5104
-39.1406
-36.9008
-34.8005
-32.8358
-30.9928
-29.263
-27.6404
-26.1197
-24.696
-23.3642
-22.1193
-20.9561
-19.8696
-18.8547
-17.9065
-17.0203
-16.1915
-15.4159
-14.6893
-14.0079
-13.3683
-12.7672
-12.2017
-11.6689
-11.1647
-10.687
-10.2545
-48.3768
-44.693
-41.9107
-39.524
-37.2655
-35.146
-33.1622
-31.3008
-29.5536
-27.9149
-26.3794
-24.9421
-23.5981
-22.3421
-21.1689
-20.0734
-19.0504
-18.0949
-17.2021
-16.3673
-15.5861
-14.8544
-14.1685
-13.5246
-12.9195
-12.3502
-11.8139
-11.3062
-10.825
-10.3909
-48.7941
-45.1015
-42.3054
-39.9016
-37.6245
-35.4858
-33.4829
-31.6031
-29.8387
-28.1839
-26.6337
-25.1831
-23.8269
-22.56
-21.377
-20.2727
-19.2417
-18.279
-17.3797
-16.5389
-15.7524
-15.0158
-14.3253
-13.6772
-13.0682
-12.4954
-11.9557
-11.4446
-10.96
-10.5246
-49.2057
-45.5043
-42.6943
-40.2734
-37.9775
-35.8195
-33.7976
-31.8996
-30.1179
-28.4472
-26.8824
-25.4186
-24.0505
-22.7728
-21.5802
-20.4672
-19.4284
-18.4586
-17.5529
-16.7063
-15.9145
-15.1731
-14.4782
-13.826
-13.2133
-12.637
-12.094
-11.5796
-11.0919
-10.6553
-49.6114
-45.9012
-43.0771
-40.639
-38.3243
-36.147
-34.106
-32.1898
-30.3911
-28.7046
-27.1255
-25.6486
-24.2687
-22.9804
-21.7783
-20.6567
-19.6102
-18.6335
-17.7215
-16.8693
-16.0722
-15.3261
-14.6269
-13.9708
-13.3544
-12.7747
-12.2286
-11.7112
-11.2204
-10.7828
-50.0112
-46.2919
-43.4537
-40.9983
-38.6647
-36.468
-34.4081
-32.4738
-30.6581
-28.956
-27.3626
-25.8728
-24.4813
-23.1826
-21.9711
-20.8411
-19.787
-18.8035
-17.8853
-17.0275
-16.2253
-15.4746
-14.7711
-14.1111
-13.4912
-12.9083
-12.3592
-11.8388
-11.3451
-10.9067
-50.405
-46.6765
-43.8238
-41.3509
-38.9984
-36.7824
-34.7036
-32.7512
-30.9187
-29.2011
-27.5936
-26.0911
-24.6881
-23.3792
-22.1584
-21.0202
-19.9587
-18.9684
-18.0441
-17.1807
-16.3736
-15.6182
-14.9106
-14.2468
-13.6234
-13.0373
-12.4854
-11.9621
-11.4657
-11.0266
-50.7929
-47.0547
-44.1874
-41.6968
-39.3252
-37.0899
-34.9922
-33.0219
-31.1727
-29.4398
-27.8184
-26.3033
-24.8891
-23.57
-22.3402
-21.1938
-20.125
-19.1281
-18.1978
-17.3289
-16.5167
-15.7568
-15.045
-14.3774
-13.7506
-13.1615
-12.6067
-12.0807
-11.5816
-11.142
-51.175
-47.4266
-44.5442
-42.0358
-39.645
-37.3903
-35.2737
-33.2857
-31.4199
-29.6719
-28.0368
-26.5094
-25.0841
-23.7551
-22.5163
-21.3619
-20.2858
-19.2823
-18.346
-17.4717
-16.6546
-15.8901
-15.1741
-14.5027
-13.8724
-13.2802
-12.7227
-12.1941
-11.6923
-11.2525
-51.5516
-47.7918
-44.894
-42.3674
-39.9573
-37.6833
-35.5481
-33.5423
-31.6603
-29.8973
-28.2487
-26.7091
-25.2729
-23.9342
-22.6867
-21.5243
-20.4411
-19.4311
-18.4889
-17.6091
-16.7869
-16.0178
-15.2975
-14.6222
-13.9884
-13.393
-12.8327
-12.3014
-11.7971
-11.3574
-51.9228
-48.1503
-45.2365
-42.6916
-40.2621
-37.9688
-35.8149
-33.7917
-31.8935
-30.1159
-28.454
-26.9025
-25.4557
-24.1073
-22.8512
-21.6811
-20.5908
-19.5743
-18.6262
-17.7409
-16.9136
-16.1398
-15.4151
-14.7358
-14.0982
-13.4994
-12.9361
-12.402
-11.895
-11.4547
-52.2899
-48.502
-45.5714
-43.0079
-40.5589
-38.2463
-36.074
-34.0336
-32.1195
-30.3275
-28.6526
-27.0895
-25.6322
-24.2744
-23.0099
-21.8321
-20.7349
-19.712
-18.7579
-17.8672
-17.0347
-16.256
-15.5268
-14.8431
-14.2015
-13.5991
-13.0326
-12.4955
-11.9853
-11.5426
-52.6573
-48.8483
-45.8982
-43.3155
-40.847
-38.5153
-36.3249
-34.2676
-32.338
-30.5319
-28.8443
-27.2698
-25.8024
-24.4355
-23.1627
-21.9775
-20.8734
-19.8443
-18.8843
-17.9879
-17.1502
-16.3664
-15.6324
-14.9441
-14.2982
-13.6918
-13.1219
-12.5815
-12.0676
-11.6253
-53.0281
-49.1887
-46.2155
-43.6133
-41.1258
-38.7755
-36.5674
-34.4936
-32.5489
-30.7291
-29.0292
-27.4437
-25.9663
-24.5906
-23.3098
-22.1173
-21.0065
-19.9712
-19.0054
-18.1034
-17.2603
-16.4713
-15.732
-15.0385
-14.3874
-13.776
-13.2008
-12.6548
-12.1384
-11.7079
-53.3789
-49.5137
-46.5205
-43.9009
-41.3958
-39.0278
-36.8026
-34.7127
-32.7532
-30.92
-29.2081
-27.6118
-26.1248
-24.7404
-23.4519
-22.2523
-21.135
-20.0935
-19.1219
-18.2145
-17.3659
-16.5715
-15.8266
-15.1272
-14.4699
-13.8512
-13.2667
-12.7104
-12.1917
-11.7644
-58.3831
-58.3696
-58.3351
-58.2949
-58.247
-58.1888
-58.1196
-58.0393
-57.9478
-57.845
-57.731
-57.6057
-57.4692
-57.3217
-57.1633
-56.9941
-56.8144
-56.6242
-56.4238
-56.2134
-55.9932
-55.7634
-55.5243
-55.2762
-55.0196
-54.755
-54.4831
-54.2056
-53.9254
-53.6471
-54.3261
-54.328
-54.3124
-54.2854
-54.2475
-54.1978
-54.1364
-54.0634
-53.979
-53.8832
-53.7761
-53.6578
-53.5284
-53.3881
-53.2369
-53.0751
-52.9028
-52.7201
-52.5273
-52.3246
-52.1122
-51.8902
-51.6589
-51.4187
-51.1698
-50.9126
-50.6477
-50.3756
-50.0968
-49.8099
-51.01
-51.0236
-51.0221
-51.0072
-50.98
-50.9408
-50.8898
-50.8272
-50.7531
-50.6677
-50.5712
-50.4635
-50.345
-50.2157
-50.0757
-49.9252
-49.7643
-49.5933
-49.4123
-49.2215
-49.021
-48.8111
-48.5919
-48.3638
-48.1268
-47.8812
-47.6272
-47.3648
-47.0937
-46.8126
-48.0112
-48.0335
-48.0425
-48.0383
-48.0217
-47.9933
-47.9533
-47.9019
-47.8393
-47.7655
-47.6808
-47.5853
-47.4791
-47.3623
-47.2351
-47.0977
-46.9502
-46.7927
-46.6254
-46.4484
-46.262
-46.0663
-45.8614
-45.6476
-45.4249
-45.1934
-44.9533
-44.7043
-44.4464
-44.1787
-45.1201
-45.1494
-45.1668
-45.1718
-45.1649
-45.1464
-45.1167
-45.0759
-45.0242
-44.9617
-44.8886
-44.805
-44.7111
-44.6069
-44.4927
-44.3685
-44.2345
-44.0908
-43.9376
-43.7751
-43.6033
-43.4224
-43.2325
-43.0338
-42.8263
-42.6102
-42.3853
-42.1517
-41.9092
-41.6574
-42.3874
-42.4222
-42.4461
-42.4584
-42.4594
-42.4492
-42.4283
-42.3967
-42.3547
-42.3023
-42.2396
-42.1669
-42.0843
-41.9918
-41.8896
-41.7778
-41.6566
-41.5261
-41.3865
-41.2377
-41.0801
-40.9137
-40.7385
-40.5548
-40.3625
-40.1617
-39.9524
-39.7345
-39.508
-39.2725
-39.834
-39.8726
-39.9012
-39.9189
-39.9258
-39.9222
-39.9084
-39.8843
-39.8503
-39.8063
-39.7526
-39.6893
-39.6165
-39.5342
-39.4427
-39.3421
-39.2324
-39.1139
-38.9865
-38.8505
-38.706
-38.553
-38.3916
-38.2219
-38.044
-37.8579
-37.6636
-37.461
-37.2501
-37.0308
-37.4591
-37.5001
-37.5316
-37.5529
-37.564
-37.5652
-37.5566
-37.5384
-37.5107
-37.4735
-37.4271
-37.3715
-37.3069
-37.2333
-37.151
-37.0599
-36.9603
-36.8521
-36.7357
-36.6109
-36.4781
-36.3371
-36.1882
-36.0314
-35.8667
-35.6942
-35.5138
-35.3256
-35.1294
-34.9252
-35.2586
-35.3005
-35.3335
-35.3569
-35.3707
-35.3751
-35.3702
-35.3563
-35.3333
-35.3014
-35.2606
-35.2112
-35.1533
-35.0868
-35.012
-34.9289
-34.8377
-34.7385
-34.6314
-34.5164
-34.3938
-34.2635
-34.1256
-33.9802
-33.8274
-33.6671
-33.4994
-33.3242
-33.1415
-32.9513
-33.2254
-33.2671
-33.3004
-33.3247
-33.3399
-33.3462
-33.3438
-33.3327
-33.3131
-33.285
-33.2486
-33.204
-33.1512
-33.0904
-33.0217
-32.9452
-32.861
-32.7693
-32.67
-32.5634
-32.4495
-32.3283
-32.2001
-32.0647
-31.9223
-31.7729
-31.6165
-31.4531
-31.2826
-31.1051
-31.3497
-31.3904
-31.4231
-31.4473
-31.4629
-31.4701
-31.469
-31.4598
-31.4424
-31.4171
-31.3838
-31.3428
-31.294
-31.2377
-31.1738
-31.1026
-31.0242
-30.9385
-30.8458
-30.7462
-30.6397
-30.5264
-30.4064
-30.2798
-30.1465
-30.0067
-29.8603
-29.7073
-29.5477
-29.3814
-29.6201
-29.6592
-29.6908
-29.7142
-29.7295
-29.7368
-29.7363
-29.7281
-29.7121
-29.6885
-29.6575
-29.619
-29.5733
-29.5204
-29.4604
-29.3934
-29.3195
-29.2389
-29.1517
-29.0578
-28.9576
-28.851
-28.738
-28.6189
-28.4936
-28.3622
-28.2246
-28.0808
-27.9308
-27.7746
-28.025
-28.0622
-28.0921
-28.1143
-28.1288
-28.1357
-28.1351
-28.1272
-28.112
-28.0895
-28.06
-28.0234
-27.9799
-27.9295
-27.8725
-27.8088
-27.7387
-27.6622
-27.5794
-27.4905
-27.3955
-27.2945
-27.1876
-27.075
-26.9565
-26.8324
-26.7025
-26.5669
-26.4255
-26.2783
-26.5527
-26.5876
-26.6156
-26.6363
-26.6496
-26.6558
-26.6548
-26.6468
-26.6318
-26.6099
-26.5813
-26.546
-26.5041
-26.4557
-26.401
-26.34
-26.2729
-26.1997
-26.1206
-26.0357
-25.9451
-25.849
-25.7473
-25.6402
-25.5277
-25.41
-25.2869
-25.1585
-25.0247
-24.8855
-25.1918
-25.2245
-25.2505
-25.2695
-25.2815
-25.2866
-25.2849
-25.2764
-25.2614
-25.2398
-25.2117
-25.1772
-25.1365
-25.0896
-25.0367
-24.9778
-24.9131
-24.8427
-24.7666
-24.6852
-24.5983
-24.5062
-24.409
-24.3067
-24.1995
-24.0874
-23.9703
-23.8484
-23.7214
-23.5894
-23.9321
-23.9624
-23.9864
-24.0036
-24.0141
-24.0181
-24.0155
-24.0065
-23.9911
-23.9695
-23.9417
-23.9078
-23.8679
-23.8222
-23.7706
-23.7135
-23.6507
-23.5826
-23.5091
-23.4305
-23.3469
-23.2583
-23.1649
-23.0669
-22.9642
-22.8571
-22.7454
-22.6292
-22.5084
-22.3829
-22.7638
-22.7919
-22.8138
-22.8293
-22.8383
-22.841
-22.8375
-22.8278
-22.812
-22.7903
-22.7625
-22.729
-22.6897
-22.6448
-22.5944
-22.5386
-22.4775
-22.4113
-22.34
-22.2639
-22.183
-22.0974
-22.0074
-21.9131
-21.8145
-21.7118
-21.6049
-21.4939
-21.3788
-21.2593
-21.6782
-21.7041
-21.7241
-21.7379
-21.7455
-21.747
-21.7425
-21.7321
-21.7158
-21.6938
-21.666
-21.6327
-21.5939
-21.5497
-21.5002
-21.4455
-21.3858
-21.3212
-21.2518
-21.1778
-21.0992
-21.0164
-20.9294
-20.8383
-20.7433
-20.6446
-20.5421
-20.4359
-20.3259
-20.2119
-20.6675
-20.6914
-20.7096
-20.7217
-20.7279
-20.7282
-20.7228
-20.7116
-20.6949
-20.6725
-20.6447
-20.6115
-20.573
-20.5294
-20.4807
-20.427
-20.3685
-20.3053
-20.2375
-20.1653
-20.0889
-20.0084
-19.924
-19.8358
-19.7441
-19.6489
-19.5504
-19.4486
-19.3435
-19.2347
-19.7248
-19.7468
-19.7632
-19.7738
-19.7787
-19.7779
-19.7716
-19.7597
-19.7424
-19.7197
-19.6918
-19.6587
-19.6205
-19.5773
-19.5293
-19.4765
-19.419
-19.357
-19.2907
-19.2202
-19.1456
-19.0672
-18.9851
-18.8995
-18.8107
-18.7188
-18.624
-18.5263
-18.4257
-18.3219
-18.8439
-18.8641
-18.8788
-18.888
-18.8916
-18.8898
-18.8826
-18.8701
-18.8523
-18.8294
-18.8013
-18.7683
-18.7303
-18.6876
-18.6401
-18.5881
-18.5315
-18.4707
-18.4057
-18.3366
-18.2637
-18.1871
-18.1071
-18.0239
-17.9376
-17.8487
-17.7572
-17.6633
-17.567
-17.4681
-18.0191
-18.0376
-18.0509
-18.0587
-18.0612
-18.0584
-18.0505
-18.0373
-18.0191
-17.9959
-17.9678
-17.9348
-17.8971
-17.8547
-17.8078
-17.7564
-17.7008
-17.6409
-17.577
-17.5093
-17.4379
-17.363
-17.2848
-17.2036
-17.1197
-17.0334
-16.945
-16.8547
-16.7626
-16.6684
-17.2456
-17.2626
-17.2745
-17.2811
-17.2826
-17.2789
-17.2702
-17.2565
-17.2379
-17.2145
-17.1862
-17.1533
-17.1158
-17.0738
-17.0274
-16.9767
-16.9218
-16.8629
-16.8001
-16.7336
-16.6635
-16.59
-16.5135
-16.4341
-16.3523
-16.2684
-16.1828
-16.0958
-16.0076
-15.9181
-16.5191
-16.5347
-16.5453
-16.5508
-16.5513
-16.5468
-16.5375
-16.5233
-16.5043
-16.4807
-16.4524
-16.4196
-16.3823
-16.3407
-16.2947
-16.2447
-16.1905
-16.1325
-16.0707
-16.0052
-15.9363
-15.8642
-15.789
-15.7113
-15.6313
-15.5494
-15.4662
-15.3823
-15.2979
-15.2131
-15.8357
-15.8499
-15.8594
-15.8639
-15.8635
-15.8583
-15.8484
-15.8338
-15.8145
-15.7907
-15.7624
-15.7297
-15.6926
-15.6513
-15.6059
-15.5564
-15.503
-15.4457
-15.3848
-15.3203
-15.2525
-15.1815
-15.1077
-15.0313
-14.9527
-14.8726
-14.7915
-14.7102
-14.6295
-14.5495
-15.1919
-15.205
-15.2133
-15.2169
-15.2157
-15.2099
-15.1994
-15.1844
-15.1649
-15.1409
-15.1126
-15.0799
-15.0431
-15.0022
-14.9572
-14.9082
-14.8554
-14.7989
-14.7388
-14.6753
-14.6084
-14.5384
-14.4656
-14.3904
-14.313
-14.2342
-14.1547
-14.0757
-13.9982
-13.9232
-14.5848
-14.5968
-14.6041
-14.6068
-14.6048
-14.5984
-14.5874
-14.572
-14.5522
-14.5281
-14.4997
-14.4672
-14.4305
-14.3898
-14.3452
-14.2968
-14.2445
-14.1887
-14.1293
-14.0664
-14.0004
-13.9312
-13.8593
-13.7848
-13.7082
-13.6302
-13.5517
-13.4742
-13.3993
-13.3288
-14.0116
-14.0226
-14.0291
-14.0311
-14.0286
-14.0217
-14.0103
-13.9947
-13.9747
-13.9506
-13.9222
-13.8898
-13.8534
-13.8131
-13.7688
-13.7209
-13.6692
-13.6139
-13.5552
-13.493
-13.4277
-13.3592
-13.2879
-13.214
-13.1379
-13.0603
-12.9821
-12.9054
-12.8321
-12.765
-13.4694
-13.4799
-13.4861
-13.4878
-13.4851
-13.4782
-13.4669
-13.4515
-13.4318
-13.4081
-13.3803
-13.3485
-13.3128
-13.2733
-13.23
-13.183
-13.1324
-13.0783
-13.0208
-12.96
-12.8959
-12.8288
-12.7587
-12.686
-12.6109
-12.534
-12.4562
-12.3803
-12.3088
-12.2478
-12.9566
-12.9654
-12.97
-12.9704
-12.9667
-12.9588
-12.9469
-12.9309
-12.911
-12.8872
-12.8595
-12.8281
-12.7929
-12.7541
-12.7117
-12.6657
-12.6164
-12.5636
-12.5077
-12.4485
-12.3861
-12.3208
-12.2526
-12.1816
-12.108
-12.0322
-11.9547
-11.8781
-11.804
-11.7575
-52.3557
-52.7064
-53.0338
-53.3631
-53.6909
-54.0121
-54.3248
-54.6284
-54.9224
-55.2061
-55.4789
-55.7404
-55.9903
-56.2282
-56.454
-56.6674
-56.8683
-57.0564
-57.2318
-57.3944
-57.544
-57.6807
-57.8045
-57.9155
-58.0139
-58.0998
-58.1738
-58.2367
-58.2904
-58.3375
-48.2358
-48.6009
-48.9484
-49.2885
-49.6213
-49.945
-50.259
-50.5632
-50.8572
-51.1408
-51.4136
-51.6752
-51.9253
-52.1637
-52.3903
-52.6047
-52.8068
-52.9965
-53.1738
-53.3384
-53.4904
-53.6297
-53.7563
-53.8703
-53.9718
-54.061
-54.138
-54.2033
-54.257
-54.2981
-44.8641
-45.2309
-45.5843
-45.9267
-46.2594
-46.5825
-46.8957
-47.199
-47.4922
-47.7751
-48.0473
-48.3087
-48.5589
-48.7979
-49.0252
-49.2409
-49.4447
-49.6365
-49.8162
-49.9837
-50.1389
-50.2818
-50.4124
-50.5306
-50.6366
-50.7303
-50.8118
-50.881
-50.9377
-50.9808
-41.855
-42.2154
-42.5651
-42.9041
-43.233
-43.5524
-43.8623
-44.1625
-44.4528
-44.7331
-45.0031
-45.2626
-45.5114
-45.7494
-45.9763
-46.1919
-46.3961
-46.5889
-46.77
-46.9394
-47.097
-47.2427
-47.3766
-47.4985
-47.6084
-47.7064
-47.7924
-47.8661
-47.9275
-47.976
-39.0109
-39.3611
-39.7027
-40.0346
-40.3569
-40.6701
-40.974
-41.2686
-41.5537
-41.8291
-42.0948
-42.3503
-42.5957
-42.8307
-43.0551
-43.2688
-43.4717
-43.6636
-43.8444
-44.014
-44.1723
-44.3193
-44.4549
-44.579
-44.6917
-44.7928
-44.8822
-44.9599
-45.0257
-45.0792
-36.3798
-36.7183
-37.0494
-37.3717
-37.685
-37.9895
-38.2853
-38.5722
-38.8501
-39.1187
-39.378
-39.6277
-39.8677
-40.0979
-40.318
-40.5279
-40.7275
-40.9167
-41.0953
-41.2633
-41.4206
-41.5671
-41.7027
-41.8274
-41.9411
-42.0438
-42.1353
-42.2156
-42.2845
-42.3419
-33.9741
-34.2998
-34.6189
-34.9299
-35.2325
-35.5269
-35.813
-36.0907
-36.3598
-36.6201
-36.8715
-37.1139
-37.347
-37.5708
-37.785
-37.9896
-38.1844
-38.3693
-38.5441
-38.7089
-38.8635
-39.0079
-39.1419
-39.2656
-39.3788
-39.4815
-39.5736
-39.655
-39.7257
-39.7854
-31.7816
-32.0939
-32.4002
-32.6991
-32.9902
-33.2735
-33.549
-33.8165
-34.0758
-34.3268
-34.5694
-34.8033
-35.0285
-35.2447
-35.4519
-35.65
-35.8387
-36.0181
-36.1879
-36.3482
-36.4989
-36.6398
-36.7708
-36.8921
-37.0034
-37.1047
-37.196
-37.2772
-37.3482
-37.409
-29.7864
-30.0854
-30.3788
-30.6653
-30.9444
-31.2162
-31.4806
-31.7374
-31.9865
-32.2276
-32.4607
-32.6856
-32.9022
-33.1102
-33.3097
-33.5004
-33.6823
-33.8553
-34.0192
-34.1741
-34.3198
-34.4562
-34.5833
-34.7011
-34.8094
-34.9083
-34.9976
-35.0774
-35.1476
-35.2081
-27.9715
-28.2574
-28.5381
-28.8121
-29.0794
-29.3397
-29.5929
-29.839
-30.0776
-30.3088
-30.5322
-30.7478
-30.9554
-31.1549
-31.3462
-31.5292
-31.7038
-31.8699
-32.0274
-32.1762
-32.3163
-32.4476
-32.57
-32.6836
-32.7882
-32.8838
-32.9704
-33.0479
-33.1163
-33.1756
-26.3187
-26.5921
-26.8604
-27.1225
-27.3782
-27.6272
-27.8696
-28.105
-28.3334
-28.5546
-28.7684
-28.9747
-29.1734
-29.3643
-29.5474
-29.7225
-29.8896
-30.0485
-30.1993
-30.3418
-30.4759
-30.6017
-30.7191
-30.8279
-30.9283
-31.0201
-31.1033
-31.1779
-31.2439
-31.3013
-24.8108
-25.0722
-25.3288
-25.5795
-25.824
-26.0622
-26.294
-26.5193
-26.7377
-26.9492
-27.1537
-27.3509
-27.5408
-27.7233
-27.8982
-28.0656
-28.2252
-28.377
-28.521
-28.6571
-28.7852
-28.9053
-29.0174
-29.1213
-29.2171
-29.3048
-29.3843
-29.4557
-29.5188
-29.5737
-23.4315
-23.6817
-23.9271
-24.167
-24.401
-24.6289
-24.8508
-25.0662
-25.2752
-25.4775
-25.6729
-25.8615
-26.0429
-26.2172
-26.3843
-26.5441
-26.6964
-26.8413
-26.9786
-27.1083
-27.2304
-27.3449
-27.4516
-27.5506
-27.6418
-27.7253
-27.8009
-27.8687
-27.9287
-27.9809
-22.1663
-22.4059
-22.641
-22.8707
-23.0948
-23.3131
-23.5255
-23.7317
-23.9317
-24.1252
-24.3122
-24.4924
-24.6658
-24.8324
-24.9919
-25.1444
-25.2897
-25.4278
-25.5587
-25.6823
-25.7986
-25.9075
-26.009
-26.1031
-26.1898
-26.2689
-26.3407
-26.4049
-26.4617
-26.5111
-21.0022
-21.232
-21.4574
-21.6776
-21.8925
-22.1018
-22.3053
-22.5029
-22.6945
-22.8798
-23.0587
-23.2311
-23.3969
-23.556
-23.7084
-23.854
-23.9926
-24.1244
-24.2491
-24.3669
-24.4775
-24.5811
-24.6776
-24.7669
-24.8491
-24.9242
-24.992
-25.0528
-25.1063
-25.1528
-19.9281
-20.1487
-20.365
-20.5764
-20.7827
-20.9836
-21.1789
-21.3685
-21.5521
-21.7297
-21.901
-22.0661
-22.2247
-22.3769
-22.5226
-22.6616
-22.794
-22.9196
-23.0386
-23.1507
-23.2561
-23.3546
-23.4463
-23.5311
-23.609
-23.6801
-23.7442
-23.8015
-23.8519
-23.8955
-18.934
-19.1461
-19.354
-19.5573
-19.7556
-19.9486
-20.1363
-20.3184
-20.4946
-20.665
-20.8292
-20.9874
-21.1393
-21.285
-21.4243
-21.5572
-21.6837
-21.8036
-21.9171
-22.024
-22.1243
-22.218
-22.3052
-22.3857
-22.4596
-22.5268
-22.5874
-22.6414
-22.6888
-22.7297
-18.0115
-18.2156
-18.4158
-18.6115
-18.8024
-18.9883
-19.1688
-19.3438
-19.5132
-19.6768
-19.8345
-19.9862
-20.1319
-20.2714
-20.4047
-20.5319
-20.6528
-20.7674
-20.8757
-20.9777
-21.0733
-21.1625
-21.2453
-21.3218
-21.3919
-21.4555
-21.5128
-21.5637
-21.6083
-21.6465
-17.1532
-17.3499
-17.543
-17.7317
-17.9158
-18.0949
-18.2688
-18.4374
-18.6003
-18.7576
-18.9091
-19.0547
-19.1945
-19.3283
-19.4561
-19.5778
-19.6935
-19.8031
-19.9065
-20.0039
-20.0951
-20.1801
-20.2589
-20.3316
-20.3981
-20.4584
-20.5125
-20.5605
-20.6023
-20.6381
-16.3528
-16.5426
-16.729
-16.9113
-17.0891
-17.262
-17.4298
-17.5922
-17.7492
-17.9006
-18.0463
-18.1862
-18.3204
-18.4488
-18.5714
-18.6881
-18.7989
-18.9037
-19.0027
-19.0957
-19.1827
-19.2638
-19.3389
-19.408
-19.4711
-19.5283
-19.5795
-19.6247
-19.664
-19.6975
-15.6046
-15.7879
-15.9682
-16.1448
-16.3168
-16.4839
-16.646
-16.8027
-16.954
-17.0999
-17.2401
-17.3747
-17.5037
-17.6271
-17.7447
-17.8566
-17.9628
-18.0633
-18.158
-18.2469
-18.3301
-18.4074
-18.479
-18.5448
-18.6048
-18.6591
-18.7075
-18.7502
-18.7872
-18.8184
-14.9038
-15.0809
-15.2559
-15.4271
-15.5938
-15.7556
-15.9123
-16.0637
-16.2098
-16.3503
-16.4854
-16.615
-16.7391
-16.8576
-16.9707
-17.0781
-17.18
-17.2763
-17.367
-17.4522
-17.5317
-17.6056
-17.6739
-17.7366
-17.7937
-17.8452
-17.8911
-17.9314
-17.9662
-17.9955
-14.2458
-14.4173
-14.5875
-14.754
-14.9158
-15.0727
-15.2244
-15.3708
-15.5118
-15.6474
-15.7776
-15.9025
-16.0219
-16.136
-16.2446
-16.3479
-16.4457
-16.5381
-16.6251
-16.7067
-16.7828
-16.8535
-16.9188
-16.9786
-17.0329
-17.0819
-17.1254
-17.1635
-17.1963
-17.2237
-13.6265
-13.7929
-13.9592
-14.1217
-14.2791
-14.4313
-14.5783
-14.7199
-14.8562
-14.9871
-15.1127
-15.233
-15.348
-15.4578
-15.5624
-15.6617
-15.7557
-15.8445
-15.928
-16.0062
-16.0791
-16.1468
-16.2092
-16.2663
-16.3182
-16.3648
-16.4061
-16.4422
-16.473
-16.4987
-13.0425
-13.2044
-13.3679
-13.5269
-13.6802
-13.8281
-13.9707
-14.1077
-14.2394
-14.3658
-14.487
-14.603
-14.7139
-14.8197
-14.9204
-15.0159
-15.1064
-15.1917
-15.2719
-15.347
-15.417
-15.4818
-15.5416
-15.5962
-15.6457
-15.69
-15.7293
-15.7635
-15.7926
-15.8167
-12.4901
-12.6493
-12.8114
-12.9674
-13.1169
-13.2607
-13.3989
-13.5315
-13.6588
-13.7808
-13.8978
-14.0098
-14.1167
-14.2186
-14.3156
-14.4076
-14.4947
-14.5768
-14.6539
-14.726
-14.7932
-14.8554
-14.9126
-14.9648
-15.0121
-15.0544
-15.0918
-15.1242
-15.1517
-15.1743
-11.9629
-12.1238
-12.287
-12.4402
-12.586
-12.7258
-12.8598
-12.9881
-13.1112
-13.2291
-13.342
-13.4501
-13.5533
-13.6516
-13.7451
-13.8338
-13.9176
-13.9966
-14.0708
-14.1402
-14.2048
-14.2645
-14.3193
-14.3694
-14.4146
-14.4549
-14.4905
-14.5213
-14.5472
-14.5684
-11.4473
-11.6156
-11.7848
-11.9364
-12.0787
-12.2149
-12.345
-12.4695
-12.5887
-12.7029
-12.8124
-12.917
-13.0169
-13.1121
-13.2026
-13.2884
-13.3695
-13.4459
-13.5176
-13.5846
-13.6469
-13.7045
-13.7574
-13.8056
-13.8491
-13.8879
-13.922
-13.9514
-13.9761
-13.9962
-10.9424
-11.1189
-11.2986
-11.4513
-11.5911
-11.724
-11.8508
-11.9718
-12.0877
-12.1988
-12.3052
-12.4069
-12.504
-12.5965
-12.6845
-12.7679
-12.8466
-12.9209
-12.9905
-13.0556
-13.1161
-13.172
-13.2233
-13.2701
-13.3123
-13.3498
-13.3829
-13.4113
-13.4352
-13.4546
-10.543
-10.7265
-10.9021
-11.0542
-11.1894
-11.3156
-11.4362
-11.5514
-11.6615
-11.7669
-11.8678
-11.9642
-12.0561
-12.1435
-12.2265
-12.3051
-12.3793
-12.449
-12.5144
-12.5753
-12.6319
-12.684
-12.7318
-12.7752
-12.8142
-12.8488
-12.879
-12.9049
-12.9265
-12.9437
-5.57963
-5.88756
-6.21415
-6.55951
-6.92531
-7.3133
-7.72517
-8.16285
-8.62854
-9.12476
-9.65443
-10.2209
-10.8282
-11.4809
-12.1847
-12.9461
-13.773
-14.6749
-15.6632
-16.7512
-17.955
-19.2932
-20.7873
-22.4614
-24.3421
-26.4584
-28.8213
-31.4119
-34.4538
-38.3469
-5.75295
-6.06636
-6.39671
-6.74638
-7.11701
-7.51013
-7.92745
-8.37095
-8.84286
-9.34576
-9.88259
-10.4568
-11.0723
-11.734
-12.4474
-13.2192
-14.0573
-14.9714
-15.9728
-17.0751
-18.2942
-19.6489
-21.1608
-22.8535
-24.7537
-26.8896
-29.2717
-31.879
-34.931
-38.8228
-5.92694
-6.24583
-6.58
-6.93405
-7.30957
-7.70789
-8.13073
-8.58012
-9.05835
-9.568
-10.1121
-10.694
-11.318
-11.9886
-12.7117
-13.494
-14.3435
-15.2699
-16.2846
-17.4012
-18.6358
-20.0072
-21.5367
-23.2482
-25.1677
-27.3229
-29.7233
-32.3459
-35.4059
-39.2932
-6.10142
-6.4258
-6.7638
-7.1223
-7.50279
-7.90636
-8.33478
-8.79013
-9.27472
-9.79118
-10.3426
-10.9324
-11.5647
-12.2445
-12.9774
-13.7702
-14.6312
-15.5699
-16.5979
-17.7289
-18.979
-20.3671
-21.9144
-23.6445
-25.5831
-27.7574
-30.1757
-32.8137
-35.8837
-39.7722
-6.27626
-6.60611
-6.94799
-7.31101
-7.69651
-8.10541
-8.53947
-9.00082
-9.49183
-10.0152
-10.5739
-11.1716
-11.8125
-12.5014
-13.2441
-14.0476
-14.92
-15.8711
-16.9125
-18.0579
-19.3236
-20.7284
-22.2934
-24.042
-25.9997
-28.1929
-30.6292
-33.2829
-36.3644
-40.2574
-6.45135
-6.78665
-7.13244
-7.50003
-7.89061
-8.30488
-8.74463
-9.21205
-9.70954
-10.2398
-10.806
-11.4116
-12.061
-12.7591
-13.5118
-14.3259
-15.2099
-16.1734
-17.2282
-18.3882
-19.6695
-21.0909
-22.6736
-24.4408
-26.4175
-28.6296
-31.0838
-33.7532
-36.8466
-40.7456
-6.62656
-6.96727
-7.31701
-7.68923
-8.08495
-8.50465
-8.95014
-9.42367
-9.92769
-10.4649
-11.0386
-11.6522
-12.3102
-13.0176
-13.7802
-14.6051
-15.5006
-16.4766
-17.5449
-18.7194
-20.0163
-21.4544
-23.0548
-24.8405
-26.8362
-29.0672
-31.5392
-34.2243
-37.3298
-41.2355
-6.80178
-7.14787
-7.50156
-7.87848
-8.27938
-8.70456
-9.15584
-9.63554
-10.1461
-10.6904
-11.2715
-11.8933
-12.5599
-13.2765
-14.0491
-14.8848
-15.7919
-16.7805
-17.8623
-19.0514
-20.3639
-21.8187
-23.4368
-25.241
-27.2557
-29.5055
-31.9953
-34.6961
-37.8138
-41.7267
-6.9769
-7.3283
-7.68597
-8.06764
-8.47379
-8.90449
-9.3616
-9.8475
-10.3647
-10.916
-11.5047
-12.1345
-12.8098
-13.5358
-14.3184
-15.1649
-16.0837
-17.0848
-18.1802
-19.3838
-20.712
-22.1835
-23.8193
-25.642
-27.6756
-29.9442
-32.4518
-35.1681
-38.298
-42.2185
-7.15181
-7.50847
-7.87014
-8.2566
-8.66804
-9.1043
-9.56729
-10.0594
-10.5833
-11.1417
-11.738
-12.3759
-13.0599
-13.7952
-14.5879
-15.4452
-16.3756
-17.3894
-18.4983
-19.7166
-21.0604
-22.5487
-24.2021
-26.0433
-28.0957
-30.3829
-32.9082
-35.64
-38.7821
-42.7102
-7.32642
-7.68827
-8.05393
-8.44525
-8.86203
-9.30388
-9.77278
-10.2712
-10.8017
-11.3672
-11.9711
-12.6172
-13.3099
-14.0546
-14.8573
-15.7255
-16.6676
-17.6939
-18.8165
-20.0493
-21.4089
-22.9138
-24.5849
-26.4444
-28.5156
-30.8214
-33.3642
-36.1115
-39.2656
-43.2013
-7.50066
-7.86761
-8.23727
-8.63349
-9.05564
-9.50312
-9.97795
-10.4826
-11.0199
-11.5925
-12.204
-12.8582
-13.5597
-14.3138
-15.1266
-16.0056
-16.9594
-17.9984
-19.1345
-20.3819
-21.7571
-23.2787
-24.9674
-26.8452
-28.9351
-31.2594
-33.8195
-36.5821
-39.7481
-43.6913
-7.67444
-8.0464
-8.42007
-8.82123
-9.24878
-9.70192
-10.1827
-10.6937
-11.2376
-11.8174
-12.4365
-13.0989
-13.8091
-14.5725
-15.3955
-16.2853
-17.2508
-18.3024
-19.4521
-20.7141
-22.1049
-23.6431
-25.3494
-27.2454
-29.3538
-31.6964
-34.2738
-37.0514
-40.2292
-44.1798
-7.84773
-8.22459
-8.60225
-9.00838
-9.44137
-9.90017
-10.3869
-10.9042
-11.4548
-12.0418
-12.6685
-13.339
-14.058
-14.8308
-15.6638
-16.5644
-17.5417
-18.6058
-19.769
-21.0456
-22.452
-24.0068
-25.7305
-27.6447
-29.7715
-32.1322
-34.7266
-37.5191
-40.7084
-44.6663
-8.02048
-8.40213
-8.78375
-9.1949
-9.63333
-10.0978
-10.5905
-11.1141
-11.6714
-12.2655
-12.8998
-13.5785
-14.3061
-15.0882
-15.9313
-16.8428
-17.8317
-18.9083
-20.0851
-21.3762
-22.7981
-24.3694
-26.1105
-28.0427
-30.1877
-32.5664
-35.1776
-37.9847
-41.1853
-45.1503
-8.19268
-8.57899
-8.96455
-9.38072
-9.82461
-10.2947
-10.7934
-11.3233
-11.8873
-12.4884
-13.1303
-13.817
-14.5534
-15.3448
-16.1979
-17.1202
-18.1206
-19.2098
-20.4
-21.7056
-23.1429
-24.7307
-26.489
-28.4391
-30.6023
-32.9987
-35.6265
-38.4479
-41.6596
-45.6315
-8.36437
-8.75519
-9.14463
-9.56583
-10.0152
-10.4909
-10.9955
-11.5316
-12.1022
-12.7104
-13.3598
-14.0546
-14.7996
-15.6003
-16.4633
-17.3963
-18.4083
-19.51
-20.7136
-22.0335
-23.4863
-25.0903
-26.8659
-28.8337
-31.0148
-33.4287
-36.0729
-38.9083
-42.1308
-46.1094
-8.5356
-8.93076
-9.324
-9.7502
-10.2049
-10.6863
-11.1967
-11.739
-12.3162
-12.9314
-13.5883
-14.291
-15.0445
-15.8544
-16.7274
-17.6711
-18.6946
-19.8086
-21.0256
-22.3598
-23.8279
-25.4481
-27.2407
-29.2261
-31.4249
-33.8562
-36.5163
-39.3656
-42.5985
-46.5838
-8.70649
-9.10577
-9.50271
-9.93385
-10.3939
-10.8808
-11.3969
-11.9454
-12.529
-13.1511
-13.8154
-14.5261
-15.2881
-16.1071
-16.9899
-17.9442
-18.9791
-20.1055
-21.3357
-22.6841
-24.1674
-25.8038
-27.6132
-29.616
-31.8323
-34.2807
-36.9566
-39.8194
-43.0625
-47.0541
-8.87718
-9.28033
-9.68079
-10.1168
-10.5821
-11.0743
-11.5961
-12.1505
-12.7406
-13.3695
-14.0411
-14.7596
-15.53
-16.3581
-17.2506
-18.2154
-19.2617
-20.4003
-21.6436
-23.0063
-24.5046
-26.1569
-27.983
-30.003
-32.2367