/*--------------------------------*- C++ -*----------------------------------*\
  =========                 |
  \\      /  F ield         | OpenFOAM: The Open Source CFD Toolbox
   \\    /   O peration     | Website:  https://openfoam.org
    \\  /    A nd           | Version:  6.0
     \\/     M anipulation  |
\*---------------------------------------------------------------------------*/
FoamFile
{
    version     2.0;
    format      ascii;
    class       surfaceScalarField;
    location    "18";
    object      phi;
}
// * * * * * * * * * * * * * * * * * * * * * * * * * * * * * * * * * * * * * //

dimensions      [0 3 -1 0 0 0 0];

internalField   nonuniform List<scalar> 
38030
(
7.96756e-05
-0.160083
0.160003
0.000356806
-0.150623
0.150346
0.000796104
-0.143595
0.143156
0.00136453
-0.138292
0.137724
0.00203296
-0.134193
0.133524
0.00277498
-0.130903
0.130161
0.00356755
-0.12814
0.127347
0.00439124
-0.125705
0.124881
0.00523011
-0.123462
0.122623
0.00607146
-0.121322
0.12048
0.00690553
-0.119227
0.118393
0.00772507
-0.117144
0.116324
0.00852505
-0.115055
0.114255
0.00930218
-0.112955
0.112178
0.0100547
-0.110845
0.110092
0.0107818
-0.108728
0.108001
0.011484
-0.106614
0.105912
0.0121619
-0.104509
0.103831
0.0128171
-0.102424
0.101768
0.0134513
-0.100364
0.0997301
0.0140664
-0.0983381
0.097723
0.0146645
-0.0963508
0.0957527
0.0152478
-0.0944064
0.0938231
0.0158184
-0.0925073
0.0919367
0.0163784
-0.0906544
0.0900945
0.0169296
-0.0888466
0.0882954
0.0174738
-0.0870809
0.0865367
0.0180123
-0.0853525
0.084814
0.0185458
-0.0836543
0.0831208
-0.081977
0.0814483
0.0190744
9.14321e-05
-0.160174
0.000372831
-0.150904
0.000815836
-0.144038
0.00138782
-0.138864
0.00205893
-0.134864
0.0028024
-0.131647
0.00359495
-0.128932
0.00441704
-0.126527
0.00525272
-0.124298
0.00608939
-0.122158
0.00691745
-0.120055
0.00772984
-0.117956
0.00852173
-0.115847
0.00929004
-0.113724
0.0100332
-0.111588
0.0107507
-0.109446
0.0114429
-0.107306
0.012111
-0.105178
0.0127563
-0.103069
0.0133808
-0.100989
0.0139864
-0.0989438
0.0145754
-0.0969397
0.0151498
-0.0949808
0.015712
-0.0930694
0.0162639
-0.0912063
0.0168075
-0.0893903
0.0173447
-0.0876181
0.0178767
-0.0858845
0.0184045
-0.0841821
-0.0825007
0.0189282
9.89927e-05
-0.160273
0.000385822
-0.151191
0.000833049
-0.144485
0.00140866
-0.13944
0.00208233
-0.135538
0.00282692
-0.132391
0.00361898
-0.129725
0.00443891
-0.127347
0.0052708
-0.12513
0.00610218
-0.12299
0.0069236
-0.120876
0.00772825
-0.118761
0.00851147
-0.11663
0.00927043
-0.114483
0.0100037
-0.112321
0.0107111
-0.110153
0.011393
-0.107988
0.0120508
-0.105835
0.0126859
-0.103704
0.0133004
-0.101603
0.0138963
-0.0995396
0.0144758
-0.0975192
0.0150411
-0.0955461
0.0155945
-0.0936228
0.0161381
-0.09175
0.0166739
-0.0899261
0.0172038
-0.0881479
0.0177291
-0.0864098
0.0182508
-0.0847038
-0.0830192
0.0187694
0.000103577
-0.160377
0.000395891
-0.151483
0.000847781
-0.144937
0.00142708
-0.140019
0.00210311
-0.136214
0.00284846
-0.133137
0.00363955
-0.130516
0.00445676
-0.128164
0.00528426
-0.125957
0.00610974
-0.123815
0.00692394
-0.12169
0.00772025
-0.119557
0.00849426
-0.117404
0.00924336
-0.115232
0.00996635
-0.113044
0.0106631
-0.11085
0.0113344
-0.108659
0.0119815
-0.106482
0.0126061
-0.104329
0.0132103
-0.102207
0.0137961
-0.100125
0.0143659
-0.098089
0.0149218
-0.0961021
0.0154662
-0.0941673
0.0160013
-0.092285
0.016529
-0.0904539
0.0170513
-0.0886702
0.0175697
-0.0869282
0.0180853
-0.0852194
-0.0835324
0.0185984
0.000106921
-0.160484
0.000404159
-0.151781
0.00086057
-0.145393
0.00144333
-0.140602
0.00212139
-0.136892
0.00286707
-0.133882
0.00365667
-0.131305
0.00447059
-0.128978
0.00529312
-0.12678
0.00611209
-0.124634
0.00691848
-0.122497
0.0077059
-0.120344
0.00847019
-0.118169
0.00920894
-0.11597
0.00992116
-0.113756
0.010607
-0.111536
0.0112672
-0.10932
0.0119033
-0.107118
0.0125171
-0.104943
0.0131106
-0.102801
0.0136861
-0.100701
0.0142459
-0.0986487
0.0147923
-0.0966484
0.0153275
-0.0947025
0.0158537
-0.0928113
0.0163732
-0.0909733
0.0168877
-0.0891848
0.017399
-0.0874395
0.017908
-0.0857284
-0.0840399
0.0184156
0.000109608
-0.160594
0.000411189
-0.152082
0.000871755
-0.145854
0.00145762
-0.141188
0.00213728
-0.137571
0.00288279
-0.134628
0.00367037
-0.132093
0.00448043
-0.129788
0.00529739
-0.127597
0.00610928
-0.125446
0.00690729
-0.123295
0.00768528
-0.121122
0.00843932
-0.118923
0.00916725
-0.116698
0.00986828
-0.114457
0.0105427
-0.11221
0.0111915
-0.109968
0.0118163
-0.107743
0.0124189
-0.105545
0.0130016
-0.103384
0.0135666
-0.101266
0.0141162
-0.0991983
0.0146527
-0.0971849
0.0151784
-0.0952282
0.0156957
-0.0933286
0.0162067
-0.0914843
0.0167132
-0.0896913
0.0172171
-0.0879433
0.0177195
-0.0862308
-0.0845416
0.0182212
0.000111905
-0.160705
0.00041732
-0.152388
0.000881589
-0.146318
0.00147012
-0.141776
0.0021509
-0.138252
0.00289572
-0.135373
0.0036807
-0.132878
0.00448632
-0.130594
0.00529713
-0.128407
0.00610136
-0.12625
0.00689043
-0.124084
0.00765846
-0.12189
0.00840176
-0.119666
0.00911841
-0.117415
0.00980784
-0.115147
0.0104705
-0.112873
0.0111076
-0.110605
0.0117207
-0.108356
0.012312
-0.106136
0.0128835
-0.103955
0.0134377
-0.10182
0.0139768
-0.0997375
0.0145033
-0.0977114
0.0150194
-0.0957443
0.0155275
-0.0938366
0.0160297
-0.0919865
0.016528
-0.0901897
0.0170243
-0.0884396
0.0175199
-0.0867264
-0.0850372
0.0180156
0.000113928
-0.160819
0.000422742
-0.152696
0.000890251
-0.146786
0.00148096
-0.142367
0.00216234
-0.138934
0.00290592
-0.136116
0.00368774
-0.13366
0.00448834
-0.131394
0.00529241
-0.129211
0.0060884
-0.127046
0.00686798
-0.124863
0.00762553
-0.122648
0.00835762
-0.120398
0.00906255
-0.11812
0.00973997
-0.115824
0.0103905
-0.113523
0.0110155
-0.11123
0.0116167
-0.108958
0.0121963
-0.106716
0.0127565
-0.104515
0.0132997
-0.102363
0.0138281
-0.100266
0.0143443
-0.0982276
0.0148506
-0.0962506
0.0153493
-0.0943353
0.0158425
-0.0924797
0.0163325
-0.0906796
0.016821
-0.0889281
0.0173095
-0.0872149
-0.0855267
0.0177989
0.000115743
-0.160935
0.000427562
-0.153008
0.000897854
-0.147256
0.00149025
-0.142959
0.0021717
-0.139615
0.00291348
-0.136858
0.00369156
-0.134438
0.00448654
-0.132189
0.00528329
-0.130008
0.00607048
-0.127833
0.00684004
-0.125633
0.00758661
-0.123394
0.00830702
-0.121118
0.0089998
-0.118813
0.00966483
-0.116489
0.0103029
-0.114161
0.0109155
-0.111843
0.0115045
-0.109547
0.0120722
-0.107284
0.0126208
-0.105064
0.0131527
-0.102895
0.0136703
-0.100784
0.014176
-0.0987333
0.0146722
-0.0967468
0.0151613
-0.0948243
0.0156454
-0.0929638
0.0161267
-0.091161
0.0166072
-0.0894086
0.0170885
-0.0876962
-0.0860098
0.0175715
0.00011738
-0.161053
0.000431852
-0.153323
0.000904482
-0.147729
0.00149807
-0.143553
0.00217906
-0.140296
0.00291847
-0.137597
0.00369224
-0.135211
0.00448102
-0.132978
0.00526987
-0.130797
0.00604771
-0.128611
0.00680672
-0.126392
0.00754182
-0.12413
0.0082501
-0.121827
0.00893033
-0.119493
0.00958258
-0.117141
0.0102078
-0.114787
0.0108077
-0.112443
0.0113843
-0.110123
0.0119398
-0.107839
0.0124765
-0.105601
0.012997
-0.103416
0.0135035
-0.10129
0.0139986
-0.0992284
0.0144845
-0.0972327
0.0149637
-0.0953035
0.0154384
-0.0934385
0.0159109
-0.0916335
0.0163832
-0.0898809
0.016857
-0.08817
-0.0864864
0.0173335
0.000118859
-0.161171
0.000435652
-0.15364
0.000910197
-0.148203
0.00150449
-0.144147
0.00218449
-0.140976
0.00292099
-0.138334
0.00368986
-0.13598
0.00447186
-0.13376
0.00525226
-0.131577
0.0060202
-0.129379
0.00676815
-0.12714
0.0074913
-0.124853
0.008187
-0.122522
0.00885428
-0.12016
0.0094934
-0.117781
0.0101055
-0.115399
0.0106924
-0.11303
0.0112562
-0.110687
0.0117993
-0.108382
0.0123239
-0.106125
0.0128327
-0.103924
0.013328
-0.101785
0.0138121
-0.0997125
0.0142876
-0.0977082
0.0147566
-0.0957725
0.0152218
-0.0939036
0.0156852
-0.0920969
0.016149
-0.0903448
0.0166152
-0.0886361
-0.0869562
0.017085
0.000120191
-0.161292
0.000438989
-0.153958
0.000915047
-0.148679
0.00150958
-0.144742
0.00218809
-0.141654
0.00292112
-0.139067
0.00368452
-0.136744
0.00445918
-0.134535
0.00523056
-0.132349
0.00598807
-0.130137
0.00672447
-0.127876
0.00743521
-0.125563
0.00811791
-0.123205
0.00877183
-0.120814
0.00939746
-0.118406
0.00999612
-0.115998
0.0105697
-0.113603
0.0111205
-0.111238
0.0116509
-0.108913
0.0121632
-0.106638
0.0126601
-0.104421
0.0131438
-0.102269
0.0136169
-0.100186
0.0140816
-0.0981729
0.0145404
-0.0962313
0.0149956
-0.0943589
0.0154497
-0.092551
0.0159049
-0.0908
0.0163631
-0.0890944
-0.0874191
0.016826
0.00012138
-0.161413
0.000441891
-0.154279
0.000919074
-0.149156
0.00151341
-0.145336
0.00218991
-0.142331
0.00291894
-0.139796
0.00367632
-0.137501
0.00444308
-0.135301
0.0052049
-0.133111
0.00595147
-0.130883
0.00667582
-0.128601
0.0073737
-0.126261
0.00804299
-0.123874
0.00868318
-0.121454
0.00929497
-0.119018
0.00987985
-0.116582
0.0104399
-0.114163
0.0109773
-0.111775
0.0114948
-0.10943
0.0119946
-0.107138
0.0124793
-0.104906
0.0129513
-0.102741
0.013413
-0.100647
0.0138667
-0.0986266
0.0143149
-0.0966795
0.01476
-0.0948039
0.0152044
-0.0929954
0.0156506
-0.0912462
0.0161008
-0.0895445
-0.0878748
0.0165565
0.00012243
-0.161535
0.000444373
-0.154601
0.000922322
-0.149634
0.00151602
-0.14593
0.00219004
-0.143005
0.00291454
-0.14052
0.00366536
-0.138252
0.00442369
-0.13606
0.00517542
-0.133862
0.00591054
-0.131618
0.00662238
-0.129312
0.00730696
-0.126946
0.00796243
-0.12453
0.00858853
-0.12208
0.00918613
-0.119616
0.00975692
-0.117153
0.0103031
-0.11471
0.010827
-0.112299
0.0113312
-0.109934
0.0118182
-0.107625
0.0122905
-0.105378
0.0127505
-0.103201
0.0132006
-0.101097
0.0136431
-0.0990691
0.0140803
-0.0971168
0.0145149
-0.0952386
0.0149494
-0.0934299
0.0153864
-0.0916831
0.015828
-0.0899862
-0.0883231
0.0162764
0.000123343
-0.161659
0.000446455
-0.154924
0.000924836
-0.150113
0.0015175
-0.146522
0.00218858
-0.143676
0.00290804
-0.14124
0.00365178
-0.138996
0.00440113
-0.136809
0.00514227
-0.134604
0.00586546
-0.132342
0.00656433
-0.130011
0.00723519
-0.127617
0.00787646
-0.125171
0.00848809
-0.122692
0.00907119
-0.120199
0.00962757
-0.11771
0.0101595
-0.115242
0.0106696
-0.112809
0.0111603
-0.110425
0.0116343
-0.108099
0.012094
-0.105838
0.0125417
-0.103649
0.0129798
-0.101535
0.0134107
-0.0995
0.0138368
-0.0975428
0.0142605
-0.0956623
0.0146847
-0.0938541
0.0151119
-0.0921103
0.0155448
-0.090419
-0.0887637
0.0159854
0.00012412
-0.161783
0.000448161
-0.155248
0.000926667
-0.150591
0.00151792
-0.147114
0.00218561
-0.144344
0.00289955
-0.141954
0.00363569
-0.139732
0.00437556
-0.137549
0.00510562
-0.135334
0.00581641
-0.133052
0.00650188
-0.130697
0.00715861
-0.128274
0.0077853
-0.125798
0.00838213
-0.123289
0.00895039
-0.120767
0.00949206
-0.118251
0.0100096
-0.115759
0.0105055
-0.113305
0.0109825
-0.110902
0.0114431
-0.108559
0.0118898
-0.106285
0.012325
-0.104084
0.0127509
-0.101961
0.0131698
-0.0999189
0.0135843
-0.0979573
0.0139967
-0.0960748
0.0144101
-0.0942674
0.0148271
-0.0925274
0.0152507
-0.0908426
-0.0891963
0.0156832
0.000124761
-0.161908
0.000449518
-0.155573
0.00092788
-0.15107
0.00151738
-0.147703
0.00218125
-0.145008
0.00288919
-0.142662
0.00361724
-0.14046
0.00434714
-0.138279
0.00506564
-0.136052
0.00576359
-0.13375
0.00643523
-0.131368
0.00707746
-0.128916
0.00768921
-0.12641
0.0082709
-0.123871
0.008824
-0.12132
0.00935066
-0.118778
0.0098534
-0.116262
0.0103349
-0.113787
0.0107978
-0.111365
0.0112448
-0.109006
0.0116782
-0.106718
0.0121005
-0.104506
0.0125138
-0.102375
0.0129205
-0.100326
0.0133228
-0.0983596
0.0137235
-0.0964755
0.0141255
-0.0946694
0.0145318
-0.0929337
0.0149456
-0.0912563
-0.0896202
0.0153695
0.000125267
-0.162033
0.00045056
-0.155898
0.00092855
-0.151548
0.00151597
-0.148291
0.00217563
-0.145667
0.00287711
-0.143363
0.00359659
-0.141179
0.00431605
-0.138998
0.00502254
-0.136759
0.00570722
-0.134435
0.00636465
-0.132026
0.00699199
-0.129543
0.00758846
-0.127006
0.00815469
-0.124437
0.00869235
-0.121858
0.0092037
-0.119289
0.00969138
-0.116749
0.0101581
-0.114253
0.0106067
-0.111813
0.0110397
-0.109439
0.0114596
-0.107138
0.0118686
-0.104915
0.0122689
-0.102775
0.0126628
-0.100719
0.0130526
-0.0987494
0.0134409
-0.0968639
0.0138308
-0.0950593
0.0142257
-0.0933285
0.0146289
-0.0916596
-0.090035
0.0150436
0.000125644
-0.162159
0.000451343
-0.156224
0.000928779
-0.152025
0.00151383
-0.148876
0.00216888
-0.146322
0.00286346
-0.144058
0.00357391
-0.14189
0.00428248
-0.139707
0.00497653
-0.137453
0.00564754
-0.135106
0.00629037
-0.132669
0.0069025
-0.130155
0.00748337
-0.127587
0.00803385
-0.124987
0.00855576
-0.12238
0.00905152
-0.119785
0.00952387
-0.117222
0.00997562
-0.114705
0.0104095
-0.112247
0.0108282
-0.109858
0.0112341
-0.107544
0.0116295
-0.105311
0.0120163
-0.103162
0.0123969
-0.1011
0.0127735
-0.099126
0.0131488
-0.0972391
0.0135259
-0.0954364
0.0139085
-0.0937111
0.0143003
-0.0920514
-0.0904397
0.014705
0.000125899
-0.162284
0.000451937
-0.15655
0.000928691
-0.152502
0.00151111
-0.149458
0.00216117
-0.146972
0.00284842
-0.144745
0.00354938
-0.142591
0.00424663
-0.140404
0.00492783
-0.138134
0.00558479
-0.135763
0.00621269
-0.133297
0.00680928
-0.130752
0.00737426
-0.128152
0.00790871
-0.125522
0.00841461
-0.122886
0.00889453
-0.120265
0.00935127
-0.117679
0.00978771
-0.115142
0.0102066
-0.112666
0.0106107
-0.110262
0.0110022
-0.107935
0.0113835
-0.105692
0.0117564
-0.103535
0.0121232
-0.101467
0.012486
-0.0994888
0.0128474
-0.0976006
0.0132107
-0.0957997
0.0135799
-0.0940802
0.0139591
-0.0924306
-0.0908333
0.0143528
0.000126057
-0.162411
0.00045245
-0.156876
0.000928447
-0.152978
0.00150798
-0.150038
0.00215268
-0.147617
0.00283217
-0.145425
0.00352322
-0.143282
0.00420873
-0.14109
0.00487669
-0.138802
0.00551925
-0.136406
0.00613189
-0.133909
0.00671266
-0.131333
0.00726149
-0.128701
0.00777966
-0.12604
0.00826933
-0.123375
0.00873316
-0.120729
0.00917404
-0.118119
0.00959491
-0.115562
0.00999857
-0.11307
0.0103876
-0.110651
0.0107644
-0.108312
0.0111311
-0.106059
0.0114896
-0.103893
0.0118419
-0.101819
0.0121901
-0.099837
0.0125367
-0.0979472
0.0128852
-0.0961482
0.0132396
-0.0944346
0.013605
-0.0927959
-0.0912145
0.0139861
0.000126166
-0.162537
0.000453037
-0.157203
0.000928258
-0.153453
0.00150465
-0.150614
0.00214361
-0.148256
0.0028149
-0.146096
0.00349562
-0.143962
0.00416899
-0.141763
0.00482335
-0.139456
0.00545119
-0.137033
0.00604829
-0.134506
0.00661298
-0.131897
0.00714544
-0.129233
0.00764713
-0.126542
0.00812037
-0.123848
0.00856791
-0.121176
0.00899273
-0.118544
0.00939778
-0.115968
0.00978587
-0.113458
0.0101596
-0.111025
0.0105213
-0.108674
0.0108729
-0.10641
0.0112164
-0.104237
0.0115536
-0.102156
0.0118864
-0.10017
0.0122172
-0.0982781
0.0125495
-0.0964805
0.0128877
-0.0947728
0.0132373
-0.0931456
-0.0915815
0.0136043
0.000126328
-0.162663
0.000453937
-0.157531
0.000928397
-0.153927
0.00150139
-0.151187
0.00213418
-0.148889
0.00279684
-0.146759
0.00346681
-0.144632
0.00412766
-0.142424
0.00476808
-0.140097
0.00538089
-0.137646
0.0059622
-0.135088
0.0065106
-0.132446
0.00702651
-0.129749
0.00751157
-0.127027
0.00796823
-0.124305
0.00839935
-0.121607
0.00880794
-0.118953
0.00919697
-0.116357
0.00956927
-0.11383
0.00992736
-0.111383
0.0102735
-0.10902
0.0106097
-0.106746
0.0109376
-0.104565
0.011259
-0.102478
0.0115755
-0.100486
0.0118895
-0.0985921
0.0122042
-0.0967952
0.0125243
-0.095093
0.0128561
-0.0934774
-0.0919321
0.0132067
0.000126737
-0.16279
0.000455515
-0.157859
0.000929224
-0.154401
0.00149847
-0.151756
0.00212464
-0.149515
0.00277821
-0.147412
0.00343699
-0.145291
0.00408495
-0.143072
0.00471112
-0.140723
0.00530864
-0.138244
0.00587394
-0.135653
0.00640589
-0.132978
0.00690511
-0.130248
0.00737344
-0.127495
0.00781345
-0.124745
0.00822806
-0.122022
0.00862033
-0.119345
0.00899324
-0.116729
0.00934957
-0.114187
0.0096918
-0.111725
0.0100221
-0.10935
0.0103424
-0.107067
0.0106542
-0.104877
0.0109591
-0.102782
0.0112584
-0.100786
0.0115543
-0.098888
0.0118499
-0.0970907
0.0121498
-0.0953929
0.012461
-0.0937886
-0.0922633
0.0127922
0.000127781
-0.162918
0.000458331
-0.15819
0.0009312
-0.154874
0.00149623
-0.152321
0.00211524
-0.150134
0.00275921
-0.148056
0.00340639
-0.145938
0.00404109
-0.143707
0.0046527
-0.141334
0.0052347
-0.138826
0.00578382
-0.136202
0.00629919
-0.133493
0.00678166
-0.130731
0.00723323
-0.127947
0.00765657
-0.125168
0.00805469
-0.12242
0.00843065
-0.119721
0.00878742
-0.117086
0.00912772
-0.114527
0.00945398
-0.112051
0.00976827
-0.109665
0.0100723
-0.107371
0.0103676
-0.105172
0.0106552
-0.10307
0.0109366
-0.101067
0.0112132
-0.0991646
0.0114877
-0.0973653
0.0117648
-0.09567
0.012052
-0.0940758
-0.0925712
0.0123599
0.000130136
-0.163048
0.000463154
-0.158523
0.000934834
-0.155346
0.00149499
-0.152881
0.0021062
-0.150745
0.00274003
-0.14869
0.00337516
-0.146574
0.00399626
-0.144328
0.00459303
-0.141931
0.0051593
-0.139392
0.00569211
-0.136735
0.00619084
-0.133992
0.00665655
-0.131197
0.00709141
-0.128381
0.00749817
-0.125575
0.0078799
-0.122802
0.00823968
-0.120081
0.00858043
-0.117427
0.00890481
-0.114851
0.00921514
-0.112362
0.00951336
-0.109963
0.00980105
-0.107658
0.0100794
-0.10545
0.0103495
-0.10334
0.010612
-0.101329
0.0108682
-0.0994208
0.01112
-0.097617
0.0113714
-0.0959214
0.0116304
-0.0943348
-0.0928512
0.0119105
0.000134811
-0.163182
0.000470873
-0.158859
0.000940639
-0.155816
0.00149505
-0.153436
0.00209772
-0.151348
0.00272084
-0.149313
0.00334346
-0.147196
0.00395059
-0.144935
0.00453227
-0.142513
0.00508265
-0.139942
0.00559906
-0.137251
0.00608114
-0.134474
0.00653017
-0.131646
0.00694843
-0.1288
0.0073388
-0.125966
0.00770438
-0.123167
0.00804823
-0.120425
0.00837325
-0.117752
0.00868199
-0.11516
0.00897666
-0.112656
0.00925904
-0.110245
0.00953052
-0.10793
0.00979207
-0.105712
0.0100444
-0.103592
0.0102878
-0.101573
0.0105229
-0.0996558
0.0107507
-0.0978449
0.0109743
-0.096145
0.0112012
-0.0945618
-0.0930973
0.0114473
0.000143361
-0.163326
0.000482918
-0.159199
0.0009495
-0.156282
0.00149686
-0.153983
0.00209004
-0.151941
0.00270175
-0.149925
0.00331136
-0.147806
0.00390417
-0.145528
0.00447052
-0.143079
0.00500488
-0.140477
0.00550486
-0.137751
0.00597034
-0.134939
0.0064028
-0.132078
0.00680469
-0.129202
0.00717895
-0.12634
0.00752872
-0.123517
0.00785708
-0.120753
0.00816684
-0.118062
0.00846047
-0.115454
0.00874002
-0.112936
0.0090071
-0.110512
0.00926284
-0.108186
0.00950793
-0.105957
0.00974262
-0.103827
0.00996689
-0.101797
0.0101806
-0.0998696
0.0103839
-0.0980481
0.0105776
-0.0963386
0.0107666
-0.0947508
-0.093297
0.0109663
0.000160218
-0.163486
0.000503033
-0.159541
0.000963124
-0.156742
0.00150095
-0.154521
0.00208319
-0.152523
0.00268266
-0.150524
0.00327876
-0.148402
0.00385693
-0.146106
0.00440777
-0.14363
0.00492603
-0.140995
0.00540958
-0.138235
0.00585858
-0.135388
0.00627468
-0.132494
0.00666047
-0.129587
0.007019
-0.126698
0.00735345
-0.123852
0.00766688
-0.121066
0.00796207
-0.118357
0.0082414
-0.115733
0.00850676
-0.113201
0.00875955
-0.110765
0.0090006
-0.108427
0.00923014
-0.106186
0.00944787
-0.104045
0.00965297
-0.102002
0.00984432
-0.100061
0.0100203
-0.0982241
0.0101778
-0.0964961
0.0103161
-0.0948891
-0.0934355
0.0104545
0.000199713
-0.163686
0.000535967
-0.159878
0.000981638
-0.157188
0.00150652
-0.155046
0.00207647
-0.153093
0.0026631
-0.151111
0.00324536
-0.148984
0.0038087
-0.146669
0.00434393
-0.144165
0.00484607
-0.141497
0.00531328
-0.138702
0.00574595
-0.135821
0.00614593
-0.132894
0.00651597
-0.129957
0.00685921
-0.127042
0.00717891
-0.124171
0.00747813
-0.121366
0.00775964
-0.118638
0.00802577
-0.115999
0.00827833
-0.113454
0.00851856
-0.111005
0.00874703
-0.108655
0.0089636
-0.106403
0.00916727
-0.104248
0.00935611
-0.102191
0.00952699
-0.100232
0.00967451
-0.0983716
0.0097877
-0.0966093
0.00985174
-0.0949531
-0.0934982
0.00991449
0.166978
0.000140627
-0.167119
0.166859
0.00011868
0.166749
0.000110189
0.166643
0.000106649
0.166537
0.000105425
0.166432
0.000105583
0.166325
0.000106512
0.166217
0.000107805
0.166108
0.000109222
0.165997
0.000110646
0.165885
0.000112018
0.165772
0.000113305
0.165658
0.000114496
0.165542
0.000115586
0.165425
0.000116579
0.165308
0.000117473
0.16519
0.000118273
0.165071
0.000118978
0.164951
0.000119585
0.164831
0.000120092
0.164711
0.000120488
0.16459
0.000120757
0.164469
0.00012086
0.164348
0.000120744
0.164228
0.000120295
0.164109
0.000119299
0.163991
0.000117294
0.163878
0.000113268
0.163774
0.000104121
8.81349e-05
0.167652
0.000352569
-0.167864
0.167431
0.000340113
0.167206
0.00033512
0.166978
0.000334779
0.166747
0.000336836
0.166512
0.000340452
0.166273
0.000345113
0.166031
0.000350374
0.165784
0.000355907
0.165533
0.000361499
0.165278
0.000367021
0.165019
0.00037239
0.164756
0.000377543
0.164489
0.000382455
0.164218
0.000387102
0.163944
0.000391471
0.163667
0.000395558
0.163387
0.000399354
0.163104
0.000402849
0.162818
0.000406031
0.162529
0.000408875
0.162239
0.000411345
0.161946
0.000413371
0.161652
0.000414841
0.161357
0.000415565
0.161061
0.000415206
0.160765
0.000413167
0.16047
0.000408473
0.160175
0.000399073
0.000385273
0.167624
0.00059118
-0.167862
0.167368
0.00059589
0.1671
0.000603127
0.166822
0.000612859
0.166535
0.000624036
0.166239
0.000636132
0.165935
0.000648867
0.165624
0.00066196
0.165304
0.000675163
0.164978
0.000688288
0.164644
0.000701188
0.164302
0.000713762
0.163954
0.000725936
0.163599
0.000737658
0.163237
0.000748894
0.162869
0.000759616
0.162494
0.000769806
0.162114
0.00077945
0.161729
0.00078853
0.161338
0.000797025
0.160942
0.000804907
0.160541
0.000812123
0.160136
0.000818597
0.159726
0.000824206
0.159313
0.000828757
0.158896
0.000831955
0.158476
0.000833352
0.158052
0.000832382
0.157623
0.000828044
0.000820616
0.166758
0.00082508
-0.166992
0.166505
0.000848052
0.166237
0.000871311
0.165955
0.00089537
0.165659
0.000919919
0.16535
0.000944681
0.16503
0.000969498
0.164697
0.000994213
0.164354
0.00101866
0.164
0.00104271
0.163634
0.00106625
0.163259
0.00108917
0.162874
0.00111141
0.162478
0.00113291
0.162074
0.00115365
0.16166
0.00117358
0.161237
0.0011927
0.160805
0.00121096
0.160365
0.00122837
0.159918
0.00124489
0.159462
0.0012605
0.158999
0.00127516
0.158529
0.00128879
0.158052
0.00130128
0.157568
0.00131251
0.157078
0.00132224
0.156581
0.00133021
0.156077
0.0013361
0.155566
0.00133942
0.00134033
0.16509
0.00103095
-0.165296
0.164865
0.00107287
0.164622
0.00111409
0.164363
0.00115507
0.164087
0.00119579
0.163795
0.00123613
0.163489
0.001276
0.163168
0.00131528
0.162833
0.00135388
0.162484
0.0013917
0.162121
0.00142864
0.161746
0.00146462
0.161358
0.0014996
0.160957
0.00153352
0.160544
0.00156635
0.16012
0.00159806
0.159684
0.00162863
0.159237
0.00165805
0.158779
0.00168629
0.15831
0.00171334
0.157832
0.00173919
0.157343
0.00176379
0.156845
0.00178711
0.156337
0.00180907
0.15582
0.00182958
0.155294
0.00184851
0.154758
0.0018657
0.154213
0.001881
0.153658
0.0018942
0.0019055
0.162725
0.00119567
-0.16289
0.162541
0.00125722
0.162338
0.00131756
0.162116
0.00137703
0.161876
0.00143569
0.161618
0.0014935
0.161344
0.00155037
0.161053
0.00160625
0.160746
0.00166106
0.160423
0.00171471
0.160084
0.00176714
0.159731
0.00181828
0.159362
0.00186808
0.158979
0.00191649
0.158582
0.00196349
0.158171
0.00200905
0.157747
0.00205316
0.157309
0.0020958
0.156858
0.00213696
0.156395
0.00217665
0.155919
0.00221484
0.155431
0.00225153
0.154932
0.0022867
0.154421
0.00232031
0.153898
0.00235232
0.153364
0.00238267
0.152818
0.0024113
0.152261
0.00243815
0.151692
0.00246317
0.00248661
0.159806
0.00131437
-0.159925
0.159667
0.00139597
0.159509
0.00147607
0.159331
0.00155488
0.159134
0.00163247
0.158919
0.00170882
0.158685
0.00178388
0.158434
0.00185761
0.158165
0.00192992
0.157879
0.00200076
0.157576
0.00207006
0.157257
0.00213776
0.156921
0.00220382
0.156569
0.0022682
0.156202
0.00233086
0.155819
0.00239178
0.155421
0.00245095
0.155009
0.00250837
0.154582
0.00256404
0.15414
0.00261795
0.153685
0.00267012
0.153216
0.00272055
0.152734
0.00276926
0.152238
0.00281623
0.151729
0.00286148
0.151206
0.00290501
0.150671
0.0029468
0.150122
0.0029869
0.14956
0.0030253
0.00306229
0.156483
0.0013878
-0.156557
0.15639
0.00148952
0.156276
0.00158956
0.156143
0.00168801
0.155991
0.00178494
0.155819
0.00188034
0.155629
0.00197416
0.15542
0.00206636
0.155193
0.00215687
0.154948
0.00224563
0.154686
0.00233258
0.154406
0.00241766
0.154109
0.00250084
0.153795
0.00258206
0.153465
0.0026613
0.153118
0.00273855
0.152755
0.00281378
0.152376
0.002887
0.151982
0.00295822
0.151573
0.00302745
0.151148
0.00309471
0.150709
0.00316004
0.150254
0.00322346
0.149786
0.00328502
0.149302
0.00334474
0.148805
0.00340269
0.148293
0.00345891
0.147766
0.00351347
0.147225
0.00356643
0.00361806
0.152897
0.00142013
-0.15293
0.152845
0.00154174
0.152773
0.00166152
0.152682
0.00177953
0.152571
0.00189579
0.152441
0.00201028
0.152292
0.00212297
0.152125
0.0022338
0.151939
0.00234272
0.151735
0.00244965
0.151513
0.00255454
0.151273
0.00265734
0.151016
0.002758
0.150742
0.00285648
0.15045
0.00295275
0.150142
0.00304679
0.149817
0.00313859
0.149476
0.00322816
0.149119
0.0033155
0.148745
0.00340066
0.148357
0.00348365
0.147952
0.00356455
0.147532
0.00364339
0.147097
0.00372026
0.146646
0.00379522
0.146181
0.00386837
0.1457
0.0039398
0.145204
0.00400963
0.144692
0.00407793
0.00414497
0.149169
0.00141733
-0.149167
0.149153
0.00155835
0.149117
0.00169746
0.149062
0.00183464
0.148988
0.00196991
0.148895
0.00210323
0.148783
0.00223456
0.148653
0.00236385
0.148505
0.00249102
0.148338
0.00261602
0.148154
0.00273878
0.147952
0.00285925
0.147733
0.00297739
0.147496
0.00309314
0.147242
0.00320649
0.146972
0.00331741
0.146684
0.00342589
0.146381
0.00353195
0.146061
0.00363559
0.145724
0.00373687
0.145372
0.00383583
0.145004
0.00393255
0.14462
0.0040271
0.144221
0.00411959
0.143806
0.00421013
0.143376
0.00429884
0.14293
0.00438586
0.142468
0.00447135
0.14199
0.00455541
0.00463829
0.145397
0.00138601
-0.145365
0.145409
0.00154585
0.145403
0.00170368
0.145378
0.00185948
0.145335
0.00201324
0.145273
0.00216491
0.145193
0.00231443
0.145095
0.00246175
0.144979
0.00260679
0.144846
0.00274949
0.144695
0.00288979
0.144527
0.00302763
0.144341
0.00316295
0.144138
0.00329573
0.143919
0.00342592
0.143683
0.0035535
0.14343
0.00367847
0.143161
0.00380084
0.142876
0.00392065
0.142575
0.00403792
0.142258
0.00415274
0.141926
0.0042652
0.141578
0.00437539
0.141214
0.00448346
0.140834
0.00458955
0.140439
0.00469383
0.140029
0.00479647
0.139602
0.00489767
0.13916
0.00499757
0.00509642
0.141654
0.00133271
-0.141601
0.141689
0.00151066
0.141706
0.00168655
0.141705
0.00186032
0.141687
0.00203193
0.14165
0.00220133
0.141596
0.00236846
0.141525
0.00253325
0.141436
0.00269562
0.14133
0.0028555
0.141207
0.00301283
0.141067
0.00316755
0.14091
0.0033196
0.140737
0.00346893
0.140548
0.00361552
0.140342
0.00375935
0.14012
0.0039004
0.139882
0.0040387
0.139628
0.00417427
0.139359
0.00430718
0.139074
0.0044375
0.138774
0.00456534
0.138459
0.00469084
0.138128
0.00481417
0.137782
0.0049355
0.137421
0.00505506
0.137044
0.00517306
0.136652
0.00528974
0.136244
0.00540528
0.00551996
0.137996
0.00126338
-0.137927
0.138048
0.00145875
0.138082
0.00165199
0.1381
0.00184303
0.1381
0.00203182
0.138083
0.0022183
0.138049
0.00240239
0.137998
0.00258401
0.137931
0.00276308
0.137847
0.00293953
0.137746
0.00311329
0.137629
0.00328429
0.137497
0.00345248
0.137348
0.00361781
0.137183
0.00378023
0.137003
0.00393974
0.136807
0.00409632
0.136595
0.00424999
0.136369
0.0044008
0.136127
0.00454879
0.135871
0.00469407
0.135599
0.00483677
0.135313
0.00497704
0.135012
0.00511509
0.134697
0.00525114
0.134366
0.00538546
0.134021
0.00551832
0.133661
0.00565001
0.133285
0.00578079
0.00591093
0.134459
0.00118322
-0.134379
0.134523
0.00139532
0.13457
0.00160523
0.1346
0.00181287
0.134613
0.00201816
0.134611
0.00222104
0.134592
0.00242142
0.134556
0.00261922
0.134505
0.00281434
0.134438
0.00300671
0.134355
0.00319626
0.134256
0.00338291
0.134142
0.0035666
0.134013
0.00374729
0.133868
0.00392492
0.133708
0.00409948
0.133534
0.00427096
0.133344
0.00443937
0.13314
0.00460476
0.132922
0.00476719
0.132689
0.00492678
0.132442
0.00508367
0.132181
0.00523804
0.131906
0.00539012
0.131617
0.00554021
0.131314
0.0056886
0.130997
0.00583566
0.130665
0.00598173
0.130319
0.00612714
0.00627222
0.131067
0.00109652
-0.13098
0.131138
0.00132473
0.131192
0.00155068
0.131231
0.00177427
0.131254
0.00199543
0.131261
0.00221407
0.131252
0.00243011
0.131228
0.00264345
0.131188
0.00285398
0.131133
0.00306163
0.131063
0.00326633
0.130978
0.00346798
0.130878
0.00366654
0.130763
0.00386193
0.130634
0.00405412
0.130491
0.00424307
0.130333
0.00442878
0.130161
0.00461126
0.129975
0.00479055
0.129776
0.00496672
0.129562
0.0051399
0.129336
0.00531023
0.129096
0.00547794
0.128843
0.00564329
0.128576
0.0058066
0.128297
0.00596827
0.128004
0.00612871
0.127697
0.00628838
0.127376
0.0064477
0.00660707
0.127831
0.00100677
-0.127742
0.127906
0.00125051
0.127964
0.00149192
0.128008
0.00173089
0.128036
0.00196734
0.128049
0.00220116
0.128047
0.00243226
0.12803
0.00266053
0.127998
0.00288588
0.127951
0.00310821
0.12789
0.00332744
0.127815
0.00354349
0.127725
0.00375628
0.127621
0.00396576
0.127503
0.00417186
0.127372
0.00437456
0.127227
0.00457384
0.127068
0.00476971
0.126897
0.00496221
0.126712
0.00515141
0.126514
0.00533743
0.126304
0.00552044
0.126081
0.00570067
0.125846
0.00587844
0.125599
0.00605412
0.125339
0.00622817
0.125066
0.00640111
0.124781
0.00657349
0.124483
0.00674588
0.00691878
0.124757
0.000916638
-0.124666
0.124832
0.00117543
0.124892
0.0014318
0.124937
0.00168564
0.124967
0.00193685
0.124983
0.00218532
0.124985
0.00243095
0.124971
0.00267363
0.124944
0.00291324
0.124903
0.0031497
0.124847
0.0033829
0.124778
0.00361277
0.124695
0.00383923
0.124599
0.00406219
0.124489
0.00428161
0.124366
0.00449745
0.12423
0.00470967
0.124081
0.00491828
0.12392
0.00512331
0.123747
0.00532483
0.123561
0.00552296
0.123364
0.00571788
0.123155
0.00590983
0.122934
0.00609915
0.122702
0.00628628
0.122458
0.00647176
0.122203
0.00665622
0.121936
0.00684035
0.121657
0.00702489
0.00721049
0.121841
0.000828169
-0.121752
0.121915
0.00110159
0.121974
0.00137249
0.122019
0.00164075
0.122049
0.00190628
0.122066
0.00216894
0.122068
0.00242863
0.122056