/*--------------------------------*- C++ -*----------------------------------*\
  =========                 |
  \\      /  F ield         | OpenFOAM: The Open Source CFD Toolbox
   \\    /   O peration     | Website:  https://openfoam.org
    \\  /    A nd           | Version:  6.0
     \\/     M anipulation  |
\*---------------------------------------------------------------------------*/
FoamFile
{
    version     2.0;
    format      ascii;
    class       surfaceScalarField;
    location    "18";
    object      phi;
}
// * * * * * * * * * * * * * * * * * * * * * * * * * * * * * * * * * * * * * //

dimensions      [0 3 -1 0 0 0 0];

internalField   nonuniform List<scalar> 
38030
(
7.96653e-05
-0.160081
0.160002
0.000356787
-0.150618
0.150341
0.000796093
-0.143588
0.143149
0.00136454
-0.138284
0.137716
0.00203302
-0.134184
0.133515
0.0027751
-0.130893
0.130151
0.00356777
-0.128129
0.127336
0.00439157
-0.125693
0.124869
0.00523057
-0.12345
0.122611
0.00607207
-0.121309
0.120467
0.00690631
-0.119214
0.118379
0.00772604
-0.11713
0.116311
0.0085262
-0.115042
0.114242
0.00930354
-0.112942
0.112165
0.0100562
-0.110831
0.110079
0.0107836
-0.108715
0.107988
0.011486
-0.106601
0.105898
0.0121641
-0.104496
0.103818
0.0128196
-0.10241
0.101755
0.013454
-0.100351
0.0997167
0.0140693
-0.098325
0.0977097
0.0146676
-0.0963378
0.0957394
0.0152511
-0.0943934
0.0938099
0.015822
-0.0924945
0.0919236
0.0163821
-0.0906417
0.0900815
0.0169336
-0.088834
0.0882825
0.017478
-0.0870684
0.086524
0.0180167
-0.0853402
0.0848015
0.0185504
-0.0836422
0.0831086
-0.0819653
0.0814364
0.0190792
9.14242e-05
-0.160173
0.000372816
-0.1509
0.000815834
-0.144031
0.00138785
-0.138856
0.00205901
-0.134855
0.00280255
-0.131636
0.00359521
-0.128921
0.00441741
-0.126515
0.00525323
-0.124286
0.00609006
-0.122146
0.00691829
-0.120042
0.00773088
-0.117943
0.00852296
-0.115834
0.00929148
-0.113711
0.0100348
-0.111575
0.0107525
-0.109433
0.011445
-0.107293
0.0121133
-0.105164
0.0127589
-0.103056
0.0133836
-0.100976
0.0139894
-0.0989309
0.0145786
-0.0969269
0.0151532
-0.0949681
0.0157156
-0.0930568
0.0162677
-0.0911938
0.0168116
-0.0893778
0.017349
-0.0876058
0.0178812
-0.0858724
0.0184091
-0.0841702
-0.0824892
0.018933
9.89871e-05
-0.160272
0.000385813
-0.151187
0.000833055
-0.144479
0.0014087
-0.139432
0.00208243
-0.135528
0.0028271
-0.132381
0.00361927
-0.129714
0.00443932
-0.127335
0.00527135
-0.125118
0.0061029
-0.122977
0.0069245
-0.120864
0.00772934
-0.118748
0.00851276
-0.116618
0.00927194
-0.11447
0.0100055
-0.112308
0.010713
-0.11014
0.0113952
-0.107975
0.0120532
-0.105822
0.0126886
-0.103691
0.0133032
-0.101591
0.0138993
-0.099527
0.014479
-0.0975066
0.0150446
-0.0955336
0.0155982
-0.0936104
0.016142
-0.0917376
0.016678
-0.0899139
0.0172081
-0.0881358
0.0177336
-0.0863979
0.0182556
-0.0846922
-0.0830079
0.0187743
0.000103573
-0.160375
0.000395888
-0.151479
0.000847796
-0.144931
0.00142713
-0.140011
0.00210323
-0.136205
0.00284867
-0.133126
0.00363987
-0.130505
0.00445721
-0.128153
0.00528486
-0.125945
0.00611051
-0.123803
0.00692489
-0.121678
0.0077214
-0.119544
0.00849562
-0.117392
0.00924494
-0.115219
0.00996815
-0.113031
0.0106651
-0.110837
0.0113366
-0.108647
0.011984
-0.10647
0.0126088
-0.104316
0.0132132
-0.102195
0.0137992
-0.100113
0.0143692
-0.0980766
0.0149254
-0.0960898
0.01547
-0.094155
0.0160053
-0.0922729
0.0165332
-0.0904419
0.0170558
-0.0886584
0.0175744
-0.0869165
0.0180901
-0.0852079
-0.0835212
0.0186034
0.000106918
-0.160482
0.00040416
-0.151776
0.000860595
-0.145387
0.0014434
-0.140594
0.00212153
-0.136883
0.0028673
-0.133872
0.00365702
-0.131294
0.00447108
-0.128967
0.00529376
-0.126768
0.00611291
-0.124622
0.00691949
-0.122484
0.00770712
-0.120332
0.00847161
-0.118156
0.00921057
-0.115958
0.00992302
-0.113744
0.010609
-0.111523
0.0112695
-0.109307
0.0119058
-0.107106
0.0125198
-0.10493
0.0131136
-0.102789
0.0136893
-0.100689
0.0142493
-0.0986366
0.0147959
-0.0966364
0.0153313
-0.0946905
0.0158578
-0.0927994
0.0163775
-0.0909615
0.0168922
-0.0891731
0.0174037
-0.087428
0.0179129
-0.0857171
-0.0840289
0.0184206
0.000109607
-0.160592
0.000411195
-0.152078
0.000871789
-0.145848
0.00145771
-0.14118
0.00213744
-0.137562
0.00288305
-0.134618
0.00367075
-0.132082
0.00448096
-0.129777
0.00529808
-0.127585
0.00611015
-0.125434
0.00690835
-0.123283
0.00768655
-0.12111
0.0084408
-0.11891
0.00916894
-0.116686
0.0098702
-0.114445
0.0105448
-0.112198
0.0111939
-0.109956
0.0118189
-0.107731
0.0124218
-0.105533
0.0130047
-0.103372
0.0135698
-0.101254
0.0141196
-0.0991864
0.0146564
-0.0971731
0.0151824
-0.0952164
0.0156998
-0.0933169
0.016211
-0.0914727
0.0167178
-0.0896799
0.0172218
-0.087932
0.0177244
-0.0862198
-0.0845308
0.0182263
0.000111904
-0.160704
0.000417331
-0.152383
0.000881633
-0.146312
0.00147022
-0.141768
0.00215108
-0.138243
0.002896
-0.135363
0.00368112
-0.132867
0.00448688
-0.130583
0.00529786
-0.128396
0.00610227
-0.126239
0.00689154
-0.124072
0.00765977
-0.121878
0.00840329
-0.119654
0.00912016
-0.117403
0.00980981
-0.115135
0.0104727
-0.112861
0.01111
-0.110594
0.0117234
-0.108344
0.0123148
-0.106125
0.0128866
-0.103943
0.013441
-0.101808
0.0139804
-0.0997257
0.014507
-0.0976998
0.0150234
-0.0957328
0.0155317
-0.0938252
0.0160341
-0.0919751
0.0165326
-0.0901784
0.0170291
-0.0884285
0.0175249
-0.0867155
-0.0850266
0.0180207
0.000113929
-0.160818
0.000422757
-0.152692
0.000890302
-0.146779
0.00148107
-0.142359
0.00216254
-0.138925
0.00290623
-0.136106
0.00368818
-0.133649
0.00448893
-0.131383
0.00529317
-0.1292
0.00608935
-0.127035
0.00686913
-0.124852
0.00762689
-0.122636
0.0083592
-0.120386
0.00906435
-0.118108
0.009742
-0.115812
0.0103928
-0.113512
0.011018
-0.111219
0.0116194
-0.108946
0.0121992
-0.106704
0.0127597
-0.104504
0.013303
-0.102352
0.0138317
-0.100254
0.0143481
-0.0982162
0.0148546
-0.0962393
0.0153535
-0.094324
0.0158469
-0.0924685
0.0163371
-0.0906686
0.0168258
-0.0889172
0.0173145
-0.0872042
-0.0855163
0.0178042
0.000115746
-0.160933
0.000427581
-0.153004
0.000897914
-0.14725
0.00149037
-0.142952
0.00217191
-0.139606
0.00291381
-0.136848
0.00369203
-0.134427
0.00448716
-0.132178
0.00528409
-0.129997
0.00607147
-0.127822
0.00684124
-0.125622
0.00758802
-0.123383
0.00830864
-0.121107
0.00900165
-0.118801
0.0096669
-0.116478
0.0103052
-0.11415
0.010918
-0.111832
0.0115073
-0.109535
0.0120752
-0.107272
0.012624
-0.105053
0.0131561
-0.102884
0.0136739
-0.100772
0.0141799
-0.0987221
0.0146763
-0.0967357
0.0151655
-0.0948132
0.0156498
-0.0929529
0.0161314
-0.0911501
0.0166121
-0.0893979
0.0170935
-0.0876857
-0.0859996
0.0175768
0.000117384
-0.161051
0.000431876
-0.153318
0.00090455
-0.147722
0.00149821
-0.143545
0.00217929
-0.140287
0.00291883
-0.137588
0.00369273
-0.135201
0.00448167
-0.132967
0.0052707
-0.130786
0.00604874
-0.1286
0.00680796
-0.126381
0.00754327
-0.124118
0.00825176
-0.121815
0.00893222
-0.119482
0.0095847
-0.11713
0.0102102
-0.114775
0.0108103
-0.112432
0.0113871
-0.110112
0.0119428
-0.107828
0.0124798
-0.10559
0.0130004
-0.103405
0.0135072
-0.101279
0.0140025
-0.0992174
0.0144886
-0.0972218
0.014968
-0.0952926
0.0154429
-0.0934278
0.0159156
-0.0916228
0.0163881
-0.0898704
0.0168621
-0.0881597
-0.0864763
0.0173389
0.000118864
-0.16117
0.000435679
-0.153635
0.000910272
-0.148197
0.00150464
-0.14414
0.00218474
-0.140967
0.00292136
-0.138324
0.00369038
-0.13597
0.00447255
-0.13375
0.00525312
-0.131567
0.00602126
-0.129368
0.00676942
-0.127129
0.00749279
-0.124842
0.00818871
-0.122511
0.00885621
-0.120149
0.00949555
-0.11777
0.0101079
-0.115388
0.010695
-0.113019
0.0112591
-0.110676
0.0118023
-0.108371
0.0123272
-0.106114
0.0128362
-0.103913
0.0133317
-0.101775
0.013816
-0.0997018
0.0142917
-0.0976975
0.014761
-0.0957619
0.0152263
-0.0938931
0.0156899
-0.0920865
0.016154
-0.0903345
0.0166204
-0.088626
-0.0869463
0.0170904
0.000120197
-0.16129
0.000439021
-0.153954
0.000915129
-0.148673
0.00150974
-0.144734
0.00218835
-0.141646
0.00292151
-0.139058
0.00368506
-0.136734
0.00445989
-0.134524
0.00523145
-0.132338
0.00598916
-0.130126
0.00672577
-0.127865
0.00743672
-0.125553
0.00811965
-0.123194
0.0087738
-0.120803
0.00939965
-0.118395
0.00999854
-0.115987
0.0105724
-0.113593
0.0111234
-0.111227
0.0116539
-0.108902
0.0121665
-0.106627
0.0126636
-0.104411
0.0131476
-0.102259
0.0136208
-0.100175
0.0140857
-0.0981624
0.0145447
-0.0962209
0.0150002
-0.0943485
0.0154545
-0.0925408
0.0159099
-0.0907899
0.0163683
-0.0890845
-0.0874094
0.0168314
0.000121387
-0.161411
0.000441926
-0.154274
0.000919163
-0.14915
0.00151358
-0.145329
0.00219018
-0.142323
0.00291934
-0.139787
0.00367688
-0.137491
0.00444381
-0.135291
0.00520582
-0.1331
0.00595259
-0.130873
0.00667715
-0.12859
0.00737525
-0.126251
0.00804476
-0.123864
0.00868518
-0.121444
0.00929719
-0.119007
0.0098823
-0.116572
0.0104425
-0.114153
0.0109802
-0.111765
0.0114979
-0.109419
0.0119979
-0.107127
0.0124828
-0.104896
0.0129551
-0.102731
0.013417
-0.100637
0.0138709
-0.0986163
0.0143193
-0.0966693
0.0147646
-0.0947938
0.0152092
-0.0929854
0.0156557
-0.0912364
0.016106
-0.0895348
-0.0878653
0.0165619
0.000122438
-0.161534
0.000444411
-0.154596
0.000922418
-0.149628
0.0015162
-0.145923
0.00219033
-0.142997
0.00291496
-0.140511
0.00366594
-0.138242
0.00442444
-0.13605
0.00517636
-0.133852
0.00591169
-0.131608
0.00662373
-0.129302
0.00730853
-0.126936
0.00796423
-0.124519
0.00859055
-0.12207
0.00918838
-0.119605
0.0097594
-0.117143
0.0103058
-0.114699
0.0108299
-0.112289
0.0113343
-0.109924
0.0118215
-0.107614
0.0122941
-0.105368
0.0127543
-0.103191
0.0132046
-0.101087
0.0136472
-0.099059
0.0140847
-0.0971068
0.0145196
-0.0952287
0.0149543
-0.0934202
0.0153914
-0.0916735
0.0158333
-0.0899767
-0.0883139
0.0162818
0.000123352
-0.161657
0.000446496
-0.15492
0.000924937
-0.150107
0.00151769
-0.146515
0.00218888
-0.143668
0.00290848
-0.141231
0.00365237
-0.138986
0.0044019
-0.136799
0.00514323
-0.134594
0.00586663
-0.132332
0.00656571
-0.130001
0.00723679
-0.127607
0.00787828
-0.125161
0.00849014
-0.122682
0.00907346
-0.120189
0.00963006
-0.117699
0.0101622
-0.115231
0.0106725
-0.112799
0.0111635
-0.110415
0.0116376
-0.108088
0.0120975
-0.105828
0.0125455
-0.103639
0.0129838
-0.101526
0.0134149
-0.0994901
0.0138412
-0.097533
0.0142652
-0.0956526
0.0146895
-0.0938445
0.015117
-0.0921009
0.01555
-0.0904098
-0.0887547
0.0159909
0.00012413
-0.161781
0.000448205
-0.155244
0.000926773
-0.150585
0.00151812
-0.147107
0.00218592
-0.144336
0.0029
-0.141945
0.00363629
-0.139723
0.00437635
-0.137539
0.0051066
-0.135324
0.00581759
-0.133043
0.00650327
-0.130687
0.00716023
-0.128264
0.00778713
-0.125788
0.00838419
-0.123279
0.00895267
-0.120757
0.00949456
-0.118241
0.0100123
-0.115749
0.0105084
-0.113295
0.0109856
-0.110892
0.0114464
-0.108549
0.0118934
-0.106275
0.0123287
-0.104074
0.0127549
-0.101952
0.013174
-0.0999093
0.0135887
-0.0979477
0.0140014
-0.0960653
0.0144149
-0.0942581
0.0148322
-0.0925182
0.015256
-0.0908336
-0.0891875
0.0156888
0.000124772
-0.161906
0.000449564
-0.155568
0.000927991
-0.151064
0.00151758
-0.147696
0.00218157
-0.145
0.00288965
-0.142653
0.00361786
-0.140451
0.00434794
-0.13827
0.00506663
-0.136043
0.00576479
-0.133741
0.00643664
-0.131359
0.00707909
-0.128906
0.00769105
-0.1264
0.00827297
-0.123861
0.0088263
-0.12131
0.00935317
-0.118768
0.00985612
-0.116252
0.0103378
-0.113777
0.010801
-0.111355
0.0112481
-0.108997
0.0116818
-0.106708
0.0121043
-0.104497
0.0125178
-0.102365
0.0129247
-0.100316
0.0133272
-0.0983503
0.0137282
-0.0964663
0.0141304
-0.0946602
0.0145369
-0.0929247
0.0149509
-0.0912476
-0.0896116
0.015375
0.000125278
-0.162031
0.000450609
-0.155894
0.000928665
-0.151542
0.00151618
-0.148284
0.00217595
-0.14566
0.00287758
-0.143355
0.00359722
-0.14117
0.00431686
-0.138989
0.00502354
-0.136749
0.00570843
-0.134426
0.00636607
-0.132016
0.00699363
-0.129534
0.00759032
-0.126997
0.00815677
-0.124427
0.00869464
-0.121848
0.00920621
-0.11928
0.00969411
-0.11674
0.0101611
-0.114244
0.0106099
-0.111804
0.0110431
-0.10943
0.0114631
-0.107129
0.0118723
-0.104906
0.0122729
-0.102766
0.012667
-0.10071
0.013057
-0.0987402
0.0134455
-0.0968548
0.0138357
-0.0950504
0.0142308
-0.0933198
0.0146342
-0.091651
-0.0900266
0.0150492
0.000125656
-0.162157
0.000451394
-0.156219
0.000928897
-0.152019
0.00151404
-0.148869
0.00216921
-0.146315
0.00286394
-0.14405
0.00357455
-0.141881
0.0042833
-0.139698
0.00497754
-0.137443
0.00564875
-0.135097
0.0062918
-0.132659
0.00690414
-0.130146
0.00748523
-0.127578
0.00803592
-0.124978
0.00855805
-0.12237
0.00905403
-0.119776
0.00952659
-0.117213
0.00997854
-0.114696
0.0104127
-0.112238
0.0108316
-0.109849
0.0112377
-0.107535
0.0116332
-0.105301
0.0120203
-0.103153
0.0124011
-0.101091
0.0127779
-0.0991171
0.0131534
-0.0972303
0.0135308
-0.0954277
0.0139135
-0.0937026
0.0143056
-0.0920431
-0.0904316
0.0147105
0.000125912
-0.162283
0.000451989
-0.156546
0.000928812
-0.152496
0.00151132
-0.149451
0.00216151
-0.146965
0.0028489
-0.144737
0.00355003
-0.142582
0.00424746
-0.140395
0.00492885
-0.138125
0.00558601
-0.135754
0.00621412
-0.133287
0.00681092
-0.130743
0.00737612
-0.128143
0.00791078
-0.125513
0.0084169
-0.122876
0.00889702
-0.120256
0.00935397
-0.117669
0.00979062
-0.115133
0.0102098
-0.112657
0.010614
-0.110253
0.0110057
-0.107926
0.0113872
-0.105683
0.0117604
-0.103526
0.0121273
-0.101458
0.0124903
-0.0994801
0.0128519
-0.097592
0.0132155
-0.0957913
0.0135849
-0.094072
0.0139644
-0.0924226
-0.0908255
0.0143583
0.000126071
-0.162409
0.000452503
-0.156872
0.00092857
-0.152972
0.0015082
-0.150031
0.00215302
-0.14761
0.00283265
-0.145417
0.00352387
-0.143273
0.00420956
-0.141081
0.00487771
-0.138793
0.00552047
-0.136397
0.00613332
-0.1339
0.0067143
-0.131324
0.00726334
-0.128692
0.00778173
-0.126031
0.0082716
-0.123366
0.00873564
-0.12072
0.00917672
-0.118111
0.00959779
-0.115554
0.0100016
-0.113061
0.0103909
-0.110642
0.0107679
-0.108303
0.0111348
-0.10605
0.0114935
-0.103885
0.011846
-0.10181
0.0121944
-0.0998284
0.0125412
-0.0979389
0.0128899
-0.09614
0.0132446
-0.0944267
0.0136102
-0.0927882
-0.091207
0.0139917
0.00012618
-0.162535
0.000453091
-0.157199
0.000928383
-0.153448
0.00150488
-0.150608
0.00214395
-0.148249
0.00281539
-0.146088
0.00349628
-0.143954
0.00416983
-0.141755
0.00482438
-0.139448
0.00545241
-0.137025
0.00604972
-0.134498
0.00661462
-0.131889
0.00714728
-0.129225
0.00764919
-0.126533
0.00812262
-0.12384
0.00857037
-0.121168
0.00899538
-0.118536
0.00940063
-0.115959
0.00978891
-0.113449
0.0101628
-0.111016
0.0105247
-0.108665
0.0108765
-0.106402
0.0112202
-0.104228
0.0115576
-0.102148
0.0118906
-0.100161
0.0122217
-0.09827
0.0125542
-0.0964725
0.0128927
-0.0947651
0.0132426
-0.0931381
-0.0915743
0.0136099
0.000126342
-0.162661
0.000453992
-0.157527
0.000928524
-0.153922
0.00150161
-0.151181
0.00213453
-0.148882
0.00279734
-0.146751
0.00346746
-0.144624
0.00412849
-0.142416
0.0047691
-0.140088
0.00538211
-0.137638
0.00596362
-0.135079
0.00651223
-0.132437
0.00702834
-0.129741
0.0075136
-0.127018
0.00797046
-0.124297
0.00840177
-0.121599
0.00881055
-0.118944
0.00919978
-0.116348
0.00957225
-0.113822
0.00993053
-0.111374
0.0102769
-0.109012
0.0106132
-0.106738
0.0109414
-0.104557
0.0112629
-0.102469
0.0115796
-0.100478
0.0118938
-0.0985842
0.0122088
-0.0967875
0.0125292
-0.0950855
0.0128612
-0.0934702
-0.0919251
0.0132121
0.000126751
-0.162788
0.00045557
-0.157855
0.000929352
-0.154396
0.0014987
-0.15175
0.00212499
-0.149508
0.0027787
-0.147405
0.00343765
-0.145283
0.00408579
-0.143064
0.00471214
-0.140715
0.00530986
-0.138235
0.00587536
-0.135645
0.0064075
-0.132969
0.00690693
-0.13024
0.00737545
-0.127487
0.00781565
-0.124737
0.00823045
-0.122014
0.0086229
-0.119337
0.00899599
-0.116721
0.0093525
-0.114178
0.00969491
-0.111717
0.0100254
-0.109342
0.0103459
-0.107058
0.0106579
-0.104869
0.0109629
-0.102774
0.0112624
-0.100778
0.0115586
-0.0988803
0.0118543
-0.0970833
0.0121545
-0.0953857
0.0124661
-0.0937817
-0.0922567
0.0127976
0.000127796
-0.162916
0.000458387
-0.158186
0.000931329
-0.154869
0.00149646
-0.152315
0.00211559
-0.150127
0.0027597
-0.148049
0.00340704
-0.145931
0.00404192
-0.143699
0.00465371
-0.141326
0.00523591
-0.138818
0.00578522
-0.136194
0.00630079
-0.133485
0.00678345
-0.130723
0.00723521
-0.127939
0.00765874
-0.12516
0.00805704
-0.122412
0.00843318
-0.119713
0.00879012
-0.117078
0.00913059
-0.114519
0.00945701
-0.112043
0.00977146
-0.109657
0.0100757
-0.107363
0.0103711
-0.105164
0.0106589
-0.103062
0.0109404
-0.101059
0.0112172
-0.0991571
0.011492
-0.097358
0.0117694
-0.0956631
0.0120568
-0.0940692
-0.0925649
0.012365
0.000130151
-0.163046
0.00046321
-0.158519
0.000934962
-0.155341
0.00149522
-0.152875
0.00210655
-0.150738
0.00274053
-0.148683
0.00337582
-0.146566
0.00399708
-0.14432
0.00459404
-0.141923
0.0051605
-0.139384
0.0056935
-0.136727
0.00619242
-0.133984
0.00665833
-0.131189
0.00709337
-0.128374
0.00750031
-0.125567
0.00788221
-0.122794
0.00824216
-0.120073
0.00858307
-0.117419
0.0089076
-0.114843
0.00921808
-0.112354
0.00951646
-0.109955
0.0098043
-0.107651
0.0100828
-0.105442
0.010353
-0.103332
0.0106158
-0.101322
0.0108721
-0.0994134
0.0111241
-0.09761
0.0113758
-0.0959147
0.0116351
-0.0943285
-0.0928452
0.0119154
0.000134826
-0.163181
0.00047093
-0.158855
0.000940768
-0.15581
0.00149527
-0.15343
0.00209807
-0.151341
0.00272133
-0.149306
0.00334412
-0.147189
0.00395142
-0.144927
0.00453328
-0.142505
0.00508385
-0.139935
0.00560044
-0.137244
0.00608271
-0.134466
0.00653192
-0.131638
0.00695036
-0.128792
0.0073409
-0.125958
0.00770664
-0.12316
0.00805066
-0.120417
0.00837582
-0.117744
0.00868471
-0.115152
0.00897952
-0.112648
0.00926204
-0.110237
0.00953364
-0.107922
0.00979533
-0.105704
0.0100478
-0.103585
0.0102913
-0.101566
0.0105266
-0.0996487
0.0107547
-0.097838
0.0109785
-0.0961385
0.0112058
-0.0945558
-0.0930917
0.0114522
0.000143376
-0.163324
0.000482975
-0.159195
0.000949629
-0.156277
0.00149709
-0.153977
0.00209039
-0.151935
0.00270224
-0.149918
0.00331201
-0.147799
0.00390499
-0.14552
0.00447152
-0.143072
0.00500607
-0.140469
0.00550622
-0.137744
0.00597189
-0.134932
0.00640453
-0.13207
0.00680659
-0.129194
0.00718101
-0.126332
0.00753095
-0.12351
0.00785945
-0.120745
0.00816935
-0.118054
0.00846311
-0.115446
0.00874279
-0.112928
0.00900998
-0.110505
0.00926583
-0.108178
0.00951102
-0.105949
0.00974582
-0.10382
0.00997019
-0.10179
0.010184
-0.0998625
0.0103875
-0.0980415
0.0105813
-0.0963324
0.0107708
-0.0947453
-0.0932923
0.0109715
0.000160229
-0.163484
0.000503092
-0.159538
0.000963256
-0.156737
0.00150118
-0.154515
0.00208354
-0.152517
0.00268315
-0.150517
0.00327941
-0.148395
0.00385774
-0.146099
0.00440876
-0.143623
0.0049272
-0.140988
0.00541093
-0.138227
0.00586011
-0.135381
0.00627638
-0.132487
0.00666234
-0.12958
0.00702103
-0.126691
0.00735562
-0.123844
0.0076692
-0.121059
0.00796452
-0.118349
0.00824396
-0.115725
0.00850944
-0.113194
0.00876233
-0.110758
0.00900345
-0.108419
0.00923307
-0.106179
0.00945085
-0.104037
0.00965598
-0.101995
0.00984731
-0.100054
0.0100232
-0.0982174
0.0101807
-0.0964899
0.010319
-0.0948836
-0.093431
0.0104577
0.00019972
-0.163684
0.000536031
-0.159874
0.000981772
-0.157183
0.00150675
-0.15504
0.00207681
-0.153087
0.00266359
-0.151104
0.003246
-0.148977
0.00380951
-0.146662
0.00434492
-0.144158
0.00484723
-0.14149
0.00531462
-0.138695
0.00574746
-0.135814
0.00614761
-0.132887
0.00651781
-0.12995
0.00686121
-0.127034
0.00718105
-0.124164
0.0074804
-0.121358
0.00776203
-0.118631
0.00802828
-0.115992
0.00828094
-0.113446
0.00852125
-0.110998
0.00874979
-0.108648
0.00896641
-0.106396
0.00917011
-0.104241
0.00935893
-0.102184
0.00952973
-0.100225
0.00967709
-0.0983647
0.00978998
-0.0966027
0.00985312
-0.0949467
-0.0934902
0.00991233
0.166977
0.000140643
-0.167118
0.166858
0.000118699
0.166748
0.000110211
0.166641
0.000106671
0.166536
0.000105445
0.16643
0.000105602
0.166324
0.000106531
0.166216
0.000107824
0.166107
0.000109242
0.165996
0.000110667
0.165884
0.000112037
0.165771
0.000113321
0.165656
0.000114511
0.165541
0.000115602
0.165424
0.000116594
0.165306
0.000117488
0.165188
0.000118287
0.165069
0.000118993
0.16495
0.000119599
0.16483
0.000120106
0.164709
0.000120503
0.164588
0.000120771
0.164467
0.000120875
0.164347
0.000120759
0.164226
0.00012031
0.164107
0.000119314
0.16399
0.000117309
0.163876
0.000113284
0.163772
0.000104135
8.81467e-05
0.16765
0.000352652
-0.167862
0.167429
0.000340193
0.167204
0.000335199
0.166975
0.000334858
0.166744
0.000336912
0.166509
0.000340527
0.16627
0.000345187
0.166028
0.000350448
0.165781
0.000355983
0.16553
0.000361574
0.165275
0.000367094
0.165016
0.000372458
0.164753
0.000377609
0.164486
0.000382518
0.164215
0.000387164
0.163941
0.000391533
0.163664
0.000395619
0.163384
0.000399414
0.1631
0.000402908
0.162814
0.00040609
0.162526
0.000408933
0.162235
0.000411403
0.161943
0.000413429
0.161648
0.000414898
0.161353
0.000415622
0.161057
0.000415263
0.160761
0.000413223
0.160466
0.000408529
0.160171
0.000399128
0.000385329
0.167621
0.000591351
-0.16786
0.167365
0.000596059
0.167097
0.000603296
0.166819
0.000613026
0.166532
0.000624201
0.166236
0.000636295
0.165932
0.000649029
0.165621
0.000662123
0.165301
0.000675327
0.164974
0.000688447
0.16464
0.000701343
0.164299
0.000713912
0.16395
0.000726083
0.163595
0.000737803
0.163233
0.000749036
0.162865
0.000759756
0.16249
0.000769944
0.16211
0.000779587
0.161725
0.000788665
0.161333
0.000797159
0.160937
0.00080504
0.160537
0.000812255
0.160131
0.000818728
0.159722
0.000824336
0.159309
0.000828887
0.158892
0.000832084
0.158471
0.00083348
0.158047
0.000832511
0.157618
0.000828175
0.000820749
0.166755
0.000825363
-0.166989
0.166503
0.000848334
0.166234
0.000871592
0.165952
0.00089565
0.165656
0.000920197
0.165347
0.000944957
0.165026
0.000969772
0.164694
0.000994487
0.16435
0.00101894
0.163996
0.00104298
0.163631
0.00106651
0.163255
0.00108943
0.16287
0.00111166
0.162474
0.00113317
0.162069
0.0011539
0.161655
0.00117383
0.161232
0.00119294
0.160801
0.0012112
0.160361
0.00122861
0.159913
0.00124513
0.159457
0.00126074
0.158994
0.00127539
0.158524
0.00128902
0.158047
0.00130151
0.157563
0.00131274
0.157072
0.00132247
0.156575
0.00133044
0.156072
0.00133633
0.15556
0.00133965
0.00134057
0.165087
0.00103136
-0.165293
0.164862
0.00107328
0.164619
0.0011145
0.16436
0.00115548
0.164084
0.0011962
0.163792
0.00123654
0.163485
0.0012764
0.163164
0.00131569
0.162829
0.00135429
0.16248
0.00139209
0.162117
0.00142903
0.161742
0.00146501
0.161353
0.00149999
0.160953
0.0015339
0.16054
0.00156673
0.160115
0.00159844
0.159679
0.001629
0.159232
0.00165841
0.158774
0.00168665
0.158305
0.0017137
0.157826
0.00173954
0.157338
0.00176415
0.156839
0.00178746
0.156331
0.00180942
0.155814
0.00182993
0.155288
0.00184886
0.154752
0.00186605
0.154207
0.00188135
0.153652
0.00189455
0.00190586
0.162723
0.00119623
-0.162888
0.162538
0.00125777
0.162335
0.00131812
0.162113
0.00137759
0.161873
0.00143625
0.161615
0.00149405
0.16134
0.00155092
0.161049
0.0016068
0.160742
0.0016616
0.160419
0.00171525
0.16008
0.00176768
0.159726
0.00181881
0.159358
0.0018686
0.158975
0.00191701
0.158577
0.00196401
0.158166
0.00200957
0.157742
0.00205367
0.157304
0.00209631
0.156853
0.00213747
0.156389
0.00217715
0.155914
0.00221534
0.155426
0.00225202
0.154926
0.00228719
0.154415
0.0023208
0.153892
0.00235281
0.153358
0.00238316
0.152812
0.00241179
0.152254
0.00243864
0.151685
0.00246366
0.0024871
0.159804
0.00131508
-0.159922
0.159665
0.00139667
0.159506
0.00147678
0.159328
0.00155559
0.159131
0.00163317
0.158916
0.00170952
0.158682
0.00178459
0.158431
0.00185831
0.158161
0.00193062
0.157875
0.00200146
0.157572
0.00207075
0.157253
0.00213845
0.156917
0.00220451
0.156565
0.00226887
0.156197
0.00233153
0.155814
0.00239245
0.155416
0.00245162
0.155004
0.00250903
0.154577
0.00256469
0.154135
0.0026186
0.15368
0.00267077
0.15321
0.0027212
0.152728
0.0027699
0.152232
0.00281688
0.151722
0.00286213
0.1512
0.00290565
0.150664
0.00294745
0.150115
0.00298754
0.149553
0.00302595
0.00306294
0.156481
0.00138866
-0.156554
0.156387
0.00149038
0.156274
0.00159042
0.15614
0.00168887
0.155988
0.0017858
0.155816
0.0018812
0.155625
0.00197502
0.155417
0.00206722
0.155189
0.00215772
0.154944
0.00224648
0.154682
0.00233343
0.154402
0.00241851
0.154105
0.00250168
0.153791
0.0025829
0.15346
0.00266214
0.153113
0.00273938
0.15275
0.00281461
0.152371
0.00288782
0.151977
0.00295904
0.151567
0.00302826
0.151142
0.00309552
0.150703
0.00316085
0.150248
0.00322427
0.14978
0.00328582
0.149296
0.00334555
0.148798
0.00340349
0.148286
0.00345971
0.147759
0.00351428
0.147218
0.00356724
0.00361888
0.152895
0.00142114
-0.152927
0.152843
0.00154275
0.152771
0.00166254
0.152679
0.00178054
0.152568
0.0018968
0.152438
0.0020113
0.152289
0.00212399
0.152121
0.00223482
0.151935
0.00234373
0.151731
0.00245066
0.151509
0.00255555
0.151269
0.00265835
0.151012
0.002759
0.150737
0.00285748
0.150446
0.00295375
0.150137
0.00304778
0.149812
0.00313958
0.149471
0.00322914
0.149113
0.00331648
0.14874
0.00340163
0.148351
0.00348463
0.147946
0.00356552
0.147526
0.00364436
0.147091
0.00372123
0.14664
0.00379619
0.146174
0.00386934
0.145693
0.00394078
0.145197
0.0040106
0.144685
0.00407891
0.00414596
0.149167
0.00141848
-0.149164
0.14915
0.00155951
0.149114
0.00169862
0.149059
0.00183581
0.148984
0.00197108
0.148891
0.0021044
0.14878
0.00223573
0.148649
0.00236501
0.148501
0.00249218
0.148334
0.00261718
0.14815
0.00273994
0.147948
0.00286042
0.147728
0.00297855
0.147492
0.0030943
0.147238
0.00320765
0.146967
0.00331856
0.146679
0.00342704
0.146375
0.00353309
0.146055
0.00363674
0.145719
0.00373801
0.145367
0.00383697
0.144998
0.00393369
0.144614
0.00402823
0.144215
0.00412072
0.1438
0.00421126
0.143369
0.00429998
0.142923
0.00438701
0.142461
0.0044725
0.141983
0.00455656
0.00463945
0.145394
0.00138731
-0.145363
0.145406
0.00154715
0.1454
0.00170498
0.145375
0.00186079
0.145331
0.00201455
0.14527
0.00216622
0.14519
0.00231574
0.145092
0.00246306
0.144976
0.0026081
0.144842
0.0027508
0.144691
0.0028911
0.144522
0.00302894
0.144337
0.00316427
0.144134
0.00329704
0.143914
0.00342723
0.143678
0.00355481
0.143425
0.00367978
0.143156
0.00380215
0.142871
0.00392195
0.14257
0.00403923
0.142253
0.00415404
0.14192
0.0042665
0.141572
0.00437669
0.141207
0.00448476
0.140828
0.00459085
0.140433
0.00469513
0.140022
0.00479778
0.139595
0.00489899
0.139153
0.00499889
0.00509775
0.141651
0.00133413
-0.141598
0.141686
0.0015121
0.141703
0.00168799
0.141702
0.00186176
0.141683
0.00203338
0.141647
0.00220279
0.141593
0.00236992
0.141521
0.00253471
0.141432
0.00269708
0.141326
0.00285696
0.141203
0.00301429
0.141063
0.00316901
0.140906
0.00332106
0.140733
0.0034704
0.140543
0.00361699
0.140337
0.00376081
0.140115
0.00390186
0.139877
0.00404016
0.139623
0.00417573
0.139354
0.00430863
0.139069
0.00443895
0.138768
0.00456679
0.138453
0.0046923
0.138122
0.00481562
0.137776
0.00493696
0.137414
0.00505652
0.137038
0.00517453
0.136645
0.00529122
0.136237
0.00540677
0.00552146
0.137993
0.00126493
-0.137924
0.138045
0.00146031
0.138079
0.00165356
0.138096
0.00184461
0.138096
0.0020334
0.138079
0.00221989
0.138045
0.00240398
0.137994
0.0025856
0.137927
0.00276467
0.137842
0.00294113
0.137742
0.00311489
0.137625
0.00328589
0.137492
0.00345408
0.137343
0.00361941
0.137178
0.00378184
0.136998
0.00394135
0.136802
0.00409793
0.13659
0.0042516
0.136363
0.0044024
0.136122
0.00455039
0.135865
0.00469567
0.135593
0.00483837
0.135307
0.00497865
0.135006
0.0051167
0.13469
0.00525275
0.13436
0.00538708
0.134014
0.00551995
0.133654
0.00565165
0.133278
0.00578244
0.0059126
0.134456
0.00118488
-0.134376
0.134519
0.00139699
0.134566
0.00160691
0.134596
0.00181456
0.13461
0.00201986
0.134607
0.00222275
0.134588
0.00242314
0.134552
0.00262094
0.134501
0.00281606
0.134434
0.00300844
0.13435
0.00319799
0.134252
0.00338465
0.134137
0.00356834
0.134008
0.00374903
0.133863
0.00392666
0.133703
0.00410122
0.133528
0.0042727
0.133339
0.00444111
0.133135
0.0046065
0.132916
0.00476894
0.132683
0.00492852
0.132436
0.00508541
0.132175
0.00523978
0.1319
0.00539187
0.131611
0.00554196
0.131308
0.00569037
0.13099
0.00583743
0.130658
0.00598351
0.130312
0.00612894
0.00627404
0.131064
0.00109829
-0.130977
0.131134
0.00132651
0.131189
0.00155247
0.131227
0.00177607
0.13125
0.00199725
0.131256
0.0022159
0.131248
0.00243194
0.131223
0.00264528
0.131184
0.00285582
0.131129
0.00306348
0.131058
0.00326818
0.130973
0.00346984
0.130873
0.0036684
0.130758
0.0038638
0.130629
0.00405599
0.130485
0.00424494
0.130327
0.00443065
0.130155
0.00461313
0.129969
0.00479242
0.12977
0.0049686
0.129556
0.00514177
0.12933
0.00531211
0.12909
0.00547982
0.128836
0.00564517
0.12857
0.00580849
0.12829
0.00597017
0.127997
0.00613063
0.12769
0.00629031
0.127369
0.00644965
0.00660904
0.127828
0.00100864
-0.127738
0.127902
0.0012524
0.12796
0.00149382
0.128004
0.0017328
0.128032
0.00196926
0.128044
0.00220309
0.128042
0.0024342
0.128025
0.00266248
0.127993
0.00288783
0.127946
0.00311017
0.127885
0.00332941
0.127809
0.00354547
0.12772
0.00375827
0.127616
0.00396774
0.127498
0.00417385
0.127366
0.00437655
0.127221
0.00457584
0.127062
0.00477171
0.126891
0.0049642
0.126706
0.0051534
0.126508
0.00533942
0.126298
0.00552244
0.126075
0.00570268
0.12584
0.00588045
0.125592
0.00605614
0.125332
0.0062302
0.125059
0.00640315
0.124774
0.00657555
0.124476
0.00674796
0.00692089
0.124752
0.0009186
-0.124662
0.124827
0.00117741
0.124887
0.0014338
0.124933
0.00168765
0.124963
0.00193887
0.124979
0.00218736
0.12498
0.002433
0.124967
0.00267568
0.124939
0.0029153
0.124898
0.00315177
0.124842
0.00338498
0.124773
0.00361486
0.12469
0.00384132
0.124593
0.00406429
0.124483
0.00428372
0.12436
0.00449955
0.124224
0.00471178
0.124076
0.00492039
0.123914
0.00512542
0.123741
0.00532694
0.123555
0.00552507
0.123358
0.00571999
0.123148
0.00591195
0.122927
0.00610128
0.122695
0.00628842
0.122451
0.0064739
0.122196
0.00665837
0.121929
0.00684253
0.12165
0.00702709
0.00721273
0.121836
0.000830218
-0.121748
0.12191
0.00110365
0.121969
0.00137457
0.122014
0.00164285
0.122045
0.00190839
0.122061
0.00217107
0.122063
0.00243077
0.122051
0.00268737
0.122026
0.00294078
0.121987
0.00319088