/*--------------------------------*- C++ -*----------------------------------*\
  =========                 |
  \\      /  F ield         | OpenFOAM: The Open Source CFD Toolbox
   \\    /   O peration     | Website:  https://openfoam.org
    \\  /    A nd           | Version:  6.0
     \\/     M anipulation  |
\*---------------------------------------------------------------------------*/
FoamFile
{
    version     2.0;
    format      ascii;
    class       volScalarField;
    location    "2";
    object      p;
}
// * * * * * * * * * * * * * * * * * * * * * * * * * * * * * * * * * * * * * //

dimensions      [0 2 -2 0 0 0 0];

internalField   nonuniform List<scalar> 
2400
(
-0.434602
-0.420374
-0.408636
-0.396851
-0.384022
-0.370349
-0.356046
-0.34124
-0.326213
-0.312241
-0.453717
-0.437777
-0.424671
-0.411557
-0.397363
-0.38233
-0.366696
-0.350558
-0.33418
-0.319381
-0.478494
-0.460009
-0.444976
-0.430143
-0.414278
-0.397646
-0.380489
-0.362844
-0.344944
-0.329381
-0.508758
-0.486988
-0.469491
-0.452539
-0.434681
-0.416185
-0.397283
-0.37792
-0.358281
-0.341938
-0.544291
-0.518546
-0.498063
-0.478592
-0.458407
-0.437765
-0.416863
-0.395523
-0.373847
-0.356582
-0.584801
-0.554446
-0.530482
-0.508102
-0.48526
-0.462175
-0.438989
-0.415356
-0.391237
-0.37271
-0.629937
-0.594386
-0.566486
-0.540836
-0.515017
-0.489194
-0.463434
-0.437178
-0.410104
-0.389667
-0.679276
-0.638001
-0.605763
-0.576512
-0.547402
-0.518514
-0.489823
-0.460478
-0.429604
-0.406073
-0.732277
-0.684829
-0.647943
-0.614845
-0.582194
-0.549932
-0.517798
-0.484334
-0.447605
-0.418362
-0.788003
-0.734195
-0.692542
-0.655559
-0.619475
-0.584182
-0.549177
-0.51236
-0.470683
-0.434181
-1.18257
-1.18254
-1.16869
-1.14297
-1.10723
-1.06342
-1.01349
-0.959268
-0.902465
-0.844741
-1.08761
-1.08829
-1.07625
-1.05323
-1.02103
-0.98149
-0.936441
-0.887631
-0.836676
-0.785074
-1.00176
-1.00559
-0.997307
-0.978462
-0.950724
-0.915843
-0.875567
-0.831591
-0.785509
-0.73874
-0.918012
-0.926115
-0.922643
-0.908901
-0.886374
-0.856652
-0.821364
-0.782128
-0.740502
-0.697905
-0.834933
-0.847258
-0.848705
-0.840313
-0.823322
-0.799098
-0.769067
-0.734688
-0.697423
-0.658654
-0.755766
-0.771653
-0.777519
-0.774158
-0.762556
-0.74382
-0.719108
-0.689608
-0.65656
-0.621225
-0.68256
-0.701098
-0.710559
-0.711549
-0.704846
-0.691307
-0.671795
-0.647122
-0.618111
-0.585759
-0.616054
-0.6364
-0.64861
-0.653179
-0.650751
-0.642011
-0.627565
-0.607764
-0.582656
-0.552363
-0.556129
-0.57767
-0.59199
-0.599547
-0.60095
-0.596844
-0.587738
-0.573634
-0.553356
-0.523999
-0.502797
-0.524156
-0.539267
-0.548601
-0.552808
-0.552649
-0.548864
-0.541792
-0.53021
-0.50873
-0.341694
-0.480405
-0.611977
-0.734135
-0.844496
-0.94105
-1.02227
-1.08716
-1.13524
-1.16669
-0.300108
-0.42948
-0.552462
-0.666722
-0.770013
-0.860452
-0.936609
-0.997548
-1.04284
-1.0726
-0.241044
-0.362299
-0.478349
-0.586864
-0.68567
-0.772925
-0.84719
-0.907473
-0.953254
-0.984496
-0.179581
-0.292467
-0.401426
-0.504195
-0.598679
-0.683092
-0.755999
-0.816351
-0.863518
-0.897296
-0.124159
-0.228322
-0.329733
-0.426174
-0.515649
-0.596481
-0.667295
-0.727045
-0.775043
-0.810963
-0.0775532
-0.173303
-0.267285
-0.357235
-0.441286
-0.517927
-0.585888
-0.644179
-0.692115
-0.729315
-0.03951
-0.127571
-0.214716
-0.298414
-0.376994
-0.449162
-0.513776
-0.569931
-0.616988
-0.65456
-0.00821668
-0.0889401
-0.170029
-0.248059
-0.321529
-0.389366
-0.450556
-0.504285
-0.549978
-0.587273
0.0175346
-0.0558316
-0.131583
-0.204617
-0.273497
-0.337323
-0.395196
-0.446416
-0.490487
-0.527095
0.0304725
-0.0381887
-0.109089
-0.176505
-0.239881
-0.298635
-0.351972
-0.399349
-0.440408
-0.474916
0.54066
0.56316
0.587509
0.612819
0.638712
0.664629
0.689657
0.713159
0.740268
0.783965
0.518695
0.538978
0.5614
0.584471
0.607629
0.630235
0.65126
0.670002
0.691804
0.730767
0.489084
0.506139
0.525786
0.545667
0.564975
0.583016
0.59869
0.61134
0.626611
0.659621
0.45209
0.465004
0.481101
0.496901
0.511314
0.523618
0.532696
0.538034
0.545655
0.571562
0.408063
0.416067
0.427947
0.438862
0.447438
0.452961
0.454345
0.451323
0.450355
0.468167
0.35743
0.359945
0.367089
0.372438
0.374373
0.372235
0.365022
0.352806
0.342525
0.351432
0.300705
0.297384
0.299458
0.298708
0.293361
0.282881
0.266396
0.244405
0.224333
0.223716
0.238589
0.229347
0.22622
0.218976
0.205874
0.186579
0.160398
0.128327
0.0982454
0.0876953
0.171794
0.157249
0.149004
0.134878
0.113643
0.0852492
0.0491909
0.00700988
-0.0330292
-0.0536986
0.0988528
0.0817715
0.0687345
0.0475891
0.0182872
-0.0191326
-0.0649437
-0.11697
-0.166689
-0.197587
0.347047
0.346822
0.353315
0.356956
0.358368
0.359562
0.362639
0.370867
0.388159
0.411453
0.399494
0.400938
0.40943
0.416914
0.422944
0.429013
0.436844
0.44929
0.470838
0.500685
0.442895
0.448472
0.460079
0.47171
0.482535
0.493571
0.506194
0.522837
0.548368
0.58409
0.479798
0.489878
0.504873
0.520451
0.535789
0.551555
0.568751
0.58935
0.618422
0.659183
0.510259
0.524518
0.542745
0.561916
0.581327
0.60137
0.622686
0.646753
0.678735
0.723582
0.533922
0.551798
0.572855
0.595089
0.617952
0.641603
0.666344
0.693167
0.72723
0.775089
0.550477
0.571224
0.594522
0.619131
0.644648
0.67104
0.698292
0.726938
0.76209
0.811777
0.559626
0.582354
0.607177
0.633352
0.660586
0.688683
0.717343
0.746695
0.781793
0.83205
0.561125
0.584842
0.610381
0.637227
0.665137
0.693773
0.722591
0.751381
0.785178
0.834699
0.554819
0.578467
0.603856
0.630423
0.657896
0.685818
0.71344
0.740296
0.771456
0.818875
0.299163
0.249604
0.194316
0.139321
0.0852853
0.0328488
-0.0171849
-0.0643238
-0.108265
-0.148802
0.300139
0.247666
0.190172
0.131806
0.0743685
0.018844
-0.0339415
-0.0833662
-0.128993
-0.170529
0.298281
0.239915
0.178588
0.116999
0.0567898
-0.00100336
-0.0554917
-0.105969
-0.151937
-0.193078
0.295297
0.231523
0.166206
0.101278
0.0382775
-0.02165
-0.07755
-0.128679
-0.17453
-0.214818
0.291304
0.222641
0.153352
0.0851217
0.0195
-0.0422771
-0.0992153
-0.150576
-0.195894
-0.234971
0.287348
0.213994
0.140836
0.0695268
0.00162356
-0.0616064
-0.11918
-0.170415
-0.214941
-0.252694
0.285617
0.207946
0.131225
0.0571471
-0.0127426
-0.0771951
-0.135287
-0.186435
-0.230391
-0.267245
0.289604
0.20811
0.128128
0.0513847
-0.0205813
-0.086563
-0.14571
-0.197532
-0.241885
-0.278975
0.302457
0.216613
0.132485
0.0518656
-0.0236892
-0.0929645
-0.155113
-0.209656
-0.256466
-0.295767
0.318944
0.22583
0.134385
0.0465341
-0.0360618
-0.112053
-0.18045
-0.240653
-0.292452
-0.335991
-0.18587
-0.219486
-0.249836
-0.277226
-0.302009
-0.324574
-0.345299
-0.364139
-0.381231
-0.387589
-0.207871
-0.240981
-0.270024
-0.295276
-0.317035
-0.335581
-0.351139
-0.36346
-0.371977
-0.370344
-0.229313
-0.26061
-0.287203
-0.309445
-0.327723
-0.342421
-0.353916
-0.362369
-0.367833
-0.367431
-0.249551
-0.278764
-0.302833
-0.322254
-0.337572
-0.349346
-0.358156
-0.364491
-0.368663
-0.369147
-0.267958
-0.294999
-0.316652
-0.333584
-0.346505
-0.356121
-0.363167
-0.368267
-0.371737
-0.372675
-0.284007
-0.309138
-0.328834
-0.343907
-0.355185
-0.363469
-0.369518
-0.373972
-0.377095
-0.378365
-0.297507
-0.321516
-0.340163
-0.354343
-0.364926
-0.372721
-0.378445
-0.382657
-0.385569
-0.386899
-0.309433
-0.33361
-0.352466
-0.366903
-0.377769
-0.385825
-0.391704
-0.39586
-0.398489
-0.399469
-0.328178
-0.354071
-0.374385
-0.389996
-0.401731
-0.4103
-0.416277
-0.420057
-0.42182
-0.421565
-0.371615
-0.400061
-0.422111
-0.438691
-0.450697
-0.458892
-0.463841
-0.465924
-0.465353
-0.462122
-0.455947
-0.419327
-0.398758
-0.386368
-0.377056
-0.369344
-0.361795
-0.35152
-0.334341
-0.318301
-0.448372
-0.415552
-0.396614
-0.384595
-0.374959
-0.366408
-0.357834
-0.347202
-0.332161
-0.321187
-0.439713
-0.410746
-0.393531
-0.382032
-0.372356
-0.363482
-0.354646
-0.344596
-0.332449
-0.325064
-0.430701
-0.405499
-0.389991
-0.379041
-0.369377
-0.360227
-0.351063
-0.341079
-0.33001
-0.323178
-0.422247
-0.400528
-0.386609
-0.376164
-0.36651
-0.357096
-0.347595
-0.337517
-0.32686
-0.319483
-0.41531
-0.396632
-0.384079
-0.374026
-0.364307
-0.354566
-0.344634
-0.334252
-0.323542
-0.315165
-0.410865
-0.394639
-0.383137
-0.373291
-0.363367
-0.353173
-0.342663
-0.33174
-0.3206
-0.311026
-0.409867
-0.395363
-0.384514
-0.374633
-0.364321
-0.353521
-0.342279
-0.330614
-0.31877
-0.307963
-0.413172
-0.399538
-0.388875
-0.378678
-0.367769
-0.356193
-0.344075
-0.331503
-0.318752
-0.306774
-0.421371
-0.407741
-0.396774
-0.385951
-0.374212
-0.361686
-0.34855
-0.33493
-0.321112
-0.308074
-0.272665
-0.146619
-0.065448
-0.00555232
0.0169464
0.0221245
0.0189401
0.0138866
0.00938856
0.00605157
0.00377546
0.00230752
0.00139674
0.000826545
0.000470279
0.000271492
0.000176184
0.000125437
8.28349e-05
3.23911e-05
-0.281331
-0.149408
-0.0673232
-0.00699474
0.0158001
0.0211882
0.0182218
0.0133399
0.00896949
0.00572824
0.0035264
0.00211657
0.0012519
0.000719462
0.000393578
0.00021798
0.000139771
0.000101972
6.9681e-05
2.86017e-05
-0.294734
-0.155741
-0.0720575
-0.0104427
0.0135146
0.0196432
0.0172027
0.0126494
0.00848263
0.0053724
0.00326184
0.00191747
0.00110166
0.000609288
0.000315954
0.000164368
0.000102885
7.75156e-05
5.54699e-05
2.43049e-05
-0.312104
-0.165302
-0.0793954
-0.0158127
0.010108
0.0174939
0.0158822
0.0118143
0.00792744
0.00498389
0.00298151
0.00171019
0.000946532
0.000496438
0.000237328
0.000110434
6.55575e-05
5.23488e-05
4.05501e-05
1.96576e-05
-0.332416
-0.177672
-0.0889539
-0.022932
0.0056353
0.0147585
0.0142641
0.0108345
0.00730354
0.00456254
0.00268495
0.00149464
0.00078704
0.000381272
0.000157555
5.59322e-05
2.78256e-05
2.67722e-05
2.52713e-05
1.48331e-05
-0.354398
-0.192331
-0.100234
-0.0315167
0.000212567
0.0114853
0.0123672
0.00971735
0.00661387
0.00410972
0.00237255
0.00127121
0.000623832
0.000264123
7.65115e-05
6.91269e-07
-1.02299e-05
1.07515e-06
9.94389e-06
9.97462e-06
-0.376828
-0.209167
-0.113092
-0.0414626
-0.00613357
0.00768249
0.0101948
0.00846534
0.00586051
0.00362725
0.00204582
0.00104083
0.000457442
0.000145331
-5.57199e-06
-5.51683e-05
-4.8564e-05
-2.47232e-05
-5.41859e-06
5.08387e-06
-0.399165
-0.229462
-0.128595
-0.053462
-0.0138577
0.00308369
0.00760407
0.00700805
0.0050112
0.0031017
0.00169987
0.000801941
0.000287428
2.49093e-05
-8.85348e-05
-0.000111526
-8.71263e-05
-5.06085e-05
-2.08121e-05
1.59758e-07
-0.41866
-0.252909
-0.146803
-0.0676841
-0.0232277
-0.00257537
0.00439311
0.00521435
0.00398928
0.0024915
0.00131333
0.000543777
0.000108439
-9.97112e-05
-0.000173563
-0.000168917
-0.000126153
-7.66721e-05
-3.62626e-05
-4.80763e-06
-0.42079
-0.267021
-0.1587
-0.078085
-0.0307167
-0.00745237
0.0014388
0.00346602
0.00294379
0.00184546
0.000896531
0.00026447
-8.36587e-05
-0.000232064
-0.000263128
-0.000228789
-0.000166327
-0.000103074
-5.17016e-05
-9.78629e-06
-0.39572
-0.26516
-0.158993
-0.0800357
-0.0325214
-0.00870927
0.000627506
0.00286289
0.00242716
0.0013899
0.000508299
-5.01587e-05
-0.000327312
-0.000412795
-0.000391385
-0.000316477
-0.000224977
-0.000140623
-7.29381e-05
-1.6511e-05
-0.36008
-0.253645
-0.156996
-0.0851653
-0.040085
-0.015573
-0.00444806
-0.000555769
0.000209769
-3.72978e-05
-0.000419707
-0.000662947
-0.000736818
-0.000687256
-0.000574132
-0.000436603
-0.000302578
-0.00018869
-9.92967e-05
-2.44919e-05
-0.316801
-0.233909
-0.150643
-0.0879711
-0.0470228
-0.022783
-0.0101945
-0.00461972
-0.00250855
-0.001811
-0.00157133
-0.0014147
-0.00123095
-0.00101284
-0.000787842
-0.000575548
-0.000391286
-0.000242962
-0.000128707
-3.33069e-05
-0.267468
-0.208214
-0.141105
-0.0884106
-0.0524071
-0.0293173
-0.0158245
-0.00881479
-0.00543665
-0.00378864
-0.0028863
-0.0022847
-0.0018059
-0.00139184
-0.00103597
-0.000736227
-0.000493203
-0.000304766
-0.000161902
-4.3237e-05
-0.216794
-0.178719
-0.128911
-0.086668
-0.0560918
-0.0349733
-0.0212485
-0.0131252
-0.00858004
-0.00598117
-0.00437533
-0.00328081
-0.00246643
-0.00182671
-0.00131951
-0.000918911
-0.000608348
-0.000374017
-0.000198783
-5.42578e-05
-0.170275
-0.148483
-0.114742
-0.0828701
-0.0579057
-0.0393636
-0.0261261
-0.0173457
-0.0118264
-0.00832962
-0.00600959
-0.00438897
-0.00320499
-0.0023128
-0.00163528
-0.00112132
-0.000735181
-0.000449708
-0.000238743
-6.6198e-05
-0.131304
-0.120429
-0.0997131
-0.0773477
-0.0579011
-0.0422402
-0.0300756
-0.0211578
-0.0149599
-0.0106971
-0.0077069
-0.00556135
-0.00399349
-0.00283309
-0.00197278
-0.0013368
-0.000869556
-0.000529376
-0.00028044
-7.86608e-05
-0.101011
-0.0967608
-0.0853863
-0.0708643
-0.0564584
-0.0436666
-0.0328887
-0.0242687
-0.0177259
-0.012892
-0.00933349
-0.00670983
-0.00477561
-0.00335193
-0.00230959
-0.00155132
-0.00100286
-0.00060802
-0.000321274
-9.086e-05
-0.0797125
-0.0791126
-0.0736335
-0.0647247
-0.0543371
-0.0440089
-0.0345806
-0.0264731
-0.0198598
-0.0146731
-0.0106976
-0.00769496
-0.00545604
-0.00380662
-0.00260556
-0.00173968
-0.00111965
-0.000676704
-0.000356708
-0.000101435
-0.0680014
-0.0690474
-0.0665181
-0.0606757
-0.0526689
-0.0438841
-0.0353538
-0.0276618
-0.0210984
-0.015751
-0.0115447
-0.00831767
-0.00589134
-0.00409956
-0.00279692
-0.00186159
-0.00119519
-0.000721064
-0.000379464
-0.00010821
-0.427856
-0.444326
-0.455689
-0.462331
-0.464894
-0.464365
-0.462225
-0.460721
-0.463786
-0.482566
-0.34228
-0.357042
-0.368829
-0.378053
-0.385275
-0.391193
-0.396579
-0.402147
-0.407898
-0.418928
-0.271877
-0.284507
-0.295454
-0.304894
-0.31298
-0.319818
-0.32547
-0.330067
-0.333645
-0.340756
-0.212275
-0.22253
-0.231604
-0.239553
-0.24644
-0.252357
-0.257452
-0.261967
-0.266023
-0.27154
-0.162927
-0.171217
-0.178707
-0.185435
-0.191449
-0.196801
-0.201544
-0.205728
-0.209351
-0.213078
-0.123041
-0.129761
-0.135911
-0.141501
-0.146547
-0.151065
-0.155073
-0.158597
-0.161667
-0.164513
-0.0916353
-0.0971082
-0.102152
-0.106766
-0.110956
-0.11473
-0.118101
-0.121083
-0.12369
-0.126
-0.0680244
-0.0725642
-0.0767654
-0.0806231
-0.0841361
-0.087307
-0.0901403
-0.092643
-0.0948271
-0.0967252
-0.051689
-0.0555781
-0.0591848
-0.0625023
-0.0655259
-0.0682556
-0.0706937
-0.0728431
-0.0747121
-0.0763156
-0.0428848
-0.0463894
-0.0496423
-0.0526367
-0.0553691
-0.0578395
-0.0600496
-0.0620001
-0.0636943
-0.0651371
0.0149071
-0.0486681
-0.112486
-0.168089
-0.219063
-0.266237
-0.308859
-0.346482
-0.37893
-0.406077
-0.00717459
-0.056262
-0.104859
-0.145969
-0.183018
-0.217703
-0.249512
-0.277926
-0.302835
-0.324266
-0.0217057
-0.0606329
-0.0961253
-0.126032
-0.152925
-0.178075
-0.201281
-0.222222
-0.240884
-0.25739
-0.0285248
-0.0583056
-0.0828631
-0.103673
-0.122952
-0.14122
-0.158244
-0.173835
-0.187991
-0.200783
-0.028227
-0.0499044
-0.0666537
-0.0811202
-0.0950546
-0.108522
-0.121207
-0.132974
-0.14383
-0.153806
-0.0227084
-0.0380028
-0.0497191
-0.0601821
-0.0705373
-0.0806857
-0.0903402
-0.0993977
-0.107861
-0.115741
-0.0149418
-0.0257485
-0.0343438
-0.0422921
-0.0502399
-0.0580724
-0.0655859
-0.0727058
-0.0794244
-0.0857379
-0.00716698
-0.0150496
-0.0217339
-0.0280895
-0.0344338
-0.0406847
-0.0467206
-0.0524885
-0.0579715
-0.0631556
-0.000827542
-0.00696695
-0.0125409
-0.0179276
-0.0232619
-0.0284999
-0.0335766
-0.0384537
-0.0431101
-0.0475279
0.00295134
-0.00241171
-0.00751001
-0.012447
-0.0172847
-0.0220075
-0.0265783
-0.0309693
-0.0351612
-0.0391379
0.219067
0.220092
0.222556
0.22607
0.230875
0.234996
0.238667
0.231711
0.2123
0.118508
0.21159
0.212197
0.213661
0.215516
0.217605
0.217786
0.215136
0.199908
0.167196
0.0774001
0.202623
0.202782
0.203156
0.203207
0.20247
0.198787
0.190545
0.169793
0.131539
0.0557494
0.192047
0.191712
0.19092
0.1891
0.185554
0.178363
0.165531
0.141754
0.101905
0.0376125
0.179908
0.179072
0.177143
0.173559
0.16752
0.157526
0.141562
0.116675
0.0780729
0.0237379
0.166496
0.165204
0.162283
0.157225
0.149279
0.137408
0.119927
0.0954848
0.0605351
0.0159036
0.152447
0.150794
0.14713
0.141033
0.131917
0.119162
0.101623
0.0788684
0.0488904
0.0131775
0.138839
0.136956
0.132854
0.126211
0.116654
0.103883
0.0873015
0.0669157
0.0419018
0.0135264
0.127274
0.125291
0.121031
0.114258
0.104786
0.0925264
0.0772776
0.0592092
0.0381661
0.0150857
0.119979
0.117978
0.113715
0.10701
0.0977823
0.0860534
0.0718152
0.0552838
0.0365817
0.0164387
0.250348
0.252341
0.257714
0.266162
0.279425
0.297168
0.323885
0.358656
0.411444
0.480508
0.248229
0.250165
0.255374
0.263549
0.276387
0.293453
0.319142
0.352164
0.401973
0.466004
0.245886
0.247759
0.252784
0.260646
0.272991
0.289238
0.313674
0.3444
0.39032
0.447156
0.243328
0.245136
0.249958
0.257471
0.269256
0.284552
0.307523
0.335415
0.376612
0.424063
0.240569
0.242311
0.246913
0.254046
0.265206
0.279429
0.300727
0.325266
0.361001
0.396821
0.237624
0.239299
0.243667
0.250391
0.260865
0.273905
0.293328
0.314029
0.343658
0.365498
0.234507
0.236119
0.240245
0.246543
0.256276
0.268048
0.285402
0.301841
0.324815
0.330195
0.231237
0.232799
0.23669
0.242563
0.251533
0.261998
0.277128
0.288968
0.304789
0.290958
0.227829
0.22935
0.233007
0.238457
0.246633
0.255753
0.268468
0.27538
0.283314
0.246615
0.224274
0.225689
0.229
0.233858
0.240963
0.248408
0.258071
0.259563
0.25801
0.195177
0.258381
0.260643
0.266284
0.275224
0.288666
0.305789
0.329772
0.353926
0.38626
0.384095
0.258619
0.260901
0.266687
0.275838
0.289749
0.307641
0.333328
0.360789
0.39963
0.415867
0.258636
0.260896
0.266709
0.275882
0.28993
0.308146
0.334724
0.364586
0.407949
0.439602
0.258434
0.260674
0.266504
0.275694
0.28986
0.308383
0.335721
0.367759
0.415057
0.459202
0.258005
0.260225
0.266064
0.275264
0.28952
0.30831
0.336262
0.370175
0.420814
0.475014
0.257339
0.259536
0.265361
0.274539
0.288818
0.30777
0.33611
0.371457
0.424687
0.486719
0.256431
0.258599
0.264384
0.273501
0.287726
0.306715
0.335204
0.371493
0.426491
0.494204
0.255277
0.257411
0.263131
0.272144
0.286241
0.305133
0.333534
0.370252
0.426137
0.497397
0.253877
0.25597
0.261599
0.270467
0.28436
0.303016
0.331093
0.367708
0.42354
0.496212
0.252232
0.254279
0.259792
0.268471
0.282086
0.300359
0.327875
0.363843
0.418645
0.490588
0.21111
0.209783
0.20693
0.202381
0.195959
0.187494
0.176738
0.163582
0.147784
0.129618
0.215907
0.214734
0.212172
0.208013
0.201983
0.193807
0.183054
0.169498
0.152608
0.13267
0.223163
0.22228
0.220296
0.216947
0.211826
0.204465
0.194113
0.180264
0.161804
0.138916
0.231125
0.230657
0.229532
0.227448
0.223876
0.218101
0.208995
0.195504
0.175663
0.149121
0.238633
0.238665
0.23862
0.238186
0.236792
0.233455
0.226777
0.214784
0.194615
0.164297
0.245037
0.245598
0.246744
0.248195
0.249457
0.249308
0.246348
0.237286
0.218796
0.185331
0.250078
0.251142
0.253479
0.256868
0.261023
0.264582
0.266485
0.261842
0.247651
0.21226
0.253758
0.255263
0.258698
0.263915
0.270937
0.278422
0.285971
0.287209
0.279922
0.243335
0.256234
0.258094
0.262471
0.269279
0.278897
0.290177
0.303606
0.312124
0.314412
0.276955
0.257732
0.259849
0.264979
0.273059
0.284867
0.299501
0.318645
0.335461
0.351792
0.321509
0.116637
0.111264
0.105891
0.100545
0.0951912
0.0898293
0.0844842
0.0791833
0.0739503
0.0688058
0.117993
0.111922
0.105896
0.0999489
0.0939888
0.087996
0.082003
0.0760488
0.0701644
0.0643761
0.121133
0.113537
0.106034
0.0987868
0.0915949
0.0843733
0.077155
0.069996
0.0629363
0.0560051
0.126919
0.116885
0.106925
0.0975884
0.088486
0.0793822
0.0702946
0.0613061
0.0524714
0.0438196
0.136535
0.122996
0.109295
0.0968633
0.0850315
0.0732666
0.0615351
0.0499645
0.0386345
0.0275698
0.15148
0.133294
0.114172
0.097326
0.0817492
0.0663769
0.0510642
0.0360145
0.0213454
0.00706531
0.173338
0.14956
0.122992
0.100091
0.079484
0.0592717
0.0391854
0.0195622
0.000552571
-0.0178801
0.202578
0.17255
0.13655
0.106039
0.0789434
0.0523594
0.0260985
0.000687994
-0.0237435
-0.0473112
0.239149
0.201811
0.155385
0.116401
0.0811305
0.0463335
0.0123305
-0.0202235
-0.0512138
-0.0806986
0.281878
0.234328
0.178228
0.129246
0.0829981
0.0379254
-0.00517363
-0.045815
-0.0838505
-0.11916
0.0637695
0.0588597
0.0540931
0.0494848
0.0450488
0.0407967
0.036734
0.0328675
0.0292035
0.0257449
0.0587087
0.0531855
0.0478281
0.0426553
0.0376829
0.0329247
0.0283919
0.0240917
0.0200283
0.0162009
0.0492283
0.0426308
0.0362354
0.0300618
0.0241254
0.0184375
0.0130086
0.00784681
0.00295643
-0.00166193
0.0353737
0.0271561
0.0191881
0.0114874
0.00406756
-0.00306343
-0.00990189
-0.0164447
-0.0226915
-0.0286388
0.0167815
0.00628209
-0.00391463
-0.0137976
-0.0233594
-0.032598
-0.0415199
-0.0501418
-0.0584915
-0.0666979
-0.00684122
-0.0203842
-0.0335725
-0.0464242
-0.0589676
-0.0712378
-0.0832726
-0.0951096
-0.106756
-0.118927
-0.0357944
-0.0532282
-0.0702102
-0.0867777
-0.10299
-0.11895
-0.13483
-0.150861
-0.167203
-0.185948
-0.0701443
-0.0923601
-0.114076
-0.135398
-0.1564
-0.177112
-0.197573
-0.217898
-0.238723
-0.264344
-0.10875
-0.135499
-0.161179
-0.186143
-0.210841
-0.235786
-0.261501
-0.288338
-0.317503
-0.350882
-0.151659
-0.181345
-0.208381
-0.233144
-0.256279
-0.278778
-0.302084
-0.328258
-0.363404
-0.412492
0.0178162
0.00800596
0.0012635
-0.00202843
-0.00247626
-0.00126472
0.000524436
0.00220528
0.00341821
0.0040424
0.00414037
0.00386153
0.00336056
0.00276439
0.00216445
0.00161589
0.00114444
0.000748518
0.000417284
0.000125998
0.00701378
-0.00250246
-0.00741925
-0.00825155
-0.00640839
-0.00345157
-0.000475181
0.00191609
0.00345479
0.00416033
0.00423132
0.00389847
0.00335161
0.00272763
0.00211715
0.00157053
0.00110779
0.000722342
0.000402292
0.000121777
-0.013282
-0.0217091
-0.0226339
-0.0186234
-0.0125919
-0.00662112
-0.00170716
0.00173962
0.00368185
0.00443027
0.00441065
0.00396866
0.00333886
0.00266818
0.00204156
0.0014987
0.00104979
0.000681136
0.000378851
0.000115124
-0.0436722
-0.0491992
-0.0431023
-0.0315656
-0.0196005
-0.009695
-0.00248917
0.00200651
0.00420703
0.00486136
0.0046584
0.00405368
0.00331561
0.00259023
0.00194753
0.00141136
0.000980235
0.000632413
0.000351298
0.000107167
-0.0850264
-0.0845644
-0.0677604
-0.0457947
-0.0262919
-0.0118746
-0.00240861
0.00284301
0.00502384
0.00541131
0.0049359
0.0041309
0.00327468
0.00249612
0.00184153
0.001316
0.000905743
0.000580974
0.000322355
9.87006e-05
-0.136482
-0.126271
-0.0953781
-0.0601569
-0.0317852
-0.0126913
-0.00135208
0.00418914
0.00604243
0.00601021
0.00520136
0.00418196
0.00321207
0.00238858
0.00172866
0.00121798
0.000830671
0.000529923
0.000293812
9.02919e-05
-0.192543
-0.170491
-0.123686
-0.0731888
-0.0353892
-0.0120064
0.000546737
0.00587162
0.00713962
0.00658748
0.0054221
0.00419641
0.00312785
0.00227137
0.00161337
0.00112115
0.000757953
0.000481274
0.000266779
8.22946e-05
-0.244287
-0.211621
-0.149036
-0.0830888
-0.0366146
-0.00988632
0.0030994
0.00775909
0.00825212
0.00712155
0.00559816
0.00418242
0.00303108
0.00215193
0.00150109
0.00102919
0.000689936
0.000436392
0.000241946
7.49469e-05
-0.287803
-0.244945
-0.167888
-0.0886142
-0.0353278
-0.00644234
0.00623367
0.00985103
0.0094083
0.00764522
0.00575775
0.00416074
0.00293563
0.00203889
0.00139695
0.000945017
0.00062826
0.000396083
0.000219722
6.84124e-05
-0.324562
-0.264379
-0.175722
-0.0882989
-0.0316376
-0.00234907
0.00922965
0.0115871
0.0102362
0.00793758
0.00577788
0.00406465
0.00280563
0.00191302
0.00129051
0.000862924
0.000570036
0.000359038
0.000199643
6.25737e-05
-0.342625
-0.258
-0.167456
-0.0821945
-0.0284465
-0.00124321
0.00906781
0.0109253
0.00952402
0.00734401
0.00532809
0.00373619
0.0025703
0.00174575
0.0011723
0.000781558
0.000517218
0.000327972
0.000183768
5.80009e-05
-0.347546
-0.246752
-0.154819
-0.0712478
-0.0210675
0.00306833
0.0112129
0.0118276
0.0098069
0.00735365
0.00523619
0.00362091
0.00246421
0.00165836
0.00110412
0.000731563
0.000483594
0.000307958
0.000173672
5.51899e-05
-0.34141
-0.231489
-0.139335
-0.0581536
-0.0124486
0.00799222
0.0136506
0.0128786
0.0101699
0.00740831
0.005171
0.00352248
0.00236913
0.00157807
0.00104018
0.000683907
0.000451198
0.000288614
0.000164017
5.26165e-05
-0.329634
-0.215794
-0.124887
-0.046714
-0.00530007
0.0118971
0.0154761
0.0135958
0.010362
0.00737931
0.00506621
0.00340592
0.00226593
0.00149416
0.000974577
0.000635419
0.000418424
0.000269146
0.000154378
5.0131e-05
-0.31568
-0.20022
-0.111263
-0.0365706
0.00071885
0.0150477
0.0168667
0.0140835
0.0104386
0.00729321
0.0049331
0.00327521
0.00215554
0.00140644
0.000906847
0.000585747
0.000385067
0.000249443
0.000144694
4.77036e-05
-0.301331
-0.185259
-0.0984544
-0.0274317
0.00593061
0.0176768
0.0179667
0.0144224
0.0104419
0.00717133
0.00478205
0.00313533
0.00204041
0.0013161
0.000837546
0.000535162
0.000351264
0.000229561
0.000134977
4.53248e-05
-0.288132
-0.171739
-0.0870347
-0.0195583
0.0102572
0.0197664
0.0187763
0.0146156
0.0103746
0.00701552
0.00461419
0.00298699
0.00192103
0.00122342
0.000766805
0.000483736
0.000317074
0.000209546
0.000125246
4.29892e-05
-0.277589
-0.160511
-0.0776186
-0.0132584
0.0135749
0.0212678
0.0192782
0.0146568
0.0102342
0.00682494
0.00442913
0.00283
0.00179738
0.0011284
0.000694582
0.000431452
0.000282504
0.0001894
0.00011549
4.06803e-05
-0.270978
-0.152288
-0.0706856
-0.00874017
0.0158178
0.0221638
0.0194706
0.014547
0.0100219
0.00660023
0.00422727
0.00266434
0.00166905
0.00103077
0.000620997
0.000378485
0.000247508
0.000168856
0.000105404
3.82584e-05
-0.269196
-0.147575
-0.0665704
-0.00614291
0.0169494
0.02245
0.019357
0.0142895
0.00973958
0.00634227
0.00400919
0.00249012
0.00153565
0.000930248
0.000546167
0.000325071
0.000212078
0.000147639
9.46434e-05
3.55554e-05
)
;

boundaryField
{
    inlet
    {
        type            freestreamPressure;
        freestreamValue uniform 0;
        supersonic      false;
        value           nonuniform List<scalar> 
40
(
0.219067
0.21159
0.202623
0.192047
0.179908
0.166496
0.152447
0.138839
0.127274
0.119979
0.250348
0.248229
0.245886
0.243328
0.240569
0.237624
0.234507
0.231237
0.227829
0.224274
0.258381
0.258619
0.258636
0.258434
0.258005
0.257339
0.256431
0.255277
0.253877
0.252232
0.21111
0.215907
0.223163
0.231125
0.238633
0.245037
0.250078
0.253758
0.256234
0.257732
)
;
    }
    outlet
    {
        type            freestreamPressure;
        freestreamValue uniform 0;
        supersonic      false;
        value           nonuniform List<scalar> 
40
(
-1.57443e-13
-2.16654e-13
-2.64826e-13
-2.96437e-13
-3.0257e-13
-2.76958e-13
-2.20022e-13
-1.41668e-13
-6.17132e-14
-7.73379e-15
3.67121e-13
3.20692e-13
2.69229e-13
2.15584e-13
1.60794e-13
1.06656e-13
5.3507e-14
1.65147e-15
-4.87058e-14
-9.68919e-14
6.59756e-13
6.30994e-13
6.03865e-13
5.77045e-13
5.50285e-13
5.23457e-13
4.96558e-13
4.6947e-13
4.4047e-13
4.06509e-13
3.04363e-14
2.25973e-13
4.6615e-13
6.54692e-13
7.65399e-13
8.09149e-13
8.07924e-13
7.8187e-13
7.45622e-13
7.04043e-13
)
;
    }
    top
    {
        type            symmetryPlane;
    }
    bottom
    {
        type            symmetryPlane;
    }
    cylinder
    {
        type            zeroGradient;
    }
    frontandback
    {
        type            empty;
    }
}


// ************************************************************************* //
