/*--------------------------------*- C++ -*----------------------------------*\
| =========                 |                                                 |
| \\      /  F ield         | OpenFOAM: The Open Source CFD Toolbox           |
|  \\    /   O peration     | Version:  v1912                                 |
|   \\  /    A nd           | Website:  www.openfoam.com                      |
|    \\/     M anipulation  |                                                 |
\*---------------------------------------------------------------------------*/
FoamFile
{
    version     2.0;
    format      ascii;
    class       volVectorField;
    location    "2";
    object      U;
}
// * * * * * * * * * * * * * * * * * * * * * * * * * * * * * * * * * * * * * //

dimensions      [0 1 -1 0 0 0 0];


internalField   nonuniform List<vector> 
2400
(
(0.0173514 -0.439064 -1.00088e-20)
(0.00448601 -0.355706 1.02333e-22)
(-0.00469614 -0.29802 3.17301e-21)
(-0.0101299 -0.258998 -5.92826e-21)
(-0.0115582 -0.23308 0)
(-0.00907198 -0.216003 5.06565e-21)
(-0.00316921 -0.204576 0)
(0.00554509 -0.196441 4.13798e-21)
(0.0164585 -0.189874 -7.7707e-21)
(0.0283139 -0.183677 7.84676e-21)
(0.0514556 -0.431958 6.75588e-21)
(0.0332607 -0.347571 5.47157e-22)
(0.0223133 -0.291678 3.89353e-22)
(0.0173209 -0.255962 3.00554e-20)
(0.0177719 -0.234043 -1.1357e-20)
(0.0230319 -0.221149 -5.06552e-21)
(0.0322136 -0.213754 1.8527e-20)
(0.0444613 -0.209226 -1.77551e-20)
(0.0590216 -0.205577 0)
(0.0743114 -0.201435 -1.57199e-20)
(0.0848131 -0.423142 3.00129e-20)
(0.0619042 -0.33946 3.02928e-20)
(0.0506153 -0.286322 -1.38365e-20)
(0.0477911 -0.254425 2.58583e-20)
(0.0519999 -0.2367 2.38183e-20)
(0.0619598 -0.227984 2.18774e-20)
(0.0763338 -0.224507 0)
(0.093985 -0.223415 1.83256e-20)
(0.114011 -0.222455 1.67106e-20)
(0.134403 -0.220078 1.67542e-20)
(0.117522 -0.412964 -6.2026e-20)
(0.0908469 -0.331909 3.21469e-22)
(0.0807931 -0.282567 -5.74247e-20)
(0.0818519 -0.254916 5.43941e-20)
(0.0915792 -0.241432 -4.86945e-20)
(0.107954 -0.236724 -2.18767e-20)
(0.12914 -0.236896 3.9984e-20)
(0.153698 -0.238946 -5.66425e-20)
(0.18058 -0.24036 -5.00011e-20)
(0.207255 -0.239427 1.81238e-20)
(0.14982 -0.40169 -1.08108e-21)
(0.12069 -0.325229 0)
(0.113576 -0.280678 -1.55141e-21)
(0.120302 -0.257565 -2.98168e-20)
(0.137184 -0.248182 -7.8925e-20)
(0.161447 -0.247099 -2.41447e-20)
(0.190724 -0.250447 0)
(0.223267 -0.255181 0)
(0.257896 -0.258559 0)
(0.291495 -0.258744 0)
(0.181965 -0.389347 7.3736e-20)
(0.152257 -0.319547 -1.07546e-19)
(0.149882 -0.280614 1.9484e-19)
(0.16406 -0.262118 -9.31531e-20)
(0.189633 -0.256446 8.2396e-20)
(0.223009 -0.258329 -2.68517e-20)
(0.26129 -0.264103 4.63755e-20)
(0.302424 -0.270834 -4.20458e-20)
(0.345155 -0.275638 0)
(0.38577 -0.276623 3.55467e-20)
(0.214067 -0.375925 -7.37366e-20)
(0.186267 -0.314778 7.30174e-20)
(0.190751 -0.282036 4.53617e-21)
(0.214161 -0.267945 -4.15191e-22)
(0.249808 -0.265293 3.07943e-21)
(0.293253 -0.269162 1.04956e-19)
(0.341059 -0.276282 -7.25943e-23)
(0.390896 -0.284033 3.70644e-20)
(0.441528 -0.289551 -4.04583e-20)
(0.488754 -0.291026 3.75714e-20)
(0.246349 -0.361457 1.66625e-19)
(0.223438 -0.310551 -1.25874e-19)
(0.237146 -0.284258 4.91087e-21)
(0.271547 -0.274068 0)
(0.318465 -0.273447 6.30926e-20)
(0.372619 -0.277989 -5.39598e-20)
(0.430041 -0.284989 -5.16727e-20)
(0.488148 -0.292376 1.7846e-19)
(0.545904 -0.29755 -4.47946e-20)
(0.598968 -0.299065 -1.61677e-19)
(0.279101 -0.345876 -2.21969e-19)
(0.264473 -0.306298 1.74042e-19)
(0.289873 -0.286346 5.23616e-21)
(0.336929 -0.279277 0)
(0.396085 -0.27945 3.97646e-21)
(0.461254 -0.283064 -6.0623e-20)
(0.527924 -0.28802 1.06339e-19)
(0.593212 -0.292863 4.52842e-20)
(0.656403 -0.29548 -8.80321e-20)
(0.713887 -0.29567 0)
(0.312602 -0.32897 9.20732e-20)
(0.309922 -0.301241 5.56172e-22)
(0.349423 -0.287173 -8.63267e-20)
(0.410611 -0.282282 -4.22209e-21)
(0.482776 -0.282019 -1.38212e-19)
(0.559209 -0.283194 6.0622e-20)
(0.635019 -0.284121 -1.63499e-19)
(0.706933 -0.283612 2.00996e-19)
(0.773833 -0.280112 -9.27547e-20)
(0.833055 -0.276158 0)
(0.641084 -0.0114267 2.64692e-20)
(0.616387 -0.0591176 -1.78848e-20)
(0.587862 -0.103134 -6.99072e-20)
(0.556421 -0.143294 1.0447e-19)
(0.522903 -0.179562 6.69622e-20)
(0.488077 -0.212047 0)
(0.452603 -0.240983 0)
(0.417013 -0.266699 -1.68485e-19)
(0.381711 -0.289613 2.72965e-19)
(0.346946 -0.310218 -1.05732e-19)
(0.880809 0.00997938 -7.20649e-22)
(0.833788 -0.0519401 -1.08655e-21)
(0.779833 -0.107003 -6.60683e-20)
(0.720894 -0.154593 3.04422e-21)
(0.658901 -0.194476 0)
(0.595692 -0.226792 1.81717e-19)
(0.53293 -0.252028 -1.21547e-19)
(0.472027 -0.270973 1.67922e-19)
(0.414101 -0.284672 -2.12149e-19)
(0.359934 -0.294355 6.10467e-21)
(1.07547 0.0507169 -7.94053e-21)
(1.02132 -0.02056 -2.44748e-21)
(0.956966 -0.0844531 3.15098e-20)
(0.884686 -0.139767 1.19126e-19)
(0.806901 -0.185778 -5.58543e-20)
(0.726074 -0.222261 -2.74302e-19)
(0.644565 -0.249495 5.10554e-21)
(0.564511 -0.26824 5.45094e-21)
(0.487732 -0.279701 5.61553e-21)
(0.415673 -0.285442 9.79459e-20)
(1.2242 0.089625 1.34183e-20)
(1.172 0.0135826 -6.73566e-20)
(1.10692 -0.0559333 -5.32891e-20)
(1.03105 -0.117242 -1.04789e-19)
(0.94682 -0.169102 5.6858e-20)
(0.856887 -0.210786 1.50088e-19)
(0.76396 -0.242134 -5.03754e-21)
(0.670647 -0.263602 0)
(0.579309 -0.276266 -8.37705e-20)
(0.492005 -0.281798 8.84038e-20)
(1.33107 0.120595 0)
(1.28594 0.0435044 2.47075e-20)
(1.22616 -0.028545 -4.70378e-20)
(1.15334 -0.0935686 9.57614e-20)
(1.06957 -0.14991 1.40417e-19)
(0.977326 -0.196348 -1.32519e-19)
(0.879306 -0.232211 -1.26249e-21)
(0.77827 -0.257493 -7.98046e-20)
(0.67684 -0.272962 1.55324e-19)
(0.577445 -0.28027 7.56538e-20)
(1.40268 0.142827 -1.01865e-20)
(1.36692 0.0673693 1.0186e-20)
(1.31574 -0.00469898 -4.1378e-20)
(1.25014 -0.0712792 4.1377e-20)
(1.17164 -0.130453 4.01666e-20)
(1.08226 -0.180599 3.7858e-20)
(0.984387 -0.220541 -1.53176e-19)
(0.880603 -0.249732 3.31393e-21)
(0.773418 -0.268507 6.779e-20)
(0.665151 -0.278425 -6.82228e-20)
(1.44625 0.156935 0)
(1.42025 0.0848107 -3.42066e-20)
(1.37896 0.0145355 -3.63364e-20)
(1.32273 -0.0518397 3.63352e-20)
(1.25246 -0.112293 0)
(1.16958 -0.164929 -6.96683e-20)
(1.07595 -0.208115 3.19983e-21)
(0.973707 -0.24072 6.47099e-20)
(0.864835 -0.262512 -1.26314e-19)
(0.750701 -0.274898 1.78219e-19)
(1.46852 0.164292 -7.18901e-21)
(1.4515 0.0963688 3.27816e-20)
(1.41997 0.0290091 -3.18964e-20)
(1.37377 -0.0359028 3.18952e-20)
(1.31321 -0.0963827 0)
(1.23909 -0.150391 6.22359e-20)
(1.15271 -0.195916 -5.72222e-20)
(1.05561 -0.231159 -2.34971e-19)
(0.948934 -0.255048 -5.31891e-20)
(0.831785 -0.26855 -2.17568e-19)
(1.47507 0.166618 6.89589e-21)
(1.46564 0.10306 0)
(1.44291 0.0390592 -2.80252e-20)
(1.40634 -0.0237448 8.20802e-20)
(1.35574 -0.0835221 2.81785e-20)
(1.29143 -0.138225 -2.8178e-20)
(1.21417 -0.18556 5.97107e-20)
(1.12503 -0.222965 6.07516e-20)
(1.02444 -0.247865 1.0704e-19)
(0.907932 -0.259225 1.01497e-19)
(1.47011 0.165375 -5.68333e-21)
(1.46667 0.106265 2.36304e-20)
(1.45136 0.0458536 -2.56858e-20)
(1.42339 -0.014519 -2.84966e-20)
(1.38221 -0.0732786 0)
(1.32772 -0.128522 -4.70039e-20)
(1.26034 -0.177873 -5.19519e-20)
(1.18098 -0.218189 2.0261e-19)
(1.09043 -0.245059 0)
(0.980092 -0.252329 0)
(0.531918 0.492239 -4.99176e-20)
(0.573781 0.455056 8.70774e-20)
(0.609746 0.412096 6.16655e-21)
(0.638968 0.364393 0)
(0.661006 0.313076 0)
(0.6756 0.259163 -5.70005e-20)
(0.682612 0.203753 3.29044e-20)
(0.68218 0.147993 -6.38528e-20)
(0.674712 0.0929638 -1.74125e-20)
(0.66083 0.0395969 8.94365e-21)
(0.736434 0.650959 8.10384e-20)
(0.800046 0.613002 -1.08884e-19)
(0.855444 0.564636 2.53432e-20)
(0.900963 0.507368 -9.12152e-20)
(0.93515 0.442803 4.49396e-20)
(0.957076 0.372701 0)
(0.966261 0.299083 1.18022e-19)
(0.962629 0.224035 1.24518e-21)
(0.946576 0.149612 -6.40429e-20)
(0.918951 0.0777086 7.25834e-22)
(0.863387 0.716804 2.9507e-20)
(0.938889 0.685504 1.44229e-20)
(1.00631 0.641715 1.36504e-20)
(1.06356 0.586696 1.26077e-20)
(1.10873 0.522019 4.51291e-20)
(1.14029 0.449628 4.43673e-20)
(1.15723 0.371675 -1.03122e-19)
(1.159 0.290463 -2.89817e-20)
(1.14556 0.20837 2.70935e-21)
(1.11741 0.127727 7.81972e-21)
(0.940244 0.725132 2.08018e-20)
(1.02107 0.701738 -2.76244e-20)
(1.09506 0.665393 0)
(1.15987 0.617086 -1.18693e-19)
(1.21337 0.558125 -4.79939e-20)
(1.25373 0.49019 1.11516e-19)
(1.27951 0.415197 9.21197e-20)
(1.28973 0.335303 -4.58087e-20)
(1.28385 0.252826 3.75251e-20)
(1.26187 0.17015 1.28177e-20)
(0.98557 0.700923 -1.70891e-20)
(1.0674 0.684459 3.12172e-20)
(1.1439 0.655618 -3.12152e-20)
(1.21263 0.615054 1.04606e-19)
(1.27143 0.563729 -8.36295e-20)
(1.31839 0.502937 -4.04162e-20)
(1.35187 0.434275 -8.35111e-22)
(1.37059 0.359589 -3.88847e-20)
(1.37363 0.280938 -2.28485e-20)
(1.36049 0.20052 0)
(1.01202 0.660606 -1.3481e-20)
(1.09233 0.649466 3.70844e-20)
(1.16859 0.627099 9.81523e-21)
(1.23837 0.593752 -7.61145e-20)
(1.29963 0.55005 1.70629e-20)
(1.35058 0.496962 2.56314e-20)
(1.38962 0.435748 3.28479e-20)
(1.41535 0.367915 -3.28461e-20)
(1.42662 0.2952 9.48446e-21)
(1.42257 0.219496 -9.48407e-21)
(1.02781 0.61417 3.55909e-21)
(1.10555 0.606853 -2.61982e-20)
(1.1799 0.589703 1.75771e-20)
(1.24859 0.562469 6.26548e-20)
(1.30993 0.525506 -3.46033e-20)
(1.36243 0.479552 0)
(1.40467 0.425597 7.7132e-20)
(1.43532 0.364864 -2.77263e-20)
(1.45313 0.298782 2.98735e-20)
(1.45705 0.228898 0)
(1.03812 0.567323 4.05166e-21)
(1.11307 0.56302 2.71517e-20)
(1.18448 0.550076 -3.58168e-21)
(1.25049 0.527745 1.02769e-20)
(1.31005 0.496292 2.79963e-20)
(1.36211 0.456356 0)
(1.4055 0.40875 -2.39151e-20)
(1.439 0.354554 -2.34306e-20)
(1.4614 0.294914 -2.86295e-20)
(1.47156 0.231016 6.83744e-21)
(1.04668 0.523843 7.66488e-22)
(1.11832 0.522446 -1.37888e-20)
(1.18567 0.512859 1.00184e-20)
(1.24774 0.494182 -5.86527e-20)
(1.30422 0.466885 -1.43984e-20)
(1.35442 0.431653 1.43973e-20)
(1.39744 0.389204 -1.53514e-20)
(1.43217 0.340536 -1.98234e-20)
(1.45739 0.286611 0)
(1.47201 0.228251 -1.2461e-20)
(1.05878 0.485337 0)
(1.12542 0.484907 0)
(1.18689 0.47723 -4.41629e-20)
(1.24356 0.461013 -1.9899e-20)
(1.29576 0.436883 6.4446e-20)
(1.3429 0.405566 0)
(1.38419 0.367688 5.35004e-20)
(1.41876 0.323882 -1.78566e-20)
(1.44528 0.275142 -2.0051e-20)
(1.46266 0.222014 1.13313e-20)
(0.597471 0.122939 -2.70181e-22)
(0.55673 0.134422 1.32398e-20)
(0.509953 0.148927 -7.0436e-21)
(0.456363 0.167943 0)
(0.395045 0.193567 8.30548e-21)
(0.325501 0.228367 0)
(0.248203 0.274915 -9.75213e-21)
(0.165505 0.334566 -5.52111e-21)
(0.0857467 0.404986 -2.81899e-22)
(0.0316218 0.475721 -5.68165e-21)
(0.615412 0.180707 -2.59384e-20)
(0.576244 0.197131 0)
(0.531119 0.217053 2.80425e-20)
(0.479561 0.241701 -2.92601e-20)
(0.420738 0.272687 -8.30541e-21)
(0.3542 0.311595 1.78401e-20)
(0.280409 0.359202 -2.81067e-20)
(0.201506 0.413873 -6.10426e-22)
(0.125142 0.468391 4.24688e-20)
(0.0723591 0.504418 1.14397e-20)
(0.641098 0.235935 2.39085e-20)
(0.604237 0.2571 2.279e-20)
(0.561477 0.282239 2.46279e-20)
(0.512721 0.312269 2.66023e-20)
(0.457169 0.348318 2.86712e-20)
(0.394289 0.390984 3.07928e-20)
(0.324295 0.439271 3.28896e-20)
(0.2487 0.488612 1.87949e-20)
(0.173723 0.527104 -3.37575e-21)
(0.117363 0.529024 3.71626e-20)
(0.674191 0.287604 -7.04586e-20)
(0.640291 0.313195 2.02443e-20)
(0.600551 0.34322 2.32087e-20)
(0.555312 0.378218 -7.65152e-20)
(0.503745 0.418833 -2.86708e-20)
(0.445099 0.4647 -1.40684e-21)
(0.379113 0.513104 -6.60331e-20)
(0.306285 0.556699 6.53915e-20)
(0.230716 0.579273 -7.14384e-20)
(0.166098 0.548569 -5.441e-20)
(0.714185 0.334787 0)
(0.683792 0.364379 -1.81936e-20)
(0.647653 0.398829 0)
(0.606567 0.438218 0)
(0.559596 0.482713 -2.18713e-20)
(0.505648 0.531025 2.75114e-20)
(0.443767 0.578814 -7.88879e-20)
(0.37308 0.616194 -2.74743e-20)
(0.294981 0.623188 0)
(0.21781 0.562181 -2.82338e-20)
(0.760398 0.376667 3.93684e-20)
(0.733939 0.409739 1.81933e-20)
(0.701885 0.448023 -3.25629e-20)
(0.665483 0.491066 3.41977e-20)
(0.623595 0.538579 -1.3644e-20)
(0.574656 0.5884 5.93259e-20)
(0.516823 0.634699 2.88073e-20)
(0.447551 0.665369 -2.83966e-20)
(0.36506 0.65736 -1.38085e-20)
(0.271572 0.56914 0)
(0.811953 0.412575 3.32232e-20)
(0.789714 0.448516 8.05887e-20)
(0.762128 0.489907 -2.21933e-20)
(0.730828 0.535708 -6.467e-20)
(0.694362 0.585215 6.20361e-20)
(0.650571 0.635458 -6.68559e-20)
(0.596551 0.679289 6.84668e-20)
(0.527858 0.702763 -1.36594e-20)
(0.439224 0.680572 3.57809e-20)
(0.326319 0.568906 0)
(0.867724 0.442105 -2.85191e-21)
(0.849854 0.480138 -2.5753e-20)
(0.827029 0.523732 -4.9642e-22)
(0.801151 0.571237 -1.79836e-20)
(0.770296 0.621579 -9.58749e-21)
(0.7316 0.671052 1.50217e-20)
(0.680969 0.71138 0)
(0.61191 0.727225 -1.44411e-20)
(0.515534 0.691927 1.86121e-21)
(0.380895 0.56114 -3.64859e-21)
(0.926247 0.465253 0)
(0.912806 0.504368 2.86348e-20)
(0.895074 0.549 -4.81513e-20)
(0.874889 0.596955 2.72134e-20)
(0.849662 0.646842 -2.38628e-20)
(0.815786 0.694278 -1.50215e-20)
(0.76791 0.73007 -1.06209e-21)
(0.69744 0.737959 -1.49181e-20)
(0.591927 0.690885 -8.94066e-21)
(0.434119 0.54574 1.68372e-20)
(0.984309 0.47951 0)
(0.975268 0.518848 1.40203e-20)
(0.963783 0.563957 -2.58337e-20)
(0.949959 0.61165 2.47475e-21)
(0.930419 0.6601 6.92925e-21)
(0.900978 0.704395 -4.84637e-21)
(0.855066 0.734751 -4.65543e-21)
(0.782079 0.734527 6.46202e-22)
(0.666307 0.677241 3.11105e-20)
(0.48487 0.522801 -1.53751e-20)
(0.819064 -0.370204 0)
(0.79337 -0.395084 -6.59664e-20)
(0.759853 -0.418308 1.38548e-19)
(0.717184 -0.434344 -1.12454e-19)
(0.659992 -0.437784 4.18092e-20)
(0.581494 -0.420024 -4.04328e-20)
(0.473052 -0.368678 -4.74214e-20)
(0.323804 -0.267544 -5.16624e-20)
(0.120914 -0.0964391 -6.29908e-21)
(-0.151745 0.169093 5.53778e-20)
(0.772865 -0.340784 0)
(0.745306 -0.364473 -7.62885e-20)
(0.709179 -0.386888 3.68755e-20)
(0.664328 -0.403148 8.51323e-20)
(0.606413 -0.407808 -4.46421e-20)
(0.529426 -0.392238 -9.91598e-20)
(0.425789 -0.343854 4.67425e-20)
(0.286128 -0.245832 -9.203e-21)
(0.0999946 -0.0765881 1.19587e-19)
(-0.144134 0.19116 -9.07808e-20)
(0.728584 -0.304097 -7.19156e-22)
(0.698648 -0.326013 -4.58013e-20)
(0.660374 -0.347034 1.79083e-19)
(0.613553 -0.362691 -4.54878e-20)
(0.554647 -0.367611 -5.99725e-21)
(0.478569 -0.353363 5.15436e-20)
(0.378964 -0.307518 0)
(0.248183 -0.213183 -8.48151e-21)
(0.0785659 -0.04824 -1.00886e-19)
(-0.136127 0.215988 6.47106e-20)
(0.688842 -0.262622 5.01161e-20)
(0.656243 -0.281926 -4.94352e-20)
(0.61571 -0.300444 5.13017e-20)
(0.566823 -0.314239 -2.89993e-21)
(0.506648 -0.318171 1.14065e-19)
(0.430995 -0.304155 -1.79105e-21)
(0.334763 -0.260206 4.11927e-21)
(0.212132 -0.169885 -7.50257e-21)
(0.0584467 -0.0114493 8.24111e-20)
(-0.12689 0.243601 0)
(0.654585 -0.216354 -1.52427e-19)
(0.619352 -0.232413 2.52971e-20)
(0.576594 -0.247602 -5.1349e-20)
(0.525679 -0.258512 5.53545e-20)
(0.464153 -0.260341 -2.76472e-20)
(0.388652 -0.245503 9.89932e-20)
(0.295299 -0.202743 -1.05924e-19)
(0.180101 -0.116606 1.92969e-19)
(0.041442 0.0333446 -1.24528e-19)
(-0.115604 0.273804 0)
(0.626571 -0.16572 0)
(0.588966 -0.178016 -2.52976e-20)
(0.544209 -0.189221 0)
(0.49148 -0.196398 0)
(0.428721 -0.195148 -3.20125e-20)
(0.353316 -0.17852 -1.07616e-19)
(0.262522 -0.136255 -4.06997e-20)
(0.154083 -0.0543796 4.13861e-20)
(0.0292677 0.0853374 0)
(-0.101486 0.306199 4.69053e-20)
(0.605432 -0.111431 2.87999e-20)
(0.565891 -0.119523 -7.98401e-20)
(0.519525 -0.126212 -2.94323e-20)
(0.465366 -0.128956 -3.20038e-20)
(0.401687 -0.123801 -3.48225e-20)
(0.326523 -0.104538 -7.60732e-20)
(0.238147 -0.0621422 7.99397e-20)
(0.13585 0.0154352 -8.86763e-20)
(0.0234685 0.1434 -1.70883e-21)
(-0.0838348 0.340204 -2.51605e-20)
(0.591626 -0.054352 2.82309e-20)
(0.550734 -0.0578929 2.71088e-20)
(0.503291 -0.0596452 2.94329e-20)
(0.448237 -0.0574057 3.20044e-20)
(0.384125 -0.0476807 3.48231e-20)
(0.309536 -0.0250949 3.7897e-20)
(0.2236 0.0179505 4.12258e-20)
(0.126894 0.0911969 -2.32454e-20)
(0.0253521 0.206122 4.83904e-20)
(-0.062065 0.375076 4.97151e-20)
(0.585474 0.00435932 2.79971e-20)
(0.543937 0.00571693 0)
(0.496059 0.00924584 -3.05531e-20)
(0.440767 0.0168888 3.18797e-20)
(0.376849 0.03168 -8.82059e-21)
(0.303324 0.0581008 -1.97341e-20)
(0.219986 0.102173 5.25281e-20)
(0.128381 0.171028 9.46621e-22)
(0.0359424 0.271865 4.73876e-22)
(-0.0357389 0.409953 1.24956e-20)
(0.587454 0.0637562 -6.92385e-21)
(0.545929 0.0701956 -6.94414e-21)
(0.498243 0.0791988 7.23914e-21)
(0.443416 0.0924945 0)
(0.380407 0.112654 8.82072e-21)
(0.308541 0.143218 0)
(0.228062 0.188521 -1.04495e-20)
(0.141116 0.252872 5.74447e-21)
(0.0559529 0.338807 3.12835e-22)
(-0.00456899 0.443875 -1.85053e-20)
(0.884131 -0.397217 0)
(0.939967 -0.414736 0)
(0.991492 -0.426341 5.40531e-22)
(1.03906 -0.430247 -1.09642e-20)
(1.08289 -0.426652 2.75227e-20)
(1.12266 -0.416168 0)
(1.15685 -0.399126 4.06012e-22)
(1.18354 -0.375784 1.84819e-21)
(1.20156 -0.34657 4.70056e-21)
(1.20943 -0.312108 2.30507e-22)
(0.85155 -0.418996 5.64606e-20)
(0.909654 -0.435855 4.60725e-20)
(0.964338 -0.445886 1.37232e-20)
(1.01442 -0.447799 8.42174e-21)
(1.05935 -0.441594 0)
(1.09847 -0.42769 0)
(1.13016 -0.407022 -4.90781e-21)
(1.15288 -0.379687 2.67206e-21)
(1.16521 -0.346404 0)
(1.16571 -0.308212 -3.96174e-21)
(0.816669 -0.440256 -1.17257e-19)
(0.874713 -0.454628 -2.73811e-20)
(0.929962 -0.461504 -7.17213e-20)
(0.98021 -0.46005 -7.88334e-21)
(1.02416 -0.450179 8.70194e-21)
(1.06061 -0.432288 0)
(1.088 -0.407209 -1.01167e-20)
(1.10478 -0.375545 3.83977e-21)
(1.10957 -0.338327 -7.85805e-21)
(1.10112 -0.296931 2.19726e-21)
(0.773249 -0.455129 8.80124e-20)
(0.82978 -0.466876 -4.75854e-20)
(0.883389 -0.470004 2.05071e-20)
(0.931499 -0.464264 -3.98585e-21)
(0.972231 -0.449796 -7.36719e-21)
(1.00397 -0.427172 0)
(1.02512 -0.397331 6.54941e-21)
(1.03419 -0.361336 0)
(1.02999 -0.320582 8.19958e-21)
(1.01166 -0.276784 0)
(0.714726 -0.456729 -2.76085e-20)
(0.76851 -0.465394 2.76065e-20)
(0.818514 -0.464355 1.29758e-20)
(0.862154 -0.453896 -1.88414e-20)
(0.897305 -0.434538 6.31603e-21)
(0.922169 -0.407183 -4.49911e-22)
(0.935196 -0.373071 -6.48008e-21)
(0.935139 -0.333676 6.47975e-21)
(0.921175 -0.290759 -2.82232e-21)
(0.89299 -0.246331 2.82223e-21)
(0.633181 -0.436221 6.03145e-20)
(0.682379 -0.44135 -8.12649e-21)
(0.726589 -0.43613 -2.0036e-20)
(0.763394 -0.421291 -3.08261e-21)
(0.790709 -0.397808 -2.82112e-21)
(0.806834 -0.366948 -8.81616e-21)
(0.810474 -0.330318 -1.47248e-20)
(0.80078 -0.289755 7.85131e-21)
(0.777449 -0.247308 -6.08381e-21)
(0.740784 -0.205161 0)
(0.518696 -0.381771 2.91621e-20)
(0.560551 -0.383695 -2.90041e-20)
(0.596372 -0.375369 0)
(0.624005 -0.357899 4.74528e-21)
(0.641668 -0.332656 3.86048e-21)
(0.648009 -0.301272 -5.22816e-21)
(0.642142 -0.265636 1.19509e-20)
(0.623745 -0.227816 9.11725e-21)
(0.593092 -0.189971 1.66538e-20)
(0.551073 -0.154248 -3.55505e-21)
(0.359059 -0.278371 3.16142e-20)
(0.38986 -0.279014 -9.78071e-21)
(0.414301 -0.270599 -9.48589e-21)
(0.430687 -0.25445 -8.99249e-21)
(0.437695 -0.232193 3.39667e-21)
(0.434439 -0.205649 1.72348e-21)
(0.420566 -0.176783 -1.71616e-20)
(0.396283 -0.147626 -6.04721e-21)
(0.362356 -0.120167 3.86909e-22)
(0.320063 -0.0962457 2.14739e-21)
(0.139504 -0.108067 -4.6164e-21)
(0.154263 -0.112146 -5.58073e-20)
(0.163875 -0.109857 3.1209e-20)
(0.167213 -0.102478 -2.27966e-21)
(0.163494 -0.0914897 1.12327e-21)
(0.152394 -0.0785073 0)
(0.134028 -0.0651717 -2.00689e-21)
(0.108946 -0.0530728 1.03429e-20)
(0.0781063 -0.0436644 -5.18614e-22)
(0.0428011 -0.0381872 2.30062e-22)
(-0.159817 0.149485 -3.32383e-20)
(-0.168632 0.132276 4.15415e-20)
(-0.17877 0.116779 -3.03759e-20)
(-0.190584 0.10233 1.04202e-21)
(-0.204213 0.0882679 -1.042e-21)
(-0.219585 0.0739086 1.51583e-20)
(-0.23643 0.0585955 -1.5763e-20)
(-0.254294 0.0417456 1.2489e-20)
(-0.272573 0.0228842 4.68786e-21)
(-0.290571 0.00165773 -7.04285e-21)
(1.20553 -0.273298 2.04944e-21)
(1.18842 -0.231379 -9.71533e-21)
(1.15705 -0.187968 1.23295e-20)
(1.11097 -0.145123 -3.90731e-20)
(1.05061 -0.105361 0)
(0.977356 -0.0716176 2.67748e-20)
(0.893439 -0.0471599 3.14813e-20)
(0.801408 -0.0353839 1.95203e-21)
(0.700111 -0.0400339 0)
(0.575723 -0.0599661 0)
(1.15296 -0.266409 2.53852e-21)
(1.12592 -0.222652 0)
(1.08411 -0.178929 1.31796e-20)
(1.02776 -0.137558 1.35755e-20)
(0.958004 -0.101114 0)
(0.876804 -0.0722955 0)
(0.786631 -0.0537167 9.95256e-20)
(0.689607 -0.0475067 -3.38949e-20)
(0.584667 -0.0548129 6.95441e-20)
(0.464859 -0.0702883 6.95367e-20)
(1.07842 -0.253006 -2.64646e-21)
(1.04099 -0.208539 1.30539e-20)
(0.989053 -0.165753 1.44722e-20)
(0.923578 -0.127034 -1.4472e-20)
(0.84637 -0.0947943 0)
(0.75989 -0.0712645 -3.39155e-20)
(0.666844 -0.0581993 -3.51649e-20)
(0.5694 -0.0563927 -3.22321e-22)
(0.467648 -0.0649837 -1.08206e-19)
(0.359699 -0.0780355 -1.44705e-19)
(0.978754 -0.2319 0)
(0.931485 -0.188147 -1.36216e-20)
(0.870808 -0.147828 0)
(0.798418 -0.113217 0)
(0.716692 -0.0863828 0)
(0.62846 -0.0689562 3.58985e-20)
(0.536592 -0.0618425 -7.20924e-20)
(0.443416 -0.0648254 -3.73396e-20)
(0.350046 -0.0760873 7.49977e-20)
(0.257202 -0.0906087 3.76914e-20)
(0.850769 -0.202558 3.70056e-21)
(0.795463 -0.161733 -3.70045e-21)
(0.728724 -0.126051 1.71372e-20)
(0.652817 -0.0974839 -1.7137e-20)
(0.570495 -0.0776088 -1.85644e-20)
(0.484737 -0.067401 -1.95066e-20)
(0.39839 -0.0670134 7.68568e-20)
(0.31378 -0.0755337 -3.87859e-20)
(0.232475 -0.0907522 -7.94476e-20)
(0.155999 -0.108605 3.96324e-20)
(0.691624 -0.165516 0)
(0.631553 -0.130531 8.66268e-21)
(0.562744 -0.102094 1.85137e-20)
(0.487783 -0.0817152 7.17018e-22)
(0.409514 -0.0703892 1.9888e-20)
(0.330795 -0.068457 6.03485e-20)
(0.25422 -0.0754729 -8.19106e-20)
(0.181882 -0.0900953 4.16744e-20)
(0.115318 -0.110029 4.19293e-20)
(0.0559584 -0.131969 5.88198e-22)
(0.499053 -0.122657 -4.43873e-21)
(0.43902 -0.096998 -1.40193e-20)
(0.373378 -0.0786738 1.99746e-20)
(0.30471 -0.0686316 -4.01224e-20)
(0.235636 -0.0672823 -6.20896e-20)
(0.168629 -0.0744332 2.16765e-20)
(0.105826 -0.0892372 8.66624e-20)
(0.0489063 -0.110172 0)
(-0.000897989 -0.135068 4.48799e-20)
(-0.0425611 -0.161233 -4.3659e-20)
(0.271026 -0.0774422 -2.38674e-21)
(0.217294 -0.064985 -4.86778e-22)
(0.161136 -0.0596956 1.09153e-20)
(0.104782 -0.0619526 4.4458e-20)
(0.0503462 -0.0716712 -4.5385e-20)
(-0.000296621 -0.0883001 1.81443e-22)
(-0.0456022 -0.110826 6.87335e-22)
(-0.0844004 -0.137788 4.9414e-22)
(-0.115859 -0.167328 3.00859e-22)
(-0.139368 -0.197316 -4.63607e-20)
(0.00450139 -0.0376015 -2.5074e-22)
(-0.0351121 -0.0424089 2.21643e-20)
(-0.0743235 -0.0528778 1.1653e-21)
(-0.111572 -0.0689332 -4.77171e-20)
(-0.145483 -0.0901827 0)
(-0.174919 -0.115959 -2.69724e-20)
(-0.198994 -0.145345 5.20341e-20)
(-0.21707 -0.177193 -2.51427e-20)
(-0.228713 -0.210143 1.06518e-19)
(-0.233631 -0.242703 -1.05382e-19)
(-0.307522 -0.02219 -3.16052e-21)
(-0.322663 -0.0483523 5.77324e-21)
(-0.335312 -0.0767748 2.58174e-20)
(-0.344881 -0.107189 -5.25216e-20)
(-0.350916 -0.139203 -3.75475e-22)
(-0.353096 -0.172349 5.55482e-20)
(-0.351219 -0.206098 -5.55488e-20)
(-0.34517 -0.239869 5.76294e-20)
(-0.334896 -0.273026 -1.40424e-19)
(-0.320363 -0.304904 5.60809e-20)
(-0.301433 -0.334771 5.48392e-20)
(-0.231692 -0.273395 -1.04889e-19)
(-0.154494 -0.225749 -4.64668e-20)
(-0.0749719 -0.186109 1.25634e-21)
(0.00603246 -0.152474 6.01477e-22)
(0.0881803 -0.123901 3.93134e-20)
(0.170592 -0.0995133 3.62099e-20)
(0.252336 -0.0788651 -1.37473e-19)
(0.333532 -0.0624849 6.46954e-20)
(0.412269 -0.0475083 0)
(-0.278705 -0.361592 -8.15676e-20)
(-0.223289 -0.300891 1.05448e-19)
(-0.161217 -0.251263 2.46298e-22)
(-0.0972884 -0.208581 0)
(-0.0319993 -0.171227 4.16145e-20)
(0.0346288 -0.138196 -7.89582e-20)
(0.102141 -0.108486 7.3428e-20)
(0.170229 -0.0815078 -1.01068e-19)
(0.239478 -0.0579282 6.42497e-20)
(0.307196 -0.0375796 0)
(-0.252549 -0.385108 2.81228e-20)
(-0.209064 -0.324416 -2.53916e-20)
(-0.160211 -0.272999 3.38375e-22)
(-0.110146 -0.228047 0)
(-0.0588286 -0.188272 4.17706e-20)
(-0.00591779 -0.152714 -3.88048e-20)
(0.0485163 -0.120519 -3.65664e-20)
(0.104456 -0.0913685 1.06846e-21)
(0.16218 -0.0660818 -2.96718e-20)
(0.21861 -0.0451818 1.302e-19)
(-0.223443 -0.40503 -5.19736e-20)
(-0.189869 -0.343393 5.12773e-20)
(-0.152576 -0.290347 3.60628e-22)
(-0.114806 -0.243939 8.80363e-20)
(-0.0759247 -0.203071 -8.31762e-20)
(-0.0353242 -0.166781 7.7324e-20)
(0.00714297 -0.134294 -7.16065e-20)
(0.0515384 -0.1054 -3.24867e-20)
(0.0978839 -0.0807825 9.50414e-20)
(0.143462 -0.0608756 3.19211e-20)
(-0.191862 -0.421142 5.19731e-20)
(-0.166647 -0.357486 -2.61825e-20)
(-0.139584 -0.30296 3.35353e-22)
(-0.112617 -0.255837 2.24542e-20)
(-0.0846623 -0.215007 6.17598e-20)
(-0.0549473 -0.179363 -1.93881e-20)
(-0.0231977 -0.148029 3.59684e-20)
(0.0106653 -0.120656 -3.35297e-20)
(0.0465393 -0.0975745 0)
(0.0822514 -0.0789619 -9.56491e-20)
(-0.158332 -0.433223 5.04676e-20)
(-0.140516 -0.366735 0)
(-0.12249 -0.310785 -4.6804e-20)
(-0.104802 -0.263616 -6.5e-20)
(-0.0862378 -0.22375 2.09428e-20)
(-0.0658857 -0.189788 -1.91314e-20)
(-0.0434084 -0.160603 0)
(-0.0187456 -0.135559 0)
(0.0079339 -0.11457 0)
(0.0349492 -0.0975347 0)
(-0.123614 -0.441236 -3.7647e-20)
(-0.112529 -0.371368 -5.00849e-20)
(-0.10228 -0.314126 4.69955e-20)
(-0.0924175 -0.267483 -4.38425e-20)
(-0.0816091 -0.229342 2.42262e-22)
(-0.068914 -0.197842 -1.90283e-20)
(-0.0540068 -0.171502 0)
(-0.0368799 -0.149338 -1.64101e-20)
(-0.0177558 -0.130868 1.48642e-20)
(0.00205961 -0.115735 -4.7143e-20)
(-0.0883015 -0.44545 2.49956e-20)
(-0.0834978 -0.371785 6.76834e-23)
(-0.0798466 -0.31359 1.19446e-20)
(-0.0762822 -0.268021 2.1948e-20)
(-0.0714544 -0.232223 2.04508e-20)
(-0.0645049 -0.20377 1.90286e-20)
(-0.055199 -0.180758 0)
(-0.0436207 -0.161838 1.64104e-20)
(-0.0300619 -0.146169 1.52129e-20)
(-0.0156027 -0.133163 1.55294e-20)
(-0.052846 -0.44622 6.3522e-21)
(-0.0540688 -0.36872 2.53024e-20)
(-0.0558605 -0.310034 -3.10253e-22)
(-0.0569798 -0.266086 -1.66143e-20)
(-0.0562275 -0.233153 1.04898e-20)
(-0.0529409 -0.208191 -4.83433e-21)
(-0.0470519 -0.188846 -1.74638e-20)
(-0.0387773 -0.173409 1.67362e-20)
(-0.0284981 -0.160718 0)
(-0.0171907 -0.149977 1.51506e-20)
(-0.0175726 -0.443969 -3.1964e-21)
(-0.0246705 -0.363058 -9.71024e-23)
(-0.0307469 -0.304483 -3.08042e-21)
(-0.0348763 -0.262712 -5.61095e-21)
(-0.0362153 -0.233096 0)
(-0.034416 -0.211959 4.83435e-21)
(-0.0296541 -0.196511 0)
(-0.0223201 -0.184704 -4.06802e-21)
(-0.0129102 -0.175082 3.90208e-21)
(-0.00245626 -0.166644 -3.79812e-21)
(0.0612347 -0.163937 -1.46765e-21)
(0.156177 -0.149839 5.66003e-22)
(0.333889 -0.102034 0)
(0.505516 -0.0520227 2.19716e-23)
(0.662001 -0.0160995 -1.66523e-23)
(0.780221 0.00334625 4.32422e-23)
(0.862374 0.0109806 -4.03298e-23)
(0.915523 0.0123426 0)
(0.948634 0.0111527 0)
(0.968954 0.00926273 0)
(0.981402 0.00739594 0)
(0.989029 0.00576433 -2.33916e-24)
(0.993675 0.0044036 2.1837e-24)
(0.996461 0.00329545 3.42139e-25)
(0.998092 0.00240862 -3.1957e-25)
(0.999018 0.00171557 4.2764e-25)
(0.99952 0.00118447 0)
(0.999788 0.00078116 1.2161e-26)
(0.99993 0.000494129 -1.13751e-26)
(1.00001 0.00019817 0)
(0.11466 -0.185798 3.55002e-21)
(0.20095 -0.18975 0)
(0.365291 -0.146377 0)
(0.523403 -0.0915104 -7.78453e-23)
(0.67045 -0.0461817 2.30061e-22)
(0.783527 -0.0170582 -1.62677e-22)
(0.863308 -0.00176038 -8.73288e-23)
(0.915551 0.00481195 6.75294e-23)
(0.948394 0.0068388 -2.82819e-23)
(0.968681 0.00681668 3.04536e-23)
(0.981167 0.00601059 -1.29475e-23)
(0.988842 0.0049817 0)
(0.993532 0.00396574 2.25968e-24)
(0.996353 0.00305506 -9.43922e-25)
(0.998013 0.00228001 -1.08821e-24)
(0.998961 0.00164919 -4.28191e-25)
(0.99948 0.00115135 -7.07499e-26)
(0.99976 0.000764804 -2.16998e-25)
(0.99991 0.000485979 0)
(0.999995 0.00019538 0)
(0.185725 -0.20782 0)
(0.26323 -0.226441 -2.48693e-21)
(0.41137 -0.187287 3.33828e-21)
(0.551814 -0.128464 -7.83206e-22)
(0.685349 -0.0748085 0)
(0.790384 -0.0367692 0)
(0.866017 -0.0142129 -8.60192e-23)
(0.916412 -0.00261362 1.54568e-22)
(0.948535 0.00255468 9.8874e-24)
(0.968585 0.00438243 1.00713e-23)
(0.981017 0.00463025 0)
(0.988699 0.00420174 0)
(0.993412 0.00352947 0)
(0.996258 0.0028155 1.91908e-24)
(0.997941 0.00215169 2.65988e-25)
(0.998908 0.00158274 0)
(0.999441 0.001118 0)
(0.999733 0.000748171 2.83417e-25)
(0.99989 0.00047756 4.64731e-26)
(0.99998 0.00019247 -3.79185e-27)
(0.271454 -0.229986 9.41805e-22)
(0.339727 -0.259216 2.2407e-21)
(0.46916 -0.223837 -2.7174e-21)
(0.588842 -0.162081 2.52019e-23)
(0.705697 -0.101439 0)
(0.800337 -0.0554837 0)
(0.870327 -0.0262304 1.53464e-22)
(0.918049 -0.00986479 -2.03995e-22)
(0.949044 -0.00167516 2.33334e-23)
(0.968666 0.00196585 1.57162e-23)
(0.980954 0.00325774 2.63218e-23)
(0.988602 0.00342564 -1.77425e-23)
(0.993317 0.00309535 -3.01669e-24)
(0.996177 0.00257713 -4.57906e-24)
(0.997875 0.00202389 -6.6939e-25)
(0.998858 0.00151637 0)
(0.999404 0.00108451 0)
(0.999706 0.00073132 0)
(0.99987 0.000468919 -4.24155e-26)
(0.999966 0.000189448 0)
(0.368695 -0.251985 -9.59475e-22)
(0.426805 -0.287497 -3.04394e-21)
(0.535235 -0.255361 2.7998e-21)
(0.632177 -0.191814 -1.42259e-23)
(0.730231 -0.125699 1.04626e-22)
(0.812794 -0.0729839 0)
(0.876002 -0.0377085 5.42143e-23)
(0.920383 -0.0169007 -7.57236e-23)
(0.949898 -0.00581655 -4.25213e-24)
(0.96892 -0.000430533 0)
(0.980982 0.00189566 0)
(0.988552 0.00265479 -7.12139e-24)
(0.993247 0.00266419 6.47157e-24)
(0.996109 0.00234042 -1.06863e-24)
(0.997817 0.0018969 6.60555e-25)
(0.998811 0.00145025 3.52106e-25)
(0.999369 0.00105094 1.64468e-25)
(0.999681 0.0007143 -3.71071e-25)
(0.999851 0.000460095 2.30017e-25)
(0.999951 0.000186319 0)
(0.474389 -0.273111 -1.89163e-20)
(0.520802 -0.310712 7.28127e-21)
(0.606078 -0.28135 -3.45839e-21)
(0.679363 -0.217295 -2.75556e-21)
(0.75758 -0.147339 2.91969e-22)
(0.827095 -0.0891213 -2.50681e-22)
(0.88277 -0.0485701 -7.92887e-24)
(0.923321 -0.0236905 1.45746e-22)
(0.951072 -0.00985828 2.6149e-23)
(0.969343 -0.00278958 -6.86043e-23)
(0.981101 0.000546061 8.32426e-24)
(0.988551 0.0018906 -1.22803e-23)
(0.993204 0.00223682 -2.50714e-24)
(0.996055 0.00210589 -3.75346e-24)
(0.997767 0.00177103 0)
(0.998769 0.00138455 0)
(0.999336 0.00101742 -2.03499e-25)
(0.999656 0.000697176 3.72009e-25)