/*--------------------------------*- C++ -*----------------------------------*\
  =========                 |
  \\      /  F ield         | OpenFOAM: The Open Source CFD Toolbox
   \\    /   O peration     | Website:  https://openfoam.org
    \\  /    A nd           | Version:  6.0
     \\/     M anipulation  |
\*---------------------------------------------------------------------------*/
FoamFile
{
    version     2.0;
    format      ascii;
    class       volScalarField;
    location    "1.26";
    object      p;
}
// * * * * * * * * * * * * * * * * * * * * * * * * * * * * * * * * * * * * * //

dimensions      [0 2 -2 0 0 0 0];

internalField   nonuniform List<scalar> 
2400
(
-0.403649
-0.386252
-0.369913
-0.352358
-0.332855
-0.311949
-0.290241
-0.268313
-0.246815
-0.226409
-0.421961
-0.40295
-0.38531
-0.366465
-0.345614
-0.323342
-0.300269
-0.276953
-0.254053
-0.232802
-0.447292
-0.425783
-0.406327
-0.385906
-0.363529
-0.33978
-0.315261
-0.290457
-0.266024
-0.243993
-0.479334
-0.454533
-0.432759
-0.41045
-0.386338
-0.360965
-0.334881
-0.30846
-0.282324
-0.259511
-0.51766
-0.488834
-0.464247
-0.439719
-0.413622
-0.386429
-0.35861
-0.330382
-0.302299
-0.278582
-0.561699
-0.528195
-0.500322
-0.473225
-0.444857
-0.415593
-0.385802
-0.355503
-0.325111
-0.30017
-0.610773
-0.572023
-0.540422
-0.510401
-0.479441
-0.447804
-0.415748
-0.38306
-0.349874
-0.323078
-0.664115
-0.619638
-0.583915
-0.550616
-0.5167
-0.482304
-0.447567
-0.411985
-0.375159
-0.345392
-0.72085
-0.670273
-0.630115
-0.593238
-0.556033
-0.518471
-0.480452
-0.440891
-0.398426
-0.363319
-0.77974
-0.722962
-0.678235
-0.637661
-0.597153
-0.556622
-0.515739
-0.472812
-0.425519
-0.38349
-1.15246
-1.1584
-1.15007
-1.1292
-1.09746
-1.05667
-1.00863
-0.955163
-0.897977
-0.83882
-1.05874
-1.06495
-1.05797
-1.03932
-1.01063
-0.973606
-0.929994
-0.881501
-0.829783
-0.776432
-0.971751
-0.980782
-0.977279
-0.962575
-0.938164
-0.905648
-0.866664
-0.822865
-0.775878
-0.727204
-0.885572
-0.898443
-0.899428
-0.889618
-0.870308
-0.842917
-0.80893
-0.769903
-0.727389
-0.682864
-0.799626
-0.816113
-0.821531
-0.816718
-0.802726
-0.78073
-0.751994
-0.717881
-0.679813
-0.63918
-0.717664
-0.736972
-0.746161
-0.74585
-0.736851
-0.72008
-0.69653
-0.667285
-0.633492
-0.596381
-0.642045
-0.663199
-0.675229
-0.678594
-0.673917
-0.661889
-0.643217
-0.618625
-0.588814
-0.55474
-0.573651
-0.59582
-0.609811
-0.615995
-0.614884
-0.607016
-0.592878
-0.572774
-0.546627
-0.514602
-0.512406
-0.535039
-0.550379
-0.558772
-0.560705
-0.55669
-0.547154
-0.532096
-0.510282
-0.479078
-0.458302
-0.480107
-0.495543
-0.504971
-0.508915
-0.507999
-0.502868
-0.493856
-0.479658
-0.455264
-0.271916
-0.410821
-0.543613
-0.668001
-0.781562
-0.882208
-0.968304
-1.03869
-1.09272
-1.13036
-0.234049
-0.363542
-0.487628
-0.603961
-0.710257
-0.804556
-0.885315
-0.951451
-1.00235
-1.03793
-0.178505
-0.299553
-0.416306
-0.526435
-0.627742
-0.718324
-0.79665
-0.861601
-0.912493
-0.949095
-0.120719
-0.233009
-0.342183
-0.445991
-0.542326
-0.629366
-0.705606
-0.769902
-0.82149
-0.860001
-0.0690388
-0.172265
-0.273444
-0.37037
-0.461048
-0.543779
-0.617143
-0.680021
-0.731627
-0.771506
-0.0259964
-0.120545
-0.213931
-0.303897
-0.38858
-0.466455
-0.536223
-0.596839
-0.647548
-0.68787
0.00877598
-0.0778878
-0.164152
-0.247491
-0.326235
-0.399075
-0.464845
-0.522601
-0.571649
-0.611526
0.0371282
-0.0420867
-0.122072
-0.199441
-0.272699
-0.34075
-0.402555
-0.457267
-0.504265
-0.543126
0.0604395
-0.0114862
-0.0860074
-0.158156
-0.226537
-0.290222
-0.348279
-0.399976
-0.444779
-0.482317
0.0718861
0.00438782
-0.0653799
-0.131846
-0.194582
-0.252984
-0.306216
-0.353699
-0.395039
-0.429955
0.551713
0.575207
0.600811
0.627598
0.655219
0.683154
0.710511
0.736633
0.76664
0.813216
0.533164
0.554734
0.578663
0.603506
0.62874
0.65376
0.677533
0.699293
0.724283
0.76625
0.506927
0.525547
0.546939
0.568864
0.590569
0.611381
0.630183
0.646207
0.664925
0.70107
0.473243
0.487982
0.50604
0.524132
0.541229
0.556624
0.569162
0.578182
0.589472
0.618649
0.432445
0.442505
0.456537
0.469961
0.481473
0.49036
0.495481
0.496388
0.499267
0.520479
0.384938
0.389706
0.399156
0.407196
0.412274
0.41372
0.410458
0.40235
0.396039
0.408464
0.331212
0.330296
0.334789
0.33687
0.334823
0.328083
0.31569
0.29791
0.281867
0.284865
0.271947
0.26521
0.264565
0.260242
0.250535
0.235065
0.213034
0.185188
0.159125
0.152265
0.207825
0.195806
0.190049
0.178888
0.161084
0.136521
0.104579
0.0665427
0.030437
0.0134991
0.137528
0.122768
0.112137
0.0939511
0.0680431
0.0343692
-0.00746203
-0.055525
-0.101477
-0.128634
0.324426
0.322252
0.326311
0.326988
0.325032
0.322591
0.322143
0.327783
0.344785
0.370748
0.379536
0.3794
0.386205
0.391455
0.394835
0.398009
0.40303
0.413449
0.434979
0.467429
0.426158
0.430411
0.440805
0.450789
0.459612
0.468447
0.478947
0.494131
0.519936
0.558207
0.466501
0.475514
0.489668
0.504096
0.518014
0.532221
0.547945
0.567651
0.597311
0.640582
0.500457
0.51392
0.531645
0.550114
0.568642
0.587728
0.608196
0.631921
0.664818
0.712161
0.527622
0.544989
0.565861
0.587811
0.610292
0.633553
0.658044
0.685065
0.720376
0.77074
0.547669
0.568203
0.591624
0.616341
0.641947
0.668487
0.696058
0.725428
0.762166
0.814388
0.5603
0.583117
0.60836
0.635014
0.662783
0.691535
0.72106
0.751643
0.788665
0.841509
0.565273
0.589381
0.615628
0.643305
0.672171
0.701945
0.732144
0.762652
0.798706
0.850889
0.562429
0.586772
0.613147
0.640877
0.669703
0.699218
0.72871
0.757748
0.791491
0.841667
0.274638
0.221141
0.162408
0.104508
0.0478784
-0.00688201
-0.0589383
-0.107758
-0.152988
-0.194358
0.273406
0.216835
0.155398
0.0934975
0.0327672
-0.0258273
-0.0814212
-0.133347
-0.181109
-0.224339
0.267796
0.205076
0.139402
0.0736846
0.00950986
-0.0520708
-0.110116
-0.16386
-0.212729
-0.256307
0.260897
0.192289
0.122066
0.0523118
-0.0154076
-0.0798943
-0.140125
-0.195268
-0.24471
-0.288034
0.252729
0.178589
0.103712
0.0299059
-0.0411978
-0.108282
-0.17025
-0.226238
-0.275634
-0.318068
0.244335
0.164782
0.0853294
0.00774377
-0.0663093
-0.135446
-0.198542
-0.254752
-0.303518
-0.34458
0.238346
0.153804
0.0701786
-0.0107215
-0.0872217
-0.157924
-0.221732
-0.277868
-0.325882
-0.36566
0.239192
0.15035
0.0630792
-0.0207769
-0.0995344
-0.171818
-0.236589
-0.293158
-0.341181
-0.380682
0.251505
0.158138
0.0666168
-0.021155
-0.103474
-0.17896
-0.246585
-0.305684
-0.355946
-0.397439
0.270706
0.170136
0.071358
-0.0236128
-0.112989
-0.195272
-0.269311
-0.334326
-0.389935
-0.436128
-0.231717
-0.264998
-0.294282
-0.319783
-0.34175
-0.360448
-0.376205
-0.388844
-0.397314
-0.393975
-0.262836
-0.296468
-0.325276
-0.349427
-0.369089
-0.384337
-0.395262
-0.401399
-0.401399
-0.390321
-0.294397
-0.326846
-0.353733
-0.375267
-0.391663
-0.40306
-0.409636
-0.411383
-0.407968
-0.397645
-0.325099
-0.355782
-0.38028
-0.398925
-0.412079
-0.420069
-0.42329
-0.422164
-0.416947
-0.406904
-0.353517
-0.381939
-0.40371
-0.419343
-0.429395
-0.434387
-0.434963
-0.431794
-0.425347
-0.415316
-0.378087
-0.404107
-0.423232
-0.43616
-0.443631
-0.446351
-0.445068
-0.440584
-0.433436
-0.423571
-0.397547
-0.421709
-0.438935
-0.45007
-0.455962
-0.457413
-0.455208
-0.450133
-0.442709
-0.433041
-0.412163
-0.435828
-0.452589
-0.463349
-0.468986
-0.470319
-0.46809
-0.462981
-0.455516
-0.44589
-0.430681
-0.455901
-0.47401
-0.485897
-0.492439
-0.494405
-0.492511
-0.487375
-0.479455
-0.469064
-0.473149
-0.501531
-0.522006
-0.535474
-0.542844
-0.544942
-0.542453
-0.535992
-0.526068
-0.512973
-0.496691
-0.456495
-0.434354
-0.421186
-0.410645
-0.400448
-0.388596
-0.372076
-0.347207
-0.321716
-0.478899
-0.442332
-0.421296
-0.407851
-0.396425
-0.385045
-0.372112
-0.355457
-0.33304
-0.313179
-0.460156
-0.427337
-0.407498
-0.393856
-0.381694
-0.369478
-0.356085
-0.340205
-0.321217
-0.305599
-0.441433
-0.412333
-0.393711
-0.379881
-0.366962
-0.353832
-0.339734
-0.323883
-0.306319
-0.291904
-0.42387
-0.398263
-0.380787
-0.366756
-0.353066
-0.338978
-0.324064
-0.307947
-0.29097
-0.276481
-0.408631
-0.38612
-0.369639
-0.355361
-0.340882
-0.325798
-0.309971
-0.293345
-0.2764
-0.261214
-0.39687
-0.376905
-0.361182
-0.34657
-0.331254
-0.315122
-0.298273
-0.280895
-0.263537
-0.247341
-0.389685
-0.371569
-0.356288
-0.341212
-0.324991
-0.307753
-0.289789
-0.271465
-0.253368
-0.236052
-0.388047
-0.37095
-0.355727
-0.340023
-0.322813
-0.304414
-0.285259
-0.26584
-0.246771
-0.228343
-0.392639
-0.375698
-0.360116
-0.343596
-0.325301
-0.305681
-0.285278
-0.264651
-0.244436
-0.22497
-0.164201
-0.0415898
0.00102934
0.020488
0.0198933
0.0152928
0.0105695
0.00689228
0.00434856
0.00266312
0.00159113
0.000930602
0.000510214
0.000260313
0.000130264
7.52234e-05
5.50531e-05
3.91073e-05
2.23619e-05
9.90548e-06
-0.172043
-0.0440188
-0.00105938
0.0188991
0.018787
0.0144912
0.0099747
0.00643788
0.00399526
0.00238757
0.00137697
0.000766176
0.00038652
0.000169287
6.46396e-05
2.88609e-05
2.36455e-05
1.90762e-05
1.14303e-05
6.73147e-06
-0.186361
-0.0501254
-0.00525889
0.0161278
0.017109
0.0134162
0.0092517
0.00592375
0.00361307
0.00209806
0.00115538
0.000597061
0.000260493
7.75753e-05
-1.23653e-06
-1.81137e-05
-8.59599e-06
-1.64616e-06
9.19071e-08
3.40857e-06
-0.206375
-0.0598884
-0.0115008
0.0121786
0.0148494
0.0120622
0.00839706
0.00534802
0.00320112
0.00179411
0.000926411
0.000423608
0.000132214
-1.50063e-05
-6.75095e-05
-6.55611e-05
-4.14045e-05
-2.28641e-05
-1.15524e-05
-3.76656e-08
-0.230888
-0.0731449
-0.0196416
0.00709297
0.0120088
0.0104261
0.007408
0.00470866
0.0027586
0.0014753
0.000690045
0.0002462
1.81213e-06
-0.00010865
-0.000134305
-0.000113378
-7.45438e-05
-4.43497e-05
-2.33686e-05
-3.56417e-06
-0.258262
-0.0895177
-0.0294342
0.000982898
0.00862182
0.00852024
0.00628912
0.00400744
0.00228677
0.00114229
0.00044678
6.54214e-05
-0.000130505
-0.000203451
-0.000201663
-0.000161432
-0.000107793
-6.59016e-05
-3.52413e-05
-7.13439e-06
-0.286865
-0.108983
-0.0409473
-0.00617807
0.00466504
0.00633509
0.00503856
0.00324549
0.0017874
0.000796447
0.000197466
-0.000118236
-0.000264405
-0.000299189
-0.000269472
-0.000209683
-0.000141137
-8.75103e-05
-4.71661e-05
-1.07482e-05
-0.316063
-0.133016
-0.0553819
-0.0150684
-0.000235687
0.00368159
0.00356794
0.00238384
0.00124382
0.00043069
-6.10798e-05
-0.000306231
-0.000400495
-0.000396102
-0.000337863
-0.000258233
-0.00017465
-0.000109214
-5.91619e-05
-1.44114e-05
-0.342875
-0.161185
-0.0729562
-0.0260572
-0.00644356
0.000297753
0.00171723
0.00133288
0.000607969
1.96398e-05
-0.000342186
-0.000505482
-0.000542261
-0.000495916
-0.000407687
-0.000307487
-0.000208503
-0.00013108
-7.12503e-05
-1.81307e-05
-0.349742
-0.179132
-0.0850415
-0.0345057
-0.0117056
-0.00279881
-8.43636e-05
0.000261274
-5.84495e-05
-0.000415797
-0.000639246
-0.000714038
-0.000689126
-0.000598469
-0.000478843
-0.00035716
-0.000242331
-0.00015283
-8.32509e-05
-2.18545e-05
-0.325769
-0.178447
-0.0845232
-0.0347326
-0.0120786
-0.00319475
-0.000519499
-0.000186746
-0.000478109
-0.000780539
-0.000940327
-0.000953729
-0.000872455
-0.000733869
-0.00057603
-0.000425696
-0.000288961
-0.000182764
-9.96773e-05
-2.69508e-05
-0.293411
-0.175925
-0.0894796
-0.0422479
-0.0189198
-0.0081084
-0.003735
-0.00225523
-0.00182488
-0.00167665
-0.00154967
-0.00137505
-0.00116482
-0.00093643
-0.000715013
-0.000520225
-0.000351377
-0.000221749
-0.000120796
-3.33946e-05
-0.254087
-0.166057
-0.0914695
-0.0484204
-0.0256022
-0.0134356
-0.00744271
-0.00472807
-0.00346434
-0.00277063
-0.00228772
-0.00187856
-0.00150937
-0.00117229
-0.000875225
-0.000628005
-0.000422024
-0.000265464
-0.000144395
-4.05917e-05
-0.210367
-0.149798
-0.0899933
-0.0522701
-0.0308911
-0.0182495
-0.0110916
-0.00730438
-0.00524514
-0.00399296
-0.00312565
-0.00245438
-0.0019042
-0.00144232
-0.0010583
-0.000750458
-0.000502108
-0.000314728
-0.000170905
-4.86937e-05
-0.166738
-0.129059
-0.0852044
-0.0539854
-0.0347888
-0.0224568
-0.0146343
-0.00996747
-0.0071615
-0.00534388
-0.00406588
-0.00310453
-0.00235055
-0.00174696
-0.00126425
-0.000887393
-0.000591406
-0.000369357
-0.000200157
-5.76366e-05
-0.127305
-0.106466
-0.0773561
-0.0534289
-0.0370897
-0.0257496
-0.017833
-0.0125816
-0.0091391
-0.00678353
-0.0050876
-0.00381756
-0.00284156
-0.00208165
-0.00148989
-0.00103665
-0.000688386
-0.000428414
-0.000231592
-6.72282e-05
-0.0944027
-0.0846114
-0.0673775
-0.0507025
-0.0377267
-0.0278903
-0.020407
-0.014939
-0.0110439
-0.008228
-0.00613964
-0.00456234
-0.00335784
-0.00243395
-0.00172705
-0.00119299
-0.000789564
-0.00048985
-0.000264099
-7.71049e-05
-0.0687627
-0.0656061
-0.0568558
-0.0464676
-0.0369575
-0.0288908
-0.0221958
-0.0168473
-0.0127185
-0.00956098
-0.00714062
-0.0052841
-0.00386301
-0.00277989
-0.00195992
-0.00134624
-0.000888385
-0.000549756
-0.000295633
-8.66287e-05
-0.0506537
-0.0511287
-0.0477191
-0.0419565
-0.0354154
-0.029029
-0.0232119
-0.0181761
-0.0140006
-0.0106369
-0.007975
-0.00589778
-0.00429745
-0.00307897
-0.00216155
-0.00147895
-0.000973759
-0.000601458
-0.000322731
-9.47554e-05
-0.0406619
-0.0427623
-0.0420123
-0.0388084
-0.0340946
-0.0288241
-0.0236345
-0.0188764
-0.0147374
-0.0112842
-0.00849066
-0.00628338
-0.00457315
-0.00326984
-0.00229058
-0.00156403
-0.00102847
-0.000634582
-0.000340021
-9.98904e-05
-0.382627
-0.398675
-0.409463
-0.415282
-0.416647
-0.414368
-0.409711
-0.404671
-0.402642
-0.414138
-0.297546
-0.311304
-0.321874
-0.329593
-0.334938
-0.338514
-0.341012
-0.343097
-0.344815
-0.350899
-0.228696
-0.240165
-0.249779
-0.257686
-0.264016
-0.268859
-0.272259
-0.2743
-0.275003
-0.278343
-0.171353
-0.180572
-0.188507
-0.195203
-0.200709
-0.205099
-0.208487
-0.211058
-0.212933
-0.215847
-0.124751
-0.132217
-0.138829
-0.144618
-0.149623
-0.153889
-0.157459
-0.160365
-0.162607
-0.164848
-0.0877658
-0.0938839
-0.0994122
-0.104362
-0.108746
-0.11258
-0.115879
-0.118663
-0.120955
-0.12303
-0.05912
-0.0641779
-0.0688099
-0.0730174
-0.0768062
-0.0801849
-0.0831654
-0.0857588
-0.087981
-0.0899389
-0.0378709
-0.0421359
-0.0460774
-0.0496917
-0.0529792
-0.0559435
-0.0585912
-0.0609287
-0.0629679
-0.0647532
-0.02331
-0.0270162
-0.0304603
-0.033637
-0.0365441
-0.0391827
-0.041556
-0.0436683
-0.0455275
-0.04715
-0.0155183
-0.0188892
-0.0220316
-0.0249407
-0.027614
-0.0300517
-0.0322549
-0.034227
-0.0359729
-0.0374969
0.0540904
-0.00803815
-0.0711172
-0.125913
-0.176173
-0.222796
-0.264979
-0.302233
-0.334355
-0.361189
0.0299838
-0.0176978
-0.0656704
-0.10614
-0.142479
-0.176498
-0.207679
-0.235458
-0.259693
-0.28038
0.013407
-0.0241958
-0.0591098
-0.0884445
-0.114642
-0.139077
-0.161572
-0.181769
-0.19962
-0.215225
0.00477022
-0.0238093
-0.0478443
-0.0681425
-0.0867731
-0.104344
-0.12066
-0.135514
-0.148878
-0.160806
0.0034545
-0.0172224
-0.0335413
-0.0475779
-0.0609536
-0.073805
-0.0858605
-0.0969795
-0.107152
-0.116403
0.00735641
-0.00717012
-0.0185374
-0.0286391
-0.0385278
-0.0481614
-0.0572922
-0.0658186
-0.0737353
-0.0810508
0.0135025
0.00326493
-0.00502644
-0.0126579
-0.0202199
-0.0276366
-0.0347334
-0.0414389
-0.0477422
-0.0536392
0.0198248
0.0123695
0.00596081
-0.000111856
-0.00613992
-0.012064
-0.0177772
-0.0232299
-0.0284051
-0.0332902
0.0250376
0.0192349
0.0139143
0.00877764
0.00370405
-0.00127256
-0.00609433
-0.010727
-0.0151511
-0.0193506
0.028143
0.0230736
0.0182211
0.0135145
0.00890748
0.00441308
6.15126e-05
-0.00412328
-0.00812399
-0.0119265
0.230898
0.232185
0.234873
0.238874
0.24425
0.249526
0.25466
0.250724
0.235851
0.15093
0.224216
0.225073
0.226814
0.229211
0.231964
0.233385
0.232339
0.220169
0.19185
0.109511
0.216139
0.216528
0.217212
0.217832
0.217797
0.215368
0.208756
0.19088
0.156596
0.0866734
0.206537
0.206406
0.205943
0.2047
0.201892
0.195928
0.184701
0.163482
0.127113
0.0674242
0.195436
0.194772
0.193175
0.19016
0.184876
0.176032
0.161589
0.138887
0.103251
0.0525885
0.183088
0.181931
0.179331
0.174812
0.167604
0.156763
0.140655
0.118022
0.0854992
0.0437749
0.170075
0.168519
0.165148
0.159544
0.151112
0.139246
0.122877
0.101575
0.0734932
0.0399995
0.157402
0.155582
0.151735
0.145527
0.13657
0.124542
0.108906
0.0896471
0.0660543
0.0393192
0.146587
0.144637
0.14059
0.134192
0.125228
0.11358
0.0990707
0.0818642
0.0618828
0.04003
0.139744
0.137757
0.133676
0.1273
0.118514
0.107304
0.093676
0.0778489
0.060008
0.0408669
0.257681
0.259924
0.265204
0.273692
0.286796
0.304495
0.330863
0.365624
0.418524
0.489331
0.255996
0.25819
0.263338
0.271604
0.28436
0.301503
0.327026
0.360335
0.410751
0.477266
0.254088
0.256229
0.261223
0.269226
0.281559
0.298003
0.322453
0.353763
0.400786
0.460877
0.251968
0.254051
0.258872
0.266574
0.278413
0.294019
0.317179
0.345956
0.38875
0.440256
0.249647
0.251669
0.256298
0.263665
0.274941
0.289585
0.311243
0.336971
0.374792
0.415483
0.247138
0.249096
0.25352
0.26052
0.271165
0.284734
0.304681
0.32688
0.359078
0.386615
0.244457
0.246353
0.250561
0.257172
0.267125
0.279529
0.297571
0.315823
0.341843
0.353745
0.24162
0.243464
0.247464
0.253679
0.262906
0.274102
0.290083
0.304074
0.323434
0.316939
0.23864
0.24044
0.244236
0.25005
0.258511
0.268454
0.282181
0.291604
0.303595
0.275082
0.23551
0.237198
0.240683
0.245944
0.253397
0.26177
0.272605
0.276893
0.279765
0.225935
0.261811
0.264177
0.269486
0.277915
0.29027
0.306002
0.327768
0.348989
0.377788
0.368667
0.262393
0.264804
0.270271
0.278967
0.291874
0.308491
0.332133
0.356911
0.392541
0.403274
0.262763
0.265165
0.270669
0.279446
0.29261
0.309706
0.334447
0.361917
0.402297
0.429687
0.262926
0.265321
0.270859
0.279711
0.293102
0.310648
0.336336
0.366269
0.41082
0.451717
0.262873
0.265264
0.270832
0.27975
0.293329
0.31128
0.337763
0.369868
0.418046
0.469862
0.262596
0.264978
0.270559
0.279509
0.293204
0.311455
0.338508
0.372353
0.423459
0.483861
0.262086
0.264454
0.270024
0.278966
0.292699
0.311123
0.338511
0.373603
0.426862
0.493628
0.261341
0.263688
0.269222
0.278115
0.291807
0.31027
0.337758
0.373579
0.428151
0.499117
0.260358
0.262677
0.268151
0.276953
0.290526
0.308884
0.336237
0.372252
0.427227
0.500261
0.259137
0.261421
0.26681
0.275477
0.288855
0.306959
0.333938
0.369602
0.424026
0.497005
0.209939
0.208485
0.20551
0.200818
0.194213
0.185539
0.174604
0.161374
0.145739
0.128084
0.214846
0.213534
0.21081
0.206437
0.200132
0.191635
0.180578
0.166829
0.149983
0.130489
0.222328
0.221292
0.219085
0.215415
0.209861
0.201987
0.191095
0.176822
0.158136
0.135505
0.230641
0.230013
0.228602
0.226081
0.221884
0.215357
0.205374
0.191118
0.170579
0.143917
0.238613
0.238492
0.238107
0.237135
0.234924
0.230593
0.22264
0.209455
0.187911
0.156826
0.245567
0.245995
0.246767
0.247608
0.24789
0.246538
0.241908
0.231174
0.210514
0.175352
0.251208
0.252172
0.254118
0.256862
0.259929
0.262129
0.262032
0.255211
0.238038
0.199752
0.25551
0.256951
0.25999
0.264559
0.270446
0.276485
0.281821
0.280411
0.269397
0.228299
0.258603
0.260436
0.26441
0.270584
0.279077
0.288902
0.300039
0.305608
0.303682
0.259562
0.260697
0.262837
0.267569
0.275052
0.28577
0.299001
0.315885
0.329707
0.341945
0.303377
0.115703
0.110625
0.105593
0.100615
0.0956529
0.0907108
0.0858159
0.0809936
0.0762645
0.0716462
0.116363
0.110605
0.10498
0.0994565
0.0939453
0.0884395
0.0829749
0.0775875
0.072304
0.0671469
0.118075
0.110808
0.103836
0.0971423
0.0905154
0.0839028
0.0773526
0.0709181
0.0646333
0.0585223
0.121618
0.111888
0.102644
0.0940387
0.0856491
0.0773133
0.0690847
0.0610438
0.0532359
0.0456847
0.128123
0.114761
0.101979
0.0904655
0.0794885
0.0686557
0.057999
0.0476425
0.0376529
0.0280515
0.139202
0.12088
0.102802
0.0869889
0.07234
0.0580152
0.0439657
0.0303871
0.0173843
0.00497047
0.156901
0.132473
0.106816
0.0848162
0.0650248
0.0458346
0.0270721
0.00906171
-0.00804752
-0.0242724
0.182249
0.15097
0.115387
0.0852774
0.0586025
0.0327474
0.00758655
-0.0163533
-0.0389182
-0.060184
0.215362
0.176147
0.129318
0.08996
0.054456
0.0197532
-0.0137791
-0.0454498
-0.0750962
-0.102725
0.255248
0.204601
0.146581
0.0960804
0.0486286
0.00268713
-0.0409082
-0.0816376
-0.119325
-0.153819
0.0671551
0.0628059
0.0586114
0.0545826
0.0507275
0.0470531
0.0435643
0.0402654
0.0371582
0.0342413
0.0621369
0.0572931
0.0526322
0.0481681
0.0439122
0.0398738
0.0360582
0.0324687
0.0291061
0.0259569
0.0526071
0.0469079
0.0414424
0.0362251
0.031267
0.0265755
0.0221553
0.0180102
0.0141415
0.0105111
0.0384104
0.0314316
0.0247654
0.0184251
0.0124197
0.00675414
0.00143013
-0.00354974
-0.00818363
-0.0125545
0.0188508
0.0100634
0.00170257
-0.00622142
-0.0137016
-0.0207337
-0.0273181
-0.0334605
-0.0391696
-0.0446774
-0.00685871
-0.0181039
-0.028764
-0.0388449
-0.048362
-0.057336
-0.0657877
-0.0737311
-0.081143
-0.0887088
-0.0396479
-0.0541916
-0.0679103
-0.0808148
-0.0929308
-0.104319
-0.115103
-0.125486
-0.135572
-0.147315
-0.0802381
-0.0991629
-0.117046
-0.133976
-0.150012
-0.165169
-0.179438
-0.192903
-0.20579
-0.222777
-0.12835
-0.152041
-0.173971
-0.194433
-0.213847
-0.232729
-0.251652
-0.271038
-0.291155
-0.315894
-0.184988
-0.212776
-0.237249
-0.258655
-0.277468
-0.294474
-0.31105
-0.329355
-0.354444
-0.394286
0.0275712
0.0193801
0.0136096
0.0102065
0.00850486
0.00770558
0.00724873
0.00683534
0.00631904
0.00565899
0.00489001
0.00407645
0.00327997
0.00254854
0.0019115
0.00137904
0.000948887
0.000608418
0.000335576
0.000100876
0.0184318
0.0109755
0.00713848
0.00586544
0.00583558
0.00616479
0.00643536
0.00644497
0.00612741
0.00553847
0.00478744
0.00397704
0.00318485
0.0024633
0.00184021
0.00132326
0.000908664
0.000582488
0.000321184
9.66444e-05
0.00136357
-0.0041118
-0.00377226
-0.00096377
0.0018846
0.00402687
0.00540761
0.00600552
0.00592402
0.00539743
0.00464841
0.00383043
0.00303945
0.00233116
0.00172935
0.00123679
0.000846476
0.000542167
0.000298514
9.0032e-05
-0.0239846
-0.0251004
-0.0175136
-0.00868955
-0.00216258
0.00210158
0.00466273
0.00577403
0.00582795
0.00529359
0.00450719
0.0036637
0.00286885
0.00217531
0.00159902
0.00113562
0.000773894
0.000495004
0.00027201
8.24528e-05
-0.0584628
-0.0511568
-0.032512
-0.0160157
-0.00543916
0.000936038
0.00447413
0.00584993
0.00586904
0.00523736
0.00437203
0.00348802
0.00268664
0.0020097
0.00146152
0.0010296
0.000698325
0.000446035
0.000244611
7.47075e-05
-0.102423
-0.0808397
-0.0473266
-0.0220543
-0.00740421
0.000795701
0.00489093
0.00620485
0.0060172
0.00521163
0.00423836
0.00330734
0.00250057
0.00184276
0.00132447
0.000925009
0.000624467
0.000398305
0.000218031
6.72154e-05
-0.153568
-0.1116
-0.0607567
-0.026302
-0.00782247
0.00166264
0.00578534
0.00673656
0.00621533
0.00519014
0.0040986
0.00312338
0.00231564
0.00168001
0.00119277
0.000825711
0.000554946
0.000353459
0.000193221
6.02015e-05
-0.205985
-0.139822
-0.071651
-0.0283765
-0.00662867
0.00339721
0.00702071
0.00737474
0.00643539
0.00516683
0.00395696
0.00294313
0.00213852
0.00152666
0.00107017
0.000734191
0.000491268
0.000312436
0.000170685
5.37755e-05
-0.254699
-0.162362
-0.0788166
-0.0277694
-0.00368664
0.00599866
0.0086087
0.00814237
0.00669862
0.00516027
0.00382842
0.00277725
0.00197632
0.00138711
0.000959255
0.000651897
0.000434219
0.000275713
0.000150605
4.79851e-05
-0.296235
-0.175454
-0.080823
-0.0247856
-1.27875e-05
0.00855549
0.00994222
0.00867289
0.00679651
0.00505622
0.0036507
0.00259144
0.00180993
0.00125062
0.00085406
0.000575579
0.00038215
0.000242601
0.000132664
4.27494e-05
-0.312294
-0.172457
-0.0794576
-0.0250392
-0.00113279
0.00726526
0.00881577
0.00779956
0.00614767
0.00457777
0.00329787
0.00233265
0.00162074
0.00111398
0.000757624
0.000510048
0.000339617
0.000216646
0.00011894
3.86417e-05
-0.309438
-0.157216
-0.068297
-0.0177577
0.00284212
0.0091648
0.00957447
0.00800196
0.00610948
0.00445328
0.00315771
0.00220596
0.00151595
0.00103184
0.00069653
0.000467455
0.000311661
0.000199272
0.000109552
3.57846e-05
-0.291302
-0.134754
-0.0528452
-0.00813629
0.00787806
0.0115059
0.0105081
0.00827232
0.00609946
0.00434286
0.00302652
0.0020856
0.00141556
0.000952425
0.000636974
0.000425775
0.000284278
0.000182152
0.000100234
3.29697e-05
-0.268145
-0.114357
-0.0398472
-0.000413823
0.011685
0.0131498
0.0110797
0.00836518
0.00600559
0.00419369
0.00287773
0.00195726
0.00131146
0.000871243
0.000576591
0.000383692
0.000256699
0.000164925
9.0858e-05
3.01582e-05
-0.243764
-0.0964415
-0.0290442
0.00574028
0.0145598
0.0143057
0.0114133
0.00834597
0.00585944
0.00401969
0.00271678
0.00182265
0.00120388
0.00078804
0.000515082
0.000340993
0.000228799
0.00014754
8.14049e-05
2.73378e-05
-0.219945
-0.0804318
-0.0196228
0.0109122
0.016865
0.0151704
0.0116064
0.00826053
0.00568198
0.00383034
0.00254803
0.00168391
0.00109386
0.0007033
0.000452687
0.000297815
0.000200654
0.000130025
7.18814e-05
2.45048e-05
-0.198492
-0.0666376
-0.0116657
0.015101
0.0186254
0.0157598
0.0116667
0.00811228
0.00547474
0.00362626
0.00237189
0.0015414
0.000981619
0.000617135
0.000389493
0.00025424
0.000172323
0.000112408
6.22949e-05
2.16562e-05
-0.181071
-0.0555443
-0.00546441
0.0181893
0.0198061
0.0160621
0.0115896
0.00789953
0.00523703
0.00340703
0.00218813
0.00139507
0.000867158
0.000529528
0.000325508
0.000210288
0.000143816
9.46908e-05
5.26435e-05
1.87878e-05
-0.168998
-0.0475076
-0.00121194
0.0201264
0.0204054
0.0160807
0.0113784
0.00762395
0.00496959
0.00317309
0.00199672
0.0012447
0.000750473
0.000440687
0.000260857
0.000165857
0.000114925
7.67081e-05
4.28462e-05
1.58885e-05
-0.163206
-0.042791
0.000974814
0.0208957
0.0204329
0.015823
0.0110376
0.00728774
0.00467331
0.00292501
0.0017977
0.00109
0.00063152
0.000350855
0.000195718
0.000120856
8.54114e-05
5.82616e-05
3.28002e-05
1.29393e-05
)
;

boundaryField
{
    inlet
    {
        type            freestreamPressure;
        freestreamValue uniform 0;
        supersonic      false;
        value           nonuniform List<scalar> 
40
(
0.230898
0.224216
0.216139
0.206537
0.195436
0.183088
0.170075
0.157402
0.146587
0.139744
0.257681
0.255996
0.254088
0.251968
0.249647
0.247138
0.244457
0.24162
0.23864
0.23551
0.261811
0.262393
0.262763
0.262926
0.262873
0.262596
0.262086
0.261341
0.260358
0.259137
0.209939
0.214846
0.222328
0.230641
0.238613
0.245567
0.251208
0.25551
0.258603
0.260697
)
;
    }
    outlet
    {
        type            freestreamPressure;
        freestreamValue uniform 0;
        supersonic      false;
        value           nonuniform List<scalar> 
40
(
-3.76499e-14
-4.16549e-14
-4.38097e-14
-4.3782e-14
-4.08434e-14
-3.46947e-14
-2.58176e-14
-1.56396e-14
-6.44145e-15
-7.79022e-16
2.12776e-14
1.39429e-14
6.79656e-15
-7.23428e-17
-6.58464e-15
-1.26576e-14
-1.82866e-14
-2.34821e-14
-2.82543e-14
-3.25382e-14
1.05215e-13
9.62343e-14
8.72693e-14
7.83524e-14
6.95423e-14
6.08973e-14
5.24685e-14
4.42949e-14
3.63882e-14
2.87265e-14
6.10017e-15
4.5259e-14
9.34624e-14
1.30333e-13
1.50667e-13
1.56927e-13
1.53317e-13
1.43742e-13
1.31307e-13
1.17713e-13
)
;
    }
    top
    {
        type            symmetryPlane;
    }
    bottom
    {
        type            symmetryPlane;
    }
    cylinder
    {
        type            zeroGradient;
    }
    frontandback
    {
        type            empty;
    }
}


// ************************************************************************* //
