/*--------------------------------*- C++ -*----------------------------------*\
| =========                 |                                                 |
| \\      /  F ield         | OpenFOAM: The Open Source CFD Toolbox           |
|  \\    /   O peration     | Version:  v1912                                 |
|   \\  /    A nd           | Website:  www.openfoam.com                      |
|    \\/     M anipulation  |                                                 |
\*---------------------------------------------------------------------------*/
FoamFile
{
    version     2.0;
    format      ascii;
    class       volVectorField;
    location    "17.5";
    object      U;
}
// * * * * * * * * * * * * * * * * * * * * * * * * * * * * * * * * * * * * * //

dimensions      [0 1 -1 0 0 0 0];


internalField   nonuniform List<vector> 
19200
(
(0.63636 -19.3979 -7.71996e-20)
(0.138623 -18.6103 0)
(0.327117 -17.9846 0)
(0.318247 -17.4822 0)
(0.351639 -17.0396 0)
(0.389982 -16.6263 0)
(0.424128 -16.226 -1.49187e-20)
(0.455435 -15.8308 1.46311e-20)
(0.483869 -15.4382 0)
(0.509207 -15.0482 0)
(0.531588 -14.6626 -2.12366e-20)
(0.551311 -14.2834 1.28642e-21)
(0.568709 -13.9125 1.9199e-20)
(0.584118 -13.5514 0)
(0.597849 -13.2013 1.53771e-20)
(0.610179 -12.863 -8.81163e-22)
(0.62134 -12.5368 -1.39761e-20)
(0.631528 -12.2229 0)
(0.640899 -11.921 0)
(0.649581 -11.631 0)
(0.657678 -11.3523 0)
(0.665276 -11.0847 0)
(0.672451 -10.8276 8.48191e-21)
(0.679277 -10.5803 -8.34647e-21)
(0.685823 -10.3422 0)
(0.692149 -10.1125 0)
(0.698289 -9.89012 -1.28713e-20)
(0.70438 -9.67391 1.2676e-20)
(0.710752 -9.4624 0)
(0.716422 -9.25392 0)
(1.14335 -19.3807 -1.00955e-19)
(0.627718 -18.6211 5.08869e-20)
(0.800003 -18.0005 0)
(0.778099 -17.5045 0)
(0.799805 -17.0647 0)
(0.827073 -16.652 0)
(0.850356 -16.251 -1.22226e-19)
(0.870869 -15.8544 5.88633e-20)
(0.888542 -15.4598 -1.80547e-21)
(0.903183 -15.0678 -3.13645e-21)
(0.91499 -14.6802 -8.83185e-20)
(0.924328 -14.2991 8.13065e-20)
(0.93159 -13.9265 -3.86409e-20)
(0.937154 -13.5639 0)
(0.941365 -13.2127 0)
(0.944516 -12.8733 0)
(0.946849 -12.5463 0)
(0.948555 -12.2317 0)
(0.949785 -11.9292 0)
(0.950655 -11.6387 0)
(0.951255 -11.3597 -2.0354e-20)
(0.951655 -11.0917 0)
(0.951917 -10.8343 -3.42185e-20)
(0.952095 -10.5869 3.36721e-20)
(0.952243 -10.3487 -2.97756e-20)
(0.952394 -10.119 2.93121e-20)
(0.952553 -9.89668 0)
(0.952861 -9.68061 2.43112e-20)
(0.953727 -9.46924 -2.39468e-20)
(0.953842 -9.26087 2.24242e-20)
(1.65109 -19.3514 -2.08113e-19)
(1.11717 -18.6193 -9.38445e-20)
(1.27374 -18.0039 5.92212e-21)
(1.23912 -17.5147 8.435e-20)
(1.24929 -17.0778 0)
(1.26553 -16.6659 -1.31721e-19)
(1.27794 -16.2644 7.064e-20)
(1.28759 -15.8665 1.18397e-19)
(1.2944 -15.4702 -5.29535e-20)
(1.29824 -15.0764 -9.3458e-20)
(1.29937 -14.6871 9.17087e-20)
(1.29822 -14.3045 0)
(1.29526 -13.9305 -7.30504e-20)
(1.2909 -13.5668 7.17287e-20)
(1.28553 -13.2146 -6.44177e-20)
(1.27945 -12.8745 0)
(1.27291 -12.5469 0)
(1.26609 -12.2318 0)
(1.25915 -11.929 0)
(1.25218 -11.6382 8.55131e-20)
(1.24526 -11.359 -6.37405e-20)
(1.23844 -11.091 7.40575e-20)
(1.23177 -10.8335 -7.28597e-20)
(1.22529 -10.586 -6.43663e-20)
(1.21902 -10.3479 1.23434e-19)
(1.21299 -10.1184 -1.15276e-19)
(1.20716 -9.89631 5.52664e-20)
(1.20168 -9.68054 0)
(1.19703 -9.46947 2.36752e-20)
(1.19154 -9.2614 0)
(2.15727 -19.3092 -4.07119e-19)
(1.60617 -18.6047 2.05492e-19)
(1.74775 -17.9948 -1.73011e-19)
(1.70091 -17.5126 1.15349e-20)
(1.69973 -17.0789 1.5493e-19)
(1.70501 -16.6679 0)
(1.70653 -16.2662 0)
(1.70525 -15.8672 0)
(1.70112 -15.4696 3.13469e-19)
(1.69405 -15.0743 -6.32682e-21)
(1.6844 -14.6835 -9.22463e-20)
(1.67269 -14.2996 -1.59392e-19)
(1.65943 -13.9245 1.56475e-19)
(1.64509 -13.56 1.35754e-19)
(1.63007 -13.2071 -6.89097e-20)
(1.61472 -12.8666 0)
(1.59926 -12.5386 0)
(1.5839 -12.2233 0)
(1.56876 -11.9204 0)
(1.55393 -11.6296 0)
(1.53947 -11.3504 8.01604e-20)
(1.52543 -11.0824 -7.88473e-20)
(1.51181 -10.825 0)
(1.49866 -10.5778 -6.49122e-20)
(1.48597 -10.3399 1.24496e-19)
(1.47375 -10.1106 -1.16298e-19)
(1.46194 -9.88901 5.57633e-20)
(1.45068 -9.67371 4.95629e-20)
(1.44052 -9.4631 -1.18921e-19)
(1.42939 -9.25551 -4.34917e-20)
(2.66248 -19.2543 2.08823e-19)
(2.09505 -18.5775 3.91757e-19)
(2.22196 -17.9733 3.61017e-19)
(2.1632 -17.4983 1.58879e-19)
(2.15084 -17.0678 2.91064e-19)
(2.1452 -16.658 3.27803e-22)
(2.13581 -16.2563 2.61461e-19)
(2.12354 -15.8565 3.51706e-19)
(2.10837 -15.4577 1.07076e-19)
(2.09031 -15.0612 1.95716e-19)
(2.0698 -14.6693 6.02433e-21)
(2.04744 -14.2844 1.70806e-19)
(2.02381 -13.9085 4.99885e-21)
(1.99943 -13.5434 4.23016e-19)
(1.97473 -13.1902 -3.90957e-19)
(1.95006 -12.8494 2.44821e-19)
(1.92567 -12.5214 0)
(1.90174 -12.2061 0)
(1.87839 -11.9034 9.6317e-20)
(1.85569 -11.6127 0)
(1.83368 -11.3338 8.32819e-20)
(1.8124 -11.066 7.52346e-20)
(1.79184 -10.809 -7.40178e-20)
(1.77201 -10.562 6.74412e-20)
(1.75291 -10.3246 0)
(1.73451 -10.0958 0)
(1.71671 -9.87474 5.50376e-20)
(1.6997 -9.66006 5.15118e-20)
(1.68404 -9.45008 4.54939e-20)
(1.66725 -9.24316 -9.71008e-20)
(3.1662 -19.1864 -2.10238e-19)
(2.58343 -18.5377 -3.91757e-19)
(2.69603 -17.9394 -5.35799e-19)
(2.62569 -17.4717 -1.48084e-19)
(2.60229 -17.0447 -2.80617e-19)
(2.58578 -16.6362 1.05407e-20)
(2.56544 -16.2346 -2.5295e-19)
(2.54212 -15.8343 -2.31993e-19)
(2.51584 -15.4347 -2.12974e-19)
(2.4867 -15.0372 -3.85876e-19)
(2.45525 -14.6444 1.25872e-20)
(2.42217 -14.2588 3.38575e-19)
(2.38811 -13.8825 -1.47905e-19)
(2.35365 -13.5171 1.46963e-19)
(2.31923 -13.1638 3.88876e-19)
(2.28522 -12.8231 -1.24099e-19)
(2.25187 -12.4953 0)
(2.21936 -12.1803 1.04434e-19)
(2.18779 -11.8779 1.88702e-19)
(2.15722 -11.5876 -2.69579e-19)
(2.12767 -11.3091 8.86668e-20)
(2.09914 -11.0418 2.29758e-19)
(2.07164 -10.7853 6.5065e-20)
(2.04514 -10.5388 -2.70562e-19)
(2.01964 -10.302 1.93368e-19)
(1.99507 -10.0738 0)
(1.97132 -9.85349 4.73378e-22)
(1.94857 -9.6396 1.01405e-19)
(1.92745 -9.43041 -2.51171e-21)
(1.905 -9.22435 9.34025e-20)
(3.66822 -19.1055 4.0123e-19)
(3.0711 -18.4853 -4.16782e-19)
(3.16971 -17.8931 0)
(3.08807 -17.4328 -3.329e-19)
(3.05378 -17.0093 -2.93804e-19)
(3.02641 -16.6024 -2.60001e-19)
(2.99511 -16.2012 2.63913e-19)
(2.96067 -15.8006 0)
(2.92321 -15.4003 -2.15278e-19)
(2.88292 -15.0022 0)
(2.84045 -14.6089 -3.63135e-19)
(2.79659 -14.2229 -3.34513e-19)
(2.75206 -13.8464 -1.53814e-19)
(2.70747 -13.4811 -1.4202e-19)
(2.66331 -13.1279 1.24506e-19)
(2.61994 -12.7875 -3.72781e-19)
(2.57763 -12.4602 0)
(2.53653 -12.1457 -1.04434e-19)
(2.49674 -11.8439 6.52693e-22)
(2.45829 -11.5543 -9.01505e-20)
(2.4212 -11.2764 0)
(2.38545 -11.0098 7.46247e-20)
(2.35101 -10.7539 -2.23135e-19)
(2.31786 -10.5082 5.25738e-22)
(2.28596 -10.272 6.07906e-20)
(2.25525 -10.0447 -6.1314e-21)
(2.22557 -9.82525 -6.11837e-20)
(2.19713 -9.61232 -2.60906e-19)
(2.17059 -9.40409 5.16333e-20)
(2.1425 -9.19909 0)
(4.16818 -19.0117 -9.19368e-22)
(3.55774 -18.4202 0)
(3.64268 -17.8342 -3.53035e-19)
(3.55002 -17.3815 1.01348e-18)
(3.50498 -16.9618 -1.07523e-20)
(3.46678 -16.5565 2.69705e-19)
(3.42448 -16.1559 5.0494e-19)
(3.37887 -15.7553 -1.56444e-20)
(3.33015 -15.3547 -7.97021e-21)
(3.27863 -14.9563 1.92247e-19)
(3.2251 -14.5627 -3.60556e-19)
(3.1704 -14.1766 5.15148e-19)
(3.11535 -13.8003 -3.01089e-19)
(3.06061 -13.4352 2.95641e-19)
(3.00668 -13.0825 -2.57343e-19)
(2.95396 -12.7428 1.44607e-20)
(2.90268 -12.4161 2.34178e-19)
(2.853 -12.1025 0)
(2.80499 -11.8015 9.29822e-20)
(2.75869 -11.5127 -1.87411e-19)
(2.71407 -11.2357 1.651e-19)
(2.6711 -10.97 -8.51634e-21)
(2.62974 -10.7149 -1.51391e-19)
(2.58996 -10.4701 -6.85005e-20)
(2.5517 -10.2348 0)
(2.51486 -10.0085 6.03023e-20)
(2.47929 -9.79005 0)
(2.44521 -9.57824 0)
(2.41329 -9.37114 0)
(2.3796 -9.16741 0)
(4.66576 -18.9049 -8.54825e-19)
(4.04305 -18.3423 7.9852e-19)
(4.11464 -17.7629 -7.3616e-19)
(4.01124 -17.3179 -3.34538e-19)
(3.95556 -16.902 9.28537e-21)
(3.90656 -16.4987 1.06357e-20)
(3.85323 -16.0988 -2.56918e-19)
(3.79639 -15.6985 0)
(3.73634 -15.2978 0)
(3.67354 -14.8993 -1.33701e-20)
(3.60887 -14.5058 -3.79297e-19)
(3.54331 -14.12 6.67189e-19)
(3.47771 -13.744 -1.92724e-20)
(3.41279 -13.3796 -2.97309e-19)
(3.3491 -13.0277 2.67261e-19)
(3.287 -12.6888 -2.39786e-19)
(3.22676 -12.3632 4.5797e-19)
(3.16851 -12.0506 -2.18536e-19)
(3.11232 -11.7506 0)
(3.05817 -11.463 5.47245e-21)
(3.00604 -11.187 9.29967e-21)
(2.95588 -10.9223 3.88153e-21)
(2.90763 -10.6683 0)
(2.86123 -10.4245 0)
(2.81663 -10.1903 0)
(2.77371 -9.96509 -6.03023e-20)
(2.73229 -9.74789 0)
(2.69261 -9.53736 2.07157e-19)
(2.65539 -9.33157 -9.76051e-21)
(2.61613 -9.12933 -3.93388e-19)
(5.16062 -18.7852 1.28177e-18)
(4.52668 -18.2517 -4.10155e-19)
(4.58525 -17.679 -3.84064e-19)
(4.47139 -17.2418 0)
(4.40519 -16.83 0)
(4.34541 -16.4287 0)
(4.28102 -16.0299 0)
(4.2129 -15.63 -9.35901e-19)
(4.14147 -15.2297 4.51045e-19)
(4.06732 -14.8314 3.99902e-19)
(3.99147 -14.4383 0)
(3.915 -14.053 -3.39124e-19)
(3.83883 -13.6778 -3.04457e-19)
(3.76374 -13.3142 1.75696e-20)
(3.69027 -12.9634 9.08665e-21)
(3.61882 -12.6257 -2.41211e-19)
(3.54964 -12.3013 2.37003e-19)
(3.48284 -11.99 -2.0774e-19)
(3.41847 -11.6914 2.04205e-19)
(3.3565 -11.405 -1.83985e-19)
(3.29689 -11.1303 -1.72436e-19)
(3.23957 -10.8669 4.71779e-19)
(3.18445 -10.6141 -4.57056e-19)
(3.13148 -10.3715 2.72106e-19)
(3.08057 -10.1386 -2.67816e-19)
(3.0316 -9.91463 0)
(2.98438 -9.6988 0)
(2.93916 -9.48972 -1.07428e-19)
(2.89669 -9.28541 0)
(2.85193 -9.08488 -2.93256e-19)
(5.65242 -18.6526 -4.52644e-19)
(5.0083 -18.1483 -3.413e-20)
(5.05418 -17.5825 3.57206e-19)
(4.93014 -17.1534 -3.27314e-19)
(4.85353 -16.7457 -3.00077e-19)
(4.78299 -16.3467 5.68797e-19)
(4.70752 -15.9492 -1.7932e-20)
(4.62807 -15.55 -4.79777e-19)
(4.5452 -15.1502 4.5326e-19)
(4.45965 -14.7525 3.90501e-19)
(4.37259 -14.36 -7.55e-19)
(4.28518 -13.9756 3.42664e-19)
(4.19844 -13.6014 -3.16199e-19)
(4.11316 -13.2391 0)
(4.02993 -12.8896 0)
(3.94914 -12.5534 -4.92919e-19)
(3.87103 -12.2305 2.45432e-19)
(3.79571 -11.9207 -2.03318e-19)
(3.7232 -11.6237 1.11328e-20)
(3.65345 -11.3388 4.71794e-21)
(3.5864 -11.0657 3.45988e-19)
(3.52194 -10.8037 1.5246e-19)
(3.46 -10.5523 -1.5921e-19)
(3.40048 -10.3112 0)
(3.3433 -10.0796 2.5628e-19)
(3.28833 -9.85711 -1.28913e-19)
(3.23535 -9.64281 0)
(3.18465 -9.43535 1.07428e-19)
(3.13702 -9.23268 2.9906e-19)
(3.08682 -9.03408 -1.05227e-19)
(6.14081 -18.5071 4.06669e-19)
(5.48758 -18.0323 -3.4195e-20)
(5.5211 -17.4735 -2.43832e-20)
(5.38714 -17.0525 -3.52577e-19)
(5.30024 -16.6491 6.20937e-19)
(5.21896 -16.2526 -1.12044e-18)
(5.13239 -15.8566 1.06232e-18)
(5.04156 -15.4584 4.64303e-19)
(4.9472 -15.0594 -2.88209e-20)
(4.85023 -14.6626 -2.61144e-20)
(4.75192 -14.2711 -1.32749e-20)
(4.65356 -13.8879 -9.39302e-21)
(4.55623 -13.5151 -3.18675e-19)
(4.46077 -13.1543 1.76842e-20)
(4.3678 -12.8065 1.60838e-20)
(4.2777 -12.472 5.08941e-19)
(4.1907 -12.1509 -2.32112e-19)
(4.1069 -11.8429 2.15487e-19)
(4.02628 -11.5476 3.91027e-19)
(3.94879 -11.2645 -1.98118e-19)
(3.87432 -10.9931 -1.73552e-19)
(3.80278 -10.7328 1.61805e-19)
(3.73404 -10.483 0)
(3.66802 -10.2434 -2.75999e-19)
(3.60462 -10.0135 1.35134e-20)
(3.54369 -9.79257 1.30738e-19)
(3.48501 -9.57996 2.26345e-19)
(3.42891 -9.37427 -2.22909e-19)
(3.37619 -9.17343 9.76091e-20)
(3.32064 -8.97698 -9.29506e-21)
(6.62547 -18.3489 2.16582e-18)
(5.96417 -17.9036 4.19187e-19)
(5.98567 -17.352 -3.36846e-19)
(5.84206 -16.9392 7.08299e-19)
(5.74499 -16.5403 1.23138e-18)
(5.65298 -16.1464 -1.89278e-20)
(5.55529 -15.7521 0)
(5.45305 -15.3552 0)
(5.34716 -14.9574 0)
(5.23872 -14.5618 4.07789e-19)
(5.12914 -14.1716 0)
(5.01982 -13.7899 0)
(4.91191 -13.4188 3.19405e-19)
(4.8063 -13.0599 -2.85941e-19)
(4.70361 -12.7139 5.45525e-19)
(4.60423 -12.3815 -5.1306e-19)
(4.50838 -12.0624 6.90003e-19)
(4.41613 -11.7565 -2.29481e-19)
(4.32745 -11.4632 2.02643e-19)
(4.24226 -11.1822 -3.66228e-19)
(4.16043 -10.9127 8.7719e-19)
(4.08184 -10.6542 -3.35725e-19)
(4.00636 -10.4063 4.50323e-19)
(3.93388 -10.1684 -1.57646e-19)
(3.8643 -9.94019 -1.39811e-19)
(3.79747 -9.72106 1.25151e-19)
(3.73316 -9.51029 3.45272e-19)
(3.67172 -9.30654 -2.24569e-19)
(3.614 -9.10769 1.03093e-19)
(3.55321 -8.91361 -9.67758e-20)
(7.10606 -18.1781 3.4019e-21)
(6.43773 -17.7622 3.42693e-21)
(6.44755 -17.218 7.52757e-19)
(6.29455 -16.8135 -6.63539e-19)
(6.18741 -16.4192 2.38651e-20)
(6.08472 -16.0281 -5.74013e-19)
(5.97587 -15.6359 -5.10492e-19)
(5.86219 -15.2406 9.85637e-19)
(5.74475 -14.8442 0)
(5.62481 -14.45 -4.0779e-19)
(5.50395 -14.0616 -3.64922e-19)
(5.38368 -13.6817 3.58166e-19)
(5.2652 -13.3126 -3.19406e-19)
(5.14946 -12.9557 0)
(5.03708 -12.6121 -2.57641e-19)
(4.92847 -12.2819 7.75798e-19)
(4.82381 -11.9651 -2.34712e-19)
(4.72316 -11.6615 4.26554e-19)
(4.62647 -11.3706 -1.01641e-18)
(4.53363 -11.0917 7.57423e-19)
(4.44449 -10.8244 -8.81445e-19)
(4.3589 -10.568 3.3779e-19)
(4.27672 -10.322 -1.52994e-19)
(4.19784 -10.0861 -1.36796e-19)
(4.12214 -9.85982 1.44941e-20)
(4.04946 -9.64263 3.77626e-19)
(3.97958 -9.43386 -4.70194e-19)
(3.91289 -9.23221 2.26203e-19)
(3.85027 -9.03553 -1.03094e-19)
(3.78435 -8.84403 9.83784e-20)
(7.58223 -17.9947 -4.09561e-20)
(6.90793 -17.6082 -1.67892e-18)
(6.90639 -17.0716 -1.48163e-18)
(6.74427 -16.6754 2.37867e-20)
(6.62717 -16.2858 -6.10115e-19)
(6.51381 -15.8978 5.98162e-19)
(6.39381 -15.5078 0)
(6.26866 -15.1144 -4.84989e-19)
(6.13963 -14.7197 0)
(6.00818 -14.3274 0)
(5.87604 -13.941 -3.66614e-19)
(5.74482 -13.5632 6.97988e-19)
(5.61581 -13.1964 -3.31971e-19)
(5.48997 -12.8421 5.77642e-19)
(5.36795 -12.5009 -1.37669e-18)
(5.25014 -12.1733 5.25411e-19)
(5.13672 -11.8592 0)
(5.02773 -11.5581 -6.4686e-19)
(4.92308 -11.2697 4.20416e-19)
(4.82265 -10.9933 0)
(4.72625 -10.7283 -1.77801e-19)
(4.63373 -10.4742 0)
(4.54491 -10.2305 1.46251e-19)
(4.45967 -9.99668 -5.77935e-19)
(4.37791 -9.77245 7.06404e-21)
(4.29944 -9.55734 -2.46799e-19)
(4.22406 -9.35074 -2.25285e-19)
(4.1522 -9.15135 2.27811e-19)
(4.08478 -8.95699 -2.03756e-19)
(4.01388 -8.7683 2.11251e-19)
(8.05365 -17.7988 0)
(7.37441 -17.4418 0)
(7.36186 -16.9127 7.31904e-19)
(7.19087 -16.525 -2.67585e-20)
(7.06392 -16.1403 -6.12695e-19)
(6.93992 -15.7556 6.00691e-19)
(6.80876 -15.3681 -5.14927e-19)
(6.67212 -14.9767 9.94156e-19)
(6.53149 -14.5842 -4.49347e-19)
(6.38852 -14.194 -3.9973e-19)
(6.24511 -13.8099 2.39845e-20)
(6.10296 -13.4346 7.01159e-19)
(5.96344 -13.0705 2.94072e-19)
(5.82754 -12.7188 -3.16751e-19)
(5.69592 -12.3805 -5.3749e-19)
(5.56898 -12.0558 5.27997e-19)
(5.44686 -11.7445 2.3839e-19)
(5.32958 -11.4463 0)
(5.21704 -11.1606 0)
(5.10907 -10.8869 1.91818e-19)
(5.00548 -10.6245 5.2528e-19)
(4.90608 -10.3729 -6.66118e-19)
(4.81068 -10.1316 1.70979e-19)
(4.71915 -9.90009 7.2725e-19)
(4.63137 -9.67812 -1.43424e-19)
(4.54718 -9.46527 0)
(4.46637 -9.261 2.38592e-19)
(4.38943 -9.06403 0)
(4.31732 -8.87218 2.05258e-19)
(4.24159 -8.68651 -3.17157e-19)
(8.52 -17.5905 -8.35381e-19)
(7.83685 -17.2629 1.69556e-18)
(7.81362 -16.7415 7.6203e-19)
(7.63401 -16.3623 0)
(7.49732 -15.9827 -6.37227e-19)
(7.36271 -15.6014 0)
(7.22039 -15.2166 -5.35237e-19)
(7.07224 -14.8277 -1.44731e-20)
(6.91999 -14.4375 -1.62685e-20)
(6.76551 -14.0499 -4.14993e-19)
(6.61084 -13.6684 -3.82165e-19)
(6.45779 -13.2959 -3.52392e-19)
(6.3078 -12.9347 0)
(6.16189 -12.5862 2.83651e-19)
(6.02074 -12.251 -3.26366e-20)
(5.88472 -11.9294 -5.30512e-19)
(5.75396 -11.6212 -7.0335e-19)
(5.62847 -11.3261 2.34362e-19)
(5.5081 -11.0434 4.02196e-19)
(5.39266 -10.7726 -9.61948e-19)
(5.28193 -10.513 1.88695e-19)
(5.17571 -10.2641 0)
(5.07379 -10.0254 0)
(4.97602 -9.79646 1.39423e-19)
(4.8823 -9.57693 -4.17811e-19)
(4.79245 -9.36651 0)
(4.70628 -9.16472 -1.19699e-19)
(4.62434 -8.97033 0)
(4.54766 -8.78116 0)
(4.46728 -8.59875 4.09404e-19)
(8.98093 -17.37 -1.7658e-18)
(8.29491 -17.0716 -8.26146e-19)
(8.26134 -16.558 -7.62034e-19)
(8.07336 -16.1874 0)
(7.92702 -15.8129 1.27697e-18)
(7.78183 -15.4353 -5.66047e-19)
(7.62834 -15.0535 5.71131e-19)
(7.46869 -14.6674 5.0914e-19)
(7.30483 -14.2799 4.53015e-19)
(7.13884 -13.895 8.18106e-19)
(6.97293 -13.5165 -1.33991e-20)
(6.80902 -13.1472 2.08811e-20)
(6.64861 -12.7893 6.72833e-19)
(6.49275 -12.4441 -5.85731e-19)
(6.34213 -12.1123 5.75259e-19)
(6.19709 -11.7941 5.0316e-19)
(6.05777 -11.4893 -9.61595e-19)
(5.92412 -11.1975 9.05408e-19)
(5.79599 -10.9181 -4.0426e-19)
(5.67314 -10.6505 3.97468e-19)
(5.55535 -10.394 9.16756e-21)
(5.44237 -10.148 6.73633e-19)
(5.33399 -9.91211 -3.22743e-19)
(5.23005 -9.68585 4.34253e-19)
(5.13043 -9.46894 -1.45124e-19)
(5.03499 -9.26112 0)
(4.94354 -9.06198 0)
(4.85669 -8.87034 -3.2927e-19)
(4.77555 -8.68404 4.36419e-19)
(4.6907 -8.50511 1.05114e-19)
(9.43612 -17.1373 1.77054e-18)
(8.74827 -16.8681 0)
(8.70468 -16.3623 7.40634e-19)
(8.50857 -16.0004 -7.25954e-19)
(8.35268 -15.6312 2.44641e-21)
(8.19694 -15.2574 5.6825e-19)
(8.0323 -14.8789 -5.57201e-19)
(7.86113 -14.4958 0)
(7.68567 -14.1113 -4.53018e-19)
(7.50819 -13.7296 8.09456e-19)
(7.33108 -13.3544 -7.94305e-19)
(7.15636 -12.9886 3.34353e-19)
(6.98558 -12.6342 -1.31149e-18)
(6.81984 -12.2927 3.60921e-20)
(6.65981 -11.9646 1.12269e-18)
(6.50584 -11.6501 -5.35316e-19)
(6.35802 -11.349 4.69395e-19)
(6.21629 -11.0608 -6.84967e-19)
(6.08046 -10.7849 -4.06258e-19)
(5.95028 -10.5206 3.99432e-19)
(5.82549 -10.2674 -5.33913e-19)
(5.70581 -10.0246 3.474e-19)
(5.59103 -9.79169 0)
(5.48098 -9.56834 -1.47423e-19)
(5.37553 -9.35425 0)
(5.27456 -9.14919 0)
(5.17789 -8.95287 -4.7517e-19)
(5.08622 -8.76416 3.54169e-19)
(5.00072 -8.5809 4.19306e-19)
(4.91161 -8.40567 -8.51272e-19)
(9.88527 -16.8927 -8.46222e-19)
(9.1966 -16.6525 8.79025e-19)
(9.14333 -16.1546 7.43415e-19)
(8.93931 -15.8013 -7.2868e-19)
(8.77396 -15.4375 -6.42194e-19)
(8.60771 -15.0678 -5.70394e-19)
(8.43192 -14.6928 3.61576e-20)
(8.24926 -14.313 9.93357e-19)
(8.0622 -13.9319 -4.71124e-19)
(7.87327 -13.5537 0)
(7.685 -13.1821 0)
(7.49952 -12.82 6.9097e-19)
(7.31844 -12.4696 -6.78322e-19)
(7.14289 -12.1321 0)
(6.97353 -11.808 0)
(6.81069 -11.4974 0)
(6.65446 -11.2002 0)
(6.50472 -10.9158 0)
(6.36126 -10.6437 -4.08184e-19)
(6.22382 -10.383 4.01326e-19)
(6.09208 -10.1333 3.54967e-19)
(5.96577 -9.89387 -3.49152e-19)
(5.84465 -9.66423 0)
(5.72854 -9.444 0)
(5.61732 -9.23292 0)
(5.51087 -9.03082 0)
(5.40905 -8.83749 0)
(5.31263 -8.65187 0)
(5.22291 -8.47184 0)
(5.12976 -8.30054 0)
(10.328 -16.6363 0)
(9.63959 -16.4248 0)
(9.57697 -15.9348 0)
(9.36525 -15.5902 0)
(9.19053 -15.232 1.2938e-18)
(9.01381 -14.8666 1.18531e-18)
(8.82689 -14.4954 5.6166e-19)
(8.63273 -14.1192 1.5122e-18)
(8.43411 -13.7417 0)
(8.23376 -13.3673 0)
(8.03438 -12.9997 1.52794e-18)
(7.83821 -12.6418 -1.43135e-18)
(7.64691 -12.2956 1.98316e-18)
(7.46163 -11.9623 -1.77684e-20)
(7.28302 -11.6424 5.66372e-19)
(7.1114 -11.3361 1.54148e-20)
(6.94682 -11.0431 9.88504e-19)
(6.78915 -10.7628 4.40375e-19)
(6.63814 -10.4946 -1.09809e-20)
(6.49349 -10.2378 3.82215e-19)
(6.35488 -9.9918 -3.75874e-19)
(6.222 -9.75597 0)
(6.09459 -9.52979 3.20172e-19)
(5.97247 -9.3129 2.99619e-19)
(5.85552 -9.10503 2.8066e-19)
(5.74364 -8.90609 2.63149e-19)
(5.63673 -8.71593 4.81056e-19)
(5.53563 -8.53359 -2.19876e-20)
(5.44179 -8.35698 -8.69955e-19)
(5.34484 -8.18985 1.84837e-20)
(10.7642 -16.3681 2.64516e-18)
(10.0769 -16.1854 -8.85111e-19)
(10.0053 -15.7032 8.0365e-19)
(9.78606 -15.3673 -6.84691e-19)
(9.60206 -15.0147 -3.21903e-18)
(9.41489 -14.6538 6.18731e-19)
(9.21687 -14.2866 -1.61363e-18)
(9.01125 -13.9144 5.20183e-19)
(8.80109 -13.5409 -3.006e-20)
(8.58937 -13.1706 -8.72524e-19)
(8.37894 -12.8073 -7.51635e-19)
(8.17216 -12.4538 7.40396e-19)
(7.97072 -12.1121 -6.61291e-19)
(7.77579 -11.7834 5.9758e-19)
(7.58802 -11.4681 -1.15106e-18)
(7.40771 -11.1663 2.01073e-21)
(7.23487 -10.8776 -9.63077e-19)
(7.06935 -10.6016 4.54353e-19)
(6.91085 -10.3377 -2.11611e-20)
(6.75906 -10.085 -2.0969e-20)
(6.61362 -9.84292 -1.10418e-18)
(6.47422 -9.61091 3.52438e-19)
(6.34056 -9.38843 -6.41843e-19)
(6.21248 -9.17509 1.4531e-21)
(6.08985 -8.97066 -8.30131e-19)
(5.97257 -8.77508 2.77764e-19)
(5.86061 -8.58829 -4.83869e-19)
(5.75488 -8.40941 4.76525e-19)
(5.657 -8.23643 2.19245e-19)
(5.55649 -8.07371 0)
(11.1934 -16.0885 5.74344e-21)
(10.5084 -15.9342 1.68849e-18)
(10.428 -15.4598 -1.55244e-18)
(10.2014 -15.1326 -4.80504e-21)
(10.0082 -14.7858 2.60102e-18)
(9.81065 -14.4296 3.97511e-21)
(9.60154 -14.0667 -1.0941e-18)
(9.38448 -13.6987 -1.00073e-18)
(9.16283 -13.3295 9.19412e-19)
(8.9398 -12.9637 -8.48581e-19)
(8.7184 -12.605 -7.7904e-19)
(8.50108 -12.2563 0)
(8.2896 -11.9194 6.45639e-19)
(8.08512 -11.5955 -1.86379e-18)
(7.88829 -11.285 0)
(7.69938 -10.988 -5.2721e-19)
(7.51837 -10.704 0)
(7.34506 -10.4325 -1.72088e-21)
(7.17915 -10.173 -1.01771e-20)
(7.02028 -9.92458 -4.0652e-19)
(6.86806 -9.6867 8.49002e-21)
(6.72217 -9.45873 6.9022e-19)
(6.5823 -9.24016 -9.15603e-21)
(6.44827 -9.0306 2.88056e-19)
(6.31997 -8.82984 -8.63264e-19)
(6.19732 -8.63785 0)
(6.08032 -8.45465 0)
(5.96999 -8.27944 -2.34561e-19)
(5.86814 -8.11031 -2.19247e-19)
(5.76428 -7.95226 -4.28369e-19)
(11.6154 -15.7976 -1.79885e-18)
(10.9337 -15.6715 -2.50947e-18)
(10.8448 -15.2048 -7.58238e-19)
(10.6111 -14.8862 1.42346e-18)
(10.4087 -14.5454 -1.30271e-18)
(10.2007 -14.194 -1.19342e-18)
(9.98058 -13.8358 1.09411e-18)
(9.75212 -13.4723 1.00724e-18)
(9.51903 -13.1078 0)
(9.28476 -12.7467 8.48589e-19)
(9.05248 -12.393 0)
(8.82473 -12.0493 0)
(8.60331 -11.7176 0)
(8.38938 -11.3988 6.15995e-19)
(8.18359 -11.0934 0)
(7.98617 -10.8013 0)
(7.79708 -10.5222 4.79021e-19)
(7.61607 -10.2555 4.44555e-19)
(7.44281 -10.0005 0)
(7.2769 -9.75666 0)
(7.11795 -9.52316 3.71244e-19)
(6.96559 -9.29943 -3.46824e-19)
(6.81953 -9.08498 3.24371e-19)
(6.67955 -8.87943 0)
(6.54556 -8.68257 2.83422e-19)
(6.41751 -8.4944 0)
(6.29545 -8.31503 0)
(6.18051 -8.14373 4.70337e-19)
(6.0747 -7.97867 0)
(5.96769 -7.8256 0)
(12.0302 -15.4955 0)
(11.3525 -15.3974 0)
(11.2554 -14.9382 1.56288e-18)
(11.0146 -14.6283 0)
(10.8031 -14.2935 -6.33143e-19)
(10.5849 -13.9473 6.20739e-19)
(10.3537 -13.5939 -1.06415e-18)
(10.1139 -13.2353 2.0237e-18)
(9.86939 -12.8757 -3.01138e-20)
(9.62397 -12.5198 -8.53891e-19)
(9.3809 -12.1714 1.54845e-18)
(9.14283 -11.8331 -2.21963e-20)
(8.91158 -11.5067 6.70243e-19)
(8.68833 -11.1933 0)
(8.47369 -10.8932 1.13173e-18)
(8.26788 -10.6063 -1.0649e-18)
(8.07079 -10.3323 1.00295e-18)
(7.88216 -10.0706 -9.05631e-19)
(7.70162 -9.82044 8.67802e-19)
(7.52873 -9.58124 3.99189e-19)
(7.36308 -9.35229 1.28323e-21)
(7.20426 -9.133 3.46828e-19)
(7.05198 -8.92287 -3.24374e-19)
(6.90601 -8.72153 3.04842e-19)
(6.76628 -8.52879 2.85764e-19)
(6.63275 -8.34467 0)
(6.50553 -8.16935 -2.3952e-19)
(6.38586 -8.00219 2.29707e-20)
(6.27598 -7.84147 1.11343e-18)
(6.16588 -7.69371 -2.30297e-19)
(12.4374 -15.1824 9.52477e-19)
(11.7646 -15.1119 -1.63452e-18)
(11.6595 -14.6602 5.10984e-20)
(11.4118 -14.359 1.48704e-18)
(11.1912 -14.0304 1.31513e-18)
(10.9627 -13.6895 5.81915e-19)
(10.7205 -13.3413 1.10422e-18)
(10.4694 -12.9878 9.82849e-19)
(10.2136 -12.6335 -2.79018e-18)
(9.95714 -12.2831 1.73761e-18)
(9.70341 -11.9402 -1.57545e-18)
(9.45513 -11.6076 2.11666e-21)
(9.21419 -11.2869 -6.70249e-19)
(8.98174 -10.9791 -6.21827e-19)
(8.75839 -10.6846 -5.74285e-19)
(8.54428 -10.4031 1.05317e-18)
(8.33931 -10.1344 -1.50072e-18)
(8.14316 -9.87782 0)
(7.9554 -9.63269 -4.28259e-19)
(7.77558 -9.39833 -3.99193e-19)
(7.60325 -9.1741 -7.3636e-19)
(7.43798 -8.95941 3.57866e-19)
(7.27946 -8.75377 6.36495e-19)
(7.12745 -8.55683 -9.31176e-19)
(6.98188 -8.36841 -2.85767e-19)
(6.84274 -8.18857 -5.25113e-19)
(6.7102 -8.01753 2.65107e-19)
(6.58558 -7.85474 -7.01098e-19)
(6.47132 -7.69866 2.34389e-19)
(6.3579 -7.55644 -2.21753e-19)
(12.8372 -14.8586 -3.77872e-20)
(12.1699 -14.8154 8.05531e-19)
(12.0568 -14.3709 1.57752e-18)
(11.8023 -14.0783 -7.41301e-19)
(11.5726 -13.756 -1.31903e-18)
(11.3338 -13.4208 -1.1637e-18)
(11.0807 -13.078 -5.31978e-19)
(10.8184 -12.73 -1.01328e-18)
(10.5514 -12.3814 9.33486e-19)
(10.284 -12.0367 0)
(10.0197 -11.6998 7.88876e-19)
(9.76138 -11.3731 -7.27708e-19)
(9.51089 -11.0584 -6.74086e-19)
(9.26939 -10.7565 6.21834e-19)
(9.03746 -10.4677 -5.77612e-19)
(8.81521 -10.1919 -5.3426e-19)
(8.60247 -9.92862 4.82195e-19)
(8.39888 -9.67732 -4.75252e-19)
(8.20398 -9.43731 0)
(8.01728 -9.20794 0)
(7.83829 -8.98855 0)
(7.66656 -8.77858 6.82179e-19)
(7.50175 -8.57758 -6.71146e-19)
(7.34364 -8.38522 0)
(7.19214 -8.20133 0)
(7.04729 -8.02605 0)
(6.90931 -7.85966 0)
(6.77962 -7.70167 -2.38684e-19)
(6.66077 -7.55063 -4.39524e-19)
(6.54402 -7.41402 2.3254e-19)
(13.2305 -14.525 8.74332e-19)
(12.5684 -14.508 -9.02132e-19)
(12.447 -14.0703 -2.3408e-18)
(12.1858 -13.7863 2.19356e-18)
(11.9471 -13.4705 -6.38737e-19)
(11.6979 -13.1412 6.26222e-19)
(11.434 -12.8042 3.69636e-20)
(11.1605 -12.462 3.05672e-18)
(10.8824 -12.1194 -1.90002e-18)
(10.6042 -11.7809 8.60975e-19)
(10.3295 -11.4501 7.93112e-19)
(10.0613 -11.1297 7.09226e-19)
(9.80145 -10.8212 6.53704e-19)
(9.55107 -10.5254 -6.06734e-19)
(9.31072 -10.2426 1.19031e-18)
(9.08047 -9.97264 5.5239e-19)
(8.86009 -9.715 4.97576e-19)
(8.64919 -9.46912 -4.51102e-19)
(8.44725 -9.23435 8.63601e-19)
(8.25371 -9.01003 -4.13115e-19)
(8.06806 -8.79555 0)
(7.88981 -8.59036 0)
(7.71859 -8.39406 0)
(7.55417 -8.20636 5.99566e-19)
(7.39648 -8.02719 -5.90113e-19)
(7.24561 -7.8568 0)
(7.10195 -7.69562 0)
(6.96709 -7.54315 2.38687e-19)
(6.84382 -7.39791 -4.41408e-19)
(6.72461 -7.26814 6.82652e-19)
(13.6187 -14.1818 -4.08785e-20)
(12.9604 -14.1889 -9.04973e-19)
(12.8297 -13.7581 -1.58639e-18)
(12.5619 -13.4831 -7.4574e-19)
(12.3142 -13.1741 6.40089e-19)
(12.0548 -12.851 -1.21441e-18)
(11.78 -12.5201 -1.11028e-18)
(11.4955 -12.1841 -1.01877e-18)
(11.2065 -11.8478 0)
(10.9175 -11.5157 -1.69677e-18)
(10.6327 -11.1915 8.22117e-19)
(10.3547 -10.8777 -7.11035e-19)
(10.0857 -10.5756 6.99701e-19)
(9.8266 -10.2862 0)
(9.57801 -10.0096 -5.79135e-19)
(9.33994 -9.74559 5.3848e-19)
(9.1121 -9.49371 5.00076e-19)
(8.89403 -9.25336 0)
(8.68516 -9.02389 0)
(8.48489 -8.80465 0)
(8.29262 -8.59504 3.76385e-19)
(8.1078 -8.39455 -3.33642e-19)
(7.92998 -8.20279 6.74113e-19)
(7.75884 -8.01957 3.07682e-19)
(7.59425 -7.84494 0)
(7.43629 -7.67936 0)
(7.28557 -7.52341 -2.43195e-19)
(7.14402 -7.37665 7.28547e-19)
(7.01443 -7.23857 0)
(6.89131 -7.12034 0)
(14.001 -13.8267 -1.79147e-18)
(13.3455 -13.8565 9.07568e-19)
(13.2044 -13.4343 8.18998e-19)
(12.9301 -13.1691 5.06581e-20)
(12.6737 -12.8671 -6.38305e-19)
(12.4041 -12.5506 1.21442e-18)
(12.1186 -12.2261 0)
(11.8232 -11.8967 0)
(11.5233 -11.567 0)
(11.2239 -11.2417 -8.3784e-19)
(10.929 -10.9243 2.70529e-20)
(10.6416 -10.6173 0)
(10.3635 -10.322 -6.77552e-19)
(10.0959 -10.0391 0)
(9.83929 -9.76887 0)
(9.59358 -9.511 -1.06288e-18)
(9.35846 -9.265 1.51655e-20)
(9.13341 -9.03027 0)
(8.91781 -8.80615 0)
(8.71098 -8.59197 3.93504e-19)
(8.51226 -8.38714 -7.63365e-19)
(8.32101 -8.19114 -1.03782e-18)
(8.13665 -8.00358 6.75163e-19)
(7.95867 -7.82426 -3.07686e-19)
(7.78666 -7.65331 0)
(7.62034 -7.49125 0)
(7.4601 -7.33862 -2.5404e-19)
(7.3074 -7.19543 -2.38865e-19)
(7.16282 -7.06491 4.40475e-19)
(7.02316 -6.9627 -4.57999e-19)
(19.8947 0.122358 8.8935e-20)
(19.8802 -0.401864 1.1574e-19)
(19.8525 -0.923343 3.49934e-19)
(19.813 -1.44264 4.62727e-19)
(19.761 -1.96004 -2.36942e-19)
(19.6959 -2.47541 2.3682e-19)
(19.6174 -2.98852 2.20957e-20)
(19.5256 -3.49908 -4.73451e-19)
(19.4205 -4.0068 9.4537e-19)
(19.3023 -4.51139 -1.41811e-18)
(19.1709 -5.0125 9.44102e-19)
(19.0264 -5.50981 -1.39385e-18)
(18.8691 -6.00298 -1.41383e-18)
(18.699 -6.49169 9.61241e-22)
(18.5161 -6.9756 4.45922e-20)
(18.3208 -7.45439 0)
(18.1131 -7.92774 8.95338e-19)
(17.8931 -8.39533 1.87506e-18)
(17.6611 -8.85684 -1.87319e-18)
(17.4172 -9.31198 8.91057e-19)
(17.1617 -9.76043 0)
(16.8946 -10.2019 -2.75098e-18)
(16.6162 -10.6361 3.0854e-21)
(16.3266 -11.0628 1.85963e-18)
(16.0262 -11.4818 0)
(15.7152 -11.8927 -9.67755e-19)
(15.3937 -12.2954 4.69896e-20)
(15.0625 -12.6899 -8.75504e-19)
(14.7204 -13.0768 9.22448e-19)
(14.3712 -13.4544 1.79478e-18)
(19.6993 -0.370213 0)
(19.6698 -0.887758 -5.86677e-20)
(19.6259 -1.40228 -9.20008e-21)
(19.5685 -1.91416 -2.34577e-19)
(19.4977 -2.42365 -4.45595e-19)
(19.4137 -2.9306 4.45594e-19)
(19.3163 -3.43468 4.68706e-19)
(19.2057 -3.93558 0)
(19.082 -4.43297 -8.89586e-19)
(18.9453 -4.92652 4.58073e-19)
(18.7957 -5.41592 -4.31216e-19)
(18.6334 -5.90083 9.23842e-19)
(18.4584 -6.3809 -4.57035e-19)
(18.2709 -6.85582 -8.85791e-19)
(18.071 -7.32526 1.81741e-18)
(17.859 -7.78889 0)
(17.635 -8.2464 -1.81204e-18)
(17.3991 -8.69749 8.82626e-19)
(17.1516 -9.14184 0)
(16.8928 -9.57918 -9.25599e-19)
(16.6226 -10.0092 -1.75488e-18)
(16.3415 -10.4316 2.67762e-18)
(16.0497 -10.8462 -1.74894e-18)
(15.7472 -11.2527 1.74896e-18)
(15.4345 -11.6508 0)
(15.1117 -12.0404 1.66794e-18)
(14.7788 -12.4214 -8.24653e-19)
(14.4364 -12.7934 9.12868e-19)
(14.0835 -13.1568 0)
(13.7212 -13.5109 -9.09407e-19)
(19.4008 -0.188198 0)
(19.377 -0.69546 0)
(19.3389 -1.20126 -6.84665e-21)
(19.2868 -1.70517 1.98257e-19)
(19.2209 -2.20692 -4.10634e-19)
(19.1415 -2.70622 6.08868e-19)
(19.0487 -3.20271 0)
(18.9426 -3.69604 3.96259e-19)
(18.8234 -4.18587 8.20066e-19)
(18.6911 -4.67188 4.22433e-19)
(18.5459 -5.15372 -3.9693e-19)
(18.3879 -5.63105 2.69398e-20)
(18.2174 -6.10356 3.68166e-19)
(18.0344 -6.57089 -1.60624e-18)
(17.8391 -7.03274 1.60547e-18)
(17.6317 -7.48877 -7.87789e-19)
(17.4123 -7.93867 -8.14036e-19)
(17.1813 -8.38213 8.1404e-19)
(16.9387 -8.81884 -7.8486e-19)
(16.6848 -9.24852 -7.83755e-19)
(16.4198 -9.67086 0)
(16.1439 -10.0856 -8.34774e-19)
(15.8574 -10.4925 1.61615e-18)
(15.5604 -10.8912 1.61051e-18)
(15.2533 -11.2815 -1.61053e-18)
(14.9361 -11.6633 -5.23582e-20)
(14.6091 -12.0363 -1.60121e-18)
(14.2725 -12.4002 2.37397e-18)
(13.926 -12.7548 1.59431e-18)
(13.5702 -13.0996 -8.25015e-19)
(19.0247 -0.212541 0)
(19.0024 -0.70859 0)
(18.9662 -1.20366 -9.71524e-20)
(18.9164 -1.69717 -1.94328e-19)
(18.853 -2.18867 -1.80998e-19)
(18.7761 -2.67784 1.67689e-19)
(18.6858 -3.16432 3.74514e-19)
(18.5823 -3.64776 -1.13732e-18)
(18.4656 -4.12781 3.74397e-19)
(18.336 -4.60411 0)
(18.1936 -5.07632 3.61405e-19)
(18.0384 -5.5441 3.87534e-19)
(17.8707 -6.00711 -7.74449e-19)
(17.6906 -6.46499 1.495e-18)
(17.4984 -6.91744 -2.79021e-20)
(17.2941 -7.36411 2.70733e-20)