/*--------------------------------*- C++ -*----------------------------------*\
  =========                 |
  \\      /  F ield         | OpenFOAM: The Open Source CFD Toolbox
   \\    /   O peration     | Website:  https://openfoam.org
    \\  /    A nd           | Version:  6.0
     \\/     M anipulation  |
\*---------------------------------------------------------------------------*/
FoamFile
{
    version     2.0;
    format      ascii;
    class       surfaceScalarField;
    location    "2.75";
    object      phi;
}
// * * * * * * * * * * * * * * * * * * * * * * * * * * * * * * * * * * * * * //

dimensions      [0 3 -1 0 0 0 0];

internalField   nonuniform List<scalar> 
38030
(
9.36015e-06
-0.0807922
0.0807828
6.59616e-05
-0.0765223
0.0764657
0.000162966
-0.0728515
0.0727544
0.000295176
-0.0696698
0.0695376
0.000458381
-0.0668843
0.0667211
0.00064826
-0.0644167
0.0642268
0.000860498
-0.0622034
0.0619911
0.00109095
-0.0601934
0.0599629
0.00133573
-0.0583462
0.0581014
0.00159131
-0.0566299
0.0563744
0.00185455
-0.0550198
0.0547566
0.00212271
-0.0534966
0.0532285
0.00239344
-0.0520456
0.0517749
0.00266479
-0.0506555
0.0503842
0.00293516
-0.0493178
0.0490475
0.00320329
-0.0480261
0.047758
0.00346819
-0.0467756
0.0465107
0.00372914
-0.0455625
0.0453015
0.00398564
-0.0443841
0.0441276
0.00423736
-0.0432382
0.0429865
0.00448411
-0.042123
0.0418763
0.00472582
-0.0410371
0.0407954
0.00496249
-0.0399792
0.0397425
0.00519415
-0.0389481
0.0387164
0.00542086
-0.0379428
0.0377161
0.00564266
-0.0369622
0.0367405
0.00585952
-0.0360056
0.0357887
0.00607139
-0.0350719
0.0348601
0.00627809
-0.0341604
0.0339537
-0.03327
0.0330687
0.00647933
1.62439e-05
-0.0808084
7.38242e-05
-0.0765798
0.000171497
-0.0729491
0.00030516
-0.0698034
0.000470405
-0.0670495
0.000662683
-0.064609
0.000877487
-0.0624182
0.00111051
-0.0604264
0.00135775
-0.0585934
0.00161561
-0.0568878
0.00188088
-0.0552851
0.00215078
-0.0537665
0.00242297
-0.0523178
0.00269549
-0.050928
0.00296677
-0.0495891
0.00323555
-0.0482949
0.00350089
-0.0470409
0.00376212
-0.0458237
0.00401877
-0.0446407
0.00427055
-0.04349
0.00451735
-0.0423698
0.00475912
-0.0412789
0.00499593
-0.040216
0.00522785
-0.03918
0.005455
-0.0381699
0.00567744
-0.0371847
0.00589522
-0.0362234
0.00610831
-0.035285
0.00631657
-0.0343687
-0.0334732
0.00651978
1.87527e-05
-0.0808272
7.8617e-05
-0.0766397
0.000178335
-0.0730488
0.000314292
-0.0699394
0.000482093
-0.0672173
0.000677092
-0.064804
0.000894661
-0.0626357
0.00113038
-0.0606621
0.00138017
-0.0588432
0.00164034
-0.057148
0.00190765
-0.0555524
0.00217929
-0.0540382
0.00245292
-0.0525914
0.00272659
-0.0512017
0.00299872
-0.0498612
0.00326812
-0.0485643
0.00353387
-0.0473067
0.00379533
-0.0460852
0.00405208
-0.0448975
0.0043039
-0.0437418
0.00455071
-0.0426166
0.00479254
-0.0415207
0.00502947
-0.0404529
0.00526167
-0.0394122
0.00548927
-0.0383975
0.00571241
-0.0374078
0.00593117
-0.0364421
0.00614555
-0.0354994
0.00635549
-0.0345786
-0.0336785
0.00656078
2.01786e-05
-0.0808474
8.22091e-05
-0.0767017
0.000184327
-0.073151
0.000322932
-0.070078
0.000493575
-0.067388
0.000691506
-0.0650019
0.00091199
-0.0628562
0.00115051
-0.0609006
0.00140289
-0.0590956
0.0016654
-0.0574105
0.00193475
-0.0558218
0.00220812
-0.0543116
0.00248315
-0.0528665
0.00275791
-0.0514765
0.00303086
-0.0501342
0.00330081
-0.0488343
0.00356691
-0.0475728
0.00382854
-0.0463468
0.00408535
-0.0451543
0.00433716
-0.0439936
0.00458394
-0.0428634
0.00482578
-0.0417625
0.00506283
-0.04069
0.00529528
-0.0396447
0.00552334
-0.0386256
0.0057472
-0.0376317
0.00596697
-0.0366619
0.00618272
-0.0357151
0.00639441
-0.0347903
-0.0338859
0.00660187
2.12162e-05
-0.0808686
8.52525e-05
-0.0767658
0.000189869
-0.0732556
0.000331292
-0.0702194
0.000504944
-0.0675616
0.000705945
-0.0652029
0.000929442
-0.0630797
0.00117082
-0.061142
0.00142583
-0.0593506
0.00169068
-0.0576753
0.00196204
-0.0560931
0.0022371
-0.0545866
0.00251348
-0.0531429
0.00278927
-0.0517523
0.00306296
-0.0504079
0.0033334
-0.0491047
0.00359976
-0.0478391
0.00386149
-0.0466085
0.00411828
-0.0454111
0.00437
-0.0442453
0.0046167
-0.0431101
0.00485849
-0.0420043
0.0050956
-0.0409271
0.00532828
-0.0398773
0.00555679
-0.0388541
0.00578136
-0.0378563
0.00600216
-0.0368827
0.0062193
-0.0359323
0.00643278
-0.0350038
-0.0340956
0.00664247
2.20847e-05
-0.0808907
8.80266e-05
-0.0768317
0.00019517
-0.0733627
0.0003395
-0.0703638
0.000516258
-0.0677384
0.000720412
-0.0654071
0.000946982
-0.0633063
0.00119125
-0.0613863
0.00144889
-0.0596082
0.00171605
-0.0579425
0.00198939
-0.0563665
0.00226607
-0.0548633
0.00254372
-0.0534205
0.00282046
-0.052029
0.00309479
-0.0506822
0.00336561
-0.0493755
0.00363213
-0.0481056
0.00389386
-0.0468703
0.00415053
-0.0456678
0.00440208
-0.0444969
0.00464859
-0.0433566
0.00489026
-0.042246
0.00512737
-0.0411642
0.00536022
-0.0401102
0.00558912
-0.039083
0.00581437
-0.0380815
0.00603619
-0.0371045
0.00625472
-0.0361508
0.00647
-0.0352191
-0.0343076
0.00668196
2.28781e-05
-0.0809135
9.06694e-05
-0.0768995
0.000200348
-0.0734724
0.000347631
-0.070511
0.000527549
-0.0679183
0.000734902
-0.0656144
0.000964569
-0.063536
0.00121172
-0.0616334
0.00147197
-0.0598685
0.0017414
-0.0582119
0.00201664
-0.0566417
0.00229485
-0.0551415
0.00257368
-0.0536993
0.00285125
-0.0523066
0.0031261
-0.0509571
0.00339718
-0.0496466
0.00366374
-0.0483722
0.00392534
-0.0471319
0.00418177
-0.0459242
0.00443301
-0.0447481
0.00467923
-0.0436028
0.00492067
-0.0424874
0.00515767
-0.0414012
0.0053906
-0.0403431
0.00561982
-0.0393122
0.00584569
-0.0383074
0.00606847
-0.0373273
0.00628837
-0.0363707
0.00650545
-0.0354361
-0.0345218
0.00671967
2.36366e-05
-0.0809372
9.32505e-05
-0.0769691
0.000205468
-0.0735846
0.000355726
-0.0706613
0.000538832
-0.0681014
0.000749399
-0.065825
0.000982159
-0.0637687
0.00123218
-0.0618834
0.00149497
-0.0601313
0.00176659
-0.0584835
0.00204365
-0.0569188
0.00232328
-0.0554211
0.00260315
-0.0539792
0.00288141
-0.0525848
0.00315665
-0.0512323
0.00342784
-0.0499178
0.00369428
-0.0486386
0.0039556
-0.0473932
0.00421163
-0.0461802
0.00446243
-0.0449989
0.0047082
-0.0438486
0.00494927
-0.0427285
0.00518603
-0.0416379
0.00541892
-0.040576
0.00564837
-0.0395417
0.00587476
-0.0385338
0.00609844
-0.037551
0.00631964
-0.0365919
0.00653848
-0.035655
-0.0347383
0.00675494
2.43822e-05
-0.0809616
9.58046e-05
-0.0770405
0.000210564
-0.0736994
0.000363808
-0.0708145
0.000550107
-0.0682877
0.00076388
-0.0660387
0.000999704
-0.0640045
0.00125253
-0.0621363
0.0015178
-0.0603965
0.00179151
-0.0587573
0.00207026
-0.0571975
0.00235117
-0.055702
0.00263193
-0.05426
0.00291073
-0.0528636
0.00318618
-0.0515078
0.00345731
-0.0501889
0.00372346
-0.0489048
0.00398432
-0.047654
0.00423977
-0.0464357
0.00448994
-0.0452491
0.0047351
-0.0440937
0.00497563
-0.042969
0.005212
-0.0418743
0.0054447
-0.0408087
0.00567422
-0.0397712
0.00590102
-0.0387606
0.00612549
-0.0377754
0.00634791
-0.0368143
0.00656843
-0.0358755
-0.0349569
0.00678709
2.51226e-05
-0.0809867
9.8352e-05
-0.0771138
0.000215652
-0.0738167
0.000371884
-0.0709708
0.000561367
-0.0684772
0.000778317
-0.0662557
0.00101716
-0.0642434
0.00127271
-0.0623918
0.00154036
-0.0606642
0.00181604
-0.0590329
0.00209632
-0.0574778
0.00237836
-0.0559841
0.00265984
-0.0545415
0.00293899
-0.0531428
0.00321446
-0.0517832
0.00348532
-0.0504598
0.00375099
-0.0491705
0.00401117
-0.0479142
0.00426585
-0.0466904
0.00451518
-0.0454984
0.00475952
-0.0443381
0.00499932
-0.0432088
0.00523509
-0.0421101
0.00546742
-0.041041
0.00569685
-0.0400006
0.0059239
-0.0389876
0.00614902
-0.0380006
0.00637253
-0.0370378
0.00659465
-0.0360976
-0.0351777
0.00681541
2.58632e-05
-0.0810125
0.000100899
-0.0771888
0.000220739
-0.0739365
0.000379949
-0.07113
0.000572594
-0.0686698
0.000792679
-0.0664758
0.00103446
-0.0644852
0.00129266
-0.06265
0.00156255
-0.0609341
0.00184005
-0.0593104
0.00212171
-0.0577594
0.00240468
-0.0562671
0.00268669
-0.0548235
0.00296598
-0.0534221
0.00324125
-0.0520585
0.00351163
-0.0507301
0.00377657
-0.0494354
0.00403586
-0.0481735
0.00428952
-0.046944
0.00453779
-0.0457467
0.00478107
-0.0445814
0.0050199
-0.0434477
0.00525485
-0.042345
0.00548659
-0.0412728
0.00571572
-0.0402298
0.00594283
-0.0392147
0.00616842
-0.0382261
0.00639288
-0.0372623
0.00661645
-0.0363212
-0.0354005
0.00683922
2.66063e-05
-0.0810392
0.000103448
-0.0772656
0.000225825
-0.0740589
0.000387999
-0.0712922
0.000583772
-0.0688656
0.000806932
-0.0666989
0.00105157
-0.0647298
0.00131228
-0.0629107
0.00158428
-0.0612061
0.00186343
-0.0595896
0.00214628
-0.0580423
0.00242998
-0.0565508
0.00271229
-0.0551058
0.00299149
-0.0537013
0.00326632
-0.0523333
0.00353597
-0.0509998
0.00379994
-0.0496994
0.00405807
-0.0484316
0.00431046
-0.0471964
0.0045574
-0.0459936
0.00479936
-0.0448233
0.00503694
-0.0436852
0.00527082
-0.0425789
0.0055017
-0.0415036
0.00573028
-0.0404583
0.00595721
-0.0394417
0.00618307
-0.038452
0.00640828
-0.0374875
0.00663315
-0.036546
-0.0356251
0.00685778
2.73502e-05
-0.0810665
0.000105999
-0.0773443
0.000230905
-0.0741838
0.000396021
-0.0714573
0.000594879
-0.0690645
0.000821044
-0.0669251
0.00106844
-0.0649772
0.00133153
-0.0631738
0.00160547
-0.06148
0.00188608
-0.0598702
0.0021699
-0.0583261
0.0024541
-0.056835
0.00273647
-0.0553881
0.00301533
-0.0539801
0.00328947
-0.0526075
0.00355811
-0.0512684
0.00382084
-0.0499621
0.00407754
-0.0486883
0.00432836
-0.0474472
0.00457367
-0.046239
0.00481401
-0.0450637
0.00505005
-0.0439213
0.00528254
-0.0428114
0.00551226
-0.0417334
0.00574
-0.0406861
0.00596649
-0.0396682
0.00619235
-0.0386779
0.00641809
-0.0377133
0.00664404
-0.036772
-0.0358514
0.00687037
2.8095e-05
-0.0810946
0.000108548
-0.0774247
0.000235974
-0.0743112
0.000404007
-0.0716253
0.000605897
-0.0692664
0.000834982
-0.0671542
0.00108501
-0.0652272
0.00135034
-0.0634391
0.00162603
-0.0617557
0.00190789
-0.0601521
0.00219245
-0.0586107
0.00247691
-0.0571194
0.00275907
-0.0556703
0.00303732
-0.0542584
0.00331048
-0.0528806
0.00357784
-0.0515358
0.00383903
-0.0502233
0.00409399
-0.0489433
0.00434293
-0.0476962
0.00458629
-0.0464823
0.00482468
-0.0453021
0.00505884
-0.0441554
0.00528959
-0.0430422
0.00551781
-0.0419616
0.00574437
-0.0409126
0.00597007
-0.0398939
0.00619563
-0.0389034
0.00642162
-0.0379392
0.00664842
-0.0369988
-0.0360792
0.00687622
2.88379e-05
-0.0811234
0.00011109
-0.077507
0.000241025
-0.0744412
0.000411945
-0.0717962
0.000616811
-0.0694712
0.000848721
-0.0673861
0.00110125
-0.0654798
0.00136864
-0.0637065
0.00164588
-0.0620329
0.00192877
-0.060435
0.00221382
-0.0588957
0.00249827
-0.0574039
0.00277996
-0.055952
0.00305729
-0.0545357
0.00332919
-0.0531525
0.00359495
-0.0518015
0.00385428
-0.0504826
0.00410718
-0.0491962
0.00435391
-0.0479429
0.00459498
-0.0467234
0.00483104
-0.0455381
0.00506293
-0.0443873
0.00529156
-0.0432708
0.00551788
-0.0421879
0.00574286
-0.0411376
0.0059674
-0.0401184
0.0061923
-0.0391283
0.0064182
-0.0381651
0.00664555
-0.0372262
-0.0363082
0.00687456
2.95776e-05
-0.081153
0.000113625
-0.077591
0.000246055
-0.0745736
0.000419832
-0.07197
0.000627608
-0.069679
0.000862239
-0.0676207
0.00111712
-0.0657346
0.00138638
-0.0639758
0.00166497
-0.0623115
0.00194864
-0.0607186
0.00223392
-0.059181
0.00251807
-0.057688
0.00279898
-0.0562329
0.00307512
-0.0548118
0.00334542
-0.0534228
0.00360928
-0.0520654
0.00386642
-0.0507398
0.00411692
-0.0494467
0.00436108
-0.0481871
0.00459947
-0.0469618
0.00483282
-0.0457715
0.00506203
-0.0446165
0.00528809
-0.0434968
0.00551205
-0.0424119
0.00573499
-0.0413606
0.00595791
-0.0403413
0.00618171
-0.0393521
0.00640712
-0.0383906
0.00663466
-0.0374537
-0.0365382
0.00686458
3.03103e-05
-0.0811833
0.000116146
-0.0776769
0.000251064
-0.0747085
0.000427665
-0.0721466
0.000638283
-0.0698896
0.00087552
-0.067858
0.0011326
-0.0659917
0.00140353
-0.0642467
0.00168322
-0.0625912
0.00196741
-0.0610028
0.00225264
-0.0594662
0.00253621
-0.0579716
0.00281604
-0.0565128
0.00309066
-0.0550864
0.00335906
-0.0536912
0.00362067
-0.052327
0.00387529
-0.0509944
0.00412303
-0.0496944
0.00436425
-0.0484283
0.00459956
-0.0471971
0.00482977
-0.0460017
0.00505584
-0.0448426
0.00527885
-0.0437199
0.00549995
-0.042633
0.00572032
-0.0415809
0.00594109
-0.0405621
0.00616327
-0.0395743
0.0063877
-0.038615
0.00661498
-0.037681
-0.0367686
0.00684542
3.10328e-05
-0.0812144
0.000118655
-0.0777645
0.000256056
-0.0748459
0.000435454
-0.072326
0.00064884
-0.070103
0.000888557
-0.0680977
0.00114765
-0.0662508
0.00142005
-0.0645191
0.00170059
-0.0628718
0.00198502
-0.0612872
0.00226992
-0.0597511
0.00255259
-0.0582543
0.00283104
-0.0567912
0.00310382
-0.0553592
0.00336999
-0.0539574
0.00362902
-0.0525861
0.00388077
-0.0512461
0.00412539
-0.049939
0.00436328
-0.0486662
0.00459511
-0.0474289
0.00482173
-0.0462283
0.00504417
-0.045065
0.0052636
-0.0439393
0.00548126
-0.0428506
0.00569845
-0.0417981
0.00591644
-0.0407801
0.00613638
-0.0397942
0.00635924
-0.0388378
0.00658572
-0.0379074
-0.0369991
0.00681619
3.17425e-05
-0.0812461
0.000121154
-0.0778539
0.000261046
-0.0749858
0.000443215
-0.0725082
0.00065929
-0.0703191
0.00090135
-0.0683397
0.00116227
-0.0665117
0.0014359
-0.0647928
0.00171704
-0.0631529
0.00200143
-0.0615716
0.00228568
-0.0600354
0.00256716
-0.0585357
0.0028439
-0.0570679
0.00311452
-0.0556298
0.00337813
-0.054221
0.00363426
-0.0528422
0.00388279
-0.0514947
0.00412392
-0.0501802
0.00435811
-0.0489004
0.00458604
-0.0476568
0.00480861
-0.0464509
0.00502691
-0.0452833
0.00524217
-0.0441545
0.00545575
-0.0430642
0.00566907
-0.0420114
0.00588355
-0.0409946
0.00610051
-0.0400112
0.00632107
-0.0390584
0.00654608
-0.0381325
-0.037229
0.00677598
3.24344e-05
-0.0812785
0.000123652
-0.0779451
0.000266057
-0.0751282
0.00045098
-0.0726931
0.000669661
-0.0705378
0.000913912
-0.068584
0.00117646
-0.0667743
0.00145106
-0.0650674
0.00173251
-0.0634344
0.00201657
-0.0618557
0.00229988
-0.0603187
0.00257984
-0.0588157
0.00285456
-0.0573427
0.0031227
-0.055898
0.00338343
-0.0544817
0.00363633
-0.0530951
0.00388131
-0.0517397
0.00411862
-0.0504175
0.00434872
-0.0491305
0.00457235
-0.0478805
0.00479041
-0.0466689
0.00500404
-0.045497
0.00521452
-0.044365
0.00542333
-0.043273
0.00563199
-0.0422201
0.00584211
-0.0412047
0.0060552
-0.0402243
0.00627258
-0.0392758
0.00649528
-0.0383552
-0.0374575
0.00672385
3.31066e-05
-0.0813116
0.000126171
-0.0780382
0.000271134
-0.0752732
0.000458799
-0.0728808
0.000679991
-0.0707589
0.000926262
-0.0688303
0.0011902
-0.0670382
0.00146552
-0.0653427
0.00174699
-0.0637158
0.00203041
-0.0621391
0.00231246
-0.0606007
0.0025906
-0.0590938
0.00286299
-0.057615
0.00312834
-0.0561633
0.00338588
-0.0547393
0.00363523
-0.0533444
0.00387636
-0.0519808
0.00410951
-0.0506506
0.0043352
-0.0493562
0.00455413
-0.0480994
0.00476724
-0.0468821
0.00497568
-0.0457054
0.00518078
-0.0445701
0.00538407
-0.0434763
0.00558722
-0.0424233
0.005792
-0.0414095
0.00600016
-0.0404324
0.00621327
-0.0394889
0.0064326
-0.0385745
-0.0376838
0.00665885
3.37609e-05
-0.0813454
0.000128749
-0.0781332
0.000276349
-0.0754208
0.000466746
-0.0730712
0.000690335
-0.0709825
0.000938429
-0.0690784
0.00120351
-0.0673033
0.00147925
-0.0656184
0.00176044
-0.063997
0.00204292
-0.0624216
0.00232339
-0.0608812
0.0025994
-0.0593698
0.00286914
-0.0578848
0.00313141
-0.0564256
0.00338547
-0.0549933
0.003631
-0.0535899
0.00386799
-0.0522178
0.00409671
-0.0508793
0.00431767
-0.0495771
0.00453158
-0.0483133
0.00473936
-0.0470898
0.00494213
-0.0459082
0.00514125
-0.0447692
0.00533827
-0.0436733
0.00553498
-0.04262
0.00573333
-0.0416078
0.00593531
-0.0406344
0.00614283
-0.0396964
0.00635746
-0.0387891
-0.0379065
0.00658015
3.44133e-05
-0.0813798
0.000131462
-0.0782302
0.000281812
-0.0755711
0.000474925
-0.0732643
0.000700766
-0.0712084
0.000950448
-0.069328
0.00121638
-0.0675692
0.00149224
-0.0658943
0.00177283
-0.0642776
0.00205404
-0.0627028
0.00233264
-0.0611598
0.0026062
-0.0596434
0.00287301
-0.0581516
0.00313191
-0.0566845
0.00338223
-0.0552437
0.00362368
-0.0538314
0.00385629
-0.0524504
0.00408035
-0.0511034
0.00429636
-0.0497931
0.00450499
-0.0485219
0.00470714
-0.047292
0.00490386
-0.0461049
0.00509647
-0.0449618
0.00528653
-0.0438634
0.00547587
-0.0428093
0.00566658
-0.0417985
0.00586096
-0.0408288
0.00606128
-0.0398967
0.00626955
-0.0389974
-0.038124
0.00648706
3.5106e-05
-0.0814149
0.000134449
-0.0783296
0.000287694
-0.0757244
0.000483476
-0.0734601
0.00071137
-0.0714363
0.000962354
-0.069579
0.00122882
-0.0678357
0.00150446
-0.0661699
0.00178413
-0.0645573
0.00206374
-0.0629824
0.00234014
-0.0614362
0.00261097
-0.0599142
0.00287457
-0.0584152
0.00312985
-0.0569398
0.00337619
-0.05549
0.00361335
-0.0540686
0.0038414
-0.0526784
0.00406064
-0.0513226
0.00427154
-0.050004
0.00447475
-0.0487252
0.00467109
-0.0474883
0.00486153
-0.0462953
0.00504728
-0.0451476
0.0052298
-0.0440459
0.00541091
-0.0429904
0.0055928
-0.0419804
0.00577798
-0.041014
0.00596918
-0.0400879
0.006169
-0.0391972
-0.0383342
0.00637924
3.59552e-05
-0.0814509
0.000137953
-0.0784316
0.000294244
-0.0758807
0.000492578
-0.0736584
0.000722241
-0.0716659
0.000974178
-0.069831
0.00124081
-0.0681023
0.00151587
-0.066445
0.00179427
-0.0648357
0.00207196
-0.0632601
0.00234586
-0.0617101
0.00261366
-0.060182
0.00287378
-0.0586753
0.0031252
-0.0571912
0.00336735
-0.0557322
0.00360006
-0.0543013
0.00382343
-0.0529018
0.00403775
-0.051537
0.00424351
-0.0502098
0.0044413
-0.048923
0.00463185
-0.0476789
0.00481599
-0.0464795
0.00499477
-0.0453264
0.00516946
-0.0442206
0.00534174
-0.0431627
0.00551372
-0.0421524
0.00568807
-0.0411883
0.00586797
-0.0402678
0.00605672
-0.0393859
-0.0385345
0.00625695
3.72192e-05
-0.0814881
0.000142388
-0.0785367
0.000301809
-0.0760401
0.000502436
-0.073859
0.000733467
-0.071897
0.000985927
-0.0700834
0.00125231
-0.0683687
0.00152642
-0.0667191
0.00180318
-0.0651125
0.00207863
-0.0635355
0.00234971
-0.0619812
0.00261421
-0.0604465
0.0028706
-0.0589317
0.00311793
-0.0574385
0.00335573
-0.05597
0.00358386
-0.0545294
0.00380247
-0.0531204
0.00401188
-0.0517464
0.00421257
-0.0504105
0.00440509
-0.0491155
0.00459006
-0.0478638
0.00476819
-0.0466576
0.00494027
-0.0454985
0.00510732
-0.0443877
0.00527065
-0.043326
0.00543211
-0.0423138
0.00559425
-0.0413505
0.00576053
-0.0404341
0.00593512
-0.0395605
-0.0387212
0.00612188
3.93994e-05
-0.0815275
0.000148374
-0.0786457
0.00031081
-0.0762025
0.000513252
-0.0740615
0.000745097
-0.0721288
0.000997569
-0.0703359
0.00126326
-0.0686344
0.00153601
-0.0669918
0.00181079
-0.0653872
0.00208365
-0.0638084
0.00235161
-0.0622491
0.00261252
-0.0607075
0.00286494
-0.0591841
0.00310799
-0.0576816
0.00334127
-0.0562032
0.00356472
-0.0547529
0.00377855
-0.0533342
0.00398312
-0.0519509
0.00417891
-0.0506063
0.00436645
-0.049303
0.00454631
-0.0480437
0.00471904
-0.0468303
0.00488521
-0.0456646
0.00504546
-0.0445479
0.00520061
-0.0434812
0.00535191
-0.0424651
0.00550133
-0.0414999
0.00565207
-0.0405849
0.0058091
-0.0397176
-0.0388904
0.00597825
4.34281e-05
-0.0815709
0.000156875
-0.0787592
0.000321787
-0.0763674
0.000525211
-0.0742649
0.00075713
-0.0723607
0.00100902
-0.0705878
0.00127354
-0.0688989
0.00154452
-0.0672628
0.00181695
-0.0656597
0.0020869
-0.0640784
0.00235144
-0.0625137
0.00260848
-0.0609645
0.00285668
-0.0594323
0.00309525
-0.0579201
0.00332387
-0.0564319
0.00354256
-0.0549716
0.0037516
-0.0535433
0.00395142
-0.0521508
0.00414255
-0.0507974
0.00432554
-0.049486
0.00450093
-0.0482191
0.00466918
-0.0469986
0.00483071
-0.0458261
0.0049858
-0.044703
0.00513472
-0.0436301
0.00527782
-0.0426082
0.00541584
-0.0416379
0.00555056
-0.0407196
0.00568655
-0.0398536
-0.0390373
0.00583348
5.17607e-05
-0.0816227
0.000169882
-0.0788773
0.000335536
-0.0765331
0.000538434
-0.0744678
0.000769433
-0.0725917
0.00102009
-0.0708384
0.00128296
-0.0691618
0.00155178
-0.0675316
0.00182151
-0.0659294
0.00208822
-0.0643451
0.00234903
-0.0627745
0.00260194
-0.0612174
0.00284568
-0.059676
0.00307955
-0.058154
0.00330335
-0.0566557
0.00351718
-0.0551854
0.00372142
-0.0537475
0.00391659
-0.0523459
0.00410329
-0.0509841
0.00428216
-0.0496649
0.0044538
-0.0483907
0.00461872
-0.0471635
0.00477731
-0.0459847
0.00492973
-0.0448554
0.00507586
-0.0437762
0.00521519
-0.0427476
0.0053467
-0.0417694
0.00546868
-0.0408415
0.00558208
-0.039967
-0.0391575
0.00570229
7.21923e-05
-0.0816949
0.000190375
-0.0789955
0.000352324
-0.076695
0.000552492
-0.0746679
0.000781538
-0.0728208
0.0010304
-0.0710873
0.00129123
-0.0694226
0.00155756
-0.0677979
0.00182426
-0.0661961
0.00208742
-0.0646082
0.00234421
-0.0630313
0.0025927
-0.0614659
0.00283172
-0.0599151
0.00306068
-0.058383
0.00327946
-0.0568744
0.00348829
-0.0553942
0.00368765
-0.0539469
0.00387816
-0.0525364
0.00406056
-0.0511665
0.00423562
-0.0498399
0.0044041
-0.0485592
0.00456675
-0.0473262
0.00472426
-0.0461422
0.00487721
-0.0450084
0.00502598
-0.043925
0.00517053
-0.0428921
0.00530946
-0.0419084
0.00543671
-0.0409688
0.00553866
-0.0400689
-0.0392331
0.00561423
0.0829091
5.61669e-05
-0.0829652
0.0828638
4.52957e-05
0.0828221
4.16126e-05
0.0827817
4.04828e-05
0.0827412
4.04236e-05
0.0827004
4.08558e-05
0.0826589
4.14758e-05
0.0826168
4.21336e-05
0.082574
4.27675e-05
0.0825307
4.33475e-05
0.0824868
4.38512e-05
0.0824425
4.4258e-05
0.082398
4.45633e-05
0.0823532
4.47819e-05
0.0823083
4.49196e-05
0.0822633
4.49785e-05
0.0822183
4.49618e-05
0.0821735
4.48712e-05
0.0821288
4.47059e-05
0.0820843
4.44669e-05
0.0820401
4.41518e-05
0.0819964
4.37565e-05
0.0819531
4.32693e-05
0.0819104
4.26737e-05
0.0818685
4.19323e-05
0.0818275
4.09714e-05
0.0817879
3.96294e-05
0.0817504
3.75299e-05
0.0817169
3.35019e-05
2.20098e-05
0.082042
0.000142381
-0.0821282
0.0819516
0.000135652
0.08186
0.000133218
0.0817672
0.000133307
0.0816729
0.000134705
0.0815769
0.000136814
0.0814791
0.000139263
0.0813795
0.000141817
0.0812779
0.000144352
0.0811745
0.000146768
0.0810693
0.000148975
0.0809627
0.00015093
0.0808546
0.000152606
0.0807454
0.000154015
0.0806352
0.000155158
0.0805241
0.000156036
0.0804124
0.000156653
0.0803003
0.00015701
0.0801879
0.000157106
0.0800754
0.000156941
0.079963
0.000156511
0.079851
0.000155805
0.0797394
0.000154801
0.0796287
0.000153463
0.0795189
0.000151723
0.0794104
0.000149456
0.0793036
0.000146421
0.079199
0.000142143
0.0790969
0.000135533
0.000123486
0.0810028
0.000242999
-0.0811035
0.0808935
0.00024499
0.0807783
0.000248448
0.0806584
0.000253204
0.0805343
0.000258744
0.0804064
0.000264711
0.0802749
0.000270856
0.0801397
0.000276987
0.0800011
0.000282982
0.0798591
0.000288713
0.0797141
0.00029403
0.0795661
0.000298877
0.0794155
0.000303224
0.0792624
0.000307061
0.0791072
0.000310377
0.0789501
0.00031317
0.0787913
0.000315436
0.0786311
0.000317177
0.0784699
0.00031839
0.0783077
0.000319074
0.078145
0.000319223
0.077982
0.000318823
0.0778189
0.000317851
0.0776561
0.000316266
0.0774939
0.000313994
0.0773324
0.000310913
0.077172
0.000306817
0.0770128
0.00030135
0.0768545
0.000293858
0.000282947
0.0797672
0.000346148
-0.0798704
0.0796542
0.000358059
0.0795327
0.000369954
0.0794038
0.00038206
0.0792683
0.000394253
0.0791266
0.00040637
0.0789792
0.000418282
0.0788263
0.000429883
0.0786682
0.000441064
0.0785052
0.000451719
0.0783376
0.000461696
0.0781655
0.0004709
0.0779894
0.000479337
0.0778095
0.000486964
0.0776261
0.000493766
0.0774396
0.000499728
0.0772502
0.000504845
0.0770582
0.000509113
0.0768641
0.000512531
0.0766681
0.000515094
0.0764705
0.000516798
0.0762717
0.000517631
0.076072
0.000517573
0.0758717
0.00051659
0.075671
0.000514623
0.0754704
0.000511581
0.0752699
0.000507321
0.0750696
0.000501626
0.0748693
0.000494146
0.000484286
0.0783406
0.000441821
-0.0784363
0.0782342
0.000464484
0.0781177
0.000486369
0.0779921
0.000507714
0.0778578
0.000528522
0.0777155
0.000548728
0.0775655
0.00056828
0.0774082
0.000587111
0.0772441
0.000605168
0.0770735
0.000622327
0.0768968
0.000638466
0.0767141
0.000653523
0.076526
0.000667466
0.0763327
0.000680259
0.0761346
0.000691875
0.075932
0.0007023
0.0757253
0.000711522
0.0755149
0.000719534
0.0753011
0.000726332
0.0750843
0.000731914
0.0748648
0.000736275
0.0746431
0.000739408
0.0744193
0.000741302
0.074194
0.000741935
0.0739673
0.000741271
0.0737397
0.000739254
0.0735112
0.000735807
0.073282
0.000730816
0.073052
0.000724126
0.000715513
0.0767433
0.000523145
-0.0768246
0.0766504
0.000557346
0.0765465
0.000590325
0.076432
0.000622241
0.0763074
0.000653116
0.0761732
0.000682913
0.0760298
0.00071162
0.0758777
0.000739209
0.0757173
0.000765585
0.075549
0.000790671
0.0753731
0.000814382
0.07519
0.000836637
0.075
0.000857406
0.0748036
0.000876653
0.0746011
0.00089435
0.074393
0.000910475
0.0741795
0.000925016
0.0739611
0.00093796
0.0737381
0.000949304
0.073511
0.000959044
0.07328
0.00096718
0.0730457
0.000973709
0.0728084
0.000978629
0.0725684
0.000981933
0.0723261
0.000983608
0.0720817
0.000983634
0.0718355
0.000981982
0.0715877
0.000978617
0.0713384
0.000973497
0.000966572
0.0750053
0.000586027
-0.0750681
0.0749302
0.00063245
0.0748431
0.000677342
0.0747446
0.000720787
0.0746349
0.000762785
0.0745145
0.000803301
0.0743838
0.000842331
0.0742432
0.000879865
0.074093
0.000915782
0.0739337
0.000949982
0.0737656
0.00098243
0.0735892
0.00101305
0.0734048
0.0010418
0.0732128
0.00106865
0.0730136
0.00109356
0.0728076
0.0011165
0.0725951
0.00113747
0.0723766
0.00115644
0.0721525
0.00117342
0.0719232
0.00118838
0.071689
0.00120135
0.0714504
0.00121232
0.0712077
0.0012213
0.0709614
0.00122829
0.0707117
0.00123331
0.070459
0.00123635
0.0702035
0.00123744
0.0699455
0.00123658
0.0696852
0.00123381
0.00122915
0.0731603
0.000628532
-0.0732028
0.0731051
0.000687712
0.0730373
0.000745116
0.0729573
0.000800774
0.0728654
0.000854657
0.072762
0.00090671
0.0726474
0.00095693
0.072522
0.0010053
0.0723861
0.00105168
0.0722402
0.00109593
0.0720845
0.00113805
0.0719196
0.00117799
0.0717457
0.00121569
0.0715632
0.0012511
0.0713726
0.00128419
0.0711742
0.00131492
0.0709684
0.00134327
0.0707556
0.00136923
0.0705362
0.00139279
0.0703107
0.00141394
0.0700793
0.00143269
0.0698426
0.00144904
0.0696009
0.00146302
0.0693546
0.00147463
0.069104
0.0014839
0.0688495
0.00149086
0.0685914
0.00149555
0.0683299
0.00149803
0.0680654
0.00149835
0.00149659
0.0712427
0.000650326
-0.0712645
0.0712078
0.000722633
0.0711599
0.000792962
0.0710994
0.000861302
0.0710265
0.000927596
0.0709414
0.000991763
0.0708445
0.00105379
0.0707362
0.00111361
0.0706168
0.0011711
0.0704866
0.00122613
0.070346
0.00127864
0.0701954
0.00132865
0.070035
0.00137605
0.0698653
0.0014208
0.0696867
0.00146284
0.0694994
0.00150214
0.069304
0.00153868
0.0691008
0.00157242
0.0688903
0.00160337
0.0686727
0.00163152
0.0684485
0.00165686
0.0682181
0.00167941
0.067982
0.00169919
0.0677404
0.00171623
0.0674937
0.00173056
0.0672423
0.00174222
0.0669866
0.00175129
0.0667268
0.00175783
0.0664632
0.00176194
0.00176371
0.0692844
0.000652204
-0.0692863
0.0692692
0.000737861
0.0692408
0.000821366
0.0691994
0.000902679
0.0691453
0.000981715
0.0690786
0.00105838
0.0689998
0.00113259
0.0689092
0.0012043
0.0688069
0.00127335
0.0686934
0.00133962
0.068569
0.0014031
0.0684339
0.00146371
0.0682886
0.00152138
0.0681333
0.00157604
0.0679685
0.00162763
0.0677945
0.00167611
0.0676118
0.00172146
0.0674206
0.00176363
0.0672213
0.00180261
0.0670144
0.00183841
0.0668003
0.00187101
0.0665793
0.00190043
0.0663518
0.00192669
0.0661182
0.00194983
0.0658788
0.00196989
0.0656341
0.00198693
0.0653844
0.00200102
0.06513
0.00201226
0.0648712
0.00202076
0.00202663
0.0673141
0.000635725
-0.0672976
0.0673171
0.000734829
0.0673068
0.000831628
0.0672834
0.000926056
0.0672472
0.00101801
0.0671982
0.00110736
0.0671367
0.00119402
0.0670632
0.00127784
0.0669778
0.00135875
0.0668808
0.00143664
0.0667725
0.00151141
0.0666532
0.001583
0.0665232
0.00165132
0.066383
0.00171629
0.0662328
0.00177786
0.0660729
0.00183597
0.0659038
0.00189057
0.0657258
0.00194165
0.0655392
0.00198916
0.0653445
0.0020331
0.0651421
0.00207348
0.0649322
0.00211029
0.0647153
0.00214357
0.0644918
0.00217335
0.064262
0.00219967
0.0640263
0.00222262
0.0637851
0.00224227
0.0635386
0.00225873
0.0632872
0.00227213
0.00228259
0.0653563
0.000602923
-0.0653234
0.0653756
0.000715471
0.0653817
0.000825575
0.0653746
0.000933147
0.0653545
0.00103806
0.0653217
0.00114018
0.0652763
0.00123937
0.0652187
0.00133547
0.065149
0.00142841
0.0650676
0.00151808
0.0649747
0.00160434
0.0648706
0.00168712
0.0647556
0.00176632
0.06463
0.00184187
0.0644942
0.00191369
0.0643484
0.00198171
0.0641931
0.00204589
0.0640285
0.00210619
0.0638551
0.00216258
0.0636732
0.00221504
0.0634831
0.00226356
0.0632852
0.00230815
0.06308
0.00234884
0.0628677
0.00238566
0.0626487
0.00241866
0.0624234
0.00244792
0.0621921
0.00247353
0.0619552
0.00249561
0.0617131
0.0025143
0.00252974
0.0634313
0.000556086
-0.0633845
0.0634648
0.000682001
0.063485
0.000805345
0.0634922
0.000926002
0.0634864
0.00104382
0.0634679
0.0011587
0.0634368
0.00127045
0.0633934
0.00137887
0.0633379
0.00148387
0.0632707
0.00158535
0.0631918
0.00168317
0.0631017
0.00177723
0.0630006
0.00186743
0.0628888
0.00195368
0.0627666
0.0020359
0.0626343
0.00211401
0.0624923
0.00218795
0.0623408
0.00225768
0.0621802
0.00232315
0.0620109
0.00238435
0.0618332
0.00244126
0.0616474
0.00249389
0.061454
0.00254225
0.0612533
0.00258639
0.0610456
0.00262634
0.0608313
0.0026622
0.0606108
0.00269406
0.0603843
0.00272205
0.0601523
0.00274632
0.00276702
0.0615555
0.000497598
-0.061497
0.0616007
0.000636754
0.0616329
0.000773216
0.061652
0.000906844
0.0616584
0.00103748
0.0616521
0.00116501
0.0616333
0.00128925
0.0616022
0.00140993
0.0615591
0.00152693
0.0615043
0.00164017
0.061438
0.00174952
0.0613603
0.00185486
0.0612717
0.00195607
0.0611723
0.00205305
0.0610625
0.00214571
0.0609426
0.00223396
0.0608128
0.00231773
0.0606735
0.00239698
0.060525
0.00247164
0.0603677
0.0025417
0.0602018
0.00260714
0.0600277
0.00266794
0.0598459
0.00272413
0.0596565
0.00277574
0.05946
0.00282282
0.0592568
0.00286545
0.0590471
0.00290373
0.0588314
0.00293779
0.0586099
0.0029678
0.00299393
0.0597412
0.000429821
-0.0596734
0.0597959
0.000582058
0.0598376
0.000731482
0.0598665
0.000877938
0.0598828
0.00102124
0.0598865
0.00116128
0.0598779
0.00129785
0.0598572
0.00143065
0.0598246
0.00155951
0.0597804
0.00168441
0.0597247
0.0018052
0.0596578