/*--------------------------------*- C++ -*----------------------------------*\
| =========                 |                                                 |
| \\      /  F ield         | OpenFOAM: The Open Source CFD Toolbox           |
|  \\    /   O peration     | Version:  v1912                                 |
|   \\  /    A nd           | Website:  www.openfoam.com                      |
|    \\/     M anipulation  |                                                 |
\*---------------------------------------------------------------------------*/
FoamFile
{
    version     2.0;
    format      ascii;
    class       volScalarField;
    location    "67";
    object      p;
}
// * * * * * * * * * * * * * * * * * * * * * * * * * * * * * * * * * * * * * //

dimensions      [0 2 -2 0 0 0 0];


internalField   nonuniform List<scalar> 
9600
(
-41.488
-36.2233
-32.9966
-30.2594
-27.7541
-25.4874
-23.4308
-21.5567
-19.8474
-18.2893
-16.8698
-15.577
-14.3994
-13.3264
-12.3478
-11.4543
-10.6373
-9.88898
-9.20182
-8.57362
-42.2481
-36.9658
-33.7031
-30.9231
-28.3726
-26.0618
-23.9638
-22.0519
-20.3087
-18.7206
-17.2747
-15.9587
-14.7609
-13.6699
-12.6754
-11.7677
-10.9379
-10.1779
-9.47958
-8.8421
-43.0098
-37.7043
-34.4042
-31.5811
-28.9853
-26.6301
-24.4908
-22.5411
-20.7643
-19.1464
-17.6745
-16.3356
-15.1178
-14.0092
-12.999
-12.0773
-11.2349
-10.4631
-9.75377
-9.1072
-43.7699
-38.4384
-35.0995
-32.2327
-29.5911
-27.1915
-25.0108
-23.0237
-21.2134
-19.5661
-18.0684
-16.7071
-15.4695
-14.3435
-13.318
-12.3824
-11.5276
-10.7443
-10.0239
-9.36857
-44.5255
-39.1665
-35.7879
-32.8766
-30.1891
-27.7449
-25.5229
-23.4985
-21.6551
-19.9788
-18.4557
-17.0723
-15.8153
-14.6724
-13.6317
-12.6827
-11.8156
-11.0209
-10.2898
-9.62594
-45.2745
-39.8872
-36.4681
-33.5119
-30.778
-28.2894
-26.0262
-23.9647
-22.0887
-20.3837
-18.8358
-17.4306
-16.1547
-14.9951
-13.9397
-12.9775
-12.0984
-11.2926
-10.5509
-9.87903
-46.0151
-40.599
-37.1391
-34.1373
-31.357
-28.8238
-26.5197
-24.4215
-22.5132
-20.7801
-19.2077
-17.7814
-16.487
-15.3112
-14.2414
-13.2664
-12.3757
-11.559
-10.807
-10.1276
-46.7458
-41.3005
-37.7994
-34.7518
-31.9248
-29.3472
-27.0024
-24.868
-22.9278
-21.1671
-19.5708
-18.1238
-16.8115
-15.6199
-14.5362
-13.5487
-12.6469
-11.8197
-11.0578
-10.3713
-47.4652
-41.9905
-38.4479
-35.3541
-32.4806
-29.8586
-27.4735
-25.3032
-23.3318
-21.544
-19.9244
-18.4572
-17.1274
-15.9206
-14.8235
-13.824
-12.9113
-12.0741
-11.3027
-10.6098
-48.1721
-42.6678
-39.0834
-35.9434
-33.0231
-30.3571
-27.932
-25.7264
-23.7242
-21.9099
-20.2675
-18.7808
-17.434
-16.2124
-15.1024
-14.0915
-13.1685
-12.3216
-11.5413
-10.8426
-48.8653
-43.3311
-39.705
-36.5184
-33.5516
-30.8417
-28.377
-26.1365
-24.1042
-22.264
-20.5994
-19.0936
-17.7305
-16.4947
-15.3722
-14.3504
-13.4177
-12.5617
-11.7729
-11.0693
-49.544
-43.9796
-40.3114
-37.0783
-34.0649
-31.3116
-28.8077
-26.5329
-24.471
-22.6055
-20.9193
-19.395
-18.016
-16.7665
-15.6321
-14.5999
-13.6579
-12.7934
-11.9968
-11.2889
-50.2074
-44.6124
-40.902
-37.6222
-34.5624
-31.7658
-29.2232
-26.9147
-24.8237
-22.9334
-21.2261
-19.6839
-18.2895
-17.0268
-15.881
-14.8388
-13.8883
-13.0159
-12.212
-11.5008
-50.8549
-45.2286
-41.4758
-38.1492
-35.0431
-32.2037
-29.6229
-27.2811
-25.1616
-23.2471
-21.5192
-19.9594
-18.55
-17.2744
-16.1175
-15.066
-14.1073
-13.2277
-12.4175
-11.7043
-51.4859
-45.8274
-42.032
-38.6586
-35.5065
-32.6245
-30.0061
-27.6316
-25.4841
-23.5458
-21.7976
-20.2206
-18.7964
-17.5081
-16.3403
-15.2795
-14.313
-13.4266
-12.611
-11.8974
-52.1
-46.408
-42.5699
-39.1497
-35.9518
-33.0278
-30.3721
-27.9655
-25.7906
-23.8289
-22.0608
-20.4667
-19.0278
-17.7269
-16.5482
-15.4781
-14.5037
-13.6107
-12.7898
-12.0749
-52.6985
-46.9705
-43.0888
-39.622
-36.3784
-33.4127
-30.7205
-28.2823
-26.0804
-24.0958
-22.308
-20.6969
-19.2433
-17.9297
-16.74
-15.6607
-14.6789
-13.7796
-12.9528
-12.2333
-53.2857
-47.5157
-43.588
-40.0741
-36.7854
-33.7788
-31.0507
-28.5817
-26.3535
-24.3462
-22.5388
-20.9105
-19.4418
-18.1147
-16.9135
-15.8248
-14.8359
-13.9309
-13.0991
-12.384
-53.8637
-48.0434
-44.0659
-40.5052
-37.1724
-34.126
-31.363
-28.8641
-26.6101
-24.5806
-22.7536
-21.1078
-19.6229
-18.2806
-17.0653
-15.9636
-14.9627
-14.0468
-13.2138
-12.5312
-54.4107
-48.5457
-44.5214
-40.9157
-37.5407
-34.4559
-31.6592
-29.1313
-26.8523
-24.801
-22.9547
-21.2911
-19.7892
-18.43
-17.1971
-16.0757
-15.051
-14.1094
-13.2654
-12.5891
-59.8675
-59.8361
-59.7668
-59.6743
-59.558
-59.4152
-59.2455
-59.0494
-58.8275
-58.5803
-58.3083
-58.0122
-57.6925
-57.35
-56.9854
-56.5996
-56.1937
-55.7694
-55.3295
-54.8772
-53.5186
-53.516
-53.4802
-53.4169
-53.3267
-53.2092
-53.0645
-52.8935
-52.6968
-52.475
-52.2287
-51.9585
-51.6651
-51.3492
-51.0112
-50.6519
-50.272
-49.872
-49.4523
-49.0109
-48.8742
-48.8959
-48.8884
-48.852
-48.7882
-48.6977
-48.5813
-48.4394
-48.2728
-48.082
-47.8676
-47.6302
-47.3704
-47.0886
-46.7854
-46.4612
-46.1164
-45.7509
-45.3644
-44.9551
-44.6433
-44.6828
-44.6957
-44.6814
-44.6409
-44.5753
-44.4851
-44.371
-44.2334
-44.073
-43.8902
-43.6856
-43.4597
-43.2129
-42.9456
-42.6582
-42.3508
-42.0233
-41.6755
-41.3065
-40.7312
-40.7805
-40.806
-40.8067
-40.7832
-40.7362
-40.6664
-40.5744
-40.4605
-40.3253
-40.1694
-39.9931
-39.797
-39.5815
-39.3468
-39.0934
-38.8212
-38.5302
-38.2202
-37.8906
-37.2177
-37.2712
-37.3031
-37.3125
-37.2996
-37.265
-37.2094
-37.1332
-37.0369
-36.921
-36.786
-36.6324
-36.4605
-36.2709
-36.0638
-35.8394
-35.5979
-35.3392
-35.063
-34.7689
-34.0938
-34.1472
-34.1809
-34.1941
-34.1867
-34.1594
-34.1127
-34.0472
-33.9631
-33.8611
-33.7417
-33.6052
-33.4521
-33.283
-33.098
-32.8976
-32.6817
-32.4503
-32.2032
-31.9398
-31.3226
-31.3733
-31.4057
-31.4191
-31.4137
-31.3899
-31.3482
-31.2892
-31.2132
-31.1207
-31.0123
-30.8884
-30.7495
-30.5961
-30.4286
-30.2473
-30.0524
-29.8437
-29.6211
-29.384
-28.8645
-28.9107
-28.9399
-28.9515
-28.9457
-28.9229
-28.8836
-28.8283
-28.7573
-28.6711
-28.5704
-28.4555
-28.3271
-28.1858
-28.0318
-27.8658
-27.6878
-27.498
-27.296
-27.0812
-26.6795
-26.7205
-26.7456
-26.7544
-26.747
-26.7237
-26.6851
-26.6315
-26.5634
-26.4814
-26.3859
-26.2776
-26.157
-26.0247
-25.8814
-25.7275
-25.5634
-25.3892
-25.2047
-25.0091
-24.7305
-24.7663
-24.7871
-24.7925
-24.7827
-24.7582
-24.7193
-24.6664
-24.6
-24.5207
-24.4289
-24.3252
-24.2104
-24.0852
-23.9501
-23.806
-23.6534
-23.4924
-23.323
-23.1444
-22.9847
-23.0154
-23.0319
-23.034
-23.0217
-22.9956
-22.9559
-22.9031
-22.8377
-22.76
-22.6708
-22.5706
-22.4602
-22.3404
-22.212
-22.0758
-21.9327
-21.7831
-21.6271
-21.4637
-21.4137
-21.4397
-21.4523
-21.4512
-21.4365
-21.4087
-21.3681
-21.3151
-21.2502
-21.1738
-21.0864
-20.9888
-20.8818
-20.7662
-20.643
-20.5133
-20.3783
-20.2385
-20.0946
-19.9455
-19.9937
-20.0156
-20.0246
-20.0206
-20.0037
-19.9744
-19.9329
-19.8796
-19.815
-19.7394
-19.6535
-19.558
-19.4536
-19.3413
-19.2222
-19.0977
-18.9693
-18.8382
-18.7055
-18.5701
-18.7049
-18.7231
-18.7289
-18.7224
-18.7036
-18.6729
-18.6306
-18.577
-18.5126
-18.4378
-18.3531
-18.2592
-18.1568
-18.047
-17.9311
-17.8107
-17.6877
-17.5638
-17.4416
-17.3196
-17.5308
-17.5457
-17.5487
-17.5399
-17.5194
-17.4875
-17.4446
-17.3908
-17.3266
-17.2524
-17.1687
-17.0761
-16.9753
-16.8674
-16.7537
-16.6361
-16.5171
-16.399
-16.2864
-16.1777
-16.4576
-16.4695
-16.47
-16.4592
-16.4372
-16.4044
-16.3608
-16.3069
-16.2429
-16.1692
-16.0862
-15.9945
-15.8948
-15.7881
-15.6757
-15.5595
-15.4428
-15.3285
-15.224
-15.1271
-15.4734
-15.4828
-15.4814
-15.4691
-15.4461
-15.4125
-15.3687
-15.3147
-15.251
-15.1779
-15.0956
-15.0047
-14.9058
-14.7997
-14.6877
-14.5715
-14.4552
-14.3423
-14.2448
-14.1571
-14.567
-14.575
-14.5727
-14.5599
-14.5368
-14.5035
-14.4604
-14.4076
-14.3452
-14.2737
-14.1933
-14.1043
-14.0073
-13.9028
-13.7918
-13.6759
-13.5588
-13.4456
-13.355
-13.2814
-13.7332
-13.738
-13.7331
-13.7185
-13.6943
-13.6607
-13.6178
-13.5659
-13.505
-13.4355
-13.3575
-13.2712
-13.1771
-13.0754
-12.9666
-12.8519
-12.7329
-12.615
-12.5179
-12.4687
-53.5739
-54.1495
-54.6879
-55.2112
-55.7167
-56.1982
-56.6529
-57.0798
-57.4779
-57.8464
-58.1845
-58.4918
-58.768
-59.0126
-59.225
-59.4054
-59.5546
-59.6738
-59.7649
-59.8298
-47.0907
-47.6717
-48.2245
-48.755
-49.2626
-49.745
-50.2007
-50.6289
-51.0292
-51.4008
-51.743
-52.0559
-52.3395
-52.5945
-52.8187
-53.0116
-53.1738
-53.3058
-53.408
-53.4792
-42.4462
-43.0149
-43.5599
-44.0814
-44.5795
-45.0535
-45.5024
-45.9257
-46.3227
-46.6928
-47.0349
-47.3489
-47.6344
-47.8902
-48.1176
-48.3167
-48.4874
-48.6292
-48.7418
-48.8239
-38.322
-38.8654
-39.3891
-39.8911
-40.371
-40.8284
-41.2627
-41.6733
-42.0596
-42.4208
-42.7558
-43.064
-43.3464
-43.6025
-43.8324
-44.0358
-44.2124
-44.3618
-44.4837
-44.5776
-34.644
-35.1573
-35.6536
-36.1302
-36.5862
-37.0211
-37.4346
-37.8258
-38.1941
-38.5389
-38.8609
-39.1596
-39.4335
-39.6829
-39.9079
-40.1082
-40.2834
-40.4335
-40.5583
-40.6577
-31.4453
-31.9271
-32.3935
-32.842
-33.2713
-33.6811
-34.0707
-34.4397
-34.7876
-35.1141
-35.4189
-35.7016
-35.9615
-36.1987
-36.4136
-36.6059
-36.7749
-36.9206
-37.0431
-37.1423
-28.6732
-29.1242
-29.561
-29.9811
-30.3834
-30.7673
-31.1323
-31.4781
-31.8041
-32.11
-32.3956
-32.6605
-32.9044
-33.1272
-33.3284
-33.5099
-33.67
-33.8083
-33.925
-34.0203
-26.2612
-26.6832
-27.0919
-27.485
-27.8613
-28.2202
-28.5612
-28.884
-29.1881
-29.4733
-29.7394
-29.9862
-30.2135
-30.4213
-30.6095
-30.7765
-30.9261
-31.0553
-31.1644
-31.2536
-24.1503
-24.546
-24.9289
-25.297
-25.6491
-25.9846
-26.303
-26.604
-26.8873
-27.1527
-27.4001
-27.6293
-27.8402
-28.0328
-28.2071
-28.363
-28.4992
-28.6184
-28.7191
-28.8011
-22.2905
-22.6624
-23.0221
-23.3676
-23.6976
-24.0116
-24.3092
-24.5901
-24.854
-25.1009
-25.3307
-25.5433
-25.7387
-25.9169
-26.0777
-26.2211
-26.3471
-26.4558
-26.5477
-26.6224
-20.6402
-20.9909
-21.3299
-21.6551
-21.9652
-22.2597
-22.5382
-22.8006
-23.0468
-23.2767
-23.4903
-23.6877
-23.8687
-24.0334
-24.1818
-24.3138
-24.4294
-24.5287
-24.6123
-24.6796
-19.1658
-19.4976
-19.8183
-20.1255
-20.4177
-20.6945
-20.9557
-21.2013
-21.4312
-21.6455
-21.8444
-22.0277
-22.1956
-22.3481
-22.4851
-22.6067
-22.7128
-22.8037
-22.879
-22.9396
-17.8401
-18.1554
-18.4603
-18.7515
-19.0275
-19.2882
-19.5335
-19.7637
-19.9788
-20.1789
-20.3643
-20.5349
-20.6909
-20.8322
-20.9589
-21.071
-21.1685
-21.2513
-21.3193
-21.374
-16.6416
-16.9425
-17.2338
-17.5109
-17.7722
-18.0181
-18.2489
-18.4649
-18.6663
-18.8534
-19.0265
-19.1855
-19.3306
-19.4619
-19.5793
-19.6828
-19.7725
-19.8485
-19.911
-19.9589
-15.5533
-15.8419
-16.1217
-16.3861
-16.6339
-16.8661
-17.0834
-17.2862
-17.4749
-17.65
-17.8118
-17.9602
-18.0955
-18.2177
-18.3266
-18.4225
-18.5052
-18.5748
-18.6312
-18.6745
-14.5604
-14.8405
-15.1111
-15.3636
-15.5985
-15.8177
-16.0222
-16.2125
-16.3894
-16.5534
-16.7047
-16.8435
-16.9697
-17.0836
-17.1849
-17.2738
-17.3501
-17.414
-17.4653
-17.5042
-13.6453
-13.9243
-14.1897
-14.4307
-14.653
-14.8598
-15.052
-15.2306
-15.3964
-15.5501
-15.6918
-15.8217
-15.9399
-16.0462
-16.1407
-16.2233
-16.294
-16.3528
-16.3996
-16.4345
-12.7872
-13.0704
-13.3371
-13.5688
-13.779
-13.9742
-14.1552
-14.3232
-14.4793
-14.624
-14.7575
-14.8799
-14.9912
-15.0913
-15.1801
-15.2575
-15.3235
-15.3781
-15.4213
-15.4531
-11.9997
-12.2735
-12.5409
-12.7677
-12.9678
-13.1516
-13.3221
-13.4806
-13.628
-13.7647
-13.891
-14.007
-14.1124
-14.2073
-14.2913
-14.3646
-14.427
-14.4784
-14.5188
-14.5484
-11.409
-11.6599
-11.8877
-12.1045
-12.2929
-12.4588
-12.6128
-12.7571
-12.8911
-13.0153
-13.1301
-13.2353
-13.3309
-13.4165
-13.4922
-13.5578
-13.6132
-13.6584
-13.6933
-13.7178
-6.00714
-6.49851
-7.03695
-7.61942
-8.25235
-8.94312
-9.69942
-10.5307
-11.4491
-12.4703
-13.6148
-14.9095
-16.3897
-18.1017
-20.1059
-22.4814
-25.3096
-28.6127
-32.6101
-38.6061
-6.27779
-6.78269
-7.33166
-7.9262
-8.57291
-9.27887
-10.0519
-10.9017
-11.8406
-12.8847
-14.0548
-15.3781
-16.8905
-18.6385
-20.6827
-23.1024
-25.9776
-29.3276
-33.3635
-39.3806
-6.54987
-7.06831
-7.62792
-8.23476
-8.89551
-9.61691
-10.4069
-11.2755
-12.2353
-13.3026
-14.4986
-15.8509
-17.3957
-19.18
-21.2647
-23.7285
-26.6504
-30.046
-34.1187
-40.1522
-6.82288
-7.35481
-7.92514
-8.5445
-9.21949
-9.95655
-10.7637
-11.6513
-12.6322
-13.7229
-14.945
-16.3265
-17.9041
-19.7249
-21.8501
-24.358
-27.3262
-30.7674
-34.8779
-40.9327
-7.09639
-7.64172
-8.22285
-8.85493
-9.54438
-10.2973
-11.1218
-12.0286
-13.0307
-14.1451
-15.3935
-16.8044
-18.4148
-20.2723
-22.438
-24.9899
-28.0045
-31.4912
-35.6402
-41.7194
-7.37003
-7.92863
-8.52063
-9.16564
-9.86973
-10.6386
-11.4807
-12.4068
-13.4303
-14.5685
-15.8433
-17.2837
-18.9271
-20.8213
-23.0277
-25.6237
-28.6844
-32.2165
-36.4037
-42.5083
-7.64347
-8.21519
-8.8181
-9.47622
-10.1951
-10.9801
-11.8399
-12.7854
-13.8305
-14.9925
-16.2939
-17.764
-19.4404
-21.3714
-23.6184
-26.2584
-29.3651
-32.942
-37.1668
-43.2969
-7.91648
-8.5011
-9.11494
-9.78634
-10.5202
-11.3215
-12.1989
-13.164
-14.2306
-15.4166
-16.7446
-18.2444
-19.9539
-21.9218
-24.2092
-26.8931
-30.0454
-33.6668
-37.9282
-44.0838
-8.18889
-8.78616
-9.4109
-10.0957
-10.8446
-11.6622
-12.5574
-13.5421
-14.6303
-15.8402
-17.1949
-18.7243
-20.4668
-22.4714
-24.7993
-27.5267
-30.7243
-34.3896
-38.6869
-44.8676
-8.46067
-9.07027
-9.70584
-10.4042
-11.1682
-12.002
-12.915
-13.9192
-15.0289
-16.2627
-17.6439
-19.2029
-20.9785
-23.0196
-25.3877
-28.1583
-31.4007
-35.1092
-39.4414
-45.6468
-8.73192
-9.35345
-9.99969
-10.7115
-11.4906
-12.3407
-13.2713
-14.2949
-15.4261
-16.6836
-18.0912
-19.6796
-21.488
-23.5655
-25.9735
-28.7869
-32.0734
-35.8245
-40.1904
-46.4198
-9.00294
-9.63587
-10.2925
-11.0177
-11.8118
-12.6779
-13.626
-14.6687
-15.8212
-17.1022
-18.5361
-20.1537
-21.9945
-24.1082
-26.5556
-29.4113
-32.7414
-36.5342
-40.9327
-47.1852
-9.27421
-9.91783
-10.5844
-11.3228
-12.1315
-13.0134
-13.9787
-15.0403
-16.2137
-17.518
-18.9777
-20.6243
-22.4973
-24.6466
-27.1331
-30.0305
-33.4034
-37.237
-41.6668
-47.9417
-9.54646
-10.1998
-10.8756
-11.6267
-12.4496
-13.3468
-14.3288
-15.409
-16.603
-17.9302
-19.4155
-21.0905
-22.9954
-25.1799
-27.7049
-30.6434
-34.0582
-37.9318
-42.3915
-48.688
-9.82045
-10.4819
-11.1659
-11.9291
-12.7657
-13.6776
-14.676
-15.7743
-16.9883
-18.338
-19.8485
-21.5516
-23.4878
-25.7071
-28.2699
-31.2487
-34.7046
-38.6172
-43.1057
-49.423
-10.0971
-10.7647
-11.4553
-12.2296
-13.0791
-14.0052
-15.0193
-16.1352
-17.369
-18.7407
-20.2758
-22.0065
-23.9735
-26.2269
-28.827
-31.8452
-35.3412
-39.292
-43.808
-50.1456
-10.3763
-11.0468
-11.7422
-12.5267
-13.3886
-14.3285
-15.3579
-16.4909
-17.7439
-19.1372
-20.6964
-22.4542
-24.4515
-26.7383
-29.3748
-32.4315
-35.9668
-39.9548
-44.4976
-50.8552
-10.6573
-11.3258
-12.0241
-12.8186
-13.693
-14.6463
-15.6906
-16.8403
-18.1121
-19.5265
-21.1094
-22.8937
-24.9205
-27.24
-29.9121
-33.0063
-36.5796
-40.604
-45.1732
-51.5518
-10.9327
-11.5934
-12.2949
-13.102
-13.9899
-14.9568
-16.016
-17.1823
-18.4725
-19.9075
-21.5135
-23.3237
-25.3793
-27.7307
-30.4373
-33.568
-37.178
-41.2377
-45.8337
-52.2369
-11.1841
-11.8295
-12.5501
-13.3779
-14.2801
-15.26
-16.3335
-17.516
-18.8242
-20.2792
-21.9077
-23.7431
-25.8269
-28.2092
-30.9492
-34.1148
-37.7599
-41.8529
-46.4743
-52.912
-1.58525
-1.83919
-2.18707
-2.576
-2.99455
-3.44809
-3.94294
-4.485
-5.08179
-5.74355
-6.48425
-7.32288
-8.28561
-9.40848
-10.7424
-12.3616
-14.3559
-16.7864
-19.9616
-25.3563
-1.73843
-2.00881
-2.37516
-2.77003
-3.19202
-3.6509
-4.15266
-4.70281
-5.30901
-5.98177
-6.7353
-7.58897
-8.56934
-9.71298
-11.0713
-12.7193
-14.7465
-17.2125
-20.4199
-25.8285
-1.88597
-2.18043
-2.55994
-2.96295
-3.39268
-3.85996
-4.37066
-4.9305
-5.54748
-6.23248
-7.00003
-7.86988
-8.86906
-10.0347
-11.4187
-13.0964
-15.1572
-17.6586
-20.8975
-26.3147
-2.05579
-2.36108
-2.7488
-3.16055
-3.59948
-4.0763
-4.59704
-5.16768
-5.79658
-6.4949
-7.27754
-8.16462
-9.18367
-10.3723
-11.783
-13.4914
-15.5868
-18.125
-21.3988
-26.8337
-2.23694
-2.54933
-2.94489
-3.3656
-3.81403
-4.30084
-4.83226
-5.41452
-6.05621
-6.76878
-7.56745
-8.47275
-9.51266
-10.7253
-12.1639
-13.9041
-16.0353
-18.6117
-21.923
-27.382
-2.42356
-2.74457
-3.14847
-3.57832
-4.03653
-4.53379
-5.07649
-5.67106
-6.32631
-7.05395
-7.86953
-8.79399
-9.85576
-11.0935
-12.5609
-14.3343
-16.5024
-19.1183
-22.4683
-27.9544
-2.61719
-2.94772
-3.35988
-3.79887
-4.26715
-4.77529
-5.32979
-5.93727
-6.60676
-7.35023
-8.18355
-9.12804
-10.2126
-11.4765
-12.9739
-14.7814
-16.9877
-19.6442
-23.0337
-28.5486
-2.81922
-3.15924
-3.57944
-4.02757
-4.50611
-5.02546
-5.5922
-6.21311
-6.89744
-7.65741
-8.50923
-9.4746
-10.5829
-11.8739
-13.4023
-15.2451
-17.4907
-20.1887
-23.6186
-29.1635
-3.02942
-3.37898
-3.80721
-4.26452
-4.75349
-5.28432
-5.86366
-6.49846
-7.19817
-7.97528
-8.84629
-9.83331
-10.9662
-12.2852
-13.8456
-15.7247
-18.0106
-20.7513
-24.2223
-29.798
-3.2472
-3.60662
-4.04296
-4.50956
-5.00914
-5.55172
-6.144
-6.79313
-7.50873
-8.30355
-9.19441
-10.2038
-11.3621
-12.7101
-14.3034
-16.2198
-18.547
-21.3312
-24.8439
-30.4511
-3.47212
-3.8418
-4.28639
-4.76241
-5.27281
-5.82741
-6.43298
-7.09684
-7.82881
-8.64189
-9.55323
-10.5857
-11.7702
-13.1479
-14.775
-16.7296
-19.0991
-21.9276
-25.4826
-31.1217
-3.7038
-4.08412
-4.53712
-5.02273
-5.54417
-6.11107
-6.73026
-7.40924
-8.15803
-8.98991
-9.92231
-10.9785
-12.1899
-13.5981
-15.26
-17.2537
-19.6662
-22.5398
-26.1374
-31.8087
-3.94177
-4.33311
-4.79471
-5.29009
-5.82282
-6.4023
-7.03544
-7.72992
-8.49599
-9.34716
-10.3012
-11.3818
-12.6207
-14.0603
-15.7576
-17.7913
-20.2477
-23.167
-26.8077
-32.5112
-4.18551
-4.58824
-5.05865
-5.56402
-6.10829
-6.70065
-7.34807
-8.05844
-8.84221
-9.71315
-10.6894
-11.795
-13.0621
-14.5337
-16.2673
-18.3416
-20.8426
-23.8083
-27.4923
-33.2283
-4.43447
-4.84896
-5.32841
-5.844
-6.40009
-7.00561
-7.66765
-8.39427
-9.19615
-10.0873
-11.0863
-12.2174
-13.5135
-15.0177
-16.7883
-18.904
-21.4503
-24.463
-28.1907
-33.959
-4.68809
-5.1147
-5.60342
-6.12949
-6.69767
-7.31667
-7.99364
-8.73687
-9.55727
-10.4692
-11.4913
-12.6485
-13.974
-15.5117
-17.3199
-19.4777
-22.0699
-25.1301
-28.9018
-34.7027
-4.94584
-5.38488
-5.88309
-6.41991
-7.00047
-7.63324
-8.32548
-9.08567
-9.92498
-10.858
-11.9038
-13.0876
-14.4432
-16.0148
-17.8613
-20.0618
-22.7004
-25.8086
-29.6249
-35.4587
-5.20715
-5.65892
-6.16686
-6.71469
-7.30792
-7.95477
-8.66258
-9.44008
-10.2987
-11.2532
-12.3231
-13.5341
-14.9202
-16.5262
-18.4115
-20.6553
-23.3409
-26.4976
-30.3591
-36.2266
-5.47147
-5.93623
-6.45414
-7.01324
-7.61943
-8.28065
-9.00434
-9.79947
-10.6777
-11.6541
-12.7485
-13.987
-15.4042
-17.0452
-18.9698
-21.2572
-23.9903
-27.1958
-31.1033
-37.0072
-5.73831
-6.21629
-6.74437
-7.31503
-7.93446
-8.61033
-9.3502
-10.1633
-11.0614
-12.0601
-13.1795
-14.4459
-15.8945
-17.5709
-19.5351
-21.8666
-24.6472
-27.9015
-31.8548
-37.8011
-1.33746
-1.13074
-0.97695
-0.840213
-0.720138
-0.614184
-0.521235
-0.4405
-0.371476
-0.313804
-0.26722
-0.23151
-0.206506
-0.19207
-0.188065
-0.194279
-0.210494
-0.236841
-0.273506
-0.320261
-1.66727
-1.48383
-1.32606
-1.1841
-1.05919
-0.948767
-0.851851
-0.767641
-0.695624
-0.635424
-0.586757
-0.549402
-0.523177
-0.507929
-0.503516
-0.509763
-0.526513
-0.553782
-0.591664
-0.63982
-1.99974
-1.82418
-1.66643
-1.52332
-1.39629
-1.28368
-1.18481
-1.09898
-1.02572
-0.964687
-0.915589
-0.878207
-0.852357
-0.837881
-0.834632
-0.842457
-0.861236
-0.890918
-0.931357
-0.982817
-2.38341
-2.20618
-2.04539
-1.89932
-1.76871
-1.6526
-1.55051
-1.46189
-1.38633
-1.32349
-1.27311
-1.23494
-1.20881
-1.19454
-1.19199
-1.20101
-1.22148
-1.25331
-1.29639
-1.35077
-2.80206
-2.62237
-2.45762
-2.3076
-2.17277
-2.0526
-1.94677
-1.85485
-1.77651
-1.71142
-1.65933
-1.62003
-1.59331
-1.57901
-1.57696
-1.58702
-1.60907
-1.64299
-1.68867
-1.74608
-3.25325
-3.07033
-2.9014
-2.74704
-2.60775
-2.48332
-2.37354
-2.27813
-2.1968
-2.12929
-2.07535
-2.03477
-2.00737
-1.99297
-1.9914
-2.00253
-2.0262
-2.0623
-2.11069
-2.17133
-3.74313
-3.55548
-3.38163
-3.22235
-3.07815
-2.94906
-2.83499
-2.73575
-2.65113
-2.5809
-2.52486
-2.4828
-2.45453
-2.4399
-2.43872
-2.45086
-2.47617
-2.5145
-2.56571
-2.62978
-4.27851
-4.08464
-3.90479
-3.7397
-3.5899
-3.45554
-3.33662
-3.23305
-3.14466
-3.0713
-3.01276
-2.96887
-2.93945
-2.92433
-2.92336
-2.93638
-2.96323
-3.00377
-3.05783
-3.1254
-4.86707
-4.66554
-4.47844
-4.30649
-4.15017
-4.00972
-3.88522
-3.77663
-3.68387
-3.60679
-3.54524
-3.49905
-3.46806
-3.45212
-3.45105
-3.4647
-3.49292
-3.53555
-3.59242
-3.66351
-5.51895
-5.30818
-5.11244
-4.93233
-4.76835
-4.62078
-4.48975
-4.37528
-4.27732
-4.19578
-4.13052
-4.08141
-4.04829
-4.03101
-4.02941
-4.04333
-4.07261
-4.11709
-4.17659
-4.25113
-6.24789
-6.02609
-5.82001
-5.6302
-5.45714
-5.30113
-5.16236
-5.04087
-4.93666
-4.84968
-4.7798
-4.72692
-4.6909
-4.67158
-4.66881
-4.68244
-4.71231
-4.75823
-4.82003
-4.89776
-7.07262
-6.83766
-6.61924
-6.41782
-6.23391
-6.06782
-5.91973
-5.78977
-5.67794
-5.58421
-5.50851
-5.45073
-5.41075
-5.38842
-5.38361
-5.39614
-5.42587
-5.47258
-5.53611
-5.61655
-8.01886
-7.76821
-7.535
-7.31965
-7.12268
-6.94439
-6.78502
-6.6447
-6.52346
-6.42131
-6.33819
-6.27401
-6.22866
-6.202
-6.19389
-6.20419
-6.23271
-6.27924
-6.34361
-6.42596
-9.12217
-8.85274
-8.60176
-8.3696
-8.15681
-7.9637
-7.79053
-7.63745
-7.50452
-7.39176
-7.29913
-7.22656
-7.17394
-7.14116
-7.12808
-7.13454
-7.16037
-7.20531
-7.2692
-7.35223
-10.4328
-10.1409
-9.86852
-9.61603
-9.38402
-9.17282
-8.98271
-8.81384
-8.66632
-8.54015
-8.43533
-8.35179
-8.28943
-8.24816
-8.22782
-8.22828
-8.24934
-8.29073
-8.35226
-8.43417
-12.0245
-11.7057
-11.4076
-11.1305
-10.8752
-10.642
-10.4312
-10.2428
-10.0771
-9.9341
-9.81372
-9.71594
-9.64069
-9.58786
-9.55731
-9.5489
-9.56243
-9.59762
-9.65422
-9.7325
-13.9863
-13.6359
-13.3074
-13.0013
-12.7183
-12.4588
-12.2231
-12.0112
-11.8234
-11.6597
-11.52
-11.4043
-11.3126
-11.2447
-11.2006
-11.1801
-11.183
-11.209
-11.2579
-11.3297
-16.3801
-15.9941
-15.631
-15.2919
-14.9774
-14.6879
-14.4237
-14.185
-13.9717
-13.7839
-13.6216
-13.4849
-13.3736
-13.2877
-13.2271
-13.1916
-13.1812
-13.1956
-13.2345
-13.2972
-19.5166
-19.0907
-18.6887
-18.313
-17.9641
-17.6419
-17.3464
-17.0776
-16.8355
-16.6201
-16.4315
-16.2695
-16.1342
-16.0256
-15.9434
-15.8876
-15.8581
-15.8553
-15.8788
-15.9267
-24.8532
-24.3824
-23.9459
-23.5408
-23.1649
-22.8173
-22.4975
-22.2054
-21.941
-21.7042
-21.4952
-21.3139
-21.1604
-21.0349
-20.9374
-20.8679
-20.8273
-20.8178
-20.8406
-20.8857
-0.377021
-0.443465
-0.519553
-0.605204
-0.700334
-0.804836
-0.91858
-1.0414
-1.1731
-1.31338
-1.46188
-1.61808
-1.78118
-1.94996
-2.12275
-2.29728
-2.46908
-2.62834
-2.75969
-2.88953
-0.698458
-0.76718
-0.84591
-0.934535
-1.03295
-1.14103
-1.25863
-1.38554
-1.52155
-1.66634
-1.8195
-1.98048
-2.14851
-2.32241
-2.50058
-2.68137
-2.86299
-3.03774
-3.19039
-3.36272
-1.04496
-1.11753
-1.20048
-1.29368
-1.397
-1.5103
-1.63341
-1.76612
-1.90818
-2.05924
-2.21889
-2.38656
-2.56151
-2.74271
-2.9288
-3.11858
-3.3111
-3.50196
-3.68547
-3.89154
-1.41633
-1.49276
-1.57998
-1.67785
-1.78623
-1.90495
-2.03382
-2.17262
-2.32106
-2.4788
-2.6454
-2.8203
-3.0028
-3.192
-3.38681
-3.58637
-3.78987
-3.99501
-4.20228
-4.43207
-1.81517
-1.89562
-1.98731
-2.09009
-2.20381
-2.32829
-2.46332
-2.60865
-2.76398
-2.92896
-3.10316
-3.28603
-3.47693
-3.67508
-3.87966
-4.09006
-4.30566
-4.52544
-4.75202
-4.99856
-2.24426
-2.329
-2.42549
-2.53358
-2.65308
-2.7838
-2.92552
-3.07799
-3.24089
-3.41386
-3.59649
-3.78826
-3.9886
-4.19684
-4.41239
-4.63481
-4.86371
-5.09888
-5.34307
-5.60414
-2.70674
-2.796
-2.89762
-3.01138
-3.1371
-3.27457
-3.42356
-3.5838
-3.75498
-3.93675
-4.1287
-4.33037
-4.54124
-4.76076
-4.98846
-5.22405
-5.46733
-5.7185
-5.97977
-6.25559
-3.20641
-3.30056
-3.4076
-3.52739
-3.65974
-3.80444
-3.96126
-4.12992
-4.31012
-4.5015
-4.7037
-4.91627
-5.13876
-5.37072
-5.61178
-5.8617
-6.12041
-6.38822
-6.66672
-6.95835
-3.74883
-3.84788
-3.96056
-4.08666
-4.22601
-4.3784
-4.54358
-4.72128
-4.91121
-5.11302
-5.32636
-5.55083
-5.78603
-6.03157
-6.28714
-6.55256
-6.82777
-7.11306
-7.40943
-7.71825
-4.34071
-4.44472
-4.56322
-4.69583
-4.84247
-5.00292
-5.17694
-5.36424
-5.56454
-5.77752
-6.00285
-6.24016
-6.48909
-6.7493
-7.02051
-7.30255
-7.59536
-7.89909
-8.21433
-8.54184
-4.99144
-5.10034
-5.22447
-5.36379
-5.51789
-5.68664
-5.86983
-6.06718
-6.2784
-6.50319
-6.74124
-6.99222
-7.25579
-7.53165
-7.81953
-8.11925
-8.43072
-8.75395
-9.0892
-9.43694
-5.71394
-5.82743
-5.9571
-6.10276
-6.26433
-6.44144
-6.63394
-6.84158
-7.06407
-7.30111
-7.55244
-7.81774
-8.0967
-8.38901
-8.69444
-9.01279
-9.34389
-9.68763
-10.0441
-10.4135
-6.52636
-6.6438
-6.77847
-6.93009
-7.09859
-7.28404
-7.48578
-7.70357
-7.93734
-8.1868
-8.45169
-8.73168
-9.02649
-9.33583
-9.65944
-9.99712
-10.3486
-10.7138
-11.0924
-11.4847
-7.45451
-7.57483
-7.71354
-7.87036
-8.04506
-8.23764
-8.44888
-8.67604
-8.92073
-9.18232
-9.46057
-9.75521
-10.066
-10.3925
-10.7346
-11.092
-11.4644
-11.8515
-12.253
-12.6692
-8.53661
-8.65811
-8.79924
-8.95977
-9.13954
-9.33808
-9.55492
-9.7923
-10.0476
-10.3204
-10.6112
-10.9199
-11.2463
-11.5898
-11.9502
-12.3272
-12.7205
-13.1296
-13.5542
-13.9946
-9.83259
-9.95273
-10.0938
-10.2558
-10.4385
-10.6415
-10.8644
-11.1072
-11.3701
-11.6537
-11.9564
-12.2785
-12.6196
-12.979
-13.3564
-13.7518
-14.1651
-14.5956
-15.0428
-15.5068
-11.424
-11.5396
-11.6778
-11.8385
-12.0214
-12.2261
-12.4525
-12.7003
-12.9694
-13.2601
-13.5729
-13.9067
-14.2597
-14.6313
-15.0225
-15.4339
-15.8652
-16.3154
-16.7835
-17.2695
-13.3817
-13.4897
-13.622
-13.7781
-13.9568
-14.1585
-14.3834
-14.6314
-14.9021
-15.1951
-15.5096
-15.8461
-16.206
-16.59
-16.9964
-17.4237
-17.8717
-18.3399
-18.8273
-19.3332
-15.9969
-16.0888
-16.2048
-16.3463
-16.5146
-16.709
-16.9286
-17.1731
-17.4422
-17.7354
-18.0521
-18.392
-18.7555
-19.143
-19.5543
-19.9889
-20.4467
-20.9282
-21.4334
-21.9573
-20.9275
-20.9998
-21.1031
-21.235
-21.3944
-21.5805
-21.7929
-22.0312
-22.2951
-22.5842
-22.8982
-23.2373
-23.6015
-23.991
-24.4061
-24.8466
-25.3137
-25.8113
-26.3418
-26.8876
-27.4044
-22.4919
-19.8568
-17.7735
-15.9878
-14.4507
-13.1
-11.8908
-10.7958
-9.79709
-8.88155
-8.03948
-7.26326
-6.54667
-5.88452
-5.27228
-4.70469
-4.17619
-3.69524
-3.29084
-27.9491
-23.0427
-20.3961
-18.2926
-16.483
-14.9202
-13.5435
-12.3088
-11.1895
-10.1681
-9.2318
-8.37102
-7.57831
-6.84758
-6.17382
-5.5526
-4.97918
-4.45117
-3.98173
-3.57924
-28.5224
-23.6124
-20.9526
-18.8277
-16.993
-15.4034
-13.9995
-12.7383
-11.594
-10.5493
-9.59163
-8.71166
-7.90195
-7.15647
-6.47014
-5.83847
-5.25682
-4.72292
-4.24634
-3.82434
-29.1201
-24.2017
-21.5264
-19.3786
-17.5172
-15.8994
-14.4673
-13.1788
-12.0085
-10.9397
-9.95997
-9.06006
-8.23251
-7.47116
-6.77074
-6.12647
-5.53347
-4.98881
-4.49922
-4.05848
-29.7391
-24.8099
-22.1167
-19.9448
-18.055
-16.4077
-14.9462
-13.6293
-12.4322
-11.3385
-10.336
-9.41537
-8.56917
-7.79105
-7.07547
-6.41735
-5.81152
-5.25446
-4.75108
-4.2942
-30.3778
-25.4375
-22.7217
-20.5251
-18.6057
-16.9275
-15.4355
-14.0891
-12.8643
-11.7449
-10.7189
-9.7769
-8.91137
-8.11576
-7.38429
-6.71161
-6.0923
-5.52251
-5.00585
-4.53488
-31.0352
-26.083
-23.341
-21.1185
-19.1684
-17.4579
-15.9343
-14.5575
-13.3042
-12.1583
-11.1081
-10.1442
-9.25878
-8.4452
-7.69744
-7.0099
-6.37701
-5.79469
-5.26544
-4.78179
-31.7099
-26.7444
-23.9745
-21.7244
-19.7421
-17.9983
-16.4418
-15.0338
-13.7511
-12.5781
-11.5031
-10.5167
-9.61109
-8.77925
-8.01498
-7.3125
-6.66611
-6.07153
-5.53028
-5.03485
-32.4006
-27.4203
-24.6213
-22.3419
-20.3261
-18.5477
-16.9574
-15.5171
-14.2043
-13.0036
-11.9033
-10.8942
-9.96797
-9.11767
-8.33681
-7.61941
-6.95964
-6.35304
-5.80018
-5.29357
-33.1059
-28.1094
-25.2803
-22.97
-20.9194
-19.1052
-17.4801
-16.0067
-14.6631
-13.4341
-12.3082
-11.2759
-10.329
-9.46011
-8.66264
-7.93035
-7.25732
-6.63885
-6.07465
-5.55722
-33.8248
-28.8107
-25.9505
-23.6077
-21.521
-19.67
-18.009
-16.5018
-15.1267
-13.869
-12.7172
-11.6615
-10.6937
-9.80614
-8.99203
-8.24491
-7.55868
-6.92844
-6.35303
-5.82501
-34.556
-29.523
-26.6308
-24.254
-22.1299
-20.241
-18.5434
-17.0016
-15.5945
-14.3076
-13.1295
-12.0502
-11.0614
-10.1552
-9.32446
-8.56253
-7.86315
-7.22117
-6.63461
-6.09614
-35.2985
-30.2453
-27.32
-24.9078
-22.7452
-20.8173
-19.0821
-17.5051
-16.0655
-14.7492
-13.5445
-12.4415
-11.4316
-10.5067
-9.65933
-8.88262
-8.17009
-7.51637
-6.91869
-6.36985
-36.0511
-30.9762
-28.0169
-25.568
-23.3656
-21.3978
-19.6244
-18.0115
-16.539
-15.1928
-13.9614
-12.8347
-11.8036
-10.86
-9.99601
-9.20452
-8.47886
-7.81337
-7.20454
-6.64542
-36.8128
-31.7147
-28.7203
-26.2334
-23.9901
-21.9815
-20.1691
-18.5198
-17.0141
-15.6379
-14.3795
-13.229
-12.1768
-11.2144
-10.3338
-9.52759
-8.78879
-8.11149
-7.49149
-6.92214
-37.5822
-32.4594
-29.4288
-26.9027
-24.6176
-22.5674
-20.7152
-19.0292
-17.4898
-16.0834
-14.7981
-13.6236
-12.5503
-11.5693
-10.6721
-9.85115
-9.09922
-8.41009
-7.77888
-7.19939
-38.3591
-33.2091
-30.1411
-27.5747
-25.2467
-23.1541
-21.2617
-19.5384
-17.9653
-16.5285
-15.2162
-14.0179
-12.9235
-11.9238
-11.0102
-10.1746
-9.40952
-8.70853
-8.06609
-7.47654
-39.1447
-33.9633
-30.8558
-28.2477
-25.876
-23.7403
-21.8074
-20.0466
-18.4395
-16.9723
-15.6331
-14.411
-13.2956
-12.2774
-11.3474
-10.4971
-9.71903
-9.00617
-8.35252
-7.75304
-39.9393
-34.7208
-31.5708
-28.9201
-26.5042
-24.3251
-22.3511
-20.5527
-18.9115
-17.414
-16.048
-14.8021
-13.6659
-12.6293
-11.683
-10.8182
-10.0271
-9.30244
-8.63759
-8.02838
-40.73
-35.4767
-32.2847
-29.5909
-27.1306
-24.9077
-22.8926
-21.0563
-19.3811
-17.8532
-16.4604
-15.191
-14.034
-12.9792
-12.0166
-11.1374
-10.3334
-9.59687
-8.92086
-8.3021
-6.78082
-4.67475
-3.31448
-2.2689
-1.53432
-0.994796
-0.607254
-0.332113
-0.141054
-0.0123348
0.0706703
0.120593
0.147017
0.157101
0.156158
0.148059
0.13562
0.12084
0.105129
0.0894534
0.0744592
0.0605568
0.0479826
0.0368565
0.0271996
0.0189916
0.0121389
0.00657665
0.00213536
-0.0012142
-0.00373485
-0.0053192
-0.00641481
-0.00661169
-0.00674414
-0.00581751
-0.00540854
-0.00349165
-0.00294723
3.72765e-05
-7.03651
-4.85715
-3.46074
-2.38407
-1.62538
-1.06844
-0.667324
-0.381738
-0.182435
-0.0470925
0.0413341
0.0957571
0.125962
0.139249
0.141035
0.135271
0.124832
0.111765
0.0975208
0.0831
0.069176
0.056184
0.0443817
0.0339074
0.0247982
0.0170483
0.0105761