/*--------------------------------*- C++ -*----------------------------------*\
| =========                 |                                                 |
| \\      /  F ield         | OpenFOAM: The Open Source CFD Toolbox           |
|  \\    /   O peration     | Version:  v1912                                 |
|   \\  /    A nd           | Website:  www.openfoam.com                      |
|    \\/     M anipulation  |                                                 |
\*---------------------------------------------------------------------------*/
FoamFile
{
    version     2.0;
    format      ascii;
    class       surfaceScalarField;
    location    "67";
    object      phi;
}
// * * * * * * * * * * * * * * * * * * * * * * * * * * * * * * * * * * * * * //

dimensions      [0 3 -1 0 0 0 0];
oriented        oriented;


internalField   nonuniform List<scalar> 
18940
(
0.000358488
-0.234358
0.234
0.0013798
-0.216315
0.215294
0.00288447
-0.20478
0.203276
0.00470195
-0.197
0.195183
0.00670133
-0.191249
0.189249
0.00878085
-0.186459
0.184379
0.0108667
-0.182041
0.179955
0.0129093
-0.1777
0.175658
0.0148786
-0.173313
0.171343
0.0167592
-0.168849
0.166969
0.0185462
-0.164331
0.162544
0.0202422
-0.1598
0.158104
0.0218543
-0.155306
0.153693
0.0233922
-0.15089
0.149352
0.0248671
-0.14659
0.145115
0.0262908
-0.14243
0.141006
0.0276747
-0.138422
0.137038
0.0290294
-0.134564
0.13321
0.0303633
-0.130837
0.129503
-0.1272
0.125881
0.0316816
0.000381918
-0.23474
0.00142312
-0.217357
0.00293852
-0.206296
0.0047603
-0.198822
0.00675413
-0.193242
0.00881832
-0.188523
0.0108803
-0.184103
0.0128921
-0.179712
0.0148255
-0.175246
0.0166669
-0.170691
0.0184132
-0.166077
0.0200681
-0.161455
0.0216396
-0.156877
0.0231383
-0.152389
0.0245759
-0.148027
0.0259642
-0.143818
0.0273151
-0.139773
0.0286394
-0.135888
0.0299461
-0.132143
-0.128495
0.031241
0.000403348
-0.235144
0.00146078
-0.218414
0.0029849
-0.20782
0.00480723
-0.200644
0.00679187
-0.195227
0.00883705
-0.190568
0.0108715
-0.186137
0.012849
-0.18169
0.0147434
-0.17714
0.0165429
-0.17249
0.0182459
-0.16778
0.0198575
-0.163067
0.0213868
-0.158406
0.0228448
-0.153847
0.0242435
-0.149426
0.0255952
-0.14517
0.0269118
-0.141089
0.0282044
-0.137181
0.0294826
-0.133422
-0.129765
0.0307529
0.000417226
-0.235561
0.00148971
-0.219487
0.00302169
-0.209352
0.004842
-0.202465
0.00681408
-0.197199
0.0088367
-0.192591
0.0108401
-0.188141
0.0127801
-0.18363
0.0146325
-0.178993
0.0163874
-0.174245
0.018045
-0.169438
0.0196115
-0.164634
0.0210969
-0.159892
0.0225127
-0.155263
0.0238714
-0.150785
0.0251853
-0.146484
0.0264665
-0.142371
0.0277265
-0.138441
0.0289752
-0.13467
-0.13101
0.0302201
0.000428499
-0.235989
0.00151324
-0.220571
0.00305024
-0.210889
0.00486527
-0.20428
0.00682122
-0.199155
0.00881772
-0.194587
0.0107866
-0.190109
0.012686
-0.185529
0.0144936
-0.1808
0.0162016
-0.175953
0.0178116
-0.171048
0.0193313
-0.166153
0.0207712
-0.161332
0.0221437
-0.156635
0.0234612
-0.152102
0.0247362
-0.147759
0.0259811
-0.143616
0.0272074
-0.139667
0.0284258
-0.135888
-0.132229
0.0296446
0.000437593
-0.236427
0.00153179
-0.221666
0.0030708
-0.212428
0.00487726
-0.206086
0.00681361
-0.201092
0.0087805
-0.196554
0.0107117
-0.192041
0.0125673
-0.187385
0.0143275
-0.182561
0.0159862
-0.177612
0.0175468
-0.172608
0.0190179
-0.167624
0.020411
-0.162725
0.0217388
-0.157963
0.023014
-0.153378
0.0242492
-0.148994
0.0254568
-0.144823
0.0266485
-0.140859
0.0278357
-0.137076
-0.133421
0.0290277
0.000445076
-0.236872
0.00154604
-0.222767
0.00308395
-0.213966
0.00487848
-0.207881
0.00679175
-0.203005
0.00872563
-0.198488
0.0106159
-0.193931
0.012425
-0.189194
0.0141351
-0.184271
0.0157424
-0.179219
0.0172516
-0.174118
0.0186725
-0.169045
0.0200174
-0.16407
0.0212993
-0.159245
0.0225311
-0.154609
0.0237254
-0.150188
0.0248945
-0.145992
0.0260506
-0.142015
0.0272055
-0.13823
-0.134585
0.0283699
0.000451101
-0.237323
0.00155631
-0.223872
0.00309008
-0.2155
0.00486938
-0.20966
0.0067562
-0.204892
0.0086538
-0.200385
0.0105001
-0.195777
0.0122598
-0.190953
0.0139176
-0.185928
0.0154712
-0.180773
0.0169271
-0.175573
0.0182962
-0.170414
0.0195915
-0.165365
0.0208262
-0.16048
0.0220134
-0.155797
0.0231655
-0.15134
0.0242949
-0.147122
0.0254141
-0.143135
0.0265355
-0.139352
-0.135721
0.0276711
0.000455776
-0.237779
0.00156288
-0.224979
0.00308964
-0.217026
0.00485054
-0.211421
0.00670766
-0.206749
0.00856584
-0.202244
0.0103652
-0.197577
0.012073
-0.192661
0.0136759
-0.187531
0.0151739
-0.182271
0.0165747
-0.176974
0.0178903
-0.17173
0.0191343
-0.166609
0.0203204
-0.161666
0.0214615
-0.156938
0.0225699
-0.152449
0.0236581
-0.14821
0.0247387
-0.144215
0.0258251
-0.140438
-0.136826
0.0269305
0.000459173
-0.238238
0.00156604
-0.226086
0.00308312
-0.218543
0.0048226
-0.21316
0.00664692
-0.208573
0.00846269
-0.204059
0.0102124
-0.199326
0.0118657
-0.194315
0.0134116
-0.189077
0.0148518
-0.183711
0.0161956
-0.178318
0.017456
-0.17299
0.0186471
-0.1678
0.0197828
-0.162801
0.020876
-0.158031
0.021939
-0.153512
0.0229839
-0.149255
0.0240239
-0.145255
0.0250729
-0.141487
-0.1379
0.026146
0.000461399
-0.238699
0.00156614
-0.22719
0.00307107
-0.220048
0.00478632
-0.214876
0.00657495
-0.210362
0.00834551
-0.20583
0.0100429
-0.201024
0.0116394
-0.195911
0.0131261
-0.190564
0.0145065
-0.185091
0.0157914
-0.179603
0.0169947
-0.174193
0.018131
-0.168936
0.0192144
-0.163885
0.0202577
-0.159074
0.0212729
-0.154527
0.0222721
-0.150254
0.0232685
-0.146251
0.0242773
-0.142496
-0.138938
0.0253153
0.000462608
-0.239162
0.00156363
-0.228291
0.00305419
-0.221539
0.0047426
-0.216564
0.00649285
-0.212112
0.00821562
-0.207553
0.00985838
-0.202666
0.0113958
-0.197448
0.0128212
-0.191989
0.01414
-0.18641
0.0153641
-0.180827
0.0165082
-0.175338
0.0175875
-0.170016
0.0186163
-0.164913
0.0196072
-0.160065
0.0205719
-0.155492
0.0215221
-0.151204
0.0224714
-0.147201
0.0234359
-0.143461
-0.139937
0.024435
0.000463082
-0.239625
0.00155911
-0.229387
0.00303334
-0.223013
0.00469251
-0.218223
0.00640192
-0.213821
0.00807456
-0.209225
0.0096605
-0.204252
0.0111369
-0.198925
0.0124992
-0.193352
0.0137544
-0.187665
0.0149158
-0.181988
0.0159986
-0.17642
0.0170187
-0.171036
0.0179901
-0.165885
0.0189256
-0.161001
0.0198363
-0.156402
0.0207337
-0.152102
0.0216313
-0.148098
0.0225466
-0.144376
-0.140891
0.0235013
0.000463297
-0.240088
0.00155346
-0.230478
0.00300956
-0.224469
0.00463731
-0.219851
0.00630364
-0.215488
0.00792408
-0.210846
0.00945132
-0.20578
0.0108649
-0.200338
0.0121625
-0.194649
0.0133526
-0.188855
0.0144493
-0.183085
0.0154688
-0.17744
0.0164269
-0.171994
0.017338
-0.166796
0.0182142
-0.161877
0.0190667
-0.157255
0.0199062
-0.152941
0.0207462
-0.148938
0.0216052
-0.145235
-0.141794
0.022508
0.000464057
-0.240553
0.00154783
-0.231561
0.00298407
-0.225905
0.00457833
-0.221445
0.00619962
-0.217109
0.00776609
-0.212412
0.00923311
-0.207247
0.0105826
-0.201688
0.0118143
-0.195881
0.0129378
-0.189979
0.0139684
-0.184116
0.0149225
-0.178394
0.0158161
-0.172887
0.0166633
-0.167643
0.017476
-0.16269
0.0182646
-0.158044
0.0190394
-0.153716
0.0198132
-0.149712
0.0206055
-0.146027
-0.142635
0.0214466
0.000466508
-0.241019
0.00154353
-0.232638
0.00295808
-0.22732
0.00451697
-0.223004
0.00609155
-0.218684
0.00760267
-0.213923
0.00900834
-0.208652
0.0102929
-0.202972
0.0114578
-0.197046
0.0125141
-0.191035
0.0134775
-0.185079
0.0143648
-0.179281
0.0151918
-0.173714
0.015972
-0.168423
0.0167167
-0.163434
0.0174355
-0.158762
0.0181373
-0.154418
0.0188341
-0.150409
0.0195466
-0.14674
-0.143402
0.0203137
0.000472042
-0.241491
0.00154188
-0.233708
0.00293292
-0.228711
0.00445478
-0.224526
0.00598129
-0.22021
0.007436
-0.215378
0.00877966
-0.209996
0.00999894
-0.204192
0.0110969
-0.198144
0.0120858
-0.192024
0.0129818
-0.185975
0.0138015
-0.180101
0.0145603
-0.174473
0.0152711
-0.169134
0.0159445
-0.164108
0.0165886
-0.159406
0.0172109
-0.15504
0.0178216
-0.15102
0.0184411
-0.14736
-0.144071
0.0191096
0.000482988
-0.241974
0.0015455
-0.234771
0.00291104
-0.230077
0.00439386
-0.226009
0.0058708
-0.221687
0.00726821
-0.216775
0.0085496
-0.211277
0.0097039
-0.205346
0.0107357
-0.199176
0.0116581
-0.192947
0.0124873
-0.186804
0.0132395
-0.180853
0.0139291
-0.175163
0.0145679
-0.169773
0.0151652
-0.164705
0.0157282
-0.159969
0.0162636
-0.155575
0.0167777
-0.151534
0.0172833
-0.147865
-0.144592
0.0178045
0.000506925
-0.242481
0.0015616
-0.235825
0.00289653
-0.231411
0.00433614
-0.227448
0.00576131
-0.223112
0.00710072
-0.218115
0.00832021
-0.212497
0.00941075
-0.206437
0.0103784
-0.200143
0.0112369
-0.193805
0.0120022
-0.187569
0.0126894
-0.181541
0.0133113
-0.175785
0.0138767
-0.170338
0.0143916
-0.16522
0.0148596
-0.160437
0.0152827
-0.155998
0.0156597
-0.151911
0.015995
-0.1482
-0.144948
0.0163507
0.000563973
-0.243045
0.0015985
-0.23686
0.00288911
-0.232702
0.00428043
-0.22884
0.00565236
-0.224484
0.00693394
-0.219396
0.00809277
-0.213656
0.00912181
-0.207466
0.0100286
-0.20105
0.0108277
-0.194604
0.0115352
-0.188277
0.0121654
-0.182171
0.012729
-0.176348
0.0132316
-0.170841
0.013673
-0.165661
0.0140458
-0.16081
0.014333
-0.156286
0.0145087
-0.152086
0.0145676
-0.148259
-0.145119
0.0147394
0.250731
0.000415219
-0.251146
0.250342
0.000388863
0.249961
0.000381598
0.249579
0.000381734
0.249194
0.000384685
0.248805
0.000389102
0.248411
0.000394259
0.248011
0.000399568
0.247607
0.000404638
0.247197
0.000409265
0.246784
0.00041335
0.246367
0.000416867
0.245947
0.000419799
0.245525
0.000422123
0.245102
0.000423715
0.244677
0.000424367
0.244254
0.000423035
0.243835
0.000419168
0.243431
0.000403565
0.000386481
0.252707
0.00102396
-0.253316
0.252063
0.0010332
0.25139
0.00105432
0.250691
0.00108133
0.249966
0.00110971
0.249217
0.0011381
0.248445
0.00116603
0.247651
0.00119301
0.246837
0.00121861
0.246004
0.00124258
0.245153
0.0012648
0.244284
0.00128525
0.2434
0.00130393
0.242501
0.00132083
0.241589
0.0013358
0.240665
0.00134865
0.23973
0.00135827
0.238785
0.00136439
0.237827
0.00136074
0.00135398
0.251493
0.00159617
-0.252065
0.250856
0.00167014
0.250166
0.00174432
0.249427
0.0018196
0.248643
0.00189363
0.247816
0.0019652
0.246948
0.00203397
0.246042
0.00209973
0.245098
0.00216223
0.244119
0.0022213
0.243107
0.00227689
0.242063
0.00232907
0.240989
0.0023779
0.239887
0.0024235
0.238757
0.00246589
0.2376
0.0025051
0.236418
0.00254061
0.23521
0.00257267
0.233972
0.00259888
0.00262344
0.247389
0.00203978
-0.247833
0.246876
0.00218342
0.246298
0.00232245
0.245659
0.00245829
0.244963
0.00259029
0.24421
0.00271766
0.243404
0.00284006
0.242546
0.00295733
0.241639
0.00306933
0.240685
0.00317597
0.239684
0.00327729
0.23864
0.00337342
0.237553
0.00346456
0.236426
0.00355099
0.235259
0.00363298
0.234053
0.0037109
0.232809
0.00378485
0.231526
0.00385545
0.230203
0.00392199
0.00398646
0.241142
0.00231893
-0.241421
0.240792
0.00253391
0.240372
0.00274211
0.239886
0.00294437
0.239336
0.00314067
0.238723
0.00333053
0.238049
0.00351364
0.237317
0.00368978
0.236527
0.00385885
0.235682
0.00402081
0.234784
0.00417573
0.233834
0.00432382
0.232833
0.00446539
0.231783
0.00460091
0.230685
0.00473093
0.22954
0.00485615
0.228347
0.00497715
0.227108
0.00509489
0.22582
0.00520955
0.00532279
0.233545
0.0024423
-0.233668
0.233351
0.0027279
0.233088
0.00300557
0.232756
0.0032756
0.232359
0.00353804
0.231897
0.00379258
0.231372
0.00403889
0.230785
0.00427674
0.230138
0.00450598
0.229432
0.0047266
0.228669
0.00493869
0.22785
0.00514251
0.226977
0.00533849
0.226051
0.00552726
0.225072
0.00570963
0.224042
0.00588663
0.222959
0.00605932
0.221825
0.00622909
0.220638
0.00639678
0.00656426
0.225302
0.00244044
-0.2253
0.225235
0.00279412
0.225102
0.0031391
0.224902
0.00347534
0.224637
0.00380275
0.224309
0.00412107
0.223918
0.00442995
0.223465
0.00472911
0.222953
0.00501838
0.222382
0.00529771
0.221753
0.0055672
0.221069
0.00582715
0.220329
0.00607806
0.219536
0.00632074
0.218689
0.00655625
0.21779
0.00678596
0.216838
0.00701144
0.215832
0.00723459
0.214772
0.00745693
0.00768065
0.21694
0.00234959
-0.216849
0.216966
0.00276778
0.216928
0.00317669
0.216828
0.00357602
0.216665
0.00396557
0.216441
0.00434501
0.216157
0.00471398
0.215814
0.00507213
0.215413
0.00541924
0.214956
0.00575522
0.214443
0.00608013
0.213875
0.00639427
0.213255
0.00669824
0.212583
0.00699295
0.21186
0.00727973
0.211085
0.00756033
0.21026
0.00783686
0.209383
0.00811183
0.208452
0.00838762
0.00866691
0.208807
0.00220306
-0.20866
0.208893
0.00268198
0.208918
0.00315105
0.208884
0.00360984
0.208792
0.00405801
0.208642
0.00449518
0.208435
0.00492092
0.208172
0.0053348
0.207855
0.00573654
0.207484
0.00612597
0.207061
0.0065031
0.206587
0.0068682
0.206064
0.00722188
0.205491
0.00756516
0.204872
0.0078996
0.204205
0.00822733
0.20349
0.0085511
0.202728
0.0088742
0.201915
0.00920006
0.00953223
0.201103
0.00202786
-0.200928
0.201221
0.00256393
0.201283
0.00308957
0.201288
0.00360426
0.201239
0.00410755
0.201135
0.00459896
0.200978
0.00507798
0.200769
0.00554412
0.200508
0.00599698
0.200198
0.0064363
0.199839
0.00686199
0.199433
0.00727424
0.198981
0.00767362
0.198485
0.00806118
0.197946
0.00843869
0.197365
0.0088086
0.196742
0.00917445
0.196075
0.00954038
0.195364
0.00991136
0.0102922
0.193923
0.00184385
-0.193739
0.194053
0.00243396
0.194129
0.00301306
0.194153
0.0035805
0.194125
0.00413575
0.194045
0.00467822
0.193916
0.00520732
0.193738
0.00572245
0.193512
0.0062231
0.193239
0.00670887
0.192921
0.00717953
0.192561
0.00763511
0.192158
0.00807608
0.191716
0.0085034
0.191236
0.00891899
0.190719
0.0093255
0.190166
0.00972738
0.189577
0.0101297
0.188948
0.0105396
0.0109636
0.187287
0.00166446
-0.187108
0.187415
0.00230609
0.187492
0.00293612
0.187519
0.00355373
0.187496
0.00415828
0.187425
0.00474914
0.187307
0.00532557
0.187143
0.00588688
0.186933
0.00643241
0.186681
0.0069616
0.186386
0.00747402
0.186052
0.00796947
0.18568
0.00844821
0.185272
0.00891093
0.184832
0.00935961
0.18436
0.00979683
0.183859
0.0102282
0.18333
0.0106593
0.182769
0.0111009
0.0115614
0.181178
0.00149801
-0.181011
0.181295
0.00218932
0.181362
0.00286828
0.181382
0.00353398
0.181355
0.00418574
0.181281
0.00482281
0.181162
0.00544436
0.181
0.00604956
0.180794
0.00663759
0.180548
0.0072077
0.180263
0.00775921
0.179941
0.00829159
0.179584
0.00880478
0.179196
0.009299
0.17878
0.0097761
0.178339
0.0102381
0.177875
0.010692
0.177391
0.0111433
0.176883
0.0116083
0.0120965
0.175551
0.00134934
-0.175403
0.175652
0.00208881
0.175705
0.00281513
0.175712
0.00352736
0.175673
0.0042247
0.175589
0.00490628
0.175462
0.0055712
0.175294
0.00621849
0.175084
0.00684717
0.174835
0.00745624
0.17455
0.00804474
0.17423
0.00861173
0.173878
0.0091567
0.173498
0.0096791
0.173093
0.0101805
0.17267
0.0106615
0.172231
0.011131
0.171782
0.0115921
0.171319
0.0120711
0.0125748
0.170356
0.00122072
-0.170228
0.170438
0.00200724
0.170473
0.00277969
0.170463
0.00353715
0.170409
0.00427873
0.170312
0.0050035
0.170173
0.00571041
0.169993
0.00639839
0.169774
0.00706627
0.169517
0.00771282
0.169225
0.00833675
0.168901
0.00893663
0.168546
0.00951138
0.168166
0.0100594
0.167764
0.0105816
0.16735
0.0110763
0.166926
0.0115545
0.166505
0.0120128
0.166081
0.0124951
0.0129951
0.165537
0.00111292
-0.165429
0.165599
0.00194543
0.165616
0.00276293
0.165588
0.00356452
0.165518
0.00434924
0.165405
0.00511604
0.165252
0.0058638
0.165059
0.00659132
0.164828
0.00729727
0.164561
0.00798015
0.164259
0.00863836
0.163926
0.00926995
0.163564
0.00987312
0.163178
0.010445
0.162775
0.0109856
0.162362
0.0114892
0.161946
0.0119697
0.161549
0.0124101
0.16116
0.0128838
0.0133453
0.161042
0.00102545
-0.160955
0.161085
0.00190287
0.161083
0.00276442
0.161039
0.0036091
0.160952
0.00443588
0.160824
0.00524363
0.160657
0.00603117
0.160451
0.00679717
0.160208
0.00754015
0.15993
0.0082584
0.159618
0.00894998
0.159276
0.00961245
0.158906
0.0102433
0.158513
0.0108381
0.158103
0.0113956
0.157687
0.0119047
0.157275
0.0123818
0.156898
0.0127871
0.15654
0.0132422
0.0135994
0.156824
0.000956464
-0.156755
0.156849
0.00187803
0.156831
0.00278246
0.156771
0.00366906
0.15667
0.0045367
0.156529
0.00538418
0.15635
0.00621027
0.156134
0.00701356
0.155882
0.00779242
0.155595
0.00854498
0.155276
0.00926901
0.154927
0.00996165
0.154551
0.0106197
0.154151
0.0112374
0.153735
0.0118116
0.153315
0.0123246
0.152903
0.0127941
0.152547
0.0131427
0.152213
0.0135762
0.0137265
0.15284
0.00090401
-0.152787
0.15285
0.00186805
0.152818
0.00281384
0.152747
0.00374081
0.152636
0.00464768
0.152487
0.00553323
0.152301
0.00639621
0.152079
0.00723515
0.151823
0.00804831
0.151534
0.00883369
0.151215
0.00958889
0.150866
0.0103107
0.15049
0.0109955
0.150091
0.0116362
0.149674
0.0122286
0.149251
0.0127473
0.148835
0.0132102
0.1485
0.0134774
0.148207
0.0138692
0.0136745
0.14905
-0.149013
0.000866531
0.149049
0.00186898
0.149009
0.00285416
0.14893
0.00381928
0.148815
0.00476297
0.148664
0.00568416
0.148479
0.00658159
0.14826
0.00745371
0.14801
0.00829877
0.147729
0.00911465
0.147419
0.00989891
0.147081
0.0106481
0.146718
0.0113586
0.146332
0.0120223
0.145926
0.012635
0.145508
0.0131648
0.145085
0.0136337
0.144734
0.0138283
0.144476
0.0141271
0.0130311
0.254371
7.40849e-05
-0.254445
0.254334
3.64019e-05
0.254302
3.25745e-05
0.25426
4.15133e-05
0.254204
5.5951e-05
0.25413
7.3809e-05
0.254037
9.37848e-05
0.253922
0.000114754
0.253786
0.000135903
0.253629
0.000156723
0.253453
0.000176775
0.253257
0.00019578
0.253042
0.000214235
0.252809
0.000233204
0.252559
0.000250495
0.252293
0.000265673
0.252015
0.00027834
0.251726
0.000288403
0.251436
0.000290004
0.000290017
0.256238
-0.000241593
-0.255922
0.256492
-0.000217598
0.256701
-0.000176649
0.256865
-0.000122824
0.256984
-6.26373e-05
0.257056
1.30733e-06
0.257082
6.7867e-05
0.257061
0.000135951
0.256992
0.000204633
0.256876
0.000272977
0.256713
0.000339743
0.256505
0.000403682
0.256256
0.000463549
0.255958
0.000531057
0.255616
0.000592758
0.255232
0.000649919
0.254808
0.000702381
0.254346
0.000750081
0.253848
0.000788364
0.00082145
0.251675
-0.000898477
-0.251018
0.252259
-0.000801534
0.252777
-0.000694738
0.253233
-0.000578261
0.253626
-0.000455612
0.253956
-0.000329037
0.254223
-0.000199682
0.254428
-6.89519e-05
0.25457
6.31606e-05
0.254647
0.000196074
0.254661
0.000325952
0.254612
0.000452424
0.254498
0.000577789
0.254326
0.000702911
0.254095
0.000823837
0.253805
0.000939746
0.253457
0.00105017
0.253052
0.00115501
0.252588
0.0012523
0.00134485
0.243357
-0.00183444
-0.242421
0.24422
-0.00166472
0.245013
-0.00148772
0.245738
-0.00130272
0.246393
-0.00111139
0.24698
-0.000915527
0.247497
-0.000716489
0.247943
-0.000515535
0.24832
-0.000313357
0.248623
-0.000107173
0.248854
9.47881e-05
0.249017
0.00028958
0.249108
0.000486292
0.249131
0.000679985
0.249086
0.000869587
0.248971
0.00105419
0.248788
0.00123305
0.248538
0.0014058
0.248218
0.00157139
0.00173035
0.233274
-0.00296937
-0.232139
0.234341
-0.0027314
0.235339
-0.00248592
0.236269
-0.0022325
0.237129
-0.00197206
0.23792
-0.00170608
0.238639
-0.001436
0.239287
-0.00116304
0.239862
-0.000888151
0.240367
-0.000612119
0.2408
-0.000338179
0.241157
-6.77341e-05
0.241442
0.000201284
0.241655
0.000466966
0.241796
0.000728914
0.241864
0.000985689
0.241861
0.00123656
0.241785
0.00148094
0.241639
0.001718
0.00194767
0.222717
-0.00423084
-0.221455
0.223915
-0.00392951
0.225048
-0.00361911
0.226116
-0.00329976
0.227116
-0.0029723
0.228048
-0.00263815
0.228911
-0.00229887
0.229704
-0.00195594
0.230426
-0.0016108
0.231079
-0.00126479
0.23166
-0.000919486
0.232169
-0.000576163
0.232606
-0.000235689
0.232972
0.000100403
0.233268
0.000433586
0.23349
0.000762749
0.233642
0.00108522
0.233722
0.00140092
0.233731
0.00170922
0.00200988
0.212471
-0.00556123
-0.211141
0.213742
-0.00520073
0.214952
-0.00482904
0.216099
-0.0044468
0.217182
-0.00405506
0.2182
-0.00365543
0.21915
-0.00324972
0.220034
-0.00283968
0.22085
-0.00242695
0.221598
-0.00201299
0.222278
-0.0015992
0.222889
-0.001187
0.22343
-0.000777184
0.223901
-0.000370488
0.22431
2.54299e-05
0.224645
0.000426818
0.224912
0.000818595
0.22511
0.00120304
0.225239
0.00158008
0.00194932
0.202948
-0.00691874
-0.201591
0.20425
-0.00650239
0.205493
-0.00607245
0.206676
-0.00562994
0.207798
-0.00517636
0.208856
-0.0047137
0.20985
-0.00424411
0.21078
-0.0037696
0.211645
-0.00329202
0.212445
-0.00281296
0.21318
-0.00233393
0.213849
-0.00185628
0.214453
-0.00138109
0.214992
-0.000909314
0.21546
-0.000442313
0.215873
1.37716e-05
0.216214
0.000477383
0.216491
0.000926224
0.216702
0.00136851
0.00180289
0.194306
-0.00827554
-0.192949
0.19561
-0.00780588
0.196857
-0.00731993
0.198046
-0.00681904
0.199175
-0.00630535
0.200243
-0.00578148
0.201249
-0.00524998
0.202192
-0.00471318
0.203073
-0.00417315
0.203892
-0.00363165
0.204648
-0.00309024
0.205342
-0.00255025
0.205974
-0.00201284
0.206544
-0.00147896
0.207052
-0.000950004
0.207493
-0.000427286
0.207879
9.07088e-05
0.208201
0.000604511
0.208461
0.00110816
0.00160395
0.186553
-0.00961486
-0.185213
0.187841
-0.00909386
0.189074
-0.00855338
0.19025
-0.00799514
0.191367
-0.00742231
0.192424
-0.00683831
0.19342
-0.00624623
0.194356
-0.00564874
0.195231
-0.00504814
0.196046
-0.00444634
0.1968
-0.00384491
0.197495
-0.00324515
0.198131
-0.00264822
0.198707
-0.00205508
0.199223
-0.00146673
0.19968
-0.00088408
0.200079
-0.000307864
0.200421
0.000262342
0.200703
0.00082556
0.00137928
0.179616
-0.010928
-0.178303
0.18088
-0.0103574
0.182089
-0.00976316
0.183242
-0.00914779
0.184336
-0.00851601
0.18537
-0.00787231
0.186344
-0.00722035
0.187258
-0.00656322
0.188114
-0.00590344
0.18891
-0.00524298
0.189649
-0.00458338
0.19033
-0.00392592
0.190953
-0.00327167
0.19152
-0.00262154
0.192029
-0.00197638
0.192482
-0.00133707
0.192878
-0.000704113
0.193221
-8.04511e-05
0.193508
0.000539263
0.00114822
0.173392
-0.012212
-0.172108
0.174628
-0.0115935
0.17581
-0.0109456
0.176935
-0.0102725
0.178
-0.00958132
0.179006
-0.00887775
0.179952
-0.00816613
0.180838
-0.00744994
0.181667
-0.00673191
0.182438
-0.006014
0.183152
-0.00529768
0.18381
-0.0045841
0.184413
-0.00387423
0.18496
-0.00316893
0.185453
-0.00246896
0.185891
-0.00177516
0.186275
-0.00108826
0.186605
-0.000409853
0.186884
0.000260252
0.000923848
0.16777
-0.0134676
-0.166514
0.16898
-0.0128036
0.170136
-0.0121013
0.171232
-0.011369
0.172268
-0.0106173
0.173244
-0.00985311
0.174159
-0.00908153
0.175015
-0.00830648
0.175814
-0.00753075
0.176557
-0.00675622
0.177243
-0.00598419
0.177875
-0.00521567
0.178452
-0.00445147
0.178975
-0.00369236
0.179445
-0.00293905
0.179863
-0.00219235
0.180227
-0.00145273
0.180538
-0.00072092
0.180802
-3.69987e-06
0.000714531
0.162651
-0.0146987
-0.16142
0.163839
-0.0139924
0.164972
-0.0132338
0.166043
-0.0124397
0.167051
-0.0116256
0.167997
-0.0107994
0.168883
-0.00996701
0.169709
-0.0091328
0.170478
-0.00829954
0.17119
-0.00746885
0.171848
-0.0066418
0.172451
-0.00581916
0.173002
-0.00500158
0.173499
-0.00418969
0.173944
-0.00338412
0.174337
-0.00258563
0.174679
-0.00179486
0.174972
-0.00101312
0.17521
-0.000242213
0.000521891
0.157951
-0.0159118
-0.156738
0.159126
-0.0151675
0.160241
-0.0143486
0.16129
-0.0134889
0.162274
-0.0126092
0.163193
-0.0117185
0.16405
-0.0108236
0.164846
-0.00992948
0.165585
-0.00903846
0.166268
-0.00815181
0.166897
-0.00727023
0.167472
-0.00639416
0.167994
-0.00552398
0.168464
-0.00466017
0.168884
-0.00380328
0.169252
-0.00295399
0.16957
-0.00211306
0.169838
-0.00128144
0.170056
-0.000460246
0.000350769
0.153607
-0.0171196
-0.1524
0.154779
-0.0163393
0.155883
-0.0154527
0.156916
-0.0145215
0.157877
-0.0135707
0.15877
-0.012611
0.159598
-0.0116513
0.160364
-0.010696
0.161073
-0.00974688
0.161725
-0.00880456
0.162324
-0.00786908
0.16287
-0.00694038
0.163365
-0.00601849
0.163808
-0.00510369
0.164201
-0.0041964
0.164545
-0.00329723
0.164839
-0.00240694
0.165084
-0.00152634
0.16528
-0.000656628
0.000201221
0.149575
-0.0183513
-0.148343
0.150759
-0.0175231
0.151859
-0.0165525
0.152877
-0.0155399
0.153815
-0.0145085
0.154678
-0.0134739
0.155473
-0.0124466
0.156207
-0.0114295
0.156883
-0.0104227
0.157504
-0.00942569
0.158072
-0.00843755
0.158589
-0.0074575
0.159056
-0.00648515
0.159473
-0.00552051
0.15984
-0.0045639
0.160159
-0.00361586
0.160429
-0.00267714
0.160651
-0.00174862
0.160826
-0.000831265
7.25664e-05
0.145824
-0.0196714
-0.144504
0.147042
-0.0187408
0.148138
-0.0176486
0.149137
-0.0165388
0.150043
-0.0154145
0.150868
-0.0142988
0.151624
-0.0132032
0.15232
-0.0121256
0.152961
-0.0110633
0.153549
-0.0100138
0.154087
-0.0089752
0.154575
-0.00794572
0.155014
-0.00692455
0.155405
-0.0059115
0.155748
-0.00490681
0.156043
-0.00391101
0.156291
-0.0029249
0.156492
-0.00194951
0.156647
-0.000985838
-3.58213e-05
0.14237
-0.0211499
-0.140892
0.143619
-0.0199897
0.144693
-0.0187228
0.14565
-0.0174957
0.146508
-0.016272
0.147284
-0.0150751
0.147995
-0.0139141
0.14865
-0.0127807
0.149254
-0.0116672
0.149809
-0.010569
0.150317
-0.00948283
0.150777
-0.00840625
0.151191
-0.00733812
0.151558
-0.00627819
0.151878
-0.00522674
0.152151
-0.00418439
0.152378
-0.003152
0.152559
-0.00213074
0.152696
-0.00112209
-0.000127612
0.139284
-0.137865
-0.0225684
0.140446
-0.021152
0.14148
-0.0197568
0.142357
-0.0183728
0.143146
-0.0170612
0.14387
-0.0157988
0.144535
-0.0145793
0.14515
-0.0133954
0.145719
-0.0122362
0.146243
-0.0110934
0.146723
-0.00996242
0.147157
-0.00884079
0.147547
-0.00772733
0.14789
-0.00662192
0.148189
-0.00552503
0.148442
-0.00443745
0.14865
-0.00336015
0.148813
-0.00229412
0.148932
-0.00124096
-0.000208147
0.0308456
0.112055
-0.11057
-0.0323302
0.0293336
0.115057
-0.113545
0.0277915
0.118191
-0.116649
0.0262158
0.121482
-0.119906
0.0246031
0.12496
-0.123347
0.0229507
0.128669
-0.127016
0.0212566
0.132666
-0.130972
0.0195192
0.137031
-0.135294
0.0177381
0.141868
-0.140087
0.0159135
0.147309
-0.145484
0.0140472
0.153513
-0.151647
0.0121434
0.160669
-0.158765
0.0102112
0.168977
-0.167045
0.00826716
0.178626
-0.176682
0.00634122
0.18974
-0.187814
0.00448356
0.202281
-0.200423
0.00277401
0.215913
-0.214204
0.00133314
0.22978
-0.228339
0.000330367
0.242097
-0.241094
0.249729
-0.249399
0.0306561
0.113532
-0.0321331
0.0291517
0.116561
0.0276175
0.119726
0.0260498
0.123049
0.0244455
0.126564
0.0228015
0.130313
0.0211157
0.134352
0.0193866
0.138761
0.0176134
0.143642
0.0157965
0.149126
0.0139377
0.155372
0.0120417
0.162565
0.0101178
0.170901
0.00818371
0.18056
0.00627042
0.191653
0.00442963
0.204122
0.00274263
0.2176
0.00132945
0.231193
0.000354125
0.243072
0.250083
0.0304246
0.114999
-0.0318918
0.0289301
0.118056
0.027406
0.12125
0.0258486
0.124607
0.0242547
0.128158
0.0226213
0.131946
0.0209461
0.136027
0.0192275
0.140479
0.0174645
0.145405
0.0156577
0.150933
0.0138088
0.157221
0.0119229
0.164451
0.0100099
0.172814
0.00808818
0.182482
0.0061897
0.193551
0.0043672
0.205944
0.0027025
0.219265
0.001314
0.232581
0.000357194
0.244029
0.250441
0.0301529
0.116454
-0.0316082
0.0286704
0.119538
0.0271584
0.122762
0.0256134
0.126152
0.024032
0.12974
0.0224112
0.133567
0.0207486
0.13769
0.0190426
0.142185
0.0172921
0.147155
0.0154975
0.152727
0.0136608
0.159058
0.0117874
0.166324
0.0098875
0.174714
0.00798026
0.184389
0.00609848
0.195433
0.00429561
0.207747
0.00265363
0.220907
0.00128925
0.233946
0.000352124
0.244966
0.250793
0.0298431
0.117896
-0.0312846
0.0283746
0.121007
0.0268767
0.12426
0.0253458
0.127683
0.0237787
0.131307
0.0221723
0.135173
0.0205242
0.139338
0.0188327
0.143877
0.0170966
0.148891
0.0153163
0.154508
0.013494
0.16088
0.0116351
0.168183
0.00975055
0.176598
0.00785993
0.18628
0.00599687
0.197296
0.00421547
0.209528
0.00259775
0.222525
0.00125878
0.235285
0.000343198
0.245882
0.251136
0.0294979
0.119322
-0.0309241
0.0280448
0.12246
0.0265625
0.125742
0.0250474
0.129198
0.0234962
0.132858
0.0219058
0.136764
0.0202739
0.14097
0.0185986
0.145552
0.0168787
0.150611
0.0151147
0.156272
0.0133087
0.162686
0.0114665
0.170025
0.00959929
0.178466
0.00772744
0.188152
0.00588524
0.199138
0.00412741
0.211286
0.00253588
0.224116
0.00122396
0.236597
0.000331586
0.246774
0.251468
0.02912
0.120732
-0.0305298
0.0276835
0.123896
0.026218
0.127207
0.0247199
0.130696
0.0231859
0.134392
0.021613
0.138337
0.0199987
0.142584
0.0183411
0.14721
0.0166392
0.152313
0.0148931
0.158018
0.0131053
0.164474
0.0112817
0.171849
0.00943402
0.180313
0.00758308
0.190003
0.00576392
0.200957
0.00403179
0.213018
0.00246845
0.225679
0.00118534
0.23788
0.000317994
0.247642
0.251786
0.0287124
0.122124
-0.0301051
0.0272931
0.125316
0.0258453
0.128655
0.0243651
0.132176
0.0228492
0.135908
0.0212948
0.139891
0.0196994
0.144179
0.018061
0.148848
0.0163784
0.153995
0.014652
0.159744
0.0128843
0.166241
0.0110812
0.173652
0.00925503
0.18214
0.00742712
0.191831
0.00563316
0.202751
0.00392889
0.214723
0.00239579
0.227213
0.00114345
0.239132
0.000303025
0.248482
0.252089
0.0282778
0.1235
-0.0296534
0.026876
0.126717
0.0254461
0.130085
0.0239843
0.133638
0.0224874
0.137405
0.0209524
0.141426
0.0193769
0.145755
0.0177588
0.150466
0.0160971
0.155657
0.0143919
0.161449
0.0126458
0.167987
0.0108652
0.175433
0.00906257
0.183942
0.00725981
0.193634
0.00549325
0.204518
0.00381903
0.216397
0.00231831
0.228713
0.00109877
0.240352
0.000287095
0.249294
0.252376
0.0278191
0.124859
-0.0291784
0.0264343
0.128102
0.0250221
0.131497
0.0235789
0.135081
0.0221012
0.138883
0.0205863
0.142941
0.0190316
0.14731
0.017435
0.152063
0.0157953
0.157297
0.0141129
0.163132
0.0123903
0.16971
0.010634
0.177189
0.00885683
0.185719
0.00708136
0.195409
0.00534441
0.206255
0.00370249
0.218039
0.00223635
0.230179
0.00105166
0.241536
0.00027045
0.250075
0.252646
0.0273386
0.126204
-0.0286832
0.0259697
0.129471
0.0245746
0.132893
0.0231496
0.136506
0.0216913
0.140341
0.0201969
0.144435
0.0186637
0.148843
0.0170896
0.153637
0.0154734
0.158913
0.0138152
0.16479
0.0121177
0.171408
0.0103876
0.178919
0.00863798
0.187469
0.00689197
0.197155
0.00518689
0.20796
0.00357956
0.219646
0.00215019
0.231609
0.00100238
0.242684
0.00025325
0.250824
0.252899
0.026838
0.127536
-0.0281704
0.0254831
0.130826
0.0241038
0.134272
0.0226964
0.137913
0.0212575
0.14178
0.0197839
0.145909
0.0182731
0.150354
0.0167226
0.155187
0.0151311
0.160505
0.0134987
0.166422
0.011828
0.173078
0.010126
0.180621
0.00840612
0.189189
0.00669178
0.198869
0.0050209
0.209631
0.00345047
0.221217