/*--------------------------------*- C++ -*----------------------------------*\
  =========                 |
  \\      /  F ield         | OpenFOAM: The Open Source CFD Toolbox
   \\    /   O peration     | Website:  https://openfoam.org
    \\  /    A nd           | Version:  6.0
     \\/     M anipulation  |
\*---------------------------------------------------------------------------*/
FoamFile
{
    version     2.0;
    format      ascii;
    class       surfaceScalarField;
    location    "13.5";
    object      phi;
}
// * * * * * * * * * * * * * * * * * * * * * * * * * * * * * * * * * * * * * //

dimensions      [0 3 -1 0 0 0 0];

internalField   nonuniform List<scalar> 
18940
(
0.000108956
-0.11549
0.115381
0.0005162
-0.101835
0.101427
0.00121193
-0.0917799
0.0910842
0.00216746
-0.0843306
0.083375
0.00334705
-0.0787541
0.0775745
0.00471287
-0.0745083
0.0731425
0.00622839
-0.0712026
0.0696871
0.00786015
-0.0685586
0.0669269
0.00957842
-0.0663784
0.0646601
0.0113575
-0.0645215
0.0627425
0.0131755
-0.062889
0.061071
0.0150142
-0.0614111
0.0595724
0.0168589
-0.0600389
0.0581942
0.0186976
-0.058738
0.0568993
0.0205211
-0.0574841
0.0556606
0.0223224
-0.0562593
0.054458
0.0240961
-0.0550494
0.0532757
0.0258378
-0.053842
0.0521002
0.0275437
-0.0526242
0.0509183
-0.0513805
0.0497153
0.029209
0.00012968
-0.11562
0.000566327
-0.102271
0.00129979
-0.0925133
0.00229754
-0.0853283
0.00351996
-0.0799766
0.00492635
-0.0759147
0.00647811
-0.0727544
0.00814031
-0.0702208
0.0098823
-0.0681204
0.0116778
-0.066317
0.0135048
-0.064716
0.0153453
-0.0632515
0.0171845
-0.0618782
0.0190114
-0.0605648
0.0208172
-0.0592899
0.0225956
-0.0580378
0.0243424
-0.0567961
0.0260541
-0.0555537
0.027728
-0.0542981
-0.0530133
0.0293607
0.000145645
-0.115765
0.000612022
-0.102738
0.00138263
-0.093284
0.00242063
-0.0863663
0.00368277
-0.0812387
0.00512563
-0.0773576
0.0067087
-0.0743375
0.00839573
-0.0719079
0.0101553
-0.0698799
0.0119607
-0.0681225
0.0137899
-0.0665453
0.0156251
-0.0650867
0.0174521
-0.0637052
0.0192602
-0.062373
0.0210417
-0.0610713
0.022791
-0.0597871
0.0245048
-0.0585099
0.0261809
-0.0572298
0.0278176
-0.0559348
-0.0546087
0.029413
0.000159768
-0.115925
0.000654697
-0.103233
0.00146082
-0.0940901
0.00253647
-0.087442
0.0038348
-0.082537
0.00530976
-0.0788325
0.00691901
-0.0759467
0.00862514
-0.073614
0.0103961
-0.0716508
0.0122049
-0.0699313
0.0140296
-0.06837
0.0158528
-0.0669099
0.0176609
-0.0655133
0.019444
-0.064156
0.0211949
-0.0628223
0.0229094
-0.0615016
0.0245849
-0.0601854
0.0262204
-0.0588652
0.0278155
-0.0575299
-0.0561629
0.0293697
0.000172862
-0.116098
0.000694844
-0.103755
0.00153438
-0.0949296
0.00264474
-0.0885523
0.00397544
-0.0838677
0.00547791
-0.080335
0.00710808
-0.0775769
0.00882752
-0.0753334
0.0106036
-0.0734269
0.0124095
-0.0717371
0.0142233
-0.0701838
0.0160281
-0.0687146
0.017811
-0.0672962
0.019563
-0.0659079
0.0212778
-0.0645372
0.0229522
-0.0631759
0.0245847
-0.0618179
0.0261754
-0.0604559
0.0277251
-0.0590796
-0.0576726
0.0292349
0.000185203
-0.116283
0.000732645
-0.104302
0.00160324
-0.0958002
0.00274511
-0.0896942
0.00410418
-0.0852268
0.00562941
-0.0818602
0.00727517
-0.0792226
0.00900213
-0.0770604
0.0107773
-0.0752022
0.0125739
-0.0735337
0.0143706
-0.0719805
0.0161509
-0.070495
0.0179028
-0.0690482
0.0196182
-0.0676233
0.0212919
-0.0662109
0.0229215
-0.0648056
0.0245068
-0.0634032
0.0260491
-0.0619982
0.0275505
-0.060581
-0.0591353
0.0290132
0.000196875
-0.11648
0.000768129
-0.104873
0.00166727
-0.0966993
0.0028373
-0.0908642
0.00422061
-0.0866101
0.00576379
-0.0834034
0.00741978
-0.0808786
0.00914851
-0.0787891
0.0109169
-0.0769705
0.0126982
-0.0753151
0.0144717
-0.073754
0.0162218
-0.072245
0.0179373
-0.0707637
0.019611
-0.069297
0.0212389
-0.0678388
0.0228197
-0.0663864
0.0243543
-0.0649378
0.0258452
-0.0634891
0.0272956
-0.0620315
-0.060549
0.0287093
0.000207892
-0.116688
0.000801264
-0.105467
0.00172636
-0.0976244
0.0029211
-0.092059
0.00432445
-0.0880134
0.00588075
-0.0849597
0.00754164
-0.0825395
0.00926652
-0.080514
0.0110222
-0.0787262
0.0127826
-0.0770754
0.0145273
-0.0754988
0.0162419
-0.0739595
0.0179159
-0.0724378
0.0195434
-0.0709244
0.0211214
-0.0694167
0.0226497
-0.0679147
0.0241304
-0.0664185
0.0255672
-0.0649259
0.0269647
-0.063429
-0.061912
0.0283277
0.000218235
-0.116906
0.000832004
-0.10608
0.00178041
-0.0985728
0.0029964
-0.093275
0.00441556
-0.0894326
0.00598016
-0.0865243
0.00764073
-0.0842001
0.00935628
-0.0822295
0.0110938
-0.0804638
0.0128276
-0.0788092
0.0145385
-0.0772096
0.0162124
-0.0756335
0.0178405
-0.0740659
0.0194176
-0.0725015
0.0209419
-0.070941
0.0224145
-0.0693873
0.0238385
-0.0678426
0.025219
-0.0663063
0.0265617
-0.0647717
-0.0632231
0.0278729
0.000227879
-0.117134
0.00086032
-0.106713
0.0018294
-0.0995419
0.00306315
-0.0945087
0.00449394
-0.0908634
0.00606211
-0.0880925
0.00771727
-0.0858552
0.00941821
-0.0839305
0.0111323
-0.0821779
0.0128345
-0.0805114
0.0145065
-0.0788815
0.0161354
-0.0772625
0.0177133
-0.0756438
0.0192363
-0.0740245
0.0207036
-0.0724083
0.0221175
-0.0708011
0.0234823
-0.0692074
0.0248043
-0.0676283
0.0260905
-0.0660579
-0.0644812
0.0273486
0.000236809
-0.117371
0.000886219
-0.107362
0.00187337
-0.100529
0.00312145
-0.0957568
0.00455974
-0.0923017
0.00612686
-0.0896596
0.00777168
-0.0875001
0.00945301
-0.0856118
0.0111387
-0.0838636
0.0128045
-0.0821773
0.0144332
-0.0805102
0.0160129
-0.0788422
0.017537
-0.0771679
0.0190024
-0.0754899
0.0204098
-0.0738157
0.0217622
-0.0721536
0.0230654
-0.0705106
0.0243267
-0.0688897
0.0255548
-0.067286
-0.0656847
0.0267584
0.000245019
-0.117616
0.000909768
-0.108027
0.00191246
-0.101532
0.0031715
-0.0970158
0.00461325
-0.0937434
0.00617484
-0.0912212
0.00780464
-0.0891299
0.00946164
-0.0872688
0.0111143
-0.0855163
0.0127395
-0.0838024
0.0143208
-0.0820915
0.0158477
-0.0803692
0.0173146
-0.0786347
0.0187196
-0.0768949
0.0200642
-0.0751602
0.0213527
-0.073442
0.0225917
-0.0717497
0.0237901
-0.0700881
0.0249579
-0.0684538
-0.0668321
0.0261053
0.000252544
-0.117869
0.000931113
-0.108706
0.00194692
-0.102548
0.00321362
-0.0982825
0.00465491
-0.0951847
0.00620668
-0.092773
0.00781702
-0.0907402
0.0094453
-0.0888971
0.0110608
-0.0871318
0.0126414
-0.085383
0.0141718
-0.0836219
0.0156428
-0.0818402
0.0170498
-0.0800417
0.0183918
-0.0782369
0.0196712
-0.0764397
0.0208933
-0.0746641
0.0220657
-0.0729221
0.0231985
-0.0712209
0.0243033
-0.0695587
-0.067921
0.0253922
0.000259479
-0.118128
0.000950524
-0.109397
0.0019771
-0.103574
0.00324825
-0.0995537
0.00468527
-0.0966217
0.00622311
-0.0943108
0.00780985
-0.0923269
0.00940541
-0.0904927
0.01098
-0.0887064
0.0125126
-0.0869155
0.0139892
-0.0850985
0.0154017
-0.0832527
0.0167464
-0.0813864
0.0180234
-0.0795139
0.0192357
-0.077652
0.0203891
-0.0758175
0.0214923
-0.0740252
0.0225563
-0.072285
0.0235948
-0.0705971
-0.0689479
0.0246217
0.000266055
-0.118394
0.000968454
-0.110099
0.00200354
-0.104609
0.00327593
-0.100826
0.00470495
-0.0980508
0.00622498
-0.0958308
0.00778429
-0.0938863
0.00934353
-0.0920519
0.010874
-0.0902368
0.0123558
-0.0883973
0.0137762
-0.086519
0.0151282
-0.0846047
0.0164092
-0.0826673
0.0176198
-0.0807245
0.0187635
-0.0787957
0.0198465
-0.0769005
0.0208777
-0.0750564
0.0218693
-0.0732766
0.0228366
-0.0715644
-0.0699076
0.0237964
0.000272738
-0.118667
0.000985595
-0.110812
0.00202686
-0.10565
0.00329725
-0.102096
0.00471465
-0.0994682
0.00621318
-0.0973293
0.00774155
-0.0954146
0.00926132
-0.0935717
0.0107449
-0.0917204
0.0121737
-0.0898261
0.0135363
-0.0878816
0.0148267
-0.0858952
0.0160432
-0.0838838
0.0171869
-0.0818682
0.0182616
-0.0798704
0.0192731
-0.077912
0.0202302
-0.0760135
0.0211453
-0.0741917
0.0220355
-0.0724546
-0.0707933
0.0229211
0.000280318
-0.118947
0.00100286
-0.111534
0.00204776
-0.106695
0.0033128
-0.103362
0.00471501
-0.10087
0.00618858
-0.0988029
0.00768286
-0.0969089
0.00916042
-0.0950492
0.010595
-0.093155
0.0119692
-0.0912004
0.013273
-0.0891854
0.0145016
-0.0871237
0.0156539
-0.0850361
0.0167315
-0.0829459
0.0177381
-0.080877
0.0186789
-0.0788528
0.0195614
-0.076896
0.0203969
-0.0750272
0.0212034
-0.0732611
-0.0715958
0.022006
0.000290125
-0.119237
0.00102159
-0.112266
0.00206713
-0.107741
0.00332319
-0.104618
0.00470663
-0.102254
0.00615195
-0.100248
0.00760928
-0.0983662
0.00904232
-0.0964823
0.0104261
-0.0945388
0.0117449
-0.0925192
0.0129898
-0.0904303
0.0141571
-0.088291
0.0152467
-0.0861256
0.0162605
-0.0839597
0.0172018
-0.0818183
0.0180748
-0.0797258
0.0188849
-0.0777061
0.0196404
-0.0757827
0.0203572
-0.0739779
-0.0723036
0.0210649
0.00030568
-0.119543
0.00104476
-0.113005
0.00208636
-0.108783
0.003329
-0.10586
0.00468992
-0.103615
0.00610384
-0.101662
0.00752164
-0.099784
0.00890821
-0.0978688
0.0102401
-0.0958706
0.011503
-0.093782
0.0126895
-0.0916168
0.0137972
-0.0893987
0.0148269
-0.0871553
0.015781
-0.0849138
0.0166625
-0.0826999
0.0174743
-0.0805376
0.0182185
-0.0784502
0.0188962
-0.0764604
0.019515
-0.0745967
-0.0729107
0.0201221
0.000338297
-0.119881
0.00107654
-0.113743
0.0021059
-0.109812
0.00332989
-0.107084
0.00466464
-0.104949
0.00604433
-0.103042
0.00742033
-0.10116
0.0087588
-0.0992073
0.0100378
-0.0971497
0.0112447
-0.094989
0.0123739
-0.0927459
0.0134242
-0.0904491
0.014398
-0.0881291
0.0152989
-0.0858147
0.0161309
-0.0835318
0.0168969
-0.0813036
0.0175964
-0.0791497
0.01822
-0.077084
0.018749
-0.0751257
-0.0733667
0.019205
0.125161
0.000257989
-0.125419
0.124912
0.000248948
0.124662
0.00024995
0.124408
0.000254253
0.124148
0.000259731
0.123882
0.000265573
0.123611
0.00027128
0.123335
0.000276555
0.123053
0.000281243
0.122768
0.000285276
0.122479
0.000288617
0.122188
0.000291253
0.121895
0.000293167
0.121601
0.000294336
0.121306
0.000294707
0.121012
0.000294165
0.120719
0.000292448
0.12043
0.00028894
0.120148
0.000282081
0.000267145
0.12584
0.000718286
-0.1263
0.125351
0.0007377
0.124839
0.000761739
0.124306
0.000787869
0.123751
0.000814269
0.123177
0.000840138
0.122583
0.000864933
0.121971
0.000888226
0.121343
0.000909727
0.120699
0.000929254
0.120041
0.000946684
0.11937
0.000961933
0.118688
0.000974929
0.117997
0.000985595
0.117298
0.000993814
0.116593
0.000999397
0.115883
0.00100199
0.115171
0.00100093
0.114458
0.000995012
0.000982007
0.125812
0.00124289
-0.126337
0.125241
0.00130877
0.124629
0.0013742
0.123978
0.00143879
0.12329
0.00150162
0.122568
0.00156212
0.121814
0.00161989
0.121027
0.00167451
0.120211
0.00172568
0.119367
0.00177314
0.118497
0.00181669
0.117603
0.00185617
0.116687
0.00189144
0.11575
0.00192238
0.114795
0.00194883
0.113824
0.00197058
0.112838
0.00198732
0.111841
0.00199862
0.110832
0.0020038
0.00200195
0.124863
0.00174667
-0.125366
0.124303
0.00186858
0.12369
0.00198716
0.123026
0.00210245
0.122314
0.00221398
0.121555
0.00232132
0.12075
0.00242408
0.119903
0.0025219
0.119014
0.00261442
0.118086
0.00270134
0.11712
0.0027824
0.116119
0.00285738
0.115085
0.00292607
0.114019
0.00298828
0.112924
0.00304383
0.111802
0.0030925
0.110655
0.00313403
0.109485
0.00316815
0.108295
0.00319447
0.00321259
0.123042
0.00218033
-0.123476
0.122547
0.00236419
0.121991
0.00254317
0.121376
0.00271722
0.120704
0.00288596
0.119976
0.00304893
0.119195
0.00320572
0.11836
0.00335592
0.117476
0.00349911
0.116542
0.00363494
0.115562
0.00376307
0.114536
0.00388318
0.113467
0.00399502
0.112357
0.00409834
0.111208
0.00419288
0.110022
0.00427843
0.108801
0.00435476
0.107548
0.00442164
0.106263
0.00447885
0.00452622
0.120505
0.00252145
-0.120846
0.120099
0.00277052
0.119628
0.00301393
0.119094
0.00325139
0.118497
0.00348246
0.11784
0.00370663
0.117122
0.00392339
0.116346
0.00413224
0.115512
0.00433268
0.114623
0.00452428
0.113679
0.0047066
0.112683
0.00487926
0.111636
0.0050419
0.11054
0.00519421
0.109397
0.00533588
0.108209
0.00546664
0.106978
0.00558626
0.105705
0.00569456
0.104392
0.00579135
0.00587656
0.117444
0.00276569
-0.117688
0.117133
0.00308106
0.116757
0.00339044
0.116315
0.00369332
0.115808
0.00398917
0.115237
0.00427737
0.114603
0.00455731
0.113907
0.00482841
0.11315
0.00509007
0.112332
0.00534176
0.111456
0.00558294
0.110522
0.00581315
0.109532
0.00603194
0.108487
0.00623892
0.10739
0.0064337
0.10624
0.00661598
0.105041
0.00678551
0.103793
0.00694208
0.102499
0.00708554
0.00721581
0.114047
0.00291958
-0.114201
0.113827
0.00330072
0.113542
0.00367579
0.113191
0.00404417
0.112775
0.00440519
0.112294
0.00475814
0.111749
0.00510234
0.111141
0.00543708
0.110469
0.0057617
0.109735
0.00607555
0.10894
0.00637804
0.108085
0.00666859
0.10717
0.00694668
0.106197
0.00721182
0.105167
0.00746358
0.104081
0.0077016
0.102941
0.00792559
0.101748
0.00813534
0.100503
0.00833066
0.00851152
0.110477
0.00299546
-0.110553
0.110337
0.00344069
0.110133
0.00387999
0.109865
0.00431259
0.109532
0.00473772
0.109136
0.00515463
0.108675
0.00556251
0.108152
0.00596062
0.107565
0.00634818
0.106917
0.0067245
0.106206
0.00708888
0.105434
0.00744068
0.104601
0.00777931
0.103709
0.00810419
0.102757
0.00841483
0.101748
0.00871086
0.100682
0.00899193
0.0995593
0.0092578
0.0983816
0.00950832
0.00974348
0.106864
0.00300799
-0.106877
0.10679
0.00351501
0.106654
0.00401629
0.106455
0.00451098
0.106195
0.00499825
0.105872
0.00547727
0.105487
0.00594718
0.105041
0.00640715
0.104533
0.00685639
0.103963
0.0072941
0.103332
0.00771955
0.102641
0.00813203
0.10189
0.00853089
0.101078
0.00891549
0.100208
0.0092853
0.0992787
0.0096399
0.0982917
0.00997892
0.0972474
0.0103021
0.0961463
0.0106094
0.0109008
0.103304
0.00297199
-0.103268
0.103281
0.00353816
0.103198
0.00409881
0.103056
0.00465301
0.102855
0.00519989
0.102593
0.00573856
0.102272
0.00626812
0.101892
0.00678771
0.101452
0.00729647
0.100952
0.00779359
0.100394
0.00827827
0.0997758
0.00874978
0.0990993
0.00920739
0.0983643
0.00965047
0.0975712
0.0100784
0.0967203
0.0104908
0.0958119
0.0108872
0.0948466
0.0112675
0.0938245
0.0116314
0.0119794
0.0998624
0.00290112
-0.0997915
0.0998768
0.00352377
0.0998345
0.00414104
0.0997355
0.00475201
0.0995797
0.00535573
0.099367
0.00595128
0.0990973
0.00653775
0.0987708
0.00711424
0.0983874
0.00767988
0.0979472
0.00823381
0.0974502
0.00877523
0.0968966
0.00930337
0.0962865
0.00981748
0.0956201
0.0103169
0.0948975
0.010801
0.094119
0.0112693
0.0932847
0.0117215
0.0923949
0.0121573
0.0914498
0.0125766
0.0129801
0.0965811
0.00280726
-0.0964872
0.0966211
0.00348379
0.0966071
0.00415503
0.0965391
0.00482001
0.096417
0.00547777
0.096241
0.00612736
0.0960108
0.00676787
0.0957267
0.00739836
0.0953886
0.00801797
0.0949966
0.00862583
0.0945507
0.00922111
0.0940511
0.00980304
0.0934977
0.0103709
0.0928907
0.0109239
0.0922302
0.0114615
0.0915163
0.0119833
0.0907491
0.0124887
0.0899288
0.0129776
0.0890556
0.0134498
0.0139066
0.0934825
0.00270022
-0.0933754
0.093538
0.00342823
0.0935421
0.00415093
0.0934948
0.00486731
0.0933962
0.00557642
0.0932463
0.00627728
0.0930452
0.00696897
0.092793
0.00765056
0.0924898
0.00832117
0.0921356
0.00897995
0.0917307
0.00962606
0.091275
0.0102587
0.0907687
0.0108772
0.0902118
0.0114808
0.0896044
0.0120689
0.0889467
0.012641
0.0882387
0.0131967
0.0874805
0.0137358
0.0866727
0.0142576
0.0147646
0.0905746
0.00258773
-0.0904621
0.0906377
0.00336505
0.0906518
0.0041369
0.0906168
0.00490229
0.090533
0.00566022
0.0904005
0.00640974
0.0902196
0.00714989
0.0899904
0.00787976
0.0897131
0.00859847
0.0893879
0.00930518
0.0890149
0.00999908
0.0885942
0.0106794
0.0881261
0.0113453
0.0876106
0.0119962
0.0870479
0.0126316
0.0864381
0.0132508
0.0857813
0.0138534
0.0850777
0.0144394
0.0843282
0.0150071
0.015561
0.0878554
0.0024756
-0.0877433
0.0879202
0.00330026
0.0879379
0.0041192
0.0879088
0.00493139
0.0878332
0.00573583
0.0877114
0.00653156
0.0875437
0.00731762
0.0873303
0.00809311
0.0870716
0.00885715
0.0867679
0.00960893
0.0864193
0.0103476
0.0860262
0.0110724
0.0855888
0.0117827
0.0851073
0.0124778
0.0845819
0.013157
0.0840126
0.0138201
0.0833998
0.0144662
0.0827436
0.0150956
0.0820455
0.0157053
0.0163028
0.0853168
0.00236787
-0.0852091
0.0853789
0.00323812
0.0853959
0.00410225
0.085368
0.00495923
0.0852958
0.00580805
0.0851797
0.00664772
0.08502
0.00747731
0.0848172
0.00829591
0.0845717
0.00910265
0.0842839
0.00989672
0.0839541
0.0106773
0.0835829
0.0114437
0.0831704
0.0121952
0.0827169
0.0129312
0.0822229
0.0136511
0.0816885
0.0143545
0.0811138
0.0150409
0.0804987
0.0157106
0.079845
0.0163591
0.0169981
0.0829466
0.00226704
-0.0828457
0.0830035
0.00318122
0.0830169
0.00408878
0.0829875
0.00498866
0.0829157
0.00587985
0.0828021
0.00676134
0.0826472
0.00763219
0.0824516
0.0084915
0.0822159
0.00933841
0.0819404
0.0101721
0.0816259
0.0109919
0.0812727
0.0117969
0.0808814
0.0125866
0.0804523
0.0133603
0.0799859
0.0141175
0.0794825
0.0148579
0.0789421
0.0155813
0.0783642
0.0162885
0.0777472
0.0169761
0.0176613
0.0807303
0.00217409
-0.0806374
0.080781
0.00313059
0.0807899
0.00407985
0.0807577
0.0050208
0.0806852
0.00595238
0.080573
0.00687359
0.0804217
0.00778347
0.0802321
0.0086811
0.0800048
0.00956567
0.0797405
0.0104364
0.0794399
0.0112925
0.0791035
0.0121333
0.0787321
0.012958
0.078326
0.0137663
0.0778861
0.0145575
0.0774126
0.0153314
0.0769058
0.0160881
0.0763655
0.0168288
0.0757831
0.0175584
0.0183187
0.078652
-0.0785668
0.00208885
0.0786966
0.00308599
0.0787013
0.00407516
0.0786669
0.00505524
0.0785941
0.00602515
0.0784838
0.00698387
0.0783368
0.00793043
0.078154
0.00886393
0.0779362
0.00978353
0.0776841
0.0106885
0.0773985
0.0115781
0.0770802
0.0124515
0.07673
0.0133083
0.0763485
0.0141477
0.0759366
0.0149694
0.0754949
0.015773
0.0750241
0.016559
0.0745258
0.0173271
0.0739887
0.0180955
0.0189407
0.127272
8.99439e-06
-0.127281
0.12728
-7.69973e-06
0.127286
-6.13334e-06
0.127284
2.27715e-06
0.12727
1.39204e-05
0.127243
2.73826e-05
0.127201
4.1783e-05
0.127144
5.65675e-05
0.127073
7.14182e-05
0.126987
8.61547e-05
0.126886
0.00010066
0.126771
0.000114852
0.126643
0.000128657
0.126501
0.000142003
0.126346
0.000154801
0.126179
0.000166927
0.126001
0.000178163
0.125813
0.000188068
0.125617
0.000195607
0.000198152
0.128693
-0.000185805
-0.128498
0.128853
-0.000168317
0.128986
-0.000138843
0.12909
-0.000101683
0.129164
-5.99749e-05
0.129206
-1.51482e-05
0.129216
3.17985e-05
0.129193
8.00413e-05
0.129135
0.000128962
0.129043
0.000178106
0.128917
0.000227122
0.128756
0.000275715
0.128561
0.000323622
0.128332
0.000370593
0.128071
0.00041637
0.127777
0.000460648
0.127452
0.000503039
0.127097
0.000542961
0.126714
0.000579512
0.000611607
0.12749
-0.000583204
-0.127092
0.127838
-0.000516454
0.128142
-0.000442797
0.128403
-0.000362728
0.128621
-0.000277838
0.128795
-0.000189147
0.128924
-9.7453e-05
0.129008
-3.54241e-06
0.129045
9.18621e-05
0.129035
0.000188134
0.128977
0.000284717
0.128872
0.000381114
0.128719
0.000476857
0.128518
0.000571498
0.128269
0.000664598
0.127974
0.000755693
0.127633
0.00084428
0.127246
0.000929785
0.126814
0.00101152
0.00108898
0.124469
-0.00115761
-0.123895
0.124993
-0.00103978
0.125466
-0.000916245
0.12589
-0.000786647
0.126264
-0.000651682
0.126587
-0.000512085
0.126858
-0.00036854
0.127076
-0.000221787
0.127241
-7.25832e-05
0.12735
7.83379e-05
0.127405
0.000230279
0.127403
0.000382574
0.127346
0.000534581
0.127231
0.000685683
0.127061
0.000835272
0.126834
0.000982742
0.126551
0.00112748
0.126211
0.00126888
0.125817
0.00140628
0.00153925
0.120316
-0.00187915
-0.119594
0.120987
-0.00171145
0.121608
-0.00153726
0.122178
-0.00135624
0.122695
-0.00116876
0.123158
-0.000975452
0.123567
-0.000776989
0.123919
-0.000574126
0.124214
-0.000367675
0.124451
-0.000158456
0.124628
5.27127e-05
0.124746
0.000265028
0.124803
0.000477706
0.124799
0.000689981
0.124733
0.000901101
0.124605
0.00111033
0.124416
0.00131696
0.124164
0.00152028
0.123851
0.0017196
0.00191446
0.115547
-0.00271671
-0.11471
0.116337
-0.00250117
0.117077
-0.00227754
0.117767
-0.00204563
0.118404
-0.00180577
0.118987
-0.00155857
0.119514
-0.00130476
0.119985
-0.00104515
0.120398
-0.000780637
0.120752
-0.000512142
0.121045
-0.000240597
0.121277
3.30775e-05
0.121447
0.000307969
0.121554
0.000583188
0.121597
0.000857862
0.121576
0.00113114
0.121491
0.0014022
0.121341
0.00167026
0.121126
0.00193454
0.00219448
0.110543
-0.0036412
-0.109618
0.111422
-0.00338007
0.112253
-0.00310895
0.113035
-0.00282778
0.113766
-0.00253692
0.114445
-0.002237
0.115069
-0.00192884
0.115637
-0.00161335
0.116148
-0.00129153
0.1166
-0.000964418
0.116993
-0.000633046
0.117324
-0.000298457
0.117594
3.83297e-05
0.117801
0.000376312
0.117944
0.000714514
0.118023
0.00105199
0.118038
0.00138781
0.117987
0.0017211
0.11787
0.00205103
0.00237689
0.105565
-0.00462744
-0.104579
0.106508
-0.00432292
0.107405
-0.00400645
0.108255
-0.00367799
0.109056
-0.00333793
0.109806
-0.002987
0.110504
-0.00262611
0.111147
-0.00225631
0.111734
-0.00187871
0.112264
-0.00149446
0.112736
-0.00110473
0.113148
-0.000710662
0.113499
-0.000313373
0.11379
8.60348e-05
0.114018
0.000486494
0.114183
0.000886967
0.114284
0.00128645
0.114321
0.001684
0.114294
0.00207867
0.00246966
0.100782
-0.00565478
-0.0997546
0.101768
-0.00530894
0.102711
-0.00494916
0.103608
-0.00457533
0.104458
-0.0041879
0.105259
-0.00378772
0.106008
-0.00337583
0.106706
-0.00295344
0.107349
-0.0025218
0.107936
-0.0020822
0.108468
-0.00163593
0.108941
-0.00118422
0.109356
-0.000728314
0.109712
-0.000269384
0.110007
0.00019142
0.110241
0.000652985
0.110413
0.00111424
0.110523
0.00157416
0.11057
0.00203174
0.00248608
0.0962932
-0.0067069
-0.0952411
0.097306
-0.00632169
0.0982773
-0.00592052
0.0992051
-0.00550305
0.100087
-0.00506986
0.100921
-0.00462197
0.101706
-0.00416062
0.10244
-0.00368719
0.103121
-0.00320314
0.103749
-0.00270989
0.104322
-0.00220887
0.104839
-0.00170142
0.1053
-0.00118887
0.105703
-0.000672474
0.106048
-0.000153458
0.106333
0.000367005
0.10656
0.000887782
0.106726
0.00140779
0.106832
0.00192597
0.00244133
0.0921468
-0.00777134
-0.0910824
0.0931739
-0.00734882
0.0941614
-0.00690802
0.0951068
-0.00644837
0.0960076
-0.00597072
0.096862
-0.0054763
0.097668
-0.00496663
0.0984241
-0.00444337
0.0991292
-0.00390819
0.099782
-0.00336272
0.100382
-0.0028085
0.100927
-0.00224701
0.101418
-0.00167964
0.101853
-0.00110775
0.102232
-0.000532608
0.102555
4.45543e-05
0.10282
0.000622556
0.103028
0.00120026
0.103177
0.00177657
0.00235043
0.0883563
-0.00883893
-0.0872887
0.089389
-0.00838154
0.0903838
-0.00790282
0.0913376
-0.00740216
0.0922478
-0.00688086
0.093112
-0.00634057
0.0939286
-0.00578322
0.0946961
-0.00521085
0.0954133
-0.00462541
0.0960794
-0.00402875
0.0966934
-0.00342256
0.0972548
-0.00280842
0.097763
-0.00218783
0.0982175
-0.00156218
0.0986176
-0.000932805
0.0989632
-0.000300983
0.0992537
0.000332067
0.0994888
0.000965175
0.0996681
0.00159721
0.00222706
0.0849129
-0.00990328
-0.0838485
0.0859456
-0.00941429
0.0869421
-0.00889931
0.0878983
-0.0083583
0.088811
-0.00779356
0.0896778
-0.0072074
0.090497
-0.00660238
0.0912672
-0.00598107
0.0919876
-0.00534579
0.0926574
-0.00469858
0.0932761
-0.00404129
0.0938433
-0.00337561
0.0943586
-0.0027031
0.0948216
-0.00202518
0.095232
-0.00134324
0.0955896
-0.000658584
0.0958942
2.75465e-05
0.0961454
0.000713948
0.0963431
0.00139946
0.00208295
0.0817945
-0.0109605
-0.0807372
0.0828247
-0.0104446
0.08382
-0.00989461
0.0847748
-0.00931311
0.0856855
-0.00870419
0.0865494
-0.0080713
0.0873649
-0.00741795
0.0881312
-0.00674738
0.0888477
-0.00606226
0.089514
-0.00536485
0.0901298
-0.00465711
0.090695
-0.00394076
0.0912093
-0.0032174
0.0916726
-0.00248849
0.0920847
-0.00175542
0.0924457
-0.00101952
0.0927553
-0.000282052
0.0930135
0.000455761
0.0932202
0.00119274
0.00192772
0.0789726
-0.0120094
-0.0779237
0.0800007
-0.0114727
0.0809941
-0.010888
0.0819454
-0.0102644
0.0828504
-0.00960925
0.0837069
-0.00892781
0.0845139
-0.00822489
0.0852709
-0.00750439
0.0859779
-0.00676927
0.0866349
-0.00602188
0.087242
-0.00526419
0.0877992
-0.00449792
0.0883064
-0.00372465
0.0887638
-0.00294585
0.0891713
-0.00216291
0.0895289
-0.00137716
0.0898367
-0.000589883
0.0900948
0.000197679
0.0903032
0.000984332
0.00176888
0.0764175
-0.013052
-0.0753749
0.0774463
-0.0125015
0.0784382
-0.0118799
0.079384
-0.0112102
0.08028
-0.0105052
0.0811249
-0.00977269
0.0819187
-0.00901871
0.0826619
-0.00824763
0.0833551
-0.00746242
0.0839985
-0.00666534
0.0845926
-0.00585823
0.0851374
-0.00504277
0.0856332
-0.00422046
0.0860801
-0.00339277
0.0864783
-0.00256107
0.0868279
-0.0017267
0.0871289
-0.000890971
0.0873817
-5.51248e-05
0.0875865
0.000779619
0.00161204
0.0741004
-0.0140969
-0.0730554
0.0751352
-0.0135363
0.0761254
-0.0128701
0.0770627
-0.0121475
0.0779453
-0.0113878
0.078774
-0.0106015
0.0795507
-0.00979531
0.0802765
-0.00897343
0.0809524
-0.0081384
0.0815793
-0.00729215
0.0821573
-0.00643631
0.082687
-0.00557241
0.0831684
-0.00470191
0.0836019
-0.00382624
0.0839876
-0.0029468
0.0843258
-0.00206492
0.0846168
-0.00118193
0.0848608
-0.000299111
0.0850581
0.000582309
0.00146108
0.0719964
-0.0151687
-0.0709247
0.0730429
-0.0145828
0.0740283
-0.0138555
0.0749515
-0.0130707
0.0758152
-0.0122514
0.0766234
-0.0114096
0.0773794
-0.0105513
0.0780852
-0.00967923
0.0787419
-0.00879513
0.0793503
-0.0079005
0.0799107
-0.0069967
0.0804234
-0.00608515
0.0808888
-0.00516728
0.0813071
-0.00424452
0.0816785
-0.00331826
0.0820035
-0.00238989
0.0822823
-0.00146075
0.0825154
-0.000532151
0.082703
0.000394648
0.00131835
0.0700956
-0.0162986
-0.0689657
0.0711456
-0.0156328
0.0721157
-0.0148256
0.0730164
-0.0139714
0.0738557
-0.0130907
0.0746401
-0.0121941
0.0753737
-0.0112849
0.0760583
-0.0103639
0.076695
-0.00943181
0.0772842
-0.00848971
0.0778263
-0.00753877
0.0783215
-0.00658035
0.0787701
-0.00561589
0.0791724
-0.00464685
0.0795288
-0.00367468
0.0798397
-0.0027008
0.0801056
-0.00172658
0.0803268
-0.000753358
0.0805039
0.000217561
0.00118484
0.0683892
-0.0672783
-0.0174095
0.0694059
-0.0166495
0.0703479
-0.0157676
0.0712195
-0.014843
0.0720324
-0.0139037
0.0727933
-0.0129549
0.0735049
-0.0119965
0.0741689
-0.0110279
0.0747859
-0.0100488
0.0753562
-0.00906
0.07588
-0.00806259
0.0763576
-0.00705797
0.0767894
-0.00604764
0.0771757
-0.00503314
0.0775169
-0.00401596
0.0778137
-0.00299756
0.0780665
-0.00197935
0.0782758
-0.000962718
0.0784424
5.10133e-05
0.00106046
0.0231804
0.0434384
-0.0420492
-0.0245696
0.0217811
0.0450138
-0.0436145
0.0203725
0.0467388
-0.0453303
0.0189558
0.0486436
-0.0472269
0.0175326
0.0507631
-0.0493398
0.0161047
0.0531367
-0.0517088
0.0146748
0.0558089
-0.054379
0.013246
0.0588291
-0.0574002
0.011822
0.0622493
-0.0608254
0.0104074
0.0661222
-0.0647077
0.00900785
0.0704964
-0.0690968
0.00763049
0.0754105
-0.0740332
0.00628497
0.0808849
-0.0795394
0.00498465
0.0869097
-0.0856093
0.00374855
0.093428
-0.0921919
0.00260394
0.100313
-0.0991688
0.00158977
0.107337
-0.106323
0.000761258
0.11412
-0.113291
0.000197194
0.120055
-0.119491
0.124245
-0.124048
0.0231826
0.0448221
-0.0245663
0.0217882
0.0464081
0.020384
0.048143
0.0189709
0.0500567
0.0175504
0.0521837
0.0161243
0.0545628
0.0146951
0.0572381
0.0132658
0.0602583
0.0118402
0.0636749
0.0104229
0.0675395
0.00901976
0.0718995
0.00763829
0.076792
0.00628858
0.0822346
0.00498464
0.0882136
0.00374631
0.0946664
0.00260186
0.101458
0.00159131
0.108347
0.000770136
0.114941
0.000211774
0.120614
0.124457
0.0231479
0.0461987
-0.0245245
0.0217601
0.0477959
0.0203619
0.0495412
0.0189542
0.0514644
0.0175382
0.0535997
0.0161157
0.0559853
0.014689
0.0586648
0.0132613
0.0616861
0.0118362
0.0651001
0.0104184
0.0689573
0.00901387
0.073304
0.00763056
0.0781753
0.00627896
0.0835862
0.00497368
0.0895189
0.00373524
0.0959048
0.0025926
0.1026
0.00158616
0.109354
0.00077048
0.115757
0.000215105
0.121169
0.124672
0.0230769
0.0475667
-0.024445
0.0216972
0.0491756
0.0203066
0.0509319
0.0189058
0.0528652
0.017496
0.0550095
0.0160789
0.0574024
0.0146567
0.0600869
0.0132324
0.0631104
0.0118098
0.0665227
0.0103935
0.0703736
0.0089899
0.0747077
0.00760697
0.0795582
0.00625574
0.0849375
0.00495132
0.0908233
0.00371483
0.0971413
0.00257571
0.10374
0.00157446
0.110355
0.000764784
0.116566
0.000213975
0.12172
0.124886
0.0229703
0.0489248
-0.0243285
0.0216002
0.0505458
0.0202185
0.0523135
0.0188262
0.0542576
0.0174242
0.0564115
0.0160141
0.0588125
0.0145981
0.0615029
0.0131791
0.0645294
0.0117609
0.0679409
0.0103483
0.0717862
0.00894762
0.0761083
0.00756729
0.0809386
0.00621865
0.0862861
0.00491733
0.0921246
0.00368493
0.0983737
0.0025513
0.104873
0.00155694
0.111349
0.000754802
0.117369
0.000210485
0.122264
0.125097
0.022829
0.0502719
-0.0241761
0.0214694
0.0519053
0.0200981
0.0536848
0.0187156
0.0556401
0.0173228
0.0578043
0.0159213
0.060214
0.0145132
0.062911
0.0131013
0.0659412
0.0116894
0.0693528
0.0102825
0.0731931
0.00888688
0.0775039
0.00751133
0.0823141
0.00616755
0.0876299
0.00487158
0.0934206
0.00364551
0.0995998
0.00251951
0.105999
0.00153401
0.112335
0.000741277
0.118161
0.000205409
0.1228
0.125302
0.0226536
0.0516071
-0.0239888
0.0213057
0.0532532
0.0199457
0.0550448
0.0185742
0.0570117
0.0171919
0.0591865
0.0158005
0.0616055
0.0144019
0.0643096
0.0129989
0.0673442
0.0115952
0.0707564
0.0101959
0.0745925
0.00880753
0.0788923
0.00743898
0.0836827
0.00610232
0.0889665
0.00481402
0.0947089
0.00359657
0.100817
0.00248044
0.107115
0.00150595
0.113309
0.000724686
0.118943
0.000199208
0.123326
0.125501
0.022445
0.0529299
-0.0237677
0.0211094
0.0545888
0.0197617
0.0563926
0.0184022
0.0583712
0.0170318
0.0605569
0.0156518
0.0629855
0.0142642
0.0656972
0.0128718
0.0687366
0.0114782
0.07215
0.0100885
0.0759821
0.00870943
0.0802714
0.0073501
0.085042
0.00602287
0.0902938
0.00474459
0.0959872
0.00353815
0.102024
0.00243422
0.108219
0.00147303
0.114271
0.000705402
0.11971
0.000192163
0.123839
0.125694
0.0222038
0.0542399
-0.0235138
0.020881
0.0559115
0.0195461
0.0577274
0.0181996
0.0597177
0.0168421
0.0619145
0.0154749
0.0643527
0.0140999
0.0670722
0.0127197
0.0701168
0.0113381
0.0735316
0.00996006
0.0773602
0.00859245
0.081639
0.00724458
0.0863899
0.00592913
0.0916092
0.0046633
0.097253
0.0034703
0.103217
0.00238101
0.109309
0.00143547
0.115216
0.000683674
0.120462
0.000184417
0.124338
0.125878
0.0219301
0.0555374
-0.0232276
0.0206203
0.0572213
0.0192988
0.0590489
0.017966
0.0610505
0.0166225
0.063258
0.0152695
0.0657057
0.0139086
0.0684331
0.0125425
0.0714829
0.0111747
0.0748994
0.00981038
0.0787245
0.00845642
0.0829929
0.00712234