/*--------------------------------*- C++ -*----------------------------------*\
  =========                 |
  \\      /  F ield         | OpenFOAM: The Open Source CFD Toolbox
   \\    /   O peration     | Website:  https://openfoam.org
    \\  /    A nd           | Version:  6.0
     \\/     M anipulation  |
\*---------------------------------------------------------------------------*/
FoamFile
{
    version     2.0;
    format      ascii;
    class       volVectorField;
    location    "0.50325";
    object      U;
}
// * * * * * * * * * * * * * * * * * * * * * * * * * * * * * * * * * * * * * //

dimensions      [0 1 -1 0 0 0 0];

internalField   nonuniform List<vector> 
2400
(
(1.38621 -8.45802 -2.52276e-19)
(0.174144 -6.86459 8.31321e-20)
(0.138774 -5.45991 -3.38465e-20)
(0.195561 -4.26523 -1.37768e-20)
(0.189175 -3.2925 -1.42547e-20)
(0.186765 -2.50881 1.86324e-20)
(0.199789 -1.88297 5.02284e-21)
(0.22334 -1.38983 2.86785e-21)
(0.2543 -1.00977 -6.52825e-21)
(0.289804 -0.728049 -4.24993e-22)
(2.04642 -8.32878 3.13431e-19)
(0.714967 -6.84394 1.0882e-20)
(0.569464 -5.4515 4.5366e-20)
(0.531773 -4.26151 1.48292e-19)
(0.448545 -3.30057 -7.82879e-20)
(0.384271 -2.53075 -3.4897e-21)
(0.347877 -1.91892 -7.30434e-22)
(0.332438 -1.43871 -5.02394e-21)
(0.333244 -1.06903 -5.88652e-21)
(0.346074 -0.793701 -5.49042e-22)
(2.69586 -8.14863 5.33933e-19)
(1.25317 -6.7806 2.54962e-19)
(0.99908 -5.40795 -4.60206e-19)
(0.867961 -4.22938 1.00251e-19)
(0.709609 -3.2858 8.74133e-20)
(0.585583 -2.53434 -4.78758e-20)
(0.502072 -1.94012 -2.80697e-20)
(0.449913 -1.47577 1.68075e-20)
(0.422554 -1.11886 -3.44631e-20)
(0.414071 -0.852029 3.27857e-20)
(3.32977 -7.91827 -1.80641e-18)
(1.78558 -6.67506 3.55505e-19)
(1.42476 -5.32986 -3.24194e-19)
(1.20158 -4.16927 8.77167e-20)
(0.97015 -3.24833 -6.38513e-20)
(0.788759 -2.51943 6.74719e-20)
(0.660643 -1.94615 1.07153e-20)
(0.574211 -1.5003 -7.82137e-20)
(0.520846 -1.15834 -5.60296e-20)
(0.492595 -0.901981 5.81142e-20)
(3.94481 -7.63924 1.31846e-19)
(2.30905 -6.52771 -1.44791e-19)
(1.84365 -5.21732 -6.43432e-20)
(1.53005 -4.08121 -5.35914e-20)
(1.22789 -3.1881 -1.66109e-19)
(0.99177 -2.48582 1.75237e-20)
(0.821754 -1.9366 -1.09276e-20)
(0.703654 -1.51169 7.87848e-20)
(0.626577 -1.18665 -5.25702e-20)
(0.580268 -0.942615 -2.73213e-20)
(4.53703 -7.31282 1.53273e-18)
(2.8201 -6.33917 -8.96316e-20)
(2.25272 -5.07089 7.13307e-19)
(1.85079 -3.96567 -1.01659e-19)
(1.48056 -3.10542 1.83881e-19)
(1.19257 -2.43359 -2.70854e-20)
(0.983518 -1.9113 3.88359e-21)
(0.836447 -1.5095 7.16498e-20)
(0.738038 -1.20315 -3.73172e-20)
(0.67549 -0.973104 4.57463e-20)
(5.10303 -6.94088 -6.59941e-19)
(3.31548 -6.11035 -6.67669e-21)
(2.64902 -4.89129 -2.14372e-19)
(2.16119 -3.82327 -9.13185e-20)
(1.72588 -3.00073 3.62909e-20)
(1.3891 -2.36295 2.56395e-19)
(1.14398 -1.87022 -8.29841e-20)
(0.970679 -1.49348 1.68859e-20)
(0.853356 -1.20737 -9.4698e-20)
(0.77649 -0.992758 -3.88803e-20)
(5.6396 -6.5257 2.39991e-18)
(3.79203 -5.84245 -4.2138e-19)
(3.02959 -4.67947 -1.11825e-18)
(2.45867 -3.65482 4.54382e-20)
(1.96156 -2.87464 1.05077e-19)
(1.57926 -2.27425 -1.20847e-19)
(1.30108 -1.81341 -1.25706e-19)
(1.10427 -1.4634 1.72116e-19)
(0.97045 -1.1989 -1.50359e-20)
(0.881344 -1.00121 -1.13267e-19)
(6.14385 -6.06963 -2.03277e-18)
(4.24693 -5.5367 7.26048e-19)
(3.39174 -4.43653 7.30312e-19)
(2.74072 -3.46135 1.11953e-19)
(2.18539 -2.72795 -3.14717e-19)
(1.76098 -2.16796 1.6361e-19)
(1.45273 -1.74089 6.85172e-20)
(1.23484 -1.41876 1.35193e-19)
(1.08653 -1.1769 -8.82837e-20)
(0.986987 -0.998153 -1.0003e-19)
(6.61232 -5.57433 6.5602e-19)
(4.67692 -5.19428 -1.75231e-19)
(3.73278 -4.16384 -7.99466e-20)
(3.00508 -3.24428 7.45712e-20)
(2.39542 -2.56186 5.32664e-20)
(1.9326 -2.04489 -4.7452e-20)
(1.59738 -1.65289 -5.83399e-20)
(1.36065 -1.35904 9.44691e-20)
(1.19878 -1.14034 -7.00699e-20)
(1.08908 -0.982125 6.13649e-20)
(8.68034 0.744995 3.12544e-20)
(8.70905 0.0613992 1.14661e-19)
(8.68311 -0.622056 -3.16819e-19)
(8.60308 -1.30085 3.01362e-19)
(8.46874 -1.97057 1.42266e-19)
(8.28179 -2.62697 1.5932e-18)
(8.04337 -3.26602 -6.83592e-19)
(7.75516 -3.88384 -8.94173e-19)
(7.41885 -4.47707 1.07191e-18)
(7.03908 -5.04081 -1.87467e-18)
(6.96101 -0.391213 5.05152e-20)
(6.92425 -0.933686 -3.94879e-20)
(6.84226 -1.47236 -1.63847e-19)
(6.71529 -2.00294 4.8591e-19)
(6.54358 -2.52173 -1.55997e-19)
(6.32905 -3.02511 1.3043e-18)
(6.07328 -3.50957 -9.96189e-19)
(5.77806 -3.97167 1.2867e-18)
(5.4452 -4.40856 -9.19971e-19)
(5.07736 -4.81674 -4.11263e-19)
(5.46983 -0.362078 -8.49034e-20)
(5.45566 -0.785085 -2.09105e-20)
(5.40413 -1.20753 -3.41219e-19)
(5.31502 -1.62558 2.58842e-19)
(5.18899 -2.03599 -3.0684e-19)
(5.02719 -2.43554 -6.49191e-19)
(4.83089 -2.82103 -2.38746e-19)
(4.60126 -3.18935 -1.88495e-20)
(4.34044 -3.53788 7.52227e-19)
(4.0499 -3.86321 5.21124e-19)
(4.27425 -0.257509 2.6298e-20)
(4.27786 -0.583798 -4.52187e-20)
(4.251 -0.911657 -6.05848e-20)
(4.19359 -1.2379 -2.843e-19)
(4.10614 -1.55968 2.20188e-19)
(3.98919 -1.87419 5.40247e-19)
(3.84372 -2.17865 1.90303e-19)
(3.67116 -2.47033 5.06272e-20)
(3.47273 -2.7469 1.22596e-19)
(3.24964 -3.0053 6.4205e-20)
(3.39805 -0.23923 -2.21385e-20)
(3.40344 -0.492621 -8.9659e-20)
(3.38399 -0.747805 1.533e-21)
(3.33972 -1.00217 1.93292e-19)
(3.27104 -1.25324 2.23451e-19)
(3.17857 -1.49863 -1.50536e-19)
(3.06312 -1.73604 -2.475e-19)
(2.92559 -1.96316 -1.33367e-19)
(2.76746 -2.17783 1.2563e-19)
(2.58997 -2.37783 2.43883e-19)
(2.78788 -0.233565 6.62709e-21)
(2.78835 -0.434362 7.00366e-20)
(2.76817 -0.636297 -1.66852e-19)
(2.72752 -0.837159 2.00205e-19)
(2.66686 -1.03483 1.24074e-19)
(2.58686 -1.22725 2.43397e-19)
(2.48833 -1.41245 -4.93268e-20)
(2.37229 -1.58848 -1.44769e-19)
(2.24005 -1.75367 3.29831e-19)
(2.09284 -1.90622 -2.98266e-19)
(2.37451 -0.224769 9.19299e-21)
(2.36793 -0.388283 -6.67109e-20)
(2.34371 -0.551996 -4.63068e-20)
(2.3022 -0.713967 -1.04723e-19)
(2.24397 -0.87232 -1.51407e-20)
(2.16982 -1.02524 -1.44389e-19)
(2.08061 -1.17102 -9.76362e-20)
(1.97743 -1.30804 -1.31492e-20)
(1.86155 -1.43497 -1.88487e-19)
(1.73432 -1.55032 2.50056e-19)
(2.09708 -0.214475 -6.89939e-21)
(2.08363 -0.351643 5.40099e-20)
(2.0547 -0.488094 -2.56447e-20)
(2.01076 -0.622058 5.35986e-20)
(1.95252 -0.751823 1.30679e-19)
(1.88082 -0.875744 2.22804e-19)
(1.79671 -0.992318 -5.73142e-20)
(1.70127 -1.10013 -2.0827e-19)
(1.59586 -1.19816 6.29075e-20)
(1.48189 -1.28486 -3.63864e-19)
(1.90941 -0.202876 9.47303e-21)
(1.89062 -0.321402 -1.19762e-20)
(1.8579 -0.438521 -1.16613e-19)
(1.81183 -0.552574 3.56976e-20)
(1.75317 -0.661955 -8.83967e-20)
(1.68286 -0.765141 -3.91125e-20)
(1.60201 -0.860766 -2.35076e-20)
(1.51173 -0.947528 9.74404e-20)
(1.41359 -1.02467 9.05801e-20)
(1.30886 -1.08966 7.38638e-20)
(1.77936 -0.190902 -2.09952e-20)
(1.75726 -0.295556 3.77787e-20)
(1.72248 -0.398654 1.95091e-20)
(1.67558 -0.49863 5.38427e-20)
(1.61731 -0.59395 -5.63263e-21)
(1.54859 -0.683168 -4.54236e-21)
(1.47053 -0.764978 -1.33202e-19)
(1.38423 -0.838132 1.78589e-19)
(1.29179 -0.901934 -1.11977e-19)
(1.19333 -0.951528 3.22483e-20)
(5.55316 6.58117 -8.84773e-19)
(6.06373 6.13781 9.27614e-19)
(6.53778 5.65342 -9.00457e-20)
(6.97301 5.13183 -1.51768e-18)
(7.36514 4.57722 1.15194e-18)
(7.71143 3.99209 -8.17195e-19)
(8.00936 3.38001 -1.76577e-19)
(8.25684 2.74533 -1.84338e-19)
(8.45172 2.09163 2.66213e-19)
(8.59372 1.42431 2.1223e-20)
(4.97059 4.36735 4.68689e-19)
(5.33333 3.99534 5.29e-20)
(5.66655 3.59303 -5.46665e-19)
(5.9671 3.16287 -5.5622e-19)
(6.23213 2.70726 6.01686e-19)
(6.45947 2.22876 -4.56605e-19)
(6.64681 1.73034 5.04071e-19)
(6.79207 1.21562 -1.59305e-19)
(6.89361 0.687835 -4.24833e-19)
(6.95031 0.150877 -2.25755e-20)
(3.77953 3.19333 -1.75331e-19)
(4.06951 2.93181 -1.32182e-19)
(4.33928 2.6443 3.41086e-19)
(4.58572 2.33212 2.26415e-19)
(4.80645 1.99698 4.98162e-19)
(4.99913 1.64087 1.5541e-19)
(5.16147 1.26616 -9.56455e-20)
(5.29128 0.875543 -2.60157e-19)
(5.387 0.47174 2.30637e-19)
(5.44661 0.0580107 2.22368e-20)
(2.81393 2.34255 1.61386e-20)
(3.04868 2.1677 -1.25735e-19)
(3.26996 1.97007 -6.00631e-20)
(3.47507 1.75052 -2.90255e-19)
(3.66161 1.51035 -1.92392e-19)
(3.8273 1.25111 2.7763e-19)
(3.96997 0.974648 2.27019e-19)
(4.08754 0.683074 -1.88661e-19)
(4.17844 0.378718 8.06096e-21)
(4.24075 0.0642255 -9.35394e-21)
(2.19386 1.7034 -1.24737e-19)
(2.38334 1.58389 1.65651e-19)
(2.56326 1.44462 -4.02339e-20)
(2.73104 1.28614 1.15637e-19)
(2.88447 1.10952 -6.92173e-20)
(3.02144 0.916118 -1.7091e-19)
(3.13999 0.707514 6.63155e-20)
(3.23828 0.485534 -7.74612e-20)
(3.31487 0.252235 -8.63736e-20)
(3.36825 0.00982826 3.73849e-20)
(1.8093 1.27349 -1.03183e-20)
(1.96524 1.1879 1.90523e-20)
(2.11348 1.08501 -2.28026e-20)
(2.25166 0.965191 -1.79933e-19)
(2.37775 0.829423 1.07029e-19)
(2.48987 0.679016 2.0502e-20)
(2.58627 0.515477 -1.12185e-19)
(2.66538 0.340509 -3.71429e-20)
(2.72598 0.155999 4.12218e-20)
(2.76693 -0.0360825 -1.40775e-20)
(1.5798 0.998085 -9.94333e-21)
(1.71177 0.932434 8.59569e-21)
(1.83654 0.851594 2.2252e-20)
(1.95207 0.755654 8.87147e-20)
(2.05664 0.645642 2.08697e-20)
(2.14861 0.522898 5.76723e-20)
(2.22645 0.388918 1.27531e-19)
(2.28883 0.245351 -5.1693e-20)
(2.33475 0.0939772 4.84872e-20)
(2.36339 -0.0633841 -1.97228e-20)
(1.44725 0.821291 -1.66091e-20)
(1.56191 0.767678 1.63705e-20)
(1.66925 0.700285 1.18675e-20)
(1.76747 0.619102 -4.27885e-20)
(1.85534 0.525389 -2.83023e-20)
(1.93145 0.420556 -5.58791e-20)
(1.99442 0.306115 8.09935e-21)
(2.04313 0.183684 -1.24795e-20)
(2.07679 0.0549591 -9.93596e-20)
(2.09481 -0.0783594 1.38832e-20)
(1.37026 0.705742 -3.8037e-21)
(1.47128 0.660339 -3.85356e-21)
(1.56532 0.601411 -1.70033e-20)
(1.65044 0.529582 6.86534e-21)
(1.72565 0.446484 -1.9506e-21)
(1.7897 0.353624 4.84298e-20)
(1.84137 0.252508 2.18612e-20)
(1.87969 0.144705 3.47079e-20)
(1.90401 0.0318102 4.4363e-20)
(1.91393 -0.0845976 -1.91162e-20)
(1.32995 0.62331 4.52096e-21)
(1.41883 0.580825 9.96472e-21)
(1.50111 0.527195 -3.94188e-20)
(1.57507 0.462135 -5.6054e-21)
(1.63977 0.387202 6.01848e-20)
(1.69398 0.303835 2.70271e-21)
(1.73663 0.213413 3.91935e-20)
(1.7669 0.117336 -8.8725e-20)
(1.78426 0.0169962 -1.10018e-21)
(1.78842 -0.0862289 9.31804e-21)
(0.490828 0.383551 -9.18477e-21)
(0.440807 0.45366 3.76793e-21)
(0.386907 0.578452 1.05709e-21)
(0.33342 0.803715 -1.93089e-20)
(0.286559 1.1996 9.32843e-21)
(0.252767 1.85747 2.30984e-20)
(0.253744 2.872 -1.51671e-20)
(0.362363 4.30616 9.11474e-22)
(0.410733 6.14621 3.11882e-20)
(-0.700951 8.35927 1.41439e-19)
(0.54802 0.454297 -2.54513e-20)
(0.505648 0.529071 5.98321e-20)
(0.462733 0.656448 -5.50675e-20)
(0.427228 0.880211 -9.01308e-21)
(0.410049 1.26853 1.3619e-20)
(0.424135 1.91191 -1.89264e-20)
(0.49864 2.90543 -2.46292e-20)
(0.712709 4.31063 1.9898e-20)
(0.898959 6.12917 2.20226e-20)
(-0.0422425 8.40792 -1.92341e-19)
(0.614757 0.517173 -8.20927e-20)
(0.580753 0.596122 9.96522e-20)
(0.549232 0.725775 3.40237e-20)
(0.53172 0.947717 1.42666e-21)
(0.543577 1.32779 1.72146e-20)
(0.604048 1.95487 3.67851e-21)
(0.749669 2.92323 -3.16123e-21)
(1.06559 4.2918 -1.14906e-20)
(1.38643 6.07728 3.79449e-20)
(0.618836 8.40588 -3.39011e-19)
(0.690007 0.570959 -6.68892e-20)
(0.664968 0.653443 7.22575e-20)
(0.645254 0.784898 5.5051e-20)
(0.645833 1.00453 -4.23182e-20)
(0.686207 1.37557 -1.32016e-19)
(0.791678 1.98457 3.46303e-20)
(1.006 2.92388 -1.23951e-20)
(1.41995 4.24858 -7.89324e-20)
(1.87129 5.98987 -1.69859e-19)
(1.2789 8.35322 6.23663e-19)
(0.77257 0.614618 -4.87024e-20)
(0.756935 0.699868 2.36643e-20)
(0.749422 0.832482 -6.80301e-20)
(0.768243 1.04913 5.11969e-20)
(0.836718 1.41021 -2.15961e-20)
(0.985877 1.99936 -1.7122e-20)
(1.2664 2.90591 -1.52784e-20)
(1.77437 4.18006 1.67599e-21)
(2.35128 5.86656 1.84529e-19)
(1.93461 8.24995 3.15618e-19)
(0.861057 0.647313 1.22421e-19)
(0.855096 0.734446 2.6906e-20)
(0.860136 0.867397 -9.09067e-20)
(0.897389 1.0802 8.29259e-20)
(0.993627 1.43026 3.15394e-20)
(1.18523 1.99773 2.88286e-20)
(1.52935 2.86797 -1.87587e-20)
(2.12668 4.08514 -7.85609e-20)
(2.82374 5.70745 -4.74635e-20)
(2.5817 8.09547 -9.14861e-19)
(0.953848 0.668447 -1.34296e-19)
(0.957657 0.756439 1.72278e-19)
(0.975577 0.888718 -8.48343e-20)
(1.03149 1.0966 -4.65572e-20)
(1.15522 1.4344 6.47485e-22)
(1.38808 1.97831 -6.76366e-21)
(1.79323 2.80882 1.72695e-20)
(2.47502 3.9631 -2.17648e-19)
(3.28582 5.51142 -1.48464e-19)
(3.21651 7.89027 7.81463e-19)
(1.04895 0.677726 -1.06583e-20)
(1.06254 0.765292 -6.98543e-20)
(1.09371 0.895663 2.93259e-20)
(1.16856 1.09738 -4.2117e-21)
(1.31954 1.42153 -1.69889e-20)
(1.59244 1.93991 -7.22966e-21)
(2.05588 2.72735 2.78593e-20)
(2.81707 3.81321 -2.36922e-19)
(3.7345 5.27929 4.32145e-19)
(3.83458 7.63551 -5.08894e-19)
(1.14388 0.674928 2.37543e-20)
(1.16735 0.760515 5.83297e-21)
(1.21247 0.887579 -5.28759e-20)
(1.30668 1.08181 3.21345e-20)
(1.48463 1.39087 3.40984e-22)
(1.79635 1.88169 -2.54211e-20)
(2.31521 2.62285 -6.5416e-20)
(3.15052 3.63517 1.28977e-19)
(4.16715 5.01113 -1.07857e-18)
(4.43255 7.33166 1.57645e-18)
(1.23597 0.658872 -4.35321e-20)
(1.26871 0.74054 3.41913e-20)
(1.3294 0.863109 -1.39718e-20)
(1.44369 1.04895 -1.74319e-22)
(1.64828 1.34157 -2.32677e-20)
(1.99736 1.80275 -2.15563e-20)
(2.56847 2.49422 2.04334e-20)
(3.47194 3.42792 1.93885e-19)
(4.58012 4.70659 5.58132e-19)
(5.0061 6.98094 1.70833e-20)
(0.545527 -0.410084 2.44559e-19)
(0.444778 -0.378705 -1.81997e-19)
(0.272573 -0.271129 7.07654e-20)
(-0.00222913 -0.0366498 -1.59974e-19)
(-0.421701 0.380763 -1.12301e-19)
(-1.02724 1.02966 -1.66954e-19)
(-1.835 1.94439 -1.51687e-19)
(-2.80179 3.16258 -3.19004e-22)
(-4.02741 4.53919 1.15532e-19)
(-6.32714 5.34403 -2.64916e-19)
(0.490387 -0.349943 -1.3713e-19)
(0.396884 -0.317162 -1.36236e-19)
(0.240261 -0.208929 2.34461e-19)
(-0.00622124 0.0267601 1.12836e-19)
(-0.380653 0.450986 1.7172e-19)
(-0.923336 1.1202 -2.83666e-19)
(-1.65165 2.07693 7.77735e-20)
(-2.52227 3.36091 -5.43638e-21)
(-3.64519 4.83456 -1.84751e-19)
(-5.88616 5.82547 6.57886e-19)
(0.443618 -0.27916 5.79803e-20)
(0.355577 -0.244512 -2.65185e-20)
(0.213707 -0.136047 3.02442e-19)
(-0.00576747 0.0992353 -1.92443e-19)
(-0.336584 0.526646 -1.48426e-19)
(-0.816662 1.21017 9.03165e-20)
(-1.46333 2.20062 -9.36566e-21)
(-2.23282 3.54049 -5.71918e-20)
(-3.24516 5.10127 2.69731e-19)
(-5.41137 6.27196 -4.28441e-19)
(0.408065 -0.202484 3.73154e-19)
(0.324158 -0.164895 -2.0051e-19)
(0.19541 -0.055546 6.44073e-20)
(0.001081 0.178883 -1.15772e-19)
(-0.288043 0.607024 3.15308e-19)
(-0.706433 1.29967 -2.71225e-20)
(-1.27001 2.31595 -7.30831e-20)
(-1.93433 3.70175 4.77656e-20)
(-2.82899 5.33926 8.18539e-20)
(-4.90539 6.68192 6.37774e-19)
(0.384141 -0.120838 -3.09264e-19)
(0.303856 -0.0796516 -6.00314e-21)
(0.186975 0.0310211 1.44792e-19)
(0.0160247 0.264308 -4.43361e-21)
(-0.233438 0.691216 -1.84747e-20)
(-0.591448 1.38849 1.93192e-19)
(-1.07157 2.42319 -1.43659e-20)
(-1.62738 3.84487 2.31562e-20)
(-2.39808 5.54798 2.59322e-20)
(-4.37011 7.05308 -7.24949e-19)
(0.372084 -0.0356177 1.15468e-20)
(0.29543 0.00969896 -1.99917e-19)
(0.18957 0.122067 1.80557e-19)
(0.0404666 0.354036 -1.67736e-20)
(-0.17127 0.778149 2.68107e-20)
(-0.470662 1.47613 -1.46467e-19)
(-0.867293 2.52226 -1.1282e-20)
(-1.31258 3.96992 7.67468e-21)
(-1.95379 5.72681 1.29084e-20)
(-3.80797 7.38329 1.26266e-19)
(0.3721 0.0514566 1.47099e-19)
(0.299414 0.10137 -1.59871e-19)
(0.204054 0.215787 -8.05636e-21)
(0.0755429 0.446385 -1.90333e-19)
(-0.100327 0.866469 1.02246e-19)
(-0.342848 1.5617 -6.02874e-20)
(-0.656896 2.61272 4.17144e-20)
(-0.990299 4.0764 7.02428e-21)
(-1.49722 5.87501 2.11437e-20)
(-3.22193 7.67068 2.96106e-19)
(0.384231 0.13863 8.88566e-20)
(0.316074 0.193485 -1.02623e-19)
(0.230963 0.310262 4.58422e-20)
(0.122064 0.539506 3.24216e-20)
(-0.0196003 0.954591 -5.53141e-20)
(-0.207177 1.64409 9.73688e-20)
(-0.439798 2.69393 4.38015e-20)
(-0.661279 4.16384 -5.72895e-20)
(-1.03105 5.99174 -2.0113e-20)
(-2.6156 7.91349 -3.32637e-19)
(0.408327 0.224158 9.18726e-20)
(0.345412 0.284142 -1.54364e-20)
(0.27052 0.40351 -9.28419e-21)
(0.180514 0.631441 -1.04562e-21)
(0.0716044 1.04076 3.71648e-20)
(-0.0629201 1.72193 -1.02787e-19)
(-0.215738 2.76503 6.31863e-20)
(-0.325691 4.23206 -1.32143e-20)
(-0.556731 6.07651 -1.84769e-20)
(-1.99097 8.11026 -2.52117e-19)
(0.444042 0.306329 -2.59317e-20)
(0.387168 0.371451 -3.06615e-21)
(0.322646 0.493522 8.34408e-21)
(0.251054 0.720128 8.67825e-21)
(0.173688 1.12299 2.12818e-20)
(0.0903979 1.79345 -1.49676e-20)
(0.0155211 2.82452 -8.00532e-21)
(0.0157793 4.27934 -6.0874e-21)
(-0.0755797 6.12813 -3.66088e-20)
(-1.35263 8.25949 6.59925e-20)
(0.6372 -0.468355 2.82104e-19)
(0.71784 -0.510512 -1.15529e-19)
(0.793727 -0.545258 3.60129e-20)
(0.866193 -0.566488 1.56747e-19)
(0.9362 -0.573424 9.14924e-20)
(1.00195 -0.566087 7.5372e-21)
(1.06071 -0.544424 3.2693e-20)
(1.10976 -0.508977 4.4753e-21)
(1.14655 -0.461168 8.08404e-21)
(1.16899 -0.403273 -2.7121e-21)
(0.512107 -0.430644 1.46269e-19)
(0.581642 -0.473497 1.30335e-19)
(0.648209 -0.508109 1.41812e-19)
(0.710551 -0.530171 -3.75122e-20)
(0.768009 -0.538574 -5.27577e-20)
(0.818832 -0.53325 -7.15144e-20)
(0.860688 -0.514601 2.68476e-20)
(0.891237 -0.483836 -7.52406e-20)
(0.908492 -0.443044 -4.96407e-21)
(0.911082 -0.395035 3.39571e-21)
(0.316437 -0.321656 -4.35075e-19)
(0.363713 -0.364187 5.51183e-20)
(0.408496 -0.398999 -2.57647e-19)
(0.448144 -0.423463 -5.85577e-20)
(0.481177 -0.436538 2.02475e-19)
(0.505958 -0.438364 1.03251e-19)
(0.520687 -0.429901 3.12791e-20)
(0.523835 -0.412943 -1.70838e-20)
(0.514411 -0.390003 2.1967e-20)
(0.492118 -0.364057 -2.23295e-21)
(0.00788432 -0.090498 -1.08613e-19)
(0.0195504 -0.137623 -1.93208e-19)
(0.0284303 -0.178718 -1.98699e-20)
(0.0318487 -0.212603 -8.54067e-20)
(0.0283145 -0.238945 -1.17532e-19)
(0.0165927 -0.258416 -1.13732e-20)
(-0.00421961 -0.272485 -6.03617e-20)
(-0.0345237 -0.283268 -2.54815e-20)
(-0.0741007 -0.293295 -2.87364e-20)
(-0.122108 -0.305221 2.30273e-21)
(-0.459887 0.315706 -2.7083e-19)
(-0.498097 0.253923 3.09596e-19)
(-0.538778 0.19438 2.5449e-20)
(-0.58375 0.137169 -3.38014e-20)
(-0.633876 0.0818399 5.47406e-20)
(-0.689439 0.0272736 6.84047e-20)
(-0.750189 -0.0281574 9.33345e-20)
(-0.815311 -0.0863765 -6.53053e-20)
(-0.883459 -0.149355 7.53094e-21)
(-0.952882 -0.218868 -7.8984e-23)
(-1.12882 0.937821 3.80073e-19)
(-1.22981 0.843565 -2.222e-19)
(-1.33068 0.745453 -7.92405e-20)
(-1.43212 0.643086 -1.45957e-20)
(-1.53386 0.535654 -5.68282e-20)
(-1.63507 0.422108 6.27074e-20)
(-1.73443 0.301272 4.92785e-20)
(-1.83018 0.172029 1.09008e-21)
(-1.92025 0.0335041 -1.01623e-20)
(-2.00244 -0.114805 -3.46973e-21)
(-2.01317 1.80229 2.42082e-20)
(-2.18688 1.65052 4.31219e-20)
(-2.35466 1.48735 7.99788e-21)
(-2.51616 1.31276 -5.66952e-20)
(-2.67009 1.12622 1.13984e-19)
(-2.81479 0.927396 -3.25148e-22)
(-2.94831 0.716086 -4.03248e-20)
(-3.06845 0.49236 -1.75861e-20)
(-3.1729 0.256611 -2.41286e-21)
(-3.2595 0.00960954 -8.56337e-22)
(-3.07004 2.94523 -5.76891e-20)
(-3.32643 2.7104 -5.0965e-20)
(-3.56822 2.45655 3.40153e-20)
(-3.79452 2.18473 6.28763e-22)
(-4.00352 1.89512 1.46486e-20)
(-4.19319 1.58846 -7.07064e-21)
(-4.36142 1.26561 -1.47252e-20)
(-4.50596 0.927791 2.03295e-20)
(-4.62467 0.576408 2.92152e-20)
(-4.71552 0.213154 2.32189e-20)
(-4.38817 4.21565 -9.84361e-20)
(-4.7257 3.86747 2.1065e-19)
(-5.03801 3.49428 -2.55679e-19)
(-5.32366 3.09831 3.38317e-19)
(-5.58098 2.6806 -3.05532e-19)
(-5.80782 2.24299 3.22537e-20)
(-6.00225 1.78735 -1.71754e-19)
(-6.16233 1.31582 3.49228e-20)
(-6.28631 0.830619 1.81445e-20)
(-6.37225 0.334156 -1.80203e-20)
(-6.7291 4.82856 2.42428e-19)
(-7.08752 4.28673 -6.80496e-19)
(-7.40564 3.71847 2.85354e-19)
(-7.67997 3.12812 -2.59826e-19)
(-7.90964 2.51806 1.41241e-19)
(-8.09278 1.89173 6.63294e-19)
(-8.22829 1.25235 9.0058e-20)
(-8.31514 0.603421 1.96223e-19)
(-8.35268 -0.0516119 -1.10981e-19)
(-8.33968 -0.709236 -2.38177e-20)
(1.17549 -0.338221 -1.58583e-21)
(1.16536 -0.269503 3.79033e-21)
(1.13869 -0.200702 -2.83621e-21)
(1.0963 -0.13539 -3.24666e-21)
(1.03978 -0.0769819 1.25335e-21)
(0.971234 -0.0286475 -1.61273e-20)
(0.893284 0.0064998 7.62273e-20)
(0.808849 0.0248202 6.65472e-21)
(0.718877 0.020768 -2.88481e-20)
(0.613696 -0.010154 6.42512e-20)
(0.898229 -0.343085 -4.9343e-21)
(0.870104 -0.290826 6.2596e-21)
(0.827698 -0.241704 1.90735e-21)
(0.772568 -0.198971 -1.71251e-21)
(0.706888 -0.165511 -1.22709e-20)
(0.633065 -0.143784 3.30936e-22)
(0.553721 -0.135972 -4.53791e-21)
(0.471236 -0.144207 1.91709e-20)
(0.385845 -0.170823 6.04841e-20)
(0.294527 -0.213974 -1.17484e-20)
(0.457195 -0.338278 3.19742e-21)
(0.410734 -0.315925 -1.26499e-20)
(0.354569 -0.299815 2.87917e-21)
(0.290825 -0.292424 2.13017e-21)
(0.221957 -0.295722 1.33131e-20)
(0.150489 -0.31113 5.68325e-21)
(0.0788739 -0.33964 1.53181e-20)
(0.00937457 -0.381793 -2.01396e-20)
(-0.0572103 -0.437467 -4.42754e-20)
(-0.120126 -0.503058 -1.10756e-19)
(-0.177327 -0.321629 -3.90238e-21)
(-0.237971 -0.344913 7.19628e-21)
(-0.301556 -0.37686 6.52876e-22)
(-0.365729 -0.418842 -3.42683e-21)
(-0.428036 -0.471671 -7.99141e-21)
(-0.48623 -0.53562 -5.14882e-21)
(-0.537861 -0.610512 -3.74328e-20)
(-0.581048 -0.695669 -1.87153e-20)
(-0.614467 -0.789661 -9.15071e-23)
(-0.636137 -0.888964 3.69868e-20)
(-1.02169 -0.296425 -9.92982e-22)
(-1.08785 -0.383152 4.54691e-22)
(-1.14855 -0.479547 -2.22765e-21)
(-1.20167 -0.585732 1.30894e-20)
(-1.24511 -0.701294 -1.06919e-21)
(-1.2769 -0.82546 -4.06487e-20)
(-1.29521 -0.957069 7.20054e-20)
(-1.29858 -1.09452 -2.40848e-20)
(-1.28591 -1.23567 -3.1108e-20)
(-1.25573 -1.37731 -1.73829e-20)
(-2.07466 -0.273069 3.14831e-21)
(-2.13511 -0.441013 3.9635e-21)
(-2.18101 -0.617856 6.52536e-21)
(-2.21075 -0.802491 2.03276e-21)
(-2.22285 -0.993524 5.48923e-20)
(-2.21588 -1.18928 -8.11827e-21)
(-2.18873 -1.38786 2.55336e-21)
(-2.1406 -1.58705 3.29334e-20)
(-2.07108 -1.78423 1.37012e-20)
(-1.9798 -1.97654 3.22958e-20)
(-3.32627 -0.247553 1.18851e-21)
(-3.37198 -0.513274 -9.60335e-22)
(-3.39397 -0.785709 5.11814e-20)
(-3.39147 -1.06274 -6.60946e-20)
(-3.36336 -1.34217 -8.25741e-20)
(-3.30913 -1.62169 9.55645e-20)
(-3.22813 -1.89886 -2.35113e-20)
(-3.12044 -2.17099 5.25585e-20)
(-2.98646 -2.43506 1.3341e-19)
(-2.82658 -2.68854 -8.56392e-20)
(-4.77664 -0.15978 -1.05146e-20)
(-4.80733 -0.539422 -9.86505e-20)
(-4.80514 -0.923184 1.19531e-19)
(-4.76999 -1.30817 5.13385e-20)
(-4.70123 -1.69157 -1.95144e-19)
(-4.59874 -2.07044 -1.95306e-19)
(-4.46286 -2.44195 -5.84467e-20)
(-4.29398 -2.80292 -1.18154e-19)
(-4.09279 -3.15028 1.7469e-19)
(-3.86076 -3.48134 6.72711e-20)
(-6.41795 -0.170144 6.48709e-21)
(-6.42313 -0.67797 2.37317e-19)
(-6.38641 -1.18647 1.22917e-19)
(-6.30798 -1.69203 -3.29583e-19)
(-6.18776 -2.19146 3.41222e-19)
(-6.026 -2.68116 -5.12648e-19)
(-5.82316 -3.15749 4.50402e-19)
(-5.58045 -3.61784 -4.57662e-19)
(-5.30029 -4.05849 -2.64431e-19)
(-4.98285 -4.47618 -8.35493e-19)
(-8.27396 -1.36525 -1.21298e-20)
(-8.15643 -2.01255 -1.57862e-19)
(-7.98836 -2.65041 1.39778e-19)
(-7.77019 -3.27355 1.35669e-19)
(-7.50287 -3.87859 -2.85783e-19)
(-7.18791 -4.46146 2.78782e-19)
(-6.82655 -5.01847 -4.28974e-19)
(-6.42148 -5.54653 3.39656e-19)
(-5.97587 -6.0419 -7.50052e-19)
(-5.49057 -6.50086 8.14897e-19)
(-4.9666 -6.9189 1.16304e-18)
(-4.62925 -4.86751 -4.07147e-19)
(-3.5989 -3.79383 -1.60572e-19)
(-2.64154 -2.92952 2.06147e-19)
(-1.86636 -2.16193 5.69982e-21)
(-1.20581 -1.51659 7.64832e-20)
(-0.641047 -0.988475 3.17028e-21)
(-0.17169 -0.568003 -4.59262e-20)
(0.202653 -0.251291 7.92481e-20)
(0.479093 -0.0338814 -1.16563e-20)
(-4.41293 -7.29051 -1.24363e-18)
(-4.24478 -5.22901 1.52852e-18)
(-3.31027 -4.08562 -1.74801e-19)
(-2.43321 -3.15684 -1.50767e-19)
(-1.73153 -2.34021 7.34085e-20)
(-1.1351 -1.65507 -1.08429e-19)
(-0.624026 -1.09345 9.41819e-20)
(-0.197107 -0.644438 -6.48434e-20)
(0.146155 -0.303579 1.28508e-20)
(0.401354 -0.0680851 4.3134e-20)
(-3.83044 -7.61852 8.36484e-19)
(-3.83098 -5.55855 -7.48707e-19)
(-2.99588 -4.35345 3.41104e-19)
(-2.20245 -3.36744 -6.52918e-20)
(-1.57641 -2.50865 6.5206e-20)
(-1.04562 -1.79043 -3.14861e-20)
(-0.589443 -1.20198 -2.34144e-20)
(-0.20618 -0.731109 2.31066e-20)
(0.104525 -0.37231 -5.21909e-20)
(0.337891 -0.122615 6.77309e-20)
(-3.22391 -7.89938 -1.53906e-18)
(-3.39126 -5.85463 1.97884e-19)
(-2.65876 -4.59611 2.13039e-19)
(-1.95171 -3.55993 1.03504e-19)
(-1.40295 -2.66554 -1.81335e-19)
(-0.939045 -1.92034 4.85181e-21)
(-0.539166 -1.31074 -2.98585e-20)
(-0.201406 -0.82302 -5.89076e-20)
(0.0747021 -0.450286 1.11807e-19)
(0.285056 -0.188757 3.35021e-20)
(-2.59648 -8.13219 1.15776e-18)
(-2.92811 -6.11562 1.43249e-19)
(-2.30098 -4.81173 2.68217e-19)
(-1.68277 -3.73233 2.13669e-20)
(-1.21264 -2.80874 1.31741e-19)
(-0.81646 -2.04238 4.34502e-20)
(-0.473699 -1.41684 6.1998e-20)
(-0.182527 -0.916685 -5.56184e-20)
(0.0577042 -0.533318 -3.91441e-21)
(0.243873 -0.261831 -4.43899e-20)
(-1.95222 -8.31523 7.43431e-19)
(-2.44457 -6.33973 -4.49176e-19)
(-1.92507 -4.99875 -2.24003e-20)
(-1.3977 -3.88305 -3.39266e-20)
(-1.00707 -2.93645 -2.67557e-20)
(-0.678933 -2.15443 -2.57489e-20)
(-0.393459 -1.51785 3.26696e-20)
(-0.149209 -1.00947 -3.32741e-20)
(0.0545162 -0.618819 2.90529e-20)
(0.215518 -0.339583 2.61316e-21)
(-1.29492 -8.44762 -1.3441e-18)
(-1.94357 -6.52561 -2.36038e-19)
(-1.53345 -5.15568 3.7464e-19)
(-1.09852 -4.01057 -7.05725e-20)
(-0.787852 -3.04702 5.78763e-20)
(-0.527612 -2.25466 -1.0896e-19)
(-0.299027 -1.61168 6.91345e-20)
(-0.101368 -1.09909 -1.88367e-20)
(0.065869 -0.704469 2.79614e-20)
(0.201158 -0.419896 -3.00461e-20)
(-0.628565 -8.52862 6.08273e-19)
(-1.42813 -6.67194 -1.15292e-19)
(-1.12864 -5.28121 -8.43071e-20)
(-0.787346 -4.11354 -3.39424e-20)
(-0.556708 -3.13901 1.93612e-20)
(-0.363814 -2.34145 2.39643e-20)
(-0.191258 -1.69653 -2.64315e-20)
(-0.0393281 -1.18354 1.53627e-20)
(0.0920049 -0.788157 3.61517e-20)
(0.201515 -0.500708 -3.01967e-20)
(0.0425407 -8.55829 4.5537e-19)
(-0.90153 -6.77805 -2.52748e-20)
(-0.713313 -5.37429 1.39461e-19)
(-0.466414 -4.19083 -9.64084e-20)
(-0.3155 -3.21118 2.10724e-20)
(-0.189038 -2.41344 -1.69923e-20)
(-0.0712856 -1.77085 -4.56184e-21)
(0.0361865 -1.2611 -2.12191e-20)
(0.132636 -0.868 2.13698e-20)
(0.216716 -0.580113 1.66944e-20)
(0.715526 -8.53522 -1.03795e-19)
(-0.366365 -6.84284 -5.74642e-20)
(-0.29 -5.4342 -1.92536e-20)
(-0.138033 -4.24163 -3.93272e-20)
(-0.0662164 -3.26259 2.4251e-20)
(-0.0049449 -2.46951 2.3449e-21)
(0.0595458 -1.83334 -1.02621e-20)
(0.124143 -1.33027 7.97997e-22)
(0.187056 -0.94234 -3.47651e-21)
(0.246382 -0.656394 7.57163e-23)
(0.414123 -0.11626 -3.94318e-22)
(0.609052 0.08481 -1.95875e-22)
(0.7518 0.096798 4.48653e-22)
(0.838983 0.0784573 -2.5005e-22)
(0.89461 0.0608526 -5.51214e-23)
(0.930594 0.0472844 -1.12333e-22)
(0.954266 0.037021 3.41315e-23)
(0.970068 0.0291142 -3.58998e-23)
(0.980659 0.0228962 1.41793e-23)
(0.987727 0.0179305 4.58165e-25)
(0.992393 0.0139268 -1.21176e-23)
(0.995415 0.0106878 1.43951e-24)
(0.997323 0.00807653 -1.52782e-24)
(0.99849 0.00599099 -1.89644e-24)
(0.999186 0.00434613 2.71e-25)
(0.999578 0.0030648 -1.48218e-25)
(0.999805 0.00207985 2.77576e-26)
(0.999919 0.001334 1.39602e-26)
(0.999966 0.000763982 9.46459e-27)
(1.00001 0.00025513 2.69639e-26)
(0.418549 -0.185624 2.60815e-21)
(0.601406 0.034901 8.75473e-22)
(0.744139 0.0668469 -7.48799e-22)
(0.833468 0.060979 2.96927e-22)
(0.890843 0.0505457 -5.32146e-22)
(0.927999 0.0410725 -3.50688e-23)
(0.952447 0.0332128 -4.56736e-23)
(0.968769 0.0267623 -5.71669e-23)
(0.979714 0.0214436 4.38255e-23)
(0.987032 0.017041 1.17753e-23)
(0.991878 0.0133891 4.05781e-24)
(0.995033 0.0103703 2.04673e-23)
(0.997041 0.0078936 -1.64894e-23)
(0.998284 0.00588919 -2.74137e-24)
(0.999037 0.00429105 1.43335e-24)
(0.999471 0.00303591 3.69611e-25)
(0.99973 0.00206508 -8.79071e-25)
(0.999866 0.00132732 6.82404e-25)
(0.999927 0.000760524 2.402e-26)
(0.999982 0.000253453 -5.64022e-27)
(0.436076 -0.254065 -5.59008e-21)
(0.59989 -0.0153913 1.61813e-21)
(0.739391 0.0364237 3.63365e-21)
(0.829232 0.0431897 -1.50369e-21)
(0.887624 0.0400669 -1.04858e-22)
(0.925644 0.034775 -5.31996e-22)
(0.95074 0.0293661 -2.22309e-23)
(0.967524 0.0243943 -1.53474e-22)
(0.978799 0.019985 -4.87497e-23)
(0.986354 0.0161495 -3.05173e-23)
(0.991375 0.0128512 -2.08466e-24)
(0.994659 0.0100532 4.29389e-24)
(0.996764 0.00771104 1.78774e-23)
(0.998081 0.00578751 -8.44423e-24)
(0.99889 0.00423585 -3.15001e-24)
(0.999366 0.00300677 2.9909e-24)
(0.999656 0.00204985 -7.73616e-25)
(0.999814 0.00132033 -2.41631e-26)
(0.999889 0.000756721 -6.17404e-25)
(0.999953 0.000251654 2.95893e-25)
(0.46638 -0.320469 -1.74549e-21)
(0.60455 -0.065516 5.09383e-21)
(0.737605 0.0057003 -2.2367e-21)
(0.826315 0.0251216 -8.57274e-22)
(0.884976 0.0294111 6.38127e-22)
(0.923542 0.0283802 -8.30372e-23)
(0.949152 0.0254704 2.23194e-22)
(0.966339 0.0220038 -4.57552e-23)
(0.977917 0.0185177 1.49861e-22)
(0.985696 0.0152558 5.2082e-23)
(0.990883 0.0123135 -1.13506e-22)
(0.994293 0.00973644 1.49115e-23)
(0.996493 0.00752838 5.17045e-25)
(0.997882 0.00568512 1.42382e-23)
(0.998746 0.00417965 9.41336e-25)
(0.999262 0.00297643 -2.33135e-24)
(0.999583 0.00203345 -2.11006e-24)
(0.999763 0.00131238 -2.2514e-24)
(0.999852 0.000752273 1.43954e-24)
(0.999924 0.000249626 -6.54876e-25)
(0.508835 -0.383763 5.45828e-22)
(0.615501 -0.114892 9.93627e-23)
(0.738876 -0.0251268 -3.36404e-22)
(0.824796 0.00681947 1.48009e-21)
(0.882949 0.0185759 1.14716e-21)
(0.921721 0.0218785 8.71209e-22)
(0.947697 0.0215194 -4.53104e-22)
(0.965223 0.0195871 1.32447e-22)
(0.977072 0.0170389 6.21835e-23)
(0.98506 0.0143575 6.53832e-23)
(0.990406 0.0117745 -2.86567e-23)
(0.993936 0.0094197 -6.88995e-23)
(0.996228 0.00734613 6.21955e-24)
(0.997687 0.00558294 2.98717e-23)
(0.998604 0.00412349 1.18474e-23)
(0.99916 0.0029458 -4.77079e-24)
(0.99951 0.00201673 8.69848e-24)
(0.999711 0.001304 3.48083e-25)
(0.999814 0.000747559 1.05361e-24)
(0.999895 0.000247453 -2.39643e-25)
(0.562378 -0.442517 -1.50192e-20)
(0.632851 -0.162595 -1.68189e-21)
(0.743324 -0.05568 3.20331e-21)
(0.824794 -0.0115764 -3.95901e-21)
(0.881624 0.00761161 -2.89481e-21)
(0.920233 0.0152891 -2.65085e-21)
(0.946406 0.0175207 5.09425e-22)
(0.964192 0.0171483 1.30897e-22)