/*--------------------------------*- C++ -*----------------------------------*\
  =========                 |
  \\      /  F ield         | OpenFOAM: The Open Source CFD Toolbox
   \\    /   O peration     | Website:  https://openfoam.org
    \\  /    A nd           | Version:  6.0
     \\/     M anipulation  |
\*---------------------------------------------------------------------------*/
FoamFile
{
    version     2.0;
    format      ascii;
    class       volScalarField;
    location    "1.248";
    object      p;
}
// * * * * * * * * * * * * * * * * * * * * * * * * * * * * * * * * * * * * * //

dimensions      [0 2 -2 0 0 0 0];

internalField   nonuniform List<scalar> 
19200
(
-0.396661
-0.392146
-0.387985
-0.383769
-0.379283
-0.374564
-0.369618
-0.364437
-0.359021
-0.353373
-0.347499
-0.341411
-0.335122
-0.328647
-0.322003
-0.315207
-0.308279
-0.301238
-0.294103
-0.286896
-0.279642
-0.272352
-0.265023
-0.257656
-0.250289
-0.242978
-0.235735
-0.228486
-0.221204
-0.214658
-0.40106
-0.396345
-0.392106
-0.387824
-0.383262
-0.378456
-0.373412
-0.368124
-0.362595
-0.356827
-0.350828
-0.344609
-0.338186
-0.331575
-0.324792
-0.317856
-0.310785
-0.303601
-0.296323
-0.288973
-0.281578
-0.274149
-0.266683
-0.259185
-0.251691
-0.244256
-0.2369
-0.229533
-0.222123
-0.215554
-0.406445
-0.401412
-0.39701
-0.392615
-0.387941
-0.38302
-0.377858
-0.372448
-0.366792
-0.360893
-0.35476
-0.348406
-0.341844
-0.335093
-0.328169
-0.32109
-0.313877
-0.306549
-0.299128
-0.291636
-0.284099
-0.276532
-0.268932
-0.261305
-0.253686
-0.246132
-0.238663
-0.231179
-0.223643
-0.217082
-0.41259
-0.40727
-0.402685
-0.398144
-0.393328
-0.388268
-0.382966
-0.377417
-0.37162
-0.365579
-0.359303
-0.352805
-0.3461
-0.339204
-0.332136
-0.324912
-0.317555
-0.310083
-0.302519
-0.294885
-0.287208
-0.279503
-0.271773
-0.264018
-0.256276
-0.248601
-0.241018
-0.23342
-0.225755
-0.219233
-0.419531
-0.413915
-0.409121
-0.404404
-0.39942
-0.394197
-0.388737
-0.383031
-0.377078
-0.370883
-0.364455
-0.357806
-0.350951
-0.343906
-0.33669
-0.329319
-0.321816
-0.314199
-0.306492
-0.298716
-0.290899
-0.283057
-0.275199
-0.267324
-0.259454
-0.25166
-0.243962
-0.236242
-0.228447
-0.221994
-0.427287
-0.421344
-0.416311
-0.411391
-0.406213
-0.400805
-0.395167
-0.389288
-0.383166
-0.376805
-0.370214
-0.363406
-0.356395
-0.349196
-0.341826
-0.334306
-0.326654
-0.318891
-0.311038
-0.303118
-0.295157
-0.287182
-0.279194
-0.271201
-0.263218
-0.255297
-0.247488
-0.239645
-0.231709
-0.225352
-0.435856
-0.42955
-0.424248
-0.419098
-0.413703
-0.408087
-0.402252
-0.396183
-0.389877
-0.383339
-0.376576
-0.369599
-0.362424
-0.355065
-0.347539
-0.339865
-0.332062
-0.32415
-0.31615
-0.308085
-0.29998
-0.291862
-0.283746
-0.275629
-0.267528
-0.259497
-0.251574
-0.243609
-0.235529
-0.229291
-0.445231
-0.438523
-0.432923
-0.427519
-0.421881
-0.416037
-0.409985
-0.403709
-0.397205
-0.390477
-0.38353
-0.376378
-0.369031
-0.361506
-0.353819
-0.345987
-0.338029
-0.329965
-0.321817
-0.313605
-0.305355
-0.297095
-0.288841
-0.280599
-0.272378
-0.264233
-0.2562
-0.248107
-0.23988
-0.233784
-0.4554
-0.448254
-0.442327
-0.436642
-0.430739
-0.424645
-0.418356
-0.411857
-0.40514
-0.398209
-0.391069
-0.38373
-0.376206
-0.368508
-0.360654
-0.352659
-0.344543
-0.336324
-0.328023
-0.319662
-0.311266
-0.302861
-0.294468
-0.286098
-0.27776
-0.269492
-0.261349
-0.253122
-0.244732
-0.238802
-0.466348
-0.458728
-0.452446
-0.446456
-0.440264
-0.433899
-0.427356
-0.420615
-0.413671
-0.406524
-0.399179
-0.391645
-0.383934
-0.376057
-0.36803
-0.359868
-0.351587
-0.343208
-0.334751
-0.326237
-0.317689
-0.309135
-0.300603
-0.292097
-0.283639
-0.275263
-0.266999
-0.258634
-0.25007
-0.244315
-0.478057
-0.469929
-0.463265
-0.456947
-0.450444
-0.443786
-0.436969
-0.429972
-0.422785
-0.415409
-0.407848
-0.400109
-0.392203
-0.384139
-0.375932
-0.367595
-0.359146
-0.350602
-0.341983
-0.333311
-0.324608
-0.3159
-0.307216
-0.298575
-0.289987
-0.281501
-0.273122
-0.264613
-0.255864
-0.25029
-0.490509
-0.481841
-0.474769
-0.468099
-0.461263
-0.454293
-0.447184
-0.439912
-0.432468
-0.42485
-0.417061
-0.409107
-0.400996
-0.392737
-0.384341
-0.375824
-0.367199
-0.358484
-0.349698
-0.340863
-0.332
-0.323134
-0.314292
-0.305505
-0.296782
-0.288175
-0.27969
-0.271024
-0.262087
-0.256703
-0.50368
-0.494443
-0.486939
-0.479894
-0.472704
-0.465401
-0.457982
-0.45042
-0.442704
-0.434831
-0.426802
-0.418622
-0.410296
-0.401832
-0.39324
-0.384534
-0.375726
-0.366834
-0.357875
-0.34887
-0.339841
-0.330812
-0.321809
-0.312861
-0.303995
-0.295257
-0.286659
-0.27784
-0.268701
-0.263519
-0.517548
-0.507715
-0.499755
-0.492315
-0.484749
-0.477095
-0.469348
-0.46148
-0.453477
-0.445336
-0.437055
-0.428636
-0.420084
-0.411406
-0.402609
-0.393704
-0.384706
-0.375629
-0.36649
-0.357308
-0.348105
-0.338905
-0.329734
-0.320618
-0.311597
-0.302718
-0.293994
-0.285026
-0.275665
-0.270689
-0.532087
-0.521633
-0.513196
-0.505339
-0.497379
-0.489355
-0.481263
-0.473073
-0.464769
-0.456345
-0.447799
-0.439131
-0.430342
-0.421438
-0.412426
-0.403315
-0.394117
-0.384846
-0.375518
-0.366151
-0.356765
-0.347385
-0.338036
-0.328746
-0.319554
-0.310527
-0.301667
-0.292545
-0.282964
-0.278188
-0.547271
-0.536172
-0.527238
-0.518946
-0.510572
-0.502161
-0.493708
-0.48518
-0.476561
-0.467841
-0.459017
-0.450086
-0.441049
-0.431909
-0.422672
-0.413344
-0.403937
-0.394463
-0.384935
-0.375371
-0.365791
-0.356219
-0.346681
-0.337205
-0.32783
-0.318638
-0.309632
-0.300342
-0.290565
-0.285993
-0.563071
-0.551306
-0.541855
-0.53311
-0.524305
-0.515491
-0.506661
-0.497781
-0.488831
-0.479802
-0.470686
-0.461481
-0.452184
-0.442797
-0.433324
-0.423769
-0.414142
-0.404452
-0.394713
-0.384941
-0.375154
-0.365376
-0.355633
-0.345953
-0.336378
-0.326993
-0.317822
-0.308344
-0.298346
-0.293994
-0.579456
-0.567006
-0.557022
-0.547806
-0.538554
-0.52932
-0.520097
-0.51085
-0.501557
-0.492204
-0.482785
-0.473293
-0.463725
-0.45408
-0.44436
-0.434567
-0.424708
-0.414792
-0.404829
-0.394834
-0.384826
-0.374826
-0.364861
-0.35496
-0.345165
-0.335567
-0.326191
-0.316496
-0.30623
-0.302064
-0.596397
-0.583245
-0.572709
-0.563008
-0.553293
-0.543623
-0.533994
-0.524365
-0.514714
-0.505026
-0.49529
-0.4855
-0.475649
-0.465735
-0.455756
-0.445713
-0.435611
-0.425455
-0.415255
-0.405024
-0.394779
-0.38454
-0.374334
-0.36419
-0.354151
-0.344314
-0.334708
-0.324753
-0.314178
-0.310159
-0.61386
-0.59999
-0.588889
-0.578687
-0.568493
-0.558374
-0.548324
-0.538301
-0.528278
-0.518241
-0.508177
-0.498076
-0.487932
-0.477737
-0.467488
-0.457184
-0.446826
-0.436418
-0.425968
-0.415486
-0.404986
-0.394488
-0.384018
-0.373603
-0.36329
-0.353181
-0.343309
-0.333055
-0.322121
-0.318207
-0.631814
-0.617211
-0.605531
-0.594813
-0.584128
-0.573545
-0.56306
-0.55263
-0.542224
-0.531826
-0.521422
-0.511
-0.500549
-0.490062
-0.479532
-0.468954
-0.458329
-0.447657
-0.436942
-0.426193
-0.41542
-0.404641
-0.393879
-0.383163
-0.372539
-0.362116
-0.351932
-0.341329
-0.329979
-0.326113
-0.650224
-0.634876
-0.622603
-0.611357
-0.600166
-0.589107
-0.578176
-0.567326
-0.556525
-0.545755
-0.534999
-0.524244
-0.513477
-0.502686
-0.491863
-0.481002
-0.470098
-0.459149
-0.448157
-0.437124
-0.426058
-0.414974
-0.403893
-0.39284
-0.381862
-0.371072
-0.360515
-0.349498
-0.337655
-0.333763
-0.669057
-0.65295
-0.640072
-0.628286
-0.616578
-0.605031
-0.593642
-0.58236
-0.571154
-0.56
-0.548883
-0.537784
-0.52669
-0.515586
-0.504461
-0.493305
-0.482113
-0.470877
-0.459593
-0.448261
-0.436884
-0.425472
-0.41404
-0.40261
-0.391227
-0.380007
-0.368999
-0.357476
-0.345037
-0.341007
-0.688277
-0.671398
-0.657902
-0.645564
-0.633329
-0.621283
-0.609426
-0.597703
-0.586081
-0.574535
-0.563046
-0.551595
-0.540165
-0.528738
-0.517303
-0.505845
-0.494355
-0.482823
-0.471239
-0.459596
-0.447892
-0.43613
-0.424319
-0.41247
-0.400623
-0.388895
-0.377338
-0.365187
-0.351995
-0.347665
-0.707851
-0.690184
-0.676057
-0.663157
-0.650384
-0.637832
-0.625497
-0.613324
-0.601277
-0.589331
-0.577461
-0.565649
-0.553875
-0.542119
-0.530367
-0.518601
-0.506809
-0.494976
-0.483086
-0.471127
-0.459088
-0.446963
-0.434748
-0.422442
-0.41007
-0.397745
-0.385516
-0.372565
-0.358386
-0.3535
-0.727747
-0.709269
-0.694497
-0.681026
-0.667707
-0.65464
-0.64182
-0.62919
-0.616711
-0.604356
-0.592099
-0.579919
-0.567794
-0.555704
-0.54363
-0.531555
-0.51946
-0.507326
-0.495134
-0.482863
-0.470494
-0.458007
-0.44538
-0.432594
-0.419648
-0.406634
-0.393581
-0.3796
-0.364084
-0.358242
-0.747936
-0.728608
-0.713178
-0.699128
-0.685258
-0.671671
-0.658361
-0.645267
-0.63235
-0.619579
-0.606929
-0.594375
-0.581894
-0.569465
-0.557068
-0.544683
-0.53229
-0.519865
-0.507385
-0.494823
-0.482149
-0.469327
-0.456316
-0.443067
-0.429539
-0.415783
-0.401787
-0.386541
-0.36922
-0.361776
-0.768428
-0.748166
-0.732051
-0.717419
-0.702996
-0.688886
-0.675082
-0.661521
-0.648159
-0.634967
-0.621918
-0.608984
-0.596143
-0.583373
-0.570653
-0.557962
-0.545279
-0.532581
-0.519839
-0.507024
-0.494096
-0.481006
-0.467689
-0.454057
-0.440013
-0.425539
-0.410555
-0.393808
-0.373862
-0.363385
-0.789257
-0.767892
-0.751057
-0.735847
-0.720878
-0.706249
-0.691951
-0.677919
-0.66411
-0.650491
-0.637036
-0.623718
-0.610511
-0.597396
-0.584353
-0.571362
-0.558402
-0.545453
-0.532488
-0.519478
-0.506381
-0.493137
-0.479661
-0.465815
-0.451416
-0.436307
-0.420175
-0.401086
-0.376061
-0.358795
-0.809907
-0.787558
-0.770094
-0.754349
-0.738855
-0.723715
-0.708925
-0.694421
-0.68016
-0.66611
-0.652243
-0.638532
-0.624955
-0.611491
-0.598123
-0.584835
-0.571611
-0.558436
-0.545293
-0.532165
-0.519025
-0.50583
-0.492511
-0.478939
-0.464908
-0.450146
-0.433977
-0.413568
-0.384101
-0.358423
-1.17213
-1.17736
-1.18055
-1.18212
-1.18209
-1.18049
-1.17734
-1.1727
-1.16664
-1.15921
-1.15049
-1.14054
-1.12942
-1.11722
-1.10398
-1.0898
-1.07473
-1.05885
-1.04222
-1.02491
-1.00699
-0.988534
-0.969597
-0.950241
-0.930525
-0.910505
-0.89023
-0.869722
-0.848973
-0.828447
-1.14045
-1.14549
-1.14863
-1.15013
-1.15002
-1.14835
-1.14519
-1.14057
-1.13457
-1.12725
-1.11869
-1.10894
-1.09807
-1.08614
-1.07323
-1.0594
-1.04473
-1.02927
-1.0131
-0.996292
-0.978903
-0.961
-0.942647
-0.923904
-0.904832
-0.88549
-0.865942
-0.846242
-0.826448
-0.806771
-1.11357
-1.11847
-1.12161
-1.1231
-1.12302
-1.12141
-1.11831
-1.1138
-1.10793
-1.10079
-1.09243
-1.08292
-1.07232
-1.06068
-1.04809
-1.0346
-1.0203
-1.00523
-0.989485
-0.973115
-0.956188
-0.938769
-0.92092
-0.902701
-0.884172
-0.865394
-0.84643
-0.827343
-0.808196
-0.78909
-1.08743
-1.09232
-1.09551
-1.09711
-1.09715
-1.09568
-1.09275
-1.08842
-1.08277
-1.07588
-1.06779
-1.05858
-1.04829
-1.03699
-1.02475
-1.01163
-0.997717
-0.983063
-0.967739
-0.95181
-0.935341
-0.918395
-0.901031
-0.883311
-0.865294
-0.847041
-0.828612
-0.810066
-0.791462
-0.77287
-1.06024
-1.06522
-1.06856
-1.07033
-1.07058
-1.06934
-1.06667
-1.06261
-1.05726
-1.05068
-1.04294
-1.03408
-1.02416
-1.01325
-1.00141
-0.988714
-0.975228
-0.961018
-0.946151
-0.930691
-0.914701
-0.898243
-0.881377
-0.864163
-0.846661
-0.82893
-0.811029
-0.793014
-0.774938
-0.756861
-1.03229
-1.03746
-1.04102
-1.04305
-1.04359
-1.04266
-1.04032
-1.03661
-1.03163
-1.02544
-1.01809
-1.00964
-1.00015
-0.989675
-0.978287
-0.966051
-0.953033
-0.9393
-0.924916
-0.909945
-0.89445
-0.878491
-0.86213
-0.845426
-0.828437
-0.811221
-0.793838
-0.776341
-0.758778
-0.741208
-1.00377
-1.0092
-1.01306
-1.01541
-1.0163
-1.01575
-1.0138
-1.01051
-1.00595
-1.0002
-0.993311
-0.985325
-0.976304
-0.966313
-0.955416
-0.943678
-0.931162
-0.917934
-0.904057
-0.889594
-0.874609
-0.859161
-0.84331
-0.827116
-0.810637
-0.793931
-0.777054
-0.760061
-0.742998
-0.72592
-0.97479
-0.980529
-0.984736
-0.987467
-0.988757
-0.988632
-0.987124
-0.984288
-0.980207
-0.974951
-0.968561
-0.961083
-0.952579
-0.943112
-0.932744
-0.921536
-0.909552
-0.896854
-0.883506
-0.86957
-0.855109
-0.840182
-0.824848
-0.809168
-0.793197
-0.776994
-0.760615
-0.744114
-0.727536
-0.710937
-0.945476
-0.951568
-0.956156
-0.959298
-0.961023
-0.961359
-0.960328
-0.957988
-0.954426
-0.949699
-0.943847
-0.936916
-0.928964
-0.920053
-0.910243
-0.899594
-0.888166
-0.876022
-0.863223
-0.849831
-0.835907
-0.821512
-0.806702
-0.791537
-0.776074
-0.760368
-0.744479
-0.728459
-0.712353
-0.696216
-0.915979
-0.922441
-0.927433
-0.931006
-0.933191
-0.934006
-0.933476
-0.931665
-0.928649
-0.924482
-0.919196
-0.912836
-0.905462
-0.897133
-0.887905
-0.877837
-0.866988
-0.855416
-0.843184
-0.830351
-0.816978
-0.803122
-0.788842
-0.774195
-0.759237
-0.744025
-0.728617
-0.713066
-0.697417
-0.681726
-0.886446
-0.893282
-0.898684
-0.902699
-0.905353
-0.906661
-0.906648
-0.90538
-0.902931
-0.899341
-0.894636
-0.888866
-0.882089
-0.874358
-0.865731
-0.856262
-0.846007
-0.835025
-0.823374
-0.811113
-0.7983
-0.784992
-0.771246
-0.757117
-0.742662
-0.727938
-0.713001
-0.697907
-0.6827
-0.667439
-0.857024
-0.864226
-0.870034
-0.87449
-0.877613
-0.879416
-0.879924
-0.879207
-0.877328
-0.874318
-0.870203
-0.865033
-0.858862
-0.851743
-0.843728
-0.834871
-0.825224
-0.814843
-0.803785
-0.792106
-0.779861
-0.767106
-0.753896
-0.740286
-0.726331
-0.712087
-0.697611
-0.682959
-0.668179
-0.653329
-0.827853
-0.835404
-0.841604
-0.846488
-0.850071
-0.852362
-0.853387
-0.853213
-0.851897
-0.849462
-0.845938
-0.84137
-0.835809
-0.829306
-0.821911
-0.813673
-0.804643
-0.794872
-0.784414
-0.773323
-0.761652
-0.749454
-0.736782
-0.723688
-0.710228
-0.696456
-0.682429
-0.668204
-0.653832
-0.639374
-0.799064
-0.806939
-0.813508
-0.818798
-0.822823
-0.825583
-0.827107
-0.827461
-0.826694
-0.824827
-0.821885
-0.817913
-0.81296
-0.807074
-0.800299
-0.792683
-0.784273
-0.775116
-0.765264
-0.754766
-0.743672
-0.732032
-0.719897
-0.707317
-0.694346
-0.681035
-0.667443
-0.653627
-0.639644
-0.625556
-0.770768
-0.778939
-0.785847
-0.791515
-0.795952
-0.799156
-0.801157
-0.802016
-0.801779
-0.800462
-0.798089
-0.794703
-0.79035
-0.785073
-0.778915
-0.771919
-0.764127
-0.755586
-0.74634
-0.736436
-0.725921
-0.71484
-0.703241
-0.691171
-0.67868
-0.665819
-0.652645
-0.63922
-0.625603
-0.611859
-0.743063
-0.751495
-0.758707
-0.764719
-0.769536
-0.773153
-0.775598
-0.776938
-0.777207
-0.776418
-0.774595
-0.77178
-0.768012
-0.763334
-0.757782
-0.751398
-0.744221
-0.736291
-0.727651
-0.718342
-0.708405
-0.697883
-0.686818
-0.675253
-0.663234
-0.650811
-0.638039
-0.624982
-0.611703
-0.598274
-0.716023
-0.72468
-0.732161
-0.73848
-0.743638
-0.747631
-0.750494
-0.752284
-0.75303
-0.752743
-0.751448
-0.749181
-0.745981
-0.741883
-0.736924
-0.731141
-0.724569
-0.717246
-0.709208
-0.700491
-0.691132
-0.681168
-0.670635
-0.659571
-0.648017
-0.636019
-0.623631
-0.610916
-0.597943
-0.584791
-0.689711
-0.698555
-0.706266
-0.712852
-0.718315
-0.722652
-0.725897
-0.728104
-0.729297
-0.729482
-0.728687
-0.726944
-0.724287
-0.720749
-0.716365
-0.711167
-0.705189
-0.698463
-0.691021
-0.682893
-0.674111
-0.664704
-0.654702
-0.644137
-0.633043
-0.62146
-0.609436
-0.597035
-0.584328
-0.571406
-0.664172
-0.673167
-0.681069
-0.687886
-0.693616
-0.698259
-0.701854
-0.704445
-0.706048
-0.706674
-0.706349
-0.7051
-0.702959
-0.699957
-0.696125
-0.691496
-0.686097
-0.679957
-0.673103
-0.66556
-0.657352
-0.648503
-0.639036
-0.628971
-0.618335
-0.607157
-0.595478
-0.583357
-0.570869
-0.558118
-0.63944
-0.648551
-0.656608
-0.663618
-0.66958
-0.674496
-0.678403
-0.68134
-0.683319
-0.684353
-0.684464
-0.683678
-0.682023
-0.67953
-0.676227
-0.672145
-0.667308
-0.66174
-0.655465
-0.648501
-0.640868
-0.63258
-0.623651
-0.614093
-0.603917
-0.59314
-0.581789
-0.569914
-0.557589
-0.544933
-0.61554
-0.624733
-0.632911
-0.64008
-0.646239
-0.651393
-0.655575
-0.658821
-0.661141
-0.662546
-0.663058
-0.662701
-0.661502
-0.659489
-0.656689
-0.65313
-0.648835
-0.643825
-0.638116
-0.631727
-0.624668
-0.616947
-0.608567
-0.599526
-0.589819
-0.579446
-0.568412
-0.556747
-0.544522
-0.531861
-0.592484
-0.601728
-0.609995
-0.61729
-0.623614
-0.628971
-0.633394
-0.636912
-0.639536
-0.641276
-0.642154
-0.642191
-0.641415
-0.639851
-0.637527
-0.634467
-0.630692
-0.62622
-0.621067
-0.615246
-0.608763
-0.601616
-0.593798
-0.585293
-0.576076
-0.566119
-0.5554
-0.543916
-0.531717
-0.518921
-0.57028
-0.579546
-0.587872
-0.595263
-0.601718
-0.607246
-0.611874
-0.615629
-0.61852
-0.62056
-0.621767
-0.622165
-0.621778
-0.620633
-0.618755
-0.616166
-0.612887
-0.608935
-0.604325
-0.599066
-0.593159
-0.586597
-0.57936
-0.571417
-0.56272
-0.553211
-0.542823
-0.5315
-0.519249
-0.506148
-0.548925
-0.558187
-0.566545
-0.574003
-0.580562
-0.586228
-0.591028
-0.594984
-0.598107
-0.60041
-0.601912
-0.602636
-0.602607
-0.601849
-0.600386
-0.59824
-0.595431
-0.591979
-0.587897
-0.583193
-0.577865
-0.571898
-0.565265
-0.55792
-0.549791
-0.540782
-0.530768
-0.519609
-0.507232
-0.493604
-0.528414
-0.537648
-0.546013
-0.553513
-0.560146
-0.565919
-0.570858
-0.574983
-0.578304
-0.580835
-0.582599
-0.583616
-0.58391
-0.583506
-0.582426
-0.580694
-0.578331
-0.575358
-0.571789
-0.56763
-0.56288
-0.557521
-0.55152
-0.544819
-0.537323
-0.528895
-0.519338
-0.508391
-0.495847
-0.48142
-0.508733
-0.517917
-0.526264
-0.533779
-0.540458
-0.546309
-0.551353
-0.555612
-0.559096
-0.561822
-0.563812
-0.565086
-0.565669
-0.565583
-0.564853
-0.563502
-0.561556
-0.559036
-0.555958
-0.552332
-0.548155
-0.543413
-0.538073
-0.532066
-0.525285
-0.517554
-0.508594
-0.497985
-0.485325
-0.469847
-0.48987
-0.498983
-0.507291
-0.514796
-0.521494
-0.527391
-0.53251
-0.53687
-0.540484
-0.54337
-0.545548
-0.547043
-0.547875
-0.548069
-0.547649
-0.546643
-0.545077
-0.542976
-0.54036
-0.53724
-0.533622
-0.529496
-0.524832
-0.519567
-0.513588
-0.506696
-0.498537
-0.488491
-0.475918
-0.459194
-0.471808
-0.480859
-0.489132
-0.496628
-0.503345
-0.509287
-0.514476
-0.518932
-0.522669
-0.525705
-0.528062
-0.529762
-0.53083
-0.531288
-0.531165
-0.530488
-0.529289
-0.527594
-0.525426
-0.522805
-0.519743
-0.516241
-0.51228
-0.507809
-0.502732
-0.496857
-0.489785
-0.480694
-0.468572
-0.449881
-0.454506
-0.463525
-0.471793
-0.479311
-0.486076
-0.492095
-0.497388
-0.501974
-0.505871
-0.509096
-0.511673
-0.513624
-0.514973
-0.515748
-0.515978
-0.515694
-0.514929
-0.513712
-0.512074
-0.51004
-0.507634
-0.504866
-0.501734
-0.498213
-0.494244
-0.489698
-0.484244
-0.476997
-0.466511
-0.444753
-0.437856
-0.446603
-0.454626
-0.461929
-0.46851
-0.474377
-0.47955
-0.484049
-0.487891
-0.491096
-0.493689
-0.495694
-0.497137
-0.49805
-0.498466
-0.498418
-0.497945
-0.497082
-0.49587
-0.494345
-0.492546
-0.490503
-0.488244
-0.485789
-0.483158
-0.480375
-0.477365
-0.473625
-0.469014
-0.452715
-0.229495
-0.277848
-0.325326
-0.372526
-0.419267
-0.465384
-0.510763
-0.555292
-0.598867
-0.641386
-0.682752
-0.722877
-0.761674
-0.799065
-0.834974
-0.869333
-0.902078
-0.93315
-0.962495
-0.990069
-1.01583
-1.03976
-1.06182
-1.082
-1.10029
-1.11668
-1.13116
-1.14372
-1.15434
-1.16337
-0.225846
-0.273131
-0.319743
-0.365917
-0.41154
-0.456498
-0.500698
-0.544043
-0.586435
-0.62778
-0.667986
-0.706966
-0.744639
-0.780929
-0.815763
-0.849076
-0.880807
-0.910897
-0.939298
-0.965965
-0.990863
-1.01396
-1.03525
-1.05471
-1.07232
-1.0881
-1.10204
-1.11414
-1.12442
-1.13305
-0.218345
-0.264644
-0.310416
-0.355719
-0.400454
-0.444524
-0.48784
-0.530309
-0.571837
-0.612332
-0.651707
-0.689877
-0.726762
-0.762288
-0.796385
-0.828988
-0.860038
-0.889479
-0.917262
-0.943344
-0.967693
-0.990281
-1.01109
-1.03011
-1.04733
-1.06275
-1.07637
-1.08821
-1.09827
-1.10664
-0.207292
-0.252651
-0.297567
-0.342034
-0.385951
-0.429222
-0.471757
-0.513465
-0.554254
-0.594035
-0.63272
-0.670227
-0.706478
-0.7414
-0.774923
-0.806985
-0.837525
-0.86649
-0.893831
-0.919507
-0.943486
-0.965742
-0.986255
-1.00501
-1.022
-1.03722
-1.05068
-1.06239
-1.07235
-1.08063
-0.193434
-0.237834
-0.281856
-0.32546
-0.368542
-0.411007
-0.452764
-0.493723
-0.533794
-0.572887
-0.610918
-0.647806
-0.683473
-0.717847
-0.750859
-0.782448
-0.812553
-0.841122
-0.868107
-0.893467
-0.917171
-0.939191
-0.959507
-0.978102
-0.994965
-1.01009
-1.02349
-1.03517
-1.04513
-1.05342
-0.177502
-0.220924
-0.264022
-0.306737
-0.348964
-0.390609
-0.431581
-0.471791
-0.51115
-0.54957
-0.586968
-0.623264
-0.65838
-0.692245
-0.724792
-0.755958
-0.785684
-0.813918
-0.840613
-0.865728
-0.889231
-0.911093
-0.93129
-0.949804
-0.966623
-0.981743
-0.995169
-1.00691
-1.01696
-1.02536
-0.160181
-0.202603
-0.244747
-0.286543
-0.32789
-0.368694
-0.408865
-0.448315
-0.486956
-0.524703
-0.561472
-0.597185
-0.631766
-0.665143
-0.697249
-0.728021
-0.757403
-0.78534
-0.811788
-0.836705
-0.860056
-0.881811
-0.901943
-0.920434
-0.937269
-0.952445
-0.965966
-0.977836
-0.988049
-0.996637
-0.142075
-0.18347
-0.22463
-0.265478
-0.305915
-0.345851
-0.385197
-0.423866
-0.461772
-0.498832
-0.534963
-0.570089
-0.604132
-0.637023
-0.668694
-0.699082
-0.728132
-0.75579
-0.78201
-0.80675
-0.829974
-0.851649
-0.871748
-0.890248
-0.907138
-0.922412
-0.936072
-0.94812
-0.958551
-0.967388
-0.123684
-0.164028
-0.204177
-0.244048
-0.283549
-0.322589
-0.361084
-0.398948
-0.436097
-0.47245
-0.507926
-0.542448
-0.575941
-0.608335
-0.639563
-0.669564
-0.698279
-0.725657
-0.751651
-0.776218
-0.79932
-0.820923
-0.841
-0.859526
-0.87649
-0.891885
-0.905709
-0.917964
-0.928644
-0.937769
-0.105406
-0.144682
-0.183797
-0.222669
-0.261209
-0.29933
-0.33695
-0.373986
-0.410356
-0.44598
-0.480779
-0.514677
-0.547601
-0.579481
-0.61025
-0.639846
-0.668214
-0.6953
-0.721057
-0.745442
-0.768414
-0.789941
-0.809992
-0.828546
-0.845588
-0.861111
-0.875108
-0.887579
-0.89852
-0.907948
-0.0875462
-0.125742
-0.163808
-0.201665
-0.239227
-0.276411
-0.313137
-0.349325
-0.384895
-0.419768
-0.453869
-0.487123
-0.519456
-0.5508
-0.581089
-0.610262
-0.638262
-0.665036
-0.690537
-0.714721
-0.737547
-0.75898
-0.778993
-0.797563
-0.814675
-0.830318
-0.844483
-0.857165
-0.868363
-0.87809
-0.0703258
-0.107437
-0.144448
-0.181281
-0.217854
-0.25409
-0.289909
-0.325234
-0.359987
-0.394094
-0.427478
-0.460066
-0.491788
-0.522575
-0.552362
-0.581089
-0.608698
-0.635137
-0.660359
-0.684317
-0.706973
-0.728289
-0.748241
-0.766805
-0.783967
-0.799711
-0.814025
-0.826904
-0.838344
-0.848355
-0.0538987
-0.0899281
-0.125885
-0.161692
-0.197274
-0.232555
-0.267461
-0.301915
-0.335842
-0.369169
-0.401821
-0.433729
-0.464821
-0.495031
-0.524295
-0.552552
-0.579747
-0.605826
-0.63074
-0.654447
-0.676904
-0.698077
-0.717939
-0.736469
-0.753652
-0.769469
-0.783908
-0.79696
-0.808619
-0.81889
-0.0383626
-0.0733195
-0.108228
-0.143014
-0.177608
-0.211938
-0.24593
-0.279511
-0.312608
-0.345148
-0.377059
-0.408273
-0.438721
-0.468337
-0.497057
-0.524825
-0.551581
-0.577274
-0.601855
-0.625281
-0.647512
-0.668513
-0.688256
-0.706721
-0.72389
-0.739748
-0.75428
-0.767475
-0.779325
-0.789831
-0.0237712
-0.0576695
-0.0915411
-0.125318
-0.158934
-0.19232
-0.225404
-0.258116
-0.290383
-0.322135
-0.353301
-0.383813
-0.413605
-0.442613
-0.470774
-0.498031
-0.524328
-0.549611
-0.573834
-0.596952
-0.618929
-0.63973
-0.659325
-0.677693
-0.694817
-0.71068
-0.725271
-0.738576
-0.750583
-0.761294
-0.0101449
-0.0430019
-0.075853
-0.108636
-0.141288
-0.173743
-0.205931
-0.237783
-0.269227
-0.300194
-0.330614
-0.360421
-0.389551
-0.417941
-0.445529
-0.472259
-0.498077
-0.52293
-0.54677
-0.569556
-0.591253
-0.611826
-0.631246
-0.649488
-0.666535
-0.682372
-0.696987
-0.710366
-0.722497
-0.733379
0.00252076
-0.0293143
-0.0611637
-0.0929709
-0.124677
-0.156219
-0.187527
-0.218531
-0.249163
-0.279353
-0.309033
-0.338137
-0.366603
-0.394369
-0.421376
-0.447568
-0.472891
-0.497296
-0.520733
-0.543165
-0.564556
-0.584877
-0.604094
-0.622183
-0.639123
-0.654903
-0.669509
-0.682927
-0.695147
-0.706165
0.0142482
-0.0165848
-0.0474528
-0.0783053
-0.109087
-0.139735
-0.170182
-0.200357
-0.230192
-0.259618
-0.288568
-0.316976
-0.344781
-0.371923
-0.398344
-0.42399
-0.448808
-0.472751
-0.49577
-0.517827
-0.538892
-0.558935
-0.577924
-0.595832
-0.612639
-0.628332
-0.642897
-0.656322
-0.668595
-0.679713
0.0250722
-0.00477694
-0.0346842
-0.0646045
-0.0944849
-0.124263
-0.153871
-0.183239
-0.212296
-0.240974
-0.269207
-0.29693
-0.324082
-0.350605
-0.376441
-0.401537
-0.425844
-0.449315
-0.471904
-0.493573
-0.514294
-0.534037
-0.552774
-0.570475
-0.587121
-0.602699
-0.617194
-0.630593
-0.642886
-0.65407
0.0350364
0.00615586
-0.022811
-0.0518227
-0.0808273
-0.109762
-0.138556
-0.167139
-0.19544
-0.223392
-0.250926
-0.277978
-0.304488
-0.330399
-0.355654
-0.380202
-0.403995
-0.42699
-0.449141
-0.470411
-0.490773
-0.5102
-0.528663
-0.546134
-0.562594
-0.578029
-0.592425
-0.605769
-0.618051
-0.629267
0.0441897
0.0162677
-0.0117784
-0.0399061
-0.068062
-0.0961803
-0.124189
-0.152013
-0.179583
-0.20683
-0.233685
-0.260083
-0.285966
-0.311277
-0.33596
-0.359965
-0.383246
-0.405761
-0.427469
-0.448333
-0.468326
-0.487423
-0.505595
-0.522816
-0.539067
-0.554335
-0.568606
-0.581867
-0.594109
-0.605328
0.0525851
0.0256181
-0.00152646
-0.0287959
-0.0561317
-0.0834635
-0.110715
-0.137809
-0.164674
-0.191241
-0.21744
-0.243206
-0.26848
-0.293204
-0.317326
-0.340795
-0.363569
-0.385606
-0.406868
-0.42732
-0.446937
-0.465693
-0.48356
-0.500514
-0.516537
-0.531617
-0.54574
-0.558894
-0.571069
-0.582262
0.0602756
0.0342726
0.00800955
-0.0184285
-0.0449746
-0.0715515
-0.0980765
-0.124471
-0.150659
-0.176573
-0.202142
-0.227298
-0.251982
-0.276137
-0.299711
-0.322655
-0.344929
-0.366492
-0.387307
-0.407344
-0.426579
-0.444986
-0.462538
-0.479213
-0.494992
-0.509866
-0.523822
-0.536847
-0.548933
-0.560075
0.0673231
0.0423048
0.0169022
-0.00873365
-0.0345232
-0.0603789
-0.0862111
-0.111937
-0.13748
-0.162768
-0.187733
-0.212304
-0.236419
-0.260023
-0.283065
-0.305497
-0.32728
-0.348376
-0.368749
-0.388371
-0.40722
-0.425273
-0.442502
-0.458887
-0.474412
-0.489066
-0.502839
-0.515718
-0.527693
-0.538761
0.0737967
0.0497934
0.0252197
0.000351581
-0.0247178
-0.0498887
-0.0750626
-0.100154
-0.125083
-0.149777
-0.174165
-0.198175
-0.221745
-0.244818
-0.267343
-0.289276
-0.310579
-0.331216
-0.351152
-0.370362
-0.388826
-0.406521
-0.423423
-0.439512
-0.454773
-0.469197
-0.482774
-0.495491
-0.507338
-0.518312
0.0797783
0.0567809
0.0329656
0.00882949
-0.0155584
-0.0400807
-0.0646294
-0.0891182
-0.113464
-0.137594
-0.161431
-0.184905
-0.20795
-0.23051
-0.252533
-0.273978
-0.294811
-0.314996
-0.3345
-0.3533
-0.371379
-0.388715
-0.405285
-0.421071
-0.436061
-0.450245
-0.463612
-0.476152
-0.487854
-0.498714
0.0853795
0.0633419
0.0401782
0.0167232
-0.0070148
-0.0309203
-0.0548719
-0.0787854
-0.102576
-0.126166
-0.149479
-0.172437
-0.194978
-0.217042
-0.238578
-0.259548
-0.279921
-0.29966
-0.318739
-0.337134
-0.354831
-0.371809
-0.388047
-0.403528
-0.418242
-0.432178
-0.445327
-0.457678
-0.469221
-0.479952
0.0909982
0.0702199
0.0475941
0.0247349
0.00157841
-0.0217626
-0.0451661
-0.0685514
-0.0918366
-0.114937
-0.13777
-0.160258
-0.182336
-0.203943
-0.225029
-0.245561
-0.265506
-0.284834
-0.303518
-0.32154
-0.338884
-0.355533
-0.371467
-0.38667
-0.401131
-0.414841
-0.427791
-0.439969
-0.451367
-0.461981
0.0978289
0.0787492
0.0563959
0.0338992
0.0111349
-0.0117843
-0.0347629
-0.0577389
-0.0806337
-0.103355
-0.12581
-0.14792
-0.169617
-0.190841
-0.211546
-0.2317
-0.251277
-0.270247
-0.288589
-0.306286
-0.323325
-0.339689
-0.355361
-0.370328
-0.384576
-0.398097
-0.410882
-0.422922
-0.434208
-0.444738
0.104679
0.0838217
0.0605983
0.0382062
0.0157093
-0.00681296
-0.0293169
-0.051807
-0.0742217
-0.0964682
-0.118447
-0.140074
-0.161275
-0.181989
-0.202172
-0.221797
-0.240838
-0.259272
-0.277081
-0.294252
-0.310775
-0.326637
-0.341823
-0.356322
-0.370122
-0.383216
-0.395596
-0.407254
-0.418186
-0.428388
0.552268
0.559974
0.567886
0.575977
0.584248
0.5927
0.601324
0.610115
0.619061
0.628151
0.637372
0.64671
0.656146
0.665661
0.675232
0.684833
0.694443
0.704041
0.713616
0.723165
0.732705
0.742275
0.75194
0.761801
0.772026
0.782863
0.794556
0.807277
0.822748
0.844028
0.547869
0.555422
0.563245
0.571236
0.579396
0.58773
0.596231
0.60489
0.613697
0.622639
0.631703
0.640873
0.650129
0.659449
0.668809
0.678182
0.687543
0.696871
0.706151
0.715378
0.724566
0.733755
0.743008
0.752434
0.762205
0.772583
0.783827
0.796134
0.811291
0.832513
0.542601
0.549949
0.557657
0.565523
0.57354
0.581723
0.590066
0.598558
0.607188
0.615945
0.624812
0.633773
0.642805
0.651885
0.660986
0.670079
0.679139
0.688144
0.697074
0.705925
0.714708
0.723458
0.732246
0.741184
0.750456
0.760333
0.771095
0.782972
0.797825
0.818996
0.53647
0.543563
0.551133
0.558846
0.56669
0.574688
0.582839
0.591129
0.599547
0.60808
0.616711
0.625421
0.634185
0.642978
0.65177
0.660534
0.669241
0.677868
0.686396
0.694817
0.703141
0.711403
0.719674
0.728075
0.7368
0.746135
0.756378
0.767787
0.782271
0.803236
0.529484
0.536274
0.543679
0.551213
0.558853
0.566636
0.574562
0.582615
0.590785
0.599056
0.607411
0.615826
0.624277
0.632735
0.641171
0.649554
0.657858
0.666055
0.674127
0.682065
0.689877
0.697598
0.705301
0.713117
0.721249
0.729998
0.73968
0.750582
0.764645
0.785304
0.521651
0.528089
0.535306
0.542635
0.550041
0.557577
0.565244
0.573028
0.580913
0.588885
0.596921
0.605
0.613092
0.621169
0.6292
0.637156
0.645006
0.652723
0.660285
0.667685
0.674931
0.682058
0.689144
0.696326
0.70382
0.711941
0.721022
0.73138
0.744977
0.765262
0.512978
0.519016
0.526022
0.533119
0.540262
0.54752
0.554899
0.562379
0.569944
0.577577
0.585256
0.592955
0.600645
0.608296
0.615879
0.623361
0.630709
0.637894
0.644893
0.6517
0.658325
0.664806
0.671226
0.67773
0.684542
0.691991
0.700432
0.710207
0.723298
0.743149
0.503476
0.509068
0.515838
0.522679
0.529529
0.53648
0.543538
0.550681
0.557892
0.565149
0.572431
0.57971
0.586956
0.59414
0.60123
0.608192
0.61499
0.621592
0.627977
0.634138
0.640089
0.645874
0.651581
0.657361
0.663448
0.670184
0.677946
0.687103
0.699647
0.719011
0.493158
0.498258
0.50477
0.511329
0.517858
0.524472
0.531179
0.537952
0.544772
0.551618
0.558466
0.565287
0.572051
0.578727
0.58528
0.591675
0.597874
0.603845
0.609564
0.61503
0.620258
0.6253
0.630248
0.635259
0.640578
0.646561
0.653605
0.662109
0.67407
0.692897
0.482038
0.486604
0.492836
0.499088
0.505269
0.511516
0.517839
0.524211
0.530607
0.537007
0.543385
0.549712
0.555955
0.562081
0.568054
0.573836
0.579389
0.584682
0.589692
0.594415
0.598876
0.603129
0.607273
0.611471
0.615978
0.621168
0.627459
0.635276
0.646618
0.664861