/*--------------------------------*- C++ -*----------------------------------*\
  =========                 |
  \\      /  F ield         | OpenFOAM: The Open Source CFD Toolbox
   \\    /   O peration     | Website:  https://openfoam.org
    \\  /    A nd           | Version:  6.0
     \\/     M anipulation  |
\*---------------------------------------------------------------------------*/
FoamFile
{
    version     2.0;
    format      ascii;
    class       volVectorField;
    location    "23.752";
    object      U;
}
// * * * * * * * * * * * * * * * * * * * * * * * * * * * * * * * * * * * * * //

dimensions      [0 1 -1 0 0 0 0];

internalField   nonuniform List<vector> 
19200
(
(0.00655169 -0.479025 -4.04795e-22)
(0.00479236 -0.440699 2.24312e-22)
(0.00269239 -0.405513 1.15109e-22)
(0.000262704 -0.373293 1.12363e-22)
(-0.00236661 -0.343836 1.37589e-22)
(-0.00505853 -0.316938 6.95647e-24)
(-0.00771867 -0.292395 2.20502e-22)
(-0.0102797 -0.270013 -2.29449e-23)
(-0.0126932 -0.249607 2.18762e-22)
(-0.0149264 -0.231004 9.57156e-23)
(-0.0169589 -0.214039 -1.00153e-23)
(-0.01878 -0.198563 1.70685e-22)
(-0.0203864 -0.184436 3.22608e-22)
(-0.0217809 -0.17153 -2.35423e-22)
(-0.0229707 -0.159728 3.13594e-22)
(-0.0239666 -0.148923 2.98318e-22)
(-0.0247817 -0.139019 -2.93245e-22)
(-0.0254312 -0.129928 5.36628e-22)
(-0.0259314 -0.121571 -3.60202e-22)
(-0.0262996 -0.113875 1.82589e-22)
(-0.0265532 -0.106777 2.82953e-22)
(-0.02671 -0.100219 -1.02384e-22)
(-0.0267874 -0.0941494 1.39474e-22)
(-0.0268021 -0.0885237 -1.77069e-22)
(-0.0267705 -0.0833013 4.59648e-24)
(-0.0267088 -0.0784466 1.05418e-22)
(-0.0266323 -0.0739282 -7.17449e-23)
(-0.0265453 -0.0697189 3.93264e-23)
(-0.02644 -0.0657931 1.09658e-22)
(-0.0264033 -0.0621271 5.41626e-22)
(0.0191218 -0.478203 -9.76928e-23)
(0.0163491 -0.439296 7.05867e-22)
(0.0133279 -0.403694 -3.94135e-22)
(0.0100793 -0.371192 -6.03182e-22)
(0.00673128 -0.341565 -3.05283e-22)
(0.00341439 -0.314588 -2.32651e-22)
(0.000215948 -0.290042 -5.41224e-22)
(-0.00280371 -0.267717 6.50774e-23)
(-0.00560295 -0.247414 -1.05896e-22)
(-0.00815532 -0.228948 -4.52001e-22)
(-0.0104464 -0.212147 -1.29521e-21)
(-0.0124711 -0.196851 6.73686e-22)
(-0.0142314 -0.182916 -2.70692e-22)
(-0.0157349 -0.170206 1.04028e-22)
(-0.0169933 -0.158601 -7.09369e-22)
(-0.0180214 -0.147989 -2.86684e-22)
(-0.0188362 -0.138269 2.77748e-23)
(-0.0194564 -0.129352 1.07971e-21)
(-0.0199017 -0.121154 -5.60388e-22)
(-0.0201922 -0.113603 -3.23364e-22)
(-0.0203485 -0.106632 -1.44744e-21)
(-0.0203908 -0.100182 3.84691e-22)
(-0.0203391 -0.0942019 -2.60094e-22)
(-0.0202124 -0.0886453 4.90515e-22)
(-0.0200293 -0.0834717 -2.49067e-22)
(-0.019808 -0.0786457 -4.0539e-22)
(-0.0195661 -0.0741365 1.26496e-22)
(-0.0193084 -0.0699175 2.31794e-22)
(-0.0190244 -0.0659631 -3.94565e-22)
(-0.018814 -0.0622523 2.54043e-22)
(0.0316051 -0.477092 -4.67251e-23)
(0.0277999 -0.437623 1.23242e-22)
(0.0238647 -0.401636 2.11387e-22)
(0.0198106 -0.36889 2.08962e-21)
(0.0157616 -0.339133 -1.32991e-21)
(0.0118429 -0.312117 1.22859e-21)
(0.00813461 -0.287605 8.13251e-22)
(0.00468963 -0.26537 7.22245e-22)
(0.00154225 -0.245202 -7.35061e-22)
(-0.00128805 -0.226903 -1.22672e-22)
(-0.00379342 -0.210292 2.09878e-21)
(-0.00597481 -0.195203 4.01074e-22)
(-0.00783989 -0.181482 -1.12842e-21)
(-0.00940139 -0.16899 8.96772e-22)
(-0.0106758 -0.157601 -1.83721e-23)
(-0.0116822 -0.147199 4.41549e-22)
(-0.0124418 -0.137679 3.2355e-22)
(-0.012977 -0.128949 1.24342e-21)
(-0.0133108 -0.120924 -5.29639e-22)
(-0.0134668 -0.113528 -1.71396e-22)
(-0.0134684 -0.106692 -5.58417e-22)
(-0.0133387 -0.100358 2.66439e-21)
(-0.0131004 -0.0944726 -2.31951e-21)
(-0.0127751 -0.0889883 7.47136e-22)
(-0.0123837 -0.0838649 4.38462e-22)
(-0.0119469 -0.0790671 -1.68754e-21)
(-0.0114845 -0.0745647 2.32629e-21)
(-0.0110017 -0.0703315 -2.34227e-22)
(-0.0104847 -0.0663418 -2.79869e-22)
(-0.0100495 -0.0625778 -2.4413e-21)
(0.0440324 -0.475682 -1.4722e-21)
(0.0391675 -0.435694 -1.55215e-21)
(0.0343114 -0.399362 -2.08404e-21)
(0.0294592 -0.366412 8.51189e-24)
(0.0247262 -0.336566 1.30951e-22)
(0.0202298 -0.309552 -2.90301e-21)
(0.0160419 -0.28511 1.12434e-22)
(0.0122067 -0.263001 4.44148e-22)
(0.00875057 -0.243 -5.92895e-23)
(0.00568517 -0.224898 8.90136e-22)
(0.00301127 -0.208506 -3.58007e-21)
(0.000721347 -0.193648 -2.47761e-21)
(-0.00119831 -0.180165 8.87112e-22)
(-0.00276592 -0.167912 2.0764e-21)
(-0.00400301 -0.156758 -2.43387e-21)
(-0.00493338 -0.146583 -4.06038e-22)
(-0.00558239 -0.13728 -1.65572e-21)
(-0.00597634 -0.128751 -8.28503e-22)
(-0.00614201 -0.120911 1.51233e-21)
(-0.00610626 -0.11368 -2.00003e-21)
(-0.00589575 -0.106989 1.89744e-21)
(-0.00553666 -0.100778 -2.26373e-21)
(-0.00505443 -0.0949912 -1.91686e-21)
(-0.00447346 -0.0895821 -1.50158e-21)
(-0.00381714 -0.0845096 -3.88047e-22)
(-0.00310893 -0.0797385 -3.34061e-21)
(-0.00237136 -0.0752393 3.5853e-22)
(-0.00160962 -0.0709859 6.73394e-22)
(-0.000805948 -0.0669521 -2.07473e-21)
(-9.56218e-05 -0.0631246 4.09287e-22)
(0.0564064 -0.473964 -8.56443e-22)
(0.0504582 -0.433513 1.50444e-22)
(0.0446738 -0.396885 1.3886e-21)
(0.0390302 -0.363779 1.58916e-21)
(0.0336305 -0.333888 1.25324e-21)
(0.028582 -0.306916 5.59123e-22)
(0.0239462 -0.282584 9.00529e-22)
(0.0197578 -0.260636 4.56966e-21)
(0.0160339 -0.240835 -2.81652e-21)
(0.0127778 -0.222961 5.89652e-23)
(0.00998259 -0.206815 7.39929e-22)
(0.00763356 -0.192213 3.69878e-21)
(0.0057106 -0.178992 -2.61752e-21)
(0.00418963 -0.166999 2.02172e-21)
(0.00304382 -0.1561 -2.42362e-21)
(0.00224451 -0.14617 4.38479e-21)
(0.0017619 -0.137098 -1.30964e-21)
(0.0015656 -0.128785 5.09625e-23)
(0.00162503 -0.121141 2.48915e-21)
(0.00190977 -0.114087 1.9174e-21)
(0.00238981 -0.10755 -1.9566e-21)
(0.00303581 -0.101468 2.82035e-21)
(0.00381925 -0.095785 -1.37951e-21)
(0.00471286 -0.0904536 1.62974e-21)
(0.00569045 -0.0854323 2.37248e-21)
(0.00672559 -0.0806858 9.69997e-22)
(0.00779278 -0.0761849 3.00524e-21)
(0.00888677 -0.071904 -9.52034e-22)
(0.0100301 -0.0678153 -2.46364e-22)
(0.011065 -0.0639117 -2.08889e-21)
(0.0687227 -0.471939 -6.30395e-22)
(0.0616724 -0.431087 -4.58581e-22)
(0.0549555 -0.39422 -1.58272e-21)
(0.0485292 -0.361009 -4.57776e-21)
(0.0424821 -0.33112 1.53251e-21)
(0.0369087 -0.304232 1.21364e-22)
(0.0318589 -0.28005 -1.2506e-21)
(0.0273562 -0.258301 3.10714e-22)
(0.0234075 -0.238732 -1.53555e-22)
(0.0200069 -0.221116 -4.04945e-21)
(0.017139 -0.205244 1.68927e-21)
(0.0147816 -0.190925 3.25278e-21)
(0.0129077 -0.177987 -2.38538e-23)
(0.0114871 -0.166276 1.34925e-21)
(0.0104872 -0.15565 3.67016e-21)
(0.00987453 -0.145982 -2.6768e-21)
(0.00961453 -0.137158 4.94575e-21)
(0.00967259 -0.129075 -2.53562e-21)
(0.0100142 -0.12164 4.72191e-21)
(0.0106053 -0.114772 -3.71189e-21)
(0.0114123 -0.108398 1.70948e-21)
(0.0124026 -0.102452 4.96153e-21)
(0.0135444 -0.0968781 4.78125e-22)
(0.0148074 -0.091627 -4.999e-21)
(0.0161625 -0.0866568 2.92039e-21)
(0.0175798 -0.0819321 3.63655e-22)
(0.0190306 -0.0774241 -1.09387e-21)
(0.0205097 -0.0731068 4.23356e-21)
(0.0220451 -0.0689509 1.67144e-21)
(0.0234532 -0.0649564 -1.75053e-21)
(0.0809752 -0.46961 1.8491e-21)
(0.0728088 -0.428424 1.07391e-22)
(0.0651595 -0.391378 -3.21303e-21)
(0.0579627 -0.358116 6.90718e-22)
(0.0512902 -0.328279 -1.11691e-21)
(0.0452221 -0.301523 7.44423e-22)
(0.0397945 -0.277531 1.89856e-21)
(0.0350186 -0.256016 3.85457e-21)
(0.03089 -0.236715 -4.49143e-21)
(0.0273929 -0.219387 1.10216e-21)
(0.0245027 -0.203815 -9.51091e-22)
(0.022189 -0.189803 7.19361e-22)
(0.0204177 -0.177173 -3.22428e-21)
(0.0191519 -0.165763 -3.05819e-22)
(0.0183535 -0.155429 5.97555e-21)
(0.0179835 -0.146041 -4.17635e-21)
(0.0180026 -0.13748 -2.9125e-21)
(0.018372 -0.12964 -2.35766e-21)
(0.0190531 -0.122427 4.21921e-21)
(0.0200079 -0.115757 1.01876e-21)
(0.0211993 -0.109554 -4.73887e-21)
(0.0225912 -0.103751 6.68352e-21)
(0.0241484 -0.0982911 -6.25879e-21)
(0.0258374 -0.0931228 4.41291e-21)
(0.0276257 -0.0882036 -2.5854e-21)
(0.0294802 -0.0834976 1.79583e-21)
(0.0313683 -0.0789763 1.49995e-21)
(0.0332848 -0.0746131 -6.66221e-21)
(0.0352638 -0.070376 2.92887e-21)
(0.0370927 -0.0662739 6.55422e-23)
(0.0931577 -0.466982 -1.82652e-21)
(0.0838659 -0.425533 1.56288e-21)
(0.0752891 -0.388372 -3.45281e-21)
(0.0673381 -0.355118 6.84375e-21)
(0.0600659 -0.325385 -2.0391e-21)
(0.0535361 -0.298805 3.2491e-21)
(0.0477698 -0.275046 5.3999e-23)
(0.0427644 -0.253804 -4.29569e-22)
(0.0385033 -0.234802 -8.12539e-22)
(0.0349597 -0.217793 -5.15967e-23)
(0.0320991 -0.202549 -3.52644e-21)
(0.0298828 -0.188868 1.86045e-21)
(0.0282687 -0.176567 -2.51294e-21)
(0.0272134 -0.165479 -1.73763e-22)
(0.0266726 -0.155455 -7.90939e-21)
(0.0266018 -0.146362 2.60898e-21)
(0.0269571 -0.138079 1.72207e-21)
(0.027695 -0.130497 -1.96147e-21)
(0.0287727 -0.123518 -2.22337e-22)
(0.0301485 -0.117056 -3.37851e-21)
(0.0317817 -0.111034 -1.27925e-21)
(0.0336323 -0.105382 1.87622e-22)
(0.0356618 -0.10004 -3.44594e-21)
(0.0378331 -0.0949577 -5.54228e-21)
(0.0401104 -0.0900894 1.91182e-22)
(0.0424566 -0.0853992 -7.16426e-22)
(0.0448352 -0.0808582 2.03335e-21)
(0.0472409 -0.0764386 -5.26108e-21)
(0.0497145 -0.0721051 4.69693e-21)
(0.0520107 -0.0678771 -1.06895e-20)
(0.105264 -0.464059 -4.45261e-21)
(0.0948427 -0.422422 6.14428e-21)
(0.0853482 -0.385213 -7.12019e-21)
(0.0766639 -0.352027 -2.1435e-21)
(0.0688217 -0.322452 -1.51714e-21)
(0.0618671 -0.296098 -1.76213e-21)
(0.0558045 -0.272614 -1.64682e-21)
(0.0506162 -0.251681 -2.92518e-22)
(0.0462725 -0.233013 -1.84063e-21)
(0.0427344 -0.216351 -4.27729e-22)
(0.0399576 -0.201462 3.7959e-21)
(0.0378937 -0.188135 -1.98537e-21)
(0.0364929 -0.176183 -2.68497e-21)
(0.0357046 -0.165435 -5.04284e-21)
(0.0354782 -0.155739 1.10275e-20)
(0.0357639 -0.146958 -4.46214e-21)
(0.0365125 -0.138967 1.76651e-21)
(0.0376761 -0.131655 -7.13531e-21)
(0.0392078 -0.124923 2.78772e-21)
(0.0410619 -0.11868 -1.28795e-21)
(0.0431938 -0.112847 1.56447e-21)
(0.0455601 -0.107354 -6.01877e-22)
(0.0481184 -0.102137 5.79185e-21)
(0.0508281 -0.0971435 -2.12607e-21)
(0.0536497 -0.0923268 6.36056e-21)
(0.0565419 -0.0876496 -1.58689e-21)
(0.0594638 -0.0830825 8.87176e-21)
(0.0624099 -0.078596 2.77988e-21)
(0.0654282 -0.0741499 5.39073e-21)
(0.0682374 -0.0697763 -1.86469e-20)
(0.117288 -0.460847 7.01286e-21)
(0.105739 -0.4191 -1.44598e-21)
(0.0953419 -0.381914 3.14665e-21)
(0.0859501 -0.348859 -9.60188e-22)
(0.0775722 -0.319497 3.48229e-21)
(0.0702337 -0.293417 3.61836e-21)
(0.0639208 -0.27025 4.38933e-21)
(0.0585995 -0.249664 -4.26047e-22)
(0.0542256 -0.231362 -4.91542e-21)
(0.0507479 -0.215076 7.36293e-21)
(0.0481107 -0.200565 -7.88619e-22)
(0.0462561 -0.187615 5.86838e-21)
(0.045126 -0.176032 2.3001e-21)
(0.0446622 -0.165642 8.08263e-22)
(0.044808 -0.15629 1.40867e-21)
(0.0455076 -0.147834 2.11536e-21)
(0.046707 -0.140149 3.85438e-21)
(0.0483537 -0.133121 -1.24549e-21)
(0.0503965 -0.126646 6.38697e-21)
(0.0527858 -0.120633 3.22183e-21)
(0.0554733 -0.115 -6.87929e-21)
(0.0584117 -0.109673 1.29476e-20)
(0.061555 -0.104587 -1.79259e-20)
(0.0648588 -0.0996867 1.77488e-20)
(0.0682795 -0.094923 -6.11448e-21)
(0.0717716 -0.0902568 1.11578e-21)
(0.0752891 -0.0856578 -9.02308e-21)
(0.0788264 -0.0810938 5.12164e-21)
(0.0824388 -0.0765185 1.99407e-21)
(0.0858054 -0.0719789 -2.76394e-21)
(0.129225 -0.457349 -4.00457e-21)
(0.116555 -0.415575 4.64663e-21)
(0.105276 -0.378485 -1.32111e-21)
(0.0952082 -0.345625 4.09759e-21)
(0.0863338 -0.316533 4.27734e-22)
(0.0786567 -0.290776 1.17455e-21)
(0.0721434 -0.267969 -8.65666e-21)
(0.0667424 -0.247767 -1.69032e-21)
(0.0623942 -0.229862 6.39551e-21)
(0.059034 -0.213978 5.37899e-21)
(0.0565945 -0.19987 -9.52241e-21)
(0.055008 -0.187316 5.92482e-21)
(0.0542072 -0.176119 -6.16035e-21)
(0.0541267 -0.166103 4.66271e-21)
(0.0547029 -0.157108 -8.15761e-21)
(0.0558745 -0.148992 -6.56111e-21)
(0.0575824 -0.141625 2.08152e-22)
(0.0597693 -0.134892 -3.47667e-21)
(0.0623801 -0.128686 6.02056e-21)
(0.0653612 -0.122914 2.6172e-21)
(0.0686605 -0.11749 -1.71066e-21)
(0.072227 -0.112337 -4.94287e-22)
(0.076011 -0.10739 2.48223e-21)
(0.079964 -0.102588 -8.23521e-21)
(0.0840383 -0.0978792 1.4348e-20)
(0.0881835 -0.0932234 -3.46439e-21)
(0.0923485 -0.0885878 -4.43834e-22)
(0.096527 -0.0839366 1.44326e-20)
(0.100782 -0.0792157 2.2945e-21)
(0.10475 -0.074489 -2.30622e-21)
(0.141068 -0.45357 1.89513e-22)
(0.127292 -0.411855 -2.38066e-21)
(0.115159 -0.374937 -2.45563e-21)
(0.104451 -0.342338 -4.43505e-21)
(0.0951249 -0.313573 1.72414e-22)
(0.0871594 -0.288188 -3.83617e-21)
(0.0804999 -0.265783 4.59787e-21)
(0.0750762 -0.246 -4.59629e-22)
(0.0708125 -0.228522 4.55167e-21)
(0.0676299 -0.213066 -3.61597e-21)
(0.0654487 -0.19938 -2.05261e-21)
(0.0641906 -0.18724 1.20368e-21)
(0.0637795 -0.176446 6.97663e-22)
(0.0641419 -0.166817 -7.77321e-21)
(0.0652077 -0.158192 4.68667e-21)
(0.0669096 -0.150426 -2.61985e-21)
(0.0691835 -0.143388 7.47047e-21)
(0.0719677 -0.136959 -2.64284e-21)
(0.0752029 -0.131033 2.81886e-21)
(0.0788318 -0.125511 7.82779e-22)
(0.0827985 -0.120306 5.51372e-21)
(0.0870484 -0.115338 -1.07903e-21)
(0.0915278 -0.110537 1.00303e-20)
(0.0961842 -0.105839 -1.14152e-20)
(0.100966 -0.10119 -4.18469e-21)
(0.105817 -0.0965456 3.56169e-21)
(0.110681 -0.0918704 -2.12131e-22)
(0.11555 -0.0871236 -6.83327e-21)
(0.120496 -0.0822415 5.68377e-21)
(0.125106 -0.0773073 -7.69351e-21)
(0.152814 -0.449516 6.88048e-21)
(0.137952 -0.407949 2.08256e-21)
(0.124998 -0.37128 2.74121e-21)
(0.113695 -0.33901 4.07969e-21)
(0.103966 -0.310629 6.55273e-21)
(0.0957671 -0.285665 -2.17937e-22)
(0.0890201 -0.263702 9.76821e-22)
(0.0836348 -0.244371 9.00863e-21)
(0.0795179 -0.227348 -1.83782e-21)
(0.0765758 -0.212343 -3.8032e-21)
(0.0747158 -0.199099 7.06561e-21)
(0.0738488 -0.187388 1.37787e-21)
(0.073889 -0.177008 1.9736e-23)
(0.0747552 -0.167776 1.902e-21)
(0.0763702 -0.15953 3.7926e-21)
(0.0786611 -0.152123 -8.38327e-21)
(0.0815585 -0.145423 7.35055e-21)
(0.0849966 -0.139308 1.31514e-21)
(0.088912 -0.133669 8.19503e-21)
(0.0932437 -0.128407 -4.53555e-21)
(0.0979323 -0.12343 8.05508e-21)
(0.10292 -0.118656 -8.9786e-21)
(0.108148 -0.11401 9.05463e-21)
(0.113561 -0.109425 1.54598e-21)
(0.119103 -0.104842 -6.56793e-21)
(0.124712 -0.100212 -2.43824e-21)
(0.130325 -0.095497 1.40441e-20)
(0.135934 -0.0906486 1.0564e-20)
(0.141617 -0.0855915 2.92415e-21)
(0.146912 -0.0804305 -2.62369e-21)
(0.164457 -0.44519 7.21979e-22)
(0.148538 -0.403864 1.95593e-21)
(0.134804 -0.367524 8.57193e-21)
(0.122954 -0.33565 -1.44922e-20)
(0.112879 -0.307711 -1.62217e-21)
(0.104508 -0.283215 -1.76945e-21)
(0.0977365 -0.261733 7.81694e-22)
(0.0924546 -0.242888 1.21619e-21)
(0.0885506 -0.226344 2.22577e-21)
(0.0859149 -0.211809 -6.2536e-21)
(0.0844417 -0.199022 -1.4972e-21)
(0.0840302 -0.187753 3.82175e-21)
(0.084585 -0.177796 4.61597e-21)
(0.0860168 -0.16897 -4.61964e-21)
(0.0882414 -0.161109 -5.18203e-21)
(0.09118 -0.154066 8.14781e-21)
(0.0947583 -0.147709 5.84183e-21)
(0.0989062 -0.141914 -1.40016e-21)
(0.103557 -0.13657 -4.0683e-21)
(0.108645 -0.131575 8.13498e-22)
(0.114108 -0.126836 -1.06317e-20)
(0.119886 -0.122266 1.32782e-20)
(0.125916 -0.117785 -9.46844e-21)
(0.132138 -0.113323 -5.5296e-22)
(0.138491 -0.108814 6.75892e-21)
(0.144909 -0.104205 -2.24698e-21)
(0.15132 -0.0994517 -7.23604e-21)
(0.157716 -0.0944987 9.04921e-21)
(0.164183 -0.0892555 -2.951e-22)
(0.170203 -0.083851 1.92183e-21)
(0.175994 -0.440598 -4.74466e-22)
(0.159054 -0.399609 -1.95538e-21)
(0.144589 -0.363679 -9.89916e-21)
(0.132248 -0.332269 3.61469e-21)
(0.12189 -0.304828 -1.278e-21)
(0.113411 -0.280847 4.17173e-21)
(0.106684 -0.259884 3.08206e-22)
(0.101575 -0.241552 -5.74992e-21)
(0.0979533 -0.225511 9.08194e-21)
(0.0956931 -0.211463 -8.60164e-21)
(0.0946747 -0.199145 -4.82399e-22)
(0.0947854 -0.188325 2.37152e-21)
(0.0959198 -0.178797 -4.297e-21)
(0.09798 -0.170379 5.28339e-21)
(0.100875 -0.162905 -1.04747e-20)
(0.10452 -0.156229 -2.73684e-21)
(0.108836 -0.150216 6.78838e-21)
(0.113749 -0.144744 -1.83496e-22)
(0.119188 -0.1397 -5.18868e-21)
(0.125085 -0.134979 1.41309e-20)
(0.131374 -0.130485 -7.59854e-21)
(0.137992 -0.126128 -1.10668e-20)
(0.144874 -0.121824 3.90361e-21)
(0.151955 -0.117495 -1.19099e-20)
(0.159169 -0.113072 -3.16346e-21)
(0.166445 -0.108493 -5.5747e-22)
(0.173703 -0.10371 -9.05241e-21)
(0.180934 -0.0986537 1.08128e-20)
(0.18823 -0.0932175 -6.42731e-21)
(0.195014 -0.0875563 8.31228e-21)
(0.187421 -0.435745 -2.43813e-21)
(0.169505 -0.39519 -7.93092e-21)
(0.154364 -0.359751 4.32302e-21)
(0.141597 -0.328874 -4.3686e-21)
(0.131023 -0.301987 -3.53196e-21)
(0.122509 -0.278566 -2.26866e-21)
(0.115899 -0.258156 -8.43864e-21)
(0.111037 -0.240364 5.97581e-21)
(0.107771 -0.224845 -1.57464e-20)
(0.105959 -0.211298 -6.33251e-21)
(0.105466 -0.199457 2.07339e-21)
(0.106167 -0.18909 3.98352e-21)
(0.107948 -0.179992 9.14433e-23)
(0.1107 -0.17198 -8.5832e-21)
(0.114327 -0.164892 2.05516e-21)
(0.118737 -0.158579 -8.82871e-21)
(0.123847 -0.152909 -6.81573e-21)
(0.129579 -0.147758 -4.48765e-21)
(0.135857 -0.143014 -1.22183e-21)
(0.142613 -0.138571 7.53811e-21)
(0.149778 -0.134328 1.1651e-20)
(0.157284 -0.130193 -3.66604e-21)
(0.165065 -0.126077 -3.78364e-21)
(0.173051 -0.121897 7.45301e-21)
(0.181175 -0.117573 4.41539e-21)
(0.189355 -0.113039 -3.50754e-21)
(0.197508 -0.108236 -4.1942e-21)
(0.205618 -0.103085 3.7845e-22)
(0.213788 -0.0974539 4.83891e-21)
(0.221375 -0.0915281 7.35126e-21)
(0.198735 -0.430636 -6.19079e-22)
(0.179896 -0.390615 1.02783e-20)
(0.164144 -0.35575 8.73012e-21)
(0.151021 -0.325473 7.29598e-21)
(0.140307 -0.299195 -4.88876e-21)
(0.131835 -0.276376 -1.0362e-21)
(0.125421 -0.256552 8.95171e-22)
(0.120883 -0.239324 7.66875e-21)
(0.118051 -0.224343 3.08712e-21)
(0.116762 -0.211304 7.89488e-21)
(0.116868 -0.199944 -1.15659e-20)
(0.118232 -0.19003 1.0985e-21)
(0.120726 -0.181357 5.15658e-21)
(0.124236 -0.173746 3.42384e-21)
(0.128656 -0.167034 7.72571e-21)
(0.13389 -0.161076 -5.11188e-21)
(0.139849 -0.155741 -5.29995e-21)
(0.146451 -0.150906 8.50645e-22)
(0.153619 -0.146459 1.23095e-20)
(0.161281 -0.142293 -2.06251e-20)
(0.169366 -0.138306 7.30815e-21)
(0.177805 -0.134401 -1.1658e-22)
(0.186528 -0.130485 1.55826e-20)
(0.195465 -0.126467 -6.77252e-21)
(0.204541 -0.122261 -2.32909e-22)
(0.213672 -0.11779 -4.80307e-21)
(0.222763 -0.112986 4.64821e-21)
(0.231797 -0.107752 1.18995e-21)
(0.240883 -0.101933 -5.89695e-21)
(0.24931 -0.0957421 2.18632e-20)
(0.209931 -0.425276 -9.78341e-21)
(0.190235 -0.38589 -6.34455e-21)
(0.173944 -0.351681 -1.75228e-20)
(0.160544 -0.322071 -8.71678e-21)
(0.149771 -0.296455 8.39572e-21)
(0.141424 -0.274278 -5.44401e-21)
(0.13529 -0.255071 -1.53935e-21)
(0.13116 -0.238426 -4.09469e-21)
(0.128841 -0.223994 7.0294e-21)
(0.128155 -0.21147 -1.71266e-21)
(0.128936 -0.20059 -2.77894e-21)
(0.131034 -0.191122 -3.95509e-22)
(0.134312 -0.182866 -1.32724e-20)
(0.138645 -0.175642 -9.91479e-22)
(0.143921 -0.169293 3.52721e-21)
(0.150036 -0.163676 -4.72594e-22)
(0.156898 -0.158662 -1.63599e-20)
(0.164422 -0.154131 1.65336e-20)
(0.172527 -0.149971 -1.70941e-20)
(0.181139 -0.146077 6.86451e-21)
(0.190186 -0.142344 9.94635e-22)
(0.199597 -0.138675 4.3364e-22)
(0.209302 -0.13497 -8.24072e-21)
(0.219228 -0.131131 2.96874e-21)
(0.229297 -0.127064 6.67794e-23)
(0.239418 -0.12268 1.09038e-21)
(0.249489 -0.117899 -2.46222e-20)
(0.25949 -0.112606 6.40097e-21)
(0.269533 -0.106613 7.4811e-21)
(0.278838 -0.100166 1.01158e-20)
(0.221009 -0.41967 1.93898e-20)
(0.200528 -0.381022 7.78923e-21)
(0.18378 -0.347552 4.80098e-21)
(0.170189 -0.318674 7.83624e-21)
(0.159446 -0.29377 -1.10273e-21)
(0.151314 -0.272274 6.75319e-21)
(0.145547 -0.253709 1.59566e-20)
(0.141911 -0.237665 -1.98113e-21)
(0.140191 -0.22379 1.06359e-21)
(0.140189 -0.21178 2.23127e-20)
(0.141724 -0.201374 -2.83181e-21)
(0.144632 -0.192342 3.41875e-21)
(0.148764 -0.184486 -1.48779e-21)
(0.153988 -0.177632 -5.54461e-22)
(0.160181 -0.171625 2.03573e-20)
(0.167236 -0.166327 7.90078e-22)
(0.175055 -0.161613 2.40012e-20)
(0.183548 -0.157366 -2.89019e-21)
(0.192634 -0.153477 -5.721e-21)
(0.202236 -0.149843 1.36903e-20)
(0.212282 -0.14636 -1.32848e-20)
(0.2227 -0.142926 1.48683e-20)
(0.233421 -0.13944 8.41541e-21)
(0.244368 -0.135798 -7.28921e-21)
(0.255463 -0.131893 1.10684e-20)
(0.26661 -0.127626 1.30385e-21)
(0.2777 -0.122902 -5.33094e-21)
(0.288706 -0.117582 2.36417e-21)
(0.299748 -0.111442 1.92856e-20)
(0.309965 -0.104759 3.29156e-21)
(0.231966 -0.413823 -3.32729e-21)
(0.210784 -0.376016 -7.65891e-21)
(0.19367 -0.343368 3.479e-21)
(0.179982 -0.315286 -1.41634e-20)
(0.169364 -0.291142 7.26231e-21)
(0.161541 -0.270362 -1.39472e-20)
(0.156235 -0.252461 -9.93691e-21)
(0.153185 -0.23703 2.80351e-21)
(0.152152 -0.223716 3.33421e-21)
(0.152919 -0.212217 -1.50247e-20)
(0.155288 -0.202274 -6.96852e-21)
(0.159083 -0.193661 3.50019e-21)
(0.164142 -0.186185 -9.61158e-21)
(0.170323 -0.179675 -4.0872e-21)
(0.177498 -0.173983 -2.93225e-21)
(0.18555 -0.168975 -3.02599e-21)
(0.194377 -0.16453 -1.33708e-20)
(0.203886 -0.160539 -8.98164e-21)
(0.213993 -0.156897 1.32769e-21)
(0.224622 -0.153502 3.01756e-21)
(0.235698 -0.150254 3.56023e-21)
(0.247152 -0.147051 -1.22359e-20)
(0.258913 -0.143789 4.82589e-21)
(0.270908 -0.140357 -1.02602e-20)
(0.283055 -0.136641 1.02078e-20)
(0.295258 -0.132526 -1.35224e-20)
(0.307397 -0.127901 4.65127e-21)
(0.319445 -0.122598 -6.96589e-21)
(0.331522 -0.116352 -1.04938e-20)
(0.342689 -0.109469 -1.25237e-21)
(0.2428 -0.407742 -7.11125e-21)
(0.221011 -0.370879 -6.91937e-21)
(0.20363 -0.339131 -7.37712e-21)
(0.189947 -0.311907 -6.02815e-21)
(0.179556 -0.28857 1.86189e-20)
(0.172143 -0.268536 2.89494e-21)
(0.167396 -0.251319 8.88367e-21)
(0.165026 -0.23651 1.44095e-20)
(0.164771 -0.223757 7.51543e-21)
(0.166394 -0.212761 -9.98256e-21)
(0.169682 -0.203265 1.75964e-20)
(0.174442 -0.19505 -1.75184e-20)
(0.180502 -0.187927 1.74854e-20)
(0.18771 -0.18173 2.23612e-21)
(0.195929 -0.176317 4.85553e-21)
(0.205035 -0.171561 1.52896e-21)
(0.214922 -0.167348 2.15835e-20)
(0.225492 -0.163575 -3.26216e-21)
(0.236659 -0.160142 3.12183e-21)
(0.248345 -0.156955 1.11135e-20)
(0.260478 -0.153918 -1.26318e-20)
(0.272988 -0.150931 1.05989e-20)
(0.285807 -0.14789 4.86667e-22)
(0.298864 -0.14468 5.14158e-21)
(0.312081 -0.141177 9.78892e-21)
(0.325358 -0.137254 -1.71054e-21)
(0.338572 -0.132779 1.03595e-20)
(0.351691 -0.127552 1.57039e-20)
(0.364838 -0.121257 -1.70332e-20)
(0.37699 -0.114228 -1.22949e-20)
(0.25351 -0.401429 2.14966e-20)
(0.231219 -0.365613 -2.5024e-21)
(0.213681 -0.334846 5.66017e-21)
(0.200113 -0.308539 1.11757e-20)
(0.190056 -0.28605 -3.37356e-20)
(0.183158 -0.26679 3.82736e-21)
(0.179071 -0.250274 -1.43858e-20)
(0.17748 -0.236092 1.52338e-20)
(0.178097 -0.223896 -1.24516e-20)
(0.180666 -0.213389 7.4957e-21)
(0.184957 -0.204322 -2.7396e-20)
(0.190763 -0.196478 3.62027e-22)
(0.1979 -0.189675 -1.03937e-20)
(0.206204 -0.183754 1.57092e-20)
(0.215531 -0.178578 -1.74261e-20)
(0.225749 -0.174029 -9.99955e-22)
(0.236747 -0.17 -1.56161e-20)
(0.248421 -0.166394 -1.44859e-21)
(0.260684 -0.163123 1.49367e-21)
(0.273455 -0.1601 4.08971e-21)
(0.286664 -0.157235 -2.26257e-20)
(0.300243 -0.154436 -8.06985e-22)
(0.314128 -0.151601 -1.36066e-20)
(0.328253 -0.148614 -3.31395e-21)
(0.342543 -0.145346 -9.02135e-21)
(0.356901 -0.141656 -1.02447e-20)
(0.371203 -0.137391 -1.11906e-20)
(0.385415 -0.132315 1.82363e-20)
(0.399664 -0.126048 5.04139e-21)
(0.412837 -0.118951 -1.17909e-20)
(0.264094 -0.39489 -1.43536e-20)
(0.241419 -0.360223 5.7507e-21)
(0.223841 -0.330512 -1.06701e-20)
(0.210504 -0.305178 1.65095e-21)
(0.200896 -0.283577 1.95694e-20)
(0.194622 -0.265116 -1.02421e-20)
(0.191302 -0.249312 -1.17098e-20)
(0.19059 -0.235759 -1.0229e-20)
(0.192175 -0.224111 3.84912e-22)
(0.195781 -0.214079 7.10781e-21)
(0.201162 -0.205416 -5.67315e-21)
(0.208095 -0.197913 -2.90947e-23)
(0.216385 -0.191394 1.90385e-20)
(0.225856 -0.185705 -9.87429e-21)
(0.236356 -0.180719 2.95004e-21)
(0.247745 -0.176323 -8.93189e-21)
(0.259904 -0.172419 3.41926e-21)
(0.272727 -0.168922 7.90795e-21)
(0.28612 -0.165751 9.57105e-21)
(0.300002 -0.16283 -1.06586e-20)
(0.314302 -0.160082 1.5651e-21)
(0.328956 -0.157423 9.91174e-21)
(0.343904 -0.154762 1.79402e-20)
(0.359088 -0.151985 5.09854e-21)
(0.374441 -0.148963 -1.95228e-20)
(0.389872 -0.145544 2.35869e-20)
(0.405261 -0.141556 -1.19485e-20)
(0.420577 -0.136719 -1.48719e-20)
(0.435952 -0.130582 -9.42448e-21)
(0.450181 -0.123522 -1.52066e-20)
(0.274552 -0.38813 7.88432e-21)
(0.25162 -0.354712 -6.8028e-21)
(0.234131 -0.32613 2.51782e-21)
(0.221148 -0.301821 1.53581e-20)
(0.212108 -0.281142 4.43973e-21)
(0.206572 -0.263501 -4.0561e-21)
(0.204126 -0.248418 1.00253e-20)
(0.204396 -0.235491 2.08654e-21)
(0.207047 -0.224381 1.05874e-20)
(0.211783 -0.214804 6.11694e-21)
(0.218339 -0.206519 1.66584e-22)
(0.226482 -0.199324 4.25472e-21)
(0.236001 -0.193048 -1.41313e-21)
(0.246712 -0.187546 2.578e-21)
(0.25845 -0.182696 7.54138e-21)
(0.27107 -0.178393 -4.37279e-21)
(0.284443 -0.17455 1.12366e-20)
(0.298458 -0.171089 1.19654e-20)
(0.313017 -0.167942 -1.41879e-20)
(0.328035 -0.165046 1.47578e-20)
(0.34344 -0.162337 3.30896e-20)
(0.359171 -0.159749 -2.19682e-20)
(0.375171 -0.157201 2.3022e-20)
(0.391392 -0.154597 -1.64145e-20)
(0.40778 -0.15181 -2.45614e-21)
(0.424257 -0.148688 1.89938e-20)
(0.440712 -0.145043 -3.76534e-21)
(0.457126 -0.14055 1.51313e-20)
(0.473644 -0.134671 1.55554e-20)
(0.488962 -0.127787 -3.45265e-20)
(0.284883 -0.381152 -7.71917e-21)
(0.261834 -0.349079 3.69456e-21)
(0.244569 -0.321696 1.75468e-21)
(0.232072 -0.29846 -1.82349e-20)
(0.223722 -0.278734 -1.01276e-20)
(0.219041 -0.261929 8.00467e-21)
(0.21758 -0.247572 -2.3484e-20)
(0.218935 -0.235266 2.97621e-20)
(0.222749 -0.224681 -1.74361e-20)
(0.228707 -0.215537 2.17543e-21)
(0.236527 -0.207603 -3.30284e-21)
(0.24596 -0.20068 -1.17015e-20)
(0.256785 -0.194606 2.48271e-20)
(0.268807 -0.189241 1.0126e-20)
(0.28185 -0.184471 -1.04496e-20)
(0.295761 -0.180199 2.65135e-22)
(0.310404 -0.176345 6.44752e-21)
(0.325659 -0.17284 -1.46578e-20)
(0.341423 -0.16963 3.06654e-21)
(0.357606 -0.166663 1.08694e-20)
(0.374132 -0.163893 -4.5797e-21)
(0.390941 -0.161274 8.21546e-21)
(0.407979 -0.158747 -1.63986e-20)
(0.425207 -0.156237 2.45102e-20)
(0.442586 -0.153638 6.18308e-21)
(0.460057 -0.150809 -1.62775e-20)
(0.47753 -0.147559 -1.48041e-20)
(0.495013 -0.143519 -3.02594e-22)
(0.512675 -0.138054 2.09566e-20)
(0.529115 -0.131523 -6.16684e-21)
(0.295087 -0.37396 -2.18646e-21)
(0.272072 -0.343326 -1.71119e-20)
(0.255177 -0.317206 2.09604e-20)
(0.243301 -0.295085 1.50354e-20)
(0.235768 -0.276337 1.60247e-20)
(0.23206 -0.260382 4.95169e-21)
(0.231694 -0.246751 7.42917e-21)
(0.234238 -0.235059 4.02192e-21)
(0.239313 -0.224982 -1.66627e-20)
(0.246583 -0.21625 3.1393e-20)
(0.255752 -0.208635 -2.71173e-20)
(0.266556 -0.20195 -2.18677e-21)
(0.278762 -0.196036 4.03955e-21)
(0.292165 -0.190761 -2.0239e-20)
(0.306579 -0.186016 1.80952e-20)
(0.321844 -0.181711 -5.52291e-21)
(0.337814 -0.177773 -1.50636e-20)
(0.354362 -0.174141 6.24264e-21)
(0.371377 -0.17077 -1.19818e-20)
(0.388762 -0.167623 -1.10512e-20)
(0.406436 -0.16467 -1.24036e-20)
(0.424332 -0.161886 2.88658e-21)
(0.442401 -0.159241 1.9331e-21)
(0.460605 -0.156693 -3.31617e-20)
(0.478922 -0.154173 -1.32769e-20)
(0.497315 -0.151572 8.33989e-21)
(0.515729 -0.148722 1.09261e-20)
(0.534216 -0.14523 -1.53641e-20)
(0.553001 -0.140353 -6.11215e-21)
(0.570592 -0.134399 1.10405e-21)
(0.305165 -0.366556 -1.62439e-21)
(0.28235 -0.33745 1.10611e-20)
(0.265977 -0.312649 -3.20086e-21)
(0.25486 -0.29168 -4.02282e-21)
(0.248273 -0.273932 -2.50926e-20)
(0.245656 -0.258835 -6.03686e-21)
(0.246495 -0.24593 1.15321e-20)
(0.250331 -0.234841 -8.10571e-21)
(0.256762 -0.225255 -1.00386e-21)
(0.265433 -0.216909 -1.66492e-21)
(0.276033 -0.209586 1.03663e-20)
(0.288284 -0.203104 -1.67196e-20)
(0.301944 -0.19731 -1.18033e-20)
(0.316795 -0.19208 1.44628e-20)
(0.332646 -0.187309 -8.64645e-21)
(0.349326 -0.182912 -1.09586e-20)
(0.366683 -0.178821 2.39318e-20)
(0.384581 -0.174982 -3.82869e-21)
(0.402902 -0.171354 1.5444e-20)
(0.42154 -0.167911 -1.42854e-20)
(0.440406 -0.164637 -1.21724e-20)
(0.459424 -0.161526 1.08521e-20)
(0.478538 -0.158578 -1.11002e-21)
(0.497711 -0.15579 -8.62009e-21)
(0.516925 -0.153147 7.81336e-21)
(0.536168 -0.150605 -2.51771e-20)
(0.555421 -0.148061 1.54559e-20)
(0.57481 -0.145151 -2.73965e-22)
(0.594674 -0.141044 -1.70219e-20)
(0.613452 -0.135953 2.77479e-20)
(0.315126 -0.358943 8.04712e-21)
(0.292686 -0.331445 -2.16469e-20)
(0.276989 -0.308013 -2.04085e-21)
(0.266771 -0.288226 1.13859e-20)
(0.261257 -0.271495 -3.13869e-21)
(0.259851 -0.25726 -9.31245e-21)
(0.262004 -0.245076 4.50818e-21)
(0.267233 -0.234578 5.55581e-21)
(0.275111 -0.225463 5.20061e-22)
(0.285269 -0.21748 7.4288e-21)
(0.297377 -0.21042 2.49724e-20)
(0.311148 -0.204108 -8.78546e-21)
(0.326327 -0.1984 2.58934e-21)
(0.34269 -0.193175 -6.90805e-21)
(0.360037 -0.188335 2.6416e-20)
(0.378191 -0.183797 -5.02036e-21)
(0.396993 -0.179497 1.71013e-20)
(0.416303 -0.175381 -6.96058e-21)
(0.435993 -0.171414 7.72174e-21)
(0.455952 -0.16757 1.21237e-20)
(0.47608 -0.16384 2.22452e-21)
(0.496291 -0.160228 8.73767e-21)
(0.516514 -0.156756 -7.4976e-21)
(0.536701 -0.153457 2.11611e-20)
(0.556829 -0.150375 -8.86581e-21)
(0.576889 -0.147559 3.33972e-20)
(0.596892 -0.145035 -9.68913e-21)
(0.617053 -0.142575 6.84362e-21)
(0.637919 -0.139336 -1.31915e-20)
(0.657961 -0.135395 2.63986e-20)
(0.325 -0.351128 -1.74386e-20)
(0.303109 -0.3253 6.00611e-22)
(0.288236 -0.303275 -1.23053e-20)
(0.279053 -0.284696 2.33947e-21)
(0.27474 -0.268996 7.02002e-22)
(0.27466 -0.255626 -1.25261e-20)
(0.278236 -0.244155 -2.46097e-20)
(0.284954 -0.234233 1.27946e-20)
(0.294368 -0.225569 -1.86814e-20)
(0.306091 -0.217924 -1.04759e-20)
(0.319779 -0.211099 -6.30981e-21)
(0.335133 -0.204928 -5.39699e-21)
(0.35189 -0.199274 2.89776e-22)
(0.369819 -0.194024 -2.01753e-20)
(0.388713 -0.189081 1.42974e-20)
(0.408392 -0.184368 -2.36751e-20)
(0.428693 -0.17982 -6.33062e-21)
(0.449472 -0.175385 7.0338e-21)
(0.470599 -0.171023 9.18548e-21)
(0.491959 -0.166706 9.60135e-21)
(0.513446 -0.162417 7.64258e-21)
(0.534964 -0.158156 -1.95443e-20)
(0.55643 -0.153944 2.03178e-20)
(0.577773 -0.149822 -2.14866e-21)
(0.598942 -0.145865 -5.72016e-21)