/*--------------------------------*- C++ -*----------------------------------*\
  =========                 |
  \\      /  F ield         | OpenFOAM: The Open Source CFD Toolbox
   \\    /   O peration     | Website:  https://openfoam.org
    \\  /    A nd           | Version:  6.0
     \\/     M anipulation  |
\*---------------------------------------------------------------------------*/
FoamFile
{
    version     2.0;
    format      ascii;
    class       surfaceScalarField;
    location    "0.75";
    object      phi;
}
// * * * * * * * * * * * * * * * * * * * * * * * * * * * * * * * * * * * * * //

dimensions      [0 3 -1 0 0 0 0];

internalField   nonuniform List<scalar> 
4670
(
7.00191e-05
-0.431593
0.431523
0.000492226
-0.360113
0.35969
0.000967838
-0.297522
0.297046
0.00145713
-0.243153
0.242664
0.00206046
-0.197982
0.197378
0.00290845
-0.160963
0.160115
0.00411894
-0.130798
0.129588
0.00577162
-0.106266
0.104614
0.00789719
-0.0862981
0.0841726
-0.0700155
0.067432
0.0104807
0.000111623
-0.431705
0.000539525
-0.36054
0.00102387
-0.298006
0.00150588
-0.243635
0.00208291
-0.198559
0.00289522
-0.161775
0.0040684
-0.131971
0.00568744
-0.107885
0.00778754
-0.0883982
-0.0725863
0.0103583
0.000211045
-0.431916
0.000649705
-0.360979
0.00111558
-0.298472
0.00157243
-0.244092
0.00211971
-0.199106
0.00290179
-0.162557
0.00405
-0.13312
0.00565506
-0.10949
0.00775749
-0.0905006
-0.0751803
0.0103515
0.000237137
-0.432153
0.000718781
-0.361461
0.00119237
-0.298946
0.0016307
-0.244531
0.00214889
-0.199624
0.00290166
-0.16331
0.00402829
-0.134246
0.00562698
-0.111089
0.00774505
-0.0926187
-0.0778166
0.0103813
0.000277466
-0.432431
0.000788061
-0.361971
0.00125815
-0.299416
0.00166988
-0.244942
0.00215113
-0.200106
0.0028663
-0.164025
0.00396232
-0.135342
0.00554569
-0.112672
0.00767208
-0.0947451
-0.0804898
0.0103453
0.000319661
-0.43275
0.000851583
-0.362503
0.00130633
-0.29987
0.00167894
-0.245315
0.0021096
-0.200536
0.00277063
-0.164686
0.00381465
-0.136386
0.00535591
-0.114214
0.00746057
-0.0968498
-0.0831686
0.0101394
0.000362006
-0.433112
0.000905967
-0.363047
0.00133132
-0.300296
0.00164943
-0.245633
0.00201215
-0.200899
0.00259722
-0.165271
0.00355918
-0.137348
0.00501722
-0.115672
0.00705091
-0.0988834
-0.0858024
0.00968466
0.000406992
-0.433519
0.000954864
-0.363595
0.00133446
-0.300675
0.00157902
-0.245878
0.00185354
-0.201173
0.00233835
-0.165756
0.00318413
-0.138194
0.00450825
-0.116996
0.00640268
-0.100778
-0.0883152
0.00891547
0.000467674
-0.433987
0.00101015
-0.364138
0.00132203
-0.300987
0.00147144
-0.246027
0.00163835
-0.20134
0.00200106
-0.166119
0.00269691
-0.13889
0.00382559
-0.118125
0.00547969
-0.102432
-0.0906038
0.00776827
0.000593228
-0.43458
0.00108441
-0.364629
0.00129885
-0.301202
0.00133563
-0.246064
0.00138572
-0.20139
0.00162323
-0.166356
0.00216326
-0.13943
0.00306346
-0.119025
0.00437647
-0.103745
-0.092568
0.00634068
0.437943
0.000263908
-0.438207
0.43768
0.000262936
0.437356
0.000324651
0.436984
0.000371568
0.436579
0.000404914
0.436153
0.000425899
0.435725
0.000428077
0.435285
0.000440503
0.434901
0.000383837
0.000320725
0.365822
-0.000267802
-0.365291
0.366174
-8.89027e-05
0.366348
0.000150905
0.366377
0.000342838
0.36629
0.000491583
0.366102
0.000613936
0.365827
0.000702943
0.36549
0.000777738
0.365085
0.000788452
0.000777311
0.298271
-0.00148319
-0.297055
0.299246
-0.0010646
0.300034
-0.000637001
0.300643
-0.000265576
0.301078
5.64911e-05
0.301357
0.00033477
0.301493
0.000566739
0.301511
0.000759502
0.30141
0.000889881
0.000985401
0.240527
-0.00306911
-0.238941
0.241879
-0.00241631
0.243027
-0.00178498
0.243971
-0.00120952
0.244719
-0.000691867
0.245284
-0.000229572
0.245681
0.000169426
0.245941
0.000499683
0.246061
0.000769488
0.000982825
0.195631
-0.00473564
-0.193964
0.197056
-0.00384169
0.198257
-0.00298555
0.199237
-0.00218996
0.200008
-0.00146311
0.200589
-0.000810193
0.201
-0.000241399
0.201257
0.000242829
0.201381
0.000645446
0.000973116
0.162383
-0.0062516
-0.160867
0.16364
-0.005099
0.164653
-0.00399804
0.165432
-0.00296879
0.165993
-0.00202491
0.166361
-0.00117738
0.166555
-0.000436302
0.166603
0.000195414
0.166529
0.000719586
0.00114558
0.13848
-0.00747448
-0.137258
0.139424
-0.00604277
0.140105
-0.00467839
0.140539
-0.00340288
0.140748
-0.00223471
0.14076
-0.00118893
0.140601
-0.000277795
0.140303
0.000493786
0.139901
0.00112136
0.00161701
0.121559
-0.00835022
-0.120683
0.122136
-0.00661983
0.122433
-0.00497543
0.122472
-0.00344189
0.122279
-0.00204193
0.121885
-0.00079445
0.121323
0.000284046
0.120631
0.00118595
0.119853
0.00189899
0.00244554
0.109592
-0.00889315
-0.109049
0.10982
-0.00684806
0.109755
-0.00491059
0.109423
-0.00310977
0.108853
-0.00147226
0.10808
-2.14629e-05
0.107142
0.00122183
0.106087
0.00224106
0.104968
0.00301828
0.00366856
0.101024
-0.10076
-0.00915764
0.100965
-0.00678859
0.100606
-0.00455175
0.0999768
-0.00248048
0.0991099
-0.000605295
0.0980417
0.00104675
0.0968123
0.00245123
0.0954765
0.00357677
0.0940812
0.00441362
0.00518181
0.435235
-0.000573475
-0.434661
0.435951
-0.000716014
0.436597
-0.000646383
0.437091
-0.000494059
0.4375
-0.000408682
0.437818
-0.000318108
0.438039
-0.000221258
0.438167
-0.000128292
0.438232
-6.44135e-05
2.46134e-05
0.353446
-0.0025692
-0.351451
0.355286
-0.00255553
0.357019
-0.00237912
0.358665
-0.00214062
0.360172
-0.00191502
0.361527
-0.00167342
0.362724
-0.00141843
0.363763
-0.00116692
0.364612
-0.000914027
-0.000653824
0.278251
-0.00533897
-0.275481
0.280883
-0.00518748
0.283426
-0.00492202
0.285877
-0.00459132
0.288186
-0.00422408
0.290333
-0.00382113
0.292307
-0.0033916
0.294089
-0.00294901
0.295665
-0.00249036
-0.00204399
0.215762
-0.00863427
-0.212467
0.218958
-0.00838392
0.222054
-0.00801767
0.225024
-0.0075617
0.227837
-0.00703655
0.23047
-0.00645464
0.232909
-0.00582973
0.235135
-0.00517578
0.237147
-0.00450232
-0.003838
0.168682
-0.0123365
-0.16498
0.17227
-0.0119719
0.175712
-0.0114604
0.178982
-0.0108309
0.182053
-0.0101084
0.18491
-0.00931078
0.187536
-0.00845636
0.189923
-0.00756298
0.192068
-0.00664736
-0.00573379
0.135357
-0.0163036
-0.13139
0.139166
-0.0157809
0.142771
-0.0150649
0.146145
-0.0142052
0.149271
-0.0132343
0.152136
-0.0121756
0.154731
-0.0110516
0.157052
-0.00988408
0.159098
-0.00869339
-0.00750274
0.112837
-0.0203968
-0.108743
0.11672
-0.0196639
0.120335
-0.0186805
0.123664
-0.0175337
0.126694
-0.0162649
0.129421
-0.0149019
0.13184
-0.0134705
0.133951
-0.0119951
0.135756
-0.0104983
-0.00900473
0.0980505
-0.0245394
-0.0939079
0.101905
-0.0235189
0.105431
-0.0222057
0.10862
-0.0207231
0.111471
-0.0191163
0.113984
-0.0174148
0.116159
-0.0156453
0.117998
-0.0138336
0.119504
-0.0120044
-0.0101844
0.0884317
-0.0287016
-0.0842694
0.0921716
-0.0272588
0.0955437
-0.0255778
0.0985508
-0.0237301
0.101195
-0.0217606
0.103478
-0.0196982
0.105402
-0.0175691
0.106968
-0.0153998
0.108181
-0.0132174
-0.0110516
0.0820266
-0.0782297
-0.0324986
0.0856166
-0.0308488
0.0888133
-0.0287745
0.0916373
-0.0265541
0.0940881
-0.0242114
0.0961648
-0.0217749
0.097867
-0.0192714
0.0991965
-0.0167292
0.100158
-0.0141788
-0.0116537
0.0262731
0.0332031
-0.0277408
-0.0317355
0.0209732
0.0395965
-0.0342966
0.0160573
0.0502692
-0.0453533
0.0117746
0.0675834
-0.0633008
0.00832438
0.0943497
-0.0908995
0.00574909
0.133275
-0.1307
0.00385839
0.186268
-0.184377
0.00229011
0.253926
-0.252358
0.000875997
0.334303
-0.332889
0.425631
-0.424755
0.0279273
0.0386676
-0.0333918
0.0225823
0.0449415
0.0175569
0.0552946
0.013086
0.0720543
0.00937406
0.0980616
0.00649555
0.136154
0.00431371
0.18845
0.00252295
0.255717
0.000927224
0.335898
0.426558
0.0292856
0.0441005
-0.0347185
0.0239342
0.0502929
0.0188437
0.0603852
0.0142324
0.0766656
0.010305
0.101989
0.00716176
0.139297
0.00471491
0.190896
0.00272148
0.25771
0.0010018
0.337618
0.42756
0.0303391
0.0494721
-0.0357107
0.0250172
0.0556148
0.0199039
0.0654984
0.0151992
0.0813703
0.0111029
0.106085
0.00773449
0.142665
0.00504921
0.193582
0.00285559
0.259904
0.00104697
0.339427
0.428607
0.0310771
0.054756
-0.036361
0.0258189
0.0608731
0.0207246
0.0705926
0.0159736
0.0861213
0.011757
0.110302
0.00820819
0.146214
0.00532093
0.196469
0.00295281
0.262272
0.00104807
0.341331
0.429655
0.0314826
0.0599259
-0.0366525
0.0263241
0.0660316
0.0212927
0.075624
0.0165442
0.0908699
0.0122572
0.114589
0.00857518
0.149896
0.00552829
0.199516
0.00302178
0.264779
0.0010412
0.343312
0.430696
0.0315266
0.0649481
-0.0365488
0.0265129
0.0710453
0.0215953
0.0805416
0.016902
0.0955631
0.0125973
0.118894
0.00882939
0.153664
0.00566149
0.202684
0.00305054
0.26739
0.00101902
0.345344
0.431715
0.031165
0.0697578
-0.0359747
0.0263625
0.0758478
0.0216232
0.085281
0.0170437
0.100143
0.0127761
0.123161
0.00897594
0.157464
0.00573334
0.205926
0.00305185
0.270071
0.000992765
0.347403
0.432708
0.0303479
0.0742291
-0.0348191
0.0258638
0.0803318
0.0213862
0.0897586
0.0169784
0.10455
0.0127974
0.127342
0.0090122
0.161249
0.00574469
0.209194
0.00305038
0.272765
0.00102079
0.349432
0.433729
0.0289972
-0.0329978
0.0250596
0.0209103
0.0167172
0.0126696
0.00893936
0.00566655
0.00295074
0.000932269
-0.00188189
-0.0154192
0.0198185
-0.00251744
-0.00462963
-0.00460116
0.0073489
-0.00594362
0.0136396
-0.0123256
-0.00592172
0.0409045
-0.0409264
-0.00483309
0.0783126
-0.0794012
-0.00317222
0.126074
-0.127735
-0.00152642
0.183741
-0.185386
-0.000373493
0.251146
-0.252299
6.43097e-05
0.328361
-0.328798
0.419036
-0.418972
0.00140899
-0.0113249
-0.00550327
-0.0017337
-0.00145847
-0.00362703
0.015533
-0.00419303
0.0414705
-0.00361687
0.0777364
-0.00235337
0.12481
-0.000992708
0.18238
-4.58332e-05
0.250199
0.000234954
0.32808
0.419271
0.00470887
-0.00715495
-0.00887879
0.0012157
0.0020347
-0.00119419
0.0179429
-0.0023335
0.0426098
-0.00229468
0.0776976
-0.00146876
0.123984
-0.000432438
0.181344
0.000271613
0.249495
0.000358432
0.327993
0.41963
0.00792859
-0.00277016
-0.0123134
0.00410739
0.00585591
0.00124216
0.0208081
-0.00042775
0.0442798
-0.000917112
0.0781869
-0.000546196
0.123613
0.000136599
0.180661
0.000577778
0.249054
0.000467157
0.328104
0.420097
0.0110679
0.00185508
-0.0156932
0.00693241
0.00999143
0.00365138
0.0240891
0.00148827
0.0464429
0.000487919
0.0791873
0.000397417
0.123704
0.000711719
0.180347
0.000876114
0.24889
0.000565942
0.328414
0.420663
0.0140962
0.00670927
-0.0189504
0.00966891
0.0144187
0.006008
0.02775
0.00338793
0.0490629
0.00189909
0.0806761
0.00135066
0.124252
0.00128717
0.18041
0.00116676
0.24901
0.00065426
0.328926
0.421317
0.0169734
0.0117639
-0.022028
0.0122876
0.0191045
0.00828588
0.0317517
0.00524688
0.0521019
0.00329691
0.0826261
0.00230278
0.125246
0.00185747
0.180855
0.00144336
0.249424
0.000732862
0.329637
0.42205
0.0196616
0.0169817
-0.0248793
0.0147572
0.0240089
0.0104582
0.0360508
0.0070417
0.0555184
0.00466253
0.0850053
0.00323984
0.126669
0.00242252
0.181673
0.00171705
0.25013
0.00080754
0.330546
0.422857
0.0221272
0.0223214
-0.0274669
0.0170481
0.0290879
0.012498
0.0406008
0.00874911
0.0592673
0.0059776
0.0877768
0.0041504
0.128496
0.00297127
0.182852
0.00199326
0.251108
0.000898324
0.331641
0.423756
0.0243429
-0.0297623
0.0191343
0.0143818
0.0103483
0.00722563
0.00502226
0.003497
0.00224667
0.000999354
0.0243842
-0.00424073
-0.000324939
0.0275704
-0.00731436
0.00412817
0.0297202
-0.0111358
0.00898587
0.0309975
-0.0150855
0.0138083
0.0314289
-0.0187687
0.0183372
0.0310217
-0.0220135
0.0224208
0.0297883
-0.0247242
0.0259576
0.0277612
-0.0268506
0.0288777
0.0249957
-0.0283821
0.0311476
-0.0293392
0.0215674
0.0327674
0.00997638
-0.0068682
0.0119456
-0.0092836
0.0130096
-0.0121998
0.0131417
-0.0152176
0.0123816
-0.0180086
0.010776
-0.020408
0.00838429
-0.0223325
0.00528402
-0.0237503
0.00156885
-0.0246669
-0.0251138
-0.00265651
-0.0113605
-0.00783336
-0.0108993
-0.00974472
-0.0112053
-0.0118938
-0.0123572
-0.0140657
-0.014324
-0.0160418
-0.0170354
-0.0176966
-0.0203992
-0.0189686
-0.0243094
-0.0198402
-0.0286526
-0.0203237
-0.0204508
-0.0333156
-0.0413968
-0.00736302
-0.042337
-0.0088045
-0.0439092
-0.0103216
-0.0461682
-0.0118068
-0.0490755
-0.0131344
-0.0525487
-0.0142234
-0.0564841
-0.0150332
-0.0607707
-0.0155536
-0.0652991
-0.0157953
-0.0157826
-0.0699673
-0.0809324
-0.00583184
-0.0828714
-0.00686545
-0.0852909
-0.00790204
-0.0882056
-0.00889214
-0.0915689
-0.0097711
-0.0953016
-0.0104907
-0.0993101
-0.0110246
-0.103499
-0.0113643
-0.10778
-0.0115148
-0.0114908
-0.112072
-0.129776
-0.00379079
-0.132131
-0.00451058
-0.134817
-0.00521528
-0.137827
-0.00588283
-0.141115
-0.00648286
-0.14462
-0.00698585
-0.14827
-0.00737402
-0.151996
-0.0076391
-0.155728
-0.00778213
-0.00780954
-0.159409
-0.187349
-0.00182817
-0.189541
-0.00231847
-0.191959
-0.00279778
-0.194589
-0.00325265
-0.197399
-0.00367275
-0.200347
-0.00403791
-0.203383
-0.00433782
-0.206457
-0.00456542
-0.209517
-0.00472211
-0.00480937
-0.212517
-0.253728
-0.000399142
-0.255337
-0.000709195
-0.257122
-0.00101329
-0.259079
-0.00129552
-0.261186
-0.00156555
-0.263416
-0.00180789
-0.265734
-0.00202052
-0.268101
-0.00219789
-0.270478
-0.00234562
-0.00246782
-0.272819
-0.329409
0.000211397
-0.330186
6.77461e-05
-0.331125
-7.41814e-05
-0.332234
-0.000186742
-0.333496
-0.000303273
-0.334894
-0.000410236
-0.336403
-0.000511675
-0.337998
-0.000602873
-0.339652
-0.000691484
-0.000800279
-0.341319
-0.41876
-0.418693
-0.418767
-0.418954
-0.419257
-0.419667
-0.420179
-0.420782
-0.421473
-0.422273
0.0175621
-0.0297696
0.0337749
0.013087
-0.0297426
0.0342177
0.00824357
-0.0293482
0.0341916
0.00312347
-0.0286963
0.0338164
-0.00220671
-0.0279147
0.0332449
-0.00772904
-0.0271442
0.0326665
-0.0135217
-0.0265024
0.0322951
-0.0198094
-0.0259581
0.0322458
-0.0268913
-0.0249631
0.032045
-0.0217124
-0.0353072
0.0301283
-0.00729175
-0.0251343
-0.0122193
-0.0248151
-0.0173424
-0.024225
-0.0225848
-0.0234539
-0.0279046
-0.0225949
-0.0333147
-0.0217341
-0.0389077
-0.0209094
-0.044849
-0.0200169
-0.0511853
-0.0186268
-0.0158028
-0.0570948
-0.0382052
-0.0202448
-0.0432103
-0.0198099
-0.0482525
-0.0191829
-0.0532773
-0.0184291
-0.0582636
-0.0176086
-0.0632293
-0.0167685
-0.0682305
-0.0159082
-0.0733152
-0.0149321
-0.078362
-0.0135799
-0.0114597
-0.0827052
-0.0747058
-0.0155063
-0.0794201
-0.0150957
-0.0840539
-0.014549
-0.0885741
-0.0139089
-0.0929694
-0.0132133
-0.0972504
-0.0124876
-0.101437
-0.0117211
-0.105519
-0.0108508
-0.10936
-0.00973826
-0.00824662
-0.112573
-0.116335
-0.0112431
-0.120491
-0.0109395
-0.124504
-0.0105358
-0.128354
-0.0100596
-0.132032
-0.00953523
-0.135544
-0.00897514
-0.138893
-0.00837258
-0.142053
-0.00769067
-0.14493
-0.00686063
-0.0058522
-0.147325
-0.163026
-0.00762619
-0.166511
-0.00745493
-0.169838
-0.00720921
-0.172993
-0.0069043
-0.175973
-0.00655518
-0.178778
-0.00617005
-0.181403
-0.00574772
-0.183829
-0.0052644
-0.185997
-0.00469248
-0.00404313
-0.187806
-0.215468
-0.00467559
-0.218301
-0.0046212
-0.220997
-0.00451317
-0.223545
-0.00435688
-0.225938
-0.00416206
-0.228174
-0.00393376
-0.230246
-0.00367592
-0.232137
-0.00337314
-0.233809
-0.00302037
-0.00264776
-0.235205
-0.275152
-0.002343
-0.277405
-0.00236831
-0.279558
-0.00235962
-0.281605
-0.00231028
-0.28353
-0.00223639
-0.285333
-0.00213082
-0.286994
-0.00201568
-0.288507
-0.00186013
-0.289839
-0.00168836
-0.00154757
-0.290939
-0.342981
-0.000681708
-0.34462
-0.000729447
-0.346215
-0.000763837
-0.34776
-0.000766075
-0.349236
-0.000759888
-0.350626
-0.000740548
-0.351921
-0.000720976
-0.353115
-0.000665817
-0.354168
-0.00063592
-0.000666298
-0.355049
-0.422955
-0.423685
-0.424448
-0.425215
-0.425974
-0.426715
-0.427436
-0.428102
-0.428738
-0.429404
0.000307349
-0.429711
0.00105008
-0.355792
0.00203912
-0.291928
0.00324483
-0.23641
0.00473757
-0.189299
0.00659942
-0.149187
0.00889001
-0.114864
0.0116507
-0.0854659
0.0149357
-0.0603798
-0.0390244
0.0186529
0.000273122
-0.429984
0.000898042
-0.356417
0.00173293
-0.292763
0.00275794
-0.237435
0.004037
-0.190578
0.00565372
-0.150803
0.00766954
-0.11688
0.0101159
-0.0879123
0.013028
-0.0632918
-0.0426114
0.0166149
0.000251436
-0.430236
0.000780484
-0.356946
0.00149265
-0.293475
0.00238027
-0.238323
0.00351288
-0.191711
0.00499141
-0.152282
0.00690813
-0.118797
0.00932563
-0.0903298
0.0122783
-0.0662444
-0.046122
0.0157889
0.00020237
-0.430438
0.00067167
-0.357415
0.00130505
-0.294108
0.00209791
-0.239116
0.00312891
-0.192742
0.00451165
-0.153665
0.0063545
-0.120639
0.00873204
-0.0927073
0.0116684
-0.0691808
-0.0495841
0.0151305
0.000169759
-0.430608
0.000593243
-0.357838
0.00116802
-0.294683
0.00188705
-0.239835
0.00283362
-0.193688
0.00412761
-0.154959
0.00588315
-0.122395
0.00817735
-0.0950015
0.0110284
-0.0720319
-0.0529428
0.0143871
0.000140148
-0.430748
0.000533094
-0.358231
0.00106823
-0.295218
0.00172914
-0.240496
0.00259993
-0.194559
0.00380295
-0.156162
0.00545349
-0.124046
0.0076288
-0.0971769
0.0103465
-0.0747496
-0.0561527
0.0135564
0.00012256
-0.430871
0.000497333
-0.358606
0.00100419
-0.295725
0.0016165
-0.241108
0.0024166
-0.195359
0.00352766
-0.157273
0.00506477
-0.125583
0.00710463
-0.0992167
0.00966658
-0.0773116
-0.0591927
0.0127066
0.000112948
-0.430984
0.000484769
-0.358978
0.000973973
-0.296214
0.00154589
-0.24168
0.0022812
-0.196094
0.00330454
-0.158296
0.00473125
-0.127009
0.00663789
-0.101123
0.0090462
-0.0797199
-0.0620669
0.0119203
0.000216193
-0.4312
0.000564443
-0.359326
0.00100307
-0.296653
0.00152331
-0.2422
0.00219524
-0.196766
0.00313874
-0.15924
0.00446758
-0.128338
0.00625793
-0.102914
0.00853389
-0.0819958
-0.0648002
0.0112673
0.000323512
0.000687508
0.00108091
0.00154466
0.00215673
0.00303188
0.00428146
0.00598136
0.00815809
0.0107899
0.0255815
-0.144416
0.129315
0.0419522
-0.0187599
0.00238926
0.0543279
0.0225472
-0.0349229
0.0624993
0.0304473
-0.0386187
0.0676352
0.0286621
-0.0337981
0.0708234
0.0250172
-0.0282054
0.0727851
0.0215094
-0.0234711
0.0739584
0.0184513
-0.0196246
0.0746086
0.0157945
-0.0164448
0.0749014
0.0134561
-0.0137489
0.0749444
0.0113774
-0.0114204
0.0748089
0.00952195
-0.00938639
0.0745432
0.0078709
-0.00760525
0.07418
0.00641651
-0.00605331
0.0737408
0.00515552
-0.00471629
0.0732397
0.00407697
-0.00357586
0.0726844
0.00317422
-0.00261896
0.0720772
0.00242284
-0.00181557
0.0714208
0.00180452
-0.00114819
0.00114027
-0.000432484
0.0247645
-0.158822
0.0411383
-0.0351338
0.0536688
0.0100167
0.0619803
0.0221358
0.067208
0.0234346
0.0704477
0.0217774
0.0724378
0.0195194
0.0736285
0.0172606
0.0742923
0.0151307
0.0745986
0.0131498
0.074657
0.0113189
0.0745397
0.00963923
0.0742957
0.00811488
0.0739576
0.00675465
0.0735469
0.00556618
0.0730777
0.0045463
0.0725575
0.00369437
0.0719884
0.00299199
0.0713734
0.00241949
0.00180349
0.0238776
-0.172348
0.0400121
-0.0512683
0.0525979
-0.0025691
0.061021
0.0137127
0.0663461
0.0181094
0.0696563
0.0184672
0.0716968
0.0174788
0.0729273
0.0160301
0.0736271
0.0144309
0.0739699
0.0128071
0.0740676
0.0112212
0.0739937
0.00971312
0.073798
0.00831061
0.0735134
0.00703916
0.0731618
0.0059178
0.0727573
0.00495087
0.0723075
0.00414411
0.0718147
0.00348482
0.071282
0.00295216
0.00237827
0.0228678
-0.184835
0.0385598
-0.0669604
0.0511178
-0.015127
0.059629
0.0052015
0.0650579
0.0126805
0.0684565
0.0150686
0.0705688
0.0153666
0.0718608
0.0147381
0.0726185
0.0136732
0.0730201
0.0124055
0.0731803
0.011061
0.0731743
0.00971906
0.0730531
0.00843187
0.0728503
0.00724199
0.0725879
0.00618017
0.0722805
0.00525828
0.0719361
0.00448851
0.0715571
0.00386383
0.0711471
0.00336213
0.00282102
0.021675
-0.196165
0.036775
-0.0820604
0.0492372
-0.0275893
0.0578172
-0.00337852
0.0633562
0.00714151
0.06686
0.0115648
0.0690637
0.0131629
0.0704377
0.0133641
0.071274
0.0128369
0.0717559
0.0119237
0.0720011
0.0108158
0.0720871
0.00963309
0.0720659
0.00845304
0.0719722
0.00733565
0.0718287
0.00632373
0.0716502
0.00543673
0.0714454
0.00469332
0.0712171
0.00409214
0.0709695
0.00360976
0.0030891
0.0202392
-0.206264
0.0346503
-0.0964714
0.0469677
-0.0399068
0.0556038
-0.0120146
0.0612588
0.00148656
0.0648822
0.00794136
0.0671951
0.01085
0.0686697
0.0118895
0.069604
0.0119026
0.0701863
0.0113414
0.0705381
0.010464
0.070739
0.00943218
0.0708427
0.00834935
0.0708849
0.00729345
0.0708889
0.0063197
0.0708704
0.00545521
0.0708386
0.00472516
0.0707969
0.00413379
0.0707503
0.00365637
0.00314094
0.0183894
-0.214969
0.0321082
-0.11019
0.0442946
-0.0520931
0.0529997
-0.0207198
0.0587833
-0.00429698
0.0625409
0.00418375
0.0649788
0.00841218
0.0665707
0.0102976
0.0676206
0.0108527
0.0683222
0.0106398
0.0688008
0.00998536
0.0691387
0.00909433
0.069391
0.00809699
0.0695949
0.00708964
0.0697743
0.00614025
0.0699458
0.00528374
0.0701192
0.00455173
0.070299
0.00395399
0.0704908
0.00346456
0.0029363
0.0157607
-0.221814
0.0289894
-0.123419
0.0411573
-0.0642611
0.0499918
-0.0295542
0.0559362
-0.0102414
0.0598492
0.000270783
0.0624294
0.00583201
0.064155
0.0085719
0.0653372
0.00967053
0.0661759
0.0098011
0.0668006
0.00936065
0.0672963
0.00859864
0.06772
0.00767321
0.0681102
0.00669953
0.0684917
0.00575867
0.068882
0.00489348
0.0692917
0.00414199
0.0697265
0.00351928
0.0701926
0.00299838
0.00243655
0.0128267
-0.226873
0.0255761
-0.136168
0.037647
-0.076332
0.0466145
-0.0385218
0.0527401
-0.016367
0.0568267
-0.0038158
0.0595648
0.00309387
0.0614391
0.00669767
0.0627689
0.00834071
0.0637611
0.00880892
0.0645498
0.00857189
0.0652231
0.00792535
0.0658399
0.00705642
0.0664398
0.00609963
0.067049
0.00514949
0.0676855
0.00425698
0.0683611
0.00346632
0.0690827
0.00279776
0.0698575
0.00222355
0.00160485
0.0120072
-0.232539
0.0230007
-0.147162
0.0342845
-0.0876159
0.0431173
-0.0473545
0.0493233
-0.0225731
0.0535445
-0.008037
0.0564279
0.000210478
0.058451
0.00467459
0.0599359
0.00685574
0.0610937
0.00765115
0.0620619
0.00760369
0.0629308
0.00705644
0.0637609
0.00622629
0.064593
0.00526757
0.0654541
0.00428838
0.0663631
0.003348
0.0673329
0.00249656
0.0683715
0.00175916
0.0694874
0.00110763
0.000406401
0.115778
-0.190529
-0.157788
0.101439
-0.132824
0.100395
-0.0865719
0.104901
-0.0518604
0.110244
-0.0279162
0.114845
-0.0126372
0.118396
-0.00334134
0.120999
0.00207174
0.122852
0.00500248
0.124148
0.00635535
0.125043
0.00670933
0.125653
0.00644634
0.126065
0.00581378
0.126341
0.0049918
0.126524
0.00410535
0.126644
0.00322786
0.126722
0.00241865
0.126771
0.00171058
0.1268
0.00107826
0.00039458
0.141864
-0.15457
-0.177822
0.127296
-0.118256
0.123877
-0.083153
0.126345
-0.0543289
0.130716
-0.0322871
0.135014
-0.0169351
0.138584
-0.00691135
0.141326
-0.000670511
0.143343
0.00298636
0.144786
0.00491223
0.145801
0.00569398
0.146506
0.00574089
0.146992
0.00532772
0.147324
0.0046602
0.147549
0.00388007
0.1477
0.003077
0.1478
0.00231917
0.147864
0.00164658
0.147902
0.00104003
0.000380057
0.174834
-0.122257
-0.207147
0.158947
-0.102369
0.153047
-0.077253
0.15303
-0.0543126
0.155824
-0.0350805
0.159344
-0.0204556
0.162619
-0.0101858
0.165314
-0.00336605
0.167392
0.000908592
0.168932
0.00337198
0.170047
0.00457914
0.170842
0.00494601
0.171403
0.00476654
0.171796
0.00426762
0.172069
0.00360666
0.172256
0.00288971
0.172382
0.00219333
0.172465
0.00156362
0.172515
0.00099058
0.000362033
0.213769
-0.0937356
-0.242291
0.196647
-0.0852465
0.188294
-0.0689003
0.185624
-0.0516421
0.18638
-0.0358363
0.188653
-0.0227289
0.191267
-0.0127998
0.193668
-0.00576725
0.195656
-0.00107941
0.197209
0.00181906
0.198381
0.00340716
0.199248
0.00407926
0.19988
0.00413424
0.200337
0.00381106
0.200664
0.00327953
0.200894
0.00265966
0.201052
0.00203537
0.201158
0.00145751
0.201222
0.000926829
0.000339266
0.257673
-0.0692747
-0.282134
0.240101
-0.0676746
0.229707
-0.0585059
0.224577
-0.0465125
0.223106
-0.0343656
0.223766
-0.0233885
0.225362
-0.0143963
0.227189
-0.00759397
0.228895
-0.00278539
0.230342
0.000372026
0.231506
0.00224378
0.232412
0.00317229
0.233105
0.00344197
0.233625
0.00329051
0.234011
0.00289363
0.234291
0.00237992
0.234488
0.00183845
0.234622
0.00132314
0.234704
0.00084497
0.000310119
0.306076
-0.0490608
-0.32629
0.289237
-0.0508357
0.277542
-0.0468102
0.270378
-0.0393484
0.266743
-0.0307308
0.265569
-0.0222144
0.265836
-0.0146631
0.266797
-0.00855559
0.267996
-0.00398431
0.269184
-0.00081606
0.270246
0.00118174
0.271144
0.00227458
0.271875
0.00271093
0.272455
0.0027108
0.272903
0.00244537
0.27324
0.00204347
0.273483
0.00159501
0.273652
0.00115446
0.273756
0.000740564
0.000272699
0.359536
-0.0328687
-0.375728
0.344349
-0.0356482
0.332226
-0.0346872
0.323577
-0.0306997
0.318026
-0.0251796
0.314967
-0.0191556
0.313682
-0.0133778
0.313513
-0.00838706
0.31397
-0.00444099
0.314722
-0.00156862
0.315567
0.000337101
0.316388
0.00145311
0.317126
0.0019733
0.317754
0.00208261
0.318266
0.00193347
0.318666
0.00164379
0.318964
0.00129718
0.319174
0.000944649
0.319305
0.000608679
0.000224915
0.419407
-0.0200389
-0.432237
0.406216
-0.0224576
0.394365
-0.0228356
0.384783
-0.0211178
0.377653
-0.0180503
0.37281
-0.0143125
0.36988
-0.0104479
0.368395
-0.00690209
0.367911
-0.00395613
0.36806
-0.00171831
0.368568
-0.000170876
0.36924
0.000781231
0.369947
0.00126685
0.370609
0.00142016
0.371184
0.00135842
0.371653
0.00117494
0.372013
0.000937104
0.372271
0.00068658
0.372436
0.000444159
0.000164608
0.487757
-0.00955133
-0.498245
0.476228
-0.0109285
0.464851
-0.0114587
0.454674
-0.010941
0.446263
-0.00963861
0.439821
-0.00787115
0.435298
-0.00592475
0.432448
-0.00405241
0.430929
-0.00243651
0.430379
-0.00116897
0.430474
-0.000265856
0.430947
0.000308548
0.431597
0.000617306
0.432285
0.000732044
0.432925
0.000718543
0.433469
0.000630469
0.433899
0.000507219
0.434212
0.000373471
0.434414
0.000242246
8.98755e-05
0.567282
-0.576833
0.556353
0.544894
0.533953
0.524315
0.516444
0.510519
0.506467
0.50403
0.502861
0.502595
0.502904
0.503521
0.504253
0.504972
0.505602
0.506109
0.506483
0.506725
0.205894
-0.0084836
-0.206568
0.204326
-0.00522004
0.20183
-0.0020564
0.198385
0.000964722
0.193977
0.00380287
0.188603
0.00642105
0.182266
0.00878769
0.174976
0.0108673
0.166742
0.0126472
0.0141361
0.217914
-0.00709758
-0.2193
0.215942
-0.00324814
0.213367
0.000518661
0.210176
0.00415602
0.206361
0.00761786
0.20192
0.0108614
0.196858
0.0138497
0.191176
0.0165492
0.184862
0.0189614
0.0211757
0.235827
-0.00550129
-0.237424
0.233975
-0.00139545
0.231851
0.00264228
0.229437
0.00657038
0.226706
0.0103488
0.223627
0.0139407
0.220162
0.0173139
0.216271
0.0204406
0.21192
0.0233127
0.0259487
0.258401
-0.00396617
-0.259936
0.256875
0.000130813
0.255343
0.00417403
0.253785
0.00812845
0.252174
0.01196
0.250479
0.0156359
0.248667
0.019125
0.246709
0.022399
0.244584
0.0254382
0.0282416
0.285517
-0.00265569
-0.286828
0.284446
0.0012021
0.283604
0.00501609
0.282976
0.00875693
0.282539
0.0123965
0.282267
0.0159077
0.282128
0.0192647
0.282083
0.022444
0.282096
0.025425
0.0282035
0.317969
-0.0016256
-0.318999
0.317374
0.00179645
0.317207
0.00518306
0.317454
0.00851009
0.318097
0.0117543
0.319111
0.0148933
0.32047
0.0179057
0.322142
0.0207718
0.324094
0.0234732
0.0260072
0.356916
-0.000875752
-0.357666
0.356774
0.00193798
0.357234
0.00472359
0.358282
0.00746167
0.359903
0.0101333
0.362076
0.0127205
0.364775
0.0152063
0.367973
0.0175746
0.371635
0.0198112
0.0219134
0.403869
-0.000385715
-0.404359
0.40415
0.00165705
0.405194
0.00367914
0.40699
0.0056662
0.409519
0.00760435
0.412759
0.0094804
0.416683
0.0112818
0.421261
0.0129969
0.426457
0.0146152
0.0161337
0.460891
-0.000121884
-0.461155
0.461561
0.00098655
0.463157
0.00208335
0.465663
0.00316034
0.469058
0.0042096
0.473314
0.00522365
0.478401
0.00619543
0.484279
0.00711826
0.490908
0.00798644
0.00879731
0.531072
-0.531194
0.532059
0.534142
0.537302
0.541512
0.546736
0.552931
0.560049
0.568036
0.179957
-0.0360092
-0.176446
0.185212
-0.0361037
0.19007
-0.0336324
0.194366
-0.03085
0.198091
-0.0279364
0.201208
-0.0248927
0.203665
-0.0217282
0.20541
-0.0184736
0.206393
-0.0151624
-0.0118287
0.208584
-0.0389454
-0.205648
0.211563
-0.0390829
0.214228
-0.0362972
0.216428
-0.0330494
0.218146
-0.0296547
0.219391
-0.0261377
0.220149
-0.022486
0.220399
-0.0187241
0.220123
-0.0148861
-0.0110059
0.240842
-0.0400875
-0.2397
0.241491
-0.0397313
0.241875
-0.0366817
0.241981
-0.0331555
0.241816
-0.0294896
0.241406
-0.0257274
0.240763
-0.0218432
0.239888
-0.0178485
0.238776
-0.0137744
-0.00965351
0.274285
-0.0391286
-0.275244
0.272737
-0.0381837
0.271126
-0.035071
0.269509
-0.0315384
0.267887
-0.0278678
0.266267
-0.0241065
0.264657
-0.0202336
0.263064
-0.0162558
0.261491
-0.0122006
-0.00809907
0.309187
-0.0362809
-0.312034
0.305865
-0.0348618
0.302684
-0.0318898
0.299733
-0.0285877
0.29701
-0.0251448
0.294506
-0.0216029
0.292229
-0.0179561
0.290186
-0.0142134
0.288385
-0.0103994
-0.00654205
0.347358
-0.0317783
-0.351861
0.342649
-0.0301522
0.338253
-0.0274941
0.334259
-0.0245939
0.330674
-0.0215595
0.327493
-0.0184221
0.324725
-0.0151878
0.322381
-0.0118697
0.320471
-0.00848908
-0.00507009
0.39098
-0.0258034
-0.396955
0.385094
-0.0242658
0.37968
-0.0220799
0.374807
-0.0197216
0.370494
-0.0172459
0.366746
-0.0146747
0.363578
-0.0120193
0.361002
-0.00929379
0.359029
-0.0065163
-0.00370658
0.442273
-0.0184994
-0.449577
0.435311
-0.0173042
0.42896
-0.015729
0.423276
-0.0140374
0.418285
-0.0122547
0.414006
-0.0103959
0.410459
-0.00847213
0.407661
-0.00649559
0.405625
-0.00448018
-0.00244065
0.503965
-0.00991681
-0.512547
0.495917
-0.00925699
0.488602
-0.00841393
0.482073
-0.00750837
0.476369
-0.00655007
0.47152
-0.00554715
0.467555
-0.0045067
0.464495
-0.0034361
0.462358
-0.00234339
-0.00123693
0.579994
-0.58991
0.570737
0.562323
0.554814
0.548264
0.542717
0.53821
0.534774
0.532431
0.126802
0.00780555
-0.00773619
0.126575
0.0227062
-0.02248
0.126202
0.0342008
-0.0338269
0.125796
0.0427613
-0.0423554
0.125577
0.050808
-0.0505898
0.125974
0.0606307
-0.0610269
0.12774
0.0742835
-0.0760497
0.132313
0.0945928
-0.099166
0.14617
0.114945
-0.128802
0.164084
-0.19436
0.148048
0.00777312
0.148074
0.0226803
0.148089
0.0341859
0.148234
0.0426158
0.148818
0.0502243
0.150379
0.0590694
0.153957
0.0707055
0.161581
0.0869684
0.178245
0.0982815
0.136681
0.17285
0.00759811
0.173261
0.0222686
0.173864
0.033583
0.1748
0.0416803
0.176449
0.0485753
0.179424
0.0560937
0.184976
0.0651537
0.194902
0.0770423
0.210972
0.0822122
0.107952
0.2018
0.00723557
0.202737
0.0213315
0.204141
0.0321791
0.206115
0.0397064