/*--------------------------------*- C++ -*----------------------------------*\
| =========                 |                                                 |
| \\      /  F ield         | OpenFOAM: The Open Source CFD Toolbox           |
|  \\    /   O peration     | Version:  v1912                                 |
|   \\  /    A nd           | Website:  www.openfoam.com                      |
|    \\/     M anipulation  |                                                 |
\*---------------------------------------------------------------------------*/
FoamFile
{
    version     2.0;
    format      ascii;
    class       volScalarField;
    location    "43";
    object      p;
}
// * * * * * * * * * * * * * * * * * * * * * * * * * * * * * * * * * * * * * //

dimensions      [0 2 -2 0 0 0 0];


internalField   nonuniform List<scalar> 
9600
(
-41.4748
-36.2095
-32.9821
-30.2444
-27.7387
-25.4716
-23.415
-21.5408
-19.8316
-18.2738
-16.8545
-15.562
-14.3849
-13.3122
-12.334
-11.4409
-10.6244
-9.87647
-9.18974
-8.56199
-42.2336
-36.9507
-33.6875
-30.907
-28.3562
-26.0451
-23.9471
-22.0352
-20.2922
-18.7044
-17.2588
-15.9432
-14.7457
-13.6552
-12.6612
-11.7539
-10.9246
-10.165
-9.46714
-8.83012
-42.994
-37.688
-34.3874
-31.5639
-28.9678
-26.6125
-24.4732
-22.5237
-20.7471
-19.1296
-17.658
-16.3196
-15.1021
-13.994
-12.9843
-12.063
-11.2211
-10.4498
-9.74096
-9.09488
-43.7529
-38.4209
-35.0816
-32.2144
-29.5727
-27.173
-24.9924
-23.0055
-21.1955
-19.5486
-18.0513
-16.6904
-15.4533
-14.3278
-13.3028
-12.3678
-11.5134
-10.7306
-10.0108
-9.35593
-44.5073
-39.1478
-35.7689
-32.8573
-30.1696
-27.7255
-25.5037
-23.4795
-21.6365
-19.9607
-18.438
-17.0551
-15.7987
-14.6562
-13.6161
-12.6676
-11.801
-11.0069
-10.2763
-9.61298
-45.2551
-39.8674
-36.448
-33.4915
-30.7577
-28.2691
-26.0062
-23.945
-22.0694
-20.365
-18.8175
-17.4129
-16.1376
-14.9785
-13.9237
-12.962
-12.0835
-11.2783
-10.5371
-9.86577
-45.9945
-40.5781
-37.1179
-34.116
-31.3357
-28.8026
-26.4989
-24.4011
-22.4933
-20.7607
-19.1889
-17.7632
-16.4694
-15.2942
-14.225
-13.2505
-12.3604
-11.5443
-10.7929
-10.114
-46.724
-41.2785
-37.7772
-34.7294
-31.9026
-29.3252
-26.9808
-24.8469
-22.9073
-21.1472
-19.5515
-18.1051
-16.7934
-15.6024
-14.5194
-13.5325
-12.6313
-11.8047
-11.0434
-10.3574
-47.4423
-41.9674
-38.4247
-35.3309
-32.4575
-29.8359
-27.4512
-25.2815
-23.3106
-21.5235
-19.9045
-18.438
-17.1089
-15.9027
-14.8063
-13.8075
-12.8954
-12.0588
-11.288
-10.5957
-48.1481
-42.6436
-39.0592
-35.9192
-32.9992
-30.3336
-27.909
-25.704
-23.7024
-21.8889
-20.2472
-18.7611
-17.4151
-16.1942
-15.0848
-14.0746
-13.1523
-12.3061
-11.5263
-10.8283
-48.8403
-43.3059
-39.6798
-36.4933
-33.5268
-30.8175
-28.3533
-26.1136
-24.0819
-22.2425
-20.5786
-19.0736
-17.7112
-16.4761
-15.3544
-14.3332
-13.4012
-12.5459
-11.7577
-11.0547
-49.5179
-43.9534
-40.2853
-37.0524
-34.0394
-31.2866
-28.7834
-26.5094
-24.4482
-22.5835
-20.898
-19.3745
-17.9963
-16.7476
-15.6139
-14.5824
-13.6412
-12.7773
-11.9813
-11.2742
-50.1803
-44.5852
-40.875
-37.5954
-34.5361
-31.7402
-29.1983
-26.8906
-24.8004
-22.911
-21.2045
-19.6631
-18.2694
-17.0075
-15.8625
-14.8211
-13.8712
-12.9996
-12.1964
-11.4858
-50.8268
-45.2005
-41.4479
-38.1216
-35.0162
-32.1774
-29.5974
-27.2565
-25.1379
-23.2242
-21.4972
-19.9382
-18.5296
-17.2548
-16.0987
-15.048
-14.0901
-13.2112
-12.4016
-11.6891
-51.4569
-45.7984
-42.0033
-38.6303
-35.4788
-32.5977
-29.98
-27.6064
-25.4599
-23.5225
-21.7752
-20.199
-18.7757
-17.4882
-16.3213
-15.2613
-14.2956
-13.4099
-12.595
-11.8821
-52.0701
-46.3782
-42.5404
-39.1207
-35.9235
-33.0003
-30.3455
-27.9399
-25.7659
-23.8052
-22.038
-20.4448
-19.0068
-17.7068
-16.5289
-15.4596
-14.486
-13.5937
-12.7736
-12.0594
-52.6677
-46.9398
-43.0586
-39.5923
-36.3495
-33.3847
-30.6934
-28.2563
-26.0554
-24.0717
-22.2849
-20.6748
-19.2221
-17.9093
-16.7206
-15.642
-14.661
-13.7626
-12.9365
-12.2176
-53.2542
-47.4843
-43.557
-40.0438
-36.7559
-33.7502
-31.0232
-28.5553
-26.3281
-24.3218
-22.5154
-20.8882
-19.4204
-18.0942
-16.8939
-15.806
-14.8179
-13.9137
-13.0827
-12.3682
-53.8314
-48.0112
-44.0342
-40.4742
-37.1424
-34.097
-31.3351
-28.8373
-26.5844
-24.556
-22.7301
-21.0852
-19.6013
-18.26
-17.0455
-15.9447
-14.9446
-14.0295
-13.1972
-12.5153
-54.3776
-48.5129
-44.4891
-40.8842
-37.5102
-34.4265
-31.6309
-29.1041
-26.8263
-24.7761
-22.9309
-21.2683
-19.7674
-18.4092
-17.1772
-16.0567
-15.0329
-14.0921
-13.2489
-12.5732
-59.8272
-59.7957
-59.7265
-59.6341
-59.5179
-59.3753
-59.2059
-59.01
-58.7884
-58.5415
-58.2698
-57.9741
-57.6548
-57.3128
-56.9487
-56.5634
-56.158
-55.7343
-55.295
-54.8434
-53.4791
-53.4765
-53.4408
-53.3775
-53.2874
-53.1701
-53.0256
-52.8548
-52.6583
-52.4368
-52.1908
-51.921
-51.628
-51.3124
-50.9749
-50.6162
-50.2368
-49.8373
-49.4182
-48.9774
-48.8361
-48.8579
-48.8503
-48.814
-48.7502
-48.6599
-48.5436
-48.4019
-48.2355
-48.045
-47.8309
-47.5938
-47.3342
-47.0528
-46.75
-46.4263
-46.0819
-45.7169
-45.3309
-44.9222
-44.6069
-44.6464
-44.6593
-44.645
-44.6046
-44.539
-44.4489
-44.3349
-44.1975
-44.0373
-43.8547
-43.6504
-43.4247
-43.1783
-42.9114
-42.6243
-42.3173
-41.9903
-41.6429
-41.2744
-40.6966
-40.7459
-40.7713
-40.772
-40.7485
-40.7016
-40.6319
-40.5399
-40.4262
-40.2912
-40.1354
-39.9593
-39.7635
-39.5482
-39.3139
-39.0608
-38.7889
-38.4983
-38.1887
-37.8596
-37.1848
-37.2383
-37.2701
-37.2795
-37.2666
-37.232
-37.1765
-37.1004
-37.0042
-36.8885
-36.7536
-36.6002
-36.4285
-36.2391
-36.0322
-35.8081
-35.5669
-35.3085
-35.0327
-34.739
-34.0625
-34.116
-34.1496
-34.1627
-34.1554
-34.1281
-34.0815
-34.016
-33.932
-33.8301
-33.7108
-33.5744
-33.4216
-33.2526
-33.0679
-32.8677
-32.652
-32.421
-32.1742
-31.9112
-31.293
-31.3436
-31.3759
-31.3893
-31.3839
-31.3601
-31.3185
-31.2595
-31.1836
-31.0912
-30.9829
-30.8591
-30.7204
-30.5672
-30.3999
-30.2188
-30.0241
-29.8157
-29.5933
-29.3565
-28.8363
-28.8824
-28.9116
-28.9232
-28.9174
-28.8946
-28.8553
-28.8
-28.7291
-28.643
-28.5424
-28.4277
-28.2994
-28.1582
-28.0044
-27.8386
-27.6608
-27.4712
-27.2694
-27.0549
-26.6526
-26.6936
-26.7187
-26.7275
-26.72
-26.6967
-26.6581
-26.6046
-26.5366
-26.4547
-26.3593
-26.2511
-26.1306
-25.9985
-25.8553
-25.7016
-25.5377
-25.3637
-25.1793
-24.984
-24.705
-24.7407
-24.7614
-24.7668
-24.7571
-24.7326
-24.6937
-24.6408
-24.5745
-24.4952
-24.4035
-24.3
-24.1853
-24.0601
-23.9253
-23.7813
-23.6288
-23.468
-23.2988
-23.1203
-22.9603
-22.991
-23.0075
-23.0095
-22.9973
-22.9712
-22.9315
-22.8788
-22.8134
-22.7358
-22.6467
-22.5466
-22.4363
-22.3166
-22.1883
-22.0522
-21.9093
-21.7598
-21.6039
-21.4407
-21.3905
-21.4165
-21.429
-21.4279
-21.4133
-21.3855
-21.345
-21.292
-21.2271
-21.1507
-21.0635
-20.966
-20.859
-20.7435
-20.6205
-20.4909
-20.3559
-20.2163
-20.0725
-19.9236
-19.9716
-19.9935
-20.0025
-19.9985
-19.9816
-19.9523
-19.9109
-19.8576
-19.793
-19.7175
-19.6317
-19.5362
-19.4319
-19.3197
-19.2007
-19.0764
-18.9481
-18.817
-18.6844
-18.5491
-18.684
-18.7021
-18.7079
-18.7014
-18.6826
-18.6519
-18.6096
-18.5561
-18.4918
-18.417
-18.3324
-18.2385
-18.1362
-18.0265
-17.9107
-17.7903
-17.6675
-17.5437
-17.4215
-17.2997
-17.5109
-17.5257
-17.5287
-17.5199
-17.4994
-17.4676
-17.4247
-17.371
-17.3068
-17.2327
-17.149
-17.0564
-16.9557
-16.8479
-16.7344
-16.6168
-16.4979
-16.3798
-16.2673
-16.1586
-16.4388
-16.4506
-16.4511
-16.4403
-16.4183
-16.3855
-16.3419
-16.2881
-16.2241
-16.1504
-16.0675
-15.9759
-15.8763
-15.7696
-15.6573
-15.5412
-15.4246
-15.3103
-15.2059
-15.109
-15.4555
-15.4649
-15.4635
-15.4512
-15.4282
-15.3946
-15.3508
-15.2969
-15.2332
-15.1601
-15.0779
-14.9871
-14.8883
-14.7822
-14.6703
-14.5542
-14.4379
-14.3251
-14.2276
-14.1399
-14.55
-14.5581
-14.5557
-14.5429
-14.5198
-14.4866
-14.4435
-14.3907
-14.3284
-14.2569
-14.1765
-14.0876
-13.9906
-13.8862
-13.7753
-13.6595
-13.5425
-13.4293
-13.3387
-13.2651
-13.7171
-13.7219
-13.717
-13.7024
-13.6782
-13.6446
-13.6018
-13.5499
-13.4891
-13.4196
-13.3416
-13.2554
-13.1613
-13.0597
-12.951
-12.8363
-12.7174
-12.5995
-12.5025
-12.4532
-53.5412
-54.116
-54.6537
-55.1764
-55.6812
-56.1621
-56.6162
-57.0426
-57.4402
-57.8083
-58.146
-58.4529
-58.7287
-58.9731
-59.1853
-59.3655
-59.5145
-59.6335
-59.7246
-59.7895
-47.0591
-47.6393
-48.1914
-48.7212
-49.2282
-49.71
-50.1651
-50.5929
-50.9926
-51.3637
-51.7056
-52.0181
-52.3013
-52.556
-52.7799
-52.9727
-53.1347
-53.2665
-53.3686
-53.4397
-42.4161
-42.984
-43.5283
-44.0492
-44.5467
-45.0201
-45.4685
-45.8912
-46.2878
-46.6573
-46.9991
-47.3127
-47.5979
-47.8533
-48.0805
-48.2794
-48.4498
-48.5914
-48.704
-48.7859
-38.2934
-38.8361
-39.3591
-39.8606
-40.3399
-40.7967
-41.2305
-41.6406
-42.0263
-42.3871
-42.7217
-43.0296
-43.3116
-43.5674
-43.797
-44.0002
-44.1766
-44.3258
-44.4475
-44.5413
-34.6168
-35.1295
-35.6251
-36.1012
-36.5566
-36.991
-37.4039
-37.7947
-38.1625
-38.507
-38.8286
-39.1269
-39.4005
-39.6496
-39.8743
-40.0744
-40.2494
-40.3993
-40.524
-40.6232
-31.4194
-31.9006
-32.3665
-32.8144
-33.2432
-33.6524
-34.0416
-34.4102
-34.7577
-35.0837
-35.3882
-35.6706
-35.9301
-36.1671
-36.3817
-36.5738
-36.7426
-36.8881
-37.0104
-37.1095
-28.6484
-29.0989
-29.5351
-29.9548
-30.3565
-30.74
-31.1046
-31.4499
-31.7755
-32.0811
-32.3664
-32.631
-32.8746
-33.0971
-33.298
-33.4794
-33.6393
-33.7774
-33.894
-33.9892
-26.2374
-26.6589
-27.0672
-27.4598
-27.8356
-28.1941
-28.5347
-28.8571
-29.1609
-29.4458
-29.7116
-29.9581
-30.1852
-30.3927
-30.5806
-30.7475
-30.8969
-31.026
-31.1349
-31.224
-24.1274
-24.5226
-24.9051
-25.2728
-25.6245
-25.9596
-26.2777
-26.5783
-26.8613
-27.1264
-27.3735
-27.6024
-27.8131
-28.0055
-28.1796
-28.3353
-28.4714
-28.5905
-28.691
-28.773
-22.2685
-22.64
-22.9993
-23.3444
-23.674
-23.9877
-24.2849
-24.5655
-24.8291
-25.0758
-25.3053
-25.5177
-25.7129
-25.8908
-26.0515
-26.1948
-26.3206
-26.4292
-26.521
-26.5956
-20.6191
-20.9693
-21.3079
-21.6328
-21.9426
-22.2367
-22.515
-22.7771
-23.023
-23.2527
-23.4661
-23.6632
-23.844
-24.0086
-24.1568
-24.2887
-24.4042
-24.5033
-24.5868
-24.6541
-19.1454
-19.4769
-19.7973
-20.1041
-20.396
-20.6725
-20.9334
-21.1787
-21.4084
-21.6226
-21.8212
-22.0044
-22.1721
-22.3244
-22.4613
-22.5827
-22.6888
-22.7795
-22.8548
-22.9153
-17.8205
-18.1355
-18.4401
-18.731
-19.0067
-19.2671
-19.5122
-19.7422
-19.957
-20.157
-20.3421
-20.5126
-20.6684
-20.8096
-20.9362
-21.0482
-21.1455
-21.2283
-21.2962
-21.3508
-16.6229
-16.9235
-17.2144
-17.4913
-17.7523
-17.998
-18.2286
-18.4443
-18.6455
-18.8325
-19.0053
-19.1642
-19.3092
-19.4404
-19.5576
-19.6611
-19.7507
-19.8266
-19.889
-19.9369
-15.5354
-15.8237
-16.1032
-16.3673
-16.6149
-16.8469
-17.0639
-17.2665
-17.4551
-17.6301
-17.7916
-17.94
-18.0751
-18.1972
-18.306
-18.4018
-18.4844
-18.5539
-18.6103
-18.6535
-14.5432
-14.8231
-15.0934
-15.3456
-15.5803
-15.7993
-16.0036
-16.1938
-16.3705
-16.5343
-16.6855
-16.8242
-16.9503
-17.0641
-17.1653
-17.2541
-17.3304
-17.3942
-17.4455
-17.4843
-13.6288
-13.9076
-14.1727
-14.4135
-14.6356
-14.8422
-15.0343
-15.2127
-15.3784
-15.5319
-15.6736
-15.8034
-15.9214
-16.0277
-16.1221
-16.2046
-16.2753
-16.334
-16.3807
-16.4156
-12.7715
-13.0545
-13.3209
-13.5524
-13.7625
-13.9574
-14.1383
-14.3062
-14.4622
-14.6067
-14.7402
-14.8625
-14.9737
-15.0737
-15.1624
-15.2398
-15.3057
-15.3603
-15.4034
-15.4352
-11.9847
-12.2583
-12.5254
-12.7521
-12.9521
-13.1357
-13.3061
-13.4645
-13.6117
-13.7483
-13.8746
-13.9905
-14.0958
-14.1906
-14.2746
-14.3478
-14.4101
-14.4615
-14.5019
-14.5314
-11.3945
-11.6452
-11.8729
-12.0895
-12.2778
-12.4436
-12.5976
-12.7417
-12.8756
-12.9998
-13.1145
-13.2197
-13.3151
-13.4007
-13.4763
-13.5418
-13.5972
-13.6424
-13.6773
-13.7018
-5.9978
-6.48886
-7.02701
-7.6092
-8.24188
-8.93244
-9.68855
-10.5197
-11.438
-12.4592
-13.6037
-14.8984
-16.3787
-18.0908
-20.0949
-22.4704
-25.2984
-28.6012
-32.598
-38.5934
-6.26817
-6.77274
-7.32139
-7.91563
-8.56206
-9.26777
-10.0406
-10.8902
-11.829
-12.873
-14.0431
-15.3663
-16.8787
-18.6267
-20.671
-23.0905
-25.9655
-29.315
-33.3503
-39.3668
-6.53998
-7.05806
-7.61733
-8.22384
-8.88428
-9.6054
-10.3952
-11.2635
-12.2231
-13.2903
-14.4862
-15.8384
-17.3832
-19.1675
-21.2521
-23.7157
-26.6373
-30.0324
-34.1044
-40.1373
-6.81272
-7.34426
-7.91423
-8.53324
-9.2079
-9.94464
-10.7515
-11.6389
-12.6195
-13.7101
-14.9321
-16.3135
-17.8909
-19.7117
-21.8367
-24.3443
-27.3122
-30.7528
-34.8625
-40.9166
-7.08597
-7.63089
-8.21163
-8.84333
-9.53242
-10.285
-11.1092
-12.0157
-13.0175
-14.1317
-15.3799
-16.7907
-18.4009
-20.2583
-22.4238
-24.9754
-27.9895
-31.4756
-35.6238
-41.7023
-7.35935
-7.91752
-8.5091
-9.15371
-9.85741
-10.6259
-11.4676
-12.3934
-13.4167
-14.5545
-15.8292
-17.2694
-18.9125
-20.8066
-23.0126
-25.6083
-28.6685
-32.1998
-36.3862
-42.49
-7.63254
-8.2038
-8.80627
-9.46396
-10.1824
-10.9671
-11.8264
-12.7716
-13.8163
-14.978
-16.2792
-17.749
-19.4252
-21.3559
-23.6025
-26.2421
-29.3482
-32.9244
-37.1482
-43.2775
-7.9053
-8.48944
-9.10282
-9.77376
-10.5072
-11.308
-12.185
-13.1497
-14.216
-15.4016
-16.7293
-18.2288
-19.938
-21.9055
-24.1926
-26.8759
-30.0276
-33.6481
-37.9086
-44.0634
-8.17747
-8.77424
-9.3985
-10.0828
-10.8313
-11.6483
-12.5431
-13.5273
-14.6152
-15.8247
-17.179
-18.708
-20.4503
-22.4545
-24.7819
-27.5087
-30.7055
-34.37
-38.6662
-44.8461
-8.44901
-9.05808
-9.69315
-10.3909
-11.1544
-11.9878
-12.9003
-13.904
-15.0133
-16.2467
-17.6275
-19.1861
-20.9612
-23.002
-25.3695
-28.1395
-31.381
-35.0886
-39.4197
-45.6242
-8.72003
-9.34101
-9.98673
-10.698
-11.4765
-12.3261
-13.2562
-14.2793
-15.41
-16.667
-18.0742
-19.6622
-21.4701
-23.5471
-25.9545
-28.7672
-32.0529
-35.803
-40.1677
-46.3961
-8.99083
-9.62319
-10.2793
-11.0039
-11.7974
-12.6629
-13.6105
-14.6527
-15.8046
-17.0852
-18.5185
-20.1356
-21.976
-24.0891
-26.5359
-29.3908
-32.7199
-36.5117
-40.909
-47.1606
-9.26187
-9.9049
-10.5709
-11.3087
-12.1168
-12.9981
-13.9628
-15.0239
-16.1967
-17.5005
-18.9597
-20.6056
-22.4782
-24.6268
-27.1126
-30.0092
-33.3811
-37.2136
-41.6421
-47.9161
-9.5339
-10.1866
-10.8618
-11.6123
-12.4346
-13.3312
-14.3126
-15.3922
-16.5855
-17.9122
-19.3969
-21.0713
-22.9756
-25.1595
-27.6837
-30.6213
-34.035
-37.9074
-42.3659
-48.6614
-9.80767
-10.4685
-11.1519
-11.9144
-12.7504
-13.6617
-14.6594
-15.757
-16.9705
-18.3195
-19.8293
-21.5318
-23.4674
-25.6859
-28.248
-31.2258
-34.6806
-38.592
-43.0791
-49.3954
-10.0841
-10.751
-11.441
-12.2146
-13.0635
-13.9889
-15.0024
-16.1176
-17.3507
-18.7217
-20.2561
-21.9862
-23.9525
-26.2051
-28.8043
-31.8215
-35.3164
-39.2659
-43.7805
-50.1171
-10.3631
-11.0329
-11.7276
-12.5114
-13.3727
-14.3118
-15.3405
-16.4729
-17.7252
-19.1177
-20.6763
-22.4334
-24.4299
-26.7159
-29.3514
-32.4071
-35.9412
-39.9279
-44.4693
-50.8258
-10.6438
-11.3116
-12.0093
-12.8031
-13.6767
-14.6293
-15.6729
-16.8219
-18.093
-19.5066
-21.0887
-22.8723
-24.8983
-27.217
-29.888
-32.9812
-36.5532
-40.5762
-45.144
-51.5215
-10.919
-11.5789
-12.2798
-13.0862
-13.9733
-14.9395
-15.9979
-17.1634
-18.4529
-19.8871
-21.4924
-23.3018
-25.3566
-27.7071
-30.4127
-33.5421
-37.1509
-41.2091
-45.8036
-52.2057
-11.17
-11.8148
-12.5347
-13.3618
-14.2632
-15.2424
-16.3151
-17.4968
-18.8042
-20.2585
-21.8862
-23.7207
-25.8036
-28.185
-30.9239
-34.0883
-37.732
-41.8235
-46.4435
-52.8801
-1.58141
-1.83547
-2.18349
-2.5726
-2.99139
-3.44523
-3.94045
-4.48297
-5.08029
-5.74268
-6.48409
-7.32355
-8.28719
-9.41105
-10.746
-12.3663
-14.3617
-16.7931
-19.9689
-25.364
-1.73442
-2.00489
-2.37135
-2.76637
-3.18857
-3.64774
-4.14985
-4.70043
-5.30713
-5.9805
-6.73473
-7.58918
-8.57043
-9.71504
-11.0744
-12.7234
-14.7516
-17.2185
-20.4265
-25.8354
-1.88174
-2.17627
-2.55586
-2.95901
-3.38894
-3.85648
-4.36751
-4.92775
-5.54522
-6.23079
-6.99901
-7.86962
-8.86965
-10.0362
-11.4212
-13.0999
-15.1616
-17.6639
-20.9033
-26.3208
-2.05131
-2.35666
-2.74445
-3.15631
-3.59541
-4.07248
-4.59352
-5.16455
-5.79391
-6.49278
-7.27605
-8.16387
-9.18373
-10.3732
-11.7849
-13.4943
-15.5906
-18.1295
-21.4037
-26.8389
-2.23219
-2.54462
-2.94023
-3.36105
-3.80964
-4.29667
-4.82837
-5.41099
-6.05312
-6.76621
-7.56548
-8.47148
-9.51218
-10.7257
-12.1651
-13.9063
-16.0383
-18.6154
-21.9271
-27.3863
-2.41854
-2.73958
-3.14352
-3.57344
-4.03179
-4.52925
-5.07221
-5.66712
-6.32278
-7.05091
-7.86707
-8.79219
-9.85471
-11.0933
-12.5616
-14.3357
-16.5047
-19.1212
-22.4715
-27.9578
-2.61189
-2.94243
-3.35461
-3.79366
-4.26205
-4.77037
-5.32512
-5.93291
-6.60278
-7.34671
-8.18057
-9.1257
-10.211
-11.4757
-12.9739
-14.7822
-16.9892
-19.6462
-23.0361
-28.5511
-2.81364
-3.15365
-3.57385
-4.02202
-4.50066
-5.02016
-5.58711
-6.20831
-6.89299
-7.6534
-8.50573
-9.47169
-10.5807
-11.8724
-13.4016
-15.2451
-17.4914
-20.1899
-23.6201
-29.165
-3.02355
-3.37309
-3.80129
-4.25862
-4.74767
-5.27862
-5.85815
-6.49321
-7.19325
-7.97076
-8.84225
-9.82983
-10.9634
-12.2831
-13.8442
-15.724
-18.0105
-20.7516
-24.2228
-29.7985
-3.24104
-3.60042
-4.03671
-4.50331
-5.00294
-5.54562
-6.13807
-6.78742
-7.50332
-8.29851
-9.18982
-10.1997
-11.3586
-12.7072
-14.3012
-16.2182
-18.546
-21.3306
-24.8434
-30.4506
-3.46567
-3.83529
-4.27981
-4.7558
-5.26623
-5.82091
-6.42662
-7.09067
-7.8229
-8.63632
-9.54807
-10.581
-11.766
-13.1443
-14.7721
-16.7273
-19.0972
-21.9261
-25.4811
-31.1201
-3.69705
-4.07729
-4.5302
-5.01576
-5.53721
-6.10415
-6.72345
-7.4026
-8.15162
-8.9838
-9.91658
-10.9733
-12.1851
-13.5939
-15.2563
-17.2505
-19.6635
-22.5374
-26.1349
-31.8061
-3.93473
-4.32596
-4.78745
-5.28276
-5.81547
-6.39497
-7.02819
-7.72281
-8.48907
-9.3405
-10.2949
-11.3759
-12.6153
-14.0553
-15.7532
-17.7873
-20.244
-23.1636
-26.8041
-32.5075
-4.17817
-4.58078
-5.05106
-5.55633
-6.10055
-6.6929
-7.34037
-8.05084
-8.83477
-9.70594
-10.6825
-11.7884
-13.056
-14.528
-16.2621
-18.3368
-20.8381
-23.8039
-27.4878
-33.2235
-4.42684
-4.84118
-5.32047
-5.83595
-6.39195
-6.99745
-7.6595
-8.38618
-9.1882
-10.0796
-11.0788
-12.2102
-13.5066
-15.0113
-16.7823
-18.8984
-21.4449
-24.4576
-28.1851
-33.9531
-4.68017
-5.1066
-5.59514
-6.12107
-6.68914
-7.30808
-7.98503
-8.7283
-9.54879
-10.4608
-11.4832
-12.6407
-13.9665
-15.5045
-17.3131
-19.4712
-22.0635
-25.1237
-28.8951
-34.6957
-4.93762
-5.37646
-5.87448
-6.41112
-6.99155
-7.62423
-8.31641
-9.07661
-9.91598
-10.8491
-11.8951
-13.0792
-14.435
-16.0068
-17.8536
-20.0543
-22.6931
-25.8012
-29.6171
-35.4505
-5.19865
-5.65018
-6.15791
-6.70554
-7.29861
-7.94533
-8.65306
-9.43053
-10.2891
-11.2437
-12.3138
-13.5249
-14.9113
-16.5176
-18.4031
-20.647
-23.3327
-26.4892
-30.3502
-36.2174
-5.46269
-5.92719
-6.44485
-7.00374
-7.60973
-8.2708
-8.99437
-9.78943
-10.6676
-11.6441
-12.7386
-13.9772
-15.3945
-17.0357
-18.9605
-21.2481
-23.9811
-27.1864
-31.0934
-36.9968
-5.72925
-6.20694
-6.73475
-7.30517
-7.92438
-8.60006
-9.33978
-10.1527
-11.0509
-12.0495
-13.1689
-14.4354
-15.8841
-17.5606
-19.525
-21.8565
-24.6371
-27.891
-31.8438
-37.7896
-1.33382
-1.12736
-0.973796
-0.837279
-0.717413
-0.611656
-0.518895
-0.438337
-0.36948
-0.311966
-0.26553
-0.229959
-0.205083
-0.190762
-0.186857
-0.193163
-0.209474
-0.235917
-0.272618
-0.319437
-1.66373
-1.48053
-1.323
-1.18126
-1.05657
-0.946354
-0.849634
-0.765609
-0.693767
-0.63373
-0.585217
-0.548006
-0.521912
-0.506784
-0.502476
-0.508819
-0.525662
-0.553006
-0.590879
-0.639148
-1.99638
-1.82106
-1.66355
-1.52067
-1.39386
-1.28146
-1.18279
-1.09715
-1.02408
-0.963211
-0.914269
-0.877033
-0.851316
-0.836962
-0.833821
-0.841742
-0.860606
-0.890368
-0.930944
-0.982385
-2.38026
-2.20329
-2.04274
-1.89691
-1.76653
-1.65063
-1.54875
-1.46033
-1.38496
-1.3223
-1.27207
-1.23405
-1.20806
-1.19392
-1.19147
-1.20059
-1.22114
-1.25304
-1.29621
-1.35062
-2.79917
-2.61975
-2.45525
-2.30549
-2.17089
-2.05095
-1.94534
-1.85363
-1.77547
-1.71057
-1.65865
-1.6195
-1.59292
-1.57874
-1.57681
-1.58697
-1.60909
-1.64308
-1.68882
-1.74629
-3.25068
-3.06805
-2.89938
-2.7453
-2.60625
-2.48206
-2.37251
-2.27731
-2.19619
-2.12886
-2.07509
-2.03468
-2.00742
-1.99315
-1.99169
-2.00292
-2.02668
-2.06285
-2.1113
-2.17196
-3.74096
-3.55361
-3.38005
-3.22104
-3.07711
-2.94827
-2.83444
-2.73542
-2.65101
-2.58098
-2.52511
-2.48322
-2.4551
-2.4406
-2.43954
-2.45178
-2.47718
-2.51558
-2.56685
-2.63094
-4.27681
-4.08326
-3.90371
-3.73892
-3.5894
-3.4553
-3.33663
-3.2333
-3.14513
-3.07197
-3.01362
-2.9699
-2.94064
-2.92566
-2.92481
-2.93793
-2.96487
-3.00547
-3.05959
-3.12719
-4.86592
-4.66473
-4.47797
-4.30632
-4.1503
-4.01013
-3.88589
-3.77756
-3.68502
-3.60816
-3.5468
-3.5008
-3.46997
-3.45417
-3.45323
-3.46699
-3.4953
-3.53799
-3.59491
-3.66604
-5.51846
-5.30806
-5.11266
-4.93287
-4.76921
-4.62194
-4.49119
-4.37698
-4.27927
-4.19795
-4.1329
-4.08398
-4.05103
-4.0339
-4.03242
-4.04646
-4.07584
-4.12038
-4.17993
-4.2545
-6.24814
-6.02673
-5.82102
-5.63156
-5.45884
-5.30315
-5.16466
-5.04345
-4.93951
-4.85276
-4.7831
-4.73042
-4.69457
-4.67541
-4.67279
-4.68654
-4.7165
-4.76249
-4.82434
-4.9021
-7.07372
-6.83917
-6.62114
-6.42011
-6.23655
-6.07079
-5.92302
-5.79335
-5.68179
-5.58832
-5.51285
-5.45529
-5.41549
-5.39333
-5.38866
-5.40132
-5.43115
-5.47794
-5.54152
-5.62199
-8.02091
-7.7707
-7.53791
-7.32296
-7.12637
-6.94844
-6.7894
-6.64939
-6.52845
-6.42657
-6.34369
-6.27974
-6.23458
-6.2081
-6.20015
-6.21058
-6.23921
-6.28582
-6.35025
-6.43263
-9.12525
-8.85629
-8.60576
-8.37403
-8.16164
-7.96892
-7.79611
-7.64336
-7.51074
-7.39827
-7.30591
-7.23358
-7.18118
-7.14859
-7.13567
-7.14228
-7.16822
-7.21326
-7.27721
-7.36028
-10.437
-10.1456
-9.87369
-9.62166
-9.39009
-9.1793
-8.98958
-8.82107
-8.67388
-8.54803
-8.44349
-8.36021
-8.29809
-8.25702
-8.23687
-8.23748
-8.25867
-8.30016
-8.36175
-8.44371
-12.0298
-11.7115
-11.4139
-11.1374
-10.8826
-10.6498
-10.4394
-10.2514
-10.0861
-9.94341
-9.82334
-9.72585
-9.65085
-9.59824
-9.56789
-9.55966
-9.57333
-9.60863
-9.66531
-9.74365
-13.9928
-13.6429
-13.315
-13.0094
-12.7269
-12.4679
-12.2326
-12.0212
-11.8338
-11.6704
-11.5311
-11.4157
-11.3243
-11.2567
-11.2128
-11.1925
-11.1955
-11.2217
-11.2707
-11.3425
-16.3875
-16.0021
-15.6396
-15.3011
-14.9872
-14.6983
-14.4346
-14.1963
-13.9834
-13.796
-13.6342
-13.4978
-13.3868
-13.3012
-13.2408
-13.2056
-13.1953
-13.2099
-13.249
-13.3117
-19.5246
-19.0995
-18.6981
-18.3231
-17.9748
-17.6531
-17.3582
-17.0899
-16.8483
-16.6334
-16.4451
-16.2836
-16.1486
-16.0403
-15.9584
-15.9029
-15.8736
-15.8709
-15.8946
-15.9426
-24.8618
-24.3916
-23.9559
-23.5514
-23.1762
-22.8292
-22.51
-22.2184
-21.9545
-21.7183
-21.5097
-21.3288
-21.1757
-21.0506
-20.9534
-20.8842
-20.8438
-20.8345
-20.8576
-20.9028
-0.376239
-0.442707
-0.518804
-0.604447
-0.699553
-0.804016
-0.917703
-1.04045
-1.17205
-1.31222
-1.46059
-1.61665
-1.77958
-1.94817
-2.12076
-2.29508
-2.46665
-2.62568
-2.75677
-2.88632
-0.697829
-0.766571
-0.845304
-0.933916
-1.0323
-1.14033
-1.25786
-1.3847
-1.5206
-1.66527
-1.81829
-1.97911
-2.14695
-2.32066
-2.49861
-2.67917
-2.86055
-3.03502
-3.18739
-3.35938
-1.04455
-1.11713
-1.20008
-1.29326
-1.39654
-1.50978
-1.63282
-1.76544
-1.90738
-2.05831
-2.21781
-2.3853
-2.56006
-2.74105
-2.9269
-3.11644
-3.30869
-3.49927
-3.68246
-3.88817
-1.4162
-1.49264
-1.57985
-1.67769
-1.78602
-1.90468
-2.03346
-2.17216
-2.32048
-2.47807
-2.64451
-2.81922
-3.00152
-3.19048
-3.38505
-3.58434
-3.78756
-3.99239
-4.19932
-4.42873
-1.8154
-1.89584
-1.98752
-2.09027
-2.20394
-2.32834
-2.46327
-2.60849
-2.76369
-2.92851
-3.10253
-3.2852
-3.47588
-3.67378
-3.87809
-4.08821
-4.3035
-4.52294
-4.74917
-4.99532
-2.24491
-2.32965
-2.42613
-2.53417
-2.65361
-2.78425
-2.92587
-3.07821
-3.24096
-3.41377
-3.5962
-3.78776
-3.98785
-4.19584
-4.4111
-4.63321
-4.86178
-5.0966
-5.34041
-5.60106
-2.7079
-2.79717
-2.89877
-3.01248
-3.13813
-3.27551
-3.42438
-3.58449
-3.75551
-3.9371
-4.12885
-4.33028
-4.54089
-4.76013
-4.98753
-5.22279
-5.46572
-5.7165
-5.97737
-6.25276
-3.20823
-3.30235
-3.40936
-3.5291
-3.66137
-3.80597
-3.96267
-4.13118
-4.3112
-4.5024
-4.70437
-4.91669
-5.13891
-5.37057
-5.6113
-5.86087
-6.1192
-6.38661
-6.66467
-6.95586
-3.75137
-3.8504
-3.96304
-4.08908
-4.22835
-4.38063
-4.54568
-4.72322
-4.91296
-5.11456
-5.32766
-5.55187
-5.78677
-6.03199
-6.28722
-6.55227
-6.82707
-7.11193
-7.40785
-7.71619
-4.34409
-4.44808
-4.56654
-4.69908
-4.84563
-5.00597
-5.17984
-5.36697
-5.56707
-5.77983
-6.00491
-6.24194
-6.49056
-6.75042
-7.02127
-7.30291
-7.59529
-7.89857
-8.21332
-8.54033
-4.99579
-5.10467
-5.22876
-5.368
-5.522
-5.69063
-5.87367
-6.07083
-6.28184
-6.5064
-6.74418
-6.99486
-7.2581
-7.5336
-7.82109
-8.12039
-8.43141
-8.75416
-9.08889
-9.4361
-5.71939
-5.83286
-5.96247
-6.10806
-6.26953
-6.44651
-6.63885
-6.8463
-7.06856
-7.30535
-7.5564
-7.82138
-8.09999
-8.39193
-8.69694
-9.01484
-9.34547
-9.68871
-10.0446
-10.4134
-6.53304
-6.65045
-6.78508
-6.93662
-7.10501
-7.29031
-7.4919
-7.70949
-7.94302
-8.19222
-8.45681
-8.73647
-9.03091
-9.33985
-9.66303
-10.0002
-10.3513
-10.7158
-11.0939
-11.4856
-7.46256
-7.58286
-7.72152
-7.87825
-8.05284
-8.2453
-8.45639
-8.68331
-8.92775
-9.18906
-9.46701
-9.7613
-10.0717
-10.3978
-10.7394
-11.0963
-11.4682
-11.8547
-12.2556
-12.6712
-8.54617
-8.66765
-8.80873
-8.96918
-9.14884
-9.34723
-9.56385
-9.80105
-10.0561
-10.3286
-10.6191
-10.9275
-11.2534
-11.5965
-11.9565
-12.3329
-12.7257
-13.1342
-13.5582
-13.9979
-9.84377
-9.9639
-10.105
-10.2668
-10.4494
-10.6523
-10.8749
-11.1176
-11.3802
-11.6635
-11.9659
-12.2876
-12.6283
-12.9872
-13.3641
-13.7591
-14.1717
-14.6016
-15.0482
-15.5115
-11.4369
-11.5525
-11.6907
-11.8513
-12.034
-12.2386
-12.4648
-12.7124
-12.9813
-13.2716
-13.5841
-13.9176
-14.2701
-14.6412
-15.0319
-15.4428
-15.8735
-16.3231
-16.7905
-17.2758
-13.3963
-13.5043
-13.6365
-13.7926
-13.9712
-14.1728
-14.3975
-14.6452
-14.9157
-15.2084
-15.5226
-15.8586
-16.2181
-16.6017
-17.0075
-17.4343
-17.8816
-18.3492
-18.836
-19.3411
-16.0129
-16.1049
-16.2209
-16.3623
-16.5306
-16.7248
-16.9443
-17.1886
-17.4574
-17.7503
-18.0667
-18.4063
-18.7693
-19.1563
-19.5671
-20.0012
-20.4583
-20.9391
-21.4436
-21.9668
-20.9446
-21.0171
-21.1203
-21.2522
-21.4115
-21.5976
-21.8098
-22.048
-22.3116
-22.6004
-22.9141
-23.2528
-23.6165
-24.0056
-24.4202
-24.8601
-25.3266
-25.8235
-26.3533
-26.8983
-27.4143
-22.5006
-19.8639
-17.779
-15.9917
-14.4533
-13.1013
-11.891
-10.7952
-9.79568
-8.8795
-8.03692
-7.26029
-6.54339
-5.88101
-5.26862
-4.70096
-4.17242
-3.69149
-3.28711
-27.9582
-23.0505
-20.4024
-18.2973
-16.4862
-14.9221
-13.5441
-12.3084
-11.1883
-10.1661
-9.22919
-8.36792
-7.57483
-6.84383
-6.16987
-5.54851
-4.97503
-4.44701
-3.97759
-3.57514
-28.5306
-23.6194
-20.958
-18.8316
-16.9954
-15.4045
-13.9994
-12.7373
-11.5921
-10.5467
-9.58844
-8.70801
-7.89796
-7.15222
-6.46572
-5.83394
-5.25225
-4.71835
-4.24181
-3.81987
-29.1273
-24.2077
-21.5309
-19.3816
-17.5187
-15.8997
-14.4665
-13.177
-12.0059
-10.9364
-9.95618
-9.05585
-8.22798
-7.4664
-6.76583
-6.12148
-5.52845
-4.98381
-4.49429
-4.05364
-29.7453
-24.8149
-22.1203
-19.9468
-18.0557
-16.4072
-14.9446
-13.6268
-12.4289
-11.3346
-10.3315
-9.41057
-8.56409
-7.78576
-7.07006
-6.41189
-5.80606
-5.24904
-4.74575
-4.28896
-30.383
-25.4415
-22.7243
-20.5262
-18.6055
-16.9261
-15.4331
-14.0858
-12.8603
-11.7403
-10.7138
-9.7715
-8.90572
-8.10994
-7.37838
-6.70566
-6.08638
-5.51666
-5.0001
-4.52925
-31.0393
-26.086
-23.3426
-21.1187
-19.1673
-17.4557
-15.931
-14.5535
-13.2994
-12.153
-11.1024
-10.1382
-9.25255
-8.43884
-7.69101
-7.00347
-6.37063
-5.78839
-5.25928
-4.77576
-31.7129
-26.7463
-23.9751
-21.7236
-19.7401
-17.9952
-16.4378
-15.0289
-13.7456
-12.5721
-11.4967
-10.5101
-9.60427
-8.77233
-8.00803
-7.30557
-6.65926
-6.06479
-5.52368
-5.02842
-32.4024
-27.421
-24.6208
-22.34
-20.3231
-18.5436
-16.9524
-15.5114
-14.198
-12.9968
-11.8963
-10.8869
-9.96055
-9.11018
-8.32933
-7.61198
-6.95231
-6.34584
-5.79316
-5.28673
-33.1066
-28.109
-25.2787
-22.9671
-20.9154
-19.1002
-17.4742
-16.0002
-14.656
-13.4267
-12.3005
-11.268
-10.321
-9.45206
-8.65462
-7.92242
-7.24951
-6.6312
-6.06719
-5.54996
-33.8243
-28.8091
-25.9478
-23.6038
-21.516
-19.664
-18.0023
-16.4945
-15.1189
-13.8609
-12.7087
-11.6529
-10.685
-9.79751
-8.98347
-8.23646
-7.55038
-6.92033
-6.34513
-5.81733
-34.5543
-29.5203
-26.627
-24.249
-22.1239
-20.2341
-18.5357
-16.9934
-15.5859
-14.2987
-13.1203
-12.041
-11.0522
-10.146
-9.31536
-8.55358
-7.85437
-7.2126
-6.62628
-6.08805
-35.2955
-30.2413
-27.315
-24.9017
-22.7381
-20.8094
-19.0736
-17.496
-16.0561
-14.7395
-13.5346
-12.4317
-11.4218
-10.4969
-9.64969
-8.87315
-8.16083
-7.50734
-6.90991
-6.36134
-36.0469
-30.9711
-28.0108
-25.5608
-23.3575
-21.3889
-19.6149
-18.0016
-16.5288
-15.1824
-13.9509
-12.8242
-11.7932
-10.8496
-9.98583
-9.19455
-8.46912
-7.80388
-7.19533
-6.63649
-36.8073
-31.7084
-28.713
-26.225
-23.9809
-21.9717
-20.1587
-18.5091
-17.003
-15.6267
-14.3683
-13.2178
-12.1657
-11.2035
-10.3231
-9.5171
-8.77857
-8.10155
-7.48185
-6.91281
-37.5755
-32.4518
-29.4203
-26.8932
-24.6073
-22.5565
-20.7039
-19.0175
-17.478
-16.0715
-14.7862
-13.6118
-12.5386
-11.5578
-10.6609
-9.84017
-9.08853
-8.3997
-7.76881
-7.18965
-38.3511
-33.2002
-30.1314
-27.5641
-25.2354
-23.1422
-21.2495
-19.526
-17.9527
-16.5158
-15.2037
-14.0054
-12.9112
-11.9118
-10.9984
-10.1631
-9.39836
-8.6977
-8.05561
-7.46641
-39.1354
-33.9532
-30.8449
-28.236
-25.8637
-23.7275
-21.7942
-20.0333
-18.4261
-16.9589
-15.6199
-14.3979
-13.2827
-12.2648
-11.3351
-10.4852
-9.70741
-8.99491
-8.34162
-7.74252
-39.9286
-34.7095
-31.5588
-28.9073
-26.4908
-24.3113
-22.3371
-20.5385
-18.8974
-17.3999
-16.034
-14.7884
-13.6525
-12.6162
-11.6702
-10.8058
-10.0151
-9.29076
-8.6263
-8.01748
-40.7181
-35.4642
-32.2714
-29.577
-27.1161
-24.893
-22.8776
-21.0413
-19.3661
-17.8384
-16.4458
-15.1767
-14.02
-12.9655
-12.0034
-11.1245
-10.3209
-9.58477
-8.90917
-8.29083
-6.77059
-4.66688
-3.3085
-2.26455
-1.53133
-0.992855
-0.606134
-0.331604
-0.140992
-0.0125869
0.0702014
0.119985
0.146321
0.156357
0.155392
0.147291
0.134861
0.120099
0.104412
0.0887642
0.0737996
0.0599282
0.0473859
0.0362921
0.0266677
0.0184927
0.011673
0.00614486
0.00173733
-0.00157575
-0.00406192
-0.00560527
-0.00666668
-0.00681467
-0.00691686
-0.00592934
-0.00550405
-0.00351035
-0.00298866
0.000101924
-7.02599
-4.84907
-3.45462
-2.37962
-1.62231
-1.06644
-0.666157
-0.381191
-0.182342
-0.0473191
0.0408864
0.0951667
0.125281
0.138516
0.140279
0.13451
0.124078
0.111029
0.096807
0.0824129
0.0685178
0.055556