/*--------------------------------*- C++ -*----------------------------------*\
| =========                 |                                                 |
| \\      /  F ield         | OpenFOAM: The Open Source CFD Toolbox           |
|  \\    /   O peration     | Version:  v1912                                 |
|   \\  /    A nd           | Website:  www.openfoam.com                      |
|    \\/     M anipulation  |                                                 |
\*---------------------------------------------------------------------------*/
FoamFile
{
    version     2.0;
    format      ascii;
    class       volVectorField;
    location    "23.5";
    object      U;
}
// * * * * * * * * * * * * * * * * * * * * * * * * * * * * * * * * * * * * * //

dimensions      [0 1 -1 0 0 0 0];


internalField   nonuniform List<vector> 
9600
(
(0.456831 -9.37155 -1.53352e-19)
(0.159065 -8.64987 0)
(0.239398 -8.17776 -8.98632e-20)
(0.315723 -7.8557 0)
(0.38058 -7.61585 0)
(0.446553 -7.41577 -3.15144e-20)
(0.509749 -7.23202 -5.28249e-22)
(0.567105 -7.05269 2.62785e-20)
(0.61788 -6.87261 0)
(0.66211 -6.69039 -4.45068e-20)
(0.700177 -6.50664 0)
(0.732688 -6.32288 -1.81085e-21)
(0.760358 -6.14085 -2.59318e-21)
(0.783919 -5.9622 -3.10077e-20)
(0.804074 -5.78827 2.61067e-20)
(0.821455 -5.61997 -2.5649e-20)
(0.836596 -5.45774 2.28071e-20)
(0.850028 -5.30146 0)
(0.862526 -5.15037 -1.81099e-20)
(0.87379 -5.00295 1.98699e-20)
(0.825107 -9.36062 -3.06589e-19)
(0.502104 -8.67664 1.1787e-20)
(0.565627 -8.22023 1.85132e-19)
(0.630329 -7.90738 -1.57505e-19)
(0.686013 -7.67201 1.55331e-19)
(0.743776 -7.47242 0)
(0.798944 -7.28645 6.0065e-20)
(0.848121 -7.10327 -5.98945e-20)
(0.890493 -6.91847 -1.03778e-19)
(0.926153 -6.73124 1.31045e-19)
(0.955588 -6.54258 -8.5065e-20)
(0.979525 -6.35423 -3.46474e-20)
(0.998786 -6.16811 6.9977e-20)
(1.01419 -5.98591 0)
(1.0265 -5.80899 0)
(1.03639 -5.63826 9.77691e-20)
(1.0444 -5.47414 -1.65735e-19)
(1.05107 -5.31644 0)
(1.05726 -5.16428 0)
(1.0624 -5.01605 -7.64738e-20)
(1.19368 -9.33613 6.33377e-19)
(0.847312 -8.69052 0)
(0.895273 -8.25002 -3.7421e-19)
(0.949072 -7.94651 -3.38848e-19)
(0.995877 -7.71561 0)
(1.04541 -7.51649 5.40389e-19)
(1.09233 -7.32833 -5.09932e-19)
(1.13299 -7.14141 9.98129e-20)
(1.16657 -6.9521 -2.2223e-19)
(1.19326 -6.76015 -3.69011e-19)
(1.21368 -6.56691 5.03266e-19)
(1.22869 -6.37438 -3.10954e-19)
(1.23925 -6.18457 -1.39206e-19)
(1.24624 -5.99924 0)
(1.25051 -5.81976 5.45469e-21)
(1.25274 -5.64702 1.03092e-19)
(1.25349 -5.48141 4.44853e-20)
(1.25332 -5.32269 0)
(1.25315 -5.16984 8.06005e-20)
(1.25208 -5.02121 8.26267e-20)
(1.56145 -9.29771 -8.56583e-19)
(1.19409 -8.69125 -4.0078e-19)
(1.22778 -8.26692 3.88896e-19)
(1.27139 -7.97277 6.66997e-19)
(1.3096 -7.74629 -3.2362e-19)
(1.35087 -7.54761 5.63178e-21)
(1.3893 -7.35732 2.50738e-19)
(1.4211 -7.16681 2.26899e-19)
(1.4455 -6.97324 4.15124e-19)
(1.46282 -6.77689 0)
(1.47387 -6.57947 1.59494e-19)
(1.47964 -6.38317 -1.69409e-19)
(1.48122 -6.19012 1.02764e-20)
(1.47958 -6.00211 2.66541e-19)
(1.47562 -5.82051 2.28141e-19)
(1.47007 -5.64618 -3.21966e-19)
(1.46347 -5.47949 1.06024e-19)
(1.45641 -5.32013 -1.72355e-19)
(1.44986 -5.16699 1.71537e-19)
(1.44251 -5.01839 -8.26669e-20)
(1.9281 -9.24532 4.3191e-19)
(1.54217 -8.67868 0)
(1.56275 -8.27068 3.81493e-19)
(1.59679 -7.98585 0)
(1.62663 -7.76371 0)
(1.65957 -7.56546 -2.97018e-19)
(1.68926 -7.37312 -5.30802e-19)
(1.71185 -7.1792 -4.4939e-19)
(1.72668 -6.98165 1.8389e-20)
(1.73426 -6.78126 -1.93915e-19)
(1.73559 -6.58008 0)
(1.73183 -6.38048 -1.59865e-19)
(1.72418 -6.18465 -2.87789e-19)
(1.71372 -5.99443 2.52802e-19)
(1.70139 -5.81116 -7.1819e-19)
(1.68794 -5.63568 1.16232e-19)
(1.67393 -5.46832 9.1938e-20)
(1.65996 -5.30873 -1.89638e-19)
(1.64704 -5.15568 -8.27819e-20)
(1.63338 -5.00754 2.46827e-19)
(2.29309 -9.17886 4.16319e-19)
(1.89103 -8.65258 4.12183e-19)
(1.89965 -8.26102 0)
(1.9247 -7.98543 0)
(1.94637 -7.76756 -6.17293e-19)
(1.97087 -7.56972 3.37797e-19)
(1.99155 -7.37543 8.11109e-19)
(2.00458 -7.17833 0)
(2.00947 -6.97713 2.13927e-19)
(2.00697 -6.7731 1.93916e-19)
(1.99826 -6.56862 -3.42146e-19)
(1.9847 -6.36619 4.96118e-19)
(1.96761 -6.16809 1.4544e-19)
(1.94815 -5.97614 0)
(1.92733 -5.79166 1.20895e-19)
(1.90591 -5.61547 5.42154e-19)
(1.88444 -5.44786 -3.23061e-19)
(1.86356 -5.28845 3.6253e-19)
(1.8443 -5.13589 -6.89192e-19)
(1.82433 -4.98865 7.9691e-19)
(2.65589 -9.09831 4.2326e-19)
(2.24018 -8.61277 -2.24016e-18)
(2.23796 -8.23769 0)
(2.25455 -7.97123 0)
(2.2682 -7.75753 0)
(2.28415 -7.56012 -5.98256e-19)
(2.29554 -7.36402 0)
(2.29865 -7.164 -9.57148e-19)
(2.29325 -6.9595 8.82409e-19)
(2.28032 -6.75229 -8.18988e-19)
(2.26128 -6.54498 0)
(2.23768 -6.34024 0)
(2.21096 -6.14038 0)
(2.18237 -5.9472 -2.76218e-19)
(2.15296 -5.762 0)
(2.12351 -5.58554 0)
(2.09457 -5.41811 -4.0454e-19)
(2.06679 -5.25927 3.97473e-19)
(2.04126 -5.10759 0)
(2.01502 -4.96171 0)
(3.01596 -9.00368 -1.37709e-18)
(2.58907 -8.5591 8.91579e-19)
(2.57711 -8.20045 0)
(2.58574 -7.94299 0)
(2.59148 -7.73337 0)
(2.59873 -7.53642 5.6888e-19)
(2.60054 -7.33868 -5.70444e-19)
(2.5934 -7.13604 -8.64575e-21)
(2.57735 -6.92865 -8.83072e-19)
(2.55368 -6.71871 8.26599e-19)
(2.52405 -6.5091 -3.72493e-19)
(2.4902 -6.30259 6.47075e-19)
(2.45369 -6.1015 -4.60108e-20)
(2.41586 -5.90761 -5.84931e-19)
(2.37779 -5.72216 -4.92378e-19)
(2.34028 -5.5459 4.83746e-19)
(2.30387 -5.37907 0)
(2.26924 -5.2212 0)
(2.23752 -5.07078 3.49269e-19)
(2.20505 -4.92673 -3.84626e-19)
(3.37274 -8.89501 9.20355e-19)
(2.93713 -8.49142 8.75128e-19)
(2.91649 -8.1491 -1.65802e-18)
(2.91763 -7.90047 7.82824e-19)
(2.91555 -7.69484 0)
(2.91393 -7.49842 6.08725e-19)
(2.90587 -7.29924 -5.33664e-19)
(2.88814 -7.09431 1.50764e-18)
(2.86112 -6.88446 -2.34847e-20)
(2.82641 -6.67231 0)
(2.78596 -6.46094 7.51496e-19)
(2.74168 -6.25322 0)
(2.69525 -6.05145 0)
(2.64809 -5.85737 -2.67298e-19)
(2.60132 -5.67218 5.39314e-19)
(2.55574 -5.49656 0)
(2.51188 -5.33076 4.22281e-19)
(2.47046 -5.17426 1.75537e-19)
(2.43263 -5.0255 -3.81224e-19)
(2.39405 -4.88373 3.70094e-19)
(3.72568 -8.77236 -9.47388e-19)
(3.28379 -8.40964 8.89136e-19)
(3.2555 -8.08347 -2.53104e-18)
(3.24956 -7.84347 7.95579e-19)
(3.23972 -7.64177 0)
(3.22906 -7.44594 -1.22787e-18)
(3.21083 -7.24557 5.89776e-19)
(3.18218 -7.03872 0)
(3.14388 -6.82688 -4.67276e-19)
(3.09789 -6.61305 -8.09659e-19)
(3.0464 -6.4005 -7.04713e-19)
(2.99153 -6.19213 5.29952e-20)
(2.93509 -5.99024 6.5895e-19)
(2.87855 -5.79652 2.67083e-19)
(2.82305 -5.61208 -3.75272e-20)
(2.7694 -5.43757 -5.02788e-19)
(2.71812 -5.27321 -2.24692e-19)
(2.66998 -5.11848 -2.02468e-19)
(2.62615 -4.97175 5.39702e-19)
(2.58157 -4.83275 -8.04774e-19)
(4.07421 -8.63581 9.47391e-19)
(3.62843 -8.3137 -4.64557e-20)
(3.5935 -8.00342 8.12978e-19)
(3.58088 -7.77184 0)
(3.5633 -7.57398 -6.71987e-19)
(3.54341 -7.37886 1.29103e-18)
(3.51472 -7.17757 -1.10198e-18)
(3.47484 -6.96921 1.08442e-18)
(3.42498 -6.75589 -4.38544e-19)
(3.36746 -6.54093 8.90655e-19)
(3.30476 -6.32778 3.85315e-19)
(3.23918 -6.11936 0)
(3.17265 -5.91793 0)
(3.10669 -5.7251 -2.76903e-19)
(3.04246 -5.54191 3.79286e-20)
(2.98076 -5.36896 9.89814e-19)
(2.92211 -5.20647 -2.44876e-19)
(2.86732 -5.0539 8.07795e-19)
(2.8176 -4.90958 1.41019e-19)
(2.76718 -4.77382 -8.21955e-19)
(4.41778 -8.48548 -2.91374e-18)
(3.97048 -8.20356 -9.76664e-19)
(3.92986 -7.90885 -2.60291e-18)
(3.91089 -7.68546 -1.58198e-18)
(3.88557 -7.49138 -7.4995e-19)
(3.85625 -7.29709 -7.32892e-19)
(3.81682 -7.09518 -2.38897e-18)
(3.76542 -6.88575 -4.86086e-20)
(3.70373 -6.67147 -1.91652e-18)
(3.63448 -6.45598 3.01247e-20)
(3.56043 -6.24282 -7.94542e-19)
(3.48405 -6.03495 -7.23549e-19)
(3.40738 -5.83456 6.60093e-19)
(3.33199 -5.64317 -6.03313e-19)
(3.25904 -5.46173 -5.52427e-19)
(3.18933 -5.2908 -5.06739e-19)
(3.12334 -5.1306 -1.35976e-18)
(3.06197 -4.98056 4.84002e-19)
(3.00649 -4.83903 1.17317e-18)
(2.95039 -4.70697 -1.24897e-18)
(4.75585 -8.32151 3.91857e-18)
(4.30933 -8.07924 4.80796e-18)
(4.26392 -7.7997 8.25044e-19)
(4.23891 -7.58425 3.95046e-18)
(4.20583 -7.39389 -7.73733e-19)
(4.16687 -7.2006 3.86245e-18)
(4.11642 -6.99841 1.12865e-18)
(4.05322 -6.78836 3.16721e-18)
(3.97949 -6.57368 -9.67641e-19)
(3.89833 -6.35824 2.6773e-18)
(3.8128 -6.1457 1.60032e-18)
(3.72556 -5.93898 1.4575e-18)
(3.63873 -5.74021 -1.97188e-18)
(3.55392 -5.5508 1.84648e-18)
(3.47228 -5.37162 1.11336e-18)
(3.39458 -5.20316 1.02151e-18)
(3.32131 -5.04565 9.38852e-19)
(3.25343 -4.89852 7.22411e-21)
(3.1923 -4.76015 7.96287e-19)
(3.13075 -4.63225 8.28843e-19)
(5.0879 -8.14407 -2.90899e-18)
(4.6444 -7.94076 1.07117e-18)
(4.59504 -7.67594 2.64655e-18)
(4.56425 -7.46814 -3.2225e-18)
(4.52335 -7.28147 7.44581e-19)
(4.47454 -7.08936 -2.5836e-18)
(4.41281 -6.88725 1.26579e-18)
(4.33757 -6.6771 -2.11884e-18)
(4.25158 -6.46258 4.85674e-20)
(4.15837 -6.24781 1.16528e-20)
(4.06129 -6.0365 -1.62226e-18)
(3.96315 -5.83153 -7.3395e-19)
(3.86616 -5.63495 1.34872e-18)
(3.77194 -5.44806 8.56837e-21)
(3.68164 -5.27163 -3.67259e-20)
(3.59598 -5.1061 -1.06643e-18)
(3.51547 -4.95169 -4.73233e-19)
(3.44114 -4.80784 -2.67397e-20)
(3.37446 -4.67299 -8.30089e-19)
(3.30767 -4.54979 -4.1858e-19)
(5.41341 -7.95334 0)
(4.97511 -7.78819 -1.97864e-18)
(4.92256 -7.53756 2.31086e-20)
(4.8862 -7.33713 3.21646e-18)
(4.83742 -7.15413 1.34446e-18)
(4.77854 -6.96343 -1.40004e-18)
(4.70529 -6.7618 -1.20482e-18)
(4.61779 -6.55204 0)
(4.51937 -6.33827 -9.57343e-19)
(4.41402 -6.12479 9.13367e-19)
(4.30533 -5.91532 -3.86432e-20)
(4.19628 -5.7127 0)
(4.08915 -5.51886 -6.78955e-19)
(3.98555 -5.33501 5.87463e-19)
(3.8866 -5.16181 4.90228e-19)
(3.79301 -4.99963 -5.92685e-19)
(3.70525 -4.8487 -5.13749e-19)
(3.62446 -4.70848 8.91404e-19)
(3.55224 -4.57754 -8.22351e-19)
(3.48035 -4.45963 4.32929e-19)
(5.73193 -7.7495 3.00384e-18)
(5.30087 -7.6216 -2.0375e-18)
(5.24584 -7.38459 -1.73657e-18)
(5.20407 -7.19126 8.0778e-19)
(5.1473 -7.01194 -1.56729e-18)
(5.07815 -6.82287 0)
(4.99315 -6.62214 0)
(4.8932 -6.41332 0)
(4.78224 -6.2009 -4.40075e-20)
(4.66467 -5.98932 -1.8329e-18)
(4.54437 -5.78229 8.65373e-19)
(4.42444 -5.58259 7.31022e-19)
(4.3072 -5.39205 6.17881e-19)
(4.19427 -5.21173 -2.53651e-18)
(4.08672 -5.0422 1.2022e-18)
(3.98518 -4.88378 0)
(3.89013 -4.73667 -2.99846e-20)
(3.80277 -4.6004 -1.38281e-18)
(3.72485 -4.47371 -5.60251e-21)
(3.64782 -4.36143 -4.33393e-19)
(6.04309 -7.53284 -2.04347e-18)
(5.62116 -7.44114 -1.07408e-18)
(5.56419 -7.21711 8.07358e-19)
(5.51714 -7.03059 -1.43443e-19)
(5.45228 -6.85496 -4.56629e-18)
(5.37266 -6.66781 4.12953e-18)
(5.27572 -6.46843 -4.86321e-20)
(5.16316 -6.2611 1.12944e-18)
(5.03958 -6.05064 1.01279e-18)
(4.90977 -5.84156 9.29313e-19)
(4.77787 -5.63758 8.45175e-19)
(4.64712 -5.44136 1.50942e-18)
(4.51986 -5.2546 -7.26415e-19)
(4.39767 -5.07829 1.88118e-18)
(4.28157 -4.91287 -1.21605e-18)
(4.17214 -4.7586 -5.02501e-19)
(4.06978 -4.6157 2.01859e-18)
(3.97575 -4.4837 1.34785e-18)
(3.89201 -4.3614 -2.75229e-20)
(3.81006 -4.25452 0)
(6.34688 -7.30383 -1.03875e-18)
(5.93558 -7.24698 2.05201e-18)
(5.87696 -7.03517 1.79419e-18)
(5.82468 -6.85517 -1.45367e-19)
(5.75162 -6.6833 -1.5491e-18)
(5.66134 -6.49839 7.01315e-20)
(5.55228 -6.30084 1.28456e-20)
(5.42703 -6.09558 1.14519e-20)
(5.29078 -5.88768 0)
(5.14877 -5.68172 9.08596e-19)
(5.00535 -5.48134 -1.72924e-18)
(4.86386 -5.2891 -7.39288e-19)
(4.72666 -5.10661 7.339e-19)
(4.59527 -4.93471 -6.43458e-19)
(4.47065 -4.77379 5.95677e-19)
(4.3533 -4.6241 -5.42033e-19)
(4.24362 -4.48584 4.82263e-21)
(4.143 -4.35842 -4.60137e-19)
(4.05369 -4.24054 -4.24919e-19)
(3.96758 -4.13974 -4.25212e-19)
(6.64365 -7.06296 0)
(6.24388 -7.03905 -9.99871e-19)
(6.18352 -6.83869 9.88397e-19)
(6.12594 -6.66508 1.72225e-18)
(6.04458 -6.49714 -1.55734e-18)
(5.94348 -6.31485 1.34405e-18)
(5.82219 -6.11966 -2.58392e-18)
(5.68419 -5.91707 -2.29265e-18)
(5.53532 -5.71234 -9.9926e-19)
(5.38119 -5.51007 4.39507e-20)
(5.22639 -5.31381 -8.26513e-19)
(5.0743 -5.126 3.45128e-20)
(4.92725 -4.94811 0)
(4.78667 -4.7809 -1.26193e-18)
(4.65338 -4.62471 6.44147e-19)
(4.52778 -4.47981 0)
(4.41031 -4.3463 -5.03832e-19)
(4.30255 -4.22339 -9.05403e-19)
(4.20676 -4.11067 8.89649e-19)
(4.11548 -4.02055 4.39074e-19)
(6.93298 -6.80944 0)
(6.54544 -6.81664 0)
(6.48314 -6.62761 -1.83177e-18)
(6.42018 -6.4606 -1.57318e-18)
(6.33046 -6.29686 3.1938e-18)
(6.21847 -6.11761 0)
(6.08488 -5.92532 0)
(5.93415 -5.72598 1.15175e-18)
(5.77275 -5.52503 0)
(5.60669 -5.32701 0)
(5.44073 -5.13536 0)
(5.2783 -4.95237 0)
(5.12164 -4.77933 0)
(4.97204 -4.61689 0)
(4.83007 -4.46532 0)
(4.69583 -4.32478 0)
(4.56961 -4.19516 0)
(4.45246 -4.07581 0)
(4.34456 -3.96974 0)
(4.23987 -3.89395 0)
(10.0352 0.08767 1.456e-19)
(10.015 -0.307402 2.83219e-19)
(9.97953 -0.699825 -2.90956e-19)
(9.92935 -1.08945 5.80127e-19)
(9.8642 -1.47595 -5.80126e-19)
(9.78393 -1.85881 -5.47941e-19)
(9.68866 -2.2375 -5.46429e-19)
(9.57858 -2.61147 1.72189e-18)
(9.45394 -2.98017 -1.14722e-18)
(9.31498 -3.34305 1.13772e-18)
(9.162 -3.69957 -1.13772e-18)
(8.99529 -4.04918 1.12942e-18)
(8.81518 -4.39138 -2.23997e-18)
(8.62202 -4.72565 3.29814e-18)
(8.41618 -5.05153 0)
(8.19805 -5.36854 -3.24106e-18)
(7.96802 -5.67628 1.59336e-20)
(7.7266 -5.97439 3.26727e-18)
(7.47391 -6.2627 0)
(7.2116 -6.54055 0)
(10.0982 -0.210922 0)
(10.0574 -0.606209 -1.49861e-20)
(9.99998 -0.99774 0)
(9.92648 -1.38518 5.54331e-19)
(9.83715 -1.76811 5.77482e-19)
(9.7322 -2.14592 -1.67089e-18)
(9.61192 -2.51798 2.91036e-18)
(9.47665 -2.88369 -1.14877e-18)
(9.32677 -3.24244 -1.09471e-18)
(9.16265 -3.59364 -1.09029e-18)
(8.98472 -3.93673 4.44361e-20)
(8.79341 -4.27117 1.11771e-18)
(8.58917 -4.59644 -5.55595e-18)
(8.37248 -4.91203 -1.16618e-18)
(8.14383 -5.2175 2.22047e-18)
(7.90374 -5.5124 2.2181e-18)
(7.65266 -5.79635 1.12739e-18)
(7.39117 -6.06903 -2.17306e-18)
(7.11936 -6.33017 1.02884e-18)
(6.83818 -6.57943 0)
(10.0397 -0.149853 1.30873e-19)
(10.0024 -0.540342 -2.68058e-19)
(9.94778 -0.9277 7.73875e-19)
(9.87627 -1.31124 -5.48508e-19)
(9.78824 -1.69031 -5.22799e-19)
(9.68404 -2.0642 5.46054e-19)
(9.56403 -2.4322 0)
(9.4286 -2.79362 0)
(9.27819 -3.1478 2.07288e-18)
(9.11322 -3.49409 3.09245e-18)
(8.93417 -3.83189 -9.77654e-19)
(8.74153 -4.16061 3.05813e-18)
(8.53581 -4.47967 -9.73578e-19)
(8.31754 -4.78857 -2.97873e-18)
(8.08728 -5.08679 1.32873e-20)
(7.84557 -5.37387 1.91164e-18)
(7.59295 -5.64938 -8.62215e-19)
(7.33 -5.91292 -1.88121e-18)
(7.05707 -6.1641 -1.01704e-18)
(6.77486 -6.40244 1.84922e-18)
(9.86686 -0.113532 0)
(9.83624 -0.494563 2.25745e-19)
(9.78843 -0.873285 2.24799e-19)
(9.72362 -1.2488 -9.23764e-19)
(9.64214 -1.62032 0)
(9.54433 -1.98708 0)
(9.43053 -2.34831 0)
(9.30114 -2.70327 0)
(9.15654 -3.05126 -9.78098e-19)
(8.99719 -3.3916 -9.74419e-19)
(8.82355 -3.72361 0)
(8.63613 -4.04667 1.84184e-18)
(8.43544 -4.36017 -4.55364e-18)
(8.22204 -4.66354 3.66199e-18)
(7.99648 -4.95623 -3.54912e-18)
(7.75935 -5.23773 -8.61235e-19)
(7.51121 -5.50755 1.55633e-19)
(7.25267 -5.76522 1.54082e-19)
(6.98424 -6.01028 -1.75486e-18)
(6.70665 -6.24226 -7.0778e-20)
(9.60985 -0.10017 0)
(9.58647 -0.468857 -2.22635e-19)
(9.54634 -0.835879 0)
(9.48955 -1.20034 4.45392e-19)
(9.41632 -1.5614 4.24444e-19)
(9.32693 -1.91828 3.8782e-19)
(9.22169 -2.27021 0)
(9.10095 -2.61643 0)
(8.96506 -2.95621 0)
(8.81443 -3.28883 0)
(8.64952 -3.61362 8.01435e-19)
(8.47078 -3.92989 8.63989e-19)
(8.27874 -4.23703 8.59206e-19)
(8.07391 -4.53442 -8.72229e-19)
(7.85684 -4.82147 -1.49968e-18)
(7.62813 -5.09763 1.70436e-18)
(7.38833 -5.36236 3.30412e-18)
(7.13808 -5.61515 1.6071e-18)
(6.87793 -5.8555 0)
(6.60858 -6.08293 -1.51423e-18)
(9.30064 -0.0913471 4.57076e-20)
(9.28409 -0.445812 0)
(9.25141 -0.799171 -7.4912e-19)
(9.20263 -1.15058 1.82559e-23)
(9.1379 -1.49921 1.60235e-20)
(9.05744 -1.84429 -6.79266e-20)
(8.96151 -2.18505 0)
(8.85041 -2.52074 3.0663e-20)
(8.72445 -2.85062 -7.60606e-19)
(8.584 -3.17399 1.48177e-18)
(8.42946 -3.49014 -1.54558e-18)
(8.26126 -3.7984 8.44942e-19)
(8.07987 -4.09813 -4.42519e-18)
(7.88579 -4.3887 2.91862e-18)
(7.67954 -4.66949 1.54794e-18)
(7.46168 -4.93992 0)
(7.23276 -5.19944 -2.85619e-18)
(6.99339 -5.44749 -6.11983e-20)
(6.74415 -5.68355 -2.81314e-18)
(6.48568 -5.9071 2.925e-18)
(8.96707 -0.0864229 4.10806e-20)
(8.95605 -0.425876 -8.60863e-20)
(8.92965 -0.764681 7.05925e-19)
(8.88783 -1.10205 -1.39362e-20)
(8.8307 -1.43719 7.05778e-19)
(8.75844 -1.76934 -1.06606e-18)
(8.67126 -2.09777 0)
(8.56941 -2.42174 7.18743e-19)
(8.45316 -2.74055 6.57735e-19)
(8.32283 -3.05347 -7.14739e-19)
(8.17878 -3.35984 1.30697e-18)
(8.0214 -3.659 2.77206e-18)
(7.85111 -3.95028 -1.28857e-18)
(7.66838 -4.23306 -1.39772e-18)
(7.47369 -4.50674 1.33996e-18)
(7.26756 -4.77071 0)
(7.05054 -5.02441 6.43537e-20)
(6.82319 -5.26725 9.58497e-21)
(6.58607 -5.49872 2.66434e-18)
(6.33979 -5.71824 1.23819e-18)
(8.62982 -0.0850697 0)
(8.62279 -0.409567 6.19205e-21)
(8.60115 -0.733756 -1.43478e-19)
(8.56484 -1.0569 -6.37597e-19)
(8.51394 -1.37824 5.99099e-19)
(8.44858 -1.69708 0)
(8.36894 -2.01269 1.21953e-18)
(8.27523 -2.32437 -1.33692e-21)
(8.16769 -2.63146 -1.86286e-18)
(8.04659 -2.93326 0)
(7.91224 -3.22912 -1.28617e-18)
(7.76501 -3.51839 4.55729e-20)
(7.60529 -3.80046 -3.61423e-18)
(7.43348 -4.07469 6.34026e-21)
(7.25005 -4.3405 1.2115e-18)
(7.05549 -4.59728 0)
(6.85031 -4.84446 -1.18922e-18)
(6.63503 -5.08147 8.50837e-21)
(6.41022 -5.30777 1.18072e-18)
(6.1764 -5.52277 -1.21847e-18)
(8.3024 -0.085953 0)
(8.29796 -0.396074 1.47144e-19)
(8.27966 -0.706115 3.0535e-19)
(8.24745 -1.01538 -5.64938e-19)
(8.20136 -1.32318 -2.4471e-20)
(8.14151 -1.62883 -2.82338e-19)
(8.06806 -1.93166 -1.13026e-18)
(7.98116 -2.23101 5.61907e-19)
(7.88104 -2.52622 2.35798e-20)
(7.76794 -2.81667 5.58551e-19)
(7.64215 -3.10171 5.13936e-19)
(7.50398 -3.38075 2.22689e-18)
(7.35379 -3.65316 1.11393e-18)
(7.19197 -3.91838 2.20008e-18)
(7.01895 -4.17581 -1.09717e-18)
(6.83518 -4.42487 3.83112e-20)
(6.64115 -4.66501 -1.08426e-18)
(6.43737 -4.89565 0)
(6.22437 -5.11625 1.02471e-18)
(6.00265 -5.32621 0)
(7.99254 -0.0879723 6.40162e-20)
(7.98957 -0.384578 -1.87458e-19)
(7.97344 -0.681245 5.14247e-19)
(7.94411 -0.977324 -2.5654e-19)
(7.90159 -1.27216 1.87669e-20)
(7.846 -1.56512 -2.56387e-19)
(7.77745 -1.85556 5.3315e-19)
(7.69609 -2.14287 -5.10121e-19)
(7.60213 -2.42644 5.10118e-19)
(7.49577 -2.70565 9.78158e-19)
(7.37728 -2.97993 -1.05454e-18)
(7.24695 -3.24869 -4.46088e-20)
(7.10512 -3.51135 -3.05195e-18)
(6.95213 -3.76738 5.27626e-21)
(6.78841 -4.0162 3.98143e-20)
(6.61439 -4.25728 1.97845e-18)
(6.43053 -4.49006 -9.77287e-19)
(6.23733 -4.71398 -9.30674e-19)
(6.0353 -4.9285 -3.7126e-20)
(5.82491 -5.13302 0)
(7.70381 -0.0903977 0)
(7.70146 -0.37447 2.38075e-19)
(7.68662 -0.658678 -8.18503e-19)
(7.65921 -0.942411 -2.1706e-19)
(7.61927 -1.22506 4.85755e-19)
(7.56689 -1.50601 0)
(7.50217 -1.78469 0)
(7.42525 -2.0605 4.64191e-19)
(7.33631 -2.33287 -4.64188e-19)
(7.23555 -2.60123 3.90612e-19)
(7.12321 -2.86502 -4.61195e-19)
(6.99956 -3.12372 9.14584e-19)
(6.86491 -3.37678 -1.82464e-18)
(6.7196 -3.62369 1.81521e-18)
(6.56404 -3.86392 3.43042e-20)
(6.39863 -4.09696 -9.33847e-19)
(6.22385 -4.32229 -8.88405e-19)
(6.04017 -4.53936 1.80999e-18)
(5.84811 -4.74763 8.47003e-19)
(5.64813 -4.94648 0)
(7.43699 -0.0927624 1.85323e-21)
(7.43471 -0.365291 1.56211e-19)
(7.42052 -0.637983 3.28055e-19)
(7.39435 -0.910265 2.29684e-19)
(7.35624 -1.18156 2.12972e-19)
(7.30627 -1.4513 1.98038e-19)
(7.24453 -1.71892 0)
(7.17116 -1.98389 -8.18548e-19)
(7.0863 -2.24564 -4.22036e-19)
(6.99017 -2.50367 3.59693e-19)
(6.88297 -2.75744 0)
(6.76497 -3.00646 8.33547e-19)
(6.63646 -3.25023 -2.46509e-18)
(6.49777 -3.48827 8.29275e-19)
(6.34928 -3.7201 0)
(6.19141 -3.94525 -7.88305e-19)
(6.02463 -4.16322 -1.59232e-18)
(5.84941 -4.3735 7.83445e-19)
(5.66631 -4.57553 -2.89009e-20)
(5.47577 -4.76869 0)
(7.19125 -0.0947701 3.4184e-21)
(7.18869 -0.3567 -1.0109e-19)
(7.17473 -0.618788 1.95044e-19)
(7.14933 -0.880493 -1.29412e-20)
(7.11252 -1.14127 3.8974e-19)
(7.06437 -1.40059 -5.98644e-19)
(7.00497 -1.65791 0)
(6.93445 -1.91272 5.52874e-20)
(6.85296 -2.16452 0)
(6.76067 -2.4128 -7.99136e-19)
(6.6578 -2.65709 0)
(6.5446 -2.89691 -7.37206e-19)
(6.42134 -3.13181 2.27889e-18)
(6.28834 -3.36135 -1.51006e-18)
(6.14598 -3.58509 7.52853e-19)
(5.99466 -3.80263 -6.65646e-19)
(5.83488 -4.01347 7.69549e-19)
(5.66713 -4.21718 -7.6428e-19)
(5.49203 -4.41315 0)
(5.31001 -4.60077 0)
(6.96487 -0.0962991 4.62412e-20)
(6.96184 -0.348475 0)
(6.94787 -0.600791 0)
(6.92293 -0.852733 -3.70487e-19)
(6.88705 -1.10378 -3.45672e-19)
(6.84031 -1.35344 0)
(6.78279 -1.60119 0)
(6.71462 -1.84655 4.91504e-20)
(6.63593 -2.08904 6.84498e-19)
(6.5469 -2.32819 -3.30051e-19)
(6.44772 -2.56355 -3.51742e-19)
(6.33863 -2.7947 1.42098e-18)
(6.2199 -3.0212 -2.10993e-18)
(6.09183 -3.24267 1.36038e-18)
(5.95478 -3.45871 0)
(5.80917 -3.66899 2.73315e-18)
(5.65551 -3.87303 -1.98406e-18)
(5.49431 -4.07052 6.75046e-19)
(5.32633 -4.26075 1.29071e-18)
(5.15198 -4.44318 0)
(6.75582 -0.0972824 -3.97337e-20)
(6.7522 -0.340455 0)
(6.73806 -0.583747 -5.14025e-21)
(6.71339 -0.826664 -3.17972e-19)
(6.67822 -1.06871 9.85407e-19)
(6.63262 -1.3094 -1.63916e-19)
(6.57667 -1.54827 0)
(6.51048 -1.78483 1.30573e-18)
(6.4342 -2.01864 -6.72511e-19)
(6.34798 -2.24927 4.38239e-20)
(6.25201 -2.47628 6.23055e-19)
(6.14651 -2.69927 6.38691e-19)
(6.03173 -2.91787 -1.27364e-18)
(5.90797 -3.13173 -1.24566e-18)
(5.77557 -3.34049 -1.21657e-18)
(5.63494 -3.54391 -1.29495e-18)
(5.48664 -3.74154 1.28609e-18)
(5.33117 -3.93324 -6.13805e-19)
(5.16954 -4.11817 -6.54298e-19)
(5.00205 -4.29598 0)
(6.5619 -0.0976975 3.90373e-20)
(6.55766 -0.332535 -1.46546e-19)
(6.54331 -0.567463 -1.51725e-19)
(6.51881 -0.802008 4.54295e-19)
(6.48422 -1.0357 -1.61366e-19)
(6.43958 -1.26806 -1.50797e-19)
(6.38499 -1.49866 0)
(6.32056 -1.72703 -6.19882e-19)
(6.24641 -1.95276 0)
(6.16269 -2.17543 6.15059e-19)
(6.06958 -2.39463 -1.18506e-18)
(5.96729 -2.61 5.86585e-19)
(5.85605 -2.82118 -1.16955e-18)
(5.73612 -3.02789 1.20704e-18)
(5.60785 -3.2298 6.57166e-19)
(5.47161 -3.42679 0)
(5.32801 -3.6184 -5.66889e-19)
(5.17751 -3.80485 5.66889e-19)
(5.02153 -3.98495 0)
(4.86007 -4.15904 0)
(6.38104 -0.0976285 0)
(6.37622 -0.324692 1.4398e-19)
(6.36163 -0.551815 4.64606e-21)
(6.33729 -0.778543 -1.48467e-19)
(6.30321 -1.00443 -1.30881e-19)
(6.25947 -1.22902 -1.38966e-19)
(6.20614 -1.45189 5.37056e-19)
(6.14333 -1.67262 0)
(6.07116 -1.89079 0)
(5.98977 -2.106 2.72921e-19)
(5.89932 -2.3179 2.89972e-19)
(5.8 -2.52612 1.04916e-18)
(5.69202 -2.73036 -5.36076e-19)
(5.57563 -2.93035 5.36075e-19)
(5.45113 -3.12582 5.69195e-19)
(5.31884 -3.31678 3.33712e-20)
(5.17941 -3.50278 -1.04499e-18)
(5.03321 -3.68454 3.74405e-21)
(4.88232 -3.86024 5.16779e-19)
(4.72593 -4.03183 0)
(6.21138 -0.0970794 -3.21743e-20)
(6.20603 -0.316895 3.2174e-20)
(6.19127 -0.536743 0)
(6.1671 -0.756184 1.21175e-19)
(6.13355 -0.974784 3.93651e-19)
(6.0907 -1.19212 -4.97474e-19)
(6.0386 -1.40778 -5.27675e-19)
(5.97738 -1.62136 0)
(5.90713 -1.83247 0)
(5.828 -2.04073 0)
(5.74013 -2.2458 -9.73858e-19)
(5.64369 -2.44734 -6.30097e-20)
(5.53887 -2.64507 -4.93746e-19)
(5.42587 -2.83876 2.96488e-20)
(5.30495 -3.02819 -9.76352e-19)
(5.17634 -3.21349 1.48799e-18)
(5.04074 -3.39424 -1.4096e-18)
(4.8982 -3.57194 4.78515e-19)
(4.75189 -3.74376 9.17128e-19)
(4.59923 -3.91442 0)
(6.05124 -0.0957041 2.8903e-20)
(6.04546 -0.308946 0)
(6.03061 -0.52221 -1.18993e-19)
(6.00668 -0.735065 -2.45199e-19)
(5.9737 -0.947096 1.18842e-19)
(5.93173 -1.1579 9.48977e-19)
(5.88086 -1.36708 0)
(5.82118 -1.57425 -4.57e-19)
(5.75279 -1.77905 -2.33731e-19)
(5.67582 -1.98111 -4.39057e-19)
(5.59041 -2.18011 -1.75595e-19)
(5.49669 -2.37574 -1.38614e-18)
(5.39484 -2.56772 -9.14858e-19)
(5.28498 -2.75585 9.4113e-19)
(5.16736 -2.93995 9.00698e-19)
(5.04199 -3.12024 -3.83976e-21)
(4.90965 -3.29639 2.94089e-20)
(4.76965 -3.47086 4.4084e-19)
(4.62688 -3.64005 -9.0117e-19)
(4.47489 -3.81347 0)
(5.89904 -0.0940271 -6.04424e-20)
(5.89298 -0.300977 2.97548e-20)
(5.87818 -0.508017 -1.18873e-19)
(5.85463 -0.714759 1.18819e-19)
(5.82235 -0.920814 -3.41731e-19)
(5.78138 -1.1258 -1.06408e-18)
(5.7318 -1.32933 0)
(5.67368 -1.53105 4.83575e-19)
(5.6071 -1.7306 -4.52118e-19)
(5.53216 -1.92764 9.57392e-19)
(5.44898 -2.12186 9.51659e-19)
(5.35766 -2.31295 1.40198e-18)
(5.25834 -2.50065 -9.09653e-19)
(5.15104 -2.68475 4.53088e-19)
(5.03601 -2.86509 -4.45521e-19)
(4.9129 -3.04185 4.45545e-19)
(4.78276 -3.2148 0)
(4.64301 -3.38699 4.03259e-19)
(4.50234 -3.55453 -3.94517e-19)
(4.34621 -3.73874 0)
(7.13173 7.25363 0)
(7.4114 6.96418 0)
(7.67819 6.66517 1.07535e-18)
(7.93282 6.35711 1.98001e-20)
(8.17471 6.0397 -1.1382e-18)
(8.40321 5.713 0)
(8.61789 5.37742 1.17415e-18)
(8.81844 5.03349 -2.21439e-18)
(9.00453 4.68177 -1.11897e-18)
(9.17587 4.32289 -1.12933e-18)
(9.3322 3.95745 1.12932e-18)
(9.4733 3.58613 -1.14117e-18)
(9.59896 3.2096 5.69251e-19)
(9.70901 2.82855 5.43009e-19)
(9.80327 2.44366 5.45116e-19)
(9.88168 2.05559 -5.78787e-19)
(9.94422 1.66499 5.78788e-19)
(9.99096 1.27257 -2.90552e-19)
(10.0218 0.878732 -1.37943e-19)
(10.0374 0.484813 7.26935e-20)
(7.39818 7.05215 0)
(7.67756 6.76333 -9.84291e-19)
(7.94319 6.46299 -2.10462e-18)
(8.19539 6.15183 3.11195e-18)
(8.4339 5.83015 -2.15826e-18)
(8.65823 5.49841 2.16826e-18)
(8.86789 5.1572 1.17922e-18)
(9.06248 4.80717 -3.34498e-18)
(9.2416 4.44902 1.09421e-18)
(9.40491 4.08346 2.17456e-18)
(9.55208 3.7112 1.07112e-18)
(9.68287 3.333 1.07785e-18)
(9.7971 2.94965 -1.13768e-18)
(9.89458 2.56188 1.67487e-18)
(9.97505 2.17047 -2.32447e-18)
(10.0384 1.77625 5.73659e-19)
(10.0846 1.38005 -5.51056e-19)
(10.1138 0.98267 0)
(10.1258 0.584645 1.50959e-20)
(10.121 0.18695 0)
(7.24972 6.92272 -1.73231e-18)
(7.53159 6.65129 9.7303e-19)
(7.80096 6.36709 1.77856e-18)
(8.05738 6.07078 8.04456e-19)
(8.30045 5.76293 2.01715e-18)
(8.52964 5.44416 1.95957e-20)
(8.74444 5.11511 -1.01097e-18)
(8.94435 4.77649 -3.01193e-18)
(9.12893 4.42901 2.97312e-18)
(9.29775 4.07337 -3.05209e-18)
(9.45042 3.71032 -1.01671e-18)
(9.58664 3.34062 -2.03399e-18)
(9.70611 2.96509 0)
(9.8086 2.58448 0)
(9.89396 2.19968 0)
(9.96204 1.81157 -5.18354e-19)
(10.0127 1.42099 5.43083e-19)
(10.0459 1.02881 5.20014e-19)
(10.0615 0.635718 6.23514e-21)
(10.0595 0.242687 1.30601e-19)
(7.02005 6.66928 1.79945e-18)
(7.29844 6.41641 -1.63319e-18)
(7.56553 6.15052 -1.68407e-19)
(7.82059 5.87214 -1.69344e-19)
(8.06308 5.58185 4.24383e-18)
(8.29245 5.28025 -7.08525e-20)
(8.50816 4.96796 3.59757e-21)
(8.70967 4.64564 -2.68342e-18)
(8.89649 4.31395 1.77028e-18)
(9.06817 3.97358 0)
(9.22421 3.6253 9.49644e-19)
(9.36427 3.26994 9.56165e-19)
(9.48807 2.90827 0)
(9.59531 2.5411 0)
(9.68575 2.16926 0)
(9.75921 1.79357 0)
(9.8155 1.41483 -2.15246e-20)
(9.8545 1.0339 4.67942e-19)
(9.87609 0.651582 -2.24641e-19)
(9.88027 0.26882 0)
(6.75648 6.35489 1.52283e-18)
(7.02692 6.11975 0)
(7.28717 5.87178 -4.48114e-18)
(7.53642 5.6114 -1.52726e-18)
(7.77404 5.33912 -1.60527e-18)
(7.99947 5.05551 -1.70185e-18)
(8.21215 4.76114 8.0397e-19)
(8.41151 4.45659 -8.44607e-19)
(8.59705 4.14251 2.34451e-18)
(8.7683 3.81957 -7.67332e-19)
(8.92487 3.48852 0)
(9.06626 3.1501 0)
(9.19207 2.80501 0)
(9.30205 2.45401 0)
(9.39592 2.0979 -1.2116e-18)
(9.47344 1.73751 4.16681e-19)
(9.5344 1.37362 -4.40271e-19)
(9.57863 1.00706 0)
(9.606 0.63865 2.21547e-19)
(9.61645 0.269284 0)
(6.48117 6.02861 1.3014e-18)
(6.74137 5.80952 -4.77771e-20)
(6.99229 5.57801 2.73739e-18)
(7.23316 5.33442 1.36727e-18)
(7.46332 5.07921 0)
(7.6822 4.81289 -1.45212e-18)
(7.88923 4.53598 6.7844e-20)
(8.08388 4.24903 -1.47388e-18)
(8.26563 3.95264 2.03779e-18)
(8.434 3.64743 3.2506e-20)
(8.58858 3.33405 2.79068e-20)
(8.72891 3.01312 -7.35115e-19)
(8.85459 2.68535 1.44151e-18)
(8.9653 2.35151 0)
(9.06079 2.01229 6.79614e-20)
(9.14075 1.66852 7.35877e-19)
(9.20492 1.32096 1.6044e-21)
(9.25311 0.970388 -1.52126e-20)
(9.28521 0.617592 0)
(9.30108 0.263398 -4.5613e-20)
(6.2149 5.71246 0)
(6.46378 5.5073 -4.86766e-20)
(6.70414 5.29024 1.72e-20)
(6.93522 5.06158 -2.47282e-18)
(7.1564 4.82172 0)
(7.3671 4.57111 1.25019e-18)
(7.56679 4.31024 1.33194e-18)
(7.75495 4.0396 -3.87434e-18)
(7.93107 3.75974 -6.76164e-20)
(8.0947 3.47122 -1.24346e-18)
(8.2454 3.17464 6.85026e-19)
(8.38275 2.8706 -6.32401e-19)
(8.50635 2.55977 -6.95574e-19)
(8.61584 2.24284 0)
(8.71099 1.92052 3.67047e-19)
(8.79158 1.59341 -1.67441e-20)
(8.85722 1.26235 -3.40526e-19)
(8.90771 0.928084 -1.66075e-20)
(8.94294 0.591351 -8.57169e-20)
(8.96274 0.252913 1.71803e-19)
(5.96859 5.41774 0)
(6.20593 5.22441 1.06851e-18)
(6.43532 5.01976 1.58435e-20)
(6.65608 4.80404 -1.08432e-18)
(6.86759 4.5776 0)
(7.06931 4.34086 1.12786e-18)
(7.26073 4.09425 -1.07656e-18)
(7.44136 3.83822 -1.1923e-18)
(7.61072 3.57329 2.26694e-18)
(7.76836 3.29996 1.22369e-18)
(7.91388 3.01881 0)
(8.04687 2.73039 5.96679e-19)
(8.16696 2.43534 -4.30282e-21)
(8.27383 2.1343 2.16706e-20)
(8.36707 1.82792 0)
(8.44654 1.51681 -5.87078e-19)
(8.5121 1.2016 -3.07639e-19)
(8.56333 0.883083 4.49407e-19)
(8.60011 0.561993 3.03013e-19)
(8.62228 0.239025 -4.05179e-20)
(5.74587 5.14927 0)
(5.97197 4.96595 -9.22005e-19)
(6.1906 4.77188 0)
(6.40109 4.56728 -9.94904e-19)
(6.60286 4.35247 1.95845e-18)
(6.79541 4.12781 -1.99715e-18)
(6.97825 3.89371 3.12581e-18)
(7.15092 3.65058 -3.11644e-18)
(7.31298 3.39891 -2.10551e-18)
(7.46401 3.13916 -1.55257e-18)
(7.60361 2.87188 5.32489e-19)
(7.73142 2.5976 -1.10406e-18)
(7.84707 2.31689 1.84744e-20)
(7.95026 2.03035 1.09734e-18)
(8.04069 1.73856 -2.76049e-19)
(8.11798 1.44225 1.13099e-18)
(8.18207 1.14189 -5.56175e-19)
(8.23277 0.838187 2.56106e-19)
(8.26982 0.531863 -1.46174e-19)
(8.29303 0.223583 0)
(5.54649 4.90749 0)
(5.76201 4.73268 1.78338e-18)
(5.97041 4.54767 8.64599e-19)
(6.17105 4.35266 -8.90255e-19)
(6.3634 4.14792 -1.82362e-18)
(6.54697 3.93379 2.77485e-18)
(6.72134 3.71063 1.10703e-20)
(6.88606 3.47885 -9.04111e-19)
(7.04073 3.23888 1.94186e-18)
(7.18495 2.99119 1.00302e-18)
(7.31836 2.73627 -9.36576e-19)
(7.44061 2.47463 4.91896e-19)
(7.55136 2.20682 2.22879e-20)
(7.65031 1.93339 -5.17723e-19)
(7.73718 1.65491 -2.50807e-19)
(7.81169 1.37196 5.029e-19)
(7.87361 1.08523 -2.52093e-19)
(7.92283 0.795204 -5.08723e-19)
(7.95919 0.502563 5.89211e-20)
(7.98243 0.20795 6.37421e-20)
(5.36834 4.69042 0)