/*--------------------------------*- C++ -*----------------------------------*\
  =========                 |
  \\      /  F ield         | OpenFOAM: The Open Source CFD Toolbox
   \\    /   O peration     | Website:  https://openfoam.org
    \\  /    A nd           | Version:  6.0
     \\/     M anipulation  |
\*---------------------------------------------------------------------------*/
FoamFile
{
    version     2.0;
    format      ascii;
    class       surfaceScalarField;
    location    "1.5";
    object      phi;
}
// * * * * * * * * * * * * * * * * * * * * * * * * * * * * * * * * * * * * * //

dimensions      [0 3 -1 0 0 0 0];

internalField   nonuniform List<scalar> 
18940
(
-3.53704e-05
-0.0117837
0.0118191
-0.000108649
-0.0105863
0.0106596
-0.000200378
-0.00957751
0.00966924
-0.000295563
-0.00873362
0.00882881
-0.000382451
-0.0080317
0.00811858
-0.000451931
-0.0074504
0.00751988
-0.000496963
-0.00697047
0.00701551
-0.000512138
-0.00657481
0.00658999
-0.000493372
-0.00624843
0.00622966
-0.000437692
-0.00597828
0.0059226
-0.000343085
-0.00575309
0.00565849
-0.000208401
-0.00556319
0.00542851
-3.32743e-05
-0.00540031
0.00522518
0.000181928
-0.00525743
0.00504222
0.000436153
-0.00512864
0.00487442
0.000727713
-0.00500906
0.0047175
0.00105435
-0.00489472
0.00456808
0.0014133
-0.0047825
0.00442355
0.00180135
-0.00466991
0.00428185
-0.00455495
0.00414146
0.00221484
-3.23289e-05
-0.0117514
-0.000100568
-0.010518
-0.000184396
-0.00949368
-0.00026877
-0.00864925
-0.000342212
-0.00795825
-0.000395926
-0.00739669
-0.00042317
-0.00694323
-0.000418813
-0.00657917
-0.000379012
-0.00628823
-0.000301003
-0.00605629
-0.000182948
-0.00587115
-2.38375e-05
-0.00572231
0.000176578
-0.00560073
0.000417835
-0.00549868
0.000698795
-0.0054096
0.00101768
-0.00532795
0.00137215
-0.00524918
0.00175931
-0.00516966
0.00217579
-0.00508639
-0.00499693
0.00261777
-2.95327e-05
-0.0117218
-9.06484e-05
-0.0104569
-0.000163497
-0.00942084
-0.000233322
-0.00857942
-0.000288999
-0.00790258
-0.000322092
-0.0073636
-0.000326206
-0.00693912
-0.000296513
-0.00660886
-0.000229441
-0.0063553
-0.000122447
-0.00616328
2.61294e-05
-0.00601973
0.000217155
-0.00591333
0.000450768
-0.00583434
0.000726414
-0.00577433
0.00104287
-0.00572606
0.00139829
-0.00568337
0.00179019
-0.00564108
0.00221555
-0.00559502
0.00267081
-0.00554165
-0.005478
0.00315188
-2.63165e-05
-0.0116955
-7.86571e-05
-0.0104046
-0.000137874
-0.00936162
-0.000189761
-0.00852754
-0.00022368
-0.00786866
-0.000231646
-0.00735563
-0.000207665
-0.0069631
-0.000147263
-0.00666927
-4.71615e-05
-0.0064554
9.49399e-05
-0.00630538
0.000280509
-0.00620529
0.000510269
-0.00614309
0.000784251
-0.00610832
0.00110182
-0.0060919
0.00146167
-0.00608592
0.00186187
-0.00608356
0.00229982
-0.00607903
0.00277233
-0.00606753
0.00327561
-0.00604492
-0.00600763
0.00380524
-2.25587e-05
-0.011673
-6.4602e-05
-0.0103625
-0.000107815
-0.00931841
-0.000138696
-0.00849665
-0.000147223
-0.00786013
-0.000125952
-0.0073769
-6.93579e-05
-0.00701969
2.66304e-05
-0.00676525
0.000164955
-0.00659373
0.000347646
-0.00648808
0.000575964
-0.00643361
0.000850479
-0.00641761
0.00117111
-0.00642895
0.00153715
-0.00645793
0.00194722
-0.00649599
0.00239931
-0.00653565
0.00289071
-0.00657044
0.00341805
-0.00659487
0.00397725
-0.00660412
-0.0065939
0.00456352
-1.82707e-05
-0.0116547
-4.86185e-05
-0.0103322
-7.36873e-05
-0.00929334
-8.08074e-05
-0.00848953
-6.06793e-05
-0.00788026
-6.48642e-06
-0.00743109
8.67531e-05
-0.00711293
0.000222649
-0.00690115
0.00040376
-0.00677484
0.00063181
-0.00671613
0.000907823
-0.00670963
0.0012322
-0.00674198
0.00160475
-0.0068015
0.00202468
-0.00687787
0.00249059
-0.00696189
0.00300036
-0.00704543
0.00355121
-0.00712129
0.00413958
-0.00718323
0.00476109
-0.00722563
-0.00724334
0.00541053
-1.3499e-05
-0.0116412
-3.08919e-05
-0.0103148
-3.59069e-05
-0.00928832
-1.6816e-05
-0.00850862
3.48592e-05
-0.00793193
0.000125221
-0.00752146
0.000258634
-0.00724634
0.00043818
-0.0070807
0.000665978
-0.00700264
0.000943397
-0.00699354
0.00127119
-0.00703742
0.00164956
-0.00712036
0.0020782
-0.00723014
0.00255625
-0.00735591
0.00308224
-0.00748789
0.00365406
-0.00761725
0.00426882
-0.00773605
0.00492281
-0.00783722
0.00561137
-0.00791419
-0.00796079
0.00632882
-8.30039e-06
-0.0116329
-1.16224e-05
-0.0103115
5.10246e-06
-0.00930505
5.25577e-05
-0.00855608
0.000138307
-0.00801768
0.000267655
-0.0076508
0.000444267
-0.00742296
0.000670628
-0.00730706
0.000948348
-0.00728036
0.00127838
-0.00732358
0.00166116
-0.00742019
0.00209666
-0.00755586
0.00258442
-0.00771791
0.00312352
-0.00789501
0.00371247
-0.00807684
0.00434916
-0.00825393
0.00503067
-0.00841756
0.00575317
-0.00855972
0.00651176
-0.00867278
-0.00874934
0.00730031
-2.73115e-06
-0.0116302
8.99394e-06
-0.0103232
4.89312e-05
-0.00934498
0.000126622
-0.00863377
0.000248627
-0.00813969
0.000419364
-0.00782154
0.000641722
-0.00764531
0.000917505
-0.00758284
0.00124774
-0.00761059
0.00163289
-0.00770873
0.00207299
-0.0078603
0.00256776
-0.00805062
0.00311654
-0.00826669
0.00371834
-0.0084968
0.00437168
-0.00873018
0.00507448
-0.00895674
0.00582389
-0.00916697
0.00661604
-0.00935187
0.00744584
-0.00950258
-0.00961024
0.00830675
3.15777e-06
-0.0116333
3.07772e-05
-0.0103508
9.52009e-05
-0.00940941
0.000204736
-0.00874331
0.000364852
-0.0082998
0.000578998
-0.00803569
0.000849202
-0.00791552
0.0011765
-0.00791014
0.00156124
-0.00799533
0.00200331
-0.0081508
0.00250228
-0.00835928
0.0030575
-0.00860584
0.0036681
-0.00887729
0.00433299
-0.00916169
0.0050507
-0.0094479
0.00581929
-0.00972532
0.00663602
-0.0099837
0.00749713
-0.010213
0.00839749
-0.0104029
-0.010543
0.00933021
9.3229e-06
-0.0116426
5.35676e-05
-0.0103951
0.000143571
-0.00949941
0.000286317
-0.00888605
0.000486102
-0.00849959
0.000745325
-0.00829491
0.00106506
-0.00823526
0.0014455
-0.00829057
0.0018862
-0.00843603
0.00238638
-0.00865097
0.00294503
-0.00891793
0.00356105
-0.00922185
0.00423326
-0.0095495
0.00496042
-0.00988885
0.00574112
-0.0102286
0.00657356
-0.0105578
0.0074553
-0.0108654
0.00838286
-0.0111405
0.00935123
-0.0113713
-0.0115451
0.0103534
1.57271e-05
-0.0116584
7.72256e-05
-0.0104566
0.000193736
-0.00961592
0.000370838
-0.00906315
0.000611575
-0.00874033
0.000917219
-0.00860055
0.00128782
-0.00860586
0.0017226
-0.00872535
0.00222026
-0.00893369
0.00277922
-0.00920993
0.00339775
-0.00953646
0.00407418
-0.00989828
0.00480691
-0.0102822
0.00559448
-0.0106764
0.00643547
-0.0110696
0.00732833
-0.0114506
0.00827105
-0.0118082
0.00926067
-0.0121302
0.0102926
-0.0124033
-0.0126125
0.01136
2.23391e-05
-0.0116807
0.000101628
-0.0105359
0.000245422
-0.00975972
0.000457814
-0.00927555
0.000740525
-0.00902304
0.00109363
-0.00895366
0.00151608
-0.0090283
0.00200605
-0.00921532
0.00256129
-0.00948893
0.00317927
-0.00982791
0.00385744
-0.0102146
0.00459335
-0.0106342
0.00538485
-0.0110737
0.00623008
-0.0115217
0.00712757
-0.0119671
0.00807602
-0.0123991
0.00907401
-0.0128062
0.0101194
-0.0131756
0.0112085
-0.0134924
-0.0137389
0.0123349
2.91317e-05
-0.0117098
0.000126663
-0.0106334
0.000298369
-0.00993142
0.000546777
-0.00952395
0.000872222
-0.00934848
0.00127353
-0.00935497
0.00174848
-0.00950326
0.00229418
-0.00976102
0.00290727
-0.010102
0.00358422
-0.0105049
0.00432147
-0.0109519
0.00511564
-0.0114284
0.00596375
-0.0119218
0.00686338
-0.0124213
0.00781277
-0.0129165
0.00881082
-0.0133971
0.00985683
-0.0138522
0.0109499
-0.0142686
0.0120877
-0.0146302
-0.0149162
0.013265
3.60815e-05
-0.0117459
0.000152229
-0.0107495
0.000352324
-0.0101315
0.000637249
-0.00980888
0.0010059
-0.00971714
0.00145583
-0.00980489
0.00198361
-0.010031
0.00258521
-0.0103626
0.00325616
-0.010773
0.0039918
-0.0112405
0.00478743
-0.0117475
0.00563857
-0.0122795
0.00654116
-0.0128244
0.00749185
-0.013372
0.00848828
-0.0139129
0.00952928
-0.0144381
0.0106148
-0.0149377
0.0117455
-0.0153993
0.0129214
-0.015806
-0.0161341
0.0141393
4.31746e-05
-0.0117891
0.000178232
-0.0108846
0.000407024
-0.0103603
0.000728713
-0.0101306
0.00114073
-0.0101292
0.00163931
-0.0103035
0.00221984
-0.0106116
0.00287713
-0.0110199
0.00360561
-0.0115015
0.00439945
-0.0120343
0.00525278
-0.0126008
0.00615982
-0.0131866
0.00711519
-0.0137798
0.00811423
-0.014371
0.00915344
-0.0149521
0.010231
-0.0155157
0.0113471
-0.0160538
0.0125042
-0.0165563
0.0137053
-0.0170072
-0.0173798
0.014951
5.04216e-05
-0.0118395
0.000204607
-0.0110388
0.000462201
-0.0106179
0.000820589
-0.010489
0.00127572
-0.0105843
0.00182252
-0.0108503
0.00245521
-0.0112443
0.00316749
-0.0117322
0.00395272
-0.0122867
0.00480399
-0.0128856
0.00571426
-0.0135111
0.0066765
-0.0141488
0.00768387
-0.0147872
0.00873001
-0.0154172
0.00980965
-0.0160317
0.0109193
-0.0166253
0.0120584
-0.0171929
0.0132301
-0.0177281
0.0144417
-0.0182188
-0.0186374
0.0156994
5.78973e-05
-0.0118974
0.000231342
-0.0112122
0.00051758
-0.0109041
0.000912215
-0.0108836
0.00140972
-0.0110818
0.00200375
-0.0114443
0.00268736
-0.0119279
0.00345322
-0.0124981
0.00429372
-0.0131272
0.00520105
-0.0137929
0.00616724
-0.0144773
0.00718418
-0.0151657
0.00824374
-0.0158467
0.00933785
-0.0165113
0.0104589
-0.0171528
0.0116007
-0.0177671
0.0127595
-0.0183517
0.013937
-0.0189057
0.0151434
-0.0194251
-0.0198915
0.0163974
6.59091e-05
-0.0119633
0.000258595
-0.0114049
0.000572904
-0.0112184
0.00100284
-0.0113135
0.00154141
-0.0116204
0.00218097
-0.0120838
0.00291345
-0.0126603
0.00373053
-0.0133151
0.0046238
-0.0140205
0.00558476
-0.0147539
0.0066049
-0.0154974
0.0076756
-0.0162364
0.00878809
-0.0169592
0.0099333
-0.0176565
0.0111017
-0.0183213
0.0122838
-0.0189491
0.0134706
-0.0195385
0.0146566
-0.0200917
0.0158492
-0.0206178
-0.0211384
0.0170961
7.56395e-05
-0.012039
0.000286773
-0.011616
0.000627851
-0.0115595
0.00109153
-0.0117772
0.00166924
-0.0121981
0.00235189
-0.0127665
0.00313023
-0.0134387
0.003995
-0.0141799
0.00493704
-0.0149625
0.00594745
-0.0157643
0.00701759
-0.0165676
0.00813918
-0.017358
0.0093042
-0.0181242
0.0105047
-0.018857
0.0117327
-0.0195492
0.0129791
-0.0201956
0.0142334
-0.0207928
0.0154805
-0.0213388
0.0167018
-0.0218391
-0.0223298
0.0178932
0.0143155
0.000133166
-0.0144486
0.014181
0.000134458
0.0140448
0.000136169
0.0139073
0.000137506
0.0137691
0.000138222
0.0136309
0.00013824
0.0134933
0.000137545
0.0133572
0.000136152
0.0132231
0.000134095
0.0130917
0.000131411
0.0129635
0.000128143
0.0128392
0.000124329
0.0127192
0.00012
0.012604
0.000115181
0.0124941
0.000109934
0.0123898
0.000104306
0.0122915
9.83172e-05
0.0121996
9.19161e-05
0.0121148
8.47975e-05
7.57834e-05
0.0176689
0.000452513
-0.0179882
0.0173381
0.00046521
0.0169983
0.000475938
0.0166516
0.0004843
0.0162997
0.000490081
0.0159447
0.000493205
0.0155886
0.000493674
0.0152332
0.000491542
0.0148804
0.000486902
0.0145319
0.000479867
0.0141895
0.000470557
0.0138548
0.000459091
0.0135292
0.000445568
0.0132142
0.000430135
0.0129112
0.000412933
0.0126214
0.000394127
0.0123459
0.000373814
0.0120859
0.00035193
0.0118425
0.000328248
0.000302202
0.020738
0.000902079
-0.0211876
0.0202673
0.000935956
0.0197788
0.000964445
0.0192757
0.000987394
0.0187611
0.00100469
0.018238
0.00101628
0.0177095
0.00102222
0.0171784
0.00102261
0.0166477
0.0010176
0.0161202
0.00100738
0.0155986
0.000992176
0.0150855
0.000972187
0.0145834
0.000947644
0.0140947
0.000918806
0.0136217
0.000885999
0.0131663
0.000849487
0.0127307
0.000809436
0.0123167
0.000765934
0.0119259
0.000718987
0.000668614
0.0235059
0.00143602
-0.0240398
0.0229412
0.00150069
0.0223495
0.00155612
0.0217347
0.00160215
0.0211007
0.00163867
0.0204514
0.00166564
0.0197905
0.0016831
0.0191219
0.00169119
0.0184494
0.0016901
0.0177767
0.0016801
0.0171074
0.00166147
0.0164451
0.00163451
0.0157931
0.00159959
0.0151548
0.00155713
0.0145332
0.00150757
0.0139314
0.0014513
0.0133523
0.00138856
0.0127986
0.0013196
0.0122729
0.0012447
0.00116433
0.0259647
0.00201677
-0.0265454
0.0253438
0.00212156
0.0246869
0.00221306
0.023998
0.00229095
0.0232817
0.00235502
0.0225422
0.00240515
0.021784
0.00244132
0.0210115
0.00246363
0.0202293
0.00247229
0.0194419
0.00246758
0.0186535
0.00244981
0.0178687
0.00241938
0.0170915
0.00237677
0.0163261
0.00232255
0.0155764
0.00225726
0.0148464
0.00218129
0.01414
0.00209497
0.0134609
0.0019987
0.0128125
0.00189303
0.00177879
0.028116
0.00261425
-0.0287135
0.0274697
0.00276783
0.0267787
0.00290407
0.0260473
0.00302243
0.0252798
0.00312245
0.0244811
0.00320386
0.0236559
0.00326649
0.0228092
0.00331036
0.0219459
0.00333559
0.021071
0.00334243
0.0201897
0.00333119
0.0193067
0.0033023
0.0184272
0.00325635
0.0175557
0.00319399
0.0166972
0.00311576
0.0158565
0.00302198
0.0150385
0.00291301
0.0142478
0.00278935
0.0134891
0.00265177
0.00250141
0.0299695
0.00320506
-0.0305603
0.0293223
0.00341509
0.0286224
0.00360398
0.027874
0.00377081
0.0270816
0.00391486
0.0262499
0.00403555
0.0253838
0.00413254
0.0244886
0.00420562
0.0235694
0.0042548
0.0226316
0.00428021
0.0216807
0.0042821
0.0207221
0.00426089
0.0197612
0.00421724
0.0188034
0.00415177
0.0178543
0.00406487
0.0169196
0.00395674
0.0160049
0.00382766
0.0151162
0.00367812
0.0142589
0.00350898
0.00332165
0.031541
0.0037716
-0.0321075
0.0309115
0.00404458
0.0302225
0.00429296
0.0294779
0.00451544
0.0286818
0.00471089
0.027839
0.00487841
0.0269541
0.00501736
0.0260325
0.00512727
0.0250794
0.00520792
0.0241003
0.00525926
0.023101
0.00528143
0.0220871
0.00527482
0.0210643
0.00524003
0.0200385
0.00517754
0.0190159
0.00508748
0.0180028
0.00496984
0.0170058
0.00482464
0.0160317
0.00465219
0.0150875
0.0044532
0.00422924
0.0328505
0.00430134
-0.0333802
0.0322526
0.00464246
0.0315895
0.00495601
0.0308648
0.00524022
0.0300821
0.00549354
0.0292458
0.00571469
0.0283606
0.00590263
0.0274312
0.00605659
0.0264631
0.00617604
0.0254617
0.00626069
0.0244326
0.00631048
0.0233817
0.00632577
0.0223147
0.00630702
0.0212379
0.00625439
0.0201577
0.00616767
0.019081
0.0060465
0.0180151
0.00589051
0.0169679
0.00569944
0.0159476
0.00547354
0.00521431
0.0339211
0.00478603
-0.0344058
0.0333644
0.00519918
0.0327381
0.00558229
0.0320451
0.00593315
0.0312889
0.00624975
0.0304733
0.00653037
0.0296024
0.00677354
0.0286808
0.00697812
0.0277137
0.00714321
0.0267062
0.00726819
0.0256638
0.00735288
0.0245921
0.00739747
0.0234969
0.00740215
0.0223846
0.00736674
0.0212616
0.00729063
0.0201351
0.00717297
0.0190129
0.0070127
0.0179038
0.00680857
0.0168175
0.00655985
0.0062675
0.034777
0.00522097
-0.035212
0.0342675
0.00570873
0.0336852
0.00616455
0.0330326
0.00658577
0.0323124
0.00696991
0.031528
0.00731478
0.0306831
0.00761846
0.0297819
0.00787937
0.0288288
0.00809621
0.027829
0.00826807
0.0267874
0.0083945
0.0257093
0.00847553
0.0246004
0.00851107
0.0234666
0.00850049
0.0223145
0.00844277
0.0211509
0.00833652
0.019984
0.00817959
0.0188234
0.00796924
0.0176803
0.00770292
0.00738025
0.0354429
0.0056043
-0.0358263
0.0349836
0.00616807
0.0344496
0.00669857
0.0338427
0.00719267
0.0331651
0.00764745
0.0324197
0.00806023
0.0316095
0.00842863
0.0307382
0.00875062
0.02981
0.00902449
0.0288291
0.00924892
0.0278003
0.00942333
0.0267283
0.00954754
0.0256183
0.00962103
0.024476
0.00964285
0.0233071
0.00961167
0.0221182
0.00952536
0.0209173
0.00938049
0.0197145
0.0091721
0.0185227
0.00889466
0.00854493
0.0359426
0.00593635
-0.0362746
0.0355342
0.00657649
0.0350502
0.00718254
0.0344919
0.00775095
0.033861
0.00827835
0.0331596
0.00876161
0.0323904
0.00919788
0.0315564
0.00958466
0.0306611
0.00991978
0.0297083
0.0102017
0.0287022
0.0104295
0.0276469
0.0106028
0.0265471
0.0107208
0.0254075
0.0107824
0.0242333
0.0107859
0.0230301
0.0107286
0.021805
0.0106055
0.0205682
0.0104089
0.0193345
0.0101284
0.00975523
0.0362985
0.0062191
-0.0365813
0.03594
0.00693507
0.0355059
0.00761659
0.0349971
0.00825975
0.0344147
0.00886074
0.0337603
0.00941599
0.033036
0.00992221
0.0322442
0.0103764
0.031388
0.0107761
0.0304704
0.0111192
0.029495
0.0114049
0.0284653
0.0116325
0.0273853
0.0118009
0.0262588
0.0119088
0.0250898
0.0119549
0.0238824
0.0119359
0.0226424
0.0118456
0.021379
0.0116723
0.0201084
0.011399
0.0110066
0.0365315
0.00645564
-0.0367681
0.0362204
0.00724619
0.0358346
0.00800233
0.0353746
0.00871981
0.0348409
0.00939444
0.0342346
0.0100223
0.0335573
0.0105995
0.0328109
0.0111228
0.0319979
0.0115891
0.0311207
0.0119964
0.0301822
0.0123434
0.0291854
0.0126293
0.0281335
0.0128527
0.0270293
0.0130131
0.0258752
0.013109
0.0246735
0.0131376
0.0234275
0.0130916
0.022144
0.0129557
0.0208397
0.0127033
0.0122972
0.0366602
0.00664985
-0.0368544
0.0363932
0.00751315
0.0360531
0.00834241
0.0356398
0.00913307
0.0351537
0.00988063
0.0345952
0.0105807
0.0339655
0.0112292
0.033266
0.0118223
0.0324986
0.0123565
0.0316654
0.0128297
0.0307685
0.0132403
0.0298104
0.0135873
0.0287936
0.0138696
0.0277197
0.0140869
0.0265897
0.0142391
0.0254034
0.0143239
0.0241605
0.0143346
0.0228635
0.0142527
0.0215269
0.0140399
0.0136285
0.0367011
0.00680596
-0.0368572
0.0364744
0.00773981
0.0361766
0.00864021
0.0358073
0.00950237
0.0353665
0.0103215
0.0348543
0.0110929
0.0342715
0.011812
0.0336191
0.0124747
0.0328985
0.0130771
0.0321113
0.0136169
0.0312592
0.0140924
0.0303442
0.0145022
0.0293682
0.0148457
0.0283318
0.0151233
0.0272344
0.0153364
0.0260735
0.0154849
0.024844
0.015564
0.0235413
0.0155554
0.0221724
0.0154087
0.0150082
0.0366687
0.00692842
-0.0367912
0.0364782
0.00793032
0.0362189
0.00889954
0.0358901
0.0098311
0.0354917
0.0107199
0.0350236
0.011561
0.0344861
0.0123495
0.0338798
0.0130809
0.0332059
0.013751
0.0324655
0.0143573
0.0316601
0.0148978
0.0307914
0.015371
0.0298605
0.0157766
0.0288676
0.0161162
0.0278111
0.0163928
0.0266862
0.0166098
0.0254827
0.0167675
0.0241855
0.0168527
0.0227847
0.0168095
0.0164541
0.0365751
0.00702161
-0.0366683
0.0364165
0.00808892
0.0361916
0.00912443
0.0358997
0.010123
0.0355404
0.0110792
0.0351134
0.011988
0.0346188
0.0128441
0.034057
0.0136426
0.0334288
0.0143793
0.0327351
0.015051
0.0319771
0.0156557
0.0311564
0.0161917
0.0302738
0.0166591
0.0293295
0.0170606
0.0283214
0.017401
0.0272436
0.0176876
0.0260828
0.0179282
0.0248121
0.0181233
0.023391
0.0182307
0.018006
0.0364298
-0.036498
0.00708982
0.0362989
0.00821988
0.0361043
0.00931902
0.0358453
0.0103819
0.0355214
0.0114032
0.0351321
0.0123773
0.0346776
0.0132987
0.0341578
0.0141624
0.0335734
0.0149637
0.0329252
0.0156993
0.0322144
0.0163665
0.0314422
0.0169639
0.0306098
0.0174916
0.0297174
0.0179529
0.0287638
0.0183546
0.0277439
0.0187075
0.026646
0.0190262
0.025442
0.0193273
0.0240685
0.0196042
0.0197447
0.0153021
-6.40427e-05
-0.0152381
0.0153574
-5.52868e-05
0.0154016
-4.42159e-05
0.0154339
-3.2285e-05
0.0154539
-2.00146e-05
0.0154616
-7.6458e-06
0.0154569
4.67619e-06
0.0154401
1.68479e-05
0.0154113
2.87837e-05
0.0153709
4.0406e-05
0.0153192
5.16401e-05
0.0152568
6.24148e-05
0.0151842
7.26614e-05
0.0151018
8.23151e-05
0.0150105
9.13143e-05
0.0149109
9.95962e-05
0.0148038
0.000107087
0.0146902
0.000113671
0.0145711
0.000119076
0.000122453
0.0195898
-0.000269757
-0.0193841
0.0197659
-0.000231375
0.0199124
-0.000190654
0.0200286
-0.000148511
0.0201142
-0.000105572
0.0201688
-6.22671e-05
0.0201924
-1.89415e-05
0.0201851
2.41047e-05
0.0201473
6.65948e-05
0.0200795
0.000108263
0.0199823
0.000148849
0.0198566
0.000188096
0.0197035
0.000225758
0.0195242
0.000261593
0.0193201
0.000295371
0.0190929
0.000326863
0.0188441
0.000355834
0.0185758
0.000382005
0.0182899
0.00040498
0.000424134
0.0228356
-0.000610026
-0.0224953
0.0231331
-0.000528867
0.0233876
-0.00044516
0.0235985
-0.000359473
0.0237653
-0.000272395
0.0238876
-0.000184473
0.0239648
-9.62323e-05
0.0239971
-8.19109e-06
0.0239846
7.91367e-05
0.0239276
0.000165235
0.0238269
0.000249583
0.0236833
0.000331665
0.0234981
0.000410967
0.0232727
0.000486987
0.0230088
0.000559242
0.0227085
0.000627256
0.0223737
0.000690567
0.022007
0.000748699
0.0216109
0.000801148
0.000847376
0.0252357
-0.0010733
-0.0247724
0.0256482
-0.000941445
0.0260093
-0.000806194
0.0263179
-0.000668055
0.0265731
-0.000527627
0.0267742
-0.000385558
0.0269205
-0.000242539
0.0270116
-9.93004e-05
0.0270473
4.33913e-05
0.0270278
0.00018474
0.0269535
0.000323927
0.026825
0.000460121
0.0266435
0.00059249
0.0264103
0.00072021
0.026127
0.000842477
0.0257958
0.000958509
0.0254188
0.00106755
0.0249986
0.00116887
0.024538
0.00126177
0.00134557
0.0269552
-0.00164569
-0.0263828
0.0274725
-0.00145879
0.0279335
-0.00126712
0.0283366
-0.00107123
0.0286808
-0.000871776
0.0289647
-0.000669492
0.0291874
-0.000465222
0.029348
-0.000259898
0.0294459
-5.45384e-05
0.0294809
0.000149774
0.0294529
0.000351902
0.0293624
0.000550675
0.0292099
0.000744908
0.0289967
0.000933416
0.0287242
0.00111503
0.0283941
0.00128862
0.0280085
0.00145308
0.02757
0.00160736
0.0270813
0.00175047
0.00188149
0.0281346
-0.00231209
-0.0274682
0.0287442
-0.00206838
0.0292953
-0.00181816
0.0297861
-0.00156202
0.0302149
-0.00130065
0.0305803
-0.00103486
0.0308807
-0.000765615
0.0311148
-0.000494037
0.0312817
-0.000221385
0.0313805
5.09695e-05
0.0314108
0.000321567
0.0313726
0.000588888
0.0312661
0.000851381
0.0310921
0.00110748
0.0308515
0.00135565
0.0305457
0.00159434
0.0301767
0.0018221
0.0297466
0.00203749
0.0292579
0.00223917
0.00242589
0.0288924
-0.00305723
-0.0281473
0.0295808
-0.00275682
0.0302106
-0.00244793
0.0307797
-0.00213113
0.0312861
-0.00180708
0.0317279
-0.0014766
0.0321031
-0.00114079
0.0324099
-0.000800923
0.0326471
-0.0004585
0.0328132
-0.000115176
0.0329075
0.000227268
0.0329294
0.000566967
0.0328788
0.000902004
0.0327558
0.00123044
0.0325612
0.00155033
0.0322957
0.00185976
0.031961
0.00215687
0.0315586
0.00243983
0.0310909
0.00270691
0.00295646
0.0293267
-0.00386656
-0.0285173
0.0300807
-0.00351089
0.0307775
-0.00314466
0.0314146
-0.00276827
0.0319898
-0.00238226
0.0325007
-0.00198747
0.0329449
-0.00158504
0.0333204
-0.00117644
0.0336253
-0.000763392
0.033858
-0.00034785
0.0340172
6.80939e-05
0.0341019
0.000482236
0.0341116
0.000892306
0.034046
0.001296
0.0339053
0.00169101
0.0336901
0.00207503
0.0334011
0.0024458
0.0330399
0.00280111
0.0326079
0.00313883
0.00345689
0.0295179
-0.00472683
-0.0286576
0.0303253
-0.00431826
0.0310776
-0.00389699
0.0317724
-0.00346309
0.032407
-0.00301688
0.0329787
-0.00255912
0.0334847
-0.00209107
0.0339226
-0.00161436
0.0342902
-0.001131
0.0345856
-0.000643224
0.0348072
-0.000153445
0.0349536
0.000335808
0.035024
0.000821936
0.0350177
0.0013023
0.0349344
0.00177424
0.0347743
0.00223512
0.0345378
0.00268229
0.0342258
0.00311318
0.0338394
0.00352525
0.00391602
0.0295307
-0.0056264
-0.0286312
0.0303804
-0.00516796
0.0311781
-0.00469464
0.0319209
-0.00420591
0.0326058
-0.0037018
0.0332297
-0.00318299
0.0337895
-0.00265086
0.0342825
-0.00210733
0.0347061
-0.00155469
0.0350584
-0.000995506
0.0353375
-0.000432508
0.0355418
0.00013147
0.0356702
0.00069353
0.0357218
0.00125074
0.0356959
0.00180014
0.0355922
0.00233878
0.0354108
0.00286369
0.0351521
0.00337195
0.0348167
0.00386065
0.00432694
0.0294164
-0.00655544
-0.0284874
0.0302992
-0.00605071
0.0311333
-0.00552875
0.0319155
-0.00498816
0.0326423
-0.00442859
0.0333101
-0.00385075
0.0339155
-0.00325628
0.0344556
-0.00264747
0.0349279
-0.00202698
0.0353302
-0.00139774
0.0356604
-0.00076279
0.0359171
-0.00012524
0.0360989
0.000511755
0.0362046
0.00114502
0.0362334
0.00177135
0.0361847
0.00238752
0.0360581
0.00299033
0.0358535
0.00357652
0.0355712
0.00414288
0.00468621
0.0292148
-0.00750593
-0.0282643
0.0301232
-0.00695906
0.0309865
-0.00639211
0.0318009
-0.00580254
0.0325621
-0.00518974
0.033266
-0.00455465
0.0339091
-0.00389942
0.0344885
-0.00322685
0.0350016
-0.00254009
0.0354463
-0.00184242
0.0358207
-0.0011372
0.0361232
-0.00042776
0.0363524
0.000282536
0.0365071
0.000990329
0.0365862
0.00169224
0.0365889
0.00238485
0.0365145
0.00306473
0.0363626
0.00372839
0.0361331
0.00437235
0.0049931
0.0289566
-0.00847178
-0.0279908
0.0298851
-0.00788753
0.0307722
-0.00727921
0.0316128
-0.00664309
0.0324017
-0.00597864
0.0331345
-0.00528753
0.0338078
-0.00457271
0.0344187
-0.00383772
0.0349649
-0.00308623
0.0354443
-0.00232192
0.0358555
-0.00154836
0.0361968
-0.000769079
0.0364669
1.24342e-05
0.0366646
0.000792705
0.0367886
0.00156824
0.0368379
0.00233549
0.0368118
0.00309087
0.0367094
0.00383072
0.0365305
0.00455133
0.00524893
0.0286652
-0.00944885
-0.0276881
0.0296103
-0.00883272
0.0305173
-0.00818621
0.0313792
-0.00750493
0.0321899
-0.0067894
0.0329451
-0.00604268
0.0336413
-0.00526895
0.0342762
-0.00447263
0.0348479
-0.00365791
0.0353548
-0.00282879
0.0357954
-0.001989
0.0361685
-0.00114218
0.0364728
-0.000291839
0.036707
0.000558488
0.03687
0.00140526
0.0369606
0.00224486
0.0369779
0.00307362
0.0369209
0.00388774
0.0367888
0.00468335
0.00545648
0.0283582
-0.0104352
-0.0273718
0.0293188
-0.00979331
0.0302431
-0.00911053
0.031122
-0.00838385
0.031949
-0.00761644
0.03272
-0.00681365
0.0334323
-0.00598124
0.0340841
-0.00512449
0.0346743
-0.00424804
0.0352015
-0.00335604
0.0356648
-0.00245228
0.036063
-0.00154036
0.0363949
-0.000623789
0.0366595
0.000293939
0.0368554
0.00120929
0.0369817
0.00211864
0.037037
0.00301826
0.0370205
0.00390429
0.0369311
0.00477274
0.00561951
0.0280496
-0.0114317
-0.0270532
0.0290263
-0.01077
0.0299661
-0.0100503
0.0308577
-0.00927552
0.0316952
-0.00845395
0.0324756
-0.00759397
0.0331972
-0.00670292
0.0338595
-0.0057867
0.0344615
-0.00485013
0.0350028
-0.00389731
0.0354825
-0.00293194
0.0358996
-0.00195751
0.0362533
-0.000977406
0.0365422
4.9497e-06
0.0367655
0.000986078
0.0369217
0.00196239
0.0370098
0.00293014
0.0370287
0.00388545
0.0369772
0.00482425
0.00574232
0.0277512
-0.0124431
-0.0267397
0.0287463
-0.0117651
0.0296991
-0.0110031
0.0305982
-0.0101746
0.0314397
-0.00929551
0.0322229
-0.00837708
0.0329476
-0.00742767
0.0336142
-0.00645327
0.0342225
-0.00545846
0.0347723
-0.00444708
0.0352629
-0.00342258
0.0356937
-0.00238826
0.0360636
-0.00134735
0.0363717
-0.000303153
0.0366169
0.000740929
0.0367979
0.00178136
0.0369136
0.00281443
0.0369628
0.00383624
0.0369444
0.00484269
0.00582949
0.0274745
-0.013482
-0.0264357
0.0284904
-0.012781
0.0294514
-0.011964
0.0303505
-0.0110738
0.0311888
-0.0101338
0.0319682
-0.00915646
0.0326903
-0.0081498
0.0333561
-0.00711908
0.0339659
-0.00606828
0.0345196
-0.00500077
0.0350167
-0.00391968
0.0354565
-0.00282807
0.0358382
-0.00172902
0.0361608
-0.000625706
0.0364231
0.000478576
0.0366241
0.00158034
0.0367626
0.00267593
0.0368374
0.00376146
0.0368473
0.00483281
0.00588565
0.0272386
-0.0145711
-0.0261495
0.0282701
-0.0138125
0.0292279
-0.0129218
0.0301169
-0.0119628
0.030944
-0.0109609
0.0317137
-0.00992621
0.0324285
-0.00886464
0.0330896
-0.00778016
0.0336973
-0.00667593
0.0342513
-0.00555483
0.0347513
-0.00441966
0.0351965
-0.00327328
0.0355861
-0.00211862
0.0359192
-0.000958741
0.0361946
0.000203139
0.0364113
0.0013636
0.0365682
0.00251903
0.0366641
0.00366556
0.0366979
0.00479908
0.00591523
0.0270709
-0.0259165
-0.0157255
0.0280918
-0.0148334
0.0290255
-0.0138556
0.0298927
-0.0128299
0.030702
-0.0117701
0.0314579
-0.0106822
0.0321625
-0.00956922
0.0328163
-0.00843398
0.0334194
-0.00727899
0.0339713
-0.00610676
0.0344715
-0.00491987
0.0349193
-0.00372103
0.0353137
-0.00251306
0.0356539
-0.00129895
0.0359389
-8.18482e-05
0.0361676
0.00113488
0.036339
0.00234765
0.036452
0.00355262
0.0365053
0.0047457
0.00592252
0.0225906
0.00304002
-0.00172701
-0.0239036
0.0212656
0.00313522
-0.00181017
0.0199282
0.00324265
-0.00190524
0.0185783
0.00336544
-0.00201554
0.017216
0.00350754
-0.00214528
0.015842
0.00367369
-0.00229965
0.0144574
0.00386968
-0.00248508
0.0130643
0.00410247
-0.00270943
0.0116661
0.0043802
-0.00298203
0.0102678
0.00471207
-0.00331369
0.00887629
0.00510804
-0.00371655
0.00750157
0.00557833
-0.00420361
0.00615707
0.00613253
-0.00478803
0.0048608
0.00677823
-0.00548196
0.00363642
0.00751924
-0.00629487
0.00251461
0.008353
-0.00723119
0.00153447
0.00926729
-0.00828715
0.000745313
0.0102358
-0.00944669
0.000208599
0.0112127
-0.010676
0.0121243
-0.0119157
0.0225898
0.00435133
-0.0239011
0.0212664
0.00445867
0.0199304
0.00457857
0.0185819
0.00471399
0.0172208
0.0048686
0.0158478
0.00504671
0.014464
0.00525347
0.0130715
0.00549496
0.0116736
0.00577809
0.0102753
0.00611044
0.00888346
0.00649983
0.00750814
0.00695366
0.00616278
0.00747788
0.00486547
0.00807554
0.00364
0.00874472
0.00251717
0.00947583
0.0015363
0.0102482
0.00074682
0.0110253
0.000209919
0.0117496
0.0123342
0.0225444
0.00565907
-0.0238521
0.0212244
0.00577866
0.0198918
0.00591114
0.0185465
0.00605929
0.0171886
0.00622653
0.0158186
0.00641672
0.0144377
0.00663438
0.0130479
0.0068847
0.0116526
0.00717338
0.0102567
0.00750637
0.00886722
0.00788932
0.00749406
0.00832681
0.00615077
0.00882117
0.00485546
0.00937085
0.00363199
0.00996819
0.0025112
0.0105966
0.00153239
0.011227
0.000744855
0.0118129
0.000209413
0.012285
0.0125436
0.0224548
0.00696146
-0.0237571
0.02114
0.00709339
0.0198126
0.00723854
0.0184724
0.00739949
0.0171195
0.00757943
0.0157545
0.00778176
0.0143785
0.00801036
0.0129937
0.00826954
0.0116033
0.0085638
0.0102122
0.00889744
0.00882759
0.00927394
0.00745935
0.00969506
0.00612102
0.0101595
0.00483076
0.0106611
0.00361239
0.0111866
0.0024967
0.0117123
0.00152285
0.0122008
0.000739802
0.0125959
0.000207809
0.012817
0.0127514
0.0223214
0.00825677
-0.0236167
0.0210137
0.00840115
0.0196932
0.00855901
0.0183599
0.0087328
0.0170139
0.00892544
0.0156558
0.00913988
0.0142867
0.00937938
0.0129089
0.00964735
0.0115256
0.00994708
0.0101418
0.0102812
0.00876467
0.0106511
0.00740407
0.0110557
0.0060736
0.01149
0.00479141
0.0119433
0.00358126
0.0123967
0.00247378
0.0128198
0.00150784
0.0131668
0.000731871
0.0133719
0.000205306
0.0133436
0.0129567
0.022145
0.00954339
-0.0234316
0.0208459
0.00970028
0.019534
0.00987088
0.0182093
0.0100575
0.0168719
0.0102628
0.0155226
0.0104892
0.0141625
0.0107395
0.0127938
0.011016
0.0114199
0.011321
0.0100457
0.0116554
0.00867855
0.0120183
0.00732832
0.0124059
0.00600861
0.0128097
0.00473751
0.0132144
0.00353869
0.0135955
0.00244253
0.0139159
0.00148745
0.0141218
0.000721171
0.0141382
0.000201973
0.0138628
0.0131587
0.0219261
0.0108198
-0.0232026
0.0206371
0.0109893
0.0193354
0.0111726
0.0180209
0.011372
0.016694
0.0115897
0.0153552
0.011828
0.014006
0.0120887
0.0126484
0.0123736
0.0112861
0.0126833
0.009924
0.0130175
0.00856936
0.0133729
0.00723221
0.013743
0.00592614