/*--------------------------------*- C++ -*----------------------------------*\
  =========                 |
  \\      /  F ield         | OpenFOAM: The Open Source CFD Toolbox
   \\    /   O peration     | Website:  https://openfoam.org
    \\  /    A nd           | Version:  6.0
     \\/     M anipulation  |
\*---------------------------------------------------------------------------*/
FoamFile
{
    version     2.0;
    format      ascii;
    class       volScalarField;
    location    "14";
    object      p;
}
// * * * * * * * * * * * * * * * * * * * * * * * * * * * * * * * * * * * * * //

dimensions      [0 2 -2 0 0 0 0];

internalField   nonuniform List<scalar> 
19200
(
-0.401425
-0.396376
-0.392614
-0.389488
-0.38662
-0.383987
-0.381545
-0.37924
-0.377034
-0.374899
-0.372816
-0.370771
-0.368753
-0.366757
-0.36478
-0.362818
-0.360872
-0.358943
-0.357032
-0.355141
-0.35327
-0.351423
-0.3496
-0.347802
-0.34603
-0.344292
-0.342584
-0.34085
-0.339075
-0.33785
-0.405042
-0.399868
-0.396075
-0.392921
-0.390008
-0.387317
-0.384802
-0.382414
-0.380115
-0.377881
-0.375693
-0.373539
-0.37141
-0.369301
-0.367209
-0.365134
-0.363077
-0.361038
-0.35902
-0.357024
-0.355054
-0.35311
-0.351196
-0.349311
-0.347459
-0.345646
-0.34387
-0.342065
-0.340208
-0.338991
-0.409234
-0.403845
-0.399954
-0.396735
-0.393751
-0.390979
-0.388374
-0.385886
-0.383481
-0.381133
-0.378826
-0.37655
-0.374296
-0.372062
-0.369844
-0.367644
-0.365464
-0.363304
-0.361168
-0.359058
-0.356978
-0.35493
-0.352916
-0.350938
-0.348998
-0.347105
-0.345255
-0.343373
-0.341424
-0.34023
-0.413788
-0.408241
-0.40425
-0.400944
-0.397868
-0.394995
-0.392281
-0.389676
-0.387147
-0.38467
-0.382229
-0.379816
-0.377424
-0.37505
-0.372694
-0.370357
-0.368041
-0.365749
-0.363484
-0.361249
-0.35905
-0.356887
-0.354765
-0.352685
-0.35065
-0.34867
-0.346742
-0.344776
-0.342727
-0.341568
-0.418753
-0.413062
-0.408961
-0.40555
-0.402361
-0.399369
-0.396528
-0.39379
-0.39112
-0.388498
-0.385909
-0.383345
-0.3808
-0.378274
-0.375766
-0.373278
-0.370814
-0.368377
-0.365972
-0.363602
-0.361272
-0.358985
-0.356746
-0.354555
-0.352417
-0.350343
-0.348331
-0.346274
-0.344115
-0.343005
-0.424163
-0.41832
-0.414093
-0.410559
-0.407241
-0.404111
-0.401126
-0.398236
-0.39541
-0.392627
-0.389874
-0.387143
-0.384432
-0.381739
-0.379065
-0.376414
-0.37379
-0.371196
-0.368638
-0.366121
-0.363649
-0.361228
-0.358861
-0.35655
-0.354301
-0.352126
-0.350024
-0.347868
-0.345589
-0.344542
-0.430037
-0.424026
-0.419656
-0.415983
-0.412516
-0.40923
-0.406083
-0.403024
-0.400025
-0.397064
-0.394132
-0.39122
-0.388327
-0.385453
-0.3826
-0.379772
-0.376974
-0.37421
-0.371487
-0.36881
-0.366185
-0.363618
-0.361112
-0.358672
-0.356302
-0.354018
-0.351819
-0.349557
-0.347148
-0.346177
-0.436388
-0.43019
-0.425661
-0.421829
-0.418196
-0.414736
-0.411407
-0.408163
-0.404973
-0.401819
-0.398691
-0.395582
-0.392493
-0.389423
-0.386376
-0.383358
-0.380372
-0.377425
-0.374524
-0.371675
-0.368884
-0.366158
-0.363503
-0.360922
-0.358421
-0.356019
-0.353715
-0.351339
-0.348789
-0.347909
-0.44323
-0.436824
-0.432116
-0.428108
-0.424289
-0.420636
-0.417109
-0.413661
-0.410263
-0.406899
-0.403558
-0.400238
-0.396937
-0.393657
-0.390402
-0.387178
-0.38399
-0.380847
-0.377753
-0.374719
-0.371749
-0.368852
-0.366035
-0.363301
-0.360659
-0.35813
-0.355713
-0.353213
-0.350509
-0.349735
-0.450577
-0.443939
-0.439032
-0.434829
-0.430805
-0.42694
-0.423196
-0.419526
-0.415903
-0.412311
-0.408743
-0.405194
-0.401666
-0.39816
-0.394683
-0.391239
-0.387836
-0.384481
-0.381182
-0.377947
-0.374785
-0.371704
-0.368711
-0.365813
-0.363017
-0.36035
-0.357811
-0.355176
-0.352306
-0.351652
-0.458441
-0.451546
-0.44642
-0.442002
-0.437753
-0.433657
-0.429676
-0.425765
-0.4219
-0.418064
-0.414251
-0.410459
-0.406688
-0.402942
-0.399227
-0.395549
-0.391915
-0.388335
-0.384815
-0.381367
-0.377997
-0.374718
-0.371536
-0.368458
-0.365497
-0.36268
-0.360007
-0.357226
-0.354176
-0.353656
-0.466832
-0.459657
-0.45429
-0.449636
-0.445142
-0.440794
-0.436557
-0.432388
-0.428262
-0.424165
-0.420091
-0.416039
-0.412011
-0.40801
-0.404042
-0.400115
-0.396237
-0.392416
-0.388661
-0.384984
-0.381393
-0.377899
-0.374513
-0.371242
-0.3681
-0.36512
-0.362303
-0.359362
-0.356116
-0.355745
-0.475763
-0.46828
-0.46265
-0.45774
-0.452979
-0.448359
-0.443848
-0.439401
-0.434997
-0.430622
-0.426271
-0.421944
-0.417642
-0.413371
-0.409137
-0.404947
-0.400809
-0.396733
-0.392729
-0.388807
-0.384978
-0.381255
-0.377649
-0.374169
-0.370831
-0.367673
-0.364698
-0.361583
-0.358123
-0.357913
-0.485244
-0.477427
-0.471511
-0.466322
-0.461274
-0.456362
-0.451555
-0.446813
-0.442112
-0.437442
-0.432799
-0.428181
-0.423592
-0.419036
-0.414521
-0.410053
-0.405641
-0.401296
-0.397027
-0.392845
-0.388763
-0.384794
-0.380951
-0.377244
-0.373693
-0.37034
-0.367191
-0.363885
-0.360193
-0.360156
-0.495287
-0.487107
-0.48088
-0.475391
-0.470033
-0.464808
-0.459686
-0.454629
-0.449615
-0.444634
-0.439682
-0.434759
-0.429868
-0.425014
-0.420204
-0.415445
-0.410746
-0.406116
-0.401567
-0.39711
-0.392759
-0.388526
-0.384427
-0.380476
-0.376691
-0.373126
-0.369784
-0.366269
-0.362322
-0.362468
-0.505901
-0.497329
-0.490767
-0.484954
-0.479264
-0.473704
-0.468249
-0.462859
-0.457514
-0.452206
-0.44693
-0.441687
-0.43648
-0.431315
-0.426197
-0.421133
-0.416133
-0.411206
-0.406362
-0.401615
-0.396976
-0.392462
-0.388089
-0.383871
-0.379832
-0.376032
-0.372478
-0.36873
-0.364506
-0.364842
-0.517097
-0.5081
-0.501177
-0.495017
-0.488974
-0.483058
-0.477249
-0.471508
-0.465815
-0.460163
-0.454549
-0.448973
-0.443438
-0.437949
-0.432511
-0.427131
-0.421818
-0.416579
-0.411427
-0.406373
-0.40143
-0.396616
-0.391947
-0.387441
-0.383124
-0.379063
-0.375271
-0.371264
-0.366735
-0.367266
-0.528881
-0.519427
-0.512117
-0.505586
-0.499167
-0.492875
-0.486692
-0.480582
-0.474525
-0.468515
-0.462549
-0.456627
-0.450752
-0.444927
-0.439159
-0.433452
-0.427813
-0.422252
-0.416777
-0.411401
-0.406137
-0.401002
-0.396016
-0.391196
-0.386574
-0.382225
-0.378165
-0.373866
-0.368996
-0.36972
-0.54126
-0.531316
-0.523592
-0.516667
-0.509847
-0.503158
-0.496582
-0.490086
-0.48365
-0.477267
-0.470936
-0.464657
-0.458431
-0.452262
-0.446153
-0.440109
-0.434136
-0.42824
-0.422431
-0.416718
-0.411116
-0.405641
-0.400313
-0.395152
-0.390194
-0.385522
-0.381157
-0.376527
-0.371274
-0.37218
-0.55424
-0.543771
-0.535605
-0.52826
-0.521018
-0.513911
-0.506924
-0.500024
-0.493194
-0.486426
-0.479719
-0.473072
-0.466487
-0.459964
-0.453507
-0.447118
-0.440802
-0.434563
-0.428408
-0.422345
-0.416388
-0.410552
-0.404856
-0.399325
-0.393994
-0.388958
-0.384245
-0.379234
-0.373543
-0.374612
-0.567821
-0.556792
-0.548156
-0.540367
-0.532681
-0.525135
-0.517719
-0.510401
-0.503162
-0.495998
-0.488904
-0.481881
-0.474928
-0.468045
-0.461234
-0.454495
-0.44783
-0.44124
-0.43473
-0.428307
-0.421978
-0.41576
-0.409672
-0.403735
-0.39799
-0.392541
-0.387423
-0.38197
-0.375773
-0.376965
-0.582005
-0.570379
-0.561244
-0.552988
-0.544835
-0.536831
-0.528969
-0.521217
-0.513558
-0.505985
-0.498497
-0.49109
-0.483763
-0.476516
-0.469347
-0.462255
-0.455237
-0.448293
-0.441423
-0.434629
-0.427917
-0.421299
-0.414789
-0.40841
-0.402203
-0.396281
-0.390688
-0.384709
-0.377914
-0.379167
-0.596787
-0.584528
-0.574866
-0.566118
-0.557477
-0.548996
-0.540672
-0.532473
-0.524382
-0.516392
-0.508501
-0.500705
-0.493001
-0.485388
-0.47786
-0.470414
-0.463044
-0.455746
-0.448514
-0.441346
-0.434242
-0.427206
-0.42025
-0.413389
-0.406665
-0.400198
-0.394038
-0.387424
-0.379902
-0.381115
-0.612165
-0.599233
-0.589015
-0.579751
-0.570601
-0.561626
-0.552826
-0.544167
-0.535634
-0.52722
-0.51892
-0.510731
-0.502649
-0.494669
-0.486784
-0.478988
-0.471272
-0.463625
-0.456036
-0.448496
-0.440997
-0.433535
-0.42611
-0.41873
-0.411429
-0.40433
-0.397488
-0.390088
-0.381654
-0.382663
-0.62813
-0.614485
-0.60368
-0.593877
-0.584199
-0.574714
-0.565424
-0.556295
-0.547312
-0.538467
-0.529755
-0.521171
-0.512711
-0.504367
-0.496132
-0.487994
-0.479941
-0.471957
-0.464025
-0.456126
-0.448242
-0.440355
-0.432452
-0.424522
-0.416583
-0.408752
-0.401079
-0.392683
-0.383055
-0.383588
-0.644677
-0.63027
-0.618848
-0.608484
-0.598259
-0.588249
-0.578458
-0.56885
-0.55941
-0.550129
-0.541003
-0.532025
-0.52319
-0.514488
-0.505911
-0.497444
-0.489071
-0.480772
-0.472521
-0.464291
-0.456049
-0.447761
-0.439392
-0.430903
-0.42228
-0.413614
-0.404928
-0.395246
-0.383987
-0.383589
-0.661799
-0.646567
-0.634496
-0.623551
-0.612765
-0.602219
-0.591916
-0.581822
-0.57192
-0.562201
-0.552659
-0.543289
-0.534083
-0.525033
-0.516127
-0.507349
-0.498681
-0.490097
-0.481566
-0.473051
-0.464506
-0.455877
-0.447099
-0.438094
-0.428797
-0.419242
-0.409393
-0.398112
-0.384615
-0.382517
-0.679524
-0.663359
-0.650596
-0.639055
-0.627696
-0.616605
-0.605785
-0.5952
-0.584831
-0.574672
-0.564715
-0.554955
-0.545386
-0.535997
-0.526778
-0.517711
-0.508778
-0.499951
-0.491195
-0.482466
-0.473707
-0.464844
-0.45578
-0.446388
-0.436526
-0.426141
-0.415093
-0.401917
-0.385119
-0.379499
-0.697904
-0.680611
-0.667103
-0.654958
-0.643025
-0.631385
-0.620045
-0.608966
-0.598129
-0.587529
-0.577159
-0.567013
-0.557087
-0.547371
-0.537855
-0.528524
-0.519361
-0.51034
-0.501428
-0.49258
-0.483734
-0.474803
-0.465661
-0.456117
-0.445914
-0.434821
-0.4224
-0.406267
-0.382864
-0.368596
-0.716472
-0.698133
-0.683949
-0.671227
-0.658729
-0.646543
-0.63468
-0.623103
-0.611796
-0.600754
-0.589971
-0.579443
-0.569165
-0.559131
-0.549333
-0.539762
-0.530403
-0.52124
-0.512249
-0.5034
-0.494646
-0.48592
-0.477112
-0.468034
-0.458389
-0.447786
-0.435295
-0.417201
-0.387151
-0.361281
-1.19303
-1.19009
-1.18523
-1.17891
-1.17115
-1.16201
-1.15156
-1.13987
-1.12703
-1.11312
-1.09823
-1.08245
-1.06585
-1.04853
-1.03056
-1.01204
-0.993035
-0.973629
-0.953896
-0.933908
-0.913735
-0.893442
-0.873091
-0.852741
-0.832446
-0.812253
-0.792207
-0.772317
-0.75257
-0.733395
-1.1585
-1.15559
-1.15093
-1.14477
-1.13718
-1.12825
-1.11804
-1.10664
-1.09414
-1.08063
-1.06617
-1.05087
-1.03479
-1.01803
-1.00066
-0.98277
-0.964427
-0.945711
-0.926692
-0.907443
-0.888028
-0.868512
-0.848956
-0.829417
-0.80995
-0.790607
-0.771441
-0.752497
-0.733829
-0.715618
-1.13006
-1.12718
-1.12267
-1.11668
-1.1093
-1.10059
-1.09064
-1.07955
-1.06738
-1.05423
-1.04017
-1.0253
-1.00968
-0.993401
-0.976544
-0.959185
-0.941399
-0.923259
-0.904837
-0.8862
-0.867413
-0.848539
-0.829638
-0.810765
-0.791976
-0.773322
-0.754855
-0.736627
-0.718698
-0.701143
-1.10328
-1.10052
-1.0962
-1.09043
-1.0833
-1.07488
-1.06524
-1.05448
-1.04268
-1.02991
-1.01627
-1.00182
-0.98666
-0.970858
-0.954495
-0.937648
-0.92039
-0.902794
-0.884929
-0.866863
-0.848658
-0.830377
-0.812078
-0.793816
-0.775644
-0.757613
-0.739773
-0.722171
-0.704859
-0.687886
-1.07613
-1.07359
-1.06953
-1.06406
-1.05725
-1.04917
-1.0399
-1.02953
-1.01814
-1.0058
-0.9926
-0.978619
-0.963936
-0.948629
-0.932776
-0.916452
-0.89973
-0.882682
-0.865375
-0.847875
-0.830247
-0.812549
-0.79484
-0.777174
-0.759602
-0.742175
-0.724939
-0.707939
-0.69122
-0.674819
-1.04888
-1.04664
-1.04292
-1.03781
-1.03139
-1.02371
-1.01487
-1.00494
-0.993998
-0.982128
-0.969408
-0.955918
-0.941738
-0.926943
-0.911612
-0.895819
-0.879635
-0.863132
-0.846376
-0.829435
-0.812369
-0.795238
-0.7781
-0.761007
-0.744012
-0.727162
-0.710502
-0.694074
-0.67792
-0.662074
-1.02163
-1.01977
-1.01646
-1.01178
-1.0058
-0.998585
-0.990216
-0.980768
-0.97032
-0.958953
-0.946745
-0.933773
-0.920116
-0.90585
-0.891052
-0.875795
-0.860152
-0.844191
-0.827981
-0.811586
-0.795068
-0.778487
-0.761898
-0.745356
-0.728909
-0.712607
-0.696493
-0.680608
-0.66499
-0.649674
-0.994409
-0.99299
-0.990139
-0.98594
-0.980454
-0.973748
-0.965896
-0.956973
-0.947058
-0.936228
-0.92456
-0.912131
-0.899018
-0.885298
-0.871045
-0.856333
-0.841233
-0.825815
-0.810145
-0.794288
-0.778306
-0.762257
-0.746199
-0.730183
-0.714261
-0.698479
-0.682882
-0.66751
-0.6524
-0.637587
-0.967256
-0.966325
-0.963983
-0.960309
-0.955359
-0.949201
-0.941904
-0.933542
-0.924192
-0.913928
-0.902828
-0.890965
-0.878417
-0.865259
-0.851564
-0.837405
-0.822854
-0.807978
-0.792845
-0.777519
-0.762061
-0.746531
-0.730984
-0.715475
-0.700053
-0.684766
-0.669658
-0.65477
-0.640139
-0.6258
-0.940244
-0.939836
-0.938037
-0.934919
-0.93054
-0.92496
-0.918248
-0.910476
-0.901718
-0.892048
-0.881538
-0.870263
-0.858297
-0.845716
-0.832591
-0.818995
-0.804997
-0.790666
-0.776069
-0.761268
-0.746325
-0.7313
-0.716249
-0.701225
-0.68628
-0.671462
-0.656815
-0.642383
-0.628201
-0.614309
-0.913449
-0.913584
-0.912349
-0.909811
-0.906024
-0.901046
-0.894942
-0.887783
-0.879639
-0.870582
-0.860682
-0.850012
-0.838646
-0.826655
-0.814112
-0.801087
-0.78765
-0.773866
-0.759803
-0.745524
-0.731089
-0.716558
-0.701987
-0.687431
-0.672941
-0.658567
-0.644354
-0.630348
-0.616585
-0.603108
-0.886943
-0.887632
-0.886972
-0.885026
-0.881844
-0.877482
-0.872002
-0.865471
-0.857958
-0.849529
-0.840255
-0.830205
-0.819451
-0.808064
-0.796113
-0.783668
-0.770797
-0.757565
-0.744038
-0.730278
-0.716345
-0.702298
-0.688195
-0.67409
-0.660034
-0.646079
-0.632274
-0.618663
-0.605289
-0.592195
-0.860799
-0.862041
-0.861958
-0.860607
-0.858036
-0.854296
-0.849448
-0.843554
-0.83668
-0.828891
-0.820253
-0.810834
-0.800703
-0.78993
-0.778581
-0.766724
-0.754426
-0.741751
-0.728761
-0.71552
-0.702086
-0.688517
-0.67487
-0.6612
-0.64756
-0.634001
-0.620575
-0.60733
-0.594311
-0.581567
-0.835083
-0.836869
-0.837356
-0.836595
-0.834631
-0.831514
-0.827297
-0.822043
-0.815813
-0.808669
-0.800673
-0.791893
-0.782394
-0.772242
-0.761503
-0.750242
-0.738524
-0.72641
-0.713963
-0.701242
-0.688306
-0.67521
-0.662011
-0.648763
-0.63552
-0.622334
-0.609259
-0.596348
-0.583651
-0.571219
-0.809855
-0.812169
-0.813211
-0.813029
-0.811663
-0.809159
-0.80557
-0.800952
-0.795365
-0.788866
-0.781516
-0.773377
-0.764514
-0.75499
-0.744867
-0.73421
-0.723078
-0.711533
-0.699633
-0.687436
-0.674998
-0.662374
-0.649617
-0.63678
-0.623918
-0.611084
-0.598333
-0.585722
-0.573307
-0.561149
-0.785167
-0.787987
-0.789565
-0.789943
-0.78916
-0.787257
-0.784284
-0.780294
-0.775343
-0.769485
-0.762778
-0.755282
-0.747057
-0.738164
-0.728663
-0.718614
-0.708076
-0.697106
-0.68576
-0.674093
-0.662157
-0.650005
-0.637687
-0.625255
-0.61276
-0.600257
-0.587802
-0.575456
-0.563282
-0.551351
-0.761064
-0.764364
-0.766453
-0.76737
-0.767148
-0.765828
-0.763455
-0.76008
-0.755754
-0.750529
-0.744459
-0.737602
-0.730014
-0.721753
-0.712877
-0.703441
-0.693503
-0.683116
-0.672333
-0.661203
-0.649777
-0.638102
-0.626225
-0.614193
-0.602056
-0.589864
-0.577677
-0.565558
-0.553578
-0.54182
-0.737584
-0.741333
-0.743905
-0.745333
-0.74565
-0.74489
-0.743097
-0.74032
-0.736605
-0.732
-0.726558
-0.720332
-0.713377
-0.705747
-0.697497
-0.688679
-0.679347
-0.669551
-0.659339
-0.648758
-0.637852
-0.626663
-0.615233
-0.603603
-0.591816
-0.579922
-0.567974
-0.556041
-0.5442
-0.532551
-0.714754
-0.718922
-0.721946
-0.723856
-0.724683
-0.724458
-0.723223
-0.721022
-0.717899
-0.713899
-0.709072
-0.703468
-0.697139
-0.690136
-0.682511
-0.674313
-0.665592
-0.656395
-0.646766
-0.636746
-0.626373
-0.615684
-0.604713
-0.593493
-0.582058
-0.57045
-0.558717
-0.546924
-0.53516
-0.523541
-0.692598
-0.69715
-0.700594
-0.702956
-0.704263
-0.704545
-0.703842
-0.702193
-0.69964
-0.696226
-0.691998
-0.687003
-0.68129
-0.674908
-0.667905
-0.660328
-0.652223
-0.643633
-0.634598
-0.625154
-0.615332
-0.605163
-0.594669
-0.583874
-0.572801
-0.561475
-0.549935
-0.538239
-0.526478
-0.514786
-0.671131
-0.676034
-0.679864
-0.682644
-0.684401
-0.68516
-0.68496
-0.683837
-0.681831
-0.678982
-0.675333
-0.670931
-0.665822
-0.660051
-0.653665
-0.646707
-0.639222
-0.631247
-0.622818
-0.613966
-0.604718
-0.595093
-0.585104
-0.574761
-0.564068
-0.553034
-0.541673
-0.530028
-0.518184
-0.506291
-0.65036
-0.655581
-0.659763
-0.66293
-0.665103
-0.66631
-0.666582
-0.665958
-0.664472
-0.662163
-0.659073
-0.655245
-0.650724
-0.645553
-0.639776
-0.633435
-0.62657
-0.619216
-0.611406
-0.603166
-0.594516
-0.585465
-0.576017
-0.566162
-0.555886
-0.545167
-0.533987
-0.522352
-0.510332
-0.498064
-0.630291
-0.635796
-0.640298
-0.643818
-0.646376
-0.647996
-0.648711
-0.648555
-0.647562
-0.645767
-0.643212
-0.639938
-0.635988
-0.631402
-0.626224
-0.620493
-0.614247
-0.60752
-0.600341
-0.592732
-0.584706
-0.576267
-0.567403
-0.55809
-0.548283
-0.537926
-0.52695
-0.515302
-0.503001
-0.490133
-0.610921
-0.616679
-0.621469
-0.625309
-0.628219
-0.630222
-0.631348
-0.63163
-0.6311
-0.629793
-0.627748
-0.625004
-0.621604
-0.617587
-0.612994
-0.607865
-0.602235
-0.596138
-0.5896
-0.582641
-0.575269
-0.567482
-0.559256
-0.55055
-0.54129
-0.531374
-0.520662
-0.509004
-0.496327
-0.482557
-0.592245
-0.598225
-0.603272
-0.607401
-0.610632
-0.612985
-0.614491
-0.615181
-0.615084
-0.614235
-0.612673
-0.610435
-0.607562
-0.604094
-0.600071
-0.595532
-0.590512
-0.585045
-0.579157
-0.572865
-0.566177
-0.559085
-0.55156
-0.543542
-0.534932
-0.525576
-0.515245
-0.503641
-0.490532
-0.475479
-0.574256
-0.580427
-0.585698
-0.590085
-0.593602
-0.596273
-0.598126
-0.59919
-0.599494
-0.599073
-0.597962
-0.596201
-0.593829
-0.590886
-0.587412
-0.583446
-0.579025
-0.574182
-0.568945
-0.563333
-0.557354
-0.550999
-0.544238
-0.537002
-0.529172
-0.520544
-0.510786
-0.499399
-0.485922
-0.469211
-0.556942
-0.563277
-0.568742
-0.573353
-0.577126
-0.580081
-0.582247
-0.58365
-0.58432
-0.584291
-0.583598
-0.58228
-0.580376
-0.577927
-0.574973
-0.571554
-0.56771
-0.563474
-0.558879
-0.553945
-0.548686
-0.543099
-0.537156
-0.530794
-0.523884
-0.516196
-0.507289
-0.49642
-0.482845
-0.464145
-0.540296
-0.546788
-0.552441
-0.557268
-0.561286
-0.564514
-0.56698
-0.56871
-0.569733
-0.570082
-0.569793
-0.568905
-0.567456
-0.565489
-0.563044
-0.560165
-0.556892
-0.553263
-0.549312
-0.545068
-0.540549
-0.535763
-0.530697
-0.525302
-0.519471
-0.51298
-0.50533
-0.49552
-0.48236
-0.460663
-0.524286
-0.530953
-0.536811
-0.541874
-0.546156
-0.549678
-0.552469
-0.554553
-0.555959
-0.556721
-0.556876
-0.556462
-0.55552
-0.554094
-0.552226
-0.549961
-0.547342
-0.544412
-0.541208
-0.537766
-0.534115
-0.530273
-0.526247
-0.522023
-0.517545
-0.512676
-0.507009
-0.499466
-0.488313
-0.462171
-0.508822
-0.515445
-0.521292
-0.526378
-0.530716
-0.53433
-0.537244
-0.539485
-0.541085
-0.542075
-0.542495
-0.542386
-0.54179
-0.540753
-0.539323
-0.537549
-0.535481
-0.533168
-0.530658
-0.527998
-0.525232
-0.522402
-0.519546
-0.516701
-0.513903
-0.511214
-0.50854
-0.505281
-0.501465
-0.481817
-0.416337
-0.464161
-0.510692
-0.556542
-0.601526
-0.645477
-0.688279
-0.729822
-0.770004
-0.808728
-0.845904
-0.881449
-0.915289
-0.947355
-0.977585
-1.00593
-1.03233
-1.05677
-1.07919
-1.0996
-1.11795
-1.13426
-1.14853
-1.16075
-1.17094
-1.17913
-1.18535
-1.1896
-1.19189
-1.1926
-0.40842
-0.455085
-0.500672
-0.545422
-0.589219
-0.631948
-0.673514
-0.713821
-0.752777
-0.790291
-0.826279
-0.860664
-0.893373
-0.924341
-0.953512
-0.980834
-1.00626
-1.02977
-1.05131
-1.07089
-1.08847
-1.10406
-1.11767
-1.12929
-1.13896
-1.14669
-1.15253
-1.15651
-1.15866
-1.15918
-0.397453
-0.44311
-0.487842
-0.531713
-0.574618
-0.616459
-0.657144
-0.696584
-0.734689
-0.771373
-0.806555
-0.840159
-0.872117
-0.902365
-0.930848
-0.957516
-0.982329
-1.00525
-1.02626
-1.04533
-1.06246
-1.07763
-1.09086
-1.10216
-1.11155
-1.11905
-1.1247
-1.12855
-1.13063
-1.13105
-0.383091
-0.427836
-0.471747
-0.514823
-0.556955
-0.598046
-0.638005
-0.676743
-0.714172
-0.750209
-0.784774
-0.817792
-0.849197
-0.878927
-0.906925
-0.933145
-0.957546
-0.980092
-1.00076
-1.01953
-1.03639
-1.05134
-1.06439
-1.07554
-1.08481
-1.09224
-1.09785
-1.1017
-1.1038
-1.10426
-0.365775
-0.40962
-0.452706
-0.494993
-0.536373
-0.576746
-0.616021
-0.654109
-0.690924
-0.726383
-0.760408
-0.792926
-0.823869
-0.853177
-0.880793
-0.906672
-0.93077
-0.953055
-0.973501
-0.992089
-1.00881
-1.02365
-1.03663
-1.04775
-1.05703
-1.06449
-1.07018
-1.07412
-1.07636
-1.07695
-0.34624
-0.389194
-0.431451
-0.472954
-0.513591
-0.553263
-0.591881
-0.629354
-0.665598
-0.70053
-0.734073
-0.766154
-0.796706
-0.825667
-0.852983
-0.878605
-0.902492
-0.92461
-0.944931
-0.963435
-0.980111
-0.994954
-1.00797
-1.01916
-1.02854
-1.03615
-1.042
-1.04615
-1.04861
-1.04945
-0.325181
-0.367238
-0.408658
-0.449367
-0.489259
-0.528235
-0.566206
-0.603081
-0.638777
-0.673211
-0.706306
-0.737991
-0.768197
-0.796864
-0.823935
-0.849362
-0.873102
-0.895121
-0.915389
-0.933886
-0.950597
-0.965516
-0.978644
-0.989988
-0.999563
-1.00739
-1.0135
-1.01792
-1.02069
-1.02187
-0.30321
-0.344357
-0.38492
-0.424821
-0.463955
-0.502226
-0.539544
-0.575821
-0.610973
-0.644918
-0.677579
-0.708885
-0.738768
-0.767166
-0.794024
-0.819291
-0.842923
-0.864885
-0.885147
-0.903685
-0.920484
-0.935535
-0.948836
-0.960394
-0.970219
-0.978332
-0.984757
-0.989526
-0.992667
-0.994237
-0.280853
-0.321071
-0.360758
-0.399831
-0.438189
-0.475739
-0.512391
-0.548058
-0.582658
-0.616109
-0.648335
-0.679263
-0.708828
-0.736966
-0.763621
-0.788742
-0.812284
-0.834211
-0.85449
-0.873097
-0.890014
-0.905231
-0.918742
-0.930551
-0.940667
-0.949107
-0.955893
-0.961053
-0.964615
-0.966629
-0.258539
-0.297812
-0.336604
-0.37483
-0.412393
-0.449203
-0.485171
-0.520212
-0.554245
-0.587188
-0.618967
-0.649509
-0.678747
-0.706619
-0.733068
-0.758043
-0.781498
-0.803393
-0.823697
-0.842383
-0.85943
-0.874826
-0.888565
-0.900646
-0.911076
-0.919868
-0.927042
-0.932624
-0.936638
-0.939128
-0.236608
-0.274923
-0.312804
-0.350166
-0.386917
-0.422968
-0.458234
-0.492632
-0.526079
-0.558497
-0.589811
-0.61995
-0.648846
-0.676438
-0.702668
-0.727484
-0.75084
-0.772696
-0.793018
-0.811778
-0.828954
-0.84453
-0.858498
-0.870856
-0.881607
-0.890762
-0.898337
-0.904354
-0.908836
-0.911823
-0.215316
-0.252665
-0.289624
-0.32611
-0.362034
-0.397312
-0.43186
-0.465595
-0.498439
-0.530313
-0.561144
-0.590859
-0.619394
-0.646685
-0.672675
-0.697314
-0.720553
-0.742351
-0.762675
-0.781493
-0.798784
-0.814529
-0.828717
-0.841344
-0.852412
-0.861926
-0.869901
-0.876356
-0.88131
-0.884799
-0.194848
-0.231229
-0.26726
-0.302862
-0.33795
-0.372443
-0.40626
-0.439319
-0.471543
-0.502855
-0.533182
-0.562454
-0.590604
-0.617572
-0.643301
-0.667737
-0.690835
-0.712553
-0.732854
-0.751709
-0.769092
-0.784986
-0.799376
-0.812255
-0.823623
-0.833484
-0.841848
-0.848731
-0.854151
-0.858137
-0.175331
-0.210745
-0.245848
-0.280563
-0.314811
-0.348513
-0.38159
-0.413962
-0.445553
-0.476288
-0.506094
-0.534902
-0.562648
-0.589269
-0.61471
-0.638919
-0.661849
-0.683459
-0.703711
-0.722575
-0.740025
-0.75604
-0.770606
-0.783714
-0.79536
-0.805545
-0.814279
-0.821573
-0.827443
-0.831914
-0.15684
-0.191294
-0.225474
-0.259306
-0.292714
-0.325623
-0.357956
-0.389635
-0.420585
-0.45073
-0.480001
-0.508328
-0.535648
-0.561901
-0.587031
-0.610987
-0.633722
-0.655195
-0.675369
-0.694212
-0.711698
-0.727805
-0.742518
-0.755825
-0.76772
-0.778204
-0.787282
-0.794963
-0.80126
-0.806196
-0.139415
-0.17292
-0.206185
-0.23914
-0.271714
-0.303834
-0.335425
-0.366409
-0.396711
-0.42626
-0.454984
-0.482816
-0.509694
-0.535559
-0.560355
-0.584034
-0.606547
-0.627855
-0.647921
-0.666713
-0.684204
-0.700372
-0.715199
-0.728673
-0.740787
-0.751538
-0.76093
-0.768969
-0.775667
-0.781041
-0.123064
-0.155633
-0.187995
-0.220084
-0.251835
-0.283174
-0.314028
-0.344319
-0.373975
-0.402922
-0.431092
-0.458419
-0.484841
-0.510301
-0.534744
-0.558123
-0.58039
-0.601507
-0.621437
-0.640148
-0.657612
-0.673808
-0.688717
-0.702325
-0.714624
-0.72561
-0.735282
-0.743648
-0.750715
-0.756499
-0.107773
-0.139421
-0.170894
-0.202133
-0.233074
-0.263645
-0.293772
-0.323378
-0.352391
-0.380737
-0.40835
-0.435164
-0.461119
-0.48616
-0.510234
-0.533292
-0.555292
-0.576193
-0.59596
-0.614562
-0.63197
-0.648163
-0.663121
-0.67683
-0.68928
-0.700466
-0.710386
-0.719045
-0.726449
-0.73261
-0.0935125
-0.124253
-0.154854
-0.185261
-0.21541
-0.24523
-0.274644
-0.303576
-0.331952
-0.359701
-0.386756
-0.413054
-0.438536
-0.463147
-0.486838
-0.509561
-0.531273
-0.551937
-0.571518
-0.589983
-0.607308
-0.623468
-0.638444
-0.652222
-0.66479
-0.676142
-0.686275
-0.695193
-0.702899
-0.709403
-0.0802414
-0.110087
-0.139834
-0.169429
-0.198808
-0.227896
-0.256615
-0.284888
-0.312638
-0.339796
-0.366297
-0.392077
-0.417082
-0.441257
-0.464553
-0.486927
-0.508337
-0.528745
-0.548118
-0.566424
-0.583639
-0.599739
-0.614704
-0.62852
-0.641174
-0.65266
-0.662974
-0.672116
-0.68009
-0.686904
-0.0679101
-0.096869
-0.125781
-0.154587
-0.183221
-0.211602
-0.239647
-0.267276
-0.294415
-0.320992
-0.346943
-0.372209
-0.396734
-0.420469
-0.443365
-0.465379
-0.486473
-0.50661
-0.525756
-0.543884
-0.560966
-0.576981
-0.591909
-0.605734
-0.618445
-0.630033
-0.640494
-0.649828
-0.658036
-0.665126
-0.0564632
-0.0845377
-0.112635
-0.14068
-0.168597
-0.196297
-0.223692
-0.250698
-0.27724
-0.303247
-0.328658
-0.353413
-0.377462
-0.400754
-0.423245
-0.444893
-0.465661
-0.485514
-0.50442
-0.52235
-0.539281
-0.555188
-0.570054
-0.583863
-0.596603
-0.608264
-0.618842
-0.628336
-0.636746
-0.644078
-0.0458398
-0.0730233
-0.10033
-0.127646
-0.154878
-0.181928
-0.208699
-0.235103
-0.261065
-0.286517
-0.311396
-0.335649
-0.359223
-0.382074
-0.404158
-0.425436
-0.445872
-0.465431
-0.484084
-0.501803
-0.518565
-0.534346
-0.549129
-0.562898
-0.575641
-0.587349
-0.598016
-0.60764
-0.616221
-0.623763
-0.0359704
-0.0622434
-0.0887905
-0.115414
-0.141999
-0.168434
-0.194609
-0.220436
-0.245837
-0.270747
-0.295107
-0.318865
-0.341973
-0.364386
-0.386064
-0.406969
-0.427068
-0.446327
-0.464718
-0.482215
-0.498793
-0.514432
-0.529114
-0.542823
-0.555547
-0.567277
-0.578007
-0.587733
-0.596456
-0.604179
-0.0267698
-0.0521079
-0.0779423
-0.10392
-0.129904
-0.155761
-0.181372
-0.206645
-0.231506
-0.255891
-0.279745
-0.303018
-0.325666
-0.347646
-0.368921
-0.389455
-0.409214
-0.428169
-0.446291
-0.463556
-0.47994
-0.495423
-0.509988
-0.523619
-0.536304
-0.548034
-0.558802
-0.568605
-0.577443
-0.585318
-0.0181281
-0.042557
-0.0677661
-0.0931567
-0.118589
-0.143911
-0.168988
-0.19373
-0.218068
-0.241942
-0.265301
-0.288099
-0.310293
-0.331845
-0.352719
-0.37288
-0.392298
-0.410944
-0.428791
-0.445815
-0.461993
-0.477307
-0.491739
-0.505274
-0.517901
-0.529609
-0.540393
-0.550248
-0.559174
-0.567172
-0.00988957
-0.0334875
-0.058215
-0.08309
-0.108022
-0.132845
-0.157414
-0.181645
-0.205475
-0.22885
-0.251724
-0.274054
-0.295801
-0.316929
-0.337405
-0.357195
-0.376272
-0.394607
-0.412174
-0.428951
-0.444916
-0.46005
-0.474337
-0.487762
-0.500313
-0.511981
-0.522759
-0.532644
-0.541634
-0.549729
-0.00160019
-0.0241378
-0.0485572
-0.0730339
-0.097549
-0.121932
-0.14604
-0.169798
-0.193155
-0.216064
-0.238485
-0.260379
-0.281711
-0.302445
-0.322552
-0.341999
-0.36076
-0.378808
-0.396119
-0.412669
-0.42844
-0.443411
-0.457567
-0.470894
-0.48338
-0.495016
-0.505794
-0.515711
-0.524765
-0.532957
0.00800762
-0.0131487
-0.0376179
-0.0619822
-0.0862951
-0.110389
-0.134149
-0.157536
-0.180513
-0.203042
-0.225091
-0.246624
-0.267609
-0.288015
-0.307813
-0.326974
-0.345471
-0.363281
-0.380379
-0.396744
-0.412357
-0.4272
-0.441257
-0.454515
-0.466962
-0.478589
-0.489389
-0.499359
-0.508497
-0.516804
0.0177542
-0.00559895
-0.0311503
-0.0556302
-0.0798739
-0.103733
-0.127137
-0.150111
-0.172644
-0.194711
-0.216284
-0.237335
-0.257838
-0.277763
-0.297087
-0.315783
-0.333829
-0.351201
-0.367881
-0.383848
-0.399085
-0.413577
-0.427309
-0.44027
-0.452448
-0.463837
-0.474431
-0.484226
-0.493221
-0.501418
0.530616
0.537629
0.544804
0.552109
0.559542
0.5671
0.574773
0.58255
0.590419
0.598363
0.606364
0.614401
0.62245
0.630486
0.638482
0.646409
0.654241
0.661957
0.66954
0.676988
0.684316
0.691569
0.698828
0.706225
0.713966
0.722347
0.731683
0.742247
0.755847
0.7756
0.523412
0.530161
0.537176
0.544301
0.551533
0.558877
0.566327
0.573868
0.581486
0.589165
0.596885
0.604624
0.612355
0.620053
0.627689
0.635232
0.642656
0.649936
0.657057
0.664015
0.670827
0.677539
0.684237
0.691059
0.69822
0.706032
0.714828
0.724911
0.738146
0.757782
0.515354
0.521791
0.528621
0.53554
0.542539
0.549639
0.556832
0.564103
0.571436
0.578812
0.586212
0.59361
0.600982
0.608297
0.615526
0.622637
0.629602
0.636396
0.643002
0.649418
0.655661
0.66178
0.667865
0.674064
0.680601
0.687805
0.696033
0.70562
0.718502
0.738035
0.50645
0.512527
0.519146
0.525833
0.532571
0.539396
0.5463
0.553266
0.560278
0.567315
0.574355
0.581373
0.588342
0.595231
0.602007
0.60864
0.615098
0.621356
0.627397
0.633218
0.63884
0.644315
0.649739
0.655267
0.661136
0.667692
0.675314
0.684369
0.696831
0.716104
0.49671
0.502378
0.508764
0.515193
0.521641
0.528158
0.534742
0.54137
0.548025
0.554686
0.561329
0.567927
0.574452
0.58087
0.58715
0.593256
0.599159
0.604832
0.610257
0.615435
0.620386
0.625167
0.629881
0.634691
0.639848
0.645714
0.652691
0.661174
0.673162
0.692069
0.486144
0.491359
0.497487
0.503633
0.509761
0.515941
0.522172
0.52843
0.534694
0.540943
0.547151
0.55329
0.559329
0.565235
0.570973
0.576508
0.581809
0.586848
0.591609
0.596093
0.600324
0.604364
0.60832
0.612366
0.616768
0.621903
0.628195
0.636068
0.647536
0.666001
0.474766
0.479482
0.48533
0.491168
0.496948
0.502761
0.508609
0.514464
0.520303
0.526104
0.53184
0.537482
0.542995
0.548347
0.5535
0.55842
0.563072
0.567431
0.571481
0.575224
0.578687
0.581937
0.58509
0.588329
0.591933
0.596297
0.601865
0.609091
0.619994
0.637955
0.462589
0.466764
0.47231
0.477815
0.483219
0.488636
0.49407
0.49949
0.504872
0.510191
0.51542
0.520526
0.525475
0.530232
0.534759
0.53902
0.54298
0.546614
0.549906
0.552861
0.55551
0.557926
0.560231
0.562621
0.565386
0.56894
0.573749
0.580291
0.590588
0.607987
0.449628
0.453222
0.458444
0.463593
0.468593
0.473586
0.478577
0.483532
0.488424
0.493228
0.497914
0.502448
0.506796
0.510919
0.514779
0.518339
0.521564
0.524429
0.52692
0.529043
0.530835
0.532372
0.533788
0.535287
0.537176
0.539884
0.543898
0.549722
0.559375
0.576158
0.435899
0.438874
0.443753
0.448521
0.453091
0.457632
0.462152
0.466612
0.470984
0.47524
0.47935
0.483278
0.486987
0.490439
0.493594
0.496413
0.498862
0.500916
0.502563
0.503813
0.504705
0.505323
0.50581
0.506382
0.507358
0.509185
0.512371
0.517446
0.526418
0.542533
0.42142
0.423739
0.428255
0.432621
0.436736
0.440799
0.444819