/*--------------------------------*- C++ -*----------------------------------*\
  =========                 |
  \\      /  F ield         | OpenFOAM: The Open Source CFD Toolbox
   \\    /   O peration     | Website:  https://openfoam.org
    \\  /    A nd           | Version:  6.0
     \\/     M anipulation  |
\*---------------------------------------------------------------------------*/
FoamFile
{
    version     2.0;
    format      ascii;
    class       volVectorField;
    location    "14";
    object      U;
}
// * * * * * * * * * * * * * * * * * * * * * * * * * * * * * * * * * * * * * //

dimensions      [0 1 -1 0 0 0 0];

internalField   nonuniform List<vector> 
19200
(
(0.0065494 -0.478783 -4.2005e-22)
(0.00479035 -0.440007 2.32823e-22)
(0.00269871 -0.404396 1.19515e-22)
(0.000284129 -0.371773 1.16719e-22)
(-0.00232383 -0.341933 1.42968e-22)
(-0.00498846 -0.314668 7.20017e-24)
(-0.00761574 -0.289773 2.29237e-22)
(-0.0101387 -0.267055 -2.3908e-23)
(-0.0125094 -0.246324 2.27532e-22)
(-0.0146953 -0.227408 9.95578e-23)
(-0.0166763 -0.21014 -1.04883e-23)
(-0.0184421 -0.194371 1.77627e-22)
(-0.0199898 -0.179959 3.35955e-22)
(-0.0213225 -0.166777 -2.45243e-22)
(-0.0224476 -0.154707 3.26681e-22)
(-0.0233761 -0.143642 3.10889e-22)
(-0.0241215 -0.133485 -3.05671e-22)
(-0.0246991 -0.124146 5.595e-22)
(-0.0251256 -0.115548 -3.75654e-22)
(-0.0254183 -0.107617 1.90407e-22)
(-0.025595 -0.10029 2.95204e-22)
(-0.0256735 -0.0935085 -1.06883e-22)
(-0.0256714 -0.0872216 1.45602e-22)
(-0.0256056 -0.0813842 -1.84917e-22)
(-0.0254929 -0.0759564 4.82536e-24)
(-0.0253492 -0.070902 1.10141e-22)
(-0.0251902 -0.0661891 -7.49779e-23)
(-0.0250204 -0.0617899 4.10646e-23)
(-0.0248318 -0.0576785 1.14628e-22)
(-0.0247116 -0.053831 5.66327e-22)
(0.0191136 -0.477964 -1.01326e-22)
(0.0163313 -0.438614 7.32524e-22)
(0.0133109 -0.402595 -4.09133e-22)
(0.0100716 -0.369695 -6.26401e-22)
(0.00674051 -0.339691 -3.17194e-22)
(0.00344776 -0.312355 -2.41755e-22)
(0.000280099 -0.287464 -5.62629e-22)
(-0.00270264 -0.264808 6.76537e-23)
(-0.00545926 -0.244186 -1.09974e-22)
(-0.00796377 -0.225413 -4.70024e-22)
(-0.0102021 -0.208314 -1.34764e-21)
(-0.0121696 -0.192732 7.0111e-22)
(-0.0138687 -0.178517 -2.81854e-22)
(-0.0153071 -0.165537 1.0832e-22)
(-0.016497 -0.153669 -7.38822e-22)
(-0.0174534 -0.142801 -2.98692e-22)
(-0.0181937 -0.132832 2.89124e-23)
(-0.0187367 -0.123672 1.12541e-21)
(-0.0191025 -0.115238 -5.84069e-22)
(-0.0193113 -0.107456 -3.37067e-22)
(-0.019384 -0.10026 -1.50977e-21)
(-0.0193409 -0.0935908 4.01312e-22)
(-0.0192022 -0.0873967 -2.71398e-22)
(-0.0189873 -0.0816318 5.12009e-22)
(-0.0187148 -0.0762559 -2.60117e-22)
(-0.0184032 -0.0712334 -4.23462e-22)
(-0.0180701 -0.0665326 1.32093e-22)
(-0.0177203 -0.0621264 2.42295e-22)
(-0.0173437 -0.057989 -4.12316e-22)
(-0.0170404 -0.0540992 2.65572e-22)
(0.0315913 -0.476858 -4.84208e-23)
(0.0277668 -0.436954 1.27517e-22)
(0.0238249 -0.400558 2.19223e-22)
(0.0197743 -0.367422 2.16933e-21)
(0.0157378 -0.337296 -1.38118e-21)
(0.0118399 -0.309927 1.27585e-21)
(0.00816008 -0.285077 8.44849e-22)
(0.00475063 -0.262519 7.50799e-22)
(0.0016453 -0.242038 -7.64117e-22)
(-0.00113694 -0.223439 -1.27638e-22)
(-0.0035887 -0.206537 2.18286e-21)
(-0.00571136 -0.191167 4.17367e-22)
(-0.007513 -0.177173 -1.17457e-21)
(-0.0090067 -0.164417 9.33328e-22)
(-0.0102093 -0.15277 -1.91075e-23)
(-0.0111402 -0.142117 4.59829e-22)
(-0.0118209 -0.132354 3.36822e-22)
(-0.0122741 -0.123387 1.29564e-21)
(-0.0125231 -0.11513 -5.51701e-22)
(-0.0125917 -0.107508 -1.78495e-22)
(-0.0125035 -0.100452 -5.82224e-22)
(-0.012282 -0.093903 2.77922e-21)
(-0.0119499 -0.0878072 -2.42e-21)
(-0.0115292 -0.0821186 7.79337e-22)
(-0.0110408 -0.0767965 4.57992e-22)
(-0.0105058 -0.0718056 -1.76228e-21)
(-0.00994416 -0.0671149 2.42965e-21)
(-0.00936101 -0.0626976 -2.44476e-22)
(-0.00874287 -0.0585278 -2.9239e-22)
(-0.00820604 -0.0545877 -2.55163e-21)
(0.0440131 -0.475454 -1.52631e-21)
(0.0391197 -0.43504 -1.61009e-21)
(0.0342497 -0.398307 -2.16239e-21)
(0.0293952 -0.364977 8.39179e-24)
(0.0246701 -0.33477 1.36017e-22)
(0.020191 -0.307411 -3.01468e-21)
(0.016029 -0.28264 1.1675e-22)
(0.0122278 -0.260215 4.61683e-22)
(0.00881276 -0.239909 -6.15583e-23)
(0.00579526 -0.221514 9.25651e-22)
(0.00317548 -0.204838 -3.72241e-21)
(0.000945413 -0.189706 -2.57707e-21)
(-0.000909073 -0.175957 9.22567e-22)
(-0.00240661 -0.163446 2.16088e-21)
(-0.00356909 -0.152041 -2.53278e-21)
(-0.00442066 -0.141621 -4.22562e-22)
(-0.004987 -0.13208 -1.72417e-21)
(-0.00529472 -0.12332 -8.62862e-22)
(-0.00537087 -0.115253 1.57591e-21)
(-0.0052426 -0.107802 -2.08427e-21)
(-0.00493686 -0.100896 1.97842e-21)
(-0.00448 -0.0944742 -2.36024e-21)
(-0.00389778 -0.0884823 -1.99923e-21)
(-0.00321475 -0.0828731 -1.567e-21)
(-0.00245472 -0.0776061 -4.04546e-22)
(-0.00164118 -0.0726456 -3.48737e-21)
(-0.000797089 -0.0679617 3.74377e-22)
(7.24816e-05 -0.0635277 7.03438e-22)
(0.000984933 -0.059317 -2.16804e-21)
(0.00180465 -0.0553164 4.27535e-22)
(0.056382 -0.473742 -8.8735e-22)
(0.0503966 -0.432876 1.5608e-22)
(0.0445911 -0.395858 1.44025e-21)
(0.0389394 -0.362381 1.64838e-21)
(0.033543 -0.332139 1.30069e-21)
(0.0285081 -0.30483 5.80582e-22)
(0.0238956 -0.280178 9.3503e-22)
(0.0197392 -0.257922 4.74617e-21)
(0.0160553 -0.237824 -2.92572e-21)
(0.0128466 -0.219665 6.11809e-23)
(0.0101056 -0.203242 7.68904e-22)
(0.00781716 -0.188375 3.84588e-21)
(0.00596064 -0.174894 -2.72174e-21)
(0.00451154 -0.162651 2.10285e-21)
(0.00344264 -0.151507 -2.52159e-21)
(0.00272491 -0.141339 4.56358e-21)
(0.00232819 -0.132036 -1.36285e-21)
(0.00222178 -0.123498 5.31184e-23)
(0.00237479 -0.115634 2.59253e-21)
(0.0027565 -0.108365 1.99821e-21)
(0.00333661 -0.101618 -2.03892e-21)
(0.00408555 -0.0953311 2.94e-21)
(0.00497449 -0.0894482 -1.4385e-21)
(0.00597601 -0.0839215 1.69975e-21)
(0.00706343 -0.07871 2.47573e-21)
(0.00821011 -0.0737784 1.01289e-21)
(0.00939037 -0.0690968 3.13843e-21)
(0.0105987 -0.064639 -9.93344e-22)
(0.0118575 -0.0603769 -2.56491e-22)
(0.0130086 -0.0563034 -2.18214e-21)
(0.0686935 -0.471723 -6.52843e-22)
(0.0615976 -0.430469 -4.75087e-22)
(0.0548528 -0.393222 -1.64073e-21)
(0.0484128 -0.359651 -4.74795e-21)
(0.0423643 -0.32942 1.58938e-21)
(0.036801 -0.302207 1.26045e-22)
(0.0317715 -0.277713 -1.29781e-21)
(0.0272986 -0.255664 3.22383e-22)
(0.0233884 -0.235809 -1.5936e-22)
(0.0200344 -0.217915 -4.20634e-21)
(0.0172205 -0.201775 1.75435e-21)
(0.014924 -0.187198 3.38004e-21)
(0.0131173 -0.17401 -2.52002e-23)
(0.0117699 -0.162055 1.40256e-21)
(0.0108488 -0.151192 3.81731e-21)
(0.0103199 -0.141294 -2.78514e-21)
(0.0101484 -0.132246 5.14667e-21)
(0.0102994 -0.123944 -2.63987e-21)
(0.010738 -0.116296 4.91649e-21)
(0.0114299 -0.10922 -3.86613e-21)
(0.0123411 -0.102642 1.78055e-21)
(0.0134387 -0.0964968 5.17108e-21)
(0.0146909 -0.0907281 4.99652e-22)
(0.0160666 -0.0852871 -5.21296e-21)
(0.017537 -0.0801313 3.04586e-21)
(0.0190712 -0.0752259 3.79354e-22)
(0.0206407 -0.0705414 -1.14214e-21)
(0.0222398 -0.0660513 4.42037e-21)
(0.0238963 -0.0617258 1.74657e-21)
(0.0254262 -0.0575648 -1.82855e-21)
(0.0809416 -0.469401 1.91528e-21)
(0.0727218 -0.427826 1.12407e-22)
(0.065038 -0.390412 -3.32933e-21)
(0.057822 -0.356802 7.1642e-22)
(0.0511435 -0.326633 -1.15846e-21)
(0.0450816 -0.299561 7.71951e-22)
(0.0396713 -0.275268 1.9688e-21)
(0.0349228 -0.253463 3.99955e-21)
(0.0308311 -0.233884 -4.66188e-21)
(0.0273794 -0.216288 1.14388e-21)
(0.0245426 -0.200458 -9.88134e-22)
(0.0222897 -0.186196 7.47348e-22)
(0.020586 -0.173323 -3.35063e-21)
(0.0193943 -0.161678 -3.18795e-22)
(0.0186759 -0.151116 6.21269e-21)
(0.0183914 -0.141505 -4.34257e-21)
(0.0185012 -0.132727 -3.03036e-21)
(0.018966 -0.124676 -2.45439e-21)
(0.0197469 -0.117257 4.39085e-21)
(0.0208055 -0.110386 1.06089e-21)
(0.0221046 -0.103985 -4.93603e-21)
(0.0236075 -0.0979902 6.96336e-21)
(0.025279 -0.0923415 -6.52258e-21)
(0.027085 -0.0869888 4.60038e-21)
(0.0289928 -0.0818894 -2.696e-21)
(0.0309688 -0.0770075 1.87325e-21)
(0.0329802 -0.0723142 1.56588e-21)
(0.0350215 -0.0677823 -6.95488e-21)
(0.0371262 -0.0633795 3.0579e-21)
(0.0390814 -0.0591145 6.82192e-23)
(0.09312 -0.466781 -1.89086e-21)
(0.0837676 -0.424956 1.6184e-21)
(0.0751501 -0.387439 -3.57662e-21)
(0.0671745 -0.353848 7.09076e-21)
(0.0598917 -0.323795 -2.1131e-21)
(0.0533643 -0.296911 3.36843e-21)
(0.0476122 -0.272861 5.54063e-23)
(0.0426317 -0.251339 -4.45728e-22)
(0.0384055 -0.23207 -8.42968e-22)
(0.0349058 -0.214802 -5.3618e-23)
(0.0320978 -0.199309 -3.66059e-21)
(0.0299418 -0.185387 1.93183e-21)
(0.0283954 -0.172852 -2.61021e-21)
(0.0274146 -0.161538 -1.80314e-22)
(0.0269545 -0.151294 -8.22055e-21)
(0.0269705 -0.141987 2.71193e-21)
(0.027418 -0.133495 1.79093e-21)
(0.0282532 -0.12571 -2.04049e-21)
(0.0294329 -0.118533 -2.31249e-22)
(0.0309152 -0.111877 -3.51602e-21)
(0.0326587 -0.105664 -1.33166e-21)
(0.0346233 -0.0998263 1.95833e-22)
(0.0367703 -0.094303 -3.58961e-21)
(0.0390619 -0.089042 -5.77676e-21)
(0.0414622 -0.0839993 1.98959e-22)
(0.0439335 -0.0791384 -7.47664e-22)
(0.0464391 -0.0744302 2.12155e-21)
(0.0489733 -0.0698465 -5.4912e-21)
(0.0515762 -0.0653513 4.90389e-21)
(0.0540022 -0.060964 -1.11603e-20)
(0.105223 -0.463866 -4.60583e-21)
(0.094734 -0.421867 6.35878e-21)
(0.085193 -0.384316 -7.37029e-21)
(0.0764789 -0.350805 -2.22056e-21)
(0.0686216 -0.320922 -1.57153e-21)
(0.0616656 -0.294274 -1.82674e-21)
(0.0556139 -0.270509 -1.70725e-21)
(0.050448 -0.249308 -3.02849e-22)
(0.0461369 -0.230383 -1.90949e-21)
(0.0426412 -0.213473 -4.42189e-22)
(0.0399157 -0.198344 3.94067e-21)
(0.0379114 -0.184786 -2.05953e-21)
(0.0365779 -0.17261 -2.78634e-21)
(0.0358642 -0.161645 -5.23719e-21)
(0.035719 -0.151738 1.14553e-20)
(0.0360921 -0.142751 -4.63598e-21)
(0.036934 -0.13456 1.83616e-21)
(0.0381963 -0.127054 -7.42042e-21)
(0.0398316 -0.120131 2.89991e-21)
(0.041794 -0.113702 -1.34039e-21)
(0.0440384 -0.107687 1.62813e-21)
(0.046521 -0.102015 -6.2617e-22)
(0.0491993 -0.0966229 6.03273e-21)
(0.0520319 -0.0914574 -2.21489e-21)
(0.0549792 -0.0864722 6.63098e-21)
(0.0579993 -0.0816299 -1.65761e-21)
(0.0610508 -0.0769007 9.25318e-21)
(0.0641282 -0.0722547 2.9027e-21)
(0.0672782 -0.0676512 5.62946e-21)
(0.0702194 -0.0631222 -1.94634e-20)
(0.117243 -0.460661 7.25295e-21)
(0.105621 -0.418567 -1.49619e-21)
(0.0951717 -0.381052 3.25855e-21)
(0.0857452 -0.347685 -9.9365e-22)
(0.0773479 -0.318027 3.60564e-21)
(0.0700043 -0.291665 3.74777e-21)
(0.063699 -0.268229 4.54678e-21)
(0.0583973 -0.247387 -4.41364e-22)
(0.0540539 -0.228838 -5.09664e-21)
(0.0506167 -0.212314 7.63497e-21)
(0.0480294 -0.197574 -8.18939e-22)
(0.0462334 -0.184403 6.08752e-21)
(0.0451699 -0.172605 2.38717e-21)
(0.0447804 -0.162008 8.38735e-22)
(0.0450074 -0.152454 1.46052e-21)
(0.0457948 -0.143802 2.19682e-21)
(0.0470881 -0.135926 4.00456e-21)
(0.0488343 -0.128712 -1.29513e-21)
(0.0509818 -0.122055 6.64117e-21)
(0.0534807 -0.115864 3.35188e-21)
(0.0562822 -0.110057 -7.15781e-21)
(0.0593386 -0.104559 1.34783e-20)
(0.0626036 -0.0993054 -1.86666e-20)
(0.0660323 -0.0942398 1.84876e-20)
(0.0695805 -0.089314 -6.37087e-21)
(0.0732027 -0.0844885 1.16202e-21)
(0.0768516 -0.0797328 -9.40964e-21)
(0.080522 -0.0750141 5.34154e-21)
(0.0842676 -0.0702858 2.08092e-21)
(0.0877674 -0.0655946 -2.88411e-21)
(0.129177 -0.457171 -4.13835e-21)
(0.116428 -0.415064 4.80383e-21)
(0.105092 -0.377659 -1.3661e-21)
(0.094985 -0.3445 4.23762e-21)
(0.086087 -0.315125 4.43365e-22)
(0.0784012 -0.289098 1.21571e-21)
(0.0718923 -0.266034 -8.96329e-21)
(0.0665081 -0.245586 -1.75245e-21)
(0.062188 -0.227445 6.6263e-21)
(0.0588665 -0.211335 5.57408e-21)
(0.0564754 -0.197008 -9.87168e-21)
(0.0549462 -0.184243 6.14403e-21)
(0.0542112 -0.172843 -6.38938e-21)
(0.0542044 -0.162629 4.83763e-21)
(0.0548615 -0.153443 -8.46861e-21)
(0.0561209 -0.14514 -6.8136e-21)
(0.0579228 -0.137591 2.14364e-22)
(0.0602097 -0.130681 -3.61372e-21)
(0.0629258 -0.124302 6.25587e-21)
(0.0660173 -0.11836 2.7221e-21)
(0.0694316 -0.11277 -1.77878e-21)
(0.0731172 -0.107455 -5.13436e-22)
(0.077024 -0.102348 2.58531e-21)
(0.0811029 -0.0973879 -8.57694e-21)
(0.0853061 -0.0925243 1.49468e-20)
(0.0895825 -0.0877153 -3.60867e-21)
(0.0938802 -0.0829285 -4.64124e-22)
(0.0981926 -0.0781276 1.50534e-20)
(0.102582 -0.0732581 2.39639e-21)
(0.106682 -0.0683838 -2.40646e-21)
(0.141018 -0.4534 1.98292e-22)
(0.127157 -0.411367 -2.46147e-21)
(0.114962 -0.374147 -2.53717e-21)
(0.104211 -0.341263 -4.588e-21)
(0.0948575 -0.312227 1.80047e-22)
(0.0868796 -0.286585 -3.97108e-21)
(0.0802215 -0.263934 4.75996e-21)
(0.074812 -0.243917 -4.77775e-22)
(0.0705741 -0.226215 4.71445e-21)
(0.0674281 -0.210543 -3.74607e-21)
(0.0652936 -0.19665 -2.12644e-21)
(0.0640916 -0.18431 1.24787e-21)
(0.0637452 -0.173322 7.23578e-22)
(0.0641805 -0.163506 -8.0641e-21)
(0.0653267 -0.154699 4.86175e-21)
(0.0671161 -0.146757 -2.71903e-21)
(0.0694839 -0.139547 7.75567e-21)
(0.0723681 -0.132951 -2.74499e-21)
(0.075709 -0.12686 2.92729e-21)
(0.0794486 -0.121178 8.14215e-22)
(0.0835307 -0.115816 5.73367e-21)
(0.0879002 -0.110694 -1.12149e-21)
(0.0925031 -0.10574 1.04392e-20)
(0.0972861 -0.100893 -1.18832e-20)
(0.102197 -0.0960959 -4.35964e-21)
(0.10718 -0.0913047 3.71148e-21)
(0.112177 -0.086484 -2.20056e-22)
(0.11718 -0.0815927 -7.12683e-21)
(0.122259 -0.0765665 5.92903e-21)
(0.127003 -0.0714885 -8.02754e-21)
(0.152761 -0.449353 7.10409e-21)
(0.137811 -0.407483 2.14857e-21)
(0.124791 -0.370527 2.83284e-21)
(0.113439 -0.337984 4.21407e-21)
(0.10368 -0.309346 6.77404e-21)
(0.0954652 -0.284137 -2.27223e-22)
(0.0887166 -0.26194 1.01075e-21)
(0.0833428 -0.242387 9.31973e-21)
(0.0792496 -0.225151 -1.90206e-21)
(0.0763421 -0.209942 -3.93944e-21)
(0.0745272 -0.196501 7.31741e-21)
(0.0737148 -0.184602 1.42772e-21)
(0.0738187 -0.174039 1.88165e-23)
(0.0747568 -0.164631 1.97138e-21)
(0.0764515 -0.156214 3.93244e-21)
(0.0788293 -0.14864 -8.69702e-21)
(0.0818204 -0.141778 7.62691e-21)
(0.0853583 -0.135505 1.36425e-21)
(0.0893793 -0.129712 8.51174e-21)
(0.0938217 -0.124299 -4.71266e-21)
(0.0986259 -0.119174 8.37242e-21)
(0.103733 -0.114254 -9.33713e-21)
(0.109085 -0.109464 9.41865e-21)
(0.114625 -0.104737 1.61137e-21)
(0.120296 -0.100014 -6.8373e-21)
(0.126037 -0.095244 -2.54136e-21)
(0.131783 -0.0903892 1.46341e-20)
(0.137525 -0.0854014 1.1011e-20)
(0.143341 -0.0802048 3.04925e-21)
(0.148767 -0.0749039 -2.7338e-21)
(0.164403 -0.445035 7.43284e-22)
(0.148391 -0.403421 2.01709e-21)
(0.134587 -0.366807 8.85201e-21)
(0.122685 -0.334674 -1.49715e-20)
(0.112576 -0.30649 -1.67681e-21)
(0.104186 -0.281762 -1.83102e-21)
(0.0974103 -0.260059 8.07483e-22)
(0.0921375 -0.241002 1.25485e-21)
(0.0882549 -0.224258 2.30223e-21)
(0.0856521 -0.20953 -6.47387e-21)
(0.0842223 -0.196558 -1.55143e-21)
(0.0838641 -0.185111 3.95505e-21)
(0.0844815 -0.174983 4.78132e-21)
(0.0859842 -0.16599 -4.78728e-21)
(0.0882878 -0.157969 -5.37542e-21)
(0.0913126 -0.150771 8.44762e-21)
(0.0949841 -0.144261 6.0601e-21)
(0.0992314 -0.138318 -1.45321e-21)
(0.103987 -0.13283 -4.22431e-21)
(0.109186 -0.127693 8.4411e-22)
(0.114765 -0.122815 -1.10492e-20)
(0.120662 -0.118108 1.38022e-20)
(0.126815 -0.113492 -9.84639e-21)
(0.133164 -0.108896 -5.76943e-22)
(0.139646 -0.104254 7.03298e-21)
(0.146195 -0.0995119 -2.34009e-21)
(0.152738 -0.0946259 -7.54074e-21)
(0.159267 -0.0895391 9.43091e-21)
(0.165865 -0.0841611 -3.0819e-22)
(0.172014 -0.0786205 2.00233e-21)
(0.175938 -0.440451 -4.90702e-22)
(0.158902 -0.399187 -2.01925e-21)
(0.144363 -0.362996 -1.02185e-20)
(0.131968 -0.33134 3.73189e-21)
(0.121571 -0.303668 -1.32059e-21)
(0.113071 -0.279467 4.30658e-21)
(0.106337 -0.258295 3.16967e-22)
(0.101235 -0.239764 -5.94601e-21)
(0.0976332 -0.223534 9.3898e-21)
(0.0954042 -0.209305 -8.89765e-21)
(0.0944278 -0.196814 -4.99753e-22)
(0.0945905 -0.185827 2.45375e-21)
(0.0957863 -0.176139 -4.45043e-21)
(0.0979166 -0.167565 5.47193e-21)
(0.10089 -0.159942 -1.08546e-20)
(0.104621 -0.15312 -2.83959e-21)
(0.109029 -0.146966 7.03617e-21)
(0.114041 -0.141356 -1.9357e-22)
(0.119584 -0.136176 -5.38847e-21)
(0.125591 -0.131324 1.46719e-20)
(0.131996 -0.1267 -7.88855e-21)
(0.138733 -0.122215 -1.14998e-20)
(0.145737 -0.117785 4.05903e-21)
(0.152944 -0.113331 -1.23887e-20)
(0.160287 -0.108782 -3.29419e-21)
(0.167693 -0.104078 -5.82582e-22)
(0.175083 -0.0991677 -9.43185e-21)
(0.182444 -0.0939837 1.12652e-20)
(0.189869 -0.0884175 -6.70175e-21)
(0.196779 -0.082624 8.66385e-21)
(0.187363 -0.435605 -2.51112e-21)
(0.169348 -0.394788 -8.17711e-21)
(0.15413 -0.359103 4.45882e-21)
(0.141306 -0.327993 -4.5047e-21)
(0.130691 -0.300887 -3.64809e-21)
(0.122153 -0.277258 -2.34417e-21)
(0.115535 -0.256652 -8.71584e-21)
(0.110677 -0.238674 6.17332e-21)
(0.10743 -0.222977 -1.62729e-20)
(0.105647 -0.20926 -6.54776e-21)
(0.105195 -0.197257 2.14251e-21)
(0.105948 -0.186735 4.12043e-21)
(0.107788 -0.177487 9.64752e-23)
(0.11061 -0.169331 -8.88701e-21)
(0.114314 -0.162103 2.12758e-21)
(0.11881 -0.155656 -9.14784e-21)
(0.124012 -0.149854 -7.06743e-21)
(0.129841 -0.144576 -4.65727e-21)
(0.136224 -0.139707 -1.27226e-21)
(0.14309 -0.135141 7.8196e-21)
(0.150369 -0.130779 1.20972e-20)
(0.157994 -0.126525 -3.8082e-21)
(0.165896 -0.122292 -3.93244e-21)
(0.174008 -0.117994 7.74822e-21)
(0.182259 -0.113553 4.59437e-21)
(0.190568 -0.108901 -3.64912e-21)
(0.198851 -0.103978 -4.36728e-21)
(0.20709 -0.0987044 3.92256e-22)
(0.215386 -0.0929487 5.04456e-21)
(0.223095 -0.0868945 7.65867e-21)
(0.198675 -0.430502 -6.3869e-22)
(0.179735 -0.390233 1.0588e-20)
(0.163904 -0.355134 8.99668e-21)
(0.150721 -0.324637 7.52467e-21)
(0.139964 -0.298152 -5.04202e-21)
(0.131466 -0.275138 -1.06981e-21)
(0.125042 -0.255131 9.25384e-22)
(0.120508 -0.237728 7.91776e-21)
(0.117691 -0.222581 3.18971e-21)
(0.116431 -0.209385 8.1601e-21)
(0.116577 -0.197874 -1.19544e-20)
(0.117991 -0.187815 1.13542e-21)
(0.120545 -0.179004 5.33377e-21)
(0.124123 -0.171259 3.54214e-21)
(0.12862 -0.164419 8.00025e-21)
(0.133939 -0.158337 -5.29087e-21)
(0.139989 -0.15288 -5.4929e-21)
(0.146689 -0.147928 8.80103e-22)
(0.153961 -0.143366 1.27654e-20)
(0.161732 -0.139087 -2.13993e-20)
(0.169931 -0.134989 7.58337e-21)
(0.178488 -0.130975 -1.22211e-22)
(0.187333 -0.12695 1.61918e-20)
(0.196393 -0.122823 -7.03754e-21)
(0.205596 -0.118508 -2.39675e-22)
(0.214854 -0.113927 -4.99743e-21)
(0.224072 -0.10901 4.83716e-21)
(0.233234 -0.10366 1.23908e-21)
(0.242443 -0.0977211 -6.14694e-21)
(0.250989 -0.0914058 2.27757e-20)
(0.209871 -0.425149 -1.00708e-20)
(0.19007 -0.385528 -6.53333e-21)
(0.173698 -0.351098 -1.80539e-20)
(0.160236 -0.32128 -8.98331e-21)
(0.149419 -0.295469 8.65408e-21)
(0.141045 -0.27311 -5.61577e-21)
(0.134898 -0.25373 -1.58635e-21)
(0.13077 -0.236923 -4.22791e-21)
(0.128467 -0.222337 7.25404e-21)
(0.127809 -0.209666 -1.76597e-21)
(0.128629 -0.198646 -2.86772e-21)
(0.130777 -0.189045 -4.0957e-22)
(0.134114 -0.180661 -1.37243e-20)
(0.138515 -0.173315 -1.0303e-21)
(0.143867 -0.166848 3.64707e-21)
(0.150067 -0.161116 -4.8785e-22)
(0.15702 -0.155991 -1.69429e-20)
(0.164641 -0.151353 1.71293e-20)
(0.17285 -0.147088 -1.77192e-20)
(0.18157 -0.14309 7.11715e-21)
(0.190731 -0.139257 1.03118e-21)
(0.20026 -0.135487 4.50832e-22)
(0.210085 -0.131681 -8.55694e-21)
(0.220134 -0.127743 3.08511e-21)
(0.230328 -0.123574 7.07045e-23)
(0.240574 -0.119088 1.13496e-21)
(0.250772 -0.114201 -2.56309e-20)
(0.260897 -0.108798 6.65633e-21)
(0.271061 -0.102691 7.79199e-21)
(0.280481 -0.0961237 1.05313e-20)
(0.220947 -0.419549 1.99493e-20)
(0.200361 -0.380678 8.01963e-21)
(0.183529 -0.347 4.94251e-21)
(0.169875 -0.317926 8.07122e-21)
(0.159086 -0.29284 -1.13829e-21)
(0.150925 -0.271173 6.95941e-21)
(0.145146 -0.252447 1.64538e-20)
(0.141512 -0.236251 -2.04423e-21)
(0.139807 -0.222234 1.09489e-21)
(0.139832 -0.210089 2.30338e-20)
(0.141406 -0.199554 -2.92162e-21)
(0.144363 -0.190399 3.52912e-21)
(0.148554 -0.182426 -1.53896e-21)
(0.153846 -0.17546 -5.77995e-22)
(0.160116 -0.169345 2.10527e-20)
(0.167255 -0.163943 8.17218e-22)
(0.175165 -0.159128 2.48463e-20)
(0.183755 -0.154783 -2.99155e-21)
(0.192944 -0.150799 -5.92844e-21)
(0.202655 -0.147071 1.41899e-20)
(0.212813 -0.143496 -1.3782e-20)
(0.223349 -0.139971 1.54269e-20)
(0.234189 -0.136394 8.73713e-21)
(0.245259 -0.132659 -7.57619e-21)
(0.256478 -0.128661 1.15015e-20)
(0.267749 -0.124299 1.35438e-21)
(0.278963 -0.119476 -5.5527e-21)
(0.290092 -0.114052 2.45108e-21)
(0.301251 -0.107804 2.00908e-20)
(0.31158 -0.101005 3.43284e-21)
(0.231903 -0.413708 -3.42301e-21)
(0.210614 -0.37569 -7.87974e-21)
(0.193415 -0.342844 3.57847e-21)
(0.179663 -0.314579 -1.45799e-20)
(0.168998 -0.290265 7.47808e-21)
(0.161146 -0.269325 -1.43681e-20)
(0.155827 -0.251275 -1.02424e-20)
(0.152778 -0.235704 2.88848e-21)
(0.15176 -0.222258 3.44051e-21)
(0.152554 -0.210635 -1.54993e-20)
(0.154963 -0.200573 -7.19262e-21)
(0.158807 -0.191849 3.61346e-21)
(0.163926 -0.184266 -9.92656e-21)
(0.170175 -0.177654 -4.22392e-21)
(0.177426 -0.171864 -3.03258e-21)
(0.185563 -0.166761 -3.13092e-21)
(0.194481 -0.162226 -1.38361e-20)
(0.204088 -0.158147 -9.30313e-21)
(0.214298 -0.154418 1.37031e-21)
(0.225035 -0.150938 3.12578e-21)
(0.236224 -0.147607 3.69275e-21)
(0.247794 -0.144322 -1.26915e-20)
(0.259675 -0.140977 5.00871e-21)
(0.271791 -0.137462 -1.06548e-20)
(0.284062 -0.13366 1.06097e-20)
(0.296387 -0.129457 -1.40559e-20)
(0.308649 -0.12474 4.84323e-21)
(0.320818 -0.11934 -7.24448e-21)
(0.33301 -0.112991 -1.09293e-20)
(0.344285 -0.105997 -1.30558e-21)
(0.242736 -0.407632 -7.30589e-21)
(0.220839 -0.370569 -7.11002e-21)
(0.203373 -0.338636 -7.58815e-21)
(0.189625 -0.31124 -6.20149e-21)
(0.179187 -0.287744 1.91583e-20)
(0.171744 -0.267561 2.97978e-21)
(0.166984 -0.250207 9.14703e-21)
(0.164616 -0.235268 1.48441e-20)
(0.164376 -0.222394 7.74854e-21)
(0.166027 -0.211284 -1.02902e-20)
(0.169354 -0.201681 1.81521e-20)
(0.174165 -0.193364 -1.80769e-20)
(0.180285 -0.186143 1.80494e-20)
(0.187562 -0.179854 2.30795e-21)
(0.195858 -0.174353 5.01541e-21)
(0.205049 -0.169512 1.57637e-21)
(0.215027 -0.165218 2.23211e-20)
(0.225696 -0.161365 -3.37439e-21)
(0.236966 -0.157856 3.23033e-21)
(0.248761 -0.154593 1.15142e-20)
(0.261006 -0.151482 -1.30894e-20)
(0.273632 -0.148421 1.09914e-20)
(0.28657 -0.145306 5.05299e-22)
(0.299749 -0.14202 5.33757e-21)
(0.313088 -0.138439 1.01697e-20)
(0.326487 -0.134435 -1.77806e-21)
(0.339822 -0.129875 1.07763e-20)
(0.353059 -0.124558 1.63543e-20)
(0.36632 -0.118165 -1.77361e-20)
(0.378577 -0.111031 -1.27942e-20)
(0.253445 -0.401324 2.20728e-20)
(0.231046 -0.36532 -2.56744e-21)
(0.213422 -0.334378 5.81515e-21)
(0.199788 -0.30791 1.14949e-20)
(0.189685 -0.285273 -3.46977e-20)
(0.182758 -0.265876 3.93402e-21)
(0.178659 -0.249232 -1.48107e-20)
(0.17707 -0.234931 1.56811e-20)
(0.177703 -0.222624 -1.28212e-20)
(0.180301 -0.212013 7.72947e-21)
(0.184632 -0.202848 -2.82484e-20)
(0.19049 -0.194912 3.68345e-22)
(0.197688 -0.188022 -1.07312e-20)
(0.206062 -0.182018 1.62127e-20)
(0.215466 -0.176763 -1.79965e-20)
(0.225771 -0.172138 -1.03639e-21)
(0.236861 -0.168036 -1.61466e-20)
(0.248634 -0.164361 -1.49752e-21)
(0.261001 -0.161022 1.54518e-21)
(0.273881 -0.157931 4.23905e-21)
(0.287203 -0.155 -2.34372e-20)
(0.300898 -0.152136 -8.3812e-22)
(0.314902 -0.149234 -1.41122e-20)
(0.329147 -0.14618 -3.44085e-21)
(0.343559 -0.142842 -9.37138e-21)
(0.358039 -0.139079 -1.06503e-20)
(0.372461 -0.134736 -1.16462e-20)
(0.38679 -0.129575 1.89701e-20)
(0.401149 -0.123217 5.25073e-21)
(0.414423 -0.116019 -1.22661e-20)
(0.264029 -0.394791 -1.47361e-20)
(0.241244 -0.359945 5.90391e-21)
(0.223581 -0.33007 -1.09611e-20)
(0.210179 -0.304586 1.69962e-21)
(0.200525 -0.282846 2.01223e-20)
(0.194223 -0.264259 -1.0535e-20)
(0.190892 -0.248338 -1.20435e-20)
(0.190183 -0.234675 -1.05296e-20)
(0.191786 -0.222926 3.96531e-22)
(0.195423 -0.2128 7.32176e-21)
(0.200845 -0.204049 -5.85097e-21)
(0.207831 -0.196463 -3.18744e-23)
(0.216183 -0.189865 1.9634e-20)
(0.225726 -0.184103 -1.01845e-20)
(0.236305 -0.179046 3.04692e-21)
(0.247781 -0.174583 -9.22588e-21)
(0.260034 -0.170616 3.52992e-21)
(0.272956 -0.167057 8.17787e-21)
(0.286454 -0.163826 9.90036e-21)
(0.300446 -0.160846 -1.10296e-20)
(0.314859 -0.15804 1.62365e-21)
(0.32963 -0.155324 1.02704e-20)
(0.344697 -0.152604 1.86064e-20)
(0.360001 -0.149768 5.29391e-21)
(0.375475 -0.146683 -2.02673e-20)
(0.391027 -0.143198 2.45077e-20)
(0.406535 -0.139139 -1.2417e-20)
(0.421966 -0.134224 -1.54724e-20)
(0.437451 -0.128002 -9.81554e-21)
(0.451777 -0.120847 -1.58119e-20)
(0.274486 -0.388035 8.08579e-21)
(0.251445 -0.354448 -6.98234e-21)
(0.23387 -0.325713 2.5842e-21)
(0.220824 -0.301264 1.57717e-20)
(0.211739 -0.280456 4.55897e-21)
(0.206177 -0.262699 -4.17147e-21)
(0.203721 -0.247508 1.03092e-20)
(0.203996 -0.234481 2.1426e-21)
(0.206667 -0.22328 1.08903e-20)
(0.211435 -0.213618 6.29653e-21)
(0.218036 -0.205254 1.66441e-22)
(0.226233 -0.197984 4.38325e-21)
(0.235816 -0.191639 -1.45748e-21)
(0.2466 -0.186071 2.65965e-21)
(0.258419 -0.181159 7.77763e-21)
(0.271127 -0.176797 -4.51527e-21)
(0.284596 -0.172898 1.16031e-20)
(0.298711 -0.169384 1.23656e-20)
(0.313376 -0.166185 -1.46741e-20)
(0.328505 -0.163238 1.52621e-20)
(0.344024 -0.160479 3.42546e-20)
(0.359871 -0.15784 -2.27527e-20)
(0.375991 -0.155242 2.38619e-20)
(0.392333 -0.152585 -1.70214e-20)
(0.408841 -0.149743 -2.54992e-21)
(0.425438 -0.146563 1.97294e-20)
(0.442011 -0.142853 -3.90778e-21)
(0.458539 -0.138289 1.57449e-20)
(0.475164 -0.132331 1.62019e-20)
(0.490578 -0.125357 -3.59331e-20)
(0.284817 -0.381062 -7.91659e-21)
(0.261658 -0.34883 3.7857e-21)
(0.244309 -0.321303 1.80373e-21)
(0.231749 -0.297936 -1.87161e-20)
(0.223357 -0.278092 -1.04015e-20)
(0.218652 -0.26118 8.22229e-21)
(0.217183 -0.246724 -2.41347e-20)
(0.218546 -0.234328 3.0596e-20)
(0.222382 -0.223659 -1.7936e-20)
(0.228374 -0.214439 2.24041e-21)
(0.236241 -0.206433 -3.39939e-21)
(0.245731 -0.199445 -1.20558e-20)
(0.256623 -0.193309 2.55747e-20)
(0.268719 -0.187887 1.04398e-20)
(0.281845 -0.183063 -1.07769e-20)
(0.295846 -0.17874 2.69843e-22)
(0.310586 -0.174837 6.65189e-21)
(0.325943 -0.171286 -1.51436e-20)
(0.341814 -0.168031 3.16348e-21)
(0.358108 -0.16502 1.12361e-20)
(0.37475 -0.162208 -4.74018e-21)
(0.391676 -0.159546 8.51036e-21)
(0.408834 -0.156975 -1.6994e-20)
(0.426182 -0.15442 2.54125e-20)
(0.443681 -0.151773 6.42397e-21)
(0.461272 -0.148892 -1.68978e-20)
(0.478863 -0.145584 -1.53943e-20)
(0.49646 -0.14148 -3.32695e-22)
(0.514227 -0.135942 2.18172e-20)
(0.530761 -0.129327 -6.40639e-21)
(0.295021 -0.373874 -2.24458e-21)
(0.271898 -0.343091 -1.75394e-20)
(0.254919 -0.316835 2.14928e-20)
(0.242982 -0.294593 1.54227e-20)
(0.235409 -0.275736 1.64461e-20)
(0.231679 -0.259682 5.08313e-21)
(0.231308 -0.245962 7.62968e-21)
(0.233863 -0.234188 4.1288e-21)
(0.238962 -0.224037 -1.71357e-20)
(0.24627 -0.215235 3.22828e-20)
(0.255488 -0.207558 -2.79018e-20)
(0.266352 -0.200814 -2.25984e-21)
(0.278627 -0.194846 4.15133e-21)
(0.292107 -0.189521 -2.08534e-20)
(0.306607 -0.184729 1.86473e-20)
(0.321964 -0.18038 -5.69783e-21)
(0.338032 -0.1764 -1.55406e-20)
(0.354684 -0.172729 6.44552e-21)
(0.371807 -0.16932 -1.23745e-20)
(0.389305 -0.166136 -1.14239e-20)
(0.407094 -0.163147 -1.28307e-20)
(0.425109 -0.160327 2.98855e-21)
(0.443297 -0.157645 2.00584e-21)
(0.461622 -0.155059 -3.43694e-20)
(0.480059 -0.152498 -1.37826e-20)
(0.498572 -0.149852 8.64655e-21)
(0.517103 -0.146951 1.13549e-20)
(0.535703 -0.143401 -1.59781e-20)
(0.554594 -0.138458 -6.36904e-21)
(0.572277 -0.132426 1.13118e-21)
(0.305099 -0.366475 -1.66448e-21)
(0.282176 -0.337227 1.13374e-20)
(0.265721 -0.312301 -3.28343e-21)
(0.254545 -0.291219 -4.12738e-21)
(0.24792 -0.273371 -2.57396e-20)
(0.245285 -0.258183 -6.20163e-21)
(0.246123 -0.245197 1.18317e-20)
(0.249973 -0.234034 -8.32909e-21)
(0.256432 -0.224381 -1.03544e-21)
(0.265144 -0.215974 -1.71383e-21)
(0.275796 -0.208595 1.06688e-20)
(0.28811 -0.202061 -1.72013e-20)
(0.301842 -0.196221 -1.21499e-20)
(0.316774 -0.190947 1.48956e-20)
(0.332712 -0.186136 -8.90969e-21)
(0.349486 -0.181701 -1.13032e-20)
(0.366943 -0.177575 2.46845e-20)
(0.384947 -0.173702 -3.95378e-21)
(0.403378 -0.170043 1.59505e-20)
(0.42213 -0.16657 -1.47515e-20)
(0.441112 -0.163266 -1.25822e-20)
(0.460249 -0.160126 1.12277e-20)
(0.479483 -0.157147 -1.14425e-21)
(0.498776 -0.154328 -8.92726e-21)
(0.518111 -0.15165 8.10136e-21)
(0.537473 -0.14907 -2.61353e-20)
(0.556843 -0.146482 1.60459e-20)
(0.576346 -0.143521 -2.83776e-22)
(0.596315 -0.139354 -1.77306e-20)
(0.615186 -0.134192 2.88998e-20)
(0.315059 -0.358866 8.23559e-21)
(0.292513 -0.331236 -2.21625e-20)
(0.276737 -0.307686 -2.09384e-21)
(0.266463 -0.287795 1.16644e-20)
(0.260915 -0.270973 -3.21368e-21)
(0.259493 -0.256655 -9.55342e-21)
(0.261649 -0.244397 4.61784e-21)
(0.266895 -0.233832 5.70036e-21)
(0.274805 -0.224658 5.32151e-22)
(0.285007 -0.21662 7.62978e-21)
(0.297171 -0.209511 2.56717e-20)
(0.311008 -0.203154 -9.02791e-21)
(0.326263 -0.197404 2.66388e-21)
(0.342709 -0.192142 -7.11781e-21)
(0.360146 -0.187268 2.71973e-20)
(0.378397 -0.182698 -5.17673e-21)
(0.397302 -0.178368 1.76252e-20)
(0.416718 -0.174226 -7.18283e-21)
(0.43652 -0.170232 7.96775e-21)
(0.456594 -0.166364 1.25213e-20)
(0.476839 -0.16261 2.30097e-21)
(0.497168 -0.158975 9.03612e-21)
(0.517512 -0.155478 -7.76121e-21)
(0.53782 -0.152154 2.1909e-20)
(0.558067 -0.149044 -9.18721e-21)
(0.578247 -0.146196 3.46471e-20)
(0.598368 -0.143637 -1.00537e-20)
(0.618642 -0.141133 7.12109e-21)
(0.639616 -0.13784 -1.37411e-20)
(0.659751 -0.133836 2.75109e-20)
(0.324934 -0.351055 -1.7835e-20)
(0.302938 -0.325103 6.16039e-22)
(0.287989 -0.302969 -1.2601e-20)
(0.278754 -0.284295 2.39433e-21)
(0.274409 -0.26851 7.2175e-22)
(0.274318 -0.255065 -1.28379e-20)
(0.2779 -0.243527 -2.52456e-20)
(0.284639 -0.233545 1.31277e-20)
(0.29409 -0.224828 -1.9174e-20)
(0.305861 -0.217135 -1.07597e-20)
(0.319608 -0.210267 -6.48525e-21)
(0.335032 -0.204056 -5.54316e-21)
(0.351868 -0.198367 2.97177e-22)
(0.369883 -0.193085 -2.07546e-20)
(0.388871 -0.188113 1.47144e-20)
(0.408648 -0.183374 -2.43806e-20)
(0.429054 -0.178801 -6.52802e-21)
(0.449942 -0.174344 7.24602e-21)
(0.471182 -0.169961 9.46999e-21)
(0.492657 -0.165624 9.90532e-21)
(0.514262 -0.161317 7.89455e-21)
(0.535899 -0.157038 -2.01982e-20)
(0.557485 -0.152807 2.10035e-20)