/*--------------------------------*- C++ -*----------------------------------*\
  =========                 |
  \\      /  F ield         | OpenFOAM: The Open Source CFD Toolbox
   \\    /   O peration     | Website:  https://openfoam.org
    \\  /    A nd           | Version:  6.0
     \\/     M anipulation  |
\*---------------------------------------------------------------------------*/
FoamFile
{
    version     2.0;
    format      ascii;
    class       volScalarField;
    location    "5";
    object      p;
}
// * * * * * * * * * * * * * * * * * * * * * * * * * * * * * * * * * * * * * //

dimensions      [0 2 -2 0 0 0 0];

internalField   nonuniform List<scalar> 
9600
(
-0.418165
-0.410564
-0.405486
-0.40152
-0.397881
-0.394472
-0.391213
-0.388035
-0.384901
-0.381797
-0.378722
-0.37568
-0.372678
-0.369726
-0.366834
-0.364013
-0.361264
-0.35854
-0.355834
-0.353704
-0.426379
-0.41841
-0.413079
-0.408865
-0.404956
-0.401261
-0.397706
-0.394229
-0.390799
-0.387408
-0.384056
-0.380753
-0.377508
-0.374334
-0.371241
-0.368245
-0.365348
-0.362486
-0.359636
-0.357545
-0.435665
-0.427226
-0.421555
-0.417027
-0.412788
-0.408751
-0.404849
-0.401024
-0.39725
-0.393525
-0.389853
-0.386246
-0.382718
-0.379282
-0.375953
-0.37275
-0.369677
-0.366647
-0.36362
-0.361588
-0.445911
-0.436988
-0.430929
-0.42603
-0.421402
-0.416966
-0.412662
-0.408437
-0.404271
-0.400164
-0.396125
-0.39217
-0.388315
-0.384576
-0.380972
-0.377525
-0.374243
-0.371014
-0.367775
-0.365821
-0.457161
-0.447713
-0.441214
-0.435885
-0.430811
-0.425921
-0.421161
-0.416484
-0.411874
-0.407336
-0.402882
-0.398532
-0.394305
-0.39022
-0.386298
-0.382569
-0.379044
-0.375579
-0.372092
-0.370232
-0.469452
-0.459423
-0.452427
-0.446612
-0.441034
-0.435632
-0.430362
-0.42518
-0.420076
-0.415057
-0.41014
-0.405347
-0.4007
-0.396223
-0.391938
-0.387884
-0.384076
-0.380336
-0.376557
-0.374808
-0.482813
-0.472143
-0.464591
-0.458231
-0.45209
-0.44612
-0.440284
-0.434545
-0.428894
-0.423345
-0.417915
-0.412631
-0.407516
-0.402597
-0.397901
-0.393476
-0.38934
-0.38528
-0.381163
-0.379536
-0.497275
-0.485898
-0.477729
-0.470764
-0.464
-0.457404
-0.450948
-0.444598
-0.438351
-0.432222
-0.426231
-0.420406
-0.414773
-0.409361
-0.404203
-0.399355
-0.394842
-0.39041
-0.3859
-0.384405
-0.512871
-0.500716
-0.491864
-0.484232
-0.476785
-0.469506
-0.462376
-0.455364
-0.448472
-0.441715
-0.435115
-0.4287
-0.422499
-0.416542
-0.410867
-0.40554
-0.400594
-0.395731
-0.390764
-0.389403
-0.529635
-0.516622
-0.50702
-0.498657
-0.490467
-0.482448
-0.474591
-0.466869
-0.459285
-0.451855
-0.444601
-0.437549
-0.43073
-0.424174
-0.417924
-0.412057
-0.406614
-0.401251
-0.395752
-0.394516
-0.547599
-0.533644
-0.52322
-0.514062
-0.505068
-0.496254
-0.48762
-0.479141
-0.470822
-0.462677
-0.454726
-0.446993
-0.439508
-0.4323
-0.425415
-0.41894
-0.412928
-0.406983
-0.400859
-0.399725
-0.566792
-0.551804
-0.540483
-0.530465
-0.520608
-0.510946
-0.501487
-0.49221
-0.483116
-0.474218
-0.465533
-0.45708
-0.448883
-0.440971
-0.433387
-0.426232
-0.419566
-0.41294
-0.406078
-0.404997
-0.587241
-0.571119
-0.558825
-0.547882
-0.537104
-0.526543
-0.516216
-0.506102
-0.496201
-0.486519
-0.477068
-0.46786
-0.458911
-0.450243
-0.441898
-0.433981
-0.426565
-0.419139
-0.411394
-0.410282
-0.60896
-0.591601
-0.578255
-0.566323
-0.554568
-0.543062
-0.531829
-0.520846
-0.510109
-0.499619
-0.489378
-0.479387
-0.469653
-0.460184
-0.451013
-0.44225
-0.433968
-0.425593
-0.416775
-0.415491
-0.631953
-0.613249
-0.598771
-0.58579
-0.573007
-0.560514
-0.548341
-0.536464
-0.524871
-0.513556
-0.50251
-0.491721
-0.481178
-0.470871
-0.460816
-0.451114
-0.441834
-0.432318
-0.422162
-0.420469
-0.656212
-0.636049
-0.620362
-0.606273
-0.592417
-0.578901
-0.565762
-0.552971
-0.540511
-0.528367
-0.516514
-0.504925
-0.493566
-0.482403
-0.471419
-0.46069
-0.450258
-0.439358
-0.427489
-0.424995
-0.681711
-0.65997
-0.643
-0.627752
-0.612782
-0.598215
-0.58409
-0.570376
-0.557047
-0.544079
-0.531434
-0.519066
-0.506917
-0.494914
-0.482998
-0.471194
-0.459494
-0.446965
-0.432898
-0.428944
-0.708432
-0.684967
-0.666638
-0.650188
-0.634073
-0.618433
-0.603312
-0.588671
-0.574483
-0.560712
-0.54731
-0.534213
-0.521335
-0.508562
-0.49577
-0.482912
-0.469891
-0.45549
-0.438418
-0.431595
-0.736355
-0.710971
-0.691206
-0.673523
-0.656244
-0.639518
-0.623396
-0.607836
-0.592806
-0.578269
-0.56417
-0.550433
-0.536946
-0.523549
-0.510022
-0.496176
-0.48166
-0.464539
-0.442002
-0.428502
-0.765099
-0.73779
-0.716602
-0.697682
-0.679231
-0.661415
-0.644291
-0.62782
-0.611974
-0.59672
-0.582016
-0.567797
-0.553968
-0.540376
-0.526788
-0.512902
-0.498
-0.479164
-0.451556
-0.42887
-1.24772
-1.24322
-1.23484
-1.2231
-1.20824
-1.19051
-1.17019
-1.14756
-1.12291
-1.09652
-1.06868
-1.03966
-1.00971
-0.979084
-0.94802
-0.916741
-0.88545
-0.854318
-0.823484
-0.793349
-1.19678
-1.19229
-1.18417
-1.17282
-1.15848
-1.14142
-1.12192
-1.10026
-1.07671
-1.05154
-1.02504
-0.99745
-0.969029
-0.94001
-0.91062
-0.88107
-0.851563
-0.82228
-0.79339
-0.765134
-1.154
-1.14982
-1.14219
-1.13141
-1.11775
-1.10147
-1.08283
-1.06212
-1.0396
-1.01554
-0.990203
-0.963849
-0.936714
-0.90903
-0.881012
-0.85287
-0.824802
-0.796979
-0.769571
-0.742743
-1.11316
-1.10962
-1.10273
-1.09277
-1.07999
-1.06465
-1.047
-1.02733
-1.00589
-0.982954
-0.958777
-0.933611
-0.90769
-0.88124
-0.854477
-0.827609
-0.800822
-0.774289
-0.748164
-0.722593
-1.07145
-1.06881
-1.06291
-1.05399
-1.04229
-1.02807
-1.01158
-0.993074
-0.972828
-0.951098
-0.92814
-0.904198
-0.879505
-0.854282
-0.82875
-0.803114
-0.777559
-0.752248
-0.727333
-0.702953
-1.02947
-1.02793
-1.02319
-1.01549
-1.00504
-0.992092
-0.976881
-0.959669
-0.940711
-0.920263
-0.898577
-0.87589
-0.852431
-0.828426
-0.804096
-0.779645
-0.755255
-0.73109
-0.707301
-0.68403
-0.987633
-0.987324
-0.983882
-0.977517
-0.968439
-0.95687
-0.943049
-0.92722
-0.909631
-0.890531
-0.870163
-0.84876
-0.826547
-0.803751
-0.780597
-0.757285
-0.733995
-0.710897
-0.688147
-0.665894
-0.946199
-0.947181
-0.9451
-0.940146
-0.932511
-0.922403
-0.910046
-0.895672
-0.879517
-0.861822
-0.842818
-0.822729
-0.801778
-0.780196
-0.758201
-0.735989
-0.713742
-0.691637
-0.669841
-0.648511
-0.905441
-0.907718
-0.907012
-0.903492
-0.897333
-0.888725
-0.877876
-0.865003
-0.85033
-0.834084
-0.816484
-0.797741
-0.778076
-0.757717
-0.736872
-0.71573
-0.694476
-0.673297
-0.652367
-0.631859
-0.865618
-0.86915
-0.869789
-0.867685
-0.862994
-0.85589
-0.846563
-0.835213
-0.82205
-0.807285
-0.79112
-0.773753
-0.755403
-0.736283
-0.716588
-0.696497
-0.676196
-0.655874
-0.63572
-0.615923
-0.826953
-0.831663
-0.833583
-0.832842
-0.829581
-0.823954
-0.816134
-0.806306
-0.794662
-0.781394
-0.766687
-0.750728
-0.733721
-0.715865
-0.697331
-0.678284
-0.658904
-0.639379
-0.619904
-0.600687
-0.78962
-0.795409
-0.79852
-0.799065
-0.797167
-0.792966
-0.786615
-0.778284
-0.768148
-0.756382
-0.743148
-0.728621
-0.712993
-0.696433
-0.679084
-0.661094
-0.64262
-0.623834
-0.604933
-0.586139
-0.753751
-0.760506
-0.764702
-0.766436
-0.765816
-0.762967
-0.758027
-0.75115
-0.742496
-0.732218
-0.720461
-0.707392
-0.693178
-0.677955
-0.661837
-0.644937
-0.627375
-0.609287
-0.590851
-0.572279
-0.719436
-0.727037
-0.732204
-0.735018
-0.735577
-0.733991
-0.730387
-0.724904
-0.717687
-0.708872
-0.698591
-0.686996
-0.674233
-0.660402
-0.64558
-0.629836
-0.613228
-0.595821
-0.577742
-0.559131
-0.686726
-0.695054
-0.701072
-0.704853
-0.706482
-0.706061
-0.703704
-0.699541
-0.693704
-0.686312
-0.67749
-0.667383
-0.656109
-0.643735
-0.630301
-0.61582
-0.600262
-0.583573
-0.56577
-0.546791
-0.655643
-0.664579
-0.671328
-0.675956
-0.678541
-0.679174
-0.677965
-0.675033
-0.670501
-0.664478
-0.657087
-0.648467
-0.63871
-0.627864
-0.615934
-0.60287
-0.588533
-0.572691
-0.555176
-0.535486
-0.626187
-0.635617
-0.642981
-0.648337
-0.651758
-0.653331
-0.653156
-0.651352
-0.648031
-0.643301
-0.637288
-0.630126
-0.621897
-0.612638
-0.602333
-0.59088
-0.578015
-0.563272
-0.546203
-0.525471
-0.598332
-0.608188
-0.616089
-0.622091
-0.626262
-0.628685
-0.629459
-0.628699
-0.626514
-0.623013
-0.618334
-0.612611
-0.605924
-0.598321
-0.589787
-0.580191
-0.569173
-0.555972
-0.539654
-0.516955
-0.571995
-0.582253
-0.590665
-0.597286
-0.602184
-0.60544
-0.607156
-0.607444
-0.606417
-0.60419
-0.600917
-0.596738
-0.591751
-0.586029
-0.579588
-0.572332
-0.563906
-0.553342
-0.538992
-0.512937
-0.547065
-0.557331
-0.565875
-0.57275
-0.578024
-0.581781
-0.584123
-0.58517
-0.58504
-0.583865
-0.581816
-0.579058
-0.575732
-0.571967
-0.567874
-0.563515
-0.558777
-0.553037
-0.54564
-0.524906
-0.455281
-0.527572
-0.597608
-0.66558
-0.731077
-0.793713
-0.853161
-0.909124
-0.961332
-1.00955
-1.05358
-1.09325
-1.12845
-1.15907
-1.18509
-1.20648
-1.22328
-1.23555
-1.24336
-1.24706
-0.44047
-0.510106
-0.577678
-0.643109
-0.706047
-0.766154
-0.82313
-0.876698
-0.926608
-0.972638
-1.0146
-1.05235
-1.08578
-1.1148
-1.13937
-1.15951
-1.17526
-1.18668
-1.19388
-1.19709
-0.418019
-0.48558
-0.551267
-0.614863
-0.676034
-0.734462
-0.789856
-0.841947
-0.890492
-0.935276
-0.976118
-1.01287
-1.04542
-1.07371
-1.09768
-1.11736
-1.13277
-1.14399
-1.15112
-1.15435
-0.389285
-0.454936
-0.51889
-0.580877
-0.640568
-0.697651
-0.75184
-0.802867
-0.850491
-0.894498
-0.934705
-0.970965
-1.00316
-1.03123
-1.05511
-1.07482
-1.09038
-1.10186
-1.10936
-1.11302
-0.356548
-0.420211
-0.48236
-0.542699
-0.600907
-0.656677
-0.709723
-0.759782
-0.806611
-0.849996
-0.889752
-0.925726
-0.9578
-0.98589
-1.00995
-1.02996
-1.04595
-1.05798
-1.06613
-1.07052
-0.32199
-0.383586
-0.443849
-0.502476
-0.559153
-0.613581
-0.665479
-0.714584
-0.760656
-0.803477
-0.84286
-0.878647
-0.910714
-0.938969
-0.963352
-0.983841
-1.00045
-1.01321
-1.0222
-1.02754
-0.287284
-0.346746
-0.405047
-0.461889
-0.516971
-0.570001
-0.620703
-0.668817
-0.714104
-0.756347
-0.795356
-0.83097
-0.863057
-0.891518
-0.916284
-0.93732
-0.954623
-0.968222
-0.978172
-0.984566
-0.253609
-0.310886
-0.367166
-0.422161
-0.475581
-0.527146
-0.576584
-0.623639
-0.668076
-0.709678
-0.748256
-0.783646
-0.815711
-0.844347
-0.869475
-0.891049
-0.909054
-0.923506
-0.934444
-0.941943
-0.22173
-0.276801
-0.331027
-0.384133
-0.435843
-0.485884
-0.533992
-0.579916
-0.623424
-0.664302
-0.702364
-0.737445
-0.769406
-0.798138
-0.823555
-0.845605
-0.864259
-0.87952
-0.891415
-0.9
-0.192087
-0.244957
-0.297125
-0.34833
-0.398305
-0.446786
-0.493514
-0.538244
-0.580748
-0.620819
-0.658272
-0.692946
-0.724702
-0.753427
-0.779034
-0.801461
-0.820673
-0.83666
-0.849437
-0.859044
-0.164878
-0.215576
-0.26571
-0.315028
-0.363272
-0.41018
-0.455499
-0.498989
-0.540428
-0.579617
-0.616375
-0.650545
-0.681991
-0.710601
-0.736285
-0.758976
-0.778633
-0.795238
-0.808794
-0.819329
-0.140134
-0.188704
-0.236851
-0.284324
-0.330863
-0.376209
-0.420111
-0.462335
-0.502667
-0.540914
-0.576903
-0.610483
-0.641523
-0.669912
-0.69556
-0.718399
-0.738382
-0.755484
-0.769702
-0.781052
-0.117774
-0.164264
-0.210494
-0.256185
-0.301068
-0.344884
-0.387381
-0.428333
-0.467532
-0.504796
-0.539959
-0.572878
-0.603427
-0.6315
-0.657008
-0.679882
-0.700074
-0.717554
-0.732312
-0.744355
-0.0976435
-0.142101
-0.186502
-0.230494
-0.273788
-0.316121
-0.357244
-0.396933
-0.434992
-0.471247
-0.505545
-0.537749
-0.56774
-0.595417
-0.620694
-0.643504
-0.663796
-0.681539
-0.696717
-0.709332
-0.079548
-0.12202
-0.164702
-0.207092
-0.248879
-0.289792
-0.329581
-0.368031
-0.404956
-0.440195
-0.473603
-0.505054
-0.534435
-0.561652
-0.586622
-0.609279
-0.629575
-0.647475
-0.662962
-0.676032
-0.0632584
-0.103848
-0.144966
-0.185866
-0.226231
-0.265791
-0.304293
-0.341532
-0.377337
-0.411558
-0.444063
-0.474733
-0.503465
-0.530169
-0.554767
-0.577196
-0.597408
-0.615369
-0.63106
-0.644475
-0.0484683
-0.0873305
-0.127096
-0.166624
-0.205655
-0.243929
-0.281194
-0.317257
-0.351965
-0.38518
-0.416781
-0.446659
-0.474717
-0.500871
-0.525049
-0.547191
-0.567248
-0.585188
-0.600991
-0.61465
-0.0345153
-0.0714286
-0.110068
-0.148401
-0.186239
-0.223347
-0.259476
-0.294454
-0.328144
-0.360422
-0.391178
-0.420311
-0.447731
-0.47336
-0.497128
-0.518979
-0.538867
-0.556759
-0.572635
-0.586488
-0.0203209
-0.0548184
-0.0926939
-0.130192
-0.167142
-0.203318
-0.238498
-0.272548
-0.305357
-0.336817
-0.366828
-0.395301
-0.422153
-0.44731
-0.47071
-0.492298
-0.512032
-0.529882
-0.545826
-0.55986
-0.0091501
-0.0443171
-0.082348
-0.119145
-0.155198
-0.190337
-0.22437
-0.257234
-0.288861
-0.319166
-0.348068
-0.375491
-0.401367
-0.425633
-0.448236
-0.469129
-0.488278
-0.505655
-0.521245
-0.535045
0.524836
0.535327
0.546195
0.557334
0.568723
0.580334
0.592117
0.604005
0.615922
0.627776
0.639471
0.650913
0.662032
0.672813
0.683356
0.693957
0.705071
0.717386
0.734263
0.761371
0.512861
0.522733
0.533163
0.543814
0.554649
0.565658
0.576787
0.587964
0.599102
0.610103
0.620863
0.63128
0.641279
0.650846
0.66009
0.66933
0.679066
0.690069
0.705832
0.732241
0.498965
0.50807
0.517972
0.528037
0.538208
0.548496
0.558846
0.569177
0.579392
0.589387
0.599049
0.608272
0.616978
0.625155
0.632926
0.640639
0.648849
0.658415
0.67296
0.698537
0.483177
0.491373
0.500659
0.510042
0.519441
0.528892
0.53834
0.547692
0.556844
0.565684
0.574092
0.581958
0.589201
0.595819
0.601949
0.607975
0.614509
0.622502
0.635678
0.66018
0.465533
0.472685
0.481269
0.489879
0.4984
0.506901
0.515327
0.523572
0.531525
0.539065
0.546067
0.552417
0.558036
0.56293
0.567259
0.571443
0.576158
0.582448
0.594117
0.617345
0.446076
0.452056
0.459859
0.467604
0.475146
0.482589
0.489877
0.496893
0.503515
0.509618
0.515069
0.519752
0.523593
0.526608
0.528984
0.531181
0.533941
0.538408
0.548443
0.570223
0.424854
0.429545
0.436491
0.443287
0.449752
0.456034
0.462074
0.467743
0.472912
0.477446
0.481209
0.484084
0.486002
0.486994
0.487275
0.48735
0.488034
0.490566
0.498853
0.519024
0.401916
0.405213
0.411235
0.417
0.422298
0.427322
0.432011
0.436226
0.439825
0.442668
0.444616
0.445552
0.445413
0.44425
0.442308
0.440141
0.438636
0.439134
0.445568
0.463979
0.377318
0.37913
0.384167
0.388827
0.392874
0.39655
0.399796
0.402455
0.404378
0.40542
0.405437
0.404313
0.401999
0.398562
0.394283
0.389767
0.385978
0.384356
0.388842
0.405351
0.351115
0.351366
0.355368
0.358856
0.361577
0.363826
0.365543
0.366557
0.36671
0.365849
0.363831
0.360544
0.355947
0.350133
0.34342
0.336466
0.330311
0.326495
0.328951
0.343425
0.323362
0.321996
0.324924
0.327183
0.328512
0.329266
0.329381
0.328671
0.32697
0.324121
0.319979
0.314436
0.307468
0.299191
0.289962
0.280497
0.271911
0.265844
0.266197
0.278513
0.294116
0.291099
0.292927
0.29391
0.293794
0.292996
0.291448
0.28895
0.285325
0.280415
0.274073
0.266201
0.256787
0.245978
0.234172
0.22214
0.211077
0.202716
0.200906
0.210949
0.263433
0.258756
0.259474
0.259149
0.257549
0.255157
0.251899
0.24756
0.241956
0.234925
0.226325
0.216063
0.204149
0.190757
0.17633
0.161697
0.148127
0.137442
0.133422
0.141089
0.231376
0.225058
0.224675
0.223024
0.219917
0.215904
0.210903
0.204684
0.197059
0.187864
0.17696
0.164268
0.149814
0.133808
0.116736
0.0994834
0.0833938
0.0703729
0.0641092
0.0693081
0.198011
0.190109
0.188653
0.18568
0.181059
0.175411
0.168646
0.160522
0.150847
0.139457
0.126221
0.111071
0.0940581
0.0754242
0.0557018
0.0358322
0.0172288
0.0018744
-0.00665516
-0.00400266
0.163408
0.154026
0.151558
0.147285
0.141162
0.133879
0.125342
0.115297
0.103552
0.0899491
0.0743643
0.0567458
0.0371696
0.015913
-0.00644589
-0.0289121
-0.0500066
-0.0676777
-0.0784818
-0.0784382
0.127651
0.116951
0.113576
0.108053
0.100451
0.0915418
0.0812286
0.069252
0.0554248
0.0395978
0.0216593
0.00157554
-0.0205513
-0.0444079
-0.069371
-0.0943953
-0.117942
-0.1379
-0.150976
-0.153583
0.090918
0.0791748
0.0750506
0.0683106
0.059228
0.0486836
0.0365779
0.0226519
0.00672917
-0.0113272
-0.0316149
-0.0541479
-0.0787969
-0.105213
-0.132729
-0.160254
-0.186199
-0.208401
-0.22373
-0.228995
0.0526421
0.0407909
0.0363595
0.0284442
0.0178449
0.00562178
-0.00831982
-0.0242289
-0.0422656
-0.0625537
-0.0851765
-0.110128
-0.137253
-0.166166
-0.196163
-0.226111
-0.254379
-0.278769
-0.296318
-0.304209
0.0111579
0.00133474
-0.00280482
-0.0116175
-0.0235484
-0.0374151
-0.0532239
-0.0711467
-0.0913099
-0.113822
-0.138752
-0.166075
-0.19561
-0.226941
-0.259329
-0.291612
-0.322128
-0.348667
-0.3685
-0.379222
0.363575
0.36579
0.37451
0.380639
0.384903
0.388507
0.391722
0.394616
0.397294
0.399887
0.402553
0.405492
0.408955
0.413243
0.418681
0.425559
0.434018
0.443846
0.454046
0.461928
0.39326
0.393291
0.400046
0.40584
0.410525
0.414874
0.419013
0.422936
0.4267
0.430405
0.434189
0.438234
0.442777
0.448107
0.454548
0.462403
0.471841
0.482695
0.494286
0.50457
0.417534
0.417633
0.42388
0.429927
0.435259
0.440401
0.445443
0.450358
0.455173
0.459968
0.464857
0.470002
0.475623
0.481994
0.489432
0.498249
0.508635
0.520475
0.533405
0.545992
0.438727
0.439779
0.446274
0.452825
0.458866
0.464819
0.470756
0.47664
0.482486
0.48835
0.494328
0.500564
0.507255
0.514661
0.523086
0.532848
0.544155
0.556933
0.571106
0.585786
0.458029
0.460212
0.467183
0.474334
0.481121
0.487897
0.494724
0.501564
0.508418
0.515328
0.522374
0.529678
0.53742
0.545838
0.555225
0.565899
0.578081
0.591737
0.607061
0.62369
0.475567
0.478918
0.486461
0.494272
0.501833
0.509441
0.517152
0.524929
0.532766
0.540694
0.548776
0.557117
0.565877
0.575272
0.585581
0.597119
0.610118
0.624578
0.640961
0.659415
0.491407
0.495917
0.504063
0.512546
0.520878
0.529307
0.53788
0.546565
0.55535
0.564255
0.573331
0.582664
0.592394
0.602718
0.613897
0.626239
0.639983
0.655166
0.672505
0.69266
0.50557
0.5112
0.519942
0.529078
0.538156
0.547372
0.55677
0.566318
0.576002
0.585832
0.595845
0.606113
0.616753
0.627942
0.639921
0.652994
0.667403
0.683217
0.701405
0.723129
0.518043
0.524733
0.534047
0.543797
0.553573
0.563529
0.573699
0.584052
0.594572
0.605259
0.61614
0.627268
0.638743
0.650718
0.663417
0.677132
0.692112
0.708457
0.72738
0.750534
0.528799
0.536476
0.54632
0.556631
0.567047
0.577679
0.588553
0.59964
0.610919
0.622385
0.634048
0.64595
0.658168
0.670836
0.684157
0.698415
0.71386
0.730628
0.750165
0.774602
0.537808
0.546381
0.556703
0.567512
0.578497
0.58973
0.601229
0.612967
0.624917
0.637067
0.649416
0.661989
0.674846
0.688098
0.701931
0.716618
0.732413
0.749486
0.769509
0.795076
0.545033
0.554399
0.565139
0.576376
0.587849
0.599598
0.611634
0.623927
0.636448
0.649176
0.662101
0.675231
0.688608
0.702324
0.716545
0.731535
0.747554
0.764806
0.785183
0.81172
0.550438
0.560483
0.571573
0.583159
0.595032
0.607206
0.61968
0.632424
0.645407
0.658598
0.671976
0.685536
0.699303
0.713347
0.72782
0.742977
0.759084
0.776384
0.796977
0.824319
0.553987
0.564588
0.575952
0.587806
0.599986
0.612483
0.62529
0.638374
0.651699
0.665227
0.678927
0.69278
0.706794
0.721022
0.735599
0.750775
0.766826
0.784035
0.804703
0.832682
0.555648
0.566673
0.578232
0.590265
0.602653
0.615369
0.628396
0.641701
0.655242
0.668974
0.682856
0.696854
0.710963
0.725219
0.739744
0.754783
0.770626
0.7876
0.808198
0.836643
0.555394
0.566702
0.578372
0.590494
0.602987
0.615811
0.628942
0.642343
0.655967
0.669763
0.683678
0.697667
0.71171
0.72583
0.740136
0.754875
0.770352
0.786944
0.807325
0.836065
0.553201
0.564648
0.57634
0.588459
0.600951
0.613769
0.626882
0.64025
0.65382
0.667533
0.681327
0.695145
0.708955
0.722766
0.736682
0.75095
0.765898
0.781955
0.801972
0.830838
0.549053
0.56049
0.572114
0.584134
0.596516
0.609212
0.622183
0.635385
0.648759
0.662238
0.675752
0.689233
0.702636
0.715962
0.729309
0.74293
0.75718
0.772549
0.792056
0.820893
0.542941
0.554216
0.565681
0.577505
0.589667
0.60212
0.614823
0.627723
0.640756
0.653849
0.666919
0.679892
0.692711
0.70537
0.717965
0.730761
0.744141
0.758664
0.77752
0.8062
0.534865
0.545823
0.557036
0.568566
0.580397
0.592489
0.604794
0.617256
0.629803
0.642353
0.654817
0.667109
0.679165
0.690975
0.702633
0.714421
0.726757
0.740267
0.758288
0.78658
0.351043
0.332995
0.308939
0.283781
0.258079
0.232175
0.206323
0.180616
0.155135
0.129961
0.105173
0.0808413
0.0570322
0.0338055
0.0112146
-0.0106947
-0.0318842
-0.0523242
-0.0719941
-0.0908812
0.351026
0.332557
0.309098
0.283891
0.257967
0.231706
0.205357
0.179078
0.152991
0.127199
0.101795
0.0768633
0.0524791
0.0287104
0.00561742
-0.0167484
-0.0383443
-0.0591369
-0.0791022
-0.0982239
0.354422
0.332679
0.308095
0.282257
0.255773
0.228929
0.20197
0.17508
0.148399
0.122045
0.096122
0.0707208
0.045924
0.0218045
-0.00157397
-0.0241567
-0.0458989
-0.0667657
-0.0867323
-0.105782
0.357563
0.333576
0.307882
0.281223
0.253984
0.226414
0.19875
0.171178
0.143851
0.116895
0.090424
0.0645352
0.0393165
0.0148448
-0.0088136
-0.0316025
-0.0534765
-0.0744016
-0.0943536
-0.113318
0.360032
0.334489
0.307754
0.280209
0.252149
0.223809
0.19541
0.167141
0.139159
0.1116
0.0845843
0.0582163
0.0325886
0.00778137
-0.0161366
-0.0391083
-0.0610888
-0.0820452
-0.101956
-0.120808
0.362168
0.335237
0.307414
0.27892
0.249996
0.220856
0.19171
0.162741
0.134114
0.10597
0.0784351
0.0516194
0.0256194
0.000518154
-0.0236142
-0.0467209
-0.068758
-0.0896954
-0.109514
-0.128207
0.364051
0.335811
0.30687
0.277387
0.247564
0.217601
0.187696
0.158031
0.128772
0.100065
0.0720414
0.0448144
0.0184835
-0.0068664
-0.0311652
-0.0543573
-0.0764015
-0.0972713
-0.116952
-0.135444
0.365697
0.336219
0.306164
0.275673
0.244932
0.214133
0.183467
0.153114
0.123241
0.0939984
0.0655181
0.0379177
0.0112978
-0.0142568
-0.038677
-0.0619099
-0.0839183
-0.104681
-0.124189
-0.142449
0.367174
0.336509
0.305352
0.273851
0.242188
0.210553
0.179132
0.148107
0.117644
0.0878937
0.0589921
0.0310566
0.00418783
-0.0215307
-0.0460327
-0.0692694
-0.0912088
-0.111836
-0.131149
-0.149162
0.368592
0.336778
0.304539
0.272037
0.239459
0.206997
0.174837
0.14316
0.112132
0.0819059
0.0526162
0.0243802
-0.00270304
-0.028553
-0.0531076
-0.0763233
-0.0981749
-0.118655
-0.137767
-0.155539
0.370104
0.337175
0.303881
0.270397
0.236922
0.20365
0.170771
0.138464
0.106897
0.0762206
0.0465694
0.0180581
-0.00921731
-0.0351806
-0.0597751
-0.0829638
-0.104729
-0.12507
-0.144001
-0.161556
0.371914
0.337906
0.303589
0.26915
0.2348
0.20074
0.167161
0.134244
0.102155
0.0710452
0.0410454
0.0122674
-0.015197
-0.0412771
-0.0659225
-0.0891032
-0.110809
-0.131049
-0.149841
-0.167232
0.374277
0.339229
0.303924
0.26856
0.233359
0.198529
0.164263
0.130744
0.0981369
0.0665905
0.0362329
0.00717199
-0.0205059
-0.0467357
-0.0714737
-0.094697
-0.116403
-0.136608
-0.155336
-0.172645
0.377497
0.341447
0.305187
0.268921
0.232884
0.197288
0.162332
0.128198
0.0950516
0.0630377
0.0322818
0.00288732
-0.0250643
-0.0515138
-0.0764237
-0.0997774
-0.121579
-0.14185
-0.160619
-0.177955
0.381891
0.344868
0.307672
0.27051
0.233629
0.197248
0.161569
0.126774
0.0930291
0.0604767
0.0292395
-0.000582791
-0.0289128
-0.055696
-0.0808996
-0.104512
-0.126542
-0.147014
-0.165962
-0.183459
0.387733
0.349738
0.311594
0.273507
0.235736
0.198509
0.162029
0.12648
0.0920273
0.0588139
0.0269605
-0.00343513
-0.0322981
-0.0595765
-0.0852401
-0.10928
-0.131707
-0.152548
-0.171834
-0.189647
0.395133
0.356133
0.316986
0.277901
0.23915
0.200966
0.163556
0.127108
0.0917886
0.0577412
0.0250879
-0.00607312
-0.0356666
-0.0636403
-0.089964
-0.114629
-0.137645
-0.159037
-0.178835
-0.197122
0.403846
0.363753
0.32349
0.283279
0.243402
0.204099
0.165582
0.128042
0.0916497
0.0565543
0.0228808
-0.00926848
-0.0398149
-0.0687026
-0.0958983
-0.12139
-0.145186
-0.167306
-0.187775
-0.206675
0.412736
0.371159
0.329372
0.287641
0.246246
0.205428
0.165404
0.126373
0.0885154
0.0519867
0.0169212
-0.0165703
-0.0484013
-0.0785087
-0.106853
-0.133418
-0.158206
-0.181241
-0.202553
-0.22219
0.419004
0.374982
0.330741
0.286652
0.242941
0.199836
0.157562
0.116329
0.0763305
0.037737
0.000697308
-0.0346638
-0.0682468
-0.0999778
-0.129809
-0.157718
-0.183711
-0.207827
-0.230142
-0.250632
-0.109001
-0.126337
-0.142919
-0.158776
-0.173945
-0.188473
-0.202408
-0.215807
-0.228729
-0.241233
-0.253367
-0.265184
-0.27674
-0.288088
-0.299292
-0.310433
-0.32142
-0.331825
-0.341682
-0.33735
-0.116521
-0.133965
-0.150586
-0.166412
-0.181476
-0.195817
-0.209482
-0.222519
-0.234981
-0.246917
-0.258367
-0.26937
-0.279962
-0.290164
-0.29997
-0.309308
-0.317864
-0.32481
-0.32879
-0.320174
-0.123939
-0.141165
-0.157499
-0.172967
-0.187605
-0.201454
-0.214562
-0.22698
-0.238761
-0.249957
-0.260609
-0.270751
-0.280411
-0.289587
-0.298232
-0.306203
-0.313117
-0.318225
-0.320563
-0.315465
-0.131327
-0.148337
-0.164393
-0.179527
-0.193778
-0.207192
-0.219821
-0.231717
-0.242938
-0.253538
-0.263559
-0.273033
-0.281979
-0.29039
-0.298203
-0.305268
-0.311251
-0.315589
-0.317624
-0.314972
-0.138647
-0.15542
-0.171182
-0.185973
-0.199834
-0.212818
-0.22498
-0.236378
-0.247072
-0.257121
-0.266569
-0.275448
-0.283778
-0.291549
-0.298705
-0.305116
-0.310525
-0.314534
-0.316671
-0.315657
-0.145831
-0.162325
-0.177757
-0.192173
-0.205622
-0.21816
-0.229849
-0.240753
-0.250936
-0.260461
-0.269377
-0.27772
-0.285512
-0.29275
-0.299393
-0.305338
-0.310402
-0.314315
-0.316759
-0.317087
-0.152816
-0.168999
-0.184077
-0.198103
-0.211132
-0.223227
-0.234456
-0.24489
-0.254595
-0.263642
-0.272085
-0.279965
-0.287308
-0.294123
-0.300381
-0.306012
-0.310887
-0.314827
-0.31763
-0.318985
-0.159547
-0.175405
-0.190121
-0.203758
-0.216378
-0.22805
-0.23885
-0.248852
-0.258129
-0.266755
-0.274792
-0.282286
-0.289268
-0.295754
-0.301731
-0.307153
-0.311931
-0.315945
-0.319065
-0.321144
-0.165981
-0.181515
-0.195879
-0.209146
-0.221384
-0.232669
-0.243082
-0.252703
-0.26161
-0.269879
-0.277579
-0.28476
-0.291457
-0.297691
-0.303463
-0.308742
-0.313466
-0.317554
-0.320915
-0.323483
-0.172091
-0.187321
-0.201362
-0.214296
-0.226197
-0.237145
-0.247228
-0.256529
-0.26513
-0.27311
-0.280539
-0.287473
-0.29395
-0.299993
-0.30561
-0.310782
-0.315466
-0.319602
-0.323124
-0.326002
-0.177878
-0.192846
-0.206614
-0.219271
-0.230895
-0.241572
-0.251393
-0.260444
-0.268808
-0.276565
-0.283788
-0.290534
-0.296843
-0.302739
-0.308233
-0.313313
-0.317949
-0.322094
-0.325699
-0.328748
-0.183385
-0.198158
-0.211723
-0.224177
-0.235602
-0.246086
-0.255721
-0.264596
-0.272796
-0.280397
-0.287473
-0.29408
-0.300262
-0.30604
-0.311426
-0.316413
-0.320979
-0.325088
-0.328701
-0.331811
-0.188715
-0.203382
-0.216835
-0.229178
-0.240494
-0.250873
-0.260406
-0.269184
-0.27729
-0.284798
-0.291779
-0.298289
-0.304371
-0.310047
-0.315327
-0.320208
-0.324672
-0.328694
-0.332243
-0.335318
-0.194055
-0.208726
-0.222177
-0.234515
-0.245823
-0.25619
-0.265709
-0.274467
-0.282544
-0.290015
-0.296946
-0.30339
-0.309388
-0.314965
-0.320128
-0.324878
-0.329202
-0.333082
-0.336495
-0.339448
-0.199724
-0.214527
-0.228096
-0.240543
-0.251948
-0.262399
-0.271985
-0.280793
-0.288901
-0.29638
-0.303292
-0.309688
-0.315607
-0.321075
-0.3261
-0.330683
-0.334819
-0.338496
-0.341697
-0.34444
-0.206223
-0.221294
-0.235108
-0.247777
-0.259377
-0.269997
-0.279723
-0.288638
-0.29682
-0.304335
-0.311243
-0.317593
-0.323422
-0.328756
-0.333606
-0.337976
-0.341866
-0.345269
-0.348178
-0.350616
-0.214151
-0.229619
-0.243792
-0.256781
-0.26866
-0.279514
-0.28943
-0.298488
-0.306763
-0.314322
-0.321222
-0.327509
-0.33322
-0.338381
-0.343007
-0.347105
-0.35068
-0.353733
-0.35626
-0.35829
-0.224264
-0.24023
-0.254847
-0.26822
-0.280422
-0.291539
-0.301656
-0.310856
-0.319213
-0.326792
-0.33365
-0.339833
-0.345377
-0.350308
-0.354646
-0.358402
-0.361585
-0.364204
-0.366261
-0.367775
-0.240307
-0.256816
-0.271899
-0.285636
-0.298111
-0.309416
-0.319643
-0.328878
-0.337198
-0.344671
-0.351354
-0.357294
-0.362525
-0.367078
-0.37097
-0.37422
-0.376843
-0.378863
-0.380304
-0.381118
-0.268889
-0.285904
-0.301359
-0.315281
-0.3278
-0.339034
-0.34909
-0.358064
-0.366043
-0.373099
-0.379294
-0.384675
-0.389277
-0.393126
-0.396243
-0.398647
-0.400368
-0.401472
-0.402057
-0.401915
-0.399973
-0.381235
-0.368879
-0.359962
-0.352707
-0.346833
-0.342038
-0.338013
-0.334513
-0.331351
-0.328369
-0.325427
-0.322379
-0.319045
-0.315176
-0.310456
-0.30418
-0.293623
-0.274157
-0.257084
-0.398732
-0.381095
-0.369504
-0.361131
-0.354298
-0.348734
-0.344148
-0.34024
-0.336771
-0.333549
-0.330408
-0.327197
-0.323759
-0.319906
-0.315416
-0.310092
-0.303592
-0.29416
-0.279197
-0.270279
-0.397295
-0.38069
-0.369816
-0.361968
-0.355548
-0.350291
-0.345919
-0.342141
-0.33873
-0.335501
-0.332295
-0.328972
-0.325397
-0.321427
-0.31692
-0.311807
-0.305964
-0.298335
-0.287836
-0.28456
-0.395543
-0.380031
-0.369878
-0.362545
-0.35653
-0.351577
-0.347421
-0.34379
-0.340466
-0.337279
-0.334085
-0.330762
-0.327201
-0.323301
-0.318978
-0.314232
-0.309025
-0.302601
-0.294409
-0.293143
-0.393626
-0.379202
-0.369757
-0.362926
-0.357305
-0.352653
-0.348719
-0.345248
-0.34204
-0.338938
-0.335818
-0.332577
-0.329135
-0.325423
-0.321404
-0.317118
-0.312582
-0.30721
-0.300623
-0.300145
-0.391677
-0.378297
-0.369532
-0.363185
-0.357946
-0.353589
-0.349879
-0.346579
-0.343507
-0.340523
-0.337519
-0.334414
-0.331147
-0.327678
-0.323994
-0.320157
-0.316204
-0.311663
-0.306229
-0.30603
-0.389809
-0.377411
-0.36929
-0.363403
-0.35853
-0.354458
-0.350969
-0.347845
-0.344921
-0.342073
-0.339209
-0.336263
-0.333193
-0.329973
-0.326607
-0.323158
-0.319667
-0.31574
-0.311124
-0.310917
-0.388125
-0.376635
-0.369115
-0.363659
-0.359131
-0.35533
-0.352054
-0.349103
-0.346329
-0.343623
-0.340905
-0.338124
-0.335247
-0.33226
-0.329172
-0.326041
-0.322904
-0.319431
-0.31541
-0.315046
-0.386723
-0.376059
-0.369092
-0.364033
-0.359823
-0.356273
-0.353196
-0.350409
-0.347778
-0.345208
-0.342631
-0.340004
-0.337303
-0.334518
-0.331662
-0.328783
-0.325912
-0.322774
-0.319195
-0.318606
-0.385691
-0.375769
-0.369299
-0.364601
-0.360677
-0.357353
-0.354455
-0.351816
-0.349314
-0.346866
-0.344414
-0.341921
-0.339369
-0.336752
-0.33408
-0.331395
-0.328718
-0.325826
-0.322583
-0.321742
-0.385114
-0.375844
-0.369814
-0.365434
-0.361763
-0.358636
-0.355891
-0.353377
-0.350984
-0.348638
-0.346288
-0.343904
-0.34147
-0.338983
-0.336452
-0.33391
-0.331372
-0.32866
-0.325672
-0.324582
-0.38507
-0.37636
-0.370711
-0.366604
-0.363146
-0.360181
-0.357561
-0.355145
-0.352835
-0.350564
-0.34829
-0.345985
-0.343638
-0.341246
-0.338816
-0.336374
-0.333931
-0.331348
-0.328555
-0.327231
-0.385631
-0.377389
-0.372058
-0.368175
-0.364888
-0.362049
-0.35952
-0.357172
-0.354915
-0.352691