/*--------------------------------*- C++ -*----------------------------------*\
  =========                 |
  \\      /  F ield         | OpenFOAM: The Open Source CFD Toolbox
   \\    /   O peration     | Website:  https://openfoam.org
    \\  /    A nd           | Version:  6.0
     \\/     M anipulation  |
\*---------------------------------------------------------------------------*/
FoamFile
{
    version     2.0;
    format      ascii;
    class       volScalarField;
    location    "3.7485";
    object      p;
}
// * * * * * * * * * * * * * * * * * * * * * * * * * * * * * * * * * * * * * //

dimensions      [0 2 -2 0 0 0 0];

internalField   nonuniform List<scalar> 
19200
(
-9.02098
-8.11703
-7.46648
-6.93583
-6.45438
-6.02019
-5.62793
-5.27053
-4.94288
-4.64118
-4.36239
-4.10404
-3.86408
-3.64082
-3.43281
-3.23881
-3.0577
-2.88852
-2.7304
-2.58254
-2.44424
-2.31482
-2.19371
-2.08036
-1.97425
-1.8749
-1.7819
-1.69477
-1.61304
-1.53693
-9.13231
-8.22888
-7.5772
-7.04421
-6.55981
-6.1223
-5.72647
-5.36537
-5.03399
-4.72858
-4.44614
-4.18425
-3.94087
-3.71434
-3.50321
-3.30624
-3.12232
-2.95049
-2.78987
-2.63966
-2.49914
-2.36764
-2.24457
-2.12937
-2.02151
-1.92053
-1.82599
-1.73737
-1.65414
-1.57702
-9.24612
-8.34164
-7.68829
-7.15283
-6.66541
-6.2245
-5.82505
-5.46022
-5.12506
-4.8159
-4.52979
-4.26433
-4.01752
-3.7877
-3.57344
-3.37349
-3.18677
-3.01229
-2.84917
-2.69662
-2.55389
-2.42032
-2.2953
-2.17826
-2.06868
-1.96608
-1.87
-1.7799
-1.69518
-1.61708
-9.36086
-8.45503
-7.79975
-7.26169
-6.77115
-6.32677
-5.92365
-5.55503
-5.21605
-4.90311
-4.6133
-4.34424
-4.09398
-3.86085
-3.64345
-3.44054
-3.25101
-3.07389
-2.90828
-2.75339
-2.60847
-2.47284
-2.34589
-2.22703
-2.11574
-2.01153
-1.91395
-1.82237
-1.73618
-1.65712
-9.47623
-8.56891
-7.91152
-7.37074
-6.87699
-6.42908
-6.02222
-5.64976
-5.30693
-4.99017
-4.69662
-4.42395
-4.17022
-3.93378
-3.71324
-3.50735
-3.31502
-3.13526
-2.96719
-2.80997
-2.66288
-2.52521
-2.39633
-2.27567
-2.16269
-2.05689
-1.95781
-1.86478
-1.77714
-1.69715
-9.59205
-8.68317
-8.02355
-7.47994
-6.9829
-6.53138
-6.12072
-5.74438
-5.39765
-5.07703
-4.77972
-4.50342
-4.2462
-4.00645
-3.78276
-3.5739
-3.37878
-3.1964
-3.02586
-2.86635
-2.71709
-2.5774
-2.44663
-2.32419
-2.20952
-2.10215
-2.0016
-1.90714
-1.81805
-1.73717
-9.70819
-8.79771
-8.13578
-7.58925
-7.08884
-6.63365
-6.21914
-5.83885
-5.48817
-5.16367
-4.86258
-4.58262
-4.32191
-4.07883
-3.85199
-3.64017
-3.44226
-3.25727
-3.08429
-2.92249
-2.7711
-2.62941
-2.49677
-2.37257
-2.25625
-2.14733
-2.04533
-1.94944
-1.85893
-1.77719
-9.82456
-8.91243
-8.24812
-7.69862
-7.19476
-6.73583
-6.3174
-5.93313
-5.57847
-5.25004
-4.94513
-4.66151
-4.39728
-4.15088
-3.9209
-3.70612
-3.50544
-3.31785
-3.14245
-2.97838
-2.82488
-2.68122
-2.54672
-2.42079
-2.30285
-2.19241
-2.08897
-1.99169
-1.89977
-1.8172
-9.94107
-9.02726
-8.36052
-7.80797
-7.3006
-6.83787
-6.41547
-6.02717
-5.66848
-5.3361
-5.02735
-4.74004
-4.4723
-4.22256
-3.98944
-3.77171
-3.56827
-3.37811
-3.2003
-3.034
-2.87841
-2.73279
-2.59648
-2.46884
-2.3493
-2.23736
-2.13252
-2.03387
-1.94058
-1.85722
-10.0576
-9.14214
-8.47291
-7.91724
-7.40631
-6.93972
-6.5133
-6.12091
-5.75815
-5.42179
-5.10919
-4.81817
-4.54691
-4.29384
-4.05758
-3.83692
-3.63073
-3.43801
-3.25783
-3.08931
-2.93166
-2.78413
-2.64603
-2.51671
-2.3956
-2.28218
-2.17597
-2.07596
-1.98133
-1.89722
-10.1742
-9.25697
-8.58522
-8.02638
-7.51182
-7.04131
-6.61082
-6.2143
-5.84744
-5.50707
-5.19058
-4.89585
-4.62106
-4.36466
-4.12528
-3.90169
-3.69278
-3.49753
-3.31498
-3.14428
-2.9846
-2.83518
-2.69533
-2.56437
-2.44172
-2.32686
-2.21929
-2.11797
-2.02202
-1.93719
-10.2907
-9.37171
-8.69738
-8.13532
-7.61708
-7.14259
-6.70797
-6.30728
-5.93629
-5.59187
-5.27149
-4.97303
-4.69471
-4.43498
-4.19249
-3.96599
-3.75437
-3.55661
-3.37174
-3.19888
-3.0372
-2.88593
-2.74435
-2.61179
-2.48764
-2.37137
-2.26248
-2.15986
-2.06261
-1.97711
-10.407
-9.48627
-8.80933
-8.24399
-7.722
-7.24349
-6.8047
-6.39979
-6.02463
-5.67614
-5.35185
-5.04965
-4.7678
-4.50476
-4.25915
-4.02976
-3.81546
-3.61521
-3.42804
-3.25305
-3.08941
-2.93632
-2.79306
-2.65893
-2.53331
-2.41567
-2.30549
-2.20161
-2.10308
-2.01695
-10.5232
-9.60059
-8.92098
-8.35231
-7.82653
-7.34394
-6.90093
-6.49176
-6.1124
-5.75983
-5.4316
-5.12567
-4.84028
-4.57392
-4.32523
-4.09296
-3.876
-3.67329
-3.48385
-3.30677
-3.14119
-2.98632
-2.8414
-2.70574
-2.57869
-2.45973
-2.34829
-2.24317
-2.14341
-2.05668
-10.639
-9.71459
-9.03228
-8.46023
-7.9306
-7.44388
-6.99659
-6.58314
-6.19954
-5.84285
-5.51068
-5.201
-4.91209
-4.64242
-4.39065
-4.15553
-3.93593
-3.73079
-3.53911
-3.35997
-3.19249
-3.03587
-2.88934
-2.75218
-2.62374
-2.50348
-2.39083
-2.28451
-2.18353
-2.09625
-10.7545
-9.8282
-9.14315
-8.56766
-8.03413
-7.54322
-7.09162
-6.67383
-6.28597
-5.92516
-5.58903
-5.2756
-4.98316
-4.7102
-4.45537
-4.21742
-3.9952
-3.78765
-3.59376
-3.41259
-3.24325
-3.08492
-2.93681
-2.79819
-2.66841
-2.54689
-2.43307
-2.32558
-2.22342
-2.13562
-10.8695
-9.94136
-9.25351
-8.67454
-8.13705
-7.6419
-7.18594
-6.76379
-6.37163
-6.00667
-5.66658
-5.3494
-5.05344
-4.7772
-4.51931
-4.27855
-4.05375
-3.84382
-3.64775
-3.46458
-3.29341
-3.1334
-2.98375
-2.84372
-2.71262
-2.5899
-2.47495
-2.36635
-2.26303
-2.17476
-10.9841
-10.054
-9.3633
-8.78079
-8.23928
-7.73984
-7.27948
-6.85292
-6.45646
-6.08733
-5.74326
-5.42233
-5.12286
-4.84334
-4.58243
-4.33887
-4.1115
-3.89922
-3.701
-3.51586
-3.3429
-3.18124
-3.03009
-2.88868
-2.75631
-2.63241
-2.51638
-2.4067
-2.30229
-2.21359
-11.098
-10.166
-9.47245
-8.88634
-8.34075
-7.83697
-7.37216
-6.94117
-6.54036
-6.16705
-5.81901
-5.49433
-5.19135
-4.90858
-4.64466
-4.39833
-4.16841
-3.9538
-3.75345
-3.56637
-3.39164
-3.22837
-3.07574
-2.93297
-2.79936
-2.67433
-2.55725
-2.44654
-2.34106
-2.25198
-11.2114
-10.2774
-9.58089
-8.9911
-8.44137
-7.9332
-7.4639
-7.02844
-6.62327
-6.24577
-5.89375
-5.56533
-5.25886
-4.97284
-4.70593
-4.45685
-4.22441
-4.00749
-3.80504
-3.61604
-3.43956
-3.2747
-3.12062
-2.97652
-2.8417
-2.71556
-2.59746
-2.48575
-2.37923
-2.2898
-11.3241
-10.3881
-9.68853
-9.095
-8.54107
-8.02845
-7.55462
-7.11466
-6.70511
-6.32342
-5.96742
-5.63526
-5.32531
-5.03607
-4.76618
-4.51437
-4.27944
-4.06023
-3.8557
-3.6648
-3.48659
-3.32015
-3.16463
-3.01923
-2.8832
-2.75597
-2.63687
-2.52418
-2.41663
-2.32689
-11.436
-10.4979
-9.79531
-9.19797
-8.63976
-8.12263
-7.64423
-7.19974
-6.78581
-6.39992
-6.03995
-5.70407
-5.39065
-5.09821
-4.82537
-4.57085
-4.33344
-4.11197
-3.90536
-3.71258
-3.53265
-3.36464
-3.20769
-3.06097
-2.92375
-2.79543
-2.67534
-2.56167
-2.45308
-2.36303
-11.5473
-10.607
-9.90117
-9.2999
-8.73734
-8.21566
-7.73264
-7.28362
-6.86528
-6.47519
-6.11126
-5.77168
-5.45482
-5.1592
-4.88344
-4.62623
-4.38636
-4.16265
-3.95399
-3.75933
-3.57768
-3.4081
-3.24971
-3.10167
-2.96323
-2.8338
-2.7127
-2.59803
-2.48836
-2.39797
-11.6578
-10.7152
-10.006
-9.40071
-8.83371
-8.30742
-7.81977
-7.36618
-6.94345
-6.54917
-6.1813
-5.83803
-5.51775
-5.21899
-4.94033
-4.68048
-4.43817
-4.21224
-4.00154
-3.80501
-3.62164
-3.45048
-3.29062
-3.14123
-3.00154
-2.87094
-2.74877
-2.63304
-2.5222
-2.4314
-11.7678
-10.8224
-10.1097
-9.50028
-8.92877
-8.39781
-7.9055
-7.44735
-7.02023
-6.62178
-6.24998
-5.90307
-5.57941
-5.27753
-4.99602
-4.73355
-4.48885
-4.26071
-4.04799
-3.8496
-3.66451
-3.49175
-3.3304
-3.1796
-3.03858
-2.90674
-2.7834
-2.66649
-2.55431
-2.46296
-11.8772
-10.9287
-10.2122
-9.59849
-9.02238
-8.48672
-7.98973
-7.52703
-7.09553
-6.69294
-6.31726
-5.96674
-5.63975
-5.3348
-5.05048
-4.78543
-4.53837
-4.30807
-4.09335
-3.89312
-3.70631
-3.53193
-3.36905
-3.21679
-3.07436
-2.94115
-2.81648
-2.69819
-2.58439
-2.49209
-11.9863
-11.0338
-10.3133
-9.69515
-9.11438
-8.57401
-8.07235
-7.60511
-7.16928
-6.76258
-6.38307
-6.02898
-5.69871
-5.39075
-5.10367
-4.8361
-4.58673
-4.35431
-4.13765
-3.9356
-3.74709
-3.5711
-3.40667
-3.2529
-3.10897
-2.97425
-2.8481
-2.72821
-2.61229
-2.51821
-12.0963
-11.138
-10.4127
-9.79003
-9.20456
-8.65948
-8.1532
-7.68147
-7.24134
-6.8306
-6.44731
-6.08973
-5.75624
-5.44534
-5.15557
-4.88554
-4.63394
-4.39946
-4.18091
-3.9771
-3.78693
-3.60936
-3.4434
-3.28809
-3.14258
-3.00623
-2.87836
-2.75645
-2.6375
-2.54098
-12.2086
-11.2411
-10.5099
-9.88266
-9.29263
-8.74294
-8.23211
-7.75597
-7.31163
-6.89691
-6.50991
-6.14891
-5.81228
-5.49851
-5.20613
-4.93374
-4.67997
-4.44353
-4.22317
-4.0177
-3.82597
-3.64691
-3.47948
-3.32268
-3.17559
-3.03745
-2.90735
-2.78225
-2.65887
-2.55998
-12.3154
-11.3399
-10.604
-9.97276
-9.37855
-8.82448
-8.30922
-7.82875
-7.38025
-6.96161
-6.57097
-6.20661
-5.86691
-5.55035
-5.25544
-4.98075
-4.72492
-4.48661
-4.26455
-4.05753
-3.86439
-3.68402
-3.51538
-3.35744
-3.20922
-3.06978
-2.93771
-2.80991
-2.6845
-2.5818
-13.848
-13.8535
-13.8513
-13.8465
-13.8382
-13.8257
-13.809
-13.7878
-13.7624
-13.7326
-13.6986
-13.6603
-13.6179
-13.5715
-13.5211
-13.4669
-13.4091
-13.3477
-13.2828
-13.2146
-13.1433
-13.069
-12.9917
-12.9118
-12.8293
-12.7445
-12.6577
-12.5691
-12.4795
-12.3914
-12.8302
-12.84
-12.8431
-12.8416
-12.8356
-12.8251
-12.8099
-12.7904
-12.7664
-12.7382
-12.7056
-12.669
-12.6282
-12.5834
-12.5348
-12.4824
-12.4263
-12.3667
-12.3038
-12.2375
-12.1681
-12.0957
-12.0205
-11.9425
-11.8621
-11.7793
-11.6943
-11.6075
-11.519
-11.4295
-12.0172
-12.0297
-12.0364
-12.0378
-12.0345
-12.0265
-12.0138
-11.9968
-11.9753
-11.9496
-11.9197
-11.8856
-11.8474
-11.8054
-11.7595
-11.7099
-11.6567
-11.6
-11.5399
-11.4766
-11.4102
-11.3408
-11.2685
-11.1935
-11.116
-11.0361
-10.9538
-10.8695
-10.7831
-10.6947
-11.2904
-11.3049
-11.3143
-11.3185
-11.3179
-11.3127
-11.3029
-11.2888
-11.2703
-11.2476
-11.2207
-11.1898
-11.1549
-11.1161
-11.0735
-11.0273
-10.9775
-10.9243
-10.8677
-10.808
-10.7451
-10.6793
-10.6107
-10.5393
-10.4654
-10.389
-10.3102
-10.2292
-10.146
-10.0606
-10.5937
-10.6102
-10.6218
-10.6286
-10.6306
-10.6282
-10.6213
-10.6101
-10.5946
-10.5751
-10.5514
-10.5238
-10.4922
-10.4569
-10.4179
-10.3752
-10.3291
-10.2797
-10.2269
-10.171
-10.1121
-10.0502
-9.9855
-9.9181
-9.84812
-9.77565
-9.7008
-9.62364
-9.54423
-9.46262
-9.93752
-9.9556
-9.96917
-9.97813
-9.98258
-9.98262
-9.97837
-9.96992
-9.95738
-9.9408
-9.92024
-9.89578
-9.86755
-9.83563
-9.80011
-9.76109
-9.71867
-9.67295
-9.62403
-9.57202
-9.51702
-9.45914
-9.39849
-9.33517
-9.26928
-9.20092
-9.13018
-9.05713
-8.98182
-8.90434
-9.32509
-9.34449
-9.35963
-9.37038
-9.3768
-9.37899
-9.37704
-9.37105
-9.3611
-9.34724
-9.32951
-9.30803
-9.28288
-9.25416
-9.22195
-9.18635
-9.14744
-9.10531
-9.06008
-9.01183
-8.96067
-8.9067
-8.85001
-8.7907
-8.72887
-8.66461
-8.59799
-8.5291
-8.45799
-8.38475
-8.75533
-8.77568
-8.79199
-8.80412
-8.81211
-8.81605
-8.816
-8.81209
-8.80438
-8.79288
-8.77766
-8.75881
-8.73643
-8.71061
-8.68141
-8.64893
-8.61325
-8.57447
-8.53267
-8.48795
-8.4404
-8.39012
-8.3372
-8.28172
-8.22379
-8.16348
-8.10087
-8.03604
-7.96905
-7.9
-8.22697
-8.24791
-8.265
-8.27812
-8.28728
-8.29256
-8.29404
-8.29182
-8.28594
-8.27643
-8.26333
-8.24675
-8.22678
-8.20349
-8.17696
-8.14726
-8.11449
-8.07872
-8.04004
-7.99855
-7.95432
-7.90745
-7.85802
-7.80612
-7.75184
-7.69526
-7.63645
-7.57549
-7.51244
-7.4474
-7.73847
-7.75965
-7.77718
-7.79092
-7.80088
-7.80713
-7.80975
-7.80884
-7.80443
-7.79652
-7.78516
-7.77049
-7.75255
-7.73144
-7.7072
-7.67993
-7.64971
-7.6166
-7.5807
-7.54209
-7.50086
-7.45707
-7.41083
-7.36221
-7.31129
-7.25816
-7.20288
-7.14553
-7.08617
-7.0249
-7.28781
-7.30896
-7.32662
-7.34065
-7.35109
-7.35797
-7.3614
-7.36146
-7.35815
-7.35147
-7.34152
-7.32839
-7.31214
-7.29284
-7.27055
-7.24535
-7.21732
-7.18654
-7.15307
-7.117
-7.07841
-7.03739
-6.994
-6.94834
-6.90047
-6.85048
-6.79843
-6.7444
-6.68845
-6.63068
-6.87273
-6.8936
-6.91113
-6.92519
-6.93581
-6.94304
-6.94698
-6.94769
-6.94517
-6.93943
-6.93056
-6.91865
-6.90376
-6.88594
-6.86527
-6.84181
-6.81564
-6.78684
-6.75547
-6.72161
-6.68534
-6.64675
-6.60589
-6.56286
-6.51773
-6.47056
-6.42144
-6.37042
-6.31759
-6.26302
-6.49079
-6.51118
-6.52837
-6.54224
-6.55282
-6.56016
-6.56435
-6.56545
-6.56346
-6.55838
-6.55032
-6.53934
-6.52551
-6.50888
-6.48952
-6.46751
-6.4429
-6.41576
-6.38618
-6.35423
-6.31997
-6.28349
-6.24486
-6.20415
-6.16144
-6.1168
-6.07029
-6.022
-5.97198
-5.92032
-6.1395
-6.15927
-6.17595
-6.18946
-6.1998
-6.20705
-6.2113
-6.21258
-6.21089
-6.20624
-6.19874
-6.18846
-6.17544
-6.15975
-6.14144
-6.12059
-6.09727
-6.07154
-6.04347
-6.01313
-5.9806
-5.94595
-5.90925
-5.87058
-5.83
-5.78759
-5.74342
-5.69756
-5.65007
-5.60103
-5.8164
-5.83542
-5.85148
-5.86449
-5.87446
-5.88147
-5.88561
-5.88691
-5.88533
-5.88093
-5.8738
-5.864
-5.85158
-5.8366
-5.81913
-5.79922
-5.77694
-5.75237
-5.72556
-5.69659
-5.66553
-5.63246
-5.59743
-5.56053
-5.52182
-5.48138
-5.43928
-5.39558
-5.35034
-5.30367
-5.51907
-5.53728
-5.55264
-5.56506
-5.57455
-5.58121
-5.58512
-5.58629
-5.58469
-5.58038
-5.57346
-5.56397
-5.55198
-5.53754
-5.5207
-5.50154
-5.48011
-5.45649
-5.43073
-5.40292
-5.37311
-5.34138
-5.30779
-5.27243
-5.23535
-5.19663
-5.15635
-5.11456
-5.07134
-5.02677
-5.24527
-5.26262
-5.27721
-5.28898
-5.29793
-5.30415
-5.30774
-5.30868
-5.30694
-5.30261
-5.29577
-5.28647
-5.27477
-5.26071
-5.24436
-5.22578
-5.20503
-5.18218
-5.1573
-5.13045
-5.10169
-5.07111
-5.03877
-5.00473
-4.96907
-4.93186
-4.89317
-4.85307
-4.81163
-4.76895
-4.99284
-5.00931
-5.02312
-5.03419
-5.04255
-5.04829
-5.05149
-5.05211
-5.05016
-5.04573
-5.03888
-5.02966
-5.01813
-5.00434
-4.98835
-4.97022
-4.95001
-4.92779
-4.90363
-4.87758
-4.84972
-4.82012
-4.78884
-4.75595
-4.72152
-4.68562
-4.64833
-4.60972
-4.56986
-4.52885
-4.75982
-4.77541
-4.78842
-4.79879
-4.80653
-4.81175
-4.81451
-4.81478
-4.81256
-4.80796
-4.80103
-4.79181
-4.78037
-4.76675
-4.75102
-4.73323
-4.71345
-4.69175
-4.66817
-4.6428
-4.6157
-4.58693
-4.55656
-4.52466
-4.4913
-4.45655
-4.42048
-4.38318
-4.34471
-4.30519
-4.5444
-4.55912
-4.57134
-4.58099
-4.58811
-4.5928
-4.5951
-4.59498
-4.59247
-4.58765
-4.58058
-4.57131
-4.55989
-4.54638
-4.53083
-4.5133
-4.49386
-4.47256
-4.44948
-4.42468
-4.39821
-4.37016
-4.34057
-4.30953
-4.2771
-4.24335
-4.20835
-4.17218
-4.13494
-4.09674
-4.34492
-4.3588
-4.37024
-4.3792
-4.3857
-4.38984
-4.39168
-4.39116
-4.38833
-4.38327
-4.37603
-4.36667
-4.35523
-4.34176
-4.32633
-4.309
-4.28982
-4.26886
-4.24618
-4.22185
-4.19593
-4.16849
-4.13959
-4.10929
-4.07767
-4.04478
-4.01072
-3.97555
-3.93937
-3.90233
-4.15989
-4.17296
-4.18365
-4.19193
-4.19783
-4.20144
-4.20281
-4.20189
-4.19873
-4.19341
-4.18599
-4.1765
-4.165
-4.15155
-4.13619
-4.119
-4.10003
-4.07935
-4.05701
-4.03308
-4.00763
-3.98071
-3.9524
-3.92275
-3.89183
-3.85971
-3.82645
-3.79215
-3.7569
-3.72087
-3.98796
-4.00025
-4.01023
-4.01786
-4.02318
-4.02628
-4.02719
-4.02588
-4.02239
-4.0168
-4.00918
-3.99955
-3.98797
-3.9745
-3.95919
-3.9421
-3.9233
-3.90284
-3.88078
-3.8572
-3.83215
-3.80569
-3.77789
-3.74881
-3.71851
-3.68705
-3.6545
-3.62095
-3.58647
-3.55131
-3.82792
-3.83948
-3.84878
-3.85578
-3.86055
-3.86316
-3.86363
-3.86193
-3.85812
-3.85228
-3.84444
-3.83467
-3.823
-3.80949
-3.7942
-3.77719
-3.75851
-3.73824
-3.71642
-3.69313
-3.66843
-3.64238
-3.61503
-3.58646
-3.5567
-3.52583
-3.4939
-3.46098
-3.42714
-3.39272
-3.67867
-3.68954
-3.6982
-3.70462
-3.70886
-3.71101
-3.71106
-3.70899
-3.70487
-3.69877
-3.69073
-3.68081
-3.66904
-3.65548
-3.64019
-3.62324
-3.60467
-3.58455
-3.56294
-3.53991
-3.51551
-3.48981
-3.46287
-3.43474
-3.40548
-3.37513
-3.34374
-3.31137
-3.27803
-3.24424
-3.53926
-3.54947
-3.55752
-3.56338
-3.56712
-3.56883
-3.56848
-3.56605
-3.56163
-3.55528
-3.54704
-3.53695
-3.52507
-3.51146
-3.49616
-3.47923
-3.46074
-3.44075
-3.41931
-3.39649
-3.37236
-3.34697
-3.32039
-3.29266
-3.26384
-3.23395
-3.20304
-3.17113
-3.13815
-3.105
-3.40882
-3.4184
-3.42588
-3.43121
-3.43448
-3.43576
-3.43501
-3.43223
-3.42751
-3.42091
-3.41246
-3.40221
-3.39021
-3.37651
-3.36117
-3.34425
-3.3258
-3.30589
-3.28458
-3.26193
-3.23801
-3.21287
-3.18658
-3.15918
-3.13073
-3.10124
-3.07073
-3.0392
-3.00635
-2.97394
-3.28656
-3.29563
-3.30262
-3.30752
-3.3104
-3.31134
-3.31027
-3.30721
-3.30226
-3.29547
-3.28686
-3.27649
-3.2644
-3.25066
-3.23531
-3.21841
-3.20002
-3.18021
-3.15903
-3.13655
-3.11283
-3.08794
-3.06193
-3.03486
-3.00677
-2.97769
-2.94758
-2.91638
-2.88347
-2.85162
-3.17167
-3.1804
-3.18709
-3.19173
-3.1944
-3.19515
-3.19394
-3.1908
-3.1858
-3.17899
-3.17042
-3.16012
-3.14815
-3.13456
-3.11941
-3.10276
-3.08466
-3.06517
-3.04436
-3.0223
-2.99905
-2.97466
-2.94922
-2.92278
-2.89538
-2.86704
-2.83773
-2.80727
-2.77472
-2.74417
-3.06351
-3.0713
-3.07713
-3.081
-3.08295
-3.08305
-3.08125
-3.0776
-3.07217
-3.06499
-3.05611
-3.04557
-3.03344
-3.01975
-3.00456
-2.98793
-2.96993
-2.9506
-2.93002
-2.90825
-2.88536
-2.86141
-2.83647
-2.81061
-2.78391
-2.75639
-2.72808
-2.69869
-2.66746
-2.64371
-11.2918
-11.4294
-11.56
-11.6916
-11.8226
-11.9515
-12.0778
-12.2011
-12.3212
-12.4377
-12.5504
-12.6592
-12.7638
-12.8641
-12.96
-13.0514
-13.138
-13.22
-13.2971
-13.3692
-13.4364
-13.4987
-13.5558
-13.6079
-13.655
-13.697
-13.7341
-13.7665
-13.7944
-13.8195
-10.2809
-10.4227
-10.559
-10.6929
-10.8245
-10.9531
-11.0787
-11.2012
-11.3203
-11.4358
-11.5475
-11.6554
-11.7591
-11.8586
-11.9538
-12.0446
-12.1307
-12.2122
-12.2889
-12.3609
-12.4279
-12.4901
-12.5472
-12.5994
-12.6467
-12.689
-12.7264
-12.7591
-12.787
-12.8104
-9.47248
-9.6139
-9.7511
-9.88497
-10.0158
-10.1436
-10.2683
-10.3897
-10.5077
-10.6222
-10.7331
-10.8401
-10.9431
-11.0421
-11.1368
-11.2271
-11.313
-11.3944
-11.4712
-11.5433
-11.6106
-11.6732
-11.7309
-11.7837
-11.8317
-11.8748
-11.9131
-11.9465
-11.975
-11.9986
-8.75715
-8.896
-9.03156
-9.16387
-9.29313
-9.41936
-9.54251
-9.66246
-9.7791
-9.89231
-10.0019
-10.1078
-10.2099
-10.308
-10.4021
-10.4919
-10.5774
-10.6586
-10.7353
-10.8075
-10.8751
-10.938
-10.9963
-11.0498
-11.0986
-11.1426
-11.1819
-11.2163
-11.2459
-11.2706
-8.08314
-8.21862
-8.35143
-8.48129
-8.60823
-8.73224
-8.85327
-8.97121
-9.08594
-9.19735
-9.30531
-9.4097
-9.5104
-9.60728
-9.70025
-9.7892
-9.87402
-9.95464
-10.031
-10.1029
-10.1705
-10.2336
-10.2921
-10.3461
-10.3955
-10.4403
-10.4804
-10.5159
-10.5466
-10.5726
-7.46116
-7.59286
-7.7223
-7.84905
-7.97306
-8.09429
-8.21268
-8.3281
-8.44045
-8.54962
-8.65548
-8.75792
-8.85683
-8.95209
-9.0436
-9.13126
-9.21498
-9.29467
-9.37025
-9.44165
-9.50881
-9.57167
-9.63018
-9.68431
-9.73402
-9.77926
-9.82003
-9.85627
-9.88797
-9.9151
-6.89374
-7.02141
-7.14708
-7.27028
-7.39092
-7.50895
-7.62427
-7.73679
-7.84638
-7.95292
-8.05632
-8.15645
-8.2532
-8.34647
-8.43615
-8.52216
-8.60439
-8.68278
-8.75724
-8.8277
-8.89409
-8.95638
-9.01449
-9.0684
-9.11806
-9.16344
-9.20452
-9.24125
-9.27362
-9.30162
-6.37819
-6.50169
-6.62335
-6.74274
-6.85974
-6.97428
-7.08627
-7.19559
-7.30213
-7.40577
-7.50641
-7.60393
-7.69822
-7.7892
-7.87674
-7.96078
-8.04121
-8.11797
-8.19097
-8.26014
-8.32544
-8.38679
-8.44416
-8.4975
-8.54677
-8.59194
-8.63298
-8.66987
-8.70259
-8.73113
-5.91131
-6.03058
-6.14815
-6.26359
-6.3768
-6.4877
-6.59618
-6.70213
-6.80543
-6.90597
-7.00365
-7.09835
-7.18997
-7.27841
-7.36359
-7.4454
-7.52377
-7.59863
-7.66989
-7.7375
-7.80139
-7.86152
-7.91783
-7.97028
-8.01885
-8.06349
-8.10418
-8.1409
-8.17363
-8.20238
-5.48955
-5.60462
-5.71808
-5.82955
-5.93893
-6.04611
-6.15101
-6.2535
-6.35346
-6.45079
-6.54538
-6.63713
-6.72593
-6.81169
-6.89432
-6.97374
-7.04986
-7.12261
-7.19193
-7.25774
-7.32
-7.37866
-7.43366
-7.48497
-7.53255
-7.57639
-7.61644
-7.6527
-7.68515
-7.71379
-5.10905
-5.22
-5.32942
-5.43697
-5.54253
-5.64602
-5.74732
-5.84633
-5.94294
-6.03702
-6.12847
-6.2172
-6.30311
-6.3861
-6.46609
-6.54299
-6.61674
-6.68725
-6.75447
-6.81833
-6.87878
-6.93577
-6.98927
-7.03923
-7.08562
-7.12842
-7.16761
-7.20316
-7.23506
-7.26334
-4.76592
-4.87287
-4.97836
-5.08207
-5.1839
-5.28376
-5.38153
-5.47711
-5.57038
-5.66123
-5.74955
-5.83526
-5.91826
-5.99845
-6.07575
-6.15008
-6.22138
-6.28957
-6.3546
-6.4164
-6.47493
-6.53014
-6.58199
-6.63044
-6.67548
-6.71707
-6.7552
-6.78984
-6.821
-6.84869
-4.45637
-4.55948
-4.66118
-4.76119
-4.8594
-4.95573
-5.05007
-5.1423
-5.2323
-5.31998
-5.40523
-5.48796
-5.56806
-5.64547
-5.72009
-5.79185
-5.86068
-5.92652
-5.9893
-6.04899
-6.10552
-6.15887
-6.20898
-6.25583
-6.2994
-6.33966
-6.37659
-6.41018
-6.44043
-6.46736
-4.17686
-4.27628
-4.37435
-4.47081
-4.56555
-4.65849
-4.74951
-4.83851
-4.92536
-5.00996
-5.09221
-5.17202
-5.2493
-5.32397
-5.39595
-5.46516
-5.53154
-5.59503
-5.65558
-5.71313
-5.76765
-5.81909
-5.86742
-5.9126
-5.95463
-5.99347
-6.02912
-6.06155
-6.09078
-6.11682
-3.92409
-4.02
-4.11461
-4.20768
-4.29911
-4.38881
-4.47666
-4.56255
-4.64637
-4.72801
-4.80737
-4.88436
-4.9589
-5.03091
-5.1003
-5.16702
-5.231
-5.29218
-5.35051
-5.40595
-5.45846
-5.50799
-5.55452
-5.59802
-5.63847
-5.67585
-5.71015
-5.74137
-5.7695
-5.79456
-3.69507
-3.78764
-3.87896
-3.96882
-4.0571
-4.14372
-4.22856
-4.31149
-4.39241
-4.47121
-4.5478
-4.62209
-4.69399
-4.76342
-4.83032
-4.89462
-4.95626
-5.01519
-5.07136
-5.12473
-5.17525
-5.2229
-5.26764
-5.30946
-5.34833
-5.38424
-5.41717
-5.44714
-5.47412
-5.49815
-3.4871
-3.5765
-3.66471
-3.75152
-3.83683
-3.92054
-4.00251
-4.08264
-4.1608
-4.23691
-4.31085
-4.38255
-4.45192
-4.51889
-4.58339
-4.64536
-4.70475
-4.7615
-4.81557
-4.86692
-4.91551
-4.96132
-5.00431
-5.04447
-5.08178
-5.11623
-5.1478
-5.17649
-5.20231
-5.22529
-3.29777
-3.38416
-3.46943
-3.55338
-3.63588
-3.71684
-3.79611
-3.87358
-3.94914
-4.02268
-4.09411
-4.16334
-4.2303
-4.29491
-4.35711
-4.41685
-4.47408
-4.52873
-4.58078
-4.63019
-4.67692
-4.72094
-4.76224
-4.80078
-4.83657
-4.86958
-4.8998
-4.92725
-4.95191
-4.97382
-3.12494
-3.20848
-3.29097
-3.37222
-3.45209
-3.53046
-3.6072
-3.68217
-3.75526
-3.82637
-3.89541
-3.9623
-4.02696
-4.08932
-4.14934
-4.20695
-4.2621
-4.31476
-4.36488
-4.41242
-4.45736
-4.49967
-4.53932
-4.57631
-4.61062
-4.64223
-4.67115
-4.69737
-4.7209
-4.74175
-2.96672
-3.04754
-3.12742
-3.20615
-3.28355
-3.3595
-3.43385
-3.50646
-3.57722
-3.64604
-3.71282
-3.77748
-3.83996
-3.9002
-3.95813
-4.01372
-4.0669
-4.11765
-4.16592
-4.21168
-4.25491
-4.29558
-4.33367
-4.36916
-4.40205
-4.43232
-4.45998
-4.48502
-4.50743
-4.52727
-2.82144
-2.89966
-2.97711
-3.05348
-3.12858
-3.20227
-3.27438
-3.34477
-3.41334
-3.47998
-3.54462
-3.60718
-3.66759
-3.7258
-3.78176
-3.83542
-3.88673
-3.93567
-3.98218
-4.02626
-4.06786
-4.10696
-4.14356
-4.17763
-4.20916
-4.23815
-4.2646
-4.28849
-4.30985
-4.32869
-2.68758
-2.76335
-2.83853
-2.91273
-2.9857
-3.05728
-3.12729
-3.19559
-3.26209
-3.32668
-3.38929
-3.44985
-3.50831
-3.56461
-3.61869
-3.67052
-3.72007
-3.76728
-3.81213
-3.8546
-3.89466
-3.93228
-3.96746
-4.00018
-4.03042
-4.05819
-4.08348
-4.1063
-4.12664
-4.14453
-2.5638
-2.63726
-2.71039
-2.7826
-2.85361
-2.92322
-2.99127
-3.05761
-3.12215
-3.1848
-3.24549
-3.30416
-3.36077
-3.41524
-3.46756
-3.51766
-3.56553
-3.61111
-3.65439
-3.69534
-3.73394
-3.77016
-3.804
-3.83543
-3.86446
-3.89107
-3.91527
-3.93706
-3.95644
-3.97343
-2.44887
-2.52017
-2.59153
-2.66194
-2.73114
-2.79894
-2.86514
-2.92964
-2.99233
-3.05314
-3.11202
-3.1689
-3.22375
-3.27651
-3.32715
-3.37562
-3.4219
-3.46595
-3.50774
-3.54726
-3.58448
-3.61938
-3.65195
-3.68218
-3.71006
-3.73558
-3.75875
-3.77956
-3.79803
-3.81417
-2.34168
-2.41104
-2.48094
-2.54978
-2.61734
-2.68345
-2.74794
-2.81068
-2.87162
-2.9307
-2.98786
-3.04305
-3.09623
-3.14737
-3.19642
-3.24335
-3.28812
-3.33072
-3.37111
-3.40928
-3.4452
-3.47886
-3.51023
-3.53932
-3.56612
-3.59062
-3.61281
-3.63271
-3.65032
-3.66567
-2.24119
-2.30916
-2.37805
-2.44552
-2.51157
-2.57612
-2.63897
-2.70005
-2.75932
-2.81674
-2.87225
-2.92583
-2.97743
-3.02701
-3.07455
-3.12001
-3.16337
-3.20459
-3.24365
-3.28054
-3.31522
-3.3477
-3.37795
-3.40596
-3.43173
-3.45526
-3.47654
-3.49557
-3.51237
-3.52695
-2.14574
-2.21356
-2.28212
-2.34839
-2.41306
-2.47612
-2.5374
-2.59689
-2.65456
-2.71038
-2.76433
-2.81637
-2.86646
-2.91457
-2.96068
-3.00475
-3.04675
-3.08667
-3.12448
-3.16015
-3.19368
-3.22504
-3.25423
-3.28123
-3.30603
-3.32864
-3.34906
-3.36728
-3.38331
-3.39717
-2.05107
-2.1203
-2.18979
-2.25521
-2.31869
-2.38044
-2.44032
-2.49837
-2.5546
-2.609
-2.66155
-2.71222
-2.76098
-2.8078
-2.85264
-2.89549
-2.93632
-2.97511
-3.01182
-3.04645
-3.07898
-3.10938
-3.13765
-3.16378
-3.18777
-3.2096
-3.22928
-3.24681
-3.2622
-3.27546
-1.95347
-2.02579
-2.09792
-2.16329
-2.22603
-2.28678
-2.34555
-2.40245
-2.45753
-2.51079
-2.56221
-2.61177
-2.65944
-2.70519
-2.74901
-2.79086
-2.83073
-2.86858
-2.90441
-2.93818
-2.96989
-2.99953
-3.02707
-3.05251
-3.07585
-3.09708
-3.1162
-3.13322
-3.14813
-3.16096
-1.88016
-1.96013
-2.03306
-2.09759
-2.15896
-2.218
-2.27498
-2.33007
-2.38332
-2.43473
-2.4843
-2.53202
-2.57785
-2.62178
-2.66379
-2.70386
-2.74197
-2.77811
-2.81226
-2.84439
-2.87451
-2.9026
-2.92866
-2.95266
-2.97462
-2.99454
-3.0124
-3.02823
-3.04201
-3.05379
0.0675405
0.0374107
0.00445678
-0.0315012
-0.0709343
-0.114317
-0.162162
-0.215063
-0.273718
-0.338932
-0.411644
-0.492941
-0.584089
-0.686556
-0.80205
-0.93255
-1.08035
-1.2481
-1.43885
-1.65609
-1.90381
-2.18651
-2.50916
-2.8772
-3.29658
-3.77391
-4.31198
-4.90689
-5.61599
-6.55109
0.00769554
-0.0242203
-0.0583033
-0.0955513
-0.136422
-0.181317
-0.230747
-0.285323
-0.34575
-0.412843
-0.487552
-0.570975
-0.664393
-0.769289
-0.887387
-1.02069
-1.1715
-1.34249
-1.53673
-1.75774
-2.00949
-2.2965
-2.62372
-2.99655
-3.42087
-3.90317
-4.44605
-5.04518
-5.7568
-6.69064
-0.0530578
-0.0868065
-0.122049
-0.160622
-0.20297
-0.249418
-0.300477
-0.356772
-0.419018
-0.488041
-0.564798
-0.650404
-0.746149
-0.853535
-0.974301
-1.11046
-1.26436
-1.43866
-1.63647
-1.86131
-2.11718
-2.40856
-2.74041
-3.11806
-3.54732
-4.03451
-4.58199
-5.18495
-5.89839
-6.83024
-0.114664
-0.150289
-0.186718
-0.226648
-0.27051
-0.318549
-0.371277
-0.429333
-0.493441
-0.564438
-0.643291
-0.731126
-0.829249
-0.939177
-1.06267
-1.20175
-1.35878
-1.53646
-1.73789
-1.96662
-2.22664
-2.52244
-2.85896
-3.24146
-3.67566
-4.1677
-4.71972
-5.32655
-6.04248
-6.97434
-0.177079
-0.214623
-0.252264
-0.293586
-0.338998
-0.388666
-0.443101
-0.502957
-0.568971
-0.641985
-0.722979
-0.813092
-0.913642
-1.02616
-1.15242
-1.29448
-1.4547
-1.6358
-1.84091
-2.07358
-2.33781
-2.63808
-2.9793
-3.36667
-3.80583
-4.30275
-4.85933
-5.47014
-6.18897
-7.12197
-0.240261
-0.279759
-0.318639
-0.361385
-0.408384
-0.459717
-0.515898
-0.577595
-0.645554
-0.720629
-0.803809
-0.896245
-0.999271
-1.11443
-1.24352
-1.3886
-1.55206
-1.73665
-1.94549
-2.18214
-2.45063
-2.75541
-3.10137
-3.49365
-3.93779
-4.43963
-5.00082
-5.61567
-6.33759
-7.27224
-0.304164
-0.345649
-0.385791
-0.429993
-0.478613
-0.531648
-0.589611
-0.653187
-0.723132
-0.800308
-0.885716
-0.98052
-1.08607
-1.20392
-1.33588
-1.48404
-1.6508
-1.83891
-2.05153
-2.29222
-2.56501
-2.87436
-3.22509
-3.62233
-4.07149
-4.57826
-5.14412
-5.76307
-6.4882
-7.42479
-0.368741
-0.412242
-0.453666
-0.499356
-0.549632
-0.604403
-0.664183
-0.729674
-0.801642
-0.880959
-0.968637
-1.06585
-1.17396
-1.29455
-1.42943
-1.58071
-1.75081
-1.9425
-2.15895
-2.40373
-2.68088
-2.99482
-3.35038
-3.7526
-4.20681
-4.71856
-5.28912
-5.91224
-6.64067
-7.57938
-0.433948
-0.479487
-0.522214
-0.569422
-0.621385
-0.677925
-0.739556
-0.806997
-0.881024
-0.962518
-1.0525
-1.15217
-1.26289
-1.38625
-1.5241
-1.67855
-1.85203
-2.04735
-2.26767
-2.51659
-2.79813
-3.11672
-3.47713
-3.88436
-4.34366
-4.86042
-5.43572
-6.06304
-6.79484
-7.73579
-0.49974
-0.547335
-0.591382
-0.640137
-0.69382
-0.752159
-0.815672
-0.885095
-0.961215
-1.04492
-1.13725
-1.2394
-1.35277
-1.47895
-1.6198
-1.77746
-1.95438
-2.15337
-2.3776
-2.6307
-2.91667
-3.23994
-3.60525
-4.01752
-4.48192
-5.00371
-5.58377
-6.21533
-6.95055
-7.89378
-0.566076
-0.615738
-0.66112
-0.71145
-0.766881
-0.827048
-0.892473
-0.963908
-1.04215
-1.1281
-1.22281
-1.32748
-1.44353
-1.57256
-1.71646
-1.87737
-2.05776
-2.26045
-2.48865
-2.74596
-3.0364
-3.36438
-3.7346
-4.15194
-4.62147
-5.14832
-5.73316
-6.36896
-7.10761
-8.05317
-0.632913
-0.684651
-0.73138
-0.78331
-0.840517
-0.902538
-0.969901
-1.04338
-1.12377
-1.212
-1.30911
-1.41633
-1.53509
-1.66701
-1.81398
-1.97818
-2.16207
-2.3685
-2.60069
-2.86225
-3.1572
-3.48991
-3.86508
-4.28752
-4.7622
-5.2941
-5.88373
-6.52378
-7.26586
-8.21377
-0.700215
-0.75403
-0.802113
-0.855668
-0.914675
-0.978574
-1.0479
-1.12344
-1.20601
-1.29653
-1.39608
-1.50588
-1.62738
-1.76222
-1.9123
-2.0798
-2.26723
-2.47744
-2.71365
-2.97949
-3.27896
-3.61645
-3.99658
-4.42413
-4.90396
-5.44093
-6.03534
-6.67963
-7.42513
-8.37539
-0.76795
-0.823834
-0.873277
-0.928477
-0.989305
-1.0551
-1.1264
-1.20403
-1.28879
-1.38164
-1.48364
-1.59605
-1.72031
-1.85809
-2.01131
-2.18216
-2.37315
-2.58716
-2.82742
-3.09757
-3.4016
-3.74387
-4.12898
-4.56165
-5.04663
-5.58866
-6.18783
-6.83635
-7.58525
-8.53786
-0.836088
-0.894029
-0.94483
-1.00169
-1.06436
-1.13206
-1.20536
-1.28508
-1.37207
-1.46725
-1.57172
-1.68676
-1.81381
-1.95455
-2.11093
-2.28514
-2.47972
-2.69756
-2.94191
-3.21638
-3.52498
-3.87203
-4.26214
-4.69993
-5.19006
-5.73713
-6.34105
-6.99377
-7.74605
-8.701
-0.904608
-0.964582
-1.01673
-1.07527
-1.13978
-1.20941
-1.28472
-1.36655
-1.45575
-1.55328
-1.66025
-1.77792
-1.90777
-2.0515
-2.21105
-2.38865
-2.58685
-2.80854
-3.05697
-3.33579
-3.64896
-4.00083
-4.39593
-4.83884
-5.33412
-5.88621
-6.49485
-7.15173
-7.90736
-8.86465
-0.973495
-1.03547
-1.08896
-1.14917
-1.21554
-1.28709
-1.3644
-1.44834
-1.53978
-1.63967
-1.74913
-1.86945
-2.00212
-2.14884
-2.31158
-2.49258
-2.6944
-2.91995
-3.1725
-3.45567
-3.77343
-4.13012
-4.53022
-4.97824
-5.47864
-6.03574
-6.64906
-7.31006
-8.06901
-9.02862
-1.04274
-1.10666
-1.16146
-1.22335
-1.29156
-1.36503
-1.44435
-1.5304
-1.62407
-1.72631
-1.83827
-1.96125
-2.09674
-2.24647
-2.4124
-2.59681
-2.80227
-3.03171
-3.28837
-3.5759
-3.89827
-4.25978
-4.66487
-5.11798
-5.62348
-6.18555
-6.80352
-7.4686
-8.23082
-9.19274
-1.11235
-1.17814
-1.23422
-1.29776
-1.36781
-1.44319
-1.52449
-1.61264
-1.70853
-1.81313
-1.92759
-2.05323
-2.19154
-2.34428
-2.51342
-2.70126
-2.91038
-3.14369
-3.40449
-3.69638
-4.02335
-4.38966
-4.79974
-5.25792
-5.7685
-6.33549
-6.95807
-7.62718
-8.39263
-9.35683
-1.18232
-1.2499
-1.30719
-1.37237
-1.44422
-1.52147
-1.60474
-1.69498
-1.79307
-1.90002
-2.01698
-2.14526