/*--------------------------------*- C++ -*----------------------------------*\
  =========                 |
  \\      /  F ield         | OpenFOAM: The Open Source CFD Toolbox
   \\    /   O peration     | Website:  https://openfoam.org
    \\  /    A nd           | Version:  6.0
     \\/     M anipulation  |
\*---------------------------------------------------------------------------*/
FoamFile
{
    version     2.0;
    format      ascii;
    class       volScalarField;
    location    "12.0015";
    object      p;
}
// * * * * * * * * * * * * * * * * * * * * * * * * * * * * * * * * * * * * * //

dimensions      [0 2 -2 0 0 0 0];

internalField   nonuniform List<scalar> 
19200
(
-6.98167
-6.11696
-5.52786
-5.07098
-4.66922
-4.31669
-4.00562
-3.72739
-3.47596
-3.24696
-3.03708
-2.84368
-2.66474
-2.49859
-2.3439
-2.19954
-2.06459
-1.93823
-1.81977
-1.7086
-1.6042
-1.50607
-1.41379
-1.32699
-1.2453
-1.16843
-1.09609
-1.02802
-0.963931
-0.903763
-7.1614
-6.296
-5.70464
-5.24431
-4.83842
-4.48136
-4.16552
-3.8824
-3.62604
-3.39217
-3.17748
-2.97941
-2.79593
-2.62541
-2.46651
-2.31812
-2.17931
-2.04927
-1.92731
-1.81282
-1.70525
-1.60413
-1.50901
-1.4195
-1.33526
-1.25596
-1.18134
-1.11107
-1.04485
-0.982931
-7.34596
-6.47834
-5.88416
-5.42017
-5.00999
-4.64826
-4.3275
-4.03936
-3.77796
-3.53908
-3.31948
-3.11662
-2.9285
-2.7535
-2.59029
-2.43779
-2.29505
-2.16126
-2.03573
-1.91785
-1.80706
-1.70288
-1.60487
-1.51262
-1.42578
-1.34403
-1.26708
-1.19459
-1.12619
-1.0625
-7.53368
-6.66355
-6.06626
-5.59841
-5.18378
-4.81721
-4.49141
-4.19811
-3.93153
-3.68753
-3.46289
-3.25513
-3.06226
-2.88269
-2.7151
-2.55839
-2.41163
-2.27402
-2.14486
-2.02353
-1.90947
-1.80219
-1.70124
-1.60621
-1.51673
-1.43248
-1.35317
-1.27841
-1.20781
-1.14235
-7.72413
-6.85134
-6.25072
-5.77883
-5.35959
-4.98805
-4.65705
-4.35846
-4.08659
-3.83733
-3.60755
-3.39478
-3.19706
-3.01281
-2.84074
-2.67975
-2.5289
-2.3874
-2.25455
-2.12971
-2.01233
-1.9019
-1.79796
-1.70011
-1.60796
-1.52118
-1.43948
-1.36243
-1.2896
-1.22234
-7.91701
-7.04146
-6.43735
-5.96126
-5.53726
-5.16059
-4.82426
-4.52025
-4.24294
-3.98832
-3.75327
-3.53538
-3.33271
-3.1437
-2.96706
-2.8017
-2.64669
-2.50124
-2.36463
-2.23623
-2.11547
-2.00185
-1.8949
-1.79419
-1.69933
-1.61
-1.52588
-1.44651
-1.37142
-1.30237
-8.11203
-7.23366
-6.62593
-6.1455
-5.71659
-5.33465
-4.99286
-4.68329
-4.40042
-4.1403
-3.89988
-3.67676
-3.46904
-3.27517
-3.09388
-2.92407
-2.76484
-2.61537
-2.47495
-2.34293
-2.21876
-2.10191
-1.9919
-1.8883
-1.79072
-1.6988
-1.61224
-1.53053
-1.45316
-1.38231
-8.30895
-7.42771
-6.81625
-6.33134
-5.89738
-5.51004
-5.16264
-4.84738
-4.55884
-4.2931
-4.04719
-3.81874
-3.60587
-3.40705
-3.22102
-3.0467
-2.88317
-2.72962
-2.58534
-2.44967
-2.32204
-2.20193
-2.08883
-1.98232
-1.88198
-1.78746
-1.69844
-1.61436
-1.5347
-1.46205
-8.50753
-7.62337
-7.00808
-6.51857
-6.07943
-5.68656
-5.33342
-5.01235
-4.71799
-4.44653
-4.19502
-3.96113
-3.74301
-3.53916
-3.34832
-3.16941
-3.00152
-2.84384
-2.69564
-2.55628
-2.42516
-2.30175
-2.18555
-2.0761
-1.97299
-1.87585
-1.78435
-1.6979
-1.61592
-1.54149
-8.70754
-7.82041
-7.2012
-6.70698
-6.26254
-5.864
-5.50499
-5.17797
-4.87769
-4.60038
-4.34316
-4.10373
-3.88028
-3.67131
-3.47558
-3.29203
-3.11972
-2.95786
-2.80571
-2.66261
-2.52797
-2.40124
-2.2819
-2.1695
-2.06361
-1.96385
-1.86986
-1.78102
-1.69673
-1.62052
-8.90875
-8.01862
-7.3954
-6.89635
-6.44649
-6.04215
-5.67715
-5.34407
-5.03773
-4.75447
-4.49143
-4.24637
-4.0175
-3.80333
-3.60264
-3.41437
-3.2376
-3.07151
-2.91537
-2.76851
-2.63032
-2.50025
-2.37777
-2.26241
-2.15372
-2.05132
-1.95485
-1.86361
-1.777
-1.69903
-9.11092
-8.21776
-7.59045
-7.08647
-6.63106
-6.22081
-5.8497
-5.51042
-5.19792
-4.90859
-4.63964
-4.38886
-4.15447
-3.93504
-3.72932
-3.53628
-3.35499
-3.18463
-3.02446
-2.87382
-2.73206
-2.59864
-2.473
-2.35467
-2.24319
-2.13816
-2.03921
-1.94558
-1.85665
-1.77694
-9.31383
-8.4176
-7.78613
-7.27711
-6.81605
-6.39976
-6.02241
-5.67683
-5.35806
-5.06255
-4.78758
-4.53099
-4.29102
-4.06624
-3.85544
-3.65758
-3.47173
-3.29706
-3.13285
-2.97839
-2.83305
-2.69627
-2.56747
-2.44617
-2.33189
-2.22424
-2.12281
-2.0268
-1.93556
-1.85414
-9.51725
-8.61792
-7.98221
-7.46806
-7.00123
-6.57879
-6.19509
-5.84309
-5.51793
-5.21615
-4.93508
-4.67258
-4.42695
-4.19676
-3.98082
-3.77809
-3.58764
-3.40865
-3.24036
-3.08207
-2.93315
-2.79299
-2.66104
-2.53678
-2.41972
-2.30945
-2.20555
-2.10717
-2.01363
-1.93053
-9.72095
-8.81849
-8.17848
-7.6591
-7.18639
-6.75769
-6.36752
-6.00899
-5.67734
-5.36919
-5.08192
-4.81344
-4.56208
-4.32643
-4.1053
-3.89766
-3.70257
-3.51922
-3.34684
-3.18472
-3.0322
-2.88868
-2.75358
-2.62636
-2.50653
-2.39366
-2.28732
-2.18659
-2.09077
-2.00603
-9.9247
-9.0191
-8.3747
-7.85
-7.37132
-6.93624
-6.53949
-6.17433
-5.83608
-5.52147
-5.22792
-4.95339
-4.69623
-4.45506
-4.22869
-4.0161
-3.81636
-3.62863
-3.45214
-3.28618
-3.13007
-2.98318
-2.84494
-2.71478
-2.5922
-2.47675
-2.36799
-2.26493
-2.16685
-2.08052
-10.1283
-9.21952
-8.57067
-8.04056
-7.55579
-7.11423
-6.7108
-6.33889
-5.99397
-5.6728
-5.37289
-5.09224
-4.82923
-4.58248
-4.35084
-4.13328
-3.92885
-3.73673
-3.55612
-3.38631
-3.22661
-3.07637
-2.935
-2.80191
-2.67659
-2.5586
-2.44745
-2.34209
-2.24177
-2.15389
-10.3315
-9.41953
-8.76617
-8.23055
-7.7396
-7.29145
-6.88123
-6.50249
-6.15078
-5.82298
-5.51664
-5.22981
-4.96089
-4.70853
-4.47158
-4.24901
-4.03989
-3.84336
-3.65863
-3.48497
-3.32168
-3.1681
-3.02361
-2.88762
-2.75959
-2.63906
-2.52555
-2.41792
-2.3154
-2.22602
-10.5341
-9.61892
-8.96099
-8.41977
-7.92253
-7.46769
-7.05059
-6.66491
-6.30634
-5.97183
-5.659
-5.36593
-5.09105
-4.83304
-4.59076
-4.36316
-4.14932
-3.94838
-3.75953
-3.58202
-3.41515
-3.25823
-3.11064
-2.97176
-2.84104
-2.71801
-2.60216
-2.49229
-2.38758
-2.29675
-10.7359
-9.81749
-9.15491
-8.608
-8.10437
-7.64274
-7.21866
-6.82597
-6.46046
-6.11917
-5.79977
-5.50041
-5.21955
-4.95586
-4.70821
-4.47557
-4.25701
-4.05165
-3.85868
-3.67733
-3.50687
-3.34663
-3.19594
-3.05419
-2.92079
-2.79528
-2.67712
-2.56504
-2.45817
-2.36594
-10.9367
-10.015
-9.34774
-8.79504
-8.28493
-7.81641
-7.38525
-6.98545
-6.61293
-6.2648
-5.9388
-5.63311
-5.34622
-5.07683
-4.82381
-4.58612
-4.36283
-4.15305
-3.95595
-3.77076
-3.59673
-3.43317
-3.27939
-3.13477
-2.99871
-2.87072
-2.75027
-2.63599
-2.52697
-2.43338
-11.1364
-10.2114
-9.53927
-8.98068
-8.46397
-7.98847
-7.55016
-7.14318
-6.76358
-6.40856
-6.07592
-5.76387
-5.47093
-5.19582
-4.93741
-4.69467
-4.46665
-4.25245
-4.05124
-3.86221
-3.68461
-3.51772
-3.36085
-3.21336
-3.07463
-2.94417
-2.82142
-2.70495
-2.59376
-2.49882
-11.3347
-10.4064
-9.72932
-9.16472
-8.64132
-8.15874
-7.71318
-7.29897
-6.91224
-6.55028
-6.21095
-5.89252
-5.59353
-5.3127
-5.04891
-4.80112
-4.56837
-4.34976
-4.14443
-3.95157
-3.7704
-3.60018
-3.44022
-3.28983
-3.14841
-3.01545
-2.89039
-2.7717
-2.65829
-2.56197
-11.5318
-10.5998
-9.91768
-9.34695
-8.81674
-8.32699
-7.87413
-7.45262
-7.05871
-6.68979
-6.34376
-6.01894
-5.71389
-5.42734
-5.15818
-4.90536
-4.6679
-4.4449
-4.23547
-4.03878
-3.85403
-3.68047
-3.51739
-3.36408
-3.21993
-3.08442
-2.95698
-2.836
-2.72027
-2.62252
-11.7273
-10.7916
-10.1042
-9.52714
-8.99002
-8.49303
-8.0328
-7.60395
-7.20284
-6.82693
-6.4742
-6.14299
-5.83189
-5.53964
-5.26513
-5.0073
-4.76517
-4.53779
-4.32428
-4.12377
-3.93545
-3.75855
-3.59231
-3.43605
-3.2891
-3.15095
-3.02102
-2.89762
-2.77939
-2.68006
-11.9215
-10.9814
-10.2885
-9.70507
-9.16093
-8.65664
-8.189
-7.75277
-7.34444
-6.96155
-6.60212
-6.26454
-5.94742
-5.64951
-5.36969
-5.10689
-4.86012
-4.62841
-4.41085
-4.20655
-4.01467
-3.83441
-3.665
-3.50572
-3.35589
-3.21498
-3.08242
-2.95639
-2.83536
-2.73403
-12.1143
-11.1691
-10.4704
-9.88047
-9.32924
-8.81759
-8.34251
-7.89891
-7.48336
-7.0935
-6.7274
-6.38348
-6.06038
-5.75686
-5.47178
-5.20407
-4.95272
-4.71673
-4.49517
-4.28712
-4.09172
-3.90812
-3.73554
-3.57321
-3.42042
-3.27663
-3.14126
-3.01238
-2.88804
-2.78383
-12.3069
-11.3548
-10.6497
-10.053
-9.49463
-8.97561
-8.49311
-8.04215
-7.61942
-7.22261
-6.84989
-6.49969
-6.17067
-5.8616
-5.57133
-5.29879
-5.04293
-4.80275
-4.57727
-4.36555
-4.16668
-3.9798
-3.80407
-3.63868
-3.48287
-3.33606
-3.19767
-3.0655
-2.9369
-2.82909
-12.5006
-11.5382
-10.8256
-10.2221
-9.65673
-9.13043
-8.64057
-8.18231
-7.75244
-7.34875
-6.96946
-6.61304
-6.27818
-5.96364
-5.66828
-5.391
-5.13074
-4.88646
-4.65717
-4.44189
-4.23969
-4.04965
-3.87087
-3.7025
-3.54369
-3.39375
-3.25182
-3.11516
-2.98079
-2.8695
-12.6876
-11.7162
-10.9971
-10.3875
-9.81542
-9.28203
-8.78491
-8.3194
-7.88245
-7.47193
-7.08613
-6.72358
-6.38294
-6.06303
-5.76267
-5.48075
-5.21619
-4.96795
-4.73498
-4.5163
-4.31093
-4.11795
-3.93642
-3.76546
-3.60416
-3.45167
-3.3066
-3.166
-3.0282
-2.91219
-15.8178
-15.7972
-15.7672
-15.7326
-15.6927
-15.6468
-15.5947
-15.5363
-15.4718
-15.4009
-15.324
-15.2408
-15.1516
-15.0565
-14.9555
-14.8488
-14.7365
-14.6186
-14.4955
-14.3671
-14.2337
-14.0954
-13.9524
-13.8049
-13.6531
-13.4972
-13.3375
-13.1745
-13.0088
-12.843
-14.7803
-14.7646
-14.7403
-14.7096
-14.6726
-14.6292
-14.5793
-14.5231
-14.4607
-14.3921
-14.3173
-14.2364
-14.1496
-14.0568
-13.9583
-13.8541
-13.7443
-13.6291
-13.5087
-13.383
-13.2524
-13.117
-12.9769
-12.8323
-12.6834
-12.5305
-12.3737
-12.2135
-12.05
-11.8838
-13.9405
-13.9286
-13.9089
-13.8823
-13.8491
-13.8094
-13.7633
-13.7108
-13.6522
-13.5873
-13.5164
-13.4395
-13.3567
-13.2681
-13.1737
-13.0738
-12.9683
-12.8575
-12.7415
-12.6203
-12.4942
-12.3634
-12.2278
-12.0879
-11.9436
-11.7952
-11.6429
-11.4868
-11.3272
-11.164
-13.1786
-13.1701
-13.1545
-13.1322
-13.1032
-13.0679
-13.0262
-12.9784
-12.9243
-12.8643
-12.7982
-12.7262
-12.6484
-12.5649
-12.4758
-12.3811
-12.2811
-12.1757
-12.0652
-11.9497
-11.8292
-11.704
-11.5742
-11.44
-11.3014
-11.1587
-11.012
-10.8615
-10.7072
-10.5493
-12.4389
-12.4338
-12.4222
-12.4041
-12.3795
-12.3487
-12.3118
-12.2687
-12.2197
-12.1647
-12.1039
-12.0372
-11.9649
-11.887
-11.8036
-11.7148
-11.6207
-11.5214
-11.417
-11.3076
-11.1935
-11.0746
-10.9512
-10.8233
-10.6912
-10.5549
-10.4146
-10.2705
-10.1225
-9.97087
-11.7333
-11.7315
-11.7235
-11.7093
-11.689
-11.6626
-11.6302
-11.5919
-11.5478
-11.4979
-11.4424
-11.3812
-11.3145
-11.2423
-11.1647
-11.0819
-10.9939
-10.9008
-10.8028
-10.6999
-10.5922
-10.48
-10.3632
-10.2421
-10.1167
-9.98727
-9.8538
-9.71645
-9.57532
-9.43053
-11.0666
-11.0678
-11.0631
-11.0524
-11.0359
-11.0136
-10.9855
-10.9517
-10.9122
-10.8672
-10.8167
-10.7608
-10.6994
-10.6328
-10.561
-10.4841
-10.4021
-10.3152
-10.2235
-10.127
-10.0259
-9.92028
-9.81025
-9.69593
-9.57742
-9.45486
-9.32835
-9.198
-9.06392
-8.92622
-10.4392
-10.4428
-10.441
-10.4334
-10.4202
-10.4015
-10.3772
-10.3475
-10.3123
-10.2718
-10.226
-10.175
-10.1188
-10.0574
-9.99108
-9.91977
-9.84359
-9.76262
-9.67696
-9.5867
-9.49194
-9.39277
-9.28931
-9.18165
-9.0699
-8.95416
-8.83455
-8.71117
-8.58412
-8.45352
-9.85105
-9.85672
-9.85715
-9.85219
-9.84187
-9.82624
-9.80534
-9.7792
-9.74788
-9.71141
-9.66987
-9.62329
-9.57174
-9.51528
-9.45397
-9.3879
-9.31713
-9.24174
-9.16182
-9.07744
-8.98871
-8.8957
-8.79852
-8.69726
-8.59202
-8.48289
-8.36998
-8.25338
-8.13319
-8.00954
-9.30169
-9.30895
-9.31123
-9.30838
-9.30043
-9.28742
-9.26938
-9.24635
-9.21836
-9.18545
-9.14769
-9.1051
-9.05775
-9.00569
-8.94899
-8.88771
-8.82191
-8.75167
-8.67707
-8.59817
-8.51507
-8.42785
-8.33658
-8.24137
-8.1423
-8.03945
-7.93293
-7.82283
-7.70923
-7.59226
-8.79005
-8.79847
-8.80216
-8.80098
-8.79494
-8.78409
-8.76845
-8.74804
-8.7229
-8.69308
-8.65861
-8.61954
-8.57591
-8.52778
-8.4752
-8.41824
-8.35696
-8.29141
-8.22167
-8.14781
-8.06991
-7.98804
-7.90228
-7.81271
-7.71941
-7.62246
-7.52197
-7.418
-7.31065
-7.20002
-8.31456
-8.32378
-8.32849
-8.32857
-8.32403
-8.31491
-8.30123
-8.283
-8.26027
-8.23308
-8.20146
-8.16544
-8.12507
-8.0804
-8.03149
-7.97839
-7.92115
-7.85983
-7.7945
-7.72523
-7.65207
-7.57511
-7.49441
-7.41005
-7.3221
-7.23065
-7.13577
-7.03754
-6.93605
-6.8314
-7.87333
-7.88303
-7.88843
-7.88942
-7.88602
-7.87826
-7.86616
-7.84972
-7.829
-7.80402
-7.77482
-7.74143
-7.70389
-7.66225
-7.61657
-7.56687
-7.51324
-7.4557
-7.39434
-7.3292
-7.26034
-7.18785
-7.11177
-7.03219
-6.94916
-6.86278
-6.7731
-6.6802
-6.58417
-6.48509
-7.46427
-7.47418
-7.48
-7.48161
-7.47905
-7.47233
-7.46146
-7.44648
-7.42741
-7.40428
-7.37712
-7.34598
-7.31088
-7.27187
-7.229
-7.18232
-7.13187
-7.0777
-7.01987
-6.95844
-6.89347
-6.82502
-6.75314
-6.67791
-6.59939
-6.51764
-6.43275
-6.34477
-6.25379
-6.15988
-7.08518
-7.0951
-7.10111
-7.10311
-7.10112
-7.09517
-7.08527
-7.07144
-7.05371
-7.03212
-7.00669
-6.97745
-6.94444
-6.90771
-6.8673
-6.82325
-6.7756
-6.72442
-6.66975
-6.61164
-6.55015
-6.48533
-6.41725
-6.34597
-6.27155
-6.19404
-6.11353
-6.03008
-5.94374
-5.85462
-6.73385
-6.74362
-6.74964
-6.75183
-6.75022
-6.74482
-6.73565
-6.72273
-6.70609
-6.68576
-6.66177
-6.63415
-6.60293
-6.56817
-6.52989
-6.48814
-6.44297
-6.39442
-6.34255
-6.2874
-6.22903
-6.16749
-6.10284
-6.03513
-5.96442
-5.89078
-5.81427
-5.73495
-5.65289
-5.56817
-6.40811
-6.4176
-6.4235
-6.42574
-6.42434
-6.41932
-6.41069
-6.39848
-6.38271
-6.36343
-6.34064
-6.31438
-6.2847
-6.25162
-6.2152
-6.17547
-6.13247
-6.08625
-6.03687
-5.98436
-5.92878
-5.87018
-5.80861
-5.74413
-5.6768
-5.60667
-5.5338
-5.45826
-5.38011
-5.29944
-6.10588
-6.11501
-6.12069
-6.12286
-6.12154
-6.11676
-6.10852
-6.09685
-6.08179
-6.06335
-6.04157
-6.01647
-5.9881
-5.95649
-5.92168
-5.88371
-5.84263
-5.79848
-5.7513
-5.70115
-5.64807
-5.59211
-5.53332
-5.47176
-5.40747
-5.34052
-5.27096
-5.19887
-5.1243
-5.04734
-5.82519
-5.83389
-5.83928
-5.8413
-5.83998
-5.83533
-5.82736
-5.81611
-5.8016
-5.78387
-5.76292
-5.73881
-5.71156
-5.68122
-5.64782
-5.6114
-5.57201
-5.52968
-5.48448
-5.43643
-5.38559
-5.332
-5.27572
-5.21679
-5.15526
-5.0912
-5.02466
-4.9557
-4.88439
-4.81083
-5.56419
-5.57244
-5.57749
-5.57931
-5.5779
-5.5733
-5.56552
-5.55458
-5.54052
-5.52336
-5.50313
-5.47985
-5.45358
-5.42434
-5.39217
-5.35712
-5.31922
-5.27852
-5.23507
-5.18891
-5.14008
-5.08863
-5.03461
-4.97806
-4.91904
-4.8576
-4.79379
-4.72768
-4.65935
-4.5889
-5.32121
-5.32898
-5.33366
-5.33523
-5.3337
-5.32909
-5.32142
-5.31072
-5.29701
-5.28033
-5.26069
-5.23814
-5.21271
-5.18443
-5.15335
-5.11951
-5.08295
-5.0437
-5.00182
-4.95735
-4.91034
-4.86082
-4.80885
-4.75446
-4.69771
-4.63865
-4.57732
-4.5138
-4.44817
-4.38055
-5.09467
-5.10195
-5.10626
-5.10755
-5.10586
-5.10121
-5.0936
-5.08307
-5.06966
-5.05337
-5.03425
-5.01232
-4.98763
-4.9602
-4.93008
-4.89732
-4.86194
-4.824
-4.78354
-4.7406
-4.69522
-4.64745
-4.59734
-4.54491
-4.49023
-4.43333
-4.37426
-4.3131
-4.24991
-4.18487
-4.88316
-4.88996
-4.89388
-4.8949
-4.89303
-4.8883
-4.88072
-4.87032
-4.85714
-4.84119
-4.82251
-4.80113
-4.77708
-4.75041
-4.72115
-4.68935
-4.65504
-4.61827
-4.57909
-4.53753
-4.49364
-4.44746
-4.39904
-4.34841
-4.29561
-4.24068
-4.18367
-4.12463
-4.06365
-4.00093
-4.6854
-4.69173
-4.69527
-4.696
-4.69395
-4.68912
-4.68154
-4.67125
-4.65825
-4.64259
-4.6243
-4.6034
-4.57993
-4.55393
-4.52544
-4.49451
-4.46117
-4.42546
-4.38743
-4.34713
-4.3046
-4.25987
-4.21299
-4.164
-4.11293
-4.0598
-4.00466
-3.94756
-3.88853
-3.8279
-4.50021
-4.50609
-4.50927
-4.50972
-4.50747
-4.50254
-4.49495
-4.48473
-4.4719
-4.45649
-4.43853
-4.41805
-4.3951
-4.36971
-4.34192
-4.31177
-4.27931
-4.24457
-4.2076
-4.16844
-4.12715
-4.08375
-4.03829
-3.99081
-3.94132
-3.88986
-3.83644
-3.78109
-3.72379
-3.66503
-4.32656
-4.33201
-4.33482
-4.33499
-4.33255
-4.3275
-4.31988
-4.30971
-4.29701
-4.28181
-4.26415
-4.24406
-4.22157
-4.19672
-4.16956
-4.14012
-4.10845
-4.07458
-4.03858
-4.00047
-3.9603
-3.91812
-3.87397
-3.82787
-3.77985
-3.72992
-3.67808
-3.62433
-3.56854
-3.51152
-4.16352
-4.16854
-4.171
-4.1709
-4.16826
-4.16308
-4.15541
-4.14526
-4.13266
-4.11764
-4.10023
-4.08046
-4.05838
-4.03401
-4.0074
-3.97858
-3.94761
-3.91453
-3.87938
-3.84221
-3.80306
-3.76198
-3.719
-3.67416
-3.62747
-3.57895
-3.52855
-3.47625
-3.42167
-3.36633
-4.01022
-4.0149
-4.01709
-4.01679
-4.01402
-4.00877
-4.0011
-3.99102
-3.97855
-3.96373
-3.94658
-3.92714
-3.90545
-3.88154
-3.85546
-3.82724
-3.79693
-3.76458
-3.73023
-3.69393
-3.65572
-3.61565
-3.57376
-3.53009
-3.48466
-3.43746
-3.38844
-3.33748
-3.28383
-3.22981
-3.86575
-3.87027
-3.87237
-3.87204
-3.86929
-3.86415
-3.85665
-3.8468
-3.83463
-3.82018
-3.80346
-3.78453
-3.7634
-3.74013
-3.71476
-3.68732
-3.65785
-3.62642
-3.59305
-3.55781
-3.52074
-3.48188
-3.44129
-3.39901
-3.35507
-3.30946
-3.26213
-3.21289
-3.16051
-3.10805
-3.72943
-3.73316
-3.73456
-3.73363
-3.73039
-3.72486
-3.71706
-3.70702
-3.69477
-3.68033
-3.66373
-3.64501
-3.62421
-3.60136
-3.5765
-3.54968
-3.52094
-3.49033
-3.45789
-3.42367
-3.38773
-3.35011
-3.31086
-3.27005
-3.22771
-3.18389
-3.13859
-3.09158
-3.04166
-2.99594
-13.3087
-13.4641
-13.6112
-13.7581
-13.9033
-14.0453
-14.1835
-14.3176
-14.4471
-14.5718
-14.6915
-14.8059
-14.9148
-15.018
-15.1154
-15.2068
-15.2922
-15.3713
-15.444
-15.5104
-15.5702
-15.6234
-15.67
-15.7099
-15.7432
-15.7698
-15.7897
-15.8032
-15.8106
-15.8133
-12.2715
-12.4312
-12.5839
-12.7332
-12.879
-13.0209
-13.1585
-13.2917
-13.4203
-13.5442
-13.663
-13.7766
-13.8847
-13.9873
-14.0842
-14.1752
-14.2603
-14.3392
-14.4118
-14.4782
-14.5381
-14.5916
-14.6386
-14.679
-14.7128
-14.74
-14.7607
-14.7749
-14.7826
-14.7841
-11.4207
-11.5799
-11.7337
-11.8832
-12.0285
-12.1696
-12.3064
-12.4389
-12.5668
-12.6899
-12.8081
-12.9213
-13.0291
-13.1316
-13.2284
-13.3196
-13.4049
-13.4843
-13.5576
-13.6247
-13.6856
-13.7402
-13.7884
-13.8302
-13.8656
-13.8944
-13.9168
-13.9327
-13.9419
-13.9446
-10.6504
-10.8071
-10.9593
-11.1073
-11.2512
-11.3909
-11.5265
-11.6578
-11.7846
-11.9068
-12.0242
-12.1366
-12.244
-12.3462
-12.443
-12.5342
-12.6198
-12.6997
-12.7737
-12.8418
-12.9038
-12.9597
-13.0094
-13.0529
-13.0901
-13.1209
-13.1454
-13.1635
-13.1751
-13.1802
-9.91305
-10.0662
-10.2157
-10.3612
-10.5028
-10.6405
-10.7741
-10.9036
-11.0287
-11.1494
-11.2655
-11.3769
-11.4834
-11.5848
-11.6811
-11.7721
-11.8577
-11.9378
-12.0122
-12.0809
-12.1438
-12.2008
-12.2519
-12.2969
-12.3359
-12.3687
-12.3954
-12.4158
-12.4299
-12.4376
-9.22277
-9.37191
-9.51784
-9.66014
-9.79875
-9.93361
-10.0646
-10.1917
-10.3146
-10.4333
-10.5475
-10.6573
-10.7624
-10.8627
-10.958
-11.0483
-11.1334
-11.2133
-11.2877
-11.3567
-11.4201
-11.4779
-11.53
-11.5762
-11.6166
-11.6512
-11.6797
-11.7023
-11.7188
-11.7291
-8.58473
-8.72946
-8.87131
-9.00981
-9.14486
-9.2764
-9.40428
-9.5284
-9.6486
-9.76476
-9.87674
-9.98441
-10.0876
-10.1863
-10.2802
-10.3693
-10.4535
-10.5327
-10.6067
-10.6755
-10.739
-10.7971
-10.8497
-10.8968
-10.9383
-10.9741
-11.0043
-11.0286
-11.0472
-11.0599
-7.9982
-8.13827
-8.2757
-8.41003
-8.54114
-8.66894
-8.79331
-8.91409
-9.03118
-9.14442
-9.2537
-9.35887
-9.45981
-9.5564
-9.64852
-9.73605
-9.81889
-9.89693
-9.97008
-10.0382
-10.1013
-10.1593
-10.212
-10.2595
-10.3016
-10.3384
-10.3696
-10.3954
-10.4156
-10.4303
-7.46137
-7.59665
-7.72948
-7.85941
-7.98633
-8.11015
-8.23071
-8.3479
-8.46157
-8.5716
-8.67786
-8.78022
-8.87856
-8.97276
-9.0627
-9.14827
-9.22938
-9.30592
-9.3778
-9.44494
-9.50725
-9.56467
-9.61711
-9.66452
-9.70684
-9.74402
-9.77599
-9.80273
-9.82418
-9.84033
-6.97163
-7.10207
-7.23022
-7.35566
-7.47827
-7.59795
-7.71456
-7.82798
-7.93806
-8.04468
-8.14771
-8.24703
-8.34252
-8.43407
-8.52156
-8.6049
-8.68398
-8.75871
-8.82901
-8.89478
-8.95596
-9.01247
-9.06425
-9.11123
-9.15336
-9.19059
-9.22287
-9.25016
-9.27243
-9.28965
-6.52567
-6.65133
-6.77482
-6.89575
-7.01403
-7.12953
-7.24213
-7.35169
-7.45808
-7.56118
-7.66086
-7.757
-7.84949
-7.93822
-8.02308
-8.10398
-8.18081
-8.2535
-8.32196
-8.3861
-8.44587
-8.50118
-8.55198
-8.59822
-8.63983
-8.67678
-8.70901
-8.73649
-8.75919
-8.77709
-6.11993
-6.2409
-6.35981
-6.4763
-6.59029
-6.70164
-6.81024
-6.91595
-7.01863
-7.11817
-7.21445
-7.30735
-7.39675
-7.48256
-7.56468
-7.643
-7.71745
-7.78793
-7.85437
-7.91669
-7.97483
-8.02872
-8.07831
-8.12354
-8.16437
-8.20074
-8.23262
-8.25998
-8.28279
-8.30103
-5.75076
-5.86718
-5.98163
-6.09381
-6.2036
-6.3109
-6.41556
-6.51747
-6.61649
-6.7125
-6.80538
-6.89503
-6.98133
-7.06418
-7.1435
-7.21918
-7.29115
-7.35932
-7.42363
-7.484
-7.54037
-7.59268
-7.64087
-7.68491
-7.72473
-7.76031
-7.79161
-7.81859
-7.84123
-7.85953
-5.4146
-5.52664
-5.63681
-5.74481
-5.85055
-5.95391
-6.05476
-6.15296
-6.2484
-6.34095
-6.4305
-6.51693
-6.60015
-6.68007
-6.75658
-6.8296
-6.89906
-6.96488
-7.02699
-7.08532
-7.13983
-7.19045
-7.23713
-7.27983
-7.3185
-7.35312
-7.38365
-7.41005
-7.43232
-7.45044
-5.10809
-5.21595
-5.322
-5.42601
-5.52786
-5.62743
-5.72461
-5.81924
-5.91121
-6.00041
-6.08671
-6.17001
-6.25021
-6.32723
-6.40097
-6.47136
-6.53832
-6.60178
-6.66167
-6.71794
-6.77053
-6.8194
-6.86449
-6.90576
-6.94318
-6.97672
-7.00634
-7.03202
-7.05375
-7.07152
-4.82813
-4.93199
-5.03412
-5.13432
-5.23246
-5.32843
-5.42209
-5.5133
-5.60195
-5.68791
-5.77107
-5.85134
-5.92862
-6.00282
-6.07386
-6.14166
-6.20615
-6.26728
-6.32497
-6.37918
-6.42985
-6.47694
-6.5204
-6.5602
-6.5963
-6.62868
-6.6573
-6.68216
-6.70322
-6.7205
-4.57188
-4.67193
-4.77035
-4.86693
-4.96155
-5.05409
-5.1444
-5.23236
-5.31783
-5.4007
-5.48085
-5.55821
-5.63266
-5.70414
-5.77255
-5.83784
-5.89994
-5.95878
-6.01431
-6.06649
-6.11525
-6.16057
-6.2024
-6.24071
-6.27546
-6.30664
-6.33421
-6.35817
-6.37849
-6.39518
-4.33678
-4.4332
-4.5281
-4.62126
-4.71257
-4.80187
-4.88902
-4.97388
-5.05633
-5.13625
-5.21354
-5.2881
-5.35984
-5.4287
-5.4946
-5.55746
-5.61724
-5.67387
-5.7273
-5.77749
-5.82439
-5.86796
-5.90818
-5.945
-5.97841
-6.00836
-6.03486
-6.05788
-6.0774
-6.09345
-4.12053
-4.21351
-4.30509
-4.39504
-4.48322
-4.56947
-4.65363
-4.73557
-4.81516
-4.89227
-4.96683
-5.03873
-5.10789
-5.17424
-5.23772
-5.29826
-5.3558
-5.4103
-5.4617
-5.50997
-5.55506
-5.59694
-5.63558
-5.67094
-5.70301
-5.73176
-5.75717
-5.77924
-5.79794
-5.8133
-3.9211
-4.01081
-4.09926
-4.1862
-4.27145
-4.35484
-4.43619
-4.51537
-4.59225
-4.66671
-4.73867
-4.80804
-4.87474
-4.9387
-4.99987
-5.05818
-5.11359
-5.16604
-5.2155
-5.26192
-5.30527
-5.34551
-5.38262
-5.41657
-5.44733
-5.47489
-5.49924
-5.52035
-5.53823
-5.55288
-3.73667
-3.82326
-3.90879
-3.99293
-4.07545
-4.15616
-4.23488
-4.31146
-4.38578
-4.45773
-4.52722
-4.59418
-4.65854
-4.72023
-4.7792
-4.83539
-4.88876
-4.93926
-4.98686
-5.03151
-5.07319
-5.11186
-5.14749
-5.18007
-5.20958
-5.23599
-5.25929
-5.27947
-5.29653
-5.31048
-3.56561
-3.64923
-3.73207
-3.81362
-3.89361
-3.97182
-4.04807
-4.1222
-4.1941
-4.26367
-4.33083
-4.39551
-4.45764
-4.51717
-4.57405
-4.62822
-4.67965
-4.7283
-4.77412
-4.81709
-4.85718
-4.89434
-4.92857
-4.95984
-4.98814
-5.01344
-5.03573
-5.05501
-5.07127
-5.08452
-3.40644
-3.48726
-3.56766
-3.64685
-3.7245
-3.8004
-3.87434
-3.94617
-4.01578
-4.0831
-4.14804
-4.21055
-4.27057
-4.32805
-4.38294
-4.4352
-4.4848
-4.53168
-4.57582
-4.61719
-4.65575
-4.69149
-4.72439
-4.75441
-4.78154
-4.80578
-4.82711
-4.84552
-4.861
-4.87358
-3.25779
-3.336
-3.41428
-3.49136
-3.56688
-3.64062
-3.7124
-3.78205
-3.84951
-3.91469
-3.97753
-4.03799
-4.09601
-4.15155
-4.20456
-4.25501
-4.30285
-4.34807
-4.39061
-4.43046
-4.4676
-4.50198
-4.5336
-4.56244
-4.58848
-4.61171
-4.63211
-4.64969
-4.66444
-4.67637
-3.11842
-3.1943
-3.27086
-3.34608
-3.41967
-3.49143
-3.56117
-3.62878
-3.69418
-3.75734
-3.81819
-3.8767
-3.93282
-3.98652
-4.03775
-4.08647
-4.13267
-4.1763
-4.21734
-4.25576
-4.29153
-4.32463
-4.35505
-4.38277
-4.40777
-4.43004
-4.44957
-4.46636
-4.4804
-4.49171
-2.98714
-3.06137
-3.13676
-3.21037
-3.28219
-3.3521
-3.41992
-3.48557
-3.54902
-3.61024
-3.66919
-3.72584
-3.78015
-3.83208
-3.88161
-3.9287
-3.97333
-4.01545
-4.05505
-4.09211
-4.12658
-4.15847
-4.18775
-4.21439
-4.2384
-4.25976
-4.27846
-4.29449
-4.30786
-4.31857
-2.86197
-2.93606
-3.01117
-3.08337
-3.15355
-3.22172
-3.2877
-3.35147
-3.41304
-3.47241
-3.52954
-3.58442
-3.637
-3.68726
-3.73518
-3.78072
-3.82385
-3.86455
-3.90279
-3.93855
-3.97181
-4.00254
-4.03073
-4.05637
-4.07944
-4.09993
-4.11784
-4.13315
-4.14587
-4.15602
-2.73785
-2.8138
-2.8902
-2.96146
-3.03023
-3.09686
-3.16118
-3.22326
-3.28315
-3.34086
-3.39638
-3.44968
-3.50074
-3.54953
-3.59603
-3.64021
-3.68204
-3.7215
-3.75856
-3.79321
-3.82541
-3.85516
-3.88243
-3.90721
-3.92949
-3.94926
-3.9665
-3.98123
-3.99342
-4.0031
-2.61094
-2.69067
-2.77048
-2.84177
-2.90964
-2.97506
-3.03806
-3.09877
-3.15729
-3.21364
-3.26783
-3.31984
-3.36965
-3.41723
-3.46256
-3.50562
-3.54639
-3.58483
-3.62093
-3.65467
-3.68603
-3.71499
-3.74153
-3.76565
-3.78732
-3.80654
-3.82331
-3.83762
-3.84946
-3.85885
-2.51405
-2.60219
-2.68281
-2.7532
-2.8194
-2.88271
-2.94351
-3.00202
-3.05833
-3.11248
-3.16447
-3.2143
-3.26195
-3.30741
-3.35065
-3.39167
-3.43044
-3.46694
-3.50116
-3.53308
-3.56269
-3.58997
-3.61491
-3.63751
-3.65774
-3.67561
-3.69111
-3.70425
-3.71501
-3.72342
-0.349206
-0.391117
-0.436291
-0.48495
-0.537601
-0.59474
-0.656901
-0.72471
-0.798901
-0.880332
-0.970004
-1.06909
-1.17895
-1.30118
-1.43766
-1.59053
-1.7623
-1.95586
-2.17452
-2.42201
-2.70255
-3.02075
-3.38162
-3.79033
-4.2523
-4.77303
-5.35356
-5.98728
-6.72738
-7.68028
-0.418161
-0.462461
-0.50929
-0.559806
-0.614509
-0.673811
-0.738246
-0.808456
-0.885188
-0.969311
-1.06184
-1.16395
-1.27703
-1.40269
-1.5428
-1.69956
-1.87547
-2.07345
-2.29681
-2.54931
-2.83515
-3.15894
-3.52565
-3.94041
-4.40852
-4.93534
-5.52167
-6.16045
-6.90367
-7.85571
-0.487942
-0.534674
-0.583182
-0.635588
-0.692381
-0.753885
-0.820634
-0.893289
-0.972607
-1.05947
-1.1549
-1.26009
-1.37644
-1.50559
-1.64941
-1.81012
-1.99025
-2.19271
-2.42085
-2.67842
-2.96963
-3.29908
-3.67169
-4.09253
-4.56677
-5.09959
-5.6915
-6.3349
-7.08053
-8.03093
-0.558492
-0.607695
-0.657907
-0.712234
-0.771151
-0.834893
-0.903993
-0.97913
-1.06107
-1.15072
-1.24909
-1.35741
-1.47709
-1.60976
-1.75735
-1.92206
-2.10645
-2.31346
-2.54643
-2.80913
-3.10576
-3.44091
-3.81946
-4.24639
-4.72676
-5.26553
-5.86295
-6.51102
-7.2597
-8.21048
-0.629764
-0.681473
-0.733411
-0.789691
-0.850766
-0.91678
-0.988267
-1.06592
-1.15053
-1.243
-1.34436
-1.45585
-1.5789
-1.71515
-1.86655
-2.03531
-2.22402
-2.43563
-2.67348
-2.94137
-3.24346
-3.58435
-3.96886
-4.40191
-4.88842
-5.43316
-6.03611
-6.68893
-7.44109
-8.39338
-0.701709
-0.755954
-0.809638
-0.8679
-0.931167
-0.999486
-1.07339
-1.15361
-1.24092
-1.33624
-1.44063
-1.55534
-1.6818
-1.82168
-1.97693
-2.1498
-2.34288
-2.55914
-2.80193
-3.07504
-3.38265
-3.72932
-4.11983
-4.55902
-5.05169
-5.60243
-6.21094
-6.86858
-7.62439
-8.5787
-0.774277
-0.831081
-0.886531
-0.946804
-1.01229
-1.08295
-1.15931
-1.24211
-1.33216
-1.43038
-1.53784
-1.6558
-1.78571
-1.92926
-2.08842
-2.26544
-2.46294
-2.68388
-2.93166
-3.21004
-3.52322
-3.87571
-4.27226
-4.71762
-5.21648
-5.77323
-6.38734
-7.04984
-7.80943
-8.76604
-0.847419
-0.906801
-0.964031
-1.02634
-1.09409
-1.16711
-1.24596
-1.33138
-1.4242
-1.52535
-1.63591
-1.75716
-1.89056
-2.03782
-2.20092
-2.38214
-2.58409
-2.80978
-3.06258
-3.34628
-3.66506
-4.02341
-4.42603
-4.87759
-5.38265
-5.94545
-6.56519
-7.2326
-7.99604
-8.95515
-0.921087
-0.983059
-1.04208
-1.10646
-1.17649
-1.2519
-1.33326
-1.42134
-1.51695
-1.62106
-1.73477
-1.85934
-1.99627
-2.14727
-2.31435
-2.4998
-2.70626
-2.93672
-3.19459
-3.48364
-3.80806
-4.1723
-4.58102
-5.0388
-5.55009
-6.11894
-6.74433
-7.41669
-8.18404
-9.14574
-0.995233
-1.0598
-1.12063
-1.1871
-1.25943
-1.33727
-1.42117
-1.51192
-1.61037
-1.71746
-1.83433
-1.96226
-2.10275
-2.25753
-2.42863
-2.61834
-2.82933
-3.06461
-3.32757
-3.62202
-3.9521
-4.32226
-4.7371
-5.20113
-5.71866
-6.29357
-6.92462
-7.60193
-8.37322
-9.33757
-1.06981
-1.13698
-1.19963
-1.26821
-1.34287
-1.42316
-1.50961
-1.60306
-1.70436
-1.81448
-1.93453
-2.06584
-2.20991
-2.36851
-2.54365
-2.73766
-2.95321
-3.19334
-3.46144
-3.7613
-4.09708
-4.47318
-4.89416
-5.36443
-5.8882
-6.46919
-7.10589
-7.78816
-8.56338
-9.53041
-1.14479
-1.21455
-1.27901
-1.34973
-1.42675
-1.50949
-1.59853
-1.6947
-1.79887
-1.91202
-2.03529
-2.17
-2.31769
-2.48011
-2.65932
-2.85766
-3.07781
-3.3228
-3.59606
-3.90137
-4.24285
-4.62491
-5.05204
-5.52857
-6.05859
-6.64563
-7.28797
-7.97517
-8.75432
-9.72404
-1.22012
-1.29246
-1.35874
-1.43161
-1.511
-1.59623
-1.68786
-1.78677
-1.89383
-2.01003
-2.13653
-2.27466
-2.42597
-2.59225
-2.77555
-2.97824
-3.203
-3.45289
-3.73132
-4.04209
-4.38931
-4.77734
-5.21062
-5.6934
-6.22965
-6.82273
-7.47069
-8.16279
-8.94584
-9.91824
-1.29577
-1.37067
-1.43877
-1.51381
-1.59559
-1.6833
-1.77755
-1.8792
-1.98916
-2.10842
-2.23816
-2.37973
-2.53469
-2.70484
-2.89225
-3.09929
-3.32868
-3.58348
-3.86711
-4.18335
-4.53631
-4.93031
-5.36974
-5.85877
-6.40123
-7.00031
-7.65386
-8.35082
-9.13774
-10.1128
-1.37172
-1.44916
-1.51905
-1.59628
-1.68045
-1.77066
-1.86752
-1.97192
-2.08479
-2.20712
-2.34012
-2.48513
-2.64374
-2.81776
-3.00929
-3.22071
-3.45474
-3.71446
-4.00329
-4.32501
-4.68371
-5.08368
-5.52926
-6.02452
-6.57316
-7.17822
-7.8373
-8.53908
-9.32981
-10.3075
-1.44795
-1.52788
-1.59956
-1.67897
-1.76554
-1.85825
-1.95772
-2.06487
-2.18064
-2.30605
-2.4423
-2.59076
-2.75302
-2.93093
-3.12658
-3.34238
-3.58106
-3.84571
-4.13974
-4.46695
-4.83138
-5.23732
-5.68902
-6.19048
-6.74527
-7.35626
-8.02082
-8.72735
-9.52185
-10.5022
-1.52444
-1.60681
-1.68026
-1.76184
-1.85081
-1.94601
-2.04808
-2.15798
-2.27665
-2.40513
-2.54462
-2.69652
-2.86244
-3.04423
-3.24401
-3.46419
-3.70752
-3.97709
-4.27633
-4.60901
-4.97918
-5.39106
-5.84886
-6.35649
-6.91739
-7.53425
-8.20423
-8.91545
-9.71367
-10.6966
-1.60121
-1.68595
-1.76112
-1.84487
-1.93621
-2.03388
-2.13854
-2.25117
-2.37272
-2.50425
-2.64698
-2.80232
-2.97189
-3.15756
-3.36146
-3.58602
-3.834
-4.10848
-4.41292
-4.75107
-5.12695
-5.54476
-6.00863
-6.52238
-7.08934
-7.71201
-8.38735
-9.10318
-9.90505
-10.8906
-1.67826
-1.76528
-1.84211
-1.928
-2.02169
-2.1218
-2.22901
-2.34435
-2.46876
-2.60333
-2.74928
-2.90804
-3.08125
-3.27079
-3.4788
-3.70773
-3.96034
-4.23974
-4.54937
-4.89297
-5.27454
-5.69824
-6.16815
-6.68799
-7.26094
-7.88936
-8.56997
-9.29034
-10.0958
-11.0839
-1.75562
-1.8448
-1.92322
-2.0112
-2.10718
-2.20969
-2.31942
-2.43743
-2.56468
-2.70225
-2.8514
-3.01356
-3.1904
-3.38379
-3.5959
-3.82919
-4.08643
-4.37073
-4.68552
-5.03455
-5.4218
-5.85136