/*--------------------------------*- C++ -*----------------------------------*\
  =========                 |
  \\      /  F ield         | OpenFOAM: The Open Source CFD Toolbox
   \\    /   O peration     | Website:  https://openfoam.org
    \\  /    A nd           | Version:  6.0
     \\/     M anipulation  |
\*---------------------------------------------------------------------------*/
FoamFile
{
    version     2.0;
    format      ascii;
    class       volVectorField;
    location    "12.0015";
    object      U;
}
// * * * * * * * * * * * * * * * * * * * * * * * * * * * * * * * * * * * * * //

dimensions      [0 1 -1 0 0 0 0];

internalField   nonuniform List<vector> 
19200
(
(0.0984495 -4.74328 -6.40152e-21)
(0.0605442 -4.32759 3.22536e-21)
(0.0663335 -3.98685 1.49429e-21)
(0.0810794 -3.7079 1.31564e-21)
(0.0986337 -3.47916 1.47001e-21)
(0.120473 -3.29086 1.08354e-22)
(0.14601 -3.13503 2.08667e-21)
(0.174318 -3.00519 -1.3603e-22)
(0.204692 -2.89613 1.8367e-21)
(0.236536 -2.80364 7.76441e-22)
(0.269326 -2.72437 1.51328e-23)
(0.302613 -2.65561 1.23141e-21)
(0.336021 -2.5952 2.01206e-21)
(0.369237 -2.54143 -1.36367e-21)
(0.402004 -2.49292 1.77353e-21)
(0.434115 -2.44855 1.53383e-21)
(0.465406 -2.40747 -1.43511e-21)
(0.49575 -2.36895 2.46635e-21)
(0.525054 -2.33246 -1.5588e-21)
(0.553248 -2.29753 7.96096e-22)
(0.58029 -2.26382 1.10926e-21)
(0.606153 -2.23102 -3.47074e-22)
(0.630828 -2.1989 4.72358e-22)
(0.654318 -2.16726 -5.47933e-22)
(0.676635 -2.13592 -1.46902e-24)
(0.697796 -2.10471 2.94394e-22)
(0.717823 -2.07348 -1.8427e-22)
(0.736738 -2.04207 1.24578e-22)
(0.754573 -2.0103 2.67927e-22)
(0.771332 -1.97797 1.09945e-21)
(0.222891 -4.74072 -1.49743e-21)
(0.174778 -4.33129 1.00396e-20)
(0.172365 -3.99582 -5.28405e-21)
(0.180647 -3.72171 -7.18908e-21)
(0.193134 -3.49743 -3.22679e-21)
(0.210985 -3.31308 -2.33621e-21)
(0.233359 -3.16065 -5.04356e-21)
(0.259128 -3.0337 6.33102e-22)
(0.287434 -2.92701 -1.10282e-21)
(0.317554 -2.83643 -3.80993e-21)
(0.34887 -2.75863 -9.55144e-21)
(0.380858 -2.69096 4.6889e-21)
(0.413083 -2.63129 -1.7224e-21)
(0.445191 -2.57794 6.56648e-22)
(0.47689 -2.52957 -4.09063e-21)
(0.507951 -2.48511 -1.51499e-21)
(0.53819 -2.44373 1.75232e-22)
(0.567471 -2.40475 5.17726e-21)
(0.59569 -2.36764 -2.7236e-21)
(0.622776 -2.33198 -1.52176e-21)
(0.648681 -2.29743 -5.92417e-21)
(0.673381 -2.26372 1.52559e-21)
(0.696865 -2.23063 -9.75928e-22)
(0.71914 -2.19798 1.71036e-21)
(0.740219 -2.16559 -7.71293e-22)
(0.760124 -2.13331 -1.20266e-21)
(0.778875 -2.10099 4.01262e-22)
(0.796503 -2.06847 5.89652e-22)
(0.813059 -2.03557 -1.08484e-21)
(0.828515 -2.00207 5.67618e-22)
(0.347011 -4.7353 -7.44959e-22)
(0.288976 -4.33244 2.35534e-21)
(0.278755 -4.00251 3.36705e-21)
(0.280907 -3.73349 2.5574e-20)
(0.288594 -3.51385 -1.47963e-20)
(0.302673 -3.33357 1.36642e-20)
(0.322056 -3.18463 8.39642e-21)
(0.345424 -3.06059 6.51301e-21)
(0.371763 -2.95629 -6.35397e-21)
(0.400232 -2.8676 -7.42663e-22)
(0.430118 -2.79124 1.61444e-20)
(0.460827 -2.72459 2.71969e-21)
(0.491871 -2.6656 -7.40523e-21)
(0.522852 -2.61261 5.92676e-21)
(0.553451 -2.56432 -7.61116e-23)
(0.583414 -2.51971 2.54467e-21)
(0.612546 -2.47797 1.92395e-21)
(0.640697 -2.43847 6.27782e-21)
(0.66776 -2.40069 -2.81815e-21)
(0.69366 -2.36425 -9.38846e-22)
(0.718348 -2.32883 -2.46111e-21)
(0.741801 -2.29418 1.07484e-20)
(0.764013 -2.2601 -8.94899e-21)
(0.78499 -2.22642 2.99671e-21)
(0.80475 -2.19297 1.32464e-21)
(0.823317 -2.15963 -5.37435e-21)
(0.840714 -2.12623 7.23082e-21)
(0.856979 -2.09262 -8.25111e-22)
(0.872182 -2.05861 -8.25134e-22)
(0.886258 -2.02397 -5.78948e-21)
(0.470968 -4.72691 -2.43397e-20)
(0.403295 -4.33104 -2.21508e-20)
(0.385567 -4.00696 -2.72314e-20)
(0.381875 -3.74325 1.03673e-21)
(0.385011 -3.5284 1.59223e-21)
(0.395525 -3.35229 -3.09692e-20)
(0.412088 -3.20689 1.37179e-21)
(0.433186 -3.08578 3.96967e-21)
(0.457655 -2.98385 -6.85408e-22)
(0.484538 -2.89702 6.9951e-21)
(0.513034 -2.82206 -2.82339e-20)
(0.542479 -2.7564 -1.78314e-20)
(0.572335 -2.69802 6.64806e-21)
(0.602165 -2.64532 1.33622e-20)
(0.631623 -2.59706 -1.56776e-20)
(0.660438 -2.55223 -2.52465e-21)
(0.688399 -2.51008 -9.31697e-21)
(0.715351 -2.47 -4.48927e-21)
(0.741182 -2.43151 7.4358e-21)
(0.765815 -2.39424 -9.63783e-21)
(0.789204 -2.35792 8.27778e-21)
(0.811327 -2.32231 -9.91521e-21)
(0.832182 -2.28722 -7.88725e-21)
(0.851779 -2.25249 -5.54279e-21)
(0.870139 -2.21799 -1.69977e-21)
(0.887291 -2.18358 -1.15524e-20)
(0.903259 -2.14912 1.17211e-21)
(0.918087 -2.11445 2.07392e-21)
(0.931867 -2.07937 -5.99899e-21)
(0.94449 -2.04366 1.29572e-21)
(0.594731 -4.71547 -1.48728e-20)
(0.517743 -4.32704 2.08386e-21)
(0.492806 -4.00911 1.91821e-20)
(0.483546 -3.75093 2.03655e-20)
(0.482375 -3.54102 1.45366e-20)
(0.489529 -3.36917 5.95629e-21)
(0.503435 -3.22734 9.37909e-21)
(0.522388 -3.10918 4.36588e-20)
(0.545079 -3.0096 -2.62762e-20)
(0.570438 -2.92459 7.15645e-22)
(0.597575 -2.85097 6.36859e-21)
(0.625764 -2.78624 2.78973e-20)
(0.654418 -2.72841 -1.92637e-20)
(0.683067 -2.67595 1.39599e-20)
(0.711339 -2.62765 -1.57085e-20)
(0.738947 -2.58255 2.6833e-20)
(0.76567 -2.53993 -8.08141e-21)
(0.791348 -2.49922 2.50453e-22)
(0.815867 -2.45998 1.31104e-20)
(0.839151 -2.42186 9.10951e-21)
(0.861157 -2.3846 -9.39664e-21)
(0.881866 -2.348 1.27389e-20)
(0.901279 -2.31189 -5.8934e-21)
(0.919415 -2.27612 6.73035e-21)
(0.936297 -2.24058 8.90763e-21)
(0.951957 -2.20512 3.23772e-21)
(0.966424 -2.16962 9.92572e-21)
(0.979748 -2.13392 -3.51623e-21)
(0.99204 -2.09781 -1.30772e-21)
(1.00314 -2.06107 -5.93388e-21)
(0.718236 -4.70097 -1.09973e-20)
(0.632291 -4.32042 -7.39833e-21)
(0.600456 -4.00895 -2.22594e-20)
(0.585906 -3.7565 -5.77672e-20)
(0.580669 -3.55165 1.96021e-20)
(0.584664 -3.38412 1.24183e-21)
(0.596071 -3.2459 -1.34988e-20)
(0.613001 -3.13067 2.91899e-21)
(0.633999 -3.03343 -1.85617e-21)
(0.657886 -2.9502 -3.54143e-20)
(0.68369 -2.87787 1.50765e-20)
(0.710624 -2.814 2.61021e-20)
(0.738056 -2.75666 1.8263e-22)
(0.765486 -2.70438 9.89356e-21)
(0.792521 -2.65597 2.44947e-20)
(0.818859 -2.61055 -1.68516e-20)
(0.844273 -2.56741 3.0014e-20)
(0.868599 -2.52603 -1.42682e-20)
(0.891724 -2.48599 2.58461e-20)
(0.913574 -2.44699 -1.92812e-20)
(0.934111 -2.40878 8.76743e-21)
(0.953321 -2.37118 2.30118e-20)
(0.971211 -2.33405 1.31481e-21)
(0.987804 -2.29724 -2.12146e-20)
(1.00313 -2.26066 1.20887e-20)
(1.01723 -2.22418 1.48397e-21)
(1.03013 -2.18767 -3.7773e-21)
(1.04188 -2.15098 1.48255e-20)
(1.05263 -2.1139 5.12478e-21)
(1.06215 -2.0762 -5.20963e-21)
(0.841414 -4.6834 3.06277e-20)
(0.746895 -4.31116 -1.37097e-21)
(0.708485 -4.00643 -4.61133e-20)
(0.68893 -3.75989 9.15701e-21)
(0.679869 -3.56021 -1.30749e-20)
(0.680902 -3.39706 9.55524e-21)
(0.689966 -3.26246 2.16907e-20)
(0.704987 -3.15016 3.9636e-20)
(0.724371 -3.05521 -4.32052e-20)
(0.746832 -2.97371 1.06747e-20)
(0.771321 -2.90262 -7.56665e-21)
(0.796994 -2.83955 5.67145e-21)
(0.823179 -2.78265 -2.48244e-20)
(0.849346 -2.73047 -1.43027e-21)
(0.875086 -2.68191 4.12259e-20)
(0.900086 -2.63611 -2.83832e-20)
(0.924116 -2.59241 -1.79229e-20)
(0.947009 -2.55032 -1.31807e-20)
(0.968655 -2.50946 2.45461e-20)
(0.988986 -2.46955 5.35188e-21)
(1.00797 -2.43037 -2.41006e-20)
(1.02559 -2.39177 3.26024e-20)
(1.04188 -2.35362 -2.93133e-20)
(1.05685 -2.31579 1.97123e-20)
(1.07055 -2.27819 -1.10273e-20)
(1.08301 -2.24072 7.3743e-21)
(1.09428 -2.20324 5.48727e-21)
(1.10441 -2.16561 -2.42895e-20)
(1.11355 -2.1276 1.06176e-20)
(1.12145 -2.08901 2.67009e-22)
(0.964195 -4.66276 -3.06276e-20)
(0.861507 -4.29922 2.57185e-20)
(0.816859 -4.0015 -4.79617e-20)
(0.792586 -3.76104 9.20029e-20)
(0.779944 -3.56663 -2.59841e-20)
(0.778209 -3.40791 3.73496e-20)
(0.785081 -3.27694 1.20583e-22)
(0.798303 -3.16754 -4.99619e-21)
(0.816144 -3.07484 -7.87091e-21)
(0.837219 -2.99503 -1.5824e-22)
(0.860405 -2.92511 -3.08516e-20)
(0.884803 -2.86278 1.59282e-20)
(0.909707 -2.80625 -1.97017e-20)
(0.934563 -2.75412 -1.5486e-21)
(0.958946 -2.70535 -5.60778e-20)
(0.982537 -2.65912 1.83076e-20)
(1.0051 -2.61482 1.09254e-20)
(1.02648 -2.57199 -1.21301e-20)
(1.04656 -2.53028 -1.39474e-21)
(1.06528 -2.48945 -1.92756e-20)
(1.08263 -2.44931 -6.99588e-21)
(1.09859 -2.40971 6.78818e-22)
(1.11319 -2.37054 -1.71209e-20)
(1.12646 -2.33171 -2.5392e-20)
(1.13846 -2.29313 1.0415e-21)
(1.14923 -2.25469 -2.69496e-21)
(1.1588 -2.21629 8.11448e-21)
(1.16725 -2.17777 -2.01088e-20)
(1.17475 -2.1389 1.7146e-20)
(1.18097 -2.09949 -3.47771e-20)
(1.0865 -4.63905 -7.77685e-20)
(0.976073 -4.2846 9.64218e-20)
(0.925535 -3.99412 -1.02836e-19)
(0.896838 -3.7599 -2.75542e-20)
(0.880857 -3.57085 -1.82038e-20)
(0.876548 -3.41658 -1.95839e-20)
(0.881373 -3.28923 -1.81062e-20)
(0.892899 -3.18271 -3.90539e-21)
(0.909263 -3.09222 -1.8483e-20)
(0.928984 -3.01402 -4.70912e-21)
(0.950869 -2.94522 3.22686e-20)
(0.973974 -2.88357 -1.86214e-20)
(0.997558 -2.82735 -2.27817e-20)
(1.02105 -2.77522 -3.86009e-20)
(1.04401 -2.72619 8.15093e-20)
(1.06611 -2.67949 -3.18397e-20)
(1.08713 -2.63455 1.18872e-20)
(1.10691 -2.59095 -4.46679e-20)
(1.12534 -2.54839 1.69708e-20)
(1.14237 -2.50663 -7.24191e-21)
(1.15798 -2.46551 8.88208e-21)
(1.17219 -2.42492 -3.44048e-21)
(1.18503 -2.38476 2.9098e-20)
(1.19654 -2.34496 -1.04488e-20)
(1.20677 -2.30542 2.85131e-20)
(1.21578 -2.26607 -5.34611e-21)
(1.2236 -2.2268 3.75053e-20)
(1.23033 -2.18745 1.0315e-20)
(1.23614 -2.14779 1.96165e-20)
(1.24065 -2.10763 -6.37379e-20)
(1.20827 -4.61229 1.23453e-19)
(1.09054 -4.26725 -2.44564e-20)
(1.03447 -3.98425 4.35355e-20)
(1.00164 -3.7564 -1.29526e-20)
(0.982567 -3.57277 4.51813e-20)
(0.975873 -3.42298 4.33341e-20)
(0.978791 -3.29924 4.99441e-20)
(0.988717 -3.19556 -4.30301e-21)
(1.00366 -3.10723 -4.87036e-20)
(1.02205 -3.03059 7.19558e-20)
(1.04264 -2.96284 -5.82699e-21)
(1.06442 -2.90181 5.23716e-20)
(1.08664 -2.84583 1.91244e-20)
(1.1087 -2.79365 6.94987e-21)
(1.13017 -2.74432 1.20218e-20)
(1.15071 -2.69711 1.58246e-20)
(1.1701 -2.65151 2.68713e-20)
(1.18818 -2.60712 -7.78477e-21)
(1.20487 -2.56369 4.00236e-20)
(1.22012 -2.521 1.87432e-20)
(1.23393 -2.47892 -3.9362e-20)
(1.24631 -2.43736 6.98594e-20)
(1.25731 -2.39624 -9.29143e-20)
(1.26698 -2.35549 8.88018e-20)
(1.27538 -2.31505 -2.95263e-20)
(1.28257 -2.27484 5.60186e-21)
(1.2886 -2.23475 -3.94008e-20)
(1.29356 -2.19463 2.1993e-20)
(1.29765 -2.15425 8.05283e-21)
(1.30041 -2.11344 -1.02147e-20)
(1.32942 -4.58247 -7.19242e-20)
(1.20484 -4.24717 7.24925e-20)
(1.1436 -3.97186 -1.98908e-20)
(1.10695 -3.75049 5.79303e-20)
(1.08502 -3.57234 5.44716e-21)
(1.07613 -3.42703 1.30234e-20)
(1.07728 -3.30688 -1.01771e-19)
(1.0857 -3.20599 -1.77335e-20)
(1.09927 -3.11976 6.70678e-20)
(1.11636 -3.04463 5.24645e-20)
(1.13563 -2.97787 -8.94108e-20)
(1.15606 -2.91739 5.28353e-20)
(1.17686 -2.86161 -5.32964e-20)
(1.19743 -2.80932 3.767e-20)
(1.21733 -2.75964 -6.25088e-20)
(1.23622 -2.7119 -4.73702e-20)
(1.25389 -2.66561 2.93854e-21)
(1.2702 -2.62043 -2.224e-20)
(1.28506 -2.57612 3.98877e-20)
(1.29845 -2.53251 1.56968e-20)
(1.31036 -2.48949 -1.04572e-20)
(1.32083 -2.44698 -3.26306e-21)
(1.32992 -2.40493 1.25791e-20)
(1.33769 -2.36328 -4.18225e-20)
(1.3442 -2.32198 7.11007e-20)
(1.34953 -2.28096 -1.72296e-20)
(1.35372 -2.24012 -1.41303e-21)
(1.35688 -2.19931 6.29467e-20)
(1.35921 -2.15828 8.56696e-21)
(1.36021 -2.1169 -9.03872e-21)
(1.44987 -4.5496 1.74174e-21)
(1.31892 -4.22434 -4.03691e-20)
(1.25289 -3.95689 -3.8269e-20)
(1.21272 -3.74211 -6.22824e-20)
(1.18818 -3.56947 1.53116e-21)
(1.17727 -3.42865 -4.60372e-20)
(1.17677 -3.31205 5.48529e-20)
(1.18377 -3.2139 -4.66917e-21)
(1.19602 -3.12971 4.65475e-20)
(1.2118 -3.05601 -3.78603e-20)
(1.22975 -2.99018 -2.02167e-20)
(1.24879 -2.9302 1.10439e-20)
(1.26812 -2.87456 6.00583e-21)
(1.28713 -2.82213 -6.30221e-20)
(1.30537 -2.77207 3.77241e-20)
(1.32254 -2.72376 -1.93716e-20)
(1.33841 -2.67678 5.42812e-20)
(1.35285 -2.6308 -1.81514e-20)
(1.36579 -2.58562 1.94116e-20)
(1.37723 -2.54111 4.61274e-21)
(1.38716 -2.49717 3.30383e-20)
(1.39566 -2.45375 -6.80432e-21)
(1.40277 -2.41081 5.49539e-20)
(1.40857 -2.36831 -6.10627e-20)
(1.41314 -2.3262 -2.06149e-20)
(1.41655 -2.28444 1.71662e-20)
(1.41887 -2.24292 -1.40087e-21)
(1.42019 -2.20149 -3.03047e-20)
(1.42075 -2.1599 2.48683e-20)
(1.41997 -2.11803 -3.01e-20)
(1.56956 -4.5137 1.2409e-19)
(1.43271 -4.19874 3.56332e-20)
(1.36227 -3.93931 4.16108e-20)
(1.31889 -3.7312 5.80603e-20)
(1.29197 -3.56409 8.7e-20)
(1.27922 -3.42774 -2.00138e-21)
(1.27721 -3.31466 1.25067e-20)
(1.28285 -3.21919 1.01955e-19)
(1.29382 -3.13698 -2.07462e-20)
(1.30831 -3.06466 -3.79176e-20)
(1.3249 -2.99969 6.87018e-20)
(1.34251 -2.94015 1.20045e-20)
(1.3603 -2.8846 1.01173e-21)
(1.37768 -2.83199 1.67637e-20)
(1.3942 -2.78152 3.09772e-20)
(1.40954 -2.73263 -6.43814e-20)
(1.42352 -2.68494 5.52624e-20)
(1.43601 -2.63817 9.73806e-21)
(1.44695 -2.59214 5.50662e-20)
(1.45635 -2.54674 -2.9567e-20)
(1.46424 -2.50192 5.014e-20)
(1.47067 -2.45762 -5.32321e-20)
(1.47574 -2.41384 5.22004e-20)
(1.47951 -2.37054 7.33282e-21)
(1.48209 -2.3277 -3.50639e-20)
(1.48356 -2.28526 -1.16147e-20)
(1.48396 -2.24314 6.87488e-20)
(1.48343 -2.20117 5.0264e-20)
(1.4822 -2.1591 1.36033e-20)
(1.47963 -2.11685 -9.61611e-21)
(1.6884 -4.47477 1.34023e-20)
(1.54616 -4.17035 3.13725e-20)
(1.47169 -3.91908 1.25629e-19)
(1.42539 -3.71769 -2.05917e-19)
(1.39634 -3.55614 -2.05631e-20)
(1.38192 -3.42422 -2.19885e-20)
(1.37851 -3.31461 1.03031e-20)
(1.38288 -3.22177 1.49132e-20)
(1.39259 -3.14147 2.38412e-20)
(1.40578 -3.07045 -6.34783e-20)
(1.42099 -3.00629 -1.28263e-20)
(1.43711 -2.94714 3.72917e-20)
(1.45331 -2.89165 4.07679e-20)
(1.46898 -2.83881 -4.01657e-20)
(1.48368 -2.78791 -4.02558e-20)
(1.49712 -2.73844 6.59722e-20)
(1.50912 -2.69004 4.40222e-20)
(1.51956 -2.64248 -1.06786e-20)
(1.52842 -2.59562 -2.81266e-20)
(1.5357 -2.54938 5.64898e-21)
(1.54146 -2.5037 -6.66704e-20)
(1.54578 -2.45858 8.151e-20)
(1.54873 -2.41401 -5.58421e-20)
(1.55043 -2.36998 -2.38467e-21)
(1.55098 -2.32647 3.7736e-20)
(1.55045 -2.28343 -1.15822e-20)
(1.54891 -2.24078 -3.53405e-20)
(1.54651 -2.19837 4.38709e-20)
(1.54348 -2.1559 -1.04738e-21)
(1.53912 -2.11336 8.03264e-21)
(1.80633 -4.43282 -9.08449e-21)
(1.65919 -4.13915 -3.17247e-20)
(1.58108 -3.89616 -1.46263e-19)
(1.53217 -3.70155 5.30876e-20)
(1.50121 -3.54554 -1.63586e-20)
(1.4853 -3.41802 5.53329e-20)
(1.4806 -3.31182 4.46782e-21)
(1.48375 -3.22154 -6.43496e-20)
(1.49223 -3.14308 9.96787e-20)
(1.50411 -3.07331 -9.0361e-20)
(1.5179 -3.00989 -3.84135e-21)
(1.53248 -2.95108 2.28869e-20)
(1.54702 -2.8956 -3.89633e-20)
(1.5609 -2.84252 4.58815e-20)
(1.57371 -2.79118 -8.72967e-20)
(1.58516 -2.74112 -2.00653e-20)
(1.59508 -2.69202 5.41317e-20)
(1.6034 -2.6437 3.15548e-22)
(1.61008 -2.59603 -3.46909e-20)
(1.61517 -2.54897 9.5616e-20)
(1.61874 -2.5025 -5.1605e-20)
(1.62086 -2.4566 -6.95175e-20)
(1.62165 -2.41131 2.32021e-20)
(1.62122 -2.36661 -6.8453e-20)
(1.61969 -2.3225 -1.66262e-20)
(1.61714 -2.27894 -2.06986e-21)
(1.61364 -2.23585 -4.55655e-20)
(1.60935 -2.19308 5.46509e-20)
(1.60452 -2.15032 -3.04564e-20)
(1.59837 -2.10759 3.59291e-20)
(1.92326 -4.38789 -4.63936e-20)
(1.77173 -4.10514 -1.31628e-19)
(1.69037 -3.87052 6.44029e-20)
(1.63916 -3.68271 -6.28141e-20)
(1.60652 -3.53222 -4.57739e-20)
(1.58927 -3.40906 -2.69749e-20)
(1.58338 -3.3062 -1.01174e-19)
(1.58537 -3.21842 6.95811e-20)
(1.59264 -3.14173 -1.7394e-19)
(1.6032 -3.07314 -6.44366e-20)
(1.61553 -3.01041 2.30629e-20)
(1.62852 -2.9519 3.91907e-20)
(1.64131 -2.8964 -6.07016e-22)
(1.65333 -2.84306 -7.62128e-20)
(1.66415 -2.79126 1.8107e-20)
(1.67352 -2.74061 -7.12578e-20)
(1.68129 -2.69083 -5.15187e-20)
(1.68739 -2.64177 -3.13229e-20)
(1.69183 -2.59334 -6.21806e-21)
(1.69465 -2.54551 5.41329e-20)
(1.69594 -2.49828 7.77438e-20)
(1.69582 -2.45168 -2.35136e-20)
(1.69439 -2.40572 -2.31994e-20)
(1.69179 -2.36043 4.4777e-20)
(1.68813 -2.31581 2.47693e-20)
(1.68353 -2.27181 -1.99091e-20)
(1.67806 -2.22837 -2.24708e-20)
(1.67187 -2.18533 2.61643e-21)
(1.66525 -2.14237 2.32961e-20)
(1.65732 -2.09956 3.2141e-20)
(2.03912 -4.33997 -8.67534e-21)
(1.88372 -4.06829 1.69328e-19)
(1.7995 -3.84212 1.31971e-19)
(1.74629 -3.66112 1.0287e-19)
(1.71219 -3.51612 -6.7682e-20)
(1.69376 -3.39726 -1.35075e-20)
(1.68678 -3.29768 1.18851e-20)
(1.68766 -3.21231 8.97483e-20)
(1.69371 -3.13733 3.39043e-20)
(1.70293 -3.06986 8.31197e-20)
(1.71376 -3.00777 -1.17951e-19)
(1.72509 -2.94951 1.18121e-20)
(1.73607 -2.89396 4.87078e-20)
(1.74614 -2.84034 3.06488e-20)
(1.75489 -2.7881 6.41123e-20)
(1.76209 -2.73687 -4.40058e-20)
(1.76762 -2.68643 -4.10131e-20)
(1.77142 -2.63666 7.6746e-21)
(1.77353 -2.58751 8.94393e-20)
(1.77402 -2.53896 -1.44584e-19)
(1.77298 -2.49104 5.06287e-20)
(1.77054 -2.44379 -2.8891e-22)
(1.76684 -2.39725 9.71336e-20)
(1.76202 -2.35144 -4.19855e-20)
(1.75622 -2.30638 -2.3387e-21)
(1.74954 -2.26203 -2.72543e-20)
(1.74208 -2.21834 2.59892e-20)
(1.73399 -2.17513 6.36483e-21)
(1.72558 -2.13207 -2.9021e-20)
(1.7159 -2.08928 9.88175e-20)
(2.15384 -4.28909 -1.72752e-19)
(1.99509 -4.02861 -1.0354e-19)
(1.9084 -3.81092 -2.66791e-19)
(1.85347 -3.63673 -1.22936e-19)
(1.81815 -3.49718 1.15666e-19)
(1.79868 -3.38255 -6.88576e-20)
(1.7907 -3.28617 -1.76993e-20)
(1.7905 -3.20315 -4.64843e-20)
(1.79535 -3.1298 8.03327e-20)
(1.80319 -3.06338 -1.90854e-20)
(1.81248 -3.00188 -2.98751e-20)
(1.82207 -2.94385 -3.62007e-21)
(1.83117 -2.88824 -1.22697e-19)
(1.8392 -2.83433 -5.32319e-21)
(1.8458 -2.78164 3.28184e-20)
(1.85075 -2.72985 -4.14583e-21)
(1.85395 -2.67879 -1.30601e-19)
(1.85538 -2.62835 1.279e-19)
(1.85509 -2.57852 -1.26639e-19)
(1.85316 -2.52931 4.98174e-20)
(1.84972 -2.48076 7.12884e-21)
(1.84492 -2.43294 2.70377e-21)
(1.83891 -2.38588 -5.35481e-20)
(1.83183 -2.33964 1.83146e-20)
(1.82385 -2.29423 -8.14224e-23)
(1.81508 -2.24963 6.10334e-21)
(1.80561 -2.20578 -1.36256e-19)
(1.79563 -2.16251 3.70465e-20)
(1.78544 -2.11945 3.98503e-20)
(1.77403 -2.0768 4.46889e-20)
(2.26734 -4.23527 3.39479e-19)
(2.10575 -3.98609 1.19778e-19)
(2.01699 -3.77691 7.11292e-20)
(1.96065 -3.6095 1.1316e-19)
(1.9243 -3.47533 -1.39752e-20)
(1.90393 -3.36486 8.74134e-20)
(1.89503 -3.2716 1.95759e-19)
(1.89379 -3.19084 -2.46486e-20)
(1.89743 -3.11906 1.21115e-20)
(1.90387 -3.05364 2.38194e-19)
(1.91155 -2.99269 -3.16288e-20)
(1.91935 -2.93485 3.42343e-20)
(1.92648 -2.87916 -1.27491e-20)
(1.93239 -2.82497 -1.51239e-21)
(1.93675 -2.77185 1.79621e-19)
(1.93937 -2.71953 6.88658e-21)
(1.94016 -2.66787 1.94045e-19)
(1.93914 -2.61682 -2.41595e-20)
(1.93637 -2.56636 -4.26824e-20)
(1.93197 -2.51655 1.00122e-19)
(1.92608 -2.46745 -9.17551e-20)
(1.91886 -2.41912 1.01354e-19)
(1.91049 -2.37163 5.49762e-20)
(1.90112 -2.32504 -4.45895e-20)
(1.89093 -2.27936 6.8502e-20)
(1.88005 -2.2346 8.2656e-21)
(1.86857 -2.1907 -2.89194e-20)
(1.85669 -2.14747 1.57171e-20)
(1.84475 -2.10453 1.03769e-19)
(1.83164 -2.06212 1.61111e-20)
(2.37954 -4.17853 -5.8502e-20)
(2.21564 -3.94071 -1.21799e-19)
(2.12519 -3.74006 5.118e-20)
(2.06773 -3.57938 -2.04664e-19)
(2.03056 -3.45053 9.85314e-20)
(2.00943 -3.34413 -1.81642e-19)
(1.99968 -3.2539 -1.20788e-19)
(1.99742 -3.17533 3.41476e-20)
(1.99984 -3.10505 3.43854e-20)
(2.00483 -3.04058 -1.65885e-19)
(2.01085 -2.98014 -7.24748e-20)
(2.01678 -2.92246 3.39872e-20)
(2.02187 -2.86669 -9.34849e-20)
(2.02558 -2.81222 -3.75195e-20)
(2.02762 -2.75868 -2.53717e-20)
(2.02782 -2.70587 -2.55073e-20)
(2.02613 -2.65366 -1.08695e-19)
(2.02258 -2.60204 -6.84088e-20)
(2.01727 -2.55103 1.23259e-20)
(2.01034 -2.50068 2.26288e-20)
(2.00194 -2.45109 2.44225e-20)
(1.99226 -2.40233 -8.4326e-20)
(1.98148 -2.35449 3.19812e-20)
(1.96979 -2.30763 -6.59353e-20)
(1.95736 -2.26178 6.25633e-20)
(1.94435 -2.21696 -8.22641e-20)
(1.93086 -2.1731 2.59957e-20)
(1.91709 -2.13002 -4.06918e-20)
(1.9034 -2.08731 -5.80647e-20)
(1.88863 -2.04528 -5.86645e-21)
(2.49036 -4.1189 -1.25388e-19)
(2.32468 -3.89248 -1.11557e-19)
(2.23294 -3.70034 -1.09591e-19)
(2.17464 -3.54633 -8.23787e-20)
(2.13685 -3.42271 2.54508e-19)
(2.11507 -3.3203 3.62763e-20)
(2.10453 -3.23301 1.10987e-19)
(2.10127 -3.15655 1.71236e-19)
(2.10245 -3.0877 8.31232e-20)
(2.10595 -3.02413 -1.1119e-19)
(2.11025 -2.96416 1.81074e-19)
(2.11425 -2.90664 -1.7688e-19)
(2.11721 -2.85078 1.68713e-19)
(2.11864 -2.79604 2.03027e-20)
(2.11828 -2.74212 4.3681e-20)
(2.11598 -2.68885 1.46026e-20)
(2.11173 -2.63614 1.78612e-19)
(2.10559 -2.58402 -2.66578e-20)
(2.09768 -2.53251 2.42763e-20)
(2.08816 -2.4817 8.15321e-20)
(2.0772 -2.4317 -9.13948e-20)
(2.06502 -2.38259 7.32123e-20)
(2.0518 -2.33447 2.9966e-21)
(2.03775 -2.28743 3.34981e-20)
(2.02306 -2.2415 6.14937e-20)
(2.0079 -2.1967 -1.04044e-20)
(1.99239 -2.153 6.10772e-20)
(1.97673 -2.11018 8.87616e-20)
(1.96132 -2.06782 -9.64896e-20)
(1.94492 -2.02628 -5.9454e-20)
(2.59973 -4.0564 3.69892e-19)
(2.4328 -3.8414 -4.19416e-20)
(2.34016 -3.65773 8.6027e-20)
(2.2813 -3.51032 1.58249e-19)
(2.24306 -3.39184 -4.60251e-19)
(2.22075 -3.2933 5.07104e-20)
(2.20947 -3.20887 -1.77985e-19)
(2.20522 -3.13444 1.80626e-19)
(2.20514 -3.06696 -1.4445e-19)
(2.2071 -3.00424 7.82765e-20)
(2.20961 -2.94472 -2.86616e-19)
(2.2116 -2.88734 8.18975e-21)
(2.21236 -2.8314 -9.63387e-20)
(2.21144 -2.77642 1.47073e-19)
(2.20859 -2.72215 -1.56766e-19)
(2.20373 -2.66846 -8.11635e-21)
(2.19685 -2.61532 -1.28616e-19)
(2.18806 -2.56274 -1.1011e-20)
(2.17749 -2.51081 1.10463e-20)
(2.16533 -2.45962 2.89316e-20)
(2.15177 -2.40927 -1.64315e-19)
(2.13704 -2.35989 -5.04231e-21)
(2.12135 -2.31158 -9.25145e-20)
(2.10491 -2.26443 -2.14876e-20)
(2.08794 -2.21851 -5.69712e-20)
(2.07061 -2.17383 -6.24967e-20)
(2.05306 -2.13038 -6.54052e-20)
(2.03552 -2.08794 1.08588e-19)
(2.01841 -2.04605 2.93299e-20)
(2.00042 -2.00513 -5.798e-20)
(2.70758 -3.99106 -2.46939e-19)
(2.53992 -3.78747 9.25067e-20)
(2.44677 -3.61221 -1.59016e-19)
(2.38762 -3.47131 2.34799e-20)
(2.34911 -3.35785 2.6326e-19)
(2.32637 -3.26309 -1.34311e-19)
(2.31439 -3.18142 -1.43921e-19)
(2.30915 -3.10894 -1.22433e-19)
(2.30777 -3.04277 5.57335e-21)
(2.30815 -2.98086 7.97995e-20)
(2.30881 -2.92177 -5.84345e-20)
(2.30872 -2.86454 2.24144e-21)
(2.3072 -2.80852 1.84756e-19)
(2.30384 -2.75333 -9.41406e-20)
(2.29844 -2.69876 2.49876e-20)
(2.29094 -2.64471 -7.71794e-20)
(2.28138 -2.59118 2.97147e-20)
(2.26988 -2.53823 6.418e-20)
(2.2566 -2.48595 7.38053e-20)
(2.24175 -2.43444 -8.09439e-20)
(2.22556 -2.38384 1.13749e-20)
(2.20825 -2.33426 7.00276e-20)
(2.19005 -2.28583 1.21701e-19)
(2.1712 -2.23865 3.27106e-20)
(2.15192 -2.19281 -1.26778e-19)
(2.1324 -2.14833 1.47917e-19)
(2.11279 -2.10522 -7.42845e-20)
(2.09336 -2.06327 -8.9081e-20)
(2.07456 -2.02198 -5.46789e-20)
(2.05502 -1.98182 -7.53211e-20)
(2.81383 -3.92291 1.32686e-19)
(2.64598 -3.7307 -1.06924e-19)
(2.5527 -3.56378 4.10824e-20)
(2.49352 -3.42926 2.1984e-19)
(2.4549 -3.3207 6.06349e-20)
(2.4318 -3.22961 -5.19233e-20)
(2.41916 -3.1506 1.26718e-19)
(2.41292 -3.08 2.95255e-20)
(2.41021 -3.01509 1.22745e-19)
(2.40896 -2.95396 6.78838e-20)
(2.40771 -2.89529 3.3606e-21)
(2.40546 -2.83821 4.35125e-20)
(2.40159 -2.78214 -1.37643e-20)
(2.39572 -2.72677 2.41753e-20)
(2.3877 -2.67194 6.83895e-20)
(2.3775 -2.61759 -3.76614e-20)
(2.36519 -2.56375 9.41189e-20)
(2.35093 -2.51049 9.59647e-20)
(2.3349 -2.45793 -1.09681e-19)
(2.31734 -2.40619 1.13354e-19)
(2.29848 -2.3554 2.41977e-19)
(2.27856 -2.30571 -1.56953e-19)
(2.25783 -2.25723 1.58772e-19)
(2.23654 -2.21009 -1.11228e-19)
(2.21492 -2.16439 -1.59695e-20)
(2.19318 -2.12019 1.2084e-19)
(2.1715 -2.0775 -2.45035e-20)
(2.15016 -2.03615 9.11887e-20)
(2.12968 -1.99557 9.0985e-20)
(2.10862 -1.95632 -1.82445e-19)
(2.91841 -3.85199 -1.28234e-19)
(2.75093 -3.67111 6.14979e-20)
(2.6579 -3.5124 2.51332e-20)
(2.59892 -3.38414 -2.58929e-19)
(2.56033 -3.28036 -1.35441e-19)
(2.53694 -3.19281 1.02839e-19)
(2.52365 -3.11638 -2.88597e-19)
(2.51641 -3.04759 3.519e-19)
(2.51233 -2.9839 -1.98837e-19)
(2.50939 -2.92352 2.3746e-20)
(2.50615 -2.86526 -3.76552e-20)
(2.50168 -2.80833 -1.16492e-19)
(2.49539 -2.75225 2.43219e-19)
(2.48695 -2.69674 9.28326e-20)
(2.47624 -2.6417 -9.60492e-20)
(2.46328 -2.58712 2.92507e-21)
(2.44818 -2.53303 5.47234e-20)
(2.43112 -2.47955 -1.18378e-19)
(2.41231 -2.42679 2.54369e-20)
(2.392 -2.3749 8.31298e-20)
(2.37045 -2.324 -3.42699e-20)
(2.34791 -2.27426 5.76541e-20)
(2.32463 -2.22579 -1.13723e-19)
(2.30088 -2.17875 1.65752e-19)
(2.2769 -2.13324 3.90513e-20)
(2.25291 -2.08936 -1.05547e-19)
(2.22911 -2.04717 -9.16677e-20)
(2.20583 -2.00648 4.50363e-22)
(2.18365 -1.96673 1.27525e-19)
(2.16111 -1.92855 -3.08015e-20)
(3.02127 -3.77832 -3.50978e-20)
(2.85472 -3.60871 -2.58006e-19)
(2.7623 -3.45807 3.09426e-19)
(2.70372 -3.33591 2.11463e-19)
(2.66527 -3.23676 2.1337e-19)
(2.64166 -3.15265 6.06217e-20)
(2.62774 -3.07871 9.10943e-20)
(2.61946 -3.01167 4.72703e-20)
(2.61398 -2.94915 -1.86957e-19)
(2.60929 -2.88951 3.45211e-19)
(2.60401 -2.83166 -2.81332e-19)
(2.59725 -2.7749 -1.85254e-20)
(2.58846 -2.71884 4.19969e-20)
(2.57739 -2.66325 -1.86254e-19)
(2.56394 -2.60807 1.63943e-19)
(2.54817 -2.55331 -4.90328e-20)
(2.53024 -2.49907 -1.27106e-19)
(2.51034 -2.44544 4.95331e-20)
(2.48873 -2.39257 -9.52876e-20)
(2.46566 -2.3406 -8.4454e-20)
(2.44141 -2.28968 -9.09362e-20)
(2.41624 -2.23995 2.06834e-20)
(2.39041 -2.19156 1.22092e-20)
(2.36418 -2.14466 -2.25511e-19)
(2.33782 -2.09937 -8.611e-20)
(2.31156 -2.05583 5.57157e-20)
(2.2856 -2.01414 6.93349e-20)
(2.26032 -1.97418 -9.57111e-20)
(2.2364 -1.93536 -3.65218e-20)
(2.21237 -1.89836 3.70129e-21)
(3.12239 -3.70193 -3.07179e-20)
(2.95732 -3.54348 1.66985e-19)
(2.86583 -3.40075 -4.75492e-20)
(2.80784 -3.28452 -5.86809e-20)
(2.76962 -3.18987 -3.32927e-19)
(2.74582 -3.10909 -7.36448e-20)
(2.73127 -3.03756 1.42161e-19)
(2.72195 -2.97221 -9.42059e-20)
(2.71502 -2.91083 -1.00332e-20)
(2.70852 -2.85191 -1.87191e-20)
(2.70114 -2.79448 1.06481e-19)
(2.69202 -2.73793 -1.69739e-19)
(2.68068 -2.68193 -1.14449e-19)
(2.66691 -2.62631 1.35127e-19)
(2.65066 -2.57106 -7.75768e-20)
(2.63205 -2.51622 -9.38458e-20)
(2.61125 -2.46189 2.01808e-19)
(2.5885 -2.4082 -3.17136e-20)
(2.56408 -2.35531 1.20247e-19)
(2.53824 -2.30335 -1.10673e-19)
(2.5113 -2.25247 -8.98642e-20)
(2.4835 -2.20283 7.8302e-20)
(2.45513 -2.15457 -8.82955e-21)
(2.42645 -2.10784 -5.91375e-20)
(2.3977 -2.06279 5.21359e-20)
(2.36914 -2.01957 -1.63149e-19)
(2.34098 -1.97836 9.97012e-20)
(2.31363 -1.9391 -1.54375e-21)
(2.28789 -1.90124 -1.04583e-19)
(2.26237 -1.86551 1.59124e-19)
(3.22186 -3.62288 1.27585e-19)
(3.05878 -3.47545 -3.31045e-19)
(2.96845 -3.34039 -2.77908e-20)
(2.91116 -3.22991 1.57461e-19)
(2.87324 -3.13964 -4.12509e-20)
(2.84928 -3.0621 -1.16627e-19)
(2.83411 -2.9929 5.54248e-20)
(2.82371 -2.92919 6.43334e-20)
(2.8153 -2.86893 5.60016e-21)
(2.80694 -2.81073 8.01332e-20)
(2.79739 -2.75374 2.57401e-19)
(2.78585 -2.69743 -9.10673e-20)
(2.7719 -2.64154 2.37607e-20)
(2.75538 -2.58596 -6.19453e-20)
(2.7363 -2.53071 2.39245e-19)
(2.7148 -2.47586 -4.30595e-20)
(2.69112 -2.42154 1.43678e-19)
(2.6655 -2.36789 -5.58972e-20)
(2.63826 -2.31506 6.0564e-20)
(2.60967 -2.2632 9.17951e-20)
(2.58005 -2.21246 1.57646e-20)
(2.54966 -2.16298 6.21837e-20)
(2.51878 -2.1149 -5.16245e-20)
(2.48767 -2.06837 1.44312e-19)
(2.45657 -2.02353 -5.91422e-20)
(2.42571 -1.98059 2.17264e-19)
(2.39532 -1.93975 -6.28702e-20)
(2.36581 -1.90107 4.33946e-20)
(2.33816 -1.86404 -8.19801e-20)
(2.31115 -1.8296 1.55613e-19)
(3.32005 -3.54131 -2.82115e-19)
(3.15919 -3.40456 1.04582e-20)
(3.07007 -3.2769 -1.7243e-19)
(3.01353 -3.17202 3.17532e-20)
(2.97596 -3.08601 8.79298e-21)
(2.95188 -3.01164 -1.56152e-19)
(2.93609 -2.94472 -2.95046e-19)
(2.9246 -2.88261 1.48509e-19)
(2.91466 -2.82344 -2.11909e-19)
(2.90439 -2.76597 -1.12598e-19)
(2.89261 -2.70944 -6.46217e-20)
(2.8786 -2.65342 -5.25736e-20)
(2.86198 -2.5977 1.53974e-21)
(2.84266 -2.54223 -1.8854e-19)
(2.82071 -2.48706 1.24941e-19)
(2.79631 -2.4323 -2.05285e-19)
(2.76972 -2.37809 -5.20895e-20)
(2.74124 -2.32457 5.71437e-20)
(2.71118 -2.27191 7.21556e-20)
(2.67987 -2.22025 7.23359e-20)
(2.6476 -2.16973 5.54927e-20)
(2.61467 -2.12049 -1.39489e-19)
(2.58135 -2.07265 1.41293e-19)
(2.54787 -2.02635 -1.50539e-20)
(2.51449 -1.98172 -3.81347e-20)
(2.48139 -1.93894 -1.51286e-19)
(2.44876 -1.89826 -8.04279e-20)
(2.41699 -1.85975 1.49229e-19)
(2.38713 -1.82306 -4.88378e-20)
(2.35834 -1.78997 -5.08659e-20)
(3.4174 -3.45687 1.22749e-19)
(3.2586 -3.33037 1.1389e-20)
(3.1705 -3.21005 -3.42099e-20)
(3.11475 -3.11077 -7.41863e-21)
(3.07761 -3.029 -6.24837e-20)
(3.05346 -2.95772 2.10972e-19)
(3.03708 -2.89303 -1.00167e-19)
(3.02447 -2.83249 6.58291e-20)
(3.01296 -2.7744 2.75908e-20)
(3.00074 -2.71766 1.00274e-19)
(2.98668 -2.66162 -3.91311e-20)
(2.97013 -2.60593 2.21716e-19)
(2.9508 -2.55045 -1.92827e-20)
(2.92865 -2.49517 1.45839e-19)
(2.90379 -2.44018 -2.45955e-19)
(2.87646 -2.3856 -1.88993e-20)
(2.84696 -2.33159 1.60827e-19)
(2.81561 -2.27831 -1.00107e-19)
(2.78277 -2.22593 -7.06992e-20)
(2.74876 -2.17457 -1.22075e-19)
(2.7139 -2.12439 -1.07537e-19)
(2.67849 -2.07549 1.15849e-19)
(2.64282 -2.02799 -1.09142e-19)
(2.60712 -1.982 2.40514e-20)
(2.57163 -1.9376 8.87403e-20)
(2.53652 -1.89493 6.15429e-20)
(2.50195 -1.85411 5.86276e-20)
(2.46811 -1.8151 4.31284e-20)
(2.43557 -1.77796 -1.16762e-19)
(2.40392 -1.7458 -5.00501e-20)
(5.01153 -0.0292077 1.83009e-21)
(5.00396 -0.161018 1.81261e-20)
(4.99326 -0.291861 6.29142e-20)
(4.97941 -0.422016 3.43864e-20)
(4.96221 -0.551541 -7.27239e-20)
(4.94159 -0.680402 2.20211e-20)
(4.91755 -0.808532 -2.30509e-20)
(4.89011 -0.935851 -5.82139e-20)
(4.85931 -1.06227 1.48282e-19)
(4.82517 -1.18771 -3.53532e-20)
(4.78774 -1.31207 -3.56379e-20)
(4.74704 -1.43528 -7.52866e-20)
(4.70312 -1.55724 -2.15491e-19)
(4.65603 -1.67787 1.99853e-20)
(4.6058 -1.79709 -9.65175e-21)
(4.55249 -1.91482 -6.71554e-20)
(4.49615 -2.03098 1.43819e-19)
(4.43682 -2.14549 7.79138e-20)
(4.37456 -2.25828 1.48772e-19)
(4.30942 -2.36928 7.25087e-20)
(4.24146 -2.47842 -1.62321e-19)
(4.17074 -2.58563 6.5643e-21)
(4.09732 -2.69084 -3.05528e-19)
(4.02126 -2.79398 4.63404e-19)
(3.94262 -2.89501 -1.51769e-19)
(3.86148 -2.99387 -1.95339e-19)
(3.77789 -3.09051 -2.72567e-20)
(3.69193 -3.18491 -1.50516e-21)
(3.60371 -3.27714 -1.4605e-19)
(3.51318 -3.36759 2.59971e-19)
(5.03671 -0.0582891 7.58736e-21)
(5.02336 -0.190181 1.12015e-20)