/*--------------------------------*- C++ -*----------------------------------*\
  =========                 |
  \\      /  F ield         | OpenFOAM: The Open Source CFD Toolbox
   \\    /   O peration     | Website:  https://openfoam.org
    \\  /    A nd           | Version:  6.0
     \\/     M anipulation  |
\*---------------------------------------------------------------------------*/
FoamFile
{
    version     2.0;
    format      ascii;
    class       volScalarField;
    location    "20";
    object      p;
}
// * * * * * * * * * * * * * * * * * * * * * * * * * * * * * * * * * * * * * //

dimensions      [0 2 -2 0 0 0 0];

internalField   nonuniform List<scalar> 
19200
(
-7.24663
-6.38021
-5.78725
-5.32634
-4.92022
-4.56311
-4.24741
-3.96456
-3.70856
-3.47511
-3.26087
-3.06326
-2.88022
-2.71013
-2.55163
-2.4036
-2.26512
-2.13536
-2.01365
-1.89935
-1.79195
-1.69095
-1.59592
-1.50648
-1.42227
-1.34299
-1.26834
-1.19806
-1.13188
-1.06974
-7.42536
-6.55828
-5.96307
-5.49869
-5.08843
-4.72679
-4.40628
-4.11852
-3.85759
-3.61922
-3.40016
-3.19784
-3.01025
-2.83575
-2.67301
-2.52093
-2.37857
-2.24511
-2.11988
-2.00224
-1.89166
-1.78764
-1.68976
-1.59761
-1.51084
-1.42912
-1.35218
-1.27971
-1.21139
-1.14749
-7.60869
-6.73944
-6.14141
-5.67337
-5.25881
-4.89248
-4.56705
-4.27425
-4.00824
-3.76486
-3.54086
-3.33373
-3.14147
-2.96247
-2.79541
-2.63919
-2.49287
-2.35565
-2.22683
-2.10579
-1.99198
-1.8849
-1.78412
-1.68922
-1.59984
-1.51567
-1.4364
-1.3617
-1.2912
-1.22554
-7.79497
-6.92324
-6.3221
-5.85021
-5.4312
-5.06003
-4.72954
-4.43157
-4.16037
-3.91184
-3.68279
-3.47074
-3.27372
-3.09012
-2.91866
-2.75822
-2.60787
-2.46682
-2.33436
-2.20986
-2.09277
-1.98258
-1.87886
-1.78117
-1.68916
-1.60249
-1.52087
-1.44391
-1.37121
-1.30378
-7.98376
-7.10941
-6.50496
-6.02904
-5.60542
-5.22926
-4.89358
-4.59031
-4.3138
-4.06001
-3.8258
-3.60872
-3.40683
-3.21855
-3.04259
-2.87786
-2.72342
-2.57847
-2.4423
-2.31429
-2.19388
-2.08055
-1.97384
-1.87334
-1.77866
-1.68947
-1.60547
-1.52622
-1.4513
-1.38209
-8.17477
-7.29771
-6.68979
-6.20967
-5.7813
-5.40002
-5.059
-4.7503
-4.46836
-4.20919
-3.9697
-3.7475
-3.54065
-3.3476
-3.16706
-2.99795
-2.83935
-2.69044
-2.55052
-2.41896
-2.29517
-2.17865
-2.06894
-1.96559
-1.86822
-1.77648
-1.69007
-1.60851
-1.53135
-1.46036
-8.36772
-7.48789
-6.87637
-6.39192
-5.95865
-5.57211
-5.22563
-4.91137
-4.62387
-4.3592
-4.11434
-3.8869
-3.67499
-3.47708
-3.29189
-3.11834
-2.95551
-2.80259
-2.65886
-2.5237
-2.3965
-2.27677
-2.16401
-2.05779
-1.9577
-1.8634
-1.77456
-1.69068
-1.61126
-1.53849
-8.56238
-7.67972
-7.06449
-6.57559
-6.13728
-5.74535
-5.39327
-5.07334
-4.78016
-4.50988
-4.25952
-4.02675
-3.8097
-3.60684
-3.41692
-3.23886
-3.07174
-2.91476
-2.76718
-2.62837
-2.49774
-2.37476
-2.25893
-2.14981
-2.04699
-1.95011
-1.85884
-1.77261
-1.69092
-1.61638
-8.75851
-7.87298
-7.25395
-6.76047
-6.31701
-5.91956
-5.56176
-5.23601
-4.93703
-4.66103
-4.40508
-4.16688
-3.94459
-3.73671
-3.54199
-3.35935
-3.18789
-3.02679
-2.87532
-2.73283
-2.59873
-2.47248
-2.35357
-2.24154
-2.13597
-2.0365
-1.94278
-1.8542
-1.77022
-1.69392
-8.95589
-8.06746
-7.44454
-6.94636
-6.49762
-6.09453
-5.73088
-5.3992
-5.09431
-4.81247
-4.55082
-4.3071
-4.07949
-3.86651
-3.66691
-3.47965
-3.30379
-3.13853
-2.98313
-2.83694
-2.69935
-2.5698
-2.44779
-2.33284
-2.22452
-2.12245
-2.02628
-1.93534
-1.84908
-1.77103
-9.1543
-8.26292
-7.63603
-7.13306
-6.67893
-6.27006
-5.90044
-5.56272
-5.2518
-4.96402
-4.69658
-4.44724
-4.21423
-3.99607
-3.79154
-3.59959
-3.41929
-3.24983
-3.09047
-2.94055
-2.79944
-2.66659
-2.54147
-2.42359
-2.31252
-2.20785
-2.10923
-2.01594
-1.92739
-1.84762
-9.35351
-8.45916
-7.82822
-7.32035
-6.86071
-6.44596
-6.07025
-5.72637
-5.4093
-5.11549
-4.84215
-4.58712
-4.34862
-4.12522
-3.9157
-3.71901
-3.53423
-3.36053
-3.19719
-3.04351
-2.89888
-2.76272
-2.63448
-2.51368
-2.39985
-2.29259
-2.19152
-2.09588
-2.00506
-1.92358
-9.55331
-8.65595
-8.02089
-7.50803
-7.04277
-6.62202
-6.24011
-5.88995
-5.56664
-5.26668
-4.98736
-4.72654
-4.48249
-4.25379
-4.03922
-3.83775
-3.64844
-3.47049
-3.30314
-3.1457
-2.99753
-2.85805
-2.7267
-2.60298
-2.4864
-2.37656
-2.27306
-2.17508
-2.08198
-1.99884
-9.75348
-8.85308
-8.21382
-7.69588
-7.22489
-6.79803
-6.40981
-6.05327
-5.72361
-5.41741
-5.13203
-4.86535
-4.61568
-4.38161
-4.16194
-3.95564
-3.76179
-3.57955
-3.40818
-3.24696
-3.09525
-2.95246
-2.81801
-2.69137
-2.57205
-2.45965
-2.35373
-2.25343
-2.15808
-2.07331
-9.95379
-9.05034
-8.40682
-7.88369
-7.40688
-6.9738
-6.57916
-6.21613
-5.88002
-5.5675
-5.27596
-5.00334
-4.74799
-4.5085
-4.28369
-4.07254
-3.87411
-3.68757
-3.51215
-3.34716
-3.19191
-3.04581
-2.90826
-2.77872
-2.65669
-2.54175
-2.43344
-2.33083
-2.23325
-2.14688
-10.154
-9.24751
-8.59966
-8.07127
-7.58853
-7.14912
-6.74795
-6.37833
-6.03568
-5.71674
-5.41897
-5.14036
-4.87926
-4.63431
-4.40432
-4.18828
-3.98525
-3.79439
-3.61493
-3.44615
-3.28738
-3.13797
-2.99734
-2.86492
-2.7402
-2.62273
-2.51205
-2.40718
-2.30738
-2.21947
-10.354
-9.44438
-8.79214
-8.25839
-7.76962
-7.32379
-6.91599
-6.53969
-6.1904
-5.86497
-5.5609
-5.27622
-5.00933
-4.75886
-4.52367
-4.30271
-4.09506
-3.89988
-3.71637
-3.54381
-3.38151
-3.22881
-3.08512
-2.94984
-2.82244
-2.70248
-2.58947
-2.48235
-2.38037
-2.29096
-10.5535
-9.64075
-8.98406
-8.44485
-7.94996
-7.4976
-7.08307
-6.69999
-6.344
-6.01199
-5.70155
-5.41075
-5.13802
-4.88201
-4.64157
-4.41568
-4.2034
-4.00389
-3.81633
-3.64
-3.47418
-3.31821
-3.17146
-3.03334
-2.9033
-2.78087
-2.66556
-2.55623
-2.4521
-2.36124
-10.7523
-9.83641
-9.1752
-8.63046
-8.12935
-7.67036
-7.24901
-6.85907
-6.49627
-6.15762
-5.84076
-5.54379
-5.26518
-5.00359
-4.75789
-4.52705
-4.31014
-4.10628
-3.91468
-3.73457
-3.56525
-3.40601
-3.25624
-3.1153
-2.98264
-2.85777
-2.74019
-2.62867
-2.52242
-2.43016
-10.9502
-10.0312
-9.36538
-8.81501
-8.30758
-7.84188
-7.41361
-7.01672
-6.64706
-6.3017
-5.97836
-5.67518
-5.39065
-5.12347
-4.87249
-4.63669
-4.41513
-4.20693
-4.01129
-3.82742
-3.65459
-3.49211
-3.33931
-3.19557
-3.06031
-2.93303
-2.8132
-2.69954
-2.59118
-2.49758
-11.1471
-10.2249
-9.55439
-8.99831
-8.48446
-8.01194
-7.57668
-7.17276
-6.79616
-6.44405
-6.11418
-5.80476
-5.51429
-5.24149
-4.98522
-4.74445
-4.51825
-4.30572
-4.10604
-3.91841
-3.74209
-3.57637
-3.42056
-3.27403
-3.13617
-3.00649
-2.88443
-2.76864
-2.65819
-2.56328
-11.3428
-10.4173
-9.74206
-9.18016
-8.65979
-8.18037
-7.73803
-7.32702
-6.94342
-6.5845
-6.24807
-5.93238
-5.63595
-5.35752
-5.09596
-4.85023
-4.61939
-4.40253
-4.19882
-4.00744
-3.82763
-3.65867
-3.49985
-3.35053
-3.21008
-3.07799
-2.95371
-2.83579
-2.72325
-2.62703
-11.5371
-10.6083
-9.9282
-9.36036
-8.83337
-8.34695
-7.89746
-7.4793
-7.08866
-6.72289
-6.37987
-6.05789
-5.75551
-5.47145
-5.2046
-4.95392
-4.71845
-4.49728
-4.28954
-4.09441
-3.91112
-3.73891
-3.57708
-3.42495
-3.28188
-3.14737
-3.02085
-2.90078
-2.78608
-2.68854
-11.73
-10.7977
-10.1126
-9.53871
-9.00501
-8.51151
-8.0548
-7.62942
-7.23171
-6.85907
-6.50945
-6.18118
-5.87283
-5.58316
-5.31103
-5.05542
-4.81534
-4.58987
-4.37812
-4.17926
-3.99248
-3.81702
-3.65216
-3.49718
-3.35147
-3.21448
-3.08566
-2.96337
-2.84642
-2.74749
-11.9215
-10.9854
-10.2951
-9.71501
-9.17448
-8.67383
-8.20984
-7.77723
-7.3724
-6.99288
-6.63666
-6.3021
-5.98781
-5.69254
-5.41518
-5.15466
-4.91
-4.68025
-4.46452
-4.26194
-4.07168
-3.89296
-3.72503
-3.56717
-3.41874
-3.27919
-3.14796
-3.02332
-2.90394
-2.80348
-12.1115
-11.1712
-10.4755
-9.88903
-9.34157
-8.83371
-8.36241
-7.92252
-7.51058
-7.12418
-6.76137
-6.42055
-6.10035
-5.79952
-5.51695
-5.25157
-5.00237
-4.7684
-4.54871
-4.34243
-4.1487
-3.96672
-3.7957
-3.63492
-3.48368
-3.34146
-3.20766
-3.08047
-2.95837
-2.85595
-12.3002
-11.3548
-10.6534
-10.0605
-9.50605
-8.99093
-8.5123
-8.06514
-7.64609
-7.25282
-6.88345
-6.53641
-6.21034
-5.90401
-5.61629
-5.34611
-5.09244
-4.85428
-4.6307
-4.42077
-4.22361
-4.03838
-3.86427
-3.70052
-3.54641
-3.40138
-3.26485
-3.1349
-3.00956
-2.90434
-12.4887
-11.5365
-10.8286
-10.2291
-9.66762
-9.14523
-8.65928
-8.20487
-7.77875
-7.37866
-7.00278
-6.64957
-6.31769
-6.00593
-5.71314
-5.43823
-5.18016
-4.93791
-4.71051
-4.497
-4.29648
-4.10805
-3.93088
-3.76415
-3.6071
-3.45913
-3.31967
-3.1865
-3.05702
-2.94827
-12.6783
-11.7158
-11.0005
-10.3944
-9.82591
-9.29634
-8.80314
-8.34154
-7.9084
-7.50155
-7.11921
-6.75991
-6.42231
-6.10519
-5.80742
-5.52788
-5.26552
-5.01928
-4.78817
-4.5712
-4.36743
-4.17593
-3.9958
-3.82617
-3.66619
-3.51517
-3.37224
-3.23467
-3.09948
-2.98719
-12.8612
-11.8898
-11.1681
-10.5558
-9.98081
-9.44426
-8.94391
-8.47518
-8.03508
-7.62152
-7.2328
-6.86747
-6.52422
-6.20185
-5.89919
-5.61513
-5.34858
-5.09848
-4.86379
-4.64351
-4.43667
-4.24232
-4.05952
-3.88737
-3.72498
-3.57147
-3.42546
-3.28399
-3.14535
-3.02827
-15.8991
-15.8803
-15.8521
-15.8195
-15.7817
-15.7379
-15.688
-15.632
-15.5699
-15.5016
-15.4273
-15.3469
-15.2605
-15.1683
-15.0703
-14.9667
-14.8575
-14.7429
-14.6231
-14.4982
-14.3683
-14.2336
-14.0943
-13.9506
-13.8026
-13.6505
-13.4948
-13.3358
-13.1741
-13.0125
-14.8629
-14.8489
-14.8265
-14.7978
-14.7628
-14.7215
-14.6738
-14.62
-14.56
-14.4938
-14.4216
-14.3435
-14.2594
-14.1695
-14.0739
-13.9728
-13.8662
-13.7542
-13.637
-13.5148
-13.3877
-13.2558
-13.1193
-12.9784
-12.8333
-12.6841
-12.5313
-12.3749
-12.2154
-12.0533
-14.0226
-14.0123
-13.9945
-13.9698
-13.9386
-13.9009
-13.8569
-13.8068
-13.7504
-13.6881
-13.6197
-13.5454
-13.4653
-13.3795
-13.288
-13.191
-13.0886
-12.981
-12.8682
-12.7504
-12.6277
-12.5003
-12.3683
-12.232
-12.0914
-11.9467
-11.7982
-11.646
-11.4903
-11.331
-13.2606
-13.2537
-13.2399
-13.2194
-13.1924
-13.159
-13.1195
-13.0738
-13.022
-12.9643
-12.9007
-12.8312
-12.756
-12.6753
-12.5889
-12.4972
-12.4001
-12.2978
-12.1904
-12.0781
-11.961
-11.8392
-11.7128
-11.5821
-11.4471
-11.3081
-11.1651
-11.0183
-10.8679
-10.7138
-12.521
-12.5175
-12.5076
-12.4912
-12.4685
-12.4396
-12.4046
-12.3636
-12.3168
-12.264
-12.2055
-12.1414
-12.0716
-11.9963
-11.9156
-11.8295
-11.7383
-11.6419
-11.5406
-11.4343
-11.3234
-11.2078
-11.0877
-10.9633
-10.8346
-10.7019
-10.5652
-10.4247
-10.2804
-10.1325
-11.8156
-11.8152
-11.8089
-11.7963
-11.7777
-11.7531
-11.7226
-11.6863
-11.6443
-11.5966
-11.5432
-11.4844
-11.4201
-11.3504
-11.2754
-11.1952
-11.11
-11.0197
-10.9246
-10.8247
-10.7202
-10.611
-10.4975
-10.3797
-10.2577
-10.1316
-10.0016
-9.86782
-9.73028
-9.58911
-11.1491
-11.1516
-11.1484
-11.1393
-11.1245
-11.1038
-11.0775
-11.0456
-11.0081
-10.9652
-10.9168
-10.8631
-10.804
-10.7398
-10.6705
-10.5961
-10.5168
-10.4326
-10.3436
-10.25
-10.1518
-10.0492
-9.94231
-9.83115
-9.71588
-9.59661
-9.47345
-9.34651
-9.21588
-9.08168
-10.522
-10.5269
-10.5264
-10.5203
-10.5087
-10.4916
-10.469
-10.4411
-10.4078
-10.3692
-10.3254
-10.2765
-10.2224
-10.1634
-10.0993
-10.0305
-9.95678
-9.8784
-9.7954
-9.70788
-9.61594
-9.51966
-9.41916
-9.31453
-9.20588
-9.09331
-8.97693
-8.85683
-8.73311
-8.60589
-9.93416
-9.94107
-9.94282
-9.93924
-9.93037
-9.91626
-9.89696
-9.8725
-9.84293
-9.80829
-9.76865
-9.72405
-9.67456
-9.62024
-9.56116
-9.49738
-9.42899
-9.35606
-9.27866
-9.1969
-9.11085
-9.0206
-8.92625
-8.82789
-8.72562
-8.61952
-8.5097
-8.39626
-8.27928
-8.15888
-9.38523
-9.39365
-9.39716
-9.39561
-9.38902
-9.37744
-9.36091
-9.33945
-9.31311
-9.28193
-9.24595
-9.20524
-9.15983
-9.1098
-9.05519
-8.99608
-8.93254
-8.86463
-8.79243
-8.71601
-8.63547
-8.55087
-8.4623
-8.36986
-8.27362
-8.17368
-8.07012
-7.96303
-7.85252
-7.73867
-8.87406
-8.88358
-8.88842
-8.88845
-8.88369
-8.87418
-8.85995
-8.84102
-8.81744
-8.78923
-8.75645
-8.71914
-8.67735
-8.63112
-8.58053
-8.52562
-8.46647
-8.40312
-8.33566
-8.26416
-8.18868
-8.10931
-8.02611
-7.93918
-7.84858
-7.75441
-7.65674
-7.55567
-7.45127
-7.34364
-8.39909
-8.40932
-8.41512
-8.41633
-8.41299
-8.40513
-8.39277
-8.37594
-8.35467
-8.329
-8.29896
-8.2646
-8.22596
-8.18309
-8.13605
-8.08488
-8.02965
-7.97042
-7.90725
-7.8402
-7.76934
-7.69475
-7.61649
-7.53464
-7.44927
-7.36045
-7.26828
-7.17281
-7.07415
-6.97237
-7.95839
-7.96905
-7.97546
-7.97752
-7.97525
-7.96867
-7.9578
-7.94268
-7.92333
-7.89977
-7.87206
-7.84023
-7.80432
-7.76437
-7.72045
-7.67258
-7.62084
-7.56528
-7.50595
-7.44292
-7.37625
-7.306
-7.23224
-7.15503
-7.07446
-6.99059
-6.90349
-6.81323
-6.71989
-6.62356
-7.54989
-7.5607
-7.56747
-7.57008
-7.56857
-7.56295
-7.55326
-7.5395
-7.52172
-7.49993
-7.47418
-7.4445
-7.41093
-7.37352
-7.3323
-7.28734
-7.23868
-7.18637
-7.13047
-7.07104
-7.00813
-6.9418
-6.87212
-6.79915
-6.72296
-6.6436
-6.56116
-6.4757
-6.38729
-6.29602
-7.17136
-7.18213
-7.18903
-7.19197
-7.19097
-7.18606
-7.17725
-7.16458
-7.14806
-7.12773
-7.10361
-7.07575
-7.04418
-7.00895
-6.9701
-6.92767
-6.88172
-6.83229
-6.77944
-6.72321
-6.66367
-6.60087
-6.53487
-6.46574
-6.39352
-6.3183
-6.24012
-6.15906
-6.07519
-5.98857
-6.8206
-6.83116
-6.83802
-6.8411
-6.84041
-6.83599
-6.82785
-6.81602
-6.80051
-6.78137
-6.75862
-6.73229
-6.70243
-6.66908
-6.63227
-6.59205
-6.54847
-6.50158
-6.45143
-6.39806
-6.34153
-6.2819
-6.21922
-6.15355
-6.08494
-6.01346
-5.93917
-5.86213
-5.78242
-5.7001
-6.49543
-6.50567
-6.51236
-6.51543
-6.5149
-6.51079
-6.50314
-6.49195
-6.47725
-6.45907
-6.43745
-6.41241
-6.384
-6.35226
-6.31722
-6.27893
-6.23744
-6.19279
-6.14502
-6.0942
-6.04036
-5.98357
-5.92387
-5.86132
-5.79597
-5.72789
-5.65714
-5.58377
-5.50786
-5.42948
-6.19376
-6.20359
-6.21001
-6.21297
-6.21247
-6.20855
-6.20123
-6.19052
-6.17646
-6.15907
-6.13839
-6.11444
-6.08727
-6.05691
-6.02341
-5.9868
-5.94713
-5.90446
-5.85881
-5.81025
-5.75882
-5.70457
-5.64755
-5.58782
-5.52542
-5.46042
-5.39287
-5.32285
-5.25041
-5.17563
-5.91361
-5.92298
-5.92907
-5.93183
-5.93128
-5.92744
-5.92034
-5.90999
-5.89643
-5.87968
-5.85977
-5.83674
-5.81063
-5.78147
-5.7493
-5.71416
-5.67611
-5.63518
-5.59142
-5.54487
-5.49559
-5.44362
-5.38902
-5.33182
-5.27209
-5.20988
-5.14525
-5.07826
-5.00898
-4.9375
-5.65316
-5.66203
-5.66774
-5.67025
-5.66958
-5.66575
-5.65878
-5.64869
-5.63552
-5.61929
-5.60003
-5.57778
-5.55257
-5.52445
-5.49344
-5.4596
-5.42297
-5.38359
-5.34151
-5.29677
-5.24941
-5.1995
-5.14706
-5.09216
-5.03484
-4.97516
-4.91317
-4.84893
-4.78253
-4.71407
-5.41069
-5.41905
-5.42436
-5.42658
-5.42574
-5.42186
-5.41496
-5.40506
-5.3922
-5.37639
-5.35768
-5.33609
-5.31167
-5.28444
-5.25446
-5.22177
-5.1864
-5.14839
-5.10781
-5.06469
-5.01907
-4.971
-4.92053
-4.8677
-4.81257
-4.75518
-4.69558
-4.63385
-4.57006
-4.50434
-5.18466
-5.1925
-5.1974
-5.19931
-5.19827
-5.1943
-5.18742
-5.17766
-5.16503
-5.14958
-5.13132
-5.11031
-5.08657
-5.06014
-5.03106
-4.99937
-4.96513
-4.92836
-4.88912
-4.84746
-4.8034
-4.75701
-4.70832
-4.65738
-4.60423
-4.54891
-4.49149
-4.43203
-4.3706
-4.30737
-4.97364
-4.98097
-4.98545
-4.98705
-4.9858
-4.98171
-4.97482
-4.96515
-4.95271
-4.93755
-4.91969
-4.89917
-4.87602
-4.85029
-4.82202
-4.79124
-4.758
-4.72235
-4.68432
-4.64397
-4.60133
-4.55645
-4.50938
-4.46016
-4.40881
-4.35539
-4.29995
-4.24253
-4.18322
-4.12224
-4.77634
-4.78317
-4.78725
-4.78853
-4.78706
-4.78285
-4.77592
-4.76631
-4.75402
-4.73911
-4.72159
-4.7015
-4.67889
-4.65378
-4.62622
-4.59626
-4.56393
-4.52927
-4.49235
-4.45319
-4.41184
-4.36835
-4.32275
-4.27509
-4.2254
-4.17372
-4.12007
-4.06451
-4.00708
-3.94811
-4.5916
-4.59796
-4.60164
-4.60262
-4.60092
-4.59658
-4.5896
-4.58002
-4.56786
-4.55316
-4.53594
-4.51624
-4.49409
-4.46955
-4.44264
-4.4134
-4.3819
-4.34816
-4.31223
-4.27415
-4.23398
-4.19176
-4.14752
-4.1013
-4.05313
-4.00303
-3.95102
-3.89715
-3.84138
-3.78421
-4.41838
-4.42428
-4.42757
-4.42824
-4.42633
-4.42184
-4.4148
-4.40523
-4.39317
-4.37864
-4.36168
-4.34232
-4.3206
-4.29655
-4.27022
-4.24165
-4.21089
-4.17797
-4.14295
-4.10587
-4.06677
-4.0257
-3.9827
-3.9378
-3.89103
-3.8424
-3.79191
-3.73957
-3.68524
-3.62975
-4.25574
-4.26119
-4.26411
-4.26448
-4.26234
-4.2577
-4.25058
-4.24101
-4.22902
-4.21463
-4.19788
-4.17881
-4.15745
-4.13383
-4.10801
-4.08003
-4.04992
-4.01774
-3.98352
-3.94732
-3.90919
-3.86916
-3.82727
-3.78357
-3.73808
-3.69079
-3.64168
-3.59071
-3.53753
-3.48367
-4.10282
-4.10792
-4.11055
-4.1107
-4.10839
-4.10366
-4.09651
-4.08698
-4.07508
-4.06086
-4.04434
-4.02556
-4.00456
-3.98137
-3.95604
-3.92861
-3.89912
-3.86762
-3.83416
-3.79878
-3.76153
-3.72246
-3.68162
-3.63903
-3.59473
-3.5487
-3.5009
-3.45122
-3.3989
-3.34632
-3.95876
-3.96367
-3.96618
-3.96628
-3.96399
-3.95933
-3.95232
-3.94299
-3.93137
-3.91749
-3.90137
-3.88306
-3.86259
-3.84
-3.81534
-3.78864
-3.75996
-3.72933
-3.69681
-3.66245
-3.62629
-3.58838
-3.54878
-3.50753
-3.46466
-3.42017
-3.374
-3.32598
-3.27487
-3.22383
-3.82284
-3.82695
-3.82875
-3.82824
-3.82544
-3.82037
-3.81305
-3.80351
-3.79177
-3.77788
-3.76185
-3.74372
-3.72354
-3.70133
-3.67715
-3.65103
-3.62303
-3.59318
-3.56153
-3.52815
-3.49306
-3.45634
-3.41803
-3.37819
-3.33687
-3.29411
-3.24989
-3.20403
-3.15532
-3.11096
-13.3697
-13.525
-13.672
-13.8189
-13.9641
-14.1061
-14.2444
-14.3786
-14.5083
-14.6333
-14.7533
-14.868
-14.9773
-15.081
-15.1789
-15.2709
-15.3568
-15.4366
-15.5102
-15.5773
-15.6381
-15.6923
-15.7399
-15.781
-15.8155
-15.8433
-15.8646
-15.8796
-15.8885
-15.8929
-12.3342
-12.4937
-12.6464
-12.7956
-12.9415
-13.0833
-13.221
-13.3544
-13.4832
-13.6073
-13.7263
-13.8403
-13.9488
-14.0519
-14.1493
-14.2409
-14.3265
-14.4061
-14.4795
-14.5467
-14.6076
-14.662
-14.71
-14.7515
-14.7865
-14.815
-14.837
-14.8527
-14.8619
-14.865
-11.4835
-11.6426
-11.7964
-11.9457
-12.091
-12.2322
-12.3691
-12.5017
-12.6297
-12.7531
-12.8716
-12.985
-13.0933
-13.1961
-13.2935
-13.3852
-13.4711
-13.5511
-13.6252
-13.6931
-13.7549
-13.8104
-13.8596
-13.9025
-13.939
-13.9691
-13.9928
-14.01
-14.0208
-14.025
-10.7142
-10.8708
-11.023
-11.1709
-11.3147
-11.4545
-11.5901
-11.7215
-11.8484
-11.9708
-12.0885
-12.2013
-12.309
-12.4115
-12.5088
-12.6005
-12.6867
-12.7672
-12.8419
-12.9107
-12.9736
-13.0304
-13.0811
-13.1256
-13.1639
-13.1959
-13.2217
-13.2411
-13.2541
-13.2606
-9.97814
-10.1312
-10.2805
-10.426
-10.5676
-10.7052
-10.8389
-10.9684
-11.0937
-11.2146
-11.3309
-11.4425
-11.5493
-11.6512
-11.7479
-11.8394
-11.9255
-12.0062
-12.0812
-12.1507
-12.2144
-12.2722
-12.3242
-12.3702
-12.4102
-12.4441
-12.4719
-12.4936
-12.5091
-12.5182
-9.28914
-9.43813
-9.58395
-9.72617
-9.86474
-9.9996
-10.1306
-10.2578
-10.3808
-10.4996
-10.6141
-10.7241
-10.8295
-10.9301
-11.0259
-11.1166
-11.2022
-11.2826
-11.3577
-11.4273
-11.4915
-11.55
-11.6029
-11.6501
-11.6915
-11.7271
-11.7568
-11.7805
-11.7983
-11.81
-8.65242
-8.79701
-8.93874
-9.07717
-9.21217
-9.34369
-9.4716
-9.59577
-9.71607
-9.83237
-9.94453
-10.0524
-10.1559
-10.2549
-10.3492
-10.4387
-10.5234
-10.603
-10.6776
-10.747
-10.8112
-10.87
-10.9234
-10.9714
-11.0138
-11.0506
-11.0818
-11.1073
-11.127
-11.141
-8.06724
-8.20717
-8.34449
-8.47873
-8.60979
-8.73757
-8.86195
-8.98279
-9.09996
-9.21333
-9.32276
-9.42814
-9.52933
-9.6262
-9.71865
-9.80656
-9.88983
-9.96834
-10.042
-10.1108
-10.1745
-10.2331
-10.2866
-10.3349
-10.3779
-10.4155
-10.4478
-10.4746
-10.4959
-10.5118
-7.53174
-7.66688
-7.79959
-7.92945
-8.05632
-8.18011
-8.30068
-8.41791
-8.53167
-8.64181
-8.74822
-8.85076
-8.94932
-9.04378
-9.13403
-9.21996
-9.30146
-9.37844
-9.45081
-9.51849
-9.58139
-9.63944
-9.69258
-9.74074
-9.78386
-9.82189
-9.85479
-9.88251
-9.90501
-9.92227
-7.04328
-7.1736
-7.30164
-7.427
-7.54957
-7.66922
-7.78585
-7.8993
-8.00945
-8.11617
-8.21934
-8.31883
-8.41453
-8.50632
-8.5941
-8.67777
-8.75722
-8.83236
-8.90311
-8.96938
-9.03111
-9.08821
-9.14063
-9.18831
-9.2312
-9.26923
-9.30237
-9.33059
-9.35383
-9.37209
-6.59857
-6.72411
-6.8475
-6.96837
-7.0866
-7.20208
-7.31469
-7.42428
-7.53074
-7.63393
-7.73374
-7.83004
-7.92273
-8.01169
-8.09681
-8.17802
-8.25519
-8.32827
-8.39715
-8.46176
-8.52203
-8.57791
-8.62931
-8.6762
-8.71851
-8.75621
-8.78924
-8.81758
-8.8412
-8.86008
-6.19403
-6.31489
-6.43371
-6.55014
-6.66408
-6.77542
-6.88403
-6.98977
-7.09252
-7.19215
-7.28855
-7.3816
-7.47119
-7.55722
-7.63958
-7.71819
-7.79296
-7.8638
-7.93063
-7.99339
-8.05201
-8.10643
-8.15658
-8.20242
-8.2439
-8.28098
-8.31362
-8.34178
-8.36544
-8.3846
-5.826
-5.94233
-6.0567
-6.16882
-6.27858
-6.38586
-6.49054
-6.59248
-6.69156
-6.78766
-6.88066
-6.97045
-7.05693
-7.13999
-7.21954
-7.29549
-7.36776
-7.43627
-7.50095
-7.56173
-7.61855
-7.67135
-7.72007
-7.76468
-7.80512
-7.84136
-7.87336
-7.9011
-7.92454
-7.94369
-5.49093
-5.60289
-5.71299
-5.82094
-5.92665
-6.03
-6.13087
-6.22911
-6.32461
-6.41725
-6.50691
-6.59348
-6.67687
-6.75698
-6.83372
-6.907
-6.97674
-7.04288
-7.10534
-7.16407
-7.21899
-7.27007
-7.31725
-7.36048
-7.39974
-7.43497
-7.46616
-7.49327
-7.51629
-7.53521
-5.18547
-5.29325
-5.39925
-5.50321
-5.60504
-5.70461
-5.8018
-5.89648
-5.98852
-6.0778
-6.16421
-6.24764
-6.32801
-6.40522
-6.47917
-6.5498
-6.61703
-6.68079
-6.74102
-6.79766
-6.85065
-6.89995
-6.94551
-6.98729
-7.02525
-7.05937
-7.08961
-7.11596
-7.13839
-7.15691
-4.9065
-5.01029
-5.11238
-5.21255
-5.31067
-5.40664
-5.50032
-5.59158
-5.68029
-5.76634
-5.84961
-5.93002
-6.00745
-6.08183
-6.15307
-6.22111
-6.28586
-6.34727
-6.40528
-6.45984
-6.51089
-6.55838
-6.60229
-6.64257
-6.67918
-6.71211
-6.74132
-6.76679
-6.78852
-6.8065
-4.6512
-4.75119
-4.84957
-4.94613
-5.04074
-5.13329
-5.22363
-5.31163
-5.39717
-5.48012
-5.56039
-5.63787
-5.71248
-5.78413
-5.85275
-5.91826
-5.9806
-6.03972
-6.09556
-6.14806
-6.19718
-6.24289
-6.28514
-6.3239
-6.35913
-6.39083
-6.41895
-6.4435
-6.46444
-6.4818
-4.417
-4.51338
-4.60825
-4.70139
-4.79269
-4.88201
-4.96919
-5.0541
-5.13662
-5.21663
-5.29402
-5.36871
-5.44061
-5.50964
-5.57572
-5.6388
-5.69882
-5.75571
-5.80943
-5.85993
-5.90718
-5.95112
-5.99173
-6.02898
-6.06284
-6.09329
-6.12031
-6.14388
-6.16399
-6.18066
-4.20161
-4.29456
-4.38611
-4.47605
-4.56423
-4.6505
-4.7347
-4.8167
-4.89635
-4.97356
-5.04822
-5.12025
-5.18955
-5.25607
-5.31974
-5.38048
-5.43826
-5.49301
-5.54469
-5.59325
-5.63867
-5.6809
-5.71991
-5.75568
-5.78818
-5.8174
-5.8433
-5.86589
-5.88515
-5.9011
-4.003
-4.09268
-4.18112
-4.26805
-4.35331
-4.43672
-4.51812
-4.59736
-4.67431
-4.74886
-4.82093
-4.89042
-4.95726
-5.02139
-5.08274
-5.14125
-5.19688
-5.24958
-5.2993
-5.34601
-5.38966
-5.43024
-5.46771
-5.50204
-5.53321
-5.56121
-5.58603
-5.60764
-5.62604
-5.64125
-3.81935
-3.90592
-3.99144
-4.07558
-4.15812
-4.23886
-4.31762
-4.39426
-4.46865
-4.5407
-4.6103
-4.67738
-4.74188
-4.80373
-4.86287
-4.91926
-4.97285
-5.02358
-5.07143
-5.11636
-5.15834
-5.19732
-5.2333
-5.26625
-5.29614
-5.32297
-5.34672
-5.36737
-5.38493
-5.3994
-3.64903
-3.73264
-3.81547
-3.89703
-3.97704
-4.05529
-4.13159
-4.20578
-4.27776
-4.34742
-4.41469
-4.47949
-4.54176
-4.60145
-4.6585
-4.71286
-4.7645
-4.81337
-4.85944
-4.90267
-4.94304
-4.98052
-5.01507
-5.04669
-5.07536
-5.10105
-5.12377
-5.14349
-5.16023
-5.17398
-3.49056
-3.57138
-3.65178
-3.73098
-3.80866
-3.8846
-3.95858
-4.03048
-4.10017
-4.16758
-4.23264
-4.29527
-4.35543
-4.41306
-4.46812
-4.52057
-4.57036
-4.61746
-4.66184
-4.70346
-4.7423
-4.77834
-4.81154
-4.8419
-4.86939
-4.894
-4.91573
-4.93456
-4.9505
-4.96355
-3.34258
-3.4208
-3.49908
-3.57618
-3.65172
-3.72551
-3.79734
-3.86706
-3.9346
-3.99988
-4.06283
-4.12341
-4.18157
-4.23726
-4.29043
-4.34106
-4.38911
-4.43453
-4.4773
-4.5174
-4.5548
-4.58946
-4.62138
-4.65054
-4.67692
-4.70051
-4.72129
-4.73928
-4.75445
-4.76683
-3.20384
-3.27974
-3.35631
-3.43155
-3.50516
-3.57697
-3.64677
-3.71445
-3.77994
-3.84319
-3.90416
-3.96279
-4.01904
-4.07289
-4.12428
-4.17319
-4.21957
-4.26341
-4.30467
-4.34332
-4.37935
-4.41272
-4.44343
-4.47145
-4.49677
-4.51939
-4.53928
-4.55646
-4.57091
-4.58265
-3.07316
-3.14742
-3.22282
-3.29645
-3.3683
-3.43826
-3.50613
-3.57186
-3.6354
-3.69672
-3.75578
-3.81255
-3.86699
-3.91908
-3.96877
-4.01603
-4.06084
-4.10317
-4.14298
-4.18027
-4.21499
-4.24714
-4.27669
-4.30363
-4.32795
-4.34963
-4.36868
-4.38508
-4.39883
-4.40996
-2.94859
-3.0227
-3.09781
-3.17003
-3.24024
-3.30846
-3.3745
-3.43835
-3.50001
-3.55948
-3.61673
-3.67172
-3.72444
-3.77485
-3.82293
-3.86864
-3.91195
-3.95284
-3.99129
-4.02727
-4.06077
-4.09175
-4.12021
-4.14613
-4.16949
-4.1903
-4.20854
-4.2242
-4.2373
-4.24783
-2.82508
-2.90106
-2.97744
-3.0487
-3.11751
-3.18419
-3.24858
-3.31073
-3.37072
-3.42853
-3.48415
-3.53757
-3.58877
-3.6377
-3.68436
-3.7287
-3.77071
-3.81036
-3.84762
-3.88248
-3.91491
-3.9449
-3.97242
-3.99747
-4.02004
-4.0401
-4.05767
-4.07272
-4.08527
-4.09532
-2.69863
-2.77853
-2.85829
-2.92955
-2.99745
-3.06293
-3.12599
-3.18678
-3.24539
-3.30185
-3.35616
-3.40829
-3.45822
-3.50595
-3.55143
-3.59466
-3.6356
-3.67422
-3.71052
-3.74447
-3.77605
-3.80524
-3.83203
-3.8564
-3.87835
-3.89786
-3.91493
-3.92956
-3.94174
-3.95149
-2.60139
-2.68997
-2.77067
-2.84104
-2.90728
-2.97066
-3.03155
-3.09015
-3.14658
-3.20085
-3.25298
-3.30295
-3.35076
-3.39637
-3.43979
-3.48099
-3.51995
-3.55665
-3.59109
-3.62323
-3.65307
-3.6806
-3.7058
-3.72866
-3.74917
-3.76734
-3.78315
-3.7966
-3.8077
-3.81646
-0.437769
-0.479459
-0.524414
-0.572877
-0.625327
-0.682257
-0.744201
-0.811787
-0.88575
-0.966948
-1.05638
-1.15522
-1.26483
-1.3868
-1.523
-1.67557
-1.84703
-2.04025
-2.25853
-2.5056
-2.78566
-3.10333
-3.46359
-3.87164
-4.33289
-4.85286
-5.43259
-6.06562
-6.80567
-7.75726
-0.506697
-0.550737
-0.597332
-0.647638
-0.702124
-0.761198
-0.825397
-0.895364
-0.971847
-1.05571
-1.14798
-1.24982
-1.36262
-1.48799
-1.6278
-1.78423
-1.9598
-2.15741
-2.38035
-2.63239
-2.91772
-3.24094
-3.60702
-4.02108
-4.48845
-5.01448
-5.59999
-6.23805
-6.98122
-7.93193
-0.576456
-0.622887
-0.671147
-0.723331
-0.779889
-0.841147
-0.907642
-0.980033
-1.05908
-1.14566
-1.24081
-1.3457
-1.46175
-1.59058
-1.73407
-1.89442
-2.07418
-2.27624
-2.50393
-2.76101
-3.05168
-3.38052
-3.75247
-4.17258
-4.64604
-5.17805
-5.76911
-6.41179
-7.15734
-8.1064
-0.646986
-0.695847
-0.745797
-0.799889
-0.858556
-0.922034
-0.99086
-1.06571
-1.14737
-1.23671
-1.33477
-1.44277
-1.56212
-1.69445
-1.84167
-2.006
-2.18999
-2.39656
-2.62905
-2.89123
-3.18729
-3.5218
-3.89965
-4.32582
-4.80538
-5.34333
-5.93987
-6.58719
-7.33578
-8.28521
-0.718241
-0.769568
-0.82123
-0.877262
-0.938071
-1.0038
-1.075
-1.15235
-1.23665
-1.32879
-1.42982
-1.54097
-1.66365
-1.79954
-1.95054
-2.1189
-2.30717
-2.51831
-2.75566
-3.02298
-3.32447
-3.66469
-4.04848
-4.48073
-4.96641
-5.51029
-6.11234
-6.76439
-7.51646
-8.46738
-0.790172
-0.843993
-0.897389
-0.955391
-1.01838
-1.0864
-1.15999
-1.23989
-1.32686
-1.42184
-1.52588
-1.64022
-1.76629
-1.90577
-2.06061
-2.23304
-2.42565
-2.6414
-2.88365
-3.15618
-3.46315
-3.80912
-4.19887
-4.63724
-5.12905
-5.6789
-6.28649
-6.94334
-7.69905
-8.65198
-0.862729
-0.919068
-0.974216
-1.03422
-1.09941
-1.16975
-1.24578
-1.32825
-1.41794
-1.51579
-1.62288
-1.74044
-1.86995
-2.01307
-2.17178
-2.34834
-2.54533
-2.76575
-3.01295
-3.29072
-3.60322
-3.95498
-4.35074
-4.79525
-5.29321
-5.84905
-6.46222
-7.12392
-7.88339
-8.83861
-0.935862
-0.994738
-1.05165
-1.11368
-1.18111
-1.25381
-1.33231
-1.41737
-1.50982
-1.61058
-1.72074
-1.84157
-1.97454
-2.12135
-2.28398
-2.4647
-2.66613
-2.89125
-3.14345
-3.4265
-3.74457
-4.10215
-4.50395
-4.95463
-5.45878
-6.02063
-6.63941
-7.306
-8.06932
-9.02702
-1.00952
-1.07095
-1.12965
-1.19373
-1.26343
-1.3385
-1.41949
-1.50719
-1.60242
-1.70612
-1.8194
-1.94353
-2.08
-2.23053
-2.39711
-2.58204
-2.78793
-3.0178
-3.27504
-3.56341
-3.88709
-4.25053
-4.6584
-5.11527
-5.62561
-6.1935
-6.8179
-7.48942
-8.25664
-9.21692
-1.08367
-1.14765
-1.20814
-1.27431
-1.3463
-1.42377
-1.50729
-1.59764
-1.69568
-1.80235
-1.91877
-2.04624
-2.18624
-2.34053
-2.51109
-2.70026
-2.91066
-3.14531
-3.40762
-3.70135
-4.03066
-4.39999
-4.81395
-5.27703
-5.79359
-6.36751
-6.99756
-7.67402
-8.44516
-9.40808
-1.15825
-1.22479
-1.28708
-1.35535
-1.42966
-1.50956
-1.59562
-1.68866
-1.78953
-1.89919
-2.01878
-2.14961
-2.29318
-2.45124
-2.62583
-2.81926
-3.0342
-3.27367
-3.54108
-3.8402
-4.17517
-4.55042
-4.97048
-5.43979
-5.96256
-6.54253
-7.17821
-7.8596
-8.63468
-9.60026
-1.23322
-1.30232
-1.36642
-1.43681
-1.51346
-1.59581
-1.68443
-1.78017
-1.8839
-1.99658
-2.11936
-2.25357
-2.40072
-2.5626
-2.74123
-2.93896
-3.15846
-3.40277
-3.67531
-3.97984
-4.3205
-4.70167
-5.12785
-5.60339
-6.13238
-6.71838
-7.35968
-8.04599
-8.82498
-9.79324
-1.30855
-1.38019
-1.4461
-1.51864
-1.59764
-1.68246
-1.77367
-1.87212
-1.97872
-2.09443
-2.22042
-2.35803
-2.50879
-2.67449
-2.85719
-3.05924
-3.28333
-3.53251
-3.81019
-4.12015
-4.46651
-4.85362
-5.28593
-5.76769
-6.30288
-6.8949
-7.5418
-8.233
-9.01588
-9.98681
-1.38421
-1.45837
-1.52609
-1.60079
-1.68216
-1.76945
-1.86325
-1.96444
-2.07391
-2.19268
-2.32189
-2.46291
-2.61729
-2.78684
-2.97362
-3.18001
-3.4087
-3.66276
-3.9456
-4.26101
-4.61308
-5.00613
-5.44456
-5.93254
-6.47392
-7.07193
-7.72439
-8.42044
-9.20718
-10.1808
-1.46016
-1.53682
-1.60634
-1.6832
-1.76696
-1.85673
-1.95313
-2.05706
-2.16942
-2.29123
-2.42368
-2.56812
-2.72614
-2.89954
-3.09041
-3.30115
-3.53445
-3.7934
-4.08142
-4.40228
-4.76006
-5.15906
-5.6036
-6.09778
-6.64532
-7.24928
-7.90726
-8.60811
-9.39866
-10.3749
-1.5364
-1.61551
-1.68681
-1.76585
-1.85199
-1.94425
-2.04324
-2.14991
-2.26516
-2.39003
-2.5257
-2.67357
-2.83522
-3.01249
-3.20746
-3.42255
-3.66048
-3.92433
-4.21752
-4.54384
-4.90733
-5.31226
-5.7629
-6.26326
-6.81692
-7.42679
-8.09023
-8.79583
-9.59014
-10.569
-1.61291
-1.69442
-1.76747
-1.84869
-1.93721
-2.03194
-2.13352
-2.24291
-2.36105
-2.48897
-2.62787
-2.77917
-2.94445
-3.12557
-3.32465
-3.5441
-3.78665
-4.0554
-4.35377
-4.68553
-5.05473
-5.46558
-5.92229
-6.4288
-6.98855
-7.60427
-8.27312
-8.98339
-9.78141
-10.7629
-1.68969
-1.77353
-1.8483
-1.93167
-2.02256
-2.11975
-2.2239
-2.33601
-2.45701
-2.58796
-2.73009
-2.8848
-3.05371
-3.23869
-3.44187
-3.66567
-3.91284
-4.18649
-4.49003
-4.82723
-5.20211
-5.61886
-6.08163
-6.59423
-7.16002
-7.78153
-8.45572
-9.17059
-9.97226
-10.9563
-1.76675
-1.85284
-1.92927
-2.01477
-2.10799
-2.20761
-2.31431
-2.4291
-2.55295
-2.68692
-2.83225
-2.99036
-3.16289
-3.35172
-3.55899
-3.78714
-4.03893
-4.31746
-4.62616
-4.96879
-5.34934
-5.77195
-6.24073
-6.75939
-7.33116
-7.9584
-8.63785
-9.35725
-10.1625
-11.1491
-1.84412
-1.93234
-2.01035
-2.09793
-2.19344
-2.29544
-2.40465
-2.52209
-2.64876
-2.78573
-2.93424
-3.09574
-3.27187
-3.46454
-3.67588
-3.90837
-4.16476
-4.44817
-4.76201
-5.11004
-5.49623
-5.92469