/*--------------------------------*- C++ -*----------------------------------*\
  =========                 |
  \\      /  F ield         | OpenFOAM: The Open Source CFD Toolbox
   \\    /   O peration     | Website:  https://openfoam.org
    \\  /    A nd           | Version:  6.0
     \\/     M anipulation  |
\*---------------------------------------------------------------------------*/
FoamFile
{
    version     2.0;
    format      ascii;
    class       volScalarField;
    location    "20";
    object      p;
}
// * * * * * * * * * * * * * * * * * * * * * * * * * * * * * * * * * * * * * //

dimensions      [0 2 -2 0 0 0 0];

internalField   nonuniform List<scalar> 
19200
(
-7.24624
-6.38059
-5.78718
-5.32627
-4.92019
-4.56309
-4.24738
-3.96453
-3.70854
-3.47508
-3.26085
-3.06323
-2.8802
-2.7101
-2.5516
-2.40357
-2.26509
-2.13533
-2.01361
-1.89932
-1.79191
-1.69091
-1.59588
-1.50644
-1.42223
-1.34294
-1.26829
-1.19801
-1.13185
-1.06973
-7.42497
-6.55866
-5.963
-5.49862
-5.0884
-4.72676
-4.40626
-4.1185
-3.85756
-3.6192
-3.40014
-3.19782
-3.01022
-2.83572
-2.67299
-2.5209
-2.37854
-2.24508
-2.11985
-2.00221
-1.89162
-1.7876
-1.68972
-1.59757
-1.51079
-1.42908
-1.35213
-1.27966
-1.21135
-1.14748
-7.6083
-6.73982
-6.14134
-5.6733
-5.25879
-4.89245
-4.56702
-4.27422
-4.00822
-3.76483
-3.54084
-3.33371
-3.14144
-2.96244
-2.79538
-2.63916
-2.49284
-2.35562
-2.2268
-2.10576
-1.99195
-1.88487
-1.78408
-1.68918
-1.5998
-1.51563
-1.43636
-1.36165
-1.29118
-1.22553
-7.79457
-6.92362
-6.32204
-5.85014
-5.43117
-5.06
-4.72951
-4.43154
-4.16035
-3.91182
-3.68277
-3.47072
-3.2737
-3.0901
-2.91863
-2.75819
-2.60785
-2.4668
-2.33433
-2.20983
-2.09274
-1.98255
-1.87882
-1.78114
-1.68912
-1.60246
-1.52083
-1.44386
-1.37119
-1.30377
-7.98336
-7.1098
-6.5049
-6.02897
-5.60539
-5.22924
-4.89355
-4.59029
-4.31378
-4.05999
-3.82578
-3.6087
-3.40681
-3.21854
-3.04257
-2.87784
-2.7234
-2.57845
-2.44228
-2.31427
-2.19385
-2.08052
-1.97381
-1.87331
-1.77863
-1.68944
-1.60543
-1.52618
-1.45128
-1.38208
-8.17437
-7.2981
-6.68973
-6.20961
-5.78127
-5.4
-5.05898
-4.75028
-4.46834
-4.20917
-3.96969
-3.74748
-3.54063
-3.34758
-3.16704
-2.99794
-2.83933
-2.69042
-2.5505
-2.41893
-2.29515
-2.17863
-2.06891
-1.96556
-1.86818
-1.77645
-1.69003
-1.60848
-1.53134
-1.46035
-8.36732
-7.48828
-6.87631
-6.39186
-5.95863
-5.57209
-5.22561
-4.91136
-4.62386
-4.35919
-4.11433
-3.88689
-3.67498
-3.47707
-3.29188
-3.11833
-2.9555
-2.80258
-2.65885
-2.52368
-2.39648
-2.27675
-2.16399
-2.05776
-1.95767
-1.86337
-1.77453
-1.69065
-1.61125
-1.53849
-8.56198
-7.68012
-7.06444
-6.57553
-6.13727
-5.74534
-5.39326
-5.07333
-4.78015
-4.50987
-4.25951
-4.02675
-3.80969
-3.60684
-3.41691
-3.23886
-3.07174
-2.91475
-2.76717
-2.62835
-2.49772
-2.37474
-2.25891
-2.14979
-2.04697
-1.95009
-1.85881
-1.77259
-1.69092
-1.61637
-8.75811
-7.87339
-7.2539
-6.76041
-6.31699
-5.91955
-5.56174
-5.236
-4.93702
-4.66102
-4.40508
-4.16688
-3.94459
-3.73671
-3.54198
-3.35935
-3.18789
-3.02678
-2.87531
-2.73282
-2.59872
-2.47246
-2.35355
-2.24152
-2.13595
-2.03648
-1.94275
-1.85418
-1.77023
-1.69392
-8.95549
-8.06787
-7.44449
-6.94631
-6.49761
-6.09452
-5.73087
-5.3992
-5.0943
-4.81247
-4.55083
-4.3071
-4.07949
-3.86651
-3.66692
-3.47965
-3.30379
-3.13853
-2.98313
-2.83693
-2.69934
-2.56979
-2.44778
-2.33283
-2.22451
-2.12244
-2.02626
-1.93533
-1.8491
-1.77104
-9.1539
-8.26334
-7.63598
-7.13301
-6.67892
-6.27006
-5.90044
-5.56272
-5.2518
-4.96403
-4.69658
-4.44725
-4.21423
-3.99608
-3.79155
-3.59959
-3.41929
-3.24983
-3.09047
-2.94055
-2.79944
-2.66659
-2.54147
-2.42359
-2.31251
-2.20784
-2.10921
-2.01593
-1.92741
-1.84762
-9.35312
-8.45958
-7.82818
-7.32031
-6.86071
-6.44596
-6.07025
-5.72637
-5.40931
-5.1155
-4.84216
-4.58713
-4.34863
-4.12523
-3.91571
-3.71902
-3.53424
-3.36054
-3.1972
-3.04352
-2.89889
-2.76272
-2.63449
-2.51368
-2.39985
-2.29259
-2.19152
-2.09588
-2.00509
-1.92359
-9.55292
-8.65638
-8.02085
-7.50799
-7.04277
-6.62202
-6.24011
-5.88996
-5.56665
-5.2667
-4.98738
-4.72656
-4.48251
-4.25381
-4.03924
-3.83776
-3.64846
-3.47051
-3.30315
-3.14571
-2.99754
-2.85806
-2.72671
-2.60299
-2.4864
-2.37657
-2.27306
-2.17508
-2.08202
-1.99885
-9.75309
-8.85352
-8.2138
-7.69584
-7.2249
-6.79804
-6.40982
-6.05329
-5.72363
-5.41743
-5.13205
-4.86537
-4.6157
-4.38163
-4.16196
-3.95567
-3.76181
-3.57957
-3.4082
-3.24698
-3.09527
-2.95247
-2.81802
-2.69138
-2.57207
-2.45966
-2.35374
-2.25344
-2.15813
-2.07332
-9.9534
-9.05079
-8.4068
-7.88367
-7.4069
-6.97382
-6.57917
-6.21615
-5.88005
-5.56752
-5.27599
-5.00337
-4.74802
-4.50853
-4.28373
-4.07257
-3.87414
-3.6876
-3.51218
-3.34718
-3.19194
-3.04583
-2.90828
-2.77874
-2.65671
-2.54176
-2.43345
-2.33085
-2.23331
-2.1469
-10.1537
-9.24797
-8.59965
-8.07124
-7.58855
-7.14914
-6.74797
-6.37836
-6.03572
-5.71678
-5.41901
-5.1404
-4.8793
-4.63434
-4.40436
-4.18831
-3.98528
-3.79443
-3.61497
-3.44619
-3.28741
-3.138
-2.99737
-2.86495
-2.74023
-2.62275
-2.51208
-2.4072
-2.30745
-2.21949
-10.3536
-9.44485
-8.79213
-8.25837
-7.76965
-7.32382
-6.91602
-6.53972
-6.19044
-5.86501
-5.56094
-5.27626
-5.00937
-4.75891
-4.52371
-4.30275
-4.0951
-3.89992
-3.71641
-3.54385
-3.38155
-3.22885
-3.08515
-2.94988
-2.82248
-2.70251
-2.5895
-2.48239
-2.38045
-2.29098
-10.5531
-9.64123
-8.98405
-8.44484
-7.94999
-7.49764
-7.08311
-6.70004
-6.34404
-6.01203
-5.7016
-5.4108
-5.13807
-4.88206
-4.64163
-4.41573
-4.20345
-4.00394
-3.81638
-3.64004
-3.47422
-3.31825
-3.17151
-3.03339
-2.90335
-2.78092
-2.6656
-2.55627
-2.45219
-2.36126
-10.7519
-9.8369
-9.1752
-8.63046
-8.12939
-7.67041
-7.24906
-6.85912
-6.49633
-6.15768
-5.84081
-5.54385
-5.26524
-5.00365
-4.75795
-4.52711
-4.3102
-4.10634
-3.91474
-3.73463
-3.5653
-3.40607
-3.25629
-3.11535
-2.98269
-2.85782
-2.74023
-2.62873
-2.52252
-2.43019
-10.9498
-10.0317
-9.36539
-8.81502
-8.30763
-7.84193
-7.41366
-7.01678
-6.64712
-6.30176
-5.97842
-5.67525
-5.39072
-5.12353
-4.87255
-4.63675
-4.41519
-4.207
-4.01135
-3.82748
-3.65466
-3.49217
-3.33938
-3.19564
-3.06037
-2.93309
-2.81325
-2.6996
-2.5913
-2.49761
-11.1467
-10.2254
-9.55441
-8.99832
-8.48452
-8.012
-7.57674
-7.17283
-6.79623
-6.44411
-6.11425
-5.80483
-5.51436
-5.24156
-4.98529
-4.74453
-4.51832
-4.30579
-4.10611
-3.91848
-3.74216
-3.57644
-3.42063
-3.2741
-3.13624
-3.00656
-2.8845
-2.76872
-2.65832
-2.56331
-11.3424
-10.4178
-9.74209
-9.18018
-8.65985
-8.18043
-7.73809
-7.32709
-6.9435
-6.58457
-6.24815
-5.93246
-5.63603
-5.3576
-5.09604
-4.85031
-4.61947
-4.40262
-4.1989
-4.00752
-3.82771
-3.65875
-3.49993
-3.35061
-3.21016
-3.07807
-2.95379
-2.83588
-2.72339
-2.62707
-11.5368
-10.6088
-9.92823
-9.36038
-8.83344
-8.34703
-7.89754
-7.47937
-7.08874
-6.72297
-6.37996
-6.05798
-5.75559
-5.47154
-5.20469
-4.95401
-4.71854
-4.49736
-4.28963
-4.0945
-3.91121
-3.739
-3.57717
-3.42504
-3.28197
-3.14746
-3.02094
-2.90088
-2.78624
-2.68859
-11.7297
-10.7983
-10.1127
-9.53875
-9.00509
-8.51159
-8.05488
-7.62951
-7.2318
-6.85916
-6.50954
-6.18127
-5.87292
-5.58325
-5.31113
-5.05552
-4.81544
-4.58996
-4.37822
-4.17936
-3.99258
-3.81712
-3.65225
-3.49728
-3.35156
-3.21458
-3.08575
-2.96348
-2.8466
-2.74754
-11.9212
-10.986
-10.2952
-9.71506
-9.17457
-8.67392
-8.20993
-7.77732
-7.3725
-6.99298
-6.63676
-6.3022
-5.98791
-5.69265
-5.41528
-5.15476
-4.9101
-4.68036
-4.46462
-4.26204
-4.07178
-3.89306
-3.72513
-3.56728
-3.41884
-3.2793
-3.14806
-3.02344
-2.90413
-2.80353
-12.1112
-11.1717
-10.4755
-9.88908
-9.34167
-8.83381
-8.36251
-7.92262
-7.51069
-7.12428
-6.76148
-6.42066
-6.10045
-5.79963
-5.51706
-5.25168
-5.00248
-4.7685
-4.54882
-4.34254
-4.14881
-3.96683
-3.79581
-3.63503
-3.4838
-3.34157
-3.20777
-3.0806
-2.95857
-2.85601
-12.2999
-11.3554
-10.6535
-10.0606
-9.50616
-8.99104
-8.51241
-8.06525
-7.6462
-7.25294
-6.88357
-6.53653
-6.21046
-5.90413
-5.61641
-5.34622
-5.09255
-4.8544
-4.63081
-4.42088
-4.22372
-4.03849
-3.86439
-3.70064
-3.54653
-3.4015
-3.26497
-3.13504
-3.0098
-2.90442
-12.4884
-11.5371
-10.8287
-10.2292
-9.66773
-9.14534
-8.65939
-8.20499
-7.77887
-7.37878
-7.0029
-6.64969
-6.31781
-6.00605
-5.71326
-5.43835
-5.18028
-4.93803
-4.71063
-4.49712
-4.29659
-4.10817
-3.931
-3.76427
-3.60722
-3.45926
-3.31979
-3.18666
-3.0573
-2.94838
-12.6779
-11.7164
-11.0006
-10.3944
-9.82603
-9.29646
-8.80326
-8.34167
-7.90853
-7.50167
-7.11934
-6.76003
-6.42243
-6.10532
-5.80754
-5.528
-5.26564
-5.0194
-4.78829
-4.57132
-4.36755
-4.17605
-3.99592
-3.82629
-3.66631
-3.51528
-3.37236
-3.23483
-3.09975
-2.98716
-12.8608
-11.8904
-11.1682
-10.5559
-9.98094
-9.44439
-8.94403
-8.47531
-8.03521
-7.62165
-7.23293
-6.8676
-6.52435
-6.20198
-5.89931
-5.61525
-5.3487
-5.0986
-4.86391
-4.64363
-4.43679
-4.24243
-4.05963
-3.88748
-3.72509
-3.57157
-3.42556
-3.28412
-3.14549
-3.028
-15.8989
-15.8801
-15.8519
-15.8193
-15.7815
-15.7377
-15.6878
-15.6318
-15.5697
-15.5014
-15.4271
-15.3466
-15.2603
-15.168
-15.0701
-14.9664
-14.8573
-14.7427
-14.6229
-14.498
-14.3681
-14.2334
-14.094
-13.9503
-13.8023
-13.6503
-13.4945
-13.3355
-13.1738
-13.0121
-14.8638
-14.8498
-14.8274
-14.7987
-14.7637
-14.7223
-14.6747
-14.6209
-14.5608
-14.4947
-14.4225
-14.3443
-14.2602
-14.1703
-14.0747
-13.9736
-13.8669
-13.755
-13.6378
-13.5155
-13.3884
-13.2565
-13.12
-12.9791
-12.8339
-12.6848
-12.5319
-12.3756
-12.2161
-12.054
-14.0229
-14.0126
-13.9948
-13.9701
-13.9388
-13.9012
-13.8572
-13.807
-13.7507
-13.6883
-13.6199
-13.5456
-13.4655
-13.3797
-13.2882
-13.1912
-13.0889
-12.9812
-12.8684
-12.7506
-12.6279
-12.5005
-12.3685
-12.2321
-12.0915
-11.9468
-11.7983
-11.6461
-11.4904
-11.3311
-13.2609
-13.254
-13.2402
-13.2197
-13.1926
-13.1593
-13.1197
-13.074
-13.0223
-12.9645
-12.9009
-12.8314
-12.7563
-12.6755
-12.5891
-12.4974
-12.4003
-12.298
-12.1906
-12.0783
-11.9611
-11.8393
-11.713
-11.5822
-11.4473
-11.3082
-11.1652
-11.0184
-10.8679
-10.7139
-12.5214
-12.5179
-12.5079
-12.4915
-12.4688
-12.4399
-12.4049
-12.3639
-12.3171
-12.2643
-12.2058
-12.1416
-12.0718
-11.9965
-11.9158
-11.8298
-11.7385
-11.6422
-11.5408
-11.4346
-11.3236
-11.208
-11.0879
-10.9634
-10.8348
-10.702
-10.5653
-10.4248
-10.2805
-10.1326
-11.8159
-11.8156
-11.8092
-11.7966
-11.778
-11.7534
-11.7229
-11.6866
-11.6446
-11.5968
-11.5435
-11.4846
-11.4203
-11.3506
-11.2756
-11.1955
-11.1102
-11.02
-10.9248
-10.8249
-10.7204
-10.6112
-10.4977
-10.3799
-10.2579
-10.1318
-10.0018
-9.86798
-9.73042
-9.58925
-11.1494
-11.1519
-11.1487
-11.1396
-11.1247
-11.1041
-11.0778
-11.0459
-11.0084
-10.9654
-10.9171
-10.8633
-10.8043
-10.7401
-10.6707
-10.5963
-10.517
-10.4328
-10.3438
-10.2502
-10.152
-10.0494
-9.94249
-9.83132
-9.71605
-9.59677
-9.47361
-9.34666
-9.21602
-9.08182
-10.5223
-10.5272
-10.5267
-10.5206
-10.509
-10.4919
-10.4693
-10.4413
-10.408
-10.3695
-10.3257
-10.2767
-10.2227
-10.1636
-10.0996
-10.0307
-9.957
-9.87862
-9.79561
-9.70809
-9.61613
-9.51985
-9.41934
-9.31471
-9.20605
-9.09348
-8.97709
-8.85698
-8.73325
-8.60603
-9.93445
-9.94136
-9.9431
-9.93952
-9.93065
-9.91654
-9.89723
-9.87277
-9.84319
-9.80855
-9.7689
-9.7243
-9.6748
-9.62048
-9.56139
-9.4976
-9.42921
-9.35627
-9.27887
-9.1971
-9.11104
-9.02079
-8.92643
-8.82807
-8.72579
-8.61969
-8.50986
-8.39641
-8.27942
-8.15902
-9.38551
-9.39393
-9.39743
-9.39588
-9.38929
-9.37771
-9.36117
-9.33971
-9.31336
-9.28218
-9.2462
-9.20547
-9.16006
-9.11002
-9.05541
-8.9963
-8.93275
-8.86483
-8.79263
-8.71621
-8.63566
-8.55105
-8.46248
-8.37003
-8.27379
-8.17384
-8.07027
-7.96319
-7.85266
-7.73881
-8.87434
-8.88385
-8.88869
-8.88871
-8.88395
-8.87444
-8.8602
-8.84127
-8.81768
-8.78947
-8.75669
-8.71937
-8.67757
-8.63135
-8.58075
-8.52583
-8.46667
-8.40332
-8.33586
-8.26435
-8.18887
-8.10949
-8.02629
-7.93935
-7.84875
-7.75457
-7.6569
-7.55582
-7.45141
-7.34378
-8.39935
-8.40959
-8.41538
-8.41659
-8.41325
-8.40538
-8.39302
-8.37619
-8.35491
-8.32923
-8.29919
-8.26482
-8.22618
-8.1833
-8.13626
-8.08509
-8.02985
-7.97062
-7.90744
-7.84038
-7.76952
-7.69493
-7.61666
-7.5348
-7.44943
-7.36061
-7.26843
-7.17296
-7.07429
-6.9725
-7.95865
-7.9693
-7.97572
-7.97777
-7.97549
-7.96891
-7.95804
-7.94291
-7.92356
-7.9
-7.87228
-7.84045
-7.80453
-7.76458
-7.72065
-7.67278
-7.62104
-7.56547
-7.50614
-7.4431
-7.37642
-7.30617
-7.2324
-7.1552
-7.07462
-6.99074
-6.90363
-6.81337
-6.72003
-6.6237
-7.55014
-7.56095
-7.56771
-7.57032
-7.56881
-7.56319
-7.55349
-7.53973
-7.52194
-7.50015
-7.47439
-7.44471
-7.41113
-7.37372
-7.3325
-7.28754
-7.23887
-7.18656
-7.13065
-7.07121
-7.0083
-6.94197
-6.87228
-6.79931
-6.72311
-6.64375
-6.56131
-6.47585
-6.38743
-6.29615
-7.1716
-7.18237
-7.18926
-7.1922
-7.1912
-7.18628
-7.17748
-7.1648
-7.14827
-7.12794
-7.10382
-7.07595
-7.04438
-7.00915
-6.97029
-6.92786
-6.8819
-6.83247
-6.77961
-6.72338
-6.66384
-6.60103
-6.53503
-6.46589
-6.39367
-6.31844
-6.24026
-6.1592
-6.07532
-5.98871
-6.82084
-6.83139
-6.83825
-6.84133
-6.84064
-6.83621
-6.82807
-6.81623
-6.80072
-6.78157
-6.75882
-6.73249
-6.70262
-6.66926
-6.63245
-6.59223
-6.54865
-6.50175
-6.45159
-6.39822
-6.34169
-6.28206
-6.21937
-6.15369
-6.08508
-6.0136
-5.93931
-5.86227
-5.78255
-5.70023
-6.49566
-6.50589
-6.51258
-6.51565
-6.51511
-6.51101
-6.50334
-6.49215
-6.47745
-6.45927
-6.43764
-6.4126
-6.38419
-6.35244
-6.3174
-6.27911
-6.23761
-6.19295
-6.14518
-6.09436
-6.04052
-5.98372
-5.92402
-5.86146
-5.79611
-5.72803
-5.65728
-5.58391
-5.50799
-5.4296
-6.19398
-6.20381
-6.21023
-6.21318
-6.21268
-6.20876
-6.20143
-6.19072
-6.17665
-6.15926
-6.13857
-6.11462
-6.08744
-6.05708
-6.02358
-5.98697
-5.9473
-5.90462
-5.85897
-5.8104
-5.75897
-5.70471
-5.64769
-5.58795
-5.52555
-5.46055
-5.39301
-5.32298
-5.25053
-5.17575
-5.91383
-5.92319
-5.92928
-5.93204
-5.93148
-5.92764
-5.92053
-5.91018
-5.89662
-5.87986
-5.85995
-5.83692
-5.8108
-5.78163
-5.74946
-5.71432
-5.67627
-5.63533
-5.59157
-5.54502
-5.49573
-5.44376
-5.38915
-5.33195
-5.27222
-5.21001
-5.14537
-5.07838
-5.0091
-4.93763
-5.65337
-5.66223
-5.66795
-5.67045
-5.66977
-5.66594
-5.65896
-5.64888
-5.6357
-5.61947
-5.6002
-5.57795
-5.55274
-5.52461
-5.4936
-5.45976
-5.42312
-5.38374
-5.34165
-5.2969
-5.24955
-5.19963
-5.14719
-5.09229
-5.03497
-4.97528
-4.91329
-4.84906
-4.78265
-4.71419
-5.41089
-5.41925
-5.42456
-5.42677
-5.42593
-5.42205
-5.41514
-5.40524
-5.39237
-5.37656
-5.35784
-5.33625
-5.31182
-5.2846
-5.25461
-5.22191
-5.18654
-5.14853
-5.10795
-5.06482
-5.0192
-4.97113
-4.92065
-4.86783
-4.81269
-4.75529
-4.6957
-4.63397
-4.57018
-4.50446
-5.18485
-5.19269
-5.19758
-5.1995
-5.19845
-5.19448
-5.1876
-5.17783
-5.1652
-5.14974
-5.13148
-5.11046
-5.08672
-5.06028
-5.0312
-4.99952
-4.96527
-4.9285
-4.88925
-4.84758
-4.80352
-4.75713
-4.70844
-4.65749
-4.60434
-4.54903
-4.4916
-4.43214
-4.37071
-4.30748
-4.97382
-4.98115
-4.98563
-4.98723
-4.98597
-4.98189
-4.97499
-4.96531
-4.95287
-4.9377
-4.91984
-4.89932
-4.87617
-4.85044
-4.82216
-4.79137
-4.75813
-4.72247
-4.68444
-4.64409
-4.60145
-4.55657
-4.50949
-4.46026
-4.40892
-4.3555
-4.30005
-4.24264
-4.18333
-4.12235
-4.77652
-4.78335
-4.78742
-4.78871
-4.78723
-4.78302
-4.77609
-4.76647
-4.75418
-4.73926
-4.72174
-4.70165
-4.67903
-4.65392
-4.62636
-4.59639
-4.56405
-4.5294
-4.49246
-4.4533
-4.41195
-4.36846
-4.32286
-4.2752
-4.2255
-4.17382
-4.12017
-4.06461
-4.00719
-3.94822
-4.59178
-4.59813
-4.60181
-4.60279
-4.60109
-4.59674
-4.58976
-4.58018
-4.56801
-4.5533
-4.53608
-4.51638
-4.49423
-4.46968
-4.44276
-4.41353
-4.38202
-4.34827
-4.31234
-4.27426
-4.23409
-4.19186
-4.14762
-4.10139
-4.05322
-4.00312
-3.95112
-3.89725
-3.84148
-3.78432
-4.41855
-4.42444
-4.42773
-4.42841
-4.42649
-4.42199
-4.41495
-4.40538
-4.39332
-4.37879
-4.36182
-4.34246
-4.32073
-4.29668
-4.27034
-4.24177
-4.211
-4.17808
-4.14306
-4.10597
-4.06687
-4.0258
-3.98279
-3.93789
-3.89112
-3.84249
-3.792
-3.73966
-3.68533
-3.62985
-4.25591
-4.26135
-4.26427
-4.26464
-4.26249
-4.25785
-4.25072
-4.24115
-4.22915
-4.21476
-4.19801
-4.17894
-4.15757
-4.13395
-4.10813
-4.08014
-4.05003
-4.01784
-3.98362
-3.94742
-3.90928
-3.86925
-3.82736
-3.78366
-3.73816
-3.69087
-3.64176
-3.5908
-3.53763
-3.48377
-4.10298
-4.10808
-4.1107
-4.11085
-4.10854
-4.1038
-4.09665
-4.08711
-4.07521
-4.06098
-4.04446
-4.02568
-4.00467
-3.98148
-3.95614
-3.92871
-3.89921
-3.86771
-3.83425
-3.79886
-3.76161
-3.72254
-3.68169
-3.6391
-3.59479
-3.54877
-3.50097
-3.45129
-3.39898
-3.34641
-3.95893
-3.96384
-3.96635
-3.96644
-3.96414
-3.95948
-3.95247
-3.94314
-3.93151
-3.91762
-3.9015
-3.88318
-3.8627
-3.84011
-3.81544
-3.78873
-3.76004
-3.72941
-3.69688
-3.66251
-3.62635
-3.58843
-3.54883
-3.50757
-3.46469
-3.4202
-3.37403
-3.326
-3.2749
-3.22387
-3.82304
-3.82716
-3.82897
-3.82846
-3.82566
-3.82059
-3.81327
-3.80373
-3.792
-3.7781
-3.76207
-3.74394
-3.72375
-3.70154
-3.67735
-3.65123
-3.62322
-3.59336
-3.56171
-3.52831
-3.49322
-3.4565
-3.41818
-3.37833
-3.33701
-3.29424
-3.25002
-3.20416
-3.15545
-3.11103
-13.3695
-13.5249
-13.6718
-13.8187
-13.9639
-14.106
-14.2443
-14.3784
-14.5082
-14.6331
-14.7531
-14.8678
-14.9771
-15.0808
-15.1787
-15.2707
-15.3567
-15.4365
-15.51
-15.5772
-15.6379
-15.6921
-15.7398
-15.7808
-15.8153
-15.8431
-15.8645
-15.8794
-15.8883
-15.8927
-12.3352
-12.4946
-12.6473
-12.7966
-12.9424
-13.0843
-13.222
-13.3553
-13.4842
-13.6082
-13.7273
-13.8412
-13.9498
-14.0529
-14.1503
-14.2418
-14.3275
-14.4071
-14.4805
-14.5477
-14.6085
-14.663
-14.711
-14.7525
-14.7875
-14.816
-14.838
-14.8536
-14.8629
-14.866
-11.4839
-11.643
-11.7967
-11.9461
-12.0914
-12.2325
-12.3695
-12.502
-12.6301
-12.7535
-12.872
-12.9854
-13.0936
-13.1965
-13.2939
-13.3856
-13.4715
-13.5515
-13.6255
-13.6935
-13.7552
-13.8108
-13.86
-13.9029
-13.9393
-13.9694
-13.9931
-14.0103
-14.0211
-14.0253
-10.7146
-10.8711
-11.0233
-11.1712
-11.315
-11.4548
-11.5905
-11.7218
-11.8488
-11.9712
-12.0888
-12.2016
-12.3093
-12.4119
-12.5091
-12.6009
-12.6871
-12.7676
-12.8423
-12.9111
-12.9739
-13.0307
-13.0814
-13.1259
-13.1642
-13.1962
-13.222
-13.2414
-13.2544
-13.2609
-9.9785
-10.1315
-10.2809
-10.4264
-10.5679
-10.7056
-10.8393
-10.9688
-11.0941
-11.2149
-11.3313
-11.4429
-11.5497
-11.6515
-11.7483
-11.8397
-11.9259
-12.0065
-12.0816
-12.151
-12.2147
-12.2726
-12.3245
-12.3705
-12.4105
-12.4445
-12.4723
-12.494
-12.5094
-12.5186
-9.28949
-9.43848
-9.5843
-9.72652
-9.86509
-9.99995
-10.131
-10.2581
-10.3811
-10.5
-10.6145
-10.7245
-10.8298
-10.9305
-11.0262
-11.1169
-11.2026
-11.283
-11.358
-11.4277
-11.4918
-11.5504
-11.6033
-11.6504
-11.6918
-11.7274
-11.7571
-11.7808
-11.7986
-11.8103
-8.65276
-8.79734
-8.93908
-9.0775
-9.21251
-9.34403
-9.47194
-9.59611
-9.71641
-9.83271
-9.94487
-10.0528
-10.1563
-10.2552
-10.3495
-10.4391
-10.5237
-10.6034
-10.678
-10.7474
-10.8115
-10.8704
-10.9238
-10.9717
-11.0141
-11.0509
-11.0821
-11.1076
-11.1274
-11.1413
-8.06756
-8.20749
-8.34481
-8.47906
-8.61012
-8.7379
-8.86228
-8.98312
-9.10029
-9.21366
-9.32309
-9.42847
-9.52966
-9.62654
-9.71899
-9.8069
-9.89016
-9.96867
-10.0423
-10.1111
-10.1748
-10.2335
-10.2869
-10.3352
-10.3782
-10.4158
-10.4481
-10.4749
-10.4962
-10.5121
-7.53205
-7.66719
-7.79991
-7.92976
-8.05663
-8.18042
-8.301
-8.41823
-8.53198
-8.64213
-8.74854
-8.85108
-8.94964
-9.04411
-9.13435
-9.22028
-9.30178
-9.37876
-9.45113
-9.51881
-9.58171
-9.63976
-9.69289
-9.74105
-9.78417
-9.8222
-9.8551
-9.88282
-9.90531
-9.92257
-7.04358
-7.1739
-7.30194
-7.42731
-7.54987
-7.66953
-7.78615
-7.8996
-8.00975
-8.11648
-8.21964
-8.31914
-8.41484
-8.50663
-8.59441
-8.67808
-8.75752
-8.83267
-8.90341
-8.96969
-9.03141
-9.08852
-9.14094
-9.18862
-9.2315
-9.26953
-9.30267
-9.33088
-9.35412
-9.37238
-6.59886
-6.7244
-6.84779
-6.96866
-7.08689
-7.20237
-7.31498
-7.42458
-7.53103
-7.63423
-7.73404
-7.83034
-7.92303
-8.01198
-8.09711
-8.17831
-8.25549
-8.32856
-8.39744
-8.46206
-8.52233
-8.5782
-8.62961
-8.67649
-8.7188
-8.7565
-8.78953
-8.81787
-8.84148
-8.86035
-6.19431
-6.31517
-6.43399
-6.55042
-6.66436
-6.77571
-6.88431
-6.99005
-7.0928
-7.19244
-7.28884
-7.38189
-7.47148
-7.5575
-7.63987
-7.71848
-7.79325
-7.86409
-7.93092
-7.99368
-8.0523
-8.10671
-8.15687
-8.2027
-8.24418
-8.28126
-8.31389
-8.34205
-8.36571
-8.38487
-5.82627
-5.94259
-6.05697
-6.16909
-6.27885
-6.38613
-6.49081
-6.59275
-6.69183
-6.78793
-6.88094
-6.97073
-7.0572
-7.14027
-7.21982
-7.29577
-7.36804
-7.43655
-7.50123
-7.56201
-7.61883
-7.67162
-7.72035
-7.76495
-7.80539
-7.84163
-7.87363
-7.90136
-7.9248
-7.94396
-5.49119
-5.60315
-5.71325
-5.8212
-5.92691
-6.03027
-6.13113
-6.22937
-6.32488
-6.41751
-6.50718
-6.59375
-6.67714
-6.75725
-6.83399
-6.90727
-6.97701
-7.04315
-7.10561
-7.16433
-7.21926
-7.27034
-7.31751
-7.36075
-7.4
-7.43524
-7.46642
-7.49353
-7.51655
-7.53547
-5.18572
-5.2935
-5.39949
-5.50346
-5.60529
-5.70487
-5.80206
-5.89673
-5.98877
-6.07805
-6.16446
-6.2479
-6.32827
-6.40548
-6.47943
-6.55006
-6.61729
-6.68105
-6.74128
-6.79792
-6.85091
-6.90021
-6.94576
-6.98754
-7.02551
-7.05962
-7.08986
-7.11621
-7.13863
-7.15715
-4.90674
-5.01053
-5.11262
-5.21279
-5.31091
-5.40689
-5.50057
-5.59183
-5.68054
-5.76659
-5.84986
-5.93026
-6.0077
-6.08208
-6.15332
-6.22136
-6.28611
-6.34753
-6.40554
-6.46009
-6.51114
-6.55863
-6.60254
-6.64281
-6.67943
-6.71235
-6.74156
-6.76704
-6.78876
-6.80674
-4.65143
-4.75142
-4.8498
-4.94636
-5.04098
-5.13353
-5.22387
-5.31187
-5.39741
-5.48036
-5.56063
-5.63811
-5.71272
-5.78437
-5.85299
-5.9185
-5.98085
-6.03997
-6.0958
-6.1483
-6.19743
-6.24313
-6.28538
-6.32414
-6.35937
-6.39106
-6.41919
-6.44373
-6.46467
-6.48203
-4.41722
-4.5136
-4.60847
-4.70162
-4.79292
-4.88224
-4.96942
-5.05433
-5.13685
-5.21686
-5.29425
-5.36894
-5.44084
-5.50987
-5.57596
-5.63904
-5.69905
-5.75595
-5.80967
-5.86017
-5.90741
-5.95135
-5.99196
-6.02921
-6.06307
-6.09352
-6.12053
-6.14411
-6.16422
-6.18089
-4.20183
-4.29478
-4.38633
-4.47627
-4.56445
-4.65072
-4.73492
-4.81692
-4.89657
-4.97378
-5.04845
-5.12047
-5.18978
-5.2563
-5.31996
-5.38071
-5.43848
-5.49323
-5.54491
-5.59348
-5.6389
-5.68113
-5.72014
-5.75591
-5.78841
-5.81762
-5.84353
-5.86611
-5.88537
-5.90132
-4.00321
-4.09289
-4.18133
-4.26826
-4.35353
-4.43694
-4.51834
-4.59757
-4.67452
-4.74908
-4.82115
-4.89064
-4.95748
-5.02161
-5.08296
-5.14147
-5.1971
-5.2498
-5.29952
-5.34623
-5.38989
-5.43046
-5.46793
-5.50226
-5.53343
-5.56143
-5.58624
-5.60785
-5.62625
-5.64146
-3.81955
-3.90612
-3.99164
-4.07579
-4.15832
-4.23906
-4.31783
-4.39447
-4.46886
-4.54091
-4.61051
-4.67759
-4.74209
-4.80394
-4.86309
-4.91948
-4.97306
-5.0238
-5.07165
-5.11658
-5.15855
-5.19754
-5.23352
-5.26646
-5.29636
-5.32318
-5.34692
-5.36758
-5.38513
-5.39961
-3.64922
-3.73284
-3.81567
-3.89723
-3.97724
-4.05549
-4.13179
-4.20598
-4.27796
-4.34763
-4.41489
-4.4797
-4.54197
-4.60165
-4.6587
-4.71307
-4.76471
-4.81358
-4.85965
-4.90288
-4.94325
-4.98072
-5.01528
-5.0469
-5.07556
-5.10126
-5.12397
-5.14369
-5.16042
-5.17418
-3.49075
-3.57157
-3.65197
-3.73118
-3.80885
-3.88479
-3.95878
-4.03067
-4.10037
-4.16778
-4.23284
-4.29547
-4.35563
-4.41326
-4.46833
-4.52077
-4.57057
-4.61767
-4.66204
-4.70367
-4.74251
-4.77854
-4.81174
-4.8421
-4.86959
-4.8942
-4.91593
-4.93476
-4.95069
-4.96374
-3.34276
-3.42099
-3.49927
-3.57636
-3.65191
-3.7257
-3.79753
-3.86725
-3.93479
-4.00007
-4.06303
-4.12361
-4.18176
-4.23745
-4.29063
-4.34126
-4.3893
-4.43473
-4.4775
-4.5176
-4.55499
-4.58966
-4.62158
-4.65073
-4.67711
-4.7007
-4.72148
-4.73947
-4.75464
-4.76702
-3.20401
-3.27992
-3.35649
-3.43173
-3.50535
-3.57715
-3.64695
-3.71463
-3.78012
-3.84338
-3.90434
-3.96298
-4.01923
-4.07308
-4.12447
-4.17338
-4.21976
-4.2636
-4.30486
-4.34351
-4.37954
-4.41291
-4.44362
-4.47164
-4.49696
-4.51957
-4.53947
-4.55664
-4.57109
-4.58282
-3.07332
-3.14759
-3.223
-3.29662
-3.36847
-3.43843
-3.50631
-3.57203
-3.63557
-3.69689
-3.75596
-3.81273
-3.86718
-3.91926
-3.96895
-4.01622
-4.06103
-4.10335
-4.14317
-4.18045
-4.21517
-4.24732
-4.27687
-4.30381
-4.32813
-4.34981
-4.36886
-4.38526
-4.39901
-4.41013
-2.94875
-3.02287
-3.09798
-3.1702
-3.24041
-3.30863
-3.37467
-3.43852
-3.50019
-3.55966
-3.6169
-3.6719
-3.72462
-3.77503
-3.82311
-3.86882
-3.91213
-3.95302
-3.99147
-4.02745
-4.06094
-4.09193
-4.12038
-4.1463
-4.16967
-4.19047
-4.20871
-4.22438
-4.23747
-4.248
-2.82527
-2.90129
-2.97764
-3.04889
-3.1177
-3.18438
-3.24877
-3.31093
-3.37091
-3.42872
-3.48435
-3.53777
-3.58896
-3.6379
-3.68455
-3.72889
-3.7709
-3.81055
-3.84781
-3.88267
-3.9151
-3.94508
-3.9726
-3.99765
-4.02021
-4.04028
-4.05784
-4.07289
-4.08544
-4.09548
-2.69872
-2.77879
-2.85853
-2.92976
-2.99765
-3.06313
-3.1262
-3.18699
-3.2456
-3.30206
-3.35636
-3.40849
-3.45843
-3.50615
-3.55164
-3.59486
-3.6358
-3.67443
-3.71072
-3.74467
-3.77625
-3.80544
-3.83223
-3.8566
-3.87854
-3.89805
-3.91512
-3.92975
-3.94192
-3.95167
-2.60085
-2.6898
-2.7706
-2.84094
-2.90717
-2.97057
-3.03146
-3.09008
-3.14651
-3.2008
-3.25294
-3.30293
-3.35075
-3.39638
-3.43982
-3.48103
-3.52
-3.55672
-3.59117
-3.62333
-3.65318
-3.68072
-3.70593
-3.7288
-3.74933
-3.7675
-3.78332
-3.79679
-3.8079
-3.81666
-0.437924
-0.479594
-0.524531
-0.572996
-0.625451
-0.682384
-0.744331
-0.81192
-0.885888
-0.96709
-1.05653
-1.15537
-1.26498
-1.38696
-1.52316
-1.67575
-1.84721
-2.04044
-2.25872
-2.5058
-2.78587
-3.10355
-3.46382
-3.87188
-4.33314
-4.85313
-5.43282
-6.06588
-6.80647
-7.75708
-0.506872
-0.550874
-0.59745
-0.64776
-0.702251
-0.761328
-0.82553
-0.895501
-0.971988
-1.05586
-1.14813
-1.24997
-1.36278
-1.48815
-1.62797
-1.78441
-1.95999
-2.1576
-2.38055
-2.6326
-2.91793
-3.24117
-3.60726
-4.02133
-4.4887
-5.01475
-5.60023
-6.23832
-6.98202
-7.93175
-0.57665
-0.623024
-0.671267
-0.723456
-0.78002
-0.841281
-0.907778
-0.980174
-1.05923
-1.14581
-1.24096
-1.34586
-1.46191
-1.59075
-1.73424
-1.89461
-2.07436
-2.27643
-2.50413
-2.76122
-3.0519
-3.38075
-3.75271
-4.17283
-4.64631
-5.17833
-5.76936
-6.41206
-7.15815
-8.10623
-0.6472
-0.695985
-0.745918
-0.800018
-0.85869
-0.922171
-0.991
-1.06586
-1.14752
-1.23686
-1.33493
-1.44293
-1.56228
-1.69462
-1.84185
-2.00619
-2.19018
-2.39676
-2.62926
-2.89145
-3.18751
-3.52203
-3.89989
-4.32607
-4.80565
-5.3436
-5.94012
-6.58746
-7.3366
-8.28504
-0.718475
-0.769706
-0.821352
-0.877395
-0.938209
-1.00394
-1.07514
-1.1525
-1.2368
-1.32894
-1.42998
-1.54113
-1.66382
-1.79971
-1.95073
-2.11909
-2.30737
-2.51851
-2.75587
-3.0232
-3.3247
-3.66493
-4.04872
-4.48099
-4.96668
-5.51058
-6.1126
-6.76468
-7.51729
-8.46722
-0.790425
-0.844131
-0.897512
-0.955527
-1.01852
-1.08654
-1.16014
-1.24004
-1.32702
-1.422
-1.52604
-1.64038
-1.76646
-1.90595
-2.06079
-2.23323
-2.42585
-2.64161
-2.88387
-3.1564
-3.46338
-3.80936
-4.19913
-4.63751
-5.12933
-5.67919
-6.28675
-6.94363
-7.69989
-8.65182
-0.863002
-0.919206
-0.974341
-1.03436
-1.09955
-1.1699
-1.24593
-1.3284
-1.4181
-1.51596
-1.62304
-1.74062
-1.87012
-2.01326
-2.17197
-2.34853
-2.54554
-2.76596
-3.01317
-3.29094
-3.60346
-3.95523
-4.351
-4.79552
-5.2935
-5.84935
-6.46249
-7.12422
-7.88423
-8.83845
-0.936155
-0.994876
-1.05178
-1.11383
-1.18126
-1.25396
-1.33246
-1.41753
-1.50998
-1.61074
-1.72091
-1.84175
-1.97472
-2.12154
-2.28417
-2.4649
-2.66633
-2.89146
-3.14367
-3.42673
-3.74481
-4.10241
-4.50421
-4.95491
-5.45907
-6.02093
-6.63968
-7.3063
-8.07017
-9.02686
-1.00984
-1.07109
-1.12978
-1.19388
-1.26358
-1.33865
-1.41965
-1.50735
-1.60258
-1.70629
-1.81957
-1.94371
-2.08019
-2.23072
-2.39731
-2.58224
-2.78814
-3.01802
-3.27526
-3.56365
-3.88733
-4.25079
-4.65866
-5.11555
-5.62591
-6.1938
-6.81818
-7.48973
-8.2575
-9.21677
-1.084
-1.14779
-1.20827
-1.27446
-1.34645
-1.42393
-1.50745
-1.5978
-1.69584
-1.80252
-1.91895
-2.04642
-2.18643
-2.34072
-2.51129
-2.70046
-2.91087
-3.14553
-3.40785
-3.70159
-4.03091
-4.40026
-4.81422
-5.27732
-5.79389
-6.36782
-6.99784
-7.67433
-8.44602
-9.40792
-1.1586
-1.22492
-1.28721
-1.35551
-1.42982
-1.50972
-1.59578
-1.68882
-1.7897
-1.89937
-2.01896
-2.14979
-2.29337
-2.45144
-2.62603
-2.81947
-3.03442
-3.2739
-3.54131
-3.84044
-4.17543
-4.55068
-4.97075
-5.44007
-5.96286
-6.54284
-7.17849
-7.85991
-8.63555
-9.6001
-1.23359
-1.30245
-1.36655
-1.43697
-1.51362
-1.59597
-1.6846
-1.78034
-1.88407
-1.99676
-2.11954
-2.25375
-2.40092
-2.5628
-2.74143
-2.93917
-3.15868
-3.403
-3.67554
-3.98009
-4.32076
-4.70194
-5.12813
-5.60368
-6.13268
-6.71869
-7.35997
-8.04631
-8.82586
-9.79308
-1.30894
-1.38032
-1.44624
-1.5188
-1.59781
-1.68262
-1.77383
-1.8723
-1.97889
-2.09461
-2.22061
-2.35822
-2.50899
-2.6747
-2.8574
-3.05946
-3.28355
-3.53274
-3.81043
-4.1204
-4.46677
-4.85389
-5.28621
-5.76798
-6.30319
-6.89522
-7.54209
-8.23332
-9.01677
-9.98666
-1.38462
-1.4585
-1.52622
-1.60095
-1.68233
-1.76962
-1.86342
-1.96462
-2.0741
-2.19286
-2.32208
-2.4631
-2.61749
-2.78705
-2.97383
-3.18023
-3.40893
-3.66299
-3.94585
-4.26126
-4.61334
-5.00641
-5.44485
-5.93284
-6.47423
-7.07225
-7.72468
-8.42077
-9.20807
-10.1806
-1.46059
-1.53695
-1.60647
-1.68337
-1.76713
-1.85691
-1.95331
-2.05724
-2.1696
-2.29142
-2.42387
-2.56832
-2.72634
-2.89975
-3.09063
-3.30137
-3.53469
-3.79364
-4.08167
-4.40254
-4.76033
-5.15934
-5.60389
-6.09808
-6.64564
-7.24961
-7.90756
-8.60844
-9.39956
-10.3747
-1.53685
-1.61564
-1.68694
-1.76602
-1.85217
-1.94442
-2.04342
-2.15009
-2.26535
-2.39022
-2.5259
-2.67377
-2.83543
-3.0127
-3.20768
-3.42277
-3.66071
-3.92457
-4.21777
-4.5441
-4.9076
-5.31254
-5.76319
-6.26356
-6.81725
-7.42712
-8.09054
-8.79616
-9.59104
-10.5688
-1.61338
-1.69455
-1.76761
-1.84886
-1.93739
-2.03212
-2.13371
-2.2431
-2.36124
-2.48916
-2.62807
-2.77937
-2.94466
-3.12579
-3.32487
-3.54433
-3.78689
-4.05564
-4.35403
-4.6858
-5.055
-5.46586
-5.92259
-6.4291
-6.98887
-7.6046
-8.27342
-8.98372
-9.78231
-10.7627
-1.69017
-1.77366
-1.84844
-1.93185
-2.02274
-2.11993
-2.22409
-2.3362
-2.4572
-2.58816
-2.73029
-2.88501
-3.05392
-3.23891
-3.44209
-3.6659
-3.91308
-4.18674
-4.49029
-4.8275
-5.20239
-5.61915
-6.08193
-6.59454
-7.16035
-7.78187
-8.45603
-9.17093
-9.97317
-10.9561
-1.76725
-1.85296
-1.92941
-2.01496
-2.10818
-2.20779
-2.3145
-2.42929
-2.55315
-2.68712
-2.83245
-2.99057
-3.16311
-3.35194
-3.55922
-3.78737
-4.03917
-4.31771
-4.62642
-4.96906
-5.34962
-5.77224
-6.24103
-6.75971
-7.33149
-7.95875
-8.63816
-9.35759
-10.1634
-11.1489
-1.84464
-1.93246
-2.0105
-2.09812
-2.19364
-2.29563
-2.40484
-2.52229
-2.64896
-2.78593
-2.93445
-3.09595
-3.27209
-3.46476
-3.67611
-3.9086
-4.16501
-4.44842
-4.76228
-5.11032
-5.49652
-5.92498
-6.39974
-6.92442