/*--------------------------------*- C++ -*----------------------------------*\
  =========                 |
  \\      /  F ield         | OpenFOAM: The Open Source CFD Toolbox
   \\    /   O peration     | Website:  https://openfoam.org
    \\  /    A nd           | Version:  6.0
     \\/     M anipulation  |
\*---------------------------------------------------------------------------*/
FoamFile
{
    version     2.0;
    format      ascii;
    class       volVectorField;
    location    "14.25";
    object      U;
}
// * * * * * * * * * * * * * * * * * * * * * * * * * * * * * * * * * * * * * //

dimensions      [0 1 -1 0 0 0 0];

internalField   nonuniform List<vector> 
2400
(
(0.0179195 -0.434409 -1.30402e-20)
(0.00559196 -0.337498 5.91987e-21)
(-0.00381174 -0.264341 -6.61534e-21)
(-0.0107341 -0.209293 -4.31792e-21)
(-0.0151692 -0.167712 -7.5876e-21)
(-0.0172221 -0.135972 1.05052e-20)
(-0.0173386 -0.111336 4.30549e-21)
(-0.016031 -0.0917812 4.06727e-21)
(-0.0137881 -0.0758299 -9.49218e-21)
(-0.0116054 -0.0624423 -7.44795e-22)
(0.0515533 -0.428073 1.45356e-20)
(0.0320316 -0.329931 -1.50943e-21)
(0.0183905 -0.257695 3.10832e-21)
(0.00939392 -0.20463 4.07101e-20)
(0.00446753 -0.165414 -3.11566e-20)
(0.00306917 -0.135976 -1.65815e-21)
(0.00441834 -0.113298 -3.64602e-22)
(0.00776255 -0.0951638 -4.21713e-21)
(0.0124547 -0.0799443 -7.51277e-21)
(0.0171759 -0.0665561 -3.06273e-21)
(0.0844257 -0.419545 2.68253e-20)
(0.0579816 -0.321552 2.78016e-20)
(0.0410244 -0.251283 -8.07442e-20)
(0.0311781 -0.200986 2.68874e-20)
(0.0271218 -0.164719 4.49791e-20)
(0.027797 -0.138025 -2.60847e-20)
(0.0320464 -0.117644 -2.2609e-20)
(0.0388619 -0.101165 2.14367e-20)
(0.0474379 -0.0867751 -4.90839e-20)
(0.0560301 -0.0733335 5.344e-20)
(0.116516 -0.40906 -9.38458e-20)
(0.08374 -0.312823 4.76364e-20)
(0.0646344 -0.245611 -4.74309e-20)
(0.0553428 -0.198811 2.44891e-20)
(0.0536335 -0.16599 -2.86321e-20)
(0.0578552 -0.142396 4.62015e-20)
(0.0664404 -0.124591 2.52294e-20)
(0.078119 -0.109988 -7.65216e-20)
(0.0919376 -0.0965348 -7.53844e-20)
(0.105622 -0.0830056 9.07231e-20)
(0.147848 -0.396842 3.85613e-21)
(0.10976 -0.304115 -1.85354e-20)
(0.0899984 -0.241017 -8.33396e-21)
(0.0828928 -0.198312 -1.04462e-20)
(0.0851461 -0.169254 -7.10797e-20)
(0.0944474 -0.14894 1.17291e-20)
(0.108794 -0.133856 -7.87549e-21)
(0.12666 -0.121282 8.36882e-20)
(0.146972 -0.108879 -5.92512e-20)
(0.166827 -0.095294 -4.42384e-20)
(0.178521 -0.383113 9.0734e-20)
(0.136661 -0.29571 -9.38447e-21)
(0.118113 -0.237654 1.44741e-19)
(0.11508 -0.199416 -1.8733e-20)
(0.123062 -0.174164 9.18933e-20)
(0.139032 -0.157019 -1.0521e-20)
(0.160531 -0.144542 -8.79943e-22)
(0.185796 -0.133984 6.83549e-20)
(0.213693 -0.12271 -3.84048e-20)
(0.24062 -0.109205 7.60418e-20)
(0.208714 -0.368075 -3.43783e-20)
(0.165213 -0.287776 1.24326e-20)
(0.150147 -0.235483 -3.71542e-20)
(0.153328 -0.20178 -4.69579e-20)
(0.168946 -0.180009 -5.08977e-21)
(0.193209 -0.165515 1.56616e-19)
(0.223184 -0.155134 -5.66342e-20)
(0.256889 -0.146274 2.83981e-20)
(0.293232 -0.136094 -9.85111e-20)
(0.327929 -0.122929 -6.43317e-20)
(0.238694 -0.351901 1.65533e-19)
(0.196304 -0.280349 -1.90497e-20)
(0.187358 -0.234259 -2.01729e-19)
(0.199097 -0.204812 1.14693e-20)
(0.224337 -0.185785 4.99289e-20)
(0.258487 -0.172929 -7.50306e-20)
(0.29811 -0.163565 -1.01875e-19)
(0.341009 -0.155541 1.55942e-19)
(0.386319 -0.146045 -1.32483e-20)
(0.429326 -0.133456 -1.4851e-19)
(0.268809 -0.33471 -1.39046e-19)
(0.230872 -0.273288 8.34669e-20)
(0.230961 -0.233528 1.3325e-19)
(0.253709 -0.207739 3.66756e-20)
(0.290551 -0.190348 -1.44449e-19)
(0.336065 -0.177601 9.65938e-20)
(0.386233 -0.167387 6.06136e-20)
(0.438526 -0.158146 1.29028e-19)
(0.492458 -0.147399 -7.90395e-20)
(0.543778 -0.13451 -1.19397e-19)
(0.29945 -0.316485 4.73861e-20)
(0.269776 -0.266207 -1.98523e-20)
(0.281934 -0.232629 -6.65143e-22)
(0.318132 -0.209736 4.17543e-20)
(0.36855 -0.192802 3.58584e-20)
(0.427056 -0.178541 -2.54108e-20)
(0.489125 -0.165184 -5.16972e-20)
(0.551691 -0.151414 8.31453e-20)
(0.613851 -0.135263 -7.0997e-20)
(0.672263 -0.119013 6.6781e-20)
(0.617162 -0.00932289 4.21836e-21)
(0.590682 -0.0551993 1.21744e-20)
(0.561092 -0.0972387 -4.0718e-20)
(0.52934 -0.135402 3.57487e-20)
(0.496261 -0.169796 1.34453e-20)
(0.462574 -0.200667 1.66844e-19)
(0.428852 -0.228361 -6.38135e-20)
(0.395507 -0.2533 -8.5519e-20)
(0.362812 -0.275964 8.86951e-20)
(0.330874 -0.296876 -1.53621e-19)
(0.832272 0.0174664 1.51987e-20)
(0.779472 -0.0410224 -4.87895e-21)
(0.721072 -0.0920465 -4.10283e-20)
(0.659237 -0.135261 1.08743e-19)
(0.59602 -0.170737 -3.63038e-20)
(0.533286 -0.198933 2.73379e-19)
(0.472614 -0.220641 -1.68561e-19)
(0.415245 -0.236927 2.40427e-19)
(0.36205 -0.249057 -1.63615e-19)
(0.313523 -0.2584 -8.35426e-20)
(1.01786 0.0670756 -3.03598e-20)
(0.954317 -0.000581215 4.4694e-21)
(0.881873 -0.0598969 -1.31738e-19)
(0.803196 -0.109944 1.01342e-19)
(0.721034 -0.150338 -1.02457e-19)
(0.638058 -0.181244 -1.91744e-19)
(0.556696 -0.203359 -6.21345e-20)
(0.479007 -0.217864 -5.31045e-20)
(0.406605 -0.226345 1.67932e-19)
(0.34065 -0.230658 8.6649e-20)
(1.16798 0.117189 1.39449e-20)
(1.10373 0.0444466 -2.44012e-20)
(1.02741 -0.0206276 -3.30331e-20)
(0.941658 -0.0765435 -1.29512e-19)
(0.849413 -0.122342 7.54517e-20)
(0.753761 -0.157669 2.1832e-19)
(0.657707 -0.18282 9.40228e-20)
(0.563983 -0.198757 1.82047e-20)
(0.474901 -0.207086 4.9785e-20)
(0.392371 -0.209964 -1.6346e-21)
(1.28277 0.159907 -1.65346e-20)
(1.22407 0.0857641 -6.49246e-20)
(1.15084 0.0178314 8.74323e-21)
(1.06525 -0.0419912 1.12664e-19)
(0.970035 -0.092224 1.15709e-19)
(0.86828 -0.131935 -7.62747e-20)
(0.763222 -0.160865 -1.42025e-19)
(0.65799 -0.179546 -6.85113e-20)
(0.555387 -0.189394 8.03291e-20)
(0.457935 -0.192784 1.09569e-19)
(1.36577 0.19338 3.46169e-21)
(1.3161 0.1207 5.54212e-20)
(1.25037 0.0524899 -1.29753e-19)
(1.17008 -0.00913922 1.62518e-19)
(1.0774 -0.0623237 9.58085e-20)
(0.975085 -0.105603 1.73785e-19)
(0.866236 -0.138106 -3.71514e-20)
(0.754033 -0.159789 -9.89273e-20)
(0.641386 -0.1717 2.34316e-19)
(0.530984 -0.176437 -1.90321e-19)
(1.42204 0.217546 8.56996e-21)
(1.38278 0.148278 -6.69339e-20)
(1.3269 0.0817855 -4.15943e-20)
(1.25516 0.0202017 -8.87963e-20)
(1.169 -0.034395 -1.25431e-20)
(1.07056 -0.080124 -1.30622e-19)
(0.96251 -0.115505 -8.07895e-20)
(0.847741 -0.139793 -1.67507e-20)
(0.728746 -0.153466 -1.45911e-19)
(0.607423 -0.159362 2.07302e-19)
(1.45688 0.233386 -7.61559e-21)
(1.42796 0.168623 5.61641e-20)
(1.38275 0.105176 -2.49589e-20)
(1.32127 0.0450444 5.58395e-20)
(1.2442 -0.00964795 1.36982e-19)
(1.15296 -0.0567394 2.22829e-19)
(1.04962 -0.0941784 -6.40708e-20)
(0.936538 -0.120361 -2.19486e-19)
(0.815268 -0.134776 5.96563e-20)
(0.685255 -0.140267 -3.42145e-19)
(1.47503 0.242519 1.11316e-20)
(1.45554 0.182577 -1.32545e-20)
(1.4207 0.122778 -1.36061e-19)
(1.36995 0.0648713 4.15485e-20)
(1.3033 0.0108695 -9.63281e-20)
(1.22147 -0.0369478 -3.992e-20)
(1.1259 -0.0760461 -3.18915e-20)
(1.01844 -0.103775 9.14574e-20)
(0.899698 -0.117731 1.05476e-19)
(0.764699 -0.118953 6.42737e-20)
(1.48025 0.246553 -2.73644e-20)
(1.46879 0.191556 4.90197e-20)
(1.44338 0.135678 2.28269e-20)
(1.40302 0.0803316 6.96616e-20)
(1.34715 0.0272699 -8.01995e-21)
(1.27586 -0.0213083 -5.35998e-21)
(1.19009 -0.0626178 -1.80523e-19)
(1.09157 -0.0931087 2.30154e-19)
(0.981053 -0.107965 -1.42432e-19)
(0.847816 -0.102428 2.97024e-20)
(0.537755 0.499726 -5.93511e-20)
(0.577561 0.460291 6.85256e-20)
(0.611015 0.415419 1.16153e-21)
(0.637445 0.366075 -1.69975e-19)
(0.656347 0.313347 1.26438e-19)
(0.667488 0.258428 -9.49358e-20)
(0.670918 0.202538 -2.31582e-20)
(0.666952 0.146853 -2.2092e-20)
(0.656164 0.0924404 3.66157e-20)
(0.639331 0.0401817 2.54284e-21)
(0.752635 0.674258 8.89298e-20)
(0.812931 0.631825 2.37219e-20)
(0.863846 0.579272 -1.23161e-19)
(0.903834 0.518149 -1.51076e-19)
(0.93165 0.450254 1.19639e-19)
(0.946479 0.377616 -1.07505e-19)
(0.948002 0.302398 1.28318e-19)
(0.936415 0.22679 -3.36699e-20)
(0.912433 0.152896 -1.12721e-19)
(0.877248 0.082597 -8.47495e-21)
(0.886712 0.754936 -6.79068e-21)
(0.958887 0.718503 2.11117e-21)
(1.02162 0.669742 8.20711e-20)
(1.0728 0.610133 8.32918e-20)
(1.11063 0.541468 1.91533e-19)
(1.13373 0.465842 6.87907e-20)
(1.14124 0.385578 -4.64444e-20)
(1.13283 0.30314 -1.02313e-19)
(1.1088 0.221021 8.29774e-20)
(1.07003 0.14161 5.7095e-21)
(0.968384 0.77485 2.39266e-20)
(1.04642 0.746726 -5.66954e-20)
(1.11623 0.705772 -2.79826e-20)
(1.17544 0.653157 -1.58883e-19)
(1.22193 0.590362 -9.71349e-20)
(1.25394 0.519202 1.87102e-19)
(1.27013 0.441773 1.27343e-19)
(1.26963 0.360395 -1.07259e-19)
(1.25215 0.277524 4.98833e-21)
(1.21799 0.195654 -4.7884e-21)
(1.01663 0.758627 -6.48435e-20)
(1.0964 0.738276 1.09498e-19)
(1.16956 0.705649 -2.85704e-20)
(1.23363 0.661532 8.65254e-20)
(1.2864 0.60702 -6.04164e-20)
(1.32595 0.543545 -1.1316e-19)
(1.35064 0.472832 6.03755e-20)
(1.35924 0.396866 -6.38668e-20)
(1.35091 0.317834 -6.37759e-20)
(1.32536 0.238062 2.79655e-20)
(1.04447 0.723182 -1.17325e-20)
(1.12343 0.709111 2.00343e-20)
(1.19724 0.683916 -1.92801e-20)
(1.26343 0.64796 -1.64575e-19)
(1.3199 0.601971 9.47951e-20)
(1.36477 0.547023 1.89628e-20)
(1.39637 0.484468 -1.04401e-19)
(1.41325 0.415912 -3.85405e-20)
(1.41424 0.343183 3.60894e-20)
(1.39856 0.268296 -1.02145e-20)
(1.06054 0.679231 -1.49562e-20)
(1.13751 0.669883 5.33244e-21)
(1.21024 0.650833 2.65005e-20)
(1.27639 0.62194 9.33575e-20)
(1.3342 0.583642 2.36606e-20)
(1.38205 0.53675 6.01298e-20)
(1.41839 0.482316 1.27851e-19)
(1.44179 0.421614 -5.47441e-20)
(1.4509 0.356119 5.12827e-20)
(1.44461 0.287493 -1.92976e-20)
(1.07034 0.633219 -1.4526e-20)
(1.145 0.627665 2.12074e-20)
(1.21553 0.613628 2.06039e-20)
(1.27997 0.59049 -4.83647e-20)
(1.33717 0.558581 -3.17322e-20)
(1.38593 0.518599 -6.61946e-20)
(1.42493 0.471408 9.32468e-21)
(1.45283 0.418036 -1.56392e-20)
(1.46829 0.359664 -1.09554e-19)
(1.47003 0.297623 1.54136e-20)
(1.07806 0.589493 -2.28024e-21)
(1.14972 0.587475 -1.51762e-20)
(1.21686 0.577458 -1.7322e-20)
(1.27822 0.558684 1.07346e-20)
(1.33336 0.531683 -4.57507e-21)
(1.38146 0.497197 5.88757e-20)
(1.42142 0.455992 2.66138e-20)
(1.45205 0.408922 4.29936e-20)
(1.47206 0.356934 5.27999e-20)
(1.48015 0.301081 -2.2718e-20)
(1.08989 0.549585 -2.5428e-21)
(1.15665 0.549006 2.49893e-20)
(1.21831 0.541481 -6.88912e-20)
(1.2749 0.525797 -4.76387e-21)
(1.32652 0.502638 8.97308e-20)
(1.37252 0.47276 4.39722e-21)
(1.41188 0.436809 5.38838e-20)
(1.44354 0.395455 -1.19244e-19)
(1.46633 0.349424 -1.45447e-21)
(1.479 0.299504 1.22134e-20)
(0.597013 0.19362 -9.33887e-21)
(0.556237 0.209162 3.19077e-21)
(0.509543 0.227713 1.05233e-21)
(0.456146 0.250415 -1.69701e-20)
(0.395117 0.278751 7.52699e-21)
(0.325947 0.314259 2.22575e-20)
(0.24906 0.357895 -2.06661e-20)
(0.166727 0.408667 -5.2929e-21)
(0.0871515 0.461062 -6.34289e-21)
(0.0323512 0.50062 -2.2966e-20)
(0.619496 0.251286 -2.56841e-20)
(0.580622 0.271645 5.24108e-20)
(0.535861 0.295459 -4.81754e-20)
(0.484752 0.323604 -8.157e-21)
(0.426422 0.357091 1.35378e-20)
(0.360343 0.39649 -1.58994e-20)
(0.286827 0.441002 -4.48423e-20)
(0.207782 0.486706 5.18377e-20)
(0.13048 0.523317 -8.37855e-23)
(0.0748956 0.528708 2.32234e-20)
(0.649461 0.306129 -8.55573e-20)
(0.61321 0.331069 8.81915e-20)
(0.571074 0.35991 3.07002e-20)
(0.523004 0.393205 1.68429e-21)
(0.468129 0.431488 1.96032e-20)
(0.405777 0.474366 7.71678e-21)
(0.335917 0.519311 -1.27632e-20)
(0.259692 0.559565 -2.80477e-20)
(0.18272 0.580324 -2.04845e-20)
(0.121569 0.552403 2.96628e-20)
(0.686539 0.357158 -7.07627e-20)
(0.653545 0.386331 6.43596e-20)
(0.614663 0.419833 5.16228e-20)
(0.570316 0.45782 -3.52143e-20)
(0.519578 0.500342 -1.29689e-19)
(0.461499 0.546073 4.17691e-20)
(0.395491 0.590821 -2.99824e-20)
(0.321554 0.62517 8.17389e-20)
(0.243002 0.630232 7.16684e-20)
(0.171781 0.570735 -6.26084e-20)
(0.730214 0.403485 -5.0674e-20)
(0.700991 0.436436 2.23318e-20)
(0.665904 0.474106 -6.18044e-20)
(0.625871 0.516158 4.84552e-20)
(0.579835 0.562173 -2.31807e-20)
(0.526446 0.609925 -1.94678e-20)
(0.46435 0.653672 -1.95058e-20)
(0.392077 0.681602 -3.15871e-21)
(0.310084 0.67135 -2.83034e-20)
(0.224721 0.582841 -1.66274e-20)
(0.779804 0.444351 1.26892e-19)
(0.754725 0.480533 2.51294e-20)
(0.723862 0.521742 -8.39542e-20)
(0.688617 0.56707 7.8388e-20)
(0.647703 0.615647 3.59799e-20)
(0.599252 0.664407 5.80055e-20)
(0.540959 0.706201 -3.35398e-21)
(0.469615 0.727169 3.52136e-20)
(0.382401 0.70222 8.79816e-21)
(0.279401 0.588024 3.34507e-20)
(0.834436 0.479162 -1.37004e-19)
(0.813717 0.517931 1.53603e-19)
(0.787386 0.561915 -7.4005e-20)
(0.757268 0.609567 -4.16486e-20)
(0.721734 0.659609 5.38618e-22)
(0.678273 0.70821 -5.6158e-20)
(0.62348 0.746994 3.80427e-20)
(0.552209 0.760464 4.24176e-20)
(0.458117 0.721675 5.91375e-21)
(0.334699 0.585774 -2.48233e-20)
(0.892986 0.50759 -1.00106e-20)
(0.876685 0.548134 -5.9537e-20)
(0.855082 0.593949 2.52173e-20)
(0.830316 0.642813 -5.22551e-21)
(0.800247 0.693089 -1.99278e-20)
(0.76162 0.740254 9.72295e-21)
(0.709818 0.774915 -3.72131e-21)
(0.637648 0.78041 -9.04476e-21)
(0.535186 0.728889 7.61645e-21)
(0.389404 0.575799 -9.06667e-21)
(0.954049 0.529785 2.07567e-20)
(0.942083 0.571058 6.6018e-21)
(0.92541 0.61747 -4.19255e-20)
(0.906146 0.666213 3.17337e-20)
(0.88143 0.715348 -1.39351e-20)
(0.847235 0.759723 -3.68635e-21)
(0.797688 0.78915 -8.88038e-21)
(0.723545 0.786303 -2.0012e-21)
(0.611443 0.723414 -5.63776e-20)
(0.442285 0.558051 3.46682e-20)
(1.01428 0.54347 -2.64679e-20)
(1.0063 0.584619 1.87088e-20)
(0.995641 0.630942 -4.81809e-21)
(0.982499 0.678717 -3.34667e-21)
(0.963096 0.725609 -1.2117e-20)
(0.932831 0.765984 -5.99625e-21)
(0.884656 0.789196 8.07665e-21)
(0.807418 0.777818 3.98553e-20)
(0.684703 0.705171 5.23157e-20)
(0.492165 0.532692 7.64455e-21)
(0.76971 -0.317353 1.56902e-19)
(0.740539 -0.338652 -9.51845e-20)
(0.703419 -0.35808 3.60922e-20)
(0.657771 -0.37052 -8.21118e-20)
(0.598829 -0.371269 -5.36403e-20)
(0.520554 -0.352806 -8.29345e-20)
(0.415349 -0.304218 -1.00486e-19)
(0.273674 -0.211118 -4.5882e-20)
(0.0842206 -0.0552479 -6.33441e-20)
(-0.167433 0.186277 3.1066e-20)
(0.727022 -0.283997 -9.41774e-20)
(0.696765 -0.303872 -7.58298e-20)
(0.65782 -0.32244 1.30683e-19)
(0.610503 -0.335123 6.4199e-20)
(0.551075 -0.33711 9.51525e-20)
(0.47423 -0.320848 -1.59857e-19)
(0.373359 -0.275282 5.48788e-20)
(0.240336 -0.185544 1.12076e-19)
(0.0662336 -0.0322228 7.61317e-20)
(-0.158734 0.209913 -8.013e-20)
(0.687069 -0.244395 4.44176e-20)
(0.654877 -0.262252 -1.75811e-20)
(0.614327 -0.279215 1.85639e-19)
(0.565458 -0.291157 -1.11598e-19)
(0.505256 -0.293313 -9.08122e-20)
(0.429274 -0.278312 5.21462e-20)
(0.332023 -0.235287 -7.32045e-22)
(0.207006 -0.149414 -2.25459e-19)
(0.048024 -0.000978181 -9.08817e-21)
(-0.149471 0.236198 7.04995e-20)
(0.652138 -0.200442 2.94228e-19)
(0.617594 -0.215513 -1.33571e-19)
(0.575184 -0.229806 4.48049e-20)
(0.524601 -0.239749 -7.64363e-20)
(0.463336 -0.240809 1.99167e-19)
(0.387754 -0.225955 -1.05613e-20)
(0.293515 -0.184795 -3.73087e-20)
(0.175826 -0.103054 5.7187e-21)
(0.0313885 0.038391 1.85225e-20)
(-0.138819 0.265132 -9.20055e-20)
(0.623012 -0.152049 -2.54492e-19)
(0.586094 -0.16377 -2.69548e-21)
(0.541782 -0.17462 1.00202e-19)
(0.489472 -0.181568 -4.87097e-21)
(0.427046 -0.180427 -1.14489e-20)
(0.351609 -0.164665 1.30741e-19)
(0.259925 -0.124649 -2.43694e-20)
(0.148892 -0.047167 2.9966e-20)
(0.0181051 0.0854064 5.76322e-21)
(-0.12597 0.296492 1.22706e-19)
(0.6003 -0.0996039 9.37279e-21)
(0.561257 -0.107508 -1.44815e-19)
(0.515233 -0.114314 1.30322e-19)
(0.461384 -0.117459 -1.14221e-20)
(0.397911 -0.113169 2.19865e-20)
(0.322576 -0.0955508 -1.10404e-19)
(0.233165 -0.0559865 -1.64677e-20)
(0.128156 0.0171863 -8.21506e-21)
(0.00985334 0.139228 -5.70613e-20)
(-0.110162 0.329855 -2.67076e-20)
(0.584524 -0.0438311 1.31337e-19)
(0.543794 -0.0475076 -1.21406e-19)
(0.496433 -0.0497762 -5.75122e-21)
(0.441418 -0.0484631 -1.43555e-19)
(0.377213 -0.0402361 7.81776e-20)
(0.302147 -0.0199474 -4.93483e-20)
(0.2149 0.0197758 4.12691e-20)
(0.115341 0.0886205 -7.88827e-20)
(0.00813318 0.198694 -7.35917e-20)
(-0.0907144 0.364614 -5.20021e-20)
(0.57609 0.0143918 8.23119e-20)
(0.534256 0.015278 -8.10412e-20)
(0.486072 0.0179305 3.58609e-20)
(0.43042 0.0242114 2.5221e-20)
(0.365974 0.0369964 -4.64745e-20)
(0.291528 0.0606044 7.96122e-20)
(0.206499 0.100979 4.83503e-20)
(0.111879 0.165469 -1.46344e-19)
(0.0142009 0.262366 2.45251e-20)
(-0.0670711 0.400008 6.26368e-20)
(0.575277 0.0740819 8.73144e-20)
(0.533029 0.0797677 -1.28467e-20)
(0.484643 0.0876114 -7.35509e-21)
(0.428999 0.0992181 -5.86649e-22)
(0.364943 0.117002 3.12183e-20)
(0.291623 0.144392 -9.19102e-20)
(0.209002 0.185758 7.55015e-20)
(0.118869 0.245831 5.86162e-21)
(0.0290213 0.328574 -2.74082e-21)
(-0.0388268 0.435153 4.57787e-20)
(0.582242 0.134185 -2.5341e-20)
(0.540338 0.144796 -2.5867e-21)
(0.492436 0.15798 6.80856e-21)
(0.43753 0.175114 7.55155e-21)
(0.374596 0.198147 1.89879e-20)
(0.303014 0.229577 -1.36742e-20)
(0.223089 0.272095 -8.00107e-21)
(0.137044 0.327626 -1.24103e-20)
(0.0532416 0.395472 1.14267e-20)
(-0.0057313 0.469073 -8.24141e-21)
(0.829273 -0.350914 1.52945e-19)
(0.878987 -0.373092 -5.61684e-20)
(0.924664 -0.389929 1.46135e-20)
(0.966476 -0.399487 5.97416e-20)
(1.00455 -0.401935 3.0516e-20)
(1.038 -0.397685 2.52189e-21)
(1.06546 -0.386941 2.97996e-21)
(1.08542 -0.369914 -2.3414e-21)
(1.0962 -0.346942 -1.4779e-21)
(1.09612 -0.318553 1.15727e-21)
(0.792945 -0.368361 6.94952e-20)
(0.844738 -0.390144 5.59471e-20)
(0.893275 -0.405454 5.18567e-20)
(0.93727 -0.412988 -1.5252e-20)
(0.976038 -0.412736 -1.32027e-20)
(1.00858 -0.405043 -1.0536e-20)
(1.03353 -0.390259 1.79524e-21)
(1.04934 -0.368852 3.49432e-21)
(1.0544 -0.341487 1.98407e-21)
(1.04719 -0.309077 -2.23446e-21)
(0.754297 -0.385335 -2.03843e-19)
(0.806082 -0.404726 2.02922e-20)
(0.855097 -0.416858 -9.81385e-20)
(0.899097 -0.42095 -1.51371e-20)
(0.936712 -0.416872 4.87303e-20)
(0.966619 -0.404937 1.46935e-20)
(0.987354 -0.385663 -1.63707e-21)
(0.997405 -0.359792 -1.25984e-21)
(0.995343 -0.328327 -7.8949e-21)
(0.97999 -0.292562 1.55364e-21)
(0.707852 -0.396252 -5.38284e-20)
(0.75821 -0.413015 -7.804e-20)
(0.805625 -0.421387 -7.42837e-21)
(0.847534 -0.421141 -2.49176e-20)
(0.882046 -0.412366 -2.53945e-20)
(0.907527 -0.395554 -2.37923e-21)
(0.92244 -0.371492 -2.78355e-21)
(0.925406 -0.341253 5.19963e-22)
(0.915313 -0.306207 8.09289e-21)
(0.89147 -0.268011 -1.81096e-21)
(0.647622 -0.394966 -1.1605e-19)
(0.695412 -0.408623 1.21313e-19)
(0.739466 -0.412824 6.62159e-21)
(0.777232 -0.40783 -5.50215e-21)
(0.806612 -0.39412 1.37629e-20)
(0.825858 -0.372525 4.27627e-21)
(0.833515 -0.344191 -6.2339e-21)
(0.828478 -0.310565 9.80485e-21)
(0.810085 -0.273373 -1.52939e-21)
(0.778234 -0.234566 -7.3546e-22)
(0.566559 -0.373653 1.66276e-19)
(0.610175 -0.383737 -9.19798e-20)
(0.648964 -0.383736 -2.77936e-20)
(0.680558 -0.374332 -6.50022e-21)
(0.702935 -0.356441 -1.06707e-20)
(0.714483 -0.331295 4.41266e-21)
(0.714024 -0.300423 -5.82802e-21)
(0.700876 -0.265619 -3.65223e-21)
(0.674925 -0.228873 2.56633e-21)
(0.63669 -0.192289 3.29097e-21)
(0.455923 -0.321835 2.69864e-20)
(0.492942 -0.328591 1.65035e-20)
(0.524219 -0.325356 3.2509e-21)
(0.547678 -0.313181 -9.81879e-21)
(0.561595 -0.293376 3.05253e-20)
(0.564707 -0.267533 6.55286e-22)
(0.556277 -0.237483 8.38401e-22)
(0.536138 -0.205227 1.03065e-21)
(0.504733 -0.172845 3.5091e-21)
(0.463117 -0.142378 -2.49076e-21)
(0.304891 -0.226149 7.77459e-20)
(0.33199 -0.231253 5.49581e-20)
(0.353128 -0.227508 -9.24858e-20)
(0.366652 -0.21622 -1.71977e-20)
(0.371295 -0.198939 -2.85203e-20)
(0.366284 -0.177433 -1.67781e-21)
(0.351382 -0.153607 -8.83492e-21)
(0.326915 -0.129418 1.15495e-20)
(0.293758 -0.106762 -1.52436e-22)
(0.253279 -0.0873611 5.25852e-21)
(0.100199 -0.0702972 -1.41536e-20)
(0.112704 -0.0779765 -9.17159e-20)
(0.120416 -0.0793995 6.86432e-20)
(0.122258 -0.0758457 -2.22868e-20)
(0.117528 -0.0687538 2.81434e-20)
(0.105954 -0.0596755 -1.39485e-21)
(0.0877154 -0.0501941 -7.24717e-21)
(0.0634258 -0.0418315 5.93317e-22)
(0.0340915 -0.0359573 -4.41822e-22)
(0.0010263 -0.0337151 -2.671e-21)
(-0.176406 0.165005 -1.38647e-20)
(-0.185922 0.146069 4.74167e-20)
(-0.196573 0.12882 -1.96141e-20)
(-0.208685 0.112618 5.64717e-21)
(-0.222379 0.0968096 -5.72843e-21)
(-0.237569 0.0807361 -1.86743e-22)
(-0.253967 0.0637706 1.18167e-21)
(-0.271106 0.0453633 5.39722e-21)
(-0.288379 0.0250775 -2.55838e-21)
(-0.305098 0.00260056 -9.06197e-22)
(1.08353 -0.285539 1.84418e-21)
(1.05716 -0.249094 -8.92847e-21)
(1.0163 -0.210857 4.87969e-20)
(0.961088 -0.172948 -3.54154e-20)
(0.892698 -0.137905 4.17262e-21)
(0.813317 -0.108525 -3.58893e-20)
(0.725825 -0.0875789 1.80307e-19)
(0.632951 -0.0773855 9.12469e-21)
(0.533357 -0.0798397 -5.37325e-20)
(0.415553 -0.0914282 1.21187e-19)
(1.0264 -0.27284 5.98471e-21)
(0.991268 -0.234404 -1.77799e-20)
(0.941754 -0.195761 -1.80078e-20)
(0.87873 -0.159226 -1.32786e-20)
(0.804028 -0.127286 -3.81693e-20)
(0.72027 -0.102373 -9.24862e-22)
(0.630347 -0.0865304 -1.16773e-20)
(0.536409 -0.0809302 3.29018e-20)
(0.437301 -0.0854044 1.05843e-19)
(0.327355 -0.0934868 -2.32888e-20)
(0.950542 -0.254097 -4.0304e-21)
(0.906886 -0.214886 3.557e-20)
(0.849709 -0.177117 9.27598e-21)
(0.780574 -0.143096 -2.0068e-21)
(0.70185 -0.115055 4.15035e-20)
(0.616432 -0.0948813 1.80298e-20)
(0.527189 -0.083768 3.49484e-20)
(0.436149 -0.0817366 -3.78033e-20)
(0.343233 -0.0870516 -7.54468e-20)
(0.247127 -0.0932606 -1.77289e-19)
(0.853691 -0.228576 4.92077e-21)
(0.802572 -0.190058 -1.5627e-20)
(0.739508 -0.154667 2.2661e-20)
(0.666646 -0.124527 -5.15079e-20)
(0.586727 -0.101455 -3.04809e-20)
(0.50276 -0.0867129 -1.44158e-20)
(0.417545 -0.0807024 -7.30487e-20)
(0.333117 -0.0826265 -3.37717e-20)
(0.250318 -0.0901313 4.08028e-21)
(0.17 -0.0980545 5.47787e-20)
(0.733405 -0.196239 2.42517e-21)
(0.676872 -0.160577 -3.16684e-23)
(0.610617 -0.12963 1.49049e-20)
(0.53718 -0.105163 4.58361e-20)
(0.459453 -0.0884722 -7.7659e-21)
(0.380374 -0.0801816 -6.7751e-20)
(0.302542 -0.0800394 1.14185e-19)
(0.227902 -0.0867415 -3.4812e-20)
(0.157683 -0.0978121 -2.61468e-20)
(0.0933116 -0.109283 -1.23236e-20)
(0.587257 -0.157963 -6.66891e-21)
(0.528434 -0.127904 7.02852e-21)
(0.462575 -0.103816 2.32595e-20)
(0.392355 -0.0869816 -2.24009e-20)
(0.320571 -0.0781303 4.44398e-20)
(0.24988 -0.0773105 -5.42415e-21)
(0.18254 -0.0837896 4.26074e-21)
(0.120244 -0.0960033 2.85921e-20)
(0.0641843 -0.111586 2.23895e-20)
(0.015598 -0.127456 7.19568e-21)
(0.412815 -0.115701 9.84267e-22)
(0.355919 -0.0944453 -1.33158e-21)
(0.294867 -0.0798251 3.30727e-20)
(0.232182 -0.0725813 -3.9609e-20)
(0.170319 -0.0729101 -7.54395e-20)
(0.111483 -0.080412 3.63873e-20)
(0.0574697 -0.0940696 -1.92772e-20)
(0.00960234 -0.112268 2.05919e-20)
(-0.0311852 -0.132886 5.79278e-20)
(-0.0640709 -0.1535 -6.272e-20)
(0.207167 -0.0726605 -1.04094e-21)
(0.157468 -0.0637304 -2.06154e-20)
(0.10638 -0.0612358 2.92089e-20)
(0.055997 -0.0654034 1.80337e-20)
(0.00823123 -0.0760089 -5.50354e-20)
(-0.0352945 -0.0923848 -4.32655e-20)
(-0.0733135 -0.113441 -3.06819e-21)
(-0.104921 -0.137706 6.7731e-21)
(-0.129508 -0.163414 8.65918e-21)
(-0.146633 -0.188679 -2.43674e-20)
(-0.0342991 -0.0359577 1.74696e-21)
(-0.0702632 -0.0430749 2.83505e-20)
(-0.105257 -0.0552384 1.16626e-20)
(-0.137857 -0.0722916 -3.83919e-20)
(-0.166852 -0.0937796 3.80423e-20)
(-0.191279 -0.118994 -4.98897e-20)
(-0.210423 -0.147002 6.54912e-20)
(-0.2238 -0.176672 -7.87535e-20)
(-0.231105 -0.206726 -4.17078e-20)
(-0.232158 -0.235834 -1.12172e-19)
(-0.320516 -0.0222822 -4.87927e-22)
(-0.333915 -0.0492261 -8.12152e-21)
(-0.344676 -0.0781504 6.02386e-21)
(-0.352278 -0.10877 7.17722e-21)
(-0.356334 -0.140687 -1.62228e-20)
(-0.356587 -0.173433 1.59991e-20)
(-0.352882 -0.206487 -1.95836e-20)
(-0.345144 -0.239275 1.51753e-20)
(-0.333351 -0.271188 -3.85548e-20)
(-0.317501 -0.301612 4.25656e-20)
(-0.297508 -0.329922 6.08948e-20)
(-0.226935 -0.262785 -4.64499e-20)
(-0.156013 -0.211906 -4.85674e-20)
(-0.0881216 -0.172084 6.56516e-20)
(-0.0234579 -0.14086 -6.0592e-21)
(0.038521 -0.116882 7.8946e-20)
(0.0979979 -0.0988667 9.05077e-21)
(0.155216 -0.0859267 -7.14374e-20)
(0.211511 -0.0781241 1.32323e-19)
(0.266098 -0.0722472 -1.87003e-20)
(-0.274025 -0.355232 -6.42908e-20)
(-0.215944 -0.28659 1.79079e-19)
(-0.157812 -0.232208 -7.48325e-21)
(-0.102783 -0.188131 -5.99517e-20)
(-0.0509749 -0.152213 4.78249e-20)
(-0.00174544 -0.123064 -1.0936e-19)
(0.0452998 -0.0993056 1.26494e-19)
(0.0907903 -0.0799548 -1.07345e-19)
(0.136249 -0.0652481 1.93364e-20)
(0.179991 -0.0545495 8.6051e-20)
(-0.247449 -0.377431 3.68799e-20)
(-0.199917 -0.306809 -1.12826e-19)
(-0.152898 -0.249147 3.93979e-20)
(-0.109039 -0.201489 -2.19549e-20)
(-0.0682454 -0.161986 4.07943e-20)
(-0.0297305 -0.129338 -3.06349e-20)
(0.00706115 -0.102354 -2.92725e-20)
(0.0428115 -0.080304 3.9805e-20)
(0.0785312 -0.0634561 -9.31942e-20)
(0.112196 -0.0516571 1.4318e-19)
(-0.218257 -0.396315 -7.87097e-20)
(-0.179783 -0.323167 8.73763e-21)
(-0.142494 -0.262442 4.13066e-20)
(-0.108402 -0.211896 5.63168e-20)
(-0.0771752 -0.169871 -8.64732e-20)
(-0.0479441 -0.135116 7.22442e-21)
(-0.020123 -0.106551 -4.87475e-20)
(0.00686074 -0.0835339 -1.02737e-19)
(0.0336307 -0.0661332 1.96314e-19)
(0.0584731 -0.054043 7.69203e-20)
(-0.186985 -0.411752 5.51323e-20)
(-0.156517 -0.335532 1.27986e-20)
(-0.127867 -0.271944 5.03029e-20)
(-0.102369 -0.219118 -6.20452e-21)
(-0.0794766 -0.175416 6.73046e-20)
(-0.0582835 -0.13951 3.32061e-20)
(-0.0382344 -0.11027 8.53524e-20)
(-0.0188874 -0.0869433 -8.70184e-20)
(0.000136245 -0.069279 -9.0328e-21)
(0.0175229 -0.0567854 -1.00579e-19)
(-0.154163 -0.423694 3.6523e-20)
(-0.131048 -0.343937 -4.37719e-20)
(-0.110186 -0.277693 -9.92389e-21)
(-0.0922856 -0.223119 -1.73347e-20)
(-0.0766265 -0.178406 -1.91173e-20)
(-0.0623156 -0.142023 -2.44586e-20)
(-0.0488634 -0.11267 4.00209e-20)
(-0.0359536 -0.0893938 -5.36912e-20)
(-0.0233752 -0.0716272 4.86033e-20)
(-0.0121089 -0.0587249 6.55532e-21)
(-0.120289 -0.432172 -6.34627e-20)
(-0.104199 -0.34857 -3.25526e-20)
(-0.0904544 -0.279931 5.68503e-20)
(-0.0792557 -0.224106 -2.13155e-20)
(-0.0697843 -0.178943 3.17795e-20)
(-0.0612083 -0.142598 -9.66534e-20)
(-0.053136 -0.11353 7.40906e-20)
(-0.045376 -0.0905584 -2.79059e-20)
(-0.0378535 -0.0728519 5.06444e-20)
(-0.0313254 -0.0596459 -6.26501e-20)
(-0.0858075 -0.437291 2.92553e-20)
(-0.0766574 -0.349761 -1.27806e-20)
(-0.0694706 -0.27909 -1.98518e-20)
(-0.0641215 -0.222529 -8.00071e-21)
(-0.0597909 -0.177437 4.43456e-21)
(-0.0557663 -0.141577 1.34438e-20)
(-0.0517913 -0.113126 -3.3287e-20)
(-0.0478122 -0.0906781 2.03371e-20)
(-0.0438841 -0.073195 6.26711e-20)
(-0.0406576 -0.0598177 -6.21282e-20)
(-0.0511036 -0.439229 2.18997e-20)
(-0.04896 -0.347964 6.24902e-23)
(-0.0478216 -0.275753 3.08134e-20)
(-0.0474688 -0.219024 -2.67471e-20)
(-0.0472022 -0.17453 8.30967e-21)
(-0.0464975 -0.13959 -9.33231e-21)
(-0.0452792 -0.112076 -5.33845e-21)
(-0.0436539 -0.0903699 -3.1168e-20)
(-0.0418125 -0.0732667 3.40941e-20)
(-0.0404132 -0.0598332 3.64744e-20)
(-0.0164704 -0.438215 -3.8633e-21)
(-0.0214727 -0.343698 -3.34556e-21)
(-0.0258791 -0.270596 -3.03422e-21)
(-0.0296388 -0.214344 -1.16956e-20)
(-0.0323144 -0.171009 1.2695e-20)
(-0.0336508 -0.137435 4.66245e-21)
(-0.0338056 -0.11119 -1.00309e-20)
(-0.0330743 -0.0904464 6.19417e-22)
(-0.0317922 -0.0738618 -6.12194e-21)
(-0.0307344 -0.0604435 -4.3323e-22)
(-0.00988132 -0.026977 -1.39314e-21)
(0.000803773 -0.0247287 -1.4076e-21)
(0.0548823 -0.0241568 3.16802e-21)
(0.106278 -0.0305027 -2.13194e-21)
(0.169637 -0.0406814 -7.00901e-22)
(0.230447 -0.0526239 -1.35353e-21)
(0.289413 -0.0636487 4.76932e-22)
(0.342657 -0.0695712 -5.92919e-22)
(0.390546 -0.066081 2.99032e-22)
(0.43448 -0.0499756 5.74768e-23)
(0.477168 -0.0212699 -3.16078e-22)
(0.520457 0.0129896 7.68035e-23)
(0.564921 0.039882 -7.46094e-23)
(0.614324 0.0428868 -1.62937e-22)
(0.667708 0.0191195 2.70218e-23)
(0.724298 -0.023255 -4.75793e-23)
(0.762299 -0.0577953 1.81053e-23)
(0.803406 -0.0718621 8.68179e-24)
(0.814884 -0.061645 -1.00863e-23)
(0.880639 -0.0183356 1.49816e-23)
(0.0248262 -0.029553 6.48205e-21)
(0.0379304 -0.0359068 4.92709e-21)
(0.0954488 -0.0376975 -4.68039e-21)
(0.147771 -0.0447386 2.6088e-21)
(0.210396 -0.0543405 -5.10585e-21)
(0.269339 -0.0648136 -1.98542e-22)
(0.325191 -0.0740746 -4.82921e-22)
(0.374264 -0.078232 -8.99897e-22)
(0.417057 -0.073343 6.19919e-22)
(0.45542 -0.0563613 1.9577e-22)
(0.492856 -0.0272188 7.52459e-23)
(0.532465 0.00728751 6.12212e-22)
(0.575672 0.0342184 -6.83525e-22)
(0.626252 0.0371947 -1.45321e-22)
(0.681385 0.0135843 1.11361e-22)
(0.738671 -0.0276151 7.39239e-23)
(0.775189 -0.0610655 -1.40575e-22)
(0.813101 -0.0738814 1.20483e-22)
(0.820736 -0.0642506 2.38702e-23)
(0.882138 -0.0206015 -3.44063e-23)
(0.072411 -0.0344936 -2.24869e-20)
(0.0883702 -0.0479628 2.92889e-21)
(0.149162 -0.0514714 2.19857e-20)
(0.201512 -0.0586459 -1.11281e-20)
(0.26202 -0.0673609 -1.55994e-21)
(0.31778 -0.0762051 -5.07866e-21)
(0.36935 -0.0836255 -5.12765e-24)
(0.41336 -0.0860188 -1.89101e-21)
(0.450409 -0.079798 -6.12075e-22)
(0.482698 -0.0620813 -4.75971e-22)
(0.514381 -0.0327206 -9.11448e-23)
(0.549707 0.00177993 5.38547e-23)
(0.590953 0.0285559 6.83987e-22)
(0.641858 0.0314595 -3.05906e-22)
(0.697815 0.00809986 -2.58788e-22)
(0.754915 -0.0317977 2.51371e-22)
(0.789451 -0.0640684 -4.59565e-23)
(0.823855 -0.0756128 -5.58022e-23)
(0.827658 -0.0665692 -8.71402e-23)
(0.884352 -0.0227195 -5.51941e-23)
(0.132968 -0.042182 -6.11655e-21)
(0.151795 -0.060752 2.40085e-20)
(0.214937 -0.0651891 -1.13061e-20)
(0.266102 -0.071893 -6.22538e-21)
(0.323005 -0.0794373 4.98206e-21)
(0.374287 -0.0865596 -9.43207e-22)
(0.420523 -0.0921332 2.16898e-21)
(0.458734 -0.092823 -7.36679e-22)
(0.489583 -0.0853723 1.9234e-21)
(0.515508 -0.0670698 8.41409e-22)
(0.541141 -0.0376973 -1.81594e-21)
(0.571738 -0.00343765 2.37616e-22)
(0.610393 0.0230043 -7.02086e-23)
(0.660789 0.0257941 4.99673e-22)
(0.716647 0.00276375 1.27343e-22)
(0.772711 -0.0357404 -1.87163e-22)
(0.804814 -0.0667739 -1.38351e-22)
(0.835466 -0.0770468 -1.65559e-22)