/*--------------------------------*- C++ -*----------------------------------*\
  =========                 |
  \\      /  F ield         | OpenFOAM: The Open Source CFD Toolbox
   \\    /   O peration     | Website:  https://openfoam.org
    \\  /    A nd           | Version:  6.0
     \\/     M anipulation  |
\*---------------------------------------------------------------------------*/
FoamFile
{
    version     2.0;
    format      ascii;
    class       volVectorField;
    location    "7";
    object      U;
}
// * * * * * * * * * * * * * * * * * * * * * * * * * * * * * * * * * * * * * //

dimensions      [0 1 -1 0 0 0 0];

internalField   nonuniform List<vector> 
19200
(
(0.0986541 -4.75215 -7.16256e-21)
(0.0610796 -4.35229 3.63859e-21)
(0.0671123 -4.02564 1.70524e-21)
(0.0819056 -3.75919 1.52084e-21)
(0.0992754 -3.54156 1.71784e-21)
(0.120691 -3.36314 1.19925e-22)
(0.145568 -3.21609 2.47692e-21)
(0.172992 -3.09407 -1.76138e-22)
(0.20227 -2.99195 2.21503e-21)
(0.232821 -2.90562 9.39605e-22)
(0.264134 -2.83176 1.77685e-25)
(0.295775 -2.76774 1.51644e-21)
(0.327381 -2.71145 2.53812e-21)
(0.358652 -2.66121 -1.74253e-21)
(0.389345 -2.61568 2.26994e-21)
(0.419266 -2.57379 1.99534e-21)
(0.448263 -2.53471 -1.88559e-21)
(0.476222 -2.49776 3.27453e-21)
(0.503061 -2.46243 -2.09635e-21)
(0.528724 -2.42831 1.06565e-21)
(0.553178 -2.39505 1.51731e-21)
(0.576409 -2.36241 -4.92458e-22)
(0.598419 -2.33017 6.69317e-22)
(0.619219 -2.29814 -7.92118e-22)
(0.638834 -2.26614 1.34039e-24)
(0.657292 -2.23405 4.33083e-22)
(0.674623 -2.20173 -2.80042e-22)
(0.690858 -2.16905 1.76607e-22)
(0.706042 -2.13587 4.10013e-22)
(0.720186 -2.102 1.73006e-21)
(0.22332 -4.74965 -1.67505e-21)
(0.175903 -4.35603 1.13233e-20)
(0.174009 -4.03452 -6.00235e-21)
(0.182551 -3.77273 -8.2773e-21)
(0.195018 -3.55934 -3.77183e-21)
(0.212573 -3.38464 -2.74553e-21)
(0.234386 -3.24077 -5.98968e-21)
(0.259348 -3.12141 7.49012e-22)
(0.286616 -3.02144 -1.28572e-21)
(0.315487 -2.9368 -4.57892e-21)
(0.345358 -2.8642 -1.16988e-20)
(0.375723 -2.80106 5.78855e-21)
(0.406163 -2.7453 -2.16187e-21)
(0.436337 -2.69529 8.24751e-22)
(0.465969 -2.64972 -5.1968e-21)
(0.494843 -2.60756 -1.95131e-21)
(0.522791 -2.56802 2.19194e-22)
(0.549689 -2.53045 6.77711e-21)
(0.575445 -2.49436 -3.55881e-21)
(0.600003 -2.45937 -1.99787e-21)
(0.623326 -2.42516 -7.98496e-21)
(0.645401 -2.3915 2.06817e-21)
(0.666231 -2.35819 -1.33265e-21)
(0.68583 -2.32506 2.3738e-21)
(0.704226 -2.29195 -1.10173e-21)
(0.721448 -2.25874 -1.73363e-21)
(0.737528 -2.22528 5.68395e-22)
(0.752504 -2.19146 8.8522e-22)
(0.766443 -2.15712 -1.58886e-21)
(0.779318 -2.12208 8.52487e-22)
(0.347667 -4.74428 -8.26355e-22)
(0.29069 -4.35714 2.55742e-21)
(0.281259 -4.04101 3.74891e-21)
(0.283877 -3.78411 2.92939e-20)
(0.291703 -3.57513 -1.71396e-20)
(0.305607 -3.40427 1.58168e-20)
(0.324525 -3.26366 9.81126e-21)
(0.347159 -3.14698 7.75106e-21)
(0.372516 -3.04918 -7.58335e-21)
(0.399778 -2.9662 -9.27427e-22)
(0.428252 -2.89484 1.95754e-20)
(0.457363 -2.83253 3.35732e-21)
(0.486639 -2.77726 -9.20803e-21)
(0.515699 -2.72742 7.34522e-21)
(0.54424 -2.68176 -9.18461e-23)
(0.572025 -2.63929 3.2205e-21)
(0.598873 -2.59923 2.40662e-21)
(0.624648 -2.56099 8.10227e-21)
(0.649257 -2.52411 -3.59754e-21)
(0.672638 -2.48821 -1.19099e-21)
(0.694758 -2.45302 -3.24069e-21)
(0.715602 -2.41832 1.44222e-20)
(0.735178 -2.38394 -1.21172e-20)
(0.753502 -2.34971 4.00786e-21)
(0.770605 -2.31549 1.89106e-21)
(0.78652 -2.28116 -7.57733e-21)
(0.80128 -2.2466 1.02307e-20)
(0.814931 -2.21167 -1.12702e-21)
(0.82756 -2.17622 -1.17829e-21)
(0.839096 -2.14005 -8.56384e-21)
(0.471853 -4.7359 -2.69888e-20)
(0.405594 -4.35563 -2.49143e-20)
(0.388919 -4.04516 -3.09046e-20)
(0.385891 -3.79335 1.04425e-21)
(0.389319 -3.58893 1.83141e-21)
(0.399776 -3.422 -3.59635e-20)
(0.415964 -3.28469 1.57581e-21)
(0.436397 -3.17072 4.72405e-21)
(0.459939 -3.07507 -7.91522e-22)
(0.485659 -2.99374 8.44976e-21)
(0.512775 -2.92357 -3.40149e-20)
(0.540648 -2.86205 -2.17351e-20)
(0.568755 -2.80721 8.05808e-21)
(0.596681 -2.75749 1.65431e-20)
(0.624096 -2.71169 -1.93851e-20)
(0.650745 -2.66885 -3.12816e-21)
(0.676434 -2.62824 -1.1764e-20)
(0.701023 -2.58929 -5.68543e-21)
(0.724415 -2.55157 9.59154e-21)
(0.746547 -2.51475 -1.24519e-20)
(0.767388 -2.47856 1.09056e-20)
(0.786926 -2.44281 -1.3034e-20)
(0.805172 -2.40734 -1.04644e-20)
(0.822146 -2.37201 -7.53021e-21)
(0.837885 -2.3367 -2.22077e-21)
(0.852421 -2.30128 -1.58579e-20)
(0.865796 -2.26563 1.63418e-21)
(0.878058 -2.22963 2.91261e-21)
(0.889315 -2.19311 -8.5413e-21)
(0.899452 -2.15587 1.80353e-21)
(0.595841 -4.72444 -1.6371e-20)
(0.520617 -4.35146 2.35521e-21)
(0.496988 -4.04693 2.16087e-20)
(0.488584 -3.8004 2.30904e-20)
(0.48785 -3.60067 1.66841e-20)
(0.49506 -3.43775 6.91385e-21)
(0.508676 -3.30378 1.0894e-20)
(0.527033 -3.19252 5.1189e-20)
(0.548851 -3.09901 -3.09013e-20)
(0.573087 -3.0193 8.226e-22)
(0.59888 -2.95028 7.56775e-21)
(0.625524 -2.8895 3.36924e-20)
(0.652453 -2.83504 -2.33071e-20)
(0.679217 -2.78539 1.70309e-20)
(0.705465 -2.7394 -1.93136e-20)
(0.730924 -2.69614 3.3305e-20)
(0.755394 -2.65494 -9.99033e-21)
(0.77873 -2.61524 3.29738e-22)
(0.800831 -2.57666 1.65984e-20)
(0.82164 -2.53888 1.17472e-20)
(0.841125 -2.50168 -1.20752e-20)
(0.85928 -2.46487 1.65314e-20)
(0.876121 -2.42832 -7.70013e-21)
(0.891673 -2.39191 8.86439e-21)
(0.905974 -2.35551 1.19544e-20)
(0.919069 -2.31903 4.44451e-21)
(0.930989 -2.28233 1.36383e-20)
(0.941803 -2.2453 -4.74809e-21)
(0.951632 -2.20776 -1.639e-21)
(0.960311 -2.16952 -8.30112e-21)
(0.719568 -4.70989 -1.20739e-20)
(0.635727 -4.3446 -8.17642e-21)
(0.605445 -4.04628 -2.49562e-20)
(0.591935 -3.80522 -6.55388e-20)
(0.587273 -3.6103 2.21983e-20)
(0.59143 -3.45146 1.44684e-21)
(0.602632 -3.32086 -1.55582e-20)
(0.619032 -3.21232 3.38807e-21)
(0.639209 -3.12092 -2.12896e-21)
(0.662017 -3.04279 -4.1808e-20)
(0.686512 -2.97487 1.77308e-20)
(0.711931 -2.91478 3.11123e-20)
(0.737666 -2.86065 1.4218e-22)
(0.763236 -2.81102 1.19073e-20)
(0.788269 -2.76478 2.98803e-20)
(0.812483 -2.72107 -2.07431e-20)
(0.835668 -2.67922 3.7081e-20)
(0.857677 -2.63875 -1.78483e-20)
(0.878414 -2.59928 3.23645e-20)
(0.89782 -2.56054 -2.43741e-20)
(0.915872 -2.52231 1.10697e-20)
(0.932568 -2.48444 2.95268e-20)
(0.947928 -2.44682 1.86864e-21)
(0.961987 -2.40933 -2.76636e-20)
(0.974784 -2.37188 1.57947e-20)
(0.986368 -2.33436 1.9221e-21)
(0.996778 -2.29666 -5.12055e-21)
(1.00608 -2.25864 1.9933e-20)
(1.01443 -2.22014 7.08904e-21)
(1.0216 -2.18096 -7.18601e-21)
(0.842963 -4.69224 3.37964e-20)
(0.750876 -4.33503 -1.14326e-21)
(0.714254 -4.04318 -5.14757e-20)
(0.695912 -3.80777 1.03451e-20)
(0.687559 -3.61776 -1.49176e-20)
(0.688856 -3.46305 1.08117e-20)
(0.697795 -3.33584 2.47512e-20)
(0.712351 -3.23 4.57719e-20)
(0.730967 -3.14069 -5.02685e-20)
(0.752394 -3.0641 1.24054e-20)
(0.775612 -2.99724 -9.00715e-21)
(0.799804 -2.93778 6.73994e-21)
(0.824322 -2.88392 -2.96655e-20)
(0.848659 -2.83426 -1.88489e-21)
(0.872426 -2.78773 4.98268e-20)
(0.895332 -2.74352 -3.43981e-20)
(0.917163 -2.70101 -2.20442e-20)
(0.937772 -2.65973 -1.64203e-20)
(0.957066 -2.61936 3.02907e-20)
(0.974991 -2.57963 6.69389e-21)
(0.99153 -2.54038 -3.03794e-20)
(1.00669 -2.50146 4.12658e-20)
(1.0205 -2.46277 -3.7384e-20)
(1.03299 -2.42423 2.52604e-20)
(1.04422 -2.38575 -1.42819e-20)
(1.05423 -2.34724 9.55342e-21)
(1.06307 -2.30857 7.26254e-21)
(1.07082 -2.26964 -3.22546e-20)
(1.07764 -2.23023 1.40687e-20)
(1.08325 -2.19018 3.18318e-22)
(0.965954 -4.6715 -3.36749e-20)
(0.866011 -4.32273 2.83061e-20)
(0.823374 -4.03761 -5.35882e-20)
(0.80048 -3.808 1.03155e-19)
(0.788672 -3.62299 -2.92812e-20)
(0.787299 -3.47245 4.25201e-20)
(0.794124 -3.34863 1.1732e-22)
(0.806945 -3.24548 -5.72233e-21)
(0.824072 -3.15823 -9.10519e-21)
(0.844159 -3.08313 -2.17232e-22)
(0.866115 -3.01727 -3.61112e-20)
(0.88907 -2.95839 1.87337e-20)
(0.912342 -2.90476 -2.33609e-20)
(0.935402 -2.85501 -1.81202e-21)
(0.957847 -2.80815 -6.73068e-20)
(0.979379 -2.7634 2.20273e-20)
(0.999783 -2.72019 1.32684e-20)
(1.01892 -2.67809 -1.48402e-20)
(1.03669 -2.6368 -1.71106e-21)
(1.05305 -2.59609 -2.37407e-20)
(1.068 -2.55581 -8.65202e-21)
(1.08155 -2.51586 8.8625e-22)
(1.09372 -2.47613 -2.1484e-20)
(1.10458 -2.43657 -3.22815e-20)
(1.11417 -2.3971 1.30324e-21)
(1.12256 -2.35763 -3.59393e-21)
(1.12978 -2.31806 1.05304e-20)
(1.13592 -2.27825 -2.62723e-20)
(1.14118 -2.23801 2.25725e-20)
(1.14519 -2.19717 -4.61096e-20)
(1.08846 -4.64768 -8.49383e-20)
(0.981076 -4.30768 1.06234e-19)
(0.932761 -4.02951 -1.14111e-19)
(0.905599 -3.80584 -3.098e-20)
(0.890571 -3.62592 -2.05452e-20)
(0.886718 -3.47959 -2.23454e-20)
(0.891572 -3.35916 -2.06678e-20)
(0.90276 -3.25867 -4.37314e-21)
(0.918465 -3.17343 -2.1331e-20)
(0.937247 -3.09978 -5.25164e-21)
(0.957948 -3.03487 3.78652e-20)
(0.979651 -2.97652 -2.1569e-20)
(1.00164 -2.92305 -2.66007e-20)
(1.02338 -2.87318 -4.56657e-20)
(1.04444 -2.82595 9.68592e-20)
(1.06453 -2.78063 -3.79352e-20)
(1.08343 -2.7367 1.42828e-20)
(1.10101 -2.69376 -5.41726e-20)
(1.11717 -2.65154 2.07168e-20)
(1.1319 -2.60985 -8.88309e-21)
(1.14518 -2.56856 1.09392e-20)
(1.15703 -2.52758 -4.1494e-21)
(1.16751 -2.48685 3.6237e-20)
(1.17667 -2.4463 -1.30272e-20)
(1.18457 -2.40588 3.61617e-20)
(1.19126 -2.3655 -7.17405e-21)
(1.19681 -2.32508 4.794e-20)
(1.20131 -2.28448 1.34809e-20)
(1.20496 -2.24347 2.56419e-20)
(1.20734 -2.20192 -8.31831e-20)
(1.21042 -4.62076 1.3466e-19)
(1.09601 -4.28986 -2.6778e-20)
(1.04236 -4.01885 4.85915e-20)
(1.01122 -3.80126 -1.44157e-20)
(0.993212 -3.62648 5.05779e-20)
(0.987064 -3.48438 4.88678e-20)
(0.990087 -3.36733 5.65393e-20)
(0.999739 -3.26948 -4.90542e-21)
(1.01408 -3.1862 -5.59953e-20)
(1.03159 -3.11394 8.28328e-20)
(1.05103 -3.04993 -6.91655e-21)
(1.07146 -2.99205 6.07589e-20)
(1.09214 -2.93871 2.23783e-20)
(1.11249 -2.88867 8.11638e-21)
(1.1321 -2.84103 1.38707e-20)
(1.15067 -2.79512 1.87244e-20)
(1.168 -2.75044 3.20004e-20)
(1.18394 -2.70665 -9.40177e-21)
(1.19842 -2.66351 4.83184e-20)
(1.21142 -2.62085 2.28065e-20)
(1.22295 -2.57857 -4.79706e-20)
(1.23305 -2.5366 8.58801e-20)
(1.24176 -2.49488 -1.14784e-19)
(1.24915 -2.45339 1.10102e-19)
(1.25529 -2.41206 -3.67856e-20)
(1.26025 -2.37084 6.96591e-21)
(1.26409 -2.32963 -4.97567e-20)
(1.2669 -2.28829 2.78689e-20)
(1.26891 -2.2466 1.02591e-20)
(1.26963 -2.20443 -1.30597e-20)
(1.33175 -4.59077 -7.80837e-20)
(1.21076 -4.26926 7.95291e-20)
(1.15213 -4.0056 -2.18889e-20)
(1.1173 -3.79419 6.40613e-20)
(1.09654 -3.62461 6.13715e-21)
(1.08828 -3.48675 1.46968e-20)
(1.08961 -3.37307 -1.14627e-19)
(1.09782 -3.2778 -2.02906e-20)
(1.11085 -3.19645 7.6365e-20)
(1.1271 -3.12552 6.00395e-20)
(1.14529 -3.06235 -1.02846e-19)
(1.16442 -3.0049 6.10741e-20)
(1.18372 -2.95163 -6.17854e-20)
(1.20264 -2.90139 4.38984e-20)
(1.22073 -2.85331 -7.34766e-20)
(1.23771 -2.80678 -5.59648e-20)
(1.25338 -2.76135 3.25946e-21)
(1.2676 -2.71671 -2.66217e-20)
(1.28032 -2.67265 4.74868e-20)
(1.29152 -2.62904 1.89864e-20)
(1.30122 -2.58579 -1.25896e-20)
(1.30948 -2.54285 -3.84531e-21)
(1.31635 -2.5002 1.55093e-20)
(1.32192 -2.45781 -5.16197e-20)
(1.32625 -2.41563 8.77187e-20)
(1.32943 -2.37363 -2.12847e-20)
(1.33151 -2.3317 -1.8672e-21)
(1.3326 -2.2897 7.90061e-20)
(1.33295 -2.2474 1.09843e-20)
(1.33199 -2.20469 -1.14974e-20)
(1.45237 -4.55772 2.19809e-21)
(1.32525 -4.24587 -4.40334e-20)
(1.262 -3.98973 -4.18604e-20)
(1.22378 -3.78459 -6.90074e-20)
(1.20051 -3.62026 1.89113e-21)
(1.19032 -3.48663 -5.17093e-20)
(1.19008 -3.37628 6.16552e-20)
(1.19693 -3.28357 -5.46743e-21)
(1.2087 -3.20408 5.29408e-20)
(1.22371 -3.13444 -4.30842e-20)
(1.24062 -3.07205 -2.30534e-20)
(1.25842 -3.01498 1.27114e-20)
(1.27631 -2.96174 6.96718e-21)
(1.29372 -2.91125 -7.33541e-20)
(1.31023 -2.86271 4.38689e-20)
(1.32554 -2.81555 -2.26553e-20)
(1.33946 -2.76936 6.37848e-20)
(1.35188 -2.72387 -2.14443e-20)
(1.36275 -2.6789 2.28453e-20)
(1.37207 -2.63436 5.58483e-21)
(1.37987 -2.59017 3.96426e-20)
(1.38622 -2.54632 -8.10198e-21)
(1.39119 -2.50278 6.66723e-20)
(1.39488 -2.45954 -7.43893e-20)
(1.39735 -2.41658 -2.54335e-20)
(1.3987 -2.37385 2.11792e-20)
(1.39899 -2.33127 -1.69533e-21)
(1.39834 -2.28869 -3.7794e-20)
(1.397 -2.24586 3.09916e-20)
(1.39435 -2.20272 -3.78759e-20)
(1.57222 -4.52161 1.34218e-19)
(1.43943 -4.21967 3.8504e-20)
(1.37192 -3.9712 4.564e-20)
(1.3306 -3.77241 6.37943e-20)
(1.30506 -3.61334 9.63763e-20)
(1.29311 -3.48394 -2.41863e-21)
(1.29142 -3.37689 1.39602e-20)
(1.29699 -3.28668 1.14392e-19)
(1.30755 -3.209 -2.33453e-20)
(1.32132 -3.14058 -4.31777e-20)
(1.33695 -3.07893 7.81849e-20)
(1.35337 -3.02218 1.37831e-20)
(1.36979 -2.96894 9.76795e-22)
(1.38563 -2.91817 1.92868e-20)
(1.40047 -2.86915 3.5798e-20)
(1.41403 -2.82135 -7.48878e-20)
(1.42613 -2.7744 6.44054e-20)
(1.43666 -2.72807 1.12917e-20)
(1.4456 -2.68222 6.49338e-20)
(1.45296 -2.63678 -3.50857e-20)
(1.4588 -2.59169 5.95952e-20)
(1.46317 -2.54696 -6.37294e-20)
(1.46618 -2.50259 6.25955e-20)
(1.46792 -2.45856 9.02567e-21)
(1.46849 -2.41488 -4.25202e-20)
(1.46798 -2.3715 -1.42727e-20)
(1.46644 -2.32835 8.40517e-20)
(1.46402 -2.28528 6.16857e-20)
(1.46099 -2.24201 1.66975e-20)
(1.45663 -2.19852 -1.20786e-20)
(1.6912 -4.48246 1.43166e-20)
(1.55322 -4.19064 3.39823e-20)
(1.48183 -3.94997 1.37659e-19)
(1.43771 -3.75761 -2.26407e-19)
(1.41012 -3.60381 -2.28433e-20)
(1.39659 -3.4786 -2.45815e-20)
(1.39357 -3.37482 1.1375e-20)
(1.39794 -3.28705 1.63978e-20)
(1.4073 -3.21113 2.6782e-20)
(1.41985 -3.14387 -7.18977e-20)
(1.43416 -3.0829 -1.47489e-20)
(1.44916 -3.02643 4.21695e-20)
(1.46405 -2.97315 4.65736e-20)
(1.47825 -2.92209 -4.61041e-20)
(1.49135 -2.87257 -4.67639e-20)
(1.50308 -2.82412 7.6188e-20)
(1.51327 -2.77642 5.11164e-20)
(1.52183 -2.72927 -1.25305e-20)
(1.52877 -2.68257 -3.30528e-20)
(1.53409 -2.63625 6.52061e-21)
(1.53788 -2.59031 -7.90266e-20)
(1.54021 -2.54476 9.66791e-20)
(1.5412 -2.49961 -6.65853e-20)
(1.54095 -2.45487 -2.96517e-21)
(1.53957 -2.41054 4.51471e-20)
(1.53715 -2.36658 -1.40497e-20)
(1.53377 -2.32294 -4.31209e-20)
(1.52956 -2.27945 5.35565e-20)
(1.52483 -2.23583 -1.39621e-21)
(1.51876 -2.1921 9.79637e-21)
(1.80926 -4.44028 -9.84255e-21)
(1.66656 -4.15879 -3.4528e-20)
(1.59166 -3.92603 -1.5989e-19)
(1.54504 -3.74012 5.80728e-20)
(1.51563 -3.59159 -1.81087e-20)
(1.50068 -3.47056 6.08415e-20)
(1.49645 -3.36999 4.80917e-21)
(1.49967 -3.2846 -7.20452e-20)
(1.50787 -3.21037 1.11522e-19)
(1.51918 -3.14423 -1.01611e-19)
(1.53215 -3.08389 -4.42098e-21)
(1.54568 -3.02766 2.58428e-20)
(1.55898 -2.9743 -4.44435e-20)
(1.57147 -2.92292 5.23457e-20)
(1.58275 -2.87289 -1.00208e-19)
(1.59256 -2.8238 -2.33413e-20)
(1.60076 -2.77537 6.22768e-20)
(1.60728 -2.72743 5.7818e-23)
(1.61212 -2.6799 -4.07233e-20)
(1.61534 -2.63276 1.11843e-19)
(1.61701 -2.58601 -6.03058e-20)
(1.61724 -2.53969 -8.19877e-20)
(1.61615 -2.49383 2.75573e-20)
(1.61385 -2.44844 -8.14918e-20)
(1.61048 -2.40354 -2.00023e-20)
(1.60614 -2.35909 -2.63589e-21)
(1.60088 -2.31504 -5.50292e-20)
(1.59488 -2.27123 6.59676e-20)
(1.58844 -2.22736 -3.70806e-20)
(1.58068 -2.18348 4.37635e-20)
(1.92631 -4.39509 -4.95744e-20)
(1.77938 -4.12409 -1.4217e-19)
(1.70135 -3.89933 7.01181e-20)
(1.65252 -3.71991 -6.84285e-20)
(1.62152 -3.57664 -5.05472e-20)
(1.60531 -3.45974 -2.9991e-20)
(1.59997 -3.36232 -1.12109e-19)
(1.6021 -3.27926 7.72683e-20)
(1.60917 -3.20665 -1.94006e-19)
(1.61923 -3.14156 -7.23401e-20)
(1.63082 -3.0818 2.57132e-20)
(1.64283 -3.02578 4.41401e-20)
(1.65447 -2.97232 -5.14373e-22)
(1.66517 -2.92061 -8.67013e-20)
(1.67455 -2.87008 2.0572e-20)
(1.68236 -2.82035 -8.16429e-20)
(1.68848 -2.7712 -5.94626e-20)
(1.69287 -2.72249 -3.64432e-20)
(1.69555 -2.67418 -7.56967e-21)
(1.69658 -2.62627 6.26711e-20)
(1.69607 -2.57878 9.07625e-20)
(1.69414 -2.53175 -2.75551e-20)
(1.69091 -2.48524 -2.72186e-20)
(1.68654 -2.43928 5.27579e-20)
(1.68114 -2.39389 2.94744e-20)
(1.67483 -2.34904 -2.36058e-20)
(1.66769 -2.30468 -2.6783e-20)
(1.65989 -2.26064 3.01589e-21)
(1.65174 -2.2166 2.81914e-20)
(1.64229 -2.17269 3.89619e-20)
(2.04227 -4.34692 -9.52523e-21)
(1.89161 -4.08655 1.82371e-19)
(1.81083 -3.86986 1.43042e-19)
(1.76008 -3.69694 1.12293e-19)
(1.72771 -3.5589 -7.39404e-20)
(1.71039 -3.44607 -1.487e-20)
(1.70404 -3.35174 1.3162e-20)
(1.70514 -3.27093 9.93248e-20)
(1.71108 -3.1999 3.7785e-20)
(1.71988 -3.1358 9.29476e-20)
(1.73005 -3.07658 -1.32009e-19)
(1.74048 -3.02072 1.32079e-20)
(1.75039 -2.96714 5.49073e-20)
(1.75923 -2.91509 3.46035e-20)
(1.76662 -2.86406 7.30206e-20)
(1.77235 -2.81372 -4.98887e-20)
(1.77632 -2.76388 -4.70533e-20)
(1.7785 -2.71445 8.71216e-21)
(1.77894 -2.6654 1.03066e-19)
(1.77772 -2.61676 -1.67347e-19)
(1.77496 -2.56858 5.86601e-20)
(1.7708 -2.52092 -4.17515e-22)
(1.7654 -2.47384 1.13721e-19)
(1.7589 -2.42739 -4.9226e-20)
(1.75144 -2.38159 -2.60156e-21)
(1.74315 -2.33642 -3.2188e-20)
(1.7341 -2.29184 3.07364e-20)
(1.72449 -2.24768 7.57507e-21)
(1.71464 -2.20358 -3.48034e-20)
(1.70352 -2.15973 1.18771e-19)
(2.15707 -4.29577 -1.85045e-19)
(2.00318 -4.04615 -1.11447e-19)
(1.92003 -3.83758 -2.88799e-19)
(1.86765 -3.67116 -1.33758e-19)
(1.83412 -3.5383 1.26073e-19)
(1.81585 -3.4295 -7.56189e-20)
(1.80858 -3.33818 -1.94157e-20)
(1.80869 -3.25957 -5.15282e-20)
(1.8135 -3.19003 8.87296e-20)
(1.82101 -3.12688 -2.09992e-20)
(1.82972 -3.06815 -3.30544e-20)
(1.83852 -3.01243 -4.10965e-21)
(1.84663 -2.95872 -1.38003e-19)
(1.85352 -2.90633 -6.39996e-21)
(1.85884 -2.8548 3.69001e-20)
(1.86241 -2.80387 -4.59289e-21)
(1.86414 -2.75337 -1.48726e-19)
(1.86404 -2.70326 1.46076e-19)
(1.86216 -2.65353 -1.45186e-19)
(1.85862 -2.60422 5.71916e-20)
(1.85356 -2.55542 8.17712e-21)
(1.84713 -2.50719 3.19305e-21)
(1.83949 -2.45962 -6.2121e-20)
(1.83082 -2.41276 2.13124e-20)
(1.82127 -2.36663 -3.59649e-24)
(1.81097 -2.32125 7.16623e-21)
(1.80001 -2.27655 -1.60834e-19)
(1.78859 -2.23237 4.34689e-20)
(1.77705 -2.18832 4.72648e-20)
(1.76429 -2.14464 5.36235e-20)
(2.27064 -4.24168 3.63168e-19)
(2.11402 -4.0029 1.29295e-19)
(2.02887 -3.80248 7.68735e-20)
(1.97516 -3.64253 1.22674e-19)
(1.94068 -3.51481 -1.5406e-20)
(1.9216 -3.40995 9.54441e-20)
(1.91349 -3.32158 2.14825e-19)
(1.91264 -3.24508 -2.71173e-20)
(1.91633 -3.17698 1.31997e-20)
(1.92253 -3.11473 2.64181e-19)
(1.92972 -3.05646 -3.49106e-20)
(1.93681 -3.00085 3.80035e-20)
(1.94305 -2.947 -1.43782e-20)
(1.94792 -2.89426 -2.07429e-21)
(1.9511 -2.84227 2.02191e-19)
(1.95242 -2.79077 7.77972e-21)
(1.95184 -2.73966 2.201e-19)
(1.94937 -2.68891 -2.74281e-20)
(1.94511 -2.63855 -4.87349e-20)
(1.93919 -2.58865 1.14512e-19)
(1.93176 -2.53929 -1.05658e-19)
(1.923 -2.49057 1.1678e-19)
(1.91309 -2.44258 6.35987e-20)
(1.90222 -2.39539 -5.20048e-20)
(1.89055 -2.34903 7.96137e-20)
(1.87822 -2.30352 9.53684e-21)
(1.86533 -2.25881 -3.40967e-20)
(1.8521 -2.21471 1.80542e-20)
(1.83889 -2.17082 1.22511e-19)
(1.8245 -2.12743 1.91334e-20)
(2.3829 -4.18466 -6.25498e-20)
(2.22405 -3.95679 -1.30838e-19)
(2.13729 -3.76453 5.51305e-20)
(2.08253 -3.61102 -2.2133e-19)
(2.0473 -3.48837 1.06986e-19)
(2.02753 -3.38738 -1.97956e-19)
(2.01866 -3.30188 -1.3234e-19)
(2.01688 -3.22742 3.73181e-20)
(2.01944 -3.1607 3.80976e-20)
(2.02429 -3.09929 -1.83052e-19)
(2.02992 -3.04144 -8.03561e-20)
(2.03524 -2.98593 3.77674e-20)
(2.03953 -2.93192 -1.04157e-19)
(2.0423 -2.87887 -4.20077e-20)
(2.04325 -2.82642 -2.85729e-20)
(2.04225 -2.77439 -2.88201e-20)
(2.03928 -2.72271 -1.22828e-19)
(2.03438 -2.67138 -7.78317e-20)
(2.02767 -2.62046 1.37306e-20)
(2.01931 -2.57002 2.57304e-20)
(2.00946 -2.52018 2.79626e-20)
(1.99832 -2.47105 -9.67029e-20)
(1.9861 -2.42272 3.67568e-20)
(1.97298 -2.37528 -7.61586e-20)
(1.95916 -2.32879 7.25374e-20)
(1.94478 -2.28325 -9.55314e-20)
(1.92997 -2.23862 3.04427e-20)
(1.91492 -2.19471 -4.74477e-20)
(1.90005 -2.15109 -6.8097e-20)
(1.88408 -2.10812 -7.01112e-21)
(2.49376 -4.12475 -1.33428e-19)
(2.3332 -3.90783 -1.19201e-19)
(2.24521 -3.72371 -1.18014e-19)
(2.18968 -3.57659 -8.9105e-20)
(2.1539 -3.45894 2.7542e-19)
(2.13357 -3.36173 3.94581e-20)
(2.12399 -3.27901 1.20867e-19)
(2.12131 -3.20652 1.87221e-19)
(2.12273 -3.14112 9.14613e-20)
(2.12619 -3.0805 -1.22185e-19)
(2.13019 -3.02305 2.00143e-19)
(2.13368 -2.96762 -1.95886e-19)
(2.13594 -2.91347 1.87374e-19)
(2.13653 -2.8601 2.25374e-20)
(2.13518 -2.80724 4.87383e-20)
(2.13178 -2.75472 1.61099e-20)
(2.12635 -2.70253 2.0087e-19)
(2.11895 -2.65068 -3.00319e-20)
(2.10973 -2.59925 2.73754e-20)
(2.09887 -2.54835 9.27241e-20)
(2.08655 -2.49811 -1.04022e-19)
(2.073 -2.44863 8.36618e-20)
(2.05842 -2.40005 3.38319e-21)
(2.04302 -2.35245 3.84672e-20)
(2.02702 -2.3059 7.08752e-20)
(2.01058 -2.26041 -1.20901e-20)
(1.99381 -2.21597 7.09461e-20)
(1.97696 -2.17237 1.03571e-19)
(1.96045 -2.12914 -1.12543e-19)
(1.94292 -2.08672 -6.98751e-20)
(2.60316 -4.06197 3.93385e-19)
(2.44139 -3.85602 -4.44821e-20)
(2.35255 -3.68002 9.21272e-20)
(2.29653 -3.53921 1.70734e-19)
(2.26039 -3.42646 -4.9723e-19)
(2.23961 -3.33295 5.46947e-20)
(2.22938 -3.25292 -1.93796e-19)
(2.22581 -3.18233 1.96777e-19)
(2.22606 -3.11818 -1.577e-19)
(2.22809 -3.05832 8.63266e-20)
(2.23041 -3.00124 -3.15883e-19)
(2.23199 -2.9459 8.65587e-21)
(2.23216 -2.89161 -1.07189e-19)
(2.23048 -2.83795 1.63161e-19)
(2.22675 -2.7847 -1.74679e-19)
(2.22089 -2.73175 -9.28111e-21)
(2.21292 -2.67909 -1.44391e-19)
(2.20297 -2.62679 -1.23143e-20)
(2.19118 -2.57493 1.23743e-20)
(2.17777 -2.52365 3.29515e-20)
(2.16294 -2.47307 -1.86258e-19)
(2.14692 -2.42333 -5.80216e-21)
(2.12995 -2.37457 -1.05557e-19)
(2.11225 -2.32688 -2.47274e-20)
(2.09404 -2.28035 -6.55616e-20)
(2.0755 -2.23502 -7.21642e-20)
(2.05677 -2.19087 -7.58549e-20)
(2.03811 -2.14769 1.25561e-19)
(2.01997 -2.10497 3.40003e-20)
(2.00093 -2.06322 -6.77873e-20)
(2.71103 -3.99635 -2.62487e-19)
(2.54857 -3.80138 9.85492e-20)
(2.45926 -3.63344 -1.70385e-19)
(2.40301 -3.49886 2.54096e-20)
(2.36668 -3.39091 2.84292e-19)
(2.34554 -3.30098 -1.45358e-19)
(2.33471 -3.22356 -1.56054e-19)
(2.33025 -3.15479 -1.33369e-19)
(2.32931 -3.09185 6.08005e-21)
(2.32986 -3.03271 8.73515e-20)
(2.33043 -2.97598 -6.44882e-20)
(2.33004 -2.92072 2.31312e-21)
(2.32804 -2.86631 2.04033e-19)
(2.32403 -2.8124 -1.04066e-19)
(2.31785 -2.75881 2.78675e-20)
(2.30945 -2.70547 -8.60723e-20)
(2.29889 -2.65241 3.3037e-20)
(2.28632 -2.59972 7.21022e-20)
(2.27192 -2.54751 8.29178e-20)
(2.25591 -2.49591 -9.1162e-20)
(2.23853 -2.44508 1.30919e-20)
(2.22001 -2.39515 7.93857e-20)
(2.20061 -2.34628 1.38633e-19)
(2.18057 -2.29858 3.73237e-20)
(2.16012 -2.25216 -1.44888e-19)
(2.13947 -2.20706 1.69734e-19)
(2.11876 -2.16329 -8.53051e-20)
(2.09828 -2.12063 -1.0272e-19)
(2.07852 -2.07856 -6.33606e-20)
(2.05801 -2.03761 -8.77308e-20)
(2.81728 -3.92793 1.40693e-19)
(2.65466 -3.7439 -1.13934e-19)
(2.56526 -3.58396 4.37099e-20)
(2.50903 -3.45549 2.35645e-19)
(2.47266 -3.35222 6.50923e-20)
(2.45126 -3.26578 -5.62142e-20)
(2.43986 -3.19088 1.37177e-19)
(2.43451 -3.12387 3.17075e-20)
(2.43235 -3.06208 1.33362e-19)
(2.43137 -3.00364 7.40969e-20)
(2.43014 -2.94725 3.35783e-21)
(2.42771 -2.89207 4.77595e-20)
(2.42345 -2.83756 -1.52149e-20)
(2.41705 -2.78343 2.67715e-20)
(2.40835 -2.72955 7.5567e-20)
(2.39734 -2.67588 -4.19049e-20)
(2.38414 -2.6225 1.04717e-19)
(2.3689 -2.56949 1.07259e-19)
(2.35184 -2.51699 -1.23109e-19)
(2.3332 -2.46516 1.27121e-19)
(2.31323 -2.41415 2.72717e-19)
(2.29219 -2.36411 -1.77284e-19)
(2.27034 -2.3152 1.7985e-19)
(2.24793 -2.26756 -1.26373e-19)
(2.22521 -2.2213 -1.81765e-20)
(2.2024 -2.17649 1.38053e-19)
(2.17968 -2.13318 -2.79223e-20)
(2.15736 -2.09115 1.04917e-19)
(2.13598 -2.04984 1.05023e-19)
(2.11403 -2.00985 -2.11244e-19)
(2.92185 -3.85673 -1.36066e-19)
(2.7596 -3.68362 6.49923e-20)
(2.67049 -3.53156 2.70324e-20)
(2.61452 -3.40908 -2.77093e-19)
(2.57825 -3.31038 -1.45616e-19)
(2.55665 -3.22731 1.10767e-19)
(2.54472 -3.15484 -3.11919e-19)
(2.53845 -3.08952 3.81225e-19)
(2.53504 -3.02885 -2.16187e-19)
(2.53248 -2.97107 2.59626e-20)
(2.52939 -2.91502 -4.10498e-20)
(2.52484 -2.85994 -1.27932e-19)
(2.51827 -2.80536 2.66965e-19)
(2.5094 -2.75106 1.02395e-19)
(2.49811 -2.69694 -1.06123e-19)
(2.48445 -2.64301 3.05247e-21)
(2.46855 -2.58936 6.05788e-20)
(2.4506 -2.53612 -1.32058e-19)
(2.43085 -2.48342 2.81548e-20)
(2.40955 -2.43143 9.29224e-20)
(2.38697 -2.38031 -3.86281e-20)
(2.36338 -2.33023 6.50923e-20)
(2.33905 -2.28135 -1.28658e-19)
(2.31425 -2.23381 1.8769e-19)
(2.28924 -2.18776 4.45205e-20)
(2.26424 -2.1433 -1.20141e-19)
(2.23947 -2.10049 -1.04969e-19)
(2.21526 -2.05918 3.17272e-23)
(2.19226 -2.01874 1.46266e-19)
(2.16888 -1.97987 -3.5702e-20)
(3.0247 -3.7828 -3.74242e-20)
(2.86337 -3.62053 -2.74189e-19)
(2.7749 -3.47623 3.29523e-19)
(2.71939 -3.35959 2.25892e-19)
(2.68334 -3.26532 2.28799e-19)
(2.6616 -3.18553 6.52551e-20)
(2.64914 -3.1154 9.8198e-20)
(2.64196 -3.05171 5.09194e-20)
(2.63725 -2.99211 -2.0312e-19)
(2.63306 -2.93499 3.75166e-19)
(2.62804 -2.87928 -3.0688e-19)
(2.62131 -2.82432 -2.07591e-20)
(2.61236 -2.76971 4.55662e-20)
(2.60095 -2.71528 -2.04816e-19)
(2.58703 -2.66098 1.80409e-19)
(2.57066 -2.60687 -5.42765e-20)
(2.55202 -2.55304 -1.4071e-19)
(2.53133 -2.49964 5.50424e-20)
(2.50886 -2.44682 -1.06056e-19)
(2.48488 -2.39475 -9.43994e-20)
(2.45968 -2.34361 -1.01931e-19)
(2.43354 -2.29355 2.32698e-20)
(2.40673 -2.24474 1.3798e-20)
(2.37952 -2.19735 -2.54642e-19)
(2.35219 -2.15153 -9.77927e-20)
(2.32497 -2.10743 6.29728e-20)
(2.29809 -2.06515 7.89554e-20)
(2.27194 -2.02459 -1.09334e-19)
(2.24724 -1.98512 -4.2007e-20)
(2.22244 -1.9475 4.22966e-21)
(3.1258 -3.70615 -3.23205e-20)
(2.96593 -3.55465 1.77455e-19)
(2.87842 -3.41793 -5.06966e-20)
(2.82354 -3.30698 -6.26432e-20)
(2.7878 -3.21701 -3.56396e-19)
(2.76598 -3.14039 -7.95095e-20)
(2.75299 -3.07254 1.52619e-19)
(2.74488 -3.01043 -1.01917e-19)
(2.73884 -2.95187 -1.1095e-20)
(2.73296 -2.89539 -2.04175e-20)
(2.72595 -2.84003 1.16295e-19)
(2.71697 -2.78521 -1.85119e-19)
(2.70558 -2.73062 -1.25211e-19)
(2.69158 -2.67612 1.4827e-19)
(2.67497 -2.62172 -8.53589e-20)
(2.65585 -2.56749 -1.03758e-19)
(2.63443 -2.51356 2.2314e-19)
(2.61098 -2.46009 -3.52697e-20)
(2.58578 -2.40724 1.33776e-19)
(2.55912 -2.35518 -1.23034e-19)
(2.5313 -2.30408 -1.00309e-19)
(2.5026 -2.25411 8.77712e-20)
(2.47332 -2.20544 -9.79038e-21)
(2.44371 -2.15822 -6.64796e-20)
(2.41405 -2.11264 5.8897e-20)
(2.38459 -2.06886 -1.84855e-19)
(2.35555 -2.02708 1.13048e-19)
(2.32738 -1.98725 -1.78063e-21)
(2.30092 -1.94877 -1.19588e-19)
(2.27467 -1.91247 1.8222e-19)
(3.22523 -3.62685 1.34726e-19)
(3.06733 -3.48597 -3.50208e-19)
(2.981 -3.35664 -2.97528e-20)
(2.92688 -3.2512 1.67554e-19)
(2.89152 -3.16541 -4.38769e-20)
(2.86963 -3.09187 -1.2512e-19)
(2.85614 -3.02622 5.915e-20)
(2.84706 -2.96564 6.91959e-20)
(2.83966 -2.90811 5.96949e-21)
(2.83204 -2.85227 8.66691e-20)
(2.82297 -2.79727 2.79711e-19)
(2.81169 -2.74263 -9.87901e-20)
(2.7978 -2.6881 2.59612e-20)
(2.78116 -2.6336 -6.81295e-20)
(2.7618 -2.57917 2.62178e-19)
(2.7399 -2.52491 -4.75394e-20)
(2.71569 -2.47097 1.58276e-19)
(2.68946 -2.41752 -6.19448e-20)
(2.66152 -2.36473 6.70872e-20)
(2.63218 -2.31276 1.02095e-19)
(2.60176 -2.2618 1.76479e-20)
(2.57054 -2.21199 6.95371e-20)
(2.53881 -2.1635 -5.79138e-20)
(2.50684 -2.11649 1.61993e-19)
(2.47488 -2.07112 -6.65674e-20)
(2.44317 -2.02761 2.45363e-19)
(2.41194 -1.98621 -7.10485e-20)
(2.38165 -1.94696 4.93472e-20)
(2.35331 -1.90934 -9.35563e-20)
(2.32564 -1.87437 1.77658e-19)
(3.32338 -3.54503 -2.9701e-19)
(3.16768 -3.41446 1.10744e-20)
(3.08257 -3.29223 -1.83172e-19)
(3.02926 -3.19217 3.36884e-20)
(2.99433 -3.11047 9.5189e-21)
(2.97242 -3.03993 -1.66964e-19)
(2.95842 -2.97644 -3.16873e-19)
(2.94837 -2.91735 1.59725e-19)
(2.93955 -2.86081 -2.28335e-19)
(2.93015 -2.80562 -1.21812e-19)
(2.91897 -2.75102 -7.01758e-20)
(2.90533 -2.6966 -5.69754e-20)
(2.88888 -2.64219 1.65768e-21)
(2.86954 -2.58776 -2.05788e-19)
(2.84741 -2.53338 1.3673e-19)
(2.82269 -2.47918 -2.25262e-19)
(2.79567 -2.42533 -5.75292e-20)
(2.76665 -2.372 6.28445e-20)
(2.73598 -2.31936 7.96226e-20)
(2.70399 -2.26759 8.00674e-20)
(2.671 -2.21685 6.17456e-20)
(2.6373 -2.16728 -1.55499e-19)
(2.60319 -2.11903 1.57688e-19)
(2.56892 -2.07225 -1.68437e-20)
(2.53473 -2.02709 -4.2737e-20)
(2.50083 -1.98375 -1.70404e-19)
(2.4674 -1.94248 -9.09906e-20)
(2.43487 -1.90339 1.69045e-19)
(2.40435 -1.8661 -5.546e-20)
(2.37493 -1.83253 -5.78969e-20)
(3.42069 -3.46035 1.29024e-19)
(3.267 -3.33967 1.19328e-20)
(3.18294 -3.22451 -3.60651e-20)
(3.13047 -3.12983 -8.09422e-21)
(3.09605 -3.05218 -6.66047e-20)
(3.07418 -2.98459 2.25683e-19)
(3.0597 -2.9232 -1.07333e-19)
(3.04865 -2.86557 7.05751e-20)
(3.03839 -2.81002 2.94549e-20)
(3.02715 -2.75548 1.08019e-19)
(3.0138 -2.7013 -4.24375e-20)
(2.99774 -2.64716 2.40501e-19)
(2.97868 -2.59293 -2.09249e-20)
(2.95661 -2.53865 1.58908e-19)
(2.93167 -2.48441 -2.69005e-19)
(2.90412 -2.43037 -2.09312e-20)
(2.87427 -2.3767 1.76345e-19)
(2.84247 -2.32359 -1.10319e-19)
(2.80909 -2.27122 -7.80284e-20)
(2.77447 -2.21975 -1.35134e-19)
(2.73895 -2.16934 -1.1959e-19)
(2.70285 -2.12012 1.28543e-19)
(2.66645 -2.07221 -1.21896e-19)
(2.63001 -2.02574 2.6611e-20)
(2.59377 -1.98081 9.93693e-20)
(2.55792 -1.93756 6.92371e-20)
(2.5226 -1.89614 6.6024e-20)
(2.48803 -1.8565 4.88959e-20)
(2.45483 -1.81872 -1.32266e-19)
(2.42254 -1.7861 -5.70535e-20)
(5.01453 -0.0292229 1.90052e-21)
(5.00688 -0.161112 1.88706e-20)
(4.9961 -0.292031 6.54981e-20)
(4.98219 -0.422258 3.58238e-20)
(4.96493 -0.551853 -7.56684e-20)
(4.94424 -0.680781 2.29231e-20)
(4.92015 -0.808978 -2.4032e-20)
(4.89268 -0.936363 -6.06507e-20)
(4.86184 -1.06285 1.54313e-19)
(4.82767 -1.18836 -3.67836e-20)
(4.79022 -1.31279 -3.71636e-20)
(4.74951 -1.43606 -7.84213e-20)
(4.70559 -1.5581 -2.24518e-19)
(4.65849 -1.6788 2.07724e-20)
(4.60828 -1.79811 -1.02487e-20)
(4.55499 -1.91592 -6.9851e-20)
(4.49867 -2.03218 1.5002e-19)
(4.43937 -2.14679 8.12028e-20)
(4.37715 -2.25969 1.55483e-19)
(4.31205 -2.37081 7.59362e-20)
(4.24414 -2.48008 -1.69479e-19)
(4.17348 -2.58742 6.76947e-21)
(4.10011 -2.69277 -3.19635e-19)
(4.02411 -2.79608 4.8486e-19)
(3.94554 -2.89727 -1.59031e-19)
(3.86446 -2.99631 -2.04607e-19)
(3.78093 -3.09313 -2.87939e-20)
(3.69504 -3.18773 -1.77809e-21)
(3.60688 -3.28017 -1.53548e-19)
(3.51641 -3.37084 2.7313e-19)
(5.04602 -0.0582173 7.91131e-21)
(5.03245 -0.19036 1.17043e-20)