/*--------------------------------*- C++ -*----------------------------------*\
| =========                 |                                                 |
| \\      /  F ield         | OpenFOAM: The Open Source CFD Toolbox           |
|  \\    /   O peration     | Version:  v1912                                 |
|   \\  /    A nd           | Website:  www.openfoam.com                      |
|    \\/     M anipulation  |                                                 |
\*---------------------------------------------------------------------------*/
FoamFile
{
    version     2.0;
    format      ascii;
    class       volVectorField;
    location    "21";
    object      U;
}
// * * * * * * * * * * * * * * * * * * * * * * * * * * * * * * * * * * * * * //

dimensions      [0 1 -1 0 0 0 0];


internalField   nonuniform List<vector> 
19200
(
(0.636138 -19.3849 -7.88826e-20)
(0.140132 -18.594 0)
(0.331948 -17.9772 0)
(0.326835 -17.4899 0)
(0.363636 -17.0645 0)
(0.405765 -16.6681 0)
(0.443501 -16.2836 -1.54306e-20)
(0.478086 -15.9025 1.5133e-20)
(0.509494 -15.5222 0)
(0.537503 -15.143 0)
(0.562272 -14.7668 -2.21167e-20)
(0.584126 -14.3959 1.30501e-21)
(0.603432 -14.0324 2.00288e-20)
(0.620559 -13.6781 0)
(0.635848 -13.3345 1.61237e-20)
(0.649599 -13.0022 -8.98638e-22)
(0.66207 -12.6818 -1.46796e-20)
(0.673472 -12.3735 0)
(0.683977 -12.0771 0)
(0.693722 -11.7925 0)
(0.702819 -11.5191 0)
(0.711362 -11.2567 0)
(0.719429 -11.0047 9.01335e-21)
(0.727098 -10.7624 -8.86942e-21)
(0.73444 -10.5293 0)
(0.741516 -10.3044 0)
(0.748365 -10.0869 -1.37651e-20)
(0.755123 -9.87535 1.35561e-20)
(0.762127 -9.66838 0)
(0.768402 -9.46419 0)
(1.14282 -19.3684 -1.03261e-19)
(0.628892 -18.6067 5.20701e-20)
(0.804768 -17.9958 0)
(0.786984 -17.5152 0)
(0.812526 -17.0928 0)
(0.843983 -16.697 0)
(0.871214 -16.3116 -1.26409e-19)
(0.895313 -15.9289 6.08999e-20)
(0.91622 -15.5464 -1.83671e-21)
(0.933751 -15.1649 -3.17391e-21)
(0.94813 -14.7865 -9.1921e-20)
(0.959759 -14.4135 8.47666e-20)
(0.96907 -14.0482 -4.03206e-20)
(0.976482 -13.6924 0)
(0.982371 -13.3473 0)
(0.98706 -13.014 0)
(0.990815 -12.6926 0)
(0.993847 -12.3835 0)
(0.996321 -12.0865 0)
(0.998364 -11.8013 0)
(1.00007 -11.5276 -2.15459e-20)
(1.00153 -11.2648 0)
(1.00279 -11.0124 -3.63666e-20)
(1.00391 -10.7699 3.57859e-20)
(1.00496 -10.5366 -3.17457e-20)
(1.00597 -10.3117 3.12515e-20)
(1.00693 -10.0942 0)
(1.008 -9.88281 2.60399e-20)
(1.0096 -9.67594 -2.56496e-20)
(1.01041 -9.47185 2.40776e-20)
(1.6503 -19.3399 -2.12804e-19)
(1.11811 -18.6068 -9.62599e-20)
(1.27857 -18.0018 5.92159e-21)
(1.24846 -17.5284 8.66709e-20)
(1.26289 -17.1089 0)
(1.28373 -16.7139 -1.36079e-19)
(1.30044 -16.328 7.28092e-20)
(1.31397 -15.9437 1.22526e-19)
(1.32427 -15.5593 -5.4964e-20)
(1.3312 -15.1759 -9.7214e-20)
(1.33507 -14.7955 9.53944e-20)
(1.33637 -14.4208 0)
(1.33559 -14.0539 -7.63717e-20)
(1.3332 -13.6968 7.49899e-20)
(1.32962 -13.3507 -6.75252e-20)
(1.32519 -13.0164 0)
(1.32018 -12.6944 0)
(1.3148 -12.3848 0)
(1.30921 -12.0874 0)
(1.30352 -11.8019 9.04505e-20)
(1.29782 -11.5279 -6.7404e-20)
(1.29216 -11.2649 7.85884e-20)
(1.28659 -11.0124 -7.73173e-20)
(1.28116 -10.7699 -6.85223e-20)
(1.27589 -10.5366 1.31504e-19)
(1.27081 -10.3118 -1.23004e-19)
(1.26589 -10.0945 5.90181e-20)
(1.26127 -9.88334 0)
(1.25744 -9.67674 2.53783e-20)
(1.25272 -9.47292 0)
(2.15626 -19.2986 -4.16632e-19)
(1.60698 -18.5941 2.10395e-19)
(1.75277 -17.9953 -1.77823e-19)
(1.71085 -17.5292 1.15553e-20)
(1.71438 -17.113 1.59534e-19)
(1.72465 -16.7189 0)
(1.73081 -16.3325 0)
(1.7337 -15.9471 0)
(1.73329 -15.5611 3.25415e-19)
(1.72952 -15.1759 -6.40667e-21)
(1.72278 -14.7938 -9.59761e-20)
(1.71365 -14.4176 -1.66395e-19)
(1.70269 -14.0495 1.63349e-19)
(1.69043 -13.6914 1.42194e-19)
(1.67732 -13.3445 -7.21268e-20)
(1.66372 -13.0096 0)
(1.64991 -12.6872 0)
(1.63608 -12.3773 0)
(1.6224 -12.0797 0)
(1.60896 -11.7941 0)
(1.59582 -11.5201 8.49375e-20)
(1.58303 -11.2571 -8.35461e-20)
(1.57063 -11.0047 0)
(1.55862 -10.7623 -6.91085e-20)
(1.54704 -10.5292 1.32644e-19)
(1.53587 -10.3047 -1.241e-19)
(1.52505 -10.0877 5.95511e-20)
(1.51475 -9.87695 5.30878e-20)
(1.5055 -9.67077 -1.2747e-19)
(1.49522 -9.46739 -4.67653e-20)
(2.6613 -19.2445 2.13575e-19)
(2.09582 -18.5689 4.01827e-19)
(2.2273 -17.9764 3.70879e-19)
(2.1739 -17.5178 1.63645e-19)
(2.16669 -17.1049 3.00391e-19)
(2.16643 -16.7119 3.94637e-22)
(2.16201 -16.3253 2.70304e-19)
(2.15419 -15.9388 3.64402e-19)
(2.14297 -15.5515 1.11192e-19)
(2.12839 -15.1648 2.03534e-19)
(2.11095 -14.7814 6.14878e-21)
(2.0913 -14.404 1.78051e-19)
(2.07009 -14.035 5.11548e-21)
(2.0479 -13.6761 4.4281e-19)
(2.02521 -13.3287 -4.09931e-19)
(2.0024 -12.9935 2.5703e-19)
(1.97974 -12.671 0)
(1.95745 -12.361 0)
(1.93566 -12.0635 1.01667e-19)
(1.91445 -11.778 0)
(1.89387 -11.5041 8.81914e-20)
(1.87395 -11.2413 7.98538e-20)
(1.85469 -10.9892 -7.85623e-20)
(1.83612 -10.747 7.17544e-20)
(1.81821 -10.5143 0)
(1.80095 -10.2902 0)
(1.78426 -10.0737 5.88234e-20)
(1.76828 -9.86358 5.51358e-20)
(1.75363 -9.65799 4.88339e-20)
(1.73777 -9.45524 -1.04109e-19)
(3.1649 -19.1775 -2.15111e-19)
(2.58425 -18.531 -4.01826e-19)
(2.70181 -17.945 -5.50623e-19)
(2.63728 -17.494 -1.52891e-19)
(2.61949 -17.0846 -2.89891e-19)
(2.60874 -16.6929 1.0657e-20)
(2.59371 -16.3062 -2.61725e-19)
(2.5751 -15.919 -2.4045e-19)
(2.55299 -15.5305 -2.21111e-19)
(2.5275 -15.1427 -4.01471e-19)
(2.49926 -14.7582 1.28387e-20)
(2.46901 -14.3799 3.53176e-19)
(2.43749 -14.0102 -1.54693e-19)
(2.40531 -13.6509 1.53766e-19)
(2.373 -13.3033 4.0793e-19)
(2.34095 -12.9681 -1.30228e-19)
(2.30944 -12.6456 0)
(2.27867 -12.3359 1.10071e-19)
(2.24875 -12.0386 1.99366e-19)
(2.21977 -11.7535 -2.85006e-19)
(2.19174 -11.4799 9.37539e-20)
(2.16468 -11.2176 2.43827e-19)
(2.13858 -10.9659 6.93644e-20)
(2.11343 -10.7242 -2.87857e-19)
(2.08922 -10.492 2.05947e-19)
(2.06588 -10.2685 0)
(2.04332 -10.0527 5.06327e-22)
(2.02171 -9.84324 1.08613e-19)
(2.00168 -9.6384 -2.61406e-21)
(1.98024 -9.43647 1.00272e-19)
(3.66684 -19.0975 4.11144e-19)
(3.07207 -18.4805 -4.2708e-19)
(3.17606 -17.9011 0)
(3.1007 -17.4578 -3.42821e-19)
(3.07246 -17.052 -3.03311e-19)
(3.05125 -16.6617 -2.69189e-19)
(3.02556 -16.2752 2.72923e-19)
(2.9961 -15.8875 0)
(2.963 -15.4982 -2.23602e-19)
(2.92653 -15.1094 0)
(2.88741 -14.7242 -3.7839e-19)
(2.8465 -14.3453 -3.49142e-19)
(2.8046 -13.9753 -1.6079e-19)
(2.76239 -13.6158 -1.48707e-19)
(2.72043 -13.2683 1.3082e-19)
(2.67911 -12.9333 -3.91419e-19)
(2.63873 -12.6112 0)
(2.59947 -12.3019 -1.10071e-19)
(2.56143 -12.0052 7.01621e-22)
(2.52467 -11.7206 -9.53232e-20)
(2.4892 -11.4476 0)
(2.45501 -11.1859 7.92854e-20)
(2.42207 -10.9348 -2.36933e-19)
(2.39037 -10.6937 5.63087e-22)
(2.35986 -10.4622 6.48785e-20)
(2.33047 -10.2394 -6.356e-21)
(2.30207 -10.0245 -6.52198e-20)
(2.27485 -9.81593 -2.79247e-19)
(2.24949 -9.61199 5.52639e-20)
(2.22248 -9.41109 0)
(4.16676 -19.0045 -9.95357e-22)
(3.55896 -18.4172 0)
(3.64973 -17.8447 -3.63248e-19)
(3.56384 -17.4092 1.04346e-18)
(3.52529 -17.0072 -1.08777e-20)
(3.49362 -16.6184 2.79017e-19)
(3.45725 -16.2323 5.23003e-19)
(3.41686 -15.8443 -1.58142e-20)
(3.3727 -15.4544 -8.10267e-21)
(3.32515 -15.0651 2.00192e-19)
(3.27508 -14.6794 -3.7592e-19)
(3.22344 -14.3002 5.37453e-19)
(3.17112 -13.9301 -3.15081e-19)
(3.11885 -13.5708 3.09381e-19)
(3.06721 -13.2236 -2.70184e-19)
(3.01662 -12.8892 1.47752e-20)
(2.96736 -12.5677 2.46264e-19)
(2.91961 -12.2591 0)
(2.87346 -11.9631 9.83383e-20)
(2.82894 -11.6793 -1.98035e-19)
(2.78603 -11.4072 1.75008e-19)
(2.74472 -11.1462 -8.77538e-21)
(2.70497 -10.8959 -1.60724e-19)
(2.66672 -10.6557 -7.28894e-20)
(2.62993 -10.425 0)
(2.59451 -10.2031 6.43576e-20)
(2.56031 -9.98911 0)
(2.52753 -9.78164 0)
(2.49689 -9.57879 0)
(2.46435 -9.37912 0)
(4.66434 -18.8985 -8.75471e-19)
(4.04461 -18.3412 8.19908e-19)
(4.1225 -17.7757 -7.57057e-19)
(4.02636 -17.3481 -3.44594e-19)
(3.97763 -16.95 9.29121e-21)
(3.93553 -16.5629 1.07593e-20)
(3.88843 -16.1775 -2.66017e-19)
(3.83705 -15.7894 0)
(3.78174 -15.3992 0)
(3.72304 -15.0096 -1.3635e-20)
(3.66195 -14.6237 -3.95047e-19)
(3.59954 -14.2446 6.96923e-19)
(3.53676 -13.8747 -1.96217e-20)
(3.4744 -13.5159 -3.11178e-19)
(3.41308 -13.1694 2.8044e-19)
(3.35321 -12.8357 -2.52196e-19)
(3.29508 -12.5151 4.82047e-19)
(3.23885 -12.2075 -2.30215e-19)
(3.18459 -11.9125 0)
(3.13232 -11.6297 5.65399e-21)
(3.082 -11.3586 9.57054e-21)
(3.0336 -11.0986 3.97545e-21)
(2.98704 -10.8493 0)
(2.94227 -10.61 0)
(2.89923 -10.3803 0)
(2.85781 -10.1595 -6.43577e-20)
(2.81785 -9.94666 0)
(2.77956 -9.74041 2.21863e-19)
(2.7437 -9.5388 -1.01746e-20)
(2.70566 -9.34059 -4.21969e-19)
(5.15924 -18.7796 1.3127e-18)
(4.52867 -18.2524 -4.20792e-19)
(4.59404 -17.6941 -3.94879e-19)
(4.48795 -17.2745 0)
(4.42914 -16.8804 0)
(4.37663 -16.4953 0)
(4.31876 -16.1106 0)
(4.25632 -15.7227 -9.71403e-19)
(4.18979 -15.3325 4.6832e-19)
(4.11988 -14.9429 4.16217e-19)
(4.04772 -14.5572 0)
(3.97448 -14.1784 -3.54115e-19)
(3.90122 -13.8091 -3.18709e-19)
(3.82876 -13.4511 1.79148e-20)
(3.75774 -13.1055 9.3135e-21)
(3.6886 -12.7729 -2.53727e-19)
(3.62161 -12.4534 2.493e-19)
(3.55692 -12.147 -2.19215e-19)
(3.49458 -11.8533 2.15485e-19)
(3.43458 -11.5717 -1.94601e-19)
(3.37688 -11.3018 -1.82681e-19)
(3.3214 -11.043 5.00792e-19)
(3.26807 -10.7949 -4.85415e-19)
(3.21681 -10.5568 2.89772e-19)
(3.16756 -10.3283 -2.85204e-19)
(3.12018 -10.1087 0)
(3.07449 -9.89712 0)
(3.03075 -9.69226 -1.1497e-19)
(2.98973 -9.49207 0)
(2.94625 -9.29553 -3.14672e-19)
(5.65112 -18.6478 -4.63291e-19)
(5.01081 -18.1508 -3.41495e-20)
(5.06402 -17.5999 3.67704e-19)
(4.94825 -17.1884 -3.37633e-19)
(4.87949 -16.7984 -3.10185e-19)
(4.81657 -16.4154 5.88322e-19)
(4.7479 -16.0318 -1.82135e-20)
(4.67434 -15.6444 -4.97842e-19)
(4.59653 -15.2544 4.70711e-19)
(4.51535 -14.8651 4.06862e-19)
(4.43206 -14.4799 -7.8699e-19)
(4.34797 -14.1018 3.57928e-19)
(4.2642 -13.7334 -3.30817e-19)
(4.18164 -13.3764 0)
(4.10093 -13.032 0)
(4.02253 -12.7008 -5.18372e-19)
(3.9467 -12.3827 2.58037e-19)
(3.87357 -12.0778 -2.14776e-19)
(3.80318 -11.7855 1.14293e-20)
(3.73549 -11.5054 4.82237e-21)
(3.67043 -11.237 3.66557e-19)
(3.60791 -10.9796 1.62005e-19)
(3.54784 -10.7328 -1.68934e-19)
(3.49012 -10.496 0)
(3.43469 -10.2689 2.73313e-19)
(3.38139 -10.0506 -1.37386e-19)
(3.33003 -9.84052 0)
(3.28089 -9.63721 1.1497e-19)
(3.23479 -9.4386 3.20605e-19)
(3.18594 -9.24396 -1.12719e-19)
(6.13964 -18.5032 4.17035e-19)
(5.4907 -18.0365 -3.422e-20)
(5.5321 -17.4931 -2.44443e-20)
(5.40692 -17.0898 -3.63119e-19)
(5.32832 -16.7041 6.41161e-19)
(5.25502 -16.3233 -1.15942e-18)
(5.17551 -15.9409 1.1002e-18)
(5.09077 -15.5543 4.82267e-19)
(5.00162 -15.1649 -2.92137e-20)
(4.90911 -14.7762 -2.65069e-20)
(4.81466 -14.3917 -1.35404e-20)
(4.7197 -14.0146 -9.51428e-21)
(4.62541 -13.6474 -3.3342e-19)
(4.53274 -13.2919 1.80402e-20)
(4.44236 -12.949 1.64281e-20)
(4.35472 -12.6194 5.34827e-19)
(4.27008 -12.303 -2.44399e-19)
(4.18855 -11.9998 2.27251e-19)
(4.11014 -11.7093 4.13344e-19)
(4.0348 -11.4308 -2.09276e-19)
(3.96242 -11.164 -1.83876e-19)
(3.8929 -10.9082 1.71688e-19)
(3.82612 -10.663 0)
(3.76199 -10.4278 -2.93924e-19)
(3.70041 -10.2021 1.40022e-20)
(3.64124 -9.98539 1.3933e-19)
(3.58426 -9.77691 2.4205e-19)
(3.5298 -9.5753 -2.38376e-19)
(3.47869 -9.37845 1.04718e-19)
(3.42455 -9.18591 -9.71971e-21)
(6.62446 -18.3458 2.21976e-18)
(5.96798 -17.9094 4.30552e-19)
(5.99793 -17.3736 -3.47661e-19)
(5.86362 -16.9787 7.29632e-19)
(5.77529 -16.5973 1.27245e-18)
(5.69161 -16.219 -1.89897e-20)
(5.60123 -15.8381 0)
(5.50527 -15.4524 0)
(5.40473 -15.064 0)
(5.30085 -14.6762 4.24716e-19)
(5.19521 -14.2928 0)
(5.08935 -13.917 0)
(4.98455 -13.5514 3.34263e-19)
(4.88179 -13.1975 -2.99931e-19)
(4.78176 -12.8564 5.72656e-19)
(4.68491 -12.5287 -5.39246e-19)
(4.59149 -12.2143 7.27015e-19)
(4.5016 -11.9131 -2.41654e-19)
(4.41521 -11.6245 2.14073e-19)
(4.33225 -11.348 -3.87744e-19)
(4.2526 -11.0831 9.29414e-19)
(4.17612 -10.8291 -3.5598e-19)
(4.10269 -10.5856 4.78777e-19)
(4.03218 -10.352 -1.67338e-19)
(3.96451 -10.128 -1.4879e-19)
(3.89952 -9.91303 1.33558e-19)
(3.83698 -9.70632 3.69127e-19)
(3.77726 -9.50657 -2.40139e-19)
(3.72123 -9.31166 1.10456e-19)
(3.6619 -9.12144 -1.03895e-19)
(7.10524 -18.1757 3.67088e-21)
(6.44231 -17.7697 3.69748e-21)
(6.46116 -17.2416 7.74984e-19)
(6.318 -16.855 -6.84884e-19)
(6.22004 -16.4781 2.41176e-20)
(6.126 -16.1024 -5.93949e-19)
(6.02473 -15.7233 -5.29564e-19)
(5.9175 -15.3389 1.02293e-18)
(5.80552 -14.9516 0)
(5.69023 -14.5651 -4.24717e-19)
(5.57339 -14.1832 -3.81001e-19)
(5.45663 -13.809 3.73948e-19)
(5.34132 -13.4452 -3.34264e-19)
(5.22849 -13.0933 0)
(5.11884 -12.7544 -2.70908e-19)
(5.01282 -12.4289 8.15336e-19)
(4.91067 -12.1167 -2.47187e-19)
(4.81245 -11.8177 4.50291e-19)
(4.71814 -11.5313 -1.07373e-18)
(4.62762 -11.257 8.01345e-19)
(4.54074 -10.9941 -9.33955e-19)
(4.45735 -10.7422 3.58184e-19)
(4.37731 -10.5006 -1.62587e-19)
(4.30048 -10.2689 -1.45783e-19)
(4.22677 -10.0467 1.50484e-20)
(4.156 -9.83359 4.02963e-19)
(4.08796 -9.62882 -5.0243e-19)
(4.02307 -9.43109 2.41873e-19)
(3.96221 -9.23826 -1.10457e-19)
(3.89781 -9.05059 1.05591e-19)
(7.58165 -17.993 -4.0837e-20)
(6.91335 -17.6173 -1.72468e-18)
(6.92145 -17.097 -1.52611e-18)
(6.7697 -16.7189 2.3769e-20)
(6.66222 -16.3466 -6.3093e-19)
(6.55784 -15.9737 6.18568e-19)
(6.44565 -15.5965 0)
(6.32711 -15.2137 -5.03575e-19)
(6.20366 -14.8279 0)
(6.07694 -14.443 0)
(5.94887 -14.0628 -3.8282e-19)
(5.82123 -13.6907 7.29401e-19)
(5.69543 -13.329 -3.47195e-19)
(5.57255 -12.9794 6.06042e-19)
(5.45331 -12.6429 -1.44547e-18)
(5.33817 -12.3199 5.52107e-19)
(5.22733 -12.0102 0)
(5.12085 -11.7137 -6.82699e-19)
(5.01867 -11.4297 4.43826e-19)
(4.92063 -11.1578 0)
(4.82658 -10.8972 -1.88411e-19)
(4.73634 -10.6475 0)
(4.64974 -10.408 1.55642e-19)
(4.56664 -10.1784 -6.15021e-19)
(4.48694 -9.95828 7.31935e-21)
(4.41046 -9.74715 -2.63534e-19)
(4.337 -9.54446 -2.41055e-19)
(4.26701 -9.34891 2.43576e-19)
(4.20143 -9.15834 -2.18405e-19)
(4.13209 -8.97343 2.26368e-19)
(8.05335 -17.7978 0)
(7.38075 -17.4523 0)
(7.37846 -16.94 7.54396e-19)
(7.21838 -16.5703 -2.69718e-20)
(7.10148 -16.2028 -6.33709e-19)
(6.98678 -15.8329 6.21293e-19)
(6.86364 -15.4579 -5.34339e-19)
(6.73376 -15.0769 1.0321e-18)
(6.59881 -14.6929 -4.67458e-19)
(6.46065 -14.3099 -4.16793e-19)
(6.32136 -13.9318 2.44e-20)
(6.18283 -13.562 7.32806e-19)
(6.04657 -13.2028 3.08628e-19)
(5.91368 -12.8558 -3.31568e-19)
(5.78491 -12.522 -5.64853e-19)
(5.6607 -12.2018 5.54876e-19)
(5.54123 -11.8949 2.51122e-19)
(5.42654 -11.6011 0)
(5.31654 -11.3198 0)
(5.21105 -11.0505 2.02974e-19)
(5.10989 -10.7925 5.56891e-19)
(5.01285 -10.5452 -7.06867e-19)
(4.91975 -10.3081 1.81239e-19)
(4.83044 -10.0807 7.73915e-19)
(4.74481 -9.86272 -1.52631e-19)
(4.66268 -9.65378 0)
(4.58386 -9.45333 2.54928e-19)
(4.50885 -9.26012 0)
(4.43866 -9.07197 2.19992e-19)
(4.36455 -8.89005 -3.39881e-19)
(8.51999 -17.5903 -8.57861e-19)
(7.84418 -17.2748 1.74262e-18)
(7.83185 -16.7704 7.84975e-19)
(7.66369 -16.4093 0)
(7.53746 -16.0466 -6.58722e-19)
(7.41245 -15.6799 0)
(7.27837 -15.3074 -5.5511e-19)
(7.13712 -14.9286 -1.46177e-20)
(6.99065 -14.5467 -1.6558e-20)
(6.84103 -14.1659 -4.3246e-19)
(6.69053 -13.7903 -3.98877e-19)
(6.54114 -13.4231 -3.6838e-19)
(6.39445 -13.0666 0)
(6.2516 -12.7226 2.97907e-19)
(6.11335 -12.3918 -3.337e-20)
(5.98012 -12.0746 -5.57569e-19)
(5.85209 -11.7708 -7.41292e-19)
(5.72925 -11.48 2.4688e-19)
(5.61149 -11.2017 4.25274e-19)
(5.49862 -10.9352 -1.01788e-18)
(5.3904 -10.6799 1.9967e-19)
(5.28663 -10.4353 0)
(5.18708 -10.2007 0)
(5.09162 -9.97575 1.48569e-19)
(5.00011 -9.76015 -4.45019e-19)
(4.9124 -9.55355 0)
(4.82829 -9.3555 -1.2789e-19)
(4.74837 -9.1648 0)
(4.67367 -8.97925 0)
(4.59495 -8.80054 4.39082e-19)
(8.98126 -17.3704 -1.81154e-18)
(8.30329 -17.0849 -8.49724e-19)
(8.28126 -16.5885 -7.84979e-19)
(8.10527 -16.2359 0)
(7.96982 -15.8782 1.32015e-18)
(7.83453 -15.515 -5.86612e-19)
(7.68948 -15.1451 5.91439e-19)
(7.53685 -14.7687 5.28489e-19)
(7.37884 -14.3892 4.71399e-19)
(7.21777 -14.011 8.52885e-19)
(7.05607 -13.6382 -1.36738e-20)
(6.89585 -13.2739 2.12889e-20)
(6.73878 -12.9207 7.03928e-19)
(6.58603 -12.5799 -6.14707e-19)
(6.43835 -12.2524 6.03717e-19)
(6.29617 -11.9385 5.29672e-19)
(6.15963 -11.638 -1.01301e-18)
(6.02872 -11.3504 9.54922e-19)
(5.90327 -11.0753 -4.27473e-19)
(5.78307 -10.8119 4.20291e-19)
(5.66787 -10.5596 9.45889e-21)
(5.55741 -10.3178 7.14858e-19)
(5.45149 -10.086 -3.42741e-19)
(5.34993 -9.86368 4.62313e-19)
(5.25261 -9.65063 -1.54433e-19)
(5.15938 -9.44655 0)
(5.07005 -9.25108 0)
(4.98529 -9.06304 -3.52493e-19)
(4.9062 -8.88027 4.67096e-19)
(4.82306 -8.70499 1.12674e-19)
(9.43683 -17.1384 1.81663e-18)
(8.75776 -16.8827 0)
(8.72638 -16.3944 7.63792e-19)
(8.5428 -16.0503 -7.48653e-19)
(8.39821 -15.6977 2.63028e-21)
(8.25265 -15.338 5.88981e-19)
(8.09663 -14.9711 -5.77528e-19)
(7.93261 -14.5974 0)
(7.76306 -14.2207 -4.71402e-19)
(7.59055 -13.8454 8.44314e-19)
(7.41767 -13.4757 -8.28511e-19)
(7.24667 -13.1147 3.50136e-19)
(7.07927 -12.7649 -1.37326e-18)
(6.91668 -12.4276 3.68718e-20)
(6.75964 -12.1038 1.1792e-18)
(6.60858 -11.7934 -5.62704e-19)
(6.46361 -11.4965 4.94904e-19)
(6.32468 -11.2125 -7.22366e-19)
(6.19161 -10.9407 -4.296e-19)
(6.06415 -10.6807 4.22382e-19)
(5.94202 -10.4316 -5.66074e-19)
(5.82495 -10.1929 3.68412e-19)
(5.71271 -9.964 0)
(5.60511 -9.74456 -1.5688e-19)
(5.50204 -9.53425 0)
(5.40334 -9.33287 0)
(5.30887 -9.14013 -5.07903e-19)
(5.21934 -8.95493 3.78484e-19)
(5.13598 -8.77513 4.49256e-19)
(5.04862 -8.6035 -9.1227e-19)
(9.88637 -16.8944 -8.69526e-19)
(9.20726 -16.6683 9.03232e-19)
(9.16688 -16.188 7.66782e-19)
(8.97592 -15.8525 -7.51584e-19)
(8.82228 -15.5051 -6.64063e-19)
(8.66648 -15.1491 -5.91283e-19)
(8.49948 -14.7855 3.66146e-20)
(8.32407 -14.4148 1.03217e-18)
(8.14299 -14.0412 -4.89931e-19)
(7.95905 -13.6691 0)
(7.77504 -13.3028 0)
(7.59331 -12.9455 7.23041e-19)
(7.41564 -12.5994 -7.09806e-19)
(7.24327 -12.266 0)
(7.07695 -11.946 0)
(6.91707 -11.6396 0)
(6.76374 -11.3464 0)
(6.61687 -11.0662 0)
(6.47625 -10.7981 -4.3165e-19)
(6.34159 -10.5416 4.24397e-19)
(6.2126 -10.296 3.76438e-19)
(6.08898 -10.0605 -3.70272e-19)
(5.97047 -9.83485 0)
(5.85689 -9.61846 0)
(5.74812 -9.4111 0)
(5.64401 -9.21261 0)
(5.54446 -9.02278 0)
(5.45025 -8.84058 0)
(5.36271 -8.66392 0)
(5.27136 -8.49618 0)
(10.3296 -16.6386 0)
(9.65148 -16.4418 0)
(9.60242 -15.9695 0)
(9.4043 -15.6426 0)
(9.24168 -15.3005 1.33823e-18)
(9.07567 -14.9485 1.22801e-18)
(8.89771 -14.5883 5.82442e-19)
(8.71089 -14.221 1.57119e-18)
(8.5183 -13.8507 0)
(8.32297 -13.4822 0)
(8.12787 -13.1197 1.59597e-18)
(7.93546 -12.7663 -1.49672e-18)
(7.74759 -12.4243 2.07699e-18)
(7.56552 -12.0951 -1.80946e-20)
(7.39 -11.7792 5.95012e-19)
(7.22139 -11.4769 1.58451e-20)
(7.05978 -11.1879 1.04118e-18)
(6.90504 -10.9116 4.65031e-19)
(6.75694 -10.6475 -1.12563e-20)
(6.61515 -10.3947 4.04771e-19)
(6.47935 -10.1527 -3.98056e-19)
(6.34923 -9.92087 0)
(6.22451 -9.69857 3.40235e-19)
(6.10499 -9.48545 3.18812e-19)
(5.99057 -9.28125 2.99021e-19)
(5.8811 -9.08583 2.80714e-19)
(5.77652 -8.8991 5.14106e-19)
(5.67769 -8.72009 -2.29261e-20)
(5.58609 -8.54677 -9.31337e-19)
(5.49098 -8.38313 1.93772e-20)
(10.7661 -16.371 2.71666e-18)
(10.0901 -16.2034 -9.09767e-19)
(10.0327 -15.739 8.27894e-19)
(9.82761 -15.4206 -7.07879e-19)
(9.65609 -15.0839 -3.33031e-18)
(9.47989 -14.7361 6.40677e-19)
(9.29096 -14.3796 -1.67488e-18)
(9.09277 -14.016 5.40339e-19)
(8.88868 -13.6494 -3.06487e-20)
(8.68199 -13.2848 -9.08968e-19)
(8.47586 -12.9264 -7.85379e-19)
(8.27285 -12.5773 7.73704e-19)
(8.07486 -12.2397 -6.92621e-19)
(7.88318 -11.9149 6.27368e-19)
(7.69854 -11.6035 -1.20881e-18)
(7.52128 -11.3056 2.14326e-21)
(7.35147 -11.0209 -1.01517e-18)
(7.18894 -10.7488 4.79417e-19)
(7.03341 -10.4888 -2.17116e-20)
(6.88455 -10.2401 -2.16033e-20)
(6.742 -10.002 -1.17016e-18)
(6.60542 -9.77389 3.73757e-19)
(6.47453 -9.55522 -6.82056e-19)
(6.34913 -9.3456 1.53521e-21)
(6.22908 -9.14476 -8.84779e-19)
(6.1143 -8.95265 2.95921e-19)
(6.00472 -8.76921 -5.1707e-19)
(5.90134 -8.59358 5.09222e-19)
(5.80578 -8.42379 2.3469e-19)
(5.70716 -8.26451 0)
(11.1958 -16.092 6.15512e-21)
(10.5229 -15.9532 1.73834e-18)
(10.4574 -15.4967 -1.60045e-18)
(10.2455 -15.1868 -5.1538e-21)
(10.0652 -14.8556 2.69087e-18)
(9.8788 -14.5122 4.26248e-21)
(9.67893 -14.1597 -1.13559e-18)
(9.46936 -13.7999 -1.04018e-18)
(9.25381 -13.4374 9.57148e-19)
(9.03582 -13.0771 -8.84853e-19)
(8.81872 -12.7231 -8.13518e-19)
(8.60519 -12.3786 0)
(8.39718 -12.0457 6.76796e-19)
(8.19597 -11.7256 -1.95474e-18)
(8.0023 -11.4189 0)
(7.8165 -11.1256 -5.54729e-19)
(7.63856 -10.8455 0)
(7.46831 -10.5779 -1.82928e-21)
(7.30542 -10.3223 -1.04518e-20)
(7.14955 -10.0778 -4.29915e-19)
(7.00029 -9.84377 8.74653e-21)
(6.85729 -9.61963 7.32445e-19)
(6.72026 -9.40482 -9.48614e-21)
(6.58898 -9.19892 3.06871e-19)
(6.46334 -9.0017 -9.19267e-19)
(6.34325 -8.81311 0)
(6.2287 -8.6332 0)
(6.12078 -8.46116 -2.50773e-19)
(6.02133 -8.29513 -2.34692e-19)
(5.91946 -8.14048 -4.59063e-19)
(11.6184 -15.8016 -1.84703e-18)
(10.9495 -15.6914 -2.58422e-18)
(10.8763 -15.2425 -7.82588e-19)
(10.6577 -14.9412 1.47029e-18)
(10.4686 -14.6156 -1.34779e-18)
(10.2721 -14.2767 -1.23671e-18)
(10.0613 -13.9285 1.1356e-18)
(9.84036 -13.573 1.04717e-18)
(9.61338 -13.2148 0)
(9.38416 -12.8591 8.84861e-19)
(9.15618 -12.5099 0)
(8.93222 -12.1703 0)
(8.71428 -11.8423 0)
(8.50365 -11.5272 6.46246e-19)
(8.30106 -11.2255 0)
(8.10679 -10.9372 0)
(7.92082 -10.6618 5.05153e-19)
(7.74292 -10.3989 4.69526e-19)
(7.57275 -10.1478 0)
(7.4099 -9.90775 0)
(7.25397 -9.67806 3.93436e-19)
(7.10457 -9.45811 -3.68049e-19)
(6.9614 -9.24736 3.44673e-19)
(6.82424 -9.04541 0)
(6.69297 -8.85204 3.01935e-19)
(6.56755 -8.66723 0)
(6.44801 -8.49108 0)
(6.33553 -8.32289 5.02821e-19)
(6.23218 -8.16087 0)
(6.12721 -8.01117 0)
(12.0336 -15.5 0)
(11.3698 -15.4181 0)
(11.289 -14.9767 1.61164e-18)
(11.0639 -14.6838 0)
(10.866 -14.364 -6.55672e-19)
(10.6594 -14.03 6.42826e-19)
(10.4377 -13.6862 -1.10549e-18)
(10.2054 -13.3353 2.10398e-18)
(9.96711 -12.9818 -3.0524e-20)
(9.72672 -12.631 -8.90531e-19)
(9.48795 -12.2869 1.61791e-18)
(9.25367 -11.9525 -2.25822e-20)
(9.02591 -11.6298 7.02179e-19)
(8.80598 -11.32 0)
(8.59458 -11.0235 1.1896e-18)
(8.39195 -10.7402 -1.12055e-18)
(8.19803 -10.4699 1.05655e-18)
(8.01257 -10.2119 -9.56087e-19)
(7.83517 -9.96552 9.16806e-19)
(7.6654 -9.73008 4.22473e-19)
(7.50281 -9.50488 1.35675e-21)
(7.34702 -9.2893 3.68053e-19)
(7.19769 -9.08281 -3.44676e-19)
(7.0546 -8.88502 3.24322e-19)
(6.91764 -8.69571 3.044e-19)
(6.78679 -8.51491 0)
(6.66215 -8.34278 -2.56049e-19)
(6.545 -8.17866 2.39622e-20)
(6.43763 -8.02091 1.1915e-18)
(6.3296 -7.8765 -2.4642e-19)
(12.4414 -15.1873 9.77287e-19)
(11.7833 -15.1334 -1.68532e-18)
(11.6953 -14.6994 5.13961e-20)
(11.4637 -14.4149 1.53523e-18)
(11.2571 -14.101 1.36093e-18)
(11.0404 -13.7719 6.03774e-19)
(10.8078 -13.433 1.14642e-18)
(10.5643 -13.0869 1.02278e-18)
(10.3147 -12.7385 -2.90544e-18)
(10.0632 -12.3929 1.81148e-18)
(9.81376 -12.0542 -1.6456e-18)
(9.56927 -11.7253 2.25855e-21)
(9.33183 -11.4082 -7.02186e-19)
(9.10273 -11.1039 -6.52462e-19)
(8.88263 -10.8129 -6.03446e-19)
(8.67176 -10.535 1.10869e-18)
(8.47 -10.2698 -1.58116e-18)
(8.27706 -10.0169 0)
(8.09249 -9.77543 -4.5261e-19)
(7.91584 -9.54476 -4.22477e-19)
(7.74663 -9.32421 -7.80618e-19)
(7.58444 -9.11316 3.79497e-19)
(7.42892 -8.91111 6.76718e-19)
(7.27984 -8.71767 -9.90238e-19)
(7.1371 -8.53264 -3.04403e-19)
(7.00068 -8.35608 -5.60323e-19)
(6.87076 -8.18819 2.82715e-19)
(6.74872 -8.0284 -7.49668e-19)
(6.63698 -7.87524 2.50521e-19)
(6.52564 -7.73636 -2.37498e-19)
(12.8418 -14.8639 -3.74969e-20)
(12.19 -14.8375 8.30874e-19)
(12.0947 -14.4107 1.62731e-18)
(11.8569 -14.1345 -7.65356e-19)
(11.6415 -13.8266 -1.3651e-18)
(11.4147 -13.5028 -1.20727e-18)
(11.1713 -13.169 -5.52761e-19)
(10.9166 -12.8281 -1.05362e-18)
(10.6557 -12.4851 9.72204e-19)
(10.3933 -12.145 0)
(10.1333 -11.8121 8.24029e-19)
(9.87878 -11.489 -7.61281e-19)
(9.6318 -11.1777 -7.06276e-19)
(9.39366 -10.8792 6.52469e-19)
(9.16501 -10.5938 -6.06985e-19)
(8.94603 -10.3215 -5.62232e-19)
(8.73655 -10.0617 5.08523e-19)
(8.53621 -9.81397 -5.01209e-19)
(8.34456 -9.57756 0)
(8.16107 -9.35179 0)
(7.98524 -9.13601 0)
(7.81663 -8.92963 7.24344e-19)
(7.65487 -8.73216 -7.12629e-19)
(7.49973 -8.54325 0)
(7.3511 -8.36272 0)
(7.20902 -8.19069 0)
(7.07371 -8.02743 0)
(6.94663 -7.87242 -2.55096e-19)
(6.83034 -7.72426 -4.70507e-19)
(6.71566 -7.59098 2.48776e-19)
(13.2357 -14.5305 8.99534e-19)
(12.5899 -14.5306 -9.27957e-19)
(12.4872 -14.1107 -2.41538e-18)
(12.2432 -13.8427 2.26626e-18)
(12.019 -13.5409 -6.6166e-19)
(11.782 -13.2226 6.48696e-19)
(11.5278 -12.8943 3.76043e-20)
(11.262 -12.5589 3.17871e-18)
(10.99 -12.2216 -1.97807e-18)
(10.7168 -11.8875 8.98097e-19)
(10.4464 -11.5606 8.28549e-19)
(10.1819 -11.2436 7.42539e-19)
(9.92557 -10.9384 6.85496e-19)
(9.67856 -10.6459 -6.37115e-19)
(9.44153 -10.3664 1.24997e-18)
(9.21458 -10.0998 5.80898e-19)
(8.9975 -9.84559 5.24395e-19)
(8.78989 -9.60319 -4.76414e-19)
(8.59123 -9.37194 9.12673e-19)
(8.40095 -9.15115 -4.36899e-19)
(8.2185 -8.94019 0)
(8.0434 -8.73852 0)
(7.87526 -8.54568 0)
(7.71382 -8.36139 6.38192e-19)
(7.55903 -8.18556 -6.28131e-19)
(7.41096 -8.01841 0)
(7.27 -7.86037 0)
(7.13782 -7.7109 2.55099e-19)
(7.01717 -7.56856 -4.72492e-19)
(6.90009 -7.44215 7.30744e-19)
(13.6245 -14.1877 -4.07728e-20)
(12.9834 -14.212 -9.30974e-19)
(12.872 -13.7989 -1.63676e-18)
(12.622 -13.5394 -7.7011e-19)
(12.3891 -13.2441 6.6327e-19)
(12.142 -12.9317 -1.25918e-18)
(11.877 -12.6091 -1.1529e-18)
(11.6002 -12.2796 -1.0595e-18)
(11.3173 -11.9484 0)
(11.0333 -11.6206 -1.77058e-18)
(10.7527 -11.3 8.5825e-19)
(10.4785 -10.9894 -7.44465e-19)
(10.213 -10.6906 7.32627e-19)
(9.95727 -10.4044 0)
(9.71202 -10.131 -6.08604e-19)
(9.47728 -9.87021 5.66711e-19)
(9.25277 -9.62166 5.27043e-19)
(9.03804 -9.3847 0)
(8.83249 -9.15865 0)
(8.6355 -8.94285 0)
(8.44647 -8.73668 3.98854e-19)
(8.26482 -8.53961 -3.54478e-19)
(8.09008 -8.35125 7.15735e-19)
(7.92193 -8.17138 3.27288e-19)
(7.76021 -8.00003 0)
(7.605 -7.83768 0)
(7.45693 -7.68489 -2.59898e-19)
(7.31803 -7.54116 7.78252e-19)
(7.19107 -7.4061 0)
(7.0701 -7.29157 0)
(14.0074 -13.8329 -1.84194e-18)
(13.3702 -13.8803 9.33752e-19)
(13.2487 -13.4751 8.44303e-19)
(12.9929 -13.2251 5.10829e-20)
(12.7516 -12.9365 -6.61366e-19)
(12.4945 -12.6303 1.25919e-18)
(12.2188 -12.3139 0)
(11.9311 -11.9906 0)
(11.6373 -11.6658 0)
(11.3429 -11.3446 -8.74665e-19)
(11.0521 -11.0307 2.76209e-20)
(10.7684 -10.7268 0)
(10.4939 -10.4345 -7.09964e-19)
(10.2297 -10.1548 0)
(9.97644 -9.88763 0)
(9.73409 -9.63292 -1.11899e-18)
(9.50235 -9.39017 1.55878e-20)
(9.28068 -9.15873 0)
(9.06843 -8.93793 0)
(8.86493 -8.72709 4.16707e-19)
(8.66947 -8.5256 -8.08653e-19)
(8.48141 -8.33292 -1.10164e-18)
(8.30013 -8.14865 7.16824e-19)
(8.12511 -7.97257 -3.27292e-19)
(7.95591 -7.80481 0)
(7.79223 -7.6459 0)
(7.63446 -7.49634 -2.7117e-19)
(7.48412 -7.35616 -2.55251e-19)
(7.34171 -7.22886 4.7142e-19)
(7.20371 -7.13084 -4.9012e-19)
(19.919 0.122375 9.14967e-20)
(19.904 -0.402476 1.19149e-19)
(19.8758 -0.924559 3.6017e-19)
(19.8358 -1.44444 4.76363e-19)
(19.7834 -1.96239 -2.43778e-19)
(19.7177 -2.47829 2.43653e-19)
(19.6387 -2.99189 2.21607e-20)
(19.5463 -3.50292 -4.87111e-19)
(19.4407 -4.01109 9.72614e-19)
(19.3218 -4.51609 -1.45898e-18)
(19.1898 -5.01759 9.71277e-19)
(19.0448 -5.51525 -1.43454e-18)
(18.8869 -6.00875 -1.45446e-18)
(18.7161 -6.49776 1.01927e-21)
(18.5326 -6.98194 4.47419e-20)
(18.3367 -7.46097 0)
(18.1283 -7.93452 9.22112e-19)
(17.9077 -8.40228 1.9286e-18)
(17.6751 -8.86394 -1.92661e-18)
(17.4305 -9.31919 9.17555e-19)
(17.1743 -9.76773 0)
(16.9066 -10.2093 -2.83001e-18)
(16.6275 -10.6435 3.29936e-21)
(16.3374 -11.0702 1.91213e-18)
(16.0363 -11.4891 0)
(15.7247 -11.8999 -9.93677e-19)
(15.4026 -12.3026 4.7332e-20)
(15.0707 -12.6969 -9.00856e-19)
(14.728 -13.0835 9.48152e-19)
(14.3782 -13.461 1.84555e-18)
(19.7653 -0.370175 0)
(19.735 -0.889396 -6.04325e-20)
(19.6902 -1.40556 -9.25285e-21)
(19.6318 -1.91903 -2.4164e-19)
(19.5601 -2.43006 -4.59643e-19)
(19.4749 -2.9385 4.59642e-19)
(19.3765 -3.44402 4.82821e-19)
(19.2647 -3.9463 0)
(19.1398 -4.44501 -9.17614e-19)
(19.0019 -4.93983 4.72215e-19)
(18.851 -5.43043 -4.45086e-19)
(18.6873 -5.91647 9.51941e-19)
(18.5109 -6.39762 -4.7112e-19)
(18.322 -6.87354 -9.13603e-19)
(18.1207 -7.34391 1.87313e-18)
(17.9072 -7.80841 0)
(17.6817 -8.26673 -1.86743e-18)
(17.4443 -8.71854 9.10241e-19)
(17.1953 -9.16355 0)
(16.9349 -9.60147 -9.53124e-19)
(16.6632 -10.032 -1.80943e-18)
(16.3805 -10.4549 2.7595e-18)
(16.0871 -10.8698 -1.80309e-18)
(15.7831 -11.2766 1.8031e-18)
(15.4687 -11.6749 0)
(15.1443 -12.0646 1.72112e-18)
(14.8099 -12.4456 -8.51351e-19)
(14.4659 -12.8176 9.39484e-19)
(14.1114 -13.1809 0)
(13.7476 -13.5349 -9.35743e-19)
(19.4991 -0.187248 0)
(19.4745 -0.697014 0)
(19.4355 -1.20527 -6.9176e-21)
(19.3824 -1.71157 2.04937e-19)
(19.3154 -2.21567 -4.2415e-19)
(19.2348 -2.71725 6.29067e-19)
(19.1407 -3.21596 0)
(19.0332 -3.71146 4.09622e-19)
(18.9125 -4.20338 8.47057e-19)
(18.7787 -4.69141 4.36018e-19)
(18.6319 -5.17519 -4.10302e-19)
(18.4723 -5.6544 2.71954e-20)
(18.3 -6.12868 3.81217e-19)
(18.1151 -6.59772 -1.65962e-18)
(17.918 -7.06118 1.6588e-18)
(17.7087 -7.51874 -8.14261e-19)
(17.4874 -7.97007 -8.40681e-19)
(17.2543 -8.41487 8.40685e-19)
(17.0097 -8.85282 -8.11151e-19)
(16.7537 -9.28364 -8.09975e-19)
(16.4866 -9.70702 0)
(16.2086 -10.1227 -8.6122e-19)
(15.9198 -10.5304 1.66865e-18)
(15.6207 -10.9299 1.66263e-18)
(15.3113 -11.3208 -1.66265e-18)
(14.9919 -11.7031 -5.27527e-20)
(14.6626 -12.0765 -1.65267e-18)
(14.3238 -12.4407 2.45088e-18)
(13.975 -12.7955 1.64524e-18)
(13.6168 -13.1403 -8.50742e-19)
(19.1463 -0.211054 0)
(19.1234 -0.710167 0)
(19.0865 -1.20826 -1.00424e-19)
(19.0358 -1.70474 -2.00875e-19)
(18.9714 -2.19918 -1.87388e-19)
(18.8933 -2.69123 1.73921e-19)
(18.8018 -3.18054 3.87468e-19)
(18.6969 -3.66674 -1.17632e-18)
(18.5789 -4.14948 3.87348e-19)
(18.4477 -4.62841 0)
(18.3036 -5.10317 3.74171e-19)
(18.1466 -5.57342 4.0059e-19)
(17.9771 -6.03881 -8.00528e-19)
(17.7951 -6.49899 1.54649e-18)
(17.6008 -6.95364 -2.81898e-20)
(17.3944 -7.40242 2.73118e-20)