/*--------------------------------*- C++ -*----------------------------------*\
| =========                 |                                                 |
| \\      /  F ield         | OpenFOAM: The Open Source CFD Toolbox           |
|  \\    /   O peration     | Version:  v1912                                 |
|   \\  /    A nd           | Website:  www.openfoam.com                      |
|    \\/     M anipulation  |                                                 |
\*---------------------------------------------------------------------------*/
FoamFile
{
    version     2.0;
    format      ascii;
    class       volScalarField;
    location    "55.5";
    object      p;
}
// * * * * * * * * * * * * * * * * * * * * * * * * * * * * * * * * * * * * * //

dimensions      [0 2 -2 0 0 0 0];


internalField   nonuniform List<scalar> 
9600
(
-41.4863
-36.2214
-32.9946
-30.2574
-27.7521
-25.4853
-23.4287
-21.5545
-19.8453
-18.2872
-16.8677
-15.575
-14.3975
-13.3245
-12.346
-11.4525
-10.6356
-9.8873
-9.20019
-8.57205
-42.2461
-36.9638
-33.701
-30.9209
-28.3704
-26.0595
-23.9616
-22.0496
-20.3065
-18.7184
-17.2725
-15.9566
-14.7588
-13.668
-12.6735
-11.7658
-10.9361
-10.1761
-9.47791
-8.84049
-43.0077
-37.7021
-34.402
-31.5788
-28.983
-26.6278
-24.4884
-22.5388
-20.762
-19.1442
-17.6723
-16.3335
-15.1157
-14.0071
-12.997
-12.0753
-11.233
-10.4613
-9.75204
-9.10554
-43.7676
-38.436
-35.0971
-32.2302
-29.5887
-27.1891
-25.0083
-23.0212
-21.211
-19.5638
-18.0661
-16.7048
-15.4673
-14.3414
-13.3159
-12.3805
-11.5257
-10.7424
-10.0222
-9.36687
-44.5231
-39.164
-35.7853
-32.874
-30.1865
-27.7423
-25.5204
-23.4959
-21.6526
-19.9764
-18.4534
-17.07
-15.8131
-14.6702
-13.6296
-12.6806
-11.8136
-11.019
-10.288
-9.62419
-45.2719
-39.8845
-36.4654
-33.5091
-30.7753
-28.2866
-26.0235
-23.9621
-22.0861
-20.3812
-18.8333
-17.4282
-16.1524
-14.9929
-13.9376
-12.9754
-12.0964
-11.2907
-10.5491
-9.87724
-46.0123
-40.5962
-37.1362
-34.1344
-31.3541
-28.8209
-26.5169
-24.4188
-22.5105
-20.7775
-19.2052
-17.7789
-16.4846
-15.3089
-14.2392
-13.2642
-12.3736
-11.557
-10.8051
-10.1257
-46.7429
-41.2976
-37.7964
-34.7488
-31.9219
-29.3442
-26.9995
-24.8651
-22.9251
-21.1645
-19.5682
-18.1213
-16.809
-15.6175
-14.534
-13.5466
-12.6448
-11.8176
-11.0558
-10.3694
-47.4621
-41.9874
-38.4448
-35.351
-32.4775
-29.8556
-27.4705
-25.3003
-23.3289
-21.5413
-19.9217
-18.4546
-17.1249
-15.9182
-14.8211
-13.8218
-12.9092
-12.072
-11.3007
-10.6079
-48.1689
-42.6645
-39.0802
-35.9401
-33.0199
-30.3539
-27.9289
-25.7233
-23.7212
-21.9071
-20.2648
-18.7781
-17.4314
-16.21
-15.1
-14.0892
-13.1664
-12.3195
-11.5392
-10.8407
-48.862
-43.3277
-39.7016
-36.515
-33.5482
-30.8385
-28.3738
-26.1334
-24.1012
-22.2611
-20.5966
-19.0909
-17.7279
-16.4922
-15.3698
-14.3481
-13.4155
-12.5596
-11.7708
-11.0673
-49.5405
-43.9761
-40.3079
-37.0748
-34.0615
-31.3082
-28.8044
-26.5298
-24.4679
-22.6025
-20.9164
-19.3922
-18.0133
-16.7639
-15.6297
-14.5975
-13.6557
-12.7913
-11.9947
-11.2869
-50.2037
-44.6087
-40.8984
-37.6186
-34.5589
-31.7624
-29.2199
-26.9115
-24.8206
-22.9304
-21.2232
-19.6811
-18.2868
-17.0242
-15.8785
-14.8365
-13.886
-13.0137
-12.2099
-11.4988
-50.8511
-45.2248
-41.472
-38.1455
-35.0395
-32.2002
-29.6195
-27.2778
-25.1584
-23.244
-21.5162
-19.9565
-18.5472
-17.2717
-16.115
-15.0635
-14.105
-13.2255
-12.4154
-11.7023
-51.482
-45.8235
-42.0281
-38.6548
-35.5027
-32.6209
-30.0025
-27.6282
-25.4809
-23.5427
-21.7946
-20.2177
-18.7936
-17.5054
-16.3378
-15.2771
-14.3107
-13.4244
-12.6089
-11.8954
-52.096
-46.404
-42.5659
-39.1458
-35.948
-33.0241
-30.3685
-27.962
-25.7872
-23.8257
-22.0577
-20.4637
-19.025
-17.7242
-16.5456
-15.4756
-14.5013
-13.6084
-12.7876
-12.0728
-52.6944
-46.9663
-43.0847
-39.618
-36.3745
-33.409
-30.7168
-28.2788
-26.0771
-24.0925
-22.3049
-20.6939
-19.2405
-17.9269
-16.7374
-15.6582
-14.6765
-13.7773
-12.9506
-12.2312
-53.2815
-47.5115
-43.5838
-40.07
-36.7814
-33.7749
-31.047
-28.5781
-26.35
-24.3429
-22.5356
-20.9075
-19.4389
-18.112
-16.9109
-15.8222
-14.8334
-13.9286
-13.0969
-12.3819
-53.8594
-48.039
-44.0616
-40.501
-37.1684
-34.1221
-31.3593
-28.8605
-26.6067
-24.5773
-22.7505
-21.1047
-19.62
-18.2779
-17.0626
-15.961
-14.9602
-14.0445
-13.2115
-12.5291
-54.4063
-48.5413
-44.517
-40.9115
-37.5366
-34.452
-31.6554
-29.1276
-26.8488
-24.7977
-22.9515
-21.288
-19.7863
-18.4272
-17.1944
-16.0732
-15.0486
-14.1071
-13.2632
-12.587
-59.8621
-59.8306
-59.7614
-59.6689
-59.5526
-59.4098
-59.2402
-59.0441
-58.8222
-58.5751
-58.3031
-58.007
-57.6874
-57.345
-56.9805
-56.5947
-56.1889
-55.7646
-55.3248
-54.8726
-53.5133
-53.5107
-53.4749
-53.4116
-53.3214
-53.2039
-53.0593
-52.8883
-52.6916
-52.4698
-52.2236
-51.9535
-51.6601
-51.3442
-51.0063
-50.6471
-50.2673
-49.8673
-49.4477
-49.0064
-48.869
-48.8908
-48.8832
-48.8469
-48.7831
-48.6926
-48.5762
-48.4344
-48.2678
-48.077
-47.8627
-47.6253
-47.3655
-47.0838
-46.7806
-46.4565
-46.1117
-45.7463
-45.3599
-44.9507
-44.6384
-44.6779
-44.6908
-44.6765
-44.636
-44.5704
-44.4802
-44.3661
-44.2286
-44.0682
-43.8854
-43.6808
-43.455
-43.2082
-42.941
-42.6537
-42.3463
-42.0189
-41.6711
-41.3022
-40.7265
-40.7759
-40.8013
-40.8021
-40.7785
-40.7316
-40.6618
-40.5697
-40.4559
-40.3207
-40.1648
-39.9885
-39.7925
-39.577
-39.3424
-39.089
-38.8168
-38.5259
-38.2159
-37.8864
-37.2132
-37.2667
-37.2986
-37.308
-37.2951
-37.2605
-37.2049
-37.1288
-37.0325
-36.9167
-36.7817
-36.628
-36.4562
-36.2666
-36.0595
-35.8352
-35.5937
-35.335
-35.0589
-34.7649
-34.0895
-34.143
-34.1767
-34.1899
-34.1825
-34.1552
-34.1085
-34.043
-33.9589
-33.857
-33.7375
-33.601
-33.448
-33.2789
-33.094
-32.8935
-32.6777
-32.4463
-32.1993
-31.936
-31.3187
-31.3693
-31.4017
-31.4151
-31.4097
-31.3859
-31.3442
-31.2852
-31.2092
-31.1168
-31.0083
-30.8844
-30.7456
-30.5922
-30.4248
-30.2435
-30.0486
-29.8399
-29.6174
-29.3803
-28.8607
-28.9069
-28.9361
-28.9477
-28.9419
-28.9191
-28.8798
-28.8245
-28.7535
-28.6673
-28.5666
-28.4518
-28.3234
-28.182
-28.0282
-27.8621
-27.6842
-27.4944
-27.2924
-27.0776
-26.6759
-26.7169
-26.742
-26.7508
-26.7433
-26.7201
-26.6814
-26.6279
-26.5598
-26.4778
-26.3824
-26.274
-26.1534
-26.0212
-25.8779
-25.724
-25.56
-25.3858
-25.2013
-25.0057
-24.7271
-24.7628
-24.7836
-24.789
-24.7793
-24.7547
-24.7158
-24.663
-24.5966
-24.5172
-24.4254
-24.3218
-24.207
-24.0818
-23.9468
-23.8027
-23.6501
-23.4891
-23.3197
-23.1411
-22.9814
-23.0121
-23.0286
-23.0307
-23.0184
-22.9923
-22.9526
-22.8998
-22.8344
-22.7568
-22.6676
-22.5674
-22.457
-22.3372
-22.2088
-22.0726
-21.9296
-21.78
-21.6239
-21.4606
-21.4106
-21.4366
-21.4492
-21.448
-21.4334
-21.4056
-21.365
-21.312
-21.2471
-21.1707
-21.0833
-20.9858
-20.8788
-20.7632
-20.64
-20.5103
-20.3753
-20.2356
-20.0916
-19.9426
-19.9907
-20.0126
-20.0216
-20.0176
-20.0008
-19.9714
-19.9299
-19.8767
-19.812
-19.7365
-19.6506
-19.5551
-19.4507
-19.3384
-19.2193
-19.0948
-18.9665
-18.8353
-18.7026
-18.5672
-18.7021
-18.7203
-18.7261
-18.7195
-18.7008
-18.6701
-18.6278
-18.5742
-18.5098
-18.435
-18.3503
-18.2564
-18.154
-18.0443
-17.9284
-17.8079
-17.685
-17.5611
-17.4389
-17.3169
-17.5282
-17.543
-17.546
-17.5372
-17.5167
-17.4848
-17.4419
-17.3882
-17.324
-17.2498
-17.1661
-17.0734
-16.9727
-16.8648
-16.7511
-16.6335
-16.5145
-16.3964
-16.2838
-16.1751
-16.4551
-16.4669
-16.4675
-16.4567
-16.4347
-16.4018
-16.3583
-16.3044
-16.2404
-16.1667
-16.0837
-15.992
-15.8924
-15.7856
-15.6732
-15.557
-15.4404
-15.326
-15.2215
-15.1247
-15.471
-15.4804
-15.479
-15.4667
-15.4437
-15.4101
-15.3663
-15.3123
-15.2486
-15.1755
-15.0932
-15.0024
-14.9035
-14.7974
-14.6853
-14.5692
-14.4528
-14.34
-14.2425
-14.1548
-14.5647
-14.5728
-14.5704
-14.5576
-14.5345
-14.5013
-14.4581
-14.4053
-14.343
-14.2715
-14.191
-14.1021
-14.005
-13.9006
-13.7896
-13.6737
-13.5566
-13.4434
-13.3528
-13.2792
-13.731
-13.7358
-13.7309
-13.7163
-13.6921
-13.6585
-13.6157
-13.5637
-13.5029
-13.4333
-13.3553
-13.2691
-13.175
-13.0733
-12.9645
-12.8498
-12.7308
-12.6129
-12.5158
-12.4666
-53.5695
-54.145
-54.6833
-55.2066
-55.7119
-56.1933
-56.648
-57.0748
-57.4728
-57.8412
-58.1793
-58.4866
-58.7627
-59.0073
-59.2197
-59.4
-59.5492
-59.6683
-59.7594
-59.8244
-47.0865
-47.6673
-48.2201
-48.7504
-49.258
-49.7403
-50.1959
-50.6241
-51.0243
-51.3958
-51.738
-52.0508
-52.3344
-52.5893
-52.8134
-53.0064
-53.1686
-53.3005
-53.4027
-53.4739
-42.4422
-43.0107
-43.5556
-44.0771
-44.5751
-45.049
-45.4979
-45.9211
-46.318
-46.688
-47.0301
-47.344
-47.6295
-47.8852
-48.1126
-48.3117
-48.4823
-48.6241
-48.7367
-48.8188
-38.3182
-38.8614
-39.385
-39.887
-40.3668
-40.8242
-41.2584
-41.6689
-42.0551
-42.4163
-42.7512
-43.0594
-43.3418
-43.5978
-43.8276
-44.031
-44.2076
-44.3569
-44.4788
-44.5727
-34.6404
-35.1536
-35.6498
-36.1263
-36.5822
-37.0171
-37.4305
-37.8216
-38.1898
-38.5347
-38.8566
-39.1552
-39.4291
-39.6784
-39.9034
-40.1036
-40.2789
-40.4289
-40.5537
-40.6531
-31.4418
-31.9235
-32.3899
-32.8383
-33.2676
-33.6772
-34.0668
-34.4358
-34.7836
-35.11
-35.4148
-35.6975
-35.9573
-36.1944
-36.4093
-36.6016
-36.7706
-36.9162
-37.0387
-37.1379
-28.6699
-29.1208
-29.5575
-29.9776
-30.3798
-30.7636
-31.1286
-31.4743
-31.8002
-32.1061
-32.3917
-32.6565
-32.9004
-33.1231
-33.3243
-33.5058
-33.6659
-33.8041
-33.9208
-34.0161
-26.258
-26.68
-27.0886
-27.4817
-27.8579
-28.2167
-28.5577
-28.8804
-29.1845
-29.4696
-29.7357
-29.9824
-30.2097
-30.4175
-30.6056
-30.7726
-30.9221
-31.0514
-31.1604
-31.2496
-24.1473
-24.5428
-24.9257
-25.2938
-25.6458
-25.9812
-26.2996
-26.6006
-26.8838
-27.1492
-27.3965
-27.6257
-27.8366
-28.0291
-28.2034
-28.3592
-28.4955
-28.6146
-28.7153
-28.7973
-22.2876
-22.6594
-23.019
-23.3645
-23.6945
-24.0084
-24.3059
-24.5868
-24.8507
-25.0975
-25.3273
-25.5399
-25.7353
-25.9134
-26.0742
-26.2176
-26.3435
-26.4522
-26.5442
-26.6188
-20.6374
-20.988
-21.3269
-21.6521
-21.9622
-22.2566
-22.5351
-22.7975
-23.0436
-23.2735
-23.4871
-23.6844
-23.8654
-24.0301
-24.1784
-24.3104
-24.426
-24.5253
-24.6088
-24.6762
-19.163
-19.4948
-19.8155
-20.1227
-20.4148
-20.6915
-20.9527
-21.1982
-21.4281
-21.6425
-21.8413
-22.0246
-22.1925
-22.3449
-22.4819
-22.6034
-22.7096
-22.8004
-22.8757
-22.9364
-17.8375
-18.1527
-18.4576
-18.7487
-19.0247
-19.2853
-19.5307
-19.7608
-19.9758
-20.176
-20.3613
-20.5319
-20.6878
-20.8291
-20.9558
-21.0679
-21.1654
-21.2482
-21.3162
-21.3709
-16.6391
-16.94
-17.2312
-17.5083
-17.7696
-18.0154
-18.2462
-18.4621
-18.6635
-18.8506
-19.0236
-19.1827
-19.3278
-19.459
-19.5764
-19.6799
-19.7696
-19.8456
-19.908
-19.956
-15.5509
-15.8395
-16.1192
-16.3836
-16.6314
-16.8635
-17.0808
-17.2835
-17.4723
-17.6474
-17.8091
-17.9575
-18.0928
-18.2149
-18.3239
-18.4197
-18.5024
-18.572
-18.6284
-18.6716
-14.5581
-14.8382
-15.1087
-15.3611
-15.596
-15.8153
-16.0197
-16.21
-16.3869
-16.5508
-16.7021
-16.8409
-16.9671
-17.081
-17.1823
-17.2712
-17.3475
-17.4113
-17.4627
-17.5015
-13.6431
-13.922
-14.1874
-14.4284
-14.6506
-14.8574
-15.0496
-15.2282
-15.394
-15.5476
-15.6893
-15.8193
-15.9374
-16.0437
-16.1382
-16.2208
-16.2915
-16.3502
-16.397
-16.4319
-12.7851
-13.0683
-13.3349
-13.5666
-13.7768
-13.9719
-14.1529
-14.3209
-14.477
-14.6217
-14.7552
-14.8776
-14.9888
-15.0889
-15.1777
-15.2551
-15.3211
-15.3757
-15.4189
-15.4507
-11.9977
-12.2715
-12.5388
-12.7656
-12.9657
-13.1494
-13.32
-13.4785
-13.6258
-13.7625
-13.8888
-14.0048
-14.1102
-14.205
-14.2891
-14.3624
-14.4247
-14.4761
-14.5165
-14.5461
-11.4071
-11.6579
-11.8857
-12.1025
-12.2908
-12.4568
-12.6108
-12.755
-12.889
-13.0132
-13.128
-13.2332
-13.3288
-13.4144
-13.49
-13.5556
-13.611
-13.6563
-13.6911
-13.7156
-6.00591
-6.49723
-7.03564
-7.61807
-8.25096
-8.94171
-9.69798
-10.5292
-11.4476
-12.4688
-13.6133
-14.908
-16.3883
-18.1003
-20.1044
-22.4799
-25.3081
-28.6112
-32.6085
-38.6044
-6.27652
-6.78137
-7.3303
-7.9248
-8.57147
-9.2774
-10.0504
-10.9001
-11.8391
-12.8832
-14.0533
-15.3766
-16.8889
-18.6369
-20.6812
-23.1008
-25.976
-29.3259
-33.3618
-39.3787
-6.54856
-7.06695
-7.62651
-8.23331
-8.89401
-9.61538
-10.4053
-11.2739
-12.2337
-13.301
-14.4969
-15.8492
-17.394
-19.1784
-21.263
-23.7268
-26.6486
-30.0442
-34.1168
-40.1503
-6.82153
-7.3534
-7.92369
-8.543
-9.21795
-9.95496
-10.7621
-11.6496
-12.6305
-13.7212
-14.9433
-16.3248
-17.9023
-19.7232
-21.8483
-24.3562
-27.3244
-30.7655
-34.8759
-40.9306
-7.09501
-7.64027
-8.22136
-8.85339
-9.54279
-10.2956
-11.1201
-12.0268
-13.029
-14.1433
-15.3917
-16.8026
-18.4129
-20.2704
-22.4361
-24.988
-28.0025
-31.4892
-35.6381
-41.7171
-7.36861
-7.92715
-8.51909
-9.16405
-9.86809
-10.6369
-11.479
-12.405
-13.4285
-14.5666
-15.8414
-17.2818
-18.9252
-20.8194
-23.0257
-25.6217
-28.6823
-32.2143
-36.4014
-42.5058
-7.64202
-8.21367
-8.81652
-9.47459
-10.1934
-10.9784
-11.8381
-12.7836
-13.8286
-14.9906
-16.292
-17.762
-19.4384
-21.3694
-23.6163
-26.2562
-29.3628
-32.9397
-37.1643
-43.2943
-7.91499
-8.49955
-9.11332
-9.78466
-10.5185
-11.3197
-12.1971
-13.1621
-14.2287
-15.4146
-16.7426
-18.2423
-19.9518
-21.9196
-24.207
-26.8908
-30.043
-33.6643
-37.9256
-44.0811
-8.18737
-8.78457
-9.40925
-10.094
-10.8428
-11.6603
-12.5555
-13.5401
-14.6283
-15.8381
-17.1928
-18.7221
-20.4646
-22.4692
-24.797
-27.5243
-30.7218
-34.387
-38.6841
-44.8648
-8.45912
-9.06864
-9.70415
-10.4024
-11.1663
-12.0001
-12.9131
-13.9171
-15.0269
-16.2606
-17.6418
-19.2007
-20.9762
-23.0173
-25.3853
-28.1558
-31.398
-35.1065
-39.4385
-45.6437
-8.73034
-9.35179
-9.99796
-10.7097
-11.4887
-12.3387
-13.2693
-14.2928
-15.4239
-16.6814
-18.089
-19.6773
-21.4856
-23.5631
-25.9709
-28.7843
-32.0707
-35.8216
-40.1874
-46.4166
-9.00133
-9.63418
-10.2907
-11.0159
-11.8098
-12.6759
-13.6239
-14.6666
-15.819
-17.1
-18.5337
-20.1513
-21.9921
-24.1056
-26.553
-29.4086
-32.7385
-36.5312
-40.9295
-47.1819
-9.27257
-9.9161
-10.5826
-11.3209
-12.1295
-13.0113
-13.9765
-15.0381
-16.2114
-17.5156
-18.9753
-20.6218
-22.4948
-24.644
-27.1304
-30.0277
-33.4004
-37.2339
-41.6635
-47.9383
-9.54479
-10.198
-10.8737
-11.6248
-12.4476
-13.3447
-14.3267
-15.4068
-16.6006
-17.9278
-19.413
-21.088
-22.9928
-25.1772
-27.7021
-30.6404
-34.0551
-37.9285
-42.3881
-48.6845
-9.81874
-10.4802
-11.1641
-11.9271
-12.7636
-13.6755
-14.6738
-15.772
-16.986
-18.3356
-19.8459
-21.549
-23.4851
-25.7042
-28.267
-31.2456
-34.7014
-38.6139
-43.1021
-49.4193
-10.0954
-10.7628
-11.4534
-12.2276
-13.077
-14.0031
-15.0171
-16.1328
-17.3665
-18.7381
-20.2731
-22.0038
-23.9707
-26.224
-28.8239
-31.842
-35.3379
-39.2885
-43.8044
-50.1418
-10.3745
-11.0449
-11.7402
-12.5246
-13.3865
-14.3262
-15.3555
-16.4885
-17.7414
-19.1346
-20.6937
-22.4514
-24.4486
-26.7353
-29.3717
-32.4282
-35.9634
-39.9512
-44.4938
-50.8512
-10.6555
-11.3239
-12.0221
-12.8166
-13.6908
-14.644
-15.6882
-16.8379
-18.1096
-19.5238
-21.1066
-22.8908
-24.9175
-27.2369
-29.9088
-33.0029
-36.5761
-40.6003
-45.1693
-51.5477
-10.9309
-11.5914
-12.2929
-13.0999
-13.9877
-14.9545
-16.0135
-17.1797
-18.4699
-19.9047
-21.5106
-23.3207
-25.3763
-27.7276
-30.434
-33.5645
-37.1744
-41.2339
-45.8297
-52.2327
-11.1822
-11.8276
-12.5481
-13.3757
-14.2778
-15.2577
-16.3311
-17.5134
-18.8215
-20.2764
-21.9048
-23.7401
-25.8238
-28.206
-30.9459
-34.1113
-37.7561
-41.8489
-46.4702
-52.9077
-1.58477
-1.83873
-2.18663
-2.57558
-2.99417
-3.44775
-3.94265
-4.48478
-5.08163
-5.74349
-6.48428
-7.32303
-8.28588
-9.40888
-10.7429
-12.3623
-14.3567
-16.7874
-19.9626
-25.3574
-1.73793
-2.00832
-2.37468
-2.76958
-3.19159
-3.65052
-4.15232
-4.70254
-5.3088
-5.98165
-6.73528
-7.58905
-8.56954
-9.71331
-11.0718
-12.7199
-14.7473
-17.2133
-20.4208
-25.8295
-1.88543
-2.1799
-2.55943
-2.96246
-3.39222
-3.85953
-4.37028
-4.93017
-5.54722
-6.2323
-6.99995
-7.8699
-8.8692
-10.0349
-11.4191
-13.0969
-15.1579
-17.6594
-20.8984
-26.3156
-2.05522
-2.36052
-2.74825
-3.16001
-3.59897
-4.07583
-4.5966
-5.16731
-5.79627
-6.49467
-7.27739
-8.16457
-9.18373
-10.3725
-11.7833
-13.4919
-15.5874
-18.1257
-21.3995
-26.8344
-2.23633
-2.54873
-2.9443
-3.36502
-3.81347
-4.30032
-4.83177
-5.41409
-6.05584
-6.76848
-7.56723
-8.47263
-9.51265
-10.7254
-12.1641
-13.9045
-16.0358
-18.6123
-21.9236
-27.3826
-2.42292
-2.74393
-3.14784
-3.5777
-4.03593
-4.53322
-5.07595
-5.67057
-6.32587
-7.05358
-7.86924
-8.79379
-9.85567
-11.0936
-12.5611
-14.3345
-16.5028
-19.1187
-22.4688
-27.9549
-2.61651
-2.94704
-3.3592
-3.7982
-4.2665
-4.77466
-5.3292
-5.93673
-6.60626
-7.3498
-8.18319
-9.12777
-10.2125
-11.4765
-12.974
-14.7816
-16.988
-19.6445
-23.0341
-28.549
-2.8185
-3.15852
-3.57872
-4.02686
-4.50541
-5.02478
-5.59155
-6.2125
-6.89688
-7.65691
-8.5088
-9.47425
-10.5827
-11.8738
-13.4023
-15.2451
-17.4908
-20.1889
-23.6189
-29.1637
-3.02867
-3.37822
-3.80644
-4.26376
-4.75274
-5.28359
-5.86295
-6.49779
-7.19755
-7.97471
-8.84579
-9.83289
-10.9659
-12.285
-13.8455
-15.7247
-18.0107
-20.7514
-24.2224
-29.7982
-3.2464
-3.60582
-4.04215
-4.50875
-5.00834
-5.55093
-6.14324
-6.7924
-7.50804
-8.30291
-9.19383
-10.2033
-11.3617
-12.7097
-14.3031
-16.2196
-18.5469
-21.3311
-24.8439
-30.4511
-3.47128
-3.84096
-4.28554
-4.76155
-5.27196
-5.82657
-6.43216
-7.09604
-7.82805
-8.64118
-9.55257
-10.5851
-11.7696
-13.1474
-14.7747
-16.7294
-19.0989
-21.9275
-25.4824
-31.1215
-3.70292
-4.08323
-4.53622
-5.02182
-5.54327
-6.11017
-6.72938
-7.40838
-8.15721
-8.98912
-9.92158
-10.9779
-12.1893
-13.5976
-15.2595
-17.2533
-19.6659
-22.5395
-26.1371
-31.8084
-3.94085
-4.33218
-4.79376
-5.28913
-5.82186
-6.40134
-7.0345
-7.729
-8.49509
-9.34629
-10.3004
-11.381
-12.62
-14.0596
-15.7571
-17.7908
-20.2472
-23.1666
-26.8072
-32.5107
-4.18455
-4.58727
-5.05766
-5.56301
-6.10728
-6.69963
-7.34707
-8.05744
-8.84124
-9.71221
-10.6885
-11.7941
-13.0613
-14.533
-16.2666
-18.341
-20.842
-23.8078
-27.4918
-33.2276
-4.43347
-4.84794
-5.32737
-5.84295
-6.39902
-7.00454
-7.66658
-8.39321
-9.19511
-10.0863
-11.0853
-12.2165
-13.5126
-15.0169
-16.7875
-18.9033
-21.4496
-24.4623
-28.19
-33.9583
-4.68705
-5.11364
-5.60233
-6.12838
-6.69655
-7.31554
-7.99251
-8.73574
-9.55616
-10.4681
-11.4902
-12.6475
-13.9731
-15.5107
-17.319
-19.4769
-22.0691
-25.1292
-28.9009
-34.7018
-4.94476
-5.38377
-5.88196
-6.41875
-6.99929
-7.63205
-8.32428
-9.08448
-9.9238
-10.8568
-11.9026
-13.0865
-14.4421
-16.0137
-17.8603
-20.0608
-22.6995
-25.8077
-29.6239
-35.4576
-5.20603
-5.65776
-6.16568
-6.71348
-7.30669
-7.95352
-8.66132
-9.43882
-10.2974
-11.252
-12.3219
-13.5329
-14.919
-16.5251
-18.4104
-20.6542
-23.3399
-26.4965
-30.3579
-36.2254
-5.47031
-5.93503
-6.45291
-7.01199
-7.61815
-8.27934
-9.00302
-9.79814
-10.6764
-11.6528
-12.7472
-13.9858
-15.4029
-17.0439
-18.9686
-21.256
-23.9891
-27.1946
-31.102
-37.0058
-5.73711
-6.21505
-6.7431
-7.31373
-7.93313
-8.60897
-9.34882
-10.1619
-11.06
-12.0587
-13.1781
-14.4445
-15.8931
-17.5695
-19.5338
-21.8653
-24.6459
-27.9002
-31.8534
-37.7996
-1.337
-1.13032
-0.976561
-0.839855
-0.719808
-0.61388
-0.520957
-0.440245
-0.371244
-0.313593
-0.267028
-0.231337
-0.20635
-0.19193
-0.187938
-0.194165
-0.210394
-0.236754
-0.27342
-0.320185
-1.66683
-1.48342
-1.32569
-1.18375
-1.05888
-0.948481
-0.851591
-0.767406
-0.695412
-0.635233
-0.586587
-0.549252
-0.523044
-0.507812
-0.503413
-0.509673
-0.526436
-0.553715
-0.591584
-0.639765
-1.99933
-1.8238
-1.66608
-1.523
-1.396
-1.28342
-1.18458
-1.09877
-1.02554
-0.964528
-0.91545
-0.878087
-0.852255
-0.837796
-0.834562
-0.842399
-0.861189
-0.890882
-0.931352
-0.982799
-2.38303
-2.20583
-2.04508
-1.89904
-1.76846
-1.65237
-1.55031
-1.46172
-1.38619
-1.32337
-1.27301
-1.23486
-1.20875
-1.1945
-1.19196
-1.20099
-1.22147
-1.25331
-1.29641
-1.35079
-2.80172
-2.62206
-2.45734
-2.30736
-2.17256
-2.05242
-1.94662
-1.85473
-1.77641
-1.71135
-1.65928
-1.62
-1.5933
-1.57901
-1.57698
-1.58706
-1.60911
-1.64304
-1.68873
-1.74615
-3.25295
-3.07007
-2.90117
-2.74685
-2.6076
-2.48319
-2.37345
-2.27807
-2.19676
-2.12927
-2.07536
-2.0348
-2.00742
-1.99304
-1.99149
-2.00262
-2.02631
-2.06242
-2.11082
-2.17146
-3.74289
-3.55528
-3.38146
-3.22222
-3.07806
-2.949
-2.83496
-2.73576
-2.65116
-2.58096
-2.52494
-2.4829
-2.45466
-2.44004
-2.43888
-2.45103
-2.47635
-2.51469
-2.56591
-2.62997
-4.27833
-4.0845
-3.90469
-3.73965
-3.58989
-3.45556
-3.33667
-3.23313
-3.14478
-3.07143
-3.01292
-2.96905
-2.93966
-2.92456
-2.9236
-2.93663
-2.9635
-3.00404
-3.05811
-3.12568
-4.86696
-4.66548
-4.47843
-4.30652
-4.15024
-4.00983
-3.88536
-3.77681
-3.68408
-3.60702
-3.5455
-3.49933
-3.46837
-3.45244
-3.45139
-3.46506
-3.49329
-3.53592
-3.5928
-3.6639
-5.51894
-5.30822
-5.11252
-4.93245
-4.76852
-4.62099
-4.49
-4.37556
-4.27764
-4.19612
-4.1309
-4.08181
-4.04871
-4.03145
-4.02986
-4.0438
-4.0731
-4.11758
-4.17709
-4.25163
-6.24798
-6.02623
-5.8202
-5.63044
-5.45742
-5.30146
-5.16272
-5.04127
-4.9371
-4.85014
-4.7803
-4.72745
-4.69144
-4.67214
-4.6694
-4.68305
-4.71293
-4.75885
-4.82066
-4.89839
-7.07282
-6.83792
-6.61955
-6.41819
-6.23433
-6.06828
-5.92024
-5.79031
-5.67851
-5.58482
-5.50915
-5.4514
-5.41144
-5.38914
-5.38434
-5.39689
-5.42663
-5.47335
-5.53689
-5.61733
-8.0192
-7.76861
-7.53545
-7.32016
-7.12324
-6.945
-6.78568
-6.64539
-6.5242
-6.42208
-6.33899
-6.27484
-6.22951
-6.20287
-6.19479
-6.2051
-6.23364
-6.28018
-6.34456
-6.4269
-9.12265
-8.85328
-8.60236
-8.37026
-8.15752
-7.96447
-7.79135
-7.63831
-7.50542
-7.3927
-7.3001
-7.22756
-7.17498
-7.14222
-7.12916
-7.13564
-7.16148
-7.20644
-7.27033
-7.35337
-10.4335
-10.1416
-9.86928
-9.61686
-9.3849
-9.17376
-8.9837
-8.81488
-8.6674
-8.54127
-8.43649
-8.35298
-8.29066
-8.24941
-8.2291
-8.22958
-8.25065
-8.29206
-8.35359
-8.4355
-12.0253
-11.7065
-11.4085
-11.1315
-10.8763
-10.6431
-10.4323
-10.2441
-10.0784
-9.93542
-9.81508
-9.71734
-9.64212
-9.58931
-9.55879
-9.5504
-9.56396
-9.59915
-9.65576
-9.73406
-13.9873
-13.6369
-13.3085
-13.0025
-12.7196
-12.4601
-12.2244
-12.0126
-11.8249
-11.6612
-11.5215
-11.4059
-11.3142
-11.2464
-11.2023
-11.1818
-11.1847
-11.2108
-11.2597
-11.3314
-16.3811
-15.9952
-15.6322
-15.2932
-14.9788
-14.6894
-14.4253
-14.1866
-13.9733
-13.7856
-13.6234
-13.4867
-13.3754
-13.2895
-13.229
-13.1935
-13.1831
-13.1976
-13.2365
-13.2992
-19.5177
-19.092
-18.69
-18.3145
-17.9656
-17.6434
-17.348
-17.0793
-16.8373
-16.622
-16.4334
-16.2715
-16.1362
-16.0276
-15.9455
-15.8897
-15.8603
-15.8574
-15.881
-15.9289
-24.8545
-24.3837
-23.9473
-23.5423
-23.1665
-22.8189
-22.4992
-22.2072
-21.9429
-21.7062
-21.4972
-21.3159
-21.1625
-21.0371
-20.9396
-20.8702
-20.8296
-20.8201
-20.843
-20.8881
-0.376952
-0.443399
-0.519489
-0.605139
-0.700265
-0.804762
-0.918499
-1.04131
-1.17299
-1.31326
-1.46175
-1.61793
-1.781
-1.94975
-2.12251
-2.29701
-2.46878
-2.62801
-2.75932
-2.88913
-0.69841
-0.767135
-0.845865
-0.934489
-1.0329
-1.14097
-1.25856
-1.38547
-1.52146
-1.66624
-1.81938
-1.98034
-2.14833
-2.32221
-2.50035
-2.6811
-2.8627
-3.0374
-3.19001
-3.3623
-1.04494
-1.11752
-1.20047
-1.29366
-1.39697
-1.51027
-1.63337
-1.76607
-1.90811
-2.05915
-2.21878
-2.38643
-2.56135
-2.74252
-2.92858
-3.11833
-3.3108
-3.50163
-3.68509
-3.89111
-1.41635
-1.49278
-1.58
-1.67787
-1.78624
-1.90495
-2.03381
-2.17259
-2.32102
-2.47874
-2.64532
-2.82019
-3.00267
-3.19183
-3.38661
-3.58613
-3.78959
-3.99469
-4.20191
-4.43164
-1.81524
-1.89568
-1.98738
-2.09015
-2.20387
-2.32834
-2.46335
-2.60866
-2.76398
-2.92894
-3.10311
-3.28595
-3.47682
-3.67494
-3.87948
-4.08984
-4.3054
-4.52513
-4.75166
-4.99815
-2.24439
-2.32912
-2.42562
-2.53369
-2.65319
-2.7839
-2.92561
-3.07805
-3.24093
-3.41389
-3.59649
-3.78823
-3.98853
-4.19675
-4.41225
-4.63462
-4.86348
-5.09861
-5.34274
-5.60375
-2.70694
-2.7962
-2.89782
-3.01157
-3.13728
-3.27474
-3.42371
-3.58393
-3.75509
-3.93684
-4.12876
-4.3304
-4.54123
-4.76071
-4.98837
-5.22392
-5.46715
-5.71826
-5.97948
-6.25523
-3.2067
-3.30084
-3.40788
-3.52766
-3.66
-3.80469
-3.96149
-4.13013
-4.3103
-4.50166
-4.70383
-4.91636
-5.13882
-5.37074
-5.61175
-5.86163
-6.12028
-6.38804
-6.66647
-6.95805
-3.74921
-3.84826
-3.96093
-4.08703
-4.22637
-4.37874
-4.5439
-4.72158
-4.91148
-5.11327
-5.32657
-5.55101
-5.78617
-6.03166
-6.28719
-6.55256
-6.82771
-7.11294
-7.40925
-7.718
-4.34121
-4.44521
-4.56371
-4.69631
-4.84294
-5.00337
-5.17737
-5.36465
-5.56492
-5.77788
-6.00317
-6.24044
-6.48933
-6.74949
-7.02065
-7.30263
-7.59538
-7.89906
-8.21422
-8.54167
-4.99208
-5.10097
-5.2251
-5.3644
-5.51848
-5.68723
-5.87039
-6.06771
-6.2789
-6.50366
-6.74168
-6.99262
-7.25614
-7.53195
-7.81977
-8.11944
-8.43085
-8.75401
-9.08919
-9.43686
-5.71472
-5.82821
-5.95787
-6.10352
-6.26508
-6.44217
-6.63465
-6.84226
-7.06472
-7.30173
-7.55302
-7.81827
-8.09718
-8.38945
-8.69482
-9.0131
-9.34414
-9.68781
-10.0442
-10.4135
-6.52731
-6.64474
-6.77941
-6.93102
-7.0995
-7.28493
-7.48665
-7.70441
-7.93815
-8.18758
-8.45242
-8.73237
-9.02713
-9.33641
-9.65996
-9.99758
-10.349
-10.7141
-11.0926
-11.4849
-7.45565
-7.57596
-7.71466
-7.87147
-8.04616
-8.23872
-8.44994
-8.67706
-8.92173
-9.18328
-9.46149
-9.75608
-10.0668
-10.3933
-10.7353
-11.0926
-11.465
-11.852
-12.2534
-12.6695
-8.53795
-8.65945
-8.80057
-8.96109
-9.14085
-9.33937
-9.55617
-9.79353
-10.0488
-10.3215
-10.6123
-10.921
-11.2473
-11.5908
-11.9511
-12.328
-12.7212
-13.1303
-13.5548
-13.9951
-9.83415
-9.95429
-10.0954
-10.2573
-10.44
-10.643
-10.8658
-11.1086
-11.3715
-11.6551
-11.9577
-12.2798
-12.6208
-12.9801
-13.3575
-13.7528
-14.166
-14.5964
-15.0435
-15.5075
-11.4258
-11.5414
-11.6796
-11.8403
-12.0231
-12.2278
-12.4542
-12.702
-12.9711
-13.2617
-13.5745
-13.9082
-14.2612
-14.6327
-15.0238
-15.4352
-15.8664
-16.3165
-16.7845
-17.2704
-13.3837
-13.4917
-13.624
-13.7801
-13.9588
-14.1605
-14.3854
-14.6333
-14.904
-15.1969
-15.5114
-15.8478
-16.2077
-16.5916
-16.9979
-17.4252
-17.8731
-18.3412
-18.8285
-19.3343
-15.9991
-16.091
-16.207
-16.3485
-16.5168
-16.7112
-16.9308
-17.1753
-17.4443
-17.7374
-18.0541
-18.394
-18.7574
-19.1448
-19.5561
-19.9906
-20.4483
-20.9297
-21.4348
-21.9586
-20.9298
-21.0022
-21.1055
-21.2374
-21.3967
-21.5829
-21.7953
-22.0335
-22.2973
-22.5864
-22.9004
-23.2394
-23.6036
-23.9931
-24.408
-24.8485
-25.3155
-25.813
-26.3434
-26.8891
-27.4058
-22.4931
-19.8578
-17.7743
-15.9883
-14.4511
-13.1002
-11.8908
-10.7958
-9.79693
-8.88131
-8.03916
-7.26289
-6.54626
-5.88407
-5.27181
-4.70422
-4.17571
-3.69476
-3.29036
-27.9504
-23.0438
-20.397
-18.2932
-16.4834
-14.9205
-13.5436
-12.3087
-11.1894
-10.1679
-9.23147
-8.37063
-7.57787
-6.8471
-6.17332
-5.55207
-4.97864
-4.45064
-3.98119
-3.57871
-28.5235
-23.6134
-20.9534
-18.8283
-16.9933
-15.4036
-13.9995
-12.7382
-11.5938
-10.549
-9.59123
-8.71119
-7.90144
-7.15592
-6.46957
-5.83788
-5.25623
-4.72233
-4.24575
-3.82376
-29.1211
-24.2025
-21.527
-19.379
-17.5174
-15.8995
-14.4672
-13.1786
-12.0082
-10.9393
-9.95949
-9.05952
-8.23192
-7.47054
-6.7701
-6.12582
-5.53282
-4.98816
-4.49858
-4.05785
-29.7399
-24.8106
-22.1172
-19.9451
-18.0551
-16.4076
-14.946
-13.629
-12.4318
-11.338
-10.3354
-9.41474
-8.56851
-7.79036
-7.07476
-6.41664
-5.81081
-5.25375
-4.75038
-4.29351
-30.3786
-25.4381
-22.7221
-20.5252
-18.6057
-16.9273
-15.4352
-14.0887
-12.8638
-11.7443
-10.7182
-9.7762
-8.91063
-8.11499
-7.38351
-6.71083
-6.09153
-5.52174
-5.00509
-4.53414
-31.0358
-26.0835
-23.3413
-21.1186
-19.1682
-17.4577
-15.9338
-14.557
-13.3036
-12.1576
-11.1074
-10.1434
-9.25796
-8.44437
-7.69659
-7.00905
-6.37617
-5.79386
-5.26463
-4.781
-31.7103
-26.7447
-23.9746
-21.7243
-19.7419
-17.9979
-16.4413
-15.0332
-13.7503
-12.5773
-11.5023
-10.5159
-9.61019
-8.77833
-8.01407
-7.31159
-6.66521
-6.07064
-5.52941
-5.034
-32.4008
-27.4204
-24.6212
-22.3416
-20.3257
-18.5472
-16.9567
-15.5164
-14.2034
-13.0027
-11.9024
-10.8932
-9.96698
-9.11667
-8.33582
-7.61843
-6.95867
-6.35209
-5.79925
-5.29267
-33.106
-28.1094
-25.2801
-22.9696
-20.9189
-19.1046
-17.4793
-16.0059
-14.6621
-13.4331
-12.3072
-11.2749
-10.3279
-9.45904
-8.66157
-7.9293
-7.25628
-6.63784
-6.07366
-5.55626
-33.8247
-28.8105
-25.9502
-23.6072
-21.5203
-19.6692
-18.0081
-16.5008
-15.1257
-13.8679
-12.716
-11.6603
-10.6925
-9.80499
-8.99089
-8.24379
-7.55758
-6.92736
-6.35198
-5.82399
-34.5558
-29.5227
-26.6303
-24.2534
-22.1291
-20.2401
-18.5423
-17.0005
-15.5933
-14.3065
-13.1283
-12.049
-11.0602
-10.154
-9.32325
-8.56134
-7.86198
-7.22003
-6.63351
-6.09507
-35.2981
-30.2447
-27.3194
-24.907
-22.7442
-20.8162
-19.081
-17.5039
-16.0643
-14.7479
-13.5432
-12.4402
-11.4303
-10.5054
-9.65805
-8.88136
-8.16886
-7.51517
-6.91752
-6.36872
-36.0506
-30.9756
-28.0161
-25.567
-23.3645
-21.3966
-19.6231
-18.0102
-16.5377
-15.1915
-13.96
-12.8333
-11.8022
-10.8586
-9.99465
-9.20319
-8.47756
-7.8121
-7.20331
-6.64423
-36.812
-31.7139
-28.7193
-26.2323
-23.9889
-21.9802
-20.1677
-18.5184
-17.0126
-15.6364
-14.3781
-13.2275
-12.1753
-11.2129
-10.3324
-9.52619
-8.78742
-8.11016
-7.4902
-6.9209
-37.5813
-32.4583
-29.4276
-26.9014
-24.6162
-22.5659
-20.7137
-19.0276
-17.4882
-16.0818
-14.7965
-13.622
-12.5487
-11.5677
-10.6706
-9.84968
-9.09779
-8.4087
-7.77753
-7.19808
-38.358
-33.2079
-30.1398
-27.5733
-25.2452
-23.1525
-21.2601
-19.5368
-17.9636
-16.5268
-15.2146
-14.0162
-12.9219
-11.9222
-11.0086
-10.173
-9.40803
-8.70708
-8.06469
-7.47518
-39.1435
-33.9619
-30.8543
-28.2462
-25.8743
-23.7386
-21.8056
-20.0448
-18.4377
-16.9705
-15.6313
-14.4092
-13.2939
-12.2757
-11.3457
-10.4955
-9.71747
-9.00466
-8.35106
-7.75163
-39.9378
-34.7193
-31.5692
-28.9184
-26.5024
-24.3232
-22.3492
-20.5508
-18.9096
-17.4121
-16.0461
-14.8003
-13.6641
-12.6276
-11.6813
-10.8166
-10.0255
-9.30087
-8.63608
-8.02692
-40.7284
-35.4751
-32.2829
-29.5891
-27.1286
-24.9058
-22.8906
-21.0543
-19.3791
-17.8512
-16.4584
-15.1891
-14.0322
-12.9773
-12.0149
-11.1357
-10.3317
-9.59525
-8.91929
-8.30058
-6.77944
-4.6737
-3.31368
-2.26832
-1.53392
-0.994537
-0.607106
-0.332047
-0.141048
-0.0123707
0.0706053
0.120509
0.146921
0.156998
0.156052
0.147953
0.135516
0.120739
0.105031
0.0893599
0.0743704
0.060473
0.0479037
0.0367825
0.0271303
0.0189269
0.0120786
0.00652083
0.00208393
-0.00126122
-0.00377789
-0.00535806
-0.00645018
-0.00664251
-0.00677183
-0.00583951
-0.0054282
-0.00350337
-0.00295781
3.88929e-05
-7.0351
-4.85606
-3.45992
-2.38347
-1.62497
-1.06817
-0.66717
-0.381667
-0.182425
-0.0471252
0.0412719
0.0956752
0.125868
0.139147
0.140931
0.135167
0.124728
0.111664
0.0974239
0.0830069
0.0690871
0.0560999
0.0443019
0.0338333
0.0247281
0.0169838
0.0105148