/*--------------------------------*- C++ -*----------------------------------*\
| =========                 |                                                 |
| \\      /  F ield         | OpenFOAM: The Open Source CFD Toolbox           |
|  \\    /   O peration     | Version:  v1912                                 |
|   \\  /    A nd           | Website:  www.openfoam.com                      |
|    \\/     M anipulation  |                                                 |
\*---------------------------------------------------------------------------*/
FoamFile
{
    version     2.0;
    format      ascii;
    class       surfaceScalarField;
    location    "55.5";
    object      phi;
}
// * * * * * * * * * * * * * * * * * * * * * * * * * * * * * * * * * * * * * //

dimensions      [0 3 -1 0 0 0 0];
oriented        oriented;


internalField   nonuniform List<scalar> 
18940
(
0.000358389
-0.23436
0.234002
0.00137945
-0.216318
0.215297
0.00288376
-0.204783
0.203279
0.0047008
-0.197003
0.195186
0.00669969
-0.19125
0.189251
0.00877871
-0.186459
0.18438
0.010864
-0.18204
0.179955
0.0129062
-0.177699
0.175657
0.014875
-0.17331
0.171341
0.0167551
-0.168846
0.166966
0.0185418
-0.164327
0.16254
0.0202374
-0.159796
0.1581
0.021849
-0.1553
0.153688
0.0233866
-0.150884
0.149347
0.0248612
-0.146584
0.145109
0.0262845
-0.142423
0.141
0.0276681
-0.138415
0.137031
0.0290225
-0.134557
0.133202
0.0303561
-0.130829
0.129495
-0.127191
0.125873
0.0316742
0.000381818
-0.234742
0.00142277
-0.217359
0.0029378
-0.206298
0.00475915
-0.198824
0.00675251
-0.193243
0.0088162
-0.188523
0.0108777
-0.184102
0.012889
-0.17971
0.014822
-0.175243
0.0166629
-0.170687
0.0184088
-0.166073
0.0200633
-0.16145
0.0216345
-0.156871
0.0231329
-0.152383
0.0245701
-0.148021
0.0259582
-0.143811
0.0273088
-0.139765
0.0286328
-0.135881
0.0299391
-0.132135
-0.128486
0.0312338
0.000403246
-0.235145
0.00146043
-0.218417
0.00298418
-0.207822
0.00480608
-0.200646
0.00679026
-0.195228
0.00883496
-0.190567
0.0108689
-0.186136
0.012846
-0.181687
0.0147399
-0.177137
0.016539
-0.172486
0.0182416
-0.167775
0.0198529
-0.163061
0.0213818
-0.1584
0.0228395
-0.15384
0.0242379
-0.149419
0.0255893
-0.145162
0.0269056
-0.141082
0.028198
-0.137173
0.0294759
-0.133413
-0.129756
0.030746
0.000417122
-0.235562
0.00148935
-0.219489
0.00302097
-0.209354
0.00484086
-0.202466
0.00681248
-0.197199
0.00883463
-0.19259
0.0108375
-0.188138
0.0127771
-0.183627
0.0146291
-0.178989
0.0163836
-0.17424
0.0180408
-0.169433
0.019607
-0.164628
0.021092
-0.159885
0.0225076
-0.155256
0.023866
-0.150778
0.0251796
-0.146476
0.0264606
-0.142363
0.0277203
-0.138433
0.0289687
-0.134661
-0.131001
0.0302135
0.000428394
-0.235991
0.00151288
-0.220573
0.00304952
-0.21089
0.00486413
-0.20428
0.00681964
-0.199155
0.00881568
-0.194586
0.0107842
-0.190107
0.0126831
-0.185526
0.0144903
-0.180796
0.0161979
-0.175948
0.0178076
-0.171042
0.0193269
-0.166147
0.0207665
-0.161325
0.0221387
-0.156628
0.0234559
-0.152095
0.0247307
-0.147751
0.0259754
-0.143607
0.0272015
-0.139659
0.0284196
-0.135879
-0.13222
0.0296382
0.000437488
-0.236428
0.00153143
-0.221667
0.00307009
-0.212429
0.00487614
-0.206086
0.00681205
-0.201091
0.0087785
-0.196552
0.0107092
-0.192038
0.0125645
-0.187381
0.0143243
-0.182556
0.0159826
-0.177606
0.0175429
-0.172602
0.0190136
-0.167618
0.0204065
-0.162718
0.021734
-0.157955
0.023009
-0.15337
0.024244
-0.148986
0.0254512
-0.144815
0.0266428
-0.14085
0.0278297
-0.137066
-0.133412
0.0290216
0.00044497
-0.236873
0.00154568
-0.222768
0.00308324
-0.213967
0.00487737
-0.207881
0.00679022
-0.203004
0.00872368
-0.198485
0.0106135
-0.193928
0.0124222
-0.18919
0.014132
-0.184266
0.0157389
-0.179213
0.0172478
-0.174111
0.0186684
-0.169038
0.020013
-0.164062
0.0212947
-0.159237
0.0225263
-0.154601
0.0237203
-0.15018
0.0248892
-0.145983
0.0260451
-0.142006
0.0271998
-0.138221
-0.134576
0.028364
0.000450996
-0.237324
0.00155595
-0.223873
0.00308938
-0.2155
0.00486829
-0.20966
0.0067547
-0.20489
0.00865189
-0.200383
0.0104978
-0.195773
0.0122571
-0.190949
0.0139145
-0.185923
0.0154679
-0.180767
0.0169235
-0.175567
0.0182923
-0.170407
0.0195873
-0.165357
0.0208218
-0.160472
0.0220087
-0.155788
0.0231606
-0.151332
0.0242898
-0.147113
0.0254088
-0.143125
0.0265301
-0.139342
-0.135711
0.0276655
0.00045567
-0.23778
0.00156253
-0.22498
0.00308896
-0.217026
0.00484947
-0.21142
0.00670619
-0.206747
0.00856397
-0.20224
0.010363
-0.197572
0.0120704
-0.192656
0.013673
-0.187526
0.0151707
-0.182264
0.0165712
-0.176967
0.0178865
-0.171723
0.0191303
-0.166601
0.0203162
-0.161657
0.021457
-0.156929
0.0225653
-0.15244
0.0236532
-0.148201
0.0247337
-0.144206
0.0258199
-0.140429
-0.136816
0.0269251
0.000459067
-0.238239
0.00156569
-0.226086
0.00308244
-0.218543
0.00482155
-0.213159
0.00664549
-0.208571
0.00846088
-0.204056
0.0102102
-0.199322
0.0118632
-0.194309
0.0134088
-0.189071
0.0148487
-0.183704
0.0161922
-0.178311
0.0174524
-0.172983
0.0186433
-0.167792
0.0197788
-0.162793
0.0208718
-0.158022
0.0219346
-0.153503
0.0229793
-0.149245
0.0240191
-0.145245
0.025068
-0.141477
-0.137889
0.0261409
0.000461294
-0.2387
0.0015658
-0.227191
0.00307041
-0.220048
0.00478529
-0.214874
0.00657355
-0.210359
0.00834375
-0.205826
0.0100408
-0.201019
0.011637
-0.195905
0.0131234
-0.190558
0.0145036
-0.185084
0.0157882
-0.179596
0.0169912
-0.174186
0.0181273
-0.168928
0.0192105
-0.163876
0.0202536
-0.159065
0.0212687
-0.154518
0.0222677
-0.150244
0.0232639
-0.146242
0.0242726
-0.142486
-0.138927
0.0253104
0.000462505
-0.239163
0.00156329
-0.228292
0.00305354
-0.221538
0.0047416
-0.216562
0.00649149
-0.212109
0.00821392
-0.207548
0.00985635
-0.202661
0.0113934
-0.197442
0.0128186
-0.191983
0.0141372
-0.186403
0.015361
-0.180819
0.0165049
-0.17533
0.0175841
-0.170007
0.0186126
-0.164905
0.0196033
-0.160056
0.0205679
-0.155482
0.021518
-0.151194
0.022467
-0.147191
0.0234315
-0.143451
-0.139926
0.0244304
0.00046298
-0.239626
0.00155878
-0.229388
0.0030327
-0.223012
0.00469154
-0.218221
0.0064006
-0.213818
0.00807292
-0.209221
0.00965855
-0.204247
0.0111346
-0.198919
0.0124967
-0.193345
0.0137517
-0.187658
0.0149128
-0.181981
0.0159955
-0.176412
0.0170154
-0.171027
0.0179867
-0.165876
0.0189219
-0.160991
0.0198325
-0.156393
0.0207298
-0.152092
0.0216272
-0.148088
0.0225424
-0.144366
-0.140881
0.023497
0.000463197
-0.240089
0.00155313
-0.230477
0.00300894
-0.224468
0.00463636
-0.219848
0.00630237
-0.215484
0.00792249
-0.210841
0.00944944
-0.205774
0.0108628
-0.200332
0.0121601
-0.194642
0.01335
-0.188848
0.0144465
-0.183077
0.0154658
-0.177432
0.0164238
-0.171985
0.0173347
-0.166787
0.0182108
-0.161867
0.0190631
-0.157245
0.0199025
-0.152931
0.0207423
-0.148928
0.0216013
-0.145225
-0.141783
0.0225039
0.000463958
-0.240553
0.00154751
-0.231561
0.00298346
-0.225904
0.00457742
-0.221442
0.00619839
-0.217105
0.00776457
-0.212407
0.00923131
-0.207241
0.0105806
-0.201681
0.011812
-0.195874
0.0129354
-0.189971
0.0139658
-0.184107
0.0149197
-0.178386
0.0158132
-0.172879
0.0166602
-0.167634
0.0174728
-0.16268
0.0182613
-0.158034
0.0190359
-0.153706
0.0198096
-0.149702
0.0206018
-0.146017
-0.142624
0.0214428
0.000466411
-0.241019
0.00154322
-0.232638
0.0029575
-0.227318
0.00451608
-0.223001
0.00609037
-0.218679
0.0076012
-0.213918
0.00900662
-0.208646
0.010291
-0.202966
0.0114556
-0.197038
0.0125118
-0.191027
0.013475
-0.185071
0.0143622
-0.179273
0.015189
-0.173705
0.0159691
-0.168414
0.0167137
-0.163425
0.0174324
-0.158752
0.0181341
-0.154407
0.0188308
-0.150398
0.0195431
-0.146729
-0.143391
0.0203101
0.000471946
-0.241491
0.00154157
-0.233707
0.00293235
-0.228709
0.00445392
-0.224522
0.00598015
-0.220205
0.00743459
-0.215372
0.00877801
-0.209989
0.00999708
-0.204185
0.0110949
-0.198136
0.0120836
-0.192016
0.0129794
-0.185967
0.013799
-0.180092
0.0145577
-0.174464
0.0152684
-0.169125
0.0159416
-0.164098
0.0165856
-0.159396
0.0172079
-0.15503
0.0178184
-0.151009
0.0184379
-0.147349
-0.14406
0.0191063
0.000482894
-0.241974
0.0015452
-0.23477
0.00291049
-0.230074
0.00439304
-0.226005
0.0058697
-0.221682
0.00726686
-0.21677
0.00854803
-0.211271
0.00970213
-0.205339
0.0107338
-0.199168
0.0116561
-0.192938
0.0124851
-0.186796
0.0132372
-0.180844
0.0139267
-0.175154
0.0145654
-0.169763
0.0151625
-0.164695
0.0157255
-0.159959
0.0162608
-0.155565
0.0167748
-0.151523
0.0172803
-0.147854
-0.144581
0.0178015
0.000506834
-0.242481
0.00156132
-0.235824
0.00289599
-0.231409
0.00433534
-0.227444
0.00576026
-0.223107
0.00709943
-0.218109
0.00831871
-0.21249
0.00940907
-0.206429
0.0103766
-0.200135
0.0112349
-0.193797
0.0120001
-0.187561
0.0126873
-0.181532
0.013309
-0.175775
0.0138743
-0.170329
0.0143892
-0.16521
0.0148571
-0.160427
0.0152801
-0.155988
0.0156571
-0.1519
0.0159923
-0.14819
-0.144936
0.016348
0.000563885
-0.243045
0.00159822
-0.236859
0.00288859
-0.232699
0.00427965
-0.228835
0.00565134
-0.224479
0.00693271
-0.21939
0.00809134
-0.213648
0.00912021
-0.207458
0.0100269
-0.201042
0.0108259
-0.194596
0.0115332
-0.188268
0.0121634
-0.182162
0.0127269
-0.176339
0.0132294
-0.170831
0.0136708
-0.165651
0.0140435
-0.1608
0.0143307
-0.156275
0.0145063
-0.152076
0.0145652
-0.148248
-0.145108
0.014737
0.25073
0.00041516
-0.251145
0.250341
0.000388804
0.249959
0.000381538
0.249578
0.000381673
0.249193
0.000384622
0.248804
0.000389037
0.24841
0.000394193
0.24801
0.000399502
0.247606
0.000404571
0.247196
0.000409195
0.246783
0.000413279
0.246366
0.000416795
0.245947
0.000419726
0.245525
0.000422048
0.245101
0.000423638
0.244677
0.000424289
0.244254
0.000422954
0.243835
0.000419085
0.243431
0.000403481
0.000386396
0.252703
0.00102381
-0.253312
0.252059
0.00103304
0.251386
0.00105415
0.250687
0.00108115
0.249962
0.00110953
0.249213
0.00113792
0.248441
0.00116584
0.247648
0.00119282
0.246834
0.00121841
0.246001
0.00124237
0.24515
0.00126459
0.244282
0.00128503
0.243398
0.0013037
0.242499
0.00132059
0.241587
0.00133556
0.240663
0.00134841
0.239728
0.00135802
0.238783
0.00136414
0.237826
0.00136048
0.00135371
0.251487
0.00159592
-0.252059
0.25085
0.00166987
0.25016
0.00174404
0.249422
0.00181931
0.248638
0.00189332
0.247811
0.00196488
0.246943
0.00203365
0.246037
0.00209939
0.245093
0.00216187
0.244115
0.00222093
0.243103
0.00227652
0.242059
0.00232868
0.240985
0.0023775
0.239883
0.00242309
0.238753
0.00246546
0.237597
0.00250466
0.236414
0.00254016
0.235206
0.0025722
0.233968
0.0025984
0.00262294
0.247382
0.00203946
-0.247826
0.246869
0.00218308
0.246291
0.00232209
0.245652
0.0024579
0.244956
0.00258988
0.244203
0.00271723
0.243397
0.00283961
0.24254
0.00295685
0.241633
0.00306883
0.240678
0.00317546
0.239678
0.00327676
0.238634
0.00337287
0.237547
0.00346398
0.23642
0.00355039
0.235253
0.00363236
0.234048
0.00371026
0.232804
0.00378419
0.231521
0.00385476
0.230198
0.00392127
0.00398572
0.241134
0.00231858
-0.241413
0.240784
0.00253352
0.240364
0.00274168
0.239878
0.00294392
0.239328
0.00314018
0.238715
0.00333002
0.238042
0.00351309
0.237309
0.0036892
0.23652
0.00385824
0.235675
0.00402017
0.234777
0.00417506
0.233827
0.00432312
0.232826
0.00446466
0.231776
0.00460015
0.230678
0.00473014
0.229533
0.00485532
0.228341
0.00497629
0.227102
0.005094
0.225815
0.00520862
0.00532181
0.233537
0.00244193
-0.23366
0.233343
0.00272749
0.233079
0.00300512
0.232748
0.00327511
0.232351
0.00353751
0.231889
0.00379201
0.231363
0.00403828
0.230777
0.00427608
0.23013
0.00450529
0.229424
0.00472587
0.228661
0.00493792
0.227842
0.00514169
0.226969
0.00533763
0.226043
0.00552636
0.225065
0.00570869
0.224034
0.00588565
0.222952
0.00605829
0.221818
0.00622801
0.220631
0.00639566
0.00656308
0.225293
0.00244009
-0.225291
0.225227
0.00279371
0.225093
0.00313865
0.224893
0.00347484
0.224629
0.0038022
0.2243
0.00412046
0.223909
0.00442929
0.223457
0.0047284
0.222945
0.00501762
0.222374
0.00529691
0.221745
0.00556635
0.221061
0.00582624
0.220321
0.00607711
0.219528
0.00631973
0.218681
0.00655519
0.217782
0.00678485
0.21683
0.00701027
0.215825
0.00723336
0.214765
0.00745564
0.0076793
0.216931
0.00234925
-0.21684
0.216957
0.00276739
0.216919
0.00317624
0.216819
0.00357551
0.216656
0.003965
0.216432
0.00434438
0.216148
0.00471329
0.215805
0.00507139
0.215404
0.00541844
0.214947
0.00575436
0.214434
0.00607921
0.213867
0.0063933
0.213247
0.00669721
0.212575
0.00699186
0.211851
0.00727858
0.211077
0.00755911
0.210252
0.00783557
0.209375
0.00811047
0.208444
0.00838619
0.0086654
0.208798
0.00220275
-0.208651
0.208884
0.00268161
0.208909
0.00315061
0.208875
0.00360933
0.208783
0.00405744
0.208633
0.00449455
0.208426
0.00492021
0.208163
0.00533404
0.207846
0.00573571
0.207475
0.00612507
0.207052
0.00650214
0.206578
0.00686717
0.206055
0.00722078
0.205483
0.00756399
0.204863
0.00789837
0.204196
0.00822602
0.203482
0.00854972
0.20272
0.00887273
0.201907
0.00919851
0.00953059
0.201094
0.00202758
-0.200919
0.201212
0.00256358
0.201274
0.00308915
0.201279
0.00360376
0.20123
0.00410698
0.201126
0.00459832
0.200969
0.00507727
0.20076
0.00554334
0.200499
0.00599613
0.200189
0.00643537
0.19983
0.00686099
0.199424
0.00727316
0.198972
0.00767247
0.198476
0.00805995
0.197937
0.00843739
0.197356
0.00880722
0.196733
0.00917298
0.196067
0.00953883
0.195356
0.00990972
0.0102904
0.193913
0.0018436
-0.193729
0.194043
0.00243363
0.19412
0.00301265
0.194143
0.00358001
0.194115
0.00413518
0.194036
0.00467758
0.193907
0.0052066
0.193728
0.00572165
0.193502
0.00622222
0.19323
0.00670791
0.192912
0.00717849
0.192551
0.007634
0.192149
0.00807489
0.191707
0.00850213
0.191226
0.00891763
0.19071
0.00932405
0.190157
0.00972584
0.189568
0.010128
0.188939
0.0105379
0.0109618
0.187278
0.00166423
-0.187098
0.187405
0.00230578
0.187482
0.00293572
0.187509
0.00355324
0.187487
0.00415772
0.187416
0.00474848
0.187298
0.00532483
0.187133
0.00588606
0.186924
0.00643151
0.186671
0.00696061
0.186377
0.00747295
0.186042
0.00796832
0.18567
0.00844697
0.185263
0.00890961
0.184822
0.0093582
0.184351
0.00979533
0.18385
0.0102266
0.183321
0.0106576
0.182759
0.0110991
0.0115594
0.181168
0.0014978
-0.181001
0.181285
0.00218902
0.181352
0.00286789
0.181372
0.0035335
0.181345
0.00418517
0.181271
0.00482215
0.181152
0.00544361
0.18099
0.00604872
0.180784
0.00663667
0.180538
0.00720669
0.180253
0.00775811
0.179931
0.0082904
0.179575
0.00880351
0.179187
0.00929763
0.17877
0.00977464
0.178329
0.0102366
0.177865
0.0106904
0.177381
0.0111416
0.176874
0.0116065
0.0120945
0.175541
0.00134914
-0.175393
0.175642
0.00208851
0.175695
0.00281474
0.175701
0.00352687
0.175663
0.00422412
0.175579
0.00490561
0.175452
0.00557044
0.175283
0.00621763
0.175074
0.00684622
0.174825
0.0074552
0.17454
0.00804361
0.17422
0.00861051
0.173868
0.00915539
0.173488
0.00967769
0.173083
0.010179
0.17266
0.0106599
0.172221
0.0111293
0.171772
0.0115903
0.17131
0.0120692
0.0125728
0.170346
0.00122052
-0.170217
0.170427
0.00200695
0.170463
0.00277929
0.170453
0.00353665
0.170399
0.00427814
0.170302
0.00500281
0.170163
0.00570962
0.169983
0.0063975
0.169764
0.00706529
0.169507
0.00771175
0.169215
0.00833558
0.16889
0.00893537
0.168536
0.00951002
0.168155
0.0100579
0.167754
0.0105801
0.167339
0.0110747
0.166916
0.0115527
0.166495
0.0120109
0.166071
0.0124931
0.012993
0.165526
0.00111273
-0.165419
0.165588
0.00194513
0.165605
0.00276253
0.165578
0.00356402
0.165507
0.00434863
0.165395
0.00511533
0.165241
0.00586299
0.165048
0.00659041
0.164817
0.00729626
0.16455
0.00797905
0.164249
0.00863716
0.163915
0.00926864
0.163554
0.00987172
0.163168
0.0104435
0.162764
0.010984
0.162351
0.0114875
0.161936
0.0119679
0.161539
0.0124082
0.16115
0.0128818
0.0133431
0.161031
0.00102526
-0.160944
0.161074
0.00190257
0.161072
0.00276401
0.161028
0.00360858
0.160941
0.00443526
0.160813
0.00524291
0.160646
0.00603034
0.16044
0.00679624
0.160197
0.00753911
0.159919
0.00825726
0.159608
0.00894874
0.159265
0.0096111
0.158895
0.0102418
0.158502
0.0108366
0.158092
0.0113939
0.157677
0.0119029
0.157265
0.01238
0.156888
0.0127851
0.156529
0.0132402
0.0135973
0.156813
0.00095627
-0.156744
0.156838
0.00187772
0.15682
0.00278204
0.15676
0.00366853
0.156659
0.00453606
0.156518
0.00538343
0.156339
0.00620941
0.156123
0.00701259
0.155871
0.00779135
0.155584
0.0085438
0.155265
0.00926773
0.154916
0.00996026
0.15454
0.0106182
0.15414
0.0112358
0.153724
0.0118099
0.153304
0.0123228
0.152892
0.0127922
0.152537
0.0131408
0.152203
0.0135741
0.0137243
0.152828
0.00090381
-0.152776
0.152838
0.00186773
0.152807
0.00281341
0.152735
0.00374027
0.152624
0.00464702
0.152475
0.00553246
0.152289
0.00639533
0.152068
0.00723415
0.151812
0.00804721
0.151523
0.00883248
0.151203
0.00958757
0.150854
0.0103093
0.150479
0.010994
0.15008
0.0116346
0.149663
0.0122269
0.14924
0.0127455
0.148824
0.0132082
0.148489
0.0134754
0.148197
0.0138671
0.0136724
0.149039
-0.149001
0.000866323
0.149038
0.00186865
0.148997
0.00285371
0.148919
0.00381871
0.148804
0.00476229
0.148653
0.00568337
0.148467
0.00658068
0.148249
0.00745269
0.147998
0.00829763
0.147717
0.0091134
0.147407
0.00989755
0.14707
0.0106467
0.146707
0.0113571
0.146321
0.0120206
0.145915
0.0126332
0.145497
0.013163
0.145074
0.0136317
0.144723
0.0138263
0.144465
0.014125
0.0130292
0.254368
7.40821e-05
-0.254443
0.254332
3.63959e-05
0.2543
3.25649e-05
0.254258
4.15e-05
0.254202
5.59342e-05
0.254128
7.37889e-05
0.254035
9.37616e-05
0.25392
0.000114728
0.253784
0.000135873
0.253627
0.000156691
0.253451
0.000176741
0.253255
0.000195743
0.253041
0.000214195
0.252807
0.000233159
0.252557
0.000250449
0.252291
0.000265625
0.252013
0.00027829
0.251725
0.000288352
0.251435
0.000289951
0.000289962
0.256233
-0.000241553
-0.255917
0.256487
-0.000217572
0.256696
-0.000176635
0.25686
-0.000122822
0.256979
-6.26462e-05
0.257051
1.2873e-06
0.257077
6.78359e-05
0.257056
0.000135909
0.256987
0.00020458
0.256871
0.000272916
0.256708
0.000339671
0.2565
0.000403603
0.256251
0.000463466
0.255953
0.000530947
0.255611
0.000592645
0.255227
0.000649799
0.254803
0.000702257
0.254341
0.000749949
0.253843
0.000788224
0.000821301
0.251669
-0.000898346
-0.251012
0.252253
-0.000801425
0.252771
-0.000694651
0.253226
-0.000578195
0.253619
-0.000455568
0.253949
-0.000329014
0.254217
-0.00019968
0.254422
-6.89712e-05
0.254563
6.31203e-05
0.25464
0.000196014
0.254654
0.000325874
0.254605
0.000452328
0.254491
0.000577675
0.254319
0.000702772
0.254088
0.000823681
0.253798
0.000939577
0.253451
0.00104999
0.253046
0.0011548
0.252582
0.00125208
0.00134462
0.24335
-0.00183417
-0.242414
0.244213
-0.00166448
0.245006
-0.00148752
0.24573
-0.00130255
0.246386
-0.00111125
0.246973
-0.000915418
0.247489
-0.000716412
0.247936
-0.000515489
0.248312
-0.000313343
0.248615
-0.000107193
0.248847
9.47424e-05
0.249009
0.000289505
0.249101
0.000486187
0.249124
0.000679849
0.249078
0.000869423
0.248964
0.001054
0.248781
0.00123283
0.24853
0.00140556
0.248211
0.00157112
0.00173006
0.233267
-0.00296892
-0.232132
0.234334
-0.002731
0.235332
-0.00248556
0.236261
-0.00223218
0.237122
-0.00197178
0.237912
-0.00170585
0.238632
-0.00143582
0.239279
-0.0011629
0.239854
-0.00088805
0.240359
-0.000612061
0.240792
-0.00033816
0.241149
-6.7755e-05
0.241434
0.000201222
0.241647
0.000466864
0.241787
0.000728776
0.241856
0.000985516
0.241852
0.00123635
0.241777
0.00148069
0.241631
0.00171772
0.00194736
0.22271
-0.0042302
-0.221449
0.223908
-0.00392892
0.225041
-0.00361857
0.226108
-0.00329928
0.227108
-0.00297187
0.22804
-0.00263777
0.228903
-0.00229855
0.229696
-0.00195568
0.230418
-0.00161059
0.231071
-0.00126463
0.231652
-0.000919377
0.23216
-0.000576105
0.232597
-0.000235682
0.232964
0.000100361
0.233259
0.000433497
0.233482
0.000762613
0.233633
0.00108503
0.233713
0.00140069
0.233722
0.00170895
0.00200957
0.212465
-0.00556039
-0.211134
0.213736
-0.00519995
0.214945
-0.00482832
0.216092
-0.00444614
0.217175
-0.00405447
0.218192
-0.0036549
0.219143
-0.00324926
0.220026
-0.00283928
0.220842
-0.00242661
0.22159
-0.00201271
0.22227
-0.00159899
0.222881
-0.00118685
0.223422
-0.000777091
0.223893
-0.000370453
0.224301
2.54039e-05
0.224637
0.000426738
0.224904
0.000818459
0.225101
0.00120285
0.22523
0.00157984
0.00194903
0.202941
-0.00691768
-0.201584
0.204243
-0.00650141
0.205486
-0.00607154
0.206669
-0.00562911
0.20779
-0.0051756
0.208848
-0.00471302
0.209842
-0.0042435
0.210772
-0.00376907
0.211637
-0.00329155
0.212437
-0.00281257
0.213172
-0.00233361
0.213841
-0.00185603
0.214445
-0.00138091
0.214983
-0.000909199
0.215451
-0.000442265
0.215864
1.37561e-05
0.216205
0.000477304
0.216482
0.000926083
0.216694
0.0013683
0.00180262
0.194299
-0.00827428
-0.192943
0.195602
-0.0078047
0.19685
-0.00731884
0.198039
-0.00681803
0.199168
-0.00630443
0.200235
-0.00578064
0.201241
-0.00524923
0.202184
-0.00471251
0.203065
-0.00417256
0.203884
-0.00363115
0.20464
-0.00308981
0.205334
-0.0025499
0.205966
-0.00201257
0.206535
-0.00147876
0.207043
-0.000949881
0.207484
-0.000427236
0.20787
9.06874e-05
0.208192
0.000604419
0.208452
0.001108
0.00160371
0.186546
-0.0096134
-0.185206
0.187833
-0.00909249
0.189067
-0.00855211
0.190243
-0.00799397
0.191359
-0.00742123
0.192416
-0.00683733
0.193412
-0.00624534
0.194348
-0.00564794
0.195222
-0.00504744
0.196037
-0.00444573
0.196792
-0.00384438
0.197486
-0.00324471
0.198122
-0.00264786
0.198698
-0.0020548
0.199214
-0.00146653
0.199671
-0.000883967
0.20007
-0.00030783
0.200412
0.000262299
0.200694
0.000825439
0.00137909
0.179609
-0.0109264
-0.178296
0.180872
-0.0103558
0.182082
-0.00976172
0.183234
-0.00914646
0.184328
-0.00851479
0.185362
-0.00787119
0.186336
-0.00721933
0.18725
-0.00656231
0.188105
-0.00590262
0.188902
-0.00524226
0.18964
-0.00458276
0.190321
-0.0039254
0.190944
-0.00327123
0.19151
-0.00262119
0.19202
-0.00197612
0.192473
-0.0013369
0.192869
-0.000704028
0.193212
-8.04505e-05
0.193498
0.00053918
0.00114805
0.173384
-0.0122101
-0.1721
0.17462
-0.0115918
0.175802
-0.010944
0.176927
-0.010271
0.177992
-0.00957995
0.178997
-0.0088765
0.179943
-0.00816499
0.180829
-0.00744892
0.181658
-0.00673099
0.182429
-0.00601319
0.183143
-0.00529697
0.183801
-0.0045835
0.184404
-0.00387373
0.184951
-0.00316852
0.185443
-0.00246864
0.185881
-0.00177494
0.186266
-0.00108813
0.186595
-0.000409814
0.186874
0.000260202
0.00092371
0.167762
-0.0134656
-0.166506
0.168972
-0.0128017
0.170127
-0.0120996
0.171223
-0.0113674
0.172259
-0.0106158
0.173234
-0.00985174
0.17415
-0.00908028
0.175006
-0.00830535
0.175805
-0.00752974
0.176547
-0.00675532
0.177234
-0.00598341
0.177865
-0.00521499
0.178442
-0.0044509
0.178966
-0.00369189
0.179436
-0.00293869
0.179853
-0.00219208
0.180217
-0.00145256
0.180528
-0.000720848
0.180792
-3.72288e-06
0.000714414
0.162642
-0.0146965
-0.161411
0.163831
-0.0139903
0.164963
-0.0132319
0.166033
-0.0124379
0.167042
-0.0116239
0.167988
-0.0107979
0.168873
-0.00996565
0.169699
-0.00913158
0.170468
-0.00829844
0.171181
-0.00746787
0.171838
-0.00664094
0.172442
-0.00581842
0.172992
-0.00500095
0.173489
-0.00418917
0.173934
-0.00338371
0.174327
-0.00258533
0.174669
-0.00179466
0.174961
-0.00101302
0.1752
-0.000242214
0.000521791
0.157942
-0.0159095
-0.156729
0.159117
-0.0151653
0.160231
-0.0143466
0.161281
-0.013487
0.162264
-0.0126075
0.163183
-0.0117169
0.16404
-0.0108222
0.164836
-0.00992817
0.165575
-0.00903728
0.166258
-0.00815076
0.166886
-0.00726931
0.167461
-0.00639336
0.167984
-0.0055233
0.168454
-0.00465961
0.168873
-0.00380283
0.169241
-0.00295365
0.16956
-0.00211283
0.169828
-0.00128132
0.170046
-0.00046023
0.000350681
0.153598
-0.0171172
-0.15239
0.15477
-0.016337
0.155874
-0.0154506
0.156906
-0.0145195
0.157867
-0.0135688
0.15876
-0.0126093
0.159587
-0.0116497
0.160354
-0.0106946
0.161062
-0.00974562
0.161715
-0.00880344
0.162314
-0.0078681
0.16286
-0.00693952
0.163354
-0.00601777
0.163798
-0.00510309
0.164191
-0.00419592
0.164534
-0.00329687
0.164828
-0.00240669
0.165073
-0.0015262
0.165269
-0.000656599
0.000201141
0.149565
-0.0183487
-0.148334
0.150749
-0.0175207
0.151849
-0.0165502
0.152867
-0.0155378
0.153805
-0.0145066
0.154667
-0.0134721
0.155463
-0.012445
0.156196
-0.011428
0.156872
-0.0104214
0.157493
-0.00942451
0.158061
-0.00843652
0.158578
-0.0074566
0.159045
-0.00648439
0.159462
-0.00551988
0.159829
-0.00456339
0.160148
-0.00361547
0.160418
-0.00267687
0.16064
-0.00174846
0.160815
-0.000831228
7.24901e-05
0.145814
-0.0196686
-0.144494
0.147031
-0.0187382
0.148127
-0.0176462
0.149126
-0.0165366
0.150032
-0.0154125
0.150857
-0.014297
0.151613
-0.0132015
0.152309
-0.0121241
0.15295
-0.0110619
0.153538
-0.0100126
0.154076
-0.00897412
0.154564
-0.00794479
0.155003
-0.00692376
0.155394
-0.00591084
0.155737
-0.00490627
0.156032
-0.00391061
0.15628
-0.00292461
0.156481
-0.00194935
0.156635
-0.000985796
-3.58964e-05
0.14236
-0.0211469
-0.140882
0.143609
-0.019987
0.144683
-0.0187202
0.145639
-0.0174934
0.146497
-0.0162698
0.147273
-0.0150731
0.147984
-0.0139124
0.148639
-0.0127791
0.149243
-0.0116657
0.149798
-0.0105677
0.150306
-0.00948171
0.150766
-0.00840529
0.15118
-0.0073373
0.151546
-0.0062775
0.151866
-0.00522619
0.152139
-0.00418397
0.152367
-0.00315171
0.152548
-0.00213057
0.152684
-0.00112205
-0.000127689
0.139273
-0.137855
-0.0225652
0.140435
-0.021149
0.141469
-0.0197541
0.142346
-0.0183703
0.143135
-0.017059
0.143859
-0.0157968
0.144524
-0.0145775
0.145139
-0.0133938
0.145707
-0.0122347
0.146232
-0.0110921
0.146711
-0.00996128
0.147146
-0.0088398
0.147535
-0.00772649
0.147879
-0.00662122
0.148177
-0.00552447
0.14843
-0.00443702
0.148638
-0.00335985
0.148802
-0.00229395
0.148921
-0.00124091
-0.000208226
0.0308393
0.112048
-0.110564
-0.0323236
0.0293276
0.11505
-0.113539
0.0277858
0.118185
-0.116643
0.0262104
0.121476
-0.119901
0.0245981
0.124955
-0.123343
0.0229461
0.128664
-0.127012
0.0212523
0.132663
-0.130969
0.0195153
0.137028
-0.135291
0.0177345
0.141866
-0.140085
0.0159103
0.147307
-0.145483
0.0140444
0.153512
-0.151646
0.0121411
0.160668
-0.158765
0.0102092
0.168976
-0.167044
0.00826559
0.178626
-0.176682
0.00634003
0.189739
-0.187813
0.00448273
0.202279
-0.200422
0.00277349
0.215911
-0.214202
0.00133289
0.229777
-0.228336
0.0003303
0.242094
-0.241092
0.249728
-0.249397
0.03065
0.113525
-0.0321267
0.0291459
0.116554
0.027612
0.119719
0.0260446
0.123043
0.0244406
0.126559
0.022797
0.130308
0.0211115
0.134348
0.0193828
0.138757
0.01761
0.143639
0.0157934
0.149123
0.013935
0.15537
0.0120394
0.162564
0.0101159
0.1709
0.00818218
0.180559
0.00626926
0.191651
0.00442881
0.20412
0.00274213
0.217598
0.00132921
0.23119
0.00035406
0.243069
0.250082
0.0304187
0.114992
-0.0318856
0.0289245
0.118049
0.0274006
0.121243
0.0258435
0.1246
0.0242499
0.128153
0.0226169
0.131941
0.020942
0.136023
0.0192237
0.140475
0.0174612
0.145401
0.0156547
0.15093
0.0138062
0.157219
0.0119207
0.164449
0.0100081
0.172812
0.00808668
0.182481
0.00618856
0.19355
0.0043664
0.205942
0.00270202
0.219262
0.00131377
0.232578
0.000357132
0.244026
0.250439
0.0301472
0.116447
-0.0316022
0.0286649
0.119531
0.0271532
0.122755
0.0256085
0.126145
0.0240274
0.129734
0.0224069
0.133562
0.0207447
0.137685
0.0190389
0.142181
0.0172888
0.147152
0.0154945
0.152724
0.0136583
0.159055
0.0117852
0.166322
0.00988568
0.174712
0.00797881
0.184388
0.00609738
0.195431
0.00429484
0.207745
0.00265316
0.220904
0.00128903
0.233942
0.000352065
0.244963
0.250791
0.0298376
0.117888
-0.0312788
0.0283693
0.120999
0.0268716
0.124252
0.025341
0.127676
0.0237742
0.131301
0.0221681
0.135168
0.0205204
0.139333
0.0188291
0.143872
0.0170934
0.148887
0.0153135
0.154504
0.0134915
0.160877
0.011633
0.168181
0.00974878
0.176596
0.00785852
0.186278
0.0059958
0.197294
0.00421473
0.209526
0.0025973
0.222521
0.00125857
0.235281
0.000343143
0.245879
0.251134
0.0294926
0.119314
-0.0309185
0.0280397
0.122452
0.0265576
0.125735
0.0250428
0.129191
0.0234918
0.132852
0.0219018
0.136758
0.0202702
0.140964
0.0185952
0.145547
0.0168757
0.150607
0.0151119
0.156268
0.0133063
0.162683
0.0114644
0.170023
0.00959757
0.178463
0.00772607
0.188149
0.00588421
0.199136
0.0041267
0.211283
0.00253545
0.224113
0.00122376
0.236593
0.000331534
0.246771
0.251466
0.0291149
0.120723
-0.0305244
0.0276786
0.123888
0.0262133
0.1272
0.0247155
0.130688
0.0231817
0.134386
0.0216091
0.13833
0.0199951
0.142578
0.0183378
0.147205
0.0166362
0.152308
0.0148904
0.158014
0.013103
0.16447
0.0112797
0.171846
0.00943236
0.18031
0.00758175
0.19
0.00576292
0.200954
0.0040311
0.213015
0.00246803
0.225676
0.00118515
0.237876
0.000317946
0.247638
0.251784
0.0287074
0.122116
-0.0300999
0.0272883
0.125307
0.0258407
0.128647
0.0243607
0.132168
0.0228452
0.135901
0.0212911
0.139884
0.0196959
0.144173
0.0180578
0.148843
0.0163755
0.153991
0.0146495
0.15974
0.012882
0.166238
0.0110793
0.173648
0.00925342
0.182136
0.00742584
0.191828
0.0056322
0.202748
0.00392823
0.214719
0.0023954
0.227208
0.00114327
0.239128
0.00030298
0.248478
0.252087
0.028273
0.123491
-0.0296484
0.0268714
0.126709
0.0254417
0.130077
0.0239801
0.13363
0.0224834
0.137398
0.0209487
0.141419
0.0193735
0.145749
0.0177557
0.150461
0.0160943
0.155652
0.0143894
0.161445
0.0126436
0.167983
0.0108634
0.175429
0.00906101
0.183939
0.00725857
0.19363
0.00549232
0.204514
0.00381839
0.216393
0.00231793
0.228709
0.0010986
0.240347
0.000287054
0.24929
0.252374
0.0278144
0.12485
-0.0291736
0.0264298
0.128093
0.0250179
0.131489
0.0235749
0.135073
0.0220974
0.138875
0.0205828
0.142934
0.0190283
0.147303
0.017432
0.152057
0.0157926
0.157291
0.0141105
0.163127
0.0123882
0.169706
0.0106322
0.177185
0.00885533
0.185715
0.00708017
0.195405
0.00534352
0.206251
0.00370189
0.218035
0.00223599
0.230175
0.00105149
0.241532
0.000270412
0.250071
0.252644
0.0273342
0.126195
-0.0286786
0.0259654
0.129462
0.0245705
0.132884
0.0231457
0.136498
0.0216877
0.140333
0.0201935
0.144428
0.0186606
0.148836
0.0170867
0.153631
0.0154708
0.158907
0.0138128
0.164785
0.0121156
0.171403
0.0103858
0.178915
0.00863654
0.187465
0.00689083
0.197151
0.00518604
0.207956
0.00357898
0.219642
0.00214986
0.231604
0.00100223
0.242679
0.000253215
0.25082
0.252897
0.0268338
0.127527
-0.0281659
0.025479
0.130817
0.0240999
0.134263
0.0226927
0.137905
0.021254
0.141772
0.0197807
0.145901
0.01827
0.150347
0.0167198
0.155181
0.0151286
0.160499
0.0134964
0.166417
0.0118261
0.173073
0.0101243
0.180616
0.00840473
0.189184
0.00669069
0.198865
0.00502008