/*--------------------------------*- C++ -*----------------------------------*\
| =========                 |                                                 |
| \\      /  F ield         | OpenFOAM: The Open Source CFD Toolbox           |
|  \\    /   O peration     | Version:  v1912                                 |
|   \\  /    A nd           | Website:  www.openfoam.com                      |
|    \\/     M anipulation  |                                                 |
\*---------------------------------------------------------------------------*/
FoamFile
{
    version     2.0;
    format      ascii;
    class       surfaceScalarField;
    location    "45";
    object      phi;
}
// * * * * * * * * * * * * * * * * * * * * * * * * * * * * * * * * * * * * * //

dimensions      [0 3 -1 0 0 0 0];
oriented        oriented;


internalField   nonuniform List<scalar> 
18940
(
0.000357952
-0.234368
0.23401
0.00137789
-0.216332
0.215312
0.00288058
-0.204797
0.203294
0.00469567
-0.197013
0.195198
0.00669243
-0.191257
0.18926
0.00876921
-0.186461
0.184384
0.0108523
-0.182037
0.179954
0.0128922
-0.177691
0.175651
0.014859
-0.173298
0.171332
0.0167371
-0.168831
0.166952
0.0185218
-0.164308
0.162524
0.0202156
-0.159774
0.15808
0.0218256
-0.155276
0.153666
0.0233616
-0.150858
0.149322
0.0248347
-0.146555
0.145082
0.0262567
-0.142392
0.14097
0.0276389
-0.138382
0.137
0.028992
-0.134522
0.133169
0.0303243
-0.130793
0.129461
-0.127154
0.125837
0.0316412
0.000381371
-0.234749
0.00142119
-0.217372
0.00293461
-0.20631
0.00475403
-0.198833
0.00674527
-0.193248
0.00880678
-0.188522
0.010866
-0.184096
0.0128753
-0.1797
0.0148062
-0.175229
0.0166453
-0.17067
0.0183893
-0.166052
0.0200421
-0.161427
0.0216117
-0.156846
0.0231086
-0.152355
0.0245444
-0.147991
0.0259311
-0.143779
0.0272804
-0.139732
0.0286032
-0.135845
0.0299084
-0.132098
-0.128448
0.0312019
0.000402792
-0.235152
0.00145884
-0.218428
0.00298098
-0.207832
0.00480097
-0.200653
0.00678307
-0.19523
0.00882564
-0.190565
0.0108575
-0.186128
0.0128325
-0.181675
0.0147245
-0.177121
0.0165217
-0.172467
0.0182226
-0.167753
0.0198323
-0.163037
0.0213597
-0.158373
0.0228159
-0.153811
0.024213
-0.149388
0.0255631
-0.145129
0.0268782
-0.141047
0.0281694
-0.137136
0.0294462
-0.133375
-0.129717
0.0307152
0.000416662
-0.235569
0.00148775
-0.219499
0.00301778
-0.209362
0.00483578
-0.202471
0.00680536
-0.197199
0.00882544
-0.192585
0.0108263
-0.188129
0.0127639
-0.183613
0.014614
-0.178972
0.0163668
-0.17422
0.0180223
-0.169409
0.019587
-0.164601
0.0210706
-0.159857
0.0224848
-0.155225
0.0238419
-0.150745
0.0251543
-0.146442
0.0264341
-0.142327
0.0276927
-0.138395
0.0289401
-0.134622
-0.13096
0.0301838
0.000427929
-0.235997
0.00151128
-0.220582
0.00304634
-0.210897
0.00485909
-0.204283
0.00681262
-0.199153
0.00880664
-0.194579
0.0107731
-0.190096
0.0126701
-0.18551
0.0144755
-0.180777
0.0161815
-0.175926
0.0177896
-0.171017
0.0193075
-0.166119
0.0207458
-0.161295
0.0221166
-0.156596
0.0234327
-0.152061
0.0247063
-0.147715
0.0259499
-0.14357
0.0271749
-0.13962
0.028392
-0.135839
-0.132178
0.0296097
0.00043702
-0.236434
0.00152984
-0.221675
0.00306693
-0.212435
0.00487116
-0.206088
0.00680513
-0.201087
0.00876962
-0.196543
0.0106985
-0.192024
0.0125519
-0.187363
0.01431
-0.182535
0.0159667
-0.177582
0.0175255
-0.172576
0.0189949
-0.167589
0.0203864
-0.162687
0.0217128
-0.157922
0.0229866
-0.153335
0.0242205
-0.148949
0.0254267
-0.144776
0.0266173
-0.140811
0.0278032
-0.137025
-0.133369
0.0289942
0.0004445
-0.236878
0.00154409
-0.222775
0.00308011
-0.213971
0.00487245
-0.20788
0.00678341
-0.202998
0.00871498
-0.198475
0.010603
-0.193912
0.0124099
-0.18917
0.0141181
-0.184243
0.0157235
-0.179188
0.017231
-0.174083
0.0186503
-0.169008
0.0199937
-0.16403
0.0212743
-0.159203
0.0225048
-0.154565
0.0236978
-0.150142
0.0248657
-0.145944
0.0260207
-0.141966
0.0271745
-0.138179
-0.134532
0.0283378
0.000450525
-0.237329
0.00155437
-0.223878
0.00308628
-0.215502
0.00486345
-0.209657
0.00674803
-0.204883
0.0086434
-0.20037
0.0104875
-0.195757
0.0122452
-0.190928
0.0139011
-0.185899
0.015453
-0.18074
0.0169073
-0.175537
0.0182749
-0.170376
0.0195688
-0.165324
0.0208022
-0.160436
0.0219881
-0.155751
0.023139
-0.151293
0.0242673
-0.147072
0.0253854
-0.143084
0.0265058
-0.139299
-0.135667
0.0276405
0.0004552
-0.237784
0.00156096
-0.224984
0.0030859
-0.217027
0.00484472
-0.211416
0.00669966
-0.206737
0.00855569
-0.202226
0.010353
-0.197554
0.0120588
-0.192634
0.01366
-0.1875
0.0151563
-0.182236
0.0165556
-0.176937
0.0178698
-0.17169
0.0191126
-0.166567
0.0202974
-0.161621
0.0214373
-0.156891
0.0225446
-0.1524
0.0236317
-0.14816
0.0247114
-0.144163
0.0257968
-0.140385
-0.136771
0.0269012
0.000458599
-0.238242
0.00156414
-0.22609
0.00307943
-0.218543
0.00481689
-0.213153
0.00663912
-0.20856
0.00845282
-0.20404
0.0102006
-0.199302
0.011852
-0.194285
0.0133962
-0.189044
0.0148349
-0.183675
0.0161773
-0.178279
0.0174364
-0.172949
0.0186263
-0.167756
0.0197608
-0.162756
0.020853
-0.157983
0.0219149
-0.153462
0.0229589
-0.149204
0.0239978
-0.145202
0.025046
-0.141433
-0.137844
0.0261182
0.000460829
-0.238703
0.00156427
-0.227193
0.00306745
-0.220046
0.00478074
-0.214867
0.00656735
-0.210346
0.00833594
-0.205809
0.0100315
-0.200997
0.0116262
-0.19588
0.0131113
-0.19053
0.0144904
-0.185054
0.0157739
-0.179563
0.0169759
-0.174151
0.0181111
-0.168892
0.0191934
-0.163838
0.0202357
-0.159026
0.02125
-0.154477
0.0222482
-0.150202
0.0232437
-0.146198
0.0242517
-0.142441
-0.138881
0.0252889
0.000462045
-0.239165
0.00156178
-0.228293
0.00305065
-0.221535
0.00473716
-0.216553
0.00648546
-0.212095
0.00820635
-0.207529
0.00984734
-0.202638
0.0113831
-0.197416
0.0128071
-0.191953
0.0141245
-0.186371
0.0153473
-0.180786
0.0164903
-0.175294
0.0175686
-0.16997
0.0185964
-0.164866
0.0195863
-0.160015
0.0205501
-0.15544
0.0214995
-0.151151
0.0224479
-0.147146
0.0234117
-0.143405
-0.139879
0.02441
0.000462525
-0.239628
0.0015573
-0.229388
0.00302987
-0.223007
0.00468722
-0.218211
0.00639476
-0.213802
0.0080656
-0.2092
0.00964986
-0.204222
0.0111247
-0.198891
0.0124856
-0.193314
0.0137396
-0.187625
0.0148998
-0.181946
0.0159816
-0.176376
0.0170007
-0.170989
0.0179712
-0.165836
0.0189058
-0.16095
0.0198157
-0.15635
0.0207123
-0.152048
0.0216091
-0.148043
0.0225237
-0.144319
-0.140833
0.0234777
0.000462749
-0.240091
0.00155168
-0.230477
0.00300617
-0.224462
0.00463216
-0.219837
0.00629671
-0.215467
0.00791544
-0.210819
0.0094411
-0.205748
0.0108533
-0.200303
0.0121496
-0.194611
0.0133385
-0.188814
0.0144342
-0.183041
0.0154527
-0.177394
0.0164099
-0.171946
0.0173201
-0.166746
0.0181956
-0.161826
0.0190473
-0.157202
0.019886
-0.152887
0.0207253
-0.148882
0.0215837
-0.145178
-0.141735
0.0224858
0.000463518
-0.240554
0.00154609
-0.231559
0.00298077
-0.225896
0.00457334
-0.221429
0.00619292
-0.217086
0.00775777
-0.212384
0.0092233
-0.207214
0.0105715
-0.201651
0.0118019
-0.195841
0.0129244
-0.189937
0.013954
-0.184071
0.0149073
-0.178347
0.0158001
-0.172839
0.0166465
-0.167593
0.0174585
-0.162638
0.0182464
-0.15799
0.0190205
-0.153661
0.0197936
-0.149655
0.0205853
-0.145969
-0.142576
0.0214258
0.000465979
-0.24102
0.00154183
-0.232635
0.00295488
-0.22731
0.00451213
-0.222986
0.00608509
-0.218659
0.00759467
-0.213894
0.00899895
-0.208618
0.0102823
-0.202935
0.0114461
-0.197005
0.0125014
-0.190992
0.0134639
-0.185034
0.0143505
-0.179234
0.0151766
-0.173665
0.0159562
-0.168372
0.0167003
-0.163382
0.0174184
-0.158708
0.0181196
-0.154362
0.0188159
-0.150352
0.0195278
-0.146681
-0.143342
0.0202944
0.000471523
-0.241492
0.00154022
-0.233704
0.00292981
-0.228699
0.0044501
-0.224507
0.00597506
-0.220184
0.00742833
-0.215347
0.00877068
-0.20996
0.00998881
-0.204153
0.0110858
-0.198102
0.0120738
-0.19198
0.012969
-0.185929
0.013788
-0.180053
0.0145461
-0.174423
0.0152563
-0.169083
0.0159291
-0.164054
0.0165726
-0.159352
0.0171945
-0.154984
0.0178046
-0.150962
0.0184237
-0.1473
-0.14401
0.0190917
0.00048248
-0.241974
0.00154388
-0.234765
0.00290803
-0.230063
0.00438934
-0.225988
0.0058648
-0.22166
0.00726085
-0.216743
0.00854103
-0.21124
0.00969426
-0.205306
0.0107252
-0.199133
0.0116468
-0.192902
0.0124753
-0.186757
0.0132268
-0.180804
0.0139158
-0.175112
0.0145541
-0.169721
0.0151509
-0.164651
0.0157135
-0.159914
0.0162484
-0.155519
0.016762
-0.151476
0.0172672
-0.147806
-0.144531
0.0177881
0.000506429
-0.242481
0.00156003
-0.235819
0.0028936
-0.231397
0.00433177
-0.227426
0.00575555
-0.223083
0.00709368
-0.218081
0.00831203
-0.212459
0.0094016
-0.206395
0.0103684
-0.2001
0.0112262
-0.193759
0.0119908
-0.187522
0.0126775
-0.181491
0.0132989
-0.175734
0.0138638
-0.170286
0.0143783
-0.165166
0.014846
-0.160382
0.0152687
-0.155941
0.0156454
-0.151852
0.0159804
-0.148141
-0.144887
0.0163358
0.000563489
-0.243044
0.00159698
-0.236852
0.00288627
-0.232686
0.00427621
-0.228816
0.00564681
-0.224454
0.0069272
-0.219361
0.00808498
-0.213617
0.00911311
-0.207424
0.0100192
-0.201006
0.0108176
-0.194558
0.0115245
-0.188229
0.0121543
-0.182121
0.0127174
-0.176297
0.0132197
-0.170788
0.0136607
-0.165607
0.0140333
-0.160754
0.0143203
-0.156228
0.0144959
-0.152028
0.0145547
-0.1482
-0.145058
0.0147262
0.250723
0.000414905
-0.251138
0.250334
0.000388543
0.249953
0.00038127
0.249572
0.000381399
0.249187
0.000384343
0.248799
0.000388752
0.248405
0.000393903
0.248005
0.000399206
0.247601
0.000404269
0.247192
0.000408888
0.246779
0.000412966
0.246363
0.000416475
0.245943
0.0004194
0.245522
0.000421716
0.245098
0.000423298
0.244674
0.000423942
0.244252
0.000422599
0.243833
0.000418721
0.24343
0.000403107
0.000386013
0.252685
0.00102313
-0.253293
0.252041
0.00103232
0.251369
0.00105341
0.25067
0.00108038
0.249946
0.00110873
0.249197
0.0011371
0.248426
0.001165
0.247633
0.00119195
0.24682
0.00121752
0.245988
0.00124145
0.245137
0.00126365
0.244269
0.00128407
0.243386
0.00130271
0.242488
0.00131958
0.241577
0.00133452
0.240653
0.00134733
0.239719
0.00135692
0.238775
0.001363
0.237819
0.00135931
0.0013525
0.25146
0.00159482
-0.252031
0.250823
0.00166871
0.250134
0.00174282
0.249396
0.00181802
0.248613
0.00189198
0.247787
0.00196348
0.246919
0.0020322
0.246013
0.00209788
0.245071
0.00216031
0.244093
0.00221931
0.243082
0.00227484
0.242039
0.00232695
0.240966
0.00237572
0.239864
0.00242125
0.238735
0.00246356
0.23758
0.0025027
0.236398
0.00253813
0.235191
0.00257011
0.233954
0.00259624
0.00262071
0.247349
0.00203806
-0.247793
0.246837
0.00218158
0.246259
0.00232048
0.245621
0.0024562
0.244925
0.00258808
0.244173
0.00271533
0.243367
0.00283762
0.242511
0.00295477
0.241604
0.00306665
0.24065
0.00317319
0.239651
0.0032744
0.238607
0.00337041
0.237522
0.00346143
0.236395
0.00354774
0.235229
0.00362961
0.234024
0.00370741
0.232781
0.00378122
0.2315
0.00385169
0.230178
0.00391809
0.00398242
0.241098
0.00231702
-0.241377
0.240748
0.00253181
0.240329
0.00273983
0.239843
0.00294193
0.239293
0.00313805
0.238681
0.00332775
0.238008
0.00351068
0.237276
0.00368665
0.236487
0.00385556
0.235643
0.00401735
0.234745
0.00417211
0.233795
0.00432002
0.232795
0.00446142
0.231746
0.00459678
0.230649
0.00472662
0.229505
0.00485165
0.228314
0.00497246
0.227075
0.00509002
0.225789
0.00520447
0.00531749
0.233499
0.00244033
-0.233622
0.233305
0.0027257
0.233042
0.00300314
0.232711
0.00327295
0.232313
0.00353517
0.231852
0.00378948
0.231327
0.00403557
0.23074
0.0042732
0.230094
0.00450222
0.229388
0.00472263
0.228626
0.00493449
0.227808
0.00513809
0.226935
0.00533384
0.22601
0.00552238
0.225032
0.00570452
0.224002
0.00588128
0.222921
0.00605372
0.221788
0.00622322
0.220602
0.00639065
0.00655784
0.225254
0.00243854
-0.225252
0.225188
0.00279193
0.225054
0.00313664
0.224855
0.00347261
0.22459
0.00379974
0.224262
0.00411779
0.223871
0.00442639
0.223419
0.00472529
0.222907
0.00501429
0.222336
0.00529335
0.221708
0.00556257
0.221024
0.00582224
0.220285
0.00607287
0.219492
0.00631527
0.218646
0.00655048
0.217747
0.0067799
0.216796
0.00700507
0.215791
0.00722789
0.214732
0.0074499
0.00767326
0.216891
0.00234781
-0.2168
0.216917
0.00276568
0.21688
0.00317426
0.216779
0.00357328
0.216616
0.00396251
0.216392
0.00434163
0.216109
0.00471028
0.215766
0.00506812
0.215365
0.00541492
0.214908
0.00575057
0.214395
0.00607516
0.213829
0.00638899
0.213209
0.00669263
0.212537
0.00698701
0.211814
0.00727344
0.21104
0.00755369
0.210216
0.00782985
0.209339
0.00810444
0.208409
0.00837983
0.0086587
0.208757
0.00220144
-0.208611
0.208843
0.00267999
0.208869
0.0031487
0.208835
0.00360713
0.208742
0.00405495
0.208592
0.00449176
0.208385
0.00491714
0.208123
0.00533067
0.207806
0.00573205
0.207435
0.00612112
0.207012
0.00649789
0.206539
0.00686262
0.206015
0.00721593
0.205444
0.00755883
0.204824
0.00789289
0.204158
0.00822021
0.203444
0.00854357
0.202682
0.00886623
0.20187
0.00919163
0.00952332
0.201053
0.0020264
-0.200878
0.201171
0.00256207
0.201232
0.00308731
0.201238
0.0036016
0.201188
0.00410449
0.201084
0.00459551
0.200927
0.00507414
0.200718
0.00553989
0.200458
0.00599236
0.200148
0.00643128
0.199789
0.00685657
0.199383
0.00726842
0.198932
0.00766739
0.198436
0.00805454
0.197897
0.00843162
0.197317
0.0088011
0.196694
0.00916649
0.196028
0.00953194
0.195317
0.00990241
0.0102827
0.193871
0.00184254
-0.193687
0.194001
0.00243221
0.194077
0.00301088
0.194101
0.00357789
0.194073
0.0041327
0.193994
0.00467475
0.193864
0.00520343
0.193686
0.00571814
0.19346
0.00621836
0.193188
0.0067037
0.19287
0.00717393
0.19251
0.00762908
0.192107
0.00806962
0.191665
0.00849649
0.191185
0.00891162
0.190669
0.00931766
0.190116
0.00971904
0.189527
0.0101208
0.1889
0.0105302
0.0109536
0.187234
0.00166326
-0.187055
0.187362
0.00230442
0.187439
0.00293399
0.187466
0.00355114
0.187443
0.00415524
0.187372
0.00474564
0.187254
0.00532162
0.18709
0.00588248
0.186881
0.00642756
0.186628
0.00695629
0.186334
0.00746825
0.186
0.00796324
0.185628
0.00844152
0.18522
0.00890377
0.18478
0.00935197
0.184309
0.00978869
0.183808
0.0102195
0.183279
0.0106501
0.182718
0.0110911
0.0115509
0.181123
0.0014969
-0.180957
0.18124
0.00218772
0.181308
0.00286619
0.181328
0.0035314
0.1813
0.00418268
0.181226
0.00481926
0.181108
0.00544033
0.180945
0.00604505
0.18074
0.00663261
0.180494
0.00720224
0.180209
0.00775327
0.179887
0.00828517
0.179531
0.00879788
0.179143
0.0092916
0.178727
0.00976819
0.178286
0.0102297
0.177822
0.0106831
0.177339
0.0111338
0.176832
0.0115982
0.0120857
0.175495
0.0013483
-0.175347
0.175596
0.00208724
0.175649
0.00281305
0.175656
0.00352476
0.175617
0.00422159
0.175533
0.00490267
0.175407
0.00556709
0.175238
0.00621387
0.175028
0.00684205
0.17478
0.00745062
0.174495
0.00803862
0.174175
0.00860511
0.173823
0.00914957
0.173443
0.00967147
0.173039
0.0101723
0.172616
0.0106528
0.172177
0.0111218
0.171729
0.0115823
0.171266
0.0120607
0.0125637
0.170299
0.00121972
-0.17017
0.17038
0.00200569
0.170416
0.00277759
0.170406
0.00353452
0.170352
0.00427557
0.170255
0.0049998
0.170116
0.00570619
0.169936
0.00639364
0.169717
0.007061
0.169461
0.00770703
0.169169
0.00833044
0.168844
0.0089298
0.16849
0.00950402
0.16811
0.0100515
0.167709
0.0105732
0.167294
0.0110674
0.166871
0.011545
0.16645
0.0120027
0.166027
0.0124844
0.0129837
0.165478
0.00111195
-0.16537
0.16554
0.00194387
0.165557
0.00276081
0.165529
0.00356184
0.165459
0.004346
0.165347
0.00511225
0.165193
0.00585946
0.165001
0.00658644
0.16477
0.00729184
0.164503
0.00797418
0.164201
0.00863185
0.163868
0.0092629
0.163507
0.00986553
0.163121
0.0104369
0.162717
0.0109769
0.162305
0.01148
0.16189
0.0119599
0.161493
0.0123998
0.161104
0.0128728
0.0133337
0.160982
0.00102447
-0.160894
0.161024
0.0019013
0.161023
0.00276226
0.160978
0.00360635
0.160892
0.00443256
0.160764
0.00523974
0.160597
0.00602671
0.160391
0.00679214
0.160149
0.00753456
0.159871
0.00825225
0.159559
0.00894326
0.159217
0.00960517
0.158847
0.0102354
0.158454
0.0108297
0.158044
0.0113866
0.157629
0.0118952
0.157217
0.0123718
0.156841
0.0127766
0.156482
0.0132311
0.0135877
0.156762
0.000955475
-0.156693
0.156787
0.00187642
0.156769
0.00278024
0.156709
0.00366624
0.156609
0.00453328
0.156468
0.00538017
0.156289
0.00620567
0.156073
0.00700837
0.155821
0.00778665
0.155535
0.00853863
0.155216
0.00926208
0.154867
0.00995415
0.154491
0.0106116
0.154092
0.0112287
0.153676
0.0118024
0.153256
0.0123149
0.152844
0.0127838
0.152489
0.0131321
0.152155
0.0135649
0.0137148
0.152777
0.000902994
-0.152725
0.152787
0.0018664
0.152756
0.00281156
0.152684
0.00373791
0.152573
0.00464415
0.152424
0.0055291
0.152239
0.00639147
0.152017
0.0072298
0.151761
0.00804237
0.151473
0.00882715
0.151153
0.00958176
0.150804
0.010303
0.150429
0.0109872
0.15003
0.0116273
0.149613
0.0122192
0.149191
0.0127373
0.148775
0.0131996
0.148441
0.0134666
0.148148
0.0138577
0.0136632
0.148987
-0.148949
0.000865471
0.148986
0.00186727
0.148946
0.0028518
0.148867
0.00381628
0.148752
0.00475934
0.148601
0.00567991
0.148416
0.00657671
0.148198
0.00744822
0.147947
0.00829265
0.147667
0.00910792
0.147357
0.00989156
0.14702
0.0106402
0.146657
0.0113501
0.146271
0.0120132
0.145865
0.0126253
0.145447
0.0131546
0.145024
0.0136229
0.144673
0.0138174
0.144416
0.0141155
0.0130208
0.254359
7.40722e-05
-0.254433
0.254322
3.63702e-05
0.25429
3.25224e-05
0.254248
4.14419e-05
0.254192
5.5861e-05
0.254119
7.3701e-05
0.254025
9.36591e-05
0.25391
0.000114611
0.253775
0.000135744
0.253618
0.000156549
0.253442
0.000176588
0.253246
0.00019558
0.253032
0.000214018
0.252799
0.000232959
0.252549
0.000250242
0.252283
0.000265414
0.252005
0.000278072
0.251717
0.000288126
0.251427
0.000289717
0.000289721
0.256211
-0.000241367
-0.255896
0.256465
-0.000217447
0.256674
-0.000176563
0.256838
-0.000122802
0.256957
-6.26777e-05
0.257029
1.20531e-06
0.257055
6.77043e-05
0.257034
0.000135728
0.256966
0.000204354
0.25685
0.000272646
0.256687
0.000339362
0.256479
0.000403259
0.25623
0.000463102
0.255932
0.000530463
0.255591
0.000592152
0.255207
0.000649278
0.254783
0.000701704
0.254322
0.000749365
0.253824
0.000787607
0.00082065
0.251641
-0.000897749
-0.250985
0.252225
-0.000800924
0.252742
-0.000694248
0.253198
-0.000577889
0.25359
-0.000455358
0.25392
-0.0003289
0.254188
-0.000199659
0.254392
-6.90456e-05
0.254534
6.2951e-05
0.254611
0.000195762
0.254625
0.00032554
0.254576
0.000451911
0.254462
0.000577172
0.25429
0.000702169
0.254059
0.000823005
0.25377
0.000938832
0.253422
0.00104917
0.253018
0.00115392
0.252554
0.00125113
0.0013436
0.24332
-0.00183294
-0.242385
0.244183
-0.0016634
0.244975
-0.00148658
0.245699
-0.00130175
0.246354
-0.0011106
0.24694
-0.000914913
0.247457
-0.00071605
0.247903
-0.00051527
0.248279
-0.000313263
0.248582
-0.00010726
0.248813
9.45566e-05
0.248976
0.000289181
0.249067
0.000485733
0.24909
0.000679264
0.249044
0.000868715
0.24893
0.00105317
0.248747
0.00123189
0.248497
0.00140451
0.248178
0.00156995
0.00172879
0.233237
-0.0029669
-0.232103
0.234303
-0.00272917
0.2353
-0.00248393
0.236229
-0.00223075
0.237089
-0.00197054
0.237879
-0.0017048
0.238598
-0.00143496
0.239245
-0.00116223
0.239819
-0.000887576
0.240323
-0.000611774
0.240756
-0.000338052
0.241113
-6.78289e-05
0.241398
0.000200971
0.241611
0.000466438
0.241751
0.000728179
0.24182
0.000984754
0.241816
0.00123543
0.241741
0.00147961
0.241594
0.00171648
0.00194597
0.22268
-0.0042273
-0.22142
0.223877
-0.00392626
0.22501
-0.00361615
0.226076
-0.0032971
0.227075
-0.00296994
0.228007
-0.00263608
0.228869
-0.0022971
0.229661
-0.00195447
0.230383
-0.00160961
0.231035
-0.00126389
0.231616
-0.000918865
0.232124
-0.000575819
0.23256
-0.000235618
0.232927
0.000100203
0.233222
0.000433124
0.233444
0.000762032
0.233596
0.00108425
0.233676
0.0013997
0.233684
0.00170776
0.00200819
0.212435
-0.00555656
-0.211105
0.213705
-0.00519641
0.214914
-0.00482507
0.21606
-0.00444318
0.217142
-0.00405179
0.218158
-0.00365252
0.219108
-0.00324716
0.219991
-0.00283747
0.220807
-0.00242508
0.221554
-0.00201146
0.222233
-0.00159801
0.222844
-0.00118614
0.223385
-0.000776648
0.223855
-0.000370269
0.224263
2.53211e-05
0.224599
0.000426415
0.224865
0.000817886
0.225063
0.00120203
0.225192
0.00157878
0.00194774
0.202911
-0.00691292
-0.201555
0.204212
-0.00649698
0.205454
-0.00606745
0.206636
-0.00562535
0.207757
-0.00517218
0.208814
-0.00470993
0.209808
-0.00424075
0.210737
-0.00376664
0.211601
-0.00328945
0.212401
-0.00281079
0.213135
-0.00233215
0.213803
-0.00185488
0.214407
-0.00138006
0.214945
-0.00090865
0.215413
-0.000442014
0.215825
1.37224e-05
0.216166
0.000476983
0.216443
0.000925482
0.216654
0.00136743
0.00180147
0.194268
-0.0082686
-0.192913
0.195571
-0.0077994
0.196817
-0.00731392
0.198005
-0.00681349
0.199133
-0.00630027
0.2002
-0.00577686
0.201205
-0.00524583
0.202148
-0.00470949
0.203029
-0.0041699
0.203847
-0.00362885
0.204602
-0.00308787
0.205296
-0.0025483
0.205927
-0.00201132
0.206496
-0.00147785
0.207004
-0.000949297
0.207444
-0.000426975
0.207831
9.06287e-05
0.208152
0.000604046
0.208412
0.00110732
0.00160273
0.186513
-0.00960684
-0.185175
0.1878
-0.00908635
0.189033
-0.00854639
0.190208
-0.00798868
0.191324
-0.00741637
0.19238
-0.00683289
0.193376
-0.00624132
0.194311
-0.00564434
0.195185
-0.00504425
0.195999
-0.00444294
0.196753
-0.00384198
0.197447
-0.00324269
0.198082
-0.00264623
0.198658
-0.00205354
0.199174
-0.00146563
0.199631
-0.000883423
0.200029
-0.000307637
0.200371
0.000262145
0.200653
0.000824945
0.00137826
0.179575
-0.010919
-0.178263
0.180838
-0.0103489
0.182046
-0.00975524
0.183198
-0.00914046
0.184291
-0.00850926
0.185324
-0.00786614
0.186298
-0.00721475
0.187212
-0.00655817
0.188066
-0.00589894
0.188862
-0.00523901
0.1896
-0.00457994
0.190281
-0.003923
0.190904
-0.00326924
0.19147
-0.00261961
0.191979
-0.00197493
0.192432
-0.0013361
0.192828
-0.000703607
0.19317
-8.0404e-05
0.193456
0.000538858
0.00114737
0.173348
-0.0122019
-0.172065
0.174584
-0.011584
0.175765
-0.0109368
0.176889
-0.0102644
0.177954
-0.00957381
0.178958
-0.00887087
0.179903
-0.00815987
0.18079
-0.00744429
0.181618
-0.00672685
0.182388
-0.00600952
0.183102
-0.00529377
0.18376
-0.00458075
0.184362
-0.00387142
0.184909
-0.00316664
0.185401
-0.0024672
0.185839
-0.0017739
0.186223
-0.00108751
0.186552
-0.000409592
0.186831
0.000260028
0.000923145
0.167724
-0.0134566
-0.16647
0.168933
-0.0127932
0.170088
-0.0120917
0.171184
-0.0113601
0.172219
-0.010609
0.173194
-0.00984557
0.174109
-0.00907467
0.174965
-0.00830027
0.175763
-0.00752518
0.176505
-0.00675128
0.177191
-0.00597986
0.177822
-0.00521192
0.178399
-0.00444831
0.178922
-0.00368976
0.179392
-0.00293701
0.179809
-0.00219085
0.180173
-0.00145176
0.180484
-0.000720478
0.180748
-3.77274e-06
0.000713949
0.162603
-0.0146867
-0.161372
0.163791
-0.0139812
0.164922
-0.0132233
0.165992
-0.01243
0.167
-0.0116167
0.167946
-0.0107912
0.16883
-0.00995958
0.169656
-0.00912608
0.170425
-0.0082935
0.171137
-0.00746347
0.171794
-0.00663707
0.172397
-0.00581507
0.172947
-0.0049981
0.173444
-0.00418681
0.173889
-0.00338183
0.174282
-0.00258392
0.174624
-0.00179371
0.174916
-0.00101252
0.175154
-0.000242164
0.000521402
0.157901
-0.015899
-0.156688
0.159075
-0.0151555
0.160189
-0.0143375
0.161238
-0.0134786
0.162221
-0.0125997
0.163139
-0.0117098
0.163995
-0.0108157
0.164792
-0.00992228
0.16553
-0.00903198
0.166213
-0.00814605
0.166841
-0.00726515
0.167415
-0.00638975
0.167937
-0.00552022
0.168408
-0.00465704
0.168827
-0.00380077
0.169195
-0.00295209
0.169513
-0.00211176
0.169781
-0.00128072
0.169999
-0.000460101
0.000350349
0.153555
-0.017106
-0.152348
0.154726
-0.0163265
0.15583
-0.0154409
0.156862
-0.0145105
0.157822
-0.0135606
0.158714
-0.0126018
0.159542
-0.0116428
0.160308
-0.0106883
0.161016
-0.00974
0.161668
-0.00879843
0.162267
-0.00786368
0.162812
-0.00693568
0.163307
-0.00601448
0.16375
-0.00510034
0.164143
-0.0041937
0.164486
-0.00329518
0.16478
-0.00240551
0.165025
-0.00152552
0.165221
-0.00065641
0.000200846
0.149521
-0.0183368
-0.14829
0.150704
-0.0175096
0.151803
-0.01654
0.152821
-0.0155283
0.153758
-0.0144979
0.154621
-0.0134641
0.155415
-0.0124377
0.156149
-0.0114215
0.156824
-0.0104155
0.157445
-0.00941924
0.158013
-0.00843186
0.15853
-0.00745255
0.158996
-0.00648092
0.159413
-0.00551698
0.15978
-0.00456105
0.160099
-0.00361368
0.160369
-0.00267561
0.160591
-0.00174772
0.160766
-0.000830996
7.22162e-05
0.145768
-0.0196561
-0.144449
0.146985
-0.0187265
0.14808
-0.0176354
0.149079
-0.0165266
0.149984
-0.0154033
0.150809
-0.0142886
0.151565
-0.0131938
0.152261
-0.0121172
0.152901
-0.0110557
0.153489
-0.0100071
0.154026
-0.00896926
0.154514
-0.00794056
0.154953
-0.00692014
0.155344
-0.00590782
0.155687
-0.00490383
0.155982
-0.00390873
0.15623
-0.00292329
0.15643
-0.00194856
0.156585
-0.00098554
-3.61623e-05
0.142313
-0.0211336
-0.140835
0.143561
-0.0199746
0.144634
-0.0187088
0.145591
-0.0174829
0.146448
-0.0162602
0.147223
-0.0150644
0.147934
-0.0139045
0.148589
-0.012772
0.149192
-0.0116594
0.149747
-0.0105621
0.150255
-0.0094767
0.150715
-0.00840092
0.151129
-0.00733356
0.151495
-0.00627438
0.151815
-0.00522367
0.152088
-0.00418203
0.152315
-0.00315034
0.152497
-0.00212976
0.152633
-0.00112178
-0.000127961
0.139224
-0.137807
-0.022551
0.140386
-0.0211359
0.141419
-0.0197421
0.142296
-0.0183595
0.143085
-0.0170491
0.143808
-0.0157878
0.144473
-0.0145693
0.145087
-0.0133865
0.145656
-0.0122282
0.14618
-0.0110862
0.14666
-0.00995615
0.147094
-0.00883534
0.147483
-0.00772267
0.147827
-0.00661803
0.148125
-0.00552189
0.148378
-0.00443504
0.148586
-0.00335845
0.14875
-0.00229313
0.148869
-0.00124065
-0.000208504
0.0308112
0.112016
-0.110533
-0.0322942
0.0293008
0.115021
-0.11351
0.0277605
0.118158
-0.116618
0.0261866
0.121451
-0.119877
0.0245758
0.124933
-0.123322
0.0229253
0.128645
-0.126995
0.0212332
0.132646
-0.130954
0.0194979
0.137014
-0.135279
0.0177188
0.141855
-0.140076
0.0158963
0.147298
-0.145476
0.0140322
0.153506
-0.151641
0.0121306
0.160663
-0.158762
0.0102005
0.168973
-0.167043
0.00825857
0.178622
-0.17668
0.00633468
0.189734
-0.18781
0.00447897
0.202273
-0.200417
0.00277118
0.215902
-0.214194
0.00133176
0.229766
-0.228326
0.000329995
0.242083
-0.241081
0.249721
-0.249391
0.0306227
0.113492
-0.0320982
0.0291199
0.116523
0.0275873
0.119691
0.0260214
0.123017
0.0244188
0.126535
0.0227767
0.130287
0.0210929
0.13433
0.0193658
0.138742
0.0175946
0.143626
0.0157797
0.149113
0.013923
0.155362
0.0120291
0.162557
0.0101073
0.170894
0.00817532
0.180554
0.00626405
0.191645
0.00442516
0.204112
0.00273988
0.217587
0.00132812
0.231177
0.000353769
0.243057
0.250075
0.0303922
0.114957
-0.031858
0.0288992
0.118016
0.0273766
0.121213
0.0258209
0.124573
0.0242288
0.128128
0.0225972
0.131919
0.0209238
0.136003
0.0192071
0.140458
0.0174462
0.145387
0.0156413
0.150918
0.0137945
0.157209
0.0119107
0.164441
0.00999971
0.172805
0.00807999
0.182474
0.00618349
0.193542
0.00436285
0.205933
0.00269984
0.21925
0.00131273
0.232565
0.000356855
0.244013
0.250431
0.0301215
0.116411
-0.0315754
0.0286405
0.119497
0.02713
0.122724
0.0255866
0.126116
0.0240068
0.129707
0.0223877
0.133538
0.020727
0.137664
0.0190228
0.142163
0.0172742
0.147136
0.0154815
0.152711
0.0136469
0.159044
0.0117754
0.166313
0.00987755
0.174703
0.00797229
0.184379
0.00609244
0.195422
0.0042914
0.207734
0.00265105
0.220891
0.00128803
0.233928
0.000351802
0.244949
0.250783
0.0298128
0.117852
-0.031253
0.0283456
0.120965
0.0268491
0.12422
0.0253198
0.127646
0.0237542
0.131273
0.0221495
0.135142
0.0205032
0.13931
0.0188134
0.143852
0.0170792
0.14887
0.0153008
0.154489
0.0134804
0.160864
0.0116235
0.168169
0.00974087
0.176586
0.00785219
0.186268
0.00599102
0.197283
0.0042114
0.209513
0.00259527
0.222507
0.00125761
0.235265
0.000342894
0.245864
0.251126
0.0294686
0.119277
-0.0308935
0.0280168
0.122416
0.0265358
0.125701
0.0250222
0.129159
0.0234725
0.132823
0.0218837
0.136731
0.0202535
0.14094
0.0185799
0.145526
0.0168618
0.150588
0.0150996
0.156251
0.0132955
0.162668
0.0114552
0.17001
0.00958989
0.178451
0.00771993
0.188138
0.00587957
0.199123
0.00412348
0.211269
0.00253351
0.224097
0.00122284
0.236576
0.000331301
0.246755
0.251457
0.0290917
0.120685
-0.0305003
0.0276564
0.123852
0.0261922
0.127165
0.0246955
0.130656
0.023163
0.134355
0.0215916
0.138302
0.0199789
0.142553
0.018323
0.147182
0.0166228
0.152288
0.0148785
0.157996
0.0130925
0.164454
0.0112708
0.171831
0.00942491
0.180297
0.00757581
0.189987
0.00575844
0.200941
0.004028
0.213
0.00246617
0.225659
0.00118428
0.237858
0.000317728
0.247622
0.251775
0.028685
0.122077
-0.0300767
0.027267
0.12527
0.0258203
0.128612
0.0243415
0.132135
0.022827
0.13587
0.0212741
0.139855
0.0196803
0.144147
0.0180434
0.148819
0.0163626
0.153969
0.0146379
0.15972
0.0128718
0.16622
0.0110706
0.173633
0.00924621
0.182121
0.00742009
0.191813
0.00562788
0.202733
0.00392525
0.214702
0.00239362
0.22719
0.00114245
0.239109
0.000302778
0.248462
0.252078
0.0282515
0.123451
-0.0296261
0.0268508
0.12667
0.025422
0.130041
0.0239615
0.133595
0.0224659
0.137365
0.0209324
0.141389
0.0193584
0.145721
0.0177418
0.150435
0.0160817
0.155629
0.0143782
0.161424
0.0126338
0.167965
0.010855
0.175412
0.00905404
0.183922
0.00725303
0.193614
0.00548816
0.204498
0.00381554
0.216375
0.00231624
0.22869
0.00109782
0.240327
0.000286867
0.249273
0.252365
0.0277937
0.12481
-0.0291521
0.02641
0.128054
0.024999
0.131452
0.0235569
0.135037
0.0220806
0.138842
0.020567
0.142902
0.0190137
0.147274
0.0174186
0.15203
0.0157805
0.157267
0.0140996
0.163105
0.0123787
0.169686
0.0106241
0.177166
0.00884861
0.185698
0.00707483
0.195388
0.00533953
0.206233
0.00369916
0.218015
0.00223437
0.230154
0.00105076
0.241511
0.000270241
0.250053
0.252635
0.0273143
0.126153
-0.0286579
0.0259463
0.129422
0.0245523
0.132846
0.0231284
0.136461
0.0216714
0.140299
0.0201783
0.144396
0.0186464
0.148806
0.0170738
0.153603
0.0154591
0.158882
0.0138024
0.164761
0.0121065
0.171381
0.010378
0.178895
0.00863006
0.187446
0.00688569
0.197132
0.00518222
0.207936
0.00357638
0.219621
0.00214833
0.231582
0.00100155
0.242658
0.00025306
0.250802
0.252888
0.0268147
0.127485
-0.0281461
0.0254606
0.130776
0.0240824
0.134224
0.0226761
0.137868
0.0212383
0.141737
0.019766
0.145868
0.0182564
0.150315
0.0167073
0.155152
0.0151173
0.160472
0.0134863
0.166392
0.0118172
0.173051
0.0101168
0.180595
0.0083985
0.189164
0.00668576
0.198845
0.00501643