/*--------------------------------*- C++ -*----------------------------------*\
| =========                 |                                                 |
| \\      /  F ield         | OpenFOAM: The Open Source CFD Toolbox           |
|  \\    /   O peration     | Version:  v1912                                 |
|   \\  /    A nd           | Website:  www.openfoam.com                      |
|    \\/     M anipulation  |                                                 |
\*---------------------------------------------------------------------------*/
FoamFile
{
    version     2.0;
    format      ascii;
    class       volVectorField;
    location    "45";
    object      U;
}
// * * * * * * * * * * * * * * * * * * * * * * * * * * * * * * * * * * * * * //

dimensions      [0 1 -1 0 0 0 0];


internalField   nonuniform List<vector> 
9600
(
(0.456556 -9.36201 -1.54136e-19)
(0.159741 -8.63303 0)
(0.24193 -8.16024 -9.05085e-20)
(0.320664 -7.84106 0)
(0.387958 -7.60584 0)
(0.456338 -7.41108 -3.18444e-20)
(0.521826 -7.23272 -5.49733e-22)
(0.581284 -7.05856 2.66189e-20)
(0.63394 -6.88324 0)
(0.679824 -6.70534 -4.51338e-20)
(0.719327 -6.52547 0)
(0.753073 -6.34517 -1.83007e-21)
(0.781802 -6.16626 -2.6071e-21)
(0.806268 -5.99043 -3.15375e-20)
(0.827194 -5.81907 2.65975e-20)
(0.845236 -5.65314 -2.61312e-20)
(0.860944 -5.49313 2.32661e-20)
(0.874865 -5.33894 0)
(0.887778 -5.18983 -1.85071e-20)
(0.899414 -5.04427 2.02874e-20)
(0.824503 -9.35161 -3.08365e-19)
(0.502224 -8.6611 1.17584e-20)
(0.567616 -8.20452 1.86437e-19)
(0.634846 -7.89484 -1.58906e-19)
(0.69313 -7.66422 1.56713e-19)
(0.753469 -7.46995 0)
(0.811081 -7.2893 6.07381e-20)
(0.862492 -7.11113 -6.05986e-20)
(0.906855 -6.93093 -1.0511e-19)
(0.944258 -6.74783 1.32944e-19)
(0.975202 -6.56285 -8.63153e-20)
(1.00044 -6.37781 -3.52392e-20)
(1.02081 -6.19464 7.11305e-20)
(1.03717 -6.01511 0)
(1.0503 -5.84064 0)
(1.0609 -5.67217 9.97048e-20)
(1.06951 -5.51017 -1.69046e-19)
(1.07672 -5.35448 0)
(1.08336 -5.20423 0)
(1.08893 -5.0578 -7.81373e-20)
(1.19279 -9.32767 6.37123e-19)
(0.846976 -8.67632 0)
(0.896854 -8.23613 -3.77237e-19)
(0.95332 -7.93605 -3.41924e-19)
(1.0029 -7.71001 0)
(1.05517 -7.51619 5.46424e-19)
(1.10468 -7.33324 -5.15869e-19)
(1.14769 -7.15119 1.01121e-19)
(1.18336 -6.96629 -2.25116e-19)
(1.21186 -6.77827 -3.74378e-19)
(1.23385 -6.58854 5.11064e-19)
(1.25022 -6.39913 -3.15984e-19)
(1.26193 -6.21212 -1.41615e-19)
(1.26992 -6.02933 0)
(1.27504 -5.85216 5.52663e-21)
(1.27802 -5.68158 1.05096e-19)
(1.27943 -5.51799 4.54312e-20)
(1.27983 -5.3612 0)
(1.28016 -5.2102 8.23565e-20)
(1.27955 -5.06331 8.44072e-20)
(1.56031 -9.28983 -8.61942e-19)
(1.19341 -8.67839 -4.0391e-19)
(1.22909 -8.25485 3.91771e-19)
(1.27552 -7.96437 6.73272e-19)
(1.31668 -7.74283 -3.26775e-19)
(1.36085 -7.54941 5.79982e-21)
(1.402 -7.36421 2.53745e-19)
(1.43627 -7.1784 2.29833e-19)
(1.46283 -6.98905 4.20936e-19)
(1.48204 -6.79644 0)
(1.4947 -6.60234 1.62162e-19)
(1.50187 -6.409 -1.72097e-19)
(1.50463 -6.21859 1.03509e-20)
(1.50403 -6.03298 2.71286e-19)
(1.50096 -5.85358 2.32574e-19)
(1.49619 -5.6813 -3.28314e-19)
(1.49028 -5.51654 1.08123e-19)
(1.48383 -5.35904 -1.76056e-19)
(1.47782 -5.20768 1.75224e-19)
(1.47097 -5.06077 -8.44509e-20)
(1.92677 -9.23802 4.34698e-19)
(1.54123 -8.66717 0)
(1.56392 -8.26042 3.84739e-19)
(1.60095 -7.97947 0)
(1.63392 -7.76233 0)
(1.6699 -7.56927 -3.00338e-19)
(1.70244 -7.38189 -5.37357e-19)
(1.72759 -7.19249 -4.55611e-19)
(1.74466 -6.99897 1.84487e-20)
(1.75418 -6.80213 -1.96881e-19)
(1.75716 -6.60408 0)
(1.75483 -6.40726 -1.62573e-19)
(1.7484 -6.21394 -2.92861e-19)
(1.73899 -6.02598 2.57544e-19)
(1.72758 -5.8448 -7.31923e-19)
(1.71494 -5.67127 1.1845e-19)
(1.70165 -5.50576 9.38851e-20)
(1.68832 -5.34795 -1.93596e-19)
(1.67598 -5.19663 -8.45893e-20)
(1.66286 -5.05012 2.52241e-19)
(2.2916 -9.17215 4.19462e-19)
(1.88994 -8.64242 4.1599e-19)
(1.90081 -8.25254 0)
(1.92904 -7.98102 0)
(1.95401 -7.76817 -6.24357e-19)
(1.98171 -7.57546 3.4124e-19)
(2.00535 -7.38598 8.21218e-19)
(2.02101 -7.19321 0)
(2.0282 -6.99584 2.17017e-19)
(2.02767 -6.79517 1.96882e-19)
(2.02065 -6.59363 -3.47833e-19)
(2.00853 -6.39383 5.04414e-19)
(1.99268 -6.19808 1.48017e-19)
(1.9743 -6.00827 0)
(1.95442 -5.82578 1.23217e-19)
(1.93384 -5.65145 5.53114e-19)
(1.91312 -5.48561 -3.29585e-19)
(1.89291 -5.3279 3.70346e-19)
(1.87427 -5.177 -7.0424e-19)
(1.85488 -5.03135 8.14133e-19)
(2.6543 -9.0922 4.26607e-19)
(2.23903 -8.60395 -2.25896e-18)
(2.23925 -8.23094 0)
(2.2592 -7.96873 0)
(2.27632 -7.76006 0)
(2.29561 -7.56768 -6.0567e-19)
(2.31006 -7.37623 0)
(2.31588 -7.18035 -9.70795e-19)
(2.31281 -6.97948 8.95464e-19)
(2.30188 -6.77543 -8.31675e-19)
(2.28455 -6.57089 0)
(2.26241 -6.36862 0)
(2.23694 -6.17097 0)
(2.20945 -5.97982 -2.81401e-19)
(2.181 -5.7965 0)
(2.15241 -5.62182 0)
(2.12425 -5.45608 -4.13031e-19)
(2.09717 -5.29887 4.05816e-19)
(2.0723 -5.14878 0)
(2.04665 -5.00445 0)
(3.0143 -8.99816 -1.38785e-18)
(2.58796 -8.55158 8.99333e-19)
(2.57863 -8.1954 0)
(2.59083 -7.94231 0)
(2.60022 -7.73771 0)
(2.61094 -7.54568 5.76082e-19)
(2.6159 -7.35242 -5.77832e-19)
(2.61152 -7.15373 -8.88975e-21)
(2.59783 -6.94977 -8.96594e-19)
(2.57618 -6.7428 8.39498e-19)
(2.54827 -6.53579 -3.78726e-19)
(2.51587 -6.33159 6.58558e-19)
(2.48063 -6.13259 -4.64057e-20)
(2.4439 -5.94061 -5.95764e-19)
(2.40682 -5.75695 -5.02129e-19)
(2.37019 -5.58238 4.93327e-19)
(2.33458 -5.41717 0)
(2.30068 -5.26087 0)
(2.26964 -5.11198 3.56988e-19)
(2.23781 -4.96942 -3.9286e-19)
(3.37106 -8.89008 9.27595e-19)
(2.93616 -8.48519 8.83552e-19)
(2.91837 -8.14568 -1.67471e-18)
(2.92328 -7.90154 7.91079e-19)
(2.92502 -7.7009 0)
(2.927 -7.50926 6.16442e-19)
(2.92216 -7.31439 -5.41164e-19)
(2.90723 -7.11321 1.52938e-18)
(2.88259 -6.90659 -2.36922e-20)
(2.84991 -6.69722 0)
(2.81117 -6.48829 7.64134e-19)
(2.76834 -6.28273 0)
(2.72319 -6.08292 0)
(2.67715 -5.89066 -2.72545e-19)
(2.63137 -5.70716 5.49693e-19)
(2.58669 -5.53316 0)
(2.54365 -5.3689 4.31169e-19)
(2.50299 -5.21391 1.79498e-19)
(2.46587 -5.06661 -3.89452e-19)
(2.42794 -4.92629 3.78163e-19)
(3.72402 -8.76801 -9.55403e-19)
(3.28303 -8.40465 8.97962e-19)
(3.25785 -8.0816 -2.55742e-18)
(3.2559 -7.84619 8.04201e-19)
(3.25004 -7.64942 0)
(3.24308 -7.45824 -1.24422e-18)
(3.22814 -7.26199 5.97714e-19)
(3.20232 -7.05869 0)
(3.16641 -6.84989 -4.74552e-19)
(3.12243 -6.63866 -8.23094e-19)
(3.07264 -6.42838 -7.17231e-19)
(3.01923 -6.22204 5.34445e-20)
(2.96406 -6.022 6.70821e-19)
(2.90864 -5.82999 2.72321e-19)
(2.85415 -5.64716 -3.79404e-20)
(2.80141 -5.47419 -5.12812e-19)
(2.75098 -5.31131 -2.29367e-19)
(2.70362 -5.15802 -2.06787e-19)
(2.66053 -5.01271 5.5163e-19)
(2.61663 -4.8751 -8.21998e-19)
(4.07261 -8.63203 9.55406e-19)
(3.62799 -8.30991 -4.66481e-20)
(3.59642 -8.00304 8.22086e-19)
(3.588 -7.77612 0)
(3.57456 -7.58312 -6.80624e-19)
(3.55847 -7.39249 1.30783e-18)
(3.53312 -7.19513 -1.11794e-18)
(3.49608 -6.99012 1.10013e-18)
(3.4486 -6.77963 -4.45773e-19)
(3.39308 -6.56711 9.04918e-19)
(3.33207 -6.35607 3.91884e-19)
(3.26794 -6.14955 0)
(3.20268 -5.94986 0)
(3.13784 -5.75865 -2.8237e-19)
(3.07463 -5.577 3.83583e-20)
(3.01386 -5.40552 1.00986e-18)
(2.95607 -5.24444 -2.49844e-19)
(2.90208 -5.09325 8.25197e-19)
(2.85313 -4.95029 1.44428e-19)
(2.80341 -4.81588 -8.39533e-19)
(4.41628 -8.48225 -2.9398e-18)
(3.97042 -8.20092 -9.86838e-19)
(3.93344 -7.90987 -2.63149e-18)
(3.9189 -7.69117 -1.60086e-18)
(3.89787 -7.50187 -7.59347e-19)
(3.87243 -7.31192 -7.42162e-19)
(3.83638 -7.11374 -2.42274e-18)
(3.78782 -6.90745 -4.90684e-20)
(3.7285 -6.69582 -1.94678e-18)
(3.66123 -6.48259 3.0225e-20)
(3.58884 -6.27141 -8.08287e-19)
(3.5139 -6.06531 -7.36546e-19)
(3.43849 -5.86656 6.7237e-19)
(3.36422 -5.6767 -6.14898e-19)
(3.2923 -5.49673 -5.63351e-19)
(3.22353 -5.32721 -5.17031e-19)
(3.15842 -5.16836 -1.38827e-18)
(3.09788 -5.01964 4.93908e-19)
(3.04318 -4.87941 1.19863e-18)
(2.98781 -4.74866 -1.27571e-18)
(4.75449 -8.31882 3.95425e-18)
(4.30974 -8.07768 4.85783e-18)
(4.26825 -7.80203 8.34494e-19)
(4.24789 -7.59128 3.99837e-18)
(4.21924 -7.40559 -7.83673e-19)
(4.18424 -7.21647 3.91586e-18)
(4.13719 -7.01781 1.1455e-18)
(4.07683 -6.81072 3.21583e-18)
(4.00543 -6.5985 -9.82957e-19)
(3.92622 -6.38516 2.7216e-18)
(3.84233 -6.17446 1.62809e-18)
(3.75651 -5.9694 1.48374e-18)
(3.67093 -5.77217 -2.00881e-18)
(3.58724 -5.58422 1.88179e-18)
(3.50663 -5.40643 1.13539e-18)
(3.42989 -5.23933 1.04226e-18)
(3.35752 -5.08311 9.58387e-19)
(3.29048 -4.93725 7.36337e-21)
(3.23016 -4.80012 8.13554e-19)
(3.16934 -4.67349 8.46669e-19)
(5.0867 -8.14189 -2.93644e-18)
(4.64534 -7.94024 1.08222e-18)
(4.60021 -7.67948 2.67727e-18)
(4.57428 -7.47638 -3.26178e-18)
(4.53795 -7.29426 7.53721e-19)
(4.49316 -7.10614 -2.61983e-18)
(4.43484 -6.90737 1.28402e-18)
(4.36241 -6.69996 -2.15173e-18)
(4.27873 -6.48773 4.9031e-20)
(4.18743 -6.27491 1.19448e-20)
(4.09196 -6.0653 -1.65057e-18)
(3.99521 -5.86189 -7.47198e-19)
(3.89945 -5.66676 1.37393e-18)
(3.80636 -5.48126 8.75755e-21)
(3.7171 -5.30616 -3.7185e-20)
(3.63241 -5.14193 -1.08782e-18)
(3.55281 -4.98876 -4.83077e-19)
(3.47934 -4.84612 -2.71413e-20)
(3.41349 -4.71246 -8.47894e-19)
(3.34745 -4.59049 -4.27581e-19)
(5.41242 -7.95164 0)
(4.97664 -7.78862 -1.99967e-18)
(4.92864 -7.54222 2.3736e-20)
(4.89735 -7.34645 3.25729e-18)
(4.85325 -7.16787 1.36337e-18)
(4.79845 -6.98096 -1.41914e-18)
(4.72861 -6.78247 -1.22257e-18)
(4.64389 -6.57528 0)
(4.54774 -6.36362 -9.73178e-19)
(4.44425 -6.15194 9.28779e-19)
(4.33713 -5.94405 -3.90664e-20)
(4.22945 -5.74288 0)
(4.12354 -5.55042 -6.91668e-19)
(4.02106 -5.36789 5.99121e-19)
(3.92316 -5.19597 5.0053e-19)
(3.83055 -5.03504 -6.04234e-19)
(3.74372 -4.88531 -5.24194e-19)
(3.6638 -4.74625 9.10288e-19)
(3.59243 -4.61644 -8.40087e-19)
(3.52129 -4.49972 4.42184e-19)
(5.73117 -7.74827 3.03385e-18)
(5.30306 -7.62292 -2.0595e-18)
(5.25289 -7.39026 -1.75768e-18)
(5.2164 -7.20153 8.18363e-19)
(5.16443 -7.02647 -1.58769e-18)
(5.0994 -6.84102 0)
(5.01779 -6.64323 0)
(4.92058 -6.43679 0)
(4.81183 -6.22632 -4.44691e-20)
(4.69608 -6.01639 -1.86397e-18)
(4.5773 -5.81084 8.80329e-19)
(4.45871 -5.6125 7.4454e-19)
(4.34268 -5.42325 6.30055e-19)
(4.23087 -5.24419 -2.58547e-18)
(4.12437 -5.0759 1.22574e-18)
(4.02383 -4.91867 0)
(3.92971 -4.77272 -3.04235e-20)
(3.84324 -4.63757 -1.41186e-18)
(3.76617 -4.51196 -5.69558e-21)
(3.68989 -4.40084 -4.42674e-19)
(6.0426 -7.53203 -2.06358e-18)
(5.62405 -7.44327 -1.0858e-18)
(5.57227 -7.22367 8.18161e-19)
(5.5307 -7.04168 -1.43922e-19)
(5.47075 -6.87016 -4.62831e-18)
(5.39526 -6.68643 4.18873e-18)
(5.30169 -6.48979 -4.88076e-20)
(5.19182 -6.28466 1.14728e-18)
(5.07039 -6.07598 1.02937e-18)
(4.94235 -5.86843 9.45196e-19)
(4.81194 -5.66581 8.60135e-19)
(4.68249 -5.47086 1.5372e-18)
(4.55642 -5.28534 -7.39876e-19)
(4.43535 -5.11023 1.91787e-18)
(4.3203 -4.946 -1.23987e-18)
(4.21187 -4.79289 -5.12914e-19)
(4.11045 -4.65111 2.06017e-18)
(4.01732 -4.52019 1.37641e-18)
(3.93443 -4.39892 -2.79546e-20)
(3.85322 -4.29317 0)
(6.34667 -7.30342 -1.04924e-18)
(5.93922 -7.24984 2.07501e-18)
(5.88613 -7.04252 1.81667e-18)
(5.83952 -6.86695 -1.45899e-19)
(5.77145 -6.69902 -1.57033e-18)
(5.68532 -6.51733 7.06698e-20)
(5.57959 -6.32233 1.31701e-20)
(5.45697 -6.11909 1.17347e-20)
(5.32281 -5.91283 0)
(5.1825 -5.70827 9.2447e-19)
(5.04053 -5.50915 -1.75959e-18)
(4.90032 -5.3181 -7.52988e-19)
(4.76428 -5.13677 7.47521e-19)
(4.63399 -4.96603 -6.5591e-19)
(4.51043 -4.80626 6.07481e-19)
(4.39408 -4.6577 -5.53026e-19)
(4.28537 -4.52053 4.89823e-21)
(4.18566 -4.39415 -4.69829e-19)
(4.09721 -4.27726 -4.34016e-19)
(4.01184 -4.17755 -4.34311e-19)
(6.64375 -7.06292 0)
(6.24831 -7.04256 -1.01172e-18)
(6.19381 -6.84672 1.00011e-18)
(6.14209 -6.67742 1.7449e-18)
(6.06579 -6.51323 -1.57901e-18)
(5.96885 -6.33397 1.36408e-18)
(5.85084 -6.14113 -2.62283e-18)
(5.7154 -5.94039 -2.32917e-18)
(5.56855 -5.73716 -1.01611e-18)
(5.41607 -5.53617 4.44166e-20)
(5.26266 -5.34107 -8.41418e-19)
(5.11181 -5.15438 3.49184e-20)
(4.96591 -4.97759 0)
(4.82642 -4.81149 -1.28662e-18)
(4.69417 -4.6564 6.56602e-19)
(4.56956 -4.5126 0)
(4.45305 -4.38017 -5.14231e-19)
(4.34621 -4.25828 -9.24538e-19)
(4.2513 -4.14654 9.08452e-19)
(4.16074 -4.05757 4.48444e-19)
(6.93341 -6.80973 0)
(6.55069 -6.82073 0)
(6.49459 -6.63621 -1.85523e-18)
(6.43767 -6.47337 -1.5952e-18)
(6.35308 -6.3132 3.23768e-18)
(6.24523 -6.13677 0)
(6.11486 -5.94664 0)
(5.96662 -5.74899 1.17014e-18)
(5.80717 -5.5494 0)
(5.64269 -5.35255 0)
(5.47808 -5.16197 0)
(5.31686 -4.98001 0)
(5.16132 -4.80801 0)
(5.01279 -4.64662 0)
(4.87183 -4.4961 0)
(4.73857 -4.35662 0)
(4.61325 -4.22803 0)
(4.49696 -4.10968 0)
(4.38982 -4.00464 0)
(4.28569 -3.93018 0)
(10.0432 0.0877382 1.47303e-19)
(10.0227 -0.307639 2.86601e-19)
(9.98689 -0.700339 -2.94358e-19)
(9.93637 -1.09022 5.86891e-19)
(9.87086 -1.47694 -5.8689e-19)
(9.79022 -1.86 -5.54595e-19)
(9.69456 -2.23886 -5.53048e-19)
(9.5841 -2.61296 1.74176e-18)
(9.45906 -2.98177 -1.16044e-18)
(9.3197 -3.34472 1.15072e-18)
(9.1663 -3.70128 -1.15072e-18)
(8.99919 -4.0509 1.14222e-18)
(8.81867 -4.39308 -2.26513e-18)
(8.62511 -4.7273 3.3357e-18)
(8.41886 -5.05308 0)
(8.20033 -5.36997 -3.27722e-18)
(7.96991 -5.67756 1.63386e-20)
(7.72811 -5.97547 3.30269e-18)
(7.47504 -6.26355 0)
(7.21238 -6.54113 0)
(10.1198 -0.210724 0)
(10.0785 -0.606809 -1.50411e-20)
(10.0205 -0.999094 0)
(9.94632 -1.38724 5.61603e-19)
(9.8563 -1.77082 5.84844e-19)
(9.75063 -2.14924 -1.69271e-18)
(9.62958 -2.52185 2.94698e-18)
(9.49351 -2.88804 -1.16335e-18)
(9.34279 -3.2472 -1.10893e-18)
(9.17782 -3.59876 -1.1044e-18)
(8.99901 -3.94214 4.45706e-20)
(8.80679 -4.27679 1.13155e-18)
(8.60165 -4.60219 -5.6253e-18)
(8.38404 -4.91786 -1.17968e-18)
(8.15447 -5.22331 2.24778e-18)
(7.91345 -5.51813 2.24478e-18)
(7.66145 -5.80192 1.14049e-18)
(7.39905 -6.07435 -2.19919e-18)
(7.12635 -6.33516 1.04144e-18)
(6.84429 -6.58401 0)
(10.0712 -0.149238 1.3264e-19)
(10.0334 -0.540878 -2.71627e-19)
(9.97824 -0.929342 7.84396e-19)
(9.90607 -1.31394 -5.55709e-19)
(9.81729 -1.69401 -5.29849e-19)
(9.71227 -2.06885 5.53197e-19)
(9.59139 -2.43773 0)
(9.45503 -2.79996 0)
(9.30362 -3.15487 2.1005e-18)
(9.13762 -3.50182 3.13357e-18)
(8.95749 -3.84018 -9.91074e-19)
(8.76373 -4.16938 3.09859e-18)
(8.55685 -4.48883 -9.86904e-19)
(8.33741 -4.79802 -3.01807e-18)
(8.10595 -5.09644 1.36128e-20)
(7.86303 -5.38361 1.93727e-18)
(7.60919 -5.65911 -8.74423e-19)
(7.34504 -5.92253 -1.90592e-18)
(7.07089 -6.17349 -1.02949e-18)
(6.78749 -6.41149 1.87313e-18)
(9.90494 -0.11253 0)
(9.87393 -0.494933 2.29e-19)
(9.82565 -0.874989 2.28058e-19)
(9.76028 -1.2518 -9.36949e-19)
(9.67814 -1.62457 0)
(9.57959 -1.99252 0)
(9.46498 -2.35488 0)
(9.33468 -2.71091 0)
(9.18911 -3.05989 -9.91493e-19)
(9.02872 -3.40113 -9.87729e-19)
(8.85398 -3.73396 0)
(8.66541 -4.05775 1.86746e-18)
(8.46351 -4.37189 -4.61714e-18)
(8.24886 -4.67579 3.71261e-18)
(8.02202 -4.96891 -3.59848e-18)
(7.78357 -5.25073 -8.73174e-19)
(7.53409 -5.52074 1.56452e-19)
(7.27421 -5.77849 1.54857e-19)
(7.00442 -6.02352 -1.77835e-18)
(6.72548 -6.25533 -7.08868e-20)
(9.6518 -0.0990513 0)
(9.6282 -0.469222 -2.25845e-19)
(9.58776 -0.837702 0)
(9.53055 -1.20359 4.51814e-19)
(9.4568 -1.56605 4.30695e-19)
(9.3668 -1.92428 3.93753e-19)
(9.26087 -2.27751 0)
(9.13933 -2.62497 0)
(9.00257 -2.96592 0)
(8.85099 -3.29965 0)
(8.68505 -3.62545 8.13386e-19)
(8.50522 -3.94267 8.76326e-19)
(8.31202 -4.25065 8.71331e-19)
(8.10598 -4.54878 -8.84654e-19)
(7.88765 -4.83647 -1.52248e-18)
(7.65763 -5.11315 1.72826e-18)
(7.4165 -5.3783 3.35075e-18)
(7.16488 -5.63138 1.6298e-18)
(6.90335 -5.8719 0)
(6.63261 -6.09936 -1.53604e-18)
(9.34474 -0.0902486 4.64186e-20)
(9.32811 -0.446243 0)
(9.29526 -0.801119 -7.60685e-19)
(9.24621 -1.15402 1.82974e-23)
(9.1811 -1.50413 1.61726e-20)
(9.10017 -1.85065 -6.85287e-20)
(9.00368 -2.19282 0)
(8.89192 -2.52986 3.0931e-20)
(8.76521 -2.86105 -7.72228e-19)
(8.62393 -3.18565 1.50456e-18)
(8.46848 -3.50297 -1.56888e-18)
(8.29929 -3.81232 8.57109e-19)
(8.11684 -4.11306 -4.49272e-18)
(7.92164 -4.40454 2.96322e-18)
(7.71421 -4.68614 1.57078e-18)
(7.49511 -4.95729 0)
(7.26492 -5.21741 -2.89936e-18)
(7.02424 -5.46595 -6.1529e-20)
(6.77365 -5.70237 -2.85528e-18)
(6.51382 -5.92616 2.96771e-18)
(9.01237 -0.0854343 4.17449e-20)
(9.00138 -0.42643 -8.74507e-20)
(8.97491 -0.766775 7.17017e-19)
(8.93292 -1.10567 -1.40728e-20)
(8.87553 -1.44233 7.16869e-19)
(8.80292 -1.77598 -1.08276e-18)
(8.71529 -2.10587 0)
(8.6129 -2.43127 7.29923e-19)
(8.49602 -2.75145 6.68324e-19)
(8.36497 -3.0657 -7.25836e-19)
(8.22012 -3.37334 1.32798e-18)
(8.06186 -3.67369 2.81537e-18)
(7.89062 -3.9661 -1.30931e-18)
(7.70687 -4.24993 -1.41922e-18)
(7.5111 -4.52456 1.36102e-18)
(7.30384 -4.7894 0)
(7.08563 -5.04385 6.49381e-20)
(6.85705 -5.28735 9.80769e-21)
(6.61867 -5.51934 2.70521e-18)
(6.3711 -5.73928 1.25767e-18)
(8.67592 -0.0842482 0)
(8.66899 -0.410291 6.25742e-21)
(8.64735 -0.736029 -1.45902e-19)
(8.61095 -1.06071 -6.4796e-19)
(8.55986 -1.3836 6.09069e-19)
(8.49423 -1.70395 0)
(8.41422 -2.02106 1.23967e-18)
(8.32006 -2.33422 -1.36221e-21)
(8.21197 -2.64273 -1.89335e-18)
(8.09024 -2.94592 0)
(7.95519 -3.24311 -1.30684e-18)
(7.80718 -3.53367 4.60052e-20)
(7.64659 -3.81694 -3.67354e-18)
(7.47386 -4.09232 6.47325e-21)
(7.28945 -4.35918 1.23124e-18)
(7.09384 -4.61694 0)
(6.88756 -4.86501 -1.20848e-18)
(6.67114 -5.1028 8.69931e-21)
(6.44514 -5.32977 1.19979e-18)
(6.21012 -5.54534 -1.23764e-18)
(8.34927 -0.0853237 0)
(8.34495 -0.396995 1.49592e-19)
(8.32669 -0.708593 3.10371e-19)
(8.29441 -1.01942 -5.7449e-19)
(8.24818 -1.32877 -2.47266e-20)
(8.1881 -1.63596 -2.87113e-19)
(8.11433 -1.94031 -1.14934e-18)
(8.02703 -2.24116 5.71409e-19)
(7.92643 -2.53784 2.38173e-20)
(7.81276 -2.82971 5.6799e-19)
(7.68632 -3.11614 5.22875e-19)
(7.54743 -3.3965 2.26443e-18)
(7.39645 -3.6702 1.13267e-18)
(7.23378 -3.93662 2.23716e-18)
(7.05984 -4.19519 -1.11565e-18)
(6.8751 -4.44532 3.86712e-20)
(6.68005 -4.68644 -1.10248e-18)
(6.4752 -4.91797 0)
(6.2611 -5.13936 1.04212e-18)
(6.03824 -5.35 0)
(8.04031 -0.0875359 6.51291e-20)
(8.03746 -0.385707 -1.90744e-19)
(8.02137 -0.683945 5.23177e-19)
(7.99198 -0.981598 -2.61003e-19)
(7.94933 -1.27801 1.89856e-20)
(7.89352 -1.57252 -2.60848e-19)
(7.82467 -1.86451 5.42292e-19)
(7.74294 -2.15335 -5.18999e-19)
(7.64852 -2.43841 5.18996e-19)
(7.54162 -2.71908 9.95401e-19)
(7.42252 -2.99478 -1.07261e-18)
(7.29151 -3.26491 -4.51073e-20)
(7.14893 -3.52891 -3.10474e-18)
(6.99514 -3.7862 5.37728e-21)
(6.83055 -4.03622 4.02816e-20)
(6.6556 -4.27843 2.01273e-18)
(6.47077 -4.51227 -9.94223e-19)
(6.27656 -4.73717 -9.4701e-19)
(6.07348 -4.95258 -3.74537e-20)
(5.86202 -5.15787 0)
(7.75266 -0.0901398 0)
(7.75042 -0.375802 2.42295e-19)
(7.7356 -0.661606 -8.33099e-19)
(7.70813 -0.946937 -2.21025e-19)
(7.66805 -1.23118 4.94313e-19)
(7.61545 -1.51372 0)
(7.55043 -1.79397 0)
(7.47313 -2.07132 4.72485e-19)
(7.38374 -2.34522 -4.72483e-19)
(7.28245 -2.61507 3.98016e-19)
(7.1695 -2.88032 -4.69438e-19)
(7.04518 -3.14043 9.30934e-19)
(6.9098 -3.39486 -1.85726e-18)
(6.76371 -3.64308 1.84766e-18)
(6.6073 -3.88457 3.46695e-20)
(6.44099 -4.11881 -9.50284e-19)
(6.26527 -4.34526 -9.0427e-19)
(6.08062 -4.56338 1.84205e-18)
(5.88756 -4.7726 8.62322e-19)
(5.68654 -4.97232 0)
(7.4871 -0.0926617 1.87791e-21)
(7.48491 -0.366815 1.59082e-19)
(7.47071 -0.641136 3.33999e-19)
(7.44446 -0.915048 2.33784e-19)
(7.40619 -1.18797 2.16865e-19)
(7.35598 -1.45932 2.01734e-19)
(7.29392 -1.72855 0)
(7.22016 -1.99509 -8.33675e-19)
(7.13484 -2.25841 -4.29761e-19)
(7.03817 -2.51796 3.66631e-19)
(6.93036 -2.77322 0)
(6.81169 -3.02369 8.48823e-19)
(6.68245 -3.26887 -2.51044e-18)
(6.54297 -3.50827 8.44478e-19)
(6.39364 -3.7414 0)
(6.23488 -3.9678 -8.02935e-19)
(6.06717 -4.18695 -1.62172e-18)
(5.89099 -4.39834 7.97997e-19)
(5.7069 -4.6014 -2.92081e-20)
(5.51535 -4.79549 0)
(7.24277 -0.094803 3.4648e-21)
(7.24025 -0.358399 -1.02954e-19)
(7.22627 -0.622156 1.9868e-19)
(7.20076 -0.885531 -1.31228e-20)
(7.16376 -1.14797 3.9701e-19)
(7.11534 -1.40894 -6.09735e-19)
(7.0556 -1.6679 0)
(6.98467 -1.92433 5.60352e-20)
(6.90269 -2.17772 0)
(6.80984 -2.42757 -8.13919e-19)
(6.70635 -2.67338 0)
(6.59246 -2.91469 -7.51144e-19)
(6.46845 -3.15104 2.32158e-18)
(6.33465 -3.38198 -1.53839e-18)
(6.19144 -3.60707 7.66981e-19)
(6.03922 -3.8259 -6.78607e-19)
(5.87851 -4.03798 7.83838e-19)
(5.70979 -4.24285 -7.78478e-19)
(5.53371 -4.43992 0)
(5.35069 -4.62854 0)
(7.01785 -0.0964422 4.71101e-20)
(7.01484 -0.35033 0)
(7.00081 -0.604361 0)
(6.97573 -0.858016 -3.77454e-19)
(6.93964 -1.11077 -3.52282e-19)
(6.89261 -1.36212 0)
(6.83472 -1.61155 0)
(6.76611 -1.85857 4.9857e-20)
(6.68691 -2.10269 6.97629e-19)
(6.5973 -2.34344 -3.36437e-19)
(6.49747 -2.58037 -3.58448e-19)
(6.38767 -2.81304 1.44798e-18)
(6.26817 -3.04103 -2.15013e-18)
(6.13927 -3.26395 1.38652e-18)
(6.00135 -3.48139 0)
(5.85482 -3.693 2.78553e-18)
(5.70021 -3.89834 -2.02243e-18)
(5.53804 -4.09704 6.88027e-19)
(5.36907 -4.28843 1.31583e-18)
(5.19372 -4.47193 0)
(6.81027 -0.0975146 -4.05026e-20)
(6.80664 -0.342447 0)
(6.79243 -0.587501 -5.22231e-21)
(6.76759 -0.832177 -3.24133e-19)
(6.73218 -1.07598 1.00438e-18)
(6.68626 -1.31841 -1.67076e-19)
(6.62992 -1.55899 0)
(6.56326 -1.79725 1.33093e-18)
(6.48644 -2.03274 -6.85413e-19)
(6.39961 -2.265 4.44886e-20)
(6.30297 -2.49362 6.35214e-19)
(6.19673 -2.71818 6.511e-19)
(6.08116 -2.93831 -1.2984e-18)
(5.95654 -3.15366 -1.26998e-18)
(5.82324 -3.36386 -1.24047e-18)
(5.68167 -3.56867 -1.32002e-18)
(5.5324 -3.76764 1.31103e-18)
(5.37593 -3.96063 -6.25866e-19)
(5.2133 -4.14677 -6.66922e-19)
(5.0448 -4.32573 0)
(6.61777 -0.0979998 3.97927e-20)
(6.61351 -0.334645 -1.49412e-19)
(6.59905 -0.571382 -1.54674e-19)
(6.57437 -0.80773 4.63138e-19)
(6.53951 -1.04321 -1.64474e-19)
(6.49453 -1.27736 -1.5374e-19)
(6.43953 -1.50972 0)
(6.3746 -1.73984 -6.31931e-19)
(6.29989 -1.96728 0)
(6.21553 -2.19162 6.27044e-19)
(6.12173 -2.41247 -1.20832e-18)
(6.01867 -2.62945 5.98143e-19)
(5.9066 -2.84221 -1.19261e-18)
(5.7858 -3.05045 1.23069e-18)
(5.6566 -3.25384 6.69851e-19)
(5.51938 -3.45227 0)
(5.37478 -3.64527 -5.78188e-19)
(5.22324 -3.83308 5.78188e-19)
(5.06625 -4.01445 0)
(4.90377 -4.18977 0)
(6.43824 -0.0979854 0)
(6.43337 -0.326901 1.46796e-19)
(6.41866 -0.555876 4.72321e-21)
(6.39411 -0.784452 -1.51362e-19)
(6.35975 -1.01217 -1.33473e-19)
(6.31565 -1.23859 -1.41704e-19)
(6.26189 -1.46327 5.4769e-19)
(6.19856 -1.68577 0)
(6.1258 -1.90569 0)
(6.04376 -2.12264 2.78338e-19)
(5.95259 -2.33622 2.95676e-19)
(5.85248 -2.54609 1.07013e-18)
(5.74365 -2.75194 -5.46785e-19)
(5.62635 -2.95349 5.46784e-19)
(5.50089 -3.15049 5.80453e-19)
(5.36759 -3.34294 3.39433e-20)
(5.22713 -3.53038 -1.06607e-18)
(5.07985 -3.71357 3.77872e-21)
(4.92793 -3.89061 5.27264e-19)
(4.77049 -4.06352 0)
(6.26977 -0.0974745 -3.28105e-20)
(6.26436 -0.319183 3.28101e-20)
(6.24946 -0.540925 0)
(6.22506 -0.762253 1.23583e-19)
(6.19122 -0.98273 4.01434e-19)
(6.14798 -1.20193 -5.07366e-19)
(6.09544 -1.41943 -5.38123e-19)
(6.03368 -1.63483 0)
(5.96283 -1.84773 0)
(5.88303 -2.05775 0)
(5.79442 -2.26454 -9.93416e-19)
(5.69717 -2.46777 -6.41283e-20)
(5.59148 -2.66714 -5.037e-19)
(5.47754 -2.86243 3.01869e-20)
(5.35564 -3.05342 -9.96123e-19)
(5.22599 -3.24026 1.5181e-18)
(5.08932 -3.42249 -1.43844e-18)
(4.94566 -3.6017 4.88293e-19)
(4.7983 -3.77492 9.36093e-19)
(4.64454 -3.94704 0)
(6.11065 -0.0961168 2.9477e-20)
(6.1048 -0.311292 0)
(6.08979 -0.526488 -1.21358e-19)
(6.06562 -0.741269 -2.50065e-19)
(6.03233 -0.955215 1.21205e-19)
(5.98997 -1.16792 9.67877e-19)
(5.93864 -1.37898 0)
(5.87841 -1.58801 -4.66151e-19)
(5.80941 -1.79463 -2.38421e-19)
(5.73175 -1.99848 -4.47906e-19)
(5.64558 -2.19924 -1.79213e-19)
(5.55104 -2.39659 -1.4141e-18)
(5.4483 -2.59025 -9.33391e-19)
(5.33749 -2.78002 9.6016e-19)
(5.21885 -2.96572 9.19064e-19)
(5.09241 -3.14757 -3.88313e-21)
(4.95897 -3.32524 2.99378e-20)
(4.81777 -3.5013 4.49919e-19)
(4.67393 -3.67196 -9.19805e-19)
(4.52069 -3.8471 0)
(5.95927 -0.0944448 -6.16421e-20)
(5.95312 -0.303364 3.03454e-20)
(5.93815 -0.51237 -1.21235e-19)
(5.91436 -0.721074 1.21179e-19)
(5.88175 -0.929082 -3.48527e-19)
(5.84039 -1.136 -1.08527e-18)
(5.79033 -1.34146 0)
(5.73166 -1.54507 4.93225e-19)
(5.66445 -1.74649 -4.61181e-19)
(5.58881 -1.94538 9.76577e-19)
(5.50486 -2.1414 9.70776e-19)
(5.41269 -2.33425 1.43025e-18)
(5.31245 -2.52368 -9.28072e-19)
(5.20418 -2.70947 4.62276e-19)
(5.0881 -2.89145 -4.54622e-19)
(4.96386 -3.06983 4.54646e-19)
(4.83256 -3.24434 0)
(4.6915 -3.4182 4.11625e-19)
(4.54972 -3.58723 -4.02811e-19)
(4.39207 -3.77362 0)
(7.13984 7.26183 0)
(7.4198 6.97203 0)
(7.68686 6.67266 1.08713e-18)
(7.94173 6.3642 2.02478e-20)
(8.18382 6.04639 -1.15018e-18)
(8.41249 5.71927 0)
(8.62731 5.38326 1.18692e-18)
(8.82797 5.03889 -2.23935e-18)
(9.01413 4.68673 -1.13171e-18)
(9.18551 4.32739 -1.14228e-18)
(9.34185 3.96151 1.14228e-18)
(9.48292 3.58974 -1.15437e-18)
(9.60853 3.21276 5.75825e-19)
(9.71847 2.83128 5.49597e-19)
(9.8126 2.44597 5.51745e-19)
(9.89085 2.05748 -5.85549e-19)
(9.9532 1.66649 5.85549e-19)
(9.99973 1.27368 -2.93953e-19)
(10.0304 0.879476 -1.39629e-19)
(10.0457 0.485209 7.35446e-20)
(7.41637 7.06974 0)
(7.69653 6.78034 -9.96178e-19)
(7.9629 6.47937 -2.12977e-18)
(8.21577 6.16751 3.1495e-18)
(8.45491 5.84509 -2.18407e-18)
(8.67979 5.51254 2.19482e-18)
(8.88994 5.17049 1.19324e-18)
(9.08495 4.81959 -3.38604e-18)
(9.26444 4.46053 1.10771e-18)
(9.42803 4.09403 2.20206e-18)
(9.57542 3.72082 1.08492e-18)
(9.70636 3.34165 1.09179e-18)
(9.82069 2.95732 -1.15212e-18)
(9.91818 2.56855 1.6965e-18)
(9.99856 2.17613 -2.35372e-18)
(10.0618 1.78094 5.80974e-19)
(10.1077 1.38379 -5.58274e-19)
(10.1366 0.985478 0)
(10.1483 0.586551 1.51548e-20)
(10.1431 0.187983 0)
(7.27324 6.94485 -1.7541e-18)
(7.55621 6.67285 9.84781e-19)
(7.82663 6.38799 1.80139e-18)
(8.08407 6.09094 8.155e-19)
(8.32809 5.78228 2.04239e-18)
(8.55816 5.46261 2.00274e-20)
(8.77376 5.1326 -1.02372e-18)
(8.97441 4.79296 -3.0509e-18)
(9.15964 4.44439 3.01205e-18)
(9.32903 4.08762 -3.09192e-18)
(9.48218 3.7234 -1.03009e-18)
(9.61879 3.35249 -2.06091e-18)
(9.73855 2.97571 0)
(9.84125 2.59382 0)
(9.92674 2.20773 0)
(9.99486 1.81835 -5.25321e-19)
(10.0455 1.4265 5.50184e-19)
(10.0785 1.03306 5.27015e-19)
(10.0938 0.638734 6.26924e-21)
(10.0915 0.244486 1.32364e-19)
(7.04591 6.69277 1.82176e-18)
(7.32561 6.43943 -1.65437e-18)
(7.59396 6.17297 -1.69592e-19)
(7.85025 5.89393 -1.70552e-19)
(8.09391 5.60288 4.30084e-18)
(8.32438 5.30042 -7.12519e-20)
(8.54112 4.9872 3.77043e-21)
(8.74359 4.66386 -2.71976e-18)
(8.93131 4.33108 1.79448e-18)
(9.10378 3.98955 0)
(9.26053 3.64005 9.62478e-19)
(9.4012 3.28343 9.69137e-19)
(9.52552 2.92044 0)
(9.63318 2.55194 0)
(9.72396 2.17873 0)
(9.79766 1.80164 0)
(9.85408 1.42149 -2.17085e-20)
(9.89311 1.03913 4.74531e-19)
(9.91462 0.655391 -2.27874e-19)
(9.91863 0.271218 0)
(6.78322 6.37803 1.54293e-18)
(7.05506 6.14255 0)
(7.31667 5.89413 -4.54288e-18)
(7.56725 5.63319 -1.54846e-18)
(7.80616 5.36026 -1.6272e-18)
(8.03281 5.07589 -1.72492e-18)
(8.24665 4.78066 8.14967e-19)
(8.44712 4.47517 -8.56482e-19)
(8.63369 4.16006 2.37821e-18)
(8.8059 3.83601 -7.78571e-19)
(8.96334 3.50378 0)
(9.10551 3.16413 0)
(9.23202 2.81773 0)
(9.34259 2.46538 0)
(9.43697 2.10789 -1.22951e-18)
(9.5149 1.74606 4.22771e-19)
(9.57616 1.38071 -4.46588e-19)
(9.62059 1.01266 0)
(9.64807 0.642759 2.24735e-19)
(9.65851 0.271897 0)
(6.50827 6.05083 1.31996e-18)
(6.76988 5.83149 -4.79895e-20)
(7.0222 5.59963 2.77646e-18)
(7.26443 5.35558 1.38711e-18)
(7.49591 5.0998 0)
(7.71606 4.8328 -1.47299e-18)
(7.92432 4.55512 6.85048e-20)
(8.12014 4.26731 -1.49536e-18)
(8.30299 3.96995 2.06874e-18)
(8.47241 3.66371 3.27374e-20)
(8.62795 3.3492 2.81143e-20)
(8.76916 3.02708 -7.462e-19)
(8.89564 2.69805 1.46346e-18)
(9.00707 2.36289 0)
(9.10319 2.02231 6.85643e-20)
(9.18368 1.67712 7.47163e-19)
(9.24828 1.3281 1.63795e-21)
(9.29681 0.976045 -1.53451e-20)
(9.32914 0.621741 0)
(9.34514 0.266026 -4.6322e-20)
(6.2424 5.73382 0)
(6.49267 5.52846 -4.89152e-20)
(6.7344 5.3111 1.75692e-20)
(6.96684 5.08203 -2.50983e-18)
(7.18933 4.84166 0)
(7.40131 4.59043 1.26938e-18)
(7.60224 4.32884 1.35208e-18)
(7.79158 4.05739 -3.93376e-18)
(7.96883 3.77662 -6.82763e-20)
(8.13353 3.48711 -1.26314e-18)
(8.28523 3.18945 6.95499e-19)
(8.42351 2.88426 -6.42461e-19)
(8.54796 2.57222 -7.06266e-19)
(8.65823 2.254 0)
(8.75406 1.93034 3.7261e-19)
(8.83525 1.60184 -1.69076e-20)
(8.90141 1.26936 -3.45904e-19)
(8.95232 0.933624 -1.67696e-20)
(8.98787 0.595393 -8.70733e-20)
(9.0079 0.255436 1.7452e-19)
(5.99681 5.4386 0)
(6.2355 5.24509 1.08528e-18)
(6.46624 5.04015 1.61781e-20)
(6.68832 4.82403 -1.10143e-18)
(6.90112 4.5971 0)
(7.10409 4.35975 1.14587e-18)
(7.29673 4.11244 -1.09403e-18)
(7.47852 3.85562 -1.21112e-18)
(7.64899 3.5898 2.30371e-18)
(7.8077 3.31551 1.24306e-18)
(7.95421 3.0333 0)
(8.08814 2.74376 6.06305e-19)
(8.20909 2.44752 -4.38913e-21)
(8.31675 2.14521 2.18654e-20)
(8.4107 1.8375 0)
(8.49081 1.52503 -5.968e-19)
(8.55691 1.20841 -3.12664e-19)
(8.6086 0.888438 4.56821e-19)
(8.64575 0.565861 3.08005e-19)
(8.66819 0.24138 -4.11697e-20)
(5.7752 5.17011 0)
(6.00262 4.98658 -9.37343e-19)
(6.22256 4.79219 0)
(6.43433 4.58717 -1.0113e-18)
(6.63735 4.37184 1.99104e-18)
(6.83111 4.14657 -2.03053e-18)
(7.01513 3.91175 3.17737e-18)
(7.18894 3.66782 -3.16822e-18)
(7.35208 3.41525 -2.14056e-18)
(7.50415 3.15453 -1.57879e-18)
(7.64472 2.88619 5.41394e-19)
(7.77344 2.61078 -1.12241e-18)
(7.88994 2.32888 1.86478e-20)
(7.9939 2.04108 1.11575e-18)
(8.08503 1.74797 -2.80695e-19)
(8.16296 1.45029 1.14987e-18)
(8.22759 1.14851 -5.65548e-19)
(8.27875 0.843355 2.60567e-19)
(8.31619 0.535543 -1.48601e-19)
(8.33969 0.225748 0)
(5.57727 4.92873 0)
(5.79408 4.75365 1.81337e-18)
(6.00375 4.56828 8.79613e-19)
(6.20564 4.3728 -9.05436e-19)
(6.3992 4.1675 -1.85478e-18)
(6.58396 3.95271 2.82241e-18)
(6.75947 3.7288 1.12884e-20)
(6.92529 3.49618 -9.19965e-19)
(7.081 3.25528 1.97503e-18)
(7.22622 3.00658 1.02004e-18)
(7.36057 2.75058 -9.52984e-19)
(7.4837 2.48779 5.00406e-19)
(7.59526 2.21875 2.25364e-20)
(7.69496 1.94404 -5.2655e-19)
(7.78251 1.66422 -2.55156e-19)
(7.85762 1.37988 5.11622e-19)
(7.92007 1.09172 -2.56466e-19)
(7.96974 0.800221 -5.17541e-19)
(8.00646 0.506078 5.99713e-20)