/*--------------------------------*- C++ -*----------------------------------*\
| =========                 |                                                 |
| \\      /  F ield         | OpenFOAM: The Open Source CFD Toolbox           |
|  \\    /   O peration     | Version:  v1912                                 |
|   \\  /    A nd           | Website:  www.openfoam.com                      |
|    \\/     M anipulation  |                                                 |
\*---------------------------------------------------------------------------*/
FoamFile
{
    version     2.0;
    format      ascii;
    class       volScalarField;
    location    "15";
    object      p;
}
// * * * * * * * * * * * * * * * * * * * * * * * * * * * * * * * * * * * * * //

dimensions      [0 2 -2 0 0 0 0];


internalField   nonuniform List<scalar> 
19200
(
-163.291
-146.071
-137.021
-127.279
-118.479
-110.421
-102.973
-96.0914
-89.7365
-83.868
-78.4488
-73.4439
-68.8199
-64.5457
-60.5917
-56.9307
-53.5376
-50.3894
-47.4653
-44.746
-42.2145
-39.8549
-37.6532
-35.5966
-33.6736
-31.8737
-30.1879
-28.6073
-27.1239
-25.7379
-163.968
-146.778
-137.709
-127.937
-119.106
-111.016
-103.536
-96.6256
-90.2439
-84.3511
-78.9101
-73.8856
-69.2441
-64.954
-60.9856
-57.3115
-53.9065
-50.7473
-47.8129
-45.0842
-42.5438
-40.1759
-37.9665
-35.9026
-33.9726
-32.1662
-30.4741
-28.8874
-27.3976
-26.0078
-164.661
-147.475
-138.388
-128.588
-119.725
-111.604
-104.094
-97.1538
-90.7455
-84.8288
-79.3663
-74.3226
-69.6638
-65.3581
-61.3756
-57.6886
-54.2717
-51.1016
-48.1571
-45.419
-42.8698
-40.4938
-38.2766
-36.2054
-34.2685
-32.4555
-30.7572
-29.1642
-27.6681
-26.2744
-165.362
-148.169
-139.061
-129.233
-120.338
-112.185
-104.644
-97.6756
-91.2412
-85.301
-79.8173
-74.7546
-70.0788
-65.7577
-61.7612
-58.0615
-54.633
-51.4521
-48.4976
-45.7502
-43.1923
-40.8081
-38.5833
-36.5048
-34.561
-32.7415
-31.0368
-29.4375
-27.935
-26.5373
-166.066
-148.859
-139.728
-129.872
-120.945
-112.759
-105.188
-98.1911
-91.7309
-85.7673
-80.2628
-75.1814
-70.4888
-66.1525
-62.1423
-58.4301
-54.99
-51.7985
-48.8342
-46.0776
-43.5111
-41.1188
-38.8863
-36.8006
-34.8499
-33.0237
-31.3128
-29.707
-28.1979
-26.7963
-166.769
-149.545
-140.389
-130.503
-121.544
-113.326
-105.725
-98.6999
-92.2141
-86.2276
-80.7025
-75.6026
-70.8935
-66.5423
-62.5186
-58.794
-55.3426
-52.1406
-49.1666
-46.4008
-43.8258
-41.4255
-39.1854
-37.0925
-35.1349
-33.3022
-31.5848
-29.9727
-28.457
-27.0514
-167.468
-150.227
-141.045
-131.128
-122.137
-113.887
-106.255
-99.2018
-92.6907
-86.6815
-81.1361
-76.0181
-71.2926
-66.9268
-62.8898
-59.1531
-55.6905
-52.4782
-49.4945
-46.7198
-44.1363
-41.7281
-39.4805
-37.3804
-35.416
-33.5768
-31.853
-30.2344
-28.7121
-27.3027
-168.162
-150.902
-141.693
-131.746
-122.722
-114.439
-106.777
-99.6966
-93.1604
-87.1287
-81.5633
-76.4274
-71.686
-67.3057
-63.2556
-59.507
-56.0334
-52.8109
-49.8178
-47.0342
-44.4425
-42.0264
-39.7714
-37.6643
-35.6931
-33.8474
-32.1173
-30.4922
-28.9633
-27.5502
-168.849
-151.571
-142.335
-132.356
-123.299
-114.984
-107.292
-100.184
-93.6228
-87.5689
-81.9838
-76.8303
-72.0731
-67.6787
-63.6158
-59.8554
-56.3711
-53.1386
-50.1362
-47.344
-44.7441
-42.3203
-40.058
-37.944
-35.9662
-34.114
-32.3777
-30.7461
-29.2107
-27.7941
-169.529
-152.231
-142.968
-132.958
-123.868
-115.521
-107.799
-100.663
-94.0776
-88.0019
-82.3973
-77.2265
-72.4539
-68.0456
-63.9701
-60.1982
-56.7033
-53.4611
-50.4496
-47.6489
-45.041
-42.6097
-40.3402
-38.2194
-36.2351
-34.3766
-32.6342
-30.9964
-29.4545
-28.0345
-170.2
-152.884
-143.593
-133.551
-124.428
-116.049
-108.297
-101.134
-94.5246
-88.4272
-82.8035
-77.6157
-72.8279
-68.406
-64.3181
-60.535
-57.0298
-53.778
-50.7577
-47.9487
-45.333
-42.8943
-40.618
-38.4905
-36.4998
-34.6353
-32.8869
-31.2429
-29.6947
-28.2717
-170.863
-153.527
-144.209
-134.135
-124.979
-116.569
-108.787
-101.597
-94.9632
-88.8446
-83.202
-77.9976
-73.1949
-68.7596
-64.6597
-60.8656
-57.3503
-54.0893
-51.0602
-48.2432
-45.62
-43.1742
-40.8911
-38.7572
-36.7604
-34.89
-33.1359
-31.4858
-29.9315
-28.5056
-171.516
-154.162
-144.816
-134.709
-125.521
-117.078
-109.267
-102.051
-95.3933
-89.2538
-83.5926
-78.3718
-73.5545
-69.1061
-64.9944
-61.1896
-57.6646
-54.3945
-51.3571
-48.5322
-45.9017
-43.4491
-41.1595
-39.0195
-37.0168
-35.1408
-33.3811
-31.7253
-30.165
-28.7364
-172.16
-154.786
-145.412
-135.274
-126.052
-117.579
-109.738
-102.495
-95.8145
-89.6542
-83.9749
-78.7379
-73.9064
-69.4452
-65.3221
-61.5068
-57.9722
-54.6934
-51.6479
-48.8155
-46.178
-43.7188
-41.423
-39.2771
-37.2689
-35.3875
-33.6226
-31.9613
-30.3954
-28.9644
-172.793
-155.4
-145.999
-135.828
-126.574
-118.069
-110.199
-102.93
-96.2263
-90.0457
-84.3484
-79.0957
-74.2501
-69.7766
-65.6422
-61.8168
-58.273
-54.9857
-51.9324
-49.0928
-46.4485
-43.983
-41.6814
-39.5301
-37.5167
-35.6303
-33.8606
-32.1942
-30.6229
-29.19
-173.415
-156.003
-146.574
-136.371
-127.084
-118.548
-110.65
-103.355
-96.6285
-90.4278
-84.7129
-79.4447
-74.5855
-70.0997
-65.9544
-62.1192
-58.5664
-55.2709
-52.2101
-49.3636
-46.713
-44.2416
-41.9345
-39.7781
-37.7598
-35.869
-34.0948
-32.4238
-30.8477
-29.4132
-174.026
-156.595
-147.139
-136.903
-127.584
-119.017
-111.09
-103.77
-97.0206
-90.8002
-85.068
-79.7845
-74.9119
-70.4142
-66.2583
-62.4135
-58.852
-55.5486
-52.4807
-49.6276
-46.9709
-44.4941
-42.1819
-40.0208
-37.9983
-36.1033
-34.3254
-32.6502
-31.0698
-29.6342
-174.627
-157.176
-147.692
-137.424
-128.073
-119.475
-111.519
-104.174
-97.4024
-91.1624
-85.4132
-80.1148
-75.229
-70.7197
-66.5534
-62.6992
-59.1294
-55.8184
-52.7436
-49.8842
-47.2219
-44.7399
-42.4232
-40.2578
-38.2315
-36.3331
-34.5519
-32.8732
-31.2892
-29.8531
-175.216
-157.745
-148.234
-137.933
-128.55
-119.921
-111.937
-104.567
-97.7734
-91.5142
-85.7482
-80.4352
-75.5365
-71.0157
-66.8392
-62.976
-59.3979
-56.0796
-52.9982
-50.1329
-47.4653
-44.9786
-42.6576
-40.4886
-38.459
-36.5578
-34.774
-33.0927
-31.5056
-30.0696
-175.793
-158.303
-148.764
-138.43
-129.015
-120.355
-112.344
-104.949
-98.1334
-91.8552
-86.0726
-80.7451
-75.8337
-71.3017
-67.1152
-63.2431
-59.657
-56.3316
-53.2438
-50.3729
-47.7003
-45.2092
-42.8845
-40.7123
-38.6801
-36.7767
-34.9911
-33.308
-31.7189
-30.2837
-176.36
-158.85
-149.282
-138.915
-129.468
-120.778
-112.739
-105.319
-98.482
-92.185
-86.3861
-81.0443
-76.1204
-71.5773
-67.3809
-63.5
-59.9061
-56.5737
-53.4796
-50.6032
-47.9259
-45.4308
-43.1028
-40.9279
-38.8937
-36.9889
-35.2024
-33.5185
-31.9284
-30.4953
-176.917
-159.385
-149.789
-139.389
-129.909
-121.188
-113.121
-105.677
-98.8189
-92.5033
-86.6883
-81.3324
-76.396
-71.8419
-67.6357
-63.7461
-60.1444
-56.805
-53.7048
-50.8231
-48.1412
-45.6423
-43.3112
-41.1342
-39.0985
-37.193
-35.4066
-33.723
-32.1331
-30.7034
-177.464
-159.909
-150.284
-139.85
-130.337
-121.586
-113.492
-106.023
-99.1438
-92.8099
-86.9789
-81.609
-76.6603
-72.0952
-67.8793
-63.9808
-60.3713
-57.0248
-53.9184
-51.0313
-48.3448
-45.8422
-43.5083
-41.3293
-39.2927
-37.3873
-35.6018
-33.9196
-32.3313
-30.9057
-178.003
-160.421
-150.767
-140.298
-130.753
-121.971
-113.85
-106.357
-99.4566
-93.1045
-87.2577
-81.8739
-76.9129
-72.3369
-68.111
-64.2037
-60.5861
-57.2324
-54.1195
-51.2268
-48.5354
-46.0289
-43.6921
-41.5112
-39.4739
-37.569
-35.7853
-34.1059
-32.5206
-31.1011
-178.533
-160.922
-151.239
-140.734
-131.156
-122.344
-114.195
-106.678
-99.7571
-93.3871
-87.5246
-82.127
-77.1537
-72.5667
-68.3308
-64.4143
-60.7884
-57.4271
-54.3073
-51.4084
-48.7118
-46.2008
-43.8606
-41.6775
-39.6391
-37.7347
-35.953
-34.277
-32.6964
-31.2851
-179.055
-161.411
-151.698
-141.158
-131.545
-122.702
-114.527
-106.987
-100.045
-93.6574
-87.7795
-82.3682
-77.3827
-72.7845
-68.5385
-64.6125
-60.9778
-57.6083
-54.481
-51.5753
-48.8725
-46.3564
-44.012
-41.8259
-39.786
-37.8816
-36.1018
-34.4296
-32.8547
-31.4515
-179.58
-161.891
-152.145
-141.568
-131.92
-123.047
-114.844
-107.281
-100.32
-93.915
-88.0219
-82.5972
-77.5996
-72.9903
-68.7338
-64.7981
-61.1541
-57.7758
-54.6401
-51.7264
-49.0164
-46.4937
-44.1439
-41.9539
-39.9119
-38.0078
-36.2312
-34.5654
-32.9991
-31.6046
-180.129
-162.365
-152.578
-141.963
-132.28
-123.376
-115.147
-107.562
-100.581
-94.1597
-88.2519
-82.8141
-77.8045
-73.1841
-68.9171
-64.9713
-61.3175
-57.9296
-54.7844
-51.8613
-49.1421
-46.6105
-44.2525
-42.0555
-40.0088
-38.1038
-36.3316
-34.6758
-33.1255
-31.7587
-180.705
-162.829
-152.989
-142.342
-132.625
-123.691
-115.437
-107.83
-100.831
-94.3932
-88.4712
-83.0205
-77.999
-73.3674
-69.0898
-65.1336
-61.4694
-58.0711
-54.9153
-51.9811
-49.2503
-46.7065
-44.3354
-42.1248
-40.0646
-38.1476
-36.366
-34.7066
-33.1711
-31.8676
-181.221
-163.262
-153.378
-142.702
-132.959
-123.996
-115.718
-108.091
-101.073
-94.6195
-88.6832
-83.2196
-78.1862
-73.5433
-69.2549
-65.288
-61.6131
-58.2038
-55.0365
-52.0901
-49.3459
-46.7871
-44.3986
-42.1671
-40.0815
-38.1319
-36.3065
-34.5941
-33.0248
-31.7294
-187.108
-187.086
-187.016
-186.953
-186.894
-186.827
-186.747
-186.653
-186.545
-186.424
-186.289
-186.14
-185.977
-185.8
-185.609
-185.405
-185.188
-184.958
-184.716
-184.462
-184.196
-183.919
-183.632
-183.335
-183.029
-182.716
-182.4
-182.087
-181.785
-181.506
-168.788
-168.819
-168.82
-168.804
-168.775
-168.731
-168.672
-168.597
-168.506
-168.402
-168.282
-168.149
-168.001
-167.84
-167.665
-167.476
-167.275
-167.061
-166.834
-166.596
-166.346
-166.084
-165.812
-165.53
-165.238
-164.937
-164.628
-164.312
-163.986
-163.639
-158.38
-158.433
-158.464
-158.471
-158.46
-158.433
-158.391
-158.333
-158.26
-158.173
-158.072
-157.956
-157.827
-157.684
-157.527
-157.358
-157.176
-156.981
-156.774
-156.556
-156.326
-156.084
-155.832
-155.569
-155.295
-155.012
-154.718
-154.411
-154.091
-153.749
-147.094
-147.158
-147.201
-147.226
-147.234
-147.226
-147.202
-147.164
-147.11
-147.042
-146.96
-146.865
-146.755
-146.632
-146.497
-146.348
-146.187
-146.014
-145.829
-145.633
-145.424
-145.205
-144.974
-144.733
-144.48
-144.217
-143.941
-143.654
-143.353
-143.037
-136.858
-136.926
-136.979
-137.016
-137.037
-137.041
-137.03
-137.004
-136.964
-136.91
-136.843
-136.762
-136.668
-136.561
-136.442
-136.311
-136.168
-136.013
-135.846
-135.669
-135.48
-135.281
-135.071
-134.85
-134.618
-134.374
-134.12
-133.853
-133.572
-133.276
-127.469
-127.542
-127.603
-127.647
-127.676
-127.688
-127.686
-127.67
-127.64
-127.596
-127.54
-127.471
-127.389
-127.296
-127.19
-127.073
-126.945
-126.806
-126.655
-126.495
-126.323
-126.141
-125.949
-125.747
-125.534
-125.31
-125.074
-124.827
-124.566
-124.291
-118.857
-118.931
-118.993
-119.04
-119.072
-119.089
-119.092
-119.081
-119.058
-119.021
-118.973
-118.912
-118.84
-118.756
-118.66
-118.554
-118.438
-118.311
-118.173
-118.026
-117.869
-117.702
-117.525
-117.338
-117.141
-116.934
-116.716
-116.487
-116.245
-115.99
-110.979
-111.051
-111.111
-111.158
-111.19
-111.208
-111.213
-111.205
-111.185
-111.153
-111.109
-111.054
-110.988
-110.91
-110.822
-110.724
-110.616
-110.498
-110.371
-110.234
-110.088
-109.933
-109.769
-109.595
-109.412
-109.22
-109.017
-108.804
-108.579
-108.342
-103.775
-103.843
-103.9
-103.945
-103.975
-103.993
-103.998
-103.991
-103.972
-103.942
-103.901
-103.849
-103.786
-103.713
-103.63
-103.538
-103.436
-103.325
-103.205
-103.076
-102.939
-102.794
-102.639
-102.477
-102.306
-102.126
-101.937
-101.738
-101.528
-101.308
-97.1835
-97.2466
-97.2997
-97.3407
-97.3688
-97.3844
-97.3882
-97.3806
-97.3617
-97.332
-97.2917
-97.2411
-97.1806
-97.1104
-97.0308
-96.9421
-96.8447
-96.7387
-96.6244
-96.5021
-96.372
-96.2341
-96.0884
-95.9351
-95.7739
-95.6047
-95.4271
-95.2406
-95.0445
-94.8383
-91.1434
-91.2015
-91.25
-91.287
-91.3117
-91.3247
-91.3264
-91.3173
-91.2974
-91.2672
-91.2269
-91.1769
-91.1174
-91.0487
-90.9712
-90.8851
-90.7908
-90.6886
-90.5786
-90.4612
-90.3367
-90.205
-90.0664
-89.9208
-89.7682
-89.6084
-89.441
-89.2656
-89.0815
-88.8882
-85.599
-85.6523
-85.696
-85.7288
-85.75
-85.76
-85.7592
-85.748
-85.7267
-85.6954
-85.6546
-85.6044
-85.5452
-85.4773
-85.4011
-85.3167
-85.2246
-85.1251
-85.0185
-84.905
-84.7849
-84.6585
-84.5258
-84.3869
-84.2418
-84.0903
-83.9321
-83.7668
-83.5936
-83.412
-80.4998
-80.5483
-80.5875
-80.6161
-80.6337
-80.6406
-80.6372
-80.6238
-80.6007
-80.5682
-80.5264
-80.4757
-80.4164
-80.3488
-80.2733
-80.1901
-80.0996
-80.0022
-79.8982
-79.7878
-79.6715
-79.5494
-79.4218
-79.2888
-79.1504
-79.0064
-78.8566
-78.7006
-78.5376
-78.3668
-75.8004
-75.8446
-75.8795
-75.9042
-75.9183
-75.9221
-75.9161
-75.9006
-75.8756
-75.8416
-75.7987
-75.7473
-75.6877
-75.6201
-75.545
-75.4626
-75.3733
-75.2775
-75.1755
-75.0678
-74.9546
-74.8363
-74.7132
-74.5854
-74.453
-74.316
-74.174
-74.0267
-73.8733
-73.7129
-71.4613
-71.5011
-71.5321
-71.5531
-71.5639
-71.5649
-71.5564
-71.5387
-71.512
-71.4765
-71.4325
-71.3803
-71.3202
-71.2525
-71.1775
-71.0957
-71.0072
-70.9127
-70.8124
-70.7068
-70.5963
-70.4813
-70.3621
-70.239
-70.1122
-69.9817
-69.8471
-69.7082
-69.564
-69.4136
-67.4471
-67.4829
-67.5103
-67.5279
-67.5356
-67.534
-67.5232
-67.5034
-67.475
-67.4382
-67.3931
-67.3401
-67.2794
-67.2115
-67.1365
-67.055
-66.9672
-66.8737
-66.7747
-66.6709
-66.5627
-66.4506
-66.3349
-66.2161
-66.0944
-65.9699
-65.8424
-65.7116
-65.5765
-65.4361
-63.727
-63.7592
-63.7831
-63.7976
-63.8025
-63.7984
-63.7854
-63.7638
-63.7338
-63.6957
-63.6495
-63.5957
-63.5346
-63.4663
-63.3913
-63.31
-63.2227
-63.1299
-63.0321
-62.9298
-62.8235
-62.7138
-62.6012
-62.4862
-62.3692
-62.2505
-62.1298
-62.007
-61.8809
-61.7505
-60.2739
-60.3028
-60.3234
-60.3349
-60.3373
-60.3309
-60.316
-60.2927
-60.2612
-60.2219
-60.1748
-60.1202
-60.0585
-59.9899
-59.9149
-59.8336
-59.7467
-59.6545
-59.5575
-59.4564
-59.3517
-59.244
-59.134
-59.0225
-58.9098
-58.7964
-58.6824
-58.5674
-58.4505
-58.3302
-57.0635
-57.0894
-57.1071
-57.1159
-57.116
-57.1075
-57.0908
-57.0659
-57.0331
-56.9926
-56.9446
-56.8894
-56.8272
-56.7583
-56.6831
-56.6019
-56.5152
-56.4234
-56.327
-56.2268
-56.1233
-56.0172
-55.9095
-55.8008
-55.692
-55.5836
-55.4759
-55.3687
-55.2611
-55.1514
-54.0743
-54.0978
-54.1129
-54.1193
-54.1172
-54.1069
-54.0885
-54.0622
-54.0282
-53.9867
-53.9379
-53.882
-53.8193
-53.75
-53.6746
-53.5934
-53.5068
-53.4152
-53.3193
-53.2196
-53.117
-53.0122
-52.9061
-52.7999
-52.6944
-52.5905
-52.4888
-52.3894
-52.2913
-52.1928
-51.2899
-51.3092
-51.3217
-51.3261
-51.3221
-51.31
-51.2901
-51.2625
-51.2274
-51.185
-51.1354
-51.0789
-51.0157
-50.9462
-50.8706
-50.7892
-50.7026
-50.6111
-50.5154
-50.416
-50.3139
-50.2099
-50.105
-50.0005
-49.8977
-49.7977
-49.7017
-49.6099
-49.5218
-49.4352
-48.6895
-48.7068
-48.7171
-48.7194
-48.7137
-48.7
-48.6787
-48.65
-48.6138
-48.5706
-48.5203
-48.4633
-48.3997
-48.3298
-48.254
-48.1725
-48.0857
-47.9942
-47.8984
-47.7991
-47.6971
-47.5934
-47.4891
-47.3857
-47.2848
-47.1881
-47.0971
-47.0127
-46.9349
-46.8613
-46.2605
-46.2757
-46.2839
-46.2843
-46.2769
-46.2618
-46.2392
-46.2094
-46.1723
-46.1283
-46.0774
-46.0199
-45.9559
-45.8858
-45.8097
-45.7279
-45.641
-45.5493
-45.4533
-45.3538
-45.2515
-45.1476
-45.0433
-44.9402
-44.8404
-44.7458
-44.6592
-44.5817
-44.5148
-44.4554
-43.9889
-44.0022
-44.0084
-44.0071
-43.9981
-43.9817
-43.958
-43.9272
-43.8893
-43.8446
-43.7932
-43.7352
-43.6709
-43.6004
-43.524
-43.4421
-43.3549
-43.2629
-43.1665
-43.0665
-42.9637
-42.859
-42.754
-42.6504
-42.5506
-42.457
-42.3736
-42.3022
-42.2466
-42.2028
-41.8626
-41.874
-41.8784
-41.8754
-41.8651
-41.8475
-41.8228
-41.7911
-41.7525
-41.7072
-41.6553
-41.5969
-41.5322
-41.4615
-41.3849
-41.3027
-41.2152
-41.1228
-41.026
-40.9253
-40.8215
-40.7157
-40.6093
-40.5042
-40.403
-40.309
-40.2271
-40.1605
-40.1167
-40.0902
-39.8705
-39.8801
-39.8828
-39.8784
-39.8668
-39.848
-39.8224
-39.7898
-39.7506
-39.7047
-39.6524
-39.5936
-39.5287
-39.4577
-39.3809
-39.2984
-39.2105
-39.1177
-39.0201
-38.9185
-38.8136
-38.7061
-38.5976
-38.49
-38.3861
-38.2895
-38.2071
-38.1428
-38.1104
-38.1027
-38.0029
-38.0107
-38.0119
-38.0061
-37.9932
-37.9733
-37.9467
-37.9134
-37.8735
-37.827
-37.7742
-37.715
-37.6497
-37.5784
-37.5012
-37.4183
-37.33
-37.2364
-37.138
-37.0352
-36.9286
-36.819
-36.7076
-36.5962
-36.4878
-36.3862
-36.2999
-36.2341
-36.2113
-36.2211
-36.2504
-36.2568
-36.2567
-36.2499
-36.236
-36.2154
-36.1881
-36.1542
-36.1138
-36.067
-36.0138
-35.9544
-35.8889
-35.8173
-35.7398
-35.6565
-35.5677
-35.4735
-35.3741
-35.27
-35.1615
-35.0493
-34.9344
-34.8183
-34.7036
-34.5941
-34.4995
-34.4272
-34.4107
-34.4325
-34.6035
-34.6094
-34.6091
-34.6022
-34.5883
-34.5679
-34.5409
-34.5074
-34.4676
-34.4214
-34.369
-34.3105
-34.2458
-34.1751
-34.0986
-34.0162
-33.9282
-33.8347
-33.7358
-33.6318
-33.523
-33.4098
-33.2927
-33.173
-33.0524
-32.9343
-32.8275
-32.7429
-32.7286
-32.7702
-33.0569
-33.06
-33.0578
-33.0491
-33.0337
-33.012
-32.984
-32.95
-32.9099
-32.8637
-32.8116
-32.7535
-32.6897
-32.62
-32.5447
-32.4638
-32.3773
-32.2855
-32.1883
-32.0859
-31.9784
-31.8661
-31.7492
-31.6282
-31.5039
-31.3786
-31.256
-31.15
-31.1078
-31.2104
-176.991
-177.526
-177.993
-178.486
-179.001
-179.517
-180.021
-180.513
-180.991
-181.455
-181.904
-182.335
-182.75
-183.145
-183.523
-183.881
-184.22
-184.539
-184.838
-185.117
-185.376
-185.616
-185.837
-186.041
-186.226
-186.396
-186.551
-186.696
-186.837
-186.98
-158.456
-159.04
-159.591
-160.136
-160.675
-161.203
-161.716
-162.213
-162.695
-163.162
-163.612
-164.045
-164.461
-164.858
-165.238
-165.599
-165.942
-166.265
-166.568
-166.852
-167.119
-167.367
-167.597
-167.809
-168.003
-168.179
-168.34
-168.483
-168.61
-168.713
-148.049
-148.65
-149.216
-149.768
-150.309
-150.835
-151.344
-151.838
-152.317
-152.781
-153.228
-153.66
-154.075
-154.473
-154.854
-155.218
-155.563
-155.887
-156.189
-156.469
-156.731
-156.977
-157.206
-157.418
-157.612
-157.79
-157.951
-158.093
-158.216
-158.313
-136.745
-137.328
-137.902
-138.452
-138.981
-139.495
-139.996
-140.483
-140.953
-141.407
-141.845
-142.265
-142.669
-143.056
-143.426
-143.785
-144.13
-144.46
-144.771
-145.065
-145.34
-145.596
-145.834
-146.054
-146.256
-146.44
-146.606
-146.755
-146.886
-146.999
-126.786
-127.354
-127.912
-128.45
-128.968
-129.472
-129.961
-130.435
-130.894
-131.338
-131.768
-132.182
-132.581
-132.964
-133.331
-133.679
-134.007
-134.316
-134.611
-134.891
-135.156
-135.403
-135.632
-135.845
-136.042
-136.222
-136.385
-136.531
-136.66
-136.77
-117.757
-118.298
-118.829
-119.346
-119.846
-120.33
-120.801
-121.257
-121.699
-122.126
-122.538
-122.936
-123.318
-123.684
-124.034
-124.367
-124.683
-124.985
-125.272
-125.545
-125.801
-126.042
-126.267
-126.476
-126.668
-126.844
-127.004
-127.147
-127.273
-127.381
-109.551
-110.065
-110.572
-111.067
-111.546
-112.01
-112.461
-112.898
-113.321
-113.73
-114.124
-114.504
-114.869
-115.219
-115.554
-115.874
-116.179
-116.469
-116.745
-117.006
-117.252
-117.481
-117.696
-117.897
-118.082
-118.252
-118.405
-118.543
-118.665
-118.77
-102.105
-102.595
-103.079
-103.551
-104.008
-104.452
-104.883
-105.301
-105.705
-106.095
-106.471
-106.834
-107.182
-107.516
-107.836
-108.141
-108.432
-108.709
-108.971
-109.219
-109.453
-109.672
-109.875
-110.063
-110.239
-110.401
-110.548
-110.679
-110.795
-110.895
-95.3364
-95.8044
-96.2657
-96.7159
-97.153
-97.577
-97.9881
-98.3864
-98.7717
-99.1437
-99.5024
-99.8475
-100.179
-100.497
-100.801
-101.091
-101.367
-101.63
-101.879
-102.113
-102.335
-102.542
-102.735
-102.914
-103.078
-103.228
-103.367
-103.492
-103.601
-103.696
-89.1673
-89.6143
-90.0547
-90.4845
-90.9019
-91.3067
-91.6992
-92.0793
-92.4468
-92.8014
-93.1429
-93.4714
-93.7867
-94.0887
-94.3774
-94.6528
-94.9148
-95.1636
-95.3991
-95.6213
-95.8302
-96.0257
-96.2079
-96.3765
-96.5316
-96.6728
-96.8005
-96.9176
-97.0208
-97.1097
-83.5276
-83.9554
-84.3765
-84.7875
-85.1865
-85.5736
-85.9488
-86.3118
-86.6625
-87.0007
-87.3262
-87.639
-87.939
-88.2261
-88.5003
-88.7617
-89.0101
-89.2458
-89.4686
-89.6786
-89.8758
-90.0602
-90.2317
-90.3903
-90.5361
-90.6691
-90.7891
-90.8954
-90.9916
-91.0748
-78.3571
-78.7673
-79.1709
-79.5646
-79.9469
-80.3176
-80.6767
-81.0239
-81.3591
-81.682
-81.9926
-82.2907
-82.5764
-82.8496
-83.1103
-83.3585
-83.5943
-83.8176
-84.0285
-84.2271
-84.4132
-84.587
-84.7485
-84.8977
-85.0345
-85.1591
-85.2713
-85.371
-85.4585
-85.5355
-73.6036
-73.998
-74.3857
-74.7637
-75.1306
-75.4863
-75.8306
-76.1633
-76.4841
-76.793
-77.0897
-77.3743
-77.6467
-77.907
-78.1551
-78.3911
-78.615
-78.8269
-79.0267
-79.2146
-79.3906
-79.5546
-79.7068
-79.8471
-79.9755
-80.0922
-80.197
-80.2899
-80.3706
-80.4413
-69.2227
-69.6027
-69.9759
-70.3397
-70.6927
-71.0346
-71.3654
-71.6847
-71.9924
-72.2882
-72.5721
-72.8442
-73.1043
-73.3526
-73.5891
-73.8138
-74.0267
-74.228
-74.4176
-74.5957
-74.7622
-74.9172
-75.0608
-75.1929
-75.3135
-75.4229
-75.5209
-75.6077
-75.6833
-75.7469
-65.1758
-65.5428
-65.903
-66.2539
-66.5943
-66.9237
-67.2421
-67.5491
-67.8446
-68.1284
-68.4005
-68.661
-68.9098
-69.147
-69.3727
-69.5869
-69.7897
-69.9812
-70.1614
-70.3304
-70.4882
-70.6349
-70.7705
-70.8951
-71.0087
-71.1113
-71.203
-71.2839
-71.3539
-71.4128
-61.4301
-61.7854
-62.1338
-62.4731
-62.802
-63.12
-63.427
-63.7227
-64.0069
-64.2796
-64.5408
-64.7904
-65.0287
-65.2556
-65.4713
-65.6758
-65.8693
-66.0517
-66.2233
-66.3839
-66.5337
-66.6728
-66.8011
-66.9188
-67.0258
-67.1223
-67.2082
-67.2837
-67.3488
-67.4037
-57.9569
-58.3016
-58.6395
-58.9683
-59.2868
-59.5944
-59.891
-60.1762
-60.45
-60.7123
-60.9633
-61.2029
-61.4313
-61.6487
-61.8551
-62.0506
-62.2354
-62.4095
-62.5729
-62.7259
-62.8683
-63.0003
-63.122
-63.2333
-63.3343
-63.4251
-63.5058
-63.5763
-63.6368
-63.6872
-54.7313
-55.0665
-55.395
-55.7145
-56.0235
-56.3216
-56.6085
-56.884
-57.1481
-57.4007
-57.6421
-57.8723
-58.0916
-58.3
-58.4977
-58.6849
-58.8615
-59.0279
-59.1839
-59.3297
-59.4653
-59.5908
-59.7063
-59.8118
-59.9073
-59.9929
-60.0687
-60.1347
-60.1909
-60.2374
-51.7315
-52.0582
-52.3783
-52.6895
-52.9901
-53.2794
-53.5573
-53.8237
-54.0786
-54.3222
-54.5545
-54.7759
-54.9866
-55.1866
-55.3762
-55.5555
-55.7246
-55.8837
-56.0327
-56.1719
-56.3012
-56.4208
-56.5305
-56.6306
-56.7211
-56.8019
-56.8732
-56.935
-56.9873
-57.0302
-48.9381
-49.2572
-49.5701
-49.874
-50.1669
-50.4482
-50.7177
-50.9755
-51.2218
-51.4567
-51.6805
-51.8935
-52.096
-52.288
-52.47
-52.6419
-52.804
-52.9563
-53.0989
-53.2319
-53.3553
-53.4693
-53.5738
-53.6689
-53.7546
-53.831
-53.8982
-53.9561
-54.0049
-54.0445
-46.3337
-46.6463
-46.9531
-47.2508
-47.5368
-47.8106
-48.0722
-48.3218
-48.5598
-48.7864
-49.002
-49.2071
-49.4017
-49.5863
-49.761
-49.926
-50.0814
-50.2273
-50.3639
-50.4911
-50.6091
-50.7178
-50.8175
-50.9079
-50.9893
-51.0617
-51.125
-51.1794
-51.2249
-51.2618
-43.9029
-44.2099
-44.5121
-44.8047
-45.0844
-45.351
-45.605
-45.8468
-46.0767
-46.2954
-46.5031
-46.7005
-46.8877
-47.0652
-47.233
-47.3914
-47.5405
-47.6805
-47.8113
-47.9332
-48.046
-48.15
-48.245
-48.3312
-48.4085
-48.4771
-48.5369
-48.588
-48.6304
-48.6644
-41.6312
-41.9339
-42.2333
-42.5219
-42.7958
-43.0555
-43.3021
-43.5362
-43.7583
-43.9691
-44.1693
-44.3592
-44.5394
-44.71
-44.8713
-45.0234
-45.1666
-45.3009
-45.4264
-45.5432
-45.6513
-45.7507
-45.8415
-45.9237
-45.9973
-46.0623
-46.1188
-46.1669
-46.2065
-46.2378
-39.5054
-39.8053
-40.1044
-40.3901
-40.6584
-40.9113
-41.1506
-41.3771
-41.5914
-41.7946
-41.9873
-42.1701
-42.3434
-42.5074
-42.6625
-42.8088
-42.9464
-43.0754
-43.1959
-43.308
-43.4116
-43.5068
-43.5936
-43.6721
-43.7422
-43.804
-43.8574
-43.9026
-43.9396
-43.9684
-37.5136
-37.8131
-38.1146
-38.3984
-38.661
-38.907
-39.1389
-39.3576
-39.5642
-39.7598
-39.9453
-40.1212
-40.2879
-40.4457
-40.5949
-40.7356
-40.8679
-40.992
-41.1077
-41.2153
-41.3148
-41.4061
-41.4892
-41.5643
-41.6312
-41.6899
-41.7406
-41.7831
-41.8176
-41.8441
-35.6442
-35.9489
-36.2566
-36.5381
-36.7943
-37.0331
-37.2574
-37.4681
-37.6668
-37.8549
-38.0332
-38.2024
-38.3628
-38.5147
-38.6582
-38.7936
-38.9209
-39.0402
-39.1516
-39.255
-39.3505
-39.4381
-39.5178
-39.5896
-39.6535
-39.7094
-39.7574
-39.7975
-39.8296
-39.854
-33.8772
-34.2021
-34.523
-34.8008
-35.0489
-35.28
-35.4961
-35.6986
-35.8893
-36.07
-36.2414
-36.4041
-36.5584
-36.7046
-36.8428
-36.9732
-37.0958
-37.2106
-37.3178
-37.4172
-37.5091
-37.5932
-37.6697
-37.7384
-37.7995
-37.8528
-37.8983
-37.936
-37.966
-37.9883
-32.1765
-32.5442
-32.8914
-33.1654
-33.4043
-33.6272
-33.8351
-34.0295
-34.2128
-34.3867
-34.552
-34.709
-34.8581
-34.9994
-35.133
-35.2591
-35.3777
-35.4888
-35.5924
-35.6887
-35.7775
-35.8588
-35.9327
-35.999
-36.0579
-36.1091
-36.1526
-36.1885
-36.2167
-36.2374
-30.5357
-30.9518
-31.3347
-31.6097
-31.8413
-32.0563
-32.2566
-32.4438
-32.6207
-32.7889
-32.949
-33.1015
-33.2464
-33.3839
-33.514
-33.6368
-33.7524
-33.8608
-33.962
-34.0559
-34.1427
-34.2222
-34.2944
-34.3592
-34.4167
-34.4668
-34.5093
-34.5442
-34.5714
-34.5912
-29.1636
-29.615
-29.9826
-30.2542
-30.4776
-30.6779
-30.8644
-31.0397
-31.2057
-31.3639
-31.5147
-31.6584
-31.795
-31.9245
-32.047
-32.1626
-32.2712
-32.3729
-32.4678
-32.5557
-32.6367
-32.7108
-32.7779
-32.8381
-32.8912
-32.9371
-32.9758
-33.0072
-33.0311
-33.0477
-20.7469
-22.012
-23.3682
-24.8134
-26.3554
-28.0024
-29.7624
-31.6438
-33.6563
-35.8107
-38.1186
-40.5934
-43.2496
-46.1035
-49.1738
-52.4811
-56.0497
-59.9071
-64.0858
-68.6244
-73.5687
-78.9739
-84.9071
-91.449
-98.691
-106.733
-115.761
-126.002
-135.755
-153.726
-21.034
-22.3078
-23.6688
-25.12
-26.6687
-28.3229
-30.0904
-31.9799
-34.0012
-36.1648
-38.4828
-40.9683
-43.6361
-46.5026
-49.5863
-52.9084
-56.4929
-60.3679
-64.5659
-69.1257
-74.0934
-79.5246
-85.4864
-92.0597
-99.336
-107.415
-116.478
-126.754
-136.524
-154.479
-21.3231
-22.6051
-23.971
-25.428
-26.9836
-28.645
-30.4202
-32.318
-34.348
-36.5212
-38.8494
-41.3458
-44.0253
-46.9045
-50.002
-53.339
-56.9399
-60.8326
-65.0502
-69.6315
-74.623
-80.0804
-86.0711
-92.676
-99.9864
-108.101
-117.198
-127.501
-137.286
-155.205
-21.6137
-22.9037
-24.2742
-25.7372
-27.2995
-28.9682
-30.7511
-32.6572
-34.6962
-36.8789
-39.2173
-41.7248
-44.4162
-47.3082
-50.4196
-53.7717
-57.3889
-61.2996
-65.5369
-70.1398
-75.1552
-80.6389
-86.6584
-93.2948
-100.639
-108.788
-117.918
-128.25
-138.054
-155.96
-21.9054
-23.203
-24.5781
-26.047
-27.6162
-29.2922
-31.0829
-32.9973
-35.0452
-37.2375
-39.5863
-42.1049
-44.8083
-47.7132
-50.8385
-54.2057
-57.8394
-61.7681
-66.0251
-70.6497
-75.6889
-81.1989
-87.2472
-93.9147
-101.292
-109.476
-118.639
-129.001
-138.83
-156.738
-22.1978
-23.5028
-24.8824
-26.3574
-27.9335
-29.6168
-31.4153
-33.3381
-35.395
-37.597
-39.9562
-42.4859
-45.2013
-48.1192
-51.2585
-54.641
-58.2912
-62.2379
-66.5147
-71.161
-76.2241
-81.7604
-87.8374
-94.536
-101.947
-110.165
-119.362
-129.756
-139.611
-157.529
-22.4904
-23.8026
-25.1868
-26.6679
-28.251
-29.9417
-31.7482
-33.6794
-35.7454
-37.9572
-40.3268
-42.8678
-45.5953
-48.5262
-51.6796
-55.0773
-58.7442
-62.709
-67.0056
-71.6737
-76.7608
-82.3232
-88.429
-95.1589
-102.603
-110.856
-120.087
-130.513
-140.394
-158.324
-22.7829
-24.1021
-25.4909
-26.9783
-28.5685
-30.2668
-32.0811
-34.0209
-36.0961
-38.3177
-40.6978
-43.2501
-45.9898
-48.9338
-52.1014
-55.5144
-59.198
-63.1811
-67.4976
-72.1875
-77.2986
-82.8874
-89.022
-95.7832
-103.26
-111.548
-120.814
-131.272
-141.179
-159.122
-23.0751
-24.4011
-25.7945
-27.2883
-28.8858
-30.5916
-32.4141
-34.3625
-36.4469
-38.6783
-41.069
-43.6327
-46.3846
-49.3418
-52.5237
-55.9521
-59.6524
-63.6538
-67.9903
-72.7022
-77.8373
-83.4525
-89.616
-96.4085
-103.919
-112.242
-121.542
-132.032
-141.965
-159.923
-23.3667
-24.6992
-26.0974
-27.5978
-29.2026
-30.9161
-32.7467
-34.7038
-36.7975
-39.0389
-41.4403
-44.0154
-46.7796
-49.75
-52.9462
-56.3901
-60.1072
-64.1269
-68.4834
-73.2173
-78.3765
-84.0182
-90.2107
-97.0346
-104.579
-112.936
-122.27
-132.794
-142.752
-160.726
-23.6574
-24.9964
-26.3993
-27.9064
-29.5187
-31.24
-33.0788
-35.0447
-37.1478
-39.3992
-41.8113
-44.398
-47.1745
-50.1582
-53.3687
-56.8282
-60.5621
-64.6002
-68.9768
-73.7327
-78.916
-84.5843
-90.8057
-97.661
-105.239
-113.631
-122.999
-133.556
-143.539
-161.53
-23.947
-25.2923
-26.7001
-28.214
-29.8339
-31.5631
-33.4103
-35.385
-37.4976
-39.7591
-42.182
-44.7802
-47.5691
-50.5662
-53.791
-57.266
-61.0169
-65.0733
-69.47
-74.248
-79.4555
-85.1503
-91.4007
-98.2874
-105.899
-114.325
-123.728
-134.318
-144.325
-162.333
-24.2355
-25.5869
-26.9995
-28.5206
-30.1482
-31.8855
-33.741
-35.7247
-37.8468
-40.1185
-42.5522
-45.162
-47.9633
-50.9737
-54.2129
-57.7035
-61.4712
-65.5461
-69.9629
-74.7629
-79.9947
-85.716
-91.9953
-98.9134
-106.558
-115.019
-124.455
-135.079
-145.111
-163.135
-24.5228
-25.8801
-27.2977
-28.826
-30.4615
-32.2069
-34.071
-36.0637
-38.1953
-40.4771
-42.9217
-45.5431
-48.3568
-51.3806
-54.6342
-58.1403
-61.925
-66.0182
-70.4552
-75.2772
-80.5331
-86.2809
-92.5893
-99.5386
-107.217
-115.712
-125.182
-135.839
-145.894
-163.935
-24.809
-26.1719
-27.5946
-29.1302
-30.7738
-32.5274
-34.4001
-36.4018
-38.543
-40.835
-43.2905
-45.9234
-48.7496
-51.7866
-55.0546
-58.5763
-62.3778
-66.4894
-70.9464
-75.7905
-81.0706
-86.8448
-93.182
-100.163
-107.874
-116.404
-125.906
-136.596
-146.676
-164.732
-25.094
-26.4625
-27.8903
-29.4335
-31.0852
-32.847
-34.7283
-36.7391
-38.8899
-41.1921
-43.6584
-46.3028
-49.1414
-52.1917
-55.474
-59.0111
-62.8294
-66.9594
-71.4364
-76.3024
-81.6066
-87.4073
-93.7733
-100.785
-108.529
-117.093
-126.629
-137.351
-147.454
-165.526
-25.3783
-26.752
-28.1849
-29.7358
-31.3957
-33.1659
-35.0558
-37.0757
-39.236
-41.5483
-44.0253
-46.6813
-49.532
-52.5956
-55.8921
-59.4446
-63.2797
-67.4278
-71.9249
-76.8127
-82.1409
-87.9679
-94.3626
-101.405
-109.183
-117.78
-127.348
-138.103
-148.228
-166.316
-25.6621
-27.0408
-28.4788
-30.0375
-31.7057
-33.4841
-35.3826
-37.4114
-39.5813
-41.9036
-44.3912
-47.0585
-49.9215
-52.9981
-56.3087
-59.8766
-63.7282
-67.8945
-72.4114
-77.321
-82.6731
-88.5263
-94.9495
-102.023
-109.833
-118.464
-128.064
-138.852
-148.999
-167.101
-25.9461
-27.3294
-28.7725
-30.3389
-32.0153
-33.802
-35.7088
-37.7466
-39.9257
-42.2579
-44.756
-47.4345
-50.3095
-53.399
-56.7236
-60.3066
-64.1747
-68.359
-72.8956
-77.8269
-83.2027
-89.082
-95.5336
-102.638
-110.48
-119.145
-128.777
-139.596
-149.765
-167.882
-26.231
-27.6184
-29.0663
-30.6405
-32.3249
-34.1196
-36.0347
-38.081
-40.2693
-42.6111
-45.1196