/*--------------------------------*- C++ -*----------------------------------*\
  =========                 |
  \\      /  F ield         | OpenFOAM: The Open Source CFD Toolbox
   \\    /   O peration     | Website:  https://openfoam.org
    \\  /    A nd           | Version:  6.0
     \\/     M anipulation  |
\*---------------------------------------------------------------------------*/
FoamFile
{
    version     2.0;
    format      ascii;
    class       volScalarField;
    location    "21";
    object      p;
}
// * * * * * * * * * * * * * * * * * * * * * * * * * * * * * * * * * * * * * //

dimensions      [0 2 -2 0 0 0 0];

internalField   nonuniform List<scalar> 
2400
(
-6.80711
-4.96416
-3.96597
-3.31222
-2.77186
-2.324
-1.956
-1.65061
-1.39444
-1.18178
-7.35886
-5.4764
-4.43124
-3.73142
-3.14873
-2.66358
-2.26358
-1.93102
-1.6516
-1.41975
-7.92804
-6.00208
-4.90649
-4.1577
-3.53037
-3.00623
-2.57314
-2.21273
-1.90974
-1.65881
-8.50874
-6.53603
-5.38664
-4.58607
-3.91197
-3.34742
-2.88037
-2.49171
-2.16513
-1.89562
-9.09484
-7.07258
-5.86633
-5.01137
-4.28861
-3.68244
-3.18082
-2.7637
-2.41371
-2.12629
-9.68032
-7.60597
-6.34008
-5.42845
-4.65548
-4.00686
-3.47032
-3.02471
-2.65145
-2.34633
-10.2596
-8.13057
-6.80249
-5.83225
-5.00799
-4.31659
-3.74538
-3.27175
-2.87551
-2.55267
-10.8281
-8.6413
-7.24835
-6.21778
-5.34138
-4.60716
-4.00184
-3.50105
-3.08307
-2.74641
-11.3815
-9.13354
-7.67313
-6.58077
-5.65147
-4.87379
-4.23336
-3.70418
-3.26602
-2.92572
-11.9113
-9.60212
-8.07355
-6.91909
-5.93688
-5.11507
-4.43703
-3.87527
-3.41386
-3.06242
-15.0675
-14.9734
-14.8197
-14.6117
-14.3522
-14.0439
-13.6906
-13.2963
-12.8655
-12.4026
-12.2553
-12.1991
-12.0889
-11.9276
-11.7176
-11.4615
-11.1624
-10.8238
-10.4491
-10.041
-10.2024
-10.1782
-10.1068
-9.98942
-9.82796
-9.62476
-9.38245
-9.1037
-8.79122
-8.44713
-8.63209
-8.62578
-8.57853
-8.49113
-8.36517
-8.20266
-8.00586
-7.77707
-7.51862
-7.23216
-7.35278
-7.35321
-7.31816
-7.24832
-7.14509
-7.0103
-6.84615
-6.65482
-6.43872
-6.19912
-6.32656
-6.32746
-6.29725
-6.23662
-6.14691
-6.02987
-5.88782
-5.72303
-5.53853
-5.33544
-5.50771
-5.50632
-5.47717
-5.42098
-5.33902
-5.23301
-5.10544
-4.95879
-4.79726
-4.6219
-4.84693
-4.84272
-4.81327
-4.75928
-4.68192
-4.58278
-4.46452
-4.32982
-4.18483
-4.02965
-4.30498
-4.29884
-4.26954
-4.21771
-4.14428
-4.05058
-3.93909
-3.8126
-3.68049
-3.54129
-3.85932
-3.84967
-3.81938
-3.76894
-3.6989
-3.61014
-3.50419
-3.38316
-3.25804
-3.1344
-12.7591
-13.2159
-13.6301
-14.0015
-14.3247
-14.5948
-14.8083
-14.963
-15.0579
-15.0928
-9.9218
-10.3561
-10.7551
-11.1152
-11.4319
-11.7011
-11.9198
-12.0859
-12.1979
-12.2546
-7.93897
-8.33852
-8.70892
-9.04538
-9.34397
-9.60153
-9.81554
-9.98396
-10.1053
-10.1783
-6.53139
-6.89159
-7.22698
-7.53265
-7.80512
-8.0419
-8.24097
-8.40062
-8.51959
-8.59693
-5.45631
-5.77889
-6.07958
-6.35352
-6.59768
-6.81016
-6.9894
-7.13412
-7.24334
-7.31638
-4.63451
-4.92497
-5.19483
-5.43945
-5.65678
-5.84547
-6.00435
-6.1325
-6.22922
-6.29403
-3.99732
-4.26304
-4.50778
-4.7269
-4.92043
-5.08782
-5.22812
-5.3407
-5.42506
-5.48083
-3.48647
-3.73196
-3.95777
-4.15633
-4.33
-4.47946
-4.60418
-4.70369
-4.77755
-4.82538
-3.07894
-3.29787
-3.50578
-3.68856
-3.846
-3.98005
-4.09158
-4.18039
-4.24584
-4.28746
-2.82001
-3.00319
-3.17424
-3.33734
-3.47648
-3.59112
-3.68546
-3.76031
-3.81468
-3.84779
-0.504037
-0.647234
-0.837312
-1.08208
-1.40865
-1.86132
-2.49868
-3.40465
-4.85841
-7.24977
-0.712464
-0.876289
-1.08644
-1.35517
-1.7108
-2.19852
-2.87817
-3.83426
-5.3432
-7.78213
-0.928405
-1.1137
-1.34464
-1.63831
-2.02421
-2.54831
-3.27166
-4.27916
-5.8439
-8.32989
-1.1511
-1.35831
-1.61041
-1.92975
-2.34681
-2.90829
-3.67636
-4.73618
-6.35754
-8.89149
-1.37995
-1.609
-1.88223
-2.22763
-2.67643
-3.27595
-4.08937
-5.20197
-6.88006
-9.46201
-1.61456
-1.86467
-2.15843
-2.5299
-3.01065
-3.64849
-4.50749
-5.67274
-7.40687
-10.0359
-1.85421
-2.1237
-2.43678
-2.83395
-3.34657
-4.02266
-4.92702
-6.14428
-7.93312
-10.6076
-2.09797
-2.38378
-2.71421
-3.13654
-3.68082
-4.39478
-5.34384
-6.61195
-8.45362
-11.1714
-2.34188
-2.63955
-2.98562
-3.43355
-4.00951
-4.76071
-5.7534
-7.0707
-8.96294
-11.722
-2.58043
-2.87855
-3.24404
-3.72119
-4.32887
-5.11619
-6.15097
-7.51498
-9.45464
-12.2535
0.958143
0.94195
0.896978
0.820805
0.695831
0.490545
0.161255
-0.363416
-1.37487
-3.36644
0.880562
0.856409
0.797654
0.70954
0.571968
0.35063
0.00028052
-0.551504
-1.59469
-3.61361
0.783779
0.75126
0.680925
0.580527
0.428739
0.189472
-0.184039
-0.765354
-1.84269
-3.89034
0.668408
0.627597
0.546284
0.432711
0.265156
0.00623489
-0.392385
-1.00561
-2.12035
-4.20082
0.537903
0.487653
0.394529
0.266404
0.0813287
-0.199196
-0.625085
-1.27269
-2.42788
-4.5447
0.393653
0.332273
0.226135
0.0820434
-0.122327
-0.426512
-0.88198
-1.56651
-2.76496
-4.92101
0.236494
0.162132
0.0416982
-0.119771
-0.345201
-0.675125
-1.16252
-1.88656
-3.13103
-5.32889
0.0672368
-0.0219224
-0.157949
-0.338213
-0.586455
-0.944179
-1.46584
-2.23195
-3.52515
-5.76732
-0.113243
-0.218906
-0.371793
-0.572246
-0.845009
-1.23254
-1.79073
-2.60139
-3.94598
-6.23496
-0.304011
-0.427756
-0.598707
-0.820703
-1.11963
-1.53888
-2.13572
-2.99311
-4.39139
-6.73006
1.05069
1.13316
1.18314
1.21546
1.23418
1.24155
1.23973
1.2306
1.21572
1.1963
1.01828
1.09887
1.15494
1.19288
1.21558
1.2256
1.22533
1.21682
1.20179
1.18159
0.984624
1.06318
1.12151
1.16231
1.18741
1.19918
1.19998
1.19188
1.17665
1.15563
0.917787
1
1.06296
1.10807
1.13688
1.15161
1.15455
1.14777
1.13304
1.11171
0.802491
0.892174
0.962433
1.01408
1.0486
1.06811
1.0748
1.07075
1.05774
1.0371
0.610537
0.711483
0.792098
0.85314
0.89607
0.922886
0.935722
0.936618
0.927354
0.909221
0.299642
0.416814
0.512244
0.586873
0.64219
0.680124
0.702744
0.712062
0.709846
0.697322
-0.200444
-0.0608073
0.0553916
0.149221
0.222268
0.276471
0.313897
0.336527
0.346095
0.34379
-1.1806
-1.0121
-0.869272
-0.750886
-0.655014
-0.579522
-0.522252
-0.481295
-0.455036
-0.441856
-3.13818
-2.94048
-2.77204
-2.63035
-2.51275
-2.41677
-2.3401
-2.28104
-2.23818
-2.20839
1.17318
1.1469
1.11746
1.08454
1.04749
1.00556
0.957941
0.904614
0.850241
0.792854
1.15711
1.129
1.09724
1.06147
1.02102
0.974973
0.922133
0.861941
0.797403
0.72132
1.12969
1.09946
1.06486
1.02546
0.980503
0.928921
0.869299
0.800511
0.722892
0.629511
1.08461
1.05242
1.01496
0.971771
0.922017
0.864522
0.79778
0.720367
0.630936
0.523273
1.00962
0.976058
0.936143
0.889386
0.834874
0.771327
0.697145
0.610637
0.509594
0.388747
0.882951
0.849398
0.808173
0.75874
0.700102
0.630859
0.549274
0.453394
0.34063
0.206651
0.675119
0.644216
0.604081
0.554097
0.49315
0.419704
0.331869
0.227471
0.103799
-0.042788
0.330213
0.306441
0.271757
0.225364
0.165996
0.0919629
0.001201
-0.108682
-0.240472
-0.39739
-0.440104
-0.449929
-0.472287
-0.508219
-0.559146
-0.626974
-0.714064
-0.823295
-0.957829
-1.12012
-2.18546
-2.17615
-2.18105
-2.20095
-2.23737
-2.29257
-2.36951
-2.47202
-2.60413
-2.76611
-2.95166
-1.31108
-0.582091
-0.21534
0.0475213
0.241998
0.386391
0.497588
0.583015
0.637906
-3.17342
-1.5327
-0.794437
-0.41335
-0.1352
0.0734499
0.229852
0.349821
0.439694
0.501319
-3.43261
-1.78667
-1.03551
-0.637215
-0.341156
-0.115761
0.0554288
0.188057
0.289403
0.364587
-3.72941
-2.07372
-1.30564
-0.886894
-0.570022
-0.325112
-0.13633
0.0120651
0.128331
0.218708
-4.06386
-2.39403
-1.60498
-1.16245
-0.821854
-0.554792
-0.34598
-0.179542
-0.0464485
0.059755
-4.4358
-2.74744
-1.93339
-1.46376
-1.0966
-0.804933
-0.573991
-0.387769
-0.236562
-0.114009
-4.84468
-3.1333
-2.29023
-1.79023
-1.39375
-1.07517
-0.820215
-0.61273
-0.442354
-0.302886
-5.28962
-3.55046
-2.67425
-2.14063
-1.71214
-1.36442
-1.08368
-0.853573
-0.663058
-0.50608
-5.76896
-3.99703
-3.08346
-2.51296
-2.0498
-1.6708
-1.36257
-1.10856
-0.896988
-0.721924
-6.27791
-4.46981
-3.51517
-2.90459
-2.40414
-1.99173
-1.65439
-1.37524
-1.14176
-0.948101
-0.649379
-0.213476
-0.0713314
0.00910771
0.043761
0.0543268
0.0524276
0.0445592
0.0337252
0.0227786
0.0121891
0.00273268
-0.00414655
-0.0120149
-0.0140344
-0.0206152
-0.0199189
-0.0204782
-0.021592
-0.00766363
-0.848866
-0.323547
-0.14094
-0.0399196
0.00938304
0.0293313
0.0338247
0.0305455
0.0231247
0.0147836
0.00620659
-0.00167606
-0.00735934
-0.0142674
-0.0156195
-0.0216601
-0.0205639
-0.0209602
-0.0219142
-0.0077146
-1.05138
-0.439657
-0.212053
-0.0894121
-0.0251178
0.00453369
0.0155249
0.016848
0.0128133
0.00703262
0.000420108
-0.00593548
-0.0104618
-0.0164393
-0.017154
-0.0226599
-0.0211897
-0.0214238
-0.0222112
-0.00775983
-1.25533
-0.561654
-0.284973
-0.139476
-0.0598786
-0.0201793
-0.00254229
0.00342191
0.00276152
-0.000493962
-0.00518344
-0.0100546
-0.0134598
-0.0185351
-0.0186405
-0.0236171
-0.0217979
-0.0218696
-0.0224828
-0.00779972
-1.45705
-0.686906
-0.358518
-0.189539
-0.0947365
-0.0447973
-0.0203929
-0.00975223
-0.00704717
-0.00780903
-0.0106135
-0.0140402
-0.0163583
-0.0205585
-0.020081
-0.0245338
-0.0223896
-0.0222975
-0.022728
-0.00783412
-1.64987
-0.811897
-0.431629
-0.239142
-0.129493
-0.0692489
-0.0379968
-0.0226643
-0.0166119
-0.0149152
-0.0158734
-0.0178956
-0.0191602
-0.0225118
-0.0214772
-0.0254122
-0.0229656
-0.0227078
-0.0229467
-0.00786315
-1.83527
-0.944573
-0.510758
-0.291492
-0.165496
-0.0941181
-0.0556201
-0.0354452
-0.0260042
-0.0218548
-0.0209899
-0.0216381
-0.0218765
-0.024403
-0.0228332
-0.0262566
-0.0235277
-0.0231018
-0.0231402
-0.00788716
-2.04221
-1.11167
-0.611973
-0.354552
-0.206577
-0.121356
-0.0742849
-0.0486462
-0.0355366
-0.0288119
-0.026074
-0.0253368
-0.0245479
-0.0262593
-0.0241628
-0.0270786
-0.0240819
-0.0234835
-0.023315
-0.00790821
-2.2758
-1.30533
-0.729148
-0.425568
-0.252255
-0.151208
-0.094284
-0.0624849
-0.0453531
-0.0358776
-0.0311804
-0.0290244
-0.0271935
-0.0280909
-0.0254732
-0.0278807
-0.0246312
-0.0238539
-0.0234697
-0.00792722
-2.35258
-1.39401
-0.787893
-0.467048
-0.284129
-0.174216
-0.110469
-0.074045
-0.0537153
-0.0419823
-0.0356363
-0.0322661
-0.0295554
-0.0297175
-0.0266766
-0.0285857
-0.0251372
-0.0241846
-0.0235434
-0.00792702
-2.18246
-1.35237
-0.772729
-0.469866
-0.297129
-0.187826
-0.121681
-0.082977
-0.0606959
-0.0474156
-0.0398188
-0.0354346
-0.0320246
-0.0314088
-0.0280642
-0.0293181
-0.0257163
-0.0245411
-0.0234399
-0.00786926
-1.975
-1.30894
-0.783227
-0.493919
-0.32819
-0.217901
-0.146391
-0.102382
-0.0756654
-0.0588061
-0.048334
-0.0416586
-0.036606
-0.0344932
-0.0303591
-0.0306045
-0.026614
-0.0250685
-0.023402
-0.00778658
-1.72545
-1.23295
-0.78408
-0.511369
-0.353576
-0.246187
-0.171647
-0.122965
-0.0919169
-0.0713882
-0.0578394
-0.0486408
-0.0417455
-0.0379521
-0.03291
-0.0320299
-0.0275929
-0.0255994
-0.0232886
-0.00765321
-1.47014
-1.12947
-0.77134
-0.524584
-0.374685
-0.271613
-0.196108
-0.143583
-0.108431
-0.084325
-0.0676964
-0.0559245
-0.0471259
-0.0415719
-0.0355943
-0.0334942
-0.0286133
-0.0260777
-0.0230189
-0.00746093
-1.24103
-1.01123
-0.741906
-0.530775
-0.391058
-0.29312
-0.218728
-0.163726
-0.124944
-0.097434
-0.0777845
-0.0634352
-0.0526849
-0.0453189
-0.0383729
-0.0349783
-0.0296521
-0.0264636
-0.0225676
-0.00720634
-1.04788
-0.893762
-0.699966
-0.529112
-0.403044
-0.310584
-0.238493
-0.182489
-0.140862
-0.110284
-0.0877932
-0.0709638
-0.0582712
-0.0491047
-0.0411656
-0.0364481
-0.0306635
-0.0267141
-0.0219247
-0.0068872
-0.89671
-0.790799
-0.653598
-0.520348
-0.410392
-0.324015
-0.2547
-0.19888
-0.155396
-0.122273
-0.097253
-0.0781613
-0.0636297
-0.0527658
-0.0438414
-0.0378416
-0.0315815
-0.0267929
-0.0211051
-0.00651151
-0.786564
-0.709477
-0.610537
-0.507332
-0.413329
-0.333562
-0.267112
-0.212124
-0.167705
-0.132705
-0.105599
-0.0845826
-0.0684294
-0.0560768
-0.0462312
-0.039077
-0.0323351
-0.0266961
-0.0201747
-0.00610963
-0.713271
-0.652485
-0.57691
-0.49432
-0.413196
-0.339544
-0.275704
-0.221682
-0.17696
-0.140781
-0.112158
-0.0896788
-0.0722531
-0.0587421
-0.0481263
-0.0400529
-0.0328673
-0.0264816
-0.0192777
-0.00574739
-0.674632
-0.621473
-0.557451
-0.485796
-0.412221
-0.342536
-0.28042
-0.227059
-0.182302
-0.14555
-0.116078
-0.0927484
-0.0745586
-0.0603675
-0.0492625
-0.0406394
-0.0331503
-0.0262835
-0.0186532
-0.00552961
-3.26513
-3.23778
-3.19408
-3.1344
-3.0587
-2.96731
-2.85915
-2.73635
-2.59696
-2.48919
-2.61889
-2.58925
-2.54962
-2.50113
-2.44463
-2.38186
-2.31412
-2.24763
-2.18255
-2.14675
-2.11458
-2.09208
-2.06524
-2.03538
-2.00343
-1.97041
-1.9361
-1.90136
-1.86185
-1.83206
-1.71638
-1.70127
-1.68371
-1.66415
-1.64268
-1.61928
-1.59359
-1.56648
-1.5381
-1.5185
-1.4069
-1.39617
-1.38351
-1.36915
-1.35339
-1.33657
-1.31905
-1.30148
-1.28399
-1.27002
-1.17389
-1.16643
-1.15752
-1.14735
-1.13612
-1.12402
-1.11118
-1.09773
-1.0838
-1.07087
-1.00352
-0.998087
-0.99136
-0.983446
-0.974471
-0.964561
-0.953847
-0.942477
-0.930613
-0.918842
-0.883588
-0.879333
-0.873895
-0.86735
-0.859789
-0.85131
-0.842012
-0.831999
-0.821363
-0.810376
-0.80521
-0.801594
-0.796876
-0.79111
-0.784361
-0.776703
-0.768213
-0.758974
-0.749065
-0.738629
-0.76454
-0.76125
-0.756915
-0.75157
-0.745259
-0.73803
-0.729937
-0.721041
-0.7114
-0.701081
-2.65438
-2.82269
-2.8805
-2.98196
-3.08023
-3.15178
-3.20472
-3.24386
-3.26796
-3.27532
-2.35634
-2.48178
-2.45719
-2.48738
-2.55033
-2.59665
-2.62283
-2.63768
-2.64302
-2.63708
-2.00719
-2.10209
-2.05696
-2.05351
-2.09325
-2.12755
-2.14227
-2.14501
-2.14123
-2.13125
-1.67192
-1.74641
-1.70814
-1.69232
-1.71285
-1.7357
-1.74472
-1.74339
-1.73742
-1.72848
-1.38587
-1.44002
-1.4166
-1.4014
-1.40969
-1.42277
-1.42849
-1.42714
-1.42229
-1.41555
-1.15502
-1.18993
-1.17978
-1.17168
-1.17572
-1.18317
-1.18715
-1.18696
-1.18418
-1.17979
-0.97924
-1.00082
-0.999786
-0.998765
-1.00265
-1.00771
-1.01084
-1.01152
-1.01029
-1.00759
-0.855777
-0.869969
-0.87377
-0.876766
-0.881008
-0.885068
-0.88774
-0.888781
-0.888355
-0.886607
-0.777579
-0.787954
-0.793541
-0.79797
-0.80216
-0.805656
-0.808015
-0.809118
-0.808996
-0.807686
-0.73797
-0.746748
-0.752786
-0.757517
-0.761521
-0.764701
-0.766864
-0.767932
-0.767894
-0.76676
-0.0372157
-0.0441776
-0.0598134
-0.0896401
-0.136599
-0.219107
-0.344462
-0.584123
-0.953017
-1.83647
-0.0804496
-0.0887276
-0.106572
-0.139923
-0.191755
-0.281028
-0.413079
-0.660108
-1.02147
-1.76219
-0.128013
-0.137085
-0.15635
-0.191726
-0.245593
-0.335945
-0.464542
-0.691018
-1.00459
-1.53559
-0.179391
-0.188996
-0.209345
-0.245632
-0.300078
-0.386495
-0.507143
-0.694087
-0.953558
-1.31461
-0.233384
-0.243108
-0.26399
-0.299705
-0.353139
-0.431155
-0.540607
-0.685363
-0.892904
-1.13992
-0.287996
-0.297329
-0.317869
-0.351422
-0.401542
-0.468747
-0.563004
-0.673515
-0.830535
-1.00135
-0.340362
-0.348919
-0.368071
-0.398288
-0.442723
-0.499047
-0.575521
-0.660516
-0.772614
-0.888792
-0.38691
-0.394522
-0.411461
-0.437759
-0.475281
-0.521764
-0.581276
-0.646551
-0.724263
-0.802152
-0.423561
-0.43024
-0.444768
-0.467259
-0.498388
-0.536697
-0.583014
-0.633551
-0.688924
-0.743161
-0.445437
-0.451446
-0.464242
-0.48408
-0.511053
-0.54416
-0.582853
-0.624859
-0.668939
-0.711745
0.218093
0.218142
0.218702
0.217719
0.21427
0.203403
0.178776
0.128909
0.0162748
-0.189275
0.192532
0.191904
0.190791
0.187001
0.179358
0.162089
0.127544
0.0626279
-0.078145
-0.327958
0.167023
0.165726
0.162965
0.156364
0.14454
0.120725
0.0762531
-0.00434229
-0.173758
-0.469734
0.14164
0.139693
0.135327
0.125922
0.109954
0.0794504
0.0251286
-0.0718879
-0.270041
-0.614445
0.116452
0.113883
0.107971
0.0957882
0.0757251
0.0383942
-0.0256294
-0.139958
-0.366397
-0.762406
0.0915251
0.0883729
0.0809824
0.0660638
0.0419637
-0.00231984
-0.075857
-0.208549
-0.462152
-0.914642
0.0669212
0.0632419
0.0544574
0.0368622
0.00877929
-0.0425565
-0.125433
-0.277656
-0.556606
-1.07302
0.0427005
0.0385865
0.0285227
0.00833861
-0.0236789
-0.082143
-0.174291
-0.347233
-0.649145
-1.24093
0.0188913
0.0144271
0.00319612
-0.019485
-0.0554211
-0.121069
-0.222645
-0.417488
-0.739836
-1.42024
-0.0045871
-0.00959326
-0.0221426
-0.0473871
-0.0873922
-0.160069
-0.271308
-0.488329
-0.833062
-1.62871
0.460444
0.466096
0.481134
0.505351
0.540031
0.585733
0.646428
0.720318
0.821642
0.90582
0.438154
0.443228
0.456986
0.478787
0.509828
0.550094
0.603352
0.665945
0.752511
0.823157
0.415383
0.4201
0.432713
0.452235
0.479713
0.514518
0.559871
0.610512
0.67987
0.736222
0.392073
0.39639
0.407802
0.425083
0.449129
0.478784
0.516661
0.556475
0.608679
0.645092
0.368251
0.372076
0.382161
0.397093
0.417598
0.442026
0.472235
0.501141
0.534543
0.545588
0.343974
0.347247
0.355895
0.368357
0.385146
0.404117
0.426124
0.443363
0.455902
0.437965
0.319304
0.321983
0.329111
0.339009
0.351934
0.365244
0.378553
0.383433
0.373478
0.323513
0.294309
0.29636
0.301902
0.30916
0.318105
0.32559
0.329817
0.321794
0.287977
0.202975
0.269058
0.270456
0.274362
0.278917
0.28379
0.285302
0.280137
0.258698
0.199736
0.0768857
0.243627
0.244355
0.246594
0.248397
0.249129
0.244523
0.229716
0.194332
0.109041
-0.0541162
0.847115
0.851918
0.861744
0.876464
0.895198
0.916532
0.938872
0.960512
0.979946
0.995484
0.829241
0.834803
0.84623
0.863391
0.885386
0.910747
0.937793
0.964538
0.989284
1.00963
0.798963
0.805616
0.81936
0.84014
0.867123
0.898846
0.933572
0.968912
1.00285
1.03164
0.759981
0.767717
0.783812
0.808408
0.840869
0.879904
0.92389
0.970115
1.01622
1.05635
0.715455
0.724029
0.742038
0.769896
0.807293
0.853317
0.906758
0.964885
1.02519
1.07902
0.668201
0.677243
0.696453
0.726531
0.76756
0.819175
0.880913
0.950474
1.0258
1.09493
0.620603
0.629709
0.64933
0.680372
0.723309
0.778374
0.846098
0.925015
1.01448
1.09898
0.574494
0.583332
0.602676
0.633476
0.676527
0.732555
0.803174
0.887837
0.988509
1.08565
0.53112
0.53946
0.558072
0.587699
0.629354
0.683993
0.754178
0.839824
0.94658
1.04974
0.491102
0.498481
0.515796
0.543333
0.582272
0.633499
0.700311
0.782028
0.888125
0.987421
1.00252
1.00465
1.00602
1.00698
1.00757
1.00776
1.00751
1.00681
1.00566
1.00407
1.01996
1.02255
1.02361
1.02431
1.02478
1.02487
1.02448
1.0236
1.02226
1.02045
1.0481
1.0516
1.05219
1.05247
1.05274
1.05264
1.052
1.05082
1.04914
1.04695
1.08165
1.0866
1.0867
1.08653
1.08659
1.08625
1.08523
1.08359
1.08138
1.07861
1.11624
1.12337
1.1233
1.12284
1.12275
1.12211
1.12059
1.11829
1.11531
1.11169
1.14795
1.15842
1.15891
1.15862
1.15856
1.15758
1.15538
1.15215
1.14806
1.1432
1.17285
1.18841
1.19091
1.19168
1.19205
1.19078
1.1877
1.18315
1.17741
1.17066
1.18628
1.20958
1.21657
1.22005
1.22162
1.22027
1.21616
1.20985
1.20181
1.19237
1.18238
1.21539
1.23018
1.23906
1.24362
1.24329
1.23862
1.23045
1.21948
1.20627
1.16455
1.21563
1.24289
1.25813
1.26486
1.26395
1.25675
1.24459
1.22852
1.20929
1.00202
0.999536
0.996606
0.993236
0.989433
0.985202
0.980551
0.975486
0.970021
0.964185
1.01818
1.01544
1.01224
1.0086
1.00452
1.00001
0.995107
0.989805
0.984123
0.978216
1.04427
1.0411
1.03744
1.03332
1.02874
1.02373
1.0183
1.01245
1.00618
0.999893
1.07529
1.07144
1.06707
1.06221
1.05686
1.05106
1.04483
1.03811
1.03079
1.02374
1.10746
1.10265
1.0973
1.09143
1.08507
1.07822
1.07088
1.06288
1.05388
1.04546
1.13764
1.13146
1.12472
1.11743
1.10959
1.10118
1.09211
1.08187
1.06978
1.05903
1.16304
1.15468
1.14564
1.13592
1.12544
1.11414
1.10176
1.08711
1.06901
1.05448
1.18178
1.17023
1.15778
1.14431
1.12962
1.11348
1.09533
1.07261
1.04309
1.02119
1.19124
1.17466
1.15651
1.13651
1.11418
1.08904
1.06024
1.02394
0.976614
0.943463
1.18734
1.16279
1.13539
1.10451
1.06933
1.02908
0.983194
0.929367
0.865859
0.823984
0.949136
0.915953
0.872277
0.818092
0.753764
0.680399
0.599608
0.514656
0.429027
0.346513
0.270671
0.203163
0.146348
0.0997132
0.0630687
0.036476
0.0166023
0.00484865
-0.00077765
-0.0025511
0.964009
0.926727
0.877135
0.817277
0.747886
0.670085
0.585916
0.49913
0.413187
0.331601
0.257529
0.192073
0.137606
0.0928413
0.0580991
0.0327648
0.0139184
0.0031235
-0.00221661
-0.00297754
0.987453
0.942693
0.883255
0.81441
0.736844
0.651979
0.562828
0.473708
0.387788
0.308087
0.237041
0.175009
0.124268
0.0824305
0.0506723
0.0272068
0.00998792
0.000553067
-0.00433837
-0.00356391
1.01435
0.958714
0.886974
0.807219
0.719527
0.626507
0.5324
0.441669
0.356782
0.280117
0.213111
0.155466
0.109175
0.0707736
0.0425137
0.0210647
0.00575785
-0.00223845
-0.00664716
-0.00417612
1.0396
0.969171
0.883946
0.792146
0.693601
0.593063
0.495535
0.40493
0.322673
0.250337
0.188249
0.135624
0.094047
0.0592528
0.0345886
0.0150551
0.00174606
-0.00491196
-0.00888901
-0.00475714
1.05619
0.967312
0.869006
0.765227
0.657156
0.551768
0.453719
0.365696
0.287883
0.220988
0.164369
0.11696
0.079975
0.0486823
0.0273999
0.00957419
-0.00180141
-0.00731103
-0.0109355
-0.00527831
1.05487
0.946091
0.837184
0.723999
0.610585
0.504777
0.409742
0.326694
0.254705
0.193809
0.142713
0.100293
0.0675056
0.039417
0.0211319
0.00478687
-0.00481812
-0.00938907
-0.0127312
-0.00572973
1.02443
0.898948
0.785057
0.668496
0.556087
0.454791
0.365964
0.289673
0.224269
0.169457
0.12363
0.085774
0.0567093
0.0314677
0.0157622
0.000699482
-0.00734107
-0.0111596
-0.0142692
-0.00611389
0.954702
0.821888
0.713153
0.601621
0.496759
0.404102
0.323756
0.255269
0.196717
0.14782
0.106901
0.0731676
0.0473945
0.0246659
0.0111718
-0.00276581
-0.00944744
-0.0126601
-0.0155688
-0.0064374
0.848893
0.719239
0.631798
0.532663
0.439598
0.357483
0.286125
0.225239
0.173
0.12936
0.0927188
0.062518
0.0395445
0.0189646
0.00731539
-0.00564873
-0.0111627
-0.0139093
-0.0166295
-0.0066943
0.753841
0.635726
0.577837
0.490759
0.406759
0.331554
0.26548
0.208784
0.159955
0.119063
0.0847247
0.0563981
0.03494
0.0156053
0.00495429
-0.00739966
-0.0121657
-0.0147133
-0.0172654
-0.00683959
0.687485
0.569951
0.525991
0.446449
0.370079
0.30225
0.242376
0.190761
0.146033
0.108418
0.0767115
0.050471
0.0306404
0.012554
0.00289105
-0.00887879
-0.0130145
-0.0153388
-0.0177504
-0.00694517
0.598916
0.495325
0.466058
0.398364
0.331264
0.27162
0.218297
0.171937
0.131435
0.0972187
0.0682548
0.0442088
0.0260936
0.00933414
0.000712461
-0.0104261
-0.0139059
-0.0159827
-0.0182445
-0.00704745
0.493793
0.418758
0.403256
0.350392
0.29357
0.242372
0.195556
0.154258
0.117759
0.0867306
0.0603247
0.0383247
0.0218047
0.00629133
-0.00136247
-0.0118973
-0.0147579
-0.016607
-0.0187256
-0.0071447
0.371906
0.340012
0.337989
0.302102
0.256437
0.213843
0.173545
0.137233
0.104635
0.076695
0.0527484
0.0327098
0.0177102
0.00338975
-0.00334984
-0.0132992
-0.0155724
-0.0172112
-0.0191907
-0.00723627
0.233499
0.258443
0.270967
0.253464
0.219771
0.185854
0.152053
0.120655
0.0918804
0.0669576
0.0454056
0.0272738
0.0137471
0.000586482
-0.00527605
-0.0146478
-0.016359
-0.0177988
-0.0196398
-0.0073221
0.079753
0.173379
0.202977
0.204631
0.183646
0.158452
0.131103
0.10454
0.0795031
0.057521
0.0382948
0.022013
0.00991147
-0.00212249
-0.00714426
-0.0159449
-0.0171199
-0.0183698
-0.0200716
-0.00740216
-0.0875767
0.0841391
0.134586
0.155726
0.148062
0.131645
0.1107
0.088895
0.0675128
0.0483941
0.0314237
0.0169329
0.00620699
-0.00473491
-0.00895308
-0.0171893
-0.0178552
-0.0189237
-0.020484
-0.00747628
-0.266413
-0.0098494
0.066087
0.106829
0.112956
0.105397
0.0908142
0.0737017
0.0558985
0.0395698
0.0247882
0.0120303
0.00263201
-0.00725227
-0.0107031
-0.0183816
-0.018566
-0.0194598
-0.020876
-0.00754462
-0.454493
-0.108985
-0.00248403
0.0579694
0.0782313
0.0796501
0.071406
0.0589334
0.0446427
0.0310359
0.0183798
0.00729923
-0.000817637
-0.00967773
-0.0123962
-0.019523
-0.0192533
-0.019978
-0.0212456
-0.00760695
)
;

boundaryField
{
    inlet
    {
        type            freestreamPressure;
        freestreamValue uniform 0;
        supersonic      false;
        value           nonuniform List<scalar> 
40
(
-0.0372157
-0.0804496
-0.128013
-0.179391
-0.233384
-0.287996
-0.340362
-0.38691
-0.423561
-0.445437
0.218093
0.192532
0.167023
0.14164
0.116452
0.0915251
0.0669212
0.0427005
0.0188913
-0.0045871
0.460444
0.438154
0.415383
0.392073
0.368251
0.343974
0.319304
0.294309
0.269058
0.243627
0.847115
0.829241
0.798963
0.759981
0.715455
0.668201
0.620603
0.574494
0.53112
0.491102
)
;
    }
    outlet
    {
        type            freestreamPressure;
        freestreamValue uniform 0;
        supersonic      false;
        value           nonuniform List<scalar> 
40
(
-5.16833e-06
-5.40088e-06
-5.55714e-06
-5.57035e-06
-5.35178e-06
-4.79951e-06
-3.84838e-06
-2.55134e-06
-1.15953e-06
-1.51523e-07
-3.17054e-06
-3.37176e-06
-3.57744e-06
-3.78587e-06
-3.99519e-06
-4.2032e-06
-4.40759e-06
-4.60648e-06
-4.7968e-06
-4.967e-06
-1.55202e-06
-1.67835e-06
-1.81278e-06
-1.95503e-06
-2.10515e-06
-2.2633e-06
-2.42953e-06
-2.6037e-06
-2.78566e-06
-2.9747e-06
-6.4696e-09
-5.73695e-08
-1.50723e-07
-2.76071e-07
-4.26507e-07
-5.9722e-07
-7.8405e-07
-9.82459e-07
-1.18682e-06
-1.38999e-06
)
;
    }
    top
    {
        type            symmetryPlane;
    }
    bottom
    {
        type            symmetryPlane;
    }
    cylinder
    {
        type            zeroGradient;
    }
    frontandback
    {
        type            empty;
    }
}


// ************************************************************************* //
