/*--------------------------------*- C++ -*----------------------------------*\
  =========                 |
  \\      /  F ield         | OpenFOAM: The Open Source CFD Toolbox
   \\    /   O peration     | Website:  https://openfoam.org
    \\  /    A nd           | Version:  6.0
     \\/     M anipulation  |
\*---------------------------------------------------------------------------*/
FoamFile
{
    version     2.0;
    format      ascii;
    class       volScalarField;
    location    "21";
    object      p;
}
// * * * * * * * * * * * * * * * * * * * * * * * * * * * * * * * * * * * * * //

dimensions      [0 2 -2 0 0 0 0];

internalField   nonuniform List<scalar> 
9600
(
-0.389087
-0.381706
-0.376644
-0.372634
-0.36896
-0.365538
-0.362291
-0.359148
-0.35607
-0.353036
-0.350038
-0.347076
-0.344153
-0.341275
-0.338449
-0.335684
-0.332981
-0.330295
-0.327622
-0.325492
-0.394865
-0.387307
-0.382125
-0.37797
-0.374114
-0.370479
-0.366996
-0.363601
-0.360261
-0.356962
-0.3537
-0.35048
-0.347307
-0.344191
-0.341141
-0.338169
-0.33528
-0.332411
-0.329548
-0.327387
-0.401704
-0.393852
-0.388457
-0.384089
-0.379991
-0.376087
-0.372317
-0.368622
-0.364975
-0.361367
-0.357801
-0.354283
-0.350824
-0.347435
-0.344129
-0.340923
-0.337823
-0.334747
-0.331664
-0.329496
-0.409509
-0.401335
-0.395672
-0.39103
-0.386628
-0.382399
-0.378288
-0.374242
-0.37024
-0.366279
-0.362364
-0.358507
-0.354722
-0.351024
-0.347427
-0.343956
-0.340617
-0.337306
-0.333973
-0.331821
-0.418342
-0.409789
-0.403797
-0.398819
-0.394054
-0.389442
-0.384935
-0.380487
-0.376081
-0.371719
-0.36741
-0.363171
-0.359018
-0.35497
-0.351045
-0.347274
-0.343667
-0.34009
-0.336472
-0.33436
-0.428253
-0.419249
-0.412863
-0.407486
-0.402297
-0.397243
-0.392285
-0.387382
-0.382521
-0.377709
-0.37296
-0.368292
-0.363727
-0.359286
-0.354993
-0.350884
-0.346975
-0.343098
-0.339156
-0.337107
-0.439283
-0.429749
-0.4229
-0.417061
-0.411384
-0.405829
-0.400363
-0.39495
-0.389583
-0.384272
-0.379033
-0.37389
-0.368867
-0.363988
-0.359281
-0.354793
-0.350543
-0.346327
-0.34202
-0.340053
-0.45147
-0.441323
-0.43394
-0.427572
-0.421343
-0.415226
-0.409194
-0.403217
-0.397292
-0.391431
-0.385655
-0.379989
-0.374459
-0.369093
-0.363925
-0.359011
-0.354377
-0.349776
-0.345054
-0.343186
-0.46485
-0.454003
-0.446011
-0.439046
-0.432199
-0.425457
-0.418802
-0.412208
-0.405674
-0.399214
-0.392852
-0.386613
-0.380527
-0.374625
-0.368945
-0.363553
-0.358484
-0.353446
-0.348251
-0.346495
-0.47946
-0.467818
-0.45914
-0.451507
-0.443977
-0.436549
-0.429214
-0.421949
-0.414756
-0.40765
-0.400655
-0.393796
-0.387105
-0.380614
-0.374366
-0.368439
-0.362877
-0.357339
-0.351603
-0.349961
-0.49533
-0.482797
-0.473352
-0.464979
-0.456698
-0.448523
-0.440453
-0.432467
-0.424568
-0.416771
-0.409098
-0.401574
-0.394229
-0.387096
-0.380223
-0.373698
-0.367576
-0.361464
-0.355103
-0.353562
-0.512491
-0.498962
-0.488667
-0.479482
-0.470384
-0.461403
-0.452545
-0.443791
-0.435143
-0.426614
-0.418223
-0.409991
-0.401946
-0.39412
-0.386559
-0.379367
-0.372606
-0.365828
-0.358737
-0.357265
-0.530965
-0.516331
-0.5051
-0.495032
-0.485052
-0.475209
-0.465514
-0.455948
-0.446513
-0.437217
-0.428073
-0.419098
-0.410312
-0.40174
-0.393431
-0.385493
-0.378001
-0.370444
-0.362488
-0.361014
-0.550765
-0.534913
-0.52266
-0.511637
-0.500715
-0.489956
-0.47938
-0.468966
-0.458712
-0.448621
-0.438698
-0.42895
-0.419388
-0.410027
-0.400906
-0.392139
-0.383806
-0.375328
-0.366325
-0.364725
-0.571894
-0.554708
-0.541347
-0.529302
-0.517378
-0.505656
-0.494161
-0.482869
-0.471772
-0.460868
-0.450149
-0.439612
-0.429251
-0.419064
-0.409074
-0.399388
-0.390083
-0.380497
-0.370191
-0.368245
-0.594341
-0.5757
-0.561148
-0.548016
-0.53504
-0.522313
-0.509868
-0.497676
-0.485723
-0.473998
-0.462482
-0.451155
-0.439991
-0.428961
-0.418058
-0.407368
-0.396941
-0.386004
-0.374022
-0.371352
-0.618082
-0.597862
-0.582037
-0.567762
-0.553687
-0.539923
-0.526504
-0.5134
-0.500589
-0.48805
-0.475754
-0.463661
-0.45172
-0.439869
-0.428054
-0.416315
-0.404649
-0.392115
-0.377966
-0.373921
-0.643099
-0.621149
-0.603972
-0.588504
-0.573295
-0.558468
-0.544062
-0.530042
-0.516382
-0.503053
-0.490016
-0.477212
-0.464564
-0.451968
-0.439306
-0.426543
-0.413592
-0.399218
-0.38208
-0.375242
-0.669376
-0.645495
-0.626883
-0.610188
-0.59382
-0.577915
-0.562517
-0.547588
-0.533101
-0.519024
-0.505312
-0.491894
-0.478669
-0.465481
-0.452121
-0.438405
-0.423993
-0.406913
-0.384265
-0.370753
-0.696535
-0.670714
-0.650674
-0.632742
-0.615206
-0.598216
-0.581824
-0.565998
-0.550713
-0.535946
-0.52166
-0.507799
-0.494276
-0.480943
-0.46757
-0.453855
-0.43907
-0.420228
-0.392361
-0.369476
-1.17131
-1.16584
-1.15663
-1.14419
-1.12879
-1.11067
-1.09011
-1.0674
-1.04283
-1.01668
-0.989234
-0.960756
-0.9315
-0.901709
-0.871608
-0.841406
-0.811297
-0.78144
-0.751968
-0.723274
-1.12078
-1.11538
-1.1065
-1.09453
-1.07972
-1.06234
-1.04268
-1.02101
-0.997609
-0.972752
-0.946704
-0.919719
-0.892042
-0.863901
-0.835513
-0.80708
-0.77879
-0.750814
-0.723315
-0.696526
-1.07863
-1.07358
-1.06521
-1.05384
-1.03974
-1.02317
-1.0044
-0.983711
-0.961374
-0.937653
-0.912807
-0.887085
-0.860722
-0.833943
-0.806954
-0.779953
-0.753121
-0.726623
-0.700622
-0.675275
-1.03869
-1.03427
-1.02664
-1.01609
-1.00287
-0.987234
-0.969458
-0.949811
-0.92856
-0.905966
-0.882283
-0.857756
-0.832616
-0.807084
-0.781363
-0.755644
-0.730104
-0.704904
-0.680193
-0.65611
-0.998145
-0.994604
-0.987934
-0.978397
-0.966231
-0.951692
-0.935043
-0.916547
-0.896467
-0.875062
-0.852582
-0.829267
-0.805348
-0.781041
-0.756549
-0.732061
-0.70775
-0.683774
-0.660275
-0.637385
-0.957551
-0.955077
-0.949537
-0.941172
-0.93021
-0.916896
-0.901485
-0.884234
-0.8654
-0.845236
-0.82399
-0.801899
-0.779191
-0.756081
-0.732772
-0.709452
-0.686294
-0.663455
-0.641078
-0.619292
-0.917288
-0.916002
-0.91171
-0.90463
-0.894979
-0.882989
-0.868906
-0.852975
-0.835449
-0.816572
-0.796588
-0.775732
-0.754228
-0.732289
-0.710119
-0.687905
-0.665822
-0.644032
-0.622679
-0.601899
-0.877568
-0.877533
-0.874552
-0.868825
-0.860553
-0.849955
-0.837263
-0.822712
-0.806543
-0.788995
-0.770303
-0.750697
-0.730396
-0.709611
-0.688545
-0.667384
-0.646307
-0.62548
-0.605055
-0.585176
-0.838623
-0.839846
-0.838193
-0.833843
-0.826981
-0.81781
-0.806547
-0.793414
-0.778641
-0.762455
-0.745082
-0.726743
-0.707652
-0.688014
-0.668026
-0.647875
-0.627741
-0.607794
-0.588197
-0.56911
-0.800672
-0.803119
-0.80277
-0.799783
-0.794327
-0.786589
-0.776767
-0.765071
-0.751716
-0.736916
-0.720885
-0.703833
-0.685964
-0.667474
-0.648551
-0.629377
-0.610129
-0.590983
-0.572112
-0.553694
-0.763901
-0.767505
-0.768404
-0.766736
-0.762653
-0.756325
-0.747934
-0.737674
-0.725743
-0.712343
-0.697674
-0.68193
-0.665302
-0.647972
-0.630113
-0.611897
-0.59349
-0.575067
-0.556811
-0.53892
-0.728457
-0.733129
-0.735196
-0.734778
-0.732011
-0.727047
-0.720055
-0.711211
-0.700697
-0.688701
-0.675406
-0.660991
-0.645629
-0.629483
-0.612705
-0.595444
-0.577849
-0.56008
-0.542322
-0.524786
-0.694447
-0.700084
-0.703223
-0.703968
-0.702441
-0.698779
-0.693135
-0.68567
-0.676552
-0.665952
-0.654039
-0.640973
-0.626908
-0.611983
-0.596322
-0.58004
-0.563251
-0.54608
-0.528697
-0.511301
-0.661943
-0.668435
-0.67254
-0.67435
-0.673974
-0.671536
-0.667174
-0.661037
-0.65328
-0.644058
-0.633526
-0.621828
-0.609097
-0.595444
-0.58096
-0.565715
-0.549762
-0.53316
-0.516031
-0.498501
-0.630984
-0.638218
-0.643181
-0.645951
-0.646628
-0.645325
-0.642168
-0.637295
-0.630849
-0.622976
-0.613817
-0.603502
-0.592144
-0.57983
-0.566612
-0.552503
-0.537473
-0.521466
-0.504499
-0.486488
-0.601583
-0.609447
-0.615154
-0.618775
-0.6204
-0.620132
-0.61809
-0.614403
-0.609206
-0.602637
-0.594827
-0.585899
-0.575953
-0.565051
-0.553213
-0.540389
-0.526444
-0.511151
-0.494346
-0.475498
-0.573733
-0.58212
-0.588462
-0.592822
-0.595283
-0.595943
-0.594915
-0.592321
-0.588291
-0.582959
-0.576454
-0.568895
-0.560376
-0.550951
-0.540614
-0.529266
-0.516652
-0.502312
-0.48582
-0.465797
-0.547407
-0.55625
-0.563153
-0.568174
-0.571392
-0.572901
-0.572808
-0.571233
-0.568306
-0.564159
-0.558925
-0.552725
-0.54566
-0.537788
-0.529103
-0.51948
-0.508569
-0.495624
-0.479757
-0.457634
-0.522522
-0.531798
-0.539237
-0.544897
-0.548853
-0.551199
-0.55204
-0.551499
-0.549707
-0.546802
-0.542924
-0.538207
-0.532767
-0.526687
-0.519987
-0.512583
-0.50413
-0.493686
-0.479695
-0.454125
-0.498973
-0.508305
-0.515917
-0.521865
-0.526224
-0.529086
-0.530562
-0.530775
-0.529866
-0.527985
-0.525289
-0.521938
-0.518088
-0.513874
-0.509409
-0.504762
-0.49983
-0.494016
-0.48681
-0.466499
-0.410363
-0.481073
-0.549501
-0.615835
-0.679667
-0.740616
-0.798357
-0.852599
-0.903079
-0.949567
-0.991871
-1.02984
-1.06335
-1.09233
-1.11674
-1.13658
-1.1519
-1.16277
-1.16927
-1.17176
-0.395445
-0.463496
-0.529457
-0.593249
-0.654523
-0.712945
-0.76822
-0.820075
-0.868268
-0.912584
-0.952846
-0.988911
-1.02068
-1.04808
-1.07109
-1.08973
-1.10404
-1.11412
-1.12006
-1.12213
-0.373313
-0.439303
-0.50339
-0.565358
-0.624877
-0.681632
-0.735337
-0.785728
-0.832568
-0.87565
-0.914801
-0.949883
-0.980796
-1.00748
-1.0299
-1.04809
-1.06209
-1.07198
-1.07789
-1.07999
-0.345216
-0.409325
-0.471707
-0.532093
-0.590157
-0.645591
-0.698113
-0.747461
-0.793399
-0.83572
-0.874252
-0.908853
-0.939422
-0.965891
-0.988232
-1.00645
-1.0206
-1.03076
-1.03702
-1.03956
-0.313316
-0.375479
-0.436097
-0.494875
-0.551495
-0.605652
-0.657066
-0.705477
-0.750649
-0.792375
-0.830476
-0.86481
-0.895267
-0.921773
-0.944291
-0.96282
-0.977396
-0.988088
-0.994988
-0.998242
-0.279715
-0.339864
-0.398648
-0.455765
-0.510904
-0.563768
-0.614079
-0.66158
-0.706033
-0.747231
-0.78499
-0.819164
-0.849634
-0.876319
-0.89917
-0.918177
-0.933361
-0.944777
-0.952506
-0.956675
-0.246021
-0.304097
-0.360979
-0.416372
-0.469974
-0.521497
-0.570668
-0.61723
-0.660948
-0.701612
-0.739039
-0.773074
-0.803593
-0.830507
-0.853756
-0.873317
-0.889197
-0.901439
-0.910108
-0.915312
-0.213365
-0.269322
-0.324249
-0.377859
-0.429865
-0.479986
-0.527954
-0.573518
-0.616443
-0.656521
-0.693566
-0.72742
-0.757956
-0.785076
-0.808711
-0.828825
-0.845415
-0.858505
-0.868149
-0.874435
-0.182479
-0.236297
-0.289238
-0.341027
-0.39139
-0.440056
-0.486761
-0.531258
-0.573318
-0.612733
-0.649318
-0.682916
-0.713394
-0.74065
-0.764607
-0.785221
-0.802474
-0.816379
-0.826975
-0.834331
-0.153785
-0.205469
-0.256419
-0.306376
-0.355073
-0.402247
-0.447641
-0.491012
-0.532136
-0.570807
-0.606846
-0.640095
-0.670421
-0.697719
-0.721907
-0.742931
-0.760766
-0.775412
-0.786893
-0.795265
-0.127469
-0.177047
-0.226029
-0.274166
-0.321199
-0.366869
-0.410923
-0.453123
-0.49325
-0.531107
-0.566516
-0.599324
-0.629399
-0.656635
-0.680948
-0.702277
-0.72059
-0.735877
-0.748151
-0.757453
-0.103559
-0.151071
-0.198131
-0.244487
-0.28988
-0.334054
-0.376759
-0.417762
-0.456851
-0.493833
-0.528541
-0.560824
-0.590555
-0.617627
-0.641957
-0.663482
-0.682161
-0.697977
-0.710935
-0.721063
-0.0819746
-0.127468
-0.17267
-0.217304
-0.261104
-0.303811
-0.345177
-0.384974
-0.422997
-0.459064
-0.493012
-0.5247
-0.554004
-0.580822
-0.605068
-0.62668
-0.645614
-0.661846
-0.675374
-0.686216
-0.0625668
-0.106084
-0.149512
-0.192503
-0.234772
-0.276058
-0.31611
-0.354708
-0.391656
-0.426781
-0.459929
-0.490967
-0.519778
-0.546261
-0.570336
-0.591938
-0.611022
-0.62756
-0.641544
-0.652986
-0.0451451
-0.0867288
-0.128487
-0.169929
-0.210744
-0.250666
-0.289444
-0.326863
-0.362739
-0.396911
-0.429234
-0.459582
-0.487847
-0.513932
-0.537759
-0.559265
-0.578405
-0.595147
-0.609482
-0.621412
-0.0294865
-0.0692332
-0.10947
-0.149469
-0.188913
-0.227535
-0.265081
-0.301347
-0.336162
-0.369376
-0.400857
-0.430487
-0.458164
-0.483797
-0.507311
-0.528646
-0.547756
-0.564609
-0.579192
-0.591505
-0.0152979
-0.0533501
-0.0922686
-0.130939
-0.169096
-0.206481
-0.242842
-0.277986
-0.31176
-0.344026
-0.374661
-0.403558
-0.43062
-0.455763
-0.478915
-0.500019
-0.519028
-0.535911
-0.550653
-0.563251
-0.00195858
-0.0380822
-0.0758962
-0.113409
-0.150415
-0.186678
-0.22195
-0.256059
-0.288865
-0.320246
-0.35009
-0.378296
-0.404775
-0.429447
-0.452244
-0.473111
-0.492002
-0.508887
-0.523747
-0.536581
0.0115794
-0.0221351
-0.0591903
-0.0958952
-0.132048
-0.167417
-0.201781
-0.235005
-0.266976
-0.297585
-0.326732
-0.354327
-0.380287
-0.404538
-0.427017
-0.44767
-0.466455
-0.483343
-0.498316
-0.51137
0.0223512
-0.0119984
-0.0492215
-0.0852586
-0.120555
-0.154933
-0.188198
-0.220287
-0.251131
-0.280642
-0.308738
-0.335345
-0.360391
-0.383815
-0.405561
-0.425584
-0.443847
-0.460325
-0.475004
-0.487882
0.544223
0.554735
0.565617
0.57677
0.588175
0.599803
0.611605
0.623516
0.635462
0.647352
0.659093
0.670593
0.681785
0.692655
0.703302
0.714019
0.72525
0.737663
0.754574
0.781576
0.53279
0.542702
0.553159
0.563838
0.574705
0.585749
0.596917
0.608138
0.619326
0.630387
0.641217
0.651719
0.66182
0.671505
0.680883
0.690267
0.700147
0.71127
0.727082
0.753392
0.519444
0.52861
0.538552
0.548661
0.558882
0.569224
0.579633
0.590028
0.600318
0.610397
0.620157
0.629494
0.638331
0.646657
0.654593
0.662481
0.67086
0.680569
0.695178
0.720662
0.504215
0.512493
0.521834
0.531278
0.540745
0.55027
0.559798
0.569238
0.578489
0.58744
0.595974
0.603983
0.611389
0.618188
0.624517
0.630749
0.637481
0.64564
0.658894
0.683309
0.487139
0.494396
0.50305
0.511737
0.520346
0.528942
0.53747
0.545828
0.553905
0.561584
0.568742
0.575267
0.581083
0.586193
0.590754
0.595177
0.600119
0.606599
0.61836
0.641505
0.46826
0.474368
0.482256
0.490097
0.497747
0.505307
0.512721
0.519874
0.526648
0.532919
0.538557
0.543449
0.547521
0.550789
0.553432
0.555902
0.558921
0.563602
0.573745
0.595444
0.447624
0.452467
0.459515
0.466426
0.473021
0.479442
0.485632
0.491466
0.496815
0.501548
0.505531
0.508649
0.510835
0.512117
0.512704
0.513088
0.514061
0.516832
0.525241
0.545335
0.425284
0.428757
0.434897
0.440797
0.446247
0.451434
0.4563
0.460706
0.464515
0.46759
0.469793
0.471008
0.471176
0.470342
0.468745
0.466924
0.465742
0.466504
0.473074
0.491409
0.401293
0.403306
0.408478
0.413293
0.417516
0.42138
0.424828
0.427708
0.429873
0.43118
0.431488
0.430683
0.428714
0.425648
0.421755
0.417624
0.414191
0.412859
0.417496
0.433929
0.375708
0.376185
0.380339
0.384004
0.386924
0.389388
0.391335
0.3926
0.393027
0.392467
0.390778
0.38785
0.383641
0.378241
0.371956
0.365426
0.359663
0.356164
0.358784
0.373182
0.348585
0.347471
0.350568
0.353025
0.354578
0.355573
0.355948
0.355521
0.354129
0.351617
0.347843
0.342702
0.336165
0.328346
0.31959
0.310591
0.302433
0.29671
0.297241
0.30948
0.319981
0.31724
0.319255
0.320459
0.320593
0.320064
0.318806
0.316623
0.313343
0.308809
0.302877
0.295449
0.286513
0.276209
0.264922
0.2534
0.242801
0.23481
0.233193
0.243157
0.289955
0.285577
0.286499
0.286417
0.285094
0.283
0.280064
0.276074
0.270852
0.264237
0.25609
0.246319
0.234931
0.222093
0.208233
0.194153
0.181085
0.170799
0.166985
0.174571
0.258566
0.252571
0.252408
0.251024
0.248221
0.244535
0.239888
0.234055
0.22685
0.218114
0.207709
0.195556
0.181678
0.166277
0.149821
0.133168
0.117619
0.105026
0.0989819
0.104095
0.225884
0.218324
0.217105
0.214421
0.210132
0.204843
0.198467
0.190767
0.181553
0.170666
0.157977
0.143416
0.127032
0.109055
0.0900005
0.0707776
0.0527554
0.0378572
0.0295611
0.0321243
0.191973
0.182951
0.180735
0.176777
0.171014
0.164123
0.156012
0.14643
0.135191
0.122138
0.10715
0.0901737
0.0712807
0.0507367
0.0290988
0.00732804
-0.0131444
-0.03033
-0.0408872
-0.0409373
0.156916
0.146587
0.143479
0.138298
0.131089
0.122607
0.112758
0.101288
0.0880132
0.0727867
0.0554981
0.0361125
0.0147261
-0.00836058
-0.0325476
-0.0568262
-0.0797093
-0.0991524
-0.111968
-0.114673
0.120874
0.10951
0.105672
0.0993059
0.0906532
0.0805761
0.0689779
0.0556054
0.0402852
0.0228827
0.0033013
-0.018475
-0.0423237
-0.06791
-0.0945932
-0.121322
-0.14656
-0.168218
-0.183272
-0.188641
0.0832618
0.0717895
0.0676765
0.0601784
0.050054
0.0383447
0.0249598
0.00965594
-0.00772393
-0.0273012
-0.0491582
-0.0732918
-0.0995536
-0.127576
-0.156681
-0.185781
-0.2133
-0.237115
-0.254376
-0.262376
0.0423853
0.0329399
0.0291869
0.0208519
0.00944677
-0.00385447
-0.0190523
-0.036314
-0.0557625
-0.0775037
-0.101606
-0.128047
-0.156655
-0.187032
-0.218468
-0.249849
-0.279573
-0.305507
-0.325038
-0.33587
0.374519
0.376684
0.385354
0.391408
0.395588
0.399104
0.402227
0.405027
0.407609
0.410104
0.412673
0.415514
0.418881
0.423073
0.428411
0.435184
0.443527
0.453221
0.463235
0.470816
0.404478
0.40444
0.411141
0.416856
0.421453
0.425707
0.429749
0.43357
0.437228
0.440827
0.444504
0.448443
0.45288
0.458105
0.46444
0.472186
0.481505
0.492227
0.503636
0.513624
0.42905
0.429065
0.435252
0.441217
0.446455
0.451499
0.456437
0.461243
0.465947
0.470627
0.475401
0.480431
0.485938
0.492197
0.499524
0.508228
0.518496
0.530206
0.542958
0.555254
0.450564
0.451521
0.45795
0.464415
0.470358
0.476207
0.482035
0.487805
0.493533
0.499277
0.505133
0.511248
0.517819
0.525107
0.533417
0.543065
0.554254
0.566906
0.580907
0.595303
0.470206
0.472286
0.479186
0.486247
0.492932
0.4996
0.506315
0.513036
0.519768
0.526554
0.533473
0.540651
0.548269
0.556566
0.565835
0.576394
0.588461
0.601994
0.617154
0.633505
0.4881
0.491343
0.498812
0.50653
0.513986
0.521485
0.52908
0.536736
0.544449
0.552249
0.560201
0.568413
0.577046
0.586319
0.59651
0.607934
0.62082
0.635164
0.651389
0.669574
0.504312
0.50871
0.516779
0.525168
0.533396
0.541713
0.55017
0.558733
0.567392
0.576168
0.585113
0.594317
0.60392
0.614121
0.625183
0.637413
0.65105
0.666123
0.683313
0.703209
0.51886
0.524377
0.533043
0.542085
0.551058
0.560164
0.569446
0.578872
0.58843
0.598132
0.608015
0.618154
0.628668
0.639737
0.651603
0.664568
0.678875
0.694587
0.712636
0.734111
0.531732
0.53831
0.547547
0.557205
0.566879
0.576726
0.586782
0.597016
0.607412
0.617974
0.628728
0.63973
0.651082
0.662941
0.675531
0.689146
0.704031
0.720283
0.739077
0.761994
0.542901
0.550467
0.560236
0.570459
0.580776
0.591302
0.602066
0.613038
0.624198
0.635541
0.647082
0.658863
0.670964
0.683522
0.696741
0.710907
0.726267
0.742952
0.76237
0.786582
0.552334
0.560801
0.571052
0.581777
0.592667
0.6038
0.615194
0.626821
0.638657
0.650691
0.662924
0.675383
0.688131
0.701281
0.715022
0.729626
0.745348
0.762348
0.782265
0.807618
0.559996
0.569262
0.579935
0.591093
0.602477
0.614133
0.626069
0.638259
0.650674
0.663294
0.676111
0.689136
0.702413
0.716037
0.730177
0.745097
0.761054
0.778247
0.79853
0.824865
0.565849
0.575803
0.58683
0.598345
0.610136
0.622223
0.634606
0.647256
0.660141
0.673234
0.686514
0.69998
0.713658
0.727624
0.742029
0.757128
0.773188
0.790442
0.810954
0.838106
0.569858
0.580377
0.591686
0.603475
0.615582
0.628001
0.640726
0.653726
0.666964
0.680405
0.69402
0.707791
0.72173
0.735893
0.750418
0.765552
0.781571
0.798749
0.819348
0.847148
0.571991
0.582944
0.594455
0.606432
0.618756
0.631405
0.644361
0.657593
0.671059
0.684717
0.698527
0.712458
0.726508
0.740715
0.755204
0.77022
0.786047
0.803006
0.823549
0.851827
0.572219
0.583468
0.595097
0.607173
0.619613
0.632381
0.645453
0.658794
0.672357
0.686093
0.699951
0.71389
0.727892
0.741981
0.75627
0.771004
0.786484
0.803077
0.823417
0.852001
0.570518
0.58192
0.593581
0.605664
0.618114
0.630889
0.643957
0.657278
0.670802
0.684471
0.698226
0.712012
0.7258
0.739601
0.75352
0.767804
0.782774
0.79885
0.818841
0.847561
0.566873
0.578279
0.589883
0.601878
0.614232
0.626897
0.639837
0.653008
0.666353
0.679806
0.693299
0.706768
0.72017
0.733508
0.74688
0.76054
0.774834
0.79024
0.809735
0.838437
0.561274
0.572534
0.583989
0.5958
0.607948
0.620386
0.633072
0.645958
0.658981
0.672066
0.685137
0.698119
0.71096
0.723654
0.736299
0.749157
0.762605
0.777185
0.796044
0.824598
0.55372
0.564681
0.575895
0.587426
0.599257
0.611348
0.623656
0.636121
0.648676
0.66124
0.673726
0.686051
0.698154
0.710024
0.72176
0.733635
0.746061
0.759649
0.777688
0.805864
0.3618
0.343564
0.319298
0.293939
0.26805
0.241974
0.215966
0.190122
0.164518
0.139239
0.11436
0.0899546
0.0660866
0.0428161
0.0201961
-0.00172782
-0.022918
-0.0433455
-0.0629902
-0.0818405
0.361739
0.343078
0.319418
0.294019
0.267919
0.241498
0.215006
0.188602
0.162407
0.136526
0.11105
0.0860629
0.0616402
0.0378495
0.0147503
-0.00760603
-0.0291774
-0.0499312
-0.0698439
-0.0889004
0.365056
0.343114
0.318338
0.292322
0.265677
0.238689
0.211605
0.184608
0.157839
0.131416
0.105442
0.0800074
0.0551951
0.0310773
0.00771734
-0.0148306
-0.0365223
-0.0573237
-0.0772107
-0.0961672
0.368114
0.34393
0.318054
0.29123
0.263845
0.236147
0.208374
0.180715
0.153319
0.126315
0.0998136
0.0739142
0.0487033
0.0242574
0.000642209
-0.0220867
-0.0438846
-0.0647182
-0.0845645
-0.103409
0.370502
0.344767
0.31786
0.290162
0.26197
0.233518
0.205029
0.17669
0.148659
0.121072
0.0940489
0.0676929
0.0420963
0.0173389
-0.00651131
-0.0293982
-0.0512776
-0.0721176
-0.0918974
-0.110606
0.372555
0.345439
0.317453
0.28882
0.259778
0.230544
0.201324
0.172306
0.14365
0.115499
0.0879788
0.0611979
0.0352525
0.0102249
-0.0138158
-0.0368136
-0.0587257
-0.079523
-0.0991878
-0.117714
0.374354
0.345936
0.316845
0.287235
0.25731
0.227269
0.19731
0.167614
0.138348
0.109656
0.0816683
0.0544988
0.0282456
0.00299241
-0.0211916
-0.044252
-0.0661488
-0.0868568
-0.106363
-0.124667
0.375914
0.346269
0.316074
0.285471
0.254644
0.223785
0.193083
0.162719
0.13286
0.103653
0.0752311
0.0477105
0.0211905
-0.00424516
-0.0285289
-0.0516089
-0.0734495
-0.0940306
-0.113345
-0.1314
0.377304
0.346483
0.3152
0.283601
0.251868
0.22019
0.188753
0.157737
0.127307
0.0976145
0.0687927
0.0409583
0.0142106
-0.0113684
-0.0357139
-0.0587786
-0.080532
-0.100961
-0.120064
-0.137859
0.378635
0.346677
0.314326
0.28174
0.249109
0.216622
0.184464
0.152816
0.121842
0.0916932
0.0625036
0.0343888
0.00744604
-0.0182456
-0.0426259
-0.065653
-0.0873033
-0.107571
-0.126462
-0.144003
0.380061
0.347
0.313607
0.280056
0.246543
0.213264
0.180405
0.148146
0.116651
0.0860718
0.0565395
0.0281676
0.00105021
-0.0247383
-0.0491433
-0.0721295
-0.0936808
-0.113799
-0.132499
-0.149817
0.381784
0.347658
0.313255
0.278764
0.244393
0.210342
0.1768
0.143948
0.11195
0.0809539
0.0510898
0.0224673
-0.00482405
-0.0307155
-0.0551589
-0.0781262
-0.0996093
-0.119618
-0.138174
-0.155324
0.384061
0.348907
0.31353
0.278128
0.24292
0.208114
0.173901
0.140463
0.107962
0.0765451
0.0463378
0.0174459
-0.0100464
-0.0360765
-0.0606029
-0.0836049
-0.105082
-0.125051
-0.143539
-0.160606
0.387194
0.351048
0.314729
0.278437
0.242406
0.206848
0.171959
0.13792
0.104892
0.0730205
0.0424268
0.0132123
-0.0145442
-0.0407857
-0.065477
-0.0886038
-0.110172
-0.130205
-0.148735
-0.165829
0.391497
0.354387
0.317141
0.279964
0.2431
0.206769
0.171168
0.136479
0.102863
0.0704627
0.0393968
0.00976276
-0.018365
-0.0449342
-0.0699146
-0.0932968
-0.115092
-0.135326
-0.154034
-0.171293
0.397239
0.359164
0.320977
0.282883
0.245138
0.207968
0.171575
0.136139
0.101824
0.06877
0.0370947
0.00689312
-0.0217625
-0.0488228
-0.07426
-0.0980676
-0.120259
-0.140862
-0.15991
-0.177488
0.404526
0.36545
0.326264
0.287176
0.248455
0.210334
0.173017
0.136688
0.101511
0.0676276
0.035157
0.00419429
-0.025188
-0.0529404
-0.0790352
-0.103466
-0.126245
-0.147399
-0.166959
-0.185012
0.413105
0.372935
0.332635
0.292422
0.252578
0.213341
0.174918
0.1375
0.101255
0.0663271
0.0328398
0.000892324
-0.0294394
-0.0581024
-0.0850659
-0.11032
-0.133876
-0.155756
-0.175987
-0.194652
0.421805
0.38015
0.338324
0.296593
0.255231
0.21448
0.174553
0.135648
0.0979405
0.0615839
0.0267097
-0.00657451
-0.0381848
-0.068061
-0.0961665
-0.122487
-0.147029
-0.169817
-0.190883
-0.21028
0.427769
0.383667
0.339389
0.295301
0.251627
0.208593
0.166423
0.125323
0.0854838
0.0470726
0.0102355
-0.024906
-0.0582552
-0.0897411
-0.119319
-0.146969
-0.1727
-0.196555
-0.21861
-0.238843
-0.0999135
-0.117193
-0.13371
-0.149497
-0.164591
-0.17904
-0.192896
-0.206216
-0.219058
-0.23148
-0.243541
-0.255295
-0.2668
-0.278113
-0.289302
-0.300451
-0.311473
-0.321951
-0.331879
-0.327603
-0.107121
-0.124478
-0.141004
-0.156726
-0.171681
-0.185908
-0.199456
-0.212375
-0.224716
-0.236529
-0.247863
-0.258761
-0.269262
-0.279389
-0.289143
-0.298459
-0.30703
-0.314044
-0.318136
-0.309701
-0.11422
-0.131331
-0.14754
-0.162877
-0.177376
-0.191082
-0.204044
-0.216314
-0.227947
-0.238995
-0.249506
-0.259521
-0.269069
-0.278156
-0.286739
-0.294683
-0.301616
-0.306801
-0.309274
-0.304363
-0.121288
-0.138156
-0.154061
-0.169036
-0.183122
-0.196366
-0.208821
-0.220544
-0.231591
-0.242017
-0.251872
-0.261195
-0.27001
-0.278312
-0.286046
-0.293069
-0.299058
-0.303461
-0.305617
-0.303135
-0.12829
-0.144896
-0.160483
-0.17509
-0.188762
-0.201552
-0.213517
-0.224719
-0.235217
-0.245071
-0.254331
-0.263039
-0.271218
-0.278862
-0.285923
-0.292278
-0.297678
-0.301733
-0.303969
-0.303104
-0.13516
-0.151466
-0.166701
-0.180913
-0.194152
-0.206477
-0.21795
-0.228639
-0.238609
-0.247923
-0.256635
-0.264791
-0.272418
-0.279516
-0.286051
-0.291929
-0.29697
-0.300911
-0.303433
-0.303884
-0.141841
-0.157818
-0.172681
-0.186486
-0.199289
-0.211155
-0.222154
-0.232359
-0.241839
-0.250664
-0.258892
-0.266574
-0.273743
-0.280408
-0.28655
-0.292103
-0.296945
-0.300898
-0.30376
-0.305214
-0.148284
-0.16392
-0.178407
-0.191811
-0.204193
-0.215625
-0.226185
-0.235949
-0.244994
-0.253392
-0.261209
-0.268498
-0.275299
-0.281632
-0.287488
-0.292825
-0.297561
-0.301576
-0.304739
-0.306899
-0.154451
-0.169751
-0.183876
-0.1969
-0.208893
-0.219932
-0.2301
-0.23948
-0.248152
-0.256192
-0.263671
-0.270646
-0.277161
-0.283241
-0.28889
-0.294082
-0.29876
-0.302841
-0.306234
-0.308868
-0.160319
-0.175308
-0.189104
-0.201791
-0.213443
-0.224144
-0.233981
-0.243042
-0.25141
-0.259165
-0.266378
-0.27311
-0.279407
-0.285301
-0.290799
-0.295886
-0.300522
-0.304648
-0.308198
-0.311134
-0.165897
-0.18062
-0.194141
-0.20655
-0.217926
-0.228359
-0.237938
-0.246754
-0.254892
-0.262432
-0.269449
-0.276003
-0.282141
-0.287896
-0.293279
-0.298282
-0.302874
-0.307012
-0.310644
-0.31375
-0.171232
-0.18576
-0.199079
-0.211288
-0.22247
-0.232716
-0.242118
-0.250768
-0.258751
-0.266149
-0.273033
-0.279464
-0.285489
-0.291139
-0.296428
-0.30135
-0.305884
-0.309994
-0.31364
-0.31681
-0.176433
-0.190857
-0.204068
-0.216173
-0.227254
-0.237404
-0.246717
-0.255282
-0.263186
-0.270507
-0.277315
-0.283669
-0.289615
-0.295181
-0.300383
-0.305218
-0.309668
-0.313707
-0.317301
-0.320448
-0.181689
-0.196122
-0.209338
-0.221446
-0.23253
-0.242681
-0.251992
-0.260553
-0.268447
-0.275751
-0.282531
-0.288843
-0.294731
-0.300223
-0.305334
-0.310062
-0.314397
-0.318316
-0.321796
-0.324838
-0.187321
-0.201892
-0.215235
-0.227461
-0.238653
-0.248901
-0.258296
-0.266925
-0.27487
-0.282204
-0.288991
-0.295283
-0.301123
-0.306537
-0.31154
-0.316134
-0.320312
-0.32406
-0.327358
-0.330216
-0.193831
-0.208676
-0.222269
-0.234727
-0.246127
-0.256557
-0.266107
-0.274863
-0.282903
-0.290297
-0.297108
-0.303385
-0.309169
-0.314486
-0.319352
-0.323772
-0.327743
-0.331257
-0.334301
-0.336891
-0.201812
-0.217058
-0.231016
-0.243802
-0.255489
-0.266166
-0.27592
-0.284836
-0.292991
-0.300454
-0.307284
-0.313532
-0.319235
-0.32442
-0.329105
-0.333298
-0.337002
-0.340214
-0.342925
-0.345154
-0.212011
-0.227755
-0.24216
-0.255334
-0.267351
-0.278299
-0.288267
-0.29734
-0.305595
-0.3131
-0.319917
-0.326092
-0.331666
-0.336665
-0.341109
-0.345011
-0.348379
-0.351214
-0.353514
-0.355284
-0.22816
-0.244443
-0.259311
-0.272847
-0.285137
-0.296277
-0.306361
-0.315479
-0.323711
-0.33113
-0.337796
-0.34376
-0.34906
-0.353726
-0.35778
-0.361237
-0.36411
-0.36642
-0.36818
-0.36933
-0.256849
-0.273624
-0.288853
-0.302564
-0.31489
-0.325954
-0.335866
-0.344726
-0.352626
-0.359644
-0.365846
-0.371283
-0.375996
-0.380012
-0.383356
-0.386045
-0.388108
-0.389603
-0.390618
-0.390928
-0.389435
-0.369778
-0.356642
-0.347024
-0.339136
-0.332731
-0.327529
-0.323228
-0.319591
-0.316429
-0.313581
-0.310903
-0.308242
-0.305412
-0.302157
-0.298159
-0.292712
-0.283146
-0.264929
-0.249026
-0.388635
-0.369961
-0.357513
-0.348387
-0.340881
-0.334757
-0.329744
-0.325548
-0.321934
-0.31871
-0.315706
-0.312765
-0.309723
-0.306387
-0.302527
-0.297939
-0.292274
-0.283825
-0.270086
-0.262209
-0.387601
-0.369845
-0.358042
-0.349393
-0.342265
-0.336424
-0.331607
-0.327532
-0.323971
-0.320737
-0.317667
-0.314616
-0.311439
-0.307986
-0.304109
-0.299726
-0.294704
-0.288021
-0.278655
-0.276311
-0.386186
-0.369418
-0.358272
-0.350096
-0.343343
-0.337786
-0.333174
-0.329237
-0.325759
-0.322565
-0.319505
-0.31645
-0.313284
-0.309896
-0.306195
-0.302167
-0.297767
-0.292263
-0.285144
-0.284752
-0.384515
-0.368742
-0.358249
-0.350541
-0.34416
-0.33889
-0.334491
-0.330709
-0.327343
-0.324231
-0.321241
-0.318264
-0.315208
-0.311997
-0.308585
-0.304999
-0.301246
-0.296763
-0.291196
-0.291556
-0.382693
-0.36789
-0.358034
-0.350785
-0.344771
-0.339787
-0.335607
-0.331995
-0.328762
-0.325764
-0.322886
-0.320035
-0.317143
-0.314159
-0.311062
-0.307901
-0.304704
-0.301013
-0.296543
-0.297157
-0.380808
-0.366934
-0.357692
-0.350888
-0.345232
-0.340531
-0.336573
-0.333137
-0.330052
-0.327187
-0.324441
-0.321739
-0.319028
-0.316274
-0.313471
-0.310669
-0.307901
-0.304783
-0.301072
-0.301658
-0.378939
-0.365945
-0.357291
-0.350914
-0.345604
-0.341178
-0.337437
-0.334178
-0.331244
-0.328518
-0.325911
-0.323361
-0.320826
-0.318281
-0.315727
-0.313211
-0.310761
-0.308051
-0.304873
-0.305279
-0.377165
-0.364997
-0.356897
-0.350926
-0.345944
-0.34178
-0.338248
-0.33516
-0.332372
-0.32978
-0.327305
-0.324896
-0.322516
-0.320148
-0.317794
-0.315494
-0.313268
-0.310844
-0.308045
-0.308196
-0.375561
-0.36416
-0.356578
-0.350987
-0.346312
-0.342392
-0.339054
-0.336123
-0.33347
-0.330998
-0.32864
-0.326349
-0.324097
-0.321869
-0.319665
-0.317519
-0.315443
-0.313212
-0.310682
-0.310549
-0.374199
-0.363505
-0.356402
-0.35116
-0.346767
-0.343069
-0.339905
-0.337113
-0.334574
-0.332203
-0.329939
-0.327742
-0.325586
-0.323458
-0.321359
-0.319313
-0.317329
-0.315221
-0.312879
-0.312457
-0.373153
-0.363103
-0.356436
-0.351511
-0.347369
-0.343866
-0.34085
-0.338174
-0.335727
-0.333432
-0.331236
-0.329102
-0.327009
-0.324945
-0.322908
-0.320918
-0.318979
-0.316943
-0.314726
-0.314025
-0.372497
-0.363023
-0.356746
-0.3521
-0.348177
-0.344838
-0.341944