/*--------------------------------*- C++ -*----------------------------------*\
| =========                 |                                                 |
| \\      /  F ield         | OpenFOAM: The Open Source CFD Toolbox           |
|  \\    /   O peration     | Version:  v1912                                 |
|   \\  /    A nd           | Website:  www.openfoam.com                      |
|    \\/     M anipulation  |                                                 |
\*---------------------------------------------------------------------------*/
FoamFile
{
    version     2.0;
    format      ascii;
    class       volScalarField;
    location    "6.5";
    object      p;
}
// * * * * * * * * * * * * * * * * * * * * * * * * * * * * * * * * * * * * * //

dimensions      [0 2 -2 0 0 0 0];


internalField   nonuniform List<scalar> 
9600
(
-36.4906
-31.0606
-27.7033
-24.8403
-22.2767
-20.0097
-18.0006
-16.2135
-14.6224
-13.2057
-11.9441
-10.8203
-9.81868
-8.92526
-8.12746
-7.4142
-6.77572
-6.20297
-5.68769
-5.22851
-36.8839
-31.4502
-28.0753
-25.1902
-22.6025
-20.3123
-18.2817
-16.4752
-14.867
-13.4353
-12.1608
-11.0257
-10.0144
-9.11242
-8.30711
-7.58715
-6.94262
-6.36423
-5.84349
-5.38031
-37.2825
-31.8398
-28.4452
-25.5382
-22.9267
-20.6131
-18.5611
-16.7353
-15.1101
-13.6637
-12.3764
-11.2303
-10.2093
-9.299
-8.4863
-7.75976
-7.10929
-6.52532
-5.99918
-5.53213
-37.6841
-32.2296
-28.8138
-25.8844
-23.2487
-20.9118
-18.8383
-16.9935
-15.3514
-13.8904
-12.5905
-11.4335
-10.4032
-9.48467
-8.66476
-7.93179
-7.27549
-6.68602
-6.15456
-5.68379
-38.0865
-32.6185
-29.1808
-26.2282
-23.5683
-21.208
-19.1131
-17.2492
-15.5905
-14.1151
-12.8028
-11.6352
-10.5957
-9.66918
-8.84224
-8.103
-7.44102
-6.84616
-6.30948
-5.8352
-38.4882
-33.0059
-29.5457
-26.5695
-23.885
-21.5012
-19.3849
-17.5021
-15.827
-14.3374
-13.013
-11.835
-10.7865
-9.85221
-9.01844
-8.27313
-7.60563
-7.00553
-6.46378
-5.98623
-38.8881
-33.3909
-29.9079
-26.9075
-24.1982
-21.7909
-19.6534
-17.7518
-16.0604
-14.5569
-13.2206
-12.0324
-10.9752
-10.0334
-9.19304
-8.44188
-7.76908
-7.16391
-6.61728
-6.13674
-39.2854
-33.7729
-30.2668
-27.2418
-24.5075
-22.0766
-19.9179
-17.9977
-16.2903
-14.7731
-13.4252
-12.2271
-11.1615
-10.2124
-9.36568
-8.60892
-7.93105
-7.32104
-6.76973
-6.28653
-39.6793
-34.1511
-30.6217
-27.5717
-24.8123
-22.3579
-20.178
-18.2394
-16.5162
-14.9856
-13.6263
-12.4186
-11.3448
-10.3887
-9.53594
-8.77385
-8.09118
-7.47657
-6.92086
-6.43536
-40.0692
-34.525
-30.9719
-27.8967
-25.1121
-22.6341
-20.4332
-18.4764
-16.7376
-15.1939
-13.8234
-12.6065
-11.5247
-10.5619
-9.70334
-8.9362
-8.24902
-7.63011
-7.07028
-6.58288
-40.4544
-34.8938
-31.3169
-28.2163
-25.4062
-22.9047
-20.6829
-18.7081
-16.954
-15.3973
-14.0161
-12.79
-11.7007
-10.7314
-9.86728
-9.09539
-8.40402
-7.78112
-7.21749
-6.72862
-40.8346
-35.2572
-31.6561
-28.5297
-25.6941
-23.1691
-20.9266
-18.9339
-17.1647
-15.5954
-14.2036
-12.9687
-11.872
-10.8965
-10.0271
-9.25077
-8.55552
-7.92896
-7.36188
-6.87195
-41.2093
-35.6145
-31.989
-28.8366
-25.9753
-23.4268
-21.1637
-19.1534
-17.3694
-15.7876
-14.3854
-13.1419
-12.038
-11.0565
-10.1821
-9.40155
-8.70274
-8.07287
-7.50269
-7.01218
-41.5783
-35.9653
-32.315
-29.1362
-26.2493
-23.6773
-21.3938
-19.366
-17.5673
-15.9733
-14.5609
-13.3089
-12.1979
-11.2106
-10.3313
-9.54678
-8.84466
-8.21181
-7.63893
-7.14855
-41.9414
-36.309
-32.6335
-29.4282
-26.5154
-23.9201
-21.6163
-19.5712
-17.758
-16.1519
-14.7295
-13.4691
-12.3512
-11.3579
-10.4738
-9.68531
-8.97995
-8.34432
-7.76913
-7.2795
-42.2983
-36.6451
-32.944
-29.7121
-26.7734
-24.1548
-21.8308
-19.7687
-17.9412
-16.3231
-14.8907
-13.622
-12.4969
-11.4978
-10.6087
-9.81605
-9.10736
-8.46896
-7.89144
-7.40181
-42.6503
-36.9736
-33.246
-29.9872
-27.0225
-24.3807
-22.0368
-19.9579
-18.1163
-16.4865
-15.0441
-13.7669
-12.6347
-11.6294
-10.7352
-9.93824
-9.22626
-8.58516
-8.00466
-7.5132
-43.002
-37.2959
-33.5386
-30.2524
-27.262
-24.5973
-22.2339
-20.1385
-18.2831
-16.6416
-15.1893
-13.9036
-12.7639
-11.752
-10.852
-10.0504
-9.33493
-8.69079
-8.10708
-7.61825
-43.3558
-37.6116
-33.8201
-30.5065
-27.4912
-24.8045
-22.422
-20.3106
-18.4418
-16.7888
-15.3267
-14.0321
-12.8843
-11.8649
-10.9579
-10.1497
-9.42764
-8.77672
-8.19027
-7.71782
-43.6897
-37.9127
-34.0901
-30.7502
-27.7113
-25.0034
-22.6026
-20.4756
-18.5936
-16.9294
-15.4574
-14.154
-12.9978
-11.97
-11.0544
-10.2364
-9.50195
-8.83711
-8.24495
-7.7733
-47.0164
-46.9975
-46.9512
-46.8921
-46.8191
-46.7293
-46.6223
-46.4985
-46.3586
-46.2029
-46.0321
-45.8467
-45.6475
-45.4351
-45.2104
-44.9744
-44.7284
-44.4742
-44.215
-43.9541
-40.9426
-40.9455
-40.9249
-40.8871
-40.8323
-40.7595
-40.6691
-40.5617
-40.4381
-40.2988
-40.1443
-39.9754
-39.7927
-39.5969
-39.3886
-39.1687
-38.9379
-38.697
-38.4467
-38.1857
-36.752
-36.7706
-36.7695
-36.7492
-36.7105
-36.6542
-36.581
-36.4915
-36.3863
-36.2659
-36.131
-35.9821
-35.8198
-35.6448
-35.4576
-35.2587
-35.0487
-34.8278
-34.5957
-34.3507
-33.044
-33.0734
-33.0849
-33.0782
-33.0539
-33.0127
-32.9554
-32.8827
-32.7951
-32.6929
-32.5769
-32.4474
-32.3052
-32.1506
-31.9843
-31.8066
-31.6178
-31.418
-31.2071
-30.9847
-29.6984
-29.7329
-29.7513
-29.7534
-29.739
-29.7087
-29.6634
-29.6036
-29.5297
-29.4423
-29.3418
-29.2288
-29.1037
-28.967
-28.8192
-28.6607
-28.4917
-28.3123
-28.1226
-27.9226
-26.7519
-26.7881
-26.8098
-26.8167
-26.8082
-26.7849
-26.7476
-26.6968
-26.633
-26.5565
-26.4678
-26.3675
-26.2561
-26.1339
-26.0015
-25.8591
-25.7071
-25.5456
-25.3746
-25.1942
-24.1743
-24.21
-24.2323
-24.2408
-24.2351
-24.2157
-24.1833
-24.1383
-24.0811
-24.0122
-23.9321
-23.8412
-23.7401
-23.6291
-23.5088
-23.3794
-23.2413
-23.0947
-22.9394
-22.7757
-21.9212
-21.9547
-21.9757
-21.9839
-21.9788
-21.9609
-21.9309
-21.8893
-21.8362
-21.7724
-21.6981
-21.6139
-21.5202
-21.4176
-21.3065
-21.1873
-21.0603
-20.9257
-20.7835
-20.6338
-19.9512
-19.9816
-20.0002
-20.0067
-20.0009
-19.9831
-19.9539
-19.9138
-19.8631
-19.8023
-19.7318
-19.6521
-19.5638
-19.4673
-19.3632
-19.2518
-19.1336
-19.0087
-18.8772
-18.7392
-18.2263
-18.2531
-18.2687
-18.273
-18.2656
-18.2469
-18.2176
-18.1779
-18.1283
-18.0692
-18.0011
-17.9244
-17.8398
-17.7477
-17.6488
-17.5434
-17.4321
-17.3151
-17.1925
-17.0643
-16.712
-16.7352
-16.7477
-16.7494
-16.7401
-16.7201
-16.69
-16.6501
-16.6008
-16.5425
-16.4758
-16.4011
-16.319
-16.2301
-16.1349
-16.0342
-15.9284
-15.8178
-15.7027
-15.5829
-15.3784
-15.3981
-15.4076
-15.4067
-15.3953
-15.3738
-15.3426
-15.3021
-15.2527
-15.1947
-15.1287
-15.0552
-14.9748
-14.8882
-14.7959
-14.6987
-14.5972
-14.492
-14.3833
-14.271
-14.1998
-14.2163
-14.2229
-14.2195
-14.2061
-14.183
-14.1507
-14.1094
-14.0596
-14.0016
-13.936
-13.8633
-13.784
-13.6989
-13.6086
-13.5141
-13.4162
-13.3154
-13.2123
-13.1068
-13.1543
-13.1679
-13.1719
-13.1663
-13.151
-13.1264
-13.0929
-13.0509
-13.0006
-12.9424
-12.8769
-12.8046
-12.726
-12.642
-12.5532
-12.4607
-12.3654
-12.2684
-12.1703
-12.0712
-12.2237
-12.2346
-12.2363
-12.2286
-12.2116
-12.1857
-12.1511
-12.1083
-12.0575
-11.9991
-11.9336
-11.8615
-11.7834
-11.7
-11.6122
-11.521
-11.4278
-11.3337
-11.2401
-11.1472
-11.3924
-11.4008
-11.4004
-11.3909
-11.3724
-11.3452
-11.3098
-11.2663
-11.215
-11.1563
-11.0908
-11.0187
-10.9408
-10.8577
-10.7704
-10.68
-10.588
-10.496
-10.4064
-10.3195
-10.6473
-10.6536
-10.6512
-10.6401
-10.6202
-10.592
-10.5556
-10.5114
-10.4597
-10.4007
-10.335
-10.2628
-10.1849
-10.1018
-10.0144
-9.92409
-9.83242
-9.74151
-9.65461
-9.57277
-9.97699
-9.98158
-9.97772
-9.96527
-9.94436
-9.91527
-9.87828
-9.83361
-9.78154
-9.72238
-9.65647
-9.58422
-9.50612
-9.42278
-9.33503
-9.2441
-9.15183
-9.06089
-8.97576
-8.89699
-9.37121
-9.3748
-9.37012
-9.35709
-9.33585
-9.30667
-9.26979
-9.22542
-9.17381
-9.11525
-9.05005
-8.97855
-8.90118
-8.81845
-8.73104
-8.64007
-8.54729
-8.4562
-8.37337
-8.29993
-8.824
-8.82516
-8.81841
-8.80373
-8.78128
-8.75132
-8.71406
-8.6697
-8.61844
-8.56054
-8.49626
-8.4259
-8.34977
-8.26826
-8.18183
-8.09131
-7.99775
-7.90477
-7.81887
-7.75857
-42.6765
-43.0567
-43.4101
-43.7585
-44.0987
-44.4247
-44.734
-45.0257
-45.2991
-45.5533
-45.7876
-46.0013
-46.1941
-46.366
-46.5168
-46.6469
-46.7566
-46.8469
-46.9197
-46.9767
-36.5343
-36.922
-37.2904
-37.6463
-37.9886
-38.3149
-38.624
-38.9156
-39.1894
-39.4447
-39.6808
-39.8969
-40.0928
-40.2687
-40.4245
-40.5602
-40.6759
-40.7719
-40.8487
-40.9057
-32.3627
-32.7429
-33.108
-33.4584
-33.7937
-34.1134
-34.4169
-34.7037
-34.9732
-35.2259
-35.4618
-35.6781
-35.8754
-36.0538
-36.2132
-36.3533
-36.474
-36.5752
-36.6564
-36.716
-28.7467
-29.1104
-29.4616
-29.7992
-30.1224
-30.431
-30.7247
-31.0033
-31.2662
-31.5122
-31.7402
-31.9512
-32.145
-32.3216
-32.4803
-32.6207
-32.7429
-32.8466
-32.9315
-32.9974
-25.5651
-25.9088
-26.2421
-26.5631
-26.8707
-27.1646
-27.4445
-27.7101
-27.9606
-28.1953
-28.4141
-28.6177
-28.8053
-28.9771
-29.1316
-29.2691
-29.3895
-29.4927
-29.5786
-29.6474
-22.8262
-23.1497
-23.4639
-23.767
-24.0576
-24.3353
-24.5999
-24.851
-25.0881
-25.3109
-25.5191
-25.7127
-25.8913
-26.0535
-26.2008
-26.3327
-26.4487
-26.5486
-26.6325
-26.7005
-20.4744
-20.7785
-21.0741
-21.3593
-21.6329
-21.8943
-22.1435
-22.3799
-22.6032
-22.813
-23.0091
-23.1912
-23.3591
-23.5124
-23.651
-23.7752
-23.885
-23.9798
-24.0596
-24.1247
-18.4479
-18.7341
-19.0123
-19.2807
-19.5381
-19.784
-20.0183
-20.2404
-20.45
-20.6469
-20.8307
-21.0013
-21.1585
-21.3021
-21.432
-21.548
-21.6504
-21.7391
-21.8139
-21.8747
-16.6951
-16.965
-17.2274
-17.4804
-17.7229
-17.9545
-18.1748
-18.3835
-18.5802
-18.7648
-18.9369
-19.0965
-19.2434
-19.3774
-19.4985
-19.6065
-19.7013
-19.7834
-19.8527
-19.9087
-15.1722
-15.4276
-15.6758
-15.915
-16.1441
-16.3626
-16.5702
-16.7665
-16.9514
-17.1245
-17.2858
-17.435
-17.5722
-17.6972
-17.8098
-17.9101
-17.9979
-18.0728
-18.1368
-18.188
-13.8426
-14.0851
-14.3208
-14.5478
-14.7649
-14.9716
-15.1676
-15.3527
-15.5267
-15.6894
-15.8407
-15.9805
-16.1087
-16.2253
-16.3301
-16.4232
-16.5045
-16.5743
-16.6314
-16.6778
-12.676
-12.9073
-13.1321
-13.3483
-13.5547
-13.7507
-13.9363
-14.1113
-14.2754
-14.4286
-14.5708
-14.7019
-14.822
-14.9309
-15.0286
-15.115
-15.1902
-15.2539
-15.3059
-15.3481
-11.6478
-11.8691
-12.0845
-12.2914
-12.4882
-12.6746
-12.8508
-13.0164
-13.1715
-13.3161
-13.4501
-13.5734
-13.6861
-13.788
-13.8792
-13.9596
-14.0292
-14.088
-14.1363
-14.1732
-10.7372
-10.9499
-11.1576
-11.3563
-11.5444
-11.7222
-11.8897
-12.0468
-12.1938
-12.3304
-12.4569
-12.5732
-12.6791
-12.7748
-12.8601
-12.9351
-12.9997
-13.0539
-13.0977
-13.1311
-9.92748
-10.133
-10.3344
-10.5259
-10.7062
-10.8759
-11.0354
-11.1848
-11.3242
-11.4537
-11.5733
-11.6831
-11.7831
-11.8731
-11.9532
-12.0232
-12.0833
-12.1333
-12.1733
-12.2034
-9.20418
-9.40493
-9.60181
-9.78666
-9.9595
-10.1217
-10.2738
-10.4159
-10.5483
-10.6712
-10.7846
-10.8885
-10.9829
-11.0678
-11.1431
-11.2088
-11.2647
-11.3111
-11.3478
-11.375
-8.5517
-8.75283
-8.94791
-9.12646
-9.29206
-9.44718
-9.59221
-9.72747
-9.8534
-9.97019
-10.0779
-10.1765
-10.266
-10.3462
-10.4172
-10.4788
-10.5312
-10.5742
-10.6078
-10.6323
-7.95058
-8.15752
-8.35551
-8.52902
-8.68794
-8.83659
-8.97533
-9.1046
-9.22491
-9.33648
-9.43935
-9.53346
-9.61875
-9.69513
-9.76254
-9.82092
-9.87024
-9.91049
-9.94168
-9.96391
-7.39904
-7.60881
-7.81205
-7.98355
-8.13718
-8.27991
-8.41303
-8.53709
-8.65254
-8.75965
-8.85841
-8.94875
-9.03057
-9.10379
-9.16831
-9.22409
-9.27108
-9.30926
-9.33864
-9.35932
-6.98605
-7.19391
-7.38059
-7.5458
-7.69184
-7.82428
-7.94766
-8.06297
-8.17019
-8.26947
-8.36087
-8.44429
-8.5196
-8.58673
-8.64559
-8.69615
-8.73837
-8.77224
-8.79773
-8.81494
-3.06403
-3.41748
-3.81722
-4.26256
-4.76081
-5.32021
-5.94955
-6.65937
-7.46262
-8.37527
-9.41729
-10.6138
-11.9966
-13.6058
-15.4927
-17.725
-20.3736
-23.4595
-27.1933
-32.9862
-3.25503
-3.61562
-4.0201
-4.4711
-4.97597
-5.54274
-6.18033
-6.89946
-7.71327
-8.63796
-9.69372
-10.906
-12.3068
-13.9366
-15.8469
-18.1052
-20.782
-23.8966
-27.654
-33.4576
-3.44857
-3.81641
-4.22578
-4.68266
-5.19438
-5.76876
-6.41484
-7.14352
-7.96816
-8.90515
-9.97495
-11.2032
-12.6224
-14.2731
-16.207
-18.4915
-21.1963
-24.3385
-28.1184
-33.9286
-3.64421
-4.01935
-4.43373
-4.89669
-5.41547
-5.99766
-6.65241
-7.39086
-8.22652
-9.17604
-10.2601
-11.5047
-12.9424
-14.6142
-16.5719
-18.8827
-21.6154
-24.7856
-28.5889
-34.4107
-3.84157
-4.22405
-4.64354
-5.11278
-5.63881
-6.22899
-6.8926
-7.64098
-8.48785
-9.45006
-10.5486
-11.8095
-13.266
-14.9591
-16.9407
-19.2778
-22.0387
-25.237
-29.0647
-34.9016
-4.04037
-4.43018
-4.85492
-5.33063
-5.8641
-6.46243
-7.13506
-7.89353
-8.75177
-9.72683
-10.8399
-12.1175
-13.5928
-15.3072
-17.3129
-19.6765
-22.4656
-25.6922
-29.5441
-35.3976
-4.24033
-4.63746
-5.06753
-5.5499
-6.09098
-6.69763
-7.37943
-8.14813
-9.01787
-10.0059
-11.1337
-12.428
-13.9223
-15.6583
-17.688
-20.0782
-22.8955
-26.1503
-30.0262
-35.8967
-4.44124
-4.84563
-5.2811
-5.77029
-6.31913
-6.93422
-7.62531
-8.40436
-9.28571
-10.2868
-11.4295
-12.7406
-14.254
-16.0116
-18.0655
-20.4823
-23.3277
-26.6106
-30.5101
-36.398
-4.64294
-5.05449
-5.49539
-5.99153
-6.54825
-7.17188
-7.87234
-8.66181
-9.55483
-10.5691
-11.7266
-13.0547
-14.5873
-16.3665
-18.4446
-20.8879
-23.7614
-27.0724
-30.9949
-36.9003
-4.84537
-5.2639
-5.71021
-6.2134
-6.77807
-7.41028
-8.12014
-8.92006
-9.82479
-10.8523
-12.0247
-13.3697
-14.9214
-16.7223
-18.8246
-21.2943
-24.1958
-27.5346
-31.4797
-37.4024
-5.04856
-5.47381
-5.92545
-6.43571
-7.00833
-7.6491
-8.36834
-9.17869
-10.0951
-11.1358
-12.3231
-13.685
-15.2559
-17.0784
-19.2048
-21.7008
-24.63
-27.9963
-31.9635
-37.9033
-5.25265
-5.68424
-6.141
-6.65825
-7.23876
-7.888
-8.61654
-9.43724
-10.3653
-11.419
-12.6212
-13.9999
-15.59
-17.434
-19.5843
-22.1064
-25.0631
-28.4567
-32.4451
-38.4018
-5.45785
-5.89523
-6.35675
-6.88082
-7.46903
-8.12657
-8.86426
-9.69519
-10.6347
-11.7015
-12.9184
-14.3139
-15.9229
-17.7883
-19.9625
-22.5104
-25.4943
-28.9147
-32.9238
-38.897
-5.66447
-6.10679
-6.57252
-7.10307
-7.6987
-8.3643
-9.11093
-9.95192
-10.9028
-11.9825
-13.214
-14.6261
-16.254
-18.1406
-20.3384
-22.9119
-25.9226
-29.3695
-33.3985
-39.3878
-5.8727
-6.31874
-6.78787
-7.32442
-7.92711
-8.60048
-9.35583
-10.2067
-11.1688
-12.2612
-13.5073
-14.9359
-16.5824
-18.49
-20.7111
-23.3098
-26.3469
-29.8201
-33.8683
-39.8734
-6.08245
-6.53041
-7.00188
-7.54388
-8.15329
-8.8342
-9.59811
-10.4587
-11.4319
-12.537
-13.7974
-15.2423
-16.9073
-18.8357
-21.0797
-23.7033
-26.7664
-30.2654
-34.3326
-40.3533
-6.2926
-6.73997
-7.21267
-7.75981
-8.37585
-9.06427
-9.83671
-10.7071
-11.6913
-12.8088
-14.0835
-15.5445
-17.2278
-19.1767
-21.4434
-24.0913
-27.1799
-30.7044
-34.7906
-40.8271
-6.50002
-6.94347
-7.41704
-7.97
-8.59325
-9.28948
-10.0706
-10.9508
-11.9461
-13.0761
-14.3648
-15.8417
-17.543
-19.512
-21.801
-24.4728
-27.5861
-31.1357
-35.2419
-41.2952
-6.69542
-7.13256
-7.60982
-8.17161
-8.80364
-9.50846
-10.2988
-11.189
-12.1955
-13.3379
-14.6405
-16.1331
-17.852
-19.8408
-22.1514
-24.8465
-27.9836
-31.5573
-35.6857
-41.7591
-6.85712
-7.29081
-7.78766
-8.36539
-9.00764
-9.72144
-10.5212
-11.4216
-12.4391
-13.5937
-14.9101
-16.4181
-18.1543
-20.1623
-22.494
-25.2114
-28.3714
-31.9671
-36.1181
-42.2206
-0.301907
-0.536384
-0.857481
-1.22297
-1.6291
-2.08381
-2.59518
-3.17137
-3.82225
-4.56015
-5.40063
-6.36351
-7.47441
-8.76675
-10.2855
-12.0945
-14.2694
-16.8546
-20.0979
-25.5429
-0.390861
-0.633283
-0.961972
-1.32699
-1.73191
-2.18705
-2.6999
-3.2783
-3.93215
-4.67397
-5.51943
-6.48858
-7.6073
-8.90934
-10.44
-12.2634
-14.455
-17.0582
-20.3186
-25.764
-0.468778
-0.726182
-1.06073
-1.42851
-1.83613
-2.29427
-2.81029
-3.39217
-4.05008
-4.79673
-5.64805
-6.62431
-7.75169
-9.06425
-10.6076
-12.446
-14.6547
-17.2754
-20.5524
-25.9927
-0.558388
-0.821892
-1.16009
-1.53187
-1.94366
-2.40594
-2.92616
-3.51251
-4.17538
-4.92772
-5.78568
-6.7698
-7.90658
-9.23039
-10.7872
-12.6414
-14.8679
-17.5074
-20.8033
-26.2476
-0.655571
-0.922557
-1.26426
-1.64021
-2.05637
-2.52316
-3.04812
-3.63958
-4.30812
-5.06684
-5.93214
-6.92483
-8.07172
-9.40752
-10.9785
-12.8494
-15.0948
-17.7543
-21.0712
-26.5261
-0.757621
-1.02887
-1.37427
-1.75437
-2.17501
-2.64657
-3.17666
-3.77373
-4.44847
-5.21417
-6.08745
-7.08939
-8.2471
-9.59564
-11.1817
-13.0701
-15.3353
-18.0159
-21.3549
-26.8234
-0.86596
-1.14182
-1.49075
-1.87491
-2.30011
-2.77664
-3.31217
-3.91522
-4.59661
-5.36981
-6.25163
-7.26344
-8.43265
-9.79467
-11.3965
-13.3032
-15.5892
-18.292
-21.6537
-27.1375
-0.98177
-1.26209
-1.6143
-2.00241
-2.43219
-2.9138
-3.45496
-4.06427
-4.75268
-5.53381
-6.42469
-7.44694
-8.62829
-10.0045
-11.6228
-13.5488
-15.8564
-18.5822
-21.9673
-27.4679
-1.10515
-1.38986
-1.74524
-2.13722
-2.57157
-3.05832
-3.60525
-4.22106
-4.9168
-5.70624
-6.60663
-7.63984
-8.83391
-10.2249
-11.8606
-13.8065
-16.1366
-18.8862
-22.2954
-27.8137
-1.23589
-1.52509
-1.88359
-2.27941
-2.71835
-3.21033
-3.76316
-4.38565
-5.08899
-5.88709
-6.7974
-7.84205
-9.04939
-10.4559
-12.1095
-14.0761
-16.4294
-19.2038
-22.6377
-28.1744
-1.37375
-1.66763
-2.02927
-2.42894
-2.87251
-3.36979
-3.92866
-4.55804
-5.26922
-6.0763
-6.99691
-8.05347
-9.27461
-10.6971
-12.3693
-14.3573
-16.7347
-19.5345
-22.9936
-28.5492
-1.51849
-1.81725
-2.18207
-2.58563
-3.03392
-3.53662
-4.10167
-4.73812
-5.4574
-6.27375
-7.20504
-8.27392
-9.50935
-10.9484
-12.6399
-14.6499
-17.052
-19.8779
-23.3626
-28.9376
-1.66976
-1.97362
-2.34171
-2.74924
-3.20237
-3.71061
-4.282
-4.92572
-5.65333
-6.47926
-7.42157
-8.50319
-9.75338
-11.2096
-12.9209
-14.9536
-17.3809
-20.2336
-23.7444
-29.339
-1.82715
-2.13636
-2.50783
-2.91947
-3.37755
-3.8915
-4.46941
-5.1206
-5.85679
-6.69258
-7.64627
-8.74102
-10.0064
-11.4803
-13.2119
-15.2679
-17.7212
-20.6012
-24.1384
-29.7529
-1.99025
-2.30505
-2.68005
-3.09593
-3.55915
-4.07897
-4.66359
-5.32247
-6.06749
-6.91344
-7.87882
-8.98709
-10.2682
-11.7601
-13.5127
-15.5925
-18.0723
-20.9802
-24.5443
-30.1789
-2.15861
-2.47928
-2.85796
-3.27825
-3.74678
-4.27267
-4.86419
-5.53099
-6.2851
-7.14148
-8.1189
-9.24106
-10.5382
-12.0488
-13.8227
-15.9269
-18.4337
-21.3701
-24.9616
-30.6165
-2.3318
-2.65857
-3.04111
-3.466
-3.94005
-4.4722
-5.07085
-5.74579
-6.50924
-7.37635
-8.3661
-9.50251
-10.8161
-12.3457
-14.1415
-16.2706
-18.805
-21.7704
-25.3899
-31.0657
-2.50938
-2.84249
-3.22907
-3.65876
-4.13852
-4.67717
-5.28316
-5.96648
-6.73951
-7.61762
-8.62003
-9.77102
-11.1015
-12.6505
-14.4686
-16.623
-19.1855
-22.1804
-25.8286
-31.5265
-2.69089
-3.03058
-3.42137
-3.85607
-4.34178
-4.88712
-5.50068
-6.19261
-6.97548
-7.86486
-8.88021
-10.0461
-11.3937
-12.9625
-14.8033
-16.9835
-19.5745
-22.5993
-26.2771
-31.9998
-2.87594
-3.22243
-3.61761
-4.05753
-4.54941
-5.10168
-5.72304
-6.42381
-7.21677
-8.11769
-9.14627
-10.3274
-11.6925
-13.2814
-15.1452
-17.3514
-19.9712
-23.0262
-26.7331
-32.4869
-0.150575
-0.0395867
0.0319311
0.0900985
0.135552
0.170268
0.195103
0.21077
0.218567
0.219256
0.210434
0.191442
0.164945
0.132691
0.092572
0.0455166
-0.0079944
-0.0676351
-0.133129
-0.204252
-0.443779
-0.348448
-0.274061
-0.212959
-0.165039
-0.128239
-0.101706
-0.0847158
-0.0762402
-0.0755276
-0.0833957
-0.100459
-0.125837
-0.159017
-0.199402
-0.246743
-0.300744
-0.361085
-0.427466
-0.499652
-0.75548
-0.666127
-0.592311
-0.531027
-0.48237
-0.44487
-0.417786
-0.400425
-0.392032
-0.392147
-0.401099
-0.418932
-0.444964
-0.479316
-0.52103
-0.569861
-0.625527
-0.687723
-0.75614
-0.830551
-1.12095
-1.03232
-0.957623
-0.895251
-0.845082
-0.806139
-0.777807
-0.759462
-0.750505
-0.750601
-0.759832
-0.77803
-0.804668
-0.839524
-0.882152
-0.932207
-0.989354
-1.05327
-1.12363
-1.20022
-1.5306
-1.44271
-1.36712
-1.30351
-1.25182
-1.21141
-1.18179
-1.16243
-1.15284
-1.15271
-1.16195
-1.18034
-1.20747
-1.24301
-1.28661
-1.33792
-1.39661
-1.46232
-1.53474
-1.61363
-1.98684
-1.89936
-1.82311
-1.75843
-1.70542
-1.66371
-1.63295
-1.6127
-1.60257
-1.60225
-1.61156
-1.63025
-1.65796
-1.69435
-1.73914
-1.79189
-1.85231
-1.92003
-1.99472
-2.07617
-2.49798
-2.4101
-2.33299
-2.26717
-2.21284
-2.16987
-2.13799
-2.11687
-2.10619
-2.10567
-2.11507
-2.13413
-2.1625
-2.19987
-2.24594
-2.30027
-2.36259
-2.43251
-2.5097
-2.59395
-3.0729
-2.98381
-2.90538
-2.83812
-2.78232
-2.73795
-2.70485
-2.68278
-2.67146
-2.67065
-2.68008
-2.69949
-2.72855
-2.76694
-2.81428
-2.87038
-2.93474
-3.00704
-3.08693
-3.17421
-3.72159
-3.63051
-3.55017
-3.48104
-3.42344
-3.3774
-3.34287
-3.31964
-3.30752
-3.30625
-3.31559
-3.33527
-3.36498
-3.40438
-3.45313
-3.51094
-3.57751
-3.65231
-3.73506
-3.8256
-4.45633
-4.36239
-4.27942
-4.20782
-4.14792
-4.09981
-4.06348
-4.03878
-4.02556
-4.02359
-4.03263
-4.05241
-4.08265
-4.123
-4.17312
-4.23269
-4.30159
-4.37891
-4.46462
-4.55859
-5.29257
-5.19475
-5.10824
-5.03338
-4.97049
-4.9197
-4.88103
-4.85439
-4.83963
-4.83657
-4.84498
-4.86459
-4.89511
-4.93624
-4.98763
-5.04887
-5.11953
-5.19989
-5.28864
-5.38614
-6.24993
-6.14701
-6.05583
-5.97668
-5.90989
-5.85558
-5.81382
-5.78454
-5.76764
-5.76293
-5.7702
-5.78919
-5.81962
-5.86119
-5.91357
-5.97637
-6.04909
-6.1314
-6.22357
-6.32467
-7.3538
-7.24428
-7.14703
-7.06228
-6.99037
-6.93144
-6.88556
-6.85271
-6.83278
-6.82563
-6.83104
-6.84876
-6.87852
-6.92
-6.97289
-7.03682
-7.11133
-7.19588
-7.29034
-7.39537
-8.63727
-8.51934
-8.41426
-8.32225
-8.24366
-8.17866
-8.12732
-8.08963
-8.06552
-8.05484
-8.05738
-8.07291
-8.10113
-8.14175
-8.19444
-8.25883
-8.33452
-8.42095
-8.51762
-8.62464
-10.145
-10.0164
-9.90129
-9.79994
-9.7127
-9.63976
-9.58121
-9.53705
-9.5072
-9.49152
-9.48983
-9.50188
-9.52739
-9.56605
-9.61751
-9.68142
-9.75735
-9.84476
-9.94315
-10.0525
-11.9403
-11.7982
-11.6704
-11.5571
-11.4588
-11.3756
-11.3076
-11.2549
-11.2173
-11.1948
-11.1872
-11.1942
-11.2155
-11.2507
-11.2996
-11.3617
-11.4367
-11.5239
-11.6229
-11.7336
-14.0981
-13.9394
-13.7959
-13.668
-13.556
-13.4601
-13.3805
-13.3171
-13.2698
-13.2387
-13.2234
-13.2236
-13.2388
-13.269
-13.3137
-13.3726
-13.4454
-13.5313
-13.6297
-13.7404
-16.6622
-16.4845
-16.3229
-16.1782
-16.0507
-15.9405
-15.8476
-15.772
-15.7137
-15.6724
-15.6476
-15.6386
-15.6456
-15.6684
-15.7067
-15.7603
-15.8285
-15.9109
-16.0064
-16.1144
-19.8859
-19.6851
-19.5002
-19.3339
-19.1863
-19.0575
-18.9471
-18.8549
-18.7805
-18.7238
-18.685
-18.6646
-18.6617
-18.6758
-18.7066
-18.7536
-18.8165
-18.8956
-18.9906
-19.0979
-25.2846
-25.0517
-24.8456
-24.6631
-24.5019
-24.3607
-24.2389
-24.1362
-24.0521
-23.9863
-23.9387
-23.9095
-23.8985
-23.9055
-23.9304
-23.9728
-24.0332
-24.1138
-24.2159
-24.3278
-0.280779
-0.362242
-0.448469
-0.539174
-0.634086
-0.732917
-0.835374
-0.941156
-1.04995
-1.16142
-1.27522
-1.39093
-1.50798
-1.62555
-1.74254
-1.85722
-1.96621
-2.06182
-2.12774
-2.17308
-0.577449
-0.660322
-0.748093
-0.840452
-0.937119
-1.03779
-1.14217
-1.24994
-1.36077
-1.47431
-1.59016
-1.70788
-1.8269
-1.94637
-2.06508
-2.18175
-2.29502
-2.39831
-2.47532
-2.55277
-0.910778
-0.996251
-1.08679
-1.18208
-1.28183
-1.38572
-1.49345
-1.60468
-1.71908
-1.83627
-1.95585
-2.07735
-2.20018
-2.32357
-2.44646
-2.56785
-2.68702
-2.80001
-2.89898
-3.00443
-1.28286
-1.37095
-1.46431
-1.56259
-1.6655
-1.77273
-1.88393
-1.99879
-2.11693
-2.23797
-2.36149
-2.48701
-2.61396
-2.74162
-2.8691
-2.99562
-3.12052
-3.24143
-3.35662
-3.48118
-1.69884
-1.7897
-1.88604
-1.98752
-2.09381
-2.20459
-2.31953
-2.43826
-2.56042
-2.68562
-2.81342
-2.94334
-3.07484
-3.20726
-3.33989
-3.47215
-3.60345
-3.73247
-3.86012
-3.99696
-2.16421
-2.25814
-2.35779
-2.46278
-2.57281
-2.68753
-2.80658
-2.92962
-3.05626
-3.18609
-3.3187
-3.45361
-3.5903
-3.72819
-3.86673
-4.0055
-4.14406
-4.28185
-4.4205
-4.56676
-2.68511
-2.78241
-2.88568
-2.99456
-3.1087
-3.22776
-3.35139
-3.47921
-3.61083
-3.74587
-3.88388
-4.02442
-4.16702
-4.31116
-4.45641
-4.60247
-4.74905
-4.89608
-5.04512
-5.20027
-3.26876
-3.36972
-3.47695
-3.59007
-3.70872
-3.83257
-3.96124
-4.09435
-4.23153
-4.37236
-4.51644
-4.66332
-4.81259
-4.96379
-5.11659
-5.27073
-5.42608
-5.58276
-5.74205
-5.90641
-3.92378
-4.02871
-4.14023
-4.25795
-4.38154
-4.51062
-4.64482
-4.78378
-4.92709
-5.07437
-5.2252
-5.37919
-5.53593
-5.69504
-5.85623
-6.01931
-6.18419
-6.35106
-6.52085
-6.69508
-4.66065
-4.76979
-4.88592
-5.0086
-5.13751
-5.27227
-5.41251
-5.55786
-5.70792
-5.8623
-6.02061
-6.18247
-6.34751
-6.51538
-6.68583
-6.8587
-7.03391
-7.21163
-7.39245
-7.57742
-5.49224
-5.60582
-5.72679
-5.85474
-5.98932
-6.13017
-6.27691
-6.42917
-6.58655
-6.74867
-6.91516
-7.08565
-7.25978
-7.43724
-7.61781
-7.80132
-7.98769
-8.17698
-8.36958
-8.56628
-6.43482
-6.55291
-6.67887
-6.81228
-6.95281
-7.10007
-7.25369
-7.41329
-7.5785
-7.74894
-7.92422
-8.10401
-8.28797
-8.4758
-8.66728
-8.86225
-9.06058
-9.26224
-9.46742
-9.67685
-7.50935
-7.63184
-7.76277
-7.9017
-8.04827
-8.20208
-8.3628
-8.53005
-8.70344
-8.8826
-9.06717
-9.25681
-9.4512
-9.65005
-9.85313
-10.0603
-10.2713
-10.486
-10.7046
-10.9277
-8.74292
-8.86986
-9.00558
-9.14973
-9.30208
-9.46232
-9.6301
-9.80504
-9.98675
-10.1749
-10.369
-10.5688
-10.774
-10.9843
-11.1995
-11.4193
-11.6436
-11.8721
-12.1047
-12.3422
-10.1728
-10.3031
-10.444
-10.5924
-10.7499
-10.9162
-11.0907
-11.2732
-11.4631
-11.6601
-11.8637
-12.0738
-12.2898
-12.5117
-12.7392
-12.972
-13.2098
-13.4524
-13.6995
-13.9518
-11.8559
-11.9876
-12.129
-12.2822
-12.4453
-12.6173
-12.7982
-12.9876
-13.1852
-13.3903
-13.6028
-13.8224
-14.0489
-14.2819
-14.5214
-14.7669
-15.0182
-15.2748
-15.5363
-15.8035
-13.863
-13.996
-14.14
-14.2952
-14.4615
-14.6377
-14.8231
-15.0177
-15.221
-15.4321
-15.6517
-15.8794
-16.115
-16.3582
-16.6085
-16.8658
-17.1299
-17.3999
-17.6753
-17.9562
-16.2352
-16.3663
-16.5085
-16.662
-16.8264
-17.0023
-17.1895
-17.387
-17.5949
-17.8132
-18.0406
-18.2765
-18.5209
-18.7734
-19.0338
-19.3019
-19.5775
-19.8602
-20.149
-20.4429
-19.2127
-19.3384
-19.4769
-19.6284
-19.7923
-19.9682
-20.1556
-20.354
-20.563
-20.7826
-21.0123
-21.2517
-21.5006
-21.7585
-22.0254
-22.3008
-22.5849
-22.8788
-23.1825
-23.4905
-24.4222
-24.5347
-24.6658
-24.8129
-24.9742
-25.1485
-25.335
-25.5331
-25.7424
-25.9626
-26.1933
-26.4344
-26.6857
-26.9472
-27.219
-27.501
-27.7947
-28.1043
-28.4324
-28.7601
-29.0417
-23.7943
-20.7415
-18.2433
-16.0765
-14.2097
-12.5848
-11.1555
-9.89076
-8.76736
-7.76688
-6.87419
-6.07658
-5.3631
-4.7243
-4.15175
-3.63667
-3.17075
-2.75834
-2.41674
-29.338
-24.1014
-21.0437
-18.5339
-16.353
-14.471
-12.8307
-11.3865
-10.1077
-8.97141
-7.95933
-7.05639
-6.24994
-5.52913
-4.88464
-4.30813
-3.79146
-3.32962
-2.93104
-2.5941
-29.6502
-24.4149
-21.3512
-18.8294
-16.634
-14.7364
-13.0803
-11.6208
-10.3278
-9.17841
-8.15457
-7.24122
-6.42572
-5.69724
-5.0464
-4.46482
-3.94453
-3.48078
-3.07921
-2.72964
-29.975
-24.7364
-21.6647
-19.13
-16.9195
-15.0056
-13.3333
-11.8583
-10.5507
-9.38793
-8.35202
-7.42792
-6.60291
-5.86605
-5.20784
-4.6197
-4.09359
-3.62427
-3.21496
-2.85272
-30.3097
-25.0657
-21.9843
-19.4358
-17.2094
-15.2788
-13.5898
-12.0987
-10.7761
-9.59974
-8.55144
-7.61621
-6.78124
-6.03546
-5.36916
-4.77358
-4.24051
-3.76426
-3.34645
-2.97366
-30.6528
-25.4022
-22.3099
-19.7467
-17.5037
-15.5556
-13.8494
-12.342
-11.0041
-9.81366
-8.75265
-7.80598
-6.96071
-6.20561
-5.53081
-4.92736
-4.38695
-3.90359
-3.47775
-3.0962
-31.0035
-25.7455
-22.6413
-20.0624
-17.8021
-15.8361
-14.1122
-12.5879
-11.2343
-10.0296
-8.95564
-7.99728
-7.14148
-6.37687
-5.69339
-5.08199
-4.53425
-4.04403
-3.6108
-3.22176
-31.3611
-26.0952
-22.9782
-20.3829
-18.1045
-16.1199
-14.3778
-12.8363
-11.4668
-10.2475
-9.16039
-8.19019
-7.32375
-6.54955
-5.85739
-5.23809
-4.68321
-4.18644
-3.74639
-3.35074
-31.7254
-26.4508
-23.3203
-20.7079
-18.4108
-16.407
-14.6463
-13.0872
-11.7014
-10.4674
-9.36693
-8.38479
-7.50767
-6.72388
-6.0231
-5.39604
-4.83423
-4.33118
-3.88472
-3.48305
-32.0958
-26.8121
-23.6673
-21.0371
-18.7206
-16.6971
-14.9173
-13.3403
-11.9381
-10.6891
-9.57525
-8.58113
-7.69331
-6.89999
-6.19068
-5.556
-4.98742
-4.47832
-4.02571
-3.61843
-32.4721
-27.1787
-24.019
-21.3703
-19.0338
-16.9901
-15.1908
-13.5956
-12.1767
-10.9126
-9.78529
-8.77916
-7.88069
-7.07789
-6.36016
-5.71797
-5.14277
-4.62774
-4.16918
-3.75654
-32.854
-27.5503
-24.375
-21.7072
-19.35
-17.2857
-15.4665
-13.8528
-12.4171
-11.1378
-9.99696
-8.97883
-8.06973
-7.25754
-6.53146
-5.88188
-5.30015
-4.77926
-4.31486
-3.89705
-33.2412
-27.9266
-24.7351
-22.0475
-19.6691
-17.5836
-15.7443
-14.1118
-12.659
-11.3645
-10.2101
-9.18
-8.26034
-7.43881
-6.70447
-6.04757
-5.45936
-4.93267
-4.4625
-4.03966
-33.6336
-28.3072
-25.0989
-22.3909
-19.9907
-17.8836
-16.0237
-14.3723
-12.9024
-11.5926
-10.4246
-9.38253
-8.45234
-7.62155
-6.87902
-6.21486
-5.62023
-5.08774
-4.61184
-4.18408
-34.0308
-28.6918
-25.4661
-22.7372
-20.3145
-18.1853
-16.3046
-14.6341
-13.1469
-11.8217
-10.6402
-9.58621
-8.64557
-7.80558
-7.05493
-6.38356
-5.78255
-5.24427
-4.76266
-4.33007
-34.4328
-29.0807
-25.8355
-23.0857
-20.6401
-18.4884
-16.5867
-14.8968
-13.3923
-12.0518
-10.8567
-9.79086
-8.83982
-7.9907
-7.23199
-6.55347
-5.9461
-5.40204
-4.91473
-4.47741
-34.8403
-29.4735
-26.207
-23.4359
-20.967
-18.7924
-16.8694
-15.1602
-13.6383
-12.2824
-11.0738
-9.99621
-9.03487
-8.17669
-7.41
-6.72439
-6.1107
-5.56086
-5.06787
-4.62593
-35.2559
-29.8706
-26.5802
-23.787
-21.2944
-19.0967
-17.1522
-15.4236
-13.8844
-12.5132
-11.2913
-10.202
-9.23041
-8.3633
-7.58871
-6.89608
-6.27612
-5.72051
-5.22188
-4.77542
-35.6806
-30.2715
-26.9537
-24.1378
-21.6217
-19.4009
-17.4349
-15.6868
-14.1303
-12.7439
-11.5087
-10.4078
-9.42621
-8.55025
-7.76786
-7.0683
-6.44213
-5.88079
-5.37658
-4.92575
-36.102
-30.6711
-27.3275
-24.4887
-21.9492
-19.7053
-17.7178
-15.9502
-14.3764
-12.9748
-11.7263
-10.614
-9.62231
-8.73758
-7.94745
-7.24102
-6.60867
-6.04163
-5.53187
-5.07683
-3.96009
-2.64691
-1.88184
-1.33341
-0.987572
-0.743882
-0.582165
-0.472837
-0.402075
-0.358142
-0.333625
-0.322916
-0.32221
-0.328716
-0.340511
-0.356186
-0.374596
-0.394445
-0.413746
-0.429333
-0.436747
-0.43136
-0.410172
-0.373657
-0.325528
-0.271725
-0.218186
-0.169378
-0.127749
-0.0940244
-0.0677536
-0.047901
-0.0332429
-0.0226116
-0.0150379
-0.00965667
-0.00599371
-0.00326792
-0.00175264
4.95156e-05
-4.11187
-2.75001
-1.96837
-1.39936
-1.03978
-0.785187
-0.615104
-0.499228
-0.423249
-0.375082
-0.34706
-0.33338
-0.3301
-0.334315
-0.344017
-0.357721