/*--------------------------------*- C++ -*----------------------------------*\
  =========                 |
  \\      /  F ield         | OpenFOAM: The Open Source CFD Toolbox
   \\    /   O peration     | Website:  https://openfoam.org
    \\  /    A nd           | Version:  6.0
     \\/     M anipulation  |
\*---------------------------------------------------------------------------*/
FoamFile
{
    version     2.0;
    format      ascii;
    class       volVectorField;
    location    "3";
    object      U;
}
// * * * * * * * * * * * * * * * * * * * * * * * * * * * * * * * * * * * * * //

dimensions      [0 1 -1 0 0 0 0];

internalField   nonuniform List<vector> 
9600
(
(0.00954536 -0.466007 -2.53507e-22)
(0.00571237 -0.408834 -3.43392e-22)
(0.00165004 -0.36035 9.68297e-23)
(-0.00249722 -0.319448 -3.12668e-22)
(-0.00643187 -0.285105 1.70149e-22)
(-0.00990371 -0.256399 -1.82663e-22)
(-0.0127884 -0.232511 -3.98673e-22)
(-0.015035 -0.212722 4.16458e-22)
(-0.0166362 -0.196406 1.99819e-22)
(-0.0176151 -0.183019 -2.7406e-21)
(-0.0180147 -0.17209 1.69577e-21)
(-0.0178911 -0.163211 -1.60306e-21)
(-0.0173083 -0.156032 -8.16843e-22)
(-0.0163346 -0.150253 1.26016e-21)
(-0.0150401 -0.145619 -8.42256e-22)
(-0.0134959 -0.141912 -4.9447e-22)
(-0.0117714 -0.13895 1.13716e-21)
(-0.00991606 -0.136585 -1.29409e-21)
(-0.00795964 -0.134688 -3.79335e-22)
(-0.00609091 -0.133151 -9.9526e-22)
(0.027834 -0.464228 -3.13171e-21)
(0.0218423 -0.406039 -2.23097e-21)
(0.0161483 -0.357072 1.13125e-21)
(0.0108144 -0.316073 -1.85272e-21)
(0.00607199 -0.281909 3.84238e-22)
(0.0021143 -0.253571 -6.26039e-22)
(-0.000985058 -0.230176 3.18118e-21)
(-0.00321878 -0.210955 6.94716e-23)
(-0.00461693 -0.195246 -2.43601e-21)
(-0.00523409 -0.182475 3.59931e-21)
(-0.0051404 -0.172147 2.10114e-21)
(-0.00441508 -0.163838 -1.2405e-22)
(-0.00314216 -0.157183 3.10773e-21)
(-0.00140736 -0.15187 -1.38817e-22)
(0.000703718 -0.147633 1.46531e-21)
(0.00310532 -0.14425 4.32733e-21)
(0.0057145 -0.141535 -6.03895e-21)
(0.00847459 -0.139334 2.82144e-21)
(0.0113596 -0.137517 -1.54435e-21)
(0.0141315 -0.135982 3.71612e-21)
(0.0459664 -0.461849 5.04651e-21)
(0.0377848 -0.402858 4.63829e-21)
(0.0305125 -0.353597 -7.404e-21)
(0.0240914 -0.312666 -4.16544e-21)
(0.0186726 -0.278824 3.5035e-21)
(0.0143852 -0.250973 7.47367e-21)
(0.0112463 -0.22817 -9.921e-21)
(0.0092147 -0.2096 2.99519e-21)
(0.00821963 -0.194565 -5.62086e-21)
(0.00817219 -0.182465 -4.60136e-21)
(0.00897328 -0.172784 4.46743e-21)
(0.0105189 -0.165081 -2.62726e-21)
(0.0127039 -0.158978 -8.38357e-21)
(0.0154237 -0.154151 4.91854e-21)
(0.0185761 -0.150325 -1.66624e-21)
(0.0220594 -0.14727 -2.23893e-22)
(0.0257753 -0.144796 1.97155e-21)
(0.0296596 -0.142745 4.9213e-21)
(0.033692 -0.14098 -7.13959e-21)
(0.037572 -0.13941 6.82469e-21)
(0.0639636 -0.458877 -2.88656e-21)
(0.0535733 -0.399344 1.57989e-21)
(0.0447768 -0.349998 2.34662e-21)
(0.0373719 -0.309314 4.15067e-21)
(0.0314138 -0.27594 -1.14295e-21)
(0.0269577 -0.248699 1.88272e-21)
(0.0239567 -0.226587 -1.15736e-21)
(0.0223166 -0.208749 3.1176e-21)
(0.0219223 -0.194455 8.27595e-21)
(0.0226479 -0.183079 -5.0403e-21)
(0.0243637 -0.17409 -3.32889e-21)
(0.0269395 -0.167028 -4.4245e-21)
(0.0302476 -0.161504 -2.01437e-21)
(0.0341641 -0.157182 4.39967e-21)
(0.0385688 -0.153779 -2.93616e-21)
(0.0433429 -0.151056 -1.15427e-20)
(0.048371 -0.148815 9.35973e-21)
(0.0535809 -0.146894 -1.35941e-20)
(0.0589595 -0.145147 -1.05943e-21)
(0.0641307 -0.143496 -9.79187e-22)
(0.0818211 -0.455319 -3.7784e-21)
(0.0692299 -0.395534 -8.60878e-21)
(0.0589802 -0.346337 1.12751e-20)
(0.0507068 -0.306087 -3.26771e-21)
(0.0443556 -0.273335 -1.173e-20)
(0.0398975 -0.246826 -2.33549e-22)
(0.0372154 -0.225505 -5.19474e-21)
(0.0361566 -0.208478 -1.61699e-21)
(0.0365584 -0.194987 -5.30193e-21)
(0.0382557 -0.184387 1.37186e-20)
(0.0410862 -0.176128 -2.01374e-20)
(0.0448926 -0.16974 5.454e-21)
(0.0495237 -0.164819 -1.07007e-20)
(0.0548351 -0.161022 1.54733e-20)
(0.0606882 -0.158052 -1.56677e-20)
(0.0669459 -0.155662 8.87688e-21)
(0.0734739 -0.153648 -5.64379e-21)
(0.0801913 -0.151836 -2.3832e-22)
(0.087093 -0.150068 7.32933e-21)
(0.0937151 -0.148283 -4.08339e-22)
(0.0995292 -0.45119 1.14809e-21)
(0.0847761 -0.391463 8.39521e-21)
(0.0731669 -0.342662 6.09411e-21)
(0.0641575 -0.303042 -4.68961e-21)
(0.0575713 -0.271066 1.27452e-20)
(0.0532865 -0.245412 1.92574e-21)
(0.0511087 -0.224977 -2.52762e-22)
(0.0508225 -0.208835 -8.50975e-21)
(0.0522141 -0.196205 1.32401e-21)
(0.0550772 -0.186426 1.30954e-20)
(0.0592152 -0.178934 -7.25078e-21)
(0.0644427 -0.173247 1.40374e-20)
(0.0705846 -0.168953 -3.83778e-21)
(0.0774754 -0.165695 -3.90609e-21)
(0.0849574 -0.163168 8.86492e-21)
(0.092874 -0.161115 1.09427e-20)
(0.101071 -0.159319 -6.40913e-21)
(0.109458 -0.157596 1.40048e-20)
(0.118037 -0.155764 -1.61337e-20)
(0.126245 -0.153788 2.58352e-20)
(0.117079 -0.446509 9.17733e-21)
(0.100236 -0.387162 -1.37856e-20)
(0.087388 -0.33901 -1.39864e-20)
(0.077795 -0.30022 1.66452e-20)
(0.071147 -0.269175 -5.28091e-21)
(0.0672209 -0.244495 -1.00011e-20)
(0.0657394 -0.225037 1.05336e-20)
(0.0664196 -0.209848 6.81526e-22)
(0.068994 -0.198129 4.53352e-21)
(0.0732126 -0.189207 -1.58875e-20)
(0.0788438 -0.182509 8.96054e-21)
(0.0856732 -0.177546 -8.08823e-21)
(0.0935013 -0.173894 2.43815e-20)
(0.102141 -0.171189 -1.40203e-20)
(0.111416 -0.169115 1.16342e-21)
(0.12115 -0.1674 -2.41888e-21)
(0.131166 -0.165818 -2.84834e-21)
(0.141363 -0.164163 1.40003e-20)
(0.151752 -0.162227 1.42674e-21)
(0.161657 -0.160002 -3.94506e-21)
(0.134462 -0.441288 -1.35187e-20)
(0.115638 -0.382655 9.60318e-21)
(0.101701 -0.33541 2.16012e-21)
(0.0916996 -0.29765 -6.07751e-22)
(0.0851801 -0.267689 -1.70456e-22)
(0.0818107 -0.244095 7.45867e-21)
(0.0812251 -0.225694 -2.08924e-20)
(0.0830694 -0.211515 -2.91663e-21)
(0.0870192 -0.200747 -6.03164e-21)
(0.0927797 -0.192709 6.84779e-21)
(0.100083 -0.186823 3.04869e-22)
(0.108685 -0.182594 9.25707e-21)
(0.118362 -0.179595 -5.28396e-24)
(0.128906 -0.177451 -2.50281e-20)
(0.140121 -0.175836 -7.10426e-21)
(0.15181 -0.174463 2.57328e-20)
(0.163775 -0.173091 -1.01509e-20)
(0.175903 -0.171489 -2.83432e-21)
(0.188211 -0.169413 6.64528e-21)
(0.199899 -0.166882 2.94619e-21)
(0.151673 -0.435541 8.71876e-21)
(0.131015 -0.377962 -1.0492e-20)
(0.116169 -0.331883 -1.78504e-20)
(0.10596 -0.295348 -3.12355e-21)
(0.0997786 -0.266615 -9.45232e-21)
(0.0971775 -0.244211 -2.85097e-21)
(0.0976967 -0.226937 -1.17194e-20)
(0.100907 -0.213811 2.3644e-20)
(0.106426 -0.204018 -1.07952e-20)
(0.113912 -0.196875 -6.23885e-21)
(0.123059 -0.191804 -3.7371e-21)
(0.133594 -0.188311 9.16382e-21)
(0.145269 -0.185963 -4.53505e-23)
(0.157856 -0.184381 -4.12239e-21)
(0.17114 -0.183226 -9.5876e-21)
(0.184904 -0.1822 -1.20993e-20)
(0.198928 -0.181038 1.75093e-20)
(0.213085 -0.179482 8.32064e-21)
(0.227399 -0.177237 -3.26222e-20)
(0.240934 -0.174353 3.18814e-20)
(0.168706 -0.429283 -9.35133e-21)
(0.146402 -0.373096 2.59538e-20)
(0.130862 -0.32844 -2.19419e-20)
(0.120672 -0.293318 1.46511e-20)
(0.115059 -0.265947 2.11821e-20)
(0.113453 -0.244821 -8.9378e-21)
(0.115296 -0.228729 -5.71063e-22)
(0.120081 -0.216684 2.48283e-21)
(0.127364 -0.207873 1.14024e-20)
(0.136754 -0.201619 -1.24367e-20)
(0.147909 -0.197349 -8.87682e-21)
(0.160527 -0.194573 8.94348e-21)
(0.174335 -0.192861 -9.5208e-22)
(0.189086 -0.191831 1.79886e-21)
(0.204549 -0.191133 2.30522e-20)
(0.220486 -0.190455 -1.19087e-20)
(0.236656 -0.18951 2.32213e-21)
(0.252919 -0.188001 -1.73672e-20)
(0.269303 -0.185571 4.87601e-20)
(0.284727 -0.182302 -3.61007e-20)
(0.185558 -0.422523 1.32827e-20)
(0.161839 -0.368068 3.49139e-21)
(0.145855 -0.325082 9.25878e-21)
(0.135939 -0.291551 -1.08876e-20)
(0.131145 -0.265662 2.01482e-21)
(0.130777 -0.245889 2.49033e-20)
(0.134173 -0.231014 -5.02505e-21)
(0.140746 -0.220057 2.28528e-20)
(0.149988 -0.212215 -1.64287e-20)
(0.16146 -0.206821 9.32065e-21)
(0.174781 -0.203315 2.55257e-20)
(0.189618 -0.201219 -7.73827e-21)
(0.205678 -0.200108 1.54114e-20)
(0.222696 -0.199603 -3.85729e-21)
(0.240422 -0.199348 -2.3242e-20)
(0.258607 -0.199016 3.39185e-20)
(0.276987 -0.198298 -9.85835e-21)
(0.295408 -0.196849 3.93481e-20)
(0.313906 -0.194237 6.83592e-21)
(0.331238 -0.190573 -6.61276e-20)
(0.202228 -0.415274 -4.2295e-20)
(0.177369 -0.362883 8.73946e-21)
(0.161226 -0.321804 -6.927e-21)
(0.151866 -0.290027 -2.73573e-20)
(0.148165 -0.265723 -5.59271e-21)
(0.149292 -0.247356 -5.77628e-21)
(0.154481 -0.233716 -1.5899e-21)
(0.16306 -0.223833 -1.55614e-20)
(0.174458 -0.216921 -8.88994e-21)
(0.188185 -0.212334 -2.62293e-21)
(0.20382 -0.20953 -6.76497e-21)
(0.221002 -0.208048 1.25087e-20)
(0.239416 -0.207479 9.59356e-21)
(0.258778 -0.207451 -4.52831e-20)
(0.278831 -0.20761 2.02846e-20)
(0.299309 -0.207615 -2.3621e-20)
(0.319933 -0.207136 -1.59995e-20)
(0.34054 -0.205775 1.39368e-20)
(0.361169 -0.203007 8.25492e-21)
(0.380413 -0.198968 -2.06314e-20)
(0.218716 -0.407546 5.56872e-20)
(0.193038 -0.357541 3.32074e-20)
(0.177057 -0.318592 1.83807e-20)
(0.168564 -0.288713 1.9477e-20)
(0.166248 -0.266079 -9.67759e-21)
(0.169143 -0.249152 5.80315e-20)
(0.176373 -0.23674 -2.71994e-20)
(0.187182 -0.227893 5.80207e-20)
(0.200933 -0.221849 -2.43635e-20)
(0.217082 -0.217987 4.83175e-20)
(0.235172 -0.215793 2.57073e-20)
(0.254809 -0.21483 1.71024e-20)
(0.275657 -0.214712 -4.33948e-20)
(0.29742 -0.215084 4.01025e-20)
(0.31983 -0.215602 -1.08757e-20)
(0.342615 -0.215922 3.46091e-20)
(0.365485 -0.215693 9.51554e-21)
(0.388272 -0.214462 4.80377e-20)
(0.411026 -0.211592 -1.03278e-20)
(0.432164 -0.207237 -1.24422e-21)
(0.235024 -0.399348 -2.92416e-20)
(0.208893 -0.352037 1.94031e-20)
(0.19343 -0.315421 5.24206e-21)
(0.18614 -0.287567 -3.35257e-20)
(0.185522 -0.266664 -4.01644e-21)
(0.190469 -0.251191 -1.89815e-21)
(0.199995 -0.239977 9.10098e-21)
(0.213261 -0.232104 -1.59948e-20)
(0.229558 -0.22684 5.79319e-21)
(0.248295 -0.223595 9.41694e-21)
(0.268968 -0.221886 -1.44776e-20)
(0.291156 -0.221311 -1.09096e-20)
(0.3145 -0.221515 6.47766e-21)
(0.338691 -0.222173 -1.39292e-20)
(0.363456 -0.222962 4.41388e-20)
(0.388523 -0.223548 -4.82129e-20)
(0.413601 -0.22357 -3.41903e-20)
(0.438526 -0.222521 5.02614e-20)
(0.463368 -0.219637 -1.97589e-20)
(0.48637 -0.215075 -3.41778e-20)
(0.251154 -0.390688 -1.56585e-20)
(0.224983 -0.346362 -2.12158e-20)
(0.210428 -0.312262 -5.65675e-21)
(0.204701 -0.286533 3.67382e-20)
(0.206108 -0.267401 -1.7109e-20)
(0.2134 -0.253372 3.00659e-21)
(0.225483 -0.243307 -5.5425e-20)
(0.241429 -0.236325 7.96789e-21)
(0.260466 -0.231727 -1.6234e-20)
(0.281946 -0.228962 1.44576e-20)
(0.305324 -0.227585 -3.50389e-20)
(0.330145 -0.227229 1.60164e-20)
(0.356026 -0.227584 -2.58787e-20)
(0.382647 -0.228365 1.70926e-20)
(0.409731 -0.229287 1.30763e-20)
(0.437012 -0.230048 -1.077e-20)
(0.464209 -0.230297 -5.8445e-20)
(0.491184 -0.229482 3.39889e-20)
(0.518041 -0.226703 -1.5583e-20)
(0.542861 -0.222103 8.13533e-21)
(0.267111 -0.381573 5.96805e-20)
(0.241358 -0.340499 -1.41479e-20)
(0.228131 -0.309071 -2.34831e-20)
(0.224347 -0.285545 1.12345e-20)
(0.228115 -0.2682 1.72079e-20)
(0.23805 -0.255583 -2.60555e-20)
(0.252948 -0.246598 1.86265e-20)
(0.271798 -0.240403 -2.80381e-20)
(0.29376 -0.236342 3.94581e-20)
(0.318131 -0.2339 -4.43794e-20)
(0.344324 -0.232672 2.22583e-20)
(0.371849 -0.232335 -3.11958e-21)
(0.400296 -0.232625 -3.69052e-21)
(0.429328 -0.233308 -3.18087e-20)
(0.458665 -0.234159 5.1411e-20)
(0.488049 -0.234932 -1.28983e-21)
(0.517224 -0.235322 -4.80629e-21)
(0.546099 -0.234768 -5.03487e-22)
(0.574855 -0.232235 -1.98509e-21)
(0.601431 -0.227831 -2.47599e-20)
(0.2829 -0.372007 -5.00793e-20)
(0.258066 -0.334424 -8.27028e-21)
(0.246615 -0.305794 -1.14025e-20)
(0.245165 -0.28452 -8.07733e-20)
(0.251638 -0.268956 -4.84157e-20)
(0.264511 -0.257701 6.00311e-20)
(0.282477 -0.249709 -2.29614e-20)
(0.304443 -0.244187 1.26265e-20)
(0.329504 -0.240519 2.16158e-20)
(0.356905 -0.238232 6.24723e-21)
(0.386016 -0.236957 1.70725e-20)
(0.416309 -0.236414 -8.19943e-21)
(0.447344 -0.236383 2.8013e-20)
(0.478762 -0.236691 -2.28539e-20)
(0.510272 -0.237182 1.09361e-20)
(0.541626 -0.237701 -7.40287e-20)
(0.572593 -0.238042 5.01017e-20)
(0.603158 -0.237702 3.52151e-20)
(0.633646 -0.235558 -1.97495e-20)
(0.661915 -0.231661 -2.51482e-20)
(0.298534 -0.361991 2.29624e-20)
(0.275159 -0.328103 2.38492e-20)
(0.265947 -0.302364 2.12967e-20)
(0.267231 -0.283362 7.58079e-20)
(0.276747 -0.26955 -7.70651e-20)
(0.292845 -0.259588 2.18556e-20)
(0.314118 -0.252492 3.30179e-22)
(0.339397 -0.247521 -2.82823e-20)
(0.367714 -0.244104 3.02871e-20)
(0.398268 -0.241804 -7.13665e-21)
(0.430387 -0.24029 -1.04545e-20)
(0.463508 -0.239312 -6.40742e-21)
(0.497159 -0.23869 1.32679e-20)
(0.530953 -0.238299 5.22419e-22)
(0.564575 -0.238056 -2.62461e-20)
(0.597771 -0.237914 -3.40615e-20)
(0.630328 -0.23783 2.29835e-20)
(0.662316 -0.237474 1.69466e-20)
(0.69431 -0.235749 -3.60222e-20)
(0.724243 -0.232675 9.15563e-21)
(0.314048 -0.35153 -3.39296e-21)
(0.292693 -0.321491 -5.38319e-20)
(0.286187 -0.298695 -5.76322e-21)
(0.290596 -0.281959 -5.396e-22)
(0.303484 -0.269847 1.31804e-20)
(0.323078 -0.261096 5.58942e-20)
(0.347877 -0.254791 -1.62484e-20)
(0.376638 -0.250249 -2.93863e-20)
(0.408342 -0.246949 2.52677e-21)
(0.442146 -0.24449 1.41416e-20)
(0.477346 -0.24257 -1.52264e-20)
(0.51335 -0.240962 -1.86068e-20)
(0.54966 -0.239503 -7.37694e-21)
(0.585856 -0.238088 1.42228e-20)
(0.621589 -0.236669 1.11606e-20)
(0.656562 -0.235277 5.77577e-20)
(0.690518 -0.234033 1.53979e-20)
(0.723548 -0.23285 -1.95804e-20)
(0.756561 -0.230804 2.18858e-20)
(0.78801 -0.228286 4.09025e-20)
(0.329507 -0.340589 1.72443e-20)
(0.310722 -0.314496 5.31821e-20)
(0.307369 -0.294674 7.44328e-21)
(0.315284 -0.280178 -7.2209e-21)
(0.331859 -0.269698 4.72068e-20)
(0.355196 -0.262062 -1.3421e-20)
(0.383705 -0.256436 -1.88232e-20)
(0.416083 -0.252208 5.23214e-20)
(0.451263 -0.248908 -3.48869e-20)
(0.488373 -0.246179 1.83058e-20)
(0.526692 -0.243746 -2.39441e-21)
(0.56562 -0.241396 -4.99411e-21)
(0.604656 -0.238963 -2.51341e-20)
(0.643379 -0.23632 6.71048e-20)
(0.681434 -0.233382 -8.31842e-20)
(0.718496 -0.230134 4.15442e-20)
(0.754244 -0.226661 -1.27959e-20)
(0.788609 -0.222897 -3.15495e-21)
(0.822426 -0.218227 4.38073e-20)
(0.854908 -0.214573 -8.38734e-20)
(0.569584 -0.00808185 4.69381e-21)
(0.562995 -0.0301374 -1.43751e-21)
(0.555545 -0.0516413 -7.84807e-21)
(0.547284 -0.0726009 2.09969e-20)
(0.538252 -0.093001 -2.35443e-20)
(0.528503 -0.112824 -1.04764e-20)
(0.518099 -0.132055 7.9546e-21)
(0.507096 -0.150684 1.08015e-20)
(0.495552 -0.168705 -8.32033e-21)
(0.483517 -0.186118 7.70802e-21)
(0.471041 -0.202925 -8.73226e-22)
(0.458168 -0.219134 -1.64952e-22)
(0.444939 -0.234753 -4.94668e-21)
(0.431392 -0.249794 2.38403e-20)
(0.417558 -0.264272 -2.25001e-20)
(0.403464 -0.278201 1.53336e-20)
(0.389136 -0.291597 -2.01093e-20)
(0.374592 -0.304481 -1.69707e-20)
(0.359853 -0.316898 -2.87356e-21)
(0.344905 -0.328923 1.77242e-21)
(0.699857 -0.00069696 -9.80653e-22)
(0.68491 -0.0271544 -6.06898e-21)
(0.668683 -0.052441 1.22653e-20)
(0.651342 -0.0765269 1.9547e-20)
(0.633033 -0.0993817 -5.44907e-21)
(0.613903 -0.120983 -2.59032e-20)
(0.594102 -0.141321 4.46407e-20)
(0.573774 -0.160399 -9.57262e-21)
(0.553057 -0.178233 -5.04383e-20)
(0.532083 -0.19485 2.31151e-20)
(0.510971 -0.210292 6.94955e-21)
(0.489834 -0.224608 4.26712e-20)
(0.46877 -0.237857 -7.99014e-20)
(0.447869 -0.250105 2.62544e-21)
(0.427206 -0.261424 1.93608e-20)
(0.406847 -0.271891 2.94313e-20)
(0.38684 -0.281584 4.95473e-20)
(0.367226 -0.290595 -1.86231e-20)
(0.348027 -0.299023 -3.66719e-20)
(0.329222 -0.306975 3.75698e-20)
(0.820772 0.0164612 4.06756e-21)
(0.80018 -0.0137813 -4.68248e-21)
(0.777853 -0.0425035 3.65436e-21)
(0.754022 -0.0696199 -9.36349e-21)
(0.728907 -0.0950653 1.20874e-20)
(0.702729 -0.118795 2.87639e-20)
(0.675706 -0.140783 -3.14943e-20)
(0.648053 -0.161027 4.65411e-21)
(0.619976 -0.179543 2.01525e-20)
(0.591674 -0.196367 4.10218e-20)
(0.563332 -0.211551 -9.82992e-21)
(0.535124 -0.225167 6.67358e-20)
(0.507207 -0.237302 2.87854e-21)
(0.479721 -0.248053 -6.83804e-20)
(0.452792 -0.257528 -8.51094e-21)
(0.426524 -0.265843 -1.75158e-20)
(0.401004 -0.273129 -3.51221e-20)
(0.3763 -0.279522 -1.72703e-20)
(0.352456 -0.285162 -2.70152e-20)
(0.329482 -0.290181 3.17034e-20)
(0.931193 0.0377981 -8.41119e-22)
(0.90705 0.00442097 2.44828e-21)
(0.880716 -0.0272637 -3.23833e-21)
(0.852457 -0.0571214 -1.84518e-20)
(0.822537 -0.0850465 -7.53123e-21)
(0.791223 -0.110961 -1.02922e-20)
(0.758786 -0.134813 3.6569e-20)
(0.725495 -0.15658 -1.18671e-21)
(0.691611 -0.176261 -3.32643e-20)
(0.657389 -0.193884 1.47614e-21)
(0.623071 -0.2095 -1.96044e-20)
(0.588886 -0.223184 4.26396e-21)
(0.555045 -0.235032 -9.33253e-20)
(0.521741 -0.245156 4.5697e-20)
(0.489147 -0.253683 -2.74747e-20)
(0.457412 -0.26076 -8.92527e-21)
(0.426667 -0.266547 -9.97234e-20)
(0.397014 -0.271216 9.15804e-20)
(0.368534 -0.27494 -4.30362e-20)
(0.34128 -0.277882 -2.58496e-20)
(1.03046 0.0606838 4.35157e-22)
(1.00445 0.0248368 -6.05447e-21)
(0.975805 -0.0092769 8.74066e-21)
(0.944815 -0.0414814 1.11386e-20)
(0.91176 -0.0716316 -1.32521e-20)
(0.876937 -0.0996125 4.16715e-20)
(0.840649 -0.12534 -1.21887e-20)
(0.803201 -0.14876 -4.44494e-22)
(0.764897 -0.169849 -1.82592e-20)
(0.726035 -0.188615 4.00961e-20)
(0.686905 -0.205093 2.79803e-20)
(0.647782 -0.21935 1.48285e-20)
(0.608927 -0.231476 8.45377e-21)
(0.570582 -0.241584 -3.02303e-20)
(0.532964 -0.24981 1.86693e-20)
(0.496272 -0.256317 6.7981e-20)
(0.460677 -0.261287 6.7647e-20)
(0.426329 -0.264917 -4.79732e-20)
(0.39335 -0.267404 1.65639e-20)
(0.361836 -0.268941 -5.92839e-21)
(1.11837 0.083678 1.19299e-21)
(1.09182 0.0460133 -1.553e-21)
(1.06225 0.0100229 -8.67715e-21)
(1.02993 -0.0240826 4.08651e-21)
(0.995152 -0.0561216 -2.34852e-22)
(0.958212 -0.085943 3.79461e-21)
(0.919432 -0.113427 -2.09586e-20)
(0.879139 -0.138486 1.54195e-20)
(0.837665 -0.161065 -3.03558e-20)
(0.795338 -0.181145 3.30741e-20)
(0.752483 -0.198739 -4.98365e-21)
(0.709416 -0.213892 1.44506e-20)
(0.666437 -0.226678 -4.64249e-20)
(0.623831 -0.237201 -1.76644e-20)
(0.581859 -0.245597 4.78925e-20)
(0.540763 -0.252035 -3.44309e-20)
(0.500761 -0.256711 -4.86654e-20)
(0.462046 -0.259836 2.53765e-20)
(0.424788 -0.261628 -1.62067e-20)
(0.389133 -0.262304 4.52743e-20)
(1.19505 0.105691 -9.23568e-22)
(1.16902 0.066819 4.31747e-21)
(1.13963 0.0294905 2.55662e-21)
(1.10712 -0.00605571 -2.79679e-21)
(1.07177 -0.0396068 1.39e-20)
(1.03389 -0.0709782 -3.80331e-20)
(0.99379 -0.100015 2.17033e-20)
(0.951803 -0.126597 -1.65471e-20)
(0.908272 -0.150633 1.53916e-21)
(0.863546 -0.172073 -2.45164e-20)
(0.817974 -0.1909 3.75395e-20)
(0.771899 -0.207132 8.82996e-20)
(0.725655 -0.220819 -8.67812e-20)
(0.679558 -0.232044 -6.18381e-20)
(0.633911 -0.240939 -3.54191e-20)
(0.588992 -0.24767 2.44833e-20)
(0.545063 -0.252439 -2.72914e-20)
(0.502362 -0.255466 1.38818e-21)
(0.461108 -0.256987 5.80066e-20)
(0.4215 -0.257238 6.38835e-22)
(1.26094 0.12598 -5.09114e-22)
(1.23621 0.0864519 3.18891e-21)
(1.20784 0.0482878 9.6312e-22)
(1.17606 0.0117482 -1.72875e-20)
(1.1411 -0.0229286 1.98128e-20)
(1.10325 -0.0555292 -1.73485e-20)
(1.06281 -0.0858678 4.81057e-20)
(1.02012 -0.113789 -5.66805e-21)
(0.975519 -0.139171 -2.50061e-20)
(0.929352 -0.161927 4.26149e-21)
(0.881985 -0.182007 -6.3775e-21)
(0.833777 -0.199395 -2.50885e-20)
(0.785083 -0.21411 -5.40385e-20)
(0.736247 -0.226215 -2.32966e-20)
(0.687598 -0.235825 5.1468e-20)
(0.639451 -0.2431 -3.65968e-20)
(0.592101 -0.248239 -2.20058e-20)
(0.545828 -0.251469 -3.2148e-20)
(0.500901 -0.253039 4.73993e-21)
(0.457576 -0.253209 3.69897e-21)
(1.31667 0.144106 4.18576e-22)
(1.29381 0.1044 3.57413e-22)
(1.26711 0.0658508 -5.66148e-22)
(1.23673 0.0287335 -5.08097e-21)
(1.20291 -0.00669521 -1.13646e-20)
(1.16589 -0.0401989 -8.14806e-21)
(1.12595 -0.0715647 -3.57526e-20)
(1.0834 -0.100607 3.28405e-20)
(1.03857 -0.127172 -1.9172e-20)
(0.991812 -0.151138 4.18151e-20)
(0.943482 -0.17242 -7.4127e-21)
(0.893948 -0.190965 6.79293e-20)
(0.843574 -0.206756 4.40441e-20)
(0.79272 -0.219832 8.73444e-20)
(0.741733 -0.230287 -6.08521e-20)
(0.690952 -0.238266 5.1962e-20)
(0.6407 -0.243959 -1.10414e-20)
(0.59129 -0.247602 3.47417e-20)
(0.543037 -0.24946 3.65973e-20)
(0.49626 -0.249813 -5.10047e-20)
(1.36302 0.159849 -3.25637e-21)
(1.34241 0.120367 -1.83193e-22)
(1.31782 0.0818242 1.18352e-20)
(1.28937 0.0445009 -1.06433e-20)
(1.25726 0.00866614 6.71666e-21)
(1.22168 -0.0254267 2.59678e-20)
(1.18291 -0.0575434 -8.89042e-21)
(1.1412 -0.0874726 -8.04299e-21)
(1.09688 -0.11503 -1.09312e-20)
(1.05027 -0.140063 1.89435e-20)
(1.00172 -0.162451 -2.52136e-20)
(0.951595 -0.182097 4.50749e-20)
(0.900256 -0.198954 -4.44284e-20)
(0.848068 -0.213028 1.29157e-20)
(0.795388 -0.224386 1.95157e-20)
(0.742564 -0.233154 1.4751e-20)
(0.689931 -0.239512 -2.73189e-20)
(0.637831 -0.243699 -4.16676e-20)
(0.586614 -0.246007 1.48976e-20)
(0.536663 -0.246746 4.36721e-21)
(1.40085 0.17315 3.53255e-21)
(1.38272 0.134221 9.48154e-21)
(1.36052 0.0960114 -2.14358e-20)
(1.33436 0.0588032 -1.67949e-20)
(1.30437 0.0228709 -8.82704e-21)
(1.27072 -0.0115217 -2.37831e-20)
(1.23363 -0.0441245 1.68872e-20)
(1.19334 -0.0747056 2.06467e-20)
(1.15013 -0.103056 -4.59055e-20)
(1.1043 -0.128993 2.30766e-20)
(1.05618 -0.152357 2.2043e-20)
(1.00612 -0.173018 5.16917e-20)
(0.954479 -0.190887 -3.66791e-20)
(0.901602 -0.205938 5.17179e-20)
(0.847847 -0.218208 -4.7493e-20)
(0.793556 -0.227791 -6.37392e-21)
(0.739068 -0.234856 -1.23874e-20)
(0.684727 -0.239653 5.44697e-20)
(0.63091 -0.242505 1.47031e-20)
(0.578061 -0.24377 -1.60238e-20)
(1.43105 0.184068 -3.18666e-21)
(1.41549 0.145948 2.01412e-21)
(1.39585 0.108336 1.4213e-20)
(1.37219 0.0715116 1.48994e-21)
(1.3446 0.0357477 2.04607e-20)
(1.31322 0.00131293 1.69597e-20)
(1.27821 -0.0315328 -1.47357e-20)
(1.23978 -0.0625424 -2.11441e-20)
(1.19817 -0.0914866 1.64172e-20)
(1.15365 -0.118155 1.42524e-20)
(1.10653 -0.142358 -1.24802e-20)
(1.05713 -0.163921 3.52992e-20)
(1.00577 -0.182723 -8.14038e-20)
(0.952802 -0.198701 1.90383e-20)
(0.898561 -0.211849 2.12386e-20)
(0.84337 -0.222227 -3.75367e-20)
(0.787547 -0.22999 -7.4765e-20)
(0.731418 -0.235398 2.47539e-20)
(0.675361 -0.23882 -2.06901e-20)
(0.619873 -0.240697 -1.84915e-20)
(1.45452 0.19274 -1.47524e-21)
(1.44152 0.155619 1.37705e-21)
(1.42448 0.118812 -6.94873e-21)
(1.40343 0.0825874 -4.03016e-21)
(1.37841 0.0472139 -1.51148e-21)
(1.34951 0.0129589 -1.61324e-20)
(1.31687 -0.0199136 4.37794e-20)
(1.28063 -0.0511471 8.98146e-22)
(1.24101 -0.0804969 -2.50693e-22)
(1.19824 -0.107732 -3.76817e-20)
(1.15258 -0.132625 3.78545e-20)
(1.10433 -0.154972 -2.03753e-20)
(1.0538 -0.174616 3.82929e-20)
(1.00129 -0.191448 -5.78939e-20)
(0.947122 -0.205416 -1.91884e-21)
(0.891582 -0.216538 -3.55614e-20)
(0.834945 -0.224943 6.59509e-20)
(0.777487 -0.230903 -1.5574e-20)
(0.719543 -0.234855 -8.17851e-21)
(0.661642 -0.237372 -3.85443e-20)
(1.4721 0.199352 4.46038e-21)
(1.46158 0.163364 -2.91769e-22)
(1.44711 0.127514 9.14931e-21)
(1.42868 0.0920585 -9.40362e-21)
(1.4063 0.0572546 1.11868e-20)
(1.38001 0.0233644 -7.03037e-21)
(1.34991 -0.009349 -2.4912e-20)
(1.3161 -0.0406251 9.59696e-21)
(1.27876 -0.0702098 9.76138e-21)
(1.23806 -0.0978508 -1.34943e-20)
(1.19426 -0.123297 1.46369e-21)
(1.14759 -0.146311 -1.90421e-21)
(1.09834 -0.166698 -4.01213e-20)
(1.0468 -0.184307 4.39905e-20)
(0.993229 -0.199025 2.25135e-20)
(0.937878 -0.210819 8.24322e-20)
(0.880955 -0.219776 -1.17417e-19)
(0.822639 -0.226176 3.04355e-20)
(0.763164 -0.230539 7.16866e-20)
(0.703024 -0.233654 5.69282e-20)
(1.48459 0.204119 -3.46914e-21)
(1.47641 0.169349 2.64284e-21)
(1.46441 0.134563 -3.2798e-21)
(1.44854 0.100001 -2.12926e-20)
(1.42879 0.0659051 2.14135e-20)
(1.40515 0.0325292 7.43573e-21)
(1.37768 0.000129939 1.9552e-21)
(1.34645 -0.0310333 2.08042e-20)
(1.31158 -0.0607009 -4.82432e-20)
(1.27322 -0.0886087 3.77303e-20)
(1.23157 -0.114478 -4.12664e-21)
(1.18684 -0.138048 6.19778e-20)
(1.13928 -0.159091 -7.83878e-20)
(1.08915 -0.177401 6.20177e-23)
(1.03667 -0.192802 -4.19304e-20)
(0.982031 -0.20519 5.76502e-21)
(0.925363 -0.214592 7.14398e-20)
(0.866699 -0.221269 -5.8915e-20)
(0.806062 -0.225835 -1.61811e-20)
(0.743794 -0.229411 -9.79684e-20)
(1.49272 0.207266 1.00373e-21)
(1.4867 0.173761 1.19982e-22)
(1.47702 0.140107 -7.92899e-21)
(1.46361 0.106524 3.2455e-21)
(1.44641 0.0732407 7.36458e-21)
(1.4254 0.0404957 1.06419e-20)
(1.40058 0.00853645 -4.13537e-21)
(1.372 -0.0223836 1.04447e-20)
(1.33972 -0.0520057 -1.90045e-20)
(1.30387 -0.0800533 -2.58802e-20)
(1.26459 -0.106233 -9.5251e-21)
(1.22209 -0.130266 -4.77453e-21)
(1.17656 -0.151886 -1.00597e-20)
(1.12822 -0.170835 -6.96559e-21)
(1.07728 -0.186866 1.60356e-20)
(1.02388 -0.199787 -2.04551e-21)
(0.968037 -0.209528 -6.34223e-20)
(0.909598 -0.21629 -1.21158e-20)
(0.848232 -0.220755 6.39706e-20)
(0.783861 -0.22452 3.18642e-20)
(1.49713 0.209015 1.3973e-22)
(1.49308 0.176792 2.23951e-21)
(1.48555 0.144307 -1.3575e-22)
(1.47444 0.111761 8.2162e-21)
(1.45968 0.0793647 -1.63997e-20)
(1.44121 0.0473402 -1.7776e-20)
(1.41901 0.0159216 2.44119e-20)
(1.39307 -0.0146475 -1.6383e-20)
(1.36345 -0.0441133 -1.32508e-21)
(1.33021 -0.0721934 1.84195e-20)
(1.29348 -0.098587 1.07665e-22)
(1.2534 -0.122998 3.34002e-20)
(1.21017 -0.145132 -1.50901e-20)
(1.16398 -0.164677 -1.88898e-20)
(1.115 -0.181312 -4.9188e-20)
(1.06333 -0.194736 -5.22384e-21)
(1.00892 -0.204741 -4.62993e-20)
(0.951391 -0.211391 2.73551e-20)
(0.889874 -0.215351 4.30316e-20)
(0.823355 -0.218841 -2.45141e-20)
(1.49839 0.209579 -2.1245e-21)
(1.49609 0.178624 4.60459e-21)
(1.49052 0.147313 7.91946e-21)
(1.48154 0.115829 -8.75586e-21)
(1.46907 0.0843614 1.3688e-20)
(1.45302 0.0531158 -4.78056e-21)
(1.43335 0.0223098 -5.9546e-21)
(1.41002 -0.00782743 -4.38467e-21)
(1.38304 -0.0370491 -4.64054e-22)
(1.35246 -0.0650762 -3.65503e-20)
(1.31836 -0.0916024 3.48397e-21)
(1.28087 -0.116328 1.84722e-20)
(1.24015 -0.138931 3.98526e-20)
(1.19637 -0.159052 6.92781e-20)
(1.1497 -0.176298 -8.67166e-21)
(1.10026 -0.190251 7.90285e-20)
(1.04792 -0.200517 -3.35452e-20)
(0.992166 -0.206906 4.60205e-20)
(0.931409 -0.209827 2.6921e-20)
(0.862867 -0.212132 -1.41853e-20)
(1.49697 0.209165 8.9835e-22)
(1.49623 0.179418 -2.3909e-21)
(1.4924 0.14924 -1.75536e-20)
(1.48536 0.118791 -1.47202e-20)
(1.47499 0.0882435 1.78743e-20)
(1.46121 0.0577814 2.70523e-20)
(1.44393 0.027604 1.96478e-21)
(1.4231 -0.00207524 -1.58047e-20)
(1.3987 -0.0310243 -2.21201e-20)
(1.37074 -0.0589658 1.012e-20)
(1.33929 -0.085604 -2.46878e-21)
(1.30443 -0.110635 -6.72542e-20)
(1.26632 -0.133718 -6.70183e-20)
(1.22513 -0.15446 2.54048e-20)
(1.18103 -0.172407 3.05889e-20)
(1.13418 -0.187028 -2.5475e-21)
(1.08453 -0.197728 -2.41878e-20)
(1.03158 -0.203946 -1.93503e-20)
(0.973136 -0.20536 -2.32001e-20)
(0.903824 -0.204708 3.96575e-20)
(1.49327 0.207974 -2.96264e-21)
(1.49387 0.179435 5.20851e-21)
(1.49158 0.150395 3.20942e-21)
(1.48629 0.120995 5.31299e-21)
(1.47785 0.0913848 -2.0568e-20)
(1.46617 0.061728 -2.54067e-20)
(1.45114 0.0322028 -5.86402e-21)
(1.43269 0.00300241 3.18043e-20)
(1.41077 -0.025655 -1.8232e-20)
(1.38537 -0.0535104 7.5517e-21)
(1.35652 -0.0802779 -2.96292e-20)
(1.3243 -0.105657 5.74785e-20)
(1.28882 -0.129302 -5.60142e-20)
(1.25026 -0.150801 -1.38759e-20)
(1.20885 -0.169663 -1.72862e-20)
(1.16479 -0.18529 -2.11708e-21)
(1.11824 -0.196954 -2.86334e-20)
(1.06905 -0.203792 3.61873e-20)
(1.01516 -0.204587 2.00554e-20)
(0.948621 -0.200417 -1.03023e-19)
(0.445633 0.428315 1.62066e-20)
(0.463409 0.411768 -2.51219e-20)
(0.480166 0.39429 1.15042e-20)
(0.495872 0.375882 -1.65474e-20)
(0.510449 0.356567 3.33062e-21)
(0.523837 0.33641 -2.11669e-20)
(0.535988 0.31549 -5.34514e-21)
(0.546861 0.293891 -2.45164e-20)
(0.556425 0.271703 -1.94553e-21)
(0.564655 0.249018 9.77031e-21)
(0.571539 0.225928 1.29136e-20)
(0.577072 0.202528 -2.17951e-20)
(0.581258 0.17891 1.11911e-20)
(0.584111 0.155166 3.37579e-20)
(0.585653 0.131382 -5.73106e-21)
(0.585914 0.107645 -2.04267e-20)
(0.584932 0.0840326 2.78782e-20)
(0.582755 0.0606179 -1.7223e-20)
(0.579452 0.0374592 -2.65432e-21)
(0.575093 0.0145788 -1.89578e-21)
(0.580004 0.549773 1.20142e-20)
(0.605171 0.531552 -3.36876e-20)
(0.628753 0.511485 -1.57201e-20)
(0.650655 0.489666 1.4364e-20)
(0.670743 0.466197 -9.97925e-21)
(0.688895 0.441207 1.92484e-20)
(0.705003 0.414844 3.91383e-21)
(0.718976 0.38727 -3.23518e-20)
(0.730739 0.358659 1.0793e-20)
(0.740238 0.329188 9.52516e-21)
(0.74744 0.299042 3.3086e-20)
(0.75233 0.268407 -2.75929e-20)
(0.754916 0.237468 -1.54788e-20)
(0.755226 0.20641 3.38485e-20)
(0.753307 0.175412 -1.98058e-20)
(0.749226 0.144645 4.13585e-21)
(0.743069 0.114271 -1.34357e-20)
(0.734939 0.0844372 -4.9117e-22)
(0.724962 0.0552717 -6.73643e-21)
(0.713262 0.0268668 1.70373e-21)
(0.686657 0.637664 3.59783e-21)
(0.717482 0.619603 -4.63789e-22)
(0.74646 0.59901 3.88447e-20)
(0.773419 0.576033 -1.14322e-20)
(0.798171 0.550823 1.53909e-20)
(0.820543 0.523548 -9.30481e-21)
(0.840379 0.494397 -9.59501e-21)
(0.857541 0.463576 -4.74187e-20)
(0.871914 0.431302 5.29992e-20)
(0.883407 0.397805 -3.4334e-20)
(0.891957 0.363323 -1.61512e-20)
(0.897525 0.328099 -2.73266e-20)
(0.900102 0.292379 1.48293e-20)
(0.899708 0.256408 -1.65247e-20)
(0.896389 0.220427 1.2231e-20)
(0.890218 0.18467 -2.74617e-20)
(0.881294 0.149359 2.8591e-20)
(0.869742 0.114705 1.19615e-20)
(0.855709 0.0808948 -2.27514e-21)
(0.839353 0.0480938 2.56851e-21)
(0.770915 0.698019 -1.76359e-21)
(0.806004 0.681161 -1.53335e-21)
(0.839177 0.661308 1.0045e-20)
(0.8702 0.638619 -1.99992e-20)
(0.898841 0.613262 4.04958e-20)
(0.924883 0.585424 1.51032e-20)
(0.948127 0.555311 2.68424e-21)
(0.968396 0.523147 -3.59132e-21)
(0.985535 0.489171 4.45e-20)
(0.999417 0.453637 1.98869e-20)
(1.00994 0.416811 4.05788e-20)
(1.01704 0.378967 -9.72375e-21)
(1.02068 0.340384 -4.09207e-21)
(1.02086 0.301344 -1.37083e-20)
(1.01759 0.262129 9.30201e-21)
(1.01095 0.223014 1.41033e-20)
(1.00102 0.184267 -2.38784e-20)
(0.987928 0.146142 9.38066e-21)
(0.971818 0.108878 5.61111e-22)
(0.952861 0.0726935 1.50732e-21)
(0.837017 0.736157 1.81731e-20)
(0.875209 0.721075 5.70189e-21)
(0.911537 0.70271 -4.63395e-20)
(0.945728 0.681213 -1.73891e-20)