/*--------------------------------*- C++ -*----------------------------------*\
  =========                 |
  \\      /  F ield         | OpenFOAM: The Open Source CFD Toolbox
   \\    /   O peration     | Website:  https://openfoam.org
    \\  /    A nd           | Version:  6.0
     \\/     M anipulation  |
\*---------------------------------------------------------------------------*/
FoamFile
{
    version     2.0;
    format      ascii;
    class       surfaceScalarField;
    location    "12.75";
    object      phi;
}
// * * * * * * * * * * * * * * * * * * * * * * * * * * * * * * * * * * * * * //

dimensions      [0 3 -1 0 0 0 0];

internalField   nonuniform List<scalar> 
38030
(
2.37524e-05
-0.0791034
0.0790797
0.000135153
-0.07226
0.0721486
0.000333592
-0.0666674
0.066469
0.00061611
-0.0620971
0.0618146
0.000978264
-0.0583552
0.0579931
0.00141402
-0.0552794
0.0548437
0.00191646
-0.052737
0.0522345
0.00247835
-0.0506205
0.0500586
0.00309246
-0.0488435
0.0482294
0.00375176
-0.0473366
0.0466773
0.00444963
-0.046044
0.0453462
0.00517985
-0.0449215
0.0441913
0.00593671
-0.0439336
0.0431768
0.006715
-0.043052
0.0422737
0.00751001
-0.0422542
0.0414592
0.00831752
-0.0415223
0.0407148
0.00913377
-0.040842
0.0400257
0.00995546
-0.0402021
0.0393804
0.0107797
-0.0395935
0.0387693
0.011604
-0.0390092
0.0381849
0.0124263
-0.0384434
0.0376212
0.0132446
-0.0378916
0.0370732
0.0140576
-0.0373499
0.0365369
0.0148638
-0.0368152
0.0360089
0.0156622
-0.0362846
0.0354862
0.0164519
-0.0357556
0.034966
0.017232
-0.0352257
0.0344457
0.0180016
-0.0346923
0.0339227
0.0187598
-0.0341526
0.0333944
-0.0336031
0.0328575
0.0195054
3.27152e-05
-0.0791362
0.00015043
-0.0723777
0.000357102
-0.0668741
0.000650149
-0.0623902
0.00102437
-0.0587295
0.00147308
-0.0557281
0.00198879
-0.0532527
0.00256384
-0.0511956
0.00319062
-0.0494703
0.00386183
-0.0480078
0.00457062
-0.0467528
0.00531061
-0.0456615
0.00607596
-0.044699
0.00686136
-0.0438374
0.00766204
-0.0430549
0.00847375
-0.042334
0.00929274
-0.041661
0.0101157
-0.0410251
0.0109399
-0.0404176
0.0117627
-0.039832
0.0125822
-0.0392629
0.0133966
-0.038706
0.0142044
-0.0381577
0.0150046
-0.0376153
0.0157961
-0.0370761
0.016578
-0.0365376
0.0173498
-0.0359975
0.0181106
-0.0354531
0.0188597
-0.0349017
-0.0343395
0.0195961
3.72756e-05
-0.0791734
0.000162412
-0.0725029
0.000378415
-0.0670901
0.000682446
-0.0626942
0.00106877
-0.0591158
0.00153014
-0.0561895
0.00205863
-0.0537812
0.00264615
-0.0517831
0.0032848
-0.050109
0.003967
-0.04869
0.00468568
-0.0474715
0.00543431
-0.0464102
0.00620694
-0.0454716
0.00699817
-0.0446287
0.0078032
-0.0438599
0.00861775
-0.0431485
0.00943809
-0.0424813
0.0102609
-0.0418479
0.0110835
-0.0412402
0.0119035
-0.040652
0.0127188
-0.0400782
0.0135278
-0.039515
0.0143292
-0.0389592
0.015122
-0.0384081
0.0159052
-0.0378593
0.0166782
-0.0373106
0.0174404
-0.0367597
0.0181912
-0.036204
0.0189301
-0.0356406
-0.0350657
0.0196563
4.07248e-05
-0.0792142
0.000172985
-0.0726351
0.000398368
-0.0673155
0.000713326
-0.0630092
0.00111151
-0.059514
0.00158514
-0.0566631
0.00212583
-0.0543219
0.00272512
-0.0523824
0.00337479
-0.0507586
0.00406701
-0.0493822
0.00479453
-0.048199
0.00555067
-0.0471663
0.00632936
-0.0462503
0.00712515
-0.0454245
0.00793321
-0.044668
0.00874925
-0.0439646
0.00956955
-0.0433016
0.0103909
-0.0426693
0.0112105
-0.0420599
0.0120262
-0.0414676
0.012836
-0.040888
0.0136383
-0.0403173
0.014432
-0.0397528
0.015216
-0.0391921
0.0159898
-0.038633
0.0167526
-0.0380734
0.0175041
-0.0375112
0.018244
-0.0369438
0.0189717
-0.0363683
-0.0357807
0.0196866
4.37472e-05
-0.0792579
0.000182794
-0.0727742
0.000417344
-0.06755
0.000742969
-0.0633348
0.00115264
-0.0599236
0.00163803
-0.0571485
0.00219029
-0.0548741
0.00280059
-0.0529927
0.00346039
-0.0514184
0.00416166
-0.0500835
0.00489694
-0.0489343
0.00565943
-0.0479288
0.00644297
-0.0470338
0.00724205
-0.0462235
0.00805181
-0.0454777
0.008868
-0.0447808
0.0096869
-0.0441205
0.0105054
-0.0434877
0.0113207
-0.0428753
0.0121308
-0.0422777
0.0129337
-0.0416909
0.0137281
-0.0411117
0.0145128
-0.0405375
0.015287
-0.0399663
0.0160501
-0.0393961
0.0168017
-0.0388251
0.0175416
-0.038251
0.0182694
-0.0376717
0.018985
-0.0370838
-0.0364836
0.0196879
4.65506e-05
-0.0793045
0.000192099
-0.0729197
0.000435525
-0.0677935
0.000771464
-0.0636707
0.00119217
-0.0603443
0.00168875
-0.0576451
0.00225189
-0.0554373
0.00287239
-0.0536132
0.00354143
-0.0520875
0.00425074
-0.0507928
0.00499269
-0.0496763
0.00576036
-0.0486965
0.00654752
-0.047821
0.00734863
-0.0470246
0.0081588
-0.0462879
0.00897381
-0.0455958
0.00979
-0.0449367
0.0106043
-0.044302
0.011414
-0.043685
0.0122172
-0.0430808
0.013012
-0.0424857
0.0137972
-0.0418969
0.0145718
-0.0413121
0.015335
-0.0407296
0.0160865
-0.0401476
0.0168259
-0.0395645
0.0175532
-0.0389783
0.0182682
-0.0383867
0.0189709
-0.0377865
-0.0371738
0.0196611
4.92194e-05
-0.0793537
0.000201017
-0.0730715
0.000452999
-0.0680454
0.000798849
-0.0640166
0.00123009
-0.0607756
0.00173724
-0.0581522
0.00231053
-0.0560106
0.0029404
-0.0542431
0.00361775
-0.0527648
0.00433407
-0.0515091
0.00508159
-0.0504238
0.00585328
-0.0494682
0.00664284
-0.0486105
0.00744471
-0.0478265
0.00825401
-0.0470972
0.00906655
-0.0464083
0.00987873
-0.0457489
0.0106875
-0.0451108
0.0114904
-0.0444879
0.0122855
-0.0438759
0.013071
-0.0432713
0.0138459
-0.0426718
0.0146093
-0.0420755
0.0153606
-0.0414808
0.0160994
-0.0408865
0.0168258
-0.0402909
0.0175396
-0.0396922
0.0182411
-0.0390881
0.0189302
-0.0384756
-0.0378506
0.019607
5.17861e-05
-0.0794055
0.000209601
-0.0732293
0.000469805
-0.0683056
0.000825132
-0.0643719
0.00126636
-0.0612168
0.00178344
-0.0586693
0.00236613
-0.0565933
0.00300452
-0.0548814
0.0036892
-0.0534495
0.0044115
-0.0522314
0.00516349
-0.0511758
0.00593802
-0.0502427
0.00672877
-0.0494013
0.00753016
-0.0486279
0.00833734
-0.0479044
0.00914615
-0.0472171
0.00995306
-0.0465558
0.0107552
-0.0459129
0.01155
-0.0452828
0.0123358
-0.0446616
0.0131109
-0.0440464
0.0138745
-0.0434353
0.0146256
-0.0428266
0.015364
-0.0422192
0.0160894
-0.0416119
0.0168019
-0.0410033
0.0175016
-0.0403919
0.0181888
-0.0397753
0.0188638
-0.0391506
-0.0385135
0.0195267
5.42671e-05
-0.0794597
0.00021787
-0.0733929
0.000485954
-0.0685737
0.000850304
-0.0647363
0.00130096
-0.0616675
0.00182729
-0.0591956
0.0024186
-0.0571846
0.00306462
-0.0555275
0.00375569
-0.0541406
0.00448292
-0.0529586
0.00523825
-0.0519311
0.00601448
-0.0510189
0.00680522
-0.050192
0.00760491
-0.0494276
0.00840873
-0.0487082
0.00921258
-0.048021
0.010013
-0.0473563
0.0108072
-0.0467071
0.0115929
-0.0460685
0.0123683
-0.045437
0.013132
-0.0448102
0.0138832
-0.0441865
0.0146212
-0.0435647
0.0153459
-0.0429438
0.016057
-0.0423231
0.0167549
-0.0417013
0.0174399
-0.0410768
0.0181123
-0.0404477
0.0187726
-0.0398109
-0.039162
0.0194212
5.66656e-05
-0.0795164
0.000225834
-0.0735621
0.000501446
-0.0688493
0.000874349
-0.0651092
0.00133385
-0.062127
0.00186874
-0.0597305
0.00246788
-0.0577837
0.00312065
-0.0561802
0.00381712
-0.054837
0.00454823
-0.0536897
0.0053058
-0.0526887
0.00608257
-0.0517957
0.00687212
-0.0509816
0.00766891
-0.0502244
0.00846818
-0.0495075
0.00926589
-0.0488187
0.0100587
-0.0481491
0.0108439
-0.0474923
0.0116193
-0.0468439
0.0123833
-0.0462009
0.0131346
-0.0455615
0.0138725
-0.0449244
0.0145966
-0.0442887
0.0153067
-0.0436539
0.0160029
-0.0430193
0.0166856
-0.042384
0.0173552
-0.0417465
0.0180124
-0.0411049
0.0186576
-0.0404561
-0.0397959
0.0192915
5.89834e-05
-0.0795754
0.00023349
-0.0737366
0.000516271
-0.0691321
0.000897248
-0.0654901
0.001365
-0.0625947
0.00190775
-0.0602732
0.00251391
-0.0583899
0.00317252
-0.0568388
0.00387342
-0.0555379
0.00460736
-0.0544237
0.00536608
-0.0534474
0.00614225
-0.0525718
0.00692945
-0.0517688
0.00772218
-0.0510171
0.00851574
-0.050301
0.00930617
-0.0496091
0.0100902
-0.0489331
0.0108653
-0.0482674
0.0116294
-0.047608
0.012381
-0.0469525
0.013119
-0.0462995
0.0138428
-0.0456482
0.0145521
-0.044998
0.015247
-0.0443488
0.0159276
-0.0437
0.0165946
-0.0430509
0.0172484
-0.0424004
0.0178899
-0.0417464
0.0185198
-0.041086
-0.0404148
0.0191387
6.12197e-05
-0.0796366
0.000240832
-0.0739162
0.000530419
-0.0694217
0.000918983
-0.0658787
0.00139439
-0.0630701
0.00194428
-0.0608231
0.00255665
-0.0590023
0.0032202
-0.0575024
0.00392455
-0.0562423
0.00466029
-0.0551594
0.00541907
-0.0542062
0.00619351
-0.0533463
0.00697724
-0.0525525
0.00776478
-0.0518046
0.00855149
-0.0510878
0.00933355
-0.0503912
0.0101078
-0.0497074
0.0108718
-0.0490314
0.0116236
-0.0483598
0.0123619
-0.0476908
0.0130858
-0.0470234
0.0137947
-0.0463571
0.0144885
-0.0456919
0.0151675
-0.0450277
0.015832
-0.0443645
0.0164827
-0.0437016
0.0171203
-0.043038
0.0177458
-0.0423719
0.01836
-0.0417002
-0.0410186
0.0189638
6.3371e-05
-0.0797
0.000247856
-0.0741007
0.000543878
-0.0697177
0.000939538
-0.0662744
0.00142198
-0.0635526
0.0019783
-0.0613794
0.00259607
-0.05962
0.00326367
-0.05817
0.00397049
-0.0569491
0.004707
-0.055896
0.00546477
-0.0549639
0.0062364
-0.0541179
0.00701555
-0.0533317
0.00779679
-0.0525859
0.0085756
-0.0518666
0.00934822
-0.0511638
0.0101117
-0.0504709
0.0108636
-0.0497833
0.0116022
-0.0490985
0.0123264
-0.048415
0.0130353
-0.0477323
0.0137286
-0.0470504
0.0144063
-0.0463696
0.0150688
-0.0456902
0.0157166
-0.0450123
0.0163506
-0.0443356
0.0169716
-0.0436591
0.0175808
-0.0429811
0.0181792
-0.0422986
-0.0416072
0.0187677
6.54354e-05
-0.0797654
0.000254554
-0.0742898
0.000556641
-0.0700198
0.000958904
-0.0666766
0.00144778
-0.0640415
0.00200982
-0.0619415
0.00263216
-0.0602424
0.00330291
-0.0588407
0.00401125
-0.0576574
0.00474752
-0.0566322
0.00550322
-0.0557196
0.00627098
-0.0548857
0.00704448
-0.0541052
0.00781838
-0.0533598
0.00858823
-0.0526364
0.00935044
-0.051926
0.0101021
-0.0512225
0.0108411
-0.0505222
0.0115657
-0.0498231
0.0122749
-0.0491242
0.0129681
-0.0484255
0.0136451
-0.0477274
0.0143061
-0.0470306
0.0149515
-0.0463357
0.0155822
-0.045643
0.0161991
-0.0449524
0.0168032
-0.0442632
0.0173958
-0.0435737
0.0179781
-0.0428808
-0.0421803
0.0185512
6.74092e-05
-0.0798328
0.000260921
-0.0744834
0.000568702
-0.0703276
0.000977074
-0.067085
0.00147178
-0.0645362
0.00203882
-0.0625085
0.00266494
-0.0608685
0.00333795
-0.0595138
0.00404685
-0.0583663
0.00478188
-0.0573673
0.0055345
-0.0564723
0.00629736
-0.0556485
0.00706417
-0.054872
0.00782971
-0.0541253
0.00858963
-0.0533963
0.00934046
-0.0526768
0.0100795
-0.0519615
0.0108046
-0.0512474
0.0115144
-0.0505329
0.0122079
-0.0498177
0.0128847
-0.0491023
0.0135448
-0.0483875
0.0141885
-0.0476742
0.0148164
-0.0469636
0.0154295
-0.0462561
0.0160289
-0.0455518
0.0166158
-0.0448501
0.0171916
-0.0441495
0.0177577
-0.0434469
-0.0427379
0.0183153
6.92903e-05
-0.0799021
0.000266953
-0.074681
0.000580059
-0.0706407
0.000994056
-0.067499
0.00149399
-0.0650361
0.00206532
-0.0630799
0.00269442
-0.0614976
0.00336882
-0.0601882
0.00407735
-0.0590749
0.00481017
-0.0581001
0.00555871
-0.0572208
0.00631565
-0.0564055
0.0070748
-0.0556311
0.00783101
-0.0548815
0.00858007
-0.0541454
0.00931864
-0.0534154
0.0100441
-0.052687
0.0107547
-0.0519579
0.0114489
-0.0512271
0.0121261
-0.0504949
0.0127859
-0.0497621
0.0134285
-0.04903
0.0140543
-0.0483001
0.0146642
-0.0475735
0.0152592
-0.0468511
0.0158407
-0.0461333
0.0164101
-0.0454195
0.0169688
-0.0447082
0.0175185
-0.0439966
-0.0432799
0.0180605
7.10747e-05
-0.0799732
0.000272648
-0.0748826
0.000590718
-0.0709588
0.00100986
-0.0679181
0.00151443
-0.0655407
0.00208937
-0.0636548
0.00272065
-0.0621289
0.00339557
-0.0608631
0.00410281
-0.0597821
0.00483247
-0.0588297
0.00557598
-0.0579643
0.00632605
-0.0571556
0.00707659
-0.0563817
0.00782255
-0.0556275
0.00855987
-0.0548827
0.00928535
-0.0541409
0.00999655
-0.0533982
0.0106917
-0.0526531
0.0113697
-0.0519051
0.0120299
-0.0511551
0.0126721
-0.0504043
0.0132967
-0.0496546
0.0139042
-0.0489076
0.0144956
-0.0481649
0.0150721
-0.0474277
0.0156353
-0.0466965
0.0161868
-0.0459709
0.0167282
-0.0452497
0.0172612
-0.0445297
-0.0438063
0.0177876
7.27593e-05
-0.0800459
0.000278008
-0.0750878
0.000600693
-0.0712815
0.00102452
-0.068342
0.00153315
-0.0660493
0.00211099
-0.0642326
0.00274368
-0.0627616
0.00341828
-0.0615377
0.00412334
-0.0604872
0.00484892
-0.0595553
0.00558646
-0.0587019
0.00632875
-0.0578978
0.00706977
-0.0571227
0.00780463
-0.0563623
0.00852939
-0.0556075
0.009241
-0.0548525
0.00993719
-0.0540944
0.0106164
-0.0533322
0.0112775
-0.0525662
0.0119201
-0.0517977
0.0125442
-0.0510284
0.0131502
-0.0502606
0.0137389
-0.0494962
0.0143113
-0.0487373
0.0148689
-0.0479853
0.0154134
-0.0472409
0.0159466
-0.0465041
0.0164703
-0.0457734
0.0169865
-0.0450459
-0.0443167
0.0174969
7.43422e-05
-0.0801203
0.000283042
-0.0752965
0.000610009
-0.0716084
0.00103807
-0.06877
0.00155018
-0.0665614
0.00213026
-0.0648127
0.00276359
-0.0633949
0.00343703
-0.0622111
0.00413904
-0.0611892
0.00485965
-0.0602759
0.00559033
-0.0594326
0.00632396
-0.0586315
0.00705464
-0.0578534
0.00777758
-0.0570853
0.00848903
-0.0563189
0.00918607
-0.0555495
0.00986658
-0.0547749
0.0105291
-0.0539948
0.0111729
-0.05321
0.0117974
-0.0524222
0.0124029
-0.0516339
0.0129899
-0.0508475
0.0135592
-0.0500656
0.0141123
-0.0492903
0.0146505
-0.0485235
0.0151758
-0.0477662
0.0156902
-0.0470185
0.0161958
-0.046279
0.0166947
-0.0455448
-0.044811
0.017189
7.58192e-05
-0.0801961
0.00028776
-0.0755085
0.000618703
-0.0719394
0.00105056
-0.0692019
0.00156561
-0.0670765
0.00214725
-0.0653943
0.00278047
-0.0640281
0.00345194
-0.0628826
0.00415005
-0.0618873
0.00486482
-0.0609907
0.00558781
-0.0601555
0.00631196
-0.0593556
0.00703149
-0.0585729
0.00774178
-0.0577956
0.00843921
-0.0570163
0.00912104
-0.0562314
0.00978531
-0.0554392
0.0104307
-0.0546402
0.0110565
-0.0538358
0.0116626
-0.0530283
0.0122491
-0.0522204
0.0128166
-0.0514151
0.0133663
-0.0506152
0.0138994
-0.0498234
0.0144177
-0.0490419
0.0149233
-0.0482718
0.0154183
-0.0475135
0.0159052
-0.0467659
0.0163864
-0.046026
-0.0452886
0.0168641
7.71894e-05
-0.0802733
0.000292192
-0.0757235
0.000626834
-0.072274
0.00106209
-0.0696371
0.00157952
-0.0675939
0.00216206
-0.0659769
0.00279441
-0.0646605
0.00346311
-0.0635513
0.0041565
-0.0625807
0.00486462
-0.0616988
0.0055791
-0.06087
0.00629299
-0.0600695
0.00700066
-0.0592806
0.00769762
-0.0584925
0.00838042
-0.0576991
0.00904648
-0.0568974
0.00969399
-0.0560867
0.0103218
-0.055268
0.0109293
-0.0544433
0.0115165
-0.0536154
0.0120836
-0.0527875
0.0126314
-0.0519629
0.0131609
-0.0511448
0.0136737
-0.0503362
0.0141716
-0.0495397
0.0146568
-0.048757
0.0151318
-0.0479885
0.0155993
-0.0472334
0.016062
-0.0464887
-0.045749
0.0165224
7.84558e-05
-0.0803517
0.000296382
-0.0759414
0.000634492
-0.0726121
0.00107276
-0.0700754
0.00159202
-0.0681132
0.00217479
-0.0665597
0.00280553
-0.0652912
0.00347068
-0.0642164
0.00415855
-0.0632686
0.00485923
-0.0623995
0.00556444
-0.0615752
0.00626736
-0.0607724
0.0069625
-0.0599757
0.00764552
-0.0591756
0.00831314
-0.0583668
0.00896295
-0.0575472
0.0095933
-0.0567171
0.0102032
-0.0558779
0.0107921
-0.0550323
0.0113601
-0.0541834
0.0119076
-0.053335
0.0124353
-0.0524906
0.0129445
-0.0516539
0.0134365
-0.0508283
0.0139134
-0.0500167
0.0143776
-0.0492211
0.0148317
-0.0484426
0.0152788
-0.0476806
0.0157221
-0.046932
-0.0461912
0.0161643
7.96352e-05
-0.0804314
0.000300414
-0.0761622
0.000641805
-0.0729535
0.00108269
-0.0705163
0.00160323
-0.0686337
0.00218556
-0.067142
0.00281395
-0.0659196
0.00347477
-0.0648772
0.00415635
-0.0639501
0.00484885
-0.063092
0.00554408
-0.0622705
0.00623536
-0.0614637
0.00691735
-0.0606577
0.0075859
-0.0598441
0.00823788
-0.0590187
0.00887105
-0.0581804
0.00948391
-0.0573299
0.0100756
-0.0564696
0.0106457
-0.0556024
0.0111944
-0.0547321
0.0117222
-0.0538627
0.0122297
-0.0529981
0.0127182
-0.0521424
0.0131892
-0.0512993
0.0136447
-0.0504721
0.0140871
-0.0496635
0.0145193
-0.0488749
0.0149449
-0.0481061
0.0153674
-0.0473545
-0.0466139
0.0157901
8.07704e-05
-0.0805121
0.00030443
-0.0763858
0.000648963
-0.073298
0.00109208
-0.0709594
0.00161331
-0.0691549
0.00219449
-0.0677232
0.00281977
-0.0665449
0.0034755
-0.065533
0.00415005
-0.0646247
0.00483365
-0.0637756
0.00551824
-0.062955
0.00619728
-0.0621428
0.0068656
-0.061326
0.0075192
-0.0604977
0.00815516
-0.0596547
0.00877138
-0.0587966
0.00936653
-0.0579251
0.00993987
-0.0570429
0.0104912
-0.0561537
0.0110206
-0.0552615
0.0115286
-0.0543707
0.012016
-0.0534855
0.0124839
-0.0526103
0.0129337
-0.0517491
0.0133673
-0.0509058
0.0137873
-0.0500834
0.0141966
-0.0492842
0.0145992
-0.0485087
0.0149992
-0.0477545
-0.0470154
0.0154007
8.19774e-05
-0.0805941
0.000308684
-0.0766125
0.000656237
-0.0736456
0.00110114
-0.0714043
0.00162241
-0.0696762
0.0022017
-0.0683025
0.00282311
-0.0671663
0.00347299
-0.0661829
0.00413979
-0.0652915
0.00481383
-0.0644496
0.00548716
-0.0636284
0.0061534
-0.062809
0.00680756
-0.0619802
0.00744583
-0.061136
0.00806545
-0.0602743
0.00866452
-0.0593957
0.00924185
-0.0585024
0.00979683
-0.0575979
0.0103293
-0.0566862
0.0108396
-0.0557718
0.0113281
-0.0548592
0.0117957
-0.0539531
0.0122432
-0.0530578
0.012672
-0.0521779
0.0130837
-0.0513176
0.0134807
-0.0504804
0.0138661
-0.0496696
0.014244
-0.0488865
0.0146193
-0.0481298
-0.0473932
0.0149971
8.35127e-05
-0.0806776
0.000313594
-0.0768426
0.000663995
-0.073996
0.00111012
-0.0718504
0.00163068
-0.0701968
0.00220728
-0.0688791
0.00282403
-0.067783
0.00346734
-0.0668262
0.0041257
-0.0659498
0.00478953
-0.0651134
0.00545103
-0.0642899
0.00610398
-0.063462
0.00674356
-0.0626198
0.00736618
-0.0617586
0.00796923
-0.0608774
0.00855102
-0.0599775
0.00911051
-0.0590619
0.00964724
-0.0581346
0.0101612
-0.0572002
0.0106527
-0.0562633
0.0111222
-0.0553287
0.0115704
-0.0544013
0.0119982
-0.0534856
0.0124065
-0.0525863
0.0127969
-0.0517079
0.013171
-0.0508546
0.0135317
-0.0500303
0.0138832
-0.049238
0.0142313
-0.0484778
-0.0477442
0.0145822
8.58754e-05
-0.0807635
0.00031979
-0.0770765
0.000672683
-0.0743489
0.00111926
-0.072297
0.00163823
-0.0707157
0.00221129
-0.0694521
0.00282261
-0.0683944
0.00345861
-0.0674622
0.00410786
-0.0665991
0.00476089
-0.0657665
0.00541003
-0.064939
0.00604924
-0.0641012
0.00667389
-0.0632444
0.00728057
-0.0623653
0.0078669
-0.0614637
0.00843135
-0.0605419
0.00897308
-0.0596036
0.00949177
-0.0586533
0.00998753
-0.0576959
0.0104607
-0.0567365
0.0109119
-0.0557799
0.0113417
-0.0548311
0.0117509
-0.0538948
0.0121401
-0.0529755
0.0125102
-0.052078
0.0128625
-0.0512069
0.0131989
-0.0503667
0.013523
-0.0495621
0.0138409
-0.0487958
-0.0480646
0.0141613
8.99941e-05
-0.0808535
0.000328245
-0.0773148
0.000682868
-0.0747035
0.00112878
-0.0727429
0.00164512
-0.0712321
0.00221374
-0.0700207
0.00281883
-0.0689994
0.00344683
-0.0680902
0.00408635
-0.0672386
0.00472802
-0.0664081
0.00536432
-0.0655753
0.00598938
-0.0647262
0.00659877
-0.0638538
0.0071893
-0.0629558
0.00775879
-0.0620332
0.00830591
-0.061089
0.00883001
-0.0601277
0.00933095
-0.0591543
0.00980896
-0.0581739
0.0102645
-0.057192
0.0106983
-0.0562137
0.0111109
-0.0552437
0.011503
-0.0542869
0.011875
-0.0533476
0.0122273
-0.0524303
0.0125602
-0.0515398
0.0128744
-0.0506809
0.0131715
-0.0498593
0.0134569
-0.0490811
-0.0483503
0.0137426
9.83172e-05
-0.0809518
0.000340956
-0.0775574
0.000695363
-0.0750579
0.00113886
-0.0731864
0.0016513
-0.0717445
0.00221453
-0.070584
0.00281264
-0.0695976
0.00343199
-0.0687095
0.0040612
-0.0678678
0.00469099
-0.0670379
0.00531399
-0.0661983
0.00592453
-0.0653368
0.00651839
-0.0644477
0.00709258
-0.06353
0.00764514
-0.0625858
0.00817497
-0.0616189
0.0086816
-0.0606344
0.0091651
-0.0596378
0.00962586
-0.0586347
0.0100645
-0.0576307
0.0104819
-0.056631
0.0108788
-0.0556406
0.0112558
-0.0546639
0.0116134
-0.0537052
0.0119516
-0.0527685
0.0122698
-0.051858
0.012567
-0.050978
0.0128411
-0.0501334
0.0130927
-0.0493328
-0.0485971
0.0133395
0.000118626
-0.0810704
0.000360897
-0.0777997
0.000710451
-0.0754075
0.00114909
-0.0736251
0.00165634
-0.0722518
0.00221338
-0.071141
0.00280387
-0.070188
0.003414
-0.0693197
0.00403238
-0.0684862
0.00464983
-0.0676554
0.00525913
-0.0668076
0.00585481
-0.0659324
0.00643287
-0.0650257
0.00699054
-0.0640877
0.0075261
-0.0631213
0.00803866
-0.0621314
0.00852796
-0.0611237
0.00899428
-0.0601041
0.00943822
-0.0590786
0.00986065
-0.0580531
0.0102626
-0.057033
0.0106451
-0.0560231
0.0110092
-0.055028
0.0113559
-0.0540518
0.0116856
-0.0530982
0.0119983
-0.0521708
0.0122925
-0.0512722
0.0125615
-0.0504023
0.0127909
-0.0495623
-0.048783
0.0129769
0.0834676
8.79376e-05
-0.0835555
0.0833899
7.76652e-05
0.0833153
7.45961e-05
0.0832412
7.40995e-05
0.0831665
7.46949e-05
0.0830907
7.58068e-05
0.0830136
7.71181e-05
0.0829351
7.8464e-05
0.0828554
7.97649e-05
0.0827744
8.09899e-05
0.0826923
8.21251e-05
0.0826091
8.31652e-05
0.082525
8.41106e-05
0.08244
8.49605e-05
0.0823543
8.5716e-05
0.0822679
8.63766e-05
0.082181
8.69428e-05
0.0820936
8.74143e-05
0.0820058
8.77883e-05
0.0819177
8.8064e-05
0.0818295
8.82372e-05
0.0817412
8.83018e-05
0.0816529
8.82446e-05
0.0815649
8.80477e-05
0.0814772
8.76726e-05
0.0813902
8.70456e-05
0.0813042
8.60069e-05
0.08122
8.41839e-05
0.0811396
8.04066e-05
6.91312e-05
0.0838429
0.000249826
-0.0840048
0.0836748
0.000245719
0.0835035
0.0002459
0.083329
0.000248603
0.0831511
0.000252631
0.0829695
0.000257399
0.0827841
0.000262521
0.0825948
0.000267734
0.0824017
0.000272875
0.0822049
0.000277845
0.0820044
0.000282591
0.0818005
0.000287077
0.0815933
0.00029128
0.0813831
0.000295189
0.08117
0.000298795
0.0809543
0.000302088
0.0807362
0.000305065
0.0805159
0.000307721
0.0802936
0.000310046
0.0800696
0.000312035
0.0798442
0.000313675
0.0796176
0.000314949
0.07939
0.000315828
0.0791618
0.00031627
0.0789332
0.000316201
0.0787048
0.000315489
0.0784769
0.000313893
0.0782501
0.000310931
0.078025
0.000305505
0.000294473
0.0840756
0.000455366
-0.0842812
0.0838582
0.000463195
0.0836316
0.000472481
0.0833971
0.000483054
0.0831553
0.000494416
0.0829065
0.000506228
0.0826508
0.000518226
0.0823884
0.00053018
0.0821193
0.00054192
0.0818438
0.000553323
0.0815621
0.000564302
0.0812744
0.000574795
0.0809809
0.00058476
0.080682
0.000594162
0.0803778
0.000602979
0.0800687
0.000611191
0.079755
0.000618781
0.0794369
0.000625736
0.0791149
0.000632038
0.0787893
0.000637673
0.0784604
0.00064262
0.0781285
0.00064685
0.077794
0.000650324
0.0774572
0.000652986
0.0771187
0.000654747
0.0767787
0.000655471
0.0764377
0.000654935
0.0760958
0.00065277
0.0757531
0.000648291
0.000640055
0.0840733
0.00068126
-0.0842992
0.0838333
0.000703201
0.0835806
0.000725143
0.0833164
0.000747298
0.0830413
0.000769549
0.0827557
0.000791752
0.0824602
0.000813757
0.082155
0.00083541
0.0818403
0.000856574
0.0815165
0.000877133
0.0811838
0.000896996
0.0808425
0.000916087
0.0804929
0.000934348
0.0801354
0.000951732
0.0797701
0.0009682
0.0793976
0.00098372
0.0790181
0.000998264
0.0786321
0.0010118
0.0782398
0.00102432
0.0778417
0.00103578
0.0774382
0.00104615
0.0770296
0.00105541
0.0766164
0.00106349
0.0761991
0.00107035
0.0757779
0.0010759
0.0753534
0.00108001
0.0749258
0.00108252
0.0744954
0.00108317
0.0740621
0.00108158
0.00107707
0.0837987
0.000908696
-0.0840261
0.0835555
0.000946368
0.0832973
0.000983326
0.0830248
0.00101978
0.0827386
0.00105574
0.0824392
0.00109115
0.0821271
0.00112593
0.0818025
0.00115997
0.0814659
0.00119317
0.0811176
0.00122544
0.0807579
0.00125669
0.0803872
0.00128683
0.0800057
0.00131581
0.0796139
0.00134357
0.079212
0.00137006
0.0788005
0.00139522
0.0783797
0.00141903
0.0779501
0.00144145
0.077512
0.00146243
0.0770658
0.00148194
0.076612
0.00149995
0.076151
0.00151641
0.0756832
0.00153127
0.0752091
0.00154446
0.0747291
0.00155592
0.0742436
0.00156553
0.0737529
0.00157318
0.0732574
0.00157871
0.0727571
0.00158189
0.00158241
0.083248
0.00112419
-0.0834635
0.0830154
0.00117898
0.082766
0.00123268
0.0825004
0.00128542
0.0822189
0.00133721
0.081922
0.00138802
0.0816102
0.0014378
0.0812836
0.00148648
0.0809429
0.00153396
0.0805881
0.00158016
0.0802198
0.001625
0.0798383
0.00166839
0.0794438
0.00171028
0.0790368
0.00175059
0.0786176
0.00178926
0.0781866
0.00182624
0.0777441
0.00186147
0.0772907
0.00189492
0.0768266
0.00192652
0.0763523
0.00195624
0.0758682
0.00198402
0.0753748
0.00200982
0.0748725
0.00203358
0.0743617
0.00205525
0.0738429
0.00207473
0.0733165
0.00209197
0.0727828
0.00210686
0.0722422
0.0021193
0.0716949
0.00212917
0.0021363
0.08244
0.00131886
-0.0826347
0.0822271
0.00139188
0.0819962
0.00146358
0.0817476
0.00153402
0.0814816
0.00160319
0.0811986
0.00167105
0.0808988
0.00173755
0.0805827
0.00180262
0.0802505
0.00186616
0.0799025
0.00192811
0.0795392
0.00198837
0.0791607
0.00204687
0.0787674
0.00210353
0.0783598
0.00215826
0.077938
0.00221101
0.0775025
0.00226171
0.0770537
0.00231029
0.0765919
0.0023567
0.0761176
0.00240088
0.075631
0.00244276
0.0751328
0.0024823
0.0746232
0.00251943
0.0741026
0.0025541
0.0735717
0.00258624
0.0730306
0.00261578
0.0724799
0.00264266
0.07192
0.0026668
0.0713511
0.00268813
0.0707738
0.00270656
0.002722
0.0814067
0.00148748
-0.0815754
0.0812191
0.00157952
0.0810126
0.0016701
0.0807874
0.00175922
0.0805437
0.00184684
0.0802819
0.00193292
0.080002
0.00201737
0.0797045
0.00210012
0.0793896
0.00218109
0.0790575
0.00226018
0.0787086
0.0023373
0.0783431
0.00241237
0.0779614
0.0024853
0.0775636
0.002556
0.0771502
0.00262439
0.0767215
0.0026904
0.0762779
0.00275396
0.0758196
0.00281499
0.0753471
0.00287342
0.0748606
0.00292918
0.0743607
0.00298222
0.0738477
0.00303245
0.073322
0.00307982
0.0727839
0.00312426
0.072234
0.0031657
0.0716726
0.00320407
0.0711001
0.00323931
0.0705169
0.00327136
0.0699233
0.00330016
0.00332562
0.0801864
0.00162761
-0.0803265
0.0800267
0.00173914
0.0798477
0.00184914
0.0796494
0.00195755
0.0794319
0.00206432
0.0791954
0.00216936
0.0789402
0.00227259
0.0786664
0.00237392
0.0783743
0.00247325
0.078064
0.00257048
0.0777357
0.00266552
0.0773899
0.00275825
0.0770266
0.00284859
0.0766461
0.00293644
0.0762488
0.0030217
0.0758349
0.0031043
0.0754048
0.00318413
0.0749586
0.00326113
0.0744968
0.00333521
0.0740197
0.00340628
0.0735277
0.00347428
0.073021
0.00353912
0.0725001
0.00360073
0.0719653
0.00365904
0.071417
0.00371398
0.0708556
0.00376547
0.0702815
0.00381346
0.0696949
0.00385789
0.0690964
0.00389871
0.00393581
0.0788185
0.00173883
-0.0789297
0.0786876
0.00187007
0.078537
0.00199974
0.0783668
0.00212775
0.0781771
0.00225402
0.077968
0.00237845
0.0777397
0.00250094
0.0774922
0.00262139
0.0772258
0.00273968
0.0769406
0.00285569
0.0766367
0.00296933
0.0763145
0.00308048
0.0759741
0.00318903
0.0756156
0.00329487
0.0752394
0.0033979
0.0748457
0.00349801
0.0744347
0.00359512
0.0740067
0.00368912
0.073562
0.00377993
0.0731009
0.00386744
0.0726236
0.00395157
0.0721304
0.00403224
0.0716218
0.00410936
0.071098
0.00418286
0.0705593
0.00425264
0.0700062
0.00431864
0.0694388
0.00438079
0.0688577
0.00443904
0.0682631
0.00449331
0.00454353
0.0773414
0.0018222
-0.0774248
0.0772383
0.00197312
0.0771156
0.00212247
0.0769732
0.00227013
0.0768112
0.002416
0.0766297
0.00255997
0.0764287
0.00270192
0.0762084
0.00284173
0.0759688
0.00297927
0.0757101
0.00311442
0.0754324
0.00324705
0.0751358
0.00337705
0.0748205
0.00350429
0.0744867
0.00362866
0.0741346
0.00375004
0.0737643
0.00386832
0.073376
0.00398338
0.07297
0.00409512
0.0725465
0.00420343
0.0721057
0.00430822
0.0716479
0.00440938
0.0711734
0.00450681
0.0706823
0.00460042
0.070175
0.00469013
0.0696518
0.00477583
0.069113
0.00485746
0.0685589
0.00493494
0.0679897
0.0050082
0.0674059
0.00507717
0.00514176
0.0757898
0.00187972
-0.0758474
0.0757128
0.00205012
0.0756163
0.00221897
0.0755003
0.00238614
0.0753648
0.00255151
0.0752099
0.00271494
0.0750355
0.00287631
0.0748417
0.00303548
0.0746287
0.00319232
0.0743964
0.00334669
0.074145
0.00349845
0.0738745
0.00364748
0.0735852
0.00379364
0.0732771
0.00393681
0.0729502
0.00407685
0.0726049
0.00421364
0.0722412
0.00434706
0.0718594
0.004477
0.0714595
0.00460334
0.0710417
0.00472595
0.0706064
0.00484474
0.0701536
0.0049596
0.0696836
0.00507041
0.0691966
0.00517709
0.0686929
0.00527953
0.0681728
0.00537764
0.0676363
0.00547134
0.067084
0.00556056
0.0665159
0.00564523
0.00572523
0.0741945
0.00191399
-0.0742287
0.074141
0.00210353
0.0740685
0.00229156
0.0739767
0.00247794
0.0738656
0.00266253
0.0737354
0.00284519
0.0735859
0.00302577
0.0734173
0.00320412
0.0732295
0.00338011
0.0730226
0.00355358
0.0727967
0.0037244
0.0725517
0.00389241
0.0722879
0.00405749
0.0720052
0.00421948
0.0717038
0.00437826
0.0713838
0.00453369
0.0710452
0.00468565
0.0706882
0.00483399
0.0703129
0.0049786
0.0699195
0.00511936
0.0695081
0.00525614
0.0690789
0.00538882
0.068632
0.00551729
0.0681677
0.00564144
0.067686
0.00576117
0.0671873
0.00587637
0.0666717
0.00598696
0.0661394
0.00609284
0.0655907
0.00619395
0.00629017
0.0725812
0.0019279
-0.0725951
0.0725486
0.00213615
0.0724972
0.00234295
0.072427
0.00254813
0.072338
0.00275155
0.0722301
0.00295306
0.0721034
0.0031525
0.0719578
0.00334971
0.0717934
0.00354455
0.0716101
0.00373685
0.071408
0.00392647
0.0711872
0.00411325
0.0709476
0.00429706
0.0706894
0.00447773
0.0704125
0.00465514
0.070117
0.00482913
0.0698031
0.00499957
0.0694708
0.00516632
0.0691201
0.00532926
0.0687513
0.00548824
0.0683643
0.00564313
0.0679593
0.00579382
0.0675364
0.00594018
0.0670957
0.00608208
0.0666375
0.00621942
0.0661618
0.00635208
0.0656688
0.00647996
0.0651586
0.00660297
0.0646315
0.00672104
0.00683405
0.0709715
0.00192446
-0.070968
0.0709567
0.00215092
0.0709237
0.00237599
0.0708723
0.0025995
0.0708026
0.00282128
0.0707144
0.00304118
0.0706079
0.00325904
0.070483
0.00347468
0.0703396
0.00368795
0.0701777
0.00389868
0.0699975
0.00410673
0.0697988
0.00431194
0.0695817
0.00451414
0.0693462
0.0047132
0.0690924
0.00490895
0.0688203
0.00510126
0.0685299
0.00528998
0.0682212
0.00547497
0.0678944
0.00565608
0.0675494
0.00583318
0.0671864
0.00600614
0.0668054
0.00617482
0.0664065
0.00633908
0.0659898
0.00649881
0.0655554
0.00665386
0.0651033
0.00680414
0.0646337
0.00694952
0.0641468
0.0070899
0.0636426
0.00722522
0.00735536
0.0693823
0.00190658
-0.0693644
0.0693825
0.00215074
0.0693649
0.00239356
0.0693295
0.00263487
0.0692763
0.00287449
0.0692052
0.00311227
0.0691163
0.00334802
0.0690093
0.00358159
0.0688845
0.0038128
0.0687417