/*--------------------------------*- C++ -*----------------------------------*\
| =========                 |                                                 |
| \\      /  F ield         | OpenFOAM: The Open Source CFD Toolbox           |
|  \\    /   O peration     | Version:  v1912                                 |
|   \\  /    A nd           | Website:  www.openfoam.com                      |
|    \\/     M anipulation  |                                                 |
\*---------------------------------------------------------------------------*/
FoamFile
{
    version     2.0;
    format      ascii;
    class       volVectorField;
    location    "40";
    object      U;
}
// * * * * * * * * * * * * * * * * * * * * * * * * * * * * * * * * * * * * * //

dimensions      [0 1 -1 0 0 0 0];


internalField   nonuniform List<vector> 
9600
(
(0.456568 -9.36244 -1.54094e-19)
(0.159709 -8.63379 0)
(0.241811 -8.16102 -9.04744e-20)
(0.320432 -7.8417 0)
(0.387612 -7.60626 0)
(0.45588 -7.41124 -3.18272e-20)
(0.521261 -7.23263 -5.48738e-22)
(0.580622 -7.05822 2.66014e-20)
(0.63319 -6.88268 0)
(0.678998 -6.70457 -4.51015e-20)
(0.718435 -6.52452 0)
(0.752125 -6.34406 -1.82915e-21)
(0.780804 -6.16501 -2.6064e-21)
(0.805229 -5.98904 -3.15101e-20)
(0.82612 -5.81756 2.65721e-20)
(0.844132 -5.65152 -2.61062e-20)
(0.859815 -5.4914 2.32423e-20)
(0.873713 -5.33712 0)
(0.886608 -5.18792 -1.84864e-20)
(0.898228 -5.04227 2.02655e-20)
(0.824531 -9.35202 -3.08271e-19)
(0.502217 -8.66181 1.17597e-20)
(0.56752 -8.20522 1.86368e-19)
(0.634633 -7.89539 -1.58833e-19)
(0.692795 -7.66454 1.56641e-19)
(0.753013 -7.47001 0)
(0.810512 -7.2891 6.07033e-20)
(0.861819 -7.1107 -6.05623e-20)
(0.90609 -6.93028 -1.05041e-19)
(0.943412 -6.74699 1.32846e-19)
(0.974287 -6.56184 -8.6251e-20)
(0.999462 -6.37664 -3.52088e-20)
(1.01978 -6.19333 7.10712e-20)
(1.0361 -6.01368 0)
(1.04919 -5.83909 0)
(1.05976 -5.67052 9.96049e-20)
(1.06835 -5.50842 -1.68875e-19)
(1.07552 -5.35264 0)
(1.08215 -5.2023 0)
(1.0877 -5.05579 -7.80504e-20)
(1.19283 -9.32806 6.36926e-19)
(0.84699 -8.67696 0)
(0.896777 -8.23675 -3.7708e-19)
(0.953117 -7.9365 -3.41765e-19)
(1.00256 -7.71022 0)
(1.05471 -7.51615 5.46114e-19)
(1.1041 -7.33296 -5.15564e-19)
(1.147 -7.15067 1.01054e-19)
(1.18257 -6.96556 -2.24969e-19)
(1.21099 -6.77736 -3.74103e-19)
(1.23291 -6.58746 5.10665e-19)
(1.24921 -6.39791 -3.15727e-19)
(1.26087 -6.21077 -1.41492e-19)
(1.26882 -6.02785 0)
(1.2739 -5.85058 5.5232e-21)
(1.27685 -5.6799 1.04993e-19)
(1.27822 -5.51622 4.53825e-20)
(1.27859 -5.35933 0)
(1.2789 -5.20825 8.22659e-20)
(1.27827 -5.06128 8.43148e-20)
(1.56037 -9.29019 -8.61662e-19)
(1.19343 -8.67897 -4.03747e-19)
(1.22902 -8.25538 3.91621e-19)
(1.27532 -7.96472 6.72948e-19)
(1.31634 -7.74294 -3.26613e-19)
(1.36038 -7.54927 5.79204e-21)
(1.40141 -7.36383 2.53591e-19)
(1.43555 -7.1778 2.29682e-19)
(1.46201 -6.98825 4.2064e-19)
(1.48113 -6.79546 0)
(1.49372 -6.60121 1.62026e-19)
(1.50083 -6.40772 -1.71961e-19)
(1.50354 -6.2172 1.03472e-20)
(1.50288 -6.03147 2.71043e-19)
(1.49978 -5.85197 2.32347e-19)
(1.49497 -5.6796 -3.27989e-19)
(1.48903 -5.51475 1.08015e-19)
(1.48255 -5.35716 -1.75865e-19)
(1.47651 -5.20572 1.75034e-19)
(1.46965 -5.05873 -8.43584e-20)
(1.92683 -9.23835 4.34554e-19)
(1.54127 -8.66768 0)
(1.56386 -8.26086 3.84572e-19)
(1.60075 -7.97973 0)
(1.63357 -7.76234 0)
(1.66941 -7.56904 -3.00169e-19)
(1.70182 -7.38142 -5.37024e-19)
(1.72685 -7.19181 -4.55295e-19)
(1.74381 -6.9981 1.84456e-20)
(1.75324 -6.80109 -1.96731e-19)
(1.75615 -6.6029 0)
(1.75375 -6.40595 -1.62435e-19)
(1.74726 -6.2125 -2.92603e-19)
(1.73781 -6.02444 2.57302e-19)
(1.72635 -5.84316 -7.31222e-19)
(1.71368 -5.66954 1.18337e-19)
(1.70036 -5.50395 9.37852e-20)
(1.687 -5.34606 -1.93393e-19)
(1.67463 -5.19465 -8.44964e-20)
(1.66149 -5.04807 2.51961e-19)
(2.29167 -9.17245 4.19301e-19)
(1.88998 -8.64287 4.15797e-19)
(1.90075 -8.2529 0)
(1.92882 -7.98119 0)
(1.95364 -7.7681 -6.23998e-19)
(1.98119 -7.57514 3.41065e-19)
(2.0047 -7.38543 8.20705e-19)
(2.02024 -7.19246 0)
(2.02732 -6.9949 2.16861e-19)
(2.0267 -6.79408 1.96732e-19)
(2.0196 -6.5924 -3.47545e-19)
(2.00741 -6.39247 5.03994e-19)
(1.9915 -6.19662 1.47886e-19)
(1.97307 -6.00671 0)
(1.95315 -5.82412 1.23099e-19)
(1.93253 -5.6497 5.52556e-19)
(1.91178 -5.48378 -3.29253e-19)
(1.89154 -5.32599 3.69946e-19)
(1.87287 -5.17502 -7.0347e-19)
(1.85345 -5.0293 8.13246e-19)
(2.65437 -9.09247 4.26437e-19)
(2.23908 -8.60434 -2.258e-18)
(2.23918 -8.23123 0)
(2.25897 -7.96881 0)
(2.27593 -7.75989 0)
(2.29507 -7.56727 -6.05296e-19)
(2.30937 -7.3756 0)
(2.31507 -7.17953 -9.70107e-19)
(2.31189 -6.97849 8.94805e-19)
(2.30087 -6.77429 -8.31035e-19)
(2.28346 -6.56962 0)
(2.26125 -6.36723 0)
(2.23572 -6.16948 0)
(2.20817 -5.97824 -2.81138e-19)
(2.17968 -5.79482 0)
(2.15106 -5.62006 0)
(2.12286 -5.45424 -4.12599e-19)
(2.09575 -5.29696 4.05392e-19)
(2.07084 -5.1468 0)
(2.04517 -5.00239 0)
(3.01438 -8.99841 -1.38731e-18)
(2.58801 -8.55191 8.98939e-19)
(2.57855 -8.1956 0)
(2.59058 -7.9423 0)
(2.5998 -7.73747 0)
(2.61036 -7.5452 5.75719e-19)
(2.61517 -7.35173 -5.7746e-19)
(2.61066 -7.15285 -8.87849e-21)
(2.59687 -6.94872 -8.95914e-19)
(2.57511 -6.74162 8.38848e-19)
(2.54712 -6.53449 -3.78412e-19)
(2.51467 -6.33018 6.57978e-19)
(2.47936 -6.13108 -4.63864e-20)
(2.44259 -5.93901 -5.95217e-19)
(2.40545 -5.75527 -5.01635e-19)
(2.36879 -5.58061 4.92842e-19)
(2.33314 -5.41533 0)
(2.29921 -5.25895 0)
(2.26813 -5.11 3.56595e-19)
(2.23628 -4.96737 -3.92439e-19)
(3.37114 -8.8903 9.27229e-19)
(2.9362 -8.48546 8.83127e-19)
(2.91827 -8.1458 -1.67387e-18)
(2.92301 -7.90145 7.90664e-19)
(2.92457 -7.70057 0)
(2.92637 -7.50871 6.16054e-19)
(2.92139 -7.31363 -5.40788e-19)
(2.90632 -7.11227 1.52829e-18)
(2.88157 -6.9055 -2.36822e-20)
(2.8488 -6.696 0)
(2.80998 -6.48696 7.63499e-19)
(2.76709 -6.28129 0)
(2.72187 -6.0814 0)
(2.67578 -5.88905 -2.72281e-19)
(2.62996 -5.70547 5.49169e-19)
(2.58523 -5.53139 0)
(2.54216 -5.36706 4.30718e-19)
(2.50146 -5.212 1.79296e-19)
(2.46431 -5.06464 -3.89034e-19)
(2.42636 -4.92425 3.77751e-19)
(3.72409 -8.76821 -9.55001e-19)
(3.28306 -8.40486 8.97519e-19)
(3.25773 -8.08166 -2.5561e-18)
(3.25559 -7.84603 8.03768e-19)
(3.24954 -7.64902 0)
(3.24241 -7.45762 -1.24341e-18)
(3.22732 -7.26117 5.97316e-19)
(3.20136 -7.05771 0)
(3.16534 -6.84876 -4.74188e-19)
(3.12126 -6.63741 -8.2242e-19)
(3.0714 -6.42702 -7.16603e-19)
(3.01792 -6.22058 5.34226e-20)
(2.96269 -6.02046 6.70225e-19)
(2.90722 -5.82837 2.72057e-19)
(2.85268 -5.64546 -3.79203e-20)
(2.79991 -5.47242 -5.12306e-19)
(2.74943 -5.30948 -2.29131e-19)
(2.70204 -5.15612 -2.06568e-19)
(2.65891 -5.01074 5.51024e-19)
(2.61499 -4.87307 -8.21122e-19)
(4.07268 -8.6322 9.55003e-19)
(3.628 -8.31007 -4.6639e-20)
(3.59627 -8.00303 8.21631e-19)
(3.58765 -7.77588 0)
(3.57402 -7.58265 -6.80193e-19)
(3.55775 -7.39181 1.30699e-18)
(3.53225 -7.19426 -1.11714e-18)
(3.49507 -6.98909 1.09934e-18)
(3.44748 -6.77847 -4.45412e-19)
(3.39187 -6.56583 9.04205e-19)
(3.33078 -6.3547 3.91555e-19)
(3.26658 -6.14808 0)
(3.20126 -5.94831 0)
(3.13637 -5.75703 -2.82095e-19)
(3.07312 -5.5753 3.83374e-20)
(3.01231 -5.40375 1.00885e-18)
(2.95447 -5.24262 -2.49594e-19)
(2.90045 -5.09135 8.24317e-19)
(2.85146 -4.94834 1.44253e-19)
(2.80171 -4.81386 -8.3864e-19)
(4.41635 -8.4824 -2.9385e-18)
(3.97042 -8.20102 -9.86332e-19)
(3.93326 -7.90979 -2.63007e-18)
(3.91851 -7.69087 -1.59992e-18)
(3.89728 -7.50134 -7.5888e-19)
(3.87166 -7.31118 -7.41701e-19)
(3.83545 -7.11283 -2.42106e-18)
(3.78676 -6.90639 -4.90464e-20)
(3.72733 -6.69464 -1.94527e-18)
(3.65996 -6.4813 3.02196e-20)
(3.5875 -6.27002 -8.07601e-19)
(3.51249 -6.06384 -7.35896e-19)
(3.43702 -5.86501 6.71755e-19)
(3.3627 -5.67508 -6.14318e-19)
(3.29073 -5.49504 -5.62803e-19)
(3.22192 -5.32545 -5.16514e-19)
(3.15677 -5.16654 -1.38684e-18)
(3.09619 -5.01776 4.9341e-19)
(3.04146 -4.87747 1.19735e-18)
(2.98605 -4.74666 -1.27436e-18)
(4.75455 -8.31894 3.95247e-18)
(4.30971 -8.07774 4.85534e-18)
(4.26804 -7.8019 8.34023e-19)
(4.24746 -7.59092 3.99598e-18)
(4.2186 -7.40501 -7.83181e-19)
(4.18341 -7.21568 3.9132e-18)
(4.1362 -7.01686 1.14466e-18)
(4.07571 -6.80963 3.21341e-18)
(4.0042 -6.59729 -9.82194e-19)
(3.9249 -6.38386 2.71939e-18)
(3.84094 -6.17306 1.62671e-18)
(3.75505 -5.96792 1.48243e-18)
(3.66941 -5.77062 -2.00696e-18)
(3.58567 -5.5826 1.88003e-18)
(3.50501 -5.40475 1.13429e-18)
(3.42823 -5.23758 1.04122e-18)
(3.35581 -5.08131 9.57404e-19)
(3.28874 -4.93539 7.357e-21)
(3.22838 -4.7982 8.12683e-19)
(3.16753 -4.67152 8.45765e-19)
(5.08675 -8.14198 -2.93507e-18)
(4.64528 -7.94024 1.08167e-18)
(4.59995 -7.67929 2.67575e-18)
(4.57379 -7.47596 -3.25983e-18)
(4.53725 -7.29362 7.53266e-19)
(4.49227 -7.10531 -2.61803e-18)
(4.43379 -6.90638 1.28312e-18)
(4.36123 -6.69885 -2.15009e-18)
(4.27744 -6.48651 4.90089e-20)
(4.18605 -6.27359 1.19314e-20)
(4.09051 -6.06391 -1.64916e-18)
(3.99369 -5.86042 -7.46537e-19)
(3.89788 -5.66522 1.37267e-18)
(3.80473 -5.47966 8.74889e-21)
(3.71542 -5.3045 -3.71628e-20)
(3.6307 -5.14021 -1.08675e-18)
(3.55105 -4.98698 -4.82582e-19)
(3.47754 -4.84429 -2.71219e-20)
(3.41166 -4.71057 -8.46997e-19)
(3.34558 -4.58854 -4.27125e-19)
(5.41246 -7.95171 0)
(4.97655 -7.78858 -1.99863e-18)
(4.92834 -7.54197 2.37071e-20)
(4.89681 -7.34598 3.25527e-18)
(4.85249 -7.16719 1.36243e-18)
(4.7975 -6.9801 -1.4182e-18)
(4.7275 -6.78146 -1.22169e-18)
(4.64265 -6.57415 0)
(4.54639 -6.3624 -9.72391e-19)
(4.44281 -6.15062 9.28013e-19)
(4.33562 -5.94266 -3.90462e-20)
(4.22788 -5.74142 0)
(4.12191 -5.5489 -6.91034e-19)
(4.01938 -5.36631 5.98539e-19)
(3.92143 -5.19433 5.00013e-19)
(3.82878 -5.03334 -6.03657e-19)
(3.7419 -4.88355 -5.2367e-19)
(3.66195 -4.74444 9.09339e-19)
(3.59054 -4.61457 -8.39194e-19)
(3.51936 -4.49781 4.41717e-19)
(5.7312 -7.74832 3.03237e-18)
(5.30294 -7.62284 -2.05841e-18)
(5.25254 -7.38997 -1.75664e-18)
(5.2158 -7.20102 8.1784e-19)
(5.16361 -7.02576 -1.58669e-18)
(5.09838 -6.84013 0)
(5.01662 -6.64221 0)
(4.91928 -6.43565 0)
(4.81043 -6.22509 -4.44471e-20)
(4.69459 -6.01508 -1.86242e-18)
(4.57574 -5.80946 8.79586e-19)
(4.45709 -5.61105 7.43868e-19)
(4.341 -5.42174 6.29447e-19)
(4.22914 -5.24263 -2.58303e-18)
(4.12259 -5.07427 1.22456e-18)
(4.022 -4.917 0)
(3.92784 -4.77099 -3.04024e-20)
(3.84133 -4.63579 -1.4104e-18)
(3.76422 -4.51012 -5.69134e-21)
(3.68791 -4.39896 -4.42205e-19)
(6.04261 -7.53206 -2.06259e-18)
(5.6239 -7.44315 -1.08522e-18)
(5.57188 -7.22334 8.17628e-19)
(5.53005 -7.04113 -1.43898e-19)
(5.46986 -6.86941 -4.62525e-18)
(5.39418 -6.68552 4.1858e-18)
(5.30045 -6.48875 -4.87987e-20)
(5.19046 -6.28352 1.1464e-18)
(5.06893 -6.07476 1.02855e-18)
(4.9408 -5.86714 9.4441e-19)
(4.81032 -5.66445 8.59393e-19)
(4.68082 -5.46944 1.53582e-18)
(4.55469 -5.28386 -7.39207e-19)
(4.43357 -5.10869 1.91604e-18)
(4.31847 -4.94441 -1.23868e-18)
(4.20999 -4.79125 -5.12393e-19)
(4.10853 -4.64941 2.05809e-18)
(4.01536 -4.51844 1.37498e-18)
(3.93243 -4.39712 -2.79339e-20)
(3.85119 -4.29132 0)
(6.34668 -7.30343 -1.04873e-18)
(5.93904 -7.24969 2.07388e-18)
(5.88568 -7.04215 1.81556e-18)
(5.8388 -6.86637 -1.45873e-19)
(5.7705 -6.69825 -1.56928e-18)
(5.68418 -6.51641 7.06442e-20)
(5.57829 -6.32129 1.31552e-20)
(5.45555 -6.11795 1.17217e-20)
(5.32129 -5.91162 0)
(5.1809 -5.70699 9.23685e-19)
(5.03886 -5.50781 -1.75808e-18)
(4.89859 -5.31671 -7.52307e-19)
(4.7625 -5.13532 7.46844e-19)
(4.63216 -4.96452 -6.5529e-19)
(4.50854 -4.8047 6.06893e-19)
(4.39215 -4.65608 -5.52477e-19)
(4.28339 -4.51887 4.89485e-21)
(4.18364 -4.39244 -4.69343e-19)
(4.09515 -4.27551 -4.33559e-19)
(4.00975 -4.17575 -4.33852e-19)
(6.64373 -7.06292 0)
(6.24809 -7.04238 -1.01114e-18)
(6.19331 -6.84632 9.99532e-19)
(6.14131 -6.67682 1.74379e-18)
(6.06478 -6.51245 -1.57794e-18)
(5.96764 -6.33304 1.3631e-18)
(5.84948 -6.1401 -2.62091e-18)
(5.71392 -5.93926 -2.32736e-18)
(5.56698 -5.73596 -1.01527e-18)
(5.41442 -5.53491 4.43944e-20)
(5.26094 -5.33976 -8.4068e-19)
(5.11004 -5.15301 3.48991e-20)
(4.96408 -4.97618 0)
(4.82454 -4.81002 -1.2854e-18)
(4.69224 -4.65488 6.55983e-19)
(4.56759 -4.51102 0)
(4.45103 -4.37855 -5.13711e-19)
(4.34415 -4.2566 -9.23579e-19)
(4.24919 -4.14482 9.07509e-19)
(4.15861 -4.05581 4.47972e-19)
(6.93339 -6.80971 0)
(6.55043 -6.82052 0)
(6.49404 -6.63579 -1.85407e-18)
(6.43683 -6.47275 -1.59412e-18)
(6.352 -6.3124 3.23552e-18)
(6.24395 -6.13584 0)
(6.11344 -5.94561 0)
(5.96508 -5.74788 1.16923e-18)
(5.80554 -5.54822 0)
(5.64099 -5.35132 0)
(5.47631 -5.16069 0)
(5.31503 -4.97868 0)
(5.15944 -4.80663 0)
(5.01086 -4.64519 0)
(4.86986 -4.49463 0)
(4.73655 -4.35509 0)
(4.61119 -4.22646 0)
(4.49486 -4.10806 0)
(4.38769 -4.00297 0)
(4.28353 -3.92845 0)
(10.0428 0.087735 1.47221e-19)
(10.0223 -0.307628 2.86437e-19)
(9.98654 -0.700314 -2.94193e-19)
(9.93604 -1.09018 5.86563e-19)
(9.87054 -1.47689 -5.86562e-19)
(9.78992 -1.85994 -5.54272e-19)
(9.69428 -2.23879 -5.52726e-19)
(9.58383 -2.61289 1.74079e-18)
(9.45881 -2.98169 -1.1598e-18)
(9.31947 -3.34464 1.15009e-18)
(9.1661 -3.7012 -1.15009e-18)
(8.999 -4.05082 1.1416e-18)
(8.8185 -4.39299 -2.2639e-18)
(8.62496 -4.72722 3.33387e-18)
(8.41873 -5.053 0)
(8.20022 -5.3699 -3.27545e-18)
(7.96981 -5.67749 1.632e-20)
(7.72803 -5.97541 3.30096e-18)
(7.47498 -6.26351 0)
(7.21234 -6.5411 0)
(10.1187 -0.210733 0)
(10.0775 -0.60678 -1.50385e-20)
(10.0195 -0.999029 0)
(9.94537 -1.38714 5.6125e-19)
(9.8554 -1.77069 5.84487e-19)
(9.74975 -2.14908 -1.69165e-18)
(9.62874 -2.52166 2.9452e-18)
(9.49271 -2.88783 -1.16264e-18)
(9.34203 -3.24697 -1.10824e-18)
(9.1771 -3.59851 -1.10372e-18)
(8.99832 -3.94188 4.45641e-20)
(8.80615 -4.27652 1.13088e-18)
(8.60105 -4.60192 -5.62192e-18)
(8.38348 -4.91757 -1.17902e-18)
(8.15396 -5.22303 2.24645e-18)
(7.91298 -5.51785 2.24348e-18)
(7.66102 -5.80165 1.13985e-18)
(7.39867 -6.07409 -2.19791e-18)
(7.12601 -6.33491 1.04082e-18)
(6.844 -6.58378 0)
(10.0697 -0.149266 1.32555e-19)
(10.0319 -0.540851 -2.71454e-19)
(9.9768 -0.929263 7.83885e-19)
(9.90466 -1.31381 -5.5536e-19)
(9.81591 -1.69384 -5.29507e-19)
(9.71093 -2.06863 5.5285e-19)
(9.59009 -2.43747 0)
(9.45377 -2.79966 0)
(9.30241 -3.15453 2.09916e-18)
(9.13646 -3.50145 3.13156e-18)
(8.95638 -3.83979 -9.9042e-19)
(8.76267 -4.16896 3.09662e-18)
(8.55585 -4.48839 -9.86254e-19)
(8.33646 -4.79757 -3.01615e-18)
(8.10506 -5.09597 1.35979e-20)
(7.8622 -5.38314 1.93602e-18)
(7.60842 -5.65864 -8.73826e-19)
(7.34431 -5.92206 -1.90471e-18)
(7.07022 -6.17303 -1.02888e-18)
(6.78688 -6.41104 1.87196e-18)
(9.90315 -0.112575 0)
(9.87215 -0.494913 2.28841e-19)
(9.82389 -0.874906 2.279e-19)
(9.75855 -1.25166 -9.36308e-19)
(9.67644 -1.62437 0)
(9.57792 -1.99226 0)
(9.46335 -2.35456 0)
(9.33309 -2.71054 0)
(9.18757 -3.05947 -9.90841e-19)
(9.02723 -3.40067 -9.87081e-19)
(8.85254 -3.73347 0)
(8.66401 -4.05722 1.86621e-18)
(8.46218 -4.37133 -4.61404e-18)
(8.24758 -4.6752 3.71013e-18)
(8.0208 -4.9683 -3.59607e-18)
(7.78241 -5.2501 -8.7259e-19)
(7.533 -5.52011 1.56413e-19)
(7.27318 -5.77785 1.5482e-19)
(7.00346 -6.02288 -1.7772e-18)
(6.72458 -6.25469 -7.0881e-20)
(9.64982 -0.0991005 0)
(9.62623 -0.469201 -2.25689e-19)
(9.58581 -0.837613 0)
(9.52862 -1.20343 4.51502e-19)
(9.45489 -1.56582 4.30391e-19)
(9.36492 -1.92399 3.93463e-19)
(9.25902 -2.27716 0)
(9.13752 -2.62456 0)
(9.00079 -2.96546 0)
(8.84926 -3.29913 0)
(8.68337 -3.62489 8.12803e-19)
(8.50359 -3.94206 8.75724e-19)
(8.31044 -4.24999 8.70738e-19)
(8.10445 -4.54809 -8.84048e-19)
(7.88619 -4.83575 -1.52137e-18)
(7.65623 -5.11241 1.72709e-18)
(7.41516 -5.37753 3.34847e-18)
(7.1636 -5.6306 1.62869e-18)
(6.90213 -5.87111 0)
(6.63146 -6.09857 -1.53497e-18)
(9.34266 -0.0902959 4.63839e-20)
(9.32603 -0.446218 0)
(9.2932 -0.801022 -7.60121e-19)
(9.24415 -1.15386 1.83485e-23)
(9.17906 -1.50389 1.61656e-20)
(9.09815 -1.85035 -6.85002e-20)
(9.00169 -2.19244 0)
(8.88996 -2.52943 3.09182e-20)
(8.76328 -2.86055 -7.71661e-19)
(8.62204 -3.18509 1.50344e-18)
(8.46663 -3.50235 -1.56774e-18)
(8.29749 -3.81166 8.56515e-19)
(8.11509 -4.11234 -4.48942e-18)
(7.91994 -4.40378 2.96104e-18)
(7.71256 -4.68535 1.56966e-18)
(7.49352 -4.95646 0)
(7.26339 -5.21655 -2.89724e-18)
(7.02277 -5.46506 -6.15129e-20)
(6.77225 -5.70147 -2.85321e-18)
(6.51248 -5.92524 2.96561e-18)
(9.01023 -0.0854755 4.17124e-20)
(8.99924 -0.426398 -8.7384e-20)
(8.97277 -0.766671 7.16475e-19)
(8.9308 -1.10549 -1.40664e-20)
(8.87342 -1.44208 7.16327e-19)
(8.80082 -1.77566 -1.08195e-18)
(8.71321 -2.10548 0)
(8.61084 -2.43081 7.29377e-19)
(8.49399 -2.75093 6.67806e-19)
(8.36298 -3.06512 -7.25293e-19)
(8.21816 -3.3727 1.32695e-18)
(8.05995 -3.67299 2.81326e-18)
(7.88875 -3.96534 -1.3083e-18)
(7.70505 -4.24912 -1.41817e-18)
(7.50933 -4.52371 1.35998e-18)
(7.30212 -4.7885 0)
(7.08397 -5.04292 6.49104e-20)
(6.85544 -5.28638 9.79752e-21)
(6.61712 -5.51835 2.7032e-18)
(6.36961 -5.73827 1.25671e-18)
(8.67375 -0.0842808 0)
(8.66681 -0.410251 6.25432e-21)
(8.64517 -0.735915 -1.45783e-19)
(8.60877 -1.06053 -6.47453e-19)
(8.55769 -1.38334 6.08581e-19)
(8.49207 -1.70362 0)
(8.41209 -2.02066 1.23869e-18)
(8.31794 -2.33375 -1.36109e-21)
(8.20988 -2.64219 -1.89186e-18)
(8.08818 -2.94531 0)
(7.95316 -3.24244 -1.30583e-18)
(7.80518 -3.53294 4.59845e-20)
(7.64464 -3.81615 -3.67063e-18)
(7.47195 -4.09147 6.46721e-21)
(7.28758 -4.35829 1.23027e-18)
(7.09202 -4.616 0)
(6.88579 -4.86402 -1.20753e-18)
(6.66943 -5.10178 8.6906e-21)
(6.44349 -5.32872 1.19885e-18)
(6.20852 -5.54425 -1.2367e-18)
(8.34705 -0.0853467 0)
(8.34273 -0.396945 1.49472e-19)
(8.32447 -0.708469 3.10125e-19)
(8.2922 -1.01922 -5.74022e-19)
(8.24597 -1.3285 -2.47145e-20)
(8.1859 -1.63562 -2.86879e-19)
(8.11214 -1.93989 -1.14841e-18)
(8.02486 -2.24067 5.70943e-19)
(7.92428 -2.53728 2.3806e-20)
(7.81064 -2.82908 5.67527e-19)
(7.68423 -3.11545 5.22436e-19)
(7.54538 -3.39575 2.26259e-18)
(7.39443 -3.66938 1.13175e-18)
(7.2318 -3.93575 2.23534e-18)
(7.0579 -4.19426 -1.11474e-18)
(6.87321 -4.44434 3.86539e-20)
(6.67821 -4.68541 -1.10158e-18)
(6.47341 -4.9169 0)
(6.25936 -5.13825 1.04126e-18)
(6.03655 -5.34886 0)
(8.03805 -0.0875495 6.50744e-20)
(8.03519 -0.385646 -1.90582e-19)
(8.0191 -0.683811 5.22739e-19)
(7.98972 -0.981388 -2.60784e-19)
(7.94708 -1.27772 1.89752e-20)
(7.89127 -1.57216 -2.60629e-19)
(7.82244 -1.86408 5.41843e-19)
(7.74072 -2.15284 -5.18563e-19)
(7.64632 -2.43783 5.1856e-19)
(7.53945 -2.71844 9.94553e-19)
(7.42038 -2.99407 -1.07172e-18)
(7.28941 -3.26413 -4.50837e-20)
(7.14685 -3.52806 -3.10214e-18)
(6.9931 -3.78529 5.37268e-21)
(6.82855 -4.03526 4.02594e-20)
(6.65365 -4.27742 2.01104e-18)
(6.46887 -4.51121 -9.93389e-19)
(6.2747 -4.73606 -9.46203e-19)
(6.07168 -4.95142 -3.74378e-20)
(5.86026 -5.15668 0)
(7.75035 -0.0901446 0)
(7.7481 -0.375731 2.42087e-19)
(7.73328 -0.66146 -8.32381e-19)
(7.70582 -0.946715 -2.2083e-19)
(7.66574 -1.23088 4.93892e-19)
(7.61315 -1.51335 0)
(7.54814 -1.79352 0)
(7.47087 -2.0708 4.72077e-19)
(7.38149 -2.34462 -4.72075e-19)
(7.28023 -2.6144 3.9765e-19)
(7.16731 -2.87959 -4.69033e-19)
(7.04302 -3.13963 9.30129e-19)
(6.90768 -3.39399 -1.85565e-18)
(6.76162 -3.64215 1.84606e-18)
(6.60525 -3.88358 3.4652e-20)
(6.43899 -4.11776 -9.49473e-19)
(6.26331 -4.34415 -9.03487e-19)
(6.0787 -4.56222 1.84047e-18)
(5.88569 -4.7714 8.61564e-19)
(5.68472 -4.97108 0)
(7.48473 -0.092659 1.87674e-21)
(7.48253 -0.366735 1.5894e-19)
(7.46833 -0.640979 3.33707e-19)
(7.44209 -0.914814 2.33582e-19)
(7.40383 -1.18766 2.16673e-19)
(7.35363 -1.45894 2.01552e-19)
(7.29158 -1.72809 0)
(7.21784 -1.99455 -8.32929e-19)
(7.13254 -2.25779 -4.2938e-19)
(7.03589 -2.51727 3.66287e-19)
(6.92812 -2.77247 0)
(6.80948 -3.02287 8.4807e-19)
(6.68027 -3.26798 -2.5082e-18)
(6.54083 -3.50731 8.43728e-19)
(6.39154 -3.74038 0)
(6.23282 -3.96672 -8.02212e-19)
(6.06515 -4.18581 -1.62026e-18)
(5.88902 -4.39715 7.97277e-19)
(5.70498 -4.60015 -2.91933e-20)
(5.51348 -4.7942 0)
(7.24033 -0.0947939 3.46259e-21)
(7.23781 -0.358311 -1.02862e-19)
(7.22382 -0.621989 1.98501e-19)
(7.19832 -0.885284 -1.31142e-20)
(7.16133 -1.14765 3.96652e-19)
(7.11292 -1.40854 -6.09188e-19)
(7.0532 -1.66742 0)
(6.98229 -1.92378 5.59996e-20)
(6.90033 -2.17709 0)
(6.80751 -2.42686 -8.1319e-19)
(6.70405 -2.6726 0)
(6.59019 -2.91384 -7.50455e-19)
(6.46622 -3.15011 2.31947e-18)
(6.33246 -3.38099 -1.53699e-18)
(6.18928 -3.60602 7.66283e-19)
(6.03711 -3.82478 -6.77964e-19)
(5.87644 -4.0368 7.83131e-19)
(5.70777 -4.24162 -7.77775e-19)
(5.53174 -4.43863 0)
(5.34876 -4.62721 0)
(7.01534 -0.096428 4.70672e-20)
(7.01233 -0.350235 0)
(6.9983 -0.604184 0)
(6.97323 -0.857758 -3.7711e-19)
(6.93715 -1.11043 -3.51955e-19)
(6.89013 -1.3617 0)
(6.83226 -1.61105 0)
(6.76367 -1.85799 4.98233e-20)
(6.68449 -2.10203 6.96979e-19)
(6.59491 -2.34271 -3.36121e-19)
(6.49511 -2.57956 -3.58116e-19)
(6.38535 -2.81216 1.44664e-18)
(6.26588 -3.04008 -2.14814e-18)
(6.13702 -3.26293 1.38522e-18)
(5.99914 -3.4803 0)
(5.85266 -3.69185 2.78293e-18)
(5.6981 -3.89712 -2.02052e-18)
(5.53597 -4.09577 6.87383e-19)
(5.36705 -4.2871 1.31458e-18)
(5.19175 -4.47055 0)
(6.80769 -0.0974962 -4.04645e-20)
(6.80406 -0.342345 0)
(6.78985 -0.587316 -5.2184e-21)
(6.76502 -0.831908 -3.23827e-19)
(6.72962 -1.07562 1.00344e-18)
(6.68372 -1.31797 -1.6692e-19)
(6.62739 -1.55847 0)
(6.56076 -1.79665 1.32968e-18)
(6.48397 -2.03206 -6.84774e-19)
(6.39717 -2.26424 4.44569e-20)
(6.30055 -2.49278 6.34611e-19)
(6.19435 -2.71728 6.50485e-19)
(6.07882 -2.93733 -1.29717e-18)
(5.95424 -3.15261 -1.26878e-18)
(5.82099 -3.36274 -1.23929e-18)
(5.67946 -3.56748 -1.31878e-18)
(5.53023 -3.76638 1.30979e-18)
(5.37381 -3.95931 -6.25266e-19)
(5.21122 -4.1454 -6.66295e-19)
(5.04278 -4.3243 0)
(6.61512 -0.0979781 3.97553e-20)
(6.61086 -0.334537 -1.4927e-19)
(6.59641 -0.571188 -1.54527e-19)
(6.57173 -0.807451 4.62699e-19)
(6.53689 -1.04285 -1.6432e-19)
(6.49193 -1.27691 -1.53594e-19)
(6.43694 -1.50919 0)
(6.37204 -1.73922 -6.31333e-19)
(6.29735 -1.96658 0)
(6.21303 -2.19085 6.26449e-19)
(6.11926 -2.41162 -1.20717e-18)
(6.01624 -2.62852 5.97569e-19)
(5.90421 -2.8412 -1.19147e-18)
(5.78345 -3.04936 1.22952e-18)
(5.65429 -3.25269 6.69223e-19)
(5.51712 -3.45105 0)
(5.37256 -3.64399 -5.77626e-19)
(5.22108 -3.83172 5.77626e-19)
(5.06414 -4.01304 0)
(4.9017 -4.1883 0)
(6.43553 -0.0979613 0)
(6.43066 -0.326789 1.46656e-19)
(6.41596 -0.555676 4.71954e-21)
(6.39142 -0.784164 -1.51218e-19)
(6.35708 -1.0118 -1.33344e-19)
(6.31299 -1.23813 -1.41567e-19)
(6.25925 -1.46272 5.4716e-19)
(6.19595 -1.68514 0)
(6.12322 -1.90498 0)
(6.0412 -2.12184 2.78068e-19)
(5.95006 -2.33534 2.95392e-19)
(5.85 -2.54514 1.06908e-18)
(5.74121 -2.7509 -5.46252e-19)
(5.62395 -2.95239 5.4625e-19)
(5.49853 -3.14931 5.79894e-19)
(5.36529 -3.34169 3.39159e-20)
(5.22487 -3.52905 -1.06502e-18)
(5.07765 -3.71218 3.7772e-21)
(4.92577 -3.88915 5.26741e-19)
(4.76839 -4.062 0)
(6.26701 -0.0974486 -3.27788e-20)
(6.2616 -0.319068 3.27784e-20)
(6.2467 -0.54072 0)
(6.22232 -0.761958 1.23462e-19)
(6.18849 -0.982346 4.01046e-19)
(6.14527 -1.20146 -5.06872e-19)
(6.09275 -1.41887 -5.37603e-19)
(6.03102 -1.63418 0)
(5.9602 -1.847 0)
(5.88042 -2.05693 0)
(5.79185 -2.26364 -9.92438e-19)
(5.69464 -2.46679 -6.40749e-20)
(5.58899 -2.66608 -5.03203e-19)
(5.4751 -2.8613 3.01612e-20)
(5.35324 -3.05222 -9.95135e-19)
(5.22365 -3.23898 1.51659e-18)
(5.08702 -3.42113 -1.437e-18)
(4.94342 -3.60028 4.87804e-19)
(4.79611 -3.77343 9.35143e-19)
(4.6424 -3.94548 0)
(6.10784 -0.0960902 2.94482e-20)
(6.10199 -0.311174 0)
(6.08699 -0.526279 -1.21239e-19)
(6.06283 -0.740968 -2.49822e-19)
(6.02955 -0.954824 1.21087e-19)
(5.98722 -1.16744 9.66931e-19)
(5.93591 -1.37841 0)
(5.87571 -1.58735 -4.65692e-19)
(5.80673 -1.79388 -2.38187e-19)
(5.72911 -1.99765 -4.47462e-19)
(5.64298 -2.19832 -1.79029e-19)
(5.54847 -2.39559 -1.4127e-18)
(5.44577 -2.58917 -9.32464e-19)
(5.33501 -2.77886 9.59209e-19)
(5.21642 -2.96449 9.18144e-19)
(5.09003 -3.14627 -3.88111e-21)
(4.95664 -3.32386 2.99126e-20)
(4.8155 -3.49985 4.49464e-19)
(4.6717 -3.67043 -9.18871e-19)
(4.51853 -3.84549 0)
(5.95643 -0.0944181 -6.1582e-20)
(5.95028 -0.303244 3.03157e-20)
(5.93532 -0.512157 -1.21117e-19)
(5.91154 -0.720768 1.2106e-19)
(5.87895 -0.928684 -3.48185e-19)
(5.8376 -1.13551 -1.0842e-18)
(5.78757 -1.34088 0)
(5.72892 -1.5444 4.92742e-19)
(5.66174 -1.74573 -4.60725e-19)
(5.58614 -1.94453 9.75616e-19)
(5.50222 -2.14046 9.69818e-19)
(5.4101 -2.33324 1.42883e-18)
(5.3099 -2.52258 -9.27147e-19)
(5.20167 -2.70829 4.61815e-19)
(5.08565 -2.8902 -4.54165e-19)
(4.96146 -3.0685 4.54188e-19)
(4.83022 -3.24293 0)
(4.68922 -3.41671 4.11203e-19)
(4.54748 -3.58567 -4.02392e-19)
(4.38991 -3.77196 0)
(7.13946 7.26144 0)
(7.41941 6.97166 0)
(7.68646 6.6723 1.08656e-18)
(7.94131 6.36387 2.02264e-20)
(8.18339 6.04607 -1.1496e-18)
(8.41205 5.71898 0)
(8.62687 5.38299 1.1863e-18)
(8.82752 5.03864 -2.23814e-18)
(9.01368 4.6865 -1.13109e-18)
(9.18506 4.32718 -1.14166e-18)
(9.3414 3.96132 1.14165e-18)
(9.48247 3.58957 -1.15373e-18)
(9.60807 3.21261 5.75507e-19)
(9.71802 2.83115 5.49278e-19)
(9.81216 2.44586 5.51424e-19)
(9.89042 2.05739 -5.85222e-19)
(9.95278 1.66642 5.85222e-19)
(9.99931 1.27363 -2.93788e-19)
(10.03 0.87944 -1.39548e-19)
(10.0453 0.485191 7.35033e-20)
(7.41552 7.06892 0)
(7.69564 6.77954 -9.95601e-19)
(7.96198 6.47861 -2.12855e-18)
(8.21482 6.16678 3.14768e-18)
(8.45392 5.84439 -2.18282e-18)
(8.67878 5.51188 2.19353e-18)
(8.88891 5.16987 1.19256e-18)
(9.0839 4.81901 -3.38405e-18)
(9.26336 4.45999 1.10706e-18)
(9.42694 4.09354 2.20072e-18)
(9.57432 3.72037 1.08425e-18)
(9.70526 3.34124 1.09112e-18)
(9.81958 2.95696 -1.15142e-18)
(9.91707 2.56823 1.69545e-18)
(9.99745 2.17587 -2.35231e-18)
(10.0607 1.78072 5.8062e-19)
(10.1066 1.38361 -5.57924e-19)
(10.1355 0.985346 0)
(10.1472 0.586461 1.5152e-20)
(10.142 0.187935 0)
(7.27214 6.94382 -1.75304e-18)
(7.55506 6.67185 9.84211e-19)
(7.82543 6.38702 1.80028e-18)
(8.08282 6.09 8.14962e-19)
(8.32679 5.78137 2.04117e-18)
(8.55682 5.46175 2.00068e-20)
(8.77239 5.13178 -1.0231e-18)
(8.973 4.79219 -3.04901e-18)
(9.1582 4.44367 3.01016e-18)
(9.32756 4.08696 -3.08999e-18)
(9.48068 3.72279 -1.02944e-18)
(9.61728 3.35194 -2.05961e-18)
(9.73703 2.97521 0)
(9.83971 2.59338 0)
(9.9252 2.20735 0)
(9.99331 1.81803 -5.24983e-19)
(10.0439 1.42625 5.4984e-19)
(10.0769 1.03286 5.26676e-19)
(10.0923 0.638593 6.26764e-21)
(10.09 0.244403 1.32278e-19)
(7.0447 6.69168 1.82068e-18)
(7.32434 6.43836 -1.65334e-18)
(7.59264 6.17193 -1.69536e-19)
(7.84887 5.89291 -1.70496e-19)
(8.09247 5.6019 4.29807e-18)
(8.32289 5.29948 -7.12335e-20)
(8.53958 4.9863 3.76218e-21)
(8.74201 4.66301 -2.718e-18)
(8.92968 4.33028 1.7933e-18)
(9.10211 3.98881 0)
(9.25882 3.63937 9.61855e-19)
(9.39947 3.2828 9.68508e-19)
(9.52376 2.91987 0)
(9.6314 2.55143 0)
(9.72216 2.17829 0)
(9.79585 1.80126 0)
(9.85226 1.42118 -2.16998e-20)
(9.89129 1.03889 4.74211e-19)
(9.91281 0.655214 -2.27717e-19)
(9.91682 0.271108 0)
(6.78197 6.37696 1.54195e-18)
(7.05375 6.14149 0)
(7.3153 5.89309 -4.53987e-18)
(7.56581 5.63218 -1.54742e-18)
(7.80466 5.35928 -1.62613e-18)
(8.03126 5.07494 -1.7238e-18)
(8.24504 4.77975 8.14431e-19)
(8.44546 4.47431 -8.55904e-19)
(8.63197 4.15924 2.37657e-18)
(8.80414 3.83524 -7.78023e-19)
(8.96154 3.50307 0)
(9.10367 3.16347 0)
(9.23014 2.81713 0)
(9.34069 2.46485 0)
(9.43504 2.10742 -1.22864e-18)
(9.51295 1.74567 4.22474e-19)
(9.5742 1.38038 -4.46281e-19)
(9.61862 1.0124 0)
(9.64609 0.642569 2.2458e-19)
(9.65653 0.271778 0)
(6.507 6.0498 1.31905e-18)
(6.76855 5.83047 -4.79798e-20)
(7.0208 5.59863 2.77455e-18)
(7.26297 5.3546 1.38614e-18)
(7.49438 5.09884 0)
(7.71448 4.83188 -1.47197e-18)
(7.92268 4.55423 6.84738e-20)
(8.11844 4.26646 -1.49431e-18)
(8.30124 3.96915 2.06723e-18)
(8.47061 3.66295 3.27266e-20)
(8.6261 3.3485 2.81047e-20)
(8.76728 3.02643 -7.45659e-19)
(8.89372 2.69746 1.46239e-18)
(9.00511 2.36236 0)
(9.10119 2.02184 6.85359e-20)
(9.18166 1.67672 7.46612e-19)
(9.24624 1.32777 1.63633e-21)
(9.29475 0.975783 -1.53389e-20)
(9.32708 0.62155 0)
(9.34307 0.265907 -4.62874e-20)
(6.24111 5.73283 0)
(6.49132 5.52748 -4.89043e-20)
(6.73299 5.31014 1.75516e-20)
(6.96536 5.08109 -2.50802e-18)
(7.18779 4.84073 0)
(7.39971 4.58953 1.26844e-18)
(7.60058 4.32797 1.3511e-18)
(7.78986 4.05656 -3.93085e-18)
(7.96706 3.77583 -6.82453e-20)
(8.13171 3.48637 -1.26218e-18)
(8.28336 3.18876 6.94988e-19)
(8.42159 2.88363 -6.41969e-19)
(8.54601 2.57164 -7.05744e-19)
(8.65624 2.25349 0)
(8.75204 1.92989 3.72339e-19)
(8.8332 1.60145 -1.68999e-20)
(8.89933 1.26903 -3.45641e-19)
(8.95022 0.933368 -1.67619e-20)
(8.98576 0.595208 -8.70071e-20)
(9.00578 0.255323 1.74387e-19)
(5.99549 5.43763 0)
(6.23411 5.24413 1.08446e-18)
(6.46479 5.0392 1.61623e-20)
(6.68681 4.8231 -1.10059e-18)
(6.89954 4.59619 0)
(7.10246 4.35887 1.14499e-18)
(7.29504 4.11159 -1.09317e-18)
(7.47677 3.85481 -1.2102e-18)
(7.6472 3.58903 2.30191e-18)
(7.80585 3.31479 1.24211e-18)
(7.95232 3.03263 0)
(8.0862 2.74314 6.05834e-19)
(8.20711 2.44695 -4.385e-21)
(8.31473 2.1447 2.18562e-20)
(8.40865 1.83706 0)
(8.48872 1.52465 -5.96324e-19)
(8.5548 1.20809 -3.12418e-19)
(8.60646 0.888192 4.56459e-19)
(8.6436 0.565685 3.07761e-19)
(8.66603 0.241275 -4.11379e-20)
(5.77382 5.16914 0)
(6.00118 4.98562 -9.36586e-19)
(6.22105 4.79125 0)
(6.43276 4.58625 -1.0105e-18)
(6.63573 4.37094 1.98943e-18)
(6.82943 4.14569 -2.02889e-18)
(7.0134 3.91091 3.17484e-18)
(7.18715 3.66702 -3.16568e-18)
(7.35024 3.41449 -2.13884e-18)
(7.50226 3.15382 -1.5775e-18)
(7.64279 2.88553 5.40957e-19)
(7.77146 2.61017 -1.12151e-18)
(7.88792 2.32832 1.86396e-20)
(7.99185 2.04058 1.11484e-18)
(8.08294 1.74754 -2.80467e-19)
(8.16084 1.44992 1.14894e-18)
(8.22544 1.14821 -5.65088e-19)
(8.27659 0.843117 2.60348e-19)
(8.314 0.535376 -1.48483e-19)
(8.33749 0.225653 0)
(5.57582 4.92774 0)
(5.79257 4.75267 1.81189e-18)
(6.00218 4.56731 8.78871e-19)
(6.20401 4.37186 -9.04687e-19)
(6.39751 4.16659 -1.85324e-18)
(6.58221 3.95183 2.82006e-18)
(6.75767 3.72795 1.12781e-20)
(6.92343 3.49537 -9.19184e-19)
(7.0791 3.25452 1.9734e-18)
(7.22428 3.00586 1.01921e-18)
(7.35858 2.74991 -9.52177e-19)
(7.48166 2.48717 4.99988e-19)
(7.59319 2.2182 2.25246e-20)
(7.69285 1.94354 -5.26117e-19)
(7.78037 1.66379 -2.54942e-19)
(7.85545 1.37952 5.11193e-19)
(7.91788 1.09142 -2.56251e-19)
(7.96752 0.799991 -5.17108e-19)
(8.00423 0.505919 5.99197e-20)
(8.02774 0.20985 6.4795e-20)
(5.39929 4.71138 0)