/*--------------------------------*- C++ -*----------------------------------*\
| =========                 |                                                 |
| \\      /  F ield         | OpenFOAM: The Open Source CFD Toolbox           |
|  \\    /   O peration     | Version:  v1912                                 |
|   \\  /    A nd           | Website:  www.openfoam.com                      |
|    \\/     M anipulation  |                                                 |
\*---------------------------------------------------------------------------*/
FoamFile
{
    version     2.0;
    format      ascii;
    class       volScalarField;
    location    "32.5";
    object      p;
}
// * * * * * * * * * * * * * * * * * * * * * * * * * * * * * * * * * * * * * //

dimensions      [0 2 -2 0 0 0 0];


internalField   nonuniform List<scalar> 
9600
(
-41.4251
-36.1575
-32.9278
-30.1878
-27.6804
-25.4124
-23.3553
-21.4812
-19.7724
-18.2153
-16.7971
-15.5057
-14.3299
-13.2587
-12.282
-11.3905
-10.5756
-9.8293
-9.14421
-8.51811
-42.1791
-36.8941
-33.6287
-30.8462
-28.2941
-25.9823
-23.8841
-21.9725
-20.2302
-18.6433
-17.1989
-15.8847
-14.6887
-13.5998
-12.6074
-11.7018
-10.8742
-10.1163
-9.42021
-8.78493
-42.9348
-37.6268
-34.3244
-31.4991
-28.902
-26.5462
-24.407
-22.458
-20.6823
-19.066
-17.5958
-16.2589
-15.0431
-13.9367
-12.9288
-12.0093
-11.1692
-10.3997
-9.69268
-9.04842
-43.689
-38.3552
-35.0142
-32.1456
-29.5031
-27.1033
-24.923
-22.9369
-21.128
-19.4825
-17.9868
-16.6276
-15.3923
-14.2687
-13.2456
-12.3124
-11.46
-10.6791
-9.96121
-9.30824
-44.4387
-39.0776
-35.6973
-32.7845
-30.0964
-27.6524
-25.4312
-23.4081
-21.5665
-19.8922
-18.3713
-16.9903
-15.7358
-14.5953
-13.5572
-12.6107
-11.7462
-10.9541
-10.2255
-9.56411
-45.182
-39.7928
-36.3723
-33.4149
-30.6808
-28.1927
-25.9307
-23.8709
-21.9968
-20.2942
-18.7487
-17.3461
-16.0729
-14.916
-13.8632
-12.9037
-12.0273
-11.2241
-10.4851
-9.81578
-45.9169
-40.4992
-37.0381
-34.0356
-31.2554
-28.7231
-26.4205
-24.3243
-22.4182
-20.6877
-19.118
-17.6944
-16.4029
-15.2299
-14.163
-13.1908
-12.3029
-11.489
-10.7397
-10.0629
-46.6421
-41.1955
-37.6935
-34.6454
-31.819
-29.2426
-26.8996
-24.7675
-22.8299
-21.072
-19.4786
-18.0345
-16.7252
-15.5366
-14.456
-13.4714
-12.5725
-11.7481
-10.9891
-10.3053
-47.3561
-41.8803
-38.3371
-35.2433
-32.3705
-29.7502
-27.3672
-25.1995
-23.2309
-21.4462
-19.8297
-18.3657
-17.0391
-15.8354
-14.7414
-13.7451
-12.8354
-12.0011
-11.2326
-10.5426
-48.0577
-42.5525
-38.9679
-35.8281
-32.9091
-30.245
-27.8224
-25.6196
-23.6206
-21.8096
-20.1705
-18.6871
-17.3437
-16.1255
-15.0187
-14.011
-13.0912
-12.2473
-11.47
-10.7743
-48.7459
-43.211
-39.5848
-36.3989
-33.4336
-30.7261
-28.2642
-26.0269
-23.9979
-22.1613
-20.5002
-18.998
-17.6383
-16.406
-15.2869
-14.2684
-13.3389
-12.4861
-11.7004
-10.9998
-49.4196
-43.8547
-40.1869
-36.9547
-33.9433
-31.1926
-28.6918
-26.4205
-24.3622
-22.5004
-20.818
-19.2974
-17.922
-16.6762
-15.5453
-14.5165
-13.5779
-12.7167
-11.9232
-11.2184
-50.0782
-44.4829
-40.7732
-37.4947
-34.4372
-31.6436
-29.1045
-26.7997
-24.7126
-22.8262
-21.1229
-19.5845
-18.1939
-16.9349
-15.7927
-14.7541
-13.807
-12.938
-12.1374
-11.4293
-50.7211
-45.0947
-41.3429
-38.0179
-34.9145
-32.0784
-29.5014
-27.1636
-25.0483
-23.1379
-21.4141
-19.8583
-18.4528
-17.1811
-16.0279
-14.98
-14.0249
-13.1487
-12.3419
-11.6319
-51.3476
-45.6893
-41.8951
-38.5237
-35.3746
-32.4963
-29.8819
-27.5117
-25.3686
-23.4346
-21.6908
-20.1179
-18.6978
-17.4135
-16.2496
-15.1925
-14.2296
-13.3467
-12.5345
-11.8242
-51.9575
-46.2659
-42.4293
-39.0115
-35.8168
-32.8968
-30.2455
-27.8434
-25.6731
-23.7159
-21.9523
-20.3625
-18.9279
-17.631
-16.4563
-15.39
-14.4194
-13.5299
-12.7125
-12.0008
-52.5519
-46.8244
-42.9446
-39.4805
-36.2405
-33.2792
-30.5915
-28.1582
-25.9611
-23.9812
-22.198
-20.5914
-19.1422
-17.8327
-16.6472
-15.5718
-14.5938
-13.6982
-12.8749
-12.1586
-53.1353
-47.366
-43.4404
-39.9295
-36.6448
-33.6427
-30.9195
-28.4556
-26.2324
-24.23
-22.4275
-20.8039
-19.3396
-18.0169
-16.8198
-15.7351
-14.75
-13.8488
-13.0206
-12.3087
-53.7096
-47.8902
-43.915
-40.3576
-37.0292
-33.9877
-31.2299
-28.7362
-26.4875
-24.4631
-22.6411
-21.0001
-19.5198
-18.182
-16.9709
-15.8734
-14.8764
-13.9643
-13.1348
-12.4552
-54.253
-48.3892
-44.3675
-40.7654
-37.3951
-34.3155
-31.5242
-29.0017
-26.7283
-24.6823
-22.8411
-21.1824
-19.6853
-18.3308
-17.1023
-15.9852
-14.9646
-14.027
-13.1867
-12.5133
-59.6751
-59.6437
-59.5748
-59.4828
-59.3671
-59.2252
-59.0565
-58.8616
-58.641
-58.3953
-58.1249
-57.8306
-57.5129
-57.1726
-56.8103
-56.427
-56.0237
-55.6022
-55.1653
-54.7161
-53.3304
-53.3278
-53.2922
-53.2293
-53.1396
-53.0228
-52.879
-52.709
-52.5135
-52.293
-52.0482
-51.7797
-51.4881
-51.1741
-50.8383
-50.4814
-50.1039
-49.7065
-49.2896
-48.8512
-48.6929
-48.7146
-48.707
-48.6709
-48.6074
-48.5175
-48.4017
-48.2606
-48.095
-47.9054
-47.6923
-47.4563
-47.1981
-46.918
-46.6167
-46.2946
-45.952
-45.5888
-45.2049
-44.7983
-44.4699
-44.5092
-44.522
-44.5078
-44.4676
-44.4023
-44.3126
-44.1991
-44.0624
-43.9028
-43.7211
-43.5177
-43.2932
-43.0479
-42.7823
-42.4967
-42.1912
-41.8658
-41.5202
-41.1536
-40.5663
-40.6153
-40.6406
-40.6413
-40.6179
-40.5711
-40.5017
-40.4102
-40.2969
-40.1625
-40.0074
-39.8322
-39.6372
-39.423
-39.1898
-38.9379
-38.6673
-38.3782
-38.0701
-37.7427
-37.061
-37.1142
-37.1459
-37.1552
-37.1423
-37.1079
-37.0526
-36.9768
-36.881
-36.7658
-36.6315
-36.4787
-36.3079
-36.1193
-35.9134
-35.6903
-35.4503
-35.1931
-34.9187
-34.6265
-33.945
-33.9981
-34.0316
-34.0447
-34.0373
-34.0101
-33.9636
-33.8984
-33.8148
-33.7133
-33.5945
-33.4587
-33.3065
-33.1383
-32.9544
-32.7551
-32.5404
-32.3104
-32.0648
-31.8031
-31.1812
-31.2316
-31.2638
-31.2771
-31.2716
-31.2479
-31.2064
-31.1477
-31.0721
-30.98
-30.8722
-30.7489
-30.6107
-30.4582
-30.2916
-30.1113
-29.9174
-29.71
-29.4887
-29.253
-28.7299
-28.7759
-28.8049
-28.8164
-28.8106
-28.7879
-28.7488
-28.6936
-28.623
-28.5372
-28.437
-28.3227
-28.195
-28.0543
-27.9012
-27.736
-27.559
-27.3702
-27.1693
-26.9558
-26.5514
-26.5922
-26.6172
-26.6259
-26.6184
-26.5952
-26.5567
-26.5034
-26.4356
-26.354
-26.259
-26.1511
-26.0311
-25.8995
-25.7569
-25.6038
-25.4405
-25.2673
-25.0837
-24.8892
-24.6086
-24.6441
-24.6648
-24.6701
-24.6604
-24.6359
-24.5972
-24.5445
-24.4784
-24.3994
-24.308
-24.2048
-24.0905
-23.9659
-23.8315
-23.6881
-23.5362
-23.376
-23.2074
-23.0297
-22.8686
-22.8991
-22.9155
-22.9175
-22.9053
-22.8792
-22.8397
-22.7871
-22.7219
-22.6446
-22.5558
-22.456
-22.3461
-22.2268
-22.0989
-21.9634
-21.8209
-21.672
-21.5167
-21.3542
-21.3031
-21.329
-21.3415
-21.3403
-21.3257
-21.298
-21.2576
-21.2048
-21.1401
-21.0639
-20.977
-20.8798
-20.7732
-20.6581
-20.5354
-20.4063
-20.2718
-20.1326
-19.9893
-19.8409
-19.8885
-19.9103
-19.9192
-19.9152
-19.8984
-19.8691
-19.8278
-19.7747
-19.7103
-19.635
-19.5494
-19.4543
-19.3503
-19.2384
-19.1198
-18.9958
-18.8679
-18.7373
-18.6051
-18.4702
-18.605
-18.623
-18.6288
-18.6222
-18.6035
-18.5728
-18.5307
-18.4773
-18.4131
-18.3386
-18.2542
-18.1606
-18.0586
-17.9493
-17.8338
-17.7138
-17.5912
-17.4678
-17.346
-17.2244
-17.4359
-17.4506
-17.4536
-17.4447
-17.4243
-17.3925
-17.3497
-17.2961
-17.2322
-17.1582
-17.0748
-16.9825
-16.882
-16.7745
-16.6613
-16.544
-16.4254
-16.3077
-16.1953
-16.0869
-16.3675
-16.3793
-16.3798
-16.369
-16.3471
-16.3143
-16.2708
-16.2171
-16.1533
-16.0798
-15.9971
-15.9057
-15.8064
-15.7
-15.588
-15.4721
-15.3558
-15.2418
-15.1375
-15.0407
-15.388
-15.3973
-15.3959
-15.3836
-15.3606
-15.3271
-15.2834
-15.2296
-15.1661
-15.0931
-15.0111
-14.9206
-14.822
-14.7162
-14.6045
-14.4888
-14.3727
-14.2601
-14.1627
-14.075
-14.4861
-14.4941
-14.4917
-14.4789
-14.4558
-14.4227
-14.3796
-14.3269
-14.2648
-14.1934
-14.1132
-14.0246
-13.9278
-13.8237
-13.713
-13.5975
-13.4808
-13.3678
-13.2772
-13.2035
-13.6566
-13.6614
-13.6564
-13.6418
-13.6177
-13.5841
-13.5414
-13.4896
-13.4289
-13.3595
-13.2817
-13.1957
-13.1018
-13.0005
-12.892
-12.7776
-12.659
-12.5414
-12.4444
-12.3948
-53.4178
-53.9898
-54.5248
-55.0449
-55.5473
-56.026
-56.4781
-56.9024
-57.2982
-57.6646
-58.0008
-58.3064
-58.581
-58.8242
-59.0355
-59.215
-59.3634
-59.482
-59.5727
-59.6374
-46.9399
-47.5173
-48.0668
-48.594
-49.0986
-49.5782
-50.0312
-50.4569
-50.8549
-51.2243
-51.5646
-51.8756
-52.1576
-52.4111
-52.634
-52.826
-52.9874
-53.1186
-53.2203
-53.2912
-42.3025
-42.8677
-43.4094
-43.9279
-44.423
-44.8941
-45.3405
-45.7612
-46.156
-46.5239
-46.864
-47.1762
-47.4601
-47.7145
-47.9406
-48.1386
-48.3083
-48.4493
-48.5613
-48.6429
-38.1855
-38.7256
-39.2462
-39.7453
-40.2224
-40.6771
-41.1089
-41.5171
-41.901
-42.2602
-42.5933
-42.8998
-43.1805
-43.4352
-43.6637
-43.866
-44.0416
-44.1901
-44.3113
-44.4046
-34.5144
-35.0246
-35.518
-35.9918
-36.4451
-36.8775
-37.2885
-37.6775
-38.0437
-38.3866
-38.7067
-39.0037
-39.2761
-39.524
-39.7477
-39.9469
-40.1211
-40.2703
-40.3944
-40.4932
-31.3217
-31.8007
-32.2644
-32.7103
-33.1371
-33.5445
-33.9319
-34.2988
-34.6447
-34.9693
-35.2725
-35.5536
-35.812
-36.0479
-36.2616
-36.4528
-36.6208
-36.7657
-36.8875
-36.9861
-28.555
-29.0034
-29.4376
-29.8554
-30.2553
-30.6371
-31.0001
-31.3438
-31.668
-31.9723
-32.2563
-32.5197
-32.7623
-32.9838
-33.1839
-33.3644
-33.5237
-33.6611
-33.7772
-33.8719
-26.1477
-26.5674
-26.9738
-27.3646
-27.7388
-28.0957
-28.4349
-28.7559
-29.0583
-29.342
-29.6067
-29.8521
-30.0782
-30.2848
-30.472
-30.6382
-30.7869
-30.9154
-31.0238
-31.1125
-24.0412
-24.4347
-24.8155
-25.1816
-25.5318
-25.8654
-26.1821
-26.4815
-26.7633
-27.0273
-27.2733
-27.5013
-27.7111
-27.9027
-28.0761
-28.2311
-28.3667
-28.4852
-28.5853
-28.667
-22.1856
-22.5554
-22.9132
-23.2568
-23.5851
-23.8974
-24.1934
-24.4728
-24.7354
-24.981
-25.2096
-25.4212
-25.6156
-25.7928
-25.9528
-26.0955
-26.2208
-26.3289
-26.4204
-26.4946
-20.5393
-20.8881
-21.2253
-21.5488
-21.8573
-22.1502
-22.4273
-22.6884
-22.9333
-23.1621
-23.3746
-23.571
-23.7511
-23.915
-24.0626
-24.194
-24.309
-24.4078
-24.4909
-24.558
-19.0688
-19.3989
-19.7179
-20.0235
-20.3143
-20.5896
-20.8495
-21.0939
-21.3227
-21.536
-21.7338
-21.9163
-22.0834
-22.2351
-22.3715
-22.4924
-22.5981
-22.6885
-22.7634
-22.8238
-17.7469
-18.0606
-18.3639
-18.6537
-18.9284
-19.1878
-19.4319
-19.661
-19.875
-20.0742
-20.2587
-20.4285
-20.5838
-20.7244
-20.8506
-20.9621
-21.0591
-21.1416
-21.2093
-21.2636
-16.5523
-16.8516
-17.1415
-17.4172
-17.6773
-17.9221
-18.1518
-18.3668
-18.5673
-18.7535
-18.9258
-19.0841
-19.2286
-19.3592
-19.4761
-19.5791
-19.6684
-19.744
-19.8062
-19.854
-15.4677
-15.7549
-16.0333
-16.2965
-16.5432
-16.7743
-16.9906
-17.1925
-17.3804
-17.5548
-17.7158
-17.8636
-17.9983
-18.1199
-18.2284
-18.3238
-18.4061
-18.4754
-18.5316
-18.5746
-14.4785
-14.7572
-15.0265
-15.2779
-15.5117
-15.73
-15.9336
-16.1231
-16.2993
-16.4626
-16.6133
-16.7515
-16.8772
-16.9906
-17.0915
-17.18
-17.256
-17.3196
-17.3707
-17.4094
-13.5669
-13.8446
-14.1088
-14.3488
-14.5701
-14.7761
-14.9675
-15.1454
-15.3106
-15.4636
-15.6048
-15.7343
-15.8519
-15.9579
-16.052
-16.1342
-16.2046
-16.2631
-16.3097
-16.3445
-12.7125
-12.9944
-13.2599
-13.4907
-13.7001
-13.8945
-14.0748
-14.2422
-14.3977
-14.5418
-14.6749
-14.7968
-14.9077
-15.0074
-15.0959
-15.173
-15.2387
-15.2931
-15.3361
-15.3678
-11.9282
-12.2009
-12.4673
-12.6932
-12.8926
-13.0757
-13.2457
-13.4037
-13.5505
-13.6867
-13.8126
-13.9282
-14.0333
-14.1278
-14.2115
-14.2845
-14.3466
-14.3978
-14.4381
-14.4676
-11.3398
-11.59
-11.8173
-12.0333
-12.221
-12.3864
-12.54
-12.6838
-12.8174
-12.9412
-13.0556
-13.1605
-13.2558
-13.3411
-13.4165
-13.4819
-13.5371
-13.5821
-13.6169
-13.6413
-5.96259
-6.45248
-6.98952
-7.57068
-8.20243
-8.89216
-9.64759
-10.4782
-11.3961
-12.4171
-13.5616
-14.8564
-16.337
-18.0493
-20.0536
-22.4289
-25.2562
-28.5575
-32.5521
-38.5455
-6.23193
-6.73523
-7.28268
-7.87579
-8.52117
-9.22595
-9.99793
-10.8469
-11.7852
-12.8289
-13.9987
-15.3219
-16.8343
-18.5824
-20.6266
-23.0457
-25.9197
-29.2675
-33.3003
-39.3146
-6.50271
-7.01944
-7.57741
-8.18269
-8.84198
-9.56204
-10.3508
-11.2184
-12.1774
-13.2441
-14.4396
-15.7916
-17.3362
-19.1204
-21.2046
-23.6675
-26.5878
-29.981
-34.0502
-40.0809
-6.77445
-7.30454
-7.87312
-8.4908
-9.1642
-9.89976
-10.7056
-11.592
-12.5718
-13.6617
-14.8832
-16.2642
-17.8413
-19.6616
-21.7861
-24.2928
-27.2591
-30.6976
-34.8043
-40.856
-7.04671
-7.59008
-8.16935
-8.79962
-9.48734
-10.2386
-11.0616
-11.967
-12.9679
-14.0813
-15.3288
-16.7389
-18.3486
-20.2054
-22.3701
-24.9206
-27.9329
-31.4165
-35.5615
-41.6374
-7.31912
-7.87565
-8.46567
-9.10875
-9.81096
-10.5781
-11.4185
-12.343
-13.3651
-14.502
-15.7758
-17.2152
-18.8577
-20.7509
-22.9559
-25.5501
-28.6083
-32.1369
-36.3199
-42.421
-7.59136
-8.16089
-8.76171
-9.41777
-10.1347
-10.9177
-11.7756
-12.7195
-13.7629
-14.9235
-16.2236
-17.6925
-19.3677
-21.2974
-23.5428
-26.1807
-29.2844
-32.8577
-37.0779
-43.2044
-7.86319
-8.44551
-9.05715
-9.72636
-10.4581
-11.2572
-12.1327
-13.0959
-14.1608
-15.3451
-16.6716
-18.1699
-19.878
-21.8442
-24.1298
-26.8112
-29.9603
-33.5777
-37.8343
-43.9861
-8.13444
-8.7293
-9.35174
-10.0342
-10.7809
-11.5962
-12.4893
-13.4718
-14.5581
-15.7662
-17.1191
-18.6468
-20.3877
-22.3905
-24.7161
-27.4408
-30.6348
-34.2958
-38.588
-44.7648
-8.40509
-9.01218
-9.64533
-10.3412
-11.1028
-11.9343
-12.845
-13.8469
-14.9545
-16.1862
-17.5655
-19.1226
-20.8962
-22.9352
-25.3008
-28.0684
-31.3069
-35.0108
-39.3377
-45.5389
-8.67523
-9.29415
-9.93787
-10.6471
-11.4236
-12.2712
-13.1994
-14.2205
-15.3494
-16.6047
-18.0102
-19.5964
-21.4026
-23.4777
-25.8829
-28.693
-31.9753
-35.7215
-40.0819
-46.307
-8.94517
-9.57538
-10.2294
-10.9519
-11.7433
-12.6067
-13.5522
-14.5924
-15.7423
-17.0209
-18.4524
-20.0676
-21.9061
-24.017
-26.4614
-29.3135
-32.6391
-36.4267
-40.8194
-47.0676
-9.21538
-9.85618
-10.52
-11.2556
-12.0615
-12.9405
-13.903
-14.962
-16.1327
-17.4343
-18.8915
-20.5354
-22.4058
-24.5522
-27.0354
-29.9288
-33.2969
-37.1251
-41.5489
-47.8193
-9.48657
-10.1369
-10.8099
-11.5581
-12.3781
-13.2723
-14.2514
-15.3287
-16.5198
-17.8442
-19.3267
-20.999
-22.9009
-25.0823
-27.6037
-30.5379
-33.9476
-37.8156
-42.2691
-48.561
-9.75951
-10.418
-11.099
-11.8592
-12.6926
-13.6015
-14.5968
-15.692
-16.9031
-18.2498
-19.7573
-21.4574
-23.3904
-25.6063
-28.1653
-31.1395
-34.59
-38.4967
-42.9788
-49.2914
-10.0351
-10.6996
-11.3871
-12.1583
-13.0046
-13.9275
-14.9384
-16.0511
-17.2817
-18.6502
-20.1821
-21.9097
-23.8733
-26.123
-28.7189
-31.7323
-35.2228
-39.1674
-43.6768
-50.0096
-10.3132
-10.9805
-11.6728
-12.454
-13.3126
-14.2491
-15.2752
-16.4049
-17.6546
-19.0445
-20.6004
-22.3548
-24.3484
-26.6313
-29.2634
-32.3151
-35.8445
-39.8262
-44.3622
-50.7149
-10.593
-11.2582
-11.9534
-12.7446
-13.6155
-14.5653
-15.6062
-16.7525
-18.0208
-19.4317
-21.011
-22.7917
-24.8147
-27.1301
-29.7975
-32.8864
-36.4536
-40.4714
-45.0338
-51.4073
-10.8671
-11.5244
-12.2228
-13.0265
-13.9109
-14.8743
-15.9299
-17.0926
-18.3792
-19.8106
-21.4129
-23.2193
-25.2709
-27.6179
-30.3197
-33.4447
-37.0484
-41.1013
-45.6903
-52.0884
-11.1168
-11.7592
-12.4767
-13.301
-14.1996
-15.1759
-16.2458
-17.4246
-18.729
-20.1803
-21.8049
-23.6364
-25.7159
-28.0936
-30.8286
-33.9883
-37.6267
-41.7127
-46.3271
-52.7596
-1.56697
-1.82145
-2.17
-2.55979
-2.97947
-3.43445
-3.93106
-4.47527
-5.07459
-5.73933
-6.48345
-7.32598
-8.29304
-9.42065
-10.7596
-12.384
-14.3833
-16.8182
-19.9963
-25.393
-1.71933
-1.99014
-2.35698
-2.75258
-3.17559
-3.63581
-4.13923
-4.69141
-5.30003
-5.97564
-6.73248
-7.58989
-8.57445
-9.72267
-11.0859
-12.7388
-14.7708
-17.2409
-20.451
-25.8613
-1.86582
-2.16062
-2.54052
-2.94417
-3.37483
-3.84334
-4.3556
-4.91735
-5.53665
-6.22437
-6.99509
-7.86855
-8.87176
-10.0418
-11.4305
-13.1129
-15.1782
-17.6835
-20.9249
-26.3436
-2.03443
-2.34001
-2.72804
-3.14033
-3.58011
-4.05807
-4.58026
-5.15272
-5.78381
-6.48473
-7.27039
-8.16093
-9.18385
-10.3767
-11.7919
-13.5048
-15.6045
-18.1463
-21.4222
-26.8583
-2.21431
-2.52692
-2.92272
-3.34389
-3.79308
-4.28093
-4.8137
-5.39766
-6.04142
-6.75645
-7.55801
-8.46662
-9.51024
-10.727
-12.1698
-13.9143
-16.0494
-18.6292
-21.9423
-27.4024
-2.39963
-2.72079
-3.12485
-3.55507
-4.01394
-4.51214
-5.05608
-5.65223
-6.30942
-7.0394
-7.85772
-8.78533
-9.85064
-11.0923
-12.5637
-14.3411
-16.513
-19.1319
-22.4835
-27.9704
-2.59193
-2.92253
-3.33476
-3.77403
-4.24286
-4.75184
-5.30748
-5.91642
-6.58772
-7.33338
-8.16929
-9.11677
-10.2047
-11.4723
-12.9735
-14.7848
-16.9946
-19.6538
-23.0446
-28.5601
-2.7926
-3.1326
-3.55279
-4.00111
-4.4801
-5.00017
-5.56792
-6.19017
-6.87618
-7.6382
-8.49245
-9.46064
-10.5721
-11.8666
-13.3986
-15.2449
-17.4937
-20.1942
-23.6251
-29.1703
-3.00143
-3.35089
-3.779
-4.2364
-4.72571
-5.25715
-5.83738
-6.47339
-7.17464
-7.95365
-8.82693
-9.8166
-10.9525
-12.2748
-13.8385
-15.7209
-18.0097
-20.7525
-24.2243
-29.8001
-3.21782
-3.57704
-4.01317
-4.47976
-4.97957
-5.52264
-6.11569
-6.76588
-7.48288
-8.27944
-9.17241
-10.1843
-11.3454
-12.6963
-14.2928
-16.2122
-18.5421
-21.3281
-24.8412
-30.4484
-3.44135
-3.81073
-4.25501
-4.73091
-5.24143
-5.79639
-6.40259
-7.06737
-7.80059
-8.61526
-9.52853
-10.5633
-11.7503
-13.1308
-14.7609
-16.7183
-19.0901
-21.9201
-25.4752
-31.114
-3.67163
-4.05155
-4.50414
-4.98951
-5.51095
-6.07808
-6.69777
-7.37753
-8.12742
-8.96071
-9.89487
-10.9532
-12.1669
-13.5777
-15.2423
-17.2384
-19.653
-22.5278
-26.1252
-31.796
-3.90819
-4.29902
-4.76011
-5.25514
-5.78775
-6.36733
-7.00083
-7.69594
-8.46294
-9.31536
-10.271
-11.3535
-12.5946
-14.0365
-15.7362
-17.7721
-20.2301
-23.1504
-26.7906
-32.4933
-4.15053
-4.55264
-5.02243
-5.52734
-6.07136
-6.66369
-7.31132
-8.02216
-8.8067
-9.67872
-10.6563
-11.7636
-13.0327
-14.5064
-16.2422
-18.3184
-20.8208
-23.7871
-27.4703
-33.2052
-4.39809
-4.81185
-5.29057
-5.80558
-6.36129
-6.96665
-7.62875
-8.35568
-9.15817
-10.0503
-11.0504
-12.183
-13.4808
-14.987
-16.7594
-18.8768
-21.4241
-24.437
-28.1636
-33.9307
-4.65032
-5.07608
-5.56395
-6.08933
-6.657
-7.27569
-7.95258
-8.69597
-9.5168
-10.4294
-11.4525
-12.6111
-13.9381
-15.4773
-17.2872
-19.4463
-22.0392
-25.0993
-28.8696
-34.6691
-4.90668
-5.34475
-5.84201
-6.37801
-6.95793
-7.59026
-8.28225
-9.04244
-9.88201
-10.8155
-11.8621
-13.0471
-14.4039
-15.9769
-17.8247
-20.0262
-22.6653
-25.773
-29.5876
-35.4197
-5.16662
-5.61729
-6.12418
-6.67107
-7.26352
-7.90978
-8.61719
-9.39452
-10.2532
-11.2081
-12.2786
-13.4904
-14.8775
-16.4847
-18.3711
-20.6155
-23.3013
-26.4572
-30.3166
-36.1823
-5.42959
-5.89312
-6.40985
-6.9679
-7.57318
-8.23366
-8.9568
-9.75159
-10.6297
-11.6063
-12.7011
-13.9402
-15.3581
-17
-18.9254
-21.2133
-23.9461
-27.1505
-31.0557
-36.9575
-5.69508
-6.17171
-6.6985
-7.26799
-7.88637
-8.56135
-9.3005
-10.1131
-11.011
-12.0096
-13.1291
-14.396
-15.8451
-17.5221
-19.4868
-21.8184
-24.5985
-27.8513
-31.802
-37.746
-1.32013
-1.11466
-0.961959
-0.826271
-0.707197
-0.60219
-0.510141
-0.430256
-0.362034
-0.305119
-0.259243
-0.224198
-0.199809
-0.185931
-0.182415
-0.189063
-0.205698
-0.232483
-0.269412
-0.316432
-1.65042
-1.46815
-1.31149
-1.17061
-1.04675
-0.937314
-0.841337
-0.758015
-0.686835
-0.62742
-0.579489
-0.542819
-0.517226
-0.502552
-0.498648
-0.505348
-0.522515
-0.550156
-0.588242
-0.636722
-1.98374
-1.80934
-1.65272
-1.51072
-1.38475
-1.27316
-1.17525
-1.09034
-1.01794
-0.95771
-0.909363
-0.872677
-0.847468
-0.833573
-0.830841
-0.839125
-0.858311
-0.888357
-0.929191
-0.98078
-2.36841
-2.1924
-2.03278
-1.88786
-1.75835
-1.64328
-1.54219
-1.45452
-1.37984
-1.31784
-1.26822
-1.23077
-1.20529
-1.19161
-1.18959
-1.19907
-1.21993
-1.25211
-1.29551
-1.35007
-2.78829
-2.60988
-2.44636
-2.29754
-2.16386
-2.04478
-1.93999
-1.84905
-1.77163
-1.7074
-1.65611
-1.61754
-1.59149
-1.57779
-1.57628
-1.58681
-1.60926
-1.64352
-1.68947
-1.74708
-3.241
-3.05944
-2.89181
-2.73872
-2.60063
-2.47734
-2.36865
-2.27426
-2.19389
-2.12727
-2.07416
-2.03434
-2.00763
-1.99385
-1.99283
-2.00443
-2.02851
-2.06495
-2.1136
-2.1744
-3.73275
-3.54655
-3.37407
-3.21612
-3.07319
-2.9453
-2.83237
-2.7342
-2.65058
-2.58129
-2.5261
-2.48483
-2.45728
-2.44329
-2.44268
-2.4553
-2.48102
-2.51968
-2.57114
-2.63536
-4.27037
-4.07804
-3.89965
-3.73597
-3.58751
-3.45441
-3.33669
-3.23424
-3.14691
-3.07452
-3.01688
-2.97381
-2.94514
-2.93068
-2.93029
-2.94381
-2.97108
-3.01194
-3.06625
-3.13396
-4.86158
-4.66168
-4.47615
-4.30568
-4.15078
-4.01167
-3.88843
-3.78103
-3.68937
-3.61332
-3.55271
-3.50738
-3.47717
-3.46191
-3.46145
-3.47562
-3.50426
-3.54722
-3.60433
-3.67556
-5.51655
-5.30752
-5.11344
-4.93491
-4.77243
-4.62628
-4.49658
-4.38337
-4.28658
-4.20611
-4.14185
-4.09364
-4.06134
-4.04478
-4.0438
-4.05826
-4.08799
-4.1328
-4.19254
-4.26721
-6.24904
-6.0291
-5.82478
-5.63665
-5.46519
-5.31069
-5.17333
-5.05317
-4.95019
-4.86435
-4.79552
-4.74359
-4.70843
-4.68986
-4.68776
-4.70195
-4.73228
-4.77855
-4.8406
-4.91846
-7.07778
-6.84481
-6.62827
-6.42865
-6.24644
-6.08194
-5.93537
-5.80681
-5.69629
-5.60377
-5.52918
-5.47241
-5.43334
-5.41181
-5.4077
-5.42083
-5.45104
-5.49812
-5.5619
-5.64248
-8.02852
-7.77998
-7.54879
-7.33536
-7.14019
-6.96361
-6.80585
-6.66702
-6.54719
-6.44632
-6.36438
-6.30128
-6.25689
-6.23108
-6.22372
-6.23465
-6.26369
-6.31062
-6.37526
-6.45776
-9.13673
-8.86957
-8.62074
-8.39064
-8.17978
-7.98851
-7.81705
-7.66557
-7.53414
-7.42276
-7.3314
-7.25998
-7.2084
-7.17654
-7.16425
-7.1714
-7.19778
-7.24316
-7.30736
-7.39056
-10.4526
-10.1631
-9.89306
-9.64278
-9.41285
-9.20362
-9.01536
-8.84822
-8.7023
-8.57762
-8.47417
-8.39187
-8.33064
-8.29036
-8.2709
-8.2721
-8.29378
-8.33565
-8.39752
-8.47964
-12.0496
-11.7335
-11.4378
-11.1632
-10.9102
-10.6791
-10.4702
-10.2838
-10.1198
-9.97839
-9.85949
-9.76308
-9.68905
-9.63731
-9.60772
-9.60014
-9.61436
-9.65009
-9.7071
-9.78564
-14.0167
-13.6692
-13.3433
-13.0398
-12.7593
-12.5021
-12.2685
-12.0587
-11.8728
-11.7109
-11.5728
-11.4586
-11.3683
-11.3017
-11.2586
-11.239
-11.2427
-11.2694
-11.3187
-11.3908
-16.4151
-16.0322
-15.6721
-15.3358
-15.0239
-14.737
-14.4752
-14.2387
-14.0275
-13.8417
-13.6813
-13.5462
-13.4364
-13.3519
-13.2925
-13.2581
-13.2486
-13.2638
-13.3034
-13.3665
-19.5548
-19.1323
-18.7335
-18.3609
-18.0148
-17.6954
-17.4025
-17.1361
-16.8964
-16.6831
-16.4965
-16.3364
-16.2028
-16.0957
-16.0149
-15.9603
-15.9319
-15.9299
-15.9542
-16.0026
-24.8936
-24.4263
-23.9932
-23.5913
-23.2185
-22.8739
-22.5569
-22.2674
-22.0055
-21.771
-21.5642
-21.3849
-21.2333
-21.1095
-21.0135
-20.9455
-20.9061
-20.8975
-20.9213
-20.967
-0.373376
-0.439933
-0.516063
-0.601682
-0.696703
-0.801017
-0.91449
-1.03696
-1.1682
-1.30795
-1.45584
-1.61133
-1.77363
-1.94153
-2.11337
-2.28689
-2.4576
-2.61573
-2.74589
-2.87427
-0.695536
-0.764352
-0.843098
-0.931663
-1.02994
-1.13779
-1.25507
-1.38159
-1.51711
-1.66132
-1.8138
-1.97401
-2.14118
-2.31414
-2.49128
-2.67096
-2.85141
-3.02489
-3.17617
-3.34686
-1.04305
-1.11569
-1.19863
-1.29173
-1.39488
-1.50791
-1.63067
-1.76294
-1.90445
-2.05488
-2.2138
-2.38064
-2.55467
-2.73486
-2.91985
-3.10844
-3.29968
-3.48919
-3.67119
-3.87554
-1.41575
-1.49222
-1.5794
-1.67715
-1.78531
-1.90372
-2.0322
-2.17051
-2.31836
-2.47541
-2.64122
-2.81523
-2.99675
-3.18485
-3.37849
-3.57677
-3.7789
-3.98257
-4.18823
-4.41622
-1.81627
-1.89673
-1.98835
-2.09098
-2.20445
-2.32858
-2.46316
-2.60795
-2.76264
-2.92687
-3.10021
-3.28213
-3.47197
-3.66895
-3.87226
-4.08129
-4.29542
-4.51361
-4.73848
-4.98317
-2.24741
-2.33215
-2.42855
-2.53644
-2.65566
-2.78599
-2.92722
-3.07909
-3.24129
-3.41346
-3.59516
-3.78591
-3.9851
-4.1921
-4.40629
-4.62723
-4.85456
-5.08804
-5.33041
-5.58952
-2.71236
-2.80162
-2.90313
-3.01666
-3.14206
-3.27909
-3.42754
-3.58713
-3.75756
-3.93845
-4.12942
-4.32998
-4.53962
-4.7578
-4.98405
-5.21808
-5.45967
-5.70902
-5.96836
-6.24212
-3.21507
-3.30914
-3.41603
-3.53556
-3.66755
-3.81178
-3.968
-4.13596
-4.31534
-4.50578
-4.70692
-4.9183
-5.13949
-5.37002
-5.60952
-5.85777
-6.11468
-6.38056
-6.65701
-6.94647
-3.76093
-3.85992
-3.97241
-4.09823
-4.23718
-4.38906
-4.5536
-4.73055
-4.91959
-5.12039
-5.3326
-5.5558
-5.78961
-6.03363
-6.28755
-6.55118
-6.82447
-7.10771
-7.40191
-7.70843
-4.35683
-4.46075
-4.57905
-4.71135
-4.85756
-5.01746
-5.1908
-5.37729
-5.57665
-5.78856
-6.01268
-6.24864
-6.49609
-6.75468
-7.02413
-7.30427
-7.59505
-7.89661
-8.20954
-8.53463
-5.01217
-5.12098
-5.24491
-5.38388
-5.53751
-5.70567
-5.88814
-6.08462
-6.29484
-6.51849
-6.75526
-7.00481
-7.26682
-7.54095
-7.82697
-8.12469
-8.434
-8.75494
-9.08775
-9.43293
-5.7399
-5.85329
-5.98273
-6.12805
-6.28911
-6.46559
-6.65733
-6.86406
-7.0855
-7.32134
-7.57131
-7.83511
-8.11241
-8.40291
-8.70637
-9.0226
-9.35143
-9.69275
-10.0466
-10.4133
-6.55819
-6.67553
-6.80997
-6.96122
-7.1292
-7.31396
-7.51495
-7.73179
-7.96444
-8.21264
-8.4761
-8.75452
-9.04758
-9.35501
-9.67656
-10.012
-10.3611
-10.7237
-11.0996
-11.4891
-7.49288
-7.61311
-7.75158
-7.90801
-8.08218
-8.27414
-8.48465
-8.7107
-8.9542
-9.21447
-9.49124
-9.78423
-10.0931
-10.4177
-10.7576
-11.1127
-11.4826
-11.867
-12.2656
-12.6788
-8.58215
-8.70357
-8.84447
-9.00463
-9.18387
-9.3817
-9.59755
-9.83402
-10.0881
-10.3595
-10.6488
-10.9559
-11.2803
-11.6218
-11.9799
-12.3545
-12.7451
-13.1514
-13.573
-14.0103
-9.88584
-10.0059
-10.1468
-10.3084
-10.4906
-10.6929
-10.9149
-11.1566
-11.4184
-11.7006
-12.0017
-12.322
-12.6612
-13.0184
-13.3934
-13.7863
-14.1969
-14.6244
-15.0685
-15.5293
-11.4854
-11.601
-11.739
-11.8994
-12.0818
-12.2858
-12.5113
-12.7581
-13.026
-13.3152
-13.6264
-13.9584
-14.3094
-14.6787
-15.0675
-15.4763
-15.9048
-16.3519
-16.8169
-17.2994
-13.4512
-13.5593
-13.6915
-13.8473
-14.0254
-14.2265
-14.4505
-14.6975
-14.967
-15.2585
-15.5714
-15.906
-16.2639
-16.6457
-17.0496
-17.4743
-17.9193
-18.3844
-18.8686
-19.3708
-16.0732
-16.1653
-16.2812
-16.4225
-16.5906
-16.7845
-17.0035
-17.247
-17.5149
-17.8067
-18.1218
-18.4599
-18.8213
-19.2065
-19.6154
-20.0473
-20.5021
-20.9805
-21.4823
-22.0026
-21.0093
-21.0819
-21.1852
-21.317
-21.4761
-21.6618
-21.8736
-22.111
-22.3737
-22.6614
-22.974
-23.3112
-23.6734
-24.0607
-24.4733
-24.9111
-25.3752
-25.8696
-26.3968
-26.9389
-27.4518
-22.5333
-19.8907
-17.7998
-16.0068
-14.463
-13.1065
-11.8921
-10.7928
-9.79037
-8.87179
-8.02726
-7.2491
-6.53104
-5.86784
-5.2549
-4.68692
-4.15827
-3.67741
-3.27312
-27.9923
-23.0801
-20.4261
-18.315
-16.4983
-14.9291
-13.5466
-12.307
-11.1835
-10.1586
-9.21936
-8.35627
-7.56176
-6.82969
-6.15499
-5.53316
-4.95943
-4.43137
-3.96206
-3.55976
-28.5613
-23.6456
-20.9784
-18.8462
-17.0045
-15.4086
-13.9992
-12.7333
-11.5849
-10.5368
-9.57642
-8.69428
-7.88292
-7.13622
-6.44907
-5.8169
-5.23504
-4.70116
-4.2248
-3.80309
-29.1545
-24.2304
-21.5479
-19.3929
-17.5247
-15.9008
-14.4634
-13.1703
-11.9962
-10.9241
-9.94188
-9.03997
-8.21091
-7.44848
-6.74736
-6.1027
-5.50959
-4.96505
-4.47578
-4.03543
-29.7687
-24.8339
-22.1337
-19.9547
-18.0584
-16.4052
-14.9386
-13.6173
-12.4165
-11.3198
-10.3149
-9.39247
-8.54493
-7.76586
-7.04972
-6.39134
-5.7855
-5.22866
-4.72569
-4.2693
-30.4025
-25.4566
-22.7342
-20.5305
-18.6048
-16.9209
-15.424
-14.0735
-12.8452
-11.723
-10.6948
-9.75114
-8.88442
-8.08802
-7.35611
-6.68329
-6.0641
-5.49464
-4.97848
-4.50809
-31.0548
-26.097
-23.3487
-21.1194
-19.1631
-17.4472
-15.9188
-14.5382
-13.2816
-12.1331
-11.0809
-10.1155
-9.22906
-8.41485
-7.6668
-6.97925
-6.34659
-5.7647
-5.23606
-4.75308
-31.7241
-26.7533
-23.9772
-21.7206
-19.7323
-17.9833
-16.4224
-15.0106
-13.7248
-12.5495
-11.4727
-10.4851
-9.57856
-8.74624
-7.98183
-7.27948
-6.63344
-6.0394
-5.49885
-5.00419
-32.4094
-27.4238
-24.6189
-22.3332
-20.3117
-18.5283
-16.9338
-15.49
-14.1744
-12.9715
-11.8697
-10.8594
-9.93258
-9.08198
-8.30113
-7.58398
-6.92469
-6.31874
-5.76669
-5.26094
-33.1091
-28.1075
-25.2728
-22.9563
-20.9002
-19.0814
-17.4523
-15.9757
-14.6295
-13.3986
-12.2713
-11.2381
-10.2907
-9.42171
-8.62439
-7.89251
-7.22007
-6.60237
-6.03907
-5.52261
-33.8223
-28.8033
-25.9377
-23.5889
-21.4971
-19.6416
-17.9769
-16.4668
-15.0894
-13.83
-12.677
-11.6206
-10.6525
-9.76501
-8.95121
-8.20463
-7.51912
-6.88977
-6.31536
-5.7884
-34.5477
-29.51
-26.6126
-24.2301
-22.1011
-20.208
-18.507
-16.9625
-15.5534
-14.2651
-13.086
-12.0063
-11.0173
-10.1113
-9.28106
-8.51981
-7.82128
-7.1803
-6.59485
-6.05754
-35.2843
-30.2265
-27.2963
-24.8787
-22.7114
-20.7796
-19.0414
-17.4619
-16.0206
-14.703
-13.4976
-12.3945
-11.3846
-10.4601
-9.61335
-8.83746
-8.12592
-7.47331
-6.87684
-6.32927
-36.031
-30.9517
-27.9876
-25.5336
-23.3269
-21.3555
-19.5792
-17.9642
-16.4902
-15.1431
-13.9113
-12.7845
-11.7537
-10.8106
-9.94745
-9.15694
-8.43239
-7.76813
-7.16061
-6.60286
-36.7866
-31.6844
-28.6854
-26.1937
-23.9464
-21.9345
-20.1195
-18.4684
-16.9615
-15.5846
-14.3261
-13.1757
-12.124
-11.1623
-10.2827
-9.47759
-8.74004
-8.06409
-7.4455
-6.87763
-37.55
-32.4231
-29.3882
-26.8576
-24.5688
-22.5156
-20.6613
-18.9737
-17.4334
-16.0266
-14.7413
-13.5672
-12.4946
-11.5145
-10.6185
-9.79876
-9.04821
-8.36055
-7.73086
-7.15294
-38.3208
-33.1669
-30.0949
-27.5243
-25.1929
-23.0976
-21.2034
-19.4789
-17.9051
-16.4682
-15.1562
-13.9585
-12.865
-11.8664
-10.954
-10.1198
-9.35628
-8.65687
-8.01607
-7.4282
-39.1002
-33.9152
-30.8039
-28.192
-25.8172
-23.6792
-21.7447
-19.983
-18.3755
-16.9085
-15.5698
-14.3485
-13.2343
-12.2174
-11.2888
-10.4401
-9.66359
-8.95245
-8.30054
-7.70285
-39.8886
-34.6668
-31.5133
-28.859
-26.4403
-24.2593
-22.2841
-20.4851
-18.8439
-17.3468
-15.9815
-14.7367
-13.6018
-12.5667
-11.6219
-10.7589
-9.96954
-9.24668
-8.58369
-7.97637
-40.6733
-35.4168
-32.2215
-29.5245
-27.0618
-24.8373
-22.8213
-20.9847
-19.3097
-17.7826
-16.3907
-15.1226
-13.9672
-12.914
-11.9532
-11.0758
-10.2737
-9.53913
-8.86509
-8.24831
-6.73201
-4.63718
-3.2859
-2.2481
-1.51996
-0.985436
-0.6018
-0.329569
-0.140638
-0.0134167
0.0685545
0.117813
0.143816
0.153671
0.152623
0.14451
0.132116
0.117421
0.101822
0.0862748
0.0714194
0.0576632
0.0452391
0.0342674
0.0247661
0.0167189
0.0100278
0.00463611
0.000365841
-0.002799
-0.00513899
-0.0065262
-0.00744419
-0.00744823
-0.00743905
-0.00635248
-0.00587088
-0.00383251
-0.00323369
-8.95568e-05
-6.9863
-4.81857
-3.43149
-2.36275
-1.61064
-1.05879
-0.661642
-0.379011
-0.181868
-0.048049
0.0393215
0.0930638
0.122833
0.135876
0.137546
0.131758
0.121354
0.108367
0.0942281
0.0799321
0.0661425
0.053294