/*--------------------------------*- C++ -*----------------------------------*\
| =========                 |                                                 |
| \\      /  F ield         | OpenFOAM: The Open Source CFD Toolbox           |
|  \\    /   O peration     | Version:  v1912                                 |
|   \\  /    A nd           | Website:  www.openfoam.com                      |
|    \\/     M anipulation  |                                                 |
\*---------------------------------------------------------------------------*/
FoamFile
{
    version     2.0;
    format      ascii;
    class       volVectorField;
    location    "32.5";
    object      U;
}
// * * * * * * * * * * * * * * * * * * * * * * * * * * * * * * * * * * * * * //

dimensions      [0 1 -1 0 0 0 0];


internalField   nonuniform List<vector> 
9600
(
(0.456617 -9.36413 -1.53933e-19)
(0.159585 -8.63675 0)
(0.241351 -8.16406 -9.03443e-20)
(0.319538 -7.84419 0)
(0.386279 -7.60789 0)
(0.454114 -7.41189 -3.17615e-20)
(0.519083 -7.23229 -5.44893e-22)
(0.578066 -7.05694 2.65343e-20)
(0.630298 -6.88053 0)
(0.67581 -6.70163 -4.49778e-20)
(0.714991 -6.52087 0)
(0.748461 -6.33979 -1.8256e-21)
(0.776953 -6.16017 -2.60366e-21)
(0.801217 -5.98369 -3.14055e-20)
(0.821973 -5.81174 2.6475e-20)
(0.839869 -5.64528 -2.60109e-20)
(0.855452 -5.48476 2.31516e-20)
(0.869266 -5.33011 0)
(0.882089 -5.18056 -1.84075e-20)
(0.893644 -5.03458 2.01822e-20)
(0.824637 -9.35361 -3.07913e-19)
(0.50219 -8.66453 1.17647e-20)
(0.567154 -8.20793 1.86105e-19)
(0.63381 -7.8975 -1.58554e-19)
(0.691503 -7.66577 1.56365e-19)
(0.751257 -7.47026 0)
(0.808315 -7.28838 6.05699e-20)
(0.859221 -7.10906 -6.04237e-20)
(0.903135 -6.9278 -1.04779e-19)
(0.940145 -6.74375 1.32472e-19)
(0.970751 -6.55794 -8.60051e-20)
(0.995695 -6.37214 -3.50927e-20)
(1.01582 -6.18829 7.08443e-20)
(1.03197 -6.00816 0)
(1.04492 -5.83313 0)
(1.05535 -5.66415 9.92232e-20)
(1.06384 -5.50167 -1.68222e-19)
(1.07092 -5.34553 0)
(1.07747 -5.19485 0)
(1.08295 -5.04802 -7.77192e-20)
(1.19299 -9.32955 6.36174e-19)
(0.847042 -8.67944 0)
(0.89648 -8.23913 -3.76479e-19)
(0.952338 -7.93823 -3.41157e-19)
(1.00128 -7.71105 0)
(1.05294 -7.51601 5.44928e-19)
(1.10186 -7.33186 -5.14398e-19)
(1.14434 -7.14868 1.00795e-19)
(1.17953 -6.96277 -2.24403e-19)
(1.20763 -6.77385 -3.73051e-19)
(1.22926 -6.58332 5.09138e-19)
(1.24533 -6.3932 -3.14742e-19)
(1.25678 -6.20555 -1.4102e-19)
(1.26455 -6.02218 0)
(1.26948 -5.84449 5.50995e-21)
(1.27229 -5.67342 1.04599e-19)
(1.27355 -5.50937 4.51966e-20)
(1.27383 -5.35214 0)
(1.27405 -5.20073 8.19202e-20)
(1.27334 -5.05346 8.39625e-20)
(1.56057 -9.29158 -8.60595e-19)
(1.19355 -8.68121 -4.03127e-19)
(1.22877 -8.25744 3.91047e-19)
(1.27456 -7.96609 6.71712e-19)
(1.31504 -7.74339 -3.25992e-19)
(1.35856 -7.54876 5.76197e-21)
(1.39909 -7.36239 2.53001e-19)
(1.4328 -7.17549 2.29108e-19)
(1.45887 -6.98517 4.19505e-19)
(1.47765 -6.79171 0)
(1.48995 -6.59685 1.61506e-19)
(1.49681 -6.40283 -1.71436e-19)
(1.49931 -6.21182 1.03329e-20)
(1.49847 -6.02566 2.70116e-19)
(1.4952 -5.84576 2.31481e-19)
(1.49026 -5.67302 -3.26747e-19)
(1.4842 -5.50782 1.07605e-19)
(1.47761 -5.3499 -1.75138e-19)
(1.47148 -5.19815 1.74311e-19)
(1.46453 -5.05086 -8.40054e-20)
(1.92706 -9.23963 4.34e-19)
(1.54142 -8.66968 0)
(1.56362 -8.2626 3.83932e-19)
(1.59997 -7.98073 0)
(1.63223 -7.76242 0)
(1.66752 -7.56817 -2.99521e-19)
(1.69941 -7.37964 -5.35747e-19)
(1.72398 -7.1892 -4.54084e-19)
(1.74054 -6.99476 1.84338e-20)
(1.74963 -6.7971 -1.96155e-19)
(1.75224 -6.59834 0)
(1.74958 -6.40088 -1.61909e-19)
(1.74288 -6.20699 -2.91615e-19)
(1.73323 -6.01851 2.56377e-19)
(1.72162 -5.83685 -7.28544e-19)
(1.7088 -5.66288 1.17903e-19)
(1.69535 -5.49695 9.34036e-20)
(1.68188 -5.33875 -1.92619e-19)
(1.66941 -5.18704 -8.41416e-20)
(1.65617 -5.04017 2.50893e-19)
(2.29193 -9.17363 4.18684e-19)
(1.89016 -8.64463 4.15055e-19)
(1.90052 -8.25431 0)
(1.92801 -7.98184 0)
(1.95223 -7.76782 -6.22625e-19)
(1.9792 -7.57392 3.40393e-19)
(2.00217 -7.38333 8.1874e-19)
(2.01724 -7.18957 0)
(2.02391 -6.99131 2.1626e-19)
(2.02293 -6.78988 1.96155e-19)
(2.01553 -6.58767 -3.46441e-19)
(2.00309 -6.38726 5.02383e-19)
(1.98696 -6.19098 1.47385e-19)
(1.96834 -6.00068 0)
(1.94824 -5.81773 1.22647e-19)
(1.92748 -5.64298 5.50419e-19)
(1.90659 -5.47674 -3.27982e-19)
(1.88623 -5.31865 3.68419e-19)
(1.86746 -5.16738 -7.00527e-19)
(1.84794 -5.02138 8.09863e-19)
(2.65465 -9.09355 4.25783e-19)
(2.23927 -8.60585 -2.25434e-18)
(2.23892 -8.23233 0)
(2.2581 -7.96912 0)
(2.27443 -7.75927 0)
(2.29296 -7.56573 -6.03863e-19)
(2.30671 -7.37321 0)
(2.31192 -7.17638 -9.67468e-19)
(2.30832 -6.97468 8.92279e-19)
(2.29694 -6.7699 -8.28582e-19)
(2.27923 -6.56473 0)
(2.25675 -6.36189 0)
(2.231 -6.16374 0)
(2.20326 -5.97213 -2.80134e-19)
(2.1746 -5.78837 0)
(2.14582 -5.61329 0)
(2.11749 -5.44717 -4.10946e-19)
(2.09026 -5.28959 4.03767e-19)
(2.06523 -5.13915 0)
(2.03946 -4.99448 0)
(3.01467 -8.99938 -1.38522e-18)
(2.58819 -8.55319 8.97431e-19)
(2.57824 -8.1964 0)
(2.58962 -7.94229 0)
(2.59818 -7.73652 0)
(2.60811 -7.54335 5.74324e-19)
(2.61235 -7.34906 -5.76034e-19)
(2.60734 -7.14946 -8.83493e-21)
(2.59312 -6.94471 -8.93306e-19)
(2.57101 -6.73706 8.36357e-19)
(2.54271 -6.52946 -3.7721e-19)
(2.50999 -6.32473 6.55759e-19)
(2.47446 -6.12525 -4.63117e-20)
(2.43749 -5.93284 -5.93124e-19)
(2.40018 -5.74877 -4.99746e-19)
(2.36336 -5.57381 4.90985e-19)
(2.32757 -5.40823 0)
(2.29351 -5.25158 0)
(2.26232 -5.10236 3.55091e-19)
(2.23035 -4.95947 -3.90831e-19)
(3.37143 -8.89116 9.25823e-19)
(2.93635 -8.48651 8.81499e-19)
(2.9179 -8.14631 -1.67065e-18)
(2.92194 -7.90112 7.89071e-19)
(2.92281 -7.69933 0)
(2.92397 -7.50658 6.14566e-19)
(2.9184 -7.31072 -5.39344e-19)
(2.90283 -7.10867 1.5241e-18)
(2.87765 -6.90131 -2.36439e-20)
(2.84451 -6.69131 0)
(2.80538 -6.48182 7.61064e-19)
(2.76223 -6.27576 0)
(2.71679 -6.0755 0)
(2.6705 -5.88283 -2.71267e-19)
(2.6245 -5.69894 5.47164e-19)
(2.57961 -5.52457 0)
(2.53639 -5.35996 4.28995e-19)
(2.49556 -5.20463 1.78526e-19)
(2.45828 -5.05701 -3.87436e-19)
(2.42022 -4.91638 3.76175e-19)
(3.72438 -8.76896 -9.53457e-19)
(3.28317 -8.40569 8.95819e-19)
(3.25726 -8.08189 -2.55103e-18)
(3.2544 -7.8454 8.0211e-19)
(3.24763 -7.64749 0)
(3.23983 -7.45523 -1.24027e-18)
(3.22414 -7.25803 5.95792e-19)
(3.19767 -7.05392 0)
(3.16122 -6.84442 -4.72792e-19)
(3.11678 -6.63259 -8.19838e-19)
(3.06662 -6.42179 -7.14194e-19)
(3.01287 -6.21498 5.33379e-20)
(2.95741 -6.01452 6.6794e-19)
(2.90174 -5.82212 2.71045e-19)
(2.84703 -5.63892 -3.78428e-20)
(2.79409 -5.4656 -5.10371e-19)
(2.74346 -5.30239 -2.28228e-19)
(2.69593 -5.14878 -2.05731e-19)
(2.65268 -5.00315 5.48707e-19)
(2.60863 -4.86524 -8.17771e-19)
(4.07296 -8.63285 9.53459e-19)
(3.62805 -8.31068 -4.66037e-20)
(3.5957 -8.00299 8.19883e-19)
(3.58632 -7.77498 0)
(3.57193 -7.58085 -6.78538e-19)
(3.55497 -7.38919 1.30377e-18)
(3.52886 -7.19092 -1.11408e-18)
(3.49118 -6.98514 1.09633e-18)
(3.44316 -6.774 -4.44027e-19)
(3.38718 -6.56092 9.0147e-19)
(3.3258 -6.3494 3.90293e-19)
(3.26134 -6.14244 0)
(3.19579 -5.94235 0)
(3.1307 -5.75077 -2.81043e-19)
(3.06726 -5.56877 3.82569e-20)
(3.00628 -5.39695 1.00498e-18)
(2.9483 -5.23556 -2.48636e-19)
(2.89413 -5.08406 8.20949e-19)
(2.84501 -4.9408 1.43587e-19)
(2.79514 -4.80609 -8.35226e-19)
(4.41661 -8.48295 -2.93351e-18)
(3.97039 -8.20143 -9.8439e-19)
(3.93256 -7.90951 -2.6246e-18)
(3.91701 -7.68972 -1.59631e-18)
(3.895 -7.4993 -7.57086e-19)
(3.86867 -7.30835 -7.39932e-19)
(3.83185 -7.10931 -2.41461e-18)
(3.78265 -6.9023 -4.89618e-20)
(3.72279 -6.69006 -1.93948e-18)
(3.65507 -6.47631 3.01991e-20)
(3.58231 -6.26468 -8.04969e-19)
(3.50704 -6.05817 -7.33406e-19)
(3.43134 -5.85904 6.694e-19)
(3.35683 -5.66884 -6.12093e-19)
(3.28467 -5.48853 -5.60703e-19)
(3.21569 -5.31869 -5.14533e-19)
(3.15039 -5.15953 -1.38134e-18)
(3.08966 -5.01051 4.91504e-19)
(3.03479 -4.87 1.19242e-18)
(2.97926 -4.73896 -1.26917e-18)
(4.75478 -8.3194 3.94565e-18)
(4.3096 -8.07795 4.84582e-18)
(4.2672 -7.80138 8.32215e-19)
(4.24578 -7.58953 3.98684e-18)
(4.21611 -7.40276 -7.8129e-19)
(4.1802 -7.21267 3.90301e-18)
(4.13239 -7.0132 1.14144e-18)
(4.07138 -6.80543 3.20412e-18)
(3.99945 -6.59264 -9.79265e-19)
(3.9198 -6.37882 2.71092e-18)
(3.83554 -6.16769 1.6214e-18)
(3.74939 -5.96225 1.47741e-18)
(3.66353 -5.76467 -1.99988e-18)
(3.57959 -5.57638 1.87325e-18)
(3.49875 -5.39828 1.13005e-18)
(3.42179 -5.23087 1.03723e-18)
(3.34922 -5.07436 9.53642e-19)
(3.282 -4.92821 7.3323e-21)
(3.2215 -4.79081 8.09347e-19)
(3.16052 -4.6639 8.4231e-19)
(5.08695 -8.14235 -2.92983e-18)
(4.64508 -7.94027 1.07958e-18)
(4.59897 -7.67856 2.6699e-18)
(4.57192 -7.47436 -3.25234e-18)
(4.53454 -7.29118 7.51518e-19)
(4.48883 -7.10214 -2.61112e-18)
(4.42974 -6.9026 1.27965e-18)
(4.35667 -6.69457 -2.14382e-18)
(4.27247 -6.48181 4.89236e-20)
(4.18074 -6.26853 1.18795e-20)
(4.0849 -6.05853 -1.64375e-18)
(3.98784 -5.85476 -7.44001e-19)
(3.8918 -5.6593 1.36785e-18)
(3.79845 -5.47348 8.71533e-21)
(3.70895 -5.29808 -3.70772e-20)
(3.62405 -5.13355 -1.08264e-18)
(3.54425 -4.9801 -4.80688e-19)
(3.47059 -4.8372 -2.70472e-20)
(3.40456 -4.70327 -8.43562e-19)
(3.33835 -4.58103 -4.25382e-19)
(5.41262 -7.952 0)
(4.97624 -7.78845 -1.99462e-18)
(4.92719 -7.54104 2.35949e-20)
(4.89474 -7.34419 3.24751e-18)
(4.84956 -7.16458 1.35883e-18)
(4.79383 -6.9768 -1.41457e-18)
(4.72321 -6.77759 -1.21831e-18)
(4.63786 -6.5698 0)
(4.5412 -6.35766 -9.69373e-19)
(4.43728 -6.14556 9.25076e-19)
(4.32981 -5.93731 -3.89684e-20)
(4.22182 -5.7358 0)
(4.11563 -5.54303 -6.88601e-19)
(4.0129 -5.36019 5.96306e-19)
(3.91476 -5.18798 4.98032e-19)
(3.82193 -5.02677 -6.01445e-19)
(3.73489 -4.87676 -5.21665e-19)
(3.65478 -4.73745 9.05705e-19)
(3.58323 -4.60739 -8.35775e-19)
(3.51192 -4.49041 4.39928e-19)
(5.73132 -7.74852 3.02667e-18)
(5.30251 -7.62255 -2.05423e-18)
(5.25121 -7.38886 -1.75262e-18)
(5.21351 -7.19906 8.15834e-19)
(5.16044 -7.02301 -1.58281e-18)
(5.09447 -6.83673 0)
(5.01209 -6.63826 0)
(4.91425 -6.43127 0)
(4.80501 -6.22035 -4.43623e-20)
(4.68884 -6.01004 -1.85651e-18)
(4.56972 -5.80415 8.76737e-19)
(4.45082 -5.60549 7.41287e-19)
(4.33452 -5.41594 6.27118e-19)
(4.22245 -5.2366 -2.57367e-18)
(4.11571 -5.06802 1.22006e-18)
(4.01495 -4.91053 0)
(3.92063 -4.76431 -3.03208e-20)
(3.83395 -4.62891 -1.40482e-18)
(3.7567 -4.50306 -5.67489e-21)
(3.68026 -4.39169 -4.40411e-19)
(6.04269 -7.53218 -2.05877e-18)
(5.62334 -7.44271 -1.083e-18)
(5.57036 -7.22208 8.1558e-19)
(5.52753 -7.03903 -1.43808e-19)
(5.46645 -6.86655 -4.61349e-18)
(5.39002 -6.68204 4.17458e-18)
(5.29568 -6.48477 -4.87644e-20)
(5.18521 -6.27913 1.14301e-18)
(5.06328 -6.07004 1.02539e-18)
(4.93484 -5.86214 9.41389e-19)
(4.80409 -5.6592 8.56545e-19)
(4.67435 -5.46396 1.53052e-18)
(4.54801 -5.27815 -7.3664e-19)
(4.42668 -5.10276 1.90903e-18)
(4.3114 -4.93826 -1.23413e-18)
(4.20274 -4.78489 -5.10394e-19)
(4.10111 -4.64285 2.05011e-18)
(4.00778 -4.51169 1.36949e-18)
(3.9247 -4.39019 -2.78539e-20)
(3.84334 -4.2842 0)
(6.3467 -7.30349 -1.04674e-18)
(5.93833 -7.24912 2.06952e-18)
(5.88397 -7.04075 1.8113e-18)
(5.83605 -6.86415 -1.45773e-19)
(5.76684 -6.6953 -1.56527e-18)
(5.67976 -6.51287 7.05454e-20)
(5.57328 -6.31728 1.30975e-20)
(5.45005 -6.11358 1.16715e-20)
(5.31542 -5.90694 0)
(5.17473 -5.70205 9.20669e-19)
(5.03242 -5.50264 -1.75231e-18)
(4.89192 -5.31132 -7.49694e-19)
(4.75562 -5.12972 7.44249e-19)
(4.62508 -4.95871 -6.52912e-19)
(4.50128 -4.79868 6.04637e-19)
(4.38471 -4.64986 -5.50372e-19)
(4.27577 -4.51245 4.88173e-21)
(4.17586 -4.38583 -4.67482e-19)
(4.08722 -4.26873 -4.31809e-19)
(4.0017 -4.16878 -4.32092e-19)
(6.6437 -7.0629 0)
(6.24724 -7.0417 -1.0089e-18)
(6.19139 -6.8448 9.97317e-19)
(6.13832 -6.6745 1.73951e-18)
(6.06087 -6.50944 -1.57385e-18)
(5.96298 -6.32948 1.3593e-18)
(5.84422 -6.1361 -2.61354e-18)
(5.7082 -5.93493 -2.32044e-18)
(5.56089 -5.73135 -1.01208e-18)
(5.40803 -5.53006 4.43088e-20)
(5.25431 -5.3347 -8.37845e-19)
(5.10317 -5.14775 3.48245e-20)
(4.957 -4.97071 0)
(4.81727 -4.80434 -1.28068e-18)
(4.68479 -4.64901 6.53607e-19)
(4.55995 -4.50495 0)
(4.44323 -4.37228 -5.11719e-19)
(4.33618 -4.25016 -9.19905e-19)
(4.24108 -4.1382 9.03899e-19)
(4.15037 -4.04898 4.46164e-19)
(6.93329 -6.80964 0)
(6.54944 -6.81974 0)
(6.49191 -6.63416 -1.84964e-18)
(6.43359 -6.47036 -1.58995e-18)
(6.34783 -6.30936 3.22723e-18)
(6.23904 -6.13228 0)
(6.10794 -5.94165 0)
(5.95913 -5.74361 1.16575e-18)
(5.79923 -5.5437 0)
(5.6344 -5.34658 0)
(5.46947 -5.15575 0)
(5.30797 -4.97355 0)
(5.15218 -4.80131 0)
(5.00341 -4.63968 0)
(4.86222 -4.48892 0)
(4.72874 -4.3492 0)
(4.60322 -4.22038 0)
(4.48674 -4.1018 0)
(4.37943 -3.99653 0)
(4.27519 -3.92178 0)
(10.0414 0.0877227 1.46903e-19)
(10.0209 -0.307584 2.85806e-19)
(9.98519 -0.70022 -2.93558e-19)
(9.93475 -1.09004 5.853e-19)
(9.86932 -1.47671 -5.85299e-19)
(9.78876 -1.85972 -5.53029e-19)
(9.69319 -2.23854 -5.51489e-19)
(9.58281 -2.61262 1.73708e-18)
(9.45786 -2.9814 -1.15733e-18)
(9.3186 -3.34433 1.14765e-18)
(9.1653 -3.70088 -1.14766e-18)
(8.99827 -4.0505 1.1392e-18)
(8.81785 -4.39268 -2.25918e-18)
(8.62438 -4.72691 3.32682e-18)
(8.41823 -5.05271 0)
(8.19979 -5.36963 -3.26866e-18)
(7.96945 -5.67725 1.62478e-20)
(7.72774 -5.9752 3.29429e-18)
(7.47476 -6.26334 0)
(7.21218 -6.54098 0)
(10.1148 -0.210768 0)
(10.0736 -0.606669 -1.50285e-20)
(10.0157 -0.99878 0)
(9.94174 -1.38676 5.59891e-19)
(9.85189 -1.77019 5.83111e-19)
(9.74638 -2.14847 -1.68757e-18)
(9.6255 -2.52095 2.93836e-18)
(9.48961 -2.88703 -1.15991e-18)
(9.33908 -3.24609 -1.10558e-18)
(9.17431 -3.59757 -1.10107e-18)
(8.99569 -3.94088 4.45389e-20)
(8.80369 -4.27548 1.12828e-18)
(8.59874 -4.60085 -5.60892e-18)
(8.38135 -4.91649 -1.17649e-18)
(8.15199 -5.22195 2.24132e-18)
(7.91118 -5.51678 2.23846e-18)
(7.65939 -5.8006 1.13739e-18)
(7.3972 -6.07308 -2.19299e-18)
(7.1247 -6.33397 1.03845e-18)
(6.84285 -6.58291 0)
(10.064 -0.149374 1.32224e-19)
(10.0263 -0.540749 -2.70787e-19)
(9.97124 -0.928958 7.81919e-19)
(9.89921 -1.31331 -5.54014e-19)
(9.8106 -1.69315 -5.28189e-19)
(9.70577 -2.06777 5.51514e-19)
(9.58508 -2.43645 0)
(9.44893 -2.79849 0)
(9.29775 -3.15323 2.09398e-18)
(9.13198 -3.50002 3.12386e-18)
(8.9521 -3.83826 -9.87904e-19)
(8.75859 -4.16734 3.08903e-18)
(8.55198 -4.4867 -9.83755e-19)
(8.33281 -4.79582 -3.00876e-18)
(8.10161 -5.09418 1.35402e-20)
(7.85897 -5.38133 1.9312e-18)
(7.60541 -5.65683 -8.71528e-19)
(7.34153 -5.92027 -1.90006e-18)
(7.06766 -6.17127 -1.02653e-18)
(6.78454 -6.40934 1.86744e-18)
(9.89621 -0.11275 0)
(9.86528 -0.494838 2.28232e-19)
(9.8171 -0.874587 2.27289e-19)
(9.75186 -1.2511 -9.3384e-19)
(9.66987 -1.62358 0)
(9.57148 -1.99125 0)
(9.45705 -2.35335 0)
(9.32696 -2.70913 0)
(9.18161 -3.05788 -9.88332e-19)
(9.02145 -3.39891 -9.84587e-19)
(8.84696 -3.73156 0)
(8.65865 -4.05518 1.86141e-18)
(8.45703 -4.36916 -4.60212e-18)
(8.24266 -4.67294 3.70063e-18)
(8.01611 -4.96596 -3.58678e-18)
(7.77796 -5.24769 -8.70342e-19)
(7.52879 -5.51766 1.56261e-19)
(7.26921 -5.77538 1.54676e-19)
(6.99973 -6.02041 -1.77277e-18)
(6.7211 -6.25225 -7.0859e-20)
(9.64218 -0.0992931 0)
(9.61863 -0.469124 -2.25088e-19)
(9.57826 -0.837269 0)
(9.52114 -1.20283 4.50299e-19)
(9.4475 -1.56496 4.29219e-19)
(9.35764 -1.92288 3.9235e-19)
(9.25186 -2.27581 0)
(9.1305 -2.62299 0)
(8.99393 -2.96367 0)
(8.84257 -3.29714 0)
(8.67686 -3.6227 8.10558e-19)
(8.49728 -3.9397 8.73407e-19)
(8.30434 -4.24748 8.68459e-19)
(8.09858 -4.54544 -8.81716e-19)
(7.88054 -4.83297 -1.51707e-18)
(7.65081 -5.10953 1.7226e-18)
(7.40998 -5.37458 3.33969e-18)
(7.15867 -5.62759 1.62441e-18)
(6.89746 -5.86806 0)
(6.62704 -6.09551 -1.53085e-18)
(9.33463 -0.0904818 4.62505e-20)
(9.31801 -0.446126 0)
(9.2852 -0.800653 -7.57951e-19)
(9.23621 -1.15321 1.8533e-23)
(9.17118 -1.50298 1.61384e-20)
(9.09035 -1.84917 -6.839e-20)
(8.99399 -2.19101 0)
(8.88238 -2.52774 3.08689e-20)
(8.75584 -2.85863 -7.69479e-19)
(8.61474 -3.18294 1.49916e-18)
(8.45949 -3.49999 -1.56337e-18)
(8.29053 -3.80909 8.5423e-19)
(8.10832 -4.10959 -4.47671e-18)
(7.91337 -4.40085 2.95265e-18)
(7.70621 -4.68227 1.56537e-18)
(7.4874 -4.95325 0)
(7.25749 -5.21322 -2.8891e-18)
(7.01711 -5.46164 -6.14507e-20)
(6.76683 -5.69797 -2.84525e-18)
(6.50731 -5.9217 2.95754e-18)
(9.00198 -0.0856387 4.15876e-20)
(8.99098 -0.426281 -8.71278e-20)
(8.96452 -0.766272 7.14393e-19)
(8.92257 -1.10482 -1.40414e-20)
(8.86524 -1.44112 7.14245e-19)
(8.7927 -1.77443 -1.07881e-18)
(8.70517 -2.10398 0)
(8.6029 -2.42905 7.27277e-19)
(8.48616 -2.74891 6.65814e-19)
(8.35528 -3.06286 -7.23207e-19)
(8.21061 -3.37021 1.323e-18)
(8.05255 -3.67028 2.80511e-18)
(7.88152 -3.96242 -1.30439e-18)
(7.698 -4.24601 -1.41412e-18)
(7.50248 -4.52042 1.35602e-18)
(7.29548 -4.78505 0)
(7.07754 -5.03932 6.48033e-20)
(6.84924 -5.28266 9.7581e-21)
(6.61114 -5.51453 2.69548e-18)
(6.36387 -5.73437 1.25303e-18)
(8.66534 -0.0844113 0)
(8.65838 -0.410099 6.24234e-21)
(8.63674 -0.735481 -1.45327e-19)
(8.60036 -1.05981 -6.45505e-19)
(8.54931 -1.38234 6.06704e-19)
(8.48374 -1.70234 0)
(8.40382 -2.01911 1.2349e-18)
(8.30975 -2.33192 -1.35675e-21)
(8.20179 -2.64011 -1.88612e-18)
(8.0802 -2.94297 0)
(7.94531 -3.23986 -1.30194e-18)
(7.79747 -3.53011 4.59045e-20)
(7.63708 -3.81311 -3.65945e-18)
(7.46456 -4.08822 6.44376e-21)
(7.28037 -4.35483 1.22655e-18)
(7.085 -4.61236 0)
(6.87897 -4.86022 -1.2039e-18)
(6.66281 -5.09783 8.65684e-21)
(6.43709 -5.32464 1.19525e-18)
(6.20234 -5.54007 -1.23307e-18)
(8.3385 -0.0854406 0)
(8.33415 -0.396755 1.49011e-19)
(8.31588 -0.707995 3.09181e-19)
(8.28362 -1.01846 -5.72222e-19)
(8.23742 -1.32746 -2.46677e-20)
(8.17739 -1.63429 -2.85979e-19)
(8.10369 -1.93829 -1.14481e-18)
(8.01648 -2.23879 5.69152e-19)
(7.91599 -2.53513 2.37622e-20)
(7.80245 -2.82667 5.65747e-19)
(7.67615 -3.11278 5.20748e-19)
(7.53743 -3.39284 2.25551e-18)
(7.38663 -3.66623 1.12821e-18)
(7.22415 -3.93238 2.22834e-18)
(7.05042 -4.19068 -1.11125e-18)
(6.8659 -4.44056 3.85868e-20)
(6.67108 -4.68145 -1.09814e-18)
(6.46648 -4.91277 0)
(6.25263 -5.13397 1.03797e-18)
(6.03004 -5.34444 0)
(8.02933 -0.0876071 6.48646e-20)
(8.02644 -0.385417 -1.89962e-19)
(8.01034 -0.683294 5.21055e-19)
(7.98097 -0.980583 -2.59942e-19)
(7.93835 -1.27663 1.8935e-20)
(7.88258 -1.57079 -2.59788e-19)
(7.8138 -1.86242 5.4012e-19)
(7.73216 -2.1509 -5.16887e-19)
(7.63784 -2.43561 5.16885e-19)
(7.53107 -2.71595 9.91296e-19)
(7.41211 -2.99132 -1.06831e-18)
(7.28125 -3.26113 -4.49923e-20)
(7.13884 -3.52482 -3.09217e-18)
(6.98523 -3.78181 5.35486e-21)
(6.82084 -4.03156 4.01736e-20)
(6.6461 -4.2735 2.00456e-18)
(6.4615 -4.50709 -9.90182e-19)
(6.26752 -4.73176 -9.43106e-19)
(6.06469 -4.94696 -3.73766e-20)
(5.85347 -5.15207 0)
(7.74141 -0.0901691 0)
(7.73915 -0.375465 2.41291e-19)
(7.72432 -0.6609 -8.29625e-19)
(7.69687 -0.945862 -2.2008e-19)
(7.65682 -1.22973 4.92277e-19)
(7.60426 -1.51191 0)
(7.53931 -1.79179 0)
(7.46211 -2.06879 4.7051e-19)
(7.37281 -2.34233 -4.70507e-19)
(7.27164 -2.61184 3.96246e-19)
(7.15884 -2.87676 -4.67474e-19)
(7.03467 -3.13654 9.27036e-19)
(6.89946 -3.39065 -1.84948e-18)
(6.75355 -3.63856 1.83992e-18)
(6.59733 -3.87976 3.45842e-20)
(6.43123 -4.11371 -9.46362e-19)
(6.25573 -4.3399 -9.00479e-19)
(6.0713 -4.55777 1.83439e-18)
(5.87847 -4.76678 8.58656e-19)
(5.67769 -4.96628 0)
(7.47556 -0.0926545 1.8722e-21)
(7.47334 -0.366433 1.58397e-19)
(7.45915 -0.640378 3.32583e-19)
(7.43292 -0.913913 2.32808e-19)
(7.39468 -1.18646 2.15937e-19)
(7.34453 -1.45744 2.00852e-19)
(7.28254 -1.7263 0)
(7.20887 -1.99247 -8.30065e-19)
(7.12366 -2.25543 -4.27918e-19)
(7.02711 -2.51462 3.6497e-19)
(6.91944 -2.76954 0)
(6.80093 -3.01967 8.45176e-19)
(6.67185 -3.26452 -2.49961e-18)
(6.53256 -3.50361 8.40847e-19)
(6.38342 -3.73644 0)
(6.22486 -3.96254 -7.99436e-19)
(6.05737 -4.18141 -1.61468e-18)
(5.88141 -4.39254 7.94514e-19)
(5.69755 -4.59536 -2.91359e-20)
(5.50623 -4.78923 0)
(7.23089 -0.0947652 3.45406e-21)
(7.22837 -0.357976 -1.02509e-19)
(7.21439 -0.621348 1.97812e-19)
(7.1889 -0.884336 -1.30807e-20)
(7.15195 -1.14639 3.95274e-19)
(7.10359 -1.40698 -6.07088e-19)
(7.04393 -1.66556 0)
(6.97309 -1.92162 5.58618e-20)
(6.89122 -2.17464 0)
(6.79851 -2.42412 -8.10389e-19)
(6.69516 -2.66958 0)
(6.58143 -2.91054 -7.4781e-19)
(6.4576 -3.14655 2.31137e-18)
(6.32398 -3.37717 -1.53161e-18)
(6.18096 -3.60195 7.63601e-19)
(6.02896 -3.82047 -6.75497e-19)
(5.86846 -4.03226 7.80418e-19)
(5.69997 -4.23686 -7.75078e-19)
(5.52411 -4.43367 0)
(5.34132 -4.62206 0)
(7.00564 -0.0963793 4.69025e-20)
(7.00262 -0.349872 0)
(6.9886 -0.603506 0)
(6.96356 -0.856765 -3.7579e-19)
(6.92751 -1.10913 -3.507e-19)
(6.88055 -1.36008 0)
(6.82275 -1.60912 0)
(6.75424 -1.85575 4.96931e-20)
(6.67516 -2.0995 6.94485e-19)
(6.58568 -2.33988 -3.34907e-19)
(6.486 -2.57645 -3.56843e-19)
(6.37637 -2.80876 1.44152e-18)
(6.25704 -3.03641 -2.14051e-18)
(6.12834 -3.25899 1.38025e-18)
(5.99062 -3.4761 0)
(5.8443 -3.6874 2.77297e-18)
(5.68992 -3.89244 -2.01322e-18)
(5.52797 -4.09086 6.84913e-19)
(5.35923 -4.28198 1.30979e-18)
(5.18411 -4.46522 0)
(6.79771 -0.0974315 -4.03182e-20)
(6.79409 -0.341957 0)
(6.77989 -0.586604 -5.20329e-21)
(6.7551 -0.830873 -3.22656e-19)
(6.71974 -1.07427 9.99836e-19)
(6.67389 -1.31629 -1.66319e-19)
(6.61764 -1.55648 0)
(6.5511 -1.79435 1.32489e-18)
(6.4744 -2.02945 -6.82323e-19)
(6.38771 -2.26133 4.43344e-20)
(6.29122 -2.48957 6.32297e-19)
(6.18516 -2.71377 6.48124e-19)
(6.06977 -2.93355 -1.29246e-18)
(5.94535 -3.14855 -1.26414e-18)
(5.81226 -3.35841 -1.23473e-18)
(5.67091 -3.5629 -1.31401e-18)
(5.52186 -3.76155 1.30504e-18)
(5.36562 -3.95424 -6.22967e-19)
(5.20322 -4.1401 -6.6389e-19)
(5.03496 -4.31879 0)
(6.60489 -0.0979011 3.96116e-20)
(6.60064 -0.334128 -1.48724e-19)
(6.5862 -0.570447 -1.53966e-19)
(6.56156 -0.806379 4.61016e-19)
(6.52676 -1.04145 -1.63729e-19)
(6.48187 -1.27518 -1.53034e-19)
(6.42696 -1.50713 0)
(6.36215 -1.73685 -6.29042e-19)
(6.28756 -1.96389 0)
(6.20336 -2.18785 6.24169e-19)
(6.10971 -2.40832 -1.20274e-18)
(6.00684 -2.62492 5.95366e-19)
(5.89496 -2.83731 -1.18707e-18)
(5.77436 -3.04519 1.22502e-18)
(5.64537 -3.24824 6.66812e-19)
(5.50838 -3.44634 0)
(5.36401 -3.63902 -5.75469e-19)
(5.21272 -3.8265 5.75469e-19)
(5.05596 -4.00758 0)
(4.89371 -4.18261 0)
(6.42507 -0.0978748 0)
(6.42021 -0.326362 1.46119e-19)
(6.40553 -0.55491 4.70535e-21)
(6.38103 -0.783059 -1.50667e-19)
(6.34673 -1.01035 -1.32849e-19)
(6.30271 -1.23635 -1.41045e-19)
(6.24905 -1.46061 5.4513e-19)
(6.18584 -1.6827 0)
(6.11322 -1.90222 0)
(6.03132 -2.11876 2.77035e-19)
(5.94032 -2.33195 2.94306e-19)
(5.8404 -2.54145 1.06508e-18)
(5.73177 -2.74691 -5.44207e-19)
(5.61468 -2.94811 5.44205e-19)
(5.48944 -3.14475 5.77747e-19)
(5.35637 -3.33686 3.38103e-20)
(5.21615 -3.52395 -1.06099e-18)
(5.06912 -3.70681 3.77133e-21)
(4.91744 -3.88354 5.24735e-19)
(4.76025 -4.05614 0)
(6.25633 -0.0973556 -3.26572e-20)
(6.25094 -0.318628 3.26568e-20)
(6.23607 -0.539933 0)
(6.21173 -0.760825 1.23001e-19)
(6.17795 -0.980868 3.9956e-19)
(6.1348 -1.19964 -5.0498e-19)
(6.08236 -1.41671 -5.35608e-19)
(6.02073 -1.63169 0)
(5.95002 -1.84418 0)
(5.87037 -2.05379 0)
(5.78193 -2.26018 -9.88695e-19)
(5.68487 -2.46302 -6.38689e-20)
(5.57938 -2.66201 -5.01299e-19)
(5.46566 -2.85693 3.00621e-20)
(5.34398 -3.04756 -9.91351e-19)
(5.21458 -3.23404 1.51083e-18)
(5.07815 -3.41592 -1.43147e-18)
(4.93475 -3.59478 4.85931e-19)
(4.78764 -3.76768 9.31504e-19)
(4.63413 -3.93945 0)
(6.09699 -0.0959944 2.93381e-20)
(6.09116 -0.310724 0)
(6.07619 -0.525475 -1.20786e-19)
(6.05207 -0.739812 -2.48892e-19)
(6.01885 -0.953316 1.20634e-19)
(5.97658 -1.16558 9.63312e-19)
(5.92536 -1.37621 0)
(5.86526 -1.58481 -4.63937e-19)
(5.7964 -1.79101 -2.37288e-19)
(5.7189 -1.99445 -4.45762e-19)
(5.6329 -2.1948 -1.78328e-19)
(5.53855 -2.39175 -1.40734e-18)
(5.43602 -2.58502 -9.28911e-19)
(5.32542 -2.77441 9.55564e-19)
(5.20702 -2.95974 9.14621e-19)
(5.08083 -3.14123 -3.87336e-21)
(4.94764 -3.31854 2.98149e-20)
(4.80672 -3.49423 4.47721e-19)
(4.66313 -3.66455 -9.15296e-19)
(4.51018 -3.83929 0)
(5.94544 -0.0943216 -6.13517e-20)
(5.93931 -0.302788 3.02023e-20)
(5.92438 -0.511341 -1.20663e-19)
(5.90065 -0.719594 1.20607e-19)
(5.86811 -0.927152 -3.46877e-19)
(5.82684 -1.13363 -1.08013e-18)
(5.7769 -1.33864 0)
(5.71835 -1.54182 4.9089e-19)
(5.65128 -1.74281 -4.58982e-19)
(5.57581 -1.94126 9.71934e-19)
(5.49203 -2.13687 9.6615e-19)
(5.40006 -2.32932 1.42341e-18)
(5.30004 -2.51834 -9.23606e-19)
(5.19198 -2.70374 4.60048e-19)
(5.07615 -2.88535 -4.52414e-19)
(4.95217 -3.06335 4.52438e-19)
(4.82114 -3.2375 0)
(4.68038 -3.41097 4.09587e-19)
(4.53886 -3.57965 -4.00789e-19)
(4.38156 -3.76553 0)
(7.13799 7.25995 0)
(7.41788 6.97024 0)
(7.68488 6.67094 1.08436e-18)
(7.93969 6.36258 2.01439e-20)
(8.18173 6.04486 -1.14736e-18)
(8.41036 5.71784 0)
(8.62516 5.38193 1.18392e-18)
(8.82578 5.03765 -2.23349e-18)
(9.01193 4.6856 -1.12872e-18)
(9.1833 4.32636 -1.13924e-18)
(9.33964 3.96058 1.13924e-18)
(9.48071 3.58891 -1.15127e-18)
(9.60633 3.21203 5.74282e-19)
(9.7163 2.83066 5.4805e-19)
(9.81046 2.44544 5.50188e-19)
(9.88874 2.05705 -5.83961e-19)
(9.95113 1.66614 5.83961e-19)
(9.99771 1.27343 -2.93154e-19)
(10.0284 0.879305 -1.39233e-19)
(10.0438 0.485118 7.33446e-20)
(7.41223 7.06574 0)
(7.69221 6.77647 -9.93377e-19)
(7.95841 6.47564 -2.12385e-18)
(8.21112 6.16394 3.14067e-18)
(8.45011 5.84168 -2.178e-18)
(8.67487 5.50932 2.18858e-18)
(8.8849 5.16746 1.18995e-18)
(9.07982 4.81675 -3.37639e-18)
(9.25921 4.4579 1.10454e-18)
(9.42274 4.09162 2.19559e-18)
(9.57008 3.71862 1.08167e-18)
(9.70098 3.33967 1.08851e-18)
(9.81528 2.95556 -1.14872e-18)
(9.91277 2.56702 1.69142e-18)
(9.99317 2.17484 -2.34685e-18)
(10.0564 1.77987 5.79255e-19)
(10.1024 1.38293 -5.56577e-19)
(10.1314 0.984835 0)
(10.1431 0.586115 1.51413e-20)
(10.138 0.187748 0)
(7.26789 6.93983 -1.74895e-18)
(7.55061 6.66796 9.82013e-19)
(7.82079 6.38324 1.796e-18)
(8.07799 6.08636 8.12891e-19)
(8.32179 5.77788 2.03645e-18)
(8.55166 5.45841 1.99274e-20)
(8.76707 5.12862 -1.02072e-18)
(8.96754 4.78921 -3.04173e-18)
(9.15263 4.44088 3.00289e-18)
(9.32188 4.08438 -3.08255e-18)
(9.47492 3.72042 -1.02694e-18)
(9.61144 3.34978 -2.05458e-18)
(9.73113 2.97328 0)
(9.83377 2.59169 0)
(9.91923 2.20589 0)
(9.98734 1.8168 -5.23682e-19)
(10.0379 1.42525 5.48515e-19)
(10.071 1.03209 5.25368e-19)
(10.0864 0.638047 6.26146e-21)
(10.0842 0.244079 1.31949e-19)
(7.04003 6.68746 1.8165e-18)
(7.31943 6.43422 -1.64937e-18)
(7.5875 6.16788 -1.69323e-19)
(7.8435 5.88899 -1.70277e-19)
(8.08689 5.59811 4.28739e-18)
(8.31711 5.29584 -7.11618e-20)
(8.53361 4.98283 3.73041e-21)
(8.73586 4.65971 -2.7112e-18)
(8.92336 4.32718 1.78878e-18)
(9.09565 3.98592 0)
(9.25223 3.6367 9.59456e-19)
(9.39276 3.28036 9.66084e-19)
(9.51696 2.91767 0)
(9.62452 2.54947 0)
(9.71522 2.17657 0)
(9.78885 1.7998 0)
(9.84524 1.41997 -2.16662e-20)
(9.88426 1.03794 4.72979e-19)
(9.90579 0.654528 -2.27112e-19)
(9.90983 0.270678 0)
(6.77715 6.37281 1.53817e-18)
(7.04867 6.13739 0)
(7.30996 5.88907 -4.52827e-18)
(7.56024 5.62826 -1.54344e-18)
(7.79885 5.35547 -1.62202e-18)
(8.02522 5.07127 -1.71948e-18)
(8.23879 4.77623 8.1237e-19)
(8.43901 4.47096 -8.53681e-19)
(8.62533 4.15608 2.37025e-18)
(8.79732 3.83228 -7.75915e-19)
(8.95456 3.50032 0)
(9.09654 3.16094 0)
(9.22289 2.81484 0)
(9.33332 2.4628 0)
(9.42758 2.10562 -1.22529e-18)
(9.50542 1.74412 4.21334e-19)
(9.5666 1.3791 -4.45099e-19)
(9.61098 1.01139 0)
(9.63843 0.641832 2.23984e-19)
(9.64887 0.271313 0)
(6.5021 6.04581 1.31555e-18)
(6.76339 5.82653 -4.7942e-20)
(7.01539 5.59474 2.7672e-18)
(7.25731 5.35079 1.38241e-18)
(7.48848 5.09514 0)
(7.70834 4.82829 -1.46805e-18)
(7.91632 4.55078 6.83538e-20)
(8.11187 4.26316 -1.49028e-18)
(8.29447 3.96603 2.06141e-18)
(8.46364 3.66002 3.26847e-20)
(8.61896 3.34577 2.80671e-20)
(8.75997 3.02391 -7.4358e-19)
(8.88626 2.69517 1.45827e-18)
(8.99752 2.36031 0)
(9.09349 2.02003 6.84261e-20)
(9.17385 1.67517 7.44495e-19)
(9.23835 1.32649 1.63009e-21)
(9.2868 0.974768 -1.53148e-20)
(9.31908 0.620809 0)
(9.33504 0.265443 -4.61544e-20)
(6.23613 5.72899 0)
(6.48608 5.52367 -4.88617e-20)
(6.7275 5.30638 1.74842e-20)
(6.95963 5.0774 -2.50104e-18)
(7.18182 4.83714 0)
(7.3935 4.58605 1.26482e-18)
(7.59415 4.32462 1.34731e-18)
(7.78321 4.05335 -3.91968e-18)
(7.96021 3.77279 -6.81254e-20)
(8.12465 3.48351 -1.25847e-18)
(8.27612 3.18609 6.93021e-19)
(8.41419 2.88116 -6.40077e-19)
(8.53845 2.5694 -7.03737e-19)
(8.64853 2.25147 0)
(8.7442 1.92812 3.71295e-19)
(8.82525 1.59993 -1.687e-20)
(8.89129 1.26777 -3.44631e-19)
(8.9421 0.932377 -1.67323e-20)
(8.97758 0.594489 -8.67524e-20)
(8.99755 0.25488 1.73877e-19)
(5.99036 5.43387 0)
(6.22874 5.2404 1.08128e-18)
(6.45917 5.03553 1.61012e-20)
(6.68095 4.8195 -1.09735e-18)
(6.89345 4.59267 0)
(7.09613 4.35546 1.14159e-18)
(7.28849 4.10831 -1.08987e-18)
(7.47001 3.85167 -1.20666e-18)
(7.64023 3.58605 2.29498e-18)
(7.79869 3.31198 1.23846e-18)
(7.94498 3.03001 0)
(8.07869 2.74073 6.04022e-19)
(8.19944 2.44475 -4.36912e-21)
(8.30691 2.14273 2.18208e-20)
(8.4007 1.83533 0)
(8.48066 1.52317 -5.94493e-19)
(8.54664 1.20687 -3.11473e-19)
(8.59821 0.887235 4.55063e-19)
(8.63528 0.564999 3.06822e-19)
(8.65766 0.240865 -4.10154e-20)
(5.76847 5.16537 0)
(5.9956 4.98189 -9.33678e-19)
(6.21523 4.78757 0)
(6.42671 4.58265 -1.00739e-18)
(6.62944 4.36744 1.98327e-18)
(6.82293 4.1423 -2.02258e-18)
(7.00667 3.90764 3.1651e-18)
(7.18022 3.6639 -3.1559e-18)
(7.34311 3.41153 -2.13222e-18)
(7.49494 3.15104 -1.57255e-18)
(7.63529 2.88294 5.39278e-19)
(7.7638 2.60779 -1.11806e-18)
(7.8801 2.32615 1.86079e-20)
(7.98389 2.03864 1.11138e-18)
(8.07485 1.74584 -2.79592e-19)
(8.15263 1.44847 1.14539e-18)
(8.21714 1.14702 -5.63323e-19)
(8.2682 0.842195 2.59506e-19)
(8.30554 0.534725 -1.48026e-19)
(8.32898 0.225279 0)
(5.5702 4.92389 0)
(5.78671 4.74887 1.8062e-18)
(5.99609 4.56357 8.76024e-19)
(6.19769 4.36821 -9.01809e-19)
(6.39097 4.16304 -1.84734e-18)
(6.57546 3.9484 2.81106e-18)
(6.7507 3.72466 1.12383e-20)
(6.91627 3.49223 -9.16183e-19)
(7.07175 3.25154 1.96713e-18)
(7.21674 3.00307 1.01599e-18)
(7.35087 2.74732 -9.49075e-19)
(7.47379 2.48479 4.98381e-19)
(7.58517 2.21604 2.24792e-20)
(7.6847 1.94162 -5.24452e-19)
(7.77209 1.66211 -2.54122e-19)
(7.84706 1.37809 5.09548e-19)
(7.90939 1.09025 -2.55426e-19)
(7.95895 0.799095 -5.15445e-19)
(7.99559 0.505298 5.97213e-20)