/*--------------------------------*- C++ -*----------------------------------*\
  =========                 |
  \\      /  F ield         | OpenFOAM: The Open Source CFD Toolbox
   \\    /   O peration     | Website:  https://openfoam.org
    \\  /    A nd           | Version:  6.0
     \\/     M anipulation  |
\*---------------------------------------------------------------------------*/
FoamFile
{
    version     2.0;
    format      ascii;
    class       surfaceScalarField;
    location    "21.248";
    object      phi;
}
// * * * * * * * * * * * * * * * * * * * * * * * * * * * * * * * * * * * * * //

dimensions      [0 3 -1 0 0 0 0];

internalField   nonuniform List<scalar> 
38030
(
-8.46995e-06
-0.00797725
0.00798572
-2.71006e-05
-0.00732906
0.00734769
-5.37736e-05
-0.00673473
0.0067614
-8.65204e-05
-0.00619112
0.00622386
-0.000123525
-0.00569474
0.00573175
-0.000163248
-0.00524203
0.00528176
-0.000204406
-0.00482949
0.00487064
-0.000245944
-0.00445372
0.00449526
-0.000287007
-0.00411155
0.00415261
-0.00032691
-0.00379996
0.00383986
-0.000365119
-0.00351614
0.00355435
-0.00040123
-0.00325752
0.00329363
-0.000434952
-0.00302169
0.00305541
-0.000466093
-0.00280646
0.0028376
-0.00049455
-0.00260983
0.00263829
-0.000520292
-0.00242998
0.00245572
-0.000543357
-0.00226524
0.0022883
-0.000563841
-0.0021141
0.00213459
-0.00058189
-0.00197522
0.00199327
-0.000597691
-0.00184737
0.00186317
-0.000611468
-0.00172944
0.00174322
-0.000623475
-0.00162047
0.00163247
-0.000633989
-0.00151957
0.00153008
-0.000643303
-0.00142596
0.00143528
-0.000651721
-0.00133897
0.00134739
-0.000659552
-0.00125799
0.00126582
-0.000667103
-0.0011825
0.00119005
-0.000674671
-0.00111204
0.00111961
-0.000682549
-0.0010462
0.00105407
-0.000984548
0.000993031
-0.000691032
-7.45954e-06
-0.00796979
-2.57707e-05
-0.00731075
-5.20152e-05
-0.00670848
-8.39646e-05
-0.00615917
-0.000119759
-0.00565895
-0.000157843
-0.00520395
-0.000196926
-0.0047904
-0.000235949
-0.0044147
-0.000274055
-0.00407344
-0.000310558
-0.00376345
-0.000344927
-0.00348177
-0.000376762
-0.00322568
-0.000405776
-0.00299267
-0.000431785
-0.00278045
-0.000454691
-0.00258693
-0.000474475
-0.00241019
-0.000491184
-0.00224853
-0.000504925
-0.00210036
-0.000515858
-0.00196429
-0.000524186
-0.00183904
-0.000530151
-0.00172348
-0.000534026
-0.00161659
-0.000536108
-0.00151748
-0.000536715
-0.00142535
-0.000536176
-0.00133951
-0.000534828
-0.00125934
-0.000533004
-0.00118433
-0.000531033
-0.00111401
-0.000529237
-0.00104799
-0.000985843
-0.000527941
-7.06876e-06
-0.00796272
-2.47662e-05
-0.00729306
-5.01663e-05
-0.00668308
-8.09105e-05
-0.00612842
-0.000115069
-0.00562479
-0.000151052
-0.00516797
-0.000187548
-0.00475391
-0.000223491
-0.00437876
-0.000258016
-0.00403892
-0.00029044
-0.00373103
-0.000320231
-0.00345198
-0.000346991
-0.00319892
-0.000370439
-0.00296922
-0.000390394
-0.0027605
-0.000406766
-0.00257055
-0.000419541
-0.00239742
-0.000428777
-0.00223929
-0.000434592
-0.00209455
-0.000437156
-0.00196172
-0.00043669
-0.0018395
-0.000433452
-0.00172672
-0.000427735
-0.00162231
-0.000419861
-0.00152536
-0.000410173
-0.00143504
-0.000399029
-0.00135066
-0.000386796
-0.00127158
-0.000373844
-0.00119728
-0.000360536
-0.00112732
-0.000347231
-0.0010613
-0.000998782
-0.000334293
-6.81748e-06
-0.0079559
-2.38272e-05
-0.00727605
-4.81359e-05
-0.00665877
-7.73428e-05
-0.00609921
-0.000109474
-0.00559266
-0.000142909
-0.00513453
-0.000176319
-0.0047205
-0.000208626
-0.00434645
-0.000238963
-0.00400858
-0.000266643
-0.00370335
-0.000291135
-0.00342749
-0.000312043
-0.00317801
-0.000329088
-0.00295218
-0.000342094
-0.00274749
-0.000350974
-0.00256167
-0.000355722
-0.00239267
-0.000356401
-0.00223861
-0.000353138
-0.00209781
-0.000346117
-0.00196874
-0.00033557
-0.00185005
-0.000321774
-0.00174051
-0.000305044
-0.00163904
-0.000285724
-0.00154468
-0.000264187
-0.00145658
-0.000240822
-0.00137402
-0.000216034
-0.00129636
-0.00019023
-0.00122308
-0.000163816
-0.00115374
-0.000137196
-0.00108792
-0.0010252
-0.00011078
-6.57972e-06
-0.00794932
-2.28259e-05
-0.0072598
-4.58488e-05
-0.00663575
-7.32304e-05
-0.00607183
-0.000102972
-0.00556291
-0.000133434
-0.00510407
-0.000163274
-0.00469066
-0.000191407
-0.00431832
-0.000216961
-0.00398303
-0.00023925
-0.00368106
-0.000257742
-0.003409
-0.000272044
-0.00316371
-0.000281877
-0.00294234
-0.000287068
-0.0027423
-0.000287532
-0.00256121
-0.000283268
-0.00239694
-0.000274343
-0.00224754
-0.000260892
-0.00211126
-0.000243109
-0.00198653
-0.000221238
-0.00187192
-0.000195573
-0.00176618
-0.000166448
-0.00166816
-0.000134235
-0.00157689
-9.93347e-05
-0.00149148
-6.21731e-05
-0.00141118
-2.31935e-05
-0.00133534
1.71512e-05
-0.00126343
5.84065e-05
-0.00119499
0.000100115
-0.00112962
-0.0010669
0.000141813
-6.31807e-06
-0.007943
-2.1707e-05
-0.00724441
-4.32605e-05
-0.0066142
-6.8548e-05
-0.00604655
-9.55576e-05
-0.0055359
-0.000122637
-0.00507699
-0.000148439
-0.00466485
-0.000171875
-0.00429488
-0.000192071
-0.00396283
-0.000208341
-0.00366479
-0.000220156
-0.00339718
-0.000227122
-0.00315675
-0.000228963
-0.0029405
-0.000225504
-0.00274576
-0.000216665
-0.00257005
-0.000202443
-0.00241116
-0.00018291
-0.00226707
-0.000158206
-0.00213596
-0.000128531
-0.0020162
-9.41411e-05
-0.00190631
-5.53441e-05
-0.00180497
-1.24941e-05
-0.00171101
3.40124e-05
-0.0016234
8.37432e-05
-0.00154121
0.000136235
-0.00146367
0.000190999
-0.00139011
0.000247535
-0.00131996
0.00030533
-0.00125279
0.000363868
-0.00118816
-0.00112565
0.000422618
-6.019e-06
-0.00793698
-2.04451e-05
-0.00722998
-4.03458e-05
-0.0065943
-6.32787e-05
-0.00602361
-8.72245e-05
-0.00551196
-0.000110527
-0.00505369
-0.000131837
-0.00464354
-0.000150066
-0.00427665
-0.000164345
-0.00394855
-0.000173989
-0.00365515
-0.000178471
-0.0033927
-0.000177398
-0.00315782
-0.000170496
-0.00294741
-0.00015759
-0.00275866
-0.000138597
-0.00258904
-0.000113515
-0.00243624
-8.24177e-05
-0.00229817
-4.54448e-05
-0.00217294
-2.80117e-06
-0.00205885
4.52489e-05
-0.00195436
9.83854e-05
-0.00185811
0.000156236
-0.00176887
0.000218381
-0.00168554
0.000284356
-0.00160719
0.000353658
-0.00153298
0.000425755
-0.0014622
0.000500087
-0.00139429
0.000576081
-0.00132878
0.00065315
-0.00126523
-0.00120318
0.000730687
-5.67855e-06
-0.00793131
-1.90288e-05
-0.00721663
-3.70909e-05
-0.00657623
-5.74114e-05
-0.00600329
-7.79679e-05
-0.0054914
-9.71054e-05
-0.00503455
-0.00011348
-0.00462717
-0.000126008
-0.00426413
-0.000133825
-0.00394074
-0.000136254
-0.00365272
-0.000132769
-0.00339619
-0.000122982
-0.00316761
-0.000106617
-0.00296377
-8.35002e-05
-0.00278178
-5.35457e-05
-0.002619
-1.67489e-05
-0.00247304
2.68205e-05
-0.00234174
7.70231e-05
-0.00222314
0.000133654
-0.00211548
0.000196444
-0.00201715
0.000265065
-0.00192673
0.00033913
-0.00184293
0.000418196
-0.00176461
0.000501768
-0.00169076
0.000589306
-0.00162051
0.000680226
-0.00155312
0.00077391
-0.00148798
0.000869716
-0.00142459
0.000966977
-0.00136249
-0.0013012
0.001065
-5.29561e-06
-0.00792601
-1.74533e-05
-0.00720448
-3.34876e-05
-0.0065602
-5.09374e-05
-0.00598584
-6.77817e-05
-0.00547456
-8.23721e-05
-0.00501996
-9.33741e-05
-0.00461617
-9.97147e-05
-0.00425779
-0.00010054
-0.00393991
-9.51796e-05
-0.00365808
-8.31162e-05
-0.00340825
-6.3964e-05
-0.00318676
-3.74489e-05
-0.00299029
-3.3948e-06
-0.00281583
3.82873e-05
-0.00266068
8.76072e-05
-0.00252236
0.000144501
-0.00239863
0.000208835
-0.00228747
0.000280408
-0.00218705
0.000358952
-0.0020957
0.000444133
-0.00201191
0.000535553
-0.00193435
0.000632752
-0.00186181
0.000735208
-0.00179321
0.000842339
-0.00172764
0.000953512
-0.0016643
0.00106805
-0.00160251
0.00118523
-0.00154177
0.0013043
-0.00148156
-0.00142137
0.00142446
-4.87006e-06
-0.00792114
-1.57151e-05
-0.00719363
-2.95293e-05
-0.00654639
-4.38478e-05
-0.00597152
-5.66562e-05
-0.00546175
-6.63187e-05
-0.0050103
-7.15157e-05
-0.00461097
-7.11899e-05
-0.00425811
-6.45022e-05
-0.0039466
-5.07939e-05
-0.00367179
-2.95577e-05
-0.00342949
-4.13349e-07
-0.0032159
3.6911e-05
-0.00302761
8.25928e-05
-0.00286152
0.000136726
-0.00271481
0.000199328
-0.00258496
0.000270343
-0.00246965
0.000349648
-0.00236678
0.000437049
-0.00227445
0.000532284
-0.00219093
0.000635023
-0.00211465
0.000744862
-0.00204419
0.000861326
-0.00197827
0.00098387
-0.00191576
0.00111188
-0.00185565
0.00124466
-0.00179708
0.00138148
-0.00173933
0.00152154
-0.00168182
0.00166398
-0.001624
-0.00156528
0.00180789
-4.40129e-06
-0.00791674
-1.38108e-05
-0.00718422
-2.52083e-05
-0.00653499
-3.6131e-05
-0.0059606
-4.4577e-05
-0.0054533
-4.89293e-05
-0.00500595
-4.78893e-05
-0.00461201
-4.04213e-05
-0.00426558
-2.57058e-05
-0.00396131
-3.10119e-06
-0.00369439
2.78867e-05
-0.00346047
6.76295e-05
-0.00325564
0.000116395
-0.00307638
0.000174361
-0.00291948
0.000241627
-0.00278208
0.000318219
-0.00266155
0.000404094
-0.00255552
0.000499142
-0.00246183
0.000603185
-0.00237849
0.000715972
-0.00230372
0.000837181
-0.00223586
0.000966411
-0.00217342
0.00110318
-0.00211504
0.00124693
-0.00205951
0.00139701
-0.00200573
0.00155268
-0.00195276
0.00171314
-0.0018998
0.00187751
-0.00184619
0.00204482
-0.00179131
-0.00173451
0.00221405
-3.88818e-06
-0.00791285
-1.1736e-05
-0.00717637
-2.0515e-05
-0.00652621
-2.77715e-05
-0.00595334
-3.15232e-05
-0.00544955
-3.01786e-05
-0.00500729
-2.2467e-05
-0.00461972
-7.38056e-06
-0.00428067
1.58746e-05
-0.00398457
4.79177e-05
-0.00372643
8.92252e-05
-0.00350178
0.000140156
-0.00330658
0.000200971
-0.00313719
0.000271847
-0.00299036
0.000352887
-0.00286312
0.00044413
-0.00275279
0.000545545
-0.00265694
0.000657042
-0.00257332
0.00077846
-0.00249991
0.000909571
-0.00243483
0.00105007
-0.00237636
0.00119956
-0.00232291
0.00135758
-0.00227306
0.00152354
-0.00222547
0.00169678
-0.00217897
0.00187652
-0.0021325
0.00206189
-0.00208517
0.00225192
-0.00203622
0.00244554
-0.00198493
-0.00193055
0.00264158
-3.32927e-06
-0.00790952
-9.48449e-06
-0.00717022
-1.54369e-05
-0.00652026
-1.87496e-05
-0.00595003
-1.74675e-05
-0.00545083
-1.00321e-05
-0.00501473
4.79166e-06
-0.00463454
2.79771e-05
-0.00430385
6.02854e-05
-0.00401688
0.000102307
-0.00376846
0.000154496
-0.00355397
0.000217192
-0.00336927
0.000290645
-0.00321064
0.00037503
-0.00307474
0.000470451
-0.00295854
0.000576957
-0.0028593
0.000694535
-0.00277451
0.000823115
-0.0027019
0.000962563
-0.00263936
0.00111268
-0.00258495
0.00127318
-0.00253686
0.00144371
-0.00249344
0.00162379
-0.00245314
0.00181286
-0.00241454
0.00201023
-0.00237634
0.0022151
-0.00233737
0.00242654
-0.0022966
0.00264349
-0.00225316
0.00286476
-0.00220621
-0.00215484
0.00308904
-2.72237e-06
-0.0079068
-7.04897e-06
-0.00716589
-9.95896e-06
-0.00651735
-9.04097e-06
-0.00595095
-2.37584e-06
-0.0054575
1.15537e-05
-0.00502866
3.39395e-05
-0.00465693
6.57121e-05
-0.00433562
0.000107593
-0.00405876
0.000160137
-0.003821
0.000223766
-0.0036176
0.000298799
-0.0034443
0.000385468
-0.00329731
0.000483938
-0.00317321
0.000594315
-0.00306892
0.000716654
-0.00298164
0.000850962
-0.00290882
0.000997191
-0.00284813
0.00115524
-0.00279741
0.00132494
-0.00275465
0.00150605
-0.00271797
0.00169825
-0.00268563
0.00190108
-0.00265598
0.00211402
-0.00262747
0.00233636
-0.00259869
0.00256729
-0.0025683
0.00280582
-0.00253513
0.00305082
-0.00249816
0.00330099
-0.00245637
-0.00240871
0.00355485
-2.06499e-06
-0.00790473
-4.42066e-06
-0.00716354
-4.06379e-06
-0.0065177
1.38198e-06
-0.0059564
1.3791e-05
-0.00546991
3.46302e-05
-0.0050495
6.50395e-05
-0.00468734
0.000105899
-0.00437648
0.000157881
-0.00411074
0.000221497
-0.00388462
0.000297133
-0.00369323
0.000385073
-0.00353224
0.000485527
-0.00339777
0.000598645
-0.00328633
0.000724528
-0.0031948
0.000863236
-0.00312034
0.00101479
-0.00306037
0.00117917
-0.00301251
0.0013563
-0.00297454
0.00154607
-0.00294442
0.00174828
-0.00292018
0.00196264
-0.0029
0.00218878
-0.00288211
0.00242617
-0.00286487
0.00267416
-0.00284667
0.00293191
-0.00282605
0.00319841
-0.00280163
0.00347245
-0.00277221
0.00375263
-0.00273655
-0.00269338
0.0040373
-1.35419e-06
-0.00790338
-1.58996e-06
-0.0071633
2.26761e-06
-0.00652156
1.25498e-05
-0.00596668
3.10759e-05
-0.00548843
5.92536e-05
-0.00507767
9.8162e-05
-0.00472625
0.000148621
-0.00442694
0.000211248
-0.00417337
0.0002865
-0.00395987
0.000374716
-0.00378145
0.000476141
-0.00363367
0.000590952
-0.00351258
0.000719275
-0.00341465
0.000861198
-0.00333672
0.00101678
-0.00327593
0.00118605
-0.00322964
0.00136901
-0.00319547
0.00156564
-0.00317117
0.00177585
-0.00315463
0.00199951
-0.00314384
0.00223641
-0.0031369
0.00248622
-0.00313193
0.00274849
-0.00312713
0.0030226
-0.00312078
0.00330774
-0.00311119
0.0036029
-0.00309679
0.0039068
-0.00307611
0.00421794
-0.00304769
-0.00300995
0.00453451
-5.87062e-07
-0.00790279
1.45299e-06
-0.00716534
9.05487e-06
-0.00652916
2.44934e-05
-0.00598212
4.9523e-05
-0.00551346
8.54822e-05
-0.00511363
0.00013338
-0.00477415
0.000193969
-0.00448753
0.000267798
-0.0042472
0.000355266
-0.00404734
0.000456653
-0.00388284
0.000572154
-0.00374917
0.000701902
-0.00364233
0.00084599
-0.00355874
0.00100448
-0.00349522
0.00117742
-0.00344887
0.00136485
-0.00341707
0.00156678
-0.0033974
0.00178323
-0.00338761
0.00201416
-0.00338556
0.00225951
-0.0033892
0.00251915
-0.00339653
0.00279283
-0.00340561
0.00308019
-0.00341449
0.00338069
-0.00342128
0.00369357
-0.00342407
0.00401783
-0.00342105
0.00435219
-0.00341047
0.00469504
-0.00339054
-0.00335934
0.00504443
2.39365e-07
-0.00790303
4.71782e-06
-0.00716982
1.63168e-05
-0.00654076
3.72429e-05
-0.00600304
6.91748e-05
-0.0055454
0.000113372
-0.00515783
0.000170766
-0.00483154
0.000242029
-0.00455879
0.000327638
-0.00433281
0.00042792
-0.00414762
0.000543088
-0.003998
0.000673274
-0.00387936
0.000818559
-0.00378761
0.000978987
-0.00371917
0.00115458
-0.00367081
0.00134537
-0.00363966
0.00155138
-0.00362307
0.00177263
-0.00361866
0.00200916
-0.00362414
0.00226099
-0.0036374
0.00252814
-0.00365634
0.00281055
-0.00367894
0.0031081
-0.00370316
0.00342054
-0.00372693
0.00374743
-0.00374817
0.00408813
-0.00376477
0.0044417
-0.00377461
0.00480685
-0.00377562
0.00518192
-0.00376561
-0.00374225
0.00556483
1.12789e-06
-0.00790416
8.21338e-06
-0.00717691
2.40704e-05
-0.00655662
5.08247e-05
-0.0060298
9.00683e-05
-0.00558464
0.000142972
-0.00521073
0.00021038
-0.00489895
0.000292878
-0.00464129
0.000390862
-0.00443079
0.000504575
-0.00426133
0.000634156
-0.00412758
0.000779664
-0.00402486
0.00094111
-0.00394906
0.00111848
-0.00389654
0.00131174
-0.00386407
0.00152087
-0.00384879
0.00174588
-0.00384808
0.00198677
-0.00385955
0.00224361
-0.00388098
0.00251646
-0.00391024
0.00280539
-0.00394527
0.00311046
-0.00398401
0.00343167
-0.00402437
0.00376892
-0.00406418
0.00412194
-0.00410119
0.00449023
-0.00413305
0.00487295
-0.00415734
0.00526891
-0.00417158
0.00567642
-0.00417312
-0.00415909
0.00609326
2.0805e-06
-0.00790624
1.19465e-05
-0.00718677
3.23289e-05
-0.006577
6.52593e-05
-0.00606273
0.000112232
-0.00563161
0.000174319
-0.00527282
0.000252268
-0.0049769
0.000346574
-0.0047356
0.000457539
-0.00454175
0.000585321
-0.00438911
0.000729969
-0.00427223
0.000891461
-0.00418636
0.00106972
-0.00412732
0.00126466
-0.00409147
0.00147618
-0.00407559
0.00170419
-0.0040768
0.00194865
-0.00409253
0.00220953
-0.00412044
0.00248689
-0.00415834
0.00278081
-0.00420416
0.00309143
-0.00425589
0.0034189
-0.00431148
0.00376336
-0.00436883
0.0041249
-0.00442572
0.00450345
-0.00447974
0.00489872
-0.00452832
0.00531008
-0.0045687
0.00573647
-0.00459797
0.00617625
-0.0046129
-0.00460996
0.00662712
3.09861e-06
-0.00790934
1.5922e-05
-0.00719959
4.11011e-05
-0.00660218
8.05591e-05
-0.00610219
0.00013568
-0.00568673
0.00020743
-0.00534457
0.000296452
-0.00506592
0.000403142
-0.00484229
0.000527705
-0.00466632
0.000670204
-0.00453161
0.000830594
-0.00443262
0.00100876
-0.00436452
0.00120453
-0.00432309
0.00141772
-0.00430467
0.00164814
-0.00430601
0.00189562
-0.00432428
0.00216003
-0.00435694
0.00244129
-0.0044017
0.0027394
-0.00445645
0.00305445
-0.00451921
0.0033866
-0.00458804
0.0037361
-0.00466098
0.00410323
-0.00473596
0.00448827
-0.00481076
0.00489141
-0.00488289
0.00531267
-0.00494958
0.00575169
-0.00500772
0.00620765
-0.00505393
0.00667907
-0.00508432
-0.00509452
0.00716363
4.18256e-06
-0.00791352
2.01416e-05
-0.00721555
5.039e-05
-0.00663243
9.67262e-05
-0.00614852
0.000160413
-0.00575042
0.000242299
-0.00542646
0.00034292
-0.00516654
0.000462566
-0.00496193
0.000601341
-0.00480509
0.000759209
-0.00468948
0.000936025
-0.00460944
0.00113157
-0.00456007
0.00134557
-0.0045371
0.00157774
-0.00453683
0.00182777
-0.00455604
0.00209538
-0.00459189
0.00238032
-0.00464189
0.00268244
-0.00470381
0.00300163
-0.00477565
0.00333793
-0.00485552
0.0036915
-0.00494161
0.00406261
-0.00503209
0.00445168
-0.00512503
0.00485921
-0.00521828
0.00528568
-0.00530936
0.00573146
-0.00539536
0.00619663
-0.0054729
0.00668076
-0.00553806
0.00718263
-0.00558619
-0.00561191
0.00770002
5.3319e-06
-0.00791885
2.46051e-05
-0.00723483
6.0193e-05
-0.00666802
0.000113752
-0.00620208
0.000186409
-0.00582308
0.000278893
-0.00551894
0.000391621
-0.00527927
0.000524777
-0.00509509
0.000678363
-0.00495868
0.00085224
-0.00486336
0.00104616
-0.00480336
0.0012598
-0.00477371
0.00149278
-0.00477008
0.00174469
-0.00478874
0.00201509
-0.00482644
0.00230358
-0.00488038
0.00260978
-0.00494808
0.00293336
-0.0050274
0.00327411
-0.0051164
0.00363194
-0.00521334
0.00400691
-0.00531658
0.00439931
-0.00542449
0.00480959
-0.00553532
0.00523844
-0.00564713
0.00568666
-0.00575757
0.00615507
-0.00586377
0.00664429
-0.00596212
0.00715449
-0.00604825
0.00768493
-0.00611664
-0.00616061
0.00823363
6.54525e-06
-0.0079254
2.93104e-05
-0.00725759
7.05029e-05
-0.00670921
0.000131615
-0.00626319
0.00021363
-0.00590509
0.000317142
-0.00562245
0.000442455
-0.00540458
0.000589643
-0.00524228
0.000758604
-0.00512764
0.000949098
-0.00505385
0.00116078
-0.00501504
0.00139321
-0.00500614
0.00164592
-0.00502278
0.00191835
-0.00506117
0.00220995
-0.00511805
0.00252017
-0.00519059
0.00284844
-0.00527636
0.00319429
-0.00537324
0.0035573
-0.00547941
0.00393719
-0.00559323
0.00433386
-0.00571325
0.00474745
-0.00583807
0.00517838
-0.00596626
0.00562743
-0.00609617
0.00609566
-0.00622581
0.00658439
-0.0063525
0.00709495
-0.00647269
0.00762833
-0.00658163
0.00818463
-0.00667293
-0.0067383
0.00876232
7.82292e-06
-0.00793322
3.42583e-05
-0.00728403
8.13114e-05
-0.00675626
0.000150288
-0.00633217
0.000242012
-0.00599682
0.000356947
-0.00573739
0.000495274
-0.00554291
0.000656961
-0.00540397
0.000841805
-0.00531248
0.00104947
-0.00526151
0.0012795
-0.00524508
0.00153139
-0.00525803
0.00180452
-0.00529591
0.00209826
-0.0053549
0.0024119
-0.0054317
0.00274475
-0.00552344
0.00309609
-0.00562769
0.00346521
-0.00574237
0.00385147
-0.00586567
0.00425434
-0.0059961
0.00467343
-0.00613234
0.00510861
-0.00627326
0.00556011
-0.00641776
0.00602859
-0.00656465
0.00651525
-0.00671247
0.00702182
-0.00685907
0.00755044
-0.00700131
0.00810327
-0.00713445
0.00868167
-0.00725134
-0.00734166
0.00928504
9.1715e-06
-0.00794239
3.94596e-05
-0.00731432
9.26152e-05
-0.00680942
0.000169733
-0.00640929
0.000271475
-0.00609856
0.000398166
-0.00586408
0.000549872
-0.00569461
0.000726453
-0.00558055
0.000927607
-0.00551364
0.0011529
-0.00548681
0.00140181
-0.00549398
0.0016737
-0.00552992
0.00196789
-0.00559011
0.00228364
-0.00567065
0.00262014
-0.00576819
0.00297655
-0.00587985
0.00335199
-0.00600314
0.00374557
-0.00613595
0.0041564
-0.0062765
0.00458363
-0.00642333
0.00502652
-0.00657523
0.00548452
-0.00673126
0.00595742
-0.00689065
0.00644549
-0.00705273
0.00694974
-0.00721672
0.00747205
-0.00738138
0.00801527
-0.00754453
0.008583
-0.00770218
0.00917862
-0.00784696
-0.00796609
0.00980305
1.06156e-05
-0.00795301
4.49488e-05
-0.00734865
0.000104423
-0.00686889
0.000189912
-0.00649478
0.000301914
-0.00621056
0.000440624
-0.00600279
0.000605991
-0.00585998
0.000797766
-0.00577232
0.00101555
-0.00573142
0.00125883
-0.00573008
0.00152697
-0.00576213
0.0018193
-0.00582224
0.00213503
-0.00590584
0.00247336
-0.00600898
0.0028334
-0.00612823
0.0032142
-0.00626066
0.00361479
-0.00640372
0.00403411
-0.00655526
0.00447106
-0.00671345
0.00492451
-0.00687678
0.00539334
-0.00704406
0.00587648
-0.0072144
0.00637309
-0.00738726
0.0068827
-0.00756234
0.00740559
-0.0077396
0.00794315
-0.00791894
0.00849839
-0.00809976
0.00907621
-0.00828001
0.00968284
-0.00845359
-0.00860516
0.0103219
1.22239e-05
-0.00796523
5.08086e-05
-0.00738723
0.000116769
-0.00693485
0.00021078
-0.00658879
0.000333205
-0.00633298
0.000484108
-0.00615369
0.000663318
-0.00603919
0.000870476
-0.00597948
0.00110509
-0.00596603
0.00136653
-0.00599153
0.00165413
-0.00604973
0.00196711
-0.00613523
0.00230466
-0.00624339
0.0026659
-0.00637022
0.00304991
-0.00651224
0.00345572
-0.00666646
0.00388228
-0.00683028
0.00432848
-0.00700147
0.00479314
-0.00717811
0.00527496
-0.0073586
0.00577252
-0.00754163
0.00628435
-0.00772623
0.00680889
-0.0079118
0.00734471
-0.00809816
0.00789075
-0.00828565
0.00844691
-0.0084751
0.00901489
-0.00866774
0.00959951
-0.00886463
0.0102099
-0.009064
-0.00925312
0.0108579
1.42196e-05
-0.00797945
5.72384e-05
-0.00743025
0.000129719
-0.00700733
0.000232288
-0.00669136
0.000365192
-0.00646589
0.000528362
-0.00631686
0.000721491
-0.00623232
0.000944098
-0.00620209
0.00119558
-0.00621751
0.00147523
-0.00627118
0.00178227
-0.00635678
0.0021159
-0.00646885
0.00247523
-0.00660273
0.00285939
-0.00675437
0.00326743
-0.00692028
0.0036984
-0.00709743
0.0041513
-0.00728319
0.00462509
-0.00747526
0.00511865
-0.00767166
0.00563074
-0.00787069
0.00615999
-0.00807088
0.00670483
-0.00827106
0.00726338
-0.00847035
0.00783346
-0.00866824
0.00841261
-0.0088648
0.00899836
-0.00906085
0.00958903
-0.00925841
0.0101857
-0.0094613
0.0107976
-0.00967593
-0.00991502
0.0114595
1.74143e-05
-0.00799687
6.46247e-05
-0.00747746
0.000143335
-0.00708604
0.000254327
-0.00680235
0.000397665
-0.00660923
0.000573082
-0.00649228
0.000780102
-0.00643934
0.0010181
-0.00644009
0.00128634
-0.00648575
0.00158402
-0.00656887
0.00191029
-0.00668304
0.00226426
-0.00682282
0.00264502
-0.00698349
0.00305167
-0.00716101
0.00348328
-0.0073519
0.00393897
-0.00755312
0.00441784
-0.00776205
0.00491901
-0.00797643
0.00544163
-0.00819428
0.00598483
-0.00841389
0.00654772
-0.00863378
0.00712938
-0.00885272
0.0077287
-0.00906967
0.00834432
-0.00928386
0.0089744
-0.00949488
0.00961646
-0.00970291
0.0102671
-0.00990903
0.0109209
-0.0101151
0.0115732
-0.0103282
-0.0105711
0.0122293
0.00899275
4.60769e-05
-0.00903883
0.00894762
4.51314e-05
0.00890278
4.48392e-05
0.0088581
4.46866e-05
0.00881358
4.45142e-05
0.00876932
4.42659e-05
0.0087254
4.39197e-05
0.00868193
4.34693e-05
0.00863901
4.29151e-05
0.00859675
4.2261e-05
0.00855524
4.15119e-05
0.00851457
4.06733e-05
0.00847482
3.97513e-05
0.00843606
3.87518e-05
0.00839838
3.76809e-05
0.00836184
3.65446e-05
0.00832649
3.53488e-05
0.00829239
3.40991e-05
0.00825959
3.28006e-05
0.00822813
3.14585e-05
0.00819805
3.00777e-05
0.00816939
2.86627e-05
0.00814217
2.72177e-05
0.00811643
2.57471e-05
0.00809217
2.42529e-05
0.00806944
2.27318e-05
0.00804828
2.11648e-05
0.00802878
1.94924e-05
0.00801128
1.75071e-05
1.44117e-05
0.0102846
0.000164625
-0.0104032
0.0101649
0.000164847
0.0100446
0.000165182
0.00992387
0.000165378
0.00980309
0.00016529
0.00968251
0.000164846
0.00956242
0.000164015
0.0094431
0.000162786
0.00932485
0.000161162
0.00920796
0.000159154
0.0090927
0.000156777
0.00897932
0.000154049
0.00886808
0.000150989
0.00875922
0.000147619
0.00865294
0.000143958
0.00854946
0.000140028
0.00844896
0.00013585
0.00835161
0.000131443
0.00825758
0.000126827
0.00816702
0.00012202
0.00808006
0.000117038
0.00799683
0.0001119
0.00791743
0.000106618
0.00784197
0.000101206
0.00777055
9.56711e-05
0.00770327
9.00096e-05
0.00764024
8.4194e-05
0.00758159
7.81476e-05
0.00752742
7.1675e-05
6.43675e-05
0.0115416
0.000343635
-0.0117206
0.0113598
0.000346636
0.011176
0.000348961
0.0109908
0.000350548
0.0108048
0.000351323
0.0106184
0.000351243
0.0104321
0.000350285
0.0102465
0.000348447
0.0100619
0.000345741
0.00987884
0.000342189
0.00969779
0.000337822
0.00951917
0.000332673
0.00934338
0.000326782
0.00917081
0.000320189
0.00900183
0.000312937
0.00883679
0.000305068
0.00867601
0.000296625
0.00851981
0.000287648
0.00836846
0.000278179
0.00822222
0.000268254
0.00808135
0.000257911
0.00794607
0.000247183
0.00781658
0.000236102
0.00769309
0.000224696
0.00757577
0.000212987
0.0074648
0.000200986
0.00736031
0.000188685
0.00726241
0.000176048
0.00717109
0.000162991
0.000149415
0.0127539
0.000572365
-0.0129827
0.0125208
0.000579739
0.0122842
0.000585588
0.0120448
0.000589917
0.0118034
0.00059271
0.0115607
0.000593951
0.0113174
0.000593638
0.011074
0.000591783
0.0108314
0.000588413
0.01059
0.000583565
0.0103505
0.000577287
0.0101136
0.000569634
0.00987968
0.000560669
0.00964942
0.000550454
0.0094233
0.00053906
0.00920181
0.000526554
0.00898543
0.000513007
0.00877459
0.000498485
0.00856972
0.000483055
0.00837119
0.00046678
0.00817938
0.000449722
0.00799462
0.000431938
0.00781724
0.000413483
0.00764753
0.000394409
0.00748576
0.000374761
0.00733216
0.000354582
0.00718694
0.000333903
0.00705024
0.00031275
0.00692209
0.000291145
0.000269152
0.0139138
0.000841063
-0.0141825
0.0136389
0.000854565
0.0133589
0.000865627
0.0130745
0.00087427
0.0127868
0.000880501
0.0124964
0.000884325
0.0122043
0.000885757
0.0119112
0.000884825
0.0116181
0.000881568
0.0113256
0.000876044
0.0110346
0.000868317
0.0107457
0.000858466
0.0104598
0.000846575
0.0101775
0.000832737
0.00989955
0.000817047
0.0096265
0.000799604
0.009359
0.000780507
0.00909763
0.000759854
0.00884294
0.000737742
0.00859545
0.000714264
0.00835567
0.000689509
0.00812404
0.000663564
0.00790101
0.000636511
0.00768699
0.000608433
0.00748234
0.000579408
0.00728741
0.00054952
0.00710246
0.000518851
0.00692771
0.000487494
0.0067633
0.000455563
0.000423223
0.0150149
0.001141
-0.0153148
0.0147069
0.00116251
0.0143919
0.00118061
0.0140709
0.0011953
0.0137448
0.00120659
0.0134146
0.00121449
0.0130814
0.00121902
0.012746
0.00122023
0.0124094
0.00121816
0.0120725
0.00121289
0.0117364
0.0012045
0.0114017
0.00119309
0.0110695
0.00117877
0.0107406
0.00116165
0.0104158
0.00114186
0.0100959
0.00111954
0.00978157
0.0010948
0.00947364
0.00106778
0.00917277
0.00103862
0.0088796
0.00100743
0.00859478
0.000974331
0.0083189
0.000939449
0.00805251
0.000902896
0.00779616
0.000864787
0.00755032
0.000825242
0.00731545
0.000784387
0.00709194
0.000742364
0.0068801
0.000699336
0.00668016
0.000655499
0.000611106
0.0160526
0.0014644
-0.016376
0.0157193
0.00149588
0.0153769
0.00152292
0.0150267
0.0015455
0.0146697
0.0015636
0.014307
0.00157724
0.0139396
0.00158643
0.0135686
0.00159122
0.0131951
0.00159166
0.0128201
0.00158783
0.0124448
0.00157984
0.0120701
0.00156779
0.0116971
0.00155183
0.0113266
0.00153208
0.0109598
0.0015087
0.0105975
0.00148186
0.0102406
0.00145171
0.00988993
0.00141842
0.00954641
0.00138214
0.00921079
0.00134305
0.00888384
0.00130128
0.0085663
0.00125699
0.00825887
0.00121033
0.0079622
0.00116145
0.00767694
0.00111051
0.00740364
0.00105768
0.00714283
0.00100317
0.00689495
0.000947214
0.00666037
0.000890087
0.000832133
0.017024
0.00180436
-0.017364
0.0166721
0.0018478
0.0163093
0.00188573
0.0159367
0.0019181
0.0155554
0.00194486
0.0151666
0.00196602
0.0147715
0.00198156
0.0143712
0.00199153
0.0139669
0.00199599
0.0135597
0.00199501
0.0131508
0.00198869
0.0127415
0.00197718
0.0123327
0.0019606
0.0119256
0.00193913
0.0115214
0.00191295
0.011121
0.00188224
0.0107255
0.00184719
0.0103359
0.001808
0.00995321
0.00176486
0.0095783
0.00171795
0.0092121
0.00166747
0.00885549
0.0016136
0.00850932
0.00155651
0.00817439
0.00149638
0.00785148
0.00143342
0.0075413
0.00136786
0.00724453
0.00129994
0.00696176
0.00122999
0.00669347
0.00115837
0.00108552
0.0179273
0.00215482
-0.0182777
0.0175629
0.00221216
0.0171857
0.00226293
0.0167968
0.00230701
0.0163973
0.00234434
0.0159885
0.00237485
0.0155715
0.00239855
0.0151476
0.00241543
0.014718
0.00242554
0.0142841
0.00242896
0.013847
0.00242578
0.013408
0.00241616
0.0129684
0.00240023
0.0125294
0.00237818
0.0120921
0.00235021
0.0116578
0.00231652
0.0112277
0.00227734
0.0108028
0.00223289
0.0103842
0.00218338
0.00997316
0.00212905
0.00957055
0.00207008
0.00917744
0.0020067
0.00879483
0.00193912
0.00842368
0.00186753
0.00806493
0.00179218
0.00771946
0.00171333
0.0073881
0.0016313
0.00707161
0.00154648
0.00677064
0.00145933
0.00137041
0.0187618
0.00251045
-0.0191174
0.0183903
0.0025836
0.0180042
0.0026491
0.0176044
0.00270681
0.0171921
0.00275659
0.0167686
0.00279834
0.0163351
0.00283202
0.015893
0.0028576
0.0154434
0.00287512
0.0149877
0.00288461
0.0145273
0.00288618
0.0140635
0.00287996
0.0135977
0.0028661
0.0131311
0.00284479
0.012665
0.00281625
0.0122008
0.0027807
0.0117398
0.00273839
0.0112831
0.00268955
0.0108321
0.00263443
0.0103879
0.00257327
0.00995163
0.00250631
0.00952457
0.00243377
0.00910781
0.00235587
0.00870248
0.00227285
0.00830969
0.00218497
0.0079305
0.00209252
0.00756594
0.00199587
0.00721694
0.00189548
0.00688435
0.00179193
0.0016859
0.0195279
0.00286668
-0.0198841
0.0191541
0.00295742
0.0187637
0.00303949
0.0183578
0.00311267
0.0179377
0.00317676
0.0175044
0.00323161
0.0170593
0.00327713
0.0166037
0.00331325
0.0161388
0.00333995
0.0156662
0.00335727
0.0151871
0.00336528
0.0147029
0.00336409
0.0142152
0.00335386
0.0137252
0.00333478
0.0132344
0.00330706
0.0127441
0.00327094
0.0122558
0.00322668
0.0117709
0.00317454
0.0112905
0.00311478
0.0108161
0.00304765
0.010349
0.00297341
0.00989051
0.00289229
0.00944186
0.00280452
0.00900438
0.00271034
0.00857934
0.00261
0.00816802
0.00250384
0.00777163
0.00239226
0.00739133
0.00227578
0.00702817
0.00215509
0.00203102
0.0202269
0.00321958
-0.0205798
0.0198547
0.00332959
0.0194643
0.00342994
0.0190566
0.00352035
0.0186328
0.00360054
0.0181941
0.00367031
0.0177417
0.00372949
0.017277
0.00377796
0.0168013
0.00381568
0.016316
0.00384261
0.0158224
0.00385882
0.0153221
0.00386438
0.0148166
0.00385944
0.0143072
0.00384417
0.0137954
0.00381879
0.0132828
0.00378355
0.0127708
0.00373871
0.0122608
0.00368453
0.0117543
0.00362129
0.0112527
0.00354926
0.0107574
0.00346868
0.0102699
0.00337979