/*--------------------------------*- C++ -*----------------------------------*\
  =========                 |
  \\      /  F ield         | OpenFOAM: The Open Source CFD Toolbox
   \\    /   O peration     | Website:  https://openfoam.org
    \\  /    A nd           | Version:  6.0
     \\/     M anipulation  |
\*---------------------------------------------------------------------------*/
FoamFile
{
    version     2.0;
    format      ascii;
    class       surfaceScalarField;
    location    "3";
    object      phi;
}
// * * * * * * * * * * * * * * * * * * * * * * * * * * * * * * * * * * * * * //

dimensions      [0 3 -1 0 0 0 0];

internalField   nonuniform List<scalar> 
38030
(
-4.36011e-05
-0.324503
0.324547
-2.80534e-05
-0.310211
0.310196
2.21427e-05
-0.296849
0.296798
9.03028e-05
-0.2842
0.284132
0.000169043
-0.272208
0.272129
0.000252341
-0.260754
0.260671
0.000335639
-0.249763
0.24968
0.000416114
-0.239194
0.239114
0.000492275
-0.229025
0.228949
0.000563524
-0.219241
0.21917
0.000629833
-0.209833
0.209766
0.000691497
-0.200791
0.200729
0.00074897
-0.192107
0.19205
0.000802749
-0.183774
0.18372
0.000853308
-0.175781
0.175731
0.000901087
-0.16812
0.168072
0.000946492
-0.160779
0.160734
0.00098992
-0.15375
0.153707
0.0010318
-0.147023
0.146981
0.00107262
-0.140588
0.140547
0.00111294
-0.134435
0.134394
0.0011534
-0.128552
0.128512
0.00119464
-0.122931
0.12289
0.00123722
-0.11756
0.117517
0.00128165
-0.112427
0.112383
0.00132833
-0.107521
0.107475
0.00137737
-0.10283
0.102781
0.00142837
-0.0983422
0.0982912
0.00148034
-0.0940458
0.0939939
-0.0899317
0.0898804
0.00153168
-2.43436e-05
-0.324479
-7.56093e-06
-0.310228
4.19209e-05
-0.296898
0.000109991
-0.284268
0.000188499
-0.272286
0.000271584
-0.260837
0.000354828
-0.249846
0.000435376
-0.239275
0.000511707
-0.229102
0.000583226
-0.219313
0.00064992
-0.209899
0.000712103
-0.200853
0.000770238
-0.192166
0.000824827
-0.183829
0.000876346
-0.175833
0.000925227
-0.168168
0.000971861
-0.160826
0.00101663
-0.153795
0.00105994
-0.147066
0.00110227
-0.14063
0.00114419
-0.134476
0.00118636
-0.128595
0.00122945
-0.122974
0.00127404
-0.117604
0.00132067
-0.112474
0.00136984
-0.107571
0.0014218
-0.102882
0.00147629
-0.0983967
0.00153245
-0.094102
-0.089988
0.00158876
-6.26423e-06
-0.324473
1.21996e-05
-0.310247
6.00371e-05
-0.296946
0.000127814
-0.284336
0.00020657
-0.272365
0.000289913
-0.26092
0.000373389
-0.24993
0.000454177
-0.239356
0.000530778
-0.229178
0.000602627
-0.219385
0.000669742
-0.209966
0.000732462
-0.200916
0.000791269
-0.192224
0.000846676
-0.183884
0.000899164
-0.175885
0.000949156
-0.168218
0.00099703
-0.160874
0.00104315
-0.153841
0.00108791
-0.147111
0.00113176
-0.140674
0.00117528
-0.13452
0.00121914
-0.128639
0.00126407
-0.123019
0.00131066
-0.117651
0.00135958
-0.112523
0.0014112
-0.107622
0.00146605
-0.102937
0.001524
-0.0984546
0.0015843
-0.0941623
-0.0900493
0.00164559
-4.73738e-07
-0.324472
2.37449e-05
-0.310271
7.40011e-05
-0.296996
0.000143146
-0.284405
0.000222952
-0.272445
0.000307051
-0.261004
0.00039106
-0.250014
0.000472264
-0.239437
0.000549244
-0.229255
0.000621491
-0.219457
0.000689069
-0.210034
0.000752354
-0.200979
0.000811852
-0.192284
0.000868093
-0.18394
0.000921561
-0.175939
0.000972675
-0.16827
0.0010218
-0.160923
0.00106929
-0.153889
0.00111551
-0.147157
0.0011609
-0.14072
0.00120602
-0.134565
0.00125156
-0.128684
0.00129829
-0.123066
0.00134692
-0.1177
0.00139804
-0.112574
0.00145226
-0.107676
0.00150994
-0.102995
0.0015713
-0.098516
0.00163572
-0.0942267
-0.0901155
0.00170196
4.27669e-06
-0.324476
3.29638e-05
-0.310299
8.5918e-05
-0.297049
0.000156811
-0.284476
0.00023796
-0.272526
0.000323067
-0.26109
0.000407809
-0.250098
0.000489565
-0.239519
0.000567005
-0.229333
0.0006397
-0.21953
0.00070777
-0.210102
0.000771634
-0.201043
0.000831829
-0.192344
0.000888902
-0.183997
0.000943348
-0.175993
0.000995586
-0.168322
0.00104597
-0.160973
0.00109484
-0.153937
0.00114254
-0.147205
0.00118948
-0.140766
0.00123622
-0.134612
0.00128345
-0.128731
0.00133195
-0.123114
0.00138251
-0.11775
0.00143576
-0.112627
0.00149252
-0.107733
0.00155312
-0.103055
0.00161787
-0.0985807
0.00168637
-0.0942952
-0.0901867
0.00175753
6.94515e-06
-0.324483
3.94256e-05
-0.310332
9.55398e-05
-0.297105
0.00016874
-0.284549
0.000251584
-0.272609
0.00033793
-0.261176
0.00042356
-0.250184
0.000505968
-0.239601
0.000583934
-0.229411
0.000657113
-0.219603
0.000725691
-0.210171
0.000790137
-0.201107
0.000851026
-0.192405
0.000908925
-0.184055
0.000964338
-0.176049
0.00101769
-0.168375
0.00106933
-0.161025
0.00111958
-0.153988
0.00116875
-0.147254
0.00121725
-0.140815
0.00126562
-0.13466
0.00131453
-0.12878
0.00136475
-0.123165
0.00141717
-0.117803
0.00147261
-0.112682
0.00153172
-0.107792
0.00159524
-0.103119
0.00166337
-0.0986489
0.00173593
-0.0943678
-0.0902627
0.00181198
9.14297e-06
-0.324492
4.47661e-05
-0.310368
0.000103827
-0.297164
0.000179413
-0.284625
0.000264068
-0.272693
0.000351747
-0.261264
0.000438338
-0.250271
0.000521448
-0.239684
0.000599967
-0.229489
0.000673638
-0.219676
0.000742719
-0.21024
0.000807734
-0.201172
0.000869294
-0.192467
0.000927994
-0.184114
0.000984353
-0.176105
0.0010388
-0.16843
0.00109167
-0.161078
0.00114326
-0.154039
0.00119389
-0.147305
0.00124393
-0.140865
0.00129388
-0.13471
0.00134441
-0.128831
0.00139636
-0.123217
0.0014507
-0.117857
0.00150825
-0.11274
0.00156986
-0.107854
0.00163607
-0.103185
0.00170751
-0.0987203
0.00178407
-0.0944443
-0.0903437
0.00186499
1.08054e-05
-0.324503
4.91346e-05
-0.310406
0.000110991
-0.297226
0.000188981
-0.284703
0.00027551
-0.27278
0.000364568
-0.261353
0.000452147
-0.250358
0.000535969
-0.239768
0.000615036
-0.229568
0.000689183
-0.219751
0.000758742
-0.210309
0.000824294
-0.201238
0.000886487
-0.192529
0.000945947
-0.184173
0.00100321
-0.176162
0.0010587
-0.168485
0.00111277
-0.161132
0.00116569
-0.154092
0.00121774
-0.147357
0.00126928
-0.140917
0.00132078
-0.134762
0.00137291
-0.128883
0.00142655
-0.12327
0.00148273
-0.117913
0.00154239
-0.1128
0.00160636
-0.107918
0.00167538
-0.103254
0.00174999
-0.0987949
0.00183048
-0.0945248
-0.0904294
0.0019162
1.22185e-05
-0.324515
5.29374e-05
-0.310447
0.000117397
-0.297291
0.000197704
-0.284783
0.000286067
-0.272868
0.000376481
-0.261443
0.000465021
-0.250447
0.000549526
-0.239853
0.000629103
-0.229648
0.00070368
-0.219825
0.000773668
-0.210379
0.000839697
-0.201304
0.000902467
-0.192592
0.000962629
-0.184234
0.00102073
-0.17622
0.00107722
-0.168542
0.00113243
-0.161187
0.00118663
-0.154146
0.00124007
-0.14741
0.00129308
-0.14097
0.00134612
-0.134815
0.00139983
-0.128937
0.0014551
-0.123326
0.00151298
-0.117971
0.00157458
-0.112861
0.00164077
-0.107984
0.00171263
-0.103326
0.00179044
-0.0988727
0.00187478
-0.0946092
-0.0905199
0.00196525
1.3408e-05
-0.324529
5.62924e-05
-0.310489
0.000123187
-0.297358
0.000205712
-0.284866
0.000295843
-0.272958
0.000387547
-0.261535
0.000476986
-0.250536
0.00056211
-0.239938
0.000642128
-0.229728
0.000717067
-0.2199
0.000787406
-0.21045
0.000853837
-0.20137
0.000917103
-0.192655
0.000977882
-0.184294
0.00103675
-0.176279
0.00109416
-0.168599
0.00115043
-0.161243
0.00120584
-0.154202
0.00126061
-0.147465
0.00131505
-0.141024
0.00136957
-0.134869
0.00142481
-0.128992
0.00148165
-0.123382
0.00154112
-0.11803
0.00160449
-0.112925
0.00167293
-0.108052
0.00174729
-0.1034
0.00182842
-0.0989539
0.00191654
-0.0946973
-0.090615
0.00201171
1.44429e-05
-0.324543
5.93184e-05
-0.310534
0.000128511
-0.297427
0.00021314
-0.28495
0.000304934
-0.27305
0.000397829
-0.261628
0.000488074
-0.250626
0.000573719
-0.240023
0.000654087
-0.229808
0.00072929
-0.219975
0.000799879
-0.21052
0.000866612
-0.201437
0.000930266
-0.192718
0.000991559
-0.184356
0.00105109
-0.176339
0.00110931
-0.168657
0.00116655
-0.1613
0.00122307
-0.154258
0.00127909
-0.147521
0.00133487
-0.14108
0.00139081
-0.134925
0.0014475
-0.129049
0.0015058
-0.123441
0.00156683
-0.118091
0.00163191
-0.11299
0.00170234
-0.108123
0.00177915
-0.103477
0.00186342
-0.0990381
0.00195533
-0.0947892
-0.0907148
0.00205512
1.53461e-05
-0.324559
6.2071e-05
-0.310581
0.000133454
-0.297498
0.000220073
-0.285037
0.000313412
-0.273144
0.000407382
-0.261722
0.000498308
-0.250717
0.000584359
-0.240109
0.000664957
-0.229889
0.000740302
-0.220051
0.000811021
-0.210591
0.000877925
-0.201504
0.000941841
-0.192782
0.00100352
-0.184417
0.00106357
-0.176399
0.00112248
-0.168716
0.00118057
-0.161359
0.00123809
-0.154316
0.00129524
-0.147578
0.00135226
-0.141137
0.00140951
-0.134982
0.00146756
-0.129107
0.00152726
-0.1235
0.00158975
-0.118154
0.00165636
-0.113056
0.00172858
-0.108195
0.00180778
-0.103556
0.00189489
-0.0991252
0.00199064
-0.0948849
-0.0908192
0.00209499
1.61284e-05
-0.324575
6.46096e-05
-0.31063
0.00013809
-0.297572
0.000226592
-0.285125
0.000321343
-0.273238
0.00041625
-0.261817
0.000507721
-0.250809
0.000594038
-0.240196
0.000674725
-0.229969
0.000750068
-0.220126
0.00082077
-0.210662
0.000887695
-0.201571
0.000951719
-0.192846
0.00101362
-0.184479
0.00107405
-0.176459
0.00113348
-0.168775
0.00119227
-0.161417
0.00125064
-0.154374
0.00130878
-0.147637
0.0013669
-0.141195
0.00142533
-0.135041
0.00148463
-0.129166
0.00154561
-0.123561
0.0016094
-0.118218
0.00167744
-0.113124
0.00175132
-0.108269
0.00183261
-0.103638
0.00192244
-0.0992151
0.00202183
-0.0949843
-0.0909281
0.00213075
1.68004e-05
-0.324592
6.69649e-05
-0.31068
0.000142484
-0.297647
0.000232765
-0.285216
0.000328795
-0.273334
0.000424487
-0.261912
0.000516349
-0.250901
0.000602773
-0.240282
0.000683385
-0.23005
0.000758562
-0.220201
0.000829075
-0.210732
0.000895847
-0.201638
0.000959796
-0.19291
0.00102174
-0.184541
0.00108235
-0.17652
0.00114213
-0.168835
0.00120142
-0.161477
0.00126045
-0.154433
0.0013194
-0.147695
0.00137846
-0.141254
0.00143792
-0.1351
0.0014983
-0.129226
0.00156041
-0.123623
0.00162538
-0.118283
0.0016947
-0.113194
0.00177002
-0.108344
0.00185313
-0.103721
0.00194556
-0.0993075
0.00204821
-0.095087
-0.0910417
0.00216182
1.73648e-05
-0.324609
6.91807e-05
-0.310732
0.000146697
-0.297725
0.000238657
-0.285308
0.00033583
-0.273432
0.000432147
-0.262009
0.00052423
-0.250993
0.000610588
-0.240368
0.000690946
-0.23013
0.000765772
-0.220276
0.000835904
-0.210802
0.000902323
-0.201704
0.000965991
-0.192974
0.00102776
-0.184603
0.00108834
-0.17658
0.00114823
-0.168895
0.0012078
-0.161536
0.00126727
-0.154493
0.00132682
-0.147755
0.00138659
-0.141314
0.00144688
-0.135161
0.00150816
-0.129288
0.00157121
-0.123686
0.00163718
-0.118349
0.00170756
-0.113264
0.00178417
-0.108421
0.00186893
-0.103806
0.00196363
-0.0994022
0.00206957
-0.0951929
-0.0911597
0.00218754
1.78299e-05
-0.324627
7.13012e-05
-0.310785
0.0001508
-0.297804
0.000244352
-0.285401
0.000342518
-0.27353
0.000439294
-0.262105
0.000531421
-0.251085
0.000617522
-0.240455
0.000697432
-0.23021
0.0007717
-0.22035
0.000841236
-0.210872
0.000907076
-0.20177
0.000970231
-0.193037
0.00103159
-0.184664
0.00109187
-0.176641
0.00115162
-0.168955
0.0012112
-0.161596
0.00127085
-0.154552
0.00133072
-0.147815
0.00139095
-0.141374
0.0014518
-0.135221
0.00151372
-0.129349
0.00157747
-0.12375
0.00164421
-0.118415
0.00171548
-0.113335
0.00179319
-0.108499
0.00187938
-0.103892
0.0019761
-0.0994989
0.00208503
-0.0953018
-0.0912815
0.00220692
1.82031e-05
-0.324645
7.33806e-05
-0.31084
0.00015488
-0.297886
0.000249934
-0.285496
0.000348948
-0.273629
0.000446006
-0.262202
0.000537983
-0.251177
0.000623629
-0.24054
0.000702881
-0.23029
0.000776368
-0.220424
0.000845073
-0.21094
0.00091009
-0.201835
0.00097247
-0.1931
0.00103314
-0.184725
0.00109284
-0.1767
0.00115214
-0.169014
0.00121142
-0.161655
0.00127093
-0.154612
0.0013308
-0.147875
0.00139117
-0.141434
0.00145226
-0.135283
0.00151449
-0.129412
0.00157862
-0.123814
0.0016458
-0.118483
0.00171764
-0.113407
0.00179611
-0.108577
0.00188344
-0.103979
0.00198187
-0.0995974
0.00209329
-0.0954133
-0.0914073
0.00221905
1.85044e-05
-0.324663
7.54963e-05
-0.310897
0.000159037
-0.297969
0.000255518
-0.285593
0.000355226
-0.273728
0.000452384
-0.2623
0.000544013
-0.251268
0.000628987
-0.240625
0.000707351
-0.230368
0.000779818
-0.220496
0.000847441
-0.211008
0.000911366
-0.201899
0.000972688
-0.193161
0.00103236
-0.184785
0.00109116
-0.176759
0.00114968
-0.169073
0.00120831
-0.161714
0.00126729
-0.154671
0.00132678
-0.147934
0.00138689
-0.141494
0.00144781
-0.135343
0.00150994
-0.129474
0.00157401
-0.123878
0.0016412
-0.11855
0.00171313
-0.113479
0.00179191
-0.108656
0.00187994
-0.104067
0.00197968
-0.0996971
0.0020934
-0.095527
-0.0915367
0.0022228
1.87762e-05
-0.324682
7.77633e-05
-0.310956
0.000163416
-0.298055
0.000261234
-0.28569
0.000361478
-0.273829
0.000458541
-0.262397
0.000549611
-0.25136
0.000633693
-0.240709
0.000710928
-0.230445
0.000782122
-0.220567
0.000848392
-0.211074
0.000910939
-0.201961
0.000970896
-0.193221
0.00102925
-0.184843
0.0010868
-0.176817
0.00114414
-0.16913
0.00120171
-0.161771
0.00125975
-0.154729
0.00131841
-0.147993
0.00137778
-0.141554
0.00143805
-0.135404
0.00149957
-0.129535
0.00156307
-0.123942
0.0016297
-0.118616
0.00170118
-0.113551
0.00177971
-0.108734
0.00186787
-0.104155
0.00196843
-0.0997977
0.00208402
-0.0956426
-0.0916694
0.0022167
1.9081e-05
-0.324701
8.03283e-05
-0.311017
0.000168185
-0.298143
0.000267253
-0.285789
0.000367859
-0.273929
0.000464626
-0.262493
0.000554917
-0.25145
0.000637864
-0.240792
0.000713718
-0.230521
0.000783372
-0.220637
0.000848008
-0.211139
0.000908878
-0.202022
0.000967149
-0.193279
0.00102383
-0.1849
0.00107975
-0.176873
0.00113551
-0.169186
0.00119156
-0.161827
0.00124816
-0.154786
0.00130546
-0.14805
0.00136355
-0.141612
0.00142257
-0.135463
0.00148287
-0.129596
0.00154514
-0.124004
0.00161056
-0.118682
0.00168089
-0.113621
0.00175846
-0.108812
0.00184606
-0.104243
0.00194675
-0.0998983
0.00206355
-0.0957594
-0.0918048
0.00219898
1.95367e-05
-0.324721
8.34037e-05
-0.311081
0.000173563
-0.298233
0.000273779
-0.28589
0.000374561
-0.27403
0.000470815
-0.26259
0.000560087
-0.251539
0.00064165
-0.240874
0.00071586
-0.230595
0.000783697
-0.220705
0.000846412
-0.211202
0.000905295
-0.202081
0.000961548
-0.193335
0.0010162
-0.184954
0.00107008
-0.176927
0.00112382
-0.16924
0.00117786
-0.161881
0.00123248
-0.15484
0.00128782
-0.148106
0.00134397
-0.141668
0.00140105
-0.13552
0.00145938
-0.129654
0.00151961
-0.124064
0.00158296
-0.118745
0.00165124
-0.113689
0.00172693
-0.108888
0.00181305
-0.104329
0.00191297
-0.0999983
0.00203013
-0.0958765
-0.0919423
0.00216765
2.03351e-05
-0.324741
8.72774e-05
-0.311148
0.000179842
-0.298325
0.000281077
-0.285991
0.000381821
-0.274131
0.000477316
-0.262685
0.000565312
-0.251627
0.000645216
-0.240954
0.000717508
-0.230668
0.000783246
-0.220771
0.000843746
-0.211262
0.000900339
-0.202138
0.000954241
-0.193389
0.00100649
-0.185007
0.00105793
-0.176978
0.00110918
-0.169291
0.0011607
-0.161933
0.00121275
-0.154892
0.00126547
-0.148158
0.00131895
-0.141722
0.00137326
-0.135574
0.0014287
-0.129709
0.00148592
-0.124122
0.00154611
-0.118805
0.00161119
-0.113754
0.00168381
-0.10896
0.00176724
-0.104412
0.00186521
-0.100096
0.00198163
-0.0959929
-0.0920809
0.00212022
2.18081e-05
-0.324763
9.24027e-05
-0.311219
0.000187426
-0.29842
0.000289489
-0.286093
0.000389924
-0.274231
0.000484367
-0.26278
0.000570791
-0.251714
0.000648753
-0.241032
0.000718837
-0.230738
0.000782196
-0.220834
0.000840196
-0.21132
0.000894198
-0.202192
0.000945432
-0.19344
0.000994936
-0.185056
0.00104353
-0.177027
0.00109184
-0.169339
0.0011403
-0.161981
0.00118916
-0.154941
0.00123855
-0.148208
0.00128852
-0.141772
0.00133914
-0.135625
0.00139063
-0.129761
0.0014436
-0.124175
0.00149927
-0.118861
0.00155966
-0.113815
0.00162763
-0.109028
0.00170678
-0.104492
0.00180122
-0.100191
0.00191536
-0.0961071
-0.0922192
0.0020536
2.44953e-05
-0.324788
9.94614e-05
-0.311294
0.000196851
-0.298518
0.000299416
-0.286196
0.00039918
-0.274331
0.000492217
-0.262873
0.000576735
-0.251798
0.000652442
-0.241107
0.000720031
-0.230805
0.000780733
-0.220895
0.000835965
-0.211375
0.000887106
-0.202243
0.000935386
-0.193489
0.000981821
-0.185103
0.00102721
-0.177072
0.00107215
-0.169384
0.00111704
-0.162026
0.0011621
-0.154986
0.00120742
-0.148253
0.00125301
-0.141817
0.00129886
-0.135671
0.00134515
-0.129807
0.00139241
-0.124222
0.00144186
-0.11891
0.0014956
-0.113868
0.00155679
-0.109089
0.00162944
-0.104564
0.00171813
-0.100279
0.00182778
-0.0962167
-0.0923549
0.00196353
2.92564e-05
-0.324817
0.000109331
-0.311374
0.000208668
-0.298617
0.000311218
-0.286298
0.000409866
-0.27443
0.000501102
-0.262964
0.000583358
-0.25188
0.000656483
-0.24118
0.000721286
-0.23087
0.000779069
-0.220953
0.000831288
-0.211428
0.000879332
-0.202291
0.000924414
-0.193534
0.000967522
-0.185146
0.00100941
-0.177114
0.00105062
-0.169425
0.00109148
-0.162067
0.00113217
-0.155027
0.00117271
-0.148294
0.00121303
-0.141857
0.00125302
-0.135711
0.00129273
-0.129847
0.00133256
-0.124262
0.00137365
-0.118952
0.00141819
-0.113913
0.00146965
-0.109141
0.00153262
-0.104627
0.00161228
-0.100359
0.00171412
-0.0963186
-0.0924852
0.00184442
3.71658e-05
-0.324854
0.000122789
-0.311459
0.00022328
-0.298718
0.000325209
-0.2864
0.000422298
-0.274527
0.000511302
-0.263053
0.000590887
-0.25196
0.000661078
-0.241251
0.000722794
-0.230932
0.000777408
-0.221007
0.000826406
-0.211477
0.000871171
-0.202336
0.000912884
-0.193576
0.000952485
-0.185185
0.000990662
-0.177152
0.00102788
-0.169463
0.0010644
-0.162104
0.00110028
-0.155063
0.00113545
-0.148329
0.0011697
-0.141892
0.00120277
-0.135744
0.00123449
-0.129879
0.00126503
-0.124292
0.0012953
-0.118982
0.00132745
-0.113945
0.00136524
-0.109179
0.001414
-0.104676
0.00147995
-0.100425
0.00156963
-0.0964083
-0.0926069
0.00169127
4.92544e-05
-0.324903
0.000140517
-0.311551
0.000241391
-0.298819
0.000342066
-0.286501
0.00043698
-0.274622
0.000523141
-0.263139
0.000599515
-0.252036
0.000666346
-0.241317
0.000724665
-0.23099
0.000775894
-0.221058
0.000821514
-0.211522
0.000862892
-0.202377
0.00090116
-0.193614
0.000937188
-0.185221
0.00097159
-0.177186
0.00100473
-0.169496
0.00103675
-0.162136
0.00106759
-0.155094
0.00109701
-0.148358
0.00112462
-0.141919
0.00114993
-0.135769
0.00117243
-0.129901
0.00119192
-0.124312
0.00120884
-0.118999
0.00122502
-0.113961
0.00124433
-0.109198
0.00127295
-0.104705
0.00131871
-0.100471
0.00139041
-0.09648
-0.092714
0.00149749
6.72912e-05
-0.32497
0.000165312
-0.311649
0.000265579
-0.298919
0.0003633
-0.286598
0.000454553
-0.274713
0.000536784
-0.263221
0.000609213
-0.252109
0.000672212
-0.24138
0.000726848
-0.231045
0.000774525
-0.221106
0.000816698
-0.211564
0.000854679
-0.202415
0.000889542
-0.193649
0.000922081
-0.185254
0.000952815
-0.177217
0.000981997
-0.169525
0.00100963
-0.162163
0.0010355
-0.155119
0.00105915
-0.148382
0.00107992
-0.14194
0.00109699
-0.135786
0.00110939
-0.129914
0.00111628
-0.124319
0.00111734
-0.119
0.0011136
-0.113958
0.00110857
-0.109193
0.00110904
-0.104705
0.00112425
-0.100486
0.00116514
-0.0965208
-0.0927874
0.00123857
9.97712e-05
-0.32507
0.000205881
-0.311755
0.00030016
-0.299013
0.000390107
-0.286688
0.000474904
-0.274798
0.000551809
-0.263298
0.000619585
-0.252176
0.00067838
-0.241439
0.000729148
-0.231095
0.000773211
-0.22115
0.000811958
-0.211603
0.00084664
-0.20245
0.000878262
-0.19368
0.000907546
-0.185283
0.00093492
-0.177245
0.000960525
-0.16955
0.000984232
-0.162187
0.00100563
-0.155141
0.00102404
-0.1484
0.00103846
-0.141954
0.00104757
-0.135795
0.00104973
-0.129916
0.00104303
-0.124312
0.00102572
-0.118982
0.000996962
-0.113929
0.000958421
-0.109154
0.000915706
-0.104662
0.000878302
-0.100449
0.00086041
-0.0965029
-0.0927971
0.000870096
0.000173902
-0.325244
0.000268996
-0.31185
0.000343468
-0.299088
0.000420122
-0.286765
0.000496425
-0.274874
0.000567279
-0.263369
0.000630141
-0.252239
0.000684636
-0.241494
0.000731513
-0.231142
0.000772007
-0.221191
0.00080744
-0.211639
0.000839004
-0.202481
0.000867649
-0.193709
0.000894038
-0.185309
0.000918527
-0.177269
0.000941182
-0.169573
0.000961772
-0.162208
0.000979754
-0.155159
0.000994249
-0.148415
0.00100397
-0.141964
0.00100711
-0.135798
0.00100124
-0.12991
0.000983101
-0.124294
0.000948584
-0.118948
0.000893023
-0.113873
0.000812112
-0.109074
0.000703496
-0.104554
0.000568321
-0.100313
0.00041975
-0.0963544
-0.0927706
0.000393329
0.325947
0.00011527
-0.326062
0.325875
7.21765e-05
0.325821
5.36141e-05
0.325778
4.37026e-05
0.32574
3.74085e-05
0.325707
3.34539e-05
0.325675
3.12647e-05
0.325645
3.03167e-05
0.325615
2.99627e-05
0.325585
2.96992e-05
0.325556
2.97426e-05
0.325526
3.00573e-05
0.325495
3.02291e-05
0.325465
3.0271e-05
0.325435
3.01902e-05
0.325405
2.99845e-05
0.325375
2.96494e-05
0.325346
2.91745e-05
0.325318
2.85424e-05
0.32529
2.77427e-05
0.325263
2.67402e-05
0.325238
2.54975e-05
0.325214
2.38932e-05
0.325192
2.1872e-05
0.325173
1.89497e-05
0.325158
1.52282e-05
0.32515
7.98634e-06
0.325151
-1.01682e-06
0.325182
-3.08163e-05
-6.26441e-05
0.313535
0.00017391
-0.313594
0.313467
0.000140433
0.313401
0.000119973
0.313335
0.000108792
0.313271
0.000101773
0.313208
9.70089e-05
0.313145
9.4124e-05
0.313082
9.26501e-05
0.31302
9.2101e-05
0.312958
9.19311e-05
0.312896
9.21278e-05
0.312833
9.27095e-05
0.31277
9.31632e-05
0.312707
9.34508e-05
0.312644
9.35322e-05
0.31258
9.33714e-05
0.312517
9.29341e-05
0.312454
9.21818e-05
0.312391
9.10688e-05
0.31233
8.95523e-05
0.312269
8.75453e-05
0.312209
8.4963e-05
0.312152
8.15887e-05
0.312096
7.72398e-05
0.312044
7.12162e-05
0.311996
6.3264e-05
0.311953
5.06099e-05
0.311918
3.39703e-05
0.311884
3.36328e-06
-2.85138e-05
0.301083
0.00019897
-0.301108
0.301041
0.000181724
0.300992
0.000169108
0.300939
0.000162335
0.300881
0.000158952
0.300821
0.00015725
0.300758
0.000156882
0.300694
0.000157193
0.300628
0.000158237
0.30056
0.000160023
0.30049
0.000161832
0.300419
0.000163719
0.300347
0.000165439
0.300273
0.000166885
0.300199
0.000167988
0.300123
0.000168688
0.300048
0.000168923
0.299971
0.00016864
0.299894
0.000167769
0.299818
0.000166243
0.299741
0.000163957
0.299665
0.000160781
0.299591
0.000156478
0.299517
0.000150807
0.299445
0.000143144
0.299375
0.000133147
0.299307
0.000119171
0.299239
0.000101621
0.299165
7.69416e-05
4.93391e-05
0.288656
0.0002033
-0.288661
0.288639
0.000199044
0.288612
0.000195993
0.288579
0.000195708
0.28854
0.000197612
0.288497
0.000200664
0.288449
0.000204721
0.288397
0.000208909
0.288342
0.000212994
0.288284
0.000218108
0.288223
0.000223287
0.288159
0.000227733
0.288092
0.00023191
0.288024
0.000235621
0.287953
0.000238801
0.28788
0.000241354
0.287806
0.000243218
0.28773
0.000244322
0.287653
0.000244604
0.287576
0.000243982
0.287497
0.00024235
0.287418
0.000239582
0.287339
0.000235467
0.28726
0.000229792
0.287182
0.000222119
0.287102
0.000212195
0.287022
0.000199189
0.286941
0.000183219
0.286855
0.000162896
0.000139199
0.276471
0.000189536
-0.276457
0.276474
0.000195555
0.276469
0.00020145
0.276456
0.000208284
0.276438
0.000216277
0.276413
0.00022496
0.276384
0.000233986
0.27635
0.000242992
0.276311
0.00025206
0.276268
0.000261156
0.276221
0.000269977
0.276171
0.000278144
0.276117
0.000285704
0.27606
0.000292558
0.276
0.00029863
0.275938
0.000303841
0.275873
0.000308118
0.275806
0.000311397
0.275737
0.000313615
0.275666
0.000314701
0.275594
0.000314564
0.27552
0.0003131
0.275446
0.000310154
0.27537
0.00030557
0.275293
0.000299085
0.275214
0.000290523
0.275134
0.000279477
0.275051
0.000265924
0.274965
0.000249376
0.000230179
0.264617
0.00016021
-0.264588
0.264638
0.000174908
0.26465
0.000188965
0.264656
0.000202994
0.264655
0.000217424
0.264647
0.000232027
0.264635
0.000246519
0.264617
0.000260967
0.264594
0.000275079
0.264566
0.00028865
0.264535
0.000301792
0.264499
0.000314103
0.264459
0.000325534
0.264415
0.00033602
0.264369
0.000345485
0.264319
0.000353849
0.264266
0.000361048
0.26421
0.000367019
0.264152
0.000371711
0.264092
0.000375064
0.264029
0.000377012
0.263965
0.000377486
0.263898
0.000376391
0.26383
0.00037363
0.26376
0.000369064
0.263688
0.000362604
0.263614
0.000354061
0.263536
0.000343461
0.263455
0.000330719
0.000316094
0.253161
0.000119035
-0.25312
0.253195
0.000141476
0.253221
0.000163054
0.25324
0.000184056
0.253252
0.000204934
0.253259
0.000225561
0.25326
0.000245614
0.253255
0.000265451
0.253245
0.0002848
0.253231
0.000303189
0.253212
0.00032083
0.253188
0.000337439
0.253161
0.000352949
0.25313
0.000367287
0.253095
0.000380374
0.253057
0.000392131
0.253015
0.000402506
0.252971
0.000411438
0.252924
0.00041889
0.252874
0.000424816
0.252822
0.000429183
0.252767
0.000431953
0.25271
0.000433087
0.252652
0.000432553
0.25259
0.000430299
0.252527
0.00042632
0.25246
0.000420572
0.25239
0.000413153
0.252317
0.000404145
0.000393762
0.242148
6.99669e-05
-0.242099
0.24219
9.95134e-05
0.242225
0.000128062
0.242253
0.000155686
0.242275
0.000182827
0.242292
0.000209463
0.242302
0.000234938
0.242308
0.000259951
0.242308
0.000284683
0.242303
0.000308002
0.242294
0.000330098
0.24228
0.000351015
0.242262
0.000370638
0.242241
0.000388874
0.242216
0.000405637
0.242187
0.000420856
0.242155
0.000434476
0.24212
0.000446453
0.242082
0.000456755
0.242042
0.000465364
0.241998
0.000472265
0.241953
0.000477466
0.241905
0.00048097
0.241855
0.000482807
0.241802
0.000483002
0.241747
0.000481619
0.241689
0.000478718
0.241627
0.000474452
0.241562
0.000468974
0.000462467
0.231598
1.64782e-05
-0.231544
0.231645
5.26251e-05
0.231685
8.76695e-05
0.231719
0.000121556
0.231747
0.000154658
0.23177
0.000187109
0.231786
0.000218162
0.231798
0.000248048
0.231805
0.000277814
0.231807
0.000306207
0.231804
0.000332645
0.231798
0.000357812
0.231787
0.000381483
0.231772
0.00040357
0.231754
0.000423965
0.231732
0.000442598
0.231707
0.000459423
0.231679
0.000474406
0.231648
0.000487524
0.231615
0.000498778
0.231579
0.000508183
0.231541
0.000515781
0.2315
0.000521623
0.231457
0.00052579
0.231412
0.000528378
0.231364
0.000529516
0.231313
0.000529337
0.23126
0.000528042
0.231203
0.000525832
0.000522876
0.221513
-3.87185e-05
-0.221458
0.221562
3.6275e-06
0.221605
4.47697e-05
0.221642
8.4619e-05
0.221673
0.000123487
0.221699
0.000161247
0.221719
0.000197603
0.221734
0.000233067
0.221745
0.000267454
0.221751
0.000300146
0.221752
0.000331121
0.22175
0.000360479
0.221743
0.000388125
0.221733
0.000413958
0.221719
0.000437881
0.221702
0.000459829
0.221681
0.000479753
0.221658
0.000497627
0.221632
0.000513443
0.221604
0.000527218
0.221573
0.000538995
0.22154
0.000548847
0.221505
0.00055687
0.221467
0.000563202
0.221427
0.000567997
0.221386
0.00057145
0.221341
0.000573753
0.221294
0.000575166
0.221244
0.000575925
0.0005762
0.211884
-9.36562e-05
-0.211829
0.211933
-4.5432e-05
0.211977
1.49558e-06
0.212014
4.7025e-05
0.212046
9.13525e-05
0.212073
0.000134342
0.212095
0.000176083
0.212111
0.000216481
0.212123
0.000255304
0.212131
0.000292474
0.212134
0.00032779
0.212134
0.00036123
0.212129
0.00039273
0.212121
0.000422192
0.212109
0.000449521
0.212094
0.000474653
0.212077
0.000497538
0.212056
0.000518157
0.212033
0.00053651
0.212008
0.000552631
0.21198
0.000566582
0.21195
0.000578477
0.211919
0.000588451
0.211885
0.000596693
0.21185
0.000603421
0.211812
0.000608891
0.211773
0.000613372
0.211731
0.000617171
0.211686
0.000620576
0.000623764
0.202694
-0.000147008
-0.202641
0.202742
-9.31526e-05
0.202784
-4.06802e-05
0.202821
1.03012e-05
0.202852
5.99086e-05
0.202879
0.000108015
0.2029
0.000154781
0.202917
0.000199959
0.202929
0.000243305
0.202936
0.000284826
0.20294
0.000324316
0.202939
0.000361727
0.202935
0.000396972
0.202927
0.000429948
0.202916
0.00046056
0.202902
0.000488744
0.202885
0.000514447
0.202866
0.00053765
0.202844
0.00055836
0.20282
0.000576623
0.202794
0.000592527
0.202766
0.000606207
0.202737
0.000617849
0.202706
0.000627689
0.202673
0.000636013
0.202639
0.000643148
0.202603
0.000649443
0.202565
0.000655272
0.202524
0.00066098
0.000666775
0.193922
-0.000197957
-0.193871
0.193968
-0.000138656
0.194008
-8.08209e-05
0.194043
-2.45554e-05
0.194072
3.01881e-05
0.194097
8.32315e-05
0.194117
0.000134858
0.194132
0.000184762
0.194143
0.000232578
0.194149
0.000278342
0.194152
0.000321903
0.19415
0.000363181
0.194145
0.000402069
0.194137
0.000438458
0.194125
0.000472246
0.194111
0.000503359
0.194093
0.000531744
0.194074
0.000557374
0.194052
0.00058026
0.194028
0.000600456
0.194002
0.000618067
0.193975
0.000633255
0.193947
0.000646248
0.193917
0.000657333
0.193886
0.000666873
0.193854
0.000675272
0.193821
0.000682972
0.193785
0.000690434
0.193748
0.000698091
0.000706195
0.185546
-0.000246064
-0.185497
0.185588
-0.000181446
0.185626
-0.000118388
0.185658
-5.69464e-05
0.185686
2.83923e-06
0.185708
6.06474e-05
0.185726
0.000117026
0.185739
0.00017166
0.185748
0.00022388
0.185752
0.000273796
0.185753
0.000321339
0.18575
0.000366407
0.185743
0.000408865
0.185733
0.000448584
0.18572
0.00048546
0.185704
0.0005194
0.185685
0.000550345
0.185664
0.000578259
0.185641
0.000603148
0.185617
0.000625069
0.185591
0.00064414
0.185563
0.000660543
0.185535
0.000674544
0.185506
0.000686494
0.185476
0.000696822
0.185445
0.000706036
0.185413
0.00071469
0.18538
0.000723354
0.185346
0.00073258
0.000742698
0.177543
-0.00029115
-0.177497
0.177582
-0.000221306
0.177617
-0.00015312
0.177647
-8.65855e-05
0.177671
-2.17857e-05
0.177691
4.06969e-05
0.177707
0.000101688
0.177717
0.000161071
0.177724
0.000217661
0.177726
0.000271631
0.177724
0.000323107
0.177718
0.000371918
0.177709
0.000417894
0.177697
0.00046089
0.177682
0.000500785
0.177664
0.000537476
0.177643
0.000570881
0.17762
0.000600954
0.177596
0.000627689
0.17757
0.000651137
0.177543
0.000671419
0.177514
0.000688737
0.177486
0.000703391
0.177456
0.000715787
0.177427
0.000726439
0.177397
0.000735965
0.177366
0.000745059
0.177335
0.000754444
0.177303
0.000764829
0.000776662
0.169892
-0.000333219
-0.16985
0.169929
-0.000258211
0.169961
-0.000184942
0.169988
-0.000113405
0.170009
-4.36901e-05
0.170026
2.36947e-05
0.170039
8.92007e-05
0.170047
0.000153051
0.170051
0.000214079
0.17005
0.000272063
0.170046
0.000327464
0.170038
0.000379993
0.170026
0.000429464
0.170011
0.000475705
0.169994
0.000518582
0.169973
0.000557965
0.16995
0.000593756
0.169925
0.000625882
0.169899
0.000654323
0.169871
0.000679113
0.169842