/*--------------------------------*- C++ -*----------------------------------*\
  =========                 |
  \\      /  F ield         | OpenFOAM: The Open Source CFD Toolbox
   \\    /   O peration     | Website:  https://openfoam.org
    \\  /    A nd           | Version:  6.0
     \\/     M anipulation  |
\*---------------------------------------------------------------------------*/
FoamFile
{
    version     2.0;
    format      ascii;
    class       volScalarField;
    location    "12.25";
    object      p;
}
// * * * * * * * * * * * * * * * * * * * * * * * * * * * * * * * * * * * * * //

dimensions      [0 2 -2 0 0 0 0];

internalField   nonuniform List<scalar> 
2400
(
-0.40899
-0.395763
-0.387555
-0.380968
-0.374486
-0.368118
-0.361946
-0.355939
-0.350176
-0.345739
-0.423211
-0.409024
-0.399794
-0.392048
-0.38433
-0.376738
-0.369414
-0.362333
-0.355572
-0.350646
-0.441375
-0.425631
-0.414897
-0.405581
-0.396245
-0.387073
-0.378263
-0.369778
-0.361687
-0.356164
-0.463722
-0.445817
-0.433077
-0.421756
-0.410402
-0.399275
-0.388619
-0.37836
-0.368554
-0.362273
-0.49055
-0.469814
-0.454531
-0.44076
-0.426984
-0.413523
-0.400648
-0.388208
-0.376226
-0.368937
-0.522138
-0.497834
-0.479454
-0.462793
-0.446211
-0.43006
-0.414599
-0.399548
-0.384838
-0.376138
-0.558711
-0.530048
-0.508016
-0.488059
-0.468334
-0.449194
-0.430849
-0.412807
-0.394753
-0.383983
-0.600388
-0.566547
-0.540336
-0.516728
-0.493579
-0.471199
-0.44971
-0.428292
-0.406029
-0.39191
-0.647094
-0.607294
-0.576463
-0.548957
-0.522211
-0.496408
-0.471418
-0.445709
-0.417016
-0.396376
-0.698284
-0.651999
-0.616324
-0.584934
-0.554864
-0.526237
-0.49863
-0.469671
-0.435442
-0.406405
-1.16867
-1.15233
-1.1234
-1.08423
-1.03703
-0.984017
-0.927279
-0.868706
-0.809952
-0.752567
-1.0719
-1.05729
-1.03122
-0.995855
-0.953304
-0.905648
-0.854841
-0.802643
-0.750582
-0.699984
-0.988818
-0.977968
-0.956138
-0.925317
-0.887538
-0.844813
-0.799043
-0.751945
-0.705009
-0.659468
-0.910686
-0.904767
-0.888128
-0.862552
-0.829932
-0.792188
-0.751165
-0.708559
-0.665874
-0.624338
-0.834295
-0.833559
-0.822467
-0.802535
-0.775445
-0.742948
-0.706761
-0.668505
-0.629673
-0.591497
-0.761926
-0.766009
-0.760278
-0.74597
-0.72451
-0.697408
-0.666168
-0.632212
-0.596932
-0.561472
-0.695053
-0.703241
-0.70232
-0.693279
-0.677293
-0.655608
-0.629434
-0.599849
-0.567951
-0.534601
-0.634131
-0.645648
-0.648854
-0.644564
-0.63376
-0.617471
-0.596604
-0.57174
-0.543281
-0.511038
-0.578987
-0.593188
-0.599937
-0.599965
-0.59417
-0.583489
-0.568671
-0.549837
-0.526155
-0.493931
-0.529597
-0.545113
-0.554159
-0.55744
-0.555877
-0.550503
-0.542283
-0.531612
-0.517653
-0.493786
-0.451134
-0.586077
-0.711485
-0.825125
-0.924728
-1.00849
-1.07519
-1.1242
-1.15551
-1.16981
-0.401971
-0.527741
-0.644828
-0.750933
-0.843924
-0.922117
-0.984379
-1.03016
-1.05947
-1.07296
-0.335728
-0.454134
-0.565202
-0.666602
-0.756237
-0.832419
-0.893956
-0.94019
-0.971012
-0.986863
-0.266817
-0.377774
-0.482895
-0.579884
-0.666674
-0.74158
-0.803341
-0.851166
-0.884761
-0.904334
-0.203823
-0.306879
-0.405522
-0.497483
-0.580764
-0.653739
-0.715144
-0.764112
-0.800205
-0.823425
-0.150054
-0.245353
-0.337457
-0.424054
-0.503261
-0.573584
-0.633818
-0.683089
-0.720886
-0.747065
-0.105545
-0.193681
-0.279659
-0.360925
-0.435797
-0.502983
-0.561378
-0.610149
-0.648771
-0.677025
-0.0685835
-0.149827
-0.230328
-0.306666
-0.377352
-0.441319
-0.497577
-0.545356
-0.584156
-0.61373
-0.0380091
-0.112178
-0.187777
-0.259715
-0.326562
-0.387437
-0.441465
-0.487971
-0.526508
-0.556842
-0.0211559
-0.0906065
-0.161397
-0.228113
-0.290037
-0.346584
-0.397004
-0.440769
-0.477546
-0.507151
0.52447
0.545463
0.567884
0.590869
0.613936
0.636421
0.65735
0.67613
0.698146
0.737159
0.497689
0.515922
0.535851
0.55593
0.575477
0.593765
0.609739
0.622839
0.638797
0.672566
0.463422
0.477921
0.494543
0.510796
0.525752
0.538641
0.548377
0.554535
0.563272
0.5906
0.421969
0.431874
0.444457
0.456038
0.465416
0.471809
0.474151
0.472245
0.472726
0.492488
0.373724
0.37833
0.386262
0.39243
0.395364
0.394313
0.388279
0.377388
0.368781
0.380027
0.319158
0.317966
0.320795
0.320944
0.316729
0.307474
0.292302
0.27175
0.253464
0.255439
0.258829
0.251586
0.249062
0.242754
0.230866
0.212869
0.188057
0.157448
0.129161
0.121312
0.193477
0.180203
0.172293
0.159248
0.139356
0.112317
0.0776411
0.0368782
-0.00145
-0.0194523
0.123907
0.105352
0.0922288
0.0721708
0.04405
0.00787845
-0.03662
-0.0873319
-0.13546
-0.163716
0.0486073
0.0276614
0.00979326
-0.0172516
-0.0533398
-0.0983474
-0.152295
-0.212436
-0.269888
-0.308414
0.379373
0.382804
0.393292
0.401588
0.408096
0.414543
0.422524
0.434404
0.453042
0.475514
0.42787
0.432589
0.444305
0.455669
0.466063
0.476663
0.488721
0.50428
0.52682
0.555646
0.466782
0.475234
0.489476
0.504283
0.518718
0.533513
0.549617
0.568737
0.594824
0.629282
0.49885
0.511357
0.528454
0.546544
0.564739
0.583457
0.603328
0.625682
0.654792
0.693999
0.524325
0.540516
0.560309
0.581323
0.602818
0.624965
0.648087
0.673117
0.704538
0.747492
0.54293
0.562203
0.584267
0.607665
0.631814
0.656687
0.682312
0.709234
0.742076
0.787657
0.554396
0.575974
0.599703
0.624783
0.650772
0.677472
0.704642
0.732469
0.765679
0.812666
0.558454
0.581427
0.606091
0.632037
0.658917
0.686387
0.713969
0.741542
0.773937
0.821036
0.554885
0.578255
0.60304
0.628953
0.655677
0.682744
0.70947
0.735498
0.765802
0.811682
0.543562
0.566275
0.590318
0.615249
0.640709
0.666123
0.690641
0.713749
0.740615
0.783883
0.334418
0.289715
0.238652
0.187025
0.135863
0.0859261
0.0380468
-0.00725332
-0.0496515
-0.0889451
0.338993
0.291475
0.238619
0.184204
0.130252
0.0778175
0.0277405
-0.0193473
-0.0630146
-0.103
0.342628
0.289404
0.232964
0.175744
0.11946
0.0651672
0.013743
-0.0341229
-0.0779652
-0.117525
0.345344
0.28708
0.227009
0.166884
0.108224
0.0521471
-0.000428363
-0.0488061
-0.0925423
-0.131434
0.347218
0.284554
0.220941
0.157925
0.096985
0.0392984
-0.0142052
-0.0628624
-0.106293
-0.144393
0.349221
0.282386
0.215307
0.149523
0.0864989
0.0274218
-0.0268116
-0.0756099
-0.118692
-0.156076
0.353002
0.282299
0.211954
0.143561
0.0785742
0.0181502
-0.0368786
-0.0860145
-0.129083
-0.166226
0.361095
0.28687
0.21341
0.142369
0.0751961
0.0130142
-0.0434038
-0.0936321
-0.13757
-0.175434
0.375572
0.297153
0.219609
0.144671
0.0738284
0.00822972
-0.0513329
-0.10442
-0.150922
-0.191048
0.391433
0.305885
0.221144
0.139103
0.0613769
-0.0107312
-0.0762733
-0.134679
-0.185754
-0.229628
-0.125097
-0.158165
-0.188387
-0.216101
-0.241699
-0.265582
-0.288036
-0.309056
-0.329143
-0.3391
-0.139254
-0.171806
-0.200904
-0.226881
-0.250118
-0.27097
-0.289618
-0.305874
-0.319379
-0.323436
-0.152799
-0.183849
-0.211
-0.234671
-0.255324
-0.273403
-0.289202
-0.302768
-0.314048
-0.31973
-0.165579
-0.195112
-0.220487
-0.242237
-0.260931
-0.27712
-0.291229
-0.303494
-0.313945
-0.320724
-0.177394
-0.205524
-0.229376
-0.249596
-0.266844
-0.281749
-0.294807
-0.306323
-0.316283
-0.323535
-0.188146
-0.215208
-0.237978
-0.257182
-0.273528
-0.287667
-0.300105
-0.311132
-0.320705
-0.328122
-0.197956
-0.224611
-0.246992
-0.265853
-0.281897
-0.295748
-0.307873
-0.318522
-0.32765
-0.334856
-0.207811
-0.235017
-0.257879
-0.277134
-0.293447
-0.307389
-0.319376
-0.329624
-0.338119
-0.344676
-0.225344
-0.254147
-0.278255
-0.298384
-0.315183
-0.329195
-0.340804
-0.350222
-0.357499
-0.362598
-0.266586
-0.297363
-0.322623
-0.343149
-0.359681
-0.372812
-0.382943
-0.3903
-0.395012
-0.397107
-0.396423
-0.36563
-0.349321
-0.339954
-0.332817
-0.32664
-0.320296
-0.31127
-0.295736
-0.281862
-0.394594
-0.367139
-0.352445
-0.343749
-0.336816
-0.330533
-0.324087
-0.315807
-0.303588
-0.295462
-0.39193
-0.36764
-0.354551
-0.346653
-0.340227
-0.334367
-0.328509
-0.321649
-0.312987
-0.308717
-0.389018
-0.367635
-0.356059
-0.348958
-0.343083
-0.337694
-0.332369
-0.326443
-0.319612
-0.31649
-0.386488
-0.367657
-0.357433
-0.35106
-0.345702
-0.340766
-0.335943
-0.330784
-0.325164
-0.322332
-0.384918
-0.368225
-0.359134
-0.353351
-0.348394
-0.34379
-0.339318
-0.334674
-0.329809
-0.326942
-0.384851
-0.369842
-0.361612
-0.356221
-0.351479
-0.347019
-0.342687
-0.338276
-0.333788
-0.330724
-0.386809
-0.372986
-0.365301
-0.360059
-0.355304
-0.350764
-0.346343
-0.341908
-0.337492
-0.334152
-0.391289
-0.378104
-0.370607
-0.365237
-0.360208
-0.35534
-0.350595
-0.34589
-0.341283
-0.337623
-0.398658
-0.385583
-0.377904
-0.372098
-0.366505
-0.361039
-0.355719
-0.350497
-0.345445
-0.341424
-0.337597
-0.285222
-0.253429
-0.209717
-0.174371
-0.140947
-0.113891
-0.0919491
-0.0754317
-0.0632327
-0.0543979
-0.0474426
-0.040785
-0.0330101
-0.024255
-0.0158349
-0.00959259
-0.00487619
-0.00264094
0.00193638
-0.344365
-0.288123
-0.256047
-0.211462
-0.175116
-0.14072
-0.112814
-0.0904263
-0.0740182
-0.0625054
-0.0546885
-0.0486197
-0.0423233
-0.0343233
-0.0250379
-0.0160723
-0.00949539
-0.0046487
-0.00248674
0.00197143
-0.352956
-0.291594
-0.259147
-0.213701
-0.176327
-0.140995
-0.112227
-0.0893477
-0.0729582
-0.0620184
-0.055102
-0.0498181
-0.0438185
-0.0355845
-0.0258028
-0.0163339
-0.00944068
-0.00445856
-0.00235285
0.00199262
-0.363194
-0.295633
-0.262639
-0.216409
-0.178012
-0.141805
-0.112178
-0.0887644
-0.0722906
-0.0617859
-0.0556269
-0.0510128
-0.0452481
-0.0367814
-0.0265453
-0.0166187
-0.00942879
-0.00430729
-0.00224029
0.0019999
-0.374817
-0.300286
-0.266431
-0.219553
-0.180168
-0.143162
-0.112693
-0.0887042
-0.072036
-0.0618121
-0.0562501
-0.0521836
-0.0465972
-0.0379082
-0.0272638
-0.0169252
-0.00945791
-0.00419407
-0.00214829
0.00199361
-0.387436
-0.305636
-0.270438
-0.223074
-0.182766
-0.145047
-0.113766
-0.0891668
-0.0721948
-0.0620903
-0.0569558
-0.0533126
-0.0478541
-0.0389605
-0.027957
-0.0172515
-0.00952587
-0.00411817
-0.00207643
0.00197406
-0.400661
-0.312005
-0.274735
-0.226999
-0.185836
-0.147485
-0.11542
-0.0901678
-0.0727739
-0.062614
-0.0577254
-0.0543779
-0.0490044
-0.0399339
-0.0286258
-0.0175993
-0.00963341
-0.00408008
-0.00202488
0.00194166
-0.414249
-0.320355
-0.279918
-0.231723
-0.189703
-0.150735
-0.117857
-0.0918544
-0.0738646
-0.0634215
-0.0585555
-0.0553565
-0.0500296
-0.0408263
-0.0292801
-0.0179803
-0.00979051
-0.00408607
-0.00199724
0.0018962
-0.425719
-0.330892
-0.286363
-0.237494
-0.194528
-0.154902
-0.121146
-0.0942725
-0.0755083
-0.0645589
-0.0594983
-0.0563036
-0.050981
-0.0416739
-0.0299354
-0.0183938
-0.00999017
-0.00413044
-0.00199015
0.00183881
-0.424063
-0.337752
-0.290816
-0.241642
-0.197976
-0.157956
-0.123612
-0.0961544
-0.0768886
-0.0656667
-0.0605737
-0.0574449
-0.0520849
-0.0425726
-0.0305499
-0.0187278
-0.0101134
-0.00413181
-0.00195566
0.00177957
-0.398703
-0.335725
-0.2905
-0.242079
-0.19824
-0.15827
-0.123765
-0.0961886
-0.0769826
-0.0661889
-0.0618047
-0.0592648
-0.0539597
-0.0439788
-0.0313215
-0.0189788
-0.0100392
-0.00396368
-0.00179886
0.00170668
-0.381601
-0.329384
-0.284708
-0.238711
-0.196675
-0.158417
-0.12506
-0.0981829
-0.0792371
-0.0683796
-0.0636996
-0.0607507
-0.055006
-0.0446568
-0.0317618
-0.0192885
-0.0102279
-0.00406868
-0.00180731
0.00152833
-0.361148
-0.316335
-0.273362
-0.231675
-0.19322
-0.157813
-0.126456
-0.10081
-0.0823151
-0.071208
-0.0657716
-0.0619471
-0.055549
-0.0449088
-0.0319879
-0.0195875
-0.0105165
-0.00430485
-0.00189603
0.00128515
-0.329944
-0.295825
-0.257683
-0.221836
-0.18837
-0.15675
-0.128019
-0.103942
-0.0859736
-0.0744559
-0.0679635
-0.0629867
-0.0558164
-0.0449373
-0.0321175
-0.0199086
-0.0108829
-0.00464352
-0.00204086
0.000977528
-0.289638
-0.268641
-0.238643
-0.209601
-0.181975
-0.154955
-0.129473
-0.107327
-0.0900016
-0.0779682
-0.0701766
-0.0638095
-0.0557722
-0.0447278
-0.0321567
-0.0202703
-0.0113509
-0.0051069
-0.00225919
0.000604523
-0.246902
-0.237716
-0.217522
-0.195765
-0.174145
-0.152104
-0.13032
-0.110439
-0.093941
-0.0814333
-0.0722795
-0.0644275
-0.0554936
-0.0443563
-0.0321546
-0.0206951
-0.0119294
-0.00569513
-0.00255726
0.000181508
-0.207893
-0.206951
-0.196006
-0.181421
-0.165459
-0.148206
-0.130191
-0.112759
-0.0972869
-0.0845024
-0.0741663
-0.0649519
-0.0551844
-0.0439918
-0.0321956
-0.0211957
-0.0125988
-0.00637486
-0.00292136
-0.000258131
-0.176006
-0.17986
-0.1761
-0.167808
-0.156802
-0.143702
-0.129096
-0.114037
-0.0997138
-0.0869215
-0.0757538
-0.0654802
-0.055029
-0.0437842
-0.032337
-0.0217481
-0.0133015
-0.00707891
-0.00331644
-0.00066802
-0.15293
-0.159153
-0.160076
-0.156486
-0.149348
-0.139445
-0.127504
-0.114415
-0.101172
-0.0885749
-0.0769509
-0.0659936
-0.0550664
-0.0437675
-0.0325586
-0.0222726
-0.0139351
-0.00770455
-0.0036811
-0.000996384
-0.140007
-0.147164
-0.150442
-0.149491
-0.144642
-0.136622
-0.126249
-0.114362
-0.101834
-0.0894411
-0.077636
-0.0663465
-0.0551735
-0.0438409
-0.0327529
-0.0226327
-0.0143517
-0.00811231
-0.00392393
-0.00119073
-0.45968
-0.472574
-0.480134
-0.48288
-0.481672
-0.477803
-0.473144
-0.470319
-0.474365
-0.497192
-0.379652
-0.39324
-0.403875
-0.412069
-0.41851
-0.424039
-0.42955
-0.435771
-0.442801
-0.456151
-0.31407
-0.327215
-0.338825
-0.349093
-0.358171
-0.366145
-0.373043
-0.379008
-0.384073
-0.393945
-0.258354
-0.269979
-0.28055
-0.290117
-0.298737
-0.30651
-0.313612
-0.32036
-0.326803
-0.335399
-0.211911
-0.221949
-0.231303
-0.240013
-0.248131
-0.255715
-0.262821
-0.269499
-0.275684
-0.282097
-0.174196
-0.182767
-0.190861
-0.198484
-0.205647
-0.212358
-0.218631
-0.224487
-0.22994
-0.235099
-0.144304
-0.151557
-0.158447
-0.16497
-0.171123
-0.17691
-0.182337
-0.187411
-0.192137
-0.196474
-0.121699
-0.127886
-0.133783
-0.139378
-0.144665
-0.149639
-0.154299
-0.158647
-0.162682
-0.166381
-0.105969
-0.111371
-0.116527
-0.121425
-0.126056
-0.130414
-0.134494
-0.138296
-0.141819
-0.145061
-0.097424
-0.102332
-0.107022
-0.111484
-0.115711
-0.119696
-0.123438
-0.126935
-0.130187
-0.133197
-0.033029
-0.0973669
-0.160254
-0.215147
-0.26516
-0.310891
-0.351666
-0.387081
-0.416958
-0.441174
-0.050612
-0.100395
-0.148077
-0.188702
-0.225483
-0.259697
-0.290821
-0.318412
-0.342384
-0.362768
-0.0614725
-0.101255
-0.136437
-0.166309
-0.19349
-0.218923
-0.242336
-0.263474
-0.282375
-0.299186
-0.0662218
-0.0970719
-0.121962
-0.143191
-0.163162
-0.182233
-0.20009
-0.216573
-0.231721
-0.245624
-0.0654078
-0.0882492
-0.105787
-0.121023
-0.135916
-0.150492
-0.164375
-0.177427
-0.189675
-0.201161
-0.0604338
-0.0768916
-0.0896641
-0.101147
-0.112635
-0.12405
-0.135075
-0.145591
-0.155608
-0.165143
-0.0538914
-0.0658251
-0.0755814
-0.0846741
-0.0938298
-0.102969
-0.11188
-0.120477
-0.128751
-0.136698
-0.0476333
-0.0565901
-0.0644197
-0.0719259
-0.0794691
-0.0869936
-0.0943766
-0.101558
-0.108516
-0.115237
-0.0426792
-0.049839
-0.0564931
-0.0629829
-0.0694681
-0.0759178
-0.0822644
-0.0884655
-0.0944969
-0.100338
-0.0397566
-0.046113
-0.0522532
-0.0582662
-0.0642202
-0.070104
-0.0758808
-0.0815208
-0.0870028
-0.0923093
0.20157
0.202525
0.204915
0.208167
0.212596
0.215828
0.218199
0.208215
0.184218
0.0788301
0.193212
0.193719
0.195051
0.196567
0.198164
0.197332
0.19325
0.174971
0.137938
0.0389842
0.183251
0.183289
0.183483
0.183137
0.181829
0.177094
0.167434
0.14397
0.102159
0.0201972
0.171559
0.171084
0.17006
0.167788
0.163595
0.155341
0.141101
0.115048
0.0722213
0.00370286
0.158193
0.1572
0.154986
0.150902
0.14414
0.133085
0.115699
0.0888671
0.0475641
-0.0101304
0.143469
0.142007
0.138751
0.13315
0.124412
0.111469
0.092535
0.0662896
0.0287546
-0.0189401
0.128073
0.126239
0.122198
0.115513
0.105545
0.0916762
0.0726336
0.0480633
0.0155498
-0.0231639
0.113171
0.111093
0.106582
0.0993066
0.0888406
0.074887
0.0567397
0.0344558
0.00692076
-0.0244744
0.100501
0.0983089
0.0936153
0.0861707
0.0757408
0.0622301
0.0453571
0.0253084
0.0017453
-0.024378
0.0924988
0.0902766
0.0855657
0.0781644
0.0679503
0.0549265
0.0390302
0.0204721
-0.000746923
-0.0239354
0.237537
0.239616
0.245216
0.253941
0.267587
0.285709
0.312815
0.34777
0.40029
0.467579
0.234986
0.236991
0.2424
0.250796
0.263944
0.281252
0.307133
0.339984
0.388873
0.450062
0.232205
0.234132
0.239329
0.247359
0.25994
0.276296
0.30074
0.330951
0.375332
0.428274
0.229204
0.231051
0.236019
0.243648
0.255599
0.270875
0.293679
0.320725
0.359809
0.402323
0.225998
0.227763
0.232487
0.239685
0.250945
0.265026
0.285999
0.309369
0.342473
0.372309
0.222602
0.224288
0.228755
0.235496
0.246006
0.258788
0.27774
0.29696
0.323504
0.338302
0.219032
0.220645
0.224849
0.231119
0.240829
0.252234
0.268987
0.283637
0.303129
0.300383
0.215309
0.216865
0.220817
0.226622
0.235515
0.245516
0.259931
0.269682
0.281662
0.258553
0.211446
0.212958
0.216663
0.222006
0.230057
0.238632
0.250539
0.255092
0.25889
0.211687
0.207431
0.208828
0.212159
0.216867
0.223777
0.230582
0.239324
0.238233
0.232415
0.158099
0.249314
0.251764
0.257893
0.267602
0.282184
0.301142
0.327634
0.356392
0.394406
0.404741
0.249237
0.251697
0.257942
0.26781
0.282771
0.302356
0.330315
0.361956
0.405952
0.432652
0.248925
0.25136
0.257611
0.267466
0.282496
0.302259
0.330868
0.364374
0.412374
0.452596
0.24838
0.250789
0.257036
0.26687
0.281947
0.301874
0.331024
0.366206
0.417651
0.468724
0.247593
0.249975
0.256207
0.266004
0.281099
0.301148
0.330709
0.367295
0.421559
0.481189
0.246555
0.248905
0.255097
0.264824
0.279867
0.299931
0.329679
0.36724
0.423517
0.489602
0.245263
0.247573
0.253699
0.263312
0.278227
0.298177
0.327871
0.36593
0.423353
0.493844
0.243713
0.245976
0.252009
0.261465
0.276175
0.29588
0.325282
0.363344
0.420997
0.493834
0.241907
0.244115
0.250029
0.259285
0.273714
0.293035
0.321907
0.359462
0.416385
0.489483
0.239846
0.241993
0.247762
0.256774
0.270848
0.289642
0.317748
0.354269
0.409479
0.480734
0.204443
0.203035
0.200036
0.195262
0.188497
0.179521
0.168026
0.153828
0.13659
0.116456
0.2094
0.208187
0.205571
0.201322
0.195139
0.186686
0.175488
0.161199
0.143216
0.12159
0.216811
0.215948
0.214043
0.210809
0.205831
0.198569
0.188275
0.174243
0.155378
0.131427
0.22481
0.224422
0.223518
0.221772
0.218679
0.213447
0.205035
0.192099
0.172887
0.146297
0.232191
0.232356
0.232659
0.232767
0.232172
0.229829
0.224515
0.213933
0.195675
0.166683
0.238312
0.239046
0.24064
0.242797
0.245114
0.246367
0.245378
0.238646
0.223415
0.192942
0.24295
0.244216
0.247068
0.251277
0.256662
0.261943
0.266285
0.264897
0.255225
0.224818
0.246152
0.247878
0.251867
0.257974
0.266324
0.275747
0.286031
0.291338
0.289659
0.260642
0.248113
0.250204
0.255153
0.262884
0.273877
0.287207
0.303509
0.316626
0.325263
0.29868
0.249091
0.251431
0.257115
0.266091
0.279235
0.295902
0.317855
0.339406
0.362057
0.345376
0.101898
0.0957647
0.0894738
0.0831327
0.0767255
0.0702419
0.063698
0.0571189
0.0505282
0.0439472
0.105479
0.0986412
0.0916196
0.0846086
0.0775351
0.0703515
0.0630738
0.055739
0.0483802
0.0410248
0.112668
0.104325
0.095663
0.0872162
0.0788146
0.0703038
0.0616809
0.0529998
0.0443059
0.0356299
0.124034
0.113362
0.10205
0.0913547
0.0809516
0.0704707
0.0598612
0.0492047
0.0385666
0.0279771
0.140359
0.126464
0.111279
0.0973815
0.0842214
0.0710516
0.0577354
0.0444033
0.0311511
0.0180029
0.162563
0.144513
0.123977
0.105735
0.0889426
0.0722526
0.0554071
0.0386232
0.0220369
0.00565368
0.19156
0.168561
0.140991
0.117084
0.0955996
0.0743432
0.0529658
0.0318332
0.0111133
-0.00922857
0.227374
0.198764
0.162558
0.13179
0.104409
0.0772961
0.050245
0.0238144
-0.00184798
-0.0268371
0.269896
0.234652
0.189144
0.150872
0.116102
0.0815417
0.047528
0.0147314
-0.0167045
-0.0467963
0.31759
0.273836
0.220416
0.173376
0.128624
0.0847149
0.0424841
0.00245457
-0.0351663
-0.070201
0.0373956
0.0308926
0.0244562
0.018103
0.0118484
0.00570617
-0.000311419
-0.00619329
-0.0119298
-0.0175113
0.0336986
0.0264268
0.0192336
0.0121421
0.00517294
-0.00165478
-0.0083242
-0.0148209
-0.0211326
-0.0272242
0.0269973
0.0184335
0.00996379
0.0016115
-0.00660218
-0.0146583
-0.02254
-0.0302332
-0.0377276
-0.0449334
0.017456
0.00702388
-0.00329738
-0.0134876
-0.0235297
-0.033409
-0.0431129
-0.0526312
-0.0619633
-0.0709733
0.00496283
-0.00796045
-0.0207539
-0.0334055
-0.0459059
-0.0582488
-0.0704322
-0.08246
-0.0943653
-0.106187
-0.0105495
-0.0265842
-0.0424574
-0.0581825
-0.0737809
-0.0892774
-0.104695
-0.120038
-0.135372
-0.151388
-0.0292482
-0.0489731
-0.0684204
-0.0876157
-0.106606
-0.125475
-0.144347
-0.163336
-0.182824
-0.204415
-0.0512542
-0.0751766
-0.0986752
-0.121805
-0.144593
-0.16705
-0.189216
-0.21118
-0.234226
-0.260493
-0.0755738
-0.103117
-0.129608
-0.155326
-0.180619
-0.205868
-0.231416
-0.257593
-0.286633
-0.317605
-0.102525
-0.132116
-0.159148
-0.184031
-0.207436
-0.230302
-0.253718
-0.279156
-0.312247
-0.354968
-0.0307669
-0.0497641
-0.0663706
-0.0794834
-0.088367
-0.0927499
-0.0927381
-0.0887051
-0.0812189
-0.0710914
-0.0593966
-0.0474941
-0.036756
-0.0284708
-0.0229436
-0.019513
-0.0159142
-0.0114554
-0.00581672
-0.00213102
-0.0420388
-0.0618066
-0.0778633
-0.0896675
-0.0969021
-0.0995406
-0.0978508
-0.092287
-0.0834225
-0.0720578
-0.0592846
-0.0465405
-0.0353336
-0.0271153
-0.0221192
-0.0193545
-0.0161591
-0.0117395
-0.00599732
-0.00204921
-0.062514
-0.0831083
-0.0976741
-0.106834
-0.110983
-0.110546
-0.106059
-0.0980326
-0.0869764
-0.0736289
-0.0590952
-0.0449465
-0.0329425
-0.0248279
-0.0207148
-0.0190471
-0.0165231
-0.012158
-0.00630975
-0.00185955
-0.091553
-0.112047
-0.123733
-0.128662
-0.128241
-0.12366
-0.115703
-0.10477
-0.091174
-0.0755142
-0.0588925
-0.0430594
-0.0301063
-0.0221195
-0.0190131
-0.0185663
-0.0167866
-0.0124957
-0.00662082
-0.00155942
-0.12762
-0.146278
-0.153683
-0.152589
-0.146196
-0.13681
-0.125187
-0.111371
-0.0953394
-0.0774635
-0.0588179
-0.0413545
-0.0275048
-0.019621
-0.0173513
-0.0178899
-0.016731
-0.012551
-0.00679396
-0.00117362
-0.166817
-0.182065
-0.184221
-0.175399
-0.16224
-0.148031
-0.133031
-0.116772
-0.0988019
-0.079187
-0.0589488
-0.040221
-0.025704
-0.0178555
-0.0160423
-0.0170877
-0.016293
-0.0122554
-0.0067652
-0.000746324
-0.203215
-0.215165
-0.211458
-0.194019
-0.174472
-0.156054
-0.13831
-0.120288
-0.101079
-0.0804102
-0.0592303
-0.0397907
-0.0249412
-0.0170686
-0.0152913
-0.0163116
-0.0155776
-0.0116771
-0.00655097
-0.000321848
-0.232879
-0.24281
-0.232626
-0.207187
-0.182592
-0.160831
-0.141064
-0.121934
-0.102116
-0.0810346
-0.0595502
-0.039951
-0.0251079
-0.0171912
-0.0151267
-0.0157001
-0.0147623
-0.0109521
-0.00621607
6.74558e-05
-0.258442
-0.264475
-0.247238
-0.215653
-0.187487
-0.16315
-0.141956
-0.122164
-0.102152
-0.0811052
-0.0597905
-0.0404585
-0.0258911
-0.017947
-0.0154168
-0.0152988
-0.0139855
-0.0102046
-0.00583261
0.000404091
-0.287271
-0.279906
-0.255522
-0.219965
-0.189517
-0.16325
-0.141028
-0.120809
-0.100888
-0.0802922
-0.0596695
-0.0411206
-0.0271841
-0.0192871
-0.0161273
-0.0150677
-0.0132169
-0.00942004
-0.00541084
0.000693076
-0.316504
-0.284968
-0.256997
-0.220223
-0.188945
-0.16142
-0.13829
-0.117618
-0.0979568
-0.0782859
-0.0590703
-0.0420435
-0.029225
-0.021431
-0.017358
-0.0149906
-0.0124049
-0.00857073
-0.00495297
0.000915735
-0.33041
-0.285846
-0.255996
-0.218036
-0.186472
-0.158569
-0.135356
-0.114762
-0.0954702
-0.0764521
-0.0581257
-0.0420442
-0.0299476
-0.0223314
-0.0178914
-0.0149177
-0.0119669
-0.00809545
-0.00467377
0.00106271
-0.334084
-0.284354
-0.253852
-0.215013
-0.183504
-0.155524
-0.132418
-0.111977
-0.0930335
-0.0745888
-0.0570623
-0.0418643
-0.0304732
-0.0230843
-0.0183778
-0.0149025
-0.0116253
-0.00769164
-0.0044202
0.00120022
-0.333688
-0.282654
-0.252047
-0.212579
-0.181064
-0.152858
-0.129692
-0.1093
-0.0906881
-0.0728681
-0.056217
-0.0419512
-0.0312514
-0.0240183
-0.0189606
-0.0149251
-0.0112959
-0.00729017
-0.00416853
0.00132972
-0.332188
-0.281349
-0.25066
-0.210665
-0.179017
-0.150404
-0.127014
-0.106588
-0.0883189
-0.0712109
-0.0555469
-0.0422855
-0.0322682
-0.0251155
-0.0196222
-0.0149725
-0.0109707
-0.00688717
-0.00391794
0.00145051
-0.330428
-0.280476
-0.249661
-0.209177
-0.177268
-0.148111
-0.12437
-0.103845
-0.0859275
-0.0695991
-0.0550087
-0.0428025
-0.0334508
-0.0263179
-0.0203349
-0.015046
-0.0106628
-0.00649421
-0.00367343
0.00156136
-0.329054
-0.280112
-0.249148
-0.208173
-0.17586
-0.146032
-0.12182
-0.101135
-0.0835622
-0.0680593
-0.0546035
-0.0434804
-0.0347653
-0.0275964
-0.0210856
-0.0151478
-0.0103807
-0.00611857
-0.00343854
0.00166125
-0.328696
-0.280365
-0.24923
-0.207713
-0.174843
-0.144227
-0.119431
-0.0985201
-0.0812742
-0.0666227
-0.0543394
-0.0443061
-0.0361871
-0.0289294
-0.0218643
-0.0152783
-0.0101288
-0.00576461
-0.00321553
0.00174943
-0.32983
-0.281301
-0.24997
-0.20782
-0.174244
-0.142745
-0.117268
-0.0960688
-0.0791175
-0.0653194
-0.0542183
-0.0452586
-0.0376858
-0.0302919
-0.0226591
-0.0154369
-0.00991155
-0.00543722
-0.00300712
0.001825
-0.332752
-0.28293
-0.251381
-0.208494
-0.174083
-0.141636
-0.115398
-0.0938534
-0.0771499
-0.0641793
-0.0542391
-0.0463133
-0.0392295
-0.0316599
-0.0234594
-0.0156227
-0.00973183
-0.00513981
-0.00281482
0.00188752
)
;

boundaryField
{
    inlet
    {
        type            freestreamPressure;
        freestreamValue uniform 0;
        supersonic      false;
        value           nonuniform List<scalar> 
40
(
0.20157
0.193212
0.183251
0.171559
0.158193
0.143469
0.128073
0.113171
0.100501
0.0924988
0.237537
0.234986
0.232205
0.229204
0.225998
0.222602
0.219032
0.215309
0.211446
0.207431
0.249314
0.249237
0.248925
0.24838
0.247593
0.246555
0.245263
0.243713
0.241907
0.239846
0.204443
0.2094
0.216811
0.22481
0.232191
0.238312
0.24295
0.246152
0.248113
0.249091
)
;
    }
    outlet
    {
        type            freestreamPressure;
        freestreamValue uniform 0;
        supersonic      false;
        value           nonuniform List<scalar> 
40
(
5.14289e-09
1.25291e-08
1.94037e-08
2.16469e-08
1.64073e-08
5.0905e-09
-6.19395e-09
-1.07298e-08
-7.09631e-09
-1.06997e-09
1.32293e-07
9.949e-08
7.08539e-08
4.70894e-08
2.85101e-08
1.50221e-08
6.21956e-09
1.46787e-09
1.8725e-12
9.97355e-10
3.13806e-07
3.34774e-07
3.43123e-07
3.40134e-07
3.26898e-07
3.04824e-07
2.75758e-07
2.41827e-07
2.05216e-07
1.68057e-07
-2.32197e-08
-1.80264e-07
-3.81627e-07
-5.0575e-07
-4.87874e-07
-3.47768e-07
-1.53489e-07
3.09308e-08
1.70771e-07
2.62778e-07
)
;
    }
    top
    {
        type            symmetryPlane;
    }
    bottom
    {
        type            symmetryPlane;
    }
    cylinder
    {
        type            zeroGradient;
    }
    frontandback
    {
        type            empty;
    }
}


// ************************************************************************* //
