/*--------------------------------*- C++ -*----------------------------------*\
  =========                 |
  \\      /  F ield         | OpenFOAM: The Open Source CFD Toolbox
   \\    /   O peration     | Website:  https://openfoam.org
    \\  /    A nd           | Version:  6.0
     \\/     M anipulation  |
\*---------------------------------------------------------------------------*/
FoamFile
{
    version     2.0;
    format      ascii;
    class       volVectorField;
    location    "12.25";
    object      U;
}
// * * * * * * * * * * * * * * * * * * * * * * * * * * * * * * * * * * * * * //

dimensions      [0 1 -1 0 0 0 0];

internalField   nonuniform List<vector> 
2400
(
(0.0179043 -0.433157 -1.24681e-20)
(0.00569283 -0.335094 5.57341e-21)
(-0.00346713 -0.261595 -6.20123e-21)
(-0.0101011 -0.206736 -4.0342e-21)
(-0.0142424 -0.165708 -7.0456e-21)
(-0.0160125 -0.134776 9.72942e-21)
(-0.0158661 -0.111131 3.96925e-21)
(-0.0143212 -0.0926944 3.74791e-21)
(-0.0118672 -0.0779457 -8.72246e-21)
(-0.00948633 -0.0658136 -6.75101e-22)
(0.0514725 -0.426934 1.39163e-20)
(0.0320507 -0.327773 -1.42328e-21)
(0.0187241 -0.25526 2.91901e-21)
(0.0101298 -0.202408 3.80281e-20)
(0.0056336 -0.163741 -2.90086e-20)
(0.00466687 -0.135091 -1.51845e-21)
(0.00643436 -0.113373 -3.46128e-22)
(0.0101736 -0.0963188 -3.90082e-21)
(0.0152337 -0.0822603 -6.90951e-21)
(0.0203113 -0.0700797 -2.75503e-21)
(0.0843004 -0.418554 2.5758e-20)
(0.0579592 -0.319709 2.62746e-20)
(0.04139 -0.249242 -7.5916e-20)
(0.0320549 -0.199181 2.51664e-20)
(0.0285565 -0.163453 4.19396e-20)
(0.0298015 -0.137517 -2.42224e-20)
(0.034613 -0.118051 -2.0989e-20)
(0.041969 -0.102603 1.9827e-20)
(0.0510574 -0.0893196 -4.53037e-20)
(0.0601508 -0.0770253 4.82111e-20)
(0.116372 -0.408242 -9.00998e-20)
(0.0837265 -0.311346 4.5078e-20)
(0.0650855 -0.244025 -4.46708e-20)
(0.0564077 -0.197487 2.29577e-20)
(0.0553722 -0.165191 -2.67304e-20)
(0.0602869 -0.142316 4.30192e-20)
(0.0695608 -0.125373 2.34447e-20)
(0.0819065 -0.111741 -7.08913e-20)
(0.0963614 -0.0993306 -6.97478e-20)
(0.110669 -0.0868794 8.20534e-20)
(0.147716 -0.396214 3.68754e-21)
(0.109811 -0.303036 -1.75463e-20)
(0.0905943 -0.239925 -7.86398e-21)
(0.0841974 -0.197509 -9.7885e-21)
(0.0872263 -0.168961 -6.644e-20)
(0.0973253 -0.149323 1.09108e-20)
(0.112464 -0.13504 -7.33458e-21)
(0.131098 -0.123367 7.76913e-20)
(0.152141 -0.111936 -5.48698e-20)
(0.17271 -0.0993534 -4.00924e-20)
(0.178429 -0.382678 8.71958e-20)
(0.136833 -0.295037 -8.88992e-21)
(0.118913 -0.237068 1.36394e-19)
(0.116675 -0.19915 -1.75608e-20)
(0.125519 -0.174392 8.59616e-20)
(0.142369 -0.157876 -9.80883e-21)
(0.164738 -0.146134 -8.36771e-22)
(0.19084 -0.1364 6.3494e-20)
(0.219525 -0.126018 -3.56016e-20)
(0.247213 -0.113435 6.90686e-20)
(0.20869 -0.367826 -3.30334e-20)
(0.165558 -0.287496 1.17857e-20)
(0.151207 -0.23539 -3.50253e-20)
(0.15526 -0.202038 -4.4117e-20)
(0.171806 -0.180749 -4.80988e-21)
(0.197006 -0.166837 1.46111e-19)
(0.227897 -0.157121 -5.2659e-20)
(0.26247 -0.149 2.65071e-20)
(0.299614 -0.139624 -9.13957e-20)
(0.335071 -0.127295 -5.85284e-20)
(0.238761 -0.351823 1.58965e-19)
(0.196865 -0.280429 -1.7954e-20)
(0.188722 -0.23462 -1.90023e-19)
(0.201397 -0.205558 1.07647e-20)
(0.227611 -0.187002 4.66899e-20)
(0.262726 -0.174685 -7.00007e-20)
(0.303274 -0.165917 -9.48568e-20)
(0.34703 -0.158543 1.44919e-19)
(0.393105 -0.149754 -1.22624e-20)
(0.436815 -0.137904 -1.35151e-19)
(0.268983 -0.334778 -1.33445e-19)
(0.231682 -0.273679 7.89297e-20)
(0.232657 -0.234283 1.25391e-19)
(0.25639 -0.208908 3.44293e-20)
(0.294225 -0.191983 -1.35057e-19)
(0.3407 -0.17974 9.0072e-20)
(0.391764 -0.170064 5.6442e-20)
(0.444857 -0.161393 1.20001e-19)
(0.499466 -0.151259 -7.31948e-20)
(0.551376 -0.138999 -1.08734e-19)
(0.299743 -0.316671 4.54375e-20)
(0.270852 -0.266846 -1.88031e-20)
(0.283974 -0.233698 -6.30426e-22)
(0.321185 -0.211242 3.91707e-20)
(0.372586 -0.19477 3.3515e-20)
(0.432007 -0.180992 -2.36676e-20)
(0.494893 -0.168136 -4.81517e-20)
(0.558154 -0.154887 7.71346e-20)
(0.620856 -0.139286 -6.59291e-20)
(0.679688 -0.123571 6.07318e-20)
(0.618218 -0.00934546 4.01189e-21)
(0.591742 -0.0552977 1.15868e-20)
(0.562133 -0.0974102 -3.87546e-20)
(0.53034 -0.135639 3.40531e-20)
(0.497198 -0.170089 1.27952e-20)
(0.46343 -0.200999 1.59221e-19)
(0.429612 -0.228715 -6.08811e-20)
(0.396159 -0.253654 -8.17927e-20)
(0.363348 -0.276293 8.49461e-20)
(0.331289 -0.297149 -1.47115e-19)
(0.834671 0.017338 1.42511e-20)
(0.781939 -0.0413135 -4.58397e-21)
(0.723559 -0.0925016 -3.85618e-20)
(0.661693 -0.135873 1.02104e-19)
(0.598392 -0.171488 -3.41352e-20)
(0.535524 -0.199794 2.57255e-19)
(0.474675 -0.221575 -1.58622e-19)
(0.417092 -0.237883 2.26649e-19)
(0.363655 -0.249976 -1.54435e-19)
(0.314869 -0.259216 -7.89808e-20)
(1.02104 0.0667503 -2.83222e-20)
(0.957659 -0.00110255 4.19251e-21)
(0.885318 -0.0606228 -1.23081e-19)
(0.806681 -0.110872 9.46931e-20)
(0.724489 -0.151454 -9.59216e-20)
(0.641412 -0.182519 -1.79611e-19)
(0.559882 -0.204748 -5.82879e-20)
(0.481967 -0.219303 -4.99315e-20)
(0.40929 -0.227754 1.57551e-19)
(0.343024 -0.231946 8.13338e-20)
(1.17152 0.116618 1.29548e-20)
(1.10752 0.0436721 -2.26824e-20)
(1.03141 -0.0216202 -3.07597e-20)
(0.945794 -0.077759 -1.20613e-19)
(0.853617 -0.123774 7.02347e-20)
(0.757952 -0.159293 2.03654e-19)
(0.661804 -0.184592 8.77222e-20)
(0.567908 -0.200612 1.69885e-20)
(0.478588 -0.208937 4.65399e-20)
(0.395763 -0.211701 -1.63862e-21)
(1.28636 0.159047 -1.5305e-20)
(1.22799 0.0847032 -6.01451e-20)
(1.15504 0.0165521 8.07943e-21)
(1.06971 -0.0434996 1.04444e-19)
(0.974675 -0.0939621 1.07381e-19)
(0.873024 -0.133889 -7.08699e-20)
(0.767985 -0.162998 -1.32084e-19)
(0.662687 -0.181797 -6.38322e-20)
(0.559936 -0.191672 7.48872e-20)
(0.462264 -0.194974 1.02217e-19)
(1.3692 0.192213 3.18455e-21)
(1.3199 0.119336 5.11556e-20)
(1.25453 0.0509107 -1.19854e-19)
(1.17458 -0.0109473 1.5021e-19)
(1.0822 -0.0643679 8.8639e-20)
(0.980116 -0.107879 1.61e-19)
(0.871422 -0.140588 -3.44112e-20)
(0.759289 -0.162425 -9.19238e-20)
(0.646628 -0.174406 2.17802e-19)
(0.53613 -0.17909 -1.77049e-19)
(1.42519 0.216081 7.88128e-21)
(1.38631 0.146615 -6.16335e-20)
(1.33084 0.0799083 -3.83318e-20)
(1.25951 0.018096 -8.1869e-20)
(1.17373 -0.0367411 -1.15864e-20)
(1.07564 -0.0827141 -1.20682e-19)
(0.967884 -0.118327 -7.4727e-20)
(0.853336 -0.142808 -1.55246e-20)
(0.734489 -0.156602 -1.35258e-19)
(0.613237 -0.162492 1.92409e-19)
(1.45969 0.23165 -6.99098e-21)
(1.43115 0.166683 5.15578e-20)
(1.38635 0.103017 -2.29482e-20)
(1.32531 0.0426549 5.13168e-20)
(1.24869 -0.0122826 1.26071e-19)
(1.15789 -0.0596301 2.05321e-19)
(1.05497 -0.0973248 -5.90515e-20)
(0.94225 -0.123743 -2.02746e-19)
(0.821299 -0.13834 5.51521e-20)
(0.691559 -0.143891 -3.16877e-19)
(1.47748 0.240544 1.01975e-20)
(1.45833 0.180386 -1.2138e-20)
(1.42389 0.120361 -1.24773e-19)
(1.37359 0.0622185 3.81221e-20)
(1.30743 0.00796648 -8.84242e-20)
(1.22609 -0.0401162 -3.66926e-20)
(1.13102 -0.0794912 -2.93869e-20)
(1.02406 -0.107496 8.41998e-20)
(0.905785 -0.121701 9.7235e-20)
(0.771269 -0.123076 5.93318e-20)
(1.48236 0.244356 -2.47943e-20)
(1.4712 0.189128 4.4446e-20)
(1.44614 0.133014 2.06772e-20)
(1.4062 0.0774275 6.32547e-20)
(1.35081 0.0241153 -7.30644e-21)
(1.28005 -0.0247296 -4.85056e-21)
(1.19483 -0.0663242 -1.6437e-19)
(1.09687 -0.0971159 2.09725e-19)
(0.986937 -0.11227 -1.29901e-19)
(0.854381 -0.10697 2.71319e-20)
(0.538076 0.499998 -5.6573e-20)
(0.577961 0.460582 6.52515e-20)
(0.6115 0.415721 1.08727e-21)
(0.63802 0.366378 -1.61468e-19)
(0.657014 0.313639 1.20077e-19)
(0.668247 0.258696 -9.01358e-20)
(0.671762 0.202768 -2.199e-20)
(0.667872 0.147034 -2.098e-20)
(0.657147 0.092561 3.47815e-20)
(0.640361 0.0402335 2.41539e-21)
(0.753274 0.674669 8.37128e-20)
(0.813728 0.632273 2.22952e-20)
(0.864817 0.579745 -1.1551e-19)
(0.904995 0.518629 -1.41516e-19)
(0.93301 0.45072 1.12003e-19)
(0.948045 0.378044 -1.00635e-19)
(0.949771 0.302761 1.20125e-19)
(0.938378 0.227064 -3.15007e-20)
(0.914572 0.153056 -1.05564e-19)
(0.879535 0.0826212 -7.94457e-21)
(0.887501 0.755238 -6.344e-21)
(0.959864 0.718841 1.89781e-21)
(1.0228 0.670102 7.64455e-20)
(1.07421 0.610497 7.76416e-20)
(1.1123 0.541815 1.78499e-19)
(1.13567 0.466146 6.41019e-20)
(1.14344 0.385812 -4.3288e-20)
(1.13531 0.303276 -9.53224e-20)
(1.11153 0.221029 7.73231e-20)
(1.07301 0.141463 5.32315e-21)
(0.969208 0.774966 2.24967e-20)
(1.04743 0.746864 -5.3018e-20)
(1.11746 0.70592 -2.60624e-20)
(1.17691 0.653298 -1.47603e-19)
(1.22367 0.590477 -9.01066e-20)
(1.25596 0.519269 1.7373e-19)
(1.27245 0.441767 1.18156e-19)
(1.27226 0.360289 -9.95241e-20)
(1.25509 0.277291 4.63159e-21)
(1.22124 0.195265 -4.44647e-21)
(1.01743 0.758553 -6.09486e-20)
(1.09738 0.738201 1.0206e-19)
(1.17074 0.705565 -2.66197e-20)
(1.23504 0.661423 8.01704e-20)
(1.28807 0.606869 -5.59973e-20)
(1.32789 0.543333 -1.04607e-19)
(1.35289 0.472538 5.58717e-20)
(1.3618 0.396467 -5.90783e-20)
(1.35381 0.317306 -5.89794e-20)
(1.32861 0.23738 2.58738e-20)
(1.04524 0.722943 -1.09724e-20)
(1.12436 0.70885 1.8681e-20)
(1.19835 0.683623 -1.8038e-20)
(1.26474 0.64762 -1.52233e-19)
(1.32144 0.601567 8.75759e-20)
(1.36656 0.54654 1.74857e-20)
(1.39844 0.483887 -9.63148e-20)
(1.41563 0.415214 -3.5561e-20)
(1.41695 0.34235 3.32708e-20)
(1.40162 0.267307 -9.4106e-21)
(1.06126 0.678861 -1.48466e-20)
(1.13838 0.669475 4.78913e-21)
(1.21127 0.65037 2.46662e-20)
(1.27759 0.621408 8.62266e-20)
(1.33559 0.583024 2.18251e-20)
(1.38366 0.536031 5.53554e-20)
(1.42026 0.481481 1.17572e-19)
(1.44393 0.420645 -5.03702e-20)
(1.45334 0.355001 4.71829e-20)
(1.44739 0.28621 -1.77462e-20)
(1.07104 0.632743 -1.34718e-20)
(1.14583 0.627145 1.97577e-20)
(1.21649 0.613036 1.9315e-20)
(1.28108 0.589805 -4.45163e-20)
(1.33844 0.55779 -2.91513e-20)
(1.38738 0.517687 -6.09077e-20)
(1.42659 0.47036 8.54992e-21)
(1.45473 0.416837 -1.43864e-20)
(1.47045 0.358299 -1.00525e-19)
(1.47249 0.29608 1.41465e-20)
(1.07874 0.588936 -2.15964e-21)
(1.15052 0.586883 -1.4789e-20)
(1.21776 0.576776 -1.58902e-20)
(1.27924 0.557889 9.92941e-21)
(1.33451 0.530761 -4.2841e-21)
(1.38276 0.496133 5.40417e-20)
(1.42289 0.454772 2.44032e-20)
(1.45371 0.407531 3.94227e-20)
(1.47395 0.355361 4.83656e-20)
(1.4823 0.299312 -2.08108e-20)
(1.09049 0.549029 -2.98126e-21)
(1.15737 0.54843 2.35592e-20)
(1.21912 0.540786 -6.34698e-20)
(1.27582 0.524962 -4.16974e-21)
(1.32755 0.501648 8.16653e-20)
(1.37367 0.471601 4.01436e-21)
(1.41318 0.435466 4.88098e-20)
(1.445 0.393913 -1.07963e-19)
(1.46797 0.347672 -1.31505e-21)
(1.48085 0.297533 1.10597e-20)
(0.596999 0.193379 -8.10082e-21)
(0.556237 0.20891 2.8612e-21)
(0.509547 0.227456 9.45659e-22)
(0.45615 0.250162 -1.53004e-20)
(0.395121 0.278518 6.80565e-21)
(0.325953 0.314062 2.02205e-20)
(0.249067 0.357754 -1.88571e-20)
(0.166733 0.408595 -4.85252e-21)
(0.0871595 0.461056 -5.85209e-21)
(0.0323578 0.500646 -2.15048e-20)
(0.619535 0.251039 -2.22716e-20)
(0.580666 0.271389 4.69304e-20)
(0.535906 0.295198 -4.32565e-20)
(0.484797 0.32335 -7.34499e-21)
(0.426465 0.356858 1.22332e-20)
(0.360384 0.396295 -1.44246e-20)
(0.286865 0.440865 -4.08935e-20)
(0.207811 0.486641 4.75059e-20)
(0.130502 0.523321 -7.96957e-23)
(0.0749074 0.528741 2.17357e-20)
(0.649556 0.30587 -7.4145e-20)
(0.6133 0.330807 7.88761e-20)
(0.571163 0.359646 2.75574e-20)
(0.523091 0.392951 1.52102e-21)
(0.468213 0.431258 1.77042e-20)
(0.405856 0.474179 7.01103e-21)
(0.335989 0.519187 -1.16338e-20)
(0.25975 0.559518 -2.56598e-20)
(0.18276 0.580347 -1.88676e-20)
(0.121589 0.552448 2.7696e-20)
(0.686694 0.356883 -6.12727e-20)
(0.653683 0.386059 5.74772e-20)
(0.614798 0.419565 4.62794e-20)
(0.57045 0.457565 -3.16334e-20)
(0.519708 0.500119 -1.17006e-19)
(0.461623 0.545899 3.7824e-20)
(0.395604 0.590717 -2.72929e-20)
(0.321648 0.625149 7.47993e-20)
(0.243066 0.630286 6.58737e-20)
(0.171812 0.570798 -5.84925e-20)
(0.730433 0.403189 -4.38088e-20)
(0.70118 0.436153 1.99481e-20)
(0.666089 0.47383 -5.52725e-20)
(0.626057 0.515903 4.35059e-20)
(0.580018 0.561956 -2.08098e-20)
(0.526622 0.609767 -1.75684e-20)
(0.464514 0.653594 -1.7706e-20)
(0.392217 0.681617 -2.78661e-21)
(0.310183 0.671443 -2.59232e-20)
(0.224768 0.582929 -1.54526e-20)
(0.78009 0.444028 1.09464e-19)
(0.754969 0.480234 2.24181e-20)
(0.724104 0.521457 -7.48717e-20)
(0.688862 0.566813 7.00726e-20)
(0.647947 0.615438 3.23729e-20)
(0.599491 0.664268 5.22111e-20)
(0.541187 0.706155 -2.99422e-21)
(0.469815 0.727226 3.18864e-20)
(0.382547 0.702359 8.11601e-21)
(0.279471 0.58814 3.08536e-20)
(0.83479 0.478807 -1.17713e-19)
(0.814021 0.517613 1.35983e-19)
(0.787691 0.561617 -6.55785e-20)
(0.757582 0.609304 -3.71727e-20)
(0.72205 0.659405 3.88462e-22)
(0.678589 0.708091 -5.02602e-20)
(0.623787 0.746981 3.42202e-20)
(0.552485 0.760569 3.78981e-20)
(0.458325 0.721867 5.39614e-21)
(0.334801 0.585922 -2.27547e-20)
(0.893406 0.507196 -8.64609e-21)
(0.877051 0.547788 -5.24072e-20)
(0.855458 0.593629 2.22761e-20)
(0.830709 0.642537 -4.32761e-21)
(0.800649 0.692887 -1.77541e-20)
(0.762027 0.740152 8.33766e-21)
(0.710221 0.774937 -3.09768e-21)
(0.638018 0.780566 -8.8583e-21)
(0.535472 0.729137 8.54512e-21)
(0.389546 0.57598 -8.82408e-21)
(0.954527 0.529333 1.73137e-20)
(0.942515 0.57067 5.74237e-21)
(0.925867 0.617118 -3.63725e-20)
(0.90663 0.665918 2.70093e-20)
(0.881933 0.715142 -1.11389e-20)
(0.847752 0.759635 -4.05576e-21)
(0.798208 0.789207 -9.16696e-21)
(0.724031 0.78651 -1.77945e-21)
(0.611827 0.72372 -5.46857e-20)
(0.442477 0.558265 3.38299e-20)
(1.01479 0.542911 -2.08251e-20)
(1.0068 0.584151 1.51614e-20)
(0.996195 0.630536 -2.86236e-21)
(0.983091 0.678389 -3.19637e-21)
(0.963718 0.72539 -1.22137e-20)
(0.933479 0.765906 -6.01972e-21)
(0.885315 0.789285 7.98674e-21)
(0.808043 0.778075 3.79567e-20)
(0.685204 0.705532 4.96684e-20)
(0.492417 0.532937 7.20663e-21)
(0.769098 -0.3178 1.36709e-19)
(0.739885 -0.3391 -8.53743e-20)
(0.702752 -0.358459 3.24716e-20)
(0.657078 -0.370798 -7.41074e-20)
(0.598106 -0.371414 -4.85777e-20)
(0.519809 -0.352789 -7.54054e-20)
(0.414612 -0.304027 -9.17743e-20)
(0.273002 -0.210784 -4.21148e-20)
(0.0837089 -0.0548685 -5.84597e-20)
(-0.167671 0.186495 2.91094e-20)
(0.726516 -0.284403 -8.20427e-20)
(0.696214 -0.304275 -6.80643e-20)
(0.657261 -0.322784 1.1759e-19)
(0.60993 -0.335384 5.79524e-20)
(0.550483 -0.33726 8.61976e-20)
(0.473628 -0.320859 -1.4538e-19)
(0.372769 -0.275139 5.01267e-20)
(0.239804 -0.185268 1.02878e-19)
(0.0658346 -0.0318952 7.02774e-20)
(-0.158918 0.210107 -7.50867e-20)
(0.686639 -0.244752 3.86604e-20)
(0.654415 -0.262607 -1.5788e-20)
(0.613863 -0.279528 1.67077e-19)
(0.564989 -0.291405 -1.00745e-19)
(0.504779 -0.293471 -8.22783e-20)
(0.428794 -0.278351 4.74268e-20)
(0.33156 -0.235193 -6.65709e-22)
(0.206594 -0.149198 -2.07001e-19)
(0.047722 -0.000707211 -8.38938e-21)
(-0.149609 0.236365 6.60672e-20)
(0.651773 -0.200761 2.56083e-19)
(0.617211 -0.215832 -1.19884e-19)
(0.574805 -0.230096 4.03153e-20)
(0.524221 -0.23999 -6.90195e-20)
(0.462955 -0.240976 1.80455e-19)
(0.387379 -0.226023 -9.60054e-21)
(0.293158 -0.184747 -3.40798e-20)
(0.175514 -0.102898 5.24022e-21)
(0.031167 0.0386055 1.71002e-20)
(-0.138917 0.265271 -8.62471e-20)
(0.622706 -0.15234 -2.21401e-19)
(0.585783 -0.164063 -2.42714e-21)
(0.541477 -0.174894 9.01862e-20)
(0.48917 -0.181806 -4.39453e-21)
(0.426748 -0.180606 -1.03768e-20)
(0.35132 -0.164762 1.18926e-19)
(0.259656 -0.124645 -2.22704e-20)
(0.148662 -0.0470665 2.75162e-20)
(0.0179485 0.0855661 5.32166e-21)
(-0.126037 0.296603 1.15029e-19)
(0.600048 -0.0998742 8.14894e-21)
(0.561009 -0.107782 -1.29966e-19)
(0.514993 -0.114577 1.17281e-19)
(0.461149 -0.117697 -1.03139e-20)
(0.397683 -0.113361 1.99184e-20)
(0.32236 -0.095674 -1.00431e-19)
(0.232967 -0.0560241 -1.50489e-20)
(0.127992 0.0172363 -7.54631e-21)
(0.00974733 0.139338 -5.26851e-20)
(-0.110204 0.329939 -2.50371e-20)
(0.584321 -0.0440866 1.14183e-19)
(0.543604 -0.0477692 -1.08926e-19)
(0.496252 -0.0500335 -5.17477e-21)
(0.441242 -0.0487034 -1.29603e-19)
(0.377044 -0.0404404 7.08223e-20)
(0.30199 -0.0200949 -4.48849e-20)
(0.21476 0.0197028 3.77063e-20)
(0.115227 0.0886271 -7.24387e-20)
(0.00806526 0.198762 -6.79417e-20)
(-0.090739 0.364677 -4.87482e-20)
(0.575933 0.014146 7.15336e-20)
(0.534118 0.0150242 -7.26939e-20)
(0.485943 0.0176762 3.22586e-20)
(0.430295 0.0239679 2.27614e-20)
(0.365855 0.0367809 -4.21002e-20)
(0.29142 0.0604368 7.23987e-20)
(0.206406 0.100877 4.41707e-20)
(0.111805 0.165441 -1.34358e-19)
(0.0141608 0.2624 2.26396e-20)
(-0.0670832 0.400053 5.872e-20)
(0.575167 0.0738416 7.58312e-20)
(0.532939 0.0795178 -1.15224e-20)
(0.48456 0.0873577 -6.62089e-21)
(0.42892 0.0989712 -5.31562e-22)
(0.364869 0.116778 2.8279e-20)
(0.291557 0.144209 -8.35746e-20)
(0.208946 0.185634 6.89569e-20)
(0.118826 0.245778 5.38446e-21)
(0.0290013 0.328585 -2.5281e-21)
(-0.0388306 0.435186 4.2905e-20)
(0.582179 0.133947 -2.20008e-20)
(0.540293 0.144546 -2.32158e-21)
(0.492398 0.157725 6.12158e-21)
(0.437493 0.174864 6.81185e-21)
(0.374562 0.197917 1.71949e-20)
(0.302985 0.229384 -1.2428e-20)
(0.223066 0.271959 -7.30768e-21)
(0.137026 0.327558 -1.1389e-20)
(0.0532366 0.395469 1.05455e-20)
(-0.0057293 0.469099 -7.72516e-21)
(0.828611 -0.351475 1.35052e-19)
(0.878233 -0.37379 -4.96028e-20)
(0.923807 -0.390712 1.29049e-20)
(0.965515 -0.400357 5.274e-20)
(1.00346 -0.402893 2.69396e-20)
(1.03676 -0.39873 2.22481e-21)
(1.06405 -0.388071 2.59947e-21)
(1.08379 -0.371124 -2.08349e-21)
(1.09433 -0.348226 -1.3233e-21)
(1.09395 -0.319904 1.03125e-21)
(0.792233 -0.368853 6.23354e-20)
(0.843932 -0.390715 5.01738e-20)
(0.892355 -0.406091 4.64711e-20)
(0.936215 -0.413696 -1.36758e-20)
(0.974827 -0.413516 -1.18118e-20)
(1.00719 -0.405895 -9.39098e-21)
(1.03193 -0.391183 1.58024e-21)
(1.04749 -0.369846 3.23901e-21)
(1.05227 -0.342546 1.78892e-21)
(1.04474 -0.310197 -2.0131e-21)
(0.753531 -0.385749 -1.83353e-19)
(0.805197 -0.405189 1.82378e-20)
(0.854072 -0.417367 -8.8211e-20)
(0.897914 -0.421508 -1.35813e-20)
(0.935345 -0.41748 4.3722e-20)
(0.965043 -0.405597 1.31333e-20)
(0.985539 -0.386375 -1.50843e-21)
(0.99532 -0.360556 -1.11932e-21)
(0.992957 -0.329143 -7.13555e-21)
(0.977276 -0.293433 1.40246e-21)
(0.70703 -0.396549 -4.85726e-20)
(0.757244 -0.413336 -7.03985e-20)
(0.804496 -0.421731 -6.69584e-21)
(0.84622 -0.42151 -2.24535e-20)
(0.880523 -0.412764 -2.28513e-20)
(0.90577 -0.395985 -2.14052e-21)
(0.920424 -0.37196 -2.46681e-21)
(0.923106 -0.341763 4.90592e-22)
(0.912709 -0.306765 7.3406e-21)
(0.88855 -0.268626 -1.63756e-21)
(0.64675 -0.395107 -1.05073e-19)
(0.694375 -0.408763 1.09813e-19)
(0.738242 -0.412963 5.98738e-21)
(0.775801 -0.407974 -4.96669e-21)
(0.804952 -0.394276 1.24408e-20)
(0.823947 -0.372702 3.82708e-21)
(0.831334 -0.344399 -5.72196e-21)
(0.826015 -0.310815 8.93272e-21)
(0.807333 -0.273678 -1.39158e-21)
(0.7752 -0.234939 -6.65789e-22)
(0.565653 -0.373608 1.51137e-19)
(0.609086 -0.383668 -8.35943e-20)
(0.647673 -0.383649 -2.52501e-20)
(0.679046 -0.374237 -5.90637e-21)
(0.701183 -0.356349 -9.6732e-21)
(0.712477 -0.33122 3.96856e-21)
(0.711756 -0.300383 -5.33695e-21)
(0.698347 -0.26563 -3.32308e-21)
(0.672144 -0.228954 2.34062e-21)
(0.633678 -0.192456 2.99607e-21)
(0.455018 -0.3216 2.46408e-20)
(0.491849 -0.328317 1.50538e-20)
(0.52292 -0.325055 2.96185e-21)
(0.546159 -0.312866 -8.93742e-21)
(0.559843 -0.293065 2.77948e-20)
(0.562719 -0.267245 5.77849e-22)
(0.554055 -0.23724 8.11083e-22)
(0.533694 -0.205051 9.51984e-22)
(0.502091 -0.172756 3.20995e-21)
(0.46031 -0.142394 -2.277e-21)
(0.30406 -0.225763 7.13332e-20)
(0.330983 -0.230825 5.03889e-20)
(0.351932 -0.227053 -8.47944e-20)
(0.365257 -0.215755 -1.57609e-20)
(0.369698 -0.198486 -2.60719e-20)
(0.364489 -0.177014 -1.53399e-21)
(0.349402 -0.153245 -8.13497e-21)
(0.324769 -0.129136 1.06317e-20)
(0.291476 -0.106579 -1.3921e-22)
(0.250901 -0.0872937 4.83127e-21)
(0.0995606 -0.0698741 -1.30569e-20)
(0.111926 -0.0775214 -8.45772e-20)
(0.119493 -0.0789275 6.32595e-20)
(0.121186 -0.0753746 -2.04984e-20)
(0.116309 -0.0683032 2.58676e-20)
(0.104598 -0.0592659 -1.275e-21)
(0.0862372 -0.0498452 -6.72346e-21)
(0.0618476 -0.0415612 5.61419e-22)
(0.0324414 -0.0357801 -4.04445e-22)
(-0.000662849 -0.0336407 -2.46753e-21)
(-0.176703 0.165241 -1.29689e-20)
(-0.186282 0.146316 4.43808e-20)
(-0.196998 0.12907 -1.83519e-20)
(-0.209174 0.112861 5.25955e-21)
(-0.222928 0.0970364 -5.3545e-21)
(-0.238172 0.0809368 -1.03487e-22)
(-0.254614 0.0639364 1.11598e-21)
(-0.271784 0.045487 5.07495e-21)
(-0.289075 0.0251542 -2.40664e-21)
(-0.305797 0.00262753 -8.50889e-22)
(1.08101 -0.28695 1.64236e-21)
(1.05425 -0.250561 -7.9421e-21)
(1.01296 -0.21238 4.33639e-20)
(0.95729 -0.174531 -3.14643e-20)
(0.888439 -0.139559 3.70113e-21)
(0.80861 -0.110257 -3.18369e-20)
(0.720693 -0.0893799 1.59875e-19)
(0.627416 -0.0792327 8.10021e-21)
(0.52742 -0.0816891 -4.75859e-20)
(0.409304 -0.0931704 1.07183e-19)
(1.02359 -0.274018 5.38553e-21)
(0.988069 -0.23564 -1.59841e-20)
(0.938152 -0.197059 -1.61869e-20)
(0.874725 -0.160591 -1.19235e-20)
(0.799642 -0.128721 -3.42538e-20)
(0.715537 -0.10387 -8.30932e-22)
(0.625307 -0.0880632 -1.04788e-20)
(0.531099 -0.0824514 2.95033e-20)
(0.431751 -0.0868392 9.4837e-20)
(0.321656 -0.0947113 -2.08022e-20)
(0.94748 -0.255024 -3.63432e-21)
(0.903466 -0.215874 3.20474e-20)
(0.845939 -0.178171 8.34932e-21)
(0.77648 -0.144219 -1.81123e-21)
(0.697476 -0.116242 3.73471e-20)
(0.611828 -0.0961104 1.62265e-20)
(0.522409 -0.0849941 3.14413e-20)
(0.431239 -0.0828938 -3.39673e-20)
(0.338245 -0.088053 -6.78206e-20)
(0.24216 -0.0940022 -1.59336e-19)
(0.850453 -0.229255 4.44745e-21)
(0.799031 -0.190808 -1.41219e-20)
(0.735695 -0.155495 2.04609e-20)
(0.662608 -0.12543 -4.65042e-20)
(0.582522 -0.102418 -2.75127e-20)
(0.498452 -0.0876978 -1.30077e-20)
(0.413191 -0.0816487 -6.59166e-20)
(0.328771 -0.0834531 -3.0462e-20)
(0.246035 -0.0907447 3.66774e-21)
(0.16587 -0.0983625 4.93971e-20)
(0.730107 -0.196692 2.19765e-21)
(0.673344 -0.16112 -2.83831e-23)
(0.60691 -0.130264 1.35029e-20)
(0.533354 -0.10588 4.15174e-20)
(0.455577 -0.0892451 -7.03455e-21)
(0.376513 -0.0809602 -6.1367e-20)
(0.298756 -0.0807496 1.03421e-19)
(0.224241 -0.0872921 -3.1531e-20)
(0.154198 -0.0981052 -2.37118e-20)
(0.0900702 -0.109231 -1.11748e-20)
(0.584051 -0.15823 -6.06806e-21)
(0.525083 -0.12828 6.39191e-21)
(0.45914 -0.104298 2.11509e-20)
(0.388902 -0.0875521 -2.03689e-20)
(0.31717 -0.0787528 4.04172e-20)
(0.246594 -0.077926 -4.93099e-21)
(0.179424 -0.0843166 3.87637e-21)
(0.117341 -0.0963455 2.60139e-20)
(0.0615359 -0.111644 2.03727e-20)
(0.0132486 -0.127145 6.55638e-21)
(0.40989 -0.115836 8.99556e-22)
(0.352931 -0.0947016 -1.21643e-21)
(0.291878 -0.0801952 3.02094e-20)
(0.229256 -0.0730419 -3.6179e-20)
(0.16752 -0.0734193 -6.89042e-20)
(0.108866 -0.0809077 3.32391e-20)
(0.0550817 -0.0944697 -1.76096e-20)
(0.00747987 -0.112478 1.88217e-20)
(-0.0330131 -0.132809 5.29579e-20)
(-0.065579 -0.153051 -5.73416e-20)
(0.204739 -0.0727169 -9.56744e-22)
(0.155042 -0.0639098 -1.89291e-20)
(0.10401 -0.0615262 2.68159e-20)
(0.0537378 -0.0657794 1.65537e-20)
(0.0061331 -0.0764298 -5.05242e-20)
(-0.0371866 -0.0927933 -3.97221e-20)
(-0.0749625 -0.113764 -2.81588e-21)
(-0.106298 -0.137858 6.22823e-21)
(-0.130591 -0.163307 7.96529e-21)
(-0.147411 -0.188233 -2.23962e-20)
(-0.0359905 -0.0359896 1.61297e-21)
(-0.0719184 -0.0432094 2.61788e-20)
(-0.106838 -0.0554632 1.07685e-20)
(-0.139327 -0.0725855 -3.54477e-20)
(-0.168177 -0.0941113 3.51237e-20)
(-0.192428 -0.119321 -4.60667e-20)
(-0.21137 -0.14727 6.04699e-20)
(-0.224523 -0.176818 -7.27259e-20)
(-0.231589 -0.20668 -3.85166e-20)
(-0.232396 -0.235529 -1.03628e-19)
(-0.321203 -0.0223046 -4.5779e-22)
(-0.334573 -0.0492945 -7.61675e-21)
(-0.345293 -0.0782584 5.65051e-21)
(-0.35284 -0.108908 6.72935e-21)
(-0.356829 -0.140842 -1.52089e-20)
(-0.357003 -0.173588 1.49943e-20)
(-0.35321 -0.20662 -1.83555e-20)
(-0.345371 -0.239358 1.42193e-20)
(-0.333469 -0.271189 -3.61311e-20)
(-0.317505 -0.301497 3.98879e-20)
(-0.297401 -0.32966 5.70909e-20)
(-0.226935 -0.262165 -4.2944e-20)
(-0.156486 -0.211061 -4.46712e-20)
(-0.0892902 -0.17121 6.00777e-20)
(-0.0254568 -0.140134 -5.50931e-21)
(0.0356182 -0.116452 7.15642e-20)
(0.0941678 -0.0988476 8.12626e-21)
(0.150474 -0.0864095 -6.42138e-20)
(0.2059 -0.0791795 1.18402e-19)
(0.259705 -0.0739772 -1.6417e-20)
(-0.273819 -0.354799 -6.03148e-20)
(-0.215729 -0.285618 1.65622e-19)
(-0.157997 -0.230935 -6.89234e-21)
(-0.103608 -0.186816 -5.48688e-20)
(-0.0525841 -0.151078 4.35538e-20)
(-0.00422146 -0.122288 -9.91941e-20)
(0.0419234 -0.0990309 1.1429e-19)
(0.0865144 -0.0802964 -9.65214e-20)
(0.131093 -0.0662997 1.74425e-20)
(0.174016 -0.0564231 7.53793e-20)
(-0.247165 -0.376813 3.45946e-20)
(-0.199528 -0.305471 -1.04426e-19)
(-0.152832 -0.247443 3.62353e-20)
(-0.109541 -0.199749 -2.01116e-20)
(-0.069461 -0.160478 3.72038e-20)
(-0.0317458 -0.128273 -2.7861e-20)
(0.00420443 -0.101901 -2.64542e-20)
(0.0391003 -0.0805995 3.58648e-20)
(0.0739654 -0.0646093 -8.36236e-20)
(0.106812 -0.0537707 1.25507e-19)
(-0.217923 -0.395513 -7.402e-20)
(-0.179272 -0.321471 8.10256e-21)
(-0.14223 -0.260332 3.80202e-20)
(-0.10862 -0.209769 5.16939e-20)
(-0.0780177 -0.168038 -7.90433e-20)
(-0.0494957 -0.133816 6.55729e-21)
(-0.0224302 -0.105971 -4.41625e-20)
(0.00377486 -0.0838203 -9.25834e-20)
(0.0297543 -0.0673984 1.76489e-19)
(0.0538242 -0.0563759 6.74838e-20)
(-0.186633 -0.410776 5.18826e-20)
(-0.155944 -0.333513 1.19091e-20)
(-0.127465 -0.269476 4.64603e-20)
(-0.102356 -0.216661 -5.68205e-21)
(-0.0799812 -0.173316 6.16008e-20)
(-0.0593868 -0.138027 3.03095e-20)
(-0.0399845 -0.109602 7.74172e-20)
(-0.0213132 -0.0872387 -7.86717e-20)
(-0.002983 -0.0706475 -8.11085e-21)
(0.013716 -0.0593048 -8.83975e-20)
(-0.153827 -0.422569 3.45129e-20)
(-0.130472 -0.341646 -4.07057e-20)
(-0.109708 -0.274935 -9.13257e-21)
(-0.0920932 -0.220403 -1.59679e-20)
(-0.0768333 -0.176106 -1.75142e-20)
(-0.0629946 -0.140413 -2.22822e-20)
(-0.0500615 -0.111952 3.64316e-20)
(-0.037702 -0.0897154 -4.86481e-20)
(-0.0256944 -0.0730938 4.39127e-20)
(-0.0150012 -0.0614072 5.7498e-21)
(-0.119995 -0.430931 -6.00151e-20)
(-0.10367 -0.346077 -3.03734e-20)
(-0.0899545 -0.276968 5.2794e-20)
(-0.0789323 -0.221219 -1.96933e-20)
(-0.0697307 -0.176522 2.91978e-20)
(-0.0614875 -0.140924 -8.84751e-20)
(-0.0537914 -0.112806 6.76582e-20)
(-0.0464394 -0.0909287 -2.53649e-20)
(-0.0393466 -0.0744184 4.58512e-20)
(-0.033256 -0.0624749 -5.54352e-20)
(-0.0855795 -0.435976 2.76815e-20)
(-0.0762168 -0.347152 -1.19533e-20)
(-0.0689903 -0.27602 -1.84389e-20)
(-0.063704 -0.219567 -7.40911e-21)
(-0.0595062 -0.17498 4.10221e-21)
(-0.0556654 -0.139907 1.23232e-20)
(-0.051913 -0.112445 -3.0402e-20)
(-0.0481873 -0.0911264 1.85633e-20)
(-0.0445356 -0.0748701 5.69412e-20)
(-0.0415967 -0.0627833 -5.51376e-20)
(-0.0509551 -0.437887 2.08166e-20)
(-0.0486315 -0.345329 5.8284e-23)
(-0.0473859 -0.272683 2.87196e-20)
(-0.0469793 -0.216092 -2.4808e-20)
(-0.0467039 -0.17213 7.69628e-21)
(-0.0460283 -0.138 -8.61498e-21)
(-0.0448721 -0.111494 -4.88701e-21)
(-0.0433385 -0.0909317 -2.84956e-20)
(-0.0416128 -0.0750661 3.10982e-20)
(-0.0403422 -0.0629311 3.24536e-20)
(-0.0164061 -0.436894 -3.67097e-21)
(-0.0212632 -0.341133 -3.14255e-21)
(-0.0254947 -0.267635 -2.82993e-21)
(-0.0290829 -0.211547 -1.08712e-20)
(-0.0316065 -0.168759 1.17599e-20)
(-0.0328151 -0.136004 4.29644e-21)
(-0.0328688 -0.110766 -9.22721e-21)
(-0.0320642 -0.0911625 5.64555e-22)
(-0.0307341 -0.0758069 -5.59961e-21)
(-0.0296414 -0.0636747 -3.792e-22)
(-0.00721936 -0.0343736 -1.16039e-21)
(0.0032386 -0.0428406 -1.17459e-21)
(0.0557096 -0.052726 2.63419e-21)
(0.103656 -0.064977 -1.76343e-21)
(0.161823 -0.0723242 -5.60351e-22)
(0.216883 -0.0703149 -1.08793e-21)
(0.271996 -0.0569391 3.78729e-22)
(0.325974 -0.0323248 -4.65053e-22)
(0.380389 -0.000793212 2.41866e-22)
(0.435318 0.0285724 5.52057e-23)
(0.491922 0.0435486 -2.71732e-22)
(0.55262 0.0340552 7.29102e-23)
(0.616852 0.0010183 -6.78937e-23)
(0.677704 -0.042321 -1.37685e-22)
(0.725081 -0.0755884 2.27275e-23)
(0.760914 -0.0873374 -2.63929e-23)
(0.791116 -0.0701957 1.0591e-23)
(0.835059 -0.0406411 4.19525e-24)
(0.871347 -0.00409118 -4.39774e-24)
(0.933436 0.0154317 1.08137e-23)
(0.0289961 -0.0369291 5.40751e-21)
(0.0421945 -0.0535646 4.11693e-21)
(0.0978495 -0.06542 -3.90567e-21)
(0.14556 -0.0780316 2.14064e-21)
(0.200962 -0.0847124 -4.13603e-21)
(0.251656 -0.0815659 -1.89004e-22)
(0.301336 -0.0672203 -3.81495e-22)
(0.349825 -0.041867 -7.06416e-22)
(0.399742 -0.00977575 4.65674e-22)
(0.452184 0.0200478 1.4531e-22)
(0.50869 0.0352962 5.53542e-23)
(0.570953 0.026034 5.79187e-22)
(0.6366 -0.0062939 -6.42626e-22)
(0.697232 -0.0480936 -1.18464e-22)
(0.742289 -0.079624 8.39862e-23)
(0.774186 -0.0902575 4.26753e-23)
(0.799328 -0.073222 -6.97762e-23)
(0.838802 -0.0437471 5.36019e-23)
(0.871827 -0.0075906 1.0394e-23)
(0.932734 0.0132532 -2.49244e-23)
(0.078004 -0.0418212 -1.89071e-20)
(0.0944096 -0.0650049 2.44345e-21)
(0.153149 -0.0780784 1.8382e-20)
(0.199908 -0.090432 -9.19752e-21)
(0.251462 -0.0961616 -1.15711e-21)
(0.296833 -0.0918273 -4.05644e-21)
(0.340197 -0.076609 -1.98687e-23)
(0.382363 -0.0507355 -1.431e-21)
(0.426891 -0.018366 -4.47406e-22)
(0.475871 0.0116582 -3.84689e-22)
(0.531207 0.0270497 -1.0039e-22)
(0.593844 0.0180683 4.76143e-23)
(0.659673 -0.0133915 6.51276e-22)
(0.719042 -0.0535128 -2.71949e-22)
(0.761146 -0.083245 -1.56895e-22)
(0.788838 -0.0927581 1.45413e-22)
(0.808851 -0.0758763 -1.90261e-23)
(0.843657 -0.046579 -2.55383e-23)
(0.873209 -0.0109346 -3.59443e-23)
(0.932491 0.0111208 -4.01463e-23)
(0.13984 -0.0494508 -5.16651e-21)
(0.159474 -0.0770587 2.02063e-20)
(0.220431 -0.0904685 -9.53183e-21)
(0.26523 -0.101924 -5.11303e-21)
(0.311808 -0.106448 4.06262e-21)
(0.350998 -0.100919 -7.12347e-22)
(0.387359 -0.0849488 1.67564e-21)
(0.422594 -0.0587755 -5.6938e-22)
(0.461045 -0.0263984 1.45486e-21)
(0.505716 0.00358012 7.66836e-22)
(0.558861 0.0189914 -1.6665e-21)
(0.62069 0.0103304 2.32608e-22)
(0.685499 -0.0201382 -5.1886e-23)
(0.742633 -0.058496 4.59382e-22)
(0.781235 -0.0864158 8.93874e-23)
(0.80454 -0.0948273 -1.02019e-22)
(0.81945 -0.0781454 -6.58592e-23)
(0.849488 -0.049116 -6.60771e-23)
(0.87543 -0.0140952 5.56037e-23)