/*--------------------------------*- C++ -*----------------------------------*\
  =========                 |
  \\      /  F ield         | OpenFOAM: The Open Source CFD Toolbox
   \\    /   O peration     | Website:  https://openfoam.org
    \\  /    A nd           | Version:  6.0
     \\/     M anipulation  |
\*---------------------------------------------------------------------------*/
FoamFile
{
    version     2.0;
    format      ascii;
    class       volScalarField;
    location    "20.0025";
    object      p;
}
// * * * * * * * * * * * * * * * * * * * * * * * * * * * * * * * * * * * * * //

dimensions      [0 2 -2 0 0 0 0];

internalField   nonuniform List<scalar> 
2400
(
-6.8213
-4.97799
-3.9794
-3.32527
-2.78457
-2.33641
-1.96814
-1.66251
-1.40614
-1.19331
-7.37294
-5.49012
-4.44455
-3.74435
-3.16132
-2.67586
-2.2756
-1.9428
-1.66318
-1.43116
-7.94196
-6.01563
-4.91964
-4.17047
-3.5428
-3.01836
-2.58501
-2.22436
-1.92118
-1.67009
-8.52244
-6.54938
-5.3996
-4.59865
-3.92421
-3.35936
-2.89207
-2.50319
-2.17642
-1.90675
-9.1083
-7.0857
-5.87906
-5.02373
-4.30064
-3.69419
-3.19233
-2.775
-2.42484
-2.13728
-9.6935
-7.61883
-6.35256
-5.44057
-4.66729
-4.0184
-3.48164
-3.03583
-2.66243
-2.35718
-10.2725
-8.14314
-6.81469
-5.84412
-5.01956
-4.32792
-3.75651
-3.28271
-2.88632
-2.56337
-10.8406
-8.65356
-7.26027
-6.22938
-5.35272
-4.61827
-4.01278
-3.51183
-3.09373
-2.75699
-11.3937
-9.14549
-7.68477
-6.59211
-5.66257
-4.88469
-4.2441
-3.7148
-3.27654
-2.93618
-11.9232
-9.61375
-8.0849
-6.93017
-5.94775
-5.12576
-4.44758
-3.88572
-3.42423
-3.07276
-15.0766
-14.9828
-14.8292
-14.6215
-14.3622
-14.0542
-13.7012
-13.3072
-12.8767
-12.4142
-12.2645
-12.2084
-12.0984
-11.9373
-11.7275
-11.4716
-11.1728
-10.8345
-10.4601
-10.0523
-10.2116
-10.1876
-10.1163
-9.99906
-9.83779
-9.63481
-9.39272
-9.11421
-8.802
-8.45819
-8.64131
-8.63511
-8.58799
-8.50073
-8.37494
-8.2126
-8.016
-7.78742
-7.5292
-7.24298
-7.36206
-7.36258
-7.32763
-7.25791
-7.15481
-7.02017
-6.85619
-6.66505
-6.44914
-6.20976
-6.33589
-6.33687
-6.30675
-6.24622
-6.15662
-6.03971
-5.89779
-5.73316
-5.54883
-5.34593
-5.51711
-5.51578
-5.4867
-5.43059
-5.34873
-5.24283
-5.11538
-4.96886
-4.80747
-4.63228
-4.85638
-4.85222
-4.82283
-4.76891
-4.69163
-4.59259
-4.47442
-4.33984
-4.19498
-4.03994
-4.31448
-4.30838
-4.27914
-4.22736
-4.154
-4.06038
-3.94898
-3.82258
-3.69059
-3.55152
-3.86885
-3.85925
-3.829
-3.77861
-3.70863
-3.61994
-3.51406
-3.39312
-3.2681
-3.14458
-12.7675
-13.2243
-13.6386
-14.01
-14.3332
-14.6034
-14.8169
-14.9717
-15.0668
-15.1017
-9.93037
-10.3647
-10.7637
-11.1238
-11.4405
-11.7097
-11.9285
-12.0947
-12.2068
-12.2637
-7.94768
-8.34722
-8.71762
-9.05409
-9.3527
-9.6103
-9.82436
-9.99285
-10.1143
-10.1874
-6.54023
-6.90042
-7.23581
-7.54149
-7.81398
-8.05079
-8.2499
-8.40961
-8.52864
-8.60606
-5.46527
-5.78785
-6.08854
-6.36248
-6.60666
-6.81916
-6.99844
-7.1432
-7.25247
-7.32558
-4.64357
-4.93402
-5.20389
-5.44852
-5.66586
-5.85457
-6.01349
-6.14167
-6.23844
-6.3033
-4.00647
-4.27219
-4.51693
-4.73606
-4.9296
-5.09701
-5.23734
-5.34995
-5.43435
-5.49016
-3.49569
-3.74119
-3.967
-4.16557
-4.33925
-4.48873
-4.61347
-4.71301
-4.7869
-4.83478
-3.08824
-3.30717
-3.51508
-3.69787
-3.85532
-3.98938
-4.10094
-4.18977
-4.25526
-4.29692
-2.82935
-3.01254
-3.1836
-3.3467
-3.48586
-3.60051
-3.69488
-3.76975
-3.82415
-3.85729
-0.513445
-0.656616
-0.846667
-1.09141
-1.41794
-1.87058
-2.50789
-3.4138
-4.86748
-7.25876
-0.721863
-0.885657
-1.09578
-1.36447
-1.72006
-2.20774
-2.88733
-3.84335
-5.3522
-7.79104
-0.937795
-1.12306
-1.35396
-1.64759
-2.03344
-2.55749
-3.28078
-4.28819
-5.85283
-8.33873
-1.16048
-1.36766
-1.61971
-1.939
-2.356
-2.91743
-3.68542
-4.74516
-6.36641
-8.90025
-1.38933
-1.61833
-1.89151
-2.23686
-2.6856
-3.28505
-4.09839
-5.21089
-6.88887
-9.47071
-1.62393
-1.874
-2.1677
-2.53911
-3.01979
-3.65756
-4.51647
-5.68161
-7.41562
-10.0445
-1.86357
-2.13302
-2.44604
-2.84314
-3.35569
-4.0317
-4.93596
-6.15311
-7.94182
-10.6162
-2.10733
-2.39308
-2.72346
-3.14572
-3.68992
-4.4038
-5.35275
-6.62074
-8.46227
-11.18
-2.35123
-2.64885
-2.99486
-3.44271
-4.0186
-4.7697
-5.76228
-7.07945
-8.97156
-11.7305
-2.58978
-2.88784
-3.25327
-3.73035
-4.33794
-5.12516
-6.15983
-7.52371
-9.46323
-12.2619
0.948582
0.932363
0.887356
0.811142
0.686123
0.480793
0.151467
-0.373221
-1.38466
-3.3762
0.871019
0.846846
0.788061
0.699914
0.562304
0.340929
-0.00945175
-0.561248
-1.60442
-3.62331
0.774254
0.741719
0.671363
0.570938
0.419119
0.179821
-0.193714
-0.775036
-1.85235
-3.89997
0.658902
0.618079
0.536751
0.423159
0.255581
-0.00336392
-0.402001
-1.01523
-2.12994
-4.21037
0.528414
0.478159
0.385026
0.256888
0.0717976
-0.208743
-0.634642
-1.28224
-2.4374
-4.55418
0.384181
0.322801
0.216661
0.0725634
-0.131815
-0.436008
-0.891478
-1.57599
-2.77441
-4.9304
0.227037
0.15268
0.0322505
-0.129217
-0.354647
-0.68457
-1.17196
-1.89598
-3.1404
-5.33821
0.0577947
-0.0313542
-0.167371
-0.347626
-0.59586
-0.953575
-1.47522
-2.2413
-3.53445
-5.77655
-0.122672
-0.22832
-0.381191
-0.581628
-0.854375
-1.24189
-1.80005
-2.61067
-3.9552
-6.24411
-0.313429
-0.437153
-0.608083
-0.830056
-1.12896
-1.54818
-2.14498
-3.00232
-4.40053
-6.73913
1.0411
1.12355
1.1735
1.20581
1.22451
1.23187
1.23004
1.22089
1.20598
1.18654
1.00867
1.08922
1.14528
1.18319
1.20587
1.21587
1.21558
1.20705
1.192
1.17177
0.974968
1.0535
1.1118
1.15257
1.17764
1.18939
1.19017
1.18205
1.16679
1.14575
0.908085
0.990262
1.05319
1.09827
1.12705
1.14176
1.14467
1.13786
1.12311
1.10175
0.792739
0.88238
0.952601
1.00422
1.03871
1.05818
1.06485
1.06077
1.04773
1.02705
0.600736
0.701635
0.782207
0.843211
0.886106
0.912889
0.925693
0.926556
0.917253
0.899073
0.2898
0.406922
0.502305
0.576892
0.632169
0.670065
0.692648
0.701926
0.699664
0.687085
-0.210306
-0.0707225
0.0454269
0.139211
0.212214
0.266377
0.303759
0.326343
0.335857
0.333486
-1.19045
-1.022
-0.879227
-0.760886
-0.665058
-0.589608
-0.532383
-0.491477
-0.465278
-0.452171
-3.148
-2.95034
-2.78196
-2.6403
-2.52275
-2.4268
-2.35018
-2.29117
-2.24837
-2.21865
1.16339
1.13707
1.10757
1.07457
1.03744
0.99539
0.947645
0.894173
0.839649
0.782086
1.14727
1.11911
1.08728
1.05143
1.01088
0.96472
0.911741
0.851394
0.786691
0.710418
1.11976
1.08949
1.05482
1.01533
0.97027
0.918563
0.858794
0.789843
0.712047
0.618466
1.0746
1.04235
1.00482
0.961539
0.911672
0.854042
0.787146
0.70956
0.619942
0.512073
0.999516
0.96589
0.925893
0.879034
0.8244
0.76071
0.686363
0.599673
0.498432
0.37737
0.872745
0.839119
0.797801
0.748257
0.689485
0.620086
0.538326
0.442252
0.329277
0.195075
0.664814
0.633826
0.593587
0.543478
0.482383
0.408767
0.320742
0.216134
0.092238
-0.0545851
0.31983
0.29596
0.261158
0.214624
0.155092
0.0808705
-0.0101009
-0.120212
-0.252245
-0.409416
-0.450509
-0.460445
-0.482937
-0.519027
-0.570139
-0.638178
-0.725502
-0.834986
-0.96979
-1.13235
-2.19581
-2.18662
-2.19167
-2.21175
-2.24838
-2.30381
-2.38101
-2.4838
-2.61621
-2.7785
-2.96436
-1.3236
-0.594373
-0.227377
0.0357154
0.230398
0.37497
0.48632
0.571875
0.62685
-3.18642
-1.54549
-0.806969
-0.425621
-0.147229
0.061635
0.218222
0.338349
0.428352
0.490069
-3.4459
-1.79972
-1.04827
-0.649707
-0.353395
-0.127776
0.0436073
0.176401
0.277887
0.35318
-3.74297
-2.08701
-1.31862
-0.899585
-0.582448
-0.337304
-0.148319
0.000252909
0.116672
0.207174
-4.07766
-2.40753
-1.61815
-1.17531
-0.834439
-0.567132
-0.358105
-0.19148
-0.0582216
0.048122
-4.44979
-2.76111
-1.94671
-1.47676
-1.10931
-0.817386
-0.586218
-0.399798
-0.248415
-0.125709
-4.85881
-3.1471
-2.30366
-1.80333
-1.40655
-1.0877
-0.832505
-0.624812
-0.45425
-0.314621
-5.30385
-3.56434
-2.68776
-2.15378
-1.72498
-1.37698
-1.09599
-0.865668
-0.674959
-0.517812
-5.78323
-4.01094
-3.09698
-2.52612
-2.06264
-1.68335
-1.37486
-1.12063
-0.908857
-0.733619
-6.29217
-4.48371
-3.52867
-2.91772
-2.41694
-2.00423
-1.66662
-1.38725
-1.15356
-0.959727
-0.660478
-0.224204
-0.081862
-0.00129014
0.033429
0.0440259
0.0421035
0.0342823
0.0232832
0.0125898
0.00148529
-0.00724857
-0.0150568
-0.0220044
-0.0241054
-0.0311101
-0.0269516
-0.0295702
-0.0253736
-0.00537111
-0.859866
-0.334211
-0.151423
-0.0502798
-0.000917333
0.0190573
0.0235253
0.0202909
0.0127049
0.00461309
-0.00447442
-0.0116462
-0.0182516
-0.0242464
-0.02571
-0.0321334
-0.027663
-0.0301332
-0.0256795
-0.00537828
-1.06228
-0.450255
-0.22249
-0.0997369
-0.035388
-0.00571441
0.00524929
0.00661551
0.00241549
-0.00311966
-0.0102377
-0.0158944
-0.0213338
-0.0264094
-0.0272597
-0.0331101
-0.0283606
-0.0306638
-0.0259578
-0.00538991
-1.26612
-0.572185
-0.295365
-0.149768
-0.0701203
-0.0304026
-0.0127948
-0.00678898
-0.00761452
-0.010628
-0.0158175
-0.0200024
-0.0243093
-0.0284976
-0.0287569
-0.0340434
-0.0290443
-0.0311627
-0.0262087
-0.00540658
-1.46774
-0.697371
-0.368865
-0.199799
-0.104951
-0.0549967
-0.0306232
-0.019942
-0.0174019
-0.0179249
-0.0212235
-0.0239769
-0.0271834
-0.0305143
-0.030204
-0.0349353
-0.0297143
-0.0316296
-0.026431
-0.00542891
-1.66046
-0.822296
-0.441933
-0.249371
-0.139682
-0.0794256
-0.0482057
-0.0328336
-0.0269457
-0.0250133
-0.0264591
-0.0278214
-0.0299589
-0.0324618
-0.0316028
-0.035788
-0.0303704
-0.0320651
-0.0266247
-0.00545736
-1.84576
-0.954912
-0.521022
-0.301694
-0.175661
-0.104273
-0.0658089
-0.0455947
-0.0363179
-0.0319352
-0.0315513
-0.0315531
-0.0326474
-0.0343479
-0.032958
-0.0366062
-0.0310136
-0.0324719
-0.0267914
-0.00549243
-2.05262
-1.12196
-0.622202
-0.364731
-0.216722
-0.131491
-0.0844547
-0.0587758
-0.0458312
-0.0388738
-0.0366118
-0.0352401
-0.0352904
-0.0362002
-0.0342845
-0.0374037
-0.0316496
-0.0328583
-0.0269395
-0.00553594
-2.28617
-1.31558
-0.739341
-0.435722
-0.262378
-0.161323
-0.104435
-0.0725947
-0.0556292
-0.0459207
-0.041695
-0.0389162
-0.0379067
-0.0380296
-0.0355892
-0.0381832
-0.0322819
-0.0332244
-0.0270682
-0.00558972
-2.36286
-1.40419
-0.798037
-0.477169
-0.294228
-0.18431
-0.120601
-0.0841392
-0.0639713
-0.0520147
-0.046123
-0.0421555
-0.0402321
-0.0396525
-0.0367786
-0.0388503
-0.032867
-0.0335037
-0.0271012
-0.005642
-2.19258
-1.36246
-0.78281
-0.479941
-0.307195
-0.197895
-0.131788
-0.09306
-0.0709205
-0.057453
-0.0502532
-0.0453416
-0.042631
-0.041326
-0.0381256
-0.0394746
-0.0335397
-0.0336654
-0.0268961
-0.00568789
-1.98497
-1.31894
-0.793244
-0.503945
-0.338217
-0.227937
-0.156461
-0.112442
-0.0858429
-0.0688345
-0.0586989
-0.0515688
-0.0471328
-0.0443858
-0.0403905
-0.0406448
-0.0345521
-0.0340055
-0.0267332
-0.00572024
-1.73535
-1.24289
-0.794042
-0.521348
-0.363564
-0.256188
-0.181679
-0.132997
-0.102042
-0.0814021
-0.0681262
-0.0585482
-0.0521826
-0.0478118
-0.0429023
-0.0419385
-0.0356313
-0.0343074
-0.0264693
-0.00572744
-1.47999
-1.13935
-0.781256
-0.534521
-0.384637
-0.281578
-0.2061
-0.153584
-0.118501
-0.0943191
-0.0778971
-0.0658253
-0.0574559
-0.0513908
-0.0455247
-0.0432472
-0.0367252
-0.0344766
-0.0260301
-0.00572127
-1.25086
-1.02109
-0.751785
-0.540675
-0.400974
-0.303051
-0.22868
-0.173691
-0.134957
-0.1074
-0.0878942
-0.073321
-0.0628924
-0.0550878
-0.0482147
-0.0445533
-0.0377925
-0.0344741
-0.0254056
-0.00569936
-1.05769
-0.903594
-0.709817
-0.53898
-0.412927
-0.32048
-0.248405
-0.192413
-0.150817
-0.120212
-0.0978105
-0.0808214
-0.0683454
-0.0588114
-0.0508907
-0.0458231
-0.0387694
-0.0342696
-0.0246021
-0.00565231
-0.906518
-0.800617
-0.663427
-0.53019
-0.420245
-0.333879
-0.264574
-0.208763
-0.165295
-0.132155
-0.10718
-0.0879757
-0.0735666
-0.0623961
-0.0534241
-0.0469969
-0.0395807
-0.0338516
-0.0236504
-0.00557419
-0.796362
-0.719282
-0.620349
-0.517152
-0.423156
-0.343395
-0.27695
-0.221965
-0.17755
-0.142536
-0.115443
-0.094342
-0.0782344
-0.0656196
-0.0556558
-0.0480031
-0.0401648
-0.0332596
-0.0226282
-0.00547086
-0.72306
-0.66228
-0.586709
-0.504123
-0.423003
-0.349353
-0.285513
-0.231488
-0.186761
-0.150565
-0.121932
-0.0993814
-0.0819454
-0.0681984
-0.0573995
-0.0487684
-0.0405028
-0.0326178
-0.0216828
-0.00536746
-0.684416
-0.63126
-0.567241
-0.495589
-0.422015
-0.35233
-0.29021
-0.236842
-0.192074
-0.155302
-0.125808
-0.102411
-0.0841785
-0.0697646
-0.0584287
-0.0492155
-0.0406374
-0.0321477
-0.0210481
-0.00530959
-3.27473
-3.24741
-3.20374
-3.1441
-3.06844
-2.97711
-2.869
-2.74626
-2.60694
-2.49924
-2.62856
-2.59894
-2.55933
-2.51087
-2.4544
-2.39166
-2.32395
-2.2575
-2.19245
-2.15667
-2.1243
-2.10181
-2.07499
-2.04514
-2.01321
-1.9802
-1.9459
-1.91118
-1.87169
-1.84192
-1.72613
-1.71102
-1.69347
-1.67392
-1.65246
-1.62907
-1.60339
-1.5763
-1.54793
-1.52835
-1.41666
-1.40594
-1.39328
-1.37894
-1.36318
-1.34637
-1.32885
-1.3113
-1.29381
-1.27984
-1.18366
-1.17621
-1.1673
-1.15713
-1.14591
-1.13381
-1.12097
-1.10753
-1.09361
-1.08068
-1.01329
-1.00786
-1.00114
-0.993229
-0.984257
-0.974351
-0.963641
-0.952275
-0.940414
-0.928648
-0.893357
-0.889105
-0.88367
-0.877128
-0.86957
-0.861094
-0.851799
-0.841788
-0.831155
-0.820171
-0.814975
-0.811361
-0.806646
-0.800883
-0.794137
-0.786481
-0.777993
-0.768756
-0.758849
-0.748415
-0.774302
-0.771014
-0.766682
-0.76134
-0.75503
-0.747803
-0.739713
-0.730818
-0.721179
-0.710862
-2.66376
-2.83208
-2.88992
-2.9914
-3.08969
-3.16125
-3.21421
-3.25338
-3.27751
-3.28489
-2.36579
-2.49124
-2.4667
-2.49692
-2.55988
-2.60621
-2.63241
-2.64729
-2.65265
-2.64673
-2.01674
-2.11164
-2.06656
-2.06314
-2.10288
-2.13719
-2.15193
-2.15468
-2.15092
-2.14095
-1.68154
-1.75604
-1.7178
-1.702
-1.72254
-1.74539
-1.75443
-1.75311
-1.74714
-1.73822
-1.39555
-1.4497
-1.4263
-1.41111
-1.41941
-1.4325
-1.43823
-1.43688
-1.43204
-1.42531
-1.16473
-1.19965
-1.18951
-1.18141
-1.18546
-1.19291
-1.1969
-1.19671
-1.19394
-1.18955
-0.988964
-1.01055
-1.00952
-1.00851
-1.01239
-1.01746
-1.02059
-1.02127
-1.02005
-1.01736
-0.865507
-0.879703
-0.883508
-0.886509
-0.890755
-0.894817
-0.897494
-0.898538
-0.898116
-0.896371
-0.787311
-0.797689
-0.80328
-0.807713
-0.811906
-0.815405
-0.817767
-0.818873
-0.818754
-0.817448
-0.747702
-0.756483
-0.762525
-0.767259
-0.771266
-0.774449
-0.776615
-0.777685
-0.77765
-0.77652
-0.0468191
-0.0537813
-0.0694187
-0.0992473
-0.14621
-0.22872
-0.354078
-0.593729
-0.962603
-1.84596
-0.0900588
-0.0983372
-0.116184
-0.149537
-0.201372
-0.290648
-0.422703
-0.669722
-1.03107
-1.77172
-0.137629
-0.146702
-0.165968
-0.201347
-0.255218
-0.345573
-0.474176
-0.700646
-1.01421
-1.54517
-0.189014
-0.198619
-0.218971
-0.25526
-0.309711
-0.396132
-0.516787
-0.703733
-0.963203
-1.32425
-0.243015
-0.252739
-0.273624
-0.309342
-0.362781
-0.440802
-0.550261
-0.695026
-0.902571
-1.1496
-0.297635
-0.306969
-0.327511
-0.361068
-0.411193
-0.478405
-0.572669
-0.683193
-0.840221
-1.01105
-0.350009
-0.358568
-0.377722
-0.407943
-0.452383
-0.508715
-0.585196
-0.670204
-0.782314
-0.898507
-0.396565
-0.404179
-0.42112
-0.447421
-0.484948
-0.531439
-0.59096
-0.656246
-0.73397
-0.811874
-0.433222
-0.439903
-0.454433
-0.476928
-0.508062
-0.546378
-0.592704
-0.643251
-0.698636
-0.752885
-0.455103
-0.461113
-0.473911
-0.493753
-0.520731
-0.553845
-0.592546
-0.634562
-0.678652
-0.72147
0.208524
0.208574
0.209133
0.208151
0.204702
0.193836
0.169212
0.119353
0.00673917
-0.198755
0.18296
0.182332
0.181219
0.177429
0.169786
0.152517
0.117974
0.0530656
-0.0876859
-0.337441
0.157448
0.156151
0.15339
0.146787
0.134963
0.111148
0.066678
-0.0139103
-0.183304
-0.479219
0.132061
0.130114
0.125748
0.116342
0.100372
0.0698686
0.015548
-0.0814617
-0.279592
-0.623933
0.10687
0.104301
0.0983872
0.0862041
0.0661396
0.0288077
-0.0352153
-0.149537
-0.375953
-0.771898
0.0819393
0.0787869
0.0713954
0.0564758
0.0323738
-0.011911
-0.0854483
-0.218134
-0.471713
-0.924138
0.057332
0.0536524
0.0448668
0.0272704
-0.000814844
-0.0521522
-0.13503
-0.287246
-0.566173
-1.08252
0.0331079
0.0289937
0.0189286
-0.00125693
-0.0332773
-0.0917432
-0.183893
-0.356829
-0.658717
-1.25043
0.00929546
0.00483103
-0.00640141
-0.0290842
-0.0650236
-0.130673
-0.232252
-0.427089
-0.749415
-1.42974
-0.0141861
-0.0191926
-0.0317435
-0.0569899
-0.0969985
-0.169677
-0.28092
-0.497934
-0.842646
-1.63821
0.450907
0.45656
0.4716
0.49582
0.530506
0.576214
0.636917
0.710814
0.812142
0.896288
0.428615
0.433688
0.447449
0.469253
0.500299
0.540571
0.593836
0.656436
0.743008
0.813631
0.40584
0.410558
0.423172
0.442698
0.470179
0.50499
0.55035
0.600998
0.670368
0.726712
0.382527
0.386845
0.398258
0.415542
0.439592
0.469251
0.507134
0.546956
0.599175
0.635593
0.358702
0.362528
0.372614
0.387548
0.408056
0.432487
0.462703
0.491617
0.525036
0.536096
0.334422
0.337695
0.346345
0.358809
0.3756
0.394574
0.416587
0.433834
0.44639
0.428478
0.309749
0.312428
0.319557
0.329457
0.342384
0.355697
0.369011
0.373899
0.363962
0.31403
0.284751
0.286802
0.292345
0.299603
0.30855
0.316038
0.320269
0.312254
0.278457
0.193495
0.259497
0.260895
0.264801
0.269357
0.274231
0.275745
0.270584
0.249152
0.190211
0.0674067
0.234062
0.23479
0.237029
0.238833
0.239566
0.23496
0.220157
0.184781
0.0995102
-0.0635951
0.837611
0.842414
0.85224
0.86696
0.885695
0.907028
0.929369
0.95101
0.970445
0.985984
0.819737
0.825299
0.836727
0.853889
0.875885
0.901247
0.928296
0.955044
0.979794
1.00015
0.789457
0.796112
0.809857
0.830639
0.857624
0.889351
0.924083
0.959429
0.993379
1.02217
0.750474
0.75821
0.774308
0.798907
0.831372
0.870413
0.914407
0.960641
1.00675
1.04689
0.705944
0.714519
0.732531
0.760392
0.797795
0.843827
0.897278
0.955416
1.01573
1.06958
0.658686
0.667729
0.686942
0.717024
0.758059
0.809683
0.871431
0.941004
1.01634
1.08548
0.611083
0.620191
0.639814
0.670861
0.713804
0.768877
0.836612
0.91554
1.00502
1.08951
0.56497
0.573809
0.593155
0.623959
0.667016
0.723052
0.793681
0.878355
0.979036
1.07616
0.521591
0.529932
0.548547
0.578177
0.619837
0.674483
0.744678
0.830332
0.937097
1.04024
0.481569
0.488949
0.506265
0.533806
0.57275
0.623982
0.690803
0.772526
0.87863
0.977906
0.993023
0.995151
0.996524
0.997479
0.998072
0.998257
0.998002
0.997299
0.996149
0.994551
1.01048
1.01306
1.01413
1.01483
1.0153
1.01538
1.01498
1.01411
1.01276
1.01095
1.03864
1.04214
1.04273
1.043
1.04327
1.04317
1.04253
1.04135
1.03966
1.03747
1.07221
1.07716
1.07726
1.07708
1.07714
1.0768
1.07578
1.07413
1.07191
1.06914
1.1068
1.11393
1.11386
1.11341
1.11332
1.11267
1.11115
1.10884
1.10586
1.10223
1.13851
1.14897
1.14947
1.14918
1.14912
1.14814
1.14593
1.1427
1.1386
1.13373
1.16338
1.17895
1.18145
1.18222
1.18259
1.18132
1.17823
1.17368
1.16793
1.16117
1.17678
1.20008
1.20708
1.21055
1.21212
1.21077
1.20665
1.20034
1.19229
1.18283
1.17285
1.20586
1.22064
1.22952
1.23407
1.23374
1.22906
1.22088
1.2099
1.19667
1.15499
1.20606
1.2333
1.24853
1.25526
1.25433
1.24712
1.23495
1.21886
1.19961
0.992506
0.990014
0.987078
0.983703
0.979892
0.975653
0.970992
0.965918
0.960441
0.954593
1.00867
1.00592
1.00272
0.999069
0.99498
0.990469
0.98555
0.980236
0.97454
0.968619
1.03478
1.0316
1.02794
1.0238
1.01921
1.01419
1.00874
1.00288
0.996587
0.990284
1.06581
1.06195
1.05758
1.0527
1.04734
1.04152
1.03527
1.02852
1.02118
1.01411
1.09799
1.09317
1.08781
1.08193
1.07554
1.06867
1.06131
1.05328
1.04425
1.0358
1.12816
1.12197
1.11521
1.1079
1.10004
1.09161
1.08251
1.07224
1.06009
1.0493
1.15353
1.14516
1.1361
1.12635
1.11585
1.10451
1.09209
1.07738
1.05921
1.04462
1.17223
1.16066
1.14818
1.13468
1.11994
1.10375
1.08554
1.06273
1.03312
1.01111
1.18162
1.16501
1.14682
1.12678
1.10438
1.07916
1.05027
1.01386
0.966392
0.933118
1.17762
1.15304
1.12558
1.09463
1.05936
1.01901
0.972999
0.919036
0.85538
0.81338
0.939522
0.906248
0.862472
0.808123
0.74364
0.670058
0.589041
0.503959
0.418042
0.335614
0.259621
0.192268
0.135932
0.0892818
0.0540218
0.0281071
0.0094808
0.00065695
-0.00394864
-0.00360156
0.954386
0.916999
0.867286
0.807248
0.73769
0.65967
0.575282
0.488386
0.402153
0.320721
0.246445
0.181217
0.127194
0.0823471
0.0490724
0.0242093
0.00680569
-0.00117912
-0.00536632
-0.00375661
0.977816
0.932925
0.873333
0.804286
0.726538
0.64146
0.55211
0.462911
0.376718
0.297254
0.225925
0.164243
0.113841
0.0718747
0.0416755
0.0183534
0.00288322
-0.00395692
-0.00746262
-0.00398484
1.00469
0.948889
0.876958
0.796986
0.709107
0.615892
0.521625
0.430846
0.345731
0.269358
0.20199
0.144837
0.0986869
0.0601974
0.03353
0.0118372
-0.00131691
-0.00705229
-0.0097922
-0.00424046
1.0299
0.959256
0.873814
0.781794
0.683079
0.582382
0.484745
0.394121
0.311684
0.239659
0.177152
0.125135
0.0834567
0.0487011
0.0255657
0.00543918
-0.00526924
-0.0101251
-0.0121159
-0.00449238
1.04638
0.957262
0.858735
0.754757
0.646553
0.541054
0.442945
0.354927
0.27697
0.210382
0.153308
0.106586
0.0692705
0.0381829
0.0182831
-0.000385823
-0.00874304
-0.012992
-0.014287
-0.00471673
1.04489
0.93586
0.826756
0.713416
0.599925
0.494058
0.399002
0.315976
0.243864
0.183263
0.131691
0.090006
0.0566998
0.0289822
0.0118877
-0.0054437
-0.0116914
-0.0155632
-0.0162218
-0.00490412
1.0142
0.888496
0.774463
0.657819
0.545396
0.444086
0.355266
0.279009
0.213491
0.158962
0.112643
0.0755522
0.0458242
0.0210978
0.00637987
-0.0097285
-0.0141649
-0.0178121
-0.0178922
-0.00505742
0.944177
0.811202
0.702412
0.590879
0.486058
0.393424
0.313104
0.244656
0.185993
0.137372
0.0959435
0.0629984
0.0364495
0.0143548
0.00165823
-0.0133328
-0.0162436
-0.0197488
-0.0193055
-0.00518284
0.838088
0.708361
0.620968
0.521901
0.428916
0.346845
0.275519
0.214675
0.162321
0.118956
0.0817889
0.0523939
0.0285655
0.00871209
-0.00230652
-0.01629
-0.0179434
-0.0213731
-0.0204464
-0.00527451
0.742879
0.62479
0.567011
0.480031
0.396117
0.320965
0.25491
0.198268
0.149308
0.108695
0.0738351
0.0462953
0.0239871
0.00540612
-0.0047242
-0.0180045
-0.0189444
-0.0224205
-0.0211016
-0.00531742
0.676428
0.558975
0.515153
0.435732
0.359455
0.291686
0.231827
0.180272
0.135405
0.0980711
0.0658401
0.0403862
0.0196865
0.0023887
-0.00683047
-0.0194794
-0.0197816
-0.0232118
-0.0215897
-0.00533747
0.587764
0.484332
0.455223
0.387668
0.320666
0.261084
0.20777
0.161471
0.120825
0.0868881
0.0573974
0.0341367
0.0151326
-0.000803705
-0.00905755
-0.0210267
-0.0206654
-0.0240177
-0.0220814
-0.00534834
0.48256
0.407763
0.392435
0.339724
0.283001
0.231864
0.185052
0.143816
0.107167
0.0764168
0.0494828
0.0282641
0.01084
-0.00382177
-0.0111806
-0.0224942
-0.0215209
-0.0248015
-0.0225606
-0.00535606
0.360611
0.329027
0.327192
0.291466
0.245899
0.203365
0.163066
0.126815
0.0940632
0.0663986
0.0419236
0.0226608
0.00674536
-0.00669991
-0.0132141
-0.0238885
-0.0223488
-0.0255609
-0.0230234
-0.00536109
0.222169
0.247479
0.260204
0.242865
0.209267
0.175406
0.141599
0.110262
0.081329
0.056679
0.0345988
0.0172365
0.00278482
-0.00948151
-0.0151838
-0.0252267
-0.0231577
-0.0262972
-0.0234689
-0.00536362
0.0684172
0.162446
0.192255
0.194071
0.173177
0.148035
0.120676
0.0941704
0.0689729
0.0472602
0.027507
0.0119872
-0.00104574
-0.0121709
-0.0170926
-0.026511
-0.0239496
-0.0270088
-0.0238954
-0.0053645
-0.0988881
0.0732467
0.12391
0.145207
0.137628
0.121258
0.100299
0.078549
0.0570044
0.0381512
0.0206558
0.00691826
-0.00474239
-0.0147657
-0.0189384
-0.0277404
-0.0247246
-0.0276935
-0.0243005
-0.00536471
-0.277674
-0.0206935
0.055459
0.0963505
0.102557
0.0950396
0.0804392
0.0633791
0.0454121
0.0293448
0.0140409
0.00202685
-0.00830686
-0.0172675
-0.0207214
-0.0289157
-0.0254829
-0.0283496
-0.0246832
-0.00536531
-0.465681
-0.119774
-0.0130632
0.0475322
0.0678663
0.0693213
0.0610567
0.0486338
0.0341784
0.020829
0.00765387
-0.00269317
-0.0117434
-0.0196793
-0.0224432
-0.0300382
-0.0262253
-0.0289755
-0.0250411
-0.00536727
)
;

boundaryField
{
    inlet
    {
        type            freestreamPressure;
        freestreamValue uniform 0;
        supersonic      false;
        value           nonuniform List<scalar> 
40
(
-0.0468191
-0.0900588
-0.137629
-0.189014
-0.243015
-0.297635
-0.350009
-0.396565
-0.433222
-0.455103
0.208524
0.18296
0.157448
0.132061
0.10687
0.0819393
0.057332
0.0331079
0.00929546
-0.0141861
0.450907
0.428615
0.40584
0.382527
0.358702
0.334422
0.309749
0.284751
0.259497
0.234062
0.837611
0.819737
0.789457
0.750474
0.705944
0.658686
0.611083
0.56497
0.521591
0.481569
)
;
    }
    outlet
    {
        type            freestreamPressure;
        freestreamValue uniform 0;
        supersonic      false;
        value           nonuniform List<scalar> 
40
(
-5.08077e-06
-5.28112e-06
-5.39132e-06
-5.37138e-06
-5.14474e-06
-4.61842e-06
-3.72741e-06
-2.50196e-06
-1.15409e-06
-1.52318e-07
-3.20266e-06
-3.38361e-06
-3.56749e-06
-3.75356e-06
-3.94114e-06
-4.12937e-06
-4.31732e-06
-4.50489e-06
-4.69158e-06
-4.86671e-06
-1.6145e-06
-1.75179e-06
-1.89325e-06
-2.04052e-06
-2.19322e-06
-2.35081e-06
-2.51301e-06
-2.67957e-06
-2.85029e-06
-3.02482e-06
-6.15212e-09
-4.99721e-08
-1.23981e-07
-2.27277e-07
-3.64858e-07
-5.37475e-07
-7.3992e-07
-9.63234e-07
-1.19705e-06
-1.42999e-06
)
;
    }
    top
    {
        type            symmetryPlane;
    }
    bottom
    {
        type            symmetryPlane;
    }
    cylinder
    {
        type            zeroGradient;
    }
    frontandback
    {
        type            empty;
    }
}


// ************************************************************************* //
