/*--------------------------------*- C++ -*----------------------------------*\
| =========                 |                                                 |
| \\      /  F ield         | OpenFOAM: The Open Source CFD Toolbox           |
|  \\    /   O peration     | Version:  v1912                                 |
|   \\  /    A nd           | Website:  www.openfoam.com                      |
|    \\/     M anipulation  |                                                 |
\*---------------------------------------------------------------------------*/
FoamFile
{
    version     2.0;
    format      ascii;
    class       volVectorField;
    location    "38.5";
    object      U;
}
// * * * * * * * * * * * * * * * * * * * * * * * * * * * * * * * * * * * * * //

dimensions      [0 1 -1 0 0 0 0];


internalField   nonuniform List<vector> 
9600
(
(0.456574 -9.36265 -1.54074e-19)
(0.159693 -8.63416 0)
(0.241755 -8.1614 -9.04582e-20)
(0.320323 -7.842 0)
(0.387448 -7.60646 0)
(0.455663 -7.41132 -3.1819e-20)
(0.520993 -7.23259 -5.48265e-22)
(0.580308 -7.05806 2.65931e-20)
(0.632835 -6.88242 0)
(0.678606 -6.70421 -4.50861e-20)
(0.718011 -6.52407 0)
(0.751675 -6.34354 -1.82871e-21)
(0.780331 -6.16441 -2.60606e-21)
(0.804736 -5.98839 -3.14971e-20)
(0.825611 -5.81685 2.656e-20)
(0.843608 -5.65075 -2.60944e-20)
(0.859279 -5.49059 2.3231e-20)
(0.873167 -5.33626 0)
(0.886053 -5.18702 -1.84765e-20)
(0.897665 -5.04133 2.02551e-20)
(0.824544 -9.35221 -3.08227e-19)
(0.502213 -8.66214 1.17603e-20)
(0.567475 -8.20555 1.86335e-19)
(0.634531 -7.89564 -1.58799e-19)
(0.692636 -7.66469 1.56607e-19)
(0.752797 -7.47004 0)
(0.810242 -7.28901 6.06867e-20)
(0.8615 -7.1105 -6.05451e-20)
(0.905726 -6.92998 -1.05008e-19)
(0.94301 -6.74659 1.328e-19)
(0.973852 -6.56136 -8.62205e-20)
(0.998999 -6.37609 -3.51944e-20)
(1.0193 -6.19271 7.1043e-20)
(1.03559 -6.013 0)
(1.04867 -5.83836 0)
(1.05922 -5.66974 9.95574e-20)
(1.06779 -5.50759 -1.68793e-19)
(1.07496 -5.35177 0)
(1.08158 -5.20139 0)
(1.08712 -5.05483 -7.8009e-20)
(1.19285 -9.32824 6.36833e-19)
(0.846996 -8.67726 0)
(0.89674 -8.23704 -3.77006e-19)
(0.953022 -7.93671 -3.41689e-19)
(1.00241 -7.71032 0)
(1.05449 -7.51613 5.45967e-19)
(1.10382 -7.33282 -5.15419e-19)
(1.14668 -7.15042 1.01022e-19)
(1.1822 -6.96522 -2.24898e-19)
(1.21058 -6.77693 -3.73973e-19)
(1.23246 -6.58696 5.10476e-19)
(1.24874 -6.39733 -3.15605e-19)
(1.26037 -6.21013 -1.41433e-19)
(1.26829 -6.02716 0)
(1.27336 -5.84984 5.52158e-21)
(1.27629 -5.6791 1.04944e-19)
(1.27765 -5.51538 4.53594e-20)
(1.27801 -5.35845 0)
(1.27831 -5.20733 8.22228e-20)
(1.27767 -5.06032 8.42709e-20)
(1.56039 -9.29036 -8.6153e-19)
(1.19345 -8.67924 -4.03671e-19)
(1.22899 -8.25563 3.91549e-19)
(1.27523 -7.96489 6.72795e-19)
(1.31618 -7.743 -3.26536e-19)
(1.36015 -7.54921 5.78834e-21)
(1.40112 -7.36366 2.53517e-19)
(1.43521 -7.17751 2.29611e-19)
(1.46163 -6.98787 4.20499e-19)
(1.48071 -6.795 0)
(1.49326 -6.60067 1.61961e-19)
(1.50033 -6.40712 -1.71895e-19)
(1.50302 -6.21653 1.03454e-20)
(1.50234 -6.03076 2.70928e-19)
(1.49921 -5.8512 2.32239e-19)
(1.49439 -5.67879 -3.27834e-19)
(1.48843 -5.5139 1.07964e-19)
(1.48194 -5.35627 -1.75775e-19)
(1.4759 -5.20479 1.74944e-19)
(1.46902 -5.05776 -8.43144e-20)
(1.92686 -9.23851 4.34485e-19)
(1.54128 -8.66793 0)
(1.56383 -8.26107 3.84492e-19)
(1.60065 -7.97985 0)
(1.6334 -7.76235 0)
(1.66918 -7.56893 -3.00089e-19)
(1.70152 -7.3812 -5.36865e-19)
(1.72649 -7.19149 -4.55145e-19)
(1.74341 -6.99769 1.84442e-20)
(1.7528 -6.8006 -1.9666e-19)
(1.75567 -6.60234 0)
(1.75324 -6.40532 -1.6237e-19)
(1.74672 -6.21183 -2.9248e-19)
(1.73724 -6.02372 2.57187e-19)
(1.72577 -5.84239 -7.30889e-19)
(1.71308 -5.66873 1.18283e-19)
(1.69974 -5.50309 9.37377e-20)
(1.68637 -5.34516 -1.93297e-19)
(1.67399 -5.19372 -8.44522e-20)
(1.66083 -5.0471 2.51828e-19)
(2.2917 -9.1726 4.19224e-19)
(1.89001 -8.64309 4.15705e-19)
(1.90072 -8.25307 0)
(1.92872 -7.98127 0)
(1.95347 -7.76806 -6.23828e-19)
(1.98095 -7.57499 3.40982e-19)
(2.00439 -7.38517 8.20461e-19)
(2.01987 -7.19211 0)
(2.0269 -6.99446 2.16786e-19)
(2.02623 -6.79356 1.9666e-19)
(2.0191 -6.59182 -3.47408e-19)
(2.00688 -6.39183 5.03794e-19)
(1.99094 -6.19593 1.47824e-19)
(1.97249 -6.00597 0)
(1.95255 -5.82334 1.23043e-19)
(1.93191 -5.64888 5.5229e-19)
(1.91114 -5.48292 -3.29095e-19)
(1.89089 -5.32509 3.69756e-19)
(1.87221 -5.17408 -7.03104e-19)
(1.85277 -5.02833 8.12825e-19)
(2.65441 -9.0926 4.26356e-19)
(2.2391 -8.60452 -2.25755e-18)
(2.23914 -8.23136 0)
(2.25887 -7.96884 0)
(2.27575 -7.75982 0)
(2.29481 -7.56708 -6.05119e-19)
(2.30905 -7.37531 0)
(2.31468 -7.17914 -9.6978e-19)
(2.31145 -6.97802 8.94492e-19)
(2.30038 -6.77375 -8.30731e-19)
(2.28294 -6.56902 0)
(2.26069 -6.36658 0)
(2.23514 -6.16878 0)
(2.20757 -5.97749 -2.81014e-19)
(2.17906 -5.79403 0)
(2.15041 -5.61923 0)
(2.1222 -5.45337 -4.12394e-19)
(2.09508 -5.29606 4.0519e-19)
(2.07015 -5.14586 0)
(2.04447 -5.00142 0)
(3.01441 -8.99853 -1.38705e-18)
(2.58803 -8.55207 8.98752e-19)
(2.57851 -8.1957 0)
(2.59046 -7.9423 0)
(2.5996 -7.73735 0)
(2.61008 -7.54497 5.75546e-19)
(2.61482 -7.3514 -5.77283e-19)
(2.61025 -7.15243 -8.87313e-21)
(2.59641 -6.94823 -8.95591e-19)
(2.57461 -6.74106 8.38539e-19)
(2.54658 -6.53387 -3.78263e-19)
(2.51409 -6.32951 6.57703e-19)
(2.47876 -6.13036 -4.63772e-20)
(2.44196 -5.93826 -5.94957e-19)
(2.4048 -5.75447 -5.01401e-19)
(2.36812 -5.57978 4.92611e-19)
(2.33246 -5.41446 0)
(2.29851 -5.25805 0)
(2.26742 -5.10906 3.56408e-19)
(2.23555 -4.9664 -3.92239e-19)
(3.37117 -8.89041 9.27054e-19)
(2.93622 -8.48558 8.82925e-19)
(2.91823 -8.14587 -1.67347e-18)
(2.92288 -7.90141 7.90467e-19)
(2.92435 -7.70042 0)
(2.92608 -7.50844 6.15869e-19)
(2.92102 -7.31327 -5.40609e-19)
(2.90589 -7.11183 1.52777e-18)
(2.88109 -6.90499 -2.36775e-20)
(2.84827 -6.69543 0)
(2.80941 -6.48633 7.63197e-19)
(2.76649 -6.28061 0)
(2.72125 -6.08067 0)
(2.67513 -5.88828 -2.72155e-19)
(2.62929 -5.70467 5.4892e-19)
(2.58454 -5.53055 0)
(2.54145 -5.36619 4.30504e-19)
(2.50074 -5.21109 1.792e-19)
(2.46357 -5.0637 -3.88835e-19)
(2.4256 -4.92329 3.77554e-19)
(3.72413 -8.7683 -9.5481e-19)
(3.28307 -8.40497 8.97309e-19)
(3.25767 -8.08169 -2.55547e-18)
(3.25544 -7.84595 8.03563e-19)
(3.24931 -7.64883 0)
(3.24209 -7.45733 -1.24302e-18)
(3.22693 -7.26079 5.97128e-19)
(3.20091 -7.05724 0)
(3.16483 -6.84823 -4.74015e-19)
(3.12071 -6.63682 -8.221e-19)
(3.07082 -6.42638 -7.16304e-19)
(3.0173 -6.2199 5.34121e-20)
(2.96204 -6.01973 6.69942e-19)
(2.90655 -5.82761 2.71931e-19)
(2.85199 -5.64466 -3.79108e-20)
(2.79919 -5.47158 -5.12066e-19)
(2.7487 -5.30861 -2.29019e-19)
(2.70129 -5.15522 -2.06464e-19)
(2.65815 -5.00981 5.50736e-19)
(2.61421 -4.87211 -8.20705e-19)
(4.07272 -8.63228 9.54812e-19)
(3.62801 -8.31014 -4.66346e-20)
(3.5962 -8.00302 8.21414e-19)
(3.58749 -7.77577 0)
(3.57376 -7.58243 -6.79988e-19)
(3.55741 -7.39149 1.30659e-18)
(3.53183 -7.19385 -1.11676e-18)
(3.49459 -6.9886 1.09897e-18)
(3.44695 -6.77792 -4.4524e-19)
(3.39129 -6.56523 9.03866e-19)
(3.33017 -6.35405 3.91398e-19)
(3.26594 -6.14739 0)
(3.20059 -5.94758 0)
(3.13568 -5.75626 -2.81965e-19)
(3.0724 -5.5745 3.83276e-20)
(3.01157 -5.40292 1.00837e-18)
(2.95371 -5.24175 -2.49475e-19)
(2.89967 -5.09046 8.23898e-19)
(2.85067 -4.94741 1.4417e-19)
(2.8009 -4.81291 -8.38216e-19)
(4.41638 -8.48246 -2.93788e-18)
(3.97041 -8.20107 -9.86092e-19)
(3.93317 -7.90976 -2.62939e-18)
(3.91832 -7.69073 -1.59948e-18)
(3.897 -7.50108 -7.58658e-19)
(3.87129 -7.31083 -7.41482e-19)
(3.83501 -7.1124 -2.42026e-18)
(3.78625 -6.90589 -4.9036e-20)
(3.72677 -6.69408 -1.94455e-18)
(3.65936 -6.48068 3.02171e-20)
(3.58686 -6.26937 -8.07275e-19)
(3.51182 -6.06314 -7.35588e-19)
(3.43632 -5.86428 6.71463e-19)
(3.36198 -5.67432 -6.14042e-19)
(3.28999 -5.49424 -5.62542e-19)
(3.22115 -5.32462 -5.16268e-19)
(3.15599 -5.16568 -1.38615e-18)
(3.09539 -5.01687 4.93174e-19)
(3.04064 -4.87656 1.19674e-18)
(2.98522 -4.74572 -1.27371e-18)
(4.75458 -8.31899 3.95163e-18)
(4.30969 -8.07776 4.85416e-18)
(4.26793 -7.80183 8.33799e-19)
(4.24725 -7.59074 3.99485e-18)
(4.21829 -7.40473 -7.82947e-19)
(4.18302 -7.21531 3.91194e-18)
(4.13574 -7.01641 1.14426e-18)
(4.07518 -6.80911 3.21226e-18)
(4.00362 -6.59672 -9.81831e-19)
(3.92427 -6.38324 2.71834e-18)
(3.84027 -6.1724 1.62605e-18)
(3.75435 -5.96723 1.48181e-18)
(3.66869 -5.76989 -2.00608e-18)
(3.58492 -5.58184 1.87919e-18)
(3.50425 -5.40396 1.13376e-18)
(3.42744 -5.23676 1.04072e-18)
(3.355 -5.08046 9.56937e-19)
(3.28791 -4.93451 7.35395e-21)
(3.22754 -4.7973 8.12268e-19)
(3.16667 -4.67058 8.45335e-19)
(5.08678 -8.14203 -2.93442e-18)
(4.64526 -7.94024 1.08142e-18)
(4.59983 -7.6792 2.67503e-18)
(4.57356 -7.47576 -3.2589e-18)
(4.53691 -7.29332 7.5305e-19)
(4.49184 -7.10492 -2.61717e-18)
(4.43329 -6.90592 1.28269e-18)
(4.36067 -6.69832 -2.14932e-18)
(4.27683 -6.48593 4.89984e-20)
(4.1854 -6.27297 1.1925e-20)
(4.08982 -6.06325 -1.64849e-18)
(3.99297 -5.85972 -7.46223e-19)
(3.89713 -5.6645 1.37208e-18)
(3.80396 -5.4789 8.74475e-21)
(3.71463 -5.30371 -3.71523e-20)
(3.62988 -5.13939 -1.08624e-18)
(3.55022 -4.98614 -4.82347e-19)
(3.47669 -4.84342 -2.71127e-20)
(3.41079 -4.70968 -8.4657e-19)
(3.34469 -4.58762 -4.26909e-19)
(5.41248 -7.95175 0)
(4.97652 -7.78857 -1.99813e-18)
(4.9282 -7.54186 2.36933e-20)
(4.89656 -7.34576 3.25431e-18)
(4.85213 -7.16687 1.36198e-18)
(4.79705 -6.9797 -1.41775e-18)
(4.72697 -6.78099 -1.22127e-18)
(4.64206 -6.57361 0)
(4.54576 -6.36182 -9.72017e-19)
(4.44214 -6.15 9.2765e-19)
(4.33491 -5.942 -3.90367e-20)
(4.22714 -5.74073 0)
(4.12114 -5.54818 -6.90732e-19)
(4.01859 -5.36556 5.98262e-19)
(3.92061 -5.19355 4.99767e-19)
(3.82794 -5.03253 -6.03382e-19)
(3.74104 -4.88272 -5.23422e-19)
(3.66107 -4.74358 9.08888e-19)
(3.58964 -4.61369 -8.38769e-19)
(3.51845 -4.4969 4.41494e-19)
(5.73121 -7.74834 3.03166e-18)
(5.30289 -7.62281 -2.0579e-18)
(5.25238 -7.38983 -1.75614e-18)
(5.21552 -7.20078 8.17592e-19)
(5.16322 -7.02542 -1.58621e-18)
(5.0979 -6.83972 0)
(5.01606 -6.64172 0)
(4.91866 -6.43511 0)
(4.80976 -6.22451 -4.44367e-20)
(4.69388 -6.01446 -1.86169e-18)
(4.575 -5.80881 8.79233e-19)
(4.45632 -5.61037 7.43548e-19)
(4.34021 -5.42103 6.29158e-19)
(4.22832 -5.24189 -2.58187e-18)
(4.12174 -5.07351 1.224e-18)
(4.02114 -4.9162 0)
(3.92696 -4.77017 -3.03924e-20)
(3.84043 -4.63494 -1.40971e-18)
(3.7633 -4.50926 -5.6893e-21)
(3.68698 -4.39807 -4.41982e-19)
(6.04262 -7.53207 -2.06212e-18)
(5.62383 -7.4431 -1.08494e-18)
(5.57169 -7.22319 8.17375e-19)
(5.52974 -7.04087 -1.43887e-19)
(5.46944 -6.86906 -4.6238e-18)
(5.39367 -6.68509 4.18441e-18)
(5.29986 -6.48826 -4.87944e-20)
(5.18982 -6.28298 1.14598e-18)
(5.06824 -6.07418 1.02816e-18)
(4.94007 -5.86652 9.44036e-19)
(4.80956 -5.66381 8.5904e-19)
(4.68003 -5.46877 1.53516e-18)
(4.55387 -5.28316 -7.38889e-19)
(4.43272 -5.10797 1.91517e-18)
(4.3176 -4.94365 -1.23812e-18)
(4.2091 -4.79047 -5.12144e-19)
(4.10762 -4.64861 2.0571e-18)
(4.01443 -4.51761 1.3743e-18)
(3.93149 -4.39627 -2.79241e-20)
(3.85023 -4.29045 0)
(6.34668 -7.30344 -1.04848e-18)
(5.93895 -7.24962 2.07334e-18)
(5.88547 -7.04198 1.81503e-18)
(5.83846 -6.8661 -1.4586e-19)
(5.77005 -6.69789 -1.56879e-18)
(5.68363 -6.51597 7.06321e-20)
(5.57767 -6.3208 1.31481e-20)
(5.45487 -6.11742 1.17155e-20)
(5.32057 -5.91104 0)
(5.18015 -5.70638 9.23312e-19)
(5.03807 -5.50717 -1.75737e-18)
(4.89777 -5.31604 -7.51983e-19)
(4.76165 -5.13463 7.46523e-19)
(4.63129 -4.96381 -6.54995e-19)
(4.50765 -4.80396 6.06613e-19)
(4.39124 -4.65532 -5.52216e-19)
(4.28246 -4.51808 4.89322e-21)
(4.18269 -4.39163 -4.69112e-19)
(4.09418 -4.27467 -4.33341e-19)
(4.00877 -4.17489 -4.33633e-19)
(6.64373 -7.06291 0)
(6.24798 -7.0423 -1.01086e-18)
(6.19307 -6.84614 9.99258e-19)
(6.14094 -6.67653 1.74326e-18)
(6.0643 -6.51208 -1.57743e-18)
(5.96707 -6.3326 1.36263e-18)
(5.84883 -6.13961 -2.62e-18)
(5.71322 -5.93873 -2.32651e-18)
(5.56623 -5.73539 -1.01488e-18)
(5.41363 -5.53431 4.43839e-20)
(5.26013 -5.33914 -8.40329e-19)
(5.1092 -5.15237 3.48899e-20)
(4.96321 -4.9755 0)
(4.82364 -4.80932 -1.28481e-18)
(4.69133 -4.65416 6.55688e-19)
(4.56665 -4.51028 0)
(4.45007 -4.37778 -5.13464e-19)
(4.34317 -4.25581 -9.23123e-19)
(4.2482 -4.14401 9.07061e-19)
(4.1576 -4.05497 4.47747e-19)
(6.93337 -6.8097 0)
(6.55031 -6.82043 0)
(6.49378 -6.63559 -1.85353e-18)
(6.43643 -6.47245 -1.5936e-18)
(6.35148 -6.31203 3.2345e-18)
(6.24335 -6.1354 0)
(6.11276 -5.94513 0)
(5.96435 -5.74736 1.1688e-18)
(5.80477 -5.54767 0)
(5.64018 -5.35074 0)
(5.47547 -5.16008 0)
(5.31416 -4.97805 0)
(5.15855 -4.80598 0)
(5.00995 -4.64452 0)
(4.86892 -4.49393 0)
(4.73559 -4.35437 0)
(4.61021 -4.22571 0)
(4.49386 -4.10729 0)
(4.38667 -4.00218 0)
(4.28251 -3.92763 0)
(10.0426 0.0877335 1.47182e-19)
(10.0222 -0.307622 2.86359e-19)
(9.98638 -0.700303 -2.94115e-19)
(9.93588 -1.09017 5.86407e-19)
(9.87039 -1.47687 -5.86406e-19)
(9.78978 -1.85992 -5.54119e-19)
(9.69415 -2.23876 -5.52573e-19)
(9.58371 -2.61286 1.74033e-18)
(9.45869 -2.98166 -1.1595e-18)
(9.31936 -3.34461 1.14979e-18)
(9.166 -3.70116 -1.14979e-18)
(8.99891 -4.05078 1.1413e-18)
(8.81842 -4.39295 -2.26332e-18)
(8.62488 -4.72718 3.333e-18)
(8.41867 -5.05297 0)
(8.20017 -5.36987 -3.27461e-18)
(7.96977 -5.67746 1.63111e-20)
(7.72799 -5.97539 3.30013e-18)
(7.47495 -6.26349 0)
(7.21232 -6.54109 0)
(10.1182 -0.210738 0)
(10.077 -0.606766 -1.50373e-20)
(10.019 -0.998999 0)
(9.94493 -1.3871 5.61082e-19)
(9.85496 -1.77063 5.84317e-19)
(9.74934 -2.149 -1.69115e-18)
(9.62834 -2.52158 2.94436e-18)
(9.49232 -2.88773 -1.1623e-18)
(9.34167 -3.24686 -1.10791e-18)
(9.17675 -3.5984 -1.10339e-18)
(8.998 -3.94175 4.4561e-20)
(8.80585 -4.27639 1.13056e-18)
(8.60076 -4.60178 -5.62032e-18)
(8.38322 -4.91744 -1.17871e-18)
(8.15371 -5.2229 2.24582e-18)
(7.91276 -5.51772 2.24286e-18)
(7.66082 -5.80152 1.13955e-18)
(7.39849 -6.07396 -2.1973e-18)
(7.12585 -6.33479 1.04053e-18)
(6.84385 -6.58367 0)
(10.069 -0.149279 1.32514e-19)
(10.0313 -0.540838 -2.71371e-19)
(9.97611 -0.929225 7.83643e-19)
(9.90399 -1.31375 -5.55193e-19)
(9.81526 -1.69375 -5.29344e-19)
(9.7103 -2.06852 5.52685e-19)
(9.58947 -2.43734 0)
(9.45318 -2.79952 0)
(9.30184 -3.15437 2.09852e-18)
(9.13591 -3.50127 3.13061e-18)
(8.95585 -3.8396 -9.90109e-19)
(8.76217 -4.16876 3.09568e-18)
(8.55537 -4.48819 -9.85946e-19)
(8.33601 -4.79735 -3.01524e-18)
(8.10463 -5.09575 1.35908e-20)
(7.8618 -5.38292 1.93543e-18)
(7.60805 -5.65842 -8.73542e-19)
(7.34397 -5.92184 -1.90414e-18)
(7.06991 -6.17281 -1.02859e-18)
(6.78659 -6.41083 1.8714e-18)
(9.90229 -0.112596 0)
(9.87131 -0.494903 2.28766e-19)
(9.82306 -0.874867 2.27824e-19)
(9.75773 -1.25159 -9.36003e-19)
(9.67563 -1.62427 0)
(9.57713 -1.99213 0)
(9.46257 -2.35441 0)
(9.33234 -2.71037 0)
(9.18684 -3.05928 -9.90531e-19)
(9.02652 -3.40045 -9.86773e-19)
(8.85185 -3.73323 0)
(8.66335 -4.05697 1.86562e-18)
(8.46154 -4.37106 -4.61257e-18)
(8.24698 -4.67493 3.70896e-18)
(8.02022 -4.96801 -3.59492e-18)
(7.78187 -5.2498 -8.72312e-19)
(7.53248 -5.51981 1.56394e-19)
(7.27269 -5.77755 1.54802e-19)
(7.003 -6.02257 -1.77665e-18)
(6.72415 -6.25439 -7.08783e-20)
(9.64888 -0.0991239 0)
(9.6253 -0.469191 -2.25615e-19)
(9.58488 -0.83757 0)
(9.5277 -1.20336 4.51353e-19)
(9.45398 -1.56572 4.30246e-19)
(9.36403 -1.92386 3.93326e-19)
(9.25814 -2.27699 0)
(9.13665 -2.62437 0)
(8.99995 -2.96524 0)
(8.84844 -3.29889 0)
(8.68257 -3.62462 8.12525e-19)
(8.50282 -3.94177 8.75438e-19)
(8.30969 -4.24969 8.70457e-19)
(8.10373 -4.54776 -8.8376e-19)
(7.8855 -4.83541 -1.52084e-18)
(7.65556 -5.11205 1.72654e-18)
(7.41452 -5.37717 3.34738e-18)
(7.163 -5.63023 1.62816e-18)
(6.90156 -5.87073 0)
(6.63092 -6.09819 -1.53446e-18)
(9.34168 -0.0903184 4.63674e-20)
(9.32505 -0.446206 0)
(9.29221 -0.800977 -7.59852e-19)
(9.24318 -1.15378 1.83737e-23)
(9.17809 -1.50378 1.61623e-20)
(9.09719 -1.8502 -6.84866e-20)
(9.00074 -2.19227 0)
(8.88902 -2.52922 3.09121e-20)
(8.76237 -2.86031 -7.71391e-19)
(8.62114 -3.18483 1.50291e-18)
(8.46575 -3.50206 -1.5672e-18)
(8.29663 -3.81134 8.56233e-19)
(8.11426 -4.112 -4.48785e-18)
(7.91913 -4.40342 2.96e-18)
(7.71178 -4.68497 1.56913e-18)
(7.49277 -4.95606 0)
(7.26267 -5.21614 -2.89624e-18)
(7.02208 -5.46464 -6.15052e-20)
(6.77158 -5.70104 -2.85223e-18)
(6.51184 -5.92481 2.96461e-18)
(9.00922 -0.0854952 4.1697e-20)
(8.99823 -0.426384 -8.73524e-20)
(8.97176 -0.766622 7.16218e-19)
(8.92979 -1.10541 -1.40633e-20)
(8.87241 -1.44196 7.1607e-19)
(8.79982 -1.77551 -1.08156e-18)
(8.71222 -2.1053 0)
(8.60987 -2.4306 7.29117e-19)
(8.49303 -2.75068 6.6756e-19)
(8.36203 -3.06484 -7.25035e-19)
(8.21724 -3.37239 1.32646e-18)
(8.05904 -3.67266 2.81225e-18)
(7.88786 -3.96499 -1.30781e-18)
(7.70418 -4.24874 -1.41767e-18)
(7.50849 -4.52331 1.35949e-18)
(7.30131 -4.78808 0)
(7.08318 -5.04248 6.48972e-20)
(6.85468 -5.28592 9.79268e-21)
(6.61639 -5.51788 2.70225e-18)
(6.3689 -5.73779 1.25626e-18)
(8.67272 -0.0842964 0)
(8.66578 -0.410232 6.25285e-21)
(8.64413 -0.735862 -1.45727e-19)
(8.60774 -1.06044 -6.47212e-19)
(8.55666 -1.38322 6.08349e-19)
(8.49105 -1.70346 0)
(8.41107 -2.02047 1.23822e-18)
(8.31694 -2.33352 -1.36056e-21)
(8.20888 -2.64193 -1.89115e-18)
(8.0872 -2.94502 0)
(7.9522 -3.24212 -1.30535e-18)
(7.80424 -3.53259 4.59747e-20)
(7.64371 -3.81578 -3.66925e-18)
(7.47104 -4.09107 6.46433e-21)
(7.2867 -4.35786 1.22981e-18)
(7.09116 -4.61555 0)
(6.88496 -4.86355 -1.20708e-18)
(6.66862 -5.10129 8.68645e-21)
(6.4427 -5.32822 1.1984e-18)
(6.20776 -5.54374 -1.23625e-18)
(8.34601 -0.0853578 0)
(8.34168 -0.396921 1.49415e-19)
(8.32341 -0.708411 3.10008e-19)
(8.29114 -1.01913 -5.73799e-19)
(8.24492 -1.32837 -2.47088e-20)
(8.18486 -1.63545 -2.86768e-19)
(8.1111 -1.9397 -1.14796e-18)
(8.02383 -2.24044 5.70721e-19)
(7.92326 -2.53701 2.38006e-20)
(7.80964 -2.82879 5.67307e-19)
(7.68324 -3.11512 5.22227e-19)
(7.5444 -3.39539 2.26171e-18)
(7.39347 -3.669 1.13131e-18)
(7.23086 -3.93534 2.23448e-18)
(7.05698 -4.19382 -1.11431e-18)
(6.87231 -4.44388 3.86456e-20)
(6.67733 -4.68493 -1.10116e-18)
(6.47256 -4.91639 0)
(6.25853 -5.13772 1.04086e-18)
(6.03575 -5.34832 0)
(8.03698 -0.087556 6.50485e-20)
(8.03412 -0.385618 -1.90505e-19)
(8.01803 -0.683747 5.2253e-19)
(7.98864 -0.981289 -2.60679e-19)
(7.946 -1.27759 1.89703e-20)
(7.89021 -1.572 -2.60525e-19)
(7.82138 -1.86388 5.4163e-19)
(7.73967 -2.1526 -5.18356e-19)
(7.64528 -2.43756 5.18353e-19)
(7.53843 -2.71813 9.9415e-19)
(7.41937 -2.99373 -1.0713e-18)
(7.28841 -3.26377 -4.50724e-20)
(7.14587 -3.52767 -3.10091e-18)
(6.99213 -3.78487 5.3705e-21)
(6.8276 -4.03481 4.02489e-20)
(6.65272 -4.27694 2.01024e-18)
(6.46796 -4.5107 -9.92992e-19)
(6.27382 -4.73553 -9.4582e-19)
(6.07082 -4.95087 -3.74303e-20)
(5.85943 -5.15611 0)
(7.74925 -0.090147 0)
(7.74701 -0.375698 2.41989e-19)
(7.73218 -0.661391 -8.3204e-19)
(7.70472 -0.94661 -2.20737e-19)
(7.66465 -1.23074 4.93692e-19)
(7.61206 -1.51317 0)
(7.54706 -1.79331 0)
(7.46979 -2.07056 4.71883e-19)
(7.38043 -2.34434 -4.71881e-19)
(7.27917 -2.61409 3.97476e-19)
(7.16627 -2.87924 -4.6884e-19)
(7.042 -3.13925 9.29746e-19)
(6.90667 -3.39358 -1.85489e-18)
(6.76063 -3.64171 1.8453e-18)
(6.60428 -3.88311 3.46437e-20)
(6.43804 -4.11726 -9.49088e-19)
(6.26238 -4.34363 -9.03114e-19)
(6.07779 -4.56168 1.83971e-18)
(5.8848 -4.77084 8.61204e-19)
(5.68386 -4.97049 0)
(7.48361 -0.0926578 1.87618e-21)
(7.4814 -0.366697 1.58873e-19)
(7.46721 -0.640905 3.33568e-19)
(7.44097 -0.914703 2.33486e-19)
(7.40271 -1.18751 2.16582e-19)
(7.35251 -1.45875 2.01465e-19)
(7.29048 -1.72787 0)
(7.21674 -1.9943 -8.32574e-19)
(7.13145 -2.2575 -4.29199e-19)
(7.03482 -2.51695 3.66124e-19)
(6.92706 -2.77211 0)
(6.80843 -3.02247 8.47712e-19)
(6.67924 -3.26755 -2.50713e-18)
(6.53982 -3.50685 8.43371e-19)
(6.39054 -3.7399 0)
(6.23184 -3.96621 -8.01868e-19)
(6.0642 -4.18527 -1.61957e-18)
(5.88808 -4.39658 7.96935e-19)
(5.70407 -4.59957 -2.91862e-20)
(5.51259 -4.79359 0)
(7.23917 -0.0947898 3.46154e-21)
(7.23665 -0.358269 -1.02819e-19)
(7.22267 -0.62191 1.98416e-19)
(7.19717 -0.885167 -1.311e-20)
(7.16018 -1.14749 3.96481e-19)
(7.11178 -1.40835 -6.08928e-19)
(7.05207 -1.66719 0)
(6.98116 -1.92351 5.59826e-20)
(6.89921 -2.17679 0)
(6.80641 -2.42652 -8.12843e-19)
(6.70296 -2.67223 0)
(6.58912 -2.91343 -7.50127e-19)
(6.46516 -3.14968 2.31847e-18)
(6.33142 -3.38052 -1.53632e-18)
(6.18826 -3.60552 7.65951e-19)
(6.03611 -3.82425 -6.77658e-19)
(5.87547 -4.03624 7.82795e-19)
(5.70682 -4.24104 -7.77441e-19)
(5.5308 -4.43802 0)
(5.34785 -4.62658 0)
(7.01415 -0.0964214 4.70468e-20)
(7.01114 -0.350189 0)
(6.99711 -0.6041 0)
(6.97204 -0.857635 -3.76947e-19)
(6.93597 -1.11027 -3.51799e-19)
(6.88895 -1.3615 0)
(6.8311 -1.61081 0)
(6.76251 -1.85771 4.98073e-20)
(6.68335 -2.10172 6.9667e-19)
(6.59378 -2.34236 -3.3597e-19)
(6.494 -2.57918 -3.57959e-19)
(6.38425 -2.81174 1.44601e-18)
(6.26479 -3.03963 -2.14719e-18)
(6.13596 -3.26244 1.38461e-18)
(5.9981 -3.47978 0)
(5.85163 -3.6913 2.7817e-18)
(5.69709 -3.89655 -2.01962e-18)
(5.53499 -4.09517 6.87077e-19)
(5.36609 -4.28648 1.31399e-18)
(5.19081 -4.4699 0)
(6.80647 -0.0974876 -4.04463e-20)
(6.80284 -0.342297 0)
(6.78863 -0.587228 -5.21655e-21)
(6.76381 -0.83178 -3.23682e-19)
(6.72841 -1.07546 1.00299e-18)
(6.68251 -1.31776 -1.66845e-19)
(6.6262 -1.55823 0)
(6.55958 -1.79637 1.32909e-18)
(6.48279 -2.03174 -6.8447e-19)
(6.39601 -2.26389 4.44419e-20)
(6.29941 -2.49239 6.34324e-19)
(6.19322 -2.71685 6.50192e-19)
(6.07771 -2.93687 -1.29659e-18)
(5.95315 -3.15211 -1.2682e-18)
(5.81992 -3.36221 -1.23872e-18)
(5.67841 -3.56692 -1.31819e-18)
(5.5292 -3.76579 1.3092e-18)
(5.3728 -3.95869 -6.24981e-19)
(5.21024 -4.14475 -6.65997e-19)
(5.04182 -4.32362 0)
(6.61387 -0.097968 3.97375e-20)
(6.60961 -0.334487 -1.49202e-19)
(6.59516 -0.571097 -1.54458e-19)
(6.57049 -0.807319 4.6249e-19)
(6.53565 -1.04268 -1.64247e-19)
(6.49069 -1.2767 -1.53524e-19)
(6.43572 -1.50894 0)
(6.37083 -1.73893 -6.31049e-19)
(6.29615 -1.96625 0)
(6.21185 -2.19048 6.26166e-19)
(6.11809 -2.41121 -1.20662e-18)
(6.01509 -2.62808 5.97296e-19)
(5.90308 -2.84072 -1.19092e-18)
(5.78233 -3.04885 1.22896e-18)
(5.6532 -3.25214 6.68924e-19)
(5.51605 -3.45047 0)
(5.37151 -3.64338 -5.77358e-19)
(5.22005 -3.83108 5.77358e-19)
(5.06313 -4.01237 0)
(4.90072 -4.1876 0)
(6.43425 -0.09795 0)
(6.42938 -0.326736 1.46589e-19)
(6.41469 -0.555582 4.7178e-21)
(6.39015 -0.784028 -1.5115e-19)
(6.35581 -1.01162 -1.33282e-19)
(6.31173 -1.23791 -1.41503e-19)
(6.258 -1.46246 5.46908e-19)
(6.19471 -1.68484 0)
(6.12199 -1.90464 0)
(6.03999 -2.12146 2.7794e-19)
(5.94887 -2.33492 2.95257e-19)
(5.84882 -2.54468 1.06859e-18)
(5.74005 -2.75041 -5.45998e-19)
(5.62282 -2.95186 5.45996e-19)
(5.49742 -3.14875 5.79627e-19)
(5.36419 -3.3411 3.3903e-20)
(5.2238 -3.52843 -1.06452e-18)
(5.0766 -3.71152 3.77647e-21)
(4.92475 -3.88847 5.26492e-19)
(4.76739 -4.06128 0)
(6.2657 -0.0974365 -3.27637e-20)
(6.26029 -0.319013 3.27633e-20)
(6.2454 -0.540623 0)
(6.22102 -0.761818 1.23405e-19)
(6.1872 -0.982164 4.00862e-19)
(6.14399 -1.20123 -5.06637e-19)
(6.09148 -1.41861 -5.37355e-19)
(6.02976 -1.63388 0)
(5.95895 -1.84665 0)
(5.87919 -2.05655 0)
(5.79063 -2.26322 -9.91973e-19)
(5.69344 -2.46633 -6.40497e-20)
(5.58781 -2.66558 -5.02966e-19)
(5.47394 -2.86077 3.01491e-20)
(5.35211 -3.05164 -9.94665e-19)
(5.22253 -3.23837 1.51588e-18)
(5.08593 -3.42049 -1.43631e-18)
(4.94235 -3.5996 4.87571e-19)
(4.79507 -3.77272 9.34691e-19)
(4.64138 -3.94474 0)
(6.10651 -0.0960778 2.94345e-20)
(6.10067 -0.311118 0)
(6.08567 -0.526179 -1.21183e-19)
(6.06151 -0.740826 -2.49707e-19)
(6.02824 -0.954638 1.21031e-19)
(5.98592 -1.16721 9.66482e-19)
(5.93461 -1.37814 0)
(5.87443 -1.58703 -4.65474e-19)
(5.80547 -1.79353 -2.38075e-19)
(5.72786 -1.99726 -4.4725e-19)
(5.64174 -2.19789 -1.78942e-19)
(5.54726 -2.39512 -1.41203e-18)
(5.44458 -2.58866 -9.32022e-19)
(5.33383 -2.77832 9.58756e-19)
(5.21527 -2.9639 9.17706e-19)
(5.0889 -3.14565 -3.88016e-21)
(4.95554 -3.32321 2.99006e-20)
(4.81442 -3.49916 4.49247e-19)
(4.67065 -3.66971 -9.18427e-19)
(4.51751 -3.84473 0)
(5.95508 -0.0944055 -6.15533e-20)
(5.94894 -0.303187 3.03016e-20)
(5.93398 -0.512056 -1.2106e-19)
(5.9102 -0.720624 1.21004e-19)
(5.87762 -0.928496 -3.48022e-19)
(5.83629 -1.13528 -1.0837e-18)
(5.78626 -1.3406 0)
(5.72762 -1.54409 4.92511e-19)
(5.66046 -1.74537 -4.60508e-19)
(5.58487 -1.94413 9.75158e-19)
(5.50097 -2.14002 9.69362e-19)
(5.40887 -2.33276 1.42816e-18)
(5.30869 -2.52206 -9.26707e-19)
(5.20048 -2.70773 4.61595e-19)
(5.08448 -2.8896 -4.53947e-19)
(4.96032 -3.06787 4.53971e-19)
(4.8291 -3.24226 0)
(4.68813 -3.41601 4.11002e-19)
(4.54643 -3.58493 -4.02192e-19)
(4.38888 -3.77117 0)
(7.13928 7.26126 0)
(7.41922 6.97149 0)
(7.68626 6.67214 1.08629e-18)
(7.94111 6.36371 2.02162e-20)
(8.18319 6.04592 -1.14932e-18)
(8.41184 5.71884 0)
(8.62666 5.38286 1.18601e-18)
(8.8273 5.03852 -2.23757e-18)
(9.01346 4.68639 -1.1308e-18)
(9.18484 4.32708 -1.14136e-18)
(9.34118 3.96123 1.14135e-18)
(9.48225 3.58949 -1.15343e-18)
(9.60786 3.21254 5.75356e-19)
(9.71781 2.83109 5.49127e-19)
(9.81195 2.44581 5.51271e-19)
(9.89021 2.05735 -5.85066e-19)
(9.95257 1.66638 5.85066e-19)
(9.99911 1.27361 -2.9371e-19)
(10.0298 0.879424 -1.39509e-19)
(10.0451 0.485182 7.34838e-20)
(7.41512 7.06853 0)
(7.69522 6.77917 -9.95326e-19)
(7.96154 6.47824 -2.12797e-18)
(8.21436 6.16643 3.14682e-18)
(8.45345 5.84406 -2.18223e-18)
(8.6783 5.51157 2.19292e-18)
(8.88842 5.16957 1.19224e-18)
(9.0834 4.81873 -3.3831e-18)
(9.26285 4.45974 1.10675e-18)
(9.42642 4.0933 2.20009e-18)
(9.5738 3.72015 1.08393e-18)
(9.70473 3.34105 1.0908e-18)
(9.81905 2.95679 -1.15108e-18)
(9.91654 2.56808 1.69496e-18)
(9.99693 2.17574 -2.35163e-18)
(10.0601 1.78062 5.80451e-19)
(10.1061 1.38353 -5.57758e-19)
(10.135 0.985283 0)
(10.1467 0.586419 1.51507e-20)
(10.1415 0.187912 0)
(7.27162 6.94333 -1.75253e-18)
(7.55451 6.67137 9.83939e-19)
(7.82486 6.38656 1.79975e-18)
(8.08223 6.08956 8.14706e-19)
(8.32618 5.78094 2.04059e-18)
(8.55619 5.46134 1.9997e-20)
(8.77174 5.1314 -1.02281e-18)
(8.97233 4.79182 -3.04811e-18)
(9.15752 4.44333 3.00927e-18)
(9.32686 4.08664 -3.08907e-18)
(9.47998 3.7225 -1.02913e-18)
(9.61656 3.35167 -2.05899e-18)
(9.7363 2.97497 0)
(9.83898 2.59317 0)
(9.92446 2.20717 0)
(9.99258 1.81788 -5.24822e-19)
(10.0432 1.42612 5.49676e-19)
(10.0762 1.03277 5.26514e-19)
(10.0916 0.638526 6.26688e-21)
(10.0893 0.244363 1.32237e-19)
(7.04413 6.69117 1.82016e-18)
(7.32374 6.43785 -1.65285e-18)
(7.59201 6.17143 -1.6951e-19)
(7.84821 5.89243 -1.70469e-19)
(8.09178 5.60143 4.29675e-18)
(8.32218 5.29904 -7.12247e-20)
(8.53885 4.98588 3.75828e-21)
(8.74125 4.6626 -2.71716e-18)
(8.9289 4.3299 1.79275e-18)
(9.10132 3.98845 0)
(9.25801 3.63904 9.61559e-19)
(9.39864 3.2825 9.68208e-19)
(9.52293 2.9196 0)
(9.63056 2.55119 0)
(9.72131 2.17808 0)
(9.79499 1.80108 0)
(9.8514 1.42103 -2.16957e-20)
(9.89042 1.03877 4.74059e-19)
(9.91194 0.65513 -2.27642e-19)
(9.91596 0.271055 0)
(6.78138 6.37645 1.54148e-18)
(7.05313 6.14099 0)
(7.31464 5.8926 -4.53843e-18)
(7.56513 5.6317 -1.54693e-18)
(7.80394 5.35881 -1.62562e-18)
(8.03052 5.07449 -1.72327e-18)
(8.24427 4.77932 8.14177e-19)
(8.44467 4.4739 -8.55629e-19)
(8.63116 4.15885 2.37578e-18)
(8.80331 3.83488 -7.77763e-19)
(8.96068 3.50273 0)
(9.10279 3.16316 0)
(9.22925 2.81685 0)
(9.33979 2.4646 0)
(9.43413 2.1072 -1.22823e-18)
(9.51203 1.74548 4.22334e-19)
(9.57327 1.38022 -4.46135e-19)
(9.61768 1.01228 0)
(9.64515 0.642479 2.24507e-19)
(9.65559 0.271721 0)
(6.5064 6.04932 1.31861e-18)
(6.76791 5.82999 -4.79752e-20)
(7.02014 5.59815 2.77364e-18)
(7.26227 5.35413 1.38568e-18)
(7.49366 5.09839 0)
(7.71373 4.83144 -1.47148e-18)
(7.9219 4.55381 6.84591e-20)
(8.11764 4.26605 -1.49382e-18)
(8.30041 3.96877 2.06651e-18)
(8.46975 3.66259 3.27214e-20)
(8.62523 3.34817 2.81001e-20)
(8.76638 3.02612 -7.45402e-19)
(8.8928 2.69718 1.46188e-18)
(9.00418 2.36211 0)
(9.10025 2.02162 6.85224e-20)
(9.1807 1.67653 7.46351e-19)
(9.24527 1.32762 1.63556e-21)
(9.29378 0.975659 -1.53359e-20)
(9.32609 0.621459 0)
(9.34208 0.26585 -4.6271e-20)
(6.2405 5.73236 0)
(6.49068 5.52702 -4.88991e-20)
(6.73232 5.30968 1.75434e-20)
(6.96466 5.08064 -2.50716e-18)
(7.18706 4.84029 0)
(7.39895 4.58911 1.26799e-18)
(7.59979 4.32756 1.35063e-18)
(7.78905 4.05617 -3.92947e-18)
(7.96622 3.77546 -6.82306e-20)
(8.13084 3.48602 -1.26172e-18)
(8.28247 3.18844 6.94745e-19)
(8.42068 2.88333 -6.41735e-19)
(8.54508 2.57137 -7.05496e-19)
(8.65529 2.25324 0)
(8.75108 1.92967 3.7221e-19)
(8.83222 1.60126 -1.68962e-20)
(8.89835 1.26888 -3.45516e-19)
(8.94923 0.933247 -1.67583e-20)
(8.98475 0.59512 -8.69756e-20)
(9.00477 0.255269 1.74324e-19)
(5.99486 5.43717 0)
(6.23346 5.24367 1.08406e-18)
(6.4641 5.03875 1.61548e-20)
(6.68609 4.82266 -1.10019e-18)
(6.8988 4.59576 0)
(7.10168 4.35846 1.14457e-18)
(7.29423 4.11119 -1.09277e-18)
(7.47594 3.85443 -1.20976e-18)
(7.64634 3.58867 2.30105e-18)
(7.80497 3.31444 1.24166e-18)
(7.95142 3.03231 0)
(8.08528 2.74285 6.0561e-19)
(8.20617 2.44668 -4.38305e-21)
(8.31377 2.14446 2.18519e-20)
(8.40767 1.83685 0)
(8.48773 1.52447 -5.96097e-19)
(8.5538 1.20794 -3.12301e-19)
(8.60545 0.888075 4.56286e-19)
(8.64258 0.565601 3.07645e-19)
(8.665 0.241225 -4.11227e-20)
(5.77316 5.16868 0)
(6.0005 4.98516 -9.36226e-19)
(6.22034 4.7908 0)
(6.43202 4.58581 -1.01011e-18)
(6.63496 4.37051 1.98867e-18)
(6.82864 4.14528 -2.0281e-18)
(7.01257 3.91051 3.17363e-18)
(7.1863 3.66664 -3.16447e-18)
(7.34937 3.41413 -2.13802e-18)
(7.50136 3.15348 -1.57689e-18)
(7.64187 2.88521 5.40749e-19)
(7.77052 2.60988 -1.12109e-18)
(7.88696 2.32805 1.86357e-20)
(7.99087 2.04034 1.11442e-18)
(8.08195 1.74733 -2.80359e-19)
(8.15983 1.44974 1.1485e-18)
(8.22442 1.14806 -5.6487e-19)
(8.27556 0.843005 2.60244e-19)
(8.31296 0.535297 -1.48426e-19)
(8.33645 0.225608 0)
(5.57513 4.92727 0)
(5.79185 4.75221 1.81119e-18)
(6.00143 4.56686 8.78519e-19)
(6.20323 4.37142 -9.0433e-19)
(6.39671 4.16615 -1.85251e-18)
(6.58139 3.95141 2.81895e-18)
(6.75681 3.72755 1.12732e-20)
(6.92256 3.49499 -9.18812e-19)
(7.0782 3.25415 1.97263e-18)
(7.22335 3.00552 1.01881e-18)
(7.35764 2.74959 -9.51793e-19)
(7.4807 2.48688 4.99789e-19)
(7.59221 2.21793 2.25191e-20)
(7.69185 1.94331 -5.25911e-19)
(7.77935 1.66358 -2.54841e-19)
(7.85442 1.37934 5.1099e-19)
(7.91683 1.09127 -2.56149e-19)
(7.96647 0.799882 -5.16902e-19)
(8.00317 0.505844 5.98951e-20)
(8.02668 0.209808 6.47692e-20)