/*--------------------------------*- C++ -*----------------------------------*\
  =========                 |
  \\      /  F ield         | OpenFOAM: The Open Source CFD Toolbox
   \\    /   O peration     | Website:  https://openfoam.org
    \\  /    A nd           | Version:  6.0
     \\/     M anipulation  |
\*---------------------------------------------------------------------------*/
FoamFile
{
    version     2.0;
    format      ascii;
    class       volScalarField;
    location    "6.9";
    object      p;
}
// * * * * * * * * * * * * * * * * * * * * * * * * * * * * * * * * * * * * * //

dimensions      [0 2 -2 0 0 0 0];

internalField   nonuniform List<scalar> 
9600
(
-137.402
-116.812
-102.159
-90.3305
-79.8179
-70.5965
-62.5595
-55.5403
-49.3994
-44.0201
-39.3002
-35.1512
-31.4966
-28.271
-25.4182
-22.89
-20.6453
-18.6466
-16.8613
-15.2868
-137.943
-117.357
-102.679
-90.8126
-80.2629
-71.009
-62.9444
-55.9017
-49.7411
-44.3449
-39.6105
-35.4486
-31.7828
-28.5471
-25.6851
-23.1485
-20.896
-18.8894
-17.0961
-15.517
-138.497
-117.895
-103.19
-91.2881
-80.7025
-71.4169
-63.3253
-56.26
-50.0802
-44.6676
-39.919
-35.7448
-32.0679
-28.8224
-25.9514
-23.4066
-21.1464
-19.1322
-17.3309
-15.7474
-139.057
-118.433
-103.695
-91.7574
-81.1367
-71.8199
-63.7019
-56.6144
-50.416
-44.9876
-40.2253
-36.0391
-32.3516
-29.0965
-26.2169
-23.6641
-21.3964
-19.3746
-17.5656
-15.9782
-139.62
-118.969
-104.196
-92.2207
-81.5649
-72.2175
-64.0736
-56.9646
-50.7481
-45.3044
-40.5289
-36.3312
-32.6335
-29.3692
-26.4812
-23.9208
-21.6459
-19.6167
-17.8003
-16.2094
-140.182
-119.501
-104.691
-92.6775
-81.9868
-72.6091
-64.4399
-57.3098
-51.0758
-45.6173
-40.8292
-36.6204
-32.913
-29.64
-26.7441
-24.1765
-21.8947
-19.8586
-18.0351
-16.4415
-140.739
-120.028
-105.179
-93.1272
-82.4015
-72.9939
-64.7998
-57.6493
-51.3984
-45.9257
-41.1255
-36.9063
-33.1896
-29.9084
-27.0052
-24.4309
-22.1428
-20.1001
-18.2701
-16.6745
-141.29
-120.548
-105.66
-93.5689
-82.8081
-73.371
-65.1526
-57.9822
-51.7149
-46.2287
-41.417
-37.1879
-33.4627
-30.1739
-27.264
-24.6836
-22.3898
-20.3411
-18.5054
-16.9088
-141.833
-121.06
-106.132
-94.0014
-83.2058
-73.7395
-65.4972
-58.3075
-52.0245
-46.5253
-41.7027
-37.4645
-33.7314
-30.4357
-27.5197
-24.9341
-22.6354
-20.5816
-18.741
-17.1446
-142.366
-121.562
-106.594
-94.4238
-83.5933
-74.0981
-65.8325
-58.624
-52.3258
-46.8143
-41.9815
-37.7348
-33.9945
-30.6927
-27.7715
-25.1815
-22.8788
-20.8208
-18.9765
-17.3817
-142.89
-122.052
-107.045
-94.8348
-83.9696
-74.4459
-66.1573
-58.9305
-52.6177
-47.0943
-42.252
-37.9974
-34.2507
-30.9436
-28.0182
-25.4246
-23.119
-21.0579
-19.2112
-17.6194
-143.404
-122.532
-107.483
-95.2334
-84.3336
-74.7815
-66.4703
-59.2255
-52.8985
-47.3638
-42.5125
-38.2507
-34.4982
-31.1868
-28.2581
-25.6622
-23.3549
-21.292
-19.4443
-17.8569
-143.906
-122.998
-107.908
-95.6187
-84.6842
-75.1039
-66.7703
-59.5078
-53.1668
-47.6211
-42.7611
-38.4925
-34.7349
-31.4199
-28.4889
-25.8921
-23.5848
-21.5219
-19.675
-18.0942
-144.397
-123.451
-108.319
-95.9897
-85.0205
-75.412
-67.056
-59.7759
-53.4211
-47.8643
-42.9957
-38.7204
-34.958
-31.6398
-28.7073
-26.1107
-23.805
-21.7443
-19.9013
-18.3321
-144.875
-123.888
-108.715
-96.3457
-85.3417
-75.7048
-67.3264
-60.0286
-53.6597
-48.0918
-43.2143
-38.9322
-35.1648
-31.8433
-28.9093
-26.3131
-24.0095
-21.9525
-20.1172
-18.5654
-145.343
-124.312
-109.094
-96.6858
-85.6468
-75.9812
-67.58
-60.2642
-53.8809
-48.3014
-43.4147
-39.1254
-35.3527
-32.0278
-29.0922
-26.4962
-24.1946
-22.1415
-20.3146
-18.7772
-145.811
-124.725
-109.459
-97.0085
-85.9342
-76.2395
-67.8154
-60.4813
-54.0829
-48.491
-43.594
-39.2965
-35.5178
-32.1892
-29.2528
-26.6589
-24.3623
-22.3153
-20.4945
-18.9623
-146.295
-125.136
-109.808
-97.3123
-86.2026
-76.4794
-68.0323
-60.6795
-54.2653
-48.6594
-43.7499
-39.4414
-35.6535
-32.3183
-29.3792
-26.7887
-24.5016
-22.4679
-20.6645
-19.1685
-146.791
-125.542
-110.142
-97.5986
-86.4545
-76.7039
-68.2341
-60.862
-54.4307
-48.809
-43.8841
-39.5603
-35.7567
-32.4063
-29.4536
-26.853
-24.5609
-22.5338
-20.7762
-19.4122
-147.226
-125.919
-110.46
-97.8726
-86.6957
-76.9186
-68.4262
-61.0343
-54.585
-48.9459
-44.0033
-39.6606
-35.836
-32.4611
-29.4787
-26.84
-24.4991
-22.4259
-20.6714
-19.371
-150.972
-150.941
-150.854
-150.759
-150.659
-150.544
-150.411
-150.259
-150.09
-149.904
-149.704
-149.489
-149.262
-149.023
-148.774
-148.517
-148.255
-147.992
-147.734
-147.488
-129.205
-129.21
-129.181
-129.134
-129.072
-128.991
-128.89
-128.768
-128.628
-128.472
-128.3
-128.113
-127.913
-127.701
-127.479
-127.247
-127.008
-126.761
-126.507
-126.234
-113.23
-113.263
-113.272
-113.259
-113.224
-113.168
-113.092
-112.997
-112.884
-112.755
-112.611
-112.453
-112.282
-112.099
-111.905
-111.701
-111.486
-111.26
-111.019
-110.756
-100.224
-100.27
-100.294
-100.296
-100.277
-100.236
-100.176
-100.099
-100.005
-99.8965
-99.7735
-99.6374
-99.4891
-99.3299
-99.1601
-98.9793
-98.7879
-98.585
-98.3674
-98.1318
-88.7598
-88.8055
-88.8331
-88.8406
-88.8273
-88.7943
-88.7435
-88.6766
-88.5944
-88.4981
-88.3887
-88.2674
-88.135
-87.9928
-87.8407
-87.6788
-87.5077
-87.3262
-87.1323
-86.9239
-78.8005
-78.842
-78.8671
-78.874
-78.8617
-78.831
-78.7836
-78.7211
-78.6444
-78.5547
-78.453
-78.3404
-78.2183
-78.0873
-77.9476
-77.8003
-77.6454
-77.4817
-77.3078
-77.1218
-70.1959
-70.2313
-70.2515
-70.2549
-70.2403
-70.2085
-70.161
-70.0992
-70.0242
-69.9371
-69.839
-69.7313
-69.6151
-69.4913
-69.3605
-69.2241
-69.0816
-68.9325
-68.7752
-68.6081
-62.7332
-62.7621
-62.7766
-62.7751
-62.7567
-62.722
-62.6725
-62.6095
-62.534
-62.4473
-62.3504
-62.245
-62.1321
-62.0126
-61.8882
-61.7599
-61.6273
-61.4903
-61.3475
-61.1971
-56.2358
-56.2584
-56.2671
-56.2604
-56.2376
-56.1995
-56.1472
-56.0821
-56.0051
-55.9174
-55.8204
-55.7155
-55.604
-55.4874
-55.3675
-55.2452
-55.1209
-54.9946
-54.865
-54.7301
-50.5597
-50.5766
-50.5798
-50.5682
-50.5413
-50.4996
-50.4444
-50.3768
-50.2978
-50.2085
-50.1105
-50.0051
-49.8938
-49.7789
-49.662
-49.5444
-49.4271
-49.3106
-49.1936
-49.0738
-45.5847
-45.5966
-45.595
-45.579
-45.5483
-45.5034
-45.4454
-45.3753
-45.294
-45.2028
-45.1033
-44.9967
-44.8849
-44.7705
-44.6554
-44.5413
-44.4302
-44.3227
-44.2181
-44.1137
-41.211
-41.2184
-41.2127
-41.1929
-41.1588
-41.111
-41.0504
-40.9779
-40.8945
-40.8013
-40.6998
-40.5915
-40.4786
-40.3636
-40.2491
-40.1374
-40.0315
-39.9324
-39.8403
-39.7521
-37.355
-37.3588
-37.3495
-37.3265
-37.2895
-37.2392
-37.1763
-37.1016
-37.0161
-36.9208
-36.8172
-36.7067
-36.592
-36.4756
-36.3604
-36.2498
-36.1477
-36.0563
-35.9771
-35.9062
-33.9473
-33.9479
-33.9356
-33.9099
-33.8705
-33.8181
-33.7532
-33.6766
-33.5892
-33.4919
-33.3859
-33.273
-33.1558
-33.0367
-32.9196
-32.8083
-32.7088
-32.6237
-32.5579
-32.5062
-30.9292
-30.9272
-30.9124
-30.8844
-30.8431
-30.789
-30.7224
-30.6442
-30.555
-30.4557
-30.3474
-30.2319
-30.1115
-29.9888
-29.8682
-29.7542
-29.655
-29.5741
-29.5221
-29.4916
-28.2515
-28.2472
-28.2304
-28.2005
-28.1576
-28.1019
-28.034
-27.9544
-27.8637
-27.7624
-27.6517
-27.5333
-27.4092
-27.2817
-27.156
-27.0367
-26.935
-26.8551
-26.8166
-26.808
-25.8723
-25.866
-25.8473
-25.8158
-25.7715
-25.7146
-25.6455
-25.5645
-25.4722
-25.3691
-25.256
-25.1343
-25.0057
-24.8724
-24.7394
-24.6115
-24.5031
-24.4195
-24.3937
-24.404
-23.7544
-23.7469
-23.727
-23.6945
-23.6493
-23.5916
-23.5217
-23.4398
-23.3462
-23.2414
-23.126
-23.001
-22.8676
-22.7277
-22.5853
-22.4451
-22.3237
-22.2296
-22.2176
-22.2478
-21.8643
-21.8567
-21.837
-21.805
-21.7606
-21.7038
-21.6349
-21.5539
-21.4611
-21.3567
-21.2412
-21.1153
-20.9794
-20.835
-20.6845
-20.5316
-20.3909
-20.2753
-20.2711
-20.3523
-20.1838
-20.1728
-20.1507
-20.1172
-20.0722
-20.0155
-19.9472
-19.8675
-19.7764
-19.6739
-19.5603
-19.4359
-19.3006
-19.1554
-19.0002
-18.8378
-18.6732
-18.5193
-18.4617
-18.6041
-144.443
-144.999
-145.486
-145.975
-146.47
-146.954
-147.414
-147.847
-148.253
-148.632
-148.981
-149.302
-149.592
-149.853
-150.085
-150.289
-150.467
-150.622
-150.758
-150.88
-122.572
-123.138
-123.668
-124.186
-124.694
-125.182
-125.645
-126.08
-126.487
-126.867
-127.219
-127.543
-127.838
-128.105
-128.345
-128.557
-128.743
-128.904
-129.039
-129.144
-106.71
-107.268
-107.805
-108.322
-108.818
-109.29
-109.738
-110.159
-110.555
-110.925
-111.268
-111.585
-111.875
-112.139
-112.377
-112.589
-112.775
-112.934
-113.066
-113.166
-94.0057
-94.5373
-95.0531
-95.5476
-96.0181
-96.4647
-96.8877
-97.2872
-97.6625
-98.0134
-98.3397
-98.6412
-98.918
-99.1701
-99.3974
-99.6
-99.7779
-99.9304
-100.057
-100.155
-82.9336
-83.4322
-83.9171
-84.3825
-84.8247
-85.2438
-85.6403
-86.0144
-86.3657
-86.6937
-86.9985
-87.2801
-87.5383
-87.7734
-87.9853
-88.1739
-88.3393
-88.4811
-88.599
-88.6926
-73.3866
-73.8539
-74.3086
-74.7453
-75.1601
-75.5523
-75.9226
-76.2711
-76.5976
-76.902
-77.1843
-77.4445
-77.6829
-77.8994
-78.094
-78.2669
-78.418
-78.5474
-78.6546
-78.7397
-65.1742
-65.6143
-66.0422
-66.4527
-66.842
-67.2092
-67.5549
-67.8793
-68.1824
-68.4643
-68.7251
-68.965
-69.184
-69.3825
-69.5604
-69.7178
-69.8548
-69.9713
-70.0673
-70.1427
-58.0675
-58.4847
-58.8893
-59.2766
-59.6429
-59.9876
-60.311
-60.6135
-60.8954
-61.1568
-61.3979
-61.6191
-61.8206
-62.0025
-62.1649
-62.308
-62.4318
-62.5364
-62.6216
-62.6877
-51.886
-52.2839
-52.6686
-53.0357
-53.3818
-53.7064
-54.0099
-54.2928
-54.5556
-54.7986
-55.0221
-55.2266
-55.4123
-55.5794
-55.728
-55.8584
-55.9704
-56.0643
-56.1399
-56.1974
-46.4875
-46.8693
-47.2374
-47.5871
-47.9155
-48.2222
-48.5078
-48.7732
-49.0188
-49.2453
-49.4531
-49.6427
-49.8145
-49.9686
-50.1051
-50.2243
-50.3261
-50.4106
-50.4777
-50.5277
-41.7561
-42.125
-42.4792
-42.8141
-43.1268
-43.4174
-43.6869
-43.9363
-44.1664
-44.3781
-44.5718
-44.7483
-44.9077
-45.0503
-45.1763
-45.2858
-45.3786
-45.455
-45.5149
-45.5584
-37.5968
-37.9556
-38.2985
-38.6205
-38.9192
-39.195
-39.4497
-39.6844
-39.9004
-40.0986
-40.2797
-40.4443
-40.5929
-40.7255
-40.8423
-40.9433
-41.0285
-41.0979
-41.1515
-41.1894
-33.9308
-34.282
-34.6162
-34.9271
-35.2127
-35.4748
-35.7154
-35.9365
-36.1394
-36.3252
-36.4949
-36.649
-36.7878
-36.9116
-37.0204
-37.1141
-37.1927
-37.2562
-37.3044
-37.3375
-30.6924
-31.0388
-31.3664
-31.6673
-31.9405
-32.1893
-32.4166
-32.6247
-32.8153
-32.9897
-33.1489
-33.2935
-33.4238
-33.5398
-33.6416
-33.7291
-33.802
-33.8604
-33.9041
-33.9333
-27.8275
-28.1721
-28.4945
-28.7854
-29.0463
-29.2821
-29.4964
-29.6919
-29.8708
-30.0346
-30.1843
-30.3204
-30.4431
-30.5524
-30.6481
-30.7302
-30.7984
-30.8525
-30.8924
-30.9181
-25.2881
-25.6377
-25.9561
-26.2355
-26.4833
-26.7058
-26.907
-27.0902
-27.258
-27.412
-27.553
-27.6814
-27.7974
-27.9008
-27.9914
-28.0689
-28.1329
-28.1834
-28.22
-28.2429
-23.0215
-23.3904
-23.7098
-23.9761
-24.2093
-24.4181
-24.6062
-24.7776
-24.9351
-25.08
-25.2133
-25.3351
-25.4454
-25.5438
-25.63
-25.7036
-25.7642
-25.8116
-25.8454
-25.8658
-20.9756
-21.3707
-21.7013
-21.9583
-22.1771
-22.3722
-22.5482
-22.7092
-22.8579
-22.9956
-23.1228
-23.2397
-23.3458
-23.4407
-23.5239
-23.5949
-23.6532
-23.6985
-23.7306
-23.7493
-19.1859
-19.5597
-19.8925
-20.1529
-20.3609
-20.5405
-20.7046
-20.8565
-20.9973
-21.1283
-21.2503
-21.3631
-21.466
-21.5583
-21.6394
-21.7087
-21.7657
-21.81
-21.8414
-21.8596
-17.9178
-18.1815
-18.4104
-18.672
-18.8702
-19.0197
-19.1594
-19.2941
-19.4192
-19.5353
-19.6441
-19.7454
-19.838
-19.9209
-19.9934
-20.055
-20.1051
-20.1434
-20.1694
-20.1829
-11.5127
-12.9672
-14.6255
-16.4844
-18.5734
-20.9272
-23.5825
-26.5823
-29.977
-33.8263
-38.2011
-43.1863
-48.8856
-55.4267
-62.9763
-71.7537
-81.9566
-93.7284
-108.679
-129.838
-11.7857
-13.2498
-14.9131
-16.7787
-18.876
-21.2391
-23.9049
-26.9163
-30.3243
-34.1887
-38.5806
-43.5856
-49.3078
-55.8759
-63.4573
-72.2724
-82.5182
-94.3335
-109.321
-130.501
-12.0645
-13.538
-15.2063
-17.079
-19.185
-21.5578
-24.2345
-27.2582
-30.68
-34.5599
-38.9697
-43.9952
-49.7412
-56.337
-63.9509
-72.804
-83.0926
-94.9502
-109.966
-131.148
-12.348
-13.8306
-15.5039
-17.3839
-19.4989
-21.8818
-24.5696
-27.606
-31.0419
-34.9379
-39.3659
-44.4124
-50.1827
-56.8068
-64.4535
-73.3445
-83.676
-95.5781
-110.629
-131.823
-12.6352
-14.1266
-15.805
-17.6926
-19.8168
-22.21
-24.9093
-27.9585
-31.4089
-35.3212
-39.7677
-44.8355
-50.6303
-57.2829
-64.9626
-73.8917
-84.2667
-96.2156
-111.308
-132.525
-12.9254
-14.4253
-16.109
-18.0045
-20.1383
-22.5421
-25.2532
-28.3154
-31.7805
-35.7094
-40.1747
-45.264
-51.0836
-57.765
-65.4781
-74.4458
-84.8646
-96.8616
-112
-133.244
-13.218
-14.7262
-16.4152
-18.3191
-20.4629
-22.8775
-25.6006
-28.6763
-32.1564
-36.1021
-40.5865
-45.6976
-51.5423
-58.2528
-65.9998
-75.0066
-85.4697
-97.5149
-112.699
-133.974
-13.5124
-15.0286
-16.7232
-18.6359
-20.79
-23.2158
-25.9513
-29.0406
-32.536
-36.4989
-41.0027
-46.1358
-52.006
-58.7459
-66.5272
-75.5735
-86.0812
-98.1744
-113.405
-134.71
-13.8081
-15.3321
-17.0325
-18.9545
-21.1193
-23.5567
-26.3047
-29.4081
-32.919
-36.8992
-41.4226
-46.578
-52.4739
-59.2436
-67.0595
-76.1456
-86.6981
-98.8394
-114.115
-135.453
-14.1051
-15.6366
-17.343
-19.2747
-21.4506
-23.8998
-26.6607
-29.7782
-33.3048
-37.3026
-41.8457
-47.0237
-52.9454
-59.7451
-67.5957
-76.7219
-87.3194
-99.5087
-114.831
-136.201
-14.4032
-15.942
-17.6547
-19.5965
-21.7839
-24.2452
-27.0191
-30.1509
-33.6933
-37.7086
-42.2715
-47.472
-53.4196
-60.2494
-68.1349
-77.3013
-87.9439
-100.181
-115.549
-136.952
-14.7028
-16.2488
-17.9678
-19.9203
-22.1194
-24.5928
-27.3799
-30.5259
-34.0841
-38.1169
-42.6996
-47.9225
-53.896
-60.7557
-68.6761
-77.8828
-88.5705
-100.856
-116.269
-137.705
-15.0047
-16.5576
-18.2832
-20.2466
-22.4575
-24.9432
-27.7431
-30.9033
-34.4769
-38.5271
-43.1292
-48.3743
-54.3735
-61.2631
-69.2183
-78.4651
-89.198
-101.531
-116.99
-138.458
-15.3104
-16.8697
-18.6018
-20.5761
-22.7987
-25.2963
-28.1089
-31.2827
-34.8715
-38.9385
-43.5597
-48.8267
-54.8512
-61.7703
-69.7601
-79.0469
-89.8249
-102.206
-117.709
-139.209
-15.6221
-17.1877
-18.9257
-20.9105
-23.1442
-25.6529
-28.4773
-31.6642
-35.2673
-39.3505
-43.9902
-49.2786
-55.3279
-62.2762
-70.3001
-79.6268
-90.4496
-102.878
-118.427
-139.959
-15.9427
-17.5127
-19.2553
-21.2496
-23.4936
-26.0127
-28.8482
-32.0471
-35.6637
-39.7623
-44.4197
-49.7287
-55.8022
-62.7791
-70.8367
-80.2027
-91.0705
-103.547
-119.141
-140.705
-16.2799
-17.8527
-19.5961
-21.5969
-23.8489
-26.3764
-29.2212
-32.4308
-36.0597
-40.1726
-44.8467
-50.1755
-56.2725
-63.2773
-71.3679
-80.7727
-91.6851
-104.211
-119.852
-141.45
-16.6324
-18.2001
-19.9403
-21.9467
-24.2066
-26.7418
-29.5947
-32.8136
-36.4536
-40.5797
-45.2696
-50.6173
-56.7369
-63.7687
-71.8916
-81.3342
-92.2904
-104.866
-120.559
-142.195
-17.0322
-18.5755
-20.2973
-22.3046
-24.5692
-27.1088
-29.9671
-33.1934
-36.8432
-40.9813
-45.6859
-51.0515
-57.1928
-64.2508
-72.405
-81.8841
-92.8823
-105.507
-121.258
-142.945
-17.4158
-18.9005
-20.6295
-22.6575
-24.9303
-27.4725
-30.3347
-33.5674
-37.2258
-41.3749
-46.0933
-51.4759
-57.6379
-64.7211
-72.9053
-82.4195
-93.4565
-106.126
-121.937
-143.704
-8.22336
-9.24415
-10.6639
-12.3641
-14.2959
-16.4831
-18.9639
-21.7781
-24.971
-28.5965
-32.7189
-37.415
-42.7772
-48.9192
-55.99
-64.1899
-73.7002
-84.6725
-98.7933
-119.299
-8.44169
-9.52521
-10.9674
-12.644
-14.5462
-16.7117
-19.1778
-21.9819
-25.1682
-28.7901
-32.9114
-37.6086
-42.9744
-49.1227
-56.2035
-64.4181
-73.9481
-84.9402
-99.0739
-119.583
-8.43602
-9.6388
-11.1348
-12.8306
-14.7412
-16.9107
-19.3777
-22.1815
-25.3676
-28.9904
-33.1141
-37.8155
-43.1874
-49.3445
-56.4372
-64.6681
-74.2188
-85.2306
-99.367
-119.851
-8.48283
-9.72836
-11.2511
-12.9687
-14.8984
-17.0825
-19.56
-22.3713
-25.5636
-29.1922
-33.322
-38.0306
-43.4113
-49.5794
-56.6859
-64.9341
-74.507
-85.5431
-99.6943
-120.17
-8.56859
-9.82878
-11.3678
-13.1015
-15.0465
-17.2444
-19.7337
-22.5553
-25.7571
-29.3946
-33.5336
-38.2519
-43.6436
-49.8247
-56.9468
-65.2142
-74.8112
-85.8771
-100.057
-120.543
-8.65236
-9.93235
-11.4887
-13.2369
-15.1952
-17.4056
-19.9066
-22.7393
-25.9518
-29.6
-33.7498
-38.4797
-43.8844
-50.0803
-57.2201
-65.5089
-75.1325
-86.2316
-100.446
-120.954
-8.73793
-10.0399
-11.6124
-13.3743
-15.3459
-17.5691
-20.0822
-22.9267
-26.1507
-29.8106
-33.9726
-38.7155
-44.1347
-50.3473
-57.5067
-65.819
-75.4714
-86.6055
-100.858
-121.392
-8.83893
-10.1587
-11.7438
-13.5177
-15.5019
-17.7375
-20.263
-23.1196
-26.3558
-30.0282
-34.2033
-38.9605
-44.3955
-50.6262
-57.807
-66.1449
-75.8279
-86.9985
-101.29
-121.853
-8.95924
-10.293
-11.8879
-13.6718
-15.667
-17.9143
-20.4515
-23.3201
-26.5687
-30.2541
-34.4431
-39.2154
-44.6674
-50.9176
-58.1212
-66.4863
-76.2018
-87.4105
-101.743
-122.338
-9.09727
-10.4433
-12.0464
-13.8389
-15.8439
-18.1017
-20.6501
-23.5304
-26.7913
-30.4899
-34.6932
-39.4813
-44.951
-51.2218
-58.4496
-66.8434
-76.593
-87.8415
-102.217
-122.845
-9.25174
-10.6093
-12.2195
-14.0195
-16.0335
-18.3011
-20.86
-23.7516
-27.0247
-30.7365
-34.9543
-39.7587
-45.247
-51.5392
-58.7923
-67.2162
-77.0016
-88.2915
-102.711
-123.375
-9.42227
-10.7907
-12.4071
-14.2138
-16.2361
-18.513
-21.0819
-23.9845
-27.2696
-30.9946
-35.2272
-40.0482
-45.5556
-51.8701
-59.1495
-67.6048
-77.4273
-88.76
-103.225
-123.926
-9.60833
-10.987
-12.6089
-14.4217
-16.4517
-18.7374
-21.3161
-24.2294
-27.5264
-31.2647
-35.5122
-40.3502
-45.8772
-52.2147
-59.5214
-68.0092
-77.8702
-89.2469
-103.758
-124.497
-9.80891
-11.1973
-12.8242
-14.6428
-16.6801
-18.9743
-21.5624
-24.4863
-27.7952
-31.5468
-35.8094
-40.6647
-46.2118
-52.573
-59.9078
-68.4292
-78.3299
-89.7521
-104.311
-125.088
-10.0227
-11.4207
-13.0521
-14.8762
-16.9207
-19.2232
-21.8207
-24.7551
-28.0758
-31.8408
-36.1187
-40.9916
-46.5593
-52.9447
-60.3085
-68.8644
-78.8062
-90.2752
-104.882
-125.699
-10.2485
-11.6559
-13.2917
-15.1212
-17.1728
-19.4835
-22.0903
-25.0352
-28.3678
-32.1463
-36.4397
-41.3307
-46.9194
-53.3296
-60.723
-69.3145
-79.2985
-90.8159
-105.473
-126.33
-10.4849
-11.9016
-13.5418
-15.3768
-17.4354
-19.7544
-22.3706
-25.3261
-28.6707
-32.463
-36.7721
-41.6813
-47.2915
-53.7272
-61.1509
-69.7787
-79.806
-91.3737
-106.084
-126.983
-10.7307
-12.1568
-13.8012
-15.6419
-17.7078
-20.0352
-22.6609
-25.6271
-28.9839
-32.7901
-37.1153
-42.0431
-47.6751
-54.1367
-61.5914
-70.2562
-80.3277
-91.9473
-106.714
-127.659
-10.9847
-12.4201
-14.069
-15.9155
-17.9888
-20.3248
-22.9602
-25.9374
-29.3066
-33.127
-37.4684
-42.4152
-48.0694
-54.5573
-62.0434
-70.7457
-80.8616
-92.5343
-107.362
-128.361
-11.2457
-12.6907
-14.3443
-16.1968
-18.2779
-20.6226
-23.2679
-26.2563
-29.6382
-33.473
-37.831
-42.797
-48.4737
-54.9883
-62.5062
-71.2462
-81.4061
-93.1303
-108.022
-129.093
-7.35767
-7.01362
-6.8693
-6.80918
-6.78499
-6.77882
-6.78851
-6.8102
-6.84363
-6.88755
-6.94164
-7.00534
-7.07833
-7.16024
-7.25077
-7.34959
-7.45644
-7.57105
-7.69332
-7.82321
-8.76889
-8.48753
-8.2978
-8.20727
-8.1614
-8.14395
-8.14632
-8.16378
-8.19464
-8.23722
-8.29078
-8.35456
-8.42806
-8.51081
-8.60243
-8.70253
-8.81078
-8.92686
-9.05057
-9.18189
-10.2939
-10.0601
-9.8755
-9.77001
-9.708
-9.67947
-9.67394
-9.68645
-9.71417
-9.75508
-9.80806
-9.87212
-9.94661
-10.0309
-10.1246
-10.2273
-10.3384
-10.4577
-10.5849
-10.72
-12.0563
-11.8358
-11.659
-11.5447
-11.4703
-11.4304
-11.4155
-11.421
-11.4436
-11.4809
-11.5315
-11.5942
-11.6682
-11.7528
-11.8474
-11.9515
-12.0646
-12.1863
-12.3162
-12.4545
-14.0363
-13.8267
-13.6562
-13.5366
-13.4541
-13.4051
-13.3821
-13.3811
-13.3986
-13.4322
-13.4802
-13.5414
-13.6147
-13.6994
-13.7948
-13.9002
-14.0152
-14.1391
-14.2718
-14.4132
-16.2556
-16.0587
-15.895
-15.773
-15.6854
-15.6297
-15.6002
-15.5935
-15.6064
-15.6366
-15.6823
-15.7421
-15.8149
-15.8998
-15.9961
-16.1031
-16.2201
-16.3466
-16.4822
-16.627
-18.7563
-18.5709
-18.4138
-18.2914
-18.2005
-18.1397
-18.1049
-18.0933
-18.1022
-18.1292
-18.1728
-18.2313
-18.3038
-18.3891
-18.4865
-18.5952
-18.7145
-18.8438
-18.9826
-19.1313
-21.5833
-21.4067
-21.2552
-21.1332
-21.0403
-20.9756
-20.9365
-20.9208
-20.926
-20.9503
-20.9919
-21.0494
-21.1217
-21.2076
-21.3064
-21.4171
-21.539
-21.6714
-21.8139
-21.967
-24.7846
-24.6145
-24.467
-24.3458
-24.2516
-24.184
-24.1414
-24.1221
-24.1243
-24.1462
-24.1862
-24.243
-24.3153
-24.4022
-24.5026
-24.6158
-24.7408
-24.8768
-25.0235
-25.1815
-28.4154
-28.2497
-28.105
-27.9843
-27.8889
-27.8189
-27.7735
-27.7513
-27.7509
-27.7708
-27.8096
-27.866
-27.9388
-28.0271
-28.1297
-28.2458
-28.3744
-28.5147
-28.6664
-28.8301
-32.5406
-32.3772
-32.2338
-32.113
-32.0164
-31.9443
-31.8963
-31.8716
-31.869
-31.8874
-31.9254
-31.9818
-32.0556
-32.1457
-32.2511
-32.3708
-32.5037
-32.649
-32.8064
-32.9769
-37.237
-37.0739
-36.9302
-36.8084
-36.7099
-36.6355
-36.585
-36.558
-36.5535
-36.5705
-36.6081
-36.665
-36.7402
-36.8326
-36.9414
-37.0654
-37.2034
-37.3545
-37.5186
-37.6967
-42.5971
-42.4319
-42.286
-42.1616
-42.0603
-41.9829
-41.9295
-41.8998
-41.8933
-41.9092
-41.9464
-42.0039
-42.0809
-42.1762
-42.2888
-42.4177
-42.5616
-42.7193
-42.891
-43.0779
-48.7341
-48.5639
-48.4132
-48.284
-48.1782
-48.0963
-48.039
-48.006
-47.9969
-48.0111
-48.0477
-48.1058
-48.1845
-48.2828
-48.3997
-48.534
-48.6843
-48.8494
-49.0295
-49.226
-55.7962
-55.6172
-55.4581
-55.3211
-55.208
-55.1195
-55.0562
-55.0182
-55.0052
-55.0166
-55.0518
-55.1098
-55.1897
-55.2907
-55.4117
-55.5515
-55.7087
-55.8817
-56.0707
-56.2773
-63.9824
-63.7898
-63.6178
-63.4685
-63.344
-63.2451
-63.1727
-63.1269
-63.1076
-63.1142
-63.1461
-63.2024
-63.2824
-63.385
-63.5093
-63.6541
-63.8178
-63.9985
-64.1962
-64.4124
-73.4741
-73.262
-73.0702
-72.9018
-72.7595
-72.6448
-72.5584
-72.5006
-72.471
-72.4693
-72.4948
-72.5466
-72.6239
-72.7258
-72.8511
-72.9988
-73.1673
-73.3544
-73.5596
-73.7843
-84.4218
-84.1793
-83.9554
-83.7573
-83.5886
-83.4507
-83.3441
-83.2685
-83.2235
-83.2085
-83.2228
-83.2657
-83.3361
-83.433
-83.5552
-83.7017
-83.8715
-84.0639
-84.2775
-84.5111
-98.4937
-98.1955
-97.9214
-97.6825
-97.4796
-97.3123
-97.1797
-97.081
-97.0153
-96.982
-96.9801
-97.0092
-97.0681
-97.1558
-97.2709
-97.4127
-97.5829
-97.7842
-98.0146
-98.2599
-118.888
-118.505
-118.178
-117.9
-117.665
-117.47
-117.313
-117.191
-117.105
-117.054
-117.036
-117.051
-117.099
-117.179
-117.289
-117.429
-117.605
-117.824
-118.083
-118.34
-7.96025
-8.10343
-8.25275
-8.40801
-8.56917
-8.73612
-8.90879
-9.08712
-9.27096
-9.4601
-9.65431
-9.85257
-10.0523
-10.2506
-10.4467
-10.6348
-10.7865
-10.8773
-10.9457
-10.9945
-9.32048
-9.46526
-9.61621
-9.77306
-9.93571
-10.104
-10.2777
-10.4568
-10.6409
-10.8298
-11.0227
-11.2187
-11.4154
-11.61
-11.799
-11.9781
-12.1364
-12.2478
-12.2859
-12.3216
-10.8626
-11.0117
-11.1672
-11.3287
-11.4962
-11.6694
-11.848
-12.0318
-12.2204
-12.4134
-12.6099
-12.8086
-13.0076
-13.2041
-13.3945
-13.5746
-13.739
-13.8721
-13.952
-14.023
-12.6008
-12.7538
-12.9135
-13.0794
-13.2515
-13.4294
-13.6128
-13.8012
-13.9943
-14.1915
-14.3917
-14.5936
-14.7952
-14.9939
-15.1866
-15.3694
-15.5376
-15.6826
-15.7988
-15.9157
-14.563
-14.7199
-14.8836
-15.054
-15.2305
-15.413
-15.601
-15.794
-15.9915
-16.1928
-16.3968
-16.602
-16.8066
-17.0082
-17.2042
-17.3913
-17.5652
-17.7209
-17.8617
-18.0094
-16.7808
-16.9418
-17.11
-17.285
-17.4664
-17.6538
-17.8468
-18.0447
-18.247
-18.453
-18.6614
-18.8708
-19.0795
-19.2854
-19.4863
-19.6796
-19.8618
-20.0304
-20.1909
-20.3588
-19.2894
-19.455
-19.6281
-19.8082
-19.995
-20.1879
-20.3864
-20.5899
-20.7978
-21.0092
-21.2229
-21.4376
-21.6517
-21.8635
-22.071
-22.2722
-22.4647
-22.6477
-22.8263
-23.011
-22.1299
-22.3007
-22.4793
-22.6651
-22.8579
-23.057
-23.2618
-23.4717
-23.686
-23.9038
-24.124
-24.3453
-24.5663
-24.7855
-25.0013
-25.2121
-25.4163
-25.6142
-25.8102
-26.0111
-25.3501
-25.5267
-25.7115
-25.9039
-26.1035
-26.3096
-26.5217
-26.739
-26.9608
-27.1863
-27.4144
-27.6438
-27.8732
-28.1015
-28.3274
-28.5494
-28.7668
-28.9802
-29.193
-29.4106
-29.0051
-29.1884
-29.3804
-29.5803
-29.7877
-30.0019
-30.2224
-30.4484
-30.6791
-30.9137
-31.1512
-31.3903
-31.6301
-31.8694
-32.1071
-32.3423
-32.5744
-32.8041
-33.0342
-33.2691
-33.1592
-33.3503
-33.5504
-33.759
-33.9754
-34.199
-34.4293
-34.6654
-34.9066
-35.1519
-35.4005
-35.6514
-35.9035
-36.1558
-36.4075
-36.6579
-36.9064
-37.1536
-37.4021
-37.6558
-37.8875
-38.0875
-38.297
-38.5153
-38.7421
-38.9766
-39.2181
-39.466
-39.7194
-39.9774
-40.2392
-40.5039
-40.7705
-41.0382
-41.3062
-41.574
-41.841
-42.1075
-42.376
-42.6503
-43.2783
-43.4882
-43.7082
-43.9377
-44.1762
-44.423
-44.6774
-44.9388
-45.2063
-45.479
-45.7562
-46.0371
-46.3206
-46.6061
-46.8931
-47.1808
-47.4686
-47.7566
-48.0473
-48.3445
-49.437
-49.6579
-49.8894
-50.131
-50.3825
-50.643
-50.9119
-51.1885
-51.472
-51.7615
-52.0563
-52.3556
-52.6586
-52.9646
-53.2731
-53.5834
-53.8947
-54.2069
-54.5223
-54.8452
-56.4993
-56.7314
-56.9749
-57.2295
-57.4948
-57.77
-58.0546
-58.3478
-58.6489
-58.957
-59.2715
-59.5914
-59.9161
-60.245
-60.5776
-60.9134
-61.2512
-61.5905
-61.9335
-62.2845
-64.6448
-64.8879
-65.1432
-65.4105
-65.6895
-65.9797
-66.2803
-66.5908
-66.9103
-67.2381
-67.5735
-67.9156
-68.2639
-68.6176
-68.9766
-69.3402
-69.7072
-70.0763
-70.449
-70.83
-74.0261
-74.2786
-74.5435
-74.8214
-75.1122
-75.4158
-75.7314
-76.0584
-76.3959
-76.7431
-77.0994
-77.464
-77.8362
-78.2154
-78.6013
-78.9934
-79.3905
-79.7909
-80.1952
-80.6078
-84.7595
-85.0156
-85.2838
-85.5667
-85.865
-86.1783
-86.5058
-86.8464
-87.1993
-87.5635
-87.9382
-88.3229
-88.7169
-89.1194
-89.5296
-89.9475
-90.3732
-90.807
-91.2485
-91.6973
-98.4993
-98.743
-99.0024
-99.2823
-99.5818
-99.8995
-100.234
-100.583
-100.946
-101.322
-101.709
-102.109
-102.52
-102.941
-103.371
-103.811
-104.265
-104.741
-105.236
-105.727
-118.529
-118.738
-118.981
-119.254
-119.55
-119.867
-120.202
-120.554
-120.921
-121.303
-121.698
-122.106
-122.529
-122.965
-123.413
-123.876
-124.363
-124.89
-125.454
-125.986
-126.375
-106.183
-92.1464
-81.0264
-71.217
-62.6416
-55.1742
-48.6478
-42.9305
-37.9153
-33.51
-29.6347
-26.2199
-23.2061
-20.5418
-18.1808
-16.0773
-14.1957
-12.5581
-11.1799
-126.772
-106.622
-92.5862
-81.4422
-71.6029
-62.9984
-55.5038
-48.9526
-43.213
-38.178
-33.755
-29.8637
-26.4348
-23.4083
-20.7326
-18.3618
-16.254
-14.3829
-12.7664
-11.3701
-127.205
-107.065
-93.0257
-81.8601
-71.9922
-63.3587
-55.8372
-49.2615
-43.5001
-38.4458
-34.0058
-30.0995
-26.6573
-23.6192
-20.9331
-18.5538
-16.4404
-14.5652
-12.9327
-11.503
-127.665
-107.523
-93.4713
-82.2825
-72.386
-63.7236
-56.1751
-49.5753
-43.7925
-38.7193
-34.2627
-30.342
-26.8871
-23.8378
-21.1421
-18.7548
-16.6356
-14.7549
-13.1115
-11.6658
-128.148
-107.996
-93.9258
-82.7113
-72.7854
-64.0938
-56.5184
-49.8944
-44.0904
-38.9987
-34.5261
-30.5913
-27.1242
-24.0642
-21.3591
-18.9636
-16.8371
-14.9493
-13.2951
-11.838
-128.648
-108.483
-94.3903
-83.1474
-73.191
-64.4697
-56.8672
-50.2191
-44.3941
-39.2842
-34.7957
-30.8472
-27.3682
-24.2978
-21.5837
-19.1803
-17.0473
-15.1537
-13.4914
-12.0251
-129.163
-108.982
-94.8644
-83.5911
-73.603
-64.8515
-57.2215
-50.5494
-44.7034
-39.5754
-35.0714
-31.1094
-27.6187
-24.5381
-21.8151
-19.4039
-17.2642
-15.3649
-13.695
-12.2205
-129.692
-109.493
-95.348
-84.0424
-74.0215
-65.2391
-57.5815
-50.8851
-45.0182
-39.8722
-35.3527
-31.3773
-27.8751
-24.7845
-22.0526
-19.6338
-17.4877
-15.5828
-13.9055
-12.4228
-130.232
-110.015
-95.8402
-84.5009
-74.4462
-65.6323
-57.9467
-51.2259
-45.3381
-40.1741
-35.6392
-31.6506
-28.1368
-25.0361
-22.2955
-19.8689
-17.7162
-15.8055
-14.1207
-12.6299
-130.784
-110.546
-96.3407
-84.9664
-74.8768
-66.0308
-58.3168
-51.5716
-45.6627
-40.4808
-35.9304
-31.9285
-28.4032
-25.2925
-22.5429
-20.1085
-17.9491
-16.0323
-14.3397
-12.8408
-131.346
-111.086
-96.8485
-85.438
-75.3128
-66.4342
-58.6915
-51.9215
-45.9915
-40.7916
-36.2258
-32.2105
-28.6736
-25.5528
-22.7942
-20.3518
-18.1853
-16.2621
-14.5615
-13.0545
-131.919
-111.634
-97.3633
-85.9154
-75.7536
-66.8419
-59.0702
-52.2753
-46.3241
-41.1061
-36.5248
-32.4961
-28.9476
-25.8164
-23.0487
-20.5981
-18.4243
-16.4943
-14.7855
-13.2705
-132.501
-112.19
-97.8841
-86.3978
-76.1987
-67.2532
-59.4523
-52.6324
-46.6599
-41.4237
-36.8268
-32.7848
-29.2244
-26.0829
-23.3059
-20.8469
-18.6656
-16.7286
-15.0113
-13.4885
-133.092
-112.752
-98.4101
-86.8845
-76.6474
-67.6678
-59.8373
-52.9923
-46.9984
-41.744
-37.1315
-33.0759
-29.5038
-26.3517
-23.5653
-21.0978
-18.9088
-16.9644
-15.2386
-13.7081
-133.691
-113.32
-98.9402
-87.3748
-77.0991
-68.0849
-60.2247
-53.3544
-47.3391
-42.0665
-37.4384
-33.3692
-29.7851
-26.6225
-23.8266
-21.3504
-19.1535
-17.2016
-15.4671
-13.9291
-134.299
-113.893
-99.4737
-87.8676
-77.5527
-68.5036
-60.6135
-53.7179
-47.6813
-42.3905
-37.7468
-33.6641
-30.0681
-26.8949
-24.0894
-21.6045
-19.3996
-17.44
-15.6968
-14.1516
-134.919
-114.473
-100.01
-88.3615
-78.0068
-68.9225
-61.0024
-54.0817
-48.024
-42.7152
-38.0561
-33.96
-30.3522
-27.1684
-24.3534
-21.8597
-19.6469
-17.6794
-15.9275
-14.3755
-135.561
-115.062
-100.548
-88.8545
-78.4597
-69.3403
-61.3905
-54.445
-48.3664
-43.04
-38.3656
-34.2563
-30.6368
-27.4426
-24.6181
-22.1158
-19.895
-17.9197
-16.1592
-14.6008
-136.222
-115.66
-101.087
-89.3465
-78.9118
-69.758
-61.7788
-54.8086
-48.7093
-43.3652
-38.6757
-34.5532
-30.9221
-27.7174
-24.8835
-22.3727
-20.1439
-18.1608
-16.392
-14.8278
-136.858
-116.25
-101.626
-89.8396
-79.3656
-70.1777
-62.1693
-55.1744
-49.0542
-43.6924
-38.9877
-34.8518
-31.2089
-27.9938
-25.1504
-22.6309
-20.3941
-18.4032
-16.6261
-15.0567
-11.006
-6.81265
-4.514
-3.00846
-2.09757
-1.50139
-1.11424
-0.860081
-0.695005
-0.590173
-0.526814
-0.492131
-0.47744
-0.476749
-0.485991
-0.502405
-0.524097
-0.549551
-0.577
-0.603616
-0.62481
-0.634332
-0.625822
-0.595258
-0.542999
-0.474128
-0.39675
-0.319227
-0.248031
-0.186915
-0.137131
-0.098232
-0.0688037
-0.0471053
-0.0314563
-0.0202884
-0.012602
-0.00696695
-0.00366305
-9.42161e-05
-11.2525
-6.99234
-4.65559
-3.11743
-2.17994
-1.56574
-1.16431
-0.899501
-0.726165
-0.614876
-0.546351
-0.507447
-0.489212
-0.485461
-0.491975
-0.505872
-0.52516
-0.548248
-0.573346
-0.5977
-0.616932
-0.625107
-0.616146
-0.586136
-0.535306
-0.468392
-0.393085
-0.317405
-0.247636
-0.187487
-0.138266
-0.0996191
-0.0702301
-0.0484353
-0.0326191
-0.0212425
-0.0133455
-0.00747703
-0.00398597
-0.000142366
-11.5014
-7.17766
-4.80218
-3.23072
-2.26514
-1.63205