/*--------------------------------*- C++ -*----------------------------------*\
  =========                 |
  \\      /  F ield         | OpenFOAM: The Open Source CFD Toolbox
   \\    /   O peration     | Website:  https://openfoam.org
    \\  /    A nd           | Version:  6.0
     \\/     M anipulation  |
\*---------------------------------------------------------------------------*/
FoamFile
{
    version     2.0;
    format      ascii;
    class       volScalarField;
    location    "20.248";
    object      p;
}
// * * * * * * * * * * * * * * * * * * * * * * * * * * * * * * * * * * * * * //

dimensions      [0 2 -2 0 0 0 0];

internalField   nonuniform List<scalar> 
19200
(
-0.390695
-0.385643
-0.381877
-0.378748
-0.375875
-0.37324
-0.370795
-0.368487
-0.36628
-0.364144
-0.36206
-0.360015
-0.357998
-0.356003
-0.354027
-0.352067
-0.350124
-0.348198
-0.34629
-0.344401
-0.342534
-0.340689
-0.338869
-0.337074
-0.335306
-0.33357
-0.331864
-0.330133
-0.32836
-0.327136
-0.394384
-0.389207
-0.385412
-0.382255
-0.37934
-0.376646
-0.37413
-0.371741
-0.369443
-0.36721
-0.365024
-0.362871
-0.360745
-0.358639
-0.356551
-0.354481
-0.352428
-0.350393
-0.34838
-0.346389
-0.344423
-0.342484
-0.340574
-0.338694
-0.336846
-0.335037
-0.333263
-0.331461
-0.329607
-0.328391
-0.398645
-0.393255
-0.389363
-0.386141
-0.383157
-0.380384
-0.377779
-0.375292
-0.372888
-0.370543
-0.36824
-0.365968
-0.363719
-0.361489
-0.359278
-0.357084
-0.35491
-0.352757
-0.350627
-0.348524
-0.34645
-0.344408
-0.3424
-0.340427
-0.338492
-0.336603
-0.334756
-0.332877
-0.330932
-0.329738
-0.403267
-0.39772
-0.393728
-0.390421
-0.387344
-0.384471
-0.381759
-0.379157
-0.376631
-0.374158
-0.371723
-0.369316
-0.366931
-0.364564
-0.362216
-0.359886
-0.357579
-0.355295
-0.353038
-0.350812
-0.34862
-0.346465
-0.344349
-0.342275
-0.340246
-0.33827
-0.336346
-0.334383
-0.332338
-0.331179
-0.408298
-0.402608
-0.398506
-0.395094
-0.391906
-0.388915
-0.386077
-0.383342
-0.380678
-0.378062
-0.37548
-0.372923
-0.370387
-0.36787
-0.365371
-0.362894
-0.36044
-0.358013
-0.355618
-0.353257
-0.350936
-0.348658
-0.346426
-0.344242
-0.34211
-0.340042
-0.338034
-0.33598
-0.333825
-0.332714
-0.413773
-0.407931
-0.403703
-0.40017
-0.396852
-0.393724
-0.390742
-0.387858
-0.385038
-0.382262
-0.379518
-0.376797
-0.374096
-0.371413
-0.368751
-0.366112
-0.363499
-0.360917
-0.358371
-0.355865
-0.353403
-0.350991
-0.348632
-0.346329
-0.344086
-0.341917
-0.339819
-0.337667
-0.335391
-0.334343
-0.419709
-0.413699
-0.409329
-0.405656
-0.40219
-0.398907
-0.395764
-0.392712
-0.38972
-0.386768
-0.383846
-0.380945
-0.378064
-0.375202
-0.372363
-0.369548
-0.366763
-0.364013
-0.361303
-0.358638
-0.356024
-0.353467
-0.35097
-0.348538
-0.346175
-0.343897
-0.341702
-0.339444
-0.337037
-0.336065
-0.426121
-0.419923
-0.415393
-0.411562
-0.40793
-0.404474
-0.401151
-0.397913
-0.394732
-0.391588
-0.388471
-0.385376
-0.3823
-0.379244
-0.376212
-0.373208
-0.370237
-0.367305
-0.364418
-0.361582
-0.358803
-0.356089
-0.353443
-0.35087
-0.348377
-0.345982
-0.343682
-0.341309
-0.338759
-0.337877
-0.433022
-0.426615
-0.421906
-0.417899
-0.414081
-0.410432
-0.406911
-0.403471
-0.400083
-0.39673
-0.393402
-0.390096
-0.386809
-0.383545
-0.380306
-0.377098
-0.373927
-0.370799
-0.367721
-0.364701
-0.361744
-0.35886
-0.356052
-0.353327
-0.350693
-0.34817
-0.345758
-0.34326
-0.340555
-0.339777
-0.440425
-0.433785
-0.428877
-0.424674
-0.420652
-0.416791
-0.413053
-0.409392
-0.405779
-0.4022
-0.398646
-0.395113
-0.3916
-0.388112
-0.384651
-0.381225
-0.377839
-0.374501
-0.371219
-0.368
-0.364852
-0.361783
-0.358801
-0.355912
-0.353124
-0.350463
-0.347928
-0.345294
-0.342421
-0.341763
-0.448342
-0.441444
-0.436316
-0.431899
-0.427651
-0.423559
-0.419585
-0.415684
-0.41183
-0.408008
-0.40421
-0.400434
-0.39668
-0.392952
-0.389256
-0.385596
-0.381981
-0.378419
-0.374917
-0.371484
-0.36813
-0.364864
-0.361693
-0.358625
-0.355671
-0.35286
-0.350191
-0.347411
-0.344355
-0.34383
-0.456784
-0.449604
-0.444234
-0.43958
-0.435088
-0.430745
-0.426515
-0.422356
-0.418242
-0.41416
-0.410102
-0.406067
-0.402057
-0.398075
-0.394126
-0.390219
-0.38636
-0.382558
-0.378822
-0.375162
-0.371587
-0.368107
-0.364732
-0.361471
-0.358336
-0.355361
-0.352547
-0.349607
-0.346354
-0.345974
-0.465762
-0.458273
-0.45264
-0.447729
-0.44297
-0.438355
-0.433851
-0.429415
-0.425023
-0.420663
-0.416329
-0.41202
-0.407738
-0.403486
-0.399272
-0.395103
-0.390985
-0.386929
-0.382944
-0.37904
-0.375228
-0.371519
-0.367924
-0.364454
-0.361122
-0.357969
-0.354996
-0.35188
-0.348412
-0.348193
-0.475288
-0.467463
-0.461542
-0.456353
-0.451306
-0.446399
-0.4416
-0.436868
-0.432181
-0.427527
-0.4229
-0.418301
-0.413732
-0.409197
-0.404702
-0.400256
-0.395865
-0.39154
-0.387291
-0.383127
-0.379062
-0.375107
-0.371276
-0.367579
-0.364033
-0.360684
-0.357536
-0.354228
-0.350527
-0.350479
-0.485371
-0.477182
-0.47095
-0.465459
-0.460103
-0.454882
-0.449769
-0.444723
-0.439722
-0.434757
-0.429822
-0.424918
-0.420048
-0.415215
-0.410426
-0.405689
-0.401012
-0.396403
-0.391874
-0.387436
-0.383101
-0.378883
-0.374796
-0.370853
-0.367074
-0.363511
-0.36017
-0.35665
-0.352694
-0.352827
-0.496023
-0.487438
-0.48087
-0.475055
-0.469367
-0.463812
-0.458365
-0.452986
-0.447655
-0.442362
-0.437104
-0.431881
-0.426695
-0.421551
-0.416455
-0.411414
-0.406436
-0.40153
-0.396707
-0.391977
-0.387355
-0.382855
-0.378494
-0.374284
-0.370251
-0.366452
-0.362896
-0.359143
-0.354907
-0.355228
-0.50725
-0.49824
-0.491311
-0.485148
-0.479106
-0.473195
-0.467393
-0.461663
-0.455985
-0.450349
-0.444753
-0.439197
-0.433683
-0.428216
-0.4228
-0.417443
-0.412152
-0.406935
-0.401803
-0.396766
-0.39184
-0.387039
-0.382382
-0.377883
-0.373571
-0.369511
-0.365716
-0.361702
-0.357157
-0.35767
-0.519062
-0.509595
-0.502277
-0.495743
-0.489323
-0.483036
-0.476861
-0.470761
-0.464719
-0.458725
-0.452778
-0.446876
-0.441022
-0.435219
-0.429473
-0.423789
-0.418173
-0.412632
-0.407177
-0.401819
-0.396571
-0.39145
-0.386474
-0.381662
-0.377043
-0.372694
-0.368629
-0.364321
-0.359432
-0.360136
-0.531465
-0.521506
-0.513773
-0.506844
-0.500024
-0.493339
-0.486771
-0.480285
-0.473863
-0.467498
-0.461185
-0.454926
-0.448721
-0.442574
-0.436487
-0.430466
-0.424514
-0.418639
-0.412849
-0.407154
-0.401567
-0.396105
-0.390787
-0.385633
-0.380677
-0.376004
-0.371634
-0.366993
-0.361718
-0.362601
-0.544463
-0.533977
-0.525802
-0.518453
-0.511211
-0.504107
-0.497128
-0.490239
-0.483423
-0.476672
-0.469983
-0.463356
-0.456791
-0.45029
-0.443855
-0.437488
-0.431193
-0.424975
-0.418838
-0.412793
-0.40685
-0.401026
-0.39534
-0.389814
-0.384485
-0.379447
-0.374727
-0.369705
-0.363991
-0.365033
-0.558057
-0.547011
-0.538365
-0.530572
-0.522885
-0.515343
-0.507935
-0.500627
-0.493402
-0.486253
-0.479178
-0.472174
-0.465241
-0.45838
-0.45159
-0.444872
-0.438227
-0.431657
-0.425166
-0.418758
-0.412444
-0.406238
-0.400157
-0.394225
-0.388482
-0.38303
-0.377905
-0.372439
-0.366218
-0.36738
-0.572248
-0.560605
-0.55146
-0.543199
-0.535046
-0.527045
-0.519191
-0.511449
-0.503803
-0.496246
-0.488775
-0.481387
-0.47408
-0.466854
-0.459705
-0.452633
-0.445635
-0.43871
-0.431857
-0.425078
-0.41838
-0.411772
-0.40527
-0.398895
-0.392688
-0.386764
-0.381163
-0.375171
-0.36835
-0.36957
-0.587033
-0.574756
-0.565084
-0.556331
-0.54769
-0.539212
-0.530896
-0.522706
-0.514628
-0.506654
-0.498779
-0.491001
-0.483317
-0.475723
-0.468215
-0.460788
-0.453437
-0.446156
-0.43894
-0.431786
-0.424694
-0.417668
-0.410719
-0.403861
-0.397137
-0.390667
-0.384499
-0.377871
-0.370323
-0.3715
-0.602407
-0.589458
-0.57923
-0.569962
-0.560811
-0.55184
-0.543046
-0.534397
-0.525876
-0.517477
-0.509193
-0.501021
-0.492958
-0.484996
-0.47713
-0.469352
-0.461653
-0.454022
-0.446448
-0.438921
-0.431433
-0.423979
-0.41656
-0.409183
-0.401881
-0.394778
-0.387928
-0.380514
-0.372054
-0.373025
-0.618364
-0.604702
-0.593888
-0.584081
-0.574402
-0.56492
-0.555636
-0.546517
-0.537545
-0.528714
-0.520017
-0.51145
-0.503007
-0.494681
-0.486463
-0.478342
-0.470305
-0.462336
-0.454417
-0.446529
-0.438654
-0.430775
-0.422876
-0.414948
-0.407008
-0.399173
-0.391491
-0.383082
-0.373428
-0.37392
-0.634896
-0.620474
-0.609043
-0.598675
-0.58845
-0.578443
-0.568658
-0.559059
-0.54963
-0.540362
-0.53125
-0.522288
-0.513469
-0.504784
-0.496223
-0.487772
-0.479413
-0.471126
-0.462887
-0.454666
-0.446432
-0.43815
-0.429784
-0.421296
-0.412671
-0.404
-0.395305
-0.385611
-0.374326
-0.373886
-0.651999
-0.636753
-0.624673
-0.613725
-0.602939
-0.592396
-0.582099
-0.572014
-0.562122
-0.552415
-0.542887
-0.533531
-0.524341
-0.515306
-0.506414
-0.49765
-0.488994
-0.480421
-0.4719
-0.463393
-0.454854
-0.446229
-0.437453
-0.428447
-0.419147
-0.409586
-0.399729
-0.388436
-0.374914
-0.372772
-0.6697
-0.653522
-0.640752
-0.629207
-0.617849
-0.60676
-0.595946
-0.585369
-0.57501
-0.564862
-0.554918
-0.545172
-0.535616
-0.526241
-0.517035
-0.507981
-0.499058
-0.49024
-0.481492
-0.472769
-0.464014
-0.455153
-0.446089
-0.436695
-0.426829
-0.416437
-0.405381
-0.392194
-0.375374
-0.369708
-0.688051
-0.670747
-0.657232
-0.645084
-0.633151
-0.621515
-0.61018
-0.599108
-0.588281
-0.577692
-0.567333
-0.5572
-0.547286
-0.537582
-0.528077
-0.518757
-0.509602
-0.500588
-0.491682
-0.482838
-0.473994
-0.465063
-0.455919
-0.446372
-0.436163
-0.425064
-0.412634
-0.396493
-0.373076
-0.358769
-0.706585
-0.688235
-0.674046
-0.661322
-0.648825
-0.636642
-0.624785
-0.613215
-0.601917
-0.590884
-0.580112
-0.569595
-0.559327
-0.549304
-0.539516
-0.529953
-0.520601
-0.511443
-0.502455
-0.493608
-0.484853
-0.476125
-0.467314
-0.45823
-0.448578
-0.437965
-0.425466
-0.407369
-0.377322
-0.351434
-1.18101
-1.17814
-1.17337
-1.16712
-1.15945
-1.15039
-1.14001
-1.1284
-1.11565
-1.10182
-1.08701
-1.07131
-1.0548
-1.03755
-1.01967
-1.00122
-0.982296
-0.962967
-0.943308
-0.923394
-0.903292
-0.883067
-0.862783
-0.842497
-0.822263
-0.802129
-0.782137
-0.762299
-0.742599
-0.723467
-1.14651
-1.14368
-1.13909
-1.13301
-1.12551
-1.11665
-1.10652
-1.09521
-1.08279
-1.06935
-1.05498
-1.03976
-1.02376
-1.00708
-0.989789
-0.971973
-0.953706
-0.935064
-0.916119
-0.896941
-0.877595
-0.858147
-0.838655
-0.819178
-0.79977
-0.780483
-0.76137
-0.742476
-0.723852
-0.705683
-1.1181
-1.11529
-1.11086
-1.10495
-1.09764
-1.08901
-1.07915
-1.06813
-1.05605
-1.04297
-1.029
-1.0142
-0.998661
-0.982463
-0.965683
-0.948401
-0.93069
-0.912624
-0.894274
-0.875707
-0.856988
-0.838181
-0.819342
-0.800531
-0.781799
-0.7632
-0.744784
-0.726604
-0.708719
-0.691204
-1.09134
-1.08865
-1.08441
-1.07872
-1.07166
-1.06332
-1.05376
-1.04308
-1.03136
-1.01867
-1.00511
-0.990741
-0.975656
-0.959931
-0.943645
-0.926874
-0.909691
-0.892168
-0.874375
-0.856378
-0.838241
-0.820025
-0.801788
-0.783586
-0.765471
-0.747494
-0.729704
-0.712148
-0.69488
-0.677946
-1.0642
-1.06173
-1.05775
-1.05236
-1.04562
-1.03762
-1.02843
-1.01814
-1.00683
-0.99457
-0.981449
-0.967547
-0.952942
-0.937712
-0.921936
-0.905687
-0.889039
-0.872063
-0.854827
-0.837397
-0.819835
-0.802202
-0.784555
-0.766948
-0.749433
-0.73206
-0.714873
-0.697919
-0.681243
-0.66488
-1.03697
-1.0348
-1.03115
-1.02612
-1.01977
-1.01218
-1.00341
-0.99356
-0.982698
-0.970907
-0.958266
-0.944855
-0.930751
-0.916034
-0.900779
-0.885061
-0.868951
-0.85252
-0.835836
-0.818963
-0.801964
-0.784898
-0.767821
-0.750787
-0.733848
-0.71705
-0.70044
-0.684058
-0.667947
-0.652138
-1.00973
-1.00795
-1.0047
-1.0001
-0.994193
-0.987057
-0.978765
-0.969396
-0.959028
-0.94774
-0.935609
-0.922715
-0.909136
-0.894947
-0.880225
-0.865043
-0.849474
-0.833586
-0.817446
-0.80112
-0.784669
-0.768152
-0.751625
-0.735141
-0.718751
-0.702501
-0.686436
-0.670597
-0.655021
-0.639743
-0.982521
-0.981173
-0.978394
-0.974269
-0.968857
-0.962226
-0.954451
-0.945607
-0.935771
-0.925019
-0.913428
-0.901077
-0.888042
-0.874399
-0.860222
-0.845585
-0.830559
-0.815214
-0.799615
-0.783827
-0.767911
-0.751927
-0.73593
-0.719974
-0.704107
-0.688379
-0.672831
-0.657505
-0.642438
-0.627664
-0.955378
-0.954517
-0.952247
-0.948644
-0.943768
-0.937685
-0.930464
-0.922181
-0.912908
-0.902722
-0.891699
-0.879914
-0.867443
-0.854362
-0.840743
-0.82666
-0.812182
-0.797379
-0.782318
-0.767061
-0.75167
-0.736204
-0.72072
-0.70527
-0.689904
-0.67467
-0.659612
-0.644771
-0.630184
-0.615885
-0.928377
-0.928037
-0.926308
-0.923262
-0.918954
-0.913448
-0.906812
-0.899118
-0.890437
-0.880843
-0.87041
-0.859212
-0.847324
-0.834819
-0.821771
-0.80825
-0.794326
-0.780069
-0.765542
-0.750811
-0.735936
-0.720976
-0.705988
-0.691024
-0.676136
-0.661372
-0.646776
-0.632391
-0.618254
-0.604402
-0.901592
-0.901795
-0.900628
-0.89816
-0.894443
-0.889537
-0.883509
-0.876427
-0.868359
-0.859377
-0.849554
-0.838961
-0.827671
-0.815757
-0.80329
-0.790341
-0.776978
-0.763268
-0.749277
-0.735067
-0.720701
-0.706235
-0.691728
-0.677233
-0.662801
-0.648481
-0.634321
-0.620363
-0.606646
-0.593211
-0.875098
-0.875852
-0.875259
-0.873381
-0.870268
-0.865978
-0.860572
-0.854116
-0.846677
-0.838323
-0.829124
-0.819151
-0.808473
-0.797162
-0.785288
-0.772918
-0.760122
-0.746964
-0.733509
-0.719819
-0.705956
-0.691976
-0.677937
-0.663893
-0.649897
-0.635998
-0.622246
-0.608686
-0.595359
-0.582308
-0.848966
-0.850271
-0.850253
-0.848968
-0.846464
-0.842795
-0.838019
-0.832199
-0.825398
-0.817682
-0.809119
-0.799776
-0.789721
-0.779023
-0.76775
-0.755969
-0.743746
-0.731145
-0.718228
-0.705058
-0.691694
-0.678193
-0.664612
-0.651005
-0.637425
-0.623924
-0.610552
-0.597359
-0.584389
-0.571689
-0.823262
-0.825109
-0.825659
-0.824962
-0.823064
-0.820015
-0.81587
-0.810688
-0.804529
-0.797457
-0.789536
-0.78083
-0.771406
-0.761329
-0.750666
-0.739481
-0.727837
-0.715798
-0.703425
-0.690776
-0.677909
-0.664883
-0.65175
-0.638567
-0.625385
-0.612259
-0.599241
-0.586383
-0.573735
-0.56135
-0.798046
-0.800419
-0.801522
-0.801402
-0.8001
-0.797663
-0.794143
-0.789596
-0.784078
-0.77765
-0.770373
-0.762308
-0.75352
-0.74407
-0.734023
-0.72344
-0.712383
-0.700913
-0.689087
-0.676962
-0.664596
-0.652041
-0.639352
-0.626581
-0.613782
-0.601009
-0.588317
-0.575761
-0.563398
-0.551287
-0.773371
-0.776248
-0.777884
-0.778323
-0.777601
-0.775763
-0.772858
-0.768936
-0.764053
-0.758265
-0.75163
-0.744206
-0.736054
-0.727235
-0.717809
-0.707835
-0.697371
-0.686476
-0.675204
-0.66361
-0.651747
-0.639665
-0.627417
-0.615051
-0.602622
-0.590181
-0.577786
-0.565497
-0.553377
-0.541495
-0.749281
-0.752635
-0.754781
-0.755755
-0.755593
-0.754336
-0.752029
-0.74872
-0.744461
-0.739304
-0.733304
-0.726518
-0.719003
-0.710815
-0.702012
-0.692652
-0.682788
-0.672475
-0.661766
-0.65071
-0.639356
-0.627753
-0.615946
-0.603983
-0.591912
-0.579786
-0.56766
-0.5556
-0.543675
-0.531969
-0.725814
-0.729615
-0.732241
-0.733725
-0.734099
-0.7334
-0.731672
-0.728958
-0.725308
-0.72077
-0.715396
-0.70924
-0.702356
-0.694799
-0.686621
-0.677877
-0.668619
-0.658897
-0.648759
-0.638251
-0.627418
-0.616302
-0.604943
-0.593384
-0.581666
-0.569838
-0.557954
-0.546081
-0.534298
-0.522703
-0.702998
-0.707215
-0.710291
-0.712254
-0.713136
-0.712971
-0.711798
-0.709658
-0.706598
-0.702663
-0.697903
-0.692367
-0.686108
-0.679176
-0.671622
-0.663497
-0.65485
-0.645726
-0.636171
-0.626224
-0.615925
-0.60531
-0.594411
-0.583262
-0.571898
-0.560358
-0.54869
-0.536961
-0.525257
-0.513694
-0.680854
-0.685454
-0.688947
-0.69136
-0.69272
-0.69306
-0.692416
-0.690827
-0.688335
-0.684985
-0.680821
-0.675893
-0.670248
-0.663935
-0.657003
-0.649497
-0.641465
-0.632948
-0.623986
-0.614615
-0.604868
-0.594773
-0.584353
-0.573631
-0.562629
-0.551373
-0.539901
-0.52827
-0.516571
-0.504939
-0.659399
-0.664348
-0.668225
-0.671055
-0.672862
-0.673677
-0.673534
-0.672469
-0.670522
-0.667734
-0.664149
-0.659812
-0.654769
-0.649066
-0.642748
-0.635861
-0.628447
-0.620544
-0.612188
-0.60341
-0.594236
-0.584685
-0.57477
-0.564501
-0.553882
-0.542919
-0.531628
-0.520051
-0.508273
-0.496441
-0.638641
-0.643905
-0.648133
-0.651346
-0.653569
-0.654828
-0.655156
-0.654587
-0.653158
-0.650909
-0.64788
-0.644116
-0.639659
-0.634554
-0.628845
-0.622572
-0.615777
-0.608494
-0.600757
-0.59259
-0.584014
-0.575038
-0.565664
-0.555885
-0.545683
-0.535037
-0.523929
-0.512365
-0.500412
-0.488209
-0.618583
-0.624129
-0.628675
-0.63224
-0.634845
-0.636517
-0.637286
-0.637183
-0.636244
-0.634507
-0.632012
-0.628799
-0.62491
-0.620389
-0.615276
-0.609613
-0.603435
-0.596779
-0.589671
-0.582134
-0.574182
-0.565817
-0.557029
-0.547791
-0.53806
-0.527779
-0.516877
-0.505301
-0.493072
-0.480271
-0.599224
-0.605022
-0.609854
-0.613737
-0.616692
-0.618745
-0.619923
-0.620256
-0.619779
-0.618527
-0.616539
-0.613854
-0.610514
-0.606559
-0.60203
-0.596966
-0.591404
-0.585375
-0.578908
-0.57202
-0.564722
-0.557008
-0.548858
-0.540227
-0.531044
-0.521205
-0.51057
-0.498987
-0.486384
-0.472685
-0.580559
-0.586578
-0.591664
-0.595834
-0.599109
-0.60151
-0.603065
-0.603804
-0.603758
-0.602962
-0.601455
-0.599273
-0.596459
-0.593051
-0.58909
-0.584614
-0.579661
-0.574261
-0.568441
-0.56222
-0.555604
-0.548585
-0.541135
-0.533194
-0.524661
-0.515383
-0.50513
-0.493603
-0.480571
-0.465595
-0.56258
-0.568788
-0.574098
-0.578523
-0.582083
-0.5848
-0.5867
-0.58781
-0.588163
-0.587793
-0.586735
-0.585028
-0.582712
-0.579827
-0.576413
-0.572509
-0.568152
-0.563374
-0.558204
-0.552661
-0.546753
-0.540471
-0.533785
-0.526625
-0.518872
-0.510323
-0.500644
-0.489336
-0.475939
-0.459311
-0.545276
-0.551646
-0.557148
-0.561797
-0.56561
-0.56861
-0.570819
-0.572267
-0.572984
-0.573004
-0.572361
-0.571095
-0.569245
-0.566852
-0.563956
-0.560597
-0.556814
-0.552642
-0.548112
-0.543246
-0.538056
-0.532541
-0.526672
-0.520385
-0.513553
-0.505943
-0.497116
-0.486328
-0.472835
-0.454225
-0.52864
-0.535165
-0.540853
-0.545716
-0.549773
-0.553044
-0.555552
-0.557324
-0.558392
-0.558787
-0.558547
-0.557708
-0.556311
-0.554398
-0.55201
-0.549188
-0.545975
-0.542407
-0.53852
-0.534341
-0.52989
-0.525175
-0.520181
-0.514861
-0.509107
-0.502694
-0.495124
-0.485395
-0.47232
-0.450722
-0.512639
-0.519337
-0.525229
-0.530326
-0.534646
-0.538209
-0.541039
-0.543164
-0.544612
-0.545419
-0.54562
-0.545254
-0.544363
-0.542988
-0.541174
-0.538964
-0.536403
-0.533532
-0.53039
-0.527013
-0.523427
-0.519654
-0.515699
-0.511549
-0.507147
-0.502356
-0.496769
-0.489307
-0.478238
-0.452211
-0.497183
-0.503836
-0.509716
-0.514834
-0.519208
-0.522859
-0.525811
-0.528091
-0.529731
-0.530763
-0.531227
-0.531163
-0.530614
-0.529626
-0.528247
-0.526526
-0.524513
-0.522256
-0.519805
-0.517206
-0.514503
-0.511738
-0.508951
-0.506176
-0.503451
-0.500836
-0.498236
-0.495049
-0.491303
-0.471759
-0.403124
-0.450946
-0.497477
-0.543331
-0.588321
-0.632282
-0.675096
-0.716655
-0.756855
-0.795601
-0.832802
-0.868375
-0.902246
-0.934346
-0.964613
-0.992995
-1.01944
-1.04392
-1.0664
-1.08685
-1.10527
-1.12163
-1.13595
-1.14824
-1.1585
-1.16675
-1.17304
-1.17736
-1.17972
-1.1805
-0.395235
-0.441899
-0.487486
-0.53224
-0.576045
-0.618783
-0.660362
-0.700686
-0.739661
-0.777197
-0.81321
-0.847623
-0.880363
-0.911366
-0.940574
-0.967935
-0.993408
-1.01696
-1.03855
-1.05818
-1.07582
-1.09147
-1.10513
-1.11682
-1.12655
-1.13435
-1.14025
-1.1443
-1.14653
-1.14712
-0.384296
-0.429951
-0.474685
-0.518559
-0.561472
-0.603322
-0.644021
-0.683477
-0.721601
-0.758307
-0.793514
-0.827146
-0.859135
-0.889417
-0.917937
-0.944645
-0.9695
-0.992468
-1.01352
-1.03265
-1.04983
-1.06506
-1.07835
-1.08971
-1.09916
-1.10673
-1.11245
-1.11637
-1.11852
-1.11901
-0.369965
-0.414707
-0.45862
-0.5017
-0.543839
-0.58494
-0.624912
-0.663665
-0.701113
-0.737172
-0.771761
-0.804808
-0.836243
-0.866006
-0.894041
-0.9203
-0.944743
-0.967335
-0.98805
-1.00687
-1.02379
-1.03879
-1.0519
-1.06311
-1.07245
-1.07994
-1.08562
-1.08953
-1.09171
-1.09224
-0.352684
-0.396527
-0.439614
-0.481905
-0.523292
-0.563674
-0.602962
-0.641065
-0.677898
-0.713379
-0.747428
-0.779973
-0.810946
-0.840286
-0.867938
-0.893855
-0.917995
-0.940324
-0.960817
-0.979455
-0.996226
-1.01113
-1.02416
-1.03534
-1.04468
-1.05221
-1.05797
-1.06198
-1.06428
-1.06495
-0.33319
-0.376141
-0.418399
-0.459905
-0.500548
-0.54023
-0.578859
-0.616348
-0.652609
-0.687562
-0.721128
-0.753235
-0.783816
-0.812809
-0.840159
-0.865819
-0.889746
-0.911907
-0.932274
-0.950828
-0.967555
-0.982452
-0.99552
-1.00677
-1.01622
-1.02389
-1.02981
-1.03402
-1.03655
-1.03746
-0.312174
-0.354229
-0.395649
-0.436362
-0.476259
-0.515245
-0.553226
-0.590116
-0.625828
-0.660282
-0.6934
-0.72511
-0.755344
-0.784041
-0.811145
-0.836609
-0.860388
-0.882448
-0.902761
-0.921305
-0.938067
-0.953039
-0.966222
-0.977624
-0.987259
-0.99515
-1.00132
-1.00581
-1.00865
-1.00989
-0.290251
-0.331395
-0.371959
-0.411862
-0.451002
-0.489281
-0.52661
-0.5629
-0.598068
-0.632032
-0.664715
-0.696044
-0.725954
-0.754381
-0.781271
-0.806572
-0.830243
-0.852245
-0.87255
-0.891134
-0.907981
-0.923083
-0.936439
-0.948052
-0.957936
-0.966109
-0.972598
-0.977431
-0.980639
-0.982278
-0.267943
-0.308159
-0.347846
-0.386921
-0.425285
-0.462842
-0.499504
-0.535184
-0.569799
-0.603268
-0.635514
-0.666465
-0.696055
-0.724221
-0.750906
-0.776061
-0.79964
-0.821605
-0.841926
-0.860577
-0.877541
-0.892806
-0.906369
-0.918233
-0.928406
-0.936904
-0.943752
-0.948975
-0.952602
-0.954682
-0.245681
-0.284951
-0.323743
-0.361971
-0.399539
-0.436355
-0.472333
-0.507387
-0.541434
-0.574394
-0.606192
-0.636755
-0.666018
-0.693917
-0.720395
-0.745401
-0.76889
-0.790823
-0.811167
-0.829895
-0.846987
-0.862431
-0.876219
-0.888352
-0.898837
-0.907686
-0.91492
-0.920562
-0.924639
-0.927195
-0.223802
-0.262114
-0.299995
-0.337359
-0.374114
-0.410172
-0.445447
-0.479856
-0.513316
-0.545751
-0.577083
-0.607242
-0.636162
-0.663779
-0.690036
-0.714883
-0.738272
-0.760164
-0.780523
-0.799323
-0.816542
-0.832164
-0.84618
-0.858588
-0.869392
-0.878601
-0.886233
-0.892309
-0.896852
-0.899902
-0.202562
-0.239909
-0.276867
-0.313354
-0.349282
-0.384566
-0.419123
-0.452869
-0.485726
-0.517615
-0.548463
-0.578198
-0.606754
-0.634069
-0.660086
-0.684753
-0.708024
-0.729856
-0.750216
-0.769073
-0.786404
-0.802193
-0.816427
-0.829103
-0.84022
-0.849787
-0.857816
-0.864328
-0.869341
-0.872891
-0.182146
-0.218524
-0.254555
-0.290158
-0.32525
-0.359749
-0.393573
-0.426643
-0.458879
-0.490206
-0.520549
-0.549839
-0.57801
-0.605001
-0.630754
-0.655218
-0.678346
-0.700096
-0.720432
-0.739323
-0.756746
-0.772681
-0.787115
-0.80004
-0.811456
-0.821367
-0.829783
-0.836721
-0.842197
-0.846243
-0.162679
-0.19809
-0.233194
-0.26791
-0.302161
-0.335869
-0.368953
-0.401335
-0.432938
-0.463687
-0.493508
-0.522334
-0.550099
-0.576742
-0.602207
-0.626442
-0.6494
-0.67104
-0.691325
-0.710224
-0.727712
-0.743766
-0.758374
-0.771526
-0.783218
-0.793451
-0.802235
-0.809581
-0.815506
-0.820034
-0.144238
-0.17869
-0.212869
-0.246702
-0.280114
-0.313028
-0.345369
-0.377057
-0.408017
-0.438176
-0.467461
-0.495805
-0.523144
-0.549418
-0.57457
-0.598551
-0.621313
-0.642815
-0.66302
-0.681896
-0.699418
-0.715563
-0.730315
-0.743664
-0.755603
-0.766133
-0.775259
-0.78299
-0.78934
-0.79433
-0.12686
-0.160363
-0.193628
-0.226585
-0.259162
-0.291288
-0.322885
-0.353878
-0.384191
-0.413752
-0.44249
-0.470338
-0.497234
-0.523118
-0.547936
-0.571638
-0.594177
-0.615513
-0.635609
-0.654432
-0.671957
-0.688161
-0.703026
-0.71654
-0.728695
-0.73949
-0.748928
-0.757015
-0.763764
-0.769191
-0.110555
-0.143123
-0.175485
-0.207576
-0.23933
-0.270675
-0.301535
-0.331835
-0.361501
-0.39046
-0.418644
-0.445986
-0.472425
-0.497903
-0.522366
-0.545767
-0.568059
-0.589202
-0.60916
-0.627901
-0.645398
-0.661628
-0.676572
-0.690219
-0.702557
-0.713585
-0.723302
-0.731714
-0.73883
-0.744664
-0.0953077
-0.126955
-0.158429
-0.18967
-0.220615
-0.251191
-0.281324
-0.310939
-0.339961
-0.368319
-0.395944
-0.422773
-0.448744
-0.473803
-0.497896
-0.520976
-0.542998
-0.563924
-0.583718
-0.602348
-0.619787
-0.636012
-0.651005
-0.66475
-0.677238
-0.688464
-0.698427
-0.70713
-0.71458
-0.72079
-0.0810894
-0.11183
-0.142432
-0.172841
-0.202995
-0.23282
-0.26224
-0.291181
-0.319566
-0.347326
-0.374393
-0.400705
-0.426202
-0.45083
-0.474538
-0.497281
-0.519016
-0.539703
-0.559309
-0.577802
-0.595156
-0.611346
-0.626355
-0.640168
-0.652772
-0.664163
-0.674337
-0.683297
-0.691048
-0.697599
-0.0678583
-0.097704
-0.127453
-0.157051
-0.186434
-0.215528
-0.244254
-0.272534
-0.300294
-0.327462
-0.353974
-0.379768
-0.404786
-0.428977
-0.452291
-0.474684
-0.496115
-0.516545
-0.535942
-0.554275
-0.571517
-0.587646
-0.602643
-0.616492
-0.629181
-0.640704
-0.651056
-0.660239
-0.668255
-0.675114
-0.055565
-0.0845246
-0.113439
-0.142249
-0.170887
-0.199274
-0.227326
-0.254963
-0.28211
-0.308697
-0.334659
-0.359938
-0.384477
-0.408226
-0.431138
-0.453171
-0.474285
-0.494443
-0.513612
-0.531765
-0.548874
-0.564916
-0.579874
-0.593731
-0.606475
-0.618098
-0.628597
-0.637969
-0.646218
-0.65335
-0.044154
-0.0722301
-0.10033
-0.12838
-0.156301
-0.184008
-0.21141
-0.238423
-0.264973
-0.29099
-0.316411
-0.341179
-0.36524
-0.388546
-0.411053
-0.432718
-0.453505
-0.473378
-0.492306
-0.51026
-0.527216
-0.54315
-0.558045
-0.571884
-0.584656
-0.596351
-0.606964
-0.616495
-0.624944
-0.632316
-0.0335642
-0.0607506
-0.088061
-0.115381
-0.142619
-0.169676
-0.196454
-0.222866
-0.248836
-0.274296
-0.299186
-0.323449
-0.347036
-0.3699
-0.391999
-0.413293
-0.433746
-0.453325
-0.471999
-0.489741
-0.506527
-0.522334
-0.537144
-0.550943
-0.563716
-0.575456
-0.586157
-0.595816
-0.604434
-0.612015
-0.0237264
-0.0500034
-0.0765553
-0.103184
-0.129775
-0.156217
-0.182399
-0.208233
-0.233643
-0.258561
-0.282931
-0.306699
-0.329818
-0.352244
-0.373936
-0.394857
-0.414972
-0.43425
-0.452661
-0.47018
-0.486781
-0.502445
-0.517153
-0.53089
-0.543643
-0.555404
-0.566166
-0.575926
-0.584684
-0.592444
-0.0145553
-0.0398986
-0.065739
-0.0917227
-0.117714
-0.143578
-0.169197
-0.194477
-0.219345
-0.243738
-0.267601
-0.290884
-0.313543
-0.335535
-0.356823
-0.377371
-0.397147
-0.416119
-0.434261
-0.451546
-0.467953
-0.48346
-0.498049
-0.511707
-0.52442
-0.536179
-0.546978
-0.556814
-0.565685
-0.573595
-0.00594084
-0.0303759
-0.0555926
-0.0809911
-0.106431
-0.13176
-0.156845
-0.181595
-0.20594
-0.229822
-0.253189
-0.275995
-0.2982
-0.319763
-0.340649
-0.360824
-0.380258
-0.39892
-0.416786
-0.43383
-0.45003
-0.465366
-0.479822
-0.493383
-0.506036
-0.517772
-0.528585
-0.538471
-0.547429
-0.555461
0.00227243
-0.021332
-0.0460689
-0.0709535
-0.0958942
-0.120725
-0.145302
-0.169541
-0.193378
-0.21676
-0.239641
-0.261979
-0.283735
-0.304874
-0.325361
-0.345165
-0.364257
-0.382607
-0.400193
-0.416989
-0.432974
-0.44813
-0.46244
-0.475889
-0.488466
-0.500161
-0.510968
-0.520882
-0.529902
-0.53803
0.0105372
-0.0120068
-0.0364369
-0.0609257
-0.0854511
-0.109844
-0.133959
-0.157724
-0.181088
-0.204003
-0.226431
-0.248332
-0.269672
-0.290416
-0.310534
-0.329994
-0.348769
-0.366833
-0.38416
-0.400729
-0.416519
-0.431512
-0.44569
-0.45904
-0.471551
-0.483212
-0.494017
-0.503962
-0.513046
-0.521269
0.0201198
-0.00104289
-0.0255236
-0.0499022
-0.0742276
-0.0983311
-0.1221
-0.145493
-0.168476
-0.191011
-0.213064
-0.234604
-0.255596
-0.276011
-0.295819
-0.314992
-0.333503
-0.351328
-0.368442
-0.384825
-0.400457
-0.41532
-0.429398
-0.442678
-0.455148
-0.4668
-0.477626
-0.487623
-0.496789
-0.505125
0.0298582
0.00649626
-0.0190698
-0.0435672
-0.0678262
-0.0916972
-0.115111
-0.138093
-0.160632
-0.182704
-0.204282
-0.225339
-0.245848
-0.265782
-0.285116
-0.303823
-0.321882
-0.339269
-0.355964
-0.371948
-0.387204
-0.401715
-0.415467
-0.428449
-0.44065
-0.452063
-0.462681
-0.472502
-0.481524
-0.489749
0.542442
0.549457
0.556635
0.563943
0.571379
0.57894
0.586616
0.594398
0.602271
0.61022
0.618227
0.62627
0.634327
0.642371
0.650375
0.658312
0.666155
0.673881
0.681477
0.688938
0.696281
0.703549
0.710824
0.718238
0.725995
0.734392
0.743742
0.754317
0.767924
0.787675
0.535251
0.542004
0.549022
0.55615
0.563386
0.570734
0.578188
0.585735
0.593359
0.601045
0.608772
0.616518
0.624258
0.631966
0.639612
0.647166
0.654602
0.661896
0.669031
0.676004
0.682833
0.689562
0.696278
0.703118
0.710297
0.718126
0.726938
0.737032
0.750274
0.769911
0.527206
0.533648
0.540481
0.547404
0.554409
0.561514
0.568713
0.57599
0.58333
0.590714
0.598122
0.60553
0.612912
0.620238
0.627479
0.634603
0.641583
0.648392
0.655014
0.661447
0.667708
0.673846
0.679951
0.686169
0.692726
0.699949
0.708192
0.717793
0.730683
0.750217
0.518316
0.524398
0.531022
0.537714
0.544458
0.551288
0.558199
0.565173
0.572193
0.579239
0.586289
0.593319
0.600299
0.6072
0.613991
0.620638
0.627112
0.633387
0.639446
0.645287
0.650929
0.656425
0.66187
0.667419
0.673309
0.679885
0.687524
0.696593
0.709065
0.72834
0.508589
0.514264
0.520655
0.52709
0.533544
0.540069
0.54666
0.553298
0.559962
0.566633
0.573287
0.579898
0.586436
0.592869
0.599163
0.605287
0.611207
0.616899
0.622345
0.627543
0.632516
0.63732
0.642057
0.64689
0.652069
0.657956
0.664951
0.67345
0.685449
0.704359
0.498037
0.503259
0.509393
0.515546
0.521681
0.52787
0.53411
0.540378
0.546653
0.552913
0.559133
0.565286
0.57134
0.577262
0.583017
0.58857
0.593891
0.598951
0.603734
0.608241
0.612496
0.616559
0.62054
0.624612
0.629037
0.634194
0.640506
0.648395
0.659874
0.678345
0.486673
0.491397
0.497252
0.503098
0.508885
0.514708
0.520566
0.526432
0.532283
0.538097
0.543847
0.549503
0.555033
0.560402
0.565574
0.570514
0.575188
0.57957
0.583643
0.587411
0.5909
0.594176
0.597355
0.60062
0.604249
0.608637
0.614226
0.621469
0.632385
0.650352
0.474509
0.478694
0.484247
0.489761
0.495173
0.500601
0.506046
0.511478
0.516873
0.522207
0.52745
0.532572
0.53754
0.542316
0.546863
0.551145
0.555128
0.558787
0.562105
0.565086
0.567763
0.570206
0.57254
0.574957
0.577749
0.581329
0.586159
0.59272
0.60303
0.620436
0.461562
0.465166
0.470397
0.475554
0.480565
0.485569
0.490572
0.49554
0.500446
0.505266
0.509968
0.51452
0.518887
0.52303
0.526913
0.530496
0.533746
0.536637
0.539155
0.541307
0.543127
0.544694
0.54614
0.547669
0.549586
0.55232
0.556357
0.562201
0.571868
0.588659
0.447846
0.450832
0.45572
0.460498
0.46508
0.469633
0.474165
0.47864
0.483027
0.4873
0.491427
0.495374
0.499105
0.502578
0.505756
0.5086
0.511076
0.513158
0.514834
0.516114
0.517037
0.517687
0.518205
0.518808
0.519814
0.521669
0.524879
0.529974
0.538961
0.555086
0.43338
0.435711
0.440237
0.444614
0.448741
0.452817
0.456851