/*--------------------------------*- C++ -*----------------------------------*\
| =========                 |                                                 |
| \\      /  F ield         | OpenFOAM: The Open Source CFD Toolbox           |
|  \\    /   O peration     | Version:  v1912                                 |
|   \\  /    A nd           | Website:  www.openfoam.com                      |
|    \\/     M anipulation  |                                                 |
\*---------------------------------------------------------------------------*/
FoamFile
{
    version     2.0;
    format      ascii;
    class       volScalarField;
    location    "15";
    object      p;
}
// * * * * * * * * * * * * * * * * * * * * * * * * * * * * * * * * * * * * * //

dimensions      [0 2 -2 0 0 0 0];


internalField   nonuniform List<scalar> 
9600
(
-40.6364
-35.3268
-32.0566
-29.277
-26.7427
-24.4595
-22.3973
-20.527
-18.8292
-17.2888
-15.8917
-14.6249
-13.4759
-12.4334
-11.4866
-10.6256
-9.84181
-9.12685
-8.47303
-7.87839
-41.3034
-35.9796
-32.6781
-29.8608
-27.2868
-24.9648
-22.8665
-20.9631
-19.236
-17.6696
-16.2498
-14.9631
-13.7968
-12.7389
-11.7786
-10.9056
-10.1109
-9.38594
-8.72263
-8.12025
-41.973
-36.6296
-33.2951
-30.4401
-27.8261
-25.4653
-23.3307
-21.3946
-19.6382
-18.0461
-16.6039
-15.2975
-14.1141
-13.0412
-12.0675
-11.1826
-10.3772
-9.64235
-8.9696
-8.35964
-42.6422
-37.2762
-33.9075
-31.014
-28.3599
-25.9601
-23.7894
-21.8206
-20.0352
-18.4177
-16.9533
-15.6276
-14.4273
-13.3397
-12.3529
-11.4563
-10.6403
-9.89563
-9.21355
-8.59626
-43.3082
-37.9182
-34.5144
-31.5818
-28.8872
-26.4484
-24.2416
-22.2403
-20.4262
-18.7836
-17.2974
-15.9528
-14.7359
-13.6338
-12.6342
-11.7261
-10.8998
-10.1454
-9.45417
-8.82987
-43.9692
-38.5544
-35.1147
-32.1425
-29.4072
-26.9292
-24.6865
-22.653
-20.8105
-19.1432
-17.6355
-16.2723
-15.0393
-13.923
-12.9109
-11.9917
-11.1552
-10.3914
-9.69115
-9.0602
-44.6235
-39.1834
-35.7074
-32.6951
-29.9189
-27.4018
-25.1232
-23.0578
-21.1874
-19.4958
-17.967
-16.5857
-15.3369
-14.2068
-13.1825
-12.2524
-11.4061
-10.6331
-9.92415
-9.28699
-45.2698
-39.804
-36.2914
-33.2387
-30.4214
-27.8653
-25.5511
-23.4541
-21.556
-19.8405
-18.2912
-16.8921
-15.628
-14.4845
-13.4484
-12.5079
-11.6521
-10.8702
-10.1528
-9.50994
-45.9069
-40.4151
-36.8656
-33.7721
-30.9137
-28.3187
-25.9692
-23.8409
-21.9157
-20.1768
-18.6074
-17.191
-15.912
-14.7555
-13.708
-12.7574
-11.8926
-11.1022
-10.3768
-9.72872
-46.5336
-41.0155
-37.429
-34.2945
-31.3949
-28.7612
-26.3766
-24.2175
-22.2656
-20.5038
-18.9148
-17.4817
-16.1881
-15.0191
-13.9607
-13.0005
-12.127
-11.3286
-10.5955
-9.94291
-47.149
-41.6044
-37.9806
-34.805
-31.8642
-29.1919
-26.7727
-24.5832
-22.6051
-20.8208
-19.2127
-17.7632
-16.4557
-15.2746
-14.2057
-13.2363
-12.3547
-11.5485
-10.8084
-10.1519
-47.7523
-42.1808
-38.5196
-35.3027
-32.3208
-29.6101
-27.1566
-24.9371
-22.9332
-21.127
-19.5003
-18.0349
-16.7138
-15.5211
-14.4422
-13.464
-12.5747
-11.7614
-11.0147
-10.3549
-48.3428
-42.744
-39.0451
-35.7867
-32.7638
-30.015
-27.5275
-25.2785
-23.2493
-21.4216
-19.7766
-18.2958
-16.9616
-15.7576
-14.669
-13.6826
-12.7861
-11.9662
-11.2135
-10.5512
-48.92
-43.2931
-39.5563
-36.2564
-33.1925
-30.4059
-27.8848
-25.6067
-23.5527
-21.7039
-20.0411
-18.5451
-17.1981
-15.9831
-14.8852
-13.8908
-12.9876
-12.1617
-11.4037
-10.7402
-49.4834
-43.8275
-40.0526
-36.711
-33.6062
-30.7821
-28.2279
-25.9211
-23.8426
-21.9732
-20.2928
-18.782
-17.4222
-16.1965
-15.0893
-14.0871
-13.1773
-12.3458
-11.5833
-10.9198
-50.0327
-44.3465
-40.5331
-37.1499
-34.0044
-31.1431
-28.5561
-26.2211
-24.1187
-22.2288
-20.5312
-19.0056
-17.6333
-16.3967
-15.2802
-14.2701
-13.3537
-12.5167
-11.7498
-11.0853
-50.569
-44.8499
-40.9974
-37.5726
-34.3865
-31.4883
-28.869
-26.5063
-24.3803
-22.4704
-20.7557
-19.2154
-17.8303
-16.5828
-15.4569
-14.439
-13.5163
-12.674
-11.9019
-11.2337
-51.0969
-45.3389
-41.4446
-37.9777
-34.7514
-31.8169
-29.166
-26.7763
-24.6271
-22.6975
-20.9657
-19.4106
-18.0124
-16.7533
-15.6174
-14.5913
-13.6625
-12.8152
-12.0387
-11.3745
-51.6184
-45.8131
-41.8731
-38.3643
-35.0989
-32.1292
-29.4475
-27.0314
-24.8598
-22.9107
-21.1619
-19.5915
-18.1792
-16.907
-15.7589
-14.7216
-13.7822
-12.9252
-12.147
-11.5113
-52.1116
-46.2647
-42.282
-38.7329
-35.4301
-32.4264
-29.715
-27.2733
-25.0798
-23.1117
-21.346
-19.7602
-18.3332
-17.0464
-15.883
-14.8287
-13.8686
-12.989
-12.2014
-11.5706
-57.034
-57.0052
-56.9414
-56.8571
-56.7514
-56.6218
-56.4677
-56.2898
-56.0884
-55.8642
-55.6176
-55.3493
-55.06
-54.7502
-54.4209
-54.0728
-53.7072
-53.3257
-52.9313
-52.5272
-50.7506
-50.7489
-50.7166
-50.6594
-50.5779
-50.4714
-50.3402
-50.1851
-50.0067
-49.8055
-49.5823
-49.3376
-49.0721
-48.7863
-48.481
-48.1569
-47.8145
-47.4546
-47.0776
-46.6816
-46.2122
-46.2328
-46.2264
-46.1937
-46.136
-46.0539
-45.9481
-45.8192
-45.6679
-45.4947
-45.3002
-45.085
-44.8496
-44.5946
-44.3205
-44.0278
-43.7168
-43.3876
-43.0399
-42.672
-42.1034
-42.14
-42.1521
-42.1394
-42.1027
-42.043
-41.9609
-41.857
-41.7318
-41.5858
-41.4197
-41.2338
-41.0288
-40.8051
-40.5631
-40.3032
-40.0255
-39.7301
-39.4166
-39.0844
-38.3219
-38.3672
-38.3905
-38.3913
-38.3698
-38.3268
-38.263
-38.1788
-38.0748
-37.9515
-37.8093
-37.6488
-37.4704
-37.2745
-37.0615
-36.8318
-36.5854
-36.3223
-36.0424
-35.7452
-34.9375
-34.9864
-35.0155
-35.024
-35.012
-34.9801
-34.9289
-34.859
-34.7707
-34.6645
-34.541
-34.4006
-34.2438
-34.0709
-33.8823
-33.6784
-33.4591
-33.2246
-32.9747
-32.7089
-31.9365
-31.9853
-32.016
-32.0279
-32.0208
-31.9954
-31.9522
-31.8917
-31.8143
-31.7205
-31.6107
-31.4855
-31.3454
-31.1906
-31.0217
-30.8388
-30.6422
-30.4319
-30.2075
-29.9689
-29.2808
-29.3271
-29.3566
-29.3686
-29.3633
-29.3409
-29.3021
-29.2474
-29.1771
-29.0917
-28.9918
-28.8777
-28.75
-28.6092
-28.4556
-28.2896
-28.1114
-27.9211
-27.7183
-27.5027
-26.9308
-26.973
-26.9996
-27.01
-27.0042
-26.9827
-26.9459
-26.8944
-26.8284
-26.7486
-26.6553
-26.5492
-26.4307
-26.3004
-26.1587
-26.0061
-25.8428
-25.6689
-25.4842
-25.2882
-24.8475
-24.885
-24.9078
-24.9155
-24.9081
-24.8861
-24.8498
-24.7998
-24.7363
-24.66
-24.5713
-24.4708
-24.3591
-24.2367
-24.1042
-23.9622
-23.811
-23.6507
-23.4812
-23.302
-22.9946
-23.0273
-23.0461
-23.0507
-23.0411
-23.0178
-22.9812
-22.9316
-22.8695
-22.7954
-22.7098
-22.6133
-22.5065
-22.3901
-22.2648
-22.1312
-21.9899
-21.8411
-21.6847
-21.5202
-21.3401
-21.3682
-21.383
-21.3845
-21.3726
-21.3477
-21.3102
-21.2605
-21.1991
-21.1264
-21.0429
-20.9493
-20.8462
-20.7344
-20.6147
-20.4879
-20.3547
-20.2157
-20.0709
-19.9196
-19.8566
-19.8803
-19.8915
-19.8899
-19.8757
-19.8492
-19.8107
-19.7607
-19.6995
-19.6277
-19.5457
-19.4542
-19.3539
-19.2456
-19.1303
-19.009
-18.8826
-18.752
-18.6176
-18.4786
-18.5206
-18.5405
-18.5483
-18.544
-18.5277
-18.4996
-18.4602
-18.4097
-18.3486
-18.2774
-18.1965
-18.1065
-18.0083
-17.9028
-17.7909
-17.6738
-17.5531
-17.4298
-17.3049
-17.1776
-17.3127
-17.3291
-17.334
-17.3272
-17.309
-17.2796
-17.2392
-17.1884
-17.1273
-17.0565
-16.9765
-16.8878
-16.7912
-16.6876
-16.5783
-16.4645
-16.3483
-16.231
-16.115
-15.9993
-16.2166
-16.2299
-16.2321
-16.2232
-16.2033
-16.1726
-16.1316
-16.0804
-16.0193
-15.9489
-15.8695
-15.7818
-15.6864
-15.5843
-15.4767
-15.3652
-15.2522
-15.1397
-15.0317
-14.9272
-15.2185
-15.2291
-15.2289
-15.2181
-15.1967
-15.165
-15.1233
-15.0717
-15.0107
-14.9405
-14.8617
-14.7746
-14.68
-14.5787
-14.472
-14.3615
-14.2502
-14.1407
-14.0393
-13.9448
-14.3067
-14.315
-14.3131
-14.3008
-14.2784
-14.2459
-14.2037
-14.1521
-14.0911
-14.0213
-13.9429
-13.8564
-13.7623
-13.6613
-13.5548
-13.4442
-13.3329
-13.2244
-13.1285
-13.0414
-13.4701
-13.4771
-13.4743
-13.4615
-13.4389
-13.4067
-13.3651
-13.3143
-13.2545
-13.186
-13.1091
-13.0242
-12.9317
-12.8321
-12.7264
-12.616
-12.504
-12.3952
-12.3049
-12.2294
-12.7034
-12.7073
-12.7021
-12.6875
-12.6638
-12.6311
-12.5895
-12.5394
-12.4808
-12.4139
-12.3391
-12.2565
-12.1664
-12.0692
-11.9654
-11.856
-11.7424
-11.6297
-11.5338
-11.4795
-51.2628
-51.7862
-52.2753
-52.7519
-53.2133
-53.6533
-54.0693
-54.4601
-54.825
-55.163
-55.4733
-55.7555
-56.0093
-56.2346
-56.4311
-56.5985
-56.7372
-56.8483
-56.9341
-56.9963
-44.861
-45.3905
-45.8942
-46.3782
-46.8418
-47.2826
-47.6993
-48.0912
-48.4578
-48.7984
-49.1123
-49.3991
-49.6589
-49.8918
-50.0985
-50.2772
-50.4276
-50.5502
-50.6455
-50.7125
-40.327
-40.8455
-41.3428
-41.8189
-42.2738
-42.7067
-43.1171
-43.5042
-43.8675
-44.2067
-44.5204
-44.8084
-45.0708
-45.3071
-45.5158
-45.6985
-45.8554
-45.986
-46.09
-46.1658
-36.318
-36.8138
-37.2919
-37.7504
-38.1888
-38.6069
-39.004
-39.3797
-39.7333
-40.0639
-40.3711
-40.6536
-40.9128
-41.1479
-41.3585
-41.5449
-41.707
-41.8443
-41.9564
-42.0429
-32.7494
-33.218
-33.6713
-34.1068
-34.5237
-34.9215
-35.2998
-35.6579
-35.9952
-36.3111
-36.6058
-36.8799
-37.1312
-37.36
-37.5663
-37.75
-37.9108
-38.0486
-38.1632
-38.2545
-29.649
-30.0892
-30.5156
-30.9259
-31.3188
-31.6938
-32.0507
-32.3888
-32.7077
-33.007
-33.2866
-33.5461
-33.7846
-34.0022
-34.1996
-34.3762
-34.5313
-34.665
-34.7774
-34.8684
-26.9645
-27.377
-27.7768
-28.1616
-28.5301
-28.882
-29.2168
-29.534
-29.8333
-30.1142
-30.3765
-30.6199
-30.8441
-31.0488
-31.2335
-31.4005
-31.5476
-31.6746
-31.7817
-31.8692
-24.6314
-25.018
-25.3925
-25.7531
-26.0983
-26.4278
-26.7411
-27.0377
-27.3173
-27.5796
-27.8244
-28.0515
-28.2608
-28.4521
-28.6253
-28.7789
-28.9164
-29.0354
-29.1356
-29.2175
-22.5933
-22.9562
-23.3076
-23.6458
-23.9694
-24.2779
-24.5709
-24.848
-25.1089
-25.3535
-25.5815
-25.7928
-25.9873
-26.1649
-26.3255
-26.4692
-26.5947
-26.7046
-26.7972
-26.8727
-20.802
-21.1435
-21.4742
-21.7921
-22.096
-22.3853
-22.6596
-22.9186
-23.1622
-23.3902
-23.6024
-23.7988
-23.9793
-24.1439
-24.2925
-24.425
-24.5413
-24.6415
-24.7263
-24.795
-19.2173
-19.5398
-19.852
-20.1518
-20.4379
-20.7097
-20.967
-21.2095
-21.4372
-21.6499
-21.8476
-22.0302
-22.1978
-22.3503
-22.4877
-22.6098
-22.7168
-22.8086
-22.8857
-22.9478
-17.8064
-18.1121
-18.408
-18.6917
-18.9618
-19.2179
-19.4597
-19.6871
-19.9002
-20.099
-20.2834
-20.4535
-20.6093
-20.7508
-20.8778
-20.9906
-21.089
-21.1731
-21.2428
-21.2987
-16.5428
-16.8338
-17.1156
-17.3851
-17.6409
-17.8825
-18.1102
-18.3239
-18.5237
-18.7098
-18.8821
-19.0407
-19.1858
-19.3172
-19.435
-19.5392
-19.6297
-19.7066
-19.7698
-19.82
-15.4053
-15.6833
-15.9531
-16.2102
-16.4529
-16.6814
-16.8961
-17.0972
-17.2848
-17.4592
-17.6204
-17.7687
-17.904
-18.0264
-18.1357
-18.2321
-18.3156
-18.3862
-18.444
-18.4886
-14.3765
-14.6437
-14.9034
-15.1493
-15.38
-15.5964
-15.7991
-15.9884
-16.1647
-16.3284
-16.4795
-16.6183
-16.7448
-16.8589
-16.9607
-17.0501
-17.1272
-17.192
-17.2445
-17.2847
-13.4419
-13.7015
-13.9534
-14.1889
-14.4082
-14.6131
-14.8044
-14.9826
-15.1484
-15.3021
-15.444
-15.5741
-15.6925
-15.7992
-15.8941
-15.9772
-16.0486
-16.1081
-16.1559
-16.192
-12.5841
-12.8431
-13.0909
-13.3164
-13.5245
-13.7184
-13.8989
-14.0667
-14.2227
-14.3672
-14.5005
-14.6227
-14.7338
-14.8337
-14.9225
-15
-15.0662
-15.1211
-15.1647
-15.197
-11.7825
-12.0464
-12.2961
-12.5135
-12.7111
-12.8948
-13.0654
-13.2239
-13.3712
-13.5078
-13.6338
-13.7493
-13.8543
-13.9486
-14.0322
-14.105
-14.167
-14.2182
-14.2586
-14.2883
-11.0464
-11.3044
-11.5565
-11.7699
-11.9587
-12.1326
-12.2941
-12.4443
-12.5839
-12.7134
-12.8331
-12.9429
-13.0427
-13.1323
-13.2117
-13.2808
-13.3395
-13.3878
-13.4256
-13.4531
-10.4931
-10.7342
-10.9533
-11.1578
-11.336
-11.494
-11.6408
-11.7782
-11.9058
-12.0241
-12.1334
-12.2334
-12.3241
-12.4054
-12.4771
-12.5391
-12.5914
-12.634
-12.6667
-12.6896
-5.46315
-5.9292
-6.44301
-7.00213
-7.61328
-8.28411
-9.02263
-9.8386
-10.7444
-11.756
-12.8935
-14.1836
-15.6606
-17.369
-19.3667
-21.7292
-24.534
-27.8015
-31.7478
-37.7009
-5.71395
-6.19172
-6.71437
-7.28373
-7.90664
-8.59048
-9.34336
-10.1753
-11.099
-12.1305
-13.2904
-14.6057
-16.1111
-17.8516
-19.8849
-22.2868
-25.1338
-28.4431
-32.4238
-38.3951
-5.96646
-6.45598
-6.98761
-7.56744
-8.20236
-8.89944
-9.66694
-10.5151
-11.4569
-12.5087
-13.6914
-15.0322
-16.5664
-18.3391
-20.4085
-22.8498
-25.7384
-29.0886
-33.102
-39.087
-6.22021
-6.72146
-7.26215
-7.85266
-8.4998
-9.21034
-9.99267
-10.8573
-11.8174
-12.8897
-14.0953
-15.4619
-17.0251
-18.8302
-20.9357
-23.4164
-26.3464
-29.7374
-33.7847
-39.7882
-6.47478
-6.9877
-7.53754
-8.13894
-8.79851
-9.52268
-10.32
-11.2013
-12.1799
-13.2728
-14.5016
-15.8941
-17.4864
-19.3241
-21.4658
-23.9858
-26.9573
-30.3891
-34.4709
-40.4962
-6.72982
-7.25432
-7.8134
-8.42589
-9.09808
-9.83605
-10.6486
-11.5466
-12.5439
-13.6576
-14.9097
-16.3283
-17.9498
-19.8202
-21.998
-24.5574
-27.5702
-31.0428
-35.1589
-41.2071
-6.98503
-7.52098
-8.08936
-8.71313
-9.39811
-10.15
-10.9778
-11.8928
-12.9089
-14.0435
-15.3189
-16.7637
-18.4146
-20.3177
-22.5318
-25.1305
-28.1845
-31.6974
-35.8472
-41.9186
-7.24017
-7.78741
-8.36511
-9.00034
-9.69825
-10.4642
-11.3074
-12.2394
-13.2744
-14.43
-15.7289
-17.1999
-18.8801
-20.816
-23.0663
-25.7042
-28.7991
-32.352
-36.5348
-42.6294
-7.49509
-8.0534
-8.64043
-9.28724
-9.99819
-10.7783
-11.637
-12.586
-13.6398
-14.8165
-16.1388
-17.6361
-19.3456
-21.3143
-23.6006
-26.2775
-29.413
-33.0054
-37.2205
-43.3381
-7.74975
-8.31885
-8.91514
-9.57363
-10.2977
-11.0919
-11.966
-12.9321
-14.0048
-15.2024
-16.5482
-18.0716
-19.8105
-21.8117
-24.1339
-26.8495
-30.0252
-33.6566
-37.9032
-44.0433
-8.00424
-8.58377
-9.18919
-9.85937
-10.5965
-11.4048
-12.2943
-13.2773
-14.3688
-15.5873
-16.9563
-18.5059
-20.2738
-22.3075
-24.6654
-27.4193
-30.6347
-34.3045
-38.5815
-44.7436
-8.25883
-8.84829
-9.46257
-10.1444
-10.8944
-11.7167
-12.6214
-13.6212
-14.7312
-15.9704
-17.3626
-18.9381
-20.735
-22.8008
-25.194
-27.9859
-31.2404
-34.9479
-39.2543
-45.4378
-8.51393
-9.11264
-9.73536
-10.4285
-11.1913
-12.0273
-12.9469
-13.9632
-15.0916
-16.3513
-17.7664
-19.3675
-21.193
-23.2907
-25.7189
-28.5481
-31.8412
-35.5857
-39.9203
-46.1245
-8.77017
-9.37715
-10.0076
-10.7117
-11.4868
-12.3361
-13.2703
-14.3028
-15.4493
-16.7291
-18.1668
-19.7933
-21.6471
-23.7763
-26.2389
-29.105
-32.4359
-36.2166
-40.5784
-46.8026
-9.02817
-9.642
-10.2792
-10.9936
-11.7805
-12.6426
-13.591
-14.6393
-15.8035
-17.1032
-18.5632
-20.2146
-22.0964
-24.2566
-26.7532
-29.6555
-33.0234
-36.8396
-41.2274
-47.471
-9.28861
-9.90715
-10.5497
-11.2736
-12.0717
-12.9461
-13.9082
-14.972
-16.1535
-17.4727
-18.9546
-20.6305
-22.5399
-24.7306
-27.2605
-30.1983
-33.6025
-37.4535
-41.8662
-48.1288
-9.55098
-10.1712
-10.8174
-11.5501
-12.359
-13.2453
-14.2209
-15.2998
-16.4983
-17.8366
-19.34
-21.0401
-22.9764
-25.1971
-27.7597
-30.7322
-34.1718
-38.0568
-42.4941
-48.7755
-9.81385
-10.4313
-11.0796
-11.8211
-12.641
-13.5393
-14.5281
-15.6218
-16.837
-18.1941
-19.7185
-21.4423
-23.4051
-25.6551
-28.2496
-31.2559
-34.7299
-38.6482
-43.1098
-49.4111
-10.069
-10.6786
-11.3303
-12.0834
-12.9156
-13.8261
-14.8282
-15.9368
-17.1685
-18.544
-20.089
-21.8359
-23.8246
-26.1032
-28.7288
-31.7678
-35.2751
-39.2257
-43.7124
-50.0373
-10.2963
-10.8939
-11.5653
-12.338
-13.1834
-14.1059
-15.1211
-16.2442
-17.492
-18.8855
-20.4507
-22.2202
-24.234
-26.5404
-29.1961
-32.2666
-35.8054
-39.7864
-44.2975
-50.6556
-1.44698
-1.70627
-2.06062
-2.45833
-2.88935
-3.3597
-3.87614
-4.4451
-5.0746
-5.77536
-6.56167
-7.45266
-8.47428
-9.66184
-11.0646
-12.7541
-14.8158
-17.3051
-20.5167
-25.9349
-1.58649
-1.86042
-2.23044
-2.6321
-3.06505
-3.53924
-4.06101
-4.63639
-5.27355
-5.98343
-6.78056
-7.68439
-8.72125
-9.92692
-11.3512
-13.066
-15.1567
-17.6773
-20.9172
-26.346
-1.71751
-2.01389
-2.39532
-2.80366
-3.24296
-3.72406
-4.25318
-4.83656
-5.4827
-6.20288
-7.01193
-7.92968
-8.98286
-10.2077
-11.6546
-13.3956
-15.516
-18.0677
-21.3352
-26.7692
-1.86828
-2.17447
-2.56293
-2.97874
-3.42589
-3.91509
-4.45268
-5.04518
-5.7014
-6.43292
-7.2549
-8.18754
-9.25802
-10.5031
-11.9734
-13.7416
-15.8925
-18.4766
-21.7748
-27.2231
-2.02942
-2.34179
-2.73692
-3.1604
-3.61568
-4.11339
-4.66007
-5.26245
-5.92959
-6.67333
-7.50913
-8.45758
-9.54628
-10.8125
-12.3073
-14.1037
-16.2862
-18.9042
-22.2356
-27.7046
-2.19567
-2.51557
-2.9178
-3.34905
-3.81266
-4.31929
-4.87561
-5.48852
-6.16729
-6.92401
-7.77446
-8.73958
-9.84742
-11.1357
-12.6561
-14.4817
-16.6971
-19.35
-22.7159
-28.2086
-2.36858
-2.69675
-3.10595
-3.54495
-4.01713
-4.53305
-5.09945
-5.72344
-6.41446
-7.18486
-8.05071
-9.03332
-10.1612
-11.4725
-13.0194
-14.8753
-17.1246
-19.8135
-23.2147
-28.7327
-2.54956
-2.88591
-3.30183
-3.74854
-4.22943
-4.75488
-5.33174
-5.96726
-6.67107
-7.45575
-8.33769
-9.33855
-10.4873
-11.8225
-13.3969
-15.2842
-17.5684
-20.2942
-23.7314
-29.2759
-2.73848
-3.08301
-3.50558
-3.95999
-4.44969
-4.98489
-5.57251
-6.21994
-6.93702
-7.73654
-8.6352
-9.65501
-10.8254
-12.1853
-13.7881
-15.7077
-18.0278
-20.7916
-24.2654
-29.8374
-2.93484
-3.28779
-3.71707
-4.17923
-4.67788
-5.22303
-5.82169
-6.4814
-7.21217
-8.02704
-8.943
-9.98244
-11.1751
-12.5607
-14.1927
-16.1455
-18.5024
-21.305
-24.816
-30.4162
-3.13828
-3.49998
-3.93605
-4.40606
-4.9138
-5.46913
-6.0791
-6.75142
-7.4963
-8.32701
-9.26082
-10.3205
-11.5362
-12.9482
-14.6102
-16.597
-18.9916
-21.8337
-25.3825
-31.0112
-3.34845
-3.71921
-4.1622
-4.64019
-5.1572
-5.72293
-6.34448
-7.02975
-7.78913
-8.63613
-9.58832
-10.6688
-11.9083
-13.3472
-15.0402
-17.0618
-19.4948
-22.3772
-25.9641
-31.6215
-3.56492
-3.94508
-4.39514
-4.88125
-5.40774
-5.9841
-6.61751
-7.31605
-8.09031
-8.95404
-9.92511
-11.027
-12.2908
-13.7575
-15.482
-17.5392
-20.0114
-22.9346
-26.5601
-32.2464
-3.78722
-4.1771
-4.6344
-5.12882
-5.66501
-6.25225
-6.89781
-7.60994
-8.39946
-9.28034
-10.2708
-11.3946
-12.6833
-14.1784
-15.9351
-18.0286
-20.5406
-23.5053
-27.1697
-32.885
-4.01483
-4.41475
-4.8795
-5.38245
-5.92856
-6.52694
-7.18493
-7.91098
-8.71611
-9.61456
-10.6248
-11.7711
-13.0853
-14.6094
-16.399
-18.5295
-21.0819
-24.0886
-27.7922
-33.5366
-4.24723
-4.65752
-5.12992
-5.64161
-6.19791
-6.80769
-7.4784
-8.21868
-9.03979
-9.9562
-10.9867
-12.1559
-13.4962
-15.0498
-16.873
-19.041
-21.6345
-24.6837
-28.4268
-34.2005
-4.48391
-4.90486
-5.38512
-5.9058
-6.47254
-7.09399
-7.77771
-8.53255
-9.36997
-10.3047
-11.3559
-12.5485
-13.9153
-15.4991
-17.3563
-19.5624
-22.1975
-25.2898
-29.073
-34.8763
-4.72434
-5.15623
-5.64457
-6.17448
-6.75193
-7.38533
-8.08234
-8.85204
-9.70611
-10.6596
-11.7318
-12.9483
-14.342
-15.9564
-17.8482
-20.093
-22.7701
-25.9059
-29.7298
-35.5637
-4.96802
-5.41108
-5.90772
-6.44711
-7.03554
-7.68116
-8.39174
-9.17659
-10.0476
-11.0201
-12.1139
-13.3545
-14.7757
-16.4211
-18.3479
-20.6317
-23.3513
-26.531
-30.3964
-36.2635
-5.21446
-5.66893
-6.17406
-6.7232
-7.32287
-7.98098
-8.70541
-9.5057
-10.394
-11.3859
-12.5014
-13.7666
-15.2156
-16.8925
-18.8546
-21.1778
-23.94
-27.1634
-31.0702
-36.9766
-1.21685
-1.03096
-0.895276
-0.775967
-0.672538
-0.582456
-0.504651
-0.438353
-0.383074
-0.338463
-0.304243
-0.280185
-0.266108
-0.261833
-0.267047
-0.281457
-0.3055
-0.339112
-0.381928
-0.433914
-1.55017
-1.38617
-1.24677
-1.12286
-1.01522
-0.921307
-0.840148
-0.770948
-0.713197
-0.666517
-0.630614
-0.605247
-0.590218
-0.585346
-0.590386
-0.605111
-0.629599
-0.663846
-0.70767
-0.760921
-1.89136
-1.73502
-1.59594
-1.47121
-1.36184
-1.26617
-1.18347
-1.11304
-1.05441
-1.0072
-0.971122
-0.945932
-0.931425
-0.927412
-0.933684
-0.950076
-0.976568
-1.01307
-1.05947
-1.11555
-2.28572
-2.12844
-1.987
-1.85986
-1.74747
-1.64884
-1.56344
-1.49071
-1.43021
-1.38158
-1.34454
-1.31884
-1.30426
-1.30061
-1.3077
-1.32535
-1.35352
-1.39206
-1.4408
-1.49962
-2.71817
-2.55941
-2.41493
-2.28462
-2.16874
-2.06675
-1.97826
-1.90282
-1.84007
-1.78968
-1.75136
-1.72488
-1.71001
-1.70654
-1.71429
-1.7331
-1.76285
-1.80339
-1.85454
-1.91618
-3.18748
-3.0266
-2.87899
-2.74527
-2.6258
-2.52034
-2.42865
-2.35041
-2.2853
-2.23303
-2.19334
-2.16601
-2.15079
-2.14751
-2.15595
-2.17596
-2.20739
-2.25006
-2.30378
-2.36848
-3.7004
-3.53606
-3.3847
-3.24711
-3.12372
-3.01451
-2.91937
-2.83806
-2.77036
-2.71601
-2.67478
-2.64643
-2.63077
-2.62758
-2.63667
-2.65787
-2.69102
-2.73591
-2.79237
-2.86032
-4.26423
-4.09507
-3.93902
-3.79682
-3.66893
-3.55547
-3.45643
-3.37166
-3.30099
-3.24421
-3.20112
-3.1715
-3.15516
-3.15188
-3.16149
-3.1838
-3.21863
-3.26578
-3.32504
-3.39633
-4.88716
-4.71189
-4.55004
-4.4023
-4.26913
-4.15073
-4.04716
-3.95836
-3.8842
-3.82452
-3.77913
-3.74786
-3.7305
-3.72687
-3.73676
-3.76001
-3.79641
-3.84575
-3.90782
-3.98257
-5.57982
-5.397
-5.22808
-5.07365
-4.93419
-4.80995
-4.70103
-4.60743
-4.52908
-4.46585
-4.41759
-4.38413
-4.36528
-4.36087
-4.3707
-4.39459
-4.43233
-4.4837
-4.54849
-4.62668
-6.3563
-6.16428
-5.98674
-5.82423
-5.67721
-5.54595
-5.43061
-5.33121
-5.24774
-5.1801
-5.12816
-5.09178
-5.07079
-5.065
-5.07423
-5.0983
-5.13699
-5.19007
-5.25733
-5.33879
-7.23548
-7.0323
-6.84432
-6.672
-6.5158
-6.37603
-6.25286
-6.14637
-6.05655
-5.98335
-5.92667
-5.88637
-5.8623
-5.85429
-5.86215
-5.88571
-5.92474
-5.97899
-6.04826
-6.1326
-8.24293
-8.02626
-7.82558
-7.64132
-7.47394
-7.32376
-7.19097
-7.07568
-6.97791
-6.89764
-6.83479
-6.78923
-6.76083
-6.74943
-6.75484
-6.77688
-6.81533
-6.86992
-6.94043
-7.02699
-9.41348
-9.1805
-8.9644
-8.76556
-8.58449
-8.4215
-8.27681
-8.15055
-8.04278
-7.95348
-7.88258
-7.82999
-7.79559
-7.7792
-7.78066
-7.79978
-7.83634
-7.89003
-7.96063
-8.04832
-10.7959
-10.5432
-10.3084
-10.0917
-9.89387
-9.7151
-9.55567
-9.41572
-9.29532
-9.19447
-9.11312
-9.05119
-9.00856
-8.98507
-8.98056
-8.99483
-9.02766
-9.07871
-9.14773
-9.23497
-12.4611
-12.1846
-11.9271
-11.6888
-11.4705
-11.2724
-11.0948
-10.9378
-10.8015
-10.686
-10.5912
-10.517
-10.4633
-10.43
-10.4169
-10.4237
-10.4504
-10.4964
-10.5616
-10.6462
-14.4939
-14.1894
-13.9049
-13.6409
-13.3981
-13.1769
-12.9774
-12.7998
-12.6442
-12.5106
-12.399
-12.3093
-12.2415
-12.1953
-12.1706
-12.1672
-12.185
-12.2235
-12.2826
-12.3621
-16.9504
-16.6142
-16.299
-16.0057
-15.7351
-15.4875
-15.263
-15.0618
-14.884
-14.7296
-14.5984
-14.4906
-14.406
-14.3444
-14.3059
-14.2901
-14.2969
-14.3261
-14.3774
-14.4496
-20.1277
-19.7557
-19.4054
-19.0793
-18.7777
-18.5008
-18.2484
-18.0206
-17.8172
-17.6382
-17.4837
-17.3536
-17.2477
-17.1661
-17.1085
-17.0747
-17.0647
-17.0786
-17.116
-17.1749
-25.4908
-25.0769
-24.6953
-24.3429
-24.0176
-23.7183
-23.4447
-23.1965
-22.9737
-22.7763
-22.6043
-22.4576
-22.3364
-22.2407
-22.1704
-22.1257
-22.1071
-22.1169
-22.1562
-22.2144
-0.494772
-0.564178
-0.642062
-0.72829
-0.822724
-0.925205
-1.03555
-1.15356
-1.27899
-1.41155
-1.55085
-1.69641
-1.84745
-2.00284
-2.16104
-2.31986
-2.47492
-2.61673
-2.72984
-2.83696
-0.823432
-0.894825
-0.974998
-1.06379
-1.16103
-1.26657
-1.38018
-1.50166
-1.63072
-1.76705
-1.91024
-2.05974
-2.21481
-2.37435
-2.53681
-2.70061
-2.86401
-3.01935
-3.15096
-3.29784
-1.18122
-1.25611
-1.34009
-1.43299
-1.53463
-1.64482
-1.76335
-1.88996
-2.02438
-2.16625
-2.31513
-2.47049
-2.63159
-2.79745
-2.96677
-3.13836
-3.31131
-3.48121
-3.64171
-3.82102
-1.56843
-1.64681
-1.73466
-1.83176
-1.93793
-2.05296
-2.17661
-2.30863
-2.4487
-2.59645
-2.75144
-2.91312
-3.08081
-3.25361
-3.43049
-3.61058
-3.7931
-3.97565
-4.15822
-4.36029
-1.98825
-2.0703
-2.1622
-2.26374
-2.37471
-2.49489
-2.62403
-2.76185
-2.90802
-3.06216
-3.22383
-3.39249
-3.56751
-3.74811
-3.9335
-4.12306
-4.31616
-4.51169
-4.71193
-4.9297
-2.44408
-2.53008
-2.62638
-2.73274
-2.84894
-2.97474
-3.10989
-3.25407
-3.40697
-3.5682
-3.73732
-3.91383
-4.09713
-4.28659
-4.4816
-4.68173
-4.88657
-5.09582
-5.31205
-5.54301
-2.93967
-3.02992
-3.13094
-3.2425
-3.36437
-3.49629
-3.63798
-3.78916
-3.94948
-4.11855
-4.29597
-4.48124
-4.67386
-4.87328
-5.07903
-5.29081
-5.5084
-5.73196
-5.9636
-6.20779
-3.47967
-3.57441
-3.68048
-3.79761
-3.92556
-4.06409
-4.2129
-4.37169
-4.54013
-4.71784
-4.90442
-5.09943
-5.3024
-5.51289
-5.73051
-5.95504
-6.18638
-6.42483
-6.67194
-6.93024
-4.06998
-4.16942
-4.28079
-4.40382
-4.53826
-4.68385
-4.84032
-5.00735
-5.18461
-5.37175
-5.56838
-5.77408
-5.98845
-6.2111
-6.4417
-6.68009
-6.9262
-7.18031
-7.44344
-7.71706
-4.71821
-4.82248
-4.93936
-5.0685
-5.20975
-5.36281
-5.52741
-5.70326
-5.89001
-6.08732
-6.29483
-6.51216
-6.73892
-6.97478
-7.21946
-7.47279
-7.7347
-8.00539
-8.28544
-8.57574
-5.43438
-5.54332
-5.66605
-5.8013
-5.9495
-6.11032
-6.28344
-6.46857
-6.66536
-6.8735
-7.09264
-7.32242
-7.56249
-7.81254
-8.0723
-8.34161
-8.62037
-8.90862
-9.20666
-9.51507
-6.23202
-6.34545
-6.47278
-6.61509
-6.77028
-6.93891
-7.12074
-7.31544
-7.52267
-7.74214
-7.97349
-8.2164
-8.47054
-8.7356
-9.01133
-9.29754
-9.59409
-9.90089
-10.218
-10.5459
-7.12963
-7.24718
-7.37959
-7.52668
-7.68955
-7.86577
-8.0562
-8.26052
-8.47836
-8.70939
-8.95328
-9.20975
-9.47845
-9.75911
-10.0515
-10.3553
-10.6705
-10.9967
-11.3339
-11.6824
-8.15317
-8.27386
-8.41059
-8.56287
-8.73055
-8.91472
-9.11355
-9.32732
-9.55539
-9.79772
-10.054
-10.3241
-10.6075
-10.9041
-11.2134
-11.5353
-11.8695
-12.2157
-12.5737
-12.9439
-9.34049
-9.46277
-9.60225
-9.75857
-9.93136
-10.1206
-10.3269
-10.5501
-10.787
-11.0398
-11.308
-11.5912
-11.8892
-12.2014
-12.5276
-12.8675
-13.2209
-13.5872
-13.9663
-14.3584
-10.7502
-10.8719
-11.0119
-11.1701
-11.3463
-11.54
-11.7509
-11.9783
-12.2249
-12.4881
-12.7676
-13.0633
-13.375
-13.7018
-14.0437
-14.4006
-14.7724
-15.1583
-15.558
-15.9716
-12.4617
-12.58
-12.718
-12.8755
-13.0523
-13.2482
-13.4629
-13.6959
-13.9477
-14.2184
-14.5078
-14.8137
-15.1362
-15.474
-15.8289
-16.2009
-16.5893
-16.9934
-17.4123
-17.8459
-14.5406
-14.6524
-14.7844
-14.937
-15.1101
-15.3038
-15.5177
-15.7515
-16.0047
-16.2766
-16.567
-16.8775
-17.2076
-17.5585
-17.9275
-18.314
-18.7178
-19.1386
-19.5753
-20.027
-17.2534
-17.3508
-17.4707
-17.6141
-17.7802
-17.9686
-18.1787
-18.4103
-18.663
-18.9361
-19.2292
-19.5423
-19.8756
-20.2296
-20.6037
-20.9974
-21.4106
-21.8441
-22.2977
-22.7664
-22.2659
-22.345
-22.4524
-22.5859
-22.744
-22.9254
-23.1297
-23.3563
-23.6048
-23.875
-24.1665
-24.4794
-24.8139
-25.1701
-25.548
-25.9476
-26.3701
-26.8194
-27.2981
-27.7881
-28.2447
-23.242
-20.4931
-18.2944
-16.3994
-14.7636
-13.3262
-12.0424
-10.8846
-9.83385
-8.8763
-8.00122
-7.2
-6.46545
-5.79146
-5.17262
-4.60278
-4.07564
-3.59909
-3.19932
-28.7258
-23.7306
-20.9719
-18.7551
-16.8386
-15.1797
-13.7188
-12.4121
-11.2325
-10.1615
-9.1855
-8.29388
-7.47817
-6.73129
-6.04729
-5.42084
-4.84635
-4.32084
-3.85671
-3.45964
-29.2325
-24.2349
-21.4649
-19.2289
-17.2899
-15.6069
-14.1216
-12.7912
-11.5892
-10.4975
-9.50257
-8.59403
-7.76341
-7.00366
-6.30879
-5.67337
-5.09196
-4.56172
-4.09157
-3.67657
-29.7607
-24.7561
-21.9721
-19.7157
-17.7529
-16.0447
-14.5341
-13.1792
-11.9541
-10.841
-9.82658
-8.90048
-8.05421
-7.2806
-6.57343
-5.92705
-5.3358
-4.79621
-4.3144
-3.88215
-30.3073
-25.293
-22.4933
-20.2151
-18.2272
-16.4926
-14.9558
-13.5755
-12.3265
-11.1913
-10.1568
-9.21253
-8.34992
-7.56162
-6.84121
-6.18272
-5.58023
-5.02971
-4.53549
-4.0885
-30.8704
-25.8451
-23.028
-20.7267
-18.7122
-16.95
-15.3859
-13.9795
-12.7059
-11.548
-10.4927
-9.52967
-8.65011
-7.84652
-7.11221
-6.44097
-5.82668
-5.26496
-4.75884
-4.29916
-31.4489
-26.4122
-23.5747
-21.2495
-19.2072
-17.4163
-15.824
-14.3905
-13.0916
-11.9104
-10.8339
-9.85154
-8.95461
-8.13534
-7.3868
-6.70259
-6.07643
-5.50373
-4.98642
-4.51544
-32.0421
-26.9939
-24.1323
-21.7827
-19.7116
-17.8908
-16.2693
-14.8081
-13.4832
-12.2781
-11.1798
-10.1779
-9.26326
-8.42806
-7.66516
-6.96794
-6.33003
-5.74666
-5.21875
-4.73738
-32.649
-27.5884
-24.7009
-22.3255
-20.2245
-18.3729
-16.7213
-15.2315
-13.8801
-12.6506
-11.5302
-10.5083
-9.57585
-8.72461
-7.9473
-7.23714
-6.58764
-5.99385
-5.45576
-4.96461
-33.2687
-28.1943
-25.2798
-22.8772
-20.7452
-18.8618
-17.1793
-15.6603
-14.2817
-13.0274
-11.8846
-10.8426
-9.8921
-9.02476
-8.23306
-7.51003
-6.84908
-6.24505
-5.69706
-5.19651
-33.9001
-28.8107
-25.8684
-23.4371
-21.2731
-19.3569
-17.6427
-16.0937
-14.6875
-13.4081
-12.2426
-11.1803
-10.2117
-9.32819
-8.52213
-7.78631
-7.114
-6.49985
-5.94211
-5.43242
-34.5423
-29.4366
-26.4656
-24.0043
-21.8071
-19.8573
-18.1106
-16.5312
-15.0969
-13.792
-12.6037
-11.5209
-10.5341
-9.6345
-8.81411
-8.06555
-7.38195
-6.75772
-6.19032
-5.67164
-35.1943
-30.0711
-27.0705
-24.578
-22.3466
-20.3622
-18.5825
-16.972
-15.5093
-14.1786
-12.9672
-11.8639
-10.8589
-9.94319
-9.10851
-8.34726
-7.65241
-7.01812
-6.4411
-5.91354
-35.8552
-30.7133
-27.6822
-25.1572
-22.8906
-20.8709
-19.0574
-17.4155
-15.9239
-14.5673
-13.3327
-12.2088
-11.1856
-10.2538
-9.40483
-8.63092
-7.92483
-7.28047
-6.69383
-6.15749
-36.5242
-31.3621
-28.2995
-25.741
-23.4382
-21.3825
-19.5346
-17.8608
-16.3401
-14.9574
-13.6995
-12.555
-11.5136
-10.5657
-9.70251
-8.91598
-8.19868
-7.54423
-6.94797
-6.40292
-37.2003
-32.0164
-28.9215
-26.3284
-23.9885
-21.896
-20.0132
-18.3071
-16.7572
-15.3482
-14.0669
-12.9018
-11.8423
-10.8783
-10.001
-9.2019
-8.4734
-7.80885
-7.20294
-6.64929
-37.8833
-32.6753
-29.547
-26.9183
-24.5405
-22.4105
-20.4924
-18.7537
-17.1743
-15.7389
-14.4344
-13.2487
-12.1711
-11.1912
-10.2998
-9.48813
-8.74845
-8.07378
-7.45824
-6.89607
-38.5749
-33.3387
-30.1748
-27.5093
-25.0927
-22.9248
-20.971
-19.1996
-17.5906
-16.1289
-14.8011
-13.595
-12.4993
-11.5036
-10.5982
-9.77408
-9.02328
-8.33851
-7.71334
-7.1428
-39.2754
-34.0054
-30.803
-28.0998
-25.6442
-23.4381
-21.4483
-19.644
-18.0054
-16.5174
-15.1664
-13.94
-12.8264
-11.815
-10.8957
-10.0592
-9.29736
-8.60252
-7.96777
-7.38903
-39.9722
-34.6707
-31.4304
-28.6892
-26.1945
-23.9499
-21.924
-20.0866
-18.4185
-16.9042
-15.5301
-14.2834
-13.1521
-12.1251
-11.1919
-10.3432
-9.57033
-8.86543
-8.22114
-7.63439
-6.19237
-4.26237
-3.04128
-2.11538
-1.47865
-1.01469
-0.685909
-0.454331
-0.294942
-0.188373
-0.12045
-0.0801763
-0.0595421
-0.0524187
-0.054362
-0.0620686
-0.073157
-0.0859112
-0.0990997
-0.111869
-0.12359
-0.133841
-0.142258
-0.148577
-0.152515
-0.153775
-0.152148
-0.147188
-0.139049
-0.127124
-0.112333
-0.0942141
-0.0745544
-0.0539673
-0.0335203
-0.0174568
-0.00115476
0.00222827
0.0130495
-0.00701408
-6.4253
-4.42809
-3.1759
-2.2214
-1.56289
-1.08297
-0.741673
-0.500448
-0.333409
-0.220678
-0.147727
-0.103278
-0.0791454
-0.0690611
-0.0684827
-0.0740323
-0.083271
-0.0944366
-0.106261
-0.11786
-0.128579
-0.137973
-0.145661
-0.151361
-0.154774
-0.155593