/*--------------------------------*- C++ -*----------------------------------*\
| =========                 |                                                 |
| \\      /  F ield         | OpenFOAM: The Open Source CFD Toolbox           |
|  \\    /   O peration     | Version:  v1912                                 |
|   \\  /    A nd           | Website:  www.openfoam.com                      |
|    \\/     M anipulation  |                                                 |
\*---------------------------------------------------------------------------*/
FoamFile
{
    version     2.0;
    format      ascii;
    class       volVectorField;
    location    "15";
    object      U;
}
// * * * * * * * * * * * * * * * * * * * * * * * * * * * * * * * * * * * * * //

dimensions      [0 1 -1 0 0 0 0];


internalField   nonuniform List<vector> 
9600
(
(0.457628 -9.39961 -1.50913e-19)
(0.156963 -8.69821 0)
(0.231624 -8.22637 -8.78719e-20)
(0.300582 -7.89401 0)
(0.35807 -7.63876 0)
(0.416784 -7.42141 -3.0518e-20)
(0.473086 -7.22033 -4.62699e-22)
(0.524129 -7.02458 2.52638e-20)
(0.569263 -6.82942 0)
(0.608537 -6.6336 -4.26604e-20)
(0.6423 -6.43769 0)
(0.671105 -6.24308 -1.74607e-21)
(0.695599 -6.05135 -2.5394e-21)
(0.716444 -5.86396 -2.94951e-20)
(0.734276 -5.6821 2.47311e-20)
(0.749667 -5.50651 -2.42975e-20)
(0.763095 -5.3375 2.15366e-20)
(0.775054 -5.17487 0)
(0.78629 -5.0178 -1.7042e-20)
(0.796421 -4.86487 1.87489e-20)
(0.826862 -9.38703 -3.01077e-19)
(0.50158 -8.72099 1.18676e-20)
(0.559331 -8.26337 1.81102e-19)
(0.616245 -7.93938 -1.53215e-19)
(0.66401 -7.68825 1.51101e-19)
(0.713959 -7.47139 0)
(0.761727 -7.26836 5.80381e-20)
(0.804156 -7.06919 -5.77731e-20)
(0.840523 -6.86984 -9.9808e-20)
(0.870925 -6.66957 1.25464e-19)
(0.895807 -6.4693 -8.13944e-20)
(0.915829 -6.27063 -3.29424e-20)
(0.931733 -6.07528 6.66447e-20)
(0.944261 -5.88477 0)
(0.954101 -5.70029 0)
(0.961857 -5.52261 9.23729e-20)
(0.968012 -5.352 -1.56521e-19)
(0.973074 -5.18819 0)
(0.977866 -5.03025 0)
(0.981743 -4.87667 -7.20318e-20)
(1.19627 -9.36084 6.21758e-19)
(0.848061 -8.73083 0)
(0.89004 -8.28765 -3.64884e-19)
(0.935579 -7.97223 -3.29419e-19)
(0.973898 -7.72528 0)
(1.01507 -7.50897 5.22116e-19)
(1.05411 -7.30408 -4.92011e-19)
(1.08763 -7.10164 9.59306e-20)
(1.11487 -6.89833 -2.13584e-19)
(1.13604 -6.6939 -3.53167e-19)
(1.1517 -6.48962 4.8041e-19)
(1.16262 -6.28728 -2.96292e-19)
(1.16967 -6.08872 -1.32249e-19)
(1.17365 -5.8955 0)
(1.17531 -5.70883 5.21555e-21)
(1.17529 -5.52946 9.74656e-20)
(1.17407 -5.35763 4.18716e-20)
(1.17216 -5.19303 0)
(1.17047 -5.03461 7.57926e-20)
(1.168 -4.88078 7.78058e-20)
(1.56473 -9.32068 -8.39981e-19)
(1.19581 -8.72747 -3.91125e-19)
(1.2232 -8.29906 3.80018e-19)
(1.25803 -7.9923 6.47784e-19)
(1.28718 -7.74956 -3.13973e-19)
(1.31956 -7.53383 5.12072e-21)
(1.34966 -7.32718 2.41672e-19)
(1.37395 -7.12166 2.18112e-19)
(1.39173 -6.91466 3.97821e-19)
(1.40332 -6.70641 0)
(1.40942 -6.49851 1.51713e-19)
(1.41097 -6.29292 -1.61511e-19)
(1.40891 -6.09158 1.00072e-20)
(1.40414 -5.89608 2.52878e-19)
(1.39747 -5.70764 2.15566e-19)
(1.38955 -5.52699 -3.0405e-19)
(1.38087 -5.35435 1.00095e-19)
(1.37196 -5.18935 -1.62152e-19)
(1.36377 -5.03083 1.6135e-19)
(1.3549 -4.87718 -7.78363e-20)
(1.93195 -9.26652 4.23278e-19)
(1.54454 -8.71082 0)
(1.55842 -8.29739 3.71503e-19)
(1.58311 -7.99932 0)
(1.60331 -7.76078 0)
(1.62684 -7.54568 -2.86916e-19)
(1.64778 -7.33738 -5.10998e-19)
(1.66254 -7.129 -4.30795e-19)
(1.67052 -6.9186 1.8152e-20)
(1.67219 -6.70691 -1.85131e-19)
(1.66844 -6.4958 0)
(1.66033 -6.28741 -1.51958e-19)
(1.64894 -6.08374 -2.73098e-19)
(1.63526 -5.88643 2.39224e-19)
(1.62012 -5.69665 -6.79022e-19)
(1.60421 -5.51514 1.09913e-19)
(1.58801 -5.3421 8.65337e-20)
(1.57209 -5.17709 -1.78582e-19)
(1.55741 -5.01885 -7.78129e-20)
(1.54213 -4.86582 2.32174e-19)
(2.29737 -9.19826 4.06614e-19)
(1.89376 -8.68065 4.0046e-19)
(1.89518 -8.28239 0)
(1.91028 -7.99301 0)
(1.92172 -7.75866 -5.95809e-19)
(1.93632 -7.54422 3.2724e-19)
(1.94788 -7.33444 7.8055e-19)
(1.95279 -7.12343 0)
(1.95063 -6.90998 2.04716e-19)
(1.94207 -6.69525 1.85131e-19)
(1.92817 -6.48138 -3.25463e-19)
(1.91018 -6.27066 4.71815e-19)
(1.88927 -6.06515 1.37967e-19)
(1.86651 -5.86648 0)
(1.8428 -5.67582 1.14262e-19)
(1.81883 -5.49388 5.11176e-19)
(1.79509 -5.32084 -3.04596e-19)
(1.77216 -5.15622 3.40825e-19)
(1.75105 -4.99866 -6.47586e-19)
(1.72936 -4.84668 7.49765e-19)
(2.66046 -9.11591 4.12935e-19)
(2.24297 -8.63682 -2.18221e-18)
(2.23297 -8.25384 0)
(2.23898 -7.97311 0)
(2.24181 -7.74293 0)
(2.24739 -7.52923 -5.75761e-19)
(2.24931 -7.31813 0)
(2.24408 -7.10479 -9.16238e-19)
(2.23146 -6.88865 8.43447e-19)
(2.21236 -6.67131 -7.81291e-19)
(2.18806 -6.45515 0)
(2.15997 -6.2426 0)
(2.12937 -6.03574 0)
(2.09742 -5.8362 -2.61246e-19)
(2.06505 -5.64513 0)
(2.03298 -5.4632 0)
(2.00169 -5.29057 -3.80687e-19)
(1.97178 -5.12674 3.74037e-19)
(1.94428 -4.97023 0)
(1.91623 -4.81976 0)
(3.02069 -9.01948 -1.34391e-18)
(2.59163 -8.57919 8.67694e-19)
(2.57122 -8.21154 0)
(2.56861 -7.93941 0)
(2.56298 -7.71337 0)
(2.55942 -7.50049 5.47084e-19)
(2.55145 -7.28827 -5.48083e-19)
(2.53576 -7.0729 -7.90473e-21)
(2.51237 -6.85448 -8.42744e-19)
(2.48246 -6.635 7.8826e-19)
(2.44753 -6.41707 -3.54096e-19)
(2.40914 -6.2032 6.13529e-19)
(2.36872 -5.9955 -4.46404e-20)
(2.32748 -5.79559 -5.53479e-19)
(2.2864 -5.60457 -4.64489e-19)
(2.2462 -5.42309 4.56346e-19)
(2.20736 -5.25129 0)
(2.17052 -5.08864 0)
(2.13673 -4.93358 3.27893e-19)
(2.10238 -4.78507 -3.61824e-19)
(3.37751 -8.90903 8.98034e-19)
(2.93918 -8.50766 8.49242e-19)
(2.90937 -8.15532 -1.60681e-18)
(2.89859 -7.8917 7.57531e-19)
(2.88457 -7.66978 0)
(2.87174 -7.45781 5.85314e-19)
(2.85363 -7.24471 -5.11075e-19)
(2.82719 -7.02766 1.44234e-18)
(2.79275 -6.80739 -2.28002e-20)
(2.75176 -6.58626 0)
(2.70599 -6.36708 7.1418e-19)
(2.65715 -6.15243 0)
(2.60678 -5.94444 0)
(2.55618 -5.74466 -2.52199e-19)
(2.50635 -5.55417 5.09364e-19)
(2.45802 -5.37357 0)
(2.41166 -5.20302 3.97197e-19)
(2.36795 -5.04194 1.64584e-19)
(2.32797 -4.88871 -3.58186e-19)
(2.28743 -4.74263 3.47882e-19)
(3.73034 -8.78463 -9.22717e-19)
(3.28506 -8.42215 8.62033e-19)
(3.24681 -8.08503 -2.45014e-18)
(3.22826 -7.8298 7.69177e-19)
(3.20594 -7.61198 0)
(3.18369 -7.40105 -1.17832e-18)
(3.15519 -7.18732 5.6575e-19)
(3.11771 -6.96897 0)
(3.07194 -6.74732 -4.4552e-19)
(3.01966 -6.52506 -7.69839e-19)
(2.96285 -6.30518 -6.67951e-19)
(2.90343 -6.09032 5.14504e-20)
(2.84304 -5.88256 6.24191e-19)
(2.78302 -5.68344 2.5201e-19)
(2.72442 -5.49395 -3.61292e-20)
(2.66797 -5.31469 -4.74021e-19)
(2.61413 -5.1458 -2.11409e-19)
(2.56363 -4.98667 -1.90315e-19)
(2.51758 -4.83567 5.06557e-19)
(2.47098 -4.69247 -7.56827e-19)
(4.07866 -8.64637 9.2272e-19)
(3.62868 -8.32262 -4.58387e-20)
(3.58294 -8.00055 7.85096e-19)
(3.557 -7.75359 0)
(3.52641 -7.53985 -6.4573e-19)
(3.4946 -7.3301 1.24001e-18)
(3.45545 -7.11604 -1.05388e-18)
(3.40666 -6.8968 1.03709e-18)
(3.34932 -6.67425 -4.17035e-19)
(3.28552 -6.45141 8.48115e-19)
(3.21753 -6.2314 3.65896e-19)
(3.14742 -6.01688 0)
(3.07694 -5.80992 0)
(3.00749 -5.61196 -2.61127e-19)
(2.94012 -5.42397 3.64819e-20)
(2.87557 -5.24649 9.32406e-19)
(2.81431 -5.07966 -2.30639e-19)
(2.75709 -4.92288 7.58869e-19)
(2.70507 -4.77447 1.31854e-19)
(2.65257 -4.63463 -7.72913e-19)
(4.42189 -8.49438 -2.83364e-18)
(3.96946 -8.20906 -9.45447e-19)
(3.91713 -7.90183 -2.51534e-18)
(3.88415 -7.66297 -1.52428e-18)
(3.84532 -7.4533 -7.21289e-19)
(3.80377 -7.24489 -7.04613e-19)
(3.75374 -7.03081 -2.28683e-18)
(3.69338 -6.81111 -4.71081e-20)
(3.62423 -6.58818 -1.82602e-18)
(3.54875 -6.36533 2.97175e-20)
(3.46945 -6.14576 -7.53858e-19)
(3.38857 -5.93217 -6.85301e-19)
(3.30797 -5.72656 6.24181e-19)
(3.22907 -5.5303 -5.69633e-19)
(3.15296 -5.34429 -5.20873e-19)
(3.08034 -5.16903 -4.77206e-19)
(3.01169 -5.00467 -1.27875e-18)
(2.94784 -4.85061 4.55599e-19)
(2.88999 -4.70516 1.10175e-18)
(2.83177 -4.56915 -1.17429e-18)
(4.75951 -8.32881 3.80895e-18)
(4.30682 -8.08149 4.65497e-18)
(4.24876 -7.7888 7.96125e-19)
(4.20904 -7.55786 3.80418e-18)
(4.16198 -7.35226 -7.43441e-19)
(4.11052 -7.14538 3.70058e-18)
(4.04936 -6.93163 1.07787e-18)
(3.9772 -6.71193 3.02112e-18)
(3.89605 -6.48917 -9.21813e-19)
(3.80873 -6.26687 2.54531e-18)
(3.71802 -6.04834 1.51811e-18)
(3.62633 -5.83626 1.38024e-18)
(3.53558 -5.63255 -1.86393e-18)
(3.44726 -5.43852 1.74368e-18)
(3.36242 -5.25497 1.04968e-18)
(3.28178 -5.08237 9.61926e-19)
(3.2058 -4.92088 8.83153e-19)
(3.13539 -4.76991 6.79308e-21)
(3.07182 -4.62779 7.47764e-19)
(3.00811 -4.49606 7.79118e-19)
(5.091 -8.14984 -2.82468e-18)
(4.64019 -7.93997 1.0373e-18)
(4.57721 -7.66146 2.55256e-18)
(4.53102 -7.43823 -3.10259e-18)
(4.47569 -7.23671 7.167e-19)
(4.41415 -7.03157 -2.47384e-18)
(4.34164 -6.81852 1.2106e-18)
(4.25747 -6.59931 -2.02008e-18)
(4.16415 -6.37726 4.70569e-20)
(4.06487 -6.15611 1.07693e-20)
(3.96269 -5.93922 -1.53841e-18)
(3.86015 -5.72922 -6.94939e-19)
(3.75927 -5.52797 1.27488e-18)
(3.66154 -5.33669 7.99194e-21)
(3.56801 -5.15608 -3.52001e-20)
(3.47939 -4.98657 -1.00478e-18)
(3.39612 -4.82834 -4.45147e-19)
(3.3192 -4.68082 -2.54205e-20)
(3.25003 -4.54239 -7.79825e-19)
(3.18105 -4.41548 -3.9345e-19)
(5.41587 -7.95766 0)
(4.96901 -7.78456 -1.91414e-18)
(4.90186 -7.51981 2.12154e-20)
(4.8494 -7.30409 3.09196e-18)
(4.78577 -7.10667 1.28712e-18)
(4.71397 -6.90351 -1.34201e-18)
(4.62991 -6.69156 -1.15123e-18)
(4.53354 -6.47335 0)
(4.4279 -6.25258 -9.10056e-19)
(4.31659 -6.03317 8.6745e-19)
(4.20289 -5.8185 -3.72637e-20)
(4.08951 -5.61115 0)
(3.97852 -5.41291 -6.41715e-19)
(3.87141 -5.22487 5.53699e-19)
(3.76923 -5.04766 4.60828e-19)
(3.67264 -4.88166 -5.5908e-19)
(3.58208 -4.72706 -4.83714e-19)
(3.49866 -4.58333 8.37807e-19)
(3.42391 -4.44896 -7.72371e-19)
(3.3498 -4.32743 4.07008e-19)
(5.73365 -7.75246 2.91183e-18)
(5.29272 -7.61536 -1.97009e-18)
(5.22206 -7.3639 -1.67206e-18)
(5.16352 -7.15548 7.75551e-19)
(5.09152 -6.96221 -1.50513e-18)
(5.00931 -6.76129 0)
(4.9135 -6.55085 0)
(4.80478 -6.33416 0)
(4.68672 -6.11525 -4.2509e-20)
(4.56332 -5.89817 -1.74035e-18)
(4.43811 -5.68631 8.20926e-19)
(4.31392 -5.48218 6.91278e-19)
(4.19287 -5.28746 5.82518e-19)
(4.07645 -5.10314 -2.39378e-18)
(3.96565 -4.92976 1.13381e-18)
(3.86109 -4.76765 0)
(3.76321 -4.61701 -2.85453e-20)
(3.67319 -4.47737 -1.3001e-18)
(3.59271 -4.34741 -5.31309e-21)
(3.51349 -4.23159 -4.07402e-19)
(6.04399 -7.53451 -1.98179e-18)
(5.61079 -7.43251 -1.03816e-18)
(5.53716 -7.19381 7.74438e-19)
(5.4727 -6.99246 -1.41814e-19)
(5.39226 -6.8034 -4.37765e-18)
(5.29946 -6.60501 3.9501e-18)
(5.19174 -6.39654 -4.79895e-20)
(5.07054 -6.1819 1.07577e-18)
(4.94001 -5.96544 9.63147e-19)
(4.80452 -5.75129 8.81981e-19)
(4.66784 -5.5428 8.00818e-19)
(4.53291 -5.34242 1.4276e-18)
(4.40188 -5.15172 -6.86823e-19)
(4.27622 -4.97158 1.77439e-18)
(4.15687 -4.80245 -1.14681e-18)
(4.04438 -4.64461 -4.72702e-19)
(3.93917 -4.49828 1.89938e-18)
(3.84246 -4.36304 1.26681e-18)
(3.75616 -4.23762 -2.6117e-20)
(3.67205 -4.12734 0)
(6.34689 -7.30432 -1.00658e-18)
(5.92286 -7.2362 1.9816e-18)
(5.84655 -7.00959 1.72557e-18)
(5.77622 -6.8151 -1.43579e-19)
(5.68727 -6.63034 -1.48455e-18)
(5.58373 -6.43481 6.84014e-20)
(5.46397 -6.22879 1.18697e-20)
(5.33022 -6.01677 1.0602e-20)
(5.18721 -5.80335 0)
(5.03967 -5.5927 8.61396e-19)
(4.89159 -5.38814 -1.63911e-18)
(4.74602 -5.192 -6.98995e-19)
(4.60511 -5.00576 6.93827e-19)
(4.47027 -4.8302 -6.07143e-19)
(4.3424 -4.66571 5.61443e-19)
(4.22199 -4.51254 -5.10359e-19)
(4.10943 -4.37093 4.59379e-21)
(4.00609 -4.24036 -4.32569e-19)
(3.9142 -4.11951 -3.9922e-19)
(3.82593 -4.0154 -3.99843e-19)
(6.64269 -7.06237 0)
(6.22869 -7.02637 -9.63644e-19)
(6.14959 -6.81118 9.52587e-19)
(6.07337 -6.62347 1.65319e-18)
(5.97583 -6.44322 -1.49149e-18)
(5.86144 -6.25094 1.28344e-18)
(5.72955 -6.04788 -2.46632e-18)
(5.58323 -5.83906 -2.18283e-18)
(5.42778 -5.62927 -9.48926e-19)
(5.2683 -5.42269 4.24408e-20)
(5.10898 -5.22256 -7.82419e-19)
(4.9529 -5.0311 3.31962e-20)
(4.80221 -4.84967 0)
(4.65823 -4.67896 -1.1901e-18)
(4.52173 -4.51932 6.07804e-19)
(4.3931 -4.37102 0)
(4.27277 -4.23424 -4.74043e-19)
(4.16229 -4.10823 -8.51113e-19)
(4.0639 -3.99258 8.36304e-19)
(3.9705 -3.89892 4.1287e-19)
(6.93101 -6.80788 0)
(6.52769 -6.80232 0)
(6.44561 -6.59851 -1.7602e-18)
(6.36342 -6.41786 -1.50622e-18)
(6.25729 -6.24241 3.06034e-18)
(6.13199 -6.05381 0)
(5.98795 -5.85424 0)
(5.82909 -5.6492 1.09645e-18)
(5.66131 -5.44362 0)
(5.49007 -5.24165 0)
(5.31972 -5.04642 0)
(5.15341 -4.86002 0)
(4.99319 -4.68365 0)
(4.84025 -4.5179 0)
(4.69513 -4.36303 0)
(4.55797 -4.21924 0)
(4.42904 -4.08644 0)
(4.30937 -3.96408 0)
(4.19922 -3.85493 0)
(4.09296 -3.77503 0)
(10.0102 0.0874791 1.40403e-19)
(9.99095 -0.30664 2.72901e-19)
(9.95644 -0.698189 -2.80577e-19)
(9.90731 -1.08702 5.59487e-19)
(9.84324 -1.4728 -5.59487e-19)
(9.76409 -1.85504 -5.27641e-19)
(9.66996 -2.23319 -5.26235e-19)
(9.56107 -2.60671 1.66127e-18)
(9.43763 -2.97506 -1.10686e-18)
(9.2999 -3.33768 1.09803e-18)
(9.14815 -3.69403 -1.09803e-18)
(8.98268 -4.04358 1.09032e-18)
(8.80382 -4.38581 -2.16315e-18)
(8.6119 -4.72022 3.18341e-18)
(8.4073 -5.04633 0)
(8.19038 -5.36368 -3.13056e-18)
(7.96155 -5.67187 1.47179e-20)
(7.7213 -5.97053 3.15897e-18)
(7.46975 -6.2595 0)
(7.20855 -6.53811 0)
(10.0304 -0.211445 0)
(9.99128 -0.604222 -1.48137e-20)
(9.9356 -0.993377 0)
(9.86403 -1.37858 5.32167e-19)
(9.7768 -1.75942 5.55027e-19)
(9.67407 -2.13531 -1.60434e-18)
(9.55612 -2.50564 2.79866e-18)
(9.42329 -2.86979 -1.1043e-18)
(9.27595 -3.22717 -1.05137e-18)
(9.11445 -3.57721 -1.04726e-18)
(8.93921 -3.91935 4.39957e-20)
(8.75064 -4.25305 1.07546e-18)
(8.54919 -4.57779 -5.3443e-18)
(8.33532 -4.89309 -1.12493e-18)
(8.10951 -5.19848 2.13707e-18)
(7.87225 -5.49355 2.13662e-18)
(7.62399 -5.77792 1.08732e-18)
(7.3653 -6.05124 -2.09322e-18)
(7.09626 -6.31327 9.9036e-19)
(6.81779 -6.56368 0)
(9.94002 -0.151613 1.25488e-19)
(9.90433 -0.538459 -2.57181e-19)
(9.85156 -0.922305 7.41831e-19)
(9.78211 -1.30248 -5.26558e-19)
(9.69637 -1.67834 -5.01321e-19)
(9.59466 -2.04922 5.24282e-19)
(9.47734 -2.41441 0)
(9.34479 -2.77323 0)
(9.19741 -3.12503 1.98873e-18)
(9.03564 -3.4692 2.96717e-18)
(8.85992 -3.80513 -9.36785e-19)
(8.67072 -4.13224 2.9348e-18)
(8.46855 -4.44998 -9.32995e-19)
(8.25391 -4.75785 -2.85884e-18)
(8.02733 -5.05533 1.23106e-20)
(7.78936 -5.34199 1.83353e-18)
(7.54051 -5.61739 -8.25075e-19)
(7.28133 -5.88114 -1.80586e-18)
(7.01215 -6.13288 -9.79e-19)
(6.73365 -6.37209 1.77632e-18)
(9.74594 -0.116481 0)
(9.71651 -0.493134 2.15855e-19)
(9.67017 -0.867592 2.14893e-19)
(9.60712 -1.23897 -8.83682e-19)
(9.52768 -1.6065 0)
(9.43217 -1.96942 0)
(9.32093 -2.32702 0)
(9.19433 -2.67855 0)
(9.05276 -3.02334 -9.37322e-19)
(8.89664 -3.36072 -9.33898e-19)
(8.72642 -3.69004 0)
(8.54259 -4.01068 1.76389e-18)
(8.34565 -4.32207 -4.36046e-18)
(8.13613 -4.62363 3.50796e-18)
(7.91457 -4.91484 -3.39895e-18)
(7.68152 -5.1952 -8.24933e-19)
(7.43754 -5.46423 1.52979e-19)
(7.18321 -5.72147 1.51562e-19)
(6.91901 -5.96649 -1.6833e-18)
(6.64564 -6.19879 -7.03632e-20)
(9.47575 -0.103484 0)
(9.45309 -0.467397 -2.12881e-19)
(9.41397 -0.82972 0)
(9.3585 -1.18957 4.25881e-19)
(9.2869 -1.54614 4.05472e-19)
(9.19944 -1.89866 3.69865e-19)
(9.09642 -2.24638 0)
(8.97816 -2.58859 0)
(8.84502 -2.92455 0)
(8.69739 -3.25358 0)
(8.5357 -3.57502 7.65211e-19)
(8.3604 -3.88822 8.26485e-19)
(8.17199 -4.19256 8.22343e-19)
(7.97096 -4.48746 -8.34467e-19)
(7.75787 -4.77234 -1.43062e-18)
(7.53325 -5.04668 1.63167e-18)
(7.29766 -5.30993 3.16237e-18)
(7.0517 -5.56163 1.53815e-18)
(6.79592 -5.80127 0)
(6.53097 -6.02837 -1.44806e-18)
(9.15879 -0.09462 4.35594e-20)
(9.14252 -0.444118 0)
(9.11042 -0.792549 -7.14152e-19)
(9.06255 -1.13908 1.79923e-23)
(8.99904 -1.48292 1.55446e-20)
(8.9201 -1.82331 -6.59976e-20)
(8.826 -2.15951 0)
(8.71701 -2.49078 2.97968e-20)
(8.59344 -2.81643 -7.25433e-19)
(8.45564 -3.13575 1.41284e-18)
(8.30401 -3.44808 -1.47502e-18)
(8.13895 -3.75275 8.07951e-19)
(7.96092 -4.04916 -4.22086e-18)
(7.77041 -4.33667 2.7837e-18)
(7.56791 -4.61472 1.4787e-18)
(7.35396 -4.88274 0)
(7.12909 -5.14017 -2.72557e-18)
(6.8939 -5.3865 -6.00903e-20)
(6.64893 -5.62123 -2.6856e-18)
(6.39479 -5.84383 2.79552e-18)
(8.82057 -0.0893853 3.90808e-20)
(8.80951 -0.423787 -8.19714e-20)
(8.78336 -0.757553 6.72441e-19)
(8.74211 -1.08991 -1.34952e-20)
(8.68587 -1.42009 6.72296e-19)
(8.61479 -1.74736 -1.01564e-18)
(8.52909 -2.071 0)
(8.42901 -2.39031 6.84962e-19)
(8.31481 -2.70459 6.2585e-19)
(8.1868 -3.01316 -6.81206e-19)
(8.04533 -3.31537 1.24372e-18)
(7.89078 -3.61056 2.64127e-18)
(7.72355 -3.89811 -1.22608e-18)
(7.54409 -4.17743 -1.33271e-18)
(7.35288 -4.4479 1.27642e-18)
(7.1504 -4.70898 0)
(6.93719 -4.96008 6.24819e-20)
(6.71379 -5.20068 8.91864e-21)
(6.48074 -5.43026 2.54086e-18)
(6.23861 -5.64827 1.17949e-18)
(8.48006 -0.0875441 0)
(8.4728 -0.406948 5.98049e-21)
(8.4512 -0.726039 -1.36225e-19)
(8.41525 -1.04409 -6.0643e-19)
(8.365 -1.36038 5.69198e-19)
(8.30059 -1.67421 0)
(8.22218 -1.9849 1.15906e-18)
(8.12998 -2.29176 -1.26223e-21)
(8.02423 -2.59413 -1.77123e-18)
(7.90518 -2.89136 0)
(7.77315 -3.18281 -1.22392e-18)
(7.62848 -3.46786 4.41548e-20)
(7.47155 -3.7459 -3.43603e-18)
(7.30275 -4.01634 5.944e-21)
(7.12254 -4.2786 1.15216e-18)
(6.93137 -4.5321 0)
(6.72974 -4.7763 -1.13132e-18)
(6.51817 -5.01063 7.93806e-21)
(6.29719 -5.23458 1.12339e-18)
(6.06731 -5.44759 -1.1607e-18)
(8.14971 -0.087857 0)
(8.14496 -0.392844 1.39807e-19)
(8.12661 -0.697736 2.90267e-19)
(8.09464 -1.00186 -5.36354e-19)
(8.04908 -1.30453 -2.36435e-20)
(7.99003 -1.60509 -2.68049e-19)
(7.91766 -1.90289 -1.07314e-18)
(7.83212 -2.19729 5.33469e-19)
(7.73362 -2.48766 2.28064e-20)
(7.6224 -2.77338 5.30299e-19)
(7.49873 -3.05385 4.87295e-19)
(7.36293 -3.32846 2.11453e-18)
(7.21533 -3.59664 1.05783e-18)
(7.05632 -3.85781 2.08906e-18)
(6.8863 -4.11142 -1.04183e-18)
(6.70572 -4.35692 3.71153e-20)
(6.51504 -4.59374 -1.02971e-18)
(6.31475 -4.82136 0)
(6.10537 -5.03925 9.72678e-19)
(5.88738 -5.24682 0)
(7.83671 -0.0892987 6.07012e-20)
(7.83341 -0.38071 -1.77684e-19)
(7.81722 -0.672163 4.87645e-19)
(7.78809 -0.963026 -2.43243e-19)
(7.74606 -1.25266 1.80567e-20)
(7.69122 -1.54045 -2.43095e-19)
(7.62368 -1.82578 5.05848e-19)
(7.54361 -2.10804 -4.83665e-19)
(7.45118 -2.38665 4.83662e-19)
(7.34661 -2.66102 9.26892e-19)
(7.23014 -2.93058 -1.00056e-18)
(7.10207 -3.19476 -4.3001e-20)
(6.96271 -3.45301 -2.8945e-18)
(6.8124 -3.70481 4.97662e-21)
(6.65155 -3.9496 3.83059e-20)
(6.48057 -4.18687 1.87627e-18)
(6.29991 -4.41608 -9.26805e-19)
(6.11004 -4.63671 -8.82097e-19)
(5.91147 -4.84821 -3.60281e-20)
(5.70464 -5.05002 0)
(7.54438 -0.0911837 0)
(7.54175 -0.369974 2.2555e-19)
(7.52688 -0.64888 -7.75226e-19)
(7.49971 -0.927309 -2.05358e-19)
(7.46028 -1.20466 4.60317e-19)
(7.40865 -1.48036 0)
(7.34495 -1.75383 0)
(7.26931 -2.02449 4.3959e-19)
(7.18189 -2.2918 -4.39588e-19)
(7.08288 -2.5552 3.68889e-19)
(6.97253 -2.81416 -4.36744e-19)
(6.85109 -3.06814 8.66088e-19)
(6.71886 -3.31665 -1.72789e-18)
(6.57618 -3.55916 1.71896e-18)
(6.42341 -3.79519 3.30988e-20)
(6.26097 -4.02423 -8.84969e-19)
(6.0893 -4.24577 -8.41346e-19)
(5.90886 -4.45931 1.71477e-18)
(5.72015 -4.66431 8.01677e-19)
(5.5236 -4.86018 0)
(7.27354 -0.0930669 1.7733e-21)
(7.27105 -0.3602 1.47753e-19)
(7.25689 -0.627481 3.10486e-19)
(7.23103 -0.894352 2.17525e-19)
(7.19348 -1.16025 2.01485e-19)
(7.14431 -1.42462 1.87188e-19)
(7.08363 -1.68693 0)
(7.01157 -1.94665 -7.74019e-19)
(6.92827 -2.20323 -3.99236e-19)
(6.83392 -2.45619 3.39453e-19)
(6.72873 -2.705 0)
(6.61295 -2.94918 7.88463e-19)
(6.48686 -3.18826 -2.33138e-18)
(6.35079 -3.42176 7.84406e-19)
(6.20509 -3.64923 0)
(6.05017 -3.87021 -7.45241e-19)
(5.88646 -4.0842 -1.50569e-18)
(5.71444 -4.29074 7.40613e-19)
(5.53463 -4.48929 -2.78766e-20)
(5.34745 -4.67923 0)
(7.02346 -0.0946693 3.26807e-21)
(7.02077 -0.351068 -9.5604e-20)
(7.00693 -0.607614 1.84371e-19)
(6.98191 -0.863783 -1.23538e-20)
(6.94573 -1.11904 3.68399e-19)
(6.89845 -1.37287 -5.66027e-19)
(6.84018 -1.62477 0)
(6.77104 -1.87421 5.28657e-20)
(6.69115 -2.12072 0)
(6.60071 -2.36382 -7.55618e-19)
(6.4999 -2.60302 0)
(6.38896 -2.83788 -6.96398e-19)
(6.26817 -3.06796 2.15358e-18)
(6.13783 -3.29282 -1.4269e-18)
(5.99829 -3.51205 7.11379e-19)
(5.84994 -3.72525 -6.27936e-19)
(5.69325 -3.93195 7.27489e-19)
(5.5287 -4.13172 -7.2249e-19)
(5.35687 -4.324 0)
(5.17817 -4.50819 0)
(6.79261 -0.0958546 4.3698e-20)
(6.78952 -0.342354 0)
(6.77574 -0.58899 0)
(6.75126 -0.835261 -3.5009e-19)
(6.71609 -1.08066 -3.26426e-19)
(6.67031 -1.3247 0)
(6.614 -1.56689 0)
(6.54727 -1.80676 4.68674e-20)
(6.47026 -2.04384 6.46262e-19)
(6.38314 -2.27768 -3.11509e-19)
(6.28609 -2.50784 -3.32161e-19)
(6.17934 -2.73389 1.34202e-18)
(6.06314 -2.95544 -1.99247e-18)
(5.93779 -3.1721 1.28419e-18)
(5.80363 -3.38349 0)
(5.66104 -3.58927 2.58026e-18)
(5.51053 -3.789 -1.8723e-18)
(5.35257 -3.98236 6.37159e-19)
(5.18788 -4.1687 1.2176e-18)
(5.01685 -4.3475 0)
(6.57909 -0.0965544 -3.75087e-20)
(6.57549 -0.333905 0)
(6.56163 -0.571375 -4.87613e-21)
(6.53749 -0.80848 -3.00138e-19)
(6.5031 -1.04474 9.30317e-19)
(6.45853 -1.27969 -1.54743e-19)
(6.40387 -1.51286 0)
(6.33921 -1.7438 1.23257e-18)
(6.26468 -1.97208 -6.34945e-19)
(6.18045 -2.19726 4.168e-20)
(6.08668 -2.41894 5.87863e-19)
(5.9836 -2.63673 6.02672e-19)
(5.87144 -2.85024 -1.20176e-18)
(5.75047 -3.05915 -1.17517e-18)
(5.62104 -3.26312 -1.1474e-18)
(5.48352 -3.46188 -1.22199e-18)
(5.33843 -3.65504 1.21351e-18)
(5.18627 -3.84242 -5.78816e-19)
(5.02796 -4.02326 -6.17457e-19)
(4.86381 -4.19722 0)
(6.3809 -0.0967487 3.68513e-20)
(6.37675 -0.325621 -1.38301e-19)
(6.36273 -0.554584 -1.43214e-19)
(6.33884 -0.783178 4.28771e-19)
(6.30509 -1.01094 -1.52342e-19)
(6.26157 -1.23743 -1.42305e-19)
(6.20833 -1.46221 0)
(6.14549 -1.68484 -5.85002e-19)
(6.07317 -1.9049 0)
(5.99151 -2.122 5.80366e-19)
(5.90069 -2.33575 -1.11793e-18)
(5.80089 -2.54578 5.53241e-19)
(5.69234 -2.75175 -1.10301e-18)
(5.5753 -2.95338 1.13861e-18)
(5.45008 -3.15036 6.2016e-19)
(5.31704 -3.34254 0)
(5.17674 -3.52953 -5.34314e-19)
(5.02965 -3.71145 5.34314e-19)
(4.87704 -3.88726 0)
(4.71898 -4.05724 0)
(6.1961 -0.0964915 0)
(6.19141 -0.317467 1.35879e-19)
(6.17723 -0.538496 4.39898e-21)
(6.15355 -0.759144 -1.40114e-19)
(6.12039 -0.978978 -1.23494e-19)
(6.07781 -1.19757 -1.31116e-19)
(6.0259 -1.4145 5.06656e-19)
(5.96474 -1.62935 0)
(5.89446 -1.84174 0)
(5.81519 -2.05128 2.57391e-19)
(5.72709 -2.2576 2.73517e-19)
(5.63034 -2.46037 9.89235e-19)
(5.52514 -2.65928 -5.05386e-19)
(5.41171 -2.85406 5.05385e-19)
(5.29034 -3.04448 5.36726e-19)
(5.16136 -3.23049 3.15332e-20)
(5.02533 -3.41171 -9.84606e-19)
(4.88266 -3.58872 3.64249e-21)
(4.73518 -3.75995 4.86754e-19)
(4.58229 -3.92711 0)
(6.02292 -0.095819 -3.03621e-20)
(6.01777 -0.309424 3.03617e-20)
(6.00347 -0.523058 0)
(5.98001 -0.7363 1.14364e-19)
(5.94743 -0.948736 3.71427e-19)
(5.90578 -1.15996 -4.69384e-19)
(5.85516 -1.36956 -4.97806e-19)
(5.79563 -1.57716 0)
(5.72733 -1.78238 0)
(5.65037 -1.98486 0)
(5.56491 -2.18424 -9.1835e-19)
(5.47109 -2.38023 -5.94296e-20)
(5.3691 -2.57252 -4.65415e-19)
(5.25913 -2.76091 2.79269e-20)
(5.14143 -2.94517 -9.20098e-19)
(5.01623 -3.12539 1.40214e-18)
(4.88413 -3.30124 -1.3278e-18)
(4.74528 -3.47394 4.50711e-19)
(4.60243 -3.64112 8.63399e-19)
(4.45343 -3.8069 0)
(5.85984 -0.0943999 2.72853e-20)
(5.85431 -0.301304 0)
(5.83995 -0.508235 -1.12304e-19)
(5.81677 -0.714778 -2.3138e-19)
(5.78479 -0.920532 1.12154e-19)
(5.74408 -1.12511 8.95497e-19)
(5.69471 -1.32813 0)
(5.63677 -1.52922 -4.31203e-19)
(5.57036 -1.72802 -2.20466e-19)
(5.49561 -1.92418 -4.14215e-19)
(5.41264 -2.1174 -1.65747e-19)
(5.32159 -2.30737 -1.30708e-18)
(5.22262 -2.49381 -8.62477e-19)
(5.11586 -2.67654 8.87152e-19)
(5.00153 -2.85538 8.48819e-19)
(4.87967 -3.03047 -3.70852e-21)
(4.75095 -3.20162 2.77135e-20)
(4.61485 -3.37083 4.15218e-19)
(4.4756 -3.53519 -8.48375e-19)
(4.32771 -3.70291 0)
(5.70534 -0.092703 -5.70671e-20)
(5.69956 -0.293213 2.80963e-20)
(5.68528 -0.493821 -1.1224e-19)
(5.66251 -0.694147 1.12191e-19)
(5.63126 -0.893816 -3.22746e-19)
(5.59157 -1.09246 -1.00459e-18)
(5.54352 -1.28971 0)
(5.48717 -1.48522 4.56371e-19)
(5.42261 -1.67865 -4.26775e-19)
(5.34994 -1.86966 9.03322e-19)
(5.26926 -2.05796 8.97792e-19)
(5.18067 -2.24325 1.32243e-18)
(5.08429 -2.42527 -8.57982e-19)
(4.98018 -2.60382 4.27317e-19)
(4.86854 -2.77875 -4.20013e-19)
(4.74909 -2.95017 4.20039e-19)
(4.62271 -3.11799 0)
(4.48725 -3.28468 3.8008e-19)
(4.35022 -3.44729 -3.71569e-19)
(4.19911 -3.62437 0)
(7.10659 7.22824 0)
(7.38535 6.93988 0)
(7.65132 6.64201 1.03919e-18)
(7.90523 6.33515 1.84785e-20)
(8.14648 6.019 -1.10144e-18)
(8.37445 5.69361 0)
(8.5887 5.35936 1.13506e-18)
(8.78892 5.01678 -2.13793e-18)
(8.97478 4.66644 -1.08e-18)
(9.146 4.30895 -1.08971e-18)
(9.30229 3.94491 1.0897e-18)
(9.44345 3.57497 -1.10082e-18)
(9.56928 3.19981 5.49157e-19)
(9.67961 2.82008 5.22888e-19)
(9.77428 2.4365 5.24873e-19)
(9.85319 2.04971 -5.58142e-19)
(9.91628 1.66036 5.58143e-19)
(9.96364 1.26914 -2.80172e-19)
(9.99523 0.876435 -1.32798e-19)
(10.0115 0.483598 7.0096e-20)
(7.34104 6.99689 0)
(7.61803 6.70992 -9.47788e-19)
(7.88142 6.41162 -2.02743e-18)
(8.13153 6.10268 2.99672e-18)
(8.36814 5.7834 -2.07914e-18)
(8.59075 5.45418 2.0869e-18)
(8.79889 5.11562 1.13632e-18)
(8.99216 4.76835 -3.21933e-18)
(9.17019 4.41305 1.05288e-18)
(9.33261 4.05043 2.0905e-18)
(9.4791 3.68117 1.02898e-18)
(9.60942 3.30601 1.03529e-18)
(9.72335 2.92573 -1.0936e-18)
(9.82077 2.54109 1.60883e-18)
(9.9015 2.15281 -2.23516e-18)
(9.96534 1.76165 5.5133e-19)
(10.0122 1.36843 -5.2904e-19)
(10.0422 0.973959 0)
(10.0553 0.578765 1.4912e-20)
(10.0518 0.183804 0)
(7.17501 6.85213 -1.66546e-18)
(7.45347 6.58265 9.36944e-19)
(7.71955 6.30064 1.70865e-18)
(7.97286 6.00677 7.70711e-19)
(8.213 5.70161 1.93983e-18)
(8.43947 5.38574 1.83179e-20)
(8.65176 5.0598 -9.71933e-19)
(8.8494 4.72447 -2.89279e-18)
(9.03197 4.38045 2.85415e-18)
(9.19907 4.02842 -2.93041e-18)
(9.35026 3.66911 -9.75873e-19)
(9.48527 3.30325 -1.95185e-18)
(9.60385 2.93167 0)
(9.70569 2.55513 0)
(9.79063 2.17439 0)
(9.8586 1.79031 -4.97115e-19)
(9.90946 1.40374 5.2142e-19)
(9.94314 1.01553 4.98676e-19)
(9.95949 0.626365 6.12776e-21)
(9.95854 0.237179 1.25232e-19)
(6.93692 6.59316 1.73093e-18)
(7.21122 6.34199 -1.56832e-18)
(7.47434 6.07809 -1.64604e-19)
(7.7256 5.802 -1.65471e-19)
(7.96447 5.51429 4.0697e-18)
(8.19041 5.21553 -6.95164e-20)
(8.4029 4.90634 3.07744e-21)
(8.60144 4.58737 -2.57249e-18)
(8.78552 4.25925 1.69646e-18)
(8.95473 3.92264 0)
(9.1086 3.57828 9.10495e-19)
(9.24676 3.22701 9.16606e-19)
(9.36897 2.86957 0)
(9.47491 2.5067 0)
(9.56433 2.13926 0)
(9.63707 1.76804 0)
(9.69297 1.39383 -2.09446e-20)
(9.73191 1.01745 4.47891e-19)
(9.75375 0.639669 -2.14818e-19)
(9.75846 0.26141 0)
(6.66955 6.27858 1.46132e-18)
(6.93559 6.04482 0)
(7.19154 5.79853 -4.29287e-18)
(7.43663 5.54016 -1.46267e-18)
(7.67025 5.27022 -1.53836e-18)
(7.89185 4.98923 -1.6314e-18)
(8.10088 4.69777 7.70417e-19)
(8.29682 4.39641 -8.08452e-19)
(8.47916 4.08576 2.24206e-18)
(8.64744 3.76649 -7.33211e-19)
(8.80131 3.43932 0)
(8.94028 3.10499 0)
(9.06397 2.76415 0)
(9.17211 2.41754 0)
(9.26443 2.06596 -1.15726e-18)
(9.34071 1.71022 3.98188e-19)
(9.40074 1.35106 -4.21067e-19)
(9.44438 0.98928 0)
(9.47148 0.625694 2.11859e-19)
(9.48196 0.261154 0)
(6.3923 5.95414 1.24501e-18)
(6.64801 5.73616 -4.69881e-20)
(6.89453 5.50609 2.61861e-18)
(7.13111 5.26427 1.30706e-18)
(7.3571 5.01116 0)
(7.57196 4.74725 -1.3887e-18)
(7.77514 4.47305 6.57249e-20)
(7.96613 4.18909 -1.40864e-18)
(8.14442 3.89596 1.94416e-18)
(8.30955 3.59428 3.17428e-20)
(8.46113 3.28466 2.7214e-20)
(8.59872 2.96771 -7.01539e-19)
(8.72192 2.64412 1.37511e-18)
(8.83043 2.31464 0)
(8.92401 1.97992 6.6018e-20)
(9.00234 1.6408 7.0174e-19)
(9.06519 1.298 1.5047e-21)
(9.11237 0.952276 -1.4782e-20)
(9.14378 0.604394 0)
(9.15927 0.255153 -4.34709e-20)
(6.1242 5.6399 0)
(6.36863 5.43572 -4.78111e-20)
(6.60459 5.21996 1.61003e-20)
(6.83138 4.99293 -2.3608e-18)
(7.04837 4.75503 0)
(7.25502 4.50669 1.19221e-18)
(7.45081 4.24839 1.27097e-18)
(7.63523 3.98061 -3.69481e-18)
(7.8078 3.70389 -6.55012e-20)
(7.96808 3.41878 -1.18417e-18)
(8.11565 3.12585 6.53353e-19)
(8.2501 2.82569 -6.02106e-19)
(8.37106 2.51896 -6.6325e-19)
(8.47815 2.20631 0)
(8.57115 1.88844 3.50203e-19)
(8.64989 1.56592 -1.62187e-20)
(8.71397 1.2396 -3.24305e-19)
(8.76319 0.910173 -1.60892e-20)
(8.79745 0.578369 -8.16254e-20)
(8.81658 0.244919 1.63608e-19)
(5.8753 5.34619 0)
(6.10827 5.15382 1.01805e-18)
(6.33335 4.95046 1.48455e-20)
(6.54988 4.73634 -1.03287e-18)
(6.75726 4.51183 0)
(6.95498 4.27732 1.0737e-18)
(7.14253 4.03323 -1.02413e-18)
(7.31945 3.78003 -1.13559e-18)
(7.48527 3.51819 2.15654e-18)
(7.63957 3.24823 1.16534e-18)
(7.78194 2.97068 0)
(7.912 2.6861 5.67748e-19)
(8.02939 2.3951 -4.0438e-21)
(8.1338 2.09829 2.10233e-20)
(8.22482 1.79633 0)
(8.30234 1.4898 -5.57928e-19)
(8.36622 1.1793 -2.92541e-19)
(8.41605 0.865618 4.27161e-19)
(8.45171 0.549458 2.88031e-19)
(8.47304 0.231492 -3.85556e-20)
(5.64897 5.07749 0)
(5.87079 4.89522 -8.76243e-19)
(6.0852 4.70251 0)
(6.29155 4.49959 -9.45844e-19)
(6.48929 4.28676 1.86109e-18)
(6.67791 4.0644 -1.89745e-18)
(6.85697 3.83288 2.97144e-18)
(7.02601 3.59262 -2.96152e-18)
(7.18461 3.34408 -2.00064e-18)
(7.33235 3.08773 -1.47427e-18)
(7.46886 2.82409 5.0585e-19)
(7.59379 2.55367 -1.04911e-18)
(7.70677 2.27703 1.78947e-20)
(7.80752 1.99475 1.04227e-18)
(7.89575 1.7074 -2.62151e-19)
(7.97108 1.41568 1.07443e-18)
(8.03347 1.12007 -5.28135e-19)
(8.08275 0.821215 2.42823e-19)
(8.11864 0.51984 -1.38898e-19)
(8.14095 0.216588 0)
(5.44505 4.83427 0)
(5.65636 4.66066 1.69403e-18)
(5.86061 4.47717 8.20047e-19)
(6.05721 4.28399 -8.45085e-19)
(6.24561 4.08138 -1.7309e-18)
(6.42537 3.86967 2.63332e-18)
(6.59606 3.64923 1.04178e-20)
(6.75725 3.42044 -8.57052e-19)
(6.90855 3.18372 1.843e-18)
(7.04958 2.93953 9.52216e-19)
(7.17999 2.68834 -8.87848e-19)
(7.29944 2.43066 4.66559e-19)
(7.4076 2.16701 2.1483e-20)
(7.50418 1.89792 -4.91375e-19)
(7.58891 1.62395 -2.37859e-19)
(7.66153 1.34567 4.7693e-19)
(7.72179 1.06374 -2.39071e-19)
(7.76961 0.778632 -4.82462e-19)
(7.80482 0.491 5.58082e-20)
(7.82719 0.201473 6.0444e-20)