/*--------------------------------*- C++ -*----------------------------------*\
  =========                 |
  \\      /  F ield         | OpenFOAM: The Open Source CFD Toolbox
   \\    /   O peration     | Website:  https://openfoam.org
    \\  /    A nd           | Version:  6.0
     \\/     M anipulation  |
\*---------------------------------------------------------------------------*/
FoamFile
{
    version     2.0;
    format      ascii;
    class       volVectorField;
    location    "1.5015";
    object      U;
}
// * * * * * * * * * * * * * * * * * * * * * * * * * * * * * * * * * * * * * //

dimensions      [0 1 -1 0 0 0 0];

internalField   nonuniform List<vector> 
19200
(
(0.0999458 -4.85118 -6.72873e-21)
(0.0605271 -4.59102 3.38524e-21)
(0.0596171 -4.3578 1.55007e-21)
(0.0633202 -4.14782 1.35791e-21)
(0.0661038 -3.95745 1.47816e-21)
(0.0699876 -3.78343 9.57197e-23)
(0.0749396 -3.62311 2.04916e-21)
(0.0805624 -3.47432 -1.35059e-22)
(0.0866345 -3.3353 1.74152e-21)
(0.0929917 -3.20465 7.16991e-22)
(0.0994939 -3.08126 2.15702e-23)
(0.106031 -2.96424 1.10737e-21)
(0.11252 -2.85288 1.75703e-21)
(0.118902 -2.7466 -1.17538e-21)
(0.12514 -2.64495 1.482e-21)
(0.131208 -2.54755 1.24237e-21)
(0.137096 -2.45407 -1.16292e-21)
(0.142803 -2.36425 1.9436e-21)
(0.148334 -2.27786 -1.22744e-21)
(0.153698 -2.19468 6.11512e-22)
(0.158906 -2.11453 8.35135e-22)
(0.16397 -2.03724 -2.65112e-22)
(0.168902 -1.9627 3.57748e-22)
(0.17371 -1.8908 -4.06757e-22)
(0.178405 -1.82148 -9.83542e-24)
(0.18299 -1.75463 2.05065e-22)
(0.187469 -1.69011 -1.37883e-22)
(0.191855 -1.62779 8.41712e-23)
(0.196191 -1.56756 1.92226e-22)
(0.200392 -1.50935 7.91524e-22)
(0.227093 -4.84694 -1.48215e-21)
(0.18116 -4.58941 1.02776e-20)
(0.174284 -4.35782 -5.43969e-21)
(0.17266 -4.14922 -7.2377e-21)
(0.170681 -3.9601 -3.17904e-21)
(0.170252 -3.78716 -2.24369e-21)
(0.171254 -3.62772 -4.8114e-21)
(0.173221 -3.47962 6.32532e-22)
(0.175878 -3.34115 -1.02831e-21)
(0.179021 -3.2109 -3.4932e-21)
(0.182478 -3.0878 -8.38582e-21)
(0.186116 -2.97096 4.01699e-21)
(0.189834 -2.8597 -1.48271e-21)
(0.193561 -2.75348 5.62547e-22)
(0.197247 -2.65184 -3.28585e-21)
(0.200863 -2.55442 -1.17271e-21)
(0.20439 -2.4609 1.42563e-22)
(0.207824 -2.37105 3.88791e-21)
(0.211167 -2.28461 -2.07327e-21)
(0.214423 -2.20139 -1.13811e-21)
(0.217603 -2.12121 -4.28069e-21)
(0.220715 -2.04391 1.093e-21)
(0.22377 -1.96934 -6.7041e-22)
(0.226774 -1.89743 1.16861e-21)
(0.229734 -1.8281 -5.26087e-22)
(0.232654 -1.76124 -8.12996e-22)
(0.235532 -1.69672 2.70754e-22)
(0.238387 -1.63439 4.00131e-22)
(0.241277 -1.57415 -7.19666e-22)
(0.244068 -1.5159 3.64394e-22)
(0.353828 -4.83968 -6.98921e-22)
(0.301469 -4.58482 2.20488e-21)
(0.288833 -4.35497 3.4729e-21)
(0.282044 -4.14789 2.51638e-20)
(0.275415 -3.96017 -1.42477e-20)
(0.270758 -3.78843 1.31077e-20)
(0.267873 -3.62997 7.95229e-21)
(0.266231 -3.48268 5.99408e-21)
(0.265508 -3.34482 -5.5863e-21)
(0.26546 -3.21505 -4.7406e-22)
(0.265888 -3.0923 1.37035e-20)
(0.266636 -2.97571 2.19438e-21)
(0.267588 -2.86462 -6.11073e-21)
(0.268659 -2.7585 4.80489e-21)
(0.269792 -2.65693 2.13067e-23)
(0.27095 -2.55954 1.9703e-21)
(0.272112 -2.46605 1.41043e-21)
(0.273266 -2.3762 4.57326e-21)
(0.274413 -2.28978 -2.05067e-21)
(0.275557 -2.20658 -6.77157e-22)
(0.276703 -2.12643 -1.67852e-21)
(0.27786 -2.04915 7.3093e-21)
(0.279035 -1.97463 -6.05615e-21)
(0.280233 -1.90276 1.97585e-21)
(0.281459 -1.83347 8.5731e-22)
(0.282711 -1.76666 -3.53057e-21)
(0.283987 -1.70219 4.68263e-21)
(0.285311 -1.63991 -5.14683e-22)
(0.286753 -1.5797 -5.22569e-22)
(0.288131 -1.52148 -3.72249e-21)
(0.480297 -4.82926 -2.41411e-20)
(0.421583 -4.57725 -2.1942e-20)
(0.403292 -4.3493 -2.63787e-20)
(0.391446 -4.14389 1.04766e-21)
(0.380262 -3.9577 1.64063e-21)
(0.371453 -3.78726 -2.86006e-20)
(0.364742 -3.62989 1.39603e-21)
(0.359538 -3.48348 3.57671e-21)
(0.355469 -3.34632 -6.74032e-22)
(0.352256 -3.2171 5.88471e-21)
(0.34967 -3.09476 -2.33628e-20)
(0.347537 -2.97847 -1.41125e-20)
(0.345726 -2.86761 5.38168e-21)
(0.344141 -2.76165 1.01495e-20)
(0.342719 -2.66019 -1.18418e-20)
(0.341415 -2.56289 -1.82784e-21)
(0.340205 -2.46948 -6.75743e-21)
(0.339074 -2.3797 -3.13521e-21)
(0.33802 -2.29334 5.14783e-21)
(0.337044 -2.21022 -6.55162e-21)
(0.336152 -2.13015 5.56702e-21)
(0.335349 -2.05297 -6.61807e-21)
(0.334643 -1.97854 -5.10187e-21)
(0.334036 -1.90677 -3.57198e-21)
(0.333527 -1.83757 -1.08014e-21)
(0.333113 -1.77086 -7.23767e-21)
(0.33279 -1.70649 7.4677e-22)
(0.33258 -1.64432 1.26304e-21)
(0.332576 -1.5842 -3.62133e-21)
(0.332541 -1.52606 8.34692e-22)
(0.606456 -4.81563 -1.44026e-20)
(0.541488 -4.5667 2.094e-21)
(0.517634 -4.34081 1.85217e-20)
(0.500827 -4.13722 1.89963e-20)
(0.485175 -3.95268 1.33947e-20)
(0.472288 -3.78366 5.4493e-21)
(0.461809 -3.62747 8.35482e-21)
(0.453089 -3.48202 3.73232e-20)
(0.445707 -3.34563 -2.24113e-20)
(0.439351 -3.21702 6.98689e-22)
(0.433768 -3.09515 5.31101e-21)
(0.428762 -2.97923 2.18707e-20)
(0.424191 -2.86865 -1.47805e-20)
(0.419951 -2.76291 1.04226e-20)
(0.41597 -2.66162 -1.13367e-20)
(0.4122 -2.56446 1.92116e-20)
(0.408612 -2.47117 -5.67261e-21)
(0.405192 -2.38151 2.03202e-22)
(0.401931 -2.29527 8.72057e-21)
(0.398832 -2.21228 5.93999e-21)
(0.395896 -2.13235 -6.09599e-21)
(0.393131 -2.05532 8.09128e-21)
(0.390541 -1.98106 -3.61282e-21)
(0.388127 -1.90943 4.15972e-21)
(0.385886 -1.84039 5.42803e-21)
(0.38381 -1.77383 1.91315e-21)
(0.381888 -1.70961 5.83617e-21)
(0.380152 -1.6476 -2.17889e-21)
(0.378702 -1.58763 -7.56894e-22)
(0.377254 -1.52963 -3.54854e-21)
(0.732233 -4.79878 -1.04107e-20)
(0.661131 -4.55315 -7.05736e-21)
(0.631813 -4.32951 -2.08534e-20)
(0.610138 -4.12788 -5.29542e-20)
(0.590103 -3.94511 1.80725e-20)
(0.57321 -3.77761 1.10128e-21)
(0.559022 -3.62269 -1.16794e-20)
(0.546829 -3.47828 2.12553e-21)
(0.536168 -3.34274 -1.78772e-21)
(0.526692 -3.21479 -2.81485e-20)
(0.518125 -3.09346 1.19673e-20)
(0.510255 -2.97796 1.99174e-20)
(0.502927 -2.86771 1.25295e-22)
(0.496031 -2.76224 7.17121e-21)
(0.489488 -2.66118 1.72543e-20)
(0.483247 -2.56421 -1.173e-20)
(0.477277 -2.4711 2.03616e-20)
(0.47156 -2.38161 -9.5425e-21)
(0.46609 -2.29555 1.67094e-20)
(0.460864 -2.21275 -1.24197e-20)
(0.455884 -2.13301 5.49267e-21)
(0.451155 -2.0562 1.39846e-20)
(0.446678 -1.98215 6.10442e-22)
(0.442455 -1.91075 -1.27309e-20)
(0.43848 -1.8419 7.10198e-21)
(0.434744 -1.77554 8.06309e-22)
(0.431231 -1.71154 -2.17848e-21)
(0.427974 -1.64973 8.30635e-21)
(0.425085 -1.58997 2.83232e-21)
(0.422226 -1.53216 -3.03797e-21)
(0.857552 -4.7787 2.88055e-20)
(0.780452 -4.53661 -1.47795e-21)
(0.745774 -4.31539 -4.23327e-20)
(0.719327 -4.11586 8.61349e-21)
(0.694994 -3.935 -1.13893e-20)
(0.674166 -3.76911 8.78432e-21)
(0.656325 -3.61554 1.84029e-20)
(0.640704 -3.47224 3.24473e-20)
(0.626795 -3.33761 -3.4446e-20)
(0.614221 -3.2104 8.53137e-21)
(0.602683 -3.08966 -5.55286e-21)
(0.591956 -2.97464 4.06812e-21)
(0.581874 -2.86478 -1.81686e-20)
(0.57232 -2.75963 -9.91265e-22)
(0.563211 -2.65884 2.81655e-20)
(0.554495 -2.56213 -1.94655e-20)
(0.546138 -2.46925 -1.19587e-20)
(0.538121 -2.37999 -8.3999e-21)
(0.530436 -2.29416 1.54935e-20)
(0.52308 -2.21159 3.21916e-21)
(0.516054 -2.13211 -1.47154e-20)
(0.50936 -2.05556 1.93332e-20)
(0.502998 -1.98179 -1.73416e-20)
(0.496967 -1.91066 1.12868e-20)
(0.491261 -1.84209 -6.37116e-21)
(0.485869 -1.77599 4.0567e-21)
(0.480771 -1.71225 2.95261e-21)
(0.475998 -1.65071 -1.33307e-20)
(0.471677 -1.5912 5.71314e-21)
(0.467412 -1.53363 1.07415e-22)
(0.982332 -4.75541 -2.8175e-20)
(0.899381 -4.51708 2.4029e-20)
(0.859457 -4.29845 -4.25127e-20)
(0.828337 -4.10118 8.12976e-20)
(0.799793 -3.92232 -2.2545e-20)
(0.775101 -3.75815 3.10344e-20)
(0.753664 -3.60601 -6.95286e-22)
(0.734657 -3.4639 -4.51219e-21)
(0.717532 -3.33025 -5.97458e-21)
(0.70188 -3.20383 7.3417e-23)
(0.687385 -3.08374 -2.2536e-20)
(0.673807 -2.96925 1.18355e-20)
(0.660972 -2.85983 -1.37615e-20)
(0.648758 -2.75506 -1.15097e-21)
(0.63708 -2.6546 -3.75823e-20)
(0.625883 -2.55818 1.23779e-20)
(0.615133 -2.46559 6.85763e-21)
(0.604811 -2.37661 -7.81665e-21)
(0.594908 -2.29107 -9.31343e-22)
(0.585419 -2.2088 -1.16608e-20)
(0.576346 -2.12963 -4.11466e-21)
(0.567688 -2.0534 2.87764e-22)
(0.559443 -1.97996 -9.81714e-21)
(0.551609 -1.90918 -1.42673e-20)
(0.544181 -1.84093 6.4819e-22)
(0.53714 -1.77515 -1.57747e-21)
(0.530461 -1.71173 4.35418e-21)
(0.524181 -1.65051 -1.06423e-20)
(0.518432 -1.5913 8.98428e-21)
(0.512769 -1.53404 -1.83794e-20)
(1.10649 -4.72892 -7.01931e-20)
(1.01785 -4.49456 8.62578e-20)
(0.972799 -4.27871 -8.95504e-20)
(0.93711 -4.08382 -2.34932e-20)
(0.904444 -3.90708 -1.46469e-20)
(0.87596 -3.74472 -1.57706e-20)
(0.850984 -3.59409 -1.45034e-20)
(0.828633 -3.45324 -3.36986e-21)
(0.80832 -3.32062 -1.45184e-20)
(0.789611 -3.19506 -2.98553e-21)
(0.77217 -3.07567 2.30174e-20)
(0.755746 -2.96176 -1.37309e-20)
(0.74016 -2.85284 -1.56159e-20)
(0.725284 -2.74849 -2.55187e-20)
(0.711032 -2.64842 5.33422e-20)
(0.69735 -2.55236 -2.02729e-20)
(0.684202 -2.46011 7.46631e-21)
(0.67157 -2.37147 -2.7266e-20)
(0.659444 -2.28627 1.05062e-20)
(0.647821 -2.20435 -4.15411e-21)
(0.636699 -2.12554 5.33816e-21)
(0.626078 -2.0497 -1.78797e-21)
(0.615955 -1.97666 1.60592e-20)
(0.606326 -1.90627 -5.6587e-21)
(0.597182 -1.83842 1.53431e-20)
(0.588501 -1.77302 -2.7369e-21)
(0.580254 -1.70997 1.97472e-20)
(0.572473 -1.64911 5.24567e-21)
(0.565309 -1.59027 9.82192e-21)
(0.558257 -1.53336 -3.27504e-20)
(1.22995 -4.69924 1.11044e-19)
(1.13578 -4.46906 -2.24136e-20)
(1.08574 -4.25615 3.79471e-20)
(1.04559 -4.06378 -1.06763e-20)
(1.00889 -3.88927 3.75894e-20)
(0.976686 -3.72881 3.47634e-20)
(0.948226 -3.57977 3.87869e-20)
(0.922573 -3.44024 -2.98034e-21)
(0.899102 -3.30872 -3.60074e-20)
(0.877354 -3.18407 5.29993e-20)
(0.856977 -3.06543 -3.56869e-21)
(0.837712 -2.95217 3.64272e-20)
(0.819374 -2.84379 1.29565e-20)
(0.801833 -2.73993 4.85833e-21)
(0.785004 -2.64029 7.50319e-21)
(0.768831 -2.54464 1.01795e-20)
(0.75328 -2.45278 1.65214e-20)
(0.738334 -2.36453 -4.58416e-21)
(0.723984 -2.27973 2.36718e-20)
(0.710225 -2.19822 1.0626e-20)
(0.697057 -2.11984 -2.21413e-20)
(0.684475 -2.04444 3.87064e-20)
(0.672479 -1.97185 -5.06118e-20)
(0.661059 -1.90193 4.74379e-20)
(0.650207 -1.83454 -1.55936e-20)
(0.639896 -1.76958 3.05404e-21)
(0.63009 -1.70695 -2.00616e-20)
(0.620826 -1.64651 1.12211e-20)
(0.61226 -1.58808 3.96051e-21)
(0.603831 -1.53159 -5.09932e-21)
(1.35264 -4.6664 -6.33954e-20)
(1.25312 -4.4406 6.20443e-20)
(1.1982 -4.23078 -1.68752e-20)
(1.1537 -4.04106 4.78457e-20)
(1.11307 -3.86889 4.68464e-21)
(1.07722 -3.7104 9.31894e-21)
(1.04533 -3.56303 -7.89609e-20)
(1.01642 -3.42489 -1.35931e-20)
(0.989816 -3.29452 4.92922e-20)
(0.965047 -3.17084 3.64161e-20)
(0.941745 -3.05301 -6.17883e-20)
(0.919642 -2.94044 3.55065e-20)
(0.898551 -2.83266 -3.52703e-20)
(0.878342 -2.72934 2.36726e-20)
(0.858931 -2.63019 -3.93018e-20)
(0.840262 -2.535 -2.85869e-20)
(0.822304 -2.44359 2.11596e-21)
(0.805041 -2.35579 -1.26099e-20)
(0.788464 -2.27144 2.28999e-20)
(0.77257 -2.19039 8.88776e-21)
(0.757357 -2.11249 -5.88255e-21)
(0.74282 -2.03759 -1.7315e-21)
(0.728955 -1.96552 6.55349e-21)
(0.715753 -1.89613 -2.21025e-20)
(0.703201 -1.82927 3.64246e-20)
(0.691269 -1.76481 -8.94459e-21)
(0.679919 -1.70267 -5.92305e-22)
(0.669187 -1.64271 3.09087e-20)
(0.659234 -1.58472 3.97868e-21)
(0.649447 -1.52871 -4.58918e-21)
(1.47446 -4.63041 2.13156e-21)
(1.36977 -4.40917 -3.58153e-20)
(1.31013 -4.20261 -3.2071e-20)
(1.2614 -4.01567 -5.18909e-20)
(1.21692 -3.84592 1.65522e-21)
(1.1775 -3.68951 -3.56321e-20)
(1.14224 -3.54387 4.26014e-20)
(1.11011 -3.40717 -4.12662e-21)
(1.0804 -3.27802 3.25956e-20)
(1.05263 -3.15535 -2.76637e-20)
(1.02641 -3.03839 -1.3874e-20)
(1.00147 -2.92656 7.45603e-21)
(0.977626 -2.81944 3.95712e-21)
(0.954746 -2.71671 -3.94193e-20)
(0.932747 -2.6181 2.32771e-20)
(0.911578 -2.52344 -1.11457e-20)
(0.891209 -2.43253 3.18044e-20)
(0.871625 -2.34523 -1.03033e-20)
(0.852821 -2.26139 1.07747e-20)
(0.834792 -2.18086 2.55924e-21)
(0.817537 -2.1035 1.76856e-20)
(0.801051 -2.02915 -3.68818e-21)
(0.785326 -1.95766 2.84626e-20)
(0.770352 -1.88886 -3.16186e-20)
(0.75611 -1.82258 -1.04815e-20)
(0.742571 -1.75871 8.53123e-21)
(0.729691 -1.69712 -8.28839e-22)
(0.717505 -1.63769 -1.4617e-20)
(0.706185 -1.58021 1.18078e-20)
(0.695058 -1.52471 -1.45534e-20)
(1.59534 -4.59129 1.06722e-19)
(1.48568 -4.3748 2.96571e-20)
(1.42146 -4.17165 3.46584e-20)
(1.36861 -3.98759 4.58027e-20)
(1.32038 -3.82038 6.7825e-20)
(1.27747 -3.6661 -1.90873e-21)
(1.23889 -3.52226 9.98682e-21)
(1.20357 -3.38708 7.28e-20)
(1.17079 -3.25919 -1.51858e-20)
(1.14003 -3.1376 -2.6018e-20)
(1.1109 -3.02156 4.54747e-20)
(1.08313 -2.91052 7.31988e-21)
(1.05653 -2.80411 5.34668e-22)
(1.03098 -2.70202 1.06962e-20)
(1.00639 -2.60402 1.85561e-20)
(0.982712 -2.50992 -3.74616e-20)
(0.959927 -2.41958 3.18283e-20)
(0.938021 -2.33284 5.30409e-21)
(0.916988 -2.24957 3.00378e-20)
(0.896827 -2.16962 -1.62728e-20)
(0.877534 -2.09285 2.639e-20)
(0.859105 -2.01911 -2.77683e-20)
(0.84153 -1.94825 2.66626e-20)
(0.824794 -1.88009 3.46631e-21)
(0.808878 -1.81448 -1.7626e-20)
(0.793746 -1.75125 -5.55656e-21)
(0.779351 -1.69029 3.30208e-20)
(0.765731 -1.63145 2.39512e-20)
(0.753066 -1.57454 6.33075e-21)
(0.740616 -1.51959 -4.55579e-21)
(1.7152 -4.54906 1.0831e-20)
(1.60077 -4.3375 2.50262e-20)
(1.53212 -4.1379 9.98936e-20)
(1.47527 -3.95684 -1.63107e-19)
(1.42339 -3.79224 -1.54522e-20)
(1.37706 -3.64018 -1.70588e-20)
(1.33522 -3.49821 7.78867e-21)
(1.29676 -3.36459 9.9935e-21)
(1.26093 -3.23803 1.60256e-20)
(1.22719 -3.11756 -4.26555e-20)
(1.19516 -3.00249 -7.62819e-21)
(1.16456 -2.89231 2.36307e-20)
(1.1352 -2.78666 2.45921e-20)
(1.10697 -2.68526 -2.47345e-20)
(1.07978 -2.58792 -2.34345e-20)
(1.0536 -2.49445 3.89579e-20)
(1.02839 -2.40473 2.47556e-20)
(1.00416 -2.3186 -6.54738e-21)
(0.980901 -2.23595 -1.55247e-20)
(0.958609 -2.15664 2.77369e-21)
(0.937283 -2.08052 -3.47665e-20)
(0.916919 -2.00745 4.17125e-20)
(0.897504 -1.93728 -2.82595e-20)
(0.879022 -1.86983 -1.04333e-21)
(0.861448 -1.80493 1.83822e-20)
(0.844741 -1.74242 -5.61408e-21)
(0.828852 -1.68217 -1.67348e-20)
(0.813817 -1.62399 2.07063e-20)
(0.799823 -1.56769 -5.54897e-22)
(0.786079 -1.51337 3.65084e-21)
(1.83397 -4.50376 -8.23442e-21)
(1.71497 -4.29729 -2.64695e-20)
(1.64204 -4.10136 -1.15275e-19)
(1.58132 -3.92342 4.19552e-20)
(1.52589 -3.76152 -1.2099e-20)
(1.47621 -3.61175 4.07889e-20)
(1.43117 -3.47169 3.08876e-21)
(1.38961 -3.3397 -4.4437e-20)
(1.35075 -3.21451 6.70642e-20)
(1.31405 -3.09522 -5.99798e-20)
(1.27912 -2.98117 -2.01394e-21)
(1.24569 -2.8719 1.41492e-20)
(1.21357 -2.76706 -2.40681e-20)
(1.18265 -2.66642 2.69282e-20)
(1.15286 -2.56979 -5.10201e-20)
(1.12416 -2.47702 -1.09492e-20)
(1.09654 -2.38796 3.05661e-20)
(1.06998 -2.30251 2.94769e-22)
(1.04449 -2.22054 -1.82029e-20)
(1.02007 -2.14192 4.99295e-20)
(0.996721 -2.06652 -2.69339e-20)
(0.974431 -1.99418 -3.52405e-20)
(0.953188 -1.92474 1.15594e-20)
(0.932974 -1.85805 -3.33693e-20)
(0.913759 -1.79393 -7.81215e-21)
(0.895498 -1.73221 -8.65656e-22)
(0.878136 -1.67272 -2.10329e-20)
(0.861707 -1.61528 2.53166e-20)
(0.846413 -1.55966 -1.38603e-20)
(0.831403 -1.50602 1.6431e-20)
(1.95156 -4.45541 -3.84944e-20)
(1.8282 -4.25418 -1.06549e-19)
(1.75115 -4.06206 4.97639e-20)
(1.68669 -3.88732 -4.71069e-20)
(1.62781 -3.72821 -3.37148e-20)
(1.57487 -3.58079 -1.88416e-20)
(1.52667 -3.44271 -7.01414e-20)
(1.48204 -3.3124 4.74913e-20)
(1.44017 -3.18864 -1.15218e-19)
(1.40052 -3.07057 -4.04396e-20)
(1.36271 -2.9576 1.53984e-20)
(1.32644 -2.84928 2.43616e-20)
(1.29157 -2.74532 -7.90888e-22)
(1.25796 -2.64549 -4.50679e-20)
(1.22556 -2.54963 1.05317e-20)
(1.19435 -2.4576 -3.95876e-20)
(1.1643 -2.36928 -2.78556e-20)
(1.13541 -2.28456 -1.62363e-20)
(1.1077 -2.20333 -2.75461e-21)
(1.08115 -2.12546 2.83236e-20)
(1.05578 -2.05082 3.95318e-20)
(1.03158 -1.97927 -1.17281e-20)
(1.00852 -1.91064 -1.1103e-20)
(0.986589 -1.84477 2.15469e-20)
(0.965755 -1.78148 1.17481e-20)
(0.945965 -1.7206 -9.37824e-21)
(0.927154 -1.66194 -1.02934e-20)
(0.909365 -1.60532 1.25982e-21)
(0.892794 -1.55045 1.04753e-20)
(0.876539 -1.49755 1.46254e-20)
(2.0679 -4.40403 -6.42852e-21)
(1.9404 -4.20819 1.33868e-19)
(1.85939 -4.02 1.0053e-19)
(1.79132 -3.84857 7.66108e-20)
(1.72909 -3.6923 -4.98803e-20)
(1.67295 -3.5473 -9.84261e-21)
(1.62166 -3.41126 9.19556e-21)
(1.57399 -3.28267 6.01199e-20)
(1.52914 -3.16039 2.21383e-20)
(1.48656 -3.04361 5.30026e-20)
(1.44585 -2.93176 -7.30077e-20)
(1.40676 -2.82446 7.72931e-21)
(1.36911 -2.72142 2.90387e-20)
(1.33282 -2.62246 1.73635e-20)
(1.29781 -2.52743 3.52388e-20)
(1.26407 -2.4362 -2.459e-20)
(1.2316 -2.34867 -2.19233e-20)
(1.20039 -2.26475 4.50286e-21)
(1.17045 -2.18431 4.59745e-20)
(1.14178 -2.10725 -7.3519e-20)
(1.1144 -2.03344 2.5619e-20)
(1.08829 -1.96273 -9.0948e-23)
(1.06343 -1.89496 4.67678e-20)
(1.03981 -1.82997 -2.02987e-20)
(1.01737 -1.76757 -1.22718e-21)
(0.996081 -1.70759 -1.257e-20)
(0.975855 -1.64984 1.19148e-20)
(0.956728 -1.59409 2.89271e-21)
(0.93891 -1.54005 -1.27673e-20)
(0.921434 -1.48795 4.4314e-20)
(2.1829 -4.34966 -1.37442e-19)
(2.05149 -4.15935 -8.10071e-20)
(1.96669 -3.9752 -2.03082e-19)
(1.89514 -3.80715 -8.96477e-20)
(1.82967 -3.65381 8.35293e-20)
(1.77041 -3.51128 -4.75778e-20)
(1.71607 -3.37732 -1.07875e-20)
(1.66539 -3.25051 -3.0309e-20)
(1.61758 -3.12976 5.17819e-20)
(1.57207 -3.01431 -1.16556e-20)
(1.52848 -2.90364 -1.82125e-20)
(1.48656 -2.79741 -2.17782e-21)
(1.44615 -2.69536 -7.01672e-20)
(1.40716 -2.59733 -1.87915e-21)
(1.36954 -2.50318 1.89482e-20)
(1.33328 -2.41281 -2.03305e-21)
(1.29837 -2.32613 -6.90417e-20)
(1.26484 -2.24306 6.66191e-20)
(1.23267 -2.16348 -6.44744e-20)
(1.2019 -2.08729 2.50583e-20)
(1.17251 -2.01436 3.52263e-21)
(1.1445 -1.94455 1.36657e-21)
(1.11786 -1.87771 -2.5566e-20)
(1.09255 -1.81365 8.4409e-21)
(1.06855 -1.75221 -6.65879e-23)
(1.04578 -1.69318 2.68738e-21)
(1.02416 -1.63638 -6.11882e-20)
(1.00373 -1.58158 1.68889e-20)
(0.984688 -1.52843 1.77309e-20)
(0.966026 -1.4772 1.9892e-20)
(2.2965 -4.29233 2.66536e-19)
(2.1614 -4.10768 9.02961e-20)
(2.07299 -3.92767 5.22499e-20)
(1.99809 -3.76309 8.27632e-20)
(1.92948 -3.61274 -9.83523e-21)
(1.86717 -3.47272 5.97871e-20)
(1.80982 -3.34091 1.30488e-19)
(1.75618 -3.21591 -1.70119e-20)
(1.70542 -3.09674 7.11721e-21)
(1.657 -2.98267 1.45986e-19)
(1.61053 -2.87325 -1.98563e-20)
(1.56578 -2.76814 1.97206e-20)
(1.5226 -2.66713 -6.74156e-21)
(1.48091 -2.57008 2.8094e-22)
(1.44068 -2.47688 9.85009e-20)
(1.40189 -2.38743 3.80309e-21)
(1.36456 -2.30166 1.01591e-19)
(1.32869 -2.21949 -1.31683e-20)
(1.29431 -2.14083 -2.13896e-20)
(1.26143 -2.06556 4.96964e-20)
(1.23004 -1.99357 -4.46238e-20)
(1.20015 -1.92473 4.88821e-20)
(1.17173 -1.85886 2.59844e-20)
(1.14477 -1.79581 -2.06259e-20)
(1.1192 -1.73538 3.153e-20)
(1.09498 -1.67737 3.74427e-21)
(1.072 -1.6216 -1.26315e-20)
(1.05029 -1.5678 7.28273e-21)
(1.03007 -1.5156 4.54335e-20)
(1.01026 -1.46531 7.05087e-21)
(2.40861 -4.23207 -4.59372e-20)
(2.27006 -4.0532 -9.21304e-20)
(2.17821 -3.87743 3.66548e-20)
(2.1001 -3.7164 -1.47737e-19)
(2.02845 -3.56908 6.84056e-20)
(1.96316 -3.43163 -1.2371e-19)
(1.90287 -3.302 -7.88538e-20)
(1.84628 -3.17887 2.21172e-20)
(1.79259 -3.06132 1.98828e-20)
(1.74126 -2.9487 -1.0245e-19)
(1.69192 -2.84056 -4.31572e-20)
(1.64434 -2.73663 1.90227e-20)
(1.59839 -2.63673 -5.34599e-20)
(1.554 -2.54072 -2.0769e-20)
(1.51115 -2.44852 -1.36383e-20)
(1.46984 -2.36006 -1.36217e-20)
(1.43008 -2.27526 -5.60246e-20)
(1.3919 -2.19405 -3.42299e-20)
(1.3553 -2.11636 6.64846e-21)
(1.32031 -2.04207 1.11669e-20)
(1.28694 -1.97108 1.14228e-20)
(1.25517 -1.90325 -4.00924e-20)
(1.22499 -1.83842 1.4814e-20)
(1.19637 -1.77643 -3.04493e-20)
(1.16927 -1.71708 2.81592e-20)
(1.14361 -1.66016 -3.71276e-20)
(1.1193 -1.60548 1.12856e-20)
(1.09635 -1.55274 -1.81207e-20)
(1.07498 -1.50156 -2.52211e-20)
(1.05406 -1.45227 -2.58534e-21)
(2.51917 -4.16893 -9.66102e-20)
(2.37741 -3.99594 -8.32433e-20)
(2.2823 -3.8245 -7.9184e-20)
(2.20111 -3.66707 -5.619e-20)
(2.12652 -3.52285 1.7493e-19)
(2.05833 -3.38801 2.33906e-20)
(1.99512 -3.2606 7.21932e-20)
(1.93562 -3.13939 1.08136e-19)
(1.87902 -3.02351 5.03551e-20)
(1.82479 -2.91238 -6.76726e-20)
(1.77257 -2.80559 1.0461e-19)
(1.72217 -2.7029 -1.0154e-19)
(1.67345 -2.60416 9.39146e-20)
(1.62636 -2.50926 1.0571e-20)
(1.5809 -2.41813 2.3267e-20)
(1.53707 -2.3307 7.77802e-21)
(1.49488 -2.24693 9.14184e-20)
(1.45438 -2.16674 -1.36181e-20)
(1.41558 -2.09007 1.18825e-20)
(1.37849 -2.01681 3.93824e-20)
(1.34313 -1.94687 -4.38065e-20)
(1.3095 -1.88011 3.42598e-20)
(1.27757 -1.81638 1.15728e-21)
(1.24732 -1.7555 1.52186e-20)
(1.21869 -1.69729 2.75044e-20)
(1.19162 -1.64152 -4.71366e-21)
(1.166 -1.588 2.68157e-20)
(1.14184 -1.53641 3.82164e-20)
(1.11936 -1.48632 -4.16564e-20)
(1.09738 -1.4381 -2.5784e-20)
(2.62809 -4.10294 2.79473e-19)
(2.48336 -3.93593 -3.12371e-20)
(2.38519 -3.7689 6.19139e-20)
(2.30107 -3.61514 1.10582e-19)
(2.22363 -3.47404 -3.1313e-19)
(2.15259 -3.34186 3.33333e-20)
(2.08652 -3.21671 -1.14463e-19)
(2.02413 -3.09746 1.11656e-19)
(1.96463 -2.98331 -8.84616e-20)
(1.9075 -2.87371 4.51768e-20)
(1.85242 -2.76833 -1.66051e-19)
(1.79919 -2.66694 6.33399e-21)
(1.7477 -2.56942 -5.17938e-20)
(1.69792 -2.47569 7.9104e-20)
(1.64985 -2.38569 -8.29479e-20)
(1.6035 -2.29936 -4.3964e-21)
(1.5589 -2.21667 -6.4934e-20)
(1.51608 -2.13756 -5.0313e-21)
(1.47508 -2.06196 4.97461e-21)
(1.4359 -1.98979 1.35512e-20)
(1.39857 -1.92095 -7.75177e-20)
(1.36308 -1.8553 -2.19301e-21)
(1.32941 -1.79271 -4.23986e-20)
(1.29753 -1.733 -9.81357e-21)
(1.2674 -1.67598 -2.54124e-20)
(1.23893 -1.62144 -2.74612e-20)
(1.21203 -1.56914 -2.81957e-20)
(1.18668 -1.51877 4.70592e-20)
(1.16312 -1.46986 1.24873e-20)
(1.14013 -1.42279 -2.49832e-20)
(2.7353 -4.03413 -1.86175e-19)
(2.58788 -3.8732 6.81056e-20)
(2.48682 -3.71065 -1.12736e-19)
(2.3999 -3.5606 1.66636e-20)
(2.31971 -3.42267 1.76197e-19)
(2.24588 -3.29317 -8.88161e-20)
(2.17698 -3.17032 -9.00411e-20)
(2.11172 -3.05308 -7.64016e-20)
(2.04934 -2.9407 4.05881e-21)
(1.98933 -2.83271 4.79804e-20)
(1.93138 -2.72879 -3.35004e-20)
(1.87533 -2.62876 2.33939e-21)
(1.82108 -2.53253 1.00539e-19)
(1.76861 -2.44003 -5.06772e-20)
(1.71793 -2.35121 1.24633e-20)
(1.66907 -2.26605 -3.949e-20)
(1.62206 -2.1845 1.51035e-20)
(1.57694 -2.10652 3.20957e-20)
(1.53375 -2.03205 3.52675e-20)
(1.4925 -1.96101 -3.8624e-20)
(1.4532 -1.8933 5.71586e-21)
(1.41586 -1.82881 3.2269e-20)
(1.38045 -1.7674 5.52316e-20)
(1.34696 -1.70891 1.41896e-20)
(1.31533 -1.65313 -5.62076e-20)
(1.28549 -1.59987 6.473e-20)
(1.25731 -1.54887 -3.24077e-20)
(1.23081 -1.49981 -3.82271e-20)
(1.20621 -1.45215 -2.32376e-20)
(1.18224 -1.40631 -3.23653e-20)
(2.84073 -3.96256 9.77051e-20)
(2.69088 -3.8078 -7.73421e-20)
(2.58715 -3.64978 3.0577e-20)
(2.49757 -3.50347 1.51007e-19)
(2.4147 -3.36873 4.02047e-20)
(2.33814 -3.24196 -3.35225e-20)
(2.26643 -3.12145 8.10165e-20)
(2.19833 -3.00626 2.01514e-20)
(2.13307 -2.89571 7.35051e-20)
(2.07019 -2.78937 3.97549e-20)
(2.00939 -2.68697 2.09946e-21)
(1.95052 -2.58837 2.41957e-20)
(1.89351 -2.49349 -7.53436e-21)
(1.83835 -2.40229 1.28931e-20)
(1.78508 -2.31473 3.51251e-20)
(1.73371 -2.23078 -1.9019e-20)
(1.68431 -2.15043 4.64291e-20)
(1.63691 -2.07364 4.64505e-20)
(1.59153 -2.00034 -5.23422e-20)
(1.54822 -1.93047 5.37203e-20)
(1.50697 -1.86394 1.12139e-19)
(1.46779 -1.80064 -7.19938e-20)
(1.43067 -1.74044 7.14667e-20)
(1.39556 -1.68319 -4.99557e-20)
(1.36244 -1.62871 -6.95614e-21)
(1.33122 -1.57677 5.25013e-20)
(1.30179 -1.52714 -1.07742e-20)
(1.27415 -1.47946 3.88279e-20)
(1.24853 -1.43315 3.82911e-20)
(1.22362 -1.38864 -7.78355e-20)
(2.94433 -3.88826 -9.37346e-20)
(2.79234 -3.73975 4.52752e-20)
(2.68613 -3.58631 1.73608e-20)
(2.59399 -3.44376 -1.75551e-19)
(2.50853 -3.31223 -8.85078e-20)
(2.42927 -3.18821 6.5303e-20)
(2.35479 -3.07008 -1.78243e-19)
(2.28386 -2.95699 2.11735e-19)
(2.21575 -2.84833 -1.17454e-19)
(2.15 -2.7437 1.38148e-20)
(2.08635 -2.64289 -2.24827e-20)
(2.02467 -2.54579 -6.32496e-20)
(1.96491 -2.45233 1.30137e-19)
(1.90709 -2.36248 4.77073e-20)
(1.85122 -2.27624 -4.99242e-20)
(1.79738 -2.19358 1.42664e-21)
(1.74559 -2.11449 2.68186e-20)
(1.69592 -2.03893 -5.72418e-20)
(1.64839 -1.96685 1.22598e-20)
(1.60303 -1.89818 3.88126e-20)
(1.55985 -1.83286 -1.61809e-20)
(1.51884 -1.77078 2.59845e-20)
(1.48001 -1.71182 -5.11822e-20)
(1.4433 -1.65584 7.33317e-20)
(1.40869 -1.60265 1.66363e-20)
(1.3761 -1.55208 -4.59673e-20)
(1.34541 -1.50387 -3.91257e-20)
(1.31663 -1.45765 5.24596e-22)
(1.29001 -1.41278 5.36566e-20)
(1.2642 -1.36971 -1.32299e-20)
(3.04603 -3.81127 -2.52838e-20)
(2.89222 -3.6691 -1.79312e-19)
(2.78372 -3.52025 2.13177e-19)
(2.68913 -3.38146 1.41358e-19)
(2.60112 -3.25317 1.37644e-19)
(2.51921 -3.13193 3.65623e-20)
(2.44198 -3.01623 5.55878e-20)
(2.36824 -2.9053 2.77127e-20)
(2.29728 -2.79857 -1.08311e-19)
(2.22868 -2.69573 1.96938e-19)
(2.16219 -2.59657 -1.54319e-19)
(2.09772 -2.50103 -9.12887e-21)
(2.03522 -2.40905 2.27218e-20)
(1.97474 -2.32064 -9.50228e-20)
(1.91631 -2.23578 8.29473e-20)
(1.85999 -2.15447 -2.48987e-20)
(1.80585 -2.07669 -6.20233e-20)
(1.75393 -2.00241 2.33032e-20)
(1.70427 -1.9316 -4.52348e-20)
(1.65689 -1.86418 -3.94031e-20)
(1.61179 -1.8001 -4.14751e-20)
(1.56899 -1.73925 9.36829e-21)
(1.52846 -1.68153 5.02694e-21)
(1.49016 -1.62681 -9.93304e-20)
(1.45406 -1.57493 -3.70825e-20)
(1.42009 -1.52572 2.43064e-20)
(1.38812 -1.47896 2.95269e-20)
(1.3582 -1.43426 -4.0572e-20)
(1.33058 -1.39092 -1.524e-20)
(1.30387 -1.3494 1.69613e-21)
(3.14583 -3.73163 -2.38596e-20)
(2.9905 -3.59586 1.16182e-19)
(2.87988 -3.4516 -3.30103e-20)
(2.78291 -3.31658 -4.0374e-20)
(2.69239 -3.19155 -2.13022e-19)
(2.60785 -3.07313 -4.46887e-20)
(2.52791 -2.95991 8.61557e-20)
(2.45138 -2.85118 -5.54336e-20)
(2.37759 -2.74646 -5.44211e-21)
(2.30615 -2.64546 -1.09968e-20)
(2.23684 -2.54803 5.80906e-20)
(2.16957 -2.45411 -9.1477e-20)
(2.10436 -2.3637 -5.99643e-20)
(2.04123 -2.27678 6.93673e-20)
(1.98025 -2.19337 -3.89097e-20)
(1.9215 -2.11347 -4.60621e-20)
(1.86503 -2.03707 9.80712e-20)
(1.81089 -1.96414 -1.54509e-20)
(1.75913 -1.89463 5.60834e-20)
(1.70976 -1.8285 -5.14273e-20)
(1.66279 -1.76567 -4.0769e-20)
(1.61822 -1.70606 3.53152e-20)
(1.57602 -1.64957 -4.16528e-21)
(1.53615 -1.5961 -2.5932e-20)
(1.49857 -1.54549 2.26555e-20)
(1.46321 -1.49761 -6.96987e-20)
(1.42996 -1.45228 4.25965e-20)
(1.39885 -1.40912 -6.77214e-22)
(1.37021 -1.36738 -4.34866e-20)
(1.34262 -1.32749 6.68254e-20)
(3.24382 -3.64942 8.93404e-20)
(3.08725 -3.52007 -2.30367e-19)
(2.97457 -3.38035 -1.80258e-20)
(2.87526 -3.24909 1.02778e-19)
(2.78225 -3.12735 -2.57822e-20)
(2.69512 -3.0118 -7.137e-20)
(2.61248 -2.90111 3.30161e-20)
(2.53318 -2.79466 3.70967e-20)
(2.45658 -2.69201 2.93405e-21)
(2.38232 -2.59292 4.42453e-20)
(2.3102 -2.49728 1.38688e-19)
(2.24017 -2.40507 -4.91661e-20)
(2.17225 -2.31628 1.18026e-20)
(2.1065 -2.23094 -3.09188e-20)
(2.043 -2.14905 1.19577e-19)
(1.98183 -2.07064 -2.10613e-20)
(1.92306 -1.99567 6.89787e-20)
(1.86675 -1.92414 -2.63691e-20)
(1.81293 -1.85599 2.81284e-20)
(1.76161 -1.79118 4.20186e-20)
(1.71282 -1.72963 6.99151e-21)
(1.66652 -1.67127 2.76645e-20)
(1.62269 -1.616 -2.25907e-20)
(1.5813 -1.56373 6.29083e-20)
(1.54227 -1.51433 -2.5501e-20)
(1.50554 -1.46769 9.24762e-20)
(1.47098 -1.42369 -2.67523e-20)
(1.43864 -1.382 1.8091e-20)
(1.40894 -1.34184 -3.40013e-20)
(1.38051 -1.30365 6.4881e-20)
(3.34037 -3.56477 -1.99593e-19)
(3.18258 -3.44169 7.95278e-21)
(3.06774 -3.30642 -1.13101e-19)
(2.96605 -3.17895 2.03033e-20)
(2.87058 -3.06056 5.42993e-21)
(2.78088 -2.94795 -9.44409e-20)
(2.69558 -2.83987 -1.74484e-19)
(2.61355 -2.73575 8.5908e-20)
(2.53417 -2.63524 -1.20885e-19)
(2.45709 -2.53814 -6.20193e-20)
(2.38218 -2.44437 -3.45523e-20)
(2.30941 -2.35393 -2.68933e-20)
(2.23881 -2.26685 2.7271e-22)
(2.17047 -2.18315 -9.54282e-20)
(2.10448 -2.10286 6.05882e-20)
(2.04093 -2.02599 -9.98086e-20)
(1.9799 -1.95254 -2.47601e-20)
(1.92145 -1.88246 2.67771e-20)
(1.86562 -1.81573 3.33341e-20)
(1.81242 -1.75228 3.27728e-20)
(1.76185 -1.69205 2.47907e-20)
(1.71389 -1.63494 -6.19024e-20)
(1.66851 -1.58089 6.19528e-20)
(1.62566 -1.52977 -6.6493e-21)
(1.58525 -1.48148 -1.64264e-20)
(1.5472 -1.43593 -6.42531e-20)
(1.51134 -1.39302 -3.36602e-20)
(1.47769 -1.35247 6.20541e-20)
(1.44675 -1.31355 -2.04454e-20)
(1.41734 -1.27715 -2.09573e-20)
(3.43593 -3.47734 8.81482e-20)
(3.27654 -3.36031 9.44581e-21)
(3.15924 -3.22963 -2.24676e-20)
(3.05512 -3.10613 -3.91698e-21)
(2.95725 -2.99121 -3.75704e-20)
(2.86504 -2.88162 1.27635e-19)
(2.77713 -2.77622 -5.91298e-20)
(2.6924 -2.67451 3.90758e-20)
(2.61026 -2.5762 1.63605e-20)
(2.53041 -2.48115 5.53236e-20)
(2.45273 -2.38932 -2.02642e-20)
(2.37723 -2.30074 1.15838e-19)
(2.30397 -2.21544 -9.81128e-21)
(2.23307 -2.13347 7.26525e-20)
(2.16462 -2.05485 -1.20152e-19)
(2.09873 -1.9796 -8.26657e-21)
(2.03549 -1.90772 7.63798e-20)
(1.97495 -1.83917 -4.66825e-20)
(1.91715 -1.77391 -3.25678e-20)
(1.86212 -1.71188 -5.54143e-20)
(1.80986 -1.65301 -4.76655e-20)
(1.76033 -1.5972 5.17116e-20)
(1.7135 -1.54437 -4.74774e-20)
(1.66931 -1.4944 1.06493e-20)
(1.62769 -1.44716 3.81465e-20)
(1.58852 -1.40253 2.60858e-20)
(1.55162 -1.36035 2.44987e-20)
(1.51685 -1.32026 1.76608e-20)
(1.48437 -1.28182 -4.80628e-20)
(1.45343 -1.24677 -2.06666e-20)
(4.94379 -0.029412 1.12121e-21)
(4.93901 -0.159555 1.06875e-20)
(4.93118 -0.28888 3.72252e-20)
(4.92027 -0.417671 2.02455e-20)
(4.90604 -0.545989 -4.36902e-20)
(4.88845 -0.673802 1.31459e-20)
(4.86749 -0.801046 -1.35754e-20)
(4.84318 -0.927642 -3.46896e-20)
(4.81554 -1.0535 9.07229e-20)
(4.78458 -1.17855 -2.16672e-20)
(4.75034 -1.30268 -2.11922e-20)
(4.71285 -1.42583 -4.61315e-20)
(4.67215 -1.5479 -1.33584e-19)
(4.62826 -1.66882 1.23936e-20)
(4.58123 -1.78849 -4.56288e-21)
(4.5311 -1.90684 -4.38106e-20)
(4.4779 -2.0238 9.04117e-20)
(4.42169 -2.13927 5.0196e-20)
(4.3625 -2.2532 9.42245e-20)
(4.30038 -2.3655 4.56442e-20)
(4.23538 -2.47609 -1.06192e-19)
(4.16756 -2.58492 4.57353e-21)
(4.09695 -2.69191 -2.0149e-19)
(4.02363 -2.79699 3.06596e-19)
(3.94763 -2.9001 -9.9849e-20)
(3.86903 -3.00119 -1.32308e-19)
(3.78787 -3.1002 -1.92404e-20)
(3.70424 -3.1971 -2.18679e-21)