/*--------------------------------*- C++ -*----------------------------------*\
  =========                 |
  \\      /  F ield         | OpenFOAM: The Open Source CFD Toolbox
   \\    /   O peration     | Website:  https://openfoam.org
    \\  /    A nd           | Version:  6.0
     \\/     M anipulation  |
\*---------------------------------------------------------------------------*/
FoamFile
{
    version     2.0;
    format      ascii;
    class       volVectorField;
    location    "22.75";
    object      U;
}
// * * * * * * * * * * * * * * * * * * * * * * * * * * * * * * * * * * * * * //

dimensions      [0 1 -1 0 0 0 0];

internalField   nonuniform List<vector> 
2400
(
(1.33299 -8.32364 -8.88175e-19)
(0.376556 -7.60527 3.48321e-19)
(0.574651 -7.28641 -2.97806e-19)
(0.814583 -7.02456 -1.72379e-19)
(0.946116 -6.7566 -2.43552e-19)
(1.03541 -6.46839 3.36681e-19)
(1.10315 -6.17072 1.14701e-19)
(1.15318 -5.87961 8.50576e-20)
(1.19394 -5.60638 -1.91429e-19)
(1.2278 -5.35632 -1.26348e-20)
(2.00239 -8.27232 1.03934e-18)
(1.00075 -7.72243 -4.63374e-20)
(1.1715 -7.42156 2.13858e-19)
(1.38209 -7.14157 1.64739e-18)
(1.48172 -6.8504 -1.13242e-18)
(1.53797 -6.53919 -5.219e-20)
(1.57348 -6.22222 -1.50458e-20)
(1.59391 -5.91703 -1.25214e-19)
(1.60917 -5.63445 -1.66032e-19)
(1.61972 -5.37991 -1.87526e-20)
(2.67286 -8.16985 1.89915e-18)
(1.64278 -7.7869 1.503e-18)
(1.78751 -7.50177 -3.82013e-18)
(1.9653 -7.20361 1.1143e-18)
(2.02897 -6.8912 1.52179e-18)
(2.04862 -6.56035 -8.55633e-19)
(2.04925 -6.22812 -6.46128e-19)
(2.03852 -5.91286 4.83794e-19)
(2.02738 -5.62446 -1.00547e-18)
(2.01306 -5.3692 9.44403e-19)
(3.33887 -8.01422 -6.54853e-18)
(2.29739 -7.79488 2.46371e-18)
(2.41681 -7.52349 -2.34253e-18)
(2.55823 -7.20792 1.00451e-18)
(2.58212 -6.87705 -1.0069e-18)
(2.56203 -6.53057 1.39145e-18)
(2.52561 -6.18751 5.11541e-19)
(2.48261 -5.86637 -1.97477e-18)
(2.44454 -5.5759 -1.59967e-18)
(2.40409 -5.3244 1.64264e-18)
(3.99638 -7.80439 3.53381e-19)
(2.95928 -7.74358 -9.78706e-19)
(3.0535 -7.48428 -4.20481e-19)
(3.155 -7.15291 -4.86282e-19)
(3.1357 -6.80712 -2.5404e-18)
(3.07322 -6.44946 3.62042e-19)
(2.99795 -6.10015 -2.25689e-19)
(2.92168 -5.77719 2.04634e-18)
(2.85592 -5.48832 -1.39863e-18)
(2.78798 -5.24517 -7.69528e-19)
(4.64013 -7.53948 5.94256e-18)
(3.62215 -7.6306 -4.80733e-19)
(3.69095 -7.38217 6.53074e-18)
(3.74927 -7.03749 -8.70484e-19)
(3.68409 -6.68118 3.11147e-18)
(3.57749 -6.3175 -3.77114e-19)
(3.46237 -5.96693 1.90215e-20)
(3.35216 -5.64624 1.7415e-18)
(3.25765 -5.36223 -9.41896e-19)
(3.16082 -5.13091 1.26407e-18)
(5.26524 -7.21952 -2.34517e-18)
(4.2798 -7.45457 5.04212e-19)
(4.32238 -7.21601 -1.76621e-18)
(4.3343 -6.86106 -1.59666e-18)
(4.22099 -6.49921 2.20418e-20)
(4.06941 -6.13538 4.78249e-18)
(3.91485 -5.78934 -1.67476e-18)
(3.77173 -5.47564 5.73462e-19)
(3.64899 -5.19968 -2.34055e-18)
(3.5234 -4.98272 -1.03388e-18)
(5.86701 -6.84539 9.87744e-18)
(4.92626 -7.21494 -1.26981e-18)
(4.94126 -6.98522 -9.00827e-18)
(4.90333 -6.62318 4.73498e-19)
(4.73925 -6.26073 1.62981e-18)
(4.54129 -5.90245 -2.2628e-18)
(4.34769 -5.56672 -2.67309e-18)
(4.17432 -5.26511 3.91819e-18)
(4.02738 -5.00219 -3.58004e-19)
(3.87695 -4.80804 -2.84527e-18)
(6.44131 -6.41865 -8.12703e-18)
(5.5564 -6.91202 4.15814e-18)
(5.54229 -6.69027 5.68185e-18)
(5.45135 -6.32432 1.35685e-18)
(5.23365 -5.96548 -4.68255e-18)
(4.98617 -5.61679 2.83275e-18)
(4.75005 -5.29461 1.52709e-18)
(4.54374 -5.00856 3.03275e-18)
(4.37195 -4.76786 -1.90734e-18)
(4.19866 -4.61951 -2.42276e-18)
(6.98336 -5.94047 2.63878e-18)
(6.16496 -6.54685 -1.05211e-18)
(6.12095 -6.33302 -2.85973e-19)
(5.97543 -5.9665 1.3034e-18)
(5.70358 -5.61465 9.72427e-19)
(5.40536 -5.27735 -7.35959e-19)
(5.12162 -4.96858 -1.25929e-18)
(4.86855 -4.69914 1.91814e-18)
(4.64653 -4.49039 -1.56429e-18)
(4.42584 -4.40095 1.36077e-18)
(9.79156 0.830995 1.5109e-19)
(9.76507 0.0575245 4.73772e-19)
(9.67248 -0.708347 -1.49588e-18)
(9.51979 -1.46142 1.37054e-18)
(9.31046 -2.19403 5.40228e-19)
(9.04565 -2.90206 7.01849e-18)
(8.72753 -3.5818 -2.76789e-18)
(8.35969 -4.22916 -3.97811e-18)
(7.94413 -4.84071 4.52563e-18)
(7.48644 -5.41199 -7.84787e-18)
(9.90556 -0.315338 4.3343e-19)
(9.78914 -1.0741 -2.06763e-19)
(9.60402 -1.82007 -1.28943e-18)
(9.35476 -2.54669 3.43852e-18)
(9.04572 -3.2431 -1.20525e-18)
(8.68057 -3.90493 9.37171e-18)
(8.26313 -4.52796 -6.14729e-18)
(7.79845 -5.10788 8.96899e-18)
(7.29055 -5.64045 -6.49383e-18)
(6.74537 -6.12192 -3.39334e-18)
(9.54319 -0.304502 -8.14192e-19)
(9.45872 -1.02368 5.69662e-20)
(9.30887 -1.73628 -3.5544e-18)
(9.09495 -2.43415 2.69956e-18)
(8.81982 -3.10638 -2.9997e-18)
(8.48748 -3.74853 -5.90545e-18)
(8.10162 -4.3556 -2.07969e-18)
(7.66728 -4.92309 -1.50751e-18)
(7.18891 -5.44521 6.00899e-18)
(6.67199 -5.91662 3.5217e-18)
(8.93393 -0.221351 3.32747e-19)
(8.88246 -0.887778 -5.7903e-19)
(8.77104 -1.5519 -8.07003e-19)
(8.59907 -2.20561 -3.31913e-18)
(8.36897 -2.84 2.18825e-18)
(8.08369 -3.45085 6.10101e-18)
(7.74731 -4.03317 2.4719e-18)
(7.36336 -4.5816 5.31476e-19)
(6.93645 -5.08988 1.45477e-18)
(6.47236 -5.55342 1.50201e-19)
(8.31621 -0.210014 -3.52918e-19)
(8.27935 -0.824393 -1.39068e-18)
(8.18792 -1.43763 1.23899e-19)
(8.04092 -2.04333 2.62059e-18)
(7.84095 -2.63422 2.85918e-18)
(7.58959 -3.20709 -1.96549e-18)
(7.29115 -3.75603 -3.51749e-18)
(6.9479 -4.27698 -1.87674e-18)
(6.56591 -4.76391 2.04473e-18)
(6.14934 -5.212 3.2791e-18)
(7.77283 -0.205006 8.50164e-20)
(7.74006 -0.773252 1.13747e-18)
(7.65775 -1.3402 -2.6772e-18)
(7.52447 -1.90164 3.28484e-18)
(7.34357 -2.45075 2.00323e-18)
(7.1147 -2.98614 3.85402e-18)
(6.84373 -3.50057 -8.21765e-19)
(6.5301 -3.99354 -2.40078e-18)
(6.18403 -4.45655 5.64111e-18)
(5.80599 -4.88743 -4.95473e-18)
(7.31582 -0.19547 1.67749e-19)
(7.28224 -0.724199 -1.23621e-18)
(7.20374 -1.25097 -8.00726e-19)
(7.07752 -1.77375 -1.7537e-18)
(6.90896 -2.28478 -2.51127e-19)
(6.69382 -2.78612 -2.54545e-18)
(6.44265 -3.26759 -1.68234e-18)
(6.14831 -3.73572 -2.78476e-19)
(5.83076 -4.17511 -3.36033e-18)
(5.48096 -4.59107 4.70471e-18)
(6.93275 -0.183736 -1.38168e-19)
(6.89651 -0.679368 1.01761e-18)
(6.81973 -1.17202 -4.54353e-19)
(6.69681 -1.66177 9.89127e-19)
(6.53711 -2.13867 2.39792e-18)
(6.32952 -2.60997 4.05978e-18)
(6.09375 -3.05985 -1.08058e-18)
(5.80844 -3.50832 -3.98104e-18)
(5.51546 -3.92616 1.20696e-18)
(5.18064 -4.3362 -7.22364e-18)
(6.60554 -0.166177 1.95146e-19)
(6.56636 -0.635278 -2.32303e-19)
(6.49108 -1.10055 -2.24613e-18)
(6.36937 -1.56401 6.79954e-19)
(6.21736 -2.01259 -1.64045e-18)
(6.01235 -2.45956 -7.2133e-19)
(5.78967 -2.88045 -4.62024e-19)
(5.5014 -3.31593 1.82337e-18)
(5.231 -3.71552 1.76223e-18)
(4.88465 -4.15079 1.4442e-18)
(6.31719 -0.152937 -4.4016e-19)
(6.27394 -0.598623 7.64831e-19)
(6.19998 -1.04134 3.77868e-19)
(6.07724 -1.48529 1.04761e-18)
(5.93223 -1.91378 -1.08375e-19)
(5.72397 -2.34621 -8.42891e-20)
(5.51155 -2.74653 -2.56239e-18)
(5.2042 -3.17865 3.46963e-18)
(4.95126 -3.55654 -2.23727e-18)
(4.55521 -4.06465 6.72213e-19)
(6.51946 7.73192 -4.56659e-18)
(7.1092 7.20218 4.74614e-18)
(7.64868 6.62172 -2.60795e-19)
(8.13465 5.99622 -7.94933e-18)
(8.563 5.33077 5.74025e-18)
(8.9303 4.63113 -3.96643e-18)
(9.23398 3.90281 -8.88392e-19)
(9.47268 3.15277 -8.33734e-19)
(9.6446 2.38776 1.32957e-18)
(9.7509 1.61174 9.46732e-20)
(7.29706 6.6377 5.51765e-18)
(7.83543 6.10015 1.04942e-18)
(8.32219 5.51194 -5.43643e-18)
(8.75263 4.87823 -5.59815e-18)
(9.12206 4.20405 4.60911e-18)
(9.4269 3.4961 -3.64379e-18)
(9.66403 2.76031 4.03316e-18)
(9.83131 2.00427 -1.13795e-18)
(9.92743 1.23775 -3.35597e-18)
(9.95237 0.460421 -2.31353e-19)
(6.86692 6.03587 -9.46672e-19)
(7.38262 5.56805 -7.40454e-19)
(7.85435 5.05022 3.05325e-18)
(8.27681 4.48596 2.81079e-18)
(8.64517 3.87941 6.05119e-18)
(8.95571 3.23676 1.90374e-18)
(9.20489 2.56309 -1.36266e-18)
(9.38969 1.86587 -2.85189e-18)
(9.50879 1.15327 2.2718e-18)
(9.56055 0.425139 1.62423e-19)
(6.30668 5.46248 1.39671e-18)
(6.78568 5.05734 -3.16417e-18)
(7.22705 4.60514 -1.22534e-18)
(7.62591 4.10802 -5.26774e-18)
(7.97802 3.56976 -2.74464e-18)
(8.27986 2.99578 5.12494e-18)
(8.52795 2.39072 3.24141e-18)
(8.71923 1.76102 -2.72883e-18)
(8.85237 1.1127 1.16885e-19)
(8.9246 0.447918 -1.14934e-19)
(5.88227 4.9472 -4.9334e-18)
(6.31867 4.58487 5.49518e-18)
(6.72061 4.17908 -1.38692e-18)
(7.0845 3.73075 2.78406e-18)
(7.40715 3.24398 -1.84906e-18)
(7.68537 2.72388 -3.01775e-18)
(7.916 2.17473 1.42379e-18)
(8.09626 1.60175 -1.52467e-18)
(8.22471 1.00998 -1.4482e-18)
(8.29842 0.40307 6.0985e-19)
(5.56116 4.54045 -6.69673e-19)
(5.96015 4.20942 1.04278e-18)
(6.3249 3.83727 -1.2173e-18)
(6.65417 3.42447 -5.461e-18)
(6.94639 2.97631 2.92033e-18)
(7.19859 2.49766 4.59977e-19)
(7.4078 1.99224 -2.55793e-18)
(7.57146 1.46447 -8.67884e-19)
(7.68824 0.919168 7.79869e-19)
(7.7555 0.360393 -2.23905e-19)
(5.30866 4.22256 -2.6725e-18)
(5.67783 3.91683 -1.005e-20)
(6.0116 3.5693 1.21995e-18)
(6.31068 3.18296 3.09945e-18)
(6.57571 2.76503 6.26226e-19)
(6.80408 2.31913 1.50145e-18)
(6.99298 1.84827 2.89103e-18)
(7.1399 1.35668 -1.22158e-18)
(7.24395 0.849295 1.02352e-18)
(7.30253 0.330006 -3.8256e-19)
(5.09859 3.96913 -9.17713e-19)
(5.43962 3.6887 1.05343e-18)
(5.74984 3.35811 1.01595e-18)
(6.02564 2.99174 -1.45871e-18)
(6.26855 2.59861 -7.8645e-19)
(6.47683 2.17896 -1.70658e-18)
(6.64849 1.73528 1.5363e-19)
(6.781 1.27245 -3.76303e-19)
(6.87394 0.795757 -2.17412e-18)
(6.92416 0.308642 2.90156e-19)
(4.93821 3.75513 -3.35251e-19)
(5.23155 3.51092 -1.79932e-18)
(5.51792 3.19151 -6.89279e-19)
(5.77772 2.84158 3.07336e-19)
(6.00346 2.4708 -1.83283e-19)
(6.19459 2.07339 1.50936e-18)
(6.35194 1.6518 5.91206e-19)
(6.47296 1.21219 8.67217e-19)
(6.55739 0.760407 1.01697e-18)
(6.60075 0.299331 -4.13669e-19)
(4.89632 3.52478 -1.25206e-18)
(5.10975 3.32089 2.12981e-18)
(5.34331 3.01145 -3.35624e-18)
(5.58369 2.67873 -7.51103e-20)
(5.79111 2.33161 2.66174e-18)
(5.9604 1.95899 1.25847e-19)
(6.0992 1.56247 1.12936e-18)
(6.20632 1.14819 -2.32243e-18)
(6.28113 0.722306 -1.88738e-20)
(6.31672 0.28705 2.02621e-19)
(1.12274 4.59383 7.10085e-20)
(1.07924 4.78973 -2.53526e-20)
(1.03943 5.01078 -1.68909e-20)
(0.985119 5.27316 1.9007e-19)
(0.916919 5.6062 -8.53334e-20)
(0.834028 6.05903 -3.08044e-19)
(0.743674 6.70227 3.55692e-19)
(0.709232 7.59879 1.22158e-19)
(0.562692 8.67649 1.8674e-19)
(-0.789913 9.62403 7.91877e-19)
(1.47882 4.6238 1.84724e-19)
(1.4543 4.83124 -5.24479e-19)
(1.43277 5.06355 5.26068e-19)
(1.40088 5.33822 1.10506e-19)
(1.36125 5.68432 -2.24981e-19)
(1.31622 6.15018 2.48311e-19)
(1.27811 6.80323 8.87568e-19)
(1.31403 7.69437 -1.12902e-18)
(1.24873 8.74917 3.91708e-20)
(-0.0351823 9.72143 -9.46968e-19)
(1.84401 4.62692 7.96422e-19)
(1.83913 4.84365 -9.97429e-19)
(1.83716 5.08472 -3.93757e-19)
(1.8295 5.36889 -3.42531e-20)
(1.82036 5.72506 -3.95268e-19)
(1.81503 6.20044 -1.71518e-19)
(1.8304 6.85866 2.93295e-19)
(1.93569 7.73821 8.17545e-19)
(1.94749 8.76318 6.17818e-19)
(0.729359 9.756 -1.74023e-18)
(2.2197 4.59024 7.82255e-19)
(2.23399 4.81658 -8.42893e-19)
(2.25194 5.0668 -8.31802e-19)
(2.26949 5.35993 4.84315e-19)
(2.29192 5.72456 2.52336e-18)
(2.32729 6.20661 -9.87833e-19)
(2.39662 6.86562 7.76289e-19)
(2.56963 7.72768 -2.58992e-18)
(2.6538 8.71673 -2.90256e-18)
(1.49844 9.72713 3.31527e-18)
(2.59718 4.53094 5.94113e-19)
(2.63095 4.7629 -3.79127e-19)
(2.67014 5.01766 1.10407e-18)
(2.71474 5.3151 -9.66105e-19)
(2.77049 5.6838 7.27501e-19)
(2.84797 6.16802 6.26433e-19)
(2.97177 6.82248 6.07649e-19)
(3.21061 7.6608 4.70275e-19)
(3.36215 8.60813 1.8363e-18)
(2.26652 9.63375 1.56886e-18)
(2.98587 4.41818 -1.85258e-18)
(3.03636 4.66102 -4.73406e-19)
(3.09519 4.92396 2.00736e-18)
(3.16591 5.22675 -2.19976e-18)
(3.25439 5.59844 -1.01304e-18)
(3.37364 6.08193 -2.47243e-18)
(3.5512 6.72728 1.31025e-19)
(3.85309 7.53608 -2.57945e-18)
(4.06646 8.4365 -3.04801e-19)
(3.02773 9.47554 -4.80397e-18)
(3.365 4.29713 2.73927e-18)
(3.43354 4.54205 -4.3174e-18)
(3.51394 4.80401 2.37396e-18)
(3.61303 5.10406 1.2024e-18)
(3.73609 5.47228 -2.73305e-19)
(3.89813 5.94936 3.39212e-18)
(4.12905 6.57965 -2.17168e-18)
(4.49103 7.35274 -5.3574e-18)
(4.76032 8.20123 -7.35569e-19)
(3.77612 9.25224 4.42399e-18)
(3.7671 4.09963 -1.84005e-20)
(3.84325 4.36348 2.0664e-18)
(3.93681 4.63474 -9.72089e-19)
(4.05922 4.93595 9.91038e-19)
(4.21428 5.30049 9.99401e-19)
(4.41752 5.76826 -1.63931e-18)
(4.69993 6.37865 1.1696e-18)
(5.11811 7.11047 -2.59433e-18)
(5.43718 7.90292 7.00502e-18)
(4.50545 8.96531 -2.29739e-18)
(4.14035 3.93282 -1.31205e-18)
(4.22949 4.19093 -6.35262e-19)
(4.34016 4.44989 2.82476e-18)
(4.4907 4.73739 -4.01595e-18)
(4.68047 5.08907 3.93276e-18)
(4.92514 5.54082 -1.99653e-18)
(5.25749 6.12513 -3.35455e-18)
(5.72764 6.80972 7.21633e-19)
(6.09011 7.54209 -1.20869e-17)
(5.20993 8.61486 8.43835e-18)
(4.55912 3.673 3.42808e-18)
(4.61994 3.94858 -2.8669e-18)
(4.73311 4.21574 2.9287e-18)
(4.90934 4.4962 -2.3367e-19)
(5.13171 4.83455 -3.00837e-18)
(5.41562 5.26658 -1.55238e-18)
(5.79527 5.8192 1.75718e-18)
(6.31302 6.45093 4.63709e-18)
(6.71289 7.12008 5.76302e-18)
(5.88303 8.20481 2.73271e-20)
(-1.48489 3.05203 -5.81944e-19)
(-1.62322 3.05701 4.1098e-19)
(-1.77282 3.11467 -2.05511e-19)
(-1.95488 3.20982 4.84042e-19)
(-2.19407 3.35141 4.32781e-19)
(-2.52793 3.57395 7.74412e-19)
(-3.00792 3.94369 1.23046e-18)
(-3.66343 4.5885 7.45298e-19)
(-4.65524 5.45572 1.22137e-18)
(-6.73548 5.76166 -8.77559e-19)
(-1.35124 3.26766 3.77214e-19)
(-1.48256 3.29946 4.22053e-19)
(-1.6154 3.38108 -6.42474e-19)
(-1.78465 3.49424 -3.73147e-19)
(-2.0114 3.65456 -7.21386e-19)
(-2.32848 3.90207 1.4321e-18)
(-2.78171 4.30706 -6.72242e-19)
(-3.38814 4.99702 -1.7383e-18)
(-4.3043 5.92062 -1.5016e-18)
(-6.32218 6.32967 2.23459e-18)
(-1.15873 3.46586 -1.12929e-19)
(-1.28996 3.52881 1.12325e-19)
(-1.41814 3.63129 -1.0321e-18)
(-1.58144 3.76309 6.78657e-19)
(-1.79857 3.94486 6.74197e-19)
(-2.09885 4.21949 -4.56904e-19)
(-2.52306 4.66003 -1.29133e-20)
(-3.07662 5.39204 3.14663e-18)
(-3.91286 6.36459 5.88808e-19)
(-5.86229 6.86744 -1.7523e-18)
(-0.938648 3.66616 -1.10563e-18)
(-1.06786 3.75097 6.81293e-19)
(-1.19148 3.87001 -1.78704e-19)
(-1.34823 4.01954 5.53805e-19)
(-1.55484 4.22284 -1.49701e-18)
(-1.83705 4.52455 -4.51023e-21)
(-2.22979 4.99954 2.76175e-19)
(-2.72736 5.76992 7.6884e-21)
(-3.4807 6.78394 -1.55236e-19)
(-5.35767 7.3715 2.36559e-18)
(-0.699677 3.85882 9.97489e-19)
(-0.823796 3.96151 3.26929e-20)
(-0.940608 4.09627 -5.94969e-19)
(-1.08846 4.26318 1.56506e-20)
(-1.28208 4.48738 1.04263e-19)
(-1.54361 4.81515 -1.1285e-18)
(-1.90176 5.32262 3.32263e-19)
(-2.34002 6.12695 -3.66483e-19)
(-3.00799 7.17453 -5.53031e-20)
(-4.80992 7.83763 -2.99687e-18)
(-0.44098 4.03486 -2.69802e-20)
(-0.557238 4.15537 8.06972e-19)
(-0.665444 4.30621 -7.82695e-19)
(-0.802567 4.49062 7.50379e-20)
(-0.980955 4.73531 -1.91929e-19)
(-1.21908 5.08803 1.03844e-18)
(-1.53948 5.62574 2.18807e-19)
(-1.91529 6.45912 1.26417e-19)
(-2.49615 7.53208 8.97478e-19)
(-4.22153 8.26164 6.15087e-19)
(-0.162116 4.19175 -6.40274e-19)
(-0.268071 4.32996 6.86396e-19)
(-0.366128 4.49672 3.24691e-20)
(-0.490798 4.69845 1.10433e-18)
(-0.651808 4.96312 -6.48163e-19)
(-0.863968 5.33959 4.87981e-19)
(-1.14357 5.90493 -4.73805e-19)
(-1.45442 6.76229 1.1565e-18)
(-1.94708 7.85226 1.1876e-18)
(-3.59539 8.63962 1.36042e-18)
(0.135658 4.32807 -4.38697e-19)
(0.0423 4.48286 5.04348e-19)
(-0.04395 4.66481 -2.46321e-19)
(-0.154234 4.88333 -1.93851e-19)
(-0.295584 5.16721 4.64911e-19)
(-0.479189 5.56596 -8.10413e-19)
(-0.715194 6.15606 -6.05667e-19)
(-0.958951 7.03196 2.16073e-18)
(-1.36337 8.13082 -4.34052e-19)
(-2.93535 8.96813 -1.56602e-18)
(0.450088 4.44267 -4.76723e-19)
(0.371554 4.6125 9.87477e-20)
(0.299018 4.80854 6.17575e-20)
(0.205285 5.04284 2.24061e-22)
(0.0860023 5.34466 -3.10898e-19)
(-0.0664523 5.76374 1.03813e-18)
(-0.256187 6.3753 -1.02981e-18)
(-0.431178 7.26408 -1.42331e-19)
(-0.748008 8.36368 1.9639e-20)
(-2.24473 9.24372 -1.26734e-18)
(0.779808 4.5314 1.56553e-19)
(0.718013 4.71494 2.32564e-20)
(0.660991 4.92419 -5.24021e-20)
(0.585932 5.17336 -7.8669e-20)
(0.491068 5.49179 -2.15542e-19)
(0.372249 5.92907 1.66548e-19)
(0.231164 6.55842 1.04704e-19)
(0.126096 7.45414 2.03188e-19)
(-0.104683 8.54693 -2.81662e-19)
(-1.52902 9.46379 2.57691e-19)
(-1.52839 2.74899 -4.75383e-19)
(-1.75358 2.41468 1.95195e-19)
(-1.88421 2.11799 -1.08246e-19)
(-2.03368 1.82889 -1.20509e-19)
(-2.15543 1.5416 -5.81602e-20)
(-2.26789 1.25447 3.38434e-21)
(-2.36635 0.965042 -3.20954e-20)
(-2.45416 0.672151 -2.87389e-20)
(-2.53106 0.374482 -1.82512e-20)
(-2.59725 0.0711355 1.05836e-20)
(-1.71789 2.78239 -3.78737e-19)
(-1.89983 2.46856 -1.92376e-19)
(-2.02794 2.16974 -3.19432e-19)
(-2.16565 1.8754 2.40001e-20)
(-2.28137 1.58367 1.02446e-19)
(-2.38881 1.29374 1.33922e-19)
(-2.4838 1.0026 -4.24282e-20)
(-2.56928 0.709033 1.38229e-19)
(-2.64486 0.411265 1.9982e-20)
(-2.71056 0.108009 -1.47292e-20)
(-1.90507 2.82629 1.06433e-18)
(-2.06341 2.5203 -1.02604e-19)
(-2.19089 2.22232 4.67413e-19)
(-2.31793 1.92475 8.99508e-20)
(-2.42803 1.62984 -4.20015e-19)
(-2.52949 1.33714 -2.09325e-19)
(-2.61985 1.04409 -8.93241e-20)
(-2.70132 0.749417 4.68236e-20)
(-2.77362 0.451114 -9.98832e-20)
(-2.8367 0.147622 1.28679e-20)
(-2.10522 2.90857 2.70464e-19)
(-2.25555 2.59891 5.73062e-19)
(-2.3836 2.29504 2.57716e-20)
(-2.50403 1.99108 2.26811e-19)
(-2.60972 1.69023 2.94073e-19)
(-2.7055 1.39175 2.96089e-20)
(-2.79063 1.09388 2.0607e-19)
(-2.86679 0.795295 9.09242e-20)
(-2.93403 0.493962 1.25824e-19)
(-2.99239 0.188155 -2.08984e-20)
(-2.35616 3.03659 9.68969e-19)
(-2.50604 2.71679 -1.06351e-18)
(-2.63563 2.4003 -8.87623e-20)
(-2.75262 2.08474 1.15759e-19)
(-2.85474 1.7728 -1.52402e-19)
(-2.94515 1.46367 -2.53996e-19)
(-3.02431 1.15623 -3.97022e-19)
(-3.0937 0.849161 3.41564e-19)
(-3.15374 0.540586 -3.57211e-20)
(-3.2047 0.228724 -1.55816e-20)
(-2.70346 3.23779 -1.75006e-18)
(-2.85922 2.89843 9.68975e-19)
(-2.99329 2.56059 3.45287e-19)
(-3.11035 2.2246 5.2379e-20)
(-3.21049 1.89249 3.16048e-19)
(-3.29626 1.56385 -4.34776e-19)
(-3.36883 1.23807 -3.79296e-19)
(-3.42968 0.914001 -8.51343e-21)
(-3.47963 0.590087 7.14284e-20)
(-3.5192 0.26468 4.98139e-20)
(-3.20545 3.57331 -4.8605e-19)
(-3.37702 3.20007 -2.69822e-19)
(-3.52297 2.82706 -9.48432e-20)
(-3.64675 2.45614 3.35694e-19)
(-3.74956 2.08898 -1.03912e-18)
(-3.83377 1.72585 -3.8077e-19)
(-3.90095 1.36666 5.14119e-19)
(-3.95269 1.01072 1.18808e-19)
(-3.99013 0.656978 8.76454e-20)
(-4.01411 0.304147 -5.22029e-20)
(-3.90437 4.17029 -1.5168e-18)
(-4.11283 3.74709 -1.36217e-18)
(-4.2895 3.3215 2.18148e-18)
(-4.43734 2.89641 4.34094e-19)
(-4.55798 2.47355 1.58823e-18)
(-4.65353 2.05405 4.04866e-20)
(-4.7257 1.6385 -4.33945e-19)
(-4.7761 1.22701 5.76262e-19)
(-4.80607 0.819251 1.03845e-20)
(-4.81667 0.414588 1.41722e-19)
(-4.96493 4.97391 8.59656e-20)
(-5.23399 4.48107 2.2107e-18)
(-5.46368 3.98033 -2.12796e-18)
(-5.65595 3.4753 1.44692e-18)
(-5.81238 2.96822 -1.96662e-18)
(-5.93433 2.46125 2.31195e-19)
(-6.02325 1.95602 -6.77742e-19)
(-6.08048 1.45381 2.37291e-19)
(-6.10736 0.955449 4.5076e-20)
(-6.10475 0.46147 -7.87453e-20)
(-7.09873 5.16626 6.63924e-19)
(-7.40907 4.55266 -1.94217e-18)
(-7.67138 3.92273 8.56042e-19)
(-7.88404 3.2816 -6.74565e-19)
(-8.04803 2.63231 3.37339e-19)
(-8.16331 1.97852 1.46077e-18)
(-8.23056 1.32344 1.77427e-19)
(-8.25051 0.670224 3.88778e-19)
(-8.22415 0.0217198 -2.01364e-19)
(-8.15185 -0.619396 -4.49912e-20)
(-2.6517 -0.238488 2.70814e-21)
(-2.69286 -0.554657 -2.86541e-20)
(-2.71878 -0.877089 2.09552e-19)
(-2.72706 -1.20465 -1.43513e-19)
(-2.71489 -1.53525 1.28439e-20)
(-2.67884 -1.86588 -1.91603e-19)
(-2.61343 -2.19398 8.63175e-19)
(-2.51038 -2.51856 1.16837e-19)
(-2.36518 -2.83161 -3.456e-19)
(-2.18656 -3.11377 7.12445e-19)
(-2.76525 -0.201823 3.52854e-20)
(-2.80717 -0.518877 -1.03343e-19)
(-2.83407 -0.843215 -8.41704e-20)
(-2.84317 -1.17409 -7.86048e-20)
(-2.83125 -1.50989 -2.52362e-19)
(-2.79492 -1.84825 -3.41006e-20)
(-2.73016 -2.18667 -2.55848e-20)
(-2.63063 -2.52263 3.72228e-19)
(-2.48838 -2.85196 7.37722e-19)
(-2.3056 -3.17841 -1.75735e-20)
(-2.88949 -0.162516 -3.04925e-20)
(-2.93029 -0.480296 2.66093e-19)
(-2.95687 -0.80618 5.54219e-20)
(-2.96649 -1.13993 -9.75531e-21)
(-2.95592 -1.48059 2.84762e-19)
(-2.92177 -1.82663 1.36541e-19)
(-2.86031 -2.17602 3.15428e-19)
(-2.76674 -2.52583 -1.97606e-19)
(-2.6357 -2.87416 -6.7709e-19)
(-2.46628 -3.228 -1.75982e-18)
(-3.04107 -0.123853 4.9433e-20)
(-3.07855 -0.443394 -1.27567e-19)
(-3.10282 -0.77137 1.92225e-19)
(-3.11129 -1.10812 -4.82533e-19)
(-3.10088 -1.45337 -2.77307e-19)
(-3.06819 -1.80637 -1.06426e-19)
(-3.00935 -2.16561 -7.30721e-19)
(-2.92009 -2.52877 -3.1967e-19)
(-2.79676 -2.89498 1.0903e-20)
(-2.63842 -3.26753 6.00331e-19)
(-3.24611 -0.0882836 3.5828e-20)
(-3.27679 -0.412019 9.45973e-21)
(-3.29497 -0.743744 1.43416e-19)
(-3.2984 -1.0843 4.79712e-19)
(-3.28425 -1.43407 -8.82854e-20)
(-3.24925 -1.79287 -8.18041e-19)
(-3.18966 -2.15986 1.36886e-18)
(-3.10148 -2.53364 -4.31718e-19)
(-2.9816 -2.9137 -4.54125e-19)
(-2.82873 -3.30039 -2.25217e-19)
(-3.54832 -0.0640139 -9.23383e-20)
(-3.56632 -0.397652 1.05241e-19)
(-3.57176 -0.737671 2.8216e-19)
(-3.56294 -1.08528 -2.56759e-19)
(-3.53742 -1.44128 6.54613e-19)
(-3.4924 -1.80607 -6.81477e-20)
(-3.42455 -2.17946 6.57639e-20)
(-3.33031 -2.56087 4.47967e-19)
(-3.20675 -2.94997 3.45901e-19)
(-3.05199 -3.34587 1.85744e-19)
(-4.02502 -0.0492312 1.85255e-20)
(-4.02287 -0.404535 -1.94655e-20)
(-4.00661 -0.7631 5.2902e-19)
(-3.97536 -1.12621 -6.27153e-19)
(-3.92736 -1.49489 -1.12475e-18)
(-3.86053 -1.8699 6.13975e-19)
(-3.77228 -2.25161 -3.01235e-19)
(-3.6598 -2.64008 3.88415e-19)
(-3.52046 -3.03521 1.11345e-18)
(-3.35203 -3.43608 -1.13703e-18)
(-4.80856 0.0123783 -3.14862e-20)
(-4.78261 -0.38774 -4.38028e-19)
(-4.73817 -0.786632 5.78504e-19)
(-4.67541 -1.18518 3.15434e-19)
(-4.59352 -1.58429 -1.03107e-18)
(-4.49136 -1.98455 -8.45773e-19)
(-4.36756 -2.38664 -9.50835e-20)
(-4.22033 -2.79091 3.9222e-20)
(-4.04774 -3.19758 3.88357e-19)
(-3.84776 -3.60625 -3.7784e-19)
(-6.07289 -0.0270537 4.02362e-20)
(-6.01344 -0.508576 7.03249e-19)
(-5.9267 -0.983129 2.90431e-19)
(-5.8137 -1.45038 -9.20259e-19)
(-5.67472 -1.91044 9.22271e-19)
(-5.50994 -2.36308 -1.29894e-18)
(-5.31925 -2.80822 1.51191e-18)
(-5.10265 -3.24625 -1.83445e-18)
(-4.8596 -3.67744 -1.00154e-18)
(-4.58886 -4.10135 -3.04788e-18)
(-8.03293 -1.25003 -1.99094e-20)
(-7.86956 -1.86433 -2.85921e-19)
(-7.66398 -2.463 2.32724e-19)
(-7.41745 -3.04245 2.41877e-19)
(-7.13149 -3.60099 -5.26285e-19)
(-6.80764 -4.13633 5.36557e-19)
(-6.44769 -4.6467 -7.17312e-19)
(-6.05372 -5.13081 6.08459e-19)
(-5.62781 -5.58779 -1.50545e-18)
(-5.17097 -6.01598 1.60039e-18)
(-4.68329 -6.41176 2.50593e-18)
(-4.28931 -4.51582 -1.46311e-18)
(-3.61834 -4.01516 -1.20017e-18)
(-3.15244 -3.84005 1.51773e-18)
(-2.86468 -3.74487 -6.82698e-20)
(-2.64304 -3.68957 1.25748e-18)
(-2.44775 -3.64399 3.85003e-20)
(-2.2659 -3.59292 -8.47723e-19)
(-2.0961 -3.53235 1.26337e-18)
(-1.97453 -3.44953 -2.46556e-19)
(-4.17149 -6.77113 -2.82085e-18)
(-3.96192 -4.91877 5.73745e-18)
(-3.35815 -4.42139 -4.02257e-19)
(-2.91953 -4.2431 -1.3431e-18)
(-2.64298 -4.14131 9.09132e-19)
(-2.424 -4.07268 -1.85222e-18)
(-2.22805 -4.00881 1.89592e-18)
(-2.04733 -3.93676 -1.26542e-18)
(-1.88602 -3.85381 3.47411e-19)
(-1.77729 -3.74727 7.21064e-19)
(-3.63459 -7.09818 1.75653e-18)
(-3.60492 -5.30915 -3.5389e-18)
(-3.06458 -4.82198 1.25848e-18)
(-2.6509 -4.6413 -5.43985e-19)
(-2.38473 -4.53096 8.65077e-19)
(-2.169 -4.44611 -6.07168e-19)
(-1.97384 -4.36101 -4.67208e-19)
(-1.79471 -4.26528 5.17012e-19)
(-1.63524 -4.15815 -1.03694e-18)
(-1.52056 -4.03199 1.18906e-18)
(-3.07537 -7.38997 -3.91489e-18)
(-3.21769 -5.68481 4.74445e-19)
(-2.7362 -5.21341 1.19145e-18)
(-2.3452 -5.02989 1.39638e-18)
(-2.08925 -4.90825 -2.16166e-18)
(-1.87848 -4.80378 1.31227e-19)
(-1.68707 -4.69431 -7.60444e-19)
(-1.5126 -4.57276 -1.31413e-18)
(-1.35744 -4.44088 2.47481e-18)
(-1.24044 -4.29585 5.71727e-19)
(-2.49477 -7.64581 2.89636e-18)
(-2.79893 -6.04324 5.75427e-19)
(-2.37136 -5.59155 1.71687e-18)
(-2.00125 -5.40377 -6.46256e-20)
(-1.75595 -5.26789 1.73211e-18)
(-1.55213 -5.14087 7.7658e-19)
(-1.36715 -5.00475 1.47581e-18)
(-1.20013 -4.85608 -1.35765e-18)
(-1.05237 -4.69912 -6.5231e-20)
(-0.937041 -4.53487 -8.77439e-19)
(-1.89457 -7.86379 2.1168e-18)
(-2.34802 -6.38082 -1.87929e-18)
(-1.96928 -5.95148 -2.50919e-19)
(-1.61892 -5.75739 -4.87089e-19)
(-1.38548 -5.60429 -4.71367e-19)
(-1.19137 -5.45217 -5.08699e-19)
(-1.01627 -5.28787 7.90486e-19)
(-0.860157 -5.11176 -8.50491e-19)
(-0.723057 -4.93037 7.48514e-19)
(-0.613028 -4.74733 4.40332e-20)
(-1.27646 -8.04241 -3.78766e-18)
(-1.86466 -6.69369 -1.38362e-18)
(-1.52979 -6.28793 2.33504e-18)
(-1.19879 -6.08506 -7.14577e-19)
(-0.979178 -5.91201 8.71171e-19)
(-0.798048 -5.73295 -2.27294e-18)
(-0.636563 -5.53975 1.63457e-18)
(-0.494995 -5.33661 -5.03273e-19)
(-0.371909 -5.13194 7.21091e-19)
(-0.270923 -4.93072 -7.82533e-19)
(-0.642377 -8.17998 1.75615e-18)
(-1.3492 -6.97747 -5.97683e-19)
(-1.05363 -6.59528 -7.59463e-19)
(-0.742457 -6.38098 -2.98253e-19)
(-0.539384 -6.18574 1.94415e-19)
(-0.375003 -5.97869 3.81293e-19)
(-0.231082 -5.75686 -6.89245e-19)
(-0.10757 -5.52802 4.19571e-19)
(-0.00132797 -5.30204 9.93157e-19)
(0.0874394 -5.08453 -8.20225e-19)
(0.00561408 -8.27474 1.42031e-18)
(-0.802462 -7.22754 -3.15503e-20)
(-0.542297 -6.86787 1.24243e-18)
(-0.252386 -6.63959 -9.82548e-19)
(-0.0692183 -6.42057 2.78034e-19)
(0.0743262 -6.18539 -2.90565e-19)
(0.196663 -5.93606 -1.17322e-19)
(0.298699 -5.6836 -6.03639e-19)
(0.3854 -5.43886 6.13051e-19)
(0.45877 -5.20744 4.55083e-19)
(0.665191 -8.32398 -2.77068e-19)
(-0.226106 -7.43869 -2.04266e-19)
(0.0016929 -7.10008 -1.36504e-19)
(0.268031 -6.85571 -4.39691e-19)
(0.42743 -6.61215 4.01585e-19)
(0.545918 -6.3496 1.02184e-19)
(0.642769 -6.07473 -2.49923e-19)
(0.720191 -5.80136 1.89974e-20)
(0.784976 -5.54082 -1.02591e-19)
(0.83999 -5.29855 4.1691e-21)
(1.16593 -4.64308 -1.21716e-20)
(1.00724 -3.67557 -3.50619e-21)
(0.97947 -3.00637 8.44197e-21)
(0.959018 -2.43668 -3.27634e-21)
(0.906529 -1.91577 1.65175e-22)
(0.853146 -1.47564 -8.04605e-23)
(0.800365 -1.11277 -1.18287e-22)
(0.754419 -0.822354 2.37126e-22)
(0.716854 -0.595989 -1.2425e-22)
(0.688281 -0.423767 7.86118e-24)
(0.668081 -0.295819 8.03536e-23)
(0.654328 -0.202865 2.07313e-23)
(0.647616 -0.136927 -6.97168e-24)
(0.644012 -0.0928332 -7.14862e-23)
(0.648128 -0.0613983 1.1154e-23)
(0.653763 -0.0441667 -4.69723e-23)
(0.662011 -0.0244555 1.73916e-23)
(0.669526 -0.0126451 1.79303e-23)
(0.670348 0.00767535 -3.87856e-23)
(0.654527 0.0394385 -5.51952e-23)
(1.47445 -4.67695 8.43187e-20)
(1.20477 -3.70522 2.16477e-20)
(1.08795 -3.0155 -1.63676e-20)
(1.02305 -2.4393 3.2913e-21)
(0.942359 -1.91383 -3.92873e-21)
(0.867513 -1.46998 -6.92023e-22)
(0.800598 -1.10673 -8.55268e-23)
(0.745277 -0.817115 2.70209e-22)
(0.701602 -0.591962 -2.22427e-22)
(0.669036 -0.420944 -9.36483e-23)
(0.646207 -0.293988 -4.65696e-23)
(0.630775 -0.201843 4.99295e-23)
(0.62288 -0.1365 -1.7737e-22)
(0.618565 -0.0929226 -9.6936e-23)
(0.622105 -0.0619346 6.3327e-23)
(0.627231 -0.0448047 6.81587e-23)
(0.634494 -0.0251143 -1.61523e-22)
(0.641514 -0.0129571 2.82527e-22)
(0.639768 0.00824046 8.95848e-23)
(0.624772 0.0399942 1.29592e-22)
(1.78519 -4.68954 -1.74052e-19)
(1.40952 -3.72999 7.08045e-20)
(1.20237 -3.02746 7.97382e-20)
(1.08968 -2.44458 -2.28188e-20)
(0.980433 -1.91495 1.79027e-21)
(0.883954 -1.46718 -3.04718e-21)
(0.802503 -1.1029 -4.48249e-22)
(0.737639 -0.813576 2.58157e-22)
(0.687771 -0.58917 1.3282e-22)
(0.651143 -0.418967 9.19338e-23)
(0.625616 -0.292707 -2.8914e-23)
(0.60844 -0.201154 -1.29923e-23)
(0.599307 -0.136257 2.36794e-22)
(0.594259 -0.0931018 -1.34359e-22)
(0.597184 -0.0624895 -1.83731e-22)
(0.601727 -0.0454089 2.03473e-22)
(0.608002 -0.0257245 -7.06915e-23)
(0.614354 -0.0131551 -1.62617e-22)
(0.610095 0.00886468 -3.22557e-22)
(0.596117 0.0405242 2.10706e-22)
(2.09656 -4.68331 -5.21093e-20)
(1.6217 -3.74714 1.40965e-19)
(1.324 -3.03763 -5.82965e-20)
(1.16 -2.44961 -1.20711e-20)
(1.02131 -1.91767 7.33159e-21)
(0.902918 -1.46677 -4.23707e-23)
(0.806408 -1.10121 7.27422e-22)
(0.731721 -0.811721 2.47027e-22)
(0.675511 -0.587608 -2.89328e-22)
(0.634711 -0.417829 -1.6597e-23)
(0.606389 -0.291966 -2.44146e-24)
(0.587386 -0.200791 5.44181e-24)
(0.576942 -0.13619 -5.44798e-23)
(0.571121 -0.0933654 2.30949e-22)
(0.573371 -0.0630568 7.58382e-23)
(0.577259 -0.0459773 -1.50368e-22)
(0.582531 -0.0262814 -1.5635e-22)
(0.588057 -0.0132402 -3.93631e-22)
(0.581377 0.0095341 4.93338e-22)
(0.568592 0.0410191 -4.47472e-22)
(2.40695 -4.65449 1.42201e-20)
(1.84199 -3.74507 1.26872e-20)
(1.45363 -3.03544 3.91612e-21)
(1.23428 -2.44859 2.71657e-20)
(1.06493 -1.91931 9.51326e-21)
(0.924527 -1.46776 5.77958e-21)
(0.812525 -1.10129 -1.41096e-21)
(0.727687 -0.811424 7.01629e-23)
(0.664941 -0.587228 -1.28101e-22)
(0.619824 -0.417506 7.30733e-23)
(0.588587 -0.291751 2.92903e-23)
(0.567655 -0.200741 -3.48169e-22)
(0.555817 -0.136293 -1.5663e-22)
(0.549167 -0.0937068 3.9398e-22)
(0.550671 -0.0636304 3.8296e-22)
(0.553831 -0.0465083 -2.15806e-22)
(0.558077 -0.0267823 6.13726e-22)
(0.562636 -0.0132167 1.16118e-22)
(0.553662 0.0102322 1.65229e-22)
(0.542225 0.0414682 -4.13501e-23)
(2.71629 -4.59077 -4.36123e-19)
(2.07036 -3.71257 -5.87846e-20)
(1.59014 -3.01731 4.62511e-20)
(1.31141 -2.44205 -7.41115e-20)
(1.11053 -1.92063 -2.59995e-20)
(0.948563 -1.47029 -1.85787e-20)
(0.82092 -1.10306 2.47311e-21)
(0.725637 -0.812569 1.58169e-22)
(0.656142 -0.587956 -2.47109e-22)
(0.606542 -0.417955 -6.29896e-23)
(0.572252 -0.292033 -1.78545e-22)
(0.549278 -0.200986 3.02455e-22)
(0.535954 -0.136553 -2.21686e-22)
(0.528407 -0.0941171 -3.18821e-22)
(0.529083 -0.0642039 -2.51362e-22)
(0.531448 -0.0470006 3.98645e-22)
(0.534635 -0.0272251 5.81316e-23)
(0.538108 -0.0130914 2.24079e-22)
(0.526998 0.0109429 -3.2875e-22)
(0.517039 0.0418623 1.59992e-22)
(3.02499 -4.49423 4.42696e-19)
(2.30369 -3.67596 1.4307e-19)
(1.73163 -3.01191 -9.00664e-21)
(1.39101 -2.44995 9.45198e-20)
(1.15815 -1.93196 -2.87498e-20)
(0.975194 -1.47853 3.60088e-21)
(0.831761 -1.10794 6.05785e-21)