/*--------------------------------*- C++ -*----------------------------------*\
| =========                 |                                                 |
| \\      /  F ield         | OpenFOAM: The Open Source CFD Toolbox           |
|  \\    /   O peration     | Version:  v1912                                 |
|   \\  /    A nd           | Website:  www.openfoam.com                      |
|    \\/     M anipulation  |                                                 |
\*---------------------------------------------------------------------------*/
FoamFile
{
    version     2.0;
    format      ascii;
    class       volScalarField;
    location    "58";
    object      p;
}
// * * * * * * * * * * * * * * * * * * * * * * * * * * * * * * * * * * * * * //

dimensions      [0 2 -2 0 0 0 0];


internalField   nonuniform List<scalar> 
9600
(
-41.4869
-36.2221
-32.9954
-30.2582
-27.7528
-25.4861
-23.4295
-21.5553
-19.846
-18.288
-16.8685
-15.5757
-14.3982
-13.3253
-12.3467
-11.4532
-10.6362
-9.88794
-9.20081
-8.57265
-42.2469
-36.9645
-33.7018
-30.9218
-28.3713
-26.0604
-23.9624
-22.0505
-20.3073
-18.7192
-17.2734
-15.9574
-14.7596
-13.6687
-12.6743
-11.7665
-10.9368
-10.1768
-9.47855
-8.84111
-43.0085
-37.7029
-34.4028
-31.5797
-28.9839
-26.6287
-24.4893
-22.5397
-20.7629
-19.145
-17.6731
-16.3343
-15.1164
-14.0079
-12.9978
-12.0761
-11.2337
-10.462
-9.7527
-9.10617
-43.7685
-38.4369
-35.098
-32.2311
-29.5896
-27.19
-25.0093
-23.0221
-21.2119
-19.5647
-18.067
-16.7057
-15.4681
-14.3422
-13.3167
-12.3812
-11.5264
-10.7431
-10.0229
-9.36751
-44.524
-39.1649
-35.7863
-32.875
-30.1874
-27.7433
-25.5213
-23.4969
-21.6536
-19.9773
-18.4543
-17.0709
-15.8139
-14.671
-13.6304
-12.6814
-11.8144
-11.0197
-10.2887
-9.62485
-45.2729
-39.8855
-36.4665
-33.5102
-30.7763
-28.2877
-26.0245
-23.9631
-22.087
-20.3822
-18.8342
-17.4291
-16.1533
-14.9938
-13.9384
-12.9762
-12.0972
-11.2914
-10.5498
-9.87792
-46.0134
-40.5972
-37.1373
-34.1355
-31.3552
-28.822
-26.5179
-24.4198
-22.5115
-20.7785
-19.2061
-17.7799
-16.4855
-15.3098
-14.2401
-13.265
-12.3744
-11.5578
-10.8059
-10.1264
-46.744
-41.2987
-37.7975
-34.7499
-31.923
-29.3453
-27.0006
-24.8662
-22.9261
-21.1655
-19.5692
-18.1223
-16.81
-15.6184
-14.5348
-13.5474
-12.6455
-11.8184
-11.0566
-10.3701
-47.4633
-41.9886
-38.446
-35.3522
-32.4786
-29.8567
-27.4716
-25.3014
-23.33
-21.5423
-19.9227
-18.4556
-17.1258
-15.9191
-14.822
-13.8226
-12.91
-12.0728
-11.3014
-10.6086
-48.1701
-42.6657
-39.0814
-35.9413
-33.0211
-30.3551
-27.93
-25.7245
-23.7223
-21.9082
-20.2658
-18.7791
-17.4324
-16.2109
-15.1009
-14.0901
-13.1672
-12.3203
-11.54
-10.8414
-48.8632
-43.329
-39.7028
-36.5163
-33.5495
-30.8397
-28.375
-26.1346
-24.1023
-22.2622
-20.5977
-19.092
-17.7289
-16.4932
-15.3707
-14.349
-13.4163
-12.5604
-11.7716
-11.0681
-49.5418
-43.9774
-40.3093
-37.0761
-34.0628
-31.3095
-28.8056
-26.531
-24.469
-22.6036
-20.9175
-19.3933
-18.0143
-16.7649
-15.6306
-14.5984
-13.6565
-12.7921
-11.9955
-11.2877
-50.2051
-44.6101
-40.8997
-37.6199
-34.5602
-31.7637
-29.2212
-26.9127
-24.8217
-22.9316
-21.2243
-19.6821
-18.2878
-17.0252
-15.8794
-14.8374
-13.8869
-13.0145
-12.2107
-11.4996
-50.8525
-45.2262
-41.4735
-38.1468
-35.0409
-32.2015
-29.6208
-27.2791
-25.1597
-23.2452
-21.5174
-19.9576
-18.5483
-17.2727
-16.1159
-15.0645
-14.1059
-13.2263
-12.4162
-11.703
-51.4834
-45.8249
-42.0296
-38.6562
-35.5042
-32.6223
-30.0039
-27.6295
-25.4821
-23.5439
-21.7958
-20.2188
-18.7946
-17.5064
-16.3387
-15.278
-14.3116
-13.4252
-12.6097
-11.8962
-52.0975
-46.4055
-42.5674
-39.1473
-35.9494
-33.0255
-30.3699
-27.9633
-25.7885
-23.8269
-22.0589
-20.4648
-19.026
-17.7252
-16.5466
-15.4765
-14.5022
-13.6092
-12.7885
-12.0736
-52.6959
-46.9679
-43.0863
-39.6195
-36.376
-33.4104
-30.7182
-28.2801
-26.0783
-24.0937
-22.3061
-20.695
-19.2416
-17.928
-16.7384
-15.6591
-14.6774
-13.7782
-12.9515
-12.232
-53.2831
-47.5131
-43.5854
-40.0716
-36.7829
-33.7764
-31.0483
-28.5795
-26.3513
-24.3441
-22.5368
-20.9087
-19.44
-18.113
-16.9119
-15.8232
-14.8343
-13.9294
-13.0977
-12.3827
-53.861
-48.0407
-44.0632
-40.5026
-37.1699
-34.1235
-31.3607
-28.8618
-26.608
-24.5785
-22.7517
-21.1059
-19.6211
-18.2789
-17.0636
-15.962
-14.9611
-14.0454
-13.2124
-12.5299
-54.4079
-48.543
-44.5187
-40.9131
-37.5382
-34.4534
-31.6569
-29.129
-26.8501
-24.7989
-22.9527
-21.2892
-19.7874
-18.4283
-17.1954
-16.0741
-15.0495
-14.108
-13.2641
-12.5878
-59.8641
-59.8327
-59.7634
-59.6709
-59.5546
-59.4118
-59.2422
-59.0461
-58.8242
-58.577
-58.3051
-58.009
-57.6893
-57.3469
-56.9823
-56.5966
-56.1907
-55.7664
-55.3266
-54.8743
-53.5153
-53.5127
-53.4769
-53.4136
-53.3234
-53.2059
-53.0613
-52.8902
-52.6935
-52.4717
-52.2255
-51.9554
-51.662
-51.3461
-51.0082
-50.6489
-50.2691
-49.8691
-49.4494
-49.0081
-48.871
-48.8927
-48.8852
-48.8488
-48.785
-48.6945
-48.5781
-48.4363
-48.2697
-48.0789
-47.8645
-47.6272
-47.3673
-47.0856
-46.7824
-46.4583
-46.1135
-45.748
-45.3616
-44.9523
-44.6402
-44.6797
-44.6926
-44.6784
-44.6379
-44.5722
-44.4821
-44.368
-44.2304
-44.07
-43.8872
-43.6826
-43.4567
-43.21
-42.9428
-42.6554
-42.348
-42.0205
-41.6728
-41.3038
-40.7283
-40.7776
-40.8031
-40.8038
-40.7803
-40.7333
-40.6635
-40.5715
-40.4576
-40.3225
-40.1665
-39.9903
-39.7942
-39.5787
-39.3441
-39.0906
-38.8185
-38.5275
-38.2175
-37.888
-37.2149
-37.2684
-37.3003
-37.3097
-37.2968
-37.2622
-37.2066
-37.1304
-37.0342
-36.9183
-36.7833
-36.6297
-36.4578
-36.2682
-36.0611
-35.8368
-35.5953
-35.3366
-35.0605
-34.7664
-34.0911
-34.1446
-34.1783
-34.1914
-34.1841
-34.1568
-34.1101
-34.0445
-33.9605
-33.8585
-33.7391
-33.6026
-33.4496
-33.2804
-33.0955
-32.895
-32.6792
-32.4478
-32.2008
-31.9374
-31.3202
-31.3708
-31.4032
-31.4166
-31.4112
-31.3874
-31.3457
-31.2867
-31.2107
-31.1182
-31.0098
-30.8859
-30.7471
-30.5937
-30.4262
-30.2449
-30.05
-29.8414
-29.6188
-29.3817
-28.8621
-28.9083
-28.9375
-28.9491
-28.9433
-28.9206
-28.8813
-28.8259
-28.7549
-28.6688
-28.568
-28.4532
-28.3248
-28.1834
-28.0295
-27.8635
-27.6856
-27.4957
-27.2937
-27.079
-26.6772
-26.7183
-26.7434
-26.7522
-26.7447
-26.7214
-26.6828
-26.6292
-26.5612
-26.4792
-26.3837
-26.2754
-26.1548
-26.0225
-25.8792
-25.7253
-25.5613
-25.3871
-25.2026
-25.007
-24.7284
-24.7641
-24.7849
-24.7903
-24.7806
-24.756
-24.7171
-24.6643
-24.5979
-24.5185
-24.4267
-24.3231
-24.2083
-24.083
-23.9481
-23.804
-23.6513
-23.4904
-23.321
-23.1423
-22.9827
-23.0133
-23.0298
-23.0319
-23.0197
-22.9935
-22.9539
-22.9011
-22.8356
-22.758
-22.6688
-22.5686
-22.4582
-22.3384
-22.21
-22.0738
-21.9307
-21.7812
-21.6251
-21.4618
-21.4117
-21.4378
-21.4503
-21.4492
-21.4346
-21.4068
-21.3662
-21.3132
-21.2482
-21.1718
-21.0845
-20.9869
-20.8799
-20.7643
-20.6411
-20.5115
-20.3764
-20.2367
-20.0928
-19.9437
-19.9918
-20.0137
-20.0227
-20.0187
-20.0019
-19.9725
-19.9311
-19.8778
-19.8131
-19.7376
-19.6517
-19.5562
-19.4518
-19.3394
-19.2204
-19.0959
-18.9675
-18.8364
-18.7037
-18.5683
-18.7032
-18.7213
-18.7272
-18.7206
-18.7018
-18.6711
-18.6288
-18.5753
-18.5109
-18.4361
-18.3514
-18.2574
-18.1551
-18.0453
-17.9294
-17.8089
-17.686
-17.5621
-17.4399
-17.318
-17.5292
-17.544
-17.547
-17.5382
-17.5177
-17.4858
-17.4429
-17.3892
-17.325
-17.2508
-17.167
-17.0744
-16.9736
-16.8657
-16.7521
-16.6345
-16.5155
-16.3974
-16.2847
-16.1761
-16.4561
-16.4679
-16.4684
-16.4576
-16.4357
-16.4028
-16.3592
-16.3053
-16.2413
-16.1676
-16.0846
-15.993
-15.8933
-15.7866
-15.6742
-15.558
-15.4413
-15.3269
-15.2225
-15.1256
-15.4719
-15.4813
-15.4799
-15.4676
-15.4446
-15.411
-15.3672
-15.3132
-15.2495
-15.1764
-15.0941
-15.0033
-14.9044
-14.7983
-14.6862
-14.5701
-14.4537
-14.3409
-14.2434
-14.1556
-14.5656
-14.5736
-14.5712
-14.5584
-14.5353
-14.5021
-14.459
-14.4061
-14.3438
-14.2723
-14.1919
-14.1029
-14.0059
-13.9014
-13.7904
-13.6746
-13.5575
-13.4442
-13.3537
-13.2801
-13.7318
-13.7366
-13.7317
-13.7171
-13.6929
-13.6593
-13.6165
-13.5645
-13.5037
-13.4341
-13.3561
-13.2699
-13.1758
-13.0741
-12.9653
-12.8506
-12.7316
-12.6137
-12.5166
-12.4674
-53.5712
-54.1467
-54.685
-55.2083
-55.7137
-56.1951
-56.6498
-57.0767
-57.4747
-57.8432
-58.1813
-58.4885
-58.7647
-59.0093
-59.2217
-59.4021
-59.5512
-59.6704
-59.7615
-59.8264
-47.0881
-47.6689
-48.2217
-48.7521
-49.2597
-49.742
-50.1977
-50.6259
-51.0261
-51.3976
-51.7399
-52.0527
-52.3363
-52.5912
-52.8154
-53.0083
-53.1706
-53.3025
-53.4047
-53.4759
-42.4437
-43.0123
-43.5572
-44.0787
-44.5768
-45.0507
-45.4996
-45.9228
-46.3198
-46.6898
-47.0319
-47.3458
-47.6313
-47.8871
-48.1144
-48.3136
-48.4842
-48.626
-48.7386
-48.8207
-38.3196
-38.8629
-39.3865
-39.8886
-40.3684
-40.8258
-41.26
-41.6706
-42.0568
-42.418
-42.7529
-43.0611
-43.3435
-43.5996
-43.8294
-44.0328
-44.2094
-44.3588
-44.4806
-44.5745
-34.6417
-35.155
-35.6512
-36.1278
-36.5837
-37.0186
-37.432
-37.8232
-38.1914
-38.5363
-38.8582
-39.1568
-39.4308
-39.6801
-39.9051
-40.1053
-40.2806
-40.4306
-40.5554
-40.6548
-31.4431
-31.9249
-32.3913
-32.8397
-33.269
-33.6787
-34.0683
-34.4373
-34.7851
-35.1115
-35.4164
-35.699
-35.9589
-36.196
-36.4109
-36.6032
-36.7722
-36.9179
-37.0403
-37.1395
-28.6712
-29.1221
-29.5588
-29.9789
-30.3811
-30.765
-31.13
-31.4757
-31.8017
-32.1076
-32.3931
-32.658
-32.9019
-33.1246
-33.3258
-33.5074
-33.6675
-33.8057
-33.9223
-34.0176
-26.2592
-26.6812
-27.0899
-27.4829
-27.8592
-28.218
-28.559
-28.8817
-29.1858
-29.471
-29.7371
-29.9839
-30.2112
-30.4189
-30.6071
-30.7741
-30.9236
-31.0528
-31.1619
-31.2511
-24.1484
-24.544
-24.9269
-25.295
-25.6471
-25.9825
-26.3009
-26.6019
-26.8852
-27.1505
-27.3978
-27.627
-27.8379
-28.0305
-28.2048
-28.3606
-28.4969
-28.6161
-28.7167
-28.7988
-22.2887
-22.6605
-23.0202
-23.3656
-23.6957
-24.0096
-24.3072
-24.588
-24.8519
-25.0988
-25.3286
-25.5412
-25.7366
-25.9147
-26.0755
-26.2189
-26.3448
-26.4535
-26.5455
-26.6201
-20.6385
-20.9891
-21.328
-21.6532
-21.9633
-22.2578
-22.5363
-22.7987
-23.0448
-23.2747
-23.4883
-23.6856
-23.8666
-24.0313
-24.1797
-24.3117
-24.4273
-24.5265
-24.6101
-24.6775
-19.164
-19.4959
-19.8166
-20.1237
-20.4159
-20.6927
-20.9538
-21.1994
-21.4293
-21.6436
-21.8424
-22.0258
-22.1937
-22.3461
-22.4831
-22.6047
-22.7108
-22.8017
-22.877
-22.9376
-17.8384
-18.1537
-18.4586
-18.7498
-19.0258
-19.2864
-19.5318
-19.7619
-19.9769
-20.1771
-20.3624
-20.533
-20.689
-20.8303
-20.957
-21.0691
-21.1665
-21.2494
-21.3174
-21.372
-16.6401
-16.9409
-17.2322
-17.5093
-17.7706
-18.0164
-18.2472
-18.4632
-18.6646
-18.8517
-19.0247
-19.1837
-19.3289
-19.4601
-19.5775
-19.681
-19.7707
-19.8467
-19.9091
-19.9571
-15.5518
-15.8404
-16.1202
-16.3845
-16.6323
-16.8645
-17.0818
-17.2845
-17.4733
-17.6484
-17.8101
-17.9585
-18.0938
-18.2159
-18.3249
-18.4207
-18.5034
-18.573
-18.6295
-18.6727
-14.559
-14.8391
-15.1096
-15.3621
-15.597
-15.8162
-16.0206
-16.2109
-16.3878
-16.5518
-16.7031
-16.8418
-16.9681
-17.082
-17.1833
-17.2721
-17.3485
-17.4123
-17.4637
-17.5025
-13.6439
-13.9229
-14.1883
-14.4293
-14.6515
-14.8583
-15.0505
-15.2291
-15.3949
-15.5485
-15.6903
-15.8202
-15.9383
-16.0447
-16.1392
-16.2218
-16.2924
-16.3512
-16.398
-16.4329
-12.7859
-13.0691
-13.3358
-13.5674
-13.7776
-13.9728
-14.1538
-14.3218
-14.4779
-14.6225
-14.756
-14.8785
-14.9897
-15.0898
-15.1786
-15.256
-15.322
-15.3766
-15.4198
-15.4516
-11.9985
-12.2722
-12.5396
-12.7664
-12.9665
-13.1502
-13.3208
-13.4793
-13.6266
-13.7633
-13.8897
-14.0056
-14.1111
-14.2059
-14.29
-14.3632
-14.4256
-14.4769
-14.5174
-14.547
-11.4078
-11.6586
-11.8864
-12.1032
-12.2916
-12.4575
-12.6116
-12.7558
-12.8898
-13.014
-13.1288
-13.234
-13.3296
-13.4152
-13.4908
-13.5564
-13.6118
-13.6571
-13.6919
-13.7165
-6.00636
-6.4977
-7.03612
-7.61857
-8.25147
-8.94223
-9.69851
-10.5298
-11.4482
-12.4694
-13.6139
-14.9086
-16.3888
-18.1008
-20.1049
-22.4805
-25.3086
-28.6117
-32.6091
-38.605
-6.27699
-6.78186
-7.3308
-7.92532
-8.572
-9.27794
-10.0509
-10.9007
-11.8397
-12.8838
-14.0538
-15.3771
-16.8895
-18.6375
-20.6818
-23.1014
-25.9766
-29.3265
-33.3624
-39.3794
-6.54904
-7.06745
-7.62704
-8.23385
-8.89457
-9.61595
-10.4059
-11.2745
-12.2343
-13.3016
-14.4975
-15.8498
-17.3947
-19.179
-21.2636
-23.7274
-26.6493
-30.0448
-34.1175
-40.151
-6.82203
-7.35393
-7.92423
-8.54356
-9.21852
-9.95555
-10.7627
-11.6503
-12.6311
-13.7219
-14.944
-16.3255
-17.903
-19.7238
-21.849
-24.3568
-27.3251
-30.7662
-34.8766
-40.9313
-7.09552
-7.64081
-8.22191
-8.85396
-9.54338
-10.2962
-11.1208
-12.0275
-13.0296
-14.144
-15.3924
-16.8032
-18.4136
-20.2711
-22.4368
-24.9887
-28.0032
-31.4899
-35.6389
-41.718
-7.36914
-7.9277
-8.51967
-9.16464
-9.8687
-10.6375
-11.4796
-12.4057
-13.4292
-14.5673
-15.8421
-17.2825
-18.9259
-20.8201
-23.0264
-25.6224
-28.6831
-32.2151
-36.4022
-42.5067
-7.64256
-8.21424
-8.81711
-9.4752
-10.1941
-10.979
-11.8388
-12.7843
-13.8293
-14.9913
-16.2927
-17.7627
-19.4391
-21.3702
-23.617
-26.257
-29.3636
-32.9406
-37.1652
-43.2953
-7.91555
-8.50013
-9.11393
-9.78529
-10.5191
-11.3203
-12.1978
-13.1628
-14.2294
-15.4153
-16.7434
-18.2431
-19.9526
-21.9204
-24.2078
-26.8916
-30.0439
-33.6652
-37.9266
-44.0821
-8.18794
-8.78516
-9.40987
-10.0946
-10.8435
-11.661
-12.5562
-13.5408
-14.629
-15.8389
-17.1935
-18.7229
-20.4655
-22.47
-24.7978
-27.5252
-30.7227
-34.3879
-38.6851
-44.8658
-8.4597
-9.06925
-9.70478
-10.403
-11.167
-12.0008
-12.9138
-13.9179
-15.0276
-16.2614
-17.6426
-19.2015
-20.977
-23.0182
-25.3862
-28.1567
-31.399
-35.1075
-39.4396
-45.6449
-8.73093
-9.35241
-9.99861
-10.7104
-11.4894
-12.3394
-13.2701
-14.2936
-15.4247
-16.6822
-18.0898
-19.6782
-21.4865
-23.564
-25.9719
-28.7852
-32.0717
-35.8227
-40.1885
-46.4178
-9.00193
-9.63481
-10.2914
-11.0166
-11.8106
-12.6766
-13.6247
-14.6674
-15.8198
-17.1008
-18.5346
-20.1522
-21.993
-24.1066
-26.554
-29.4096
-32.7396
-36.5323
-40.9307
-47.1831
-9.27318
-9.91675
-10.5833
-11.3216
-12.1303
-13.0121
-13.9773
-15.0389
-16.2123
-17.5165
-18.9762
-20.6227
-22.4957
-24.645
-27.1314
-30.0287
-33.4015
-37.2351
-41.6647
-47.9396
-9.54541
-10.1987
-10.8744
-11.6255
-12.4484
-13.3455
-14.3275
-15.4076
-16.6015
-17.9287
-19.4139
-21.0889
-22.9937
-25.1782
-27.7032
-30.6415
-34.0562
-37.9298
-42.3894
-48.6858
-9.81938
-10.4808
-11.1648
-11.9279
-12.7644
-13.6763
-14.6746
-15.7728
-16.9868
-18.3365
-19.8469
-21.5499
-23.4861
-25.7053
-28.2681
-31.2468
-34.7026
-38.6151
-43.1034
-49.4207
-10.0961
-10.7635
-11.4541
-12.2283
-13.0778
-14.0039
-15.0179
-16.1337
-17.3674
-18.7391
-20.2741
-22.0048
-23.9718
-26.2251
-28.8251
-31.8432
-35.3392
-39.2898
-43.8057
-50.1432
-10.3752
-11.0456
-11.741
-12.5254
-13.3873
-14.3271
-15.3564
-16.4894
-17.7423
-19.1355
-20.6947
-22.4525
-24.4497
-26.7364
-29.3728
-32.4295
-35.9646
-39.9526
-44.4953
-50.8527
-10.6562
-11.3246
-12.0229
-12.8173
-13.6916
-14.6449
-15.6891
-16.8388
-18.1105
-19.5248
-21.1076
-22.8919
-24.9186
-27.2381
-29.91
-33.0042
-36.5774
-40.6017
-45.1708
-51.5492
-10.9316
-11.5921
-12.2936
-13.1007
-13.9885
-14.9554
-16.0144
-17.1807
-18.4709
-19.9058
-21.5117
-23.3218
-25.3774
-27.7287
-30.4353
-33.5658
-37.1758
-41.2353
-45.8312
-52.2343
-11.1829
-11.8283
-12.5488
-13.3765
-14.2787
-15.2585
-16.332
-17.5144
-18.8225
-20.2775
-21.9059
-23.7413
-25.8249
-28.2072
-30.9471
-34.1126
-37.7575
-41.8504
-46.4717
-52.9093
-1.58494
-1.83889
-2.18678
-2.57572
-2.9943
-3.44786
-3.94274
-4.48485
-5.08168
-5.7435
-6.48425
-7.32296
-8.28576
-9.40871
-10.7427
-12.362
-14.3564
-16.787
-19.9622
-25.357
-1.7381
-2.00849
-2.37485
-2.76974
-3.19174
-3.65065
-4.15244
-4.70263
-5.30887
-5.98168
-6.73527
-7.58901
-8.56945
-9.71317
-11.0716
-12.7196
-14.747
-17.213
-20.4205
-25.8291
-1.88562
-2.18009
-2.55961
-2.96263
-3.39238
-3.85968
-4.37041
-4.93028
-5.54731
-6.23235
-6.99997
-7.86988
-8.86913
-10.0348
-11.4189
-13.0967
-15.1576
-17.6591
-20.8981
-26.3153
-2.05542
-2.36072
-2.74845
-3.1602
-3.59915
-4.07599
-4.59675
-5.16744
-5.79637
-6.49474
-7.27743
-8.16458
-9.18369
-10.3724
-11.7832
-13.4917
-15.5872
-18.1254
-21.3992
-26.8341
-2.23655
-2.54894
-2.94451
-3.36523
-3.81367
-4.3005
-4.83194
-5.41424
-6.05597
-6.76858
-7.5673
-8.47266
-9.51264
-10.7254
-12.164
-13.9043
-16.0356
-18.612
-21.9233
-27.3823
-2.42315
-2.74416
-3.14807
-3.57792
-4.03614
-4.53342
-5.07614
-5.67074
-6.32602
-7.05371
-7.86934
-8.79385
-9.85569
-11.0935
-12.561
-14.3344
-16.5026
-19.1186
-22.4686
-27.9547
-2.61676
-2.94728
-3.35945
-3.79844
-4.26673
-4.77489
-5.32941
-5.93692
-6.60644
-7.34995
-8.18331
-9.12786
-10.2125
-11.4765
-12.9739
-14.7815
-16.9879
-19.6444
-23.034
-28.5488
-2.81876
-3.15878
-3.57898
-4.02712
-4.50566
-5.02503
-5.59178
-6.21272
-6.89708
-7.65709
-8.50895
-9.47437
-10.5827
-11.8738
-13.4023
-15.2451
-17.4908
-20.1889
-23.6188
-29.1636
-3.02894
-3.3785
-3.80672
-4.26404
-4.75301
-5.28385
-5.8632
-6.49803
-7.19777
-7.97492
-8.84597
-9.83304
-10.966
-12.2851
-13.8455
-15.7247
-18.0107
-20.7513
-24.2223
-29.7981
-3.24669
-3.60611
-4.04244
-4.50904
-5.00863
-5.55122
-6.14352
-6.79266
-7.50829
-8.30314
-9.19404
-10.2035
-11.3618
-12.7098
-14.3032
-16.2197
-18.5469
-21.3312
-24.8439
-30.4511
-3.47159
-3.84126
-4.28585
-4.76186
-5.27227
-5.82687
-6.43246
-7.09633
-7.82832
-8.64143
-9.55281
-10.5853
-11.7698
-13.1476
-14.7748
-16.7295
-19.099
-21.9275
-25.4824
-31.1216
-3.70324
-4.08356
-4.53655
-5.02215
-5.54359
-6.1105
-6.7297
-7.40869
-8.15751
-8.9894
-9.92184
-10.9781
-12.1895
-13.5978
-15.2597
-17.2534
-19.666
-22.5396
-26.1372
-31.8085
-3.94119
-4.33252
-4.79411
-5.28948
-5.82221
-6.40169
-7.03484
-7.72934
-8.49542
-9.34661
-10.3007
-11.3813
-12.6203
-14.0599
-15.7573
-17.7909
-20.2474
-23.1667
-26.8074
-32.5109
-4.1849
-4.58762
-5.05802
-5.56338
-6.10765
-6.7
-7.34743
-8.05781
-8.84159
-9.71255
-10.6888
-11.7944
-13.0616
-14.5332
-16.2669
-18.3412
-20.8423
-23.808
-27.492
-33.2279
-4.43383
-4.84832
-5.32775
-5.84333
-6.39941
-7.00494
-7.66697
-8.39359
-9.19549
-10.0867
-11.0856
-12.2168
-13.5129
-15.0172
-16.7878
-18.9036
-21.4499
-24.4625
-28.1902
-33.9585
-4.68743
-5.11403
-5.60273
-6.12879
-6.69696
-7.31595
-7.99292
-8.73616
-9.55657
-10.4685
-11.4906
-12.6479
-13.9734
-15.5111
-17.3193
-19.4772
-22.0694
-25.1295
-28.9012
-34.7021
-4.94515
-5.38418
-5.88238
-6.41917
-6.99972
-7.63249
-8.32472
-9.08491
-9.92423
-10.8572
-11.903
-13.0869
-14.4425
-16.0141
-17.8606
-20.0611
-22.6998
-25.808
-29.6242
-35.458
-5.20644
-5.65819
-6.16612
-6.71392
-7.30714
-7.95398
-8.66178
-9.43928
-10.2979
-11.2524
-12.3223
-13.5333
-14.9194
-16.5255
-18.4108
-20.6546
-23.3403
-26.4969
-30.3583
-36.2259
-5.47074
-5.93547
-6.45336
-7.01245
-7.61862
-8.27983
-9.00351
-9.79863
-10.6768
-11.6533
-12.7477
-13.9862
-15.4034
-17.0444
-18.969
-21.2565
-23.9895
-27.195
-31.1025
-37.0063
-5.73756
-6.2155
-6.74357
-7.31421
-7.93362
-8.60947
-9.34933
-10.1624
-11.0606
-12.0593
-13.1786
-14.445
-15.8936
-17.57
-19.5343
-21.8658
-24.6464
-27.9007
-31.8539
-37.8002
-1.33716
-1.13046
-0.976693
-0.839976
-0.719919
-0.613981
-0.521049
-0.440329
-0.37132
-0.313662
-0.26709
-0.231393
-0.2064
-0.191974
-0.187978
-0.1942
-0.210424
-0.23678
-0.273446
-0.320207
-1.66698
-1.48356
-1.32581
-1.18387
-1.05898
-0.948575
-0.851675
-0.767482
-0.695481
-0.635294
-0.586641
-0.549299
-0.523085
-0.507848
-0.503443
-0.509698
-0.526458
-0.553732
-0.591608
-0.639779
-1.99947
-1.82393
-1.6662
-1.52311
-1.39609
-1.2835
-1.18465
-1.09884
-1.0256
-0.964577
-0.915492
-0.878122
-0.852284
-0.837819
-0.83458
-0.842412
-0.861199
-0.890888
-0.931346
-0.982799
-2.38316
-2.20595
-2.04518
-1.89913
-1.76854
-1.65244
-1.55037
-1.46177
-1.38623
-1.32341
-1.27303
-1.23488
-1.20876
-1.19451
-1.19197
-1.20099
-1.22146
-1.25331
-1.2964
-1.35077
-2.80183
-2.62216
-2.45743
-2.30743
-2.17262
-2.05247
-1.94666
-1.85476
-1.77643
-1.71136
-1.65929
-1.62
-1.5933
-1.579
-1.57697
-1.58703
-1.60909
-1.64301
-1.6887
-1.74612
-3.25304
-3.07015
-2.90124
-2.74691
-2.60764
-2.48322
-2.37347
-2.27808
-2.19677
-2.12927
-2.07534
-2.03478
-2.00739
-1.993
-1.99145
-2.00258
-2.02626
-2.06237
-2.11076
-2.1714
-3.74296
-3.55534
-3.38151
-3.22226
-3.07808
-2.94901
-2.83496
-2.73574
-2.65114
-2.58093
-2.5249
-2.48285
-2.4546
-2.43997
-2.43881
-2.45096
-2.47627
-2.51461
-2.56583
-2.62989
-4.27838
-4.08454
-3.90471
-3.73965
-3.58988
-3.45553
-3.33664
-3.23308
-3.14472
-3.07137
-3.01285
-2.96897
-2.93957
-2.92446
-2.9235
-2.93653
-2.96339
-3.00393
-3.058
-3.12557
-4.86699
-4.66548
-4.47842
-4.30649
-4.1502
-4.00977
-3.88529
-3.77673
-3.68399
-3.60692
-3.54539
-3.49922
-3.46824
-3.45231
-3.45125
-3.46491
-3.49314
-3.53577
-3.59265
-3.66375
-5.51892
-5.30819
-5.11247
-4.93239
-4.76844
-4.62089
-4.48989
-4.37544
-4.2775
-4.19598
-4.13074
-4.08165
-4.04854
-4.03127
-4.02968
-4.04361
-4.07291
-4.11739
-4.1769
-4.25144
-6.24793
-6.02616
-5.82011
-5.63033
-5.4573
-5.30132
-5.16257
-5.04111
-4.93692
-4.84996
-4.7801
-4.72724
-4.69123
-4.67192
-4.66917
-4.68281
-4.71269
-4.75861
-4.82042
-4.89815
-7.07273
-6.83781
-6.61942
-6.41803
-6.23415
-6.06809
-5.92003
-5.79009
-5.67828
-5.58458
-5.5089
-5.45114
-5.41117
-5.38886
-5.38406
-5.39661
-5.42634
-5.47306
-5.53659
-5.61703
-8.01906
-7.76844
-7.53526
-7.31995
-7.12301
-6.94475
-6.78541
-6.64512
-6.52391
-6.42178
-6.33868
-6.27452
-6.22918
-6.20253
-6.19444
-6.20475
-6.23328
-6.27982
-6.3442
-6.42655
-9.12245
-8.85306
-8.60212
-8.37
-8.15724
-7.96416
-7.79102
-7.63797
-7.50507
-7.39233
-7.29973
-7.22718
-7.17458
-7.14181
-7.12874
-7.13522
-7.16106
-7.20601
-7.26991
-7.35294
-10.4332
-10.1413
-9.86898
-9.61653
-9.38455
-9.17339
-8.98331
-8.81448
-8.66698
-8.54084
-8.43604
-8.35252
-8.29019
-8.24893
-8.22861
-8.22909
-8.25016
-8.29156
-8.35309
-8.435
-12.025
-11.7062
-11.4081
-11.1311
-10.8759
-10.6427
-10.4319
-10.2436
-10.0779
-9.93491
-9.81456
-9.71681
-9.64158
-9.58876
-9.55823
-9.54983
-9.56338
-9.59858
-9.65518
-9.73348
-13.9869
-13.6365
-13.3081
-13.002
-12.7191
-12.4596
-12.2239
-12.0121
-11.8243
-11.6606
-11.5209
-11.4053
-11.3136
-11.2458
-11.2017
-11.1812
-11.1841
-11.2101
-11.259
-11.3308
-16.3807
-15.9948
-15.6317
-15.2927
-14.9782
-14.6888
-14.4247
-14.186
-13.9727
-13.7849
-13.6227
-13.486
-13.3747
-13.2888
-13.2282
-13.1928
-13.1824
-13.1968
-13.2358
-13.2984
-19.5173
-19.0915
-18.6895
-18.3139
-17.965
-17.6428
-17.3474
-17.0786
-16.8366
-16.6213
-16.4326
-16.2707
-16.1355
-16.0268
-15.9447
-15.8889
-15.8595
-15.8566
-15.8802
-15.9281
-24.854
-24.3832
-23.9468
-23.5417
-23.1659
-22.8183
-22.4986
-22.2065
-21.9421
-21.7054
-21.4964
-21.3152
-21.1617
-21.0362
-20.9388
-20.8693
-20.8287
-20.8192
-20.8421
-20.8872
-0.376972
-0.443419
-0.519509
-0.605159
-0.700287
-0.804787
-0.918527
-1.04134
-1.17303
-1.3133
-1.46179
-1.61798
-1.78107
-1.94982
-2.1226
-2.29711
-2.46889
-2.62813
-2.75946
-2.88928
-0.698422
-0.767147
-0.845878
-0.934503
-1.03292
-1.14099
-1.25858
-1.38549
-1.52149
-1.66627
-1.81942
-1.98039
-2.14839
-2.32228
-2.50043
-2.6812
-2.86281
-3.03753
-3.19016
-3.36246
-1.04494
-1.11752
-1.20047
-1.29366
-1.39698
-1.51028
-1.63338
-1.76609
-1.90813
-2.05919
-2.21882
-2.38648
-2.56141
-2.74259
-2.92866
-3.11842
-3.31091
-3.50176
-3.68523
-3.89128
-1.41634
-1.49277
-1.57999
-1.67786
-1.78623
-1.90494
-2.03381
-2.1726
-2.32103
-2.47876
-2.64535
-2.82023
-3.00272
-3.19189
-3.38668
-3.58622
-3.7897
-3.99481
-4.20205
-4.43181
-1.81521
-1.89565
-1.98735
-2.09013
-2.20385
-2.32832
-2.46334
-2.60866
-2.76398
-2.92895
-3.10313
-3.28598
-3.47686
-3.67499
-3.87955
-4.08992
-4.3055
-4.52525
-4.7518
-4.99831
-2.24434
-2.32907
-2.42557
-2.53365
-2.65314
-2.78386
-2.92557
-3.07803
-3.24092
-3.41388
-3.59649
-3.78824
-3.98856
-4.19678
-4.4123
-4.63469
-4.86357
-5.09871
-5.34287
-5.6039
-2.70686
-2.79612
-2.89774
-3.0115
-3.13721
-3.27467
-3.42365
-3.58388
-3.75505
-3.93681
-4.12874
-4.33039
-4.54123
-4.76073
-4.98841
-5.22397
-5.46722
-5.71835
-5.97959
-6.25537
-3.20659
-3.30073
-3.40777
-3.52756
-3.6599
-3.8046
-3.9614
-4.13005
-4.31023
-4.5016
-4.70378
-4.91633
-5.1388
-5.37073
-5.61176
-5.86166
-6.12033
-6.38811
-6.66657
-6.95817
-3.74907
-3.84811
-3.96079
-4.08689
-4.22624
-4.37862
-4.54378
-4.72147
-4.91138
-5.11317
-5.32649
-5.55094
-5.78612
-6.03163
-6.28718
-6.55256
-6.82774
-7.11299
-7.40932
-7.7181
-4.34102
-4.44502
-4.56353
-4.69613
-4.84276
-5.00321
-5.17721
-5.36449
-5.56478
-5.77775
-6.00305
-6.24034
-6.48924
-6.74942
-7.0206
-7.30261
-7.59538
-7.89908
-8.21427
-8.54174
-4.99184
-5.10073
-5.22486
-5.36417
-5.51826
-5.68701
-5.87019
-6.06751
-6.27872
-6.50349
-6.74152
-6.99247
-7.25601
-7.53184
-7.81969
-8.11937
-8.4308
-8.754
-9.0892
-9.4369
-5.71443
-5.82792
-5.95758
-6.10324
-6.2648
-6.4419
-6.63439
-6.84201
-7.06447
-7.3015
-7.5528
-7.81808
-8.097
-8.38929
-8.69468
-9.01299
-9.34405
-9.68775
-10.0441
-10.4135
-6.52695
-6.64439
-6.77905
-6.93067
-7.09916
-7.2846
-7.48632
-7.7041
-7.93785
-8.18729
-8.45215
-8.73212
-9.0269
-9.3362
-9.65977
-9.99741
-10.3489
-10.714
-11.0925
-11.4848
-7.45522
-7.57554
-7.71424
-7.87105
-8.04575
-8.23832
-8.44955
-8.67668
-8.92135
-9.18292
-9.46115
-9.75576
-10.0665
-10.393
-10.735
-11.0924
-11.4648
-11.8518
-12.2532
-12.6694
-8.53745
-8.65895
-8.80007
-8.9606
-9.14036
-9.33889
-9.55571
-9.79307
-10.0484
-10.3211
-10.6119
-10.9206
-11.2469
-11.5904
-11.9508
-12.3277
-12.721
-13.13
-13.5546
-13.9949
-9.83357
-9.95371
-10.0948
-10.2567
-10.4394
-10.6424
-10.8653
-11.1081
-11.371
-11.6545
-11.9572
-12.2793
-12.6204
-12.9797
-13.3571
-13.7525
-14.1657
-14.5961
-15.0432
-15.5073
-11.4251
-11.5407
-11.6789
-11.8396
-12.0225
-12.2272
-12.4536
-12.7013
-12.9705
-13.2611
-13.5739
-13.9077
-14.2606
-14.6321
-15.0233
-15.4347
-15.8659
-16.3161
-16.7842
-17.2701
-13.383
-13.491
-13.6232
-13.7793
-13.958
-14.1597
-14.3846
-14.6326
-14.9033
-15.1962
-15.5108
-15.8472
-16.207
-16.591
-16.9973
-17.4246
-17.8725
-18.3407
-18.8281
-19.3339
-15.9983
-16.0902
-16.2062
-16.3477
-16.516
-16.7103
-16.93
-17.1745
-17.4435
-17.7367
-18.0534
-18.3933
-18.7567
-19.1441
-19.5554
-19.99
-20.4477
-20.9291
-21.4343
-21.9581
-20.9289
-21.0013
-21.1046
-21.2365
-21.3958
-21.582
-21.7944
-22.0327
-22.2965
-22.5856
-22.8996
-23.2386
-23.6028
-23.9923
-24.4073
-24.8478
-25.3148
-25.8123
-26.3428
-26.8885
-27.4053
-22.4927
-19.8574
-17.774
-15.9881
-14.4509
-13.1001
-11.8908
-10.7958
-9.797
-8.88141
-8.03929
-7.26304
-6.54642
-5.88424
-5.27199
-4.7044
-4.17589
-3.69495
-3.29055
-27.9499
-23.0434
-20.3967
-18.293
-16.4833
-14.9204
-13.5436
-12.3087
-11.1894
-10.168
-9.2316
-8.37078
-7.57804
-6.84729
-6.17351
-5.55227
-4.97885
-4.45084
-3.9814
-3.57891
-28.5231
-23.6131
-20.9531
-18.8281
-16.9932
-15.4035
-13.9995
-12.7383
-11.5939
-10.5491
-9.59139
-8.71137
-7.90164
-7.15613
-6.46979
-5.83811
-5.25646
-4.72256
-4.24598
-3.82399
-29.1207
-24.2022
-21.5268
-19.3789
-17.5173
-15.8995
-14.4673
-13.1787
-12.0083
-10.9394
-9.95968
-9.05973
-8.23215
-7.47078
-6.77035
-6.12607
-5.53307
-4.9884
-4.49882
-4.05809
-29.7396
-24.8104
-22.117
-19.945
-18.0551
-16.4077
-14.9461
-13.6291
-12.432
-11.3382
-10.3356
-9.41499
-8.56877
-7.79062
-7.07503
-6.41691
-5.81108
-5.25402
-4.75065
-4.29377
-30.3783
-25.4379
-22.722
-20.5252
-18.6057
-16.9274
-15.4353
-14.0889
-12.864
-11.7445
-10.7185
-9.77647
-8.91092
-8.11529
-7.38381
-6.71112
-6.09182
-5.52204
-5.00538
-4.53442
-31.0356
-26.0833
-23.3412
-21.1186
-19.1683
-17.4578
-15.934
-14.5572
-13.3038
-12.1579
-11.1076
-10.1437
-9.25828
-8.44469
-7.69692
-7.00937
-6.37649
-5.79417
-5.26494
-4.7813
-31.7102
-26.7446
-23.9746
-21.7244
-19.742
-17.9981
-16.4415
-15.0334
-13.7506
-12.5776
-11.5026
-10.5162
-9.61054
-8.77868
-8.01442
-7.31194
-6.66555
-6.07098
-5.52974
-5.03433
-32.4007
-27.4204
-24.6212
-22.3417
-20.3259
-18.5474
-16.957
-15.5167
-14.2038
-13.003
-11.9028
-10.8936
-9.96736
-9.11705
-8.3362
-7.6188
-6.95904
-6.35245
-5.79961
-5.29301
-33.106
-28.1094
-25.2802
-22.9697
-20.9191
-19.1048
-17.4796
-16.0062
-14.6625
-13.4335
-12.3076
-11.2753
-10.3283
-9.45945
-8.66198
-7.9297
-7.25667
-6.63822
-6.07403
-5.55662
-33.8248
-28.8106
-25.9503
-23.6074
-21.5206
-19.6695
-18.0085
-16.5012
-15.1261
-13.8684
-12.7165
-11.6608
-10.6929
-9.80543
-8.99132
-8.24421
-7.55799
-6.92777
-6.35238
-5.82438
-34.5559
-29.5228
-26.6305
-24.2536
-22.1295
-20.2404
-18.5427
-17.0009
-15.5938
-14.3069
-13.1287
-12.0495
-11.0606
-10.1544
-9.32371
-8.56179
-7.86242
-7.22046
-6.63393
-6.09547
-35.2983
-30.2449
-27.3196
-24.9073
-22.7446
-20.8166
-19.0814
-17.5043
-16.0648
-14.7484
-13.5437
-12.4407
-11.4308
-10.5059
-9.65854
-8.88183
-8.16933
-7.51562
-6.91796
-6.36915
-36.0508
-30.9758
-28.0164
-25.5674
-23.3649
-21.3971
-19.6236
-18.0107
-16.5382
-15.192
-13.9605
-12.8338
-11.8028
-10.8591
-9.99517
-9.20369
-8.47805
-7.81258
-7.20377
-6.64468
-36.8123
-31.7142
-28.7197
-26.2327
-23.9894
-21.9807
-20.1682
-18.5189
-17.0132
-15.6369
-14.3786
-13.228
-12.1759
-11.2135
-10.3329
-9.52672
-8.78794
-8.11067
-7.49069
-6.92137
-37.5817
-32.4587
-29.4281
-26.9019
-24.6167
-22.5665
-20.7143
-19.0282
-17.4888
-16.0824
-14.7971
-13.6226
-12.5493
-11.5683
-10.6712
-9.85024
-9.09834
-8.40923
-7.77804
-7.19858
-38.3585
-33.2083
-30.1403
-27.5738
-25.2457
-23.1531
-21.2607
-19.5374
-17.9642
-16.5274
-15.2152
-14.0169
-12.9225
-11.9228
-11.0092
-10.1736
-9.40859
-8.70763
-8.06522
-7.4757
-39.1439
-33.9625
-30.8549
-28.2468
-25.875
-23.7393
-21.8063
-20.0455
-18.4384
-16.9712
-15.632
-14.4099
-13.2945
-12.2764
-11.3464
-10.4961
-9.71806
-9.00524
-8.35161
-7.75217
-39.9384
-34.7199
-31.5698
-28.9191
-26.5031
-24.3239
-22.35
-20.5515
-18.9104
-17.4128
-16.0468
-14.801
-13.6648
-12.6282
-11.6819
-10.8172
-10.0261
-9.30147
-8.63665
-8.02747
-40.729
-35.4757
-32.2836
-29.5898
-27.1294
-24.9065
-22.8913
-21.0551
-19.3798
-17.852
-16.4592
-15.1898
-14.0329
-12.978
-12.0155
-11.1364
-10.3323
-9.59586
-8.91989
-8.30116
-6.77997
-4.6741
-3.31399
-2.26855
-1.53408
-0.994646
-0.607174
-0.332085
-0.141064
-0.0123711
0.0706159
0.120527
0.146944
0.157024
0.15608
0.147982
0.135544
0.120766
0.105057
0.0893839
0.0743925
0.060493
0.0479219
0.0367989
0.0271448
0.0189398
0.01209
0.00653069
0.00209227
-0.00125443
-0.00377229
-0.00535345
-0.00644602
-0.00663903
-0.00676843
-0.0058371
-0.00542533
-0.00350229
-0.00295584
3.73683e-05
-7.03564
-4.85648
-3.46024
-2.38371
-1.62513
-1.06828
-0.66724
-0.381706
-0.182442
-0.0471266
0.0412815
0.0956927
0.125891
0.139173
0.140958
0.135194
0.124756
0.111691
0.0974489
0.0830306
0.0691094
0.0561204
0.044321