/*--------------------------------*- C++ -*----------------------------------*\
  =========                 |
  \\      /  F ield         | OpenFOAM: The Open Source CFD Toolbox
   \\    /   O peration     | Website:  https://openfoam.org
    \\  /    A nd           | Version:  6.0
     \\/     M anipulation  |
\*---------------------------------------------------------------------------*/
FoamFile
{
    version     2.0;
    format      ascii;
    class       surfaceScalarField;
    location    "18.75";
    object      phi;
}
// * * * * * * * * * * * * * * * * * * * * * * * * * * * * * * * * * * * * * //

dimensions      [0 3 -1 0 0 0 0];

internalField   nonuniform List<scalar> 
38030
(
8.06776e-05
-0.160054
0.159974
0.000360537
-0.150563
0.150283
0.000804007
-0.143522
0.143078
0.00137777
-0.138218
0.137644
0.00205244
-0.134126
0.133451
0.00280138
-0.130848
0.130099
0.00360135
-0.1281
0.1273
0.00443274
-0.125682
0.124851
0.00527947
-0.123457
0.12261
0.00612873
-0.121333
0.120484
0.00697065
-0.119255
0.118413
0.00779793
-0.117188
0.116361
0.00860545
-0.115115
0.114307
0.00938991
-0.113029
0.112245
0.0101495
-0.110931
0.110172
0.0108835
-0.108827
0.108093
0.0115922
-0.106724
0.106015
0.0122765
-0.10463
0.103946
0.0129378
-0.102554
0.101893
0.0135778
-0.100503
0.0998634
0.0141986
-0.0984857
0.0978649
0.0148022
-0.0965062
0.0959026
0.0153907
-0.0945692
0.0939806
0.0159664
-0.0926772
0.0921015
0.0165313
-0.0908311
0.0902662
0.0170874
-0.0890297
0.0884737
0.0176363
-0.0872703
0.0867214
0.0181793
-0.0855479
0.0850048
0.0187173
-0.0838555
0.0833175
-0.0821836
0.0816506
0.0192504
9.24492e-05
-0.160147
0.000376604
-0.150847
0.000823806
-0.143969
0.00140114
-0.138795
0.00207849
-0.134803
0.00282885
-0.131599
0.00362875
-0.1289
0.00445847
-0.126512
0.00530192
-0.1243
0.00614639
-0.122178
0.00698216
-0.120091
0.00780214
-0.118008
0.00860141
-0.115914
0.00937689
-0.113805
0.0101269
-0.111682
0.0108511
-0.109551
0.0115498
-0.107423
0.012224
-0.105304
0.0128752
-0.103205
0.0135054
-0.101134
0.0141165
-0.0990968
0.0147108
-0.0971004
0.0152903
-0.0951487
0.0158574
-0.0932443
0.0164141
-0.0913878
0.0169624
-0.0895781
0.0175041
-0.087812
0.0180406
-0.0860843
0.0185727
-0.0843876
-0.0827116
0.0191007
0.000100023
-0.160247
0.000389632
-0.151137
0.000841074
-0.14442
0.00142204
-0.139376
0.00210193
-0.135483
0.00285339
-0.13235
0.00365274
-0.129699
0.00448022
-0.127339
0.00531977
-0.12514
0.00615883
-0.123017
0.00698784
-0.12092
0.00779991
-0.11882
0.00859036
-0.116705
0.00935631
-0.11457
0.0100964
-0.112422
0.0108102
-0.110265
0.0114984
-0.108111
0.0121621
-0.105968
0.012803
-0.103846
0.013423
-0.101754
0.0140241
-0.099698
0.0146087
-0.097685
0.015179
-0.095719
0.0157372
-0.0938025
0.0162854
-0.091936
0.0168258
-0.0901184
0.01736
-0.0883462
0.0178896
-0.0866139
0.0184156
-0.0849135
-0.0832343
0.0189383
0.00010462
-0.160351
0.000399734
-0.151432
0.000855852
-0.144877
0.0014405
-0.139961
0.00212274
-0.136165
0.00287491
-0.133102
0.00367323
-0.130498
0.0044979
-0.128164
0.00533296
-0.125975
0.00616598
-0.12385
0.00698763
-0.121742
0.00779121
-0.119624
0.00857228
-0.117486
0.0093282
-0.115326
0.0100578
-0.113151
0.0107608
-0.110968
0.0114381
-0.108788
0.012091
-0.106621
0.0127212
-0.104476
0.0133307
-0.102363
0.0139217
-0.100289
0.0144964
-0.0982597
0.0150571
-0.0962798
0.0156062
-0.0943515
0.0161457
-0.0924756
0.0166778
-0.0906505
0.0172044
-0.0888728
0.0177269
-0.0871365
0.0182465
-0.0854331
-0.0837514
0.0187636
0.000107976
-0.160459
0.00040803
-0.151732
0.000868678
-0.145337
0.00145679
-0.140549
0.00214103
-0.13685
0.00289347
-0.133855
0.00369023
-0.131295
0.00451152
-0.128985
0.00534149
-0.126805
0.00616788
-0.124676
0.00698156
-0.122555
0.0077761
-0.120418
0.00854727
-0.118257
0.00929266
-0.116072
0.0100113
-0.11387
0.0107032
-0.11166
0.0113693
-0.109454
0.012011
-0.107263
0.0126301
-0.105095
0.0132288
-0.102962
0.0138093
-0.100869
0.0143739
-0.0988243
0.0149249
-0.0968307
0.0154646
-0.0948912
0.0159952
-0.0930062
0.0165188
-0.0911742
0.0170375
-0.0893914
0.0175527
-0.0876517
0.0180657
-0.0859461
-0.0842628
0.0185771
0.000110674
-0.16057
0.000415084
-0.152036
0.000879891
-0.145802
0.00147109
-0.14114
0.0021569
-0.137535
0.00290912
-0.134607
0.00370377
-0.132089
0.00452111
-0.129802
0.00534539
-0.127629
0.00616456
-0.125495
0.0069697
-0.12336
0.00775464
-0.121203
0.00851539
-0.119018
0.00924978
-0.116806
0.00995701
-0.114577
0.0106373
-0.112341
0.0112918
-0.110109
0.011922
-0.107893
0.0125299
-0.105703
0.0131176
-0.103549
0.0136874
-0.101439
0.0142416
-0.0993785
0.0147825
-0.0973717
0.0153126
-0.0954213
0.0158341
-0.0935276
0.0163491
-0.0916892
0.0168596
-0.0899019
0.0173673
-0.0881594
0.0178735
-0.0864523
-0.0847682
0.0183789
0.00011298
-0.160683
0.000421234
-0.152345
0.000889744
-0.146271
0.00148359
-0.141734
0.00217047
-0.138222
0.00292194
-0.135358
0.00371392
-0.132881
0.0045267
-0.130615
0.00534471
-0.128447
0.00615607
-0.126307
0.00695212
-0.124156
0.00772692
-0.121978
0.00847676
-0.119767
0.00919969
-0.117529
0.00989512
-0.115272
0.0105635
-0.113009
0.0112061
-0.110751
0.0118245
-0.108511
0.0124208
-0.1063
0.0129971
-0.104126
0.013556
-0.101998
0.0140996
-0.0999221
0.0146303
-0.0979025
0.0151506
-0.0959416
0.0156627
-0.0940397
0.0161688
-0.0921953
0.016671
-0.0904041
0.017171
-0.0886594
0.0176702
-0.0869515
-0.0852674
0.0181695
0.000115012
-0.160798
0.000426671
-0.152656
0.000898414
-0.146742
0.00149442
-0.14233
0.00218185
-0.13891
0.00293201
-0.136109
0.00372074
-0.13367
0.00452838
-0.131423
0.00533952
-0.129258
0.00614249
-0.12711
0.00692889
-0.124943
0.00769304
-0.122742
0.00843149
-0.120506
0.00914251
-0.11824
0.00982575
-0.115956
0.0104819
-0.113665
0.0111121
-0.111382
0.0117185
-0.109117
0.0123029
-0.106884
0.0128677
-0.104691
0.0134154
-0.102546
0.0139482
-0.100455
0.0144685
-0.0984228
0.0149788
-0.0964518
0.0154813
-0.0945423
0.0159784
-0.0926923
0.016472
-0.0908977
0.0169641
-0.0891515
0.0174561
-0.0874435
-0.0857604
0.017949
0.000116834
-0.160915
0.000431501
-0.152971
0.000906017
-0.147217
0.00150367
-0.142928
0.00219113
-0.139597
0.00293941
-0.136857
0.0037243
-0.134455
0.00452621
-0.132225
0.00532989
-0.130062
0.00612391
-0.127904
0.00690012
-0.125719
0.00765312
-0.123495
0.0083797
-0.121232
0.0090784
-0.118939
0.00974906
-0.116626
0.0103925
-0.114309
0.0110102
-0.111999
0.0116041
-0.109711
0.0121765
-0.107456
0.0127296
-0.105244
0.0132658
-0.103082
0.0137875
-0.100977
0.0142973
-0.0989326
0.0147974
-0.0969519
0.0152901
-0.095035
0.0157778
-0.0931801
0.0162627
-0.0913826
0.0167467
-0.0896355
0.0172313
-0.0879282
-0.0862468
0.0177177
0.000118477
-0.161033
0.000435797
-0.153288
0.000912636
-0.147694
0.00151145
-0.143527
0.00219838
-0.140284
0.00294423
-0.137603
0.00372469
-0.135235
0.00452028
-0.13302
0.00531592
-0.130857
0.00610043
-0.128688
0.00686593
-0.126485
0.00760728
-0.124237
0.00832155
-0.121947
0.0090075
-0.119625
0.0096652
-0.117284
0.0102957
-0.114939
0.0109005
-0.112604
0.0114818
-0.110293
0.0120417
-0.108016
0.0125828
-0.105785
0.0131074
-0.103606
0.013618
-0.101487
0.0141169
-0.0994315
0.0146065
-0.0974416
0.0150893
-0.0955178
0.0155675
-0.0936583
0.0160434
-0.0918585
0.016519
-0.0901111
0.016996
-0.0884052
-0.0867265
0.0174758
0.00011996
-0.161153
0.000439598
-0.153608
0.000918332
-0.148172
0.00151781
-0.144126
0.0022037
-0.14097
0.00294654
-0.138346
0.003722
-0.136011
0.00451068
-0.133809
0.00529772
-0.131644
0.00607217
-0.129463
0.00682644
-0.127239
0.00755566
-0.124966
0.00825717
-0.122648
0.00892998
-0.120298
0.00957436
-0.117928
0.0101915
-0.115556
0.0107832
-0.113196
0.0113515
-0.110861
0.0118989
-0.108564
0.0124277
-0.106314
0.0129405
-0.104119
0.0134396
-0.101986
0.0139274
-0.0999193
0.0144064
-0.0979206
0.014879
-0.0959904
0.0153475
-0.0941267
0.0158141
-0.0923252
0.0162812
-0.0905781
0.0167504
-0.0888745
-0.0871993
0.0172233
0.000121295
-0.161275
0.000442932
-0.15393
0.000923156
-0.148653
0.00152283
-0.144726
0.00220716
-0.141654
0.00294644
-0.139085
0.00371632
-0.136781
0.00449753
-0.13459
0.0052754
-0.132422
0.00603926
-0.130227
0.00678179
-0.127981
0.00749843
-0.125682
0.00818675
-0.123337
0.00884603
-0.120957
0.00947673
-0.118559
0.0100802
-0.11616
0.0106584
-0.113774
0.0112135
-0.111416
0.0117481
-0.109098
0.0122644
-0.10683
0.0127651
-0.10462
0.0132526
-0.102474
0.0137292
-0.100396
0.0141973
-0.0983887
0.0146594
-0.0964525
0.0151179
-0.0945852
0.0155751
-0.0927824
0.0160333
-0.0910364
0.0164946
-0.0893357
-0.0876651
0.0169604
0.000122485
-0.161397
0.000445826
-0.154253
0.000927148
-0.149134
0.00152657
-0.145325
0.00220882
-0.142337
0.002944
-0.13982
0.00370775
-0.137544
0.00448092
-0.135363
0.00524908
-0.13319
0.00600184
-0.130979
0.00673215
-0.128712
0.00743574
-0.126386
0.00811047
-0.124011
0.00875583
-0.121602
0.00937251
-0.119176
0.00996204
-0.116749
0.0105265
-0.114338
0.0110681
-0.111958
0.0115895
-0.10962
0.0120932
-0.107334
0.0125816
-0.105108
0.0130572
-0.102949
0.0135223
-0.100861
0.0139793
-0.0988457
0.0144307
-0.0969038
0.0148788
-0.0950334
0.0153263
-0.0932298
0.0157754
-0.0914855
0.0162284
-0.0897887
-0.0881237
0.0166869
0.000123536
-0.161521
0.000448296
-0.154578
0.000930353
-0.149616
0.00152909
-0.145924
0.00220878
-0.143016
0.00293934
-0.140551
0.0036964
-0.138301
0.00446099
-0.136128
0.00521892
-0.133948
0.00596006
-0.131721
0.00667768
-0.129429
0.00736779
-0.127076
0.00802852
-0.124672
0.00865959
-0.122233
0.00926191
-0.119778
0.00983716
-0.117324
0.0103875
-0.114889
0.0109155
-0.112486
0.0114235
-0.110128
0.0119142
-0.107824
0.0123901
-0.105584
0.0128535
-0.103413
0.0133068
-0.101314
0.0137525
-0.0992914
0.0141928
-0.0973442
0.0146304
-0.0954709
0.0150678
-0.0936672
0.0155075
-0.0919252
0.0159519
-0.0902331
-0.0885747
0.0164029
0.000124447
-0.161645
0.000450363
-0.154904
0.000932816
-0.150098
0.00153046
-0.146522
0.00220713
-0.143693
0.00293255
-0.141276
0.0036824
-0.139051
0.00443788
-0.136883
0.00518505
-0.134695
0.00591409
-0.13245
0.00661857
-0.130134
0.00729478
-0.127752
0.00794112
-0.125318
0.00855755
-0.12285
0.00914518
-0.120366
0.00970585
-0.117885
0.0102419
-0.115425
0.0107558
-0.113
0.0112502
-0.110622
0.0117277
-0.108302
0.0121907
-0.106047
0.0126417
-0.103864
0.013083
-0.101756
0.013517
-0.0997253
0.0139459
-0.0977732
0.0143726
-0.0958975
0.0147995
-0.0940941
0.0152293
-0.0923551
0.0156648
-0.0906685
-0.0890178
0.016108
0.000125222
-0.16177
0.00045205
-0.15523
0.00093459
-0.150581
0.00153077
-0.147118
0.00220396
-0.144366
0.00292374
-0.141996
0.00366587
-0.139793
0.00441173
-0.137629
0.00514766
-0.135431
0.00586413
-0.133166
0.00655503
-0.130825
0.00721693
-0.128414
0.00784851
-0.12595
0.00844995
-0.123451
0.00902256
-0.120938
0.00956834
-0.118431
0.0100897
-0.115946
0.0105893
-0.113499
0.0110698
-0.111103
0.0115338
-0.108766
0.0119838
-0.106497
0.0124221
-0.104302
0.012851
-0.102185
0.0132729
-0.100147
0.0136901
-0.0981904
0.0141053
-0.0963128
0.0145213
-0.0945101
0.0149409
-0.0927747
0.015367
-0.0910946
-0.0894528
0.0158019
0.00012586
-0.161896
0.000453383
-0.155558
0.000935739
-0.151063
0.00153009
-0.147712
0.00219938
-0.145035
0.00291306
-0.142709
0.00364696
-0.140527
0.00438271
-0.138365
0.00510692
-0.136156
0.00581038
-0.13387
0.00648728
-0.131502
0.00713449
-0.129061
0.00775094
-0.126566
0.00833706
-0.124037
0.00889434
-0.121496
0.00942494
-0.118961
0.0099314
-0.116453
0.0104164
-0.113984
0.0108827
-0.111569
0.0113329
-0.109216
0.0117695
-0.106934
0.0121947
-0.104727
0.0126109
-0.102601
0.0130204
-0.100557
0.0134254
-0.0985955
0.0138287
-0.0967161
0.0142332
-0.0949145
0.0146419
-0.0931835
0.0150581
-0.0915107
-0.0898791
0.0154843
0.000126361
-0.162023
0.000454399
-0.155886
0.000936339
-0.151545
0.00152855
-0.148304
0.00219353
-0.1457
0.00290064
-0.143417
0.00362584
-0.141252
0.004351
-0.13909
0.00506303
-0.136868
0.00575305
-0.13456
0.00641556
-0.132164
0.00704771
-0.129694
0.0076487
-0.127167
0.00821919
-0.124608
0.00876084
-0.122037
0.00927596
-0.119477
0.0097672
-0.116944
0.0102373
-0.114454
0.0106891
-0.112021
0.0111252
-0.109652
0.011548
-0.107357
0.0119599
-0.105139
0.012363
-0.103004
0.0127595
-0.100953
0.0131519
-0.0989878
0.0135427
-0.0971069
0.013935
-0.0953069
0.0143322
-0.0935806
0.0147377
-0.0919161
-0.090296
0.0151546
0.000126733
-0.162149
0.000455152
-0.156214
0.000936491
-0.152027
0.00152626
-0.148894
0.00218654
-0.146361
0.00288663
-0.144117
0.00360267
-0.141969
0.00431679
-0.139804
0.00501622
-0.137567
0.00569239
-0.135236
0.00634013
-0.132812
0.00695688
-0.13031
0.0075421
-0.127753
0.00809665
-0.125162
0.00862239
-0.122563
0.00912175
-0.119976
0.00959749
-0.11742
0.0100525
-0.114909
0.0104894
-0.112458
0.0109111
-0.110074
0.0113198
-0.107765
0.0117179
-0.105537
0.0121074
-0.103393
0.0124905
-0.101336
0.0128696
-0.0993669
0.0132473
-0.0974846
0.0136266
-0.0956862
0.0140114
-0.0939654
0.0144053
-0.0923101
-0.0907028
0.0148121
0.000126982
-0.162276
0.000455713
-0.156543
0.000936321
-0.152507
0.00152338
-0.149481
0.00217858
-0.147016
0.00287122
-0.144809
0.00357764
-0.142675
0.00428028
-0.140507
0.0049667
-0.138254
0.00562866
-0.135898
0.00626128
-0.133444
0.00686232
-0.130911
0.00743147
-0.128322
0.00796982
-0.125701
0.00847938
-0.123073
0.00896272
-0.120459
0.0094227
-0.11788
0.00986221
-0.115349
0.0102841
-0.112879
0.0106909
-0.110481
0.0110852
-0.108159
0.011469
-0.105921
0.0118445
-0.103769
0.0122136
-0.101705
0.0125788
-0.099732
0.0129425
-0.0978483
0.013308
-0.0960518
0.0136792
-0.0943366
0.0140605
-0.0926914
-0.0910984
0.0144561
0.000127133
-0.162403
0.000456191
-0.156872
0.000935991
-0.152987
0.00152009
-0.150065
0.00216983
-0.147666
0.00285459
-0.145494
0.00355096
-0.143371
0.00424171
-0.141198
0.00491473
-0.138927
0.00556211
-0.136545
0.00617931
-0.134062
0.00676435
-0.131496
0.00731717
-0.128875
0.00783907
-0.126223
0.00833222
-0.123566
0.00879932
-0.120926
0.00924329
-0.118324
0.00966707
-0.115773
0.0100735
-0.113286
0.0104652
-0.110872
0.0108446
-0.108539
0.0112137
-0.10629
0.0115746
-0.10413
0.0119292
-0.10206
0.0122797
-0.100082
0.0126285
-0.0981971
0.012979
-0.0964023
0.0133355
-0.094693
0.0137027
-0.0930586
-0.0914815
0.0140857
0.000127234
-0.162531
0.000456741
-0.157202
0.000935712
-0.153466
0.0015166
-0.150646
0.00216049
-0.148309
0.00283693
-0.146171
0.00352284
-0.144057
0.00420129
-0.141876
0.00486055
-0.139586
0.00549304
-0.137178
0.00609452
-0.134663
0.00666331
-0.132065
0.00719959
-0.129411
0.00770484
-0.126728
0.00818139
-0.124042
0.00863205
-0.121377
0.00905979
-0.118751
0.00946761
-0.116181
0.00985834
-0.113677
0.0102346
-0.111249
0.0105987
-0.108903
0.0109527
-0.106644
0.0112985
-0.104476
0.0116378
-0.102399
0.0119727
-0.100417
0.0123057
-0.09853
0.01264
-0.0967366
0.01298
-0.0950331
0.0133315
-0.09341
-0.0918502
0.0137002
0.000127387
-0.162658
0.000457601
-0.157532
0.000935756
-0.153944
0.00151316
-0.151224
0.00215079
-0.148947
0.00281848
-0.146838
0.00349349
-0.144732
0.00415927
-0.142542
0.00480443
-0.140231
0.00542173
-0.137795
0.00600724
-0.135249
0.00655957
-0.132617
0.00707912
-0.12993
0.00756757
-0.127216
0.00802739
-0.124502
0.00846146
-0.121811
0.00887282
-0.119163
0.00926448
-0.116572
0.00963927
-0.114051
0.00999975
-0.111609
0.0103482
-0.109251
0.0106866
-0.106983
0.0110167
-0.104806
0.0113401
-0.102723
0.0116587
-0.100736
0.0119746
-0.098846
0.0122912
-0.0970532
0.0126131
-0.095355
0.0129466
-0.0937435
-0.0922025
0.0132989
0.000127786
-0.162786
0.000459137
-0.157863
0.000936485
-0.154421
0.00151006
-0.151797
0.00214097
-0.149578
0.00279944
-0.147497
0.00346313
-0.145396
0.00411587
-0.143195
0.00474661
-0.140862
0.00534845
-0.138397
0.00591779
-0.135818
0.00645349
-0.133153
0.00695619
-0.130433
0.00742775
-0.127688
0.00787075
-0.124945
0.00828816
-0.122229
0.00868305
-0.119558
0.00905844
-0.116948
0.00941713
-0.11441
0.00976162
-0.111954
0.0100941
-0.109584
0.0104165
-0.107305
0.0107304
-0.10512
0.0110372
-0.10303
0.0113385
-0.101037
0.0116362
-0.0991437
0.0119336
-0.0973505
0.0122352
-0.0956566
0.012548
-0.0940564
-0.0925352
0.0128808
0.000128821
-0.162915
0.000461911
-0.158196
0.00093836
-0.154898
0.00150764
-0.152366
0.00213128
-0.150202
0.00278003
-0.148145
0.00343198
-0.146048
0.00407131
-0.143834
0.00468733
-0.141478
0.00527348
-0.138983
0.00582647
-0.136371
0.00634542
-0.133672
0.00683121
-0.130919
0.00728585
-0.128142
0.00771203
-0.125371
0.00811279
-0.122629
0.00849123
-0.119936
0.00885034
-0.117307
0.00919287
-0.114753
0.00952125
-0.112282
0.00983758
-0.1099
0.0101436
-0.107611
0.0104408
-0.105417
0.0107303
-0.103319
0.0110135
-0.10132
0.0112918
-0.0994221
0.0115681
-0.0976267
0.0118468
-0.0959353
0.0121354
-0.0943451
-0.0928445
0.0124448
0.000131166
-0.163046
0.00046669
-0.158532
0.00094189
-0.155373
0.00150621
-0.152931
0.00212195
-0.150817
0.00276044
-0.148784
0.0034002
-0.146688
0.00402577
-0.14446
0.0046268
-0.142079
0.00519706
-0.139553
0.00573357
-0.136908
0.00623572
-0.134174
0.00670459
-0.131388
0.00714235
-0.12858
0.0075518
-0.125781
0.00793603
-0.123014
0.00829815
-0.120298
0.0086411
-0.11765
0.00896756
-0.115079
0.00927989
-0.112594
0.00958003
-0.1102
0.00986958
-0.107901
0.0101498
-0.105697
0.0104216
-0.103591
0.0106858
-0.101585
0.0109436
-0.0996799
0.011197
-0.09788
0.0114499
-0.0961883
0.0117103
-0.0946055
-0.0931259
0.0119918
0.00013583
-0.163182
0.000474364
-0.15887
0.00094759
-0.155846
0.00150608
-0.153489
0.00211317
-0.151424
0.00274083
-0.149412
0.00336795
-0.147315
0.00397941
-0.145071
0.00456518
-0.142664
0.00511939
-0.140107
0.00563934
-0.137427
0.00612468
-0.13466
0.0065767
-0.13184
0.00699771
-0.129001
0.00739062
-0.126174
0.00775855
-0.123381
0.00810461
-0.120644
0.00843169
-0.117977
0.00874239
-0.11539
0.00903893
-0.112891
0.0093231
-0.110485
0.00959631
-0.108174
0.00985955
-0.10596
0.0101135
-0.103845
0.0103585
-0.10183
0.0105951
-0.0999165
0.0108245
-0.0981094
0.0110494
-0.0964132
0.0112776
-0.0948337
-0.0933732
0.0115249
0.000144371
-0.163326
0.000486362
-0.159212
0.000956344
-0.156316
0.00150771
-0.154041
0.0021052
-0.152022
0.00272132
-0.150028
0.00333529
-0.147929
0.00393228
-0.145668
0.00450258
-0.143235
0.00504061
-0.140645
0.00554396
-0.137931
0.00601254
-0.135128
0.00644785
-0.132275
0.00685233
-0.129406
0.00722898
-0.12655
0.00758097
-0.123733
0.00791139
-0.120975
0.00822308
-0.118288
0.00851855
-0.115685
0.00879985
-0.113172
0.0090686
-0.110753
0.00932594
-0.108431
0.00957258
-0.106207
0.00980878
-0.104081
0.0100345
-0.102055
0.0102497
-0.100132
0.0104543
-0.098314
0.0106492
-0.0966081
0.0108394
-0.0950239
-0.0935739
0.0110402
0.000161217
-0.163487
0.00050643
-0.159558
0.00096986
-0.15678
0.0015116
-0.154582
0.00209805
-0.152608
0.00270182
-0.150631
0.00330213
-0.148529
0.00388434
-0.14625
0.00443897
-0.143789
0.00496074
-0.141167
0.00544752
-0.138418
0.00589946
-0.13558
0.00631825
-0.132694
0.00670649
-0.129794
0.00706728
-0.126911
0.00740381
-0.12407
0.00771917
-0.12129
0.00801617
-0.118585
0.00829721
-0.115966
0.0085642
-0.113439
0.00881853
-0.111008
0.00906106
-0.108674
0.00929203
-0.106438
0.00951112
-0.1043
0.00971752
-0.102262
0.00991012
-0.100324
0.0100873
-0.0984912
0.0102459
-0.0967667
0.0103851
-0.0951632
-0.0937132
0.0105244
0.000200702
-0.163688
0.000539317
-0.159896
0.000988265
-0.157229
0.00151698
-0.155111
0.00209103
-0.153182
0.00268184
-0.151222
0.00326818
-0.149115
0.00383541
-0.146818
0.00437429
-0.144328
0.00487978
-0.141673
0.00535006
-0.138888
0.00578552
-0.136016
0.00618805
-0.133096
0.0065604
-0.130166
0.00690577
-0.127256
0.00722741
-0.124392
0.00752845
-0.121591
0.00781165
-0.118869
0.00807937
-0.116234
0.00833345
-0.113693
0.00857511
-0.111249
0.00880495
-0.108903
0.00902281
-0.106656
0.0092277
-0.104505
0.00941768
-0.102452
0.0095896
-0.100496
0.00973803
-0.0986396
0.00985196
-0.0968807
0.00991659
-0.0952278
-0.0937767
0.00998006
0.167003
0.000141235
-0.167144
0.166884
0.000119297
0.166773
0.000110815
0.166665
0.000107285
0.166559
0.000106069
0.166453
0.000106237
0.166346
0.000107177
0.166237
0.000108482
0.166128
0.000109912
0.166016
0.000111349
0.165903
0.000112732
0.165789
0.000114028
0.165674
0.000115231
0.165558
0.000116334
0.165441
0.000117339
0.165322
0.000118246
0.165203
0.000119058
0.165083
0.000119776
0.164963
0.000120396
0.164842
0.000120916
0.164721
0.000121325
0.164599
0.000121607
0.164477
0.000121724
0.164356
0.000121621
0.164235
0.000121185
0.164114
0.000120203
0.163996
0.000118211
0.163882
0.0001142
0.163777
0.000105067
8.90952e-05
0.167723
0.000354421
-0.167936
0.1675
0.000342011
0.167274
0.000337064
0.167044
0.000336768
0.166811
0.000338869
0.166575
0.000342529
0.166335
0.000347237
0.166091
0.000352545
0.165843
0.000358126
0.16559
0.000363765
0.165334
0.000369332
0.165073
0.000374745
0.164808
0.000379944
0.16454
0.000384902
0.164267
0.000389597
0.163992
0.000394015
0.163713
0.00039815
0.16343
0.000401996
0.163145
0.000405539
0.162857
0.000408771
0.162567
0.000411665
0.162274
0.000414186
0.16198
0.000416263
0.161684
0.000417784
0.161386
0.00041856
0.161088
0.000418253
0.16079
0.000416267
0.160493
0.000411627
0.160196
0.00040228
0.000388535
0.167733
0.000594521
-0.167973
0.167476
0.000599335
0.167206
0.000606677
0.166926
0.000616512
0.166637
0.000627791
0.16634
0.00063999
0.166034
0.000652828
0.165721
0.000666027
0.1654
0.000679336
0.165071
0.000692561
0.164735
0.000705561
0.164391
0.000718236
0.164041
0.000730513
0.163683
0.000742339
0.163319
0.000753679
0.162949
0.000764507
0.162572
0.000774803
0.162189
0.000784554
0.161801
0.000793741
0.161408
0.000802345
0.161009
0.000810335
0.160605
0.000817661
0.160197
0.000824246
0.159785
0.000829967
0.159369
0.000834631
0.158949
0.000837943
0.158526
0.000839454
0.158099
0.0008386
0.157667
0.000834379
0.000827068
0.166899
0.000829883
-0.167134
0.166645
0.000853036
0.166375
0.000876476
0.166091
0.000900715
0.165793
0.000925443
0.165483
0.000950383
0.16516
0.000975378
0.164826
0.00100027
0.16448
0.00102491
0.164124
0.00104913
0.163757
0.00107284
0.163379
0.00109594
0.162991
0.00111836
0.162593
0.00114004
0.162186
0.00116096
0.16177
0.00118108
0.161344
0.00120037
0.16091
0.00121882
0.160467
0.00123641
0.160016
0.00125312
0.159558
0.00126892
0.159092
0.00128376
0.158618
0.00129758
0.158138
0.00131027
0.157651
0.00132169
0.157157
0.00133162
0.156657
0.00133978
0.15615
0.00134588
0.155635
0.00134939
0.00135051
0.165256
0.00103702
-0.165463
0.165029
0.00107921
0.164785
0.0011207
0.164524
0.00116195
0.164247
0.00120294
0.163953
0.00124355
0.163645
0.00128368
0.163322
0.00132324
0.162985
0.00136211
0.162634
0.00140019
0.162269
0.00143739
0.161892
0.00147365
0.161501
0.0015089
0.161098
0.00154309
0.160683
0.00157619
0.160256
0.00160817
0.159817
0.00163902
0.159367
0.00166871
0.158906
0.00169723
0.158435
0.00172456
0.157953
0.00175069
0.157461
0.00177558
0.15696
0.00179918
0.156449
0.00182143
0.155928
0.00184224
0.155398
0.00186146
0.154859
0.00187895
0.15431
0.00189455
0.153752
0.00190805
0.00191966
0.16291
0.00120273
-0.163075
0.162724
0.00126464
0.162519
0.00132536
0.162296
0.00138519
0.162055
0.00144422
0.161796
0.00150239
0.16152
0.00155963
0.161228
0.00161588
0.160919
0.00167105
0.160594
0.00172507
0.160253
0.00177787
0.159897
0.00182938
0.159527
0.00187954
0.159142
0.00192833
0.158742
0.00197571
0.158329
0.00202164
0.157901
0.00206613
0.157461
0.00210915
0.157008
0.0021507
0.156541
0.00219077
0.156063
0.00222935
0.155572
0.00226644
0.155069
0.002302
0.154554
0.00233601
0.154028
0.00236843
0.153491
0.00239919
0.152941
0.00242823
0.15238
0.0024555
0.151807
0.00248094
0.0025048
0.160004
0.0013221
-0.160123
0.159864
0.00140416
0.159705
0.00148474
0.159526
0.00156402
0.159328
0.00164208
0.159112
0.0017189
0.158877
0.00179443
0.158624
0.00186863
0.158354
0.00194141
0.158066
0.00201272
0.157761
0.0020825
0.15744
0.00215068
0.157102
0.00221721
0.156749
0.00228207
0.156379
0.00234521
0.155994
0.00240662
0.155594
0.00246628
0.155179
0.0025242
0.154749
0.00258036
0.154305
0.00263477
0.153847
0.00268745
0.153375
0.00273839
0.15289
0.00278761
0.152391
0.00283511
0.151878
0.00288089
0.151352
0.00292495
0.150813
0.00296728
0.150261
0.00300792
0.149695
0.00304687
0.00308442
0.15669
0.0013959
-0.156764
0.156596
0.00149819
0.156482
0.0015988
0.156348
0.00169783
0.156195
0.00179533
0.156023
0.0018913
0.155832
0.0019857
0.155622
0.00207847
0.155394
0.00216956
0.155147
0.0022589
0.154883
0.00234643
0.154602
0.0024321
0.154303
0.00251586
0.153988
0.00259768
0.153655
0.00267752
0.153307
0.00275536
0.152942
0.0028312
0.152561
0.00290503
0.152164
0.00297686
0.151752
0.00304672
0.151325
0.00311461
0.150883
0.00318057
0.150426
0.00324463
0.149954
0.00330683
0.149468
0.00336722
0.148967
0.00342583
0.148452
0.00348271
0.147922
0.00353796
0.147377
0.0035916
0.00364393
0.153111
0.00142834
-0.153144
0.153059
0.00155062
0.152986
0.00167107
0.152895
0.00178975
0.152783
0.00190669
0.152653
0.00202186
0.152503
0.00213522
0.152335
0.00224673
0.152148
0.00235633
0.151943
0.00246395
0.15172
0.00256953
0.151479
0.00267302
0.15122
0.00277438
0.150945
0.00287356
0.150652
0.00297054
0.150342
0.00306529
0.150015
0.00315781
0.149672
0.00324811
0.149313
0.00333619
0.148937
0.00342208
0.148546
0.00350583
0.148139
0.00358748
0.147717
0.00366709
0.147279
0.00374473
0.146825
0.00382049
0.146357
0.00389443
0.145873
0.00396667
0.145374
0.00403731
0.144859
0.00410645
0.00417433
0.149388
0.00142543
-0.149385
0.149371
0.00156722
0.149335
0.00170709
0.14928
0.00184505
0.149205
0.00198108
0.149112
0.00211518
0.149
0.00224729
0.148869
0.00237735
0.14872
0.0025053
0.148553
0.00263109
0.148368
0.00275465
0.148165
0.00287592
0.147945
0.00299486
0.147707
0.00311143
0.147452
0.00322559
0.14718
0.00333734
0.146891
0.00344665
0.146586
0.00355355
0.146264
0.00365804
0.145926
0.00376018
0.145571
0.00386001
0.145201
0.00395761
0.144815
0.00405305
0.144414
0.00414644
0.143996
0.0042379
0.143563
0.00432754
0.143114
0.00441551
0.14265
0.00450195
0.142169
0.00458698
0.00467085
0.145619
0.00139384
-0.145587
0.145631
0.00155453
0.145625
0.00171322
0.1456
0.00186989
0.145557
0.00202451
0.145495
0.00217704
0.145415
0.00232743
0.145317
0.00247562
0.1452
0.00262154
0.145066
0.00276513
0.144915
0.00290633
0.144746
0.00304507
0.144559
0.0031813
0.144356
0.00331499
0.144135
0.0034461
0.143898
0.00357461
0.143644
0.00370053
0.143374
0.00382385
0.143087
0.00394461
0.142784
0.00406286
0.142466
0.00417867
0.142131
0.00429212
0.141781
0.00440333
0.141415
0.00451242
0.141033
0.00461956
0.140636
0.0047249
0.140223
0.00482862
0.139794
0.00493091
0.139349
0.00503192
0.0051319
0.141879
0.00134015
-0.141826
0.141915
0.00151905
0.141932
0.00169588
0.141931
0.00187059
0.141913
0.00204315
0.141876
0.00221351
0.141822
0.0023816
0.14175
0.00254735
0.141661
0.00271069
0.141555
0.00287155
0.141431
0.00302987
0.141291
0.00318558
0.141133
0.00333863
0.140959
0.00348898
0.140769
0.00363659
0.140562
0.00378145
0.140339
0.00392354
0.1401
0.00406289
0.139845
0.00419954
0.139574
0.00433352
0.139288
0.00446494
0.138986
0.00459389
0.138669
0.00472052
0.138337
0.00484499
0.137989
0.00496749
0.137625
0.00508824
0.137246
0.00520744
0.136852
0.00532535
0.136442
0.00544214
0.00555808
0.138224
0.00127038
-0.138154
0.138276
0.00146676
0.138311
0.00166103
0.138329
0.0018531
0.138329
0.00204292
0.138312
0.00223043
0.138278
0.00241556
0.138227
0.00259823
0.13816
0.00277835
0.138075
0.00295587
0.137974
0.0031307
0.137857
0.00330279
0.137724
0.00347207
0.137574
0.0036385
0.137409
0.00380204
0.137228
0.00396267
0.137031
0.00412039
0.136818
0.00427521
0.136591
0.00442718
0.136348
0.00457636
0.13609
0.00472284
0.135817
0.00486675
0.135529
0.00500826
0.135227
0.00514757
0.134909
0.0052849
0.134577
0.00542052
0.13423
0.00555471
0.133867
0.00568776
0.13349
0.00581991
0.00595146
0.134691
0.00118972
-0.13461
0.134754
0.00140292
0.134801
0.00161393
0.134832
0.00182266
0.134846
0.00202907
0.134843
0.00223306
0.134824
0.00243456
0.134789
0.00263348
0.134737
0.00282974
0.13467
0.00302326
0.134587
0.00321396
0.134488
0.00340177
0.134373
0.00358664
0.134243
0.00376851
0.134098
0.00394734
0.133937
0.00412312
0.133762
0.00429582
0.133572
0.00446548
0.133367
0.00463212
0.133147
0.00479584
0.132913
0.00495672
0.132665
0.00511492
0.132403
0.00527063
0.132126
0.00542408
0.131836
0.00557555
0.131531
0.00572536
0.131212
0.00587386
0.130878
0.0060214
0.13053
0.00616831
0.00631493
0.131302
0.00110253
-0.131214
0.131373
0.0013319
0.131427
0.00155902
0.131466
0.00178378
0.131489
0.00200613
0.131496
0.00222596
0.131488
0.00244318
0.131464
0.00265771
0.131424
0.00286946
0.131369
0.00307833
0.131298
0.00328425
0.131213
0.00348715
0.131113
0.00368696
0.130998
0.00388362
0.130868
0.00407708
0.130724
0.00426733
0.130565
0.00445435
0.130393
0.00463816
0.130206
0.00481879
0.130005
0.00499633
0.129791
0.00517089
0.129563
0.00534263
0.129322
0.00551177
0.129068
0.00567857
0.1288
0.00584338
0.128519
0.00600656
0.128224
0.00616856
0.127916
0.00632981
0.127593
0.00649075
0.00665177
0.128069
0.0010123
-0.127979
0.128144
0.00125727
0.128203
0.00149992
0.128247
0.00174013
0.128275
0.00197782
0.128288
0.0022129
0.128286
0.00244525
0.128269
0.00267479
0.128237
0.00290142
0.12819
0.00312504
0.128129
0.00334557
0.128053
0.00356293
0.127963
0.00377705
0.127859
0.00398786
0.127741
0.00419532
0.127609
0.00439939
0.127463
0.00460005
0.127304
0.00479732
0.127131
0.00499125
0.126946
0.00518189
0.126747
0.00536937
0.126536
0.00555388
0.126312
0.00573563
0.126076
0.00591495
0.125827
0.00609221
0.125566
0.00626787
0.125292
0.00644245
0.125005
0.00661653
0.124705
0.00679065
0.00696532
0.124998
0.000921718
-0.124908
0.125074
0.0011818
0.125134
0.00143947
0.12518
0.00169462
0.12521
0.00194713
0.125226
0.00219692
0.125228
0.00244387
0.125215
0.00268788
0.125187
0.00292883
0.125146
0.00316665
0.12509
0.00340122
0.12502
0.00363247
0.124937
0.00386031
0.12484
0.00408469
0.12473
0.00430553
0.124607
0.0045228
0.12447
0.00473648
0.124321
0.00494656
0.124159
0.00515309
0.123985
0.00535613
0.123799
0.0055558
0.1236
0.00575229
0.12339
0.00594584
0.123168
0.00613679
0.122935
0.00632558
0.12269
0.00651276
0.122433
0.00669895
0.122165
0.00688487
0.121884
0.00707124
0.00725873
0.122087
0.000832835
-0.121998
0.122161
0.00110761
0.12222
0.00137987
0.122266
0.00164949
0.122296
0.00191638
0.122313
0.00218042
0.122315
0.00244149
0.122304
0.00269948
0.122278