/*--------------------------------*- C++ -*----------------------------------*\
| =========                 |                                                 |
| \\      /  F ield         | OpenFOAM: The Open Source CFD Toolbox           |
|  \\    /   O peration     | Version:  v1912                                 |
|   \\  /    A nd           | Website:  www.openfoam.com                      |
|    \\/     M anipulation  |                                                 |
\*---------------------------------------------------------------------------*/
FoamFile
{
    version     2.0;
    format      ascii;
    class       volVectorField;
    location    "6";
    object      U;
}
// * * * * * * * * * * * * * * * * * * * * * * * * * * * * * * * * * * * * * //

dimensions      [0 1 -1 0 0 0 0];


internalField   nonuniform List<vector> 
9600
(
(0.460981 -9.51535 -1.33732e-19)
(0.148998 -8.8862 0)
(0.199417 -8.39734 -7.44784e-20)
(0.235564 -8.00156 0)
(0.261542 -7.6613 0)
(0.289294 -7.35225 -2.41513e-20)
(0.316118 -7.06116 -1.69551e-22)
(0.340126 -6.78135 1.9057e-20)
(0.361028 -6.50992 0)
(0.378893 -6.24606 -3.1442e-20)
(0.393933 -5.99001 0)
(0.406467 -5.74242 -1.37442e-21)
(0.416867 -5.50399 -2.15232e-21)
(0.425514 -5.27528 -2.05079e-20)
(0.432774 -5.05659 1.66513e-20)
(0.438965 -4.84793 -1.63594e-20)
(0.444338 -4.64898 1.41459e-20)
(0.449215 -4.45915 0)
(0.454197 -4.2776 -1.0844e-20)
(0.458531 -4.10331 1.20722e-20)
(0.834163 -9.49591 -2.6392e-19)
(0.499546 -8.89209 1.21672e-20)
(0.531792 -8.41124 1.54056e-19)
(0.553186 -8.02029 -1.25521e-19)
(0.566131 -7.68264 1.23791e-19)
(0.581832 -7.37415 0)
(0.597106 -7.08222 4.53027e-20)
(0.609853 -6.80075 -4.46711e-20)
(0.619725 -6.52725 -7.54865e-20)
(0.62681 -6.26118 9.17888e-20)
(0.631364 -6.00299 -5.93199e-20)
(0.633758 -5.75344 -2.29233e-20)
(0.63441 -5.51332 4.69003e-20)
(0.633734 -5.28321 0)
(0.632114 -5.06344 0)
(0.629873 -4.854 6.10253e-20)
(0.62725 -4.65456 -1.03053e-19)
(0.624574 -4.46447 0)
(0.622506 -4.28276 0)
(0.620034 -4.10837 -4.57254e-20)
(1.20698 -9.46258 5.44785e-19)
(0.850651 -8.88478 0)
(0.865386 -8.41217 -3.05284e-19)
(0.872489 -8.02659 -2.69977e-19)
(0.872617 -7.69195 0)
(0.876298 -7.38435 4.09537e-19)
(0.879948 -7.09191 -3.82168e-19)
(0.881293 -6.80914 7.2074e-20)
(0.879963 -6.53395 -1.61409e-19)
(0.876087 -6.26607 -2.58526e-19)
(0.869982 -6.00614 3.45091e-19)
(0.86208 -5.75505 -2.09968e-19)
(0.852851 -5.51364 -9.16553e-20)
(0.842743 -5.28254 0)
(0.832161 -5.06208 3.87599e-21)
(0.821432 -4.85226 6.48181e-20)
(0.810781 -4.65271 2.6869e-20)
(0.800541 -4.46274 0)
(0.791422 -4.28125 4.81778e-20)
(0.782105 -4.10714 4.94494e-20)
(1.57829 -9.41506 -7.32417e-19)
(1.2017 -8.86407 -3.29648e-19)
(1.19967 -8.40024 3.22211e-19)
(1.19295 -8.02043 5.27604e-19)
(1.1805 -7.68914 -2.54076e-19)
(1.1722 -7.38275 2.83522e-21)
(1.16415 -7.09014 1.86456e-19)
(1.15396 -6.80643 1.65082e-19)
(1.14126 -6.52992 2.94805e-19)
(1.12626 -6.26065 0)
(1.10934 -5.99941 1.06443e-19)
(1.091 -5.74721 -1.15278e-19)
(1.07178 -5.50493 8.26802e-21)
(1.05215 -5.27325 1.73594e-19)
(1.03254 -5.0525 1.43301e-19)
(1.01329 -4.84268 -2.01014e-19)
(0.994597 -4.64341 6.60493e-20)
(0.976808 -4.45393 -1.03639e-19)
(0.960663 -4.27304 1.03017e-19)
(0.944497 -4.09962 -4.94528e-20)
(1.94776 -9.35336 3.68023e-19)
(1.55241 -8.82996 0)
(1.53427 -8.37539 3.08942e-19)
(1.51411 -8.00169 0)
(1.48929 -7.67408 0)
(1.46904 -7.3692 -2.25792e-19)
(1.44922 -7.07676 -3.92701e-19)
(1.42736 -6.79248 -3.208e-19)
(1.40314 -6.51507 1.64031e-20)
(1.37685 -6.24483 -1.33853e-19)
(1.34898 -5.98271 0)
(1.32009 -5.72983 -1.06228e-19)
(1.29077 -5.48712 -1.88208e-19)
(1.26155 -5.25528 1.61156e-19)
(1.23288 -5.03465 -4.54119e-19)
(1.20509 -4.82523 7.35684e-20)
(1.17836 -4.62663 5.5583e-20)
(1.15306 -4.43802 -1.15361e-19)
(1.12994 -4.25811 -4.93598e-20)
(1.10695 -4.08578 1.46328e-19)
(2.31486 -9.27746 3.46608e-19)
(1.9023 -8.78238 3.2959e-19)
(1.86871 -8.33756 0)
(1.83549 -7.9703 0)
(1.79849 -7.64665 -4.67397e-19)
(1.76633 -7.3436 2.63124e-19)
(1.73465 -7.05167 5.99093e-19)
(1.701 -6.7672 0)
(1.66512 -6.4893 1.50649e-19)
(1.62741 -6.21852 1.33853e-19)
(1.58845 -5.95599 -2.29078e-19)
(1.5489 -5.70288 3.31362e-19)
(1.50942 -5.46019 9.4916e-20)
(1.47056 -5.22861 0)
(1.43279 -5.00851 7.62673e-20)
(1.39646 -4.79989 3.34384e-19)
(1.36173 -4.60234 -1.99308e-19)
(1.32897 -4.415 2.17033e-19)
(1.29895 -4.23644 -4.10139e-19)
(1.26919 -4.06563 4.74791e-19)
(2.67905 -9.1874 3.5015e-19)
(2.25089 -8.72128 -1.8306e-18)
(2.20253 -8.28666 0)
(2.15662 -7.92616 0)
(2.10761 -7.60675 0)
(2.06355 -7.30584 -4.43856e-19)
(2.01995 -7.01477 0)
(1.97437 -6.73051 -6.78569e-19)
(1.9267 -6.45255 6.1742e-19)
(1.87744 -6.1817 -5.6368e-19)
(1.82728 -5.91921 0)
(1.777 -5.66634 0)
(1.72729 -5.42411 0)
(1.67875 -5.19324 -1.7601e-19)
(1.63189 -4.97409 0)
(1.58703 -4.76666 0)
(1.54435 -4.57056 -2.45029e-19)
(1.5042 -4.38486 2.40748e-19)
(1.46737 -4.20804 0)
(1.43093 -4.03917 0)
(3.03979 -9.08326 -1.14553e-18)
(2.59766 -8.64666 7.23891e-19)
(2.5352 -8.22266 0)
(2.47697 -7.86919 0)
(2.41612 -7.5543 0)
(2.36018 -7.25583 4.18996e-19)
(2.30457 -6.96599 -4.17874e-19)
(2.24697 -6.68234 -4.49346e-21)
(2.18738 -6.40478 -6.10993e-19)
(2.12645 -6.13432 5.67658e-19)
(2.06502 -5.87235 -2.49096e-19)
(2.00393 -5.6202 4.2234e-19)
(1.94395 -5.3789 -3.64595e-20)
(1.88573 -5.14918 -3.74894e-19)
(1.82978 -4.9314 -3.06247e-19)
(1.77643 -4.72557 3.00879e-19)
(1.72584 -4.53129 0)
(1.6784 -4.34762 0)
(1.63488 -4.17293 2.06138e-19)
(1.59186 -4.00643 -2.29634e-19)
(3.39653 -8.96514 7.64873e-19)
(2.94209 -8.55852 6.96824e-19)
(2.86623 -8.1455 -1.30611e-18)
(2.79603 -7.79933 6.09412e-19)
(2.72351 -7.48922 0)
(2.65568 -7.19352 4.49252e-19)
(2.58801 -6.90527 -3.81069e-19)
(2.51827 -6.62267 1.06676e-18)
(2.44665 -6.34596 -1.90268e-20)
(2.37397 -6.07638 0)
(2.30119 -5.81543 5.01684e-19)
(2.22925 -5.56448 0)
(2.15898 -5.32458 0)
(2.09107 -5.09645 -1.66888e-19)
(2.02605 -4.88047 3.39801e-19)
(1.96426 -4.67663 0)
(1.90585 -4.48458 2.55072e-19)
(1.85121 -4.30331 1.02286e-19)
(1.80113 -4.13112 -2.27429e-19)
(1.75167 -3.96744 2.18881e-19)
(3.74874 -8.83316 -7.78935e-19)
(3.28366 -8.45689 7.04106e-19)
(3.19509 -8.05517 -1.98058e-18)
(3.11329 -7.71654 6.16034e-19)
(3.02923 -7.41148 0)
(2.94953 -7.11886 -8.9435e-19)
(2.86972 -6.8326 4.27924e-19)
(2.78775 -6.55148 0)
(2.70401 -6.27609 -3.21915e-19)
(2.6195 -6.00789 -5.43826e-19)
(2.53531 -5.74846 -4.59926e-19)
(2.45249 -5.4992 4.23884e-20)
(2.37193 -5.26118 4.27591e-19)
(2.29435 -5.0351 1.66799e-19)
(2.2203 -4.82133 -2.82359e-20)
(2.15012 -4.6199 -3.11586e-19)
(2.08397 -4.43044 -1.36365e-19)
(2.02225 -4.25196 -1.21446e-19)
(1.96576 -4.08266 3.17894e-19)
(1.91003 -3.92223 -4.79809e-19)
(4.09588 -8.68749 7.78937e-19)
(3.62184 -8.34183 -4.26544e-20)
(3.52126 -7.95169 6.24787e-19)
(3.42819 -7.62082 0)
(3.33274 -7.32106 -4.95653e-19)
(3.24118 -7.03184 9.48147e-19)
(3.14916 -6.74796 -7.80372e-19)
(3.05488 -6.46877 7.67945e-19)
(2.95895 -6.1952 -2.95636e-19)
(2.86255 -5.92887 6.07215e-19)
(2.76693 -5.67147 2.56006e-19)
(2.67321 -5.42441 0)
(2.58237 -5.18875 0)
(2.49515 -4.96518 -1.72361e-19)
(2.41212 -4.75405 2.84e-20)
(2.33363 -4.55541 6.08687e-19)
(2.25982 -4.36893 -1.50417e-19)
(2.19114 -4.19361 4.81643e-19)
(2.12839 -4.02758 7.89003e-20)
(2.06658 -3.87086 -4.89941e-19)
(4.43741 -8.52829 -2.37457e-18)
(3.95611 -8.21343 -7.68433e-19)
(3.84421 -7.83509 -2.01542e-18)
(3.74021 -7.51216 -1.19647e-18)
(3.63349 -7.21794 -5.59069e-19)
(3.53008 -6.93247 -5.44503e-19)
(3.4258 -6.65137 -1.70882e-18)
(3.31914 -6.37457 -3.89962e-20)
(3.21096 -6.10332 -1.31515e-18)
(3.10263 -5.83939 2.68389e-20)
(2.99555 -5.58454 -5.25153e-19)
(2.89096 -5.34018 -4.70439e-19)
(2.78987 -5.10736 4.22514e-19)
(2.69306 -4.88674 -3.80481e-19)
(2.6011 -4.67867 -3.43548e-19)
(2.51436 -4.48322 -3.11032e-19)
(2.43298 -4.30009 -8.21544e-19)
(2.35746 -4.1283 2.95879e-19)
(2.28861 -3.96591 6.96434e-19)
(2.22094 -3.81334 -7.43527e-19)
(4.77284 -8.35577 3.18403e-18)
(4.28595 -8.0718 3.7843e-18)
(4.16342 -7.70541 6.31094e-19)
(4.0488 -7.39058 2.97575e-18)
(3.93094 -7.10216 -5.73769e-19)
(3.81567 -6.82076 2.78705e-18)
(3.69909 -6.54286 7.91789e-19)
(3.58 -6.26894 2.19881e-18)
(3.45952 -6.00051 -6.6364e-19)
(3.33925 -5.7395 1.80365e-18)
(3.22073 -5.48771 1.05657e-18)
(3.10529 -5.24657 9.46749e-19)
(2.99399 -5.01708 -1.2583e-18)
(2.88765 -4.79986 1.16682e-18)
(2.78684 -4.59527 6.92091e-19)
(2.69192 -4.40338 6.26845e-19)
(2.60306 -4.22397 5.69252e-19)
(2.5208 -4.05606 4.41546e-21)
(2.44602 -3.8977 4.7252e-19)
(2.37274 -3.74972 4.92104e-19)
(5.10166 -8.17013 -2.34653e-18)
(4.61086 -7.91706 8.48018e-19)
(4.47835 -7.56273 2.02358e-18)
(4.35342 -7.25614 -2.42626e-18)
(4.22453 -6.97375 5.58178e-19)
(4.09741 -6.69678 -1.85658e-18)
(3.9685 -6.42252 9.01834e-19)
(3.83693 -6.15195 -1.4657e-18)
(3.70414 -5.88686 3.89155e-20)
(3.57193 -5.6293 6.4899e-21)
(3.44199 -5.3811 -1.06887e-18)
(3.31575 -5.14367 -4.7631e-19)
(3.19432 -4.91798 8.61405e-19)
(3.07851 -4.70462 5.02783e-21)
(2.96891 -4.50391 -2.69184e-20)
(2.86589 -4.31596 -6.58544e-19)
(2.76962 -4.14061 -2.86923e-19)
(2.68072 -3.97692 -1.85137e-20)
(2.60016 -3.82295 -4.95319e-19)
(2.52151 -3.68005 -2.48521e-19)
(5.42341 -7.97161 0)
(4.93036 -7.74936 -1.55061e-18)
(4.7885 -7.40713 1.24863e-20)
(4.65352 -7.10891 2.39525e-18)
(4.5137 -6.83279 9.65553e-19)
(4.37475 -6.56061 -1.0172e-18)
(4.23348 -6.29042 -8.50924e-19)
(4.08943 -6.0237 0)
(3.94432 -5.76247 -6.45808e-19)
(3.8002 -5.50888 6.11172e-19)
(3.65891 -5.26479 -2.97991e-20)
(3.52195 -5.03157 0)
(3.39045 -4.81015 -4.33361e-19)
(3.26525 -4.60107 3.64621e-19)
(3.14694 -4.40464 2.95374e-19)
(3.03586 -4.22098 -3.71142e-19)
(2.93222 -4.05001 -3.15067e-19)
(2.83674 -3.89087 5.35032e-19)
(2.75049 -3.74164 -4.88846e-19)
(2.66669 -3.60433 2.57573e-19)
(5.73767 -7.76042 2.3982e-18)
(5.24396 -7.56884 -1.59341e-18)
(5.09332 -7.23872 -1.31133e-18)
(4.94856 -6.94897 5.96578e-19)
(4.79791 -6.67938 -1.15845e-18)
(4.64713 -6.41237 0)
(4.4935 -6.1467 0)
(4.33697 -5.88433 0)
(4.17958 -5.62748 -3.44645e-20)
(4.02362 -5.37839 -1.22431e-18)
(3.87105 -5.13891 5.73079e-19)
(3.72346 -4.91038 4.69448e-19)
(3.582 -4.69368 3.8474e-19)
(3.44751 -4.48931 -1.59581e-18)
(3.32055 -4.29753 7.51159e-19)
(3.20147 -4.11847 0)
(3.09048 -3.95216 -2.09912e-20)
(2.98839 -3.79783 -8.33424e-19)
(2.89644 -3.65368 -3.62063e-21)
(2.80765 -3.5223 -2.57701e-19)
(6.04411 -7.53689 -1.63777e-18)
(5.55123 -7.37571 -8.39165e-19)
(5.39228 -7.05762 5.9166e-19)
(5.23798 -6.77644 -1.32746e-19)
(5.07658 -6.51364 -3.3301e-18)
(4.914 -6.25216 2.95337e-18)
(4.74802 -5.99149 -4.4076e-20)
(4.57905 -5.73398 7.77658e-19)
(4.40945 -5.48205 6.86698e-19)
(4.24174 -5.23797 6.18758e-19)
(4.07801 -5.0036 5.53975e-19)
(3.91991 -4.78024 9.71658e-19)
(3.76862 -4.5687 -4.66087e-19)
(3.62495 -4.36942 1.17747e-18)
(3.48944 -4.18262 -7.59623e-19)
(3.36241 -4.00848 -3.04977e-19)
(3.24409 -3.84709 1.22886e-18)
(3.13537 -3.69783 8.08136e-19)
(3.03773 -3.55894 -1.8843e-20)
(2.94425 -3.43353 0)
(6.34275 -7.30153 -8.28446e-19)
(5.85186 -7.17019 1.59079e-18)
(5.68485 -6.86393 1.34573e-18)
(5.52119 -6.5914 -1.33802e-19)
(5.34913 -6.33567 -1.12757e-18)
(5.17479 -6.08015 5.93821e-20)
(4.99651 -5.82496 7.18913e-21)
(4.81516 -5.57283 6.47903e-21)
(4.63346 -5.32635 0)
(4.45412 -5.0878 5.99368e-19)
(4.27938 -4.85903 -1.13787e-18)
(4.11094 -4.64127 -4.74343e-19)
(3.94997 -4.43528 4.70588e-19)
(3.79724 -4.24144 -4.04313e-19)
(3.65327 -4.05996 3.69806e-19)
(3.51833 -3.89102 -3.32609e-19)
(3.39267 -3.73481 3.18525e-21)
(3.2773 -3.59078 -2.76759e-19)
(3.1741 -3.45722 -2.53303e-19)
(3.07653 -3.33842 -2.52953e-19)
(6.634 -7.05486 0)
(6.14575 -6.95227 -7.63812e-19)
(5.97051 -6.65756 7.55055e-19)
(5.79756 -6.39394 1.27265e-18)
(5.61498 -6.14565 -1.12822e-18)
(5.42895 -5.89655 9.48247e-19)
(5.23844 -5.64736 -1.81539e-18)
(5.04483 -5.40116 -1.57449e-18)
(4.85117 -5.16064 -6.69722e-19)
(4.66039 -4.92813 3.43667e-20)
(4.47484 -4.7054 -5.37268e-19)
(4.29625 -4.49365 2.61118e-20)
(4.12577 -4.29355 0)
(3.96412 -4.10544 -7.88433e-19)
(3.81172 -3.92948 4.04815e-19)
(3.66876 -3.76588 0)
(3.53552 -3.61486 -3.06216e-19)
(3.41308 -3.47583 -5.43122e-19)
(3.30349 -3.34782 5.33671e-19)
(3.20111 -3.23844 2.61499e-19)
(6.91748 -6.79612 0)
(6.4324 -6.72123 0)
(6.2487 -6.43845 -1.36653e-18)
(6.06647 -6.18436 -1.13684e-18)
(5.87355 -5.94396 2.32481e-18)
(5.67597 -5.70174 0)
(5.47336 -5.45906 0)
(5.26764 -5.21931 7.90349e-19)
(5.06222 -4.98528 0)
(4.86023 -4.75929 0)
(4.66414 -4.54305 0)
(4.47568 -4.33768 0)
(4.29597 -4.14375 0)
(4.12565 -3.96153 0)
(3.96496 -3.79113 0)
(3.81397 -3.6327 0)
(3.67283 -3.48624 0)
(3.54222 -3.35133 0)
(3.42264 -3.22936 0)
(3.31006 -3.1313 0)
(9.88885 0.0867522 1.12458e-19)
(9.87387 -0.302764 2.17417e-19)
(9.84391 -0.69007 -2.24794e-19)
(9.79957 -1.07501 4.48604e-19)
(9.74053 -1.45727 -4.48604e-19)
(9.66657 -1.83638 -4.18456e-19)
(9.5778 -2.21181 -4.17601e-19)
(9.47441 -2.58304 1.33529e-18)
(9.3566 -2.94952 -8.89781e-19)
(9.22459 -3.31072 8.84268e-19)
(9.07863 -3.66609 -8.8427e-19)
(8.919 -4.01512 8.79447e-19)
(8.74598 -4.35729 -1.74798e-18)
(8.55991 -4.69212 2.56314e-18)
(8.36111 -5.01912 0)
(8.14994 -5.33784 -2.53049e-18)
(7.92676 -5.64787 8.95811e-21)
(7.69206 -5.94886 2.56925e-18)
(7.44591 -6.24066 0)
(7.18994 -6.52257 0)
(9.69551 -0.213104 0)
(9.66411 -0.59337 -1.39729e-20)
(9.61688 -0.970675 0)
(9.55451 -1.34471 4.12627e-19)
(9.47721 -1.7151 4.34119e-19)
(9.38501 -2.08135 -1.24569e-18)
(9.27817 -2.44286 2.19722e-18)
(9.15697 -2.79907 -8.64777e-19)
(9.02172 -3.14943 -8.17515e-19)
(8.87273 -3.49339 -8.14965e-19)
(8.71033 -3.83041 4.17383e-20)
(8.5349 -4.16 8.4687e-19)
(8.3468 -4.48167 -4.19947e-18)
(8.14644 -4.79494 -9.01121e-19)
(7.93424 -5.09939 1.68516e-18)
(7.71061 -5.3946 1.69406e-18)
(7.47595 -5.68022 8.68871e-19)
(7.23075 -5.95592 -1.65824e-18)
(6.97506 -6.22149 7.79945e-19)
(6.70968 -6.47661 0)
(9.43917 -0.158806 9.63629e-20)
(9.41129 -0.527165 -1.98408e-19)
(9.36741 -0.893208 5.68573e-19)
(9.30801 -1.25631 -4.08137e-19)
(9.23345 -1.6159 -3.85319e-19)
(9.14392 -1.97141 4.06891e-19)
(9.03973 -2.3222 0)
(8.92122 -2.66767 0)
(8.78869 -3.00723 1.53405e-18)
(8.64251 -3.34031 2.28993e-18)
(8.48304 -3.66638 -7.1552e-19)
(8.31069 -3.98491 2.26725e-18)
(8.12585 -4.2954 -7.13168e-19)
(7.92896 -4.59738 -2.20815e-18)
(7.72047 -4.8904 7.59798e-21)
(7.50081 -5.17405 1.40874e-18)
(7.27041 -5.44793 -6.22287e-19)
(7.02974 -5.71167 -1.39431e-18)
(6.77902 -5.96497 -7.71004e-19)
(6.5187 -6.2072 1.37635e-18)
(9.12593 -0.129756 0)
(9.10278 -0.48381 1.62038e-19)
(9.06403 -0.836252 1.61047e-19)
(9.01 -1.18626 -6.66046e-19)
(8.941 -1.53312 0)
(8.85718 -1.87624 0)
(8.75888 -2.21496 0)
(8.64639 -2.54866 0)
(8.52003 -2.87674 -7.16667e-19)
(8.38014 -3.1986 -7.14545e-19)
(8.22709 -3.51369 0)
(8.06128 -3.82147 1.3406e-18)
(7.88313 -4.12142 -3.31077e-18)
(7.69306 -4.41305 2.67068e-18)
(7.49151 -4.69589 -2.58087e-18)
(7.27894 -4.96949 -6.26594e-19)
(7.0558 -5.23344 1.39332e-19)
(6.82254 -5.48732 1.3852e-19)
(6.57958 -5.73076 -1.29091e-18)
(6.32738 -5.96322 -6.78998e-20)
(8.77433 -0.118985 0)
(8.75596 -0.457639 -1.59806e-19)
(8.72259 -0.795137 0)
(8.67446 -1.13067 3.19847e-19)
(8.61175 -1.4635 3.02217e-19)
(8.53461 -1.79302 2.71826e-19)
(8.44332 -2.11859 0)
(8.33815 -2.43956 0)
(8.2194 -2.75534 0)
(8.08737 -3.06532 0)
(7.94243 -3.36894 5.67737e-19)
(7.78494 -3.66564 6.22451e-19)
(7.6153 -3.95489 6.21556e-19)
(7.43393 -4.23619 -6.29189e-19)
(7.24126 -4.50906 -1.05292e-18)
(7.03774 -4.77302 1.23509e-18)
(6.82381 -5.02763 2.38722e-18)
(6.59996 -5.27245 1.16022e-18)
(6.36664 -5.50709 0)
(6.12433 -5.73105 -1.08402e-18)
(8.40287 -0.110518 3.17702e-20)
(8.38901 -0.433125 0)
(8.36084 -0.754947 -5.22754e-19)
(8.31853 -1.07524 -4.01092e-23)
(8.2622 -1.39329 1.30535e-20)
(8.19196 -1.70847 -5.61374e-20)
(8.10806 -2.02017 0)
(8.01073 -2.32776 2.53652e-20)
(7.90023 -2.63063 -5.33418e-19)
(7.77684 -2.9282 1.03623e-18)
(7.64087 -3.2199 -1.09004e-18)
(7.49269 -3.50517 6.06651e-19)
(7.33264 -3.78349 -3.10371e-18)
(7.16113 -4.05435 2.04558e-18)
(6.97857 -4.31724 1.10032e-18)
(6.78538 -4.57169 0)
(6.58201 -4.81725 -2.00881e-18)
(6.36891 -5.05346 -5.41789e-20)
(6.14657 -5.27991 -1.98391e-18)
(5.9154 -5.49612 2.0832e-18)
(8.02732 -0.104464 2.80777e-20)
(8.01717 -0.410967 -5.93602e-20)
(7.99347 -0.716992 4.88868e-19)
(7.9563 -1.02185 -1.1171e-20)
(7.90575 -1.32487 4.88937e-19)
(7.8419 -1.62545 -7.39614e-19)
(7.76497 -1.92296 0)
(7.67515 -2.21683 5.00258e-19)
(7.57267 -2.50646 4.50987e-19)
(7.45777 -2.79128 -4.9786e-19)
(7.33074 -3.07074 8.96744e-19)
(7.1919 -3.34429 1.92523e-18)
(7.04158 -3.61141 -8.83072e-19)
(6.88014 -3.8716 -9.76618e-19)
(6.70797 -4.12435 9.27905e-19)
(6.52547 -4.3692 0)
(6.33307 -4.60568 5.27743e-20)
(6.1312 -4.83334 5.62056e-21)
(5.92033 -5.05176 1.86139e-18)
(5.70085 -5.26043 8.55535e-19)
(7.6592 -0.100916 0)
(7.65184 -0.391736 4.88157e-21)
(7.63165 -0.682313 -9.6159e-20)
(7.59871 -0.972009 -4.35099e-19)
(7.55305 -1.26019 4.04599e-19)
(7.49475 -1.54627 0)
(7.42399 -1.82968 8.2665e-19)
(7.34092 -2.10984 -8.27081e-22)
(7.24576 -2.3862 -1.268e-18)
(7.13871 -2.6582 0)
(7.02003 -2.92532 -8.82471e-19)
(6.89001 -3.18703 3.67314e-20)
(6.74895 -3.44282 -2.45636e-18)
(6.59718 -3.69221 3.90041e-21)
(6.43507 -3.9347 8.25858e-19)
(6.26299 -4.16982 0)
(6.08135 -4.39713 -8.12354e-19)
(5.89055 -4.61617 5.07485e-21)
(5.69105 -4.82651 8.07288e-19)
(5.48322 -5.02766 -8.41913e-19)
(7.30596 -0.0990138 0)
(7.30052 -0.374861 9.93397e-20)
(7.28296 -0.650629 2.07257e-19)
(7.25335 -0.925727 -3.78707e-19)
(7.21168 -1.19956 -1.93101e-20)
(7.15803 -1.47158 -1.89293e-19)
(7.09254 -1.74124 -7.58517e-19)
(7.01536 -2.00799 3.76841e-19)
(6.92665 -2.27132 1.87818e-20)
(6.82662 -2.5307 3.74698e-19)
(6.71548 -2.78562 3.40168e-19)
(6.5935 -3.03558 1.49562e-18)
(6.46096 -3.2801 7.48861e-19)
(6.31817 -3.5187 1.47718e-18)
(6.16546 -3.75093 -7.36785e-19)
(6.00318 -3.97632 3.07677e-20)
(5.83173 -4.19443 -7.28765e-19)
(5.65148 -4.40481 0)
(5.46288 -4.60704 6.84897e-19)
(5.26628 -4.80064 0)
(6.97176 -0.0980519 4.23435e-20)
(6.96755 -0.359786 -1.23525e-19)
(6.95189 -0.62155 3.40475e-19)
(6.92482 -0.882793 -1.69737e-19)
(6.88634 -1.14296 1.4321e-20)
(6.83651 -1.40154 -1.69644e-19)
(6.77545 -1.658 3.55249e-19)
(6.7033 -1.91185 -3.3756e-19)
(6.62019 -2.16259 3.37559e-19)
(6.5263 -2.40972 6.43402e-19)
(6.42185 -2.65277 -7.02904e-19)
(6.30707 -2.89126 -3.45465e-20)
(6.18221 -3.12473 -2.02518e-18)
(6.04757 -3.35274 3.38934e-21)
(5.90345 -3.57485 3.03535e-20)
(5.7502 -3.79062 1.31138e-18)
(5.58818 -3.99962 -6.47554e-19)
(5.41778 -4.20142 -6.12901e-19)
(5.23939 -4.39559 -3.0133e-20)
(5.05337 -4.58165 0)
(6.65849 -0.0975631 0)
(6.65496 -0.346105 1.56086e-19)
(6.64061 -0.594741 -5.35153e-19)
(6.61546 -0.842959 -1.40294e-19)
(6.5795 -1.09024 3.19531e-19)
(6.53279 -1.3361 0)
(6.47543 -1.58005 0)
(6.40753 -1.82162 3.03344e-19)
(6.32924 -2.06033 -3.03343e-19)
(6.2407 -2.29573 2.47774e-19)
(6.14212 -2.52737 -3.01338e-19)
(6.0337 -2.7548 5.97485e-19)
(5.9157 -2.97759 -1.19198e-18)
(5.78836 -3.19532 1.18578e-18)
(5.65201 -3.40759 2.67595e-20)
(5.50695 -3.61397 -6.14436e-19)
(5.35355 -3.81406 -5.80448e-19)
(5.19218 -4.00744 1.18711e-18)
(5.02323 -4.1937 5.5e-19)
(4.84705 -4.37235 0)
(6.36646 -0.0972439 1.36005e-21)
(6.36325 -0.333507 1.00626e-19)
(6.34977 -0.569902 2.12851e-19)
(6.32605 -0.805945 1.50127e-19)
(6.29208 -1.04115 1.37629e-19)
(6.24791 -1.27507 1.26664e-19)
(6.19364 -1.50724 0)
(6.12936 -1.7372 -5.26164e-19)
(6.0552 -1.96454 -2.7257e-19)
(5.97131 -2.1888 2.2614e-19)
(5.87786 -2.40956 0)
(5.77506 -2.62643 5.37981e-19)
(5.66312 -2.83899 -1.58805e-18)
(5.54231 -3.04686 5.35103e-19)
(5.41291 -3.24964 0)
(5.27524 -3.44697 -5.05537e-19)
(5.12964 -3.63845 -1.02385e-18)
(4.97649 -3.82369 5.02227e-19)
(4.8162 -4.00228 -2.24531e-20)
(4.6491 -4.17374 0)
(6.09509 -0.0968831 2.48633e-21)
(6.09192 -0.321749 -6.50075e-20)
(6.07901 -0.546762 1.24775e-19)
(6.05636 -0.771466 -9.31642e-21)
(6.02398 -0.995408 2.49304e-19)
(5.9819 -1.21815 -3.84285e-19)
(5.93022 -1.43928 0)
(5.86903 -1.65835 4.0312e-20)
(5.79844 -1.87497 0)
(5.71859 -2.08872 -5.13426e-19)
(5.62965 -2.29921 0)
(5.5318 -2.50606 -4.68392e-19)
(5.42526 -2.70889 1.45484e-18)
(5.31026 -2.90735 -9.63225e-19)
(5.18708 -3.10109 4.80123e-19)
(5.05603 -3.28976 -4.16435e-19)
(4.91747 -3.473 4.93375e-19)
(4.77176 -3.65045 -4.89883e-19)
(4.61935 -3.82171 0)
(4.46059 -3.98629 0)
(5.84325 -0.0963285 2.94486e-20)
(5.83996 -0.310647 0)
(5.82739 -0.525096 0)
(5.80557 -0.739258 -2.35986e-19)
(5.77447 -0.952707 -2.18283e-19)
(5.73414 -1.16504 0)
(5.68467 -1.37584 0)
(5.62615 -1.58472 3.51264e-20)
(5.55867 -1.79129 4.31591e-19)
(5.48237 -1.99517 -2.07142e-19)
(5.39741 -2.19598 -2.22508e-19)
(5.30395 -2.39338 9.00403e-19)
(5.2022 -2.58702 -1.33523e-18)
(5.09239 -2.77658 8.5707e-19)
(4.97479 -2.96173 0)
(4.84968 -3.14218 1.72437e-18)
(4.71744 -3.31761 -1.24598e-18)
(4.57845 -3.4877 4.25176e-19)
(4.43321 -3.65203 8.08009e-19)
(4.28207 -3.81016 0)
(5.60955 -0.0955868 -2.49128e-20)
(5.60606 -0.300098 0)
(5.59372 -0.504732 -3.54601e-21)
(5.57253 -0.709093 -1.9935e-19)
(5.5425 -0.912779 6.19929e-19)
(5.50367 -1.1154 -1.03067e-19)
(5.45612 -1.31658 0)
(5.39993 -1.51595 8.20651e-19)
(5.3352 -1.71312 -4.24032e-19)
(5.26206 -1.90775 3.07463e-20)
(5.18064 -2.09949 3.89219e-19)
(5.09111 -2.28802 3.99974e-19)
(4.99366 -2.47301 -7.97282e-19)
(4.88851 -2.65418 -7.77962e-19)
(4.7759 -2.83124 -7.57224e-19)
(4.65614 -3.00395 -8.12637e-19)
(4.52958 -3.17202 8.06431e-19)
(4.39664 -3.33522 -3.82316e-19)
(4.25788 -3.49311 -4.11541e-19)
(4.11369 -3.64534 0)
(5.39265 -0.094643 2.44762e-20)
(5.38889 -0.29002 -9.13445e-20)
(5.37669 -0.485525 -9.49207e-20)
(5.35602 -0.680769 2.84045e-19)
(5.3269 -0.875369 -1.015e-19)
(5.28938 -1.06896 -9.41771e-20)
(5.24353 -1.26117 0)
(5.18943 -1.45166 -3.88049e-19)
(5.12716 -1.64006 0)
(5.05686 -1.82606 3.8452e-19)
(4.97865 -2.00932 -7.37811e-19)
(4.89268 -2.18954 3.64484e-19)
(4.79913 -2.36643 -7.26348e-19)
(4.6982 -2.53973 7.52412e-19)
(4.59012 -2.70921 4.13091e-19)
(4.47518 -2.87465 0)
(4.35374 -3.03585 -3.50255e-19)
(4.22622 -3.19268 3.50256e-19)
(4.09332 -3.34467 0)
(3.95541 -3.49176 0)
(5.19116 -0.0934725 0)
(5.18712 -0.280362 8.9745e-20)
(5.175 -0.46737 3.14791e-21)
(5.15479 -0.654122 -9.27592e-20)
(5.12649 -0.840255 -8.09737e-20)
(5.09016 -1.02542 -8.63046e-20)
(5.04586 -1.20927 3.32517e-19)
(4.99367 -1.39148 0)
(4.93368 -1.57171 0)
(4.86599 -1.74965 1.68835e-19)
(4.79075 -1.92499 1.80355e-19)
(4.70807 -2.09746 6.46289e-19)
(4.61813 -2.26679 -3.30477e-19)
(4.5211 -2.43275 3.30477e-19)
(4.4172 -2.59514 3.52972e-19)
(4.30667 -2.75381 2.23787e-20)
(4.18988 -2.90862 -6.41054e-19)
(4.06724 -3.0596 2.83706e-21)
(3.93963 -3.20625 3.16233e-19)
(3.80728 -3.34908 0)
(5.0038 -0.0920823 -1.99156e-20)
(4.9995 -0.271104 1.99154e-20)
(4.98747 -0.450227 0)
(4.96768 -0.629095 7.47665e-20)
(4.94015 -0.807365 2.43862e-19)
(4.90494 -0.984708 -3.07022e-19)
(4.86211 -1.1608 -3.26709e-19)
(4.81172 -1.33532 0)
(4.75388 -1.50795 0)
(4.68869 -1.67841 0)
(4.61626 -1.84641 -5.97869e-19)
(4.53671 -2.01168 -4.16713e-20)
(4.45019 -2.17399 -3.0265e-19)
(4.35685 -2.33313 1.94347e-20)
(4.25688 -2.48894 -5.97078e-19)
(4.15048 -2.64134 9.10726e-19)
(4.03799 -2.79028 -8.57408e-19)
(3.91974 -2.93598 2.91358e-19)
(3.79694 -3.07789 5.55039e-19)
(3.66923 -3.21736 0)
(4.82939 -0.0902355 1.78207e-20)
(4.8249 -0.262115 0)
(4.81297 -0.434084 -7.34137e-20)
(4.79362 -0.605805 -1.51465e-19)
(4.76684 -0.776955 7.32894e-20)
(4.7327 -0.947226 5.8487e-19)
(4.69125 -1.11631 0)
(4.64259 -1.2839 -2.80689e-19)
(4.58677 -1.44971 -1.43486e-19)
(4.52392 -1.61347 -2.68568e-19)
(4.45412 -1.7749 -1.05616e-19)
(4.37749 -1.93376 -8.48528e-19)
(4.29415 -2.08984 -5.58743e-19)
(4.20422 -2.24294 5.7566e-19)
(4.10785 -2.39295 5.48195e-19)
(4.00515 -2.53982 -2.85135e-21)
(3.89645 -2.68365 1.93243e-20)
(3.78177 -2.82486 2.67015e-19)
(3.66293 -2.96322 -5.4538e-19)
(3.53816 -3.101 0)
(4.66677 -0.0882911 -3.72628e-20)
(4.66218 -0.253421 1.83372e-20)
(4.65046 -0.418698 -7.32358e-20)
(4.63162 -0.58381 7.3212e-20)
(4.60566 -0.748458 -2.10221e-19)
(4.57264 -0.912355 -6.54865e-19)
(4.53261 -1.07521 0)
(4.48564 -1.23674 2.97382e-19)
(4.4318 -1.39666 -2.76955e-19)
(4.37115 -1.55472 5.87379e-19)
(4.3038 -1.71067 5.83056e-19)
(4.22983 -1.86428 8.56916e-19)
(4.14933 -2.01533 -5.54528e-19)
(4.06237 -2.16366 2.75969e-19)
(3.96905 -2.30915 -2.70299e-19)
(3.86935 -2.45176 2.70331e-19)
(3.76357 -2.5917 0)
(3.65104 -2.72949 2.42014e-19)
(3.53512 -2.86567 -2.3534e-19)
(3.41091 -3.0061 0)
(6.98591 7.1069 0)
(7.26044 6.82383 0)
(7.52261 6.53153 8.36694e-19)
(7.77316 6.23051 1.30814e-20)
(8.01148 5.92042 -8.96048e-19)
(8.23692 5.60124 0)
(8.44911 5.27335 9.20195e-19)
(8.64773 4.93724 -1.71607e-18)
(8.83247 4.59345 -8.66055e-19)
(9.00303 4.24254 -8.73186e-19)
(9.15914 3.88513 8.73183e-19)
(9.30055 3.52179 -8.81429e-19)
(9.42706 3.15315 4.3978e-19)
(9.5385 2.77986 4.13683e-19)
(9.63475 2.40254 4.15181e-19)
(9.7157 2.02185 -4.46624e-19)
(9.78128 1.63841 4.46624e-19)
(9.83152 1.25287 -2.24229e-19)
(9.86637 0.865615 -1.05091e-19)
(9.88623 0.477952 5.61044e-20)
(7.05703 6.72157 0)
(7.32271 6.44458 -7.39358e-19)
(7.57546 6.15702 -1.59184e-18)
(7.81574 5.85959 2.3464e-18)
(8.04339 5.55256 -1.63595e-18)
(8.25791 5.23618 1.63427e-18)
(8.45889 4.91098 9.00472e-19)
(8.64597 4.57754 -2.52486e-18)
(8.81881 4.23645 8.23886e-19)
(8.97708 3.88835 1.62762e-18)
(9.12043 3.5339 7.97496e-19)
(9.24859 3.17375 8.02138e-19)
(9.36135 2.80855 -8.53725e-19)
(9.45855 2.439 1.24965e-18)
(9.54006 2.06583 -1.75063e-18)
(9.60577 1.68973 4.30249e-19)
(9.65561 1.31136 -4.09613e-19)
(9.68961 0.931425 0)
(9.70767 0.550369 1.40171e-20)
(9.71 0.169057 0)
(6.79118 6.48635 -1.27881e-18)
(7.05312 6.22836 7.30898e-19)
(7.30337 5.95891 1.30928e-18)
(7.54173 5.67871 5.77725e-19)
(7.7679 5.3883 1.50638e-18)
(7.9814 5.08812 1.30731e-20)
(8.18182 4.77874 -7.53555e-19)
(8.36874 4.46078 -2.23151e-18)
(8.54179 4.13483 2.1943e-18)
(8.70067 3.80155 -2.25872e-18)
(8.84506 3.46148 -7.51364e-19)
(8.97449 3.11529 -1.50073e-18)
(9.08877 2.76367 0)
(9.18772 2.40739 0)
(9.27115 2.04716 0)
(9.33891 1.68367 -3.81527e-19)
(9.39088 1.31762 4.03713e-19)
(9.42701 0.949719 3.82737e-19)
(9.44717 0.580554 5.58821e-21)
(9.45121 0.210939 9.61346e-20)
(6.49533 6.18162 1.3366e-18)
(6.74949 5.94184 -1.19314e-18)
(6.99317 5.69059 -1.44861e-19)
(7.22587 5.42848 -1.45471e-19)
(7.44715 5.15606 3.08337e-18)
(7.65651 4.87379 -6.19149e-20)
(7.85355 4.58222 8.15345e-22)
(8.03781 4.28193 -1.95235e-18)
(8.20889 3.97347 1.28428e-18)
(8.36634 3.65741 0)
(8.50989 3.3343 6.943e-19)
(8.63921 3.00484 6.9877e-19)
(8.75399 2.6698 0)
(8.85403 2.32986 0)
(8.93906 1.98565 0)
(9.0089 1.63786 0)
(9.06339 1.2872 -1.80955e-20)
(9.10242 0.934379 3.38464e-19)
(9.12592 0.580087 -1.61201e-19)
(9.13371 0.225108 0)
(6.19397 5.84797 1.10371e-18)
(6.43785 5.62487 0)
(6.67225 5.39067 -3.21064e-18)
(6.89659 5.14586 -1.09436e-18)
(7.11036 4.89093 -1.15823e-18)
(7.31305 4.62629 -1.23445e-18)
(7.50423 4.35247 5.79962e-19)
(7.68347 4.06996 -6.07218e-19)
(7.85032 3.77929 1.66739e-18)
(8.00438 3.48101 -5.4249e-19)
(8.14526 3.17576 0)
(8.27275 2.86417 0)
(8.38649 2.5469 0)
(8.48615 2.22449 0)
(8.57152 1.89758 -8.57733e-19)
(8.6424 1.5669 2.96441e-19)
(8.69859 1.23312 -3.15957e-19)
(8.73998 0.896928 0)
(8.76647 0.559025 1.58981e-19)
(8.77787 0.220127 0)
(5.89475 5.51723 9.1656e-19)
(6.12729 5.30929 -4.15597e-20)
(6.35116 5.09074 1.93441e-18)
(6.56582 4.862 9.62556e-19)
(6.7707 4.62347 0)
(6.96532 4.37555 -1.02871e-18)
(7.14924 4.11871 5.47836e-20)
(7.32202 3.85342 -1.04104e-18)
(7.48326 3.58017 1.41669e-18)
(7.63254 3.29948 2.75331e-20)
(7.7695 3.01192 2.32948e-20)
(7.89385 2.71808 -5.1485e-19)
(8.00525 2.41845 1.00589e-18)
(8.10339 2.11364 0)
(8.18807 1.80431 5.59138e-20)
(8.25909 1.49104 5.13322e-19)
(8.31619 1.17455 1.11552e-21)
(8.35921 0.855479 -1.24826e-20)
(8.38808 0.534492 0)
(8.40258 0.212246 -3.17024e-20)
(5.60883 5.20087 0)
(5.82968 5.00642 -4.20758e-20)
(6.04256 4.80193 1.14695e-20)
(6.24692 4.58772 -1.71617e-18)
(6.44223 4.36416 0)
(6.628 4.1316 8.62664e-19)
(6.80383 3.89049 9.26809e-19)
(6.96928 3.64124 -2.68051e-18)
(7.12396 3.38431 -5.45978e-20)
(7.26748 3.12018 -8.51054e-19)
(7.39949 2.84936 4.76307e-19)
(7.51968 2.57236 -4.32822e-19)
(7.62772 2.28969 -4.83509e-19)
(7.72334 2.00196 0)
(7.80623 1.70972 2.57013e-19)
(7.87627 1.41356 -1.35311e-20)
(7.93328 1.11404 -2.34747e-19)
(7.97699 0.811845 -1.34499e-20)
(8.00731 0.507608 -5.90967e-20)
(8.02403 0.201939 1.18504e-19)
(5.34186 4.90433 0)
(5.55118 4.72181 7.25492e-19)
(5.75309 4.52981 1.0626e-20)
(5.94709 4.3286 -7.36101e-19)
(6.13264 4.11851 0)
(6.3093 3.89987 7.65473e-19)
(6.47666 3.67306 -7.25086e-19)
(6.63434 3.43848 -8.14759e-19)
(6.78194 3.19654 1.53312e-18)
(6.91912 2.94769 8.37518e-19)
(7.04551 2.69238 0)
(7.16083 2.4311 4.05779e-19)
(7.26476 2.16435 -2.96273e-21)
(7.35703 1.89266 1.73894e-20)
(7.4374 1.61656 0)
(7.50559 1.33664 -3.96056e-19)
(7.56149 1.05338 -2.08971e-19)
(7.60498 0.767374 3.03935e-19)
(7.63584 0.479255 2.0519e-19)
(7.65386 0.189609 -2.77429e-20)
(5.09534 4.62986 0)
(5.2936 4.45791 -6.10248e-19)
(5.48492 4.27702 0)
(5.66882 4.08745 -6.64142e-19)
(5.8448 3.88945 1.30259e-18)
(6.01244 3.68335 -1.32897e-18)
(6.17137 3.46948 2.09396e-18)
(6.3212 3.24822 -2.08343e-18)
(6.46158 3.01994 -1.40847e-18)
(6.59217 2.78506 -1.03335e-18)
(6.71265 2.544 3.56047e-19)
(6.82272 2.29722 -7.41524e-19)
(6.9221 2.04518 1.46106e-20)
(7.01052 1.78838 7.35055e-19)
(7.08775 1.52731 -1.84818e-19)
(7.15356 1.26249 7.60201e-19)
(7.20775 0.994479 -3.72486e-19)
(7.25022 0.723743 1.68963e-19)
(7.28085 0.45086 -9.86519e-20)
(7.29939 0.176406 0)
(4.8688 4.37738 0)
(5.05664 4.21486 1.17537e-18)
(5.23795 4.04393 5.63618e-19)
(5.41225 3.8648 -5.84488e-19)
(5.57908 3.6777 -1.19941e-18)
(5.73804 3.48292 1.8257e-18)
(5.88879 3.28077 7.63268e-21)
(6.03096 3.07159 -5.90028e-19)
(6.16423 2.85574 1.28381e-18)
(6.28828 2.63359 6.65973e-19)
(6.4028 2.40555 -6.13566e-19)
(6.50752 2.17206 3.24532e-19)
(6.60217 1.93353 1.7253e-20)
(6.68649 1.69045 -3.44252e-19)
(6.76027 1.44326 -1.65668e-19)
(6.8233 1.19246 3.3224e-19)
(6.87537 0.938543 -1.66572e-19)
(6.91636 0.682044 -3.36551e-19)
(6.94619 0.4234 3.84792e-20)