/*--------------------------------*- C++ -*----------------------------------*\
  =========                 |
  \\      /  F ield         | OpenFOAM: The Open Source CFD Toolbox
   \\    /   O peration     | Website:  https://openfoam.org
    \\  /    A nd           | Version:  6.0
     \\/     M anipulation  |
\*---------------------------------------------------------------------------*/
FoamFile
{
    version     2.0;
    format      ascii;
    class       surfaceScalarField;
    location    "7.735";
    object      phi;
}
// * * * * * * * * * * * * * * * * * * * * * * * * * * * * * * * * * * * * * //

dimensions      [0 3 -1 0 0 0 0];

internalField   nonuniform List<scalar> 
4670
(
-0.00019592
-0.0217485
0.0219445
-0.000540086
-0.0169535
0.0172977
-0.000902842
-0.0133505
0.0137133
-0.00121199
-0.0106488
0.0109579
-0.00143103
-0.00861083
0.00882987
-0.00154785
-0.00705103
0.00716784
-0.00156746
-0.00582861
0.00584822
-0.00150732
-0.00483907
0.00477893
-0.00139434
-0.00400564
0.00389266
-0.00327343
0.00314136
-0.00126227
-0.000182942
-0.0215656
-0.00048061
-0.0166558
-0.000756565
-0.0130746
-0.000937033
-0.0104683
-0.000985752
-0.00856211
-0.000891161
-0.00714562
-0.000659225
-0.00606055
-0.000309396
-0.0051889
0.000127461
-0.0044425
-0.00375686
0.000610893
-0.000160688
-0.0214049
-0.000383069
-0.0164334
-0.000529315
-0.0129283
-0.000526686
-0.010471
-0.000339949
-0.00874884
4.23281e-05
-0.00752789
0.000614635
-0.00663285
0.00135731
-0.00593157
0.00223669
-0.00532188
-0.00472505
0.00320489
-0.000127704
-0.0212772
-0.00024652
-0.0163146
-0.000221623
-0.0129532
1.52739e-05
-0.0107079
0.000496427
-0.00923
0.00123267
-0.00826414
0.00221999
-0.00762017
0.00344078
-0.00715236
0.00486123
-0.00674232
-0.00629067
0.00642684
-8.28936e-05
-0.0211943
-6.85862e-05
-0.0163289
0.000169359
-0.0131912
0.000690339
-0.0112288
0.00152026
-0.0100599
0.00266728
-0.00941117
0.00412866
-0.00908155
0.0058911
-0.0089148
0.0079248
-0.00877603
-0.00853824
0.0101724
-2.46084e-05
-0.0211697
0.000154913
-0.0165085
0.000650192
-0.0136865
0.00150634
-0.012085
0.00273795
-0.0112915
0.0043461
-0.0110193
0.00632642
-0.0110619
0.00867036
-0.0112587
0.0113575
-0.0114632
-0.0115155
0.0143347
4.91675e-05
-0.0212189
0.000428937
-0.0168882
0.00122908
-0.0144866
0.00247476
-0.0133307
0.00416325
-0.01298
0.00628158
-0.0131376
0.00881664
-0.0135969
0.0117601
-0.0142022
0.0151043
-0.0148073
-0.0152241
0.0188129
0.000140135
-0.021359
0.000756797
-0.0175049
0.00191092
-0.0156407
0.00360298
-0.0150227
0.0058073
-0.0151843
0.00848853
-0.0158189
0.0116131
-0.0167215
0.0151599
-0.017749
0.0191294
-0.0187768
-0.0196273
0.0235326
0.000248949
-0.0216079
0.00113706
-0.018393
0.00269074
-0.0171944
0.00488374
-0.0172157
0.00766513
-0.0179657
0.0109719
-0.0191256
0.0147375
-0.0204871
0.018904
-0.0219155
0.0234571
-0.0233299
-0.0246973
0.0285271
0.000375211
-0.0219832
0.00155958
-0.0195774
0.00354433
-0.0191791
0.00627848
-0.0199499
0.00969262
-0.0213799
0.0137084
-0.0231414
0.0182401
-0.0250189
0.0231874
-0.0268628
0.028436
-0.0285785
-0.0302002
0.0339388
0.0302111
0.00118873
-0.0313998
0.0290179
0.00119316
0.0278473
0.00117062
0.0267248
0.00112248
0.0256727
0.00105209
0.0247092
0.000963534
0.0238484
0.000860783
0.0231013
0.000747098
0.0224767
0.000624571
0.000493563
0.0401835
0.00371533
-0.0427101
0.0375386
0.00383804
0.0348461
0.00386307
0.0321739
0.00379473
0.0295846
0.00364137
0.0271342
0.00341396
0.0248708
0.00312416
0.0228353
0.00278257
0.0210621
0.00239783
0.00197825
0.0489849
0.00689423
-0.0521638
0.0455363
0.00728657
0.0419117
0.00748775
0.0382071
0.00749933
0.0345175
0.00733094
0.0309329
0.00699855
0.0275358
0.00652123
0.0244009
0.00591749
0.0215956
0.00520316
0.00439469
0.0562648
0.0102466
-0.0596172
0.0524898
0.0110616
0.0483901
0.0115875
0.0440743
0.0118151
0.0396568
0.0117484
0.0352528
0.0114026
0.0309737
0.0108003
0.0269268
0.00996439
0.0232171
0.00891287
0.00766188
0.0619649
0.0134575
-0.0651758
0.0582012
0.0148253
0.0539721
0.0158166
0.049383
0.0164042
0.0445533
0.0165781
0.0396101
0.0163459
0.0346834
0.0157271
0.0299051
0.0147426
0.0254161
0.0134019
0.0116981
0.0661996
0.0163446
-0.0690867
0.0626657
0.0183591
0.058552
0.0199303
0.0539486
0.0210076
0.0489656
0.0215611
0.0437278
0.0215837
0.0383689
0.021086
0.0330306
0.0200809
0.0278778
0.0185547
0.0164345
0.069169
0.0188262
-0.0716505
0.0659869
0.0215412
0.0621464
0.0237708
0.0577144
0.0254396
0.0527816
0.0264939
0.0474576
0.0269077
0.0418632
0.0266804
0.0361279
0.0258162
0.0304138
0.0242687
0.0218294
0.0710986
0.0208893
-0.0731618
0.0683179
0.024322
0.0648375
0.0272512
0.0606992
0.0295779
0.0559691
0.0312239
0.0507331
0.0321436
0.0450853
0.0323283
0.0391152
0.0317864
0.0329297
0.0304542
0.0278964
0.0721981
0.0225638
-0.0738726
0.0698185
0.0267016
0.0667322
0.0303375
0.0629585
0.0333517
0.0585395
0.0356429
0.0535363
0.0371468
0.048012
0.0378525
0.0419961
0.0378023
0.0354522
0.0369981
0.03477
0.0726369
-0.0739771
0.023904
0.0706254
0.0287131
0.0679283
0.0330346
0.0645485
0.0367315
0.0605101
0.0396813
0.0558563
0.0418006
0.0506329
0.0430759
0.0448352
0.0435999
0.0382675
0.0435658
0.0428373
0.0367799
-0.000323977
-0.0364559
0.0369013
-0.000121477
0.0368157
8.56809e-05
0.0365258
0.000289866
0.036041
0.00048481
0.0353764
0.000664619
0.0345525
0.000823837
0.0335948
0.000957692
0.0325327
0.00106212
0.00113292
0.0509489
-0.00149645
-0.0497764
0.0516943
-0.000866901
0.0520009
-0.000220865
0.051863
0.000427769
0.0512846
0.00106319
0.0502807
0.00166853
0.0488778
0.00222666
0.0471143
0.00272118
0.0450392
0.00313729
0.00346204
0.0589841
-0.00346363
-0.0570169
0.0604355
-0.00231835
0.0613443
-0.00112963
0.0616887
8.33349e-05
0.0614567
0.00129517
0.0606485
0.00247679
0.0592781
0.00359705
0.0573749
0.00462437
0.0549837
0.00552852
0.00628194
0.06298
-0.00606862
-0.060375
0.0650625
-0.00440086
0.0665811
-0.0026483
0.0674979
-0.000833443
0.0677833
0.00100979
0.0674191
0.00284098
0.0664008
0.00461533
0.0647395
0.00628574
0.062463
0.007805
0.00912775
0.0644456
-0.00913473
-0.0613795
0.0670262
-0.00698146
0.0690668
-0.00468888
0.0705157
-0.00228238
0.0713299
0.000195576
0.0714765
0.00269438
0.0709343
0.00515756
0.0696954
0.00752458
0.0677676
0.00973285
0.0117195
0.0644391
-0.0125106
-0.0610633
0.0673855
-0.00992778
0.0698315
-0.00713496
0.0717155
-0.00416634
0.0729873
-0.00107619
0.0736065
0.0020752
0.0735417
0.00522232
0.0727713
0.00829501
0.0712849
0.0112192
0.0139177
0.0636621
-0.0160936
-0.060079
0.0668715
-0.0131372
0.0696128
-0.00987623
0.0718195
-0.00637306
0.0734438
-0.00270054
0.0744467
0.00107232
0.0747944
0.00487467
0.0744578
0.00863161
0.0734142
0.0122627
0.0156814
0.0625626
-0.0198473
-0.058809
0.065965
-0.0165395
0.0689042
-0.0128154
0.0713235
-0.00879236
0.0731889
-0.00456593
0.0744708
-0.000209523
0.0751389
0.00420658
0.0751624
0.00860809
0.0745117
0.0129134
0.0170314
0.0614453
-0.0237941
-0.0574985
0.0649695
-0.0200638
0.0680066
-0.0158525
0.0705323
-0.0113181
0.072535
-0.0065686
0.0739967
-0.0016712
0.0748922
0.00331104
0.0751916
0.00830874
0.0748623
0.0132426
0.018021
0.0605021
-0.0564377
-0.0278585
0.0640481
-0.0236097
0.0670651
-0.0188696
0.0696023
-0.0138553
0.0716586
-0.00862492
0.07322
-0.0032326
0.0742631
0.00226788
0.0747589
0.007813
0.0746747
0.0133268
0.0187187
0.0424113
0.0134163
-0.008133
-0.0476946
0.0370428
0.0141526
-0.00878413
0.0315903
0.0150272
-0.00957464
0.0260703
0.0160869
-0.0105669
0.0205266
0.0173907
-0.011847
0.0150536
0.0189896
-0.0135166
0.00983161
0.0208908
-0.0156688
0.00517918
0.0229829
-0.0183305
0.00162406
0.0249071
-0.0213519
0.025839
-0.024215
0.0421739
0.018672
-0.0474296
0.0368316
0.019495
0.0314046
0.0204541
0.0259097
0.0215818
0.0203911
0.0229093
0.0149438
0.0244369
0.00974943
0.0260851
0.00512768
0.0276046
0.0016042
0.0284305
0.0274432
0.0415645
0.0238701
-0.0467625
0.0362795
0.0247799
0.0309115
0.0258222
0.0254784
0.0270149
0.0200259
0.0283618
0.0146507
0.0298121
0.00953555
0.0312002
0.00499845
0.0321417
0.00155543
0.0318736
0.0289987
0.0405862
0.0289827
-0.0456987
0.0353883
0.0299778
0.0301117
0.0310988
0.0247767
0.03235
0.0194313
0.0337072
0.0141749
0.0350686
0.00919099
0.0361841
0.00479301
0.0365397
0.0014796
0.035187
0.0304783
0.0392417
0.0339843
-0.0442433
0.0341592
0.0350603
0.029006
0.0362519
0.0238054
0.0375506
0.0186088
0.0389038
0.0135183
0.0401591
0.00871787
0.0409845
0.0045134
0.0407442
0.00137794
0.0383224
0.0318562
0.0375303
0.0388511
-0.0423971
0.0325912
0.0399994
0.0275941
0.0412491
0.0225653
0.0425793
0.01756
0.0439092
0.0126835
0.0450355
0.00811942
0.0455486
0.00416242
0.0447012
0.00125189
0.0412329
0.0331081
0.0354447
0.0435585
-0.0401521
0.0306788
0.0447652
0.0258732
0.0460547
0.0210565
0.047396
0.0162875
0.0486782
0.0116748
0.0496482
0.00740036
0.0498231
0.00374405
0.0483575
0.0011034
0.0438736
0.0342115
0.0329652
0.0480746
-0.0374813
0.0284099
0.0493206
0.023839
0.0506256
0.0192802
0.0519548
0.0147959
0.0531624
0.0104988
0.0539454
0.00656768
0.0537542
0.00326386
0.0516613
0.000935133
0.0462023
0.0351466
0.0300455
0.0523621
-0.034333
0.0257634
0.0536026
0.0214888
0.0549002
0.0172418
0.0562018
0.0130947
0.0573095
0.00916623
0.0578738
0.00563171
0.0572887
0.00272982
0.0545632
0.000751008
0.0481811
0.0358976
0.0266348
-0.0307103
0.0227389
0.0188301
0.0149529
0.0111991
0.00769346
0.00460717
0.00215351
0.000558231
0.0248409
-0.0359016
0.0401808
-0.0291201
0.0208422
-0.0357165
0.0397152
0.016982
-0.0352012
0.0390614
0.0132846
-0.034181
0.0378784
0.0098251
-0.0323293
0.0357888
0.00670197
-0.029168
0.0322911
0.00403149
-0.0240416
0.0267121
0.00193776
-0.0160974
0.0181911
0.000546282
-0.0042777
0.00566917
0.0127422
-0.0121959
0.0282523
-0.0315654
-0.0325885
0.0239651
-0.0314293
0.0197605
-0.0309965
0.015679
-0.0300995
0.0117944
-0.0284446
0.00821012
-0.0255837
0.00505875
-0.0208903
0.00250159
-0.0135402
0.000731827
-0.00250793
0.013474
0.0312474
-0.0270762
-0.0357366
0.026735
-0.0269169
0.0222512
-0.0265127
0.0178468
-0.025695
0.0135951
-0.024193
0.009603
-0.0215916
0.00601719
-0.0173045
0.00303285
-0.0105559
0.000907554
-0.00038264
0.0143816
0.0338593
-0.0224194
-0.0385162
0.0291552
-0.0222128
0.024442
-0.0217995
0.0197677
-0.0210207
0.0152036
-0.0196289
0.0108578
-0.0172459
0.00688849
-0.0133351
0.00352033
-0.00718774
0.00107044
0.00206725
0.015452
0.0361277
-0.0176037
-0.0409433
0.0312517
-0.0173369
0.0263418
-0.0168896
0.021439
-0.0161179
0.0166101
-0.0147999
0.0119619
-0.0125977
0.00766045
-0.00903367
0.0039555
-0.00348279
0.00121703
0.00480571
0.016669
0.0380592
-0.012645
-0.0430179
0.0330321
-0.0123097
0.0279541
-0.0118116
0.0228595
-0.0110233
0.0178089
-0.0097494
0.0129069
-0.00769566
0.00832448
-0.00445126
0.00433181
0.000509888
0.00134447
0.00779305
0.0180135
0.0396489
-0.0075648
-0.0447291
0.0344947
-0.0071555
0.0292778
-0.00659478
0.0240263
-0.00577181
0.0187955
-0.00451858
0.0136867
-0.0025868
0.00887413
0.000361264
0.00464423
0.00473979
0.00145047
0.0109868
0.019464
0.0408877
-0.00238874
-0.0460637
0.0356337
-0.00190157
0.0303087
-0.0012697
0.0249357
-0.000398809
0.0195653
0.000851744
0.0142961
0.00268249
0.00930431
0.00535301
0.00488884
0.00915526
0.00153326
0.0143424
0.0209972
0.0417663
0.00285423
-0.0470093
0.0364426
0.00342218
0.0310416
0.00413129
0.0255831
0.00505969
0.0201141
0.00632068
0.0147308
0.00806581
0.00961105
0.0104728
0.00506279
0.0137035
0.00159168
0.0178135
0.0225889
0.0422771
-0.0475559
0.0369152
0.0314718
0.0259646
0.0204382
0.0149875
0.00979147
0.00516453
0.00162608
0.0443422
0.021588
-0.0257494
0.0478655
0.0176794
-0.0212028
0.0508045
0.0132746
-0.0162136
0.0532091
0.00854615
-0.0109507
0.0550683
0.00363765
-0.00549683
0.0563543
-0.00135212
6.60988e-05
0.0570293
-0.00632364
0.00564864
0.0570523
-0.0111662
0.0111432
0.0563855
-0.0157581
0.0164249
-0.0199685
0.0550006
0.0213534
0.0436
0.0177032
0.0470333
0.0142461
0.0499226
0.0103853
0.0522315
0.0062373
0.0539392
0.00192995
0.0550173
-0.00243025
0.0554316
-0.00673796
0.0551481
-0.0108827
0.0541393
-0.0147492
-0.0182203
0.0523911
0.0426698
0.0140947
0.0458849
0.011031
0.0485782
0.00769202
0.0506769
0.00413855
0.0521381
0.000468819
0.0529258
-0.00321798
0.0530085
-0.00682067
0.0523616
-0.0102358
0.0509726
-0.0133602
-0.0160951
0.0488473
0.0412171
0.010756
0.0441315
0.00811652
0.0465178
0.0053058
0.0482967
0.00235963
0.0494145
-0.000649041
0.0498328
-0.00363627
0.0495257
-0.00651357
0.0484817
-0.0091918
0.0467072
-0.0115857
-0.0136188
0.0442309
0.0388141
0.00773072
0.0413607
0.00556991
0.0433532
0.00331334
0.0447234
0.000989393
0.0454218
-0.00134746
0.0454166
-0.00363109
0.044694
-0.00579095
0.0432597
-0.00775746
0.0411411
-0.00946713
-0.0108673
0.0383897
0.0349255
0.00509629
0.0370353
0.00346011
0.0385676
0.00178105
0.039473
8.39624e-05
0.039717
-0.00159136
0.0392829
-0.003197
0.0381745
-0.00468255
0.036417
-0.00600002
0.0340582
-0.00710827
-0.00797665
0.0311675
0.0288671
0.0029413
0.0304806
0.00184664
0.0315191
0.000742594
0.0319547
-0.000351699
0.0317733
-0.0014099
0.0309778
-0.00240157
0.0295911
-0.00329581
0.0276559
-0.0040648
0.0252343
-0.00468671
-0.00514795
0.0224056
0.0197884
0.00134399
0.0208777
0.000757365
0.0214434
0.000176951
0.0214783
-0.000386604
0.0209879
-0.000919491
0.0199927
-0.00140644
0.0185297
-0.00183278
0.0166512
-0.00218629
0.0144232
-0.00245873
-0.00264704
0.0119223
0.00665818
0.000354985
0.00724757
0.000167971
0.00743649
-1.19636e-05
0.00723259
-0.0001827
0.0066532
-0.000340102
0.00572646
-0.000479702
0.00449118
-0.00059751
0.00299548
-0.000690581
0.0012943
-0.000757547
-0.000799677
-0.000553072
-0.0118409
-0.0116729
-0.0116849
-0.0118676
-0.0122077
-0.0126874
-0.0132849
-0.0139755
-0.014733
-0.0155327
0.0528879
-0.0236823
0.025795
0.0500601
-0.0267402
0.029568
0.0465626
-0.0290654
0.0325629
0.0424732
-0.0306061
0.0346956
0.037895
-0.0313682
0.0359464
0.0329395
-0.0314173
0.0363727
0.0276953
-0.0308586
0.0361028
0.0221751
-0.0297738
0.0352939
0.0162535
-0.0280331
0.0339547
-0.0246954
0.00940722
0.0315417
0.0499119
-0.0212031
0.0467361
-0.0235643
0.0429308
-0.0252602
0.0385927
-0.026268
0.0338374
-0.0266129
0.0287807
-0.0263605
0.0235099
-0.0255879
0.0180546
-0.0243184
0.012412
-0.0223905
-0.0191995
0.00691612
0.0460165
-0.0183723
0.0425394
-0.0200872
0.0385045
-0.0212253
0.0340245
-0.021788
0.029224
-0.0218124
0.0242224
-0.021359
0.0191172
-0.0204826
0.0139817
-0.0191829
0.00892809
-0.0173369
-0.0146376
0.0043662
0.0411068
-0.0152482
0.0374171
-0.0163975
0.0332676
-0.0170758
0.0287805
-0.0173008
0.0240827
-0.0171146
0.0192933
-0.0165696
0.0145155
-0.0157049
0.00984824
-0.0145156
0.00543827
-0.012927
-0.0108058
0.00160643
0.0350793
-0.0119379
0.0313095
-0.0126277
0.0271946
-0.0129609
0.0228575
-0.0129637
0.0184192
-0.0126763
0.0139904
-0.0121408
0.00967013
-0.0113847
0.00555887
-0.0104044
0.00179218
-0.00916029
-0.00760471
-0.0014089
0.0278312
-0.00860163
0.0241567
-0.00895312
0.0202564
-0.00906068
0.0162437
-0.00895099
0.0122247
-0.00865727
0.00829411
-0.00821017
0.00453697
-0.00762753
0.00103971
-0.0069071
-0.00209108
-0.00602949
-0.00498178
-0.00471401
0.0192573
-0.00545334
0.0158929
-0.0055887
0.0124119
-0.00557971
0.00890881
-0.00544786
0.0054679
-0.00521635
0.00216217
-0.00490445
-0.00094335
-0.00452201
-0.00378342
-0.00406703
-0.0062831
-0.00352981
-0.0029081
-0.00835678
0.00922461
-0.00275565
0.00641804
-0.00278213
0.00357965
-0.00274133
0.000778485
-0.00264669
-0.00192688
-0.00251099
-0.00448752
-0.00234381
-0.00686037
-0.00214916
-0.00900243
-0.00192498
-0.0108661
-0.00166617
-0.00137272
-0.0124015
-0.00249276
-0.000815964
-0.00446376
-0.000811128
-0.00641743
-0.000787657
-0.00831294
-0.000751181
-0.0101179
-0.000705989
-0.0118068
-0.00065491
-0.0133573
-0.000598743
-0.0147461
-0.000536132
-0.0159473
-0.000464923
-0.000386258
-0.0169338
-0.0163487
-0.0171598
-0.0179475
-0.0186986
-0.0194046
-0.0200595
-0.0206583
-0.0211944
-0.0216593
-0.0220456
0.000287317
-0.0223329
0.00104303
-0.0176895
0.00222357
-0.013582
0.00381466
-0.00994787
0.00581133
-0.00671068
0.00820656
-0.00380413
0.0109838
-0.00117084
0.0141063
0.00124371
0.0175216
0.00350081
0.00568683
0.021242
0.000200673
-0.0225336
0.000731024
-0.0182199
0.00156758
-0.0144185
0.00270299
-0.0110833
0.00413337
-0.00814106
0.00585237
-0.00552313
0.00785089
-0.00316936
0.0101249
-0.00103034
0.0127072
0.000918563
0.00263572
0.0157583
0.000117707
-0.0226513
0.000443104
-0.0185453
0.000974513
-0.01495
0.0017183
-0.0118271
0.00268258
-0.00910535
0.00387581
-0.00671636
0.00530939
-0.00460294
0.00700393
-0.00272487
0.00899549
-0.001073
0.000307573
0.0113236
4.31305e-05
-0.0226944
0.00018861
-0.0186908
0.000458225
-0.0152196
0.000873491
-0.0122423
0.00145433
-0.00968619
0.00221967
-0.0074817
0.00318958
-0.00557285
0.00438685
-0.00392214
0.00583261
-0.00251876
-0.00138409
0.00752428
-2.1968e-05
-0.0226725
-3.00063e-05
-0.0186827
2.0508e-05
-0.0152701
0.000164736
-0.0123866
0.000430925
-0.00995237
0.000842251
-0.00789302
0.00141831
-0.00614891
0.0021747
-0.00467854
0.00311768
-0.00346174
-0.00249838
0.00423197
-7.73742e-05
-0.0225951
-0.00021232
-0.0185478
-0.00033941
-0.015143
-0.000412429
-0.0123135
-0.000398339
-0.00996646
-0.000274026
-0.00801734
-2.43768e-05
-0.00639856
0.00035774
-0.00506066
0.000868387
-0.00397239
-0.00311759
0.0014876
-0.000122757
-0.0224723
-0.000357473
-0.0183131
-0.000620507
-0.01488
-0.000857118
-0.0120769
-0.00103198
-0.0097916
-0.00112415
-0.00792516
-0.00112392
-0.00639879
-0.00103131
-0.00515326
-0.000856644
-0.00414706
-0.00335256
-0.000621678
-0.000157447
-0.0223149
-0.000463672
-0.0180068
-0.000819524
-0.0145241
-0.0011637
-0.0117327
-0.00145996
-0.00949535
-0.00169014
-0.00769498
-0.00184955
-0.00623938
-0.00194393
-0.00505889
-0.00198808
-0.0041029
-0.0033356
-0.00200504
-0.00018046
-0.0221344
-0.000528749
-0.0176585
-0.000932693
-0.0141202
-0.0013257
-0.0113397
-0.00167116
-0.00914989
-0.00195353
-0.00741261
-0.00217232
-0.00602059
-0.00233795
-0.00489326
-0.00246917
-0.00397168
-0.00321371
-0.00259106
-0.00018997
-0.000550851
-0.000957729
-0.00133953
-0.00165954
-0.00190431
-0.00207668
-0.002191
-0.00227003
-0.00234238
-0.000950222
-0.00624625
0.0059342
0.00215741
-0.0028969
-0.000210732
0.00658542
0.00179699
-0.006225
0.0119566
0.00359827
-0.00896948
0.0179707
0.00032348
-0.00633752
0.0242583
-0.00966958
0.00338192
0.0304422
-0.0257728
0.0195889
0.0360756
-0.0441616
0.0385282
0.0409303
-0.0595666
0.0547119
0.0451631
-0.0672288
0.062996
0.0492486
-0.0643262
0.0602408
0.0536013
-0.0507353
0.0463826
0.0582025
-0.0297974
0.0251963
0.0625967
-0.0077454
0.0033511
0.0662377
0.00944067
-0.0130817
0.0688013
0.0186716
-0.0212352
0.0702834
0.0211382
-0.0226203
0.0708725
0.0185039
-0.0190929
0.0708786
0.0155322
-0.0155383
0.00928679
-0.00883926
0.00149265
-0.00712801
0.00490729
-0.00631154
0.00957188
-0.00286761
0.015067
-0.00189687
0.0210903
-0.00569981
0.0272396
-0.0158189
0.0331219
-0.0316551
0.0383307
-0.0493704
0.0426989
-0.0639348
0.0464314
-0.0709613
0.0500362
-0.067931
0.0539731
-0.0546722
0.0582723
-0.0340967
0.062495
-0.0119681
0.0660684
0.00586728
0.0686264
0.0161137
0.070133
0.0196316
0.0707594
0.0178774
0.0708103
0.0154813
0.00968725
0.00478795
-0.00871107
0.00846555
-0.00998914
0.0132691
-0.00767116
0.0187449
-0.00737264
0.0246124
-0.0115673
0.0304633
-0.0216699
0.0359108
-0.0371025
0.0406046
-0.0540643
0.0444403
-0.0677705
0.0476576
-0.0741786
0.050777
-0.0710504
0.0542857
-0.0581809
0.0582594
-0.0380704
0.0622856
-0.0159943
0.0657769
0.00237597
0.0683308
0.0135598
0.0698782
0.0180842
0.0705701
0.0171856
0.0707017
0.0153496
0.00999836
0.00879691
-0.0110811
0.012664
-0.0138562
0.01748
-0.0124872
0.0227848
-0.0126774
0.0283365
-0.017119
0.0337448
-0.0270782
0.0386475
-0.0420052
0.0427619
-0.0581788
0.046044
-0.0710525
0.048755
-0.0768895
0.0514079
-0.0737033
0.0544986
-0.0612716
0.0581419
-0.0417137
0.0619591
-0.0198115
0.0653605
-0.00102551
0.0679146
0.0110057
0.0695203
0.0164785
0.0703055
0.0164004
0.0705534
0.0151018
0.0101784
0.0133533
-0.0142621
0.0173065
-0.0178094
0.0219816
-0.0171623
0.0269615
-0.0176573
0.0320515
-0.022209
0.036897
-0.0319237
0.041174
-0.0462822
0.0446727
-0.0616775
0.0474047
-0.0737844
0.0496397
-0.0791246
0.0518653
-0.0759289
0.0545684
-0.0639747
0.0578944
-0.0450397
0.0615034
-0.0234205
0.0648152
-0.00433732
0.0673776
0.00844325
0.0690602
0.0147959
0.0699667
0.0154939
0.0703659
0.0147026
0.0101864
0.0182656
-0.018193
0.0221729
-0.0217167
0.0265349
-0.0215243
0.031043
-0.0221654
0.035549
-0.026715
0.0397424
-0.0361171
0.0433455
-0.0498852
0.046221
-0.0645531
0.048429
-0.0759925
0.0502364
-0.0809319
0.0520902
-0.0777828
0.054453
-0.0663375
0.057491
-0.0480778
0.0609057
-0.0268351
0.0641363
-0.00756798
0.0667194
0.00586013
0.0684991
0.0130163
0.0695552
0.0144378
0.0701402
0.0141176
0.00998238
0.0233081
-0.0226881
0.0270115
-0.02542
0.0308877
-0.0254005
0.0347981
-0.0260758
0.0386318
-0.0305487
0.042121
-0.0396063
0.0450362
-0.0528004
0.0473088
-0.0668256
0.0490393
-0.077723
0.0504816
-0.0823741
0.0520316
-0.0793328
0.0541142
-0.0684201
0.0569072
-0.0508707
0.0601532
-0.0300811
0.0633194
-0.0107342
0.06594
0.00323952
0.0678386
0.0111177
0.0690726
0.0132038
0.0698772
0.0133131
0.00952737
0.0282196
-0.0273751
0.0315319
-0.0287323
0.0347756
-0.0286442
0.0380013
-0.0293016
0.0411195
-0.0336668
0.0438943
-0.0423812
0.0461424
-0.0550485
0.047858
-0.0685412
0.0491745
-0.0790396
0.0503255
-0.0835251
0.051648
-0.0806553
0.0535199
-0.070292
0.0561213
-0.0534721
0.0592344
-0.0331942
0.0623603
-0.0138601
0.0650396
0.000560278
0.0670809
0.00907639
0.0685211
0.0117635
0.0695782
0.012256
0.00878395
0.0328249
-0.0316729
0.0354853
-0.0313928
0.0379701
-0.031129
0.0404641
-0.0317955
0.0428679
-0.0360707
0.0449588
-0.0444721
0.0465943
-0.056684
0.0478227
-0.0697696
0.0488029
-0.0800197
0.0497426
-0.0844648
0.0509168
-0.0818295
0.0526504
-0.0720255
0.055119
-0.0559408
0.0581415
-0.0362167
0.0612571
-0.0169757
0.0640195
-0.00220217
0.0662285
0.00686744
0.0679032
0.0100888
0.0692447
0.0109144
0.00771626
0.0371904
-0.0349244
0.0387978
-0.0330002
0.0403588
-0.03269
0.0420937
-0.0335304
0.0438051
-0.0377821
0.0452687
-0.0459357
0.0463715
-0.0577867
0.0472022
-0.0706003
0.0479329
-0.0807505
0.048742
-0.085274
0.0498428
-0.0829303
0.0515063
-0.073689
0.0538993
-0.0583338
0.0568745
-0.0391919
0.0600113
-0.0201125
0.0628829
-0.00507375
0.0652848
0.00446555
0.0672216
0.00815203
0.068878
0.00925807
0.0062901
0.118136
-0.0265312
-0.126529
0.114307
-0.0291713
0.113182
-0.0315655
0.113927
-0.0342747
0.115619
-0.0394743
0.117506
-0.0478229
0.118765
-0.0590459
0.118929
-0.0707644
0.117949
-0.0797704
0.116166
-0.0834907
0.114236
-0.0810006
0.113021
-0.0724741
0.113234
-0.0585466
0.114984
-0.0409413
0.117703
-0.022832
0.120549
-0.00791922
0.122919
0.00209526
0.124558
0.00651249
0.125626
0.00819006
0.00579892
0.165886
-0.0162421
-0.176175
0.158433
-0.0217183
0.154126
-0.0272585
0.15218
-0.0323292
0.151495
-0.0387886
0.151199
-0.0475276
0.150429
-0.058276
0.148704
-0.0690388
0.145978
-0.0770445
0.142592
-0.0801052
0.139186
-0.0775939
0.136618
-0.0699064
0.135666
-0.057595
0.136544
-0.0418188
0.138738
-0.0250256
0.141357
-0.0105385
0.143697
-0.000244518
0.145393
0.00481613
0.146544
0.00703889
0.00524781
0.217497
-0.00603353
-0.227705
0.209245
-0.0134665
0.202861
-0.0208743
0.198418
-0.027886
0.195155
-0.0355257
0.192271
-0.0446444
0.18899
-0.0549944
0.184884
-0.0649326
0.179959
-0.07212
0.174586
-0.0747321
0.169384
-0.0723916
0.165171
-0.0656933
0.162741
-0.0551652
0.162409
-0.0414868
0.163762
-0.0263788
0.165914
-0.0126909
0.168074
-0.00240392
0.169752
0.00313803
0.170958
0.00583243
0.00464057
0.269201
0.00202025
-0.277255
0.262129
-0.00639485
0.255518
-0.0142626
0.249748
-0.022116
0.244561
-0.0303393
0.239385
-0.0394685
0.233654
-0.0492626
0.227099
-0.0583779
0.219849
-0.0648699
0.212348
-0.0672318
0.20522
-0.0652628
0.199216
-0.0596893
0.195099
-0.0510488
0.193272
-0.0396597
0.193471
-0.0265774
0.194885
-0.0141056
0.196679
-0.00419783
0.198239
0.00157886
0.199457
0.00461389
0.00398579
0.318763
0.00693421
-0.323677
0.313741
-0.00137214
0.308328
-0.00884998
0.302633
-0.0164205
0.296675
-0.0243816
0.290137
-0.0329302
0.282669
-0.0417952
0.274192
-0.0499004
0.264986
-0.0556642
0.255612
-0.0578576
0.246731
-0.0563816
0.239037
-0.0519953
0.233226
-0.0452386
0.229764
-0.0361972
0.228571
-0.0253845
0.228998
-0.0145324
0.230231
-0.00543114
0.231554
0.000256397
0.232728
0.00343969
0.00329803
0.367206
0.00882186
-0.369094
0.364196
0.00163862
0.360339
-0.00499305
0.355512
-0.0115935
0.349703
-0.0185733
0.342766
-0.0259931
0.334513
-0.0335422
0.324983
-0.0403701
0.314563
-0.0452441
0.303911
-0.0472055
0.293744
-0.046215
0.284717
-0.0429684
0.277444
-0.0379657
0.272418
-0.0311704
0.269753
-0.0227196
0.269028
-0.0138076
0.269536
-0.0059393
0.270506
-0.000713144
0.271572
0.0023733
0.00259728
0.417559
0.00842845
-0.417165
0.416207
0.00299069
0.413636
-0.00242255
0.409778
-0.00773503
0.404503
-0.013299
0.397712
-0.0192022
0.38933
-0.0251601
0.379463
-0.0305026
0.368535
-0.0343161
0.357245
-0.0359162
0.346344
-0.0353132
0.33645
-0.0330744
0.328092
-0.0296082
0.321754
-0.0248324
0.317715
-0.0186806
0.315806
-0.0118989
0.315496
-0.00562852
0.316022
-0.00123911
0.31692
0.00147448
0.00190636
0.473276
0.00651862
-0.471366
0.473287
0.00298004
0.471729
-0.000864931
0.46866
-0.00466626
0.463942
-0.00858045
0.457454
-0.0127147
0.449179
-0.0168845
0.439278
-0.0206024
0.428203
-0.0232405
0.416657
-0.0243702
0.405384
-0.0240403
0.394964
-0.0226546
0.385849
-0.020493
0.378489
-0.0174729
0.373276
-0.013467
0.370265
-0.00888777
0.369126
-0.00448961
0.369163
-0.00127592
0.369852
0.000785323
0.00124519
0.538268
0.00361722
-0.535366
0.539367
0.00188069
0.53865
-0.000148238
0.536174
-0.00218945
0.531858
-0.00426489
0.525584
-0.00644035
0.517337
-0.00863825
0.507329
-0.0105937
0.496058
-0.0119698
0.484249
-0.0125609
0.472626
-0.0124172
0.461726
-0.011755
0.451946
-0.0107135
0.443712
-0.00923882
0.437485
-0.00723926
0.43349
-0.00489318
0.431579
-0.00257849
0.431137
-0.000833729
0.43161
0.000312428
0.000619681
0.617899
-0.614281
0.619779
0.619631
0.617442
0.613177
0.606736
0.598098
0.587505
0.575535
0.562974
0.550557
0.538802
0.528088
0.518849
0.51161
0.506717
0.504138
0.503305
0.503617
0.167751
0.0229124
-0.166759
0.167963
0.0285003
0.167214
0.0337845
0.165313
0.0386319
0.162093
0.0429018
0.157435
0.0464586
0.151319
0.0491911
0.143879
0.0510409
0.135468
0.0519761
0.0517766
0.192028
0.0209212
-0.190037
0.193709
0.0268192
0.194932
0.0325614
0.195525
0.0380389
0.195301
0.0431268
0.194068
0.0476909
0.191658
0.0516015
0.187941
0.0547577
0.18279
0.057127
0.0583919
0.217757
0.0183744
-0.21521
0.220424
0.0241522
0.223117
0.0298684
0.225704
0.0354515
0.228012
0.0408184
0.229828
0.0458753
0.23091
0.0505194
0.231027
0.054641
0.229996
0.0581575
0.0606826
0.246258
0.0156847
-0.243569
0.249346
0.0210649
0.252789
0.0264249
0.256521
0.0317193
0.260445
0.0368952
0.264429
0.0418907
0.268314
0.0466346
0.271908
0.0510467
0.275004
0.0550615
0.0584322
0.278584
0.0130023
-0.275901
0.281842
0.0178069
0.285667
0.0225997
0.290038
0.0273479
0.294917
0.0320161
0.300243
0.0365654
0.305924
0.0409533
0.311838
0.0451329
0.317842
0.0490577
0.0525965
0.315518
0.0103602
-0.312875
0.318867
0.0144571
0.322925
0.0185425
0.327682
0.0225905
0.333124
0.0265743
0.339223
0.0304661
0.345939
0.0342371
0.353215
0.0378569
0.360979
0.0412938
0.0444813
0.357958
0.00777072
-0.355369
0.361374
0.0110408
0.365617
0.0142998
0.370681
0.0175268
0.376555
0.0207005
0.383221
0.0237995
0.390656
0.0268025
0.398825
0.0296878
0.407685
0.0324336
0.0350012
0.407313
0.00522246
-0.404765
0.410809
0.00754522
0.415249
0.00985937
0.420627
0.0121495
0.426927
0.0144
0.434131
0.0165954
0.442213
0.0187203
0.451142
0.0207596
0.460877
0.0226981
0.0245122
0.465733
0.00266716
-0.463178
0.469369
0.0039099
0.47408
0.00514841
0.479855
0.00637406
0.486677
0.00757815
0.49452
0.00875203
0.503353
0.00988718
0.513138
0.0109752
0.523828
0.012008
0.0129737
0.536675
-0.534008
0.540585
0.545733
0.552107
0.559685
0.568437
0.578325
0.5893
0.601308
0.143471
-0.0302138
-0.141115
0.146324
-0.026463
0.149289
-0.0218349
0.152271
-0.0168367
0.155194
-0.0115486
0.158016
-0.00605445
0.160675
-0.000390998
0.163089
0.00539915
0.165157
0.0112584
0.0171169
0.170882
-0.0318844
-0.169211
0.172708
-0.0282894
0.174642
-0.0237686
0.176683
-0.0188785
0.178815
-0.0136801
0.181023
-0.00826231
0.183291
-0.00265901
0.185586
0.00310354
0.187859
0.00898604
0.0149387
0.202194
-0.0323439
-0.201734
0.202844
-0.0289396
0.203629
-0.0245538
0.204586
-0.019835
0.205758
-0.014852
0.207163
-0.0096671
0.208811
-0.00430758
0.210708
0.00120628
0.212848
0.00684633
0.012577
0.237257
-0.0314976
-0.238103
0.236598
-0.0282815
0.236208
-0.0241638
0.23612
-0.0197463
0.236378
-0.0151098
0.237008
-0.0102974
0.238028
-0.00532786
0.239455
-0.000220129
0.2413
0.00500124
0.0103079
0.276008
-0.0293426
-0.278163
0.274082
-0.0263555
0.272563
-0.0226454
0.271496
-0.0186785
0.270911
-0.0145251
0.270831
-0.0102175
0.271274
-0.00577096
0.272257
-0.00120323
0.273795
0.00346288
0.00820226
0.31903
-0.0258977
-0.322475
0.315926
-0.0232522
0.313356
-0.0200746
0.311367
-0.0166897
0.309987
-0.0131454
0.309236
-0.00946654
0.309133
-0.0056676
0.309695
-0.00176545
0.310938
0.00221954
0.00626525
0.367365
-0.0211987
-0.372064
0.363148
-0.0190351
0.359578
-0.0165046
0.356703
-0.0138147
0.354551
-0.0109941
0.353146
-0.00806098
0.352507
-0.00502897
0.352655
-0.00191304
0.353604
0.00126975
0.00450103
0.422448
-0.0152933
-0.428353
0.417159
-0.0137466
0.412622
-0.011967
0.408882
-0.0100747
0.405973
-0.00808539
0.403924
-0.00601146
0.402758
-0.00386375
0.402499
-0.00165393
0.403164
0.000605186
0.00289995
0.486419
-0.00821877
-0.493494
0.480076
-0.00740323
0.474578
-0.00646947
0.469977
-0.00547375
0.466315
-0.00442305
0.463627
-0.00332387
0.461946
-0.0021825
0.461298
-0.00100561
0.461703
0.000199565
0.00142537
0.562664
-0.570883
0.555261
0.548792
0.543318
0.538895
0.535571
0.533388
0.532383
0.532582
0.126773
0.00227238
-0.00218007
0.126514
0.00690667
-0.00664729
0.126095
0.0119575
-0.0115385
0.125519
0.0178125
-0.0172366
0.124842
0.0248267
-0.0241499
0.12412
0.034064
-0.0333415
0.123819
0.0453928
-0.0450925
0.124096
0.0631785
-0.0634545
0.128856
0.0811755
-0.0859356
0.120712