/*--------------------------------*- C++ -*----------------------------------*\
| =========                 |                                                 |
| \\      /  F ield         | OpenFOAM: The Open Source CFD Toolbox           |
|  \\    /   O peration     | Version:  v1912                                 |
|   \\  /    A nd           | Website:  www.openfoam.com                      |
|    \\/     M anipulation  |                                                 |
\*---------------------------------------------------------------------------*/
FoamFile
{
    version     2.0;
    format      ascii;
    class       volScalarField;
    location    "23";
    object      p;
}
// * * * * * * * * * * * * * * * * * * * * * * * * * * * * * * * * * * * * * //

dimensions      [0 2 -2 0 0 0 0];


internalField   nonuniform List<scalar> 
9600
(
-41.2578
-35.9803
-32.7407
-29.991
-27.4764
-25.2038
-23.1442
-21.2696
-19.562
-18.0073
-16.5926
-15.3055
-14.1346
-13.0687
-12.0977
-11.212
-10.4032
-9.66309
-8.98423
-8.36447
-41.9922
-36.6981
-33.4238
-30.6326
-28.0744
-25.7591
-23.6596
-21.7485
-20.0083
-18.4247
-16.9846
-15.6753
-14.4849
-13.4018
-12.4156
-11.5163
-10.6953
-9.94392
-9.25441
-8.6258
-42.7285
-37.4121
-34.1017
-31.2689
-28.6668
-26.3087
-24.1693
-22.2219
-20.4492
-18.837
-17.3718
-16.0406
-14.8309
-13.731
-12.7297
-11.8171
-10.9839
-10.2214
-9.52125
-8.88399
-43.4635
-38.1221
-34.7741
-31.899
-29.2527
-26.8517
-24.6724
-22.6888
-20.8839
-19.2434
-17.7535
-16.4007
-15.1721
-14.0555
-13.0395
-12.1137
-11.2685
-10.495
-9.78435
-9.1387
-44.1944
-38.8264
-35.4399
-32.5218
-29.8312
-27.3871
-25.1679
-23.1484
-21.3117
-19.6432
-18.1289
-16.7549
-15.5077
-14.3749
-13.3444
-12.4056
-11.5488
-10.7643
-10.0434
-9.38967
-44.919
-39.5237
-36.0981
-33.1365
-30.401
-27.914
-25.655
-23.5998
-21.7316
-20.0357
-18.4974
-17.1026
-15.8373
-14.6884
-13.6439
-12.6925
-11.8242
-11.0291
-10.298
-9.63663
-45.6358
-40.2126
-36.7474
-33.7418
-30.9614
-28.4313
-26.1328
-24.0423
-22.143
-20.42
-18.8582
-17.443
-16.16
-14.9956
-13.9373
-12.9737
-12.0943
-11.2888
-10.5479
-9.87931
-46.3431
-40.8918
-37.3866
-34.3366
-31.5111
-28.9381
-26.6004
-24.4748
-22.5449
-20.7953
-19.2106
-17.7756
-16.4753
-15.2958
-14.2242
-13.2487
-12.3586
-11.543
-10.7926
-10.1174
-47.0397
-41.5599
-38.0145
-34.9199
-32.0493
-29.4334
-27.0568
-24.8967
-22.9366
-21.161
-19.5539
-18.0995
-16.7824
-15.5884
-14.5039
-13.5169
-12.6166
-11.7913
-11.0318
-10.3506
-47.7244
-42.2159
-38.6301
-35.4906
-32.5748
-29.9164
-27.5011
-25.307
-23.3173
-21.5161
-19.8871
-18.4139
-17.0807
-15.8725
-14.7756
-13.7777
-12.8675
-12.0331
-11.265
-10.5784
-48.3961
-42.8586
-39.2322
-36.0477
-33.0869
-30.3861
-27.9326
-25.7048
-23.686
-21.86
-20.2097
-18.7182
-17.3692
-16.1474
-15.0387
-14.0303
-13.1108
-12.2677
-11.4916
-10.8003
-49.0538
-43.4871
-39.82
-36.5903
-33.5845
-30.8416
-28.3503
-26.0894
-24.0421
-22.1917
-20.5206
-19.0113
-17.6471
-16.4122
-15.2921
-14.2738
-13.3455
-12.4943
-11.7107
-11.0154
-49.697
-44.1005
-40.3925
-37.1176
-34.0668
-31.2822
-28.7535
-26.46
-24.3847
-22.5104
-20.819
-19.2925
-17.9135
-16.666
-15.5349
-14.5072
-13.5707
-12.712
-11.9215
-11.2231
-50.3249
-44.6981
-40.9489
-37.6286
-34.5331
-31.707
-29.1414
-26.8158
-24.7131
-22.8154
-21.1041
-19.5608
-18.1674
-16.9075
-15.7659
-14.7291
-13.7849
-12.9193
-12.1228
-11.4226
-50.9372
-45.279
-41.4884
-38.1228
-34.9827
-32.1154
-29.5134
-27.1562
-25.0265
-23.1059
-21.3752
-19.8152
-18.4076
-17.1355
-15.9835
-14.938
-13.9863
-13.1142
-12.3125
-11.6121
-51.5333
-45.8425
-42.0104
-38.5995
-35.4149
-32.5069
-29.8689
-27.4807
-25.3245
-23.3813
-21.6315
-20.0551
-18.6334
-17.3492
-16.1867
-15.1322
-14.173
-13.2946
-12.488
-11.7863
-52.1145
-46.3885
-42.5141
-39.0579
-35.8291
-32.8808
-30.2074
-27.7888
-25.6065
-23.6412
-21.8723
-20.2796
-18.8438
-17.5473
-16.3743
-15.311
-14.3447
-13.4604
-12.648
-11.942
-52.6852
-46.9181
-42.9988
-39.497
-36.2244
-33.2364
-30.5284
-28.0799
-25.8722
-23.8851
-22.0974
-20.4881
-19.0377
-17.7284
-16.5442
-15.4719
-14.4987
-13.6089
-12.7917
-12.0901
-53.2475
-47.4309
-43.4629
-39.9156
-36.6004
-33.5739
-30.8321
-28.3547
-26.1222
-24.1136
-22.307
-20.6808
-19.2148
-17.8909
-16.6931
-15.6083
-14.6236
-13.7232
-12.9046
-12.2344
-53.7795
-47.9191
-43.9055
-40.3145
-36.9583
-33.8947
-31.1203
-28.6149
-26.3582
-24.3286
-22.5034
-20.86
-19.3777
-18.0375
-16.8228
-15.719
-14.7113
-13.7861
-12.957
-12.2927
-59.0874
-59.0567
-58.9889
-58.8987
-58.7853
-58.6461
-58.4808
-58.2898
-58.0736
-57.8328
-57.5679
-57.2795
-56.9683
-56.6349
-56.2802
-55.9049
-55.5102
-55.0978
-54.6706
-54.2318
-52.7563
-52.7539
-52.7191
-52.6575
-52.5696
-52.4552
-52.3143
-52.1477
-51.956
-51.74
-51.5001
-51.2371
-50.9515
-50.6439
-50.3151
-49.9656
-49.5962
-49.2073
-48.7996
-48.3708
-48.1406
-48.162
-48.1547
-48.1194
-48.0572
-47.969
-47.8555
-47.7173
-47.5549
-47.3691
-47.1602
-46.929
-46.676
-46.4017
-46.1066
-45.7912
-45.4558
-45.1004
-44.7248
-44.327
-43.9426
-43.9813
-43.9939
-43.9801
-43.9406
-43.8766
-43.7887
-43.6774
-43.5433
-43.3869
-43.2087
-43.0093
-42.7892
-42.5489
-42.2887
-42.009
-41.7099
-41.3913
-41.0531
-40.6943
-40.0655
-40.1137
-40.1386
-40.1393
-40.1163
-40.0705
-40.0023
-39.9125
-39.8013
-39.6695
-39.5174
-39.3455
-39.1543
-38.9443
-38.7157
-38.4689
-38.2039
-37.9206
-37.6191
-37.2986
-36.5865
-36.6387
-36.6698
-36.6789
-36.6663
-36.6324
-36.5781
-36.5036
-36.4096
-36.2964
-36.1646
-36.0147
-35.847
-35.6621
-35.4602
-35.2415
-35.0062
-34.7542
-34.4854
-34.1992
-33.4952
-33.5474
-33.5803
-33.593
-33.5858
-33.559
-33.5133
-33.4491
-33.367
-33.2673
-33.1505
-33.0172
-32.8678
-32.7026
-32.5222
-32.3266
-32.1161
-31.8906
-31.6499
-31.3935
-30.7547
-30.8041
-30.8357
-30.8487
-30.8433
-30.8199
-30.7791
-30.7213
-30.6469
-30.5564
-30.4504
-30.3292
-30.1935
-30.0436
-29.88
-29.703
-29.5128
-29.3092
-29.0922
-28.8611
-28.325
-28.3701
-28.3986
-28.4099
-28.4041
-28.3817
-28.3431
-28.2889
-28.2193
-28.1349
-28.0363
-27.9239
-27.7983
-27.66
-27.5096
-27.3473
-27.1734
-26.988
-26.7909
-26.5813
-26.1668
-26.2069
-26.2314
-26.2399
-26.2325
-26.2096
-26.1716
-26.119
-26.0523
-25.9719
-25.8783
-25.7722
-25.6541
-25.5246
-25.3843
-25.2338
-25.0733
-24.903
-24.7227
-24.5317
-24.2432
-24.2781
-24.2983
-24.3036
-24.2939
-24.2697
-24.2314
-24.1795
-24.1144
-24.0365
-23.9464
-23.8448
-23.7323
-23.6095
-23.4772
-23.3361
-23.1866
-23.0291
-22.8633
-22.6886
-22.5215
-22.5514
-22.5675
-22.5694
-22.5573
-22.5315
-22.4925
-22.4406
-22.3762
-22.3
-22.2124
-22.1141
-22.0057
-21.8882
-21.7622
-21.6287
-21.4884
-21.3418
-21.1889
-21.0289
-20.9735
-20.9989
-21.0111
-21.0099
-20.9954
-20.968
-20.928
-20.8759
-20.812
-20.7368
-20.651
-20.5552
-20.45
-20.3365
-20.2155
-20.0882
-19.9556
-19.8184
-19.6772
-19.5309
-19.5757
-19.5971
-19.6058
-19.6017
-19.585
-19.5561
-19.5152
-19.4627
-19.3991
-19.3247
-19.2402
-19.1463
-19.0436
-18.9332
-18.8162
-18.6938
-18.5676
-18.4386
-18.3081
-18.175
-18.3084
-18.3261
-18.3317
-18.3251
-18.3065
-18.2761
-18.2344
-18.1816
-18.1182
-18.0445
-17.9611
-17.8686
-17.7679
-17.6599
-17.5458
-17.4272
-17.3062
-17.1842
-17.0637
-16.9435
-17.155
-17.1694
-17.1723
-17.1634
-17.1431
-17.1116
-17.0692
-17.0162
-16.9529
-16.8797
-16.7972
-16.706
-16.6067
-16.5004
-16.3885
-16.2726
-16.1553
-16.0387
-15.9274
-15.8199
-16.1018
-16.1133
-16.1137
-16.1029
-16.0811
-16.0486
-16.0055
-15.9523
-15.8891
-15.8164
-15.7346
-15.6442
-15.5459
-15.4407
-15.3299
-15.2153
-15.1002
-14.9872
-14.8836
-14.7874
-15.1369
-15.1461
-15.1445
-15.1323
-15.1094
-15.0761
-15.0328
-14.9795
-14.9165
-14.8443
-14.7631
-14.6735
-14.5759
-14.4712
-14.3607
-14.2461
-14.1312
-14.0195
-13.9225
-13.835
-14.2492
-14.2569
-14.2545
-14.2417
-14.2187
-14.1858
-14.1431
-14.0908
-14.0292
-13.9585
-13.8791
-13.7913
-13.6955
-13.5924
-13.4828
-13.3685
-13.2528
-13.1408
-13.0503
-12.9762
-13.4333
-13.4379
-13.4329
-13.4183
-13.3943
-13.3609
-13.3185
-13.267
-13.2068
-13.138
-13.0609
-12.9756
-12.8826
-12.7822
-12.6748
-12.5615
-12.444
-12.3275
-12.2308
-12.1802
-52.9418
-53.5026
-54.0271
-54.5373
-55.0302
-55.5
-55.9438
-56.3605
-56.7492
-57.109
-57.4393
-57.7395
-58.0093
-58.2485
-58.4564
-58.6331
-58.7792
-58.8961
-58.9856
-59.0498
-46.4807
-47.0471
-47.5861
-48.1034
-48.5986
-49.0693
-49.514
-49.932
-50.3227
-50.6855
-51.0198
-51.3252
-51.6021
-51.8509
-52.0701
-52.259
-52.4179
-52.5472
-52.6474
-52.7174
-41.866
-42.4205
-42.952
-43.4608
-43.9467
-44.4091
-44.8471
-45.2602
-45.6477
-46.009
-46.3431
-46.6498
-46.9288
-47.179
-47.4011
-47.5956
-47.7623
-47.9009
-48.0111
-48.0914
-37.7724
-38.3024
-38.8132
-39.303
-39.7712
-40.2176
-40.6414
-41.0422
-41.4192
-41.7718
-42.0989
-42.3999
-42.6758
-42.9259
-43.1504
-43.349
-43.5215
-43.6675
-43.7866
-43.8784
-34.1232
-34.6239
-35.1081
-35.5732
-36.0181
-36.4426
-36.8462
-37.2281
-37.5877
-37.9244
-38.2387
-38.5305
-38.798
-39.0416
-39.2613
-39.457
-39.6282
-39.7748
-39.8967
-39.9938
-30.95
-31.4201
-31.8753
-32.3131
-32.7322
-33.1322
-33.5126
-33.873
-34.2127
-34.5315
-34.8293
-35.1055
-35.3593
-35.591
-35.801
-35.9889
-36.154
-36.2963
-36.4159
-36.5129
-28.2005
-28.6407
-29.0671
-29.4773
-29.8701
-30.245
-30.6016
-30.9393
-31.2578
-31.5567
-31.8358
-32.0946
-32.333
-32.5507
-32.7472
-32.9248
-33.0813
-33.2163
-33.3303
-33.4234
-25.8086
-26.2207
-26.6198
-27.0038
-27.3714
-27.722
-28.0553
-28.3707
-28.668
-28.9468
-29.2069
-29.4482
-29.6704
-29.8736
-30.0577
-30.2209
-30.367
-30.4934
-30.6
-30.6872
-23.7162
-24.1027
-24.4768
-24.8365
-25.1807
-25.5086
-25.8199
-26.1142
-26.3913
-26.6508
-26.8927
-27.1169
-27.3233
-27.5117
-27.6822
-27.8346
-27.9679
-28.0845
-28.1829
-28.2631
-21.8739
-22.2372
-22.5888
-22.9266
-23.2493
-23.5564
-23.8474
-24.1222
-24.3805
-24.6221
-24.847
-25.055
-25.2463
-25.4206
-25.578
-25.7184
-25.8417
-25.948
-26.038
-26.111
-20.2403
-20.5831
-20.9145
-21.2327
-21.5361
-21.8242
-22.0968
-22.3537
-22.5947
-22.8197
-23.0289
-23.2222
-23.3994
-23.5607
-23.706
-23.8353
-23.9485
-24.0457
-24.1275
-24.1934
-18.782
-19.1066
-19.4204
-19.721
-20.0071
-20.278
-20.5338
-20.7743
-20.9996
-21.2096
-21.4044
-21.584
-21.7485
-21.8979
-22.0322
-22.1513
-22.2553
-22.3443
-22.418
-22.4774
-17.4723
-17.7808
-18.0793
-18.3645
-18.6348
-18.8902
-19.1306
-19.3562
-19.567
-19.7632
-19.9449
-20.1122
-20.2651
-20.4037
-20.5279
-20.6378
-20.7334
-20.8145
-20.8812
-20.9347
-16.2896
-16.5841
-16.8694
-17.1409
-17.3971
-17.6381
-17.8644
-18.0762
-18.2738
-18.4574
-18.6271
-18.7832
-18.9256
-19.0543
-19.1695
-19.2711
-19.359
-19.4335
-19.4948
-19.5417
-15.2167
-15.4993
-15.7735
-16.0328
-16.2758
-16.5036
-16.7168
-16.9159
-17.1012
-17.2731
-17.4319
-17.5777
-17.7105
-17.8304
-17.9374
-18.0314
-18.1126
-18.1809
-18.2362
-18.2786
-14.2389
-14.5133
-14.7787
-15.0265
-15.2571
-15.4723
-15.6731
-15.8601
-16.0339
-16.195
-16.3437
-16.4801
-16.6042
-16.716
-16.8156
-16.9029
-16.9778
-17.0405
-17.0909
-17.129
-13.3387
-13.6122
-13.8727
-14.1095
-14.3278
-14.531
-14.72
-14.8956
-15.0587
-15.2098
-15.3492
-15.477
-15.5932
-15.6978
-15.7907
-15.8718
-15.9413
-15.999
-16.045
-16.0792
-12.4954
-12.7733
-13.0353
-13.2631
-13.4698
-13.6618
-13.8399
-14.0053
-14.159
-14.3014
-14.4328
-14.5534
-14.6629
-14.7614
-14.8487
-14.9249
-14.9898
-15.0435
-15.0859
-15.1171
-11.7213
-11.9908
-12.254
-12.4772
-12.6742
-12.8552
-13.0232
-13.1795
-13.3246
-13.4594
-13.5839
-13.6982
-13.802
-13.8954
-13.9782
-14.0503
-14.1117
-14.1622
-14.202
-14.231
-11.1403
-11.3885
-11.614
-11.8274
-12.013
-12.1768
-12.3288
-12.4712
-12.6034
-12.726
-12.8393
-12.9431
-13.0373
-13.1218
-13.1963
-13.2609
-13.3155
-13.36
-13.3943
-13.4184
-5.84163
-6.32697
-6.85966
-7.4368
-8.06491
-8.75145
-9.50419
-10.3327
-11.2492
-12.2693
-13.4136
-14.7089
-16.1901
-17.9032
-19.9076
-22.2816
-25.1054
-28.4005
-32.3853
-38.3702
-6.10675
-6.60511
-7.14785
-7.73653
-8.37784
-9.07895
-9.84775
-10.694
-11.6303
-12.6725
-13.8415
-15.1644
-16.6768
-18.4247
-20.4681
-22.8849
-25.7544
-29.0949
-33.117
-39.1222
-6.37338
-6.88478
-7.43767
-8.03813
-8.69291
-9.40883
-10.1939
-11.0583
-12.0146
-13.0793
-14.2733
-15.6242
-17.168
-18.9511
-21.0336
-23.4933
-26.408
-29.7928
-33.8505
-39.8714
-6.64104
-7.16541
-7.72855
-8.34101
-9.00945
-9.7404
-10.542
-11.4247
-12.4013
-13.4885
-14.7078
-16.087
-17.6624
-19.4809
-21.6027
-24.1051
-27.0648
-30.4939
-34.5882
-40.6296
-6.90928
-7.44656
-8.02002
-8.64468
-9.327
-10.0732
-10.8915
-11.7926
-12.7897
-13.8997
-15.1444
-16.552
-18.1592
-20.0133
-22.1743
-24.7195
-27.7241
-31.1974
-35.3292
-41.3942
-7.17775
-7.72782
-8.31168
-8.94874
-9.64512
-10.4067
-11.2418
-12.1615
-13.1793
-14.3122
-15.5825
-17.0186
-18.6578
-20.5474
-22.7479
-25.3359
-28.3853
-31.9025
-36.0714
-42.1611
-7.44613
-8.00883
-8.60314
-9.25279
-9.96341
-10.7405
-11.5926
-12.5311
-13.5696
-14.7255
-16.0214
-17.4863
-19.1575
-21.0828
-23.3226
-25.9532
-29.0472
-32.6082
-36.8134
-42.928
-7.71417
-8.28932
-8.89409
-9.5565
-10.2815
-11.0742
-11.9434
-12.9007
-13.96
-15.1391
-16.4607
-17.9542
-19.6575
-21.6185
-23.8976
-26.5708
-29.7091
-33.3132
-37.5541
-43.6935
-7.98173
-8.56907
-9.1843
-9.85959
-10.5991
-11.4074
-12.2938
-13.2699
-14.35
-15.5522
-16.8996
-18.4218
-20.1571
-22.1537
-24.472
-27.1874
-30.3697
-34.0164
-38.2922
-44.4561
-8.24876
-8.84799
-9.47359
-10.1619
-10.9159
-11.7399
-12.6434
-13.6383
-14.7392
-15.9645
-17.3375
-18.8884
-20.6556
-22.6876
-25.045
-27.8023
-31.028
-34.7168
-39.0264
-45.2144
-8.51537
-9.12609
-9.76193
-10.4632
-11.2317
-12.0713
-12.9918
-14.0054
-15.127
-16.3752
-17.7738
-19.3531
-21.1521
-23.2194
-25.6154
-28.4143
-31.683
-35.4131
-39.7556
-45.9669
-8.78184
-9.40354
-10.0493
-10.7635
-11.5464
-12.4015
-13.3388
-14.3709
-15.513
-16.7839
-18.2078
-19.8154
-21.6459
-23.7482
-26.1825
-29.0225
-32.3334
-36.1041
-40.4782
-46.7122
-9.04864
-9.68062
-10.3359
-11.0627
-11.8597
-12.73
-13.6838
-14.7342
-15.8964
-17.1899
-18.6388
-20.2744
-22.1361
-24.273
-26.7452
-29.6257
-32.9782
-36.7886
-41.1931
-47.449
-9.31647
-9.95771
-10.6218
-11.3608
-12.1715
-13.0565
-14.0265
-15.0947
-16.2769
-17.5924
-19.0661
-20.7293
-22.6219
-24.7929
-27.3025
-30.2228
-33.6161
-37.4654
-41.8991
-48.1761
-9.58605
-10.2351
-10.907
-11.6575
-12.4814
-13.3806
-14.3662
-15.4519
-16.6535
-17.9908
-19.4888
-21.1792
-23.1021
-25.3069
-27.8533
-30.8126
-34.2459
-38.1333
-42.5948
-48.8922
-9.85827
-10.513
-11.1911
-11.9523
-12.7886
-13.7014
-14.7023
-15.8049
-17.0256
-18.3841
-19.906
-21.6232
-23.576
-25.8138
-28.3963
-31.394
-34.8663
-38.7909
-43.2793
-49.5965
-10.1328
-10.7901
-11.4727
-12.2437
-13.0919
-14.018
-15.0336
-16.1528
-17.392
-18.7715
-20.3168
-22.0602
-24.0423
-26.3126
-28.9305
-31.9656
-35.4761
-39.4369
-43.9514
-50.2884
-10.4088
-11.0638
-11.7491
-12.5298
-13.39
-14.3291
-15.3591
-16.4946
-17.752
-19.1519
-20.7201
-22.4892
-24.5
-26.802
-29.4544
-32.5261
-36.0735
-40.0698
-44.6102
-50.9678
-10.6787
-11.3258
-12.0143
-12.8073
-13.6807
-14.633
-15.6775
-16.829
-18.1043
-19.5241
-21.1148
-22.909
-24.9478
-27.2808
-29.9668
-33.0737
-36.6569
-40.6877
-45.2543
-51.6362
-10.9233
-11.5561
-12.2639
-13.0773
-13.9647
-14.9297
-15.9882
-17.1553
-18.4481
-19.8874
-21.4999
-23.3186
-25.3847
-27.7477
-30.4661
-33.607
-37.2242
-41.2875
-45.8792
-52.2953
-1.53162
-1.78794
-2.13879
-2.53146
-2.95484
-3.41447
-3.91679
-4.46785
-5.07528
-5.74946
-6.50443
-7.35924
-8.33998
-9.48248
-10.8372
-12.4777
-14.4924
-16.9409
-20.1277
-25.53
-1.68125
-1.95356
-2.32211
-2.72015
-3.14653
-3.61107
-4.11985
-4.67853
-5.29488
-5.97955
-6.74681
-7.61606
-8.6138
-9.77636
-11.1548
-12.823
-14.8696
-17.3525
-20.5705
-25.9857
-1.82428
-2.12031
-2.50156
-2.90734
-3.34107
-3.8136
-4.33088
-4.89877
-5.52542
-6.22179
-7.00251
-7.88733
-8.90321
-10.087
-11.4902
-13.1873
-15.2665
-17.7836
-21.0321
-26.455
-1.98892
-2.29553
-2.68467
-3.09883
-3.5414
-4.02307
-4.54996
-5.1282
-5.76625
-6.47541
-7.27062
-8.17205
-9.2071
-10.4132
-11.8422
-13.5691
-15.6817
-18.2344
-21.5166
-26.9563
-2.16462
-2.47808
-2.87474
-3.29752
-3.7492
-4.24045
-4.77758
-5.36696
-6.0173
-6.74015
-7.55079
-8.46978
-9.52499
-10.7543
-12.2103
-13.968
-16.1153
-18.7051
-22.0236
-27.4864
-2.34567
-2.66745
-3.07212
-3.50364
-3.96471
-4.46599
-5.01395
-5.61515
-6.27851
-7.01587
-7.84281
-8.78029
-9.85663
-11.1102
-12.5942
-14.384
-16.5671
-19.1951
-22.5512
-28.0402
-2.53361
-2.86457
-3.27714
-3.71742
-4.18814
-4.69986
-5.25915
-5.87275
-6.54981
-7.3024
-8.14645
-9.10328
-10.2017
-11.4806
-12.9936
-14.8165
-17.0367
-19.704
-23.0984
-28.6153
-2.72984
-3.06994
-3.49018
-3.93921
-4.41975
-4.94221
-5.51324
-6.13975
-6.83109
-7.59958
-8.46147
-9.43846
-10.5598
-11.865
-13.408
-15.2652
-17.5234
-20.2311
-23.6647
-29.2105
-2.93417
-3.28344
-3.71131
-4.16911
-4.65963
-5.19309
-5.77621
-6.41607
-7.1222
-7.9072
-8.78761
-9.78551
-10.9306
-12.2629
-13.837
-15.7294
-18.0268
-20.7757
-24.2492
-29.825
-3.14603
-3.50476
-3.94035
-4.407
-4.90767
-5.45237
-6.04791
-6.70152
-7.42294
-8.225
-9.12456
-10.1441
-11.3138
-12.6741
-14.2802
-16.2087
-18.5462
-21.3373
-24.8513
-30.4577
-3.36501
-3.73358
-4.17701
-4.65263
-5.16363
-5.71984
-6.32812
-6.99587
-7.73303
-8.55268
-9.472
-10.5138
-11.7088
-13.098
-14.7368
-16.7024
-19.0809
-21.9151
-25.47
-31.1074
-3.59073
-3.9695
-4.42092
-4.90567
-5.42722
-5.99519
-6.61651
-7.29878
-8.05213
-8.88988
-9.82952
-10.8943
-12.1153
-13.5341
-15.2066
-17.2101
-19.6304
-22.5083
-26.1047
-31.7732
-3.82274
-4.21207
-4.67165
-5.16571
-5.69803
-6.27804
-6.91273
-7.60988
-8.37983
-9.23616
-10.1967
-11.285
-12.5327
-13.9818
-15.6887
-17.731
-20.1938
-23.1162
-26.7543
-32.4541
-4.06052
-4.46078
-4.92873
-5.4323
-5.97564
-6.56796
-7.21633
-7.92872
-8.71569
-9.59107
-10.573
-11.6855
-12.9605
-14.4406
-16.1827
-18.2645
-20.7706
-23.7379
-27.4182
-33.1494
-4.30355
-4.71508
-5.19161
-5.70493
-6.25955
-6.86447
-7.52683
-8.25482
-9.05921
-9.95409
-10.9579
-12.0951
-13.3981
-14.9099
-16.6878
-18.8098
-21.3598
-24.3728
-28.0954
-33.8582
-4.55127
-4.97443
-5.45976
-5.98306
-6.54924
-7.16704
-7.84372
-8.58765
-9.40985
-10.3247
-11.3509
-12.5133
-13.8448
-15.3889
-17.2034
-19.3661
-21.9608
-25.0198
-28.7852
-34.5796
-4.80316
-5.23824
-5.73261
-6.26615
-6.84415
-7.47514
-8.16644
-8.92666
-9.76704
-10.7022
-11.7512
-12.9394
-14.3
-15.877
-17.7285
-19.9327
-22.5725
-25.6782
-29.4869
-35.3132
-5.05866
-5.50596
-6.00959
-6.55364
-7.14375
-7.78821
-8.49444
-9.27128
-10.1302
-11.0861
-12.1584
-13.3727
-14.7629
-16.3733
-18.2625
-20.5087
-23.1941
-26.3468
-30.1995
-36.0587
-5.31724
-5.77701
-6.29013
-6.84494
-7.44745
-8.10567
-8.82713
-9.6209
-10.4987
-11.4757
-12.5717
-13.8126
-15.2328
-16.8771
-18.8044
-21.093
-23.8244
-27.0246
-30.922
-36.8166
-5.5784
-6.05087
-6.57368
-7.13954
-7.75472
-8.42698
-9.16396
-9.97496
-10.872
-11.8704
-12.9904
-14.2584
-15.709
-17.3875
-19.3533
-21.6846
-24.4622
-27.7098
-31.6518
-37.5879
-1.28797
-1.08663
-0.937559
-0.805368
-0.689638
-0.587814
-0.498791
-0.421781
-0.356288
-0.301953
-0.258512
-0.225751
-0.203494
-0.191599
-0.189909
-0.198173
-0.216252
-0.244591
-0.282606
-0.330584
-1.61993
-1.44155
-1.28857
-1.15132
-1.03093
-0.924813
-0.831994
-0.751672
-0.683332
-0.626598
-0.581189
-0.546878
-0.523478
-0.510834
-0.508792
-0.517155
-0.535795
-0.564816
-0.604028
-0.653437
-1.95608
-1.78554
-1.63267
-1.49437
-1.37196
-1.26378
-1.16912
-1.08728
-1.01781
-0.960322
-0.914554
-0.880275
-0.857295
-0.845452
-0.844592
-0.854549
-0.875218
-0.906589
-0.948533
-1.00098
-2.34407
-2.17208
-2.01637
-1.87526
-1.74942
-1.63788
-1.54014
-1.45565
-1.38399
-1.32481
-1.27784
-1.24285
-1.21965
-1.20806
-1.20793
-1.21909
-1.24145
-1.27492
-1.31937
-1.37475
-2.76797
-2.5938
-2.43438
-2.28954
-2.15968
-2.04427
-1.94297
-1.85534
-1.78104
-1.71974
-1.67119
-1.63516
-1.61146
-1.59989
-1.6003
-1.61254
-1.63648
-1.672
-1.71898
-1.77734
-3.22563
-3.04855
-2.88525
-2.73634
-2.60226
-2.4828
-2.37776
-2.28683
-2.20971
-2.14613
-2.09586
-2.05868
-2.03438
-2.02279
-2.02374
-2.03707
-2.06265
-2.10034
-2.15
-2.21155
-3.72341
-3.54195
-3.37406
-3.22051
-3.0818
-2.95793
-2.84883
-2.75427
-2.67405
-2.60793
-2.55571
-2.51716
-2.49211
-2.48038
-2.48179
-2.49618
-2.52342
-2.56334
-2.61578
-2.68069
-4.26821
-4.08093
-3.9074
-3.74838
-3.60437
-3.47551
-3.36181
-3.26315
-3.17938
-3.11032
-3.05577
-3.01554
-2.98947
-2.97736
-2.97905
-2.99438
-3.0232
-3.06533
-3.12061
-3.18899
-4.86787
-4.67336
-4.49299
-4.32746
-4.17726
-4.04263
-3.92363
-3.82022
-3.73231
-3.65975
-3.60238
-3.56003
-3.53253
-3.51971
-3.52141
-3.53746
-3.5677
-3.61194
-3.67002
-3.74192
-5.53266
-5.32938
-5.14078
-4.96749
-4.81001
-4.66859
-4.54338
-4.43438
-4.34154
-4.26476
-4.20391
-4.15882
-4.12936
-4.11535
-4.11664
-4.13305
-4.16442
-4.21057
-4.27131
-4.34666
-6.27641
-6.06258
-5.86412
-5.68156
-5.51541
-5.36594
-5.23332
-5.11763
-5.01884
-4.93688
-4.87166
-4.82303
-4.79085
-4.77498
-4.77525
-4.79149
-4.82354
-4.87119
-4.93428
-5.01284
-7.11787
-6.89143
-6.68113
-6.48745
-6.31089
-6.15174
-6.01021
-5.8864
-5.78032
-5.69193
-5.62116
-5.56789
-5.53198
-5.5133
-5.51169
-5.52699
-5.55902
-5.60756
-5.67243
-5.75373
-8.08274
-7.84119
-7.61666
-7.40958
-7.22044
-7.04958
-6.8972
-6.76343
-6.64833
-6.55187
-6.47399
-6.41461
-6.3736
-6.35083
-6.34614
-6.35938
-6.39036
-6.43884
-6.50466
-6.58793
-9.20637
-8.94669
-8.70501
-8.48171
-8.27731
-8.09215
-7.92646
-7.7804
-7.65404
-7.54737
-7.46037
-7.39294
-7.34499
-7.31639
-7.30698
-7.31661
-7.34509
-7.39217
-7.45764
-7.5417
-10.5386
-10.2572
-9.99479
-9.75182
-9.52884
-9.3262
-9.14414
-8.98284
-8.84238
-8.72279
-8.62404
-8.54606
-8.48876
-8.45201
-8.43567
-8.43959
-8.46357
-8.50731
-8.57061
-8.65372
-12.1524
-11.8449
-11.5576
-11.2908
-11.0453
-10.8213
-10.6192
-10.4391
-10.281
-10.1451
-10.0314
-9.93965
-9.86991
-9.82204
-9.79589
-9.79132
-9.8081
-9.84594
-9.90459
-9.98431
-14.1356
-13.7975
-13.4806
-13.1857
-12.9133
-12.6639
-12.4377
-12.2348
-12.0553
-11.8994
-11.767
-11.658
-11.5724
-11.5101
-11.4709
-11.4547
-11.4613
-11.4904
-11.5417
-11.6152
-16.5484
-16.1757
-15.8253
-15.4983
-15.1954
-14.917
-14.6632
-14.4343
-14.2302
-14.0511
-13.8969
-13.7676
-13.6631
-13.5834
-13.5284
-13.4979
-13.4918
-13.5099
-13.5518
-13.6167
-19.6977
-19.2863
-18.898
-18.5355
-18.1991
-17.8888
-17.6046
-17.3466
-17.1146
-16.9087
-16.7289
-16.5751
-16.4474
-16.3457
-16.2698
-16.2195
-16.1949
-16.1963
-16.2232
-16.2738
-25.0428
-24.5871
-24.1652
-23.7741
-23.4116
-23.0767
-22.7691
-22.4885
-22.235
-22.0084
-21.809
-21.6366
-21.4915
-21.3736
-21.2831
-21.2199
-21.1849
-21.1801
-21.2071
-21.2555
-0.388262
-0.455329
-0.531736
-0.617389
-0.71219
-0.816016
-0.928725
-1.05014
-1.18005
-1.31816
-1.46411
-1.61737
-1.77716
-1.94226
-2.11106
-2.2813
-2.44851
-2.60295
-2.72923
-2.85282
-0.712938
-0.782203
-0.861152
-0.949662
-1.04761
-1.15487
-1.27126
-1.39659
-1.53062
-1.67303
-1.82341
-1.98121
-2.14566
-2.31561
-2.48947
-2.66559
-2.84222
-3.0116
-3.15841
-3.32374
-1.06388
-1.13689
-1.21995
-1.3129
-1.41562
-1.52794
-1.64968
-1.78062
-1.9205
-2.06897
-2.22561
-2.38986
-2.56099
-2.73795
-2.91942
-3.1042
-3.29134
-3.47642
-3.65357
-3.85229
-1.441
-1.51778
-1.60499
-1.70249
-1.81011
-1.92769
-2.05501
-2.19185
-2.33791
-2.49283
-2.65619
-2.82741
-3.00581
-3.19047
-3.38034
-3.57454
-3.77226
-3.97117
-4.17163
-4.39382
-1.84706
-1.92776
-2.01934
-2.12162
-2.23444
-2.3576
-2.49089
-2.63406
-2.78678
-2.94871
-3.1194
-3.29832
-3.48481
-3.67811
-3.87739
-4.08204
-4.29144
-4.50453
-4.72386
-4.96253
-2.285
-2.3699
-2.46618
-2.57363
-2.69207
-2.82131
-2.96111
-3.11119
-3.27126
-3.44093
-3.61978
-3.8073
-4.00291
-4.20595
-4.41582
-4.63209
-4.85436
-5.08239
-5.31889
-5.5717
-2.75808
-2.84747
-2.94877
-3.06177
-3.18628
-3.32209
-3.46896
-3.62661
-3.79471
-3.97292
-4.16081
-4.35791
-4.56372
-4.77767
-4.99931
-5.22833
-5.46453
-5.70809
-5.96121
-6.22836
-3.27048
-3.36465
-3.47123
-3.59011
-3.7211
-3.86397
-4.01847
-4.18432
-4.3612
-4.54875
-4.74659
-4.95428
-5.17136
-5.39738
-5.63196
-5.87488
-6.12604
-6.38577
-6.65564
-6.93813
-3.82765
-3.92685
-4.0388
-4.16386
-4.30172
-4.45211
-4.61479
-4.78946
-4.97582
-5.17353
-5.38221
-5.60147
-5.8309
-6.07012
-6.3188
-6.57677
-6.84396
-7.12067
-7.40791
-7.70707
-4.43657
-4.54023
-4.65827
-4.78983
-4.93486
-5.09317
-5.2645
-5.44856
-5.64506
-5.85367
-6.07404
-6.30582
-6.54862
-6.8021
-7.066
-7.34014
-7.62444
-7.9191
-8.22467
-8.54197
-5.10687
-5.21553
-5.33906
-5.47714
-5.6295
-5.79597
-5.9763
-6.1702
-6.37738
-6.59754
-6.83034
-7.07546
-7.33254
-7.60129
-7.88143
-8.17279
-8.47527
-8.7889
-9.11393
-9.45089
-5.85148
-5.96478
-6.09373
-6.23816
-6.39784
-6.57251
-6.76201
-6.96602
-7.18426
-7.41642
-7.66222
-7.92133
-8.19345
-8.47827
-8.77554
-9.08506
-9.40668
-9.74029
-10.0859
-10.444
-6.68872
-6.80599
-6.93992
-7.09023
-7.25684
-7.43963
-7.63831
-7.85232
-8.08163
-8.32596
-8.58504
-8.85855
-9.14618
-9.44764
-9.76268
-10.0911
-10.4326
-10.7871
-11.1544
-11.5347
-7.64445
-7.76466
-7.90264
-8.0581
-8.23083
-8.42096
-8.62897
-8.85207
-9.09205
-9.3483
-9.62051
-9.90839
-10.2116
-10.5299
-10.8631
-11.2107
-11.5727
-11.9486
-12.3382
-12.7418
-8.75676
-8.87824
-9.01871
-9.17792
-9.35571
-9.55159
-9.765
-9.99853
-10.2488
-10.5161
-10.8007
-11.1025
-11.421
-11.756
-12.1071
-12.4739
-12.8563
-13.2537
-13.6658
-14.093
-10.0852
-10.2055
-10.3461
-10.5068
-10.6876
-10.888
-11.1074
-11.3459
-11.6043
-11.8823
-12.1785
-12.4933
-12.8263
-13.1768
-13.5445
-13.9294
-14.3313
-14.7497
-15.1839
-15.6342
-11.7107
-11.8267
-11.9647
-12.1244
-12.3054
-12.5075
-12.7305
-12.9742
-13.2384
-13.5233
-13.8298
-14.156
-14.5007
-14.863
-15.2443
-15.6449
-16.0645
-16.5021
-16.9568
-17.4285
-13.7027
-13.8114
-13.9437
-14.0985
-14.2754
-14.4747
-14.6964
-14.9403
-15.2062
-15.4933
-15.8011
-16.1304
-16.4821
-16.8571
-17.2532
-17.6694
-18.1053
-18.5605
-19.0342
-19.5253
-16.346
-16.439
-16.5554
-16.697
-16.8646
-17.0572
-17.2741
-17.5149
-17.7794
-18.067
-18.3771
-18.7097
-19.0648
-19.4431
-19.8443
-20.2677
-20.7133
-21.1817
-21.6728
-22.1816
-21.2996
-21.3734
-21.4774
-21.6094
-21.7681
-21.9527
-22.1627
-22.3976
-22.6572
-22.9409
-23.2488
-23.5806
-23.9366
-24.317
-24.7219
-25.1512
-25.6061
-26.0905
-26.6069
-27.1375
-27.6379
-22.7002
-20.0332
-17.9174
-16.1006
-14.5352
-13.1593
-11.9281
-10.8144
-9.7997
-8.87095
-8.01814
-7.23341
-6.51029
-5.84336
-5.22785
-4.65826
-4.12882
-3.64788
-3.24369
-28.1652
-23.234
-20.556
-18.4205
-16.5805
-14.9902
-13.5889
-12.3329
-11.1955
-10.1588
-9.20994
-8.33903
-7.53836
-6.80162
-6.12353
-5.49942
-4.92434
-4.39574
-3.92659
-3.52455
-28.7204
-23.7859
-21.0952
-18.9389
-17.0745
-15.458
-14.0304
-12.7487
-11.5869
-10.5276
-9.55807
-8.66858
-7.8515
-7.10053
-6.41036
-5.77623
-5.1933
-4.65914
-4.18317
-3.76206
-29.2991
-24.3566
-21.6507
-19.4723
-17.5819
-15.9381
-14.4831
-13.1748
-11.9878
-10.9052
-9.91426
-9.0055
-8.1712
-7.40492
-6.70115
-6.05489
-5.46104
-4.91653
-4.42794
-3.9885
-29.8983
-24.9453
-22.2222
-20.0202
-18.1024
-16.4299
-14.9463
-13.6104
-12.3975
-11.2907
-10.2777
-9.34897
-8.49666
-7.7142
-6.99582
-6.33621
-5.72998
-5.17349
-4.6715
-4.2163
-30.5163
-25.552
-22.8082
-20.5818
-18.6351
-16.9326
-15.4193
-14.055
-12.8151
-11.6835
-10.6478
-9.69836
-8.82739
-8.02805
-7.29435
-6.62068
-6.00146
-5.43268
-4.9178
-4.44891
-31.1521
-26.1763
-23.4075
-21.1559
-19.1793
-17.4455
-15.9015
-14.5077
-13.2402
-12.0829
-11.0238
-10.0532
-9.16308
-8.34642
-7.59701
-6.90902
-6.27671
-5.69583
-5.16878
-4.6876
-31.8046
-26.816
-24.0202
-21.7419
-19.7341
-17.9678
-16.392
-14.9678
-13.6719
-12.4884
-11.4054
-10.4131
-9.50347
-8.66921
-7.9039
-7.20152
-6.5562
-5.96353
-5.42486
-4.93231
-32.4723
-27.4696
-24.6455
-22.3389
-20.2986
-18.4987
-16.8902
-15.4347
-14.1096
-12.8994
-11.792
-10.7777
-9.84825
-8.99622
-8.21494
-7.4982
-6.84002
-6.23578
-5.68592
-5.18259
-33.1543
-28.136
-25.2827
-22.9461
-20.872
-19.0375
-17.3951
-15.9076
-14.5527
-13.3152
-12.183
-11.1465
-10.197
-9.32714
-8.52987
-7.79883
-7.1279
-6.51227
-5.95147
-5.43772
-33.8492
-28.814
-25.9305
-23.5625
-21.4534
-19.5831
-17.906
-16.3858
-15.0005
-13.7352
-12.578
-11.519
-10.5494
-9.66156
-8.84831
-8.10301
-7.41941
-6.79248
-6.2209
-5.69697
-34.556
-29.5027
-26.588
-24.1871
-22.0418
-20.1347
-18.4221
-16.8684
-15.4523
-14.1589
-12.9763
-11.8945
-10.9048
-9.99898
-9.16975
-8.41023
-7.71401
-7.07582
-6.49352
-5.95955
-35.2737
-30.2009
-27.2541
-24.8189
-22.6362
-20.6914
-18.9425
-17.3547
-15.9072
-14.5853
-13.3772
-12.2726
-11.2626
-10.3388
-9.49362
-8.71992
-8.0111
-7.36164
-6.76864
-6.22474
-36.0012
-30.9075
-27.9276
-25.4569
-23.2356
-21.2522
-19.4663
-17.8438
-16.3645
-15.0139
-13.78
-12.6526
-11.6222
-10.6805
-9.81933
-9.03146
-8.31004
-7.64931
-7.0456
-6.49184
-36.7374
-31.6214
-28.6074
-26.0998
-23.839
-21.8161
-19.9924
-18.3348
-16.8234
-15.4438
-14.1841
-13.0337
-11.983
-11.0233
-10.1462
-9.34422
-8.61022
-7.93817
-7.32373
-6.76018
-37.4813
-32.3412
-29.2921
-26.7466
-24.4452
-22.382
-20.52
-18.8269
-17.283
-15.8743
-14.5886
-13.4153
-12.3443
-11.3667
-10.4737
-9.65759
-8.911
-8.22761
-7.60241
-7.02915
-38.2324
-33.066
-29.9806
-27.396
-25.0531
-22.9489
-21.0479
-19.3189
-17.7425
-16.3045
-14.9929
-13.7966
-12.7054
-11.7099
-10.8011
-9.97091
-9.21177
-8.51701
-7.88105
-7.29817
-38.9921
-33.7952
-30.6713
-28.0465
-25.6612
-23.5153
-21.5751
-19.8099
-18.2007
-16.7335
-15.396
-14.1768
-13.0655
-12.0522
-11.1277
-10.2836
-9.5119
-8.80578
-8.15905
-7.56669
-39.7608
-34.5278
-31.3625
-28.6963
-26.2683
-24.0803
-22.1006
-20.299
-18.657
-17.1606
-15.7972
-14.5553
-13.424
-12.3931
-11.453
-10.5949
-9.81079
-9.09335
-8.43588
-7.83423
-40.5257
-35.2587
-32.0525
-29.3447
-26.8736
-24.6435
-22.6239
-20.7858
-19.111
-17.5854
-16.1963
-14.9317
-13.7805
-12.7321
-11.7765
-10.9045
-10.108
-9.37927
-8.71111
-8.10034
-6.59878
-4.53878
-3.21553
-2.2021
-1.49418
-0.975374
-0.604036
-0.340976
-0.158752
-0.0362518
0.0424721
0.0896627
0.114374
0.12355
0.122235
0.114144
0.101975
0.0876396
0.0724946
0.0574578
0.043156
0.0299621
0.0181185
0.00769346
-0.00125834
-0.00885155
-0.0150978
-0.020236
-0.0242567
-0.0274864
-0.0298189
-0.0316163
-0.0326142
-0.0331177
-0.0326829
-0.0314387
-0.0287405
-0.024617
-0.0174284
-0.00957132
-6.84844
-4.71683
-3.35884
-2.31499
-1.58357
-1.04773
-0.663089
-0.389781
-0.199456
-0.0704465
0.0136017
0.0652198
0.0936426
0.105962
0.107326
0.101525
0.091319
0.0786652
0.0649613
0.0511575
0.037909
0.0256121
0.01453
0.00474869
-0.00366025
-0.0108