/*--------------------------------*- C++ -*----------------------------------*\
  =========                 |
  \\      /  F ield         | OpenFOAM: The Open Source CFD Toolbox
   \\    /   O peration     | Website:  https://openfoam.org
    \\  /    A nd           | Version:  6.0
     \\/     M anipulation  |
\*---------------------------------------------------------------------------*/
FoamFile
{
    version     2.0;
    format      ascii;
    class       volVectorField;
    location    "13.25";
    object      U;
}
// * * * * * * * * * * * * * * * * * * * * * * * * * * * * * * * * * * * * * //

dimensions      [0 1 -1 0 0 0 0];

internalField   nonuniform List<vector> 
19200
(
(0.26953 -9.61759 -1.65324e-20)
(0.126261 -9.06372 7.75187e-21)
(0.140911 -8.64374 3.63001e-21)
(0.176819 -8.32065 3.24596e-21)
(0.208977 -8.06592 3.63452e-21)
(0.244286 -7.85754 2.21295e-22)
(0.281968 -7.67969 6.18568e-22)
(0.319976 -7.52125 -3.92763e-22)
(0.357201 -7.37458 4.50232e-21)
(0.392943 -7.23459 1.87344e-21)
(0.426714 -7.09802 -1.59083e-23)
(0.458215 -6.96295 2.96817e-21)
(0.487304 -6.82836 4.92596e-21)
(0.513951 -6.69386 -3.35334e-21)
(0.53821 -6.55943 4.2695e-21)
(0.560191 -6.42533 3.69255e-21)
(0.58004 -6.29192 -3.47612e-21)
(0.597929 -6.15965 5.93081e-21)
(0.614037 -6.02895 -3.78333e-21)
(0.628546 -5.90022 1.88449e-21)
(0.641637 -5.77382 2.65343e-21)
(0.65348 -5.65002 -8.67989e-22)
(0.664238 -5.52903 1.16717e-21)
(0.674061 -5.41096 -1.3623e-21)
(0.683084 -5.29581 2.96729e-21)
(0.691428 -5.1835 7.13522e-22)
(0.69919 -5.07384 -4.76423e-22)
(0.706468 -4.96657 2.8379e-22)
(0.713352 -4.86129 6.75479e-22)
(0.719693 -4.75753 2.49998e-21)
(0.52128 -9.61167 -3.78686e-21)
(0.364789 -9.07218 2.39093e-20)
(0.369065 -8.66081 -1.26469e-20)
(0.396978 -8.34394 -1.74061e-20)
(0.422861 -8.09388 -7.92264e-21)
(0.452991 -7.88863 -5.66984e-21)
(0.486161 -7.71257 -1.15219e-20)
(0.520039 -7.55486 1.54318e-21)
(0.553326 -7.40806 -2.51616e-21)
(0.585205 -7.26729 -9.04639e-21)
(0.615123 -7.12947 -2.27646e-20)
(0.642748 -6.99282 1.10852e-20)
(0.667928 -6.85645 -4.1533e-21)
(0.690639 -6.72006 1.56705e-21)
(0.710948 -6.58372 -9.54984e-21)
(0.728984 -6.44773 -3.516e-21)
(0.744914 -6.31251 3.96864e-22)
(0.758925 -6.17853 1.19201e-20)
(0.771215 -6.04625 -6.25516e-21)
(0.78198 -5.91608 -3.46436e-21)
(0.791413 -5.78838 -1.36246e-20)
(0.799693 -5.66344 3.49723e-21)
(0.806989 -5.54145 -2.1966e-21)
(0.813454 -5.42251 3.89219e-21)
(0.819225 -5.30664 -4.87094e-21)
(0.824419 -5.19372 -2.80908e-21)
(0.829127 -5.08357 9.14762e-22)
(0.83345 -4.97588 1.42386e-21)
(0.837512 -4.87024 -2.51483e-21)
(0.841061 -4.76612 1.16065e-21)
(0.77294 -9.59977 -1.80587e-21)
(0.603557 -9.07472 4.87299e-21)
(0.598001 -8.67209 7.64377e-21)
(0.618331 -8.36159 6.0618e-20)
(0.638211 -8.11631 -3.52367e-20)
(0.663338 -7.91425 3.20109e-20)
(0.692093 -7.74003 -2.88885e-20)
(0.721876 -7.58306 1.55292e-20)
(0.751213 -7.43616 -1.47566e-20)
(0.779184 -7.29464 -1.63833e-21)
(0.805176 -7.15561 3.72023e-20)
(0.828836 -7.01743 6.25136e-21)
(0.850008 -6.87935 -1.72362e-20)
(0.868681 -6.74115 1.3483e-20)
(0.88494 -6.60298 -4.64033e-23)
(0.898932 -6.46521 5.75232e-21)
(0.910848 -6.32828 4.12686e-21)
(0.920894 -6.19271 1.39525e-20)
(0.929286 -6.05896 -6.12222e-21)
(0.936236 -5.92747 -2.00148e-21)
(0.941947 -5.79859 -5.33091e-21)
(0.946608 -5.67262 2.36842e-20)
(0.950394 -5.54974 -1.97789e-20)
(0.953461 -5.43006 6.40254e-21)
(0.955947 -5.31358 1.48079e-20)
(0.957964 -5.20018 -1.20701e-20)
(0.959596 -5.08965 1.61001e-20)
(0.960949 -4.98166 -1.72617e-21)
(0.962175 -4.87576 -1.81741e-21)
(0.962904 -4.77141 -1.16895e-20)
(1.02425 -9.58162 -6.00463e-20)
(0.842512 -9.0713 -5.17779e-20)
(0.827608 -8.67759 -6.36507e-20)
(0.84074 -8.3736 1.72108e-21)
(0.854888 -8.13318 3.82381e-21)
(0.875181 -7.93435 -7.19869e-20)
(0.899614 -7.76199 -3.5673e-20)
(0.925333 -7.60578 9.37831e-21)
(0.950705 -7.4588 -1.57191e-21)
(0.974717 -7.31656 1.61167e-20)
(0.99671 -7.17636 -6.35394e-20)
(1.01632 -7.03672 -3.9723e-20)
(1.03338 -6.89699 1.46812e-20)
(1.04792 -6.75707 2.93919e-20)
(1.06003 -6.61717 -3.40185e-20)
(1.06988 -6.47771 -5.33996e-21)
(1.07769 -6.3392 -2.01545e-20)
(1.08369 -6.20215 -9.50138e-21)
(1.08811 -6.06705 1.59829e-20)
(1.09118 -5.93435 -2.04325e-20)
(1.09311 -5.80442 1.7817e-20)
(1.0941 -5.67754 -2.10665e-20)
(1.09433 -5.5539 -1.65974e-20)
(1.09396 -5.43359 -1.19304e-20)
(1.09314 -5.31662 1.38201e-20)
(1.09195 -5.20285 -2.45452e-20)
(1.09049 -5.09205 2.54556e-21)
(1.08887 -4.98388 4.41183e-21)
(1.08725 -4.87785 -1.28281e-20)
(1.08514 -4.77339 2.496e-21)
(1.27512 -9.55712 -3.56121e-20)
(1.08163 -9.0619 4.96862e-21)
(1.05781 -8.6773 4.39002e-20)
(1.06409 -8.37993 4.61172e-20)
(1.07276 -8.14442 3.32985e-20)
(1.08838 -7.94885 1.37886e-20)
(1.10857 -7.77836 8.47076e-21)
(1.13025 -7.62293 9.77869e-20)
(1.15164 -7.47589 -5.84616e-20)
(1.17164 -7.33297 1.61968e-21)
(1.18956 -7.19165 1.40269e-20)
(1.20502 -7.05061 6.08456e-20)
(1.21789 -6.90931 -4.13114e-20)
(1.22819 -6.76775 2.97024e-20)
(1.23605 -6.62623 -3.30138e-20)
(1.24167 -6.4852 5.658e-20)
(1.24529 -6.34521 -1.6635e-20)
(1.24716 -6.2068 6.06095e-22)
(1.24754 -6.07049 2.68692e-20)
(1.24666 -5.93671 1.88647e-20)
(1.24476 -5.80584 -1.91811e-20)
(1.24203 -5.67817 2.59271e-20)
(1.23867 -5.55389 -1.18201e-20)
(1.23484 -5.43308 1.36254e-20)
(1.23068 -5.31573 1.51479e-20)
(1.22628 -5.2017 6.67524e-21)
(1.22172 -5.09076 2.03162e-20)
(1.2171 -4.98252 -7.22462e-21)
(1.21264 -4.87647 -2.37902e-21)
(1.20767 -4.77204 -1.09013e-20)
(1.52542 -9.52624 -2.59255e-20)
(1.3208 -9.04647 -1.62377e-20)
(1.28851 -8.67117 -4.97445e-20)
(1.28827 -8.38051 -1.30186e-19)
(1.29169 -8.14997 4.34226e-20)
(1.30278 -7.95768 2.85444e-21)
(1.31882 -7.78907 5.82802e-22)
(1.33648 -7.63443 5.97348e-21)
(1.35386 -7.48735 -4.16397e-21)
(1.36979 -7.34378 -7.60468e-20)
(1.38356 -7.20139 3.17858e-20)
(1.39479 -7.05901 5.48595e-20)
(1.40336 -6.91623 1.25663e-22)
(1.40932 -6.77314 2.0261e-20)
(1.41284 -6.63009 5.01983e-20)
(1.41414 -6.48761 -3.45638e-20)
(1.41349 -6.34627 6.06656e-20)
(1.41116 -6.20663 -2.89895e-20)
(1.40743 -6.06923 5.13388e-20)
(1.40255 -5.9345 -3.85263e-20)
(1.39676 -5.80283 1.71327e-20)
(1.39028 -5.6745 4.50625e-20)
(1.3833 -5.5497 2.63589e-21)
(1.37598 -5.4285 -4.17321e-20)
(1.36845 -5.31089 2.29581e-20)
(1.36083 -5.19673 7.01237e-21)
(1.35315 -5.08576 -7.53063e-21)
(1.34555 -4.97758 2.86672e-20)
(1.33825 -4.87162 1.01209e-20)
(1.33042 -4.76734 -9.30702e-21)
(1.77499 -9.48895 7.31378e-20)
(1.5599 -9.02497 -9.97035e-22)
(1.51957 -8.65914 -1.01061e-19)
(1.51313 -8.37529 2.05936e-20)
(1.51154 -8.14974 -2.88635e-20)
(1.51825 -7.96075 2.08591e-20)
(1.5302 -7.79403 -1.00185e-20)
(1.54385 -7.64019 8.42837e-20)
(1.55719 -7.49309 -9.12032e-20)
(1.569 -7.34891 2.22708e-20)
(1.57854 -7.20552 -1.57484e-20)
(1.58545 -7.06188 1.14984e-20)
(1.58963 -6.9177 -5.0879e-20)
(1.59116 -6.77318 -3.3589e-21)
(1.59025 -6.62872 8.18805e-20)
(1.58714 -6.48491 -5.62898e-20)
(1.58214 -6.34235 -3.56624e-20)
(1.57554 -6.20161 -2.59803e-20)
(1.56764 -6.06325 4.70623e-20)
(1.5587 -5.9277 1.01626e-20)
(1.54898 -5.79536 -4.63629e-20)
(1.53871 -5.6665 6.17903e-20)
(1.52807 -5.5413 -5.57825e-20)
(1.51724 -5.41984 3.69304e-20)
(1.50635 -5.3021 -2.09576e-20)
(1.49548 -5.18792 6.35508e-21)
(1.4847 -5.07703 1.02291e-20)
(1.47412 -4.96902 -4.57294e-20)
(1.46398 -4.86328 1.96337e-20)
(1.45329 -4.75928 3.06716e-22)
(2.02367 -9.44525 -7.18014e-20)
(1.7988 -8.99737 5.53372e-20)
(1.75087 -8.64118 -1.04091e-19)
(1.73855 -8.3642 1.9822e-19)
(1.73216 -8.14369 -5.55401e-20)
(1.73462 -7.958 7.93783e-20)
(1.74254 -7.79316 6.22918e-20)
(1.7522 -7.64014 -1.09155e-20)
(1.76147 -7.49305 -1.60372e-20)
(1.76909 -7.34831 -2.12388e-22)
(1.77432 -7.20396 -6.19169e-20)
(1.77681 -7.05914 3.22164e-20)
(1.77651 -6.91367 -3.89028e-20)
(1.77353 -6.76781 -3.05986e-21)
(1.76809 -6.62208 -1.08959e-19)
(1.7605 -6.47706 3.55934e-20)
(1.75107 -6.33341 2.06343e-20)
(1.74014 -6.19171 -2.33311e-20)
(1.72801 -6.05253 -2.72998e-21)
(1.71497 -5.9163 -3.58094e-20)
(1.70129 -5.78342 -1.28149e-20)
(1.68719 -5.65416 1.16046e-21)
(1.67288 -5.52869 -3.12907e-20)
(1.65851 -5.40709 -4.65646e-20)
(1.64424 -5.28933 1.96698e-21)
(1.63014 -5.17525 6.56995e-21)
(1.61625 -5.06456 1.4712e-20)
(1.60269 -4.95684 -3.63372e-20)
(1.58974 -4.85144 3.09586e-20)
(1.57619 -4.74785 -5.58522e-20)
(2.2713 -9.39515 -1.77459e-19)
(2.03733 -8.96364 2.04983e-19)
(1.98226 -8.61724 -2.17461e-19)
(1.96437 -8.3472 -5.90442e-20)
(1.9534 -8.13173 -3.79244e-20)
(1.95175 -7.94934 -4.13413e-20)
(1.95569 -7.7864 -9.43974e-20)
(1.96135 -7.6342 -7.96392e-21)
(1.96651 -7.48715 -3.80731e-20)
(1.96988 -7.34189 -8.04542e-21)
(1.97072 -7.19666 6.43686e-20)
(1.96872 -7.05074 -3.64121e-20)
(1.96384 -6.90408 -4.32529e-20)
(1.95625 -6.75702 -7.3163e-20)
(1.94621 -6.61012 1.53662e-19)
(1.93405 -6.46404 -5.9e-20)
(1.92014 -6.31943 2.20396e-20)
(1.90481 -6.17692 -8.23618e-20)
(1.8884 -6.03705 3.16435e-20)
(1.87122 -5.90028 -1.30047e-20)
(1.85353 -5.76699 1.63419e-20)
(1.83558 -5.63746 -5.63461e-21)
(1.81757 -5.51185 5.15169e-20)
(1.79967 -5.39024 -1.82442e-20)
(1.78201 -5.27258 5.06431e-20)
(1.76467 -5.15871 -1.03207e-19)
(1.74768 -5.04836 6.58959e-20)
(1.73117 -4.94104 1.82504e-20)
(1.71542 -4.83609 3.41927e-20)
(1.69902 -4.73304 -9.86704e-20)
(2.51772 -9.33866 2.80233e-19)
(2.27536 -8.92376 -5.15063e-20)
(2.21359 -8.58726 9.36727e-20)
(2.19044 -8.32422 -2.66253e-20)
(2.1751 -8.11381 9.33361e-20)
(2.16945 -7.93472 8.86477e-20)
(2.16947 -7.77367 4.2239e-20)
(2.17113 -7.62231 -1.55585e-20)
(2.17215 -7.47533 -9.68098e-20)
(2.1712 -7.3296 1.41549e-19)
(2.16757 -7.18357 -1.1118e-20)
(2.16098 -7.03664 9.97849e-20)
(2.15144 -6.88889 3.6258e-20)
(2.13915 -6.74074 1.32249e-20)
(2.12443 -6.59282 2.08981e-20)
(2.10764 -6.4458 2.9107e-20)
(2.08917 -6.30039 4.84911e-20)
(2.06939 -6.1572 -1.3991e-20)
(2.04866 -6.01679 7.15245e-20)
(2.02729 -5.87963 3.30019e-20)
(2.00557 -5.74608 -6.8755e-20)
(1.98375 -5.61641 1.2209e-19)
(1.96203 -5.49078 -1.61276e-19)
(1.94058 -5.36928 1.52572e-19)
(1.91953 -5.25185 -5.05292e-20)
(1.89896 -5.13832 -2.09053e-20)
(1.87888 -5.0284 -5.46774e-21)
(1.85943 -4.9216 3.73198e-20)
(1.84091 -4.81722 1.34066e-20)
(1.82169 -4.71484 -1.51429e-20)
(2.76276 -9.27581 -1.5971e-19)
(2.51271 -8.87771 1.4979e-19)
(2.44469 -8.55123 -4.06599e-20)
(2.4166 -8.29522 1.1712e-19)
(2.39711 -8.08987 1.156e-20)
(2.38757 -7.91407 2.54884e-20)
(2.38371 -7.75491 -2.01955e-19)
(2.38137 -7.6044 9.44269e-20)
(2.37819 -7.45752 1.30049e-19)
(2.37286 -7.3114 9.90557e-20)
(2.36469 -7.16463 -1.68489e-19)
(2.35342 -7.0168 9.82322e-20)
(2.33913 -6.86808 -9.79929e-20)
(2.32206 -6.71897 6.75902e-20)
(2.30258 -6.57015 -1.13121e-19)
(2.28109 -6.42235 -8.4088e-20)
(2.258 -6.27628 5.09306e-21)
(2.23372 -6.13256 -3.85956e-20)
(2.20863 -5.99177 6.84521e-20)
(2.18305 -5.85435 2.73334e-20)
(2.15727 -5.72067 -1.78841e-20)
(2.13156 -5.59099 -5.17974e-21)
(2.10612 -5.46549 2.1263e-20)
(2.08112 -5.34422 -7.0925e-20)
(2.05668 -5.22713 1.1782e-19)
(2.03289 -5.11405 -2.86863e-20)
(2.00974 -5.00469 -4.91688e-20)
(1.98738 -4.89854 1.0302e-19)
(1.96611 -4.79484 1.39063e-20)
(1.94409 -4.69326 -1.35113e-20)
(3.00625 -9.2066 6.39975e-21)
(2.74923 -8.82548 -8.30248e-20)
(2.67543 -8.50909 -7.64998e-20)
(2.6427 -8.26014 -1.2702e-19)
(2.61924 -8.05985 4.42368e-21)
(2.60593 -7.88733 -9.18203e-20)
(2.59823 -7.73006 1.08337e-19)
(2.59187 -7.58043 -5.35613e-20)
(2.58446 -7.43369 8.80377e-20)
(2.57468 -7.28722 -7.23672e-20)
(2.56187 -7.13981 -3.72368e-20)
(2.54585 -6.99117 2.03871e-20)
(2.52673 -6.8416 1.10431e-20)
(2.5048 -6.69167 -1.12535e-19)
(2.48049 -6.5421 6.61899e-20)
(2.45423 -6.39367 -3.28997e-20)
(2.42648 -6.24708 9.31719e-20)
(2.39766 -6.10299 -3.07351e-20)
(2.36816 -5.96196 3.2023e-20)
(2.33834 -5.82443 7.96741e-21)
(2.30849 -5.69077 5.47144e-20)
(2.27888 -5.56123 -1.11208e-20)
(2.24971 -5.43597 9.00781e-20)
(2.22115 -5.31505 -1.00216e-19)
(2.19334 -5.19843 -3.40237e-20)
(2.16633 -5.08592 2.78178e-20)
(2.14013 -4.97723 -2.82048e-21)
(2.11489 -4.87184 -7.64743e-20)
(2.09092 -4.76894 3.92662e-20)
(2.06613 -4.6683 -4.28467e-20)
(3.24804 -9.13109 2.69894e-19)
(2.98476 -8.76706 6.94831e-20)
(2.90562 -8.46084 8.36679e-20)
(2.86856 -8.21896 1.13163e-19)
(2.84133 -8.0237 1.70189e-19)
(2.82435 -7.85445 -5.16086e-21)
(2.81285 -7.69907 2.46093e-20)
(2.80246 -7.55032 2.89483e-19)
(2.79076 -7.40378 8.34481e-20)
(2.77646 -7.25703 -7.03838e-20)
(2.75894 -7.10906 1.23801e-19)
(2.73808 -6.95974 2.09924e-20)
(2.71404 -6.80944 1.02726e-21)
(2.68719 -6.65882 2.95259e-20)
(2.65798 -6.50866 5.28419e-20)
(2.6269 -6.35974 -1.08757e-19)
(2.59443 -6.2128 9.24932e-20)
(2.56103 -6.06849 1.55544e-20)
(2.52711 -5.92737 9.03509e-20)
(2.49302 -5.78988 -4.89952e-20)
(2.45908 -5.65638 8.08615e-20)
(2.42556 -5.52711 -8.60497e-20)
(2.39266 -5.40223 8.31704e-20)
(2.36056 -5.28179 1.16685e-20)
(2.32938 -5.16575 -5.58643e-20)
(2.29917 -5.05393 -1.82945e-20)
(2.26994 -4.94603 1.07053e-19)
(2.24185 -4.84151 -1.61545e-20)
(2.21521 -4.73954 2.07245e-20)
(2.18769 -4.63997 -1.32531e-20)
(3.48796 -9.04929 2.73341e-20)
(3.21914 -8.70247 6.06753e-20)
(3.13511 -8.40645 2.47466e-19)
(3.09402 -8.17163 -4.02704e-19)
(3.06321 -7.98139 -3.99784e-20)
(3.04265 -7.81538 -4.33738e-20)
(3.02739 -7.66189 1.92236e-20)
(3.01294 -7.51405 2.56956e-20)
(2.9969 -7.36774 6.47463e-20)
(2.97801 -7.2208 -1.15232e-19)
(2.95571 -7.07238 -2.25043e-20)
(2.92993 -6.92248 6.41588e-20)
(2.9009 -6.77159 6.93301e-20)
(2.86905 -6.62042 -6.91043e-20)
(2.83488 -6.46981 -6.84226e-20)
(2.79893 -6.32057 1.10653e-19)
(2.7617 -6.17343 7.2214e-20)
(2.72368 -6.02906 -1.86015e-20)
(2.68531 -5.88801 -4.61269e-20)
(2.64694 -5.75071 8.33475e-21)
(2.6089 -5.61751 -1.06432e-19)
(2.57146 -5.48865 1.2815e-19)
(2.53484 -5.36428 -8.76054e-20)
(2.49919 -5.24444 -3.71615e-21)
(2.46466 -5.1291 5.76532e-20)
(2.43128 -5.01809 -1.79876e-20)
(2.39905 -4.9111 -5.43804e-20)
(2.36814 -4.80757 8.42266e-21)
(2.33887 -4.70663 -2.24962e-21)
(2.30868 -4.60827 1.03566e-20)
(3.72585 -8.96125 -2.02714e-20)
(3.4522 -8.6317 -6.33488e-20)
(3.36373 -8.3459 -2.85055e-19)
(3.3189 -8.11813 1.02136e-19)
(3.2847 -7.93287 -3.11917e-20)
(3.26066 -7.77009 1.02091e-19)
(3.24164 -7.61848 7.46431e-21)
(3.22312 -7.47158 -1.17849e-19)
(3.2027 -7.32556 1.02986e-20)
(3.17915 -7.17849 -1.60305e-19)
(3.15198 -7.02972 -6.38423e-21)
(3.1212 -6.87937 3.87446e-20)
(3.08712 -6.72802 -6.68349e-20)
(3.0502 -6.57647 7.59912e-20)
(3.01102 -6.42557 -1.44953e-19)
(2.97014 -6.27615 -3.28128e-20)
(2.92812 -6.12899 8.7298e-20)
(2.88546 -5.98472 -1.87947e-22)
(2.84261 -5.84389 -5.52819e-20)
(2.79995 -5.70694 1.49803e-19)
(2.75781 -5.57418 -8.01714e-20)
(2.71646 -5.44587 -1.07545e-19)
(2.6761 -5.32213 3.58167e-20)
(2.63693 -5.20303 -1.04229e-19)
(2.59905 -5.08851 -2.51268e-20)
(2.56252 -4.97841 -3.22825e-21)
(2.52732 -4.87244 -6.7805e-20)
(2.49363 -4.77001 8.10397e-20)
(2.46179 -4.67022 -2.88652e-20)
(2.42897 -4.57321 4.66747e-20)
(3.96153 -8.86702 -9.5646e-20)
(3.68377 -8.55477 -2.53604e-19)
(3.59131 -8.27919 1.23007e-19)
(3.54303 -8.05843 -1.16885e-19)
(3.50561 -7.87813 -8.66811e-20)
(3.47818 -7.71853 -5.01561e-20)
(3.45543 -7.56881 -1.8308e-19)
(3.43281 -7.42287 1.24084e-19)
(3.40794 -7.2772 -2.21912e-19)
(3.37967 -7.1301 -3.08329e-19)
(3.34756 -6.98108 3.98211e-20)
(3.31171 -6.83041 6.61474e-20)
(3.2725 -6.67875 -1.04656e-21)
(3.23046 -6.52695 -1.25908e-19)
(3.18621 -6.37592 2.93172e-20)
(3.14037 -6.22651 -1.138e-19)
(3.09352 -6.07947 -8.17553e-20)
(3.0462 -5.93547 -4.9071e-20)
(2.99886 -5.79503 -9.85947e-21)
(2.95191 -5.65857 8.3139e-20)
(2.90566 -5.52641 1.18799e-19)
(2.86039 -5.39877 -3.55956e-20)
(2.81633 -5.2758 -3.41727e-20)
(2.77363 -5.15755 6.63386e-20)
(2.73243 -5.04396 3.68768e-20)
(2.69277 -4.9349 -2.91692e-20)
(2.65463 -4.83006 -3.24911e-20)
(2.6182 -4.72885 3.66816e-21)
(2.58384 -4.63034 2.90542e-20)
(2.54846 -4.53481 -4.15586e-20)
(4.19485 -8.76663 -1.88119e-20)
(3.91369 -8.47169 3.20329e-19)
(3.81768 -8.20631 2.47116e-19)
(3.76625 -7.99253 1.92114e-19)
(3.72578 -7.81712 -1.24288e-19)
(3.69502 -7.66069 -2.48622e-20)
(3.66855 -7.51285 2.26234e-20)
(3.64181 -7.36791 1.57234e-19)
(3.61244 -7.22265 5.90555e-20)
(3.57937 -7.0756 8.97869e-20)
(3.54226 -6.92645 -1.97638e-19)
(3.50127 -6.77559 2.01395e-20)
(3.45686 -6.62377 7.98679e-20)
(3.40964 -6.47189 4.86506e-20)
(3.36028 -6.32089 1.01326e-19)
(3.30944 -6.17164 -6.88449e-20)
(3.25775 -6.02491 -6.38427e-20)
(3.20575 -5.88133 1.22169e-20)
(3.15392 -5.74144 1.35588e-19)
(3.10266 -5.60562 -2.18429e-19)
(3.05231 -5.4742 7.59556e-20)
(3.00314 -5.34739 -5.51344e-22)
(2.95536 -5.22532 1.42953e-19)
(2.90916 -5.10803 -6.17805e-20)
(2.86466 -4.9955 -3.274e-21)
(2.82189 -4.88758 -3.9092e-20)
(2.78084 -4.78398 -3.44462e-20)
(2.74171 -4.68411 7.27479e-21)
(2.70489 -4.58698 -8.46777e-20)
(2.66701 -4.49307 1.23502e-19)
(4.42565 -8.66015 -3.53329e-19)
(4.14179 -8.38248 -1.94784e-19)
(4.04268 -8.12727 -4.97337e-19)
(3.98836 -7.9204 -2.25311e-19)
(3.945 -7.74984 2.09108e-19)
(3.911 -7.59654 -1.23023e-19)
(3.88082 -7.45058 -2.93795e-20)
(3.84992 -7.30667 -8.07488e-20)
(3.816 -7.16188 1.35789e-19)
(3.77807 -7.01498 -1.25472e-19)
(3.73588 -6.86583 1.50505e-20)
(3.68968 -6.71492 -6.11087e-21)
(3.64002 -6.56308 -1.95803e-19)
(3.58757 -6.41129 -8.07164e-21)
(3.53306 -6.2605 5.16862e-20)
(3.4772 -6.11158 -5.71953e-21)
(3.42064 -5.96531 -1.98747e-19)
(3.36394 -5.82233 1.92881e-19)
(3.30761 -5.68314 -1.88825e-19)
(3.25206 -5.54813 7.3496e-20)
(3.19761 -5.4176 1.03293e-20)
(3.14454 -5.29174 4.18859e-21)
(3.09308 -5.17069 -7.69444e-20)
(3.04339 -5.0545 7.7186e-20)
(2.9956 -4.94312 -3.28736e-20)
(2.94974 -4.83645 3.57819e-20)
(2.90581 -4.73421 -1.90824e-19)
(2.86403 -4.63579 5.1583e-20)
(2.8248 -4.54017 5.54503e-20)
(2.7845 -4.44803 5.50373e-20)
(4.65375 -8.54762 6.87711e-19)
(4.36792 -8.28719 2.2426e-19)
(4.26613 -8.04208 1.30062e-19)
(4.2092 -7.84205 2.05316e-19)
(4.16311 -7.67626 -2.58695e-20)
(4.12592 -7.52606 1.52878e-19)
(4.09203 -7.38199 3.38645e-19)
(4.05693 -7.23914 -4.31255e-20)
(4.01841 -7.09491 1.88408e-20)
(3.97556 -6.94826 3.92372e-19)
(3.92822 -6.79922 3.64936e-19)
(3.87676 -6.6484 5.35944e-20)
(3.82179 -6.49672 -1.9662e-20)
(3.76407 -6.34517 -1.94633e-21)
(3.70438 -6.19475 2.75811e-19)
(3.64347 -6.04634 1.06289e-20)
(3.58202 -5.90071 2.91054e-19)
(3.52063 -5.75849 -3.68814e-20)
(3.45981 -5.62016 -6.24965e-20)
(3.39996 -5.48611 1.45373e-19)
(3.34142 -5.35661 -1.3279e-19)
(3.28448 -5.23185 -1.42794e-19)
(3.22934 -5.11195 -1.28021e-20)
(3.17617 -4.99696 -6.31757e-20)
(3.12511 -4.88686 9.55108e-20)
(3.07619 -4.78154 1.11782e-20)
(3.02941 -4.68076 -3.9634e-20)
(2.98502 -4.5839 2.12419e-20)
(2.94344 -4.48992 1.41463e-19)
(2.90079 -4.39969 1.95235e-20)
(4.87901 -8.42911 -1.18294e-19)
(4.5919 -8.18583 -2.24503e-19)
(4.48788 -7.95076 9.15451e-20)
(4.4286 -7.75749 -3.66328e-19)
(4.3799 -7.5964 1.72995e-19)
(4.33958 -7.44925 -3.1526e-19)
(4.30199 -7.30706 -2.05961e-19)
(4.26266 -7.16533 5.68281e-20)
(4.21948 -7.02172 5.55545e-20)
(4.17164 -6.87544 -2.70682e-19)
(4.1191 -6.72664 4.10769e-20)
(4.06231 -6.57607 4.48761e-20)
(4.00199 -6.42469 -1.45738e-19)
(3.93896 -6.27356 -5.7649e-20)
(3.87406 -6.12369 -3.85901e-20)
(3.80809 -5.97596 -3.86353e-20)
(3.74175 -5.83114 -1.60208e-19)
(3.67567 -5.68984 -1.00015e-19)
(3.61035 -5.55254 -2.14843e-20)
(3.54621 -5.4196 8.10625e-20)
(3.48361 -5.29127 1.09452e-19)
(3.4228 -5.16773 -1.18559e-19)
(3.364 -5.04911 4.41931e-20)
(3.30738 -4.93544 -9.14148e-20)
(3.25306 -4.82672 8.54927e-20)
(3.2011 -4.72286 -1.12425e-19)
(3.1515 -4.62365 3.49747e-20)
(3.10453 -4.52846 -5.50172e-20)
(3.06064 -4.43623 -7.76383e-20)
(3.01574 -4.34806 -7.20623e-21)
(5.10125 -8.30468 -2.47425e-19)
(4.81358 -8.07847 -2.00737e-19)
(4.70776 -7.85332 -1.96587e-19)
(4.64637 -7.6667 -1.44032e-19)
(4.59521 -7.51023 4.40232e-19)
(4.5518 -7.36611 6.10721e-20)
(4.51049 -7.2258 1.8563e-19)
(4.4669 -7.08523 2.8193e-19)
(4.419 -6.94234 1.34793e-19)
(4.36611 -6.79653 -1.78061e-19)
(4.30831 -6.64812 2.8359e-19)
(4.24615 -6.49794 8.20503e-20)
(4.18043 -6.34704 2.5711e-19)
(4.11206 -6.19649 2.95301e-20)
(4.04194 -6.04734 6.45975e-20)
(3.97089 -5.90046 2.08295e-20)
(3.89966 -5.75662 -7.46044e-22)
(3.82889 -5.61641 -7.60887e-21)
(3.75909 -5.48029 3.40609e-20)
(3.69069 -5.34861 1.15005e-19)
(3.62403 -5.2216 -1.27717e-19)
(3.55937 -5.09943 1.01113e-19)
(3.49693 -4.9822 3.53806e-21)
(3.43686 -4.86997 4.53598e-20)
(3.37931 -4.76273 8.25945e-20)
(3.32432 -4.66042 -1.42738e-20)
(3.27191 -4.56287 8.14476e-20)
(3.2224 -4.46945 1.1719e-19)
(3.17627 -4.3791 -1.26953e-19)
(3.1292 -4.29315 -6.90252e-20)
(5.32034 -8.17442 7.22621e-19)
(5.03281 -7.96514 -7.33363e-20)
(4.92561 -7.7498 1.5121e-19)
(4.86235 -7.56971 2.77167e-19)
(4.80883 -7.41777 -7.8827e-19)
(4.76238 -7.27663 8.38322e-20)
(4.71734 -7.13822 -2.95858e-19)
(4.66944 -6.99886 2.91138e-19)
(4.61677 -6.85677 -2.30427e-19)
(4.55878 -6.71155 1.23162e-19)
(4.49567 -6.56367 -4.46021e-19)
(4.42809 -6.41404 1.64593e-20)
(4.35694 -6.26378 -4.81851e-19)
(4.28321 -6.114 2.17301e-19)
(4.20784 -5.96574 1.11438e-19)
(4.13171 -5.81989 1.68927e-19)
(4.0556 -5.6772 -1.84392e-19)
(3.98015 -5.53824 -1.46539e-20)
(3.90589 -5.40347 1.45059e-20)
(3.83324 -5.27319 4.0217e-20)
(3.76255 -5.14764 -2.25217e-19)
(3.69407 -5.02696 -6.76995e-21)
(3.628 -4.91125 -1.24878e-19)
(3.5645 -4.80055 -2.93398e-20)
(3.50372 -4.69489 -7.61127e-20)
(3.44571 -4.59423 -8.2758e-20)
(3.39051 -4.49843 -8.57162e-20)
(3.33847 -4.40689 1.41285e-19)
(3.29014 -4.31852 3.76984e-20)
(3.24099 -4.23495 -6.61309e-20)
(5.53612 -8.03838 -4.81082e-19)
(5.24944 -7.8459 1.63747e-19)
(5.14128 -7.64023 -2.78232e-19)
(5.07637 -7.46652 4.18159e-20)
(5.02059 -7.31903 4.46916e-19)
(4.97111 -7.18082 -2.25074e-19)
(4.92233 -7.04433 -2.33079e-19)
(4.87009 -6.90624 -1.98291e-19)
(4.8126 -6.76505 9.81178e-21)
(4.74945 -6.62054 1.25611e-19)
(4.68097 -6.47333 -9.07588e-20)
(4.60793 -6.32442 4.3945e-21)
(4.53133 -6.17497 2.00927e-19)
(4.45221 -6.02613 1.25165e-19)
(4.3716 -5.87894 3.55924e-20)
(4.2904 -5.73429 -1.1051e-19)
(4.20942 -5.59291 4.17306e-20)
(4.12931 -5.45537 9.09899e-20)
(4.05061 -5.32209 1.01105e-19)
(3.97374 -5.19337 -1.10701e-19)
(3.89904 -5.06941 1.68135e-20)
(3.82675 -4.95035 9.39839e-20)
(3.75707 -4.83627 1.6258e-19)
(3.69017 -4.72722 4.22708e-20)
(3.62617 -4.62322 -1.65997e-19)
(3.56514 -4.52429 1.92555e-19)
(3.50714 -4.43031 -9.61581e-20)
(3.45258 -4.34075 -1.14287e-19)
(3.40208 -4.25449 -7.00657e-20)
(3.35094 -4.17344 -8.47768e-20)
(5.74846 -7.89665 2.53642e-19)
(5.46336 -7.72082 -1.87998e-19)
(5.35462 -7.52463 7.16762e-20)
(5.28824 -7.35716 3.7394e-19)
(5.23029 -7.214 1.00518e-19)
(5.17781 -7.0787 -8.61391e-20)
(5.12526 -6.94415 2.06447e-19)
(5.06863 -6.80739 4.81267e-20)
(5.00627 -6.6672 1.90787e-19)
(4.93792 -6.52354 1.04565e-19)
(4.86403 -6.37716 4.08252e-21)
(4.7855 -6.22913 6.48326e-20)
(4.70342 -6.08067 -2.05407e-20)
(4.61892 -5.93294 -1.80419e-19)
(4.53306 -5.78699 -2.6072e-20)
(4.44681 -5.64371 -5.31974e-20)
(4.36097 -5.50382 1.30073e-19)
(4.27623 -5.36785 1.31717e-19)
(4.19312 -5.23621 -1.49775e-19)
(4.11206 -5.10919 1.52732e-19)
(4.03337 -4.98695 3.23339e-19)
(3.95731 -4.86963 -2.08155e-19)
(3.88404 -4.75729 2.08082e-19)
(3.81373 -4.64998 -1.45786e-19)
(3.74651 -4.54774 -2.04305e-20)
(3.68246 -4.45059 1.54852e-19)
(3.62165 -4.35852 -3.13782e-20)
(3.56456 -4.271 1.15674e-19)
(3.51191 -4.18695 1.145e-19)
(3.45887 -4.1086 -2.03272e-19)
(5.95724 -7.74931 -2.45019e-19)
(5.67445 -7.58996 1.05646e-19)
(5.5655 -7.40303 4.40143e-20)
(5.49781 -7.24162 -4.35358e-19)
(5.43773 -7.1027 -2.24094e-19)
(5.38225 -6.97028 1.6643e-19)
(5.32592 -6.8377 -4.5962e-19)
(5.26486 -6.70235 5.49998e-19)
(5.19759 -6.56327 -3.07466e-19)
(5.12398 -6.4206 3.65649e-20)
(5.04465 -6.27519 -5.78221e-20)
(4.96061 -6.12821 -1.71525e-19)
(4.87305 -5.98091 3.51268e-19)
(4.78316 -5.83448 1.31615e-19)
(4.69207 -5.68995 1.68742e-19)
(4.60078 -5.54822 3.36332e-21)
(4.51012 -5.40996 7.43101e-20)
(4.42077 -5.27572 -1.61563e-19)
(4.33329 -5.14588 3.37023e-20)
(4.24807 -5.02068 1.10002e-19)
(4.16544 -4.90029 -4.63839e-20)
(4.08562 -4.78482 7.5472e-20)
(4.00879 -4.67432 -1.48569e-19)
(3.93509 -4.56884 2.13136e-19)
(3.86465 -4.46842 4.93353e-20)
(3.79755 -4.37314 -1.34372e-19)
(3.73389 -4.28301 -1.15818e-19)
(3.67423 -4.19759 1.44733e-22)
(3.6194 -4.11584 1.5833e-19)
(3.5645 -4.04039 -3.4131e-20)
(6.1624 -7.59643 -6.79361e-20)
(5.88261 -7.45335 -4.41783e-19)
(5.77377 -7.27544 5.23082e-19)
(5.70488 -7.11992 3.51065e-19)
(5.64272 -6.98516 3.47744e-19)
(5.58425 -6.8556 9.55136e-20)
(5.52411 -6.72501 1.43037e-19)
(5.45857 -6.59116 7.15748e-20)
(5.38634 -6.45331 -2.85509e-19)
(5.30745 -6.31176 5.17425e-19)
(5.22266 -6.1675 -4.12796e-19)
(5.13309 -6.02174 -2.7479e-20)
(5.04003 -5.87579 5.90451e-20)
(4.94477 -5.73082 -2.60719e-19)
(4.84847 -5.58789 4.09025e-19)
(4.75217 -5.44787 7.71158e-20)
(4.65673 -5.31142 -1.72161e-19)
(4.56282 -5.17906 6.57684e-20)
(4.47101 -5.05113 -1.2687e-19)
(4.38168 -4.92789 -1.11696e-19)
(4.29514 -4.80947 -1.18561e-19)
(4.2116 -4.69595 2.69217e-20)
(4.13123 -4.58739 1.49229e-20)
(4.05414 -4.48382 -2.87005e-19)
(3.98047 -4.38528 -1.08649e-19)
(3.9103 -4.29189 6.9848e-20)
(3.84373 -4.20372 8.63155e-20)
(3.7814 -4.12042 -1.19007e-19)
(3.7243 -4.04104 -4.53017e-20)
(3.66751 -3.96861 3.54766e-21)
(6.36394 -7.43808 -5.83741e-20)
(6.08779 -7.31106 2.8613e-19)
(5.97927 -7.14188 -8.10543e-20)
(5.90927 -6.99206 -9.85372e-20)
(5.84506 -6.86137 -5.3731e-19)
(5.78358 -6.73467 -1.17518e-19)
(5.7196 -6.60614 2.19378e-19)
(5.64956 -6.47387 -1.44914e-19)
(5.57234 -6.33737 -1.56632e-20)
(5.48813 -6.1971 -2.88434e-20)
(5.39784 -6.05415 1.5635e-19)
(5.30274 -5.90979 -2.43951e-19)
(5.2042 -5.76536 -1.61789e-19)
(5.10359 -5.62204 1.8865e-19)
(5.00212 -5.48089 -1.06746e-19)
(4.90085 -5.34274 5.04052e-20)
(4.80066 -5.20825 1.03448e-20)
(4.70226 -5.07791 -4.31448e-20)
(4.60616 -4.95204 1.58076e-19)
(4.51277 -4.83087 -1.43857e-19)
(4.42237 -4.71452 -1.15416e-19)
(4.33516 -4.60305 1.00662e-19)
(4.25127 -4.49651 -1.13646e-20)
(4.17082 -4.39491 -7.41412e-20)
(4.09392 -4.29831 6.53787e-20)
(4.02064 -4.20683 -2.02206e-19)
(3.95111 -4.12062 1.23184e-19)
(3.88601 -4.03942 -2.00402e-21)
(3.82649 -3.96237 -1.2755e-19)
(3.76782 -3.89285 1.71528e-19)
(6.56216 -7.27449 2.34812e-19)
(6.29003 -7.16315 -5.56987e-19)
(6.18186 -7.00233 -4.66199e-20)
(6.11075 -6.85802 2.54838e-19)
(6.0445 -6.73136 -6.4318e-20)
(5.98001 -6.60753 -1.82878e-19)
(5.91217 -6.48111 8.30709e-20)
(5.8376 -6.35054 9.60796e-20)
(5.75535 -6.21552 7.62097e-21)
(5.6658 -6.07669 1.16213e-19)
(5.57002 -5.93521 3.69625e-19)
(5.46939 -5.79244 -1.28943e-19)
(5.36539 -5.64971 3.24567e-20)
(5.25945 -5.50823 -8.5644e-20)
(5.15285 -5.36902 3.24629e-19)
(5.04667 -5.23291 -5.84352e-20)
(4.94181 -5.10054 8.62026e-20)
(4.83896 -4.97236 -1.44838e-19)
(4.73865 -4.84868 7.84365e-20)
(4.64126 -4.72969 1.18241e-19)
(4.54706 -4.6155 2.00837e-20)
(4.45622 -4.50617 7.86326e-20)
(4.36886 -4.40171 -6.46262e-20)
(4.28507 -4.30213 1.79361e-19)
(4.20493 -4.2075 -7.2986e-20)
(4.12853 -4.11795 2.66183e-19)
(4.05597 -4.03371 -7.67675e-20)
(3.988 -3.95453 5.26863e-20)
(3.92599 -3.87964 -9.93632e-20)
(3.86559 -3.81316 1.65908e-19)
(6.75781 -7.10595 -5.1511e-19)
(6.48952 -7.0095 1.8476e-20)
(6.38134 -6.85664 -2.82434e-19)
(6.30909 -6.71776 5.02714e-20)
(6.24081 -6.59512 1.45568e-20)
(6.17332 -6.47421 -2.40621e-19)
(6.1016 -6.35 -4.50086e-19)
(6.02247 -6.22123 2.22058e-19)
(5.93518 -6.08784 -3.12726e-19)
(5.84028 -5.9506 -1.63205e-19)
(5.739 -5.81079 -9.22072e-20)
(5.63285 -5.66978 -7.18987e-20)
(5.52342 -5.52894 1.20514e-21)
(5.41221 -5.38947 -2.56959e-19)
(5.30053 -5.25238 1.65721e-19)
(5.18951 -5.11848 -2.72616e-19)
(5.08004 -4.98837 -6.89573e-20)
(4.97282 -4.86248 7.78602e-20)
(4.86838 -4.74111 -3.11193e-20)
(4.76707 -4.62441 9.12214e-20)
(4.66914 -4.51247 6.98376e-20)
(4.57473 -4.40533 -1.74491e-19)
(4.48394 -4.30299 1.7455e-19)
(4.39683 -4.20546 -1.87536e-20)
(4.31344 -4.1128 -4.64371e-20)
(4.23382 -4.02518 -1.83632e-19)
(4.15809 -3.94279 -9.71087e-20)
(4.08701 -3.86537 1.79138e-19)
(4.02196 -3.79255 -5.90302e-20)
(3.95925 -3.73047 -5.3941e-20)
(6.95125 -6.93164 2.2419e-19)
(6.68606 -6.84925 1.98905e-20)
(6.57741 -6.7045 -5.43722e-20)
(6.50397 -6.57127 -1.19917e-20)
(6.43375 -6.45277 -9.6375e-20)
(6.3633 -6.33487 3.25632e-19)
(6.28771 -6.21296 -1.51442e-19)
(6.20401 -6.08611 9.8836e-20)
(6.11166 -5.95448 4.04122e-20)
(6.01141 -5.81901 1.43508e-19)
(5.90464 -5.68102 -5.45886e-20)
(5.793 -5.54196 3.07857e-19)
(5.67818 -5.40319 -2.61363e-20)
(5.56174 -5.26592 1.95821e-19)
(5.44505 -5.13112 -3.2713e-19)
(5.32925 -4.99958 -2.4177e-20)
(5.21526 -4.87188 2.08241e-19)
(5.10377 -4.74842 -1.29002e-19)
(4.99528 -4.62947 5.29349e-20)
(4.89015 -4.51515 9.00411e-20)
(4.78859 -4.40554 -1.31054e-19)
(4.69072 -4.30064 1.43632e-19)
(4.59658 -4.20043 -1.34199e-19)
(4.50621 -4.10491 2.90425e-20)
(4.41957 -4.01414 1.07602e-19)
(4.33665 -3.92824 7.43041e-20)
(4.25756 -3.84731 6.95179e-20)
(4.18274 -3.77106 5.13482e-20)
(4.11255 -3.70046 -1.38323e-19)
(4.04439 -3.64376 -5.26823e-20)
(10.0092 0.0129371 2.92532e-21)
(9.99855 -0.250697 2.88011e-20)
(9.98157 -0.512689 1.00091e-19)
(9.95852 -0.773449 5.47391e-20)
(9.92896 -1.03309 -1.16158e-19)
(9.89267 -1.29157 3.51422e-20)
(9.84962 -1.54877 -3.6817e-20)
(9.79984 -1.80455 -9.31829e-20)
(9.74336 -2.05876 4.89297e-20)
(9.68023 -2.31122 -5.69716e-20)
(9.61049 -2.56178 -5.72415e-20)
(9.53421 -2.81025 -1.22007e-19)
(9.45145 -3.05648 -3.51707e-19)
(9.3623 -3.30028 3.22139e-20)
(9.26681 -3.54149 -1.54374e-20)
(9.16507 -3.77996 -1.11552e-19)
(9.05717 -4.01552 2.37855e-19)
(8.9432 -4.24802 1.29902e-19)
(8.82324 -4.47729 2.49402e-19)
(8.6974 -4.70318 1.22455e-19)
(8.56577 -4.92556 -2.75236e-19)
(8.42846 -5.14428 1.08216e-20)
(8.28557 -5.35918 -5.25163e-19)
(8.13721 -5.57016 7.98257e-19)
(7.98352 -5.77706 -2.62556e-19)
(7.82461 -5.9798 -3.42081e-19)
(7.66061 -6.17827 -5.05406e-20)
(7.49169 -6.37244 -5.5836e-21)
(7.31796 -6.56237 -2.64172e-19)
(7.14005 -6.74818 4.65869e-19)
(10.0212 -0.124297 1.09127e-20)
(10.002 -0.387214 1.60441e-20)
(9.97561 -0.648418 3.92593e-21)
(9.94237 -0.908082 -1.40578e-19)
(9.90231 -1.16624 -1.26286e-19)
(9.85541 -1.42277 1.11695e-19)
(9.80168 -1.67755 1.38197e-19)