/*--------------------------------*- C++ -*----------------------------------*\
  =========                 |
  \\      /  F ield         | OpenFOAM: The Open Source CFD Toolbox
   \\    /   O peration     | Website:  https://openfoam.org
    \\  /    A nd           | Version:  6.0
     \\/     M anipulation  |
\*---------------------------------------------------------------------------*/
FoamFile
{
    version     2.0;
    format      ascii;
    class       volScalarField;
    location    "13.25";
    object      p;
}
// * * * * * * * * * * * * * * * * * * * * * * * * * * * * * * * * * * * * * //

dimensions      [0 2 -2 0 0 0 0];

internalField   nonuniform List<scalar> 
19200
(
-7.06846
-6.20379
-5.61169
-5.15231
-4.74794
-4.39266
-4.07883
-3.7979
-3.54383
-3.3123
-3.09998
-2.90425
-2.72308
-2.55482
-2.39811
-2.25184
-2.11507
-1.98699
-1.86691
-1.7542
-1.64834
-1.54884
-1.45528
-1.36725
-1.28441
-1.20646
-1.13309
-1.06406
-0.999105
-0.938151
-7.24692
-6.38158
-5.78724
-5.32441
-4.91592
-4.55612
-4.23753
-3.95171
-3.69274
-3.45633
-3.23921
-3.03882
-2.85312
-2.68048
-2.51958
-2.36929
-2.22867
-2.09693
-1.97336
-1.85734
-1.74833
-1.64585
-1.54945
-1.45874
-1.37336
-1.293
-1.21736
-1.14616
-1.07908
-1.01639
-7.43008
-6.56257
-5.96541
-5.49893
-5.08617
-4.7217
-4.39821
-4.10738
-3.84337
-3.60197
-3.37995
-3.17477
-2.98444
-2.80734
-2.64214
-2.48775
-2.34321
-2.20773
-2.08061
-1.96121
-1.84901
-1.74349
-1.64421
-1.55078
-1.46282
-1.38002
-1.30208
-1.22866
-1.15943
-1.09498
-7.61629
-6.74629
-6.14604
-5.67572
-5.25853
-4.88924
-4.56071
-4.26474
-3.99556
-3.74905
-3.52201
-3.31194
-3.11688
-2.93522
-2.76564
-2.60706
-2.45853
-2.31925
-2.1885
-2.06568
-1.95022
-1.84162
-1.73942
-1.64322
-1.55265
-1.46738
-1.3871
-1.31144
-1.24003
-1.17381
-7.80512
-6.9325
-6.32893
-5.85459
-5.4328
-5.05855
-4.72485
-4.4236
-4.14914
-3.89739
-3.66522
-3.45016
-3.25027
-3.06395
-2.88991
-2.72706
-2.57446
-2.43131
-2.29689
-2.17058
-2.05182
-1.94009
-1.83494
-1.73594
-1.64272
-1.55494
-1.47229
-1.39436
-1.32075
-1.25276
-7.99626
-7.12092
-6.51388
-6.03536
-5.60883
-5.22947
-4.89046
-4.58381
-4.30393
-4.04683
-3.80942
-3.58926
-3.38443
-3.19337
-3.01478
-2.84759
-2.69085
-2.54377
-2.40562
-2.27578
-2.15367
-2.03877
-1.93062
-1.8288
-1.7329
-1.64259
-1.55755
-1.47732
-1.40147
-1.33171
-8.18944
-7.31132
-6.70068
-6.21784
-5.78642
-5.40182
-5.05736
-4.74517
-4.45976
-4.19719
-3.95442
-3.72905
-3.5192
-3.3233
-3.14009
-2.96848
-2.80754
-2.65646
-2.51453
-2.3811
-2.25561
-2.13751
-2.02634
-1.92165
-1.82305
-1.73018
-1.64273
-1.56019
-1.48209
-1.41055
-8.38441
-7.50346
-6.88911
-6.40182
-5.96537
-5.5754
-5.22536
-4.90751
-4.61644
-4.34828
-4.10004
-3.86937
-3.65439
-3.45358
-3.26566
-3.08956
-2.92436
-2.76923
-2.62347
-2.48642
-2.3575
-2.23617
-2.12194
-2.01437
-1.91305
-1.81761
-1.72773
-1.64285
-1.56249
-1.48917
-8.58095
-7.69712
-7.07896
-6.58709
-6.1455
-5.75002
-5.39427
-5.07063
-4.77378
-4.49992
-4.24611
-4.01003
-3.78984
-3.58402
-3.39132
-3.21067
-3.04114
-2.88192
-2.73228
-2.59157
-2.45919
-2.3346
-2.2173
-2.10683
-2.00277
-1.90475
-1.81242
-1.72519
-1.64256
-1.56748
-8.77881
-7.89207
-7.27001
-6.77346
-6.3266
-5.92547
-5.56389
-5.23434
-4.93159
-4.65192
-4.39243
-4.15085
-3.92536
-3.71446
-3.51691
-3.33164
-3.15773
-2.99437
-2.84081
-2.69641
-2.56054
-2.43267
-2.31228
-2.19889
-2.09208
-1.99147
-1.89669
-1.80711
-1.7222
-1.64536
-8.97779
-8.08808
-7.46205
-6.9607
-6.50845
-6.10157
-5.73402
-5.39844
-5.08968
-4.80409
-4.53882
-4.29164
-4.06076
-3.84471
-3.64224
-3.4523
-3.27396
-3.10641
-2.94891
-2.80078
-2.66141
-2.53024
-2.40675
-2.29044
-2.18087
-2.07766
-1.98043
-1.8885
-1.8013
-1.72273
-9.17764
-8.28495
-7.65485
-7.14861
-6.69085
-6.27809
-5.90447
-5.56273
-5.24785
-4.95623
-4.68508
-4.43222
-4.19588
-3.97459
-3.76714
-3.57248
-3.38967
-3.2179
-3.05641
-2.90454
-2.76166
-2.62718
-2.50057
-2.38133
-2.26901
-2.16321
-2.06353
-1.96925
-1.87977
-1.79948
-9.37815
-8.48244
-7.84821
-7.33697
-6.87359
-6.45484
-6.07502
-5.72702
-5.4059
-5.10815
-4.83104
-4.57241
-4.33052
-4.10394
-3.89146
-3.69202
-3.5047
-3.32867
-3.16318
-3.00755
-2.86113
-2.72333
-2.59361
-2.47145
-2.35638
-2.24799
-2.14588
-2.04925
-1.9575
-1.87553
-9.57909
-8.68033
-8.04189
-7.52556
-7.05646
-6.6316
-6.24547
-5.8911
-5.56364
-5.25966
-4.97649
-4.71201
-4.46451
-4.23258
-4.015
-3.81075
-3.61888
-3.43857
-3.26906
-3.10965
-2.9597
-2.81858
-2.68575
-2.56067
-2.44286
-2.3319
-2.22737
-2.12841
-2.03441
-1.95078
-9.78024
-8.87841
-8.2357
-7.71418
-7.23925
-6.80817
-6.41562
-6.05476
-5.72087
-5.41056
-5.12125
-4.85084
-4.59767
-4.36032
-4.13761
-3.9285
-3.73206
-3.54745
-3.37391
-3.21071
-3.05721
-2.91279
-2.77685
-2.64887
-2.52834
-2.41482
-2.30789
-2.20662
-2.11038
-2.02513
-9.98137
-9.07645
-8.4294
-7.9026
-7.42174
-6.98433
-6.58526
-6.21782
-5.87738
-5.56067
-5.26513
-4.98873
-4.72982
-4.48701
-4.25913
-4.04513
-3.84409
-3.65516
-3.47756
-3.31059
-3.15354
-3.00581
-2.86679
-2.73591
-2.61267
-2.49663
-2.38732
-2.28377
-2.1853
-2.09849
-10.1823
-9.27425
-8.62279
-8.09062
-7.60373
-7.15989
-6.75419
-6.38006
-6.033
-5.70979
-5.40796
-5.1255
-4.86079
-4.61247
-4.37938
-4.16046
-3.9548
-3.76154
-3.57989
-3.40913
-3.24855
-3.09752
-2.95542
-2.82167
-2.69575
-2.5772
-2.46554
-2.35974
-2.25908
-2.17074
-10.3827
-9.47159
-8.81565
-8.27803
-7.785
-7.33463
-6.9222
-6.5413
-6.18752
-5.85774
-5.54954
-5.26096
-4.99041
-4.73655
-4.49821
-4.27435
-4.06406
-3.86645
-3.68075
-3.5062
-3.34209
-3.18777
-3.04261
-2.90601
-2.77743
-2.6564
-2.54243
-2.4344
-2.33158
-2.24177
-10.5826
-9.66826
-9.00779
-8.46462
-7.96536
-7.50836
-7.0891
-6.70133
-6.34075
-6.00433
-5.6897
-5.39495
-5.11852
-4.85907
-4.61546
-4.38665
-4.17171
-3.96976
-3.78
-3.60166
-3.43404
-3.27644
-3.12824
-2.9888
-2.85759
-2.7341
-2.61784
-2.50761
-2.40266
-2.31142
-10.7815
-9.86407
-9.19899
-8.65018
-8.1446
-7.68087
-7.25469
-6.85997
-6.49251
-6.14938
-5.82827
-5.5273
-5.24495
-4.9799
-4.731
-4.49722
-4.27762
-4.07133
-3.87751
-3.6954
-3.52426
-3.36339
-3.21215
-3.0699
-2.93606
-2.81015
-2.69162
-2.57923
-2.47216
-2.37955
-10.9795
-10.0588
-9.38906
-8.83452
-8.32251
-7.85195
-7.41877
-7.01702
-6.64262
-6.29272
-5.96508
-5.65786
-5.36956
-5.09888
-4.84468
-4.60593
-4.38167
-4.17103
-3.97315
-3.78727
-3.61262
-3.4485
-3.29423
-3.14917
-3.01272
-2.88438
-2.76361
-2.64908
-2.5399
-2.44594
-11.1763
-10.2524
-9.57781
-9.01744
-8.49889
-8.02142
-7.58115
-7.17229
-6.7909
-6.43418
-6.09996
-5.78646
-5.4922
-5.21588
-4.95637
-4.71265
-4.48374
-4.26875
-4.06683
-3.87717
-3.69902
-3.53164
-3.37434
-3.22647
-3.0874
-2.95664
-2.83363
-2.71695
-2.60566
-2.51037
-11.3718
-10.4445
-9.76505
-9.19872
-8.67355
-8.18907
-7.74164
-7.32561
-6.93716
-6.57359
-6.23278
-5.91298
-5.61273
-5.33077
-5.06597
-4.81727
-4.58372
-4.36439
-4.15843
-3.96501
-3.78335
-3.61271
-3.45237
-3.30167
-3.15997
-3.02677
-2.90149
-2.78264
-2.66919
-2.57254
-11.5659
-10.635
-9.95059
-9.37818
-8.84627
-8.3547
-7.90003
-7.47679
-7.08124
-6.71079
-6.36336
-6.03726
-5.73104
-5.44345
-5.17335
-4.9197
-4.68152
-4.45787
-4.24788
-4.05071
-3.86554
-3.69163
-3.52823
-3.37467
-3.2303
-3.0946
-2.967
-2.84591
-2.73019
-2.63213
-11.7585
-10.8239
-10.1342
-9.5556
-9.01684
-8.5181
-8.05615
-7.62564
-7.22298
-6.84563
-6.49158
-6.15918
-5.847
-5.55379
-5.27843
-5.01986
-4.77708
-4.54914
-4.33514
-4.13422
-3.94555
-3.76835
-3.60187
-3.44541
-3.2983
-3.16002
-3.02998
-2.90653
-2.78837
-2.68873
-11.9497
-11.0108
-10.3157
-9.73074
-9.18504
-8.67907
-8.20979
-7.772
-7.3622
-6.97796
-6.6173
-6.27862
-5.9605
-5.66172
-5.38114
-5.11768
-4.87034
-4.63814
-4.42017
-4.21553
-4.02337
-3.84289
-3.6733
-3.51388
-3.36395
-3.22296
-3.09034
-2.96432
-2.84342
-2.7418
-12.1396
-11.1956
-10.4948
-9.90335
-9.35064
-8.83739
-8.36076
-7.91567
-7.49875
-7.10763
-6.74039
-6.39546
-6.07146
-5.76715
-5.4814
-5.21311
-4.96127
-4.72488
-4.50298
-4.29467
-4.09905
-3.9153
-3.7426
-3.58019
-3.42736
-3.28355
-3.14818
-3.01937
-2.89523
-2.79078
-12.3292
-11.3784
-10.6712
-10.0731
-9.51331
-8.99278
-8.50881
-8.05646
-7.63245
-7.23448
-6.86071
-6.50959
-6.17976
-5.87
-5.57915
-5.30611
-5.04985
-4.80934
-4.5836
-4.37168
-4.17267
-3.9857
-3.80991
-3.6445
-3.48871
-3.34194
-3.20361
-3.07158
-2.94331
-2.83529
-12.5199
-11.559
-10.8442
-10.2395
-9.67271
-9.14498
-8.65374
-8.19418
-7.76313
-7.35837
-6.97813
-6.62089
-6.28531
-5.97017
-5.67431
-5.39663
-5.13604
-4.89152
-4.66204
-4.44664
-4.24436
-4.05428
-3.87552
-3.70718
-3.54844
-3.39858
-3.25677
-3.12032
-2.98631
-2.87457
-12.704
-11.7341
-11.0129
-10.4021
-9.82872
-9.29399
-8.79557
-8.32886
-7.89082
-7.47933
-7.09269
-6.7294
-6.38815
-6.06772
-5.76695
-5.48471
-5.21992
-4.9715
-4.73842
-4.51968
-4.31431
-4.12135
-3.93989
-3.76901
-3.60783
-3.45546
-3.31055
-3.17017
-3.03256
-2.91587
-15.7671
-15.7478
-15.7192
-15.686
-15.6477
-15.6033
-15.5529
-15.4963
-15.4335
-15.3646
-15.2895
-15.2084
-15.1213
-15.0283
-14.9295
-14.8251
-14.7151
-14.5996
-14.4789
-14.353
-14.2222
-14.0865
-13.9462
-13.8013
-13.6523
-13.4992
-13.3423
-13.1822
-13.0193
-12.8565
-14.7324
-14.7179
-14.695
-14.6657
-14.6302
-14.5883
-14.5401
-14.4856
-14.425
-14.3582
-14.2853
-14.2064
-14.1216
-14.0309
-13.9346
-13.8326
-13.7251
-13.6123
-13.4942
-13.371
-13.2429
-13.11
-12.9725
-12.8306
-12.6844
-12.5342
-12.3802
-12.2227
-12.0621
-11.8988
-13.8921
-13.8814
-13.8631
-13.8378
-13.8061
-13.7678
-13.7233
-13.6725
-13.6156
-13.5525
-13.4835
-13.4085
-13.3277
-13.2411
-13.1488
-13.051
-12.9478
-12.8393
-12.7256
-12.6069
-12.4832
-12.3549
-12.2219
-12.0845
-11.9429
-11.7971
-11.6475
-11.4942
-11.3374
-11.177
-13.131
-13.1237
-13.1094
-13.0884
-13.0608
-13.0269
-12.9868
-12.9405
-12.8881
-12.8297
-12.7654
-12.6953
-12.6194
-12.5379
-12.4508
-12.3582
-12.2603
-12.1572
-12.049
-11.9358
-11.8177
-11.6949
-11.5676
-11.4359
-11.2999
-11.1598
-11.0157
-10.8679
-10.7163
-10.5611
-12.3926
-12.3886
-12.3782
-12.3613
-12.338
-12.3086
-12.2731
-12.2316
-12.1841
-12.1307
-12.0716
-12.0067
-11.9363
-11.8602
-11.7788
-11.692
-11.5999
-11.5027
-11.4005
-11.2934
-11.1815
-11.065
-10.944
-10.8186
-10.6889
-10.5551
-10.4174
-10.2758
-10.1305
-9.98151
-11.6883
-11.6875
-11.6807
-11.6677
-11.6485
-11.6234
-11.5924
-11.5556
-11.5129
-11.4646
-11.4106
-11.3511
-11.2861
-11.2157
-11.14
-11.0591
-10.9731
-10.882
-10.7861
-10.6853
-10.5799
-10.4699
-10.3554
-10.2366
-10.1137
-9.98661
-9.8556
-9.72074
-9.58214
-9.43991
-11.0231
-11.0252
-11.0216
-11.012
-10.9966
-10.9755
-10.9487
-10.9162
-10.8782
-10.8346
-10.7856
-10.7313
-10.6716
-10.6067
-10.5366
-10.4615
-10.3814
-10.2965
-10.2067
-10.1123
-10.0133
-9.90978
-9.80194
-9.68985
-9.57363
-9.45339
-9.32924
-9.20129
-9.06964
-8.9344
-10.3973
-10.4019
-10.4009
-10.3944
-10.3823
-10.3647
-10.3416
-10.3131
-10.2793
-10.2402
-10.1958
-10.1462
-10.0915
-10.0318
-9.96712
-9.89753
-9.82312
-9.74399
-9.66021
-9.57188
-9.47911
-9.38198
-9.2806
-9.17507
-9.0655
-8.95199
-8.83464
-8.71356
-8.58884
-8.4606
-9.81087
-9.81737
-9.81869
-9.81468
-9.80536
-9.79078
-9.77099
-9.74603
-9.71593
-9.68075
-9.64054
-9.59536
-9.54526
-9.4903
-9.43056
-9.36611
-9.29701
-9.22335
-9.14521
-9.06267
-8.97582
-8.88474
-8.78954
-8.69031
-8.58714
-8.48013
-8.36938
-8.25497
-8.13702
-8.01563
-9.26327
-9.2713
-9.2744
-9.27243
-9.26541
-9.25339
-9.23638
-9.21444
-9.1876
-9.15589
-9.11938
-9.0781
-9.03211
-8.98147
-8.92623
-8.86647
-8.80225
-8.73364
-8.66072
-8.58355
-8.50223
-8.41684
-8.32745
-8.23416
-8.13706
-8.03623
-7.93176
-7.82375
-7.71228
-7.59747
-8.75342
-8.76256
-8.76701
-8.76664
-8.76147
-8.75153
-8.73685
-8.71746
-8.69339
-8.66469
-8.63139
-8.59354
-8.55119
-8.50438
-8.45319
-8.39765
-8.33785
-8.27383
-8.20568
-8.13346
-8.05723
-7.97709
-7.89311
-7.80536
-7.71393
-7.6189
-7.52035
-7.41837
-7.31305
-7.20448
-8.27972
-8.2896
-8.29502
-8.29585
-8.29212
-8.28385
-8.27106
-8.25379
-8.23206
-8.20591
-8.17538
-8.1405
-8.10133
-8.05791
-8.01029
-7.95852
-7.90267
-7.8428
-7.77896
-7.71122
-7.63965
-7.56432
-7.4853
-7.40266
-7.31648
-7.22684
-7.13381
-7.03748
-6.93792
-6.83522
-7.84026
-7.85057
-7.85663
-7.85833
-7.85568
-7.84871
-7.83744
-7.82189
-7.8021
-7.7781
-7.74992
-7.7176
-7.68118
-7.6407
-7.59622
-7.54779
-7.49546
-7.43928
-7.37931
-7.31562
-7.24826
-7.17731
-7.10282
-7.02486
-6.94351
-6.85884
-6.77091
-6.67981
-6.58561
-6.48839
-7.43293
-7.44342
-7.44985
-7.45212
-7.45025
-7.44427
-7.43419
-7.42003
-7.40183
-7.37962
-7.35342
-7.32327
-7.28922
-7.2513
-7.20957
-7.16406
-7.11484
-7.06194
-7.00543
-6.94537
-6.8818
-6.8148
-6.74441
-6.67072
-6.59378
-6.51366
-6.43043
-6.34415
-6.2549
-6.16277
-7.05553
-7.06599
-7.07258
-7.07519
-7.07385
-7.06859
-7.05942
-7.04637
-7.02946
-7.00872
-6.98418
-6.95587
-6.92385
-6.88814
-6.84879
-6.80585
-6.75935
-6.70937
-6.65593
-6.5991
-6.53894
-6.47549
-6.40882
-6.33899
-6.26606
-6.1901
-6.11116
-6.02931
-5.94463
-5.85719
-6.70585
-6.71612
-6.72268
-6.72545
-6.72444
-6.71969
-6.71121
-6.69901
-6.68314
-6.66361
-6.64045
-6.61371
-6.58341
-6.5496
-6.51232
-6.47161
-6.42753
-6.3801
-6.3294
-6.27545
-6.21833
-6.15808
-6.09476
-6.02842
-5.95913
-5.88694
-5.81191
-5.73412
-5.65363
-5.5705
-6.3817
-6.39166
-6.39807
-6.40085
-6.40001
-6.3956
-6.38761
-6.37608
-6.36103
-6.34249
-6.32049
-6.29506
-6.26624
-6.23406
-6.19858
-6.15982
-6.11785
-6.07269
-6.0244
-5.97303
-5.91862
-5.86124
-5.80093
-5.73774
-5.67174
-5.60298
-5.53152
-5.45743
-5.38076
-5.30161
-6.081
-6.09057
-6.09673
-6.09941
-6.09862
-6.09441
-6.08678
-6.07575
-6.06136
-6.04362
-6.02258
-5.99825
-5.97069
-5.93993
-5.906
-5.86895
-5.82883
-5.78567
-5.73953
-5.69045
-5.63848
-5.58367
-5.52606
-5.46572
-5.4027
-5.33704
-5.26882
-5.1981
-5.12494
-5.04942
-5.80178
-5.8109
-5.81674
-5.81924
-5.81841
-5.8143
-5.8069
-5.79626
-5.78238
-5.7653
-5.74505
-5.72167
-5.69519
-5.66564
-5.63307
-5.59752
-5.55903
-5.51765
-5.47341
-5.42637
-5.37658
-5.32408
-5.26891
-5.21114
-5.15081
-5.08797
-5.02269
-4.95504
-4.88506
-4.81287
-5.5422
-5.55084
-5.55631
-5.55857
-5.55764
-5.55355
-5.5463
-5.53594
-5.52247
-5.50593
-5.48635
-5.46377
-5.43821
-5.40972
-5.37834
-5.3441
-5.30706
-5.26725
-5.22472
-5.17951
-5.13167
-5.08124
-5.02828
-4.97282
-4.91493
-4.85465
-4.79204
-4.72717
-4.6601
-4.59095
-5.30057
-5.3087
-5.31379
-5.31578
-5.31469
-5.31056
-5.3034
-5.29324
-5.28009
-5.264
-5.24498
-5.22308
-5.19833
-5.17076
-5.14042
-5.10735
-5.07159
-5.03318
-4.99217
-4.9486
-4.90252
-4.85397
-4.803
-4.74965
-4.69396
-4.636
-4.57581
-4.51347
-4.44904
-4.38266
-5.07532
-5.08295
-5.08763
-5.08933
-5.08806
-5.08386
-5.07673
-5.06672
-5.05383
-5.0381
-5.01956
-4.99825
-4.97419
-4.94744
-4.91802
-4.88599
-4.85137
-4.81422
-4.77458
-4.73249
-4.688
-4.64114
-4.59197
-4.54053
-4.48686
-4.43101
-4.37302
-4.31297
-4.25093
-4.18706
-4.86504
-4.87218
-4.87646
-4.87785
-4.87638
-4.87208
-4.86496
-4.85504
-4.84236
-4.82694
-4.80881
-4.78801
-4.76457
-4.73853
-4.70994
-4.67883
-4.64524
-4.60922
-4.57081
-4.53006
-4.48701
-4.4417
-4.39417
-4.34447
-4.29263
-4.23869
-4.1827
-4.12473
-4.06483
-4.00324
-4.66846
-4.67511
-4.67899
-4.68008
-4.6784
-4.67398
-4.66684
-4.657
-4.64448
-4.62932
-4.61155
-4.5912
-4.56831
-4.54291
-4.51505
-4.48477
-4.45211
-4.41712
-4.37983
-4.34029
-4.29855
-4.25464
-4.20861
-4.1605
-4.11034
-4.05816
-4.00399
-3.9479
-3.88991
-3.83035
-4.48439
-4.49058
-4.49407
-4.49487
-4.49298
-4.48844
-4.48126
-4.47147
-4.45909
-4.44415
-4.42669
-4.40674
-4.38434
-4.35952
-4.33233
-4.3028
-4.27098
-4.23691
-4.20064
-4.16221
-4.12167
-4.07905
-4.0344
-3.98775
-3.93913
-3.88856
-3.83606
-3.78167
-3.72537
-3.66764
-4.31181
-4.31754
-4.32067
-4.32117
-4.31907
-4.31439
-4.30716
-4.2974
-4.28513
-4.27038
-4.2532
-4.2336
-4.21163
-4.18733
-4.16073
-4.13188
-4.10082
-4.0676
-4.03225
-3.99483
-3.95538
-3.91394
-3.87055
-3.82524
-3.77805
-3.72897
-3.67801
-3.62518
-3.57033
-3.5143
-4.14979
-4.15508
-4.15783
-4.15804
-4.15573
-4.15091
-4.14361
-4.13385
-4.12166
-4.10707
-4.09011
-4.07082
-4.04923
-4.02537
-3.9993
-3.97105
-3.94067
-3.90819
-3.87367
-3.83715
-3.79868
-3.7583
-3.71605
-3.67196
-3.62606
-3.57834
-3.52879
-3.47735
-3.42369
-3.3693
-3.99745
-4.00239
-4.00487
-4.00486
-4.00239
-3.99749
-3.99017
-3.98046
-3.96838
-3.95397
-3.93725
-3.91826
-3.89704
-3.87362
-3.84805
-3.82037
-3.79062
-3.75885
-3.7251
-3.68942
-3.65185
-3.61245
-3.57125
-3.52829
-3.4836
-3.43718
-3.38895
-3.33882
-3.28604
-3.23296
-3.85396
-3.85873
-3.86109
-3.86104
-3.85859
-3.85377
-3.8466
-3.83711
-3.82531
-3.81124
-3.79493
-3.77642
-3.75574
-3.73294
-3.70804
-3.68111
-3.65217
-3.62128
-3.58848
-3.55382
-3.51736
-3.47913
-3.43919
-3.39759
-3.35434
-3.30946
-3.26288
-3.21442
-3.16287
-3.11134
-3.7186
-3.72259
-3.72426
-3.72362
-3.72068
-3.71547
-3.708
-3.69831
-3.68641
-3.67235
-3.65614
-3.63783
-3.61745
-3.59505
-3.57065
-3.54431
-3.51607
-3.48597
-3.45407
-3.4204
-3.38503
-3.348
-3.30938
-3.2692
-3.22752
-3.18439
-3.13978
-3.09351
-3.04437
-2.99943
-13.2487
-13.4036
-13.5502
-13.6967
-13.8416
-13.9833
-14.1212
-14.2551
-14.3844
-14.5091
-14.6287
-14.7431
-14.8521
-14.9554
-15.053
-15.1447
-15.2303
-15.3098
-15.383
-15.4498
-15.5102
-15.564
-15.6113
-15.652
-15.6861
-15.7135
-15.7345
-15.749
-15.7575
-15.7614
-12.2147
-12.3738
-12.5261
-12.675
-12.8205
-12.962
-13.0993
-13.2323
-13.3608
-13.4845
-13.6033
-13.7169
-13.8251
-13.9278
-14.0249
-14.1162
-14.2015
-14.2807
-14.3538
-14.4207
-14.4812
-14.5352
-14.5829
-14.624
-14.6586
-14.6867
-14.7083
-14.7235
-14.7323
-14.735
-11.364
-11.5227
-11.6761
-11.8251
-11.9701
-12.1109
-12.2474
-12.3797
-12.5074
-12.6304
-12.7486
-12.8617
-12.9696
-13.0721
-13.1691
-13.2605
-13.3461
-13.4258
-13.4995
-13.5671
-13.6285
-13.6837
-13.7325
-13.775
-13.8111
-13.8408
-13.8641
-13.8809
-13.8913
-13.895
-10.5956
-10.7517
-10.9035
-11.0511
-11.1945
-11.334
-11.4693
-11.6003
-11.7269
-11.8489
-11.9663
-12.0787
-12.1861
-12.2883
-12.3852
-12.4767
-12.5625
-12.6427
-12.7171
-12.7855
-12.848
-12.9045
-12.9548
-12.9989
-13.0368
-13.0685
-13.0938
-13.1128
-13.1254
-13.1315
-9.86043
-10.0131
-10.1621
-10.3072
-10.4484
-10.5857
-10.719
-10.8482
-10.9732
-11.0937
-11.2097
-11.321
-11.4275
-11.529
-11.6254
-11.7165
-11.8023
-11.8827
-11.9574
-12.0265
-12.0898
-12.1473
-12.1989
-12.2446
-12.2842
-12.3178
-12.3452
-12.3665
-12.3815
-12.3902
-9.17244
-9.32106
-9.46652
-9.60839
-9.7466
-9.88112
-10.0118
-10.1386
-10.2613
-10.3798
-10.494
-10.6036
-10.7087
-10.809
-10.9044
-10.9948
-11.0801
-11.1602
-11.2349
-11.3043
-11.3681
-11.4263
-11.4788
-11.5256
-11.5667
-11.6019
-11.6312
-11.6545
-11.6719
-11.6832
-8.53676
-8.68098
-8.82237
-8.96044
-9.09511
-9.22629
-9.35386
-9.47771
-9.59768
-9.71366
-9.8255
-9.93307
-10.0362
-10.1349
-10.2289
-10.3181
-10.4024
-10.4818
-10.5561
-10.6251
-10.689
-10.7475
-10.8005
-10.8481
-10.8902
-10.9266
-10.9575
-10.9826
-11.0019
-11.0155
-7.95262
-8.0922
-8.22918
-8.36309
-8.49381
-8.62126
-8.74532
-8.86583
-8.98269
-9.09574
-9.20486
-9.30993
-9.41081
-9.50738
-9.59952
-9.68712
-9.77008
-9.84828
-9.92164
-9.99007
-10.0535
-10.1118
-10.1649
-10.2129
-10.2555
-10.2928
-10.3247
-10.3511
-10.3721
-10.3875
-7.41815
-7.55296
-7.68534
-7.81487
-7.94141
-8.06488
-8.18514
-8.30206
-8.4155
-8.52534
-8.63144
-8.73369
-8.83195
-8.92611
-9.01606
-9.10169
-9.18289
-9.25957
-9.33164
-9.399
-9.46159
-9.51933
-9.57215
-9.61998
-9.66277
-9.70046
-9.73301
-9.76037
-9.78249
-9.79937
-6.9307
-7.06069
-7.18841
-7.31346
-7.43571
-7.55505
-7.67137
-7.78452
-7.89437
-8.0008
-8.10367
-8.20287
-8.29828
-8.38978
-8.47727
-8.56065
-8.63981
-8.71466
-8.78511
-8.85109
-8.91251
-8.96931
-9.02143
-9.06879
-9.11135
-9.14906
-9.18186
-9.20973
-9.23262
-9.25051
-6.48696
-6.61219
-6.73526
-6.85582
-6.97375
-7.08893
-7.20124
-7.31055
-7.41672
-7.51962
-7.61914
-7.71516
-7.80757
-7.89625
-7.9811
-8.06202
-8.13892
-8.21171
-8.2803
-8.34463
-8.40462
-8.46019
-8.5113
-8.55789
-8.59989
-8.63727
-8.66998
-8.69799
-8.72126
-8.73979
-6.08335
-6.20391
-6.32242
-6.43856
-6.55221
-6.66326
-6.77158
-6.87704
-6.97951
-7.07886
-7.17499
-7.26776
-7.35708
-7.44284
-7.52493
-7.60327
-7.67777
-7.74834
-7.8149
-7.87739
-7.93573
-7.98986
-8.03973
-8.08528
-8.12647
-8.16324
-8.19557
-8.22341
-8.24675
-8.26557
-5.71621
-5.83224
-5.94632
-6.05815
-6.16763
-6.27463
-6.37903
-6.4807
-6.57951
-6.67535
-6.76808
-6.85761
-6.94383
-7.02663
-7.10592
-7.18161
-7.25362
-7.32187
-7.38629
-7.44681
-7.50336
-7.55589
-7.60434
-7.64867
-7.68883
-7.72478
-7.75648
-7.78392
-7.80705
-7.82588
-5.38198
-5.49366
-5.60347
-5.71115
-5.81659
-5.91967
-6.02027
-6.11825
-6.21349
-6.30587
-6.39527
-6.48159
-6.56473
-6.64459
-6.72108
-6.79411
-6.8636
-6.92949
-6.9917
-7.05017
-7.10484
-7.15566
-7.20258
-7.24555
-7.28454
-7.3195
-7.3504
-7.37723
-7.39995
-7.41857
-5.07732
-5.18483
-5.29055
-5.39425
-5.49581
-5.59513
-5.69206
-5.78648
-5.87827
-5.9673
-6.05346
-6.13666
-6.21678
-6.29375
-6.36746
-6.43785
-6.50485
-6.56837
-6.62835
-6.68475
-6.7375
-6.78655
-6.83186
-6.87338
-6.91109
-6.94495
-6.97492
-7.001
-7.02314
-7.04138
-4.79912
-4.90264
-5.00447
-5.10437
-5.20225
-5.29796
-5.3914
-5.48241
-5.57088
-5.65668
-5.73972
-5.81989
-5.89709
-5.97124
-6.04225
-6.11005
-6.17458
-6.23576
-6.29354
-6.34786
-6.39868
-6.44594
-6.48961
-6.52964
-6.56601
-6.59869
-6.62765
-6.65286
-6.67432
-6.69204
-4.54454
-4.64427
-4.7424
-4.8387
-4.93307
-5.02538
-5.11548
-5.20324
-5.28854
-5.37127
-5.4513
-5.52856
-5.60294
-5.67437
-5.74276
-5.80806
-5.87018
-5.92908
-5.98469
-6.03697
-6.08587
-6.13136
-6.17338
-6.21191
-6.24691
-6.27837
-6.30625
-6.33055
-6.35124
-6.36834
-4.31102
-4.40715
-4.50178
-4.59468
-4.68574
-4.77482
-4.86177
-4.94645
-5.02874
-5.10853
-5.1857
-5.26017
-5.33185
-5.40066
-5.46654
-5.5294
-5.58921
-5.64589
-5.6994
-5.74969
-5.79672
-5.84045
-5.88084
-5.91787
-5.95151
-5.98173
-6.00852
-6.03186
-6.05174
-6.06816
-4.09629
-4.18899
-4.28031
-4.37001
-4.45796
-4.544
-4.62798
-4.70975
-4.78919
-4.86618
-4.94062
-5.01244
-5.08154
-5.14785
-5.21131
-5.27185
-5.32942
-5.38396
-5.43544
-5.48381
-5.52902
-5.57105
-5.60985
-5.64541
-5.6777
-5.7067
-5.73239
-5.75476
-5.77379
-5.78951
-3.8983
-3.98774
-4.07595
-4.16266
-4.24769
-4.33088
-4.41206
-4.49108
-4.56782
-4.64216
-4.71402
-4.78331
-4.84995
-4.91387
-4.97502
-5.03334
-5.08877
-5.14128
-5.1908
-5.23732
-5.28078
-5.32116
-5.35843
-5.39256
-5.42354
-5.45134
-5.47594
-5.49734
-5.51553
-5.53052
-3.71524
-3.80158
-3.88687
-3.97079
-4.05311
-4.13363
-4.21219
-4.28862
-4.3628
-4.43464
-4.50404
-4.57093
-4.63523
-4.69689
-4.75584
-4.81204
-4.86544
-4.91599
-4.96365
-5.00839
-5.05018
-5.08898
-5.12477
-5.15753
-5.18723
-5.21387
-5.23741
-5.25787
-5.27522
-5.28949
-3.54548
-3.62887
-3.71148
-3.79282
-3.87262
-3.95066
-4.02675
-4.10074
-4.17252
-4.24198
-4.30906
-4.37366
-4.43575
-4.49525
-4.55211
-4.60629
-4.65775
-4.70644
-4.75233
-4.79539
-4.83558
-4.87287
-4.90725
-4.93869
-4.96717
-4.99268
-5.01521
-5.03475
-5.05128
-5.06484
-3.38754
-3.46815
-3.54834
-3.62733
-3.7048
-3.78053
-3.85432
-3.92601
-3.99551
-4.06273
-4.1276
-4.19004
-4.25002
-4.30747
-4.36236
-4.41463
-4.46424
-4.51117
-4.55538
-4.59683
-4.6355
-4.67136
-4.70439
-4.73457
-4.76189
-4.78633
-4.80788
-4.82653
-4.84229
-4.85515
-3.24008
-3.31809
-3.39616
-3.47305
-3.54839
-3.62198
-3.69361
-3.76314
-3.83049
-3.89558
-3.95836
-4.01876
-4.07673
-4.13225
-4.18525
-4.23571
-4.28359
-4.32884
-4.37145
-4.41138
-4.44861
-4.48312
-4.51487
-4.54387
-4.57008
-4.5935
-4.61412
-4.63193
-4.64693
-4.65913
-3.10182
-3.17753
-3.25389
-3.32893
-3.40234
-3.47395
-3.54356
-3.61105
-3.67636
-3.73943
-3.80022
-3.85867
-3.91476
-3.96843
-4.01966
-4.0684
-4.11462
-4.1583
-4.1994
-4.23789
-4.27376
-4.30698
-4.33753
-4.36539
-4.39056
-4.41301
-4.43275
-4.44976
-4.46404
-4.47561
-2.97161
-3.04567
-3.12088
-3.19431
-3.26596
-3.33573
-3.40341
-3.46895
-3.53231
-3.59346
-3.65235
-3.70895
-3.76323
-3.81515
-3.86468
-3.91178
-3.95644
-3.99861
-4.03827
-4.0754
-4.10997
-4.14196
-4.17136
-4.19815
-4.22232
-4.24386
-4.26275
-4.27899
-4.29259
-4.30355
-2.8475
-2.92142
-2.99632
-3.06835
-3.13837
-3.2064
-3.27225
-3.33592
-3.39741
-3.45671
-3.51379
-3.56862
-3.62117
-3.67143
-3.71934
-3.7649
-3.80806
-3.8488
-3.88711
-3.92294
-3.95628
-3.98712
-4.01544
-4.04121
-4.06443
-4.08509
-4.10319
-4.1187
-4.13165
-4.14203
-2.72447
-2.80029
-2.87644
-2.9475
-3.01611
-3.08261
-3.14682
-3.2088
-3.26861
-3.32625
-3.38171
-3.43497
-3.486
-3.53478
-3.58128
-3.62548
-3.66734
-3.70684
-3.74396
-3.77867
-3.81096
-3.8408
-3.86819
-3.8931
-3.91552
-3.93545
-3.95287
-3.96778
-3.98019
-3.9901
-2.59837
-2.67825
-2.75778
-2.82881
-2.89651
-2.96181
-3.02469
-3.08531
-3.14375
-3.20005
-3.25419
-3.30616
-3.35594
-3.40351
-3.44885
-3.49193
-3.53272
-3.57121
-3.60737
-3.64118
-3.67262
-3.70167
-3.72832
-3.75256
-3.77438
-3.79375
-3.81069
-3.82518
-3.83722
-3.84683
-2.50087
-2.58963
-2.67021
-2.74035
-2.80639
-2.86961
-2.93034
-2.98878
-3.04506
-3.09918
-3.15117
-3.201
-3.24867
-3.29416
-3.33745
-3.37852
-3.41736
-3.45394
-3.48826
-3.52028
-3.55001
-3.57742
-3.6025
-3.62525
-3.64565
-3.6637
-3.67939
-3.69273
-3.70371
-3.71235
-0.34501
-0.386401
-0.431048
-0.479212
-0.531354
-0.587962
-0.649572
-0.716811
-0.790414
-0.871237
-0.960282
-1.05872
-1.16791
-1.28945
-1.4252
-1.57732
-1.7483
-1.94103
-2.1588
-2.40535
-2.68487
-3.00199
-3.36169
-3.76916
-4.22982
-4.74921
-5.32833
-5.96087
-6.70105
-7.65144
-0.41369
-0.457408
-0.503691
-0.553697
-0.607872
-0.66662
-0.73048
-0.800095
-0.876212
-0.959698
-1.05157
-1.153
-1.26537
-1.3903
-1.52966
-1.68562
-1.8607
-2.0578
-2.28023
-2.53174
-2.81651
-3.13916
-3.50465
-3.91811
-4.38487
-4.9103
-5.49519
-6.13275
-6.87603
-7.82553
-0.483201
-0.529286
-0.577233
-0.629115
-0.685358
-0.746285
-0.812436
-0.88447
-0.963147
-1.04934
-1.14408
-1.24857
-1.36418
-1.49256
-1.63559
-1.79546
-1.97471
-2.17625
-2.40341
-2.65994
-2.95004
-3.2783
-3.64964
-4.06913
-4.54197
-5.07335
-5.66377
-6.30592
-7.05158
-7.99942
-0.553485
-0.601976
-0.65161
-0.705399
-0.763746
-0.826888
-0.895366
-0.969858
-1.05113
-1.14008
-1.23774
-1.34532
-1.46422
-1.59609
-1.74284
-1.90668
-2.09016
-2.2962
-2.52815
-2.78976
-3.08522
-3.41913
-3.79635
-4.22188
-4.7008
-5.2381
-5.83399
-6.48077
-7.22946
-8.17765
-0.624495
-0.675426
-0.726771
-0.782497
-0.842983
-0.908375
-0.979216
-1.0562
-1.14012
-1.23186
-1.33248
-1.44319
-1.56543
-1.70085
-1.85137
-2.01922
-2.20698
-2.41757
-2.65435
-2.9211
-3.22198
-3.56158
-3.94472
-4.37631
-4.86132
-5.40455
-6.00592
-6.65742
-7.40957
-8.35925
-0.696182
-0.749583
-0.802658
-0.860354
-0.92301
-0.990686
-1.06393
-1.14344
-1.23003
-1.32461
-1.42823
-1.54212
-1.66774
-1.80675
-1.96109
-2.13301
-2.32509
-2.54028
-2.78196
-3.05388
-3.36024
-3.70556
-4.09466
-4.53234
-5.02347
-5.57264
-6.17954
-6.83582
-7.59161
-8.54327
-0.768496
-0.82439
-0.879216
-0.938909
-1.00377
-1.07376
-1.14943
-1.23151
-1.32081
-1.41826
-1.52491
-1.64203
-1.77107
-1.91371
-2.07192
-2.24795
-2.4444
-2.66425
-2.91086
-3.18801
-3.49988
-3.85098
-4.24606
-4.68987
-5.18713
-5.74228
-6.35474
-7.01585
-7.77539
-8.72934
-0.841388
-0.899794
-0.956386
-1.0181
-1.0852
-1.15753
-1.23567
-1.32035
-1.41239
-1.51274
-1.62247
-1.74285
-1.87534
-2.02166
-2.18377
-2.36396
-2.56483
-2.78937
-3.04096
-3.32339
-3.6408
-3.99771
-4.39881
-4.84878
-5.3522
-5.91334
-6.53139
-7.19739
-7.96076
-8.91717
-0.91481
-0.97574
-1.03411
-1.09789
-1.16724
-1.24195
-1.32257
-1.40988
-1.5047
-1.60798
-1.72081
-1.84449
-1.98048
-2.13051
-2.29657
-2.48094
-2.68627
-2.91555
-3.17216
-3.45989
-3.7829
-4.14565
-4.5528
-5.00894
-5.51854
-6.08569
-6.70936
-7.38027
-8.14754
-9.10652
-0.988715
-1.05218
-1.11234
-1.17819
-1.24983
-1.32694
-1.41008
-1.50004
-1.59766
-1.70391
-1.81988
-1.94688
-2.08639
-2.24017
-2.4102
-2.59881
-2.80863
-3.04268
-3.30435
-3.59743
-3.92605
-4.29468
-4.7079
-5.17023
-5.68603
-6.2592
-6.88849
-7.56433
-8.33552
-9.29712
-1.06306
-1.12905
-1.19102
-1.25897
-1.33293
-1.41246
-1.49813
-1.59077
-1.69122
-1.80045
-1.91959
-2.04994
-2.19301
-2.35056
-2.5246
-2.71747
-2.93181
-3.17067
-3.43743
-3.73587
-4.07015
-4.44466
-4.86397
-5.33251
-5.85451
-6.43371
-7.06862
-7.74938
-8.52449
-9.48875
-1.1378
-1.20632
-1.2701
-1.34017
-1.41646
-1.49843
-1.58667
-1.682
-1.7853
-1.89754
-2.01986
-2.15358
-2.30023
-2.46158
-2.63966
-2.83681
-3.05571
-3.2994
-3.57127
-3.87511
-4.21506
-4.59548
-5.0209
-5.49565
-6.02384
-6.60906
-7.24958
-7.93524
-8.71427
-9.68118
-1.2129
-1.28394
-1.34952
-1.42174
-1.50038
-1.58481
-1.67562
-1.77367
-1.87983
-1.9951
-2.12062
-2.25774
-2.40799
-2.57315
-2.75529
-2.95675
-3.18023
-3.42876
-3.70577
-4.01503
-4.36066
-4.74701
-5.17853
-5.65949
-6.19387
-6.78509
-7.43119
-8.12173
-8.90464
-9.87422
-1.28833
-1.36186
-1.42925
-1.50362
-1.58463
-1.67154
-1.76494
-1.86571
-1.97475
-2.09305
-2.22179
-2.36231
-2.51617
-2.68518
-2.87138
-3.07717
-3.30524
-3.55864
-3.8408
-4.15549
-4.50681
-4.89909
-5.33672
-5.82388
-6.36443
-6.96162
-7.61327
-8.30866
-9.09541
-10.0676
-1.36405
-1.44006
-1.50924
-1.58579
-1.66917
-1.75855
-1.85454
-1.95805
-2.06997
-2.19132
-2.32328
-2.46722
-2.6247
-2.79755
-2.98785
-3.19797
-3.43064
-3.68892
-3.97624
-4.29637
-4.65339
-5.0516
-5.49532
-5.98866
-6.53537
-7.13849
-7.79565
-8.49582
-9.28638
-10.2612
-1.44006
-1.5185
-1.58946
-1.66818
-1.75395
-1.8458
-1.94439
-2.05062
-2.16542
-2.28982
-2.42501
-2.57237
-2.73348
-2.91018
-3.10456
-3.31903
-3.55632
-3.81949
-4.11197
-4.43754
-4.80025
-5.20438
-5.65418
-6.15369
-6.7065
-7.31552
-7.97812
-8.68303
-9.47735
-10.4548
-1.51635
-1.59716
-1.66988
-1.75076
-1.83891
-1.93323
-2.0344
-2.14336
-2.26104
-2.38848
-2.52689
-2.67766
-2.8424
-3.02295
-3.22143
-3.44025
-3.68214
-3.9502
-4.24785
-4.57885
-4.94725
-5.35728
-5.81315
-6.31878
-6.87766
-7.49252
-8.16052
-8.87009
-9.66812
-10.6482
-1.5929
-1.67603
-1.75047
-1.8335
-1.924
-2.02078
-2.12452
-2.23618
-2.35672
-2.4872
-2.62882
-2.783
-2.95136
-3.13576
-3.33832
-3.56149
-3.80799
-4.08093
-4.38374
-4.72017
-5.09425
-5.51015
-5.97205
-6.48378
-7.04868
-7.66932
-8.34264
-9.05681
-9.85847
-10.8411
-1.66974
-1.75509
-1.83119
-1.91636
-2.00919
-2.10839
-2.21466
-2.32901
-2.45239
-2.58587
-2.73069
-2.88827
-3.06024
-3.24848
-3.45513
-3.68263
-3.93373
-4.21155
-4.5195
-4.86135
-5.24107
-5.66284
-6.13073
-6.6485
-7.21937
-7.84573
-8.52429
-9.24298
-10.0482
-11.0334
-1.74689
-1.83434
-1.91203
-1.99928
-2.09439
-2.19597
-2.30474
-2.42174
-2.54793
-2.6844
-2.8324
-2.99335
-3.16892
-3.36099
-3.57171
-3.80353
-4.05923
-4.34191
-4.655