/*--------------------------------*- C++ -*----------------------------------*\
  =========                 |
  \\      /  F ield         | OpenFOAM: The Open Source CFD Toolbox
   \\    /   O peration     | Website:  https://openfoam.org
    \\  /    A nd           | Version:  6.0
     \\/     M anipulation  |
\*---------------------------------------------------------------------------*/
FoamFile
{
    version     2.0;
    format      ascii;
    class       volVectorField;
    location    "13.4995";
    object      U;
}
// * * * * * * * * * * * * * * * * * * * * * * * * * * * * * * * * * * * * * //

dimensions      [0 1 -1 0 0 0 0];

internalField   nonuniform List<vector> 
19200
(
(0.0985099 -4.74579 -6.49871e-21)
(0.0607139 -4.3344 3.27783e-21)
(0.0666116 -3.99729 1.52071e-21)
(0.0814267 -3.72136 1.341e-21)
(0.098995 -3.49509 1.49998e-21)
(0.120787 -3.30879 1.09726e-22)
(0.146212 -3.15453 2.13277e-21)
(0.174346 -3.0259 -1.40563e-22)
(0.204487 -2.91774 1.8802e-21)
(0.236042 -2.82589 7.94938e-22)
(0.268493 -2.74702 1.37694e-23)
(0.301395 -2.67847 1.26304e-21)
(0.334377 -2.6181 2.06907e-21)
(0.367132 -2.56422 -1.40431e-21)
(0.399407 -2.51548 1.82611e-21)
(0.431002 -2.47078 1.5819e-21)
(0.461756 -2.42926 -1.48191e-21)
(0.491548 -2.39026 2.54929e-21)
(0.520286 -2.3532 -1.6138e-21)
(0.547908 -2.31767 8.23481e-22)
(0.574373 -2.28332 1.1503e-21)
(0.599659 -2.24985 -3.61676e-22)
(0.623758 -2.21703 4.92099e-22)
(0.646677 -2.18468 -5.72226e-22)
(0.668429 -2.15262 -1.3235e-24)
(0.689035 -2.1207 3.07981e-22)
(0.708518 -2.08876 -1.9377e-22)
(0.726902 -2.05665 1.29649e-22)
(0.744222 -2.0242 2.81905e-22)
(0.760482 -1.99122 1.16142e-21)
(0.223017 -4.74325 -1.51944e-21)
(0.175117 -4.33814 1.02006e-20)
(0.172891 -4.00628 -5.37399e-21)
(0.181298 -3.73516 -7.32233e-21)
(0.193837 -3.5133 -3.29204e-21)
(0.211663 -3.33088 -2.3844e-21)
(0.233935 -3.17997 -5.15374e-21)
(0.25953 -3.05417 6.46965e-22)
(0.287593 -2.94833 -1.12421e-21)
(0.31741 -2.85833 -3.89717e-21)
(0.348365 -2.78088 -9.78774e-21)
(0.379943 -2.71335 4.80818e-21)
(0.411716 -2.65367 -1.76985e-21)
(0.443334 -2.60017 6.74766e-22)
(0.474512 -2.55152 -4.20625e-21)
(0.505025 -2.5067 -1.55979e-21)
(0.534698 -2.46486 1.79881e-22)
(0.563396 -2.42535 5.3392e-21)
(0.591022 -2.38766 -2.80859e-21)
(0.617507 -2.35137 -1.56986e-21)
(0.64281 -2.31617 -6.12928e-21)
(0.666907 -2.28178 1.57942e-21)
(0.689794 -2.24799 -1.01087e-21)
(0.711477 -2.21462 1.77521e-21)
(0.731974 -2.18151 -8.03549e-22)
(0.751307 -2.14852 -1.25438e-21)
(0.769501 -2.1155 4.17547e-22)
(0.786586 -2.08228 6.18477e-22)
(0.802617 -2.04871 -1.13376e-21)
(0.817566 -2.01457 5.95133e-22)
(0.347203 -4.73786 -7.54777e-22)
(0.289487 -4.33931 2.37996e-21)
(0.27953 -4.01298 3.4159e-21)
(0.28186 -3.7469 2.60257e-20)
(0.289634 -3.52962 -1.50752e-20)
(0.303707 -3.35122 1.39202e-20)
(0.322996 -3.20373 8.56243e-21)
(0.346186 -3.08079 6.65446e-21)
(0.372271 -2.97727 -6.491e-21)
(0.400419 -2.8891 -7.60584e-22)
(0.429923 -2.81303 1.65177e-20)
(0.460197 -2.74649 2.78703e-21)
(0.49076 -2.68743 -7.59708e-21)
(0.521221 -2.63425 6.07668e-21)
(0.551268 -2.58565 -7.65856e-23)
(0.580654 -2.54063 2.61433e-21)
(0.609188 -2.49841 1.97266e-21)
(0.636728 -2.45835 6.46081e-21)
(0.66317 -2.41997 -2.89639e-21)
(0.688443 -2.38289 -9.641e-22)
(0.712504 -2.3468 -2.53739e-21)
(0.735333 -2.31146 1.11073e-20)
(0.756926 -2.27668 -9.25805e-21)
(0.777293 -2.24228 3.09457e-21)
(0.796456 -2.20812 1.3793e-21)
(0.814438 -2.17406 -5.58764e-21)
(0.831265 -2.13997 7.52032e-21)
(0.846978 -2.10568 -8.53919e-22)
(0.861648 -2.07101 -8.59077e-22)
(0.875212 -2.03575 -6.05735e-21)
(0.471228 -4.72949 -2.46692e-20)
(0.403978 -4.33792 -2.2492e-20)
(0.386588 -4.0174 -2.76766e-20)
(0.383126 -3.75658 1.0395e-21)
(0.386381 -3.54405 1.62199e-21)
(0.396906 -3.36975 -3.15494e-20)
(0.413378 -3.22574 1.3972e-21)
(0.434293 -3.10567 4.05496e-21)
(0.458495 -3.00446 -6.98363e-22)
(0.485038 -2.91809 7.15292e-21)
(0.513128 -2.84336 -2.88563e-20)
(0.542111 -2.77776 -1.82412e-20)
(0.571456 -2.71927 6.79801e-21)
(0.600737 -2.66634 1.36887e-20)
(0.629613 -2.61773 -1.60572e-20)
(0.65782 -2.57247 -2.58522e-21)
(0.685154 -2.52981 -9.56246e-21)
(0.711466 -2.48915 -4.60737e-21)
(0.736649 -2.45004 7.64787e-21)
(0.760631 -2.41212 -9.91275e-21)
(0.78337 -2.37512 8.53364e-21)
(0.804848 -2.33881 -1.0218e-20)
(0.825066 -2.30301 -8.13501e-21)
(0.844038 -2.26758 -5.73395e-21)
(0.861787 -2.23237 -1.74948e-21)
(0.878342 -2.19726 -1.19638e-20)
(0.893731 -2.16211 1.21651e-21)
(0.908001 -2.12677 2.15371e-21)
(0.921243 -2.09105 -6.2409e-21)
(0.933351 -2.05473 1.34462e-21)
(0.595059 -4.71806 -1.50569e-20)
(0.518598 -4.33392 2.11771e-21)
(0.494072 -4.01951 1.9477e-20)
(0.48509 -3.76417 2.06884e-20)
(0.484067 -3.55651 1.47874e-20)
(0.491246 -3.38641 6.067e-21)
(0.505062 -3.24591 9.55145e-21)
(0.523824 -3.12871 4.4492e-20)
(0.546233 -3.0298 -2.67867e-20)
(0.571229 -2.9452 7.28801e-22)
(0.597935 -2.87177 6.4989e-21)
(0.625634 -2.80704 2.85038e-20)
(0.653749 -2.74906 -1.96821e-20)
(0.681817 -2.69633 1.4273e-20)
(0.709477 -2.64764 -1.60698e-20)
(0.736447 -2.60208 2.74791e-20)
(0.762515 -2.55893 -8.27025e-21)
(0.787526 -2.51763 2.58718e-22)
(0.811372 -2.47775 1.34478e-20)
(0.833982 -2.43897 9.36315e-21)
(0.855317 -2.40103 -9.65365e-21)
(0.875362 -2.36373 1.31003e-20)
(0.894124 -2.32691 -6.06371e-21)
(0.91162 -2.29044 6.93235e-21)
(0.927879 -2.25419 9.19568e-21)
(0.942934 -2.21805 3.35131e-21)
(0.956816 -2.18188 1.02749e-20)
(0.969576 -2.14552 -3.63325e-21)
(0.981329 -2.10879 -1.33788e-21)
(0.991917 -2.07147 -6.15832e-21)
(0.718632 -4.70356 -1.11275e-20)
(0.633316 -4.32728 -7.49299e-21)
(0.601961 -4.01928 -2.25817e-20)
(0.587736 -3.76961 -5.86776e-20)
(0.582673 -3.56695 1.99078e-20)
(0.586702 -3.4011 1.26505e-21)
(0.598019 -3.26414 -1.37297e-20)
(0.614748 -3.14982 2.96625e-21)
(0.635445 -3.05318 -1.88938e-21)
(0.658947 -2.9703 -3.60911e-20)
(0.684293 -2.89812 1.53575e-20)
(0.710708 -2.8342 2.66197e-20)
(0.737571 -2.77668 1.78359e-22)
(0.76439 -2.72409 1.00957e-20)
(0.790783 -2.67527 2.50278e-20)
(0.816454 -2.62936 -1.72348e-20)
(0.841186 -2.58567 3.07016e-20)
(0.864819 -2.54368 -1.46148e-20)
(0.887247 -2.503 2.64678e-20)
(0.908402 -2.46333 -1.97671e-20)
(0.928249 -2.42444 8.98446e-21)
(0.94678 -2.38614 2.36212e-20)
(0.964004 -2.34831 1.36453e-21)
(0.979946 -2.31081 -2.18178e-20)
(0.994642 -2.27354 1.2433e-20)
(1.00813 -2.23638 1.52353e-21)
(1.02043 -2.19922 -3.90272e-21)
(1.03163 -2.16189 1.52977e-20)
(1.04183 -2.1242 5.30731e-21)
(1.05084 -2.08593 -5.3956e-21)
(0.841878 -4.68599 3.10089e-20)
(0.748088 -4.31798 -1.34654e-21)
(0.710225 -4.01667 -4.67461e-20)
(0.691036 -3.77285 9.2989e-21)
(0.682172 -3.57529 -1.32831e-20)
(0.683248 -3.41376 9.7034e-21)
(0.692217 -3.28036 2.20306e-20)
(0.707024 -3.1689 4.02996e-20)
(0.726088 -3.07449 -4.39556e-20)
(0.748139 -2.9933 1.0859e-20)
(0.772143 -2.92229 -7.71223e-21)
(0.797268 -2.85914 5.77793e-21)
(0.822853 -2.80202 -2.53128e-20)
(0.84838 -2.7495 -1.47544e-21)
(0.873448 -2.7005 4.20622e-20)
(0.897754 -2.65419 -2.89697e-20)
(0.921074 -2.60992 -1.83203e-20)
(0.943251 -2.56721 -1.34872e-20)
(0.964179 -2.5257 2.50855e-20)
(0.983795 -2.48512 5.47578e-21)
(1.00207 -2.44527 -2.46857e-20)
(1.019 -2.40597 3.34012e-20)
(1.03461 -2.36713 -3.0059e-20)
(1.04892 -2.32861 2.02196e-20)
(1.06198 -2.29034 -1.13271e-20)
(1.07383 -2.25221 7.57177e-21)
(1.08451 -2.21409 5.64866e-21)
(1.09407 -2.17584 -2.50186e-20)
(1.10268 -2.13725 1.09316e-20)
(1.11006 -2.09811 2.70822e-22)
(0.964726 -4.66534 -3.09882e-20)
(0.862864 -4.306 2.60286e-20)
(0.818827 -4.01163 -4.86092e-20)
(0.794959 -3.77382 9.3282e-20)
(0.782534 -3.58147 -2.6357e-20)
(0.780847 -3.42429 3.79156e-20)
(0.787617 -3.29445 1.09644e-22)
(0.800609 -3.18584 -5.08066e-21)
(0.818109 -3.09363 -7.99778e-21)
(0.838749 -3.01406 -1.61522e-22)
(0.861421 -2.94419 -3.13798e-20)
(0.885242 -2.88174 1.62134e-20)
(0.909515 -2.82495 -2.00601e-20)
(0.933701 -2.77245 -1.57539e-21)
(0.957383 -2.72322 -5.71553e-20)
(0.980253 -2.67646 1.86668e-20)
(1.00208 -2.63158 1.11432e-20)
(1.02272 -2.58812 -1.23865e-20)
(1.04207 -2.54577 -1.4252e-21)
(1.06006 -2.50427 -1.96857e-20)
(1.07668 -2.46344 -7.14625e-21)
(1.09193 -2.42316 6.96229e-22)
(1.10585 -2.38331 -1.75158e-20)
(1.11846 -2.34381 -2.60148e-20)
(1.12981 -2.30457 1.06602e-21)
(1.13996 -2.26549 -2.77907e-21)
(1.14894 -2.22647 8.33183e-21)
(1.15683 -2.18735 -2.0663e-20)
(1.1638 -2.14792 1.76346e-20)
(1.16951 -2.10799 -3.58051e-20)
(1.0871 -4.64162 -7.86025e-20)
(0.977589 -4.2913 9.75585e-20)
(0.927723 -4.00412 -1.04116e-19)
(0.899467 -3.77248 -2.79369e-20)
(0.883719 -3.58541 -1.8454e-20)
(0.879459 -3.43262 -1.98797e-20)
(0.884173 -3.30634 -1.83793e-20)
(0.895451 -3.20054 -3.95866e-21)
(0.911451 -3.11048 -1.87827e-20)
(0.93071 -3.03248 -4.75537e-21)
(0.952054 -2.96368 3.28224e-20)
(0.974551 -2.90187 -1.89187e-20)
(0.997474 -2.84536 -2.31485e-20)
(1.02026 -2.79284 -3.92684e-20)
(1.0425 -2.74333 8.2954e-20)
(1.06385 -2.69608 -3.24045e-20)
(1.08412 -2.65055 1.21086e-20)
(1.10313 -2.60633 -4.55371e-20)
(1.12081 -2.56311 1.73175e-20)
(1.13709 -2.52069 -7.38831e-21)
(1.15197 -2.4789 9.07046e-21)
(1.16547 -2.43764 -3.49943e-21)
(1.17761 -2.39681 2.97301e-20)
(1.18845 -2.35635 -1.06754e-20)
(1.19804 -2.31618 2.91922e-20)
(1.20643 -2.2762 -5.51121e-21)
(1.21367 -2.23633 3.84294e-20)
(1.21983 -2.19641 1.05965e-20)
(1.22511 -2.1562 2.01498e-20)
(1.22913 -2.11555 -6.54738e-20)
(1.20893 -4.61484 1.24752e-19)
(1.09221 -4.27388 -2.47311e-20)
(1.03687 -3.99411 4.41106e-20)
(1.00451 -3.76876 -1.31112e-20)
(0.985684 -3.58703 4.5772e-20)
(0.979038 -3.43865 4.39232e-20)
(0.981833 -3.31592 5.0629e-20)
(0.991493 -3.21289 -4.36042e-21)
(1.00605 -3.12494 -4.94374e-20)
(1.02395 -3.04846 7.30479e-20)
(1.04396 -2.98067 -5.92596e-21)
(1.06511 -2.91944 5.31823e-20)
(1.08664 -2.86315 1.94348e-20)
(1.10798 -2.81055 7.0636e-21)
(1.12869 -2.76072 1.21854e-20)
(1.14846 -2.71296 1.60937e-20)
(1.16707 -2.66676 2.73359e-20)
(1.18437 -2.62175 -7.92925e-21)
(1.20029 -2.57766 4.07661e-20)
(1.21478 -2.53431 1.91008e-20)
(1.22785 -2.49158 -4.01175e-20)
(1.23951 -2.44936 7.12655e-20)
(1.24981 -2.40758 -9.48262e-20)
(1.25881 -2.3662 9.06529e-20)
(1.26656 -2.32514 -3.01569e-20)
(1.27314 -2.28432 5.7217e-21)
(1.27859 -2.24366 -4.0298e-20)
(1.283 -2.20299 2.2504e-20)
(1.28656 -2.16209 8.24321e-21)
(1.28884 -2.1208 -1.04629e-20)
(1.33014 -4.58499 -7.26222e-20)
(1.20666 -4.25371 7.32756e-20)
(1.1462 -3.98154 -2.01117e-20)
(1.11006 -3.7626 5.85939e-20)
(1.08838 -3.58628 5.52472e-21)
(1.07953 -3.44231 1.31858e-20)
(1.08054 -3.3231 -1.03102e-19)
(1.08867 -3.22281 -1.79975e-20)
(1.10183 -3.1369 6.79937e-20)
(1.1184 -3.06188 5.31874e-20)
(1.13707 -2.99504 -9.06942e-20)
(1.15683 -2.93434 5.36088e-20)
(1.17692 -2.87822 -5.40862e-20)
(1.19673 -2.8255 3.82302e-20)
(1.21585 -2.77531 -6.35049e-20)
(1.23395 -2.727 -4.81328e-20)
(1.25083 -2.68011 2.9701e-21)
(1.26634 -2.63431 -2.26189e-20)
(1.28042 -2.58935 4.05456e-20)
(1.29303 -2.5451 1.59845e-20)
(1.30419 -2.50143 -1.0642e-20)
(1.31394 -2.45828 -3.31007e-21)
(1.32233 -2.41559 1.28293e-20)
(1.32942 -2.37333 -4.2666e-20)
(1.3353 -2.33143 7.25095e-20)
(1.34002 -2.28983 -1.75761e-20)
(1.34363 -2.24844 -1.45161e-21)
(1.34624 -2.2071 6.43104e-20)
(1.34806 -2.16557 8.77285e-21)
(1.34859 -2.12373 -9.25385e-21)
(1.45066 -4.5521 1.80289e-21)
(1.32088 -4.23077 -4.07894e-20)
(1.25568 -3.96638 -3.86596e-20)
(1.21604 -3.75395 -6.30169e-20)
(1.19175 -3.58307 1.57657e-21)
(1.18088 -3.44351 -4.66219e-20)
(1.18023 -3.32779 5.55569e-20)
(1.18691 -3.23018 -4.76106e-21)
(1.19873 -3.14627 4.71582e-20)
(1.21396 -3.07264 -3.83785e-20)
(1.23128 -3.00669 -2.04837e-20)
(1.24962 -2.94646 1.12004e-20)
(1.2682 -2.89046 6.09502e-21)
(1.28644 -2.83758 -6.39464e-20)
(1.30388 -2.787 3.82673e-20)
(1.32023 -2.73813 -1.9649e-20)
(1.33528 -2.69054 5.5101e-20)
(1.34892 -2.64394 -1.84313e-20)
(1.36107 -2.59813 1.9697e-20)
(1.37172 -2.55298 4.69681e-21)
(1.38091 -2.5084 3.35909e-20)
(1.38867 -2.46436 -6.91257e-21)
(1.39508 -2.4208 5.59313e-20)
(1.40021 -2.37771 -6.21805e-20)
(1.40415 -2.33503 -2.1022e-20)
(1.40696 -2.29271 1.75017e-20)
(1.4087 -2.25066 -1.42721e-21)
(1.40949 -2.20873 -3.09313e-20)
(1.40955 -2.16666 2.5377e-20)
(1.4083 -2.12436 -3.0761e-20)
(1.5704 -4.51616 1.25203e-19)
(1.43481 -4.20505 3.5937e-20)
(1.36524 -3.9486 4.20475e-20)
(1.3224 -3.74275 5.86489e-20)
(1.29575 -3.57733 8.79609e-20)
(1.28302 -3.44217 -2.05138e-21)
(1.28084 -3.32989 1.26607e-20)
(1.28615 -3.23492 1.03143e-19)
(1.29665 -3.15294 -2.10016e-20)
(1.31056 -3.08064 -3.84118e-20)
(1.32649 -3.01553 6.95633e-20)
(1.34337 -2.95571 1.21571e-20)
(1.3604 -2.89979 1.00317e-21)
(1.37697 -2.84671 1.69895e-20)
(1.39266 -2.79571 3.13888e-20)
(1.40718 -2.74626 -6.52675e-20)
(1.42032 -2.69797 5.60298e-20)
(1.43199 -2.65058 9.86116e-21)
(1.44213 -2.60393 5.58781e-20)
(1.45074 -2.55791 -3.00292e-20)
(1.45787 -2.51247 5.09098e-20)
(1.46358 -2.46757 -5.4093e-20)
(1.46795 -2.4232 5.3044e-20)
(1.47106 -2.37933 7.47052e-21)
(1.47301 -2.33594 -3.56751e-20)
(1.47388 -2.29297 -1.18318e-20)
(1.47372 -2.25034 6.999e-20)
(1.47267 -2.20789 5.11925e-20)
(1.47095 -2.16537 1.38522e-20)
(1.46793 -2.1227 -9.82279e-21)
(1.6893 -4.47719 1.3492e-20)
(1.54838 -4.17653 3.1636e-20)
(1.47483 -3.92815 1.26869e-19)
(1.42908 -3.72894 -2.0803e-19)
(1.40029 -3.56899 -2.07894e-20)
(1.38589 -3.4382 -2.22559e-20)
(1.38229 -3.32933 1.04092e-20)
(1.38629 -3.23693 1.50388e-20)
(1.39551 -3.15682 2.4106e-20)
(1.40809 -3.08579 -6.42481e-20)
(1.42261 -3.02145 -1.29885e-20)
(1.43798 -2.962 3.7711e-20)
(1.45338 -2.90611 4.12548e-20)
(1.46823 -2.85281 -4.06786e-20)
(1.48209 -2.80138 -4.08037e-20)
(1.49468 -2.75134 6.68325e-20)
(1.50583 -2.70235 4.46014e-20)
(1.51545 -2.65419 -1.08441e-20)
(1.52349 -2.60672 -2.85329e-20)
(1.52999 -2.55986 5.71097e-21)
(1.53499 -2.51359 -6.76645e-20)
(1.53858 -2.46789 8.27158e-20)
(1.54084 -2.42275 -5.66991e-20)
(1.54189 -2.37817 -2.43106e-21)
(1.54181 -2.33414 3.83169e-20)
(1.54069 -2.29059 -1.17805e-20)
(1.53861 -2.24746 -3.59649e-20)
(1.53569 -2.20459 4.46476e-20)
(1.53219 -2.1617 -1.07965e-21)
(1.52739 -2.11877 8.17163e-21)
(1.80728 -4.4352 -9.17351e-21)
(1.66153 -4.14519 -3.20261e-20)
(1.58437 -3.905 -1.47647e-19)
(1.53603 -3.71248 5.35962e-20)
(1.50533 -3.55798 -1.6528e-20)
(1.48941 -3.43153 5.58568e-20)
(1.4845 -3.32601 4.49515e-21)
(1.48726 -3.23612 -6.50575e-20)
(1.49521 -3.15781 1.00736e-19)
(1.50646 -3.08799 -9.13627e-20)
(1.51954 -3.02437 -3.88538e-21)
(1.53334 -2.96525 2.31334e-20)
(1.54705 -2.90936 -3.94318e-20)
(1.56009 -2.8558 4.64069e-20)
(1.57203 -2.80393 -8.83588e-20)
(1.58262 -2.7533 -2.03272e-20)
(1.59169 -2.70362 5.47839e-20)
(1.59917 -2.65471 2.88767e-22)
(1.60504 -2.60645 -3.51681e-20)
(1.60934 -2.5588 9.6883e-20)
(1.61215 -2.51175 -5.22822e-20)
(1.61355 -2.46529 -7.04888e-20)
(1.61365 -2.41945 2.35429e-20)
(1.61258 -2.37424 -6.94635e-20)
(1.61043 -2.32963 -1.68881e-20)
(1.6073 -2.28559 -2.11612e-21)
(1.60327 -2.24204 -4.62988e-20)
(1.59848 -2.19884 5.55288e-20)
(1.5932 -2.15567 -3.09752e-20)
(1.58662 -2.11257 3.65476e-20)
(1.92426 -4.39021 -4.67172e-20)
(1.77419 -4.11102 -1.32702e-19)
(1.6938 -3.8791 6.49643e-20)
(1.64316 -3.6933 -6.33454e-20)
(1.61077 -3.54425 -4.62321e-20)
(1.59351 -3.42209 -2.72521e-20)
(1.58738 -3.31985 -1.02159e-19)
(1.58895 -3.23241 7.02651e-20)
(1.59566 -3.15583 -1.75685e-19)
(1.60556 -3.08716 -6.50955e-20)
(1.61715 -3.02421 2.32959e-20)
(1.62933 -2.96536 3.96028e-20)
(1.64128 -2.90945 -6.0275e-22)
(1.65243 -2.85562 -7.70649e-20)
(1.66238 -2.8033 1.8303e-20)
(1.67087 -2.75209 -7.20659e-20)
(1.67778 -2.70174 -5.21346e-20)
(1.68303 -2.6521 -3.17142e-20)
(1.68665 -2.60309 -6.32228e-21)
(1.68869 -2.55469 5.47808e-20)
(1.68923 -2.50691 7.87321e-20)
(1.68839 -2.45977 -2.38189e-20)
(1.68628 -2.4133 -2.3494e-20)
(1.68304 -2.36751 4.53725e-20)
(1.67879 -2.32241 2.51268e-20)
(1.67363 -2.27796 -2.01857e-20)
(1.66763 -2.23409 -2.27924e-20)
(1.66096 -2.19065 2.64389e-21)
(1.65389 -2.1473 2.36718e-20)
(1.64556 -2.10414 3.26723e-20)
(2.04017 -4.34224 -8.75809e-21)
(1.88627 -4.07402 1.70602e-19)
(1.80305 -3.85044 1.33023e-19)
(1.75041 -3.67136 1.03759e-19)
(1.71656 -3.52772 -6.82659e-20)
(1.69809 -3.40979 -1.36356e-20)
(1.69085 -3.31078 1.20163e-20)
(1.69128 -3.22571 9.05719e-20)
(1.69675 -3.15079 3.42355e-20)
(1.70527 -3.08322 8.39435e-20)
(1.71534 -3.02088 -1.1909e-19)
(1.72583 -2.96228 1.19332e-20)
(1.73595 -2.90631 4.92011e-20)
(1.74513 -2.85221 3.09467e-20)
(1.753 -2.79944 6.47834e-20)
(1.75932 -2.74767 -4.44493e-20)
(1.76397 -2.69667 -4.14669e-20)
(1.76693 -2.64634 7.75806e-21)
(1.76822 -2.59662 9.04389e-20)
(1.76792 -2.54753 -1.46263e-19)
(1.76613 -2.49908 5.12207e-20)
(1.76299 -2.45131 -3.00235e-22)
(1.75862 -2.40428 9.83463e-20)
(1.75318 -2.358 -4.25194e-20)
(1.74679 -2.31249 -2.355e-21)
(1.73957 -2.26772 -2.76135e-20)
(1.73159 -2.22362 2.63346e-20)
(1.72304 -2.18003 6.45417e-21)
(1.7142 -2.13661 -2.94486e-20)
(1.70413 -2.0935 1.00327e-19)
(2.15493 -4.2913 -1.73934e-19)
(1.99773 -4.03417 -1.043e-19)
(1.91206 -3.81898 -2.68869e-19)
(1.85771 -3.64661 -1.23916e-19)
(1.82261 -3.50834 1.16603e-19)
(1.80308 -3.39458 -6.94467e-20)
(1.79481 -3.29871 -1.78231e-20)
(1.79414 -3.21594 -4.69059e-20)
(1.79838 -3.14263 8.1013e-20)
(1.8055 -3.07608 -1.92254e-20)
(1.81398 -3.01432 -3.01148e-20)
(1.82273 -2.95593 -3.66044e-21)
(1.83094 -2.89989 -1.23844e-19)
(1.83807 -2.84551 -5.39491e-21)
(1.84377 -2.7923 3.31278e-20)
(1.84783 -2.73998 -4.16931e-21)
(1.85015 -2.68837 -1.31906e-19)
(1.85074 -2.63739 1.29203e-19)
(1.84963 -2.58702 -1.27957e-19)
(1.84692 -2.53729 5.03377e-20)
(1.84274 -2.48823 7.20098e-21)
(1.83724 -2.43992 2.74224e-21)
(1.83057 -2.39239 -5.41482e-20)
(1.82289 -2.34571 1.85203e-20)
(1.81433 -2.29987 -7.28416e-23)
(1.80503 -2.25487 6.17621e-21)
(1.79507 -2.21065 -1.38004e-19)
(1.78463 -2.16702 3.74981e-20)
(1.77404 -2.12362 4.03835e-20)
(1.76225 -2.08066 4.53578e-20)
(2.26847 -4.23742 3.41693e-19)
(2.10847 -3.99146 1.20654e-19)
(2.02073 -3.78469 7.16394e-20)
(1.96497 -3.619 1.14012e-19)
(1.92883 -3.48605 -1.41052e-20)
(1.90838 -3.37638 8.80848e-20)
(1.89916 -3.28358 1.97331e-19)
(1.89742 -3.20303 -2.48654e-20)
(1.90042 -3.13126 1.21801e-20)
(1.9061 -3.06569 2.40193e-19)
(1.91296 -3.00446 -3.18842e-20)
(1.91989 -2.94626 3.44998e-20)
(1.92612 -2.89014 -1.28611e-20)
(1.93112 -2.83547 -1.54433e-21)
(1.93457 -2.78184 1.81227e-19)
(1.93629 -2.729 6.95183e-21)
(1.9362 -2.67682 1.95862e-19)
(1.93433 -2.62524 -2.44006e-20)
(1.93075 -2.57427 -4.30966e-20)
(1.92558 -2.52396 1.01104e-19)
(1.91896 -2.47437 -9.27142e-20)
(1.91106 -2.42558 1.02411e-19)
(1.90204 -2.37765 5.5566e-20)
(1.89207 -2.33063 -4.51051e-20)
(1.88133 -2.28456 6.92586e-20)
(1.86993 -2.23943 8.34758e-21)
(1.85798 -2.19517 -2.92782e-20)
(1.84566 -2.15161 1.58674e-20)
(1.83332 -2.10835 1.05078e-19)
(1.81985 -2.06566 1.63285e-20)
(2.3807 -4.18061 -5.88793e-20)
(2.21843 -3.9459 -1.22612e-19)
(2.12902 -3.74754 5.15087e-20)
(2.07212 -3.58851 -2.06105e-19)
(2.03514 -3.46079 9.92331e-20)
(2.0139 -3.35513 -1.82982e-19)
(2.0038 -3.26532 -1.21703e-19)
(2.00101 -3.18692 3.43914e-20)
(2.00276 -3.11661 3.46463e-20)
(2.00697 -3.05197 -1.67184e-19)
(2.01215 -2.99125 -7.30544e-20)
(2.01719 -2.93321 3.42433e-20)
(2.02136 -2.877 -9.42451e-20)
(2.02415 -2.82206 -3.78334e-20)
(2.02527 -2.76803 -2.55939e-20)
(2.02456 -2.71471 -2.57396e-20)
(2.022 -2.662 -1.09639e-19)
(2.01761 -2.60987 -6.90397e-20)
(2.01149 -2.55836 1.24176e-20)
(2.0038 -2.50754 2.2832e-20)
(1.99468 -2.45749 2.46486e-20)
(1.98432 -2.4083 -8.514e-20)
(1.97292 -2.36004 3.22898e-20)
(1.96064 -2.31278 -6.66123e-20)
(1.94768 -2.26657 6.32192e-20)
(1.93417 -2.2214 -8.31463e-20)
(1.92022 -2.17721 2.62929e-20)
(1.90603 -2.13382 -4.11442e-20)
(1.89197 -2.09082 -5.87403e-20)
(1.87684 -2.04851 -5.95106e-21)
(2.49155 -4.12091 -1.26086e-19)
(2.32752 -3.89748 -1.12202e-19)
(2.23682 -3.70752 -1.10302e-19)
(2.17908 -3.55507 -8.29067e-20)
(2.14145 -3.43252 2.56176e-19)
(2.11954 -3.33078 3.65113e-20)
(2.10861 -3.24386 1.11734e-19)
(2.1048 -3.16754 1.72417e-19)
(2.10528 -3.09864 8.37231e-20)
(2.10798 -3.03488 -1.1198e-19)
(2.11141 -2.97462 1.82382e-19)
(2.1145 -2.91673 -1.78188e-19)
(2.11653 -2.86044 1.69959e-19)
(2.11703 -2.80525 2.04348e-20)
(2.11574 -2.75085 4.40062e-20)
(2.11254 -2.69708 1.469e-20)
(2.10742 -2.64389 1.80038e-19)
(2.10044 -2.59128 -2.68761e-20)
(2.09173 -2.5393 2.44654e-20)
(2.08146 -2.48804 8.22453e-20)
(2.0698 -2.4376 -9.21952e-20)
(2.05695 -2.38808 7.38714e-20)
(2.04312 -2.33958 3.01256e-21)
(2.0285 -2.29216 3.38098e-20)
(2.01329 -2.24589 6.20852e-20)
(1.99765 -2.20077 -1.05175e-20)
(1.9817 -2.15676 6.17159e-20)
(1.96564 -2.11366 8.97253e-20)
(1.94988 -2.07102 -9.75348e-20)
(1.93314 -2.02923 -6.01641e-20)
(2.60095 -4.05834 3.71838e-19)
(2.43569 -3.8462 -4.21386e-20)
(2.34408 -3.66461 8.65153e-20)
(2.28576 -3.51867 1.59253e-19)
(2.24767 -3.40118 -4.63105e-19)
(2.22519 -3.30326 5.09925e-20)
(2.2135 -3.21916 -1.79154e-19)
(2.20866 -3.14483 1.81736e-19)
(2.20785 -3.07728 -1.45362e-19)
(2.20899 -3.01435 7.88184e-20)
(2.21062 -2.95454 -2.88586e-19)
(2.21168 -2.8968 8.23728e-21)
(2.2115 -2.84043 -9.70317e-20)
(2.20963 -2.78501 1.48075e-19)
(2.20586 -2.73027 -1.57892e-19)
(2.20009 -2.67611 -8.20509e-21)
(2.19235 -2.6225 -1.29592e-19)
(2.18272 -2.56946 -1.10757e-20)
(2.17137 -2.51708 1.11118e-20)
(2.15846 -2.46546 2.91797e-20)
(2.14422 -2.41471 -1.65634e-19)
(2.12884 -2.36494 -5.08802e-21)
(2.11255 -2.31627 -9.33054e-20)
(2.09556 -2.26878 -2.16952e-20)
(2.07809 -2.22253 -5.75056e-20)
(2.0603 -2.17756 -6.31005e-20)
(2.04233 -2.13382 -6.6062e-20)
(2.0244 -2.09111 1.0964e-19)
(2.00695 -2.04897 2.96187e-20)
(1.98864 -2.00782 -5.86271e-20)
(2.70882 -3.99293 -2.48214e-19)
(2.54285 -3.79207 9.29878e-20)
(2.45072 -3.61879 -1.59902e-19)
(2.39209 -3.47927 2.36434e-20)
(2.3537 -3.36673 2.64825e-19)
(2.33075 -3.27253 -1.3513e-19)
(2.31833 -3.19114 -1.44736e-19)
(2.31248 -3.11873 -1.232e-19)
(2.31034 -3.05248 5.62177e-21)
(2.30988 -2.99036 8.03137e-20)
(2.30964 -2.93097 -5.88392e-20)
(2.3086 -2.87337 2.26158e-21)
(2.30613 -2.81695 1.8593e-19)
(2.30183 -2.76132 -9.47382e-20)
(2.2955 -2.7063 2.51517e-20)
(2.2871 -2.6518 -7.771e-20)
(2.27667 -2.59782 2.99043e-20)
(2.26435 -2.54443 6.46655e-20)
(2.2503 -2.49172 7.43215e-20)
(2.23472 -2.43981 -8.15353e-20)
(2.21785 -2.38883 1.14991e-20)
(2.19991 -2.33889 7.05702e-20)
(2.18113 -2.29012 1.22701e-19)
(2.16175 -2.24263 3.29689e-20)
(2.14198 -2.19648 -1.27839e-19)
(2.12202 -2.15173 1.49213e-19)
(2.10201 -2.10837 -7.49406e-20)
(2.08222 -2.06617 -8.99006e-20)
(2.0631 -2.02464 -5.52129e-20)
(2.04326 -1.98427 -7.61199e-20)
(2.81508 -3.92471 1.33287e-19)
(2.64893 -3.7351 -1.07461e-19)
(2.55667 -3.57004 4.12957e-20)
(2.49798 -3.43682 2.20992e-19)
(2.45945 -3.32912 6.09389e-20)
(2.43611 -3.23853 -5.22271e-20)
(2.423 -3.15977 1.27443e-19)
(2.41612 -3.08922 2.96893e-20)
(2.41263 -3.0242 1.23406e-19)
(2.41051 -2.96286 6.82727e-20)
(2.40833 -2.90388 3.34467e-21)
(2.40513 -2.84644 4.37654e-20)
(2.4003 -2.78997 -1.38546e-20)
(2.39349 -2.73419 2.43316e-20)
(2.38454 -2.67892 6.87784e-20)
(2.37344 -2.62414 -3.79026e-20)
(2.36028 -2.56987 9.46924e-20)
(2.3452 -2.5162 9.65848e-20)
(2.32842 -2.46324 -1.10432e-19)
(2.31014 -2.41112 1.14107e-19)
(2.29061 -2.35997 2.43679e-19)
(2.27008 -2.30994 -1.58083e-19)
(2.2488 -2.26115 1.59939e-19)
(2.22699 -2.21372 -1.12088e-19)
(2.2049 -2.16774 -1.6091e-20)
(2.18274 -2.12329 1.21816e-19)
(2.16068 -2.08037 -2.46965e-20)
(2.13899 -2.03878 9.19913e-20)
(2.1182 -1.99799 9.18138e-20)
(2.09687 -1.95854 -1.84224e-19)
(2.91968 -3.85371 -1.28816e-19)
(2.75389 -3.67531 6.17466e-20)
(2.66186 -3.51836 2.52786e-20)
(2.60334 -3.39131 -2.60184e-19)
(2.5648 -3.28831 -1.36123e-19)
(2.54116 -3.20122 1.03346e-19)
(2.52737 -3.12501 -2.90056e-19)
(2.51944 -3.05623 3.53675e-19)
(2.51456 -2.99242 -1.99891e-19)
(2.51073 -2.93182 2.38852e-20)
(2.50656 -2.87326 -3.78751e-20)
(2.50113 -2.81598 -1.17142e-19)
(2.49387 -2.75951 2.44513e-19)
(2.48448 -2.7036 9.3339e-20)
(2.47285 -2.64815 -9.66096e-20)
(2.459 -2.59315 2.9177e-21)
(2.44305 -2.53866 5.50146e-20)
(2.42519 -2.48479 -1.19111e-19)
(2.40563 -2.43166 2.55662e-20)
(2.38463 -2.37941 8.36291e-20)
(2.36243 -2.32818 -3.45201e-20)
(2.3393 -2.27812 5.80527e-20)
(2.31548 -2.22937 -1.14539e-19)
(2.29123 -2.18205 1.66925e-19)
(2.2668 -2.1363 3.93456e-20)
(2.24241 -2.09219 -1.06349e-19)
(2.21825 -2.04977 -9.24171e-20)
(2.19465 -2.00888 4.04749e-22)
(2.17218 -1.96894 1.28574e-19)
(2.14937 -1.93056 -3.11072e-20)
(3.02255 -3.77996 -3.52768e-20)
(2.85768 -3.61269 -2.59079e-19)
(2.76623 -3.46372 3.10772e-19)
(2.7081 -3.34268 2.12397e-19)
(2.66966 -3.24426 2.14332e-19)
(2.64575 -3.16056 6.08766e-20)
(2.6313 -3.0868 9.15081e-20)
(2.62232 -3.01975 4.74557e-20)
(2.61601 -2.9571 -1.87883e-19)
(2.61041 -2.89723 3.46866e-19)
(2.60418 -2.83909 -2.8268e-19)
(2.59645 -2.78199 -1.86583e-20)
(2.5867 -2.72555 4.21601e-20)
(2.57467 -2.66958 -1.87174e-19)
(2.5603 -2.614 1.64751e-19)
(2.54366 -2.55886 -4.93166e-20)
(2.52489 -2.50423 -1.27775e-19)
(2.50421 -2.45024 4.97954e-20)
(2.48186 -2.39702 -9.58246e-20)
(2.45812 -2.34472 -8.49601e-20)
(2.43323 -2.29348 -9.14887e-20)
(2.40749 -2.24347 2.08179e-20)
(2.38114 -2.19481 1.22812e-20)
(2.35444 -2.14766 -2.27006e-19)
(2.32765 -2.10214 -8.67244e-20)
(2.301 -2.0584 5.60856e-20)
(2.2747 -2.01651 6.9846e-20)
(2.24912 -1.97636 -9.64529e-20)
(2.22492 -1.93736 -3.68327e-20)
(2.20064 -1.90019 3.73079e-21)
(3.12368 -3.70349 -3.08433e-20)
(2.96028 -3.54726 1.67682e-19)
(2.86974 -3.40608 -4.77694e-20)
(2.81214 -3.2909 -5.89567e-20)
(2.77391 -3.19692 -3.34312e-19)
(2.74977 -3.11651 -7.39908e-20)
(2.73466 -3.04512 1.42711e-19)
(2.72461 -2.97975 -9.46364e-20)
(2.71683 -2.91823 -1.00998e-20)
(2.70941 -2.85908 -1.8826e-20)
(2.70106 -2.80136 1.07002e-19)
(2.69096 -2.74448 -1.70508e-19)
(2.67866 -2.68812 -1.14974e-19)
(2.66394 -2.63214 1.35766e-19)
(2.64678 -2.57651 -7.79487e-20)
(2.6273 -2.5213 -9.4331e-20)
(2.60568 -2.46661 2.02826e-19)
(2.58216 -2.41259 -3.19004e-20)
(2.55701 -2.35936 1.20888e-19)
(2.53052 -2.3071 -1.11247e-19)
(2.50296 -2.25594 -9.03513e-20)
(2.47461 -2.20603 7.87664e-20)
(2.44574 -2.15752 -8.87417e-21)
(2.4166 -2.11056 -5.94891e-20)
(2.38745 -2.0653 5.24755e-20)
(2.35853 -2.0219 -1.64242e-19)
(2.33004 -1.98051 1.0038e-19)
(2.3024 -1.94108 -1.55842e-21)
(2.27641 -1.90306 -1.05382e-19)
(2.25065 -1.86717 1.60403e-19)
(3.22315 -3.62437 1.28004e-19)
(3.06171 -3.47902 -3.32198e-19)
(2.9723 -3.34542 -2.79124e-20)
(2.91537 -3.23591 1.58019e-19)
(2.8774 -3.14624 -4.13717e-20)
(2.85307 -3.06903 -1.17082e-19)
(2.83731 -2.99995 5.55796e-20)
(2.82615 -2.93621 6.45573e-20)
(2.81686 -2.87579 5.60575e-21)
(2.80757 -2.81737 8.04287e-20)
(2.79705 -2.76009 2.58437e-19)
(2.78453 -2.70346 -9.14145e-20)
(2.76961 -2.64723 2.38485e-20)
(2.75214 -2.5913 -6.22349e-20)
(2.73216 -2.5357 2.40245e-19)
(2.70981 -2.48051 -4.32717e-20)
(2.68531 -2.42586 1.44304e-19)
(2.65894 -2.37189 -5.61739e-20)
(2.631 -2.31875 6.08468e-20)
(2.60177 -2.26661 9.22573e-20)
(2.57156 -2.21561 1.58515e-20)
(2.54063 -2.16588 6.25194e-20)
(2.50927 -2.11758 -5.19147e-20)
(2.47773 -2.07084 1.45128e-19)
(2.44624 -2.02581 -5.94901e-20)
(2.41504 -1.98269 2.18607e-19)
(2.38434 -1.9417 -6.32646e-20)
(2.35456 -1.90287 4.36937e-20)
(2.32668 -1.86569 -8.25804e-20)
(2.29945 -1.83111 1.56783e-19)
(3.32133 -3.54271 -2.82947e-19)
(3.1621 -3.40792 1.05094e-20)
(3.07385 -3.28162 -1.73009e-19)
(3.01764 -3.17764 3.18429e-20)
(2.97997 -3.09218 8.84052e-21)
(2.95549 -3.01809 -1.5666e-19)
(2.93908 -2.95127 -2.96108e-19)
(2.9268 -2.88911 1.4903e-19)
(2.91597 -2.82979 -2.1267e-19)
(2.90476 -2.7721 -1.13013e-19)
(2.892 -2.71529 -6.4869e-20)
(2.877 -2.65896 -5.27276e-20)
(2.85942 -2.60292 1.52883e-21)
(2.83916 -2.54712 -1.89254e-19)
(2.81631 -2.49162 1.25386e-19)
(2.79107 -2.43654 -2.06103e-19)
(2.76368 -2.38201 -5.23281e-20)
(2.73446 -2.3282 5.73592e-20)
(2.70373 -2.27526 7.24476e-20)
(2.67179 -2.22334 7.26398e-20)
(2.63895 -2.17258 5.5756e-20)
(2.60551 -2.12311 -1.40175e-19)
(2.57172 -2.07507 1.41986e-19)
(2.53783 -2.02858 -1.51349e-20)
(2.50408 -1.98378 -3.83343e-20)
(2.47066 -1.94085 -1.52158e-19)
(2.43774 -1.90002 -8.09264e-20)
(2.40572 -1.86138 1.5017e-19)
(2.37564 -1.82456 -4.91672e-20)
(2.34665 -1.79135 -5.12223e-20)
(3.41867 -3.4582 1.23105e-19)
(3.26146 -3.33352 1.14396e-20)
(3.1742 -3.21447 -3.42851e-20)
(3.11873 -3.11602 -7.45411e-21)
(3.08146 -3.03474 -6.26545e-20)
(3.05687 -2.96371 2.11674e-19)
(3.03983 -2.8991 -1.00492e-19)
(3.02642 -2.8385 6.60534e-20)
(3.014 -2.78025 2.76682e-20)
(3.00082 -2.72329 1.00585e-19)
(2.98577 -2.66699 -3.92562e-20)
(2.96824 -2.61101 2.22458e-19)
(2.94795 -2.55522 -1.93411e-20)
(2.92486 -2.49963 1.46323e-19)
(2.89912 -2.44433 -2.46835e-19)
(2.87096 -2.38945 -1.89721e-20)
(2.84068 -2.33515 1.61395e-19)
(2.80862 -2.28161 -1.00507e-19)
(2.77511 -2.22896 -7.09839e-20)
(2.7405 -2.17737 -1.22593e-19)
(2.70509 -2.12696 -1.08026e-19)
(2.66919 -2.07786 1.1635e-19)
(2.63307 -2.03018 -1.09675e-19)
(2.59698 -1.98401 2.41422e-20)
(2.56114 -1.93946 8.91915e-20)
(2.52573 -1.89666 6.1885e-20)
(2.49088 -1.85571 5.89484e-20)
(2.45681 -1.81658 4.33974e-20)
(2.42407 -1.77933 -1.17482e-19)
(2.39223 -1.74706 -5.04109e-20)
(5.01135 -0.0292264 1.82642e-21)
(5.00383 -0.161035 1.80882e-20)
(4.99319 -0.291878 6.27878e-20)
(4.9794 -0.422037 3.43213e-20)
(4.96226 -0.551569 -7.25902e-20)
(4.9417 -0.68044 2.19806e-20)
(4.91772 -0.808584 -2.30124e-20)
(4.89034 -0.93592 -5.81195e-20)
(4.8596 -1.06236 1.48074e-19)
(4.82552 -1.18782 -3.5303e-20)
(4.78815 -1.31221 -3.55876e-20)
(4.74751 -1.43545 -7.52008e-20)
(4.70365 -1.55744 -2.15303e-19)
(4.65662 -1.67811 1.99571e-20)
(4.60645 -1.79737 -9.64536e-21)
(4.5532 -1.91514 -6.71317e-20)
(4.49691 -2.03135 1.43766e-19)
(4.43763 -2.14592 7.79022e-20)
(4.37542 -2.25876 1.48792e-19)
(4.31034 -2.36982 7.25409e-20)
(4.24243 -2.47902 -1.62394e-19)
(4.17175 -2.58629 6.55867e-21)
(4.09837 -2.69156 -3.05813e-19)
(4.02235 -2.79478 4.63868e-19)
(3.94375 -2.89588 -1.51948e-19)
(3.86264 -2.99481 -1.95638e-19)
(3.77908 -3.09152 -2.73535e-20)
(3.69315 -3.186 -1.56282e-21)
(3.60495 -3.27831 -1.46431e-19)
(3.51444 -3.36883 2.60572e-19)
(5.03573 -0.058406 7.57017e-21)
(5.02252 -0.190281 1.11766e-20)
(5.0056 -0.321055 2.77468e-21)