/*--------------------------------*- C++ -*----------------------------------*\
| =========                 |                                                 |
| \\      /  F ield         | OpenFOAM: The Open Source CFD Toolbox           |
|  \\    /   O peration     | Version:  v1912                                 |
|   \\  /    A nd           | Website:  www.openfoam.com                      |
|    \\/     M anipulation  |                                                 |
\*---------------------------------------------------------------------------*/
FoamFile
{
    version     2.0;
    format      ascii;
    class       volScalarField;
    location    "4.5";
    object      p;
}
// * * * * * * * * * * * * * * * * * * * * * * * * * * * * * * * * * * * * * //

dimensions      [0 2 -2 0 0 0 0];


internalField   nonuniform List<scalar> 
9600
(
-34.3588
-28.8468
-25.4167
-22.4965
-19.9107
-17.6537
-15.6817
-13.9533
-12.4372
-11.1069
-9.93919
-8.91337
-8.01139
-7.21735
-6.51736
-5.89936
-5.35293
-4.86851
-4.43749
-4.05893
-34.5916
-29.0808
-25.6406
-22.7061
-20.1052
-17.8336
-15.848
-14.1075
-12.5809
-11.2415
-10.0658
-9.03322
-8.12534
-7.32614
-6.62156
-5.99944
-5.44926
-4.96122
-4.52659
-4.14579
-34.8294
-29.3139
-25.8631
-22.9144
-20.2983
-18.0121
-16.0131
-14.2608
-12.7237
-11.3753
-10.192
-9.15275
-8.23914
-7.43493
-6.72591
-6.0998
-5.54596
-5.0544
-4.61625
-4.23334
-35.0702
-29.5473
-26.0846
-23.1214
-20.4901
-18.1893
-16.177
-14.4128
-12.8655
-11.5084
-10.3175
-9.27184
-8.35269
-7.54365
-6.83035
-6.20039
-5.64302
-5.14803
-4.70645
-4.32157
-35.3122
-29.7806
-26.3052
-23.3271
-20.6804
-18.3649
-16.3394
-14.5636
-13.0063
-11.6405
-10.4423
-9.39043
-8.46593
-7.65223
-6.93483
-6.30118
-5.74041
-5.2421
-4.7972
-4.41052
-35.5544
-30.0135
-26.5247
-23.5313
-20.8691
-18.539
-16.5003
-14.713
-13.1457
-11.7716
-10.5663
-9.50838
-8.57872
-7.76057
-7.03924
-6.40208
-5.83808
-5.33658
-4.8885
-4.50019
-35.796
-30.2454
-26.7429
-23.7338
-21.0559
-18.7112
-16.6593
-14.8607
-13.2837
-11.9014
-10.6892
-9.62549
-8.6909
-7.86851
-7.14346
-6.50299
-5.93593
-5.4314
-4.9803
-4.59058
-36.0366
-30.476
-26.9593
-23.9343
-21.2407
-18.8812
-16.8164
-15.0065
-13.4201
-12.0297
-10.8109
-9.74157
-8.80227
-7.97584
-7.2473
-6.60373
-6.03383
-5.52646
-5.07251
-4.68164
-36.2757
-30.7049
-27.1737
-24.1326
-21.423
-19.0489
-16.9711
-15.1502
-13.5544
-12.1563
-10.931
-9.85633
-8.91254
-8.08232
-7.35052
-6.70407
-6.13156
-5.62157
-5.16499
-4.77322
-36.513
-30.9316
-27.3857
-24.3283
-21.6027
-19.2139
-17.1233
-15.2914
-13.6865
-12.2808
-11.0493
-9.96945
-9.0214
-8.18762
-7.45279
-6.80371
-6.22883
-5.71647
-5.2575
-4.86513
-36.7481
-31.156
-27.595
-24.5211
-21.7793
-19.3758
-17.2725
-15.4298
-13.8159
-12.4029
-11.1653
-10.0806
-9.12847
-8.29134
-7.55371
-6.90227
-6.32528
-5.81081
-5.3497
-4.95703
-36.9808
-31.3775
-27.8012
-24.7106
-21.9525
-19.5344
-17.4183
-15.565
-13.9423
-12.5221
-11.2787
-10.1892
-9.23328
-8.39302
-7.65282
-6.99924
-6.42042
-5.90412
-5.44114
-5.0485
-37.211
-31.5959
-28.0041
-24.8965
-22.122
-19.6891
-17.5605
-15.6967
-14.0654
-12.6381
-11.3891
-10.295
-9.33532
-8.4921
-7.74952
-7.09405
-6.51367
-5.99583
-5.53129
-5.13907
-37.4387
-31.8112
-28.2031
-25.0784
-22.2873
-19.8398
-17.6987
-15.8244
-14.1846
-12.7505
-11.4958
-10.3972
-9.43402
-8.58795
-7.84313
-7.18593
-6.60421
-6.08514
-5.61938
-5.22809
-37.6638
-32.0231
-28.3978
-25.2559
-22.4482
-19.9859
-17.8324
-15.9479
-14.2997
-12.8587
-11.5986
-10.4956
-9.5288
-8.67989
-7.93285
-7.27396
-6.69101
-6.17089
-5.70421
-5.31421
-37.8863
-32.231
-28.5879
-25.4288
-22.6042
-20.1273
-17.9614
-16.0667
-14.4102
-12.9625
-11.6969
-10.5895
-9.6191
-8.76727
-8.01791
-7.35725
-6.77303
-6.25193
-5.78431
-5.395
-38.1076
-32.4351
-28.773
-25.5964
-22.755
-20.2633
-18.0852
-16.1805
-14.5159
-13.0616
-11.7905
-10.6786
-9.70443
-8.8495
-8.09764
-7.43507
-6.84959
-6.3276
-5.85862
-5.46894
-38.3327
-32.6368
-28.9524
-25.7578
-22.8996
-20.3935
-18.2035
-16.289
-14.6164
-13.1556
-11.879
-10.7624
-9.78427
-8.92585
-8.17102
-7.50615
-6.91912
-6.39583
-5.92514
-5.53841
-38.5638
-32.8363
-29.1242
-25.9116
-23.0377
-20.5177
-18.3162
-16.3923
-14.712
-13.2447
-11.9627
-10.8412
-9.85859
-8.99596
-8.23711
-7.5684
-6.97734
-6.44952
-5.9767
-5.60146
-38.7795
-33.0253
-29.2882
-26.0585
-23.1701
-20.6372
-18.4246
-16.4915
-14.8037
-13.33
-12.0425
-10.9161
-9.92874
-9.06131
-8.29733
-7.62254
-7.02322
-6.48577
-6.00936
-5.63374
-40.6212
-40.6339
-40.6246
-40.607
-40.5799
-40.5406
-40.4887
-40.4245
-40.3484
-40.2611
-40.1628
-40.0544
-39.9364
-39.8094
-39.6745
-39.5324
-39.3845
-39.2327
-39.0801
-38.9297
-34.6713
-34.7007
-34.7122
-34.7109
-34.697
-34.6697
-34.6296
-34.5771
-34.5126
-34.4367
-34.35
-34.253
-34.1463
-34.0307
-33.9068
-33.7753
-33.637
-33.4928
-33.3439
-33.1888
-30.7002
-30.7405
-30.7653
-30.7762
-30.7735
-30.7572
-30.728
-30.6869
-30.6344
-30.571
-30.4972
-30.4136
-30.3207
-30.2191
-30.1093
-29.992
-29.8675
-29.736
-29.5966
-29.4482
-27.2414
-27.2871
-27.3192
-27.3381
-27.3437
-27.3365
-27.3173
-27.2867
-27.2453
-27.1935
-27.1317
-27.0605
-26.9803
-26.8916
-26.795
-26.6907
-26.5792
-26.4604
-26.3341
-26.2004
-24.171
-24.2186
-24.2541
-24.2776
-24.2885
-24.2873
-24.275
-24.2519
-24.2186
-24.1754
-24.1229
-24.0615
-23.9916
-23.9138
-23.8284
-23.7358
-23.6362
-23.5299
-23.4169
-23.2973
-21.5074
-21.5544
-21.5905
-21.6155
-21.6287
-21.6307
-21.6222
-21.6037
-21.5756
-21.5383
-21.4922
-21.4379
-21.3758
-21.3062
-21.2297
-21.1466
-21.0571
-20.9615
-20.8597
-20.7519
-19.2076
-19.2523
-19.2871
-19.3115
-19.3248
-19.3277
-19.3208
-19.3046
-19.2794
-19.2456
-19.2037
-19.1541
-19.0974
-19.0339
-18.964
-18.8881
-18.8064
-18.7193
-18.6267
-18.5287
-17.221
-17.2626
-17.2947
-17.3171
-17.3293
-17.3315
-17.3247
-17.3091
-17.2851
-17.2531
-17.2135
-17.1669
-17.1136
-17.0541
-16.9889
-16.9183
-16.8427
-16.7621
-16.6769
-16.587
-15.5038
-15.5418
-15.5707
-15.5904
-15.6004
-15.6012
-15.5934
-15.5773
-15.5534
-15.5219
-15.4834
-15.4383
-15.3871
-15.3302
-15.2682
-15.2014
-15.1301
-15.0548
-14.9753
-14.8919
-14.0171
-14.0513
-14.0769
-14.0935
-14.101
-14.0998
-14.0905
-14.0733
-14.0486
-14.0169
-13.9786
-13.9341
-13.8839
-13.8286
-13.7686
-13.7045
-13.6365
-13.5651
-13.4903
-13.4122
-12.7269
-12.7574
-12.7796
-12.7931
-12.798
-12.7947
-12.7835
-12.7648
-12.7391
-12.7066
-12.6679
-12.6234
-12.5736
-12.5191
-12.4604
-12.398
-12.3324
-12.2641
-12.1931
-12.1195
-11.6037
-11.6308
-11.6498
-11.6604
-11.6627
-11.6571
-11.644
-11.6238
-11.5967
-11.5633
-11.5238
-11.4789
-11.4291
-11.3748
-11.3168
-11.2556
-11.1918
-11.1258
-11.058
-10.9884
-10.6227
-10.6468
-10.6628
-10.6707
-10.6705
-10.6628
-10.6479
-10.626
-10.5976
-10.563
-10.5227
-10.4772
-10.4269
-10.3726
-10.3148
-10.2543
-10.1917
-10.1277
-10.0626
-9.99664
-9.7642
-9.78444
-9.79759
-9.80304
-9.8007
-9.79101
-9.77433
-9.75095
-9.72121
-9.68549
-9.64423
-9.59793
-9.54712
-9.49244
-9.43458
-9.37434
-9.31255
-9.25001
-9.18735
-9.12474
-9.0082
-9.02601
-9.03674
-9.03993
-9.03557
-9.02408
-9.00579
-8.98099
-8.95
-8.91319
-8.87098
-8.82387
-8.77238
-8.71716
-8.65896
-8.59865
-8.53722
-8.47575
-8.4152
-8.35594
-8.34124
-8.35676
-8.36528
-8.36641
-8.36022
-8.34709
-8.32733
-8.30122
-8.26906
-8.23122
-8.18809
-8.14013
-8.08787
-8.03196
-7.97316
-7.91242
-7.8509
-7.78997
-7.73111
-7.67521
-7.7508
-7.76413
-7.77064
-7.76991
-7.76206
-7.74743
-7.72631
-7.69898
-7.66571
-7.62686
-7.58278
-7.53393
-7.48079
-7.42398
-7.36427
-7.30266
-7.24044
-7.17934
-7.12133
-7.06822
-7.22597
-7.23755
-7.24232
-7.24009
-7.23089
-7.21503
-7.19279
-7.16444
-7.13025
-7.09053
-7.04563
-6.99594
-6.94192
-6.88415
-6.82334
-6.76052
-6.69706
-6.63515
-6.57721
-6.52537
-6.757
-6.76751
-6.77115
-6.76805
-6.75812
-6.74165
-6.71896
-6.69028
-6.65587
-6.61602
-6.57104
-6.5213
-6.46721
-6.40927
-6.3481
-6.28471
-6.22039
-6.15802
-6.10086
-6.05222
-6.33807
-6.34592
-6.3475
-6.34261
-6.33113
-6.31337
-6.28967
-6.26028
-6.2254
-6.1853
-6.14027
-6.09062
-6.03668
-5.97888
-5.9177
-5.85393
-5.78855
-5.72452
-5.66496
-5.62688
-36.7291
-37.0409
-37.3309
-37.6206
-37.9066
-38.1828
-38.4472
-38.6987
-38.9369
-39.1608
-39.37
-39.5637
-39.7417
-39.9036
-40.0494
-40.1793
-40.2938
-40.3937
-40.4807
-40.5568
-30.7582
-31.0772
-31.3816
-31.6779
-31.9651
-32.2406
-32.5035
-32.7535
-32.9901
-33.213
-33.4218
-33.6161
-33.7952
-33.9586
-34.1064
-34.239
-34.3564
-34.4589
-34.5464
-34.6178
-26.832
-27.1443
-27.4455
-27.7364
-28.0163
-28.2847
-28.5413
-28.7856
-29.0171
-29.2352
-29.4397
-29.6318
-29.8106
-29.9741
-30.1226
-30.2565
-30.3758
-30.4801
-30.5694
-30.643
-23.4905
-23.7883
-24.0774
-24.3568
-24.6256
-24.8834
-25.1305
-25.3662
-25.5904
-25.8025
-26.0023
-26.1879
-26.3595
-26.5178
-26.6629
-26.7949
-26.9129
-27.0166
-27.1061
-27.1814
-20.5868
-20.8678
-21.1416
-21.4068
-21.662
-21.907
-22.1418
-22.366
-22.5792
-22.7808
-22.9703
-23.1472
-23.3117
-23.4643
-23.6043
-23.7324
-23.8471
-23.9482
-24.0359
-24.1105
-18.1149
-18.3792
-18.6374
-18.8877
-19.1286
-19.36
-19.5818
-19.7935
-19.9948
-20.1852
-20.3645
-20.5323
-20.6888
-20.8338
-20.967
-21.0868
-21.1957
-21.2925
-21.3767
-21.4486
-16.0135
-16.2624
-16.5055
-16.7413
-16.9683
-17.1864
-17.3953
-17.5947
-17.7841
-17.9634
-18.1322
-18.2902
-18.4375
-18.5737
-18.6986
-18.8121
-18.9137
-19.0044
-19.0839
-19.1519
-14.2202
-14.4549
-14.6842
-14.9066
-15.1207
-15.3262
-15.523
-15.7107
-15.8889
-16.0573
-16.2158
-16.3641
-16.5021
-16.6295
-16.7464
-16.8525
-16.9478
-17.0319
-17.1057
-17.1692
-12.6843
-12.9064
-13.1233
-13.3335
-13.5359
-13.73
-13.9156
-14.0925
-14.2603
-14.4187
-14.5675
-14.7066
-14.8358
-14.955
-15.0641
-15.163
-15.2516
-15.33
-15.3976
-15.4562
-11.3637
-11.5747
-11.7807
-11.9802
-12.172
-12.3559
-12.5315
-12.6985
-12.8568
-13.0059
-13.1459
-13.2765
-13.3976
-13.5091
-13.611
-13.7031
-13.7855
-13.8581
-13.9211
-13.9737
-10.2237
-10.4249
-10.6213
-10.8114
-10.994
-11.1686
-11.3352
-11.4934
-11.643
-11.7838
-11.9157
-12.0386
-12.1524
-12.2569
-12.3521
-12.438
-12.5145
-12.5817
-12.6395
-12.6879
-9.23552
-9.42813
-9.6163
-9.79817
-9.97249
-10.139
-10.2974
-10.4477
-10.5895
-10.7228
-10.8474
-10.9633
-11.0704
-11.1685
-11.2578
-11.338
-11.4092
-11.4713
-11.5245
-11.5688
-8.37552
-8.56067
-8.74184
-8.91656
-9.08354
-9.24265
-9.3938
-9.53682
-9.67159
-9.79804
-9.9161
-10.0257
-10.1268
-10.2192
-10.303
-10.3781
-10.4445
-10.5022
-10.5511
-10.5915
-7.62405
-7.80279
-7.97819
-8.1467
-8.3071
-8.45953
-8.60403
-8.74048
-8.86885
-8.98911
-9.10124
-9.20515
-9.30079
-9.3881
-9.46703
-9.53753
-9.59959
-9.65323
-9.69846
-9.73548
-6.96482
-7.1383
-7.30914
-7.47222
-7.62662
-7.77293
-7.91131
-8.04174
-8.16427
-8.27891
-8.38565
-8.48443
-8.57518
-8.65785
-8.73239
-8.79876
-8.85693
-8.90693
-8.94878
-8.98262
-6.384
-6.55418
-6.72182
-6.87991
-7.02869
-7.16931
-7.30199
-7.42683
-7.54396
-7.65344
-7.75525
-7.84934
-7.93565
-8.01411
-8.08466
-8.14727
-8.20192
-8.24861
-8.28738
-8.31833
-5.86736
-6.03836
-6.20489
-6.35823
-6.50155
-6.6368
-6.76414
-6.88376
-6.9959
-7.10063
-7.19794
-7.28776
-7.37001
-7.44463
-7.51157
-7.57077
-7.62222
-7.66591
-7.70189
-7.73024
-5.39697
-5.57376
-5.74291
-5.89244
-6.03077
-6.16118
-6.28378
-6.39884
-6.50665
-6.60731
-6.70077
-6.78696
-6.8658
-6.9372
-7.00109
-7.05745
-7.10624
-7.14745
-7.18112
-7.20733
-4.96669
-5.14951
-5.32405
-5.47209
-5.60655
-5.73266
-5.85112
-5.96226
-6.06638
-6.16358
-6.25381
-6.33697
-6.41296
-6.48171
-6.54314
-6.59721
-6.6439
-6.68319
-6.7151
-6.73973
-4.64897
-4.83574
-5.00026
-5.143
-5.27128
-5.38963
-5.50066
-5.60499
-5.70264
-5.79363
-5.87793
-5.95545
-6.02606
-6.08971
-6.14635
-6.19593
-6.23846
-6.27392
-6.30232
-6.32372
-1.40019
-1.67372
-1.9898
-2.34873
-2.75783
-3.22535
-3.76023
-4.37311
-5.07684
-5.88713
-6.82333
-7.90951
-9.17588
-10.6603
-12.4113
-14.4936
-16.978
-19.8916
-23.445
-29.1106
-1.55174
-1.83009
-2.14892
-2.51124
-2.92436
-3.39638
-3.93635
-4.55503
-5.26546
-6.08351
-7.02872
-8.12542
-9.40404
-10.9027
-12.6702
-14.7714
-17.2765
-20.2118
-23.7836
-29.4562
-1.70648
-1.9898
-2.31156
-2.67749
-3.09487
-3.57162
-4.11691
-4.74165
-5.45904
-6.28513
-7.23967
-8.34721
-9.63844
-11.1518
-12.9361
-15.0562
-17.582
-20.538
-24.1275
-29.8033
-1.864
-2.1524
-2.4772
-2.84694
-3.26878
-3.75048
-4.30129
-4.9323
-5.65687
-6.49124
-7.45534
-8.57397
-9.87808
-11.4063
-13.2078
-15.3471
-17.8938
-20.871
-24.4791
-30.1631
-2.02395
-2.31751
-2.6455
-3.01923
-3.44573
-3.93255
-4.48906
-5.12652
-5.85845
-6.70127
-7.67513
-8.80504
-10.1222
-11.6656
-13.4843
-15.6431
-18.211
-21.2099
-24.8375
-30.5334
-2.18608
-2.48486
-2.81617
-3.19409
-3.62543
-4.11755
-4.67994
-5.32402
-6.06348
-6.91492
-7.89871
-9.04009
-10.3705
-11.9291
-13.7654
-15.9438
-18.5331
-21.554
-25.2012
-30.9106
-2.35012
-2.65418
-2.98892
-3.37122
-3.80758
-4.30517
-4.8736
-5.52446
-6.27162
-7.13185
-8.12574
-9.27877
-10.6227
-12.1968
-14.0506
-16.249
-18.8598
-21.9027
-25.5695
-31.293
-2.51589
-2.82522
-3.16349
-3.55032
-3.99187
-4.49507
-5.06968
-5.72746
-6.48245
-7.35161
-8.35575
-9.5206
-10.8781
-12.4679
-14.3396
-16.5579
-19.1904
-22.2556
-25.9416
-31.6798
-2.6832
-2.99777
-3.33963
-3.73114
-4.178
-4.68693
-5.26782
-5.93263
-6.69556
-7.57377
-8.58828
-9.76507
-11.1363
-12.7419
-14.6316
-16.87
-19.5242
-22.6117
-26.3167
-32.0699
-2.85199
-3.1717
-3.51716
-3.91345
-4.36571
-4.88044
-5.46768
-6.13959
-6.91053
-7.79786
-8.82284
-10.0117
-11.3968
-13.0182
-14.9259
-17.1845
-19.8606
-22.9704
-26.6942
-32.4623
-3.02223
-3.34691
-3.69591
-4.09702
-4.55472
-5.07527
-5.66889
-6.34793
-7.12692
-8.02342
-9.05891
-10.2598
-11.6588
-13.2962
-15.2221
-17.5008
-20.1987
-23.3308
-27.073
-32.8561
-3.19398
-3.52335
-3.87574
-4.28164
-4.74474
-5.27108
-5.87105
-6.55719
-7.34423
-8.24991
-9.29593
-10.509
-11.9219
-13.5753
-15.5194
-17.8182
-20.5379
-23.6921
-27.4523
-33.2502
-3.36734
-3.70095
-4.05646
-4.46701
-4.9354
-5.46742
-6.07366
-6.76686
-7.56192
-8.47677
-9.53332
-10.7585
-12.1854
-13.8548
-15.817
-18.1359
-20.8772
-24.0536
-27.8312
-33.6438
-3.54245
-3.8796
-4.23778
-4.65273
-5.12621
-5.66375
-6.27616
-6.97635
-7.77937
-8.70337
-9.77044
-11.0077
-12.4486
-14.134
-16.1142
-18.4532
-21.2159
-24.4143
-28.2091
-34.0361
-3.71928
-4.05896
-4.41918
-4.83817
-5.31649
-5.85939
-6.47785
-7.18496
-7.99592
-8.92902
-10.0066
-11.256
-12.7108
-14.4121
-16.4103
-18.7691
-21.5532
-24.7734
-28.5851
-34.4264
-3.89746
-4.23819
-4.59964
-5.02231
-5.50527
-6.05342
-6.67789
-7.39191
-8.2108
-9.15302
-10.2411
-11.5025
-12.9712
-14.6884
-16.7044
-19.0829
-21.8881
-25.13
-28.9587
-34.8143
-4.07568
-4.41542
-4.77735
-5.20357
-5.69123
-6.24472
-6.87531
-7.59633
-8.42322
-9.3746
-10.4731
-11.7466
-13.2291
-14.962
-16.9958
-19.3938
-22.2197
-25.4831
-29.3295
-35.1994
-4.25048
-4.58676
-4.94926
-5.37983
-5.87286
-6.43214
-7.06916
-7.79741
-8.63245
-9.59305
-10.7021
-11.9876
-13.4838
-15.2322
-17.2835
-19.7007
-22.5469
-25.8313
-29.6971
-35.5821
-4.41327
-4.74495
-5.11111
-5.54882
-6.04868
-6.61458
-7.25859
-7.99444
-8.83782
-9.80771
-10.9272
-12.2246
-13.7344
-15.4981
-17.5666
-20.0026
-22.8688
-26.1736
-30.0602
-35.9639
-4.54417
-4.87573
-5.25981
-5.71087
-6.2191
-6.79225
-7.4437
-8.18736
-9.03914
-10.0183
-11.1482
-12.4574
-13.9804
-15.7592
-17.8445
-20.2989
-23.1842
-26.5081
-30.4153
-36.3472
0.491457
0.287387
0.00786023
-0.313222
-0.676086
-1.08949
-1.5621
-2.103
-2.72298
-3.43521
-4.25586
-5.20501
-6.30802
-7.59722
-9.11527
-10.922
-13.0898
-15.6613
-18.8568
-24.2763
0.442045
0.234701
-0.0476159
-0.365976
-0.726136
-1.13825
-1.61033
-2.15112
-2.77145
-3.48454
-4.30666
-5.25803
-6.36417
-7.65765
-9.1814
-10.9955
-13.1726
-15.755
-18.958
-24.3732
0.403584
0.186433
-0.0982536
-0.417136
-0.777947
-1.19089
-1.66383
-2.20559
-2.82715
-3.5419
-4.36621
-5.3205
-6.43048
-7.72898
-9.25915
-11.0813
-13.2675
-15.8597
-19.0718
-24.4766
0.358419
0.137619
-0.148776
-0.46974
-0.832654
-1.24753
-1.72228
-2.26589
-2.88949
-3.60661
-4.4338
-5.39165
-6.50611
-7.81024
-9.34746
-11.1782
-13.3743
-15.9768
-19.202
-24.6049
0.307314
0.0846569
-0.203544
-0.526783
-0.892027
-1.3092
-1.78627
-2.33232
-2.95857
-3.67867
-4.50933
-5.47135
-6.59089
-7.90128
-9.44624
-11.2864
-13.4934
-16.1076
-19.3476
-24.7552
0.251264
0.0262046
-0.26392
-0.589388
-0.957024
-1.3767
-1.85642
-2.40531
-3.03467
-3.75825
-4.59294
-5.5597
-6.68494
-8.00226
-9.55567
-11.4061
-13.6251
-16.2519
-19.5075
-24.9229
0.188847
-0.0387931
-0.330672
-0.658268
-1.02832
-1.45063
-1.93322
-2.48525
-3.11807
-3.84557
-4.68476
-5.6568
-6.78834
-8.11324
-9.67581
-11.5373
-13.7691
-16.4097
-19.6813
-25.1063
0.118978
-0.111073
-0.404487
-0.73408
-1.10652
-1.5315
-2.01708
-2.57245
-3.20903
-3.9408
-4.78491
-5.76272
-6.9011
-8.2342
-9.80663
-11.6799
-13.9254
-16.5807
-19.869
-25.305
0.0414222
-0.190956
-0.485764
-0.817244
-1.19201
-1.61968
-2.10832
-2.66718
-3.30775
-4.04409
-4.89349
-5.87751
-7.02326
-8.36513
-9.94808
-11.8339
-14.0939
-16.7648
-20.0704
-25.5186
-0.0437473
-0.278503
-0.574636
-0.907934
-1.285
-1.71537
-2.20713
-2.76962
-3.41436
-4.15553
-5.01057
-6.00121
-7.15479
-8.50601
-10.1001
-11.9991
-14.2744
-16.9618
-20.2854
-25.7465
-0.136388
-0.373638
-0.67107
-1.00616
-1.38554
-1.81863
-2.3136
-2.87982
-3.52892
-4.27518
-5.13617
-6.1338
-7.29568
-8.65676
-10.2626
-12.1755
-14.4667
-17.1714
-20.5135
-25.9882
-0.236274
-0.47617
-0.774921
-1.11182
-1.49354
-1.92942
-2.42768
-2.99777
-3.65142
-4.40299
-5.27022
-6.27522
-7.44583
-8.81728
-10.4354
-12.3629
-14.6707
-17.3934
-20.7546
-26.2434
-0.343097
-0.585822
-0.88595
-1.22472
-1.60886
-2.04762
-2.54927
-3.12338
-3.78175
-4.53887
-5.41264
-6.42535
-7.6051
-8.9874
-10.6184
-12.561
-14.8862
-17.6275
-21.0082
-26.5115
-0.456489
-0.702255
-1.00385
-1.34459
-1.73125
-2.17301
-2.67819
-3.25646
-3.91975
-4.68266
-5.56324
-6.58402
-7.77331
-9.16694
-10.8113
-12.7696
-15.1128
-17.8735
-21.2741
-26.7923
-0.576056
-0.825092
-1.12828
-1.4711
-1.86043
-2.30532
-2.81418
-3.39679
-4.06519
-4.83413
-5.72183
-6.751
-7.95024
-9.35565
-11.014
-12.9886
-15.3503
-18.1309
-21.5521
-27.0855
-0.70139
-0.953933
-1.25886
-1.60391
-1.99606
-2.44424
-2.95695
-3.5441
-4.21782
-4.99304
-5.88813
-6.92604
-8.1356
-9.55323
-11.226
-13.2174
-15.5983
-18.3995
-21.8418
-27.3909
-0.832078
-1.08837
-1.39519
-1.74264
-2.13778
-2.58944
-3.10618
-3.69805
-4.37733
-5.15907
-6.06184
-7.10881
-8.32907
-9.75935
-11.447
-13.4558
-15.8564
-18.6789
-22.143
-27.7084
-0.967711
-1.22799
-1.53686
-1.8869
-2.28522
-2.74054
-3.26152
-3.85832
-4.54338
-5.3319
-6.24263
-7.29897
-8.5303
-9.97361
-11.6766
-13.7032
-16.1241
-18.9684
-22.4552
-28.0381
-1.10787
-1.37236
-1.68347
-2.03627
-2.43799
-2.89717
-3.42258
-4.02453
-4.71559
-5.51113
-6.4301
-7.49612
-8.73884
-10.1956
-11.9142
-13.9592
-16.4009
-19.2677
-22.7779
-28.3812
-1.2522
-1.52112
-1.83464
-2.19042
-2.59573
-3.05899
-3.58904
-4.19636
-4.89366
-5.69647
-6.62396
-7.69996
-8.9544
-10.4249
-12.1596
-14.2232
-16.6862
-19.5758
-23.1089
-28.7392
0.578755
0.634598
0.659882
0.674121
0.675773
0.665769
0.641993
0.622108
0.591472
0.552563
0.506673
0.454402
0.396133
0.332206
0.262952
0.188695
0.109762
0.0264748
-0.0608503
-0.151951
0.328852
0.372767
0.399371
0.415172
0.419156
0.412563
0.396948
0.371378
0.339174
0.300061
0.254063
0.201549
0.142873
0.0783779
0.00840034
-0.0667259
-0.146669
-0.231094
-0.319668
-0.412124
0.0580999
0.0973983
0.122908
0.137511
0.140671
0.133535
0.117432
0.092408
0.0595806
0.0195121
-0.0275426
-0.0812456
-0.141255
-0.207227
-0.278821
-0.3557
-0.43753
-0.523969
-0.614675
-0.709387
-0.263909
-0.22611
-0.200724
-0.186289
-0.182938
-0.18983
-0.205981
-0.230549
-0.263327
-0.303785
-0.351496
-0.406076
-0.467168
-0.534416
-0.607471
-0.685988
-0.769623
-0.858024
-0.95084
-1.04782
-0.630867
-0.594919
-0.569925
-0.555583
-0.55195
-0.558451
-0.574386
-0.599044
-0.632059
-0.672989
-0.721417
-0.77695
-0.839213
-0.907843
-0.98248
-1.06277
-1.14835
-1.23887
-1.33397
-1.43338
-1.04686
-1.01263
-0.988433
-0.97449
-0.970932
-0.977391
-0.993357
-1.01828
-1.05186
-1.09349
-1.14286
-1.19956
-1.26322
-1.33346
-1.40992
-1.49222
-1.58002
-1.67292
-1.77056
-1.87271
-1.52088
-1.48789
-1.46451
-1.45109
-1.44783
-1.45451
-1.47076
-1.49616
-1.53043
-1.57291
-1.62339
-1.68146
-1.74671
-1.81878
-1.89728
-1.98185
-2.07211
-2.16767
-2.26815
-2.37333
-2.06257
-2.03039
-2.00764
-1.99472
-1.99183
-1.99886
-2.01554
-2.04152
-2.0764
-2.12009
-2.17186
-2.23146
-2.29849
-2.37259
-2.45336
-2.54044
-2.63342
-2.73192
-2.83553
-2.94406
-2.68283
-2.65105
-2.62871
-2.61616
-2.61361
-2.62102
-2.63821
-2.66487
-2.70068
-2.74558
-2.79865
-2.85992
-2.92892
-3.00525
-3.08852
-3.17835
-3.27433
-3.37605
-3.48311
-3.59535
-3.3948
-3.36297
-3.34071
-3.32831
-3.32598
-3.33371
-3.35139
-3.37876
-3.4155
-3.46123
-3.51611
-3.57925
-3.65039
-3.72915
-3.81513
-3.90795
-4.00721
-4.11245
-4.22329
-4.33958
-4.21459
-4.18216
-4.15954
-4.14695
-4.14458
-4.15246
-4.17051
-4.19852
-4.23619
-4.2832
-4.33957
-4.40467
-4.47799
-4.5593
-4.64817
-4.74422
-4.847
-4.95607
-5.071
-5.1917
-5.16216
-5.12847
-5.1049
-5.09161
-5.08881
-5.09653
-5.11469
-5.14314
-5.18163
-5.2298
-5.28739
-5.35492
-5.43028
-5.51419
-5.60611
-5.70557
-5.81211
-5.92525
-6.04457
-6.17001
-6.26271
-6.22688
-6.20158
-6.18692
-6.18309
-6.19012
-6.20798
-6.23651
-6.27554
-6.32473
-6.38358
-6.45163
-6.53033
-6.61705
-6.71207
-6.81504
-6.92548
-7.04287
-7.16679
-7.29724
-7.54833
-7.50926
-7.48119
-7.46418
-7.45847
-7.46408
-7.48098
-7.50903
-7.54807
-7.59784
-7.65788
-7.72762
-7.80721
-7.89746
-7.99539
-8.10175
-8.21605
-8.33773
-8.46635
-8.60196
-9.06136
-9.01758
-8.98532
-8.96469
-8.95592
-8.95904
-8.97402
-9.00075
-9.03902
-9.08861
-9.14916
-9.22018
-9.30108
-9.39186
-9.49403
-9.6035
-9.72153
-9.84754
-9.98092
-10.1217
-10.8612
-10.8108
-10.7725
-10.7466
-10.7332
-10.7324
-10.7442
-10.7684
-10.8049
-10.8533
-10.9134
-10.9848
-11.0669
-11.1588
-11.2608
-11.3742
-11.4967
-11.6273
-11.7654
-11.9109
-13.0194
-12.9601
-12.9138
-12.8806
-12.8608
-12.8544
-12.8615
-12.8818
-12.9152
-12.9614
-13.0201
-13.091
-13.1736
-13.2674
-13.372
-13.4877
-13.6129
-13.7468
-13.8884
-14.0371
-15.5784
-15.5082
-15.4515
-15.4084
-15.3796
-15.3654
-15.3655
-15.3799
-15.4082
-15.4501
-15.5053
-15.5734
-15.654
-15.7464
-15.8499
-15.9639
-16.0891
-16.2248
-16.37
-16.5243
-18.7605
-18.6732
-18.5998
-18.5434
-18.5036
-18.48
-18.472
-18.4793
-18.5015
-18.5383
-18.5892
-18.6539
-18.7321
-18.8232
-18.9266
-19.0415
-19.168
-19.3062
-19.456
-19.6138
-24.1403
-24.027
-23.9379
-23.87
-23.8209
-23.7892
-23.7741
-23.775
-23.7916
-23.8234
-23.87
-23.9311
-24.0065
-24.0956
-24.1983
-24.314
-24.4434
-24.5885
-24.7505
-24.9176
-0.246588
-0.34426
-0.444803
-0.547923
-0.653347
-0.760779
-0.869913
-0.980426
-1.09197
-1.2042
-1.3167
-1.42905
-1.54069
-1.65088
-1.75862
-1.86235
-1.95923
-2.04263
-2.09571
-2.12031
-0.508249
-0.60747
-0.709619
-0.814373
-0.921443
-1.03052
-1.14128
-1.25339
-1.36649
-1.48021
-1.59412
-1.70775
-1.82053
-1.9317
-2.04013
-2.14459
-2.24387
-2.33209
-2.39301
-2.4461
-0.807912
-0.909631
-1.01438
-1.12182
-1.23164
-1.34352
-1.45714
-1.57213
-1.68814
-1.80476
-1.92157
-2.03807
-2.1537
-2.2677
-2.37907
-2.48682
-2.59025
-2.68567
-2.76478
-2.84343
-1.14877
-1.25302
-1.36043
-1.47062
-1.58327
-1.69806
-1.81464
-1.93264
-2.05168
-2.17136
-2.29122
-2.41077
-2.52943
-2.64651
-2.76111
-2.87243
-2.97978
-3.0808
-3.17291
-3.26843
-1.53695
-1.64393
-1.75419
-1.86732
-1.98302
-2.10092
-2.22067
-2.34189
-2.46419
-2.58715
-2.71031
-2.83317
-2.95518
-3.07565
-3.19387
-3.3092
-3.42095
-3.52768
-3.62949
-3.73532
-1.97918
-2.08921
-2.20262
-2.31903
-2.43809
-2.55945
-2.68272
-2.80753
-2.93347
-3.0601
-3.18698
-3.31361
-3.43943
-3.56386
-3.68627
-3.80617
-3.92303
-4.03606
-4.14627
-4.25955
-2.48303
-2.59642
-2.71334
-2.83338
-2.95619
-3.08138
-3.20859
-3.3374
-3.46742
-3.5982
-3.72928
-3.86019
-3.9904
-4.11938
-4.24661
-4.37171
-4.49427
-4.61401
-4.73204
-4.85203
-3.05734
-3.17445
-3.29525
-3.41931
-3.54627
-3.67574
-3.80732
-3.94062
-4.0752
-4.21065
-4.34649
-4.48227
-4.6175
-4.75169
-4.88442
-5.01536
-5.14425
-5.27103
-5.39667
-5.52342
-3.71257
-3.83379
-3.95888
-4.08739
-4.21895
-4.35316
-4.48962
-4.62793
-4.76764
-4.90834
-5.04957
-5.19088
-5.33181
-5.47195
-5.6109
-5.74841
-5.88426
-6.01851
-6.15187
-6.28579
-4.46114
-4.58687
-4.71668
-4.8501
-4.98675
-5.12623
-5.26812
-5.412
-5.55746
-5.70406
-5.85136
-5.99892
-6.14632
-6.29316
-6.43911
-6.58393
-6.72745
-6.86971
-7.01119
-7.15291
-5.31799
-5.44866
-5.58363
-5.72243
-5.86467
-6.00995
-6.15784
-6.30792
-6.45977
-6.61295
-6.76704
-6.9216
-7.07625
-7.2306
-7.38436
-7.53728
-7.68922
-7.84013
-7.99032
-8.14061
-6.3014
-6.43739
-6.57795
-6.72258
-6.87091
-7.02252
-7.17698
-7.33386
-7.49275
-7.6532
-7.81481
-7.97715
-8.13984
-8.30251
-8.46489
-8.62673
-8.78786
-8.94814
-9.10776
-9.26747
-7.43404
-7.57567
-7.72217
-7.87303
-8.02789
-8.1863
-8.34785
-8.5121
-8.67864
-8.84702
-9.01684
-9.18768
-9.35917
-9.53096
-9.70276
-9.87432
-10.0454
-10.2158
-10.3857
-10.5556
-8.74436
-8.89184
-9.04452
-9.2019
-9.36359
-9.52918
-9.69824
-9.87034
-10.045
-10.2219
-10.4005
-10.5805
-10.7615
-10.9431
-11.125
-11.3071
-11.4889
-11.6702
-11.8509
-12.032
-10.2698
-10.4231
-10.5821
-10.746
-10.9147
-11.0876
-11.2644
-11.4447
-11.6279
-11.8136
-12.0015
-12.1911
-12.382
-12.574
-12.7666
-12.9597
-13.1529
-13.3457
-13.5381
-13.7309
-12.0644
-12.2233
-12.388
-12.5581
-12.7335
-12.9137
-13.0981
-13.2865
-13.4782
-13.6729
-13.8702
-14.0696
-14.2708
-14.4734
-14.677
-14.8815
-15.0865
-15.2914
-15.4958
-15.7005
-14.1954
-14.3581
-14.5271
-14.7025
-14.8838
-15.0705
-15.262
-15.458
-15.6578
-15.8611
-16.0675
-16.2764
-16.4876
-16.7006
-16.9152
-17.1311
-17.348
-17.5651
-17.7817
-17.9982
-16.6842
-16.8517
-17.026
-17.2069
-17.3939
-17.5868
-17.785
-17.988
-18.1953
-18.4066
-18.6213
-18.8391
-19.0596
-19.2826
-19.5075
-19.7342
-19.9624
-20.1916
-20.4208
-20.6489
-19.7736
-19.9396
-20.1135
-20.2956
-20.4852
-20.6816
-20.8841
-21.092
-21.3048
-21.522
-21.7431
-21.9678
-22.1957
-22.4266
-22.6601
-22.8958
-23.1338
-23.3753
-23.62
-23.8624
-25.062
-25.2195
-25.3906
-25.5727
-25.7638
-25.9623
-26.1675
-26.3785
-26.5947
-26.8157
-27.0409
-27.2702
-27.5033
-27.7401
-27.9806
-28.2248
-28.474
-28.7326
-29.003
-29.2658
-29.4747
-24.0936
-20.8756
-18.2151
-15.9059
-13.9243
-12.2136
-10.7261
-9.42755
-8.29133
-7.29526
-6.42081
-5.65218
-4.97578
-4.3799
-3.8542
-3.38843
-2.97312
-2.60999
-2.31214
-29.6916
-24.3217
-21.0998
-18.4299
-16.1095
-14.1161
-12.3938
-10.8952
-9.58648
-8.44103
-7.43678
-6.5552
-5.78055
-5.09931
-4.49989
-3.97205
-3.50618
-3.09599
-2.74712
-2.45522
-29.918
-24.55
-21.3234
-18.6441
-16.3125
-14.3072
-12.5732
-11.0635
-9.74458
-8.58989
-7.57743
-6.6887
-5.90793
-5.22161
-4.61812
-4.08717
-3.61935
-3.20867
-2.8585
-2.55696
-30.1507
-24.7802
-21.5473
-18.8581
-16.515
-14.4976
-12.7518
-11.2309
-9.9016
-8.73756
-7.71677
-6.82068
-6.03347
-5.34155
-4.73316
-4.1979
-3.7263
-3.312
-2.95627
-2.64461
-30.3871
-25.0122
-21.7717
-19.072
-16.7171
-14.6874
-12.9295
-11.3972
-10.0575
-8.88395
-7.85464
-6.95097
-6.157
-5.45904
-4.84516
-4.30483
-3.82845
-3.40929
-3.04721
-2.72721
-30.6259
-25.2458
-21.9968
-19.286
-16.9188
-14.8766
-13.1064
-11.5626
-10.2122
-9.029
-7.99102
-7.07956
-6.27861
-5.57431
-4.95463
-4.40887
-3.92738
-3.50319
-3.13512
-2.80833
-30.8664
-25.4806
-22.2224
-19.5001
-17.1203
-15.0652
-13.2825
-11.7269
-10.3658
-9.17279
-8.12599
-7.20662
-6.39855
-5.68779
-5.06218
-4.51093
-4.02437
-3.59534
-3.22182
-2.88938
-31.1083
-25.7164
-22.4486
-19.7143
-17.3215
-15.2532
-13.4578
-11.8904
-10.5183
-9.3154
-8.25972
-7.33237
-6.51712
-5.79987
-5.16835
-4.6117
-4.12022
-3.68664
-3.30814
-2.97084
-31.3513
-25.9531
-22.6753
-19.9286
-17.5225
-15.4407
-13.6324
-12.0529
-10.6698
-9.45697
-8.39236
-7.45702
-6.63461
-5.91093
-5.27358
-4.71165
-4.21544
-3.77754
-3.39441
-3.05281
-31.5955
-26.1906
-22.9024
-20.143
-17.7232
-15.6277
-13.8063
-12.2147
-10.8204
-9.59764
-8.52409
-7.58078
-6.75126
-6.02121
-5.37814
-4.81108
-4.3103
-3.86825
-3.48074
-3.1352
-31.8407
-26.4289
-23.1299
-20.3575
-17.9237
-15.8144
-13.9797
-12.3757
-10.9703
-9.73752
-8.65505
-7.70382
-6.86725
-6.13093
-5.48225
-4.91016
-4.40493
-3.95887
-3.56713
-3.21791
-32.087
-26.668
-23.3579
-20.572
-18.124
-16.0005
-14.1525
-12.5361
-11.1195
-9.87671
-8.78536
-7.82626
-6.98273
-6.24022
-5.58602
-5.00902
-4.49943
-4.04941
-3.65355
-3.30083
-32.3346
-26.9079
-23.5864
-20.7867
-18.3242
-16.1863
-14.3247
-12.6959
-11.2681
-10.0153
-8.91511
-7.94821
-7.0978
-6.34919
-5.68957
-5.10772
-4.59385
-4.13991
-3.73999
-3.38392
-32.5837
-27.1486
-23.8152
-21.0014
-18.5241
-16.3717
-14.4964
-12.8551
-11.4161
-10.1533
-9.04437
-8.06976
-7.21254
-6.45792
-5.79296
-5.20634
-4.68823
-4.2304
-3.82644
-3.46714
-32.8343
-27.3901
-24.0445
-21.2162
-18.7238
-16.5567
-14.6676
-13.0138
-11.5636
-10.2909
-9.1732
-8.19096
-7.32703
-6.56648
-5.89625
-5.30493
-4.78261
-4.3209
-3.91294
-3.55053
-33.0866
-27.6324
-24.2741
-21.4309
-18.9232
-16.7412
-14.8383
-13.1719
-11.7105
-10.428
-9.30167
-8.31187
-7.44132
-6.67493
-5.99951
-5.40355
-4.87707
-4.41149
-3.99956
-3.63414
-33.3415
-27.8755
-24.5038
-21.6455
-19.1221
-16.9251
-15.0083
-13.3294
-11.8569
-10.5646
-9.42977
-8.43253
-7.55547
-6.78333
-6.1028
-5.50226
-4.97167
-4.50224
-4.08637
-3.71806
-33.6016
-28.1201
-24.7336
-21.8595
-19.3203
-17.1082
-15.1775
-13.4861
-12.0026
-10.7006
-9.55743
-8.55288
-7.66943
-6.89167
-6.20613
-5.6011
-5.06645
-4.59321
-4.17346
-3.80238
-33.8686
-28.3663
-24.9627
-22.0725
-19.5174
-17.2902
-15.3457
-13.6419
-12.1475
-10.8361
-9.68461
-8.67289
-7.78319
-6.99992
-6.30949
-5.70007
-5.16145
-4.68445
-4.26088
-3.88718
-34.1303
-28.6103
-25.1905
-22.2848
-19.7142
-17.472
-15.5137
-13.7976
-12.2923
-10.9714
-9.81178
-8.79297
-7.89708
-7.10839
-6.41314
-5.7994
-5.25686
-4.77613
-4.34882
-3.97265
-3.03365
-2.03804
-1.47962
-1.08813
-0.848775
-0.676334
-0.560662
-0.476688
-0.416301
-0.370677
-0.335195
-0.306028
-0.280567
-0.256579
-0.232365
-0.206734
-0.179534
-0.151405
-0.123881
-0.098432
-0.0762422
-0.0578485
-0.0432284
-0.0319797
-0.0235135
-0.0172273
-0.0125882
-0.00917356
-0.00666068
-0.00481323
-0.0034583
-0.00246647
-0.00174499
-0.00121833
-0.000840943
-0.000560243
-0.000370323
-0.000202679
-0.000125158
2.7368e-05
-3.12515
-2.09281
-1.52597
-1.11927
-0.871505
-0.691662
-0.570794
-0.482791
-0.419402
-0.371501
-0.334313
-0.3039