/*--------------------------------*- C++ -*----------------------------------*\
  =========                 |
  \\      /  F ield         | OpenFOAM: The Open Source CFD Toolbox
   \\    /   O peration     | Website:  https://openfoam.org
    \\  /    A nd           | Version:  6.0
     \\/     M anipulation  |
\*---------------------------------------------------------------------------*/
FoamFile
{
    version     2.0;
    format      ascii;
    class       surfaceScalarField;
    location    "1.75";
    object      phi;
}
// * * * * * * * * * * * * * * * * * * * * * * * * * * * * * * * * * * * * * //

dimensions      [0 3 -1 0 0 0 0];

internalField   nonuniform List<scalar> 
38030
(
-1.42002e-07
-0.0809025
0.0809026
3.12377e-05
-0.0766781
0.0766467
8.98396e-05
-0.0729236
0.0728649
0.000172593
-0.0695637
0.0694809
0.00027713
-0.0665327
0.0664281
0.000400768
-0.0637736
0.0636499
0.000540676
-0.0612395
0.0610996
0.000694066
-0.0588926
0.0587392
0.000858316
-0.0567024
0.0565381
0.00103105
-0.0546447
0.054472
0.00121017
-0.0527007
0.0525215
0.00139391
-0.0508552
0.0506715
0.00158081
-0.0490967
0.0489098
0.00176969
-0.0474158
0.0472269
0.00195964
-0.0458052
0.0456152
0.00215001
-0.044259
0.0440686
0.00234033
-0.0427724
0.042582
0.00253033
-0.0413413
0.0411513
0.00271984
-0.0399624
0.0397729
0.00290881
-0.0386326
0.0384437
0.00309726
-0.0373494
0.0371609
0.00328524
-0.0361102
0.0359222
0.00347278
-0.0349132
0.0347256
0.00365992
-0.033757
0.0335698
0.0038467
-0.0326405
0.0324537
0.00403312
-0.031562
0.0313755
0.00421919
-0.0305194
0.0303334
0.00440484
-0.0295109
0.0293253
0.0045899
-0.0285348
0.0283497
-0.0275895
0.0274053
0.00477415
6.86534e-06
-0.0809093
3.95042e-05
-0.0767107
9.91772e-05
-0.0729832
0.000183887
-0.0696484
0.000291054
-0.0666398
0.000417767
-0.0639003
0.000561002
-0.0613828
0.000717816
-0.0590494
0.000885473
-0.05687
0.00106152
-0.0548208
0.00124381
-0.052883
0.00143056
-0.051042
0.00162027
-0.0492864
0.00181178
-0.0476073
0.0020042
-0.0459976
0.00219689
-0.0444517
0.00238943
-0.0429649
0.00258156
-0.0415334
0.00277317
-0.040154
0.00296425
-0.0388237
0.00315488
-0.03754
0.00334511
-0.0363004
0.00353504
-0.0351031
0.0037247
-0.0339466
0.00391414
-0.0328299
0.00410343
-0.0317512
0.00429261
-0.0307086
0.00448164
-0.0297
0.00467042
-0.0287235
-0.0277778
0.00485871
9.49538e-06
-0.0809188
4.47004e-05
-0.0767459
0.000106819
-0.0730453
0.000194319
-0.0697359
0.000304623
-0.0667501
0.000434716
-0.0640304
0.000581457
-0.0615295
0.000741797
-0.0592097
0.00091291
-0.0570411
0.00109228
-0.0550001
0.00127772
-0.0530684
0.00146742
-0.0512317
0.00165987
-0.0494789
0.00185394
-0.0478014
0.00204873
-0.0461924
0.00224364
-0.0446466
0.00243827
-0.0431595
0.00263241
-0.0417276
0.00282599
-0.0403476
0.00301906
-0.0390168
0.00321172
-0.0377327
0.00340411
-0.0364928
0.00359633
-0.0352953
0.00378843
-0.0341388
0.00398048
-0.0330219
0.00417251
-0.0319433
0.00436471
-0.0309008
0.00455706
-0.0298923
0.00474947
-0.028916
-0.0279701
0.00494174
1.1039e-05
-0.0809299
4.86884e-05
-0.0767836
0.000113601
-0.0731103
0.000204233
-0.0698265
0.000317942
-0.0668638
0.000451605
-0.0641641
0.000601974
-0.0616799
0.000765904
-0.0593737
0.000940494
-0.0572157
0.00112317
-0.0551828
0.00131172
-0.053257
0.00150429
-0.0514242
0.00169941
-0.049674
0.00189592
-0.0479979
0.00209297
-0.0463894
0.00228996
-0.0448436
0.00248655
-0.0433561
0.00268255
-0.0419236
0.00287795
-0.040543
0.00307284
-0.0392117
0.00326737
-0.0379272
0.00346176
-0.0366872
0.00365617
-0.0354897
0.00385063
-0.0343332
0.00404516
-0.0332165
0.00423991
-0.032138
0.00443497
-0.0310959
0.00463053
-0.0300879
0.00482649
-0.0291119
-0.0281662
0.00502264
1.21905e-05
-0.0809421
5.21165e-05
-0.0768235
0.000119909
-0.073178
0.000213828
-0.0699204
0.000331086
-0.0669811
0.000468428
-0.0643014
0.000622492
-0.0618339
0.000790038
-0.0595412
0.000968094
-0.0573938
0.00115403
-0.0553688
0.00134562
-0.0534485
0.00154098
-0.0516196
0.00173865
-0.0498717
0.00193748
-0.0481967
0.00213664
-0.0465886
0.00233558
-0.0450425
0.00253396
-0.0435545
0.00273167
-0.0421213
0.00292871
-0.04074
0.00312523
-0.0394082
0.00332146
-0.0381234
0.00351767
-0.0368834
0.00371405
-0.0356861
0.00391073
-0.0345299
0.00410766
-0.0334134
0.004305
-0.0323354
0.0045029
-0.0312938
0.00470153
-0.0302865
0.0049009
-0.0293113
-0.0283662
0.00510084
1.31692e-05
-0.0809552
5.52619e-05
-0.0768656
0.000125949
-0.0732487
0.000223219
-0.0700177
0.000344096
-0.067102
0.00048517
-0.0644425
0.000642951
-0.0619917
0.000814104
-0.0597124
0.000995584
-0.0575753
0.00118472
-0.0555579
0.00137924
-0.0536431
0.00157728
-0.0518177
0.00177737
-0.0500717
0.00197837
-0.0483977
0.00217948
-0.0467897
0.00238019
-0.0452432
0.00258019
-0.0437545
0.00277942
-0.0423205
0.00297792
-0.0409385
0.0031759
-0.0396062
0.00337363
-0.0383212
0.00357144
-0.0370812
0.00376957
-0.0358842
0.0039682
-0.0347285
0.00416738
-0.0336126
0.00436716
-0.0325352
0.00456782
-0.0314944
0.00476943
-0.0304881
0.00497211
-0.029514
-0.0285697
0.0051757
1.40691e-05
-0.0809693
5.82607e-05
-0.0769098
0.00013183
-0.0733223
0.000232474
-0.0701183
0.000356995
-0.0672265
0.000501809
-0.0645873
0.000663293
-0.0621532
0.00083801
-0.0598871
0.00102284
-0.0577601
0.00121508
-0.0557501
0.00141242
-0.0538404
0.00161299
-0.0520182
0.00181533
-0.0502741
0.00201833
-0.0486007
0.00222121
-0.0469926
0.00242349
-0.0454455
0.00262492
-0.0439559
0.00282545
-0.042521
0.00302521
-0.0411383
0.00322444
-0.0398054
0.00342345
-0.0385202
0.00362261
-0.0372804
0.00382228
-0.0360839
0.00402263
-0.0349289
0.00422383
-0.0338138
0.00442595
-0.0327373
0.00462914
-0.0316976
0.00483363
-0.0306926
0.00503948
-0.0297198
-0.0287769
0.00524659
1.49296e-05
-0.0809842
6.118e-05
-0.076956
0.000137615
-0.0733987
0.000241627
-0.0702223
0.000369784
-0.0673546
0.000518317
-0.0647358
0.000683459
-0.0623184
0.000861669
-0.0600653
0.00104976
-0.0579482
0.00124497
-0.0559453
0.00144498
-0.0540404
0.00164792
-0.0522212
0.00185233
-0.0504785
0.00205713
-0.0488055
0.00226157
-0.047197
0.0024652
-0.0456491
0.00266782
-0.0441585
0.00286943
-0.0427226
0.0030702
-0.0413391
0.00327041
-0.0400056
0.00347044
-0.0387202
0.00367073
-0.0374807
0.00387167
-0.0362848
0.00407361
-0.0351308
0.00427665
-0.0340168
0.00448088
-0.0329415
0.00468648
-0.0319032
0.00489359
-0.0308997
0.00510244
-0.0299287
-0.0289873
0.00531293
1.57723e-05
-0.081
6.40523e-05
-0.0770043
0.000143331
-0.073478
0.000250693
-0.0703297
0.000382456
-0.0674864
0.000534661
-0.064888
0.00070339
-0.0624871
0.000884995
-0.0602469
0.00107622
-0.0581394
0.00127425
-0.0561434
0.00147676
-0.0542429
0.00168188
-0.0524263
0.00188816
-0.0506848
0.00209454
-0.0490119
0.00230031
-0.0474028
0.00250505
-0.0458539
0.00270862
-0.0443621
0.00291104
-0.0429251
0.00311255
-0.0415406
0.00331347
-0.0402065
0.00351425
-0.038921
0.00371537
-0.0376818
0.00391736
-0.0364868
0.00412057
-0.035334
0.00432526
-0.0342215
0.00453143
-0.0331477
0.00473925
-0.032111
0.00494883
-0.0311093
0.00516048
-0.0301403
-0.029201
0.00537417
1.66042e-05
-0.0810166
6.6896e-05
-0.0770546
0.000148994
-0.0735601
0.000259672
-0.0704404
0.000394997
-0.0676217
0.000550804
-0.0650438
0.000723027
-0.0626593
0.000907907
-0.0604318
0.00110211
-0.0583336
0.0013028
-0.0563441
0.00150762
-0.0544477
0.0017147
-0.0526334
0.00192262
-0.0508927
0.00213033
-0.0492196
0.00233718
-0.0476097
0.00254278
-0.0460595
0.00274702
-0.0445663
0.00294999
-0.043128
0.00315196
-0.0417425
0.00335331
-0.0404079
0.00355454
-0.0391222
0.00375621
-0.0378835
0.0039589
-0.0366895
0.00416306
-0.0355382
0.00436906
-0.0344275
0.00457696
-0.0333556
0.00478676
-0.0323208
0.00499876
-0.0313213
0.005213
-0.0303545
-0.0294177
0.00542972
1.74299e-05
-0.081034
6.97156e-05
-0.0771069
0.000154605
-0.073645
0.000268558
-0.0705543
0.000407383
-0.0677606
0.000566707
-0.0652032
0.00074231
-0.0628349
0.000930322
-0.0606198
0.00112734
-0.0585306
0.00133049
-0.0565472
0.0015374
-0.0546546
0.00174621
-0.0528422
0.00195551
-0.051102
0.00216431
-0.0494284
0.00237196
-0.0478173
0.00257814
-0.0462656
0.00278276
-0.044771
0.00298598
-0.0433313
0.00318811
-0.0419447
0.0033896
-0.0406094
0.00359099
-0.0393236
0.00379288
-0.0380853
0.0039959
-0.0368925
0.00420068
-0.035743
0.00440759
-0.0346344
0.00461687
-0.0335649
0.00482851
-0.0325325
0.00504266
-0.0315355
0.00525941
-0.0305713
-0.0296373
0.00547896
1.82512e-05
-0.0810523
7.25115e-05
-0.0771612
0.000160161
-0.0737327
0.00027734
-0.0706715
0.000419592
-0.0679028
0.000582333
-0.0653659
0.000761185
-0.0630138
0.000952169
-0.0608108
0.00115182
-0.0587303
0.00135721
-0.0567526
0.00156597
-0.0548634
0.00177626
-0.0530525
0.00198668
-0.0513124
0.00219627
-0.049638
0.00240443
-0.0480255
0.00261088
-0.0464721
0.00281558
-0.0449757
0.00301874
-0.0435344
0.00322071
-0.0421466
0.003422
-0.0408107
0.00362321
-0.0395248
0.00382499
-0.0382871
0.00402803
-0.0370956
0.00423302
-0.0359479
0.00444046
-0.0348419
0.00465073
-0.0337751
0.00486388
-0.0327456
0.00507992
-0.0317515
0.00529905
-0.0307904
-0.0298595
0.00552123
1.9066e-05
-0.0810713
7.52827e-05
-0.0772174
0.000165656
-0.073823
0.000286004
-0.0707919
0.000431599
-0.0680484
0.000597645
-0.0655319
0.000779599
-0.0631957
0.000973376
-0.0610046
0.00117544
-0.0589323
0.00138284
-0.05696
0.00159321
-0.0550738
0.00180469
-0.053264
0.00201595
-0.0515236
0.00222603
-0.0498481
0.00243439
-0.0482338
0.00264079
-0.0466785
0.00284524
-0.0451801
0.003048
-0.0437372
0.00324947
-0.0423481
0.00345021
-0.0410114
0.00365088
-0.0397255
0.00385219
-0.0384884
0.00405488
-0.0372983
0.00425969
-0.0361528
0.00446728
-0.0350495
0.00467808
-0.0339859
0.00489234
-0.0329599
0.00511002
-0.0319692
0.0053312
-0.0310116
-0.0300841
0.00555588
1.98738e-05
-0.0810912
7.8023e-05
-0.0772755
0.000171081
-0.0739161
0.000294538
-0.0709153
0.000443386
-0.0681973
0.00061261
-0.0657012
0.000797506
-0.0633806
0.000993881
-0.0612009
0.00119814
-0.0591366
0.0014073
-0.0571692
0.00161899
-0.0552855
0.00183139
-0.0534763
0.00204316
-0.0517354
0.00225343
-0.0500583
0.00246166
-0.0484421
0.00266767
-0.0468845
0.00287153
-0.045384
0.00307352
-0.0439392
0.00327412
-0.0425487
0.00347394
-0.0412112
0.0036737
-0.0399252
0.00387415
-0.0386889
0.0040761
-0.0375002
0.00428035
-0.036357
0.00448764
-0.0352567
0.00469854
-0.0341968
0.00491344
-0.0331748
0.00513237
-0.0321881
0.00535528
-0.0312345
-0.0303112
0.00558229
2.06716e-05
-0.0811119
8.0729e-05
-0.0773356
0.00017643
-0.0740118
0.000302929
-0.0710418
0.000454934
-0.0683493
0.0006272
-0.0658734
0.000814864
-0.0635683
0.00101363
-0.0613997
0.00121983
-0.0593428
0.00143049
-0.0573798
0.00164321
-0.0554982
0.00185622
-0.0536894
0.0020682
-0.0519474
0.00227831
-0.0502684
0.00248608
-0.0486498
0.00269135
-0.0470898
0.00289424
-0.0455869
0.0030951
-0.04414
0.00329444
-0.0427481
0.00349295
-0.0414098
0.00369137
-0.0401237
0.00389055
-0.0388881
0.00409135
-0.037701
0.00429462
-0.0365603
0.00450117
-0.0354633
0.00471172
-0.0344074
0.00492672
-0.0333898
0.00514645
-0.0324078
0.00537081
-0.0314589
-0.0305401
0.00559979
2.14577e-05
-0.0811333
8.33963e-05
-0.0773975
0.000181698
-0.0741101
0.000311173
-0.0711713
0.00046623
-0.0685043
0.000641394
-0.0660486
0.000831639
-0.0637585
0.00103256
-0.0616006
0.00124046
-0.0595507
0.00145233
-0.0575917
0.00166579
-0.0557117
0.00187908
-0.0539026
0.00209094
-0.0521593
0.00230056
-0.0504781
0.0025075
-0.0488568
0.00271167
-0.0472939
0.00291322
-0.0457884
0.00311255
-0.0443393
0.00331023
-0.0429457
0.003507
-0.0416065
0.00370366
-0.0403203
0.00390113
-0.0390855
0.00410033
-0.0379002
0.00430218
-0.0367621
0.00450756
-0.0356687
0.00471729
-0.0346171
0.00493195
-0.0336044
0.00515193
-0.0326278
0.00537727
-0.0316842
-0.0307706
0.00560771
2.22283e-05
-0.0811556
8.6021e-05
-0.0774613
0.000186884
-0.074211
0.000319267
-0.0713037
0.00047727
-0.0686623
0.000655179
-0.0662265
0.000847805
-0.0639512
0.00105066
-0.0618035
0.00125998
-0.05976
0.00147276
-0.0578044
0.00168665
-0.0559256
0.0018999
-0.0541159
0.00211129
-0.0523707
0.00232006
-0.0506868
0.00252582
-0.0490625
0.00272851
-0.0474966
0.00292833
-0.0459883
0.00312573
-0.0445367
0.00332133
-0.0431413
0.00351591
-0.0418011
0.00371034
-0.0405148
0.00390562
-0.0392808
0.00410273
-0.0380973
0.00430269
-0.0369621
0.00450644
-0.0358724
0.00471487
-0.0348255
0.00492869
-0.0338183
0.00514831
-0.0328474
0.00537393
-0.0319098
-0.031002
0.00560531
2.29797e-05
-0.0811786
8.86016e-05
-0.0775269
0.000191992
-0.0743143
0.000327221
-0.0714389
0.000488058
-0.0688232
0.000668549
-0.066407
0.000863347
-0.064146
0.00106787
-0.062008
0.00127834
-0.0599705
0.00149173
-0.0580178
0.00170571
-0.0561395
0.00191859
-0.0543288
0.00212917
-0.0525812
0.00233674
-0.0508944
0.00254095
-0.0492668
0.00274179
-0.0476975
0.00293949
-0.046186
0.00313455
-0.0447318
0.00332763
-0.0433344
0.00351954
-0.041993
0.00371125
-0.0407065
0.00390378
-0.0394733
0.00409823
-0.0382918
0.0042957
-0.0371595
0.00449724
-0.036074
0.00470379
-0.0350321
0.00491614
-0.0340306
0.00513484
-0.0330661
0.00536009
-0.0321351
-0.0312337
0.00559183
2.37093e-05
-0.0812023
9.11419e-05
-0.0775944
0.000197036
-0.0744202
0.000335051
-0.0715769
0.000498609
-0.0689867
0.000681509
-0.0665899
0.000878254
-0.0643427
0.00108419
-0.0622139
0.0012955
-0.0601818
0.00150918
-0.0582315
0.00172294
-0.0563533
0.0019351
-0.0545409
0.00214452
-0.0527907
0.00235054
-0.0511004
0.00255284
-0.0494691
0.00275145
-0.0478961
0.00294666
-0.0463812
0.00313896
-0.0449241
0.00332907
-0.0435245
0.00351784
-0.0421818
0.00370628
-0.0408949
0.00389548
-0.0396625
0.00408662
-0.0384829
0.0042809
-0.0373538
0.00447948
-0.0362726
0.00468342
-0.035236
0.00489362
-0.0342408
0.00511071
-0.0332832
0.00533504
-0.0323594
-0.0314652
0.00556655
2.44118e-05
-0.0812267
9.36493e-05
-0.0776636
0.000202041
-0.0745286
0.00034279
-0.0717177
0.000508952
-0.0691529
0.000694075
-0.066775
0.000892527
-0.0645411
0.00109959
-0.062421
0.00131144
-0.0603937
0.00152509
-0.0584452
0.00173829
-0.0565665
0.00194939
-0.054752
0.00215732
-0.0529986
0.00236143
-0.0513045
0.00256148
-0.0496691
0.0027575
-0.0480921
0.00294982
-0.0465735
0.00313898
-0.0451133
0.00332569
-0.0437112
0.00351084
-0.0423669
0.00369547
-0.0410795
0.00388074
-0.0398478
0.00406788
-0.0386701
0.00425821
-0.0375441
0.004453
-0.0364673
0.00465347
-0.0354365
0.00486066
-0.034448
0.00507535
-0.0334979
0.00529799
-0.032582
-0.0316958
0.00552862
2.5085e-05
-0.0812518
9.61452e-05
-0.0777347
0.00020705
-0.0746395
0.00035049
-0.0718611
0.000519128
-0.0693215
0.000706274
-0.0669622
0.000906173
-0.064741
0.00111407
-0.0626289
0.00132614
-0.0606057
0.00153944
-0.0586585
0.00175173
-0.0567788
0.00196144
-0.0549617
0.00216753
-0.0532047
0.00236941
-0.0515064
0.00256686
-0.0498666
0.00275996
-0.0482852
0.00294905
-0.0467626
0.00313469
-0.0452989
0.00331759
-0.0438941
0.00349868
-0.042548
0.00367899
-0.0412598
0.00385971
-0.0400285
0.00404216
-0.0388525
0.00422772
-0.0377297
0.00441782
-0.0366574
0.00461383
-0.0356325
0.00481699
-0.0346512
0.00502829
-0.0337092
0.00524833
-0.0328021
-0.0319247
0.00547721
2.57305e-05
-0.0812775
9.86681e-05
-0.0778076
0.000212136
-0.074753
0.000358228
-0.0720072
0.000529198
-0.0694925
0.000718138
-0.0671511
0.000919204
-0.0649421
0.00112762
-0.0628373
0.00133959
-0.0608177
0.00155218
-0.0588711
0.00176324
-0.0569898
0.00197123
-0.0551697
0.00217516
-0.0534086
0.00237449
-0.0517057
0.00256902
-0.0500611
0.00275889
-0.0484751
0.00294444
-0.0469481
0.00312623
-0.0454807
0.00330499
-0.0440729
0.0034816
-0.0427246
0.00365712
-0.0414354
0.00383274
-0.0402042
0.0040098
-0.0390296
0.00418976
-0.0379097
0.00437419
-0.0368419
0.00456464
-0.035823
0.00476259
-0.0348491
0.00496927
-0.0339159
0.00518551
-0.0330183
-0.0321507
0.00541154
2.63636e-05
-0.0813039
0.000101295
-0.0778825
0.000217411
-0.0748691
0.000366109
-0.0721559
0.000539238
-0.0696656
0.000729712
-0.0673416
0.000931633
-0.065144
0.00114023
-0.0630459
0.00135175
-0.0610292
0.00156332
-0.0590826
0.00177281
-0.0571993
0.00197875
-0.0553757
0.00218021
-0.0536101
0.00237668
-0.0519022
0.00256803
-0.0502524
0.00275439
-0.0486614
0.00293613
-0.0471299
0.00311381
-0.0456584
0.00328813
-0.0442472
0.00345996
-0.0428965
0.00363031
-0.0416057
0.00380033
-0.0403742
0.00397138
-0.0392006
0.00414495
-0.0380832
0.0043227
-0.0370196
0.00450638
-0.0360066
0.00469772
-0.0350404
0.00489829
-0.0341165
0.00510922
-0.0332293
-0.0323725
0.00533094
2.70259e-05
-0.0813309
0.00010416
-0.0779597
0.000223044
-0.074988
0.000374278
-0.0723071
0.000549342
-0.0698407
0.000741038
-0.0675333
0.000943468
-0.0653465
0.0011519
-0.0632543
0.00136262
-0.0612399
0.00157281
-0.0592928
0.0017804
-0.0574069
0.00198398
-0.0555793
0.00218267
-0.0538088
0.00237602
-0.0520956
0.00256393
-0.0504403
0.00274656
-0.0488441
0.00292429
-0.0473076
0.00309767
-0.0458317
0.00326738
-0.0444169
0.00343422
-0.0430633
0.00359914
-0.0417706
0.00376323
-0.0405383
0.00392777
-0.0393652
0.00409424
-0.0382497
0.00426434
-0.0371897
0.00443997
-0.0361823
0.00462313
-0.0352236
0.00481577
-0.0343091
0.00501948
-0.033433
-0.032588
0.00523499
2.78327e-05
-0.0813587
0.00010751
-0.0780393
0.00022929
-0.0751098
0.000382917
-0.0724608
0.000559609
-0.0700174
0.000752155
-0.0677258
0.000954707
-0.065549
0.00116259
-0.0634622
0.00137215
-0.0614495
0.00158061
-0.0595013
0.00178599
-0.0576123
0.00198691
-0.0557802
0.00218255
-0.0540044
0.00237253
-0.0522855
0.00255678
-0.0506246
0.00273551
-0.0490228
0.00290909
-0.0474812
0.00307806
-0.0460007
0.00324308
-0.0445819
0.00340488
-0.0432251
0.00356431
-0.0419301
0.00372234
-0.0406963
0.00388013
-0.039523
0.00403902
-0.0384086
0.00420067
-0.0373514
0.00436702
-0.0363486
0.0045403
-0.0353969
0.0047229
-0.0344917
0.00491699
-0.0336271
-0.0327948
0.00512382
2.90406e-05
-0.0813878
0.000111756
-0.0781221
0.000236495
-0.0752345
0.000392237
-0.0726165
0.000570134
-0.0701953
0.00076308
-0.0679188
0.000965323
-0.0657513
0.00117226
-0.0636691
0.00138028
-0.0616575
0.00158668
-0.0597077
0.00178952
-0.0578151
0.00198748
-0.0559781
0.00217983
-0.0541968
0.00236621
-0.0524719
0.00254662
-0.050805
0.0027213
-0.0491975
0.00289066
-0.0476505
0.00305522
-0.0461653
0.0032156
-0.0447423
0.00337248
-0.043382
0.00352658
-0.0420842
0.00367874
-0.0408485
0.00382989
-0.0396741
0.00398117
-0.0385599
0.00413399
-0.0375042
0.00429018
-0.0365048
0.00445201
-0.0355587
0.00462224
-0.0346619
0.00480383
-0.0338086
-0.0329899
0.00499887
3.11487e-05
-0.0814189
0.000117519
-0.0782084
0.000245086
-0.0753621
0.000402446
-0.0727739
0.000580976
-0.0703738
0.00077379
-0.0681116
0.000975258
-0.0659527
0.00118083
-0.0638747
0.00138695
-0.0618636
0.00159094
-0.0599117
0.00179091
-0.0580151
0.00198564
-0.0561729
0.00217443
-0.0543855
0.00235701
-0.0526545
0.00253342
-0.0509814
0.00270396
-0.049368
0.00286907
-0.0478157
0.00302929
-0.0463255
0.00318521
-0.0448982
0.00333746
-0.0435342
0.00348667
-0.0422334
0.0036335
-0.0409953
0.00377865
-0.0398193
0.00392294
-0.0387042
0.00406738
-0.0376486
0.00421337
-0.0366508
0.00436285
-0.0357082
0.0045186
-0.0348177
0.00468439
-0.0339744
-0.0331693
0.00486384
3.5086e-05
-0.081454
0.000125762
-0.0782991
0.000255606
-0.0754919
0.000413735
-0.072932
0.000592138
-0.0705522
0.000784209
-0.0683037
0.000984406
-0.0661529
0.0011882
-0.0640785
0.00139203
-0.0620675
0.00159327
-0.0601129
0.00179009
-0.0582119
0.0019813
-0.0563641
0.00216628
-0.0545705
0.00234485
-0.0528331
0.00251712
-0.0511537
0.00268344
-0.0495343
0.00284431
-0.0479765
0.00300029
-0.0464815
0.003152
-0.04505
0.00330005
-0.0436823
0.00344502
-0.0423783
0.00358744
-0.0411377
0.0037278
-0.0399596
0.00386657
-0.038843
0.00400427
-0.0377863
0.00414154
-0.036788
0.00427941
-0.0358461
0.0044197
-0.034958
0.00456619
-0.0341209
-0.0333289
0.00472582
4.33074e-05
-0.0814973
0.000138485
-0.0783943
0.00026886
-0.0756223
0.000426234
-0.0730894
0.000603496
-0.0707295
0.000794153
-0.0684943
0.000992586
-0.0663514
0.00119419
-0.0642801
0.00139539
-0.0622687
0.00159355
-0.0603111
0.00178689
-0.0584052
0.0019743
-0.0565515
0.00215524
-0.0547515
0.0023296
-0.0530074
0.00249756
-0.0513217
0.00265957
-0.0496963
0.00281618
-0.0481331
0.00296804
-0.0466333
0.00311582
-0.0451977
0.00326015
-0.0438266
0.00340164
-0.0425198
0.00354082
-0.0412769
0.00367812
-0.0400969
0.00381381
-0.0389786
0.00394799
-0.0379205
0.00408056
-0.0369206
0.00421101
-0.0359765
0.00433836
-0.0350853
0.00446388
-0.0342464
-0.0334655
0.00460048
6.36177e-05
-0.0815609
0.00015868
-0.0784893
0.000285126
-0.0757488
0.000439518
-0.0732438
0.000614589
-0.0709045
0.000803254
-0.068683
0.000999521
-0.0665476
0.00119859
-0.0644792
0.00139683
-0.0624669
0.0015916
-0.0605059
0.00178117
-0.0585948
0.0019645
-0.0567348
0.00214113
-0.0549281
0.00231104
-0.0531773
0.00247452
-0.0514851
0.00263208
-0.0498539
0.00278438
-0.0482854
0.00293214
-0.0467811
0.00307613
-0.0453417
0.0032171
-0.0439676
0.00335579
-0.0426585
0.0034929
-0.041414
0.0036291
-0.0402331
0.00376499
-0.0391145
0.00390109
-0.0380566
0.00403761
-0.0370571
0.00417379
-0.0361127
0.00430491
-0.0352164
0.00442005
-0.0343616
-0.0335654
0.00451988
0.0824942
4.48903e-05
-0.0825391
0.0824601
3.41387e-05
0.0824295
3.05711e-05
0.0824
2.95475e-05
0.0823704
2.95884e-05
0.0823403
3.01121e-05
0.0823095
3.08189e-05
0.0822779
3.15666e-05
0.0822456
3.2302e-05
0.0822126
3.29961e-05
0.082179
3.36178e-05
0.0821448
3.41394e-05
0.0821103
3.45562e-05
0.0820754
3.4884e-05
0.0820403
3.51309e-05
0.082005
3.52998e-05
0.0819696
3.53939e-05
0.0819342
3.54145e-05
0.0818988
3.53603e-05
0.0818636
3.52321e-05
0.0818285
3.50267e-05
0.0817938
3.47391e-05
0.0817595
3.4357e-05
0.0817256
3.38637e-05
0.0816924
3.32215e-05
0.08166
3.23563e-05
0.0816289
3.11062e-05
0.0815998
2.90954e-05
0.0815747
2.51525e-05
1.37402e-05
0.0807877
0.000102996
-0.0808458
0.0807254
9.63726e-05
0.0806619
9.40778e-05
0.0805971
9.43308e-05
0.0805308
9.59146e-05
0.0804627
9.82193e-05
0.0803927
0.000100879
0.0803206
0.000103664
0.0802464
0.00010646
0.0801702
0.000109174
0.0800921
0.000111697
0.0800123
0.000113968
0.0799309
0.000115961
0.0798481
0.000117694
0.0797641
0.000119168
0.079679
0.000120384
0.079593
0.000121345
0.0795064
0.000122051
0.0794192
0.000122499
0.0793318
0.000122688
0.0792442
0.000122609
0.0791567
0.000122253
0.0790695
0.000121594
0.0789827
0.000120594
0.0788968
0.000119184
0.0788119
0.000117236
0.0787285
0.00011451
0.0786471
0.000110527
0.078568
0.000104195
9.23995e-05
0.0789313
0.000163073
-0.0789914
0.0788627
0.000164999
0.0787883
0.000168471
0.0787093
0.000173311
0.0786262
0.000179005
0.0785392
0.000185184
0.0784485
0.00019159
0.0783541
0.000198049
0.0782562
0.000204425
0.0781548
0.000210579
0.0780501
0.000216378
0.0779423
0.00022173
0.0778317
0.000226604
0.0777184
0.000230991
0.0776027
0.000234883
0.0774848
0.000238272
0.077365
0.000241154
0.0772435
0.000243525
0.0771206
0.00024538
0.0769966
0.000246713
0.0768717
0.000247514
0.0767462
0.000247767
0.0766203
0.000247443
0.0764944
0.000246496
0.0763688
0.000244851
0.0762436
0.000242382
0.0761192
0.000238878
0.0759958
0.000233978
0.075873
0.000227022
0.000216606
0.0769258
0.000216928
-0.0769796
0.0768623
0.000228444
0.0767907
0.000240069
0.076712
0.000252027
0.0766268
0.000264194
0.0765356
0.000276396
0.0764387
0.000288506
0.0763364
0.000300406
0.0762288
0.000311981
0.0761163
0.000323103
0.075999
0.000333613
0.0758773
0.00034343
0.0757514
0.000352539
0.0756215
0.000360892
0.0754879
0.000368468
0.0753509
0.000375248
0.0752109
0.000381222
0.075068
0.000386379
0.0749227
0.000390711
0.0747752
0.000394208
0.0746259
0.000396859
0.074475
0.000398646
0.0743229
0.000399542
0.0741699
0.000399506
0.0740162
0.000398475
0.0738623
0.000396349
0.0737082
0.000392981
0.073554
0.000388144
0.0733995
0.000381481
0.000372388
0.0747927
0.000257613
-0.0748334
0.0747418
0.000279396
0.0746813
0.000300573
0.0746119
0.000321384
0.0745343
0.000341834
0.0744488
0.00036185
0.0743559
0.000381379
0.074256
0.000400356
0.0741493
0.000418685
0.0740362
0.000436214
0.0739169
0.000452841
0.0737919
0.000468506
0.0736612
0.000483159
0.0735254
0.000496751
0.0733846
0.000509249
0.0732392
0.000520629
0.0730896
0.000530871
0.072936
0.000539959
0.0727788
0.000547881
0.0726184
0.000554623
0.0724551
0.000560173
0.0722892
0.000564515
0.0721211
0.000567626
0.0719512
0.000569477
0.0717796
0.000570021
0.0716068
0.000569196
0.0714329
0.000566913
0.0712579
0.000563047
0.071082
0.000557435
0.000549847
0.0725617
0.000280734
-0.0725849
0.0725277
0.000313427
0.0724832
0.000345121
0.0724286
0.000375978
0.0723644
0.000406022
0.072291
0.000435213
0.0722089
0.00046354
0.0721182
0.000490965
0.0720196
0.000517363
0.0719132
0.000542614
0.0717994
0.000566641
0.0716785
0.000589372
0.0715509
0.000610762
0.0714169
0.000630763
0.0712768
0.000649335
0.071131
0.000666444
0.0709798
0.000682066
0.0708236
0.000696176
0.0706627
0.000708759
0.0704975
0.000719799
0.0703284
0.000729282
0.0701557
0.000737193
0.0699798
0.000743519
0.0698011
0.000748239
0.0696198
0.000751329
0.0694362
0.000752756
0.0692506
0.00075248
0.0690632
0.000750453
0.0688741
0.00074662
0.000740924
0.0702667
0.000284147
-0.0702701
0.0702518
0.00032832
0.0702257
0.000371236
0.0701887
0.000412983
0.0701412
0.000453563
0.0700834
0.000492944
0.0700158
0.000531112
0.0699388
0.00056804
0.0698525
0.000603602
0.0697575
0.000637644
0.069654
0.000670114
0.0695424
0.000700954
0.0694231
0.00073012
0.0692963
0.000757557
0.0691624
0.000783218
0.0690218
0.000807063
0.0688748
0.000829061
0.0687218
0.000849181
0.0685632
0.000867403
0.0683992
0.000883707
0.0682304
0.00089808
0.0680571
0.000910509
0.0678797
0.000920985
0.0676984
0.000929501
0.0675137
0.000936047
0.0673258
0.000940618
0.0671351
0.000943211
0.0669417
0.000943824
0.0667459
0.000942471
0.000939173
0.0679417
0.000267415
-0.067925
0.0679465
0.000323519
0.0679396
0.000378173
0.0679212
0.00043141
0.0678915
0.000483207
0.0678509
0.000533503
0.0677998
0.000582304
0.0677383
0.00062953
0.0676668
0.000675023
0.0675858
0.000718675
0.0674955
0.000760426
0.0673962
0.000800232
0.0672883
0.000838032
0.0671721
0.000873764
0.067048
0.000907372
0.0669162
0.000938811
0.0667772
0.000968038
0.0666314
0.00099502
0.0664791
0.00101973
0.0663206
0.00104215
0.0661564
0.00106225
0.0659869
0.00108004
0.0658124
0.0010955
0.0656333
0.00110864
0.0654498
0.00111946
0.0652625
0.00112797
0.0650715
0.00113421
0.0648771
0.00113819
0.0646796
0.00113997
0.00113962
0.0656185
0.000231315
-0.0655824
0.0656423
0.000299672
0.0656541
0.000366426
0.0656539
0.00043157
0.0656421
0.000495048
0.0656188
0.000556799
0.0655843
0.000616754
0.065539
0.000674809
0.0654832
0.000730832
0.0654172
0.000784694
0.0653413
0.00083636
0.0652557
0.000885801
0.0651608
0.000932912
0.065057
0.000977621
0.0649445
0.00101987
0.0648237
0.00105959
0.064695
0.00109674
0.0645587
0.00113129
0.0644152
0.00116319
0.064265
0.00119243
0.0641082
0.00121898
0.0639454
0.00124284
0.0637769
0.001264
0.0636031
0.00128247
0.0634243
0.00129827
0.0632409
0.00131141
0.0630531
0.00132195
0.0628614
0.00132994
0.0626659
0.00133546
0.00133858
0.0633248
0.000177447
-0.0632709
0.0633662
0.000258263
0.0633953
0.000337346
0.0634122
0.000414657
0.0634171
0.000490123
0.0634102
0.000563642
0.0633919
0.000635106
0.0633623
0.000704392
0.0633218
0.000771324
0.0632707
0.000835844
0.0632091
0.000897934
0.0631374
0.000957485
0.0630559
0.0010144
0.062965
0.00106859
0.0628648
0.00111999
0.0627559
0.00116852
0.0626385
0.00121415
0.062513
0.00125681
0.0623797
0.00129647
0.062239
0.0013331
0.0620913
0.00136667
0.061937
0.00139718
0.0617764
0.00142462
0.0616099
0.001449
0.0614378
0.00147035
0.0612605
0.00148869
0.0610784
0.0015041
0.0608917
0.00151663
0.0607007
0.00152638
0.00153345
0.0610839
0.000107926
-0.0610144
0.0611409
0.000201309
0.0611854
0.00029284
0.0612176
0.000382458
0.0612376
0.000470064
0.0612458
0.000555537
0.0612421
0.000638737
0.061227
0.000719466
0.0612007
0.000797623
0.0611634
0.000873152
0.0611154
0.000945959
0.061057
0.00101594
0.0609884
0.00108298
0.06091
0.00114701
0.060822
0.00120793
0.0607249
0.00126567
0.0606189
0.00132016
0.0605043
0.00137135
0.0603816
0.00141918
0.0602511
0.00146363
0.0601131
0.00150467
0.059968
0.00154227
0.0598162
0.00157644
0.059658
0.00160718
0.0594938
0.00163454
0.059324
0.00165853
0.0591488
0.00167924
0.0589687
0.00169675
0.0587839
0.00171115
0.00172257
0.0589146
2.51509e-05
-0.0588318
0.0589848
0.000131128
0.0590425
0.000235144
0.0590878
0.000337114
0.059121
0.000436915
0.0591421
0.000534425
0.0591513
0.000629462
0.059149
0.000721816
0.0591352
0.000811382
0.0591103
0.000898069
0.0590745
0.000981765
0.0590281
0.00106236
0.0589713
0.00113976
0.0589045
0.00121384
0.0588279
0.00128452
0.0587418
0.00135172
0.0586466
0.00141535
0.0585427
0.00147534
0.0584302
0.00153165
0.0583096
0.00158423
0.0581812
0.00163304
0.0580454
0.00167806
0.0579026
0.00171929
0.057753
0.00175673
0.0575971
0.00179042
0.0574353
0.0018204
0.0572678
0.00184674
0.057095
0.00186954
0.0569172
0.00188891
0.00190497
0.0568309
-6.83777e-05
-0.0567374
0.0569119
5.01675e-05
0.0569804
0.000166648
0.0570365
0.00028095
0.0570805
0.000392936
0.0571125
0.00050249
0.0571325
0.000609417
0.0571409
0.000713455
0.0571378
0.000814467
0.0571235
0.000912359
0.0570982
0.00100702
0.0570623
0.00109834
0.0570158
0.00118618
0.0569592
0.00127045
0.0568927
0.00135103
0.0568166
0.00142783
0.0567312
0.00150075
0.0566368
0.00156973
0.0565338
0.00163469
0.0564224
0.00169559
0.0563031
0.00175238
0.0561761
0.00180503
0.0560418
0.00185354
0.0559007
0.00189791
0.0557529
0.00193816
0.055599
0.00197434
0.0554392
0.00200653
0.0552739
0.00203484
0.0551034
0.00205938
0.0020803
0.054843
-0.00017018
-0.0547412
0.0549323
-3.91283e-05
0.0550092
8.9756e-05
0.0550738
0.000216335
0.0551263
0.000340473
0.0551668
0.000462017
0.0551954
0.000580774
0.0552124
0.000696462
0.055218
0.000808874
0.0552124
0.00091795
0.0551959
0.00102358
0.0551686
0.00112562
0.0551308
0.00122395
0.0550828
0.00131844
0.0550249
0.00140897
0.0549573
0.00149543
0.0548803
0.00157772
0.0547943
0.00165576
0.0546995
0.00172946
0.0545963
0.00179878
0.054485
0.00186365
0.054366
0.00192405
0.0542396
0.00197996
0.0541062
0.00203137
0.053966
0.0020783
0.0538195
0.00212082
0.0536671
0.00215898
0.053509
0.00219291
0.0533457
0.00222273
0.00224863
0.0529575
-0.000277887
-0.0528497
0.0530527
-0.000134416
0.0531357
6.78888e-06
0.0532065
0.000145579
0.0532652
0.000281773