/*--------------------------------*- C++ -*----------------------------------*\
  =========                 |
  \\      /  F ield         | OpenFOAM: The Open Source CFD Toolbox
   \\    /   O peration     | Website:  https://openfoam.org
    \\  /    A nd           | Version:  6.0
     \\/     M anipulation  |
\*---------------------------------------------------------------------------*/
FoamFile
{
    version     2.0;
    format      ascii;
    class       volVectorField;
    location    "2.25";
    object      U;
}
// * * * * * * * * * * * * * * * * * * * * * * * * * * * * * * * * * * * * * //

dimensions      [0 1 -1 0 0 0 0];

internalField   nonuniform List<vector> 
9600
(
(0.975538 -14.3053 -1.5353e-20)
(0.229458 -13.3493 -1.61644e-20)
(0.205339 -12.4617 1.70409e-21)
(0.242465 -11.6295 -8.99653e-21)
(0.233982 -10.8526 3.81561e-21)
(0.223144 -10.1218 -2.57569e-21)
(0.215283 -9.43247 -5.30596e-21)
(0.207378 -8.78291 5.04745e-21)
(0.199103 -8.17223 1.41068e-21)
(0.190774 -7.59969 -2.41721e-20)
(0.182558 -7.06446 1.2532e-20)
(0.174577 -6.56553 -1.0511e-20)
(0.166957 -6.10162 -4.36406e-21)
(0.159816 -5.67125 5.5131e-21)
(0.153256 -5.2727 -3.65819e-21)
(0.147333 -4.90408 -1.82386e-21)
(0.142059 -4.56341 2.93821e-21)
(0.137641 -4.24868 -3.45289e-21)
(0.134525 -3.95793 -8.34081e-22)
(0.130734 -3.68937 -1.56844e-21)
(1.53516 -14.2554 -1.54725e-19)
(0.754259 -13.3331 -7.55986e-20)
(0.695884 -12.4497 3.6626e-20)
(0.700492 -11.618 -4.33233e-20)
(0.661675 -10.8423 1.18975e-20)
(0.622285 -10.1123 -1.19058e-20)
(0.587457 -9.42324 4.53725e-20)
(0.554124 -8.77384 -1.97409e-21)
(0.521943 -8.1633 -2.63636e-20)
(0.491212 -7.59094 3.16123e-20)
(0.46207 -7.05597 1.47682e-20)
(0.434602 -6.55738 -1.16593e-21)
(0.408885 -6.09393 1.61557e-20)
(0.384983 -5.66413 -9.44201e-22)
(0.362934 -5.26627 5.74559e-21)
(0.342721 -4.89843 1.36928e-20)
(0.324283 -4.55861 5.61428e-21)
(0.307782 -4.24473 7.25276e-21)
(0.293667 -3.95473 -3.23685e-21)
(0.279659 -3.68684 6.43983e-21)
(2.09351 -14.1844 2.53204e-19)
(1.27795 -13.2965 1.62835e-19)
(1.1856 -12.4184 -2.25708e-19)
(1.15789 -11.5884 -9.87895e-20)
(1.08884 -10.8152 7.72885e-20)
(1.02094 -10.087 1.25482e-19)
(0.959166 -9.39933 -1.45329e-19)
(0.900408 -8.75109 3.33608e-20)
(0.84432 -8.14165 -6.20628e-20)
(0.791188 -7.57038 -3.90183e-20)
(0.741128 -7.0365 3.3085e-20)
(0.694189 -6.53906 -1.71901e-20)
(0.650401 -6.0768 -4.35355e-20)
(0.609774 -5.64827 2.24447e-20)
(0.572281 -5.25174 -7.03375e-21)
(0.537835 -4.88529 -7.50871e-22)
(0.506296 -4.5469 6.89073e-21)
(0.477781 -4.23442 1.32293e-20)
(0.452726 -3.94569 -1.5342e-20)
(0.428531 -3.67898 1.25637e-20)
(2.64808 -14.092 -1.36593e-19)
(1.79945 -13.2397 6.34942e-20)
(1.67364 -12.3683 7.7845e-20)
(1.61389 -11.5412 1.00089e-19)
(1.51482 -10.7715 -3.45806e-20)
(1.41851 -10.0463 2.4496e-20)
(1.32983 -9.36099 -1.89594e-20)
(1.24569 -8.7149 3.90014e-20)
(1.16573 -8.1075 8.14427e-20)
(1.09023 -7.53819 -4.73642e-20)
(1.01929 -7.00625 -2.78007e-20)
(0.952928 -6.51072 -2.78031e-20)
(0.891124 -6.05038 -8.55953e-21)
(0.833833 -5.62378 2.0532e-20)
(0.780967 -5.22921 -1.22678e-20)
(0.732367 -4.86475 -3.69672e-20)
(0.687817 -4.52835 2.78417e-20)
(0.647381 -4.21781 -1.65809e-20)
(0.611473 -3.93087 -1.42112e-21)
(0.577149 -3.66585 -1.29169e-21)
(3.19883 -13.9783 -1.73991e-19)
(2.3185 -13.1629 -2.85912e-19)
(2.1595 -12.2994 3.18102e-19)
(2.0679 -11.4763 -8.77845e-20)
(1.93896 -10.7113 -2.2858e-19)
(1.81437 -9.99004 -5.29363e-21)
(1.69888 -9.30817 -8.03149e-20)
(1.58941 -8.66522 -2.12512e-20)
(1.48565 -8.0608 -4.95585e-20)
(1.38786 -7.49435 1.09507e-19)
(1.29611 -6.96518 -1.44497e-19)
(1.2104 -6.47234 3.54888e-20)
(1.13066 -6.01465 -5.29457e-20)
(1.05679 -5.59066 6.86112e-20)
(0.988647 -5.19868 -5.93107e-20)
(0.925998 -4.8368 3.03548e-20)
(0.868547 -4.50296 -1.67711e-20)
(0.816309 -4.19489 4.4085e-21)
(0.769658 -3.91025 1.55527e-20)
(0.725295 -3.64745 -2.42668e-21)
(3.74471 -13.8434 4.18594e-20)
(2.83423 -13.0663 2.61834e-19)
(2.64246 -12.2117 1.61882e-19)
(2.51922 -11.3939 -1.02791e-19)
(2.36064 -10.6346 2.57618e-19)
(2.20791 -9.91842 4.15719e-20)
(2.06572 -9.24098 6.75764e-21)
(1.93105 -8.60216 -8.66565e-20)
(1.80358 -8.00164 2.04726e-20)
(1.68359 -7.43894 1.09815e-19)
(1.57114 -6.91337 -4.61365e-20)
(1.46618 -6.42401 8.45895e-20)
(1.36861 -5.96969 -2.12998e-20)
(1.27828 -5.54897 -1.60729e-20)
(1.19498 -5.1602 3.46482e-20)
(1.11841 -4.80149 3.4666e-20)
(1.04819 -4.47076 -1.81741e-20)
(0.98429 -4.1657 1.23959e-20)
(0.927035 -3.88387 -3.62178e-20)
(0.872747 -3.62379 4.32698e-20)
(4.285 -13.6874 4.00127e-19)
(3.34602 -12.9497 -4.75237e-19)
(3.12189 -12.1055 -3.75993e-19)
(2.96724 -11.294 3.70168e-19)
(2.77923 -10.5416 -1.29084e-19)
(2.59853 -9.83146 -1.65806e-19)
(2.4298 -9.15948 1.40662e-19)
(2.27005 -8.52576 6.03102e-21)
(2.11901 -7.9301 4.27954e-20)
(1.97696 -7.37203 -1.28967e-19)
(1.84394 -6.8509 5.96403e-20)
(1.71986 -6.36578 -4.53372e-20)
(1.6046 -5.91553 1.21949e-19)
(1.49794 -5.49876 -6.44904e-20)
(1.39962 -5.11383 3.68172e-21)
(1.30927 -4.75886 -7.46645e-21)
(1.22645 -4.43179 -6.18819e-21)
(1.15105 -4.13027 1.23706e-20)
(1.08335 -3.85175 6.95987e-21)
(1.01928 -3.59491 -8.31656e-21)
(4.81887 -13.5105 -5.84276e-19)
(3.85308 -12.8135 3.10267e-19)
(3.59708 -11.9808 6.15721e-20)
(3.41128 -11.1767 -5.70159e-21)
(3.19409 -10.4323 6.85473e-22)
(2.98564 -9.72929 1.0803e-19)
(2.79053 -9.06378 -2.77512e-19)
(2.60588 -8.43614 -2.43723e-20)
(2.43144 -7.84626 -4.53608e-20)
(2.26748 -7.29371 6.2906e-20)
(2.11405 -6.77783 4.38596e-21)
(1.97103 -6.29773 4.9465e-20)
(1.83823 -5.85228 -7.15617e-21)
(1.7154 -5.44011 -1.06289e-19)
(1.60222 -5.05961 -1.89839e-20)
(1.49827 -4.70896 8.50888e-20)
(1.40301 -4.3861 -3.02966e-20)
(1.31629 -4.08863 -6.70542e-21)
(1.23833 -3.81392 -1.63499e-21)
(1.16466 -3.56083 4.15558e-21)
(5.34553 -13.313 3.71055e-19)
(4.35469 -12.6578 -3.48224e-19)
(4.06734 -11.8377 -4.71861e-19)
(3.85069 -11.0423 -5.69204e-20)
(3.60459 -10.3068 -1.79401e-19)
(3.36863 -9.612 -5.88919e-20)
(3.14736 -8.95398 -1.51936e-19)
(2.93801 -8.33339 2.53605e-19)
(2.74036 -7.75023 -1.03851e-19)
(2.5547 -7.20408 -4.48912e-20)
(2.38105 -6.69428 -1.3027e-20)
(2.21925 -6.21996 5.84748e-20)
(2.0691 -5.78 -6.00733e-22)
(1.93028 -5.37308 -1.49591e-20)
(1.80243 -4.99763 -3.06905e-20)
(1.68505 -4.65186 -3.48836e-20)
(1.57755 -4.33374 4.95865e-20)
(1.47973 -4.04083 1.7475e-20)
(1.39172 -3.77043 -7.94547e-20)
(1.30865 -3.5216 5.51578e-21)
(5.86419 -13.0951 -3.67294e-19)
(4.8501 -12.4827 7.84631e-19)
(4.53199 -11.6765 -5.49394e-19)
(4.28481 -10.8908 3.25844e-19)
(4.01011 -10.1653 3.75905e-19)
(3.74691 -9.47975 -1.18201e-19)
(3.49973 -8.83022 1.10994e-20)
(3.2659 -8.21766 2.97411e-20)
(3.04527 -7.64214 9.74908e-20)
(2.83814 -7.10325 -9.46502e-20)
(2.64448 -6.60035 -4.9989e-20)
(2.46414 -6.13256 5.83084e-20)
(2.29683 -5.69881 -5.35735e-23)
(2.14223 -5.29778 7.78539e-21)
(1.9999 -4.92797 8.006e-20)
(1.8693 -4.58764 -4.05035e-20)
(1.74977 -4.27477 7.14626e-21)
(1.64106 -3.98694 -4.12374e-20)
(1.54323 -3.72133 1.06212e-19)
(1.45099 -3.47727 5.52612e-20)
(6.37407 -12.8571 5.42185e-19)
(5.33858 -12.2886 1.03019e-19)
(4.99032 -11.4973 2.02609e-19)
(4.71299 -10.7224 -2.09466e-19)
(4.41003 -10.008 6.14742e-20)
(4.11987 -9.33269 3.76868e-19)
(3.84706 -8.69265 -4.8753e-20)
(3.58903 -8.08907 2.31169e-19)
(3.34569 -7.52211 -1.37993e-19)
(3.11733 -6.99135 8.28344e-20)
(2.90392 -6.49616 1.6012e-19)
(2.70526 -6.03566 -4.88704e-20)
(2.52103 -5.6088 6.6504e-20)
(2.35086 -5.21431 -1.91683e-20)
(2.19427 -4.85072 -7.96989e-20)
(2.05066 -4.51637 1.08972e-19)
(1.91933 -4.20928 -2.76277e-20)
(1.79997 -3.92701 9.48254e-20)
(1.69256 -3.66668 7.19839e-21)
(1.59141 -3.42788 -1.29427e-19)
(6.87443 -12.5994 -1.61035e-18)
(5.81943 -12.0755 2.52799e-19)
(5.44166 -11.3003 -1.86804e-19)
(5.13456 -10.5373 -5.34842e-19)
(4.80371 -9.83505 -8.33473e-20)
(4.48694 -9.17098 -9.59705e-20)
(4.18881 -8.54143 -3.55301e-20)
(3.90688 -7.9478 -1.64513e-19)
(3.64113 -7.3903 -8.14382e-20)
(3.39183 -6.86852 -1.42587e-20)
(3.15894 -6.38184 -4.14259e-20)
(2.94222 -5.92938 6.29926e-20)
(2.74131 -5.51009 3.35138e-20)
(2.5558 -5.12276 -1.87686e-19)
(2.38517 -4.76598 7.32782e-20)
(2.22878 -4.43814 -7.46023e-20)
(2.08588 -4.13734 -4.2669e-20)
(1.95612 -3.86112 3.71953e-20)
(1.8394 -3.60654 1.84874e-20)
(1.72962 -3.3735 -3.56524e-20)
(7.36455 -12.3224 2.04103e-18)
(6.29195 -11.8439 8.57224e-19)
(5.88534 -11.0858 3.66203e-19)
(5.54889 -10.3357 3.45367e-19)
(5.19054 -9.64663 -1.50803e-19)
(4.84753 -8.99483 7.64883e-19)
(4.52442 -8.37675 -3.21315e-19)
(4.21894 -7.79401 5.72545e-19)
(3.93109 -7.24687 -2.03732e-19)
(3.66117 -6.73493 3.48552e-19)
(3.4091 -6.25755 1.48002e-19)
(3.17461 -5.81385 8.18685e-20)
(2.95729 -5.40281 -1.98384e-19)
(2.75669 -5.02325 1.64089e-19)
(2.57226 -4.67384 -3.45144e-20)
(2.40331 -4.35304 1.13318e-19)
(2.24908 -4.05903 2.89692e-20)
(2.10917 -3.78934 1.16027e-19)
(1.98342 -3.54099 -2.71332e-20)
(1.86532 -3.3142 -1.65367e-21)
(7.84374 -12.0264 -1.05012e-18)
(6.75545 -11.5941 4.98542e-19)
(6.32069 -10.854 7.38356e-20)
(5.95533 -10.1179 -6.24747e-19)
(5.56992 -9.44298 -2.04819e-20)
(5.20106 -8.80445 1.20298e-20)
(4.85335 -8.19882 1.17764e-19)
(4.52468 -7.6279 -1.39793e-19)
(4.2151 -7.09201 5.47102e-20)
(3.92491 -6.59074 5.66281e-20)
(3.65399 -6.12343 -9.37115e-20)
(3.40203 -5.68922 -6.10463e-20)
(3.16859 -5.28708 3.20704e-20)
(2.95315 -4.9159 -4.84493e-20)
(2.75515 -4.5744 1.50775e-19)
(2.57389 -4.26115 -1.54597e-19)
(2.40855 -3.97442 -8.77175e-20)
(2.25875 -3.71175 1.2578e-19)
(2.12425 -3.4701 -4.66318e-20)
(1.99818 -3.25009 -5.79127e-20)
(8.31135 -11.7117 -5.3908e-19)
(7.20926 -11.3263 -5.55846e-19)
(6.74703 -10.6052 -1.31948e-19)
(6.35326 -9.88415 6.36497e-19)
(5.94123 -9.22435 -2.74256e-19)
(5.54696 -8.60009 1.19449e-20)
(5.17508 -8.00786 -6.02794e-19)
(4.82363 -7.44968 9.63895e-20)
(4.49271 -6.92591 -1.14743e-19)
(4.18262 -6.43612 9.41465e-20)
(3.89321 -5.97964 -2.04936e-19)
(3.62411 -5.55562 8.65726e-20)
(3.37483 -5.16303 -1.12807e-19)
(3.14483 -4.80081 6.70513e-20)
(2.9335 -4.46775 3.68637e-20)
(2.74013 -4.16255 -4.34883e-20)
(2.56391 -3.88356 -1.60607e-19)
(2.40445 -3.62838 8.70683e-20)
(2.26147 -3.39392 -3.45004e-20)
(2.12774 -3.18124 1.40815e-20)
(8.76678 -11.3789 1.96716e-18)
(7.65273 -11.0408 -3.64006e-19)
(7.1637 -10.3397 -4.52257e-19)
(6.74203 -9.63466 1.84002e-19)
(6.30389 -8.991 2.30167e-19)
(5.88468 -8.38199 -3.2117e-19)
(5.48907 -7.80411 1.99397e-19)
(5.11528 -7.25959 -2.57176e-19)
(4.76346 -6.74879 2.97866e-19)
(4.43388 -6.27127 -2.99135e-19)
(4.12636 -5.82637 1.26585e-19)
(3.84048 -5.41321 -2.45413e-20)
(3.57568 -5.03079 -1.97121e-20)
(3.33139 -4.67809 -1.17615e-19)
(3.10696 -4.35397 1.79851e-19)
(2.90168 -4.05726 -2.91419e-21)
(2.71475 -3.78647 -1.2587e-20)
(2.54582 -3.53924 -3.75126e-21)
(2.39457 -3.31246 -6.03974e-21)
(2.25345 -3.10755 -4.31585e-20)
(9.20963 -11.0286 -1.62511e-18)
(8.08529 -10.7382 -2.34159e-19)
(7.57004 -10.0579 -2.82616e-19)
(7.121 -9.36977 -1.39557e-18)
(6.6573 -8.74321 -6.60389e-19)
(6.21364 -8.15041 7.37138e-19)
(5.79479 -7.58784 -2.4622e-19)
(5.39915 -7.05786 1.19799e-19)
(5.02689 -6.56086 1.65765e-19)
(4.67827 -6.09641 4.08983e-20)
(4.35307 -5.66379 9.44681e-20)
(4.05078 -5.26215 -4.51628e-20)
(3.77081 -4.8905 1.0908e-19)
(3.51252 -4.54783 -9.73829e-20)
(3.27524 -4.23314 2.83639e-20)
(3.05824 -3.94535 -2.18876e-19)
(2.86076 -3.68317 1.40461e-19)
(2.68249 -3.44435 8.31256e-20)
(2.52318 -3.2257 8.91566e-20)
(2.37507 -3.02881 -1.81358e-20)
(9.63993 -10.6615 7.39989e-19)
(8.50665 -10.4187 5.6528e-19)
(7.96547 -9.75992 4.25377e-19)
(7.48954 -9.08971 1.21021e-18)
(7.00083 -8.48124 -1.06921e-18)
(6.53326 -7.90562 2.70839e-19)
(6.09171 -7.3593 -4.26068e-21)
(5.67475 -6.84475 -2.33062e-19)
(5.28258 -6.36239 2.21093e-19)
(4.91541 -5.91174 -6.13066e-20)
(4.57297 -5.4921 -6.11882e-20)
(4.25469 -5.1026 -2.41568e-20)
(3.95991 -4.74226 5.94994e-20)
(3.68793 -4.41015 1.54989e-21)
(3.43802 -4.10529 -8.50835e-20)
(3.20947 -3.82683 -9.31924e-20)
(3.00156 -3.57366 -1.26511e-19)
(2.81412 -3.34367 6.37698e-20)
(2.64708 -3.13363 -7.87688e-20)
(2.49266 -2.94561 1.9611e-20)
(10.058 -10.2783 -1.04311e-19)
(8.91665 -10.0826 -1.2119e-18)
(8.34951 -9.44596 -1.06851e-19)
(7.84701 -8.79476 -1.87706e-20)
(7.33387 -8.20543 2.0292e-19)
(6.843 -7.64801 6.19254e-19)
(6.37934 -7.11887 -1.77997e-19)
(5.94163 -6.62062 -2.43052e-19)
(5.53011 -6.15368 2.73402e-20)
(5.14493 -5.71756 9.61873e-20)
(4.78575 -5.31153 -7.39893e-20)
(4.45193 -4.93473 -7.27495e-20)
(4.14273 -4.58623 -8.91681e-21)
(3.85733 -4.26506 7.03793e-20)
(3.59496 -3.97039 -2.58771e-19)
(3.35488 -3.7015 1.19585e-19)
(3.13648 -3.45753 3.81939e-20)
(2.93973 -3.23658 -4.69672e-20)
(2.76473 -3.03601 4.92667e-20)
(2.60415 -2.85973 7.19705e-20)
(10.4625 -9.87793 5.20822e-19)
(9.31442 -9.72889 1.17123e-18)
(8.72154 -9.11609 1.64401e-19)
(8.19285 -8.48541 -7.76291e-20)
(7.65593 -7.91637 6.27557e-19)
(7.14244 -7.37812 -1.63561e-19)
(6.65731 -6.86707 -1.76274e-19)
(6.19948 -6.38594 4.22518e-19)
(5.76921 -5.93517 -2.46172e-19)
(5.3666 -5.51424 1.08534e-19)
(4.99123 -5.12242 -1.826e-20)
(4.64239 -4.75886 -2.51532e-20)
(4.31918 -4.42258 -9.54808e-20)
(4.02073 -4.11268 1.10935e-19)
(3.7461 -3.82834 -2.63046e-19)
(3.49445 -3.56896 1.20454e-19)
(3.26517 -3.33376 -3.29809e-20)
(3.05804 -3.12141 -6.63791e-21)
(2.87238 -2.93142 9.41398e-20)
(2.70279 -2.76953 -1.54115e-19)
(14.4522 0.415808 8.80838e-20)
(14.4514 -0.154039 -2.9306e-20)
(14.4285 -0.722134 -1.52419e-19)
(14.3844 -1.28807 4.12936e-19)
(14.3189 -1.85133 -4.58457e-19)
(14.2315 -2.41119 -2.06997e-19)
(14.1223 -2.96685 1.63868e-19)
(13.9915 -3.51755 2.28519e-19)
(13.8393 -4.06247 -1.71901e-19)
(13.6659 -4.60084 1.76617e-19)
(13.4716 -5.13185 1.95253e-21)
(13.2568 -5.65472 1.25236e-20)
(13.0218 -6.16867 -1.29413e-19)
(12.7669 -6.67294 5.35699e-19)
(12.4926 -7.16681 -5.47186e-19)
(12.1995 -7.64955 3.88558e-19)
(11.8878 -8.1206 -5.37135e-19)
(11.5585 -8.57917 1.29743e-18)
(11.2111 -9.0254 -1.03596e-19)
(10.8488 -9.45739 4.39708e-20)
(13.5888 -0.295057 -1.68827e-20)
(13.5621 -0.829288 -9.09659e-20)
(13.5138 -1.36084 1.70625e-19)
(13.4447 -1.88927 2.76456e-19)
(13.3548 -2.41412 -6.92689e-20)
(13.2443 -2.93469 -3.68377e-19)
(13.1133 -3.4502 6.80077e-19)
(12.962 -3.95987 -1.3694e-19)
(12.7907 -4.46294 -7.80914e-19)
(12.5999 -4.95864 3.90355e-19)
(12.3897 -5.44623 1.43896e-19)
(12.1605 -5.92498 7.17785e-19)
(11.9128 -6.39417 -1.37184e-18)
(11.6471 -6.85312 -3.72871e-21)
(11.3636 -7.30117 3.46801e-19)
(11.063 -7.73768 5.59515e-19)
(10.7457 -8.16214 2.56192e-19)
(10.4122 -8.57391 -3.41243e-19)
(10.0625 -8.97282 -7.99377e-19)
(9.69718 -9.35776 7.79785e-19)
(12.7354 -0.289132 4.79556e-20)
(12.7125 -0.788335 -5.85719e-20)
(12.6691 -1.28569 3.36887e-20)
(12.6057 -1.7805 -1.2205e-19)
(12.5223 -2.27214 1.47733e-19)
(12.4192 -2.75988 3.72841e-19)
(12.2966 -3.24294 -3.92295e-19)
(12.1547 -3.72054 6.40048e-20)
(11.994 -4.19193 2.60545e-19)
(11.8146 -4.65636 5.52106e-19)
(11.6169 -5.11314 -1.23845e-19)
(11.4013 -5.56155 9.17995e-19)
(11.1682 -6.00092 4.23732e-20)
(10.9179 -6.43059 -1.00577e-18)
(10.651 -6.84992 -1.35148e-19)
(10.3678 -7.25831 2.12913e-19)
(10.0688 -7.65522 -5.59621e-19)
(9.7544 -8.03999 -2.49043e-19)
(9.42483 -8.4123 -5.10682e-19)
(9.08039 -8.771 5.24416e-19)
(11.8908 -0.226503 1.50424e-20)
(11.8735 -0.691462 3.42789e-20)
(11.8372 -1.15529 1.42823e-20)
(11.782 -1.61718 -3.23276e-19)
(11.7079 -2.07639 2.00944e-19)
(11.6152 -2.53217 -5.67442e-20)
(11.5041 -2.98379 1.81845e-19)
(11.3749 -3.4305 -6.04819e-21)
(11.2277 -3.87157 -3.90703e-19)
(11.063 -4.30632 6.19275e-21)
(10.881 -4.73405 -2.16699e-19)
(10.682 -5.15408 5.6116e-20)
(10.4664 -5.56577 -1.13855e-18)
(10.2347 -5.96847 5.76641e-19)
(9.98711 -6.36157 -5.1573e-19)
(9.72414 -6.74446 -9.75868e-20)
(9.44618 -7.11661 -1.31042e-18)
(9.15363 -7.47734 1.32442e-18)
(8.84696 -7.82625 -6.2185e-19)
(8.52637 -8.1623 -3.94616e-19)
(11.079 -0.213438 4.02224e-21)
(11.0649 -0.645698 -5.51684e-20)
(11.0331 -1.07718 8.14183e-20)
(10.9836 -1.5071 9.9506e-20)
(10.9164 -1.9347 -1.16152e-19)
(10.8319 -2.35928 3.75496e-19)
(10.7301 -2.78015 2.35421e-19)
(10.6113 -3.19658 -7.57792e-20)
(10.4758 -3.60793 -8.17802e-20)
(10.3237 -4.0135 2.48555e-19)
(10.1553 -4.41266 4.41488e-19)
(9.97103 -4.80475 1.81256e-19)
(9.77111 -5.18914 1.1639e-19)
(9.55595 -5.56522 -2.9289e-19)
(9.32593 -5.93242 -6.91463e-19)
(9.0814 -6.29012 7.75889e-19)
(8.8228 -6.6378 8.22039e-19)
(8.55047 -6.97479 -5.76979e-19)
(8.26498 -7.30069 2.05541e-19)
(7.96646 -7.61459 -3.85541e-20)
(10.3097 -0.205028 8.9457e-21)
(10.2978 -0.606366 -1.25983e-20)
(10.2695 -1.00713 -6.27545e-20)
(10.2248 -1.40661 2.59503e-20)
(10.1637 -1.80409 2.16234e-21)
(10.0863 -2.19891 9.59652e-21)
(9.9929 -2.5904 -1.74104e-19)
(9.88361 -2.97793 1.29193e-19)
(9.75863 -3.36084 -2.64931e-19)
(9.6182 -3.73851 2.70023e-19)
(9.46258 -4.11031 -1.5068e-20)
(9.29202 -4.47564 -2.56055e-19)
(9.10688 -4.83392 9.84031e-20)
(8.90744 -5.18455 7.94662e-19)
(8.69404 -5.52697 4.56455e-19)
(8.46705 -5.86061 -3.27215e-19)
(8.2269 -6.18495 -4.75442e-19)
(7.97391 -6.49938 2.36286e-19)
(7.70861 -6.80348 -1.54776e-19)
(7.43113 -7.09643 5.04933e-19)
(9.58639 -0.19492 -5.8434e-21)
(9.5762 -0.567227 2.76619e-20)
(9.55083 -0.939108 2.02107e-20)
(9.51021 -1.30991 -2.60843e-20)
(9.45438 -1.67898 9.07784e-20)
(9.38346 -2.0457 -2.6056e-19)
(9.29761 -2.40944 1.48881e-19)
(9.19697 -2.76959 -1.09037e-19)
(9.08173 -3.12558 -3.61131e-21)
(8.95209 -3.47679 -1.72266e-19)
(8.80827 -3.82266 2.60578e-19)
(8.65055 -4.16262 6.6598e-19)
(8.47919 -4.49611 -7.37564e-19)
(8.29447 -4.82257 -8.14997e-21)
(8.09677 -5.14149 -6.91538e-19)
(7.88637 -5.45233 2.03469e-19)
(7.66363 -5.75455 -2.1945e-19)
(7.42894 -6.04763 -3.69377e-21)
(7.18277 -6.33114 5.16155e-19)
(6.92525 -6.60431 -1.38605e-20)
(8.91008 -0.185641 -2.43416e-21)
(8.90113 -0.530842 1.78941e-20)
(8.87811 -0.875718 6.67925e-21)
(8.84095 -1.21968 -1.03053e-19)
(8.78969 -1.56211 1.06292e-19)
(8.72444 -1.90244 -9.33514e-20)
(8.6453 -2.24009 2.75193e-19)
(8.55244 -2.5745 -2.62567e-20)
(8.446 -2.90512 -1.51444e-19)
(8.32617 -3.23139 3.09953e-20)
(8.19315 -3.55279 -6.00632e-20)
(8.04718 -3.86878 -1.51382e-19)
(7.88852 -4.17884 -2.17395e-19)
(7.71743 -4.48246 -1.4521e-19)
(7.53423 -4.77915 -1.66291e-19)
(7.33922 -5.0684 -1.88216e-19)
(7.13276 -5.34973 -1.53365e-19)
(6.91511 -5.6226 -2.3576e-19)
(6.68682 -5.88663 2.99111e-20)
(6.44799 -6.14111 6.9866e-21)
(8.27984 -0.177304 1.61515e-21)
(8.27179 -0.497275 2.52724e-21)
(8.2507 -0.816992 -5.65897e-22)
(8.21652 -1.13591 -2.66635e-20)
(8.16926 -1.45348 -6.37387e-20)
(8.10902 -1.76915 -3.60927e-20)
(8.0359 -2.08239 -1.8693e-19)
(7.95003 -2.39269 1.7405e-19)
(7.85155 -2.69954 -1.0021e-19)
(7.74063 -3.00242 2.19795e-19)
(7.61746 -3.30085 -4.71729e-20)
(7.48224 -3.59432 3.7882e-19)
(7.33522 -3.88236 2.02599e-20)
(7.17665 -4.1645 5.1579e-19)
(7.00682 -4.44027 -3.48036e-19)
(6.82601 -4.7092 2.50791e-19)
(6.63457 -4.97084 3.86196e-19)
(6.43279 -5.2247 2.23996e-19)
(6.22108 -5.47038 2.38141e-19)
(5.99963 -5.70724 -3.45548e-19)
(7.69377 -0.16956 -1.48142e-20)
(7.68644 -0.466089 6.07797e-22)
(7.66702 -0.762417 5.37584e-20)
(7.63546 -1.05804 -5.16379e-20)
(7.59177 -1.35246 3.10572e-20)
(7.53604 -1.64516 1.19882e-19)
(7.46836 -1.93566 -3.5801e-20)
(7.38884 -2.22347 -3.67924e-20)
(7.29761 -2.50813 -4.8558e-20)
(7.19482 -2.78917 7.83058e-20)
(7.08065 -3.06612 -1.2124e-19)
(6.95528 -3.33854 -3.11541e-20)
(6.81894 -3.60598 -2.26052e-19)
(6.67187 -3.868 5.88255e-20)
(6.51434 -4.12418 1.10341e-19)
(6.34662 -4.37408 7.60034e-20)
(6.16904 -4.61728 -1.47694e-19)
(5.98188 -4.85331 5.70152e-20)
(5.78557 -5.08182 -2.24989e-19)
(5.58023 -5.30217 2.67976e-20)
(7.14971 -0.162318 1.41758e-20)
(7.14301 -0.437094 3.85236e-20)
(7.12509 -0.711713 -8.49261e-20)
(7.0959 -0.985714 -6.59838e-20)
(7.05546 -1.25862 -3.28647e-20)
(7.00384 -1.52998 -9.21643e-20)
(6.94113 -1.79934 6.62707e-20)
(6.86741 -2.06624 8.57207e-20)
(6.78282 -2.33026 -1.77586e-19)
(6.68747 -2.59096 8.33993e-20)
(6.58155 -2.84791 9.14841e-20)
(6.46522 -3.10071 1.16664e-19)
(6.33869 -3.34895 -1.64948e-19)
(6.20218 -3.59222 2.22495e-19)
(6.05596 -3.83013 -2.00778e-19)
(5.90028 -4.06228 -4.15397e-20)
(5.73547 -4.28829 -6.17015e-20)
(5.5618 -4.50771 2.67913e-19)
(5.3797 -4.7202 2.03843e-19)
(5.18929 -4.92516 -8.66884e-20)
(6.64552 -0.155586 -1.15058e-20)
(6.63941 -0.410204 6.20194e-21)
(6.62288 -0.664706 5.15518e-20)
(6.59589 -0.918663 8.02444e-21)
(6.55844 -1.17164 7.45114e-20)
(6.51061 -1.42321 6.14064e-20)
(6.45246 -1.67295 -5.12506e-20)
(6.38408 -1.92046 -7.2692e-20)
(6.30558 -2.16532 6.43323e-20)
(6.21708 -2.40714 4.41509e-20)
(6.11873 -2.64552 -5.23563e-20)
(6.0107 -2.8801 2.04683e-19)
(5.89318 -3.11048 -3.10148e-19)
(5.76638 -3.33632 7.04045e-20)
(5.63054 -3.55726 9.00801e-20)
(5.48593 -3.77293 -1.50954e-19)
(5.33286 -3.98296 -3.05044e-19)
(5.17162 -4.18699 1.00152e-19)
(5.0026 -4.38462 6.95801e-20)
(4.82599 -4.57532 1.31654e-20)
(6.17923 -0.149389 -4.19137e-21)
(6.17372 -0.385356 3.55499e-21)
(6.15851 -0.621248 -2.21579e-20)
(6.13357 -0.856665 -1.38673e-20)
(6.09891 -1.0912 -3.51469e-21)
(6.05458 -1.32446 -5.31947e-20)
(6.00065 -1.55606 1.39984e-19)
(5.93718 -1.78561 8.5438e-21)
(5.86429 -2.01273 -8.30961e-22)
(5.78209 -2.23707 -1.25365e-19)
(5.6907 -2.45825 7.40354e-20)
(5.5903 -2.67594 -7.11392e-20)
(5.48105 -2.88979 1.31959e-19)
(5.36315 -3.09948 -1.95085e-19)
(5.23684 -3.30469 -5.10217e-21)
(5.10238 -3.50509 -1.10933e-19)
(4.96008 -3.70036 2.3468e-19)
(4.81023 -3.89016 -6.04623e-20)
(4.65327 -4.0741 -9.23696e-21)
(4.48939 -4.25169 -7.60474e-20)
(5.74908 -0.143759 1.33938e-20)
(5.74418 -0.362506 -1.10245e-21)
(5.73024 -0.581216 2.70007e-20)
(5.70723 -0.799517 -2.89185e-20)
(5.67516 -1.01703 3.46089e-20)
(5.63408 -1.23339 -1.94826e-20)
(5.58403 -1.44823 -7.49321e-20)
(5.52511 -1.6612 3.31607e-20)
(5.45738 -1.87195 2.63473e-20)
(5.38096 -2.08014 -3.50036e-20)
(5.29598 -2.28543 -7.06849e-20)
(5.20257 -2.48751 -3.13127e-21)
(5.1009 -2.68609 -1.22713e-19)
(4.99117 -2.88085 1.36107e-19)
(4.87358 -3.07153 7.079e-20)
(4.7484 -3.25785 2.65036e-19)
(4.61594 -3.43953 -3.77084e-19)
(4.47653 -3.61626 9.75173e-20)
(4.33062 -3.78768 2.49724e-19)
(4.17846 -3.95332 1.91917e-19)
(5.35347 -0.138725 -9.53236e-21)
(5.34919 -0.341608 7.17978e-21)
(5.33646 -0.544494 -9.8367e-21)
(5.31526 -0.747033 -5.56765e-20)
(5.2856 -0.948873 5.70677e-20)
(5.24751 -1.14967 2.04192e-20)
(5.20106 -1.34909 4.61915e-21)
(5.1463 -1.54679 5.7072e-20)
(5.08333 -1.74245 -1.27831e-19)
(5.01222 -1.93576 1.03965e-19)
(4.93311 -2.12642 -1.09104e-20)
(4.84611 -2.31413 1.6666e-19)
(4.75139 -2.49863 -2.0734e-19)
(4.64912 -2.67965 4.63533e-22)
(4.53951 -2.85696 -1.16289e-19)
(4.42279 -3.03034 1.24403e-20)
(4.2993 -3.19956 2.05149e-19)
(4.16939 -3.36438 -1.69175e-19)
(4.03357 -3.52445 -4.18246e-20)
(3.89217 -3.67939 -2.99486e-19)
(4.99091 -0.13431 2.6048e-21)
(4.98724 -0.322614 3.47022e-22)
(4.97565 -0.510961 -1.98026e-20)
(4.95613 -0.699022 9.01666e-21)
(4.92869 -0.886466 1.71885e-20)
(4.89337 -1.07297 2.48835e-20)
(4.85022 -1.25822 -9.65142e-21)
(4.7993 -1.4419 2.35068e-20)
(4.74067 -1.62372 -4.26603e-20)
(4.67445 -1.80338 3.16777e-20)
(4.60071 -1.9806 -2.20912e-20)
(4.5196 -2.15512 -1.18818e-20)
(4.43124 -2.3267 -1.94153e-20)
(4.33579 -2.49512 -1.53508e-20)
(4.23345 -2.66019 4.30546e-20)
(4.12445 -2.82173 -3.53619e-21)
(4.00909 -2.9796 -1.65616e-19)
(3.88778 -3.13364 -2.512e-20)
(3.76111 -3.28356 1.74691e-19)
(3.62953 -3.42918 9.07793e-20)
(4.65996 -0.130521 2.71955e-22)
(4.65685 -0.305461 5.35964e-21)
(4.64633 -0.480484 1.3123e-22)
(4.62836 -0.655279 1.81631e-20)
(4.60297 -0.829536 -3.63835e-20)
(4.57019 -1.00295 -3.96534e-20)
(4.53007 -1.17523 5.35778e-20)
(4.48266 -1.34609 -3.74177e-20)
(4.42805 -1.51523 -6.03357e-22)
(4.3663 -1.6824 4.06917e-20)
(4.29753 -1.84734 2.92701e-21)
(4.22182 -2.00981 7.07e-20)
(4.13931 -2.1696 -3.0956e-20)
(4.05013 -2.32651 -3.6072e-20)
(3.95445 -2.48041 -1.0478e-19)
(3.85248 -2.63117 -6.43269e-21)
(3.74451 -2.77877 -1.05322e-19)
(3.63094 -2.92313 6.89064e-20)
(3.51251 -3.06411 9.8962e-20)
(3.38981 -3.20188 -5.92052e-20)
(4.35915 -0.127273 -4.78424e-21)
(4.35656 -0.290039 1.01148e-20)
(4.347 -0.452926 1.65893e-20)
(4.33046 -0.61564 -1.9231e-20)
(4.30694 -0.77789 2.97391e-20)
(4.2765 -0.939392 -9.02787e-21)
(4.23917 -1.09987 -1.32759e-20)
(4.19501 -1.25905 -8.7561e-21)
(4.1441 -1.41668 5.74509e-22)
(4.0865 -1.5725 -2.32532e-20)
(4.02231 -1.72629 8.66725e-21)
(3.95162 -1.87782 3.13862e-20)
(3.87452 -2.02692 7.85757e-20)
(3.79114 -2.17341 1.46306e-19)
(3.7016 -2.31721 -1.37488e-20)
(3.60606 -2.45825 1.63361e-19)
(3.5048 -2.59664 -6.68953e-20)
(3.39815 -2.73241 9.54013e-20)
(3.28706 -2.86581 5.15478e-20)
(3.17211 -2.9971 -2.92303e-20)
(4.08692 -0.12439 1.80021e-21)
(4.08481 -0.276234 -4.84468e-21)
(4.07614 -0.42824 -3.52893e-20)
(4.06088 -0.580129 -2.9424e-20)
(4.03909 -0.731629 3.49453e-20)
(4.01078 -0.882476 5.2368e-20)
(3.97601 -1.03241 3.07439e-21)
(3.93483 -1.18119 -2.90426e-20)
(3.88731 -1.32856 -4.08649e-20)
(3.83352 -1.47431 6.50766e-20)
(3.77353 -1.61821 -4.20304e-21)
(3.70742 -1.76008 -1.26411e-19)
(3.63527 -1.89974 -1.28521e-19)
(3.55716 -2.03708 4.85431e-20)
(3.47317 -2.17201 5.67002e-20)
(3.38339 -2.30454 -6.47625e-21)
(3.28803 -2.43492 -4.47927e-20)
(3.18716 -2.56336 -3.44372e-20)
(3.08219 -2.69101 -4.70501e-20)
(2.97298 -2.81762 7.38326e-20)
(3.84158 -0.122372 -5.48096e-21)
(3.83991 -0.264236 9.57597e-21)
(3.83207 -0.406352 6.33077e-21)
(3.81806 -0.54846 9.55944e-21)
(3.79789 -0.690309 -3.58831e-20)
(3.77161 -0.831655 -4.41391e-20)
(3.73926 -0.97226 -1.07654e-20)
(3.70087 -1.11189 5.45297e-20)
(3.65652 -1.25033 2.68795e-20)
(3.60624 -1.38737 1.3087e-20)
(3.5501 -1.52282 -4.73125e-20)
(3.48816 -1.65648 9.65376e-20)
(3.42047 -1.78823 -9.07238e-20)
(3.34705 -1.91793 -2.11879e-20)
(3.26794 -2.04554 -2.79011e-20)
(3.18311 -2.17109 -3.06264e-21)
(3.09266 -2.29486 -4.469e-20)
(2.99613 -2.41727 5.62703e-20)
(2.89582 -2.54066 3.23506e-20)
(2.78949 -2.66505 -1.6445e-19)
(9.92945 10.5181 8.39434e-19)
(10.3367 10.1163 -1.25933e-18)
(10.7266 9.70017 4.28336e-19)
(11.1003 9.27106 9.73404e-19)
(11.4571 8.82869 6.16069e-20)
(11.7961 8.37303 -6.71918e-19)
(12.1167 7.90454 -1.26514e-19)
(12.4183 7.42385 -6.33138e-19)
(12.7005 6.93164 -3.88245e-20)
(12.963 6.42865 2.36234e-19)
(13.2052 5.91565 2.9342e-19)
(13.4267 5.39344 -4.78815e-19)
(13.6274 4.86284 2.43533e-19)
(13.8068 4.32471 6.99127e-19)
(13.9648 3.7799 -1.27347e-19)
(14.101 3.22929 -4.12944e-19)
(14.2154 2.67367 5.47287e-19)
(14.308 2.11415 -3.37521e-19)
(14.3785 1.55081 -4.9604e-20)
(14.4274 0.986235 -3.42585e-20)
(9.78195 9.34497 4.123e-19)
(10.149 8.95739 -1.20128e-18)
(10.4989 8.55615 -7.00503e-19)
(10.8321 8.14209 3.04853e-19)
(11.1487 7.71538 -7.67061e-19)
(11.4479 7.27634 4.37065e-19)
(11.7293 6.82549 1.04774e-19)
(11.9924 6.36362 -6.22115e-19)
(12.2367 5.8914 2.28651e-19)
(12.4619 5.40959 1.48729e-19)
(12.6675 4.91894 5.35645e-19)
(12.8532 4.42025 -4.6804e-19)
(13.0187 3.91433 -2.43942e-19)
(13.1637 3.40203 5.25011e-19)
(13.2879 2.88417 -3.06644e-19)
(13.3913 2.36162 5.20739e-20)
(13.4736 1.83515 -1.89811e-19)
(13.5347 1.30571 -1.0506e-21)
(13.5745 0.773674 -9.43798e-20)
(13.5928 0.240246 2.73441e-20)
(9.1321 8.68008 8.97342e-20)
(9.47675 8.32437 1.05897e-19)
(9.80624 7.95508 9.36501e-19)
(10.1203 7.57274 -3.12366e-19)
(10.4186 7.17784 6.76068e-21)
(10.7009 6.77094 5.53115e-19)
(10.9666 6.35267 -1.6296e-19)
(11.2151 5.92368 -7.53562e-19)
(11.4462 5.48473 8.73575e-19)
(11.6594 5.03651 -5.28599e-19)
(11.8543 4.57973 -2.3333e-19)
(12.0305 4.11515 -3.75569e-19)
(12.1878 3.64351 1.95754e-19)
(12.3258 3.16563 -2.1927e-19)
(12.4444 2.68226 1.63321e-19)
(12.5432 2.19422 -3.40645e-19)
(12.6221 1.70227 3.6394e-19)
(12.681 1.20724 1.51975e-19)
(12.7197 0.709737 -2.55864e-20)
(12.7378 0.21075 3.23368e-20)
(8.46139 8.07597 -5.25884e-19)
(8.78422 7.75012 -4.00361e-20)
(9.09366 7.41117 1.64596e-19)
(9.38913 7.05966 -4.54146e-19)
(9.67017 6.69611 7.3828e-19)
(9.93637 6.32114 2.19281e-19)
(10.1873 5.93536 -1.31026e-19)
(10.4225 5.53936 -4.26081e-20)
(10.6415 5.13377 6.16245e-19)
(10.8439 4.71928 2.48716e-19)
(11.0294 4.29654 5.04596e-19)
(11.1977 3.86623 -1.05256e-19)
(11.3483 3.42906 -5.36425e-20)
(11.481 2.98575 -1.48382e-19)
(11.5956 2.53705 2.47099e-19)
(11.6918 2.0837 -1.27189e-19)
(11.7694 1.6264 -1.24236e-19)
(11.8283 1.16596 4.61402e-20)
(11.8683 0.703097 -3.024e-21)
(11.889 0.23867 -8.09137e-21)
(7.86379 7.47704 4.87378e-19)
(8.16394 7.17646 6.73811e-20)
(8.45206 6.86372 -9.36381e-19)
(8.72742 6.53919 -3.09959e-19)
(8.98951 6.20342 -1.38829e-19)
(9.23793 5.85695 -6.20344e-19)
(9.47229 5.50035 -3.37317e-19)
(9.69213 5.13416 -2.54142e-19)
(9.89704 4.75891 2.81849e-19)
(10.0867 4.37525 -1.14507e-19)
(10.2606 3.98379 1.86597e-19)
(10.4186 3.58517 2.81998e-20)
(10.5603 3.18003 4.60268e-20)
(10.6855 2.76901 -4.65707e-19)
(10.7938 2.35282 -8.35544e-20)
(10.885 1.93215 4.7832e-20)
(10.959 1.5077 -2.57968e-20)
(11.0155 1.08016 4.05452e-20)
(11.0545 0.650286 -5.02446e-20)
(11.0755 0.218817 6.92735e-21)
(7.31079 6.91872 -8.49486e-20)
(7.58931 6.64085 3.01955e-21)
(7.85679 6.35172 3.67746e-19)
(8.11257 6.05166 -8.23538e-20)
(8.35615 5.74114 2.23117e-19)
(8.58713 5.42066 -7.40194e-19)
(8.80512 5.09073 5.1269e-19)
(9.00973 4.75186 -9.33651e-20)
(9.20059 4.40454 -7.27199e-21)
(9.37732 4.04935 9.89532e-20)
(9.53958 3.68684 2.00429e-19)
(9.68708 3.31762 -3.40009e-19)
(9.81951 2.94226 1.74636e-19)
(9.93662 2.56139 2.63986e-19)
(10.0382 2.17562 1.99366e-20)
(10.1239 1.7856 -1.06745e-19)
(10.1936 1.39198 -5.75933e-21)
(10.2472 0.995415 -2.3588e-20)
(10.2845 0.596596 5.79484e-21)
(10.3052 0.196197 -4.28065e-21)
(6.79645 6.40378 1.43902e-19)
(7.05471 6.1466 8.76073e-20)
(7.30278 5.87904 5.86434e-20)
(7.54007 5.60137 -3.47353e-19)
(7.76612 5.314 -3.16703e-19)
(7.98053 5.01738 7.16309e-19)
(8.18293 4.71197 7.41563e-20)
(8.37301 4.39827 6.22476e-20)
(8.55035 4.07672 2.18158e-19)
(8.71461 3.74781 -3.43616e-19)
(8.86556 3.41211 5.31623e-20)
(9.00284 3.07014 1.60558e-19)
(9.12621 2.72245 -1.14393e-19)
(9.23539 2.36959 -4.7421e-20)
(9.33017 2.01214 1.86268e-19)
(9.41033 1.6507 -3.0779e-21)
(9.47571 1.28587 -5.03507e-21)
(9.5261 0.918261 -2.36602e-20)