/*--------------------------------*- C++ -*----------------------------------*\
  =========                 |
  \\      /  F ield         | OpenFOAM: The Open Source CFD Toolbox
   \\    /   O peration     | Website:  https://openfoam.org
    \\  /    A nd           | Version:  6.0
     \\/     M anipulation  |
\*---------------------------------------------------------------------------*/
FoamFile
{
    version     2.0;
    format      ascii;
    class       volVectorField;
    location    "6.99975";
    object      U;
}
// * * * * * * * * * * * * * * * * * * * * * * * * * * * * * * * * * * * * * //

dimensions      [0 1 -1 0 0 0 0];

internalField   nonuniform List<vector> 
19200
(
(0.269959 -9.66972 -1.94054e-20)
(0.122909 -9.16709 9.22908e-21)
(0.129535 -8.76223 4.29161e-21)
(0.154457 -8.43014 3.81479e-21)
(0.173945 -8.15088 4.2314e-21)
(0.195617 -7.9085 2.58779e-22)
(0.219241 -7.69143 6.96277e-22)
(0.243211 -7.49147 -4.37674e-22)
(0.266741 -7.30296 5.14193e-21)
(0.289357 -7.12208 2.12863e-21)
(0.310719 -6.94641 5.55224e-24)
(0.33062 -6.77448 3.33992e-21)
(0.348958 -6.6055 5.46221e-21)
(0.365711 -6.43912 -3.69492e-21)
(0.380916 -6.2753 4.67966e-21)
(0.394645 -6.11415 4.00207e-21)
(0.406999 -5.95589 -3.75847e-21)
(0.418092 -5.80076 6.36037e-21)
(0.428049 -5.64901 -4.04215e-21)
(0.436992 -5.50086 2.0096e-21)
(0.445046 -5.35647 2.79929e-21)
(0.452329 -5.21594 -9.07333e-22)
(0.458951 -5.07933 1.2199e-21)
(0.465017 -4.94661 -1.41006e-21)
(0.470616 -4.81768 3.06071e-21)
(0.475827 -4.6924 7.26839e-22)
(0.480708 -4.57054 -4.8714e-22)
(0.485328 -4.45187 2.91429e-22)
(0.489781 -4.33609 6.84975e-22)
(0.493855 -4.22286 2.56451e-21)
(0.522957 -9.6617 -4.37892e-21)
(0.363841 -9.17002 2.82941e-20)
(0.360323 -8.77111 -1.49679e-20)
(0.376892 -8.44328 -2.03848e-20)
(0.389398 -8.16732 -9.17944e-21)
(0.404996 -7.92721 -6.53076e-21)
(0.42313 -7.71148 -1.32084e-20)
(0.44198 -7.51212 1.79566e-21)
(0.460617 -7.32362 -2.91182e-21)
(0.478475 -7.14231 -1.02965e-20)
(0.495162 -6.96588 -2.55043e-20)
(0.510441 -6.79297 1.23371e-20)
(0.524202 -6.62286 -4.60201e-21)
(0.536425 -6.45528 1.73704e-21)
(0.547152 -6.29024 -1.0417e-20)
(0.556467 -6.12789 -3.79165e-21)
(0.564482 -5.96849 4.38009e-22)
(0.571324 -5.81228 1.27323e-20)
(0.577124 -5.65955 -6.71235e-21)
(0.582016 -5.51051 -3.70226e-21)
(0.58613 -5.36533 -1.43367e-20)
(0.58959 -5.22413 3.67019e-21)
(0.592507 -5.08694 -2.2829e-21)
(0.594986 -4.95374 4.02164e-21)
(0.597118 -4.82443 -5.01318e-21)
(0.598976 -4.69885 -2.86477e-21)
(0.600611 -4.57676 9.3884e-22)
(0.602098 -4.45789 1.43702e-21)
(0.603565 -4.34193 -2.54905e-21)
(0.604697 -4.22851 1.1831e-21)
(0.775757 -9.64765 -2.07211e-21)
(0.604728 -9.16693 5.78897e-21)
(0.591471 -8.77411 9.17074e-21)
(0.600005 -8.45073 7.08266e-20)
(0.605737 -8.17823 -4.08211e-20)
(0.615398 -7.9405 3.71675e-20)
(0.628124 -7.72621 -3.321e-20)
(0.641891 -7.52754 1.76974e-20)
(0.655636 -7.33914 -1.6669e-20)
(0.668712 -7.15748 -1.70117e-21)
(0.680681 -6.98037 4.15806e-20)
(0.691284 -6.80656 6.87312e-21)
(0.700407 -6.63542 -1.9012e-20)
(0.708034 -6.46675 1.48649e-20)
(0.714217 -6.3006 -2.69421e-24)
(0.719054 -6.13716 6.24795e-21)
(0.722669 -5.97672 4.46158e-21)
(0.725201 -5.81956 1.48964e-20)
(0.726794 -5.66596 -6.57158e-21)
(0.727589 -5.51614 -2.15251e-21)
(0.727724 -5.37029 -5.59523e-21)
(0.727325 -5.22852 2.46974e-20)
(0.726508 -5.09087 -2.05591e-20)
(0.725378 -4.95732 6.6577e-21)
(0.724024 -4.82774 1.52143e-20)
(0.722514 -4.70197 -1.23353e-20)
(0.720893 -4.57976 1.64043e-20)
(0.719241 -4.46081 -1.76844e-21)
(0.717715 -4.34478 -1.84156e-21)
(0.715887 -4.23128 -1.19743e-20)
(1.02809 -9.62728 -6.98926e-20)
(0.845507 -9.1578 -6.08892e-20)
(0.822865 -8.77127 -7.42778e-20)
(0.823655 -8.45251 2.23593e-21)
(0.822825 -8.18361 4.51746e-21)
(0.826684 -7.94837 -8.27286e-20)
(0.834082 -7.73561 -4.08565e-20)
(0.8428 -7.53771 1.06397e-20)
(0.851655 -7.34948 -1.84849e-21)
(0.859924 -7.16755 1.79752e-20)
(0.867132 -6.98985 -7.08536e-20)
(0.873006 -6.81523 -4.37461e-20)
(0.87743 -6.64316 1.63123e-20)
(0.880397 -6.4735 3.19964e-20)
(0.881973 -6.30634 -3.70705e-20)
(0.882271 -6.14193 -5.77329e-21)
(0.881428 -5.98057 -2.16592e-20)
(0.879598 -5.82257 -1.01354e-20)
(0.876935 -5.66821 1.69182e-20)
(0.873591 -5.51774 -2.15629e-20)
(0.869709 -5.37134 1.86453e-20)
(0.865421 -5.22913 -2.20549e-20)
(0.860845 -5.09113 -1.72285e-20)
(0.856086 -4.95732 -1.22818e-20)
(0.851232 -4.82759 1.41857e-20)
(0.846345 -4.70174 -2.50876e-20)
(0.841462 -4.57953 2.59856e-21)
(0.836669 -4.46062 4.45897e-21)
(0.832149 -4.34463 -1.28992e-20)
(0.82735 -4.23118 2.60674e-21)
(1.27987 -9.60054 -4.14154e-20)
(1.08615 -9.14263 5.84441e-21)
(1.05443 -8.76259 5.1428e-20)
(1.04773 -8.44861 5.35392e-20)
(1.04053 -8.18344 3.83896e-20)
(1.03872 -7.95077 1.58161e-20)
(1.04086 -7.73963 9.64928e-21)
(1.04457 -7.54257 1.10511e-19)
(1.04853 -7.35459 -6.60874e-20)
(1.05197 -7.17246 1.90785e-21)
(1.05437 -6.99425 1.57665e-20)
(1.05546 -6.81892 6.71551e-20)
(1.05513 -6.64602 -4.54405e-20)
(1.05337 -6.47547 3.24269e-20)
(1.05028 -6.30743 -3.57334e-20)
(1.04598 -6.14216 6.09907e-20)
(1.04063 -5.98001 -1.79162e-20)
(1.03438 -5.82129 6.55654e-22)
(1.02742 -5.6663 2.84248e-20)
(1.0199 -5.51529 1.97591e-20)
(1.01197 -5.36846 -2.01207e-20)
(1.00376 -5.22591 2.70112e-20)
(0.995408 -5.08768 -1.22103e-20)
(0.987005 -4.95375 1.407e-20)
(0.97864 -4.82397 1.54948e-20)
(0.97037 -4.69816 6.74734e-21)
(0.962225 -4.57605 2.05306e-20)
(0.954294 -4.4573 -7.4193e-21)
(0.946784 -4.34147 -2.47607e-21)
(0.939008 -4.22818 -1.12171e-20)
(1.53096 -9.56737 -3.00338e-20)
(1.32655 -9.12139 -1.91415e-20)
(1.28606 -8.74807 -5.80289e-20)
(1.27212 -8.43902 -1.50472e-19)
(1.25873 -8.17767 5.04574e-20)
(1.25137 -7.94768 3.2461e-21)
(1.24833 -7.73821 7.29993e-22)
(1.24705 -7.54207 6.55543e-21)
(1.24611 -7.3544 -4.88986e-21)
(1.24469 -7.17216 -8.47284e-20)
(1.24225 -6.99354 3.55397e-20)
(1.23851 -6.81759 6.05749e-20)
(1.23336 -6.64397 1.97082e-22)
(1.22682 -6.47264 2.21188e-20)
(1.219 -6.30382 5.42506e-20)
(1.21005 -6.13782 -3.71774e-20)
(1.20013 -5.97499 6.49079e-20)
(1.18943 -5.81568 -3.08113e-20)
(1.17813 -5.66018 5.42416e-20)
(1.16639 -5.50877 -4.05696e-20)
(1.15438 -5.36162 1.79705e-20)
(1.14224 -5.21886 4.67385e-20)
(1.13008 -5.08052 2.50436e-21)
(1.11803 -4.94657 -4.30037e-20)
(1.10614 -4.81686 2.35652e-20)
(1.09449 -4.69121 7.14899e-21)
(1.08309 -4.56932 -7.61748e-21)
(1.07202 -4.45084 2.89457e-20)
(1.06153 -4.33528 1.01087e-20)
(1.05078 -4.22229 -9.57679e-21)
(1.78121 -9.52776 8.42951e-20)
(1.56659 -9.09405 -1.88287e-21)
(1.51764 -8.72766 -1.17647e-19)
(1.49669 -8.42369 2.40069e-20)
(1.47729 -8.16627 -3.29689e-20)
(1.4645 -7.93903 2.42929e-20)
(1.45634 -7.73132 -1.13317e-20)
(1.4501 -7.53615 9.51022e-20)
(1.44426 -7.34888 -1.02181e-19)
(1.43795 -7.16661 2.50309e-20)
(1.43062 -6.98765 -1.72279e-20)
(1.42199 -6.8112 1.25537e-20)
(1.41197 -6.63695 -5.57371e-20)
(1.40059 -6.46497 -3.50379e-21)
(1.38799 -6.2955 8.8298e-20)
(1.37433 -6.12889 -6.07675e-20)
(1.3598 -5.96551 -3.80999e-20)
(1.3446 -5.80573 -2.73921e-20)
(1.32892 -5.64985 4.97798e-20)
(1.31294 -5.49815 1.06001e-20)
(1.29683 -5.35081 -4.84116e-20)
(1.28073 -5.20796 6.41112e-20)
(1.26476 -5.06963 -5.77424e-20)
(1.24904 -4.93577 3.795e-20)
(1.23364 -4.80626 -2.15096e-20)
(1.2186 -4.68088 6.43673e-21)
(1.20395 -4.55933 1.02959e-20)
(1.18977 -4.44122 -4.6188e-20)
(1.17631 -4.32606 1.97885e-20)
(1.16259 -4.21348 3.08849e-22)
(2.03044 -9.48172 -8.25093e-20)
(1.80612 -9.0606 6.50846e-20)
(1.74902 -8.70136 -1.20103e-19)
(1.7213 -8.40261 2.28781e-19)
(1.69608 -8.14921 -6.38294e-20)
(1.67797 -7.92479 9.00806e-20)
(1.66475 -7.7189 7.03481e-20)
(1.65357 -7.52478 -1.26291e-20)
(1.64282 -7.33798 -1.78344e-20)
(1.6316 -7.15575 -8.39232e-23)
(1.61933 -6.97657 -6.82044e-20)
(1.60576 -6.7997 3.55988e-20)
(1.59081 -6.62494 -4.2363e-20)
(1.57454 -6.45242 -3.40048e-21)
(1.55711 -6.28243 -1.17398e-19)
(1.53869 -6.11533 3.84349e-20)
(1.5195 -5.95154 2.18901e-20)
(1.49976 -5.79141 -2.48397e-20)
(1.47967 -5.63529 -2.92723e-21)
(1.45942 -5.48343 -3.76278e-20)
(1.43918 -5.33603 -1.33817e-20)
(1.41911 -5.19321 1.112e-21)
(1.39933 -5.055 -3.23895e-20)
(1.37994 -4.92136 -4.78134e-20)
(1.36102 -4.79215 2.07426e-21)
(1.34261 -4.66715 6.7139e-21)
(1.32471 -4.54605 1.49011e-20)
(1.30743 -4.42845 -3.66548e-20)
(1.29103 -4.31379 3.11179e-20)
(1.27435 -4.20176 -5.71724e-20)
(2.27851 -9.42927 -2.03917e-19)
(2.045 -9.02103 2.3838e-19)
(1.98009 -8.66914 -2.50955e-19)
(1.94583 -8.37573 -6.74763e-20)
(1.91494 -8.12646 -4.28159e-20)
(1.89163 -7.90493 -4.65378e-20)
(1.87342 -7.70092 -1.06808e-19)
(1.85731 -7.50791 -9.23626e-21)
(1.84164 -7.32165 -4.26945e-20)
(1.82547 -7.13956 -8.79242e-21)
(1.80823 -6.96024 7.04755e-20)
(1.78967 -6.78306 -4.04649e-20)
(1.76974 -6.60792 -4.72546e-20)
(1.74852 -6.43498 -7.89948e-20)
(1.7262 -6.26458 1.65497e-19)
(1.70298 -6.09714 -6.32092e-20)
(1.6791 -5.93306 2.34923e-20)
(1.65478 -5.77273 -8.7047e-20)
(1.63025 -5.61649 3.34899e-20)
(1.60571 -5.4646 -1.35407e-20)
(1.58133 -5.31726 1.71683e-20)
(1.55727 -5.17459 -5.80154e-21)
(1.53366 -5.03663 5.30739e-20)
(1.5106 -4.90332 -1.87349e-20)
(1.48817 -4.77453 5.16548e-20)
(1.4664 -4.65003 -1.04998e-19)
(1.44528 -4.5295 6.68559e-20)
(1.42492 -4.41251 1.82733e-20)
(1.4056 -4.29847 3.41638e-20)
(1.38598 -4.18711 -1.01005e-19)
(2.52524 -9.37042 3.22038e-19)
(2.28307 -8.97534 -6.05015e-20)
(2.21068 -8.63097 1.07727e-19)
(2.17013 -8.34304 -3.03796e-20)
(2.13375 -8.09797 1.06667e-19)
(2.10533 -7.8794 1.00352e-19)
(2.08218 -7.67734 4.73072e-20)
(2.06116 -7.48551 -1.72652e-20)
(2.04057 -7.29987 -1.07395e-19)
(2.01942 -7.118 1.57141e-19)
(1.99716 -6.93863 -1.17357e-20)
(1.97356 -6.76126 1.09484e-19)
(1.94859 -6.58584 3.94778e-20)
(1.92238 -6.41261 1.45288e-20)
(1.89513 -6.24195 2.25961e-20)
(1.86707 -6.07429 3.13457e-20)
(1.83845 -5.91006 5.16634e-20)
(1.80953 -5.74966 -1.47046e-20)
(1.78053 -5.59343 7.53482e-20)
(1.75167 -5.44165 3.43928e-20)
(1.72314 -5.2945 -7.1574e-20)
(1.69509 -5.15211 1.26394e-19)
(1.66765 -5.01451 -1.66234e-19)
(1.64093 -4.88165 1.56578e-19)
(1.61499 -4.7534 -5.16908e-20)
(1.58987 -4.62951 -2.11315e-20)
(1.56555 -4.50967 -5.35415e-21)
(1.54214 -4.39341 3.77805e-20)
(1.51992 -4.28011 1.34658e-20)
(1.49738 -4.16954 -1.55262e-20)
(2.77047 -9.30521 -1.8324e-19)
(2.52019 -8.92353 1.7285e-19)
(2.44065 -8.58686 -4.68865e-20)
(2.39405 -8.30451 1.34218e-19)
(2.35234 -8.06372 1.32621e-20)
(2.31893 -7.84817 2.81332e-20)
(2.29089 -7.64811 -2.27707e-19)
(2.26498 -7.45753 1.06176e-19)
(2.23944 -7.27259 1.44803e-19)
(2.21328 -7.09103 1.0894e-19)
(2.18596 -6.91173 -1.8504e-19)
(2.15727 -6.73427 1.07208e-19)
(2.12723 -6.5587 -1.06652e-19)
(2.09597 -6.38531 7.27266e-20)
(2.06374 -6.21451 -1.21436e-19)
(2.0308 -6.04677 -8.94371e-20)
(1.99741 -5.88253 5.79642e-21)
(1.96386 -5.72221 -4.04017e-20)
(1.93038 -5.56613 7.21038e-20)
(1.89719 -5.41458 2.85491e-20)
(1.86449 -5.26775 -1.87124e-20)
(1.83244 -5.12576 -5.40905e-21)
(1.80117 -4.98865 2.1736e-20)
(1.77079 -4.85636 -7.27575e-20)
(1.74137 -4.72876 1.20242e-19)
(1.71292 -4.6056 -2.93631e-20)
(1.68542 -4.48655 -4.97844e-20)
(1.65898 -4.37114 1.0389e-19)
(1.63391 -4.2587 1.37905e-20)
(1.60849 -4.14905 -1.39225e-20)
(3.01405 -9.23365 7.24325e-21)
(2.75619 -8.8656 -9.70139e-20)
(2.66985 -8.53679 -8.83082e-20)
(2.61743 -8.26013 -1.45679e-19)
(2.57058 -8.02368 5.0744e-21)
(2.53227 -7.81121 -1.03366e-19)
(2.49939 -7.61322 1.22313e-19)
(2.4686 -7.42395 -6.01949e-20)
(2.4381 -7.23978 9.70951e-20)
(2.4069 -7.05862 -8.06669e-20)
(2.37448 -6.87949 -4.10125e-20)
(2.34065 -6.70207 2.23171e-20)
(2.30548 -6.52647 1.20043e-20)
(2.26914 -6.35305 -1.21039e-19)
(2.23189 -6.18226 7.11356e-20)
(2.19403 -6.01458 -3.48079e-20)
(2.15585 -5.85048 9.88761e-20)
(2.11764 -5.69036 -3.23673e-20)
(2.07965 -5.53458 3.36666e-20)
(2.04213 -5.3834 8.28328e-21)
(2.00525 -5.23701 5.67435e-20)
(1.96921 -5.09555 -1.16136e-20)
(1.93412 -4.95905 9.25605e-20)
(1.90009 -4.82745 -1.02904e-19)
(1.86719 -4.70061 -3.46704e-20)
(1.83543 -4.5783 2.82445e-20)
(1.80478 -4.46016 -2.96543e-21)
(1.77535 -4.34571 -7.71384e-20)
(1.74746 -4.23424 3.94788e-20)
(1.71919 -4.12564 -4.39135e-20)
(3.2558 -9.1558 3.08632e-19)
(2.99091 -8.80156 8.04869e-20)
(2.89812 -8.48075 9.62705e-20)
(2.84014 -8.20987 1.28854e-19)
(2.7883 -7.97783 1.92884e-19)
(2.74519 -7.76849 -5.84452e-21)
(2.70752 -7.57262 2.80538e-20)
(2.67186 -7.38474 3.22315e-19)
(2.63639 -7.20142 9.24892e-20)
(2.60011 -7.02076 -7.74173e-20)
(2.56255 -6.84191 1.35477e-19)
(2.52354 -6.66464 2.253e-20)
(2.4832 -6.48915 1.19833e-21)
(2.44172 -6.31584 3.20654e-20)
(2.39942 -6.1452 5.66113e-20)
(2.35661 -5.97773 -1.15629e-19)
(2.31361 -5.8139 9.81778e-20)
(2.27073 -5.65414 1.63782e-20)
(2.22823 -5.49878 9.45596e-20)
(2.18635 -5.3481 -5.12922e-20)
(2.14531 -5.2023 8.39024e-20)
(2.10526 -5.0615 -8.89437e-20)
(2.06636 -4.92572 8.56235e-20)
(2.0287 -4.79492 1.17139e-20)
(1.99234 -4.66897 -5.71749e-20)
(1.9573 -4.54761 -1.84634e-20)
(1.92353 -4.4305 1.08426e-19)
(1.89115 -4.31712 -1.63773e-20)
(1.86048 -4.20674 2.08693e-20)
(1.82941 -4.09932 -1.35251e-20)
(3.49556 -9.07169 3.10733e-20)
(3.22421 -8.73144 6.94628e-20)
(3.12532 -8.41876 2.81886e-19)
(3.06202 -8.15373 -4.58778e-19)
(3.00535 -7.92616 -4.48677e-20)
(2.95754 -7.72 -4.8978e-20)
(2.91512 -7.52631 2.17962e-20)
(2.8746 -7.33987 2.85297e-20)
(2.83414 -7.15749 7.14647e-20)
(2.79276 -6.97743 -1.26546e-19)
(2.75 -6.79896 -2.39657e-20)
(2.70578 -6.62198 6.99403e-20)
(2.66022 -6.44673 7.45582e-20)
(2.61358 -6.27367 -7.45844e-20)
(2.56619 -6.10332 -7.26878e-20)
(2.51841 -5.9362 1.18411e-19)
(2.47057 -5.7728 7.64016e-20)
(2.42299 -5.61353 -1.99642e-20)
(2.37597 -5.45874 -4.84698e-20)
(2.32974 -5.30871 8.62281e-21)
(2.28452 -5.16362 -1.1035e-19)
(2.24049 -5.0236 1.32451e-19)
(2.19778 -4.88867 -9.02265e-20)
(2.1565 -4.75879 -3.65795e-21)
(2.11671 -4.63383 5.89442e-20)
(2.07841 -4.51354 -1.82887e-20)
(2.04155 -4.39758 -5.49666e-20)
(2.00626 -4.28539 8.61366e-21)
(1.97286 -4.17621 -2.25827e-21)
(1.93904 -4.0701 1.06017e-20)
(3.73318 -8.98137 -2.3442e-20)
(3.45592 -8.65526 -7.30536e-20)
(3.35129 -8.3508 -3.24547e-19)
(3.2829 -8.09171 1.16678e-19)
(3.22157 -7.86865 -3.49646e-20)
(3.16916 -7.66572 1.15122e-19)
(3.12203 -7.47425 8.43029e-21)
(3.07666 -7.28933 -1.30375e-19)
(3.03118 -7.10798 1.05304e-20)
(2.98466 -6.92862 -1.7626e-19)
(2.93669 -6.75065 -6.62079e-21)
(2.88721 -6.57407 4.20527e-20)
(2.83639 -6.3992 -7.22846e-20)
(2.78455 -6.22653 8.14493e-20)
(2.73205 -6.05662 -1.55004e-19)
(2.67927 -5.89001 -3.44178e-20)
(2.62657 -5.72718 9.28508e-20)
(2.57429 -5.56856 9.29045e-23)
(2.52274 -5.41449 -5.75005e-20)
(2.47216 -5.26523 1.56097e-19)
(2.42277 -5.12099 -8.36605e-20)
(2.37476 -4.98187 -1.11205e-19)
(2.32826 -4.84791 3.68293e-20)
(2.28337 -4.71907 -1.06693e-19)
(2.24017 -4.59522 -2.54442e-20)
(2.19864 -4.47611 -3.13237e-21)
(2.15873 -4.3614 -6.84543e-20)
(2.12058 -4.25052 8.19564e-20)
(2.0845 -4.14266 -2.89868e-20)
(2.04799 -4.03799 4.78729e-20)
(3.96848 -8.88488 -1.09415e-19)
(3.68589 -8.57303 -2.91935e-19)
(3.57586 -8.27691 1.3979e-19)
(3.50264 -8.0238 -1.32311e-19)
(3.4368 -7.80529 -9.72076e-20)
(3.37987 -7.60562 -5.5549e-20)
(3.32808 -7.41644 -2.0337e-19)
(3.27786 -7.2331 1.37555e-19)
(3.22735 -7.05286 -2.4433e-19)
(3.17566 -6.87431 -3.37877e-19)
(3.12243 -6.69697 4.41253e-20)
(3.06765 -6.52093 7.1973e-20)
(3.01155 -6.34657 -1.53621e-21)
(2.95448 -6.17445 -1.35358e-19)
(2.89684 -6.00512 3.14804e-20)
(2.83904 -5.83916 -1.20698e-19)
(2.78147 -5.67706 -8.60283e-20)
(2.72449 -5.51923 -5.10498e-20)
(2.6684 -5.36602 -9.74158e-21)
(2.61347 -5.21768 8.70805e-20)
(2.55993 -5.07442 1.23342e-19)
(2.50795 -4.93633 -3.67839e-20)
(2.45767 -4.80346 -3.50251e-20)
(2.4092 -4.67577 6.8016e-20)
(2.36261 -4.55313 3.75788e-20)
(2.31788 -4.43532 -2.97511e-20)
(2.27496 -4.32198 -3.29188e-20)
(2.23399 -4.21252 3.80238e-21)
(2.1953 -4.1061 2.92125e-20)
(2.15616 -4.00301 -4.27262e-20)
(4.20132 -8.78228 -2.05602e-20)
(3.91396 -8.4848 3.67454e-19)
(3.7989 -8.19708 2.80764e-19)
(3.72108 -7.95001 2.16849e-19)
(3.65089 -7.73608 -1.40312e-19)
(3.58953 -7.53971 -2.79458e-20)
(3.53311 -7.35286 2.57186e-20)
(3.47803 -7.17119 1.73957e-19)
(3.42248 -6.99214 6.48869e-20)
(3.3656 -6.8145 9.79292e-20)
(3.30707 -6.63791 -2.15172e-19)
(3.24696 -6.46254 2.22292e-20)
(3.18554 -6.28885 8.62705e-20)
(3.12321 -6.11741 5.20393e-20)
(3.06041 -5.94883 1.07384e-19)
(2.99758 -5.78368 -7.34989e-20)
(2.93514 -5.62245 -6.72123e-20)
(2.87345 -5.46556 1.32032e-20)
(2.81283 -5.31336 1.41623e-19)
(2.75356 -5.16608 -2.27423e-19)
(2.69587 -5.02392 7.90524e-20)
(2.63993 -4.88699 -4.88129e-22)
(2.58589 -4.75534 1.4684e-19)
(2.53387 -4.62891 -6.35364e-20)
(2.48391 -4.5076 -3.50585e-21)
(2.43602 -4.39119 -3.97683e-20)
(2.39012 -4.27933 -3.49657e-20)
(2.34638 -4.17141 7.37399e-21)
(2.30513 -4.06654 -8.5186e-20)
(2.26343 -3.96517 1.2681e-19)
(4.43152 -8.67364 -3.99433e-19)
(4.13997 -8.3906 -2.22984e-19)
(4.02024 -8.11135 -5.65462e-19)
(3.93805 -7.87034 -2.53678e-19)
(3.86367 -7.66102 2.35365e-19)
(3.79796 -7.46798 -1.36918e-19)
(3.73694 -7.28351 -3.19461e-20)
(3.67701 -7.10357 -8.87564e-20)
(3.6164 -6.92582 1.49547e-19)
(3.55429 -6.74921 -1.37249e-19)
(3.49044 -6.57349 1.63948e-20)
(3.42496 -6.39893 -6.57496e-21)
(3.3582 -6.22605 -2.09929e-19)
(3.29059 -6.05545 -7.61345e-21)
(3.22261 -5.88777 5.57172e-20)
(3.15475 -5.72357 -6.0112e-21)
(3.08742 -5.56338 -2.09521e-19)
(3.02103 -5.40758 2.02667e-19)
(2.95589 -5.25652 -1.97315e-19)
(2.89229 -5.11045 7.66419e-20)
(2.83047 -4.96953 1.07463e-20)
(2.77059 -4.83388 4.32606e-21)
(2.71281 -4.70355 -7.92151e-20)
(2.65724 -4.57851 7.90314e-20)
(2.60395 -4.45863 -3.36117e-20)
(2.55292 -4.34372 3.63318e-20)
(2.50409 -4.23345 -1.93306e-19)
(2.45762 -4.12719 5.25563e-20)
(2.41387 -4.024 5.6059e-20)
(2.36969 -3.92448 5.64498e-20)
(4.65893 -8.559 7.75783e-19)
(4.36377 -8.29047 2.5403e-19)
(4.23973 -8.01974 1.46857e-19)
(4.15342 -7.78482 2.31866e-19)
(4.07498 -7.58012 -2.87544e-20)
(4.005 -7.39044 1.70374e-19)
(3.9394 -7.2084 3.75202e-19)
(3.87463 -7.03026 -4.81679e-20)
(3.80893 -6.8539 2.05142e-20)
(3.74157 -6.67843 4.27585e-19)
(3.67237 -6.50371 3.97379e-19)
(3.6015 -6.33011 5.78591e-20)
(3.52937 -6.15818 -2.07053e-20)
(3.45646 -5.98858 -1.07891e-21)
(3.3833 -5.82195 2.93956e-19)
(3.31039 -5.65887 1.13419e-20)
(3.23819 -5.49986 3.06822e-19)
(3.1671 -5.34531 -3.92478e-20)
(3.09746 -5.19554 -6.52149e-20)
(3.02954 -5.0508 1.5144e-19)
(2.9636 -4.91126 -1.3743e-19)
(2.8998 -4.77702 -1.47597e-19)
(2.8383 -4.64813 -1.31124e-20)
(2.77921 -4.52457 -6.45215e-20)
(2.72259 -4.40624 9.7685e-20)
(2.66846 -4.29294 1.14403e-20)
(2.61673 -4.18437 -3.99543e-20)
(2.56759 -4.07988 2.18878e-20)
(2.52141 -3.97849 1.42852e-19)
(2.47482 -3.88096 2.00596e-20)
(4.8834 -8.43844 -1.33501e-19)
(4.58521 -8.18446 -2.554e-19)
(4.45722 -7.92228 1.03026e-19)
(4.36702 -7.69345 -4.13188e-19)
(4.28467 -7.49337 1.93549e-19)
(4.21047 -7.30708 -3.51437e-19)
(4.14034 -7.12752 -2.27426e-19)
(4.07071 -6.95126 6.2898e-20)
(3.99991 -6.7764 5.97255e-20)
(3.92728 -6.60217 -2.96292e-19)
(3.85269 -6.4286 4.45946e-20)
(3.77641 -6.25609 4.80481e-20)
(3.69889 -6.08527 -1.57061e-19)
(3.62068 -5.91682 -6.16443e-20)
(3.54233 -5.7514 -4.09464e-20)
(3.46438 -5.5896 -4.09259e-20)
(3.38731 -5.43193 -1.68655e-19)
(3.31153 -5.27877 -1.04385e-19)
(3.23739 -5.13044 -2.22856e-20)
(3.16518 -4.98718 8.44306e-20)
(3.09513 -4.84914 1.13155e-19)
(3.02743 -4.71643 -1.22479e-19)
(2.96223 -4.5891 4.54003e-20)
(2.89964 -4.46713 -9.37294e-20)
(2.83973 -4.35043 8.71304e-20)
(2.78251 -4.23885 -1.14664e-19)
(2.72792 -4.13208 3.53116e-20)
(2.67615 -4.02948 -5.59495e-20)
(2.6276 -3.93001 -7.84873e-20)
(2.5787 -3.83462 -7.39371e-21)
(5.10476 -8.31203 -2.79035e-19)
(4.80413 -8.07263 -2.28557e-19)
(4.67257 -7.81901 -2.21724e-19)
(4.57869 -7.59626 -1.6045e-19)
(4.49255 -7.4008 4.92558e-19)
(4.41422 -7.21791 6.73838e-20)
(4.33956 -7.04089 2.05583e-19)
(4.26508 -6.86659 3.10339e-19)
(4.18917 -6.69332 1.46899e-19)
(4.11123 -6.52047 -1.94804e-19)
(4.03125 -6.34817 3.06536e-19)
(3.94953 -6.17691 8.94431e-20)
(3.86662 -6.00735 2.76044e-19)
(3.78309 -5.84021 3.13253e-20)
(3.69955 -5.67616 6.87614e-20)
(3.61656 -5.51579 2.23519e-20)
(3.53463 -5.35961 -1.20191e-21)
(3.45418 -5.20799 -8.17011e-21)
(3.37557 -5.06125 3.5591e-20)
(3.29908 -4.9196 1.19439e-19)
(3.22495 -4.78319 -1.32518e-19)
(3.15337 -4.65213 1.04278e-19)
(3.08449 -4.52646 3.51986e-21)
(3.01842 -4.40619 4.6473e-20)
(2.95524 -4.29123 8.42894e-20)
(2.89496 -4.18146 -1.45656e-20)
(2.83753 -4.07659 8.26839e-20)
(2.78317 -3.97598 1.18429e-19)
(2.7323 -3.87857 -1.28478e-19)
(2.68118 -3.78547 -7.10361e-20)
(5.32287 -8.17984 8.11645e-19)
(5.0204 -7.95502 -8.39612e-20)
(4.88563 -7.70996 1.71069e-19)
(4.78829 -7.49328 3.1092e-19)
(4.69848 -7.30243 -8.81037e-19)
(4.61607 -7.12296 9.33835e-20)
(4.5369 -6.94853 -3.26928e-19)
(4.45756 -6.77626 3.19792e-19)
(4.37652 -6.60469 -2.52871e-19)
(4.29327 -6.43335 1.33008e-19)
(4.20786 -6.26246 -4.83208e-19)
(4.1207 -6.09259 1.91179e-20)
(4.03238 -5.92445 -5.16965e-19)
(3.94353 -5.75878 2.32178e-19)
(3.85481 -5.59625 1.18845e-19)
(3.7668 -5.43748 1.7875e-19)
(3.68003 -5.28294 -1.9394e-19)
(3.59493 -5.13301 -1.51321e-20)
(3.51186 -4.98799 1.49347e-20)
(3.43112 -4.84809 4.1456e-20)
(3.35294 -4.71344 -2.33367e-19)
(3.27751 -4.58415 -6.84824e-21)
(3.20497 -4.46025 -1.28444e-19)
(3.13543 -4.34177 -3.00629e-20)
(3.06899 -4.22864 -7.76859e-20)
(3.00567 -4.12076 -8.41663e-20)
(2.94541 -4.01789 -8.67758e-20)
(2.8885 -3.91938 1.43472e-19)
(2.83538 -3.82415 3.81574e-20)
(2.78212 -3.73349 -6.81233e-20)
(5.53759 -8.04196 -5.40306e-19)
(5.23389 -7.83172 1.86308e-19)
(5.09627 -7.59518 -3.13613e-19)
(4.99567 -7.38452 4.69636e-20)
(4.9023 -7.19825 4.97931e-19)
(4.81584 -7.02223 -2.50467e-19)
(4.73219 -6.85044 -2.56789e-19)
(4.64799 -6.6803 -2.18238e-19)
(4.56181 -6.51053 1.11459e-20)
(4.47322 -6.34083 1.37397e-19)
(4.38238 -6.17149 -9.80321e-20)
(4.28976 -6.00317 5.52297e-21)
(4.19603 -5.83661 2.15423e-19)
(4.10187 -5.67256 1.33511e-19)
(4.00797 -5.51173 3.73732e-20)
(3.91496 -5.3547 -1.16841e-19)
(3.82337 -5.20196 4.42018e-20)
(3.73364 -5.05387 9.55942e-20)
(3.64616 -4.91071 1.05312e-19)
(3.5612 -4.77269 -1.15256e-19)
(3.47899 -4.63992 1.75175e-20)
(3.39973 -4.5125 9.69946e-20)
(3.32355 -4.39049 1.67011e-19)
(3.25057 -4.27388 4.30246e-20)
(3.18088 -4.16267 -1.69766e-19)
(3.11451 -4.05676 1.96229e-19)
(3.05145 -3.95596 -9.79819e-20)
(2.992 -3.85966 -1.15992e-19)
(2.93666 -3.76672 -7.09084e-20)
(2.88136 -3.67866 -8.74182e-20)
(5.74878 -7.89847 2.83913e-19)
(5.44449 -7.7028 -2.13024e-19)
(5.30436 -7.47471 8.20808e-20)
(5.20067 -7.27 4.19838e-19)
(5.10382 -7.08831 1.12228e-19)
(5.01338 -6.91575 -9.53606e-20)
(4.92525 -6.74666 2.28694e-19)
(4.83618 -6.57874 5.44284e-20)
(4.74484 -6.41089 2.0906e-19)
(4.65091 -6.24295 1.13979e-19)
(4.55462 -6.07532 4.83557e-21)
(4.45655 -5.9087 6.99614e-20)
(4.3574 -5.74388 -2.20389e-20)
(4.25795 -5.58162 -1.92407e-19)
(4.1589 -5.42264 -2.80057e-20)
(4.06091 -5.26751 -5.61624e-20)
(3.96453 -5.11671 1.36835e-19)
(3.87022 -4.9706 1.37814e-19)
(3.77834 -4.82944 -1.56045e-19)
(3.68919 -4.69342 1.59156e-19)
(3.603 -4.56265 3.34775e-19)
(3.51993 -4.43722 -2.15022e-19)
(3.44013 -4.31718 2.13995e-19)
(3.36372 -4.20254 -1.49776e-19)
(3.29079 -4.09331 -2.08637e-20)
(3.22138 -3.98944 1.57915e-19)
(3.1555 -3.89079 -3.21309e-20)
(3.09351 -3.79677 1.1736e-19)
(3.03599 -3.70625 1.15883e-19)
(2.97874 -3.62096 -2.09965e-19)
(5.95635 -7.74944 -2.73653e-19)
(5.65209 -7.56831 1.20985e-19)
(5.50978 -7.34858 4.92017e-20)
(5.40315 -7.14975 -4.88021e-19)
(5.3029 -6.9726 -2.49188e-19)
(5.20849 -6.80354 1.84261e-19)
(5.1159 -6.63722 -5.06143e-19)
(5.02196 -6.47161 6.03032e-19)
(4.92546 -6.30581 -3.35837e-19)
(4.82616 -6.13977 3.97529e-20)
(4.72443 -5.97399 -6.34429e-20)
(4.6209 -5.80923 -1.84124e-19)
(4.51636 -5.6463 3.76746e-19)
(4.41163 -5.486 1.39785e-19)
(4.30746 -5.32902 1.79533e-19)
(4.20452 -5.17595 3.68589e-21)
(4.10338 -5.02724 7.83063e-20)
(4.00452 -4.88325 -1.69192e-19)
(3.9083 -4.74423 3.5481e-20)
(3.81501 -4.61033 1.14476e-19)
(3.72486 -4.48167 -4.82101e-20)
(3.63802 -4.35833 7.76902e-20)
(3.55463 -4.24035 -1.52887e-19)
(3.4748 -4.12776 2.18679e-19)
(3.39862 -4.02057 5.01213e-20)
(3.32616 -3.91878 -1.37332e-19)
(3.25744 -3.82232 -1.17709e-19)
(3.19288 -3.73066 5.50425e-22)
(3.13317 -3.64265 1.60695e-19)
(3.07403 -3.56032 -3.5257e-20)
(6.16022 -7.59495 -7.53219e-20)
(5.85661 -7.4283 -4.97229e-19)
(5.7124 -7.21681 5.88663e-19)
(5.60294 -7.02378 3.92883e-19)
(5.49934 -6.85116 3.8638e-19)
(5.401 -6.68563 1.04693e-19)
(5.30395 -6.52216 1.57417e-19)
(5.20515 -6.35896 7.83734e-20)
(5.10347 -6.19532 -3.10798e-19)
(4.99882 -6.03133 5.62633e-19)
(4.89164 -5.86756 -4.45154e-19)
(4.78267 -5.70482 -2.85626e-20)
(4.67275 -5.54395 6.39643e-20)
(4.56277 -5.38576 -2.77029e-19)
(4.4535 -5.23095 4.34176e-19)
(4.34566 -5.08009 8.16441e-20)
(4.23982 -4.93362 -1.81256e-19)
(4.13646 -4.79188 6.863e-20)
(4.03594 -4.65511 -1.32686e-19)
(3.93855 -4.52346 -1.16223e-19)
(3.84449 -4.39702 -1.22709e-19)
(3.75392 -4.27586 2.77961e-20)
(3.66696 -4.16002 1.50834e-20)
(3.58372 -4.04953 -2.94645e-19)
(3.5043 -3.94443 -1.10833e-19)
(3.42876 -3.84475 7.16599e-20)
(3.35716 -3.7505 8.79285e-20)
(3.28996 -3.66121 -1.21053e-19)
(3.22799 -3.5758 -4.58643e-20)
(3.16696 -3.49656 3.71586e-21)
(6.3604 -7.43508 -6.65579e-20)
(6.058 -7.28284 3.22111e-19)
(5.91208 -7.07942 -9.12719e-20)
(5.79988 -6.89211 -1.10984e-19)
(5.69297 -6.72401 -5.96752e-19)
(5.59072 -6.56206 -1.28711e-19)
(5.48923 -6.4015 2.41805e-19)
(5.38556 -6.24083 -1.58329e-19)
(5.27871 -6.07949 -1.66403e-20)
(5.16871 -5.91769 -3.14659e-20)
(5.05609 -5.75608 1.68277e-19)
(4.94169 -5.59552 -2.6267e-19)
(4.82643 -5.43689 -1.73156e-19)
(4.71123 -5.28098 2.01001e-19)
(4.59692 -5.12849 -1.13157e-19)
(4.48422 -4.97998 5.35866e-20)
(4.37373 -4.8359 1.03475e-20)
(4.26592 -4.69655 -4.53347e-20)
(4.16116 -4.56215 1.64741e-19)
(4.05973 -4.43285 -1.50053e-19)
(3.96181 -4.30873 -1.19617e-19)
(3.86755 -4.18984 1.04052e-19)
(3.77707 -4.07621 -1.19355e-20)
(3.69045 -3.96788 -7.62354e-20)
(3.60778 -3.86489 6.69915e-20)
(3.52915 -3.76732 -2.06434e-19)
(3.4546 -3.67526 1.25817e-19)
(3.38468 -3.58833 -2.03603e-21)
(3.32035 -3.50551 -1.29432e-19)
(3.25746 -3.42932 1.77712e-19)
(6.55719 -7.27006 2.60843e-19)
(6.25632 -7.13201 -6.29481e-19)
(6.10869 -6.93641 -5.15942e-20)
(5.99376 -6.75471 2.84645e-19)
(5.88359 -6.59115 -7.14437e-20)
(5.77745 -6.43283 -2.01541e-19)
(5.67153 -6.2753 9.16568e-20)
(5.56301 -6.11727 1.04988e-19)
(5.45099 -5.95837 8.24554e-21)
(5.33564 -5.79892 1.25973e-19)
(5.2176 -5.63964 3.98209e-19)
(5.0978 -5.48143 -1.39406e-19)
(4.97723 -5.32518 3.43956e-20)
(4.85686 -5.17171 -9.05739e-20)
(4.73756 -5.0217 3.44821e-19)
(4.62007 -4.87571 -6.15706e-20)
(4.50499 -4.73415 9.08235e-20)
(4.39281 -4.59731 -1.51814e-19)
(4.28388 -4.46541 8.1896e-20)
(4.17847 -4.33857 1.22906e-19)
(4.07675 -4.21686 2.06795e-20)
(3.97887 -4.10031 8.11655e-20)
(3.8849 -3.98895 -6.64373e-20)
(3.79493 -3.88282 1.84372e-19)
(3.70904 -3.78196 -7.48328e-20)
(3.62728 -3.6865 2.72063e-19)
(3.54974 -3.59658 -7.84946e-20)
(3.477 -3.51192 5.35862e-20)
(3.41024 -3.43153 -1.00893e-19)
(3.34562 -3.35851 1.72012e-19)
(6.75134 -7.10018 -5.7506e-19)
(6.45177 -6.97567 2.12433e-20)
(6.30207 -6.78761 -3.15209e-19)
(6.18436 -6.61154 5.60555e-20)
(6.07096 -6.45259 1.59177e-20)
(5.96098 -6.29801 -2.65229e-19)
(5.85066 -6.14362 -4.93593e-19)
(5.73728 -5.98836 2.42812e-19)
(5.62012 -5.83204 -3.41347e-19)
(5.49944 -5.67509 -1.76796e-19)
(5.37602 -5.5183 -9.92344e-20)
(5.25085 -5.36261 -7.69613e-20)
(5.12502 -5.20892 1.00561e-21)
(4.99954 -5.05806 -2.73988e-19)
(4.87531 -4.91069 1.75101e-19)
(4.75309 -4.76735 -2.88082e-19)
(4.6335 -4.62845 -7.23044e-20)
(4.51703 -4.49426 8.17317e-20)
(4.40401 -4.36497 -3.26551e-20)
(4.2947 -4.24069 9.4911e-20)
(4.18927 -4.12146 7.22919e-20)
(4.08783 -4.00732 -1.80367e-19)
(3.99044 -3.89828 1.80065e-19)
(3.89716 -3.79436 -1.9358e-20)
(3.80804 -3.69562 -4.7721e-20)
(3.72312 -3.60221 -1.879e-19)
(3.64248 -3.5143 -9.90055e-20)
(3.56671 -3.43159 1.82526e-19)
(3.49704 -3.35345 -6.01347e-20)
(3.43023 -3.28465 -5.59576e-20)
(6.94324 -6.92462 2.51462e-19)
(6.64417 -6.813 2.35447e-20)
(6.4919 -6.63275 -6.11016e-20)
(6.3714 -6.46262 -1.2607e-20)
(6.25488 -6.30845 -1.06064e-19)
(6.14114 -6.15774 3.58832e-19)
(6.02645 -6.0066 -1.66308e-19)
(5.90826 -5.85425 1.08869e-19)
(5.78598 -5.70065 4.47539e-20)
(5.66 -5.54635 1.56002e-19)
(5.53121 -5.39221 -5.84373e-20)
(5.40073 -5.2392 3.30706e-19)
(5.26969 -5.08824 -2.79715e-20)
(5.13915 -4.94014 2.0839e-19)
(5.01006 -4.79556 -3.46325e-19)
(4.8832 -4.65503 -2.48219e-20)
(4.75919 -4.51892 2.19412e-19)
(4.6385 -4.3875 -1.35104e-19)
(4.52149 -4.26094 5.51856e-20)
(4.40838 -4.13931 9.36239e-20)
(4.29934 -4.02265 -1.35473e-19)
(4.19444 -3.91097 1.49078e-19)
(4.09372 -3.80427 -1.38169e-19)
(3.99722 -3.70255 3.01923e-20)
(3.90493 -3.60587 1.10593e-19)
(3.81685 -3.51436 7.6061e-20)
(3.73305 -3.42808 7.10508e-20)
(3.65385 -3.34672 5.2228e-20)
(3.57962 -3.27079 -1.40923e-19)
(3.50815 -3.20687 -5.46461e-20)
(9.95274 0.0126946 3.25353e-21)
(9.94329 -0.249498 3.17185e-20)
(9.92758 -0.510112 1.10221e-19)
(9.90584 -0.769562 6.01065e-20)
(9.87763 -1.02797 -1.28204e-19)
(9.84274 -1.28528 3.87154e-20)
(9.80114 -1.54138 -4.03292e-20)
(9.75285 -1.79615 -1.02357e-19)
(9.69791 -2.04942 5.42311e-20)
(9.63634 -2.30103 -6.29508e-20)
(9.56821 -2.55081 -6.27007e-20)
(9.49357 -2.79859 -1.3444e-19)
(9.41248 -3.04421 -3.87913e-19)
(9.32502 -3.28749 3.56956e-20)
(9.23125 -3.52828 -1.58199e-20)
(9.13125 -3.76641 -1.24325e-19)
(9.0251 -4.00173 2.62317e-19)
(8.91289 -4.23407 1.44025e-19)
(8.79471 -4.46328 2.74595e-19)
(8.67064 -4.68922 1.34296e-19)
(8.54079 -4.91173 -3.05187e-19)
(8.40525 -5.13068 1.23426e-20)
(8.26413 -5.34592 -5.81731e-19)
(8.11754 -5.55732 8.84663e-19)
(7.96559 -5.76476 -2.90156e-19)
(7.8084 -5.96813 -3.80391e-19)
(7.6461 -6.16733 -5.61763e-20)
(7.47886 -6.36233 -6.51407e-21)
(7.30677 -6.55319 -2.94691e-19)
(7.13046 -6.74002 5.18551e-19)
(9.86115 -0.125243 1.21887e-20)
(9.84451 -0.38411 1.77667e-20)
(9.82075 -0.6414 4.16117e-21)
(9.79033 -0.897295 -1.5681e-19)
(9.75326 -1.15183 -1.40685e-19)