/*--------------------------------*- C++ -*----------------------------------*\
| =========                 |                                                 |
| \\      /  F ield         | OpenFOAM: The Open Source CFD Toolbox           |
|  \\    /   O peration     | Version:  v1912                                 |
|   \\  /    A nd           | Website:  www.openfoam.com                      |
|    \\/     M anipulation  |                                                 |
\*---------------------------------------------------------------------------*/
FoamFile
{
    version     2.0;
    format      ascii;
    class       surfaceScalarField;
    location    "24";
    object      phi;
}
// * * * * * * * * * * * * * * * * * * * * * * * * * * * * * * * * * * * * * //

dimensions      [0 3 -1 0 0 0 0];
oriented        oriented;


internalField   nonuniform List<scalar> 
4670
(
-0.000188142
-0.0216642
0.0218523
-0.000515118
-0.0167973
0.0171243
-0.000858356
-0.013178
0.0135213
-0.00114884
-0.0104987
0.0107892
-0.00135219
-0.00851058
0.00871394
-0.00145772
-0.00702065
0.00712618
-0.00147126
-0.00588315
0.00589668
-0.00141062
-0.00498983
0.00492919
-0.0013024
-0.00426143
0.0041532
-0.00364125
0.00351747
-0.00117862
-0.000173205
-0.021491
-0.00044944
-0.016521
-0.000700846
-0.0129266
-0.000857468
-0.0103421
-0.000885662
-0.00848239
-0.000775749
-0.00713056
-0.000534806
-0.00612409
-0.000182773
-0.00534186
0.00024882
-0.00469302
-0.00411043
0.000717998
-0.000149934
-0.021341
-0.000347647
-0.0163233
-0.000465794
-0.0128085
-0.000435642
-0.0103722
-0.000224912
-0.00869312
0.000175604
-0.00753108
0.000759028
-0.00670751
0.001505
-0.00608784
0.00238005
-0.00556806
-0.00506836
0.00333798
-0.000116902
-0.0212241
-0.000208659
-0.0162316
-0.000153979
-0.0128632
0.000112663
-0.0106389
0.000619845
-0.0092003
0.00137589
-0.00828713
0.00237518
-0.0077068
0.00359931
-0.00731196
0.00501441
-0.00698316
-0.0066203
0.00656635
-7.14926e-05
-0.0211526
-3.28773e-05
-0.0162702
0.000237213
-0.0131332
0.000788911
-0.0111906
0.00164527
-0.0100567
0.0028121
-0.00945396
0.00428481
-0.00917951
0.00604902
-0.00907618
0.0080747
-0.00900884
-0.0088505
0.0103049
-7.4363e-06
-0.0211452
0.000192896
-0.0164705
0.000716185
-0.0136565
0.00160129
-0.0120757
0.00285786
-0.0113132
0.00448407
-0.0110802
0.00647345
-0.0111689
0.00881605
-0.0114188
0.011491
-0.0116838
-0.0118052
0.0144457
6.32045e-05
-0.0212084
0.000463718
-0.016871
0.00128961
-0.0144824
0.00256122
-0.0133473
0.00427154
-0.0130235
0.00640456
-0.0132132
0.00894484
-0.0137092
0.0118823
-0.0143563
0.0152084
-0.0150099
-0.0154843
0.0188875
0.000149392
-0.0213578
0.000786352
-0.017508
0.00196322
-0.0156593
0.00367692
-0.015061
0.00589845
-0.0152451
0.00858959
-0.0159043
0.0117143
-0.0168339
0.0152493
-0.0178913
0.0191936
-0.0189542
-0.0198491
0.0235584
0.000256383
-0.0216142
0.00116118
-0.0184128
0.00273312
-0.0172312
0.00494244
-0.0172703
0.00773536
-0.018038
0.0110462
-0.0192152
0.014806
-0.0205937
0.0189545
-0.0220397
0.0234748
-0.0234745
-0.024868
0.0284937
0.000381064
-0.0219952
0.00157813
-0.0196099
0.00357609
-0.0192292
0.00632087
-0.0200151
0.00974059
-0.0214577
0.0137546
-0.0232292
0.0182751
-0.0251141
0.0231986
-0.0269633
0.0284065
-0.0286823
-0.0303116
0.0338501
0.0302292
0.00118703
-0.0314162
0.0290374
0.00119173
0.027868
0.00116942
0.0267464
0.00112159
0.0256948
0.00105161
0.0247312
0.000963595
0.0238696
0.00086159
0.0231208
0.000748879
0.0224932
0.000627542
0.000497986
0.0402125
0.00370824
-0.0427338
0.0375728
0.00383152
0.034885
0.00385719
0.0322168
0.00378973
0.0296308
0.00363763
0.0271824
0.00341201
0.0249193
0.00312472
0.0228817
0.00278649
0.0211032
0.00240597
0.00199137
0.04901
0.0068794
-0.0521812
0.0455692
0.00727236
0.041952
0.00747434
0.0382546
0.00748719
0.0345714
0.00732083
0.0309919
0.00699155
0.0275978
0.00651879
0.0244629
0.00592134
0.0216539
0.00521503
0.00441606
0.0562784
0.0102232
-0.0596222
0.0525125
0.0110382
0.0484224
0.0115645
0.0441163
0.0117933
0.0397083
0.0117288
0.0353128
0.0113871
0.0310405
0.0107911
0.0269974
0.0099644
0.0232875
0.00892494
0.00768845
0.0619639
0.013426
-0.0651667
0.0582094
0.0147927
0.0539907
0.0157832
0.0494132
0.0163708
0.0445956
0.0165464
0.0396643
0.0163183
0.0347485
0.015707
0.0299787
0.0147342
0.0254943
0.0134093
0.0117251
0.0661838
0.0163067
-0.0690646
0.0626581
0.0183185
0.0585546
0.0198867
0.0539633
0.0209621
0.0489942
0.0215156
0.0437712
0.0215412
0.0384271
0.0210511
0.0331023
0.020059
0.0279598
0.0185518
0.0164557
0.0691399
0.0187844
-0.0716176
0.065964
0.0214944
0.0621324
0.0237183
0.0577122
0.0253823
0.052794
0.0264337
0.047487
0.0268483
0.0419109
0.0266272
0.0361938
0.0257761
0.0304962
0.0242494
0.0218378
0.0710581
0.0208467
-0.0731205
0.068281
0.0242715
0.0648076
0.0271917
0.06068
0.0295099
0.0559644
0.0311493
0.0507464
0.0320662
0.0451196
0.0322541
0.0391722
0.0317235
0.0330095
0.030412
0.027884
0.0721483
0.0225236
-0.0738252
0.0697697
0.0266501
0.0666882
0.0302733
0.0629234
0.0332748
0.0585178
0.0355549
0.0535328
0.0370513
0.048031
0.0377559
0.042041
0.0377134
0.0355253
0.0369277
0.034727
0.0725799
-0.0739251
0.0238687
0.0705671
0.0286629
0.0678726
0.0329678
0.0644997
0.0366477
0.0604731
0.0395814
0.0558366
0.0416878
0.0506358
0.0429566
0.0448655
0.0434837
0.0383271
0.0434661
0.0427426
0.0367801
-0.000329146
-0.036451
0.0369012
-0.000121059
0.0368083
9.29133e-05
0.0365222
0.00028607
0.036042
0.000480181
0.0353816
0.000660378
0.0345614
0.000820215
0.0336067
0.000954693
0.0325471
0.00105964
0.00113089
0.0509159
-0.00149943
-0.0497456
0.0516654
-0.000870491
0.0519831
-0.000224846
0.0518495
0.000419706
0.0512771
0.00105258
0.0502797
0.00165777
0.0488835
0.00221647
0.0471263
0.00271182
0.0450572
0.0031288
0.0034543
0.0589397
-0.00346651
-0.0569726
0.0603948
-0.00232562
0.0613113
-0.00114128
0.0616587
7.22568e-05
0.0614343
0.00127701
0.0606338
0.00245826
0.0592716
0.00357869
0.0573766
0.00460684
0.0549933
0.00551206
0.0062664
0.0629254
-0.00607117
-0.0603208
0.0650102
-0.00441038
0.0665325
-0.00266359
0.0674573
-0.000852507
0.0677482
0.000986079
0.0673915
0.00281496
0.0663813
0.00458888
0.0647281
0.00626005
0.0624597
0.00778043
0.00910397
0.0643829
-0.00913627
-0.0613178
0.0669655
-0.00699293
0.0690101
-0.00470817
0.0704653
-0.00230772
0.0712853
0.000166052
0.0714388
0.00266143
0.070904
0.00512375
0.0696722
0.00749179
0.0677513
0.00970139
0.0116885
0.0643715
-0.0125112
-0.0609966
0.0673204
-0.00994176
0.0697707
-0.00715856
0.0716599
-0.00419686
0.0729376
-0.00111169
0.0735628
0.00203624
0.0735044
0.00518212
0.0727394
0.00825689
0.0712577
0.0111831
0.0138816
0.0635924
-0.0160942
-0.0600094
0.0668056
-0.013155
0.0695518
-0.00990471
0.0717637
-0.00640873
0.0733932
-0.00274122
0.0744011
0.00102829
0.0747544
0.00482888
0.0744209
0.00859036
0.0733791
0.0122249
0.0156431
0.0624933
-0.0198499
-0.0587376
0.0659019
-0.0165635
0.0688469
-0.0128497
0.071271
-0.00883283
0.0731411
-0.0046113
0.0744268
-0.000257408
0.0751003
0.00415538
0.0751242
0.00856646
0.0744717
0.0128774
0.0169943
0.0613785
-0.023807
-0.0574214
0.0649122
-0.0200972
0.0679562
-0.0158937
0.0704854
-0.011362
0.0724903
-0.00661616
0.0739584
-0.00172555
0.0748597
0.00325405
0.0751554
0.0082708
0.0748199
0.0132129
0.017989
0.0604479
-0.0563372
-0.0279177
0.0639994
-0.0236487
0.0670241
-0.0189184
0.069562
-0.0138999
0.0716152
-0.00866937
0.0731857
-0.00329605
0.0742407
0.00219906
0.0747255
0.00778602
0.0746311
0.0133074
0.018695
0.042323
0.0134023
-0.0081276
-0.0475977
0.0369646
0.0141422
-0.00878379
0.0315227
0.0150198
-0.00957799
0.0260136
0.0160828
-0.0105737
0.0204809
0.0173902
-0.0118575
0.0150191
0.0189933
-0.0135315
0.00980838
0.0208988
-0.015688
0.00516657
0.0229943
-0.0183524
0.00162001
0.0249189
-0.0213723
0.0258465
-0.0242265
0.0420969
0.0186517
-0.0473464
0.0367622
0.019477
0.0313438
0.0204382
0.0258582
0.0215684
0.0203493
0.022899
0.0149122
0.0244304
0.00972815
0.0260828
0.00511615
0.0276063
0.00160052
0.0284345
0.027447
0.0414981
0.0238455
-0.0466918
0.0362187
0.0247563
0.0308575
0.0257994
0.0254322
0.0269937
0.0199882
0.028343
0.0146221
0.0297965
0.00951635
0.0311886
0.00498809
0.0321345
0.00155215
0.0318705
0.0289992
0.0405288
0.0289555
-0.0456388
0.035335
0.0299501
0.0300639
0.0310705
0.0247355
0.0323222
0.0193977
0.0336808
0.0141494
0.0350448
0.00917392
0.0361641
0.00478387
0.0365246
0.00147673
0.0351776
0.0304759
0.0391905
0.0339555
-0.0441905
0.0341115
0.0350291
0.0289632
0.0362188
0.0237686
0.0375168
0.0185788
0.0388706
0.0134957
0.0401278
0.00870293
0.0409569
0.00450551
0.040722
0.00137549
0.0383076
0.0318514
0.0374822
0.0388203
-0.042347
0.0325469
0.0399644
0.0275548
0.0412109
0.022532
0.0425396
0.0175333
0.0438694
0.0126638
0.0449973
0.0081066
0.045514
0.00415582
0.0446728
0.00124988
0.0412136
0.0331013
0.0353968
0.0435243
-0.0401007
0.0306361
0.0447251
0.0258365
0.0460105
0.0210263
0.0473498
0.016264
0.0486318
0.0116579
0.0496033
0.00738978
0.0497822
0.00373885
0.0483237
0.00110191
0.0438505
0.0342032
0.0329152
0.0480345
-0.0374255
0.028368
0.0492723
0.0238048
0.0505736
0.0192532
0.0519014
0.0147759
0.0531091
0.0104851
0.0538941
0.0065596
0.0537077
0.00326029
0.051623
0.000934419
0.0461764
0.0351376
0.029991
0.0523096
-0.034266
0.0257228
0.0535406
0.0214579
0.0548385
0.0172191
0.0561402
0.0130791
0.0572491
0.00915649
0.0578167
0.0056266
0.0572376
0.00272829
0.0545213
0.000751904
0.0481528
0.0358895
0.0265867
-0.0306143
0.0227058
0.0188067
0.0149375
0.01119
0.00768889
0.00460568
0.00215435
0.000561491
0.024635
-0.0358328
0.0400819
-0.0288842
0.0206556
-0.0356307
0.0396102
0.0168165
-0.0350999
0.038939
0.0131435
-0.0340613
0.0377342
0.00971117
-0.0321891
0.0356214
0.00661708
-0.0290081
0.0321022
0.00397581
-0.0238684
0.0265097
0.00190873
-0.0159258
0.0179929
0.000537601
-0.00413587
0.00550699
0.0128085
-0.0122709
0.0280766
-0.0315055
-0.0324039
0.0238035
-0.0313576
0.0196151
-0.0309115
0.0155531
-0.0299993
0.0116912
-0.0283272
0.00813214
-0.025449
0.00500687
-0.0207431
0.00247417
-0.0133931
0.000723505
-0.0023852
0.013532
0.0311017
-0.0270208
-0.0355863
0.0265976
-0.0268535
0.0221257
-0.0264396
0.0177364
-0.0256101
0.0135034
-0.0240942
0.00953277
-0.0214784
0.00596985
-0.0171802
0.00300755
-0.0104308
0.00089975
-0.000277397
0.0144318
0.0337376
-0.0223652
-0.0383932
0.0290384
-0.0221543
0.0243337
-0.0217349
0.0196714
-0.0209478
0.0151228
-0.0195455
0.0107953
-0.0171509
0.00684584
-0.0132308
0.00349723
-0.00708223
0.00106332
0.00215651
0.0154951
0.0360242
-0.017548
-0.0408414
0.0311509
-0.017281
0.0262474
-0.0168314
0.0213547
-0.0160551
0.0165388
-0.0147297
0.0119063
-0.0125184
0.00762229
-0.00894674
0.00393468
-0.00339463
0.00121055
0.00488065
0.0167056
0.037971
-0.0125836
-0.0429354
0.0329439
-0.0122539
0.0278709
-0.0117585
0.0227847
-0.0109688
0.0177455
-0.00969046
0.0128573
-0.00763021
0.00829029
-0.00437973
0.00431307
0.000582597
0.00133859
0.00785513
0.0180442
0.0395647
-0.00749279
-0.0446555
0.0344123
-0.00710148
0.029201
-0.00654715
0.0239578
-0.00572568
0.0187377
-0.00447039
0.0136416
-0.00253407
0.00884309
0.000418788
0.00462721
0.00479847
0.0014451
0.0110372
0.0194893
0.0407713
-0.00235306
-0.0459111
0.0355373
-0.00186745
0.0302275
-0.00123734
0.0248678
-0.000365969
0.0195102
0.000887221
0.0142539
0.00272221
0.00927557
0.00539712
0.00487314
0.0092009
0.00152829
0.0143821
0.0210176
0.0416513
0.00286343
-0.0468678
0.0363478
0.00343601
0.0309627
0.00414781
0.0255179
0.00507883
0.0200618
0.00634331
0.0146912
0.0080928
0.00958423
0.0105041
0.00504818
0.0137369
0.00158706
0.0178432
0.0226047
0.042176
-0.0474402
0.0368283
0.0313981
0.0259032
0.020389
0.0149504
0.00976643
0.00515093
0.00162179
0.0442425
0.021368
-0.0255285
0.0477506
0.0174448
-0.0209528
0.0506734
0.0130224
-0.0159452
0.0530507
0.00827266
-0.01065
0.0548706
0.00334862
-0.00516848
0.0561608
-0.00163561
0.000345397
0.0567733
-0.006656
0.00604351
0.0567289
-0.0115248
0.0115691
0.0559849
-0.0161199
0.0168639
-0.0203127
0.0545156
0.0217819
0.043477
0.0175011
0.0468914
0.0140304
0.0497577
0.0101561
0.0520366
0.0059938
0.05371
0.00167515
0.0547616
-0.0026872
0.0551221
-0.0070165
0.0547712
-0.0111738
0.053686
-0.0150348
-0.0184826
0.051856
0.0425244
0.0139157
0.0457145
0.0108403
0.0483793
0.00749128
0.0504445
0.00392857
0.0518674
0.000252232
0.0526155
-0.0034353
0.0526446
-0.00704553
0.0519323
-0.0104616
0.0504709
-0.0135734
-0.0162816
0.04827
0.0410461
0.0106039
0.0439308
0.00795561
0.0462838
0.00513822
0.0480253
0.00218708
0.0491011
-0.000823589
0.0494745
-0.00380867
0.0491136
-0.00668465
0.048008
-0.00935599
0.0461679
-0.0117333
-0.0137394
0.0436257
0.0386165
0.00760883
0.0411297
0.00544237
0.0430856
0.00318236
0.0444162
0.000856438
0.0450709
-0.00147831
0.0450196
-0.00375728
0.0442458
-0.00591088
0.0427565
-0.00786668
0.0405822
-0.00955902
-0.010935
0.0377778
0.0347044
0.00500661
0.0367791
0.00336767
0.0382732
0.00168829
0.03914
-1.03957e-05
0.0393413
-0.00167959
0.0388638
-0.00327979
0.0377104
-0.00475747
0.0359077
-0.00606393
0.0335058
-0.00715714
-0.00800644
0.0305772
0.0286329
0.00288339
0.0302126
0.00178798
0.0312158
0.000685034
0.0316133
-0.000407854
0.0313955
-0.00146179
0.0305636
-0.00244794
0.0291414
-0.00333528
0.0271731
-0.00409556
0.0247226
-0.0047067
-0.00515527
0.0218715
0.019562
0.00131428
0.0206224
0.000727589
0.0211574
0.000150047
0.0211623
-0.00041278
0.0206437
-0.000943097
0.0196221
-0.00142635
0.0181351
-0.00184835
0.0162364
-0.00219679
0.0139931
-0.00246339
-0.00264526
0.011483
0.0064749
0.000346362
0.00704265
0.000159842
0.00721273
-2.00294e-05
0.00698943
-0.00018948
0.00639228
-0.00034595
0.00545021
-0.000484283
0.00420251
-0.000600645
0.00269783
-0.000692111
0.000991782
-0.000757343
-0.000797664
-0.000855815
-0.0119246
-0.0117647
-0.0117847
-0.0119742
-0.0123202
-0.0128045
-0.0134051
-0.0140972
-0.0148546
-0.0156522
0.0523138
-0.0239882
0.02619
0.0493947
-0.026988
0.0299071
0.0458077
-0.0292367
0.0328237
0.0416355
-0.0306857
0.0348578
0.0369865
-0.0313452
0.0359942
0.0319764
-0.0312859
0.036296
0.0266968
-0.0306162
0.0358959
0.0211615
-0.0294176
0.0349528
0.0152472
-0.0275546
0.033469
-0.0240818
0.00847389
0.0308551
0.0492923
-0.0214245
0.0460332
-0.0237288
0.0421502
-0.0253537
0.0377447
-0.0262802
0.0329369
-0.0265374
0.0278457
-0.0261947
0.0225606
-0.0253311
0.0171123
-0.0239693
0.0115023
-0.0219447
-0.0186546
0.00607505
0.0453639
-0.0185184
0.0418159
-0.0201809
0.0377193
-0.0212571
0.0331906
-0.0217515
0.028358
-0.0217048
0.0233432
-0.0211798
0.0182444
-0.0202323
0.0131362
-0.0188611
0.00813388
-0.0169424
-0.0141729
0.00365222
0.0404392
-0.0153319
0.0366947
-0.0164365
0.0325019
-0.0170642
0.0279861
-0.0172357
0.0232766
-0.0169953
0.0184936
-0.0163968
0.0137406
-0.0154794
0.00911704
-0.0142375
0.00477148
-0.0125968
-0.0104286
0.00102716
0.0344208
-0.0119749
0.0306139
-0.0126296
0.0264748
-0.0129251
0.0221282
-0.0128891
0.0176963
-0.0125634
0.0132902
-0.0119907
0.00900874
-0.0111979
0.00495245
-0.0101812
0.00125737
-0.00890174
-0.00731566
-0.00185555
0.0272111
-0.00860876
0.0235172
-0.00893573
0.01961
-0.00901786
0.0156039
-0.00888294
0.0116052
-0.0085648
0.00770864
-0.00809407
0.00399877
-0.00748807
0.000561784
-0.00674422
-0.00249597
-0.00584399
-0.00477733
-0.0050343
0.0187091
-0.00544638
0.0153404
-0.00556705
0.0118659
-0.0055434
0.0083804
-0.00539741
0.00496803
-0.00515243
0.00170141
-0.00482745
-0.0013548
-0.00443186
-0.00413565
-0.00396336
-0.00656673
-0.00341291
-0.00278014
-0.00856392
0.00878352
-0.00274686
0.00598301
-0.00276653
0.0031588
-0.00271919
0.000379822
-0.00261843
-0.00229566
-0.00247695
-0.00481904
-0.00230407
-0.00714743
-0.00210346
-0.00923794
-0.00187286
-0.0110434
-0.00160749
-0.00130831
-0.0125152
-0.00279073
-0.000811942
-0.00475191
-0.000805357
-0.00669083
-0.000780277
-0.00856692
-0.000742339
-0.0103481
-0.000695781
-0.0120089
-0.000643306
-0.0135268
-0.000585518
-0.0148787
-0.000520948
-0.0160386
-0.000447553
-0.000366683
-0.0169803
-0.0164642
-0.0172695
-0.0180498
-0.0187921
-0.0194879
-0.0201312
-0.0207167
-0.0212377
-0.0216852
-0.0220519
0.000266064
-0.022318
0.000975268
-0.0176895
0.00208971
-0.0136296
0.00360008
-0.0100743
0.00550452
-0.00693874
0.00779792
-0.00414896
0.0104659
-0.00164086
0.0134741
0.000644098
0.0167732
0.00277596
0.00483231
0.0204147
0.000179065
-0.022497
0.000664095
-0.0181745
0.00143661
-0.0144021
0.0024942
-0.0111319
0.00383604
-0.00828057
0.00545826
-0.00577118
0.00735486
-0.00353747
0.00952416
-0.0015252
0.0120056
0.000294544
0.00188272
0.0149552
9.82517e-05
-0.0225953
0.000381627
-0.0184579
0.000854585
-0.0148751
0.00152851
-0.0118058
0.00241393
-0.00916599
0.00352156
-0.0068788
0.00486525
-0.00488116
0.00646825
-0.00312821
0.00836948
-0.00160669
-0.000356489
0.0106087
3.09107e-05
-0.0226262
0.000135828
-0.0185628
0.000355648
-0.0150949
0.000712398
-0.0121626
0.0012274
-0.009681
0.00192139
-0.00757279
0.00281608
-0.00577585
0.0039359
-0.00424802
0.00530347
-0.00297426
-0.00197074
0.00691772
-3.15676e-05
-0.0225946
-7.27208e-05
-0.0185216
-6.06755e-05
-0.015107
3.83167e-05
-0.0122615
0.000253298
-0.00989598
0.000608773
-0.00792827
0.0011253
-0.00629238
0.00181917
-0.00494188
0.00269798
-0.00385308
-0.00302108
0.00374832
-8.9105e-05
-0.0225055
-0.000241687
-0.0183691
-0.000395829
-0.0149528
-0.000501178
-0.0121562
-0.000523739
-0.00987342
-0.000439982
-0.00801202
-0.000234352
-0.00649801
0.000100754
-0.00527699
0.000560437
-0.00431276
-0.00358614
0.0011255
-0.00012988
-0.0223757
-0.000374268
-0.0181247
-0.000652526
-0.0146746
-0.000908385
-0.0119003
-0.00110593
-0.00967587
-0.00122422
-0.00789373
-0.00125359
-0.00646864
-0.00119422
-0.00533636
-0.00105585
-0.00445113
-0.00378243
-0.000859563
-0.000159878
-0.0222158
-0.000468018
-0.0178165
-0.000828396
-0.0143142
-0.00117979
-0.0115489
-0.00148609
-0.00936957
-0.00172946
-0.00765037
-0.00190537
-0.00629273
-0.0020196
-0.00522213
-0.00208656
-0.00438418
-0.00374059
-0.00212839
-0.000178749
-0.022037
-0.000521737
-0.0174735
-0.000920748
-0.0139152
-0.00131054
-0.0111592
-0.00165535
-0.00902475
-0.0019403
-0.00736543
-0.00216526
-0.00606776
-0.00234076
-0.00504663
-0.00248544
-0.0042395
-0.00360112
-0.00262491
-0.00018473
-0.000534014
-0.000927932
-0.00129788
-0.00160869
-0.00184794
-0.00201903
-0.00213646
-0.00222276
-0.00230641
-0.000973881
-0.0100323
0.00982752
0.00169001
-0.0119363
0.00927244
0.00542709
-0.0125029
0.00876586
0.00974832
-0.0132303
0.00890911
0.0143692
-0.0136182
0.00899732
0.0189686
-0.0135223
0.00892297
0.0234334
-0.0135679
0.009103
0.02764
-0.014071
0.00986447
0.0315188
-0.0155834
0.0117046
0.0349972
-0.01767
0.0141916
0.0380526
-0.0205592
0.0175039
0.0406738
-0.0211658
0.0185446
0.0429987
-0.0193932
0.0170683
0.045054
-0.0107306
0.0086753
0.047154
0.00436456
-0.00646455
0.049167
0.0139273
-0.0159404
0.0514283
0.0187138
-0.0209751
0.0529554
-0.0214635
0.0199365
0.0535811
-0.0532738
0.052648
-0.0207946
0.020363
0.00145969
-0.010774
0.0043077
-0.0147843
0.00808615
-0.0162814
0.0123271
-0.0174713
0.0167945
-0.0180857
0.0212129
-0.0179407
0.0254814
-0.0178364
0.0294864
-0.018076
0.0331569
-0.0192539
0.0364212
-0.0209344
0.0392555
-0.0233935
0.0416624
-0.0235727
0.0437934
-0.0215242
0.0457078
-0.012645
0.0477501
0.00232224
0.0497652
0.0119122
0.0520505
0.0164286
0.0535272
-0.0229402
0.0539913
-0.0537378
-0.0211384
0.00469092
-0.0121269
0.00773552
-0.017829
0.0115017
-0.0200475
0.0155685
-0.0215381
0.0197793
-0.0222965
0.0239191
-0.0220805
0.0279027
-0.02182
0.0316299
-0.0218031
0.0350289
-0.022653
0.0380304
-0.0239358
0.0406086
-0.0259717
0.0427778
-0.0257419
0.0446983
-0.0234448
0.046458
-0.0144046
0.0484258
0.00035437
0.0504267
0.00991129
0.0527202
0.0141351
0.0541491
-0.0243692
0.0544743
-0.0540631
-0.0214224
0.00866497
-0.0142255
0.0118256
-0.0209896
0.0154966
-0.0237186
0.0192951
-0.0253366
0.0231562
-0.0261576
0.0269343
-0.0258586
0.0305614
-0.0254471
0.0339514
-0.0251932
0.0370328
-0.0257343
0.0397382
-0.0266412
0.0420404
-0.028274
0.0439621
-0.0276636
0.0456681
-0.0251509
0.0472698
-0.0160062
0.0491535
-0.00152938
0.0511284
0.00793645
0.0534177
0.0118458
0.0548056
-0.0257571
0.0550203
-0.0542778
-0.021678
0.0131948
-0.0171154
0.0163875
-0.0241822
0.0198562
-0.0271873
0.023294
-0.0287743
0.0267272
-0.0295908
0.0300803
-0.0292117
0.0333008
-0.0286675
0.0363153
-0.0282077
0.0390522
-0.0284712
0.0414465
-0.0290354
0.043469
-0.0302965
0.0451484
-0.0293429
0.0466493
-0.0266518
0.048101
-0.0174579
0.0498997
-0.00332808
0.0518432
0.00599298
0.0541213
0.00956766
0.05548
-0.0271158
0.0556181
-0.0544158
-0.0219399
0.0180813
-0.020751
0.0211999
-0.0273009
0.0243396
-0.030327
0.0273303
-0.031765
0.0302772
-0.0325377
0.033166
-0.0321005
0.0359544
-0.031456
0.0385784
-0.0308317
0.0409654
-0.0308582
0.0430521
-0.0311221
0.044808
-0.0320524
0.0462648
-0.0307997
0.0475832
-0.0279703
0.0489047
-0.0187794
0.0506272
-0.00505064
0.0525417
0.0040785
0.054808
0.00730134
0.0561549
-0.0284627
0.0562556
-0.0545164
-0.0222466
0.0230964
-0.0249599
0.0260101
-0.0302146
0.0286865
-0.0330034
0.0311578
-0.0342363
0.0335854
-0.0349653
0.0359982
-0.0345133
0.038356
-0.0338138
0.0405987
-0.0330743
0.0426517
-0.0329113
0.044453
-0.0329234
0.0459709
-0.0335703
0.0472385
-0.0320674
0.0484093
-0.029141
0.0496313
-0.0200014
0.0512966
-0.00671592
0.0531931
0.00218208
0.0554543
0.00504005
0.0568126
-0.029821
0.0569202
-0.054624
-0.0226397
0.0279754
-0.029377
0.0305236
-0.0327627
0.0326198
-0.0350996
0.0345269
-0.0361434
0.0364346
-0.0368729
0.0383907
-0.0364694
0.0403474
-0.0357705
0.0422424
-0.0349693
0.0439984
-0.0346673
0.0455537
-0.0344788
0.0468766
-0.0348932
0.0480003
-0.0331911
0.0490689
-0.0302096
0.0502323
-0.0211648
0.0518688
-0.00835246
0.0537668
0.000284059
0.0560376
0.00276929
0.0574362
-0.0312196
0.0575995
-0.0547873
-0.0231636
0.0325171
-0.0334005
0.034474
-0.0347195
0.0358992
-0.0365249
0.0372285
-0.0374727
0.0386464
-0.0382908
0.0401913
-0.0380143
0.0417988
-0.037378
0.0433992
-0.0365698
0.0449115
-0.0361795
0.046274
-0.0358413
0.047456
-0.0360753
0.0484901
-0.0342252
0.0495098
-0.0312294
0.0506628
-0.0223177
0.052307
-0.0099967
0.0542341
-0.001643
0.0565363
0.000467051
0.0580096
-0.0326928
0.058281
-0.0550588
-0.0238649
0.0368106
-0.0363609
0.0377919
-0.0357009
0.0384247
-0.0371577
0.0391775
-0.0382255
0.0401423
-0.0392557
0.0413266
-0.0391986
0.0426408
-0.0386922
0.0440043
-0.0379332
0.0453316
-0.0375068
0.04656
-0.0370697
0.0476609
-0.0371762
0.0486644
-0.0352287
0.0496921
-0.032257
0.0508874
-0.023513
0.0525789
-0.0116882
0.0545693
-0.00363336
0.05693
-0.0018937
0.0585164
-0.0342793
0.0589523
-0.0554946
-0.0247927
0.117846
-0.0276793
-0.126528
0.113198
-0.0310532
0.110476
-0.0344358
0.108854
-0.0366034
0.1078
-0.0382013
0.10727
-0.0386689
0.107111
-0.0385326
0.107202
-0.0380248
0.107363
-0.0376674
0.107431
-0.0371381
0.107226
-0.036971
0.106744
-0.0347464
0.106126
-0.0316389
0.105739
-0.0231263
0.106511
-0.0124606
0.108259
-0.00538105
0.111132
-0.00476668
0.112317
-0.0354646
0.110542
-0.0537192
-0.0240211
0.165125
-0.0168847
-0.17592
0.156857
-0.0227848
0.150968
-0.0285463
0.146791
-0.0324264
0.143621
-0.0350313
0.141298
-0.036346
0.139594
-0.0368286
0.138327
-0.036758
0.13728
-0.0366202
0.136256
-0.036114
0.135055
-0.0357699
0.133672
-0.0333633
0.132224
-0.0301915
0.131154
-0.022056
0.131388
-0.0126943
0.132772
-0.00676526
0.135313
-0.00730742
0.135941
-0.0360931
0.133299
-0.0510775
-0.0227388
0.216448
-0.00616995
-0.227163
0.207301
-0.0136371
0.199476
-0.0207218
0.193122
-0.0260719
0.187872
-0.0297813
0.183597
-0.0320717
0.180106
-0.0333371
0.177203
-0.033855
0.174665
-0.0340823
0.172282
-0.0337315
0.169851
-0.0333382
0.167377
-0.0308893
0.164951
-0.0277656
0.163074
-0.0201793
0.162606
-0.0122269
0.163412
-0.00757051
0.165302
-0.00919792
0.165061
-0.0358524
0.161367
-0.0473829
-0.0208349
0.267989
0.00236993
-0.276529
0.260102
-0.00574944
0.252333
-0.0129529
0.245146
-0.0188857
0.238696
-0.0233308
0.233008
-0.0263836
0.228017
-0.0283463
0.2236
-0.0294382
0.219592
-0.0300739
0.215817
-0.0299568
0.212105
-0.0296261
0.208505
-0.0272892
0.205088
-0.0243483
0.20241
-0.0175011
0.201164
-0.0109815
0.201225
-0.00763156
0.202126
-0.0100988
0.200676
-0.0344024
0.195805
-0.0425113
-0.01825
0.317731
0.00754628
-0.322907
0.312027
-4.58926e-05
0.305849
-0.00677446
0.299354
-0.0123914
0.292981
-0.0169572
0.286936
-0.0203393
0.281278
-0.0226879
0.275978
-0.0241378
0.270964
-0.0250605
0.266148
-0.0251403
0.261428
-0.0249065
0.256939
-0.0228
0.252752
-0.020161
0.249478
-0.0142275
0.247558
-0.00906102
0.246848
-0.00692167
0.246528
-0.00977921
0.243598
-0.0314722
0.237556
-0.0364689
-0.0150316
0.366412
0.00965387
-0.368519
0.363213
0.00315316
0.35895
-0.00251157
0.353967
-0.00740819
0.34857
-0.0115602
0.343063
-0.0148323
0.337601
-0.0172266
0.332225
-0.0187611
0.326928
-0.0197637
0.321712
-0.0199245
0.316549
-0.0197438
0.311678
-0.0179292
0.307182
-0.015665
0.303729
-0.010774
0.30146
-0.00679164
0.300169
-0.00563133
0.298676
-0.00828605
0.294197
-0.026993
0.287194
-0.0294661
-0.0113916
0.417344
0.00931545
-0.417006
0.416055
0.00444276
0.413559
-1.59154e-05
0.410109
-0.00395781
0.405919
-0.00737006
0.401277
-0.0101904
0.396404
-0.0123536
0.391411
-0.0137679
0.386334
-0.0146869
0.381253
-0.0148438
0.376184
-0.0146748
0.371457
-0.0132018
0.367154
-0.0113625
0.36398
-0.00759985
0.361805
-0.00461696
0.3603
-0.00412563
0.358052
-0.00603868
0.352261
-0.0212012
0.344732
-0.0219376
-0.00772029
0.473817
0.00728977
-0.471791
0.474119
0.00414047
0.473076
0.00102744
0.470884
-0.00176617
0.46775
-0.00423638
0.463897
-0.0063367
0.45956
-0.00801673
0.454938
-0.00914566
0.450125
-0.00987427
0.445286
-0.0100043
0.440471
-0.0098602
0.436078
-0.00880865
0.432186
-0.00747107
0.429493
-0.00490643
0.427706
-0.00283033
0.426294
-0.00271344
0.423936
-0.00368014
0.417307
-0.0145731
0.409782
-0.0144119
-0.00448319
0.539689
0.00408669
-0.536486
0.541294
0.00253616
0.541403
0.000918357
0.540204
-0.000567417
0.537873
-0.00190521
0.534594
-0.00305825
0.530586
-0.00400786
0.526105
-0.0046652
0.521321
-0.00509012
0.516492
-0.00517509
0.511721
-0.0050894
0.50745
-0.00453791
0.503788
-0.003809
0.501381
-0.00249952
0.499932
-0.00138161
0.498629
-0.00140984
0.496628
-0.00167957
0.489575
-0.00751941
0.482355
-0.00719221
-0.00197206
0.620155
-0.616068
0.622691
0.623609
0.623042
0.621137
0.618078
0.614071
0.609405
0.604315
0.59914
0.594051
0.589513
0.585704
0.583204
0.581823
0.580413
0.578733
0.571214
0.564022
0.16759
0.0228981
-0.16662
0.167783
0.0284698
0.167016
0.0337355
0.165101
0.0385622
0.161874
0.0428086
0.157222
0.0463398
0.15113
0.049048
0.143733
0.0508808
0.135386
0.0518132
0.0516012
0.191819
0.0209231
-0.189844
0.193482
0.0268068
0.194686
0.0325314
0.19526
0.0379881
0.195017
0.0430517
0.193768
0.0475888
0.191346
0.0514709
0.187628
0.0545987
0.182498
0.0569432
0.0581788
0.217521
0.018394
-0.214991
0.220165
0.0241622
0.22283
0.0298666
0.225383
0.0354347
0.227652
0.0407831
0.229424
0.045817
0.230461
0.0504335
0.230537
0.0545231
0.229475
0.058005
0.0604905
0.246043
0.0157284
-0.243377
0.2491
0.0211052
0.252507
0.0264599
0.256195
0.0317463
0.260067
0.0369107
0.263994
0.0418905
0.267813
0.0466139
0.271336
0.0510004
0.274357
0.0549843
0.0583182
0.278422
0.0130681
-0.275762
0.281652
0.0178754
0.285442
0.02267
0.28977
0.0274185
0.294596
0.0320847
0.299857
0.0366292
0.305462
0.0410089
0.311287
0.0451758
0.317188
0.049083
0.0525991
0.315476
0.0104426
-0.312851
0.318804
0.0145476
0.322833
0.0186409
0.327555
0.0226963
0.332953
0.0266867
0.338999
0.0305837
0.34565
0.034358
0.352847
0.0379786
0.360517
0.0414133
0.0445962
0.358095
0.00785919
-0.355511
0.361502
0.0111399
0.365733
0.01441
0.370781
0.0176485
0.376634
0.020834
0.383273
0.0239447
0.390672
0.0269591
0.398795
0.0298552
0.407598
0.0326109
0.0351878
0.407695
0.00530036
-0.405136
0.411201
0.00763326
0.415653
0.00995844
0.421041
0.0122604
0.427351
0.0145236
0.434563
0.0167325
0.442651
0.0188715
0.451581
0.0209255
0.461312
0.0228792
0.024709
0.466412
0.00271473
-0.463826
0.470081
0.003964
0.47483
0.00520974
0.480647
0.00644337
0.487514
0.0076562
0.495407
0.00883962
0.504294
0.00998512
0.514135
0.0110844
0.524885
0.0121291
0.0131077
0.537649
-0.534934
0.541613
0.546823
0.553266
0.560922
0.569762
0.579747
0.590831
0.602961
0.143314
-0.0305651
-0.140667
0.146207
-0.0265416
0.149195
-0.0219062
0.152181
-0.0168863
0.155099
-0.0115871
0.157895
-0.00609255
0.16062
-0.000525624
0.162999
0.00540738
0.16504
0.0112659
0.0171157
0.170764
-0.0322605
-0.169068
0.172595
-0.0283729
0.174518
-0.0238296
0.17655
-0.0189182
0.178676
-0.0137129
0.180883
-0.0083
0.183091
-0.00273372
0.185418
0.0030806
0.18768
0.00900381
0.0149518
0.202198
-0.0326693
-0.20179
0.202814
-0.0289882
0.203564
-0.0245802
0.204493
-0.0198468
0.205639
-0.0148594
0.207015
-0.00967533
0.208606
-0.00432496
0.210511
0.00117541
0.212643
0.00687191
0.0126035
0.237277
-0.0317251
-0.238221
0.236579
-0.0282898
0.236155
-0.0241566
0.23604
-0.0197322
0.236275
-0.0150937
0.236879
-0.0102797
0.237865
-0.00531053
0.239298
-0.000257548
0.241127
0.00504262
0.0103531
0.276022
-0.0294767
-0.27827
0.274079
-0.0263468
0.272548
-0.0226261
0.271472
-0.0186554
0.270878
-0.0145001
0.270788
-0.01019
0.271219
-0.00574104
0.272144
-0.00118241
0.273673
0.0035135
0.00826389
0.319092
-0.0259658
-0.322602
0.315983
-0.023238
0.313409
-0.0200522
0.311416
-0.0166625
0.31003
-0.0131139
0.309269
-0.00942963
0.309153
-0.00562497
0.309692
-0.00172105
0.310926
0.00227991
0.00633882
0.367545
-0.0212248
-0.372286
0.363324
-0.0190175
0.359753
-0.0164807
0.356875
-0.0137855
0.354721
-0.0109594
0.353311
-0.00802
0.352668
-0.00498116
0.352806
-0.00185935
0.353751
0.00133429
0.00457899
0.422782
-0.0152972
-0.428709
0.417493
-0.0137286
0.412957
-0.0119446
0.409219
-0.0100479
0.406313
-0.00805376
0.404268
-0.00597437
0.403107
-0.0038206
0.402853
-0.00160468
0.403525
0.000661881
0.00296824
0.48693
-0.00821678
-0.49401
0.480593
-0.00739172
0.475104
-0.00645559
0.470513
-0.0054573
0.466863
-0.00440371
0.46419
-0.00330125
0.462526
-0.00215621
0.461896
-0.000975477
0.462325
0.00023333
0.00146686
0.563375
-0.571592
0.555984
0.549528
0.544071
0.539667
0.536366
0.53421
0.533234
0.533467
0.12677
0.00230861
-0.00221752
0.126514
0.00701653
-0.00676073
0.126098
0.0121257
-0.0117088