/*--------------------------------*- C++ -*----------------------------------*\
| =========                 |                                                 |
| \\      /  F ield         | OpenFOAM: The Open Source CFD Toolbox           |
|  \\    /   O peration     | Version:  v1912                                 |
|   \\  /    A nd           | Website:  www.openfoam.com                      |
|    \\/     M anipulation  |                                                 |
\*---------------------------------------------------------------------------*/
FoamFile
{
    version     2.0;
    format      ascii;
    class       volVectorField;
    location    "24";
    object      U;
}
// * * * * * * * * * * * * * * * * * * * * * * * * * * * * * * * * * * * * * //

dimensions      [0 1 -1 0 0 0 0];


internalField   nonuniform List<vector> 
2400
(
(0.0178414 -0.43508 -8.88703e-21)
(0.00550259 -0.33933 8.57424e-23)
(-0.00391509 -0.267217 2.82986e-21)
(-0.0110014 -0.213154 -5.33582e-21)
(-0.0156435 -0.172506 0)
(-0.0179259 -0.141649 4.69733e-21)
(-0.0182949 -0.117849 0)
(-0.0172604 -0.0990822 4.07681e-21)
(-0.0152735 -0.0838703 -7.75915e-21)
(-0.0132781 -0.0711621 8.07673e-21)
(0.051497 -0.428693 5.99115e-21)
(0.0320276 -0.331651 3.88287e-22)
(0.0184116 -0.260362 2.54759e-22)
(0.00925895 -0.208208 2.69777e-20)
(0.00412217 -0.169861 -1.02464e-20)
(0.0024793 -0.14125 -4.69724e-21)
(0.00354807 -0.119358 1.76284e-20)
(0.00657225 -0.101968 -1.6894e-20)
(0.0109419 -0.0874476 0)
(0.0154495 -0.0747028 -1.62448e-20)
(0.0843608 -0.420099 2.60505e-20)
(0.0580396 -0.323138 2.63403e-20)
(0.0411673 -0.253689 -1.21316e-20)
(0.0311798 -0.204213 2.28259e-20)
(0.0269236 -0.168738 2.12628e-20)
(0.0273585 -0.142798 1.98049e-20)
(0.0313253 -0.123136 0)
(0.0378165 -0.107344 1.72261e-20)
(0.0460601 -0.0935988 1.60913e-20)
(0.0544065 -0.0807561 1.66148e-20)
(0.116399 -0.409545 -5.3546e-20)
(0.0838299 -0.314278 2.27982e-22)
(0.0648968 -0.247727 -5.00381e-20)
(0.0554777 -0.201653 4.75327e-20)
(0.0535885 -0.169533 -4.32187e-20)
(0.057589 -0.146608 -1.98044e-20)
(0.0659057 -0.129445 3.68838e-20)
(0.0772717 -0.115464 -5.25724e-20)
(0.0907623 -0.102611 -4.82456e-20)
(0.104207 -0.0896475 1.71711e-20)
(0.147637 -0.397288 -7.94565e-22)
(0.109835 -0.305433 0)
(0.0903817 -0.242846 -1.14705e-21)
(0.0831526 -0.200764 -2.56293e-20)
(0.0852473 -0.172306 -6.88532e-20)
(0.0943521 -0.152565 -2.1254e-20)
(0.108451 -0.138036 0)
(0.126023 -0.126013 0)
(0.14602 -0.11416 0)
(0.165672 -0.101097 0)
(0.178251 -0.3836 6.25415e-20)
(0.136676 -0.296874 -9.15734e-20)
(0.118579 -0.239198 1.669e-19)
(0.115457 -0.201481 -7.97813e-20)
(0.123294 -0.176729 7.13419e-20)
(0.139084 -0.160057 -2.30902e-20)
(0.160355 -0.148045 4.07246e-20)
(0.185344 -0.137962 -3.7392e-20)
(0.212939 -0.127186 0)
(0.23971 -0.114161 3.45333e-20)
(0.208495 -0.368612 -6.25421e-20)
(0.165229 -0.288777 6.20771e-20)
(0.150647 -0.236751 3.62889e-21)
(0.153783 -0.20348 -2.99441e-22)
(0.169269 -0.182113 2.31312e-21)
(0.193363 -0.167994 9.08198e-20)
(0.22312 -0.157985 -1.1946e-22)
(0.256557 -0.149522 3.39844e-20)
(0.292603 -0.139794 -3.59678e-20)
(0.327188 -0.127075 3.47457e-20)
(0.238555 -0.352422 1.41075e-19)
(0.196382 -0.28122 -1.06683e-19)
(0.187874 -0.2353 4.09758e-21)
(0.199591 -0.206192 0)
(0.224708 -0.187474 5.38247e-20)
(0.258687 -0.174895 -4.6476e-20)
(0.298089 -0.16581 -4.44814e-20)
(0.340713 -0.158106 1.5584e-19)
(0.38571 -0.149026 -3.87477e-20)
(0.428638 -0.13685 -1.45232e-19)
(0.26872 -0.335188 -1.88386e-19)
(0.231015 -0.274069 1.47818e-19)
(0.231487 -0.234384 4.56308e-21)
(0.254212 -0.208843 0)
(0.290923 -0.191673 3.3628e-21)
(0.336253 -0.179112 -5.18257e-20)
(0.386181 -0.169082 9.14142e-20)
(0.438171 -0.160082 3.91748e-20)
(0.491746 -0.149708 -7.62398e-20)
(0.543008 -0.137148 0)
(0.299393 -0.316936 7.83125e-20)
(0.269962 -0.266922 6.33106e-22)
(0.282458 -0.23333 -7.34716e-20)
(0.318618 -0.210609 -3.56636e-21)
(0.368891 -0.193821 -1.1786e-19)
(0.427193 -0.17966 5.18243e-20)
(0.488994 -0.166388 -1.40601e-19)
(0.551209 -0.152743 1.73306e-19)
(0.612927 -0.136805 -8.01337e-20)
(0.671179 -0.120615 0)
(0.617251 -0.00974982 2.54265e-20)
(0.590762 -0.0556408 -1.71532e-20)
(0.561159 -0.0976914 -6.51619e-20)
(0.529393 -0.135862 9.71486e-20)
(0.4963 -0.170259 6.1115e-20)
(0.462599 -0.201129 0)
(0.428863 -0.228818 0)
(0.395505 -0.253751 -1.47301e-19)
(0.362795 -0.276409 2.37125e-19)
(0.330839 -0.297319 -9.13622e-20)
(0.832281 0.0170162 -7.16756e-22)
(0.779523 -0.0414835 -8.08571e-22)
(0.721161 -0.0925245 -6.09782e-20)
(0.65936 -0.135761 3.30109e-21)
(0.596173 -0.171261 0)
(0.533465 -0.199482 1.62037e-19)
(0.472815 -0.221216 -1.08204e-19)
(0.415459 -0.237528 1.46472e-19)
(0.362269 -0.249687 -1.83747e-19)
(0.313734 -0.259067 5.67136e-21)
(1.01767 0.0669432 -7.63145e-21)
(0.954235 -0.00070214 -2.29829e-21)
(0.881886 -0.0600268 2.93955e-20)
(0.803303 -0.110101 1.09526e-19)
(0.721231 -0.150536 -5.06099e-20)
(0.638338 -0.181496 -2.44601e-19)
(0.557052 -0.203675 5.62718e-21)
(0.479429 -0.218253 5.68966e-21)
(0.407078 -0.226818 5.58749e-21)
(0.341157 -0.231232 8.43398e-20)
(1.16757 0.116962 1.28283e-20)
(1.10342 0.0442507 -6.40134e-20)
(1.0272 -0.0208178 -4.94014e-20)
(0.941554 -0.0767503 -9.5727e-20)
(0.849417 -0.122586 5.14105e-20)
(0.753873 -0.157966 1.33271e-19)
(0.657923 -0.183184 -4.92591e-21)
(0.564295 -0.199206 0)
(0.475294 -0.207641 -7.20785e-20)
(0.392822 -0.210655 7.60251e-20)
(1.28214 0.159577 0)
(1.22353 0.0854795 2.34877e-20)
(1.15038 0.0175653 -4.37863e-20)
(1.0649 -0.0422637 8.86942e-20)
(0.969797 -0.0925249 1.27284e-19)
(0.86816 -0.132284 -1.18595e-19)
(0.763224 -0.161281 -4.81071e-22)
(0.65811 -0.180049 -6.93864e-20)
(0.55561 -0.190013 1.34832e-19)
(0.458232 -0.193564 6.48695e-20)
(1.36497 0.193 -9.8433e-21)
(1.31535 0.120374 9.84289e-21)
(1.24969 0.0521895 -3.87617e-20)
(1.16949 -0.00943959 3.8761e-20)
(1.07692 -0.062647 3.64972e-20)
(0.97472 -0.10597 3.33845e-20)
(0.866002 -0.138537 -1.36298e-19)
(0.753931 -0.160307 3.67671e-21)
(0.641401 -0.172338 5.91069e-20)
(0.531079 -0.177253 -5.8997e-20)
(1.4211 0.217154 0)
(1.38186 0.147941 -3.31735e-20)
(1.32603 0.0814742 -3.43156e-20)
(1.25435 0.0198916 3.43147e-20)
(1.16828 -0.0347264 0)
(1.06995 -0.0804968 -6.29384e-20)
(0.962031 -0.115939 2.98268e-21)
(0.847399 -0.140311 5.69632e-20)
(0.728528 -0.154101 -1.10615e-19)
(0.607273 -0.160181 1.55198e-19)
(1.45584 0.233016 -7.12803e-21)
(1.42691 0.168304 3.17913e-20)
(1.38171 0.104878 -3.04073e-20)
(1.32027 0.0447449 3.04063e-20)
(1.24326 -0.00997038 0)
(1.15212 -0.0571031 5.6874e-20)
(1.04891 -0.0946004 -5.38099e-20)
(0.93596 -0.120861 -2.1139e-19)
(0.814813 -0.135389 -4.76054e-20)
(0.684828 -0.141068 -1.90656e-19)
(1.47391 0.242169 6.83736e-21)
(1.45437 0.182273 0)
(1.41952 0.122495 -2.6994e-20)
(1.36879 0.0645875 7.9013e-20)
(1.30219 0.0105656 2.64469e-20)
(1.22044 -0.0372878 -2.64466e-20)
(1.12498 -0.0764348 5.44817e-20)
(1.01766 -0.104226 5.37849e-20)
(0.899031 -0.118281 9.55639e-20)
(0.763967 -0.119691 8.95345e-20)
(1.47906 0.24615 -5.71019e-21)
(1.46752 0.191173 2.34764e-20)
(1.44207 0.135305 -2.49599e-20)
(1.4017 0.0799578 -2.70617e-20)
(1.34586 0.0268826 0)
(1.27463 -0.0217229 -4.53544e-20)
(1.18896 -0.0630691 -4.88964e-20)
(1.09056 -0.093601 1.87976e-19)
(0.980144 -0.108498 0)
(0.846836 -0.102963 0)
(0.537622 0.499433 -6.00075e-20)
(0.577572 0.459892 1.01687e-19)
(0.611031 0.414856 5.53396e-21)
(0.63739 0.365506 0)
(0.656303 0.31285 0)
(0.667488 0.257991 -5.95219e-20)
(0.670958 0.202133 3.32385e-20)
(0.667021 0.146458 -6.50048e-20)
(0.65625 0.0920419 -1.71938e-20)
(0.639424 0.0397705 8.91015e-21)
(0.751914 0.673358 1.00009e-19)
(0.812304 0.630856 -1.27369e-19)
(0.863374 0.578311 2.9754e-20)
(0.903446 0.517321 -9.80466e-20)
(0.931292 0.449536 4.87932e-20)
(0.946174 0.376992 0)
(0.947766 0.30185 1.20287e-19)
(0.936251 0.226295 5.08244e-22)
(0.912335 0.152433 -6.3712e-20)
(0.877207 0.0821478 7.2874e-22)
(0.885705 0.753811 3.70719e-20)
(0.957873 0.717483 1.39108e-20)
(1.02067 0.668861 1.28903e-20)
(1.07194 0.609347 1.15765e-20)
(1.10983 0.540795 4.72608e-20)
(1.13302 0.465297 4.64135e-20)
(1.14063 0.385155 -1.05735e-19)
(1.13233 0.302826 -2.91851e-20)
(1.10841 0.220793 2.63384e-21)
(1.06975 0.141443 7.63055e-21)
(0.967229 0.773537 2.72423e-20)
(1.04526 0.745493 -3.48985e-20)
(1.11512 0.704638 0)
(1.17441 0.652116 -1.29877e-19)
(1.22098 0.589457 -4.98884e-20)
(1.25306 0.518433 1.17212e-19)
(1.26933 0.441145 9.39662e-20)
(1.26893 0.359902 -4.6713e-20)
(1.25154 0.277149 3.74343e-20)
(1.21748 0.195368 1.26462e-20)
(1.01537 0.757179 -2.37777e-20)
(1.09517 0.736879 3.71628e-20)
(1.16837 0.704339 -3.71603e-20)
(1.23251 0.660336 1.14945e-19)
(1.28536 0.605938 -9.05385e-20)
(1.32497 0.542595 -4.20432e-20)
(1.34974 0.472029 -1.11936e-21)
(1.3584 0.396214 -3.98422e-20)
(1.35014 0.31732 -2.27772e-20)
(1.32466 0.237656 0)
(1.04315 0.721646 -1.87186e-20)
(1.12217 0.707615 4.73999e-20)
(1.19604 0.682506 9.50315e-21)
(1.2623 0.646659 -8.51754e-20)
(1.31883 0.600785 1.95235e-20)
(1.36376 0.545971 2.74657e-20)
(1.39542 0.483564 3.38322e-20)
(1.41235 0.415175 -3.38302e-20)
(1.41338 0.3426 9.45432e-21)
(1.39772 0.267832 -9.45392e-21)
(1.05919 0.67762 -3.2572e-22)
(1.13627 0.668317 -3.4929e-20)
(1.20909 0.64936 2.18982e-20)
(1.27531 0.620575 7.02007e-20)
(1.33317 0.582396 -3.8366e-20)
(1.38106 0.535634 0)
(1.41746 0.48135 8.04585e-20)
(1.44088 0.420844 -2.87097e-20)
(1.44998 0.355518 3.02809e-20)
(1.44367 0.287016 0)
(1.06905 0.631474 1.89659e-20)
(1.1439 0.625985 3.7861e-20)
(1.21453 0.612062 -3.90445e-21)
(1.27903 0.589039 1.34675e-20)
(1.33626 0.557245 3.12919e-20)
(1.38504 0.517364 0)
(1.42409 0.470348 -2.51961e-20)
(1.45198 0.417247 -2.43946e-20)
(1.46736 0.35908 -2.90198e-20)
(1.46903 0.29717 6.87356e-21)
(1.0768 0.587526 -5.91473e-21)
(1.14884 0.585672 -2.05306e-20)
(1.21608 0.575809 1.23764e-20)
(1.27745 0.557164 -6.80158e-20)
(1.33257 0.530264 -1.57128e-20)
(1.38069 0.495838 1.57115e-20)
(1.42074 0.45481 -1.64841e-20)
(1.45133 0.408106 -2.07606e-20)
(1.47117 0.356366 0)
(1.47912 0.30065 -1.25664e-20)
(1.08817 0.547851 0)
(1.15559 0.547675 0)
(1.21742 0.540338 -5.55328e-20)
(1.27402 0.524775 -2.25266e-20)
(1.32559 0.50169 7.18903e-20)
(1.3716 0.471869 0)
(1.41122 0.435959 5.64537e-20)
(1.44293 0.394811 -1.87657e-20)
(1.46548 0.348915 -2.06401e-20)
(1.47794 0.299065 1.14783e-20)
(0.596348 0.19219 -2.54597e-22)
(0.555678 0.207779 1.32682e-20)
(0.509077 0.226344 -7.0486e-21)
(0.455751 0.249046 0)
(0.394787 0.27738 8.18692e-21)
(0.325682 0.3129 0)
(0.248862 0.356591 -9.50485e-21)
(0.166586 0.407499 -5.37223e-21)
(0.0869733 0.46017 -2.44713e-22)
(0.0322247 0.500227 -5.38192e-21)
(0.618832 0.249808 -2.58821e-20)
(0.580008 0.270194 0)
(0.535314 0.294014 2.76748e-20)
(0.484261 0.322163 -2.88764e-20)
(0.425986 0.355655 -8.18683e-21)
(0.359967 0.395073 1.7311e-20)
(0.286521 0.439645 -2.70987e-20)
(0.207543 0.485491 -4.42455e-22)
(0.130234 0.522395 4.0342e-20)
(0.0747427 0.528304 1.09565e-20)
(0.648801 0.304619 2.34874e-20)
(0.612541 0.329584 2.22822e-20)
(0.570448 0.358423 2.39454e-20)
(0.52242 0.391718 2.56974e-20)
(0.46759 0.430006 2.74852e-20)
(0.405291 0.472905 2.92567e-20)
(0.335502 0.517913 3.0929e-20)
(0.259354 0.558313 1.76027e-20)
(0.182404 0.579377 -3.92149e-21)
(0.121389 0.55199 3.39798e-20)
(0.685882 0.35565 -6.88352e-20)
(0.652811 0.384848 1.96565e-20)
(0.613951 0.418337 2.2078e-20)
(0.569638 0.456313 -7.37184e-20)
(0.518935 0.498836 -2.74849e-20)
(0.460904 0.544585 -1.78614e-21)
(0.394965 0.589395 -6.20723e-20)
(0.321115 0.623892 5.99674e-20)
(0.242613 0.62927 -6.54126e-20)
(0.171572 0.570317 -4.94904e-20)
(0.729541 0.40201 0)
(0.700171 0.434989 -1.72868e-20)
(0.665093 0.472626 0)
(0.625091 0.514653 0)
(0.579084 0.560659 -2.00691e-20)
(0.525739 0.608425 2.51756e-20)
(0.463713 0.652231 -7.17407e-20)
(0.391536 0.680311 -2.45218e-20)
(0.309623 0.670383 0)
(0.224482 0.582424 -2.42379e-20)
(0.779079 0.442929 3.80885e-20)
(0.75379 0.479144 1.72865e-20)
(0.722933 0.520296 -2.98883e-20)
(0.687722 0.565581 3.08767e-20)
(0.646837 0.614139 -1.13248e-20)
(0.598429 0.662908 5.19809e-20)
(0.54021 0.70476 2.58527e-20)
(0.468973 0.725879 -2.53869e-20)
(0.381869 0.70126 -8.96984e-21)
(0.279134 0.587613 0)
(0.833614 0.477799 3.12512e-20)
(0.812633 0.516611 7.30503e-20)
(0.78632 0.56051 -1.96893e-20)
(0.756249 0.608098 -5.8089e-20)
(0.720746 0.658114 5.33579e-20)
(0.677334 0.706721 -5.59439e-20)
(0.622621 0.745562 5.61489e-20)
(0.55147 0.759187 -1.42427e-20)
(0.457517 0.720735 2.6949e-20)
(0.334405 0.585376 0)
(0.892009 0.506275 -3.69282e-21)
(0.875413 0.546877 -2.4095e-20)
(0.853861 0.592576 -9.12033e-22)
(0.829164 0.64136 -1.39661e-20)
(0.799138 0.691606 -9.9287e-21)
(0.760567 0.738778 9.07068e-21)
(0.708855 0.773501 0)
(0.63682 0.779156 -1.48426e-20)
(0.534525 0.727979 6.63308e-21)
(0.389089 0.575423 -9.08718e-21)
(0.952803 0.528483 0)
(0.940574 0.569831 2.25088e-20)
(0.924027 0.616106 -3.84677e-20)
(0.904864 0.66476 1.89518e-20)
(0.880206 0.71387 -1.38316e-20)
(0.846079 0.758261 -9.07053e-21)
(0.796635 0.787761 -8.45483e-21)
(0.722641 0.78508 -1.51159e-20)
(0.610734 0.722537 -2.88423e-20)
(0.441969 0.557709 4.28238e-20)
(1.01246 0.541985 0)
(1.00453 0.583225 7.54395e-21)
(0.994122 0.62948 -1.13201e-20)
(0.981101 0.677215 -1.38016e-21)
(0.961775 0.724112 1.79604e-21)
(0.931596 0.76453 -1.15563e-20)
(0.883532 0.787839 1.83032e-21)
(0.806452 0.776635 8.41748e-21)
(0.683967 0.704307 5.07422e-20)
(0.491902 0.532391 -2.58486e-20)
(0.769813 -0.318262 0)
(0.740603 -0.339681 -7.59953e-20)
(0.703611 -0.35907 1.60285e-19)
(0.658043 -0.371472 -1.30064e-19)
(0.599143 -0.372185 4.83942e-20)
(0.520886 -0.353661 -4.84818e-20)
(0.415675 -0.304964 -5.61512e-20)
(0.273957 -0.211699 -6.09778e-20)
(0.0843903 -0.0556378 -5.86513e-21)
(-0.167364 0.186104 6.44123e-20)
(0.727418 -0.284933 0)
(0.697005 -0.304905 -8.55044e-20)
(0.658102 -0.323447 4.17743e-20)
(0.610831 -0.336111 9.6239e-20)
(0.551424 -0.338079 -5.06468e-20)
(0.474588 -0.32177 -1.12577e-19)
(0.37371 -0.276105 5.49944e-20)
(0.240647 -0.186207 -8.20894e-21)
(0.0664158 -0.0326967 1.37637e-19)
(-0.158669 0.209693 -1.03527e-19)
(0.687542 -0.245214 -1.38305e-21)
(0.655212 -0.263174 -5.00984e-20)
(0.614661 -0.280167 1.96653e-19)
(0.565813 -0.292134 -5.07564e-20)
(0.505623 -0.294303 -5.29237e-21)
(0.429643 -0.279277 5.81732e-20)
(0.332385 -0.236172 0)
(0.20733 -0.15015 -7.42195e-21)
(0.0482064 -0.0015282 -1.13296e-19)
(-0.149417 0.235938 7.27154e-20)
(0.652599 -0.201134 5.34843e-20)
(0.61795 -0.216324 -5.29737e-20)
(0.575523 -0.230695 5.43577e-20)
(0.524949 -0.240703 -2.70656e-21)
(0.463692 -0.241805 1.23753e-19)
(0.388113 -0.226951 -1.207e-21)
(0.293868 -0.185731 3.76762e-21)
(0.176144 -0.103854 -6.38568e-21)
(0.0315568 0.0377777 8.8497e-20)
(-0.13878 0.26484 0)
(0.623405 -0.152637 -1.61794e-19)
(0.586418 -0.164491 2.67159e-20)
(0.542084 -0.175458 -5.50011e-20)
(0.48978 -0.182503 5.93904e-20)
(0.427365 -0.181428 -3.0264e-20)
(0.351934 -0.165688 1.05985e-19)
(0.260249 -0.125628 -1.14147e-19)
(0.149187 -0.0480221 2.06657e-19)
(0.0182467 0.0847414 -1.33353e-19)
(-0.125951 0.296177 0)
(0.600595 -0.100032 0)
(0.561519 -0.108129 -2.67165e-20)
(0.51547 -0.115101 0)
(0.461627 -0.118377 0)
(0.398168 -0.114178 -3.3872e-20)
(0.322845 -0.0965991 -1.13329e-19)
(0.23344 -0.0570066 -4.26993e-20)
(0.128411 0.0162809 4.34257e-20)
(0.00995844 0.138519 0)
(-0.110165 0.329521 4.87511e-20)
(0.584551 -0.0438624 3.00692e-20)
(0.543876 -0.047958 -8.28567e-20)
(0.496539 -0.0504972 -3.04116e-20)
(0.441552 -0.049366 -3.30334e-20)
(0.377375 -0.0412582 -3.59034e-20)
(0.302333 -0.0210267 -7.85526e-20)
(0.215104 0.0187135 8.3286e-20)
(0.115538 0.0876671 -9.15137e-20)
(0.00819285 0.197947 -1.30595e-21)
(-0.0907413 0.364267 -2.54008e-20)
(0.575326 0.0139994 2.92084e-20)
(0.53384 0.0146082 2.80417e-20)
(0.485899 0.0170787 3.04122e-20)
(0.430367 0.0232206 3.30339e-20)
(0.365994 0.0359079 3.5904e-20)
(0.291602 0.0594689 3.90212e-20)
(0.206612 0.0998633 4.23718e-20)
(0.112003 0.164465 -2.3614e-20)
(0.0142073 0.261582 4.96428e-20)
(-0.0671227 0.39965 5.05409e-20)
(0.574503 0.0729631 2.8612e-20)
(0.532533 0.0786949 0)
(0.484352 0.0865173 -3.10784e-20)
(0.428821 0.0980731 3.24279e-20)
(0.364843 0.11581 -8.89393e-21)
(0.291585 0.143181 -1.99212e-20)
(0.209016 0.18458 5.28688e-20)
(0.118911 0.244772 8.56569e-22)
(0.0289696 0.327754 5.97385e-22)
(-0.0389034 0.434784 1.23543e-20)
(0.58155 0.132828 -7.0205e-21)
(0.539822 0.143522 -7.01357e-21)
(0.492057 0.156723 7.31152e-21)
(0.43724 0.173843 0)
(0.374378 0.196859 8.89405e-21)
(0.302862 0.228288 0)
(0.222998 0.270853 -1.04659e-20)
(0.136997 0.326511 5.67493e-21)
(0.0531281 0.394615 2.80926e-22)
(-0.00583279 0.468692 -1.82645e-20)
(0.829399 -0.351672 0)
(0.879281 -0.373995 0)
(0.925111 -0.390825 1.0429e-21)
(0.967027 -0.400389 -1.69602e-20)
(1.00506 -0.402779 4.54693e-20)
(1.03891 -0.398576 0)
(1.06673 -0.388039 -3.08713e-21)
(1.08645 -0.371111 -1.42656e-21)
(1.09697 -0.348192 1.45182e-21)
(1.09668 -0.31982 1.51442e-22)
(0.793179 -0.369112 6.70927e-20)
(0.845146 -0.390835 5.75773e-20)
(0.893822 -0.406072 2.07125e-20)
(0.937898 -0.413573 1.53934e-20)
(0.976689 -0.413228 0)
(1.00953 -0.405387 0)
(1.03458 -0.39099 5.35261e-21)
(1.05019 -0.369815 -8.78788e-22)
(1.05503 -0.342562 0)
(1.04761 -0.310214 -2.08522e-21)
(0.754556 -0.386166 -1.40492e-19)
(0.806439 -0.405473 -3.28915e-20)
(0.855546 -0.417532 -9.79438e-20)
(0.89962 -0.421577 -1.44215e-20)
(0.93728 -0.417433 1.59599e-20)
(0.967334 -0.40542 0)
(0.988104 -0.386362 2.30113e-21)
(0.998027 -0.360649 -2.15762e-22)
(0.995782 -0.329269 -3.47141e-21)
(0.980229 -0.293558 1.17463e-21)
(0.708132 -0.397101 1.07567e-19)
(0.758535 -0.413784 -6.1836e-20)
(0.806004 -0.422083 2.78822e-20)
(0.847959 -0.421783 -3.45914e-21)
(0.882504 -0.412957 -1.56238e-20)
(0.908044 -0.396109 0)
(0.922956 -0.37214 -2.17596e-21)
(0.925817 -0.341989 0)
(0.915558 -0.307 3.62231e-21)
(0.891517 -0.268846 0)
(0.647927 -0.395791 -3.54139e-20)
(0.695731 -0.40936 3.54113e-20)
(0.739803 -0.41348 2.18693e-20)
(0.777584 -0.408426 -3.70975e-20)
(0.806972 -0.394663 1.07909e-20)
(0.826218 -0.373036 4.4375e-21)
(0.833835 -0.344737 -1.27712e-21)
(0.828687 -0.311158 1.27706e-21)
(0.810132 -0.274003 -1.48079e-21)
(0.778089 -0.235228 1.48075e-21)
(0.566874 -0.374415 7.79151e-20)
(0.610481 -0.384403 -7.49063e-21)
(0.64926 -0.384307 -2.94879e-20)
(0.680846 -0.374824 -3.17965e-21)
(0.703197 -0.35689 -1.88584e-20)
(0.714698 -0.331712 8.18954e-21)
(0.714165 -0.300846 -3.01062e-21)
(0.700899 -0.266061 2.04462e-21)
(0.674792 -0.229337 -3.05661e-21)
(0.636373 -0.192777 0)
(0.456223 -0.32249 3.95453e-20)
(0.493217 -0.329153 -3.88529e-20)
(0.524468 -0.325828 0)
(0.547877 -0.313565 4.15227e-21)
(0.561726 -0.293709 2.17023e-20)
(0.564775 -0.267837 1.38161e-21)
(0.556258 -0.237779 -5.40986e-22)
(0.536001 -0.205528 2.73751e-21)
(0.504453 -0.173159 8.60789e-21)
(0.462676 -0.142712 -1.94361e-21)
(0.305138 -0.226645 4.27341e-20)
(0.332194 -0.231671 -9.02329e-21)
(0.353275 -0.22786 -8.82604e-21)
(0.366729 -0.216501 -8.43642e-21)
(0.371309 -0.199158 -3.52738e-20)
(0.36623 -0.177613 1.74306e-21)
(0.351242 -0.15377 -3.55244e-21)
(0.32667 -0.129578 -2.57211e-21)
(0.293393 -0.106929 3.26462e-22)
(0.252786 -0.0875475 1.28522e-21)
(0.100343 -0.0705969 -4.08705e-21)
(0.11281 -0.0781862 -7.9545e-20)
(0.12049 -0.0795358 4.97904e-20)
(0.1223 -0.0759137 -1.58166e-20)
(0.11752 -0.0687475 2.15033e-20)
(0.105884 -0.0596066 0)
(0.0875718 -0.0500774 -1.92697e-21)
(0.0631959 -0.0416801 3.10273e-21)
(0.0337654 -0.0357843 -5.37325e-22)
(0.000599174 -0.0335347 2.18929e-22)
(-0.176336 0.164884 -4.41288e-20)
(-0.185854 0.146003 5.84437e-20)
(-0.19651 0.128815 -4.80564e-20)
(-0.208639 0.112662 1.39424e-20)
(-0.222354 0.0968991 -1.39423e-20)
(-0.237572 0.0808697 1.53462e-21)
(-0.254005 0.0639441 -5.41541e-21)
(-0.271186 0.0455709 5.52965e-21)
(-0.288508 0.0253118 2.93553e-21)
(-0.305281 0.00285239 -4.4224e-21)
(1.08391 -0.286815 1.22256e-21)
(1.05735 -0.250394 -6.39444e-21)
(1.01629 -0.212213 8.84915e-21)
(0.960867 -0.174408 -2.8347e-20)
(0.892254 -0.139542 0)
(0.812652 -0.110439 2.05071e-20)
(0.724953 -0.0898968 2.478e-20)
(0.631891 -0.0802604 1.48489e-21)
(0.532078 -0.0834603 0)
(0.413662 -0.0960807 0)
(1.02662 -0.274024 1.54748e-21)
(0.991271 -0.235643 0)
(0.941533 -0.197083 9.38401e-21)
(0.878271 -0.160677 1.01158e-20)
(0.803328 -0.128935 0)
(0.719332 -0.104312 0)
(0.629185 -0.0888726 7.84535e-20)
(0.535037 -0.0837989 -2.7376e-20)
(0.435682 -0.0889034 5.69417e-20)
(0.325238 -0.0977018 5.79142e-20)
(0.950568 -0.255137 -1.61329e-21)
(0.906681 -0.215979 8.58463e-21)
(0.849259 -0.178287 1.02189e-20)
(0.779868 -0.144388 -1.02188e-20)
(0.700887 -0.116533 0)
(0.615219 -0.0966272 -2.6177e-20)
(0.525742 -0.0858793 -2.83704e-20)
(0.434484 -0.0843129 -4.42584e-22)
(0.341348 -0.0901735 -8.82133e-20)
(0.244947 -0.0969778 -1.20399e-19)
(0.853519 -0.22945 0)
(0.802163 -0.190981 -8.95801e-21)
(0.738851 -0.155665 0)
(0.665736 -0.125641 0)
(0.585567 -0.102743 0)
(0.501365 -0.0882439 2.75925e-20)
(0.415933 -0.0825577 -5.58144e-20)
(0.331315 -0.0848862 -3.01049e-20)
(0.248347 -0.0928619 6.10985e-20)
(0.167869 -0.101293 3.16368e-20)
(0.733045 -0.196936 2.36441e-21)
(0.676284 -0.161322 -2.36435e-21)
(0.609795 -0.130448 1.2021e-20)
(0.536125 -0.106091 -1.2021e-20)
(0.458178 -0.0895584 -1.38751e-20)
(0.378896 -0.0814836 -1.53626e-20)
(0.300887 -0.0816208 5.97849e-20)
(0.226099 -0.0886649 -3.05473e-20)
(0.155765 -0.100131 -6.50678e-20)
(0.0913179 -0.112026 3.26134e-20)
(0.586743 -0.158482 0)
(0.527714 -0.128471 5.73733e-21)
(0.461651 -0.104452 1.30113e-20)
(0.391236 -0.0877189 7.79987e-22)
(0.319273 -0.0790064 1.4536e-20)
(0.248426 -0.0783694 4.60149e-20)
(0.180956 -0.0850786 -6.34687e-20)
(0.11856 -0.0975692 3.36171e-20)
(0.0624337 -0.11347 3.48589e-20)
(0.0138231 -0.129686 7.95321e-22)
(0.412206 -0.116067 -2.87192e-21)
(0.355142 -0.0948582 -9.40947e-21)
(0.29393 -0.0803038 1.4116e-20)
(0.231098 -0.073149 -2.83959e-20)
(0.16911 -0.0735936 -4.59003e-20)
(0.11017 -0.0812411 1.5982e-20)
(0.0560778 -0.095076 6.72609e-20)
(0.0081571 -0.113484 0)
(-0.0326561 -0.134343 3.69258e-20)
(-0.0655354 -0.155222 -3.59528e-20)
(0.206546 -0.0728778 -1.53924e-21)
(0.156725 -0.0639918 -4.43047e-22)
(0.105528 -0.0615557 7.72449e-21)
(0.0550532 -0.0657968 3.23148e-20)
(0.00721466 -0.0764915 -3.40705e-20)
(-0.0363639 -0.0929732 3.45072e-22)
(-0.0744166 -0.114153 1.35032e-21)
(-0.10604 -0.138561 1.13968e-21)
(-0.130625 -0.164432 9.16175e-22)
(-0.14773 -0.189883 -3.8144e-20)
(-0.0348265 -0.0357848 -2.37506e-22)
(-0.0708845 -0.0429242 1.53066e-20)
(-0.105961 -0.0551235 1.33255e-21)
(-0.138629 -0.0722248 -3.47588e-20)
(-0.167676 -0.0937721 0)
(-0.192139 -0.119056 -2.13863e-20)
(-0.211308 -0.147143 4.06976e-20)
(-0.2247 -0.176903 -2.0436e-20)
(-0.232014 -0.207057 8.69912e-20)
(-0.233074 -0.236279 -8.70056e-20)
(-0.320753 -0.0220229 -2.30659e-21)
(-0.334201 -0.0489686 4.06378e-21)
(-0.345008 -0.0779028 1.93462e-20)
(-0.352646 -0.10854 -3.98174e-20)
(-0.356731 -0.140479 -5.01937e-22)
(-0.357004 -0.173251 4.41612e-20)
(-0.353314 -0.206334 -4.41617e-20)
(-0.345586 -0.239153 4.72178e-20)
(-0.3338 -0.271096 -1.15507e-19)
(-0.31796 -0.301549 4.64001e-20)
(-0.297982 -0.329884 4.63542e-20)
(-0.227861 -0.263361 -8.82861e-20)
(-0.157066 -0.213318 -3.94197e-20)
(-0.0895355 -0.174092 9.73998e-22)
(-0.0251878 -0.143435 1.8823e-22)
(0.0365491 -0.119997 3.35249e-20)
(0.095834 -0.102455 3.01969e-20)
(0.152878 -0.0898737 -1.1582e-19)
(0.209037 -0.0823343 5.44087e-20)
(0.263954 -0.0769643 0)
(-0.274529 -0.355214 -6.93215e-20)
(-0.216889 -0.287321 8.94777e-20)
(-0.158797 -0.233865 -3.07156e-22)
(-0.104095 -0.190468 0)
(-0.0525617 -0.155197 3.51921e-20)
(-0.00351227 -0.126656 -6.75891e-20)
(0.0434341 -0.103435 6.33501e-20)
(0.0888823 -0.0845076 -8.78459e-20)
(0.134361 -0.0700863 5.56345e-20)
(0.178454 -0.0597944 0)
(-0.24801 -0.377452 2.39214e-20)
(-0.200886 -0.307711 -2.15243e-20)
(-0.153792 -0.251081 -1.98121e-22)
(-0.11023 -0.204195 0)
(-0.0696713 -0.165429 3.61148e-20)
(-0.0312931 -0.133478 -3.42834e-20)
(0.00543293 -0.107131 -3.18798e-20)
(0.0411647 -0.0856423 7.53458e-22)
(0.0769176 -0.0692705 -2.72129e-20)
(0.110869 -0.058002 1.1747e-19)
(-0.218894 -0.396457 -4.54e-20)
(-0.18073 -0.324229 4.4724e-20)
(-0.143278 -0.26466 -1.39074e-22)
(-0.109467 -0.21498 7.7623e-20)
(-0.07844 -0.173778 -7.36353e-20)
(-0.0493099 -0.139805 6.88738e-20)
(-0.0215275 -0.111959 -6.47955e-20)
(0.00546013 -0.0895939 -2.92293e-20)
(0.0322926 -0.0727855 8.6404e-20)
(0.0574175 -0.0613019 3.00699e-20)
(-0.187608 -0.412104 4.53996e-20)
(-0.157347 -0.336761 -2.26687e-20)
(-0.128559 -0.274425 7.19828e-23)
(-0.103316 -0.222562 2.01044e-20)
(-0.0805936 -0.179757 5.51906e-20)
(-0.0594808 -0.1447 -1.71567e-20)
(-0.0394603 -0.116246 3.26221e-20)
(-0.0201084 -0.0936414 -3.07451e-20)
(-0.00101655 -0.0766552 0)
(0.0166415 -0.0648389 -9.1344e-20)
(-0.154653 -0.424224 4.48539e-20)
(-0.131722 -0.345388 0)
(-0.110818 -0.280404 -4.16075e-20)
(-0.0931221 -0.226871 -5.85598e-20)
(-0.0776117 -0.183113 1.88868e-20)
(-0.063382 -0.147627 -1.74339e-20)
(-0.0499717 -0.11911 0)
(-0.0370873 -0.096605 0)
(-0.0244681 -0.0795632 0)
(-0.0129556 -0.0673912 0)
(-0.120643 -0.432791 -3.36248e-20)
(-0.10474 -0.350246 -4.47319e-20)
(-0.0910073 -0.282834 4.21277e-20)
(-0.0799827 -0.228088 -3.97794e-20)
(-0.0706561 -0.183916 4.97999e-23)
(-0.062179 -0.1485 -1.77191e-20)
(-0.0541774 -0.120298 0)
(-0.0464695 -0.0981309 -1.58387e-20)
(-0.0389362 -0.0811736 1.47115e-20)
(-0.0322558 -0.0687085 -4.69611e-20)
(-0.086062 -0.437962 2.24028e-20)
(-0.0770768 -0.351591 -2.54695e-23)
(-0.0699255 -0.282117 1.07176e-20)
(-0.0647394 -0.226644 1.98907e-20)
(-0.0605632 -0.182558 1.87643e-20)
(-0.0566657 -0.147641 1.77193e-20)
(-0.0527994 -0.120073 0)
(-0.0489112 -0.0984471 1.58389e-20)
(-0.0450239 -0.0817326 1.49868e-20)
(-0.0417688 -0.069094 1.56597e-20)
(-0.0512838 -0.439927 5.70586e-21)
(-0.0492629 -0.349865 2.26962e-20)
(-0.0481663 -0.278819 -1.96701e-22)
(-0.0479762 -0.223164 -1.51393e-20)
(-0.0478822 -0.179672 9.61095e-21)
(-0.0473408 -0.145673 -4.53169e-21)
(-0.04628 -0.119043 -1.68753e-20)
(-0.0448037 -0.098161 1.61724e-20)
(-0.0430755 -0.0818275 0)
(-0.0417517 -0.0691127 1.58027e-20)
(-0.0165924 -0.438913 -2.87949e-21)
(-0.0216646 -0.345596 -8.39303e-23)
(-0.0261053 -0.27361 -2.76176e-21)
(-0.0300303 -0.218398 -5.10219e-21)
(-0.0328984 -0.176039 0)
(-0.0344348 -0.143388 4.53172e-21)
(-0.0347981 -0.11801 0)
(-0.0342793 -0.0980794 -4.02731e-21)
(-0.0331833 -0.0822516 3.86307e-21)
(-0.0322739 -0.0695251 -3.98082e-21)
(-0.012945 -0.0374866 -1.70934e-21)
(-0.00464484 -0.0375353 7.57278e-22)
(0.0495314 -0.0350428 0)
(0.0963489 -0.0339849 -1.77843e-22)
(0.158287 -0.0322999 3.65263e-22)
(0.217494 -0.0298292 -2.2478e-22)
(0.277953 -0.0280129 2.09637e-22)
(0.335333 -0.027512 0)
(0.38995 -0.0291442 0)
(0.43994 -0.0316192 0)
(0.485206 -0.0350907 0)
(0.525059 -0.0340411 3.92842e-23)
(0.559759 -0.0290914 -3.66722e-23)
(0.592903 -0.0145142 -1.05216e-23)
(0.621091 0.00716642 9.82733e-24)
(0.657832 0.0187443 -2.47457e-23)
(0.684541 0.0232046 0)
(0.732128 -0.0229866 -1.16879e-24)
(0.737972 -0.0543367 1.09325e-24)
(0.763835 -0.0198057 0)
(0.0216651 -0.0396158 3.66213e-21)
(0.0316278 -0.0478752 0)
(0.088399 -0.0479242 0)
(0.135136 -0.0476441 9.3307e-22)
(0.195362 -0.0457127 -2.67907e-21)
(0.252396 -0.0421978 1.12448e-21)
(0.310326 -0.0391584 4.94639e-22)
(0.365135 -0.0372728 -3.52831e-22)
(0.417205 -0.0375322 2.1491e-22)
(0.464466 -0.0386422 -3.06536e-22)
(0.506994 -0.0408669 1.35214e-22)
(0.543562 -0.0387101 0)
(0.57519 -0.0330161 -5.67953e-23)
(0.604951 -0.0178489 1.15626e-23)
(0.630949 0.00389829 3.87055e-23)
(0.666957 0.0157234 2.47776e-23)
(0.693815 0.0200399 9.05234e-24)
(0.742607 -0.0251212 4.86611e-23)
(0.746324 -0.0553583 0)
(0.768394 -0.0206681 0)
(0.0693124 -0.0439009 0)
(0.0815037 -0.0589488 -5.29738e-21)
(0.140722 -0.0608292 9.73234e-21)
(0.186659 -0.0608844 -3.92964e-21)
(0.243887 -0.0585142 0)
(0.297477 -0.0539318 0)
(0.351609 -0.0496822 5.01283e-22)
(0.402696 -0.0464631 -9.36482e-22)
(0.451189 -0.0453838 -4.09095e-23)
(0.494841 -0.045168 -4.05353e-23)
(0.533899 -0.0461752 0)
(0.566613 -0.0429602 0)
(0.594715 -0.0365851 0)
(0.620689 -0.0209321 -8.21021e-23)
(0.644124 0.000749781 -5.98048e-23)
(0.67888 0.0127351 0)
(0.705448 0.0168809 0)
(0.754782 -0.0271532 -5.71804e-23)
(0.756266 -0.0561613 -2.4634e-23)
(0.774378 -0.0214074 5.01413e-25)
(0.13013 -0.0507312 9.87962e-22)
(0.144657 -0.0706562 4.70695e-21)
(0.205478 -0.0735676 -5.65025e-21)
(0.2496 -0.0734208 4.45581e-22)
(0.302475 -0.0704172 0)
(0.351387 -0.0647758 0)
(0.400557 -0.0593698 -1.03638e-21)
(0.446895 -0.0549039 1.32935e-21)
(0.490908 -0.0525599 -2.28507e-22)
(0.530199 -0.0510886 -1.66445e-22)
(0.565183 -0.050937 -4.44294e-22)
(0.593598 -0.0467352 2.53467e-22)
(0.617835 -0.0397539 3.60994e-23)
(0.639739 -0.023723 1.87552e-22)
(0.660318 -0.00223229 6.08341e-23)
(0.693357 0.00982883 0)
(0.719219 0.0137774 0)
(0.768449 -0.029054 0)
(0.767629 -0.0567401 2.41037e-23)
(0.781696 -0.0220195 0)
(0.204229 -0.0604393 -1.00664e-21)
(0.220676 -0.0826976 -5.61926e-21)
(0.281352 -0.0858063 5.22202e-21)
(0.322306 -0.0849461 -2.45724e-21)
(0.369433 -0.0811521 3.87254e-21)
(0.412507 -0.0745059 0)
(0.455701 -0.0680414 -4.08539e-22)
(0.496425 -0.0624483 6.16022e-22)
(0.535221 -0.058947 -8.02689e-24)
(0.569557 -0.05632 0)
(0.600001 -0.0550953 0)
(0.623812 -0.0499969 1.85685e-22)
(0.643967 -0.0424933 -2.63126e-22)
(0.661638 -0.0261926 8.20043e-23)
(0.679164 -0.0050111 -1.43523e-23)
(0.710087 0.00705003 -1.09339e-22)
(0.734865 0.0107774 1.46518e-22)
(0.783381 -0.0307966 -1.41244e-22)
(0.780228 -0.0570931 4.98622e-23)
(0.790238 -0.0225029 0)
(0.291641 -0.0729579 -1.79411e-20)
(0.308943 -0.0946386 1.24367e-20)
(0.366728 -0.0970777 -1.61789e-21)
(0.402816 -0.0951064 -9.55133e-21)
(0.442811 -0.0904516 -6.09717e-21)
(0.47902 -0.0829197 4.98893e-21)
(0.515421 -0.0755433 -7.66956e-24)
(0.549865 -0.0689788 -1.26677e-21)
(0.582896 -0.0644583 -3.91896e-22)
(0.611854 -0.0608023 8.03163e-22)
(0.637447 -0.0586127 -2.03417e-22)
(0.656488 -0.0527234 2.47782e-22)
(0.672466 -0.0447876 3.36923e-23)
(0.685865 -0.0283222 2.16026e-22)
(0.700238 -0.0075523 0)