/*--------------------------------*- C++ -*----------------------------------*\
| =========                 |                                                 |
| \\      /  F ield         | OpenFOAM: The Open Source CFD Toolbox           |
|  \\    /   O peration     | Version:  v1912                                 |
|   \\  /    A nd           | Website:  www.openfoam.com                      |
|    \\/     M anipulation  |                                                 |
\*---------------------------------------------------------------------------*/
FoamFile
{
    version     2.0;
    format      ascii;
    class       volScalarField;
    location    "57.5";
    object      p;
}
// * * * * * * * * * * * * * * * * * * * * * * * * * * * * * * * * * * * * * //

dimensions      [0 2 -2 0 0 0 0];


internalField   nonuniform List<scalar> 
9600
(
-41.4868
-36.222
-32.9953
-30.2581
-27.7527
-25.4859
-23.4294
-21.5552
-19.8459
-18.2879
-16.8684
-15.5756
-14.3981
-13.3251
-12.3466
-11.453
-10.6361
-9.88784
-9.20071
-8.57255
-42.2468
-36.9644
-33.7017
-30.9216
-28.3711
-26.0602
-23.9623
-22.0503
-20.3072
-18.7191
-17.2732
-15.9573
-14.7595
-13.6686
-12.6741
-11.7664
-10.9367
-10.1767
-9.47844
-8.84101
-43.0083
-37.7028
-34.4027
-31.5796
-28.9837
-26.6285
-24.4892
-22.5396
-20.7627
-19.1449
-17.673
-16.3342
-15.1163
-14.0078
-12.9977
-12.076
-11.2336
-10.4619
-9.75259
-9.10607
-43.7683
-38.4368
-35.0979
-32.231
-29.5895
-27.1898
-25.0091
-23.022
-21.2117
-19.5645
-18.0668
-16.7055
-15.468
-14.3421
-13.3166
-12.3811
-11.5263
-10.743
-10.0227
-9.36741
-44.5238
-39.1648
-35.7861
-32.8748
-30.1873
-27.7432
-25.5212
-23.4967
-21.6534
-19.9772
-18.4541
-17.0707
-15.8138
-14.6709
-13.6303
-12.6813
-11.8142
-11.0196
-10.2885
-9.62475
-45.2727
-39.8854
-36.4663
-33.51
-30.7762
-28.2875
-26.0244
-23.9629
-22.0869
-20.382
-18.8341
-17.429
-16.1532
-14.9936
-13.9383
-12.9761
-12.0971
-11.2913
-10.5497
-9.87781
-46.0132
-40.5971
-37.1371
-34.1353
-31.355
-28.8218
-26.5178
-24.4197
-22.5113
-20.7783
-19.206
-17.7797
-16.4854
-15.3096
-14.2399
-13.2649
-12.3743
-11.5577
-10.8058
-10.1263
-46.7438
-41.2985
-37.7974
-34.7497
-31.9228
-29.3452
-27.0004
-24.866
-22.9259
-21.1653
-19.5691
-18.1221
-16.8098
-15.6183
-14.5347
-13.5473
-12.6454
-11.8183
-11.0564
-10.37
-47.4631
-41.9884
-38.4458
-35.352
-32.4784
-29.8565
-27.4714
-25.3012
-23.3298
-21.5421
-19.9225
-18.4554
-17.1257
-15.9189
-14.8219
-13.8225
-12.9099
-12.0727
-11.3013
-10.6085
-48.1699
-42.6655
-39.0812
-35.9411
-33.0209
-30.3549
-27.9298
-25.7243
-23.7222
-21.908
-20.2656
-18.7789
-17.4323
-16.2108
-15.1008
-14.09
-13.1671
-12.3202
-11.5399
-10.8413
-48.863
-43.3288
-39.7026
-36.5161
-33.5493
-30.8395
-28.3748
-26.1344
-24.1021
-22.262
-20.5975
-19.0918
-17.7287
-16.493
-15.3706
-14.3488
-13.4162
-12.5603
-11.7715
-11.068
-49.5416
-43.9772
-40.309
-37.0759
-34.0626
-31.3093
-28.8054
-26.5308
-24.4689
-22.6034
-20.9173
-19.3931
-18.0142
-16.7648
-15.6304
-14.5983
-13.6564
-12.792
-11.9953
-11.2876
-50.2049
-44.6099
-40.8995
-37.6197
-34.56
-31.7635
-29.2209
-26.9125
-24.8216
-22.9314
-21.2241
-19.682
-18.2876
-17.025
-15.8793
-14.8372
-13.8867
-13.0144
-12.2106
-11.4994
-50.8523
-45.226
-41.4732
-38.1466
-35.0407
-32.2013
-29.6206
-27.2789
-25.1595
-23.245
-21.5172
-19.9574
-18.5481
-17.2726
-16.1158
-15.0643
-14.1057
-13.2262
-12.416
-11.7029
-51.4832
-45.8247
-42.0293
-38.656
-35.5039
-32.6221
-30.0036
-27.6293
-25.4819
-23.5437
-21.7956
-20.2186
-18.7945
-17.5063
-16.3386
-15.2778
-14.3114
-13.4251
-12.6095
-11.896
-52.0973
-46.4053
-42.5671
-39.1471
-35.9492
-33.0252
-30.3696
-27.9631
-25.7883
-23.8267
-22.0587
-20.4647
-19.0259
-17.725
-16.5464
-15.4764
-14.5021
-13.6091
-12.7883
-12.0734
-52.6957
-46.9676
-43.086
-39.6192
-36.3757
-33.4101
-30.718
-28.2799
-26.0781
-24.0936
-22.3059
-20.6949
-19.2414
-17.9278
-16.7382
-15.659
-14.6772
-13.7781
-12.9513
-12.2318
-53.2828
-47.5128
-43.5851
-40.0713
-36.7827
-33.7761
-31.0481
-28.5792
-26.3511
-24.3439
-22.5366
-20.9085
-19.4398
-18.1128
-16.9117
-15.823
-14.8342
-13.9293
-13.0976
-12.3825
-53.8607
-48.0404
-44.0629
-40.5023
-37.1696
-34.1233
-31.3604
-28.8616
-26.6078
-24.5783
-22.7515
-21.1057
-19.6209
-18.2787
-17.0635
-15.9618
-14.961
-14.0452
-13.2122
-12.5297
-54.4077
-48.5427
-44.5184
-40.9128
-37.5379
-34.4532
-31.6566
-29.1287
-26.8499
-24.7987
-22.9525
-21.289
-19.7872
-18.4281
-17.1952
-16.074
-15.0493
-14.1078
-13.2639
-12.5877
-59.8638
-59.8323
-59.763
-59.6706
-59.5543
-59.4115
-59.2418
-59.0458
-58.8239
-58.5767
-58.3047
-58.0086
-57.689
-57.3465
-56.982
-56.5962
-56.1904
-55.7661
-55.3263
-54.8741
-53.5149
-53.5123
-53.4765
-53.4132
-53.323
-53.2055
-53.0609
-52.8899
-52.6932
-52.4714
-52.2252
-51.955
-51.6617
-51.3457
-51.0078
-50.6486
-50.2688
-49.8688
-49.4492
-49.0078
-48.8706
-48.8924
-48.8848
-48.8485
-48.7846
-48.6942
-48.5778
-48.4359
-48.2693
-48.0786
-47.8642
-47.6269
-47.367
-47.0853
-46.7821
-46.458
-46.1132
-45.7477
-45.3613
-44.952
-44.6399
-44.6794
-44.6923
-44.678
-44.6376
-44.5719
-44.4818
-44.3676
-44.2301
-44.0697
-43.8869
-43.6823
-43.4564
-43.2097
-42.9425
-42.6551
-42.3477
-42.0203
-41.6725
-41.3035
-40.728
-40.7773
-40.8028
-40.8035
-40.78
-40.733
-40.6632
-40.5712
-40.4573
-40.3222
-40.1662
-39.99
-39.7939
-39.5784
-39.3438
-39.0903
-38.8182
-38.5272
-38.2173
-37.8878
-37.2146
-37.2681
-37.3
-37.3094
-37.2965
-37.2619
-37.2063
-37.1302
-37.0339
-36.918
-36.783
-36.6294
-36.4576
-36.2679
-36.0608
-35.8365
-35.595
-35.3363
-35.0602
-34.7661
-34.0909
-34.1443
-34.178
-34.1912
-34.1838
-34.1565
-34.1098
-34.0443
-33.9603
-33.8583
-33.7388
-33.6023
-33.4493
-33.2802
-33.0952
-32.8948
-32.6789
-32.4476
-32.2005
-31.9372
-31.3199
-31.3705
-31.4029
-31.4164
-31.4109
-31.3871
-31.3455
-31.2864
-31.2105
-31.118
-31.0096
-30.8857
-30.7468
-30.5934
-30.426
-30.2447
-30.0497
-29.8411
-29.6185
-29.3815
-28.8619
-28.908
-28.9372
-28.9489
-28.9431
-28.9203
-28.881
-28.8256
-28.7547
-28.6685
-28.5678
-28.4529
-28.3246
-28.1832
-28.0293
-27.8633
-27.6853
-27.4955
-27.2935
-27.0787
-26.677
-26.718
-26.7432
-26.7519
-26.7445
-26.7212
-26.6826
-26.629
-26.561
-26.4789
-26.3835
-26.2751
-26.1546
-26.0223
-25.879
-25.7251
-25.561
-25.3869
-25.2023
-25.0068
-24.7282
-24.7639
-24.7847
-24.7901
-24.7804
-24.7558
-24.7169
-24.6641
-24.5977
-24.5183
-24.4265
-24.3229
-24.2081
-24.0828
-23.9478
-23.8038
-23.6511
-23.4902
-23.3208
-23.1421
-22.9824
-23.0131
-23.0296
-23.0317
-23.0195
-22.9933
-22.9537
-22.9009
-22.8354
-22.7578
-22.6686
-22.5684
-22.458
-22.3382
-22.2098
-22.0736
-21.9305
-21.781
-21.6249
-21.4616
-21.4115
-21.4376
-21.4501
-21.449
-21.4344
-21.4066
-21.366
-21.313
-21.2481
-21.1716
-21.0843
-20.9867
-20.8797
-20.7641
-20.6409
-20.5113
-20.3762
-20.2365
-20.0926
-19.9435
-19.9916
-20.0135
-20.0225
-20.0185
-20.0017
-19.9724
-19.9309
-19.8776
-19.8129
-19.7374
-19.6515
-19.556
-19.4516
-19.3393
-19.2202
-19.0957
-18.9674
-18.8362
-18.7035
-18.5681
-18.703
-18.7212
-18.727
-18.7204
-18.7016
-18.6709
-18.6287
-18.5751
-18.5107
-18.4359
-18.3512
-18.2572
-18.1549
-18.0451
-17.9293
-17.8088
-17.6858
-17.562
-17.4397
-17.3178
-17.529
-17.5438
-17.5468
-17.538
-17.5175
-17.4857
-17.4427
-17.389
-17.3248
-17.2506
-17.1669
-17.0742
-16.9735
-16.8656
-16.7519
-16.6343
-16.5153
-16.3972
-16.2846
-16.1759
-16.4559
-16.4677
-16.4683
-16.4575
-16.4355
-16.4026
-16.3591
-16.3051
-16.2411
-16.1674
-16.0845
-15.9928
-15.8931
-15.7864
-15.674
-15.5578
-15.4411
-15.3268
-15.2223
-15.1254
-15.4717
-15.4812
-15.4798
-15.4675
-15.4444
-15.4109
-15.367
-15.3131
-15.2494
-15.1762
-15.094
-15.0031
-14.9042
-14.7981
-14.6861
-14.5699
-14.4536
-14.3407
-14.2432
-14.1555
-14.5654
-14.5735
-14.5711
-14.5583
-14.5352
-14.502
-14.4588
-14.406
-14.3437
-14.2722
-14.1917
-14.1028
-14.0057
-13.9013
-13.7903
-13.6744
-13.5573
-13.4441
-13.3535
-13.2799
-13.7317
-13.7365
-13.7316
-13.717
-13.6928
-13.6592
-13.6163
-13.5644
-13.5036
-13.434
-13.356
-13.2698
-13.1756
-13.074
-12.9652
-12.8504
-12.7314
-12.6135
-12.5165
-12.4672
-53.5709
-54.1464
-54.6847
-55.208
-55.7134
-56.1948
-56.6495
-57.0763
-57.4744
-57.8428
-58.1809
-58.4882
-58.7643
-59.0089
-59.2213
-59.4017
-59.5509
-59.67
-59.7611
-59.8261
-47.0878
-47.6687
-48.2214
-48.7518
-49.2594
-49.7417
-50.1974
-50.6256
-51.0258
-51.3973
-51.7396
-52.0524
-52.336
-52.5909
-52.8151
-53.008
-53.1702
-53.3022
-53.4043
-53.4755
-42.4434
-43.012
-43.5569
-44.0784
-44.5765
-45.0504
-45.4993
-45.9225
-46.3195
-46.6895
-47.0316
-47.3455
-47.631
-47.8868
-48.1141
-48.3133
-48.4839
-48.6257
-48.7383
-48.8203
-38.3194
-38.8627
-39.3863
-39.8883
-40.3681
-40.8255
-41.2598
-41.6703
-42.0565
-42.4177
-42.7526
-43.0609
-43.3432
-43.5993
-43.8291
-44.0325
-44.2091
-44.3584
-44.4803
-44.5742
-34.6415
-35.1548
-35.6509
-36.1275
-36.5834
-37.0183
-37.4317
-37.8229
-38.1912
-38.536
-38.8579
-39.1566
-39.4305
-39.6798
-39.9048
-40.1051
-40.2803
-40.4303
-40.5552
-40.6545
-31.4429
-31.9246
-32.391
-32.8395
-33.2687
-33.6784
-34.068
-34.437
-34.7849
-35.1113
-35.4161
-35.6988
-35.9586
-36.1958
-36.4107
-36.6029
-36.7719
-36.9176
-37.04
-37.1392
-28.6709
-29.1219
-29.5586
-29.9787
-30.3809
-30.7648
-31.1298
-31.4755
-31.8014
-32.1073
-32.3929
-32.6578
-32.9017
-33.1244
-33.3255
-33.5071
-33.6672
-33.8054
-33.9221
-34.0174
-26.259
-26.681
-27.0897
-27.4827
-27.8589
-28.2178
-28.5588
-28.8815
-29.1856
-29.4708
-29.7369
-29.9836
-30.2109
-30.4187
-30.6068
-30.7739
-30.9234
-31.0526
-31.1616
-31.2508
-24.1482
-24.5438
-24.9267
-25.2948
-25.6468
-25.9823
-26.3007
-26.6017
-26.8849
-27.1503
-27.3976
-27.6268
-27.8377
-28.0303
-28.2045
-28.3604
-28.4966
-28.6158
-28.7165
-28.7985
-22.2885
-22.6603
-23.02
-23.3654
-23.6955
-24.0094
-24.307
-24.5878
-24.8517
-25.0986
-25.3284
-25.541
-25.7363
-25.9145
-26.0753
-26.2187
-26.3446
-26.4533
-26.5453
-26.6199
-20.6383
-20.9889
-21.3278
-21.653
-21.9631
-22.2576
-22.5361
-22.7985
-23.0446
-23.2745
-23.4881
-23.6854
-23.8664
-24.0311
-24.1795
-24.3114
-24.4271
-24.5263
-24.6099
-24.6773
-19.1639
-19.4957
-19.8164
-20.1236
-20.4157
-20.6925
-20.9536
-21.1992
-21.4291
-21.6434
-21.8422
-22.0256
-22.1934
-22.3459
-22.4829
-22.6044
-22.7106
-22.8014
-22.8767
-22.9374
-17.8383
-18.1536
-18.4584
-18.7496
-19.0256
-19.2862
-19.5316
-19.7617
-19.9767
-20.1769
-20.3622
-20.5328
-20.6888
-20.8301
-20.9568
-21.0689
-21.1663
-21.2492
-21.3172
-21.3718
-16.6399
-16.9408
-17.232
-17.5091
-17.7704
-18.0163
-18.247
-18.463
-18.6644
-18.8515
-19.0245
-19.1835
-19.3287
-19.4599
-19.5773
-19.6808
-19.7705
-19.8465
-19.9089
-19.9569
-15.5517
-15.8403
-16.12
-16.3844
-16.6322
-16.8643
-17.0816
-17.2843
-17.4731
-17.6482
-17.8099
-17.9584
-18.0936
-18.2158
-18.3247
-18.4205
-18.5032
-18.5728
-18.6293
-18.6725
-14.5588
-14.8389
-15.1094
-15.3619
-15.5968
-15.816
-16.0204
-16.2108
-16.3877
-16.5516
-16.7029
-16.8417
-16.9679
-17.0818
-17.1831
-17.272
-17.3483
-17.4122
-17.4635
-17.5024
-13.6437
-13.9227
-14.1881
-14.4291
-14.6513
-14.8581
-15.0503
-15.2289
-15.3947
-15.5484
-15.6901
-15.82
-15.9382
-16.0445
-16.139
-16.2216
-16.2923
-16.351
-16.3978
-16.4327
-12.7858
-13.069
-13.3356
-13.5673
-13.7775
-13.9726
-14.1536
-14.3216
-14.4777
-14.6224
-14.7559
-14.8783
-14.9896
-15.0896
-15.1784
-15.2558
-15.3219
-15.3765
-15.4196
-15.4515
-11.9984
-12.2721
-12.5394
-12.7662
-12.9664
-13.1501
-13.3206
-13.4791
-13.6264
-13.7631
-13.8895
-14.0054
-14.1109
-14.2057
-14.2898
-14.363
-14.4254
-14.4768
-14.5172
-14.5468
-11.4077
-11.6585
-11.8863
-12.1031
-12.2915
-12.4574
-12.6114
-12.7556
-12.8897
-13.0139
-13.1286
-13.2339
-13.3294
-13.415
-13.4907
-13.5563
-13.6117
-13.6569
-13.6918
-13.7163
-6.00628
-6.49762
-7.03603
-7.61847
-8.25138
-8.94213
-9.69841
-10.5297
-11.4481
-12.4693
-13.6138
-14.9085
-16.3887
-18.1007
-20.1048
-22.4804
-25.3085
-28.6116
-32.609
-38.6049
-6.2769
-6.78177
-7.33071
-7.92522
-8.5719
-9.27784
-10.0508
-10.9006
-11.8395
-12.8837
-14.0537
-15.377
-16.8894
-18.6374
-20.6816
-23.1013
-25.9765
-29.3264
-33.3623
-39.3793
-6.54896
-7.06736
-7.62694
-8.23375
-8.89447
-9.61584
-10.4058
-11.2744
-12.2342
-13.3015
-14.4974
-15.8497
-17.3945
-19.1789
-21.2635
-23.7273
-26.6491
-30.0447
-34.1173
-40.1508
-6.82194
-7.35383
-7.92413
-8.54346
-9.21842
-9.95544
-10.7626
-11.6501
-12.631
-13.7218
-14.9438
-16.3253
-17.9028
-19.7237
-21.8488
-24.3567
-27.3249
-30.766
-34.8765
-40.9312
-7.09543
-7.64072
-8.22181
-8.85386
-9.54327
-10.2961
-11.1207
-12.0274
-13.0295
-14.1438
-15.3922
-16.8031
-18.4135
-20.271
-22.4366
-24.9886
-28.0031
-31.4898
-35.6387
-41.7178
-7.36904
-7.9276
-8.51957
-9.16454
-9.86859
-10.6374
-11.4795
-12.4055
-13.429
-14.5672
-15.842
-17.2824
-18.9257
-20.82
-23.0263
-25.6223
-28.6829
-32.2149
-36.4021
-42.5066
-7.64247
-8.21414
-8.81701
-9.47509
-10.194
-10.9789
-11.8386
-12.7841
-13.8292
-14.9911
-16.2926
-17.7626
-19.439
-21.37
-23.6169
-26.2569
-29.3635
-32.9404
-37.165
-43.2951
-7.91545
-8.50002
-9.11382
-9.78518
-10.519
-11.3202
-12.1976
-13.1627
-14.2293
-15.4152
-16.7432
-18.2429
-19.9524
-21.9202
-24.2077
-26.8915
-30.0437
-33.6651
-37.9264
-44.0819
-8.18784
-8.78506
-9.40976
-10.0945
-10.8434
-11.6609
-12.5561
-13.5407
-14.6289
-15.8387
-17.1934
-18.7227
-20.4653
-22.4699
-24.7977
-27.525
-30.7225
-34.3878
-38.6849
-44.8656
-8.45959
-9.06914
-9.70467
-10.4029
-11.1669
-12.0007
-12.9137
-13.9177
-15.0275
-16.2612
-17.6424
-19.2014
-20.9769
-23.018
-25.386
-28.1566
-31.3988
-35.1073
-39.4394
-45.6446
-8.73082
-9.3523
-9.9985
-10.7103
-11.4893
-12.3393
-13.2699
-14.2934
-15.4246
-16.6821
-18.0897
-19.678
-21.4863
-23.5638
-25.9717
-28.785
-32.0715
-35.8225
-40.1883
-46.4175
-9.00182
-9.6347
-10.2913
-11.0165
-11.8104
-12.6765
-13.6246
-14.6673
-15.8196
-17.1006
-18.5344
-20.152
-21.9928
-24.1064
-26.5538
-29.4094
-32.7394
-36.5321
-40.9305
-47.1829
-9.27307
-9.91664
-10.5832
-11.3215
-12.1301
-13.0119
-13.9772
-15.0388
-16.2121
-17.5164
-18.9761
-20.6225
-22.4955
-24.6448
-27.1312
-30.0285
-33.4013
-37.2349
-41.6645
-47.9393
-9.5453
-10.1985
-10.8743
-11.6254
-12.4482
-13.3453
-14.3273
-15.4075
-16.6014
-17.9285
-19.4138
-21.0887
-22.9936
-25.178
-27.703
-30.6413
-34.056
-37.9295
-42.3892
-48.6856
-9.81927
-10.4807
-11.1646
-11.9277
-12.7643
-13.6762
-14.6744
-15.7727
-16.9867
-18.3363
-19.8467
-21.5498
-23.4859
-25.7051
-28.2679
-31.2465
-34.7023
-38.6149
-43.1032
-49.4204
-10.0959
-10.7634
-11.454
-12.2282
-13.0776
-14.0037
-15.0178
-16.1336
-17.3673
-18.7389
-20.274
-22.0046
-23.9716
-26.2249
-28.8249
-31.843
-35.3389
-39.2896
-43.8055
-50.1429
-10.3751
-11.0455
-11.7408
-12.5253
-13.3871
-14.3269
-15.3563
-16.4892
-17.7422
-19.1354
-20.6945
-22.4523
-24.4495
-26.7362
-29.3726
-32.4292
-35.9644
-39.9523
-44.495
-50.8524
-10.656
-11.3245
-12.0227
-12.8172
-13.6915
-14.6447
-15.6889
-16.8386
-18.1103
-19.5246
-21.1075
-22.8917
-24.9184
-27.2379
-29.9098
-33.004
-36.5772
-40.6014
-45.1705
-51.549
-10.9315
-11.592
-12.2935
-13.1006
-13.9884
-14.9552
-16.0143
-17.1805
-18.4707
-19.9056
-21.5115
-23.3216
-25.3772
-27.7285
-30.4351
-33.5656
-37.1755
-41.2351
-45.8309
-52.234
-11.1828
-11.8282
-12.5487
-13.3764
-14.2785
-15.2584
-16.3318
-17.5142
-18.8223
-20.2773
-21.9057
-23.7411
-25.8247
-28.207
-30.9469
-34.1123
-37.7573
-41.8502
-46.4715
-52.9091
-1.58491
-1.83886
-2.18675
-2.57569
-2.99427
-3.44784
-3.94272
-4.48483
-5.08166
-5.74349
-6.48425
-7.32296
-8.28578
-9.40874
-10.7427
-12.3621
-14.3565
-16.7871
-19.9623
-25.357
-1.73807
-2.00846
-2.37482
-2.7697
-3.19171
-3.65062
-4.15241
-4.70261
-5.30885
-5.98167
-6.73527
-7.58901
-8.56946
-9.71319
-11.0717
-12.7197
-14.747
-17.213
-20.4205
-25.8291
-1.88559
-2.18005
-2.55957
-2.9626
-3.39235
-3.85965
-4.37038
-4.93026
-5.54729
-6.23234
-6.99996
-7.86988
-8.86914
-10.0348
-11.419
-13.0967
-15.1576
-17.6591
-20.8981
-26.3153
-2.05539
-2.36068
-2.74841
-3.16016
-3.59911
-4.07596
-4.59672
-5.16741
-5.79635
-6.49472
-7.27742
-8.16457
-9.18369
-10.3724
-11.7832
-13.4917
-15.5872
-18.1255
-21.3993
-26.8342
-2.23651
-2.5489
-2.94446
-3.36519
-3.81363
-4.30046
-4.83191
-5.41421
-6.05594
-6.76856
-7.56728
-8.47265
-9.51264
-10.7254
-12.164
-13.9044
-16.0356
-18.6121
-21.9234
-27.3824
-2.4231
-2.74412
-3.14802
-3.57787
-4.0361
-4.53338
-5.0761
-5.67071
-6.32599
-7.05368
-7.86932
-8.79384
-9.85569
-11.0936
-12.561
-14.3344
-16.5027
-19.1186
-22.4686
-27.9547
-2.61671
-2.94723
-3.3594
-3.79839
-4.26668
-4.77484
-5.32937
-5.93688
-6.6064
-7.34992
-8.18329
-9.12785
-10.2125
-11.4765
-12.9739
-14.7815
-16.9879
-19.6444
-23.034
-28.5489
-2.81871
-3.15872
-3.57893
-4.02707
-4.50561
-5.02498
-5.59173
-6.21268
-6.89704
-7.65706
-8.50892
-9.47435
-10.5827
-11.8738
-13.4023
-15.2451
-17.4908
-20.1889
-23.6188
-29.1637
-3.02888
-3.37844
-3.80666
-4.26398
-4.75296
-5.2838
-5.86315
-6.49799
-7.19773
-7.97488
-8.84593
-9.83301
-10.966
-12.2851
-13.8455
-15.7247
-18.0107
-20.7514
-24.2224
-29.7981
-3.24663
-3.60605
-4.04238
-4.50898
-5.00857
-5.55116
-6.14346
-6.79261
-7.50824
-8.3031
-9.194
-10.2035
-11.3618
-12.7098
-14.3032
-16.2197
-18.5469
-21.3312
-24.8439
-30.4511
-3.47153
-3.8412
-4.28578
-4.7618
-5.27221
-5.82681
-6.4324
-7.09627
-7.82827
-8.64139
-9.55276
-10.5853
-11.7698
-13.1476
-14.7748
-16.7294
-19.099
-21.9275
-25.4825
-31.1216
-3.70317
-4.08349
-4.53648
-5.02208
-5.54353
-6.11043
-6.72964
-7.40863
-8.15745
-8.98935
-9.9218
-10.9781
-12.1894
-13.5978
-15.2597
-17.2534
-19.666
-22.5396
-26.1372
-31.8085
-3.94112
-4.33245
-4.79404
-5.28941
-5.82214
-6.40162
-7.03478
-7.72927
-8.49536
-9.34655
-10.3006
-11.3813
-12.6202
-14.0598
-15.7572
-17.7909
-20.2473
-23.1667
-26.8074
-32.5109
-4.18483
-4.58755
-5.05795
-5.56331
-6.10757
-6.69993
-7.34736
-8.05774
-8.84152
-9.71249
-10.6887
-11.7944
-13.0616
-14.5332
-16.2669
-18.3412
-20.8422
-23.808
-27.492
-33.2278
-4.43376
-4.84824
-5.32767
-5.84326
-6.39933
-7.00486
-7.6669
-8.39352
-9.19542
-10.0866
-11.0856
-12.2168
-13.5128
-15.0172
-16.7878
-18.9035
-21.4498
-24.4625
-28.1902
-33.9585
-4.68736
-5.11395
-5.60265
-6.12871
-6.69687
-7.31587
-7.99284
-8.73608
-9.55649
-10.4684
-11.4905
-12.6478
-13.9734
-15.511
-17.3193
-19.4771
-22.0693
-25.1295
-28.9012
-34.7021
-4.94507
-5.3841
-5.88229
-6.41909
-6.99964
-7.6324
-8.32464
-9.08483
-9.92415
-10.8572
-11.903
-13.0869
-14.4424
-16.014
-17.8606
-20.0611
-22.6998
-25.808
-29.6242
-35.4579
-5.20636
-5.6581
-6.16603
-6.71384
-7.30705
-7.95389
-8.66169
-9.43919
-10.2978
-11.2523
-12.3222
-13.5332
-14.9194
-16.5254
-18.4108
-20.6545
-23.3402
-26.4969
-30.3583
-36.2258
-5.47066
-5.93539
-6.45327
-7.01236
-7.61853
-8.27973
-9.00341
-9.79854
-10.6768
-11.6532
-12.7476
-13.9861
-15.4033
-17.0443
-18.9689
-21.2564
-23.9894
-27.195
-31.1024
-37.0063
-5.73747
-6.21542
-6.74348
-7.31412
-7.93353
-8.60938
-9.34923
-10.1623
-11.0605
-12.0592
-13.1785
-14.4449
-15.8935
-17.5699
-19.5342
-21.8657
-24.6463
-27.9006
-31.8538
-37.8001
-1.33714
-1.13044
-0.976674
-0.839958
-0.719903
-0.613967
-0.521036
-0.440317
-0.371309
-0.313653
-0.267083
-0.231386
-0.206394
-0.191969
-0.187973
-0.194196
-0.210421
-0.236776
-0.273441
-0.320202
-1.66696
-1.48354
-1.32579
-1.18385
-1.05896
-0.94856
-0.851663
-0.767471
-0.695471
-0.635286
-0.586634
-0.549293
-0.52308
-0.507844
-0.50344
-0.509696
-0.526455
-0.55373
-0.591603
-0.639775
-1.99944
-1.8239
-1.66618
-1.52309
-1.39608
-1.28349
-1.18464
-1.09883
-1.02559
-0.964569
-0.915486
-0.878118
-0.852281
-0.837817
-0.834578
-0.842411
-0.861197
-0.890887
-0.931346
-0.982797
-2.38313
-2.20593
-2.04516
-1.89912
-1.76852
-1.65243
-1.55036
-1.46176
-1.38622
-1.3234
-1.27303
-1.23488
-1.20876
-1.19451
-1.19197
-1.20099
-1.22146
-1.25331
-1.2964
-1.35077
-2.80181
-2.62214
-2.45741
-2.30742
-2.17261
-2.05246
-1.94665
-1.85476
-1.77643
-1.71136
-1.65929
-1.62
-1.5933
-1.57901
-1.57697
-1.58704
-1.60909
-1.64302
-1.6887
-1.74612
-3.25302
-3.07013
-2.90122
-2.7469
-2.60763
-2.48321
-2.37346
-2.27807
-2.19676
-2.12927
-2.07534
-2.03479
-2.0074
-1.99301
-1.99145
-2.00258
-2.02627
-2.06238
-2.11077
-2.17141
-3.74295
-3.55532
-3.3815
-3.22224
-3.07807
-2.949
-2.83496
-2.73574
-2.65114
-2.58093
-2.5249
-2.48286
-2.45461
-2.43998
-2.43882
-2.45097
-2.47628
-2.51462
-2.56584
-2.62991
-4.27837
-4.08453
-3.9047
-3.73965
-3.58987
-3.45553
-3.33664
-3.23309
-3.14473
-3.07138
-3.01286
-2.96898
-2.93958
-2.92448
-2.92352
-2.93654
-2.96341
-3.00395
-3.05802
-3.12559
-4.86698
-4.66548
-4.47841
-4.30649
-4.1502
-4.00977
-3.8853
-3.77674
-3.684
-3.60694
-3.54541
-3.49924
-3.46827
-3.45233
-3.45128
-3.46494
-3.49317
-3.5358
-3.59267
-3.66377
-5.51892
-5.30819
-5.11247
-4.93239
-4.76845
-4.6209
-4.4899
-4.37546
-4.27752
-4.196
-4.13077
-4.08168
-4.04857
-4.0313
-4.02971
-4.04365
-4.07294
-4.11742
-4.17693
-4.25147
-6.24793
-6.02617
-5.82012
-5.63034
-5.45731
-5.30134
-5.16259
-5.04113
-4.93695
-4.84999
-4.78013
-4.72727
-4.69127
-4.67196
-4.66921
-4.68285
-4.71273
-4.75866
-4.82046
-4.89819
-7.07274
-6.83782
-6.61943
-6.41805
-6.23418
-6.06811
-5.92006
-5.79012
-5.67832
-5.58462
-5.50894
-5.45119
-5.41122
-5.38891
-5.38411
-5.39666
-5.42639
-5.47311
-5.53665
-5.61709
-8.01907
-7.76846
-7.53529
-7.31998
-7.12304
-6.94479
-6.78545
-6.64516
-6.52395
-6.42183
-6.33873
-6.27457
-6.22924
-6.2026
-6.1945
-6.20481
-6.23335
-6.27989
-6.34426
-6.42661
-9.12248
-8.85309
-8.60215
-8.37004
-8.15728
-7.96421
-7.79107
-7.63802
-7.50512
-7.39239
-7.29979
-7.22724
-7.17465
-7.14189
-7.12882
-7.1353
-7.16113
-7.20609
-7.26999
-7.35302
-10.4332
-10.1414
-9.86902
-9.61658
-9.3846
-9.17345
-8.98337
-8.81454
-8.66705
-8.54091
-8.43612
-8.3526
-8.29028
-8.24902
-8.2287
-8.22918
-8.25025
-8.29165
-8.35318
-8.43509
-12.025
-11.7063
-11.4082
-11.1312
-10.876
-10.6428
-10.432
-10.2437
-10.078
-9.935
-9.81465
-9.7169
-9.64168
-9.58886
-9.55833
-9.54994
-9.56349
-9.59868
-9.65529
-9.73358
-13.987
-13.6366
-13.3081
-13.0021
-12.7192
-12.4597
-12.224
-12.0122
-11.8244
-11.6607
-11.521
-11.4054
-11.3137
-11.2459
-11.2018
-11.1813
-11.1842
-11.2102
-11.2591
-11.3309
-16.3808
-15.9948
-15.6318
-15.2927
-14.9783
-14.6889
-14.4248
-14.1861
-13.9728
-13.7851
-13.6228
-13.4861
-13.3748
-13.289
-13.2284
-13.1929
-13.1825
-13.197
-13.2359
-13.2986
-19.5173
-19.0916
-18.6896
-18.314
-17.9651
-17.6429
-17.3475
-17.0788
-16.8367
-16.6214
-16.4328
-16.2709
-16.1356
-16.027
-15.9449
-15.8891
-15.8596
-15.8568
-15.8803
-15.9282
-24.8541
-24.3833
-23.9468
-23.5418
-23.166
-22.8184
-22.4987
-22.2066
-21.9423
-21.7056
-21.4966
-21.3153
-21.1619
-21.0364
-20.9389
-20.8695
-20.8289
-20.8194
-20.8423
-20.8874
-0.376967
-0.443412
-0.519501
-0.605151
-0.700278
-0.804776
-0.918515
-1.04133
-1.17302
-1.31329
-1.46178
-1.61797
-1.78105
-1.94981
-2.12258
-2.29709
-2.46887
-2.62811
-2.75944
-2.88926
-0.698417
-0.767141
-0.845871
-0.934494
-1.03291
-1.14098
-1.25857
-1.38548
-1.52148
-1.66626
-1.81941
-1.98037
-2.14838
-2.32227
-2.50042
-2.68118
-2.86279
-3.0375
-3.19013
-3.36243
-1.04494
-1.11751
-1.20046
-1.29366
-1.39697
-1.51027
-1.63337
-1.76608
-1.90812
-2.05917
-2.21881
-2.38646
-2.5614
-2.74257
-2.92864
-3.1184
-3.31089
-3.50173
-3.68521
-3.89125
-1.41634
-1.49277
-1.57999
-1.67785
-1.78622
-1.90494
-2.0338
-2.17259
-2.32102
-2.47875
-2.64533
-2.82022
-3.0027
-3.19188
-3.38667
-3.5862
-3.78968
-3.99479
-4.20203
-4.43178
-1.81521
-1.89566
-1.98735
-2.09013
-2.20384
-2.32831
-2.46333
-2.60865
-2.76397
-2.92894
-3.10312
-3.28597
-3.47685
-3.67497
-3.87953
-4.0899
-4.30548
-4.52522
-4.75177
-4.99828
-2.24434
-2.32908
-2.42557
-2.53365
-2.65314
-2.78386
-2.92557
-3.07802
-3.24091
-3.41387
-3.59648
-3.78823
-3.98855
-4.19677
-4.41229
-4.63468
-4.86355
-5.09869
-5.34285
-5.60387
-2.70687
-2.79613
-2.89775
-3.01151
-3.13722
-3.27468
-3.42365
-3.58388
-3.75505
-3.9368
-4.12874
-4.33038
-4.54122
-4.76072
-4.9884
-5.22396
-5.4672
-5.71833
-5.97957
-6.25535
-3.2066
-3.30075
-3.40779
-3.52757
-3.65991
-3.80461
-3.96141
-4.13006
-4.31024
-4.50161
-4.70378
-4.91633
-5.1388
-5.37073
-5.61175
-5.86165
-6.12032
-6.38809
-6.66655
-6.95814
-3.74909
-3.84814
-3.96081
-4.08691
-4.22625
-4.37863
-4.5438
-4.72148
-4.91139
-5.11318
-5.3265
-5.55095
-5.78612
-6.03163
-6.28717
-6.55256
-6.82773
-7.11298
-7.4093
-7.71808
-4.34105
-4.44505
-4.56356
-4.69615
-4.84279
-5.00323
-5.17723
-5.36451
-5.5648
-5.77776
-6.00307
-6.24035
-6.48925
-6.74943
-7.0206
-7.30261
-7.59537
-7.89907
-8.21425
-8.54172
-4.99188
-5.10077
-5.2249
-5.36421
-5.51829
-5.68704
-5.87022
-6.06754
-6.27874
-6.50351
-6.74154
-6.99249
-7.25603
-7.53185
-7.81969
-8.11938
-8.4308
-8.75399
-9.08919
-9.43689
-5.71448
-5.82797
-5.95763
-6.10328
-6.26484
-6.44194
-6.63443
-6.84205
-7.06451
-7.30153
-7.55284
-7.8181
-8.09703
-8.38931
-8.6947
-9.013
-9.34406
-9.68776
-10.0441
-10.4135
-6.52701
-6.64445
-6.77911
-6.93073
-7.09922
-7.28466
-7.48638
-7.70415
-7.9379
-8.18734
-8.45219
-8.73216
-9.02693
-9.33623
-9.6598
-9.99743
-10.3489
-10.714
-11.0925
-11.4848
-7.4553
-7.57561
-7.71432
-7.87112
-8.04582
-8.23838
-8.44961
-8.67674
-8.92142
-9.18298
-9.4612
-9.75581
-10.0665
-10.393
-10.7351
-11.0924
-11.4648
-11.8518
-12.2532
-12.6694
-8.53754
-8.65904
-8.80016
-8.96068
-9.14044
-9.33897
-9.55578
-9.79315
-10.0485
-10.3212
-10.612
-10.9207
-11.247
-11.5905
-11.9508
-12.3278
-12.721
-13.1301
-13.5546
-13.9949
-9.83368
-9.95381
-10.0949
-10.2568
-10.4395
-10.6425
-10.8654
-11.1082
-11.3711
-11.6546
-11.9573
-12.2794
-12.6204
-12.9798
-13.3571
-13.7525
-14.1657
-14.5962
-15.0433
-15.5073
-11.4252
-11.5409
-11.6791
-11.8398
-12.0226
-12.2273
-12.4537
-12.7015
-12.9706
-13.2612
-13.574
-13.9078
-14.2607
-14.6322
-15.0234
-15.4348
-15.866
-16.3161
-16.7842
-17.2701
-13.3831
-13.4911
-13.6234
-13.7794
-13.9582
-14.1599
-14.3848
-14.6327
-14.9034
-15.1964
-15.5109
-15.8473
-16.2071
-16.5911
-16.9974
-17.4247
-17.8726
-18.3408
-18.8282
-19.3339
-15.9984
-16.0904
-16.2064
-16.3478
-16.5161
-16.7105
-16.9301
-17.1746
-17.4436
-17.7368
-18.0535
-18.3934
-18.7568
-19.1442
-19.5555
-19.9901
-20.4478
-20.9292
-21.4343
-21.9582
-20.9291
-21.0015
-21.1048
-21.2367
-21.396
-21.5821
-21.7945
-22.0328
-22.2966
-22.5857
-22.8998
-23.2388
-23.6029
-23.9924
-24.4074
-24.8479
-25.3149
-25.8124
-26.3429
-26.8886
-27.4054
-22.4927
-19.8575
-17.7741
-15.9882
-14.4509
-13.1001
-11.8908
-10.7958
-9.79698
-8.88138
-8.03927
-7.26301
-6.54639
-5.88421
-5.27196
-4.70437
-4.17586
-3.69492
-3.29052
-27.95
-23.0435
-20.3967
-18.293
-16.4833
-14.9204
-13.5436
-12.3087
-11.1894
-10.1679
-9.23157
-8.37075
-7.57801
-6.84726
-6.17348
-5.55224
-4.97881
-4.45081
-3.98136
-3.57888
-28.5232
-23.6131
-20.9531
-18.8281
-16.9932
-15.4035
-13.9995
-12.7383
-11.5939
-10.5491
-9.59136
-8.71134
-7.9016
-7.15609
-6.46975
-5.83807
-5.25642
-4.72252
-4.24594
-3.82395
-29.1208
-24.2023
-21.5268
-19.3789
-17.5173
-15.8995
-14.4673
-13.1786
-12.0083
-10.9394
-9.95964
-9.05969
-8.23211
-7.47074
-6.77031
-6.12603
-5.53303
-4.98836
-4.49878
-4.05806
-29.7397
-24.8104
-22.117
-19.945
-18.0551
-16.4077
-14.9461
-13.6291
-12.4319
-11.3381
-10.3356
-9.41494
-8.56872
-7.79058
-7.07499
-6.41687
-5.81104
-5.25398
-4.7506
-4.29373
-30.3783
-25.4379
-22.722
-20.5252
-18.6057
-16.9274
-15.4353
-14.0888
-12.864
-11.7445
-10.7184
-9.77642
-8.91087
-8.11524
-7.38376
-6.71108
-6.09178
-5.52199
-5.00534
-4.53438
-31.0356
-26.0833
-23.3412
-21.1186
-19.1683
-17.4578
-15.934
-14.5572
-13.3038
-12.1579
-11.1076
-10.1436
-9.25823
-8.44464
-7.69687
-7.00933
-6.37645
-5.79413
-5.26489
-4.78125
-31.7102
-26.7446
-23.9746
-21.7244
-19.742
-17.998
-16.4415
-15.0334
-13.7506
-12.5776
-11.5025
-10.5162
-9.61048
-8.77863
-8.01436
-7.31188
-6.6655
-6.07093
-5.52969
-5.03428
-32.4008
-27.4204
-24.6212
-22.3417
-20.3259
-18.5473
-16.957
-15.5166
-14.2037
-13.003
-11.9027
-10.8935
-9.9673
-9.117
-8.33614
-7.61874
-6.95899
-6.35239
-5.79955
-5.29296
-33.106
-28.1094
-25.2802
-22.9697
-20.919
-19.1048
-17.4796
-16.0061
-14.6624
-13.4334
-12.3075
-11.2752
-10.3283
-9.45939
-8.66192
-7.92964
-7.25662
-6.63817
-6.07398
-5.55657
-33.8248
-28.8106
-25.9503
-23.6073
-21.5206
-19.6694
-18.0084
-16.5012
-15.126
-13.8683
-12.7164
-11.6607
-10.6929
-9.80536
-8.99126
-8.24415
-7.55793
-6.92771
-6.35232
-5.82432
-34.5559
-29.5228
-26.6305
-24.2536
-22.1294
-20.2404
-18.5427
-17.0008
-15.5937
-14.3068
-13.1286
-12.0494
-11.0606
-10.1544
-9.32364
-8.56173
-7.86236
-7.2204
-6.63386
-6.09541
-35.2982
-30.2449
-27.3196
-24.9073
-22.7445
-20.8166
-19.0814
-17.5043
-16.0647
-14.7483
-13.5436
-12.4406
-11.4307
-10.5058
-9.65847
-8.88176
-8.16926
-7.51556
-6.9179
-6.36909
-36.0508
-30.9758
-28.0164
-25.5674
-23.3649
-21.397
-19.6235
-18.0106
-16.5381
-15.1919
-13.9605
-12.8337
-11.8027
-10.8591
-9.99509
-9.20362
-8.47798
-7.81251
-7.20371
-6.64461
-36.8123
-31.7142
-28.7196
-26.2326
-23.9893
-21.9806
-20.1681
-18.5189
-17.0131
-15.6368
-14.3785
-13.2279
-12.1758
-11.2134
-10.3329
-9.52664
-8.78786
-8.11059
-7.49061
-6.9213
-37.5816
-32.4587
-29.428
-26.9018
-24.6166
-22.5664
-20.7142
-19.0281
-17.4887
-16.0823
-14.797
-13.6225
-12.5492
-11.5682
-10.6711
-9.85016
-9.09825
-8.40915
-7.77797
-7.1985
-38.3584
-33.2083
-30.1402
-27.5737
-25.2456
-23.153
-21.2606
-19.5373
-17.9641
-16.5273
-15.2151
-14.0168
-12.9224
-11.9227
-11.0091
-10.1735
-9.40851
-8.70754
-8.06514
-7.47562
-39.1439
-33.9624
-30.8548
-28.2467
-25.8749
-23.7392
-21.8062
-20.0454
-18.4382
-16.9711
-15.6319
-14.4098
-13.2944
-12.2763
-11.3463
-10.496
-9.71797
-9.00515
-8.35152
-7.75209
-39.9383
-34.7198
-31.5697
-28.919
-26.503
-24.3238
-22.3499
-20.5514
-18.9102
-17.4127
-16.0467
-14.8009
-13.6647
-12.6281
-11.6818
-10.8171
-10.026
-9.30138
-8.63656
-8.02739
-40.729
-35.4756
-32.2835
-29.5897
-27.1292
-24.9064
-22.8912
-21.0549
-19.3797
-17.8519
-16.4591
-15.1897
-14.0328
-12.9779
-12.0154
-11.1363
-10.3322
-9.59577
-8.9198
-8.30107
-6.77988
-4.67404
-3.31394
-2.26851
-1.53406
-0.99463
-0.607165
-0.332081
-0.141064
-0.0123729
0.0706129
0.120523
0.14694
0.157018
0.156072
0.147973
0.135534
0.120756
0.105048
0.0893772
0.0743872
0.0604887
0.0479182
0.0367954
0.0271418
0.0189375
0.0120889
0.00653105
0.00209388
-0.00125219
-0.00377011
-0.00535141
-0.00644385
-0.00663639
-0.00676525
-0.00583368
-0.00542216
-0.00349975
-0.00295441
3.81176e-05
-7.03555
-4.85641
-3.46019
-2.38367
-1.62511
-1.06826
-0.667231
-0.381702
-0.182442
-0.0471281
0.041279
0.0956894
0.125886
0.139168
0.14095
0.135186
0.124746
0.111681
0.0974411
0.0830239
0.0691035
0.0561159