/*--------------------------------*- C++ -*----------------------------------*\
  =========                 |
  \\      /  F ield         | OpenFOAM: The Open Source CFD Toolbox
   \\    /   O peration     | Website:  https://openfoam.org
    \\  /    A nd           | Version:  6.0
     \\/     M anipulation  |
\*---------------------------------------------------------------------------*/
FoamFile
{
    version     2.0;
    format      ascii;
    class       surfaceScalarField;
    location    "6.51";
    object      phi;
}
// * * * * * * * * * * * * * * * * * * * * * * * * * * * * * * * * * * * * * //

dimensions      [0 3 -1 0 0 0 0];

internalField   nonuniform List<scalar> 
4670
(
-0.000183743
-0.0215182
0.0217019
-0.000495015
-0.0164081
0.0167194
-0.000806315
-0.0125781
0.0128894
-0.00104739
-0.00971011
0.00995119
-0.00118357
-0.00755071
0.00768689
-0.00120435
-0.00590417
0.00592495
-0.00111624
-0.00462298
0.00453487
-0.000938209
-0.00359779
0.00341976
-0.000698689
-0.0027482
0.00250868
-0.00201611
0.00175044
-0.000433026
-0.000164575
-0.0213536
-0.000415314
-0.0161574
-0.000619753
-0.0123737
-0.00070683
-0.00962304
-0.000642415
-0.00761512
-0.000416708
-0.00612988
-3.72547e-05
-0.00500243
0.000474873
-0.00410992
0.00108697
-0.0033603
-0.00268557
0.00175644
-0.000138053
-0.0212155
-0.000303563
-0.0159918
-0.000363855
-0.0123134
-0.000249391
-0.0097375
7.27397e-05
-0.00793725
0.000612149
-0.00666929
0.0013617
-0.00575198
0.00230001
-0.00504823
0.0033913
-0.00445158
-0.00387911
0.00458484
-0.000102809
-0.0211127
-0.000159096
-0.0159356
-3.97581e-05
-0.0124327
0.000320026
-0.0100973
0.000950068
-0.0085673
0.00185931
-0.00757853
0.00304201
-0.00693469
0.00447876
-0.00648498
0.00613331
-0.00610613
-0.00569351
0.00794771
-5.75131e-05
-0.0210552
2.11244e-05
-0.0160142
0.000356567
-0.0127682
0.00100464
-0.0107454
0.00198868
-0.00955134
0.00331482
-0.00890466
0.00497839
-0.00859827
0.00696407
-0.00847065
0.0092394
-0.00838146
-0.00819711
0.011743
-6.68959e-08
-0.0210552
0.000242595
-0.0162569
0.000834109
-0.0133597
0.001816
-0.0117272
0.00320017
-0.0109355
0.00498538
-0.0106899
0.00716505
-0.0107779
0.0097282
-0.0110338
0.0126515
-0.0113047
-0.0114231
0.0158775
7.20792e-05
-0.0211272
0.000511841
-0.0166966
0.00140398
-0.0142518
0.00277009
-0.0130934
0.00460458
-0.01277
0.00689184
-0.0129771
0.0096161
-0.0135022
0.0127661
-0.0141838
0.0163307
-0.0148694
-0.015362
0.0202696
0.000161113
-0.0212883
0.000833614
-0.0173691
0.00207375
-0.0154919
0.00387838
-0.014898
0.00621869
-0.0151103
0.00905639
-0.0158148
0.0123548
-0.0168006
0.0160894
-0.0179185
0.0202569
-0.0190369
-0.0199688
0.0248637
0.000268046
-0.0215564
0.00120754
-0.0183086
0.00284039
-0.0171248
0.00513646
-0.017194
0.00804133
-0.0180152
0.0114886
-0.0192621
0.0154084
-0.0207204
0.0197393
-0.0222493
0.0244633
-0.0237609
-0.025211
0.0297056
0.000392682
-0.0219491
0.0016241
-0.01954
0.00368078
-0.0191815
0.00650732
-0.0200206
0.01003
-0.0215379
0.0141664
-0.0233985
0.0188271
-0.0253811
0.0239084
-0.0273306
0.0292943
-0.0291468
-0.0308532
0.0349365
0.0302928
0.00119622
-0.031489
0.0290908
0.00120193
0.0279102
0.00118067
0.0267764
0.00113375
0.025712
0.00106446
0.0247352
0.000976811
0.0238604
0.00087478
0.0230987
0.000761705
0.0224588
0.000639839
0.000509763
0.0404131
0.00373501
-0.0429519
0.0377527
0.00386239
0.035041
0.00389234
0.0323458
0.00382898
0.0297298
0.00368041
0.0272492
0.00345741
0.0249525
0.00317154
0.0228806
0.0028336
0.0210678
0.00245265
0.0020375
0.0493385
0.00692345
-0.052527
0.0458756
0.00732528
0.042231
0.00753696
0.0385003
0.00755965
0.0347783
0.00740248
0.0311547
0.00708097
0.0277123
0.00661395
0.0245258
0.0060201
0.0216626
0.00531588
0.00451858
0.0567124
0.0102781
-0.060067
0.0529298
0.0111079
0.0488158
0.011651
0.0444778
0.0118976
0.0400293
0.0118509
0.0355848
0.0115255
0.0312555
0.0109432
0.0271486
0.010127
0.0233687
0.00909577
0.00786671
0.0624758
0.0134821
-0.0656798
0.0587143
0.0148694
0.0544806
0.0158846
0.0498784
0.0164998
0.0450251
0.0167042
0.0400464
0.0165042
0.0350712
0.0159183
0.0302311
0.0149672
0.0256659
0.0136609
0.0119947
0.0667467
0.016353
-0.0696176
0.0632256
0.0183905
0.059119
0.0199912
0.0545144
0.0211045
0.0495192
0.0216994
0.044256
0.0217675
0.0388563
0.021318
0.0334605
0.020363
0.0282318
0.0188896
0.016828
0.0697304
0.0188104
-0.0721878
0.0665709
0.02155
0.0627491
0.023813
0.0583289
0.0255247
0.0533977
0.0266306
0.0480618
0.0271034
0.0424388
0.026941
0.0366557
0.0261461
0.0308721
0.0246732
0.022319
0.0716578
0.0208435
-0.0736909
0.0689077
0.0243
0.0654564
0.0272644
0.0613424
0.0296386
0.0566283
0.0313447
0.0513956
0.0323361
0.0457342
0.0326023
0.0397304
0.03215
0.033487
0.0309166
0.0284755
0.0727436
0.0224841
-0.0743842
0.0704006
0.026643
0.0673516
0.0303133
0.063613
0.0333772
0.0592232
0.0357346
0.0542384
0.0373209
0.048717
0.0381237
0.0426836
0.0381834
0.0360969
0.0375032
0.0354256
0.0731613
-0.0744656
0.0237884
0.0711899
0.0286144
0.0685357
0.0329675
0.0651992
0.0367137
0.061201
0.0397328
0.0565792
0.0419426
0.0513744
0.0433285
0.0455764
0.0439814
0.038982
0.0440976
0.0435543
0.0368972
-0.000322772
-0.0365744
0.0370173
-0.000120141
0.0369301
8.72022e-05
0.0366385
0.000291652
0.0361515
0.000486967
0.0354842
0.000667274
0.0346571
0.000827135
0.0336953
0.000961794
0.0326281
0.00106719
0.0011391
0.0512176
-0.00149528
-0.0500451
0.051963
-0.000865489
0.0522693
-0.000219101
0.0521308
0.000430096
0.0515514
0.00106639
0.0505457
0.001673
0.0491399
0.00223291
0.0473719
0.0027298
0.0452901
0.00314892
0.00347731
0.0593415
-0.00346474
-0.057372
0.0607954
-0.00231944
0.0617069
-0.00113054
0.062054
8.29263e-05
0.0618247
0.00129576
0.0610186
0.0024791
0.0596495
0.00360203
0.0577461
0.00463321
0.0553524
0.00554259
0.00630273
0.0633811
-0.00607395
-0.0607719
0.0654684
-0.00440677
0.0669926
-0.00265468
0.0679155
-0.000839961
0.0682075
0.00100375
0.0678502
0.00283637
0.0668387
0.00461355
0.0651833
0.00628859
0.0629112
0.0078147
0.00914687
0.0648609
-0.0091454
-0.0617895
0.0674479
-0.00699372
0.0694959
-0.0047027
0.0709534
-0.00229753
0.0717775
0.000179693
0.071935
0.00267884
0.0714046
0.00514401
0.0701778
0.00751535
0.0682616
0.00973096
0.0117286
0.0648511
-0.0125269
-0.0614696
0.0678045
-0.00994704
0.070259
-0.00715723
0.072153
-0.00419156
0.0734366
-0.00110393
0.0740695
0.00204596
0.0740202
0.00519332
0.0732667
0.00826886
0.0717981
0.0111995
0.0139092
0.0640614
-0.0161155
-0.0604728
0.0672778
-0.0131635
0.0700278
-0.0099072
0.0722451
-0.00640886
0.0738822
-0.002741
0.0749002
0.00102797
0.0752654
0.00482806
0.0749489
0.00858537
0.0739277
0.0122208
0.0156491
0.0629449
-0.0198744
-0.0591859
0.0663541
-0.0165727
0.0693018
-0.0128549
0.0717315
-0.0088386
0.0736096
-0.00461913
0.0749069
-0.000269273
0.0755934
0.00414154
0.0756386
0.00854017
0.0750129
0.0128465
0.0169711
0.0618093
-0.0238265
-0.0578573
0.0653399
-0.0201033
0.0683849
-0.0158999
0.0709204
-0.0113741
0.0729352
-0.0066339
0.0744118
-0.00174588
0.0753256
0.00322775
0.0756469
0.00821882
0.0753437
0.0131497
0.0179306
0.0608483
-0.0567802
-0.0278946
0.0644
-0.023655
0.067424
-0.0189239
0.06997
-0.0139201
0.0720374
-0.00870132
0.0736128
-0.00332123
0.0746733
0.00216719
0.0751905
0.00770163
0.0751324
0.0132078
0.0185974
0.0424464
0.0137402
-0.00845489
-0.0477317
0.0370754
0.0144897
-0.00911876
0.0316199
0.0153775
-0.00992196
0.0260963
0.0164494
-0.0109259
0.0205485
0.0177624
-0.0122146
0.0150707
0.0193639
-0.0138861
0.00984348
0.0212543
-0.0160271
0.00518575
0.0233119
-0.0186541
0.00162617
0.0251614
-0.0216018
0.025956
-0.0243298
0.0422052
0.0189979
-0.0474629
0.0368605
0.0198345
0.0314307
0.0208073
0.0259325
0.0219476
0.02041
0.0232849
0.0149583
0.0248156
0.00975927
0.0264533
0.00513296
0.0279382
0.00160582
0.0286886
0.0275618
0.0415928
0.0241979
-0.0467929
0.0363055
0.0251218
0.0309347
0.0261781
0.0254983
0.027384
0.0200421
0.0287411
0.0146629
0.0301948
0.00954359
0.0315726
0.00500257
0.0324792
0.0015566
0.0321345
0.0291184
0.0406124
0.0293126
-0.0457271
0.0354121
0.0303222
0.0301326
0.0314576
0.0247943
0.0327223
0.0194454
0.03409
0.0141852
0.0354551
0.00919745
0.0365604
0.00479609
0.0368806
0.00148035
0.0354503
0.0305988
0.0392665
0.0343165
-0.0442705
0.0341814
0.0354073
0.0290253
0.0366137
0.0238213
0.0379262
0.0186211
0.0392902
0.0135269
0.0405493
0.00872297
0.0413643
0.00451556
0.041088
0.00137831
0.0385875
0.0319771
0.0375544
0.0391859
-0.0424238
0.0326124
0.0403493
0.0276121
0.041614
0.0225799
0.0429583
0.0175709
0.0442992
0.0126908
0.0454294
0.00812336
0.0459318
0.00416378
0.0450476
0.00125192
0.0414994
0.033229
0.0354682
0.0438963
-0.0401786
0.0306993
0.0451182
0.0258904
0.0464229
0.0210703
0.0477785
0.0162975
0.049072
0.0116811
0.0500458
0.00740338
0.0502095
0.00374473
0.0487062
0.00110314
0.044141
0.0343321
0.0329884
0.0484153
-0.0375074
0.0284301
0.0496765
0.023856
0.050997
0.0192935
0.052341
0.0148054
0.0535601
0.0105044
0.0543468
0.00656998
0.0541439
0.00326399
0.0520122
0.00093462
0.0464703
0.0352668
0.0300681
0.0527049
-0.0343577
0.0257837
0.0539609
0.021506
0.0552747
0.0172553
0.0565917
0.013104
0.0577114
0.00917149
0.0582793
0.00563352
0.0576819
0.00272951
0.0549162
0.000750286
0.0484496
0.0360171
0.0266558
-0.0307311
0.0227595
0.0188482
0.0149671
0.0112089
0.00769871
0.0046087
0.00215287
0.000557342
0.0249589
-0.0356164
0.0399041
-0.0292466
0.0209501
-0.0354247
0.0394335
0.0170792
-0.034904
0.0387749
0.0133699
-0.0338809
0.0375902
0.00989687
-0.0320312
0.0355042
0.00675845
-0.0288798
0.0320182
0.00407113
-0.0237756
0.0264629
0.00196022
-0.0158709
0.0179818
0.000553897
-0.00411433
0.00552065
0.0128113
-0.0122574
0.028359
-0.0312729
-0.0327025
0.0240635
-0.0311293
0.0198495
-0.0306899
0.0157575
-0.0297889
0.0118608
-0.0281344
0.00826266
-0.0252817
0.00509589
-0.0206088
0.0025228
-0.0132978
0.000739096
-0.00233062
0.0135504
0.0313431
-0.0267778
-0.0358382
0.0268238
-0.0266099
0.022332
-0.0261982
0.0179183
-0.0253751
0.0136559
-0.023872
0.00965133
-0.0212771
0.00605156
-0.017009
0.00305261
-0.0102988
0.000914382
-0.000192399
0.0144648
0.0339445
-0.022116
-0.0386064
0.0292346
-0.0219
0.0245145
-0.0214781
0.0198322
-0.0206928
0.0152586
-0.0192985
0.0109018
-0.0169203
0.00691989
-0.0130271
0.00353849
-0.00691743
0.00107675
0.00226934
0.0155415
0.0362031
-0.0172961
-0.041023
0.0313222
-0.0170191
0.0264064
-0.0165623
0.0214967
-0.0157831
0.0166594
-0.0144612
0.0120015
-0.0122624
0.0076888
-0.00871446
0.00397195
-0.00320058
0.00122277
0.00501851
0.0167643
0.0381258
-0.0123338
-0.0430881
0.0330943
-0.0119877
0.0280113
-0.0114793
0.0229106
-0.0106823
0.0178528
-0.0094034
0.0129421
-0.0073517
0.00834978
-0.00412212
0.00434651
0.000802695
0.00134961
0.00801541
0.0181139
0.0397074
-0.00725035
-0.0447908
0.0345495
-0.00682971
0.0293282
-0.00625804
0.0240714
-0.00542555
0.0188342
-0.0041662
0.0137177
-0.00223523
0.00889644
0.000699161
0.00465719
0.00504195
0.00145499
0.0112176
0.0195689
0.0409391
-0.00207151
-0.0461179
0.0356819
-0.00157251
0.0303529
-0.000929054
0.0249752
-4.78578e-05
0.0195992
0.00120977
0.0143232
0.00304076
0.00932377
0.00569861
0.0049001
0.00946561
0.00153716
0.0145806
0.021106
0.0418114
0.00317392
-0.0470569
0.0364848
0.00375416
0.0310803
0.00447543
0.0256176
0.00541483
0.0201436
0.00668373
0.0147544
0.00843002
0.00962783
0.0108252
0.00507243
0.014021
0.00159498
0.018058
0.022701
0.0423168
-0.0475978
0.0369522
0.0315057
0.0259946
0.0204638
0.0150077
0.00980578
0.00517266
0.00162882
0.0440719
0.0217102
-0.0258779
0.0476019
0.0178087
-0.0213387
0.0505487
0.0134112
-0.0163579
0.0529618
0.00869029
-0.0111035
0.0548306
0.00378965
-0.00565839
0.0561272
-0.00119186
-0.000104792
0.0568141
-0.00615459
0.0054677
0.0568505
-0.0109876
0.0109512
0.056199
-0.0155689
0.0162204
-0.0197675
0.0548319
0.0211346
0.0433264
0.0178173
0.0467683
0.0143667
0.049667
0.0105125
0.0519861
0.00637114
0.0537053
0.0020705
0.0547962
-0.00228277
0.0552248
-0.00658325
0.0549575
-0.0107203
0.0539672
-0.0145786
-0.0180407
0.0522405
0.0423937
0.0141985
0.0456196
0.0111408
0.0483245
0.00780767
0.0504359
0.00425978
0.0519109
0.000595503
0.052714
-0.00308588
0.0528138
-0.00668311
0.0521862
-0.0100927
0.050819
-0.0132114
-0.0159404
0.0487186
0.0409413
0.0108473
0.043869
0.00821316
0.0462694
0.00540731
0.0480636
0.00246558
0.0491981
-0.000538987
0.0496346
-0.0035224
0.0493476
-0.00639611
0.0483258
-0.00907095
0.0465761
-0.0114616
-0.0134917
0.0441274
0.038544
0.00780748
0.0411062
0.00565093
0.0431155
0.00339809
0.0445037
0.00107734
0.0452215
-0.0012568
0.0452373
-0.00353818
0.0445374
-0.00569621
0.0431278
-0.00766129
0.0410361
-0.00936996
-0.0107696
0.0383139
0.0346693
0.00515645
0.0367969
0.00352328
0.0383483
0.0018467
0.0392741
0.000151544
0.0395397
-0.00152238
0.0391286
-0.00312712
0.0380446
-0.00461224
0.0363131
-0.00592977
0.0339817
-0.00703856
-0.00790793
0.0311201
0.0286361
0.00298329
0.030269
0.00189038
0.031328
0.000787647
0.0317853
-0.000305794
0.0316266
-0.0013636
0.0308548
-0.0023553
0.0294925
-0.00325
0.0275826
-0.00401984
0.025187
-0.00464301
-0.00510588
0.022385
0.0195975
0.00136762
0.0207061
0.000781723
0.021292
0.000201753
0.0213479
-0.000361653
0.0208789
-0.000894684
0.0199057
-0.00138205
0.0184648
-0.00180907
0.0166084
-0.00216349
0.0144025
-0.00243709
-0.00262679
0.0119234
0.00652533
0.000362941
0.007131
0.000176056
0.00733661
-3.85415e-06
0.00714963
-0.000174676
0.00658721
-0.000332268
0.00567732
-0.000472154
0.00445858
-0.000590336
0.00297895
-0.00068386
0.00129322
-0.000751357
-0.000794095
-0.00053948
-0.0118944
-0.0117184
-0.0117222
-0.0118969
-0.0122292
-0.0127013
-0.0132917
-0.0139755
-0.0147269
-0.015521
0.0527402
-0.0234677
0.0255594
0.0499375
-0.0265097
0.0293124
0.0464703
-0.0288159
0.0322831
0.0424177
-0.0303331
0.0343856
0.0378847
-0.0310643
0.0355974
0.0329847
-0.0310721
0.0359721
0.0278089
-0.0304578
0.0356336
0.0223735
-0.0292996
0.034735
0.0165572
-0.0274674
0.0332836
-0.0240214
0.0098396
0.030739
0.0497863
-0.0210135
0.04664
-0.0233634
0.0428698
-0.0250457
0.0385733
-0.0260366
0.0338677
-0.0263587
0.0288703
-0.0260747
0.0236705
-0.025258
0.0182999
-0.023929
0.0127573
-0.0219247
-0.0186393
0.00737516
0.0459164
-0.0182113
0.0424722
-0.0199192
0.0384755
-0.021049
0.0340396
-0.0216007
0.0292903
-0.0216094
0.0243484
-0.0211328
0.0193126
-0.0202222
0.0142579
-0.0188743
0.00929769
-0.0169644
-0.0141845
0.00484286
0.0410344
-0.0151182
0.0373796
-0.0162644
0.0332694
-0.0169387
0.0288265
-0.0171578
0.0241787
-0.0169617
0.0194463
-0.0164003
0.0147337
-0.0155097
0.0101414
-0.0142821
0.00581799
-0.012641
-0.0104532
0.00208678
0.0350354
-0.0118398
0.0313004
-0.0125294
0.0272236
-0.012862
0.0229283
-0.0128625
0.0185363
-0.0125696
0.0141592
-0.0120232
0.00989764
-0.0112481
0.00585399
-0.0102384
0.00216612
-0.0089531
-0.00734516
-0.000941956
0.0278146
-0.00853429
0.0241726
-0.00888735
0.0203068
-0.00899619
0.0163309
-0.00888663
0.0123518
-0.00859056
0.00846547
-0.00813684
0.0047586
-0.00754127
0.00131993
-0.00679972
-0.00174128
-0.0058919
-0.00480575
-0.00428069
0.0192639
-0.00541324
0.0159273
-0.00555075
0.0124749
-0.00554376
0.00900143
-0.00541315
0.00559208
-0.0051812
0.00232117
-0.00486593
-0.000744349
-0.00447575
-0.00353672
-0.00400735
-0.00597819
-0.00345043
-0.00280346
-0.00798049
0.00924716
-0.002737
0.00646161
-0.00276521
0.00364395
-0.0027261
0.000863582
-0.00263279
-0.00182009
-0.00249754
-0.0043568
-0.00232921
-0.00670155
-0.002131
-0.00880884
-0.00190007
-0.0106283
-0.00163093
-0.00132393
-0.0121079
-0.0024654
-0.000811077
-0.00442361
-0.000807002
-0.00636539
-0.000784313
-0.00824963
-0.000748544
-0.0100434
-0.000703816
-0.0117198
-0.000652719
-0.0132551
-0.000595742
-0.014624
-0.000531213
-0.0157981
-0.000456797
-0.000373691
-0.0167483
-0.0163321
-0.0171391
-0.0179234
-0.0186719
-0.0193757
-0.0200285
-0.0206242
-0.0211554
-0.0216122
-0.0219859
0.000269686
-0.0222556
0.000979213
-0.0174578
0.00209114
-0.0132198
0.00359613
-0.00948547
0.00549286
-0.00617742
0.00777681
-0.0032259
0.0104328
-0.000569247
0.013424
0.00185174
0.0166954
0.00410376
0.00628066
0.0202543
0.000177944
-0.0224335
0.000652823
-0.0179327
0.00140933
-0.0139763
0.0024457
-0.0105218
0.00376193
-0.00749366
0.0053544
-0.00481837
0.00721598
-0.00243083
0.00934428
-0.000276562
0.011774
0.001674
0.00338403
0.0146707
9.09417e-05
-0.0225245
0.000354283
-0.0181961
0.000798164
-0.0144202
0.00143496
-0.0111586
0.00227681
-0.00833551
0.00333512
-0.00587668
0.00462384
-0.00371955
0.00616623
-0.00181895
0.00800175
-0.000161511
0.0012111
0.0101747
1.424e-05
-0.0225387
9.5368e-05
-0.0182772
0.000275942
-0.0146008
0.0005835
-0.0114662
0.00104181
-0.00879381
0.00167263
-0.0065075
0.00249856
-0.00454548
0.00354504
-0.00286544
0.00483627
-0.00145275
-0.00032568
0.00637306
-5.05054e-05
-0.0224882
-0.000119936
-0.0182078
-0.000152854
-0.0145678
-0.000108553
-0.0115105
4.44966e-05
-0.00894686
0.000331776
-0.00679478
0.000774868
-0.00498857
0.0013914
-0.00348197
0.00218976
-0.0022511
-0.00129272
0.0031568
-0.000102892
-0.0223853
-0.000290802
-0.0180199
-0.000488417
-0.0143702
-0.000644922
-0.011354
-0.000724859
-0.00886693
-0.000703615
-0.00681603
-0.000564895
-0.00512729
-0.000300433
-0.00374643
8.6967e-05
-0.0026385
-0.00178413
0.000578378
-0.000142801
-0.0222425
-0.000417141
-0.0177455
-0.000731296
-0.0140561
-0.00102721
-0.0110581
-0.00126817
-0.00862597
-0.00143263
-0.00665156
-0.00151055
-0.00504937
-0.00150168
-0.00375531
-0.00141606
-0.00272411
-0.0019249
-0.00127529
-0.000170131
-0.0220724
-0.000498957
-0.0174167
-0.000881673
-0.0136734
-0.00125512
-0.0106846
-0.00158271
-0.00829838
-0.00184652
-0.00638775
-0.00204226
-0.00485363
-0.00217609
-0.00362147
-0.00226324
-0.00263697
-0.001861
-0.00232714
-0.000184732
-0.0218877
-0.000536624
-0.0170648
-0.00094058
-0.0132694
-0.00132961
-0.0102956
-0.0016677
-0.00796029
-0.00194018
-0.00611527
-0.00214755
-0.00464627
-0.00230115
-0.00346787
-0.00242061
-0.0025175
-0.00174976
-0.00253186
-0.000185739
-0.000531172
-0.00091117
-0.00125557
-0.00152897
-0.0017193
-0.00183069
-0.0018788
-0.00188762
-0.00188693
0.000359131
0.000472276
-0.00126443
0.00397079
0.00107924
-0.0046909
0.00894841
-0.00173468
-0.00324294
0.014849
-0.0112433
0.00534268
0.0211685
-0.0263906
0.0200711
0.0273305
-0.0435853
0.0374234
0.0330268
-0.0582489
0.0525525
0.0382729
-0.0660183
0.0607722
0.0433999
-0.0644723
0.0593452
0.0487422
-0.0534332
0.0480909
0.054304
-0.0353768
0.0298149
0.0596826
-0.0150623
0.0096838
0.0643206
0.00230585
-0.00694388
0.0678217
0.013452
-0.016953
0.0700942
0.0181025
-0.020375
0.0712992
0.0179418
-0.0191468
0.0717184
0.0154516
-0.0158708
0.0716197
0.0118655
-0.0117669
0.0712203
0.00925679
-0.00885735
0.00541592
-0.00480379
0.00328166
-0.00105294
0.00730387
-0.00294297
0.0125186
-0.00694937
0.0184067
-0.0171315
0.0244765
-0.0324603
0.0302043
-0.0493131
0.0353535
-0.0633981
0.0400098
-0.0706747
0.0445537
-0.0690162
0.0493727
-0.0582522
0.0545291
-0.0405331
0.05965
-0.0201833
0.0641611
-0.00220518
0.0676212
0.00999179
0.0698977
0.0158261
0.0711267
0.0167127
0.0715792
0.014999
0.0715191
0.0119257
0.0711628
0.00961312
0.00598234
0.00694696
-0.00341506
0.0113165
-0.00731248
0.0166508
-0.0122837
0.022372
-0.0228527
0.0280383
-0.0381267
0.0332119
-0.0544866
0.0377383
-0.0679244
0.0417664
-0.0747028
0.0457052
-0.072955
0.0499744
-0.0625214
0.0546859
-0.0452447
0.0595052
-0.0250025
0.0638547
-0.00655467
0.0672575
0.00658894
0.0695402
0.0135434
0.0708105
0.0154424
0.0713237
0.0144858
0.0713364
0.011913
0.0710624
0.00988711
0.00645958
0.0111941
-0.00666142
0.0158116
-0.01193
0.0211182
-0.0175903
0.0265149
-0.0282494
0.0316394
-0.0432512
0.0361638
-0.059011
0.040021
-0.0717817
0.0434126
-0.0780944
0.0467556
-0.076298
0.0504798
-0.0662456
0.0547347
-0.0494995
0.0592286
-0.0294964
0.0633941
-0.0107202
0.0667292
0.00325385
0.0690228
0.0112498
0.0703521
0.0141131
0.0709533
0.0138846
0.0710727
0.0117936
0.0709198
0.01004
0.00680474
0.0158516
-0.01077
0.0205815
-0.0166599
0.0256851
-0.022694
0.0306022
-0.0331665
0.0350679
-0.0477168
0.0388772
-0.0628203
0.0420487
-0.0749531
0.0448232
-0.0808689
0.047607
-0.0790817
0.0508183
-0.0694569
0.0546308
-0.053312
0.0587962
-0.0336618
0.062769
-0.014693
0.0660334
-1.05687e-05
0.0683461
0.00893713
0.0697532
0.012706
0.0704698
0.0131681
0.0707295
0.0115338
0.0707357
0.0100338
0.00697568
0.0207382
-0.0156307
0.0254111
-0.0213328
0.0301172
-0.0274
0.0344096
-0.0374589
0.0381276
-0.0514348
0.0411881
-0.0658808
0.0436861
-0.0774512
0.0458872
-0.08307
0.0481698
-0.0813644
0.0509229
-0.0722101
0.0543296
-0.0567187
0.058183
-0.0375152
0.0619685
-0.0184785
0.0651675
-0.00320959
0.0675111
0.00659352
0.0690164
0.0112007
0.0698757
0.0123088
0.0703086
0.0111009
0.0705112
0.00983122
0.00693133
0.0256501
-0.0210112
0.0300682
-0.0257509
0.0341822
-0.031514
0.0377283
-0.0410051
0.0406447
-0.0543512
0.0429562
-0.0681922
0.0448201
-0.0793151
0.0465114
-0.0847613
0.0483678
-0.0832207
0.0507341
-0.0745764
0.0537899
-0.0597745
0.057365
-0.0410903
0.0609815
-0.022095
0.0641286
-0.00635675
0.0665194
0.00420276
0.0681445
0.0095755
0.069174
0.0112793
0.0698123
0.0104626
0.0702474
0.00939613
0.0066319
0.0303545
-0.0265019
0.0342932
-0.0296896
0.0376486
-0.0348694
0.040367
-0.0437235
0.0424697
-0.0564539
0.0440669
-0.0697894
0.0453611
-0.0806094
0.046623
-0.0860232
0.0481401
-0.0847378
0.0502028
-0.0766391
0.052976
-0.0625477
0.0563205
-0.0444347
0.0597982
-0.0255727
0.0629149
-0.00947344
0.0653731
0.00174462
0.0671413
0.00780724
0.0683683
0.0100524
0.0692434
0.00958746
0.0699459
0.00869365
0.00603911
0.0346961
-0.0314924
0.0378637
-0.0328572
0.0403248
-0.0373306
0.0421823
-0.045581
0.0435063
-0.0577779
0.0444583
-0.0707414
0.0452679
-0.081419
0.0461903
-0.0869455
0.0474582
-0.0860057
0.0493028
-0.0784837
0.0518668
-0.0651118
0.0550358
-0.0476037
0.058413
-0.0289499
0.0615264
-0.0125869
0.0640755
-0.000804429
0.0660112
0.00587154
0.0674628
0.00860081
0.068605
0.00844524
0.0696083
0.00769037
0.00511644
0.0387433
-0.0352992
0.040716
-0.0348299
0.0421247
-0.0387393
0.0431301
-0.0465864
0.0437464
-0.0583942
0.04415
-0.071145
0.0445725
-0.0818415
0.0452439
-0.087617
0.0463433
-0.0871051
0.0480448
-0.0801852
0.0504662
-0.0675331
0.053513
-0.0506506
0.0568284
-0.0322652
0.0599675
-0.015726
0.062632
-0.0034689
0.0647596
0.00374395
0.0664622
0.00689821
0.0679006
0.00700676
0.0692364
0.00635462
0.00382927
0.121736
-0.0281788
-0.128856
0.119329
-0.0324232
0.119261
-0.0386708
0.120043
-0.0473687
0.120425
-0.0587761
0.119918
-0.0706378
0.11843
-0.0803533
0.116301
-0.0854887
0.11411
-0.0849138
0.112568
-0.0786428
0.112314
-0.0672798
0.113591
-0.051927
0.116048
-0.0347219
0.118948
-0.0186263
0.121598
-0.00611886
0.123622
0.00171996
0.124983
0.00553667
0.125803
0.00618677
0.126294
0.00586405
0.00361122
0.169497
-0.0188825
-0.178793
0.163187
-0.0261134
0.159585
-0.0350685
0.157323
-0.0451062
0.15504
-0.0564935
0.152153
-0.0677508
0.148523
-0.0767237
0.144458
-0.0814232
0.140511
-0.080967
0.137379
-0.0755104
0.135723
-0.0656237
0.135861
-0.0520656
0.137522
-0.0363824
0.139972
-0.0210762
0.142441
-0.00858816
0.144446
-0.000285313
0.145861
0.0041219
0.146748
0.00529978
0.147299
0.0053128
0.00335705
0.220656
-0.00932648
-0.230212
0.213133
-0.0185907
0.206997
-0.0289327
0.201823
-0.0399319
0.196677
-0.0513472
0.19106
-0.0621342
0.184899
-0.0705632
0.178524
-0.0750479
0.172488
-0.0749312
0.167455
-0.0704773
0.16407
-0.0622387
0.162711
-0.0507068
0.163215
-0.0368858
0.164908
-0.0227699
0.166983
-0.0106625
0.168845
-0.00214782
0.170255
0.00271179
0.171189
0.00436591
0.171799
0.00470274
0.00306355
0.271499
-0.00153622
-0.279289
0.264626
-0.0117174
0.257729
-0.0220363
0.250776
-0.0329784
0.243429
-0.0440004
0.235448
-0.0541536
0.226929
-0.0620433
0.218297
-0.066416
0.210154
-0.0667888
0.203147
-0.0634699
0.197883
-0.0569748
0.194781
-0.0476046
0.193813
-0.0359185
0.194441
-0.023397
0.195876
-0.0120981
0.197441
-0.00371267
0.198767
0.00138606
0.199716
0.00341693
0.200377
0.00404103
0.00272855
0.320027
0.00348526
-0.325049
0.314675
-0.00636549
0.30846
-0.0158215
0.301177
-0.0256951
0.292833
-0.0356562
0.283471
-0.0447919
0.273359
-0.0519316
0.263039
-0.0560957
0.253187
-0.0569371
0.244463
-0.0547452
0.237442
-0.0499539
0.232567
-0.0427297
0.229961
-0.033313
0.229282
-0.022718
0.229851
-0.0126662
0.230951
-0.00481317
0.232096
0.000241235
0.233016
0.0024968
0.233716
0.00334126
0.00235205
0.367466
0.00577176
-0.369752
0.363736
-0.00263605
0.358697
-0.0107816
0.352029
-0.0190274
0.343738
-0.0273654
0.334027
-0.0350813
0.323283
-0.0411877
0.312108
-0.0449202
0.30122
-0.0460495
0.291294
-0.0448189
0.282885
-0.0415452
0.276449
-0.0362933
0.272246
-0.0291098
0.270164
-0.0206361
0.269706
-0.0122083
0.270194
-0.0053015
0.271057
-0.000621375
0.271895
0.00165907
0.272612
0.00262397
0.0019371
0.416912
0.00597583
-0.417116
0.414623
-0.000347914
0.410676
-0.0068346
0.404904
-0.0132555
0.397214
-0.0196749
0.387808
-0.0256749
0.377127
-0.0305068
0.365788
-0.0335815
0.354494
-0.0347558
0.3439
-0.0342249
0.334543
-0.0321882
0.326884
-0.0286343
0.32129
-0.0235151
0.317862
-0.0172085
0.316323
-0.0106691
0.316099
-0.00507758
0.31659
-0.00111212
0.317289
0.000960243
0.317998
0.00191504
0.00149005
0.471813
0.00479066
-0.470628
0.470785
0.000680535
0.467793
-0.00384294
0.462856
-0.00831812
0.455892
-0.012711
0.44704
-0.0168233
0.43673
-0.0201967
0.425572
-0.0224227
0.414223
-0.0234072
0.403289
-0.0232906
0.393283
-0.0221823
0.384679
-0.0200303
0.377921
-0.0167579
0.373283
-0.0125704
0.370692
-0.00807764
0.369714
-0.00409936
0.369771
-0.00116917
0.370283
0.000448244
0.370958
0.00123982
0.00101869
0.536071
0.00270468
-0.533985
0.536067
0.000684531
0.533899
-0.00167494
0.529615
-0.00403402
0.52322
-0.0063165
0.514838
-0.00844122
0.50485
-0.0102083
0.493837
-0.0114098
0.482421
-0.011991
0.471156
-0.012026
0.460537
-0.0115635
0.451064
-0.0105571
0.443255
-0.00894885
0.437513
-0.00682834
0.433932
-0.00449641
0.432211
-0.00237893
0.431819
-0.000776382
0.432124
0.000142974
0.432754
0.000609811
0.000526387
0.61506
-0.612355
0.615744
0.614069
0.610035
0.603719
0.595277
0.585069
0.573659
0.561668
0.549642
0.538079
0.527522
0.518573
0.511745
0.507248
0.504869
0.504093
0.504236
0.504846
0.168832
0.0227294
-0.167773
0.169125
0.0283212
0.168471
0.0336215
0.166684
0.038501
0.163593
0.042823
0.159081
0.0464548
0.153123
0.0492868
0.145846
0.0512586
0.137603
0.0523402
0.0523011
0.193106
0.0206818
-0.191059
0.194858
0.0265696
0.19617
0.0323096
0.196874
0.0377964
0.196788
0.0429092
0.195725
0.0475179
0.193515
0.0514964
0.190029
0.0547453
0.185131
0.0572381
0.0586384
0.218799
0.0180969
-0.216214
0.221515
0.0238536
0.224273
0.0295521
0.226946
0.0351237
0.229366
0.0404886
0.231327
0.0455567
0.232594
0.0502296
0.232939
0.0544008
0.232183
0.0579936
0.0606101
0.247231
0.015388
-0.244522
0.250344
0.0207406
0.253823
0.0260735
0.257604
0.0313427
0.261595
0.0364973
0.265673
0.0414781
0.269686
0.046217
0.27345
0.050637
0.276766
0.0546773
0.0580869
0.279432
0.0127051
-0.276749
0.282692
0.0174798
0.286525
0.0222413
0.290909
0.0269578
0.295812
0.0315946
0.301176
0.0361144
0.306916
0.0404765
0.312917
0.0446361
0.319045
0.0485494
0.0520835
0.316174
0.0100828
-0.313552
0.319504
0.0141505
0.32354
0.0182048
0.328278
0.0222199
0.333703
0.0261696
0.339791
0.0300267
0.346504
0.0337632
0.35379
0.0373498
0.361584
0.0407563
0.0439146
0.35836
0.00753429
-0.355812
0.361732
0.0107788
0.365927
0.0140102
0.370939
0.0172075
0.376759
0.0203496
0.38337
0.0234155
0.39075
0.026384
0.398865
0.0292341
0.407677
0.0319445
0.0344759
0.407417
0.00504746
-0.40493
0.410844
0.00735095
0.415211
0.00964407
0.420507
0.0119113
0.426719
0.0141372
0.433829
0.0163061
0.44181
0.018403
0.450631
0.0204127
0.460255
0.0223205
0.0241028
0.465529
0.00257207
-0.463054
0.469076
0.00380419
0.473689
0.005031
0.479357
0.00624377
0.48606
0.00743378
0.493774
0.00859234
0.502466
0.00971092
0.512098
0.0107812
0.522623
0.011795
0.0127409
0.536222
-0.53365
0.540026
0.545057
0.551301
0.558735
0.567327
0.577038
0.587819
0.599614
0.14413
-0.030267
-0.141758
0.147015
-0.0265398
0.150012
-0.0219208
0.153025
-0.0169336
0.155983
-0.0116588
0.158841
-0.00617916
0.161539
-0.000530809
0.163996
0.00524444
0.166114
0.0110902
0.0169385
0.171624
-0.0319582
-0.169933
0.173476
-0.0283915
0.175436
-0.0238804
0.177503
-0.019001
0.179661
-0.0138166
0.181897
-0.0084148
0.184195
-0.0028288
0.186524
0.00291544
0.188834
0.00877935
0.0147143
0.203014
-0.0324345
-0.202538
0.203681
-0.0290583
0.204483
-0.0246829
0.205457
-0.0199748
0.206646
-0.015006
0.20807
-0.00983793
0.209738
-0.00449715
0.211657
0.000996219
0.213822
0.0066143
0.0123221
0.238125
-0.0315975
-0.238961
0.237473
-0.0284066
0.23709
-0.0243
0.237009
-0.0198938
0.237275
-0.0152719
0.237914
-0.0104769
0.238943
-0.00552689
0.24038
-0.000440811
0.242238
0.00475686
0.010038
0.276875
-0.0294433
-0.279029
0.274945
-0.026477
0.273424
-0.0227785
0.272354
-0.0188237
0.271767
-0.0146851
0.271685
-0.010395
0.272126
-0.00596801
0.273107
-0.00142204
0.274644
0.00322009
0.0079333
0.319835
-0.025991
-0.323288
0.31672
-0.0233616
0.314137
-0.0201955
0.312136
-0.0168228
0.310744
-0.0132929
0.309979
-0.00963043
0.309861
-0.00584996
0.310408
-0.0019683
0.311634
0.00199405
0.00601492
0.368047
-0.0212771
-0.37276
0.363811
-0.0191256
0.36022
-0.0166053
0.357324
-0.0139265
0.35515
-0.0111185
0.353719
-0.00819963
0.353052
-0.00518349
0.353169
-0.00208514
0.354085
0.0010782
0.00428806
0.422954
-0.0153509
-0.428881
0.417641
-0.0138123
0.413076
-0.0120406
0.409307
-0.0101568
0.406365
-0.00817708
0.404279
-0.00611375
0.403074
-0.00397781
0.40277
-0.00178103
0.403384
0.000463671
0.00274251
0.48673
-0.00825045
-0.493831
0.480357
-0.00743909
0.474826
-0.00650968
0.470188
-0.00551864
0.466484
-0.00447311
0.46375
-0.00337963
0.462017
-0.00224458
0.46131
-0.00107471
0.461651
0.000122693
0.00133986
0.562827
-0.571077
0.555388
0.548878
0.543359
0.538886
0.535507
0.533262
0.532187
0.53231
0.126776
0.00231606
-0.00222625
0.126525
0.00705467
-0.00680393
0.126122
0.0122242
-0.011821
0.125571
0.018209
-0.0176576
0.124929
0.0253578
-0.0247165
0.124255
0.0347359
-0.0340618
0.124025
0.0461829
-0.0459523
0.124385
0.0641115
-0.0644722
0.1293
0.0821188
-0.0870336
0.121806
-0.134263
0.147935
0.0023767
0.147762
0.00722815
0.147504
0.0124819