/*--------------------------------*- C++ -*----------------------------------*\
| =========                 |                                                 |
| \\      /  F ield         | OpenFOAM: The Open Source CFD Toolbox           |
|  \\    /   O peration     | Version:  v1912                                 |
|   \\  /    A nd           | Website:  www.openfoam.com                      |
|    \\/     M anipulation  |                                                 |
\*---------------------------------------------------------------------------*/
FoamFile
{
    version     2.0;
    format      ascii;
    class       volScalarField;
    location    "52.5";
    object      p;
}
// * * * * * * * * * * * * * * * * * * * * * * * * * * * * * * * * * * * * * //

dimensions      [0 2 -2 0 0 0 0];


internalField   nonuniform List<scalar> 
9600
(
-41.485
-36.2202
-32.9933
-30.256
-27.7506
-25.4838
-23.4272
-21.5531
-19.8438
-18.2857
-16.8663
-15.5736
-14.3961
-13.3232
-12.3447
-11.4512
-10.6344
-9.88614
-9.19907
-8.57097
-42.2448
-36.9624
-33.6995
-30.9194
-28.3689
-26.058
-23.96
-22.0481
-20.3049
-18.7169
-17.2711
-15.9552
-14.7574
-13.6666
-12.6722
-11.7646
-10.9349
-10.1749
-9.47675
-8.83938
-43.0062
-37.7006
-34.4004
-31.5772
-28.9813
-26.6261
-24.4868
-22.5372
-20.7604
-19.1426
-17.6707
-16.332
-15.1142
-14.0057
-12.9957
-12.074
-11.2317
-10.4601
-9.75085
-9.1044
-43.766
-38.4344
-35.0954
-32.2285
-29.5869
-27.1873
-25.0066
-23.0195
-21.2093
-19.5621
-18.0645
-16.7033
-15.4658
-14.34
-13.3145
-12.3791
-11.5243
-10.7412
-10.021
-9.36569
-44.5214
-39.1622
-35.7835
-32.8722
-30.1847
-27.7405
-25.5186
-23.4942
-21.6509
-19.9747
-18.4517
-17.0684
-15.8116
-14.6687
-13.6282
-12.6792
-11.8123
-11.0177
-10.2867
-9.62299
-45.2701
-39.8827
-36.4636
-33.5072
-30.7734
-28.2848
-26.0216
-23.9603
-22.0843
-20.3795
-18.8316
-17.4266
-16.1508
-14.9914
-13.9361
-12.974
-12.0951
-11.2894
-10.5478
-9.87601
-46.0104
-40.5942
-37.1343
-34.1325
-31.3522
-28.819
-26.5149
-24.4169
-22.5086
-20.7757
-19.2034
-17.7772
-16.483
-15.3073
-14.2377
-13.2628
-12.3722
-11.5557
-10.8038
-10.1245
-46.7409
-41.2955
-37.7943
-34.7467
-31.9198
-29.3422
-26.9975
-24.8632
-22.9232
-21.1626
-19.5664
-18.1196
-16.8074
-15.6159
-14.5324
-13.5451
-12.6433
-11.8162
-11.0545
-10.3681
-47.46
-41.9853
-38.4426
-35.3489
-32.4753
-29.8534
-27.4684
-25.2983
-23.327
-21.5394
-19.9199
-18.4528
-17.1232
-15.9165
-14.8195
-13.8203
-12.9077
-12.0706
-11.2993
-10.6066
-48.1666
-42.6623
-39.0779
-35.9379
-33.0177
-30.3518
-27.9267
-25.7213
-23.7192
-21.9051
-20.2629
-18.7763
-17.4297
-16.2083
-15.0984
-14.0877
-13.1649
-12.3181
-11.5379
-10.8394
-48.8596
-43.3254
-39.6992
-36.5127
-33.5459
-30.8362
-28.3716
-26.1313
-24.0991
-22.2591
-20.5947
-19.0891
-17.7261
-16.4905
-15.3682
-14.3465
-13.4139
-12.5581
-11.7694
-11.066
-49.5381
-43.9737
-40.3055
-37.0724
-34.0591
-31.3059
-28.8022
-26.5276
-24.4658
-22.6005
-20.9144
-19.3903
-18.0115
-16.7622
-15.628
-14.5959
-13.6541
-12.7898
-11.9933
-11.2856
-50.2012
-44.6062
-40.8959
-37.6161
-34.5564
-31.76
-29.2176
-26.9092
-24.8184
-22.9283
-21.2212
-19.6792
-18.2849
-17.0224
-15.8768
-14.8348
-13.8844
-13.0122
-12.2085
-11.4974
-50.8485
-45.2222
-41.4695
-38.1429
-35.037
-32.1977
-29.6171
-27.2755
-25.1562
-23.2419
-21.5142
-19.9546
-18.5453
-17.2699
-16.1132
-15.0619
-14.1034
-13.2239
-12.4139
-11.7009
-51.4793
-45.8208
-42.0255
-38.6521
-35.5002
-32.6184
-30.0001
-27.6259
-25.4786
-23.5405
-21.7926
-20.2157
-18.7917
-17.5036
-16.336
-15.2754
-14.3091
-13.4228
-12.6074
-11.8939
-52.0932
-46.4012
-42.5632
-39.1432
-35.9454
-33.0215
-30.3661
-27.9597
-25.785
-23.8235
-22.0556
-20.4617
-19.023
-17.7223
-16.5438
-15.4739
-14.4997
-13.6068
-12.7861
-12.0713
-52.6915
-46.9635
-43.082
-39.6152
-36.3718
-33.4064
-30.7143
-28.2764
-26.0748
-24.0903
-22.3028
-20.6919
-19.2385
-17.925
-16.7356
-15.6565
-14.6748
-13.7758
-12.9491
-12.2297
-53.2786
-47.5086
-43.581
-40.0673
-36.7787
-33.7723
-31.0444
-28.5757
-26.3477
-24.3406
-22.5335
-20.9055
-19.4369
-18.1101
-16.9091
-15.8205
-14.8318
-13.927
-13.0954
-12.3804
-53.8564
-48.0361
-44.0587
-40.4981
-37.1656
-34.1194
-31.3567
-28.858
-26.6043
-24.575
-22.7483
-21.1027
-19.618
-18.2759
-17.0608
-15.9593
-14.9586
-14.0429
-13.21
-12.5276
-54.4032
-48.5383
-44.5141
-40.9086
-37.5338
-34.4492
-31.6528
-29.1251
-26.8464
-24.7954
-22.9493
-21.2859
-19.7843
-18.4253
-17.1926
-16.0714
-15.0469
-14.1055
-13.2617
-12.5855
-59.8584
-59.8269
-59.7577
-59.6652
-59.5489
-59.4062
-59.2365
-59.0405
-58.8187
-58.5715
-58.2996
-58.0035
-57.684
-57.3416
-56.9771
-56.5914
-56.1856
-55.7614
-55.3217
-54.8695
-53.5096
-53.507
-53.4713
-53.408
-53.3178
-53.2003
-53.0557
-52.8847
-52.6881
-52.4663
-52.2201
-51.95
-51.6567
-51.3408
-51.003
-50.6438
-50.2641
-49.8641
-49.4446
-49.0033
-48.8656
-48.8873
-48.8798
-48.8434
-48.7796
-48.6892
-48.5727
-48.4309
-48.2643
-48.0736
-47.8593
-47.622
-47.3622
-47.0805
-46.7774
-46.4533
-46.1086
-45.7431
-45.3568
-44.9476
-44.635
-44.6746
-44.6874
-44.6732
-44.6327
-44.5671
-44.4769
-44.3628
-44.2253
-44.0649
-43.8822
-43.6776
-43.4518
-43.205
-42.9379
-42.6506
-42.3432
-42.0158
-41.6681
-41.2992
-40.7233
-40.7727
-40.7981
-40.7989
-40.7754
-40.7284
-40.6586
-40.5666
-40.4527
-40.3176
-40.1617
-39.9854
-39.7894
-39.5739
-39.3394
-39.086
-38.8139
-38.5229
-38.213
-37.8836
-37.2102
-37.2637
-37.2956
-37.305
-37.2921
-37.2575
-37.2019
-37.1258
-37.0295
-36.9137
-36.7787
-36.6251
-36.4533
-36.2637
-36.0566
-35.8323
-35.5909
-35.3322
-35.0561
-34.7621
-34.0867
-34.1402
-34.1739
-34.187
-34.1796
-34.1523
-34.1057
-34.0401
-33.9561
-33.8541
-33.7347
-33.5982
-33.4452
-33.2761
-33.0912
-32.8908
-32.6749
-32.4436
-32.1966
-31.9333
-31.3159
-31.3666
-31.3989
-31.4124
-31.4069
-31.3831
-31.3415
-31.2825
-31.2065
-31.114
-31.0056
-30.8818
-30.7429
-30.5896
-30.4221
-30.2409
-30.046
-29.8374
-29.6148
-29.3778
-28.8581
-28.9043
-28.9335
-28.9451
-28.9393
-28.9165
-28.8772
-28.8219
-28.7509
-28.6648
-28.564
-28.4492
-28.3209
-28.1795
-28.0256
-27.8596
-27.6817
-27.4919
-27.2899
-27.0752
-26.6734
-26.7144
-26.7396
-26.7483
-26.7409
-26.7176
-26.679
-26.6254
-26.5574
-26.4754
-26.3799
-26.2716
-26.151
-26.0188
-25.8755
-25.7216
-25.5576
-25.3834
-25.1989
-25.0034
-24.7248
-24.7605
-24.7813
-24.7867
-24.7769
-24.7524
-24.7135
-24.6606
-24.5943
-24.5149
-24.4231
-24.3195
-24.2047
-24.0795
-23.9445
-23.8004
-23.6478
-23.4869
-23.3175
-23.1389
-22.9792
-23.0099
-23.0264
-23.0284
-23.0162
-22.9901
-22.9504
-22.8976
-22.8322
-22.7545
-22.6653
-22.5652
-22.4548
-22.335
-22.2066
-22.0705
-21.9274
-21.7778
-21.6218
-21.4585
-21.4084
-21.4345
-21.447
-21.4459
-21.4313
-21.4035
-21.3629
-21.3099
-21.245
-21.1685
-21.0812
-20.9837
-20.8767
-20.7611
-20.6379
-20.5082
-20.3732
-20.2335
-20.0896
-19.9406
-19.9887
-20.0106
-20.0196
-20.0156
-19.9987
-19.9694
-19.9279
-19.8746
-19.81
-19.7345
-19.6486
-19.5531
-19.4487
-19.3364
-19.2173
-19.0929
-18.9645
-18.8334
-18.7007
-18.5653
-18.7002
-18.7184
-18.7242
-18.7176
-18.6988
-18.6681
-18.6259
-18.5723
-18.5079
-18.4331
-18.3484
-18.2545
-18.1521
-18.0424
-17.9265
-17.806
-17.6831
-17.5592
-17.437
-17.3151
-17.5263
-17.5412
-17.5442
-17.5353
-17.5149
-17.483
-17.4401
-17.3863
-17.3221
-17.248
-17.1642
-17.0716
-16.9709
-16.863
-16.7493
-16.6317
-16.5127
-16.3946
-16.282
-16.1733
-16.4534
-16.4652
-16.4657
-16.4549
-16.433
-16.4001
-16.3565
-16.3026
-16.2386
-16.1649
-16.082
-15.9903
-15.8906
-15.7839
-15.6715
-15.5553
-15.4387
-15.3243
-15.2199
-15.123
-15.4693
-15.4788
-15.4774
-15.4651
-15.442
-15.4085
-15.3646
-15.3107
-15.247
-15.1738
-15.0916
-15.0007
-14.9019
-14.7958
-14.6837
-14.5676
-14.4512
-14.3384
-14.2409
-14.1532
-14.5632
-14.5712
-14.5688
-14.556
-14.5329
-14.4997
-14.4566
-14.4037
-14.3414
-14.2699
-14.1895
-14.1005
-14.0035
-13.899
-13.7881
-13.6722
-13.5551
-13.4419
-13.3513
-13.2777
-13.7296
-13.7344
-13.7294
-13.7148
-13.6906
-13.6571
-13.6142
-13.5623
-13.5014
-13.4319
-13.3539
-13.2676
-13.1735
-13.0718
-12.9631
-12.8483
-12.7294
-12.6115
-12.5144
-12.4651
-53.5665
-54.1419
-54.6802
-55.2034
-55.7087
-56.19
-56.6446
-57.0714
-57.4694
-57.8378
-58.1758
-58.483
-58.7591
-59.0037
-59.216
-59.3964
-59.5455
-59.6647
-59.7558
-59.8207
-47.0836
-47.6644
-48.217
-48.7474
-49.2548
-49.7371
-50.1926
-50.6208
-51.0209
-51.3924
-51.7346
-52.0473
-52.3309
-52.5858
-52.8099
-53.0028
-53.165
-53.2969
-53.3991
-53.4703
-42.4394
-43.0079
-43.5527
-44.0742
-44.5721
-45.0459
-45.4948
-45.9179
-46.3148
-46.6848
-47.0268
-47.3407
-47.6261
-47.8819
-48.1092
-48.3083
-48.4789
-48.6206
-48.7333
-48.8153
-38.3156
-38.8588
-39.3823
-39.8842
-40.364
-40.8213
-41.2555
-41.6659
-42.0521
-42.4132
-42.7481
-43.0563
-43.3386
-43.5946
-43.8244
-44.0278
-44.2043
-44.3536
-44.4755
-44.5694
-34.6379
-35.1511
-35.6472
-36.1236
-36.5795
-37.0143
-37.4277
-37.8188
-38.187
-38.5317
-38.8536
-39.1522
-39.4261
-39.6754
-39.9003
-40.1005
-40.2757
-40.4258
-40.5506
-40.6499
-31.4394
-31.9211
-32.3874
-32.8358
-33.265
-33.6746
-34.0642
-34.4331
-34.7809
-35.1072
-35.412
-35.6946
-35.9544
-36.1915
-36.4064
-36.5987
-36.7676
-36.9133
-37.0357
-37.1349
-28.6677
-29.1185
-29.5552
-29.9752
-30.3773
-30.7611
-31.1261
-31.4717
-31.7976
-32.1035
-32.389
-32.6538
-32.8977
-33.1204
-33.3215
-33.503
-33.6631
-33.8013
-33.9179
-34.0132
-26.2558
-26.6778
-27.0864
-27.4793
-27.8555
-28.2143
-28.5552
-28.8779
-29.182
-29.4671
-29.7332
-29.9799
-30.2071
-30.4148
-30.603
-30.77
-30.9195
-31.0487
-31.1577
-31.2469
-24.1452
-24.5407
-24.9235
-25.2916
-25.6436
-25.979
-26.2973
-26.5982
-26.8815
-27.1468
-27.3941
-27.6232
-27.8341
-28.0266
-28.2009
-28.3567
-28.4929
-28.6121
-28.7127
-28.7948
-22.2856
-22.6574
-23.017
-23.3624
-23.6923
-24.0062
-24.3037
-24.5845
-24.8484
-25.0953
-25.325
-25.5376
-25.7329
-25.911
-26.0718
-26.2152
-26.3411
-26.4498
-26.5417
-26.6163
-20.6355
-20.986
-21.3249
-21.6501
-21.9601
-22.2545
-22.533
-22.7953
-23.0414
-23.2713
-23.4849
-23.6821
-23.8631
-24.0278
-24.1761
-24.3081
-24.4237
-24.5229
-24.6065
-24.6739
-19.1612
-19.4929
-19.8136
-20.1207
-20.4129
-20.6895
-20.9507
-21.1962
-21.4261
-21.6404
-21.8391
-22.0225
-22.1903
-22.3427
-22.4797
-22.6013
-22.7074
-22.7982
-22.8735
-22.9342
-17.8357
-18.1509
-18.4557
-18.7469
-19.0229
-19.2834
-19.5287
-19.7588
-19.9739
-20.174
-20.3593
-20.5299
-20.6858
-20.8271
-20.9538
-21.0658
-21.1633
-21.2461
-21.3141
-21.3687
-16.6374
-16.9382
-17.2294
-17.5065
-17.7678
-18.0136
-18.2443
-18.4603
-18.6616
-18.8487
-19.0217
-19.1807
-19.3258
-19.457
-19.5744
-19.6779
-19.7676
-19.8435
-19.906
-19.954
-15.5493
-15.8378
-16.1175
-16.3819
-16.6296
-16.8618
-17.079
-17.2817
-17.4705
-17.6455
-17.8072
-17.9557
-18.0909
-18.213
-18.322
-18.4178
-18.5005
-18.5701
-18.6265
-18.6697
-14.5566
-14.8366
-15.1071
-15.3595
-15.5944
-15.8136
-16.018
-16.2083
-16.3852
-16.5491
-16.7004
-16.8391
-16.9654
-17.0792
-17.1805
-17.2694
-17.3457
-17.4095
-17.4608
-17.4997
-13.6416
-13.9205
-14.1859
-14.4269
-14.649
-14.8558
-15.048
-15.2265
-15.3924
-15.546
-15.6877
-15.8176
-15.9357
-16.042
-16.1365
-16.2191
-16.2898
-16.3485
-16.3953
-16.4302
-12.7837
-13.0669
-13.3335
-13.5651
-13.7753
-13.9704
-14.1514
-14.3194
-14.4754
-14.6201
-14.7536
-14.876
-14.9873
-15.0873
-15.1761
-15.2535
-15.3195
-15.3741
-15.4173
-15.4491
-11.9964
-12.2701
-12.5374
-12.7642
-12.9643
-13.148
-13.3185
-13.477
-13.6243
-13.761
-13.8873
-14.0033
-14.1087
-14.2035
-14.2876
-14.3608
-14.4232
-14.4746
-14.515
-14.5446
-11.4058
-11.6566
-11.8844
-12.1011
-12.2895
-12.4554
-12.6094
-12.7536
-12.8876
-13.0118
-13.1266
-13.2318
-13.3273
-13.413
-13.4886
-13.5542
-13.6096
-13.6548
-13.6897
-13.7142
-6.00507
-6.49637
-7.03475
-7.61715
-8.25002
-8.94075
-9.697
-10.5282
-11.4466
-12.4678
-13.6123
-14.907
-16.3873
-18.0993
-20.1034
-22.4789
-25.3071
-28.6101
-32.6074
-38.6033
-6.27566
-6.78048
-7.32938
-7.92385
-8.5705
-9.2764
-10.0494
-10.8991
-11.838
-12.8821
-14.0522
-15.3755
-16.8879
-18.6359
-20.6801
-23.0997
-25.9749
-29.3248
-33.3606
-39.3775
-6.54767
-7.06603
-7.62557
-8.23233
-8.89301
-9.61435
-10.4043
-11.2728
-12.2326
-13.2999
-14.4958
-15.8481
-17.3929
-19.1773
-21.2619
-23.7257
-26.6475
-30.043
-34.1155
-40.1489
-6.82062
-7.35246
-7.92271
-8.54199
-9.21691
-9.95389
-10.761
-11.6485
-12.6294
-13.7201
-14.9422
-16.3236
-17.9011
-19.722
-21.8471
-24.3549
-27.3231
-30.7641
-34.8745
-40.9291
-7.09408
-7.63931
-8.22035
-8.85235
-9.54172
-10.2945
-11.119
-12.0257
-13.0278
-14.1421
-15.3905
-16.8013
-18.4117
-20.2691
-22.4348
-24.9867
-28.0011
-31.4877
-35.6366
-41.7156
-7.36765
-7.92615
-8.51806
-9.16298
-9.86698
-10.6358
-11.4778
-12.4038
-13.4273
-14.5653
-15.8402
-17.2805
-18.9238
-20.8181
-23.0243
-25.6203
-28.6808
-32.2128
-36.3998
-42.5042
-7.64104
-8.21265
-8.81546
-9.47349
-10.1923
-10.9772
-11.8369
-12.7823
-13.8273
-14.9893
-16.2906
-17.7606
-19.437
-21.368
-23.6148
-26.2548
-29.3613
-32.9381
-37.1626
-43.2926
-7.91399
-8.4985
-9.11223
-9.78353
-10.5173
-11.3184
-12.1958
-13.1608
-14.2274
-15.4132
-16.7412
-18.2409
-19.9503
-21.9181
-24.2055
-26.8892
-30.0414
-33.6626
-37.9238
-44.0792
-8.18634
-8.7835
-9.40813
-10.0928
-10.8416
-11.6591
-12.5542
-13.5388
-14.6269
-15.8367
-17.1913
-18.7206
-20.4631
-22.4676
-24.7954
-27.5227
-30.7201
-34.3852
-38.6822
-44.8628
-8.45807
-9.06755
-9.70301
-10.4012
-11.1651
-11.9988
-12.9117
-13.9158
-15.0254
-16.2591
-17.6403
-19.1991
-20.9746
-23.0157
-25.3836
-28.1541
-31.3963
-35.1046
-39.4365
-45.6417
-8.72927
-9.35067
-9.9968
-10.7085
-11.4874
-12.3374
-13.268
-14.2914
-15.4225
-16.6799
-18.0874
-19.6757
-21.484
-23.5614
-25.9692
-28.7825
-32.0688
-35.8197
-40.1853
-46.4144
-9.00024
-9.63304
-10.2896
-11.0147
-11.8085
-12.6745
-13.6225
-14.6651
-15.8175
-17.0984
-18.5321
-20.1496
-21.9904
-24.1039
-26.5512
-29.4067
-32.7366
-36.5291
-40.9274
-47.1797
-9.27146
-9.91494
-10.5814
-11.3197
-12.1282
-13.0099
-13.9751
-15.0366
-16.2099
-17.5141
-18.9737
-20.6201
-22.493
-24.6422
-27.1285
-30.0257
-33.3983
-37.2318
-41.6613
-47.9359
-9.54365
-10.1968
-10.8725
-11.6235
-12.4462
-13.3433
-14.3252
-15.4053
-16.5991
-17.9261
-19.4113
-21.0862
-22.991
-25.1753
-27.7002
-30.6384
-34.053
-37.9263
-42.3858
-48.682
-9.81759
-10.4789
-11.1628
-11.9258
-12.7622
-13.6741
-14.6723
-15.7704
-16.9843
-18.3339
-19.8442
-21.5472
-23.4832
-25.7023
-28.265
-31.2435
-34.6992
-38.6115
-43.0997
-49.4168
-10.0942
-10.7616
-11.4521
-12.2262
-13.0756
-14.0016
-15.0155
-16.1312
-17.3649
-18.7364
-20.2714
-22.002
-23.9688
-26.222
-28.8219
-31.8398
-35.3357
-39.2862
-43.8019
-50.1392
-10.3733
-11.0437
-11.7389
-12.5233
-13.385
-14.3247
-15.354
-16.4868
-17.7397
-19.1328
-20.6919
-22.4495
-24.4466
-26.7332
-29.3695
-32.426
-35.961
-39.9488
-44.4913
-50.8486
-10.6543
-11.3226
-12.0208
-12.8152
-13.6893
-14.6425
-15.6866
-16.8362
-18.1078
-19.522
-21.1047
-22.8889
-24.9155
-27.2348
-29.9067
-33.0007
-36.5737
-40.5978
-45.1667
-51.545
-10.9296
-11.5901
-12.2915
-13.0985
-13.9862
-14.953
-16.0119
-17.178
-18.4681
-19.9029
-21.5087
-23.3187
-25.3742
-27.7254
-30.4318
-33.5622
-37.1719
-41.2313
-45.8269
-52.2299
-11.1809
-11.8262
-12.5467
-13.3743
-14.2763
-15.2561
-16.3294
-17.5117
-18.8197
-20.2746
-21.9029
-23.7381
-25.8217
-28.2038
-30.9436
-34.1088
-37.7536
-41.8463
-46.4674
-52.9048
-1.58442
-1.83839
-2.18631
-2.57527
-2.99388
-3.44749
-3.94242
-4.48459
-5.0815
-5.74341
-6.48427
-7.32309
-8.28603
-9.40912
-10.7433
-12.3628
-14.3573
-16.788
-19.9633
-25.3581
-1.73757
-2.00797
-2.37434
-2.76925
-3.19129
-3.65024
-4.15207
-4.70232
-5.30864
-5.98153
-6.73523
-7.58908
-8.56965
-9.7135
-11.0721
-12.7203
-14.7477
-17.2139
-20.4214
-25.8301
-1.88505
-2.17953
-2.55906
-2.96211
-3.39188
-3.85922
-4.37
-4.92993
-5.54702
-6.23215
-6.99986
-7.86988
-8.86926
-10.0351
-11.4193
-13.0972
-15.1583
-17.6599
-20.8989
-26.3162
-2.05482
-2.36013
-2.74786
-3.15963
-3.59861
-4.07549
-4.59629
-5.16703
-5.79603
-6.49448
-7.27726
-8.16451
-9.18374
-10.3726
-11.7835
-13.4922
-15.5877
-18.1261
-21.4
-26.8349
-2.23591
-2.54831
-2.94388
-3.36462
-3.81308
-4.29994
-4.83143
-5.41377
-6.05556
-6.76825
-7.56706
-8.47252
-9.51261
-10.7255
-12.1642
-13.9047
-16.036
-18.6126
-21.924
-27.383
-2.42247
-2.74349
-3.1474
-3.57726
-4.03551
-4.53281
-5.07557
-5.67022
-6.32556
-7.05332
-7.86903
-8.79364
-9.85558
-11.0936
-12.5612
-14.3347
-16.503
-19.119
-22.4691
-27.9552
-2.61604
-2.94657
-3.35873
-3.79774
-4.26604
-4.77422
-5.32878
-5.93634
-6.60591
-7.34949
-8.18293
-9.12757
-10.2123
-11.4764
-12.974
-14.7817
-16.9881
-19.6447
-23.0343
-28.5492
-2.818
-3.15802
-3.57823
-4.02637
-4.50493
-5.02431
-5.5911
-6.21208
-6.89649
-7.65656
-8.50849
-9.474
-10.5825
-11.8736
-13.4022
-15.2452
-17.4909
-20.1891
-23.619
-29.1639
-3.02814
-3.3777
-3.80591
-4.26324
-4.75222
-5.28308
-5.86246
-6.49733
-7.19711
-7.97431
-8.84543
-9.83258
-10.9656
-12.2848
-13.8454
-15.7246
-18.0107
-20.7514
-24.2225
-29.7982
-3.24585
-3.60527
-4.04159
-4.50819
-5.00779
-5.55039
-6.14271
-6.79189
-7.50756
-8.30246
-9.19343
-10.203
-11.3614
-12.7095
-14.3029
-16.2195
-18.5468
-21.3311
-24.8438
-30.4511
-3.47071
-3.84038
-4.28495
-4.76096
-5.27137
-5.82599
-6.43159
-7.09549
-7.82752
-8.64068
-9.55211
-10.5847
-11.7693
-13.1471
-14.7744
-16.7292
-19.0987
-21.9273
-25.4823
-31.1214
-3.70232
-4.08262
-4.5356
-5.0212
-5.54264
-6.10955
-6.72877
-7.40779
-8.15664
-8.98858
-9.92107
-10.9774
-12.1888
-13.5972
-15.2592
-17.253
-19.6657
-22.5393
-26.1369
-31.8082
-3.94022
-4.33154
-4.79312
-5.28848
-5.8212
-6.40069
-7.03385
-7.72836
-8.49448
-9.3457
-10.2998
-11.3805
-12.6195
-14.0592
-15.7567
-17.7904
-20.2469
-23.1663
-26.8069
-32.5104
-4.18389
-4.5866
-5.05698
-5.56233
-6.10659
-6.69894
-7.34638
-8.05677
-8.84057
-9.71157
-10.6879
-11.7935
-13.0608
-14.5325
-16.2662
-18.3406
-20.8417
-23.8074
-27.4914
-33.2272
-4.43278
-4.84725
-5.32666
-5.84223
-6.39829
-7.00381
-7.66586
-8.39249
-9.1944
-10.0856
-11.0846
-12.2158
-13.512
-15.0163
-16.787
-18.9028
-21.4491
-24.4618
-28.1895
-33.9577
-4.68634
-5.11292
-5.60159
-6.12763
-6.69578
-7.31477
-7.99174
-8.73498
-9.55541
-10.4673
-11.4895
-12.6468
-13.9724
-15.5101
-17.3184
-19.4763
-22.0685
-25.1287
-28.9003
-34.7012
-4.94402
-5.38302
-5.88119
-6.41797
-6.99849
-7.63125
-8.32347
-9.08367
-9.92299
-10.856
-11.9019
-13.0858
-14.4414
-16.013
-17.8596
-20.0601
-22.6988
-25.807
-29.6232
-35.4569
-5.20527
-5.65698
-6.16488
-6.71266
-7.30586
-7.95268
-8.66047
-9.43796
-10.2966
-11.2511
-12.321
-13.5321
-14.9182
-16.5243
-18.4097
-20.6535
-23.3391
-26.4958
-30.3571
-36.2246
-5.46953
-5.93423
-6.45208
-7.01114
-7.61728
-8.27846
-9.00213
-9.79724
-10.6755
-11.6519
-12.7463
-13.9849
-15.402
-17.0431
-18.9677
-21.2552
-23.9883
-27.1937
-31.1011
-37.0049
-5.7363
-6.21421
-6.74224
-7.31285
-7.93222
-8.60805
-9.34789
-10.1609
-11.0591
-12.0578
-13.1771
-14.4436
-15.8922
-17.5686
-19.5329
-21.8644
-24.645
-27.8992
-31.8524
-37.7986
-1.33668
-1.13001
-0.976277
-0.839589
-0.719561
-0.61365
-0.520743
-0.440047
-0.37106
-0.313424
-0.266872
-0.231193
-0.206217
-0.191806
-0.187823
-0.194057
-0.210295
-0.236663
-0.273329
-0.320101
-1.66651
-1.48312
-1.32541
-1.1835
-1.05864
-0.948261
-0.851388
-0.767219
-0.695241
-0.635077
-0.586445
-0.549121
-0.522925
-0.507703
-0.503313
-0.509581
-0.526353
-0.553637
-0.591499
-0.639694
-1.99902
-1.82352
-1.66582
-1.52276
-1.39578
-1.28322
-1.18439
-1.0986
-1.02539
-0.964391
-0.915327
-0.877977
-0.852156
-0.837708
-0.834482
-0.842328
-0.861125
-0.890825
-0.931312
-0.982752
-2.38274
-2.20557
-2.04484
-1.89882
-1.76826
-1.65219
-1.55015
-1.46158
-1.38606
-1.32326
-1.27291
-1.23478
-1.20867
-1.19444
-1.19191
-1.20095
-1.22143
-1.25328
-1.29639
-1.35077
-2.80146
-2.62183
-2.45713
-2.30717
-2.17239
-2.05227
-1.94649
-1.85462
-1.77631
-1.71127
-1.65922
-1.61995
-1.59326
-1.57899
-1.57696
-1.58704
-1.60911
-1.64304
-1.68873
-1.74616
-3.25271
-3.06986
-2.90099
-2.74669
-2.60746
-2.48308
-2.37335
-2.27799
-2.1967
-2.12923
-2.07533
-2.03479
-2.00742
-1.99305
-1.99151
-2.00265
-2.02635
-2.06246
-2.11086
-2.17151
-3.74269
-3.55511
-3.38132
-3.2221
-3.07797
-2.94893
-2.83491
-2.73572
-2.65115
-2.58096
-2.52496
-2.48293
-2.4547
-2.4401
-2.43895
-2.45111
-2.47643
-2.51478
-2.566
-2.63007
-4.27818
-4.08438
-3.90459
-3.73958
-3.58984
-3.45553
-3.33667
-3.23315
-3.14482
-3.07149
-3.013
-2.96914
-2.93976
-2.92468
-2.92373
-2.93677
-2.96364
-3.00419
-3.05827
-3.12584
-4.86686
-4.66541
-4.47839
-4.3065
-4.15025
-4.00986
-3.88542
-3.77689
-3.68418
-3.60714
-3.54564
-3.49949
-3.46854
-3.45262
-3.45158
-3.46526
-3.4935
-3.53614
-3.59302
-3.66412
-5.51889
-5.30821
-5.11254
-4.9325
-4.7686
-4.62109
-4.49012
-4.37571
-4.27781
-4.19632
-4.13111
-4.08204
-4.04896
-4.03171
-4.03013
-4.04408
-4.07339
-4.11787
-4.17739
-4.25193
-6.248
-6.02629
-5.82029
-5.63056
-5.45758
-5.30164
-5.16293
-5.04151
-4.93736
-4.85042
-4.7806
-4.72776
-4.69178
-4.67249
-4.66975
-4.68341
-4.71331
-4.75924
-4.82105
-4.89878
-7.07292
-6.83806
-6.61972
-6.41839
-6.23456
-6.06854
-5.92053
-5.79063
-5.67886
-5.58519
-5.50954
-5.45181
-5.41187
-5.38958
-5.3848
-5.39736
-5.42711
-5.47384
-5.53738
-5.61782
-8.01938
-7.76883
-7.53571
-7.32046
-7.12357
-6.94536
-6.78607
-6.64581
-6.52465
-6.42256
-6.33949
-6.27536
-6.23005
-6.20343
-6.19535
-6.20568
-6.23423
-6.28078
-6.34516
-6.42751
-9.12293
-8.85361
-8.60272
-8.37066
-8.15796
-7.96494
-7.79185
-7.63884
-7.50598
-7.39329
-7.30072
-7.2282
-7.17563
-7.1429
-7.12985
-7.13634
-7.16219
-7.20716
-7.27106
-7.3541
-10.4338
-10.142
-9.86975
-9.61737
-9.38545
-9.17435
-8.98432
-8.81554
-8.66808
-8.54199
-8.43723
-8.35375
-8.29145
-8.25022
-8.22992
-8.23042
-8.25151
-8.29292
-8.35446
-8.43638
-12.0257
-11.7071
-11.4091
-11.1322
-10.877
-10.6439
-10.4331
-10.2448
-10.0792
-9.93626
-9.81595
-9.71824
-9.64305
-9.59026
-9.55976
-9.55139
-9.56495
-9.60016
-9.65678
-9.73508
-13.9879
-13.6376
-13.3092
-13.0032
-12.7203
-12.4609
-12.2253
-12.0135
-11.8258
-11.6622
-11.5225
-11.407
-11.3153
-11.2475
-11.2034
-11.183
-11.1859
-11.2119
-11.2608
-11.3326
-16.3818
-15.996
-15.633
-15.294
-14.9797
-14.6903
-14.4263
-14.1876
-13.9744
-13.7867
-13.6245
-13.4879
-13.3766
-13.2908
-13.2302
-13.1948
-13.1844
-13.1989
-13.2379
-13.3005
-19.5184
-19.0928
-18.6909
-18.3154
-17.9666
-17.6445
-17.3491
-17.0804
-16.8385
-16.6232
-16.4346
-16.2727
-16.1375
-16.029
-15.9469
-15.8911
-15.8617
-15.8589
-15.8824
-15.9303
-24.8552
-24.3845
-23.9482
-23.5433
-23.1675
-22.82
-22.5004
-22.2084
-21.9441
-21.7075
-21.4985
-21.3173
-21.1639
-21.0385
-20.9411
-20.8717
-20.8311
-20.8216
-20.8445
-20.8896
-0.376871
-0.44332
-0.519409
-0.605057
-0.70018
-0.804672
-0.918403
-1.04121
-1.17288
-1.31313
-1.46161
-1.61777
-1.78083
-1.94956
-2.12231
-2.29679
-2.46854
-2.62775
-2.75903
-2.88881
-0.698343
-0.76707
-0.845799
-0.93442
-1.03283
-1.1409
-1.25847
-1.38537
-1.52136
-1.66612
-1.81924
-1.98019
-2.14817
-2.32203
-2.50014
-2.68088
-2.86245
-3.03713
-3.18972
-3.36197
-1.04489
-1.11747
-1.20042
-1.29361
-1.39692
-1.51021
-1.6333
-1.76599
-1.90802
-2.05905
-2.21866
-2.38629
-2.5612
-2.74234
-2.92838
-3.11811
-3.31056
-3.50136
-3.68479
-3.89078
-1.41633
-1.49276
-1.57998
-1.67784
-1.78621
-1.90491
-2.03376
-2.17254
-2.32095
-2.47866
-2.64521
-2.82007
-3.00253
-3.19167
-3.38642
-3.58592
-3.78936
-3.99443
-4.20162
-4.43132
-1.81526
-1.8957
-1.98739
-2.09016
-2.20387
-2.32833
-2.46333
-2.60863
-2.76394
-2.92888
-3.10303
-3.28586
-3.47671
-3.6748
-3.87932
-4.08965
-4.30518
-4.52488
-4.75138
-4.99784
-2.24444
-2.32918
-2.42567
-2.53374
-2.65322
-2.78393
-2.92563
-3.07806
-3.24093
-3.41386
-3.59644
-3.78817
-3.98845
-4.19663
-4.41211
-4.63446
-4.86329
-5.09838
-5.34248
-5.60345
-2.70704
-2.7963
-2.89791
-3.01166
-3.13736
-3.27481
-3.42377
-3.58398
-3.75512
-3.93685
-4.12876
-4.33037
-4.54118
-4.76063
-4.98827
-5.22378
-5.46698
-5.71806
-5.97924
-6.25495
-3.20686
-3.301
-3.40803
-3.52781
-3.66014
-3.80482
-3.96161
-4.13023
-4.31039
-4.50173
-4.70387
-4.91639
-5.13881
-5.3707
-5.61169
-5.86153
-6.12015
-6.38787
-6.66626
-6.9578
-3.74944
-3.84848
-3.96115
-4.08724
-4.22657
-4.37894
-4.54409
-4.72175
-4.91163
-5.11339
-5.32668
-5.55109
-5.78622
-6.03168
-6.28718
-6.55251
-6.82763
-7.11282
-7.40908
-7.71779
-4.34152
-4.44551
-4.56401
-4.6966
-4.84322
-5.00364
-5.17762
-5.36488
-5.56514
-5.77807
-6.00334
-6.24059
-6.48944
-6.74957
-7.0207
-7.30265
-7.59536
-7.89899
-8.21411
-8.54151
-4.99247
-5.10136
-5.22548
-5.36478
-5.51885
-5.68758
-5.87074
-6.06804
-6.27921
-6.50394
-6.74193
-6.99284
-7.25634
-7.53211
-7.8199
-8.11953
-8.43089
-8.75401
-9.08914
-9.43676
-5.71522
-5.8287
-5.95835
-6.104
-6.26554
-6.44263
-6.63509
-6.84268
-7.06512
-7.3021
-7.55336
-7.81859
-8.09747
-8.3897
-8.69503
-9.01327
-9.34427
-9.68789
-10.0442
-10.4135
-6.52791
-6.64535
-6.78
-6.93161
-7.10008
-7.2855
-7.4872
-7.70494
-7.93866
-8.18806
-8.45288
-8.7328
-9.02752
-9.33676
-9.66028
-9.99785
-10.3493
-10.7143
-11.0927
-11.485
-7.45638
-7.57669
-7.71539
-7.87219
-8.04686
-8.23941
-8.45062
-8.67772
-8.92236
-9.18388
-9.46206
-9.75662
-10.0673
-10.3937
-10.7357
-11.093
-11.4653
-11.8522
-12.2536
-12.6696
-8.53882
-8.66032
-8.80143
-8.96195
-9.14169
-9.3402
-9.55698
-9.79432
-10.0496
-10.3223
-10.613
-10.9217
-11.2479
-11.5914
-11.9517
-12.3285
-12.7217
-13.1307
-13.5551
-13.9954
-9.83517
-9.95531
-10.0964
-10.2583
-10.441
-10.644
-10.8668
-11.1096
-11.3724
-11.6559
-11.9586
-12.2806
-12.6216
-12.9809
-13.3582
-13.7535
-14.1666
-14.597
-15.044
-15.5079
-11.427
-11.5426
-11.6808
-11.8415
-12.0243
-12.229
-12.4553
-12.7031
-12.9722
-13.2627
-13.5755
-13.9092
-14.2621
-14.6336
-15.0246
-15.436
-15.8671
-16.3172
-16.7851
-17.271
-13.3851
-13.4931
-13.6253
-13.7814
-13.9601
-14.1618
-14.3866
-14.6346
-14.9052
-15.1981
-15.5126
-15.8489
-16.2088
-16.5927
-16.9989
-17.4261
-17.874
-18.342
-18.8293
-19.335
-16.0006
-16.0925
-16.2085
-16.35
-16.5183
-16.7126
-16.9322
-17.1767
-17.4457
-17.7388
-18.0554
-18.3953
-18.7587
-19.146
-19.5572
-19.9917
-20.4493
-20.9307
-21.4357
-21.9594
-20.9314
-21.0038
-21.1071
-21.239
-21.3983
-21.5844
-21.7968
-22.0351
-22.2988
-22.5879
-22.9019
-23.2408
-23.6049
-23.9944
-24.4093
-24.8497
-25.3166
-25.8141
-26.3444
-26.89
-27.4067
-22.4939
-19.8584
-17.7748
-15.9887
-14.4513
-13.1003
-11.8908
-10.7957
-9.79678
-8.8811
-8.03891
-7.2626
-6.54593
-5.88373
-5.27145
-4.70385
-4.17534
-3.6944
-3.29
-27.9512
-23.0445
-20.3975
-18.2936
-16.4837
-14.9207
-13.5436
-12.3087
-11.1892
-10.1677
-9.23121
-8.37033
-7.57753
-6.84674
-6.17293
-5.55168
-4.97824
-4.45023
-3.98079
-3.57831
-28.5243
-23.614
-20.9539
-18.8286
-16.9935
-15.4036
-13.9995
-12.7381
-11.5936
-10.5487
-9.59092
-8.71084
-7.90105
-7.15551
-6.46914
-5.83745
-5.25579
-4.72189
-4.24532
-3.82333
-29.1218
-24.2031
-21.5274
-19.3793
-17.5175
-15.8995
-14.4671
-13.1784
-12.0079
-10.9389
-9.95912
-9.05911
-8.23149
-7.47008
-6.76963
-6.12534
-5.53234
-4.98768
-4.4981
-4.05739
-29.7405
-24.8111
-22.1175
-19.9452
-18.0552
-16.4076
-14.9459
-13.6287
-12.4315
-11.3376
-10.335
-9.41428
-8.56802
-7.78985
-7.07425
-6.41612
-5.81029
-5.25323
-4.74987
-4.29301
-30.379
-25.4384
-22.7223
-20.5253
-18.6056
-16.9272
-15.4349
-14.0884
-12.8634
-11.7439
-10.7177
-9.77568
-8.91009
-8.11444
-7.38295
-6.71026
-6.09096
-5.52118
-5.00454
-4.5336
-31.0362
-26.0837
-23.3414
-21.1186
-19.1681
-17.4574
-15.9335
-14.5566
-13.3031
-12.1571
-11.1068
-10.1428
-9.25737
-8.44376
-7.69598
-7.00844
-6.37557
-5.79326
-5.26405
-4.78042
-31.7106
-26.7449
-23.9746
-21.7243
-19.7417
-17.9976
-16.4409
-15.0327
-13.7498
-12.5767
-11.5017
-10.5152
-9.60955
-8.77768
-8.01341
-7.31093
-6.66456
-6.07
-5.52878
-5.03339
-32.401
-27.4205
-24.6212
-22.3415
-20.3254
-18.5468
-16.9563
-15.5158
-14.2028
-13.002
-11.9017
-10.8925
-9.96628
-9.11597
-8.33511
-7.61772
-6.95798
-6.3514
-5.79859
-5.29202
-33.1061
-28.1093
-25.28
-22.9693
-20.9185
-19.1041
-17.4788
-16.0052
-14.6615
-13.4324
-12.3065
-11.2741
-10.3272
-9.45828
-8.66082
-7.92855
-7.25554
-6.63711
-6.07295
-5.55557
-33.8247
-28.8103
-25.9499
-23.6068
-21.5199
-19.6686
-18.0075
-16.5002
-15.125
-13.8672
-12.7152
-11.6595
-10.6917
-9.80418
-8.99009
-8.24299
-7.55679
-6.9266
-6.35123
-5.82326
-34.5556
-29.5224
-26.63
-24.2529
-22.1286
-20.2394
-18.5416
-16.9997
-15.5925
-14.3056
-13.1274
-12.0481
-11.0593
-10.1531
-9.32239
-8.5605
-7.86115
-7.21922
-6.63272
-6.0943
-35.2978
-30.2444
-27.3189
-24.9065
-22.7436
-20.8155
-19.0802
-17.503
-16.0634
-14.747
-13.5422
-12.4393
-11.4294
-10.5045
-9.65714
-8.88047
-8.16799
-7.51432
-6.91669
-6.36792
-36.0502
-30.9751
-28.0155
-25.5664
-23.3638
-21.3958
-19.6222
-18.0092
-16.5367
-15.1905
-13.959
-12.8323
-11.8013
-10.8576
-9.99369
-9.20225
-8.47665
-7.81121
-7.20244
-6.64339
-36.8115
-31.7133
-28.7186
-26.2315
-23.988
-21.9793
-20.1667
-18.5174
-17.0116
-15.6353
-14.377
-13.2264
-12.1743
-11.2119
-10.3314
-9.5252
-8.78646
-8.10923
-7.48929
-6.92002
-37.5807
-32.4576
-29.4269
-26.9005
-24.6152
-22.5649
-20.7127
-19.0265
-17.4871
-16.0807
-14.7954
-13.6209
-12.5476
-11.5666
-10.6696
-9.84865
-9.09679
-8.40773
-7.77659
-7.19717
-38.3573
-33.2071
-30.1389
-27.5723
-25.2441
-23.1514
-21.259
-19.5356
-17.9624
-16.5256
-15.2134
-14.0151
-12.9207
-11.9211
-11.0075
-10.1719
-9.40698
-8.70606
-8.0637
-7.47424
-39.1426
-33.961
-30.8533
-28.2451
-25.8732
-23.7374
-21.8044
-20.0436
-18.4364
-16.9693
-15.6301
-14.408
-13.2927
-12.2746
-11.3446
-10.4944
-9.71638
-9.00361
-8.35004
-7.75065
-39.9369
-34.7183
-31.5681
-28.9172
-26.5011
-24.3219
-22.3479
-20.5495
-18.9083
-17.4108
-16.0448
-14.799
-13.6629
-12.6264
-11.6801
-10.8154
-10.0244
-9.29978
-8.63502
-8.0259
-40.7273
-35.4739
-32.2817
-29.5878
-27.1273
-24.9044
-22.8892
-21.0529
-19.3777
-17.8499
-16.4571
-15.1877
-14.0309
-12.9761
-12.0136
-11.1345
-10.3305
-9.59412
-8.9182
-8.29953
-6.77849
-4.67296
-3.31312
-2.26791
-1.53364
-0.994351
-0.606996
-0.331994
-0.141037
-0.0123891
0.0705667
0.120457
0.146862
0.156936
0.155988
0.14789
0.135454
0.120679
0.104973
0.0893051
0.0743182
0.0604234
0.0478569
0.0367383
0.0270888
0.0188881
0.0120423
0.00648698
0.00205228
-0.00129058
-0.00380497
-0.00538237
-0.00647211
-0.00666116
-0.00678848
-0.0058521
-0.00543939
-0.00350902
-0.002964
4.14783e-05
-7.03412
-4.85531
-3.45935
-2.38306
-1.62468
-1.06798
-0.667055
-0.38161
-0.182411
-0.0471408
0.0412356
0.095626
0.125811
0.139087
0.140868
0.135103
0.124667
0.111604
0.0973665