/*--------------------------------*- C++ -*----------------------------------*\
| =========                 |                                                 |
| \\      /  F ield         | OpenFOAM: The Open Source CFD Toolbox           |
|  \\    /   O peration     | Version:  v1912                                 |
|   \\  /    A nd           | Website:  www.openfoam.com                      |
|    \\/     M anipulation  |                                                 |
\*---------------------------------------------------------------------------*/
FoamFile
{
    version     2.0;
    format      ascii;
    class       surfaceScalarField;
    location    "73";
    object      phi;
}
// * * * * * * * * * * * * * * * * * * * * * * * * * * * * * * * * * * * * * //

dimensions      [0 3 -1 0 0 0 0];
oriented        oriented;


internalField   nonuniform List<scalar> 
18940
(
0.0003585
-0.234358
0.234
0.00137985
-0.216315
0.215294
0.00288457
-0.20478
0.203275
0.0047021
-0.197
0.195182
0.00670154
-0.191248
0.189249
0.00878113
-0.186458
0.184379
0.010867
-0.182041
0.179955
0.0129097
-0.1777
0.175658
0.0148791
-0.173313
0.171344
0.0167597
-0.16885
0.166969
0.0185468
-0.164331
0.162544
0.0202429
-0.159801
0.158105
0.021855
-0.155306
0.153694
0.0233929
-0.150891
0.149353
0.0248679
-0.146591
0.145116
0.0262916
-0.142431
0.141007
0.0276756
-0.138423
0.137039
0.0290303
-0.134565
0.13321
0.0303642
-0.130838
0.129504
-0.127201
0.125882
0.0316826
0.000381931
-0.23474
0.00142317
-0.217356
0.00293862
-0.206295
0.00476045
-0.198822
0.00675435
-0.193242
0.00881859
-0.188523
0.0108806
-0.184103
0.0128925
-0.179712
0.014826
-0.175246
0.0166674
-0.170691
0.0184138
-0.166078
0.0200687
-0.161456
0.0216403
-0.156878
0.0231391
-0.15239
0.0245767
-0.148028
0.025965
-0.143819
0.027316
-0.139774
0.0286403
-0.135889
0.029947
-0.132144
-0.128496
0.031242
0.000403361
-0.235143
0.00146083
-0.218414
0.00298499
-0.20782
0.00480738
-0.200644
0.00679208
-0.195227
0.00883733
-0.190568
0.0108718
-0.186137
0.0128494
-0.18169
0.0147438
-0.177141
0.0165434
-0.172491
0.0182465
-0.167781
0.0198581
-0.163068
0.0213874
-0.158407
0.0228455
-0.153848
0.0242442
-0.149427
0.025596
-0.145171
0.0269126
-0.14109
0.0282053
-0.137182
0.0294834
-0.133423
-0.129766
0.0307538
0.000417239
-0.235561
0.00148976
-0.219486
0.00302178
-0.209352
0.00484215
-0.202465
0.00681429
-0.197199
0.00883697
-0.192591
0.0108404
-0.188141
0.0127805
-0.18363
0.0146329
-0.178993
0.0163879
-0.174246
0.0180456
-0.169438
0.0196121
-0.164634
0.0210975
-0.159892
0.0225134
-0.155263
0.0238721
-0.150786
0.0251861
-0.146485
0.0264673
-0.142372
0.0277273
-0.138442
0.028976
-0.134671
-0.131011
0.030221
0.000428512
-0.235989
0.00151329
-0.220571
0.00305033
-0.210889
0.00486542
-0.20428
0.00682143
-0.199155
0.00881798
-0.194587
0.010787
-0.19011
0.0126863
-0.185529
0.014494
-0.180801
0.0162021
-0.175954
0.0178122
-0.171049
0.0193318
-0.166154
0.0207718
-0.161332
0.0221443
-0.156636
0.0234619
-0.152103
0.024737
-0.14776
0.0259819
-0.143617
0.0272082
-0.139669
0.0284266
-0.13589
-0.13223
0.0296455
0.000437607
-0.236427
0.00153184
-0.221665
0.00307089
-0.212428
0.00487741
-0.206086
0.00681381
-0.201092
0.00878076
-0.196554
0.010712
-0.192041
0.0125677
-0.187385
0.0143279
-0.182561
0.0159867
-0.177612
0.0175473
-0.172609
0.0190184
-0.167625
0.0204116
-0.162726
0.0217394
-0.157964
0.0230147
-0.153379
0.0242499
-0.148995
0.0254575
-0.144824
0.0266493
-0.14086
0.0278364
-0.137077
-0.133422
0.0290285
0.00044509
-0.236872
0.00154609
-0.222766
0.00308404
-0.213966
0.00487862
-0.207881
0.00679195
-0.203005
0.00872589
-0.198488
0.0106162
-0.193931
0.0124253
-0.189194
0.0141356
-0.184271
0.0157429
-0.17922
0.0172521
-0.174118
0.018673
-0.169046
0.020018
-0.164071
0.0212999
-0.159246
0.0225318
-0.15461
0.0237261
-0.150189
0.0248952
-0.145993
0.0260514
-0.142017
0.0272063
-0.138232
-0.134587
0.0283707
0.000451115
-0.237323
0.00155635
-0.223872
0.00309017
-0.215499
0.00486952
-0.20966
0.0067564
-0.204892
0.00865406
-0.200386
0.0105004
-0.195778
0.0122602
-0.190954
0.013918
-0.185929
0.0154717
-0.180773
0.0169276
-0.175574
0.0182967
-0.170415
0.019592
-0.165366
0.0208268
-0.160481
0.022014
-0.155798
0.0231661
-0.151342
0.0242955
-0.147123
0.0254148
-0.143136
0.0265363
-0.139353
-0.135722
0.0276719
0.00045579
-0.237779
0.00156293
-0.224979
0.00308974
-0.217026
0.00485068
-0.211421
0.00670785
-0.206749
0.00856608
-0.202244
0.0103655
-0.197577
0.0120733
-0.192662
0.0136763
-0.187532
0.0151743
-0.182271
0.0165751
-0.176975
0.0178908
-0.171731
0.0191349
-0.16661
0.020321
-0.161667
0.0214621
-0.156939
0.0225705
-0.15245
0.0236587
-0.148211
0.0247394
-0.144216
0.0258258
-0.14044
-0.136828
0.0269312
0.000459187
-0.238238
0.00156609
-0.226086
0.00308321
-0.218543
0.00482274
-0.213161
0.00664711
-0.208573
0.00846293
-0.20406
0.0102127
-0.199327
0.011866
-0.194315
0.013412
-0.189078
0.0148522
-0.183712
0.016196
-0.178319
0.0174564
-0.172991
0.0186476
-0.167801
0.0197833
-0.162802
0.0208766
-0.158032
0.0219396
-0.153513
0.0229846
-0.149256
0.0240245
-0.145256
0.0250736
-0.141489
-0.137901
0.0261467
0.000461412
-0.238699
0.00156619
-0.22719
0.00307116
-0.220048
0.00478645
-0.214876
0.00657513
-0.210362
0.00834574
-0.20583
0.0100432
-0.201024
0.0116397
-0.195912
0.0131264
-0.190565
0.0145069
-0.185092
0.0157919
-0.179604
0.0169951
-0.174194
0.0181315
-0.168937
0.0192149
-0.163886
0.0202582
-0.159075
0.0212735
-0.154528
0.0222727
-0.150255
0.0232691
-0.146253
0.0242779
-0.142497
-0.138939
0.0253159
0.000462621
-0.239162
0.00156367
-0.228291
0.00305428
-0.221539
0.00474273
-0.216564
0.00649303
-0.212112
0.00821585
-0.207553
0.00985865
-0.202667
0.0113961
-0.197449
0.0128216
-0.19199
0.0141404
-0.186411
0.0153645
-0.180828
0.0165086
-0.175339
0.017588
-0.170017
0.0186168
-0.164915
0.0196077
-0.160066
0.0205724
-0.155493
0.0215227
-0.151205
0.0224719
-0.147202
0.0234365
-0.143462
-0.139938
0.0244356
0.000463095
-0.239625
0.00155916
-0.229387
0.00303342
-0.223013
0.00469264
-0.218223
0.00640209
-0.213822
0.00807478
-0.209226
0.00966076
-0.204253
0.0111372
-0.198926
0.0124995
-0.193353
0.0137548
-0.187666
0.0149161
-0.181989
0.015999
-0.176421
0.0170191
-0.171037
0.0179906
-0.165886
0.018926
-0.161002
0.0198368
-0.156404
0.0207342
-0.152103
0.0216318
-0.1481
0.0225472
-0.144377
-0.140893
0.0235019
0.000463311
-0.240088
0.0015535
-0.230478
0.00300964
-0.224469
0.00463743
-0.219851
0.00630381
-0.215488
0.00792429
-0.210846
0.00945157
-0.20578
0.0108652
-0.200339
0.0121628
-0.19465
0.0133529
-0.188856
0.0144497
-0.183086
0.0154692
-0.177441
0.0164273
-0.171995
0.0173384
-0.166797
0.0182147
-0.161878
0.0190672
-0.157256
0.0199067
-0.152942
0.0207467
-0.14894
0.0216058
-0.145237
-0.141795
0.0225085
0.00046407
-0.240552
0.00154787
-0.231561
0.00298415
-0.225906
0.00457846
-0.221446
0.00619978
-0.217109
0.00776629
-0.212413
0.00923334
-0.207247
0.0105829
-0.201689
0.0118146
-0.195882
0.0129382
-0.18998
0.0139688
-0.184117
0.0149229
-0.178395
0.0158165
-0.172889
0.0166637
-0.167644
0.0174764
-0.162691
0.0182651
-0.158045
0.0190398
-0.153717
0.0198137
-0.149713
0.020606
-0.146029
-0.142636
0.0214471
0.000466521
-0.241019
0.00154357
-0.232639
0.00295816
-0.22732
0.00451709
-0.223005
0.00609171
-0.218684
0.00760286
-0.213924
0.00900857
-0.208653
0.0102932
-0.202973
0.0114581
-0.197047
0.0125144
-0.191036
0.0134779
-0.18508
0.0143652
-0.179282
0.0151921
-0.173716
0.0159723
-0.168425
0.0167171
-0.163436
0.0174359
-0.158764
0.0181378
-0.154419
0.0188346
-0.15041
0.0195471
-0.146741
-0.143404
0.0203142
0.000472054
-0.241491
0.00154192
-0.233708
0.00293299
-0.228711
0.00445489
-0.224526
0.00598145
-0.220211
0.00743619
-0.215379
0.00877988
-0.209997
0.00999918
-0.204193
0.0110972
-0.198145
0.0120861
-0.192025
0.0129821
-0.185976
0.0138018
-0.180102
0.0145606
-0.174474
0.0152715
-0.169135
0.0159449
-0.164109
0.0165889
-0.159408
0.0172113
-0.155041
0.017822
-0.151021
0.0184416
-0.147361
-0.144072
0.01911
0.000483001
-0.241974
0.00154554
-0.234771
0.00291112
-0.230077
0.00439397
-0.226009
0.00587094
-0.221688
0.00726839
-0.216776
0.00854981
-0.211278
0.00970413
-0.205347
0.010736
-0.199177
0.0116584
-0.192948
0.0124876
-0.186805
0.0132398
-0.180854
0.0139294
-0.175164
0.0145682
-0.169774
0.0151655
-0.164706
0.0157286
-0.159971
0.016264
-0.155577
0.0167781
-0.151535
0.0172837
-0.147867
-0.144593
0.0178049
0.000506938
-0.242481
0.00156164
-0.235826
0.0028966
-0.231412
0.00433625
-0.227449
0.00576145
-0.223113
0.00710089
-0.218116
0.00832041
-0.212498
0.00941098
-0.206438
0.0103787
-0.200144
0.0112372
-0.193806
0.0120024
-0.187571
0.0126897
-0.181542
0.0133116
-0.175786
0.013877
-0.17034
0.0143919
-0.165221
0.01486
-0.160439
0.015283
-0.156
0.01566
-0.151912
0.0159954
-0.148202
-0.144949
0.0163511
0.000563984
-0.243045
0.00159854
-0.23686
0.00288918
-0.232702
0.00428054
-0.22884
0.0056525
-0.224485
0.0069341
-0.219397
0.00809296
-0.213657
0.00912202
-0.207467
0.0100289
-0.201051
0.010828
-0.194605
0.0115355
-0.188278
0.0121657
-0.182172
0.0127293
-0.176349
0.0132319
-0.170842
0.0136733
-0.165662
0.0140461
-0.160812
0.0143333
-0.156287
0.014509
-0.152088
0.0145679
-0.148261
-0.145121
0.0147397
0.250731
0.000415224
-0.251147
0.250342
0.00038887
0.249961
0.000381606
0.249579
0.000381743
0.249194
0.000384693
0.248805
0.000389109
0.248411
0.000394268
0.248011
0.000399577
0.247607
0.000404647
0.247198
0.000409274
0.246784
0.00041336
0.246367
0.000416876
0.245948
0.000419808
0.245525
0.000422134
0.245102
0.000423726
0.244677
0.000424377
0.244254
0.000423044
0.243835
0.000419179
0.243431
0.000403577
0.000386492
0.252708
0.00102398
-0.253317
0.252064
0.00103322
0.251391
0.00105434
0.250691
0.00108135
0.249966
0.00110973
0.249217
0.00113813
0.248445
0.00116606
0.247652
0.00119304
0.246838
0.00121864
0.246005
0.00124261
0.245153
0.00126483
0.244285
0.00128528
0.243401
0.00130396
0.242502
0.00132086
0.24159
0.00133583
0.240665
0.00134868
0.23973
0.00135831
0.238785
0.00136443
0.237828
0.00136078
0.00135402
0.251493
0.0015962
-0.252066
0.250856
0.00167017
0.250166
0.00174435
0.249428
0.00181963
0.248644
0.00189367
0.247817
0.00196524
0.246949
0.00203402
0.246042
0.00209977
0.245099
0.00216227
0.24412
0.00222135
0.243108
0.00227694
0.242064
0.00232912
0.24099
0.00237796
0.239887
0.00242356
0.238757
0.00246594
0.237601
0.00250515
0.236418
0.00254068
0.23521
0.00257273
0.233972
0.00259894
0.00262351
0.24739
0.00203982
-0.247834
0.246877
0.00218347
0.246299
0.0023225
0.24566
0.00245834
0.244963
0.00259035
0.244211
0.00271772
0.243405
0.00284011
0.242547
0.00295739
0.24164
0.00306939
0.240685
0.00317604
0.239685
0.00327736
0.238641
0.0033735
0.237554
0.00346464
0.236426
0.00355106
0.235259
0.00363305
0.234054
0.00371099
0.232809
0.00378494
0.231526
0.00385554
0.230203
0.00392208
0.00398656
0.241143
0.00231898
-0.241423
0.240793
0.00253395
0.240373
0.00274216
0.239887
0.00294443
0.239337
0.00314073
0.238724
0.0033306
0.23805
0.0035137
0.237318
0.00368986
0.236528
0.00385893
0.235683
0.00402089
0.234785
0.00417582
0.233835
0.00432391
0.232834
0.00446548
0.231784
0.00460101
0.230686
0.00473104
0.22954
0.00485626
0.228348
0.00497726
0.227109
0.00509501
0.225821
0.00520967
0.00532292
0.233546
0.00244234
-0.23367
0.233352
0.00272795
0.233089
0.00300562
0.232757
0.00327567
0.23236
0.00353811
0.231898
0.00379265
0.231373
0.00403897
0.230786
0.00427682
0.230139
0.00450607
0.229433
0.00472669
0.22867
0.00493879
0.227851
0.00514262
0.226978
0.00533859
0.226052
0.00552737
0.225073
0.00570976
0.224042
0.00588676
0.22296
0.00605945
0.221826
0.00622923
0.220639
0.00639694
0.00656441
0.225303
0.00244048
-0.225301
0.225236
0.00279416
0.225103
0.00313916
0.224903
0.00347541
0.224638
0.00380283
0.22431
0.00412115
0.223919
0.00443003
0.223467
0.0047292
0.222954
0.00501848
0.222383
0.00529782
0.221754
0.00556732
0.22107
0.00582726
0.22033
0.00607818
0.219537
0.00632087
0.21869
0.00655639
0.217791
0.00678611
0.216839
0.0070116
0.215833
0.00723475
0.214773
0.00745711
0.00768083
0.216941
0.00234963
-0.21685
0.216967
0.00276782
0.21693
0.00317674
0.216829
0.00357608
0.216666
0.00396564
0.216442
0.00434509
0.216158
0.00471406
0.215815
0.00507222
0.215414
0.00541934
0.214957
0.00575533
0.214444
0.00608025
0.213877
0.0063944
0.213256
0.00669837
0.212584
0.0069931
0.211861
0.00727989
0.211086
0.00756049
0.210261
0.00783703
0.209384
0.00811202
0.208453
0.00838781
0.00866711
0.208808
0.00220309
-0.208661
0.208894
0.00268202
0.208919
0.00315111
0.208886
0.0036099
0.208793
0.00405808
0.208643
0.00449526
0.208436
0.00492101
0.208173
0.0053349
0.207856
0.00573665
0.207485
0.00612609
0.207062
0.00650322
0.206588
0.00686833
0.206065
0.00722202
0.205493
0.00756531
0.204873
0.00789976
0.204206
0.0082275
0.203491
0.00855128
0.202729
0.00887439
0.201917
0.00920027
0.00953244
0.201105
0.00202789
-0.200929
0.201223
0.00256397
0.201284
0.00308963
0.20129
0.00360432
0.20124
0.00410762
0.201136
0.00459904
0.200979
0.00507807
0.20077
0.00554422
0.20051
0.00599709
0.200199
0.00643642
0.19984
0.00686212
0.199434
0.00727437
0.198983
0.00767377
0.198486
0.00806134
0.197947
0.00843886
0.197366
0.00880879
0.196743
0.00917464
0.196077
0.00954059
0.195365
0.00991158
0.0102924
0.193924
0.00184388
-0.19374
0.194054
0.002434
0.19413
0.00301311
0.194154
0.00358056
0.194126
0.00413582
0.194047
0.0046783
0.193917
0.00520741
0.193739
0.00572255
0.193513
0.00622321
0.19324
0.00670899
0.192923
0.00717966
0.192562
0.00763525
0.192159
0.00807624
0.191717
0.00850357
0.191237
0.00891916
0.19072
0.00932569
0.190167
0.00972758
0.189578
0.0101299
0.188949
0.0105398
0.0109638
0.187289
0.00166449
-0.187109
0.187416
0.00230613
0.187493
0.00293617
0.18752
0.00355379
0.187498
0.00415835
0.187427
0.00474922
0.187308
0.00532566
0.187144
0.00588698
0.186935
0.00643253
0.186682
0.00696172
0.186387
0.00747415
0.186053
0.00796961
0.185681
0.00844837
0.185273
0.00891111
0.184833
0.00935979
0.184361
0.00979703
0.183861
0.0102284
0.183331
0.0106595
0.18277
0.0111012
0.0115616
0.181179
0.00149803
-0.181013
0.181296
0.00218936
0.181364
0.00286833
0.181383
0.00353404
0.181356
0.00418582
0.181282
0.00482289
0.181164
0.00544445
0.181001
0.00604966
0.180796
0.00663771
0.18055
0.00720783
0.180264
0.00775935
0.179942
0.00829174
0.179586
0.00880495
0.179198
0.00929918
0.178781
0.00977629
0.17834
0.0102383
0.177876
0.0106923
0.177392
0.0111435
0.176885
0.0116086
0.0120968
0.175553
0.00134936
-0.175404
0.175653
0.00208884
0.175706
0.00281518
0.175713
0.00352742
0.175674
0.00422477
0.175591
0.00490637
0.175464
0.0055713
0.175295
0.0062186
0.175085
0.00684729
0.174837
0.00745637
0.174551
0.00804489
0.174231
0.00861189
0.173879
0.00915687
0.173499
0.00967929
0.173095
0.0101807
0.172671
0.0106617
0.172232
0.0111313
0.171783
0.0115923
0.171321
0.0120714
0.0125751
0.170358
0.00122074
-0.170229
0.170439
0.00200728
0.170475
0.00277973
0.170465
0.00353721
0.170411
0.00427881
0.170314
0.00500358
0.170174
0.00571051
0.169994
0.0063985
0.169775
0.00706639
0.169519
0.00771296
0.169227
0.0083369
0.168902
0.0089368
0.168547
0.00951155
0.168167
0.0100596
0.167766
0.0105818
0.167351
0.0110765
0.166927
0.0115547
0.166507
0.012013
0.166083
0.0124954
0.0129954
0.165539
0.00111294
-0.165431
0.1656
0.00194546
0.165617
0.00276297
0.16559
0.00356458
0.165519
0.00434931
0.165407
0.00511612
0.165253
0.0058639
0.16506
0.00659143
0.164829
0.00729739
0.164562
0.00798029
0.164261
0.00863852
0.163927
0.00927011
0.163565
0.0098733
0.16318
0.0104452
0.162776
0.0109858
0.162363
0.0114895
0.161948
0.0119699
0.16155
0.0124104
0.161162
0.0128841
0.0133456
0.161044
0.00102547
-0.160956
0.161086
0.00190291
0.161085
0.00276447
0.16104
0.00360916
0.160953
0.00443596
0.160826
0.00524372
0.160659
0.00603128
0.160453
0.00679729
0.16021
0.00754028
0.159932
0.00825855
0.15962
0.00895014
0.159277
0.00961262
0.158907
0.0102435
0.158514
0.0108383
0.158104
0.0113958
0.157689
0.0119049
0.157277
0.012382
0.1569
0.0127873
0.156541
0.0132425
0.0135997
0.156825
0.000956483
-0.156756
0.15685
0.00187807
0.156832
0.00278251
0.156772
0.00366913
0.156671
0.00453678
0.156531
0.00538428
0.156352
0.00621038
0.156135
0.00701368
0.155883
0.00779256
0.155597
0.00854513
0.155278
0.00926918
0.154928
0.00996183
0.154552
0.0106199
0.154153
0.0112376
0.153737
0.0118118
0.153317
0.0123249
0.152904
0.0127943
0.152549
0.013143
0.152215
0.0135765
0.0137267
0.152841
0.00090403
-0.152789
0.152851
0.00186809
0.15282
0.00281389
0.152748
0.00374088
0.152637
0.00464776
0.152488
0.00553333
0.152302
0.00639632
0.152081
0.00723527
0.151825
0.00804845
0.151536
0.00883385
0.151216
0.00958906
0.150867
0.0103109
0.150491
0.0109957
0.150092
0.0116364
0.149675
0.0122288
0.149253
0.0127475
0.148836
0.0132104
0.148502
0.0134777
0.148209
0.0138695
0.0136748
0.149052
-0.149014
0.000866551
0.149051
0.00186902
0.14901
0.00285421
0.148932
0.00381934
0.148817
0.00476305
0.148666
0.00568426
0.14848
0.0065817
0.148262
0.00745384
0.148011
0.00829891
0.14773
0.00911481
0.14742
0.00989908
0.147083
0.0106483
0.14672
0.0113589
0.146334
0.0120225
0.145927
0.0126353
0.14551
0.0131651
0.145086
0.013634
0.144735
0.0138286
0.144477
0.0141274
0.0130313
0.254371
7.40849e-05
-0.254445
0.254335
3.64024e-05
0.254302
3.25756e-05
0.25426
4.15147e-05
0.254205
5.59529e-05
0.254131
7.38113e-05
0.254037
9.37876e-05
0.253922
0.000114757
0.253786
0.000135906
0.25363
0.000156727
0.253453
0.000176779
0.253257
0.000195784
0.253043
0.00021424
0.25281
0.00023321
0.252559
0.000250502
0.252293
0.000265679
0.252015
0.000278346
0.251727
0.00028841
0.251437
0.00029001
0.000290024
0.256238
-0.000241599
-0.255923
0.256492
-0.000217603
0.256702
-0.000176652
0.256866
-0.000122826
0.256985
-6.2637e-05
0.257057
1.30912e-06
0.257083
6.78701e-05
0.257062
0.000135955
0.256993
0.000204639
0.256877
0.000272985
0.256714
0.000339751
0.256506
0.000403691
0.256257
0.00046356
0.255959
0.000531072
0.255616
0.000592771
0.255232
0.000649932
0.254808
0.000702398
0.254346
0.000750099
0.253848
0.000788381
0.000821466
0.251676
-0.000898495
-0.251019
0.25226
-0.00080155
0.252778
-0.000694752
0.253233
-0.000578271
0.253626
-0.00045562
0.253957
-0.000329042
0.254224
-0.000199684
0.254429
-6.89509e-05
0.254571
6.31649e-05
0.254648
0.00019608
0.254661
0.00032596
0.254613
0.000452435
0.254498
0.000577804
0.254327
0.000702927
0.254095
0.000823854
0.253806
0.000939767
0.253458
0.0010502
0.253053
0.00115503
0.252589
0.00125233
0.00134488
0.243358
-0.00183448
-0.242422
0.244221
-0.00166475
0.245014
-0.00148775
0.245738
-0.00130275
0.246394
-0.00111141
0.246981
-0.000915544
0.247498
-0.000716501
0.247944
-0.000515543
0.248321
-0.00031336
0.248624
-0.000107173
0.248855
9.47916e-05
0.249018
0.000289589
0.249109
0.000486305
0.249132
0.00068
0.249087
0.000869605
0.248972
0.00105421
0.248789
0.00123308
0.248538
0.00140583
0.248219
0.00157142
0.00173039
0.233275
-0.00296943
-0.23214
0.234341
-0.00273146
0.23534
-0.00248598
0.23627
-0.00223255
0.23713
-0.00197209
0.237921
-0.00170612
0.23864
-0.00143603
0.239288
-0.00116306
0.239863
-0.000888167
0.240368
-0.00061213
0.240801
-0.000338184
0.241158
-6.77329e-05
0.241443
0.000201289
0.241656
0.000466974
0.241797
0.00072893
0.241865
0.000985713
0.241862
0.00123659
0.241786
0.00148097
0.24164
0.00171803
0.00194772
0.222718
-0.00423093
-0.221456
0.223916
-0.00392959
0.225049
-0.00361918
0.226116
-0.00329983
0.227117
-0.00297236
0.228049
-0.0026382
0.228912
-0.00229892
0.229705
-0.00195598
0.230427
-0.00161083
0.23108
-0.00126482
0.231661
-0.000919503
0.23217
-0.000576174
0.232607
-0.000235694
0.232973
0.000100404
0.233269
0.000433596
0.233492
0.000762764
0.233643
0.00108524
0.233723
0.00140095
0.233732
0.00170925
0.00200992
0.212472
-0.00556135
-0.211142
0.213743
-0.00520084
0.214953
-0.00482914
0.2161
-0.00444689
0.217183
-0.00405514
0.2182
-0.0036555
0.219151
-0.00324979
0.220035
-0.00283973
0.220851
-0.002427
0.221599
-0.00201303
0.222279
-0.00159923
0.22289
-0.00118702
0.223432
-0.0007772
0.223902
-0.000370495
0.224311
2.543e-05
0.224647
0.000426824
0.224913
0.000818607
0.225111
0.00120306
0.22524
0.00158011
0.00194936
0.202949
-0.00691888
-0.201591
0.204251
-0.00650252
0.205494
-0.00607257
0.206677
-0.00563005
0.207799
-0.00517646
0.208857
-0.00471379
0.209851
-0.0042442
0.210781
-0.00376968
0.211646
-0.00329208
0.212446
-0.00281302
0.213181
-0.00233398
0.21385
-0.00185632
0.214454
-0.00138112
0.214993
-0.000909333
0.215461
-0.000442324
0.215874
1.37687e-05
0.216215
0.000477389
0.216492
0.00092624
0.216703
0.00136853
0.00180292
0.194307
-0.00827571
-0.19295
0.19561
-0.00780604
0.196858
-0.00732008
0.198047
-0.00681917
0.199176
-0.00630548
0.200244
-0.00578159
0.20125
-0.00525008
0.202193
-0.00471328
0.203075
-0.00417323
0.203893
-0.00363173
0.20465
-0.0030903
0.205344
-0.0025503
0.205975
-0.00201288
0.206545
-0.00147899
0.207053
-0.000950025
0.207494
-0.000427297
0.20788
9.07075e-05
0.208202
0.000604519
0.208462
0.00110818
0.00160397
0.186554
-0.00961506
-0.185214
0.187842
-0.00909404
0.189075
-0.00855355
0.190251
-0.0079953
0.191368
-0.00742246
0.192425
-0.00683845
0.193421
-0.00624635
0.194357
-0.00564885
0.195232
-0.00504824
0.196047
-0.00444643
0.196801
-0.00384498
0.197496
-0.00324521
0.198132
-0.00264827
0.198708
-0.00205512
0.199225
-0.00146676
0.199681
-0.000884099
0.20008
-0.000307873
0.200422
0.000262343
0.200705
0.000825571
0.0013793
0.179617
-0.0109282
-0.178304
0.180881
-0.0103576
0.182091
-0.00976335
0.183243
-0.00914797
0.184337
-0.00851618
0.185371
-0.00787246
0.186345
-0.00722049
0.18726
-0.00656335
0.188115
-0.00590355
0.188912
-0.00524307
0.18965
-0.00458347
0.190331
-0.003926
0.190954
-0.00327173
0.191521
-0.00262159
0.19203
-0.00197642
0.192483
-0.0013371
0.19288
-0.000704129
0.193222
-8.04561e-05
0.193509
0.000539269
0.00114823
0.173393
-0.0122122
-0.172109
0.174629
-0.0115937
0.175811
-0.0109458
0.176936
-0.0102727
0.178002
-0.00958151
0.179007
-0.00887792
0.179953
-0.00816628
0.18084
-0.00745008
0.181668
-0.00673204
0.182439
-0.00601411
0.183153
-0.00529778
0.183812
-0.00458419
0.184414
-0.00387431
0.184962
-0.00316899
0.185454
-0.00246901
0.185892
-0.00177519
0.186276
-0.00108828
0.186606
-0.000409863
0.186885
0.000260254
0.000923861
0.167771
-0.0134679
-0.166515
0.168981
-0.0128038
0.170137
-0.0121016
0.171233
-0.0113692
0.172269
-0.0106175
0.173245
-0.0098533
0.17416
-0.0090817
0.175017
-0.00830663
0.175816
-0.00753089
0.176558
-0.00675634
0.177244
-0.0059843
0.177876
-0.00521576
0.178453
-0.00445155
0.178977
-0.00369243
0.179447
-0.00293911
0.179864
-0.00219239
0.180228
-0.00145276
0.180539
-0.000720935
0.180803
-3.70227e-06
0.000714541
0.162652
-0.0146989
-0.161421
0.163841
-0.0139926
0.164973
-0.013234
0.166044
-0.0124399
0.167052
-0.0116258
0.167998
-0.0107996
0.168884
-0.00996719
0.16971
-0.00913297
0.170479
-0.00829969
0.171192
-0.00746898
0.171849
-0.00664192
0.172453
-0.00581926
0.173003
-0.00500167
0.1735
-0.00418976
0.173945
-0.00338418
0.174339
-0.00258568
0.174681
-0.00179489
0.174973
-0.00101314
0.175211
-0.000242218
0.000521899
0.157952
-0.0159121
-0.156739
0.159127
-0.0151678
0.160242
-0.0143489
0.161291
-0.0134892
0.162275
-0.0126095
0.163194
-0.0117187
0.164051
-0.0108238
0.164847
-0.00992966
0.165586
-0.00903862
0.166269
-0.00815196
0.166898
-0.00727036
0.167473
-0.00639427
0.167995
-0.00552408
0.168466
-0.00466025
0.168885
-0.00380334
0.169253
-0.00295404
0.169571
-0.0021131
0.16984
-0.00128146
0.170058
-0.000460254
0.000350775
0.153609
-0.01712
-0.152401
0.154781
-0.0163396
0.155885
-0.015453
0.156917
-0.0145218
0.157879
-0.0135709
0.158771
-0.0126113
0.159599
-0.0116515
0.160365
-0.0106962
0.161074
-0.00974705
0.161727
-0.00880471
0.162325
-0.00786921
0.162872
-0.0069405
0.163366
-0.0060186
0.16381
-0.00510378
0.164203
-0.00419647
0.164546
-0.00329729
0.16484
-0.00240698
0.165085
-0.00152636
0.165281
-0.000656638
0.000201226
0.149576
-0.0183517
-0.148345
0.15076
-0.0175235
0.15186
-0.0165528
0.152878
-0.0155402
0.153816
-0.0145088
0.154679
-0.0134741
0.155475
-0.0124468
0.156208
-0.0114297
0.156884
-0.0104229
0.157505
-0.00942585
0.158074
-0.00843769
0.158591
-0.00745763
0.159057
-0.00648526
0.159474
-0.00552061
0.159842
-0.00456398
0.16016
-0.00361592
0.160431
-0.00267718
0.160653
-0.00174864
0.160828
-0.000831277
7.25701e-05
0.145825
-0.0196718
-0.144505
0.147043
-0.0187411
0.148139
-0.017649
0.149138
-0.0165391
0.150044
-0.0154148
0.150869
-0.0142991
0.151626
-0.0132034
0.152322
-0.0121259
0.152962
-0.0110635
0.153551
-0.010014
0.154088
-0.00897535
0.154576
-0.00794585
0.155016
-0.00692467
0.155407
-0.0059116
0.15575
-0.00490688
0.156045
-0.00391107
0.156293
-0.00292494
0.156494
-0.00194954
0.156648
-0.000985851
-3.5818e-05
0.142372
-0.0211503
-0.140893
0.143621
-0.0199901
0.144695
-0.0187231
0.145652
-0.017496
0.146509
-0.0162722
0.147285
-0.0150754
0.147996
-0.0139144
0.148652
-0.0127809
0.149255
-0.0116674
0.149811
-0.0105692
0.150318
-0.00948298
0.150779
-0.00840639
0.151192
-0.00733824
0.151559
-0.00627828
0.151879
-0.00522682
0.152152
-0.00418446
0.15238
-0.00315205
0.152561
-0.00213077
0.152697
-0.00112211
-0.000127609
0.139285
-0.137867
-0.0225688
0.140447
-0.0211524
0.141482
-0.0197571
0.142359
-0.0183731
0.143148
-0.0170615
0.143872
-0.0157991
0.144537
-0.0145795
0.145151
-0.0133956
0.14572
-0.0122364
0.146245
-0.0110935
0.146724
-0.00996258
0.147159
-0.00884093
0.147548
-0.00772745
0.147892
-0.00662202
0.14819
-0.00552512
0.148443
-0.00443752
0.148651
-0.00336019
0.148815
-0.00229415
0.148934
-0.00124097
-0.000208143
0.0308464
0.112056
-0.110571
-0.032331
0.0293344
0.115058
-0.113546
0.0277922
0.118192
-0.11665
0.0262165
0.121482
-0.119907
0.0246038
0.124961
-0.123348
0.0229513
0.128669
-0.127017
0.0212571
0.132667
-0.130972
0.0195197
0.137032
-0.135294
0.0177385
0.141869
-0.140088
0.0159139
0.147309
-0.145484
0.0140475
0.153513
-0.151647
0.0121438
0.160669
-0.158765
0.0102114
0.168977
-0.167045
0.00826737
0.178626
-0.176682
0.00634138
0.18974
-0.187814
0.00448368
0.202281
-0.200423
0.00277408
0.215913
-0.214204
0.00133317
0.22978
-0.228339
0.000330376
0.242097
-0.241094
0.24973
-0.249399
0.0306569
0.113533
-0.0321339
0.0291525
0.116562
0.0276182
0.119726
0.0260505
0.12305
0.0244461
0.126565
0.0228021
0.130313
0.0211163
0.134353
0.0193871
0.138761
0.0176139
0.143642
0.0157969
0.149126
0.013938
0.155372
0.012042
0.162565
0.0101181
0.170901
0.00818392
0.180561
0.00627058
0.191653
0.00442974
0.204122
0.0027427
0.2176
0.00132948
0.231193
0.000354134
0.243073
0.250084
0.0304254
0.115
-0.0318927
0.0289309
0.118057
0.0274067
0.121251
0.0258493
0.124607
0.0242553
0.128159
0.0226219
0.131947
0.0209466
0.136028
0.0192279
0.14048
0.017465
0.145405
0.0156581
0.150933
0.0138092
0.157221
0.0119232
0.164451
0.0100102
0.172814
0.00808838
0.182482
0.00618985
0.193551
0.0043673
0.205944
0.00270257
0.219265
0.00131403
0.232582
0.000357203
0.244029
0.250441
0.0301537
0.116455
-0.031609
0.0286712
0.119539
0.0271591
0.122763
0.0256141
0.126152
0.0240326
0.129741
0.0224117
0.133568
0.0207491
0.13769
0.019043
0.142186
0.0172925
0.147156
0.0154978
0.152728
0.0136612
0.159058
0.0117877
0.166325
0.00988774
0.174714
0.00798045
0.18439
0.00609863
0.195433
0.00429571
0.207747
0.00265369
0.220907
0.00128928
0.233946
0.000352132
0.244967
0.250793
0.0298439
0.117897
-0.0312854
0.0283753
0.121008
0.0268773
0.124261
0.0253464
0.127683
0.0237793
0.131308
0.0221728
0.135174
0.0205247
0.139338
0.0188331
0.143877
0.017097
0.148892
0.0153167
0.154508
0.0134943
0.16088
0.0116354
0.168183
0.00975079
0.176599
0.00786012
0.18628
0.00599702
0.197296
0.00421557
0.209529
0.00259781
0.222525
0.00125881
0.235285
0.000343206
0.245882
0.251136
0.0294987
0.119323
-0.0309248
0.0280455
0.122461
0.0265632
0.125743
0.025048
0.129199
0.0234967
0.132859
0.0219064
0.136764
0.0202744
0.14097
0.018599
0.145553
0.0168791
0.150612
0.015115
0.156272
0.013309
0.162686
0.0114668
0.170026
0.00959952
0.178466
0.00772763
0.188152
0.00588538
0.199139
0.00412751
0.211287
0.00253594
0.224117
0.00122399
0.236597
0.000331593
0.246775
0.251468
0.0291207
0.120733
-0.0305305
0.0276842
0.123897
0.0262187
0.127208
0.0247205
0.130697
0.0231864
0.134393
0.0216135
0.138337
0.0199992
0.142585
0.0183416
0.14721
0.0166396
0.152314
0.0148934
0.158018
0.0131056
0.164474
0.011282
0.171849
0.00943425
0.180314
0.00758326
0.190003
0.00576405
0.200958
0.00403188
0.213019
0.0024685
0.22568
0.00118537
0.23788
0.000318001
0.247642
0.251786
0.028713
0.122126
-0.0301057
0.0272938
0.125317
0.0258459
0.128656
0.0243656
0.132177
0.0228498
0.135909
0.0212953
0.139892
0.0196999
0.14418
0.0180614
0.148849
0.0163788
0.153996
0.0146524
0.159745
0.0128846
0.166242
0.0110815
0.173652
0.00925525
0.18214
0.00742729
0.191831
0.00563329
0.202752
0.00392898
0.214723
0.00239585
0.227213
0.00114348
0.239133
0.000303031
0.248482
0.252089
0.0282784
0.123501
-0.0296541
0.0268766
0.126718
0.0254466
0.130086
0.0239848
0.133639
0.0224879
0.137406
0.0209529
0.141427
0.0193773
0.145756
0.0177592
0.150467
0.0160974
0.155658
0.0143922
0.16145
0.0126461
0.167988
0.0108655
0.175433
0.00906278
0.183943
0.00725998
0.193634
0.00549337
0.204518
0.00381912
0.216397
0.00231836
0.228714
0.00109879
0.240352
0.000287101
0.249294
0.252376
0.0278197
0.124861
-0.029179
0.0264349
0.128103
0.0250227
0.131499
0.0235794
0.135082
0.0221017
0.138884
0.0205868
0.142942
0.019032
0.14731
0.0174354
0.152064
0.0157957
0.157298
0.0141132
0.163132
0.0123906
0.169711
0.0106342
0.177189
0.00885704
0.18572
0.00708152
0.19541
0.00534453
0.206255
0.00370258
0.218039
0.00223639
0.23018
0.00105168
0.241537
0.000270456
0.250075
0.252646
0.0273392
0.126205
-0.0286838
0.0259703
0.129472
0.0245751
0.132894
0.0231501
0.136507
0.0216918
0.140342
0.0201973
0.144436
0.0186641
0.148844
0.01709
0.153638
0.0154737
0.158914
0.0138155
0.164791
0.0121179
0.171408
0.0103878
0.17892
0.00863818
0.187469
0.00689212
0.197156
0.00518701
0.207961
0.00357963
0.219647
0.00215024
0.231609
0.00100241
0.242685
0.000253255
0.250824
0.2529
0.0268386
0.127538
-0.028171
0.0254836
0.130827
0.0241043
0.134273
0.0226969
0.137914
0.021258
0.141781
0.0197844
0.14591
0.0182735
0.150355
0.016723
0.155188
0.0151314
0.160505
0.013499
0.166423
0.0118283
0.173079
0.0101262
0.180622
0.0084063
0.189189
0.00669193
0.19887