/*--------------------------------*- C++ -*----------------------------------*\
| =========                 |                                                 |
| \\      /  F ield         | OpenFOAM: The Open Source CFD Toolbox           |
|  \\    /   O peration     | Version:  v1912                                 |
|   \\  /    A nd           | Website:  www.openfoam.com                      |
|    \\/     M anipulation  |                                                 |
\*---------------------------------------------------------------------------*/
FoamFile
{
    version     2.0;
    format      ascii;
    class       volVectorField;
    location    "73";
    object      U;
}
// * * * * * * * * * * * * * * * * * * * * * * * * * * * * * * * * * * * * * //

dimensions      [0 1 -1 0 0 0 0];


internalField   nonuniform List<vector> 
9600
(
(0.456544 -9.36161 -1.54174e-19)
(0.15977 -8.63233 0)
(0.242039 -8.15952 -9.05392e-20)
(0.320876 -7.84047 0)
(0.388273 -7.60546 0)
(0.456756 -7.41092 -3.18598e-20)
(0.522341 -7.23281 -5.50643e-22)
(0.581889 -7.05887 2.66347e-20)
(0.634624 -6.88375 0)
(0.680578 -6.70603 -4.5163e-20)
(0.720142 -6.52633 0)
(0.753941 -6.34618 -1.83091e-21)
(0.782713 -6.16741 -2.60775e-21)
(0.807217 -5.9917 -3.15622e-20)
(0.828176 -5.82044 2.66204e-20)
(0.846245 -5.65462 -2.61537e-20)
(0.861977 -5.4947 2.32875e-20)
(0.875917 -5.3406 0)
(0.888848 -5.19157 -1.85257e-20)
(0.900499 -5.04609 2.0307e-20)
(0.824478 -9.35123 -3.0845e-19)
(0.502231 -8.66046 1.17572e-20)
(0.567702 -8.20388 1.86499e-19)
(0.635041 -7.89434 -1.58972e-19)
(0.693436 -7.66394 1.56778e-19)
(0.753885 -7.46989 0)
(0.811601 -7.28947 6.07696e-20)
(0.863107 -7.11152 -6.06313e-20)
(0.907554 -6.93151 -1.05172e-19)
(0.945031 -6.74859 1.33032e-19)
(0.976039 -6.56378 -8.63733e-20)
(1.00133 -6.37887 -3.52666e-20)
(1.02175 -6.19583 7.1184e-20)
(1.03815 -6.01642 0)
(1.05131 -5.84205 0)
(1.06194 -5.67368 9.97949e-20)
(1.07058 -5.51177 -1.692e-19)
(1.0778 -5.35616 0)
(1.08447 -5.206 0)
(1.09005 -5.05964 -7.82154e-20)
(1.19275 -9.32732 6.373e-19)
(0.846964 -8.67573 0)
(0.896925 -8.23557 -3.77379e-19)
(0.953505 -7.93564 -3.42067e-19)
(1.0032 -7.70981 0)
(1.05559 -7.51622 5.46703e-19)
(1.10521 -7.3335 -5.16144e-19)
(1.14832 -7.15166 1.01182e-19)
(1.18408 -6.96695 -2.2525e-19)
(1.21266 -6.7791 -3.74626e-19)
(1.23472 -6.58952 5.11425e-19)
(1.25114 -6.40025 -3.16217e-19)
(1.2629 -6.21335 -1.41726e-19)
(1.27093 -6.03067 0)
(1.27609 -5.85361 5.52976e-21)
(1.2791 -5.68311 1.05189e-19)
(1.28053 -5.51961 4.5475e-20)
(1.28096 -5.3629 0)
(1.28131 -5.21198 8.2438e-20)
(1.28072 -5.06516 8.44902e-20)
(1.56027 -9.2895 -8.62194e-19)
(1.19338 -8.67786 -4.04056e-19)
(1.22915 -8.25437 3.91906e-19)
(1.2757 -7.96405 6.73563e-19)
(1.31699 -7.74272 -3.26921e-19)
(1.36128 -7.54953 5.80694e-21)
(1.40255 -7.36456 2.53884e-19)
(1.43692 -7.17895 2.29968e-19)
(1.46357 -6.98978 4.21204e-19)
(1.48286 -6.79733 0)
(1.49559 -6.60337 1.62285e-19)
(1.50282 -6.41015 -1.72221e-19)
(1.50564 -6.21986 1.03543e-20)
(1.50507 -6.03435 2.71504e-19)
(1.50204 -5.85505 2.32778e-19)
(1.4973 -5.68286 -3.28607e-19)
(1.49142 -5.51818 1.0822e-19)
(1.48499 -5.36076 -1.76227e-19)
(1.47901 -5.20948 1.75394e-19)
(1.47218 -5.06263 -8.45341e-20)
(1.92671 -9.23771 4.34829e-19)
(1.54119 -8.6667 0)
(1.56397 -8.26001 3.8489e-19)
(1.60113 -7.97924 0)
(1.63423 -7.76231 0)
(1.67035 -7.56948 -3.00492e-19)
(1.70301 -7.38231 -5.37658e-19)
(1.72827 -7.19311 -4.55897e-19)
(1.74543 -6.99976 1.84515e-20)
(1.75503 -6.80307 -1.97017e-19)
(1.75809 -6.60516 0)
(1.75581 -6.40846 -1.62697e-19)
(1.74943 -6.21524 -2.93094e-19)
(1.74007 -6.02738 2.57762e-19)
(1.7287 -5.84629 -7.32555e-19)
(1.7161 -5.67285 1.18552e-19)
(1.70284 -5.50741 9.39752e-20)
(1.68953 -5.34968 -1.93779e-19)
(1.67722 -5.19843 -8.4673e-20)
(1.66412 -5.05199 2.52493e-19)
(2.29154 -9.17187 4.19607e-19)
(1.8899 -8.642 4.16165e-19)
(1.90087 -8.2522 0)
(1.92923 -7.98087 0)
(1.95434 -7.76824 -6.24681e-19)
(1.98218 -7.57575 3.41399e-19)
(2.00595 -7.38647 8.21681e-19)
(2.02172 -7.1939 0)
(2.02901 -6.99669 2.17159e-19)
(2.02856 -6.79616 1.97018e-19)
(2.02161 -6.59475 -3.48094e-19)
(2.00956 -6.39506 5.04795e-19)
(1.99375 -6.19942 1.48135e-19)
(1.97542 -6.0097 0)
(1.95558 -5.82729 1.23324e-19)
(1.93503 -5.65304 5.53618e-19)
(1.91435 -5.48727 -3.29885e-19)
(1.89416 -5.32964 3.70706e-19)
(1.87555 -5.1788 -7.04935e-19)
(1.85618 -5.03322 8.1493e-19)
(2.65423 -9.09194 4.26762e-19)
(2.23899 -8.60359 -2.25982e-18)
(2.23931 -8.23068 0)
(2.25941 -7.96866 0)
(2.27668 -7.76021 0)
(2.29611 -7.56804 -6.06009e-19)
(2.31069 -7.37679 0)
(2.31663 -7.1811 -9.71418e-19)
(2.31366 -6.98038 8.9606e-19)
(2.30281 -6.77647 -8.32254e-19)
(2.28556 -6.57205 0)
(2.26347 -6.36988 0)
(2.23806 -6.17233 0)
(2.21061 -5.98127 -2.81637e-19)
(2.1822 -5.79802 0)
(2.15365 -5.62342 0)
(2.12552 -5.45775 -4.13421e-19)
(2.09847 -5.30061 4.06199e-19)
(2.07362 -5.15059 0)
(2.048 -5.00632 0)
(3.01424 -8.99794 -1.38835e-18)
(2.58792 -8.55128 8.99689e-19)
(2.57871 -8.19521 0)
(2.59106 -7.94232 0)
(2.6006 -7.73794 0)
(2.61147 -7.54612 5.76411e-19)
(2.61657 -7.35305 -5.78168e-19)
(2.6123 -7.15453 -8.90006e-21)
(2.59872 -6.95071 -8.9721e-19)
(2.57715 -6.74388 8.40086e-19)
(2.54931 -6.53698 -3.79009e-19)
(2.51698 -6.33288 6.59081e-19)
(2.48179 -6.13397 -4.64234e-20)
(2.44511 -5.94208 -5.96258e-19)
(2.40806 -5.75849 -5.02575e-19)
(2.37147 -5.58399 4.93765e-19)
(2.3359 -5.41884 0)
(2.30203 -5.26261 0)
(2.27101 -5.11379 3.57343e-19)
(2.23921 -4.97129 -3.93239e-19)
(3.37099 -8.88988 9.27927e-19)
(2.93613 -8.48494 8.83936e-19)
(2.91846 -8.14556 -1.67547e-18)
(2.92354 -7.90162 7.91456e-19)
(2.92544 -7.7012 0)
(2.92757 -7.50977 6.16793e-19)
(2.92287 -7.31508 -5.41505e-19)
(2.90805 -7.11406 1.53037e-18)
(2.88352 -6.90758 -2.37012e-20)
(2.85092 -6.69833 0)
(2.81226 -6.48951 7.64709e-19)
(2.76949 -6.28404 0)
(2.72439 -6.08432 0)
(2.6784 -5.89213 -2.72784e-19)
(2.63266 -5.70871 5.50166e-19)
(2.58802 -5.53477 0)
(2.54501 -5.37058 4.31575e-19)
(2.50438 -5.21565 1.79679e-19)
(2.46729 -5.06842 -3.89829e-19)
(2.4294 -4.92816 3.78535e-19)
(3.72395 -8.76783 -9.55768e-19)
(3.28301 -8.40446 8.98364e-19)
(3.25796 -8.08155 -2.55862e-18)
(3.25618 -7.84634 8.04592e-19)
(3.25049 -7.64979 0)
(3.24369 -7.45881 -1.24497e-18)
(3.2289 -7.26274 5.98074e-19)
(3.20319 -7.05959 0)
(3.16738 -6.85092 -4.74882e-19)
(3.12349 -6.6398 -8.23703e-19)
(3.07378 -6.42962 -7.17799e-19)
(3.02042 -6.22336 5.34645e-20)
(2.9653 -6.02341 6.71361e-19)
(2.90993 -5.83147 2.72559e-19)
(2.85549 -5.64871 -3.79588e-20)
(2.80279 -5.4758 -5.13268e-19)
(2.75239 -5.31299 -2.29581e-19)
(2.70506 -5.15976 -2.06985e-19)
(2.662 -5.0145 5.52177e-19)
(2.61813 -4.87695 -8.22788e-19)
(4.07255 -8.63188 9.55771e-19)
(3.62798 -8.30977 -4.66565e-20)
(3.59655 -8.00305 8.22499e-19)
(3.58832 -7.77633 0)
(3.57506 -7.58354 -6.81015e-19)
(3.55913 -7.39311 1.30859e-18)
(3.53392 -7.19592 -1.11866e-18)
(3.497 -6.99105 1.10084e-18)
(3.44963 -6.78069 -4.461e-19)
(3.39419 -6.56827 9.05564e-19)
(3.33325 -6.35732 3.92182e-19)
(3.26918 -6.15088 0)
(3.20397 -5.95127 0)
(3.13918 -5.76013 -2.82618e-19)
(3.07602 -5.57854 3.83773e-20)
(3.01529 -5.40713 1.01077e-18)
(2.95753 -5.24611 -2.50069e-19)
(2.90357 -5.09497 8.25991e-19)
(2.85466 -4.95207 1.44585e-19)
(2.80497 -4.81772 -8.40338e-19)
(4.41622 -8.48212 -2.94098e-18)
(3.97043 -8.20082 -9.87297e-19)
(3.9336 -7.90994 -2.63278e-18)
(3.91925 -7.69145 -1.60171e-18)
(3.89841 -7.50235 -7.59771e-19)
(3.87314 -7.31259 -7.4258e-19)
(3.83723 -7.11457 -2.42427e-18)
(3.78879 -6.90842 -4.90884e-20)
(3.72958 -6.69691 -1.94814e-18)
(3.66238 -6.48377 3.02298e-20)
(3.59007 -6.27267 -8.08909e-19)
(3.51518 -6.06665 -7.37134e-19)
(3.43983 -5.86797 6.72925e-19)
(3.36561 -5.67818 -6.15424e-19)
(3.29374 -5.49827 -5.63846e-19)
(3.225 -5.32881 -5.17498e-19)
(3.15993 -5.17001 -1.38957e-18)
(3.09942 -5.02135 4.94358e-19)
(3.04476 -4.88118 1.1998e-18)
(2.98941 -4.75048 -1.27694e-18)
(4.75443 -8.31871 3.95586e-18)
(4.30976 -8.07764 4.86008e-18)
(4.26845 -7.80216 8.34922e-19)
(4.24829 -7.59161 4.00053e-18)
(4.21983 -7.40613 -7.84119e-19)
(4.185 -7.21718 3.91826e-18)
(4.1381 -7.01868 1.14626e-18)
(4.07785 -6.81171 3.21802e-18)
(4.00656 -6.5996 -9.83649e-19)
(3.92743 -6.38635 2.7236e-18)
(3.84361 -6.17573 1.62935e-18)
(3.75785 -5.97074 1.48493e-18)
(3.67232 -5.77357 -2.01048e-18)
(3.58868 -5.58569 1.88339e-18)
(3.50812 -5.40796 1.13639e-18)
(3.43141 -5.24091 1.0432e-18)
(3.35908 -5.08475 9.59274e-19)
(3.29208 -4.93894 7.36921e-21)
(3.23179 -4.80187 8.14341e-19)
(3.171 -4.67529 8.47484e-19)
(5.08665 -8.1418 -2.93768e-18)
(4.64539 -7.94023 1.08272e-18)
(4.60044 -7.67966 2.67866e-18)
(4.57472 -7.47676 -3.26355e-18)
(4.53859 -7.29483 7.54134e-19)
(4.49397 -7.10689 -2.62146e-18)
(4.4358 -6.90826 1.28484e-18)
(4.36349 -6.70098 -2.15321e-18)
(4.2799 -6.48885 4.90512e-20)
(4.18869 -6.2761 1.19571e-20)
(4.09328 -6.06657 -1.65185e-18)
(3.99659 -5.86322 -7.47796e-19)
(3.90089 -5.66816 1.37507e-18)
(3.80785 -5.48272 8.76549e-21)
(3.71863 -5.30768 -3.72053e-20)
(3.63399 -5.1435 -1.08879e-18)
(3.55442 -4.99039 -4.83524e-19)
(3.48099 -4.8478 -2.71589e-20)
(3.41517 -4.71419 -8.48704e-19)
(3.34916 -4.59226 -4.27992e-19)
(5.41238 -7.95158 0)
(4.97671 -7.78866 -2.00062e-18)
(4.92892 -7.54244 2.37625e-20)
(4.89785 -7.34688 3.25912e-18)
(4.85395 -7.16848 1.36422e-18)
(4.79932 -6.98174 -1.42e-18)
(4.72962 -6.78339 -1.22336e-18)
(4.64502 -6.57631 0)
(4.54897 -6.36475 -9.7389e-19)
(4.44556 -6.15313 9.29472e-19)
(4.33851 -5.94531 -3.90848e-20)
(4.23088 -5.74421 0)
(4.12502 -5.55181 -6.92242e-19)
(4.02259 -5.36934 5.99648e-19)
(3.92474 -5.19747 5.00997e-19)
(3.83217 -5.0366 -6.04756e-19)
(3.74538 -4.88691 -5.24667e-19)
(3.6655 -4.7479 9.11146e-19)
(3.59416 -4.61814 -8.40893e-19)
(3.52305 -4.50147 4.42606e-19)
(5.73114 -7.74822 3.0352e-18)
(5.30316 -7.62299 -2.06049e-18)
(5.25321 -7.39052 -1.75863e-18)
(5.21694 -7.202 8.18837e-19)
(5.16518 -7.02712 -1.58861e-18)
(5.10032 -6.84183 0)
(5.01886 -6.64416 0)
(4.92177 -6.43782 0)
(4.81312 -6.22744 -4.44891e-20)
(4.69744 -6.01758 -1.86536e-18)
(4.57873 -5.81209 8.81002e-19)
(4.46019 -5.61381 7.4515e-19)
(4.34422 -5.42462 6.30605e-19)
(4.23245 -5.24562 -2.58768e-18)
(4.12599 -5.07738 1.2268e-18)
(4.0255 -4.92021 0)
(3.93142 -4.7743 -3.04428e-20)
(3.84498 -4.63919 -1.41318e-18)
(3.76795 -4.51363 -5.69948e-21)
(3.6917 -4.40256 -4.43097e-19)
(6.04258 -7.532 -2.06449e-18)
(5.62419 -7.44337 -1.08632e-18)
(5.57263 -7.22397 8.18645e-19)
(5.5313 -7.04218 -1.43944e-19)
(5.47155 -6.87083 -4.63109e-18)
(5.39625 -6.68725 4.19138e-18)
(5.30282 -6.49073 -4.88157e-20)
(5.19307 -6.2857 1.14808e-18)
(5.07173 -6.0771 1.03011e-18)
(4.94376 -5.86962 9.4591e-19)
(4.81341 -5.66705 8.60807e-19)
(4.68402 -5.47216 1.53845e-18)
(4.558 -5.28669 -7.40483e-19)
(4.43697 -5.11163 1.91952e-18)
(4.32197 -4.94745 -1.24094e-18)
(4.21358 -4.7944 -5.13386e-19)
(4.11221 -4.65266 2.06205e-18)
(4.01912 -4.52178 1.37771e-18)
(3.93626 -4.40056 -2.79735e-20)
(3.85508 -4.29485 0)
(6.34667 -7.30341 -1.04971e-18)
(5.93939 -7.24997 2.07604e-18)
(5.88654 -7.04285 1.81767e-18)
(5.84017 -6.86748 -1.45922e-19)
(5.77232 -6.69971 -1.57128e-18)
(5.68636 -6.51816 7.06933e-20)
(5.58078 -6.32328 1.31838e-20)
(5.45827 -6.12013 1.17465e-20)
(5.3242 -5.91394 0)
(5.18396 -5.70943 9.25183e-19)
(5.04205 -5.51037 -1.76095e-18)
(4.90189 -5.31938 -7.53605e-19)
(4.7659 -5.1381 7.48134e-19)
(4.63567 -4.9674 -6.56471e-19)
(4.51214 -4.80768 6.08014e-19)
(4.39584 -4.65917 -5.53523e-19)
(4.28717 -4.52205 4.90134e-21)
(4.1875 -4.39571 -4.70268e-19)
(4.09908 -4.27887 -4.34428e-19)
(4.01374 -4.1792 -4.34726e-19)
(6.64375 -7.06292 0)
(6.24851 -7.04273 -1.01225e-18)
(6.19426 -6.84708 1.00063e-18)
(6.1428 -6.67797 1.74591e-18)
(6.06672 -6.51395 -1.57998e-18)
(5.96996 -6.33481 1.36498e-18)
(5.85208 -6.14208 -2.62457e-18)
(5.71676 -5.94141 -2.3308e-18)
(5.56999 -5.73825 -1.01686e-18)
(5.41758 -5.53731 4.44369e-20)
(5.26423 -5.34227 -8.42088e-19)
(5.11344 -5.15562 3.4936e-20)
(4.96758 -4.97889 0)
(4.82814 -4.81283 -1.28774e-18)
(4.69593 -4.65779 6.57162e-19)
(4.57137 -4.51403 0)
(4.45489 -4.38165 -5.14702e-19)
(4.34809 -4.2598 -9.25405e-19)
(4.25321 -4.1481 9.09304e-19)
(4.16269 -4.05919 4.48871e-19)
(6.93343 -6.80975 0)
(6.55093 -6.82092 0)
(6.4951 -6.63659 -1.85627e-18)
(6.43843 -6.47394 -1.59618e-18)
(6.35406 -6.31392 3.23964e-18)
(6.24639 -6.13761 0)
(6.11617 -5.94758 0)
(5.96803 -5.75 1.17096e-18)
(5.80867 -5.55047 0)
(5.64425 -5.35367 0)
(5.4797 -5.16314 0)
(5.31852 -4.98122 0)
(5.16304 -4.80927 0)
(5.01455 -4.64793 0)
(4.87364 -4.49745 0)
(4.74041 -4.35802 0)
(4.61513 -4.22947 0)
(4.49888 -4.11117 0)
(4.39177 -4.00616 0)
(4.28766 -3.93176 0)
(10.0435 0.0877411 1.47378e-19)
(10.023 -0.307649 2.8675e-19)
(9.98721 -0.700361 -2.94508e-19)
(9.93668 -1.09025 5.8719e-19)
(9.87115 -1.47698 -5.87189e-19)
(9.7905 -1.86005 -5.54889e-19)
(9.69482 -2.23892 -5.5334e-19)
(9.58434 -2.61303 1.74263e-18)
(9.45928 -2.98184 -1.16103e-18)
(9.3199 -3.3448 1.1513e-18)
(9.16649 -3.70136 -1.1513e-18)
(8.99936 -4.05098 1.14279e-18)
(8.81882 -4.39315 -2.26624e-18)
(8.62524 -4.72737 3.33736e-18)
(8.41898 -5.05315 0)
(8.20044 -5.37004 -3.27882e-18)
(7.96999 -5.67761 1.63556e-20)
(7.72818 -5.97552 3.30427e-18)
(7.47509 -6.26359 0)
(7.21242 -6.54116 0)
(10.1207 -0.210716 0)
(10.0794 -0.606835 -1.50435e-20)
(10.0213 -0.999153 0)
(9.94717 -1.38733 5.61924e-19)
(9.85714 -1.77094 5.8517e-19)
(9.75143 -2.14938 -1.69368e-18)
(9.63034 -2.52202 2.9486e-18)
(9.49424 -2.88823 -1.16399e-18)
(9.34349 -3.24741 -1.10956e-18)
(9.17848 -3.59898 -1.10503e-18)
(8.99963 -3.94237 4.45765e-20)
(8.80738 -4.27703 1.13217e-18)
(8.60219 -4.60245 -5.62838e-18)
(8.38455 -4.91811 -1.18028e-18)
(8.15493 -5.22357 2.24899e-18)
(7.91388 -5.51838 2.24597e-18)
(7.66184 -5.80217 1.14108e-18)
(7.3994 -6.07458 -2.20035e-18)
(7.12666 -6.33538 1.042e-18)
(6.84457 -6.58422 0)
(10.0726 -0.149213 1.32718e-19)
(10.0348 -0.540902 -2.71785e-19)
(9.97955 -0.929414 7.84861e-19)
(9.90735 -1.31406 -5.56027e-19)
(9.81855 -1.69417 -5.30161e-19)
(9.7135 -2.06905 5.53512e-19)
(9.59257 -2.43797 0)
(9.45617 -2.80024 0)
(9.30473 -3.15518 2.10172e-18)
(9.13868 -3.50215 3.13539e-18)
(8.9585 -3.84055 -9.91669e-19)
(8.76469 -4.16976 3.10038e-18)
(8.55777 -4.48924 -9.87495e-19)
(8.33828 -4.79844 -3.01981e-18)
(8.10676 -5.09686 1.36267e-20)
(7.8638 -5.38404 1.93841e-18)
(7.60991 -5.65954 -8.74966e-19)
(7.34569 -5.92295 -1.90702e-18)
(7.07149 -6.1739 -1.03004e-18)
(6.78805 -6.41189 1.87419e-18)
(9.90658 -0.112489 0)
(9.87556 -0.49495 2.29144e-19)
(9.82726 -0.875065 2.28203e-19)
(9.76186 -1.25193 -9.37533e-19)
(9.6797 -1.62475 0)
(9.58112 -1.99275 0)
(9.46647 -2.35516 0)
(9.33613 -2.71124 0)
(9.19052 -3.06026 -9.92086e-19)
(9.03009 -3.40154 -9.88319e-19)
(8.8553 -3.73441 0)
(8.66668 -4.05824 1.8686e-18)
(8.46473 -4.3724 -4.61996e-18)
(8.25003 -4.67633 3.71485e-18)
(8.02313 -4.96947 -3.60067e-18)
(7.78463 -5.2513 -8.73705e-19)
(7.53509 -5.52132 1.56488e-19)
(7.27515 -5.77908 1.54891e-19)
(7.00531 -6.0241 -1.7794e-18)
(6.7263 -6.25591 -7.0892e-20)
(9.6536 -0.0990059 0)
(9.63 -0.46924 -2.25987e-19)
(9.58955 -0.837784 0)
(9.53232 -1.20373 4.52098e-19)
(9.45855 -1.56625 4.30972e-19)
(9.36853 -1.92454 3.94016e-19)
(9.26256 -2.27783 0)
(9.14099 -2.62534 0)
(9.00419 -2.96635 0)
(8.85257 -3.30012 0)
(8.68659 -3.62597 8.13916e-19)
(8.50672 -3.94322 8.76874e-19)
(8.31346 -4.25124 8.7187e-19)
(8.10737 -4.5494 -8.85206e-19)
(7.88899 -4.83712 -1.5235e-18)
(7.65892 -5.11383 1.72933e-18)
(7.41772 -5.379 3.35283e-18)
(7.16604 -5.63209 1.63081e-18)
(6.90445 -5.87262 0)
(6.63365 -6.10009 -1.53701e-18)
(9.34664 -0.0902049 4.64501e-20)
(9.33001 -0.446265 0)
(9.29715 -0.801207 -7.61197e-19)
(9.24809 -1.15418 1.8252e-23)
(9.18296 -1.50435 1.61791e-20)
(9.10201 -1.85093 -6.85548e-20)
(9.0055 -2.19316 0)
(8.89371 -2.53026 3.09427e-20)
(8.76697 -2.8615 -7.72744e-19)
(8.62566 -3.18616 1.50557e-18)
(8.47016 -3.50353 -1.56991e-18)
(8.30093 -3.81293 8.57649e-19)
(8.11844 -4.11371 -4.49572e-18)
(7.92319 -4.40523 2.96521e-18)
(7.71571 -4.68687 1.5718e-18)
(7.49656 -4.95805 0)
(7.26631 -5.2182 -2.90128e-18)
(7.02558 -5.46676 -6.15437e-20)
(6.77493 -5.7032 -2.85716e-18)
(6.51504 -5.927 2.96961e-18)
(9.01432 -0.0853962 4.17744e-20)
(9.00333 -0.426458 -8.75112e-20)
(8.97686 -0.76687 7.17509e-19)
(8.93487 -1.10583 -1.40787e-20)
(8.87747 -1.44255 7.17361e-19)
(8.80484 -1.77627 -1.0835e-18)
(8.71719 -2.10622 0)
(8.61477 -2.43169 7.30419e-19)
(8.49787 -2.75193 6.68795e-19)
(8.36679 -3.06624 -7.26328e-19)
(8.22191 -3.37393 1.32892e-18)
(8.06361 -3.67434 2.8173e-18)
(7.89233 -3.96679 -1.31024e-18)
(7.70854 -4.25067 -1.42018e-18)
(7.51272 -4.52534 1.36195e-18)
(7.30541 -4.79022 0)
(7.08715 -5.0447 6.49635e-20)
(6.85852 -5.28823 9.81706e-21)
(6.62008 -5.52025 2.70703e-18)
(6.37245 -5.74021 1.25854e-18)
(8.67791 -0.0842179 0)
(8.67098 -0.410327 6.26025e-21)
(8.64934 -0.736132 -1.4601e-19)
(8.61294 -1.06088 -6.4842e-19)
(8.56184 -1.38384 6.09512e-19)
(8.4962 -1.70426 0)
(8.41618 -2.02143 1.24057e-18)
(8.32199 -2.33465 -1.36324e-21)
(8.21388 -2.64322 -1.89471e-18)
(8.09213 -2.94647 0)
(7.95705 -3.24372 -1.30776e-18)
(7.809 -3.53433 4.60241e-20)
(7.64838 -3.81766 -3.67619e-18)
(7.47561 -4.09309 6.47881e-21)
(7.29115 -4.36 1.23212e-18)
(7.0955 -4.6178 0)
(6.88917 -4.86591 -1.20934e-18)
(6.67271 -5.10374 8.70729e-21)
(6.44666 -5.33074 1.20064e-18)
(6.21158 -5.54633 -1.2385e-18)
(8.35129 -0.0853022 0)
(8.34698 -0.39704 1.497e-19)
(8.32871 -0.708706 3.10594e-19)
(8.29644 -1.0196 -5.74915e-19)
(8.2502 -1.32902 -2.47377e-20)
(8.19011 -1.63627 -2.87325e-19)
(8.11633 -1.94069 -1.15019e-18)
(8.02901 -2.2416 5.71832e-19)
(7.92839 -2.53835 2.38276e-20)
(7.8147 -2.83028 5.6841e-19)
(7.68823 -3.11677 5.23274e-19)
(7.54931 -3.39719 2.2661e-18)
(7.3983 -3.67094 1.1335e-18)
(7.23558 -3.93742 2.23882e-18)
(7.06161 -4.19604 -1.11648e-18)
(6.87682 -4.44622 3.86871e-20)
(6.68173 -4.68738 -1.10329e-18)
(6.47684 -4.91895 0)
(6.26269 -5.14037 1.0429e-18)
(6.03978 -5.35105 0)
(8.04237 -0.087523 6.51787e-20)
(8.03952 -0.385761 -1.9089e-19)
(8.02344 -0.684068 5.23575e-19)
(7.99405 -0.981789 -2.61202e-19)
(7.95139 -1.27826 1.89951e-20)
(7.89557 -1.57285 -2.61047e-19)
(7.82671 -1.86491 5.42699e-19)
(7.74497 -2.15381 -5.19395e-19)
(7.65052 -2.43893 5.19392e-19)
(7.54361 -2.71967 9.96171e-19)
(7.42448 -2.99543 -1.07342e-18)
(7.29344 -3.26562 -4.5129e-20)
(7.15082 -3.52967 -3.10709e-18)
(6.997 -3.78702 5.38151e-21)
(6.83237 -4.0371 4.03019e-20)
(6.65738 -4.27936 2.01426e-18)
(6.47251 -4.51325 -9.94981e-19)
(6.27826 -4.73819 -9.47741e-19)
(6.07514 -4.95363 -3.74682e-20)
(5.86363 -5.15896 0)
(7.75477 -0.0901347 0)
(7.75254 -0.375866 2.42483e-19)
(7.73771 -0.661739 -8.3375e-19)
(7.71024 -0.947139 -2.21202e-19)
(7.67016 -1.23145 4.94694e-19)
(7.61755 -1.51406 0)
(7.55251 -1.79437 0)
(7.4752 -2.0718 4.72856e-19)
(7.38579 -2.34576 -4.72853e-19)
(7.28447 -2.61568 3.98347e-19)
(7.17151 -2.88099 -4.69806e-19)
(7.04716 -3.14117 9.31665e-19)
(6.91174 -3.39565 -1.85872e-18)
(6.76562 -3.64393 1.84911e-18)
(6.60917 -3.88547 3.46856e-20)
(6.44283 -4.11976 -9.51018e-19)
(6.26707 -4.34626 -9.0498e-19)
(6.08237 -4.56443 1.84348e-18)
(5.88926 -4.7737 8.63008e-19)
(5.6882 -4.97345 0)
(7.48927 -0.0926635 1.87899e-21)
(7.48708 -0.366887 1.5921e-19)
(7.47288 -0.641279 3.34265e-19)
(7.44663 -0.915262 2.33967e-19)
(7.40836 -1.18825 2.17039e-19)
(7.35813 -1.45968 2.019e-19)
(7.29606 -1.72898 0)
(7.22228 -1.99559 -8.34351e-19)
(7.13694 -2.25897 -4.30106e-19)
(7.04024 -2.51859 3.66942e-19)
(6.93242 -2.77392 0)
(6.81371 -3.02445 8.49507e-19)
(6.68444 -3.26969 -2.51246e-18)
(6.54493 -3.50915 8.45158e-19)
(6.39556 -3.74234 0)
(6.23676 -3.96879 -8.03591e-19)
(6.06901 -4.18799 -1.62303e-18)
(5.89279 -4.39943 7.98649e-19)
(5.70866 -4.60253 -2.92217e-20)
(5.51706 -4.79666 0)
(7.245 -0.0948106 3.46681e-21)
(7.24249 -0.358479 -1.03037e-19)
(7.2285 -0.622309 1.98843e-19)
(7.20298 -0.885756 -1.31307e-20)
(7.16597 -1.14827 3.97336e-19)
(7.11755 -1.40931 -6.10231e-19)
(7.05779 -1.66834 0)
(6.98684 -1.92485 5.60678e-20)
(6.90484 -2.1783 0)
(6.81197 -2.42822 -8.1458e-19)
(6.70845 -2.6741 0)
(6.59453 -2.91547 -7.51768e-19)
(6.47049 -3.15188 2.32349e-18)
(6.33666 -3.38288 -1.53966e-18)
(6.19341 -3.60804 7.67615e-19)
(6.04115 -3.82692 -6.7919e-19)
(5.8804 -4.03905 7.84479e-19)
(5.71164 -4.24398 -7.79114e-19)
(5.53551 -4.44109 0)
(5.35245 -4.62976 0)
(7.02015 -0.0964545 4.71491e-20)
(7.01714 -0.350417 0)
(7.0031 -0.604522 0)
(6.97802 -0.858252 -3.77766e-19)
(6.94192 -1.11108 -3.52578e-19)
(6.89487 -1.3625 0)
(6.83697 -1.61201 0)
(6.76834 -1.85909 4.98878e-20)
(6.68912 -2.10329 6.98218e-19)
(6.59948 -2.34411 -3.36724e-19)
(6.49962 -2.58111 -3.58749e-19)
(6.38979 -2.81385 1.44919e-18)
(6.27025 -3.0419 -2.15193e-18)
(6.14132 -3.26488 1.38769e-18)
(6.00336 -3.48238 0)
(5.85679 -3.69405 2.78788e-18)
(5.70215 -3.89944 -2.02415e-18)
(5.53993 -4.09821 6.8861e-19)
(5.37092 -4.28965 1.31696e-18)
(5.19553 -4.47319 0)
(6.81263 -0.0975307 -4.05371e-20)
(6.809 -0.34254 0)
(6.79478 -0.58767 -5.22589e-21)
(6.76994 -0.832422 -3.24409e-19)
(6.73452 -1.0763 1.00523e-18)
(6.68858 -1.3188 -1.67218e-19)
(6.63222 -1.55946 0)
(6.56555 -1.7978 1.33206e-18)
(6.4887 -2.03335 -6.85991e-19)
(6.40185 -2.26569 4.45176e-20)
(6.30517 -2.49438 6.35761e-19)
(6.1989 -2.71901 6.51658e-19)
(6.0833 -2.93921 -1.29951e-18)
(5.95864 -3.15462 -1.27108e-18)
(5.82531 -3.36488 -1.24155e-18)
(5.68369 -3.56975 -1.32115e-18)
(5.53438 -3.76878 1.31215e-18)
(5.37786 -3.96183 -6.26408e-19)
(5.21519 -4.14802 -6.67489e-19)
(5.04665 -4.32703 0)
(6.62019 -0.0980188 3.98267e-20)
(6.61593 -0.334742 -1.49541e-19)
(6.60146 -0.571558 -1.54806e-19)
(6.57677 -0.807984 4.63535e-19)
(6.5419 -1.04355 -1.64613e-19)
(6.49691 -1.27777 -1.53872e-19)
(6.44189 -1.51021 0)
(6.37694 -1.7404 -6.32472e-19)
(6.3022 -1.96792 0)
(6.21782 -2.19233 6.27582e-19)
(6.12398 -2.41326 -1.20937e-18)
(6.02089 -2.63031 5.98663e-19)
(5.90879 -2.84313 -1.19365e-18)
(5.78795 -3.05143 1.23176e-18)
(5.65871 -3.25489 6.70421e-19)
(5.52145 -3.45339 0)
(5.3768 -3.64645 -5.78697e-19)
(5.22522 -3.83431 5.78697e-19)
(5.06818 -4.01574 0)
(4.90565 -4.19112 0)
(6.44072 -0.0980066 0)
(6.43584 -0.327002 1.46922e-19)
(6.42113 -0.556058 4.72657e-21)
(6.39657 -0.784714 -1.51492e-19)
(6.3622 -1.01251 -1.3359e-19)
(6.31808 -1.23901 -1.41827e-19)
(6.2643 -1.46376 5.48169e-19)
(6.20095 -1.68635 0)
(6.12817 -1.90635 0)
(6.04609 -2.12336 2.78582e-19)
(5.95489 -2.33702 2.95932e-19)
(5.85475 -2.54697 1.07108e-18)
(5.74589 -2.75288 -5.47268e-19)
(5.62855 -2.95451 5.47266e-19)
(5.50304 -3.15157 5.8096e-19)
(5.3697 -3.34409 3.39683e-20)
(5.22919 -3.53158 -1.06702e-18)
(5.08187 -3.71483 3.78012e-21)
(4.9299 -3.89194 5.27737e-19)
(4.77242 -4.0649 0)
(6.2723 -0.0974973 -3.28392e-20)
(6.26688 -0.319288 3.28388e-20)
(6.25197 -0.541112 0)
(6.22757 -0.762522 1.23692e-19)
(6.19371 -0.98308 4.01785e-19)
(6.15046 -1.20236 -5.07813e-19)
(6.09789 -1.41994 -5.38594e-19)
(6.03611 -1.63542 0)
(5.96524 -1.84839 0)
(5.8854 -2.05849 0)
(5.79676 -2.26536 -9.94299e-19)
(5.69948 -2.46866 -6.4177e-20)
(5.59375 -2.6681 -5.04149e-19)
(5.47978 -2.86347 3.02104e-20)
(5.35783 -3.05452 -9.97016e-19)
(5.22814 -3.24143 1.51946e-18)
(5.09141 -3.42372 -1.43974e-18)
(4.94771 -3.603 4.88735e-19)
(4.80031 -3.77628 9.36951e-19)
(4.64649 -3.94846 0)
(6.11321 -0.0961402 2.95029e-20)
(6.10736 -0.311399 0)
(6.09234 -0.526679 -1.21464e-19)
(6.06816 -0.741543 -2.50285e-19)
(6.03486 -0.955572 1.21312e-19)
(5.99249 -1.16836 9.68731e-19)
(5.94113 -1.3795 0)
(5.88088 -1.58861 -4.66565e-19)
(5.81185 -1.79531 -2.38633e-19)
(5.73417 -1.99924 -4.48307e-19)
(5.64797 -2.20007 -1.79378e-19)
(5.55339 -2.39749 -1.41536e-18)
(5.45061 -2.59123 -9.3423e-19)
(5.33975 -2.78107 9.6102e-19)
(5.22108 -2.96684 9.19895e-19)
(5.09458 -3.14876 -3.88498e-21)
(4.96109 -3.3265 2.99609e-20)
(4.81984 -3.50263 4.5033e-19)
(4.67595 -3.67335 -9.20648e-19)
(4.52267 -3.84857 0)
(5.96187 -0.0944684 -6.16965e-20)
(5.95571 -0.303472 3.03722e-20)
(5.94074 -0.512564 -1.21342e-19)
(5.91693 -0.721352 1.21286e-19)
(5.88431 -0.929445 -3.48835e-19)
(5.84293 -1.13645 -1.08623e-18)
(5.79286 -1.34199 0)
(5.73415 -1.54569 4.93662e-19)
(5.66692 -1.74719 -4.61592e-19)
(5.59125 -1.94615 9.77446e-19)
(5.50727 -2.14225 9.71642e-19)
(5.41507 -2.33518 1.43153e-18)
(5.31479 -2.52468 -9.28907e-19)
(5.20647 -2.71055 4.62693e-19)
(5.09035 -2.8926 -4.55035e-19)
(4.96606 -3.07105 4.55059e-19)
(4.83471 -3.24562 0)
(4.69359 -3.41956 4.12006e-19)
(4.55176 -3.58866 -4.03189e-19)
(4.39404 -3.77514 0)
(7.14019 7.26218 0)
(7.42017 6.97237 0)
(7.68724 6.67298 1.08765e-18)
(7.94211 6.36451 2.02674e-20)
(8.18421 6.04667 -1.1507e-18)
(8.41289 5.71954 0)
(8.62772 5.38352 1.18748e-18)
(8.82838 5.03912 -2.24045e-18)
(9.01454 4.68695 -1.13227e-18)
(9.18593 4.32759 -1.14285e-18)
(9.34227 3.96169 1.14285e-18)
(9.48334 3.58989 -1.15495e-18)
(9.60894 3.2129 5.76115e-19)
(9.71888 2.8314 5.49887e-19)
(9.813 2.44607 5.52037e-19)
(9.89125 2.05757 -5.85847e-19)
(9.95359 1.66655 5.85847e-19)
(10.0001 1.27373 -2.94103e-19)
(10.0308 0.879508 -1.39704e-19)
(10.046 0.485226 7.35821e-20)
(7.41715 7.07049 0)
(7.69734 6.78107 -9.96703e-19)
(7.96374 6.48007 -2.13088e-18)
(8.21665 6.16819 3.15116e-18)
(8.45581 5.84573 -2.18521e-18)
(8.68071 5.51315 2.19599e-18)
(8.89089 5.17106 1.19386e-18)
(9.08592 4.82012 -3.38785e-18)
(9.26542 4.46103 1.10831e-18)
(9.42902 4.09449 2.20327e-18)
(9.57642 3.72123 1.08553e-18)
(9.70737 3.34202 1.09241e-18)
(9.8217 2.95765 -1.15275e-18)
(9.9192 2.56883 1.69745e-18)
(9.99957 2.17638 -2.35501e-18)
(10.0628 1.78115 5.81297e-19)
(10.1087 1.38395 -5.58593e-19)
(10.1376 0.985599 0)
(10.1492 0.586633 1.51573e-20)
(10.144 0.188028 0)
(7.27424 6.9458 -1.75506e-18)
(7.55726 6.67377 9.853e-19)
(7.82773 6.38888 1.8024e-18)
(8.08521 6.0918 8.1599e-19)
(8.32927 5.7831 2.04351e-18)
(8.55938 5.4634 2.00463e-20)
(8.77502 5.13335 -1.02428e-18)
(8.97569 4.79366 -3.05262e-18)
(9.16096 4.44505 3.01377e-18)
(9.33037 4.08824 -3.09368e-18)
(9.48354 3.72396 -1.03068e-18)
(9.62017 3.353 -2.0621e-18)
(9.73995 2.97616 0)
(9.84265 2.59422 0)
(9.92815 2.20808 0)
(9.99627 1.81864 -5.25628e-19)
(10.0469 1.42674 5.50497e-19)
(10.0799 1.03325 5.27325e-19)
(10.0952 0.638863 6.27071e-21)
(10.0929 0.244563 1.32441e-19)
(7.04701 6.69377 1.82275e-18)
(7.32676 6.44041 -1.65531e-18)
(7.59518 6.17392 -1.69642e-19)
(7.85152 5.89485 -1.70603e-19)
(8.09522 5.60377 4.30337e-18)
(8.32575 5.30128 -7.12688e-20)
(8.54253 4.98802 3.77796e-21)
(8.74505 4.66463 -2.72137e-18)
(8.9328 4.33181 1.79555e-18)
(9.10531 3.99024 0)
(9.26208 3.64069 9.63045e-19)
(9.40279 3.284 9.6971e-19)
(9.52713 2.92096 0)
(9.63481 2.5524 0)
(9.7256 2.17914 0)
(9.79931 1.80199 0)
(9.85573 1.42177 -2.17164e-20)
(9.89477 1.03935 4.74822e-19)
(9.91628 0.655553 -2.28017e-19)
(9.92028 0.27132 0)
(6.78436 6.37901 1.54382e-18)
(7.05626 6.14351 0)
(7.31793 5.89508 -4.54562e-18)
(7.56857 5.63412 -1.5494e-18)
(7.80753 5.36116 -1.62817e-18)
(8.03424 5.07676 -1.72594e-18)
(8.24813 4.78149 8.15454e-19)
(8.44865 4.47596 -8.57007e-19)
(8.63526 4.16081 2.3797e-18)
(8.80752 3.83671 -7.79069e-19)
(8.96499 3.50443 0)
(9.10719 3.16472 0)
(9.23373 2.81827 0)
(9.34433 2.46587 0)
(9.43874 2.10831 -1.23031e-18)
(9.51668 1.74643 4.2304e-19)
(9.57796 1.38101 -4.46867e-19)
(9.6224 1.0129 0)
(9.64988 0.642933 2.24876e-19)
(9.66032 0.272007 0)
(6.50942 6.05177 1.32078e-18)
(6.77109 5.83242 -4.79984e-20)
(7.02347 5.60054 2.7782e-18)
(7.26576 5.35647 1.388e-18)
(7.4973 5.10067 0)
(7.71751 4.83365 -1.47391e-18)
(7.92582 4.55593 6.85332e-20)
(8.12169 4.26808 -1.49631e-18)
(8.30459 3.97069 2.07011e-18)
(8.47405 3.6644 3.27472e-20)
(8.62963 3.34985 2.81232e-20)
(8.77089 3.02767 -7.46691e-19)
(8.89741 2.6986 1.46443e-18)
(9.00887 2.36338 0)
(9.10501 2.02273 6.85903e-20)
(9.18552 1.67748 7.47663e-19)
(9.25014 1.32841 1.63943e-21)
(9.29869 0.976284 -1.53508e-20)
(9.33103 0.621916 0)
(9.34704 0.266135 -4.63534e-20)
(6.24357 5.73472 0)
(6.4939 5.52936 -4.89252e-20)
(6.7357 5.31199 1.75852e-20)
(6.96819 5.0829 -2.51148e-18)
(7.19074 4.8425 0)
(7.40278 4.59125 1.27023e-18)
(7.60376 4.32963 1.35298e-18)
(7.79315 4.05814 -3.9364e-18)
(7.97045 3.77734 -6.83046e-20)
(8.13519 3.48779 -1.26402e-18)
(8.28694 3.19008 6.95964e-19)
(8.42526 2.88484 -6.42908e-19)
(8.54975 2.57275 -7.06741e-19)
(8.66005 2.25448 0)
(8.75592 1.93076 3.72856e-19)
(8.83713 1.6022 -1.69147e-20)
(8.90331 1.26965 -3.46142e-19)
(8.95424 0.933858 -1.67766e-20)
(8.98981 0.595563 -8.71335e-20)
(9.00985 0.255541 1.7464e-19)
(5.99802 5.43948 0)
(6.23677 5.24597 1.08603e-18)
(6.46757 5.04102 1.61926e-20)
(6.6897 4.82488 -1.10219e-18)
(6.90255 4.59792 0)
(7.10558 4.36055 1.14668e-18)
(7.29827 4.11321 -1.09481e-18)
(7.48011 3.85636 -1.21196e-18)
(7.65064 3.59051 2.30535e-18)
(7.80939 3.31617 1.24392e-18)
(7.95595 3.03392 0)
(8.08991 2.74433 6.06734e-19)
(8.2109 2.44803 -4.39288e-21)
(8.31859 2.14567 2.18738e-20)
(8.41258 1.83791 0)
(8.49271 1.52538 -5.97232e-19)
(8.55884 1.20869 -3.12887e-19)
(8.61054 0.888663 4.57151e-19)
(8.64771 0.566022 3.08227e-19)
(8.67017 0.241476 -4.11987e-20)
(5.77646 5.17099 0)
(6.00394 4.98745 -9.3803e-19)
(6.22393 4.79306 0)
(6.43576 4.58802 -1.01204e-18)
(6.63884 4.37267 1.9925e-18)
(6.83265 4.14737 -2.03202e-18)
(7.01672 3.91252 3.17967e-18)
(7.19058 3.66856 -3.17053e-18)
(7.35377 3.41595 -2.14212e-18)
(7.50587 3.15519 -1.57996e-18)
(7.64649 2.8868 5.41791e-19)
(7.77525 2.61134 -1.12323e-18)
(7.89179 2.32939 1.86552e-20)
(7.99578 2.04153 1.11657e-18)
(8.08694 1.74837 -2.80902e-19)
(8.1649 1.45063 1.15071e-18)
(8.22955 1.14879 -5.65965e-19)
(8.28074 0.843572 2.60766e-19)
(8.31819 0.535696 -1.48709e-19)
(8.34171 0.225836 0)
(5.5786 4.92964 0)
(5.79547 4.75455 1.81472e-18)
(6.00519 4.56916 8.80286e-19)
(6.20713 4.37367 -9.06116e-19)
(6.40075 4.16834 -1.85618e-18)
(6.58556 3.95352 2.82453e-18)
(6.76111 3.72958 1.12978e-20)
(6.92698 3.49692 -9.20674e-19)
(7.08274 3.25598 1.97651e-18)
(7.228 3.00724 1.0208e-18)
(7.36239 2.75119 -9.53717e-19)
(7.48556 2.48835 5.00786e-19)
(7.59716 2.21926 2.25471e-20)
(7.69689 1.94449 -5.26944e-19)
(7.78446 1.66462 -2.5535e-19)
(7.8596 1.38022 5.1201e-19)
(7.92207 1.09199 -2.56661e-19)
(7.97176 0.800432 -5.17934e-19)
(8.0085 0.506224 6.00182e-20)
(8.03204 0.210016 6.48987e-20)