/*--------------------------------*- C++ -*----------------------------------*\
  =========                 |
  \\      /  F ield         | OpenFOAM: The Open Source CFD Toolbox
   \\    /   O peration     | Website:  https://openfoam.org
    \\  /    A nd           | Version:  6.0
     \\/     M anipulation  |
\*---------------------------------------------------------------------------*/
FoamFile
{
    version     2.0;
    format      ascii;
    class       volVectorField;
    location    "19.7505";
    object      U;
}
// * * * * * * * * * * * * * * * * * * * * * * * * * * * * * * * * * * * * * //

dimensions      [0 1 -1 0 0 0 0];

internalField   nonuniform List<vector> 
2400
(
(3.77301 -15.5919 -2.84092e-18)
(0.779753 -16.1057 1.06632e-18)
(1.29338 -16.4138 -9.83647e-19)
(1.74092 -16.2456 -5.71178e-19)
(1.91705 -15.9151 -8.73052e-19)
(2.0414 -15.5554 1.17139e-18)
(2.15969 -15.2303 4.24732e-19)
(2.27104 -14.9611 3.35308e-19)
(2.40145 -14.7481 -7.54012e-19)
(2.51405 -14.6107 -4.44635e-20)
(5.05421 -15.4617 3.20928e-18)
(2.09598 -16.3541 -1.99391e-19)
(2.60261 -16.6223 5.9213e-19)
(3.00352 -16.387 5.43642e-18)
(3.13192 -16.0172 -3.76658e-18)
(3.21401 -15.6368 -1.99389e-19)
(3.29534 -15.3031 -3.95021e-20)
(3.37984 -15.0306 -4.22508e-19)
(3.49516 -14.8168 -6.28006e-19)
(3.5682 -14.6912 -1.03008e-19)
(6.3321 -15.2265 5.66911e-18)
(3.44042 -16.4812 4.59851e-18)
(3.93326 -16.7061 -1.19117e-17)
(4.27589 -16.4083 3.55164e-18)
(4.34842 -16.0054 5.13959e-18)
(4.38254 -15.6097 -2.8728e-18)
(4.42298 -15.2707 -2.19771e-18)
(4.47833 -14.9948 1.80779e-18)
(4.57183 -14.7769 -3.82131e-18)
(4.59397 -14.6624 3.35521e-18)
(7.59357 -14.8786 -1.96226e-17)
(4.80032 -16.4769 7.49245e-18)
(5.27186 -16.6583 -6.91164e-18)
(5.54681 -16.3061 3.12754e-18)
(5.55781 -15.8785 -3.29064e-18)
(5.54061 -15.4742 4.72473e-18)
(5.53909 -15.1343 2.05883e-18)
(5.56707 -14.8577 -6.84887e-18)
(5.64019 -14.6419 -5.8821e-18)
(5.60692 -14.557 5.69397e-18)
(8.82734 -14.4148 1.10204e-18)
(6.16043 -16.3373 -2.86975e-18)
(6.60415 -16.4772 -1.08806e-18)
(6.80387 -16.0802 -1.41234e-18)
(6.74977 -15.6377 -7.9726e-18)
(6.67973 -15.2328 1.25412e-18)
(6.63499 -14.8964 -7.28525e-19)
(6.6318 -14.6199 7.11687e-18)
(6.67258 -14.4094 -4.86484e-18)
(6.57146 -14.3641 -2.66559e-18)
(10.02 -13.8316 1.71698e-17)
(7.50558 -16.057 -1.28085e-18)
(7.91417 -16.1583 1.92287e-17)
(8.03186 -15.7269 -2.4119e-18)
(7.91055 -15.281 9.76809e-18)
(7.78978 -14.8855 -1.06737e-18)
(7.70645 -14.5603 -4.82461e-20)
(7.67348 -14.2891 5.85379e-18)
(7.67369 -14.0916 -3.16168e-18)
(7.49553 -14.0992 4.33299e-18)
(11.1606 -13.1304 -6.65129e-18)
(8.82254 -15.6363 1.66826e-18)
(9.18815 -15.7012 -5.24056e-18)
(9.21569 -15.2445 -4.95567e-18)
(9.02186 -14.8041 -2.74179e-19)
(8.84967 -14.4268 1.49417e-17)
(8.73353 -14.1207 -5.28373e-18)
(8.67876 -13.8622 2.17926e-18)
(8.63949 -13.6853 -7.81598e-18)
(8.38377 -13.7454 -3.48843e-18)
(12.2399 -12.3153 2.77635e-17)
(10.1015 -15.0767 -2.8035e-18)
(10.417 -15.1068 -2.52026e-17)
(10.3463 -14.631 1.37305e-18)
(10.0703 -14.2008 4.84105e-18)
(9.83611 -13.8442 -7.02841e-18)
(9.68135 -13.5601 -8.43483e-18)
(9.61143 -13.3235 1.2627e-17)
(9.55761 -13.1895 -1.14089e-18)
(9.26506 -13.3382 -9.1419e-18)
(13.251 -11.393 -2.24389e-17)
(11.3354 -14.3843 1.1088e-17)
(11.5967 -14.3807 1.53724e-17)
(11.4246 -13.8897 3.95466e-18)
(11.0599 -13.4686 -1.37483e-17)
(10.7469 -13.1267 8.49132e-18)
(10.5221 -12.8586 4.85918e-18)
(10.3976 -12.6516 9.67632e-18)
(10.3115 -12.6017 -5.83853e-18)
(10.0175 -12.9246 -7.58013e-18)
(14.186 -10.3708 7.18412e-18)
(12.5165 -13.5665 -2.8765e-18)
(12.7235 -13.5304 -6.70189e-19)
(12.4543 -13.0268 3.85952e-18)
(12.0079 -12.6114 2.89897e-18)
(11.6177 -12.2742 -2.11655e-18)
(11.2997 -12.0135 -3.95421e-18)
(11.0395 -11.8462 5.82928e-18)
(10.7734 -11.9196 -4.97336e-18)
(10.3438 -12.4398 3.98024e-18)
(18.4952 3.17753 3.89854e-19)
(18.5338 1.68283 1.19503e-18)
(18.4519 0.195678 -3.85857e-18)
(18.2582 -1.27419 3.53245e-18)
(17.9585 -2.71701 1.33991e-18)
(17.5588 -4.12562 1.82687e-17)
(17.0622 -5.49149 -7.09672e-18)
(16.4752 -6.80786 -1.06018e-17)
(15.7975 -8.06559 1.21647e-17)
(15.0365 -9.2575 -2.10715e-17)
(19.7115 -0.708838 1.11204e-18)
(19.4835 -2.22795 -4.65937e-19)
(19.1243 -3.72269 -3.2909e-18)
(18.6427 -5.1824 8.62098e-18)
(18.0465 -6.59434 -3.06387e-18)
(17.3448 -7.95118 2.39679e-17)
(16.5444 -9.24135 -1.54375e-17)
(15.6549 -10.4592 2.33319e-17)
(14.6822 -11.5913 -1.71727e-17)
(13.6356 -12.6334 -9.32448e-18)
(19.2936 -0.688492 -2.07835e-18)
(19.1356 -2.15782 2.42866e-19)
(18.8493 -3.61539 -9.21694e-18)
(18.4402 -5.05064 7.03104e-18)
(17.9138 -6.45098 -7.83342e-18)
(17.2781 -7.80691 -1.53476e-17)
(16.5383 -9.10659 -5.44671e-18)
(15.7057 -10.3412 -4.46194e-18)
(14.7866 -11.4978 1.55449e-17)
(13.7904 -12.566 8.95978e-18)
(18.3909 -0.500053 8.79464e-19)
(18.2702 -1.89438 -1.53868e-18)
(18.0297 -3.2851 -2.16206e-18)
(17.6725 -4.66391 -8.73159e-18)
(17.2039 -6.01816 5.49366e-18)
(16.629 -7.33864 1.61003e-17)
(15.956 -8.61342 6.67749e-18)
(15.1931 -9.8325 1.39135e-18)
(14.3474 -10.9832 3.95378e-18)
(13.4321 -12.0534 3.70562e-20)
(17.6716 -0.450609 -9.75999e-19)
(17.5453 -1.78426 -3.82403e-18)
(17.3076 -3.11524 4.11061e-19)
(16.9581 -4.44096 6.96882e-18)
(16.5056 -5.74543 7.54088e-18)
(15.9518 -7.02478 -5.23668e-18)
(15.3078 -8.26409 -9.64316e-18)
(14.5803 -9.45555 -5.19609e-18)
(13.7791 -10.5858 5.84785e-18)
(12.9189 -11.6433 9.14342e-18)
(17.1591 -0.40093 2.07504e-19)
(17.0167 -1.68932 3.12717e-18)
(16.773 -2.97013 -7.36068e-18)
(16.4156 -4.25497 9.14108e-18)
(15.9665 -5.51453 5.56094e-18)
(15.4152 -6.76184 1.06945e-17)
(14.7855 -7.96943 -2.29417e-18)
(14.0714 -9.1434 -6.85822e-18)
(13.2979 -10.2581 1.62832e-17)
(12.4764 -11.3061 -1.42919e-17)
(16.7689 -0.345149 4.71223e-19)
(16.6069 -1.60037 -3.54243e-18)
(16.3625 -2.83486 -2.23915e-18)
(15.989 -4.09125 -4.86159e-18)
(15.5482 -5.30497 -7.02045e-19)
(14.984 -6.5309 -7.25972e-18)
(14.3685 -7.70493 -4.78087e-18)
(13.646 -8.88119 -8.58585e-19)
(12.8962 -9.99272 -9.73669e-18)
(12.1002 -11.044 1.39848e-17)
(16.4409 -0.276913 -4.01572e-19)
(16.251 -1.51439 2.89837e-18)
(16.0207 -2.70613 -1.27425e-18)
(15.6168 -3.95154 2.8208e-18)
(15.2044 -5.11388 6.88047e-18)
(14.6027 -6.33238 1.16345e-17)
(14.0214 -7.45472 -3.15495e-18)
(13.2444 -8.65928 -1.17427e-17)
(12.5359 -9.77818 3.56162e-18)
(11.7239 -10.8929 -2.17705e-17)
(16.1521 -0.170747 5.70563e-19)
(15.9158 -1.40801 -6.64026e-19)
(15.7242 -2.56414 -6.49574e-18)
(15.2618 -3.82812 1.96467e-18)
(14.9156 -4.93951 -4.68491e-18)
(14.2276 -6.18753 -2.05587e-18)
(13.7296 -7.22865 -1.38524e-18)
(12.7935 -8.51458 5.24061e-18)
(12.1841 -9.60714 5.19944e-18)
(11.1918 -11.0024 4.2269e-18)
(15.9067 -0.103514 -1.24145e-18)
(15.5906 -1.34144 2.14483e-18)
(15.4589 -2.46457 1.03488e-18)
(14.899 -3.77099 2.92336e-18)
(14.6491 -4.85548 -3.03237e-19)
(13.8143 -6.18204 -2.20885e-19)
(13.4277 -7.16542 -7.19192e-18)
(12.2032 -8.5913 9.81213e-18)
(11.7323 -9.58194 -6.42434e-18)
(10.3188 -11.459 1.97185e-18)
(11.218 15.7496 -1.21205e-17)
(12.4465 14.8655 1.25418e-17)
(13.5856 13.8717 -6.0779e-19)
(14.6257 12.7767 -2.0872e-17)
(15.5554 11.5898 1.492e-17)
(16.3665 10.3203 -1.02366e-17)
(17.0513 8.97974 -2.30362e-18)
(17.6078 7.58171 -2.11955e-18)
(18.0327 6.13982 3.43992e-18)
(18.3295 4.66783 2.40221e-19)
(14.4837 12.7983 1.50737e-17)
(15.5562 11.7737 3.0541e-18)
(16.5298 10.6509 -1.45126e-17)
(17.3933 9.43644 -1.46818e-17)
(18.1351 8.13973 1.16158e-17)
(18.7477 6.76924 -9.28055e-18)
(19.2229 5.33838 1.02231e-17)
(19.5589 3.85983 -2.83937e-18)
(19.7518 2.35083 -8.50615e-18)
(19.8039 0.822013 -6.07702e-19)
(13.8853 11.9237 -2.04365e-18)
(14.9267 10.9946 -1.67257e-18)
(15.8791 9.97284 7.71427e-18)
(16.7315 8.86137 7.49963e-18)
(17.4738 7.66572 1.61026e-17)
(18.0986 6.39313 5.08366e-18)
(18.599 5.0557 -3.7249e-18)
(18.9717 3.66559 -7.38496e-18)
(19.2129 2.23706 5.80337e-18)
(19.321 0.780979 3.9767e-19)
(13.1605 11.2279 4.40627e-18)
(14.1503 10.3746 -9.14296e-18)
(15.0536 9.43864 -3.44804e-18)
(15.8613 8.41744 -1.46286e-17)
(16.5664 7.31353 -7.34319e-18)
(17.1633 6.13299 1.44024e-17)
(17.6477 4.88903 8.72109e-18)
(18.0156 3.59193 -7.34324e-18)
(18.2639 2.25493 3.2058e-19)
(18.3895 0.886407 -3.02639e-19)
(12.8266 10.7092 -1.46999e-17)
(13.7703 9.89508 1.62495e-17)
(14.6228 9.00981 -4.11971e-18)
(15.375 8.04148 8.03748e-18)
(16.0268 6.99173 -5.45328e-18)
(16.5748 5.8668 -8.27527e-18)
(17.0186 4.68354 4.12621e-18)
(17.3524 3.44837 -4.34056e-18)
(17.575 2.1761 -3.99836e-18)
(17.6809 0.87096 1.68602e-18)
(12.6424 10.3528 -2.08603e-18)
(13.5589 9.56813 3.21252e-18)
(14.3781 8.72002 -3.7051e-18)
(15.0863 7.78419 -1.62098e-17)
(15.6939 6.76872 8.54662e-18)
(16.198 5.68084 1.32269e-18)
(16.6059 4.54246 -7.43281e-18)
(16.9057 3.35128 -2.55812e-18)
(17.1025 2.12816 2.19888e-18)
(17.1837 0.868995 -5.98937e-19)
(12.4971 10.089 -8.54801e-18)
(13.3844 9.34288 -1.48202e-19)
(14.1841 8.52645 3.81783e-18)
(14.8621 7.60442 9.36571e-18)
(15.4419 6.6097 1.91199e-18)
(15.9116 5.54758 4.43908e-18)
(16.2952 4.44521 8.37509e-18)
(16.5649 3.28539 -3.59765e-18)
(16.7445 2.10329 2.99527e-18)
(16.8017 0.87857 -1.09025e-18)
(12.4007 9.86862 -2.66671e-18)
(13.2068 9.20709 3.31235e-18)
(13.976 8.42317 3.35119e-18)
(14.6284 7.49854 -4.3981e-18)
(15.1992 6.52016 -2.34538e-18)
(15.6429 5.47678 -5.1944e-18)
(16.0171 4.40166 4.49746e-19)
(16.2594 3.25838 -1.15832e-18)
(16.4365 2.10887 -6.35357e-18)
(16.4683 0.90549 8.47113e-19)
(12.5585 9.53443 -9.16837e-19)
(13.1607 9.0564 -5.97434e-18)
(13.822 8.31223 -1.96163e-18)
(14.4175 7.39326 1.00449e-18)
(14.9796 6.45763 -6.24895e-19)
(15.3864 5.446 4.56662e-18)
(15.7578 4.40484 1.77934e-18)
(15.9655 3.27532 2.61761e-18)
(16.1567 2.16028 3.01082e-18)
(16.1549 0.971188 -1.21888e-18)
(13.1383 8.85091 -3.96814e-18)
(13.5015 8.63304 6.71006e-18)
(13.917 7.91683 -1.0433e-17)
(14.3773 7.04161 -1.25763e-19)
(14.9036 6.19724 8.00933e-18)
(15.2313 5.24719 3.88708e-19)
(15.5827 4.27459 3.30781e-18)
(15.7227 3.18467 -6.72792e-18)
(15.9331 2.1359 -5.20054e-20)
(15.8716 0.977573 5.7519e-19)
(1.63763 13.5778 3.16151e-19)
(1.61773 13.6934 -1.31922e-19)
(1.63365 13.7804 -6.57181e-20)
(1.61728 13.8738 8.6269e-19)
(1.55815 14.0027 -3.98544e-19)
(1.46765 14.2115 -1.3108e-18)
(1.36874 14.6242 1.3916e-18)
(1.4477 15.5161 4.27549e-19)
(1.32904 16.9232 5.65893e-19)
(-3.02529 18.1061 2.54797e-18)
(2.76726 13.3354 8.25613e-19)
(2.73554 13.5495 -2.41144e-18)
(2.74097 13.7063 2.37187e-18)
(2.71986 13.8497 4.64225e-19)
(2.66664 14.0186 -8.85224e-19)
(2.59339 14.2654 1.03735e-18)
(2.53002 14.7174 3.29921e-18)
(2.67981 15.628 -4.13962e-18)
(2.6614 17.0189 5.39439e-20)
(-1.61648 18.395 -2.9005e-18)
(3.78483 13.2662 3.21988e-18)
(3.79475 13.4599 -4.33451e-18)
(3.82256 13.6122 -1.66988e-18)
(3.82217 13.7659 -1.24843e-19)
(3.79081 13.9559 -1.46038e-18)
(3.74339 14.2317 -5.99989e-19)
(3.72017 14.717 1.0331e-18)
(3.94108 15.6382 2.82326e-18)
(4.01789 17.0022 2.0306e-18)
(-0.176792 18.5681 -5.11797e-18)
(4.99206 12.8411 2.98786e-18)
(4.96393 13.1403 -3.47508e-18)
(4.96836 13.3642 -3.27162e-18)
(4.9629 13.5675 2.07522e-18)
(4.94093 13.7952 9.64078e-18)
(4.91531 14.1041 -3.59799e-18)
(4.93232 14.62 2.72601e-18)
(5.22313 15.5446 -8.43896e-18)
(5.38957 16.8736 -9.14462e-18)
(1.28445 18.6263 9.91756e-18)
(6.02183 12.6455 2.20171e-18)
(6.03519 12.9003 -1.46068e-18)
(6.06603 13.1074 4.27358e-18)
(6.08884 13.3129 -3.66391e-18)
(6.09316 13.5557 2.56104e-18)
(6.09632 13.8871 2.20695e-18)
(6.1565 14.4261 2.15121e-18)
(6.51593 15.3459 1.47804e-18)
(6.76509 16.6322 5.31559e-18)
(2.75657 18.5683 4.44978e-18)
(7.24473 12.0359 -6.52435e-18)
(7.19974 12.4157 -1.79467e-18)
(7.20519 12.6982 7.35883e-18)
(7.22962 12.9493 -7.92847e-18)
(7.24935 13.2223 -3.57874e-18)
(7.27886 13.5772 -8.25692e-18)
(7.38335 14.1342 5.94707e-19)
(7.80977 15.0404 -7.89206e-18)
(8.13589 16.2761 -8.71776e-19)
(4.2303 18.394 -1.35627e-17)
(8.2645 11.6547 9.12175e-18)
(8.26056 12.0049 -1.54381e-17)
(8.29588 12.2764 8.47119e-18)
(8.34904 12.5267 4.36812e-18)
(8.39316 12.8089 -8.78058e-19)
(8.45194 13.1771 1.09514e-17)
(8.60195 13.7436 -7.25472e-18)
(9.09381 14.6288 -1.59718e-17)
(9.48849 15.8066 -1.84159e-18)
(5.69373 18.1014 1.25917e-17)
(9.50978 10.8257 -2.20432e-20)
(9.4191 11.3521 7.24242e-18)
(9.40824 11.7172 -3.41955e-18)
(9.45474 12.0082 3.19592e-18)
(9.51455 12.3085 3.3706e-18)
(9.60385 12.6872 -5.19173e-18)
(9.80153 13.2563 3.52985e-18)
(10.357 14.1107 -6.98706e-18)
(10.8143 15.2227 2.01899e-17)
(7.13713 17.6915 -6.05295e-18)
(10.6268 10.2158 -4.06942e-18)
(10.5197 10.7789 -2.07317e-18)
(10.4812 11.1475 9.57709e-18)
(10.5265 11.43 -1.31571e-17)
(10.605 11.7291 1.25939e-17)
(10.7254 12.1091 -6.18027e-18)
(10.9707 12.6732 -1.02519e-17)
(11.5857 13.4857 1.64917e-18)
(12.0966 14.527 -3.34638e-17)
(8.54699 17.1625 2.30353e-17)
(11.9508 9.37576 1.06297e-17)
(11.6602 10.0673 -9.51954e-18)
(11.4901 10.5048 9.55113e-18)
(11.5337 10.7874 -7.97291e-19)
(11.6469 11.0764 -9.41948e-18)
(11.8042 11.4489 -4.79272e-18)
(12.0957 11.9956 5.48438e-18)
(12.7674 12.7561 1.34716e-17)
(13.3272 13.7182 1.56396e-17)
(9.91283 16.5168 -7.87711e-21)
(-6.18625 10.6644 -6.95489e-18)
(-6.4259 10.0902 5.3214e-18)
(-6.56699 9.71999 -2.18935e-18)
(-6.66364 9.54708 5.00169e-18)
(-6.78883 9.43311 3.90601e-18)
(-6.95924 9.33677 6.31955e-18)
(-7.23663 9.34408 8.36023e-18)
(-7.68826 9.82258 4.16805e-18)
(-8.74522 10.8475 6.23157e-18)
(-13.3673 9.83041 -3.61031e-18)
(-5.94123 11.1803 3.91523e-18)
(-6.11507 10.7339 4.1529e-18)
(-6.1445 10.4736 -6.98003e-18)
(-6.15693 10.3375 -3.48653e-18)
(-6.24002 10.2269 -5.85977e-18)
(-6.39709 10.1324 1.06687e-17)
(-6.66909 10.1549 -4.35441e-18)
(-7.09032 10.6681 -9.61088e-18)
(-8.0783 11.761 -6.90074e-18)
(-12.7364 10.9871 9.17889e-18)
(-5.32819 11.6472 -1.41625e-18)
(-5.54039 11.3383 8.33614e-19)
(-5.57973 11.1501 -9.17118e-18)
(-5.5808 11.0396 6.02443e-18)
(-5.64651 10.9419 5.00335e-18)
(-5.78971 10.8652 -3.31639e-18)
(-6.04767 10.9175 9.68514e-20)
(-6.42774 11.4736 1.65274e-17)
(-7.3349 12.6317 1.62717e-18)
(-12.0072 12.0959 -7.56381e-18)
(-4.55951 12.0541 -9.87579e-18)
(-4.78539 11.8385 5.8189e-18)
(-4.85262 11.7079 -1.70715e-18)
(-4.87926 11.6336 3.85351e-18)
(-4.95906 11.568 -1.07194e-17)
(-5.10596 11.527 3.34771e-19)
(-5.35513 11.6228 2.16819e-18)
(-5.6914 12.2286 -6.57718e-19)
(-6.51102 13.4487 -1.14615e-18)
(-11.1804 13.1466 8.93329e-18)
(-3.83068 12.5184 8.14558e-18)
(-4.02263 12.3456 2.4711e-19)
(-4.07614 12.2358 -4.41964e-18)
(-4.10707 12.1749 8.74171e-20)
(-4.19455 12.1318 7.12688e-19)
(-4.34547 12.1253 -7.11329e-18)
(-4.58647 12.2678 1.62255e-18)
(-4.87676 12.9255 -1.68856e-18)
(-5.60483 14.2017 -2.73513e-19)
(-10.2575 14.1282 -1.15428e-17)
(-3.00806 12.8204 -2.72691e-19)
(-3.18097 12.7248 5.91385e-18)
(-3.22809 12.6656 -5.51409e-18)
(-3.26459 12.6369 5.363e-19)
(-3.3582 12.6253 -1.01689e-18)
(-3.51142 12.657 5.914e-18)
(-3.74238 12.8481 1.01263e-18)
(-3.98353 13.5569 6.48293e-19)
(-4.61637 14.8816 3.962e-18)
(-9.24179 15.0307 2.40383e-18)
(-2.1935 13.1653 -4.12728e-18)
(-2.32948 13.1097 4.70745e-18)
(-2.35758 13.069 2.39638e-19)
(-2.38769 13.0524 6.575e-18)
(-2.47543 13.0609 -3.71806e-18)
(-2.62051 13.125 2.56155e-18)
(-2.83288 13.3617 -2.35019e-18)
(-3.01811 14.1171 5.04277e-18)
(-3.55159 15.4796 4.9899e-18)
(-8.13924 15.8454 4.73814e-18)
(-1.24372 13.3075 -2.57678e-18)
(-1.37039 13.3331 3.14017e-18)
(-1.40282 13.3489 -1.4836e-18)
(-1.44184 13.3714 -1.11728e-18)
(-1.53138 13.4153 2.32294e-18)
(-1.66986 13.518 -4.12801e-18)
(-1.86084 13.8015 -2.78107e-18)
(-1.98555 14.5994 9.22683e-18)
(-2.41614 15.9895 -1.70129e-18)
(-6.95767 16.566 -5.6081e-18)
(-0.346478 13.5324 -2.64534e-18)
(-0.427389 13.571 5.30866e-19)
(-0.43856 13.5955 3.39924e-19)
(-0.468212 13.6314 2.20371e-20)
(-0.547307 13.6985 -1.55394e-18)
(-0.670928 13.835 4.91404e-18)
(-0.833961 14.1627 -4.45647e-18)
(-0.893235 14.9977 -4.5527e-19)
(-1.21974 16.4044 1.56324e-19)
(-5.7055 17.1862 -4.31093e-18)
(0.688394 13.4999 7.95767e-19)
(0.615719 13.6183 1.18984e-19)
(0.602836 13.7026 -2.86145e-19)
(0.568326 13.7832 -3.69378e-19)
(0.491502 13.8892 -9.91875e-19)
(0.379731 14.0656 7.52095e-19)
(0.245664 14.438 4.66296e-19)
(0.253963 15.305 8.17823e-19)
(0.0327656 16.7175 -9.19882e-19)
(-4.39202 17.7018 8.15502e-19)
(-6.07554 9.6569 -7.60363e-18)
(-7.36685 8.06843 3.28268e-18)
(-7.60191 7.13021 -1.31141e-18)
(-8.67216 5.91371 -4.52151e-18)
(-8.93244 5.0076 -2.84998e-18)
(-9.65285 3.89592 -1.98029e-19)
(-9.87534 2.92383 -1.52345e-18)
(-10.3595 1.83441 -4.41728e-19)
(-10.535 0.830366 -5.5897e-19)
(-10.8279 -0.217063 2.47974e-19)
(-6.66703 9.18234 -4.58444e-18)
(-7.54492 7.91842 -3.72107e-18)
(-7.88648 6.95686 -4.78988e-18)
(-8.71242 5.81631 1.01584e-18)
(-9.03112 4.9154 2.02343e-18)
(-9.63853 3.85508 3.16849e-18)
(-9.90627 2.91015 -1.34658e-18)
(-10.3289 1.86683 4.44508e-18)
(-10.5302 0.889124 4.46264e-19)
(-10.7847 -0.129507 -3.91744e-19)
(-7.01464 8.81007 1.33473e-17)
(-7.65189 7.80935 -1.77193e-18)
(-8.09132 6.86295 8.17936e-18)
(-8.73355 5.81604 2.16975e-18)
(-9.11738 4.89861 -7.85028e-18)
(-9.63256 3.88138 -4.62872e-18)
(-9.94579 2.94091 -1.8774e-18)
(-10.3209 1.92999 8.34844e-19)
(-10.5489 0.962881 -1.92427e-18)
(-10.7793 -0.0375102 2.71656e-19)
(-7.19137 8.65489 3.27225e-18)
(-7.74709 7.74302 6.54501e-18)
(-8.23064 6.81645 6.1268e-19)
(-8.77022 5.83948 3.16043e-18)
(-9.18529 4.9113 4.7673e-18)
(-9.63596 3.92918 4.57158e-19)
(-9.97232 2.98785 3.12453e-18)
(-10.3126 2.00296 1.44728e-18)
(-10.5564 1.04236 2.33918e-18)
(-10.7721 0.0573008 -3.06918e-19)
(-7.33054 8.56644 9.49855e-18)
(-7.85303 7.67918 -1.10683e-17)
(-8.33778 6.76995 -1.02178e-18)
(-8.81714 5.83805 1.46489e-18)
(-9.23084 4.91601 -2.07551e-18)
(-9.63538 3.96744 -3.53792e-18)
(-9.97182 3.03447 -5.8232e-18)
(-10.2853 2.07684 4.64025e-18)
(-10.5325 1.12841 -5.39269e-19)
(-10.7389 0.162305 -1.18883e-19)
(-7.49069 8.48841 -1.51513e-17)
(-7.98796 7.61373 8.77717e-18)
(-8.45189 6.7196 3.2874e-18)
(-8.88777 5.81452 5.26385e-19)
(-9.28025 4.9071 3.17971e-18)
(-9.6462 3.98768 -4.52959e-18)
(-9.96558 3.07101 -4.21646e-18)
(-10.2529 2.14086 -2.94734e-19)
(-10.4903 1.21068 8.67883e-19)
(-10.685 0.267324 6.14869e-19)
(-7.7575 8.4952 -3.07938e-18)
(-8.23444 7.62225 -2.41854e-18)
(-8.67192 6.73445 -8.1843e-19)
(-9.07186 5.84031 3.33985e-18)
(-9.43337 4.94335 -9.53841e-18)
(-9.76162 4.04221 -3.09575e-18)
(-10.0514 3.14039 5.14555e-18)
(-10.3068 2.23172 1.2957e-18)
(-10.5207 1.31944 9.20694e-19)
(-10.6937 0.397264 -5.2617e-19)
(-8.22624 8.94712 -8.93895e-18)
(-8.70885 8.05253 -8.99297e-18)
(-9.14089 7.14718 1.49393e-17)
(-9.52709 6.23807 3.17101e-18)
(-9.87049 5.32807 1.28621e-17)
(-10.1747 4.41802 4.44294e-19)
(-10.4398 3.50801 -4.03285e-18)
(-10.6675 2.59536 5.26128e-18)
(-10.8551 1.67926 -1.80068e-19)
(-11.0018 0.756342 1.18435e-18)
(-9.33669 9.90247 1.27615e-18)
(-9.85926 8.93623 1.32287e-17)
(-10.3156 7.95947 -1.33427e-17)
(-10.7139 6.97751 8.52968e-18)
(-11.0571 5.99451 -1.32827e-17)
(-11.3494 5.01225 1.6627e-18)
(-11.5924 4.03149 -4.68223e-18)
(-11.7878 3.05157 1.79655e-18)
(-11.9348 2.07178 2.15664e-19)
(-12.0321 1.09118 -6.22335e-19)
(-13.8978 8.63651 3.14207e-18)
(-14.331 7.42132 -8.88925e-18)
(-14.6754 6.19249 4.18882e-18)
(-14.9332 4.95923 -3.60075e-18)
(-15.1091 3.72666 1.49908e-18)
(-15.2052 2.50039 7.50527e-18)
(-15.2243 1.2842 8.90324e-19)
(-15.168 0.0818714 2.10887e-18)
(-15.0375 -1.10351 -9.96535e-19)
(-14.8319 -2.26853 -2.46705e-19)
(-10.8998 -1.19913 2.27311e-19)
(-10.9941 -2.20227 -9.50301e-19)
(-10.9315 -3.17314 4.48107e-18)
(-10.8591 -4.14792 -2.95612e-18)
(-10.6794 -5.08253 2.81026e-19)
(-10.4664 -5.9785 -2.40384e-18)
(-10.1395 -6.8189 1.18012e-17)
(-9.7535 -7.65015 7.68464e-19)
(-9.39093 -8.39261 -3.32917e-18)
(-9.12494 -8.73052 6.89098e-18)
(-10.8753 -1.10482 8.43563e-19)
(-10.9551 -2.09852 -2.09723e-18)
(-10.9098 -3.07027 -1.85924e-18)
(-10.8269 -4.04495 -1.26881e-18)
(-10.6439 -4.99169 -3.34257e-18)
(-10.4063 -5.91226 -2.32817e-19)
(-10.0679 -6.79841 -7.64609e-19)
(-9.64077 -7.66704 2.94594e-18)
(-9.11912 -8.44838 7.24373e-18)
(-8.57717 -9.01582 -1.0546e-18)
(-10.8907 -1.01096 -5.76197e-19)
(-10.9665 -1.99822 4.34144e-18)
(-10.9424 -2.96892 8.37862e-19)
(-10.8646 -3.93809 -2.99778e-19)
(-10.6979 -4.8846 3.74881e-18)
(-10.4678 -5.81142 1.68233e-18)
(-10.1496 -6.71121 3.20025e-18)
(-9.73981 -7.57755 -2.61767e-18)
(-9.20675 -8.3679 -5.92358e-18)
(-8.56982 -9.07139 -1.36434e-17)
(-10.8998 -0.914229 7.20765e-19)
(-10.9764 -1.897 -2.02739e-18)
(-10.97 -2.86991 2.47796e-18)
(-10.9 -3.84069 -5.71312e-18)
(-10.749 -4.79521 -3.10713e-18)
(-10.5283 -5.73434 -1.33226e-18)
(-10.2247 -6.64754 -6.84065e-18)
(-9.83125 -7.52067 -2.9069e-18)
(-9.32172 -8.33621 1.80193e-19)
(-8.69247 -9.11718 4.45198e-18)
(-10.8767 -0.800773 3.74219e-19)
(-10.9578 -1.77434 4.916e-20)
(-10.9668 -2.74529 1.74506e-18)
(-10.9086 -3.71686 5.08629e-18)
(-10.7742 -4.67982 -8.969e-19)
(-10.5657 -5.6321 -7.1348e-18)
(-10.2744 -6.56195 1.16658e-17)
(-9.89291 -7.45712 -3.45435e-18)
(-9.40654 -8.31334 -2.74322e-18)
(-8.81009 -9.15053 -1.18604e-18)
(-10.8236 -0.680013 -1.0685e-18)
(-10.9063 -1.6379 9.8224e-19)
(-10.9251 -2.5993 2.88297e-18)
(-10.8782 -3.56504 -2.76532e-18)
(-10.7593 -4.52888 5.46543e-18)
(-10.5656 -5.48719 -6.45483e-19)
(-10.2893 -6.42995 5.476e-19)
(-9.92347 -7.34905 3.07223e-18)
(-9.46081 -8.24454 2.16228e-18)
(-8.89901 -9.1263 8.24593e-19)
(-10.8184 -0.532202 1.81097e-19)
(-10.8914 -1.47179 -2.00515e-19)
(-10.9071 -2.41859 4.62318e-18)
(-10.8615 -3.37233 -5.48761e-18)
(-10.7492 -4.32882 -9.58062e-18)
(-10.5648 -5.28416 4.7243e-18)
(-10.3013 -6.23123 -2.42367e-18)
(-9.95262 -7.16529 2.47085e-18)
(-9.5145 -8.0866 6.8018e-18)
(-8.98587 -8.99831 -7.09267e-18)
(-11.1027 -0.173373 -2.19074e-19)
(-11.1541 -1.11049 -3.39035e-18)
(-11.152 -2.05426 4.43385e-18)
(-11.0924 -3.00407 2.41526e-18)
(-10.9706 -3.95711 -7.66289e-18)
(-10.7812 -4.90963 -5.81334e-18)
(-10.519 -5.85769 -5.17591e-19)
(-10.1794 -6.7987 7.9008e-19)
(-9.75894 -7.73226 1.23404e-18)
(-9.25685 -8.65908 -2.89908e-18)
(-12.0761 0.11117 3.48747e-19)
(-12.0653 -0.86802 4.8583e-18)
(-11.9969 -1.84389 1.68153e-18)
(-11.8693 -2.81595 -5.9795e-18)
(-11.6789 -3.78118 5.61137e-18)
(-11.4231 -4.73659 -7.18022e-18)
(-11.099 -5.6792 9.3333e-18)
(-10.7054 -6.60881 -1.09657e-17)
(-10.2411 -7.52544 -5.75323e-18)
(-9.70518 -8.4282 -1.57079e-17)
(-14.5491 -3.40841 -9.74787e-20)
(-14.1914 -4.51648 -1.56456e-18)
(-13.7603 -5.59192 1.16154e-18)
(-13.2563 -6.6284 1.27352e-18)
(-12.6799 -7.6222 -2.81674e-18)
(-12.0322 -8.56775 2.65137e-18)
(-11.3151 -9.46119 -3.3e-18)
(-10.5322 -10.3 2.55759e-18)
(-9.68764 -11.0826 -6.55286e-18)
(-8.78449 -11.8065 7.16527e-18)
(-7.82627 -12.4677 1.06288e-17)
(-9.09844 -9.31425 -6.70489e-18)
(-8.67271 -9.57637 -6.22088e-18)
(-8.36775 -9.89887 7.95414e-18)
(-8.24134 -9.99755 -4.81371e-19)
(-8.1114 -9.98427 7.61668e-18)
(-7.95879 -9.90591 6.12686e-19)
(-7.8329 -9.78074 -5.74441e-18)
(-7.88022 -9.55712 9.69451e-18)
(-8.35793 -9.04614 -1.5967e-18)
(-6.82311 -13.065 -1.15491e-17)
(-8.42068 -10.1807 2.59953e-17)
(-8.00669 -10.4766 -1.27023e-18)
(-7.66291 -10.7802 -7.0504e-18)
(-7.49748 -10.8486 5.0433e-18)
(-7.33319 -10.8002 -1.05049e-17)
(-7.15262 -10.6894 1.11097e-17)
(-6.9877 -10.5463 -8.18265e-18)
(-6.88545 -10.3724 1.78762e-18)
(-7.05064 -10.0262 4.89202e-18)
(-5.77702 -13.606 6.79601e-18)
(-7.67465 -11.0261 -1.62873e-17)
(-7.2613 -11.3566 5.46851e-18)
(-6.87725 -11.6363 -2.65002e-18)
(-6.67661 -11.6717 4.40907e-18)
(-6.48457 -11.5881 -3.00741e-18)
(-6.28064 -11.4452 -2.67906e-18)
(-6.09097 -11.2702 3.03754e-18)
(-5.96511 -11.0578 -6.42864e-18)
(-6.08388 -10.7237 7.45344e-18)
(-4.69284 -14.0878 -1.50549e-17)
(-6.85832 -11.846 1.54078e-18)
(-6.43714 -12.2066 5.50191e-18)
(-6.0145 -12.4553 6.53579e-18)
(-5.78441 -12.4539 -9.8166e-18)
(-5.57028 -12.3356 7.29985e-19)
(-5.34519 -12.1691 -4.01757e-18)
(-5.12891 -11.9921 -7.6268e-18)
(-4.95045 -11.8244 1.40559e-17)
(-4.95649 -11.6176 3.47339e-18)
(-3.57189 -14.5115 1.07983e-17)
(-5.97147 -12.6345 2.0959e-18)
(-5.53605 -13.0184 7.11457e-18)
(-5.07916 -13.2275 -5.20786e-19)
(-4.82712 -13.1843 7.6334e-18)
(-4.60092 -13.0279 3.41362e-18)
(-4.37153 -12.831 7.36703e-18)
(-4.16188 -12.6299 -6.90897e-18)
(-4.00411 -12.4367 -4.76027e-19)
(-3.98133 -12.2321 -4.87392e-18)
(-2.41688 -14.8736 7.55114e-18)
(-5.01313 -13.3823 -7.05201e-18)
(-4.55955 -13.78 -1.24763e-18)
(-4.07522 -13.9408 -2.07721e-18)
(-3.80957 -13.852 -2.08897e-18)
(-3.57861 -13.6579 -2.38463e-18)
(-3.34872 -13.4356 3.58944e-18)
(-3.13971 -13.2238 -4.17009e-18)
(-2.96804 -13.0415 3.66374e-18)
(-2.8841 -12.8817 2.707e-19)
(-1.2296 -15.1716 -1.32877e-17)
(-3.98389 -14.0794 -5.18221e-18)
(-3.51093 -14.4799 8.51712e-18)
(-3.00858 -14.5844 -2.76076e-18)
(-2.73956 -14.4467 3.5828e-18)
(-2.51423 -14.2139 -9.67084e-18)
(-2.29614 -13.9633 6.93015e-18)
(-2.104 -13.7302 -2.28761e-18)
(-1.94756 -13.5262 3.52799e-18)
(-1.83576 -13.3544 -3.53886e-18)
(-0.0128082 -15.4 6.15075e-18)
(-2.88522 -14.7135 -2.10636e-18)
(-2.39437 -15.1054 -2.88453e-18)
(-1.88541 -15.1465 -1.08644e-18)
(-1.62325 -14.9589 6.53483e-19)
(-1.41067 -14.6899 1.49469e-18)
(-1.20669 -14.4167 -2.98865e-18)
(-1.02491 -14.1733 1.76313e-18)
(-0.860502 -13.972 4.55469e-18)
(-0.715381 -13.818 -3.53969e-18)
(1.23029 -15.5526 4.75904e-18)
(-1.7206 -15.2718 -4.64676e-20)
(-1.216 -15.6442 4.48422e-18)
(-0.713715 -15.6171 -3.56274e-18)
(-0.469777 -15.3794 9.97546e-19)
(-0.279421 -15.0761 -1.05012e-18)
(-0.0990817 -14.7813 -4.89223e-19)
(0.0613614 -14.5252 -2.56303e-18)
(0.214901 -14.3145 2.62614e-18)
(0.36605 -14.1579 1.95632e-18)
(2.49479 -15.6199 -8.84297e-19)
(-0.495831 -15.7404 -6.21268e-19)
(0.0165313 -16.0842 -4.69536e-19)
(0.498308 -15.9864 -1.55696e-18)
(0.713521 -15.7006 1.47221e-18)
(0.87477 -15.367 4.31058e-19)
(1.02776 -15.0558 -9.63379e-19)
(1.16786 -14.7938 6.9799e-20)
(1.31802 -14.5862 -4.43596e-19)
(1.46262 -14.4454 9.04965e-22)
(2.24315 -14.087 -4.32006e-20)
(1.30668 -11.6949 -1.43948e-20)
(0.543107 -9.11147 3.25285e-20)
(0.538674 -7.3839 -1.28287e-20)
(0.617917 -5.86659 -6.95282e-22)
(0.496967 -4.16715 -2.31548e-21)
(0.417776 -2.70269 3.77481e-22)
(0.358617 -1.66673 -2.36352e-22)
(0.307841 -1.01548 1.20596e-22)
(0.284254 -0.621351 6.10655e-23)
(0.265337 -0.395843 -1.85113e-22)
(0.256478 -0.270044 8.84864e-23)
(0.251387 -0.190613 -7.33108e-23)
(0.249442 -0.12995 -2.24711e-22)
(0.241021 -0.0833355 3.66849e-23)
(0.23568 -0.0393392 -1.03192e-22)
(0.226585 -0.00800465 3.93089e-23)
(0.22338 0.0247015 3.48614e-23)
(0.215468 0.0551835 -5.82117e-23)
(0.203838 0.0712625 -7.53843e-23)
(3.22887 -14.2966 2.69393e-19)
(2.07686 -11.9458 8.18447e-20)
(1.02908 -9.30842 -6.19892e-20)
(0.77333 -7.45921 1.3371e-20)
(0.75474 -5.90212 -1.77181e-20)
(0.586986 -4.19937 -2.58299e-21)
(0.456867 -2.70511 -7.49223e-22)
(0.372158 -1.66435 -4.36405e-22)
(0.308005 -1.01362 2.28965e-22)
(0.276694 -0.620043 5.10739e-23)
(0.252349 -0.394733 1.34725e-23)
(0.239124 -0.269455 5.6584e-22)
(0.23063 -0.190279 -7.74678e-22)
(0.225706 -0.129462 -2.19151e-22)
(0.214819 -0.0826586 1.67588e-22)
(0.207457 -0.0387418 1.52182e-22)
(0.197617 -0.00753497 -3.29497e-22)
(0.193653 0.02503 5.15331e-22)
(0.187011 0.0558384 1.35465e-22)
(0.173789 0.0717017 1.79357e-22)
(4.07551 -14.1961 -6.0435e-19)
(2.77627 -11.9708 2.33606e-19)
(1.50334 -9.43179 2.90073e-19)
(1.02003 -7.5361 -8.07712e-20)
(0.898967 -5.9413 3.95601e-21)
(0.683104 -4.23497 -1.37832e-20)
(0.503121 -2.71715 -9.80864e-22)
(0.389378 -1.66793 -1.16687e-21)
(0.310612 -1.01527 -2.5621e-22)
(0.27101 -0.620493 -2.42163e-22)
(0.240972 -0.394297 -1.10875e-22)
(0.223143 -0.26904 2.46744e-23)
(0.21117 -0.189956 8.24148e-22)
(0.20332 -0.128926 -3.94739e-22)
(0.190097 -0.0819245 -4.24435e-22)
(0.18095 -0.0381187 4.52307e-22)
(0.170443 -0.00705905 -1.30083e-22)
(0.166008 0.0253058 -2.95283e-22)
(0.160532 0.0565017 -5.00002e-22)
(0.145633 0.0722102 3.03186e-22)
(5.03721 -14.2304 -1.71915e-19)
(3.55002 -12.0818 4.87909e-19)
(2.03404 -9.54702 -2.07135e-19)
(1.30493 -7.59039 -4.04054e-20)
(1.05809 -5.95905 2.42242e-20)
(0.785075 -4.2591 -1.02625e-21)
(0.555338 -2.73254 3.26843e-21)
(0.410281 -1.67628 -9.84666e-23)
(0.315664 -1.0202 9.55637e-22)
(0.267188 -0.622663 6.02717e-22)
(0.231197 -0.394524 -1.33267e-21)
(0.208537 -0.26879 1.84021e-22)
(0.193011 -0.189651 -1.17491e-22)
(0.182285 -0.128359 6.45326e-22)
(0.166862 -0.0811586 2.01684e-22)
(0.156152 -0.0374892 -3.31462e-22)
(0.145055 -0.00659597 -3.07569e-22)
(0.140415 0.0255185 -7.0326e-22)
(0.135932 0.0571758 7.74852e-22)
(0.119393 0.0727833 -6.44273e-22)
(5.89887 -14.0583 1.59662e-20)
(4.28533 -11.9866 3.48902e-20)
(2.56908 -9.51832 1.84357e-20)
(1.60571 -7.5637 8.80427e-20)
(1.22343 -5.93708 2.78965e-20)
(0.887576 -4.26833 1.76653e-20)
(0.610213 -2.74987 -5.17798e-21)
(0.434064 -1.68912 8.04213e-22)
(0.323021 -1.02826 4.83661e-22)
(0.265195 -0.626504 6.98962e-22)
(0.223012 -0.395401 -1.33639e-22)
(0.195305 -0.268698 -1.34763e-21)
(0.176152 -0.18937 -2.56615e-22)
(0.162602 -0.127782 1.05998e-21)
(0.145113 -0.0803843 8.74741e-22)
(0.133042 -0.0368704 -4.53459e-22)
(0.121426 -0.0061623 1.21115e-21)
(0.116824 0.025662 2.14122e-22)
(0.113107 0.0578609 2.60441e-22)
(0.0951311 0.0734103 -6.71045e-23)
(6.82865 -13.8837 -1.24243e-18)
(5.07628 -11.8262 -1.77827e-19)
(3.13645 -9.40407 1.33953e-19)
(1.92314 -7.49715 -2.29136e-19)
(1.38988 -5.91924 -6.92228e-20)
(0.986558 -4.29639 -4.91093e-20)
(0.665634 -2.78335 6.86158e-21)
(0.460246 -1.70997 8.76699e-22)
(0.332587 -1.03987 -1.50668e-21)
(0.264984 -0.632038 -6.2644e-22)
(0.216399 -0.396929 -4.53637e-22)
(0.183442 -0.268761 1.21078e-21)
(0.160589 -0.189119 -5.85773e-22)
(0.144262 -0.127209 -7.14195e-22)
(0.124838 -0.0796215 -5.80965e-22)
(0.111587 -0.0362756 8.1916e-22)
(0.0995199 -0.00577055 9.8585e-23)
(0.0951652 0.0257352 4.06776e-22)
(0.0919522 0.0585539 -5.0702e-22)
(0.0729424 0.0740737 2.36975e-22)
(7.70007 -13.478 1.22734e-18)
(5.83419 -11.5916 4.31485e-19)
(3.69976 -9.35209 -1.64134e-20)
(2.24724 -7.54242 2.71252e-19)
(1.55824 -6.01855 -7.73333e-20)
(1.08759 -4.40984 8.99669e-21)
(0.72627 -2.86087 1.69918e-20)
(0.490887 -1.74658 -3.0911e-21)
(0.344819 -1.05668 -3.99915e-21)
(0.266582 -0.639634 2.06875e-22)
(0.211338 -0.399224 -9.0112e-22)