/*--------------------------------*- C++ -*----------------------------------*\
| =========                 |                                                 |
| \\      /  F ield         | OpenFOAM: The Open Source CFD Toolbox           |
|  \\    /   O peration     | Version:  v1912                                 |
|   \\  /    A nd           | Website:  www.openfoam.com                      |
|    \\/     M anipulation  |                                                 |
\*---------------------------------------------------------------------------*/
FoamFile
{
    version     2.0;
    format      ascii;
    class       surfaceScalarField;
    location    "58.5";
    object      phi;
}
// * * * * * * * * * * * * * * * * * * * * * * * * * * * * * * * * * * * * * //

dimensions      [0 3 -1 0 0 0 0];
oriented        oriented;


internalField   nonuniform List<scalar> 
18940
(
0.000358432
-0.234359
0.234001
0.0013796
-0.216317
0.215296
0.00288407
-0.204782
0.203278
0.0047013
-0.197002
0.195184
0.0067004
-0.191249
0.18925
0.00877964
-0.186459
0.18438
0.0108652
-0.18204
0.179955
0.0129075
-0.177699
0.175657
0.0148766
-0.173311
0.171342
0.0167569
-0.168847
0.166967
0.0185437
-0.164329
0.162542
0.0202395
-0.159798
0.158102
0.0218513
-0.155302
0.153691
0.023389
-0.150887
0.149349
0.0248638
-0.146586
0.145112
0.0262873
-0.142426
0.141002
0.027671
-0.138418
0.137034
0.0290255
-0.13456
0.133205
0.0303592
-0.130832
0.129499
-0.127195
0.125877
0.0316774
0.000381862
-0.234741
0.00142292
-0.217358
0.00293812
-0.206297
0.00475965
-0.198823
0.00675322
-0.193243
0.00881712
-0.188523
0.0108788
-0.184102
0.0128903
-0.179711
0.0148235
-0.175244
0.0166647
-0.170688
0.0184107
-0.166075
0.0200654
-0.161452
0.0216367
-0.156874
0.0231353
-0.152385
0.0245726
-0.148024
0.0259608
-0.143814
0.0273115
-0.139769
0.0286357
-0.135884
0.0299422
-0.132139
-0.12849
0.031237
0.00040329
-0.235145
0.00146058
-0.218416
0.00298449
-0.207821
0.00480658
-0.200645
0.00679096
-0.195227
0.00883587
-0.190568
0.01087
-0.186136
0.0128473
-0.181688
0.0147414
-0.177138
0.0165407
-0.172488
0.0182435
-0.167777
0.0198549
-0.163064
0.021384
-0.158403
0.0228418
-0.153843
0.0242403
-0.149422
0.0255919
-0.145166
0.0269083
-0.141085
0.0282008
-0.137177
0.0294788
-0.133417
-0.12976
0.030749
0.000417167
-0.235562
0.00148951
-0.219488
0.00302128
-0.209353
0.00484136
-0.202465
0.00681317
-0.197199
0.00883553
-0.19259
0.0108386
-0.188139
0.0127784
-0.183628
0.0146305
-0.178991
0.0163853
-0.174242
0.0180427
-0.169435
0.019609
-0.16463
0.0210941
-0.159888
0.0225098
-0.155259
0.0238683
-0.150781
0.0251821
-0.146479
0.0264632
-0.142366
0.027723
-0.138436
0.0289715
-0.134665
-0.131005
0.0302164
0.000428439
-0.23599
0.00151304
-0.220572
0.00304983
-0.21089
0.00486463
-0.20428
0.00682033
-0.199155
0.00881657
-0.194586
0.0107852
-0.190108
0.0126843
-0.185527
0.0144917
-0.180798
0.0161995
-0.17595
0.0178093
-0.171045
0.0193288
-0.16615
0.0207686
-0.161328
0.0221409
-0.156631
0.0234582
-0.152098
0.0247331
-0.147754
0.0259779
-0.143611
0.0272041
-0.139663
0.0284223
-0.135883
-0.132224
0.029641
0.000437534
-0.236428
0.00153159
-0.221667
0.0030704
-0.212429
0.00487663
-0.206086
0.00681273
-0.201091
0.00877937
-0.196553
0.0107103
-0.192039
0.0125657
-0.187382
0.0143257
-0.182558
0.0159842
-0.177609
0.0175446
-0.172605
0.0190155
-0.167621
0.0204085
-0.162721
0.0217361
-0.157959
0.0230112
-0.153373
0.0242463
-0.148989
0.0254536
-0.144818
0.0266453
-0.140854
0.0278323
-0.13707
-0.133416
0.0290242
0.000445016
-0.236873
0.00154584
-0.222767
0.00308355
-0.213966
0.00487785
-0.207881
0.00679088
-0.203004
0.00872453
-0.198487
0.0106145
-0.193929
0.0124234
-0.189191
0.0141334
-0.184268
0.0157404
-0.179216
0.0172494
-0.174114
0.0186702
-0.169041
0.0200149
-0.164066
0.0212967
-0.15924
0.0225284
-0.154605
0.0237225
-0.150184
0.0248915
-0.145987
0.0260475
-0.14201
0.0272023
-0.138225
-0.13458
0.0283666
0.000451042
-0.237324
0.00155611
-0.223872
0.00308969
-0.2155
0.00486877
-0.20966
0.00675535
-0.204891
0.00865273
-0.200384
0.0104988
-0.195775
0.0122583
-0.190951
0.0139159
-0.185925
0.0154693
-0.180769
0.0169251
-0.17557
0.018294
-0.17041
0.0195891
-0.165361
0.0208237
-0.160475
0.0220108
-0.155792
0.0231627
-0.151336
0.024292
-0.147117
0.0254111
-0.143129
0.0265324
-0.139347
-0.135715
0.027668
0.000455716
-0.237779
0.00156268
-0.224979
0.00308926
-0.217026
0.00484994
-0.21142
0.00670683
-0.206748
0.00856478
-0.202242
0.0103639
-0.197574
0.0120715
-0.192658
0.0136743
-0.187528
0.0151721
-0.182267
0.0165727
-0.17697
0.0178882
-0.171726
0.0191321
-0.166605
0.020318
-0.161661
0.021459
-0.156933
0.0225673
-0.152444
0.0236553
-0.148205
0.0247359
-0.14421
0.0258221
-0.140433
-0.136821
0.0269274
0.000459113
-0.238239
0.00156584
-0.226086
0.00308274
-0.218543
0.00482201
-0.21316
0.00664612
-0.208572
0.00846167
-0.204057
0.0102112
-0.199324
0.0118643
-0.194312
0.01341
-0.189074
0.01485
-0.183707
0.0161937
-0.178314
0.0174539
-0.172986
0.0186449
-0.167796
0.0197805
-0.162797
0.0208736
-0.158026
0.0219365
-0.153507
0.0229813
-0.149249
0.0240212
-0.14525
0.0250701
-0.141482
-0.137894
0.0261432
0.000461339
-0.2387
0.00156595
-0.227191
0.0030707
-0.220048
0.00478574
-0.214875
0.00657416
-0.21036
0.00834452
-0.205828
0.0100417
-0.201021
0.011638
-0.195908
0.0131245
-0.19056
0.0145049
-0.185087
0.0157896
-0.179599
0.0169927
-0.174189
0.0181289
-0.168932
0.0192122
-0.16388
0.0202554
-0.159069
0.0212705
-0.154522
0.0222696
-0.150248
0.0232659
-0.146246
0.0242746
-0.142491
-0.138932
0.0253125
0.000462549
-0.239162
0.00156344
-0.228292
0.00305383
-0.221538
0.00474204
-0.216563
0.00649208
-0.21211
0.00821466
-0.20755
0.00985723
-0.202663
0.0113945
-0.197445
0.0128197
-0.191986
0.0141384
-0.186406
0.0153623
-0.180823
0.0165063
-0.175333
0.0175856
-0.170011
0.0186142
-0.164909
0.019605
-0.16006
0.0205696
-0.155486
0.0215198
-0.151199
0.0224689
-0.147195
0.0234334
-0.143455
-0.139931
0.0244324
0.000463024
-0.239625
0.00155893
-0.229388
0.00303298
-0.223012
0.00469197
-0.218222
0.00640118
-0.213819
0.00807363
-0.209223
0.0096594
-0.204249
0.0111356
-0.198921
0.0124978
-0.193348
0.0137529
-0.187661
0.0149141
-0.181984
0.0159969
-0.176416
0.0170168
-0.171031
0.0179882
-0.16588
0.0189235
-0.160995
0.0198341
-0.156397
0.0207315
-0.152096
0.021629
-0.148093
0.0225442
-0.14437
-0.140885
0.0234989
0.000463241
-0.240089
0.00155328
-0.230478
0.00300921
-0.224468
0.00463677
-0.219849
0.00630292
-0.215486
0.00792319
-0.210843
0.00945026
-0.205776
0.0108637
-0.200335
0.0121612
-0.194645
0.0133511
-0.188851
0.0144477
-0.183081
0.0154671
-0.177435
0.0164252
-0.171989
0.0173361
-0.166791
0.0182123
-0.161872
0.0190647
-0.157249
0.0199041
-0.152935
0.020744
-0.148933
0.021603
-0.145229
-0.141788
0.0225057
0.000464002
-0.240553
0.00154765
-0.231561
0.00298373
-0.225904
0.00457782
-0.221444
0.00619893
-0.217107
0.00776523
-0.212409
0.00923209
-0.207243
0.0105815
-0.201684
0.011813
-0.195877
0.0129364
-0.189975
0.0139669
-0.184111
0.014921
-0.178389
0.0158145
-0.172882
0.0166616
-0.167638
0.0174742
-0.162684
0.0182627
-0.158038
0.0190374
-0.15371
0.0198112
-0.149706
0.0206034
-0.146022
-0.142629
0.0214444
0.000466454
-0.241019
0.00154335
-0.232638
0.00295775
-0.227319
0.00451647
-0.223002
0.00609088
-0.218681
0.00760184
-0.21392
0.00900737
-0.208649
0.0102918
-0.202969
0.0114566
-0.197042
0.0125128
-0.191031
0.0134761
-0.185074
0.0143633
-0.179277
0.0151902
-0.173709
0.0159703
-0.168418
0.016715
-0.163429
0.0174337
-0.158757
0.0181355
-0.154412
0.0188322
-0.150403
0.0195446
-0.146734
-0.143396
0.0203117
0.000471988
-0.241491
0.00154171
-0.233708
0.00293259
-0.22871
0.00445429
-0.224524
0.00598065
-0.220207
0.00743521
-0.215375
0.00877873
-0.209992
0.00999789
-0.204188
0.0110958
-0.19814
0.0120846
-0.19202
0.0129805
-0.18597
0.0138001
-0.180096
0.0145588
-0.174468
0.0152696
-0.169129
0.0159429
-0.164102
0.0165869
-0.159401
0.0172092
-0.155034
0.0178198
-0.151014
0.0184393
-0.147353
-0.144064
0.0191077
0.000482934
-0.241974
0.00154533
-0.23477
0.00291073
-0.230075
0.0043934
-0.226007
0.00587018
-0.221684
0.00726745
-0.216772
0.00854872
-0.211273
0.0097029
-0.205342
0.0107346
-0.199171
0.011657
-0.192942
0.0124861
-0.186799
0.0132382
-0.180848
0.0139277
-0.175158
0.0145665
-0.169768
0.0151637
-0.164699
0.0157267
-0.159964
0.016262
-0.15557
0.0167761
-0.151528
0.0172816
-0.147859
-0.144586
0.0178028
0.000506874
-0.242481
0.00156144
-0.235825
0.00289622
-0.23141
0.00433569
-0.227446
0.00576072
-0.223109
0.0071
-0.218111
0.00831936
-0.212493
0.00940981
-0.206432
0.0103774
-0.200139
0.0112358
-0.1938
0.012001
-0.187565
0.0126882
-0.181535
0.01331
-0.175779
0.0138753
-0.170333
0.0143902
-0.165214
0.0148582
-0.160432
0.0152812
-0.155993
0.0156582
-0.151905
0.0159935
-0.148194
-0.144941
0.0163491
0.000563924
-0.243045
0.00159834
-0.236859
0.00288881
-0.2327
0.00427999
-0.228837
0.00565179
-0.224481
0.00693325
-0.219393
0.00809197
-0.213652
0.00912091
-0.207461
0.0100277
-0.201046
0.0108267
-0.194599
0.0115341
-0.188272
0.0121643
-0.182166
0.0127278
-0.176343
0.0132304
-0.170836
0.0136717
-0.165656
0.0140445
-0.160804
0.0143317
-0.15628
0.0145073
-0.15208
0.0145663
-0.148253
-0.145113
0.014738
0.25073
0.000415185
-0.251145
0.250341
0.00038883
0.24996
0.000381565
0.249578
0.0003817
0.249194
0.000384649
0.248804
0.000389065
0.24841
0.000394221
0.248011
0.000399531
0.247606
0.000404601
0.247197
0.000409226
0.246784
0.00041331
0.246367
0.000416827
0.245947
0.000419758
0.245525
0.000422082
0.245101
0.000423672
0.244677
0.000424324
0.244254
0.00042299
0.243835
0.000419122
0.243431
0.000403518
0.000386433
0.252705
0.00102388
-0.253314
0.252061
0.00103311
0.251388
0.00105422
0.250689
0.00108123
0.249964
0.00110961
0.249215
0.001138
0.248443
0.00116593
0.24765
0.0011929
0.246836
0.0012185
0.246002
0.00124246
0.245151
0.00126468
0.244283
0.00128513
0.243399
0.0013038
0.2425
0.0013207
0.241588
0.00133567
0.240664
0.00134852
0.239729
0.00135813
0.238784
0.00136425
0.237827
0.0013606
0.00135383
0.251489
0.00159603
-0.252061
0.250852
0.00166999
0.250162
0.00174416
0.249424
0.00181943
0.24864
0.00189346
0.247813
0.00196502
0.246945
0.00203379
0.246039
0.00209954
0.245095
0.00216203
0.244117
0.00222109
0.243105
0.00227668
0.242061
0.00232885
0.240987
0.00237768
0.239884
0.00242327
0.238754
0.00246565
0.237598
0.00250485
0.236416
0.00254036
0.235208
0.0025724
0.23397
0.00259861
0.00262316
0.247385
0.0020396
-0.247829
0.246872
0.00218323
0.246294
0.00232225
0.245655
0.00245807
0.244959
0.00259006
0.244206
0.00271742
0.2434
0.00283981
0.242543
0.00295706
0.241636
0.00306905
0.240681
0.00317569
0.239681
0.003277
0.238637
0.00337311
0.23755
0.00346424
0.236423
0.00355065
0.235256
0.00363263
0.23405
0.00371054
0.232806
0.00378448
0.231523
0.00385506
0.2302
0.00392158
0.00398604
0.241138
0.00231873
-0.241417
0.240787
0.00253369
0.240368
0.00274187
0.239882
0.00294412
0.239331
0.0031404
0.238719
0.00333025
0.238045
0.00351333
0.237313
0.00368946
0.236523
0.00385851
0.235678
0.00402045
0.23478
0.00417536
0.23383
0.00432342
0.232829
0.00446498
0.231779
0.00460049
0.230681
0.00473049
0.229536
0.00485568
0.228344
0.00497666
0.227105
0.00509439
0.225817
0.00520902
0.00532224
0.23354
0.00244209
-0.233664
0.233346
0.00272767
0.233083
0.00300531
0.232752
0.00327533
0.232354
0.00353774
0.231892
0.00379226
0.231367
0.00403855
0.23078
0.00427637
0.230133
0.00450559
0.229427
0.00472619
0.228664
0.00493826
0.227846
0.00514205
0.226973
0.00533801
0.226047
0.00552676
0.225068
0.0057091
0.224038
0.00588608
0.222955
0.00605874
0.221821
0.00622848
0.220634
0.00639615
0.00656359
0.225297
0.00244024
-0.225295
0.22523
0.00279389
0.225097
0.00313885
0.224897
0.00347506
0.224632
0.00380244
0.224304
0.00412073
0.223913
0.00442958
0.223461
0.00472871
0.222948
0.00501796
0.222377
0.00529726
0.221749
0.00556672
0.221064
0.00582664
0.220325
0.00607753
0.219531
0.00632018
0.218685
0.00655565
0.217785
0.00678534
0.216833
0.00701078
0.215828
0.00723389
0.214768
0.00745621
0.00767989
0.216935
0.0023494
-0.216844
0.216961
0.00276756
0.216923
0.00317643
0.216823
0.00357573
0.21666
0.00396525
0.216436
0.00434466
0.216152
0.00471359
0.215809
0.00507171
0.215408
0.00541879
0.214951
0.00575473
0.214438
0.00607961
0.213871
0.00639373
0.213251
0.00669766
0.212578
0.00699234
0.211855
0.00727908
0.211081
0.00755964
0.210255
0.00783613
0.209378
0.00811107
0.208448
0.00838681
0.00866606
0.208802
0.00220288
-0.208655
0.208888
0.00268177
0.208913
0.0031508
0.208879
0.00360955
0.208787
0.00405769
0.208637
0.00449483
0.20843
0.00492052
0.208167
0.00533437
0.20785
0.00573608
0.207479
0.00612547
0.207056
0.00650256
0.206582
0.00686762
0.206059
0.00722126
0.205486
0.0075645
0.204867
0.00789891
0.2042
0.00822659
0.203486
0.00855032
0.202723
0.00887337
0.201911
0.00919919
0.00953131
0.201098
0.0020277
-0.200923
0.201216
0.00256373
0.201278
0.00308934
0.201283
0.00360398
0.201234
0.00410723
0.20113
0.0045986
0.200973
0.00507758
0.200764
0.00554368
0.200503
0.0059965
0.200193
0.00643577
0.199834
0.00686143
0.199428
0.00727363
0.198976
0.00767297
0.19848
0.00806049
0.197941
0.00843796
0.19736
0.00880783
0.196737
0.00917362
0.196071
0.00953951
0.195359
0.00991044
0.0102912
0.193917
0.00184371
-0.193733
0.194047
0.00243377
0.194124
0.00301283
0.194148
0.00358023
0.194119
0.00413543
0.19404
0.00467786
0.193911
0.00520691
0.193732
0.005722
0.193506
0.00622261
0.193234
0.00670833
0.192916
0.00717894
0.192555
0.00763448
0.192153
0.00807541
0.191711
0.00850269
0.19123
0.00891822
0.190714
0.00932468
0.190161
0.00972651
0.189571
0.0101288
0.188943
0.0105386
0.0109626
0.187282
0.00166433
-0.187102
0.18741
0.00230591
0.187487
0.0029359
0.187513
0.00355345
0.187491
0.00415796
0.18742
0.00474877
0.187302
0.00532515
0.187137
0.00588642
0.186928
0.0064319
0.186675
0.00696104
0.186381
0.00747342
0.186047
0.00796882
0.185674
0.00844751
0.185267
0.00891019
0.184826
0.00935882
0.184355
0.00979599
0.183854
0.0102273
0.183325
0.0106584
0.182763
0.0110999
0.0115603
0.181172
0.00149789
-0.181006
0.181289
0.00218915
0.181357
0.00286806
0.181377
0.00353371
0.181349
0.00418542
0.181275
0.00482243
0.181157
0.00544393
0.180994
0.00604908
0.180789
0.00663707
0.180543
0.00720713
0.180258
0.00775859
0.179935
0.00829092
0.179579
0.00880406
0.179191
0.00929823
0.178774
0.00977528
0.178333
0.0102372
0.177869
0.0106911
0.177385
0.0111423
0.176878
0.0116073
0.0120954
0.175546
0.00134922
-0.175397
0.175646
0.00208864
0.175699
0.00281491
0.175706
0.00352708
0.175667
0.00422437
0.175584
0.0049059
0.175457
0.00557077
0.175288
0.00621801
0.175078
0.00684663
0.17483
0.00745565
0.174544
0.0080441
0.174224
0.00861104
0.173872
0.00915596
0.173492
0.00967831
0.173088
0.0101796
0.172664
0.0106606
0.172225
0.0111301
0.171777
0.0115911
0.171314
0.01207
0.0125737
0.17035
0.00122061
-0.170222
0.170432
0.00200707
0.170467
0.00277946
0.170458
0.00353687
0.170403
0.0042784
0.170306
0.0050031
0.170167
0.00570996
0.169987
0.00639789
0.169768
0.00706572
0.169512
0.00771221
0.16922
0.00833609
0.168895
0.00893592
0.16854
0.00951061
0.16816
0.0100586
0.167759
0.0105808
0.167344
0.0110754
0.16692
0.0115535
0.1665
0.0120117
0.166076
0.012494
0.0129939
0.165531
0.00111281
-0.165423
0.165593
0.00194525
0.16561
0.0027627
0.165582
0.00356423
0.165512
0.00434889
0.165399
0.00511563
0.165246
0.00586334
0.165053
0.0065908
0.164822
0.0072967
0.164555
0.00797953
0.164253
0.00863768
0.16392
0.00926921
0.163558
0.00987233
0.163173
0.0104442
0.162769
0.0109847
0.162356
0.0114883
0.161941
0.0119687
0.161543
0.012409
0.161155
0.0128826
0.0133441
0.161036
0.00102534
-0.160949
0.161079
0.0019027
0.161077
0.00276419
0.161032
0.00360881
0.160946
0.00443553
0.160818
0.00524322
0.160651
0.0060307
0.160445
0.00679664
0.160202
0.00753956
0.159924
0.00825776
0.159612
0.00894928
0.15927
0.00961169
0.1589
0.0102425
0.158507
0.0108372
0.158097
0.0113946
0.157681
0.0119037
0.157269
0.0123808
0.156892
0.012786
0.156534
0.0132411
0.0135982
0.156818
0.000956351
-0.156749
0.156843
0.00187786
0.156824
0.00278222
0.156765
0.00366876
0.156664
0.00453634
0.156523
0.00538376
0.156344
0.00620978
0.156128
0.00701301
0.155875
0.00779181
0.155589
0.00854431
0.15527
0.00926828
0.154921
0.00996087
0.154544
0.0106188
0.154145
0.0112365
0.153729
0.0118106
0.153309
0.0123236
0.152897
0.012793
0.152541
0.0131416
0.152207
0.013575
0.0137252
0.152833
0.000903894
-0.152781
0.152843
0.00186787
0.152812
0.00281359
0.15274
0.0037405
0.152629
0.0046473
0.15248
0.00553279
0.152294
0.00639571
0.152073
0.00723458
0.151817
0.00804769
0.151528
0.008833
0.151208
0.00958814
0.150859
0.0103099
0.150483
0.0109946
0.150085
0.0116353
0.149668
0.0122276
0.149245
0.0127463
0.148829
0.0132091
0.148494
0.0134763
0.148201
0.013868
0.0136733
0.149044
-0.149006
0.00086641
0.149043
0.00186879
0.149002
0.0028539
0.148924
0.00381895
0.148809
0.00476258
0.148658
0.00568371
0.148472
0.00658107
0.148254
0.00745313
0.148003
0.00829812
0.147722
0.00911394
0.147412
0.00989814
0.147075
0.0106473
0.146712
0.0113577
0.146326
0.0120213
0.145919
0.012634
0.145502
0.0131638
0.145078
0.0136326
0.144728
0.0138272
0.14447
0.0141259
0.01303
0.254369
7.40836e-05
-0.254444
0.254333
3.6399e-05
0.2543
3.25698e-05
0.254259
4.15063e-05
0.254203
5.59418e-05
0.254129
7.37976e-05
0.254035
9.37715e-05
0.253921
0.000114739
0.253785
0.000135886
0.253628
0.000156705
0.253451
0.000176756
0.253256
0.000195759
0.253041
0.000214213
0.252808
0.000233179
0.252558
0.000250469
0.252292
0.000265646
0.252014
0.000278312
0.251725
0.000288375
0.251435
0.000289974
0.000289986
0.256235
-0.000241569
-0.255919
0.256489
-0.000217582
0.256698
-0.00017664
0.256863
-0.000122822
0.256981
-6.26416e-05
0.257054
1.29642e-06
0.25708
6.78492e-05
0.257058
0.000135926
0.25699
0.000204603
0.256873
0.000272943
0.25671
0.000339703
0.256503
0.000403638
0.256253
0.000463503
0.255955
0.000530996
0.255613
0.000592695
0.255229
0.000649852
0.254805
0.000702312
0.254343
0.000750007
0.253845
0.000788285
0.000821365
0.251672
-0.000898402
-0.251015
0.252256
-0.000801471
0.252774
-0.000694689
0.253229
-0.000578223
0.253622
-0.000455587
0.253952
-0.000329024
0.25422
-0.000199681
0.254425
-6.89629e-05
0.254566
6.31381e-05
0.254643
0.00019604
0.254657
0.000325909
0.254608
0.000452371
0.254494
0.000577726
0.254322
0.000702833
0.254091
0.000823749
0.253801
0.000939652
0.253453
0.00105007
0.253049
0.00115489
0.252585
0.00125218
0.00134472
0.243353
-0.00183429
-0.242417
0.244216
-0.00166459
0.245009
-0.00148761
0.245734
-0.00130262
0.246389
-0.00111131
0.246976
-0.000915466
0.247492
-0.000716446
0.247939
-0.000515509
0.248316
-0.000313348
0.248619
-0.000107184
0.24885
9.47633e-05
0.249013
0.000289539
0.249104
0.000486235
0.249127
0.000679909
0.249081
0.000869496
0.248967
0.00105408
0.248784
0.00123293
0.248533
0.00140566
0.248214
0.00157123
0.00173019
0.23327
-0.00296912
-0.232135
0.234337
-0.00273118
0.235335
-0.00248572
0.236265
-0.00223232
0.237125
-0.0019719
0.237916
-0.00170595
0.238635
-0.0014359
0.239282
-0.00116296
0.239857
-0.000888093
0.240362
-0.000612085
0.240795
-0.000338166
0.241152
-6.77438e-05
0.241437
0.000201251
0.24165
0.000466909
0.241791
0.000728838
0.241859
0.000985594
0.241856
0.00123645
0.241781
0.0014808
0.241634
0.00171784
0.0019475
0.222713
-0.00423048
-0.221452
0.223911
-0.00392918
0.225044
-0.0036188
0.226111
-0.00329949
0.227112
-0.00297206
0.228044
-0.00263794
0.228906
-0.00229869
0.229699
-0.00195579
0.230422
-0.00161068
0.231074
-0.0012647
0.231656
-0.000919423
0.232164
-0.000576129
0.232601
-0.000235683
0.232968
0.000100381
0.233263
0.000433538
0.233486
0.000762672
0.233637
0.00108511
0.233717
0.00140079
0.233726
0.00170907
0.00200971
0.212468
-0.00556076
-0.211137
0.213739
-0.00520029
0.214948
-0.00482864
0.216095
-0.00444643
0.217178
-0.00405472
0.218195
-0.00365513
0.219146
-0.00324946
0.22003
-0.00283945
0.220846
-0.00242676
0.221594
-0.00201283
0.222274
-0.00159908
0.222884
-0.00118691
0.223426
-0.00077713
0.223897
-0.000370466
0.224305
2.54167e-05
0.224641
0.000426773
0.224907
0.000818517
0.225105
0.00120293
0.225234
0.00157994
0.00194916
0.202944
-0.00691814
-0.201587
0.204246
-0.00650183
0.205489
-0.00607194
0.206672
-0.00562947
0.207793
-0.00517593
0.208852
-0.00471331
0.209846
-0.00424377
0.210776
-0.0037693
0.211641
-0.00329175
0.212441
-0.00281274
0.213175
-0.00233375
0.213845
-0.00185614
0.214448
-0.00138099
0.214987
-0.000909248
0.215455
-0.000442286
0.215868
1.37627e-05
0.216209
0.000477338
0.216486
0.000926144
0.216697
0.00136839
0.00180274
0.194302
-0.00827483
-0.192945
0.195606
-0.00780521
0.196853
-0.00731931
0.198042
-0.00681847
0.199171
-0.00630483
0.200239
-0.005781
0.201244
-0.00524955
0.202188
-0.0047128
0.203069
-0.00417282
0.203888
-0.00363137
0.204644
-0.00309
0.205338
-0.00255005
0.205969
-0.00201269
0.206539
-0.00147885
0.207047
-0.000949935
0.207488
-0.000427258
0.207874
9.06961e-05
0.208196
0.000604458
0.208456
0.00110807
0.00160381
0.186549
-0.00961404
-0.185209
0.187837
-0.00909309
0.18907
-0.00855266
0.190246
-0.00799448
0.191363
-0.0074217
0.19242
-0.00683776
0.193416
-0.00624572
0.194351
-0.00564829
0.195226
-0.00504774
0.196041
-0.00444599
0.196795
-0.00384461
0.19749
-0.0032449
0.198126
-0.00264802
0.198702
-0.00205493
0.199218
-0.00146662
0.199675
-0.000884017
0.200074
-0.000307846
0.200416
0.000262317
0.200698
0.000825491
0.00137917
0.179612
-0.0109271
-0.178299
0.180875
-0.0103565
0.182085
-0.00976235
0.183238
-0.00914704
0.184331
-0.00851532
0.185365
-0.00787168
0.186339
-0.00721978
0.187254
-0.0065627
0.188109
-0.00590298
0.188905
-0.00524257
0.189644
-0.00458303
0.190325
-0.00392563
0.190948
-0.00327142
0.191514
-0.00262134
0.192024
-0.00197624
0.192477
-0.00133697
0.192873
-0.000704067
0.193216
-8.04518e-05
0.193502
0.000539215
0.00114812
0.173387
-0.0122109
-0.172104
0.174623
-0.0115925
0.175806
-0.0109447
0.17693
-0.0102717
0.177996
-0.00958055
0.179001
-0.00887705
0.179947
-0.00816548
0.180833
-0.00744936
0.181662
-0.00673139
0.182433
-0.00601354
0.183147
-0.00529728
0.183805
-0.00458376
0.184408
-0.00387395
0.184955
-0.0031687
0.185448
-0.00246878
0.185886
-0.00177503
0.18627
-0.00108819
0.186599
-0.000409832
0.186878
0.000260223
0.000923768
0.167765
-0.0134665
-0.16651
0.168975
-0.0128025
0.170131
-0.0121003
0.171227
-0.0113681
0.172263
-0.0106164
0.173238
-0.00985234
0.174154
-0.00908083
0.17501
-0.00830584
0.175809
-0.00753018
0.176551
-0.00675571
0.177238
-0.00598375
0.177869
-0.00521529
0.178446
-0.00445115
0.17897
-0.0036921
0.17944
-0.00293885
0.179857
-0.0021922
0.180221
-0.00145264
0.180533
-0.000720881
0.180796
-3.71449e-06
0.000714463
0.162646
-0.0146974
-0.161415
0.163834
-0.0139912
0.164967
-0.0132327
0.166037
-0.0124387
0.167046
-0.0116246
0.167992
-0.0107986
0.168877
-0.00996625
0.169704
-0.00913211
0.170472
-0.00829892
0.171185
-0.0074683
0.171842
-0.00664132
0.172446
-0.00581874
0.172996
-0.00500123
0.173493
-0.0041894
0.173938
-0.00338389
0.174332
-0.00258546
0.174674
-0.00179475
0.174966
-0.00101306
0.175204
-0.000242216
0.000521832
0.157946
-0.0159105
-0.156733
0.159121
-0.0151662
0.160236
-0.0143475
0.161285
-0.0134879
0.162268
-0.0126083
0.163187
-0.0117176
0.164044
-0.0108228
0.164841
-0.00992874
0.165579
-0.00903779
0.166262
-0.00815122
0.166891
-0.00726972
0.167466
-0.00639371
0.167988
-0.0055236
0.168459
-0.00465985
0.168878
-0.00380302
0.169246
-0.0029538
0.169564
-0.00211293
0.169833
-0.00128137
0.170051
-0.00046024
0.000350717
0.153602
-0.0171182
-0.152394
0.154774
-0.016338
0.155878
-0.0154515
0.15691
-0.0145204
0.157872
-0.0135696
0.158764
-0.0126101
0.159592
-0.0116504
0.160358
-0.0106952
0.161067
-0.00974617
0.161719
-0.00880393
0.162318
-0.00786853
0.162864
-0.0069399
0.163359
-0.00601809
0.163802
-0.00510335
0.164195
-0.00419613
0.164539
-0.00329703
0.164833
-0.0024068
0.165077
-0.00152626
0.165274
-0.000656615
0.000201173
0.14957
-0.0183498
-0.148338
0.150753
-0.0175217
0.151853
-0.0165512
0.152871
-0.0155387
0.153809
-0.0145074
0.154672
-0.0134729
0.155467
-0.0124457
0.156201
-0.0114287
0.156877
-0.010422
0.157498
-0.00942503
0.158066
-0.00843697
0.158583
-0.007457
0.15905
-0.00648472
0.159467
-0.00552016
0.159834
-0.00456362
0.160153
-0.00361565
0.160423
-0.00267699
0.160645
-0.00174853
0.16082
-0.000831247
7.252e-05
0.145818
-0.0196699
-0.144498
0.147036
-0.0187393
0.148132
-0.0176473
0.149131
-0.0165376
0.150037
-0.0154134
0.150862
-0.0142978
0.151618
-0.0132022
0.152314
-0.0121248
0.152955
-0.0110625
0.153543
-0.0100131
0.15408
-0.00897459
0.154569
-0.0079452
0.155008
-0.00692411
0.155399
-0.00591113
0.155742
-0.00490651
0.156037
-0.00391079
0.156285
-0.00292474
0.156486
-0.00194942
0.15664
-0.000985818
-3.58671e-05
0.142364
-0.0211482
-0.140886
0.143613
-0.0199882
0.144687
-0.0187213
0.145644
-0.0174944
0.146502
-0.0162708
0.147278
-0.015074
0.147989
-0.0139132
0.148644
-0.0127798
0.149248
-0.0116664
0.149803
-0.0105683
0.15031
-0.0094822
0.150771
-0.00840571
0.151185
-0.00733766
0.151551
-0.0062778
0.151871
-0.00522643
0.152144
-0.00418416
0.152372
-0.00315184
0.152553
-0.00213065
0.152689
-0.00112207
-0.000127659
0.139278
-0.137859
-0.0225666
0.14044
-0.0211503
0.141474
-0.0197553
0.142351
-0.0183714
0.14314
-0.01706
0.143864
-0.0157977
0.144529
-0.0145783
0.145144
-0.0133945
0.145712
-0.0122353
0.146237
-0.0110926
0.146716
-0.00996179
0.147151
-0.00884024
0.14754
-0.00772686
0.147884
-0.00662153
0.148182
-0.00552472
0.148435
-0.00443721
0.148643
-0.00335998
0.148807
-0.00229403
0.148926
-0.00124094
-0.000208194
0.030842
0.112051
-0.110566
-0.0323265
0.0293302
0.115053
-0.113541
0.0277883
0.118188
-0.116646
0.0262128
0.121479
-0.119903
0.0246003
0.124957
-0.123345
0.0229481
0.128666
-0.127014
0.0212542
0.132664
-0.13097
0.019517
0.13703
-0.135293
0.0177361
0.141867
-0.140086
0.0159117
0.147308
-0.145483
0.0140456
0.153513
-0.151646
0.0121421
0.160668
-0.158765
0.0102101
0.168977
-0.167045
0.00826628
0.178626
-0.176682
0.00634055
0.189739
-0.187813
0.00448309
0.20228
-0.200423
0.00277372
0.215912
-0.214203
0.001333
0.229778
-0.228337
0.00033033
0.242095
-0.241093
0.249728
-0.249398
0.0306526
0.113528
-0.0321295
0.0291484
0.116557
0.0276144
0.119722
0.0260469
0.123046
0.0244427
0.126562
0.0227989
0.13031
0.0211134
0.13435
0.0193845
0.138759
0.0176115
0.14364
0.0157948
0.149125
0.0139362
0.155371
0.0120404
0.162564
0.0101167
0.1709
0.00818285
0.18056
0.00626977
0.191652
0.00442917
0.204121
0.00274235
0.217599
0.00132931
0.231191
0.000354089
0.243071
0.250083
0.0304213
0.114995
-0.0318884
0.0289269
0.118052
0.0274029
0.121246
0.0258458
0.124603
0.024252
0.128155
0.0226188
0.131943
0.0209438
0.136025
0.0192254
0.140477
0.0174627
0.145403
0.015656
0.150931
0.0138073
0.15722
0.0119217
0.16445
0.0100089
0.172813
0.00808734
0.182481
0.00618906
0.19355
0.00436675
0.205943
0.00270223
0.219263
0.00131387
0.23258
0.000357159
0.244027
0.25044
0.0301497
0.11645
-0.0316048
0.0286673
0.119534
0.0271555
0.122758
0.0256107
0.126148
0.0240294
0.129737
0.0224088
0.133564
0.0207464
0.137687
0.0190405
0.142183
0.0172902
0.147153
0.0154958
0.152726
0.0136594
0.159056
0.0117862
0.166323
0.00988648
0.174713
0.00797944
0.184388
0.00609786
0.195432
0.00429518
0.207746
0.00265336
0.220905
0.00128913
0.233944
0.000352091
0.244964
0.250792
0.02984
0.117891
-0.0312814
0.0283716
0.121002
0.0268738
0.124256
0.0253431
0.127679
0.0237761
0.131304
0.0221699
0.13517
0.0205221
0.139335
0.0188307
0.143874
0.0170948
0.148889
0.0153147
0.154506
0.0134926
0.160878
0.0116339
0.168182
0.00974956
0.176597
0.00785914
0.186279
0.00599627
0.197295
0.00421506
0.209527
0.0025975
0.222523
0.00125866
0.235283
0.000343167
0.24588
0.251135
0.0294949
0.119317
-0.0309209
0.0280419
0.122455
0.0265598
0.125738
0.0250448
0.129194
0.0234937
0.132855
0.0219036
0.13676
0.0202718
0.140967
0.0185967
0.14555
0.016877
0.150609
0.0151131
0.15627
0.0133073
0.162684
0.0114653
0.170024
0.00959832
0.178464
0.00772667
0.188151
0.00588466
0.199137
0.00412701
0.211285
0.00253564
0.224114
0.00122385
0.236594
0.000331557
0.246772
0.251467
0.0291171
0.120727
-0.0305267
0.0276807
0.123892
0.0262154
0.127203
0.0247174
0.130692
0.0231835
0.134389
0.0216108
0.138333
0.0199967
0.142581
0.0183393
0.147207
0.0166375
0.15231
0.0148916
0.158015
0.013104
0.164472
0.0112806
0.171847
0.00943309
0.180312
0.00758233
0.190001
0.00576335
0.200956
0.0040314
0.213016
0.00246821
0.225677
0.00118524
0.237877
0.000317967
0.24764
0.251784
0.0287095
0.12212
-0.0301021
0.0272904
0.125311
0.0258427
0.128651
0.0243626
0.132172
0.0228469
0.135904
0.0212927
0.139887
0.0196975
0.144176
0.0180592
0.148845
0.0163768
0.153993
0.0146506
0.159742
0.012883
0.166239
0.0110801
0.17365
0.00925413
0.182138
0.0074264
0.191829
0.00563262
0.20275
0.00392852
0.214721
0.00239557
0.22721
0.00114335
0.23913
0.000303
0.24848
0.252087
0.0282751
0.123495
-0.0296506
0.0268734
0.126713
0.0254436
0.130081
0.0239819
0.133633
0.0224852
0.137401
0.0209503
0.141422
0.019375
0.145751
0.0177571
0.150463
0.0160955
0.155654
0.0143905
0.161447
0.0126446
0.167985
0.0108642
0.17543
0.00906169
0.18394
0.00725911
0.193632
0.00549272
0.204516
0.00381867
0.216395
0.0023181
0.228711
0.00109867
0.240349
0.000287072
0.249291
0.252375
0.0278165
0.124854
-0.0291757
0.0264318
0.128097
0.0250197
0.131493
0.0235766
0.135076
0.0220991
0.138879
0.0205843
0.142937
0.0190297
0.147306
0.0174333
0.15206
0.0157938
0.157294
0.0141115
0.163129
0.0123891
0.169708
0.010633
0.177187
0.00885599
0.185717
0.00708069
0.195407
0.00534391
0.206253
0.00370215
0.218036
0.00223614
0.230177
0.00105156
0.241534
0.000270429
0.250073
0.252645
0.0273361
0.126199
-0.0286806
0.0259673
0.129466
0.0245723
0.132888
0.0231474
0.136501
0.0216893
0.140337
0.020195
0.144431
0.0186619
0.148839
0.017088
0.153633
0.0154719
0.15891
0.0138139
0.164787
0.0121165
0.171405
0.0103866
0.178916
0.00863717
0.187467
0.00689132
0.197153
0.00518642
0.207958
0.00357923
0.219644
0.00215
0.231606
0.0010023
0.242681
0.00025323
0.250822
0.252898
0.0268356
0.127531
-0.0281679
0.0254807
0.130821
0.0241016
0.134267
0.0226943
0.137909
0.0212555
0.141776
0.0197821
0.145905
0.0182714
0.15035
0.016721
0.155184
0.0151297
0.160501
0.0134974
0.166419
0.0118269
0.173075
0.0101251
0.180618
0.00840533
0.189186
0.00669117
0.198867