/*--------------------------------*- C++ -*----------------------------------*\
  =========                 |
  \\      /  F ield         | OpenFOAM: The Open Source CFD Toolbox
   \\    /   O peration     | Website:  https://openfoam.org
    \\  /    A nd           | Version:  6.0
     \\/     M anipulation  |
\*---------------------------------------------------------------------------*/
FoamFile
{
    version     2.0;
    format      ascii;
    class       volVectorField;
    location    "19.25";
    object      U;
}
// * * * * * * * * * * * * * * * * * * * * * * * * * * * * * * * * * * * * * //

dimensions      [0 1 -1 0 0 0 0];

internalField   nonuniform List<vector> 
2400
(
(0.0179309 -0.434527 -1.20486e-20)
(0.00563093 -0.338172 5.38466e-21)
(-0.00375756 -0.265765 -5.98208e-21)
(-0.0106885 -0.211584 -3.88808e-21)
(-0.015163 -0.170942 -6.78729e-21)
(-0.0172852 -0.14018 9.3698e-21)
(-0.017498 -0.11654 3.82092e-21)
(-0.0163112 -0.0979783 3.59944e-21)
(-0.0142088 -0.0830037 -8.37576e-21)
(-0.0121688 -0.0705651 -6.44308e-22)
(0.0515756 -0.428195 1.34474e-20)
(0.0321224 -0.330594 -1.37103e-21)
(0.0185447 -0.259074 2.8237e-21)
(0.00958764 -0.206832 3.66535e-20)
(0.00466587 -0.168503 -2.79406e-20)
(0.00323578 -0.139989 -1.46752e-21)
(0.00451898 -0.118255 -3.30605e-22)
(0.00776505 -0.101065 -3.7495e-21)
(0.0123313 -0.0867787 -6.63541e-21)
(0.01692 -0.0742995 -2.63346e-21)
(0.0844622 -0.419672 2.4885e-20)
(0.0581313 -0.3222 2.53547e-20)
(0.0412902 -0.252604 -7.32165e-20)
(0.0315365 -0.203069 2.42527e-20)
(0.0275343 -0.167623 4.03633e-20)
(0.0282216 -0.141785 -2.33112e-20)
(0.0324428 -0.122278 -2.01637e-20)
(0.0391914 -0.10668 1.90149e-20)
(0.0476666 -0.0931658 -4.3403e-20)
(0.0561485 -0.0805824 4.61822e-20)
(0.11657 -0.409195 -8.7059e-20)
(0.0839565 -0.313458 4.3503e-20)
(0.0650222 -0.246869 -4.31099e-20)
(0.0558783 -0.200764 2.21253e-20)
(0.0542746 -0.168684 -2.57267e-20)
(0.0585555 -0.145862 4.13414e-20)
(0.0671544 -0.128848 2.24451e-20)
(0.0788029 -0.115048 -6.80239e-20)
(0.0925531 -0.102401 -6.67558e-20)
(0.106159 -0.0896703 7.85317e-20)
(0.147926 -0.396992 3.54572e-21)
(0.110052 -0.304745 -1.69552e-20)
(0.0905153 -0.242216 -7.62064e-21)
(0.0836102 -0.200132 -9.45274e-21)
(0.0860182 -0.171729 -6.3994e-20)
(0.0954234 -0.152094 1.04798e-20)
(0.109824 -0.137707 -7.04251e-21)
(0.127696 -0.125846 7.44475e-20)
(0.147972 -0.11417 -5.25583e-20)
(0.167784 -0.101315 -3.83348e-20)
(0.178629 -0.383283 8.44124e-20)
(0.137035 -0.296344 -8.61793e-21)
(0.118762 -0.238805 1.31741e-19)
(0.115975 -0.201112 -1.69883e-20)
(0.124153 -0.176425 8.28039e-20)
(0.140263 -0.159862 -9.47358e-21)
(0.161847 -0.147982 -7.54903e-22)
(0.187146 -0.13804 6.0878e-20)
(0.215032 -0.127403 -3.41152e-20)
(0.241944 -0.114553 6.59952e-20)
(0.20886 -0.368269 -3.199e-20)
(0.165675 -0.288422 1.13665e-20)
(0.150926 -0.236596 -3.3788e-20)
(0.154387 -0.203365 -4.25513e-20)
(0.170228 -0.182074 -4.54683e-21)
(0.194652 -0.168066 1.40686e-19)
(0.224729 -0.158181 -5.06753e-20)
(0.25848 -0.149836 2.5237e-20)
(0.29482 -0.1402 -8.75332e-20)
(0.329515 -0.127611 -5.59058e-20)
(0.238882 -0.352119 1.54299e-19)
(0.196857 -0.281009 -1.75671e-20)
(0.188259 -0.235342 -1.83969e-19)
(0.200297 -0.206303 1.03962e-20)
(0.225769 -0.187677 4.50896e-20)
(0.260083 -0.175219 -6.74211e-20)
(0.299805 -0.166256 -9.12249e-20)
(0.342741 -0.158648 1.39112e-19)
(0.388034 -0.149603 -1.17957e-20)
(0.431027 -0.137504 -1.29249e-19)
(0.269041 -0.334948 -1.29694e-19)
(0.231515 -0.273958 7.66503e-20)
(0.231969 -0.234583 1.21678e-19)
(0.255018 -0.209145 3.32705e-20)
(0.292082 -0.192089 -1.30491e-19)
(0.337743 -0.179665 8.68873e-20)
(0.387986 -0.169769 5.42743e-20)
(0.440285 -0.160856 1.15109e-19)
(0.494159 -0.150471 -7.04029e-20)
(0.545426 -0.137979 -1.04003e-19)
(0.299728 -0.316736 4.42271e-20)
(0.270501 -0.266875 -1.82127e-20)
(0.283029 -0.233649 -6.00115e-22)
(0.319513 -0.211061 3.79045e-20)
(0.370126 -0.194409 3.24095e-20)
(0.428742 -0.180412 -2.28781e-20)
(0.490841 -0.167309 -4.62956e-20)
(0.553362 -0.153795 7.42643e-20)
(0.615404 -0.137922 -6.30954e-20)
(0.673686 -0.121969 5.8272e-20)
(0.61748 -0.00933355 3.94345e-21)
(0.591036 -0.0552373 1.13867e-20)
(0.561474 -0.0973083 -3.80717e-20)
(0.529741 -0.135506 3.34288e-20)
(0.496672 -0.169936 1.25785e-20)
(0.462985 -0.20084 1.55992e-19)
(0.429253 -0.228565 -5.96722e-20)
(0.39589 -0.25353 -7.99112e-20)
(0.363167 -0.276211 8.28409e-20)
(0.331193 -0.297131 -1.43482e-19)
(0.832835 0.0173687 1.39842e-20)
(0.780131 -0.0411678 -4.50379e-21)
(0.721814 -0.0922516 -3.77694e-20)
(0.660047 -0.135536 1.00115e-19)
(0.596879 -0.171087 -3.34199e-20)
(0.534174 -0.19936 2.51615e-19)
(0.47351 -0.221141 -1.55168e-19)
(0.416127 -0.237492 2.21181e-19)
(0.362898 -0.249673 -1.50444e-19)
(0.314319 -0.259052 -7.67493e-20)
(1.01843 0.066825 -2.77769e-20)
(0.955029 -0.000879397 4.07502e-21)
(0.882716 -0.0602603 -1.20542e-19)
(0.804155 -0.110388 9.27247e-20)
(0.72209 -0.150874 -9.37422e-20)
(0.639187 -0.181879 -1.75435e-19)
(0.557873 -0.204094 -5.68329e-20)
(0.480206 -0.218691 -4.85e-20)
(0.407797 -0.227252 1.53616e-19)
(0.341807 -0.23163 7.92606e-20)
(1.16843 0.116786 1.26865e-20)
(1.10435 0.0440021 -2.22013e-20)
(1.02819 -0.0211344 -3.00618e-20)
(0.942594 -0.077132 -1.17883e-19)
(0.850491 -0.12303 6.87361e-20)
(0.754961 -0.158468 1.98698e-19)
(0.659006 -0.183736 8.55486e-20)
(0.565353 -0.19979 1.65693e-20)
(0.476311 -0.208228 4.52815e-20)
(0.393786 -0.211204 -1.42363e-21)
(1.28303 0.159354 -1.49573e-20)
(1.2245 0.0851757 -5.87634e-20)
(1.15145 0.017186 7.88488e-21)
(1.06605 -0.0427158 1.02064e-19)
(0.971008 -0.0930489 1.04842e-19)
(0.869418 -0.132878 -6.91019e-20)
(0.764509 -0.161939 -1.28594e-19)
(0.659402 -0.180757 -6.20129e-20)
(0.556895 -0.190741 7.26748e-20)
(0.459501 -0.194263 9.91318e-20)
(1.36581 0.192691 3.13122e-21)
(1.31631 0.119979 4.99518e-20)
(1.25076 0.051716 -1.16969e-19)
(1.17066 -0.00998919 1.46461e-19)
(1.07818 -0.0632736 8.63627e-20)
(0.976065 -0.106676 1.5667e-19)
(0.867406 -0.139321 -3.34967e-20)
(0.755381 -0.161159 -8.91297e-20)
(0.642888 -0.173234 2.11066e-19)
(0.532606 -0.178136 -1.71417e-19)
(1.42188 0.216744 7.68623e-21)
(1.38276 0.147445 -6.00114e-20)
(1.32706 0.080901 -3.73445e-20)
(1.2555 0.0192425 -7.97426e-20)
(1.16954 -0.0354544 -1.12608e-20)
(1.07131 -0.0813101 -1.17223e-19)
(0.963484 -0.116843 -7.25181e-20)
(0.848936 -0.141306 -1.50055e-20)
(0.730151 -0.15517 -1.30939e-19)
(0.609011 -0.161269 1.85917e-19)
(1.45653 0.2325 -6.79529e-21)
(1.42774 0.167704 5.01837e-20)
(1.38267 0.104204 -2.23349e-20)
(1.32136 0.0439972 4.99103e-20)
(1.24447 -0.0107968 1.22431e-19)
(1.15345 -0.0580195 1.9924e-19)
(1.05035 -0.0956216 -5.72465e-20)
(0.937508 -0.121999 -1.96132e-19)
(0.816493 -0.136636 5.33329e-20)
(0.686726 -0.142374 -3.05731e-19)
(1.47454 0.241568 9.8951e-21)
(1.45513 0.181591 -1.18023e-20)
(1.4204 0.121737 -1.21087e-19)
(1.3698 0.0637552 3.69872e-20)
(1.30332 0.00965104 -8.58422e-20)
(1.22168 -0.0383012 -3.56061e-20)
(1.12633 -0.077572 -2.83647e-20)
(1.01913 -0.105514 8.1597e-20)
(0.900663 -0.119728 9.39491e-20)
(0.765957 -0.121261 5.73366e-20)
(1.47964 0.245537 -2.40116e-20)
(1.46823 0.190499 4.30543e-20)
(1.44289 0.134565 2.01073e-20)
(1.40264 0.0791442 6.12631e-20)
(1.3469 0.0259831 -7.0369e-21)
(1.27578 -0.022728 -4.69114e-21)
(1.19021 -0.0642114 -1.58772e-19)
(1.09193 -0.0949251 2.02616e-19)
(0.981675 -0.110057 -1.25406e-19)
(0.84877 -0.104886 2.62073e-20)
(0.537635 0.499606 -5.46919e-20)
(0.577469 0.460209 6.33043e-20)
(0.610956 0.415372 1.14217e-21)
(0.637426 0.366058 -1.5811e-19)
(0.656373 0.313354 1.1771e-19)
(0.667564 0.258451 -8.85036e-20)
(0.671045 0.20257 -2.16095e-20)
(0.667131 0.146886 -2.06367e-20)
(0.656393 0.0924661 3.41984e-20)
(0.639608 0.0401927 2.37617e-21)
(0.752312 0.673857 8.04196e-20)
(0.812649 0.6315 2.15446e-20)
(0.863619 0.579019 -1.12339e-19)
(0.903678 0.51796 -1.38309e-19)
(0.931577 0.450121 1.09637e-19)
(0.946501 0.377526 -9.86502e-20)
(0.948128 0.302337 1.17894e-19)
(0.93665 0.226744 -3.09173e-20)
(0.91278 0.152849 -1.03649e-19)
(0.877705 0.0825326 -7.79383e-21)
(0.886246 0.754262 -6.0842e-21)
(0.958457 0.717917 2.12552e-21)
(1.02124 0.669239 7.47231e-20)
(1.07249 0.609708 7.57899e-20)
(1.11041 0.541113 1.74474e-19)
(1.13362 0.465545 6.27717e-20)
(1.14125 0.385325 -4.2307e-20)
(1.13297 0.302916 -9.34638e-20)
(1.10908 0.220807 7.58607e-20)
(1.07045 0.141388 5.22662e-21)
(0.967815 0.773975 2.10924e-20)
(1.04587 0.745937 -5.04535e-20)
(1.11573 0.705067 -2.51143e-20)
(1.175 0.652531 -1.43505e-19)
(1.22157 0.589809 -8.80794e-20)
(1.25368 0.518712 1.69434e-19)
(1.26998 0.441334 1.15624e-19)
(1.26961 0.359992 -9.73935e-20)
(1.25227 0.277141 4.5311e-21)
(1.21827 0.195272 -4.35556e-21)
(1.016 0.757621 -5.63978e-20)
(1.09578 0.737347 9.6952e-20)
(1.16896 0.704796 -2.53176e-20)
(1.23308 0.660752 7.76127e-20)
(1.28591 0.606307 -5.4187e-20)
(1.32554 0.542891 -1.02071e-19)
(1.35033 0.472228 5.4436e-20)
(1.35904 0.396299 -5.76099e-20)
(1.35085 0.31729 -5.76442e-20)
(1.32545 0.237523 2.52898e-20)
(1.04382 0.7221 -1.02195e-20)
(1.12277 0.708097 1.75491e-20)
(1.19659 0.682968 -1.67586e-20)
(1.26281 0.647074 -1.46519e-19)
(1.31932 0.601142 8.46107e-20)
(1.36425 0.546245 1.70149e-20)
(1.39592 0.483733 -9.35833e-20)
(1.4129 0.415209 -3.4574e-20)
(1.414 0.342501 3.24596e-20)
(1.39845 0.267619 -9.20863e-21)
(1.05988 0.678112 -1.13687e-20)
(1.13685 0.668828 4.94046e-21)
(1.20957 0.649832 2.31065e-20)
(1.27573 0.620991 8.25862e-20)
(1.33356 0.582738 2.10087e-20)
(1.38144 0.535887 5.35897e-20)
(1.41784 0.481487 1.14265e-19)
(1.4413 0.42081 -4.88888e-20)
(1.4505 0.35533 4.58788e-20)
(1.44432 0.286705 -1.72926e-20)
(1.06972 0.632082 -1.26055e-20)
(1.14436 0.626593 1.83124e-20)
(1.21487 0.612603 1.76212e-20)
(1.2793 0.589504 -4.271e-20)
(1.3365 0.557632 -2.81414e-20)
(1.38527 0.517681 -5.85623e-20)
(1.4243 0.470516 8.32783e-21)
(1.45225 0.417162 -1.38416e-20)
(1.46776 0.358798 -9.76393e-20)
(1.46958 0.296754 1.37457e-20)
(1.07747 0.588349 -1.93077e-21)
(1.14912 0.586411 -1.18659e-20)
(1.21622 0.57643 -1.52709e-20)
(1.27756 0.557684 9.32703e-21)
(1.33268 0.530708 -3.89069e-21)
(1.38078 0.496244 5.19247e-20)
(1.42075 0.455057 2.35416e-20)
(1.4514 0.407997 3.80538e-20)
(1.47144 0.356012 4.68546e-20)
(1.47959 0.300151 -2.01779e-20)
(1.08927 0.548515 -9.42352e-22)
(1.15603 0.548035 1.99735e-20)
(1.21765 0.540524 -5.76917e-20)
(1.27422 0.524847 -4.34557e-21)
(1.32583 0.501694 7.70956e-20)
(1.37181 0.471818 3.76367e-21)
(1.41118 0.435865 4.68938e-20)
(1.44285 0.394503 -1.04066e-19)
(1.46565 0.348458 -1.27616e-21)
(1.47834 0.298517 1.07051e-20)
(0.59686 0.192359 -8.30381e-21)
(0.556097 0.207852 2.92378e-21)
(0.509409 0.226357 9.66494e-22)
(0.456015 0.249023 -1.56392e-20)
(0.394992 0.277343 6.96776e-21)
(0.325833 0.312869 2.06438e-20)
(0.248962 0.356579 -1.92462e-20)
(0.16665 0.407514 -4.95402e-21)
(0.0871068 0.460204 -5.95712e-21)
(0.0323392 0.500244 -2.1911e-20)
(0.619295 0.250025 -2.28576e-20)
(0.580422 0.270335 4.813e-20)
(0.535662 0.294102 -4.43524e-20)
(0.484554 0.32221 -7.53377e-21)
(0.426226 0.35568 1.25428e-20)
(0.360155 0.395095 -1.47839e-20)
(0.286656 0.43968 -4.18083e-20)
(0.207635 0.485547 4.85568e-20)
(0.130377 0.522455 -7.37315e-23)
(0.0748553 0.528331 2.21793e-20)
(0.649213 0.304871 -7.62108e-20)
(0.612949 0.329765 8.11427e-20)
(0.570809 0.358559 2.82757e-20)
(0.522736 0.391818 1.54745e-21)
(0.467861 0.430084 1.81821e-20)
(0.405514 0.472978 7.15745e-21)
(0.335671 0.517997 -1.19114e-20)
(0.259476 0.558415 -2.63646e-20)
(0.18256 0.579471 -1.9308e-20)
(0.121501 0.552032 2.84808e-20)
(0.686245 0.355907 -6.31459e-20)
(0.653222 0.385038 5.93514e-20)
(0.614332 0.418495 4.76504e-20)
(0.56998 0.456447 -3.26582e-20)
(0.519239 0.498954 -1.20509e-19)
(0.461164 0.544703 3.89764e-20)
(0.395173 0.589527 -2.80539e-20)
(0.321271 0.624042 7.68021e-20)
(0.242787 0.629402 6.78485e-20)
(0.171687 0.570377 -6.00331e-20)
(0.729875 0.402244 -4.53585e-20)
(0.700607 0.435161 2.05931e-20)
(0.665507 0.472787 -5.72869e-20)
(0.625468 0.514806 4.49836e-20)
(0.579427 0.560809 -2.1736e-20)
(0.526041 0.608584 -1.8283e-20)
(0.463964 0.65241 -1.83476e-20)
(0.391734 0.68051 -3.17812e-21)
(0.309821 0.670555 -2.69938e-20)
(0.224604 0.582505 -1.61246e-20)
(0.779421 0.443123 1.14077e-19)
(0.754281 0.47928 2.32328e-20)
(0.723403 0.520448 -7.82015e-20)
(0.68815 0.565746 7.33365e-20)
(0.647231 0.614316 3.36063e-20)
(0.598783 0.663104 5.47505e-20)
(0.540512 0.704984 -3.24453e-21)
(0.469219 0.726125 3.37789e-20)
(0.382098 0.701472 8.27371e-21)
(0.279266 0.587714 3.294e-20)
(0.834008 0.477951 -1.24068e-19)
(0.813216 0.516706 1.43759e-19)
(0.786869 0.560651 -6.96737e-20)
(0.756744 0.608277 -3.90629e-20)
(0.721203 0.658318 6.81926e-22)
(0.677748 0.706954 -5.35738e-20)
(0.622982 0.745829 3.63908e-20)
(0.55177 0.759479 4.17221e-20)
(0.457783 0.720984 5.69359e-21)
(0.334553 0.585497 -2.47402e-20)
(0.892512 0.506399 -8.98266e-21)
(0.876129 0.546938 -5.62161e-20)
(0.854513 0.592718 2.38727e-20)
(0.829741 0.64156 -5.51878e-21)
(0.799666 0.691843 -1.89424e-20)
(0.761048 0.739051 9.96495e-21)
(0.70928 0.773813 -4.05279e-21)
(0.637179 0.779493 -7.32424e-21)
(0.534832 0.728262 4.10731e-21)
(0.389253 0.575559 -7.94849e-21)
(0.953523 0.528605 1.97433e-20)
(0.941477 0.569889 6.44244e-21)
(0.924798 0.616272 -4.08687e-20)
(0.90553 0.665002 3.21658e-20)
(0.880811 0.714153 -1.56047e-20)
(0.846629 0.75858 -2.08954e-21)
(0.797124 0.788118 -6.23478e-21)
(0.72306 0.785461 -2.01533e-21)
(0.611085 0.722859 -4.76314e-20)
(0.442137 0.55785 3.02513e-20)
(1.01369 0.542267 -2.73584e-20)
(1.00566 0.583455 1.99368e-20)
(0.995003 0.629772 -7.04419e-21)
(0.981854 0.677548 -2.77853e-21)
(0.96245 0.724467 -8.9087e-21)
(0.932204 0.764907 -4.4912e-21)
(0.884081 0.78824 6.35884e-21)
(0.806933 0.777058 3.45787e-20)
(0.684354 0.704692 4.64027e-20)
(0.492027 0.532531 7.21372e-21)
(0.769778 -0.318509 1.40772e-19)
(0.740592 -0.339834 -8.80006e-20)
(0.703489 -0.359225 3.3422e-20)
(0.657843 -0.371598 -7.61964e-20)
(0.598891 -0.372243 -4.99846e-20)
(0.520597 -0.353633 -7.74742e-20)
(0.41537 -0.304853 -9.41305e-20)
(0.273677 -0.211529 -4.31225e-20)
(0.0842208 -0.0554349 -5.98353e-20)
(-0.167441 0.186245 2.97003e-20)
(0.727134 -0.285174 -8.42347e-20)
(0.696857 -0.305072 -6.98808e-20)
(0.657927 -0.323613 1.20763e-19)
(0.61062 -0.336245 5.93939e-20)
(0.55119 -0.338148 8.82917e-20)
(0.474338 -0.321759 -1.48825e-19)
(0.373454 -0.276018 5.1332e-20)
(0.240417 -0.186063 1.05233e-19)
(0.0663029 -0.0325025 7.17329e-20)
(-0.158705 0.209837 -7.6591e-20)
(0.68719 -0.245575 3.96736e-20)
(0.654988 -0.263458 -1.61249e-20)
(0.614454 -0.280411 1.71022e-19)
(0.5656 -0.292321 -1.03175e-19)
(0.505405 -0.294413 -8.40607e-20)
(0.429424 -0.279304 4.84971e-20)
(0.332169 -0.236122 -7.14306e-22)
(0.207142 -0.150039 -2.11072e-19)
(0.0481434 -0.00135255 -8.58525e-21)
(-0.149414 0.236075 6.73558e-20)
(0.652252 -0.20163 2.62181e-19)
(0.617709 -0.216731 -1.22589e-19)
(0.575317 -0.231028 4.12274e-20)
(0.52475 -0.240954 -7.04416e-20)
(0.463498 -0.241967 1.84259e-19)
(0.387925 -0.227023 -9.81224e-21)
(0.293688 -0.185722 -3.47949e-20)
(0.175993 -0.103781 5.46488e-21)
(0.0315384 0.0379246 1.741e-20)
(-0.138744 0.264962 -8.76612e-20)
(0.623107 -0.153249 -2.26525e-19)
(0.5862 -0.165003 -2.47184e-21)
(0.541906 -0.175868 9.20962e-20)
(0.489614 -0.182813 -4.47635e-21)
(0.427204 -0.181639 -1.05935e-20)
(0.351781 -0.165805 1.21236e-19)
(0.260104 -0.125662 -2.26698e-20)
(0.14907 -0.0479893 2.79565e-20)
(0.0182673 0.0848525 5.39594e-21)
(-0.125887 0.296276 1.16897e-19)
(0.600366 -0.100818 8.34875e-21)
(0.561342 -0.108758 -1.32746e-19)
(0.515337 -0.115587 1.19738e-19)
(0.461505 -0.11874 -1.05235e-20)
(0.39805 -0.114432 2.02836e-20)
(0.322731 -0.0967549 -1.0229e-19)
(0.233331 -0.0570786 -1.53041e-20)
(0.128325 0.0162778 -7.68769e-21)
(0.0100108 0.138594 -5.35646e-20)
(-0.110078 0.329597 -2.54361e-20)
(0.584554 -0.0450588 1.16668e-19)
(0.543849 -0.0487744 -1.11284e-19)
(0.496505 -0.0510737 -5.2866e-21)
(0.441507 -0.0497775 -1.32127e-19)
(0.377319 -0.0415428 7.21756e-20)
(0.30227 -0.0212085 -4.57019e-20)
(0.215037 0.0186151 3.83652e-20)
(0.115484 0.0876365 -7.36396e-20)
(0.00827084 0.197991 -6.90576e-20)
(-0.090639 0.36432 -4.9493e-20)
(0.576078 0.0131516 7.30843e-20)
(0.534271 0.0139955 -7.42786e-20)
(0.486104 0.0166117 3.29404e-20)
(0.430465 0.0228684 2.32218e-20)
(0.366034 0.0356521 -4.28831e-20)
(0.291605 0.0592955 7.37389e-20)
(0.206592 0.0997602 4.49409e-20)
(0.111981 0.164422 -1.36626e-19)
(0.0143059 0.261604 2.3013e-20)
(-0.0670105 0.399682 5.96147e-20)
(0.57522 0.0728316 7.75683e-20)
(0.532998 0.0784721 -1.17678e-20)
(0.484625 0.0862751 -6.74427e-21)
(0.428991 0.0978522 -5.37725e-22)
(0.364949 0.115628 2.8808e-20)
(0.291644 0.143045 -8.51228e-20)
(0.209039 0.184494 7.0197e-20)
(0.11892 0.244734 5.46433e-21)
(0.0290833 0.327767 -2.57709e-21)
(-0.0387868 0.434803 4.35879e-20)
(0.582137 0.132928 -2.25112e-20)
(0.540255 0.143491 -2.36546e-21)
(0.492363 0.156631 6.25681e-21)
(0.437463 0.173732 6.95361e-21)
(0.374539 0.196752 1.75271e-20)
(0.302971 0.228203 -1.2674e-20)
(0.223062 0.270799 -7.43875e-21)
(0.137033 0.326494 -1.15934e-20)
(0.0532528 0.394632 1.07257e-20)
(-0.00571594 0.468706 -7.84355e-21)
(0.829356 -0.352102 1.39596e-19)
(0.879049 -0.374343 -5.15147e-20)
(0.924691 -0.391189 1.34873e-20)
(0.966464 -0.400756 5.5735e-20)
(1.00448 -0.403216 2.88179e-20)
(1.03785 -0.39898 2.38421e-21)
(1.06521 -0.388252 3.51557e-21)
(1.08503 -0.371246 -1.89909e-21)
(1.09565 -0.3483 -1.01995e-21)
(1.09537 -0.319945 9.06091e-22)
(0.793008 -0.369513 6.44093e-20)
(0.844781 -0.391304 5.22067e-20)
(0.893275 -0.406607 4.8684e-20)
(0.937206 -0.414138 -1.43159e-20)
(0.975889 -0.413886 -1.27834e-20)
(1.00832 -0.406196 -1.09325e-20)
(1.03314 -0.39142 2.26846e-21)
(1.04879 -0.370028 9.99096e-22)
(1.05365 -0.342683 1.58772e-21)
(1.0462 -0.310303 -1.82751e-21)
(0.754342 -0.386444 -1.89461e-19)
(0.806083 -0.405815 1.90965e-20)
(0.855032 -0.417923 -9.2246e-20)
(0.898947 -0.421994 -1.46662e-20)
(0.936452 -0.417898 4.73421e-20)
(0.966225 -0.40595 1.52963e-20)
(0.986797 -0.386668 -6.78751e-22)
(0.996655 -0.360796 -1.47374e-21)
(0.99437 -0.32934 -6.3233e-21)
(0.978764 -0.293597 1.28428e-21)
(0.707872 -0.397282 -5.00438e-20)
(0.758162 -0.414002 -7.3031e-20)
(0.80549 -0.42233 -7.01307e-21)
(0.847288 -0.422043 -2.37586e-20)
(0.881666 -0.413232 -2.48654e-20)
(0.906986 -0.39639 -2.32972e-21)
(0.921712 -0.372306 -3.68165e-21)
(0.924463 -0.342056 -7.45763e-23)
(0.914131 -0.307012 6.38888e-21)
(0.890026 -0.268834 -1.52411e-21)
(0.647613 -0.395873 -1.08542e-19)
(0.695314 -0.409465 1.13892e-19)
(0.739256 -0.413602 6.35269e-21)
(0.776888 -0.408548 -5.4895e-21)
(0.80611 -0.394787 1.32424e-20)
(0.825173 -0.373149 5.11948e-21)
(0.832623 -0.344786 -3.59584e-21)
(0.827359 -0.311145 7.31119e-21)
(0.808722 -0.273955 -1.19605e-21)
(0.776619 -0.235171 -6.39273e-22)
(0.566516 -0.374393 1.56066e-19)
(0.610023 -0.384392 -8.64943e-20)
(0.648682 -0.38431 -2.63253e-20)
(0.680121 -0.374834 -6.09624e-21)
(0.702322 -0.356882 -1.06637e-20)
(0.713673 -0.331688 5.3672e-21)
(0.713 -0.300787 -4.03284e-21)
(0.699627 -0.265971 -3.20711e-21)
(0.673446 -0.229237 2.06581e-21)
(0.634982 -0.192686 2.79965e-21)
(0.455846 -0.322369 2.54254e-20)
(0.492744 -0.329027 1.57824e-20)
(0.523877 -0.325703 3.19592e-21)
(0.547173 -0.313451 -9.92405e-21)
(0.560907 -0.293584 3.05545e-20)
(0.563824 -0.267698 1.37939e-21)
(0.555189 -0.237626 -6.75772e-22)
(0.534844 -0.205371 5.72179e-22)
(0.503239 -0.173014 2.94795e-21)
(0.461436 -0.142593 -2.13052e-21)
(0.304794 -0.226455 7.35087e-20)
(0.33177 -0.231462 5.26359e-20)
(0.352768 -0.227631 -8.85917e-20)
(0.366134 -0.216273 -1.65861e-20)
(0.370609 -0.198941 -2.94218e-20)
(0.365422 -0.177403 -1.67105e-21)
(0.350345 -0.15357 -7.08258e-21)
(0.325709 -0.129397 9.27506e-21)
(0.292396 -0.106779 -7.33038e-23)
(0.251783 -0.0874368 4.53959e-21)
(0.100112 -0.0703967 -1.34343e-20)
(0.112513 -0.0779977 -8.76269e-20)
(0.120109 -0.079355 6.63496e-20)
(0.121825 -0.0757514 -2.23803e-20)
(0.116964 -0.0686278 2.89332e-20)
(0.105259 -0.0595373 -1.65843e-21)
(0.0868938 -0.0500636 -5.67401e-21)
(0.062489 -0.041728 1.41778e-22)
(0.0330556 -0.0358981 -4.44302e-22)
(-8.80753e-05 -0.0337145 -2.32561e-21)
(-0.176458 0.165014 -1.35081e-20)
(-0.186025 0.146112 4.58895e-20)
(-0.196733 0.12889 -1.90848e-20)
(-0.208903 0.112706 5.89837e-21)
(-0.222656 0.0969066 -5.60214e-21)
(-0.237902 0.0808318 -1.38996e-21)
(-0.254352 0.0638556 9.67554e-22)
(-0.271534 0.0454292 4.71614e-21)
(-0.288841 0.0251173 -2.24454e-21)
(-0.305584 0.00260902 -8.09404e-22)
(1.08254 -0.286975 1.50393e-21)
(1.05588 -0.25059 -7.41663e-21)
(1.01471 -0.212439 4.10819e-20)
(0.959148 -0.174653 -2.99489e-20)
(0.890396 -0.139785 3.54626e-21)
(0.810654 -0.110646 -3.07212e-20)
(0.722817 -0.0900155 1.54158e-19)
(0.629622 -0.0802209 7.82946e-21)
(0.52972 -0.0831588 -4.61019e-20)
(0.411705 -0.0952583 1.04098e-19)
(1.02515 -0.274108 4.99452e-21)
(0.989713 -0.235733 -1.50452e-20)
(0.939874 -0.197179 -1.53214e-20)
(0.876509 -0.160769 -1.13777e-20)
(0.801467 -0.129001 -3.28772e-20)
(0.717382 -0.104316 -7.79091e-22)
(0.627158 -0.0887605 -1.00924e-20)
(0.532958 -0.0835081 2.84652e-20)
(0.433628 -0.088379 9.18915e-20)
(0.323574 -0.096856 -2.02664e-20)
(0.949037 -0.255169 -3.39094e-21)
(0.905079 -0.216016 3.02848e-20)
(0.847589 -0.178333 7.99882e-21)
(0.778141 -0.144432 -1.67858e-21)
(0.69912 -0.116552 3.58422e-20)
(0.61343 -0.0965828 1.55764e-20)
(0.523955 -0.0857168 3.0263e-20)
(0.43273 -0.0839745 -3.28451e-20)
(0.339696 -0.0896116 -6.55857e-20)
(0.243596 -0.0961565 -1.54239e-19)
(0.85197 -0.229437 4.17951e-21)
(0.800568 -0.190979 -1.33329e-20)
(0.737226 -0.155676 1.95453e-20)
(0.6641 -0.125653 -4.44744e-20)
(0.583945 -0.10273 -2.64007e-20)
(0.499781 -0.0881665 -1.24992e-20)
(0.414413 -0.0823621 -6.35301e-20)
(0.32989 -0.0845181 -2.94144e-20)
(0.247068 -0.0922778 3.55709e-21)
(0.16684 -0.100477 4.78129e-20)
(0.731535 -0.196889 2.08451e-21)
(0.674755 -0.161295 -3.17645e-23)
(0.608273 -0.130439 1.28992e-20)
(0.534636 -0.106086 3.9828e-20)
(0.456749 -0.089531 -6.74618e-21)
(0.377553 -0.0813917 -5.9112e-20)
(0.299652 -0.0814135 9.96989e-20)
(0.224998 -0.0882917 -3.04317e-20)
(0.154833 -0.0995522 -2.29367e-20)
(0.0906036 -0.111234 -1.08331e-20)
(0.585334 -0.158416 -5.73539e-21)
(0.526316 -0.128434 6.11504e-21)
(0.460293 -0.104442 2.02691e-20)
(0.389946 -0.0877175 -1.95028e-20)
(0.318078 -0.0789852 3.88869e-20)
(0.247347 -0.0782879 -4.74038e-21)
(0.180013 -0.0848892 3.72676e-21)
(0.11777 -0.097225 2.5141e-20)
(0.0618178 -0.112935 1.97185e-20)
(0.0134004 -0.128949 6.37655e-21)
(0.41097 -0.115985 8.49627e-22)
(0.35394 -0.0948137 -1.15919e-21)
(0.29279 -0.0802901 2.89803e-20)
(0.230047 -0.0731482 -3.47158e-20)
(0.168168 -0.0735776 -6.62994e-20)
(0.109357 -0.0811729 3.20333e-20)
(0.0554071 -0.0949126 -1.69667e-20)
(0.00764036 -0.113183 1.82069e-20)
(-0.0330099 -0.13387 5.12536e-20)
(-0.0657224 -0.15456 -5.54759e-20)
(0.205563 -0.0728114 -9.05785e-22)
(0.155789 -0.0639674 -1.8126e-20)
(0.104662 -0.0615636 2.57716e-20)
(0.054277 -0.0658199 1.59672e-20)
(0.00654552 -0.0765051 -4.87082e-20)
(-0.0369123 -0.0929458 -3.83683e-20)
(-0.0748341 -0.114049 -2.72899e-21)
(-0.106319 -0.138343 5.96941e-21)
(-0.130763 -0.164069 7.82132e-21)
(-0.14773 -0.189351 -2.16207e-20)
(-0.0354672 -0.0360258 1.53169e-21)
(-0.0714579 -0.0432167 2.51349e-20)
(-0.10645 -0.0554533 1.04364e-20)
(-0.139021 -0.0725731 -3.42007e-20)
(-0.16796 -0.0941158 3.39832e-20)
(-0.192306 -0.119368 -4.46828e-20)
(-0.211352 -0.147394 5.85585e-20)
(-0.224616 -0.177063 -7.04773e-20)
(-0.231798 -0.207099 -3.73461e-20)
(-0.232728 -0.236182 -1.00625e-19)
(-0.321015 -0.0223079 -4.42685e-22)
(-0.334412 -0.0492864 -7.36086e-21)
(-0.345161 -0.0782431 5.46942e-21)
(-0.352738 -0.108891 6.5269e-21)
(-0.356758 -0.140828 -1.47582e-20)
(-0.356965 -0.173585 1.45933e-20)
(-0.353207 -0.206638 -1.7878e-20)
(-0.345409 -0.239414 1.38794e-20)
(-0.333554 -0.271303 -3.52364e-20)
(-0.317645 -0.301696 3.8885e-20)
(-0.2976 -0.329974 5.56708e-20)
(-0.22739 -0.263112 -4.1745e-20)
(-0.156944 -0.21261 -4.33099e-20)
(-0.0895692 -0.173248 5.82315e-20)
(-0.0254241 -0.142535 -5.32635e-21)
(0.0360588 -0.119099 6.92488e-20)
(0.0950813 -0.101644 7.85044e-21)
(0.151898 -0.0892736 -6.21012e-20)
(0.20785 -0.0820548 1.14441e-19)
(0.262175 -0.0768463 -1.57772e-20)
(-0.274076 -0.355257 -5.88115e-20)
(-0.216297 -0.28691 1.60979e-19)
(-0.158583 -0.23297 -6.75355e-21)
(-0.104014 -0.189434 -5.31686e-20)
(-0.0526714 -0.154121 4.21748e-20)
(-0.00389188 -0.125615 -9.60174e-20)
(0.0427354 -0.102527 1.1061e-19)
(0.0878449 -0.0838665 -9.33804e-20)
(0.132951 -0.0698685 1.68982e-20)
(0.176394 -0.0599387 7.28959e-20)
(-0.247472 -0.377438 3.37649e-20)
(-0.200189 -0.307145 -1.01425e-19)
(-0.153524 -0.249994 3.52283e-20)
(-0.110059 -0.202966 -1.94974e-20)
(-0.0696683 -0.164164 3.60345e-20)
(-0.0315446 -0.132264 -2.69756e-20)
(0.00487901 -0.10606 -2.56028e-20)
(0.0402855 -0.0848136 3.47104e-20)
(0.0756765 -0.0687845 -8.09441e-20)
(0.109049 -0.0578322 1.21533e-19)
(-0.218266 -0.39632 -7.2109e-20)
(-0.179993 -0.32354 7.90487e-21)
(-0.142997 -0.263397 3.69065e-20)
(-0.109233 -0.213565 5.00728e-20)
(-0.0783433 -0.172333 -7.65769e-20)
(-0.0494415 -0.13842 6.34552e-21)
(-0.0219331 -0.110729 -4.27418e-20)
(0.00475417 -0.0886029 -8.96196e-20)
(0.0312381 -0.0720997 1.70844e-19)
(0.0558234 -0.0609106 6.54191e-20)
(-0.186988 -0.411766 5.05416e-20)
(-0.156683 -0.335962 1.15615e-20)
(-0.128269 -0.273021 4.50673e-20)
(-0.103038 -0.220981 -5.49246e-21)
(-0.0804214 -0.178148 5.96558e-20)
(-0.0594999 -0.143162 2.93328e-20)
(-0.0397109 -0.114868 7.49249e-20)
(-0.0206124 -0.0924983 -7.61341e-20)
(-0.00182733 -0.0757867 -7.85348e-21)
(0.0153459 -0.0642326 -8.56138e-20)
(-0.154166 -0.423727 3.35425e-20)
(-0.131182 -0.344433 -3.95167e-20)
(-0.110506 -0.27889 -8.86156e-21)
(-0.0928175 -0.225159 -1.54552e-20)
(-0.0773819 -0.181375 -1.69512e-20)
(-0.0632937 -0.145968 -2.15703e-20)
(-0.0500574 -0.117615 3.52306e-20)
(-0.0373551 -0.0953415 -4.7052e-20)
(-0.0249742 -0.0785656 4.24727e-20)
(-0.0138827 -0.0666307 5.57745e-21)
(-0.120293 -0.432229 -5.83115e-20)
(-0.104304 -0.34913 -2.94222e-20)
(-0.0907024 -0.281233 5.11219e-20)
(-0.0796701 -0.226293 -1.90526e-20)
(-0.0703787 -0.182099 2.82405e-20)
(-0.0619864 -0.146768 -8.55263e-20)
(-0.0540959 -0.118733 6.5367e-20)
(-0.0465134 -0.0967924 -2.45094e-20)
(-0.0391598 -0.0801004 4.43115e-20)
(-0.0327811 -0.0678805 -5.35345e-20)
(-0.0858122 -0.437371 2.68859e-20)
(-0.0767343 -0.350377 -1.15704e-20)
(-0.0696513 -0.280473 -1.78447e-20)
(-0.0644287 -0.224819 -7.16381e-21)
(-0.0602417 -0.180715 3.96447e-21)
(-0.05637 -0.145888 1.19138e-20)
(-0.0525521 -0.118486 -2.93645e-20)
(-0.0487312 -0.0970833 1.79107e-20)
(-0.0449568 -0.0806252 5.49514e-20)
(-0.0418688 -0.0682425 -5.31759e-20)
(-0.0511058 -0.439328 2.01697e-20)
(-0.0490045 -0.348617 5.28971e-23)
(-0.0479326 -0.277183 2.77542e-20)
(-0.0476693 -0.221366 -2.39665e-20)
(-0.0475134 -0.177862 7.42319e-21)
(-0.0469355 -0.143954 -8.30577e-21)
(-0.0458552 -0.117489 -4.71627e-21)
(-0.044376 -0.096826 -2.74671e-20)
(-0.0426828 -0.0807453 2.9964e-20)
(-0.0414222 -0.0683036 3.12559e-20)
(-0.0164672 -0.438326 -3.55962e-21)
(-0.0214788 -0.344371 -3.03976e-21)
(-0.0259129 -0.272039 -2.73543e-21)
(-0.0297237 -0.216685 -1.04936e-20)
(-0.0324767 -0.174323 1.13396e-20)
(-0.0339133 -0.141764 4.14003e-21)
(-0.0341876 -0.116549 -8.88898e-21)
(-0.0335918 -0.096832 5.46311e-22)
(-0.032456 -0.081254 -5.38605e-21)
(-0.0315406 -0.0688121 -3.66521e-22)
(-0.0109074 -0.0379636 -1.10992e-21)
(-0.00196316 -0.0411795 -1.10594e-21)
(0.0495035 -0.0428719 2.47896e-21)
(0.0972553 -0.0459781 -1.64841e-21)
(0.156667 -0.0460317 -5.1667e-22)
(0.214186 -0.0417686 -1.00637e-21)
(0.272168 -0.0335183 3.49725e-22)
(0.327957 -0.0223286 -4.30346e-22)
(0.382157 -0.0104261 2.20787e-22)
(0.434432 -0.0016208 4.71253e-23)
(0.485016 0.000238471 -2.43659e-22)
(0.533765 -0.00813468 6.14564e-23)
(0.577375 -0.0263957 -5.80776e-23)
(0.614929 -0.0464295 -1.17284e-22)
(0.638902 -0.0598565 1.92401e-23)
(0.664197 -0.0402236 -2.87333e-23)
(0.677441 -0.00865034 1.16637e-23)
(0.714814 0.0407728 7.03539e-24)
(0.734373 0.0435457 -1.38483e-23)
(0.797237 -0.00387432 -2.39692e-24)
(0.0241323 -0.0400445 5.18736e-21)
(0.0351304 -0.0516246 3.88578e-21)
(0.0892466 -0.0555251 -3.67257e-21)
(0.136631 -0.0592981 1.99052e-21)
(0.193825 -0.0589636 -3.83236e-21)
(0.248254 -0.05367 -1.72532e-22)
(0.302674 -0.0442963 -3.52984e-22)
(0.355052 -0.0319877 -6.57669e-22)
(0.40635 -0.0190776 4.38661e-22)
(0.456556 -0.0093412 1.37087e-22)
(0.505837 -0.00662593 5.382e-23)
(0.553733 -0.0139802 4.99478e-22)
(0.596304 -0.0310767 -5.39869e-22)
(0.631767 -0.049655 -9.62925e-23)
(0.652714 -0.0621783 7.14373e-23)
(0.672986 -0.0419579 4.41448e-23)
(0.683168 -0.0107413 -8.62937e-23)
(0.717669 0.0384147 1.00201e-22)
(0.74027 0.040544 3.31644e-23)
(0.803435 -0.00609536 8.64108e-24)
(0.0721472 -0.0443538 -1.79704e-20)
(0.0857138 -0.0627576 2.46219e-21)
(0.14242 -0.0682057 1.72147e-20)
(0.188711 -0.0721186 -8.54697e-21)
(0.242505 -0.0711834 -1.07416e-21)
(0.292688 -0.0648373 -3.75251e-21)
(0.342414 -0.0544096 -8.05434e-24)
(0.390329 -0.0411058 -1.34656e-21)
(0.43772 -0.0273206 -4.30606e-22)
(0.484881 -0.0167587 -3.61218e-22)
(0.53192 -0.013237 -8.21672e-23)
(0.578062 -0.0195624 4.56905e-23)
(0.618842 -0.0354386 5.38894e-22)
(0.651661 -0.0525155 -2.24059e-22)
(0.669337 -0.0641042 -1.32825e-22)
(0.684444 -0.0433823 1.28159e-22)
(0.691461 -0.0126507 -2.41189e-23)
(0.722741 0.0360308 -5.5154e-23)
(0.748037 0.0374494 -1.21397e-22)
(0.810833 -0.0083021 2.72295e-23)
(0.133205 -0.0513126 -4.8919e-21)
(0.149444 -0.0744779 1.90284e-20)
(0.207944 -0.0806719 -8.95316e-21)
(0.252144 -0.0841561 -4.73636e-21)
(0.301299 -0.0824191 3.7547e-21)
(0.34615 -0.0750353 -6.73886e-22)
(0.390187 -0.0636549 1.55652e-21)
(0.432737 -0.0495037 -5.61316e-22)
(0.475361 -0.0349925 1.38995e-21)
(0.518619 -0.0237262 7.02272e-22)
(0.562569 -0.0194659 -1.52174e-21)
(0.606131 -0.0247795 2.10202e-22)
(0.644437 -0.0394142 -3.86087e-23)
(0.674135 -0.05498 3.74053e-22)
(0.688379 -0.0656244 7.77083e-23)
(0.698306 -0.044488 -8.46536e-23)
(0.702146 -0.014355 -6.86485e-23)