/*--------------------------------*- C++ -*----------------------------------*\
  =========                 |
  \\      /  F ield         | OpenFOAM: The Open Source CFD Toolbox
   \\    /   O peration     | Website:  https://openfoam.org
    \\  /    A nd           | Version:  6.0
     \\/     M anipulation  |
\*---------------------------------------------------------------------------*/
FoamFile
{
    version     2.0;
    format      ascii;
    class       volScalarField;
    location    "9.9995";
    object      p;
}
// * * * * * * * * * * * * * * * * * * * * * * * * * * * * * * * * * * * * * //

dimensions      [0 2 -2 0 0 0 0];

internalField   nonuniform List<scalar> 
19200
(
-7.14344
-6.28065
-5.69429
-5.24061
-4.8422
-4.49305
-4.18526
-3.91015
-3.66165
-3.43539
-3.22802
-3.03694
-2.8601
-2.69586
-2.54288
-2.40007
-2.26648
-2.14133
-2.02393
-1.91368
-1.81007
-1.71261
-1.62089
-1.53453
-1.4532
-1.37659
-1.30444
-1.23649
-1.17248
-1.1123
-7.32563
-6.46211
-5.87349
-5.41632
-5.01376
-4.66005
-4.34745
-4.06741
-3.81395
-3.58276
-3.37055
-3.17474
-2.99331
-2.82464
-2.6674
-2.52049
-2.38299
-2.2541
-2.13314
-2.0195
-1.91266
-1.81214
-1.71751
-1.62839
-1.54444
-1.46536
-1.39086
-1.32066
-1.25444
-1.19247
-7.51276
-6.64701
-6.05553
-5.59468
-5.18781
-4.82938
-4.51183
-4.22673
-3.96817
-3.73193
-3.51476
-3.3141
-3.12798
-2.95477
-2.79317
-2.64208
-2.50058
-2.36788
-2.24328
-2.12619
-2.01606
-1.91242
-1.81483
-1.7229
-1.63629
-1.55468
-1.4778
-1.40531
-1.33686
-1.27307
-7.70317
-6.83488
-6.24027
-5.77553
-5.36417
-5.00087
-4.67823
-4.38793
-4.12415
-3.88274
-3.66047
-3.45486
-3.26393
-3.08608
-2.92003
-2.76467
-2.61909
-2.48249
-2.35419
-2.23358
-2.1201
-2.01329
-1.91269
-1.81792
-1.7286
-1.64443
-1.56512
-1.49031
-1.4196
-1.35397
-7.89644
-7.02546
-6.42749
-5.95868
-5.54268
-5.17436
-4.84648
-4.55084
-4.28171
-4.03499
-3.80752
-3.59683
-3.40098
-3.2184
-3.04779
-2.88808
-2.73834
-2.59778
-2.46571
-2.34151
-2.22464
-2.1146
-2.01095
-1.91329
-1.82123
-1.73447
-1.6527
-1.57554
-1.50253
-1.43505
-8.09225
-7.21849
-6.617
-6.14396
-5.72315
-5.34966
-5.0164
-4.71528
-4.44067
-4.18851
-3.95571
-3.73984
-3.53897
-3.35155
-3.1763
-3.01215
-2.85817
-2.71357
-2.57767
-2.44984
-2.32952
-2.21621
-2.10947
-2.00887
-1.91404
-1.82465
-1.74041
-1.66085
-1.58552
-1.5162
-8.29033
-7.41371
-6.80858
-6.33115
-5.90539
-5.52659
-5.1878
-4.88107
-4.60084
-4.34313
-4.10488
-3.88371
-3.67772
-3.48536
-3.30538
-3.1367
-2.97841
-2.82972
-2.68992
-2.55839
-2.43458
-2.31797
-2.20809
-2.10453
-2.0069
-1.91486
-1.8281
-1.74614
-1.66847
-1.59729
-8.49043
-7.61091
-7.002
-6.52006
-6.08921
-5.70495
-5.3605
-5.04802
-4.76204
-4.49864
-4.25483
-4.02826
-3.81703
-3.61965
-3.43485
-3.26157
-3.0989
-2.94604
-2.80229
-2.66703
-2.53967
-2.41971
-2.30667
-2.20012
-2.09966
-2.00495
-1.91566
-1.83127
-1.75124
-1.67821
-8.69232
-7.80984
-7.19706
-6.71047
-6.27439
-5.88454
-5.53429
-5.21593
-4.92407
-4.65487
-4.40538
-4.17329
-3.95674
-3.75423
-3.56453
-3.38657
-3.21945
-3.06237
-2.91463
-2.77558
-2.64465
-2.52131
-2.40508
-2.29551
-2.1922
-2.0948
-2.00297
-1.91613
-1.83373
-1.75885
-8.89576
-8.01027
-7.39353
-6.90218
-6.46074
-6.06515
-5.70898
-5.3846
-5.08673
-4.81161
-4.55633
-4.31861
-4.09664
-3.88892
-3.69424
-3.51154
-3.33991
-3.17855
-3.02676
-2.88389
-2.74935
-2.6226
-2.50316
-2.39056
-2.28439
-2.18429
-2.0899
-2.00061
-1.91583
-1.8391
-9.10051
-8.21197
-7.59118
-7.09495
-6.64803
-6.24659
-5.88435
-5.55383
-5.24983
-4.96867
-4.70748
-4.46404
-4.23655
-4.02354
-3.8238
-3.63629
-3.46009
-3.29441
-3.13854
-2.99181
-2.85363
-2.72345
-2.60078
-2.48514
-2.37609
-2.27328
-2.17634
-2.08459
-1.99742
-1.91887
-9.30634
-8.41472
-7.7898
-7.28858
-6.83605
-6.42862
-6.0602
-5.72341
-5.41316
-5.12584
-4.85865
-4.60938
-4.37628
-4.1579
-3.95304
-3.76065
-3.57983
-3.40979
-3.24979
-3.09917
-2.95733
-2.82371
-2.6978
-2.5791
-2.46718
-2.36166
-2.26217
-2.16795
-2.0784
-1.99806
-9.51303
-8.61829
-7.98915
-7.48284
-7.02459
-6.61105
-6.23631
-5.89312
-5.57651
-5.28292
-5.00962
-4.75443
-4.51564
-4.29182
-4.08176
-3.88444
-3.69896
-3.52451
-3.36035
-3.20583
-3.06031
-2.92324
-2.79408
-2.67233
-2.55754
-2.44931
-2.34727
-2.2506
-2.15868
-2.07656
-9.72033
-8.82245
-8.18901
-7.67751
-7.21341
-6.79365
-6.41247
-6.06277
-5.73968
-5.43972
-5.1602
-4.89901
-4.65444
-4.4251
-4.2098
-4.0075
-3.81731
-3.63842
-3.47008
-3.31163
-3.16242
-3.02189
-2.88948
-2.76468
-2.64702
-2.53611
-2.43152
-2.33242
-2.23813
-2.15428
-9.92801
-9.02696
-8.38916
-7.87236
-7.40232
-6.9762
-6.58846
-6.23214
-5.90246
-5.59602
-5.31019
-5.04291
-4.7925
-4.55758
-4.33696
-4.12964
-3.93471
-3.75135
-3.57881
-3.41641
-3.26352
-3.11952
-2.98386
-2.85602
-2.73551
-2.62192
-2.51482
-2.4133
-2.31667
-2.23111
-10.1359
-9.23161
-8.58937
-8.06717
-7.59107
-7.15849
-6.76408
-6.40102
-6.06464
-5.75162
-5.45941
-5.18595
-4.92963
-4.68906
-4.46309
-4.2507
-4.05099
-3.86314
-3.68639
-3.52004
-3.36344
-3.21599
-3.0771
-2.94623
-2.82288
-2.70663
-2.59704
-2.49312
-2.39416
-2.30695
-10.3436
-9.43616
-8.78941
-8.26173
-7.77946
-7.3403
-6.93911
-6.56921
-6.22602
-5.90634
-5.60764
-5.32794
-5.06564
-4.81938
-4.58801
-4.37052
-4.166
-3.97364
-3.79266
-3.62235
-3.46206
-3.31115
-3.16903
-3.03515
-2.90899
-2.79011
-2.67805
-2.57176
-2.4705
-2.38168
-10.5511
-9.6404
-8.98907
-8.4558
-7.96726
-7.52142
-7.11334
-6.73648
-6.38641
-6.05996
-5.75471
-5.4687
-5.20036
-4.94835
-4.71154
-4.48892
-4.27958
-4.08269
-3.89747
-3.72321
-3.55922
-3.40487
-3.25954
-3.12266
-2.9937
-2.87221
-2.75771
-2.64908
-2.54555
-2.45518
-10.7581
-9.84411
-9.18813
-8.64919
-8.15426
-7.70163
-7.28655
-6.90265
-6.54558
-6.2123
-5.90042
-5.60804
-5.33361
-5.07582
-4.83354
-4.60576
-4.39158
-4.19015
-4.00069
-3.82247
-3.65479
-3.49699
-3.34846
-3.20861
-3.07687
-2.95279
-2.83588
-2.72495
-2.61916
-2.52729
-10.9643
-10.0471
-9.38638
-8.84166
-8.34025
-7.88072
-7.45854
-7.0675
-6.70336
-6.36317
-6.04459
-5.74578
-5.46522
-5.20161
-4.95383
-4.72088
-4.50185
-4.29587
-4.10217
-3.91999
-3.74862
-3.5874
-3.43567
-3.29285
-3.15835
-3.03171
-2.91242
-2.79919
-2.69119
-2.59785
-11.1697
-10.2491
-9.58361
-9.03301
-8.52501
-8.05848
-7.6291
-7.23083
-6.85955
-6.51237
-6.18705
-5.88177
-5.59504
-5.32558
-5.07229
-4.83415
-4.61025
-4.39973
-4.20178
-4.01564
-3.84059
-3.67594
-3.52103
-3.37524
-3.23799
-3.1088
-2.98713
-2.87164
-2.76142
-2.66666
-11.374
-10.45
-9.77961
-9.22302
-8.70833
-8.2347
-7.79804
-7.39245
-7.01395
-6.65974
-6.32762
-6.01583
-5.72291
-5.44759
-5.18877
-4.94544
-4.71667
-4.5016
-4.29941
-4.10931
-3.93057
-3.76249
-3.60439
-3.45564
-3.31563
-3.18388
-3.05985
-2.94209
-2.82963
-2.73347
-11.5771
-10.6496
-9.97419
-9.4115
-8.88999
-8.40916
-7.96513
-7.55217
-7.16639
-6.80509
-6.46614
-6.14782
-5.84868
-5.56749
-5.30314
-5.05462
-4.82099
-4.60138
-4.39494
-4.20089
-4.01847
-3.84695
-3.68565
-3.53391
-3.39113
-3.2568
-3.13037
-3.01032
-2.89558
-2.79798
-11.7788
-10.8477
-10.1671
-9.59821
-9.06978
-8.58166
-8.13019
-7.70978
-7.31668
-6.94826
-6.60245
-6.27758
-5.97223
-5.68516
-5.41529
-5.16159
-4.92312
-4.69898
-4.48831
-4.29031
-4.10419
-3.92923
-3.76471
-3.60995
-3.46435
-3.32738
-3.1985
-3.07609
-2.95896
-2.85986
-11.9792
-11.0442
-10.3582
-9.78293
-9.24748
-8.75198
-8.293
-7.8651
-7.46463
-7.08907
-6.7364
-6.40498
-6.09342
-5.8005
-5.52512
-5.26627
-5.02298
-4.79433
-4.57945
-4.37751
-4.18771
-4.00928
-3.84151
-3.6837
-3.5352
-3.39551
-3.26407
-3.13916
-3.01945
-2.91872
-12.1781
-11.2388
-10.5473
-9.96543
-9.42284
-8.9199
-8.45336
-8.01793
-7.61009
-7.22738
-6.86784
-6.52988
-6.21214
-5.9134
-5.63256
-5.36859
-5.12051
-4.88739
-4.66833
-4.46248
-4.269
-4.08712
-3.91607
-3.75514
-3.60367
-3.46114
-3.32697
-3.19936
-3.07678
-2.97398
-12.3759
-11.4313
-10.7339
-10.1454
-9.59563
-9.08519
-8.61106
-8.1681
-7.75287
-7.36302
-6.99664
-6.65218
-6.32829
-6.02377
-5.73751
-5.46848
-5.21568
-4.97814
-4.75496
-4.54524
-4.34812
-4.16279
-3.98846
-3.82438
-3.66986
-3.52436
-3.3873
-3.25676
-3.13079
-3.02502
-12.5734
-11.6218
-10.9179
-10.3226
-9.76552
-9.24757
-8.76586
-8.31538
-7.89279
-7.49583
-7.12265
-6.77173
-6.44175
-6.13152
-5.83992
-5.5659
-5.30845
-5.06658
-4.83935
-4.62583
-4.42514
-4.23641
-4.05883
-3.8916
-3.73396
-3.58536
-3.44519
-3.31127
-3.18094
-3.0715
-12.772
-11.8101
-11.0986
-10.4964
-9.93215
-9.40676
-8.91753
-8.45957
-8.02968
-7.62565
-7.24573
-6.88842
-6.55243
-6.23656
-5.93971
-5.6608
-5.3988
-5.1527
-4.92153
-4.70433
-4.50019
-4.30819
-4.12747
-3.95716
-3.79643
-3.6446
-3.50081
-3.36229
-3.22608
-3.11307
-12.964
-11.993
-11.2749
-10.6665
-10.0954
-9.56274
-9.06608
-8.6007
-8.16355
-7.75251
-7.3659
-7.00227
-6.66034
-6.33893
-6.03691
-5.75321
-5.48677
-5.23657
-5.0016
-4.78088
-4.57346
-4.37842
-4.19485
-4.02186
-3.85857
-3.70411
-3.5571
-3.41456
-3.27482
-3.15698
-16.2214
-16.198
-16.165
-16.1273
-16.0842
-16.035
-15.9794
-15.9175
-15.8492
-15.7746
-15.6937
-15.6066
-15.5133
-15.4139
-15.3087
-15.1975
-15.0807
-14.9584
-14.8306
-14.6975
-14.5594
-14.4163
-14.2685
-14.1161
-13.9594
-13.7985
-13.6339
-13.4659
-13.2952
-13.1244
-15.1821
-15.1636
-15.1365
-15.1028
-15.0626
-15.0159
-14.9627
-14.903
-14.837
-14.7646
-14.686
-14.6012
-14.5103
-14.4134
-14.3106
-14.2021
-14.088
-13.9683
-13.8433
-13.7131
-13.5778
-13.4376
-13.2927
-13.1433
-12.9896
-12.8318
-12.6702
-12.505
-12.3366
-12.1656
-14.3399
-14.3253
-14.3029
-14.2734
-14.2372
-14.1943
-14.1449
-14.0891
-14.0269
-13.9585
-13.8838
-13.8031
-13.7164
-13.6237
-13.5252
-13.4211
-13.3114
-13.1962
-13.0757
-12.9501
-12.8195
-12.684
-12.5438
-12.3992
-12.2502
-12.097
-11.9399
-11.7791
-11.6146
-11.4466
-13.5747
-13.5637
-13.5456
-13.5204
-13.4886
-13.4503
-13.4055
-13.3544
-13.297
-13.2335
-13.1638
-13.0882
-13.0066
-12.9192
-12.8262
-12.7275
-12.6233
-12.5137
-12.399
-12.2791
-12.1542
-12.0246
-11.8903
-11.7515
-11.6083
-11.461
-11.3097
-11.1545
-10.9955
-10.8329
-12.8311
-12.8236
-12.8096
-12.7888
-12.7616
-12.7279
-12.688
-12.6419
-12.5897
-12.5314
-12.4672
-12.3971
-12.3212
-12.2396
-12.1524
-12.0597
-11.9616
-11.8583
-11.7498
-11.6363
-11.5179
-11.3947
-11.267
-11.1348
-10.9982
-10.8575
-10.7127
-10.564
-10.4115
-10.2554
-12.1208
-12.1168
-12.1065
-12.0899
-12.067
-12.038
-12.0028
-11.9617
-11.9146
-11.8616
-11.8028
-11.7383
-11.6682
-11.5925
-11.5114
-11.4249
-11.3331
-11.2362
-11.1342
-11.0274
-10.9157
-10.7993
-10.6784
-10.5531
-10.4235
-10.2897
-10.152
-10.0103
-9.86478
-9.71562
-11.4489
-11.448
-11.4412
-11.4283
-11.4094
-11.3846
-11.3539
-11.3174
-11.2752
-11.2273
-11.1738
-11.1147
-11.0502
-10.9803
-10.9051
-10.8247
-10.7392
-10.6486
-10.5532
-10.4529
-10.348
-10.2384
-10.1244
-10.0061
-9.88356
-9.7569
-9.62626
-9.49176
-9.35349
-9.2116
-10.8159
-10.8177
-10.8138
-10.8042
-10.7888
-10.7678
-10.7411
-10.7089
-10.6711
-10.6279
-10.5793
-10.5253
-10.4661
-10.4017
-10.3321
-10.2576
-10.178
-10.0936
-10.0045
-9.91062
-9.81221
-9.70934
-9.60212
-9.49065
-9.37504
-9.2554
-9.13186
-9.00451
-8.87346
-8.73885
-10.2219
-10.2259
-10.2245
-10.2176
-10.2053
-10.1875
-10.1644
-10.1359
-10.1022
-10.0632
-10.019
-9.9697
-9.91533
-9.85597
-9.79168
-9.72253
-9.64861
-9.56999
-9.48676
-9.39901
-9.30684
-9.21033
-9.10959
-9.00472
-8.89582
-8.78298
-8.66633
-8.54595
-8.42196
-8.29448
-9.66654
-9.67224
-9.67286
-9.66825
-9.65843
-9.64346
-9.62337
-9.59816
-9.56791
-9.53265
-9.49243
-9.44731
-9.39733
-9.34256
-9.28306
-9.2189
-9.15014
-9.07687
-8.99916
-8.91709
-8.83075
-8.74022
-8.6456
-8.54697
-8.44443
-8.33808
-8.22801
-8.11432
-7.99711
-7.8765
-9.14887
-9.15587
-9.15802
-9.15521
-9.14745
-9.13478
-9.11723
-9.09481
-9.06756
-9.03555
-8.99881
-8.95737
-8.91129
-8.86062
-8.80543
-8.74577
-8.68171
-8.61332
-8.54067
-8.46383
-8.38288
-8.29789
-8.20896
-8.11617
-8.0196
-7.91934
-7.81549
-7.70812
-7.59735
-7.48327
-8.66738
-8.67528
-8.67858
-8.67715
-8.67102
-8.66022
-8.64476
-8.62467
-8.59999
-8.57075
-8.53701
-8.49878
-8.45613
-8.40909
-8.35773
-8.3021
-8.24227
-8.17828
-8.11022
-8.03814
-7.96212
-7.88223
-7.79855
-7.71115
-7.62012
-7.52554
-7.42749
-7.32605
-7.22132
-7.11339
-8.22024
-8.22872
-8.23281
-8.23241
-8.22753
-8.21821
-8.20446
-8.18629
-8.16374
-8.13687
-8.10568
-8.07023
-8.03056
-7.98671
-7.93873
-7.88668
-7.83061
-7.77057
-7.70664
-7.63887
-7.56732
-7.49208
-7.4132
-7.33075
-7.24483
-7.15548
-7.06281
-6.96688
-6.86778
-6.7656
-7.80539
-7.81418
-7.81879
-7.81911
-7.81517
-7.80699
-7.79459
-7.77799
-7.75722
-7.73232
-7.70332
-7.67025
-7.63315
-7.59207
-7.54706
-7.49816
-7.44542
-7.38891
-7.32868
-7.26478
-7.19728
-7.12624
-7.05172
-6.9738
-6.89254
-6.80801
-6.72029
-6.62945
-6.53557
-6.43873
-7.42068
-7.42956
-7.43444
-7.43524
-7.43197
-7.42467
-7.41333
-7.39798
-7.37867
-7.35542
-7.32826
-7.29722
-7.26234
-7.22367
-7.18124
-7.13511
-7.08533
-7.03195
-6.97501
-6.91458
-6.85071
-6.78347
-6.7129
-6.63909
-6.56208
-6.48196
-6.39878
-6.31262
-6.22355
-6.13165
-7.06393
-7.07272
-7.07769
-7.07876
-7.07595
-7.06928
-7.05877
-7.04443
-7.0263
-7.00442
-6.97881
-6.94949
-6.91652
-6.87993
-6.83976
-6.79606
-6.74888
-6.69827
-6.64427
-6.58693
-6.52633
-6.4625
-6.3955
-6.32541
-6.25227
-6.17615
-6.09713
-6.01526
-5.93061
-5.84327
-6.73296
-6.74154
-6.74645
-6.74764
-6.74512
-6.73891
-6.72901
-6.71546
-6.69831
-6.67756
-6.65324
-6.6254
-6.59406
-6.55927
-6.52107
-6.4795
-6.43461
-6.38645
-6.33506
-6.28049
-6.22281
-6.16205
-6.09828
-6.03154
-5.96191
-5.88944
-5.8142
-5.73625
-5.65566
-5.57251
-6.42571
-6.43398
-6.43874
-6.43991
-6.43754
-6.43164
-6.42221
-6.40928
-6.39291
-6.3731
-6.34987
-6.32328
-6.29335
-6.26012
-6.22363
-6.18394
-6.14107
-6.09508
-6.04601
-5.99392
-5.93885
-5.88085
-5.81998
-5.75629
-5.68984
-5.62068
-5.54888
-5.4745
-5.39762
-5.31832
-6.14021
-6.14811
-6.15262
-6.15371
-6.15139
-6.14568
-6.13658
-6.12415
-6.1084
-6.08937
-6.06706
-6.04154
-6.01282
-5.98094
-5.94596
-5.90791
-5.86683
-5.82277
-5.77577
-5.72589
-5.67317
-5.61765
-5.5594
-5.49846
-5.43489
-5.36874
-5.30007
-5.22895
-5.15546
-5.07968
-5.87462
-5.8821
-5.88632
-5.88725
-5.88491
-5.87931
-5.87045
-5.8584
-5.84316
-5.82477
-5.80325
-5.77863
-5.75096
-5.72028
-5.68661
-5.65001
-5.61052
-5.56817
-5.52303
-5.47513
-5.42452
-5.37125
-5.31536
-5.25691
-5.19595
-5.13252
-5.0667
-4.99855
-4.92815
-4.85559
-5.62724
-5.63428
-5.63818
-5.6389
-5.63648
-5.63092
-5.62224
-5.61047
-5.59566
-5.5778
-5.55695
-5.53312
-5.50637
-5.47672
-5.44422
-5.4089
-5.37082
-5.33002
-5.28653
-5.24042
-5.19171
-5.14046
-5.08672
-5.03053
-4.97194
-4.91099
-4.84776
-4.7823
-4.7147
-4.64509
-5.39651
-5.4031
-5.40665
-5.40715
-5.40461
-5.39905
-5.39048
-5.37894
-5.36447
-5.34707
-5.32678
-5.30365
-5.27769
-5.24896
-5.21749
-5.18333
-5.14651
-5.10709
-5.0651
-5.02059
-4.97361
-4.9242
-4.8724
-4.81826
-4.76183
-4.70314
-4.64226
-4.57925
-4.51419
-4.44725
-5.181
-5.18714
-5.19035
-5.1906
-5.18792
-5.18233
-5.17383
-5.16247
-5.14827
-5.13127
-5.11148
-5.08894
-5.0637
-5.03578
-5.00523
-4.9721
-4.93642
-4.89824
-4.8576
-4.81455
-4.76913
-4.72139
-4.67137
-4.6191
-4.56464
-4.50801
-4.44927
-4.38848
-4.3257
-4.26118
-4.97942
-4.98512
-4.98798
-4.98799
-4.98516
-4.9795
-4.97105
-4.95983
-4.94587
-4.9292
-4.90985
-4.88784
-4.86323
-4.83604
-4.80633
-4.77412
-4.73947
-4.70241
-4.663
-4.62128
-4.57728
-4.53107
-4.48266
-4.43211
-4.37945
-4.32471
-4.26792
-4.20914
-4.14841
-4.08605
-4.79059
-4.79587
-4.79839
-4.79815
-4.79517
-4.78944
-4.78101
-4.76991
-4.75615
-4.73978
-4.72081
-4.69928
-4.67523
-4.6487
-4.61974
-4.58837
-4.55465
-4.51862
-4.48033
-4.43981
-4.39712
-4.3523
-4.30539
-4.25642
-4.20542
-4.15241
-4.09741
-4.04046
-3.98153
-3.92111
-4.61347
-4.61834
-4.62053
-4.62004
-4.61689
-4.61108
-4.60265
-4.59164
-4.57805
-4.56193
-4.5433
-4.52219
-4.49865
-4.47272
-4.44443
-4.41382
-4.38095
-4.34585
-4.30857
-4.26916
-4.22767
-4.18412
-4.13858
-4.09106
-4.04159
-3.99019
-3.93684
-3.88156
-3.82419
-3.76557
-4.44713
-4.45159
-4.45345
-4.45271
-4.44939
-4.44348
-4.43504
-4.42408
-4.41064
-4.39472
-4.37638
-4.35564
-4.33255
-4.30713
-4.27944
-4.24951
-4.21739
-4.18312
-4.14675
-4.10833
-4.0679
-4.02551
-3.9812
-3.935
-3.88694
-3.837
-3.78516
-3.73139
-3.6753
-3.6184
-4.29067
-4.29482
-4.29644
-4.29553
-4.29209
-4.28615
-4.27773
-4.26687
-4.25359
-4.23791
-4.21986
-4.19949
-4.17683
-4.15191
-4.12479
-4.0955
-4.06408
-4.03059
-3.99507
-3.95757
-3.91813
-3.87681
-3.83364
-3.78867
-3.74191
-3.69336
-3.64296
-3.59059
-3.53548
-3.47993
-4.1432
-4.14721
-4.14876
-4.14784
-4.14446
-4.13864
-4.13043
-4.11983
-4.10688
-4.0916
-4.07403
-4.05419
-4.03213
-4.0079
-3.98152
-3.95304
-3.92251
-3.88998
-3.85549
-3.8191
-3.78084
-3.74078
-3.69897
-3.65544
-3.61022
-3.56333
-3.51468
-3.4641
-3.41031
-3.3563
-4.00402
-4.00725
-4.00812
-4.00662
-4.00278
-3.99659
-3.98811
-3.97736
-3.96435
-3.94912
-3.93169
-3.91211
-3.89041
-3.86664
-3.84082
-3.81301
-3.78325
-3.75159
-3.71807
-3.68275
-3.64567
-3.6069
-3.56649
-3.52448
-3.48094
-3.43589
-3.38933
-3.34107
-3.28982
-3.24256
-13.7287
-13.8857
-14.0341
-14.1823
-14.3286
-14.4715
-14.6106
-14.7453
-14.8754
-15.0005
-15.1205
-15.235
-15.3439
-15.4469
-15.544
-15.635
-15.7197
-15.7981
-15.8699
-15.9352
-15.9938
-16.0457
-16.0908
-16.1291
-16.1605
-16.1852
-16.203
-16.2143
-16.2193
-16.2195
-12.6888
-12.8499
-13.0041
-13.1546
-13.3016
-13.4444
-13.5828
-13.7168
-13.846
-13.9702
-14.0893
-14.2031
-14.3113
-14.4137
-14.5103
-14.6009
-14.6854
-14.7636
-14.8354
-14.9007
-14.9595
-15.0117
-15.0572
-15.096
-15.128
-15.1534
-15.172
-15.184
-15.1895
-15.1885
-11.8335
-11.9943
-12.1495
-12.3002
-12.4467
-12.5888
-12.7266
-12.8598
-12.9883
-13.1119
-13.2305
-13.3438
-13.4517
-13.5541
-13.6507
-13.7415
-13.8264
-13.9051
-13.9776
-14.0438
-14.1036
-14.157
-14.2039
-14.2441
-14.2778
-14.3049
-14.3253
-14.3391
-14.3462
-14.3464
-11.0575
-11.2158
-11.3695
-11.5187
-11.6638
-11.8046
-11.9411
-12.0732
-12.2006
-12.3234
-12.4412
-12.5539
-12.6615
-12.7636
-12.8603
-12.9512
-13.0364
-13.1158
-13.1891
-13.2563
-13.3173
-13.3721
-13.4206
-13.4627
-13.4983
-13.5275
-13.5502
-13.5663
-13.5759
-13.5787
-10.3136
-10.4683
-10.6192
-10.7661
-10.9089
-11.0477
-11.1822
-11.3125
-11.4384
-11.5597
-11.6763
-11.788
-11.8947
-11.9962
-12.0924
-12.1832
-12.2685
-12.3481
-12.422
-12.49
-12.552
-12.608
-12.6579
-12.7017
-12.7393
-12.7705
-12.7955
-12.8141
-12.8263
-12.8319
-9.61613
-9.76682
-9.9142
-10.0578
-10.1977
-10.3336
-10.4657
-10.5936
-10.7173
-10.8366
-10.9514
-11.0615
-11.1669
-11.2673
-11.3627
-11.4529
-11.5378
-11.6172
-11.6912
-11.7596
-11.8222
-11.8791
-11.9302
-11.9753
-12.0144
-12.0476
-12.0746
-12.0955
-12.1102
-12.1186
-8.97064
-9.1169
-9.26019
-9.40002
-9.5363
-9.66895
-9.79785
-9.92286
-10.0439
-10.1607
-10.2732
-10.3813
-10.4849
-10.5837
-10.6778
-10.7669
-10.8509
-10.9298
-11.0034
-11.0717
-11.1345
-11.1919
-11.2436
-11.2896
-11.33
-11.3646
-11.3933
-11.4162
-11.4331
-11.444
-8.37658
-8.51816
-8.657
-8.79265
-8.92497
-9.05389
-9.17927
-9.30097
-9.41885
-9.5328
-9.64266
-9.74831
-9.84963
-9.94647
-10.0387
-10.1263
-10.2091
-10.2869
-10.3597
-10.4275
-10.49
-10.5473
-10.5993
-10.6458
-10.6869
-10.7225
-10.7525
-10.7769
-10.7956
-10.8087
-7.8323
-7.96905
-8.10325
-8.23447
-8.36259
-8.48751
-8.60908
-8.72718
-8.84166
-8.9524
-9.05927
-9.16214
-9.26087
-9.35537
-9.4455
-9.53115
-9.61224
-9.68864
-9.76028
-9.82706
-9.88891
-9.94574
-9.9975
-10.0441
-10.0855
-10.1217
-10.1525
-10.178
-10.1981
-10.2127
-7.33527
-7.46714
-7.59663
-7.72332
-7.8471
-7.96786
-8.08547
-8.19978
-8.31067
-8.418
-8.52165
-8.62149
-8.7174
-8.80927
-8.89699
-8.98045
-9.05955
-9.1342
-9.20431
-9.26979
-9.33058
-9.38659
-9.43776
-9.48403
-9.52534
-9.56165
-9.5929
-9.61906
-9.64008
-9.65595
-6.88228
-7.00931
-7.13409
-7.25624
-7.37565
-7.49221
-7.60578
-7.71622
-7.82341
-7.92721
-8.02751
-8.12418
-8.2171
-8.30617
-8.39128
-8.47233
-8.54922
-8.62187
-8.69018
-8.75409
-8.81352
-8.8684
-8.91867
-8.96427
-9.00515
-9.04126
-9.07256
-9.09901
-9.12057
-9.13724
-6.46977
-6.59207
-6.71222
-6.82989
-6.94497
-7.05735
-7.16689
-7.27346
-7.37692
-7.47716
-7.57404
-7.66746
-7.75731
-7.84347
-7.92585
-8.00434
-8.07887
-8.14934
-8.21568
-8.27781
-8.33567
-8.38918
-8.4383
-8.48296
-8.52313
-8.55874
-8.58978
-8.61619
-8.63796
-8.65508
-6.09414
-6.21183
-6.32748
-6.44078
-6.55163
-6.65992
-6.76549
-6.86823
-6.96801
-7.0647
-7.15818
-7.24835
-7.33509
-7.4183
-7.49788
-7.57375
-7.64582
-7.71401
-7.77824
-7.83846
-7.89458
-7.94656
-7.99433
-8.03786
-8.07709
-8.11198
-8.1425
-8.16862
-8.19031
-8.20756
-5.75181
-5.86507
-5.97639
-6.08547
-6.19223
-6.29654
-6.39827
-6.49728
-6.59345
-6.68666
-6.77679
-6.86374
-6.94739
-7.02766
-7.10444
-7.17766
-7.24723
-7.31308
-7.37515
-7.43335
-7.48765
-7.53797
-7.58427
-7.62651
-7.66465
-7.69863
-7.72845
-7.75406
-7.77545
-7.79261
-5.43945
-5.54846
-5.65562
-5.76066
-5.86349
-5.96398
-6.062
-6.15741
-6.25009
-6.33992
-6.42679
-6.51059
-6.59122
-6.66858
-6.7426
-6.81318
-6.88026
-6.94377
-7.00363
-7.0598
-7.11221
-7.16081
-7.20556
-7.24641
-7.28334
-7.31629
-7.34526
-7.37021
-7.39111
-7.40799
-5.15391
-5.25888
-5.36207
-5.46326
-5.56234
-5.65919
-5.75366
-5.84562
-5.93495
-6.02152
-6.10524
-6.18599
-6.26368
-6.33822
-6.40953
-6.47753
-6.54215
-6.60333
-6.66101
-6.71513
-6.76563
-6.81248
-6.85564
-6.89505
-6.9307
-6.96254
-6.99056
-7.01473
-7.03503
-7.05148
-4.89237
-4.99348
-5.09291
-5.19044
-5.28597
-5.37935
-5.47044
-5.55911
-5.64524
-5.7287
-5.80939
-5.88721
-5.96206
-6.03387
-6.10255
-6.16804
-6.23026
-6.28917
-6.3447
-6.39679
-6.44541
-6.49052
-6.53206
-6.57001
-6.60434
-6.63502
-6.66203
-6.68535
-6.70496
-6.72088
-4.65225
-4.74969
-4.84555
-4.93963
-5.03179
-5.1219
-5.2098
-5.29535
-5.37843
-5.45892
-5.53672
-5.61173
-5.68386
-5.75304
-5.81919
-5.88225
-5.94216
-5.99885
-6.05229
-6.10241
-6.14918
-6.19256
-6.23251
-6.26901
-6.30201
-6.33151
-6.35748
-6.3799
-6.39876
-6.41407
-4.43123
-4.52518
-4.61768
-4.7085
-4.79751
-4.88453
-4.96942
-5.05202
-5.13221
-5.20988
-5.28493
-5.35726
-5.42679
-5.49346
-5.55718
-5.61791
-5.67558
-5.73015
-5.78156
-5.82977
-5.87474
-5.91644
-5.95483
-5.98989
-6.02159
-6.0499
-6.07482
-6.09632
-6.1144
-6.12907
-4.22727
-4.3179
-4.40723
-4.49501
-4.58106
-4.66519
-4.74724
-4.82706
-4.90452
-4.97951
-5.05194
-5.12172
-5.18878
-5.25304
-5.31445
-5.37295
-5.42848
-5.48101
-5.53047
-5.57684
-5.62008
-5.66015
-5.69703
-5.73069
-5.76111
-5.78826
-5.81213
-5.83272
-5.85001
-5.86401
-4.03852
-4.126
-4.21238
-4.29732
-4.38061
-4.46204
-4.54142
-4.61862
-4.6935
-4.76595
-4.8359
-4.90326
-4.96796
-5.02994
-5.08914
-5.14551
-5.19901
-5.24958
-5.29719
-5.34179
-5.38337
-5.42188
-5.4573
-5.48961
-5.51878
-5.5448
-5.56766
-5.58735
-5.60385
-5.61718
-3.86336
-3.94783
-4.03148
-4.11382
-4.19454
-4.27345
-4.35034
-4.42506
-4.4975
-4.56756
-4.63515
-4.70021
-4.76268
-4.82249
-4.87959
-4.93394
-4.98549
-5.0342
-5.08003
-5.12296
-5.16295
-5.19997
-5.23399
-5.26501
-5.29299
-5.31792
-5.33979
-5.3586
-5.37432
-5.38699
-3.70029
-3.78192
-3.86311
-3.94306
-4.02142
-4.09798
-4.17254
-4.24494
-4.31507
-4.38286
-4.44822
-4.5111
-4.57144
-4.62918
-4.68429
-4.73672
-4.78643
-4.83337
-4.87753
-4.91886
-4.95733
-4.99293
-5.02563
-5.05541
-5.08225
-5.10614
-5.12706
-5.14502
-5.16
-5.17202
-3.54793
-3.62691
-3.70595
-3.78377
-3.85998
-3.93437
-4.00674
-4.07694
-4.1449
-4.21053
-4.27378
-4.33459
-4.39291
-4.44871
-4.50192
-4.55253
-4.60049
-4.64576
-4.68832
-4.72814
-4.76519
-4.79944
-4.83088
-4.85948
-4.88524
-4.90813
-4.92816
-4.9453
-4.95957
-4.97096
-3.405
-3.48163
-3.55894
-3.63488
-3.70913
-3.78152
-3.85184
-3.91997
-3.98586
-4.04945
-4.11069
-4.16954
-4.22595
-4.27989
-4.33132
-4.3802
-4.42651
-4.4702
-4.51125
-4.54963
-4.58532
-4.6183
-4.64854
-4.67604
-4.70077
-4.72272
-4.74189
-4.75826
-4.77184
-4.78264
-3.27033
-3.34529
-3.42143
-3.49574
-3.5682
-3.63873
-3.7071
-3.77326
-3.83717
-3.89881
-3.95813
-4.0151
-4.06969
-4.12187
-4.17159
-4.21883
-4.26355
-4.30573
-4.34535
-4.38237
-4.41677
-4.44853
-4.47764
-4.50407
-4.52782
-4.54888
-4.56722
-4.58286
-4.59579
-4.60601
-3.14189
-3.21671
-3.29258
-3.36547
-3.43629
-3.50505
-3.57156
-3.63582
-3.69784
-3.75761
-3.8151
-3.87028
-3.92314
-3.97363
-4.02173
-4.06741
-4.11064
-4.15139
-4.18964
-4.22537
-4.25855
-4.28917
-4.3172
-4.34263
-4.36546
-4.38565
-4.40322
-4.41816
-4.43046
-4.44013
-3.01453
-3.09126
-3.16847
-3.24041
-3.30981
-3.37701
-3.44186
-3.50441
-3.56473
-3.62283
-3.67869
-3.73229
-3.78361
-3.83262
-3.8793
-3.92361
-3.96554
-4.00505
-4.04213
-4.07675
-4.10888
-4.13852
-4.16563
-4.19022
-4.21226
-4.23175
-4.24867
-4.26303
-4.27482
-4.28405
-2.88443
-2.96499
-3.04568
-3.11768
-3.18616
-3.25215
-3.31566
-3.37683
-3.43577
-3.4925
-3.54702
-3.59932
-3.64938
-3.69718
-3.74268
-3.78588
-3.82673
-3.86523
-3.90135
-3.93507
-3.96636
-3.99521
-4.02161
-4.04554
-4.06698
-4.08594
-4.1024
-4.11636
-4.12781
-4.13678
-2.78496
-2.87399
-2.95548
-3.02659
-3.09338
-3.15722
-3.21849
-3.27743
-3.33412
-3.38862
-3.44092
-3.49101
-3.53889
-3.58454
-3.62794
-3.66907
-3.70792
-3.74446
-3.77869
-3.81057
-3.84011
-3.86728
-3.89207
-3.91448
-3.93449
-3.95209
-3.96729
-3.98009
-3.99047
-3.99846
-0.59115
-0.634719
-0.681622
-0.732082
-0.786611
-0.845709
-0.909911
-0.979847
-1.05625
-1.13999
-1.23207
-1.33366
-1.44614
-1.5711
-1.71043
-1.86628
-2.04119
-2.23804
-2.46017
-2.71133
-2.99573
-3.31802
-3.68318
-4.09638
-4.56297
-5.08834
-5.67337
-6.31119
-7.05454
-8.00928
-0.66131
-0.707324
-0.755925
-0.808289
-0.864923
-0.926239
-0.992775
-1.06517
-1.14419
-1.23069
-1.3257
-1.4304
-1.54618
-1.67466
-1.81773
-1.97758
-2.15673
-2.35812
-2.58508
-2.84137
-3.13121
-3.45923
-3.83038
-4.24976
-4.72263
-5.25423
-5.8452
-6.48817
-7.23471
-8.18865
-0.732286
-0.780787
-0.83111
-0.885413
-0.944188
-1.00776
-1.07667
-1.15158
-1.23325
-1.32256
-1.42055
-1.52841
-1.64755
-1.77961
-1.92648
-2.09038
-2.27386
-2.47986
-2.71171
-2.97321
-3.26856
-3.60237
-3.97957
-4.40517
-4.88431
-5.42205
-6.0187
-6.6664
-7.41542
-8.36776
-0.804022
-0.855047
-0.907117
-0.963389
-1.02434
-1.09021
-1.16153
-1.23898
-1.32334
-1.41551
-1.51651
-1.62758
-1.75013
-1.88581
-2.03655
-2.20456
-2.39241
-2.60307
-2.83988
-3.10663
-3.40754
-3.74719
-4.13046
-4.5623
-5.04771
-5.59153
-6.19381
-6.84626
-7.59841
-8.55118
-0.87647
-0.930053
-0.983893
-1.04217
-1.10533
-1.17352
-1.24729
-1.32732
-1.41441
-1.50947
-1.61354
-1.72787
-1.85387
-1.99322
-2.14786
-2.32003
-2.51231
-2.72768
-2.9695
-3.24156
-3.54807
-3.8936
-4.28297
-4.72107
-5.21275
-5.76267
-6.37059
-7.02789
-7.78359
-8.73792
-0.949579
-1.00575
-1.06138
-1.12168
-1.18709
-1.25764
-1.33389
-1.41654
-1.5064
-1.60439
-1.71156
-1.82918
-1.95868
-2.10175
-2.26034
-2.43672
-2.63348
-2.85361
-3.10049
-3.3779
-3.69006
-4.04151
-4.43702
-4.8814
-5.37938
-5.93541
-6.54901
-7.21122
-7.97064
-8.92703
-1.0233
-1.08208
-1.13952
-1.20188
-1.26956
-1.3425
-1.42126
-1.50656
-1.59923
-1.70018
-1.8105
-1.93145
-2.06449
-2.21132
-2.37391
-2.55454
-2.75583
-2.98076
-3.23274
-3.51556
-3.83341
-4.19082
-4.59251
-5.04319
-5.54748
-6.10966
-6.72896
-7.39612
-8.15938
-9.11813
-1.09758
-1.15899
-1.21825
-1.28269
-1.35268
-1.42805
-1.50935
-1.59733
-1.69283
-1.79678
-1.91028
-2.0346
-2.17121
-2.32184
-2.48847
-2.6734
-2.87925
-3.10904
-3.36617
-3.65443
-3.97801
-4.3414
-4.7493
-5.20632
-5.71695
-6.28528
-6.91031
-7.58247
-8.34965
-9.31094
-1.17237
-1.23642
-1.29752
-1.36408
-1.43639
-1.51421
-1.59808
-1.68877
-1.78714
-1.89412
-2.01083
-2.13855
-2.27877
-2.43324
-2.60394
-2.7932
-3.00366
-3.23834
-3.50065
-3.79439
-4.12374
-4.49315
-4.90728
-5.37065
-5.88763
-6.46214
-7.09293
-7.77011
-8.54126
-9.50519
-1.24763
-1.31433
-1.37727
-1.44596
-1.52064
-1.60093
-1.68739
-1.78083
-1.88208
-1.99212
-2.11207
-2.24322
-2.38709
-2.54542
-2.72023
-2.91385
-3.12895
-3.36856
-3.63609
-3.93534
-4.27048
-4.64594
-5.06632
-5.53606
-6.05941
-6.64009
-7.27664
-7.95886
-8.73401
-9.70063
-1.32331
-1.39265
-1.45744
-1.5283
-1.60536
-1.68815
-1.77723
-1.87342
-1.97759
-2.09071
-2.21392
-2.34853
-2.49606
-2.65829
-2.83724
-3.03526
-3.25503
-3.49959
-3.77237
-4.07716
-4.41811
-4.79965
-5.22629
-5.70241
-6.23212
-6.81898
-7.46128
-8.14853
-8.92767
-9.89701
-1.39937
-1.47134
-1.538
-1.61103
-1.6905
-1.7758
-1.86752
-1.96649
-2.07359
-2.18982
-2.31631
-2.4544
-2.60562
-2.77177
-2.95488
-3.15732
-3.38178
-3.63133
-3.90937
-4.21973
-4.56652
-4.95414
-5.38705
-5.86955
-6.40562
-6.99864
-7.64668
-8.33894
-9.12206
-10.0941
-1.47577
-1.55037
-1.61887
-1.69411
-1.77599
-1.86383
-1.9582
-2.05997
-2.17002
-2.28936
-2.41915
-2.56074
-2.71567
-2.88575
-3.07305
-3.27993
-3.50911
-3.76365
-4.04699
-4.36292
-4.71556
-5.10927
-5.54846
-6.03734
-6.57975
-7.17891
-7.83265
-8.52988
-9.31696
-10.2917
-1.55247
-1.62967
-1.70003
-1.77749
-1.8618
-1.95218
-2.04921
-2.15378
-2.2668
-2.38927
-2.52237
-2.66747
-2.82612
-3.00016
-3.19165
-3.40299
-3.63689
-3.89645
-4.18509
-4.50661
-4.86511
-5.26491
-5.71037
-6.20561
-6.75434
-7.35962
-8.01902
-8.72118
-9.51217
-10.4897
-1.62946
-1.70923
-1.78143
-1.86111
-1.94787
-2.0408
-2.14049
-2.24787
-2.36386
-2.48946
-2.62588
-2.77449
-2.93688
-3.11487
-3.31057
-3.52637
-3.76502
-4.0296
-4.32355
-4.65066
-5.01502
-5.42091
-5.87263
-6.37421
-6.92923
-7.54057
-8.2056
-8.91263
-9.70748
-10.6877
-1.70671
-1.78901
-1.86304
-1.94494
-2.03415
-2.12962
-2.23198
-2.34217
-2.46112
-2.58986
-2.7296
-2.88172
-3.04784
-3.2298
-3.4297
-3.64998
-3.89337
-4.16298
-4.46224
-4.79494
-5.16515
-5.57712
-6.03508
-6.54296
-7.10424
-7.7216
-8.39218
-9.10403
-9.90269
-10.8855
-1.78421
-1.86899
-1.94481
-2.02894
-2.12059
-2.2186
-2.32361
-2.4366
-2.5585
-2.69037
-2.83342
-2.98906
-3.15891
-3.34482
-3.54894
-3.77369
-4.02183
-4.29646
-4.60103
-4.93931
-5.31536
-5.73339
-6.19756
-6.71172
-7.2792
-7.90252
-8.57859
-9.29519
-10.0976
-11.0831
-1.86197
-1.94916
-2.02673
-2.11307
-2.20714
-2.30766
-2.41531
-2.53108
-2.65592
-2.79091
-2.93726
-3.0964
-3.26997
-3.45984
-3.66816
-3.89738
-4.15025
-4.4299
-4.73977
-5.08363
-5.4655
-5.88955
-6.3599
-6.88029
-7.45392
-8.08314
-8.76463
-9.48589
-10.292
-11.2801
-1.94
-2.0295
-2.10877
-2.19729
-2.29374
-2.39676
-2.50701
-2.62553
-2.75329
-2.89137
-3.041
-3.20363
-3.38091
-3.57473
-3.78724
-4.02091
-4.27851
-4.56317
-4.87832
-5.22773
-5.6154
-6.04545
-6.52194
-7.0485
-7.62823
-8.26327
-8.9501
-9.67594
-10.4856
-11.4763
-2.01832
-2.11002
-2.19091
-2.28155
-2.38035
-2.4858
-2.59862
-2.71986
-2.8505
-2.99164
-3.14454
-3.31064
-3.49161
-3.68935
-3.90604
-4.14416
-4.40647
-4.69612
-5.01653
-5.37147