/*--------------------------------*- C++ -*----------------------------------*\
  =========                 |
  \\      /  F ield         | OpenFOAM: The Open Source CFD Toolbox
   \\    /   O peration     | Website:  https://openfoam.org
    \\  /    A nd           | Version:  6.0
     \\/     M anipulation  |
\*---------------------------------------------------------------------------*/
FoamFile
{
    version     2.0;
    format      ascii;
    class       surfaceScalarField;
    location    "11.501";
    object      phi;
}
// * * * * * * * * * * * * * * * * * * * * * * * * * * * * * * * * * * * * * //

dimensions      [0 3 -1 0 0 0 0];

internalField   nonuniform List<scalar> 
38030
(
2.33372e-05
-0.0790585
0.0790352
0.000134218
-0.0721398
0.0720289
0.000332525
-0.0664851
0.0662868
0.000615634
-0.0618646
0.0615814
0.000979314
-0.0580828
0.0577191
0.00141766
-0.0549761
0.0545378
0.00192385
-0.0524105
0.0519043
0.00249067
-0.0502773
0.0497105
0.00311089
-0.0484892
0.047869
0.0037775
-0.0469759
0.0463093
0.00448381
-0.045681
0.0449747
0.00522358
-0.0445595
0.0438198
0.00599105
-0.0435755
0.0428081
0.00678094
-0.0427002
0.0419104
0.00758847
-0.0419108
0.0411032
0.00840935
-0.0411888
0.0403679
0.00923975
-0.0405198
0.0396894
0.0100763
-0.0398923
0.0390558
0.010916
-0.039297
0.0384573
0.0117564
-0.0387266
0.0378862
0.0125951
-0.0381751
0.0373364
0.0134303
-0.0376379
0.0368027
0.0142605
-0.037111
0.0362809
0.0150842
-0.0365911
0.0357675
0.0159003
-0.0360754
0.0352593
0.0167077
-0.0355611
0.0347537
0.0175056
-0.0350457
0.0342478
0.0182931
-0.0345264
0.0337389
0.019069
-0.0340002
0.0332242
-0.0334637
0.0327004
0.0198323
3.23624e-05
-0.0790909
0.000149732
-0.0722572
0.000356543
-0.0666919
0.000650526
-0.0621585
0.00102669
-0.058459
0.00147844
-0.0554279
0.00199841
-0.0529304
0.00257891
-0.0508578
0.00321236
-0.0491227
0.00389143
-0.0476549
0.00460924
-0.0463988
0.00535934
-0.0453096
0.00613584
-0.044352
0.00693336
-0.0434978
0.00774706
-0.0427245
0.00857262
-0.0420144
0.00940619
-0.0413534
0.0102444
-0.0407305
0.0110844
-0.040137
0.0119236
-0.0395657
0.0127598
-0.0390113
0.0135913
-0.0384694
0.0144165
-0.0379362
0.0152342
-0.0374089
0.0160434
-0.0368846
0.0168431
-0.0363609
0.0176327
-0.0358352
0.0184112
-0.0353049
0.019178
-0.034767
-0.0342176
0.0199319
3.69867e-05
-0.0791278
0.000161956
-0.0723821
0.000378368
-0.0669083
0.000683682
-0.0624638
0.00107235
-0.0588476
0.00153723
-0.0558928
0.00207045
-0.0534637
0.00266395
-0.0514513
0.0033098
-0.0497685
0.00400039
-0.0483455
0.00472863
-0.047127
0.0054879
-0.0460689
0.00627219
-0.0451363
0.00707603
-0.0443016
0.00789454
-0.043543
0.00872336
-0.0428432
0.00955866
-0.0421887
0.0103971
-0.041569
0.0112358
-0.0409757
0.0120723
-0.0404022
0.0129046
-0.0398436
0.0137308
-0.0392956
0.0145497
-0.0387551
0.01536
-0.0382192
0.0161609
-0.0376855
0.0169516
-0.0371516
0.0177315
-0.0366151
0.0184999
-0.0360734
0.0192563
-0.0355233
-0.034961
0.0199997
4.05019e-05
-0.0791683
0.000172773
-0.0725144
0.000398836
-0.0671343
0.000715421
-0.0627804
0.00111635
-0.0592486
0.00159393
-0.0563703
0.00213984
-0.0540096
0.00274561
-0.0520571
0.00340299
-0.0504259
0.00410413
-0.0490467
0.0048417
-0.0478646
0.00560897
-0.0468362
0.0063998
-0.0459271
0.00720865
-0.0451105
0.00803059
-0.0443649
0.00886127
-0.0436739
0.00969687
-0.0430243
0.0105341
-0.0424062
0.0113701
-0.0418117
0.0122025
-0.0412346
0.0130293
-0.0406704
0.013849
-0.0401153
0.0146601
-0.0395663
0.0154617
-0.0390208
0.0162531
-0.0384768
0.0170335
-0.037932
0.0178025
-0.0373841
0.0185597
-0.0368306
0.0193046
-0.0362682
-0.035693
0.0200365
4.3592e-05
-0.0792119
0.000182829
-0.0726536
0.000418328
-0.0673698
0.000745922
-0.063108
0.00115874
-0.0596614
0.00164851
-0.0568601
0.00220645
-0.0545675
0.00282371
-0.0526744
0.00349172
-0.0510939
0.00420239
-0.0497573
0.00494821
-0.0486104
0.00572229
-0.0476103
0.00651839
-0.0467232
0.00733093
-0.045923
0.00815495
-0.0451889
0.00898609
-0.044505
0.00982056
-0.0438588
0.0106551
-0.0432408
0.011487
-0.0426435
0.0123139
-0.0420615
0.013134
-0.0414905
0.0139456
-0.040927
0.0147478
-0.0403684
0.0155395
-0.0398125
0.01632
-0.0392574
0.017089
-0.038701
0.0178462
-0.0381412
0.0185911
-0.0375755
0.0193236
-0.0370007
-0.0364126
0.0200432
4.64641e-05
-0.0792584
0.000192382
-0.0727996
0.000437027
-0.0676145
0.000775272
-0.0634463
0.00119951
-0.0600856
0.0017009
-0.0573615
0.00227017
-0.0551368
0.00289809
-0.0533023
0.00357581
-0.0517716
0.00429497
-0.0504765
0.00504791
-0.0493633
0.00582759
-0.0483899
0.0066277
-0.0475234
0.00744262
-0.0467379
0.00826736
-0.0460137
0.0090976
-0.0453352
0.00992958
-0.0446908
0.0107601
-0.0440713
0.0115865
-0.04347
0.0124066
-0.0428816
0.0132186
-0.0423024
0.014021
-0.0417294
0.0148129
-0.0411603
0.0155935
-0.0405931
0.0163622
-0.0400261
0.0171188
-0.0394576
0.017863
-0.0388854
0.0185948
-0.0383073
0.019314
-0.0377199
-0.037119
0.0200205
4.92025e-05
-0.0793076
0.00020155
-0.0729519
0.000455016
-0.067868
0.000803503
-0.0637948
0.00123865
-0.0605208
0.00175103
-0.0578739
0.00233089
-0.0557166
0.00296862
-0.05394
0.00365507
-0.0524581
0.00438168
-0.0512031
0.00514059
-0.0501222
0.00592468
-0.049174
0.00672754
-0.0483262
0.00754353
-0.0475539
0.00836767
-0.0468378
0.00919566
-0.0461632
0.0100238
-0.0455189
0.010849
-0.0448965
0.0116686
-0.0442896
0.0124805
-0.0436936
0.0132832
-0.0431051
0.0140752
-0.0425215
0.0148558
-0.0419408
0.0156242
-0.0413615
0.0163801
-0.040782
0.0171233
-0.0402008
0.0178537
-0.0396159
0.0185716
-0.0390251
0.0192768
-0.0384251
-0.0378117
0.0199695
5.18391e-05
-0.0793594
0.000210382
-0.0731104
0.000472333
-0.0681299
0.00083062
-0.064153
0.00127613
-0.0609663
0.00179883
-0.0583966
0.0023885
-0.0563063
0.00303516
-0.0545867
0.00372937
-0.0531523
0.00446236
-0.0519361
0.0052261
-0.050886
0.00601338
-0.0499613
0.00681775
-0.0491306
0.00763352
-0.0483697
0.00845575
-0.04766
0.00928017
-0.0469876
0.0101032
-0.0463419
0.0109217
-0.045715
0.0117333
-0.0451012
0.0125359
-0.0444962
0.0133281
-0.0438972
0.0141086
-0.043302
0.0148767
-0.0427089
0.015632
-0.0421167
0.0163741
-0.0415241
0.0171031
-0.0409298
0.0178191
-0.0403319
0.0185223
-0.0397283
0.0192129
-0.0391158
-0.0384899
0.0198912
5.43899e-05
-0.0794138
0.000218898
-0.073275
0.000488986
-0.0684
0.000856613
-0.0645207
0.00131191
-0.0614216
0.00184424
-0.0589289
0.00244292
-0.056905
0.00309762
-0.0552414
0.00379859
-0.0538532
0.00453687
-0.0526744
0.0053043
-0.0516534
0.00609357
-0.0507506
0.00689819
-0.0499352
0.00771248
-0.049184
0.00853153
-0.0484791
0.00935111
-0.0478072
0.0101677
-0.0471585
0.0109784
-0.0465256
0.0117807
-0.0459035
0.0125729
-0.0452884
0.0133534
-0.0446778
0.0141214
-0.04407
0.0148762
-0.0434637
0.0156174
-0.0428579
0.0163449
-0.0422517
0.017059
-0.0416438
0.0177598
-0.0410327
0.0184477
-0.0404163
0.0191233
-0.0397913
-0.0391534
0.0197867
5.68579e-05
-0.0794707
0.000227106
-0.0734452
0.000504973
-0.0686779
0.000881461
-0.0648972
0.00134594
-0.0618861
0.0018872
-0.0594702
0.00249408
-0.0575119
0.00315589
-0.0559032
0.00386262
-0.05456
0.00460512
-0.0534169
0.00537509
-0.0524234
0.00616516
-0.0515406
0.00696882
-0.0507389
0.00778039
-0.0499955
0.008595
-0.0492937
0.00940852
-0.0486207
0.0102175
-0.0479675
0.0110191
-0.0473272
0.0118111
-0.0466955
0.0125917
-0.046069
0.0133597
-0.0454458
0.0141141
-0.0448245
0.0148546
-0.0442042
0.0155809
-0.0435842
0.0162932
-0.0429639
0.0169916
-0.0423422
0.0176766
-0.0417178
0.0183489
-0.0410885
0.0190089
-0.0404513
-0.0398017
0.0196572
5.92444e-05
-0.0795299
0.000235001
-0.073621
0.000520283
-0.0689631
0.000905142
-0.065282
0.00137821
-0.0623591
0.00192767
-0.0600197
0.00254192
-0.0581261
0.00320991
-0.0565712
0.0039214
-0.0552715
0.00466703
-0.0541625
0.00543841
-0.0531948
0.00622811
-0.0523303
0.00702959
-0.0515404
0.00783723
-0.0508032
0.0086462
-0.0501027
0.00945247
-0.049427
0.0102527
-0.0487677
0.0110441
-0.0481187
0.0118246
-0.047476
0.0125927
-0.046837
0.0133471
-0.0462002
0.0140872
-0.0455646
0.0148126
-0.0449296
0.0155233
-0.0442949
0.0162195
-0.0436601
0.0169018
-0.0430244
0.0175706
-0.0423866
0.0182266
-0.0417446
0.0188707
-0.0410954
-0.0404345
0.0195036
6.15486e-05
-0.0795915
0.000242579
-0.073802
0.000534904
-0.0692555
0.000927637
-0.0656748
0.00140867
-0.0628402
0.0019656
-0.0605766
0.00258639
-0.0587469
0.00325964
-0.0572444
0.00397487
-0.0559867
0.00472256
-0.0549102
0.00549423
-0.0539665
0.00628239
-0.0531185
0.00708053
-0.0523385
0.00788306
-0.0516057
0.00868524
-0.0509049
0.0094831
-0.0502249
0.0102734
-0.049558
0.0110536
-0.0488989
0.0118217
-0.0482441
0.0125762
-0.0475916
0.0133162
-0.0469402
0.0140411
-0.0462894
0.0147507
-0.0456392
0.0154451
-0.0449894
0.0161247
-0.0443398
0.0167902
-0.0436899
0.0174423
-0.0430387
0.0180819
-0.0423842
0.0187098
-0.0417233
-0.0410516
0.019327
6.37667e-05
-0.0796552
0.000249832
-0.0739881
0.000548823
-0.0695545
0.000948926
-0.0660749
0.00143729
-0.0633285
0.00200097
-0.0611403
0.00262746
-0.0593734
0.00330504
-0.057922
0.00402301
-0.0567046
0.0047717
-0.0556589
0.00554254
-0.0547373
0.00632804
-0.053904
0.0071217
-0.0531322
0.00791799
-0.052402
0.00871224
-0.0516991
0.00950062
-0.0510133
0.01028
-0.0503374
0.011048
-0.0496668
0.0118027
-0.0489988
0.0125428
-0.0483317
0.0132675
-0.0476649
0.0139764
-0.0469983
0.0146695
-0.0463322
0.015347
-0.0456669
0.0160095
-0.0450023
0.0166578
-0.0443383
0.0172928
-0.0436737
0.0179156
-0.0430069
0.0185271
-0.0423348
-0.041653
0.0191285
6.58964e-05
-0.0797211
0.000256753
-0.0741789
0.000562031
-0.0698597
0.000968997
-0.0664818
0.00146408
-0.0638236
0.00203376
-0.06171
0.00266511
-0.0600047
0.0033461
-0.058603
0.00406581
-0.0574244
0.00481446
-0.0564075
0.0055834
-0.0555062
0.00636513
-0.0546857
0.0071532
-0.0539202
0.00794214
-0.0531909
0.0087274
-0.0524844
0.00950525
-0.0517911
0.0102727
-0.0511048
0.0110275
-0.0504216
0.0117679
-0.0497392
0.0124928
-0.0490566
0.0132015
-0.0483736
0.0138937
-0.0476906
0.0145696
-0.0470082
0.0152297
-0.0463269
0.0158746
-0.0456473
0.0165053
-0.044969
0.0171229
-0.0442913
0.0177286
-0.0436126
0.0183235
-0.0429298
-0.0422384
0.0189089
6.79341e-05
-0.0797891
0.000263336
-0.0743743
0.000574519
-0.0701709
0.000987844
-0.0668951
0.00148902
-0.0643248
0.00206397
-0.0622849
0.00269935
-0.0606401
0.00338284
-0.0592865
0.00410332
-0.0581448
0.00485088
-0.0571551
0.00561686
-0.0562722
0.00639376
-0.0554626
0.00717517
-0.0547016
0.00795572
-0.0539715
0.00873096
-0.0532596
0.00949731
-0.0525574
0.0102519
-0.0518595
0.0109926
-0.0511624
0.011718
-0.0504645
0.0124268
-0.0497654
0.0131188
-0.0490655
0.0137937
-0.0483655
0.0144519
-0.0476663
0.0150939
-0.046969
0.0157208
-0.0462741
0.0163335
-0.0455817
0.0169333
-0.0448911
0.0175216
-0.0442009
0.0180998
-0.0435079
-0.0428077
0.0186691
6.98772e-05
-0.079859
0.000269577
-0.074574
0.000586287
-0.0704876
0.00100547
-0.0673143
0.00151212
-0.0648314
0.00209162
-0.0628644
0.0027302
-0.0612787
0.00341529
-0.0599716
0.00413556
-0.0588651
0.00488105
-0.0579006
0.00564304
-0.0570342
0.00641406
-0.0562336
0.00718778
-0.0554754
0.00795894
-0.0547426
0.0087232
-0.0540239
0.00947712
-0.0533114
0.010218
-0.0526003
0.0109438
-0.0518882
0.0116533
-0.0511739
0.0123455
-0.0504576
0.01302
-0.0497401
0.013677
-0.0490225
0.0143169
-0.0483062
0.0149405
-0.0475926
0.0155488
-0.0468824
0.0161431
-0.046176
0.0167248
-0.0454729
0.0172955
-0.0447716
0.0178567
-0.0440692
-0.0433609
0.01841
7.17217e-05
-0.0799307
0.000275473
-0.0747778
0.00059734
-0.0708095
0.00102189
-0.0677389
0.00153341
-0.065343
0.00211673
-0.0634477
0.00275771
-0.0619197
0.00344349
-0.0606574
0.00416263
-0.0595842
0.00490505
-0.058643
0.00566205
-0.0577912
0.0064262
-0.0569978
0.00719127
-0.0562404
0.00795208
-0.0555035
0.00870445
-0.0547762
0.00944507
-0.054052
0.0101714
-0.0533267
0.0108816
-0.0525984
0.0115745
-0.0518668
0.0122493
-0.0511324
0.0129059
-0.0503966
0.0135444
-0.049661
0.0141655
-0.0489273
0.0147701
-0.0481972
0.0153594
-0.0474717
0.0159349
-0.0467515
0.0164982
-0.0460362
0.017051
-0.0453244
0.0175951
-0.0446133
-0.0438979
0.0181321
7.34643e-05
-0.0800041
0.000281026
-0.0749853
0.000607688
-0.0711362
0.00103712
-0.0681683
0.00155291
-0.0658587
0.00213935
-0.0640342
0.00278192
-0.0625622
0.00346753
-0.061343
0.0041846
-0.0603013
0.004923
-0.0593814
0.00567406
-0.0585423
0.0064304
-0.0577541
0.00718588
-0.0569959
0.00793545
-0.056253
0.00867508
-0.0555159
0.0094016
-0.0547785
0.0101127
-0.0540377
0.0108065
-0.0532923
0.0114822
-0.0525424
0.0121391
-0.0517893
0.0127771
-0.0510347
0.0133966
-0.0502806
0.0139984
-0.0495291
0.0145836
-0.0487823
0.0151535
-0.0480416
0.0157097
-0.0473077
0.0162542
-0.0465807
0.0167889
-0.0458591
0.0173155
-0.04514
-0.0444185
0.0178361
7.5103e-05
-0.0800792
0.000286242
-0.0751965
0.000617357
-0.0714673
0.00105122
-0.0686022
0.00157068
-0.0663782
0.00215953
-0.064623
0.0028029
-0.0632056
0.00348749
-0.0620276
0.00420159
-0.0610154
0.00493507
-0.0601149
0.00567926
-0.0592865
0.00642688
-0.0585018
0.00717189
-0.0577409
0.0079094
-0.0569905
0.0086355
-0.056242
0.0093472
-0.0554902
0.0100423
-0.0547328
0.0107192
-0.0539692
0.0113771
-0.0532003
0.0120155
-0.0524277
0.0126345
-0.0516536
0.0132346
-0.0508806
0.0138166
-0.0501112
0.0143819
-0.0493475
0.0149318
-0.0485916
0.0154684
-0.0478443
0.0159936
-0.0471059
0.0165096
-0.046375
0.0170185
-0.0456489
-0.0449223
0.0175224
7.66333e-05
-0.0801559
0.000291135
-0.075411
0.000626384
-0.0718025
0.00106422
-0.06904
0.0015868
-0.0669008
0.00217737
-0.0652136
0.00282076
-0.063849
0.00350347
-0.0627103
0.00421373
-0.0617257
0.00494139
-0.0608426
0.00567785
-0.0600229
0.0064159
-0.0592398
0.00714964
-0.0584747
0.0078743
-0.0577152
0.00858616
-0.0569538
0.00928237
-0.0561864
0.00996089
-0.0554113
0.0106203
-0.0546287
0.0112599
-0.0538399
0.0118794
-0.0530472
0.0124789
-0.0522532
0.0130591
-0.0514608
0.013621
-0.050673
0.0141659
-0.0498924
0.0146955
-0.0491212
0.0152118
-0.0483606
0.0157172
-0.0476112
0.016214
-0.0468718
0.0167046
-0.0461395
-0.045409
0.0171913
7.80543e-05
-0.0802339
0.000295731
-0.0756286
0.000634827
-0.0721416
0.00107622
-0.0694814
0.00160133
-0.0674259
0.00219295
-0.0658052
0.00283558
-0.0644916
0.0035156
-0.0633903
0.00422117
-0.0624312
0.00494217
-0.0615636
0.00567005
-0.0607508
0.00639774
-0.0599675
0.00711944
-0.0591964
0.00783057
-0.0584263
0.00852754
-0.0576508
0.00920769
-0.0568666
0.00986912
-0.0560728
0.0105106
-0.0552702
0.0111315
-0.0544608
0.0117317
-0.0536474
0.0123114
-0.0528329
0.0128714
-0.0520208
0.0134127
-0.0512143
0.0139367
-0.0504165
0.0144454
-0.0496298
0.0149409
-0.0488561
0.0154257
-0.048096
0.0159026
-0.0473487
0.0163742
-0.0466112
-0.045878
0.0168432
7.93687e-05
-0.0803133
0.000300075
-0.0758493
0.000642775
-0.0724843
0.00108732
-0.069926
0.00161441
-0.067953
0.00220637
-0.0663972
0.00284749
-0.0651327
0.003524
-0.0640668
0.00422406
-0.0631313
0.00493758
-0.0622771
0.00565611
-0.0614693
0.00637269
-0.0606841
0.00708167
-0.0599053
0.00777863
-0.0591233
0.00846015
-0.0583323
0.00912373
-0.0575301
0.00976765
-0.0567167
0.0103908
-0.0558934
0.0109927
-0.0550627
0.0115733
-0.054228
0.012133
-0.0533926
0.0126725
-0.0525603
0.0131929
-0.0517347
0.0136957
-0.0509193
0.014183
-0.0501171
0.0146569
-0.0493301
0.0151204
-0.0485595
0.0155764
-0.0478047
0.0160281
-0.0470629
-0.0463283
0.0164784
8.05934e-05
-0.0803939
0.00030425
-0.076073
0.000650357
-0.0728304
0.00109766
-0.0703733
0.00162614
-0.0684815
0.00221776
-0.0669888
0.00285659
-0.0657716
0.0035288
-0.064739
0.00422256
-0.0638251
0.00492783
-0.0629823
0.00563627
-0.0621778
0.00634105
-0.0613888
0.00703669
-0.060601
0.00771892
-0.0598055
0.00838451
-0.0589979
0.00903112
-0.0581768
0.0096572
-0.0573427
0.0102618
-0.056498
0.0108445
-0.0556454
0.0114054
-0.0547888
0.0119448
-0.053932
0.0124637
-0.0530791
0.012963
-0.0522341
0.0134444
-0.0514007
0.0139097
-0.0505824
0.0143614
-0.0497818
0.0148025
-0.0490006
0.0152365
-0.0482387
0.0156669
-0.0474933
-0.0467586
0.0160973
8.1771e-05
-0.0804757
0.000308401
-0.0762996
0.000657761
-0.0731798
0.00110741
-0.0708229
0.00163669
-0.0690107
0.00222723
-0.0675793
0.002863
-0.0664073
0.00353013
-0.0654062
0.00421682
-0.0645117
0.00491311
-0.0636786
0.00561077
-0.0628754
0.00630313
-0.0620812
0.00698486
-0.0612827
0.00765189
-0.0604725
0.00830114
-0.0596472
0.00893048
-0.0588061
0.00953847
-0.0579507
0.0101243
-0.0570838
0.0106878
-0.0562089
0.0112289
-0.05533
0.0117483
-0.0544514
0.0122465
-0.0535774
0.0127248
-0.0527123
0.0131845
-0.0518604
0.0136276
-0.0510254
0.0140564
-0.0502107
0.0144741
-0.0494183
0.0148846
-0.0486491
0.0152921
-0.0479009
-0.0471672
0.0157007
8.30173e-05
-0.0805587
0.000312776
-0.0765294
0.00066526
-0.0735323
0.0011168
-0.0712744
0.0016462
-0.0695401
0.00223491
-0.068168
0.00286683
-0.0670393
0.0035281
-0.0660674
0.00420698
-0.0651906
0.00489359
-0.0643652
0.00557984
-0.0635617
0.00625921
-0.0627606
0.00692655
-0.0619501
0.00757796
-0.0611239
0.00821057
-0.0602798
0.0088224
-0.0594179
0.0094122
-0.0585405
0.00997932
-0.0576509
0.0105236
-0.0567531
0.0110452
-0.0558516
0.0115446
-0.0549508
0.0120225
-0.0540553
0.01248
-0.0531698
0.0129182
-0.0522987
0.013339
-0.0514462
0.0137445
-0.0506162
0.0141378
-0.0498117
0.0145232
-0.0490345
0.0149056
-0.0482832
-0.0475517
0.0152901
8.45885e-05
-0.0806433
0.000317799
-0.0767626
0.000673221
-0.0738877
0.00112607
-0.0717273
0.00165483
-0.0700689
0.00224089
-0.0687541
0.00286816
-0.0676665
0.00352282
-0.0667221
0.00419317
-0.065861
0.00486945
-0.0650415
0.0055437
-0.0642359
0.00620956
-0.0634264
0.00686207
-0.0626026
0.00749753
-0.0617594
0.00811325
-0.0608955
0.00870744
-0.0600121
0.00927903
-0.0591121
0.0098275
-0.0581994
0.0103528
-0.0572784
0.0108552
-0.0563539
0.0113351
-0.0554307
0.0117933
-0.0545135
0.0122307
-0.0536071
0.0126481
-0.0527161
0.013047
-0.0518451
0.0134292
-0.0509984
0.0137975
-0.05018
0.0141561
-0.0493931
0.0145108
-0.0486379
-0.0479089
0.014868
8.69834e-05
-0.0807303
0.000324095
-0.0769997
0.000682091
-0.0742457
0.00113546
-0.0721807
0.00166269
-0.0705961
0.00224524
-0.0693366
0.00286705
-0.0682883
0.00351435
-0.0673694
0.00417549
-0.0665221
0.00484083
-0.0657069
0.00550253
-0.0648976
0.00615442
-0.0640783
0.00679173
-0.0632399
0.00741095
-0.0623786
0.00800962
-0.0614942
0.00858612
-0.0605886
0.00913957
-0.0596656
0.0096696
-0.0587294
0.0101763
-0.0577851
0.01066
-0.0568376
0.0111212
-0.0558919
0.0115606
-0.054953
0.0119789
-0.0540254
0.0123768
-0.053114
0.0127551
-0.0522234
0.0131151
-0.0513584
0.0134587
-0.0505236
0.0137895
-0.0497239
0.0141136
-0.048962
-0.048235
0.0144397
9.11304e-05
-0.0808214
0.000332639
-0.0772412
0.000692435
-0.0746055
0.00114521
-0.0726334
0.00166984
-0.0711208
0.00224796
-0.0699148
0.00286351
-0.0689039
0.00350274
-0.0680086
0.00415403
-0.0671734
0.00480784
-0.0663607
0.0054565
-0.0655463
0.00609399
-0.0647158
0.00671577
-0.0638617
0.00731852
-0.0629814
0.00790001
-0.0620756
0.00845883
-0.0611474
0.00899427
-0.060201
0.00950615
-0.0592413
0.00999469
-0.0582737
0.0104604
-0.0573033
0.0109038
-0.0563353
0.0113256
-0.0553748
0.0117264
-0.0544263
0.0121068
-0.0534944
0.0124669
-0.0525836
0.0128072
-0.0516987
0.0131283
-0.0508447
0.0134318
-0.0500274
0.0137229
-0.0492531
-0.0485257
0.0140136
9.94787e-05
-0.0809209
0.000345426
-0.0774872
0.000705068
-0.0749651
0.00115547
-0.0730838
0.00167623
-0.0716415
0.00224895
-0.0704875
0.00285748
-0.0695124
0.00348795
-0.0686391
0.0041288
-0.0678142
0.00477056
-0.0670024
0.00540571
-0.0661814
0.00602842
-0.0653385
0.00663437
-0.0644676
0.00722047
-0.0635675
0.00778468
-0.0626399
0.00832584
-0.0616886
0.00884344
-0.0607186
0.00933749
-0.0597354
0.00980839
-0.0587446
0.0102568
-0.0577517
0.0106834
-0.056762
0.0110891
-0.0557805
0.0114745
-0.0548117
0.0118401
-0.0538599
0.0121858
-0.0529293
0.0125113
-0.0520241
0.0128152
-0.0511486
0.0130955
-0.0503077
0.0133529
-0.0495105
-0.0487777
0.013605
0.000119807
-0.0810407
0.000365431
-0.0777328
0.000720274
-0.07532
0.00116586
-0.0735294
0.00168144
-0.0721571
0.00224794
-0.071054
0.00284878
-0.0701133
0.00346993
-0.0692602
0.0040998
-0.0684441
0.00472902
-0.0676317
0.00535024
-0.0668027
0.00595783
-0.0659461
0.00654767
-0.0650575
0.00711693
-0.0641367
0.0076638
-0.0631867
0.00818732
-0.0622121
0.00868721
-0.0612185
0.0091637
-0.0602119
0.00961739
-0.0591982
0.0100491
-0.0581834
0.01046
-0.0571728
0.0108509
-0.0561714
0.0112231
-0.0551838
0.0115774
-0.0542142
0.0119144
-0.0532663
0.012234
-0.0523438
0.0125348
-0.0514493
0.01281
-0.050583
0.0130457
-0.0497462
-0.0489712
0.0132392
0.0834745
8.9033e-05
-0.0835635
0.0833957
7.87787e-05
0.08332
7.57271e-05
0.0832447
7.52483e-05
0.0831689
7.58613e-05
0.0830919
7.69915e-05
0.0830136
7.83209e-05
0.0829339
7.96843e-05
0.0828529
8.10008e-05
0.0827706
8.22395e-05
0.0826873
8.33868e-05
0.0826028
8.44385e-05
0.0825174
8.53953e-05
0.0824312
8.62556e-05
0.0823441
8.70206e-05
0.0822565
8.76893e-05
0.0821682
8.82623e-05
0.0820794
8.8739e-05
0.0819903
8.91166e-05
0.0819009
8.93942e-05
0.0818114
8.95675e-05
0.0817217
8.96303e-05
0.0816322
8.95694e-05
0.0815428
8.93668e-05
0.0814538
8.89839e-05
0.0813655
8.83472e-05
0.0812782
8.72969e-05
0.0811927
8.54607e-05
0.081111
8.16691e-05
7.03776e-05
0.0838712
0.000253568
-0.0840358
0.0837005
0.000249545
0.0835264
0.000249806
0.0833491
0.000252586
0.0831682
0.000256688
0.0829837
0.000261531
0.0827953
0.000266727
0.082603
0.000272011
0.0824067
0.000277219
0.0822067
0.000282251
0.0820031
0.000287053
0.0817959
0.000291594
0.0815854
0.000295851
0.0813719
0.00029981
0.0811555
0.000303462
0.0809363
0.000306798
0.0807148
0.000309813
0.080491
0.000312501
0.0802653
0.000314855
0.0800378
0.000316865
0.0798089
0.000318521
0.0795787
0.000319805
0.0793476
0.000320688
0.0791158
0.000321126
0.0788838
0.000321046
0.0786518
0.000320317
0.0784204
0.000318696
0.0781901
0.000315703
0.0779616
0.000310238
0.000299157
0.0841293
0.000462837
-0.0843386
0.083908
0.000470848
0.0836775
0.000480315
0.083439
0.000491062
0.0831931
0.000502594
0.0829401
0.000514576
0.0826801
0.000526741
0.0824132
0.000538858
0.0821397
0.000550753
0.0818596
0.0005623
0.0815733
0.000573418
0.0812808
0.000584046
0.0809825
0.00059414
0.0806787
0.000603666
0.0803695
0.000612599
0.0800554
0.00062092
0.0797366
0.00062861
0.0794135
0.000635656
0.0790863
0.00064204
0.0787554
0.000647744
0.0784212
0.00065275
0.078084
0.000657025
0.0777441
0.000660533
0.077402
0.000663213
0.0770581
0.00066498
0.0767127
0.000665694
0.0763663
0.000665134
0.076019
0.000662928
0.0756709
0.000658392
0.000650079
0.0841538
0.000693148
-0.0843841
0.0839092
0.000715405
0.0836519
0.00073766
0.0833828
0.000760121
0.0831028
0.000782674
0.0828122
0.000805177
0.0825114
0.000827477
0.0822009
0.000849422
0.0818808
0.000870865
0.0815514
0.00089169
0.081213
0.000911808
0.0808659
0.00093115
0.0805104
0.000949653
0.0801467
0.00096727
0.0797754
0.000983961
0.0793966
0.000999691
0.0790108
0.00101443
0.0786183
0.00102816
0.0782195
0.00104084
0.0778148
0.00105245
0.0774046
0.00106295
0.0769893
0.00107232
0.0765693
0.0010805
0.0761451
0.00108743
0.0757171
0.00109303
0.0752856
0.00109717
0.074851
0.00109968
0.0744137
0.0011003
0.0739734
0.00109865
0.00109406
0.0839057
0.000925384
-0.0841379
0.0836575
0.000963535
0.0833942
0.00100097
0.0831164
0.00103789
0.0828248
0.00107432
0.0825198
0.00111019
0.0822019
0.00114542
0.0818714
0.00117991
0.0815287
0.00121355
0.0811741
0.00124624
0.080808
0.0012779
0.0804307
0.00130844
0.0800426
0.00133781
0.0796439
0.00136595
0.0792351
0.0013928
0.0788164
0.00141831
0.0783884
0.00144245
0.0779514
0.00146518
0.0775058
0.00148645
0.077052
0.00150623
0.0765905
0.00152448
0.0761216
0.00154116
0.0756459
0.0015562
0.0751638
0.00156956
0.0746757
0.00158114
0.074182
0.00159084
0.0736832
0.00159855
0.0731794
0.0016041
0.0726708
0.00160726
0.00160771
0.08338
0.00114583
-0.0836004
0.0831422
0.00120129
0.0828875
0.00125565
0.0826164
0.00130904
0.0823292
0.00136148
0.0820265
0.00141294
0.0817085
0.00146337
0.0813758
0.00151268
0.0810285
0.00156078
0.0806672
0.00160759
0.0802921
0.00165302
0.0799035
0.001697
0.0795019
0.00173945
0.0790875
0.00178032
0.0786608
0.00181953
0.0782221
0.00185702
0.0777718
0.00189276
0.0773103
0.00192667
0.076838
0.00195873
0.0763553
0.00198887
0.0758628
0.00201704
0.0753607
0.0020432
0.0748497
0.00206728
0.07433
0.00208922
0.0738022
0.00210895
0.0732666
0.00212639
0.0727238
0.00214143
0.0721739
0.00215397
0.0716173
0.00216389
0.00217101
0.0825949
0.00134544
-0.0827945
0.0823769
0.00141932
0.0821406
0.00149189
0.0818865
0.00156319
0.0816148
0.00163321
0.0813258
0.00170193
0.0810199
0.00176929
0.0806973
0.00183519
0.0803586
0.00189957
0.0800038
0.00196234
0.0796334
0.0020234
0.0792477
0.00208269
0.0788471
0.00214012
0.0784318
0.00219562
0.0780022
0.00224911
0.0775587
0.00230053
0.0771016
0.00234981
0.0766314
0.00239689
0.0761484
0.00244171
0.0756531
0.0024842
0.0751458
0.00252431
0.074627
0.00256197
0.0740972
0.00259713
0.0735567
0.00262971
0.073006
0.00265965
0.0724455
0.00268687
0.0718756
0.00271129
0.0712968
0.00273284
0.0707092
0.00275144
0.00276697
0.0815822
0.00151885
-0.0817556
0.0813895
0.00161197
0.0811778
0.00170363
0.0809471
0.00179383
0.0806978
0.00188253
0.0804301
0.00196968
0.0801442
0.00205521
0.0798403
0.00213903
0.0795188
0.00222105
0.07918
0.00230119
0.078824
0.00237935
0.0784513
0.00245544
0.078062
0.00252937
0.0776566
0.00260107
0.0772353
0.00267043
0.0767984
0.0027374
0.0763463
0.00280188
0.0758794
0.0028638
0.075398
0.00292309
0.0749025
0.00297969
0.0743933
0.00303351
0.0738708
0.00308448
0.0733354
0.00313255
0.0727875
0.00317762
0.0722275
0.00321964
0.0716558
0.00325854
0.0710729
0.00329423
0.0704791
0.00332667
0.0698747
0.00335578
0.00338147
0.0803798
0.00166355
-0.0805245
0.0802154
0.00177638
0.0800313
0.00188768
0.0798277
0.0019974
0.0796048
0.00210547
0.0793627
0.00221182
0.0791015
0.00231636
0.0788215
0.002419
0.078523
0.00251963
0.078206
0.00261815
0.0778709
0.00271447
0.0775179
0.00280847
0.0771472
0.00290006
0.0767591
0.00298915
0.0763539
0.00307564
0.0759318
0.00315944
0.0754933
0.00324045
0.0750385
0.00331859
0.0745678
0.00339378
0.0740816
0.00346592
0.0735801
0.00353495
0.0730638
0.00360077
0.072533
0.00366332
0.0719882
0.0037225
0.0714296
0.00377824
0.0708576
0.00383047
0.0702727
0.00387913
0.0696753
0.00392414
0.0690656
0.00396545
0.00400296
0.0790275
0.00177907
-0.079143
0.078892
0.00191183
0.0787367
0.00204302
0.0785615
0.00217256
0.0783666
0.00230037
0.0781521
0.00242635
0.0779181
0.0025504
0.0776647
0.0026724
0.0773921
0.00279223
0.0771004
0.00290979
0.0767899
0.00302497
0.0764607
0.00313764
0.0761131
0.00324771
0.0757472
0.00335505
0.0753633
0.00345957
0.0749616
0.00356115
0.0745423
0.0036597
0.0741058
0.00375512
0.0736522
0.0038473
0.073182
0.00393616
0.0726954
0.00402159
0.0721926
0.00410351
0.0716741
0.00418182
0.0711402
0.00425644
0.0705911
0.00432729
0.0700273
0.00439428
0.0694491
0.00445733
0.0688569
0.0045164
0.0682509
0.0045714
0.00462223
0.0775636
0.00186645
-0.077651
0.0774563
0.0020191
0.0773292
0.0021702
0.0771821
0.00231962
0.0770152
0.00246726
0.0768285
0.00261301
0.0766222
0.00275676
0.0763962
0.00289837
0.0761507
0.00303771
0.0758859
0.00317465
0.0756018
0.00330909
0.0752985
0.00344088
0.0749763
0.00356991
0.0746353
0.00369605
0.0742757
0.0038192
0.0738976
0.00393922
0.0735013
0.004056
0.073087
0.00416944
0.0726549
0.00427942
0.0722052
0.00438584
0.0717382
0.00448858
0.0712542
0.00458754
0.0707534
0.00468264
0.070236
0.00477375
0.0697025
0.0048608
0.0691531
0.0049437
0.0685881
0.00502235
0.0680078
0.0050967
0.0674125
0.00516665
0.00523211
0.0760232
0.00192768
-0.0760845
0.0759423
0.00210002
0.0758417
0.00227084
0.0757213
0.00243999
0.0755812
0.00260735
0.0754214
0.0027728
0.075242
0.00293621
0.0750429
0.00309743
0.0748243
0.00325632
0.0745862
0.00341274
0.0743287
0.00356656
0.074052
0.00371765
0.073756
0.00386587
0.073441
0.00401109
0.073107
0.00415317
0.0727542
0.004292
0.0723828
0.00442743
0.0719929
0.00455936
0.0715846
0.00468766
0.0711583
0.0048122
0.070714
0.00493288
0.070252
0.00504957
0.0697724
0.00516217
0.0692756
0.00527056
0.0687618
0.00537465
0.0682311
0.00547433
0.067684
0.00556951
0.0671206
0.00566011
0.0665412
0.00574605
0.0058272
0.0744372
0.00196536
-0.0744748
0.0743801
0.00215705
0.0743037
0.00234726
0.0742079
0.00253584
0.0740926
0.00272265
0.0739578
0.00290754
0.0738036
0.00309039
0.07363
0.00327104
0.073437
0.00344932
0.0732247
0.00362509
0.072993
0.00379823
0.0727421
0.00396857
0.072472
0.00413597
0.0721828
0.0043003
0.0718746
0.0044614
0.0715474
0.00461916
0.0712014
0.00477342
0.0708367
0.00492405
0.0704535
0.00507093
0.0700518
0.00521392
0.0696317
0.00535289
0.0691936
0.00548772
0.0687375
0.0056183
0.0682635
0.00574449
0.067772
0.00586618
0.067263
0.00598327
0.0667369
0.00609566
0.0661938
0.00620324
0.0656339
0.00630593
0.00640362
0.0728316
0.00198242
-0.0728486
0.0727956
0.00219301
0.0727407
0.00240218
0.0726668
0.00260976
0.0725738
0.00281562
0.0724617
0.00301959
0.0723306
0.00322152
0.0721804
0.00342125
0.0720111
0.00361862
0.0718227
0.00381347
0.0716153
0.00400566
0.0713888
0.00419503
0.0711434
0.00438143
0.0708789
0.00456471
0.0705956
0.00474473
0.0702935
0.00492132
0.0699725
0.00509437
0.0696328
0.00526371
0.0692746
0.00542921
0.0688977
0.00559073
0.0685025
0.00574815
0.0680889
0.00590131
0.0676571
0.00605009
0.0672072
0.00619436
0.0667394
0.006334
0.0662538
0.00646888
0.0657506
0.0065989
0.0652299
0.00672395
0.0646919
0.00684393
0.00695874
0.071228
0.00198185
-0.0712275
0.0712102
0.00221084
0.0711739
0.00243847
0.0711191
0.00266458
0.0710457
0.002889
0.0709537
0.00311157
0.0708431
0.00333213
0.0707139
0.0035505
0.0705659
0.00376654
0.0703993
0.00398007
0.0702141
0.00419093
0.0700101
0.00439898
0.0697875
0.00460404
0.0695463
0.00480597
0.0692864
0.00500461
0.0690079
0.00519981
0.0687109
0.00539141
0.0683953
0.00557929
0.0680612
0.00576327
0.0677087
0.00594324
0.0673378
0.00611902
0.0669487
0.0062905
0.0665412
0.00645752
0.0661156
0.00661995
0.065672
0.00677765
0.0652104
0.00693049
0.0647309
0.00707835
0.0642338
0.00722112
0.063719
0.00735871
0.007491
0.0696438
0.00196661
-0.0696285
0.0696411
0.00221347
0.0696206
0.00245903
0.069582
0.00270312
0.0695255
0.00294557
0.0694508
0.00318622
0.0693581
0.00342488
0.0692472
0.0036614
0.0691181
0.0038956
0.0689709
0.00412731
0.0688054
0.00435638
0.0686218