/*--------------------------------*- C++ -*----------------------------------*\
  =========                 |
  \\      /  F ield         | OpenFOAM: The Open Source CFD Toolbox
   \\    /   O peration     | Website:  https://openfoam.org
    \\  /    A nd           | Version:  6.0
     \\/     M anipulation  |
\*---------------------------------------------------------------------------*/
FoamFile
{
    version     2.0;
    format      ascii;
    class       volVectorField;
    location    "11.501";
    object      U;
}
// * * * * * * * * * * * * * * * * * * * * * * * * * * * * * * * * * * * * * //

dimensions      [0 1 -1 0 0 0 0];

internalField   nonuniform List<vector> 
19200
(
(0.098427 -4.7423 -6.41661e-21)
(0.0604854 -4.32495 3.23378e-21)
(0.0662434 -3.98285 1.49887e-21)
(0.0809757 -3.70279 1.3204e-21)
(0.0985391 -3.47318 1.4763e-21)
(0.120413 -3.28421 1.08648e-22)
(0.146008 -3.12788 2.0976e-21)
(0.174399 -2.99768 -1.37395e-22)
(0.204879 -2.88839 1.84847e-21)
(0.23685 -2.79578 7.81761e-22)
(0.269785 -2.71647 1.42008e-23)
(0.303235 -2.64775 1.24148e-21)
(0.336819 -2.58745 2.03251e-21)
(0.370223 -2.53383 -1.37904e-21)
(0.403189 -2.48552 1.79448e-21)
(0.435506 -2.44139 1.55462e-21)
(0.46701 -2.40057 -1.45576e-21)
(0.497571 -2.36235 2.50523e-21)
(0.527094 -2.32617 -1.58523e-21)
(0.555509 -2.29156 8.09589e-22)
(0.58277 -2.25818 1.13086e-21)
(0.608852 -2.22572 -3.55074e-22)
(0.633742 -2.19395 4.83271e-22)
(0.657444 -2.16265 -5.62141e-22)
(0.679967 -2.13164 -8.85226e-25)
(0.70133 -2.10077 3.03197e-22)
(0.721552 -2.06987 -1.90191e-22)
(0.740655 -2.03877 1.27799e-22)
(0.758672 -2.00731 2.77168e-22)
(0.775604 -1.97527 1.14226e-21)
(0.222842 -4.73972 -1.50147e-21)
(0.174652 -4.32864 1.00673e-20)
(0.172179 -3.99181 -5.29967e-21)
(0.180426 -3.71662 -7.21524e-21)
(0.192909 -3.49148 -3.24119e-21)
(0.210786 -3.30648 -2.34772e-21)
(0.233217 -3.15358 -5.07143e-21)
(0.259072 -3.02629 6.36199e-22)
(0.287488 -2.9194 -1.10797e-21)
(0.317743 -2.82872 -3.83478e-21)
(0.349214 -2.7509 -9.62918e-21)
(0.381375 -2.68329 4.73079e-21)
(0.41379 -2.62374 -1.73963e-21)
(0.446099 -2.57056 6.6328e-22)
(0.478011 -2.52241 -4.13892e-21)
(0.509291 -2.4782 -1.53535e-21)
(0.539757 -2.4371 1.77028e-22)
(0.569268 -2.39842 5.25667e-21)
(0.597719 -2.36162 -2.76423e-21)
(0.625037 -2.32629 -1.54552e-21)
(0.651174 -2.29208 -6.03575e-21)
(0.676102 -2.25871 1.55548e-21)
(0.699811 -2.22597 -9.96715e-22)
(0.722307 -2.19365 1.75013e-21)
(0.743601 -2.1616 -7.91906e-22)
(0.763713 -2.12965 -1.23653e-21)
(0.782666 -2.09765 4.1168e-22)
(0.800488 -2.06544 6.09468e-22)
(0.81723 -2.03283 -1.11831e-21)
(0.832864 -1.99961 5.88072e-22)
(0.346936 -4.7343 -7.47016e-22)
(0.288784 -4.32978 2.36022e-21)
(0.278473 -3.99852 3.37449e-21)
(0.28057 -3.72843 2.56661e-20)
(0.288241 -3.50795 -1.48592e-20)
(0.30234 -3.32705 1.37221e-20)
(0.321779 -3.17765 8.43657e-21)
(0.345236 -3.0533 6.55196e-21)
(0.371692 -2.94882 -6.39586e-21)
(0.400304 -2.86005 -7.51756e-22)
(0.430356 -2.78369 1.62719e-20)
(0.461251 -2.71713 2.74591e-21)
(0.492497 -2.65827 -7.47842e-21)
(0.523693 -2.60547 5.98523e-21)
(0.554518 -2.55741 -7.82237e-23)
(0.584715 -2.51306 2.57531e-21)
(0.614086 -2.47161 1.94688e-21)
(0.642481 -2.43241 6.36967e-21)
(0.669788 -2.39496 -2.85663e-21)
(0.695931 -2.35885 -9.51197e-22)
(0.720861 -2.32376 -2.5047e-21)
(0.744553 -2.28946 1.09598e-20)
(0.766999 -2.25572 -9.13463e-21)
(0.788204 -2.22237 3.05658e-21)
(0.808187 -2.18926 1.36179e-21)
(0.826968 -2.15624 -5.51514e-21)
(0.844572 -2.12316 7.42643e-21)
(0.861035 -2.08985 -8.4458e-22)
(0.876428 -2.05613 -8.48991e-22)
(0.890684 -2.02177 -5.98455e-21)
(0.470868 -4.72591 -2.4399e-20)
(0.403036 -4.32838 -2.22144e-20)
(0.38519 -4.00297 -2.73228e-20)
(0.381424 -3.73822 1.03529e-21)
(0.384533 -3.52256 1.59761e-21)
(0.395063 -3.34585 -3.11154e-20)
(0.411682 -3.20002 1.37626e-21)
(0.432872 -3.07863 3.9942e-21)
(0.457466 -2.97654 -6.87871e-22)
(0.484503 -2.88965 7.04936e-21)
(0.513176 -2.81471 -2.84538e-20)
(0.54282 -2.74914 -1.79928e-20)
(0.572891 -2.69092 6.70394e-21)
(0.60295 -2.63843 1.35048e-20)
(0.632648 -2.5904 -1.58447e-20)
(0.66171 -2.54585 -2.55344e-21)
(0.689924 -2.50399 -9.43681e-21)
(0.717131 -2.46422 -4.5509e-21)
(0.743218 -2.42606 7.55093e-21)
(0.768106 -2.38913 -9.79178e-21)
(0.791747 -2.35314 8.42721e-21)
(0.814118 -2.31787 -1.00935e-20)
(0.835215 -2.28311 -8.04195e-21)
(0.855047 -2.24872 -5.6663e-21)
(0.873636 -2.21456 -1.73073e-21)
(0.891008 -2.18047 -1.18325e-20)
(0.907187 -2.14631 1.20219e-21)
(0.922218 -2.11193 2.1319e-21)
(0.93619 -2.07714 -6.17965e-21)
(0.948995 -2.04169 1.32738e-21)
(0.594604 -4.71446 -1.49081e-20)
(0.517418 -4.32439 2.08983e-21)
(0.492336 -4.00515 1.92418e-20)
(0.482985 -3.74595 2.0439e-20)
(0.481776 -3.53525 1.45978e-20)
(0.488943 -3.36282 5.98469e-21)
(0.502906 -3.22059 9.42647e-21)
(0.521958 -3.10217 4.3917e-20)
(0.544782 -3.00245 -2.64363e-20)
(0.570304 -2.91741 7.17863e-22)
(0.597631 -2.84383 6.41226e-21)
(0.626032 -2.77921 2.81366e-20)
(0.654915 -2.72155 -1.94363e-20)
(0.683806 -2.66931 1.40977e-20)
(0.712332 -2.62126 -1.58796e-20)
(0.7402 -2.57644 2.71475e-20)
(0.76719 -2.53412 -8.17597e-21)
(0.793135 -2.49373 2.53984e-22)
(0.817921 -2.45481 1.33012e-20)
(0.841471 -2.41703 9.26064e-21)
(0.863738 -2.38011 -9.55061e-21)
(0.884703 -2.34384 1.29651e-20)
(0.904366 -2.30807 -6.00681e-21)
(0.922743 -2.27263 6.86429e-21)
(0.93986 -2.23741 9.10657e-21)
(0.955744 -2.20226 3.3214e-21)
(0.970426 -2.16706 1.01856e-20)
(0.983955 -2.13165 -3.59482e-21)
(0.996441 -2.09581 -1.32725e-21)
(1.00773 -2.05933 -6.10105e-21)
(0.718082 -4.69996 -1.10242e-20)
(0.631901 -4.31779 -7.41735e-21)
(0.599893 -4.00502 -2.23299e-20)
(0.585237 -3.75157 -5.79854e-20)
(0.579954 -3.54596 1.96737e-20)
(0.583959 -3.37788 1.24837e-21)
(0.595427 -3.23928 -1.35656e-20)
(0.612461 -3.12382 2.93909e-21)
(0.633602 -3.02645 -1.86247e-21)
(0.657663 -2.94321 -3.56637e-20)
(0.68367 -2.87094 1.51794e-20)
(0.710829 -2.8072 2.63128e-20)
(0.738505 -2.75005 1.80193e-22)
(0.766191 -2.69799 9.98589e-21)
(0.793493 -2.64985 2.4756e-20)
(0.820105 -2.60471 -1.70457e-20)
(0.845797 -2.56188 3.03801e-20)
(0.870403 -2.52082 -1.44599e-20)
(0.893806 -2.48111 2.6211e-20)
(0.915931 -2.44244 -1.95707e-20)
(0.936738 -2.40457 8.90269e-21)
(0.956211 -2.3673 2.34167e-20)
(0.974358 -2.3305 1.3593e-21)
(0.991198 -2.29402 -2.16292e-20)
(1.00676 -2.25775 1.23337e-20)
(1.02109 -2.22158 1.51556e-21)
(1.0342 -2.18536 -3.87203e-21)
(1.04617 -2.14895 1.51951e-20)
(1.05711 -2.11213 5.27382e-21)
(1.06682 -2.07467 -5.35052e-21)
(0.841234 -4.68239 3.07086e-20)
(0.746441 -4.30854 -1.36294e-21)
(0.707834 -4.00254 -4.62597e-20)
(0.688157 -3.75502 9.18823e-21)
(0.679043 -3.55461 -1.3133e-20)
(0.680085 -3.39094 9.58949e-21)
(0.689213 -3.25599 2.17918e-20)
(0.704347 -3.14347 3.98568e-20)
(0.723883 -3.04843 -4.34737e-20)
(0.746531 -2.96693 1.07398e-20)
(0.771236 -2.89592 -7.6303e-21)
(0.797148 -2.833 5.72053e-21)
(0.82359 -2.77629 -2.50416e-20)
(0.850028 -2.72435 -1.45374e-21)
(0.876048 -2.67606 4.16564e-20)
(0.901336 -2.63055 -2.86832e-20)
(0.925655 -2.58716 -1.81399e-20)
(0.948839 -2.54539 -1.33639e-20)
(0.970773 -2.50486 2.48725e-20)
(0.991388 -2.46529 5.4341e-21)
(1.01065 -2.42644 -2.44813e-20)
(1.02854 -2.38817 3.31499e-20)
(1.04509 -2.35034 -2.98288e-20)
(1.06032 -2.31283 2.00835e-20)
(1.07426 -2.27554 -1.12449e-20)
(1.08695 -2.23836 7.52942e-21)
(1.09843 -2.20117 5.61984e-21)
(1.10877 -2.1638 -2.4873e-20)
(1.11811 -2.12605 1.08761e-20)
(1.12619 -2.08769 2.72554e-22)
(0.963989 -4.66176 -3.071e-20)
(0.86099 -4.29663 2.57855e-20)
(0.816121 -3.99765 -4.81278e-20)
(0.791713 -3.75625 9.23359e-20)
(0.779012 -3.56114 -2.60869e-20)
(0.777288 -3.40192 3.75273e-20)
(0.784229 -3.27062 1.29404e-22)
(0.797571 -3.16103 -5.01686e-21)
(0.815576 -3.06826 -7.92157e-21)
(0.836851 -2.98846 -1.6346e-22)
(0.860266 -2.91865 -3.1083e-20)
(0.884917 -2.85648 1.60488e-20)
(0.910092 -2.80015 -1.98757e-20)
(0.935233 -2.74828 -1.5594e-21)
(0.959909 -2.69978 -5.6651e-20)
(0.9838 -2.65385 1.84954e-20)
(1.00667 -2.60986 1.10576e-20)
(1.02834 -2.56735 -1.22787e-20)
(1.04872 -2.52597 -1.41097e-21)
(1.06774 -2.48547 -1.95435e-20)
(1.08537 -2.44565 -7.09938e-21)
(1.1016 -2.40637 6.96535e-22)
(1.11647 -2.36752 -1.74064e-20)
(1.13 -2.329 -2.58606e-20)
(1.14224 -2.29072 1.0561e-21)
(1.15324 -2.25257 -2.75591e-21)
(1.16303 -2.21445 8.29245e-21)
(1.17169 -2.17618 -2.0574e-20)
(1.17938 -2.13756 1.75644e-20)
(1.18579 -2.09837 -3.56558e-20)
(1.08627 -4.63806 -7.79734e-20)
(0.975495 -4.28203 9.67053e-20)
(0.924714 -3.99033 -1.03182e-19)
(0.89587 -3.75519 -2.76645e-20)
(0.879827 -3.56546 -1.82885e-20)
(0.875529 -3.41072 -1.96843e-20)
(0.880429 -3.28307 -1.82006e-20)
(0.892085 -3.17639 -3.919e-21)
(0.908625 -3.08584 -1.8593e-20)
(0.928559 -3.00769 -4.73859e-21)
(0.950688 -2.939 3.2524e-20)
(0.97406 -2.87752 -1.87471e-20)
(0.997928 -2.82152 -2.29664e-20)
(1.02172 -2.76964 -3.89645e-20)
(1.04498 -2.72089 8.23132e-20)
(1.0674 -2.67449 -3.21723e-20)
(1.08873 -2.62987 1.20212e-20)
(1.10882 -2.5866 -4.52245e-20)
(1.12755 -2.54435 1.7187e-20)
(1.14488 -2.50292 -7.34736e-21)
(1.16079 -2.46213 9.00626e-21)
(1.17528 -2.42185 -3.492e-21)
(1.18839 -2.382 2.95867e-20)
(1.20015 -2.34249 -1.06301e-20)
(1.21063 -2.30325 2.90628e-20)
(1.21987 -2.26418 -5.49017e-21)
(1.22792 -2.22517 3.82828e-20)
(1.23485 -2.18607 1.05662e-20)
(1.24085 -2.14664 2.01058e-20)
(1.24554 -2.1067 -6.52794e-20)
(1.20801 -4.6113 1.23777e-19)
(1.0899 -4.26472 -2.45191e-20)
(1.03357 -3.98053 4.36897e-20)
(1.00059 -3.75178 -1.30034e-20)
(0.981444 -3.56751 4.53646e-20)
(0.974765 -3.41727 4.35364e-20)
(0.977765 -3.29326 5.02003e-20)
(0.987832 -3.18943 -4.3312e-21)
(1.00297 -3.10107 -4.9014e-20)
(1.02158 -3.02449 7.24221e-20)
(1.04242 -2.95687 -5.88663e-21)
(1.06449 -2.89602 5.27673e-20)
(1.08701 -2.84027 1.92847e-20)
(1.10938 -2.78835 7.00393e-21)
(1.13117 -2.7393 1.21243e-20)
(1.15203 -2.6924 1.59794e-20)
(1.17174 -2.64711 2.71654e-20)
(1.19015 -2.60305 -7.88405e-21)
(1.20715 -2.55993 4.05295e-20)
(1.2227 -2.51756 1.90072e-20)
(1.23681 -2.4758 -3.99282e-20)
(1.24947 -2.43455 7.09409e-20)
(1.26074 -2.39372 -9.44304e-20)
(1.27067 -2.35327 9.03221e-20)
(1.27932 -2.3131 -3.00544e-20)
(1.28675 -2.27316 5.69568e-21)
(1.293 -2.23332 -4.0201e-20)
(1.29816 -2.19345 2.24466e-20)
(1.30244 -2.15328 8.23316e-21)
(1.30538 -2.11267 -1.04448e-20)
(1.32914 -4.58149 -7.21142e-20)
(1.20414 -4.24468 7.27195e-20)
(1.14263 -3.9682 -1.99564e-20)
(1.10581 -3.74597 5.81425e-20)
(1.08382 -3.5672 5.46931e-21)
(1.07494 -3.42148 1.30973e-20)
(1.07618 -3.30108 -1.02272e-19)
(1.08475 -3.20007 -1.78361e-20)
(1.09853 -3.11382 6.7467e-20)
(1.11585 -3.03876 5.28217e-20)
(1.13539 -2.97214 -9.00496e-20)
(1.15612 -2.91186 5.32452e-20)
(1.17724 -2.85632 -5.37287e-20)
(1.19813 -2.8043 3.80131e-20)
(1.21836 -2.7549 -6.31142e-20)
(1.23759 -2.70746 -4.78744e-20)
(1.25559 -2.66149 2.94744e-21)
(1.27222 -2.61663 -2.25216e-20)
(1.28741 -2.57264 4.0368e-20)
(1.3011 -2.52934 1.59105e-20)
(1.31331 -2.48663 -1.05964e-20)
(1.32408 -2.44442 -3.30401e-21)
(1.33344 -2.40265 1.27945e-20)
(1.34147 -2.36129 -4.25305e-20)
(1.34823 -2.32026 7.23553e-20)
(1.35379 -2.27949 -1.75295e-20)
(1.3582 -2.23889 -1.45616e-21)
(1.36156 -2.19831 6.42475e-20)
(1.36408 -2.15749 8.78067e-21)
(1.36525 -2.1163 -9.23025e-21)
(1.44957 -4.54863 1.74878e-21)
(1.31817 -4.22189 -4.04783e-20)
(1.25184 -3.95331 -3.83915e-20)
(1.2115 -3.7377 -6.25104e-20)
(1.18689 -3.56447 1.53918e-21)
(1.17601 -3.42326 -4.62593e-20)
(1.17561 -3.30644 5.51173e-20)
(1.18277 -3.20819 -4.69356e-21)
(1.19524 -3.124 4.68449e-20)
(1.21128 -3.0504 -3.80855e-20)
(1.2295 -2.98472 -2.03536e-20)
(1.24886 -2.92494 1.11264e-20)
(1.26851 -2.86954 6.05482e-21)
(1.28786 -2.81738 -6.35954e-20)
(1.30645 -2.76761 3.80723e-20)
(1.32395 -2.71961 -1.95778e-20)
(1.34016 -2.67293 5.48633e-20)
(1.35494 -2.62727 -1.8363e-20)
(1.36821 -2.5824 1.96395e-20)
(1.37996 -2.5382 4.67744e-21)
(1.3902 -2.49455 3.35014e-20)
(1.39898 -2.45142 -6.89335e-21)
(1.40637 -2.40876 5.58186e-20)
(1.41243 -2.36653 -6.20477e-20)
(1.41725 -2.32468 -2.09825e-20)
(1.42089 -2.28316 1.7483e-20)
(1.42342 -2.24188 -1.41623e-21)
(1.42495 -2.20067 -3.0925e-20)
(1.42569 -2.15927 2.53878e-20)
(1.42508 -2.11759 -3.07501e-20)
(1.56923 -4.51274 1.24428e-19)
(1.43191 -4.19633 3.57374e-20)
(1.36116 -3.93581 4.17496e-20)
(1.31759 -3.7269 5.82822e-20)
(1.29061 -3.55924 8.73664e-20)
(1.2779 -3.42252 -2.01299e-21)
(1.276 -3.30924 1.25595e-20)
(1.28182 -3.2137 1.02521e-19)
(1.29301 -3.13151 -2.08583e-20)
(1.30777 -3.05929 -3.81711e-20)
(1.32466 -2.99448 6.91866e-20)
(1.34259 -2.93515 1.21063e-20)
(1.36073 -2.87986 1.01227e-21)
(1.37846 -2.82752 1.68992e-20)
(1.39532 -2.77734 3.12635e-20)
(1.41102 -2.72876 -6.50321e-20)
(1.42535 -2.68137 5.58371e-20)
(1.43817 -2.6349 9.84431e-21)
(1.44945 -2.58918 5.5738e-20)
(1.45917 -2.54408 -2.99379e-20)
(1.46736 -2.49954 5.08188e-20)
(1.47409 -2.45553 -5.39964e-20)
(1.47943 -2.41201 5.29814e-20)
(1.48347 -2.36898 7.47413e-21)
(1.48629 -2.32638 -3.56386e-20)
(1.48798 -2.28417 -1.1836e-20)
(1.4886 -2.24227 7.00153e-20)
(1.48826 -2.20051 5.12215e-20)
(1.48721 -2.15862 1.38722e-20)
(1.4848 -2.11654 -9.83264e-21)
(1.68805 -4.47383 1.34407e-20)
(1.54531 -4.16799 3.14763e-20)
(1.47052 -3.91567 1.2609e-19)
(1.42404 -3.71352 -2.06703e-19)
(1.39492 -3.55144 -2.06579e-20)
(1.38055 -3.41919 -2.20898e-20)
(1.37726 -3.30939 1.03474e-20)
(1.38181 -3.2165 1.49917e-20)
(1.39177 -3.13623 2.39892e-20)
(1.40524 -3.06533 -6.38995e-20)
(1.42076 -3.00134 -1.2939e-20)
(1.43722 -2.94241 3.75606e-20)
(1.45377 -2.88717 4.11107e-20)
(1.4698 -2.83461 -4.05044e-20)
(1.48487 -2.784 -4.06582e-20)
(1.49867 -2.73483 6.65912e-20)
(1.51102 -2.68673 4.44854e-20)
(1.52181 -2.63948 -1.07825e-20)
(1.531 -2.59291 -2.84561e-20)
(1.53861 -2.54695 5.71917e-21)
(1.54468 -2.50156 -6.75701e-20)
(1.54928 -2.45671 8.26465e-20)
(1.55252 -2.4124 -5.66603e-20)
(1.55447 -2.36861 -2.43719e-21)
(1.55526 -2.32533 3.83344e-20)
(1.55495 -2.28251 -1.17831e-20)
(1.55363 -2.24007 -3.59982e-20)
(1.55141 -2.19785 4.46939e-20)
(1.54856 -2.15557 -1.07356e-21)
(1.54436 -2.11319 8.19522e-21)
(1.80596 -4.43191 -9.10579e-21)
(1.6583 -4.13685 -3.18231e-20)
(1.57985 -3.89284 -1.46799e-19)
(1.53076 -3.6975 5.32826e-20)
(1.49974 -3.54099 -1.6435e-20)
(1.48388 -3.41317 5.55776e-20)
(1.47931 -3.30681 4.48613e-21)
(1.48266 -3.21649 -6.47212e-20)
(1.4914 -3.13809 1.00278e-19)
(1.50358 -3.06844 -9.09395e-20)
(1.5177 -3.00521 -3.88021e-21)
(1.53264 -2.94662 2.30571e-20)
(1.54753 -2.8914 -3.92756e-20)
(1.56179 -2.8386 4.62808e-20)
(1.57497 -2.78754 -8.80954e-20)
(1.58678 -2.73777 -2.02875e-20)
(1.59707 -2.68897 5.46615e-20)
(1.60574 -2.64094 2.95576e-22)
(1.61276 -2.59357 -3.51259e-20)
(1.61818 -2.54679 9.67989e-20)
(1.62205 -2.50058 -5.22386e-20)
(1.62446 -2.45494 -7.04662e-20)
(1.62553 -2.40989 2.35421e-20)
(1.62535 -2.36543 -6.95053e-20)
(1.62406 -2.32154 -1.69137e-20)
(1.62173 -2.27819 -2.12413e-21)
(1.61844 -2.2353 -4.63972e-20)
(1.61433 -2.19271 5.56404e-20)
(1.60967 -2.15011 -3.10528e-20)
(1.60368 -2.10754 3.66392e-20)
(1.92287 -4.38699 -4.65184e-20)
(1.7708 -4.1029 -1.32039e-19)
(1.6891 -3.8673 6.46412e-20)
(1.6377 -3.67879 -6.30631e-20)
(1.60501 -3.52784 -4.59836e-20)
(1.58782 -3.4044 -2.71182e-20)
(1.58208 -3.3014 -1.01708e-19)
(1.58428 -3.2136 6.99661e-20)
(1.59182 -3.13698 -1.74988e-19)
(1.60269 -3.06853 -6.48824e-20)
(1.61537 -3.00599 2.31978e-20)
(1.62872 -2.9477 3.94738e-20)
(1.64189 -2.89246 -5.9333e-22)
(1.65429 -2.83939 -7.68549e-20)
(1.66549 -2.78789 1.8262e-20)
(1.67524 -2.73752 -7.19538e-20)
(1.68337 -2.68804 -5.20706e-20)
(1.68982 -2.63926 -3.16993e-20)
(1.6946 -2.59111 -6.33132e-21)
(1.69775 -2.54354 5.47554e-20)
(1.69935 -2.49657 7.87332e-20)
(1.69951 -2.45022 -2.38297e-20)
(1.69836 -2.4045 -2.35348e-20)
(1.69601 -2.35943 4.54363e-20)
(1.69259 -2.31501 2.51659e-20)
(1.6882 -2.27121 -2.02242e-20)
(1.68293 -2.22796 -2.28557e-20)
(1.67692 -2.18509 2.64831e-21)
(1.67047 -2.14228 2.37462e-20)
(1.66269 -2.09962 3.27661e-20)
(2.03872 -4.33909 -8.7112e-21)
(1.88275 -4.06612 1.69875e-19)
(1.79818 -3.839 1.32457e-19)
(1.74478 -3.65734 1.0329e-19)
(1.71065 -3.5119 -6.7966e-20)
(1.69228 -3.39279 -1.35695e-20)
(1.68547 -3.29309 1.19345e-20)
(1.68657 -3.20772 9.02479e-20)
(1.69292 -3.13282 3.4112e-20)
(1.70246 -3.0655 8.3665e-20)
(1.71365 -3.0036 -1.18769e-19)
(1.72535 -2.94558 1.18851e-20)
(1.73672 -2.89029 4.90862e-20)
(1.74718 -2.83694 3.09107e-20)
(1.75632 -2.78498 6.47224e-20)
(1.7639 -2.73403 -4.4401e-20)
(1.7698 -2.68388 -4.14429e-20)
(1.77396 -2.63439 7.73629e-21)
(1.77641 -2.5855 9.04666e-20)
(1.77722 -2.53721 -1.46324e-19)
(1.77648 -2.48954 5.12464e-20)
(1.77433 -2.44252 -3.00996e-22)
(1.7709 -2.3962 9.85069e-20)
(1.76633 -2.35061 -4.25799e-20)
(1.76076 -2.30574 -2.35505e-21)
(1.7543 -2.26158 -2.76913e-20)
(1.74703 -2.21806 2.64132e-20)
(1.73911 -2.17501 6.4743e-21)
(1.73086 -2.1321 -2.95743e-20)
(1.72133 -2.08945 1.00692e-19)
(2.15342 -4.28824 -1.7328e-19)
(1.99408 -4.02651 -1.0388e-19)
(1.90704 -3.80791 -2.67766e-19)
(1.85194 -3.63309 -1.23446e-19)
(1.81657 -3.49313 1.16163e-19)
(1.79719 -3.37828 -6.91987e-20)
(1.78938 -3.2818 -1.78059e-20)
(1.78943 -3.19879 -4.67586e-20)
(1.79458 -3.12554 8.08038e-20)
(1.80277 -3.05928 -1.92042e-20)
(1.81242 -2.99798 -3.00697e-20)
(1.82241 -2.94018 -3.64974e-21)
(1.8319 -2.88482 -1.237e-19)
(1.84033 -2.83118 -5.41672e-21)
(1.84732 -2.77877 3.30808e-20)
(1.85266 -2.72726 -4.18434e-21)
(1.85623 -2.67647 -1.31924e-19)
(1.85802 -2.6263 1.29254e-19)
(1.85807 -2.57673 -1.28066e-19)
(1.85646 -2.52777 5.03951e-20)
(1.85333 -2.47945 7.21311e-21)
(1.84881 -2.43185 2.74141e-21)
(1.84306 -2.38501 -5.42722e-20)
(1.83623 -2.33896 1.85826e-20)
(1.82847 -2.29373 -7.37759e-23)
(1.81991 -2.24931 6.20536e-21)
(1.81063 -2.20562 -1.38534e-19)
(1.80082 -2.1625 3.76263e-20)
(1.79079 -2.11958 4.0547e-20)
(1.77952 -2.07705 4.55463e-20)
(2.2669 -4.23444 3.40542e-19)
(2.10472 -3.98405 1.20213e-19)
(2.0156 -3.77401 7.14055e-20)
(1.95908 -3.606 1.13615e-19)
(1.92271 -3.47146 -1.40433e-20)
(1.90244 -3.36079 8.78357e-20)
(1.89373 -3.26745 1.96789e-19)
(1.89275 -3.18672 -2.47723e-20)
(1.89671 -3.11505 1.21865e-20)
(1.9035 -3.04979 2.39764e-19)
(1.91156 -2.98904 -3.18213e-20)
(1.91976 -2.93144 3.4486e-20)
(1.9273 -2.876 -1.28684e-20)
(1.93362 -2.82207 -1.57244e-21)
(1.93838 -2.76922 1.81202e-19)
(1.94138 -2.71717 6.9473e-21)
(1.94255 -2.66578 1.95988e-19)
(1.94189 -2.61498 -2.43854e-20)
(1.93946 -2.56478 -4.31631e-20)
(1.93538 -2.5152 1.01279e-19)
(1.92979 -2.46632 -9.29024e-20)
(1.92285 -2.4182 1.02643e-19)
(1.91474 -2.37091 5.57187e-20)
(1.90561 -2.3245 -4.52473e-20)
(1.89564 -2.279 6.94993e-20)
(1.88496 -2.2344 8.38354e-21)
(1.87366 -2.19065 -2.94231e-20)
(1.86195 -2.14756 1.59217e-20)
(1.85015 -2.10475 1.05586e-19)
(1.83718 -2.06246 1.64054e-20)
(2.37909 -4.17773 -5.86843e-20)
(2.21458 -3.93874 -1.22225e-19)
(2.12378 -3.73727 5.13851e-20)
(2.06615 -3.57603 -2.05493e-19)
(2.02896 -3.44684 9.89758e-20)
(2.00795 -3.34026 -1.82514e-19)
(1.9984 -3.24997 -1.2144e-19)
(1.99642 -3.17145 3.43315e-20)
(1.99917 -3.10128 3.46299e-20)
(2.00453 -3.03697 -1.66925e-19)
(2.01094 -2.97674 -7.29746e-20)
(2.01729 -2.9193 3.4251e-20)
(2.02278 -2.86377 -9.41989e-20)
(2.02691 -2.80956 -3.78329e-20)
(2.02936 -2.75629 -2.56028e-20)
(2.02995 -2.70374 -2.57479e-20)
(2.02863 -2.65179 -1.09782e-19)
(2.02544 -2.60041 -6.91609e-20)
(2.02047 -2.54964 1.24251e-20)
(2.01386 -2.49952 2.28828e-20)
(2.00576 -2.45014 2.4736e-20)
(1.99635 -2.40158 -8.53919e-20)
(1.98583 -2.35392 3.24103e-20)
(1.97437 -2.30723 -6.68532e-20)
(1.96216 -2.26155 6.34968e-20)
(1.94934 -2.21687 -8.34976e-20)
(1.93602 -2.17316 2.64358e-20)
(1.92241 -2.13021 -4.13322e-20)
(1.90887 -2.08762 -5.90567e-20)
(1.89422 -2.04569 -5.97674e-21)
(2.4899 -4.11812 -1.25784e-19)
(2.3236 -3.89059 -1.11945e-19)
(2.23151 -3.69766 -1.10021e-19)
(2.17305 -3.54314 -8.27509e-20)
(2.13525 -3.4192 2.5565e-19)
(2.1136 -3.31663 3.6465e-20)
(2.10328 -3.2293 1.11563e-19)
(2.10032 -3.1529 1.72201e-19)
(2.10184 -3.08417 8.36496e-20)
(2.10573 -3.02077 -1.11882e-19)
(2.11043 -2.96101 1.82358e-19)
(2.11485 -2.90372 -1.78166e-19)
(2.11823 -2.8481 1.70029e-19)
(2.12008 -2.79362 2.04781e-20)
(2.12013 -2.73996 4.40595e-20)
(2.11822 -2.68694 1.47179e-20)
(2.11435 -2.63448 1.80361e-19)
(2.10857 -2.58258 -2.69225e-20)
(2.101 -2.5313 2.45368e-20)
(2.09179 -2.48071 8.24816e-20)
(2.08113 -2.4309 -9.24787e-20)
(2.06921 -2.38198 7.41415e-20)
(2.05624 -2.33404 3.04357e-21)
(2.04242 -2.28716 3.39604e-20)
(2.02794 -2.24138 6.23877e-20)
(2.01297 -2.19672 -1.05602e-20)
(1.99762 -2.15314 6.20426e-20)
(1.98212 -2.11045 9.02568e-20)
(1.96685 -2.0682 -9.81036e-20)
(1.95057 -2.02676 -6.05131e-20)
(2.59926 -4.05565 3.71111e-19)
(2.43171 -3.83958 -4.20821e-20)
(2.33871 -3.65517 8.63545e-20)
(2.27971 -3.50728 1.58922e-19)
(2.24148 -3.38851 -4.6233e-19)
(2.21931 -3.28983 5.0952e-20)
(2.20827 -3.20538 -1.78927e-19)
(2.20433 -3.13101 1.81655e-19)
(2.2046 -3.06366 -1.45298e-19)
(2.20697 -3.00111 7.88221e-20)
(2.20989 -2.94181 -2.88598e-19)
(2.21231 -2.88466 8.19444e-21)
(2.2135 -2.82895 -9.71426e-20)
(2.213 -2.77423 1.48279e-19)
(2.21057 -2.7202 -1.58128e-19)
(2.2061 -2.66676 -8.19731e-21)
(2.1996 -2.61385 -1.29889e-19)
(2.19116 -2.5615 -1.11345e-20)
(2.18093 -2.50978 1.1176e-20)
(2.16908 -2.45879 2.92889e-20)
(2.15581 -2.40863 -1.66264e-19)
(2.14134 -2.35942 -5.11678e-21)
(2.12589 -2.31128 -9.372e-20)
(2.10967 -2.26428 -2.17855e-20)
(2.0929 -2.21849 -5.77954e-20)
(2.07575 -2.17394 -6.34467e-20)
(2.05836 -2.1306 -6.64646e-20)
(2.04097 -2.08828 1.10298e-19)
(2.02399 -2.04649 2.98149e-20)
(2.00611 -2.00567 -5.8996e-20)
(2.7071 -3.99034 -2.47754e-19)
(2.53882 -3.78573 9.28323e-20)
(2.44532 -3.60978 -1.59643e-19)
(2.38603 -3.46842 2.35789e-20)
(2.34756 -3.3547 2.64483e-19)
(2.32497 -3.25982 -1.34959e-19)
(2.31324 -3.17814 -1.44697e-19)
(2.30833 -3.10574 -1.23118e-19)
(2.30732 -3.03971 5.59339e-21)
(2.30811 -2.97797 8.0293e-20)
(2.3092 -2.9191 -5.88499e-20)
(2.30954 -2.86209 2.2269e-21)
(2.30846 -2.80631 1.86193e-19)
(2.30553 -2.75136 -9.48903e-20)
(2.30054 -2.69702 2.52264e-20)
(2.29343 -2.6432 -7.78921e-20)
(2.28425 -2.5899 2.99854e-20)
(2.2731 -2.53716 6.4828e-20)
(2.26015 -2.48508 7.46107e-20)
(2.24561 -2.43376 -8.18449e-20)
(2.2297 -2.38333 1.15084e-20)
(2.21265 -2.33392 7.08934e-20)
(2.19469 -2.28564 1.23298e-19)
(2.17605 -2.2386 3.31806e-20)
(2.15696 -2.19288 -1.28553e-19)
(2.13761 -2.14853 1.50096e-19)
(2.11816 -2.10552 -7.53904e-20)
(2.09887 -2.06368 -9.04871e-20)
(2.08019 -2.02247 -5.55851e-20)
(2.06076 -1.98241 -7.66233e-20)
(2.81334 -3.92222 1.33141e-19)
(2.64488 -3.72905 -1.07315e-19)
(2.55125 -3.56146 4.12207e-20)
(2.49195 -3.42653 2.20765e-19)
(2.45338 -3.31773 6.09101e-20)
(2.43045 -3.22654 -5.21853e-20)
(2.41807 -3.14754 1.27368e-19)
(2.41218 -3.07702 2.9646e-20)
(2.40986 -3.01226 1.2347e-19)
(2.40902 -2.95131 6.83127e-20)
(2.40821 -2.89284 3.36568e-21)
(2.4064 -2.83597 4.38246e-20)
(2.40297 -2.78014 -1.38705e-20)
(2.39754 -2.725 2.43728e-20)
(2.38993 -2.6704 6.89774e-20)
(2.38012 -2.61627 -3.80114e-20)
(2.36819 -2.56264 9.50281e-20)
(2.35428 -2.50959 9.69521e-20)
(2.33858 -2.45722 -1.10873e-19)
(2.32132 -2.40565 1.14593e-19)
(2.30273 -2.35503 2.44825e-19)
(2.28306 -2.30548 -1.58863e-19)
(2.26256 -2.25714 1.60811e-19)
(2.24148 -2.21013 -1.1269e-19)
(2.22004 -2.16455 -1.61951e-20)
(2.19847 -2.12045 1.22595e-19)
(2.17693 -2.07787 -2.48445e-20)
(2.15572 -2.0366 9.26302e-20)
(2.13536 -1.99611 9.24897e-20)
(2.11441 -1.95694 -1.85499e-19)
(2.91792 -3.85133 -1.28682e-19)
(2.74982 -3.66954 6.17044e-20)
(2.65646 -3.51021 2.52405e-20)
(2.59737 -3.38156 -2.60035e-19)
(2.55884 -3.27757 -1.36079e-19)
(2.53565 -3.18994 1.03356e-19)
(2.52264 -3.11353 -2.90155e-19)
(2.51575 -3.04483 3.5392e-19)
(2.51208 -2.98128 -2.00045e-19)
(2.50956 -2.92108 2.39015e-20)
(2.50678 -2.86303 -3.78817e-20)
(2.50275 -2.80631 -1.17367e-19)
(2.4969 -2.75045 2.45082e-19)
(2.4889 -2.69517 9.36195e-20)
(2.4786 -2.64035 -9.68578e-20)
(2.46604 -2.58597 2.94164e-21)
(2.45131 -2.53209 5.52391e-20)
(2.43459 -2.4788 -1.19582e-19)
(2.41611 -2.42622 2.56822e-20)
(2.3961 -2.37449 8.40423e-20)
(2.37481 -2.32375 -3.46599e-20)
(2.35251 -2.27414 5.83759e-20)
(2.32946 -2.22581 -1.15171e-19)
(2.3059 -2.17888 1.67945e-19)
(2.2821 -2.13348 3.96303e-20)
(2.25827 -2.0897 -1.07036e-19)
(2.23461 -2.04759 -9.30677e-20)
(2.21146 -2.00699 3.91577e-22)
(2.18939 -1.96732 1.2955e-19)
(2.16694 -1.92921 -3.1322e-20)
(3.02078 -3.77769 -3.52274e-20)
(2.85361 -3.60721 -2.59013e-19)
(2.76087 -3.456 3.10669e-19)
(2.70221 -3.33348 2.1238e-19)
(2.66383 -3.23415 2.14382e-19)
(2.64043 -3.14998 6.09518e-20)
(2.62681 -3.07607 9.15868e-20)
(2.61891 -3.00912 4.75433e-20)
(2.61384 -2.94674 -1.88124e-19)
(2.60959 -2.88728 3.47426e-19)
(2.60476 -2.82963 -2.83309e-19)
(2.59846 -2.77309 -1.87051e-20)
(2.59012 -2.71724 4.22858e-20)
(2.57947 -2.66186 -1.87817e-19)
(2.56644 -2.60689 1.65347e-19)
(2.55107 -2.55234 -4.94675e-20)
(2.5335 -2.49828 -1.28312e-19)
(2.51395 -2.44483 5.0047e-20)
(2.49265 -2.39213 -9.62725e-20)
(2.46987 -2.34031 -8.53819e-20)
(2.44588 -2.28953 -9.19969e-20)
(2.42095 -2.23993 2.09345e-20)
(2.39533 -2.19166 1.23887e-20)
(2.3693 -2.14486 -2.28463e-19)
(2.3431 -2.09967 -8.73324e-20)
(2.31699 -2.05622 5.64621e-20)
(2.29116 -2.01461 7.03614e-20)
(2.266 -1.97472 -9.71702e-20)
(2.24218 -1.93597 -3.71224e-20)
(2.21825 -1.89905 3.7621e-21)
(3.1219 -3.70133 -3.08058e-20)
(2.95623 -3.54207 1.67634e-19)
(2.86443 -3.3988 -4.77381e-20)
(2.80636 -3.28224 -5.89199e-20)
(2.76824 -3.18743 -3.34513e-19)
(2.74466 -3.10661 -7.40496e-20)
(2.73044 -3.03512 1.4292e-19)
(2.7215 -2.96987 -9.47622e-20)
(2.715 -2.90863 -1.01095e-20)
(2.70895 -2.84989 -1.88358e-20)
(2.70203 -2.79266 1.07242e-19)
(2.69337 -2.73631 -1.70966e-19)
(2.68248 -2.68052 -1.15335e-19)
(2.66914 -2.6251 1.36232e-19)
(2.65331 -2.57005 -7.82494e-20)
(2.63509 -2.51539 -9.47201e-20)
(2.61465 -2.46124 2.03721e-19)
(2.59224 -2.40772 -3.20254e-20)
(2.56812 -2.35498 1.21526e-19)
(2.54257 -2.30317 -1.11851e-19)
(2.51588 -2.25242 -9.08932e-20)
(2.48831 -2.2029 7.92351e-20)
(2.46015 -2.15475 -8.9165e-21)
(2.43165 -2.10811 -5.98954e-20)
(2.40306 -2.06315 5.28386e-20)
(2.37464 -2.02001 -1.65469e-19)
(2.3466 -1.97887 1.01125e-19)
(2.31937 -1.93968 -1.56704e-21)
(2.29372 -1.90188 -1.06254e-19)
(2.26829 -1.86621 1.61672e-19)
(3.22137 -3.62232 1.28061e-19)
(3.05769 -3.47413 -3.32305e-19)
(2.96708 -3.33857 -2.79193e-20)
(2.90973 -3.22779 1.5816e-19)
(2.87192 -3.13737 -4.14481e-20)
(2.84821 -3.0598 -1.17236e-19)
(2.83338 -2.99066 5.57179e-20)
(2.82338 -2.92705 6.47113e-20)
(2.8154 -2.86693 5.63586e-21)
(2.80751 -2.80891 8.06583e-20)
(2.79842 -2.75211 2.59216e-19)
(2.78734 -2.696 -9.1698e-20)
(2.77385 -2.6403 2.39582e-20)
(2.75776 -2.58492 -6.24849e-20)
(2.73909 -2.52985 2.41273e-19)
(2.71798 -2.47518 -4.34587e-20)
(2.69465 -2.42103 1.45032e-19)
(2.66937 -2.36753 -5.64637e-20)
(2.64242 -2.31485 6.11933e-20)
(2.61411 -2.26312 9.28027e-20)
(2.58474 -2.2125 1.59561e-20)
(2.55457 -2.16313 6.29308e-20)
(2.52389 -2.11515 -5.22792e-20)
(2.49295 -2.0687 1.46164e-19)
(2.46201 -2.02394 -5.99319e-20)
(2.43129 -1.98107 2.20308e-19)
(2.401 -1.94029 -6.37554e-20)
(2.3716 -1.90167 4.40576e-20)
(2.34404 -1.86469 -8.32791e-20)
(2.31711 -1.83031 1.58085e-19)
(3.31956 -3.54077 -2.83131e-19)
(3.15813 -3.40331 1.049e-20)
(3.06873 -3.27519 -1.73179e-19)
(3.01215 -3.17005 3.18976e-20)
(2.97472 -3.08392 8.83977e-21)
(2.9509 -3.00952 -1.56966e-19)
(2.93547 -2.94266 -2.9669e-19)
(2.92439 -2.88067 1.49378e-19)
(2.91489 -2.82164 -2.13191e-19)
(2.9051 -2.76434 -1.1334e-19)
(2.89379 -2.70799 -6.50806e-20)
(2.88024 -2.65216 -5.29691e-20)
(2.86408 -2.59663 1.56434e-21)
(2.8452 -2.54134 -1.9006e-19)
(2.82365 -2.48635 1.26044e-19)
(2.79963 -2.43175 -2.07127e-19)
(2.77339 -2.37769 -5.25975e-20)
(2.74524 -2.32432 5.76982e-20)
(2.71548 -2.27179 7.28923e-20)
(2.68443 -2.22025 7.31178e-20)
(2.6524 -2.16984 5.61319e-20)
(2.61968 -2.1207 -1.41138e-19)
(2.58655 -2.07296 1.43016e-19)
(2.55324 -2.02673 -1.52376e-20)
(2.52 -1.98217 -3.86298e-20)
(2.48703 -1.93945 -1.53376e-19)
(2.45451 -1.89882 -8.16059e-20)
(2.42283 -1.86036 1.51459e-19)
(2.39305 -1.82372 -4.95717e-20)
(2.36434 -1.79069 -5.16636e-20)
(3.41692 -3.45637 1.23174e-19)
(3.25755 -3.3292 1.14148e-20)
(3.1692 -3.20847 -3.43531e-20)
(3.11343 -3.10894 -7.46842e-21)
(3.07645 -3.02706 -6.28056e-20)
(3.05258 -2.95578 2.12076e-19)
(3.03657 -2.89116 -1.0072e-19)
(3.0244 -2.83073 6.61885e-20)
(3.01334 -2.77279 2.77354e-20)
(3.00159 -2.71621 1.00913e-19)
(2.98801 -2.66035 -3.94207e-20)
(2.97193 -2.60484 2.23339e-19)
(2.95305 -2.54953 -1.94304e-20)
(2.93133 -2.49442 1.47032e-19)
(2.90688 -2.43959 -2.48091e-19)
(2.87992 -2.38517 -1.91097e-20)
(2.85077 -2.33131 1.6232e-19)
(2.81974 -2.27816 -1.01102e-19)
(2.78718 -2.2259 -7.14253e-20)
(2.75343 -2.17466 -1.23391e-19)
(2.71881 -2.12457 -1.08789e-19)
(2.68361 -2.07576 1.17158e-19)
(2.64811 -2.02835 -1.105e-19)
(2.61257 -1.98242 2.43201e-20)
(2.57722 -1.93808 8.9891e-20)
(2.54223 -1.89547 6.23898e-20)
(2.50776 -1.85469 5.94642e-20)
(2.47401 -1.81572 4.37922e-20)
(2.44154 -1.77862 -1.18537e-19)
(2.40995 -1.7465 -5.08554e-20)
(5.01172 -0.0292001 1.83846e-21)
(5.00412 -0.161014 1.82145e-20)
(4.99339 -0.29186 6.3219e-20)
(4.97952 -0.422016 3.45542e-20)
(4.96229 -0.55154 -7.30674e-20)
(4.94164 -0.680399 2.21262e-20)
(4.91757 -0.808525 -2.31633e-20)
(4.8901 -0.93584 -5.84924e-20)
(4.85927 -1.06226 1.48961e-19)
(4.82511 -1.18768 -3.55146e-20)
(4.78764 -1.31204 -3.5809e-20)
(4.74692 -1.43523 -7.56305e-20)
(4.70297 -1.55718 -2.16457e-19)
(4.65585 -1.67779 2.00745e-20)
(4.6056 -1.797 -9.71346e-21)
(4.55227 -1.91471 -6.7429e-20)
(4.49589 -2.03085 1.44449e-19)
(4.43654 -2.14534 7.824e-20)
(4.37426 -2.25811 1.49418e-19)
(4.3091 -2.36909 7.28281e-20)
(4.24112 -2.47821 -1.62985e-19)
(4.17038 -2.58539 6.58703e-21)
(4.09694 -2.69057 -3.06764e-19)
(4.02086 -2.79369 4.65268e-19)
(3.94221 -2.89469 -1.52388e-19)
(3.86105 -2.99352 -1.96093e-19)
(3.77744 -3.09013 -2.73563e-20)
(3.69147 -3.1845 -1.50069e-21)
(3.60324 -3.2767 -1.46584e-19)
(3.51271 -3.36712 2.60946e-19)
(5.03747 -0.0582365 7.62607e-21)
(5.02405 -0.190145 1.12611e-20)
(5.00693 -0.320942 2.79723e-21)