/*--------------------------------*- C++ -*----------------------------------*\
| =========                 |                                                 |
| \\      /  F ield         | OpenFOAM: The Open Source CFD Toolbox           |
|  \\    /   O peration     | Version:  v1912                                 |
|   \\  /    A nd           | Website:  www.openfoam.com                      |
|    \\/     M anipulation  |                                                 |
\*---------------------------------------------------------------------------*/
FoamFile
{
    version     2.0;
    format      ascii;
    class       volScalarField;
    location    "44.5";
    object      p;
}
// * * * * * * * * * * * * * * * * * * * * * * * * * * * * * * * * * * * * * //

dimensions      [0 2 -2 0 0 0 0];


internalField   nonuniform List<scalar> 
9600
(
-41.4775
-36.2123
-32.9851
-30.2475
-27.7418
-25.4749
-23.4182
-21.5441
-19.8349
-18.2769
-16.8577
-15.5651
-14.3879
-13.3152
-12.3369
-11.4436
-10.627
-9.87904
-9.19222
-8.56437
-42.2366
-36.9538
-33.6907
-30.9103
-28.3595
-26.0485
-23.9505
-22.0386
-20.2956
-18.7077
-17.262
-15.9464
-14.7488
-13.6582
-12.6641
-11.7567
-10.9273
-10.1676
-9.46969
-8.83258
-42.9973
-37.6914
-34.3909
-31.5675
-28.9714
-26.6161
-24.4768
-22.5273
-20.7506
-19.133
-17.6613
-16.3228
-15.1053
-13.9971
-12.9873
-12.0659
-11.2239
-10.4526
-9.74359
-9.09741
-43.7564
-38.4245
-35.0853
-32.2181
-29.5764
-27.1768
-24.9962
-23.0092
-21.1991
-19.5522
-18.0548
-16.6938
-15.4566
-14.3311
-13.3059
-12.3708
-11.5163
-10.7334
-10.0135
-9.35852
-44.511
-39.1516
-35.7727
-32.8612
-30.1736
-27.7295
-25.5076
-23.4834
-21.6403
-19.9644
-18.4417
-17.0586
-15.8021
-14.6595
-13.6193
-12.6707
-11.804
-11.0098
-10.2791
-9.61563
-45.2591
-39.8714
-36.4521
-33.4957
-30.7618
-28.2732
-26.0103
-23.9491
-22.0733
-20.3688
-18.8212
-17.4165
-16.1411
-14.9819
-13.927
-12.9652
-12.0866
-11.2812
-10.54
-9.86849
-45.9987
-40.5823
-37.1222
-34.1203
-31.34
-28.807
-26.5031
-24.4053
-22.4973
-20.7647
-19.1927
-17.7669
-16.473
-15.2976
-14.2284
-13.2538
-12.3636
-11.5473
-10.7958
-10.1168
-46.7285
-41.283
-37.7817
-34.734
-31.9072
-29.3297
-26.9852
-24.8512
-22.9115
-21.1513
-19.5554
-18.1089
-16.7971
-15.606
-14.5228
-13.5359
-12.6344
-11.8077
-11.0463
-10.3603
-47.447
-41.9721
-38.4294
-35.3356
-32.4622
-29.8405
-27.4557
-25.2859
-23.3149
-21.5277
-19.9086
-18.4419
-17.1126
-15.9064
-14.8098
-13.8109
-12.8987
-12.0619
-11.291
-10.5986
-48.153
-42.6485
-39.0641
-35.9241
-33.0041
-30.3384
-27.9137
-25.7085
-23.7069
-21.8932
-20.2513
-18.7651
-17.4189
-16.1979
-15.0884
-14.0781
-13.1556
-12.3093
-11.5294
-10.8312
-48.8454
-43.3111
-39.6849
-36.4984
-33.5319
-30.8224
-28.3581
-26.1182
-24.0864
-22.2469
-20.5829
-19.0777
-17.7151
-16.4799
-15.358
-14.3367
-13.4046
-12.5491
-11.7608
-11.0577
-49.5232
-43.9588
-40.2906
-37.0577
-34.0446
-31.2917
-28.7883
-26.5142
-24.4528
-22.5879
-20.9024
-19.3787
-18.0003
-16.7514
-15.6176
-14.586
-13.6446
-12.7806
-11.9845
-11.2772
-50.1858
-44.5907
-40.8805
-37.6009
-34.5415
-31.7454
-29.2034
-26.8955
-24.8052
-22.9156
-21.2089
-19.6673
-18.2735
-17.0114
-15.8662
-14.8247
-13.8747
-13.0029
-12.1996
-11.4889
-50.8325
-45.2062
-41.4536
-38.1272
-35.0217
-32.1828
-29.6026
-27.2615
-25.1427
-23.2289
-21.5017
-19.9425
-18.5338
-17.2588
-16.1026
-15.0516
-14.0936
-13.2145
-12.4049
-11.6922
-51.4628
-45.8043
-42.0091
-38.636
-35.4845
-32.6031
-29.9853
-27.6116
-25.4648
-23.5273
-21.7798
-20.2034
-18.7799
-17.4923
-16.3252
-15.265
-14.2991
-13.4133
-12.5983
-11.8852
-52.0762
-46.3843
-42.5464
-39.1266
-35.9293
-33.0059
-30.351
-27.9451
-25.7709
-23.81
-22.0427
-20.4493
-19.0111
-17.7109
-16.5329
-15.4634
-14.4896
-13.5972
-12.7769
-12.0625
-52.674
-46.9461
-43.0647
-39.5983
-36.3554
-33.3904
-30.6989
-28.2616
-26.0605
-24.0766
-22.2896
-20.6793
-19.2265
-17.9135
-16.7245
-15.6459
-14.6647
-13.766
-12.9398
-12.2208
-53.2606
-47.4907
-43.5633
-40.05
-36.7619
-33.7561
-31.0288
-28.5606
-26.3332
-24.3268
-22.5202
-20.8927
-19.4248
-18.0984
-16.8979
-15.8098
-14.8215
-13.9172
-13.086
-12.3714
-53.838
-48.0178
-44.0407
-40.4805
-37.1485
-34.1029
-31.3408
-28.8427
-26.5897
-24.561
-22.7349
-21.0898
-19.6057
-18.2642
-17.0495
-15.9485
-14.9483
-14.033
-13.2006
-12.5185
-54.3844
-48.5196
-44.4957
-40.8906
-37.5164
-34.4325
-31.6367
-29.1096
-26.8316
-24.7812
-22.9358
-21.273
-19.7719
-18.4135
-17.1813
-16.0606
-15.0366
-14.0957
-13.2523
-12.5765
-59.8354
-59.8039
-59.7347
-59.6423
-59.5261
-59.3834
-59.2139
-59.018
-58.7963
-58.5494
-58.2777
-57.9818
-57.6625
-57.3203
-56.9561
-56.5708
-56.1653
-55.7414
-55.302
-54.8503
-53.4871
-53.4845
-53.4488
-53.3855
-53.2954
-53.178
-53.0335
-52.8627
-52.6661
-52.4445
-52.1985
-51.9286
-51.6356
-51.3199
-50.9823
-50.6234
-50.244
-49.8443
-49.4251
-48.9842
-48.8439
-48.8656
-48.8581
-48.8217
-48.758
-48.6676
-48.5512
-48.4095
-48.2431
-48.0525
-47.8383
-47.6012
-47.3416
-47.0601
-46.7572
-46.4334
-46.0889
-45.7238
-45.3378
-44.9289
-44.6143
-44.6538
-44.6667
-44.6524
-44.612
-44.5464
-44.4563
-44.3423
-44.2048
-44.0446
-43.8619
-43.6575
-43.4319
-43.1853
-42.9184
-42.6312
-42.3242
-41.997
-41.6496
-41.281
-40.7036
-40.7529
-40.7784
-40.7791
-40.7556
-40.7086
-40.6389
-40.5469
-40.4332
-40.2981
-40.1423
-39.9662
-39.7703
-39.555
-39.3206
-39.0674
-38.7955
-38.5048
-38.1951
-37.8659
-37.1915
-37.245
-37.2768
-37.2862
-37.2733
-37.2387
-37.1832
-37.1071
-37.0109
-36.8951
-36.7602
-36.6067
-36.435
-36.2456
-36.0386
-35.8145
-35.5732
-35.3148
-35.0389
-34.7451
-34.0689
-34.1223
-34.156
-34.1691
-34.1617
-34.1345
-34.0878
-34.0223
-33.9384
-33.8364
-33.7171
-33.5807
-33.4278
-33.2588
-33.074
-32.8738
-32.6581
-32.4269
-32.1801
-31.917
-31.299
-31.3496
-31.382
-31.3954
-31.39
-31.3662
-31.3245
-31.2655
-31.1896
-31.0972
-30.9889
-30.8651
-30.7263
-30.5731
-30.4057
-30.2246
-30.0298
-29.8214
-29.599
-29.3621
-28.842
-28.8881
-28.9173
-28.929
-28.9232
-28.9004
-28.8611
-28.8058
-28.7348
-28.6488
-28.5481
-28.4333
-28.3051
-28.1638
-28.01
-27.8441
-27.6663
-27.4766
-27.2748
-27.0602
-26.6581
-26.6991
-26.7242
-26.733
-26.7255
-26.7022
-26.6636
-26.6101
-26.5421
-26.4601
-26.3647
-26.2565
-26.136
-26.0038
-25.8606
-25.7069
-25.5429
-25.3689
-25.1845
-24.9891
-24.7102
-24.7459
-24.7666
-24.7721
-24.7623
-24.7378
-24.6989
-24.6461
-24.5797
-24.5004
-24.4087
-24.3051
-24.1904
-24.0652
-23.9303
-23.7863
-23.6338
-23.473
-23.3037
-23.1252
-22.9653
-22.9959
-23.0124
-23.0145
-23.0023
-22.9761
-22.9365
-22.8838
-22.8183
-22.7408
-22.6516
-22.5515
-22.4412
-22.3214
-22.1931
-22.057
-21.914
-21.7646
-21.6086
-21.4454
-21.3952
-21.4212
-21.4338
-21.4327
-21.418
-21.3902
-21.3497
-21.2967
-21.2318
-21.1554
-21.0681
-20.9706
-20.8637
-20.7482
-20.6251
-20.4955
-20.3605
-20.2209
-20.077
-19.9281
-19.9761
-19.998
-20.007
-20.003
-19.9861
-19.9568
-19.9154
-19.8621
-19.7975
-19.722
-19.6362
-19.5407
-19.4363
-19.3241
-19.2051
-19.0807
-18.9524
-18.8214
-18.6887
-18.5534
-18.6882
-18.7064
-18.7122
-18.7056
-18.6869
-18.6562
-18.6139
-18.5604
-18.496
-18.4212
-18.3366
-18.2427
-18.1404
-18.0307
-17.9149
-17.7945
-17.6716
-17.5478
-17.4256
-17.3037
-17.515
-17.5298
-17.5328
-17.524
-17.5035
-17.4717
-17.4287
-17.375
-17.3109
-17.2367
-17.153
-17.0604
-16.9597
-16.8519
-16.7383
-16.6207
-16.5018
-16.3837
-16.2712
-16.1625
-16.4426
-16.4544
-16.455
-16.4442
-16.4222
-16.3893
-16.3458
-16.2919
-16.2279
-16.1543
-16.0713
-15.9797
-15.8801
-15.7734
-15.6611
-15.5449
-15.4283
-15.314
-15.2096
-15.1127
-15.4591
-15.4686
-15.4672
-15.4549
-15.4318
-15.3983
-15.3544
-15.3005
-15.2369
-15.1637
-15.0815
-14.9907
-14.8918
-14.7858
-14.6738
-14.5577
-14.4414
-14.3286
-14.2311
-14.1434
-14.5535
-14.5615
-14.5591
-14.5464
-14.5233
-14.4901
-14.4469
-14.3941
-14.3318
-14.2603
-14.1799
-14.091
-13.994
-13.8896
-13.7787
-13.6629
-13.5458
-13.4326
-13.342
-13.2684
-13.7204
-13.7252
-13.7203
-13.7057
-13.6815
-13.6479
-13.6051
-13.5532
-13.4923
-13.4228
-13.3448
-13.2586
-13.1645
-13.0629
-12.9542
-12.8395
-12.7206
-12.6027
-12.5056
-12.4563
-53.5478
-54.1228
-54.6606
-55.1835
-55.6884
-56.1694
-56.6237
-57.0501
-57.4479
-57.816
-58.1538
-58.4608
-58.7367
-58.9811
-59.1934
-59.3736
-59.5227
-59.6417
-59.7328
-59.7977
-47.0655
-47.6459
-48.1981
-48.7281
-49.2352
-49.7171
-50.1723
-50.6002
-51.0001
-51.3713
-51.7132
-52.0258
-52.3091
-52.5638
-52.7878
-52.9806
-53.1427
-53.2745
-53.3766
-53.4478
-42.4222
-42.9903
-43.5347
-44.0558
-44.5534
-45.0269
-45.4754
-45.8982
-46.2949
-46.6645
-47.0063
-47.32
-47.6053
-47.8608
-48.088
-48.287
-48.4574
-48.5991
-48.7117
-48.7936
-38.2992
-38.842
-39.3652
-39.8668
-40.3462
-40.8031
-41.237
-41.6472
-42.0331
-42.394
-42.7286
-43.0366
-43.3187
-43.5746
-43.8042
-44.0075
-44.1839
-44.3331
-44.4549
-44.5487
-34.6224
-35.1352
-35.6309
-36.1071
-36.5626
-36.9971
-37.4102
-37.801
-38.169
-38.5135
-38.8352
-39.1335
-39.4072
-39.6564
-39.8811
-40.0812
-40.2563
-40.4063
-40.531
-40.6302
-31.4246
-31.906
-32.372
-32.82
-33.2489
-33.6583
-34.0475
-34.4162
-34.7638
-35.0899
-35.3945
-35.6769
-35.9365
-36.1735
-36.3882
-36.5803
-36.7492
-36.8947
-37.0171
-37.1162
-28.6535
-29.104
-29.5404
-29.9601
-30.362
-30.7455
-31.1102
-31.4556
-31.7813
-32.087
-32.3723
-32.637
-32.8807
-33.1032
-33.3042
-33.4856
-33.6456
-33.7837
-33.9003
-33.9955
-26.2422
-26.6639
-27.0722
-27.4649
-27.8408
-28.1994
-28.5401
-28.8626
-29.1664
-29.4514
-29.7173
-29.9638
-30.1909
-30.3985
-30.5865
-30.7534
-30.9028
-31.0319
-31.1409
-31.23
-24.1321
-24.5274
-24.91
-25.2777
-25.6295
-25.9647
-26.2828
-26.5836
-26.8666
-27.1318
-27.3789
-27.6079
-27.8186
-28.0111
-28.1852
-28.3409
-28.4771
-28.5962
-28.6967
-28.7787
-22.273
-22.6445
-23.0039
-23.3491
-23.6788
-23.9926
-24.2899
-24.5705
-24.8342
-25.0809
-25.3105
-25.5229
-25.7182
-25.8961
-26.0568
-26.2001
-26.326
-26.4346
-26.5265
-26.6011
-20.6234
-20.9737
-21.3124
-21.6373
-21.9472
-22.2414
-22.5197
-22.7819
-23.0279
-23.2576
-23.471
-23.6682
-23.8491
-24.0136
-24.1619
-24.2938
-24.4093
-24.5085
-24.592
-24.6593
-19.1496
-19.4811
-19.8016
-20.1085
-20.4005
-20.677
-20.938
-21.1833
-21.4131
-21.6272
-21.8259
-22.0091
-22.1769
-22.3292
-22.4661
-22.5876
-22.6937
-22.7845
-22.8597
-22.9203
-17.8245
-18.1396
-18.4442
-18.7352
-19.011
-19.2714
-19.5166
-19.7465
-19.9614
-20.1614
-20.3466
-20.5171
-20.673
-20.8142
-20.9408
-21.0528
-21.1502
-21.233
-21.3009
-21.3556
-16.6267
-16.9274
-17.2184
-17.4953
-17.7564
-18.0021
-18.2327
-18.4485
-18.6498
-18.8368
-19.0096
-19.1686
-19.3136
-19.4448
-19.5621
-19.6655
-19.7552
-19.8311
-19.8935
-19.9414
-15.539
-15.8274
-16.107
-16.3712
-16.6188
-16.8508
-17.0679
-17.2705
-17.4591
-17.6341
-17.7957
-17.9441
-18.0793
-18.2013
-18.3102
-18.406
-18.4886
-18.5582
-18.6146
-18.6578
-14.5468
-14.8266
-15.097
-15.3493
-15.584
-15.8031
-16.0074
-16.1976
-16.3744
-16.5382
-16.6894
-16.8281
-16.9543
-17.0681
-17.1693
-17.2581
-17.3344
-17.3982
-17.4495
-17.4884
-13.6322
-13.911
-14.1762
-14.417
-14.6391
-14.8458
-15.0379
-15.2163
-15.3821
-15.5356
-15.6773
-15.8071
-15.9252
-16.0315
-16.1259
-16.2085
-16.2791
-16.3378
-16.3846
-16.4195
-12.7747
-13.0577
-13.3242
-13.5557
-13.7658
-13.9609
-14.1418
-14.3097
-14.4657
-14.6103
-14.7437
-14.866
-14.9773
-15.0773
-15.166
-15.2434
-15.3094
-15.3639
-15.4071
-15.4389
-11.9878
-12.2614
-12.5286
-12.7553
-12.9553
-13.1389
-13.3094
-13.4678
-13.615
-13.7517
-13.8779
-13.9938
-14.0992
-14.194
-14.278
-14.3512
-14.4136
-14.4649
-14.5053
-14.5349
-11.3975
-11.6482
-11.8759
-12.0926
-12.2809
-12.4467
-12.6007
-12.7448
-12.8788
-13.0029
-13.1176
-13.2229
-13.3183
-13.4039
-13.4796
-13.5451
-13.6005
-13.6457
-13.6805
-13.705
-5.99972
-6.49084
-7.02905
-7.61129
-8.24402
-8.93462
-9.69077
-10.5219
-11.4403
-12.4614
-13.6059
-14.9007
-16.3809
-18.093
-20.0972
-22.4726
-25.3007
-28.6035
-32.6004
-38.596
-6.27015
-6.77478
-7.3235
-7.91779
-8.56428
-9.27004
-10.0429
-10.8925
-11.8314
-12.8754
-14.0455
-15.3687
-16.8811
-18.6291
-20.6734
-23.0929
-25.968
-29.3176
-33.353
-39.3696
-6.54201
-7.06016
-7.6195
-8.22608
-8.88658
-9.60776
-10.3976
-11.266
-12.2256
-13.2928
-14.4887
-15.841
-17.3858
-19.1701
-21.2547
-23.7183
-26.64
-30.0352
-34.1073
-40.1404
-6.81481
-7.34642
-7.91646
-8.53554
-9.21027
-9.94707
-10.754
-11.6414
-12.6221
-13.7127
-14.9347
-16.3161
-17.8936
-19.7144
-21.8394
-24.3471
-27.3151
-30.7558
-34.8657
-40.9199
-7.08811
-7.6331
-8.21393
-8.84571
-9.53486
-10.2875
-11.1118
-12.0183
-13.0202
-14.1344
-15.3827
-16.7935
-18.4037
-20.2611
-22.4267
-24.9784
-27.9926
-31.4788
-35.6271
-41.7057
-7.36154
-7.91979
-8.51146
-9.15615
-9.85992
-10.6285
-11.4703
-12.3961
-13.4194
-14.5574
-15.8321
-17.2723
-18.9155
-20.8096
-23.0157
-25.6114
-28.6717
-32.2032
-36.3897
-42.4937
-7.63478
-8.20613
-8.80869
-9.46647
-10.185
-10.9697
-11.8292
-12.7744
-13.8192
-14.981
-16.2822
-17.752
-19.4283
-21.3591
-23.6058
-26.2454
-29.3516
-32.928
-37.1519
-43.2815
-7.90759
-8.49183
-9.1053
-9.77633
-10.5098
-11.3107
-12.1879
-13.1526
-14.219
-15.4046
-16.7325
-18.2319
-19.9412
-21.9088
-24.196
-26.8794
-30.0312
-33.6519
-37.9126
-44.0675
-8.17981
-8.77668
-9.40103
-10.0855
-10.834
-11.6512
-12.5461
-13.5303
-14.6182
-15.8278
-17.1822
-18.7113
-20.4536
-22.4579
-24.7854
-27.5124
-30.7094
-34.374
-38.6704
-44.8505
-8.4514
-9.06058
-9.69575
-10.3936
-11.1572
-11.9907
-12.9033
-13.9071
-15.0165
-16.2499
-17.6309
-19.1895
-20.9647
-23.0056
-25.3732
-28.1433
-31.385
-35.0928
-39.4241
-45.6288
-8.72247
-9.34356
-9.98938
-10.7008
-11.4794
-12.3291
-13.2593
-14.2824
-15.4133
-16.6704
-18.0777
-19.6658
-21.4737
-23.5509
-25.9584
-28.7712
-32.057
-35.8073
-40.1723
-46.4009
-8.99331
-9.62578
-10.282
-11.0068
-11.8003
-12.666
-13.6137
-14.656
-15.808
-17.0887
-18.5221
-20.1393
-21.9798
-24.093
-26.5399
-29.395
-32.7243
-36.5163
-40.9138
-47.1656
-9.2644
-9.90754
-10.5737
-11.3116
-12.1198
-13.0012
-13.966
-15.0272
-16.2002
-17.504
-18.9634
-20.6094
-22.4821
-24.6309
-27.1168
-30.0136
-33.3856
-37.2184
-41.6471
-47.9213
-9.53647
-10.1893
-10.8646
-11.6152
-12.4377
-13.3344
-14.3159
-15.3956
-16.5891
-17.9158
-19.4007
-21.0752
-22.9796
-25.1636
-27.688
-30.6258
-34.0397
-37.9124
-42.3711
-48.6668
-9.81028
-10.4713
-11.1548
-11.9174
-12.7535
-13.6649
-14.6628
-15.7605
-16.9741
-18.3233
-19.8332
-21.5359
-23.4716
-25.6902
-28.2525
-31.2304
-34.6855
-38.5971
-43.0845
-49.401
-10.0868
-10.7538
-11.4439
-12.2177
-13.0666
-13.9923
-15.0058
-16.1212
-17.3544
-18.7256
-20.2601
-21.9903
-23.9568
-26.2095
-28.8089
-31.8263
-35.3215
-39.2712
-43.7861
-50.1229
-10.3658
-11.0357
-11.7306
-12.5145
-13.3759
-14.3152
-15.3441
-16.4765
-17.729
-19.1217
-20.6804
-22.4376
-24.4343
-26.7204
-29.3562
-32.4121
-35.9464
-39.9334
-44.475
-50.8318
-10.6465
-11.3145
-12.0123
-12.8063
-13.68
-14.6328
-15.6765
-16.8257
-18.0969
-19.5106
-21.0929
-22.8767
-24.9028
-27.2217
-29.8929
-32.9863
-36.5586
-40.5819
-45.15
-51.5277
-10.9218
-11.5819
-12.2829
-13.0894
-13.9767
-14.9431
-16.0016
-17.1673
-18.4569
-19.8913
-21.4967
-23.3062
-25.3612
-27.7119
-30.4177
-33.5474
-37.1564
-41.215
-45.8097
-52.2121
-11.1729
-11.8178
-12.5379
-13.3651
-14.2667
-15.246
-16.3189
-17.5007
-18.8083
-20.2627
-21.8906
-23.7253
-25.8084
-28.1899
-30.9291
-34.0937
-37.7376
-41.8295
-46.4497
-52.8866
-1.58221
-1.83624
-2.18424
-2.57331
-2.99205
-3.44583
-3.94098
-4.4834
-5.08061
-5.74288
-6.48414
-7.32344
-8.28689
-9.41055
-10.7453
-12.3654
-14.3605
-16.7918
-19.9674
-25.3625
-1.73526
-2.00571
-2.37214
-2.76714
-3.18929
-3.6484
-4.15044
-4.70093
-5.30754
-5.98077
-6.73486
-7.58916
-8.57023
-9.71464
-11.0738
-12.7226
-14.7506
-17.2173
-20.4251
-25.834
-1.88262
-2.17714
-2.55671
-2.95983
-3.38972
-3.8572
-4.36817
-4.92833
-5.5457
-6.23115
-6.99924
-7.8697
-8.86955
-10.0359
-11.4207
-13.0992
-15.1608
-17.6628
-20.9022
-26.3196
-2.05224
-2.35758
-2.74535
-3.15719
-3.59626
-4.07328
-4.59426
-5.16521
-5.79447
-6.49323
-7.27638
-8.16404
-9.18374
-10.3731
-11.7846
-13.4937
-15.5898
-18.1286
-21.4028
-26.8379
-2.23317
-2.5456
-2.9412
-3.36199
-3.81055
-4.29753
-4.82918
-5.41173
-6.05376
-6.76675
-7.5659
-8.47176
-9.5123
-10.7257
-12.1649
-13.9059
-16.0377
-18.6147
-21.9263
-27.3854
-2.41958
-2.74061
-3.14454
-3.57445
-4.03278
-4.5302
-5.0731
-5.66794
-6.32351
-7.05155
-7.86759
-8.79258
-9.85495
-11.0934
-12.5615
-14.3355
-16.5042
-19.1206
-22.4709
-27.9571
-2.61299
-2.94352
-3.3557
-3.79474
-4.26311
-4.77139
-5.32608
-5.93381
-6.6036
-7.34744
-8.1812
-9.1262
-10.2114
-11.4759
-12.9739
-14.782
-16.9889
-19.6458
-23.0356
-28.5506
-2.81479
-3.1548
-3.57501
-4.02317
-4.50179
-5.02126
-5.58816
-6.2093
-6.89391
-7.65423
-8.50646
-9.4723
-10.5812
-11.8727
-13.4017
-15.2451
-17.4912
-20.1897
-23.6198
-29.1647
-3.02476
-3.37431
-3.80251
-4.25984
-4.74887
-5.2798
-5.85929
-6.4943
-7.19427
-7.9717
-8.84309
-9.83056
-10.9639
-12.2835
-13.8445
-15.7241
-18.0106
-20.7516
-24.2227
-29.7985
-3.24231
-3.6017
-4.038
-4.5046
-5.00422
-5.54688
-6.13929
-6.7886
-7.50444
-8.29955
-9.19077
-10.2006
-11.3593
-12.7078
-14.3017
-16.2186
-18.5462
-21.3307
-24.8435
-30.4507
-3.467
-3.83663
-4.28116
-4.75717
-5.26759
-5.82225
-6.42793
-7.09194
-7.82412
-8.63747
-9.54913
-10.582
-11.7669
-13.1451
-14.7727
-16.7278
-19.0976
-21.9264
-25.4814
-31.1205
-3.69844
-4.0787
-4.53163
-5.01719
-5.53864
-6.10558
-6.72486
-7.40396
-8.15294
-8.98506
-9.91776
-10.9743
-12.1861
-13.5948
-15.2571
-17.2512
-19.6641
-22.5379
-26.1355
-31.8066
-3.93618
-4.32743
-4.78895
-5.28427
-5.81698
-6.39648
-7.02968
-7.72427
-8.4905
-9.34187
-10.2962
-11.3771
-12.6164
-14.0563
-15.7541
-17.7881
-20.2448
-23.1643
-26.8049
-32.5083
-4.17968
-4.58231
-5.05262
-5.55791
-6.10214
-6.69449
-7.34195
-8.0524
-8.8363
-9.70742
-10.6839
-11.7898
-13.0572
-14.5292
-16.2632
-18.3378
-20.839
-23.8048
-27.4887
-33.2245
-4.4284
-4.84278
-5.3221
-5.8376
-6.39362
-6.99912
-7.66117
-8.38784
-9.18983
-10.0812
-11.0803
-12.2117
-13.508
-15.0126
-16.7835
-18.8995
-21.446
-24.4587
-28.1862
-33.9543
-4.6818
-5.10827
-5.59684
-6.1228
-6.69089
-7.30984
-7.9868
-8.73006
-9.55053
-10.4625
-11.4848
-12.6423
-13.9681
-15.506
-17.3145
-19.4725
-22.0648
-25.125
-28.8965
-34.6971
-4.93931
-5.37819
-5.87625
-6.41292
-6.99338
-7.62608
-8.31827
-9.07847
-9.91782
-10.8509
-11.8968
-13.0809
-14.4367
-16.0085
-17.8552
-20.0559
-22.6946
-25.8027
-29.6187
-35.4522
-5.20039
-5.65198
-6.15975
-6.70742
-7.30052
-7.94727
-8.65501
-9.43248
-10.2911
-11.2457
-12.3157
-13.5268
-14.9131
-16.5193
-18.4048
-20.6487
-23.3344
-26.4909
-30.352
-36.2193
-5.46449
-5.92904
-6.44675
-7.00569
-7.61172
-8.27281
-8.99641
-9.79149
-10.6697
-11.6461
-12.7406
-13.9793
-15.3965
-17.0377
-18.9624
-21.2499
-23.9829
-27.1883
-31.0954
-36.999
-5.73111
-6.20885
-6.73672
-7.30719
-7.92644
-8.60216
-9.34191
-10.1549
-11.053
-12.0517
-13.1711
-14.4376
-15.8862
-17.5627
-19.5271
-21.8586
-24.6391
-27.8932
-31.846
-37.7919
-1.33458
-1.12806
-0.974457
-0.837895
-0.717987
-0.61219
-0.519391
-0.438797
-0.369906
-0.312361
-0.265894
-0.230295
-0.205393
-0.191049
-0.187124
-0.193412
-0.209704
-0.236128
-0.272818
-0.319626
-1.66447
-1.48122
-1.32364
-1.18186
-1.05712
-0.946865
-0.850105
-0.766043
-0.694165
-0.634095
-0.585552
-0.548311
-0.522191
-0.507038
-0.502709
-0.509033
-0.525858
-0.553186
-0.591052
-0.639306
-1.99708
-1.82171
-1.66416
-1.52123
-1.39437
-1.28193
-1.18322
-1.09755
-1.02444
-0.963532
-0.914559
-0.877293
-0.851549
-0.83717
-0.834008
-0.84191
-0.860756
-0.890502
-0.93106
-0.982497
-2.38092
-2.2039
-2.0433
-1.89742
-1.76699
-1.65105
-1.54913
-1.46067
-1.38526
-1.32256
-1.2723
-1.23425
-1.20823
-1.19407
-1.1916
-1.2007
-1.22123
-1.25312
-1.29627
-1.35067
-2.79978
-2.6203
-2.45575
-2.30594
-2.1713
-2.05131
-1.94565
-1.8539
-1.7757
-1.71076
-1.65881
-1.61963
-1.59302
-1.57882
-1.57686
-1.587
-1.60911
-1.64309
-1.68881
-1.74627
-3.25122
-3.06853
-2.89981
-2.74567
-2.60658
-2.48233
-2.37274
-2.2775
-2.19633
-2.12897
-2.07517
-2.03472
-2.00743
-1.99313
-1.99166
-2.00286
-2.0266
-2.06276
-2.1112
-2.17186
-3.74142
-3.55401
-3.38039
-3.22133
-3.07734
-2.94845
-2.83457
-2.73551
-2.65106
-2.58099
-2.52508
-2.48315
-2.45501
-2.44048
-2.4394
-2.45162
-2.477
-2.51538
-2.56664
-2.63073
-4.27717
-4.08356
-3.90395
-3.7391
-3.58953
-3.45537
-3.33665
-3.23327
-3.14506
-3.07185
-3.01346
-2.96971
-2.94042
-2.92541
-2.92454
-2.93764
-2.96456
-3.00515
-3.05926
-3.12685
-4.86618
-4.66492
-4.47809
-4.30638
-4.15029
-4.01007
-3.88578
-3.77739
-3.68481
-3.6079
-3.54651
-3.50046
-3.46961
-3.45377
-3.45281
-3.46655
-3.49484
-3.53752
-3.59443
-3.66555
-5.51858
-5.3081
-5.11263
-4.93278
-4.76906
-4.62172
-4.49092
-4.37666
-4.27889
-4.19753
-4.13244
-4.08348
-4.0505
-4.03333
-4.03183
-4.04585
-4.07521
-4.11974
-4.17928
-4.25384
-6.24811
-6.02662
-5.82084
-5.6313
-5.45851
-5.30276
-5.16422
-5.04295
-4.93895
-4.85215
-4.78246
-4.72973
-4.69385
-4.67466
-4.672
-4.68573
-4.71568
-4.76165
-4.82349
-4.90124
-7.07351
-6.83889
-6.62078
-6.41966
-6.23604
-6.07021
-5.92238
-5.79264
-5.68103
-5.58751
-5.51199
-5.45438
-5.41455
-5.39236
-5.38766
-5.4003
-5.4301
-5.47688
-5.54045
-5.62091
-8.02051
-7.77021
-7.53734
-7.32231
-7.12564
-6.94764
-6.78854
-6.64846
-6.52746
-6.42552
-6.3426
-6.2786
-6.2334
-6.20689
-6.1989
-6.2093
-6.23791
-6.28451
-6.34893
-6.4313
-9.12464
-8.85559
-8.60497
-8.37316
-8.16068
-7.96788
-7.795
-7.64218
-7.5095
-7.39697
-7.30455
-7.23218
-7.17973
-7.14711
-7.13415
-7.14073
-7.16665
-7.21167
-7.27561
-7.35867
-10.4362
-10.1447
-9.87266
-9.62054
-9.38887
-9.17801
-8.9882
-8.81963
-8.67237
-8.54645
-8.44185
-8.35852
-8.29636
-8.25524
-8.23505
-8.23564
-8.2568
-8.29827
-8.35985
-8.4418
-12.0287
-11.7104
-11.4127
-11.136
-10.8811
-10.6483
-10.4377
-10.2497
-10.0843
-9.94154
-9.82141
-9.72386
-9.64881
-9.59616
-9.56577
-9.5575
-9.57115
-9.60642
-9.66309
-9.74142
-13.9915
-13.6415
-13.3135
-13.0078
-12.7252
-12.4661
-12.2307
-12.0192
-11.8317
-11.6683
-11.5288
-11.4134
-11.3219
-11.2543
-11.2103
-11.19
-11.193
-11.2191
-11.2681
-11.3399
-16.386
-16.0005
-15.6379
-15.2992
-14.9852
-14.6962
-14.4324
-14.194
-13.9811
-13.7936
-13.6316
-13.4952
-13.3841
-13.2984
-13.238
-13.2028
-13.1925
-13.207
-13.2461
-13.3088
-19.523
-19.0977
-18.6962
-18.3211
-17.9726
-17.6509
-17.3558
-17.0874
-16.8457
-16.6307
-16.4424
-16.2807
-16.1457
-16.0373
-15.9554
-15.8998
-15.8705
-15.8678
-15.8914
-15.9394
-24.8601
-24.3898
-23.9539
-23.5493
-23.1739
-22.8268
-22.5075
-22.2158
-21.9518
-21.7154
-21.5067
-21.3258
-21.1726
-21.0474
-20.9501
-20.8809
-20.8405
-20.8311
-20.8542
-20.8993
-0.37642
-0.442884
-0.518978
-0.604623
-0.699734
-0.804205
-0.917904
-1.04067
-1.17228
-1.31248
-1.46088
-1.61696
-1.77993
-1.94855
-2.12119
-2.29555
-2.46717
-2.62624
-2.75739
-2.88699
-0.697979
-0.766718
-0.84545
-0.934065
-1.03246
-1.1405
-1.25804
-1.38489
-1.52082
-1.66551
-1.81856
-1.97941
-2.14729
-2.32104
-2.49903
-2.67964
-2.86107
-3.0356
-3.18802
-3.36008
-1.04465
-1.11724
-1.20018
-1.29336
-1.39665
-1.50991
-1.63296
-1.7656
-1.90756
-2.05852
-2.21805
-2.38558
-2.56038
-2.74141
-2.92731
-3.1169
-3.3092
-3.49984
-3.68309
-3.88888
-1.41625
-1.49269
-1.5799
-1.67775
-1.78608
-1.90475
-2.03356
-2.17228
-2.32062
-2.47824
-2.64471
-2.81946
-3.0018
-3.19081
-3.38543
-3.58478
-3.78805
-3.99294
-4.19994
-4.42943
-1.81537
-1.89582
-1.9875
-2.09025
-2.20393
-2.32835
-2.4633
-2.60854
-2.76377
-2.92863
-3.10268
-3.28539
-3.47611
-3.67407
-3.87843
-4.0886
-4.30396
-4.52347
-4.74977
-4.996
-2.2448
-2.32954
-2.42602
-2.53407
-2.65352
-2.78418
-2.92582
-3.07818
-3.24097
-3.41381
-3.59628
-3.78788
-3.98803
-4.19607
-4.41138
-4.63356
-4.8622
-5.09709
-5.34097
-5.60171
-2.70769
-2.79696
-2.89856
-3.01228
-3.13795
-3.27534
-3.42424
-3.58437
-3.75543
-3.93705
-4.12884
-4.33032
-4.54098
-4.76028
-4.98774
-5.22307
-5.46607
-5.71693
-5.97788
-6.25336
-3.20789
-3.30201
-3.40903
-3.52877
-3.66106
-3.80569
-3.9624
-4.13095
-4.31101
-4.50224
-4.70425
-4.91663
-5.1389
-5.37062
-5.61142
-5.86106
-6.11947
-6.38696
-6.66511
-6.95639
-3.75087
-3.84991
-3.96256
-4.08861
-4.2279
-4.3802
-4.54528
-4.72285
-4.91263
-5.11427
-5.32742
-5.55168
-5.78665
-6.03193
-6.28723
-6.55235
-6.82724
-7.11219
-7.40819
-7.71663
-4.34343
-4.44742
-4.56589
-4.69844
-4.84501
-5.00537
-5.17927
-5.36644
-5.56658
-5.77939
-6.00451
-6.2416
-6.49028
-6.75022
-7.02114
-7.30286
-7.59533
-7.8987
-8.21355
-8.54066
-4.99493
-5.10381
-5.22791
-5.36717
-5.52119
-5.68985
-5.87292
-6.07011
-6.28117
-6.50577
-6.74361
-6.99435
-7.25766
-7.53322
-7.82079
-8.12018
-8.43129
-8.75414
-9.08898
-9.43629
-5.71831
-5.83178
-5.96141
-6.10701
-6.2685
-6.4455
-6.63788
-6.84536
-7.06767
-7.30452
-7.55562
-7.82067
-8.09934
-8.39136
-8.69646
-9.01445
-9.34517
-9.68851
-10.0445
-10.4135
-6.5317
-6.64913
-6.78376
-6.93532
-7.10373
-7.28906
-7.49068
-7.70831
-7.94189
-8.19115
-8.45579
-8.73552
-9.03004
-9.33906
-9.66232
-9.99963
-10.3508
-10.7154
-11.0936
-11.4855
-7.46095
-7.58126
-7.71992
-7.87668
-8.05129
-8.24377
-8.45489
-8.68186
-8.92635
-9.18772
-9.46572
-9.76009
-10.0705
-10.3967
-10.7385
-11.0955
-11.4675
-11.8541
-12.2551
-12.6708
-8.54425
-8.66574
-8.80683
-8.9673
-9.14698
-9.3454
-9.56206
-9.7993
-10.0544
-10.3269
-10.6175
-10.926
-11.252
-11.5952
-11.9552
-12.3318
-12.7246
-13.1333
-13.5574
-13.9972
-9.84152
-9.96166
-10.1027
-10.2646
-10.4472
-10.6501
-10.8728
-11.1155
-11.3782
-11.6615
-11.964
-12.2858
-12.6266
-12.9856
-13.3626
-13.7576
-14.1704
-14.6004
-15.0471
-15.5106
-11.4343
-11.5499
-11.6881
-11.8487
-12.0315
-12.2361
-12.4623
-12.71
-12.9789
-13.2693
-13.5819
-13.9154
-14.2681
-14.6392
-15.03
-15.441
-15.8718
-16.3215
-16.7891
-17.2746
-13.3934
-13.5014
-13.6336
-13.7897
-13.9683
-14.1699
-14.3947
-14.6425
-14.913
-15.2057
-15.52
-15.8561
-16.2157
-16.5993
-17.0053
-17.4322
-17.8796
-18.3473
-18.8343
-19.3395
-16.0097
-16.1016
-16.2176
-16.3591
-16.5273
-16.7216
-16.9412
-17.1855
-17.4544
-17.7473
-18.0638
-18.4034
-18.7665
-19.1536
-19.5645
-19.9987
-20.456
-20.9369
-21.4415
-21.9649
-20.9412
-21.0136
-21.1169
-21.2488
-21.408
-21.5941
-21.8064
-22.0446
-22.3082
-22.5971
-22.9109
-23.2497
-23.6135
-24.0027
-24.4173
-24.8574
-25.324
-25.821
-26.351
-26.8962
-27.4123
-22.4988
-19.8625
-17.778
-15.991
-14.4528
-13.1011
-11.891
-10.7953
-9.79599
-8.87994
-8.03746
-7.26092
-6.54408
-5.88175
-5.26939
-4.70174
-4.17321
-3.69227
-3.28789
-27.9564
-23.049
-20.4011
-18.2963
-16.4856
-14.9217
-13.544
-12.3085
-11.1885
-10.1665
-9.22974
-8.36858
-7.57556
-6.84461
-6.17069
-5.54936
-4.97589
-4.44788
-3.97845
-3.57599
-28.5289
-23.618
-20.957
-18.8308
-16.9949
-15.4043
-13.9995
-12.7375
-11.5925
-10.5472
-9.58912
-8.70878
-7.89879
-7.1531
-6.46664
-5.83488
-5.2532
-4.7193
-4.24275
-3.8208
-29.1259
-24.2065
-21.53
-19.381
-17.5184
-15.8997
-14.4667
-13.1774
-12.0065
-10.9371
-9.95697
-9.05673
-8.22892
-7.46739
-6.76685
-6.12251
-5.5295
-4.98485
-4.49532
-4.05465
-29.744
-24.8139
-22.1196
-19.9464
-18.0556
-16.4073
-14.945
-13.6273
-12.4296
-11.3354
-10.3325
-9.41156
-8.56514
-7.78686
-7.07118
-6.41302
-5.80719
-5.25017
-4.74685
-4.29005
-30.382
-25.4407
-22.7238
-20.526
-18.6056
-16.9264
-15.4336
-14.0865
-12.8612
-11.7413
-10.7149
-9.77262
-8.90689
-8.11114
-7.3796
-6.70689
-6.08761
-5.51787
-5.00129
-4.53042
-31.0385
-26.0854
-23.3423
-21.1187
-19.1675
-17.4562
-15.9317
-14.5543
-13.3004
-12.1541
-11.1036
-10.1394
-9.25384
-8.44015
-7.69234
-7.0048
-6.37195
-5.7897
-5.26055
-4.77701
-31.7123
-26.7459
-23.975
-21.7238
-19.7405
-17.9958
-16.4386
-15.0299
-13.7467
-12.5733
-11.4981
-10.5115
-9.60568
-8.77375
-8.00947
-7.307
-6.66067
-6.06618
-5.52505
-5.02975
-32.402
-27.4209
-24.6209
-22.3404
-20.3237
-18.5445
-16.9535
-15.5126
-14.1993
-12.9982
-11.8978
-10.8884
-9.96208
-9.11172
-8.33087
-7.61351
-6.95382
-6.34733
-5.79461
-5.28814
-33.1065
-28.1091
-25.2791
-22.9677
-20.9162
-19.1013
-17.4755
-16.0016
-14.6575
-13.4282
-12.3021
-11.2696
-10.3226
-9.45372
-8.65627
-7.92405
-7.25111
-6.63278
-6.06872
-5.55146
-33.8244
-28.8095
-25.9484
-23.6046
-21.517
-19.6652
-18.0037
-16.496
-15.1205
-13.8625
-12.7105
-11.6547
-10.6868
-9.79929
-8.98523
-8.2382
-7.55209
-6.922
-6.34676
-5.81891
-34.5546
-29.5209
-26.6278
-24.25
-22.1251
-20.2355
-18.5373
-16.9951
-15.5876
-14.3006
-13.1222
-12.0429
-11.0541
-10.1479
-9.31723
-8.55542
-7.85617
-7.21436
-6.62799
-6.08971
-35.2961
-30.2421
-27.3161
-24.903
-22.7395
-20.811
-19.0753
-17.4979
-16.0581
-14.7415
-13.5367
-12.4337
-11.4238
-10.4989
-9.65167
-8.8751
-8.16273
-7.5092
-6.91172
-6.36309
-36.0478
-30.9722
-28.0121
-25.5623
-23.3591
-21.3908
-19.6168
-18.0036
-16.5309
-15.1846
-13.9531
-12.8263
-11.7953
-10.8518
-9.98792
-9.19659
-8.47112
-7.80583
-7.19722
-6.63833
-36.8084
-31.7097
-28.7145
-26.2267
-23.9828
-21.9737
-20.1608
-18.5113
-17.0053
-15.629
-14.3706
-13.2201
-12.168
-11.2057
-10.3253
-9.51925
-8.78067
-8.10359
-7.48383
-6.91473
-37.5769
-32.4533
-29.422
-26.8952
-24.6094
-22.5587
-20.7063
-19.0199
-17.4804
-16.0739
-14.7886
-13.6142
-12.541
-11.5601
-10.6632
-9.84242
-9.09072
-8.40183
-7.77088
-7.19165
-38.3527
-33.202
-30.1334
-27.5663
-25.2377
-23.1447
-21.252
-19.5285
-17.9552
-16.5184
-15.2062
-14.008
-12.9137
-11.9143
-11.0008
-10.1654
-9.40065
-8.69992
-8.05776
-7.46849
-39.1373
-33.9553
-30.8471
-28.2384
-25.8662
-23.7302
-21.7969
-20.036
-18.4288
-16.9617
-15.6226
-14.4006
-13.2854
-12.2674
-11.3376
-10.4876
-9.70979
-8.99722
-8.34386
-7.74468
-39.9308
-34.7118
-31.5612
-28.9099
-26.4935
-24.3141
-22.34
-20.5414
-18.9003
-17.4028
-16.0369
-14.7912
-13.6552
-12.6189
-11.6728
-10.8083
-10.0175
-9.29315
-8.62861
-8.01972
-40.7206
-35.4668
-32.2741
-29.5799
-27.1191
-24.896
-22.8807
-21.0444
-19.3692
-17.8414
-16.4488
-15.1796
-14.0229
-12.9683
-12.0061
-11.1272
-10.3234
-9.58725
-8.91157
-8.29314
-6.77269
-4.66851
-3.30974
-2.26546
-1.53196
-0.993274
-0.606386
-0.331733
-0.141029
-0.0125608
0.0702715
0.120083
0.146437
0.156483
0.155522
0.147422
0.134991
0.120226
0.104533
0.0888802
0.0739098
0.0600323
0.0474837
0.0363834
0.0267526
0.018571
0.0117447
0.0062097
0.00179543
-0.0015251
-0.00401813
-0.00556994
-0.006638
-0.00679608
-0.00690349
-0.00592806
-0.00550325
-0.00352328
-0.00299031
8.2557e-05
-7.02815
-4.85073
-3.45589
-2.38055
-1.62296
-1.06687
-0.666419
-0.381327
-0.182386
-0.0472979
0.0409523
0.0952616
0.125394
0.13864
0.140408
0.13464
0.124207
0.111154
0.096928
0.0825285
0.0686277
0.0556601
0.0438829
0.0334342
0.0243508