/*--------------------------------*- C++ -*----------------------------------*\
  =========                 |
  \\      /  F ield         | OpenFOAM: The Open Source CFD Toolbox
   \\    /   O peration     | Website:  https://openfoam.org
    \\  /    A nd           | Version:  6.0
     \\/     M anipulation  |
\*---------------------------------------------------------------------------*/
FoamFile
{
    version     2.0;
    format      ascii;
    class       volVectorField;
    location    "8";
    object      U;
}
// * * * * * * * * * * * * * * * * * * * * * * * * * * * * * * * * * * * * * //

dimensions      [0 1 -1 0 0 0 0];

internalField   nonuniform List<vector> 
19200
(
(0.814277 -19.4301 -9.60075e-20)
(0.227206 -18.6339 4.67366e-20)
(0.227381 -17.9562 2.16652e-20)
(0.276941 -17.3563 1.92114e-20)
(0.291239 -16.8096 2.11352e-20)
(0.304836 -16.2953 1.27445e-21)
(0.320374 -15.8016 2.95244e-20)
(0.334767 -15.3225 -2.12216e-21)
(0.347509 -14.8556 2.529e-20)
(0.358687 -14.4003 1.04084e-20)
(0.368375 -13.9568 1.19213e-22)
(0.3767 -13.5258 1.62092e-20)
(0.383828 -13.1079 2.61894e-20)
(0.389935 -12.7034 -1.76379e-20)
(0.395187 -12.3128 2.21989e-20)
(0.399729 -11.936 1.87953e-20)
(0.403686 -11.573 -1.76476e-20)
(0.407163 -11.2235 2.96286e-20)
(0.410245 -10.8872 -1.88008e-20)
(0.413005 -10.5637 9.3135e-21)
(0.415503 -10.2525 1.28505e-20)
(0.417796 -9.95311 -4.14646e-21)
(0.419937 -9.66502 5.57183e-21)
(0.421981 -9.38763 -6.37247e-21)
(0.42398 -9.12024 -1.46179e-22)
(0.42597 -8.86205 3.20741e-21)
(0.427958 -8.61215 -2.17827e-21)
(0.430085 -8.36952 1.29465e-21)
(0.43279 -8.13306 3.01815e-21)
(0.434978 -7.9017 1.14822e-20)
(1.32155 -19.4039 -2.12783e-20)
(0.716313 -18.6316 1.42239e-19)
(0.699216 -17.9602 -7.5523e-20)
(0.73305 -17.363 -1.02058e-19)
(0.733031 -16.8183 -4.55628e-20)
(0.733132 -16.3048 -3.22209e-20)
(0.735656 -15.811 -6.95073e-20)
(0.737377 -15.3314 9.00382e-21)
(0.737743 -14.8636 -1.44176e-20)
(0.736838 -14.4074 -5.03546e-20)
(0.734754 -13.963 -1.22831e-19)
(0.731639 -13.531 5.90427e-20)
(0.727682 -13.1123 -2.20113e-20)
(0.723074 -12.7072 8.31563e-21)
(0.717988 -12.316 -4.89895e-20)
(0.712572 -11.9387 -1.76359e-20)
(0.706946 -11.5753 2.08365e-21)
(0.701207 -11.2255 5.87498e-20)
(0.69543 -10.889 -3.1162e-20)
(0.689674 -10.5653 -1.7118e-20)
(0.683987 -10.254 -6.53093e-20)
(0.67841 -9.9545 1.66788e-20)
(0.672983 -9.6664 -1.02384e-20)
(0.667742 -9.38906 1.79417e-20)
(0.662724 -9.12178 -8.15866e-21)
(0.657943 -8.86377 -1.26045e-20)
(0.653382 -8.61411 4.16069e-21)
(0.649188 -8.37175 6.24617e-21)
(0.645871 -8.13552 -1.11128e-20)
(0.642056 -7.9043 5.16286e-21)
(1.82935 -19.3656 -9.93381e-21)
(1.20519 -18.6168 2.87262e-20)
(1.17111 -17.9517 4.66781e-20)
(1.18952 -17.3576 3.52874e-19)
(1.17532 -16.8152 -2.01944e-19)
(1.16199 -16.3029 1.84418e-19)
(1.15151 -15.8094 1.12635e-19)
(1.14054 -15.3295 8.64163e-20)
(1.12849 -14.8612 -8.04868e-20)
(1.11545 -14.4043 -7.36342e-21)
(1.10155 -13.9592 1.98945e-19)
(1.08695 -13.5267 3.23491e-20)
(1.07186 -13.1075 -9.01178e-20)
(1.0565 -12.702 7.03474e-20)
(1.04104 -12.3105 3.0279e-22)
(1.02564 -11.9331 2.91854e-20)
(1.01041 -11.5696 2.06328e-20)
(0.995442 -11.2197 6.83944e-20)
(0.980793 -10.8832 -3.03048e-20)
(0.966512 -10.5595 -9.93865e-21)
(0.952633 -10.2483 -2.52152e-20)
(0.939182 -9.94898 1.10809e-19)
(0.926183 -9.66106 -9.20001e-20)
(0.913659 -9.38396 2.9708e-20)
(0.901631 -9.11699 1.32755e-20)
(0.890089 -8.85936 -5.41632e-20)
(0.878989 -8.61013 7.16604e-20)
(0.868492 -8.36824 -7.73756e-21)
(0.859163 -8.13242 -7.96939e-21)
(0.849316 -7.90157 -5.26733e-20)
(2.33534 -19.3144 -3.4099e-19)
(1.6931 -18.5893 -3.03411e-19)
(1.64257 -17.931 -3.68077e-19)
(1.64593 -17.3403 1.19508e-20)
(1.61777 -16.8006 2.28745e-20)
(1.59109 -16.2897 -4.05202e-19)
(1.56763 -15.7967 1.92778e-20)
(1.54396 -15.3169 5.16296e-20)
(1.51946 -14.8484 -9.32119e-21)
(1.49425 -14.3912 8.56295e-20)
(1.46848 -13.9458 -3.37172e-19)
(1.44235 -13.513 -2.05476e-19)
(1.4161 -13.0935 7.74212e-20)
(1.38996 -12.6879 1.48774e-19)
(1.36412 -12.2964 -1.72558e-19)
(1.33872 -11.9191 -2.66045e-20)
(1.31387 -11.5558 -9.96384e-20)
(1.28966 -11.2061 -4.61904e-20)
(1.26613 -10.8698 7.6716e-20)
(1.24332 -10.5465 -9.73901e-20)
(1.22125 -10.2355 8.3658e-20)
(1.19992 -9.93658 -9.89525e-20)
(1.17936 -9.64906 -7.64493e-20)
(1.15956 -9.37239 -5.41141e-20)
(1.14053 -9.10591 -1.59704e-20)
(1.12224 -8.84883 -1.09352e-19)
(1.10463 -8.60024 1.13474e-20)
(1.08785 -8.35899 1.91049e-20)
(1.07253 -8.1238 -5.48025e-20)
(1.05663 -7.89353 1.18615e-20)
(2.84004 -19.2505 -2.01142e-19)
(2.18032 -18.5495 2.91963e-20)
(2.11357 -17.8981 2.5533e-19)
(2.10208 -17.3111 2.63449e-19)
(2.0601 -16.7743 1.88037e-19)
(2.02014 -16.2652 7.72522e-20)
(1.98372 -15.773 1.17853e-19)
(1.94733 -15.2935 5.30525e-19)
(1.91036 -14.8252 -3.17758e-19)
(1.87295 -14.3679 9.61232e-21)
(1.83528 -13.9225 7.5478e-20)
(1.79759 -13.4897 3.15347e-19)
(1.76016 -13.0704 -2.12537e-19)
(1.72322 -12.665 1.50573e-19)
(1.68697 -12.2738 -1.64436e-19)
(1.65156 -11.8968 2.80059e-19)
(1.61709 -11.5339 -8.20551e-20)
(1.58363 -11.1847 3.08511e-21)
(1.55123 -10.8489 1.27954e-19)
(1.5199 -10.5261 8.81692e-20)
(1.48964 -10.2157 -8.98655e-20)
(1.46045 -9.91729 1.19716e-19)
(1.43233 -9.63036 -5.34536e-20)
(1.40527 -9.35432 6.17109e-20)
(1.37925 -9.08852 8.11216e-20)
(1.35424 -8.83219 2.87681e-20)
(1.33013 -8.58439 8.73996e-20)
(1.3071 -8.344 -3.25223e-20)
(1.28582 -8.10962 -1.09488e-20)
(1.26386 -7.88015 -4.91373e-20)
(3.34294 -19.1736 -1.44979e-19)
(2.66648 -18.4972 -9.49115e-20)
(2.5838 -17.853 -2.85932e-19)
(2.55766 -17.27 -7.36186e-19)
(2.50201 -16.7364 2.4851e-19)
(2.44884 -16.2293 1.56862e-20)
(2.39949 -15.7383 -1.63261e-19)
(2.35037 -15.2595 3.00025e-20)
(2.30091 -14.7915 -2.45425e-20)
(2.25127 -14.3345 -3.99638e-19)
(2.20167 -13.8894 1.68212e-19)
(2.15241 -13.457 2.83177e-19)
(2.10377 -13.0381 1.03075e-21)
(2.05602 -12.6332 1.02161e-19)
(2.00936 -12.2426 2.48358e-19)
(1.96393 -11.8662 -1.69657e-19)
(1.91985 -11.504 2.94383e-19)
(1.87716 -11.1555 -1.39045e-19)
(1.83588 -10.8205 2.42688e-19)
(1.79604 -10.4984 -1.81228e-19)
(1.7576 -10.1888 7.97382e-20)
(1.72057 -9.89112 2.04752e-19)
(1.68491 -9.60497 9.65892e-21)
(1.6506 -9.32976 -1.87228e-19)
(1.61762 -9.06483 1.04093e-19)
(1.58591 -8.80942 1.16098e-20)
(1.55533 -8.56262 -3.23429e-20)
(1.52609 -8.32326 1.21932e-19)
(1.49888 -8.08988 4.184e-20)
(1.47088 -7.86145 -4.17925e-20)
(3.84379 -19.0839 4.05305e-19)
(3.15137 -18.4324 -1.16843e-20)
(3.05305 -17.7958 -5.76923e-19)
(3.01241 -17.217 1.18597e-19)
(2.94322 -16.687 -1.59015e-19)
(2.87691 -16.1822 1.20004e-19)
(2.81463 -15.6926 2.53921e-19)
(2.75279 -15.2147 4.52811e-19)
(2.69082 -14.7474 -4.82969e-19)
(2.62893 -14.291 1.18777e-19)
(2.56739 -13.8465 -7.94077e-20)
(2.50654 -13.4147 5.76815e-20)
(2.44669 -12.9966 -2.57938e-19)
(2.38812 -12.5925 -1.56886e-20)
(2.33105 -12.2027 4.01446e-19)
(2.27562 -11.8273 -2.77045e-19)
(2.22192 -11.466 -1.72121e-19)
(2.17001 -11.1186 -1.21943e-19)
(2.11989 -10.7845 2.21818e-19)
(2.07154 -10.4634 4.64368e-20)
(2.02495 -10.1547 -2.13081e-19)
(1.98008 -9.85807 2.79518e-19)
(1.9369 -9.57291 -2.51403e-19)
(1.89538 -9.2987 1.63251e-19)
(1.85547 -9.03483 -9.26727e-20)
(1.81708 -8.78053 5.84709e-20)
(1.78008 -8.53491 4.28261e-20)
(1.74467 -8.29677 -1.93768e-19)
(1.71158 -8.06459 8.24501e-20)
(1.67753 -7.83742 1.13828e-21)
(4.34224 -18.9811 -3.945e-19)
(3.63467 -18.3551 3.21125e-19)
(3.521 -17.7264 -5.8231e-19)
(3.46605 -17.1521 1.11143e-18)
(3.38342 -16.6259 -3.08925e-19)
(3.30404 -16.1237 4.29965e-19)
(3.22886 -15.6358 -9.50968e-21)
(3.1543 -15.1591 -6.21036e-20)
(3.07981 -14.6929 -8.31829e-20)
(3.00565 -14.2374 5.30125e-22)
(2.93216 -13.7938 -3.15299e-19)
(2.85971 -13.363 1.65662e-19)
(2.78865 -12.9459 -1.93709e-19)
(2.71927 -12.5429 -1.5912e-20)
(2.6518 -12.1543 -5.31488e-19)
(2.58638 -11.7801 1.74757e-19)
(2.52309 -11.42 9.73264e-20)
(2.46197 -11.0738 -1.11393e-19)
(2.40302 -10.741 -1.32983e-20)
(2.3462 -10.4211 -1.6576e-19)
(2.29148 -10.1136 -5.84336e-20)
(2.23881 -9.81815 4.20878e-21)
(2.18814 -9.53418 -1.40066e-19)
(2.13942 -9.26118 -2.04685e-19)
(2.0926 -8.99854 9.30204e-21)
(2.04759 -8.74554 -2.33749e-20)
(2.0042 -8.50127 6.23656e-20)
(1.96268 -8.26454 -1.52222e-19)
(1.92375 -8.03374 1.28305e-19)
(1.88369 -7.80806 -2.41725e-19)
(4.83797 -18.8655 -9.71514e-19)
(4.1161 -18.2653 1.15966e-18)
(3.98737 -17.6449 -1.2129e-18)
(3.91828 -17.0754 -3.23704e-19)
(3.82234 -16.5532 -2.02057e-19)
(3.72994 -16.0538 -2.19713e-19)
(3.64189 -15.568 -2.00652e-19)
(3.55461 -15.0929 -4.51196e-20)
(3.46759 -14.6279 -2.01378e-19)
(3.38116 -14.1737 -3.91034e-20)
(3.29572 -13.7313 3.23278e-19)
(3.21167 -13.3018 -1.88547e-19)
(3.1294 -12.886 -2.15564e-19)
(3.04922 -12.4844 -3.56356e-19)
(2.97137 -12.0973 7.4538e-19)
(2.89598 -11.7246 -2.82784e-19)
(2.82313 -11.366 1.04701e-19)
(2.75283 -11.0213 -3.84475e-19)
(2.68508 -10.6899 1.48672e-19)
(2.61982 -10.3715 -5.86217e-20)
(2.557 -10.0655 7.5613e-20)
(2.49655 -9.77139 -2.43693e-20)
(2.43842 -9.48881 2.26661e-19)
(2.38255 -9.21721 -7.9488e-20)
(2.32887 -8.95599 2.17695e-19)
(2.27725 -8.70446 -4.00542e-20)
(2.22753 -8.46173 2.7898e-19)
(2.17995 -8.22657 7.44348e-20)
(2.13525 -7.99736 1.38021e-19)
(2.08921 -7.77339 -4.23728e-19)
(5.33065 -18.7371 1.53332e-18)
(4.59531 -18.1631 -2.97269e-19)
(4.45186 -17.5512 5.19806e-19)
(4.3688 -16.9869 -1.44661e-19)
(4.25967 -16.469 5.10519e-19)
(4.15431 -15.9727 4.75161e-19)
(4.05342 -15.4891 5.30236e-19)
(3.95342 -15.0159 -4.0974e-20)
(3.85388 -14.5526 -4.97558e-19)
(3.75518 -14.0999 7.29175e-19)
(3.65778 -13.6591 -5.12023e-20)
(3.56214 -13.2312 5.01052e-19)
(3.46868 -12.817 1.7936e-19)
(3.37773 -12.4172 6.68157e-20)
(3.28952 -12.0318 1.0084e-19)
(3.20419 -11.6608 1.40872e-19)
(3.1218 -11.304 2.291e-19)
(3.04237 -10.961 -6.42331e-20)
(2.96585 -10.6314 3.30287e-19)
(2.89218 -10.3146 1.48548e-19)
(2.8213 -10.0103 -3.08645e-19)
(2.75311 -9.71782 5.41653e-19)
(2.68756 -9.43682 -7.0778e-19)
(2.62457 -9.1668 6.61609e-19)
(2.56406 -8.90718 -2.17323e-19)
(2.5059 -8.6573 4.27138e-20)
(2.4499 -8.41629 -2.78789e-19)
(2.39632 -8.1829 1.55997e-19)
(2.34591 -7.95545 5.44541e-20)
(2.29395 -7.73344 -6.47611e-20)
(5.81994 -18.5959 -8.68286e-19)
(5.072 -18.0484 8.30231e-19)
(4.91416 -17.4454 -2.25361e-19)
(4.81732 -16.8865 6.41118e-19)
(4.69511 -16.3731 6.4018e-20)
(4.57686 -15.8803 1.28142e-19)
(4.46315 -15.3993 -1.07074e-18)
(4.35045 -14.9282 -1.87483e-19)
(4.23839 -14.4668 6.71399e-19)
(4.12743 -14.0161 4.96881e-19)
(4.01808 -13.5771 -8.44375e-19)
(3.91087 -13.1511 4.85823e-19)
(3.80624 -12.739 -4.81974e-19)
(3.70454 -12.3411 3.23873e-19)
(3.60601 -11.9577 -5.41311e-19)
(3.51077 -11.5888 -3.9399e-19)
(3.4189 -11.234 2.7419e-20)
(3.33036 -10.8931 -1.7454e-19)
(3.24512 -10.5654 3.1375e-19)
(3.16309 -10.2506 1.23407e-19)
(3.08418 -9.94807 -8.09312e-20)
(3.0083 -9.65745 -2.30353e-20)
(2.93537 -9.37824 9.0896e-20)
(2.8653 -9.10999 -3.06426e-19)
(2.79802 -8.85216 5.00136e-19)
(2.73337 -8.6041 -1.23048e-19)
(2.67114 -8.36499 -8.13095e-21)
(2.61163 -8.13355 4.22048e-19)
(2.55559 -7.90804 5.3765e-20)
(2.49775 -7.6882 -5.89775e-20)
(6.30551 -18.442 3.5698e-20)
(5.54584 -17.9213 -4.72404e-19)
(5.37395 -17.3275 -4.23679e-19)
(5.26351 -16.7743 -6.97364e-19)
(5.12835 -16.2658 2.53145e-20)
(4.99728 -15.7766 -4.84365e-19)
(4.87079 -15.2985 5.7571e-19)
(4.7454 -14.8299 -5.85845e-20)
(4.62083 -14.3708 4.43364e-19)
(4.49762 -13.9222 -3.74397e-19)
(4.37636 -13.4855 -1.87115e-19)
(4.25759 -13.0617 1.0137e-19)
(4.14182 -12.6518 5.41621e-20)
(4.02941 -12.2562 -5.38344e-19)
(3.92059 -11.8752 3.15804e-19)
(3.8155 -11.5086 -1.51176e-19)
(3.71418 -11.1561 4.32626e-19)
(3.61659 -10.8174 -1.40203e-19)
(3.52268 -10.492 1.45039e-19)
(3.43233 -10.1793 3.55449e-20)
(3.34545 -9.87892 2.40932e-19)
(3.26192 -9.59033 -4.97359e-20)
(3.18165 -9.31311 3.87707e-19)
(3.10456 -9.04682 -4.31142e-19)
(3.03055 -8.79095 -1.43702e-19)
(2.95946 -8.54489 1.1589e-19)
(2.89107 -8.30785 -1.16448e-20)
(2.82571 -8.07854 -1.97409e-19)
(2.7641 -7.85516 1.57925e-19)
(2.70048 -7.63773 -1.81271e-19)
(6.78703 -18.2755 1.45271e-18)
(6.01651 -17.7818 3.8508e-19)
(5.83091 -17.1976 4.60486e-19)
(5.70707 -16.6503 6.07422e-19)
(5.55909 -16.1469 9.06723e-19)
(5.41526 -15.6617 -2.84934e-20)
(5.27603 -15.1867 1.33496e-19)
(5.13799 -14.7209 9.7503e-19)
(5.00093 -14.2644 -2.03167e-19)
(4.86549 -13.8183 -3.52254e-19)
(4.73232 -13.3841 6.11206e-19)
(4.60204 -12.9629 9.90766e-20)
(4.47517 -12.5556 5.12801e-21)
(4.35209 -12.1626 1.43808e-19)
(4.23304 -11.7842 2.49161e-19)
(4.11814 -11.4202 -5.04558e-19)
(4.00742 -11.0703 4.27669e-19)
(3.90084 -10.7342 7.01324e-20)
(3.7983 -10.4112 4.04579e-19)
(3.69969 -10.1009 -2.20318e-19)
(3.60489 -9.80284 3.5455e-19)
(3.51377 -9.5165 -3.74406e-19)
(3.42623 -9.24147 3.57503e-19)
(3.34216 -8.97732 4.68422e-20)
(3.26148 -8.72359 -2.36925e-19)
(3.184 -8.47971 -7.43381e-20)
(3.10953 -8.24491 4.38729e-19)
(3.03838 -8.01789 3.17538e-19)
(2.97131 -7.79684 8.29818e-20)
(2.90197 -7.58204 -5.44225e-20)
(7.26417 -18.0965 1.43853e-19)
(6.4837 -17.6301 3.27319e-19)
(6.28474 -17.0557 1.32795e-18)
(6.14769 -16.5146 -2.16519e-18)
(5.98701 -16.0166 -2.08076e-19)
(5.83051 -15.5356 -2.3004e-19)
(5.67858 -15.0641 1.02229e-19)
(5.52791 -14.6013 1.28998e-19)
(5.37839 -14.1477 2.13559e-19)
(5.23075 -13.7045 -5.72567e-19)
(5.08572 -13.2732 -1.04191e-19)
(4.94396 -12.8548 3.12326e-19)
(4.80603 -12.4504 3.27913e-19)
(4.67233 -12.0603 -3.30834e-19)
(4.5431 -11.6848 -3.16617e-19)
(4.41846 -11.3237 5.19918e-19)
(4.2984 -10.9767 3.30203e-19)
(4.18288 -10.6433 -8.89566e-20)
(4.07179 -10.3231 -2.0845e-19)
(3.96497 -10.0154 3.55157e-20)
(3.86231 -9.71989 -4.64772e-19)
(3.76365 -9.43601 5.5411e-19)
(3.66888 -9.16336 -3.75662e-19)
(3.5779 -8.90155 -1.39986e-20)
(3.49061 -8.65014 2.41339e-19)
(3.40682 -8.4086 -7.4482e-20)
(3.32631 -8.17621 -2.20753e-19)
(3.24948 -7.95166 2.72169e-19)
(3.17703 -7.73312 -8.19136e-21)
(3.10206 -7.52119 4.22058e-20)
(7.7366 -17.9051 -1.12161e-19)
(6.94706 -17.4662 -3.48925e-19)
(6.73512 -16.9018 -1.52554e-18)
(6.58505 -16.3672 5.51218e-19)
(6.41182 -15.8748 -1.61501e-19)
(6.24273 -15.3983 5.34262e-19)
(6.07814 -14.9306 3.86145e-20)
(5.91487 -14.4712 -5.92932e-19)
(5.75293 -14.0209 8.87458e-19)
(5.59313 -13.5808 -7.95472e-19)
(5.43627 -13.1526 -2.75443e-20)
(5.28308 -12.7375 1.86313e-19)
(5.13415 -12.3363 -3.20486e-19)
(4.98989 -11.9494 3.55887e-19)
(4.85054 -11.5771 -6.773e-19)
(4.71621 -11.2192 -1.46835e-19)
(4.58689 -10.8753 4.02535e-19)
(4.4625 -10.5449 1.33618e-21)
(4.34291 -10.2276 -2.42507e-19)
(4.22796 -9.92287 6.58508e-19)
(4.1175 -9.63011 -3.53621e-19)
(4.01136 -9.3489 -4.63853e-19)
(3.90944 -9.07885 1.52347e-19)
(3.8116 -8.81956 -4.3696e-19)
(3.71775 -8.57064 -1.02e-19)
(3.62771 -8.33161 -1.15226e-20)
(3.54126 -8.1018 -2.71616e-19)
(3.45882 -7.8799 3.26349e-19)
(3.38109 -7.66403 -1.78139e-19)
(3.30062 -7.45522 1.92432e-19)
(8.204 -17.7014 -5.11127e-19)
(7.4063 -17.2902 -1.38388e-18)
(7.18174 -16.7361 6.53522e-19)
(7.01886 -16.2082 -6.14653e-19)
(6.8332 -15.7216 -4.48637e-19)
(6.65159 -15.2499 -2.52178e-19)
(6.47441 -14.7863 -9.25268e-19)
(6.2986 -14.3306 6.24384e-19)
(6.12426 -13.8838 -1.51596e-18)
(5.95234 -13.4473 -5.33996e-19)
(5.78371 -13.0226 2.0037e-19)
(5.61915 -12.611 3.19565e-19)
(5.45928 -12.2133 -8.80696e-21)
(5.30452 -11.8299 -5.93184e-19)
(5.15512 -11.4611 1.37533e-19)
(5.01118 -11.1066 -5.19385e-19)
(4.87266 -10.7661 -3.66839e-19)
(4.73947 -10.4391 -2.14252e-19)
(4.61146 -10.125 -3.80699e-20)
(4.48844 -9.82331 3.68457e-19)
(4.37025 -9.53355 5.1548e-19)
(4.25671 -9.25524 -1.52494e-19)
(4.14768 -8.98798 -1.42394e-19)
(4.04305 -8.7314 2.77403e-19)
(3.94272 -8.48516 1.51863e-19)
(3.84649 -8.24881 -1.20055e-19)
(3.75417 -8.02174 -1.305e-19)
(3.66622 -7.80265 1.57599e-20)
(3.58332 -7.58964 1.32727e-19)
(3.49745 -7.38418 1.69203e-19)
(8.66604 -17.4855 -9.15714e-20)
(7.86109 -17.1021 1.72946e-18)
(7.62428 -16.5586 1.30794e-18)
(7.4488 -16.0377 1.00424e-18)
(7.25085 -15.5572 -6.4988e-19)
(7.05682 -15.0905 -1.29137e-19)
(6.8671 -14.6312 1.21357e-19)
(6.67878 -14.1796 7.85166e-19)
(6.49211 -13.7367 2.9082e-19)
(6.30812 -13.304 6.95339e-19)
(6.12777 -12.8831 -9.5231e-19)
(5.9519 -12.4753 1.00475e-19)
(5.78116 -12.0814 3.78653e-19)
(5.61598 -11.7019 2.2491e-19)
(5.45661 -11.3369 4.5967e-19)
(5.30312 -10.9861 -3.17405e-19)
(5.15548 -10.6492 -2.85582e-19)
(5.01357 -10.3258 5.83687e-20)
(4.87721 -10.0151 5.94061e-19)
(4.7462 -9.71682 -9.50404e-19)
(4.62035 -9.43028 3.30175e-19)
(4.49947 -9.15508 -1.58318e-21)
(4.38341 -8.89081 5.99092e-19)
(4.27206 -8.63714 -2.60144e-19)
(4.1653 -8.39375 -1.5309e-20)
(4.06297 -8.16026 -1.58548e-19)
(3.96486 -7.93609 1.49708e-19)
(3.87148 -7.71997 3.636e-20)
(3.78352 -7.51 -1.57769e-19)
(3.69238 -7.30811 5.04088e-19)
(9.12241 -17.2576 -1.83747e-18)
(8.31112 -16.9021 -1.04588e-18)
(8.06245 -16.3694 -2.63461e-18)
(7.87457 -15.8557 -1.16728e-18)
(7.66446 -15.3815 1.0831e-18)
(7.45809 -14.9202 -6.21381e-19)
(7.2559 -14.4655 -1.3905e-19)
(7.05514 -14.0182 -3.96759e-19)
(6.85619 -13.5795 6.68536e-19)
(6.66018 -13.151 -1.48072e-19)
(6.46818 -12.7343 -2.32503e-19)
(6.28107 -12.3306 -2.88505e-20)
(6.09953 -11.9409 -9.08513e-19)
(5.92402 -11.5655 -2.73897e-20)
(5.75475 -11.2045 2.43153e-19)
(5.59181 -10.8577 -2.47233e-20)
(5.43514 -10.5247 -8.87336e-19)
(5.28458 -10.2051 8.54493e-19)
(5.13995 -9.89817 -8.24955e-19)
(5.00103 -9.60343 3.19197e-19)
(4.86759 -9.32035 4.44946e-20)
(4.73944 -9.04847 1.80013e-20)
(4.61642 -8.78741 -3.22406e-19)
(4.49841 -8.53685 1.05058e-19)
(4.3853 -8.29649 -3.84508e-22)
(4.27693 -8.06602 3.2813e-20)
(4.17311 -7.84492 -7.58117e-19)
(4.0744 -7.63194 2.08925e-19)
(3.9815 -7.42518 2.18636e-19)
(3.88524 -7.22711 2.21964e-19)
(9.5728 -17.0177 3.55384e-18)
(8.75608 -16.6904 1.17508e-18)
(8.49594 -16.1686 6.76052e-19)
(8.29586 -15.6623 1.06925e-18)
(8.07373 -15.1947 -1.30678e-19)
(7.85513 -14.7389 7.71579e-19)
(7.64053 -14.2893 1.68789e-18)
(7.42739 -13.8466 -2.19921e-19)
(7.21621 -13.4124 8.88973e-20)
(7.00827 -12.9884 1.883e-18)
(6.80469 -12.5761 -2.52758e-19)
(6.60642 -12.1769 2.50738e-19)
(6.41417 -11.7916 -8.70708e-20)
(6.22839 -11.4206 8.37808e-22)
(6.04932 -11.064 1.25892e-18)
(5.87702 -10.7215 4.88319e-20)
(5.71139 -10.3927 1.29503e-18)
(5.55228 -10.0771 -1.68763e-19)
(5.39946 -9.77414 -2.70864e-19)
(5.2527 -9.48322 6.27243e-19)
(5.11176 -9.20383 -5.63825e-19)
(4.97642 -8.93549 6.14431e-19)
(4.84651 -8.67784 3.25117e-19)
(4.72191 -8.43058 -2.57882e-19)
(4.60252 -8.19344 3.901e-19)
(4.48817 -7.96616 4.53686e-20)
(4.37872 -7.7483 -1.53576e-19)
(4.27478 -7.53862 8.85945e-20)
(4.17704 -7.33525 5.51127e-19)
(4.07583 -7.14123 7.92228e-20)
(10.0169 -16.7662 -6.11703e-19)
(9.19569 -16.4669 -1.18461e-18)
(8.92446 -15.9563 4.70337e-19)
(8.71237 -15.4576 -1.89791e-18)
(8.47837 -14.9968 8.79171e-19)
(8.24762 -14.5469 -1.58996e-18)
(8.0207 -14.1025 -1.01592e-18)
(7.79524 -13.6648 2.8135e-19)
(7.57192 -13.2355 2.56837e-19)
(7.3521 -12.8162 -1.30922e-18)
(7.13702 -12.4087 -5.52026e-19)
(6.92768 -12.0143 2.41648e-19)
(6.72481 -11.6338 -6.80398e-19)
(6.52887 -11.2675 -2.64443e-19)
(6.3401 -10.9155 -1.74053e-19)
(6.15851 -10.5775 -1.73835e-19)
(5.98403 -10.2532 -7.07628e-19)
(5.81645 -9.94189 -4.32816e-19)
(5.65553 -9.64311 8.24851e-20)
(5.50102 -9.35625 1.3938e-19)
(5.35264 -9.08076 1.41165e-19)
(5.21018 -8.81619 -4.97735e-19)
(5.07346 -8.56216 1.81932e-19)
(4.94233 -8.3184 -3.75077e-19)
(4.81672 -8.08466 3.43003e-19)
(4.69647 -7.86076 -4.52705e-19)
(4.58146 -7.6463 1.35283e-19)
(4.47239 -7.44009 -2.19095e-19)
(4.36993 -7.24029 -3.01397e-19)
(4.26392 -7.05057 -2.92102e-20)
(10.4544 -16.503 -1.27204e-18)
(9.62965 -16.232 -1.05668e-18)
(9.34772 -15.7327 -1.01567e-18)
(9.12382 -15.2417 -7.21823e-19)
(8.87806 -14.788 2.23124e-18)
(8.63527 -14.3442 2.98927e-19)
(8.39611 -13.9053 9.18288e-19)
(8.15841 -13.4729 1.37534e-18)
(7.92302 -13.0487 6.42973e-19)
(7.69142 -12.6346 -8.56845e-19)
(7.46494 -12.2323 1.32664e-18)
(7.24462 -11.8429 -1.28455e-18)
(7.03122 -11.4674 1.1846e-18)
(6.82522 -11.1061 1.31384e-19)
(6.62684 -10.759 2.9151e-19)
(6.43608 -10.4259 9.51325e-20)
(6.25283 -10.1062 1.14329e-18)
(6.07687 -9.7995 -1.701e-19)
(5.90794 -9.50514 1.46517e-19)
(5.74575 -9.22256 4.88562e-19)
(5.59003 -8.95121 -5.40755e-19)
(5.44052 -8.69062 4.20273e-19)
(5.29704 -8.44044 1.24552e-20)
(5.15946 -8.20037 1.84274e-19)
(5.02769 -7.97024 3.30822e-19)
(4.9016 -7.74988 -5.76376e-20)
(4.78111 -7.539 3.20193e-19)
(4.66698 -7.33642 4.51538e-19)
(4.55991 -7.14038 -4.91525e-19)
(4.44927 -6.95521 -2.7533e-19)
(10.8851 -16.2284 3.67479e-18)
(10.0577 -15.9856 -3.88849e-19)
(9.76543 -15.4978 7.83772e-19)
(9.52991 -15.0148 1.41236e-18)
(9.27254 -14.5683 -3.97779e-18)
(9.0178 -14.1309 4.18102e-19)
(8.76648 -13.6978 -1.45442e-18)
(8.51663 -13.271 1.40722e-18)
(8.26925 -12.8524 -1.11224e-18)
(8.02596 -12.4437 5.73859e-19)
(7.78817 -12.0468 -2.09394e-18)
(7.55697 -11.6628 7.68788e-20)
(7.33317 -11.2927 -6.53038e-19)
(7.11721 -10.9366 9.86065e-19)
(6.90932 -10.5947 -1.03529e-18)
(6.70949 -10.2666 -5.74879e-20)
(6.51757 -9.95189 -8.07093e-19)
(6.33333 -9.64998 -6.01914e-20)
(6.15648 -9.36029 5.88909e-20)
(5.9867 -9.08222 1.66831e-19)
(5.8237 -8.81523 -9.44726e-19)
(5.66721 -8.55885 -2.63845e-20)
(5.51705 -8.31271 -5.1211e-19)
(5.37306 -8.07656 -1.19562e-19)
(5.23519 -7.85023 -3.04414e-19)
(5.10332 -7.63361 -3.2625e-19)
(4.9774 -7.42648 -3.31201e-19)
(4.85829 -7.22771 5.51055e-19)
(4.74672 -7.0356 1.44583e-19)
(4.63163 -6.85521 -2.62513e-19)
(11.3087 -15.9426 -2.44479e-18)
(10.4796 -15.7281 8.57945e-19)
(10.1773 -15.2518 -1.42873e-18)
(9.93035 -14.7769 2.1436e-19)
(9.66149 -14.3378 2.23479e-18)
(9.39491 -13.907 -1.12297e-18)
(9.13153 -13.4801 -1.13177e-18)
(8.86961 -13.0593 -9.63553e-19)
(8.61033 -12.6464 5.18433e-20)
(8.35546 -12.2435 6.02018e-19)
(8.10647 -11.8523 -4.23172e-19)
(7.86451 -11.4741 2.876e-20)
(7.6304 -11.1096 1.25035e-18)
(7.40461 -10.7591 -6.27514e-19)
(7.18733 -10.4226 1.54267e-19)
(6.97853 -10.0998 -4.88361e-19)
(6.77805 -9.79029 1.84718e-19)
(6.58563 -9.49341 3.96918e-19)
(6.40093 -9.20861 4.28395e-19)
(6.22364 -8.93527 -4.69142e-19)
(6.05344 -8.67286 7.31833e-20)
(5.89004 -8.4209 3.87894e-19)
(5.73324 -8.17904 6.61835e-19)
(5.58291 -7.94701 1.65317e-19)
(5.43898 -7.72468 -6.63232e-19)
(5.30137 -7.51201 7.59249e-19)
(5.17008 -7.30883 -3.78605e-19)
(5.04606 -7.11404 -4.42083e-19)
(4.93008 -6.92605 -2.68115e-19)
(4.81074 -6.75069 -3.35423e-19)
(11.725 -15.6456 1.27461e-18)
(10.895 -15.4595 -9.74618e-19)
(10.5831 -14.9948 3.81372e-19)
(10.3249 -14.5281 1.89836e-18)
(10.0446 -14.0967 5.02652e-19)
(9.76632 -13.6728 -4.23752e-19)
(9.49097 -13.2524 1.01622e-18)
(9.21708 -12.8377 2.48564e-19)
(8.94601 -12.431 9.12691e-19)
(8.67966 -12.0342 4.94808e-19)
(8.41959 -11.6491 2.18325e-20)
(8.167 -11.2768 2.99587e-19)
(7.92271 -10.9183 -9.4042e-20)
(7.68721 -10.5736 1.60065e-19)
(7.46065 -10.2428 4.2874e-19)
(7.24301 -9.9256 -2.33435e-19)
(7.03407 -9.62146 5.63909e-19)
(6.83355 -9.32985 5.6368e-19)
(6.64111 -9.05015 -6.34372e-19)
(6.45639 -8.78176 6.45835e-19)
(6.27904 -8.52414 1.34248e-18)
(6.10879 -8.27681 -8.57898e-19)
(5.9454 -8.03943 8.44134e-19)
(5.78874 -7.81174 -5.90523e-19)
(5.63878 -7.59364 -8.04429e-20)
(5.49545 -7.38512 6.08037e-19)
(5.35882 -7.1861 -1.25225e-19)
(5.22994 -6.9955 4.44521e-19)
(5.10966 -6.81186 4.34244e-19)
(4.98625 -6.64187 -8.08873e-19)
(12.1338 -15.3378 -1.22495e-18)
(11.3039 -15.1799 5.58482e-19)
(10.9825 -14.7268 2.2176e-19)
(10.7132 -14.2685 -2.19681e-18)
(10.4217 -13.8451 -1.10962e-18)
(10.1317 -13.4284 8.14636e-19)
(9.84452 -13.0146 -2.22148e-18)
(9.55877 -12.6065 2.62953e-18)
(9.27603 -12.2063 -1.45872e-18)
(8.99832 -11.8159 1.72172e-19)
(8.72729 -11.4371 -2.78162e-19)
(8.4642 -11.0712 -7.8132e-19)
(8.20988 -10.7188 1.5939e-18)
(7.96479 -10.3803 5.83123e-19)
(7.72909 -10.0554 -6.10857e-19)
(7.50272 -9.74399 1.51467e-20)
(7.28544 -9.4455 3.21813e-19)
(7.07693 -9.15935 -6.91719e-19)
(6.87683 -8.88496 1.45256e-19)
(6.68475 -8.62171 4.6074e-19)
(6.50032 -8.36907 -1.95543e-19)
(6.32325 -8.12658 3.06444e-19)
(6.15329 -7.89388 -6.03143e-19)
(5.99032 -7.67074 8.53202e-19)
(5.8343 -7.45706 1.89797e-19)
(5.68523 -7.25292 -5.30276e-19)
(5.54323 -7.05828 -4.46721e-19)
(5.40949 -6.87211 5.75771e-21)
(5.28487 -6.6931 6.03543e-19)
(5.15748 -6.52894 -1.34836e-19)
(12.535 -15.0192 -3.34868e-19)
(11.7058 -14.8895 -2.24261e-18)
(11.3753 -14.4481 2.65753e-18)
(11.095 -13.9983 1.75989e-18)
(10.7924 -13.583 1.71317e-18)
(10.4909 -13.1738 4.53883e-19)
(10.1919 -12.7671 6.88011e-19)
(9.8944 -12.3659 3.38663e-19)
(9.60011 -11.9724 -1.3404e-18)
(9.31117 -11.5887 2.42e-18)
(9.02934 -11.2166 -1.89177e-18)
(8.75589 -10.8573 -1.16712e-19)
(8.49168 -10.5114 2.71958e-19)
(8.23715 -10.1792 -1.15226e-18)
(7.99245 -9.86053 1.00033e-18)
(7.75748 -9.55512 -3.02997e-19)
(7.53198 -9.26246 -7.43393e-19)
(7.31559 -8.98199 2.76642e-19)
(7.10792 -8.71308 -5.38387e-19)
(6.90855 -8.45516 -4.67599e-19)
(6.71711 -8.20768 -4.87488e-19)
(6.53325 -7.9702 1.10034e-19)
(6.35673 -7.74236 5.55499e-20)
(6.18742 -7.52394 -1.14613e-18)
(6.0253 -7.31489 -4.23624e-19)
(5.87039 -7.11532 2.77478e-19)
(5.72292 -6.92528 3.33437e-19)
(5.58416 -6.74378 -4.57483e-19)
(5.45503 -6.56974 -1.70834e-19)
(5.32356 -6.41161 1.26362e-20)
(12.9287 -14.6901 -3.05468e-19)
(12.1008 -14.5886 1.45334e-18)
(11.7611 -14.1587 -4.13117e-19)
(11.4699 -13.7176 -5.0259e-19)
(11.1564 -13.3106 -2.63865e-18)
(10.8435 -12.9092 -5.59154e-19)
(10.5328 -12.5098 1.0548e-18)
(10.2237 -12.1158 -6.84807e-19)
(9.91797 -11.7294 -6.99554e-20)
(9.61797 -11.3528 -1.36756e-19)
(9.32548 -10.9877 7.13605e-19)
(9.04184 -10.6353 -1.11176e-18)
(8.7679 -10.2961 -7.26554e-19)
(8.5041 -9.97047 8.38294e-19)
(8.25055 -9.65824 -4.68234e-19)
(8.00712 -9.35906 -5.53972e-19)
(7.77353 -9.07244 1.17075e-18)
(7.54938 -8.79781 -1.86151e-19)
(7.33424 -8.53456 6.61694e-19)
(7.12767 -8.28212 -6.02528e-19)
(6.92925 -8.03996 -4.73594e-19)
(6.73864 -7.80763 4.10907e-19)
(6.55557 -7.58481 -4.88544e-20)
(6.3799 -7.37129 -2.95583e-19)
(6.21162 -7.16705 2.5813e-19)
(6.05079 -6.97228 -7.84623e-19)
(5.89771 -6.7871 4.78819e-19)
(5.75378 -6.61059 -7.83423e-21)
(5.61996 -6.4417 -4.81015e-19)
(5.48453 -6.28936 6.81066e-19)
(13.3158 -14.3513 1.15038e-18)
(12.489 -14.2772 -2.84393e-18)
(12.1398 -13.8587 -2.27385e-19)
(11.8378 -13.4264 1.26466e-18)
(11.5134 -13.028 -3.13467e-19)
(11.1891 -12.6346 -8.79251e-19)
(10.8669 -12.2429 3.9752e-19)
(10.5463 -11.8565 4.5087e-19)
(10.2293 -11.4776 3.41999e-20)
(9.91844 -11.1083 5.35309e-19)
(9.61548 -10.7505 1.6808e-18)
(9.32182 -10.4052 -5.90586e-19)
(9.03833 -10.0731 1.41172e-19)
(8.76542 -9.75427 -3.73097e-19)
(8.5032 -9.44868 1.42465e-18)
(8.25148 -9.15593 -2.52317e-19)
(8.00994 -8.87552 8.13483e-19)
(7.77816 -8.60689 -3.11504e-19)
(7.55566 -8.34943 3.2817e-19)
(7.34196 -8.10259 4.88797e-19)
(7.13662 -7.86585 8.05733e-20)
(6.93926 -7.63879 3.17347e-19)
(6.7496 -7.4211 -2.56769e-19)
(6.56749 -7.21262 7.11259e-19)
(6.39293 -7.01338 -2.86418e-19)
(6.22604 -6.8237 1.03066e-18)
(6.06728 -6.6438 -2.97744e-19)
(5.91823 -6.47269 1.99884e-19)
(5.77995 -6.3094 -3.74591e-19)
(5.64117 -6.16409 6.57467e-19)
(13.6971 -14.0031 -2.54811e-18)
(12.8708 -13.955 9.90317e-20)
(12.5113 -13.5478 -1.39758e-18)
(12.1982 -13.1246 2.47268e-19)
(11.863 -12.7352 6.92647e-20)
(11.5276 -12.3503 -1.1525e-18)
(11.194 -11.9667 -2.13311e-18)
(10.862 -11.5881 1.04409e-18)
(10.534 -11.217 -1.46449e-18)
(10.2124 -10.8555 -7.50568e-19)
(9.89912 -10.5052 -4.17609e-19)
(9.59564 -10.1674 -3.18974e-19)
(9.3028 -9.84249 1.51653e-21)
(9.02098 -9.53075 -1.13586e-18)
(8.75026 -9.23201 7.13166e-19)
(8.49043 -8.94587 -1.17716e-18)
(8.24111 -8.67183 -2.92611e-19)
(8.00185 -8.40933 3.10125e-19)
(7.77212 -8.15778 3.84472e-19)
(7.55139 -7.91661 3.7479e-19)
(7.33919 -7.68533 2.83011e-19)
(7.13507 -7.46354 -7.03632e-19)
(6.9387 -7.25095 6.96476e-19)
(6.74988 -7.04747 -7.55414e-20)
(6.56858 -6.85324 -1.82213e-19)
(6.39499 -6.66874 -7.09647e-19)
(6.22984 -6.49429 -3.6978e-19)
(6.07509 -6.32901 6.79474e-19)
(5.93166 -6.17328 -2.25533e-19)
(5.78894 -6.04081 -2.14199e-19)
(14.0718 -13.6435 1.12118e-18)
(13.2454 -13.6204 1.13425e-19)
(12.875 -13.2256 -2.71549e-19)
(12.5508 -12.8126 -5.13472e-20)
(12.2051 -12.4328 -4.58197e-19)
(11.8587 -12.0566 1.55935e-18)
(11.5139 -11.6815 -7.18475e-19)
(11.1708 -11.3111 4.7282e-19)
(10.8318 -10.9481 1.94976e-19)
(10.4997 -10.5946 6.62857e-19)
(10.1763 -10.2522 -2.42791e-19)
(9.86323 -9.922 1.38267e-18)
(9.56122 -9.60463 -1.15962e-19)
(9.2707 -9.30018 8.57832e-19)
(8.99168 -9.00847 -1.41556e-18)
(8.72392 -8.72911 -9.58196e-20)
(8.46702 -8.46159 8.87483e-19)
(8.22045 -8.20534 -5.41777e-19)
(7.98367 -7.95976 -3.7524e-19)
(7.75609 -7.7243 -6.34572e-19)
(7.53716 -7.49845 -5.40004e-19)
(7.32638 -7.28181 5.84126e-19)
(7.12329 -7.07411 -5.30571e-19)
(6.92756 -6.87526 1.1777e-19)
(6.73894 -6.68548 4.2133e-19)
(6.55744 -6.50532 2.865e-19)
(6.38374 -6.33516 2.63099e-19)
(6.21949 -6.17505 1.91925e-19)
(6.0643 -6.02938 -5.19579e-19)
(5.91085 -5.91417 -2.07524e-19)
(19.7392 0.303309 1.38814e-20)
(19.732 -0.216869 1.3331e-19)
(19.7115 -0.734879 4.63289e-19)
(19.6791 -1.25106 2.51619e-19)
(19.6343 -1.76554 -5.41052e-19)
(19.5765 -2.27819 1.62928e-19)
(19.5053 -2.78878 -1.68368e-19)
(19.421 -3.29705 -4.29253e-19)
(19.3235 -3.80272 1.11706e-18)
(19.2128 -4.30549 -2.66649e-19)
(19.0891 -4.80503 -2.62115e-19)
(18.9524 -5.30102 -5.68112e-19)
(18.8028 -5.79314 -1.64453e-18)
(18.6404 -6.28106 1.51783e-19)
(18.4654 -6.76445 -5.95534e-20)
(18.2779 -7.24299 -5.37188e-19)
(18.0779 -7.71635 1.11597e-18)
(17.8658 -8.18423 6.18564e-19)
(17.6416 -8.64632 1.16984e-18)
(17.4054 -9.10229 5.70161e-19)
(17.1576 -9.55187 -1.31681e-18)
(16.8981 -9.99474 5.48777e-20)
(16.6273 -10.4306 -2.51554e-18)
(16.3454 -10.8593 3.83008e-18)
(16.0525 -11.2804 -1.25277e-18)
(15.7489 -11.6938 -1.6612e-18)
(15.4348 -12.0993 -2.485e-19)
(15.1108 -12.4967 -3.36673e-20)
(14.7761 -12.8866 -1.30209e-18)
(14.4341 -13.2674 2.27993e-18)
(19.3039 -0.269207 5.2119e-20)
(19.2806 -0.776478 7.49511e-20)
(19.2434 -1.28131 1.63143e-20)
(19.1933 -1.78388 -6.69461e-19)
(19.1303 -2.28435 -5.99747e-19)
(19.0544 -2.78255 5.28308e-19)
(18.9654 -3.2782 6.54928e-19)
(18.8634 -3.77098 3.50055e-19)