/*--------------------------------*- C++ -*----------------------------------*\
  =========                 |
  \\      /  F ield         | OpenFOAM: The Open Source CFD Toolbox
   \\    /   O peration     | Website:  https://openfoam.org
    \\  /    A nd           | Version:  6.0
     \\/     M anipulation  |
\*---------------------------------------------------------------------------*/
FoamFile
{
    version     2.0;
    format      ascii;
    class       volScalarField;
    location    "6.5";
    object      p;
}
// * * * * * * * * * * * * * * * * * * * * * * * * * * * * * * * * * * * * * //

dimensions      [0 2 -2 0 0 0 0];

internalField   nonuniform List<scalar> 
19200
(
-36.8043
-33.179
-30.5144
-28.2982
-26.2554
-24.3858
-22.6756
-21.103
-19.6523
-18.312
-17.0726
-15.9259
-14.8646
-13.8822
-12.9729
-12.131
-11.3516
-10.6298
-9.96115
-9.34161
-8.76729
-8.23465
-7.74039
-7.2815
-6.85521
-6.45901
-6.09061
-5.74777
-5.42838
-5.13244
-37.0578
-33.4377
-30.7703
-28.5466
-26.4946
-24.6149
-22.8943
-21.3113
-19.8505
-18.5007
-17.2524
-16.0973
-15.0284
-14.039
-13.1232
-12.2755
-11.4908
-10.7642
-10.0912
-9.4676
-8.8896
-8.35357
-7.85617
-7.39435
-6.96532
-6.56655
-6.19574
-5.85054
-5.52874
-5.23122
-37.3179
-33.6972
-31.0257
-28.7945
-26.7333
-24.8435
-23.1125
-21.5191
-20.0483
-18.6889
-17.4316
-16.2682
-15.1917
-14.1953
-13.2732
-12.4197
-11.6297
-10.8983
-10.2209
-9.5934
-9.01176
-8.47236
-7.97185
-7.50714
-7.0754
-6.67409
-6.30087
-5.9533
-5.62911
-5.33007
-37.5817
-33.958
-31.2811
-29.0421
-26.9715
-25.0714
-23.3299
-21.7261
-20.2452
-18.8763
-17.6101
-16.4385
-15.3543
-14.351
-13.4226
-12.5634
-11.7682
-11.032
-10.3504
-9.71891
-9.13366
-8.59094
-8.08736
-7.61979
-7.18536
-6.78152
-6.40592
-6.056
-5.72943
-5.42891
-37.8473
-34.2197
-31.5366
-29.2894
-27.2091
-25.2987
-23.5466
-21.9323
-20.4414
-19.0629
-17.7878
-16.608
-15.5163
-14.5061
-13.5714
-12.7065
-11.9061
-11.1653
-10.4794
-9.84404
-9.25523
-8.70924
-8.20263
-7.73223
-7.29515
-6.88882
-6.51084
-6.15859
-5.82965
-5.52772
-38.1139
-34.4819
-31.7921
-29.5363
-27.4461
-25.5252
-23.7624
-22.1376
-20.6366
-19.2486
-17.9646
-16.7766
-15.6774
-14.6603
-13.7194
-12.8489
-12.0435
-11.298
-10.6079
-9.96872
-9.37641
-8.82719
-8.31759
-7.8444
-7.40471
-6.99591
-6.61559
-6.26101
-5.92974
-5.62645
-38.3807
-34.7441
-32.0473
-29.7826
-27.6824
-25.7509
-23.9773
-22.342
-20.8308
-19.4333
-18.1404
-16.9442
-15.8375
-14.8137
-13.8667
-12.9906
-12.1801
-11.4301
-10.7358
-10.0929
-9.49711
-8.94471
-8.43217
-7.95623
-7.51397
-7.10274
-6.72011
-6.36323
-6.02963
-5.72506
-38.6475
-35.0062
-32.3021
-30.0283
-27.9179
-25.9755
-24.1911
-22.5452
-21.0238
-19.6168
-18.3151
-17.1108
-15.9967
-14.9661
-14.013
-13.1314
-12.3159
-11.5614
-10.8631
-10.2164
-9.61724
-9.06172
-8.54629
-8.06766
-7.62286
-7.20924
-6.82434
-6.46517
-6.12929
-5.82349
-38.9139
-35.2678
-32.5562
-30.2731
-28.1523
-26.1991
-24.4037
-22.7471
-21.2156
-19.799
-18.4885
-17.2761
-16.1546
-15.1174
-14.1583
-13.2713
-12.4509
-11.6919
-10.9896
-10.3392
-9.73673
-9.17814
-8.65987
-8.1786
-7.73132
-7.31536
-6.92821
-6.5668
-6.22865
-5.9217
-39.1797
-35.5286
-32.8095
-30.5169
-28.3856
-26.4213
-24.615
-22.9476
-21.406
-19.9799
-18.6606
-17.4401
-16.3113
-15.2675
-14.3024
-13.41
-12.5848
-11.8215
-11.1152
-10.4613
-9.85548
-9.29388
-8.77284
-8.28898
-7.83927
-7.42101
-7.03167
-6.66804
-6.32767
-6.01964
-39.4445
-35.7885
-33.0616
-30.7595
-28.6175
-26.6422
-24.8247
-23.1466
-21.5948
-20.1592
-18.8311
-17.6027
-16.4667
-15.4163
-14.4453
-13.5476
-12.7176
-11.95
-11.2398
-10.5824
-9.97338
-9.40885
-8.88509
-8.3987
-7.94662
-7.52612
-7.13463
-6.76884
-6.42628
-6.11725
-39.7083
-36.0472
-33.3125
-31.0007
-28.8479
-26.8614
-25.0328
-23.3439
-21.7819
-20.3368
-19
-17.7637
-16.6205
-15.5636
-14.5868
-13.6839
-12.8492
-12.0774
-11.3633
-10.7025
-10.0903
-9.52293
-8.99652
-8.50768
-8.05329
-7.63061
-7.23703
-6.86911
-6.52442
-6.21447
-39.9707
-36.3045
-33.5619
-31.2403
-29.0766
-27.0789
-25.2391
-23.5394
-21.9672
-20.5127
-19.1672
-17.9229
-16.7726
-15.7094
-14.7268
-13.8187
-12.9794
-12.2034
-11.4857
-10.8214
-10.2062
-9.63602
-9.10703
-8.6158
-8.15917
-7.73437
-7.33877
-6.96878
-6.62201
-6.31124
-40.2316
-36.5603
-33.8096
-31.4781
-29.3035
-27.2944
-25.4434
-23.7329
-22.1505
-20.6865
-19.3324
-18.0803
-16.923
-15.8534
-14.8651
-13.952
-13.1081
-12.3281
-11.6067
-10.9391
-10.3209
-9.74799
-9.2165
-8.72295
-8.26415
-7.83731
-7.43975
-7.06776
-6.71896
-6.40747
-40.4909
-36.8143
-34.0555
-31.714
-29.5284
-27.5078
-25.6455
-23.9243
-22.3317
-20.8583
-19.4956
-18.2358
-17.0714
-15.9956
-15.0017
-14.0836
-13.2352
-12.4512
-11.7262
-11.0554
-10.4343
-9.85871
-9.32479
-8.829
-8.36811
-7.93931
-7.53987
-7.16594
-6.81519
-6.50307
-40.7483
-37.0665
-34.2995
-31.9478
-29.751
-27.719
-25.8454
-24.1133
-22.5106
-21.0279
-19.6566
-18.3891
-17.2178
-16.1357
-15.1364
-14.2133
-13.3606
-12.5726
-11.8441
-11.1701
-10.5462
-9.96803
-9.43176
-8.9338
-8.4709
-8.04022
-7.63898
-7.26319
-6.91056
-6.59794
-41.0037
-37.3166
-34.5412
-32.1794
-29.9714
-27.9278
-26.0429
-24.2999
-22.687
-21.195
-19.8153
-18.5401
-17.3619
-16.2738
-15.2689
-14.341
-13.484
-12.6922
-11.9602
-11.2832
-10.6565
-10.0758
-9.53724
-9.03719
-8.57236
-8.13989
-7.73694
-7.35938
-7.00495
-6.69193
-41.257
-37.5645
-34.7807
-32.4085
-30.1892
-28.134
-26.2377
-24.4839
-22.8609
-21.3596
-19.9714
-18.6886
-17.5037
-16.4095
-15.3993
-14.4666
-13.6054
-12.8097
-12.0744
-11.3944
-10.7649
-10.1818
-9.64105
-9.13899
-8.67231
-8.23813
-7.83356
-7.45432
-7.09818
-6.78489
-41.508
-37.8101
-35.0178
-32.6351
-30.4043
-28.3375
-26.4298
-24.6651
-23.032
-21.5215
-20.125
-18.8347
-17.643
-16.5429
-15.5274
-14.5899
-13.7245
-12.9251
-12.1865
-11.5035
-10.8714
-10.2859
-9.743
-9.239
-8.77055
-8.33474
-7.92865
-7.54782
-7.19006
-6.87662
-41.7567
-38.0532
-35.2523
-32.8589
-30.6166
-28.5381
-26.6189
-24.8434
-23.2003
-21.6805
-20.2757
-18.978
-17.7797
-16.6736
-15.6529
-14.7108
-13.8412
-13.0382
-12.2963
-11.6104
-10.9757
-10.3879
-9.84287
-9.33698
-8.86683
-8.42947
-8.02194
-7.63962
-7.28033
-6.96687
-42.0031
-38.2939
-35.484
-33.0799
-30.826
-28.7356
-26.805
-25.0186
-23.3655
-21.8366
-20.4235
-19.1184
-17.9136
-16.8017
-15.7758
-14.8291
-13.9555
-13.1488
-12.4037
-11.7149
-11.0776
-10.4875
-9.94042
-9.43269
-8.96088
-8.52204
-8.11316
-7.72944
-7.36868
-7.05533
-42.2471
-38.5319
-35.713
-33.298
-31.0322
-28.93
-26.9878
-25.1907
-23.5275
-21.9895
-20.5683
-19.2559
-18.0445
-16.9269
-15.8959
-14.9447
-14.067
-13.2568
-12.5084
-11.8168
-11.1769
-10.5845
-10.0354
-9.52587
-9.05243
-8.61215
-8.20196
-7.81691
-7.45476
-7.1416
-42.489
-38.7674
-35.9391
-33.5128
-31.2351
-29.1209
-27.1672
-25.3593
-23.6862
-22.1392
-20.7099
-19.3902
-18.1725
-17.0491
-16.0131
-15.0574
-14.1757
-13.362
-12.6104
-11.9159
-11.2735
-10.6788
-10.1276
-9.61623
-9.14116
-8.69945
-8.28799
-7.90166
-7.53814
-7.22521
-42.7289
-39.0002
-36.1621
-33.7244
-31.4345
-29.3083
-27.3431
-25.5244
-23.8414
-22.2855
-20.8482
-19.5214
-18.2973
-17.1683
-16.1273
-15.1672
-14.2816
-13.4642
-12.7095
-12.0121
-11.3671
-10.7701
-10.2168
-9.7035
-9.22675
-8.78356
-8.37083
-7.98322
-7.61831
-7.30576
-42.9672
-39.2303
-36.3819
-33.9324
-31.6303
-29.4919
-27.5152
-25.6858
-23.993
-22.4282
-20.983
-19.6492
-18.4189
-17.2844
-16.2384
-15.274
-14.3844
-13.5635
-12.8056
-12.1053
-11.4577
-10.8582
-10.3027
-9.78741
-9.30886
-8.86409
-8.44998
-8.06101
-7.69471
-7.3826
-43.2039
-39.4574
-36.5982
-34.1367
-31.8221
-29.6716
-27.6834
-25.8433
-24.1409
-22.5674
-21.1144
-19.7736
-18.5372
-17.3973
-16.3465
-15.3777
-14.4842
-13.6598
-12.8987
-12.1954
-11.545
-10.943
-10.3852
-9.86774
-9.38721
-8.94065
-8.52494
-8.13447
-7.76657
-7.45431
-43.4404
-39.6817
-36.8107
-34.3369
-32.0096
-29.847
-27.8473
-25.9967
-24.2848
-22.7027
-21.2421
-19.8946
-18.6521
-17.5069
-16.4513
-15.4783
-14.581
-13.753
-12.9887
-12.2824
-11.6292
-11.0245
-10.4642
-9.94441
-9.46166
-9.01306
-8.59555
-8.20334
-7.83321
-7.51939
-43.6811
-39.9044
-37.019
-34.5322
-32.1923
-30.0175
-28.0066
-26.1458
-24.4245
-22.8341
-21.366
-20.0119
-18.7636
-17.6132
-16.553
-15.5758
-14.6747
-13.8433
-13.0757
-12.3663
-11.7102
-11.1028
-10.5398
-10.0174
-9.53209
-9.08115
-8.66153
-8.26706
-7.89389
-7.57983
-43.9292
-40.1252
-37.2217
-34.7216
-32.3694
-30.183
-28.1612
-26.2903
-24.5599
-22.9614
-21.4861
-20.1256
-18.8717
-17.7162
-16.6515
-15.6702
-14.7654
-13.9306
-13.1598
-12.4474
-11.7884
-11.178
-10.6121
-10.0867
-9.59839
-9.14437
-8.72129
-8.32264
-7.94658
-7.63922
-44.1616
-40.3347
-37.4162
-34.9047
-32.5415
-30.3442
-28.3119
-26.4312
-24.692
-23.0855
-21.6032
-20.2364
-18.9769
-17.8165
-16.7474
-15.7621
-14.8537
-14.0155
-13.2416
-12.5262
-11.8642
-11.2508
-10.6819
-10.1532
-9.66148
-9.20332
-8.77451
-8.36939
-7.99241
-7.68614
-47.4283
-47.4177
-47.3906
-47.3613
-47.3282
-47.2884
-47.2412
-47.1867
-47.1247
-47.0551
-46.978
-46.8934
-46.8013
-46.7019
-46.5953
-46.4817
-46.3613
-46.2343
-46.1009
-45.9612
-45.8156
-45.6642
-45.5074
-45.3455
-45.179
-45.0083
-44.8344
-44.6587
-44.4843
-44.3159
-43.4793
-43.4825
-43.4723
-43.4544
-43.4292
-43.396
-43.3547
-43.3055
-43.2485
-43.1838
-43.1115
-43.0317
-42.9445
-42.85
-42.7485
-42.64
-42.5247
-42.4028
-42.2746
-42.1401
-41.9998
-41.8537
-41.7022
-41.5455
-41.384
-41.2181
-41.0484
-40.8754
-40.6996
-40.5199
-40.3516
-40.3637
-40.3647
-40.356
-40.3386
-40.3128
-40.2787
-40.2367
-40.1868
-40.1292
-40.064
-39.9915
-39.9115
-39.8244
-39.7303
-39.6294
-39.5217
-39.4076
-39.2871
-39.1605
-39.028
-38.8898
-38.7461
-38.5972
-38.4432
-38.2845
-38.1212
-37.9533
-37.7807
-37.6021
-37.5959
-37.6139
-37.6222
-37.6209
-37.6108
-37.5924
-37.5658
-37.5313
-37.4891
-37.4393
-37.382
-37.3174
-37.2456
-37.1668
-37.0812
-36.9888
-36.8898
-36.7845
-36.673
-36.5554
-36.4319
-36.3028
-36.1683
-36.0284
-35.8833
-35.7333
-35.5783
-35.4183
-35.2531
-35.0822
-34.9873
-35.0097
-35.0235
-35.0284
-35.0247
-35.0129
-34.9932
-34.9657
-34.9307
-34.8883
-34.8386
-34.7818
-34.718
-34.6473
-34.57
-34.4862
-34.3959
-34.2995
-34.197
-34.0886
-33.9745
-33.8548
-33.7296
-33.5992
-33.4636
-33.323
-33.1773
-33.0266
-32.8706
-32.7092
-32.5612
-32.5869
-32.6049
-32.6145
-32.616
-32.6095
-32.5955
-32.574
-32.5452
-32.5093
-32.4663
-32.4165
-32.3599
-32.2967
-32.2271
-32.1511
-32.0691
-31.981
-31.887
-31.7873
-31.6821
-31.5714
-31.4554
-31.3342
-31.208
-31.0768
-30.9405
-30.7993
-30.653
-30.5015
-30.326
-30.354
-30.3748
-30.3878
-30.393
-30.3907
-30.3811
-30.3643
-30.3406
-30.3101
-30.2727
-30.2288
-30.1784
-30.1217
-30.0588
-29.9898
-29.9149
-29.8343
-29.748
-29.6562
-29.5591
-29.4567
-29.3492
-29.2366
-29.1192
-28.9969
-28.8697
-28.7377
-28.6009
-28.4591
-28.2719
-28.3011
-28.3236
-28.3387
-28.3464
-28.347
-28.3407
-28.3275
-28.3077
-28.2814
-28.2486
-28.2094
-28.1641
-28.1128
-28.0555
-27.9924
-27.9237
-27.8495
-27.7699
-27.685
-27.595
-27.5
-27.4001
-27.2953
-27.1859
-27.0717
-26.953
-26.8296
-26.7016
-26.569
-26.3884
-26.4179
-26.4411
-26.4573
-26.4666
-26.469
-26.4649
-26.4543
-26.4374
-26.4142
-26.3848
-26.3494
-26.3082
-26.2611
-26.2085
-26.1503
-26.0867
-26.0179
-25.9439
-25.8649
-25.7811
-25.6924
-25.5991
-25.5013
-25.3989
-25.2921
-25.1809
-25.0653
-24.9454
-24.8211
-24.6644
-24.6935
-24.7167
-24.7332
-24.7432
-24.7467
-24.7439
-24.735
-24.72
-24.699
-24.6722
-24.6396
-24.6015
-24.5578
-24.5088
-24.4545
-24.3951
-24.3307
-24.2614
-24.1874
-24.1087
-24.0256
-23.9379
-23.846
-23.7498
-23.6495
-23.5449
-23.4363
-23.3236
-23.2068
-23.0879
-23.1162
-23.1387
-23.155
-23.165
-23.1689
-23.1668
-23.1588
-23.145
-23.1256
-23.1005
-23.07
-23.0341
-22.9931
-22.9468
-22.8956
-22.8396
-22.7788
-22.7133
-22.6434
-22.569
-22.4904
-22.4077
-22.3208
-22.23
-22.1352
-22.0365
-21.934
-21.8277
-21.7175
-21.6468
-21.6739
-21.6954
-21.7109
-21.7205
-21.7242
-21.7222
-21.7147
-21.7016
-21.683
-21.6591
-21.63
-21.5958
-21.5566
-21.5126
-21.4638
-21.4103
-21.3523
-21.29
-21.2234
-21.1526
-21.0779
-20.9992
-20.9166
-20.8303
-20.7404
-20.6468
-20.5496
-20.4489
-20.3447
-20.3291
-20.3546
-20.3749
-20.3894
-20.3982
-20.4014
-20.3992
-20.3916
-20.3788
-20.3607
-20.3375
-20.3093
-20.2762
-20.2384
-20.196
-20.149
-20.0975
-20.0418
-19.982
-19.9181
-19.8503
-19.7787
-19.7034
-19.6245
-19.5421
-19.4563
-19.3671
-19.2746
-19.1788
-19.0797
-19.1233
-19.1472
-19.166
-19.1793
-19.1872
-19.1897
-19.1869
-19.1791
-19.1661
-19.1482
-19.1253
-19.0977
-19.0654
-19.0285
-18.9872
-18.9416
-18.8917
-18.8378
-18.7799
-18.7182
-18.6528
-18.5838
-18.5114
-18.4356
-18.3565
-18.2743
-18.189
-18.1005
-18.009
-17.9145
-18.0189
-18.0411
-18.0584
-18.0704
-18.0772
-18.0788
-18.0753
-18.067
-18.0537
-18.0356
-18.0129
-17.9855
-17.9537
-17.9174
-17.877
-17.8323
-17.7837
-17.7312
-17.6749
-17.6149
-17.5515
-17.4847
-17.4147
-17.3415
-17.2653
-17.1861
-17.1041
-17.0193
-16.9316
-16.8411
-17.006
-17.0266
-17.0423
-17.053
-17.0586
-17.0592
-17.0549
-17.046
-17.0323
-17.0139
-16.9911
-16.9638
-16.9322
-16.8964
-16.8565
-16.8126
-16.7649
-16.7134
-16.6584
-16.5999
-16.5381
-16.4731
-16.4051
-16.3341
-16.2604
-16.1839
-16.1048
-16.0231
-15.9388
-15.852
-16.0759
-16.0948
-16.109
-16.1183
-16.1227
-16.1223
-16.1172
-16.1075
-16.0933
-16.0746
-16.0515
-16.0242
-15.9927
-15.9571
-15.9176
-15.8743
-15.8273
-15.7767
-15.7226
-15.6653
-15.6048
-15.5414
-15.475
-15.406
-15.3343
-15.2602
-15.1837
-15.1048
-15.0236
-14.94
-15.2203
-15.2376
-15.2503
-15.2583
-15.2615
-15.2601
-15.2542
-15.2438
-15.229
-15.2098
-15.1865
-15.159
-15.1275
-15.0921
-15.0528
-15.0099
-14.9634
-14.9135
-14.8603
-14.8039
-14.7446
-14.6824
-14.6175
-14.55
-14.4802
-14.4081
-14.3339
-14.2576
-14.1791
-14.0986
-14.432
-14.4478
-14.4591
-14.4658
-14.468
-14.4656
-14.4588
-14.4477
-14.4323
-14.4127
-14.389
-14.3614
-14.3298
-14.2944
-14.2553
-14.2127
-14.1666
-14.1173
-14.0647
-14.0092
-13.9507
-13.8896
-13.8259
-13.7599
-13.6917
-13.6214
-13.5492
-13.4752
-13.3993
-13.3216
-13.7046
-13.719
-13.729
-13.7345
-13.7356
-13.7322
-13.7247
-13.7129
-13.6969
-13.6768
-13.6528
-13.6249
-13.5932
-13.5579
-13.5189
-13.4765
-13.4308
-13.3818
-13.3299
-13.2749
-13.2173
-13.1571
-13.0944
-13.0296
-12.9628
-12.8941
-12.8237
-12.7518
-12.6783
-12.6033
-13.0323
-13.0454
-13.0541
-13.0585
-13.0585
-13.0543
-13.046
-13.0335
-13.017
-12.9965
-12.9722
-12.944
-12.9122
-12.8768
-12.838
-12.7957
-12.7503
-12.7017
-12.6501
-12.5958
-12.5388
-12.4793
-12.4176
-12.3538
-12.2882
-12.2209
-12.1521
-12.0821
-12.0109
-11.9384
-12.4099
-12.4217
-12.4293
-12.4326
-12.4317
-12.4267
-12.4176
-12.4046
-12.3875
-12.3666
-12.3419
-12.3136
-12.2816
-12.2462
-12.2074
-12.1653
-12.12
-12.0718
-12.0206
-11.9667
-11.9103
-11.8515
-11.7905
-11.7276
-11.663
-11.5969
-11.5296
-11.4614
-11.3923
-11.3223
-11.8328
-11.8434
-11.8499
-11.8523
-11.8505
-11.8447
-11.835
-11.8213
-11.8038
-11.7825
-11.7575
-11.729
-11.6969
-11.6614
-11.6226
-11.5807
-11.5356
-11.4876
-11.4368
-11.3833
-11.3273
-11.2691
-11.2087
-11.1465
-11.0827
-11.0177
-10.9517
-10.8851
-10.8179
-10.7504
-11.2968
-11.3063
-11.3118
-11.3133
-11.3108
-11.3043
-11.2939
-11.2797
-11.2617
-11.2401
-11.2149
-11.1861
-11.1539
-11.1184
-11.0796
-11.0378
-10.9929
-10.9451
-10.8946
-10.8414
-10.7859
-10.728
-10.6682
-10.6066
-10.5435
-10.4793
-10.4143
-10.3491
-10.2838
-10.2188
-10.7982
-10.8068
-10.8114
-10.812
-10.8087
-10.8016
-10.7907
-10.776
-10.7576
-10.7357
-10.7102
-10.6813
-10.649
-10.6134
-10.5747
-10.5329
-10.4882
-10.4406
-10.3903
-10.3375
-10.2822
-10.2248
-10.1653
-10.1042
-10.0416
-9.978
-9.9139
-9.84987
-9.78631
-9.72379
-10.3338
-10.3414
-10.3452
-10.3451
-10.3411
-10.3334
-10.3219
-10.3068
-10.288
-10.2658
-10.2401
-10.211
-10.1786
-10.143
-10.1043
-10.0626
-10.018
-9.97061
-9.92054
-9.86794
-9.81296
-9.75578
-9.69662
-9.63574
-9.57347
-9.51029
-9.44672
-9.3836
-9.32146
-9.26165
-9.90068
-9.90742
-9.91039
-9.90953
-9.9049
-9.89659
-9.88464
-9.86907
-9.84997
-9.82741
-9.80145
-9.77219
-9.73969
-9.70404
-9.66534
-9.62367
-9.57913
-9.53184
-9.48191
-9.42946
-9.37464
-9.31761
-9.25858
-9.1978
-9.13561
-9.07249
-9.00904
-8.94637
-8.88504
-8.82782
-9.49606
-9.50211
-9.50445
-9.50303
-9.49789
-9.48915
-9.47683
-9.46094
-9.44157
-9.4188
-9.3927
-9.36333
-9.33077
-9.29511
-9.25643
-9.21482
-9.17039
-9.12321
-9.07341
-9.0211
-8.96641
-8.90949
-8.85051
-8.78971
-8.72741
-8.6641
-8.60041
-8.53777
-8.4766
-8.42129
-9.11731
-9.12299
-9.12503
-9.12338
-9.11809
-9.10926
-9.0969
-9.08105
-9.06179
-9.03919
-9.01331
-8.98423
-8.95202
-8.91676
-8.87854
-8.83744
-8.79355
-8.74696
-8.69779
-8.64612
-8.59208
-8.53579
-8.47741
-8.41714
-8.35525
-8.29219
-8.22857
-8.16622
-8.10552
-8.05454
-8.76265
-8.76693
-8.7677
-8.76492
-8.75865
-8.74898
-8.73591
-8.71949
-8.69979
-8.67688
-8.65082
-8.62169
-8.58955
-8.55448
-8.51656
-8.47587
-8.4325
-8.38653
-8.33805
-8.28716
-8.23394
-8.17852
-8.12099
-8.06152
-8.00028
-7.93762
-7.87397
-7.81098
-7.74848
-7.70898
-43.0312
-43.2764
-43.5025
-43.7337
-43.9665
-44.196
-44.4203
-44.639
-44.8514
-45.0569
-45.255
-45.4454
-45.6277
-45.8016
-45.967
-46.1236
-46.2713
-46.4099
-46.5395
-46.6599
-46.771
-46.873
-46.9657
-47.0493
-47.124
-47.1899
-47.2476
-47.2978
-47.3425
-47.3844
-39.0411
-39.3009
-39.547
-39.7889
-40.0266
-40.2585
-40.484
-40.703
-40.9152
-41.1203
-41.318
-41.508
-41.6901
-41.8639
-42.0294
-42.1863
-42.3345
-42.4739
-42.6043
-42.7258
-42.8383
-42.9417
-43.0361
-43.1215
-43.1981
-43.2659
-43.3253
-43.3765
-43.4198
-43.4543
-35.8856
-36.1479
-36.4002
-36.6447
-36.8827
-37.1141
-37.3389
-37.557
-37.7683
-37.9725
-38.1693
-38.3587
-38.5403
-38.714
-38.8795
-39.0368
-39.1856
-39.3259
-39.4576
-39.5806
-39.6949
-39.8003
-39.897
-39.9849
-40.064
-40.1345
-40.1962
-40.2493
-40.2934
-40.3277
-33.1372
-33.3947
-33.6446
-33.8868
-34.1221
-34.3508
-34.5731
-34.7887
-34.9976
-35.1996
-35.3944
-35.582
-35.7621
-35.9345
-36.0992
-36.2559
-36.4045
-36.5449
-36.677
-36.8008
-36.9162
-37.023
-37.1214
-37.2113
-37.2926
-37.3653
-37.4294
-37.4848
-37.5313
-37.5685
-30.575
-30.825
-31.0692
-31.3064
-31.537
-31.7612
-31.9791
-32.1906
-32.3955
-32.5938
-32.7852
-32.9696
-33.1469
-33.3168
-33.4792
-33.6341
-33.7812
-33.9205
-34.0519
-34.1753
-34.2906
-34.3978
-34.4969
-34.5877
-34.6702
-34.7445
-34.8104
-34.8678
-34.9166
-34.9566
-28.2308
-28.4723
-28.709
-28.9395
-29.1637
-29.3819
-29.594
-29.8
-29.9997
-30.1929
-30.3797
-30.5597
-30.7329
-30.8991
-31.0582
-31.21
-31.3545
-31.4915
-31.621
-31.7428
-31.8569
-31.9633
-32.0619
-32.1525
-32.2353
-32.3101
-32.3769
-32.4355
-32.4859
-32.528
-26.106
-26.3385
-26.5668
-26.7895
-27.0063
-27.2174
-27.4227
-27.6222
-27.8158
-28.0031
-28.1843
-28.359
-28.5272
-28.6887
-28.8435
-28.9913
-29.1322
-29.2659
-29.3925
-29.5118
-29.6237
-29.7282
-29.8253
-29.9148
-29.9968
-30.0711
-30.1378
-30.1968
-30.2479
-30.2912
-24.1828
-24.4062
-24.6257
-24.84
-25.0489
-25.2523
-25.4504
-25.6428
-25.8296
-26.0105
-26.1854
-26.3542
-26.5168
-26.6731
-26.8228
-26.966
-27.1025
-27.2322
-27.3551
-27.471
-27.5799
-27.6818
-27.7765
-27.8641
-27.9444
-28.0175
-28.0833
-28.1417
-28.1927
-28.2363
-22.4433
-22.6575
-22.8682
-23.0741
-23.2748
-23.4705
-23.661
-23.8462
-24.0259
-24.2
-24.3685
-24.531
-24.6877
-24.8382
-24.9826
-25.1206
-25.2523
-25.3775
-25.4962
-25.6082
-25.7135
-25.8121
-25.904
-25.9889
-26.067
-26.1381
-26.2023
-26.2595
-26.3096
-26.3527
-20.8699
-21.0754
-21.2774
-21.4749
-21.6677
-21.8556
-22.0385
-22.2165
-22.3892
-22.5565
-22.7183
-22.8746
-23.0251
-23.1698
-23.3086
-23.4413
-23.5679
-23.6884
-23.8025
-23.9103
-24.0117
-24.1067
-24.1952
-24.2771
-24.3524
-24.4211
-24.4832
-24.5386
-24.5873
-24.6294
-19.4456
-19.6427
-19.8365
-20.026
-20.211
-20.3913
-20.567
-20.7378
-20.9036
-21.0643
-21.2197
-21.3697
-21.5141
-21.653
-21.7862
-21.9135
-22.035
-22.1506
-22.2601
-22.3635
-22.4608
-22.5519
-22.6368
-22.7154
-22.7877
-22.8537
-22.9134
-22.9667
-23.0135
-23.0541
-18.1544
-18.3436
-18.5296
-18.7115
-18.8891
-19.0623
-19.231
-19.395
-19.5542
-19.7084
-19.8575
-20.0014
-20.14
-20.2732
-20.4009
-20.5229
-20.6394
-20.7501
-20.855
-20.954
-21.0471
-21.1343
-21.2155
-21.2907
-21.3599
-21.423
-21.48
-21.5309
-21.5757
-21.6145
-16.9818
-17.1636
-17.3423
-17.5171
-17.6877
-17.8542
-18.0162
-18.1738
-18.3267
-18.4747
-18.6179
-18.756
-18.8889
-19.0166
-19.139
-19.256
-19.3675
-19.4735
-19.5739
-19.6686
-19.7576
-19.841
-19.9185
-19.9903
-20.0562
-20.1163
-20.1706
-20.2191
-20.2616
-20.2984
-15.9148
-16.0897
-16.2616
-16.4297
-16.5938
-16.7539
-16.9098
-17.0613
-17.2083
-17.3505
-17.488
-17.6206
-17.7482
-17.8707
-17.9881
-18.1002
-18.207
-18.3084
-18.4044
-18.495
-18.5801
-18.6596
-18.7336
-18.802
-18.8648
-18.922
-18.9735
-19.0194
-19.0597
-19.0945
-14.9417
-15.1103
-15.2758
-15.4377
-15.5959
-15.7501
-15.9002
-16.046
-16.1874
-16.3243
-16.4564
-16.5838
-16.7064
-16.824
-16.9366
-17.044
-17.1464
-17.2435
-17.3354
-17.422
-17.5033
-17.5792
-17.6498
-17.7149
-17.7746
-17.8289
-17.8778
-17.9212
-17.9592
-17.9919
-14.0525
-14.215
-14.3747
-14.531
-14.6835
-14.8323
-14.977
-15.1176
-15.2538
-15.3856
-15.5128
-15.6353
-15.7532
-15.8661
-15.9742
-16.0774
-16.1755
-16.2686
-16.3565
-16.4394
-16.517
-16.5895
-16.6568
-16.7188
-16.7756
-16.8271
-16.8734
-16.9145
-16.9503
-16.9809
-13.238
-13.3951
-13.5494
-13.7004
-13.8478
-13.9915
-14.1312
-14.2669
-14.3983
-14.5254
-14.6479
-14.766
-14.8793
-14.988
-15.0919
-15.1909
-15.2851
-15.3743
-15.4586
-15.5379
-15.6122
-15.6814
-15.7456
-15.8047
-15.8587
-15.9076
-15.9514
-15.9901
-16.0238
-16.0525
-12.4905
-12.6425
-12.7919
-12.938
-13.0807
-13.2197
-13.3548
-13.486
-13.6129
-13.7356
-13.8538
-13.9676
-14.0768
-14.1814
-14.2813
-14.3766
-14.467
-14.5527
-14.6335
-14.7095
-14.7806
-14.8468
-14.908
-14.9643
-15.0157
-15.0621
-15.1036
-15.1402
-15.1718
-15.1986
-11.8031
-11.9504
-12.0951
-12.2369
-12.3752
-12.5099
-12.6408
-12.7677
-12.8905
-13.009
-13.1232
-13.233
-13.3383
-13.4391
-13.5354
-13.627
-13.714
-13.7963
-13.8739
-13.9468
-14.0149
-14.0782
-14.1367
-14.1904
-14.2393
-14.2834
-14.3227
-14.3572
-14.3869
-14.412
-11.1697
-11.3126
-11.4532
-11.5908
-11.7252
-11.8559
-11.9828
-12.1058
-12.2247
-12.3394
-12.4498
-12.5559
-12.6576
-12.7548
-12.8476
-12.9359
-13.0196
-13.0988
-13.1734
-13.2433
-13.3086
-13.3693
-13.4252
-13.4765
-13.5231
-13.565
-13.6023
-13.6348
-13.6628
-13.6861
-10.585
-10.7237
-10.8605
-10.9945
-11.1252
-11.2523
-11.3755
-11.4948
-11.6101
-11.7211
-11.828
-11.9306
-12.0288
-12.1228
-12.2123
-12.2975
-12.3782
-12.4544
-12.5261
-12.5934
-12.656
-12.7142
-12.7678
-12.8168
-12.8612
-12.9011
-12.9364
-12.9672
-12.9934
-13.0152
-10.044
-10.1789
-10.3124
-10.4431
-10.5704
-10.6941
-10.814
-10.9299
-11.0417
-11.1493
-11.2528
-11.3521
-11.4472
-11.538
-11.6245
-11.7067
-11.7846
-11.858
-11.9271
-11.9918
-12.052
-12.1078
-12.1592
-12.2061
-12.2485
-12.2865
-12.32
-12.3491
-12.3738
-12.3941
-9.54247
-9.67396
-9.80459
-9.93241
-10.0567
-10.1773
-10.2939
-10.4066
-10.5151
-10.6196
-10.7199
-10.8161
-10.9082
-10.996
-11.0797
-11.1591
-11.2343
-11.3052
-11.3718
-11.4341
-11.4921
-11.5457
-11.5949
-11.6399
-11.6804
-11.7166
-11.7485
-11.776
-11.7993
-11.8182
-9.07639
-9.20485
-9.33329
-9.45865
-9.58018
-9.69783
-9.81149
-9.92107
-10.0266
-10.128
-10.2253
-10.3186
-10.4078
-10.4929
-10.5739
-10.6507
-10.7234
-10.7919
-10.8561
-10.9162
-10.972
-11.0236
-11.0709
-11.114
-11.1528
-11.1874
-11.2177
-11.2438
-11.2657
-11.2834
-8.64215
-8.7682
-8.89528
-9.01858
-9.13759
-9.25253
-9.36335
-9.47001
-9.57259
-9.67113
-9.76565
-9.85617
-9.94267
-10.0251
-10.1036
-10.178
-10.2483
-10.3145
-10.3766
-10.4345
-10.4883
-10.538
-10.5835
-10.6249
-10.6621
-10.6951
-10.724
-10.7487
-10.7693
-10.7859
-8.2363
-8.36145
-8.48826
-8.60981
-8.72646
-8.83884
-8.94691
-9.05075
-9.15051
-9.24628
-9.33809
-9.42596
-9.50989
-9.58987
-9.6659
-9.73794
-9.806
-9.87004
-9.93006
-9.98604
-10.038
-10.0858
-10.1296
-10.1694
-10.205
-10.2366
-10.2641
-10.2876
-10.307
-10.3225
-7.85341
-7.9813
-8.1097
-8.22966
-8.344
-8.45388
-8.55927
-8.66036
-8.7574
-8.8505
-8.93971
-9.02505
-9.10653
-9.18414
-9.25787
-9.32771
-9.39364
-9.45565
-9.51372
-9.56783
-9.61798
-9.66415
-9.70634
-9.74454
-9.77875
-9.80898
-9.83523
-9.85752
-9.87585
-9.89027
-7.48186
-7.61785
-7.75148
-7.87056
-7.98281
-8.09042
-8.19338
-8.29199
-8.38659
-8.47733
-8.56426
-8.6474
-8.72676
-8.80233
-8.87409
-8.94205
-9.00617
-9.06645
-9.12287
-9.17542
-9.22408
-9.26884
-9.3097
-9.34664
-9.37968
-9.4088
-9.43402
-9.45535
-9.47279
-9.48639
-7.1171
-7.26468
-7.40759
-7.52772
-7.63849
-7.74413
-7.84502
-7.94156
-8.03413
-8.12292
-8.20797
-8.28931
-8.36693
-8.44083
-8.511
-8.57742
-8.64009
-8.69898
-8.75409
-8.80539
-8.85289
-8.89656
-8.9364
-8.9724
-9.00457
-9.0329
-9.05741
-9.07809
-9.09496
-9.10806
-6.83478
-6.99495
-7.13626
-7.25507
-7.36247
-7.4636
-7.56023
-7.65276
-7.74141
-7.82636
-7.90766
-7.98532
-8.05933
-8.1297
-8.19642
-8.25949
-8.31888
-8.37461
-8.42664
-8.47499
-8.51964
-8.56059
-8.59783
-8.63135
-8.66117
-8.68729
-8.70971
-8.72844
-8.7435
-8.75493
-3.0156
-3.24376
-3.49022
-3.75531
-4.04094
-4.34908
-4.68168
-5.04094
-5.42932
-5.8496
-6.30494
-6.79891
-7.33563
-7.91983
-8.55701
-9.25355
-10.0169
-10.8558
-11.7806
-12.8031
-13.9374
-15.2
-16.6096
-18.1874
-19.9581
-21.9497
-24.1759
-26.6249
-29.5356
-33.3482
-3.14342
-3.37487
-3.62317
-3.89048
-4.17865
-4.48949
-4.82498
-5.18734
-5.57907
-6.00298
-6.46226
-6.96052
-7.5019
-8.09121
-8.73396
-9.43659
-10.2066
-11.0529
-11.9856
-13.0169
-14.1608
-15.4338
-16.8546
-18.4445
-20.2277
-22.2323
-24.4713
-26.9313
-29.8479
-33.6566
-3.27236
-3.5071
-3.75728
-4.02687
-4.31765
-4.63126
-4.9697
-5.33523
-5.73039
-6.158
-6.6213
-7.12392
-7.67006
-8.26455
-8.91296
-9.62179
-10.3986
-11.2523
-12.1931
-13.2333
-14.3869
-15.6704
-17.1025
-18.7044
-20.5002
-22.5174
-24.7684
-27.2384
-30.1588
-33.9606
-3.40222
-3.64028
-3.89238
-4.1643
-4.45775
-4.77419
-5.11564
-5.4844
-5.88303
-6.31441
-6.78177
-7.28882
-7.83977
-8.4395
-9.09364
-9.80872
-10.5924
-11.4535
-12.4025
-13.4516
-14.615
-15.909
-17.3525
-18.9663
-20.7746
-22.8042
-25.067
-27.547
-30.4735
-34.274
-3.53293
-3.77431
-4.02838
-4.3027
-4.59887
-4.91819
-5.2627
-5.63474
-6.03691
-6.4721
-6.94359
-7.45511
-8.01093
-8.61596
-9.27588
-9.99727
-10.7878
-11.6565
-12.6137
-13.6718
-14.8449
-16.1495
-17.6043
-19.2301
-21.0507
-23.0928
-25.3673
-27.8578
-30.7918
-34.5944
-3.66437
-3.90908
-4.16515
-4.44193
-4.74088
-5.06315
-5.41077
-5.78615
-6.19191
-6.63097
-7.10664
-7.62269
-8.18343
-8.79382
-9.45957
-10.1873
-10.9848
-11.8611
-12.8266
-13.8937
-15.0766
-16.3918
-17.8579
-19.4957
-21.3288
-23.3832
-25.6696
-28.1706
-31.1126
-34.9189
-3.79643
-4.04448
-4.30258
-4.58188
-4.88367
-5.20893
-5.55973
-5.9385
-6.3479
-6.79088
-7.27078
-7.79142
-8.35713
-8.97292
-9.64456
-10.3787
-11.1832
-12.0671
-13.041
-14.1172
-15.3099
-16.6357
-18.1132
-19.763
-21.6085
-23.6754
-25.9737
-28.4853
-31.4355
-35.2463
-3.92901
-4.18038
-4.44056
-4.72242
-5.02711
-5.35542
-5.70944
-6.09166
-6.50474
-6.95169
-7.43588
-7.96115
-8.53188
-9.15312
-9.8307
-10.5713
-11.3829
-12.2745
-13.2567
-14.342
-15.5447
-16.8811
-18.37
-20.0319
-21.8898
-23.9691
-26.2794
-28.8016
-31.7603
-35.5761
-4.06201
-4.31669
-4.57897
-4.86347
-5.1711
-5.50251
-5.8598
-6.2455
-6.66233
-7.11329
-7.60181
-8.13175
-8.70755
-9.33429
-10.0178
-10.765
-11.5836
-12.483
-13.4737
-14.5681
-15.7807
-17.1278
-18.6281
-20.302
-22.1724
-24.2642
-26.5865
-29.1194
-32.0867
-35.9079
-4.19533
-4.45331
-4.71771
-5.00489
-5.31553
-5.65009
-6.0107
-6.39993
-6.82054
-7.27556
-7.76844
-8.30309
-8.884
-9.51628
-10.2058
-10.9595
-11.7853
-12.6924
-13.6916
-14.7952
-16.0178
-17.3756
-18.8874
-20.5733
-22.4561
-24.5605
-26.8947
-29.4384
-32.4143
-36.241
-4.32889
-4.59014
-4.85669
-5.14661
-5.4603
-5.79805
-6.16202
-6.55483
-6.97925
-7.43836
-7.93565
-8.47505
-9.06109
-9.69894
-10.3946
-11.1548
-11.9878
-12.9027
-13.9103
-15.0232
-16.2557
-17.6243
-19.1476
-20.8456
-22.7408
-24.8576
-27.2038
-29.7582
-32.7427
-36.575
-4.46262
-4.72709
-4.99581
-5.28853
-5.60531
-5.94629
-6.31366
-6.71008
-7.13835
-7.60159
-8.10331
-8.64749
-9.23869
-9.88214
-10.5838
-11.3507
-12.1909
-13.1136
-14.1298
-15.2519
-16.4944
-17.8738
-19.4084
-21.1185
-23.0262
-25.1554
-27.5135
-30.0786
-33.0717
-36.9095
-4.59644
-4.86409
-5.13499
-5.43055
-5.75048
-6.09472
-6.46552
-6.86558
-7.29774
-7.76512
-8.27129
-8.82028
-9.41667
-10.0657
-10.7735
-11.547
-12.3944
-13.325
-14.3497
-15.481
-16.7336
-18.1237
-19.6698
-21.3919
-23.312
-25.4536
-27.8236
-30.3993
-33.4008
-37.2442
-4.73029
-5.00108
-5.27417
-5.57261
-5.89572
-6.24326
-6.61751
-7.02124
-7.45729
-7.92885
-8.43949
-8.99328
-9.59487
-10.2496
-10.9635
-11.7436
-12.5982
-13.5366
-14.5699
-15.7105
-16.973
-18.3739
-19.9315
-21.6656
-23.598
-25.752
-28.1337
-30.7199
-33.7298
-37.5786
-4.86414
-5.138
-5.41329
-5.71465
-6.04097
-6.39183
-6.76955
-7.17695
-7.61691
-8.09264
-8.60776
-9.16637
-9.77317
-10.4335
-11.1535
-11.9403
-12.8021
-13.7484
-14.7902
-15.9401
-17.2126
-18.6243
-20.1932
-21.9393
-23.884
-26.0502
-28.4436
-31.0401
-34.0583
-37.9125
-4.99797
-5.27483
-5.5523
-5.85661
-6.18616
-6.54034
-6.92154
-7.33261
-7.77649
-8.25639
-8.77598
-9.33941
-9.95141
-10.6174
-11.3435
-12.1369
-13.0059
-13.9601
-15.0104
-16.1696
-17.4521
-18.8744
-20.4548
-22.2128
-24.1696
-26.348
-28.753
-31.3597
-34.386
-38.2455
-5.13179
-5.41155
-5.69118
-5.99845
-6.33123
-6.68874
-7.0734
-7.48814
-7.93591
-8.41998
-8.94403
-9.51226
-10.1294
-10.801
-11.5332
-12.3333
-13.2095
-14.1715
-15.2303
-16.3987
-17.6912
-19.1243
-20.7159
-22.4858
-24.4548
-26.6452
-29.0616
-31.6784
-34.7127
-38.5773
-5.26563
-5.54818
-5.82992
-6.14015
-6.47615
-6.83695
-7.22505
-7.64343
-8.09507
-8.58327
-9.11175
-9.68476
-10.3071
-10.9843
-11.7226
-12.5293
-13.4127
-14.3825
-15.4498
-16.6274
-17.9298
-19.3735
-20.9764
-22.758
-24.7391
-26.9414
-29.3691
-31.9959
-35.038
-38.9076
-5.39955
-5.68474
-5.96851
-6.28167
-6.62085
-6.98489
-7.37639
-7.79836
-8.25383
-8.74612
-9.27901
-9.85676
-10.4842
-11.167
-11.9113
-12.7246
-13.6152
-14.5928
-15.6686
-16.8553
-18.1676
-19.6219
-21.2361
-23.0293
-25.0223
-27.2364
-29.6752
-32.3118
-35.3616
-39.2361
-5.53366
-5.8213
-6.10699
-6.423
-6.76528
-7.1325
-7.52732
-7.95281
-8.41205
-8.90838
-9.44562
-10.0281
-10.6606
-11.3489
-12.0993
-12.9191
-13.8168
-14.8022
-15.8864
-17.0823
-18.4045
-19.8692
-21.4945
-23.2994
-25.3042
-27.53
-29.9798
-32.626
-35.6832
-39.5626
-5.66809