/*--------------------------------*- C++ -*----------------------------------*\
  =========                 |
  \\      /  F ield         | OpenFOAM: The Open Source CFD Toolbox
   \\    /   O peration     | Website:  https://openfoam.org
    \\  /    A nd           | Version:  6.0
     \\/     M anipulation  |
\*---------------------------------------------------------------------------*/
FoamFile
{
    version     2.0;
    format      ascii;
    class       volVectorField;
    location    "20.51";
    object      U;
}
// * * * * * * * * * * * * * * * * * * * * * * * * * * * * * * * * * * * * * //

dimensions      [0 1 -1 0 0 0 0];

internalField   nonuniform List<vector> 
2400
(
(0.0179278 -0.434444 -1.19695e-20)
(0.00562266 -0.337856 5.34883e-21)
(-0.00376409 -0.265174 -5.94082e-21)
(-0.0106849 -0.210693 -3.86075e-21)
(-0.0151404 -0.169738 -6.73924e-21)
(-0.0172356 -0.138659 9.30286e-21)
(-0.0174141 -0.114702 3.79358e-21)
(-0.0161871 -0.0958308 3.57251e-21)
(-0.0140394 -0.0805558 -8.31307e-21)
(-0.0119503 -0.0678294 -6.38833e-22)
(0.0515666 -0.428116 1.33601e-20)
(0.0320926 -0.330291 -1.36107e-21)
(0.0185005 -0.258507 2.80583e-21)
(0.00953856 -0.205979 3.63963e-20)
(0.00462263 -0.167353 -2.77415e-20)
(0.00320909 -0.138537 -1.45798e-21)
(0.00451871 -0.116501 -3.27698e-22)
(0.00779988 -0.0990151 -3.72126e-21)
(0.0124085 -0.0844404 -6.5855e-21)
(0.0170454 -0.0716842 -2.61338e-21)
(0.0844468 -0.419596 2.4727e-20)
(0.0580782 -0.321911 2.51841e-20)
(0.0412043 -0.252067 -7.27148e-20)
(0.0314278 -0.202266 2.40828e-20)
(0.0274152 -0.166543 4.00706e-20)
(0.028105 -0.140424 -2.3142e-20)
(0.0323408 -0.120635 -2.00116e-20)
(0.0391149 -0.104759 1.88677e-20)
(0.0476246 -0.0909727 -4.30632e-20)
(0.0561483 -0.0781265 4.58146e-20)
(0.116548 -0.409122 -8.65079e-20)
(0.0838782 -0.313183 4.32136e-20)
(0.0648909 -0.246365 -4.28243e-20)
(0.0557047 -0.200016 2.19717e-20)
(0.0540725 -0.167683 -2.55408e-20)
(0.0583393 -0.144606 4.10321e-20)
(0.0669382 -0.127335 2.22643e-20)
(0.0785995 -0.11328 -6.75005e-20)
(0.0923722 -0.100381 -6.62241e-20)
(0.106009 -0.0874042 7.7899e-20)
(0.147896 -0.396919 3.51878e-21)
(0.109946 -0.304482 -1.68479e-20)
(0.0903364 -0.241744 -7.57842e-21)
(0.0833691 -0.199439 -9.3914e-21)
(0.08573 -0.170811 -6.35447e-20)
(0.0951042 -0.15095 1.03996e-20)
(0.109489 -0.136334 -6.98966e-21)
(0.12736 -0.124245 7.38638e-20)
(0.147646 -0.112341 -5.21436e-20)
(0.167475 -0.0992588 -3.80251e-20)
(0.178588 -0.383208 8.39191e-20)
(0.1369 -0.296089 -8.5706e-21)
(0.118534 -0.238359 1.30899e-19)
(0.115667 -0.200471 -1.68857e-20)
(0.123781 -0.175588 8.22281e-20)
(0.139845 -0.158829 -9.4138e-21)
(0.161401 -0.146751 -7.39915e-22)
(0.186687 -0.13661 6.04085e-20)
(0.214571 -0.125773 -3.38495e-20)
(0.241488 -0.112718 6.54676e-20)
(0.208807 -0.36819 -3.18057e-20)
(0.165509 -0.28817 1.12898e-20)
(0.15065 -0.236172 -3.35613e-20)
(0.154016 -0.202771 -4.22694e-20)
(0.16978 -0.181311 -4.49727e-21)
(0.194147 -0.167137 1.39711e-19)
(0.224187 -0.157087 -5.03153e-20)
(0.257917 -0.148574 2.5017e-20)
(0.294249 -0.138766 -8.68553e-20)
(0.328943 -0.125996 -5.54682e-20)
(0.238815 -0.352035 1.5349e-19)
(0.196659 -0.280758 -1.7507e-20)
(0.187937 -0.234936 -1.82899e-19)
(0.199869 -0.205748 1.03297e-20)
(0.225258 -0.18698 4.48069e-20)
(0.25951 -0.174383 -6.69596e-20)
(0.299192 -0.165285 -9.05909e-20)
(0.342107 -0.15754 1.38097e-19)
(0.387393 -0.148353 -1.17082e-20)
(0.430386 -0.1361 -1.28249e-19)
(0.268959 -0.334859 -1.29052e-19)
(0.231285 -0.273708 7.62578e-20)
(0.231605 -0.234192 1.21039e-19)
(0.254544 -0.208625 3.30649e-20)
(0.291524 -0.191448 -1.29691e-19)
(0.337125 -0.178909 8.63322e-20)
(0.387333 -0.168904 5.38989e-20)
(0.439618 -0.159882 1.14288e-19)
(0.493495 -0.149385 -6.99248e-20)
(0.544774 -0.136766 -1.03213e-19)
(0.29963 -0.316643 4.40235e-20)
(0.27024 -0.266629 -1.81079e-20)
(0.282631 -0.233274 -5.90741e-22)
(0.319006 -0.210573 3.7687e-20)
(0.36954 -0.193817 3.22237e-20)
(0.428107 -0.179724 -2.27442e-20)
(0.490182 -0.166531 -4.59813e-20)
(0.552704 -0.15293 7.37914e-20)
(0.614768 -0.136969 -6.2641e-20)
(0.673085 -0.120913 5.78678e-20)
(0.617356 -0.00932375 3.93509e-21)
(0.590901 -0.0552175 1.13605e-20)
(0.56133 -0.0972772 -3.79839e-20)
(0.529592 -0.135463 3.33445e-20)
(0.496521 -0.16988 1.25501e-20)
(0.462837 -0.200773 1.55519e-19)
(0.429109 -0.228488 -5.94958e-20)
(0.395754 -0.253444 -7.96153e-20)
(0.363042 -0.27612 8.24968e-20)
(0.331081 -0.297037 -1.4289e-19)
(0.832605 0.0174083 1.39515e-20)
(0.779868 -0.0411101 -4.49155e-21)
(0.721524 -0.0921718 -3.76584e-20)
(0.659735 -0.135431 9.98462e-20)
(0.596553 -0.170955 -3.33174e-20)
(0.533841 -0.1992 2.50782e-19)
(0.473178 -0.220956 -1.54652e-19)
(0.415804 -0.237284 2.20324e-19)
(0.36259 -0.249447 -1.49796e-19)
(0.314031 -0.258813 -7.63743e-20)
(1.01818 0.0669133 -2.77096e-20)
(0.95473 -0.00077233 4.05884e-21)
(0.882371 -0.0601283 -1.20204e-19)
(0.803771 -0.110226 9.24622e-20)
(0.721676 -0.150678 -9.34257e-20)
(0.638751 -0.181647 -1.74813e-19)
(0.557425 -0.203825 -5.66053e-20)
(0.479755 -0.218389 -4.82687e-20)
(0.407354 -0.226921 1.52993e-19)
(0.341382 -0.231274 7.89231e-20)
(1.16821 0.11693 1.26533e-20)
(1.10407 0.0441636 -2.21398e-20)
(1.02786 -0.0209488 -2.99654e-20)
(0.942202 -0.0769155 -1.17501e-19)
(0.850052 -0.122776 6.85227e-20)
(0.754483 -0.158174 1.97959e-19)
(0.658499 -0.183399 8.52264e-20)
(0.564827 -0.19941 1.65058e-20)
(0.475778 -0.207809 4.5083e-20)
(0.393259 -0.210748 -1.38281e-21)
(1.28287 0.159556 -1.49143e-20)
(1.22428 0.0853916 -5.85849e-20)
(1.15116 0.0174241 7.86438e-21)
(1.06569 -0.0424476 1.01741e-19)
(0.970592 -0.0927432 1.0448e-19)
(0.868947 -0.132529 -6.88389e-20)
(0.76399 -0.161542 -1.28069e-19)
(0.658846 -0.18031 -6.17224e-20)
(0.556313 -0.190244 7.23226e-20)
(0.458908 -0.193718 9.862e-20)
(1.36573 0.192945 3.12495e-21)
(1.31616 0.120246 4.97965e-20)
(1.25054 0.0520034 -1.16585e-19)
(1.17037 -0.00967306 1.45956e-19)
(1.07782 -0.0629201 8.60442e-20)
(0.975636 -0.106277 1.56035e-19)
(0.866914 -0.13887 -3.33624e-20)
(0.754832 -0.160651 -8.86854e-20)
(0.642294 -0.172666 2.0999e-19)
(0.53198 -0.177509 -1.70491e-19)
(1.42187 0.217043 7.66197e-21)
(1.38269 0.147757 -5.98016e-20)
(1.32692 0.0812321 -3.72107e-20)
(1.25529 0.0196016 -7.94488e-20)
(1.16926 -0.0350582 -1.12136e-20)
(1.07095 -0.0808674 -1.16723e-19)
(0.96305 -0.116345 -7.21861e-20)
(0.848428 -0.140744 -1.49286e-20)
(0.729577 -0.154538 -1.30249e-19)
(0.608383 -0.160565 1.84866e-19)
(1.45659 0.232834 -6.7706e-21)
(1.42774 0.168052 5.00073e-20)
(1.38262 0.104572 -2.22508e-20)
(1.32124 0.0443928 4.97231e-20)
(1.24428 -0.010364 1.21928e-19)
(1.15318 -0.057539 1.98368e-19)
(1.04999 -0.0950819 -5.69913e-20)
(0.93707 -0.121389 -1.95139e-19)
(0.81597 -0.135945 5.30493e-20)
(0.686124 -0.141598 -3.03938e-19)
(1.47465 0.24193 9.85671e-21)
(1.4552 0.181967 -1.17592e-20)
(1.42043 0.122134 -1.20601e-19)
(1.36976 0.0641804 3.68351e-20)
(1.30322 0.0101137 -8.54871e-20)
(1.2215 -0.0377895 -3.54489e-20)
(1.12607 -0.0769978 -2.82185e-20)
(1.01878 -0.104863 8.11989e-20)
(0.900223 -0.118982 9.3458e-20)
(0.765415 -0.120413 5.70096e-20)
(1.47979 0.245917 -2.39107e-20)
(1.46836 0.190895 4.28727e-20)
(1.44299 0.134983 2.00327e-20)
(1.40269 0.0795903 6.09966e-20)
(1.34689 0.0264664 -7.00012e-21)
(1.27571 -0.0221955 -4.67336e-21)
(1.19006 -0.0636149 -1.57993e-19)
(1.09169 -0.0942465 2.01583e-19)
(0.981346 -0.109273 -1.24731e-19)
(0.848325 -0.103974 2.60441e-20)
(0.53767 0.49965 -5.45212e-20)
(0.577493 0.46024 6.31273e-20)
(0.610967 0.415391 1.14565e-21)
(0.637422 0.366067 -1.57793e-19)
(0.656353 0.313354 1.17484e-19)
(0.667525 0.258447 -8.83433e-20)
(0.670987 0.202563 -2.15704e-20)
(0.667055 0.146879 -2.05995e-20)
(0.6563 0.0924621 3.41348e-20)
(0.639498 0.0401944 2.37179e-21)
(0.752413 0.673998 8.01052e-20)
(0.812733 0.631613 2.14701e-20)
(0.863681 0.579107 -1.12034e-19)
(0.903713 0.518026 -1.37994e-19)
(0.931579 0.450167 1.09408e-19)
(0.946468 0.377558 -9.84494e-20)
(0.948056 0.302359 1.17658e-19)
(0.936537 0.226762 -3.08593e-20)
(0.912627 0.152868 -1.03435e-19)
(0.877512 0.0825591 -7.77593e-21)
(0.886396 0.754495 -6.06742e-21)
(0.958591 0.718118 2.14119e-21)
(1.02135 0.66941 7.45573e-20)
(1.07257 0.609851 7.56036e-20)
(1.11046 0.541232 1.74061e-19)
(1.13363 0.465643 6.26289e-20)
(1.14121 0.385408 -4.22053e-20)
(1.13288 0.30299 -9.32613e-20)
(1.10893 0.220879 7.56952e-20)
(1.07026 0.141464 5.21486e-21)
(0.967999 0.774278 2.09403e-20)
(1.04604 0.746209 -5.01906e-20)
(1.11588 0.705311 -2.50181e-20)
(1.17512 0.652747 -1.43082e-19)
(1.22166 0.589999 -8.78664e-20)
(1.25373 0.51888 1.6897e-19)
(1.26999 0.441485 1.15344e-19)
(1.26957 0.360131 -9.71575e-20)
(1.25218 0.277275 4.51939e-21)
(1.21812 0.195407 -4.34456e-21)
(1.0162 0.757972 -5.59139e-20)
(1.09597 0.737671 9.64078e-20)
(1.16915 0.705094 -2.51786e-20)
(1.23324 0.661025 7.73377e-20)
(1.28605 0.606557 -5.39888e-20)
(1.32564 0.543121 -1.01797e-19)
(1.3504 0.472442 5.42718e-20)
(1.35906 0.3965 -5.74439e-20)
(1.35082 0.317485 -5.74888e-20)
(1.32536 0.237718 2.52195e-20)
(1.04403 0.722479 -1.01349e-20)
(1.12298 0.708454 1.74232e-20)
(1.19679 0.683304 -1.66179e-20)
(1.263 0.647389 -1.45885e-19)
(1.31949 0.601438 8.42835e-20)
(1.36439 0.546523 1.69616e-20)
(1.39604 0.483997 -9.32715e-20)
(1.41297 0.415463 -3.44585e-20)
(1.41403 0.342749 3.23639e-20)
(1.39843 0.267867 -9.18457e-21)
(1.0601 0.678505 -1.09614e-20)
(1.13707 0.669203 4.96239e-21)
(1.20979 0.65019 2.29249e-20)
(1.27594 0.621332 8.21705e-20)
(1.33375 0.583065 2.09123e-20)
(1.38162 0.5362 5.3385e-20)
(1.41799 0.48179 1.13879e-19)
(1.44142 0.421105 -4.87138e-20)
(1.45058 0.355621 4.57197e-20)
(1.44436 0.286998 -1.72371e-20)
(1.06993 0.632478 -1.2516e-20)
(1.14458 0.626975 1.81414e-20)
(1.21508 0.612973 1.74121e-20)
(1.27952 0.589862 -4.25012e-20)
(1.33671 0.557978 -2.80227e-20)
(1.38547 0.518017 -5.82824e-20)
(1.42449 0.470845 8.29996e-21)
(1.45241 0.417487 -1.37762e-20)
(1.46789 0.359122 -9.7287e-20)
(1.46968 0.297081 1.36958e-20)
(1.07767 0.588742 -1.91242e-21)
(1.14933 0.586793 -1.15058e-20)
(1.21644 0.576804 -1.52077e-20)
(1.27778 0.558048 9.25053e-21)
(1.3329 0.531065 -3.84014e-21)
(1.38099 0.496595 5.16714e-20)
(1.42095 0.455403 2.34368e-20)
(1.45159 0.408342 3.78842e-20)
(1.47161 0.356359 4.66675e-20)
(1.47973 0.300503 -2.00985e-20)
(1.08947 0.5489 -6.93073e-22)
(1.15624 0.548414 1.95328e-20)
(1.21787 0.540897 -5.69816e-20)
(1.27444 0.525214 -4.37334e-21)
(1.32605 0.502056 7.65328e-20)
(1.37203 0.472176 3.73215e-21)
(1.4114 0.436222 4.66561e-20)
(1.44305 0.394861 -1.03581e-19)
(1.46584 0.34882 -1.27108e-21)
(1.47852 0.298887 1.06598e-20)
(0.596887 0.192812 -8.3333e-21)
(0.556125 0.208324 2.93311e-21)
(0.509437 0.226847 9.69264e-22)
(0.456043 0.249529 -1.56877e-20)
(0.39502 0.277857 6.99063e-21)
(0.32586 0.313379 2.07033e-20)
(0.248986 0.357065 -1.92994e-20)
(0.16667 0.407942 -4.96725e-21)
(0.0871201 0.460524 -5.97109e-21)
(0.0323441 0.500385 -2.19636e-20)
(0.619343 0.250477 -2.29427e-20)
(0.580473 0.270806 4.83006e-20)
(0.535715 0.294591 -4.45069e-20)
(0.484608 0.322714 -7.5596e-21)
(0.426282 0.356193 1.25838e-20)
(0.36021 0.395604 -1.48323e-20)
(0.286708 0.440164 -4.19287e-20)
(0.207681 0.485973 4.86937e-20)
(0.130412 0.522774 -7.28138e-23)
(0.0748702 0.528471 2.22343e-20)
(0.649283 0.305319 -7.65014e-20)
(0.613023 0.330232 8.14582e-20)
(0.570887 0.359044 2.83746e-20)
(0.522816 0.392317 1.55078e-21)
(0.467944 0.430591 1.82434e-20)
(0.405598 0.473481 7.17613e-21)
(0.335752 0.518475 -1.19468e-20)
(0.259547 0.558835 -2.64502e-20)
(0.182615 0.579784 -1.93625e-20)
(0.121526 0.552168 2.85687e-20)
(0.686336 0.356351 -6.34033e-20)
(0.653319 0.3855 5.96073e-20)
(0.614433 0.418974 4.78325e-20)
(0.570085 0.456939 -3.27976e-20)
(0.519347 0.499454 -1.20963e-19)
(0.461274 0.545197 3.9121e-20)
(0.395279 0.589995 -2.81481e-20)
(0.321367 0.624451 7.70434e-20)
(0.242861 0.629704 6.80776e-20)
(0.17172 0.570507 -6.02096e-20)
(0.729986 0.402682 -4.55702e-20)
(0.700725 0.435616 2.06779e-20)
(0.665631 0.473258 -5.75522e-20)
(0.625597 0.515289 4.51747e-20)
(0.57956 0.561298 -2.18492e-20)
(0.526176 0.609065 -1.83694e-20)
(0.464094 0.652863 -1.84249e-20)
(0.391851 0.680903 -3.21912e-21)
(0.309911 0.670843 -2.71098e-20)
(0.224644 0.582626 -1.61948e-20)
(0.779551 0.443554 1.14695e-19)
(0.754419 0.479727 2.3339e-20)
(0.723548 0.520909 -7.86274e-20)
(0.688301 0.566218 7.37457e-20)
(0.647386 0.614791 3.37577e-20)
(0.59894 0.663569 5.50467e-20)
(0.540663 0.705418 -3.27524e-21)
(0.469354 0.726498 3.39833e-20)
(0.382201 0.701741 8.2924e-21)
(0.279312 0.587826 3.31506e-20)
(0.834156 0.478374 -1.24901e-19)
(0.813372 0.517143 1.44752e-19)
(0.787033 0.561101 -7.01923e-20)
(0.756914 0.608735 -3.93011e-20)
(0.721377 0.658777 7.14637e-22)
(0.677923 0.7074 -5.39493e-20)
(0.62315 0.746243 3.66389e-20)
(0.551919 0.759829 4.21233e-20)
(0.457896 0.721231 5.72289e-21)
(0.334602 0.585596 -2.49388e-20)
(0.892676 0.506813 -9.03336e-21)
(0.876301 0.547366 -5.67005e-20)
(0.854693 0.593156 2.40728e-20)
(0.829928 0.642003 -5.65624e-21)
(0.799857 0.692284 -1.90826e-20)
(0.761238 0.739476 1.01455e-20)
(0.70946 0.774201 -4.15364e-21)
(0.637337 0.779816 -7.17581e-21)
(0.534951 0.728485 3.66618e-21)
(0.389303 0.575645 -7.86848e-21)
(0.953701 0.529011 2.00457e-20)
(0.941663 0.570306 6.52142e-21)
(0.924992 0.616697 -4.14229e-20)
(0.90573 0.665429 3.27725e-20)
(0.881013 0.714574 -1.61138e-20)
(0.846829 0.758982 -1.87434e-21)
(0.797312 0.78848 -5.92375e-21)
(0.723222 0.785755 -2.03438e-21)
(0.611203 0.723055 -4.69477e-20)
(0.442184 0.557922 2.9918e-20)
(1.01388 0.542663 -2.81754e-20)
(1.00585 0.58386 2.0527e-20)
(0.995206 0.630182 -7.54496e-21)
(0.982064 0.677958 -2.72651e-21)
(0.96266 0.724868 -8.53786e-21)
(0.932409 0.765284 -4.32429e-21)
(0.88427 0.788573 6.18452e-21)
(0.807093 0.777322 3.42398e-20)
(0.684466 0.704861 4.60919e-20)
(0.49207 0.532589 7.21549e-21)
(0.769659 -0.318103 1.41484e-19)
(0.740467 -0.339425 -8.84628e-20)
(0.703359 -0.358819 3.35918e-20)
(0.657711 -0.371203 -7.65689e-20)
(0.59876 -0.37187 -5.02417e-20)
(0.520472 -0.353297 -7.78548e-20)
(0.415257 -0.304571 -9.45703e-20)
(0.273584 -0.21132 -4.33125e-20)
(0.0841535 -0.0553109 -6.00955e-20)
(-0.167467 0.186286 2.98124e-20)
(0.727019 -0.284761 -8.46169e-20)
(0.696735 -0.304652 -7.02024e-20)
(0.657799 -0.323193 1.2132e-19)
(0.610487 -0.335832 5.96467e-20)
(0.551057 -0.337752 8.86674e-20)
(0.474207 -0.321395 -1.4945e-19)
(0.373332 -0.275704 5.15561e-20)
(0.240311 -0.18582 1.05673e-19)
(0.0662234 -0.032349 7.20047e-20)
(-0.158738 0.209891 -7.68741e-20)
(0.687082 -0.245155 3.9843e-20)
(0.654873 -0.263029 -1.61826e-20)
(0.614332 -0.279978 1.71705e-19)
(0.565472 -0.291889 -1.03601e-19)
(0.505274 -0.293994 -8.43726e-20)
(0.429294 -0.278912 4.86894e-20)
(0.332044 -0.235776 -7.23713e-22)
(0.207031 -0.149762 -2.11811e-19)
(0.0480571 -0.00116954 -8.62725e-21)
(-0.149453 0.236144 6.75959e-20)
(0.652154 -0.201202 2.63205e-19)
(0.617603 -0.216292 -1.23047e-19)
(0.575205 -0.230582 4.1377e-20)
(0.524632 -0.240507 -7.06855e-20)
(0.463376 -0.241527 1.84919e-19)
(0.387801 -0.226606 -9.84479e-21)
(0.293567 -0.185347 -3.49201e-20)
(0.175883 -0.103473 5.51149e-21)
(0.0314509 0.0381359 1.74632e-20)
(-0.138784 0.265046 -8.79122e-20)
(0.623021 -0.152816 -2.27373e-19)
(0.586108 -0.164556 -2.48218e-21)
(0.541808 -0.175411 9.24151e-20)
(0.489509 -0.182351 -4.4872e-21)
(0.427095 -0.181181 -1.06337e-20)
(0.351668 -0.165365 1.21631e-19)
(0.259993 -0.12526 -2.2741e-20)
(0.148967 -0.0476519 2.80259e-20)
(0.0181836 0.0850901 5.40571e-21)
(-0.125926 0.296374 1.17225e-19)
(0.600295 -0.100378 8.38171e-21)
(0.561265 -0.108303 -1.33201e-19)
(0.515254 -0.11512 1.2014e-19)
(0.461417 -0.118265 -1.05591e-20)
(0.397956 -0.113957 2.03405e-20)
(0.322634 -0.0962946 -1.02601e-19)
(0.233234 -0.0566524 -1.5347e-20)
(0.128234 0.016641 -7.71643e-21)
(0.00993548 0.138856 -5.37124e-20)
(-0.110115 0.329707 -2.55042e-20)
(0.5845 -0.0446138 1.17067e-19)
(0.54379 -0.048313 -1.11659e-19)
(0.496442 -0.0505978 -5.30477e-21)
(0.441438 -0.0492916 -1.32534e-19)
(0.377245 -0.0410546 7.23921e-20)
(0.302193 -0.020731 -4.58324e-20)
(0.214959 0.0190616 3.84727e-20)
(0.115408 0.0880219 -7.38388e-20)
(0.00820801 0.198273 -6.92357e-20)
(-0.0906697 0.36444 -4.96086e-20)
(0.576042 0.0136006 7.33282e-20)
(0.534232 0.0144623 -7.45249e-20)
(0.486061 0.0170943 3.30464e-20)
(0.430418 0.023363 2.32936e-20)
(0.365983 0.0361513 -4.30042e-20)
(0.291551 0.0597867 7.39474e-20)
(0.206536 0.100223 4.50612e-20)
(0.111926 0.164825 -1.3698e-19)
(0.0142589 0.261902 2.30701e-20)
(-0.0670341 0.399812 5.9757e-20)
(0.575204 0.0732835 7.78351e-20)
(0.53298 0.0789426 -1.18049e-20)
(0.484604 0.0867626 -6.76381e-21)
(0.428968 0.0983531 -5.39246e-22)
(0.364923 0.116135 2.88894e-20)
(0.291616 0.143547 -8.53577e-20)
(0.209008 0.184969 7.0382e-20)
(0.118888 0.24515 5.47645e-21)
(0.0290549 0.328077 -2.58428e-21)
(-0.0388017 0.434939 4.36878e-20)
(0.582142 0.133381 -2.25881e-20)
(0.540259 0.143963 -2.37214e-21)
(0.492366 0.157121 6.27715e-21)
(0.437465 0.174236 6.97433e-21)
(0.374539 0.197264 1.75762e-20)
(0.302969 0.22871 -1.27097e-20)
(0.223058 0.271281 -7.4584e-21)
(0.137027 0.326919 -1.16231e-20)
(0.0532447 0.39495 1.07509e-20)
(-0.00572121 0.468846 -7.8608e-21)
(0.829228 -0.351705 1.40396e-19)
(0.878915 -0.373952 -5.18543e-20)
(0.924554 -0.390803 1.35928e-20)
(0.966329 -0.400374 5.62667e-20)
(1.00435 -0.402839 2.91502e-20)
(1.03773 -0.398606 2.41248e-21)
(1.06511 -0.387881 3.67527e-21)
(1.08495 -0.370875 -1.86779e-21)
(1.0956 -0.347927 -9.68215e-22)
(1.09536 -0.319567 8.85177e-22)
(0.792879 -0.369117 6.47811e-20)
(0.844649 -0.390917 5.2568e-20)
(0.893145 -0.406229 4.90834e-20)
(0.937082 -0.413769 -1.44289e-20)
(0.975776 -0.413526 -1.29572e-20)
(1.00823 -0.405844 -1.12053e-20)
(1.03307 -0.391074 2.38863e-21)
(1.04874 -0.369686 6.11959e-22)
(1.05365 -0.342343 1.55388e-21)
(1.04625 -0.309961 -1.79677e-21)
(0.754211 -0.386054 -1.90553e-19)
(0.805955 -0.405438 1.92508e-20)
(0.854911 -0.41756 -9.29688e-20)
(0.898837 -0.421645 -1.48594e-20)
(0.93636 -0.417563 4.79913e-20)
(0.966157 -0.405627 1.56796e-20)
(0.986761 -0.386355 -5.34681e-22)
(0.996658 -0.360492 -1.53668e-21)
(0.994421 -0.329041 -6.18684e-21)
(0.978872 -0.293299 1.26487e-21)
(0.707743 -0.396906 -5.03056e-20)
(0.75804 -0.413646 -7.35109e-20)
(0.80538 -0.421994 -7.06958e-21)
(0.847197 -0.421726 -2.39963e-20)
(0.8816 -0.412932 -2.52286e-20)
(0.906952 -0.396107 -2.36415e-21)
(0.921717 -0.372037 -3.89762e-21)
(0.924516 -0.341798 -1.73791e-22)
(0.914238 -0.306761 6.22798e-21)
(0.890196 -0.268587 -1.50581e-21)
(0.647489 -0.395525 -1.09178e-19)
(0.695203 -0.409142 1.14642e-19)
(0.739164 -0.413303 6.42005e-21)
(0.776821 -0.408274 -5.58475e-21)
(0.806076 -0.394535 1.3389e-20)
(0.825177 -0.372917 5.35051e-21)
(0.832674 -0.34457 -3.22414e-21)
(0.827462 -0.310942 7.03111e-21)
(0.808885 -0.273761 -1.16271e-21)
(0.776845 -0.234979 -6.35263e-22)
(0.566403 -0.374087 1.56982e-19)
(0.609928 -0.384116 -8.7034e-20)
(0.648612 -0.384063 -2.65261e-20)
(0.680083 -0.374615 -6.13207e-21)
(0.702322 -0.356688 -1.08468e-20)
(0.713717 -0.331516 5.62117e-21)
(0.713095 -0.300632 -3.80355e-21)
(0.699777 -0.265828 -3.19024e-21)
(0.673655 -0.2291 2.01897e-21)
(0.635252 -0.19255 2.76808e-21)
(0.455749 -0.322121 2.5576e-20)
(0.49267 -0.328813 1.59196e-20)
(0.523833 -0.325521 3.23996e-21)
(0.547164 -0.313297 -1.01067e-20)
(0.56094 -0.293456 3.1068e-20)
(0.563904 -0.26759 1.52565e-21)
(0.55532 -0.237534 -9.43348e-22)
(0.535028 -0.205288 5.04551e-22)
(0.503477 -0.172933 2.90419e-21)
(0.461726 -0.142509 -2.10676e-21)
(0.304718 -0.22628 7.3925e-20)
(0.33172 -0.23132 5.30661e-20)
(0.352748 -0.22752 -8.93169e-20)
(0.366151 -0.216188 -1.67433e-20)
(0.370666 -0.198878 -3.00458e-20)
(0.365524 -0.177357 -1.69689e-21)
(0.350492 -0.153535 -6.89903e-21)
(0.325902 -0.129366 9.03907e-21)
(0.292634 -0.106747 -6.21347e-23)
(0.252061 -0.0873971 4.49195e-21)
(0.100063 -0.0703013 -1.35051e-20)
(0.112486 -0.0779288 -8.82125e-20)
(0.120109 -0.0793098 6.69418e-20)
(0.121856 -0.075726 -2.27379e-20)
(0.117027 -0.0686177 2.95096e-20)
(0.105356 -0.0595376 -1.72927e-21)
(0.0870257 -0.0500689 -5.48681e-21)
(0.0626537 -0.041733 6.50312e-23)
(0.0332504 -0.0358979 -4.52598e-22)
(0.000132815 -0.0337048 -2.30242e-21)
(-0.176475 0.165041 -1.36139e-20)
(-0.18603 0.146127 4.61835e-20)
(-0.196724 0.128895 -1.92275e-20)
(-0.20888 0.112703 6.02056e-21)
(-0.222617 0.0968976 -5.65131e-21)
(-0.237848 0.0808199 -1.63194e-21)
(-0.254283 0.0638433 9.40231e-22)
(-0.271452 0.0454188 4.65283e-21)
(-0.288748 0.0251111 -2.21563e-21)
(-0.305482 0.00260874 -8.02406e-22)
(1.08258 -0.286589 1.48095e-21)
(1.05599 -0.250191 -7.33167e-21)
(1.01488 -0.212018 4.07284e-20)
(0.959405 -0.174198 -2.97175e-20)
(0.890745 -0.139281 3.52228e-21)
(0.811099 -0.110073 -3.0573e-20)
(0.72336 -0.0893468 1.53361e-19)
(0.630261 -0.0794269 7.81447e-21)
(0.530448 -0.082206 -4.59252e-20)
(0.4125 -0.0941156 1.03714e-19)
(1.02525 -0.273761 4.93119e-21)
(0.989888 -0.235374 -1.48978e-20)
(0.940128 -0.196799 -1.51866e-20)
(0.87685 -0.160357 -1.12974e-20)
(0.801901 -0.128543 -3.26867e-20)
(0.71791 -0.103793 -7.74477e-22)
(0.62778 -0.088151 -1.00334e-20)
(0.533666 -0.0827869 2.83523e-20)
(0.43441 -0.0875206 9.15325e-20)
(0.324394 -0.0958381 -2.01932e-20)
(0.94921 -0.254867 -3.35204e-21)
(0.905326 -0.215704 3.00134e-20)
(0.847917 -0.178002 7.94908e-21)
(0.778554 -0.144072 -1.65625e-21)
(0.69962 -0.11615 3.56341e-20)
(0.614015 -0.0961225 1.54868e-20)
(0.524619 -0.0851814 3.01135e-20)
(0.433463 -0.0833442 -3.27017e-20)
(0.340479 -0.0888661 -6.53212e-20)
(0.244392 -0.0952755 -1.53644e-19)
(0.852208 -0.229186 4.13746e-21)
(0.800879 -0.190718 -1.32109e-20)
(0.737613 -0.155398 1.94142e-20)
(0.664565 -0.125347 -4.41871e-20)
(0.584485 -0.102386 -2.62502e-20)
(0.500391 -0.0877726 -1.24308e-20)
(0.415084 -0.0819051 -6.32341e-20)
(0.330607 -0.0839829 -2.9289e-20)
(0.247811 -0.091648 3.54475e-21)
(0.167576 -0.0997341 4.76286e-20)
(0.731828 -0.196692 2.06718e-21)
(0.675116 -0.161088 -3.28402e-23)
(0.608701 -0.130214 1.28135e-20)
(0.535129 -0.105835 3.9598e-20)
(0.4573 -0.0892462 -6.70705e-21)
(0.378154 -0.0810649 -5.88289e-20)
(0.300292 -0.0810358 9.92404e-20)
(0.225664 -0.0878523 -3.02997e-20)
(0.155504 -0.0990383 -2.28425e-20)
(0.0912534 -0.110629 -1.07897e-20)
(0.585664 -0.158273 -5.68383e-21)
(0.526704 -0.128279 6.07512e-21)
(0.460735 -0.104268 2.01465e-20)
(0.390436 -0.087519 -1.93822e-20)
(0.318606 -0.0787574 3.86828e-20)
(0.247905 -0.0780264 -4.71449e-21)
(0.18059 -0.0845889 3.70679e-21)
(0.118353 -0.0968795 2.50355e-20)
(0.0623902 -0.112535 1.96409e-20)
(0.0139435 -0.128481 6.3511e-21)
(0.411311 -0.115891 8.41713e-22)
(0.354325 -0.0947053 -1.15061e-21)
(0.293213 -0.0801622 2.88063e-20)
(0.230499 -0.0729977 -3.45091e-20)
(0.16864 -0.0734026 -6.59537e-20)
(0.10984 -0.0809722 3.18718e-20)
(0.0558909 -0.0946851 -1.68835e-20)
(0.00811433 -0.112926 1.81294e-20)
(-0.0325572 -0.133579 5.10386e-20)
(-0.0653022 -0.154225 -5.52439e-20)
(0.205877 -0.072759 -8.9739e-22)
(0.156133 -0.0638984 -1.80054e-20)
(0.105027 -0.0614756 2.56214e-20)
(0.0546551 -0.0657119 1.58892e-20)
(0.00692764 -0.0763776 -4.84611e-20)
(-0.0365347 -0.0928006 -3.81888e-20)
(-0.074469 -0.113888 -2.71483e-21)
(-0.105974 -0.138167 5.93833e-21)
(-0.130444 -0.163876 7.79422e-21)
(-0.147442 -0.189138 -2.15255e-20)
(-0.0352255 -0.036003 1.51892e-21)
(-0.0712015 -0.0431787 2.49774e-20)
(-0.106186 -0.0553991 1.03906e-20)
(-0.138756 -0.0725034 -3.40214e-20)
(-0.167701 -0.0940326 3.38252e-20)
(-0.19206 -0.119275 -4.44933e-20)
(-0.211124 -0.147294 5.83013e-20)
(-0.22441 -0.17696 -7.0179e-20)
(-0.231618 -0.206994 -3.71919e-20)
(-0.232574 -0.236073 -1.00207e-19)
(-0.320906 -0.0223011 -4.40316e-22)
(-0.3343 -0.049272 -7.32195e-21)
(-0.345049 -0.0782211 5.44158e-21)
(-0.352629 -0.108862 6.4976e-21)
(-0.356655 -0.140794 -1.46943e-20)
(-0.356871 -0.173548 1.45389e-20)
(-0.353125 -0.206601 -1.78117e-20)
(-0.345342 -0.239379 1.3831e-20)
(-0.333501 -0.271273 -3.51058e-20)
(-0.317605 -0.301672 3.87425e-20)
(-0.297572 -0.329954 5.54498e-20)
(-0.22726 -0.262996 -4.15626e-20)
(-0.156691 -0.212366 -4.31183e-20)
(-0.0891911 -0.172855 5.79787e-20)
(-0.0249286 -0.141981 -5.30454e-21)
(0.0366585 -0.118378 6.89619e-20)
(0.0957684 -0.100753 7.82153e-21)
(0.152653 -0.0882095 -6.18431e-20)
(0.208651 -0.0808093 1.13948e-19)
(0.263009 -0.0753998 -1.57067e-20)
(-0.274056 -0.355238 -5.8562e-20)
(-0.216187 -0.28678 1.60259e-19)
(-0.158364 -0.232685 -6.72073e-21)
(-0.103682 -0.18897 -5.29357e-20)
(-0.0522341 -0.153463 4.19946e-20)
(-0.00336022 -0.124755 -9.5605e-20)
(0.0433474 -0.10146 1.10136e-19)
(0.0885227 -0.0825863 -9.29718e-20)
(0.133683 -0.0683666 1.6833e-20)
(0.177176 -0.0582021 7.25721e-20)
(-0.247457 -0.377417 3.36217e-20)
(-0.200095 -0.306992 -1.00952e-19)
(-0.153335 -0.249659 3.50705e-20)
(-0.109773 -0.202419 -1.94077e-20)
(-0.0692909 -0.16339 3.58701e-20)
(-0.0310854 -0.131253 -2.68453e-20)
(0.00540879 -0.104807 -2.54946e-20)
(0.0408751 -0.0833129 3.455e-20)
(0.0763186 -0.0670306 -8.05661e-20)
(0.109743 -0.0558214 1.20976e-19)
(-0.218252 -0.396291 -7.17536e-20)
(-0.179911 -0.323358 7.86376e-21)
(-0.142835 -0.263004 3.67347e-20)
(-0.108988 -0.212931 4.98207e-20)
(-0.0780217 -0.17144 -7.61903e-20)
(-0.049051 -0.137261 6.31878e-21)
(-0.0214828 -0.109298 -4.25303e-20)
(0.00525585 -0.0868975 -8.9195e-20)
(0.0317853 -0.0701195 1.70015e-19)
(0.056415 -0.0586589 6.50976e-20)
(-0.186974 -0.411727 5.02853e-20)
(-0.15661 -0.335746 1.14948e-20)
(-0.128129 -0.272569 4.48261e-20)
(-0.10283 -0.220262 -5.4677e-21)
(-0.0801485 -0.177145 5.93402e-20)
(-0.0591693 -0.141867 2.91711e-20)
(-0.03933 -0.113279 7.4542e-20)
(-0.0201882 -0.0906148 -7.57403e-20)
(-0.0013655 -0.0736128 -7.81278e-21)
(0.0158433 -0.0617766 -8.51688e-20)
(-0.154153 -0.423676 3.3349e-20)
(-0.131117 -0.344182 -3.92938e-20)
(-0.110385 -0.278383 -8.81915e-21)
(-0.0926403 -0.224365 -1.53677e-20)
(-0.0771504 -0.180277 -1.68588e-20)
(-0.063013 -0.144559 -2.14576e-20)
(-0.0497329 -0.115894 3.50302e-20)
(-0.0369928 -0.0933128 -4.67899e-20)
(-0.0245795 -0.0762357 4.22367e-20)
(-0.0134585 -0.0640105 5.54881e-21)
(-0.12028 -0.432165 -5.79715e-20)
(-0.104249 -0.348849 -2.92425e-20)
(-0.0906016 -0.280681 5.08056e-20)
(-0.0795219 -0.225438 -1.89359e-20)
(-0.0701837 -0.180926 2.80728e-20)
(-0.0617474 -0.145272 -8.50156e-20)
(-0.0538167 -0.116914 6.49665e-20)
(-0.0461983 -0.0946563 -2.43631e-20)
(-0.0388135 -0.0776559 4.40475e-20)
(-0.0324064 -0.06514 -5.32085e-20)
(-0.0858015 -0.437296 2.67266e-20)
(-0.076691 -0.350073 -1.14969e-20)
(-0.0695718 -0.279887 -1.77343e-20)
(-0.0643097 -0.223923 -7.11779e-21)
(-0.0600817 -0.179494 3.93798e-21)
(-0.0561694 -0.144337 1.18405e-20)
(-0.0523122 -0.116606 -2.91834e-20)
(-0.0484542 -0.0948806 1.77948e-20)
(-0.0446459 -0.0781105 5.46015e-20)
(-0.041526 -0.065429 -5.28304e-20)
(-0.0510987 -0.439247 2.00424e-20)
(-0.0489758 -0.348299 5.22537e-23)
(-0.0478775 -0.27658 2.75722e-20)
(-0.0475825 -0.22045 -2.38091e-20)
(-0.0473913 -0.17662 7.37194e-21)
(-0.0467753 -0.14238 -8.24808e-21)
(-0.0456558 -0.115586 -4.68578e-21)
(-0.044137 -0.0945994 -2.72829e-20)
(-0.0424051 -0.0782067 2.97609e-20)
(-0.041106 -0.0654662 3.10418e-20)
(-0.0164648 -0.438242 -3.53752e-21)
(-0.0214674 -0.344049 -3.0199e-21)
(-0.0258862 -0.271435 -2.71739e-21)
(-0.0296749 -0.215772 -1.04228e-20)
(-0.0323993 -0.173087 1.12616e-20)
(-0.033802 -0.140201 4.11175e-21)
(-0.0340381 -0.11466 -8.82708e-21)
(-0.033401 -0.0946243 5.4294e-22)
(-0.0322217 -0.078738 -5.34779e-21)
(-0.0312613 -0.0660012 -3.64469e-22)
(-0.0105304 -0.0343702 -1.1014e-21)
(-0.00108224 -0.0360686 -1.09711e-21)
(0.0511157 -0.0373726 2.46064e-21)
(0.0997997 -0.0418874 -1.63769e-21)
(0.160086 -0.0454975 -5.1536e-22)
(0.218073 -0.0465935 -1.00167e-21)
(0.275699 -0.0444434 3.47176e-22)
(0.330003 -0.0382779 -4.23303e-22)
(0.381643 -0.0280168 2.12824e-22)
(0.430491 -0.0149031 4.087e-23)
(0.477317 -0.00200601 -2.26362e-22)
(0.522934 0.00642579 5.50459e-23)
(0.566906 0.00318253 -5.27918e-23)
(0.610355 -0.00999899 -1.12243e-22)
(0.6442 -0.0383177 1.87684e-23)
(0.674218 -0.0515242 -2.79455e-23)
(0.685568 -0.0498516 1.11307e-23)
(0.713368 -0.0106698 5.3328e-24)
(0.720123 0.0411255 -1.199e-23)
(0.777818 0.0193225 2.19941e-24)
(0.0244188 -0.0366021 5.14726e-21)
(0.0360524 -0.0467227 3.85669e-21)
(0.0911602 -0.0502591 -3.64677e-21)
(0.139883 -0.0554193 1.98274e-21)
(0.198399 -0.0585482 -3.8256e-21)
(0.253634 -0.0584516 -1.71768e-22)
(0.307753 -0.0549755 -3.55102e-22)
(0.358268 -0.0475057 -6.42221e-22)
(0.406148 -0.0361234 4.38594e-22)
(0.451685 -0.0220634 1.36949e-22)
(0.496024 -0.00842667 5.24142e-23)
(0.540104 0.000679334 4.49063e-22)
(0.583556 -0.00196495 -4.92769e-22)
(0.626287 -0.0141633 -9.99531e-23)
(0.659475 -0.0414058 7.37896e-23)
(0.686201 -0.0533624 4.36473e-23)
(0.694559 -0.0513801 -8.09166e-23)
(0.717324 -0.0120456 7.21357e-23)
(0.723294 0.0388222 2.7603e-23)
(0.782347 0.0172565 -3.43073e-24)
(0.0722965 -0.0411066 -1.78298e-20)
(0.0866024 -0.0581236 2.43274e-21)
(0.144525 -0.0632344 1.7111e-20)
(0.19251 -0.0684996 -8.5207e-21)
(0.248018 -0.0709018 -1.08552e-21)
(0.299314 -0.0695444 -3.76142e-21)
(0.348806 -0.0647616 -1.92765e-23)
(0.394552 -0.0560714 -1.34513e-21)
(0.437797 -0.0436882 -4.29698e-22)
(0.479205 -0.0288216 -3.42345e-22)
(0.520271 -0.0145737 -7.02259e-23)
(0.562017 -0.00488496 4.10807e-23)
(0.604172 -0.00694336 4.96537e-22)
(0.645446 -0.0181265 -2.16107e-22)
(0.677426 -0.0442075 -1.56436e-22)
(0.700552 -0.0548891 1.40162e-22)
(0.705846 -0.0526054 -2.08622e-23)
(0.723405 -0.0132472 -3.80058e-23)
(0.7285 0.0364912 -9.01656e-23)
(0.788285 0.0151606 9.1197e-25)
(0.13318 -0.0482925 -4.85349e-21)
(0.150231 -0.0701575 1.88943e-20)
(0.210132 -0.0760433 -8.88823e-21)
(0.256316 -0.0808328 -4.73421e-21)
(0.307508 -0.0822805 3.75896e-21)
(0.353727 -0.0796412 -6.7326e-22)
(0.397606 -0.073615 1.57111e-21)
(0.437761 -0.0638223 -5.23179e-22)
(0.475659 -0.0505794 1.36309e-21)
(0.512274 -0.0350578 6.32193e-22)
(0.549406 -0.0203336 -1.36857e-21)
(0.588112 -0.0101616 1.84288e-22)
(0.628255 -0.011662 -4.40399e-23)
(0.667393 -0.0218234 3.59059e-22)
(0.697655 -0.0466892 8.40528e-23)
(0.716955 -0.056095 -9.81261e-23)
(0.719189 -0.0535207 -6.82905e-23)