/*--------------------------------*- C++ -*----------------------------------*\
  =========                 |
  \\      /  F ield         | OpenFOAM: The Open Source CFD Toolbox
   \\    /   O peration     | Website:  https://openfoam.org
    \\  /    A nd           | Version:  6.0
     \\/     M anipulation  |
\*---------------------------------------------------------------------------*/
FoamFile
{
    version     2.0;
    format      ascii;
    class       volVectorField;
    location    "5.25";
    object      U;
}
// * * * * * * * * * * * * * * * * * * * * * * * * * * * * * * * * * * * * * //

dimensions      [0 1 -1 0 0 0 0];

internalField   nonuniform List<vector> 
19200
(
(0.81603 -19.4715 -8.75564e-20)
(0.224335 -18.6862 4.23242e-20)
(0.216245 -17.976 1.93916e-20)
(0.255756 -17.32 1.70069e-20)
(0.259169 -16.7067 1.84587e-20)
(0.261747 -16.1232 1.1288e-21)
(0.266568 -15.5622 2.53782e-20)
(0.270818 -15.02 -1.73088e-21)
(0.274132 -14.495 2.13506e-20)
(0.276637 -13.9867 8.71704e-21)
(0.278392 -13.495 2.20302e-22)
(0.279474 -13.02 1.33473e-20)
(0.279985 -12.5616 2.11161e-20)
(0.280029 -12.1197 -1.40708e-20)
(0.279701 -11.6943 1.75622e-20)
(0.279081 -11.2849 1.46167e-20)
(0.278238 -10.8912 -1.36475e-20)
(0.277228 -10.5127 2.26147e-20)
(0.276097 -10.1489 -1.42434e-20)
(0.274885 -9.79929 7.02746e-21)
(0.273631 -9.46333 9.52735e-21)
(0.272369 -9.14045 -3.02512e-21)
(0.271136 -8.83005 4.05831e-21)
(0.26997 -8.53149 -4.56523e-21)
(0.268906 -8.24407 -1.43371e-22)
(0.267959 -7.96704 2.2327e-21)
(0.267114 -7.69955 -1.52359e-21)
(0.266506 -7.44079 9.10619e-22)
(0.26657 -7.18993 2.07646e-21)
(0.266092 -6.94623 7.77904e-21)
(1.32427 -19.4434 -1.91765e-20)
(0.714496 -18.679 1.28192e-19)
(0.688107 -17.973 -6.77427e-20)
(0.710301 -17.3184 -9.01588e-20)
(0.697581 -16.7065 -3.96144e-20)
(0.684827 -16.1237 -2.77555e-20)
(0.674882 -15.5627 -5.93656e-20)
(0.664845 -15.0203 7.78477e-21)
(0.654316 -14.495 -1.23957e-20)
(0.643415 -13.9863 -4.22942e-20)
(0.632205 -13.4941 -1.00972e-19)
(0.620764 -13.0187 4.80288e-20)
(0.6092 -12.5599 -1.77449e-20)
(0.597614 -12.1178 6.69379e-21)
(0.586096 -11.6922 -3.85593e-20)
(0.574719 -11.2827 -1.36377e-20)
(0.563538 -10.8888 1.65907e-21)
(0.552598 -10.5103 4.4645e-20)
(0.541928 -10.1465 -2.37877e-20)
(0.531556 -9.79686 -1.29677e-20)
(0.521501 -9.46095 -4.82742e-20)
(0.511784 -9.13815 1.22581e-20)
(0.502428 -8.82789 -7.40161e-21)
(0.493453 -8.5295 1.28283e-20)
(0.484876 -8.24232 -5.73505e-21)
(0.476694 -7.96555 -8.79128e-21)
(0.468869 -7.69837 2.92899e-21)
(0.461548 -7.4399 4.26727e-21)
(0.455227 -7.18925 -7.63753e-21)
(0.448441 -6.94567 3.45284e-21)
(1.83293 -19.4032 -8.91705e-21)
(1.20417 -18.6592 2.62836e-20)
(1.15966 -17.9575 4.25671e-20)
(1.16477 -17.3048 3.11486e-19)
(1.13604 -16.6946 -1.75935e-19)
(1.10801 -16.1128 1.60591e-19)
(1.08332 -15.5523 9.71464e-20)
(1.059 -15.0101 7.31442e-20)
(1.03462 -14.4847 -6.7321e-20)
(1.01029 -13.976 -5.45651e-21)
(0.986096 -13.4837 1.63352e-19)
(0.962114 -13.0082 2.59444e-20)
(0.938457 -12.5495 -7.2346e-20)
(0.915228 -12.1075 5.63468e-20)
(0.892511 -11.6819 4.56421e-22)
(0.870369 -11.2725 2.28143e-20)
(0.848846 -10.8789 1.6016e-20)
(0.827973 -10.5006 5.19928e-20)
(0.807765 -10.137 -2.31786e-20)
(0.788232 -9.78764 -7.60931e-21)
(0.76938 -9.45201 -1.8587e-20)
(0.751215 -9.12953 8.06883e-20)
(0.733742 -8.81961 -6.65399e-20)
(0.716967 -8.52162 2.14692e-20)
(0.700893 -8.23486 9.17634e-21)
(0.685493 -7.95858 -3.79176e-20)
(0.670705 -7.6919 4.98328e-20)
(0.656688 -7.43393 -5.42179e-21)
(0.643994 -7.18371 -5.47294e-21)
(0.630882 -6.94048 -3.55514e-20)
(2.33966 -19.35 -3.09753e-19)
(1.69261 -18.6267 -2.72213e-19)
(1.63042 -17.9297 -3.26236e-19)
(1.61877 -17.2792 1.18227e-20)
(1.57421 -16.6712 2.03182e-20)
(1.53098 -16.0909 -3.49204e-19)
(1.49159 -15.5312 1.70655e-20)
(1.453 -14.9895 4.35018e-20)
(1.41476 -14.4645 -8.1489e-21)
(1.377 -13.956 7.03387e-20)
(1.33981 -13.464 -2.76403e-19)
(1.30327 -12.9888 -1.65389e-19)
(1.26752 -12.5304 6.28868e-20)
(1.23264 -12.0887 1.17348e-19)
(1.19872 -11.6636 -1.36027e-19)
(1.16582 -11.2547 -2.07121e-20)
(1.13396 -10.8615 -7.66807e-20)
(1.10316 -10.4836 -3.51142e-20)
(1.07342 -10.1205 5.75114e-20)
(1.04473 -9.77171 -7.2555e-20)
(1.0171 -9.43659 6.13892e-20)
(0.990493 -9.11465 -7.25391e-20)
(0.964917 -8.8053 -5.51958e-20)
(0.940358 -8.5079 -3.84708e-20)
(0.916806 -8.22179 -1.15644e-20)
(0.894205 -7.94616 -7.65615e-20)
(0.872482 -7.6802 7.91729e-21)
(0.851796 -7.42293 1.30717e-20)
(0.832751 -7.17333 -3.70921e-20)
(0.813305 -6.93067 8.28941e-21)
(2.84502 -19.2839 -1.82995e-19)
(2.18009 -18.5817 2.61639e-20)
(2.10035 -17.8897 2.27539e-19)
(2.07208 -17.2419 2.3179e-19)
(2.01181 -16.6364 1.63413e-19)
(1.95346 -16.0578 6.64506e-20)
(1.89941 -15.4994 1.00753e-19)
(1.84655 -14.9585 4.46403e-19)
(1.79446 -14.4342 -2.66667e-19)
(1.74327 -13.9263 8.39551e-21)
(1.69308 -13.4349 6.25484e-20)
(1.644 -12.9603 2.54811e-19)
(1.59614 -12.5026 -1.70631e-19)
(1.54962 -12.0616 1.19392e-19)
(1.50451 -11.6372 -1.28575e-19)
(1.46085 -11.229 2.17162e-19)
(1.41867 -10.8366 -6.34489e-20)
(1.37795 -10.4595 2.3826e-21)
(1.33869 -10.0971 9.59394e-20)
(1.30087 -9.74903 6.49456e-20)
(1.26447 -9.41467 -6.62468e-20)
(1.22944 -9.09349 8.7126e-20)
(1.19579 -8.78491 -3.82994e-20)
(1.16347 -8.48833 4.411e-20)
(1.13245 -8.20304 5.70466e-20)
(1.10269 -7.9283 1.97361e-20)
(1.07405 -7.66324 5.98443e-20)
(1.04674 -7.40688 -2.28884e-20)
(1.02137 -7.15811 -7.8556e-21)
(0.99559 -6.91624 -3.34099e-20)
(3.34844 -19.2049 -1.31581e-19)
(2.66625 -18.5243 -8.57652e-20)
(2.56914 -17.8376 -2.54186e-19)
(2.5244 -17.1927 -6.44943e-19)
(2.44855 -16.5901 2.18296e-19)
(2.37516 -16.0137 1.33759e-20)
(2.30648 -15.4567 -1.39481e-19)
(2.23939 -14.9171 2.44653e-20)
(2.17346 -14.3939 -2.14626e-20)
(2.10884 -13.8869 -3.29084e-19)
(2.04566 -13.3965 1.38824e-19)
(1.98403 -12.9229 2.29345e-19)
(1.92409 -12.4661 1.16573e-21)
(1.86594 -12.0261 8.11269e-20)
(1.80965 -11.6027 1.93946e-19)
(1.75526 -11.1956 -1.31268e-19)
(1.70276 -10.8042 2.25574e-19)
(1.65216 -10.4281 -1.05245e-19)
(1.6034 -10.0667 1.81728e-19)
(1.55647 -9.71965 -1.34715e-19)
(1.51131 -9.38627 5.88065e-20)
(1.4679 -9.06607 1.47976e-19)
(1.42618 -8.75848 5.75126e-21)
(1.38613 -8.46291 -1.33361e-19)
(1.34769 -8.17866 7.35105e-20)
(1.31078 -7.905 8.01617e-21)
(1.27528 -7.64104 -2.21788e-20)
(1.24137 -7.38578 8.31593e-20)
(1.20972 -7.13805 2.78896e-20)
(1.17762 -6.89719 -2.84069e-20)
(3.84971 -19.113 3.6568e-19)
(3.15086 -18.4543 -1.44127e-20)
(3.03658 -17.7733 -5.12547e-19)
(2.97548 -17.1318 1.04862e-19)
(2.88415 -16.5324 -1.37144e-19)
(2.7958 -15.9584 1.05349e-19)
(2.71253 -15.4034 2.17614e-19)
(2.63123 -14.8653 3.815e-19)
(2.55148 -14.3435 -4.02168e-19)
(2.47345 -13.8379 9.90232e-20)
(2.39729 -13.3488 -6.37256e-20)
(2.32314 -12.8764 4.60959e-20)
(2.25113 -12.4209 -2.06367e-19)
(2.18137 -11.9823 -1.15694e-20)
(2.11393 -11.5602 3.12865e-19)
(2.04882 -11.1544 -2.15723e-19)
(1.98605 -10.7643 -1.31662e-19)
(1.92557 -10.3895 -9.12114e-20)
(1.86735 -10.0294 1.66506e-19)
(1.81133 -9.68356 3.40154e-20)
(1.75746 -9.3514 -1.56034e-19)
(1.70568 -9.0324 2.02162e-19)
(1.65593 -8.72601 -1.80776e-19)
(1.60818 -8.43166 1.15699e-19)
(1.56235 -8.14865 -6.54323e-20)
(1.51835 -7.87625 4.05495e-20)
(1.47602 -7.6136 2.90436e-20)
(1.43556 -7.35965 -1.32153e-19)
(1.39767 -7.11315 5.58883e-20)
(1.35927 -6.87354 7.17484e-22)
(4.34847 -19.0081 -3.55396e-19)
(3.63362 -18.3718 2.89984e-19)
(3.50235 -17.697 -5.12867e-19)
(3.42503 -17.0591 9.75318e-19)
(3.31833 -16.4633 -2.68822e-19)
(3.21508 -15.8922 3.67467e-19)
(3.11728 -15.3394 -1.00853e-20)
(3.0218 -14.8033 -5.37577e-20)
(2.92826 -14.2832 -6.87657e-20)
(2.83684 -13.7792 1.1738e-21)
(2.74772 -13.2917 -2.55895e-19)
(2.66107 -12.821 1.34552e-19)
(2.57702 -12.3671 -1.53935e-19)
(2.49568 -11.9301 -1.2952e-20)
(2.41712 -11.5097 -4.13997e-19)
(2.34133 -11.1054 1.36225e-19)
(2.26831 -10.717 7.37493e-20)
(2.198 -10.3437 -8.46514e-20)
(2.13035 -9.98517 -1.01816e-20)
(2.06528 -9.6408 -1.22926e-19)
(2.00272 -9.31008 -4.28072e-20)
(1.94261 -8.9925 2.55057e-21)
(1.88488 -8.68754 -1.00712e-19)
(1.82946 -8.3946 -1.44838e-19)
(1.77628 -8.11303 6.87334e-21)
(1.72523 -7.84211 -1.62877e-20)
(1.67612 -7.58094 4.27938e-20)
(1.62917 -7.32849 -1.03438e-19)
(1.58509 -7.08343 8.64178e-20)
(1.54043 -6.84529 -1.62002e-19)
(4.84438 -18.8902 -8.76972e-19)
(4.11422 -18.2769 1.03637e-18)
(3.96619 -17.6086 -1.07048e-18)
(3.87276 -16.9748 -2.81068e-19)
(3.75081 -16.3829 -1.72575e-19)
(3.63274 -15.8149 -1.86042e-19)
(3.52044 -15.2647 -1.69674e-19)
(3.41083 -14.7308 -3.93066e-20)
(3.30352 -14.2129 -1.68126e-19)
(3.19874 -13.7109 -3.17709e-20)
(3.0967 -13.2254 2.60276e-19)
(2.99757 -12.7566 -1.54538e-19)
(2.90152 -12.3047 -1.72377e-19)
(2.80864 -11.8696 -2.7941e-19)
(2.71899 -11.4511 5.8083e-19)
(2.63257 -11.0488 -2.18174e-19)
(2.54935 -10.6622 7.99558e-20)
(2.46925 -10.2908 -2.89065e-19)
(2.3922 -9.93402 1.11769e-19)
(2.31812 -9.59138 -4.28288e-20)
(2.24693 -9.26234 5.59548e-20)
(2.17853 -8.94641 -1.73768e-20)
(2.11284 -8.64307 1.61581e-19)
(2.04981 -8.35175 -5.62261e-20)
(1.98933 -8.07183 1.51826e-19)
(1.93127 -7.80255 -2.6314e-20)
(1.87544 -7.54308 1.91909e-19)
(1.82205 -7.29232 4.97512e-20)
(1.77185 -7.0489 9.16122e-20)
(1.72097 -6.81247 -2.83519e-19)
(5.33713 -18.7595 1.38475e-18)
(4.59234 -18.1695 -2.68554e-19)
(4.42779 -17.5081 4.5645e-19)
(4.3184 -16.8788 -1.25763e-19)
(4.18129 -16.2912 4.42508e-19)
(4.04848 -15.7267 4.05912e-19)
(3.92175 -15.1794 4.4809e-19)
(3.79804 -14.6482 -3.34595e-20)
(3.677 -14.1326 -4.10487e-19)
(3.5589 -13.633 6.00445e-19)
(3.44398 -13.1498 -3.90757e-20)
(3.33242 -12.6833 4.04204e-19)
(3.2244 -12.2337 1.42737e-19)
(3.12002 -11.8009 5.36853e-20)
(3.01934 -11.3846 7.92468e-20)
(2.92233 -10.9845 1.09557e-19)
(2.82895 -10.6001 1.74942e-19)
(2.73911 -10.2307 -4.78778e-20)
(2.65272 -9.87601 2.466e-19)
(2.56968 -9.53534 1.08695e-19)
(2.48989 -9.20822 -2.24966e-19)
(2.41325 -8.89415 3.90218e-19)
(2.33967 -8.59264 -5.0494e-19)
(2.26906 -8.30315 4.67313e-19)
(2.20133 -8.02505 -1.52311e-19)
(2.13631 -7.75763 3.03222e-20)
(2.07382 -7.50005 -1.90721e-19)
(2.01407 -7.25117 1.06551e-19)
(1.95781 -7.00958 3.64839e-20)
(1.90076 -6.77508 -4.33941e-20)
(5.82636 -18.6161 -7.84172e-19)
(5.06767 -18.0497 7.37486e-19)
(4.88684 -17.3957 -1.99224e-19)
(4.76163 -16.7711 5.60689e-19)
(4.6095 -16.1881 5.56626e-20)
(4.46202 -15.6275 1.0631e-19)
(4.32092 -15.0835 -9.08412e-19)
(4.18316 -14.5552 -1.56672e-19)
(4.04844 -14.0425 5.57338e-19)
(3.91706 -13.5456 4.04876e-19)
(3.78929 -13.0651 -6.84499e-19)
(3.66535 -12.6012 3.89412e-19)
(3.54542 -12.1542 -3.83821e-19)
(3.4296 -11.7239 2.53084e-19)
(3.31794 -11.3102 -4.20264e-19)
(3.21039 -10.9126 -3.00872e-19)
(3.10691 -10.5306 2.2929e-20)
(3.00739 -10.1636 -1.29243e-19)
(2.91171 -9.81117 2.34312e-19)
(2.81976 -9.47272 9.06559e-20)
(2.73143 -9.14774 -5.95147e-20)
(2.6466 -8.83576 -1.68383e-20)
(2.56517 -8.53629 6.38102e-20)
(2.48704 -8.24881 -2.16224e-19)
(2.41212 -7.97273 3.48593e-19)
(2.34022 -7.70736 -8.61417e-20)
(2.27112 -7.45185 -4.83571e-21)
(2.20508 -7.20506 2.85439e-19)
(2.14283 -6.9655 3.48717e-20)
(2.07969 -6.73315 -4.00054e-20)
(6.31176 -18.4599 3.09212e-20)
(5.53989 -17.9175 -4.25306e-19)
(5.34304 -17.2713 -3.75559e-19)
(5.20217 -16.6519 -6.10081e-19)
(5.03513 -16.0739 2.1658e-20)
(4.87308 -15.5174 -4.11666e-19)
(4.71767 -14.9771 4.89386e-19)
(4.56592 -14.4521 -4.97001e-20)
(4.41756 -13.9425 3.63878e-19)
(4.27296 -13.4487 -3.10425e-19)
(4.1324 -12.9711 -1.52467e-19)
(3.99614 -12.5103 8.16353e-20)
(3.86435 -12.0662 4.30482e-20)
(3.73715 -11.6388 -4.20477e-19)
(3.61456 -11.2279 2.45828e-19)
(3.49655 -10.8331 -1.14561e-19)
(3.38303 -10.4538 3.28598e-19)
(3.27388 -10.0894 -1.04921e-19)
(3.16898 -9.73955 1.08004e-19)
(3.06819 -9.40355 2.58937e-20)
(2.97137 -9.08095 1.74391e-19)
(2.8784 -8.77127 -3.63797e-20)
(2.78918 -8.47405 2.74732e-19)
(2.7036 -8.18879 -3.04566e-19)
(2.62154 -7.91493 -9.98402e-20)
(2.54281 -7.65179 7.97407e-20)
(2.46719 -7.39854 -8.63743e-21)
(2.39494 -7.15403 -1.33011e-19)
(2.32678 -6.91668 1.0569e-19)
(2.25761 -6.68671 -1.21054e-19)
(6.79299 -18.2912 1.30956e-18)
(6.00868 -17.7731 3.44901e-19)
(5.79608 -17.1351 4.06578e-19)
(5.63971 -16.5212 5.28654e-19)
(5.4579 -15.9484 7.81135e-19)
(5.28137 -15.3966 -2.40839e-20)
(5.11173 -14.8602 1.14823e-19)
(4.94604 -14.3389 8.13294e-19)
(4.78411 -13.8328 -1.70067e-19)
(4.62634 -13.3423 -2.87323e-19)
(4.47306 -12.8681 4.93998e-19)
(4.32453 -12.4105 7.76159e-20)
(4.18095 -11.9697 4.61014e-21)
(4.04244 -11.5455 1.14016e-19)
(3.909 -11.1378 1.93149e-19)
(3.78059 -10.746 -3.8544e-19)
(3.6571 -10.3697 3.25077e-19)
(3.5384 -10.0083 5.24875e-20)
(3.42433 -9.66118 2.98889e-19)
(3.31476 -9.32789 -1.6251e-19)
(3.20952 -9.0079 2.56784e-19)
(3.10849 -8.70074 -2.68719e-19)
(3.01154 -8.40598 2.54075e-19)
(2.91856 -8.12313 3.15145e-20)
(2.82943 -7.85166 -1.65867e-19)
(2.74394 -7.59093 -5.04102e-20)
(2.66187 -7.34015 2.99171e-19)
(2.58349 -7.09809 2.15128e-19)
(2.50952 -6.86317 5.55879e-20)
(2.43441 -6.6358 -3.58159e-20)
(7.26973 -18.11 1.29489e-19)
(6.47372 -17.6166 2.89601e-19)
(6.24566 -16.987 1.16087e-18)
(6.07396 -16.379 -1.88515e-18)
(5.87751 -15.8119 -1.77167e-19)
(5.6866 -15.2649 -1.96406e-19)
(5.5028 -14.7328 8.76411e-20)
(5.32326 -14.2155 1.07776e-19)
(5.14782 -13.7133 1.75198e-19)
(4.97695 -13.2266 -4.66467e-19)
(4.81101 -12.7561 -8.08594e-20)
(4.65029 -12.3021 2.507e-19)
(4.495 -11.8648 2.57179e-19)
(4.34524 -11.4442 -2.60083e-19)
(4.20103 -11.0399 -2.42144e-19)
(4.06229 -10.6515 4.01411e-19)
(3.92891 -10.2784 2.49696e-19)
(3.80073 -9.92015 -6.86462e-20)
(3.67758 -9.57612 -1.55086e-19)
(3.55929 -9.24578 2.56035e-20)
(3.44571 -8.92863 -3.3608e-19)
(3.33667 -8.62422 3.97417e-19)
(3.23206 -8.33211 -2.67078e-19)
(3.13175 -8.05187 -8.95176e-21)
(3.03562 -7.78299 1.68293e-19)
(2.94345 -7.52486 -5.12903e-20)
(2.85501 -7.2767 -1.49734e-19)
(2.77058 -7.03729 1.84251e-19)
(2.69089 -6.80499 -5.5271e-21)
(2.60994 -6.58045 2.78152e-20)
(7.74164 -17.9163 -1.02091e-19)
(6.93469 -17.4479 -3.10507e-19)
(6.69147 -16.8272 -1.33381e-18)
(6.50462 -16.2255 4.82007e-19)
(6.29368 -15.6643 -1.37522e-19)
(6.08849 -15.1225 4.57178e-19)
(5.89063 -14.5951 3.31617e-20)
(5.6973 -14.0822 -4.91259e-19)
(5.50843 -13.5841 7.30787e-19)
(5.32453 -13.1015 -6.49854e-19)
(5.14601 -12.635 -2.04329e-20)
(4.97317 -12.185 1.48679e-19)
(4.80625 -11.7516 -2.53493e-19)
(4.64533 -11.3348 2.77032e-19)
(4.49043 -10.9342 -5.2379e-19)
(4.34145 -10.5495 -1.09657e-19)
(4.19826 -10.18 3.07143e-19)
(4.06068 -9.82514 2.63091e-21)
(3.92853 -9.48443 -1.77124e-19)
(3.80161 -9.15728 4.81483e-19)
(3.67974 -8.8432 -2.58674e-19)
(3.56278 -8.54175 -3.32844e-19)
(3.45057 -8.25251 1.07916e-19)
(3.34301 -7.97507 -3.05959e-19)
(3.23994 -7.70895 -6.9606e-20)
(3.14117 -7.4536 -7.01811e-21)
(3.04644 -7.20826 -1.83242e-19)
(2.95608 -6.97168 2.20665e-19)
(2.87076 -6.74217 -1.18634e-19)
(2.7841 -6.52074 1.27625e-19)
(8.2084 -17.7104 -4.62667e-19)
(7.39129 -17.2672 -1.23213e-18)
(7.13322 -16.6558 5.70915e-19)
(6.9314 -16.0606 -5.32837e-19)
(6.7061 -15.5057 -3.82305e-19)
(6.48676 -14.9695 -2.10733e-19)
(6.27492 -14.4471 -7.74311e-19)
(6.06789 -13.9389 5.19474e-19)
(5.86567 -13.4454 -1.24651e-18)
(5.66883 -12.9672 -4.30098e-19)
(5.4778 -12.5051 1.65111e-19)
(5.29295 -12.0593 2.55975e-19)
(5.11448 -11.6302 -9.12281e-21)
(4.9425 -11.2175 -4.63993e-19)
(4.77699 -10.8209 1.07129e-19)
(4.61786 -10.4401 -3.95464e-19)
(4.46495 -10.0744 -2.74851e-19)
(4.31806 -9.72329 -1.56847e-19)
(4.17698 -9.38615 -2.48347e-20)
(4.0415 -9.06243 2.71893e-19)
(3.91144 -8.75166 3.73401e-19)
(3.78663 -8.45339 -1.09217e-19)
(3.6669 -8.16723 -9.99873e-20)
(3.55215 -7.89279 1.94622e-19)
(3.44223 -7.62963 1.05001e-19)
(3.33694 -7.37722 -8.29484e-20)
(3.23601 -7.13487 -8.85613e-20)
(3.1398 -6.90131 1.12036e-20)
(3.04899 -6.6748 8.81795e-20)
(2.95671 -6.45666 1.12197e-19)
(8.6697 -17.4924 -7.84229e-20)
(7.84321 -17.0747 1.53573e-18)
(7.57059 -16.4728 1.14376e-18)
(7.354 -15.8846 8.67303e-19)
(7.1145 -15.3363 -5.59418e-19)
(6.88112 -14.8059 -1.10093e-19)
(6.6554 -14.2888 1.04305e-19)
(6.43476 -13.7857 6.52038e-19)
(6.21928 -13.2971 2.38359e-19)
(6.00959 -12.8237 5.64566e-19)
(5.80616 -12.3663 -7.66124e-19)
(5.60937 -11.9251 8.21482e-20)
(5.41945 -11.5005 2.99302e-19)
(5.2365 -11.0922 1.74653e-19)
(5.06049 -10.7 3.5048e-19)
(4.8913 -10.3234 -2.4441e-19)
(4.72876 -9.96184 -2.14158e-19)
(4.57265 -9.61467 4.56109e-20)
(4.42274 -9.28135 4.37009e-19)
(4.2788 -8.96131 -6.93401e-19)
(4.14063 -8.65408 2.40187e-19)
(4.00803 -8.35921 -6.64866e-22)
(3.88087 -8.07633 4.22567e-19)
(3.75901 -7.80508 -1.83635e-19)
(3.64231 -7.54506 -1.16023e-20)
(3.53057 -7.29579 -1.08724e-19)
(3.42354 -7.0566 1.02213e-19)
(3.32159 -6.82622 2.45947e-20)
(3.22538 -6.6029 -1.04154e-19)
(3.12762 -6.38829 3.33586e-19)
(9.12522 -17.2624 -1.6434e-18)
(8.29014 -16.8704 -9.26934e-19)
(8.00331 -16.2785 -2.30652e-18)
(7.77214 -15.6974 -1.00612e-18)
(7.5186 -15.156 9.29761e-19)
(7.27129 -14.6319 -5.23817e-19)
(7.0318 -14.1205 -1.13391e-19)
(6.79766 -13.6228 -3.26635e-19)
(6.56901 -13.1394 5.50511e-19)
(6.34656 -12.6711 -1.20538e-19)
(6.13083 -12.2187 -1.88174e-19)
(5.92222 -11.7825 -2.27297e-20)
(5.72095 -11.3627 -7.10126e-19)
(5.52713 -10.9592 -1.56521e-20)
(5.34072 -10.5716 1.90698e-19)
(5.16158 -10.1995 -1.85221e-20)
(4.98951 -9.84228 -6.66965e-19)
(4.82427 -9.49934 6.36905e-19)
(4.66562 -9.17009 -6.0716e-19)
(4.5133 -8.85397 2.33447e-19)
(4.3671 -8.5505 3.23049e-20)
(4.22681 -8.25926 1.28992e-20)
(4.09229 -7.97987 -2.28194e-19)
(3.9634 -7.71201 7.28622e-20)
(3.84 -7.45532 -6.48231e-22)
(3.7219 -7.20935 2.2024e-20)
(3.60885 -6.9735 -5.1257e-19)
(3.50126 -6.74649 1.42978e-19)
(3.39978 -6.52654 1.46538e-19)
(3.2967 -6.31569 1.46028e-19)
(9.57465 -17.0205 3.17302e-18)
(8.73179 -16.6544 1.0291e-18)
(8.43108 -16.0728 5.8764e-19)
(8.18553 -15.4992 9.25609e-19)
(7.91809 -14.9651 -1.10224e-19)
(7.657 -14.4474 6.52315e-19)
(7.40385 -13.9421 1.41081e-18)
(7.15631 -13.4501 -1.85018e-19)
(6.91461 -12.9723 7.2244e-20)
(6.67951 -12.5095 1.52302e-18)
(6.45158 -12.0624 -2.06747e-19)
(6.23124 -11.6315 1.98872e-19)
(6.01874 -11.2169 -6.60468e-20)
(5.81417 -10.8184 6.19736e-21)
(5.61746 -10.4358 9.69362e-19)
(5.42847 -10.0684 3.75673e-20)
(5.24697 -9.71582 9.73255e-19)
(5.07271 -9.37736 -1.28673e-19)
(4.90542 -9.05243 -1.98748e-19)
(4.74482 -8.74048 4.57614e-19)
(4.59068 -8.44101 -4.05136e-19)
(4.44279 -8.15361 4.39548e-19)
(4.30098 -7.87793 2.29518e-19)
(4.16513 -7.61365 -1.78852e-19)
(4.03512 -7.36047 2.7062e-19)
(3.91074 -7.11799 3.13786e-20)
(3.79177 -6.88565 -1.02244e-19)
(3.67865 -6.66218 6.20717e-20)
(3.57202 -6.44579 3.67195e-19)
(3.46377 -6.23894 5.23119e-20)
(10.0177 -16.767 -5.46487e-19)
(9.16786 -16.427 -1.04372e-18)
(8.85363 -15.8559 4.0775e-19)
(8.59389 -15.2901 -1.64181e-18)
(8.31272 -14.7635 7.5019e-19)
(8.03797 -14.2527 -1.34523e-18)
(7.77129 -13.7538 -8.45784e-19)
(7.51045 -13.2679 2.34343e-19)
(7.25581 -12.796 2.04297e-19)
(7.00817 -12.339 -1.06633e-18)
(6.76817 -11.8976 -4.42853e-19)
(6.53623 -11.4723 1.89702e-19)
(6.31261 -11.0631 -5.36524e-19)
(6.09739 -10.67 -2.05321e-19)
(5.89051 -10.2925 -1.33e-19)
(5.69178 -9.93022 -1.32108e-19)
(5.50097 -9.58252 -5.30376e-19)
(5.31779 -9.2488 -3.18378e-19)
(5.14195 -8.92844 6.3711e-20)
(4.97316 -8.62089 1.01966e-19)
(4.81117 -8.32565 1.00034e-19)
(4.65576 -8.04231 -3.55089e-19)
(4.50675 -7.77055 1.27839e-19)
(4.36403 -7.51006 -2.62004e-19)
(4.22748 -7.26058 2.35505e-19)
(4.0969 -7.02176 -3.10892e-19)
(3.9721 -6.79311 9.01788e-20)
(3.85355 -6.57336 -1.4876e-19)
(3.74191 -6.36071 -2.00809e-19)
(3.62865 -6.1581 -1.92538e-20)
(10.4541 -16.5019 -1.13724e-18)
(9.59809 -16.1883 -9.33287e-19)
(9.27067 -15.6279 -8.82664e-19)
(8.99693 -15.0702 -6.15394e-19)
(8.7022 -14.5515 1.90548e-18)
(8.41393 -14.0479 2.49758e-19)
(8.13384 -13.5556 7.6829e-19)
(7.85983 -13.0761 1.1372e-18)
(7.59236 -12.6105 5.22235e-19)
(7.33231 -12.1597 -6.97768e-19)
(7.08035 -11.7243 1.05763e-18)
(6.83694 -11.3048 -1.0201e-18)
(6.60233 -10.9014 9.28731e-19)
(6.37659 -10.5139 1.00637e-19)
(6.15965 -10.142 2.24005e-19)
(5.9513 -9.78499 7.39103e-20)
(5.75129 -9.44246 8.5842e-19)
(5.5593 -9.11372 -1.27405e-19)
(5.37501 -8.79818 1.07637e-19)
(5.19813 -8.49527 3.53867e-19)
(5.02839 -8.20449 -3.89954e-19)
(4.86554 -7.92544 2.98388e-19)
(4.70942 -7.6578 7.87887e-21)
(4.5599 -7.40131 1.2822e-19)
(4.41688 -7.15571 2.27436e-19)
(4.28018 -6.92075 -3.96569e-20)
(4.14963 -6.69596 2.16299e-19)
(4.02576 -6.4801 3.00299e-19)
(3.90922 -6.27139 -3.27555e-19)
(3.79114 -6.07326 -1.80957e-19)
(10.8835 -16.2254 3.27241e-18)
(10.0222 -15.9384 -3.46208e-19)
(9.68194 -15.389 6.84473e-19)
(9.3944 -14.8397 1.21492e-18)
(9.08625 -14.3291 -3.39406e-18)
(8.78461 -13.8329 3.5424e-19)
(8.49124 -13.3477 -1.21342e-18)
(8.20419 -12.875 1.16094e-18)
(7.92402 -12.416 -9.1323e-19)
(7.6517 -11.9716 4.58343e-19)
(7.38791 -11.5426 -1.67558e-18)
(7.13315 -11.1293 6.83753e-20)
(6.88768 -10.732 -5.0493e-19)
(6.65156 -10.3504 7.64789e-19)
(6.42468 -9.98419 -7.94669e-19)
(6.20684 -9.63282 -4.3431e-20)
(5.99774 -9.29569 -6.0362e-19)
(5.79705 -8.9722 -4.31542e-20)
(5.60443 -8.66171 4.18062e-20)
(5.41955 -8.36367 1.18844e-19)
(5.24214 -8.07758 -6.78565e-19)
(5.07194 -7.80304 -1.78461e-20)
(4.90878 -7.53974 -3.60103e-19)
(4.75253 -7.28744 -8.32846e-20)
(4.60311 -7.04593 -2.09216e-19)
(4.46037 -6.815 -2.21557e-19)
(4.32415 -6.59425 -2.21412e-19)
(4.19505 -6.38248 3.70559e-19)
(4.07374 -6.1779 9.59683e-20)
(3.95102 -5.98448 -1.72333e-19)
(11.3057 -15.9378 -2.17725e-18)
(10.44 -15.6775 7.57834e-19)
(10.0872 -15.1393 -1.24237e-18)
(9.78602 -14.5986 1.84533e-19)
(9.46462 -14.0964 1.89972e-18)
(9.14975 -13.608 -9.4956e-19)
(8.84323 -13.1302 -9.41261e-19)
(8.54328 -12.6646 -7.97027e-19)
(8.25055 -12.2125 4.44335e-20)
(7.96608 -11.7749 4.9042e-19)
(7.69061 -11.3526 -3.3705e-19)
(7.42465 -10.9458 2.70736e-20)
(7.16846 -10.5549 9.78317e-19)
(6.92209 -10.1795 -4.8864e-19)
(6.68542 -9.81929 1.15582e-19)
(6.4582 -9.47376 -3.69709e-19)
(6.24014 -9.14231 1.39902e-19)
(6.03086 -8.82428 2.95466e-19)
(5.83001 -8.51909 3.12377e-19)
(5.63724 -8.22615 -3.41007e-19)
(5.45224 -7.94497 5.3419e-20)
(5.27477 -7.67516 2.75217e-19)
(5.10464 -7.41642 4.63565e-19)
(4.94173 -7.16852 1.12525e-19)
(4.78597 -6.9313 -4.56935e-19)
(4.63724 -6.7046 5.17047e-19)
(4.49542 -6.48809 -2.57147e-19)
(4.36119 -6.28057 -2.96045e-19)
(4.23522 -6.08033 -1.77756e-19)
(4.10805 -5.89186 -2.20117e-19)
(11.7206 -15.6392 1.13198e-18)
(10.8512 -15.4057 -8.57037e-19)
(10.4861 -14.879 3.38024e-19)
(10.1715 -14.3471 1.6372e-18)
(9.83703 -13.8535 4.2895e-19)
(9.50908 -13.3733 -3.55941e-19)
(9.18955 -12.9031 8.51471e-19)
(8.87683 -12.445 2.13256e-19)
(8.57169 -12.0002 7.48367e-19)
(8.27522 -11.5698 4.01161e-19)
(7.98823 -11.1544 1.98092e-20)
(7.71121 -10.7545 2.37629e-19)
(7.44445 -10.3702 -7.36624e-20)
(7.18798 -10.0012 1.24004e-19)
(6.94165 -9.64735 3.28237e-19)
(6.7052 -9.30792 -1.76195e-19)
(6.4783 -8.98237 4.21465e-19)
(6.26055 -8.67005 4.1572e-19)
(6.05157 -8.37037 -4.627e-19)
(5.851 -8.08275 4.69886e-19)
(5.65851 -7.80671 9.60848e-19)
(5.47384 -7.54184 -6.09322e-19)
(5.2968 -7.28787 5.91623e-19)
(5.12727 -7.04458 -4.12172e-19)
(4.96522 -6.81185 -5.50247e-20)
(4.81054 -6.58958 4.13788e-19)
(4.66318 -6.37751 -8.60423e-20)
(4.52388 -6.17447 2.96691e-19)
(4.39337 -5.97878 2.86696e-19)
(4.26196 -5.79557 -5.32829e-19)
(12.1279 -15.3297 -1.0851e-18)
(11.2556 -15.1232 4.97839e-19)
(10.8785 -14.608 1.90865e-19)
(10.5507 -14.0852 -1.89181e-18)
(10.2032 -13.6007 -9.41897e-19)
(9.86233 -13.1289 6.85046e-19)
(9.52995 -12.6667 -1.84744e-18)
(9.20462 -12.2164 2.16571e-18)
(8.88722 -11.7793 -1.19053e-18)
(8.57891 -11.3562 1.39063e-19)
(8.28054 -10.9481 -2.27085e-19)
(7.99264 -10.5553 -6.14444e-19)
(7.71547 -10.178 1.24787e-18)
(7.44904 -9.81581 4.47404e-19)
(7.19321 -9.46846 -4.69862e-19)
(6.94767 -9.13537 1.21525e-20)
(6.71205 -8.81595 2.41149e-19)
(6.48595 -8.50957 -5.1093e-19)
(6.26895 -8.21561 1.0802e-19)
(6.06068 -7.93352 3.33855e-19)
(5.86077 -7.66281 -1.41297e-19)
(5.66896 -7.40309 2.15617e-19)
(5.48505 -7.15408 -4.23204e-19)
(5.30894 -6.91561 5.92112e-19)
(5.1406 -6.68757 1.27714e-19)
(4.97998 -6.46995 -3.62636e-19)
(4.82709 -6.26254 -2.99849e-19)
(4.68276 -6.0642 6.68743e-21)
(4.54774 -5.87334 4.0073e-19)
(4.4122 -5.69579 -8.85963e-20)
(12.5275 -15.0095 -2.93905e-19)
(11.6529 -14.8301 -1.95853e-18)
(11.2641 -14.3267 2.31035e-18)
(10.9231 -13.8132 1.51317e-18)
(10.5629 -13.3379 1.45358e-18)
(10.2092 -12.8749 3.76611e-19)
(9.86416 -12.4211 5.71895e-19)
(9.52638 -11.9789 2.78626e-19)
(9.19687 -11.5497 -1.08861e-18)
(8.8769 -11.1344 1.95576e-18)
(8.56733 -10.7339 -1.50392e-18)
(8.26872 -10.3486 -8.65183e-20)
(7.9813 -9.97843 2.16498e-19)
(7.7051 -9.62328 -8.84583e-19)
(7.43991 -9.28272 7.64789e-19)
(7.18542 -8.95621 -2.30493e-19)
(6.94123 -8.64314 -5.56006e-19)
(6.70691 -8.34289 2.02538e-19)
(6.48201 -8.05486 -3.95196e-19)
(6.26612 -7.77849 -3.3872e-19)
(6.05888 -7.5133 -3.47845e-19)
(5.85999 -7.25891 7.79204e-20)
(5.66924 -7.01505 3.67741e-20)
(5.48654 -6.78158 -7.95427e-19)
(5.31189 -6.55843 -2.88195e-19)
(5.14528 -6.34564 1.91219e-19)
(4.9868 -6.14311 2.24633e-19)
(4.83737 -5.94973 -3.0636e-19)
(4.69776 -5.764 -1.12487e-19)
(4.5581 -5.59231 8.14141e-21)
(12.9196 -14.679 -2.76986e-19)
(12.0432 -14.5267 1.26955e-18)
(11.6426 -14.035 -3.59274e-19)
(11.2887 -13.5311 -4.35491e-19)
(10.9159 -13.0654 -2.23836e-18)
(10.5495 -12.6115 -4.63223e-19)
(10.1919 -12.1664 8.79219e-19)
(9.84183 -11.7326 -5.61293e-19)
(9.50042 -11.3117 -5.45595e-20)
(9.16896 -10.9045 -1.11047e-19)
(8.84838 -10.5119 5.65475e-19)
(8.53923 -10.1343 -8.78828e-19)
(8.24176 -9.77165 -5.66673e-19)
(7.95595 -9.42377 6.46697e-19)
(7.68159 -9.09023 -3.56784e-19)
(7.41831 -8.77052 -4.15974e-19)
(7.1657 -8.46401 8.75211e-19)
(6.92328 -8.17009 -1.38437e-19)
(6.6906 -7.88816 4.81679e-19)
(6.4672 -7.61768 -4.38127e-19)
(6.25269 -7.35818 -3.38442e-19)
(6.04677 -7.10929 2.91368e-19)
(5.84922 -6.87075 -3.58548e-20)
(5.65993 -6.64243 -2.05483e-19)
(5.47893 -6.42434 1.77553e-19)
(5.30625 -6.2166 -5.3219e-19)
(5.14208 -6.01919 3.24546e-19)
(4.98743 -5.83106 -5.28421e-21)
(4.84315 -5.6507 -3.17594e-19)
(4.69952 -5.48481 4.49236e-19)
(13.3048 -14.3388 1.01438e-18)
(12.4266 -14.2131 -2.49832e-18)
(12.0138 -13.7331 -1.9348e-19)
(11.647 -13.2389 1.08578e-18)
(11.2617 -12.7831 -2.66298e-19)
(10.8829 -12.3386 -7.35382e-19)
(10.5129 -11.9026 3.32096e-19)
(10.1507 -11.4777 3.69852e-19)
(9.79757 -11.0654 2.75466e-20)
(9.45484 -10.6667 4.30635e-19)
(9.12345 -10.2823 1.3341e-18)
(8.80398 -9.91264 -4.70034e-19)
(8.49665 -9.55775 1.08084e-19)
(8.20143 -9.21739 -2.83843e-19)
(7.91807 -8.89112 1.08915e-18)
(7.64619 -8.5784 -1.89481e-19)
(7.38531 -8.27864 6.07396e-19)
(7.13495 -7.99122 -2.29054e-19)
(6.8946 -7.71556 2.39542e-19)
(6.66379 -7.45112 3.52424e-19)
(6.4421 -7.19744 5.66375e-20)
(6.2292 -6.95416 2.23773e-19)
(6.02484 -6.72106 -1.78641e-19)
(5.82892 -6.49805 4.93322e-19)
(5.64147 -6.28518 -1.96733e-19)
(5.46261 -6.08273 6.99578e-19)
(5.29266 -5.89078 -2.01923e-19)
(5.13281 -5.70829 1.32995e-19)
(4.98397 -5.53377 -2.474e-19)
(4.83684 -5.37475 4.33304e-19)
(13.6844 -13.9894 -2.26087e-18)
(12.8033 -13.8889 8.85876e-20)
(12.3776 -13.4207 -1.20369e-18)
(11.9978 -12.9367 2.12005e-19)
(11.6002 -12.4912 5.74235e-20)
(11.2091 -12.0566 -9.64649e-19)
(10.8269 -11.6301 -1.7654e-18)
(10.4528 -11.2144 8.57342e-19)
(10.0881 -10.811 -1.19509e-18)
(9.73434 -10.421 -6.03168e-19)
(9.39237 -10.0452 -3.3088e-19)
(9.06278 -9.6838 -2.49471e-19)
(8.74581 -9.33693 -5.14935e-22)
(8.44138 -9.00431 -8.76948e-19)
(8.14923 -8.68552 5.39245e-19)
(7.86892 -8.38 -8.88092e-19)
(7.59997 -8.08716 -2.16799e-19)
(7.34183 -7.8064 2.29344e-19)
(7.09396 -7.53713 2.81113e-19)
(6.85586 -7.27883 2.70157e-19)
(6.62707 -7.03105 2.01148e-19)
(6.4072 -6.79344 -4.97081e-19)
(6.19597 -6.5658 4.87734e-19)
(5.99325 -6.34809 -5.29954e-20)
(5.79904 -6.14048 -1.25582e-19)
(5.61353 -5.94341 -4.82155e-19)
(5.43728 -5.7571 -2.47833e-19)
(5.27175 -5.58064 4.53221e-19)
(5.11779 -5.41359 -1.50556e-19)
(4.96673 -5.26607 -1.41351e-19)
(14.0572 -13.6286 1.00024e-18)
(13.1729 -13.5527 1.04638e-19)
(12.7337 -13.0974 -2.36269e-19)
(12.3406 -12.6246 -4.01437e-20)
(11.931 -12.1901 -3.84278e-19)
(11.5279 -11.7658 1.3046e-18)
(11.1337 -11.3491 -5.9595e-19)
(10.748 -10.943 3.92507e-19)
(10.372 -10.5489 1.62611e-19)
(10.0074 -10.1679 5.35707e-19)
(9.65505 -9.80088 -1.90571e-19)
(9.31557 -9.44804 1.08834e-18)
(8.98917 -9.10943 -9.03631e-20)
(8.67575 -8.78478 6.59581e-19)
(8.375 -8.47366 -1.07451e-18)
(8.08647 -8.17553 -6.77214e-20)
(7.80963 -7.88977 6.63059e-19)
(7.5439 -7.6158 -3.98705e-19)
(7.28871 -7.35303 -2.739e-19)
(7.04349 -7.10093 -4.57868e-19)
(6.80773 -6.85906 -3.82185e-19)
(6.581 -6.62708 4.16234e-19)
(6.36292 -6.40476 -3.69331e-19)
(6.15324 -6.1921 8.3632e-20)
(5.95182 -5.98935 2.90228e-19)
(5.7587 -5.79701 1.94613e-19)
(5.57448 -5.61544 1.76643e-19)
(5.40039 -5.44453 1.26917e-19)
(5.23619 -5.28711 -3.44505e-19)
(5.0762 -5.15488 -1.36203e-19)
(19.6636 0.303166 1.2272e-20)
(19.658 -0.215056 1.16402e-19)
(19.6392 -0.731196 4.04552e-19)
(19.6086 -1.24559 2.18955e-19)
(19.5656 -1.75838 -4.73954e-19)
(19.5096 -2.26944 1.42392e-19)
(19.4404 -2.77853 -1.46097e-19)
(19.3581 -3.28539 -3.73853e-19)
(19.2625 -3.78976 9.79703e-19)
(19.1539 -4.29133 -2.34045e-19)
(19.0323 -4.78978 -2.27512e-19)
(18.8977 -5.28478 -4.97037e-19)
(18.7502 -5.77601 -1.44075e-18)
(18.59 -6.26314 1.33721e-19)
(18.4172 -6.74585 -4.65123e-20)
(18.2318 -7.22382 -4.76772e-19)
(18.0341 -7.69672 9.77758e-19)
(17.8241 -8.16424 5.45557e-19)
(17.6021 -8.62607 1.02281e-18)
(17.3682 -9.08191 4.95986e-19)
(17.1225 -9.53145 -1.1614e-18)
(16.8652 -9.9744 5.00204e-20)
(16.5966 -10.4105 -2.21549e-18)
(16.3168 -10.8394 3.37508e-18)
(16.026 -11.2609 -1.10002e-18)
(15.7245 -11.6748 -1.4693e-18)
(15.4124 -12.0809 -2.19321e-19)
(15.0904 -12.479 -3.07913e-20)
(14.7576 -12.8698 -1.15483e-18)
(14.4176 -13.2515 2.01752e-18)
(19.0859 -0.270399 4.51358e-20)
(19.0658 -0.772116 6.41637e-20)
(19.032 -1.27156 1.30461e-20)
(18.9854 -1.76893 -5.79033e-19)
(18.9262 -2.26437 -5.17982e-19)
(18.8542 -2.75775 4.5532e-19)
(18.7693 -3.24877 5.64935e-19)
(18.6716 -3.73715 3.05363e-19)