/*--------------------------------*- C++ -*----------------------------------*\
  =========                 |
  \\      /  F ield         | OpenFOAM: The Open Source CFD Toolbox
   \\    /   O peration     | Website:  https://openfoam.org
    \\  /    A nd           | Version:  6.0
     \\/     M anipulation  |
\*---------------------------------------------------------------------------*/
FoamFile
{
    version     2.0;
    format      ascii;
    class       volScalarField;
    location    "3.9999";
    object      p;
}
// * * * * * * * * * * * * * * * * * * * * * * * * * * * * * * * * * * * * * //

dimensions      [0 2 -2 0 0 0 0];

internalField   nonuniform List<scalar> 
19200
(
-71.2967
-63.0405
-56.8561
-51.6969
-46.973
-42.6968
-38.8438
-35.3642
-32.2182
-29.3728
-26.7987
-24.4692
-22.3605
-20.451
-18.7211
-17.1533
-15.7316
-14.4417
-13.2706
-12.2067
-11.2395
-10.3596
-9.55842
-8.8285
-8.16302
-7.55595
-7.00184
-6.49539
-6.032
-5.6125
-71.3941
-63.1572
-56.9776
-51.8153
-47.0863
-42.8044
-38.9457
-35.4603
-32.309
-29.4587
-26.8802
-24.5468
-22.4346
-20.5219
-18.7893
-17.219
-15.7951
-14.5031
-13.3302
-12.2646
-11.2959
-10.4145
-9.61196
-8.88073
-8.21398
-7.60568
-7.05039
-6.54267
-6.07783
-5.658
-71.5045
-63.2743
-57.0975
-51.9327
-47.1989
-42.9115
-39.047
-35.5562
-32.3996
-29.5446
-26.9617
-24.6245
-22.5088
-20.5931
-18.8578
-17.2851
-15.859
-14.5651
-13.3904
-12.3232
-11.3529
-10.4701
-9.66622
-8.93371
-8.26572
-7.65622
-7.09975
-6.59076
-6.1245
-5.70439
-71.6234
-63.3945
-57.2175
-52.0497
-47.3111
-43.0182
-39.148
-35.6517
-32.4899
-29.6302
-27.0432
-24.7021
-22.5831
-20.6645
-18.9265
-17.3514
-15.9232
-14.6275
-13.451
-12.3822
-11.4105
-10.5263
-9.72115
-8.98738
-8.31819
-7.70751
-7.14989
-6.63965
-6.17198
-5.75166
-71.7471
-63.5173
-57.3384
-52.1669
-47.4232
-43.1246
-39.2488
-35.7469
-32.5801
-29.7158
-27.1246
-24.7799
-22.6576
-20.7361
-18.9955
-17.4182
-15.9879
-14.6903
-13.5122
-12.4419
-11.4687
-10.5832
-9.77676
-9.04179
-8.37142
-7.7596
-7.20085
-6.68937
-6.22033
-5.79985
-71.874
-63.6422
-57.4602
-52.2843
-47.5353
-43.2309
-39.3493
-35.8421
-32.6702
-29.8013
-27.206
-24.8577
-22.7322
-20.8078
-19.0648
-17.4852
-16.053
-14.7536
-13.5738
-12.502
-11.5275
-10.6407
-9.83307
-9.09693
-8.42543
-7.8125
-7.25265
-6.73995
-6.26956
-5.84899
-72.003
-63.7688
-57.583
-52.4022
-47.6475
-43.3372
-39.4498
-35.937
-32.7602
-29.8867
-27.2874
-24.9355
-22.8069
-20.8798
-19.1343
-17.5525
-16.1184
-14.8172
-13.636
-12.5627
-11.5869
-10.6989
-9.89006
-9.15281
-8.48021
-7.86621
-7.3053
-6.7914
-6.31969
-5.8991
-72.1335
-63.8966
-57.7065
-52.5204
-47.7598
-43.4434
-39.5501
-36.0319
-32.85
-29.9721
-27.3688
-25.0134
-22.8817
-20.9519
-19.204
-17.6201
-16.1841
-14.8813
-13.6985
-12.6239
-11.6468
-10.7576
-9.94773
-9.20941
-8.53576
-7.92074
-7.35879
-6.84372
-6.37074
-5.95019
-72.2651
-64.0252
-57.8306
-52.6389
-47.8722
-43.5496
-39.6503
-36.1265
-32.9396
-30.0573
-27.45
-25.0912
-22.9565
-21.024
-19.2739
-17.688
-16.2502
-14.9458
-13.7615
-12.6856
-11.7073
-10.817
-10.0061
-9.26671
-8.59207
-7.97607
-7.41313
-6.89693
-6.42269
-6.00226
-72.3974
-64.1545
-57.9551
-52.7576
-47.9845
-43.6556
-39.7504
-36.221
-33.0291
-30.1423
-27.5312
-25.1689
-23.0313
-21.0963
-19.3439
-17.756
-16.3165
-15.0105
-13.8249
-12.7478
-11.7683
-10.8769
-10.065
-9.3247
-8.64912
-8.03219
-7.4683
-6.95101
-6.47557
-6.05532
-72.5303
-64.2842
-58.0799
-52.8763
-48.0968
-43.7615
-39.8501
-36.3152
-33.1183
-30.2271
-27.6121
-25.2466
-23.106
-21.1685
-19.4139
-17.8242
-16.3829
-15.0755
-13.8886
-12.8103
-11.8298
-10.9374
-10.1245
-9.38332
-8.70687
-8.08907
-7.52429
-7.00594
-6.52935
-6.10937
-72.6635
-64.4142
-58.2048
-52.995
-48.2089
-43.8671
-39.9495
-36.409
-33.2071
-30.3115
-27.6928
-25.3239
-23.1806
-21.2406
-19.4839
-17.8923
-16.4495
-15.1407
-13.9525
-12.8731
-11.8916
-10.9983
-10.1845
-9.44253
-8.76527
-8.14667
-7.58106
-7.06171
-6.58402
-6.16438
-72.7969
-64.5443
-58.3296
-53.1135
-48.3207
-43.9722
-40.0485
-36.5023
-33.2955
-30.3956
-27.7731
-25.401
-23.2549
-21.3125
-19.5538
-17.9604
-16.5161
-15.2059
-14.0166
-12.9361
-11.9537
-11.0595
-10.245
-9.50226
-8.82426
-8.20494
-7.63857
-7.11828
-6.63955
-6.22034
-72.9304
-64.6744
-58.4543
-53.2318
-48.4321
-44.0769
-40.147
-36.5952
-33.3833
-30.4791
-27.8529
-25.4777
-23.3288
-21.3842
-19.6234
-18.0284
-16.5826
-15.2711
-14.0807
-12.9993
-12.016
-11.1211
-10.3058
-9.56241
-8.88377
-8.26381
-7.69676
-7.1756
-6.6959
-6.2772
-73.0638
-64.8043
-58.5788
-53.3496
-48.543
-44.181
-40.2448
-36.6873
-33.4705
-30.562
-27.9321
-25.5538
-23.4023
-21.4554
-19.6927
-18.0961
-16.6488
-15.3362
-14.1448
-13.0624
-12.0783
-11.1827
-10.3669
-9.6229
-8.9437
-8.32318
-7.75554
-7.2336
-6.75301
-6.33494
-73.197
-64.934
-58.7028
-53.4669
-48.6532
-44.2844
-40.3418
-36.7787
-33.557
-30.6442
-28.0107
-25.6292
-23.4752
-21.526
-19.7615
-18.1633
-16.7147
-15.401
-14.2086
-13.1254
-12.1406
-11.2444
-10.4281
-9.68357
-9.00392
-8.38295
-7.81482
-7.29219
-6.81081
-6.39347
-73.3301
-65.0634
-58.8265
-53.5836
-48.7627
-44.387
-40.438
-36.8692
-33.6425
-30.7255
-28.0884
-25.7039
-23.5473
-21.596
-19.8297
-18.2299
-16.7801
-15.4653
-14.272
-13.1881
-12.2027
-11.306
-10.4892
-9.74429
-9.06428
-8.44297
-7.87447
-7.35127
-6.86921
-6.45272
-73.463
-65.1925
-58.9495
-53.6996
-48.8714
-44.4886
-40.5331
-36.9586
-33.727
-30.8058
-28.1651
-25.7776
-23.6184
-21.6651
-19.897
-18.2958
-16.8448
-15.5289
-14.3348
-13.2502
-12.2643
-11.3671
-10.55
-9.80485
-9.12461
-8.50309
-7.93434
-7.41069
-6.92807
-6.51258
-73.5956
-65.3211
-59.072
-53.8148
-48.979
-44.5891
-40.6272
-37.0469
-33.8103
-30.8849
-28.2406
-25.8502
-23.6886
-21.7331
-19.9633
-18.3607
-16.9085
-15.5917
-14.3968
-13.3116
-12.3252
-11.4277
-10.6103
-9.86503
-9.18468
-8.56307
-7.99422
-7.47027
-6.98723
-6.5729
-73.7281
-65.4494
-59.1938
-53.9291
-49.0856
-44.6884
-40.7199
-37.1339
-33.8923
-30.9627
-28.3149
-25.9215
-23.7574
-21.7999
-20.0285
-18.4245
-16.9711
-15.6534
-14.4578
-13.372
-12.3852
-11.4875
-10.6699
-9.92455
-9.2442
-8.62266
-8.05386
-7.52978
-7.04648
-6.63349
-73.8607
-65.5773
-59.315
-54.0424
-49.191
-44.7864
-40.8112
-37.2194
-33.9728
-31.039
-28.3877
-25.9914
-23.8249
-21.8654
-20.0923
-18.4869
-17.0324
-15.7138
-14.5174
-13.4312
-12.444
-11.546
-10.7284
-9.98308
-9.30287
-8.68153
-8.11294
-7.58891
-7.10555
-6.69409
-73.9936
-65.7049
-59.4354
-54.1546
-49.2951
-44.8829
-40.9009
-37.3032
-34.0517
-31.1137
-28.4589
-26.0596
-23.8907
-21.9292
-20.1545
-18.5477
-17.0921
-15.7726
-14.5756
-13.4888
-12.5012
-11.6031
-10.7855
-10.0403
-9.36028
-8.73928
-8.17109
-7.64731
-7.16407
-6.75432
-74.1274
-65.8323
-59.555
-54.2657
-49.3976
-44.9777
-40.9889
-37.3853
-34.1288
-31.1865
-28.5283
-26.1261
-23.9548
-21.9913
-20.2149
-18.6068
-17.15
-15.8296
-14.6318
-13.5445
-12.5566
-11.6583
-10.8406
-10.0956
-9.41597
-8.79544
-8.22782
-7.70451
-7.22161
-6.81381
-74.2626
-65.9597
-59.6738
-54.3754
-49.4985
-45.0706
-41.0749
-37.4654
-34.2039
-31.2575
-28.5957
-26.1907
-24.017
-22.0515
-20.2734
-18.6638
-17.2059
-15.8845
-14.6859
-13.598
-12.6097
-11.7112
-10.8935
-10.1486
-9.46937
-8.84943
-8.28255
-7.75993
-7.27766
-6.87225
-74.3996
-66.0867
-59.7915
-54.4835
-49.5976
-45.1616
-41.1589
-37.5434
-34.2769
-31.3263
-28.6612
-26.2533
-24.0772
-22.1097
-20.3298
-18.7188
-17.2596
-15.9371
-14.7377
-13.649
-12.6602
-11.7613
-10.9435
-10.1987
-9.51979
-8.90046
-8.33442
-7.81271
-7.33145
-6.92892
-74.5389
-66.2131
-59.9077
-54.59
-49.6946
-45.2502
-41.2405
-37.6191
-34.3477
-31.393
-28.7244
-26.3137
-24.1352
-22.1657
-20.3841
-18.7715
-17.311
-15.9873
-14.7868
-13.6972
-12.7076
-11.8082
-10.9901
-10.2452
-9.56645
-8.9476
-8.38236
-7.86169
-7.38168
-6.98176
-74.6841
-66.3403
-60.0225
-54.6941
-49.7889
-45.336
-41.3193
-37.6921
-34.4158
-31.4572
-28.7853
-26.3719
-24.191
-22.2194
-20.4361
-18.8219
-17.3599
-16.0349
-14.8331
-13.7425
-12.7519
-11.8516
-11.0328
-10.2875
-9.60865
-8.99008
-8.4256
-7.90602
-7.42707
-7.02894
-74.8455
-66.4716
-60.1352
-54.7946
-49.8793
-45.418
-41.3945
-37.7618
-34.481
-31.5186
-28.8436
-26.4275
-24.2444
-22.2709
-20.4857
-18.8699
-17.4063
-16.0798
-14.8766
-13.7846
-12.7926
-11.8911
-11.0712
-10.3249
-9.64553
-9.02697
-8.46317
-7.94471
-7.4673
-7.07485
-75.0274
-66.6064
-60.2434
-54.8896
-49.9651
-45.4963
-41.4665
-37.8286
-34.5435
-31.5776
-28.8996
-26.481
-24.2957
-22.3201
-20.5331
-18.9156
-17.4505
-16.1223
-14.9175
-13.8237
-12.8299
-11.9265
-11.1046
-10.3565
-9.67535
-9.0554
-8.49049
-7.97162
-7.49865
-7.12418
-75.1824
-66.7267
-60.3437
-54.9798
-50.0483
-45.5731
-41.5374
-37.8945
-34.6052
-31.6357
-28.9547
-26.5335
-24.3459
-22.3683
-20.5795
-18.9601
-17.4932
-16.1632
-14.9565
-13.8606
-12.8647
-11.9587
-11.1339
-10.3824
-9.69722
-9.07214
-8.50011
-7.97439
-7.50439
-7.13815
-76.3948
-76.4043
-76.3916
-76.3855
-76.3835
-76.3796
-76.3717
-76.3595
-76.343
-76.322
-76.2963
-76.2659
-76.2308
-76.191
-76.1468
-76.0983
-76.0456
-75.9891
-75.929
-75.8655
-75.7989
-75.7297
-75.6582
-75.5851
-75.511
-75.437
-75.3649
-75.2978
-75.2417
-75.2043
-67.8761
-67.9063
-67.9222
-67.9346
-67.9442
-67.9488
-67.9478
-67.9414
-67.9299
-67.9134
-67.892
-67.8657
-67.8345
-67.7987
-67.7585
-67.7139
-67.6653
-67.6127
-67.5566
-67.497
-67.4344
-67.369
-67.3012
-67.2316
-67.1605
-67.0888
-67.0175
-66.9474
-66.8793
-66.8084
-61.3645
-61.4061
-61.4376
-61.4611
-61.4782
-61.4892
-61.4944
-61.4939
-61.488
-61.4769
-61.4608
-61.4398
-61.4139
-61.3834
-61.3485
-61.3093
-61.266
-61.2188
-61.168
-61.1138
-61.0565
-60.9962
-60.9334
-60.8683
-60.8012
-60.7325
-60.6623
-60.5903
-60.5155
-60.4345
-55.8592
-55.905
-55.9428
-55.9724
-55.9947
-56.0108
-56.0211
-56.0258
-56.025
-56.019
-56.008
-55.992
-55.9713
-55.9461
-55.9164
-55.8826
-55.8447
-55.803
-55.7577
-55.709
-55.6571
-55.6022
-55.5445
-55.4843
-55.4216
-55.3566
-55.2892
-55.2188
-55.1449
-55.0662
-50.8026
-50.8494
-50.8899
-50.923
-50.9491
-50.9689
-50.983
-50.9915
-50.9947
-50.9927
-50.9857
-50.974
-50.9576
-50.9367
-50.9116
-50.8824
-50.8493
-50.8124
-50.772
-50.7282
-50.6813
-50.6313
-50.5785
-50.523
-50.4649
-50.404
-50.3404
-50.2738
-50.2036
-50.1293
-46.228
-46.2747
-46.3161
-46.3508
-46.3789
-46.4009
-46.4172
-46.4282
-46.4339
-46.4347
-46.4306
-46.4218
-46.4086
-46.3911
-46.3695
-46.3439
-46.3145
-46.2815
-46.2451
-46.2054
-46.1626
-46.1169
-46.0684
-46.0171
-45.963
-45.9063
-45.8468
-45.7842
-45.7183
-45.6486
-42.1196
-42.1653
-42.2064
-42.2412
-42.2698
-42.2926
-42.3099
-42.3221
-42.3292
-42.3315
-42.3292
-42.3224
-42.3112
-42.296
-42.2768
-42.2538
-42.2271
-42.197
-42.1637
-42.1272
-42.0877
-42.0453
-42.0003
-41.9525
-41.9021
-41.849
-41.7932
-41.7346
-41.6728
-41.6077
-38.4279
-38.4721
-38.5118
-38.5457
-38.5738
-38.5963
-38.6137
-38.6261
-38.6337
-38.6366
-38.6351
-38.6293
-38.6193
-38.6054
-38.5877
-38.5664
-38.5416
-38.5135
-38.4823
-38.4481
-38.4111
-38.3713
-38.3289
-38.284
-38.2366
-38.1867
-38.1342
-38.079
-38.021
-37.96
-35.1096
-35.1516
-35.1894
-35.2219
-35.2487
-35.2704
-35.2871
-35.299
-35.3063
-35.3092
-35.3077
-35.3022
-35.2926
-35.2793
-35.2624
-35.242
-35.2183
-35.1915
-35.1617
-35.1291
-35.0938
-35.0559
-35.0156
-34.973
-34.9279
-34.8806
-34.8309
-34.7787
-34.724
-34.6666
-32.1261
-32.1658
-32.2014
-32.2319
-32.2571
-32.2774
-32.293
-32.3039
-32.3105
-32.3127
-32.3109
-32.3051
-32.2954
-32.2822
-32.2654
-32.2454
-32.2222
-32.1961
-32.1672
-32.1356
-32.1014
-32.0649
-32.0262
-31.9852
-31.942
-31.8968
-31.8494
-31.7998
-31.7478
-31.6936
-29.4419
-29.4792
-29.5125
-29.5409
-29.5643
-29.5829
-29.5971
-29.6068
-29.6122
-29.6136
-29.6109
-29.6045
-29.5944
-29.5808
-29.5639
-29.5438
-29.5207
-29.4948
-29.4663
-29.4353
-29.4019
-29.3663
-29.3286
-29.2889
-29.2472
-29.2036
-29.1581
-29.1107
-29.0611
-29.0096
-27.0249
-27.0598
-27.0907
-27.117
-27.1384
-27.1554
-27.1679
-27.1762
-27.1804
-27.1806
-27.177
-27.1697
-27.1589
-27.1447
-27.1273
-27.1069
-27.0837
-27.0577
-27.0292
-26.9984
-26.9654
-26.9304
-26.8934
-26.8547
-26.8142
-26.772
-26.7281
-26.6825
-26.635
-26.5858
-24.8463
-24.8788
-24.9075
-24.9316
-24.9511
-24.9663
-24.9772
-24.9841
-24.9869
-24.9859
-24.9812
-24.9729
-24.9612
-24.9463
-24.9283
-24.9073
-24.8837
-24.8575
-24.8289
-24.7981
-24.7652
-24.7305
-24.694
-24.656
-24.6164
-24.5753
-24.5327
-24.4887
-24.4431
-24.3959
-22.8804
-22.9107
-22.9372
-22.9593
-22.977
-22.9904
-22.9997
-23.0051
-23.0066
-23.0043
-22.9985
-22.9891
-22.9765
-22.9607
-22.942
-22.9204
-22.8962
-22.8696
-22.8407
-22.8097
-22.7769
-22.7423
-22.7061
-22.6686
-22.6297
-22.5896
-22.5482
-22.5056
-22.4616
-22.4162
-21.1045
-21.1327
-21.1572
-21.1774
-21.1933
-21.2051
-21.2129
-21.2168
-21.2169
-21.2135
-21.2065
-21.1961
-21.1825
-21.1659
-21.1463
-21.1241
-21.0993
-21.0721
-21.0428
-21.0116
-20.9786
-20.944
-20.908
-20.8708
-20.8325
-20.7932
-20.7528
-20.7115
-20.669
-20.6254
-19.4985
-19.5248
-19.5474
-19.5658
-19.58
-19.5903
-19.5966
-19.5992
-19.5981
-19.5934
-19.5853
-19.5739
-19.5594
-19.5418
-19.5215
-19.4985
-19.4731
-19.4454
-19.4156
-19.384
-19.3507
-19.316
-19.2801
-19.2432
-19.2053
-19.1667
-19.1273
-19.0872
-19.0462
-19.0042
-18.0446
-18.0691
-18.09
-18.1068
-18.1195
-18.1282
-18.1332
-18.1345
-18.1322
-18.1264
-18.1172
-18.1049
-18.0894
-18.071
-18.0499
-18.0262
-18.0001
-17.9718
-17.9415
-17.9095
-17.8759
-17.841
-17.8051
-17.7682
-17.7308
-17.6928
-17.6543
-17.6153
-17.5757
-17.5354
-16.7271
-16.75
-16.7692
-16.7845
-16.7958
-16.8032
-16.807
-16.8071
-16.8036
-16.7968
-16.7866
-16.7733
-16.757
-16.7377
-16.7158
-16.6914
-16.6646
-16.6357
-16.6049
-16.5724
-16.5384
-16.5033
-16.4672
-16.4305
-16.3933
-16.3558
-16.3182
-16.2803
-16.2422
-16.2035
-15.532
-15.5534
-15.5712
-15.585
-15.595
-15.6013
-15.6038
-15.6028
-15.5983
-15.5905
-15.5794
-15.5652
-15.548
-15.528
-15.5054
-15.4802
-15.4528
-15.4233
-15.3919
-15.3588
-15.3245
-15.289
-15.2527
-15.216
-15.1789
-15.1419
-15.105
-15.0684
-15.0317
-14.9947
-14.4469
-14.467
-14.4834
-14.496
-14.5048
-14.5099
-14.5114
-14.5094
-14.5039
-14.4952
-14.4832
-14.4682
-14.4502
-14.4295
-14.4061
-14.3803
-14.3522
-14.322
-14.29
-14.2565
-14.2216
-14.1857
-14.1492
-14.1123
-14.0753
-14.0387
-14.0025
-13.9669
-13.9318
-13.8968
-13.4609
-13.4797
-13.495
-13.5064
-13.5141
-13.5181
-13.5186
-13.5157
-13.5093
-13.4997
-13.487
-13.4712
-13.4525
-13.431
-13.4069
-13.3804
-13.3517
-13.3209
-13.2883
-13.2542
-13.2187
-13.1824
-13.1454
-13.1083
-13.0713
-13.0349
-12.9994
-12.9649
-12.9314
-12.8984
-12.5642
-12.5819
-12.596
-12.6063
-12.613
-12.6161
-12.6157
-12.6118
-12.6047
-12.5943
-12.5808
-12.5642
-12.5448
-12.5227
-12.498
-12.4708
-12.4414
-12.41
-12.3768
-12.342
-12.306
-12.2691
-12.2317
-12.1941
-12.1569
-12.1206
-12.0856
-12.0522
-12.0204
-11.9897
-11.748
-11.7646
-11.7777
-11.787
-11.7928
-11.795
-11.7937
-11.7891
-11.7811
-11.77
-11.7558
-11.7386
-11.7185
-11.6957
-11.6704
-11.6426
-11.6126
-11.5805
-11.5467
-11.5112
-11.4746
-11.437
-11.3989
-11.3608
-11.3233
-11.2869
-11.2522
-11.2198
-11.1897
-11.1616
-11.0046
-11.0201
-11.0322
-11.0407
-11.0455
-11.0469
-11.0448
-11.0394
-11.0308
-11.019
-11.0041
-10.9862
-10.9655
-10.9421
-10.9162
-10.8878
-10.8572
-10.8245
-10.7899
-10.7538
-10.7164
-10.6781
-10.6393
-10.6005
-10.5623
-10.5256
-10.491
-10.4594
-10.4312
-10.4061
-10.3268
-10.3414
-10.3526
-10.3602
-10.3642
-10.3648
-10.362
-10.3559
-10.3466
-10.3341
-10.3186
-10.3001
-10.2788
-10.2549
-10.2283
-10.1993
-10.1681
-10.1347
-10.0995
-10.0627
-10.0245
-9.98538
-9.94566
-9.90594
-9.86691
-9.82946
-9.79463
-9.7636
-9.73725
-9.71562
-9.70834
-9.7221
-9.7324
-9.73915
-9.7424
-9.74225
-9.73874
-9.73196
-9.72198
-9.70888
-9.69275
-9.67371
-9.65184
-9.62727
-9.60013
-9.57056
-9.53869
-9.50471
-9.46881
-9.43121
-9.39218
-9.35207
-9.3113
-9.27043
-9.2302
-9.19164
-9.15603
-9.12509
-9.10037
-9.08285
-9.14365
-9.15655
-9.16601
-9.17195
-9.17444
-9.17355
-9.16934
-9.16188
-9.15124
-9.13751
-9.12076
-9.1011
-9.07863
-9.05346
-9.0257
-8.99548
-8.96294
-8.92824
-8.89156
-8.8531
-8.81311
-8.77189
-8.72985
-8.68753
-8.64568
-8.60544
-8.56831
-8.5367
-8.51283
-8.49964
-8.62746
-8.63967
-8.64846
-8.65375
-8.65563
-8.65414
-8.64935
-8.64133
-8.63015
-8.61588
-8.5986
-8.57841
-8.55541
-8.52969
-8.50137
-8.47056
-8.43739
-8.40201
-8.36457
-8.32526
-8.28428
-8.24192
-8.19851
-8.15455
-8.11076
-8.06829
-8.02882
-7.9957
-7.97194
-7.9634
-8.15496
-8.1668
-8.17525
-8.18025
-8.18186
-8.18014
-8.17515
-8.16696
-8.15562
-8.14122
-8.12384
-8.10357
-8.08048
-8.05469
-8.0263
-7.99542
-7.96216
-7.92665
-7.88904
-7.84948
-7.80815
-7.76529
-7.72116
-7.67619
-7.63097
-7.58655
-7.54456
-7.50932
-7.48536
-7.488
-7.72255
-7.73284
-7.73985
-7.74352
-7.74391
-7.74107
-7.73507
-7.72597
-7.71383
-7.69872
-7.68072
-7.65991
-7.63638
-7.61022
-7.58153
-7.55041
-7.51695
-7.48129
-7.44353
-7.40381
-7.36227
-7.31908
-7.27443
-7.22862
-7.18204
-7.13543
-7.08988
-7.04916
-7.01704
-7.03639
-71.9028
-72.1032
-72.2739
-72.4626
-72.6647
-72.8697
-73.0732
-73.2746
-73.473
-73.6677
-73.8578
-74.0427
-74.2219
-74.395
-74.5617
-74.7219
-74.8753
-75.0219
-75.1614
-75.2939
-75.4195
-75.538
-75.6498
-75.7549
-75.8538
-75.947
-76.0355
-76.1213
-76.2077
-76.2995
-63.3448
-63.5719
-63.7823
-63.9939
-64.207
-64.4179
-64.6248
-64.8275
-65.0262
-65.2203
-65.4094
-65.5932
-65.7712
-65.9433
-66.1091
-66.2685
-66.4214
-66.5676
-66.707
-66.8396
-66.9654
-67.0844
-67.1966
-67.3024
-67.4018
-67.4953
-67.5834
-67.6666
-67.7454
-67.8168
-56.8522
-57.0871
-57.3125
-57.5313
-57.7456
-57.9558
-58.1614
-58.3626
-58.5591
-58.7509
-58.9376
-59.119
-59.2947
-59.4647
-59.6286
-59.7864
-59.9379
-60.0829
-60.2214
-60.3533
-60.4786
-60.5973
-60.7095
-60.8151
-60.9144
-61.0074
-61.0942
-61.1745
-61.2477
-61.3118
-51.4244
-51.6546
-51.8787
-52.0955
-52.3066
-52.513
-52.715
-52.9124
-53.105
-53.2928
-53.4756
-53.6531
-53.8252
-53.9916
-54.1522
-54.3069
-54.4556
-54.598
-54.7342
-54.8641
-54.9876
-55.1047
-55.2154
-55.3198
-55.4178
-55.5093
-55.5943
-55.6725
-55.7433
-55.8062
-46.488
-46.7093
-46.9269
-47.1385
-47.3443
-47.5454
-47.7419
-47.9339
-48.1212
-48.3036
-48.481
-48.6533
-48.8203
-48.9819
-49.138
-49.2883
-49.4328
-49.5714
-49.7039
-49.8305
-49.9509
-50.0652
-50.1732
-50.2751
-50.3707
-50.4599
-50.5427
-50.6188
-50.6879
-50.7497
-42.0618
-42.2738
-42.4834
-42.688
-42.8871
-43.0816
-43.2715
-43.4569
-43.6377
-43.8137
-43.9849
-44.1511
-44.3122
-44.4681
-44.6186
-44.7636
-44.903
-45.0368
-45.1649
-45.2871
-45.4035
-45.5139
-45.6184
-45.7168
-45.8092
-45.8955
-45.9754
-46.049
-46.116
-46.1761
-38.1175
-38.3204
-38.5214
-38.7181
-38.9097
-39.0968
-39.2796
-39.4579
-39.6318
-39.801
-39.9655
-40.1251
-40.2799
-40.4295
-40.574
-40.7133
-40.8471
-40.9756
-41.0985
-41.2159
-41.3276
-41.4336
-41.5339
-41.6283
-41.717
-41.7997
-41.8764
-41.947
-42.0113
-42.0692
-34.5953
-34.7895
-34.9821
-35.1707
-35.3547
-35.5344
-35.7098
-35.881
-36.0478
-36.2102
-36.3679
-36.5209
-36.6692
-36.8125
-36.9509
-37.0842
-37.2123
-37.3352
-37.4527
-37.5649
-37.6717
-37.773
-37.8688
-37.959
-38.0435
-38.1224
-38.1955
-38.2628
-38.3242
-38.3796
-31.4446
-31.6307
-31.8152
-31.996
-32.1726
-32.345
-32.5134
-32.6777
-32.8377
-32.9933
-33.1444
-33.291
-33.4329
-33.5701
-33.7024
-33.8298
-33.9522
-34.0695
-34.1817
-34.2888
-34.3906
-34.4871
-34.5783
-34.6641
-34.7445
-34.8194
-34.8889
-34.9527
-35.0109
-35.0635
-28.6222
-28.8008
-28.9778
-29.1513
-29.3208
-29.4865
-29.6482
-29.8058
-29.9593
-30.1086
-30.2535
-30.3939
-30.5297
-30.661
-30.7875
-30.9093
-31.0262
-31.1382
-31.2452
-31.3473
-31.4442
-31.5361
-31.6228
-31.7043
-31.7806
-31.8516
-31.9174
-31.9778
-32.0328
-32.0825
-26.0896
-26.2615
-26.4316
-26.5984
-26.7614
-26.9207
-27.0762
-27.2277
-27.3752
-27.5185
-27.6575
-27.7922
-27.9224
-28.0481
-28.1692
-28.2856
-28.3974
-28.5043
-28.6065
-28.7037
-28.7961
-28.8835
-28.9659
-29.0433
-29.1157
-29.1829
-29.2451
-29.3022
-29.3541
-29.4009
-23.8135
-23.9791
-24.1431
-24.3038
-24.4609
-24.6143
-24.7641
-24.91
-25.0519
-25.1897
-25.3233
-25.4526
-25.5776
-25.6981
-25.8142
-25.9257
-26.0326
-26.1349
-26.2324
-26.3252
-26.4133
-26.4965
-26.5749
-26.6484
-26.7171
-26.7808
-26.8396
-26.8935
-26.9424
-26.9864
-21.7644
-21.9246
-22.0829
-22.2381
-22.3898
-22.538
-22.6825
-22.8232
-22.96
-23.0928
-23.2214
-23.3458
-23.466
-23.5818
-23.6932
-23.8001
-23.9026
-24.0005
-24.0938
-24.1826
-24.2666
-24.346
-24.4207
-24.4906
-24.5558
-24.6162
-24.6719
-24.7227
-24.7688
-24.8102
-19.9171
-20.0723
-20.2256
-20.3758
-20.5227
-20.6661
-20.8058
-20.9419
-21.074
-21.2021
-21.3262
-21.4461
-21.5619
-21.6733
-21.7804
-21.8832
-21.9816
-22.0755
-22.165
-22.2499
-22.3303
-22.4061
-22.4774
-22.544
-22.606
-22.6634
-22.7161
-22.7642
-22.8077
-22.8466
-18.2495
-18.4002
-18.5489
-18.6947
-18.8372
-18.9763
-19.1117
-19.2435
-19.3713
-19.4953
-19.6152
-19.731
-19.8426
-19.9501
-20.0533
-20.1523
-20.2469
-20.3372
-20.4231
-20.5046
-20.5816
-20.6542
-20.7223
-20.7859
-20.845
-20.8995
-20.9496
-20.9952
-21.0362
-21.0728
-16.7421
-16.8888
-17.0335
-17.1754
-17.3139
-17.449
-17.5806
-17.7084
-17.8324
-17.9525
-18.0686
-18.1806
-18.2885
-18.3924
-18.492
-18.5874
-18.6786
-18.7656
-18.8482
-18.9265
-19.0005
-19.0701
-19.1353
-19.1962
-19.2526
-19.3046
-19.3522
-19.3954
-19.4342
-19.4688
-15.3781
-15.5212
-15.6624
-15.8007
-15.9357
-16.0672
-16.1952
-16.3195
-16.44
-16.5565
-16.6691
-16.7776
-16.8821
-16.9826
-17.0789
-17.1712
-17.2592
-17.3431
-17.4228
-17.4982
-17.5694
-17.6363
-17.6989
-17.7572
-17.8112
-17.8608
-17.9062
-17.9473
-17.9841
-18.0167
-14.1427
-14.2826
-14.4206
-14.5557
-14.6875
-14.8159
-14.9406
-15.0616
-15.1788
-15.292
-15.4014
-15.5067
-15.6081
-15.7054
-15.7988
-15.888
-15.9732
-16.0543
-16.1312
-16.204
-16.2726
-16.337
-16.3972
-16.4532
-16.505
-16.5526
-16.5959
-16.635
-16.6699
-16.7008
-13.0227
-13.1597
-13.2949
-13.4272
-13.5562
-13.6817
-13.8034
-13.9214
-14.0355
-14.1457
-14.252
-14.3544
-14.4528
-14.5473
-14.6379
-14.7244
-14.8069
-14.8854
-14.9598
-15.0302
-15.0965
-15.1586
-15.2166
-15.2705
-15.3203
-15.3659
-15.4074
-15.4447
-15.4779
-15.5072
-12.0065
-12.141
-12.2738
-12.4036
-12.53
-12.6528
-12.7718
-12.887
-12.9982
-13.1056
-13.2091
-13.3087
-13.4044
-13.4962
-13.5842
-13.6682
-13.7483
-13.8244
-13.8965
-13.9647
-14.0288
-14.0889
-14.1449
-14.1969
-14.2448
-14.2886
-14.3284
-14.3641
-14.3958
-14.4235
-11.0838
-11.2161
-11.3468
-11.4745
-11.5986
-11.7189
-11.8353
-11.9478
-12.0564
-12.1611
-12.2619
-12.3589
-12.4521
-12.5415
-12.627
-12.7087
-12.7865
-12.8605
-12.9305
-12.9966
-13.0587
-13.1169
-13.1711
-13.2213
-13.2675
-13.3097
-13.3479
-13.3822
-13.4124
-13.4388
-10.2452
-10.3756
-10.5047
-10.6307
-10.7527
-10.8706
-10.9846
-11.0946
-11.2006
-11.3027
-11.4011
-11.4957
-11.5865
-11.6736
-11.7569
-11.8364
-11.9121
-11.9841
-12.0521
-12.1164
-12.1767
-12.2331
-12.2856
-12.3342
-12.3788
-12.4195
-12.4563
-12.4892
-12.5181
-12.5432
-9.48229
-9.6113
-9.73943
-9.86386
-9.98389
-10.0997
-10.2113
-10.3188
-10.4224
-10.5222
-10.6182
-10.7105
-10.7991
-10.884
-10.9653
-11.0428
-11.1166
-11.1867
-11.253
-11.3154
-11.3741
-11.4289
-11.4798
-11.5269
-11.5701
-11.6094
-11.6449
-11.6764
-11.7042
-11.7281
-8.78729
-8.91556
-9.04342
-9.16666
-9.28485
-9.3985
-9.50784
-9.61305
-9.71432
-9.81182
-9.90564
-9.99582
-10.0824
-10.1653
-10.2447
-10.3204
-10.3924
-10.4607
-10.5253
-10.5861
-10.6432
-10.6965
-10.746
-10.7917
-10.8335
-10.8716
-10.9058
-10.9362
-10.9628
-10.9857
-8.1532
-8.28175
-8.41025
-8.53256
-8.64897
-8.76057
-8.86771
-8.97067
-9.06974
-9.1651
-9.25685
-9.34504
-9.42969
-9.51079
-9.58832
-9.66226
-9.73259
-9.79928
-9.86231
-9.92164
-9.97725
-10.0291
-10.0773
-10.1216
-10.1622
-10.199
-10.2321
-10.2614
-10.2869
-10.3088
-7.57354
-7.70458
-7.83488
-7.95628
-8.07088
-8.18045
-8.28542
-8.38618
-8.48311
-8.57641
-8.66619
-8.75248
-8.83529
-8.91462
-8.99043
-9.06271
-9.13143
-9.19656
-9.25808
-9.31595
-9.37016
-9.42068
-9.46751
-9.51062
-9.55001
-9.58567
-9.61762
-9.64586
-9.67039
-9.69129
-7.03964
-7.17834
-7.31239
-7.43265
-7.54524
-7.65274
-7.75552
-7.85411
-7.94895
-8.04027
-8.12814
-8.21259
-8.29364
-8.37125
-8.44541
-8.51609
-8.58326
-8.6469
-8.70697
-8.76345
-8.81631
-8.86554
-8.91112
-8.95303
-8.99126
-9.02583
-9.05671
-9.08394
-9.1075
-9.12747
-6.53493
-6.68995
-6.83208
-6.95158
-7.06214
-7.16766
-7.2684
-7.36501
-7.45799
-7.54757
-7.63379
-7.71667
-7.79621
-7.87238
-7.94516
-8.0145
-8.08039
-8.14279
-8.20168
-8.25702
-8.30879
-8.35697
-8.40155
-8.4425
-8.47982
-8.5135
-8.54354
-8.56996
-8.59275
-8.61198
-6.05103
-6.23026
-6.38547
-6.50613
-6.61506
-6.71863
-6.81753
-6.91243
-7.00387
-7.09203
-7.17694
-7.25858
-7.33694
-7.41199
-7.48369
-7.55201
-7.61692
-7.6784
-7.7364
-7.79091
-7.84189
-7.88932
-7.93319
-7.97348
-8.01018
-8.04328
-8.07279
-8.09871
-8.12104
-8.13984
-5.68559
-5.88488
-6.03608
-6.15384
-6.25838
-6.3567
-6.45109
-6.54204
-6.62975
-6.71434
-6.79582
-6.87412
-6.94921
-7.02105
-7.08961
-7.15487
-7.21679
-7.27535
-7.33053
-7.38229
-7.43061
-7.47548
-7.51687
-7.55479
-7.58921
-7.62014
-7.64758
-7.67154
-7.69201
-7.70906
-2.18219
-2.53273
-2.92201
-3.35118
-3.82433
-4.34605
-4.9211
-5.55475
-6.25287
-7.02204
-7.86959
-8.80374
-9.83373
-10.97
-12.2243
-13.6099
-15.1421
-16.8383
-18.7183
-20.8054
-23.1264
-25.7126
-28.6009
-31.834
-35.4646
-39.5582
-44.1551
-49.2556
-55.4541
-63.7801
-2.28561
-2.6382
-3.02803
-3.4581
-3.9324
-4.45535
-5.03174
-5.66686
-6.36661
-7.13757
-7.98711
-8.92346
-9.9559
-11.0948
-12.3521
-13.7411
-15.277
-16.9774
-18.8621
-20.9545
-23.2815
-25.8745
-28.7703
-32.012
-35.6522
-39.7561
-44.364
-49.4737
-55.6737
-63.9883
-2.39121
-2.74586
-3.13629
-3.56734
-4.04286
-4.56712
-5.14492
-5.78158
-6.48304
-7.25589
-8.10751
-9.04617
-10.0811
-11.2229
-12.4833
-13.8758
-15.4156
-17.1203
-19.0099
-21.1078
-23.441
-26.041
-28.9446
-32.195
-35.8446
-39.9586
-44.5763
-49.6934
-55.8912
-64.187
-2.49879
-2.8555
-3.24658
-3.67866
-4.15546
-4.68108
-5.26034
-5.89861
-6.60183
-7.37663
-8.23039
-9.17141
-10.209
-11.3537
-12.6173
-14.0133
-15.5571
-17.2662
-19.1608
-21.2643
-23.6037
-26.2108
-29.1223
-32.3814
-36.0404
-40.164
-44.7912
-49.9164
-56.1166
-64.4037
-2.60821
-2.96699
-3.35875
-3.79193
-4.27008
-4.79712
-5.3779
-6.01783
-6.72287
-7.49966
-8.35562
-9.29906
-10.3393
-11.4869
-12.7538
-14.1535
-15.7013
-17.4149
-19.3146
-21.4237
-23.7695
-26.3836
-29.3031
-32.5708
-36.2392
-40.3726
-45.0095
-50.1437
-56.35
-64.6356
-2.71935
-3.08021
-3.4727
-3.90705
-4.3866
-4.91512
-5.49748
-6.13912
-6.84604
-7.62488
-8.4831
-9.42902
-10.472
-11.6227
-12.8929
-14.2962
-15.8482
-17.5664
-19.4712
-21.586
-23.9382
-26.5595
-29.4869
-32.7635
-36.4414
-40.5847
-45.2316
-50.3753
-56.5892
-64.8762
-2.83208
-3.19502
-3.58828
-4.02386
-4.50489
-5.03495
-5.61895
-6.26237
-6.97122
-7.75218
-8.61271
-9.56117
-10.607
-11.7607
-13.0343
-14.4415
-15.9976
-17.7205
-19.6305
-21.7511
-24.1098
-26.7384
-29.674
-32.9595
-36.647
-40.8006
-45.4577
-50.6112
-56.8329
-65.1232
-2.94628
-3.31129
-3.70537
-4.14226
-4.62482
-5.15649
-5.74219
-6.38744
-7.09828
-7.88141
-8.74431
-9.69538
-10.744
-11.9009
-13.178
-14.589
-16.1494
-17.877
-19.7923
-21.9189
-24.2843
-26.9202
-29.864
-33.1586
-36.856
-41.0199
-45.6876
-50.851
-57.0811
-65.3757
-3.06183
-3.42891
-3.82385
-4.26211
-4.74628
-5.27962
-5.86707
-6.51421
-7.2271
-8.01246
-8.87779
-9.83152
-10.8831
-12.0432
-13.3238
-14.7387
-16.3035
-18.0359
-19.9566
-22.0893
-24.4613
-27.1048
-30.0569
-33.3607
-37.0681
-41.2427
-45.9211
-51.0947
-57.3335
-65.6334
-3.17863
-3.54776
-3.9436
-4.38331
-4.86915
-5.40422
-5.99349
-6.64258
-7.35756
-8.1452
-9.01302
-9.96946
-11.024
-12.1874
-13.4716
-14.8905
-16.4597
-18.1971
-20.1232
-22.262
-24.6408
-27.292
-30.2526
-33.5657
-37.2833
-41.4685
-46.1579
-51.342
-57.5899
-65.8955
-3.29658
-3.66773
-4.06452
-4.50575
-4.99333
-5.53018
-6.12133
-6.77241
-7.48955
-8.27952
-9.14987
-10.1091
-11.1667
-12.3334
-13.6213
-15.0442
-16.6179
-18.3602
-20.2919
-22.4369
-24.8227
-27.4816
-30.4507
-33.7733
-37.5012
-41.6974
-46.3979
-51.5927
-57.8498
-66.1615
-3.41557
-3.78873
-4.1865
-4.62933
-5.11872
-5.65742
-6.25048
-6.90362
-7.62297
-8.41531
-9.28824
-10.2503
-11.3109
-12.481
-13.7726
-15.1997
-16.7779
-18.5253
-20.4626
-22.6139
-25.0067
-27.6734
-30.6513
-33.9835
-37.7218
-41.929
-46.6407
-51.8463
-58.1128
-66.4308
-3.53554
-3.91069
-4.30947
-4.75397
-5.24523
-5.78583
-6.38087
-7.03611
-7.7577
-8.55246
-9.42801
-10.3929
-11.4567
-12.6301
-13.9255
-15.3567
-16.9396
-18.6921
-20.6352
-22.7928
-25.1927
-27.8673
-30.854
-34.1959
-37.9447
-42.1631
-46.8862
-52.1027
-58.3785
-66.7029
-3.65642
-4.03352
-4.43336
-4.87959
-5.37278
-5.91533
-6.5124
-7.16977
-7.89365
-8.69086
-9.56906
-10.5368
-11.6037
-12.7807
-14.0799
-15.5153
-17.1028
-18.8605
-20.8093
-22.9734
-25.3805
-28.0631
-31.0587
-34.4104
-38.1698
-42.3994
-47.134
-52.3614
-58.6467
-66.9775
-3.77818
-4.15719
-4.55811
-5.00614
-5.50132
-6.04586
-6.64499
-7.30454
-8.03072
-8.83041
-9.71129
-10.682
-11.7521
-12.9325
-14.2355
-15.6752
-17.2674
-19.0303
-20.9849
-23.1555
-25.5699
-28.2606
-31.2652
-34.6267
-38.3969
-42.6378
-47.3838
-52.6223
-58.917
-67.2541
-3.90079
-4.28166
-4.68368
-5.13358
-5.63079
-6.17736
-6.77857
-7.44031
-8.16882
-8.97101
-9.85458
-10.8282
-11.9015
-13.0854
-14.3923
-15.8362
-17.4331
-19.2013
-21.1619
-23.339
-25.7607
-28.4596
-31.4732
-34.8447
-38.6256
-42.8779
-47.6355
-52.8849
-59.189
-67.5325
-4.02428
-4.40695
-4.81008
-5.26188
-5.76116
-6.30977
-6.91308
-7.57702
-8.30786
-9.11254
-9.9988
-10.9753
-12.0518
-13.2392
-14.55
-15.9982
-17.5999
-19.3734
-21.3399
-23.5236
-25.9527
-28.6598
-31.6825
-35.064
-38.8558
-43.1195
-47.8887
-53.1491
-59.4626
-67.8123
-4.1487
-4.53309
-4.9373
-5.39104
-5.89239
-6.44305
-7.04844
-7.71457
-8.44773
-9.25489
-10.1438
-11.1233
-12.203
-13.3939
-14.7086
-16.1611
-17.7675
-19.5464
-21.5188
-23.7091
-26.1456
-28.861
-31.893
-35.2845
-39.0871
-43.3623
-48.1431
-53.4145
-59.7373
-68.0932
-4.27415
-4.66014
-5.06539
-5.52105
-6.02447
-6.57714
-7.18459
-7.85287
-8.58832
-9.39793
-10.2895
-11.2719
-12.3547
-13.5492
-14.8677
-16.3245
-17.9358
-19.72
-21.6983
-23.8954
-26.3394
-29.0631
-32.1042
-35.5059
-39.3194
-43.6061
-48.3985
-53.6808
-60.013
-68.375
-4.40077
-4.7882
-5.19439
-5.65193
-6.15736
-6.71199
-7.32143
-7.99181
-8.72949
-9.54151
-10.4357
-11.4209
-12.5069
-13.7049
-15.0273
-16.4884
-18.1044
-19.894
-21.8783
-24.0821
-26.5336
-29.2657
-32.3161
-35.7279
-39.5524
-43.8506