/*--------------------------------*- C++ -*----------------------------------*\
  =========                 |
  \\      /  F ield         | OpenFOAM: The Open Source CFD Toolbox
   \\    /   O peration     | Website:  https://openfoam.org
    \\  /    A nd           | Version:  6.0
     \\/     M anipulation  |
\*---------------------------------------------------------------------------*/
FoamFile
{
    version     2.0;
    format      ascii;
    class       surfaceScalarField;
    location    "24.5";
    object      phi;
}
// * * * * * * * * * * * * * * * * * * * * * * * * * * * * * * * * * * * * * //

dimensions      [0 3 -1 0 0 0 0];

internalField   nonuniform List<scalar> 
4670
(
-0.000187245
-0.0216643
0.0218515
-0.000513846
-0.0167975
0.0171241
-0.000855524
-0.0131807
0.0135224
-0.00114374
-0.0105033
0.0107915
-0.0013445
-0.00851652
0.00871727
-0.00144724
-0.00702751
0.00713025
-0.00145787
-0.00589053
0.00590116
-0.00139419
-0.00499739
0.00493371
-0.00128306
-0.00426843
0.0041573
-0.00364636
0.00352123
-0.00115794
-0.000172132
-0.0214922
-0.000448032
-0.0165216
-0.000697809
-0.0129309
-0.000852068
-0.010349
-0.000877525
-0.00849106
-0.000764566
-0.00714047
-0.000520312
-0.00613478
-0.000164747
-0.00535295
0.000271201
-0.00470438
-0.00412247
0.000747314
-0.000148369
-0.0213438
-0.000346063
-0.0163239
-0.000462618
-0.0128144
-0.000430194
-0.0103815
-0.000216938
-0.00870432
0.000186286
-0.00754369
0.000772504
-0.006721
0.00152128
-0.00610172
0.00239875
-0.00558185
-0.00508095
0.00335723
-0.00011454
-0.0212292
-0.000207075
-0.0162314
-0.000150594
-0.0128708
0.000117995
-0.0106501
0.000627289
-0.00921361
0.00138552
-0.00830193
0.00238689
-0.00772237
0.00361275
-0.00732758
0.00502886
-0.00699796
-0.00663302
0.00658094
-6.95604e-05
-0.0211597
-2.8729e-05
-0.0162722
0.000241042
-0.0131406
0.000793888
-0.0112029
0.00165192
-0.0100716
0.00282048
-0.00947049
0.00429474
-0.00919663
0.00605999
-0.00909284
0.00808578
-0.00902375
-0.00886206
0.0103148
-1.17661e-05
-0.0211479
0.000193198
-0.0164772
0.000718895
-0.0136663
0.00160532
-0.0120893
0.00286331
-0.0113296
0.004491
-0.0110982
0.00648169
-0.0111873
0.0088251
-0.0114362
0.0114997
-0.0116984
-0.0118147
0.0144524
6.09211e-05
-0.0212088
0.000463833
-0.0168801
0.00129142
-0.0144939
0.00256406
-0.013362
0.00427546
-0.013041
0.00640974
-0.0132325
0.00895136
-0.0137289
0.01189
-0.0143748
0.0152162
-0.0150247
-0.0154919
0.0188935
0.000150318
-0.0213592
0.00078681
-0.0175166
0.00196405
-0.0156711
0.00367819
-0.0150761
0.0059003
-0.0152631
0.00859236
-0.0159245
0.0117185
-0.016855
0.0152553
-0.0179116
0.0192013
-0.0189707
-0.0198567
0.023566
0.000257244
-0.0216164
0.00116118
-0.0184205
0.00273266
-0.0172426
0.00494165
-0.0172851
0.00773436
-0.0180558
0.0110455
-0.0192357
0.0148065
-0.0206161
0.0189575
-0.0220626
0.0234818
-0.023495
-0.0248818
0.0285068
0.000381498
-0.0219979
0.00157737
-0.0196164
0.00357413
-0.0192394
0.00631752
-0.0200285
0.00973567
-0.021474
0.0137483
-0.0232483
0.0182683
-0.0251361
0.0231936
-0.0269878
0.0284079
-0.0287093
-0.0303353
0.0338615
0.0302258
0.00118629
-0.031412
0.0290349
0.00119083
0.0278664
0.00116851
0.0267457
0.00112069
0.025695
0.00105076
0.0247322
0.000962811
0.0238713
0.000860888
0.023123
0.0007483
0.0224958
0.000627182
0.000497884
0.0402056
0.00370672
-0.042726
0.037567
0.00382949
0.0348806
0.0038549
0.0322139
0.00378734
0.0296295
0.00363522
0.0271826
0.00340962
0.0249211
0.00312238
0.0228852
0.00278426
0.0211084
0.00240399
0.00198985
0.0490011
0.00687703
-0.0521714
0.0455617
0.00726891
0.0419464
0.00747023
0.038251
0.00748271
0.03457
0.00731616
0.0309929
0.00698678
0.0276013
0.006514
0.0244689
0.00591665
0.0216622
0.00521072
0.00441262
0.0562679
0.0102198
-0.0596106
0.0525036
0.0110332
0.0484155
0.0115583
0.0441118
0.0117864
0.0397065
0.0117214
0.0353139
0.0113794
0.0310448
0.0107832
0.027005
0.00995642
0.0232983
0.00891745
0.0076824
0.061952
0.0134214
-0.0651535
0.0581992
0.0147859
0.0539827
0.0157749
0.0494077
0.0163614
0.0445929
0.0165362
0.0396649
0.0163073
0.0347528
0.0156953
0.0299872
0.0147221
0.025507
0.0133976
0.0117154
0.0661707
0.0163006
-0.0690499
0.0626469
0.0183097
0.0585456
0.0198762
0.0539568
0.0209502
0.0489905
0.0215025
0.0437709
0.0215269
0.0384309
0.0210353
0.033111
0.020042
0.027974
0.0185345
0.0164412
0.0691261
0.0187761
-0.0716016
0.0659524
0.0214835
0.0621229
0.0237057
0.0577049
0.0253682
0.0527893
0.0264182
0.0474854
0.0268308
0.0419136
0.0266071
0.0362022
0.0257534
0.0305115
0.0242252
0.0218166
0.0710443
0.0208356
-0.0731038
0.0682696
0.0242582
0.0647981
0.0271771
0.0606723
0.029494
0.0559586
0.0311318
0.0507434
0.032046
0.0451206
0.03223
0.0391793
0.0316947
0.033025
0.0303795
0.0278538
0.0721354
0.0225088
-0.0738086
0.0697592
0.0266344
0.0666793
0.030257
0.0629156
0.0332578
0.0585112
0.0355362
0.053528
0.0370292
0.0480297
0.0377283
0.042046
0.0376784
0.0355408
0.0368847
0.0346852
0.0725687
-0.0739097
0.0238499
0.0705581
0.0286449
0.0678645
0.0329506
0.0644919
0.0366304
0.0604654
0.0395627
0.0558294
0.0416652
0.0506308
0.0429269
0.0448662
0.043443
0.0383421
0.0434089
0.0426919
0.0367751
-0.000324746
-0.0364504
0.0368976
-0.000122506
0.0368132
8.43995e-05
0.0365249
0.000288338
0.0360418
0.000483045
0.0353792
0.000662634
0.0345576
0.00082166
0.0336022
0.000955364
0.0325425
0.00105969
0.00113045
0.0509302
-0.00149818
-0.0497567
0.0516771
-0.000869462
0.0519858
-0.000224263
0.0518506
0.000423524
0.0512755
0.0010581
0.0502756
0.00166261
0.0488773
0.00221995
0.0471189
0.00271378
0.0450492
0.00312931
0.00345363
0.058952
-0.0034658
-0.0569844
0.0604046
-0.00232204
0.0613152
-0.00113488
0.0616622
7.64586e-05
0.0614337
0.00128661
0.0606298
0.00246653
0.0592647
0.00358511
0.0573676
0.00461082
0.0549834
0.00551349
0.00626566
0.0629379
-0.00607043
-0.0603332
0.0650207
-0.00440485
0.0665403
-0.00265455
0.0674589
-0.000842128
0.067747
0.000998535
0.0673865
0.00282704
0.0663729
0.00459864
0.0647175
0.00626629
0.0624481
0.00778286
0.00910312
0.0643975
-0.00913534
-0.0613326
0.0669774
-0.0069848
0.069018
-0.00469511
0.0704676
-0.00229174
0.0712833
0.000182837
0.0714323
0.00267804
0.0708936
0.00513739
0.0696594
0.00750042
0.0677377
0.00970461
0.0116873
0.0643888
-0.0125093
-0.0610148
0.0673336
-0.00992959
0.0697786
-0.00714015
0.0716621
-0.0041752
0.072934
-0.0010891
0.0735541
0.00205789
0.0734913
0.00520024
0.0727239
0.00826779
0.071242
0.0111865
0.0138794
0.0636123
-0.01609
-0.0600316
0.0668194
-0.0131367
0.0695588
-0.00987949
0.071764
-0.00638042
0.0733873
-0.0027124
0.0743897
0.00105546
0.0747377
0.00485229
0.0744023
0.00860313
0.0733613
0.0122276
0.015639
0.0625154
-0.019841
-0.0587644
0.065915
-0.0165363
0.0688516
-0.0128161
0.0712685
-0.00879738
0.0731319
-0.00457577
0.0744121
-0.000224719
0.075079
0.00418536
0.0751021
0.00858007
0.0744519
0.0128777
0.0169871
0.0614018
-0.0237849
-0.0574579
0.0649229
-0.0200574
0.0679569
-0.0158501
0.0704797
-0.0113202
0.0724796
-0.00657563
0.0739386
-0.00168375
0.0748318
0.00329222
0.0751291
0.00828271
0.0747985
0.0132083
0.017977
0.060463
-0.0564022
-0.0278456
0.0640058
-0.0236002
0.0670195
-0.0188638
0.0695534
-0.013854
0.0716063
-0.00862857
0.0731643
-0.00324174
0.074204
0.00225245
0.0746966
0.0077902
0.0746096
0.0132953
0.0186769
0.0423551
0.0134021
-0.00812201
-0.0476352
0.0369905
0.014137
-0.00877242
0.0315427
0.0150108
-0.00956306
0.0260284
0.016071
-0.0105567
0.0204916
0.0173765
-0.0118396
0.0150263
0.0189788
-0.0135136
0.00981287
0.0208847
-0.0156712
0.00516892
0.022982
-0.018338
0.00162078
0.0249101
-0.0213619
0.0258423
-0.0242215
0.0421253
0.018655
-0.0473781
0.0367865
0.0194758
0.0313637
0.0204336
0.0258739
0.0215608
0.0203612
0.0228892
0.0149206
0.0244194
0.0097336
0.0260717
0.00511907
0.0275965
0.00160148
0.0284276
0.0274437
0.0415224
0.0238504
-0.0467177
0.0362406
0.0247576
0.0308764
0.0257978
0.0254478
0.0269894
0.0200005
0.0283366
0.0146312
0.0297887
0.00952235
0.0311805
0.00499135
0.0321275
0.00155323
0.0318658
0.028997
0.0405496
0.0289603
-0.0456596
0.0353548
0.0299524
0.0300817
0.0310709
0.0247508
0.0323204
0.0194101
0.0336773
0.0141587
0.0350401
0.00918019
0.0361591
0.00478731
0.0365204
0.00147789
0.0351752
0.0304749
0.03921
0.0339593
-0.044209
0.0341304
0.035032
0.0289806
0.0362207
0.0237837
0.0375173
0.0185912
0.0388698
0.0135051
0.0401261
0.00870927
0.0409549
0.00450898
0.0407206
0.00137667
0.0383075
0.0318515
0.037503
0.0388235
-0.0423672
0.0325667
0.0399682
0.0275727
0.0412147
0.0225474
0.0425426
0.0175457
0.0438714
0.0126731
0.0449987
0.00811285
0.0455152
0.0041592
0.0446743
0.00125103
0.0412157
0.0331026
0.0354214
0.0435284
-0.0401262
0.0306583
0.0447313
0.0258556
0.0460174
0.0210422
0.0473561
0.0162764
0.0486372
0.0116671
0.0496081
0.00739571
0.0497865
0.00374195
0.0483281
0.00110292
0.0438547
0.0342055
0.032946
0.0480419
-0.0374596
0.0283933
0.049284
0.0238252
0.0505855
0.0192692
0.0519121
0.0147879
0.0531185
0.0104935
0.0539024
0.00656485
0.0537152
0.00326281
0.0516301
0.000934999
0.0461825
0.0351405
0.0300306
0.0523273
-0.034316
0.0257508
0.0535638
0.0214786
0.0548577
0.0172342
0.0561565
0.0130896
0.0572631
0.0091634
0.0578286
0.00563062
0.057248
0.00272975
0.054531
0.00075119
0.0481611
0.0358917
0.0266245
-0.0306994
0.0227304
0.0188237
0.0149487
0.011197
0.007693
0.00460776
0.00215435
0.000558708
0.024637
-0.0358473
0.0401161
-0.0289058
0.0206528
-0.03565
0.0396342
0.0168118
-0.0351185
0.0389595
0.013138
-0.0340784
0.0377522
0.0097058
-0.0322042
0.0356364
0.00661266
-0.0290208
0.0321139
0.00397281
-0.0238783
0.0265182
0.00190719
-0.0159332
0.0179988
0.000537011
-0.00414101
0.00551119
0.0128077
-0.0122707
0.0280682
-0.0315222
-0.0323934
0.0237948
-0.0313765
0.019607
-0.0309307
0.0155459
-0.0300174
0.0116851
-0.0283435
0.00812743
-0.0254631
0.00500371
-0.0207546
0.00247249
-0.013402
0.000722858
-0.00239138
0.0135306
0.0310818
-0.0270437
-0.0355603
0.0265819
-0.0268767
0.0221132
-0.026462
0.0177267
-0.0256308
0.0134959
-0.0241127
0.00952728
-0.0214944
0.00596625
-0.0171936
0.00300558
-0.0104413
0.000899024
-0.000284819
0.0144296
0.0337115
-0.0223965
-0.0383588
0.0290186
-0.0221838
0.0243186
-0.021762
0.01966
-0.0209722
0.0151142
-0.019567
0.0107892
-0.0171694
0.00684191
-0.0132463
0.00349515
-0.00709456
0.00106247
0.00214786
0.0154921
0.0359968
-0.0175891
-0.0408042
0.0311306
-0.0173176
0.0262322
-0.0168636
0.0213432
-0.0160831
0.0165302
-0.014754
0.0119002
-0.0125394
0.00761834
-0.00896437
0.00393255
-0.00340877
0.0012097
0.00487071
0.0167018
0.0379444
-0.0126374
-0.042896
0.0329255
-0.0122987
0.0278575
-0.0117957
0.0227747
-0.0110003
0.0177381
-0.00971739
0.012852
-0.00765326
0.00828681
-0.00439919
0.00431116
0.000566888
0.00133782
0.00784404
0.0180396
0.0395486
-0.00756307
-0.044623
0.0344015
-0.00715159
0.0291932
-0.00658734
0.0239519
-0.00575908
0.0187332
-0.00449865
0.0136382
-0.00255825
0.00884076
0.000398224
0.00462587
0.00478178
0.00144454
0.0110254
0.0194841
0.0408006
-0.00239195
-0.0459717
0.0355527
-0.00190369
0.0302349
-0.00126957
0.0248707
-0.000394878
0.0195108
0.00086123
0.0142536
0.00269899
0.00927503
0.0053768
0.0048727
0.0091841
0.00152804
0.01437
0.0210122
0.0416909
0.00284684
-0.0469297
0.0363723
0.00341492
0.0309776
0.00412514
0.0255267
0.00505603
0.0200668
0.00632113
0.0146939
0.00807188
0.00958559
0.0104851
0.00504876
0.0137209
0.00158715
0.0178317
0.0225993
0.042212
-0.0474871
0.0368545
0.0314165
0.0259159
0.0203974
0.0149556
0.00976952
0.00515245
0.00162219
0.0442628
0.0213539
-0.0255005
0.047766
0.017419
-0.0209222
0.0506801
0.0129884
-0.0159025
0.053054
0.0082351
-0.0106091
0.054876
0.00330392
-0.00512586
0.0561171
-0.00170458
0.000463446
0.0567386
-0.00668856
0.00606702
0.056699
-0.0115346
0.0115742
0.0559602
-0.0161177
0.0168565
-0.0203043
0.0544948
0.0217697
0.0434985
0.0174896
0.0469074
0.0140101
0.0497673
0.0101285
0.0520409
0.00596147
0.0537067
0.00163813
0.0547354
-0.00273331
0.0550923
-0.00704544
0.0547432
-0.0111855
0.0536612
-0.0150357
-0.0184769
0.0518338
0.0425434
0.0139056
0.0457295
0.010824
0.0483888
0.00746925
0.0504477
0.00390252
0.0518626
0.000223198
0.0525974
-0.00346804
0.0526202
-0.00706829
0.0519071
-0.0104723
0.0504468
-0.0135753
-0.0162775
0.0482474
0.0410626
0.0105952
0.0439439
0.0079427
0.046292
0.00512119
0.0480274
0.00216715
0.0490961
-0.000845488
0.0494596
-0.00383159
0.0490927
-0.0067014
0.047985
-0.00936461
0.0461448
-0.0117351
-0.0137362
0.0436034
0.03863
0.00760169
0.0411402
0.00543244
0.0430918
0.00316967
0.0444165
0.000842429
0.045065
-0.00149404
0.0450062
-0.00377276
0.0442272
-0.00592241
0.0427354
-0.00787281
0.0405606
-0.00956026
-0.0109324
0.0377568
0.0347144
0.00500117
0.0367864
0.00336045
0.0382772
0.00167886
0.0391379
-1.82515e-05
0.0393344
-0.00169056
0.0388513
-0.00328965
0.0376937
-0.00476477
0.0358886
-0.00606777
0.0334861
-0.00715769
-0.00800431
0.030558
0.0286394
0.00287989
0.0302164
0.00178351
0.031216
0.000679263
0.0316111
-0.000413394
0.0313884
-0.00146785
0.0305522
-0.00245346
0.0291267
-0.00333928
0.0271565
-0.00409755
0.0247056
-0.00470675
-0.00515372
0.021855
0.0195661
0.00131265
0.0206238
0.00072581
0.0211569
0.000146086
0.0211593
-0.000415747
0.0206372
-0.000945796
0.0196126
-0.00142876
0.0181233
-0.00185003
0.0162233
-0.00219751
0.0139797
-0.00246318
-0.0026443
0.0114703
0.00647812
0.00034572
0.00704506
0.000158872
0.00721173
-2.05895e-05
0.00698651
-0.000190524
0.00638751
-0.000346792
0.00544369
-0.000484942
0.00419468
-0.00060103
0.00268935
-0.000692175
0.000983263
-0.000757097
-0.000797169
-0.000863864
-0.011925
-0.0117661
-0.0117867
-0.0119772
-0.012324
-0.012809
-0.01341
-0.0141022
-0.0148593
-0.0156564
0.0522949
-0.0239765
0.0261764
0.0493765
-0.0269742
0.0298926
0.0457896
-0.0292211
0.0328081
0.041617
-0.0306678
0.0348404
0.0369676
-0.0313242
0.0359736
0.0319574
-0.0312601
0.0362702
0.0266787
-0.0305837
0.0358624
0.0211477
-0.0293765
0.0349074
0.0152459
-0.0275067
0.0334086
-0.0240451
0.00845887
0.0308321
0.0492719
-0.0214147
0.0460139
-0.0237163
0.0421317
-0.0253389
0.0377269
-0.026263
0.03292
-0.0265173
0.0278304
-0.0261705
0.0225484
-0.0253017
0.0171063
-0.0239343
0.0115068
-0.0219072
-0.0186268
0.00608849
0.0453428
-0.0185101
0.0417963
-0.0201698
0.0377011
-0.0212437
0.033174
-0.021736
0.0283434
-0.0216867
0.0233314
-0.0211585
0.018237
-0.0202072
0.0131354
-0.0188327
0.00814214
-0.016914
-0.0141533
0.00366861
0.0404183
-0.015325
0.0366756
-0.016427
0.0324847
-0.0170528
0.0279712
-0.0172225
0.0232645
-0.01698
0.0184851
-0.0163791
0.013737
-0.0154592
0.00911995
-0.0142157
0.00478194
-0.012576
-0.0104144
0.00104308
0.034401
-0.0119693
0.0305961
-0.012622
0.0264592
-0.0129159
0.0221153
-0.0128786
0.0176867
-0.0125514
0.0132846
-0.011977
0.00900815
-0.0111827
0.00495775
-0.0101653
0.00126888
-0.00888711
-0.00730594
-0.00183962
0.0271933
-0.00860462
0.0235014
-0.00893014
0.0195967
-0.00901119
0.0155934
-0.00887531
0.0115982
-0.00855617
0.00770559
-0.00808437
0.00400034
-0.00747744
0.000568433
-0.00673334
-0.00248443
-0.00583424
-0.00477087
-0.0050195
0.018694
-0.00544361
0.0153272
-0.00556344
0.0118552
-0.00553915
0.00837248
-0.00539259
0.00496332
-0.005147
0.00170033
-0.00482138
-0.00135186
-0.00442525
-0.00412854
-0.00395666
-0.00655582
-0.00340696
-0.00277614
-0.00855055
0.00877201
-0.00274534
0.0059732
-0.00276463
0.00315107
-0.00271701
0.000374457
-0.00261598
-0.00229834
-0.00247421
-0.00481873
-0.00230099
-0.00714388
-0.0021001
-0.0092311
-0.00186944
-0.0110336
-0.00160446
-0.00130629
-0.0125035
-0.00279786
-0.00081134
-0.00475783
-0.000804659
-0.00669533
-0.000779513
-0.00856979
-0.00074152
-0.0103491
-0.000694887
-0.0120078
-0.000642321
-0.0135234
-0.000584473
-0.0148729
-0.000519945
-0.0160306
-0.000446747
-0.000366399
-0.0169705
-0.0164678
-0.0172724
-0.0180519
-0.0187935
-0.0194883
-0.0201307
-0.0207151
-0.0212351
-0.0216818
-0.0220482
0.000266572
-0.0223148
0.000974742
-0.0176787
0.00208865
-0.0136174
0.00359889
-0.0100608
0.00550405
-0.00692466
0.00780018
-0.00413575
0.010474
-0.00163075
0.0134929
0.000649776
0.0168107
0.0027707
0.00481999
0.0204495
0.000180263
-0.0224951
0.00066484
-0.0181633
0.00143786
-0.0143904
0.00249643
-0.0111194
0.00383985
-0.00826808
0.00546454
-0.00576044
0.00736437
-0.00353058
0.00953884
-0.0015247
0.0120246
0.000284985
0.00185938
0.0149852
9.886e-05
-0.0225939
0.00038283
-0.0184472
0.000857387
-0.0148649
0.00153291
-0.0117949
0.00242023
-0.00915541
0.00353003
-0.00687023
0.00487584
-0.0048764
0.0064804
-0.00312926
0.00838145
-0.00161607
-0.000378014
0.0106188
2.68996e-05
-0.0226208
0.000137351
-0.0185577
0.000359407
-0.015087
0.000717913
-0.0121534
0.00123486
-0.00967236
0.00193069
-0.00756606
0.00282663
-0.00577234
0.00394632
-0.00424894
0.00531123
-0.00298098
-0.00198534
0.00691856
-3.48101e-05
-0.022586
-7.01e-05
-0.0185224
-5.62928e-05
-0.0151008
4.42113e-05
-0.0122539
0.000261001
-0.00988915
0.00061804
-0.0079231
0.00113534
-0.00628964
0.00182861
-0.00494221
0.00270393
-0.00385629
-0.00302736
0.00374595
-8.63659e-05
-0.0224996
-0.000240081
-0.0183687
-0.000392398
-0.0149485
-0.000495691
-0.0121506
-0.000516318
-0.00986852
-0.000430949
-0.00800847
-0.000224499
-0.00649609
0.000109978
-0.00527669
0.000568358
-0.00431468
-0.00358984
0.00113083
-0.000127729
-0.0223719
-0.000372617
-0.0181238
-0.000649528
-0.0146716
-0.000903398
-0.0118967
-0.00109899
-0.00967293
-0.00121558
-0.00789188
-0.00124371
-0.00646796
-0.00118363
-0.00533677
-0.00104571
-0.0044526
-0.00378419
-0.000851356
-0.000158476
-0.0222134
-0.000466642
-0.0178156
-0.000825733
-0.0143125
-0.00117522
-0.0115472
-0.00147959
-0.00936856
-0.00172126
-0.00765021
-0.0018959
-0.00629331
-0.00200944
-0.00522323
-0.00207662
-0.00438542
-0.0037408
-0.00212002
-0.000177822
-0.0220356
-0.000520541
-0.0174729
-0.000918208
-0.0139148
-0.00130606
-0.0111594
-0.00164883
-0.00902579
-0.00193186
-0.00736718
-0.00215517
-0.00607
-0.00232934
-0.00504906
-0.00247298
-0.00424177
-0.00360305
-0.00261073
-0.000184087
-0.000532854
-0.000925305
-0.00129317
-0.00160169
-0.00183862
-0.00200746
-0.00212281
-0.00220728
-0.0022891
-0.000989398
-0.0100594
0.00989086
0.00169538
-0.0120034
0.00931867
0.00540482
-0.0126098
0.00890036
0.00972469
-0.0135309
0.00921099
0.0143283
-0.0139373
0.00933371
0.0189207
-0.0137933
0.00920089
0.0233762
-0.0136272
0.00917178
0.0275825
-0.0137337
0.00952742
0.0314719
-0.0147304
0.010841
0.0349771
-0.0163306
0.0128254
0.0380726
-0.018945
0.0158495
0.0407305
-0.0201372
0.0174793
0.0430719
-0.0194808
0.0171394
0.0451014
-0.0136943
0.0116649
0.0471302
-0.00046832
-0.00156046
0.0490205
0.00883524
-0.0107256
0.0511394
0.018469
-0.0205879
0.0527691
-0.00781558
0.00618592
0.0536008
-0.0440904
0.0432587
-0.0234243
0.0229616
0.00143028
-0.0107424
0.00429896
-0.0148721
0.00806256
-0.0163734
0.0122972
-0.0177655
0.0167457
-0.0183858
0.021154
-0.0182016
0.0254124
-0.0178856
0.0294192
-0.0177405
0.0331058
-0.0184169
0.0364054
-0.0196302
0.0392898
-0.0218294
0.0417406
-0.022588
0.0438899
-0.0216301
0.0457674
-0.0155718
0.047717
-0.00241794
0.0495893
0.00696295
0.0517281
0.0163301
0.0533379
-0.00942536
0.054038
-0.0447905
-0.0238045
0.00469398
-0.0120791
0.00772414
-0.0179023
0.0114779
-0.0201271
0.015534
-0.0218216
0.0197249
-0.0225767
0.0238519
-0.0223286
0.0278251
-0.0218589
0.0315559
-0.0214714
0.0349759
-0.0218369
0.0380196
-0.0226739
0.040656
-0.0244657
0.0428746
-0.0248067
0.0448146
-0.0235701
0.0465276
-0.0172848
0.0483837
-0.00427402
0.0502246
0.00512204
0.0523698
0.0141849
0.0539602
-0.0110157
0.0545482
-0.0453785
-0.0241293
0.00866828
-0.0141665
0.0118139
-0.0210479
0.0154732
-0.0237864
0.0192574
-0.0256058
0.0230984
-0.0264177
0.0268618
-0.0260921
0.0304788
-0.0254759
0.0338742
-0.0248668
0.0369803
-0.024943
0.0397332
-0.0254268
0.0420992
-0.0268317
0.0440741
-0.0267816
0.0458
-0.0252959
0.0473465
-0.0188313
0.0491025
-0.00603006
0.0509042
0.00332038
0.0530461
0.012043
0.0546207
-0.0125902
0.0551207
-0.0458785
-0.0244293
0.0131885
-0.0170401
0.016376
-0.0242355
0.0198337
-0.0272441
0.0232548
-0.0290269
0.0266682
-0.0298311
0.0300057
-0.0294295
0.0332167
-0.0286869
0.0362383
-0.0278884
0.039003
-0.0277077
0.0414482
-0.027872
0.0435378
-0.0289214
0.045272
-0.0285158
0.0467921
-0.026816
0.0481815
-0.0202207
0.0498399
-0.0076885
0.051601
0.00155925
0.0537352
0.00990883
0.0553026
-0.0141577
0.0557443
-0.0463202
-0.0247387
0.0180616
-0.0206493
0.0211874
-0.0273613
0.0243183
-0.030375
0.0272908
-0.0319994
0.0302188
-0.0327591
0.0330918
-0.0323025
0.0358722
-0.0314674
0.0385049
-0.030521
0.0409218
-0.0301246
0.0430612
-0.0300114
0.0448851
-0.0307452
0.0463963
-0.030027
0.0477321
-0.0281518
0.0489853
-0.0214738
0.0505584
-0.0092616
0.0522856
-0.000167947
0.0544139
0.00778049
0.0559884
-0.0157321
0.0564067
-0.0467386
-0.0250949
0.0230601
-0.024816
0.0259899
-0.0302911
0.028664
-0.0330491
0.0311175
-0.0344529
0.0335279
-0.0351694
0.035926
-0.0347006
0.0382779
-0.0338193
0.0405312
-0.0327743
0.0426159
-0.0322093
0.0444702
-0.0318658
0.046055
-0.0323301
0.0473747
-0.0313467
0.0485599
-0.0293369
0.0497087
-0.0226227
0.0512186
-0.0107715
0.0529269
-0.00187623
0.0550587
0.00564871
0.0566601
-0.0173335
0.0570951
-0.0471736
-0.0255388
0.0279234
-0.0291733
0.0304872
-0.032855
0.0325915
-0.0351534
0.0344835
-0.0363449
0.0363769
-0.0370629
0.0383208
-0.0366445
0.0402747
-0.0357732
0.0421827
-0.0346824
0.0439717
-0.0339983
0.0455794
-0.0334735
0.0469666
-0.0337172
0.0481382
-0.0325184
0.0492171
-0.0304158
0.0503032
-0.0237088
0.0517814
-0.0122497
0.0534941
-0.00358899
0.0556462
0.00349667
0.0573003
-0.0189876
0.0577967
-0.04767
-0.0261139
0.0324818
-0.0331483
0.0344346
-0.0348077
0.0358697
-0.0365885
0.0371852
-0.0376604
0.0385911
-0.0384688
0.040126
-0.0381794
0.0417336
-0.0373807
0.0433493
-0.0362981
0.0448954
-0.0355443
0.0463087
-0.0348869
0.0475509
-0.0349594
0.0486276
-0.033595
0.0496524
-0.0314406
0.0507246
-0.024781
0.0522099
-0.0137351
0.0539579
-0.00533693
0.0561541
0.00130049
0.0578924
-0.0207259
0.0584989
-0.0482765
-0.0268661
0.0368081
-0.0360948
0.0377707
-0.0357703
0.0384011
-0.0372189
0.0391397
-0.038399
0.0400932
-0.0394223
0.0412689
-0.0393551
0.0425854
-0.0386972
0.0439657
-0.0376784
0.0453269
-0.0369055
0.0466036
-0.0361637
0.0477593
-0.036115
0.0487989
-0.0346347
0.0498258
-0.0324674
0.0509377
-0.0258929
0.0524726
-0.0152699
0.0542926
-0.00715694
0.0565621
-0.000969008
0.05842
-0.0225838
0.0591887
-0.0490452
-0.0278443
0.117866
-0.0274947
-0.126466
0.113256
-0.0311604
0.110523
-0.0344858
0.108862
-0.0367385
0.107768
-0.0383282
0.107188
-0.0387753
0.106989
-0.0384976
0.107064
-0.0377538
0.107252
-0.0370937
0.107402
-0.0363137
0.107336
-0.0360491
0.106997
-0.0342953
0.106489
-0.0319597
0.106024
-0.0254275
0.106479
-0.0157249
0.107771
-0.00844946
0.110287
-0.00348465
0.112018
-0.0243151
0.110997
-0.048024
-0.0271731
0.165214
-0.0168738
-0.175835
0.156912
-0.0228586
0.151018
-0.0285913
0.146798
-0.032519
0.143588
-0.0351179
0.141215
-0.0364025
0.139474
-0.0367565
0.138197
-0.0364762
0.137184
-0.0360816
0.136252
-0.0353813
0.135199
-0.0349959
0.133964
-0.0330601
0.132624
-0.0306198
0.131448
-0.0242518
0.131315
-0.0155923
0.132194
-0.00932838
0.134384
-0.00567413
0.135679
-0.0256104
0.133889
-0.0462338
-0.0259917
0.216472
-0.00624455
-0.227101
0.207351
-0.0137378
0.199518
-0.0207581
0.193124
-0.0261247
0.187836
-0.02983
0.183517
-0.0320837
0.179996
-0.033235
0.177092
-0.0335721
0.174599
-0.0335883
0.172316
-0.0330985
0.170034
-0.032714
0.167702
-0.0307277
0.165366
-0.0282844
0.16335
-0.0222358
0.162474
-0.0147163
0.162748
-0.00960239
0.16433
-0.00725614
0.164886
-0.0261665
0.162115
-0.0434629
-0.0241704
0.268011
0.00224722
-0.276502
0.260149
-0.00587614
0.252354
-0.0129636
0.245139
-0.0189097
0.238658
-0.0233483
0.232935
-0.0263609
0.227926
-0.0282258
0.223522
-0.0291681
0.219569
-0.0296361
0.2159
-0.0294297
0.212332
-0.0291454
0.208853
-0.027249
0.205491
-0.0249221
0.202631
-0.0193755
0.200948
-0.0130336
0.200487
-0.00914181
0.201177
-0.0079462
0.200657
-0.0256466
0.196733
-0.0395386
-0.0216195
0.317659
0.00753443
-0.322946
0.312043
-0.000260653
0.305834
-0.0067545
0.299325
-0.0124007
0.292936
-0.0169588
0.286872
-0.020297
0.28121
-0.0225638
0.275939
-0.0238967
0.270993
-0.0246908
0.266286
-0.0247219
0.261695
-0.0245552
0.257294
-0.0228481
0.25311
-0.0207373
0.249604
-0.0158698
0.247237
-0.010666
0.246057
-0.00796224
0.245684
-0.00757346
0.243819
-0.0237817
0.238678
-0.0343974
-0.0183401
0.366438
0.00966735
-0.368571
0.363106
0.00307133
0.358903
-0.002551
0.353914
-0.00741204
0.34851
-0.0115546
0.343004
-0.0147907
0.337557
-0.0171171
0.332224
-0.0185641
0.327005
-0.0194713
0.321896
-0.0196129
0.316843
-0.0195026
0.312021
-0.0180258
0.307469
-0.0161851
0.303733
-0.0121337
0.30103
-0.00796319
0.299358
-0.00628989
0.298012
-0.00622833
0.294741
-0.0205102
0.288515
-0.0281715
-0.0144863
0.417357
0.00934883
-0.417039
0.415973
0.00445531
0.413494
-7.14874e-05
0.410052
-0.00396997
0.405861
-0.00736354
0.401227
-0.0101575
0.396381
-0.0122708
0.391441
-0.0136239
0.386444
-0.014475
0.381462
-0.0146301
0.376481
-0.0145221
0.371765
-0.0133094
0.367357
-0.0117777
0.363861
-0.00863722
0.361293
-0.0053953
0.359507
-0.00450416
0.357612
-0.00433267
0.353183
-0.0160811
0.346243
-0.0212323
-0.0103917
0.473832
0.00731935
-0.471802
0.474089
0.00419814
0.473007
0.0010107
0.470827
-0.00179009
0.467698
-0.00423479
0.463854
-0.00631375
0.459549
-0.00796491
0.454982
-0.00905749
0.450248
-0.00974053
0.445493
-0.00987516
0.440745
-0.00977478
0.436334
-0.00889807
0.432311
-0.00775435
0.429276
-0.0056022
0.427161
-0.0032809
0.425562
-0.00290483
0.423707
-0.00247726
0.418608
-0.0109822
0.411463
-0.014088
-0.00648996
0.53968
0.00410169
-0.536463
0.541282
0.0025968
0.541367
0.000925215
0.540164
-0.000587315
0.537837
-0.00190748
0.534569
-0.00304558
0.530587
-0.00398313
0.526156
-0.00462614
0.521442
-0.0050268
0.516682
-0.00511521
0.511959
-0.00505211
0.507651
-0.00459011
0.50385
-0.00395253
0.5011
-0.00285235
0.499398
-0.00157924
0.49798
-0.00148634
0.496555
-0.00105221
0.491204
-0.0056317
0.484191
-0.00707446
-0.00308046
0.620091
-0.615989
0.622688
0.623613
0.623026
0.621118
0.618073
0.614089
0.609463
0.604436
0.599321
0.594269
0.589679
0.585726
0.582874
0.581295
0.579809
0.578756
0.573125
0.56605
0.167579
0.022874
-0.166603
0.167776
0.0284479
0.167012
0.0337151
0.165099
0.0385427
0.161872
0.0427901
0.157215
0.0463223
0.151112
0.0490296
0.143699
0.050856
0.135336
0.0517723
0.0515615
0.191837
0.0209056
-0.189868
0.193493
0.0267919
0.194688
0.0325193
0.195253
0.0379784
0.194999
0.0430438
0.19374
0.0475815
0.191307
0.0514621
0.187577
0.054586
0.182428
0.0569214
0.0581549
0.217562
0.0183859
-0.215042
0.220197
0.0241566
0.222854
0.0298629
0.225399
0.0354327
0.227661
0.0407823
0.229425
0.0458171
0.230453
0.050434
0.230516
0.0545235
0.229435
0.0580024
0.060488
0.246081
0.0157244
-0.24342
0.249135
0.0211028
0.252539
0.0264591
0.256224
0.0317473
0.260093
0.0369138
0.264014
0.0418959
0.267826
0.0466217
0.271339
0.0510104
0.274346
0.0549957
0.0583317
0.278459
0.0130677
-0.275802
0.281686
0.0178757
0.285474
0.0226709
0.289801
0.0274202
0.294628
0.0320876
0.29989
0.0366335
0.305497
0.0410148
0.311323
0.0451838
0.317226
0.0490931
0.0526116
0.315497
0.0104443
-0.312874
0.318824
0.0145487
0.322853
0.0186417
0.327577
0.0226968
0.332977
0.0266872
0.339026
0.0305845
0.345682
0.0343595
0.352884
0.037981
0.36056
0.0414169
0.0446009
0.358105
0.00786085
-0.355521
0.361513
0.0111408
0.365744
0.0144102
0.370793
0.0176481
0.376647
0.0208331
0.383288
0.0239435
0.39069
0.0269577
0.398817
0.0298538
0.407624
0.0326096
0.0351865
0.40769
0.00530125
-0.405131
0.411198
0.00763342
0.41565
0.00995787
0.421039
0.0122591
0.42735
0.0145217
0.434564
0.0167299
0.442653
0.0188683
0.451585
0.0209217
0.46132
0.0228749
0.0247041
0.466386
0.00271493
-0.463799
0.470055
0.00396366
0.474804
0.00520884
0.480622
0.00644188
0.487489
0.0076541
0.495382
0.00883689
0.504269
0.00998175
0.51411
0.0110803
0.524861
0.0121244
0.0131021
0.537595
-0.53488
0.541559
0.546768
0.55321
0.560864
0.569701
0.579682
0.590763
0.602887
0.143405
-0.0301943
-0.141056
0.146253
-0.0264483
0.149212
-0.0218233
0.152186
-0.0168282
0.155101
-0.0115436
0.157913
-0.00605353
0.160561
-0.000395014
0.162962
0.00538908
0.165016
0.0112408
0.01709
0.170821
-0.0318612
-0.169154
0.172642
-0.0282693
0.174569
-0.0237504
0.176603
-0.0188621
0.178725
-0.0136654
0.180921
-0.00824991
0.183176
-0.0026496
0.185456
0.00310901
0.187711
0.00898631
0.0149321
0.20214
-0.0323174
-0.201684
0.202785
-0.0289145
0.203564
-0.0245292
0.204513
-0.0198108
0.205675
-0.0148277
0.207068
-0.00964306
0.208703
-0.00428423
0.210583
0.00122832
0.212703
0.00686621
0.0125935
0.237219
-0.0314681
-0.238068
0.236557
-0.0282521
0.236161
-0.0241333
0.236065
-0.0197146
0.236313
-0.0150764
0.236932
-0.0102621
0.237939
-0.00529084
0.239349
-0.000181598
0.241174
0.0050409
0.0103481
0.276006
-0.0293107
-0.278164
0.274077
-0.026323
0.272554
-0.0226103
0.27148
-0.0186407
0.270888
-0.0144838
0.270798
-0.0101725
0.271229
-0.00572196
0.272198
-0.00115008
0.273718
0.00352027
0.00826383
0.319092
-0.0258649
-0.322538
0.315987
-0.0232181
0.313414
-0.0200369
0.311422
-0.0166481
0.310037
-0.0130993
0.30928
-0.00941524
0.309168
-0.00561066
0.309721
-0.00170237
0.310952
0.00228923
0.00634198
0.367526
-0.0211673
-0.372223
0.363309
-0.019002
0.35974
-0.0164677
0.356866
-0.0137735
0.354714
-0.0109479
0.353308
-0.00800925
0.352669
-0.00497099
0.352814
-0.00184811
0.353761
0.00134234
0.00458203
0.422743
-0.0152668
-0.428643
0.41746
-0.0137186
0.412928
-0.0119358
0.409194
-0.0100398
0.406292
-0.00804629
0.404251
-0.00596752
0.403094
-0.00381433
0.402844
-0.00159834
0.403519
0.000667706
0.00297019
0.486876
-0.00820234
-0.49394
0.480543
-0.00738603
0.475058
-0.00645046
0.470471
-0.00545263
0.466824
-0.00439947
0.464154
-0.00329744
0.462493
-0.00215281
0.461866
-0.000972201
0.462297
0.000237202
0.00146778
0.563286
-0.571489
0.5559
0.54945
0.543997
0.539598
0.5363
0.534148
0.533175
0.533413
0.126774
0.00231466
-0.00222317
0.126517
0.00702081
-0.00676353
0.1261
0.0121285
-0.0117118
0.125526
0.0180202
-0.0174464
0.124849
0.0250554
-0.0243784
0.124125
0.0342841
-0.03356
0.123816
0.0455983
-0.045289
0.124084
0.0633197
-0.0635873
0.128815
0.0812809
-0.086012
0.120696