/*--------------------------------*- C++ -*----------------------------------*\
| =========                 |                                                 |
| \\      /  F ield         | OpenFOAM: The Open Source CFD Toolbox           |
|  \\    /   O peration     | Version:  v1912                                 |
|   \\  /    A nd           | Website:  www.openfoam.com                      |
|    \\/     M anipulation  |                                                 |
\*---------------------------------------------------------------------------*/
FoamFile
{
    version     2.0;
    format      ascii;
    class       volScalarField;
    location    "28.5";
    object      p;
}
// * * * * * * * * * * * * * * * * * * * * * * * * * * * * * * * * * * * * * //

dimensions      [0 2 -2 0 0 0 0];


internalField   nonuniform List<scalar> 
9600
(
-41.3767
-36.1066
-32.8745
-30.1322
-27.6232
-25.3541
-23.2965
-21.4224
-19.7141
-18.1577
-16.7405
-15.4504
-14.2759
-13.2062
-12.231
-11.3411
-10.5278
-9.78316
-9.09972
-8.4753
-42.1257
-36.8385
-33.571
-30.7864
-28.2329
-25.9204
-23.822
-21.9107
-20.169
-18.5831
-17.1399
-15.8271
-14.6326
-13.5453
-12.5545
-11.6506
-10.8248
-10.0686
-9.37428
-8.74076
-42.8765
-37.5665
-34.2621
-31.4351
-28.8369
-26.4807
-24.3416
-22.3932
-20.6183
-19.0032
-17.5344
-16.199
-14.9849
-13.8802
-12.8741
-11.9564
-11.1182
-10.3506
-9.64535
-9.00293
-43.6259
-38.2902
-34.9476
-32.0775
-29.4342
-27.0342
-24.8543
-22.869
-21.0613
-19.4172
-17.9231
-16.5656
-15.3321
-14.2104
-13.1891
-12.258
-11.4075
-10.6285
-9.91254
-9.26149
-44.3709
-39.0081
-35.6263
-32.7124
-30.0237
-27.5799
-25.3594
-23.3373
-21.4971
-19.8244
-18.3053
-16.9262
-15.6736
-14.5352
-13.4991
-12.5547
-11.6922
-10.9021
-10.1755
-9.51615
-45.1094
-39.7188
-36.2972
-33.3388
-30.6045
-28.1168
-25.8557
-23.7972
-21.9248
-20.224
-18.6804
-17.28
-16.0088
-14.8541
-13.8035
-12.8461
-11.9719
-11.1708
-10.4339
-9.76665
-45.8398
-40.4208
-36.9588
-33.9556
-31.1755
-28.6439
-26.3425
-24.2479
-22.3437
-20.6152
-19.0476
-17.6263
-16.337
-15.1664
-14.1017
-13.1317
-12.2461
-11.4344
-10.6873
-10.0127
-46.5605
-41.1128
-37.6101
-34.5617
-31.7356
-29.1602
-26.8188
-24.6884
-22.7529
-20.9973
-19.4062
-17.9645
-16.6576
-15.4715
-14.3932
-13.411
-12.5144
-11.6923
-10.9355
-10.254
-47.2702
-41.7934
-38.2498
-35.1559
-32.2839
-29.6648
-27.2836
-25.118
-23.1517
-21.3694
-19.7554
-18.2939
-16.9698
-15.7687
-14.6772
-13.6833
-12.7761
-11.9442
-11.178
-10.4903
-47.9675
-42.4615
-38.8768
-35.7372
-32.8192
-30.1567
-27.736
-25.5356
-23.5391
-21.7307
-20.0943
-18.6136
-17.2728
-16.0572
-14.9531
-13.948
-13.0306
-12.1893
-11.4143
-10.721
-48.6516
-43.1161
-39.49
-36.3046
-33.3406
-30.6349
-28.1753
-25.9406
-23.9143
-22.0804
-20.4222
-18.9228
-17.566
-16.3364
-15.22
-14.2042
-13.2773
-12.427
-11.6438
-10.9457
-49.3213
-43.756
-40.0885
-36.8571
-33.8473
-31.0987
-28.6005
-26.3319
-24.2765
-22.4177
-20.7383
-19.2207
-17.8482
-16.6052
-15.4772
-14.4511
-13.5152
-12.6566
-11.8657
-11.1634
-49.976
-44.3805
-40.6714
-37.3939
-34.3383
-31.5471
-29.0107
-26.709
-24.625
-22.7418
-21.0416
-19.5063
-18.1187
-16.8627
-15.7234
-14.6877
-13.7434
-12.877
-12.0791
-11.3735
-50.6152
-44.9888
-41.2377
-37.9141
-34.8128
-31.9794
-29.4054
-27.0709
-24.9588
-23.0518
-21.3313
-19.7787
-18.3764
-17.1077
-15.9576
-14.9126
-13.9604
-13.0869
-12.2828
-11.5753
-51.2382
-45.5799
-41.7868
-38.417
-35.2703
-32.395
-29.7838
-27.4171
-25.2775
-23.347
-21.6066
-20.037
-18.6202
-17.3391
-16.1783
-15.1242
-14.1642
-13.2842
-12.4747
-11.7669
-51.8446
-46.1533
-42.3179
-38.902
-35.7101
-32.7932
-30.1454
-27.747
-25.5803
-23.6268
-21.8668
-20.2805
-18.8492
-17.5557
-16.3842
-15.3209
-14.3532
-13.4667
-12.6521
-11.943
-52.4357
-46.7087
-42.8304
-39.3684
-36.1314
-33.1735
-30.4896
-28.0601
-25.8669
-23.8907
-22.1113
-20.5083
-19.0626
-17.7565
-16.5742
-15.5019
-14.527
-13.6343
-12.8138
-12.1002
-53.0159
-47.2473
-43.3234
-39.815
-36.5334
-33.5351
-30.8159
-28.356
-26.1368
-24.1384
-22.3397
-20.7198
-19.2592
-17.9399
-16.7462
-15.6647
-14.6827
-13.7844
-12.959
-12.2498
-53.5872
-47.7686
-43.7954
-40.2407
-36.9158
-33.8782
-31.1246
-28.6352
-26.3907
-24.3703
-22.5523
-20.9151
-19.4386
-18.1044
-16.8968
-15.8025
-14.8087
-13.8996
-13.073
-12.3958
-54.1279
-48.265
-44.2454
-40.6463
-37.2797
-34.2043
-31.4174
-28.8993
-26.6302
-24.5885
-22.7514
-21.0967
-19.6035
-18.2526
-17.0277
-15.9141
-14.8968
-13.9624
-13.125
-12.454
-59.5222
-59.4909
-59.4222
-59.3306
-59.2154
-59.0742
-58.9063
-58.7123
-58.4928
-58.2482
-57.9792
-57.6863
-57.3702
-57.0316
-56.6711
-56.2898
-55.8887
-55.4694
-55.0349
-54.5883
-53.181
-53.1784
-53.1429
-53.0803
-52.991
-52.8747
-52.7316
-52.5624
-52.3678
-52.1484
-51.9048
-51.6376
-51.3475
-51.0351
-50.701
-50.3459
-49.9704
-49.5751
-49.1605
-48.7245
-48.549
-48.5706
-48.5631
-48.5271
-48.4639
-48.3743
-48.2591
-48.1187
-47.9538
-47.7651
-47.553
-47.3182
-47.0612
-46.7826
-46.4828
-46.1623
-45.8215
-45.4603
-45.0784
-44.674
-44.3325
-44.3715
-44.3843
-44.3701
-44.33
-44.265
-44.1757
-44.0627
-43.9266
-43.7678
-43.5869
-43.3845
-43.1611
-42.917
-42.6527
-42.3685
-42.0646
-41.7409
-41.3971
-41.0325
-40.4356
-40.4844
-40.5095
-40.5102
-40.4868
-40.4403
-40.3711
-40.28
-40.1672
-40.0334
-39.879
-39.7046
-39.5105
-39.2973
-39.0652
-38.8145
-38.5454
-38.2577
-37.9512
-37.6255
-36.937
-36.9899
-37.0214
-37.0306
-37.0178
-36.9835
-36.9283
-36.8529
-36.7575
-36.6427
-36.5091
-36.357
-36.1869
-35.9992
-35.7942
-35.5722
-35.3333
-35.0775
-34.8044
-34.5136
-33.8273
-33.8802
-33.9134
-33.9264
-33.919
-33.8919
-33.8456
-33.7806
-33.6973
-33.5963
-33.4779
-33.3427
-33.1912
-33.0237
-32.8406
-32.6422
-32.4286
-32.1997
-31.9553
-31.6949
-31.0694
-31.1195
-31.1515
-31.1647
-31.1593
-31.1356
-31.0943
-31.0357
-30.9604
-30.8687
-30.7613
-30.6385
-30.5009
-30.349
-30.1832
-30.0037
-29.8107
-29.6042
-29.3839
-29.1493
-28.6236
-28.6693
-28.6982
-28.7097
-28.7038
-28.6812
-28.6422
-28.5872
-28.5168
-28.4314
-28.3315
-28.2177
-28.0905
-27.9504
-27.7979
-27.6334
-27.4572
-27.2692
-27.0692
-26.8567
-26.4503
-26.4909
-26.5157
-26.5243
-26.5169
-26.4937
-26.4554
-26.4022
-26.3347
-26.2533
-26.1586
-26.0512
-25.9317
-25.8006
-25.6585
-25.506
-25.3434
-25.1709
-24.9881
-24.7945
-24.5123
-24.5477
-24.5682
-24.5736
-24.5638
-24.5394
-24.5008
-24.4483
-24.3824
-24.3036
-24.2126
-24.1098
-23.9959
-23.8717
-23.7378
-23.595
-23.4436
-23.2841
-23.1162
-22.9392
-22.777
-22.8074
-22.8237
-22.8256
-22.8134
-22.7874
-22.748
-22.6956
-22.6306
-22.5536
-22.465
-22.3656
-22.2561
-22.1372
-22.0098
-21.8747
-21.7328
-21.5845
-21.4297
-21.2678
-21.2161
-21.2418
-21.2542
-21.253
-21.2384
-21.2108
-21.1704
-21.1178
-21.0533
-20.9774
-20.8907
-20.7938
-20.6876
-20.5729
-20.4506
-20.3219
-20.1879
-20.0492
-19.9064
-19.7585
-19.8058
-19.8274
-19.8363
-19.8322
-19.8154
-19.7862
-19.745
-19.692
-19.6278
-19.5528
-19.4675
-19.3726
-19.2689
-19.1574
-19.0392
-18.9156
-18.7881
-18.6579
-18.5261
-18.3916
-18.5263
-18.5443
-18.55
-18.5434
-18.5247
-18.4942
-18.4521
-18.3989
-18.3349
-18.2605
-18.1764
-18.0831
-17.9814
-17.8723
-17.7572
-17.6375
-17.5154
-17.3923
-17.2708
-17.1495
-17.3613
-17.3759
-17.3789
-17.37
-17.3496
-17.3179
-17.2752
-17.2217
-17.1579
-17.0842
-17.001
-16.9089
-16.8088
-16.7015
-16.5886
-16.4717
-16.3534
-16.2359
-16.1238
-16.0156
-16.2968
-16.3085
-16.309
-16.2982
-16.2763
-16.2435
-16.2002
-16.1466
-16.0829
-16.0096
-15.9271
-15.836
-15.7369
-15.6308
-15.5191
-15.4036
-15.2875
-15.1737
-15.0696
-14.973
-15.321
-15.3303
-15.3289
-15.3166
-15.2936
-15.2602
-15.2165
-15.1629
-15.0995
-15.0267
-14.9449
-14.8546
-14.7562
-14.6507
-14.5393
-14.4239
-14.3081
-14.1957
-14.0984
-14.0107
-14.4228
-14.4307
-14.4282
-14.4155
-14.3924
-14.3593
-14.3164
-14.2638
-14.2018
-14.1306
-14.0506
-13.9621
-13.8656
-13.7617
-13.6514
-13.5361
-13.4196
-13.3069
-13.2163
-13.1425
-13.5968
-13.6015
-13.5965
-13.5819
-13.5578
-13.5243
-13.4816
-13.4299
-13.3693
-13.3001
-13.2224
-13.1367
-13.043
-12.9419
-12.8337
-12.7195
-12.6012
-12.4839
-12.3869
-12.337
-53.2944
-53.8634
-54.3957
-54.9133
-55.4132
-55.8896
-56.3395
-56.7619
-57.1558
-57.5205
-57.8551
-58.1592
-58.4326
-58.6747
-58.8851
-59.0638
-59.2116
-59.3297
-59.42
-59.4846
-46.8207
-47.3953
-47.942
-48.4667
-48.9689
-49.4461
-49.8969
-50.3207
-50.7167
-51.0844
-51.4231
-51.7327
-52.0133
-52.2655
-52.4875
-52.6786
-52.8393
-52.97
-53.0713
-53.1419
-42.189
-42.7514
-43.2905
-43.8065
-44.2992
-44.7681
-45.2123
-45.631
-46.0239
-46.3901
-46.7286
-47.0394
-47.322
-47.5753
-47.8003
-47.9974
-48.1662
-48.3066
-48.4181
-48.4993
-38.0779
-38.6154
-39.1335
-39.6302
-40.1049
-40.5575
-40.9872
-41.3935
-41.7756
-42.1331
-42.4646
-42.7697
-43.0492
-43.3026
-43.5301
-43.7314
-43.9061
-44.0539
-44.1746
-44.2675
-34.4122
-34.92
-35.411
-35.8826
-36.3337
-36.7641
-37.1732
-37.5603
-37.9248
-38.2661
-38.5847
-38.8803
-39.1515
-39.3983
-39.6209
-39.8191
-39.9926
-40.1411
-40.2646
-40.3629
-31.2244
-31.7011
-32.1626
-32.6064
-33.0313
-33.4368
-33.8224
-34.1876
-34.5319
-34.855
-35.1567
-35.4366
-35.6938
-35.9286
-36.1413
-36.3316
-36.4989
-36.6431
-36.7643
-36.8624
-28.462
-28.9082
-29.3405
-29.7563
-30.1544
-30.5344
-30.8957
-31.238
-31.5607
-31.8635
-32.1462
-32.4085
-32.65
-32.8705
-33.0697
-33.2494
-33.4079
-33.5448
-33.6602
-33.7546
-26.0585
-26.4762
-26.8808
-27.2699
-27.6424
-27.9976
-28.3353
-28.6548
-28.956
-29.2384
-29.5019
-29.7462
-29.9713
-30.1771
-30.3634
-30.5288
-30.6769
-30.8048
-30.9128
-31.0011
-23.9556
-24.3472
-24.7263
-25.0908
-25.4394
-25.7716
-26.0869
-26.385
-26.6656
-26.9284
-27.1734
-27.4004
-27.6093
-27.8001
-27.9727
-28.1271
-28.262
-28.38
-28.4797
-28.5609
-22.1033
-22.4715
-22.8276
-23.1697
-23.4966
-23.8076
-24.1023
-24.3805
-24.642
-24.8866
-25.1142
-25.3249
-25.5185
-25.6949
-25.8542
-25.9963
-26.1211
-26.2288
-26.3199
-26.3938
-20.4602
-20.8074
-21.1431
-21.4653
-21.7725
-22.0642
-22.3401
-22.6001
-22.8441
-23.0719
-23.2835
-23.4791
-23.6585
-23.8217
-23.9687
-24.0995
-24.2141
-24.3124
-24.3952
-24.462
-18.9927
-19.3214
-19.6391
-19.9435
-20.233
-20.5072
-20.7661
-21.0094
-21.2373
-21.4498
-21.6469
-21.8286
-21.995
-22.1462
-22.282
-22.4025
-22.5077
-22.5977
-22.6723
-22.7324
-17.674
-17.9864
-18.2884
-18.577
-18.8506
-19.1089
-19.3522
-19.5803
-19.7935
-19.992
-20.1757
-20.3449
-20.4996
-20.6397
-20.7653
-20.8764
-20.9731
-21.0552
-21.1226
-21.1767
-16.4824
-16.7805
-17.0692
-17.3438
-17.6029
-17.8467
-18.0756
-18.2897
-18.4895
-18.6751
-18.8467
-19.0044
-19.1483
-19.2785
-19.3949
-19.4976
-19.5866
-19.6619
-19.7238
-19.7713
-15.4008
-15.6868
-15.9641
-16.2263
-16.472
-16.7023
-16.9178
-17.119
-17.3062
-17.48
-17.6404
-17.7877
-17.922
-18.0431
-18.1512
-18.2463
-18.3283
-18.3973
-18.4533
-18.4962
-14.4144
-14.6921
-14.9604
-15.2108
-15.4439
-15.6614
-15.8642
-16.0531
-16.2287
-16.3914
-16.5416
-16.6793
-16.8047
-16.9176
-17.0182
-17.1064
-17.1821
-17.2455
-17.2964
-17.3349
-13.5058
-13.7824
-14.0457
-14.2849
-14.5054
-14.7107
-14.9015
-15.0788
-15.2434
-15.396
-15.5367
-15.6657
-15.783
-15.8886
-15.9824
-16.0644
-16.1345
-16.1928
-16.2393
-16.2739
-12.6542
-12.9351
-13.1997
-13.4297
-13.6384
-13.8322
-14.012
-14.1789
-14.3339
-14.4776
-14.6102
-14.7318
-14.8423
-14.9417
-15.0299
-15.1068
-15.1723
-15.2265
-15.2694
-15.3009
-11.8725
-12.1444
-12.41
-12.6352
-12.834
-13.0165
-13.186
-13.3436
-13.49
-13.6258
-13.7514
-13.8666
-13.9714
-14.0656
-14.1491
-14.2219
-14.2838
-14.3348
-14.375
-14.4043
-11.286
-11.5357
-11.7625
-11.9778
-12.165
-12.33
-12.4832
-12.6266
-12.7599
-12.8834
-12.9975
-13.1022
-13.1971
-13.2823
-13.3575
-13.4226
-13.4777
-13.5226
-13.5572
-13.5815
-5.92865
-6.41738
-6.95331
-7.53345
-8.16427
-8.8532
-9.60795
-10.438
-11.3556
-12.3765
-13.521
-14.816
-16.2968
-18.0095
-20.014
-22.3891
-25.2157
-28.5156
-32.5078
-38.4992
-6.19693
-6.69897
-7.24521
-7.83719
-8.48155
-9.1854
-9.95658
-10.8049
-11.7427
-12.786
-13.9557
-15.279
-16.7915
-18.5397
-20.5837
-23.0024
-25.8755
-29.2216
-33.2518
-39.2639
-6.46666
-6.98203
-7.53871
-8.14276
-8.8009
-9.51992
-10.3078
-11.1746
-12.1329
-13.1991
-14.3943
-15.7461
-17.2906
-19.0747
-21.1586
-23.6209
-26.5399
-29.9312
-33.9976
-40.0259
-6.73738
-7.266
-7.8332
-8.44955
-9.12169
-9.85608
-10.6609
-11.5463
-12.5254
-13.6147
-14.8356
-16.2162
-17.793
-19.613
-21.7369
-24.2427
-27.2076
-30.6438
-34.7475
-40.7967
-7.00862
-7.55044
-8.12823
-8.75707
-9.44341
-10.1934
-11.0152
-11.9195
-12.9195
-14.0321
-15.2789
-16.6885
-18.2977
-20.1539
-22.3178
-24.8671
-27.8776
-31.3588
-35.5006
-41.5738
-7.28004
-7.83492
-8.42337
-9.06491
-9.76565
-10.5313
-11.3704
-12.2937
-13.3148
-14.4507
-15.7237
-17.1624
-18.804
-20.6965
-22.9005
-25.4933
-28.5494
-32.0753
-36.2548
-42.3531
-7.5513
-8.11909
-8.71825
-9.37268
-10.088
-10.8695
-11.726
-12.6684
-13.7107
-14.8701
-16.1692
-17.6371
-19.3114
-21.2402
-23.4843
-26.1205
-29.2219
-32.7922
-37.0087
-43.1323
-7.82218
-8.40267
-9.01256
-9.68004
-10.41
-11.2076
-12.0815
-13.0431
-14.1066
-15.2897
-16.615
-18.1121
-19.8191
-21.7842
-24.0682
-26.7477
-29.8942
-33.5084
-37.7611
-43.9099
-8.0925
-8.68544
-9.30604
-9.98671
-10.7315
-11.5451
-12.4365
-13.4174
-14.5021
-15.7087
-17.0603
-18.5867
-20.3263
-22.3276
-24.6515
-27.374
-30.5652
-34.2227
-38.5108
-44.6844
-8.36223
-8.96731
-9.59855
-10.2925
-11.0521
-11.8817
-12.7906
-13.7907
-14.8967
-16.1268
-17.5046
-19.0601
-20.8322
-22.8696
-25.2332
-27.9983
-31.2337
-34.934
-39.2565
-45.4545
-8.63148
-9.24831
-9.89002
-10.5972
-11.3717
-12.2173
-13.1435
-14.1627
-15.2898
-16.5433
-17.9471
-19.5317
-21.3361
-23.4093
-25.8123
-28.6197
-31.8987
-35.641
-39.9969
-46.2185
-8.90054
-9.52859
-10.1805
-10.9009
-11.6901
-12.5514
-13.4948
-14.5329
-15.6809
-16.9576
-18.3872
-20.0006
-21.8371
-23.946
-26.3879
-29.237
-32.559
-36.3425
-40.7306
-46.9752
-9.16989
-9.80844
-10.4701
-11.2035
-12.0071
-12.8839
-13.8442
-14.9009
-16.0695
-17.3691
-18.8243
-20.4662
-22.3344
-24.4785
-26.959
-29.8493
-33.2135
-37.0374
-41.4564
-47.7231
-9.44023
-10.0883
-10.759
-11.5048
-12.3224
-13.2143
-14.1911
-15.2661
-16.455
-17.7772
-19.2575
-20.9275
-22.8271
-25.006
-27.5245
-30.4553
-33.861
-37.7243
-42.1729
-48.4611
-9.71231
-10.3684
-11.0471
-11.8048
-12.6358
-13.5422
-14.5351
-15.6279
-16.8366
-18.1809
-19.686
-21.3837
-23.3143
-25.5274
-28.0833
-31.0539
-34.5002
-38.4021
-42.879
-49.1878
-9.98708
-10.649
-11.3342
-12.1028
-12.9465
-13.8669
-14.8752
-15.9854
-17.2135
-18.5795
-20.1089
-21.8339
-23.7948
-26.0416
-28.6342
-31.6438
-35.1298
-39.0694
-43.5735
-49.9024
-10.2642
-10.929
-11.6188
-12.3974
-13.2534
-14.1872
-15.2106
-16.3377
-17.5847
-18.972
-20.5253
-22.2769
-24.2677
-26.5475
-29.1761
-32.2237
-35.7484
-39.7249
-44.2555
-50.6042
-10.5431
-11.2057
-11.8983
-12.6869
-13.555
-14.5022
-15.5402
-16.6838
-17.9494
-19.3574
-20.934
-22.7118
-24.7318
-27.0439
-29.7076
-32.7922
-36.3545
-40.3669
-44.9238
-51.2933
-10.8161
-11.4708
-12.1667
-12.9677
-13.8493
-14.8098
-15.8626
-17.0224
-18.3062
-19.7347
-21.334
-23.1374
-25.1859
-27.5294
-30.2272
-33.3478
-36.9464
-40.9937
-45.5771
-51.9711
-11.0645
-11.7045
-12.4195
-13.241
-14.1368
-15.1102
-16.1772
-17.353
-18.6545
-20.1027
-21.7243
-23.5526
-25.6287
-28.0028
-30.7337
-33.8887
-37.5219
-41.6021
-46.2108
-52.6392
-1.55444
-1.80937
-2.15849
-2.54901
-2.96962
-3.42579
-3.92386
-4.46982
-5.07124
-5.73841
-6.48534
-7.33105
-8.30167
-9.43316
-10.7762
-12.4048
-14.4082
-16.8467
-20.0272
-25.4254
-1.70613
-1.9773
-2.34457
-2.74078
-3.16464
-3.62596
-4.13076
-4.68461
-5.29522
-5.97318
-6.73271
-7.5932
-8.58119
-9.73315
-11.1004
-12.7573
-14.7931
-17.2667
-20.4789
-25.8906
-1.85176
-2.14685
-2.52709
-2.93127
-3.36271
-3.83225
-4.3458
-4.90913
-5.53033
-6.22029
-6.9936
-7.87002
-8.87653
-10.0502
-11.4427
-13.1289
-15.1979
-17.7064
-20.9498
-26.3696
-2.01938
-2.3252
-2.71351
-3.12627
-3.56676
-4.04567
-4.56907
-5.14302
-5.77591
-6.47897
-7.26711
-8.16049
-9.18658
-10.3829
-11.8018
-13.5184
-15.6215
-18.1662
-21.4439
-26.8811
-2.19821
-2.51103
-2.90704
-3.32862
-3.77843
-4.26716
-4.80105
-5.38641
-6.03188
-6.74895
-7.55287
-8.46419
-9.51085
-10.7309
-12.1772
-13.9252
-16.0636
-18.6461
-21.9607
-27.4216
-2.38247
-2.70378
-3.10798
-3.53853
-3.99796
-4.49695
-5.04193
-5.63939
-6.29818
-7.03008
-7.85066
-8.78084
-9.84905
-11.0939
-12.5686
-14.3493
-16.5242
-19.1456
-22.4985
-27.9861
-2.57368
-2.90436
-3.31667
-3.7562
-4.22551
-4.73519
-5.29177
-5.90193
-6.57473
-7.3222
-8.16024
-9.11017
-10.2009
-11.4714
-12.9758
-14.7902
-17.0028
-19.6642
-23.0562
-28.5721
-2.77325
-3.11326
-3.53346
-3.98195
-4.46134
-4.98203
-5.55063
-6.17399
-6.86139
-7.6251
-8.48136
-9.45186
-10.566
-11.8633
-13.3982
-15.2474
-17.4988
-20.2013
-23.6331
-29.1786
-2.98095
-3.33035
-3.7584
-4.2159
-4.70552
-5.23748
-5.81846
-6.45547
-7.158
-7.93858
-8.81374
-9.80558
-10.9439
-12.2689
-13.8354
-15.7205
-18.0117
-20.7562
-24.2285
-29.8045
-3.19621
-3.5553
-3.99129
-4.45788
-4.95792
-5.50141
-6.09511
-6.7462
-7.46436
-8.26237
-9.15708
-10.171
-11.3343
-12.6878
-14.2869
-16.2088
-18.5407
-21.3282
-24.8418
-30.4489
-3.4186
-3.78777
-4.23183
-4.70765
-5.2183
-5.77358
-6.38033
-7.04589
-7.78015
-8.59614
-9.51101
-10.5477
-11.7368
-13.1197
-14.7521
-16.7117
-19.0854
-21.9167
-25.4719
-31.1104
-3.64774
-4.02736
-4.47965
-4.96486
-5.48633
-6.05368
-6.67381
-7.35423
-8.10503
-8.93951
-9.87514
-10.9352
-12.1509
-13.5638
-15.2305
-17.2287
-19.6449
-22.5207
-26.1181
-31.7883
-3.88317
-4.27361
-4.73431
-5.22909
-5.76163
-6.34133
-6.97514
-7.6708
-8.43859
-9.29205
-10.249
-11.3331
-12.5759
-14.0198
-15.7215
-17.7591
-20.2186
-23.1396
-26.7794
-32.4816
-4.12436
-4.52599
-4.99531
-5.49988
-6.04373
-6.63606
-7.2839
-7.99516
-8.78035
-9.65328
-10.6321
-11.7408
-13.0115
-14.4869
-16.2245
-18.3022
-20.8058
-23.7725
-27.4552
-33.1892
-4.37079
-4.78397
-5.26213
-5.77671
-6.33215
-6.9374
-7.59958
-8.32681
-9.12982
-10.0227
-11.0238
-12.1577
-13.4569
-14.9646
-16.7386
-18.8573
-21.4055
-24.4186
-28.1444
-33.9105
-4.62189
-5.04697
-5.5342
-6.05905
-6.62634
-7.24482
-7.92167
-8.66522
-9.48643
-10.3996
-11.4236
-12.5832
-13.9115
-15.4521
-17.2633
-19.4235
-22.0171
-25.0771
-28.8463
-34.6446
-4.87713
-5.31443
-5.81095
-6.34633
-6.92576
-7.55775
-8.24958
-9.00981
-9.84962
-10.7836
-11.8309
-13.0167
-14.3746
-15.9487
-17.7977
-20
-22.6395
-25.7469
-29.5602
-35.3909
-5.13595
-5.58575
-6.09181
-6.63798
-7.22984
-7.87564
-8.58277
-9.36
-10.2188
-11.174
-12.245
-13.4575
-14.8456
-16.4537
-18.3409
-20.586
-23.2718
-26.4271
-30.285
-36.1492
-5.39782
-5.86038
-6.37619
-6.93342
-7.538
-8.1979
-8.92063
-9.71519
-10.5933
-11.57
-12.6652
-13.9049
-15.3235
-16.9661
-18.8921
-21.1803
-23.9129
-27.1165
-31.0199
-36.9199
-5.66222
-6.13778
-6.66356
-7.23212
-7.84969
-8.52399
-9.2626
-10.0748
-10.9725
-11.9711
-13.0908
-14.3581
-15.8077
-17.4852
-19.4504
-21.782
-24.5616
-27.8133
-31.762
-37.704
-1.30838
-1.10392
-0.952124
-0.817301
-0.699051
-0.594827
-0.50352
-0.424339
-0.356783
-0.300495
-0.255209
-0.220713
-0.196831
-0.183417
-0.180324
-0.187349
-0.204326
-0.231466
-0.268643
-0.315874
-1.63908
-1.45777
-1.30201
-1.16203
-1.03903
-0.930407
-0.835204
-0.752616
-0.682129
-0.623365
-0.576044
-0.539941
-0.51487
-0.500673
-0.497203
-0.504291
-0.521801
-0.549757
-0.588094
-0.636778
-1.9731
-1.79966
-1.64396
-1.50288
-1.37778
-1.26703
-1.16992
-1.08575
-1.01407
-0.954504
-0.90678
-0.870672
-0.845993
-0.83258
-0.830286
-0.838959
-0.858488
-0.888835
-0.929918
-0.981687
-2.35861
-2.18359
-2.02494
-1.88096
-1.75235
-1.63815
-1.53788
-1.45098
-1.37704
-1.31572
-1.26674
-1.22988
-1.20494
-1.19176
-1.19017
-1.20004
-1.22125
-1.25372
-1.29735
-1.35208
-2.77951
-2.60215
-2.43964
-2.2918
-2.15906
-2.04088
-1.93694
-1.84682
-1.77015
-1.70663
-1.656
-1.61804
-1.59255
-1.57935
-1.57829
-1.58921
-1.612
-1.64654
-1.69271
-1.75047
-3.23348
-3.05303
-2.88647
-2.7344
-2.5973
-2.47495
-2.36716
-2.27361
-2.19403
-2.12814
-2.07572
-2.03653
-2.01039
-1.99713
-1.99657
-2.00856
-2.03299
-2.0697
-2.11856
-2.17953
-3.72677
-3.54174
-3.3704
-3.21353
-3.07164
-2.94474
-2.83274
-2.73545
-2.65266
-2.58413
-2.52966
-2.48904
-2.46208
-2.44862
-2.44848
-2.46151
-2.48757
-2.5265
-2.57817
-2.64253
-4.26623
-4.07515
-3.89796
-3.73543
-3.58806
-3.456
-3.33926
-3.23774
-3.15127
-3.07968
-3.02279
-2.9804
-2.95234
-2.93844
-2.93853
-2.95246
-2.98008
-3.02122
-3.07572
-3.14357
-4.85961
-4.66105
-4.47679
-4.30754
-4.15379
-4.01578
-3.89358
-3.78715
-3.6964
-3.62119
-3.56136
-3.51674
-3.48717
-3.47248
-3.47252
-3.48712
-3.51612
-3.55935
-3.61666
-3.68802
-5.51711
-5.30951
-5.11678
-4.93954
-4.77829
-4.6333
-4.5047
-4.39251
-4.29667
-4.2171
-4.15365
-4.10619
-4.07455
-4.05859
-4.05814
-4.07304
-4.10313
-4.14823
-4.20817
-4.28296
-6.25251
-6.03408
-5.83121
-5.64446
-5.47429
-5.32103
-5.18482
-5.06575
-4.96379
-4.87888
-4.81091
-4.75977
-4.72531
-4.70737
-4.70581
-4.72047
-4.75118
-4.79775
-4.86
-4.93798
-7.08455
-6.85319
-6.63819
-6.44003
-6.25921
-6.09602
-5.95067
-5.82327
-5.71382
-5.6223
-5.54862
-5.49268
-5.45435
-5.43349
-5.42995
-5.44357
-5.47418
-5.52157
-5.58557
-5.66627
-8.03895
-7.79214
-7.56259
-7.35072
-7.15703
-6.98185
-6.8254
-6.6878
-6.5691
-6.4693
-6.38833
-6.3261
-6.28251
-6.25741
-6.25066
-6.26211
-6.29158
-6.33884
-6.40372
-6.48635
-9.15116
-8.88586
-8.63879
-8.41036
-8.20108
-8.0113
-7.84125
-7.69109
-7.56087
-7.45062
-7.3603
-7.28983
-7.2391
-7.208
-7.19637
-7.20408
-7.23093
-7.27666
-7.34111
-7.42447
-10.4713
-10.1838
-9.91564
-9.66716
-9.43893
-9.23131
-9.04455
-8.87883
-8.73423
-8.61077
-8.50844
-8.42716
-8.36685
-8.32739
-8.30865
-8.31047
-8.33265
-8.37492
-8.43707
-8.51937
-12.0727
-11.7587
-11.4651
-11.1924
-10.9412
-10.7119
-10.5046
-10.3197
-10.1572
-10.0171
-9.89942
-9.80412
-9.7311
-9.68026
-9.65146
-9.64456
-9.65935
-9.69553
-9.75287
-9.83163
-14.0441
-13.6988
-13.3752
-13.0738
-12.7953
-12.54
-12.3082
-12.1001
-11.9157
-11.7552
-11.6185
-11.5056
-11.4163
-11.3507
-11.3085
-11.2897
-11.294
-11.3212
-11.371
-11.4434
-16.4463
-16.0659
-15.7082
-15.3741
-15.0645
-14.7797
-14.5198
-14.2851
-14.0757
-13.8915
-13.7325
-13.5988
-13.4903
-13.4069
-13.3485
-13.315
-13.3063
-13.3221
-13.3621
-13.4256
-19.5886
-19.1688
-18.7726
-18.4025
-18.0588
-17.7416
-17.4508
-17.1865
-16.9486
-16.7371
-16.5521
-16.3935
-16.2613
-16.1554
-16.0758
-16.0222
-15.9947
-15.9934
-16.0183
-16.0671
-24.9291
-24.4646
-24.0343
-23.6351
-23.2648
-22.9226
-22.6078
-22.3205
-22.0606
-21.8281
-21.623
-21.4454
-21.2953
-21.1729
-21.0782
-21.0113
-20.9729
-20.9652
-20.9897
-21.036
-0.37297
-0.439624
-0.515794
-0.601393
-0.69633
-0.800494
-0.91375
-1.03593
-1.16681
-1.30613
-1.45351
-1.60842
-1.77008
-1.93726
-2.10832
-2.28101
-2.45084
-2.60803
-2.73722
-2.8644
-0.695732
-0.764629
-0.843395
-0.931915
-1.03008
-1.13776
-1.25479
-1.38098
-1.5161
-1.65983
-1.81176
-1.97135
-2.13782
-2.31001
-2.48631
-2.66509
-2.84456
-3.01701
-3.16716
-3.33651
-1.04408
-1.11678
-1.19972
-1.29275
-1.39576
-1.50858
-1.63106
-1.76296
-1.90404
-2.05395
-2.21227
-2.37845
-2.55173
-2.73108
-2.91517
-3.1028
-3.293
-3.48138
-3.66216
-3.86509
-1.41787
-1.49438
-1.58154
-1.67918
-1.78718
-1.90535
-2.03351
-2.17141
-2.31879
-2.47528
-2.64044
-2.81373
-2.99444
-3.18167
-3.37433
-3.57158
-3.77259
-3.97505
-4.17939
-4.40593
-1.81976
-1.90024
-1.99182
-2.09432
-2.2076
-2.33145
-2.46568
-2.61002
-2.76419
-2.92782
-3.10046
-3.2816
-3.47057
-3.66661
-3.86888
-4.0768
-4.28972
-4.50662
-4.73009
-4.97325
-2.2526
-2.33734
-2.43367
-2.54141
-2.6604
-2.79042
-2.93126
-3.08264
-3.24427
-3.41578
-3.59674
-3.78664
-3.98491
-4.19089
-4.40397
-4.62372
-4.84976
-5.08185
-5.32273
-5.58025
-2.71958
-2.80884
-2.91025
-3.02361
-3.14874
-3.28543
-3.43344
-3.59251
-3.76231
-3.9425
-4.13266
-4.33232
-4.54097
-4.75806
-4.98313
-5.21587
-5.45608
-5.70396
-5.96172
-6.23381
-3.22473
-3.31877
-3.42554
-3.54486
-3.67656
-3.82041
-3.97616
-4.14355
-4.32226
-4.51194
-4.71221
-4.92263
-5.14275
-5.37211
-5.61035
-5.85724
-6.11267
-6.37699
-6.65176
-6.93946
-3.77343
-3.87238
-3.98472
-4.11031
-4.24895
-4.4004
-4.56444
-4.74077
-4.92909
-5.12908
-5.34036
-5.56253
-5.7952
-6.03798
-6.29055
-6.55273
-6.82446
-7.10604
-7.39846
-7.70311
-4.37261
-4.47646
-4.59461
-4.72667
-4.87253
-5.03198
-5.20476
-5.3906
-5.58919
-5.80023
-6.02336
-6.25823
-6.50447
-6.76174
-7.02976
-7.30836
-7.59748
-7.89728
-8.20833
-8.53143
-5.03172
-5.14045
-5.26423
-5.40291
-5.55617
-5.72386
-5.90573
-6.10151
-6.31092
-6.53365
-6.76937
-7.01776
-7.27849
-7.55123
-7.83573
-8.13181
-8.43937
-8.75843
-9.08926
-9.43234
-5.76372
-5.87703
-6.00629
-6.15133
-6.31198
-6.48795
-6.67907
-6.88507
-7.10564
-7.34051
-7.58938
-7.85195
-8.1279
-8.41693
-8.71879
-9.03328
-9.36026
-9.69961
-10.0514
-10.4159
-6.58681
-6.70407
-6.83831
-6.98927
-7.15684
-7.34104
-7.54139
-7.75746
-7.98922
-8.23639
-8.49869
-8.77581
-9.06746
-9.37334
-9.6932
-10.0268
-10.374
-10.7345
-11.1082
-11.4953
-7.52683
-7.64698
-7.78526
-7.94138
-8.11512
-8.30656
-8.51637
-8.74161
-8.98417
-9.24336
-9.51893
-9.81057
-10.118
-10.4409
-10.7791
-11.1323
-11.5001
-11.8823
-12.2786
-12.6894
-8.62194
-8.74331
-8.88402
-9.04387
-9.22267
-9.41994
-9.6351
-9.87076
-10.1239
-10.3942
-10.6822
-10.9878
-11.3108
-11.6505
-12.0068
-12.3794
-12.7679
-13.1719
-13.5911
-14.0257
-9.93192
-10.052
-10.1927
-10.354
-10.5358
-10.7375
-10.9587
-11.1997
-11.4605
-11.7415
-12.0413
-12.3602
-12.6977
-13.0532
-13.4263
-13.8172
-14.2255
-14.6507
-15.0922
-15.5503
-11.538
-11.6537
-11.7916
-11.9518
-12.1337
-12.3372
-12.5619
-12.8078
-13.0748
-13.3628
-13.6728
-14.0032
-14.3525
-14.72
-15.1068
-15.5136
-15.9397
-16.3844
-16.8467
-17.3265
-13.5106
-13.6187
-13.7508
-13.9064
-14.084
-14.2845
-14.5079
-14.754
-15.0225
-15.3128
-15.6244
-15.9576
-16.3139
-16.6938
-17.0957
-17.5181
-17.9608
-18.4234
-18.9048
-19.4042
-16.138
-16.2303
-16.3462
-16.4875
-16.6554
-16.8488
-17.0671
-17.3099
-17.5768
-17.8675
-18.1812
-18.5179
-18.8776
-19.261
-19.6679
-20.0976
-20.55
-21.0257
-21.5248
-22.0421
-21.0786
-21.1514
-21.2548
-21.3865
-21.5454
-21.7307
-21.942
-22.1786
-22.4405
-22.7271
-23.0384
-23.3742
-23.7347
-24.1202
-24.5307
-24.9663
-25.4281
-25.9199
-26.4442
-26.9834
-27.493
-22.5697
-19.921
-17.8239
-16.0249
-14.4758
-13.1144
-11.8959
-10.793
-9.78759
-8.86651
-8.01997
-7.24023
-6.52096
-5.85689
-5.24337
-4.67505
-4.14627
-3.66545
-3.26125
-28.0302
-23.1132
-20.4532
-18.336
-16.5135
-14.939
-13.5519
-12.3082
-11.1813
-10.1535
-9.21191
-8.34692
-7.55093
-6.81776
-6.14227
-5.51994
-4.94594
-4.41781
-3.94861
-3.54643
-28.5956
-23.6752
-21.0021
-18.8639
-17.0165
-15.4156
-14.0016
-12.7318
-11.5802
-10.5293
-9.5667
-8.68279
-7.87006
-7.12236
-6.43453
-5.80194
-5.21988
-4.686
-4.20981
-3.78831
-29.1851
-24.2564
-21.568
-19.4072
-17.5335
-15.9047
-14.4629
-13.1661
-11.9888
-10.9142
-9.92982
-9.02626
-8.19596
-7.43264
-6.73093
-6.08595
-5.49272
-4.94826
-4.45923
-4.01918
-29.7955
-24.8561
-22.1502
-19.9655
-18.0638
-16.4058
-14.9351
-13.6102
-12.4064
-11.3073
-10.3004
-9.37648
-8.52782
-7.74798
-7.03135
-6.37274
-5.76689
-5.21021
-4.70756
-4.25153
-30.4253
-25.4747
-22.747
-20.5377
-18.6068
-16.9183
-15.4173
-14.0634
-12.8323
-11.7078
-10.6778
-9.7328
-8.8651
-8.06804
-7.33577
-6.66282
-6.0437
-5.47448
-4.95872
-4.48878
-31.0733
-26.1111
-23.3577
-21.1228
-19.1615
-17.4412
-15.9089
-14.5251
-13.2658
-12.1152
-11.0614
-10.0948
-9.20749
-8.39275
-7.64444
-6.95686
-6.32437
-5.74282
-5.21465
-4.73219
-31.7384
-26.7631
-23.9821
-21.7201
-19.727
-17.9738
-16.4092
-14.9944
-13.7062
-12.5289
-11.4506
-10.4619
-9.55469
-8.72198
-7.95743
-7.25515
-6.60938
-6.01576
-5.47576
-4.98171
-32.4192
-27.4294
-24.6197
-22.3288
-20.3026
-18.5152
-16.9172
-15.4706
-14.1527
-12.9481
-11.845
-10.8338
-9.90639
-9.05552
-8.27465
-7.5577
-6.89877
-6.29333
-5.74191
-5.23684
-33.1144
-28.1087
-25.2693
-22.9478
-20.8873
-19.0646
-17.4323
-15.9531
-14.6048
-13.3723
-12.244
-11.21
-10.2622
-9.39304
-8.59583
-7.86424
-7.19227
-6.57518
-6.01259
-5.49688
-33.823
-28.7999
-25.9299
-23.5764
-21.4802
-19.6211
-17.9535
-16.4409
-15.0617
-13.8009
-12.6469
-11.59
-10.6216
-9.73411
-8.92055
-8.17438
-7.48944
-6.86078
-6.28716
-5.76104
-34.5437
-29.502
-26.6004
-24.2133
-22.0803
-20.1838
-18.48
-16.9333
-15.5225
-14.2331
-13.0532
-11.9731
-10.9841
-10.0782
-9.24829
-8.48757
-7.78971
-7.14952
-6.56494
-6.02855
-35.2755
-30.2139
-27.2796
-24.8577
-22.6866
-20.7517
-19.0109
-17.4294
-15.9867
-14.6681
-13.4622
-12.3587
-11.349
-10.4247
-9.57848
-8.80323
-8.09246
-7.44073
-6.84522
-6.29865
-36.0173
-30.9344
-27.9664
-25.5083
-23.298
-21.3237
-19.5452
-17.9284
-16.4532
-15.1054
-13.8731
-12.7462
-11.7157
-10.7731
-9.91048
-9.12072
-8.39706
-7.73377
-7.12729
-6.57062
-36.768
-31.6623
-28.6596
-26.164
-23.9135
-21.899
-20.0819
-18.4293
-16.9214
-15.5439
-14.2852
-13.1349
-12.0836
-11.1225
-10.2437
-9.4394
-8.70284
-8.02796
-7.4105
-6.8438
-37.5264
-32.3963
-29.3579
-26.8237
-24.5318
-22.4762
-20.6201
-18.9312
-17.3902
-15.983
-14.6978
-13.524
-12.4519
-11.4725
-10.5773
-9.75863
-9.00917
-8.32267
-7.6942
-7.11754
-38.2922
-33.1352
-30.06
-27.486
-25.1518
-23.0544
-21.1586
-19.4331
-17.8588
-16.4217
-15.11
-13.9127
-12.8199
-11.8222
-10.9109
-10.0778
-9.31542
-8.61727
-7.97778
-7.39125
-39.0667
-33.8787
-30.7644
-28.1493
-25.772
-23.6322
-21.6964
-19.9339
-18.3262
-16.8592
-15.521
-14.3003
-13.1869
-12.171
-11.2436
-10.3961
-9.62094
-8.91116
-8.26064
-7.66437
-39.8501
-34.6256
-31.4691
-28.812
-26.3911
-24.2085
-22.2323
-20.4327
-18.7915
-17.2947
-15.93
-14.6861
-13.5522
-12.5182
-11.5748
-10.7131
-9.92514
-9.20373
-8.54222
-7.9364
-40.6298
-35.3707
-32.1727
-29.4732
-27.0085
-24.7828
-22.766
-20.9292
-19.2544
-17.7277
-16.3367
-15.0696
-13.9154
-12.8635
-11.9041
-11.0282
-10.2276
-9.49456
-8.82208
-8.2069
-6.69455
-4.60872
-3.26465
-2.23309
-1.51011
-0.979598
-0.599093
-0.329194
-0.141966
-0.0159434
0.0652019
0.113933
0.139601
0.149276
0.148149
0.14003
0.127681
0.113066
0.0975688
0.0821414
0.0674161
0.0537972
0.0415146
0.0306889
0.0213362
0.0134427
0.00690859
0.00167757
-0.00242929
-0.00544037
-0.00762473
-0.00890363
-0.00969518
-0.00968791
-0.00956545
-0.00857774
-0.00784907
-0.00594725
-0.00449389
-0.0015321
-6.94769
-4.78928
-3.40967
-2.34731
-1.60048
-1.05271
-0.658746
-0.378483
-0.183071
-0.0504721
0.0360548
0.0892561
0.118676
0.13153
0.133112
0.127309
0.116944
0.10403
0.0899888
0.0758073
0.062146
0.0494316
0.0379172