/*--------------------------------*- C++ -*----------------------------------*\
  =========                 |
  \\      /  F ield         | OpenFOAM: The Open Source CFD Toolbox
   \\    /   O peration     | Website:  https://openfoam.org
    \\  /    A nd           | Version:  6.0
     \\/     M anipulation  |
\*---------------------------------------------------------------------------*/
FoamFile
{
    version     2.0;
    format      ascii;
    class       volScalarField;
    location    "2.2505";
    object      p;
}
// * * * * * * * * * * * * * * * * * * * * * * * * * * * * * * * * * * * * * //

dimensions      [0 2 -2 0 0 0 0];

internalField   nonuniform List<scalar> 
19200
(
-8.38363
-7.47072
-6.8032
-6.25305
-5.75284
-5.30221
-4.89668
-4.52959
-4.19593
-3.8918
-3.61392
-3.35952
-3.12625
-2.91205
-2.71515
-2.53396
-2.36709
-2.21328
-2.07141
-1.94047
-1.81953
-1.70777
-1.60443
-1.50884
-1.42036
-1.33842
-1.2625
-1.19205
-1.12651
-1.06628
-8.44265
-7.53094
-6.86323
-6.31187
-5.80999
-5.3574
-4.94974
-4.58044
-4.24454
-3.93818
-3.65813
-3.40164
-3.16636
-2.95025
-2.75154
-2.56865
-2.40017
-2.24485
-2.10156
-1.96928
-1.84709
-1.73415
-1.6297
-1.53305
-1.44358
-1.3607
-1.28389
-1.21257
-1.14612
-1.08542
-8.50422
-7.59212
-6.92367
-6.37099
-5.86738
-5.4128
-5.00298
-4.63144
-4.29328
-3.9847
-3.70247
-3.44389
-3.2066
-2.9886
-2.78809
-2.6035
-2.43344
-2.27663
-2.13194
-1.99834
-1.87492
-1.76081
-1.65527
-1.55759
-1.46714
-1.38335
-1.30567
-1.23348
-1.16613
-1.10499
-8.56682
-7.654
-6.98456
-6.43044
-5.92503
-5.4684
-5.0564
-4.6826
-4.34217
-4.03134
-3.74694
-3.48626
-3.24698
-3.02708
-2.82479
-2.63853
-2.46689
-2.30861
-2.16254
-2.02765
-1.90301
-1.78776
-1.68114
-1.58245
-1.49105
-1.40635
-1.32784
-1.2548
-1.18657
-1.12501
-8.63017
-7.71651
-7.04589
-6.49022
-5.98293
-5.52421
-5.10999
-4.7339
-4.39119
-4.07811
-3.79152
-3.52875
-3.28748
-3.0657
-2.86164
-2.67372
-2.50052
-2.34079
-2.19336
-2.0572
-1.93136
-1.815
-1.70732
-1.60763
-1.5153
-1.42973
-1.35039
-1.27653
-1.20744
-1.14549
-8.69414
-7.77954
-7.10765
-6.55034
-6.04111
-5.58024
-5.16375
-4.78536
-4.44033
-4.12499
-3.83622
-3.57136
-3.3281
-3.10445
-2.89863
-2.70907
-2.53434
-2.37317
-2.22441
-2.087
-1.96
-1.84254
-1.73383
-1.63317
-1.53992
-1.45349
-1.37334
-1.29867
-1.22874
-1.16642
-8.75862
-7.84305
-7.1698
-6.61077
-6.09953
-5.63647
-5.21768
-4.83695
-4.4896
-4.17198
-3.88102
-3.61406
-3.36883
-3.14332
-2.93576
-2.74457
-2.56832
-2.40574
-2.25567
-2.11704
-1.9889
-1.87037
-1.76066
-1.65906
-1.56491
-1.47765
-1.39671
-1.32124
-1.25048
-1.18783
-8.82354
-7.90696
-7.2323
-6.67149
-6.15819
-5.69289
-5.27176
-4.88866
-4.53896
-4.21906
-3.9259
-3.65686
-3.40965
-3.18229
-2.973
-2.7802
-2.60246
-2.43849
-2.28713
-2.1473
-2.01805
-1.89848
-1.78779
-1.68527
-1.59025
-1.50217
-1.42047
-1.34424
-1.27266
-1.20969
-8.88885
-7.97124
-7.29511
-6.73246
-6.21706
-5.74947
-5.32597
-4.94047
-4.58841
-4.26621
-3.97085
-3.69971
-3.45054
-3.22134
-3.01034
-2.81595
-2.63673
-2.47141
-2.31878
-2.17778
-2.04743
-1.92684
-1.81521
-1.71179
-1.61592
-1.52706
-1.44461
-1.36763
-1.29527
-1.23201
-8.95451
-8.03583
-7.35819
-6.79366
-6.2761
-5.80619
-5.38028
-4.99236
-4.63791
-4.3134
-4.01583
-3.7426
-3.49147
-3.26044
-3.04774
-2.85178
-2.67112
-2.50445
-2.35059
-2.20844
-2.07703
-1.95546
-1.8429
-1.73861
-1.64192
-1.55228
-1.46912
-1.3914
-1.31829
-1.25477
-9.02047
-8.10069
-7.4215
-6.85505
-6.33528
-5.863
-5.43465
-5.04427
-4.68742
-4.36059
-4.06081
-3.7855
-3.53242
-3.29957
-3.08519
-2.88768
-2.70559
-2.53761
-2.38253
-2.23927
-2.10683
-1.98429
-1.87084
-1.7657
-1.66823
-1.57783
-1.49397
-1.41554
-1.3417
-1.27794
-9.08668
-8.16578
-7.48501
-6.91657
-6.39456
-5.91988
-5.48904
-5.09619
-4.73692
-4.40775
-4.10576
-3.82836
-3.57334
-3.33869
-3.12265
-2.92361
-2.74011
-2.57084
-2.41458
-2.27023
-2.13677
-2.01331
-1.89899
-1.79304
-1.6948
-1.60369
-1.51913
-1.44003
-1.36545
-1.30149
-9.1531
-8.23105
-7.54865
-6.9782
-6.4539
-5.97676
-5.54342
-5.14807
-4.78635
-4.45485
-4.15063
-3.87116
-3.6142
-3.37776
-3.16007
-2.95952
-2.77464
-2.6041
-2.44668
-2.30127
-2.16684
-2.04247
-1.92731
-1.82059
-1.72161
-1.6298
-1.54458
-1.46481
-1.38953
-1.32539
-9.21968
-8.29645
-7.61239
-7.03988
-6.51324
-6.03362
-5.59774
-5.19986
-4.83568
-4.50183
-4.19539
-3.91384
-3.65495
-3.41674
-3.19742
-2.99538
-2.80914
-2.63736
-2.47881
-2.33236
-2.19698
-2.07173
-1.95576
-1.84828
-1.7486
-1.65613
-1.57028
-1.48985
-1.41389
-1.34958
-9.28636
-8.36194
-7.67618
-7.10156
-6.57255
-6.09041
-5.65195
-5.25151
-4.88486
-4.54864
-4.23998
-3.95636
-3.69555
-3.45558
-3.23465
-3.03114
-2.84356
-2.67056
-2.5109
-2.36344
-2.22714
-2.10104
-1.98429
-1.87609
-1.77572
-1.68261
-1.59616
-1.5151
-1.43847
-1.37402
-9.3531
-8.42746
-7.73996
-7.1632
-6.63176
-6.14705
-5.70599
-5.30298
-4.93383
-4.59525
-4.28436
-3.99866
-3.73595
-3.49423
-3.2717
-3.06674
-2.87784
-2.70365
-2.54291
-2.39447
-2.25727
-2.13035
-2.01285
-1.90395
-1.80293
-1.70921
-1.62218
-1.54052
-1.46323
-1.39868
-9.41985
-8.49297
-7.80368
-7.22473
-6.69083
-6.20352
-5.75981
-5.3542
-4.98255
-4.64158
-4.32847
-4.04071
-3.77609
-3.53263
-3.30852
-3.10213
-2.91194
-2.73658
-2.57478
-2.42537
-2.2873
-2.1596
-2.04136
-1.93179
-1.83016
-1.73587
-1.6483
-1.56609
-1.48818
-1.42353
-9.48656
-8.55841
-7.8673
-7.28611
-6.74969
-6.25973
-5.81335
-5.40512
-5.03094
-4.68759
-4.37225
-4.08243
-3.81592
-3.57074
-3.34507
-3.13726
-2.94579
-2.76928
-2.60643
-2.45609
-2.31718
-2.1887
-2.06977
-1.95955
-1.85733
-1.76249
-1.67442
-1.59167
-1.51319
-1.44848
-9.55318
-8.62373
-7.93075
-7.34726
-6.80828
-6.31564
-5.86655
-5.45567
-5.07896
-4.73322
-4.41565
-4.12377
-3.85538
-3.60849
-3.38127
-3.17206
-2.97933
-2.80168
-2.63782
-2.48656
-2.34682
-2.21759
-2.09798
-1.98714
-1.88433
-1.78897
-1.70042
-1.61717
-1.53813
-1.47339
-9.61967
-8.68888
-7.99399
-7.40815
-6.86655
-6.37117
-5.91935
-5.5058
-5.12654
-4.7784
-4.4586
-4.16468
-3.89442
-3.64583
-3.41707
-3.20648
-3.01251
-2.83374
-2.66887
-2.51671
-2.37615
-2.24618
-2.1259
-2.01445
-1.91109
-1.81522
-1.72619
-1.64247
-1.56288
-1.49814
-9.68599
-8.75383
-8.05695
-7.46869
-6.92442
-6.42626
-5.97167
-5.55544
-5.17362
-4.82308
-4.50106
-4.2051
-3.93298
-3.6827
-3.45242
-3.24046
-3.04525
-2.86538
-2.69952
-2.54646
-2.40509
-2.27439
-2.15345
-2.0414
-1.93748
-1.84111
-1.75163
-1.66743
-1.5873
-1.52257
-9.75214
-8.81852
-8.11958
-7.52883
-6.98182
-6.48084
-6.02345
-5.60451
-5.22012
-4.86719
-4.54295
-4.24496
-3.971
-3.71905
-3.48727
-3.27395
-3.07752
-2.89655
-2.7297
-2.57574
-2.43357
-2.30215
-2.18053
-2.06787
-1.9634
-1.86652
-1.77658
-1.69191
-1.61122
-1.54649
-9.8181
-8.88293
-8.18183
-7.58849
-7.03868
-6.53483
-6.07461
-5.65295
-5.26599
-4.91066
-4.58422
-4.28422
-4.00843
-3.75483
-3.52155
-3.30689
-3.10926
-2.92719
-2.75936
-2.60452
-2.46153
-2.32936
-2.20707
-2.09379
-1.98874
-1.89132
-1.8009
-1.71573
-1.63445
-1.56969
-9.88394
-8.94703
-8.24362
-7.6476
-7.0949
-6.58814
-6.12507
-5.70067
-5.31115
-4.95344
-4.62481
-4.32281
-4.04522
-3.78998
-3.55524
-3.33925
-3.14042
-2.95728
-2.78846
-2.63272
-2.48891
-2.35599
-2.23299
-2.11905
-2.01338
-1.91538
-1.82442
-1.73869
-1.65673
-1.59188
-9.94973
-9.01078
-8.30488
-7.70605
-7.15039
-6.64068
-6.17473
-5.74761
-5.35553
-4.99545
-4.66466
-4.36069
-4.08131
-3.82447
-3.58828
-3.37099
-3.17098
-2.98677
-2.81698
-2.66034
-2.5157
-2.38199
-2.25825
-2.14359
-2.03723
-1.93858
-1.84699
-1.76058
-1.6778
-1.61272
-10.0156
-9.07409
-8.36548
-7.76372
-7.20504
-6.69234
-6.22352
-5.79367
-5.39905
-5.03663
-4.7037
-4.39779
-4.11667
-3.85825
-3.62065
-3.40208
-3.20092
-3.01566
-2.8449
-2.68737
-2.54188
-2.40737
-2.28285
-2.16742
-2.06029
-1.96085
-1.86849
-1.78123
-1.69736
-1.63174
-10.0817
-9.1369
-8.42528
-7.82048
-7.25871
-6.743
-6.27131
-5.83877
-5.44164
-5.07691
-4.74188
-4.43408
-4.15124
-3.8913
-3.65232
-3.43251
-3.23023
-3.04395
-2.87225
-2.71383
-2.56751
-2.43218
-2.30685
-2.19059
-2.0826
-1.98226
-1.88897
-1.80065
-1.71525
-1.64838
-10.1494
-9.19939
-8.48406
-7.87606
-7.31118
-6.79249
-6.31797
-5.88277
-5.48319
-5.11621
-4.77913
-4.46948
-4.18499
-3.92356
-3.68325
-3.46225
-3.2589
-3.07164
-2.89904
-2.73978
-2.59264
-2.45651
-2.33036
-2.21325
-2.10432
-2.00296
-1.90853
-1.81878
-1.73103
-1.66224
-10.2199
-9.26141
-8.54129
-7.93005
-7.36218
-6.84061
-6.36336
-5.92558
-5.5236
-5.15442
-4.81535
-4.50391
-4.21782
-3.95497
-3.7134
-3.49127
-3.28691
-3.09873
-2.9253
-2.76525
-2.61737
-2.48051
-2.3536
-2.23566
-2.12577
-2.02322
-1.9272
-1.83499
-1.74353
-1.67249
-10.2857
-9.31982
-8.59602
-7.98219
-7.41173
-6.88749
-6.40761
-5.96732
-5.56299
-5.19167
-4.85066
-4.53748
-4.24984
-3.98562
-3.74283
-3.51964
-3.31432
-3.1253
-2.9511
-2.79037
-2.64186
-2.50442
-2.37695
-2.25846
-2.148
-2.04468
-1.94725
-1.85295
-1.75969
-1.6849
-10.9705
-10.9897
-11.0026
-11.014
-11.023
-11.0289
-11.0316
-11.0311
-11.0273
-11.0202
-11.0098
-10.9963
-10.9795
-10.9597
-10.9369
-10.9113
-10.8828
-10.8516
-10.8179
-10.7818
-10.7433
-10.7025
-10.6597
-10.615
-10.5685
-10.5205
-10.4711
-10.4207
-10.37
-10.3215
-9.98018
-10.0032
-10.0209
-10.035
-10.0458
-10.0531
-10.0569
-10.0574
-10.0545
-10.0483
-10.0389
-10.0263
-10.0106
-9.99191
-9.97023
-9.94571
-9.91843
-9.88851
-9.85605
-9.82117
-9.78397
-9.74459
-9.70315
-9.65979
-9.61467
-9.56795
-9.51984
-9.47058
-9.4204
-9.36979
-9.20932
-9.23419
-9.25444
-9.27065
-9.28314
-9.29203
-9.29741
-9.29939
-9.29806
-9.29347
-9.28566
-9.27468
-9.26062
-9.24359
-9.22366
-9.20091
-9.17546
-9.14739
-9.11681
-9.08383
-9.04855
-9.01111
-8.97161
-8.93018
-8.88695
-8.84206
-8.79564
-8.74782
-8.69868
-8.64821
-8.53842
-8.56428
-8.58604
-8.60386
-8.61795
-8.62847
-8.63551
-8.63919
-8.63959
-8.63679
-8.6308
-8.62168
-8.60954
-8.59448
-8.57657
-8.5559
-8.53256
-8.50665
-8.47827
-8.44751
-8.41449
-8.37931
-8.34208
-8.30291
-8.26191
-8.21921
-8.17488
-8.12902
-8.08168
-8.03289
-7.90921
-7.93575
-7.95859
-7.97768
-7.99314
-8.00511
-8.01368
-8.01896
-8.02103
-8.01997
-8.01576
-8.0085
-7.99829
-7.98523
-7.96938
-7.95083
-7.92967
-7.90599
-7.87988
-7.85144
-7.82077
-7.78797
-7.75313
-7.71637
-7.67778
-7.63745
-7.59546
-7.55189
-7.50679
-7.46021
-7.32913
-7.35611
-7.37967
-7.39966
-7.41617
-7.42929
-7.43912
-7.44576
-7.44931
-7.44977
-7.44718
-7.44161
-7.4332
-7.422
-7.40809
-7.39156
-7.37247
-7.35093
-7.32702
-7.30083
-7.27246
-7.242
-7.20953
-7.17517
-7.13898
-7.10107
-7.0615
-7.02034
-6.97764
-6.93348
-6.79898
-6.82613
-6.85005
-6.8706
-6.8878
-6.90175
-6.91253
-6.92024
-6.92496
-6.92669
-6.92546
-6.92136
-6.9145
-6.90494
-6.89276
-6.87803
-6.86084
-6.84125
-6.81936
-6.79526
-6.76903
-6.74076
-6.71054
-6.67845
-6.64458
-6.609
-6.5718
-6.53302
-6.49275
-6.45104
-6.3154
-6.34244
-6.36642
-6.38718
-6.40475
-6.4192
-6.43061
-6.43909
-6.4447
-6.4474
-6.44723
-6.44432
-6.43874
-6.43056
-6.41984
-6.40667
-6.39111
-6.37324
-6.35315
-6.33091
-6.30661
-6.28032
-6.25215
-6.22215
-6.19043
-6.15704
-6.12207
-6.08557
-6.04762
-6.00829
-5.8752
-5.90189
-5.92565
-5.94634
-5.96399
-5.97864
-5.99039
-5.99935
-6.00553
-6.00891
-6.00953
-6.00752
-6.00294
-5.99586
-5.98634
-5.97445
-5.96026
-5.94385
-5.92529
-5.90467
-5.88205
-5.85753
-5.83117
-5.80306
-5.77327
-5.74188
-5.70895
-5.67456
-5.63876
-5.60165
-5.47528
-5.50138
-5.52469
-5.54508
-5.56254
-5.57714
-5.58898
-5.59814
-5.60464
-5.60843
-5.60957
-5.60819
-5.60435
-5.5981
-5.58951
-5.57865
-5.56557
-5.55036
-5.53308
-5.51382
-5.49264
-5.46963
-5.44485
-5.41839
-5.39031
-5.3607
-5.32961
-5.29712
-5.26329
-5.22822
-5.11237
-5.13772
-5.1604
-5.18027
-5.19735
-5.21168
-5.22339
-5.23254
-5.23911
-5.24306
-5.2445
-5.24352
-5.24018
-5.23453
-5.22663
-5.21654
-5.20434
-5.19008
-5.17385
-5.15571
-5.13573
-5.11399
-5.09056
-5.06552
-5.03893
-5.01087
-4.98141
-4.95061
-4.91854
-4.8853
-4.78324
-4.80771
-4.8296
-4.84882
-4.86534
-4.87925
-4.89065
-4.89959
-4.90603
-4.90997
-4.91151
-4.91073
-4.90768
-4.90241
-4.89499
-4.88547
-4.87393
-4.86041
-4.845
-4.82776
-4.80876
-4.78808
-4.76578
-4.74194
-4.71663
-4.68991
-4.66186
-4.63255
-4.60204
-4.57041
-4.48475
-4.50824
-4.52926
-4.5477
-4.56355
-4.5769
-4.58785
-4.59644
-4.60261
-4.60638
-4.60785
-4.60711
-4.60418
-4.59912
-4.592
-4.58287
-4.57179
-4.55882
-4.54404
-4.52751
-4.5093
-4.48947
-4.46811
-4.44527
-4.42104
-4.39547
-4.36864
-4.34061
-4.31146
-4.28126
-4.21393
-4.23638
-4.25645
-4.27403
-4.28913
-4.30183
-4.31223
-4.32036
-4.32615
-4.32963
-4.33092
-4.33007
-4.32712
-4.32214
-4.31516
-4.30626
-4.29549
-4.28292
-4.26861
-4.25262
-4.23502
-4.21589
-4.19528
-4.17328
-4.14994
-4.12534
-4.09955
-4.07263
-4.04465
-4.01571
-3.96797
-3.98936
-4.00844
-4.02513
-4.03942
-4.0514
-4.06119
-4.06878
-4.0741
-4.07721
-4.07821
-4.07716
-4.07409
-4.06906
-4.06212
-4.05333
-4.04275
-4.03044
-4.01646
-4.00087
-3.98375
-3.96516
-3.94516
-3.92383
-3.90124
-3.87745
-3.85254
-3.82657
-3.79961
-3.77175
-3.74431
-3.76463
-3.78271
-3.79848
-3.81193
-3.82318
-3.83232
-3.83931
-3.84411
-3.84679
-3.84743
-3.8461
-3.84283
-3.83767
-3.83068
-3.8219
-3.81141
-3.79925
-3.78549
-3.7702
-3.75343
-3.73526
-3.71575
-3.69497
-3.67298
-3.64987
-3.6257
-3.60053
-3.57444
-3.54753
-3.5406
-3.55986
-3.57695
-3.5918
-3.60441
-3.61491
-3.62337
-3.62974
-3.63398
-3.63618
-3.63643
-3.63478
-3.63125
-3.6259
-3.61878
-3.60995
-3.59946
-3.58738
-3.57376
-3.55867
-3.54216
-3.52431
-3.50518
-3.48484
-3.46335
-3.4408
-3.41724
-3.39275
-3.36741
-3.34131
-3.3547
-3.37293
-3.38905
-3.403
-3.41478
-3.42453
-3.43231
-3.43804
-3.44171
-3.44343
-3.44326
-3.44124
-3.43742
-3.43184
-3.42455
-3.41561
-3.40508
-3.39301
-3.37946
-3.3645
-3.34818
-3.33057
-3.31173
-3.29174
-3.27066
-3.24856
-3.22551
-3.2016
-3.1769
-3.1515
-3.1847
-3.20194
-3.21713
-3.2302
-3.24118
-3.2502
-3.2573
-3.26239
-3.2655
-3.26672
-3.26612
-3.26373
-3.25959
-3.25376
-3.24627
-3.23719
-3.22657
-3.21447
-3.20094
-3.18605
-3.16986
-3.15243
-3.13382
-3.11411
-3.09335
-3.07162
-3.049
-3.02557
-3.0014
-2.97661
-3.0289
-3.04519
-3.05948
-3.07172
-3.08193
-3.09023
-3.09666
-3.10115
-3.10371
-3.10445
-3.10342
-3.10065
-3.09618
-3.09008
-3.08237
-3.07313
-3.06239
-3.05023
-3.03669
-3.02183
-3.00573
-2.98843
-2.96999
-2.9505
-2.93
-2.90858
-2.88631
-2.86327
-2.83955
-2.81528
-2.88578
-2.90117
-2.91461
-2.92605
-2.93552
-2.94315
-2.94894
-2.95284
-2.95487
-2.95514
-2.95368
-2.95054
-2.94576
-2.93937
-2.93145
-2.92203
-2.91116
-2.89891
-2.88534
-2.87049
-2.85444
-2.83723
-2.81893
-2.79961
-2.77932
-2.75815
-2.73616
-2.71345
-2.6901
-2.66625
-2.75398
-2.76852
-2.78116
-2.79185
-2.80063
-2.80761
-2.8128
-2.81614
-2.81767
-2.81748
-2.81562
-2.81212
-2.80702
-2.80037
-2.79222
-2.78261
-2.77161
-2.75927
-2.74564
-2.73079
-2.71476
-2.69762
-2.67942
-2.66024
-2.64013
-2.61915
-2.59739
-2.57493
-2.55187
-2.52839
-2.63232
-2.64607
-2.65795
-2.66793
-2.67606
-2.68244
-2.68706
-2.68987
-2.69093
-2.69031
-2.68806
-2.68422
-2.67882
-2.67191
-2.66354
-2.65376
-2.64262
-2.63017
-2.61649
-2.60161
-2.58559
-2.5685
-2.55038
-2.53131
-2.51133
-2.49052
-2.46894
-2.44668
-2.42383
-2.40063
-2.51975
-2.53275
-2.54393
-2.55325
-2.56077
-2.56659
-2.57068
-2.573
-2.57361
-2.57259
-2.56998
-2.56581
-2.56012
-2.55296
-2.54438
-2.53443
-2.52315
-2.51061
-2.49686
-2.48195
-2.46594
-2.44888
-2.43083
-2.41185
-2.39198
-2.3713
-2.34986
-2.32774
-2.30503
-2.28204
-2.41534
-2.42765
-2.43817
-2.44687
-2.45383
-2.45913
-2.46273
-2.46458
-2.46478
-2.46338
-2.46043
-2.45596
-2.45
-2.44261
-2.43383
-2.42372
-2.41231
-2.39967
-2.38585
-2.37091
-2.35489
-2.33786
-2.31987
-2.30096
-2.2812
-2.26062
-2.23929
-2.21727
-2.19462
-2.1718
-2.31827
-2.32993
-2.33985
-2.34797
-2.3544
-2.35922
-2.36234
-2.36376
-2.36357
-2.36182
-2.35855
-2.35379
-2.34758
-2.33996
-2.33099
-2.32072
-2.30918
-2.29645
-2.28256
-2.26758
-2.25155
-2.23454
-2.21659
-2.19775
-2.17806
-2.15758
-2.13633
-2.11436
-2.09167
-2.0691
-2.22785
-2.2389
-2.24824
-2.25582
-2.26176
-2.26611
-2.26879
-2.2698
-2.26924
-2.26716
-2.26358
-2.25854
-2.25208
-2.24424
-2.23508
-2.22464
-2.21297
-2.20013
-2.18615
-2.17111
-2.15506
-2.13803
-2.1201
-2.1013
-2.08166
-2.06123
-2.04003
-2.01805
-1.99518
-1.97304
-2.14343
-2.15397
-2.16283
-2.16997
-2.1755
-2.17947
-2.18178
-2.18246
-2.1816
-2.17924
-2.17541
-2.17015
-2.1635
-2.15549
-2.14619
-2.13562
-2.12386
-2.11093
-2.09691
-2.08184
-2.06577
-2.04877
-2.03087
-2.01213
-1.99258
-1.97222
-1.95107
-1.92905
-1.90587
-1.8842
-2.06438
-2.07456
-2.08308
-2.08994
-2.09522
-2.09894
-2.10104
-2.10155
-2.10056
-2.0981
-2.09419
-2.08888
-2.08221
-2.07422
-2.06495
-2.05446
-2.0428
-2.03001
-2.01616
-2.00128
-1.98545
-1.96871
-1.95111
-1.93271
-1.91353
-1.89357
-1.8728
-1.85103
-1.82791
-1.80764
-1.99013
-1.99946
-2.00718
-2.0133
-2.01789
-2.02096
-2.02247
-2.02245
-2.02097
-2.01807
-2.01378
-2.00814
-2.00119
-1.99297
-1.98352
-1.9729
-1.96115
-1.94833
-1.93448
-1.91967
-1.90395
-1.88737
-1.87
-1.85188
-1.83306
-1.81356
-1.79335
-1.7721
-1.74974
-1.73567
-8.57626
-8.691
-8.8001
-8.91128
-9.02298
-9.13372
-9.24298
-9.35045
-9.45582
-9.55883
-9.65925
-9.75691
-9.85165
-9.94332
-10.0318
-10.117
-10.1987
-10.277
-10.3517
-10.4227
-10.49
-10.5536
-10.6134
-10.6694
-10.7215
-10.7699
-10.8146
-10.8557
-10.8936
-10.9298
-7.59983
-7.71883
-7.83354
-7.94702
-8.0592
-8.16962
-8.27815
-8.38463
-8.48891
-8.59078
-8.69008
-8.78666
-8.88035
-8.97105
-9.05861
-9.14294
-9.22393
-9.30149
-9.37555
-9.44603
-9.51288
-9.57605
-9.6355
-9.69122
-9.7432
-9.79145
-9.83603
-9.877
-9.91446
-9.94862
-6.8473
-6.96582
-7.08136
-7.19464
-7.30598
-7.41536
-7.52271
-7.62795
-7.73094
-7.83155
-7.92962
-8.02503
-8.11764
-8.20733
-8.29398
-8.37749
-8.45776
-8.5347
-8.60824
-8.6783
-8.74483
-8.80778
-8.86711
-8.92279
-8.9748
-9.02314
-9.06781
-9.10882
-9.14614
-9.1797
-6.20413
-6.32014
-6.43399
-6.54563
-6.65528
-6.76296
-6.86861
-6.97216
-7.07348
-7.17246
-7.26898
-7.36291
-7.45413
-7.54253
-7.628
-7.71044
-7.78976
-7.86586
-7.93868
-8.00815
-8.0742
-8.13678
-8.19585
-8.25138
-8.30333
-8.35169
-8.39644
-8.43755
-8.47498
-8.50869
-5.61329
-5.72612
-5.83732
-5.94657
-6.05389
-6.1593
-6.26274
-6.36412
-6.46334
-6.56029
-6.65486
-6.74693
-6.83639
-6.92315
-7.00708
-7.08811
-7.16613
-7.24107
-7.31285
-7.3814
-7.44667
-7.50859
-7.56713
-7.62224
-7.67389
-7.72206
-7.7667
-7.8078
-7.84531
-7.87921
-5.08111
-5.19051
-5.29857
-5.40489
-5.50941
-5.61211
-5.71292
-5.81176
-5.90852
-6.00309
-6.09537
-6.18525
-6.27263
-6.35741
-6.4395
-6.51879
-6.5952
-6.66865
-6.73908
-6.80641
-6.87058
-6.93154
-6.98925
-7.04366
-7.09473
-7.14243
-7.18674
-7.22761
-7.26502
-7.29895
-4.60676
-4.71258
-4.81724
-4.92032
-5.02173
-5.12142
-5.21932
-5.31533
-5.40936
-5.50129
-5.59103
-5.67846
-5.76351
-5.84606
-5.92602
-6.00331
-6.07784
-6.14954
-6.21833
-6.28416
-6.34696
-6.40668
-6.46327
-6.51669
-6.56691
-6.61389
-6.65759
-6.698
-6.73508
-6.76883
-4.18503
-4.28721
-4.38836
-4.48804
-4.58617
-4.68268
-4.77749
-4.87051
-4.96163
-5.05075
-5.13776
-5.22257
-5.30509
-5.38521
-5.46286
-5.53794
-5.61038
-5.68011
-5.74705
-5.81114
-5.87233
-5.93056
-5.98579
-6.03799
-6.0871
-6.13311
-6.17597
-6.21567
-6.25218
-6.28551
-3.81087
-3.90945
-4.00705
-4.1033
-4.19808
-4.29134
-4.38299
-4.47293
-4.56105
-4.64725
-4.73144
-4.81352
-4.89339
-4.97096
-5.04616
-5.1189
-5.18909
-5.25668
-5.3216
-5.38379
-5.44318
-5.49974
-5.55343
-5.60419
-5.652
-5.69682
-5.73863
-5.77741
-5.81313
-5.84581
-3.47946
-3.57449
-3.66861
-3.76144
-3.8529
-3.94292
-4.0314
-4.11824
-4.20334
-4.2866
-4.36792
-4.44721
-4.52438
-4.59935
-4.67202
-4.74233
-4.81019
-4.87555
-4.93833
-4.99849
-5.05597
-5.11073
-5.16271
-5.2119
-5.25824
-5.30172
-5.34231
-5.37998
-5.41474
-5.44658
-3.18608
-3.27768
-3.3684
-3.45791
-3.54611
-3.63294
-3.71829
-3.80208
-3.88419
-3.96453
-4.043
-4.11951
-4.19398
-4.26632
-4.33645
-4.40429
-4.46978
-4.53286
-4.59346
-4.65152
-4.70701
-4.75987
-4.81007
-4.85756
-4.90233
-4.94435
-4.98359
-5.02004
-5.05368
-5.08453
-2.9263
-3.01461
-3.10206
-3.18836
-3.2734
-3.35713
-3.43945
-3.52026
-3.59945
-3.67693
-3.7526
-3.82638
-3.89819
-3.96793
-4.03553
-4.10092
-4.16405
-4.22483
-4.28322
-4.33917
-4.39263
-4.44356
-4.49191
-4.53767
-4.5808
-4.62128
-4.65908
-4.6942
-4.72663
-4.75638
-2.69606
-2.78122
-2.86554
-2.94876
-3.03078
-3.11153
-3.19093
-3.26886
-3.34523
-3.41994
-3.4929
-3.56402
-3.63323
-3.70043
-3.76556
-3.82854
-3.88933
-3.94785
-4.00406
-4.0579
-4.10933
-4.15832
-4.20482
-4.24881
-4.29027
-4.32917
-4.3655
-4.39924
-4.43038
-4.45896
-2.49167
-2.57384
-2.65518
-2.73547
-2.8146
-2.89252
-2.96912
-3.0443
-3.11796
-3.19001
-3.26036
-3.32892
-3.39561
-3.46035
-3.52308
-3.58373
-3.64224
-3.69855
-3.75261
-3.80438
-3.85382
-3.90089
-3.94555
-3.98779
-4.02757
-4.06489
-4.09972
-4.13205
-4.16189
-4.18925
-2.30986
-2.38919
-2.4677
-2.5452
-2.6216
-2.69682
-2.77076
-2.84332
-2.9144
-2.98391
-3.05176
-3.11787
-3.18215
-3.24453
-3.30495
-3.36334
-3.41965
-3.47382
-3.52581
-3.57557
-3.62306
-3.66825
-3.71111
-3.75162
-3.78976
-3.82551
-3.85885
-3.88978
-3.9183
-3.94442
-2.14771
-2.22434
-2.30019
-2.37506
-2.44886
-2.52153
-2.59295
-2.66303
-2.73167
-2.79877
-2.86424
-2.92801
-2.98999
-3.05011
-3.10832
-3.16455
-3.21875
-3.27086
-3.32084
-3.36866
-3.41427
-3.45765
-3.49877
-3.5376
-3.57413
-3.60835
-3.64023
-3.66978
-3.697
-3.7219
-2.00268
-2.07675
-2.15007
-2.22246
-2.29382
-2.36408
-2.43313
-2.50087
-2.56719
-2.632
-2.69522
-2.75677
-2.81656
-2.87454
-2.93064
-2.98481
-3.03699
-3.08713
-3.1352
-3.18116
-3.22497
-3.26661
-3.30605
-3.34326
-3.37825
-3.41098
-3.44145
-3.46966
-3.4956
-3.51929
-1.87252
-1.94418
-2.01511
-2.08516
-2.15423
-2.22223
-2.28905
-2.35458
-2.41871
-2.48137
-2.54246
-2.6019
-2.65962
-2.71556
-2.76966
-2.82186
-2.87212
-2.9204
-2.96664
-3.01083
-3.05292
-3.0929
-3.13073
-3.1664
-3.19989
-3.2312
-3.26031
-3.28723
-3.31194
-3.33448
-1.75531
-1.82467
-1.89336
-1.96121
-2.02813
-2.09401
-2.15873
-2.22218
-2.28426
-2.34488
-2.40395
-2.4614
-2.51716
-2.57117
-2.62338
-2.67372
-2.72216
-2.76866
-2.81318
-2.85568
-2.89614
-2.93454
-2.97084
-3.00504
-3.03712
-3.06707
-3.09489
-3.12056
-3.1441
-3.16552
-1.64937
-1.71654
-1.78311
-1.84892
-1.91382
-1.97771
-2.04046
-2.10196
-2.1621
-2.2208
-2.27797
-2.33355
-2.38745
-2.43964
-2.49005
-2.53864
-2.58536
-2.63018
-2.67305
-2.71397
-2.75288
-2.78978
-2.82464
-2.85744
-2.88818
-2.91685
-2.94343
-2.96793
-2.99035
-3.01072
-1.55323
-1.61831
-1.68291
-1.74679
-1.80982
-1.87185
-1.93276
-1.99243
-2.05075
-2.10764
-2.16302
-2.21681
-2.26897
-2.31943
-2.36815
-2.41507
-2.46017
-2.5034
-2.54474
-2.58414
-2.6216
-2.65709
-2.69058
-2.72207
-2.75154
-2.77899
-2.80441
-2.82781
-2.84917
-2.86853
-1.46561
-1.52872
-1.59147
-1.65358
-1.71486
-1.77516
-1.83435
-1.8923
-1.9489
-2.00408
-2.05777
-2.10989
-2.16039
-2.20923
-2.25634
-2.3017
-2.34527
-2.387
-2.42688
-2.46487
-2.50095
-2.53511
-2.56732
-2.59757
-2.62585
-2.65216
-2.67649
-2.69883
-2.7192
-2.73762
-1.38539
-1.44663
-1.50771
-1.56818
-1.62784
-1.68654
-1.74411
-1.80044
-1.85543
-1.909
-1.96109
-2.01163
-2.06057
-2.10786
-2.15347
-2.19735
-2.23947
-2.2798
-2.31831
-2.35497
-2.38976
-2.42266
-2.45366
-2.48275
-2.50992
-2.53515
-2.55846
-2.57983
-2.59926
-2.61679
-1.31155
-1.37105
-1.43065
-1.48963
-1.54781
-1.60501
-1.66108
-1.71588
-1.76935
-1.8214
-1.87198
-1.92102
-1.96849
-2.01434
-2.05852
-2.10101
-2.14177
-2.18077
-2.21799
-2.2534
-2.28698
-2.31871
-2.34858
-2.37658
-2.4027
-2.42693
-2.44928
-2.46973
-2.48829
-2.50499
-1.24322
-1.30112
-1.35948
-1.41715
-1.47397
-1.52979
-1.58444
-1.63782
-1.68984
-1.74045
-1.7896
-1.83724
-1.88331
-1.92779
-1.97063
-2.01181
-2.05129
-2.08905
-2.12505
-2.15928
-2.19173
-2.22236
-2.25117
-2.27815
-2.30329
-2.32658
-2.34803
-2.36763
-2.38538
-2.40131
-1.17955
-1.23627
-1.29372
-1.35024
-1.40582
-1.46035
-1.51366
-1.56567
-1.61632
-1.66557
-1.71336
-1.75965
-1.8044
-1.84758
-1.88915
-1.92908
-1.96735
-2.00393
-2.03879
-2.07191
-2.10328
-2.13287
-2.16069
-2.18671
-2.21093
-2.23334
-2.25394
-2.27273
-2.28972
-2.30492
-1.11938
-1.17578
-1.23279
-1.2883
-1.34274
-1.39605
-1.44808
-1.49878
-1.54812
-1.59606
-1.64255
-1.68756
-1.73106
-1.773
-1.81337
-1.85213
-1.88925
-1.92472
-1.9585
-1.99057
-2.02093
-2.04955
-2.07643
-2.10155
-2.1249
-2.14649
-2.1663
-2.18434
-2.20061
-2.21513
-1.0595
-1.11662
-1.17408
-1.22882
-1.28228
-1.33451
-1.38539
-1.43492
-1.48308
-1.52984
-1.57517
-1.61904
-1.66142
-1.70227
-1.74158
-1.7793
-1.81542
-1.84991
-1.88275
-1.91392
-1.9434
-1.97118
-1.99725
-2.0216
-2.04421
-2.06509
-2.08423
-2.10163
-2.1173
-2.13125
-0.996609
-1.05569
-1.11487
-1.16948
-1.22233
-1.27376
-1.32374
-1.37234
-1.41956
-1.46538
-1.50978
-1.55273
-1.5942
-1.63417
-1.6726
-1.70947
-1.74477
-1.77846
-1.81053
-1.84096
-1.86973
-1.89683
-1.92225
-1.94597
-1.968
-1.98832
-2.00694
-2.02385
-2.03906
-2.05258
-0.950216
-1.01571
-1.07575
-1.12968
-1.18153
-1.23171
-1.28035
-1.32757
-1.37338
-1.41778
-1.46073
-1.50223
-1.54224
-1.58075
-1.61773
-1.65317
-1.68704
-1.71933
-1.75001
-1.77909
-1.80653
-1.83234
-1.8565
-1.87901
-1.89986
-1.91904
-1.93657
-1.95244
-1.96665
-1.97922
0.605917
0.593251
0.578773
0.562368
0.543676
0.522311
0.497849
0.469787
0.437525
0.400361
0.357461
0.307846
0.250361
0.18365
0.106117
0.0158927
-0.0892116
-0.211751
-0.354701
-0.521518
-0.716202
-0.943363
-1.20827
-1.51685
-1.87596
-2.29358
-2.77465
-3.31844
-3.98735
-4.89989
0.56152
0.547611
0.532396
0.515138
0.495489
0.473123
0.447613
0.418448
0.385023
0.346629
0.302428
0.25143
0.192474
0.12419
0.0449737
-0.04706
-0.154114
-0.278761
-0.423993
-0.593281
-0.790643
-1.0207
-1.28871
-1.6006
-1.96317
-2.38434
-2.86892
-3.41582
-4.08641
-4.99709
0.516117
0.500916
0.484934
0.466791
0.446151
0.422744
0.396148
0.365839
0.331208
0.291539
0.245987
0.193555
0.133073
0.0631599
-0.0178017
-0.111709
-0.220781
-0.347606
-0.495192
-0.667028
-0.86714
-1.10016
-1.37135
-1.68659
-2.05265
-2.47732
-2.96522
-3.51489
-4.1865
-5.09463
0.46976
0.453217
0.436443
0.417385
0.395719
0.371238
0.343518
0.312027
0.27615
0.235164
0.188218
0.134307
0.0722505
0.000658544
-0.0820994
-0.177934
-0.289079
-0.418137
-0.568135
-0.742574
-0.945495
-1.18153
-1.45593
-1.77457
-2.14412
-2.57228
-3.06347
-3.61597
-4.28924
-5.19685
0.422483
0.404555
0.386961
0.366957
0.344231
0.318638
0.289758
0.257048
0.219884
0.177539
0.129156
0.0737209
0.0100434
-0.0632765
-0.147882
-0.245696
-0.358967
-0.490315
-0.642778
-0.819875
-1.02566
-1.26476
-1.54242
-1.86448
-2.23757
-2.66925
-3.16378
-3.71921
-4.39459
-5.30279
0.374326
0.354968
0.336528
0.315547
0.291726
0.264987
0.23491
0.20094
0.16245
0.118706
0.0688415
0.0118367
-0.0535089
-0.128606
-0.215109
-0.314956
-0.430409
-0.5641
-0.719086
-0.898896
-1.10759
-1.34982
-1.63079
-1.95633
-2.33299
-2.76824
-3.26617
-3.82462
-4.50231
-5.4116
0.325328
0.304501
0.285192
0.263203
0.238253
0.210332
0.179022
0.143756
0.103901
0.0587152
0.00732713
-0.0512921
-0.118352
-0.195275
-0.283726
-0.385658
-0.503345
-0.639435
-0.796995
-0.979576
-1.19124
-1.43665
-1.72099
-2.05005
-2.43034
-2.86921
-3.37062
-3.93216
-4.61229
-5.52299
0.275531
0.253201
0.232999
0.209972
0.18386
0.154723
0.122145
0.085547
0.0442876
-0.00237856
-0.0553315
-0.115608
-0.184428
-0.263223
-0.353672
-0.457738
-0.57771
-0.716249
-0.876442
-1.06184
-1.27654
-1.52518
-1.81295
-2.14559
-2.52955
-2.9721
-3.47704
-4.04176
-4.72444
-5.63674
0.224978
0.201112
0.179996
0.155902
0.128595
0.0982102
0.0643294
0.0263638
-0.0163358
-0.0645209
-0.119079
-0.181055
-0.251678
-0.332392
-0.424885
-0.531135
-0.653445
-0.794488
-0.957365
-1.14565
-1.36344
-1.61536
-1.9066
-2.24286
-2.63055
-3.07683
-3.58535
-4.15332
-4.83865
-5.75266
0.173708
0.148279
0.126229
0.101038
0.0725065
0.0408414
0.00562594
-0.0337411
-0.0779161
-0.127657
-0.183858
-0.247573
-0.320042
-0.402717
-0.497301
-0.605784
-0.730481
-0.874084
-1.0397
-1.23092
-1.45184
-1.7071
-2.00185
-2.34179
-2.73325
-3.18331
-3.69547
-4.26674
-4.95477
-5.87056
0.12176
0.0947458
0.0717435
0.0454292
0.0156419
-0.0173333
-0.0539142
-0.0947147
-0.140398
-0.191729
-0.24961
-0.315102
-0.389456
-0.474134
-0.570852
-0.68161
-0.808739
-0.954941
-1.12335
-1.31755
-1.54166
-1.80029
-2.09861
-2.44227
-2.83756
-3.29144
-3.80729
-4.3819
-5.07266
-5.99029
0.0691733
0.0405555
0.0165855
-0.0108791
-0.0419501
-0.0762636
-0.114239
-0.156503
-0.203727
-0.256681
-0.316275
-0.38358
-0.459855
-0.546575
-0.645466
-0.758541
-0.88814
-1.03698
-1.20822
-1.40545
-1.63279
-1.89485
-2.19679
-2.54423
-2.94338
-3.40112
-3.92069
-4.49867
-5.1922
-6.11169
0.0159836
-0.0142501
-0.0392008
-0.0678402
-0.100221
-0.135899
-0.175296
-0.219051
-0.267844
-0.322451
-0.38379
-0.452942
-0.531174
-0.619972
-0.721074
-0.836504
-0.968616
-1.12015
-1.29425
-1.49457
-1.72518
-1.99072
-2.29632
-2.64756
-3.05061
-3.51225
-4.03556
-4.61693
-5.31324
-6.23463
-0.0377752
-0.0696315
-0.0955724
-0.125409
-0.159124
-0.196189
-0.237031
-0.282303
-0.332691
-0.388978
-0.452091
-0.523119
-0.60334
-0.694251
-0.7976
-0.915424
-1.0501
-1.20435
-1.38139
-1.58482
-1.81875
-2.0878
-2.39709
-2.75217
-3.15915
-3.62471
-4.15178
-4.73656
-5.43567
-6.35895
-0.0920733
-0.125552
-0.152489
-0.183542
-0.218611
-0.257084
-0.299391
-0.3462
-0.398206
-0.456198
-0.521111
-0.594043
-0.676283
-0.769338
-0.874968
-0.995222
-1.13248
-1.28952
-1.46952
-1.6761
-1.91339
-2.18597
-2.49899
-2.85795
-3.26888
-3.73838
-4.26923
-4.85743
-5.55933
-6.48453
-0.146884
-0.181977
-0.209911
-0.242197
-0.278636
-0.318532
-0.36232
-0.410684
-0.464326
-0.524043
-0.590778
-0.66564
-0.749925
-0.845152
-0.953092
-1.07581
-1.2157
-1.37554
-1.55853
-1.76831
-2.00896
-2.28513
-2.60192
-2.96478
-3.37969
-3.85314
-4.38778
-4.97939
-5.68409
-6.61122
-0.202187
-0.238876
-0.267802
-0.30133
-0.339152
-0.380481
-0.425761
-0.475693
-0.530986
-0.592445
-0.66102
-0.73783
-0.824181
-0.921601
-1.03187
-1.15707
-1.29962
-1.46231
-1.64833
-1.86131
-2.10539
-2.38518
-2.70576
-3.07256
-3.49146
-3.96887
-4.5073
-5.10232
-5.80981
-6.73887
-0.257963
-0.296219
-0.326124
-0.3609
-0.400109
-0.442876
-0.489655
-0.541162
-0.598116
-0.661329
-0.731759
-0.810534
-0.89897
-0.998603
-1.11123
-1.23894
-1.38418
-1.54974
-1.73881
-1.95505
-2.20257
-2.48601
-2.81041
-3.18115
-3.60406
-4.08544
-4.62766
-5.22608
-5.93635
-6.86734
-0.3142
-0.353979
-0.384841
-0.420861
-0.461455
-0.505658
-0.553935
-0.607021
-0.665642
-0.730616
-0.802913
-0.883667
-0.974206
-1.07607
-1.19109
-1.32134
-1.4693
-1.63775
-1.82991
-2.04941
-2.30041
-2.58752
-2.91575
-3.29044
-3.71736
-4.20272