/*--------------------------------*- C++ -*----------------------------------*\
  =========                 |
  \\      /  F ield         | OpenFOAM: The Open Source CFD Toolbox
   \\    /   O peration     | Website:  https://openfoam.org
    \\  /    A nd           | Version:  6.0
     \\/     M anipulation  |
\*---------------------------------------------------------------------------*/
FoamFile
{
    version     2.0;
    format      ascii;
    class       volScalarField;
    location    "17.255";
    object      p;
}
// * * * * * * * * * * * * * * * * * * * * * * * * * * * * * * * * * * * * * //

dimensions      [0 2 -2 0 0 0 0];

internalField   nonuniform List<scalar> 
2400
(
-0.398883
-0.385729
-0.377463
-0.370791
-0.364224
-0.357764
-0.351485
-0.345354
-0.33945
-0.334857
-0.411936
-0.397953
-0.388741
-0.38095
-0.373161
-0.365468
-0.358009
-0.350756
-0.343789
-0.338634
-0.428994
-0.413561
-0.402913
-0.39359
-0.384201
-0.374927
-0.365962
-0.357267
-0.348919
-0.343108
-0.450325
-0.432809
-0.420213
-0.408924
-0.397537
-0.386312
-0.375491
-0.364997
-0.354895
-0.348283
-0.476239
-0.455944
-0.440853
-0.427148
-0.41336
-0.399811
-0.386767
-0.37408
-0.361778
-0.354135
-0.507015
-0.48318
-0.465027
-0.448461
-0.431888
-0.415659
-0.400035
-0.384735
-0.369696
-0.36064
-0.54287
-0.514684
-0.492902
-0.473063
-0.453364
-0.434158
-0.415659
-0.397378
-0.379003
-0.367891
-0.583906
-0.550537
-0.524589
-0.501114
-0.478005
-0.455573
-0.433946
-0.412309
-0.389744
-0.375315
-0.630035
-0.59069
-0.560128
-0.532765
-0.50607
-0.480229
-0.45512
-0.429217
-0.400247
-0.379333
-0.6807
-0.634849
-0.599442
-0.568204
-0.538199
-0.509555
-0.481857
-0.452731
-0.418252
-0.388962
-1.149
-1.13254
-1.10355
-1.06441
-1.01733
-0.96451
-0.908045
-0.849811
-0.79145
-0.734503
-1.05248
-1.03774
-1.01164
-0.976323
-0.933906
-0.886466
-0.835951
-0.784112
-0.732467
-0.68233
-0.969742
-0.958752
-0.936866
-0.906077
-0.868417
-0.825898
-0.780415
-0.733676
-0.687157
-0.64208
-0.892055
-0.885958
-0.869223
-0.843636
-0.811095
-0.77352
-0.732755
-0.690485
-0.648199
-0.607115
-0.816169
-0.815215
-0.803978
-0.783982
-0.756916
-0.724533
-0.688555
-0.65059
-0.612121
-0.574365
-0.744323
-0.748156
-0.742236
-0.727809
-0.706309
-0.679257
-0.648158
-0.614431
-0.579457
-0.544369
-0.677964
-0.68588
-0.684733
-0.675524
-0.659436
-0.637731
-0.611624
-0.58219
-0.550524
-0.517477
-0.617528
-0.628759
-0.631713
-0.627215
-0.616256
-0.59988
-0.579002
-0.554203
-0.525892
-0.493867
-0.562834
-0.576744
-0.583225
-0.583014
-0.57702
-0.566194
-0.551293
-0.532437
-0.508817
-0.476721
-0.513853
-0.529084
-0.537856
-0.540881
-0.539086
-0.53352
-0.525148
-0.514366
-0.500371
-0.476538
-0.435535
-0.569973
-0.694882
-0.808031
-0.907158
-0.990466
-1.05674
-1.10537
-1.13634
-1.15035
-0.386556
-0.511826
-0.628418
-0.734036
-0.826553
-0.904295
-0.966137
-1.01153
-1.04052
-1.05373
-0.320666
-0.438589
-0.549175
-0.650099
-0.739268
-0.815001
-0.876115
-0.921961
-0.95244
-0.968006
-0.252172
-0.362674
-0.467339
-0.563871
-0.650212
-0.724679
-0.786019
-0.83345
-0.866688
-0.885953
-0.189586
-0.29222
-0.390436
-0.481969
-0.564824
-0.63738
-0.698376
-0.746953
-0.782683
-0.805576
-0.136185
-0.231094
-0.322803
-0.409002
-0.487812
-0.55774
-0.617586
-0.666479
-0.703915
-0.72976
-0.0920015
-0.179774
-0.265384
-0.346283
-0.420788
-0.487606
-0.545636
-0.594048
-0.632322
-0.660243
-0.0553299
-0.136233
-0.21639
-0.292387
-0.362733
-0.42636
-0.482278
-0.529719
-0.568186
-0.597435
-0.0250115
-0.0988651
-0.174138
-0.245758
-0.31229
-0.37285
-0.426562
-0.472751
-0.510972
-0.540993
-0.00830401
-0.0774635
-0.147958
-0.214384
-0.276023
-0.332285
-0.382418
-0.425896
-0.462382
-0.491696
0.534349
0.55539
0.577863
0.600911
0.624053
0.646628
0.667666
0.686574
0.708725
0.747841
0.50786
0.526157
0.546154
0.566312
0.585955
0.604357
0.620466
0.63372
0.649834
0.683716
0.473886
0.488468
0.505173
0.521522
0.536595
0.549622
0.55952
0.565859
0.574774
0.602224
0.43273
0.442736
0.455416
0.467112
0.476628
0.483184
0.485716
0.48402
0.4847
0.504592
0.384784
0.389509
0.397553
0.403854
0.406949
0.406087
0.400271
0.389618
0.381232
0.392617
0.33052
0.329464
0.33242
0.332721
0.32869
0.31965
0.304726
0.284441
0.266399
0.268521
0.270498
0.263405
0.261021
0.254886
0.243206
0.225452
0.200918
0.170604
0.142584
0.13489
0.205451
0.192342
0.184587
0.171735
0.152077
0.125311
0.0909427
0.0505056
0.012466
-0.00537319
0.136183
0.117803
0.104852
0.0850117
0.0571527
0.0212842
-0.0228738
-0.0732296
-0.121047
-0.149132
0.061175
0.0404093
0.0227381
-0.00405825
-0.0398544
-0.0845271
-0.138101
-0.197856
-0.254976
-0.293324
0.386554
0.389915
0.400341
0.408556
0.414972
0.421322
0.429213
0.441029
0.459652
0.482157
0.435287
0.439937
0.451605
0.462903
0.473218
0.483736
0.495717
0.511223
0.533757
0.56262
0.474449
0.482838
0.49704
0.511794
0.526165
0.540893
0.556936
0.576016
0.602107
0.636607
0.506777
0.519228
0.536296
0.554345
0.572491
0.591157
0.610985
0.633315
0.662439
0.701693
0.532519
0.548666
0.568438
0.589425
0.610885
0.632998
0.656094
0.681117
0.712566
0.755573
0.551397
0.570637
0.59269
0.616074
0.640206
0.665063
0.690681
0.717616
0.750499
0.796141
0.563139
0.584697
0.608427
0.633507
0.659496
0.686199
0.713384
0.741244
0.774512
0.821566
0.567476
0.590445
0.615123
0.641083
0.66798
0.695475
0.723093
0.75072
0.783192
0.830366
0.56419
0.587572
0.612384
0.638326
0.665085
0.692198
0.718984
0.74509
0.775488
0.821452
0.553153
0.575896
0.599978
0.624955
0.650469
0.675951
0.700553
0.723763
0.750743
0.794104
0.341381
0.296452
0.245175
0.193352
0.142006
0.0918968
0.0438549
-0.00159744
-0.0441376
-0.0835625
0.345912
0.298163
0.245083
0.190462
0.136317
0.0837033
0.0334603
-0.0137794
-0.0575833
-0.0976881
0.349449
0.295987
0.23932
0.181889
0.12541
0.0709371
0.0193492
-0.0286622
-0.0726299
-0.112292
0.352061
0.293553
0.233251
0.17291
0.114051
0.0577936
0.00505777
-0.0434576
-0.087306
-0.126281
0.35383
0.290913
0.227061
0.163825
0.102683
0.0448166
-0.00884224
-0.0576273
-0.101155
-0.139318
0.355723
0.288626
0.221302
0.155293
0.092067
0.0328135
-0.0215676
-0.0704819
-0.113645
-0.151073
0.359402
0.288428
0.217833
0.149214
0.0840269
0.0234321
-0.0317354
-0.080975
-0.124111
-0.161282
0.367421
0.292919
0.219207
0.147939
0.0805694
0.0182224
-0.0383264
-0.0886497
-0.132646
-0.170531
0.381877
0.303178
0.225378
0.150214
0.0791746
0.0134119
-0.0462808
-0.0994634
-0.146026
-0.186178
0.397765
0.311932
0.22693
0.144657
0.0667277
-0.00555319
-0.0712362
-0.12975
-0.1809
-0.224818
-0.119835
-0.153013
-0.183334
-0.211141
-0.236826
-0.260795
-0.283348
-0.304492
-0.324733
-0.334861
-0.134043
-0.166678
-0.195836
-0.221856
-0.245117
-0.265979
-0.28464
-0.300927
-0.314493
-0.318641
-0.147644
-0.178744
-0.205917
-0.229583
-0.250207
-0.268239
-0.28399
-0.297533
-0.308827
-0.314567
-0.160478
-0.19003
-0.21539
-0.237092
-0.255712
-0.271809
-0.285826
-0.298026
-0.308456
-0.315262
-0.172346
-0.200466
-0.224271
-0.244411
-0.261555
-0.276338
-0.28928
-0.300707
-0.310625
-0.317885
-0.183149
-0.210177
-0.232879
-0.251985
-0.268213
-0.282223
-0.29454
-0.305476
-0.315004
-0.322424
-0.193003
-0.219613
-0.241918
-0.260679
-0.276609
-0.290344
-0.302366
-0.312943
-0.322041
-0.329258
-0.202896
-0.230058
-0.252851
-0.272021
-0.288243
-0.3021
-0.314021
-0.324233
-0.332732
-0.339325
-0.220471
-0.249244
-0.273304
-0.293375
-0.31012
-0.324091
-0.335688
-0.345128
-0.352466
-0.357653
-0.261791
-0.292561
-0.317797
-0.338296
-0.354812
-0.367954
-0.378137
-0.385596
-0.390458
-0.392735
-0.392226
-0.360777
-0.344021
-0.334391
-0.327154
-0.321037
-0.314903
-0.306225
-0.291158
-0.277814
-0.390522
-0.362344
-0.347175
-0.338207
-0.33117
-0.324943
-0.318699
-0.310748
-0.298967
-0.291337
-0.387877
-0.362827
-0.349249
-0.341077
-0.334545
-0.328733
-0.323061
-0.316505
-0.308243
-0.304441
-0.384829
-0.362686
-0.350626
-0.343257
-0.337273
-0.331921
-0.326761
-0.321107
-0.314633
-0.311935
-0.381974
-0.362422
-0.351738
-0.345107
-0.339641
-0.334726
-0.330039
-0.325111
-0.319794
-0.317328
-0.37987
-0.362537
-0.353026
-0.347003
-0.341936
-0.337337
-0.332966
-0.328501
-0.323876
-0.321301
-0.379065
-0.363528
-0.354935
-0.349328
-0.344477
-0.340001
-0.335729
-0.33144
-0.327118
-0.324262
-0.380103
-0.365892
-0.357911
-0.352482
-0.34762
-0.343042
-0.338638
-0.334261
-0.329934
-0.326711
-0.383522
-0.370103
-0.362387
-0.35686
-0.351728
-0.346801
-0.342029
-0.337318
-0.332721
-0.329082
-0.389739
-0.376587
-0.36877
-0.362841
-0.357153
-0.351608
-0.346219
-0.340929
-0.335808
-0.331716
-0.326158
-0.272562
-0.240191
-0.197004
-0.163751
-0.133462
-0.109817
-0.0907006
-0.0757147
-0.0634058
-0.052702
-0.0431309
-0.0344089
-0.027645
-0.0227956
-0.0189123
-0.0155524
-0.0111527
-0.00850116
0.000235189
-0.331536
-0.273729
-0.240987
-0.197283
-0.163853
-0.133703
-0.110343
-0.0915908
-0.0768861
-0.0646387
-0.053707
-0.0436173
-0.0342144
-0.0268553
-0.0218238
-0.0184099
-0.015687
-0.0118179
-0.00909696
1.07409e-05
-0.338912
-0.275692
-0.242502
-0.198245
-0.164502
-0.134397
-0.111191
-0.0926865
-0.0781637
-0.0659147
-0.0547325
-0.0441432
-0.0340958
-0.0261642
-0.0209412
-0.0179627
-0.0158417
-0.0124613
-0.00966407
-0.000217568
-0.348144
-0.278495
-0.244688
-0.199893
-0.16571
-0.13555
-0.112358
-0.0939773
-0.0795333
-0.0672215
-0.0557731
-0.0447113
-0.0340652
-0.0255901
-0.0201653
-0.0175781
-0.0160141
-0.0130759
-0.0101965
-0.000448052
-0.358976
-0.282201
-0.247477
-0.202205
-0.16747
-0.137153
-0.113837
-0.0954523
-0.0809844
-0.0685522
-0.0568276
-0.045326
-0.0341313
-0.025145
-0.0195071
-0.0172594
-0.0162011
-0.0136573
-0.0106914
-0.000679548
-0.371002
-0.286887
-0.250782
-0.205121
-0.169743
-0.139177
-0.115606
-0.097094
-0.082505
-0.0699007
-0.0578949
-0.0459893
-0.0342991
-0.0248364
-0.0189738
-0.0170081
-0.016399
-0.0142012
-0.0111455
-0.000910611
-0.383806
-0.29286
-0.254664
-0.208649
-0.17254
-0.14162
-0.117664
-0.0988991
-0.0840934
-0.0712689
-0.0589817
-0.0467109
-0.0345802
-0.0246765
-0.0185747
-0.0168251
-0.0166028
-0.0147026
-0.0115564
-0.00114006
-0.397132
-0.301069
-0.259699
-0.213146
-0.176125
-0.14467
-0.120142
-0.100953
-0.0858072
-0.0727005
-0.0601272
-0.0475296
-0.0350129
-0.0246998
-0.0183341
-0.0167163
-0.0168061
-0.0151543
-0.0119207
-0.00136693
-0.408452
-0.311671
-0.266224
-0.218842
-0.180669
-0.148468
-0.12316
-0.103361
-0.0877323
-0.0742611
-0.0613747
-0.0484639
-0.0355947
-0.0248921
-0.01824
-0.0166782
-0.017012
-0.0155632
-0.0122434
-0.00159091
-0.406504
-0.318523
-0.270802
-0.223122
-0.184184
-0.151578
-0.125766
-0.10554
-0.0895299
-0.0757238
-0.0625095
-0.0492506
-0.0360084
-0.0249325
-0.0180531
-0.0166308
-0.0172511
-0.0159963
-0.0125599
-0.00181081
-0.380534
-0.316146
-0.270336
-0.22367
-0.184864
-0.152679
-0.127091
-0.107036
-0.0910663
-0.0771335
-0.0636019
-0.0498563
-0.0360268
-0.0244083
-0.0173173
-0.0163856
-0.0176358
-0.0167193
-0.0130457
-0.00211367
-0.363709
-0.310656
-0.265987
-0.221975
-0.1848
-0.15388
-0.128842
-0.108891
-0.0927211
-0.0784614
-0.0645857
-0.0505393
-0.0364954
-0.0246882
-0.0174904
-0.0166937
-0.0181333
-0.0172851
-0.0133205
-0.00247338
-0.3443
-0.29913
-0.256712
-0.217122
-0.1831
-0.154213
-0.130159
-0.110485
-0.0941596
-0.0795953
-0.0654518
-0.0512623
-0.0372361
-0.0254534
-0.0182116
-0.0173215
-0.0186555
-0.0176839
-0.013391
-0.00284485
-0.314618
-0.280474
-0.24323
-0.209459
-0.179839
-0.153718
-0.131085
-0.111913
-0.0955461
-0.0807526
-0.0664292
-0.0522132
-0.0383478
-0.026698
-0.0194008
-0.018195
-0.0191708
-0.0179259
-0.0132577
-0.00322058
-0.275936
-0.255159
-0.226207
-0.199109
-0.174675
-0.152045
-0.131372
-0.113034
-0.0968275
-0.0819436
-0.0675699
-0.0534662
-0.0399095
-0.0284942
-0.0211044
-0.0193077
-0.0196177
-0.0179491
-0.0128856
-0.00356872
-0.234628
-0.225854
-0.206717
-0.186685
-0.167622
-0.148925
-0.130729
-0.113646
-0.0978983
-0.0831336
-0.0688736
-0.0550212
-0.0418907
-0.0307806
-0.0232438
-0.0205955
-0.0199395
-0.0177275
-0.0122934
-0.00385046
-0.196737
-0.196335
-0.186384
-0.173268
-0.159307
-0.144526
-0.129088
-0.113633
-0.0986712
-0.0842655
-0.0702816
-0.0567817
-0.0441225
-0.0333291
-0.0255919
-0.0219432
-0.0201311
-0.0173178
-0.0115777
-0.00403347
-0.16566
-0.170113
-0.167258
-0.160194
-0.150753
-0.139478
-0.126709
-0.113042
-0.0990995
-0.0852447
-0.0716491
-0.0585393
-0.0463148
-0.0357907
-0.0278282
-0.0232124
-0.0202475
-0.0168534
-0.0108915
-0.00410839
-0.143118
-0.149952
-0.151695
-0.149152
-0.143275
-0.134773
-0.124198
-0.112138
-0.0992234
-0.0859739
-0.0727826
-0.0600219
-0.0481281
-0.0377867
-0.029617
-0.0242438
-0.0203488
-0.0164805
-0.0103846
-0.00410025
-0.130474
-0.138236
-0.14228
-0.142269
-0.138517
-0.13168
-0.122437
-0.111406
-0.0991968
-0.0863863
-0.0734803
-0.0609435
-0.0492354
-0.0389799
-0.0306689
-0.0248571
-0.0204275
-0.0162738
-0.0101335
-0.00406275
-0.444521
-0.457165
-0.464465
-0.466943
-0.465462
-0.461321
-0.456393
-0.45329
-0.457068
-0.47958
-0.365227
-0.378618
-0.389043
-0.397009
-0.403205
-0.408468
-0.413693
-0.419598
-0.426325
-0.439341
-0.300327
-0.313337
-0.324799
-0.334902
-0.343797
-0.351565
-0.358235
-0.363946
-0.368745
-0.378323
-0.245253
-0.256794
-0.267275
-0.27674
-0.285245
-0.292886
-0.299838
-0.306412
-0.312659
-0.321044
-0.199403
-0.209403
-0.218717
-0.227382
-0.235447
-0.242969
-0.250001
-0.256593
-0.262673
-0.268969
-0.162228
-0.170799
-0.178893
-0.186516
-0.193677
-0.200385
-0.206648
-0.212489
-0.217919
-0.223042
-0.132812
-0.140092
-0.147013
-0.153569
-0.159758
-0.165582
-0.171046
-0.176157
-0.180918
-0.185284
-0.110602
-0.116836
-0.122784
-0.128435
-0.133782
-0.138821
-0.14355
-0.147969
-0.152078
-0.15585
-0.0951694
-0.100629
-0.105849
-0.110817
-0.115524
-0.119962
-0.124129
-0.128023
-0.131642
-0.134984
-0.0867949
-0.0917657
-0.0965243
-0.101061
-0.105369
-0.109443
-0.113281
-0.116879
-0.120239
-0.123363
-0.0201575
-0.0842271
-0.146896
-0.201567
-0.251358
-0.29687
-0.337427
-0.372621
-0.402272
-0.426255
-0.0378882
-0.0874532
-0.134989
-0.17546
-0.212077
-0.246128
-0.27709
-0.304517
-0.328319
-0.348528
-0.0489316
-0.0885307
-0.123615
-0.153383
-0.180448
-0.205765
-0.229064
-0.250091
-0.268877
-0.285569
-0.0538916
-0.084599
-0.109431
-0.1306
-0.150497
-0.169492
-0.187277
-0.20369
-0.218768
-0.232598
-0.0533207
-0.0760626
-0.0935726
-0.10878
-0.123631
-0.138163
-0.152007
-0.165023
-0.177236
-0.188688
-0.0486149
-0.0650115
-0.0777759
-0.0892501
-0.10072
-0.112117
-0.123128
-0.133635
-0.143646
-0.153177
-0.0423462
-0.054248
-0.0640078
-0.0731043
-0.0822597
-0.0913996
-0.100317
-0.108926
-0.117215
-0.125182
-0.0363437
-0.045289
-0.0531289
-0.0606472
-0.0682025
-0.0757421
-0.0831454
-0.0903523
-0.0973418
-0.104098
-0.0315987
-0.0387602
-0.0454283
-0.0519356
-0.0584408
-0.0649148
-0.0712908
-0.0775269
-0.0835989
-0.0894865
-0.0288047
-0.0351699
-0.0413261
-0.0473597
-0.053338
-0.0592506
-0.0650612
-0.0707403
-0.076267
-0.0816239
0.21148
0.21245
0.214877
0.218193
0.222718
0.226092
0.228664
0.218994
0.195433
0.0909077
0.203207
0.20373
0.205103
0.206686
0.208385
0.207703
0.203832
0.185873
0.149289
0.0510818
0.193336
0.193392
0.193628
0.193352
0.192149
0.187566
0.178117
0.154956
0.113567
0.0321955
0.181741
0.181284
0.180303
0.178103
0.174014
0.165908
0.151871
0.12609
0.0836357
0.0155816
0.168476
0.167501
0.165329
0.161314
0.154653
0.143735
0.126536
0.0999363
0.058947
0.00161496
0.153851
0.152407
0.149191
0.143653
0.135008
0.122188
0.103414
0.0773593
0.0400713
-0.00735468
0.138549
0.13673
0.132725
0.126097
0.116209
0.102443
0.08353
0.0591072
0.0267719
-0.0117603
0.123728
0.121663
0.117183
0.109955
0.099554
0.0856818
0.067632
0.0454539
0.0180344
-0.0132547
0.11112
0.108939
0.10427
0.0968635
0.0864847
0.0730356
0.056232
0.0362541
0.0127575
-0.0133172
0.103154
0.100941
0.0962508
0.0888808
0.0787081
0.0657327
0.049888
0.0313785
0.0101972
-0.0129757
0.24693
0.249012
0.25462
0.263357
0.277021
0.295171
0.322315
0.357326
0.409927
0.47733
0.244433
0.246443
0.251862
0.260276
0.27345
0.290797
0.316733
0.349665
0.398672
0.460032
0.241704
0.243637
0.248848
0.256901
0.269516
0.285923
0.310438
0.340756
0.385292
0.438463
0.238756
0.240609
0.245594
0.253251
0.265244
0.280584
0.303475
0.330654
0.36993
0.412733
0.235601
0.237375
0.242118
0.24935
0.260659
0.274815
0.29589
0.319421
0.352753
0.382942
0.232255
0.23395
0.23844
0.245221
0.255787
0.268655
0.287727
0.307134
0.33394
0.34916
0.228736
0.230358
0.234588
0.240901
0.250675
0.262179
0.279066
0.293933
0.31372
0.311472
0.225061
0.226627
0.230607
0.23646
0.245425
0.255538
0.270103
0.2801
0.292407
0.269881
0.221246
0.222768
0.226503
0.2319
0.24003
0.248728
0.260805
0.265633
0.269796
0.223274
0.217277
0.218685
0.22205
0.226814
0.233812
0.240751
0.249679
0.24889
0.243473
0.16995
0.25818
0.260624
0.266731
0.276401
0.290925
0.309795
0.336161
0.364724
0.40247
0.412321
0.258153
0.260608
0.266834
0.276669
0.291578
0.311086
0.338936
0.370404
0.414168
0.440455
0.257892
0.260322
0.266557
0.276383
0.29137
0.311068
0.339585
0.372945
0.420748
0.460625
0.257399
0.259804
0.266037
0.275847
0.290888
0.310761
0.339835
0.374897
0.426178
0.476968
0.256665
0.259043
0.265263
0.275042
0.290109
0.310115
0.339616
0.376107
0.430238
0.489646
0.25568
0.258027
0.264211
0.273924
0.288947
0.308979
0.338683
0.376174
0.432352
0.498273
0.254441
0.25675
0.26287
0.272474
0.287376
0.307307
0.336974
0.374987
0.432345
0.502729
0.252945
0.255208
0.261238
0.270691
0.285396
0.305093
0.334484
0.372526
0.430149
0.502934
0.251193
0.253402
0.259317
0.268575
0.283006
0.302331
0.331209
0.368768
0.425698
0.498799
0.249186
0.251335
0.257108
0.266127
0.280212
0.299022
0.327148
0.3637
0.418954
0.490267
0.212299
0.210876
0.207845
0.20302
0.196187
0.187126
0.175532
0.161223
0.143867
0.123615
0.217312
0.216083
0.213432
0.209129
0.202873
0.194326
0.183017
0.168603
0.150482
0.128714
0.224814
0.223934
0.221991
0.218699
0.21364
0.206273
0.195852
0.181673
0.162639
0.138508
0.232925
0.232519
0.231576
0.229767
0.226587
0.22124
0.212683
0.199577
0.18016
0.153345
0.240429
0.240576
0.240839
0.240883
0.240195
0.23773
0.232258
0.221483
0.202984
0.173722
0.246675
0.247391
0.248946
0.251039
0.253263
0.25439
0.253234
0.246292
0.230789
0.200001
0.251434
0.252684
0.255499
0.259646
0.264941
0.270097
0.274269
0.272658
0.262691
0.231924
0.254749
0.256461
0.260416
0.266465
0.274731
0.284034
0.294153
0.299231
0.297238
0.267808
0.256815
0.258893
0.26381
0.27149
0.282405
0.295626
0.311772
0.324663
0.332981
0.305914
0.257887
0.260215
0.265873
0.274804
0.28788
0.304448
0.32626
0.347601
0.369955
0.352736
0.108985
0.102825
0.0965113
0.0901502
0.083725
0.0772259
0.0706695
0.0640811
0.0574847
0.0509018
0.112511
0.105641
0.0985924
0.0915567
0.08446
0.0772552
0.0699592
0.0626092
0.0552385
0.047875
0.119622
0.111234
0.102538
0.094058
0.0856236
0.0770814
0.0684294
0.0597217
0.0510041
0.0423073
0.130912
0.120178
0.10882
0.0980803
0.0876317
0.0771054
0.0664518
0.055753
0.0450742
0.0344459
0.147181
0.133204
0.117957
0.104001
0.0907798
0.0775483
0.0641703
0.0507769
0.0374633
0.0242535
0.169356
0.151203
0.130585
0.112267
0.0953979
0.0786292
0.0617035
0.0448381
0.0281682
0.0116986
0.198352
0.175225
0.147551
0.12355
0.101972
0.0806209
0.0591459
0.037913
0.0170889
-0.00336286
0.234185
0.205425
0.16909
0.138208
0.110717
0.083492
0.0563272
0.0297801
0.00399663
-0.0211211
0.276733
0.241318
0.195659
0.157253
0.122354
0.0876642
0.0535214
0.0205951
-0.0109737
-0.0412053
0.324444
0.280486
0.226886
0.179687
0.134784
0.0907297
0.0483589
0.00819331
-0.0295621
-0.0647328
0.0443525
0.0378563
0.0314314
0.0250947
0.0188617
0.0127465
0.0067611
0.000917212
-0.00477478
-0.0103057
0.0405446
0.0332728
0.0260843
0.019002
0.0120469
0.00523823
-0.00140777
-0.00787627
-0.0141542
-0.0202078
0.0336573
0.0250796
0.0165996
0.0082409
2.44924e-05
-0.00803066
-0.0159083
-0.0235941
-0.0310772
-0.038271
0.0238878
0.0134206
0.0030661
-0.00715562
-0.0172277
-0.0271361
-0.036869
-0.0464166
-0.0557783
-0.0648224
0.0111514
-0.00183472
-0.0146924
-0.0274103
-0.03998
-0.0523965
-0.0646594
-0.0767742
-0.0887748
-0.100703
-0.00459492
-0.0207251
-0.0367003
-0.0525356
-0.0682549
-0.0838852
-0.0994519
-0.114964
-0.130483
-0.146708
-0.0235002
-0.0433527
-0.0629405
-0.0822919
-0.101458
-0.120526
-0.139625
-0.158876
-0.178652
-0.200576
-0.0456777
-0.0697539
-0.0934247
-0.116749
-0.139759
-0.162469
-0.184921
-0.207212
-0.230613
-0.257325
-0.0701331
-0.0978421
-0.12452
-0.15045
-0.175989
-0.201524
-0.227406
-0.253969
-0.283434
-0.314929
-0.0971972
-0.126936
-0.15413
-0.179193
-0.202803
-0.225912
-0.249629
-0.27545
-0.309024
-0.352371
-0.0234188
-0.0420811
-0.0582137
-0.0706986
-0.0788263
-0.0824621
-0.0819578
-0.0781288
-0.0719901
-0.0647872
-0.0574787
-0.0509551
-0.0451049
-0.0394713
-0.0326433
-0.0241056
-0.014635
-0.00624321
-0.00156852
-8.659e-05
-0.0349123
-0.0543348
-0.069843
-0.0808613
-0.087074
-0.0885959
-0.0860063
-0.080336
-0.0727546
-0.0646154
-0.0568936
-0.0504614
-0.045019
-0.0398236
-0.0331774
-0.0243139
-0.0143682
-0.00537702
-0.000978346
5.5334e-05
-0.0558255
-0.0760953
-0.0900117
-0.0981211
-0.100762
-0.0985078
-0.0923353
-0.0835861
-0.0736399
-0.063998
-0.0556558
-0.0494591
-0.0447935
-0.040416
-0.0341492
-0.0247737
-0.0140953
-0.00409259
-0.000126197
0.000350091
-0.0855553
-0.105839
-0.116808
-0.120359
-0.117742
-0.110314
-0.0995125
-0.0869382
-0.0741475
-0.0627634
-0.0537681
-0.0479749
-0.0443579
-0.041075
-0.0353456
-0.025428
-0.0139805
-0.00283253
0.00066588
0.000772932
-0.122599
-0.141322
-0.148062
-0.145277
-0.135857
-0.12234
-0.106432
-0.0898297
-0.0741692
-0.0610978
-0.0515165
-0.0461878
-0.0436544
-0.0415234
-0.0364175
-0.0261052
-0.0140823
-0.00195319
0.00115411
0.00124061
-0.163003
-0.178793
-0.180547
-0.169815
-0.152779
-0.133094
-0.112304
-0.0920495
-0.0739136
-0.0594297
-0.0493546
-0.0443803
-0.0426972
-0.0415367
-0.0370587
-0.0266199
-0.0143594
-0.00161782
0.00123006
0.00165119
-0.200589
-0.213762
-0.210143
-0.190709
-0.166579
-0.141543
-0.116723
-0.0936377
-0.0736786
-0.0581643
-0.0476789
-0.0428318
-0.041603
-0.0410735
-0.0371413
-0.026855
-0.0147138
-0.00180195
0.000910165
0.00193503
-0.231037
-0.243041
-0.233568
-0.206186
-0.176588
-0.147471
-0.119756
-0.0947835
-0.0736726
-0.0574963
-0.04667
-0.0417134
-0.0405362
-0.0402649
-0.0367325
-0.0267987
-0.0150546
-0.00236733
0.000295525
0.00207522
-0.256798
-0.265763
-0.249845
-0.216498
-0.183232
-0.151239
-0.121683
-0.095613
-0.0738891
-0.057352
-0.0462585
-0.0410287
-0.0396014
-0.0392818
-0.0359896
-0.0265119
-0.015332
-0.00314652
-0.000486365
0.00209594
-0.285342
-0.281414
-0.25869
-0.221621
-0.186314
-0.152635
-0.12227
-0.095876
-0.0741175
-0.0575959
-0.0463847
-0.040765
-0.0387776
-0.0380673
-0.0348367
-0.0259253
-0.0154983
-0.00404785
-0.00139304
0.00203112
-0.313853
-0.285406
-0.258841
-0.220765
-0.185343
-0.151535
-0.121537
-0.0957039
-0.07459
-0.0585282
-0.0473567
-0.0411468
-0.038141
-0.0365428
-0.0331264
-0.0249309
-0.0155045
-0.00497792
-0.00235591
0.00191193
-0.327577
-0.285912
-0.257278
-0.218005
-0.182537
-0.148845
-0.119411
-0.0942435
-0.0738167
-0.0582798
-0.0473642
-0.0410349
-0.0376404
-0.0356578
-0.0321447
-0.0243193
-0.0154331
-0.00550501
-0.00293714
0.00181229
-0.331235
-0.284112
-0.254542
-0.214249
-0.178959
-0.145604
-0.116897
-0.0925082
-0.0728509
-0.0579046
-0.047313
-0.0409453
-0.0372427
-0.0349157
-0.0312788
-0.0237495
-0.015339
-0.00599356
-0.0034845
0.00169707
-0.330577
-0.281732
-0.251777
-0.210829
-0.175848
-0.142887
-0.114901
-0.0912587
-0.0723185
-0.0578877
-0.0475173
-0.0409895
-0.0368657
-0.0341198
-0.0303496
-0.0231632
-0.0152767
-0.0065365
-0.00406462
0.00156316
-0.328517
-0.279363
-0.249072
-0.207692
-0.173089
-0.140557
-0.113295
-0.090389
-0.072137
-0.058164
-0.0479241
-0.0411249
-0.0364755
-0.0332439
-0.0293366
-0.0225504
-0.0152441
-0.00713254
-0.00467689
0.00141172
-0.325918
-0.277113
-0.246462
-0.204778
-0.170576
-0.138496
-0.111962
-0.0897915
-0.0722094
-0.0586516
-0.0484751
-0.0413266
-0.0360804
-0.0323165
-0.0282676
-0.021922
-0.0152352
-0.00776466
-0.00530874
0.00124466
-0.323443
-0.275109
-0.244104
-0.202191
-0.168363
-0.136735
-0.110909
-0.0894582
-0.0725151
-0.0593249
-0.0491495
-0.0415887
-0.0356923
-0.0313604
-0.0271641
-0.021289
-0.0152496
-0.00842261
-0.0059519
0.00106371
-0.321763
-0.273524
-0.242174
-0.200043
-0.166526
-0.135322
-0.110161
-0.0893932
-0.0730423
-0.0601647
-0.0499306
-0.0419063
-0.0353203
-0.0303936
-0.0260441
-0.0206609
-0.0152885
-0.00909896
-0.00660012
0.000870445
-0.321425
-0.272508
-0.240818
-0.198422
-0.165118
-0.13429
-0.109728
-0.0895877
-0.0737686
-0.0611437
-0.0507969
-0.0422727
-0.0349746
-0.0294371
-0.024928
-0.0200483
-0.0153521
-0.00978486
-0.0072456
0.000666814
-0.322815
-0.272166
-0.240138
-0.197394
-0.164182
-0.133663
-0.109612
-0.0900284
-0.074668
-0.0622332
-0.051727
-0.0426821
-0.0346666
-0.028513
-0.0238375
-0.0194617
-0.0154405
-0.0104725
-0.00788184
0.000454451
)
;

boundaryField
{
    inlet
    {
        type            freestreamPressure;
        freestreamValue uniform 0;
        supersonic      false;
        value           nonuniform List<scalar> 
40
(
0.21148
0.203207
0.193336
0.181741
0.168476
0.153851
0.138549
0.123728
0.11112
0.103154
0.24693
0.244433
0.241704
0.238756
0.235601
0.232255
0.228736
0.225061
0.221246
0.217277
0.25818
0.258153
0.257892
0.257399
0.256665
0.25568
0.254441
0.252945
0.251193
0.249186
0.212299
0.217312
0.224814
0.232925
0.240429
0.246675
0.251434
0.254749
0.256815
0.257887
)
;
    }
    outlet
    {
        type            freestreamPressure;
        freestreamValue uniform 0;
        supersonic      false;
        value           nonuniform List<scalar> 
40
(
-1.97291e-06
-2.2144e-06
-2.36742e-06
-2.38538e-06
-2.21793e-06
-1.85026e-06
-1.3313e-06
-7.72602e-07
-3.06124e-07
-3.596e-08
1.76229e-07
8.58451e-09
-1.83451e-07
-3.94458e-07
-6.18608e-07
-8.49364e-07
-1.08033e-06
-1.3056e-06
-1.5204e-06
-1.71988e-06
3.65216e-07
4.23267e-07
4.77617e-07
5.2231e-07
5.51852e-07
5.61022e-07
5.4506e-07
5.00104e-07
4.2388e-07
3.1556e-07
-7.89472e-14
8.12268e-16
3.4258e-12
1.49345e-12
7.06492e-10
7.81867e-09
3.45853e-08
9.28401e-08
1.81316e-07
2.85204e-07
)
;
    }
    top
    {
        type            symmetryPlane;
    }
    bottom
    {
        type            symmetryPlane;
    }
    cylinder
    {
        type            zeroGradient;
    }
    frontandback
    {
        type            empty;
    }
}


// ************************************************************************* //
