/*--------------------------------*- C++ -*----------------------------------*\
  =========                 |
  \\      /  F ield         | OpenFOAM: The Open Source CFD Toolbox
   \\    /   O peration     | Website:  https://openfoam.org
    \\  /    A nd           | Version:  6.0
     \\/     M anipulation  |
\*---------------------------------------------------------------------------*/
FoamFile
{
    version     2.0;
    format      ascii;
    class       volVectorField;
    location    "17.255";
    object      U;
}
// * * * * * * * * * * * * * * * * * * * * * * * * * * * * * * * * * * * * * //

dimensions      [0 1 -1 0 0 0 0];

internalField   nonuniform List<vector> 
2400
(
(0.0179474 -0.435452 -1.21506e-20)
(0.00559126 -0.340316 5.43272e-21)
(-0.0039408 -0.268751 -6.03528e-21)
(-0.0110552 -0.215157 -3.92021e-21)
(-0.0157324 -0.174916 -6.85251e-21)
(-0.018066 -0.144413 9.45407e-21)
(-0.0184919 -0.120919 3.85842e-21)
(-0.0175152 -0.102412 3.63179e-21)
(-0.0156171 -0.0874133 -8.4516e-21)
(-0.0137756 -0.0748841 -6.47126e-22)
(0.0516443 -0.429047 1.35468e-20)
(0.0321812 -0.332569 -1.38413e-21)
(0.018457 -0.261829 2.84133e-21)
(0.0092868 -0.210131 3.69598e-20)
(0.00411551 -0.172175 -2.81636e-20)
(0.00241462 -0.143904 -1.48914e-21)
(0.00341572 -0.122306 -3.28943e-22)
(0.00637544 -0.105166 -3.77434e-21)
(0.0106558 -0.0908568 -6.69229e-21)
(0.0149598 -0.0782929 -2.65372e-21)
(0.0845716 -0.420428 2.50122e-20)
(0.0582697 -0.323958 2.5523e-20)
(0.0412844 -0.255064 -7.37161e-20)
(0.0312984 -0.206022 2.44229e-20)
(0.0270135 -0.170915 4.06598e-20)
(0.0273861 -0.145296 -2.34875e-20)
(0.0312732 -0.125911 -2.029e-20)
(0.0376774 -0.110356 1.91524e-20)
(0.0458049 -0.096818 -4.37084e-20)
(0.0539373 -0.084157 4.64948e-20)
(0.116707 -0.409843 -8.7507e-20)
(0.0841505 -0.31497 4.3747e-20)
(0.0650773 -0.248994 -4.33311e-20)
(0.0556915 -0.203321 2.22542e-20)
(0.0537849 -0.171537 -2.58932e-20)
(0.0577229 -0.148906 4.16047e-20)
(0.0659532 -0.131996 2.26009e-20)
(0.0772187 -0.118227 -6.84359e-20)
(0.0905808 -0.105554 -6.71444e-20)
(0.103796 -0.0927514 7.89815e-20)
(0.148076 -0.397528 3.58501e-21)
(0.110275 -0.306001 -1.7032e-20)
(0.0906054 -0.243989 -7.62873e-21)
(0.0834554 -0.202269 -9.49945e-21)
(0.0855506 -0.174113 -6.43238e-20)
(0.0945979 -0.154635 1.05577e-20)
(0.108611 -0.140327 -7.0716e-21)
(0.126079 -0.128484 7.48281e-20)
(0.145948 -0.116775 -5.28264e-20)
(0.165353 -0.103853 -3.85207e-20)
(0.17878 -0.383711 8.46861e-20)
(0.137261 -0.297348 -8.63405e-21)
(0.118858 -0.240228 1.32289e-19)
(0.115826 -0.202827 -1.70477e-20)
(0.123688 -0.178336 8.31759e-20)
(0.139435 -0.161891 -9.49796e-21)
(0.160626 -0.150065 -7.71045e-22)
(0.185515 -0.140122 6.11473e-20)
(0.212991 -0.129445 -3.42599e-20)
(0.239499 -0.116532 6.62363e-20)
(0.209 -0.368599 -3.2089e-20)
(0.165881 -0.289193 1.14206e-20)
(0.151 -0.237689 -3.39477e-20)
(0.154215 -0.20468 -4.27056e-20)
(0.169739 -0.183531 -4.58392e-21)
(0.1938 -0.169602 1.41216e-19)
(0.223486 -0.159743 -5.0886e-20)
(0.256832 -0.151381 2.53367e-20)
(0.292773 -0.141696 -8.78463e-20)
(0.327084 -0.129046 -5.60527e-20)
(0.239004 -0.352364 1.54624e-19)
(0.197023 -0.281572 -1.75612e-20)
(0.188282 -0.236137 -1.84504e-19)
(0.200071 -0.207252 1.04343e-20)
(0.225226 -0.188718 4.52236e-20)
(0.25918 -0.1763 -6.76581e-20)
(0.298518 -0.167338 -9.14928e-20)
(0.341062 -0.159696 1.39551e-19)
(0.385977 -0.150596 -1.18485e-20)
(0.428617 -0.138439 -1.29604e-19)
(0.26914 -0.335121 -1.2992e-19)
(0.231624 -0.274344 7.68066e-20)
(0.231919 -0.235121 1.2193e-19)
(0.25471 -0.209778 3.33699e-20)
(0.291457 -0.192767 -1.30846e-19)
(0.336764 -0.180348 8.71219e-20)
(0.386634 -0.170427 5.44273e-20)
(0.43856 -0.161465 1.15377e-19)
(0.492082 -0.151016 -7.05797e-20)
(0.543034 -0.138469 -1.04253e-19)
(0.299799 -0.316851 4.4288e-20)
(0.270541 -0.267116 -1.82619e-20)
(0.282888 -0.233976 -6.1422e-22)
(0.319104 -0.211432 3.79918e-20)
(0.369399 -0.194786 3.24733e-20)
(0.427671 -0.180764 -2.29257e-20)
(0.489416 -0.167609 -4.64058e-20)
(0.55159 -0.154024 7.44088e-20)
(0.61331 -0.138071 -6.32054e-20)
(0.671313 -0.122055 5.83933e-20)
(0.617236 -0.00933515 3.94313e-21)
(0.590815 -0.0552239 1.13858e-20)
(0.561278 -0.0972841 -3.80697e-20)
(0.529576 -0.135475 3.34288e-20)
(0.49654 -0.169905 1.25768e-20)
(0.462888 -0.200815 1.56026e-19)
(0.429192 -0.228552 -5.96828e-20)
(0.395864 -0.253536 -7.99608e-20)
(0.363175 -0.276244 8.29194e-20)
(0.331234 -0.297199 -1.43618e-19)
(0.832175 0.0173536 1.39846e-20)
(0.779508 -0.0411433 -4.50313e-21)
(0.721239 -0.0921955 -3.77749e-20)
(0.659531 -0.135458 1.00122e-19)
(0.596432 -0.171 -3.34278e-20)
(0.533803 -0.199278 2.51706e-19)
(0.473222 -0.22108 -1.55226e-19)
(0.415923 -0.23747 2.21342e-19)
(0.362779 -0.249713 -1.50606e-19)
(0.314282 -0.259178 -7.68719e-20)
(1.01744 0.0667921 -2.77787e-20)
(0.95407 -0.000857102 4.07807e-21)
(0.881802 -0.060192 -1.2056e-19)
(0.803303 -0.110286 9.27395e-20)
(0.721316 -0.150754 -9.37783e-20)
(0.638504 -0.18176 -1.75519e-19)
(0.557293 -0.203997 -5.68776e-20)
(0.479737 -0.218646 -4.85656e-20)
(0.407441 -0.227291 1.53747e-19)
(0.341562 -0.231791 7.93441e-20)
(1.16721 0.11675 1.26894e-20)
(1.10313 0.0440302 -2.22067e-20)
(1.02701 -0.0210514 -3.00718e-20)
(0.941454 -0.0770069 -1.17923e-19)
(0.849418 -0.122879 6.87529e-20)
(0.753974 -0.158313 1.98813e-19)
(0.658122 -0.183602 8.56e-20)
(0.564584 -0.199712 1.65796e-20)
(0.475665 -0.208248 4.53264e-20)
(0.393261 -0.211371 -1.44942e-21)
(1.28166 0.159334 -1.4965e-20)
(1.22312 0.0852239 -5.879e-20)
(1.15007 0.0172939 7.8917e-21)
(1.06469 -0.0425603 1.02101e-19)
(0.969688 -0.0928621 1.04888e-19)
(0.868162 -0.132682 -6.91451e-20)
(0.763337 -0.161761 -1.28694e-19)
(0.658334 -0.180635 -6.20881e-20)
(0.555941 -0.190723 7.2768e-20)
(0.458663 -0.194408 9.92943e-20)
(1.36437 0.192703 3.13011e-21)
(1.31483 0.120062 4.99785e-20)
(1.24925 0.0518604 -1.17032e-19)
(1.16915 -0.00979402 1.46552e-19)
(1.07668 -0.0630431 8.64186e-20)
(0.974589 -0.106431 1.56792e-19)
(0.865985 -0.13909 -3.35224e-20)
(0.754034 -0.160981 -8.92485e-20)
(0.641631 -0.17316 2.11363e-19)
(0.531442 -0.178233 -1.71707e-19)
(1.42041 0.216799 7.69272e-21)
(1.38124 0.147572 -6.0069e-20)
(1.32549 0.0810919 -3.73705e-20)
(1.2539 0.0194865 -7.97969e-20)
(1.16791 -0.0351718 -1.12702e-20)
(1.06967 -0.0810086 -1.17332e-19)
(0.961861 -0.116551 -7.25936e-20)
(0.847349 -0.141061 -1.50244e-20)
(0.728615 -0.155024 -1.31133e-19)
(0.60753 -0.161295 1.86228e-19)
(1.45509 0.232603 -6.8046e-21)
(1.42623 0.167882 5.02365e-20)
(1.38109 0.104448 -2.23515e-20)
(1.31971 0.0442971 4.99599e-20)
(1.24277 -0.0104551 1.22557e-19)
(1.1517 -0.0576546 1.99443e-19)
(1.04857 -0.0952597 -5.73089e-20)
(0.935728 -0.121676 -1.96382e-19)
(0.814716 -0.136403 5.34085e-20)
(0.684952 -0.14231 -3.06251e-19)
(1.47314 0.241722 9.91146e-21)
(1.45365 0.181823 -1.1817e-20)
(1.41885 0.122039 -1.21253e-19)
(1.36816 0.0641153 3.70349e-20)
(1.3016 0.0100564 -8.59348e-20)
(1.21988 -0.0378685 -3.56411e-20)
(1.12447 -0.0771369 -2.84055e-20)
(1.01721 -0.10511 8.16935e-20)
(0.898697 -0.119403 9.40732e-20)
(0.76393 -0.121096 5.74367e-20)
(1.4783 0.245739 -2.40576e-20)
(1.46681 0.190783 4.31305e-20)
(1.44139 0.134923 2.01303e-20)
(1.40105 0.0795639 6.13583e-20)
(1.34521 0.0264515 -7.04989e-21)
(1.27398 -0.0222285 -4.70096e-21)
(1.18831 -0.0637041 -1.58999e-19)
(1.08993 -0.0944412 2.02887e-19)
(0.979577 -0.109642 -1.25582e-19)
(0.84655 -0.104626 2.6266e-20)
(0.537392 0.499377 -5.47734e-20)
(0.577211 0.460002 6.33798e-20)
(0.610686 0.415189 1.13623e-21)
(0.637148 0.365899 -1.58174e-19)
(0.656089 0.313219 1.17745e-19)
(0.667276 0.25834 -8.85172e-20)
(0.670757 0.202483 -2.16107e-20)
(0.666848 0.146823 -2.06356e-20)
(0.656118 0.0924255 3.41973e-20)
(0.639346 0.0401728 2.37597e-21)
(0.751763 0.673339 8.05948e-20)
(0.812063 0.631027 2.1583e-20)
(0.863 0.578594 -1.12458e-19)
(0.90303 0.517586 -1.38386e-19)
(0.930906 0.449799 1.0968e-19)
(0.945812 0.377257 -9.86766e-20)
(0.947427 0.302122 1.17908e-19)
(0.935945 0.226582 -3.09225e-20)
(0.91208 0.152739 -1.03653e-19)
(0.87702 0.0824718 -7.79435e-21)
(0.885521 0.753581 -6.08926e-21)
(0.957678 0.717293 2.10672e-21)
(1.02041 0.668676 7.47647e-20)
(1.07162 0.609208 7.58452e-20)
(1.1095 0.540679 1.74577e-19)
(1.13267 0.465178 6.27964e-20)
(1.14027 0.385027 -4.23338e-20)
(1.13198 0.302687 -9.34825e-20)
(1.10807 0.220647 7.58691e-20)
(1.06945 0.141293 5.22653e-21)
(0.967002 0.773221 2.12084e-20)
(1.04499 0.745245 -5.06286e-20)
(1.11479 0.704442 -2.51677e-20)
(1.174 0.651975 -1.4368e-19)
(1.22052 0.589325 -8.81337e-20)
(1.25258 0.518303 1.69587e-19)
(1.26884 0.441001 1.15678e-19)
(1.26843 0.359736 -9.74377e-20)
(1.25107 0.276961 4.53327e-21)
(1.21705 0.195166 -4.3566e-21)
(1.01515 0.756849 -5.67791e-20)
(1.09486 0.736639 9.73312e-20)
(1.16798 0.704158 -2.54136e-20)
(1.23203 0.660186 7.77543e-20)
(1.28481 0.605817 -5.42915e-20)
(1.32437 0.542479 -1.02158e-19)
(1.34911 0.471896 5.44949e-20)
(1.35778 0.396047 -5.76659e-20)
(1.34954 0.317118 -5.76791e-20)
(1.32411 0.237429 2.53037e-20)
(1.04297 0.72134 -1.0287e-20)
(1.12186 0.707403 1.76449e-20)
(1.19561 0.682345 -1.68713e-20)
(1.26176 0.646525 -1.46906e-19)
(1.31821 0.600671 8.47928e-20)
(1.36307 0.545854 1.70363e-20)
(1.39469 0.483424 -9.3724e-20)
(1.4116 0.414983 -3.46227e-20)
(1.41265 0.342356 3.2488e-20)
(1.39705 0.267555 -9.2121e-21)
(1.05906 0.67738 -1.17592e-20)
(1.13595 0.668162 4.9097e-21)
(1.20861 0.649238 2.32521e-20)
(1.2747 0.620472 8.28656e-20)
(1.33246 0.582299 2.10699e-20)
(1.38028 0.535529 5.36988e-20)
(1.41662 0.481213 1.14435e-19)
(1.44002 0.420621 -4.89717e-20)
(1.44916 0.355224 4.59429e-20)
(1.44292 0.286682 -1.73103e-20)
(1.06892 0.631383 -1.26698e-20)
(1.14349 0.625961 1.84564e-20)
(1.21394 0.612043 1.78083e-20)
(1.2783 0.58902 -4.2848e-20)
(1.33544 0.557227 -2.82123e-20)
(1.38415 0.51736 -5.87435e-20)
(1.42312 0.470281 8.3382e-21)
(1.451 0.417014 -1.38844e-20)
(1.46645 0.358737 -9.77935e-20)
(1.46821 0.296777 1.3766e-20)
(1.07671 0.587682 -1.94231e-21)
(1.14829 0.585809 -1.22172e-20)
(1.21532 0.575901 -1.53068e-20)
(1.2766 0.557232 9.39069e-21)
(1.33166 0.530337 -3.93698e-21)
(1.3797 0.495959 5.20906e-20)
(1.41961 0.454859 2.36041e-20)
(1.4502 0.407889 3.81535e-20)
(1.47018 0.355993 4.69487e-20)
(1.47826 0.30022 -2.02149e-20)
(1.08854 0.547883 -1.19657e-21)
(1.15523 0.547468 2.03938e-20)
(1.21679 0.540029 -5.83278e-20)
(1.2733 0.524429 -4.30681e-21)
(1.32485 0.501358 7.75426e-20)
(1.37078 0.471568 3.79028e-21)
(1.41009 0.435704 4.70493e-20)
(1.4417 0.394434 -1.04359e-19)
(1.46444 0.348481 -1.27854e-21)
(1.47707 0.298632 1.07274e-20)
(0.596835 0.191404 -8.25708e-21)
(0.55607 0.206857 2.90831e-21)
(0.50938 0.22532 9.6248e-22)
(0.455984 0.247947 -1.55626e-20)
(0.394959 0.276233 6.93227e-21)
(0.325798 0.311744 2.05506e-20)
(0.248925 0.355479 -1.91646e-20)
(0.166615 0.406511 -4.93439e-21)
(0.0870791 0.459424 -5.9358e-21)
(0.0323276 0.499883 -2.18326e-20)
(0.619192 0.249077 -2.27235e-20)
(0.580314 0.269347 4.78663e-20)
(0.53555 0.293072 -4.41153e-20)
(0.484437 0.321141 -7.49531e-21)
(0.426105 0.354579 1.24829e-20)
(0.360031 0.393979 -1.47124e-20)
(0.286533 0.438588 -4.16302e-20)
(0.207523 0.484553 4.83551e-20)
(0.130289 0.521682 -7.51031e-23)
(0.0748156 0.527973 2.21004e-20)
(0.649032 0.303934 -7.57721e-20)
(0.612761 0.328789 8.06738e-20)
(0.570614 0.357542 2.81277e-20)
(0.522534 0.390762 1.54237e-21)
(0.467653 0.428996 1.8096e-20)
(0.405303 0.471877 7.12987e-21)
(0.335465 0.516921 -1.18607e-20)
(0.259287 0.557435 -2.62479e-20)
(0.182413 0.578709 -1.9231e-20)
(0.121434 0.55168 2.83684e-20)
(0.685988 0.354988 -6.27715e-20)
(0.652954 0.38408 5.89855e-20)
(0.614055 0.417497 4.73919e-20)
(0.569693 0.45541 -3.24598e-20)
(0.518944 0.497887 -1.19877e-19)
(0.460867 0.543623 3.87794e-20)
(0.394883 0.588472 -2.79245e-20)
(0.321008 0.623081 7.64739e-20)
(0.242582 0.628656 6.75497e-20)
(0.171593 0.570034 -5.98011e-20)
(0.729542 0.401348 -4.50593e-20)
(0.700261 0.434226 2.04751e-20)
(0.66515 0.471813 -5.69252e-20)
(0.625099 0.513795 4.47234e-20)
(0.579048 0.559768 -2.15938e-20)
(0.52566 0.60753 -1.81735e-20)
(0.463592 0.651381 -1.82477e-20)
(0.391397 0.679574 -3.13636e-21)
(0.30956 0.66983 -2.68563e-20)
(0.224484 0.582171 -1.60441e-20)
(0.779014 0.442255 1.13242e-19)
(0.753858 0.478375 2.30889e-20)
(0.722967 0.519504 -7.76505e-20)
(0.687699 0.564766 7.28173e-20)
(0.646769 0.613306 3.34103e-20)
(0.598319 0.662083 5.43923e-20)
(0.540061 0.703987 -3.20854e-21)
(0.468811 0.72522 3.35489e-20)
(0.381782 0.700772 8.24667e-21)
(0.279122 0.587394 3.27169e-20)
(0.833528 0.477117 -1.23002e-19)
(0.812718 0.515835 1.42521e-19)
(0.786356 0.559743 -6.90379e-20)
(0.756214 0.607333 -3.8764e-20)
(0.72066 0.657346 6.4973e-22)
(0.677202 0.705971 -5.31447e-20)
(0.622454 0.744871 3.61047e-20)
(0.551293 0.758609 4.13038e-20)
(0.457415 0.720313 5.6619e-21)
(0.334385 0.585191 -2.45369e-20)
(0.891962 0.505603 -8.90934e-21)
(0.87556 0.546108 -5.56317e-20)
(0.853925 0.591851 2.36334e-20)
(0.829134 0.64066 -5.37654e-21)
(0.799045 0.690915 -1.87788e-20)
(0.760425 0.738112 9.77901e-21)
(0.708676 0.772898 -3.95404e-21)
(0.636635 0.778664 -7.44659e-21)
(0.534415 0.727624 4.49783e-21)
(0.389064 0.575269 -8.00795e-21)
(0.952908 0.527854 1.94035e-20)
(0.940839 0.569105 6.35836e-21)
(0.924138 0.615453 -4.02444e-20)
(0.904848 0.66415 3.15187e-20)
(0.880113 0.713274 -1.5086e-20)
(0.845928 0.757692 -2.29287e-21)
(0.796448 0.787251 -6.51841e-21)
(0.722453 0.784677 -1.99793e-21)
(0.610621 0.722258 -4.81795e-20)
(0.441927 0.557579 3.05055e-20)
(1.01302 0.541567 -2.64708e-20)
(1.00496 0.582724 1.93006e-20)
(0.994276 0.629008 -6.52892e-21)
(0.981101 0.676752 -2.82862e-21)
(0.961678 0.723645 -9.25703e-21)
(0.93143 0.764074 -4.64504e-21)
(0.883335 0.787428 6.5148e-21)
(0.806266 0.776324 3.48426e-20)
(0.683846 0.70413 4.66194e-20)
(0.491799 0.53228 7.20334e-21)
(0.770491 -0.319204 1.39265e-19)
(0.741339 -0.340565 -8.70065e-20)
(0.704271 -0.36 3.30564e-20)
(0.658658 -0.372417 -7.53997e-20)
(0.599726 -0.373101 -4.9425e-20)
(0.521432 -0.35451 -7.66514e-20)
(0.416168 -0.30571 -9.3185e-20)
(0.274383 -0.212299 -4.27173e-20)
(0.0847494 -0.0560162 -5.92824e-20)
(-0.167206 0.185992 2.94721e-20)
(0.727788 -0.285925 -8.34419e-20)
(0.697539 -0.30586 -6.92029e-20)
(0.658636 -0.324445 1.19595e-19)
(0.611355 -0.33712 5.88719e-20)
(0.551943 -0.339059 8.75099e-20)
(0.475091 -0.322688 -1.47525e-19)
(0.374176 -0.276926 5.08574e-20)
(0.241057 -0.186881 1.04305e-19)
(0.0667856 -0.0331235 7.11741e-20)
(-0.158488 0.209563 -7.60168e-20)
(0.687777 -0.246372 3.93378e-20)
(0.655599 -0.264294 -1.60119e-20)
(0.615087 -0.281291 1.69642e-19)
(0.566254 -0.293243 -1.023e-19)
(0.506074 -0.295371 -8.34372e-20)
(0.430093 -0.280279 4.81029e-20)
(0.332811 -0.237074 -6.91709e-22)
(0.207713 -0.1509 -2.09592e-19)
(0.048577 -0.00200908 -8.49262e-21)
(-0.149218 0.235783 6.68727e-20)
(0.652768 -0.202465 2.60178e-19)
(0.618246 -0.217607 -1.21691e-19)
(0.575872 -0.231948 4.09417e-20)
(0.525323 -0.241917 -6.99672e-20)
(0.464082 -0.242965 1.82953e-19)
(0.388509 -0.228039 -9.75287e-21)
(0.29425 -0.186715 -3.45467e-20)
(0.176494 -0.104679 5.35567e-21)
(0.03192 0.0372365 1.73086e-20)
(-0.13857 0.264653 -8.71875e-20)
(0.623549 -0.154118 -2.24905e-19)
(0.58666 -0.165914 -2.44622e-21)
(0.542381 -0.176823 9.14871e-20)
(0.490102 -0.18381 -4.46147e-21)
(0.427702 -0.182671 -1.05104e-20)
(0.352278 -0.166854 1.20482e-19)
(0.260583 -0.126688 -2.25313e-20)
(0.149498 -0.0489191 2.78374e-20)
(0.0185945 0.0841372 5.38245e-21)
(-0.125736 0.295953 1.16285e-19)
(0.600732 -0.101715 8.28565e-21)
(0.561723 -0.109697 -1.31893e-19)
(0.515729 -0.11657 1.18991e-19)
(0.461908 -0.119766 -1.04548e-20)
(0.39846 -0.115492 2.01855e-20)
(0.323141 -0.097832 -1.01713e-19)
(0.233726 -0.058132 -1.52251e-20)
(0.128678 0.0153215 -7.62685e-21)
(0.0102815 0.137856 -5.3293e-20)
(-0.109953 0.329261 -2.5311e-20)
(0.584843 -0.0459788 1.15942e-19)
(0.544149 -0.0497359 -1.10606e-19)
(0.496814 -0.0520787 -5.25282e-21)
(0.441824 -0.0508249 -1.31391e-19)
(0.377641 -0.0426253 7.17875e-20)
(0.302591 -0.0223073 -4.54694e-20)
(0.215346 0.0175402 3.81715e-20)
(0.11576 0.0866594 -7.32781e-20)
(0.00848344 0.197235 -6.87443e-20)
(-0.0905394 0.363974 -4.92963e-20)
(0.576288 0.0122144 7.26522e-20)
(0.53449 0.013017 -7.38477e-20)
(0.486328 0.01559 3.27549e-20)
(0.430695 0.0218048 2.30963e-20)
(0.366267 0.0345536 -4.2674e-20)
(0.291838 0.058181 7.33769e-20)
(0.206815 0.0986699 4.47321e-20)
(0.11218 0.16343 -1.36014e-19)
(0.0144592 0.260835 2.29159e-20)
(-0.0669381 0.399329 5.93683e-20)
(0.575352 0.0718828 7.71106e-20)
(0.533135 0.0774823 -1.17052e-20)
(0.484765 0.0852427 -6.7094e-21)
(0.429134 0.0967784 -5.34002e-22)
(0.365093 0.11452 2.86677e-20)
(0.291787 0.141922 -8.47248e-20)
(0.209175 0.183394 6.98885e-20)
(0.119041 0.243733 5.44374e-21)
(0.0291765 0.326989 -2.56518e-21)
(-0.0387421 0.434445 4.34245e-20)
(0.582191 0.131974 -2.23827e-20)
(0.54031 0.142495 -2.35397e-21)
(0.492418 0.155594 6.22276e-21)
(0.437519 0.172653 6.91993e-21)
(0.374594 0.19564 1.74458e-20)
(0.303024 0.227075 -1.2616e-20)
(0.223111 0.269696 -7.40584e-21)
(0.137076 0.325489 -1.15451e-20)
(0.0532855 0.393851 1.06855e-20)
(-0.00569933 0.468345 -7.81547e-21)
(0.830143 -0.352717 1.37845e-19)
(0.879913 -0.37489 -5.07497e-20)
(0.92563 -0.391665 1.32431e-20)
(0.967478 -0.401158 5.44717e-20)
(1.00557 -0.403543 2.80127e-20)
(1.03902 -0.399233 2.31622e-21)
(1.06646 -0.388435 3.09597e-21)
(1.08637 -0.371364 -1.99255e-21)
(1.09709 -0.348362 -1.16475e-21)
(1.0969 -0.319962 9.67093e-22)
(0.79383 -0.370175 6.3588e-20)
(0.845683 -0.391899 5.13832e-20)
(0.894257 -0.407133 4.77467e-20)
(0.938268 -0.414593 -1.40546e-20)
(0.977031 -0.414269 -1.23519e-20)
(1.00955 -0.406509 -1.02273e-20)
(1.03445 -0.391666 1.95001e-21)
(1.05018 -0.370212 2.05512e-21)
(1.05514 -0.342814 1.68671e-21)
(1.04779 -0.31039 -1.91894e-21)
(0.755204 -0.387152 -1.87048e-19)
(0.807027 -0.406457 1.87356e-20)
(0.856058 -0.418499 -9.05641e-20)
(0.900055 -0.422501 -1.41887e-20)
(0.937642 -0.418337 4.57273e-20)
(0.967498 -0.406321 1.4304e-20)
(0.988155 -0.386975 -1.07583e-21)
(0.998099 -0.361044 -1.30662e-21)
(0.995898 -0.329534 -6.72442e-21)
(0.980373 -0.293746 1.343e-21)
(0.708769 -0.398038 -4.94775e-20)
(0.759141 -0.414695 -7.19388e-20)
(0.806552 -0.422958 -6.88134e-21)
(0.848432 -0.422605 -2.31846e-20)
(0.882892 -0.413726 -2.39546e-20)
(0.908293 -0.396818 -2.24362e-21)
(0.923098 -0.37267 -3.10022e-21)
(0.925926 -0.342359 1.988e-22)
(0.915663 -0.307258 6.85796e-21)
(0.891619 -0.269031 -1.58168e-21)
(0.648531 -0.396671 -1.07119e-19)
(0.696315 -0.410202 1.1218e-19)
(0.740338 -0.414274 6.18805e-21)
(0.778049 -0.409155 -5.24543e-21)
(0.807349 -0.395327 1.28838e-20)
(0.826485 -0.373622 4.4999e-21)
(0.834005 -0.345192 -4.63821e-21)
(0.828801 -0.311487 8.1189e-21)
(0.810214 -0.274236 -1.29345e-21)
(0.778145 -0.235394 -6.539e-22)
(0.567432 -0.375213 1.54009e-19)
(0.611018 -0.385151 -8.52714e-20)
(0.649752 -0.385005 -2.58546e-20)
(0.681265 -0.375464 -6.01768e-21)
(0.703534 -0.357443 -1.01924e-20)
(0.714946 -0.332181 4.68039e-21)
(0.714326 -0.30121 -4.68902e-21)
(0.700994 -0.266325 -3.2676e-21)
(0.674838 -0.229524 2.20535e-21)
(0.63638 -0.19291 2.9004e-21)
(0.456719 -0.32317 2.50833e-20)
(0.493687 -0.32977 1.54544e-20)
(0.524887 -0.326383 3.08487e-21)
(0.548243 -0.314065 -9.45112e-21)
(0.562031 -0.294129 2.92345e-20)
(0.564992 -0.268172 9.742e-22)
(0.55639 -0.238029 6.71475e-23)
(0.536063 -0.205702 7.63391e-22)
(0.50446 -0.173275 3.08317e-21)
(0.462637 -0.142788 -2.20653e-21)
(0.30556 -0.227174 7.25737e-20)
(0.332594 -0.232124 5.16105e-20)
(0.353642 -0.228234 -8.68639e-20)
(0.367052 -0.216812 -1.6205e-20)
(0.371562 -0.199414 -2.77901e-20)
(0.3664 -0.177809 -1.60628e-21)
(0.351336 -0.153907 -7.62375e-21)
(0.326698 -0.129666 9.97327e-21)
(0.293367 -0.106981 -1.06587e-22)
(0.252718 -0.0875777 4.69202e-21)
(0.100683 -0.0709346 -1.32778e-20)
(0.11312 -0.0784887 -8.62752e-20)
(0.120747 -0.0797964 6.49248e-20)
(0.122488 -0.0761407 -2.14707e-20)
(0.117643 -0.0689631 2.7437e-20)
(0.105945 -0.0598176 -1.46721e-21)
(0.0875776 -0.0502889 -6.21323e-21)
(0.0631587 -0.0418993 3.55141e-22)
(0.0336995 -0.0360182 -4.24244e-22)
(0.000518063 -0.0337878 -2.39993e-21)
(-0.176208 0.164783 -1.32628e-20)
(-0.185763 0.145905 4.52251e-20)
(-0.196461 0.128707 -1.8754e-20)
(-0.208626 0.112548 5.58726e-21)
(-0.222376 0.096774 -5.48806e-21)
(-0.237625 0.0807246 -7.45039e-22)
(-0.254082 0.0637731 1.04373e-21)
(-0.271275 0.04537 4.90348e-21)
(-0.288599 0.0250797 -2.32929e-21)
(-0.305362 0.00259046 -8.31302e-22)
(1.08418 -0.286962 1.57202e-21)
(1.05764 -0.250564 -7.67976e-21)
(1.01658 -0.212418 4.22409e-20)
(0.961118 -0.17466 -3.07256e-20)
(0.892449 -0.139854 3.63076e-21)
(0.812765 -0.110824 -3.12978e-20)
(0.724963 -0.0903679 1.57209e-19)
(0.631788 -0.0808389 7.9118e-21)
(0.531901 -0.0841589 -4.68664e-20)
(0.413887 -0.0967727 1.05827e-19)
(1.02683 -0.274164 5.18936e-21)
(0.991484 -0.235772 -1.55184e-20)
(0.941722 -0.197217 -1.57608e-20)
(0.878412 -0.160831 -1.16553e-20)
(0.803398 -0.12912 -3.35763e-20)
(0.71931 -0.104541 -7.9629e-22)
(0.629056 -0.0891619 -1.03078e-20)
(0.53481 -0.0841753 2.89398e-20)
(0.435432 -0.0894208 9.34441e-20)
(0.325334 -0.0983835 -2.06245e-20)
(0.950719 -0.255282 -3.51313e-21)
(0.90682 -0.216106 3.11769e-20)
(0.849367 -0.178415 8.17676e-21)
(0.779926 -0.144531 -1.74653e-21)
(0.700879 -0.116701 3.6605e-20)
(0.615131 -0.0968326 1.59045e-20)
(0.525571 -0.0861377 3.084e-20)
(0.43425 -0.0846548 -3.34387e-20)
(0.341123 -0.090653 -6.66968e-20)
(0.244943 -0.0976621 -1.56791e-19)
(0.853608 -0.229591 4.31555e-21)
(0.802228 -0.191101 -1.37328e-20)
(0.738881 -0.155782 2.00078e-20)
(0.665717 -0.125767 -4.54978e-20)
(0.585489 -0.102887 -2.6956e-20)
(0.501221 -0.0884178 -1.27563e-20)
(0.415729 -0.0827775 -6.469e-20)
(0.331074 -0.0851835 -2.99252e-20)
(0.248129 -0.0932896 3.61835e-21)
(0.167794 -0.101932 4.85922e-20)
(0.733074 -0.197061 2.14307e-21)
(0.676281 -0.161427 -2.90984e-23)
(0.609754 -0.130546 1.32031e-20)
(0.536041 -0.106193 4.06714e-20)
(0.458045 -0.0896733 -6.88948e-21)
(0.378713 -0.0816202 -6.01991e-20)
(0.300662 -0.0817956 1.0148e-19)
(0.225855 -0.0889089 -3.09517e-20)
(0.155548 -0.100495 -2.32913e-20)
(0.0911931 -0.112591 -1.09959e-20)
(0.586714 -0.158582 -5.90637e-21)
(0.527651 -0.128553 6.25658e-21)
(0.461554 -0.10453 2.07125e-20)
(0.391104 -0.0877981 -1.99378e-20)
(0.319105 -0.0790935 3.9644e-20)
(0.248224 -0.0784716 -4.83698e-21)
(0.18073 -0.0852105 3.79983e-21)
(0.118327 -0.0977588 2.55471e-20)
(0.0622244 -0.113763 2.00191e-20)
(0.013672 -0.130153 6.46657e-21)
(0.412129 -0.11612 8.75595e-22)
(0.355033 -0.0948996 -1.18866e-21)
(0.293792 -0.0803422 2.96042e-20)
(0.230936 -0.073189 -3.5459e-20)
(0.168924 -0.0736382 -6.75837e-20)
(0.109966 -0.0812951 3.26337e-20)
(0.0558627 -0.0951499 -1.72789e-20)
(0.00794279 -0.1136 1.84989e-20)
(-0.0328532 -0.134538 5.20577e-20)
(-0.0657008 -0.155551 -5.63426e-20)
(0.206444 -0.0728973 -9.32683e-22)
(0.156598 -0.0640084 -1.85426e-20)
(0.105381 -0.0615735 2.63066e-20)
(0.0548926 -0.0658173 1.62583e-20)
(0.00704493 -0.0765144 -4.96174e-20)
(-0.0365378 -0.0929994 -3.90395e-20)
(-0.0745889 -0.114187 -2.7807e-21)
(-0.106205 -0.138617 6.07699e-21)
(-0.130777 -0.164535 7.91452e-21)
(-0.147867 -0.190071 -2.19662e-20)
(-0.0349104 -0.0360584 1.57416e-21)
(-0.0709607 -0.0432166 2.56789e-20)
(-0.106021 -0.0554305 1.06067e-20)
(-0.138667 -0.0725399 -3.48436e-20)
(-0.167687 -0.0940875 3.45655e-20)
(-0.192117 -0.119364 -4.53918e-20)
(-0.211251 -0.147439 5.95186e-20)
(-0.224606 -0.177189 -7.15923e-20)
(-0.231883 -0.207344 -3.79244e-20)
(-0.232908 -0.236589 -1.02152e-19)
(-0.320816 -0.0223106 -4.50718e-22)
(-0.334241 -0.0492768 -7.49592e-21)
(-0.345017 -0.0782251 5.56559e-21)
(-0.352623 -0.108868 6.63314e-21)
(-0.356671 -0.140806 -1.49932e-20)
(-0.356906 -0.173569 1.48039e-20)
(-0.353178 -0.206636 -1.81324e-20)
(-0.345412 -0.239436 1.40698e-20)
(-0.333592 -0.271364 -3.57378e-20)
(-0.317722 -0.301814 3.94371e-20)
(-0.29772 -0.33017 5.64833e-20)
(-0.227663 -0.263725 -4.23748e-20)
(-0.157197 -0.213637 -4.39692e-20)
(-0.0896711 -0.174624 5.91196e-20)
(-0.0252757 -0.144183 -5.41224e-21)
(0.036533 -0.120946 7.03403e-20)
(0.095935 -0.103627 7.99955e-21)
(0.153166 -0.0913443 -6.31695e-20)
(0.209549 -0.0841824 1.166e-19)
(0.264302 -0.0790304 -1.60655e-20)
(-0.274238 -0.355551 -5.9683e-20)
(-0.216656 -0.287767 1.6341e-19)
(-0.15894 -0.234347 -6.85287e-21)
(-0.104229 -0.191238 -5.39794e-20)
(-0.0526418 -0.156252 4.28274e-20)
(-0.00354065 -0.127985 -9.75227e-20)
(0.043462 -0.105063 1.12381e-19)
(0.0889798 -0.0865099 -9.5013e-20)
(0.134508 -0.0725761 1.71082e-20)
(0.178363 -0.0626842 7.42511e-20)
(-0.247671 -0.377848 3.4265e-20)
(-0.20062 -0.308272 -1.02959e-19)
(-0.153969 -0.251745 3.57644e-20)
(-0.110375 -0.205213 -1.97926e-20)
(-0.0697522 -0.166784 3.65822e-20)
(-0.0313218 -0.135152 -2.73846e-20)
(0.00546112 -0.109128 -2.60046e-20)
(0.0412601 -0.0879906 3.52882e-20)
(0.0770599 -0.0720126 -8.23775e-20)
(0.110839 -0.0610663 1.23716e-19)
(-0.218491 -0.396856 -7.31869e-20)
(-0.180474 -0.324948 8.02209e-21)
(-0.143507 -0.265522 3.74677e-20)
(-0.109632 -0.216243 5.0817e-20)
(-0.0785344 -0.175419 -7.77127e-20)
(-0.0493535 -0.141792 6.4409e-21)
(-0.0215152 -0.114285 -4.34162e-20)
(0.00553596 -0.0922607 -9.11247e-20)
(0.0324049 -0.0757905 1.73727e-19)
(0.0573819 -0.0645792 6.65789e-20)
(-0.187224 -0.412429 5.12915e-20)
(-0.157183 -0.33764 1.17266e-20)
(-0.128814 -0.275495 4.57276e-20)
(-0.1035 -0.224052 -5.57599e-21)
(-0.0807116 -0.18165 6.05254e-20)
(-0.0595537 -0.146959 2.97557e-20)
(-0.0394805 -0.118848 7.60764e-20)
(-0.0200636 -0.0965696 -7.73287e-20)
(-0.000935502 -0.0798734 -7.99794e-21)
(0.0165943 -0.0682732 -8.70639e-20)
(-0.154394 -0.424508 3.40104e-20)
(-0.131666 -0.346351 -4.00835e-20)
(-0.111054 -0.281664 -9.00034e-21)
(-0.0933188 -0.228561 -1.56729e-20)
(-0.077761 -0.18522 -1.71944e-20)
(-0.0634944 -0.150111 -2.18932e-20)
(-0.0500365 -0.121935 3.57381e-20)
(-0.0370798 -0.0997427 -4.77681e-20)
(-0.0244183 -0.0829671 4.31222e-20)
(-0.0130283 -0.0709667 5.67697e-21)
(-0.120494 -0.433106 -5.91054e-20)
(-0.104739 -0.351238 -2.98163e-20)
(-0.0912215 -0.284238 5.17954e-20)
(-0.0801865 -0.229941 -1.93055e-20)
(-0.0708334 -0.186194 2.86266e-20)
(-0.0623339 -0.151158 -8.66961e-20)
(-0.0542997 -0.123295 6.62452e-20)
(-0.0465439 -0.101426 -2.48554e-20)
(-0.0389916 -0.0847228 4.49718e-20)
(-0.0323945 -0.0724229 -5.42974e-20)
(-0.0859703 -0.438314 2.72489e-20)
(-0.0770917 -0.352609 -1.17147e-20)
(-0.0701121 -0.28362 -1.8078e-20)
(-0.0649361 -0.228612 -7.25324e-21)
(-0.0607554 -0.184954 4.00829e-21)
(-0.0568571 -0.150416 1.20711e-20)
(-0.0529842 -0.12318 -2.97589e-20)
(-0.0490837 -0.101841 1.81369e-20)
(-0.0452075 -0.085364 5.56995e-20)
(-0.0419989 -0.072892 -5.3876e-20)
(-0.0512091 -0.440303 2.04029e-20)
(-0.0492631 -0.350897 5.4615e-23)
(-0.0483122 -0.280375 2.80807e-20)
(-0.0481458 -0.225195 -2.42504e-20)
(-0.0480667 -0.182127 7.5036e-21)
(-0.0475461 -0.148502 -8.39391e-21)
(-0.0465044 -0.122197 -4.77602e-21)
(-0.0450458 -0.101593 -2.78009e-20)
(-0.0433557 -0.085489 3.03266e-20)
(-0.0420823 -0.0729533 3.16409e-20)
(-0.01651 -0.439294 -3.60047e-21)
(-0.0216278 -0.34662 -3.07039e-21)
(-0.0261968 -0.275175 -2.76661e-21)
(-0.0301515 -0.220438 -1.06079e-20)
(-0.0330483 -0.178498 1.14605e-20)
(-0.0346237 -0.146212 4.18763e-21)
(-0.0350281 -0.121151 -8.98467e-21)
(-0.0345518 -0.10149 5.53303e-22)
(-0.0335238 -0.0858875 -5.44578e-21)
(-0.032705 -0.0733517 -3.73783e-22)
(-0.0131108 -0.0418239 -1.11959e-21)
(-0.0050601 -0.0419921 -1.11333e-21)
(0.0460162 -0.0380388 2.497e-21)
(0.0940517 -0.0339715 -1.66209e-21)
(0.154909 -0.0272525 -5.27759e-22)
(0.215131 -0.0192975 -1.02971e-21)
(0.276939 -0.0130492 3.63441e-22)
(0.337248 -0.011385 -4.62031e-22)
(0.395704 -0.0164636 2.4169e-22)
(0.450446 -0.0287077 5.22561e-23)
(0.49906 -0.0447392 -2.70217e-22)
(0.539425 -0.0589385 6.10779e-23)
(0.570744 -0.0608729 -5.96675e-23)
(0.599258 -0.043212 -1.1362e-22)
(0.624586 -0.00548007 1.85267e-23)
(0.659878 0.0358007 -3.46684e-23)
(0.688701 0.0454027 1.35306e-23)
(0.747352 0.0329622 9.65115e-24)
(0.774522 -0.027976 -1.66048e-23)
(0.828951 -0.0454324 8.71618e-25)
(0.0212937 -0.0436155 5.22971e-21)
(0.0309178 -0.0523038 3.90501e-21)
(0.0842148 -0.0507594 -3.6889e-21)
(0.131686 -0.0476121 2.00607e-21)
(0.19062 -0.0407626 -3.87633e-21)
(0.248641 -0.0319685 -1.56438e-22)
(0.30831 -0.0246692 -3.56191e-22)
(0.366869 -0.0217935 -7.16536e-22)
(0.423798 -0.0255597 4.7168e-22)
(0.476936 -0.0363127 1.51419e-22)
(0.523338 -0.050723 6.61267e-23)
(0.560623 -0.0633355 5.18936e-22)
(0.58766 -0.0642459 -5.25502e-22)
(0.611224 -0.0460626 -7.84478e-23)
(0.632071 -0.00851783 6.89677e-23)
(0.665198 0.0327249 5.25645e-23)
(0.695324 0.041618 -1.07932e-22)
(0.755176 0.0294449 1.49736e-22)
(0.78495 -0.0308639 4.02175e-23)
(0.835504 -0.0472966 6.71547e-25)
(0.0688423 -0.0475575 -1.80488e-20)
(0.0805986 -0.063271 2.50375e-21)
(0.136089 -0.0635386 1.72407e-20)
(0.182271 -0.0608575 -8.56326e-21)
(0.238026 -0.0537321 -1.1255e-21)
(0.292548 -0.0441096 -3.79858e-21)
(0.348742 -0.0358065 3.22753e-23)
(0.404273 -0.0317583 -1.43296e-21)
(0.458479 -0.034212 -4.7466e-22)
(0.508953 -0.0434417 -4.07003e-22)
(0.552303 -0.0561927 -8.0653e-23)
(0.58593 -0.0671982 5.55076e-23)
(0.608393 -0.0671089 5.01928e-22)
(0.626801 -0.0485078 -2.07868e-22)
(0.642963 -0.0113374 -1.34978e-22)
(0.673503 0.0296486 1.53632e-22)
(0.704482 0.0377607 -4.16094e-23)
(0.764804 0.0258565 -8.02251e-23)
(0.796666 -0.0336592 -1.55049e-22)
(0.842948 -0.0490156 1.21194e-23)
(0.129613 -0.054087 -4.90506e-21)
(0.143672 -0.0747953 1.9047e-20)
(0.200613 -0.0761262 -8.95405e-21)
(0.24452 -0.073401 -4.74181e-21)
(0.295785 -0.0658502 3.76276e-21)
(0.345551 -0.0554366 -7.17911e-22)
(0.397027 -0.0462091 1.58991e-21)
(0.448353 -0.0410636 -6.78972e-22)
(0.498745 -0.0422451 1.54332e-21)
(0.545601 -0.0499664 7.89337e-22)
(0.585167 -0.0610687 -1.70022e-21)
(0.614673 -0.0704885 2.35829e-22)
(0.632395 -0.0694445 -2.20491e-23)
(0.645592 -0.0505287 3.28952e-22)
(0.657007 -0.0139017 7.54798e-23)
(0.684631 0.026623 -1.08475e-22)
(0.716021 0.0338894 -1.01739e-22)
(0.7761 0.0222467 -2.22823e-22)
(0.809507 -0.036333 2.47337e-22)