/*--------------------------------*- C++ -*----------------------------------*\
  =========                 |
  \\      /  F ield         | OpenFOAM: The Open Source CFD Toolbox
   \\    /   O peration     | Website:  https://openfoam.org
    \\  /    A nd           | Version:  6.0
     \\/     M anipulation  |
\*---------------------------------------------------------------------------*/
FoamFile
{
    version     2.0;
    format      ascii;
    class       surfaceScalarField;
    location    "23.248";
    object      phi;
}
// * * * * * * * * * * * * * * * * * * * * * * * * * * * * * * * * * * * * * //

dimensions      [0 3 -1 0 0 0 0];

internalField   nonuniform List<scalar> 
38030
(
-8.5062e-06
-0.00797937
0.00798787
-2.72389e-05
-0.00733487
0.0073536
-5.40757e-05
-0.00674377
0.00677061
-8.70443e-05
-0.00620301
0.00623598
-0.000124326
-0.00570916
0.00574644
-0.000164376
-0.00525868
0.00529873
-0.000205909
-0.00484812
0.00488965
-0.000247868
-0.00447412
0.00451608
-0.000289393
-0.00413352
0.00417505
-0.000329798
-0.00382333
0.00386373
-0.000368546
-0.00354076
0.00357951
-0.000405232
-0.00328325
0.00331993
-0.00043956
-0.0030484
0.00308273
-0.00047134
-0.00283405
0.00286583
-0.000500464
-0.0026382
0.00266733
-0.000526901
-0.00245904
0.00248547
-0.000550687
-0.0022949
0.00231868
-0.000571918
-0.00214429
0.00216552
-0.000590737
-0.00200586
0.00202468
-0.000607331
-0.0018784
0.00189499
-0.000621923
-0.00176081
0.0017754
-0.000634767
-0.00165211
0.00166496
-0.000646138
-0.00155144
0.00156281
-0.000656328
-0.00145803
0.00146822
-0.000665641
-0.0013712
0.00138051
-0.000674385
-0.00129035
0.00129909
-0.000682866
-0.00121495
0.00122343
-0.00069138
-0.00114456
0.00115307
-0.000700221
-0.00107874
0.00108758
-0.0010171
0.00102656
-0.00070968
-7.50282e-06
-0.00797187
-2.59355e-05
-0.00731644
-5.23739e-05
-0.00671733
-8.45843e-05
-0.0061708
-0.000120702
-0.00567304
-0.000159168
-0.00522022
-0.000198688
-0.0048086
-0.000238198
-0.00443461
-0.000276838
-0.00409488
-0.000313922
-0.00378624
-0.000348914
-0.00350577
-0.000381411
-0.00325075
-0.000411125
-0.00301869
-0.00043787
-0.00280731
-0.000461547
-0.00261453
-0.000482133
-0.00243845
-0.000499675
-0.00227735
-0.00051428
-0.00212968
-0.000526105
-0.00199404
-0.000535353
-0.00186915
-0.000542264
-0.0017539
-0.00054711
-0.00164727
-0.000550189
-0.00154836
-0.000551817
-0.0014564
-0.000552323
-0.00137069
-0.000552042
-0.00129063
-0.000551307
-0.00121569
-0.000550445
-0.00114542
-0.000549777
-0.00107941
-0.00101725
-0.000549628
-7.11868e-06
-0.00796475
-2.49557e-05
-0.0072986
-5.05774e-05
-0.00669171
-8.16187e-05
-0.00613976
-0.000116145
-0.00563851
-0.000152559
-0.0051838
-0.000189548
-0.00477161
-0.00022604
-0.00439812
-0.000261168
-0.00405975
-0.000294244
-0.00375317
-0.000324735
-0.00347528
-0.00035224
-0.00322324
-0.000376475
-0.00299445
-0.000397258
-0.00278653
-0.000414495
-0.00259729
-0.000428173
-0.00242477
-0.000438347
-0.00226718
-0.000445134
-0.0021229
-0.000448704
-0.00199047
-0.000449275
-0.00186858
-0.000447105
-0.00175607
-0.000442486
-0.00165189
-0.00043574
-0.00155511
-0.000427208
-0.00146493
-0.000417249
-0.00138065
-0.000406228
-0.00130165
-0.000394512
-0.0012274
-0.000382464
-0.00115747
-0.000370443
-0.00109143
-0.00102888
-0.000358809
-6.87351e-06
-0.00795787
-2.40392e-05
-0.00728144
-4.85947e-05
-0.00666715
-7.81316e-05
-0.00611022
-0.00011067
-0.00560598
-0.000144582
-0.00514989
-0.000178536
-0.00473766
-0.00021145
-0.00436521
-0.00024245
-0.00402875
-0.000270849
-0.00372477
-0.000296112
-0.00345002
-0.00031784
-0.00320152
-0.000335752
-0.00297654
-0.000349669
-0.00277261
-0.000359503
-0.00258746
-0.000365245
-0.00241903
-0.000366958
-0.00226547
-0.000364768
-0.00212509
-0.000358857
-0.00199638
-0.000349456
-0.00187798
-0.00033684
-0.00176868
-0.000321324
-0.0016674
-0.000303252
-0.00157318
-0.000282995
-0.00148519
-0.000260943
-0.0014027
-0.000237499
-0.00132509
-0.000213068
-0.00125183
-0.000188053
-0.00118248
-0.000162859
-0.00111663
-0.00105385
-0.000137892
-6.64123e-06
-0.00795123
-2.3058e-05
-0.00726502
-4.63502e-05
-0.00664386
-7.40912e-05
-0.00608248
-0.000104275
-0.00557579
-0.000135256
-0.00511891
-0.000165686
-0.00470723
-0.000194476
-0.00433642
-0.00022075
-0.00400248
-0.000243817
-0.0037017
-0.000263144
-0.00343069
-0.000278334
-0.00318633
-0.000289105
-0.00296577
-0.000295283
-0.00276643
-0.000296781
-0.00258596
-0.000293594
-0.00242222
-0.000285791
-0.00227327
-0.000273504
-0.00213737
-0.000256924
-0.00201296
-0.000236297
-0.00189861
-0.000211914
-0.00179307
-0.000184109
-0.00169521
-0.000153251
-0.00160404
-0.000119743
-0.0015187
-8.40101e-05
-0.00143844
-4.64935e-05
-0.00136261
-7.64418e-06
-0.00129068
3.20859e-05
-0.00122221
7.22418e-05
-0.00115678
-0.00109397
0.000112361
-6.38437e-06
-0.00794485
-2.19567e-05
-0.00724945
-4.37992e-05
-0.00662202
-6.94719e-05
-0.00605681
-9.69549e-05
-0.00554831
-0.00012459
-0.00509128
-0.000151023
-0.00468079
-0.00017516
-0.00431228
-0.000196125
-0.00398151
-0.000213227
-0.0036846
-0.000225933
-0.00341798
-0.000233846
-0.00317841
-0.000236689
-0.00296293
-0.000234285
-0.00276884
-0.000226549
-0.00259369
-0.000213479
-0.00243529
-0.000195146
-0.0022916
-0.000171686
-0.00216083
-0.000143299
-0.00204135
-0.000110239
-0.00193167
-7.28146e-05
-0.00183049
-3.13771e-05
-0.00173664
1.36774e-05
-0.00164909
6.19167e-05
-0.00156694
0.000112878
-0.0014894
0.000166074
-0.00141581
0.000221006
-0.00134561
0.000277166
-0.00127837
0.000334039
-0.00121365
-0.00115102
0.000391095
-6.08936e-06
-0.00793876
-2.07098e-05
-0.00723483
-4.09163e-05
-0.00660181
-6.42565e-05
-0.00603347
-8.87025e-05
-0.00552386
-0.000112591
-0.00506739
-0.000134567
-0.00465882
-0.000153537
-0.00429331
-0.000168627
-0.00396642
-0.000179148
-0.00367408
-0.00018457
-0.00341256
-0.000184498
-0.00317848
-0.000178653
-0.00296877
-0.000166859
-0.00278063
-0.000149031
-0.00261152
-0.000125167
-0.00245915
-9.53352e-05
-0.00232143
-5.96766e-05
-0.00219649
-1.83939e-05
-0.00208263
2.82499e-05
-0.00197831
7.9936e-05
-0.00188218
0.000136293
-0.001793
0.000196903
-0.0017097
0.0002613
-0.00163133
0.000328985
-0.00155708
0.000399422
-0.00148625
0.000472058
-0.00141825
0.000546323
-0.00135263
0.00062163
-0.00128896
-0.00122677
0.000697377
-5.75224e-06
-0.00793301
-1.93058e-05
-0.00722127
-3.76877e-05
-0.00658343
-5.84338e-05
-0.00601272
-7.95129e-05
-0.00550278
-9.92625e-05
-0.00504764
-0.000116332
-0.00464175
-0.000129634
-0.00428001
-0.000138298
-0.00395776
-0.000141642
-0.00367073
-0.000139139
-0.00341506
-0.000130396
-0.00318723
-0.000115136
-0.00298403
-9.31806e-05
-0.00280259
-6.44436e-05
-0.00264026
-2.8918e-05
-0.00249468
1.33281e-05
-0.00236368
6.21572e-05
-0.00224532
0.000117365
-0.00213784
0.000178685
-0.00203963
0.00024579
-0.00194928
0.000318293
-0.0018655
0.000395753
-0.00178716
0.000477677
-0.00171326
0.000563523
-0.00164293
0.000652709
-0.00157543
0.000744621
-0.00151016
0.000838618
-0.00144663
0.000934037
-0.00138438
-0.00132292
0.00103019
-5.37189e-06
-0.00792763
-1.774e-05
-0.00720891
-3.41051e-05
-0.00656707
-5.19953e-05
-0.00599483
-6.93801e-05
-0.0054854
-8.46036e-05
-0.00503242
-9.63247e-05
-0.00463003
-0.000103465
-0.00427287
-0.000105166
-0.00395606
-0.000100753
-0.00367515
-8.97049e-05
-0.00342611
-7.16331e-05
-0.0032053
-4.62607e-05
-0.00300941
-1.34091e-05
-0.00283544
2.70129e-05
-0.00268068
7.5017e-05
-0.00254268
0.000130541
-0.0024192
0.000193453
-0.00230823
0.000263553
-0.00220794
0.000340574
-0.00211665
0.000424185
-0.00203289
0.000513988
-0.00195531
0.000609525
-0.0018827
0.000710274
-0.00181401
0.000815656
-0.00174831
0.000925036
-0.00168481
0.00103774
-0.00162286
0.00115304
-0.00156194
0.00127021
-0.00150155
-0.00144115
0.00138844
-4.94822e-06
-0.00792269
-1.60089e-05
-0.00719785
-3.01622e-05
-0.00655291
-4.49321e-05
-0.00598006
-5.82947e-05
-0.00547204
-6.86063e-05
-0.0050221
-7.45408e-05
-0.00462409
-7.50352e-05
-0.00427238
-6.92455e-05
-0.00396185
-5.6509e-05
-0.00368788
-3.63146e-05
-0.00344631
-8.27881e-06
-0.00323334
2.78729e-05
-0.00304556
7.23206e-05
-0.00287988
0.00012516
-0.00273352
0.000186411
-0.00260393
0.00025602
-0.00248881
0.000333865
-0.00238608
0.000419754
-0.00229383
0.000513427
-0.00221033
0.000614554
-0.00213402
0.000722733
-0.00206349
0.000837492
-0.00199746
0.000958286
-0.0019348
0.0010845
-0.00187452
0.00121545
-0.00181576
0.00135039
-0.0017578
0.00148853
-0.00170008
0.00162901
-0.00164203
-0.00158309
0.00177095
-4.48064e-06
-0.00791821
-1.41093e-05
-0.00718822
-2.58515e-05
-0.00654117
-3.72332e-05
-0.00596868
-4.62428e-05
-0.00546303
-5.12555e-05
-0.00501709
-5.0966e-05
-0.00462438
-4.43328e-05
-0.00427901
-3.05315e-05
-0.00397565
-8.91634e-06
-0.0037095
2.10107e-05
-0.00347623
5.96244e-05
-0.00327195
0.000107195
-0.00309313
0.000163904
-0.00293659
0.000229853
-0.00279947
0.000305069
-0.00267915
0.000389511
-0.00257326
0.000483072
-0.00247964
0.000585575
-0.00239633
0.00069677
-0.00232152
0.000816337
-0.00225359
0.000943878
-0.00219103
0.00107891
-0.00213249
0.00122088
-0.00207677
0.00136913
-0.00202277
0.00152294
-0.00196957
0.00168149
-0.00191636
0.00184391
-0.0018625
0.00200925
-0.00180737
-0.00175031
0.00217647
-3.96809e-06
-0.00791424
-1.20369e-05
-0.00718015
-2.11636e-05
-0.00653204
-2.88834e-05
-0.00596096
-3.32044e-05
-0.00545871
-3.25269e-05
-0.00501777
-2.55737e-05
-0.00463133
-1.13311e-05
-0.00429325
1.09997e-05
-0.00399798
4.20422e-05
-0.00374054
8.22766e-05
-0.00351647
0.000132065
-0.00332174
0.000191671
-0.00315273
0.000261276
-0.0030062
0.000340983
-0.00287918
0.000430833
-0.002769
0.000530799
-0.00267322
0.000640792
-0.00258963
0.000760652
-0.00251619
0.000890154
-0.00245102
0.00102899
-0.00239243
0.00117678
-0.00233882
0.00133304
-0.00228876
0.00149721
-0.00224093
0.0016686
-0.00219417
0.00184646
-0.00214743
0.00202991
-0.0020998
0.00221798
-0.00205056
0.0024096
-0.00199899
-0.00194434
0.00260363
-3.40915e-06
-0.00791083
-9.78553e-06
-0.00717377
-1.60865e-05
-0.00652574
-1.98637e-05
-0.00595718
-1.91527e-05
-0.00545942
-1.23871e-05
-0.00502453
1.67511e-06
-0.0046454
2.40128e-05
-0.00431559
5.53922e-05
-0.00402936
9.64084e-05
-0.00378156
0.000147518
-0.00356758
0.000209066
-0.00338329
0.000281304
-0.00322497
0.00036441
-0.0030893
0.000458491
-0.00297326
0.000563597
-0.0028741
0.000679718
-0.00278934
0.000806786
-0.0027167
0.000944669
-0.00265407
0.00109317
-0.00259952
0.001252
-0.00255126
0.00142081
-0.00250763
0.00159913
-0.00246708
0.0017864
-0.0024282
0.00198193
-0.0023897
0.00218492
-0.00235041
0.00239443
-0.00230932
0.00260941
-0.00226555
0.0028287
-0.00221828
-0.0021666
0.00305096
-2.80168e-06
-0.00790803
-7.34825e-06
-0.00716922
-1.06053e-05
-0.00652249
-1.01504e-05
-0.00595764
-4.05487e-06
-0.00546551
9.20627e-06
-0.0050378
3.08316e-05
-0.00466702
6.17573e-05
-0.00434651
0.00010271
-0.00407031
0.000154248
-0.0038331
0.0002168
-0.00363013
0.000290684
-0.00345717
0.000376138
-0.00331043
0.00047333
-0.00318649
0.000582367
-0.0030823
0.000703307
-0.00299504
0.000836159
-0.0029222
0.000980877
-0.00286142
0.00113736
-0.00281056
0.00130545
-0.00276761
0.0014849
-0.00273071
0.00167538
-0.00269811
0.00187646
-0.00266816
0.0020876
-0.00263934
0.0023081
-0.00261021
0.00253716
-0.00257946
0.00277377
-0.00254593
0.00301683
-0.0025086
0.00326502
-0.00246647
-0.00241847
0.00351689
-2.14325e-06
-0.00790588
-4.71647e-06
-0.00716665
-4.70331e-06
-0.0065225
2.8347e-07
-0.00596263
1.21273e-05
-0.00547736
3.23029e-05
-0.00505797
6.19568e-05
-0.00469668
0.000101974
-0.00438653
0.000153034
-0.00412137
0.000215651
-0.00389571
0.000290214
-0.00370469
0.000377012
-0.00354397
0.000476258
-0.00340967
0.000588104
-0.00329834
0.000712655
-0.00320685
0.000849971
-0.00313236
0.00100008
-0.0030723
0.00116295
-0.00302429
0.00133853
-0.00298614
0.0015267
-0.00295578
0.00172726
-0.00293127
0.00193993
-0.00291078
0.00216432
-0.00289256
0.00239993
-0.00287495
0.0026461
-0.00285637
0.00290199
-0.00283536
0.0031666
-0.00281054
0.00343873
-0.00278073
0.00371696
-0.0027447
-0.00270118
0.00399966
-1.431e-06
-0.00790445
-1.8808e-06
-0.0071662
1.63811e-06
-0.00652602
1.14675e-05
-0.00597246
2.94356e-05
-0.00549532
5.69575e-05
-0.00508549
9.51191e-05
-0.00473484
0.000144746
-0.00443616
0.000206459
-0.00418308
0.000280722
-0.00396998
0.000367877
-0.00379185
0.000468171
-0.00364426
0.000581786
-0.00352329
0.00070885
-0.0034254
0.000849454
-0.00334745
0.00100366
-0.00328656
0.0011715
-0.00324014
0.00135298
-0.00320577
0.00154807
-0.00318123
0.0017567
-0.00316441
0.00197873
-0.0031533
0.00221396
-0.003146
0.00246205
-0.00314065
0.00272257
-0.00313546
0.00299489
-0.00312869
0.0032782
-0.00311867
0.0035715
-0.00310384
0.00387352
-0.00308275
0.00418275
-0.00305393
-0.00301583
0.0044974
-6.62069e-07
-0.00790379
1.16838e-06
-0.00716803
8.43809e-06
-0.00653329
2.34319e-05
-0.00598745
4.7913e-05
-0.00551981
8.3227e-05
-0.00512081
0.00013039
-0.004782
0.000190158
-0.00449593
0.000263088
-0.00425601
0.000349581
-0.00405647
0.000449921
-0.00389219
0.000564308
-0.00375865
0.000692877
-0.00365186
0.000835725
-0.00356825
0.000992917
-0.00350464
0.0011645
-0.00345815
0.00135052
-0.00342616
0.00155099
-0.00340625
0.00176593
-0.00339616
0.00199531
-0.00339378
0.00223906
-0.00339706
0.00249705
-0.003404
0.00276905
-0.00341265
0.00305469
-0.0034211
0.00335343
-0.00342743
0.00366453
-0.00342977
0.00398698
-0.00342629
0.00431951
-0.00341527
0.0046605
-0.00339492
-0.00336335
0.00500802
1.66427e-07
-0.00790396
4.44048e-06
-0.00717231
1.57149e-05
-0.00654456
3.62061e-05
-0.00600794
6.76007e-05
-0.0055512
0.000111166
-0.00516437
0.000167838
-0.00483867
0.000238297
-0.00456639
0.000323023
-0.00434074
0.000422348
-0.00415579
0.000536488
-0.00400633
0.00066558
-0.00388774
0.000809708
-0.00379599
0.000968917
-0.00372746
0.00114324
-0.00367896
0.0013327
-0.00364761
0.00153732
-0.00363078
0.00175714
-0.00362607
0.00199219
-0.00363122
0.00224251
-0.0036441
0.00250809
-0.00366264
0.0027889
-0.0036848
0.00308481
-0.00370856
0.00339557
-0.00373186
0.00372076
-0.00375262
0.00405972
-0.00376874
0.00441152
-0.0037781
0.00477489
-0.00377864
0.00514817
-0.0037682
-0.00374444
0.00552926
1.05723e-06
-0.00790501
7.94409e-06
-0.00717919
2.34852e-05
-0.0065601
4.98154e-05
-0.00603427
8.85348e-05
-0.00558992
0.000140821
-0.00521666
0.000207524
-0.00490538
0.000289236
-0.0046481
0.000386355
-0.00443786
0.000499132
-0.00426857
0.000627707
-0.0041349
0.000772145
-0.00403218
0.000932458
-0.0039563
0.00110863
-0.00390364
0.00130065
-0.00387098
0.00150848
-0.00385544
0.00173214
-0.00385443
0.00197164
-0.00386557
0.00222704
-0.00388661
0.0024984
-0.00391546
0.00278581
-0.00395005
0.00308932
-0.00398832
0.00340894
-0.00402818
0.00374457
-0.00406749
0.00409593
-0.00410399
0.00446254
-0.00413534
0.00484356
-0.00415912
0.0052378
-0.00417288
0.00564357
-0.00417397
-0.00415954
0.00605867
2.01226e-06
-0.00790703
1.16859e-05
-0.00718887
3.17616e-05
-0.00658018
6.42799e-05
-0.00606679
0.000110742
-0.00563638
0.000172228
-0.00527814
0.00024949
-0.00498264
0.000343029
-0.00474164
0.000453152
-0.00454798
0.00058002
-0.00439544
0.000723688
-0.00427857
0.000884136
-0.00419263
0.0010613
-0.00413346
0.00125507
-0.00409742
0.00146538
-0.00408128
0.00169212
-0.00408219
0.00193526
-0.00409758
0.00219479
-0.00412509
0.00247075
-0.00416257
0.00276323
-0.00420794
0.00307237
-0.00425919
0.00339833
-0.00431427
0.00374125
-0.00437111
0.00410122
-0.00442746
0.00447818
-0.00448095
0.00487183
-0.00452899
0.00528156
-0.00456885
0.00570629
-0.00459761
0.0061444
-0.00461208
-0.00460873
0.0065936
3.03288e-06
-0.00791006
1.56703e-05
-0.0072015
4.05526e-05
-0.00660506
7.96111e-05
-0.00610585
0.000134237
-0.00569101
0.000205403
-0.00534931
0.000293757
-0.00507099
0.000399702
-0.00484758
0.000523446
-0.00467173
0.000665056
-0.00453705
0.000824493
-0.00443801
0.00100164
-0.00436978
0.00119634
-0.00432816
0.0014084
-0.00430948
0.00163764
-0.00431052
0.00188389
-0.00432844
0.00214703
-0.00436071
0.00242697
-0.00440504
0.00272373
-0.00445933
0.00303738
-0.0045216
0.00336811
-0.00458991
0.00371615
-0.00466231
0.00408179
-0.00473675
0.00446533
-0.00481099
0.00486694
-0.00488256
0.00528664
-0.00494869
0.0057241
-0.0050063
0.00617848
-0.00505199
0.00664831
-0.00508191
-0.0050917
0.00713127
4.11937e-06
-0.00791418
1.98992e-05
-0.00721728
4.98607e-05
-0.00663502
9.58104e-05
-0.0061518
0.000159017
-0.00575421
0.000240338
-0.00543063
0.000340312
-0.00517097
0.000459235
-0.0049665
0.000597216
-0.00480971
0.000754221
-0.00469406
0.000930112
-0.0046139
0.00112467
-0.00456434
0.00133764
-0.00454112
0.00156871
-0.00454055
0.00181759
-0.00455941
0.00208401
-0.00459486
0.00236773
-0.00464442
0.00266857
-0.00470588
0.00298645
-0.00477721
0.00332141
-0.00485656
0.0036736
-0.0049421
0.00404332
-0.00503203
0.00443097
-0.0051244
0.00483705
-0.00521707
0.00526205
-0.00530757
0.00570635
-0.005393
0.00617003
-0.00546998
0.00665265
-0.00553462
0.00715301
-0.00558227
-0.00560757
0.00766889
5.27124e-06
-0.00791945
2.43718e-05
-0.00723638
5.96831e-05
-0.00667033
0.000112869
-0.00620498
0.000185063
-0.00582641
0.000276998
-0.00552257
0.0003891
-0.00528307
0.000521557
-0.00509896
0.000674374
-0.00496253
0.000847417
-0.0048671
0.00104044
-0.00480692
0.00125313
-0.00477702
0.00148511
-0.00477309
0.00173596
-0.0047914
0.00200526
-0.00482871
0.0022926
-0.0048822
0.00259761
-0.00494943
0.00291996
-0.00502824
0.00325945
-0.00511671
0.00361599
-0.0052131
0.00398965
-0.00531576
0.0043807
-0.00542308
0.00478963
-0.00553332
0.00521709
-0.00564453
0.00566392
-0.00575439
0.00613092
-0.00586
0.00661873
-0.00595779
0.0071275
-0.00604339
0.00765651
-0.00611129
-0.00615484
0.00820378
6.48707e-06
-0.00792594
2.90862e-05
-0.00725898
7.00121e-05
-0.00671126
0.000130765
-0.00626573
0.000212332
-0.00590798
0.000315316
-0.00562555
0.000440023
-0.00540778
0.000586535
-0.00524547
0.000754753
-0.00513074
0.000944442
-0.00505679
0.00115526
-0.00501774
0.00138678
-0.00500854
0.00163851
-0.00502483
0.00190992
-0.00506281
0.00220046
-0.00511925
0.00250957
-0.00519131
0.00283671
-0.00527657
0.00318139
-0.00537291
0.00354319
-0.00547851
0.00392184
-0.00559175
0.00431725
-0.00571117
0.00472956
-0.00583539
0.00515919
-0.00596296
0.00560692
-0.00609227
0.00607383
-0.0062213
0.00656123
-0.00634739
0.00707045
-0.00646702
0.00760249
-0.00657543
0.00815744
-0.00666624
-0.00673118
0.00873379
7.76712e-06
-0.0079337
3.40428e-05
-0.00728526
8.08394e-05
-0.00675806
0.000149469
-0.00633436
0.000240762
-0.00599927
0.000355186
-0.00573997
0.00049293
-0.00554552
0.000653965
-0.00540651
0.000838093
-0.00531487
0.00104498
-0.00526367
0.00127418
-0.00524695
0.00152518
-0.00525954
0.00179739
-0.00529703
0.00209014
-0.00535557
0.00240277
-0.00543188
0.00273456
-0.0055231
0.0030848
-0.00562681
0.0034528
-0.00574091
0.00383791
-0.00586362
0.0042396
-0.00599344
0.00465749
-0.00612906
0.00509145
-0.00626935
0.00554172
-0.00641322
0.00600895
-0.0065595
0.00649436
-0.0067067
0.00699967
-0.00685271
0.00752704
-0.00699438
0.0080786
-0.00712699
0.00865575
-0.00724339
-0.0073333
0.00925786
9.11798e-06
-0.00794282
3.92526e-05
-0.00731539
9.21612e-05
-0.00681097
0.000168945
-0.00641115
0.000270271
-0.00610059
0.000396471
-0.00586617
0.000547615
-0.00569666
0.000723568
-0.00558246
0.000924032
-0.00551533
0.00114858
-0.00548822
0.00139668
-0.00549505
0.00166773
-0.00553059
0.00196103
-0.00559033
0.00227584
-0.00567038
0.00261136
-0.0057674
0.00296676
-0.0058785
0.00334116
-0.00600121
0.00373367
-0.00613342
0.00414341
-0.00627335
0.00456952
-0.00641955
0.00501127
-0.00657081
0.00546811
-0.0067262
0.00593984
-0.00688495
0.00642675
-0.0070464
0.00692982
-0.00720977
0.00745094
-0.00737384
0.00799298
-0.00753641
0.00855953
-0.00769354
0.00915398
-0.00783784
-0.00795656
0.00977724
1.05642e-05
-0.00795339
4.47498e-05
-0.00734958
0.000103987
-0.0068702
0.000189153
-0.00649631
0.000300755
-0.0062122
0.000438992
-0.00600441
0.000603817
-0.00586149
0.000794989
-0.00577363
0.00101211
-0.00573246
0.00125467
-0.00573078
0.00152205
-0.00576243
0.00181356
-0.0058221
0.00212844
-0.00590521
0.00246587
-0.00600782
0.00282498
-0.00612651
0.00320483
-0.00625835
0.00360442
-0.00640081
0.00402273
-0.00655172
0.00445864
-0.00670927
0.00491104
-0.00687195
0.00537879
-0.00703857
0.00586086
-0.00720826
0.00635636
-0.00738046
0.00686487
-0.00755491
0.00738665
-0.00773155
0.00792311
-0.00791029
0.00847724
-0.00809054
0.00905396
-0.00827026
0.00965949
-0.00844337
-0.00859453
0.0102975
1.21745e-05
-0.00796556
5.0617e-05
-0.00738802
0.000116348
-0.00693593
0.00021005
-0.00659002
0.000332089
-0.00633424
0.000482536
-0.00615486
0.000661225
-0.00604018
0.000867804
-0.00598021
0.00110178
-0.00596643
0.00136254
-0.00599154
0.0016494
-0.00604929
0.00196161
-0.0061343
0.00229834
-0.00624194
0.00265873
-0.0063682
0.00304186
-0.00650964
0.00344675
-0.00666324
0.00387238
-0.00682643
0.00431763
-0.00699697
0.00478131
-0.00717295
0.00526214
-0.00735277
0.00575871
-0.00753514
0.00626952
-0.00771907
0.00679304
-0.00790398
0.00732783
-0.0080897
0.00787285
-0.00827657
0.00842798
-0.00846542
0.00899493
-0.00865749
0.00957853
-0.00885386
0.0101879
-0.00905276
-0.00924149
0.0108349
1.4172e-05
-0.00797973
5.70538e-05
-0.0074309
0.000129314
-0.00700819
0.000231584
-0.00669229
0.000364117
-0.00646677
0.000526848
-0.00631759
0.000719476
-0.00623281
0.000941527
-0.00620226
0.0011924
-0.0062173
0.00147139
-0.00627053
0.00177773
-0.00635564
0.00211062
-0.00646719
0.00246918
-0.0066005
0.00285252
-0.00675155
0.00325973
-0.00691684
0.00368984
-0.00709336
0.00414187
-0.00727846
0.00461477
-0.00746986
0.00510741
-0.0076656
0.00561858
-0.00786394
0.00614691
-0.00806346
0.00669081
-0.00826297
0.00724843
-0.0084616
0.00781758
-0.00865885
0.00839579
-0.00885478
0.0089806
-0.00905023
0.00957033
-0.00924722
0.010166
-0.00944958
0.010777
-0.00966373
-0.00990242
0.0114379
1.73683e-05
-0.0079971
6.44465e-05
-0.00747798
0.000142944
-0.00708669
0.000253648
-0.00680299
0.000396628
-0.00660975
0.000571623
-0.00649259
0.000778162
-0.00643935
0.00101562
-0.00643972
0.00128328
-0.00648496
0.00158034
-0.00656759
0.00190594
-0.00668124
0.0022592
-0.00682045
0.00263923
-0.00698053
0.00304511
-0.00715743
0.00347594
-0.00734767
0.00393082
-0.00754824
0.00440887
-0.0077565
0.00490921
-0.00797021
0.00543099
-0.00818737
0.00597334
-0.0084063
0.00653539
-0.00862552
0.0071162
-0.00884378
0.00771468
-0.00906008
0.00832946
-0.00927363
0.00895871
-0.00948403
0.00959994
-0.00969146
0.0102497
-0.00989701
0.0109027
-0.0101026
0.0115541
-0.0103152
-0.0105576
0.0122093
0.0089921
4.60622e-05
-0.00903816
0.00894698
4.51155e-05
0.00890216
4.48223e-05
0.00885749
4.46685e-05
0.008813
4.44947e-05
0.00876875
4.42452e-05
0.00872485
4.38979e-05
0.00868141
4.34465e-05
0.00863852
4.28913e-05
0.00859628
4.22361e-05
0.00855479
4.14858e-05
0.00851415
4.06459e-05
0.00847443
3.97227e-05
0.0084357
3.87221e-05
0.00839805
3.76502e-05
0.00836154
3.65129e-05
0.00832622
3.53161e-05
0.00829216
3.40655e-05
0.00825939
3.27662e-05
0.00822797
3.14234e-05
0.00819793
3.00418e-05
0.0081693
2.8626e-05
0.00814212
2.71803e-05
0.00811641
2.57089e-05
0.0080922
2.42139e-05
0.00806951
2.26919e-05
0.00804838
2.11239e-05
0.00802893
1.94503e-05
0.00801147
1.74638e-05
1.43669e-05
0.0102827
0.000164576
-0.0104012
0.010163
0.000164793
0.0100427
0.000165124
0.00992209
0.000165316
0.00980136
0.000165222
0.00968083
0.000164774
0.00956079
0.000163938
0.00944153
0.000162705
0.00932335
0.000161076
0.00920652
0.000159064
0.00909133
0.000156682
0.00897802
0.000153949
0.00886686
0.000150885
0.00875807
0.00014751
0.00865188
0.000143845
0.00854848
0.000139911
0.00844807
0.000135729
0.00835081
0.000131318
0.00825688
0.000126698
0.00816642
0.000121888
0.00807955
0.000116903
0.00799642
0.000111761
0.00791712
0.000106476
0.00784177
0.00010106
0.00777047
9.55217e-05
0.0077033
8.98562e-05
0.00764039
8.40363e-05
0.00758185
7.79853e-05
0.00752781
7.15076e-05
6.41945e-05
0.0115385
0.000343539
-0.0117174
0.0113567
0.00034653
0.011173
0.000348846
0.0109879
0.000350423
0.0108019
0.000351188
0.0106156
0.000351098
0.0104294
0.00035013
0.0102439
0.000348282
0.0100594
0.000345566
0.00987642
0.000342003
0.00969548
0.000337625
0.00951696
0.000332466
0.00934128
0.000326564
0.00916883
0.000319961
0.00899998
0.000312699
0.00883507
0.000304821
0.00867443
0.000296368
0.00851837
0.000287383
0.00836716
0.000277904
0.00822108
0.000267972
0.00808036
0.00025762
0.00794524
0.000246884
0.00781592
0.000235795
0.0076926
0.00022438
0.00757546
0.000212662
0.00746466
0.000200651
0.00736036
0.000188341
0.00726265
0.000175693
0.00717153
0.000162624
0.000149036
0.0127497
0.000572218
-0.0129784
0.0125167
0.000579576
0.0122801
0.000585407
0.0120408
0.00058972
0.0117995
0.000592495
0.0115569
0.000593719
0.0113137
0.000593388
0.0110704
0.000591515
0.0108279
0.000588126
0.0105866
0.000583259
0.0103473
0.000576963
0.0101104
0.000569291
0.0098767
0.000560307
0.00964659
0.000550074
0.00942063
0.000538662
0.00919931
0.000526139
0.0089831
0.000512574
0.00877245
0.000498036
0.00856776
0.00048259
0.00836944
0.0004663
0.00817783
0.000449226
0.00799329
0.000431427
0.00781613
0.000412957
0.00764664
0.000393866
0.0074851
0.000374202
0.00733175
0.000354005
0.00718678
0.000333308
0.00705034
0.000312136
0.00692245
0.00029051
0.000268496
0.0139086
0.000840865
-0.0141772
0.0136338
0.000854343
0.0133538
0.00086538
0.0130696
0.000873997
0.0127818
0.000880202
0.0124916
0.000883999
0.0121996
0.000885404
0.0119066
0.000884443
0.0116136
0.000881158
0.0113212
0.000875604
0.0110304
0.000867848
0.0107417
0.000857967
0.0104559
0.000846047
0.0101738
0.00083218
0.00989604
0.000816462
0.00962319
0.000798991
0.0093559
0.000779867
0.00909474
0.000759188
0.00884028
0.00073705
0.00859304
0.000713546
0.0083535
0.000688766
0.00812213
0.000662795
0.00789937
0.000635717
0.00768562
0.000607613
0.00748126
0.000578562
0.00728662
0.000548645
0.00710198
0.000517947
0.00692756
0.00048656
0.00676347
0.000454596
0.000422222
0.0150087
0.00114076
-0.0153086
0.0147008
0.00116224
0.0143859
0.0011803
0.014065
0.00119495
0.013739
0.0012062
0.0134089
0.00121406
0.0130757
0.00121856
0.0127405
0.00121973
0.012404
0.00121762
0.0120673
0.00121231
0.0117313
0.00120388
0.0113968
0.00119243
0.0110648
0.00117806
0.0107361
0.0011609
0.0104115
0.00114107
0.0100917
0.0011187
0.00977768
0.00109393
0.00946999
0.00106687
0.00916938
0.00103767
0.00887649
0.00100644
0.00859195
0.000973304
0.00831636
0.000938385
0.00805028
0.000901794
0.00779425
0.000863646
0.00754875
0.000824061
0.00731423
0.000783165
0.00709108
0.0007411
0.00687961
0.000698026
0.00668006
0.000654142
0.000609699
0.0160457
0.00146412
-0.016369
0.0157123
0.00149557
0.0153701
0.00152256
0.0150199
0.00154508
0.014663
0.00156314
0.0143003
0.00157672
0.013933
0.00158587
0.0135622
0.0015906
0.0131888
0.00159099
0.012814
0.00158711
0.0124388
0.00157905
0.0120643
0.00156695
0.0116914
0.00155092
0.0113212
0.00153112
0.0109546
0.00150769
0.0105925
0.00148079
0.0102359
0.00145058
0.00988551
0.00141724
0.00954227
0.00138091
0.00920695
0.00134176
0.00888031
0.00129994
0.0085631
0.0012556
0.00825601
0.00120888
0.00795971
0.00115995
0.00767481
0.00110895
0.00740191
0.00105607
0.00714151
0.0010015
0.00689405
0.000945479
0.00665991
0.000888287
0.000830264
0.0170163
0.00180407
-0.0173562
0.0166644
0.00184745
0.0163016
0.00188532
0.0159291
0.00191763
0.0155479
0.00194434
0.0151592
0.00196542
0.0147642
0.00198091
0.014364
0.00199081
0.0139598
0.00199519
0.0135527
0.00199414
0.013144
0.00198775
0.0127348
0.00197616
0.0123262
0.00195951
0.0119194
0.00193797
0.0115154
0.00191171
0.0111152
0.00188092
0.01072
0.0018458
0.0103307
0.00180654
0.0099483
0.00176332
0.00957371
0.00171635
0.00920785
0.0016658
0.0088516
0.00161185
0.0085058
0.00155468
0.00817126
0.00149449
0.00784876
0.00143146
0.00753902
0.00136581
0.0072427
0.00129782
0.00696039
0.00122778
0.0066926
0.00115608
0.00108314
0.0179189
0.00215452
-0.0182693
0.0175545
0.0022118
0.0171774
0.0022625
0.0167885
0.00230651
0.0163891
0.00234376
0.0159803
0.0023742
0.0155634
0.00239781
0.0151396
0.0024146
0.0147102
0.00242463
0.0142763
0.00242795
0.0138394
0.00242469
0.0134006
0.00241497
0.0129612
0.00239894
0.0125223
0.0023768
0.0120853
0.00234873
0.0116513
0.00231495
0.0112214
0.00227568
0.0107968
0.00223113
0.0103786
0.00218154
0.00996782
0.00212711
0.00956557
0.00206805
0.00917284
0.00200458
0.00879063
0.0019369
0.0084199
0.00186522
0.00806158
0.00178977
0.00771657
0.00171082
0.0073857
0.00162869
0.00706972
0.00154377
0.00676929
0.00145651
0.00136747
0.0187528
0.00251016
-0.0191085
0.0183814
0.00258323
0.0179952
0.00264866
0.0175954
0.00270628
0.0171832
0.00275597
0.0167598
0.00279763
0.0163264
0.00283122
0.0158843
0.0028567
0.0154348
0.0028741
0.0149793
0.00288349
0.014519
0.00288494
0.0140554
0.0028786
0.0135897
0.00286463
0.0131233
0.00284321
0.0126575
0.00281455
0.0121935
0.00277889
0.0117328
0.00273645
0.0112764
0.0026875
0.0108257
0.00263226
0.0103818
0.00257099
0.00994592
0.00250391
0.00951924
0.00243125
0.0091029
0.00235324
0.00869801
0.0022701
0.00830569
0.00218209
0.00792699
0.00208952
0.00756295
0.00199274
0.00721449
0.00189222
0.00688247
0.00178853
0.00168236
0.0195185
0.00286642
-0.0198747
0.0191446
0.00295708
0.0187542
0.00303906
0.0183484
0.00311214
0.0179282
0.00317613
0.017495
0.00323087
0.0170499
0.00327628
0.0165943
0.00331228
0.0161296
0.00333885
0.015657
0.00335604
0.015178
0.00336392
0.0146941
0.00336259
0.0142065
0.00335223
0.0137167
0.003333
0.0132261
0.00330514
0.0127361
0.00326888
0.0122481
0.00322448
0.0117634
0.00317219
0.0112833
0.00311229
0.0108093
0.00304502
0.0103426
0.00297064
0.00988446
0.00288937
0.00943624
0.00280146
0.00899922
0.00270713
0.00857467
0.00260664
0.00816386
0.00250033
0.00776801
0.00238859
0.00738828
0.00227195
0.00702573
0.00215109
0.00202684
0.020217
0.00321938
-0.02057
0.0198448
0.00332929
0.0194543
0.00342955
0.0190466
0.00351985
0.0186228
0.00359992
0.0181842
0.00366957
0.0177318
0.00372862
0.0172671
0.00377695
0.0167915
0.00381452
0.0163062
0.0038413
0.0158128
0.00385735
0.0153126
0.00386275
0.0148072
0.00385765
0.014298
0.00384222
0.0137865
0.00381667
0.0132741
0.00378126
0.0127623
0.00373624
0.0122526
0.0036819
0.0117464
0.00361849
0.0112451
0.00354628
0.0107502
0.00346553
0.0102631
0.00337647
0.00978529
0.00327932