/*--------------------------------*- C++ -*----------------------------------*\
| =========                 |                                                 |
| \\      /  F ield         | OpenFOAM: The Open Source CFD Toolbox           |
|  \\    /   O peration     | Version:  v1912                                 |
|   \\  /    A nd           | Website:  www.openfoam.com                      |
|    \\/     M anipulation  |                                                 |
\*---------------------------------------------------------------------------*/
FoamFile
{
    version     2.0;
    format      ascii;
    class       volScalarField;
    location    "14";
    object      p;
}
// * * * * * * * * * * * * * * * * * * * * * * * * * * * * * * * * * * * * * //

dimensions      [0 2 -2 0 0 0 0];


internalField   nonuniform List<scalar> 
9600
(
-40.371
-35.0543
-31.778
-28.9925
-26.455
-24.1709
-22.1098
-20.2421
-18.5482
-17.0128
-15.6214
-14.3607
-13.2183
-12.1826
-11.2426
-10.3886
-9.6117
-8.90363
-8.25661
-7.66873
-41.0215
-35.6914
-32.3845
-29.5623
-26.986
-24.6641
-22.5677
-20.6679
-18.9454
-17.3847
-15.9711
-14.6912
-13.5319
-12.4813
-11.5282
-10.6625
-9.87507
-9.1573
-8.50107
-7.9057
-41.6749
-36.3257
-32.9867
-30.1277
-27.5125
-25.1527
-23.021
-21.0892
-19.3383
-17.7525
-16.3172
-15.0181
-13.8422
-12.777
-11.8109
-10.9337
-10.1359
-9.40848
-8.74308
-8.1404
-42.3281
-36.957
-33.5846
-30.6881
-28.0337
-25.6359
-23.4689
-21.5053
-19.7261
-18.1157
-16.6587
-15.3409
-14.1486
-13.069
-12.0903
-11.2017
-10.3937
-9.65675
-8.98229
-8.37252
-42.9785
-37.584
-34.1772
-31.2427
-28.5487
-26.1128
-23.9106
-21.9154
-20.1083
-18.4734
-16.9953
-15.659
-14.4507
-13.357
-12.3659
-11.4662
-10.648
-9.90175
-9.21837
-8.60183
-43.6242
-38.2054
-34.7637
-31.7904
-29.0567
-26.5826
-24.3454
-22.3188
-20.4841
-18.8251
-17.3261
-15.9718
-14.7478
-13.6403
-12.637
-11.7265
-10.8986
-10.1431
-9.45102
-8.82807
-44.2635
-38.8201
-35.3428
-32.3304
-29.5568
-27.0445
-24.7724
-22.7146
-20.8527
-19.1701
-17.6506
-16.2787
-15.0393
-13.9185
-12.9033
-11.9823
-11.1449
-10.3805
-9.67992
-9.05098
-44.8952
-39.4267
-35.9136
-32.8617
-30.048
-27.4977
-25.1908
-23.1022
-21.2134
-19.5075
-17.9681
-16.5789
-15.3246
-14.1908
-13.1642
-12.233
-11.3864
-10.6134
-9.90471
-9.27025
-45.518
-40.0241
-36.475
-33.3833
-30.5294
-27.9411
-25.5998
-23.4808
-21.5655
-19.8368
-18.2778
-16.8719
-15.6031
-14.4567
-13.4191
-12.4782
-11.6228
-10.8415
-10.125
-9.48556
-46.131
-40.6114
-37.0261
-33.8943
-31.0002
-28.3741
-25.9986
-23.8495
-21.9082
-20.1572
-18.5791
-17.1568
-15.874
-14.7155
-13.6673
-12.717
-11.8532
-11.0642
-10.3403
-9.69648
-46.733
-41.1876
-37.5658
-34.3938
-31.4595
-28.7957
-26.3863
-24.2076
-22.2407
-20.4679
-18.8712
-17.4331
-16.1366
-14.9664
-13.908
-12.9488
-12.0772
-11.2807
-10.5499
-9.90241
-47.3235
-41.7517
-38.0933
-34.8809
-31.9064
-29.2052
-26.7623
-24.5543
-22.5623
-20.7682
-19.1533
-17.6997
-16.3901
-15.2086
-14.1405
-13.1728
-12.2937
-11.4903
-10.7532
-10.1026
-47.9016
-42.3031
-38.6077
-35.3548
-32.3402
-29.6017
-27.1257
-24.8889
-22.8723
-21.0572
-19.4246
-17.956
-16.6336
-15.4411
-14.3637
-13.388
-12.5019
-11.6922
-10.9492
-10.2963
-48.4669
-42.8409
-39.1085
-35.8149
-32.7602
-29.9847
-27.4759
-25.2107
-23.1699
-21.3342
-19.6843
-18.2009
-16.866
-15.6629
-14.5764
-13.5931
-12.7005
-11.8849
-11.1369
-10.4827
-49.019
-43.3645
-39.5947
-36.2603
-33.1656
-30.3535
-27.8123
-25.5191
-23.4544
-21.5986
-19.9316
-18.4338
-17.0865
-15.8729
-14.7774
-13.7865
-12.8876
-12.0666
-11.3142
-10.6601
-49.5574
-43.8732
-40.0657
-36.6906
-33.5561
-30.7076
-28.1343
-25.8136
-23.7255
-21.8498
-20.1659
-18.6537
-17.2943
-16.0701
-14.9656
-13.967
-13.0617
-12.2353
-11.4786
-10.8236
-50.0834
-44.3668
-40.5209
-37.105
-33.9308
-31.0462
-28.4414
-26.0936
-23.9825
-22.0873
-20.3867
-18.8602
-17.4884
-16.2535
-15.1399
-14.1337
-13.2222
-12.3908
-11.6291
-10.9704
-50.6014
-44.8465
-40.9595
-37.5024
-34.2888
-31.3687
-28.7331
-26.3589
-24.2252
-22.3107
-20.5935
-19.0525
-17.6679
-16.4218
-15.2984
-14.2842
-13.3668
-12.5305
-11.7644
-11.1097
-51.1136
-45.3119
-41.3799
-37.8817
-34.6299
-31.6753
-29.0096
-26.6096
-24.4539
-22.5205
-20.7867
-19.2308
-17.8325
-16.5737
-15.4383
-14.4133
-13.4855
-12.6396
-11.8718
-11.2448
-51.5981
-45.7552
-41.7812
-38.2436
-34.9551
-31.9673
-29.2725
-26.8475
-24.6705
-22.7185
-20.9683
-19.3973
-17.9847
-16.7116
-15.5615
-14.5198
-13.5719
-12.7039
-11.9269
-11.3046
-56.4386
-56.4099
-56.3466
-56.2632
-56.1589
-56.031
-55.8792
-55.7038
-55.5055
-55.2847
-55.042
-54.7779
-54.4932
-54.1886
-53.8647
-53.5226
-53.1634
-52.7887
-52.4017
-52.0053
-50.1671
-50.1652
-50.1331
-50.0765
-49.996
-49.891
-49.7616
-49.6087
-49.433
-49.2349
-49.0151
-48.7742
-48.513
-48.2319
-47.9317
-47.613
-47.2766
-46.923
-46.5529
-46.1643
-45.648
-45.668
-45.6615
-45.629
-45.5718
-45.4907
-45.3863
-45.2592
-45.1101
-44.9394
-44.7479
-44.5359
-44.3043
-44.0534
-43.7838
-43.496
-43.1903
-42.8669
-42.5254
-42.1641
-41.5614
-41.5972
-41.6088
-41.596
-41.5596
-41.5004
-41.4193
-41.3167
-41.1932
-41.0493
-40.8855
-40.7024
-40.5005
-40.2803
-40.0422
-39.7865
-39.5135
-39.2231
-38.9151
-38.5888
-37.8038
-37.8481
-37.8707
-37.8712
-37.8496
-37.8069
-37.7437
-37.6605
-37.5578
-37.4361
-37.2958
-37.1375
-36.9617
-36.7688
-36.5591
-36.333
-36.0905
-35.8318
-35.5566
-35.2647
-34.4431
-34.4909
-34.5191
-34.5272
-34.515
-34.4832
-34.4324
-34.3632
-34.2758
-34.171
-34.049
-33.9105
-33.7558
-33.5854
-33.3996
-33.1987
-32.9829
-32.7521
-32.5062
-32.2449
-31.4647
-31.5125
-31.5424
-31.5537
-31.5463
-31.5209
-31.4779
-31.4179
-31.3413
-31.2485
-31.1401
-31.0164
-30.8781
-30.7254
-30.5588
-30.3786
-30.1849
-29.9777
-29.7569
-29.5222
-28.8305
-28.8757
-28.9044
-28.9159
-28.9102
-28.8878
-28.8492
-28.7949
-28.7252
-28.6407
-28.5418
-28.429
-28.3029
-28.1638
-28.0123
-27.8485
-27.6729
-27.4852
-27.2855
-27.0733
-26.5005
-26.5418
-26.5676
-26.5775
-26.5714
-26.5498
-26.5132
-26.462
-26.3966
-26.3175
-26.2252
-26.1202
-26.003
-25.8742
-25.7343
-25.5836
-25.4225
-25.2509
-25.0688
-24.8757
-24.4361
-24.4727
-24.4949
-24.5021
-24.4945
-24.4723
-24.4362
-24.3864
-24.3235
-24.2478
-24.16
-24.0605
-23.9499
-23.8289
-23.6979
-23.5576
-23.4082
-23.25
-23.0827
-22.906
-22.601
-22.633
-22.6512
-22.6554
-22.6456
-22.6222
-22.5857
-22.5364
-22.4747
-22.4012
-22.3164
-22.2208
-22.115
-21.9999
-21.8759
-21.7438
-21.604
-21.457
-21.3025
-21.1401
-20.9636
-20.9909
-21.0053
-21.0063
-20.9942
-20.9693
-20.9319
-20.8825
-20.8215
-20.7493
-20.6665
-20.5737
-20.4716
-20.3609
-20.2423
-20.1168
-19.9851
-19.8475
-19.7043
-19.5548
-19.4962
-19.5193
-19.5301
-19.5282
-19.5138
-19.4872
-19.4489
-19.3991
-19.3383
-19.267
-19.1856
-19.0949
-18.9954
-18.8881
-18.7739
-18.6537
-18.5285
-18.3991
-18.266
-18.1285
-18.1757
-18.1951
-18.2026
-18.198
-18.1815
-18.1534
-18.1141
-18.0638
-18.0031
-17.9323
-17.852
-17.7628
-17.6654
-17.5607
-17.4497
-17.3337
-17.214
-17.0917
-16.9678
-16.8417
-16.9828
-16.9987
-17.0032
-16.9962
-16.9779
-16.9484
-16.9082
-16.8576
-16.7969
-16.7265
-16.647
-16.5589
-16.4631
-16.3603
-16.2518
-16.139
-16.0236
-15.9072
-15.7919
-15.6769
-15.901
-15.9139
-15.9158
-15.9067
-15.8866
-15.856
-15.815
-15.764
-15.7033
-15.6333
-15.5544
-15.4673
-15.3726
-15.2712
-15.1644
-15.0537
-14.9414
-14.8296
-14.7221
-14.618
-14.9167
-14.9269
-14.9265
-14.9155
-14.894
-14.8623
-14.8207
-14.7693
-14.7086
-14.6388
-14.5604
-14.4739
-14.3799
-14.2793
-14.1733
-14.0636
-13.953
-13.844
-13.7429
-13.6485
-14.0182
-14.0261
-14.024
-14.0115
-13.989
-13.9566
-13.9145
-13.863
-13.8023
-13.7328
-13.6549
-13.5689
-13.4754
-13.3751
-13.2692
-13.1593
-13.0487
-12.9407
-12.8448
-12.7575
-13.1943
-13.201
-13.198
-13.185
-13.1624
-13.1301
-13.0886
-13.0379
-12.9784
-12.9102
-12.8337
-12.7493
-12.6573
-12.5584
-12.4533
-12.3436
-12.2323
-12.124
-12.0334
-11.9573
-12.4398
-12.4435
-12.438
-12.4233
-12.3995
-12.3668
-12.3253
-12.2753
-12.2169
-12.1503
-12.0758
-11.9936
-11.904
-11.8074
-11.7042
-11.5955
-11.4826
-11.3705
-11.2746
-11.2191
-50.7613
-51.2758
-51.7563
-52.2249
-52.6786
-53.1114
-53.5206
-53.9051
-54.2641
-54.5967
-54.9021
-55.1797
-55.4295
-55.6512
-55.8446
-56.0094
-56.146
-56.2555
-56.3399
-56.4014
-44.3739
-44.8946
-45.3899
-45.8658
-46.3217
-46.7553
-47.1652
-47.5508
-47.9115
-48.2466
-48.5554
-48.8376
-49.0931
-49.3222
-49.5253
-49.7012
-49.8493
-49.9699
-50.0637
-50.1297
-39.8597
-40.3696
-40.8586
-41.3269
-41.7743
-42.2001
-42.6038
-42.9845
-43.3418
-43.6756
-43.9843
-44.2676
-44.5258
-44.7583
-44.9639
-45.1435
-45.2977
-45.4261
-45.5282
-45.6026
-35.8716
-36.3592
-36.8294
-37.2804
-37.7117
-38.1228
-38.5135
-38.8831
-39.231
-39.5562
-39.8584
-40.1363
-40.3912
-40.6225
-40.8297
-41.0129
-41.1722
-41.3072
-41.4173
-41.5021
-32.3231
-32.784
-33.2298
-33.6583
-34.0683
-34.4597
-34.8318
-35.1842
-35.516
-35.8267
-36.1167
-36.3863
-36.6336
-36.8586
-37.0615
-37.2421
-37.4002
-37.5356
-37.6481
-37.7377
-29.241
-29.6739
-30.0935
-30.4971
-30.8837
-31.2527
-31.6039
-31.9366
-32.2503
-32.5448
-32.8199
-33.0753
-33.3099
-33.524
-33.7181
-33.8918
-34.0443
-34.1757
-34.2861
-34.3754
-26.573
-26.9788
-27.3721
-27.7508
-28.1135
-28.4598
-28.7893
-29.1015
-29.396
-29.6725
-29.9307
-30.1703
-30.3909
-30.5924
-30.774
-30.9382
-31.083
-31.2078
-31.3129
-31.3988
-24.2548
-24.6352
-25.0039
-25.3587
-25.6986
-26.023
-26.3313
-26.6234
-26.8987
-27.1569
-27.3979
-27.6215
-27.8275
-28.0158
-28.1862
-28.3373
-28.4726
-28.5895
-28.688
-28.7684
-22.2306
-22.5877
-22.9337
-23.2667
-23.5853
-23.8891
-24.1777
-24.4506
-24.7076
-24.9484
-25.1729
-25.381
-25.5725
-25.7474
-25.9055
-26.0469
-26.1703
-26.2784
-26.3695
-26.4436
-20.4523
-20.7886
-21.1142
-21.4273
-21.7266
-22.0116
-22.2818
-22.537
-22.777
-23.0016
-23.2107
-23.4042
-23.582
-23.7441
-23.8904
-24.0208
-24.1353
-24.2338
-24.3171
-24.3847
-18.88
-19.1977
-19.5052
-19.8006
-20.0825
-20.3503
-20.6039
-20.8429
-21.0673
-21.2769
-21.4718
-21.6518
-21.8169
-21.9672
-22.1025
-22.2228
-22.3281
-22.4183
-22.4941
-22.5552
-17.4812
-17.7824
-18.074
-18.3536
-18.6199
-18.8723
-19.1106
-19.3349
-19.5451
-19.741
-19.9229
-20.0906
-20.2441
-20.3835
-20.5088
-20.6198
-20.7167
-20.7995
-20.868
-20.9229
-16.2294
-16.5162
-16.7939
-17.0597
-17.3119
-17.5502
-17.7748
-17.9856
-18.1827
-18.3662
-18.5361
-18.6926
-18.8357
-18.9653
-19.0814
-19.184
-19.2732
-19.3489
-19.411
-19.4604
-15.1033
-15.3774
-15.6435
-15.897
-16.1364
-16.3619
-16.5738
-16.7722
-16.9574
-17.1294
-17.2886
-17.4349
-17.5684
-17.6891
-17.797
-17.892
-17.9742
-18.0437
-18.1006
-18.1444
-14.0857
-14.3492
-14.6054
-14.8481
-15.0758
-15.2894
-15.4894
-15.6764
-15.8505
-16.0121
-16.1613
-16.2983
-16.4232
-16.5358
-16.6362
-16.7245
-16.8005
-16.8643
-16.9159
-16.9553
-13.162
-13.4181
-13.6667
-13.8992
-14.1157
-14.3181
-14.5071
-14.6832
-14.847
-14.9988
-15.1389
-15.2675
-15.3844
-15.4897
-15.5834
-15.6654
-15.7358
-15.7945
-15.8415
-15.8769
-12.3149
-12.5704
-12.8151
-13.0378
-13.2434
-13.4351
-13.6135
-13.7794
-13.9335
-14.0764
-14.2082
-14.329
-14.4388
-14.5375
-14.6251
-14.7016
-14.7669
-14.8211
-14.864
-14.8957
-11.5238
-11.7843
-12.0311
-12.2459
-12.4412
-12.6229
-12.7916
-12.9484
-13.0942
-13.2292
-13.3539
-13.4681
-13.5719
-13.6651
-13.7477
-13.8196
-13.8808
-13.9313
-13.971
-14.0003
-10.7973
-11.0525
-11.3019
-11.5129
-11.6997
-11.8717
-12.0316
-12.1803
-12.3185
-12.4468
-12.5652
-12.6739
-12.7726
-12.8612
-12.9397
-13.0079
-13.0659
-13.1135
-13.1508
-13.1778
-10.2511
-10.4904
-10.7078
-10.9101
-11.0865
-11.2431
-11.3886
-11.5247
-11.6512
-11.7684
-11.8766
-11.9757
-12.0655
-12.1459
-12.2167
-12.278
-12.3297
-12.3717
-12.4039
-12.4264
-5.28572
-5.74658
-6.25526
-6.80943
-7.41585
-8.08222
-8.81659
-9.62878
-10.5313
-11.5399
-12.6749
-13.9628
-15.4379
-17.1443
-19.1393
-21.4981
-24.2975
-27.5576
-31.494
-37.4391
-5.53308
-6.00536
-6.52262
-7.08672
-7.70457
-8.38357
-9.13191
-9.95966
-10.8795
-11.9076
-13.0645
-14.3771
-15.8799
-17.6176
-19.6476
-22.045
-24.8856
-28.1867
-32.1569
-38.1197
-5.7822
-6.26594
-6.7919
-7.36617
-7.99569
-8.68757
-9.45013
-10.2937
-11.2312
-12.279
-13.4582
-14.7957
-16.3266
-18.0959
-20.1612
-22.5971
-25.4786
-28.8197
-32.8219
-38.798
-6.03262
-6.52779
-7.06254
-7.64719
-8.28859
-8.99356
-9.77056
-10.6301
-11.5855
-12.6533
-13.8549
-15.2176
-16.7768
-18.5779
-20.6785
-23.153
-26.0751
-29.4562
-33.4915
-39.4857
-6.28391
-6.79047
-7.3341
-7.92934
-8.58282
-9.30106
-10.0927
-10.9685
-11.9419
-13.0299
-14.254
-15.642
-17.2297
-19.0627
-21.1987
-23.7117
-26.6744
-30.0956
-34.1648
-40.1803
-6.53573
-7.05359
-7.60618
-8.21221
-8.87798
-9.60965
-10.416
-11.3082
-12.2998
-13.4081
-14.6549
-16.0685
-17.6848
-19.5497
-21.7211
-24.2728
-27.276
-30.737
-34.8399
-40.8779
-6.78777
-7.31681
-7.87844
-8.49545
-9.17366
-9.91893
-10.7402
-11.6489
-12.6588
-13.7875
-15.0572
-16.4963
-18.1413
-20.0383
-22.2452
-24.8354
-27.8789
-31.3796
-35.5155
-41.5763
-7.03981
-7.57987
-8.15057
-8.77872
-9.46953
-10.2285
-11.0648
-11.99
-13.0184
-14.1676
-15.4602
-16.9249
-18.5987
-20.5277
-22.7701
-25.3986
-28.4823
-32.0222
-36.1905
-42.2741
-7.29169
-7.84256
-8.42232
-9.06175
-9.76527
-10.538
-11.3894
-12.3312
-13.378
-14.5477
-15.8632
-17.3537
-19.0562
-21.0172
-23.2949
-25.9617
-29.0851
-32.6638
-36.8639
-42.97
-7.54337
-8.10478
-8.69354
-9.34435
-10.0606
-10.8472
-11.7136
-12.672
-13.7372
-14.9274
-16.2658
-17.7819
-19.513
-21.506
-23.8188
-26.5235
-29.6864
-33.3034
-37.5343
-43.6627
-7.79493
-8.36652
-8.96416
-9.62636
-10.3554
-11.1556
-12.037
-13.012
-14.0955
-15.3061
-16.6673
-18.2089
-19.9685
-21.9932
-24.341
-27.0833
-30.2851
-33.9398
-38.2006
-44.3507
-8.04665
-8.62793
-9.23418
-9.90769
-10.6493
-11.4632
-12.3594
-13.3507
-14.4524
-15.6832
-17.067
-18.6339
-20.4219
-22.4781
-24.8605
-27.6399
-30.8801
-34.5719
-38.8615
-45.0327
-8.29892
-8.88922
-9.50366
-10.1882
-10.9423
-11.7694
-12.6802
-13.6877
-14.8073
-16.0581
-17.4643
-19.0563
-20.8723
-22.9597
-25.3763
-28.1925
-31.4705
-35.1985
-39.5159
-45.7075
-8.55235
-9.15069
-9.77263
-10.4679
-11.2339
-12.074
-12.999
-14.0223
-15.1595
-16.4301
-17.8584
-19.4751
-21.3189
-23.4371
-25.8876
-28.7398
-32.0549
-35.8186
-40.1626
-46.374
-8.80754
-9.4125
-10.041
-10.7462
-11.5237
-12.3763
-13.3152
-14.3539
-15.5084
-16.7984
-18.2485
-19.8897
-21.7608
-23.9094
-26.3932
-29.2809
-32.6324
-36.4309
-40.8005
-47.031
-9.06511
-9.67458
-10.3081
-11.0226
-11.811
-12.6756
-13.6279
-14.6817
-15.8532
-17.1622
-18.6337
-20.2989
-22.197
-24.3755
-26.892
-29.8145
-33.2016
-37.0343
-41.4285
-47.6778
-9.32452
-9.93552
-10.5725
-11.2955
-12.0944
-12.9708
-13.9361
-15.0047
-16.1928
-17.5205
-19.013
-20.7019
-22.6264
-24.8344
-27.3829
-30.3394
-33.7613
-37.6275
-42.0458
-48.3137
-9.5842
-10.1922
-10.8313
-11.563
-12.3726
-13.2606
-14.2389
-15.322
-16.5264
-17.8725
-19.3856
-21.0977
-23.0481
-25.2848
-27.8646
-30.8543
-34.31
-38.209
-42.6513
-48.9389
-9.8358
-10.436
-11.0785
-11.8216
-12.6433
-13.5433
-14.5347
-15.6323
-16.8529
-18.217
-19.7504
-21.4851
-23.4609
-25.7256
-28.3359
-31.3578
-34.8461
-38.7769
-43.244
-49.5549
-10.0589
-10.6478
-11.31
-12.0725
-12.9073
-13.819
-14.8233
-15.9352
-17.1716
-18.5533
-20.1064
-21.8633
-23.8638
-26.1557
-28.7955
-31.8483
-35.3676
-39.3282
-43.8196
-50.1635
-1.3406
-1.60005
-1.95451
-2.35262
-2.78465
-3.25671
-3.77566
-4.34803
-4.98193
-5.68818
-6.48111
-7.37993
-8.41052
-9.60809
-11.0216
-12.7221
-14.7944
-17.2929
-20.5098
-25.9314
-1.47752
-1.75126
-2.1209
-2.52266
-2.95637
-3.43203
-3.95605
-4.53456
-5.17582
-5.89086
-6.69427
-7.60553
-8.65094
-9.86613
-11.3006
-13.0258
-15.1264
-17.6555
-20.9
-26.3316
-1.6056
-1.90143
-2.28217
-2.69036
-3.13018
-3.6125
-4.14361
-4.72982
-5.37976
-6.10476
-6.91973
-7.8445
-8.90579
-10.1397
-11.5962
-13.347
-15.4765
-18.0359
-21.3073
-26.7435
-1.75297
-2.05842
-2.44598
-2.86141
-3.30887
-3.79904
-4.33834
-4.93338
-5.59308
-6.32907
-7.15659
-8.09584
-9.17396
-10.4275
-11.907
-13.6842
-15.8436
-18.4346
-21.736
-27.1859
-1.91054
-2.22202
-2.61605
-3.03893
-3.49427
-3.9927
-4.54081
-5.14545
-5.81574
-6.56359
-7.40455
-8.35918
-9.45504
-10.7292
-12.2325
-14.0374
-16.2276
-18.8516
-22.1855
-27.6556
-2.07319
-2.39199
-2.79291
-3.22333
-3.68676
-4.19385
-4.75132
-5.36618
-6.04776
-6.80824
-7.66343
-8.6343
-9.74882
-11.0445
-12.5728
-14.4062
-16.6285
-19.2867
-22.6543
-28.1474
-2.24246
-2.56931
-2.97697
-3.41491
-3.88666
-4.40275
-4.97003
-5.59564
-6.28913
-7.0629
-7.93309
-8.92099
-10.055
-11.3732
-12.9274
-14.7904
-17.0459
-19.7392
-23.1413
-28.6592
-2.41974
-2.75455
-3.16871
-3.61411
-4.0943
-4.61965
-5.19707
-5.83389
-6.53981
-7.32748
-8.21333
-9.21903
-10.3734
-11.715
-13.296
-15.1896
-17.4793
-20.2087
-23.646
-29.1898
-2.60493
-2.94768
-3.36827
-3.82112
-4.30985
-4.84466
-5.43253
-6.08091
-6.79973
-7.60185
-8.50398
-9.52816
-10.7036
-12.0694
-13.6781
-15.6034
-17.9281
-20.6947
-24.1678
-29.7386
-2.79756
-3.14848
-3.57553
-4.03589
-4.53328
-5.07774
-5.67632
-6.33663
-7.06876
-7.88583
-8.80482
-9.84812
-11.0454
-12.4361
-14.0735
-16.0312
-18.3919
-21.1964
-24.7061
-30.3043
-2.99725
-3.35666
-3.79027
-4.25821
-4.76441
-5.31873
-5.92828
-6.60084
-7.3467
-8.17917
-9.11556
-10.1786
-11.3984
-12.8149
-14.4816
-16.4726
-18.8702
-21.7134
-25.26
-30.8862
-3.20368
-3.57189
-4.01217
-4.48781
-5.00299
-5.56738
-6.18817
-6.87331
-7.63327
-8.48161
-9.4359
-10.5193
-11.7622
-13.2051
-14.902
-16.9271
-19.3622
-22.2449
-25.8289
-31.4832
-3.41642
-3.79375
-4.24084
-4.72433
-5.24868
-5.82338
-6.45568
-7.15372
-7.92815
-8.79277
-9.76546
-10.8697
-12.1364
-13.6064
-15.3342
-17.3941
-19.8676
-22.7902
-26.412
-32.0946
-3.635
-4.02176
-4.47584
-4.96737
-5.50111
-6.08635
-6.73043
-7.44168
-8.23094
-9.11226
-10.1038
-11.2295
-12.5205
-14.0183
-15.7776
-17.873
-20.3855
-23.3487
-27.0086
-32.7197
-3.8589
-4.25543
-4.71669
-5.21646
-5.75981
-6.35585
-7.012
-7.73676
-8.54121
-9.43964
-10.4505
-11.5981
-12.914
-14.4401
-16.2316
-18.3632
-20.9153
-23.9197
-27.618
-33.3576
-4.08763
-4.49423
-4.96288
-5.4711
-6.02431
-6.63141
-7.2999
-8.0385
-8.8585
-9.77442
-10.8051
-11.975
-13.3164
-14.8714
-16.6957
-18.864
-21.4563
-24.5024
-28.2395
-34.0078
-4.32066
-4.73763
-5.21387
-5.73078
-6.29412
-6.91254
-7.59366
-8.3464
-9.18227
-10.1161
-11.1669
-12.3596
-13.7269
-15.3114
-17.169
-19.3747
-22.0078
-25.096
-28.8724
-34.6698
-4.55748
-4.98509
-5.46914
-5.99499
-6.56871
-7.19872
-7.89275
-8.65994
-9.51202
-10.464
-11.5354
-12.7514
-14.1451
-15.7595
-17.651
-19.8944
-22.5687
-25.6996
-29.516
-35.3434
-4.79759
-5.23607
-5.72814
-6.26318
-6.84754
-7.48942
-8.19664
-8.97856
-9.84716
-10.8177
-11.91
-13.1497
-14.5702
-16.2149
-18.1406
-20.4224
-23.1382
-26.3121
-30.1693
-36.0294
-5.0405
-5.49009
-5.99038
-6.53487
-7.13014
-7.78414
-8.50482
-9.30175
-10.1872
-11.1766
-12.2902
-13.5538
-15.0015
-16.677
-18.6373
-20.9575
-23.7152
-26.9321
-30.8298
-36.7286
-1.11414
-0.932178
-0.799888
-0.683842
-0.583524
-0.496419
-0.421465
-0.357895
-0.305224
-0.263094
-0.231232
-0.209421
-0.197481
-0.195178
-0.202067
-0.217942
-0.243821
-0.278692
-0.322791
-0.375815
-1.44706
-1.28671
-1.15074
-1.03019
-0.92577
-0.834942
-0.756735
-0.690356
-0.635297
-0.591173
-0.557694
-0.53462
-0.521754
-0.518881
-0.525684
-0.541981
-0.568062
-0.603689
-0.648727
-0.702977
-1.78869
-1.63592
-1.50032
-1.37901
-1.27292
-1.18041
-1.10073
-1.03319
-0.977298
-0.932695
-0.899081
-0.876211
-0.863876
-0.861861
-0.869925
-0.88794
-0.915971
-0.953838
-1.00139
-1.05842
-2.18374
-2.03015
-1.89231
-1.76867
-1.65965
-1.56427
-1.48198
-1.41222
-1.35453
-1.30858
-1.27405
-1.25071
-1.23834
-1.23671
-1.24561
-1.26492
-1.2946
-1.33445
-1.38432
-1.44404
-2.6174
-2.46248
-2.32174
-2.19506
-2.08268
-1.98405
-1.89878
-1.82641
-1.76657
-1.71893
-1.6832
-1.65913
-1.6465
-1.64509
-1.6547
-1.67518
-1.70643
-1.74826
-1.80051
-1.86299
-3.08862
-2.93177
-2.78807
-2.65813
-2.54231
-2.44035
-2.352
-2.27694
-2.21485
-2.16542
-2.12841
-2.10355
-2.09064
-2.08945
-2.09979
-2.12149
-2.15441
-2.19836
-2.25311
-2.31864
-3.60429
-3.44418
-3.29693
-3.1633
-3.04372
-2.93816
-2.84651
-2.76852
-2.70395
-2.65255
-2.61408
-2.5883
-2.57499
-2.57396
-2.58499
-2.60791
-2.64256
-2.68872
-2.74619
-2.81492
-4.17178
-4.0071
-3.85537
-3.71733
-3.59345
-3.48382
-3.38842
-3.30711
-3.23971
-3.18601
-3.14578
-3.11882
-3.10492
-3.10387
-3.11547
-3.13953
-3.17588
-3.22429
-3.28455
-3.35658
-4.79939
-4.62886
-4.47158
-4.32823
-4.19927
-4.0849
-3.98517
-3.9
-3.82926
-3.77279
-3.7304
-3.7019
-3.68707
-3.68574
-3.69769
-3.72273
-3.76068
-3.8113
-3.87436
-3.94982
-5.49785
-5.32005
-5.15597
-5.00619
-4.87119
-4.75119
-4.64632
-4.55655
-4.48179
-4.42194
-4.37681
-4.34625
-4.33005
-4.32803
-4.34
-4.36574
-4.40507
-4.45775
-4.52354
-4.60243
-6.2813
-6.09462
-5.92224
-5.76466
-5.62236
-5.49561
-5.38453
-5.28918
-5.20952
-5.14543
-5.0968
-5.06346
-5.04525
-5.04197
-5.05343
-5.07944
-5.11978
-5.17421
-5.2425
-5.32467
-7.16867
-6.9712
-6.7887
-6.62163
-6.47047
-6.33548
-6.21685
-6.11464
-6.02886
-5.95943
-5.90625
-5.86917
-5.84804
-5.84268
-5.8529
-5.8785
-5.91926
-5.97492
-6.04525
-6.13033
-8.18551
-7.97494
-7.78013
-7.60148
-7.43947
-7.29439
-7.16645
-7.05573
-6.96227
-6.88602
-6.82689
-6.78477
-6.7595
-6.75092
-6.75884
-6.78305
-6.82334
-6.87942
-6.95107
-7.03839
-9.36653
-9.1401
-8.93029
-8.73748
-8.56216
-8.40465
-8.26515
-8.1438
-8.04064
-7.95565
-7.88875
-7.83985
-7.80881
-7.79545
-7.79961
-7.82108
-7.85962
-7.91493
-7.98677
-8.07531
-10.7602
-10.5146
-10.2865
-10.0764
-9.88474
-9.71188
-9.55805
-9.42339
-9.30797
-9.21178
-9.13476
-9.07682
-9.03783
-9.01763
-9.01605
-9.03289
-9.0679
-9.12073
-9.19114
-9.27935
-12.437
-12.1682
-11.918
-11.6868
-11.4752
-11.2835
-11.1119
-10.9607
-10.8299
-10.7194
-10.6293
-10.5595
-10.5098
-10.4801
-10.4702
-10.4799
-10.509
-10.557
-10.6238
-10.7095
-14.4811
-14.1849
-13.9084
-13.652
-13.4166
-13.2023
-13.0094
-12.8381
-12.6884
-12.5604
-12.454
-12.3692
-12.3057
-12.2635
-12.2425
-12.2423
-12.2629
-12.3038
-12.3647
-12.4456
-16.9474
-16.6203
-16.3137
-16.0288
-15.7662
-15.5262
-15.309
-15.1148
-14.9435
-14.7952
-14.6699
-14.5674
-14.4877
-14.4307
-14.3962
-14.3841
-14.3942
-14.4262
-14.4796
-14.5533
-20.1309
-19.7686
-19.4277
-19.1106
-18.8177
-18.549
-18.3045
-18.0842
-17.8879
-17.7157
-17.5675
-17.4433
-17.3429
-17.2663
-17.2132
-17.1835
-17.1771
-17.194
-17.2341
-17.2954
-25.498
-25.0944
-24.7227
-24.3799
-24.0638
-23.7734
-23.5082
-23.2681
-23.053
-22.8629
-22.6977
-22.5575
-22.4422
-22.352
-22.2868
-22.2467
-22.2321
-22.2454
-22.2877
-22.3485
-0.437499
-0.507513
-0.585782
-0.672161
-0.7665
-0.868632
-0.978367
-1.09549
-1.21976
-1.35087
-1.48845
-1.632
-1.78077
-1.93364
-2.08909
-2.24496
-2.39691
-2.5355
-2.6453
-2.74827
-0.766273
-0.838221
-0.918715
-1.00758
-1.10465
-1.20974
-1.32264
-1.44312
-1.57091
-1.70567
-1.84699
-1.99435
-2.147
-2.30386
-2.46339
-2.62402
-2.78405
-2.93582
-3.06361
-3.20583
-1.12482
-1.20019
-1.28442
-1.37731
-1.47868
-1.58832
-1.70603
-1.83153
-1.96454
-2.10471
-2.2516
-2.40467
-2.5632
-2.72621
-2.89241
-3.06064
-3.22997
-3.39601
-3.55231
-3.72671
-1.51351
-1.59231
-1.68032
-1.77733
-1.88313
-1.99751
-2.12023
-2.25101
-2.38954
-2.53545
-2.6883
-2.84754
-3.01248
-3.18226
-3.35582
-3.53233
-3.71098
-3.88938
-4.06742
-4.26438
-1.93567
-2.01806
-2.11005
-2.2114
-2.32191
-2.44133
-2.56941
-2.70586
-2.85035
-3.0025
-3.16186
-3.32791
-3.5
-3.67737
-3.85922
-4.04495
-4.23392
-4.425
-4.62041
-4.83286
-2.39479
-2.48108
-2.57738
-2.68346
-2.79909
-2.92401
-3.05797
-3.20065
-3.35172
-3.5108
-3.67744
-3.85113
-4.0313
-4.21731
-4.40854
-4.60458
-4.805
-5.0095
-5.2206
-5.44602
-2.89476
-2.98523
-3.08619
-3.19738
-3.31856
-3.44948
-3.58986
-3.73938
-3.89771
-4.06446
-4.2392
-4.42146
-4.61073
-4.80645
-5.00817
-5.21559
-5.42847
-5.64696
-5.87317
-6.11154
-3.44037
-3.53528
-3.6412
-3.75786
-3.88503
-4.02243
-4.16978
-4.32677
-4.49305
-4.66825
-4.85196
-5.04374
-5.24313
-5.44967
-5.66299
-5.88286
-6.10918
-6.34225
-6.58361
-6.83578
-4.03768
-4.13725
-4.24836
-4.37082
-4.50437
-4.64872
-4.80359
-4.96866
-5.1436
-5.32803
-5.52158
-5.72383
-5.93437
-6.1528
-6.37882
-6.61225
-6.85302
-7.10141
-7.35845
-7.6256
-4.69437
-4.79883
-4.91525
-5.04375
-5.18401
-5.33572
-5.4986
-5.67233
-5.85658
-6.051
-6.25522
-6.46885
-6.69153
-6.92291
-7.1627
-7.41075
-7.667
-7.93162
-8.20521
-8.48868
-5.42064
-5.52948
-5.65167
-5.78638
-5.93357
-6.09296
-6.26423
-6.44709
-6.64121
-6.84627
-7.0619
-7.28775
-7.52348
-7.76876
-8.02334
-8.28704
-8.55978
-8.8416
-9.13281
-9.434
-6.23011
-6.34354
-6.47079
-6.6118
-6.76603
-6.93314
-7.11299
-7.30527
-7.50966
-7.72584
-7.95348
-8.19223
-8.44176
-8.70177
-8.97201
-9.25229
-9.54247
-9.84246
-10.1524
-10.4726
-7.1414
-7.25892
-7.39105
-7.53766
-7.69918
-7.8736
-8.06189
-8.26364
-8.47846
-8.70603
-8.946
-9.19807
-9.46192
-9.73725
-10.0238
-10.3214
-10.6298
-10.9488
-11.2784
-11.6189
-8.18058
-8.30127
-8.43764
-8.58917
-8.75548
-8.93821
-9.13469
-9.34575
-9.57068
-9.80939
-10.0616
-10.3271
-10.6054
-10.8963
-11.1996
-11.5149
-11.842
-12.1806
-12.5306
-12.8923
-9.38541
-9.50779
-9.64696
-9.8025
-9.97394
-10.1613
-10.3656
-10.5858
-10.8195
-11.0686
-11.3325
-11.611
-11.9037
-12.21
-12.5299
-12.8629
-13.2088
-13.5672
-13.9378
-14.321
-10.8143
-10.9362
-11.076
-11.2335
-11.4084
-11.6003
-11.8089
-12.0337
-12.277
-12.5362
-12.8113
-13.1021
-13.4082
-13.7289
-14.0641
-14.4139
-14.7779
-15.1556
-15.5464
-15.9507
-12.5461
-12.6649
-12.8028
-12.9597
-13.1353
-13.3295
-13.5419
-13.7722
-14.0208
-14.2877
-14.5725
-14.8731
-15.1898
-15.5213
-15.8695
-16.234
-16.6145
-17.01
-17.4197
-17.8435
-14.6457
-14.758
-14.8899
-15.0419
-15.2141
-15.4062
-15.618
-15.849
-16.0988
-16.3668
-16.6529
-16.9583
-17.2829
-17.6274
-17.9893
-18.3682
-18.7637
-19.1756
-19.6028
-20.0445
-17.3753
-17.4739
-17.5948
-17.7382
-17.9037
-18.0908
-18.2991
-18.5281
-18.7776
-19.0469
-19.3356
-19.6436
-19.9713
-20.3189
-20.686
-21.072
-21.4768
-21.9012
-22.3452
-22.8036
-22.4018
-22.4822
-22.5905
-22.7243
-22.882
-23.0625
-23.2651
-23.4894
-23.735
-24.0015
-24.2888
-24.5968
-24.9256
-25.2754
-25.6463
-26.0382
-26.4523
-26.8926
-27.3615
-27.841
-28.2865
-23.2683
-20.4999
-18.2818
-16.3686
-14.7168
-13.2657
-11.9704
-10.8033
-9.74519
-8.78206
-7.90296
-7.09907
-6.36304
-5.68857
-5.07007
-4.50125
-3.97569
-3.50114
-3.10325
-28.7558
-23.7452
-20.9675
-18.7316
-16.7975
-15.123
-13.6489
-12.3312
-11.1428
-10.0649
-9.08373
-8.18848
-7.37046
-6.62241
-5.9382
-5.31233
-4.73906
-4.21531
-3.7533
-3.35822
-29.2501
-24.2375
-21.4487
-19.1942
-17.238
-15.5399
-14.042
-12.7011
-11.4907
-10.3926
-9.39297
-8.4812
-7.64864
-6.88806
-6.19326
-5.55867
-4.97869
-4.45039
-3.98254
-3.56983
-29.7655
-24.746
-21.9436
-19.6691
-17.6898
-15.967
-14.4443
-13.0795
-11.8466
-10.7275
-9.70886
-8.77996
-7.93214
-7.15802
-6.45125
-5.80598
-5.21641
-4.67899
-4.19972
-3.77001
-30.2987
-25.2699
-22.4521
-20.1562
-18.1523
-16.4039
-14.8555
-13.4659
-12.2096
-11.069
-10.0307
-9.08408
-8.22031
-7.43189
-6.71218
-6.0551
-5.45456
-4.90647
-4.41502
-3.97082
-30.8479
-25.8083
-22.9736
-20.6551
-18.6253
-16.8499
-15.2748
-13.8597
-12.5794
-11.4166
-10.358
-9.39309
-8.5128
-7.70945
-6.97619
-6.30666
-5.69461
-5.13557
-4.63245
-4.1758
-31.4119
-26.3608
-23.5072
-21.165
-19.1079
-17.3044
-15.7018
-14.2602
-12.9552
-11.7697
-10.6904
-9.70666
-8.80943
-7.99078
-7.24365
-6.56146
-5.93783
-5.36808
-4.85401
-4.38628
-31.9901
-26.9277
-24.051
-21.6849
-19.5996
-17.767
-16.1359
-14.6671
-13.3368
-12.1279
-11.0274
-10.0245
-9.11007
-8.27591
-7.51477
-6.8199
-6.18481
-5.60464
-5.08021
-4.60233
-32.5817
-27.5073
-24.6053
-22.2141
-20.0997
-18.2368
-16.5763
-15.0797
-13.7234
-12.4908
-11.3687
-10.3464
-9.41455
-8.56476
-7.78958
-7.0821
-6.43572
-5.8454
-5.31102
-4.8236
-33.1858
-28.098
-25.1697
-22.752
-20.6072
-18.7133
-17.0226
-15.4975
-14.1147
-12.8579
-11.714
-10.6721
-9.72261
-8.85713
-8.06795
-7.34794
-6.69041
-6.09012
-5.54607
-5.0495
-33.8012
-28.6989
-25.7434
-23.2978
-21.1217
-19.1958
-17.4741
-15.9198
-14.5101
-13.2287
-12.0627
-11.001
-10.0339
-9.15275
-8.34958
-7.61712
-6.94854
-6.3384
-5.78486
-5.27937
-34.4272
-29.3092
-26.3256
-23.8507
-21.6422
-19.6835
-17.9301
-16.3461
-14.909
-13.6028
-12.4145
-11.3329
-10.3481
-9.45121
-8.63411
-7.88926
-7.2097
-6.58976
-6.0268
-5.51257
-35.0627
-29.9278
-26.9152
-24.4099
-22.168
-20.1756
-18.3899
-16.7756
-15.3108
-13.9795
-12.7687
-11.6671
-10.6646
-9.75208
-8.92107
-8.16388
-7.47338
-6.84366
-6.27132
-5.74847
-35.7071
-30.5539
-27.5115
-24.9746
-22.6983
-20.6714
-18.8527
-17.2077
-15.7148
-14.3582
-13.1249
-12.0033
-10.9831
-10.0548
-9.20997
-8.44048
-7.73907
-7.09956
-6.51786
-5.98647
-36.3594
-31.1866
-28.1134
-25.5437
-23.2322
-21.17
-19.3178
-17.6417
-16.1204
-14.7384
-13.4824
-12.3407
-11.3028
-10.359
-9.5003
-8.71855
-8.00624
-7.35692
-6.76586
-6.22602
-37.0187
-31.8247
-28.7199
-26.1165
-23.7687
-21.6706
-19.7844
-18.0768
-16.527
-15.1194
-13.8407
-12.679
-11.6234
-10.664
-9.79153
-8.99755
-8.27436
-7.61523
-7.01479
-6.4666
-37.6849
-32.4674
-29.3298
-26.6917
-24.3068
-22.1723
-20.2516
-18.5122
-16.9337
-15.5004
-14.199
-13.0173
-11.9442
-10.9693
-10.0831
-9.27696
-8.54292
-7.87397
-7.26415
-6.70771
-38.3596
-33.1145
-29.9421
-27.268
-24.8454
-22.6738
-20.7183
-18.947
-17.3397
-15.8808
-14.5568
-13.3551
-12.2645
-11.2742
-10.3745
-9.55622
-8.81138
-8.13261
-7.51344
-6.94888
-39.0433
-33.7651
-30.5548
-27.844
-25.3833
-23.1743
-21.1838
-19.3804
-17.7443
-16.2598
-14.9132
-13.6918
-12.5838
-11.5783
-10.665
-9.8348
-9.07923
-8.39068
-7.7622
-7.1897
-39.7235
-34.4143
-31.1669
-28.4189
-25.9201
-23.6736
-21.6478
-19.8123
-18.1473
-16.6373
-15.2683
-14.0272
-12.9019
-11.8812
-10.9545
-10.1124
-9.34612
-8.64781
-8.01006
-7.42981
-6.00394
-4.10743
-2.9122
-2.00824
-1.38905
-0.938497
-0.62001
-0.395978
-0.242007
-0.139194
-0.0737138
-0.0349597
-0.0151137
-0.0082615
-0.0100843
-0.0173731
-0.0278006
-0.0396835
-0.0517838
-0.0632469
-0.0733714
-0.0817307
-0.0878064
-0.0914102
-0.0920186
-0.0896605
-0.0838109
-0.0748131
-0.0624439
-0.0473384
-0.0302278
-0.0116925
0.00572892
0.0219776
0.0332997
0.0396779
0.0410408
0.0297672
0.0266447
-0.0177332
-6.2326
-4.26996
-3.04453
-2.11241
-1.47187
-1.00564
-0.674852
-0.441335
-0.279839
-0.17097
-0.100543
-0.0576874
-0.0344052
-0.0246449
-0.0239935
-0.0291664
-0.0377801
-0.0481052
-0.0588695
-0.069187
-0.0783312
-0.0858551
-0.0912218
-0.094225