/*--------------------------------*- C++ -*----------------------------------*\
  =========                 |
  \\      /  F ield         | OpenFOAM: The Open Source CFD Toolbox
   \\    /   O peration     | Website:  https://openfoam.org
    \\  /    A nd           | Version:  6.0
     \\/     M anipulation  |
\*---------------------------------------------------------------------------*/
FoamFile
{
    version     2.0;
    format      ascii;
    class       volVectorField;
    location    "5";
    object      U;
}
// * * * * * * * * * * * * * * * * * * * * * * * * * * * * * * * * * * * * * //

dimensions      [0 1 -1 0 0 0 0];

internalField   nonuniform List<vector> 
9600
(
(1.26224 -16.6888 -2.51777e-20)
(0.271311 -15.7652 -2.73191e-20)
(0.261162 -14.9388 3.70573e-21)
(0.328747 -14.1685 -1.67879e-20)
(0.333349 -13.4482 7.50694e-21)
(0.333218 -12.7633 -5.68321e-21)
(0.335487 -12.1086 -1.17814e-20)
(0.3363 -11.4834 1.14153e-20)
(0.335436 -10.8881 3.71244e-21)
(0.333499 -10.3231 -5.8905e-20)
(0.330836 -9.78821 3.18854e-20)
(0.32768 -9.28286 -2.75257e-20)
(0.324229 -8.80617 -1.20402e-20)
(0.320651 -8.357 1.6004e-20)
(0.317096 -7.93404 -1.06208e-20)
(0.31366 -7.53576 -5.51324e-21)
(0.310398 -7.16036 9.58169e-21)
(0.307752 -6.8058 -1.13327e-20)
(0.306718 -6.46983 -2.87195e-21)
(0.303876 -6.15032 -5.65896e-21)
(1.91542 -16.6297 -2.64005e-19)
(0.891665 -15.7547 -1.36984e-19)
(0.849617 -14.9347 6.66782e-20)
(0.886837 -14.1645 -8.47369e-20)
(0.862988 -13.4448 2.18713e-20)
(0.835766 -12.7598 -2.42277e-20)
(0.812091 -12.1043 9.87249e-20)
(0.788119 -11.4783 -2.80824e-21)
(0.763674 -10.8824 -6.10097e-20)
(0.739386 -10.3169 7.70488e-20)
(0.715596 -9.78177 3.80452e-20)
(0.692513 -9.2763 -2.78967e-21)
(0.670294 -8.79963 4.48634e-20)
(0.649056 -8.35061 -2.47013e-21)
(0.628893 -7.92794 1.71259e-20)
(0.609835 -7.53009 4.31086e-20)
(0.591861 -7.1553 1.71628e-20)
(0.575406 -6.80145 2.40254e-20)
(0.561532 -6.46614 -1.12895e-20)
(0.546275 -6.14728 2.26817e-20)
(2.56733 -16.5461 4.3008e-19)
(1.51133 -15.7199 2.92081e-19)
(1.43784 -14.9072 -4.15163e-19)
(1.44492 -14.1382 -1.9191e-19)
(1.3927 -13.4203 1.52152e-19)
(1.33836 -12.7361 2.62464e-19)
(1.28868 -12.081 -3.13211e-19)
(1.23987 -11.4552 7.69478e-20)
(1.19179 -10.8596 -1.42651e-19)
(1.14511 -10.2946 -9.58134e-20)
(1.10017 -9.76 8.38151e-20)
(1.05715 -9.25523 -4.49138e-20)
(1.01617 -8.77935 -1.2072e-19)
(0.977287 -8.33121 6.42166e-20)
(0.940541 -7.9095 -2.05313e-20)
(0.905898 -7.51274 -2.33291e-21)
(0.873268 -7.13916 2.23691e-20)
(0.843071 -6.78662 4.44509e-20)
(0.816417 -6.45258 -5.30829e-20)
(0.788717 -6.13499 4.35564e-20)
(3.21483 -16.4373 -2.34116e-19)
(2.12902 -15.6611 1.09856e-19)
(2.02478 -14.8567 1.40779e-19)
(2.00204 -14.09 1.93513e-19)
(1.9216 -13.3749 -6.36825e-20)
(1.84018 -12.6926 5.44616e-20)
(1.76449 -12.0387 -3.92971e-20)
(1.6908 -11.4141 8.71271e-20)
(1.61908 -10.8198 1.92495e-19)
(1.55001 -10.2562 -1.12887e-19)
(1.48393 -9.72305 -6.8328e-20)
(1.421 -9.21982 -7.31249e-20)
(1.36129 -8.7455 -2.50657e-20)
(1.30481 -8.29894 5.83054e-20)
(1.25153 -7.87886 -3.58705e-20)
(1.20137 -7.4838 -1.15594e-19)
(1.15416 -7.11204 8.85725e-20)
(1.11032 -6.7614 -5.61944e-20)
(1.07098 -6.4292 -5.73667e-21)
(1.03085 -6.11354 -4.91449e-21)
(3.85806 -16.3036 -2.97975e-19)
(2.74445 -15.5784 -5.14749e-19)
(2.60982 -14.7832 5.91769e-19)
(2.5574 -14.0199 -1.63553e-19)
(2.44888 -13.3085 -4.60071e-19)
(2.34043 -12.6291 -1.04672e-20)
(2.23872 -11.9775 -1.69419e-19)
(2.14017 -11.3551 -4.67739e-20)
(2.04482 -10.763 -1.1827e-19)
(1.9534 -10.2017 2.71985e-19)
(1.86623 -9.67089 -3.67548e-19)
(1.78345 -9.17001 9.26386e-20)
(1.70508 -8.69803 -1.48047e-19)
(1.63107 -8.25378 1.97116e-19)
(1.56134 -7.836 -1.77327e-19)
(1.49575 -7.44328 9.31656e-20)
(1.43407 -7.07394 -5.32401e-20)
(1.37672 -6.72579 1.43999e-20)
(1.32481 -6.39601 5.37049e-20)
(1.27231 -6.08293 -7.22108e-21)
(4.49565 -16.145 7.76116e-20)
(3.35651 -15.4719 4.77221e-19)
(3.19203 -14.6869 3.03314e-19)
(3.11013 -13.9279 -2.00466e-19)
(2.97368 -13.2212 5.11876e-19)
(2.83828 -12.5458 8.19996e-20)
(2.7106 -11.8975 9.41358e-21)
(2.58724 -11.2782 -2.02682e-19)
(2.46832 -10.6893 4.38005e-20)
(2.35461 -10.1312 2.67901e-19)
(2.24644 -9.60363 -1.20678e-19)
(2.1439 -9.10592 2.24361e-19)
(2.04696 -8.63704 -5.73531e-20)
(1.95552 -8.19582 -4.71519e-20)
(1.86945 -7.78101 1.02554e-19)
(1.78854 -7.39126 1.08205e-19)
(1.71252 -7.02493 -5.81396e-20)
(1.6418 -6.67983 4.32416e-20)
(1.57748 -6.35306 -1.22905e-19)
(1.51272 -6.04321 1.51886e-19)
(5.12685 -15.9617 6.89698e-19)
(3.96446 -15.3416 -8.4157e-19)
(3.77062 -14.5678 -7.02564e-19)
(3.65942 -13.8141 7.1933e-19)
(3.49518 -13.1132 -2.45793e-19)
(3.33293 -12.4426 -3.42224e-19)
(3.17937 -11.7986 3.05979e-19)
(3.03126 -11.1836 1.5191e-20)
(2.88886 -10.5988 1.01446e-19)
(2.75297 -10.0448 -3.16408e-19)
(2.62391 -9.52131 1.54058e-19)
(2.50173 -9.02761 -1.22088e-19)
(2.38635 -8.56261 3.37979e-19)
(2.27761 -8.12514 -1.82482e-19)
(2.17533 -7.71396 1.15954e-20)
(2.07924 -7.32779 -2.35956e-20)
(1.98903 -6.96507 -2.1305e-20)
(1.90511 -6.6236 3.95161e-20)
(1.82857 -6.30041 2.41263e-20)
(1.75168 -5.99446 -2.77249e-20)
(5.7506 -15.7539 -1.00167e-18)
(4.56733 -15.1875 5.53615e-19)
(4.34469 -14.426 1.12887e-19)
(4.2044 -13.6786 -1.47641e-20)
(4.01255 -12.9845 -9.29523e-22)
(3.82358 -12.3198 2.30585e-19)
(3.64423 -11.6811 -6.01375e-19)
(3.4715 -11.0712 -5.97439e-20)
(3.30574 -10.4915 -1.13742e-19)
(3.14781 -9.94257 1.49407e-19)
(2.998 -9.42406 9.5315e-21)
(2.85634 -8.93519 1.3454e-19)
(2.72267 -8.47485 -1.4441e-20)
(2.59678 -8.04184 -3.05708e-19)
(2.47844 -7.63496 -6.24472e-20)
(2.36733 -7.25299 2.6025e-19)
(2.2631 -6.89446 -9.51095e-20)
(2.16619 -6.55719 -2.22938e-20)
(2.07762 -6.23813 -4.63709e-21)
(1.98879 -5.93677 1.51251e-20)
(6.36602 -15.5219 6.36219e-19)
(5.16423 -15.01 -6.14117e-19)
(4.91338 -14.2617 -8.7436e-19)
(4.74422 -13.5215 -1.14033e-19)
(4.52497 -12.8352 -3.55871e-19)
(4.30942 -12.1774 -1.13538e-19)
(4.10443 -11.545 -3.2904e-19)
(3.90722 -10.9412 5.75976e-19)
(3.71826 -10.3676 -2.41212e-19)
(3.53845 -9.82466 -1.12421e-19)
(3.36808 -9.312 -4.15804e-20)
(3.20711 -8.82878 1.5112e-19)
(3.05533 -8.37386 -1.52694e-21)
(2.91247 -7.94604 -4.4797e-20)
(2.77825 -7.54413 -9.45704e-20)
(2.6523 -7.16697 -1.1048e-19)
(2.53423 -6.81321 1.57098e-19)
(2.42454 -6.48069 5.98018e-20)
(2.32418 -6.16634 -2.66562e-19)
(2.22364 -5.87024 2.08891e-20)
(6.97214 -15.2659 -6.34625e-19)
(5.75423 -14.8092 1.40927e-18)
(5.47579 -14.075 -1.02405e-18)
(5.27803 -13.3431 6.24284e-19)
(5.0316 -12.6654 7.56671e-19)
(4.78967 -12.0155 -2.53401e-19)
(4.5592 -11.3905 1.39584e-20)
(4.33767 -10.7939 6.47505e-20)
(4.12571 -10.2273 2.34226e-19)
(3.92423 -9.69122 -2.3285e-19)
(3.7335 -9.18526 -1.33453e-19)
(3.55343 -8.70851 1.49434e-19)
(3.38374 -8.2598 -3.75439e-21)
(3.22412 -7.83788 2.21372e-20)
(3.0742 -7.4416 2.4073e-19)
(2.9336 -7.06988 -1.21732e-19)
(2.8019 -6.72146 2.21018e-20)
(2.67966 -6.39424 -1.35749e-19)
(2.56776 -6.08517 3.56301e-19)
(2.45577 -5.795 1.86789e-19)
(7.56805 -14.9864 9.25042e-19)
(6.33645 -14.5853 1.8526e-19)
(6.03106 -13.8662 3.89651e-19)
(5.80498 -13.1435 -4.1239e-19)
(5.53161 -12.4755 1.08583e-19)
(5.26351 -11.8345 7.80478e-19)
(5.00777 -11.2178 -1.12501e-19)
(4.76215 -10.6293 5.271e-19)
(4.5274 -10.0707 -3.30031e-19)
(4.30448 -9.54239 1.94884e-19)
(4.09363 -9.04401 4.11712e-19)
(3.89469 -8.57456 -1.25031e-19)
(3.70733 -8.1328 1.88617e-19)
(3.53115 -7.71751 -5.22852e-20)
(3.36575 -7.32752 -2.38804e-19)
(3.21069 -6.96185 3.31308e-19)
(3.06559 -6.61936 -8.69438e-20)
(2.93103 -6.29798 3.09304e-19)
(2.80785 -5.99472 3.00057e-20)
(2.68471 -5.71117 -4.37988e-19)
(8.15288 -14.6836 -2.77095e-18)
(6.90998 -14.3385 4.55014e-19)
(6.5783 -13.6354 -3.3959e-19)
(6.32422 -12.9228 -1.04035e-18)
(6.0242 -12.2655 -1.7401e-19)
(5.73017 -11.6344 -1.93339e-19)
(5.44939 -11.0271 -6.67706e-20)
(5.17992 -10.4476 -3.68837e-19)
(4.92265 -9.89796 -1.90286e-19)
(4.67854 -9.37837 -3.76738e-20)
(4.44783 -8.88842 -1.07057e-19)
(4.23028 -8.42707 1.71345e-19)
(4.02549 -7.99305 1.00387e-19)
(3.83299 -7.58509 -5.33087e-19)
(3.65233 -7.20207 2.15686e-19)
(3.48303 -6.84306 -2.26731e-19)
(3.32473 -6.50706 -1.35421e-19)
(3.1781 -6.19207 1.17573e-19)
(3.04391 -5.89517 6.0738e-20)
(2.90997 -5.6189 -1.19754e-19)
(8.72577 -14.358 3.51952e-18)
(7.47398 -14.0694 1.56482e-18)
(7.11667 -13.3829 7.08672e-19)
(6.83491 -12.6814 6.84851e-19)
(6.50854 -12.0357 -3.05663e-19)
(6.18886 -11.4156 1.62048e-18)
(5.88332 -10.8186 -6.98619e-19)
(5.59027 -10.2492 1.29915e-18)
(5.31076 -9.70935 -4.83525e-19)
(5.04576 -9.19936 8.55022e-19)
(4.79547 -8.71867 3.84918e-19)
(4.5596 -8.26622 2.23938e-19)
(4.33764 -7.8407 -5.47207e-19)
(4.12906 -7.44079 4.65008e-19)
(3.93337 -7.06541 -1.049e-19)
(3.75006 -6.71369 3.39344e-19)
(3.57878 -6.38475 8.79981e-20)
(3.42032 -6.07669 3.73292e-19)
(3.27543 -5.78671 -8.57009e-20)
(3.13109 -5.51839 -5.74122e-21)
(9.28589 -14.0101 -1.81475e-18)
(8.02758 -13.778 8.9655e-19)
(7.64531 -13.109 1.52573e-19)
(7.33624 -12.4196 -1.21788e-18)
(6.98385 -11.7865 -6.22518e-20)
(6.63882 -11.1782 1.00411e-21)
(6.30882 -10.5925 2.45328e-19)
(5.99252 -10.0341 -3.27922e-19)
(5.69108 -9.50508 1.23081e-19)
(5.40551 -9.00555 1.43345e-19)
(5.13595 -8.53496 -2.35583e-19)
(4.88203 -8.0922 -1.59731e-19)
(4.64318 -7.6759 8.61004e-20)
(4.41878 -7.28476 -1.43841e-19)
(4.20827 -6.91767 4.44171e-19)
(4.01115 -6.57387 -4.63074e-19)
(3.82711 -6.2526 -2.7804e-19)
(3.65706 -5.95204 3.98928e-19)
(3.50177 -5.66955 -1.50544e-19)
(3.34745 -5.40999 -1.93349e-19)
(9.83246 -13.6403 -9.28133e-19)
(8.56994 -13.4649 -1.00201e-18)
(8.16336 -12.8141 -2.48326e-19)
(7.82737 -12.1376 1.24735e-18)
(7.44933 -11.518 -5.45482e-19)
(7.0793 -10.9226 3.84897e-20)
(6.72517 -10.3492 -1.32071e-18)
(6.38597 -9.80281 2.03651e-19)
(6.06296 -9.28541 -2.79852e-19)
(5.75717 -8.79719 2.32307e-19)
(5.46868 -8.33749 -5.23965e-19)
(5.19703 -7.90517 2.24826e-19)
(4.94155 -7.49882 -3.11583e-19)
(4.70156 -7.11712 1.89205e-19)
(4.47643 -6.75898 1.14616e-19)
(4.26566 -6.42371 -1.2292e-19)
(4.06899 -6.11067 -4.96225e-19)
(3.88752 -5.81817 2.72828e-19)
(3.72201 -5.54383 -1.12397e-19)
(3.55803 -5.29392 4.6588e-20)
(10.3648 -13.2491 3.40064e-18)
(9.10024 -13.1303 -6.5265e-19)
(8.66997 -12.4984 -8.66783e-19)
(8.3075 -11.8358 3.57672e-19)
(7.90422 -11.2307 4.79493e-19)
(7.50956 -10.6491 -6.77677e-19)
(7.13169 -10.0889 4.3473e-19)
(6.76997 -9.55545 -5.8252e-19)
(6.42578 -9.0506 7.10777e-19)
(6.10015 -8.5745 -7.33033e-19)
(5.79308 -8.12648 3.24194e-19)
(5.50403 -7.70532 -5.88266e-20)
(5.23223 -7.30962 -5.1155e-20)
(4.9769 -6.93802 -3.36442e-19)
(4.73735 -6.58945 5.20387e-19)
(4.51304 -6.26327 -9.91737e-21)
(4.30381 -5.95901 -3.88165e-20)
(4.1109 -5.67513 -1.03783e-20)
(3.93511 -5.40956 -1.78833e-20)
(3.76159 -5.16983 -1.42014e-19)
(10.8823 -12.8373 -2.80032e-18)
(9.61782 -12.7748 -4.06619e-19)
(9.16434 -12.1625 -4.9945e-19)
(8.7758 -11.5146 -2.70256e-18)
(8.34774 -10.9249 -1.35368e-18)
(7.92885 -10.358 1.54501e-18)
(7.52765 -9.81203 -5.32574e-19)
(7.14384 -9.29236 2.67268e-19)
(6.77892 -8.8009 3.8943e-19)
(6.43385 -8.33773 1.00055e-19)
(6.10859 -7.90211 2.42253e-19)
(5.8025 -7.49282 -1.16111e-19)
(5.5147 -7.10843 3.06326e-19)
(5.24431 -6.74757 -2.66338e-19)
(4.99058 -6.4092 8.80368e-20)
(4.75293 -6.09275 -6.56112e-19)
(4.53123 -5.79788 4.26338e-19)
(4.32692 -5.5232 2.62665e-19)
(4.14089 -5.26685 2.83822e-19)
(3.95824 -5.03727 -5.88267e-20)
(11.3852 -12.4059 1.27312e-18)
(10.1223 -12.399 1.01537e-18)
(9.64578 -11.8066 7.98859e-19)
(9.23149 -11.1743 2.37908e-18)
(8.77909 -10.6008 -2.15979e-18)
(8.33644 -10.0497 5.6111e-19)
(7.91238 -9.51886 -5.00432e-21)
(7.50696 -9.01389 -5.36523e-19)
(7.12177 -8.53665 5.2232e-19)
(6.75773 -8.08714 -1.39987e-19)
(6.41469 -7.6646 -1.53553e-19)
(6.09189 -7.26779 -6.86019e-20)
(5.78836 -6.89529 1.59289e-19)
(5.50312 -6.54576 4.72132e-21)
(5.23536 -6.21821 -2.4813e-19)
(4.98449 -5.91218 -2.82713e-19)
(4.75055 -5.62746 -3.841e-19)
(4.53521 -5.36268 1.9901e-19)
(4.33965 -5.11625 -2.52176e-19)
(4.14927 -4.89856 6.18932e-20)
(11.8736 -11.9556 -1.74575e-19)
(10.6135 -12.0028 -2.18318e-18)
(10.1137 -11.4309 -1.96797e-19)
(9.67381 -10.8152 -3.547e-20)
(9.19755 -10.259 4.03338e-19)
(8.73167 -9.72465 1.31178e-18)
(8.28527 -9.20993 -3.7768e-19)
(7.8588 -8.72051 -5.53009e-19)
(7.45388 -8.25826 5.76233e-20)
(7.07138 -7.8231 2.28543e-19)
(6.71101 -7.41422 -1.94302e-19)
(6.37187 -7.03038 -2.02449e-19)
(6.05284 -6.67018 -4.02889e-20)
(5.75277 -6.33233 1.82716e-19)
(5.47072 -6.01595 -7.46792e-19)
(5.20611 -5.72072 3.50029e-19)
(4.95928 -5.44651 1.17297e-19)
(4.73241 -5.1921 -1.46109e-19)
(4.52685 -4.95786 1.55633e-19)
(4.32888 -4.75949 2.32929e-19)
(12.3456 -11.4848 8.95088e-19)
(11.0903 -11.5854 2.11334e-18)
(10.5674 -11.0356 2.97999e-19)
(10.1021 -10.438 -1.73293e-19)
(9.60249 -9.90032 1.26683e-18)
(9.11401 -9.38363 -3.39667e-19)
(8.6459 -8.8859 -3.87167e-19)
(8.19898 -8.41286 9.61667e-19)
(7.77494 -7.96631 -5.80332e-19)
(7.37457 -7.54611 2.65596e-19)
(6.99745 -7.1514 -4.2578e-20)
(6.64251 -6.78092 -6.52506e-20)
(6.30838 -6.43324 -2.63245e-19)
(5.99369 -6.1071 3.20976e-19)
(5.69717 -5.80166 -7.56184e-19)
(5.41791 -5.51663 3.52501e-19)
(5.15608 -5.25177 -1.00124e-19)
(4.91344 -5.00696 -2.19459e-20)
(4.68989 -4.78778 2.98199e-19)
(4.47591 -4.61425 -4.93966e-19)
(16.9784 0.614423 1.5444e-19)
(16.9801 -0.0550771 -5.03379e-20)
(16.9554 -0.722673 -2.65243e-19)
(16.9059 -1.38778 7.1679e-19)
(16.8311 -2.04976 -7.98947e-19)
(16.7309 -2.70775 -3.61555e-19)
(16.605 -3.36081 2.82506e-19)
(16.4538 -4.00803 3.9505e-19)
(16.2775 -4.64847 -2.97885e-19)
(16.0764 -5.28121 3.01967e-19)
(15.8509 -5.90532 -2.88954e-21)
(15.6012 -6.51989 1.82053e-20)
(15.3279 -7.12401 -2.15663e-19)
(15.0313 -7.71678 9.38294e-19)
(14.712 -8.29739 -9.47149e-19)
(14.3706 -8.86494 6.64893e-19)
(14.0074 -9.41882 -9.26656e-19)
(13.6236 -9.958 2.24156e-18)
(13.2184 -10.4828 -1.73056e-19)
(12.7958 -10.9907 7.23346e-20)
(16.2652 -0.352552 -2.93919e-20)
(16.2293 -0.991781 -1.64158e-19)
(16.1675 -1.6276 3.14068e-19)
(16.0807 -2.25935 5.07188e-19)
(15.9692 -2.8865 -1.31157e-19)
(15.833 -3.50822 -6.78762e-19)
(15.6723 -4.12359 1.23395e-18)
(15.4874 -4.73166 -2.51517e-19)
(15.2788 -5.33151 -1.42236e-18)
(15.0468 -5.92225 6.96374e-19)
(14.7918 -6.503 2.47449e-19)
(14.5144 -7.07289 1.30314e-18)
(14.215 -7.63106 -2.48135e-18)
(13.8941 -8.17671 1.37009e-20)
(13.5524 -8.70906 6.28525e-19)
(13.1904 -9.22735 1.00881e-18)
(12.8085 -9.73095 4.65936e-19)
(12.4077 -10.2191 -6.23834e-19)
(11.9876 -10.6915 -1.42543e-18)
(11.5492 -11.1471 1.40712e-18)
(15.5111 -0.345952 9.16739e-20)
(15.4797 -0.953594 -1.10145e-19)
(15.4234 -1.55875 6.95557e-20)
(15.3425 -2.16052 -2.26656e-19)
(15.2374 -2.75814 2.80724e-19)
(15.1083 -3.35074 6.99511e-19)
(14.9554 -3.93736 -7.45124e-19)
(14.7791 -4.51705 1.19107e-19)
(14.5799 -5.08889 4.94029e-19)
(14.3581 -5.65197 1.04134e-18)
(14.1141 -6.20543 -2.39784e-19)
(13.8484 -6.74841 1.74388e-18)
(13.5616 -7.28009 8.51864e-20)
(13.2542 -7.79966 -1.89544e-18)
(12.9266 -8.30636 -2.55839e-19)
(12.5795 -8.79943 4.11668e-19)
(12.2134 -9.27823 -1.06069e-18)
(11.8288 -9.74195 -4.91519e-19)
(11.426 -10.1901 -9.40756e-19)
(11.0054 -10.6215 9.98112e-19)
(14.7199 -0.266337 2.91411e-20)
(14.696 -0.841462 6.77543e-20)
(14.6486 -1.41501 2.72624e-20)
(14.5776 -1.98596 -6.34056e-19)
(14.4833 -2.55339 3.90065e-19)
(14.3659 -3.11638 -1.1496e-19)
(14.2257 -3.674 3.60373e-19)
(14.0631 -4.22533 -1.56456e-20)
(13.8784 -4.76945 -7.56805e-19)
(13.672 -5.3055 1.68526e-20)
(13.4442 -5.83263 -4.29992e-19)
(13.1956 -6.34998 1.09784e-19)
(12.9266 -6.85676 -2.22612e-18)
(12.6377 -7.35215 1.12421e-18)
(12.3294 -7.83541 -1.02158e-18)
(12.0022 -8.30576 -1.9892e-19)
(11.6567 -8.76252 -2.58661e-18)
(11.2934 -9.20487 2.5621e-18)
(10.9129 -9.63221 -1.21422e-18)
(10.5155 -10.0434 -7.67343e-19)
(13.9374 -0.253212 8.12321e-21)
(13.9177 -0.796498 -1.11851e-19)
(13.8758 -1.33868 1.64052e-19)
(13.8115 -1.87876 2.03155e-19)
(13.7251 -2.41579 -2.38603e-19)
(13.6168 -2.94886 7.68079e-19)
(13.4868 -3.4771 4.78268e-19)
(13.3354 -3.9996 -1.53674e-19)
(13.1629 -4.51552 -1.64597e-19)
(12.9697 -5.02401 5.09724e-19)
(12.7561 -5.52423 8.90444e-19)
(12.5226 -6.01537 3.54606e-19)
(12.2695 -6.49663 2.24914e-19)
(11.9974 -6.96724 -6.04884e-19)
(11.7067 -7.42645 -1.43336e-18)
(11.398 -7.87349 1.56679e-18)
(11.0717 -8.30766 1.64867e-18)
(10.7285 -8.72814 -1.16846e-18)
(10.3688 -9.13434 4.09309e-19)
(9.99322 -9.52523 -1.01102e-19)
(13.1843 -0.245936 1.91105e-20)
(13.1676 -0.758698 -2.62626e-20)
(13.1299 -1.27063 -1.35463e-19)
(13.0712 -1.78082 5.83573e-20)
(12.9915 -2.28834 1.7566e-21)
(12.891 -2.79234 3.23306e-20)
(12.77 -3.29197 -3.63373e-19)
(12.6288 -3.78639 2.70458e-19)
(12.4674 -4.27479 -5.49966e-19)
(12.2864 -4.75634 5.72989e-19)
(12.0861 -5.23027 -3.4987e-20)
(11.8667 -5.69576 -5.38397e-19)
(11.6288 -6.15209 2.04029e-19)
(11.3727 -6.59847 1.66725e-18)
(11.099 -7.03419 9.57293e-19)
(10.808 -7.45849 -6.91202e-19)
(10.5004 -7.87069 -1.00707e-18)
(10.1767 -8.27 5.07764e-19)
(9.83736 -8.65581 -3.34923e-19)
(9.48283 -9.02717 1.05116e-18)
(12.4711 -0.236146 -1.30971e-20)
(12.4564 -0.720044 6.15999e-20)
(12.4221 -1.2033 4.22693e-20)
(12.3679 -1.68506 -5.24566e-20)
(12.2939 -2.16448 2.01145e-19)
(12.2003 -2.64073 -5.7012e-19)
(12.0873 -3.11301 3.26554e-19)
(11.955 -3.58054 -2.43246e-19)
(11.8039 -4.04252 1.03237e-21)
(11.634 -4.4982 -3.8001e-19)
(11.4459 -4.94682 5.78008e-19)
(11.2397 -5.38763 1.45535e-18)
(11.0159 -5.81992 -1.62409e-18)
(10.7748 -6.24294 -2.47413e-20)
(10.5171 -6.65601 -1.51543e-18)
(10.243 -7.05841 4.43607e-19)
(9.95313 -7.44946 -4.90134e-19)
(9.64793 -7.8284 -3.83448e-21)
(9.32803 -8.19466 1.12779e-18)
(8.99372 -8.54729 -1.90312e-20)
(11.8019 -0.227176 -5.94648e-21)
(11.7886 -0.684035 4.1388e-20)
(11.7567 -1.14037 1.44233e-20)
(11.7061 -1.59539 -2.33271e-19)
(11.6369 -2.04832 2.49058e-19)
(11.5491 -2.49835 -2.19011e-19)
(11.443 -2.94474 6.34311e-19)
(11.3187 -3.38675 -6.41551e-20)
(11.1765 -3.82363 -3.44351e-19)
(11.0167 -4.25468 6.76417e-20)
(10.8394 -4.67916 -1.22715e-19)
(10.6452 -5.0964 -3.48782e-19)
(10.4343 -5.50569 -5.10686e-19)
(10.207 -5.90636 -3.39392e-19)
(9.96396 -6.29773 -3.69544e-19)
(9.70547 -6.67912 -4.24614e-19)
(9.43207 -7.04989 -3.54984e-19)
(9.14414 -7.40929 -5.42024e-19)
(8.84238 -7.75677 6.9016e-20)
(8.52704 -8.09143 2.85412e-20)
(11.177 -0.219094 4.26198e-21)
(11.1645 -0.650737 5.47418e-21)
(11.1345 -1.08193 -3.07589e-21)
(11.0868 -1.51193 -6.2665e-20)
(11.0215 -1.94001 -1.46403e-19)
(10.9387 -2.36542 -8.96135e-20)
(10.8385 -2.78746 -4.40236e-19)
(10.7212 -3.20543 4.09599e-19)
(10.587 -3.61863 -2.3786e-19)
(10.436 -4.02639 5.22139e-19)
(10.2687 -4.42804 -1.05755e-19)
(10.0852 -4.82292 8.93836e-19)
(9.88593 -5.2104 4.44149e-20)
(9.67126 -5.58982 1.21136e-18)
(9.44162 -5.96056 -8.29247e-19)
(9.19741 -6.32196 5.91642e-19)
(8.93914 -6.67342 9.09089e-19)
(8.66723 -7.01423 5.28003e-19)
(8.38228 -7.3438 5.64749e-19)
(8.08458 -7.6613 -8.15035e-19)
(10.5941 -0.211367 -3.63897e-20)
(10.5821 -0.61951 3.17383e-22)
(10.5535 -1.02724 1.31323e-19)
(10.5082 -1.43388 -1.23592e-19)
(10.4463 -1.83872 7.54151e-20)
(10.3678 -2.24107 2.91555e-19)
(10.2729 -2.64028 -9.12628e-20)
(10.1618 -3.03568 -9.03172e-20)
(10.0347 -3.42662 -1.2025e-19)
(9.89177 -3.81247 1.98893e-19)
(9.7333 -4.1926 -2.95678e-19)
(9.55958 -4.56641 -6.89787e-20)
(9.37093 -4.93329 -5.47601e-19)
(9.16771 -5.29264 1.47419e-19)
(8.95034 -5.64388 2.63392e-19)
(8.71923 -5.98639 1.87183e-19)
(8.47488 -6.31959 -3.62493e-19)
(8.21771 -6.64279 1.29082e-19)
(7.94835 -6.95544 -5.49547e-19)
(7.66705 -7.2567 6.48887e-20)
(10.0499 -0.203804 3.61358e-20)
(10.0382 -0.590018 9.73824e-20)
(10.0108 -0.975845 -2.15942e-19)
(9.96755 -1.36064 -1.67796e-19)
(9.90858 -1.74375 -8.49777e-20)
(9.83396 -2.12453 -2.35406e-19)
(9.74383 -2.50234 1.68734e-19)
(9.63833 -2.87658 2.15225e-19)
(9.51766 -3.24662 -4.5607e-19)
(9.38201 -3.61189 2.19509e-19)
(9.23164 -3.9718 2.32095e-19)
(9.06682 -4.32578 2.94222e-19)
(8.88787 -4.67327 -4.11943e-19)
(8.69513 -5.01372 5.67003e-19)
(8.48902 -5.34658 -5.15433e-19)
(8.26994 -5.6713 -9.6963e-20)
(8.0384 -5.98731 -1.55872e-19)
(7.79485 -6.29397 6.74357e-19)
(7.53992 -6.59071 5.18182e-19)
(7.27389 -6.87669 -2.1659e-19)
(9.54093 -0.196343 -3.02569e-20)
(9.5294 -0.562053 1.70934e-20)
(9.50297 -0.927391 1.34196e-19)
(9.4616 -1.29175 1.87274e-20)
(9.40531 -1.65451 1.93181e-19)
(9.3342 -2.01507 1.59291e-19)
(9.24839 -2.37283 -1.34599e-19)
(9.14801 -2.72721 -1.91841e-19)
(9.03325 -3.07765 1.6357e-19)
(8.90428 -3.42359 1.2071e-19)
(8.76136 -3.76449 -1.32142e-19)
(8.60473 -4.09982 5.36818e-19)
(8.4347 -4.42907 -8.0831e-19)
(8.2516 -4.75174 1.86191e-19)
(8.05585 -5.06732 2.31134e-19)
(7.84785 -5.37533 -3.93619e-19)
(7.62815 -5.6752 -8.00523e-19)
(7.39718 -5.96639 2.62474e-19)
(7.15565 -6.24824 1.72205e-19)
(6.90386 -6.51995 3.5653e-20)
(9.06373 -0.188956 -1.18441e-20)
(9.05234 -0.535447 1.03636e-20)
(9.02684 -0.881575 -5.98993e-20)
(8.98716 -1.22677 -3.65785e-20)
(8.93335 -1.57044 -1.03429e-20)
(8.86548 -1.91202 -1.41439e-19)
(8.78366 -2.25096 3.75365e-19)
(8.68803 -2.5867 1.8687e-20)
(8.57875 -2.91872 -2.07033e-21)
(8.45598 -3.24648 -3.34051e-19)
(8.31996 -3.5695 2.02486e-19)
(8.17092 -3.88729 -1.87799e-19)
(8.00916 -4.19938 3.52851e-19)
(7.83498 -4.50532 -5.26288e-19)
(7.64881 -4.80465 -1.51165e-20)
(7.45104 -5.09698 -3.09088e-19)
(7.24228 -5.38175 6.35165e-19)
(7.02296 -5.6585 -1.61314e-19)
(6.79393 -5.92653 -4.02036e-20)
(6.55547 -6.18502 -2.10543e-19)
(8.61522 -0.181636 3.70212e-20)
(8.60399 -0.510069 -2.91678e-21)
(8.57937 -0.838148 7.42401e-20)
(8.54129 -1.16533 -7.84325e-20)
(8.48981 -1.49106 9.35839e-20)
(8.42499 -1.81481 -5.42049e-20)
(8.34693 -2.13605 -2.03821e-19)
(8.25576 -2.45426 8.73517e-20)
(8.15161 -2.76894 7.38062e-20)
(8.03465 -3.07961 -9.91303e-20)
(7.90508 -3.3858 -1.92388e-19)
(7.76314 -3.68707 -9.89551e-21)
(7.60908 -3.983 -3.36657e-19)
(7.44321 -4.2732 3.74098e-19)
(7.26593 -4.55724 1.94967e-19)
(7.07764 -4.83486 7.29349e-19)
(6.87901 -5.10548 -1.04503e-18)
(6.67044 -5.36888 2.71304e-19)
(6.4531 -5.62413 6.88713e-19)
(6.22711 -5.87057 5.38073e-19)
(8.19273 -0.174406 -2.69481e-20)
(8.1817 -0.485836 2.02861e-20)
(8.15795 -0.796922 -2.69227e-20)
(8.12144 -1.10715 -1.5729e-19)
(8.07219 -1.416 1.60217e-19)
(8.01029 -1.72295 5.67397e-20)
(7.93581 -2.02753 1.33967e-20)
(7.84886 -2.32923 1.58538e-19)
(7.74958 -2.62759 -3.58618e-19)
(7.63811 -2.92216 2.89279e-19)
(7.51464 -3.2125 -3.06565e-20)
(7.37936 -3.49822 4.69165e-19)
(7.23255 -3.77891 -5.8726e-19)
(7.07445 -4.05429 9.77013e-22)
(6.90547 -4.32394 -3.29039e-19)
(6.72596 -4.58778 3.77759e-20)
(6.53672 -4.84517 5.82567e-19)
(6.33803 -5.09629 -4.8385e-19)
(6.13163 -5.33982 -1.2389e-19)
(5.91723 -5.57558 -8.57936e-19)
(7.79402 -0.167336 7.46284e-21)
(7.78327 -0.462721 9.42732e-22)
(7.76044 -0.757777 -5.67825e-20)
(7.72548 -1.05201 2.50459e-20)
(7.67843 -1.34494 4.97974e-20)
(7.61935 -1.63607 7.17602e-20)
(7.54832 -1.92494 -2.78687e-20)
(7.46543 -2.21109 6.83112e-20)
(7.37081 -2.49408 -1.24191e-19)
(7.26458 -2.77349 9.00299e-20)
(7.14692 -3.0489 -6.37892e-20)
(7.01799 -3.31996 -3.36429e-20)
(6.87804 -3.58631 -5.91996e-20)
(6.72726 -3.84773 -4.58127e-20)
(6.56608 -4.10384 1.22328e-19)
(6.39473 -4.35478 -1.07676e-20)
(6.21419 -4.59979 -4.79275e-19)
(6.0245 -4.83977 -7.79589e-20)
(5.82836 -5.07258 5.07621e-19)
(5.62449 -5.29942 2.63737e-19)
(7.41738 -0.160544 8.57948e-22)
(7.40701 -0.440755 1.55589e-20)
(7.38515 -0.720657 9.21797e-23)
(7.35178 -0.999784 5.32329e-20)
(7.30692 -1.27767 -1.06104e-19)
(7.25062 -1.55386 -1.15262e-19)
(7.18296 -1.82791 1.56099e-19)
(7.10403 -2.0994 -1.08089e-19)
(7.01393 -2.36789 -3.10157e-21)
(6.91279 -2.63301 1.18312e-19)
(6.80075 -2.89436 7.14665e-21)
(6.67795 -3.15162 2.08363e-19)
(6.54459 -3.40448 -9.22101e-20)
(6.40084 -3.65275 -1.09084e-19)
(6.24707 -3.89612 -3.11759e-19)
(6.0834 -4.13497 -2.20692e-20)
(5.91097 -4.36842 -3.12993e-19)
(5.72937 -4.59847 2.00591e-19)
(5.54292 -4.82141 2.9724e-19)
(5.34823 -5.04162 -1.78126e-19)
(7.06159 -0.153976 -1.41123e-20)
(7.05172 -0.419896 2.98618e-20)
(7.03091 -0.685529 4.91051e-20)
(6.99917 -0.950429 -5.63008e-20)
(6.95652 -1.21416 8.70374e-20)
(6.903 -1.47629 -2.70003e-20)
(6.83869 -1.7364 -3.84858e-20)
(6.76368 -1.99409 -2.58818e-20)
(6.67805 -2.24897 8.32604e-22)
(6.58192 -2.50067 -6.93162e-20)
(6.47541 -2.74883 2.4717e-20)
(6.35863 -2.99316 9.6206e-20)
(6.23176 -3.23336 2.34463e-19)
(6.09487 -3.46931 4.33481e-19)
(5.94832 -3.70074 -4.30069e-20)
(5.79197 -3.92826 4.89455e-19)
(5.62718 -4.15091 -2.02945e-19)
(5.45274 -4.37234 2.8854e-19)
(5.27533 -4.58651 1.59682e-19)
(5.08761 -4.8036 -9.07627e-20)
(6.72578 -0.147312 5.41527e-21)
(6.71653 -0.40002 -1.4493e-20)
(6.69688 -0.652481 -1.05107e-19)
(6.66683 -0.904269 -8.73501e-20)
(6.62641 -1.15497 1.03935e-19)
(6.57568 -1.40419 1.55598e-19)
(6.51469 -1.65152 9.41486e-21)
(6.44353 -1.89661 -8.68879e-20)
(6.36228 -2.13907 -1.22229e-19)
(6.27103 -2.37857 1.93184e-19)
(6.1699 -2.61478 -1.26757e-20)
(6.05895 -2.84743 -3.78535e-19)
(5.93834 -3.07624 -3.84856e-19)
(5.80802 -3.30112 1.45784e-19)
(5.66834 -3.52184 1.71916e-19)
(5.51876 -3.73911 -1.84994e-20)
(5.36089 -3.95207 -1.37136e-19)
(5.19192 -4.1662 -1.06796e-19)
(5.02187 -4.37365 -1.43877e-19)
(4.83578 -4.59594 2.31068e-19)
(6.40925 -0.141908 -1.64768e-20)
(6.40073 -0.382033 2.86931e-20)
(6.38236 -0.622081 1.87109e-20)
(6.35414 -0.861653 2.85242e-20)
(6.31606 -1.10036 -1.07282e-19)
(6.26819 -1.33784 -1.31804e-19)
(6.21056 -1.57373 -3.18114e-20)
(6.14323 -1.80767 1.62979e-19)
(6.06626 -2.03933 8.02332e-20)
(5.97972 -2.26838 3.90966e-20)
(5.88369 -2.49452 -1.43802e-19)
(5.77817 -2.71748 2.90791e-19)
(5.66328 -2.93702 -2.75731e-19)
(5.53885 -3.153 -6.57451e-20)
(5.40521 -3.36525 -8.54927e-20)
(5.26124 -3.57439 -9.85679e-21)
(5.10892 -3.77961 -1.38779e-19)
(4.9425 -3.98741 1.76125e-19)
(4.77701 -4.18885 1.00633e-19)
(4.5851 -4.4294 -5.2069e-19)
(11.6008 12.4744 1.47884e-18)
(12.0833 12.0045 -2.21807e-18)
(12.5452 11.5172 7.55978e-19)
(12.988 11.0142 1.70695e-18)
(13.411 10.4954 1.1659e-19)
(13.8131 9.96094 -1.18035e-18)
(14.1933 9.4112 -2.3219e-19)
(14.5512 8.84697 -1.1197e-18)
(14.8862 8.2691 -6.44646e-20)
(15.1979 7.67847 4.20525e-19)
(15.4856 7.07599 5.18839e-19)
(15.7491 6.46261 -8.39149e-19)
(15.9878 5.83931 4.28319e-19)
(16.2016 5.20711 1.22542e-18)
(16.39 4.56699 -2.21091e-19)
(16.5528 3.92007 -7.20277e-19)
(16.6899 3.26716 9.57849e-19)
(16.8014 2.60974 -5.89376e-19)
(16.8867 1.9477 -8.72416e-20)
(16.9468 1.28428 -6.06836e-20)
(11.7417 11.2139 7.65119e-19)
(12.182 10.7491 -2.23992e-18)
(12.6015 10.2676 -1.29619e-18)
(13.0009 9.77053 5.675e-19)
(13.38 9.25819 -1.40908e-18)
(13.7381 8.73096 8.05541e-19)
(14.0744 8.18948 1.71583e-19)
(14.3886 7.63468 -1.1529e-18)
(14.6799 7.06748 4.20435e-19)
(14.948 6.48877 2.8772e-19)
(15.1925 5.89953 9.96983e-19)
(15.4128 5.30073 -8.56014e-19)
(15.6086 4.69337 -4.44786e-19)
(15.7796 4.0785 9.65679e-19)
(15.9256 3.45713 -5.6041e-19)
(16.0463 2.83034 1.00444e-19)
(16.1416 2.19904 -3.50845e-19)
(16.2114 1.56444 -5.0416e-21)
(16.2555 0.926983 -1.74163e-19)
(16.2738 0.288084 4.85128e-20)
(11.1458 10.5901 1.6181e-19)
(11.5666 10.1572 2.16208e-19)
(11.9689 9.70759 1.82891e-18)
(12.3522 9.2419 -5.96027e-19)
(12.7161 8.76068 1.61753e-20)
(13.0602 8.26462 1.06523e-18)
(13.3839 7.7545 -3.15913e-19)
(13.6864 7.23116 -1.45197e-18)
(13.9673 6.69555 1.66578e-18)
(14.2261 6.14854 -1.00728e-18)
(14.4624 5.59106 -4.44475e-19)
(14.6757 5.02406 -7.19985e-19)
(14.8656 4.44849 3.76276e-19)
(15.0318 3.86536 -4.16148e-19)
(15.174 3.27564 3.10052e-19)
(15.292 2.68035 -6.50312e-19)
(15.3855 2.08042 6.88666e-19)
(15.4544 1.47693 2.86398e-19)
(15.4985 0.870642 -4.9708e-20)
(15.5175 0.262743 6.08833e-20)
(10.4855 10.008 -1.06205e-18)
(10.8862 9.60623 -8.15439e-20)
(11.2703 9.18801 3.58877e-19)
(11.637 8.75399 -8.85563e-19)
(11.9857 8.30481 1.48833e-18)
(12.3159 7.84122 4.52893e-19)
(12.627 7.36401 -2.57652e-19)
(12.9183 6.87395 -8.81206e-20)
(13.1895 6.37185 1.22977e-18)
(13.4399 5.85857 5.01251e-19)
(13.6691 5.33497 9.99253e-19)
(13.8768 4.80192 -2.19112e-19)
(14.0623 4.26034 -1.02636e-19)
(14.2256 3.71114 -2.98025e-19)
(14.3661 3.15528 4.93377e-19)
(14.4837 2.5937 -2.46964e-19)
(14.5782 2.02732 -2.4737e-19)
(14.6492 1.45714 9.52639e-20)
(14.6966 0.884089 -6.22169e-21)
(14.7202 0.309246 -1.54546e-20)
(9.899 9.40926 1.00737e-18)
(10.2775 9.03331 1.49152e-19)
(10.6408 8.64182 -1.96699e-18)
(10.988 8.23525 -6.26236e-19)
(11.3184 7.81427 -2.80601e-19)
(11.6315 7.37957 -1.26394e-18)
(11.9267 6.93188 -6.93075e-19)
(12.2036 6.47192 -5.15646e-19)
(12.4615 6.0004 6.01024e-19)
(12.7 5.51813 -2.29282e-19)
(12.9186 5.02591 3.88409e-19)
(13.117 4.52457 5.67847e-20)
(13.2948 4.01494 9.44432e-20)
(13.4514 3.49789 -9.59164e-19)
(13.5868 2.97431 -1.74499e-19)
(13.7005 2.4451 1.00103e-19)
(13.7924 1.91114 -5.29708e-20)
(13.8622 1.37338 8.55931e-20)
(13.9098 0.832741 -1.04047e-19)
(13.9348 0.290201 1.43048e-20)
(9.35494 8.84839 -1.93295e-19)
(9.71177 8.49541 1.58487e-20)
(10.0545 8.12779 7.95638e-19)
(10.3821 7.74597 -1.76598e-19)
(10.6942 7.35051 4.88019e-19)
(10.99 6.94206 -1.60633e-18)
(11.269 6.52129 1.09432e-18)
(11.5309 6.08887 -1.97738e-19)
(11.775 5.64548 -1.86533e-20)
(12.0009 5.19184 2.17674e-19)
(12.2082 4.72872 4.3248e-19)
(12.3965 4.25688 -7.43475e-19)
(12.5654 3.77712 3.78779e-19)
(12.7146 3.29024 5.61454e-19)
(12.8437 2.79707 3.02196e-20)
(12.9525 2.29845 -2.25726e-19)
(13.0408 1.79523 -1.57304e-20)
(13.1082 1.28829 -4.81278e-20)
(13.1548 0.778507 1.18401e-20)
(13.1801 0.266776 -9.19572e-21)
(8.84924 8.33259 3.32752e-19)
(9.18563 8.00034 2.0504e-19)
(9.50876 7.65436 1.27991e-19)
(9.81783 7.295 -7.85979e-19)
(10.1122 6.92277 -7.20304e-19)
(10.3913 6.53827 1.62993e-18)
(10.6547 6.1421 1.63636e-19)
(10.9019 5.73493 1.49497e-19)
(11.1325 5.31738 4.99289e-19)
(11.346 4.89011 -7.81879e-19)
(11.542 4.45386 1.21517e-19)
(11.7202 4.00933 3.50719e-19)
(11.8801 3.55727 -2.52412e-19)
(12.0215 3.09844 -1.05247e-19)
(12.144 2.63362 4.12409e-19)
(12.2475 2.16358 -8.21706e-21)
(12.3316 1.68914 -1.32948e-20)
(12.3961 1.2111 -5.0149e-20)
(12.441 0.730316 8.36808e-21)
(12.4659 0.247596 4.87819e-20)
(8.38228 7.857 -4.4197e-19)