/*--------------------------------*- C++ -*----------------------------------*\
  =========                 |
  \\      /  F ield         | OpenFOAM: The Open Source CFD Toolbox
   \\    /   O peration     | Website:  https://openfoam.org
    \\  /    A nd           | Version:  6.0
     \\/     M anipulation  |
\*---------------------------------------------------------------------------*/
FoamFile
{
    version     2.0;
    format      ascii;
    class       volVectorField;
    location    "11";
    object      U;
}
// * * * * * * * * * * * * * * * * * * * * * * * * * * * * * * * * * * * * * //

dimensions      [0 1 -1 0 0 0 0];

internalField   nonuniform List<vector> 
2400
(
(2.58414 -12.4902 -3.46639e-19)
(0.442191 -11.9679 1.19763e-19)
(0.610651 -11.4741 -9.50758e-20)
(0.840768 -10.8515 -5.14895e-20)
(0.90351 -10.214 -7.11862e-20)
(0.935428 -9.59409 9.49621e-20)
(0.965376 -9.01487 3.16357e-20)
(0.992101 -8.49086 4.69601e-20)
(1.02309 -8.02561 -4.89002e-20)
(1.04261 -7.61696 -2.79609e-21)
(3.57873 -12.3219 4.00258e-19)
(1.40281 -12.0335 -1.46823e-20)
(1.52502 -11.5386 6.9526e-20)
(1.69687 -10.8904 4.95679e-19)
(1.70215 -10.2373 -3.24137e-19)
(1.68 -9.60741 -1.64077e-20)
(1.66047 -9.02249 -3.42911e-21)
(1.64376 -8.49631 -4.04751e-21)
(1.63751 -8.0312 1.31806e-19)
(1.6205 -7.62712 -3.80359e-21)
(4.56296 -12.0759 7.03316e-19)
(2.37232 -12.0194 4.88032e-19)
(2.44758 -11.5246 -1.17542e-18)
(2.55709 -10.8548 3.26795e-19)
(2.50181 -10.1912 4.25048e-19)
(2.42348 -9.5565 -2.34194e-19)
(2.35326 -8.97071 -1.66657e-19)
(2.29282 -8.44636 1.22211e-19)
(2.24915 -7.98456 -1.30459e-19)
(2.19368 -7.58883 2.1738e-19)
(5.52844 -11.7509 -2.42259e-18)
(3.34373 -11.9225 7.7837e-19)
(3.37094 -11.4299 -7.03587e-19)
(3.41455 -10.7436 2.87231e-19)
(3.29628 -10.0752 -2.77946e-19)
(3.16018 -9.44106 3.68329e-19)
(3.03847 -8.85939 1.28677e-19)
(2.93441 -8.34111 -4.94554e-19)
(2.85355 -7.88678 -3.41087e-19)
(2.7586 -7.50581 3.70657e-19)
(6.46926 -11.3472 1.43679e-19)
(4.30945 -11.7418 -3.05144e-19)
(4.2877 -11.2539 -1.18481e-19)
(4.26249 -10.5566 -1.3956e-19)
(4.07961 -9.88953 -6.85192e-19)
(3.88482 -9.26175 9.78631e-20)
(3.71102 -8.68902 -5.60783e-20)
(3.56289 -8.18049 5.01091e-19)
(3.44386 -7.73719 -2.45935e-19)
(3.30755 -7.37683 -1.66806e-19)
(7.37767 -10.865 2.11453e-18)
(5.26124 -11.476 -1.42405e-19)
(5.18962 -10.9956 1.89664e-18)
(5.09332 -10.2939 -2.44249e-19)
(4.84526 -9.63492 8.229e-19)
(4.59231 -9.02015 -9.5709e-20)
(4.3673 -8.46211 4.18411e-21)
(4.17531 -7.96757 4.22951e-19)
(4.01651 -7.53891 -2.23919e-19)
(3.83659 -7.20388 5.04213e-19)
(8.24724 -10.3063 -8.38273e-19)
(6.19137 -11.1252 1.49659e-19)
(6.0686 -10.6553 -5.20846e-19)
(5.8988 -9.95522 -4.25266e-19)
(5.58494 -9.3113 1.03642e-20)
(5.27495 -8.71666 1.20984e-18)
(5.00152 -8.1801 -4.17124e-19)
(4.769 -7.70514 1.34834e-19)
(4.57204 -7.29542 -5.50032e-19)
(4.34906 -6.98943 -3.66167e-19)
(9.07189 -9.67381 3.41093e-18)
(7.09306 -10.6906 -3.89033e-19)
(6.91761 -10.2335 -2.56532e-18)
(6.67152 -9.54081 1.30314e-19)
(6.28982 -8.9178 4.1918e-19)
(5.9215 -8.34915 -5.69214e-19)
(5.60062 -7.83995 -6.4437e-19)
(5.33225 -7.39083 9.29805e-19)
(5.10508 -7.0084 -8.51082e-20)
(4.84865 -6.74505 -6.03311e-19)
(9.84649 -8.97129 -2.78788e-18)
(7.96078 -10.1745 1.23856e-18)
(7.73178 -9.73237 1.59102e-18)
(7.40754 -9.05216 3.63912e-19)
(6.9558 -8.45417 -1.19966e-18)
(6.52464 -7.91411 7.01699e-19)
(6.14905 -7.43382 3.65703e-19)
(5.83728 -7.01419 7.04145e-19)
(5.57766 -6.67306 8.92017e-19)
(5.29683 -6.48451 -4.64075e-19)
(10.5648 -8.20187 8.95856e-19)
(8.78857 -9.57966 -3.16582e-19)
(8.50698 -9.15548 -9.17309e-20)
(8.10561 -8.49259 3.37803e-19)
(7.58592 -7.92236 2.41021e-19)
(7.09187 -7.4106 -1.80627e-19)
(6.65335 -6.95687 -2.97899e-19)
(6.27285 -6.56766 1.13763e-19)
(5.93566 -6.27967 -3.52065e-19)
(5.5906 -6.17634 2.80533e-19)
(13.7762 1.80793 4.8134e-20)
(13.8182 0.711883 1.52583e-19)
(13.7723 -0.380251 -4.77727e-19)
(13.6417 -1.46148 4.3987e-19)
(13.4286 -2.52534 1.74946e-19)
(13.1356 -3.56547 2.27777e-18)
(12.7647 -4.57584 -9.03292e-19)
(12.32 -5.5504 -1.30835e-18)
(11.8025 -6.48371 3.32059e-18)
(11.2188 -7.36936 -2.62115e-18)
(13.6205 -0.570941 1.42783e-19)
(13.4865 -1.62811 -2.66166e-21)
(13.2642 -2.66849 -3.55322e-19)
(12.9573 -3.68467 9.50297e-19)
(12.5692 -4.66967 -3.33947e-19)
(12.1043 -5.61727 2.6115e-18)
(11.5668 -6.52085 -1.72935e-18)
(10.962 -7.37505 2.52931e-18)
(10.2941 -8.17315 -2.45893e-18)
(9.56872 -8.911 -9.71479e-19)
(12.9157 -0.549013 -2.13699e-19)
(12.8151 -1.54221 6.5494e-19)
(12.6301 -2.52431 -1.14719e-18)
(12.3629 -3.48818 6.0739e-19)
(12.0163 -4.4266 -5.05403e-19)
(11.594 -5.33307 -2.03359e-18)
(11.0999 -6.20076 -5.57102e-19)
(10.5392 -7.02349 -2.65745e-18)
(9.91646 -7.79452 1.62563e-18)
(9.23765 -8.50762 9.71718e-19)
(11.9711 -0.394122 8.37261e-20)
(11.902 -1.3093 -1.45398e-19)
(11.7556 -2.21833 -2.02497e-19)
(11.5324 -3.1151 -8.37068e-19)
(11.2352 -3.99233 5.59246e-19)
(10.8663 -4.84428 -1.06423e-19)
(10.43 -5.66398 -1.1307e-18)
(9.93035 -6.4456 -4.88443e-20)
(9.37268 -7.18229 3.71759e-19)
(8.76275 -7.86708 4.53886e-20)
(11.0993 -0.365659 -8.5394e-20)
(11.0386 -1.20904 -3.36214e-19)
(10.9077 -2.04795 2.83095e-20)
(10.7056 -2.87813 6.38776e-19)
(10.4362 -3.6917 7.00256e-19)
(10.0997 -4.48514 -4.83158e-19)
(9.70208 -5.25059 -6.96188e-20)
(9.24531 -5.9844 -3.33008e-19)
(8.73688 -6.67879 -4.82095e-19)
(8.18181 -7.32756 8.23125e-19)
(10.354 -0.3446 2.0717e-20)
(10.2936 -1.12633 2.67845e-19)
(10.1701 -1.90341 -6.29946e-19)
(9.97894 -2.67453 7.69494e-19)
(9.72808 -3.42959 4.70795e-19)
(9.41217 -4.16981 2.60189e-19)
(9.04314 -4.88397 -1.94416e-19)
(8.61632 -5.57425 -5.74028e-19)
(8.14693 -6.22829 1.15382e-18)
(7.63531 -6.844 -1.35728e-19)
(9.72116 -0.316771 3.84843e-20)
(9.65847 -1.04569 -2.80146e-19)
(9.54036 -1.76859 -1.83027e-19)
(9.35492 -2.48852 -4.02039e-19)
(9.11928 -3.19046 -5.75019e-20)
(8.81562 -3.88432 -5.76155e-19)
(8.47055 -4.55078 -3.87284e-19)
(8.06153 -5.20598 -6.16774e-20)
(7.62621 -5.82404 -7.85194e-19)
(7.14648 -6.41414 9.98159e-19)
(9.17725 -0.287378 -3.05895e-20)
(9.11085 -0.971612 2.26429e-19)
(8.99862 -1.64744 -1.01461e-19)
(8.81503 -2.32365 2.19208e-19)
(8.59495 -2.97704 5.29849e-19)
(8.2956 -3.63078 9.04883e-19)
(7.97453 -4.25042 -2.37094e-19)
(7.5679 -4.88048 -8.84454e-19)
(7.16787 -5.46749 2.72929e-19)
(6.70068 -6.05066 -1.64698e-18)
(8.7015 -0.251147 4.22218e-20)
(8.63031 -0.899282 -5.06329e-20)
(8.52573 -1.53663 -4.83099e-19)
(8.34026 -2.17854 1.46208e-19)
(8.13809 -2.79077 -3.56325e-19)
(7.83396 -3.41324 -2.27853e-19)
(7.54007 -3.98757 -9.72837e-20)
(7.11223 -4.60435 4.05816e-19)
(6.75405 -5.16236 3.82412e-19)
(6.24987 -5.79694 3.26622e-19)
(8.27785 -0.228952 -8.84345e-20)
(8.19795 -0.844974 1.53398e-19)
(8.10081 -1.44971 7.75075e-20)
(7.90802 -2.06676 2.09917e-19)
(7.72418 -2.6488 -1.76227e-19)
(7.40394 -3.2549 -1.65549e-20)
(7.13628 -3.79445 -5.10597e-19)
(6.65771 -4.41396 7.01015e-19)
(6.34019 -4.9301 -4.57261e-19)
(5.72698 -5.69079 1.43426e-19)
(8.61701 11.1987 -1.51285e-18)
(9.47553 10.4994 -1.45429e-18)
(10.2698 9.72861 1.67296e-18)
(10.9949 8.89319 -2.5755e-18)
(11.6453 7.99892 1.85783e-18)
(12.2162 7.05255 -1.27798e-18)
(12.7034 6.06117 -2.84481e-19)
(13.1048 5.03335 -2.67157e-19)
(13.4178 3.97625 4.23988e-19)
(13.6427 2.89946 3.03222e-20)
(10.05 9.00877 1.74662e-18)
(10.7695 8.25036 2.97571e-19)
(11.4205 7.42965 -2.12522e-18)
(11.9971 6.55249 -1.57115e-18)
(12.494 5.62466 1.29815e-18)
(12.9071 4.65302 -1.01724e-18)
(13.2324 3.64555 1.11819e-18)
(13.468 2.61075 -3.17939e-19)
(13.6114 1.5575 -9.25556e-19)
(13.663 0.493815 -1.42531e-19)
(9.39131 8.23507 -2.71631e-19)
(10.0708 7.55687 -2.15936e-19)
(10.6898 6.81946 -2.17737e-18)
(11.2424 6.0266 1.59653e-18)
(11.7235 5.18297 1.61793e-18)
(12.1288 4.29476 6.79313e-19)
(12.4547 3.36933 -2.65417e-19)
(12.6984 2.41433 -5.39296e-19)
(12.8574 1.43765 -3.97761e-20)
(12.9302 0.447107 4.29203e-20)
(8.58784 7.54679 3.65759e-19)
(9.21774 6.9451 -8.41008e-19)
(9.79372 6.28876 -3.23029e-19)
(10.3104 5.57953 -7.83343e-19)
(10.7635 4.82131 -7.92733e-19)
(11.1493 4.02002 1.30918e-18)
(11.4648 3.18253 8.2384e-19)
(11.7068 2.31537 -6.9382e-19)
(11.873 1.42554 2.93807e-20)
(11.9614 0.519803 -2.89589e-20)
(8.00464 6.90954 -1.27841e-18)
(8.58154 6.36139 1.4032e-18)
(9.10713 5.7636 -3.53593e-19)
(9.57748 5.11548 6.97031e-19)
(9.99003 4.42105 3.12036e-19)
(10.3417 3.68676 -7.50401e-19)
(10.6301 2.9192 3.47381e-19)
(10.8518 2.12379 -3.73357e-19)
(11.0052 1.3071 -3.53794e-19)
(11.0877 0.474801 1.48119e-19)
(7.54215 6.38837 -1.64719e-19)
(8.07511 5.88383 2.57309e-19)
(8.55622 5.33303 -3.02616e-19)
(8.98378 4.73263 -1.32651e-18)
(9.35816 4.08857 1.93495e-19)
(9.6768 3.40812 -1.73043e-20)
(9.938 2.69726 -6.09652e-19)
(10.1375 1.96043 -2.04897e-19)
(10.2749 1.20424 1.8475e-19)
(10.3465 0.433349 -5.34925e-20)
(7.15099 5.95831 -6.44446e-19)
(7.6495 5.49431 -5.6622e-22)
(8.09462 4.98228 2.87935e-19)
(8.48575 4.41986 7.30795e-19)
(8.82739 3.81765 1.44127e-19)
(9.11734 3.18249 3.53449e-19)
(9.3549 2.51912 6.7013e-19)
(9.53426 1.83125 -2.81385e-19)
(9.65744 1.12621 2.33219e-19)
(9.71807 0.407425 -8.77154e-20)
(6.80937 5.59698 1.05568e-18)
(7.27272 5.17807 5.5585e-19)
(7.68898 4.69588 2.28001e-19)
(8.05158 4.16278 -3.35474e-19)
(8.36704 3.59639 -1.7836e-19)
(8.63316 2.99943 -3.82793e-19)
(8.85145 2.37521 3.36093e-20)
(9.01395 1.72771 -8.40871e-20)
(9.1261 1.06564 -4.86243e-19)
(9.17697 0.390816 6.44846e-20)
(6.54525 5.27505 -8.52905e-20)
(6.94237 4.9199 -6.37498e-19)
(7.32269 4.4599 -2.95919e-19)
(7.66211 3.95225 6.50543e-20)
(7.95679 3.42022 -3.86928e-20)
(8.20223 2.8572 2.63891e-19)
(8.4048 2.26618 1.29936e-19)
(8.5538 1.65238 1.88149e-19)
(8.65885 1.02656 2.2172e-19)
(8.70165 0.38846 -8.97209e-20)
(6.45146 4.92021 -2.64492e-19)
(6.74015 4.63161 4.43634e-19)
(7.04407 4.18728 -6.50845e-19)
(7.35226 3.70886 -1.92011e-20)
(7.62268 3.21571 5.43121e-19)
(7.84027 2.69078 2.16217e-20)
(8.02069 2.13757 7.13339e-20)
(8.15185 1.56103 -4.70475e-19)
(8.24766 0.973865 -3.68345e-21)
(8.27969 0.372897 4.07608e-20)
(0.904318 6.94642 1.67052e-20)
(0.883212 7.32119 -7.58215e-21)
(0.885764 7.73038 -5.01787e-21)
(0.87604 8.18554 5.78567e-20)
(0.855357 8.70663 -2.53097e-20)
(0.821727 9.3311 -1.0037e-19)
(0.787587 10.1277 1.19159e-19)
(0.87754 11.1829 4.15377e-20)
(0.810331 12.4148 6.53087e-20)
(-1.74285 13.5712 1.18802e-19)
(1.46892 6.9169 4.19695e-20)
(1.47646 7.30222 -1.43244e-19)
(1.50753 7.71975 1.46874e-19)
(1.53165 8.184 3.14946e-20)
(1.55101 8.71532 -6.65892e-20)
(1.56579 9.35175 7.5569e-20)
(1.5935 10.1602 2.88242e-19)
(1.76417 11.2116 -3.80313e-19)
(1.78858 12.4297 1.26346e-20)
(-0.677714 13.7201 -5.06087e-19)
(2.03153 6.86708 1.79316e-19)
(2.0684 7.25431 -2.59784e-19)
(2.12957 7.6717 -1.09656e-19)
(2.18997 8.13764 -1.09397e-20)
(2.25184 8.67307 -1.16294e-19)
(2.31732 9.31592 -5.55891e-20)
(2.40869 10.1301 9.34215e-20)
(2.65971 11.1701 2.64733e-19)
(2.77308 12.3659 2.09719e-19)
(0.400139 13.7834 -8.04999e-19)
(2.60852 6.74334 1.72314e-19)
(2.66988 7.13962 -2.119e-19)
(2.75839 7.56311 -2.25018e-19)
(2.85364 8.03386 1.2526e-19)
(2.95723 8.57345 7.17907e-19)
(3.07335 9.2201 -2.90763e-19)
(3.22865 10.035 2.40335e-19)
(3.55861 11.0568 -8.31556e-19)
(3.7574 12.2229 5.25911e-19)
(1.48378 13.7612 1.23009e-18)
(3.16641 6.61649 1.24808e-19)
(3.25547 7.00701 -9.85867e-20)
(3.37542 7.4226 2.82696e-19)
(3.50965 7.8869 -2.60589e-19)
(3.65805 8.4223 1.97022e-19)
(3.82689 9.06594 1.7808e-19)
(4.0472 9.87476 1.81028e-19)
(4.45464 10.8708 1.36029e-19)
(4.73485 12 8.26144e-19)
(2.56623 13.6525 5.61674e-19)
(3.74623 6.38653 -3.77532e-19)
(3.8526 6.79179 -3.07284e-19)
(3.9968 7.21429 5.06708e-19)
(4.1649 7.67955 -5.70533e-19)
(4.3548 8.21239 -2.81171e-19)
(4.57473 8.85062 -6.98534e-19)
(4.85914 9.6481 3.33707e-20)
(5.3416 10.6114 -7.79119e-19)
(5.69876 11.6969 -2.43109e-19)
(3.6402 13.4572 -1.69525e-18)
(4.28503 6.18127 5.51632e-19)
(4.41802 6.57566 -8.80624e-19)
(4.5945 6.98242 7.45421e-19)
(4.80226 7.43221 -1.68258e-19)
(5.03696 7.95184 -7.06145e-20)
(5.30941 8.57694 9.44335e-19)
(5.65787 9.35582 -6.20367e-19)
(6.21262 10.2788 -6.64223e-19)
(6.64151 11.314 -2.29106e-19)
(4.69824 13.1746 1.55254e-18)
(4.87408 5.83317 -9.33914e-21)
(5.00654 6.25997 4.83588e-19)
(5.19488 6.67891 -2.35733e-19)
(5.43058 7.12546 3.26595e-19)
(5.70446 7.63437 -5.59924e-19)
(6.02673 8.24354 -4.7532e-19)
(6.43726 8.99792 2.93272e-19)
(7.0607 9.87353 -7.44725e-19)
(7.55617 10.8523 2.1039e-18)
(5.7326 12.8068 -7.81882e-19)
(5.39194 5.56658 -2.62281e-19)
(5.54589 5.97401 -1.58124e-19)
(5.75926 6.36345 6.71956e-19)
(6.03103 6.78254 -9.99783e-19)
(6.34747 7.26824 1.00815e-18)
(6.71957 7.85349 -1.21012e-18)
(7.1904 8.57598 1.3953e-19)
(7.87843 9.39672 6.3048e-19)
(8.43417 10.313 -3.59772e-18)
(6.73593 12.353 2.86769e-18)
(6.00142 5.14363 6.6853e-19)
(6.10016 5.58664 -6.55247e-19)
(6.30514 5.98707 6.94177e-19)
(6.60643 6.39014 1.77748e-19)
(6.96235 6.85192 -4.80063e-19)
(7.38134 7.40816 3.79419e-19)
(7.90973 8.0915 4.77893e-19)
(8.65801 8.84978 -7.93494e-20)
(9.26914 9.69793 4.36477e-19)
(7.69991 11.8184 2.01017e-21)
(-3.70354 5.21386 -2.72079e-19)
(-3.98891 5.29165 2.29705e-19)
(-4.26407 5.48219 -1.13521e-19)
(-4.56099 5.7401 2.65866e-19)
(-4.90056 6.03817 2.47502e-19)
(-5.30333 6.38765 7.81479e-20)
(-5.80486 6.84765 6.84158e-19)
(-6.39653 7.59544 3.99992e-19)
(-7.30936 8.49745 9.60286e-19)
(-10.2416 7.98762 -4.5506e-19)
(-3.45275 5.50872 1.63995e-19)
(-3.70144 5.64949 2.16004e-19)
(-3.92091 5.88785 -3.3551e-19)
(-4.17139 6.17361 -1.86429e-19)
(-4.47359 6.49604 -3.73273e-19)
(-4.84389 6.87603 6.55982e-19)
(-5.31133 7.37708 -8.13526e-19)
(-5.85109 8.17411 -3.14311e-19)
(-6.69718 9.14102 -7.47015e-19)
(-9.64416 8.81706 1.15215e-18)
(-3.06832 5.75708 -4.35818e-20)
(-3.30748 5.96295 4.77501e-20)
(-3.50851 6.24224 -4.82386e-19)
(-3.73583 6.55757 3.34765e-19)
(-4.01004 6.90966 3.1864e-19)
(-4.34879 7.32456 2.24168e-19)
(-4.77879 7.86879 -2.94784e-19)
(-5.26137 8.71361 1.53724e-18)
(-6.0338 9.73999 2.57251e-19)
(-8.97997 9.59916 -9.14891e-19)
(-2.63656 6.00246 -4.0043e-19)
(-2.85836 6.24829 2.89756e-19)
(-3.04228 6.55604 -6.77976e-20)
(-3.25133 6.89835 5.07394e-19)
(-3.50251 7.28093 -1.40481e-19)
(-3.81225 7.73187 -7.36086e-21)
(-4.20406 8.31952 2.43513e-19)
(-4.62638 9.20974 3.41978e-19)
(-5.32046 10.2898 -8.56876e-20)
(-8.25264 10.3292 1.12608e-18)
(-2.18845 6.23663 3.35017e-19)
(-2.38526 6.5097 4.46447e-20)
(-2.54567 6.83888 -3.56161e-19)
(-2.73177 7.20381 -5.48339e-22)
(-2.95727 7.61377 5.32207e-20)
(-3.23635 8.0984 -4.98325e-19)
(-3.58772 8.72731 1.51702e-19)
(-3.94666 9.65903 -1.19968e-18)
(-4.55855 10.786 8.6527e-20)
(-7.46502 11.0016 -1.42482e-18)
(-1.71979 6.44175 -1.06074e-20)
(-1.88955 6.73944 3.02578e-19)
(-2.02454 7.08792 -2.95748e-19)
(-2.18479 7.47315 3.20982e-20)
(-2.38118 7.90768 -6.83722e-20)
(-2.62607 8.42307 4.34986e-19)
(-2.93311 9.09 9.23264e-20)
(-3.22483 10.0581 6.72446e-20)
(-3.75092 11.2243 2.0445e-19)
(-6.62113 11.6111 2.89313e-19)
(-1.2283 6.61583 -1.90629e-19)
(-1.37022 6.93584 2.34474e-19)
(-1.47958 7.30133 1.20475e-20)
(-1.6128 7.70461 4.11776e-19)
(-1.77787 8.16108 -2.43355e-19)
(-1.98541 8.70416 1.8861e-19)
(-2.2441 9.40531 -1.93317e-19)
(-2.46469 10.4039 4.81693e-19)
(-2.9018 11.6006 -5.45935e-19)
(-5.72554 12.1529 5.86363e-19)
(-0.714819 6.7517 -1.2345e-19)
(-0.828159 7.09095 1.61521e-19)
(-0.911608 7.47184 -8.14148e-20)
(-1.01684 7.89225 -6.67178e-20)
(-1.149 8.36931 1.66746e-19)
(-1.31678 8.93786 -3.00178e-19)
(-1.52376 9.66965 -2.33317e-19)
(-1.67007 10.6926 8.52381e-19)
(-2.01587 11.9113 -3.6533e-19)
(-4.78433 12.6235 -5.4213e-19)
(-0.187377 6.85746 -1.23793e-19)
(-0.270437 7.21102 3.05926e-20)
(-0.326198 7.60326 2.19273e-20)
(-0.401299 8.03732 1.21353e-21)
(-0.498295 8.53164 -1.10574e-19)
(-0.623695 9.12218 3.72772e-19)
(-0.775763 9.88028 -3.75856e-19)
(-0.845155 10.921 -5.38451e-20)
(-1.09844 12.1528 9.26788e-21)
(-3.80245 13.0187 -3.95632e-19)
(0.35514 6.91695 3.92876e-20)
(0.302591 7.28342 7.60533e-21)
(0.275215 7.68665 -1.60535e-20)
(0.2317 8.13371 -2.48699e-20)
(0.171659 8.64372 -7.27802e-20)
(0.0908506 9.25353 5.6167e-20)
(-0.00362756 10.0336 3.85996e-20)
(0.00584339 11.0852 7.48344e-20)
(-0.154127 12.3218 -1.02153e-19)
(-2.78749 13.3363 2.92595e-19)
(-3.79848 4.7589 -2.74799e-19)
(-4.33243 4.11281 1.26513e-19)
(-4.5844 3.65023 -7.82746e-20)
(-4.97436 3.13051 -1.42771e-19)
(-5.20816 2.64952 -8.66893e-20)
(-5.47352 2.13978 -3.8064e-21)
(-5.65249 1.63126 -1.66026e-21)
(-5.8242 1.10818 -2.2414e-20)
(-5.93935 0.581664 -2.1186e-20)
(-6.02961 0.0499994 1.02804e-20)
(-4.22651 4.8556 -2.24982e-19)
(-4.65817 4.29843 -1.45261e-19)
(-4.93845 3.81294 -1.75774e-19)
(-5.29318 3.28539 2.93049e-20)
(-5.54108 2.7847 8.96852e-20)
(-5.79939 2.25872 1.61751e-19)
(-5.98762 1.73169 -5.20448e-20)
(-6.15913 1.19008 1.73117e-19)
(-6.27844 0.6433 2.01112e-20)
(-6.36763 0.0902479 -1.60885e-20)
(-4.59514 5.01993 6.45406e-19)
(-4.97899 4.50831 -1.18665e-19)
(-5.28984 4.00795 3.53577e-19)
(-5.62364 3.4724 8.81526e-20)
(-5.88754 2.94777 -3.63716e-19)
(-6.14234 2.40102 -2.0625e-19)
(-6.34112 1.85091 -8.75876e-20)
(-6.5143 1.28674 4.2114e-20)
(-6.63969 0.716436 -9.37085e-20)
(-6.73042 0.139103 1.24078e-20)
(-4.94023 5.25915 -6.30248e-19)
(-5.31795 4.74825 3.66349e-19)
(-5.65294 4.22746 2.24176e-20)
(-5.98036 3.67903 1.69959e-19)
(-6.2581 3.12821 2.43345e-19)
(-6.51327 2.55805 2.26486e-20)
(-6.7216 1.98151 1.75282e-19)
(-6.89782 1.39161 7.91671e-20)
(-7.02941 0.794666 1.17233e-19)
(-7.12289 0.190094 -1.73585e-20)
(-5.30833 5.53956 4.34748e-19)
(-5.69446 5.01277 -6.79236e-19)
(-6.04684 4.46749 -6.38117e-20)
(-6.37575 3.89987 8.9366e-20)
(-6.6639 3.32178 -1.16295e-19)
(-6.92147 2.72649 -1.52875e-19)
(-7.13688 2.12187 -3.41512e-19)
(-7.31605 1.50456 2.86311e-19)
(-7.45226 0.879149 -3.09931e-20)
(-7.54795 0.245682 -1.10049e-20)
(-5.73421 5.86336 -1.0647e-18)
(-6.13417 5.31074 6.05362e-19)
(-6.50026 4.73587 2.28628e-19)
(-6.83426 4.14081 3.34133e-20)
(-7.12967 3.53134 1.15748e-19)
(-7.38944 2.9062 -3.33609e-19)
(-7.60831 2.2699 -3.02715e-19)
(-7.78801 1.62167 -1.13921e-20)
(-7.92494 0.964727 5.88645e-20)
(-8.01951 0.29977 4.04773e-20)
(-6.2618 6.28469 -2.83633e-19)
(-6.68101 5.69371 -1.83725e-19)
(-7.06174 5.07933 -6.67239e-20)
(-7.40408 4.44543 2.53043e-19)
(-7.70579 3.79568 9.70689e-20)
(-7.96746 3.13143 -2.76991e-19)
(-8.18681 2.45552 4.01311e-19)
(-8.36398 1.76876 9.6595e-20)
(-8.49704 1.07345 7.04014e-20)
(-8.58565 0.370801 -4.11067e-20)
(-6.89771 6.98223 -8.6438e-19)
(-7.35366 6.34014 -8.47618e-19)
(-7.76398 5.67349 1.37714e-18)
(-8.12931 4.98676 -4.82298e-19)
(-8.449 4.2831 2.66003e-19)
(-8.72324 3.56509 -1.99793e-19)
(-8.9511 2.83514 -3.43558e-19)
(-9.13241 2.09495 4.5441e-19)
(-9.26616 1.34649 -3.58429e-21)
(-9.35177 0.591395 1.07063e-19)
(-7.86747 7.81471 5.31483e-19)
(-8.37097 7.09907 1.32509e-18)
(-8.81962 6.35666 7.57283e-19)
(-9.21463 5.59184 9.0888e-19)
(-9.55593 4.80838 -1.33289e-18)
(-9.84347 4.00965 3.20471e-19)
(-10.0771 3.19864 -5.33031e-19)
(-10.2565 2.37801 5.92257e-20)
(-10.3815 1.55015 3.76836e-19)
(-10.4509 0.717613 4.44446e-20)
(-10.7672 7.11568 2.91855e-19)
(-11.2183 6.21271 7.55734e-19)
(-11.6002 5.28288 -5.45542e-19)
(-11.9102 4.33338 -4.37907e-19)
(-12.1498 3.36862 1.95439e-19)
(-12.3181 2.39415 9.41799e-19)
(-12.4157 1.41456 1.14189e-19)
(-12.4429 0.434681 2.62254e-19)
(-12.4003 -0.54114 -1.29641e-19)
(-12.2872 -1.50841 -3.06111e-20)
(-6.07252 -0.48105 6.64084e-21)
(-6.08019 -1.01165 -3.32589e-20)
(-6.04412 -1.53909 1.77555e-19)
(-5.97024 -2.06106 -1.15158e-19)
(-5.85587 -2.57277 7.4875e-20)
(-5.70152 -3.0682 -1.06666e-19)
(-5.49793 -3.54421 4.90231e-19)
(-5.23894 -4.00831 5.0593e-20)
(-4.94491 -4.45281 -1.56522e-19)
(-4.65275 -4.80663 3.13427e-19)
(-6.41015 -0.46435 3.5213e-20)
(-6.41465 -1.01939 -9.12373e-20)
(-6.37426 -1.57199 -7.57474e-20)
(-6.29281 -2.11944 -5.75424e-20)
(-6.16732 -2.65746 -1.59451e-19)
(-5.99872 -3.18087 1.42435e-20)
(-5.78346 -3.68665 -2.38159e-20)
(-5.51631 -4.17705 1.75197e-19)
(-5.19351 -4.6455 3.46418e-19)
(-4.83228 -5.06994 -1.98525e-20)
(-6.77558 -0.441186 -2.7074e-20)
(-6.78029 -1.02273 2.14015e-19)
(-6.73964 -1.6025 3.83056e-20)
(-6.65577 -2.17752 -1.26599e-20)
(-6.52605 -2.74395 1.83859e-19)
(-6.35098 -3.29774 8.72508e-20)
(-6.12904 -3.83605 1.77174e-19)
(-5.85791 -4.35663 -1.09372e-19)
(-5.53199 -4.85441 -3.1844e-19)
(-5.15254 -5.32917 -7.59904e-19)
(-7.1715 -0.418535 3.98693e-20)
(-7.17745 -1.02939 -1.03722e-19)
(-7.13736 -1.63942 1.34787e-19)
(-7.05189 -2.2456 -3.29956e-19)
(-6.9189 -2.84443 -1.7644e-19)
(-6.73822 -3.43244 -7.05572e-20)
(-6.50864 -4.0064 -4.00616e-19)
(-6.22915 -4.56231 -1.61672e-19)
(-5.89709 -5.09653 -6.46912e-22)
(-5.51156 -5.61184 2.60648e-19)
(-7.59898 -0.392793 2.66541e-20)
(-7.60554 -1.03439 7.15977e-21)
(-7.5652 -1.67616 1.00644e-19)
(-7.47762 -2.31518 3.13785e-19)
(-7.341 -2.94819 -5.74457e-20)
(-7.15461 -3.5719 -3.99317e-19)
(-6.91711 -4.18283 7.54716e-19)
(-6.62767 -4.77693 -2.24146e-19)
(-6.28552 -5.35142 -2.06663e-19)
(-5.89096 -5.90698 -5.05351e-19)
(-8.06903 -0.370668 -7.20005e-20)
(-8.0726 -1.04463 7.43465e-20)
(-8.02837 -1.71933 1.9368e-19)
(-7.93545 -2.39202 -1.78154e-19)
(-7.79229 -3.05961 4.14155e-19)
(-7.59784 -3.71893 2.60495e-19)
(-7.35073 -4.36648 -4.04515e-19)
(-7.05011 -4.99868 2.24228e-19)
(-6.69577 -5.61294 8.5694e-19)
(-6.28862 -6.2079 7.81448e-20)
(-8.62797 -0.337005 1.43279e-20)
(-8.62274 -1.04775 -1.47345e-20)
(-8.56845 -1.75887 3.68398e-19)
(-8.46422 -2.46771 -4.36666e-19)
(-8.30868 -3.17141 -7.25912e-19)
(-8.10084 -3.86688 3.9344e-19)
(-7.83949 -4.55086 8.12278e-19)
(-7.5239 -5.22015 2.3048e-19)
(-7.15393 -5.8722 5.57294e-19)
(-6.73035 -6.5046 -5.46779e-19)
(-9.3878 -0.167951 -2.18428e-20)
(-9.37319 -0.92859 -3.12962e-19)
(-9.3068 -1.68804 4.03935e-19)
(-9.18823 -2.44365 2.04936e-19)
(-9.01648 -3.19268 3.75428e-19)
(-8.79091 -3.93209 4.79008e-19)
(-8.51083 -4.65884 -6.67131e-20)
(-8.1759 -5.37014 -4.95465e-19)
(-7.78603 -6.06358 1.66828e-19)
(-7.34169 -6.73643 -1.99601e-19)
(-10.4633 -0.115837 -7.37855e-20)
(-10.4185 -0.946674 1.29919e-19)
(-10.3165 -1.7715 3.05039e-19)
(-10.1575 -2.58757 -5.56054e-19)
(-9.9414 -3.39182 5.80871e-19)
(-9.66826 -4.18092 -7.71911e-19)
(-9.33855 -4.95195 9.3108e-19)
(-8.95296 -5.70229 9.69562e-19)
(-8.51212 -6.42975 -1.89812e-19)
(-8.01652 -7.13119 -1.59009e-18)
(-12.1022 -2.46175 -1.27439e-20)
(-11.8474 -3.39362 -1.9259e-19)
(-11.5257 -4.30296 1.49954e-19)
(-11.1382 -5.18355 1.57906e-19)
(-10.6867 -6.03204 -3.44176e-19)
(-10.1732 -6.84357 3.25612e-19)
(-9.60065 -7.61467 -4.3061e-19)
(-8.97231 -8.342 3.36311e-19)
(-8.29147 -9.02287 -1.98127e-18)
(-7.56032 -9.65331 9.01267e-19)
(-6.78089 -10.2272 1.3296e-18)
(-7.46748 -7.80137 -6.99949e-19)
(-6.84369 -7.38471 -5.54237e-19)
(-6.25423 -7.11379 6.93547e-19)
(-5.83019 -6.78071 -2.19838e-20)
(-5.44615 -6.44293 5.30744e-19)
(-5.07705 -6.11246 -1.27632e-19)
(-4.73001 -5.79453 5.83115e-20)
(-4.43927 -5.48325 4.99019e-19)
(-4.28477 -5.14415 -8.97399e-20)
(-5.96223 -10.7401 -1.4434e-18)
(-6.8673 -8.43614 2.70311e-18)
(-6.29369 -8.00288 -1.70076e-19)
(-5.72715 -7.69447 -5.91822e-19)
(-5.32296 -7.32591 3.8482e-19)
(-4.95619 -6.95237 -7.39449e-19)
(-4.60372 -6.58788 7.25542e-19)
(-4.27464 -6.23982 -6.59852e-19)
(-3.99236 -5.90995 3.45307e-19)
(-3.81372 -5.56846 -1.91546e-19)
(-5.1061 -11.1965 8.81213e-19)
(-6.21892 -9.03311 -1.63389e-18)
(-5.69341 -8.58739 5.65173e-19)
(-5.15132 -8.24236 -2.29445e-19)
(-4.76985 -7.83901 3.45304e-19)
(-4.42458 -7.43058 -2.19245e-19)
(-4.09379 -7.03274 -1.81014e-19)
(-3.78703 -6.65304 1.7758e-19)
(-3.52184 -6.29365 -3.50566e-19)
(-3.34622 -5.93453 3.5619e-19)
(-4.21775 -11.5915 -1.86912e-18)
(-5.52381 -9.58892 1.94729e-19)
(-5.0449 -9.13356 5.21854e-19)
(-4.52929 -8.75222 5.32789e-19)
(-4.17384 -8.31465 -8.08915e-19)
(-3.854 -7.87256 5.23137e-20)
(-3.54805 -7.44395 -2.53338e-19)
(-3.26465 -7.03871 -4.4199e-19)
(-3.01547 -6.66284 8.07843e-19)
(-2.83838 -6.30467 1.68538e-19)
(-3.30002 -11.9247 1.35834e-18)
(-4.78382 -10.1 2.26982e-19)
(-4.35014 -9.63688 6.87978e-19)
(-3.86365 -9.21916 -2.36246e-20)
(-3.53794 -8.7478 6.24508e-19)
(-3.24794 -8.27275 2.60699e-19)
(-2.97185 -7.8137 4.89319e-19)
(-2.71834 -7.3816 -4.34597e-19)
(-2.49543 -6.98312 -1.93704e-20)
(-2.33198 -6.61087 -3.11939e-19)
(-2.35723 -12.193 9.35061e-19)
(-4.00112 -10.5617 -7.54969e-19)
(-3.61165 -10.0921 -1.08532e-19)
(-3.15738 -9.63809 -1.72597e-19)
(-2.86514 -9.13382 -1.63893e-19)
(-2.60869 -8.6276 -1.74024e-19)
(-2.36547 -8.14091 2.4772e-19)
(-2.14335 -7.68632 -2.59546e-19)
(-1.94649 -7.27144 2.25051e-19)
(-1.79585 -6.89207 1.0448e-20)
(-1.39319 -12.3949 -1.65696e-18)
(-3.17827 -10.9698 -5.26107e-19)
(-2.83239 -10.4944 8.44305e-19)
(-2.414 -10.0041 -2.45667e-19)
(-2.15933 -9.46811 2.8951e-19)
(-1.94065 -8.93252 -7.18625e-19)
(-1.73448 -8.41993 4.94856e-19)
(-1.54791 -7.94377 -1.48901e-19)
(-1.38173 -7.5112 1.03347e-19)
(-1.25104 -7.11849 -2.09458e-19)
(-0.412318 -12.5282 7.63343e-19)
(-2.3184 -11.3193 -2.19656e-19)
(-2.01595 -10.8384 -2.73316e-19)
(-1.63751 -10.3125 -1.00274e-19)
(-1.42449 -9.74673 6.27253e-20)
(-1.24719 -9.18467 1.20826e-19)
(-1.08074 -8.64985 -2.05966e-19)
(-0.930923 -8.15657 1.19588e-19)
(-0.795435 -7.71155 1.77644e-19)
(-0.685889 -7.31158 -2.12586e-19)
(0.581056 -12.591 5.88053e-19)
(-1.42501 -11.6058 -1.17072e-20)
(-1.16648 -11.1194 4.23853e-19)
(-0.832668 -10.5591 -3.21528e-19)
(-0.665637 -9.9659 8.44492e-20)
(-0.533556 -9.3805 -8.52148e-20)
(-0.41016 -8.82668 -3.42574e-20)
(-0.29979 -8.31913 -1.67293e-19)
(-0.197648 -7.86353 9.68413e-21)
(-0.114439 -7.45631 1.13709e-19)
(1.58198 -12.5797 -1.14856e-19)
(-0.502683 -11.8238 -7.20691e-20)
(-0.288945 -11.3329 -4.67159e-20)
(-0.00463318 -10.74 -1.39824e-19)
(0.112238 -10.1226 1.20492e-19)
(0.1958 -9.51785 2.92403e-20)
(0.273703 -8.94927 -7.00414e-20)
(0.343209 -8.43179 -4.48244e-20)
(0.410889 -7.97017 -2.67467e-20)
(0.464658 -7.56141 1.0623e-21)
(0.781338 -6.47891 -2.20109e-21)
(0.510888 -4.72824 -4.91708e-22)
(0.543299 -3.57899 1.32014e-21)
(0.626768 -2.74787 -5.39736e-22)
(0.641931 -2.05447 -1.82046e-23)
(0.659829 -1.51832 3.89345e-23)
(0.665236 -1.09097 1.84202e-23)
(0.66622 -0.752527 -1.92968e-23)
(0.665633 -0.48608 1.2009e-23)
(0.665288 -0.280889 5.69323e-24)
(0.666181 -0.12775 -1.96305e-23)
(0.671711 -0.03224 4.19477e-24)
(0.685793 -0.0102954 -3.96808e-24)
(0.689386 -0.0585346 -5.51243e-24)
(0.669395 -0.123585 2.01368e-25)
(0.60658 -0.169019 -1.14318e-23)
(0.516095 -0.126657 4.08996e-24)
(0.423923 -0.0441541 9.82646e-24)
(0.356444 0.214177 -2.65889e-23)
(0.528927 0.297303 -2.26412e-23)
(1.24158 -6.52625 1.5633e-20)
(0.806515 -4.79164 3.42121e-21)
(0.694092 -3.61101 -2.53258e-21)
(0.715572 -2.77188 5.63379e-22)
(0.69794 -2.07221 -7.73816e-22)
(0.688429 -1.52681 3.33543e-22)
(0.676285 -1.09548 -3.57091e-23)
(0.665545 -0.755037 -4.08117e-23)
(0.657568 -0.487761 2.07987e-23)
(0.652971 -0.282192 6.16557e-24)
(0.651894 -0.129061 4.50751e-24)
(0.656642 -0.0338611 4.19055e-23)
(0.669689 -0.0113487 -3.60645e-23)
(0.671655 -0.0573095 -5.86847e-24)
(0.649355 -0.119194 5.40524e-24)
(0.585909 -0.161686 1.5494e-23)
(0.495385 -0.118995 -4.88258e-23)
(0.408099 -0.038036 1.607e-22)
(0.34325 0.210614 6.04243e-23)
(0.522815 0.290833 5.25316e-23)
(1.70165 -6.53502 -2.93777e-20)
(1.11131 -4.84387 1.24445e-20)
(0.85539 -3.64862 1.22555e-20)
(0.808433 -2.80001 -3.55497e-21)
(0.756783 -2.09386 1.4623e-22)
(0.719333 -1.53869 6.32072e-22)
(0.68867 -1.1024 -3.60497e-23)
(0.665852 -0.759428 -9.86453e-23)
(0.65034 -0.4909 -3.08869e-23)
(0.641399 -0.284605 -3.10385e-23)
(0.638284 -0.131116 -7.75974e-24)
(0.642185 -0.0357493 5.72334e-24)
(0.654155 -0.0122 3.62137e-23)
(0.654625 -0.0556729 -2.00679e-23)
(0.630407 -0.114522 -1.93344e-23)
(0.566775 -0.15439 3.75373e-23)
(0.476745 -0.111704 -3.05647e-23)
(0.394416 -0.0324644 -1.02899e-22)
(0.332368 0.206574 -2.02277e-22)
(0.517725 0.284146 8.05632e-23)
(2.16441 -6.52043 -8.84902e-21)
(1.42713 -4.88417 2.23573e-20)
(1.02894 -3.68288 -8.96168e-21)
(0.90674 -2.8264 -1.88566e-21)
(0.818913 -2.1165 1.18747e-21)
(0.752972 -1.55307 8.79192e-23)
(0.702743 -1.11155 2.05883e-22)
(0.66737 -0.765669 -4.88546e-23)
(0.644112 -0.495491 1.1795e-22)
(0.630686 -0.288116 7.53877e-23)
(0.625424 -0.133902 -1.64057e-22)
(0.628391 -0.0379019 2.43464e-23)
(0.639253 -0.0128779 2.38745e-25)
(0.63837 -0.0536911 2.81928e-23)
(0.612599 -0.109648 3.90458e-24)
(0.549172 -0.147202 -2.5588e-23)
(0.460097 -0.104822 -4.86903e-23)
(0.382739 -0.0274394 -2.11703e-22)
(0.323595 0.202114 2.99365e-22)
(0.513541 0.277294 -1.69198e-22)
(2.62401 -6.47173 3.4459e-21)
(1.75409 -4.89248 2.51673e-21)
(1.21515 -3.69595 7.05462e-22)
(1.01026 -2.84178 4.04482e-21)
(0.883694 -2.13607 1.66562e-21)
(0.789238 -1.5685 -1.0315e-21)
(0.718702 -1.12248 -4.23814e-22)
(0.670284 -0.773601 1.08688e-22)
(0.639029 -0.501472 6.67648e-23)
(0.620937 -0.292691 9.89208e-23)
(0.613382 -0.137398 -3.00195e-23)
(0.615312 -0.0403198 -1.1638e-22)
(0.625045 -0.0134172 9.73276e-24)
(0.622954 -0.0514316 5.5268e-23)
(0.595961 -0.104649 4.77069e-23)
(0.533069 -0.140185 -4.8809e-23)
(0.445342 -0.0983753 1.76876e-22)
(0.37292 -0.0229519 6.266e-23)
(0.316734 0.197289 9.2772e-23)
(0.510158 0.270324 -9.21363e-24)
(3.08218 -6.37413 -7.81091e-20)
(2.09236 -4.85407 -1.00129e-20)
(1.41139 -3.68489 6.72754e-21)
(1.11671 -2.84931 -1.09368e-20)
(0.949538 -2.155 -4.38942e-21)
(0.827582 -1.58571 1.9642e-21)
(0.736575 -1.13518 5.42941e-22)
(0.674711 -0.783072 1.26692e-22)
(0.635201 -0.508729 -2.24951e-22)
(0.612237 -0.298254 -8.94646e-23)
(0.602215 -0.14156 -3.60853e-23)
(0.602994 -0.0429937 1.41838e-22)
(0.611584 -0.013851 -3.90418e-23)
(0.608428 -0.0489593 -3.08213e-23)
(0.580507 -0.0995936 -2.55864e-23)
(0.518416 -0.133395 7.94456e-23)
(0.432361 -0.092382 2.32949e-23)
(0.364801 -0.0189846 1.13208e-22)
(0.311593 0.192157 -1.93752e-22)
(0.507483 0.263284 5.70222e-23)
(3.53806 -6.22853 -1.44986e-19)
(2.43606 -4.81319 2.21808e-20)
(1.61428 -3.69798 -2.67623e-21)
(1.22558 -2.88165 1.30508e-20)
(1.01659 -2.18992 -4.21871e-21)
(0.868279 -1.61113 -2.09674e-21)
(0.756635 -1.15169 1.28587e-21)
(0.6808 -0.794642 -3.85418e-22)
(0.632718 -0.517387 -6.40369e-22)
(0.60465 -0.304807 1.03522e-23)
(0.591967 -0.146366 -6.39738e-23)