/*--------------------------------*- C++ -*----------------------------------*\
| =========                 |                                                 |
| \\      /  F ield         | OpenFOAM: The Open Source CFD Toolbox           |
|  \\    /   O peration     | Version:  v1912                                 |
|   \\  /    A nd           | Website:  www.openfoam.com                      |
|    \\/     M anipulation  |                                                 |
\*---------------------------------------------------------------------------*/
FoamFile
{
    version     2.0;
    format      ascii;
    class       volScalarField;
    location    "37.5";
    object      p;
}
// * * * * * * * * * * * * * * * * * * * * * * * * * * * * * * * * * * * * * //

dimensions      [0 2 -2 0 0 0 0];


internalField   nonuniform List<scalar> 
9600
(
-41.4578
-36.1917
-32.9636
-30.2251
-27.7188
-25.4514
-23.3946
-21.5205
-19.8114
-18.2538
-16.8349
-15.5428
-14.3661
-13.294
-12.3163
-11.4237
-10.6077
-9.86033
-9.17415
-8.54695
-42.215
-36.9314
-33.6674
-30.8862
-28.335
-26.0237
-23.9256
-22.0138
-20.271
-18.6835
-17.2384
-15.9232
-14.7263
-13.6363
-12.6428
-11.7361
-10.9073
-10.1483
-9.45108
-8.81465
-42.9738
-37.6671
-34.3659
-31.5418
-28.9454
-26.5899
-24.4506
-22.5013
-20.725
-19.1079
-17.6367
-16.2988
-15.0819
-13.9744
-12.9653
-12.0447
-11.2033
-10.4327
-9.72444
-9.07898
-43.7311
-38.3985
-35.0586
-32.1909
-29.5489
-27.1492
-24.9688
-22.9821
-21.1725
-19.5261
-18.0293
-16.669
-15.4325
-14.3077
-13.2832
-12.3489
-11.4952
-10.713
-9.99384
-9.33961
-44.4839
-39.1239
-35.7445
-32.8325
-30.1447
-27.7006
-25.479
-23.4552
-21.6126
-19.9373
-18.4153
-17.033
-15.7772
-14.6355
-13.596
-12.6482
-11.7823
-10.9888
-10.2589
-9.59627
-45.2302
-39.842
-36.4222
-33.4654
-30.7315
-28.2431
-25.9804
-23.9198
-22.0447
-20.3408
-18.794
-17.3901
-16.1155
-14.9572
-13.9031
-12.9421
-12.0643
-11.2598
-10.5193
-9.84868
-45.9681
-40.5512
-37.0907
-34.0886
-31.3083
-28.7755
-26.4721
-24.3749
-22.4677
-20.7359
-19.1647
-17.7397
-16.4467
-15.2723
-14.2039
-13.2301
-12.3408
-11.5254
-10.7748
-10.0966
-46.6961
-41.2502
-37.7487
-34.7008
-31.8741
-29.2971
-26.9532
-24.8198
-22.8809
-21.1216
-19.5267
-18.0811
-16.7701
-15.58
-14.4978
-13.5117
-12.6112
-11.7854
-11.0248
-10.3396
-47.413
-41.9378
-38.3949
-35.3011
-32.4279
-29.8067
-27.4226
-25.2536
-23.2835
-21.4972
-19.879
-18.4134
-17.0851
-15.8798
-14.7841
-13.7862
-12.875
-12.0391
-11.2691
-10.5775
-48.1173
-42.6126
-39.0281
-35.8882
-32.9685
-30.3034
-27.8795
-25.6753
-23.6746
-21.8619
-20.2211
-18.7359
-17.3908
-16.1708
-15.0623
-14.0529
-13.1315
-12.286
-11.5071
-10.8099
-48.8082
-43.2736
-39.6475
-36.4612
-33.4951
-30.7864
-28.323
-26.0841
-24.0533
-22.2148
-20.5519
-19.0478
-17.6864
-16.4522
-15.3314
-14.3111
-13.38
-12.5255
-11.7381
-11.036
-49.4845
-43.9198
-40.2519
-37.0192
-34.0067
-31.2546
-28.7522
-26.4791
-24.4189
-22.5552
-20.8708
-19.3483
-17.971
-16.7232
-15.5905
-14.5599
-13.6196
-12.7566
-11.9615
-11.2551
-50.1456
-44.5504
-40.8404
-37.5612
-34.5025
-31.7073
-29.1664
-26.8597
-24.7705
-22.8821
-21.1767
-19.6363
-18.2437
-16.9828
-15.8387
-14.7983
-13.8494
-12.9786
-12.1763
-11.4665
-50.7909
-45.1645
-41.4122
-38.0864
-34.9816
-32.1437
-29.5648
-27.2249
-25.1074
-23.1948
-21.4689
-19.911
-18.5034
-17.2297
-16.0746
-15.0248
-14.0679
-13.1899
-12.3813
-11.6696
-51.4197
-45.7613
-41.9665
-38.5941
-35.4434
-32.5632
-29.9467
-27.5742
-25.4288
-23.4926
-21.7465
-20.1714
-18.7492
-17.4628
-16.2969
-15.2378
-14.2731
-13.3884
-12.5744
-11.8623
-52.0319
-46.34
-42.5026
-39.0836
-35.8872
-32.9651
-30.3115
-27.9071
-25.7343
-23.7748
-22.0089
-20.4168
-18.98
-17.681
-16.5042
-15.4359
-14.4633
-13.572
-12.7528
-12.0394
-52.6284
-46.9006
-43.0199
-39.5543
-36.3125
-33.3488
-30.6588
-28.2229
-26.0233
-24.0409
-22.2554
-20.6464
-19.1949
-17.8833
-16.6956
-15.6181
-14.6381
-13.7406
-12.9155
-12.1975
-53.2138
-47.4441
-43.5174
-40.005
-36.7181
-33.7137
-30.9879
-28.5214
-26.2955
-24.2906
-22.4855
-20.8595
-19.3929
-18.0679
-16.8687
-15.7818
-14.7948
-13.8915
-13.0615
-12.3479
-53.79
-47.9701
-43.9937
-40.4346
-37.1039
-34.0598
-31.2994
-28.8029
-26.5515
-24.5244
-22.6998
-21.0562
-19.5735
-18.2334
-17.0201
-15.9204
-14.9213
-14.0073
-13.1759
-12.4948
-54.3353
-48.4709
-44.4478
-40.8439
-37.4711
-34.3888
-31.5947
-29.0693
-26.793
-24.7442
-22.9004
-21.2391
-19.7395
-18.3825
-17.1517
-16.0324
-15.0096
-14.07
-13.2277
-12.5528
-59.7756
-59.7442
-59.675
-59.5828
-59.4668
-59.3244
-59.1552
-58.9597
-58.7384
-58.4919
-58.2207
-57.9254
-57.6067
-57.2652
-56.9017
-56.5171
-56.1124
-55.6894
-55.251
-54.8002
-53.4287
-53.4261
-53.3904
-53.3272
-53.2373
-53.1201
-52.9759
-52.8053
-52.6092
-52.388
-52.1424
-51.8731
-51.5805
-51.2655
-50.9286
-50.5704
-50.1917
-49.7929
-49.3745
-48.9346
-48.7876
-48.8093
-48.8017
-48.7655
-48.7018
-48.6116
-48.4954
-48.354
-48.1878
-47.9976
-47.7838
-47.5471
-47.288
-47.0071
-46.7048
-46.3816
-46.0378
-45.6734
-45.2882
-44.8801
-44.5604
-44.5999
-44.6127
-44.5985
-44.5581
-44.4926
-44.4027
-44.2889
-44.1517
-43.9917
-43.8094
-43.6054
-43.3801
-43.134
-42.8676
-42.581
-42.2745
-41.948
-41.6013
-41.2334
-40.6524
-40.7016
-40.727
-40.7277
-40.7042
-40.6573
-40.5877
-40.4959
-40.3823
-40.2475
-40.092
-39.9162
-39.7206
-39.5057
-39.2718
-39.019
-38.7476
-38.4575
-38.1484
-37.8199
-37.1428
-37.1962
-37.2279
-37.2373
-37.2244
-37.1899
-37.1344
-37.0584
-36.9624
-36.8468
-36.7122
-36.5589
-36.3876
-36.1984
-35.9919
-35.7681
-35.5273
-35.2693
-34.994
-34.7008
-34.0226
-34.076
-34.1096
-34.1227
-34.1153
-34.088
-34.0415
-33.976
-33.8922
-33.7905
-33.6713
-33.5351
-33.3825
-33.2138
-33.0293
-32.8294
-32.6141
-32.3834
-32.137
-31.8744
-31.255
-31.3056
-31.3378
-31.3512
-31.3458
-31.322
-31.2805
-31.2215
-31.1457
-31.0535
-30.9453
-30.8217
-30.6832
-30.5302
-30.3631
-30.1823
-29.9878
-29.7798
-29.5578
-29.3213
-28.8001
-28.8462
-28.8753
-28.8869
-28.8811
-28.8584
-28.8192
-28.7639
-28.6931
-28.6071
-28.5066
-28.392
-28.2639
-28.1229
-27.9694
-27.8037
-27.6262
-27.4369
-27.2354
-27.0212
-26.6182
-26.6592
-26.6842
-26.693
-26.6855
-26.6623
-26.6237
-26.5702
-26.5023
-26.4205
-26.3252
-26.2171
-26.0968
-25.9648
-25.8219
-25.6683
-25.5046
-25.3309
-25.1468
-24.9518
-24.6722
-24.7079
-24.7286
-24.734
-24.7242
-24.6997
-24.6609
-24.6081
-24.5419
-24.4627
-24.371
-24.2676
-24.1531
-24.0281
-23.8934
-23.7496
-23.5973
-23.4367
-23.2677
-23.0895
-22.9292
-22.9597
-22.9762
-22.9782
-22.966
-22.9399
-22.9003
-22.8476
-22.7823
-22.7048
-22.6158
-22.5158
-22.4056
-22.286
-22.1579
-22.022
-21.8792
-21.73
-21.5743
-21.4113
-21.3608
-21.3868
-21.3993
-21.3981
-21.3835
-21.3558
-21.3152
-21.2624
-21.1975
-21.1212
-21.0341
-20.9367
-20.8299
-20.7145
-20.5915
-20.4621
-20.3273
-20.1879
-20.0442
-19.8955
-19.9434
-19.9652
-19.9742
-19.9702
-19.9533
-19.924
-19.8826
-19.8294
-19.7649
-19.6895
-19.6037
-19.5084
-19.4041
-19.292
-19.1732
-19.049
-18.9208
-18.7899
-18.6574
-18.5223
-18.6571
-18.6752
-18.681
-18.6744
-18.6557
-18.625
-18.5828
-18.5293
-18.465
-18.3903
-18.3058
-18.212
-18.1098
-18.0002
-17.8846
-17.7643
-17.6415
-17.5179
-17.3958
-17.2741
-17.4854
-17.5002
-17.5032
-17.4943
-17.4739
-17.4421
-17.3992
-17.3455
-17.2814
-17.2073
-17.1237
-17.0313
-16.9307
-16.8229
-16.7095
-16.592
-16.4732
-16.3553
-16.2428
-16.1342
-16.4145
-16.4263
-16.4268
-16.416
-16.3941
-16.3612
-16.3177
-16.2639
-16.2
-16.1264
-16.0436
-15.952
-15.8525
-15.7459
-15.6337
-15.5177
-15.4012
-15.287
-15.1826
-15.0857
-15.4325
-15.4419
-15.4405
-15.4282
-15.4052
-15.3716
-15.3278
-15.274
-15.2104
-15.1373
-15.0552
-14.9644
-14.8657
-14.7597
-14.6479
-14.5319
-14.4157
-14.303
-14.2055
-14.1178
-14.5283
-14.5363
-14.5339
-14.5211
-14.498
-14.4648
-14.4217
-14.369
-14.3067
-14.2353
-14.155
-14.0661
-13.9692
-13.8649
-13.7541
-13.6384
-13.5214
-13.4083
-13.3178
-13.2441
-13.6965
-13.7013
-13.6963
-13.6818
-13.6576
-13.624
-13.5812
-13.5293
-13.4686
-13.3991
-13.3212
-13.2351
-13.141
-13.0395
-12.9309
-12.8163
-12.6975
-12.5797
-12.4827
-12.4333
-53.4993
-54.0732
-54.61
-55.1318
-55.6358
-56.1159
-56.5694
-56.9951
-57.3921
-57.7595
-58.0967
-58.4032
-58.6786
-58.9226
-59.1345
-59.3144
-59.4633
-59.5821
-59.6731
-59.7379
-47.0187
-47.5979
-48.1491
-48.6781
-49.1843
-49.6653
-50.1197
-50.5468
-50.9459
-51.3164
-51.6578
-51.9698
-52.2526
-52.5068
-52.7304
-52.9229
-53.0847
-53.2164
-53.3183
-53.3894
-42.3775
-42.9445
-43.488
-44.0081
-44.5047
-44.9774
-45.425
-45.8471
-46.2431
-46.6121
-46.9532
-47.2664
-47.5511
-47.8063
-48.033
-48.2316
-48.4018
-48.5432
-48.6556
-48.7374
-38.2568
-38.7986
-39.3208
-39.8215
-40.3
-40.7561
-41.1892
-41.5987
-41.9838
-42.3441
-42.6781
-42.9855
-43.2672
-43.5226
-43.7518
-43.9547
-44.1308
-44.2797
-44.4013
-44.4949
-34.5821
-35.0939
-35.5888
-36.064
-36.5187
-36.9525
-37.3648
-37.7549
-38.1222
-38.4661
-38.7872
-39.0851
-39.3583
-39.607
-39.8314
-40.0311
-40.2059
-40.3555
-40.48
-40.5791
-31.3862
-31.8667
-32.3318
-32.7791
-33.2072
-33.6158
-34.0044
-34.3724
-34.7193
-35.0449
-35.3489
-35.6309
-35.89
-36.1266
-36.3409
-36.5327
-36.7013
-36.8466
-36.9687
-37.0676
-28.6167
-29.0664
-29.502
-29.921
-30.3222
-30.705
-31.0691
-31.4139
-31.739
-32.0442
-32.329
-32.5932
-32.8365
-33.0586
-33.2593
-33.4404
-33.6001
-33.7379
-33.8543
-33.9494
-26.2069
-26.6278
-27.0354
-27.4275
-27.8027
-28.1607
-28.5008
-28.8227
-29.1261
-29.4106
-29.676
-29.9221
-30.1488
-30.3561
-30.5438
-30.7104
-30.8595
-30.9884
-31.0972
-31.1862
-24.0982
-24.4928
-24.8747
-25.2418
-25.593
-25.9276
-26.2452
-26.5454
-26.828
-27.0928
-27.3395
-27.5681
-27.7785
-27.9706
-28.1444
-28.2999
-28.4359
-28.5547
-28.6551
-28.737
-22.2404
-22.6113
-22.97
-23.3146
-23.6438
-23.957
-24.2538
-24.534
-24.7973
-25.0436
-25.2728
-25.4849
-25.6798
-25.8575
-26.018
-26.161
-26.2867
-26.3951
-26.4868
-26.5613
-20.592
-20.9417
-21.2798
-21.6042
-21.9136
-22.2074
-22.4852
-22.747
-22.9925
-23.2219
-23.435
-23.6319
-23.8125
-23.9768
-24.1248
-24.2565
-24.3718
-24.4709
-24.5542
-24.6215
-19.1194
-19.4504
-19.7703
-20.0767
-20.3682
-20.6443
-20.9049
-21.1499
-21.3793
-21.5931
-21.7915
-21.9744
-22.1419
-22.294
-22.4307
-22.552
-22.6579
-22.7486
-22.8237
-22.8842
-17.7955
-18.1101
-18.4142
-18.7047
-18.9801
-19.2401
-19.4849
-19.7146
-19.9291
-20.1288
-20.3138
-20.484
-20.6396
-20.7806
-20.9071
-21.0189
-21.1162
-21.1988
-21.2667
-21.3212
-16.5989
-16.899
-17.1896
-17.4661
-17.7268
-17.9722
-18.2025
-18.418
-18.6189
-18.8056
-18.9783
-19.137
-19.2818
-19.4128
-19.5299
-19.6332
-19.7227
-19.7985
-19.8609
-19.9087
-15.5123
-15.8003
-16.0794
-16.3432
-16.5905
-16.8222
-17.039
-17.2413
-17.4297
-17.6044
-17.7658
-17.914
-18.049
-18.1709
-18.2796
-18.3753
-18.4578
-18.5272
-18.5836
-18.6267
-14.5212
-14.8007
-15.0706
-15.3225
-15.557
-15.7758
-15.9798
-16.1697
-16.3463
-16.5099
-16.6609
-16.7994
-16.9255
-17.0391
-17.1402
-17.2289
-17.3051
-17.3688
-17.42
-17.4588
-13.6078
-13.8861
-14.151
-14.3915
-14.6133
-14.8197
-15.0116
-15.1898
-15.3553
-15.5087
-15.6502
-15.7799
-15.8978
-16.0039
-16.0982
-16.1807
-16.2512
-16.3099
-16.3566
-16.3914
-12.7514
-13.034
-13.3002
-13.5314
-13.7412
-13.936
-14.1167
-14.2844
-14.4402
-14.5846
-14.7179
-14.8401
-14.9512
-15.0511
-15.1397
-15.217
-15.2829
-15.3374
-15.3805
-15.4123
-11.9655
-12.2387
-12.5056
-12.732
-12.9318
-13.1152
-13.2855
-13.4438
-13.5908
-13.7273
-13.8535
-13.9693
-14.0745
-14.1692
-14.2531
-14.3263
-14.3885
-14.4398
-14.4802
-14.5097
-11.3759
-11.6264
-11.854
-12.0704
-12.2584
-12.4241
-12.5779
-12.722
-12.8558
-12.9798
-13.0944
-13.1995
-13.2949
-13.3804
-13.4559
-13.5214
-13.5768
-13.6219
-13.6567
-13.6812
-5.98575
-6.47642
-7.01419
-7.59604
-8.22841
-8.91869
-9.67457
-10.5055
-11.4237
-12.4448
-13.5893
-14.8841
-16.3645
-18.0766
-20.0809
-22.4563
-25.284
-28.5863
-32.5824
-38.5772
-6.25578
-6.75992
-7.30816
-7.90202
-8.5481
-9.2535
-10.026
-10.8754
-11.8141
-12.858
-14.0279
-15.3512
-16.8636
-18.6116
-20.6559
-23.0753
-25.9499
-29.2989
-33.3333
-39.3491
-6.52723
-7.04486
-7.60369
-8.20979
-8.86984
-9.59061
-10.38
-11.2481
-12.2075
-13.2746
-14.4703
-15.8225
-17.3672
-19.1515
-21.236
-23.6993
-26.6205
-30.0149
-34.086
-40.1181
-6.79964
-7.33069
-7.90019
-8.51875
-9.19298
-9.92933
-10.7359
-11.6229
-12.6033
-13.6936
-14.9154
-16.2967
-17.874
-19.6947
-21.8195
-24.3268
-27.2942
-30.734
-34.8428
-40.896
-7.07255
-7.61695
-8.19719
-8.82842
-9.51704
-10.2691
-11.093
-11.9991
-13.0006
-14.1145
-15.3625
-16.7731
-18.3831
-20.2403
-22.4055
-24.9568
-27.9703
-31.4555
-35.6026
-41.6802
-7.3456
-7.90322
-8.49428
-9.13836
-9.84156
-10.6096
-11.4509
-12.3762
-13.3991
-14.5367
-15.811
-17.251
-18.8939
-20.7877
-22.9933
-25.5885
-28.648
-32.1785
-36.3637
-42.4666
-7.61847
-8.18915
-8.79106
-9.4482
-10.1661
-10.9502
-11.8091
-12.7538
-13.7981
-14.9595
-16.2603
-17.7297
-19.4056
-21.3361
-23.5822
-26.2212
-29.3265
-32.9018
-37.1243
-43.2527
-7.89092
-8.47444
-9.08723
-9.75759
-10.4904
-11.2907
-12.1672
-13.1314
-14.1972
-15.3824
-16.7097
-18.2087
-19.9176
-21.8847
-24.1713
-26.8539
-30.0047
-33.6242
-37.8834
-44.0372
-8.16278
-8.7589
-9.38254
-10.0663
-10.8141
-11.6306
-12.5248
-13.5084
-14.5957
-15.8048
-17.1586
-18.6872
-20.429
-22.4327
-24.7596
-27.4856
-30.6815
-34.3448
-38.6397
-44.8185
-8.43401
-9.04242
-9.67684
-10.374
-11.1368
-11.9696
-12.8815
-13.8845
-14.9933
-16.2261
-17.6064
-19.1645
-20.9391
-22.9793
-25.3462
-28.1153
-31.3558
-35.0622
-39.3919
-45.5953
-8.70474
-9.32502
-9.97006
-10.6807
-11.4585
-12.3074
-13.2369
-14.2593
-15.3894
-16.6458
-18.0525
-19.6398
-21.4471
-23.5235
-25.9302
-28.742
-32.0265
-35.7753
-40.1386
-46.3659
-8.97524
-9.60688
-10.2623
-10.9862
-11.7789
-12.6438
-13.5907
-14.6322
-15.7834
-17.0633
-18.496
-20.1125
-21.9522
-24.0646
-26.5106
-29.3646
-32.6925
-36.4828
-40.8786
-47.129
-9.246
-9.88828
-10.5536
-11.2906
-12.098
-12.9785
-13.9425
-15.0028
-16.1749
-17.478
-18.9365
-20.5818
-22.4536
-24.6015
-27.0864
-29.9819
-33.3525
-37.1836
-41.6105
-47.8833
-9.51775
-10.1697
-10.8441
-11.5938
-12.4153
-13.3111
-14.2918
-15.3706
-16.5632
-17.8891
-19.373
-21.0467
-22.9502
-25.1333
-27.6565
-30.593
-34.0054
-37.8763
-42.3331
-48.6274
-9.79123
-10.4513
-11.1339
-11.8956
-12.7307
-13.6412
-14.6381
-15.7349
-16.9476
-18.2958
-19.8048
-21.5065
-23.4413
-25.6589
-28.2199
-31.1965
-34.6499
-38.5597
-43.0451
-49.3601
-10.0674
-10.7335
-11.4226
-12.1954
-13.0434
-13.968
-14.9806
-16.0949
-17.3272
-18.6974
-20.231
-21.9602
-23.9256
-26.1772
-28.7753
-31.7912
-35.2847
-39.2325
-43.7454
-50.0806
-10.3461
-11.015
-11.7089
-12.4919
-13.3522
-14.2905
-15.3183
-16.4497
-17.7011
-19.0928
-20.6505
-22.4067
-24.4022
-26.6872
-29.3216
-32.3759
-35.9084
-39.8934
-44.433
-50.7882
-10.6265
-11.2934
-11.9902
-12.7832
-13.6559
-14.6075
-15.6502
-16.7983
-18.0684
-19.4811
-21.0623
-22.8449
-24.8699
-27.1875
-29.8573
-32.949
-36.5194
-40.5407
-45.1066
-51.4828
-10.9013
-11.5603
-12.2604
-13.0659
-13.9521
-14.9173
-15.9747
-17.1393
-18.4279
-19.8611
-21.4654
-23.2737
-25.3275
-27.6768
-30.3811
-33.5091
-37.1161
-41.1726
-45.7652
-52.1659
-11.1518
-11.7958
-12.515
-13.3411
-14.2416
-15.2198
-16.2915
-17.4722
-18.7787
-20.2319
-21.8586
-23.6921
-25.7738
-28.154
-30.8916
-34.0543
-37.6963
-41.7859
-46.404
-52.8392
-1.57637
-1.83057
-2.17878
-2.56812
-2.98721
-3.44144
-3.93714
-4.48023
-5.07823
-5.74141
-6.48374
-7.32424
-8.28904
-9.41418
-10.7505
-12.3722
-14.3689
-16.8015
-19.9781
-25.3737
-1.72917
-1.99975
-2.36634
-2.76156
-3.18404
-3.64356
-4.14612
-4.69724
-5.3046
-5.97872
-6.73384
-7.5893
-8.57167
-9.7175
-11.0782
-12.7285
-14.758
-17.2259
-20.4346
-25.844
-1.8762
-2.17083
-2.55053
-2.95385
-3.38403
-3.8519
-4.36334
-4.9241
-5.54219
-6.22849
-6.99756
-7.86914
-8.87025
-10.038
-11.4242
-13.1042
-15.1671
-17.6704
-20.9105
-26.3284
-2.04545
-2.35088
-2.73875
-3.15076
-3.5901
-4.06747
-4.5889
-5.16042
-5.79037
-6.48993
-7.27402
-8.16276
-9.18365
-10.3743
-11.7872
-13.4977
-15.5952
-18.1351
-21.4099
-26.8454
-2.22599
-2.53849
-2.93417
-3.35511
-3.8039
-4.29121
-4.82328
-5.40635
-6.04903
-6.76279
-7.56283
-8.46972
-9.51141
-10.726
-12.1666
-13.9089
-16.042
-18.62
-21.9321
-27.3916
-2.412
-2.73308
-3.13706
-3.56709
-4.02562
-4.52333
-5.06663
-5.66196
-6.31814
-7.0469
-7.86379
-8.78975
-9.85322
-11.0929
-12.5622
-14.3374
-16.5074
-19.1247
-22.4755
-27.962
-2.605
-2.93556
-3.34776
-3.78688
-4.25543
-4.76397
-5.31902
-5.92721
-6.59756
-7.34208
-8.17664
-9.12257
-10.2088
-11.4744
-12.9736
-14.783
-16.9909
-19.6487
-23.0389
-28.554
-2.80638
-3.14639
-3.56659
-4.01482
-4.49357
-5.01327
-5.5805
-6.20205
-6.88718
-7.64814
-8.50112
-9.46784
-10.5777
-11.8703
-13.4005
-15.2449
-17.4921
-20.1913
-23.6217
-29.1667
-3.01593
-3.36544
-3.79361
-4.25097
-4.74011
-5.27123
-5.851
-6.48639
-7.18684
-7.96486
-8.83695
-9.82524
-10.9596
-12.2802
-13.8422
-15.7228
-18.0101
-20.7518
-24.2232
-29.799
-3.23304
-3.59238
-4.02861
-4.49521
-4.99491
-5.53772
-6.13038
-6.78002
-7.49629
-8.29194
-9.18382
-10.1944
-11.354
-12.7034
-14.2983
-16.2161
-18.5446
-21.3296
-24.8426
-30.4498
-3.4573
-3.82684
-4.27129
-4.74725
-5.25771
-5.81249
-6.41837
-7.08267
-7.81524
-8.62908
-9.54135
-10.5749
-11.7606
-13.1397
-14.7682
-16.7241
-19.0947
-21.924
-25.479
-31.118
-3.68831
-4.06845
-4.52126
-5.00675
-5.5282
-6.09521
-6.71465
-7.394
-8.14332
-8.97587
-9.90912
-10.9664
-12.1788
-13.5883
-15.2515
-17.2463
-19.6598
-22.534
-26.1316
-31.8026
-3.92561
-4.31672
-4.77807
-5.27329
-5.80596
-6.3855
-7.01882
-7.7136
-8.48012
-9.33188
-10.2867
-11.3682
-12.6082
-14.0488
-15.7474
-17.782
-20.2392
-23.159
-26.7995
-32.5026
-4.16868
-4.57113
-5.04124
-5.54639
-6.09055
-6.68289
-7.33043
-8.04102
-8.82516
-9.69662
-10.6735
-11.7799
-13.048
-14.5206
-16.2553
-18.3305
-20.8321
-23.7981
-27.4818
-33.2172
-4.41698
-4.83112
-5.31023
-5.82555
-6.38146
-6.98691
-7.64898
-8.37575
-9.17792
-10.0695
-11.069
-12.2009
-13.4978
-15.003
-16.7745
-18.891
-21.4377
-24.4505
-28.1777
-33.9455
-4.66994
-5.09614
-5.58446
-6.1102
-6.67814
-7.297
-7.97394
-8.71724
-9.53786
-10.4501
-11.4727
-12.6306
-13.9568
-15.4952
-17.3042
-19.4627
-22.0552
-25.1153
-28.8864
-34.6866
-4.92702
-5.3656
-5.86337
-6.3998
-6.98005
-7.61261
-8.30474
-9.06493
-9.90437
-10.8376
-11.8838
-13.0682
-14.4244
-15.9966
-17.8437
-20.0447
-22.6836
-25.7916
-29.6071
-35.44
-5.18768
-5.63892
-6.14637
-6.69375
-7.28661
-7.93318
-8.64081
-9.41823
-10.2769
-11.2316
-12.3018
-13.5131
-14.8997
-16.5063
-18.3922
-20.6363
-23.322
-26.4783
-30.3388
-36.2055
-5.45136
-5.91553
-6.43288
-6.99149
-7.59724
-8.25811
-8.98154
-9.77651
-10.6547
-11.6312
-12.7258
-13.9646
-15.3821
-17.0236
-18.9485
-21.2362
-23.9691
-27.1741
-31.0805
-36.9834
-5.71755
-6.19489
-6.72236
-7.29246
-7.91139
-8.58684
-9.32637
-10.1392
-11.0372
-12.0359
-13.1553
-14.422
-15.8708
-17.5475
-19.512
-21.8435
-24.6239
-27.8775
-31.8296
-37.7748
-1.32903
-1.1229
-0.969627
-0.833388
-0.713787
-0.608282
-0.515759
-0.435426
-0.366781
-0.309467
-0.263218
-0.227822
-0.203108
-0.188934
-0.185157
-0.191576
-0.207997
-0.234555
-0.271328
-0.318215
-1.65907
-1.47618
-1.31894
-1.1775
-1.05308
-0.943127
-0.846655
-0.762866
-0.691245
-0.631416
-0.583097
-0.546066
-0.520139
-0.505162
-0.500987
-0.507449
-0.5244
-0.551843
-0.589778
-0.638124
-1.99195
-1.81694
-1.65973
-1.51714
-1.39061
-1.27849
-1.18007
-1.09467
-1.02183
-0.961172
-0.912429
-0.875376
-0.849829
-0.835627
-0.832622
-0.840664
-0.859635
-0.88949
-0.930159
-0.981643
-2.3761
-2.19945
-2.03922
-1.89369
-1.7636
-1.64798
-1.54637
-1.4582
-1.38306
-1.32061
-1.27059
-1.23276
-1.20694
-1.19295
-1.19065
-1.19988
-1.22054
-1.25253
-1.29577
-1.35024
-2.79535
-2.61626
-2.45209
-2.30264
-2.16835
-2.0487
-1.94336
-1.85191
-1.774
-1.70932
-1.65761
-1.61866
-1.59226
-1.57824
-1.57644
-1.58673
-1.60896
-1.64304
-1.68885
-1.74639
-3.24726
-3.06499
-2.89667
-2.74292
-2.6042
-2.4803
-2.37104
-2.27612
-2.19524
-2.12815
-2.0746
-2.03439
-2.00731
-1.9932
-1.9919
-2.00324
-2.02711
-2.06337
-2.11188
-2.17256
-3.73804
-3.55108
-3.37788
-3.21923
-3.07563
-2.94711
-2.83358
-2.73485
-2.6507
-2.58091
-2.52528
-2.48359
-2.45566
-2.44133
-2.44042
-2.45279
-2.47829
-2.51678
-2.56812
-2.63223
-4.27449
-4.08135
-3.90219
-3.73778
-3.58861
-3.45484
-3.3365
-3.23345
-3.14557
-3.07266
-3.01455
-2.97105
-2.94198
-2.92718
-2.92649
-2.93974
-2.96679
-3.00748
-3.06166
-3.12929
-4.86432
-4.66356
-4.47721
-4.30596
-4.15031
-4.0105
-3.8866
-3.77857
-3.68633
-3.60974
-3.54863
-3.50285
-3.47224
-3.45661
-3.45583
-3.46973
-3.49815
-3.54093
-3.59791
-3.66907
-5.51767
-5.30774
-5.11278
-4.93342
-4.77015
-4.62326
-4.49286
-4.37898
-4.28158
-4.20055
-4.13576
-4.08708
-4.05434
-4.0374
-4.0361
-4.05027
-4.07977
-4.1244
-4.18401
-4.25861
-6.24831
-6.0274
-5.82216
-5.63314
-5.46084
-5.30555
-5.16744
-5.04659
-4.94296
-4.85652
-4.78714
-4.73471
-4.69909
-4.68013
-4.67768
-4.69158
-4.72166
-4.76774
-4.82966
-4.90745
-7.07496
-6.84095
-6.62342
-6.42286
-6.23975
-6.07442
-5.92705
-5.79775
-5.68654
-5.59339
-5.51822
-5.46091
-5.42136
-5.39941
-5.39493
-5.40774
-5.4377
-5.48458
-5.54823
-5.62873
-8.02335
-7.77371
-7.54145
-7.32702
-7.1309
-6.95343
-6.79482
-6.6552
-6.53463
-6.43309
-6.35053
-6.28686
-6.24196
-6.21571
-6.20795
-6.21855
-6.24731
-6.29403
-6.35853
-6.44095
-9.129
-8.86065
-8.61069
-8.37951
-8.16764
-7.9754
-7.80305
-7.65072
-7.5185
-7.4064
-7.31437
-7.24235
-7.19022
-7.15788
-7.14517
-7.15195
-7.17804
-7.22319
-7.28722
-7.37033
-10.4422
-10.1514
-9.88011
-9.62867
-9.39765
-9.18738
-8.99815
-8.83011
-8.68334
-8.55788
-8.45371
-8.37076
-8.30894
-8.26813
-8.24821
-8.24902
-8.27037
-8.31199
-8.37367
-8.45568
-12.0364
-11.7188
-11.4219
-11.146
-10.8918
-10.6596
-10.4497
-10.2622
-10.0974
-9.95508
-9.83541
-9.73828
-9.66361
-9.61129
-9.58119
-9.57318
-9.58704
-9.62248
-9.67926
-9.75767
-14.0007
-13.6517
-13.3244
-13.0196
-12.7378
-12.4793
-12.2446
-12.0338
-11.8469
-11.6839
-11.545
-11.4301
-11.339
-11.2717
-11.2281
-11.208
-11.2113
-11.2376
-11.2867
-11.3587
-16.3967
-16.0122
-15.6505
-15.3127
-14.9995
-14.7112
-14.4482
-14.2105
-13.9982
-13.8113
-13.6499
-13.514
-13.4034
-13.3182
-13.2581
-13.2232
-13.2132
-13.228
-13.2672
-13.33
-19.5347
-19.1105
-18.71
-18.3358
-17.9882
-17.6673
-17.373
-17.1054
-16.8644
-16.6501
-16.4623
-16.3013
-16.1668
-16.0589
-15.9774
-15.9221
-15.8931
-15.8907
-15.9146
-15.9627
-24.8724
-24.4032
-23.9684
-23.5648
-23.1904
-22.8442
-22.5257
-22.2349
-21.9716
-21.736
-21.528
-21.3476
-21.195
-21.0703
-20.9735
-20.9048
-20.8647
-20.8556
-20.8789
-20.9243
-0.375063
-0.441558
-0.517664
-0.603297
-0.698372
-0.802782
-0.916394
-1.03905
-1.17052
-1.31055
-1.45876
-1.61462
-1.77734
-1.94569
-2.11803
-2.29208
-2.46336
-2.62208
-2.75286
-2.88201
-0.696848
-0.765613
-0.844348
-0.932941
-1.03129
-1.13926
-1.2567
-1.38343
-1.5192
-1.66371
-1.81654
-1.97716
-2.14477
-2.31822
-2.4959
-2.67616
-2.85723
-3.03137
-3.18337
-3.35492
-1.04384
-1.11644
-1.19938
-1.29253
-1.39576
-1.50894
-1.63188
-1.76437
-1.90617
-2.05693
-2.21623
-2.3835
-2.55801
-2.73872
-2.92429
-3.11351
-3.30541
-3.49563
-3.67842
-3.88367
-1.41585
-1.4923
-1.57949
-1.6773
-1.78557
-1.90414
-2.03282
-2.17138
-2.31954
-2.47695
-2.64317
-2.81765
-2.99968
-3.18835
-3.3826
-3.58155
-3.7844
-3.98884
-4.19534
-4.42428
-1.8155
-1.89594
-1.9876
-2.0903
-2.2039
-2.32821
-2.46302
-2.60809
-2.76312
-2.92774
-3.10153
-3.28394
-3.47433
-3.67192
-3.8759
-4.08564
-4.30054
-4.51956
-4.74533
-4.99099
-2.24555
-2.33029
-2.42674
-2.53473
-2.6541
-2.78463
-2.92612
-3.07829
-3.24086
-3.41345
-3.59563
-3.78691
-3.9867
-4.19435
-4.40925
-4.63097
-4.85912
-5.09348
-5.3368
-5.59693
-2.70921
-2.79848
-2.90004
-3.0137
-3.13926
-3.27652
-3.42524
-3.58517
-3.75599
-3.93735
-4.12882
-4.32996
-4.54024
-4.75912
-4.98614
-5.22098
-5.46345
-5.71375
-5.9741
-6.24894
-3.21036
-3.30445
-3.41142
-3.53108
-3.66326
-3.80773
-3.96427
-4.13259
-4.31239
-4.50333
-4.70502
-4.91702
-5.13889
-5.37016
-5.61048
-5.85961
-6.11745
-6.38435
-6.66186
-6.95247
-3.75441
-3.85343
-3.96601
-4.09198
-4.23114
-4.38328
-4.54815
-4.72549
-4.91499
-5.11632
-5.32912
-5.55299
-5.78752
-6.03233
-6.28712
-6.55168
-6.82598
-7.11029
-7.40562
-7.71335
-4.34821
-4.45217
-4.57058
-4.70303
-4.84947
-5.00965
-5.18334
-5.37025
-5.57011
-5.78258
-6.00733
-6.244
-6.49222
-6.75165
-7.02202
-7.30316
-7.59499
-7.8977
-8.21183
-8.53819
-5.00114
-5.10999
-5.23403
-5.37317
-5.52705
-5.69552
-5.87836
-6.07529
-6.28604
-6.51028
-6.74772
-6.99802
-7.26084
-7.53587
-7.82287
-8.12163
-8.43207
-8.75421
-9.0883
-9.43482
-5.72614
-5.83958
-5.96913
-6.11463
-6.27595
-6.45276
-6.6449
-6.8521
-7.07409
-7.31056
-7.56124
-7.82582
-8.10398
-8.39543
-8.69992
-9.01726
-9.34728
-9.68986
-10.0451
-10.4132
-6.54136
-6.65875
-6.7933
-6.94475
-7.11299
-7.29811
-7.4995
-7.71683
-7.95007
-8.19893
-8.46313
-8.74237
-9.03634
-9.34477
-9.6674
-10.004
-10.3544
-10.7183
-11.0956
-11.4866
-7.47263
-7.5929
-7.73149
-7.88812
-8.06257
-8.25485
-8.46577
-8.69238
-8.9365
-9.19745
-9.475
-9.76885
-10.0787
-10.4043
-10.7454
-11.1017
-11.4729
-11.8587
-12.2588
-12.6736
-8.55815
-8.67961
-8.82063
-8.98098
-9.16049
-9.35869
-9.57503
-9.81199
-10.0668
-10.3388
-10.6289
-10.9369
-11.2623
-11.6049
-11.9642
-12.34
-12.732
-13.1398
-13.563
-14.0019
-9.85781
-9.97793
-10.1189
-10.2807
-10.4631
-10.6658
-10.8882
-11.1306
-11.393
-11.6759
-11.9778
-12.299
-12.6392
-12.9975
-13.3738
-13.7681
-14.18
-14.6091
-15.0548
-15.5173
-11.4531
-11.5687
-11.7068
-11.8674
-12.05
-12.2544
-12.4803
-12.7276
-12.9962
-13.2862
-13.5982
-13.9312
-14.2832
-14.6537
-15.0437
-15.454
-15.8839
-16.3326
-16.7992
-17.2836
-13.4147
-13.5227
-13.6549
-13.8109
-13.9893
-14.1907
-14.4152
-14.6627
-14.9328
-15.2251
-15.5389
-15.8745
-16.2334
-16.6164
-17.0216
-17.4476
-17.8942
-18.3609
-18.8468
-19.3509
-16.0331
-16.1251
-16.2411
-16.3825
-16.5507
-16.7448
-16.9641
-17.2082
-17.4767
-17.7692
-18.0851
-18.4242
-18.7867
-19.1731
-19.5832
-20.0166
-20.4729
-20.9529
-21.4565
-21.9787
-20.9663
-21.0388
-21.1421
-21.2739
-21.4331
-21.6191
-21.8312
-22.0691
-22.3324
-22.6208
-22.9342
-23.2724
-23.6356
-24.0241
-24.4379
-24.8771
-25.3428
-25.8389
-26.3678
-26.9118
-27.4268
-22.5115
-19.8728
-17.7859
-15.9966
-14.4564
-13.1029
-11.8912
-10.7942
-9.79368
-8.87668
-8.03343
-7.25629
-6.53899
-5.87633
-5.26376
-4.69598
-4.16741
-3.6865
-3.28215
-27.9695
-23.0603
-20.4102
-18.3031
-16.4901
-14.9243
-13.5448
-12.3077
-11.1864
-10.1634
-9.22565
-8.36377
-7.57019
-6.83883
-6.16461
-5.5431
-4.96953
-4.44149
-3.97211
-3.56971
-28.5407
-23.628
-20.9647
-18.8363
-16.9983
-15.4057
-13.9992
-12.7357
-11.5895
-10.5431
-9.58417
-8.70315
-7.89265
-7.14659
-6.45987
-5.82795
-5.2462
-4.71231
-4.23583
-3.81397
-29.1363
-24.2152
-21.5364
-19.3852
-17.5205
-15.8999
-14.4653
-13.1745
-12.0024
-10.9321
-9.95113
-9.05026
-8.22199
-7.46012
-6.75936
-6.11491
-5.52185
-4.97724
-4.48781
-4.04726
-29.753
-24.8212
-22.1246
-19.9493
-18.0564
-16.4063
-14.9424
-13.6234
-12.4245
-11.3294
-10.3257
-9.40423
-8.55739
-7.77882
-7.06296
-6.40472
-5.79889
-5.24193
-4.73874
-4.28209
-30.3894
-25.4464
-22.7275
-20.5275
-18.6051
-16.9241
-15.4298
-14.0815
-12.855
-11.7343
-10.7072
-9.7644
-8.8983
-8.10231
-7.37063
-6.69788
-6.07863
-5.50899
-4.99257
-4.52187
-31.0443
-26.0895
-23.3445
-21.1188
-19.1656
-17.4526
-15.9267
-14.5481
-13.2932
-12.1461
-11.0949
-10.1303
-9.24439
-8.43051
-7.68261
-6.99506
-6.36228
-5.78016
-5.25121
-4.76787
-31.7165
-26.7485
-23.9756
-21.7224
-19.7373
-17.9909
-16.4324
-15.0225
-13.7384
-12.5642
-11.4884
-10.5014
-9.59536
-8.76329
-7.99896
-7.29653
-6.65031
-6.05598
-5.51507
-5.02001
-32.4046
-27.4218
-24.6199
-22.3375
-20.319
-18.5382
-16.9459
-15.504
-14.1898
-12.9881
-11.8871
-10.8774
-9.95088
-9.10043
-8.31958
-7.60229
-6.94275
-6.33646
-5.78399
-5.27779
-33.1073
-28.1083
-25.2765
-22.9632
-20.9101
-19.0936
-17.4666
-15.9917
-14.6468
-13.417
-12.2904
-11.2577
-10.3105
-9.44158
-8.64418
-7.91209
-7.23934
-6.62124
-6.05746
-5.54049
-33.8234
-28.807
-25.9442
-23.5986
-21.5094
-19.6562
-17.9935
-16.4849
-15.1087
-13.8502
-12.6978
-11.6418
-10.6738
-9.78631
-8.97235
-8.22548
-7.5396
-6.90978
-6.33485
-5.80733
-34.5519
-29.5166
-26.6219
-24.2424
-22.116
-20.2251
-18.5258
-16.9827
-15.5747
-14.2871
-13.1085
-12.0291
-11.0402
-10.1341
-9.30355
-8.54195
-7.84297
-7.20146
-6.61544
-6.07752
-35.2915
-30.2361
-27.3085
-24.8938
-22.7289
-20.7991
-19.0625
-17.4843
-16.0439
-14.727
-13.5219
-12.4189
-11.409
-10.4843
-9.6372
-8.86087
-8.14881
-7.49562
-6.89851
-6.35028
-36.0413
-30.9644
-28.0028
-25.5514
-23.3469
-21.3774
-19.6026
-17.9887
-16.5156
-15.1689
-13.9373
-12.8105
-11.7796
-10.8363
-9.97265
-9.18162
-8.45649
-7.79158
-7.18338
-6.62491
-36.8001
-31.7001
-28.7034
-26.2142
-23.9691
-21.9589
-20.1453
-18.4951
-16.9888
-15.6123
-14.3538
-13.2033
-12.1514
-11.1894
-10.3092
-9.50353
-8.76533
-8.08868
-7.46935
-6.90071
-37.5667
-32.4419
-29.4092
-26.881
-24.5941
-22.5425
-20.6893
-19.0025
-17.4627
-16.0561
-14.7708
-13.5965
-12.5235
-11.5429
-10.6463
-9.82596
-9.07469
-8.38626
-7.75577
-7.17703
-38.3406
-33.1888
-30.1189
-27.5504
-25.2208
-23.127
-21.2337
-19.5099
-17.9364
-16.4995
-15.1874
-13.9893
-12.8954
-11.8962
-10.9832
-10.1482
-9.38393
-8.68369
-8.04203
-7.45329
-39.1233
-33.9402
-30.8308
-28.2209
-25.8477
-23.711
-21.7773
-20.0161
-18.4088
-16.9417
-15.6027
-14.381
-13.2661
-12.2486
-11.3192
-10.4697
-9.69239
-8.98035
-8.32753
-7.72891
-39.9149
-34.6949
-31.5432
-28.8908
-26.4735
-24.2935
-22.319
-20.5202
-18.8791
-17.3817
-16.0161
-14.7707
-13.6351
-12.5993
-11.6537
-10.7897
-9.99946
-9.27565
-8.61169
-8.00338
-40.7028
-35.448
-32.2543
-29.5591
-27.0975
-24.874
-22.8584
-21.022
-19.3469
-17.8193
-16.427
-15.1582
-14.002
-12.9479
-11.9862
-11.1079
-10.3047
-9.56914
-8.89407
-8.27625
-6.75735
-4.65665
-3.30067
-2.2588
-1.5273
-0.990162
-0.604485
-0.330734
-0.14069
-0.0126843
0.0698283
0.119435
0.14566
0.155636
0.154644
0.14654
0.134123
0.119386
0.103729
0.0881167
0.0731895
0.0593566
0.0468529
0.0357978
0.0262118
0.0180759
0.0112948
0.0058071
0.00143877
-0.00183128
-0.00427777
-0.00577348
-0.00679698
-0.00689213
-0.00696789
-0.00592605
-0.00550587
-0.00345986
-0.00299571
0.000168599
-7.01238
-4.83856
-3.44661
-2.37373
-1.61818
-1.06367
-0.664448
-0.380272
-0.181999
-0.0473831
0.0405407
0.0946404
0.124639
0.137811
0.139543
0.133769
0.123348
0.11032
0.0961281
0.0817685
0.0679098
0.0549853
0.0432532