/*--------------------------------*- C++ -*----------------------------------*\
| =========                 |                                                 |
| \\      /  F ield         | OpenFOAM: The Open Source CFD Toolbox           |
|  \\    /   O peration     | Version:  v1912                                 |
|   \\  /    A nd           | Website:  www.openfoam.com                      |
|    \\/     M anipulation  |                                                 |
\*---------------------------------------------------------------------------*/
FoamFile
{
    version     2.0;
    format      ascii;
    class       volScalarField;
    location    "55";
    object      p;
}
// * * * * * * * * * * * * * * * * * * * * * * * * * * * * * * * * * * * * * //

dimensions      [0 2 -2 0 0 0 0];


internalField   nonuniform List<scalar> 
9600
(
-41.4862
-36.2213
-32.9945
-30.2573
-27.7519
-25.4851
-23.4286
-21.5544
-19.8451
-18.2871
-16.8676
-15.5748
-14.3974
-13.3244
-12.3458
-11.4523
-10.6354
-9.88718
-9.20007
-8.57194
-42.246
-36.9637
-33.7009
-30.9208
-28.3703
-26.0594
-23.9614
-22.0495
-20.3063
-18.7182
-17.2724
-15.9565
-14.7587
-13.6678
-12.6734
-11.7657
-10.936
-10.176
-9.47779
-8.84037
-43.0075
-37.702
-34.4018
-31.5787
-28.9828
-26.6276
-24.4883
-22.5387
-20.7618
-19.144
-17.6721
-16.3333
-15.1155
-14.007
-12.9969
-12.0752
-11.2329
-10.4612
-9.75192
-9.10542
-43.7675
-38.4359
-35.0969
-32.2301
-29.5885
-27.1889
-25.0082
-23.021
-21.2108
-19.5636
-18.0659
-16.7047
-15.4671
-14.3413
-13.3158
-12.3803
-11.5255
-10.7423
-10.022
-9.36674
-44.5229
-39.1638
-35.7851
-32.8738
-30.1863
-27.7422
-25.5202
-23.4958
-21.6525
-19.9762
-18.4532
-17.0698
-15.8129
-14.6701
-13.6295
-12.6805
-11.8135
-11.0189
-10.2878
-9.62406
-45.2717
-39.8843
-36.4653
-33.509
-30.7751
-28.2865
-26.0233
-23.9619
-22.0859
-20.381
-18.8331
-17.4281
-16.1523
-14.9928
-13.9374
-12.9753
-12.0963
-11.2905
-10.5489
-9.87711
-46.0122
-40.596
-37.136
-34.1342
-31.3539
-28.8207
-26.5167
-24.4186
-22.5103
-20.7773
-19.205
-17.7788
-16.4845
-15.3087
-14.2391
-13.2641
-12.3735
-11.5569
-10.805
-10.1256
-46.7427
-41.2974
-37.7962
-34.7486
-31.9217
-29.344
-26.9993
-24.8649
-22.9249
-21.1643
-19.568
-18.1211
-16.8089
-15.6174
-14.5338
-13.5464
-12.6446
-11.8175
-11.0557
-10.3692
-47.4619
-41.9872
-38.4446
-35.3508
-32.4772
-29.8553
-27.4702
-25.3001
-23.3287
-21.5411
-19.9215
-18.4544
-17.1247
-15.918
-14.821
-13.8216
-12.909
-12.0718
-11.3005
-10.6077
-48.1686
-42.6643
-39.08
-35.9399
-33.0197
-30.3537
-27.9286
-25.7231
-23.721
-21.9069
-20.2646
-18.7779
-17.4313
-16.2098
-15.0999
-14.0891
-13.1662
-12.3194
-11.5391
-10.8406
-48.8617
-43.3275
-39.7013
-36.5148
-33.548
-30.8382
-28.3736
-26.1332
-24.101
-22.2609
-20.5964
-19.0907
-17.7277
-16.492
-15.3697
-14.3479
-13.4153
-12.5594
-11.7707
-11.0672
-49.5403
-43.9758
-40.3077
-37.0746
-34.0613
-31.308
-28.8042
-26.5295
-24.4677
-22.6023
-20.9162
-19.392
-18.0131
-16.7638
-15.6295
-14.5973
-13.6555
-12.7911
-11.9945
-11.2868
-50.2035
-44.6085
-40.8981
-37.6183
-34.5586
-31.7621
-29.2196
-26.9112
-24.8203
-22.9302
-21.223
-19.6809
-18.2866
-17.024
-15.8783
-14.8363
-13.8858
-13.0135
-12.2098
-11.4986
-50.8508
-45.2245
-41.4718
-38.1452
-35.0393
-32.1999
-29.6192
-27.2776
-25.1582
-23.2438
-21.516
-19.9563
-18.547
-17.2715
-16.1148
-15.0633
-14.1048
-13.2253
-12.4152
-11.7021
-51.4817
-45.8232
-42.0278
-38.6545
-35.5025
-32.6207
-30.0023
-27.628
-25.4806
-23.5424
-21.7944
-20.2175
-18.7934
-17.5052
-16.3376
-15.2769
-14.3105
-13.4242
-12.6087
-11.8952
-52.0957
-46.4037
-42.5656
-39.1456
-35.9477
-33.0238
-30.3683
-27.9618
-25.787
-23.8254
-22.0575
-20.4635
-19.0248
-17.7239
-16.5454
-15.4754
-14.5011
-13.6082
-12.7875
-12.0726
-52.6941
-46.966
-43.0844
-39.6177
-36.3742
-33.4087
-30.7165
-28.2785
-26.0768
-24.0923
-22.3046
-20.6937
-19.2403
-17.9267
-16.7372
-15.658
-14.6763
-13.7771
-12.9504
-12.231
-53.2812
-47.5112
-43.5835
-40.0698
-36.7811
-33.7746
-31.0467
-28.5779
-26.3498
-24.3426
-22.5354
-20.9073
-19.4387
-18.1117
-16.9107
-15.822
-14.8332
-13.9284
-13.0967
-12.3817
-53.8591
-48.0387
-44.0613
-40.5007
-37.1681
-34.1218
-31.359
-28.8602
-26.6064
-24.577
-22.7502
-21.1045
-19.6197
-18.2776
-17.0624
-15.9608
-14.96
-14.0443
-13.2113
-12.5289
-54.4059
-48.541
-44.5167
-40.9111
-37.5363
-34.4517
-31.6551
-29.1273
-26.8485
-24.7974
-22.9513
-21.2878
-19.786
-18.427
-17.1942
-16.0729
-15.0483
-14.1069
-13.263
-12.5868
-59.8617
-59.8302
-59.7609
-59.6685
-59.5522
-59.4094
-59.2398
-59.0437
-58.8218
-58.5747
-58.3027
-58.0066
-57.687
-57.3446
-56.9801
-56.5943
-56.1885
-55.7643
-55.3245
-54.8723
-53.5129
-53.5102
-53.4745
-53.4112
-53.321
-53.2035
-53.0589
-52.8879
-52.6912
-52.4694
-52.2232
-51.9531
-51.6597
-51.3438
-51.0059
-50.6467
-50.2669
-49.867
-49.4474
-49.0061
-48.8686
-48.8904
-48.8829
-48.8465
-48.7827
-48.6922
-48.5758
-48.434
-48.2674
-48.0766
-47.8623
-47.6249
-47.3651
-47.0834
-46.7803
-46.4562
-46.1114
-45.7459
-45.3595
-44.9503
-44.638
-44.6775
-44.6904
-44.6761
-44.6357
-44.57
-44.4799
-44.3658
-44.2282
-44.0678
-43.885
-43.6805
-43.4546
-43.2079
-42.9407
-42.6533
-42.346
-42.0185
-41.6708
-41.3018
-40.7261
-40.7755
-40.801
-40.8017
-40.7782
-40.7312
-40.6614
-40.5694
-40.4555
-40.3204
-40.1644
-39.9882
-39.7921
-39.5766
-39.3421
-39.0886
-38.8165
-38.5255
-38.2156
-37.8861
-37.2129
-37.2664
-37.2983
-37.3077
-37.2948
-37.2602
-37.2046
-37.1284
-37.0322
-36.9163
-36.7813
-36.6277
-36.4559
-36.2663
-36.0592
-35.8349
-35.5934
-35.3347
-35.0586
-34.7646
-34.0892
-34.1427
-34.1764
-34.1895
-34.1822
-34.1549
-34.1082
-34.0426
-33.9586
-33.8566
-33.7372
-33.6007
-33.4477
-33.2786
-33.0936
-32.8932
-32.6774
-32.446
-32.199
-31.9357
-31.3183
-31.369
-31.4014
-31.4148
-31.4094
-31.3856
-31.3439
-31.2849
-31.2089
-31.1164
-31.008
-30.8841
-30.7453
-30.5919
-30.4244
-30.2432
-30.0483
-29.8397
-29.6171
-29.38
-28.8604
-28.9066
-28.9358
-28.9474
-28.9416
-28.9188
-28.8795
-28.8242
-28.7532
-28.667
-28.5663
-28.4515
-28.3231
-28.1817
-28.0279
-27.8618
-27.6839
-27.4941
-27.2921
-27.0774
-26.6756
-26.7166
-26.7417
-26.7505
-26.743
-26.7198
-26.6811
-26.6276
-26.5595
-26.4775
-26.3821
-26.2737
-26.1532
-26.0209
-25.8776
-25.7237
-25.5597
-25.3855
-25.201
-25.0055
-24.7268
-24.7626
-24.7833
-24.7888
-24.779
-24.7545
-24.7156
-24.6627
-24.5963
-24.517
-24.4252
-24.3215
-24.2068
-24.0815
-23.9465
-23.8024
-23.6498
-23.4889
-23.3195
-23.1409
-22.9812
-23.0118
-23.0283
-23.0304
-23.0182
-22.992
-22.9524
-22.8996
-22.8341
-22.7565
-22.6673
-22.5671
-22.4567
-22.3369
-22.2085
-22.0724
-21.9293
-21.7797
-21.6237
-21.4604
-21.4103
-21.4363
-21.4489
-21.4478
-21.4331
-21.4053
-21.3648
-21.3118
-21.2468
-21.1704
-21.0831
-20.9855
-20.8785
-20.7629
-20.6397
-20.5101
-20.375
-20.2353
-20.0914
-19.9423
-19.9905
-20.0124
-20.0214
-20.0174
-20.0005
-19.9712
-19.9297
-19.8764
-19.8118
-19.7362
-19.6503
-19.5548
-19.4504
-19.3381
-19.2191
-19.0946
-18.9662
-18.8351
-18.7024
-18.567
-18.7019
-18.72
-18.7259
-18.7193
-18.7005
-18.6698
-18.6275
-18.574
-18.5096
-18.4348
-18.3501
-18.2561
-18.1538
-18.044
-17.9282
-17.8077
-17.6847
-17.5609
-17.4387
-17.3167
-17.5279
-17.5428
-17.5458
-17.5369
-17.5165
-17.4846
-17.4417
-17.3879
-17.3237
-17.2495
-17.1658
-17.0732
-16.9724
-16.8645
-16.7509
-16.6332
-16.5143
-16.3962
-16.2836
-16.1749
-16.4549
-16.4667
-16.4673
-16.4565
-16.4345
-16.4016
-16.3581
-16.3041
-16.2401
-16.1664
-16.0835
-15.9918
-15.8921
-15.7854
-15.673
-15.5568
-15.4402
-15.3258
-15.2213
-15.1244
-15.4708
-15.4802
-15.4788
-15.4665
-15.4435
-15.4099
-15.366
-15.3121
-15.2484
-15.1753
-15.093
-15.0022
-14.9033
-14.7972
-14.6851
-14.569
-14.4526
-14.3398
-14.2423
-14.1546
-14.5645
-14.5726
-14.5702
-14.5574
-14.5343
-14.5011
-14.4579
-14.4051
-14.3428
-14.2712
-14.1908
-14.1019
-14.0048
-13.9004
-13.7894
-13.6735
-13.5564
-13.4432
-13.3526
-13.279
-13.7308
-13.7356
-13.7307
-13.7161
-13.6919
-13.6583
-13.6155
-13.5635
-13.5027
-13.4331
-13.3551
-13.2689
-13.1748
-13.0731
-12.9643
-12.8496
-12.7306
-12.6127
-12.5156
-12.4664
-53.5692
-54.1446
-54.6829
-55.2062
-55.7115
-56.1929
-56.6476
-57.0744
-57.4724
-57.8408
-58.1789
-58.4862
-58.7623
-59.0069
-59.2193
-59.3996
-59.5488
-59.6679
-59.759
-59.824
-47.0861
-47.667
-48.2197
-48.7501
-49.2576
-49.7399
-50.1955
-50.6237
-51.0239
-51.3954
-51.7376
-52.0504
-52.334
-52.5889
-52.813
-53.006
-53.1682
-53.3001
-53.4023
-53.4735
-42.4419
-43.0104
-43.5553
-44.0768
-44.5748
-45.0486
-45.4975
-45.9207
-46.3177
-46.6876
-47.0297
-47.3436
-47.6291
-47.8849
-48.1122
-48.3113
-48.4819
-48.6237
-48.7363
-48.8184
-38.3179
-38.8611
-39.3847
-39.8867
-40.3665
-40.8238
-41.2581
-41.6686
-42.0547
-42.416
-42.7509
-43.0591
-43.3414
-43.5974
-43.8273
-44.0307
-44.2072
-44.3566
-44.4784
-44.5723
-34.6401
-35.1533
-35.6495
-36.126
-36.5819
-37.0168
-37.4301
-37.8213
-38.1895
-38.5343
-38.8562
-39.1549
-39.4288
-39.6781
-39.903
-40.1033
-40.2785
-40.4286
-40.5534
-40.6527
-31.4415
-31.9233
-32.3896
-32.838
-33.2673
-33.6769
-34.0665
-34.4355
-34.7833
-35.1097
-35.4145
-35.6971
-35.957
-36.1941
-36.409
-36.6013
-36.7702
-36.9159
-37.0383
-37.1375
-28.6697
-29.1206
-29.5573
-29.9773
-30.3795
-30.7633
-31.1283
-31.474
-31.7999
-32.1058
-32.3914
-32.6562
-32.9001
-33.1228
-33.324
-33.5055
-33.6656
-33.8038
-33.9205
-34.0158
-26.2577
-26.6797
-27.0884
-27.4814
-27.8576
-28.2164
-28.5574
-28.8801
-29.1842
-29.4694
-29.7354
-29.9821
-30.2094
-30.4172
-30.6053
-30.7723
-30.9218
-31.0511
-31.1601
-31.2493
-24.147
-24.5426
-24.9255
-25.2935
-25.6456
-25.981
-26.2993
-26.6003
-26.8836
-27.1489
-27.3962
-27.6254
-27.8363
-28.0289
-28.2031
-28.359
-28.4952
-28.6144
-28.715
-28.7971
-22.2873
-22.6592
-23.0188
-23.3642
-23.6942
-24.0082
-24.3057
-24.5865
-24.8504
-25.0973
-25.327
-25.5396
-25.735
-25.9131
-26.0739
-26.2173
-26.3432
-26.4519
-26.5439
-26.6185
-20.6372
-20.9878
-21.3267
-21.6519
-21.962
-22.2564
-22.5349
-22.7972
-23.0434
-23.2732
-23.4868
-23.6841
-23.8651
-24.0298
-24.1782
-24.3101
-24.4258
-24.525
-24.6086
-24.6759
-19.1628
-19.4946
-19.8153
-20.1224
-20.4146
-20.6913
-20.9525
-21.198
-21.4279
-21.6422
-21.841
-22.0243
-22.1922
-22.3446
-22.4816
-22.6032
-22.7093
-22.8002
-22.8755
-22.9361
-17.8372
-18.1525
-18.4573
-18.7485
-19.0245
-19.2851
-19.5304
-19.7606
-19.9756
-20.1757
-20.361
-20.5317
-20.6876
-20.8289
-20.9556
-21.0677
-21.1651
-21.248
-21.316
-21.3706
-16.6389
-16.9398
-17.231
-17.5081
-17.7694
-18.0152
-18.246
-18.4619
-18.6633
-18.8504
-19.0234
-19.1824
-19.3275
-19.4588
-19.5761
-19.6797
-19.7694
-19.8453
-19.9078
-19.9557
-15.5507
-15.8393
-16.119
-16.3834
-16.6312
-16.8633
-17.0806
-17.2833
-17.472
-17.6471
-17.8088
-17.9573
-18.0926
-18.2147
-18.3236
-18.4195
-18.5021
-18.5717
-18.6282
-18.6714
-14.5579
-14.838
-15.1085
-15.3609
-15.5958
-15.8151
-16.0195
-16.2098
-16.3867
-16.5506
-16.7019
-16.8406
-16.9669
-17.0807
-17.1821
-17.2709
-17.3473
-17.4111
-17.4624
-17.5013
-13.6429
-13.9218
-14.1872
-14.4282
-14.6504
-14.8572
-15.0494
-15.228
-15.3938
-15.5474
-15.6891
-15.8191
-15.9372
-16.0435
-16.138
-16.2206
-16.2913
-16.35
-16.3968
-16.4317
-12.7849
-13.0681
-13.3348
-13.5664
-13.7766
-13.9717
-14.1527
-14.3207
-14.4768
-14.6215
-14.755
-14.8774
-14.9886
-15.0887
-15.1775
-15.2549
-15.3209
-15.3755
-15.4187
-15.4505
-11.9976
-12.2713
-12.5386
-12.7654
-12.9655
-13.1492
-13.3198
-13.4783
-13.6256
-13.7623
-13.8886
-14.0046
-14.11
-14.2048
-14.2889
-14.3622
-14.4245
-14.4759
-14.5163
-14.5459
-11.4069
-11.6577
-11.8855
-12.1023
-12.2907
-12.4566
-12.6106
-12.7548
-12.8888
-13.013
-13.1278
-13.233
-13.3286
-13.4142
-13.4899
-13.5554
-13.6109
-13.6561
-13.6909
-13.7154
-6.00576
-6.49708
-7.03549
-7.61791
-8.2508
-8.94155
-9.69781
-10.5291
-11.4475
-12.4687
-13.6132
-14.9079
-16.3881
-18.1001
-20.1042
-22.4798
-25.3079
-28.611
-32.6083
-38.6042
-6.27637
-6.78122
-7.33015
-7.92464
-8.57131
-9.27723
-10.0502
-10.9
-11.8389
-12.883
-14.0531
-15.3764
-16.8887
-18.6367
-20.681
-23.1006
-25.9759
-29.3257
-33.3616
-39.3785
-6.54841
-7.0668
-7.62636
-8.23315
-8.89385
-9.61521
-10.4052
-11.2737
-12.2335
-13.3008
-14.4968
-15.849
-17.3939
-19.1782
-21.2628
-23.7266
-26.6484
-30.044
-34.1166
-40.15
-6.82139
-7.35325
-7.92353
-8.54284
-9.21779
-9.95479
-10.7619
-11.6495
-12.6303
-13.7211
-14.9431
-16.3246
-17.9021
-19.723
-21.8481
-24.356
-27.3242
-30.7653
-34.8757
-40.9303
-7.09486
-7.64012
-8.2212
-8.85323
-9.54262
-10.2955
-11.12
-12.0267
-13.0288
-14.1431
-15.3915
-16.8024
-18.4127
-20.2702
-22.4359
-24.9878
-28.0023
-31.4889
-35.6378
-41.7169
-7.36846
-7.927
-8.51894
-9.16389
-9.86792
-10.6367
-11.4788
-12.4048
-13.4283
-14.5664
-15.8413
-17.2816
-18.925
-20.8192
-23.0255
-25.6214
-28.6821
-32.214
-36.4011
-42.5056
-7.64187
-8.21352
-8.81636
-9.47442
-10.1933
-10.9782
-11.8379
-12.7834
-13.8284
-14.9904
-16.2918
-17.7618
-19.4382
-21.3692
-23.6161
-26.256
-29.3626
-32.9395
-37.164
-43.2941
-7.91484
-8.49939
-9.11316
-9.7845
-10.5183
-11.3195
-12.1969
-13.1619
-14.2285
-15.4144
-16.7424
-18.2421
-19.9516
-21.9194
-24.2068
-26.8906
-30.0428
-33.6641
-37.9254
-44.0808
-8.18722
-8.78441
-9.40909
-10.0938
-10.8427
-11.6602
-12.5553
-13.5399
-14.6281
-15.8379
-17.1926
-18.7219
-20.4644
-22.469
-24.7968
-27.5241
-30.7215
-34.3867
-38.6839
-44.8645
-8.45896
-9.06848
-9.70399
-10.4022
-11.1662
-11.9999
-12.9129
-13.9169
-15.0267
-16.2604
-17.6415
-19.2005
-20.976
-23.0171
-25.3851
-28.1556
-31.3978
-35.1062
-39.4382
-45.6435
-8.73018
-9.35163
-9.9978
-10.7095
-11.4885
-12.3385
-13.2691
-14.2926
-15.4237
-16.6812
-18.0888
-19.6771
-21.4854
-23.5628
-25.9707
-28.784
-32.0704
-35.8214
-40.1871
-46.4163
-9.00117
-9.63402
-10.2906
-11.0157
-11.8097
-12.6757
-13.6237
-14.6664
-15.8188
-17.0997
-18.5335
-20.1511
-21.9919
-24.1054
-26.5527
-29.4083
-32.7382
-36.5309
-40.9292
-47.1816
-9.27241
-9.91594
-10.5824
-11.3208
-12.1294
-13.0111
-13.9763
-15.0379
-16.2112
-17.5154
-18.9751
-20.6215
-22.4945
-24.6437
-27.1301
-30.0274
-33.4001
-37.2336
-41.6632
-47.938
-9.54463
-10.1978
-10.8735
-11.6246
-12.4474
-13.3445
-14.3265
-15.4066
-16.6004
-17.9276
-19.4128
-21.0877
-22.9925
-25.177
-27.7018
-30.6402
-34.0548
-37.9283
-42.3878
-48.6842
-9.81858
-10.48
-11.1639
-11.927
-12.7634
-13.6753
-14.6736
-15.7717
-16.9857
-18.3353
-19.8457
-21.5487
-23.4849
-25.704
-28.2668
-31.2453
-34.7011
-38.6136
-43.1018
-49.419
-10.0952
-10.7627
-11.4532
-12.2274
-13.0768
-14.0029
-15.0169
-16.1326
-17.3663
-18.7379
-20.2729
-22.0036
-23.9705
-26.2237
-28.8237
-31.8417
-35.3376
-39.2882
-43.804
-50.1414
-10.3744
-11.0447
-11.7401
-12.5244
-13.3863
-14.3261
-15.3553
-16.4883
-17.7412
-19.1343
-20.6935
-22.4512
-24.4483
-26.735
-29.3714
-32.428
-35.9631
-39.9509
-44.4935
-50.8509
-10.6553
-11.3237
-12.0219
-12.8164
-13.6906
-14.6438
-15.688
-16.8377
-18.1093
-19.5236
-21.1064
-22.8906
-24.9173
-27.2367
-29.9086
-33.0027
-36.5758
-40.6
-45.169
-51.5474
-10.9307
-11.5912
-12.2927
-13.0997
-13.9875
-14.9543
-16.0133
-17.1795
-18.4696
-19.9045
-21.5104
-23.3205
-25.376
-27.7273
-30.4338
-33.5642
-37.1741
-41.2336
-45.8293
-52.2323
-11.182
-11.8274
-12.5479
-13.3755
-14.2776
-15.2574
-16.3309
-17.5132
-18.8213
-20.2762
-21.9046
-23.7399
-25.8235
-28.2057
-30.9456
-34.111
-37.7558
-41.8486
-46.4698
-52.9074
-1.58466
-1.83862
-2.18652
-2.57547
-2.99406
-3.44764
-3.94254
-4.48467
-5.08153
-5.74339
-6.48419
-7.32294
-8.2858
-9.40881
-10.7429
-12.3623
-14.3567
-16.7874
-19.9626
-25.3574
-1.73782
-2.00821
-2.37457
-2.76947
-3.19148
-3.65041
-4.15221
-4.70243
-5.3087
-5.98154
-6.73518
-7.58896
-8.56946
-9.71324
-11.0718
-12.7198
-14.7472
-17.2133
-20.4208
-25.8294
-1.88532
-2.17979
-2.55931
-2.96235
-3.3921
-3.85942
-4.37017
-4.93006
-5.54712
-6.2322
-6.99985
-7.86981
-8.86911
-10.0349
-11.419
-13.0968
-15.1578
-17.6593
-20.8984
-26.3156
-2.05511
-2.36041
-2.74814
-3.15989
-3.59885
-4.07571
-4.59649
-5.16719
-5.79616
-6.49456
-7.27728
-8.16448
-9.18364
-10.3724
-11.7833
-13.4918
-15.5873
-18.1256
-21.3995
-26.8344
-2.23622
-2.54861
-2.94418
-3.3649
-3.81335
-4.3002
-4.83165
-5.41397
-6.05572
-6.76837
-7.56712
-8.47253
-9.51256
-10.7254
-12.164
-13.9044
-16.0357
-18.6122
-21.9235
-27.3826
-2.4228
-2.74381
-3.14772
-3.57757
-4.03581
-4.5331
-5.07583
-5.67045
-6.32576
-7.05347
-7.86914
-8.79369
-9.85557
-11.0935
-12.561
-14.3344
-16.5027
-19.1187
-22.4687
-27.9549
-2.61639
-2.94692
-3.35908
-3.79808
-4.26637
-4.77454
-5.32907
-5.9366
-6.60614
-7.34968
-8.18308
-9.12767
-10.2124
-11.4764
-12.9739
-14.7815
-16.9879
-19.6444
-23.034
-28.5489
-2.81838
-3.15839
-3.5786
-4.02673
-4.50529
-5.02465
-5.59142
-6.21238
-6.89676
-7.6568
-8.50868
-9.47414
-10.5826
-11.8737
-13.4022
-15.2451
-17.4908
-20.1889
-23.6188
-29.1637
-3.02854
-3.3781
-3.80631
-4.26363
-4.75261
-5.28346
-5.86282
-6.49767
-7.19742
-7.97459
-8.84567
-9.83277
-10.9658
-12.2849
-13.8454
-15.7246
-18.0106
-20.7513
-24.2223
-29.7981
-3.24628
-3.60569
-4.04202
-4.50862
-5.00821
-5.5508
-6.14311
-6.79227
-7.50791
-8.30279
-9.19371
-10.2032
-11.3616
-12.7096
-14.303
-16.2195
-18.5468
-21.3311
-24.8438
-30.451
-3.47116
-3.84083
-4.2854
-4.76142
-5.27183
-5.82643
-6.43203
-7.09591
-7.82792
-8.64105
-9.55245
-10.585
-11.7695
-13.1473
-14.7746
-16.7293
-19.0988
-21.9274
-25.4823
-31.1214
-3.70279
-4.0831
-4.53609
-5.02168
-5.54313
-6.11003
-6.72924
-7.40824
-8.15707
-8.98899
-9.92145
-10.9777
-12.1891
-13.5975
-15.2594
-17.2532
-19.6658
-22.5394
-26.137
-31.8083
-3.94072
-4.33205
-4.79363
-5.28899
-5.82172
-6.4012
-7.03436
-7.72886
-8.49496
-9.34616
-10.3003
-11.3809
-12.6199
-14.0595
-15.757
-17.7906
-20.2471
-23.1665
-26.8071
-32.5106
-4.18442
-4.58713
-5.05752
-5.56288
-6.10714
-6.69949
-7.34693
-8.0573
-8.8411
-9.71207
-10.6883
-11.794
-13.0612
-14.5329
-16.2665
-18.3409
-20.8419
-23.8077
-27.4917
-33.2275
-4.43333
-4.84781
-5.32723
-5.84281
-6.39888
-7.0044
-7.66644
-8.39306
-9.19497
-10.0862
-11.0851
-12.2163
-13.5124
-15.0168
-16.7874
-18.9032
-21.4495
-24.4622
-28.1898
-33.9581
-4.68692
-5.1135
-5.60219
-6.12824
-6.6964
-7.31539
-7.99236
-8.7356
-9.55601
-10.4679
-11.4901
-12.6474
-13.9729
-15.5106
-17.3189
-19.4767
-22.0689
-25.1291
-28.9008
-34.7016
-4.94462
-5.38363
-5.88182
-6.41861
-6.99914
-7.6319
-8.32413
-9.08432
-9.92365
-10.8567
-11.9025
-13.0864
-14.442
-16.0136
-17.8601
-20.0607
-22.6993
-25.8075
-29.6237
-35.4574
-5.20589
-5.65762
-6.16554
-6.71333
-7.30654
-7.95337
-8.66117
-9.43866
-10.2973
-11.2518
-12.3217
-13.5327
-14.9189
-16.5249
-18.4103
-20.6541
-23.3397
-26.4964
-30.3577
-36.2253
-5.47017
-5.93489
-6.45276
-7.01184
-7.618
-8.27919
-9.00286
-9.79798
-10.6762
-11.6526
-12.7471
-13.9856
-15.4027
-17.0438
-18.9684
-21.2559
-23.9889
-27.1944
-31.1018
-37.0057
-5.73697
-6.2149
-6.74295
-7.31358
-7.93297
-8.60881
-9.34866
-10.1617
-11.0599
-12.0586
-13.1779
-14.4444
-15.8929
-17.5693
-19.5336
-21.8651
-24.6457
-27.9
-31.8532
-37.7994
-1.3369
-1.13022
-0.976463
-0.839758
-0.719713
-0.613788
-0.520867
-0.440157
-0.371158
-0.313511
-0.266949
-0.231261
-0.206276
-0.191859
-0.18787
-0.194099
-0.210331
-0.236693
-0.27336
-0.320127
-1.66672
-1.48332
-1.32559
-1.18366
-1.05878
-0.948386
-0.851499
-0.767317
-0.695326
-0.63515
-0.586507
-0.549175
-0.52297
-0.507741
-0.503345
-0.509607
-0.526373
-0.553654
-0.591523
-0.639708
-1.99922
-1.82369
-1.66598
-1.5229
-1.3959
-1.28333
-1.18448
-1.09868
-1.02546
-0.964444
-0.91537
-0.87801
-0.852181
-0.837725
-0.834494
-0.842334
-0.861126
-0.890822
-0.931296
-0.982743
-2.38292
-2.20573
-2.04498
-1.89894
-1.76836
-1.65228
-1.55022
-1.46163
-1.3861
-1.32329
-1.27293
-1.23478
-1.20867
-1.19443
-1.1919
-1.20093
-1.22141
-1.25326
-1.29635
-1.35073
-2.80161
-2.62196
-2.45724
-2.30726
-2.17246
-2.05233
-1.94653
-1.85464
-1.77632
-1.71126
-1.65921
-1.61992
-1.59323
-1.57895
-1.57692
-1.58699
-1.60905
-1.64299
-1.68867
-1.7461
-3.25284
-3.06996
-2.90107
-2.74676
-2.6075
-2.4831
-2.37336
-2.27798
-2.19668
-2.12919
-2.07528
-2.03473
-2.00735
-1.99297
-1.99142
-2.00256
-2.02625
-2.06237
-2.11077
-2.17141
-3.74278
-3.55518
-3.38136
-3.22213
-3.07797
-2.94891
-2.83488
-2.73567
-2.65108
-2.58088
-2.52487
-2.48283
-2.45459
-2.43997
-2.43882
-2.45097
-2.4763
-2.51464
-2.56586
-2.62993
-4.27823
-4.0844
-3.90459
-3.73955
-3.58979
-3.45547
-3.33659
-3.23305
-3.1447
-3.07136
-3.01285
-2.96899
-2.93959
-2.9245
-2.92355
-2.93658
-2.96345
-3.004
-3.05807
-3.12564
-4.86686
-4.66538
-4.47834
-4.30643
-4.15015
-4.00974
-3.88528
-3.77673
-3.68401
-3.60696
-3.54543
-3.49928
-3.46831
-3.45239
-3.45134
-3.46501
-3.49325
-3.53588
-3.59276
-3.66387
-5.51884
-5.30813
-5.11243
-4.93237
-4.76844
-4.62091
-4.48992
-4.37549
-4.27757
-4.19606
-4.13084
-4.08176
-4.04866
-4.0314
-4.02982
-4.04376
-4.07306
-4.11755
-4.17706
-4.25161
-6.24789
-6.02615
-5.82012
-5.63036
-5.45735
-5.30139
-5.16266
-5.04121
-4.93705
-4.85009
-4.78025
-4.7274
-4.6914
-4.67211
-4.66936
-4.68302
-4.7129
-4.75883
-4.82064
-4.89838
-7.07274
-6.83784
-6.61948
-6.41812
-6.23426
-6.06821
-5.92018
-5.79025
-5.67847
-5.58478
-5.50911
-5.45137
-5.41141
-5.38911
-5.38432
-5.39688
-5.42662
-5.47334
-5.53688
-5.61733
-8.01912
-7.76853
-7.53538
-7.3201
-7.12318
-6.94495
-6.78563
-6.64535
-6.52416
-6.42205
-6.33896
-6.27482
-6.22949
-6.20286
-6.19478
-6.20509
-6.23364
-6.28018
-6.34456
-6.42691
-9.12258
-8.85322
-8.6023
-8.37021
-8.15748
-7.96443
-7.79131
-7.63827
-7.50539
-7.39268
-7.30009
-7.22755
-7.17497
-7.14222
-7.12916
-7.13565
-7.16149
-7.20645
-7.27035
-7.35339
-10.4334
-10.1416
-9.86923
-9.61681
-9.38486
-9.17373
-8.98367
-8.81486
-8.66739
-8.54127
-8.43649
-8.35299
-8.29067
-8.24942
-8.22912
-8.2296
-8.25068
-8.29209
-8.35362
-8.43554
-12.0252
-11.7065
-11.4085
-11.1315
-10.8763
-10.6431
-10.4323
-10.2441
-10.0784
-9.93543
-9.81509
-9.71736
-9.64215
-9.58935
-9.55883
-9.55044
-9.564
-9.5992
-9.65582
-9.73412
-13.9872
-13.6369
-13.3085
-13.0025
-12.7195
-12.4601
-12.2244
-12.0126
-11.8249
-11.6612
-11.5216
-11.4059
-11.3143
-11.2465
-11.2024
-11.1819
-11.1848
-11.2108
-11.2597
-11.3315
-16.3811
-15.9952
-15.6322
-15.2932
-14.9788
-14.6894
-14.4253
-14.1866
-13.9734
-13.7856
-13.6234
-13.4867
-13.3755
-13.2896
-13.229
-13.1936
-13.1832
-13.1977
-13.2366
-13.2993
-19.5177
-19.092
-18.69
-18.3145
-17.9656
-17.6435
-17.3481
-17.0793
-16.8373
-16.622
-16.4334
-16.2715
-16.1363
-16.0277
-15.9456
-15.8898
-15.8604
-15.8575
-15.8811
-15.929
-24.8545
-24.3837
-23.9473
-23.5423
-23.1665
-22.819
-22.4993
-22.2073
-21.9429
-21.7062
-21.4973
-21.316
-21.1626
-21.0372
-20.9397
-20.8703
-20.8297
-20.8202
-20.8431
-20.8882
-0.376896
-0.443344
-0.519434
-0.605085
-0.700212
-0.804709
-0.918446
-1.04126
-1.17294
-1.31321
-1.46169
-1.61787
-1.78095
-1.94969
-2.12245
-2.29695
-2.46872
-2.62795
-2.75926
-2.88906
-0.698354
-0.767081
-0.845812
-0.934436
-1.03285
-1.14092
-1.25851
-1.38542
-1.52141
-1.66618
-1.81932
-1.98028
-2.14828
-2.32215
-2.50029
-2.68104
-2.86264
-3.03734
-3.18995
-3.36224
-1.04489
-1.11746
-1.20041
-1.29361
-1.39692
-1.51022
-1.63332
-1.76602
-1.90806
-2.0591
-2.21873
-2.38638
-2.5613
-2.74246
-2.92852
-3.11827
-3.31074
-3.50157
-3.68503
-3.89105
-1.4163
-1.49273
-1.57995
-1.67782
-1.78619
-1.9049
-2.03376
-2.17254
-2.32097
-2.47869
-2.64526
-2.82014
-3.00262
-3.19177
-3.38655
-3.58607
-3.78954
-3.99463
-4.20185
-4.43158
-1.8152
-1.89564
-1.98733
-2.09011
-2.20382
-2.32829
-2.4633
-2.60862
-2.76393
-2.92889
-3.10306
-3.28591
-3.47677
-3.67489
-3.87943
-4.08979
-4.30535
-4.52507
-4.7516
-4.9981
-2.24434
-2.32908
-2.42558
-2.53365
-2.65315
-2.78386
-2.92557
-3.07801
-3.24089
-3.41385
-3.59644
-3.78819
-3.98849
-4.1967
-4.4122
-4.63457
-4.86343
-5.09855
-5.34269
-5.60369
-2.7069
-2.79616
-2.89778
-3.01154
-3.13725
-3.2747
-3.42367
-3.58389
-3.75505
-3.9368
-4.12872
-4.33036
-4.54119
-4.76067
-4.98833
-5.22387
-5.4671
-5.71821
-5.97943
-6.25518
-3.20666
-3.30081
-3.40785
-3.52763
-3.65997
-3.80466
-3.96146
-4.1301
-4.31027
-4.50163
-4.7038
-4.91633
-5.13878
-5.3707
-5.61171
-5.86159
-6.12024
-6.38799
-6.66643
-6.958
-3.74919
-3.84823
-3.96091
-4.087
-4.22635
-4.37872
-4.54388
-4.72156
-4.91146
-5.11324
-5.32655
-5.55098
-5.78614
-6.03164
-6.28716
-6.55252
-6.82768
-7.1129
-7.40921
-7.71796
-4.34119
-4.4452
-4.5637
-4.69629
-4.84292
-5.00336
-5.17736
-5.36463
-5.56491
-5.77786
-6.00315
-6.24042
-6.48931
-6.74947
-7.02063
-7.30261
-7.59536
-7.89903
-8.21419
-8.54163
-4.99206
-5.10096
-5.22509
-5.3644
-5.51848
-5.68722
-5.87039
-6.06771
-6.2789
-6.50366
-6.74167
-6.99261
-7.25613
-7.53194
-7.81976
-8.11943
-8.43083
-8.75399
-9.08917
-9.43684
-5.71472
-5.82821
-5.95787
-6.10353
-6.26508
-6.44218
-6.63466
-6.84227
-7.06472
-7.30173
-7.55302
-7.81828
-8.09718
-8.38945
-8.69482
-9.0131
-9.34413
-9.68781
-10.0441
-10.4135
-6.52732
-6.64476
-6.77942
-6.93104
-7.09952
-7.28495
-7.48667
-7.70443
-7.93817
-8.1876
-8.45244
-8.73239
-9.02714
-9.33642
-9.65997
-9.99759
-10.349
-10.7141
-11.0926
-11.4849
-7.45567
-7.57599
-7.71469
-7.8715
-8.04619
-8.23875
-8.44998
-8.6771
-8.92176
-9.18331
-9.46152
-9.75611
-10.0668
-10.3933
-10.7353
-11.0926
-11.465
-11.852
-12.2534
-12.6695
-8.53799
-8.65949
-8.80062
-8.96114
-9.14089
-9.33942
-9.55622
-9.79358
-10.0489
-10.3216
-10.6124
-10.9211
-11.2473
-11.5908
-11.9512
-12.3281
-12.7213
-13.1303
-13.5548
-13.9951
-9.83421
-9.95435
-10.0955
-10.2574
-10.44
-10.643
-10.8659
-11.1087
-11.3716
-11.6551
-11.9578
-12.2798
-12.6209
-12.9802
-13.3575
-13.7529
-14.1661
-14.5965
-15.0436
-15.5075
-11.4259
-11.5415
-11.6797
-11.8404
-12.0232
-12.2279
-12.4543
-12.7021
-12.9712
-13.2618
-13.5745
-13.9083
-14.2613
-14.6327
-15.0239
-15.4353
-15.8664
-16.3165
-16.7846
-17.2705
-13.3838
-13.4918
-13.6241
-13.7802
-13.9589
-14.1606
-14.3855
-14.6334
-14.9041
-15.197
-15.5115
-15.8479
-16.2078
-16.5917
-16.998
-17.4253
-17.8731
-18.3413
-18.8286
-19.3344
-15.9992
-16.0912
-16.2072
-16.3486
-16.5169
-16.7113
-16.9309
-17.1754
-17.4444
-17.7376
-18.0542
-18.3941
-18.7575
-19.1449
-19.5562
-19.9908
-20.4484
-20.9298
-21.4349
-21.9587
-20.93
-21.0023
-21.1056
-21.2375
-21.3969
-21.583
-21.7954
-22.0337
-22.2975
-22.5865
-22.9006
-23.2396
-23.6037
-23.9932
-24.4082
-24.8486
-25.3156
-25.8131
-26.3435
-26.8892
-27.4059
-22.4932
-19.8579
-17.7744
-15.9884
-14.4511
-13.1002
-11.8908
-10.7957
-9.7969
-8.88127
-8.03912
-7.26284
-6.5462
-5.88401
-5.27175
-4.70415
-4.17564
-3.6947
-3.2903
-27.9505
-23.0439
-20.3971
-18.2933
-16.4835
-14.9205
-13.5436
-12.3087
-11.1894
-10.1678
-9.23143
-8.37058
-7.57781
-6.84705
-6.17325
-5.55201
-4.97858
-4.45057
-3.98112
-3.57864
-28.5236
-23.6135
-20.9535
-18.8283
-16.9934
-15.4036
-13.9995
-12.7382
-11.5938
-10.5489
-9.59119
-8.71114
-7.90138
-7.15586
-6.46951
-5.83782
-5.25616
-4.72226
-4.24568
-3.82369
-29.1212
-24.2026
-21.5271
-19.3791
-17.5174
-15.8995
-14.4672
-13.1785
-12.0082
-10.9392
-9.95944
-9.05947
-8.23187
-7.47048
-6.77003
-6.12575
-5.53275
-4.98808
-4.4985
-4.05778
-29.74
-24.8107
-22.1173
-19.9451
-18.0551
-16.4076
-14.946
-13.629
-12.4318
-11.3379
-10.3353
-9.41469
-8.56845
-7.79029
-7.07469
-6.41657
-5.81073
-5.25368
-4.7503
-4.29344
-30.3787
-25.4382
-22.7221
-20.5253
-18.6057
-16.9273
-15.4351
-14.0887
-12.8638
-11.7443
-10.7182
-9.77614
-8.91057
-8.11493
-7.38344
-6.71075
-6.09145
-5.52167
-5.00501
-4.53406
-31.0359
-26.0835
-23.3413
-21.1186
-19.1682
-17.4577
-15.9338
-14.557
-13.3035
-12.1576
-11.1073
-10.1433
-9.25789
-8.44429
-7.69652
-7.00897
-6.37609
-5.79378
-5.26455
-4.78091
-31.7104
-26.7448
-23.9746
-21.7244
-19.7419
-17.9979
-16.4413
-15.0331
-13.7503
-12.5772
-11.5022
-10.5158
-9.61012
-8.77826
-8.01399
-7.31151
-6.66513
-6.07055
-5.52932
-5.03392
-32.4009
-27.4205
-24.6212
-22.3417
-20.3257
-18.5471
-16.9567
-15.5163
-14.2034
-13.0026
-11.9023
-10.8931
-9.96691
-9.11659
-8.33574
-7.61834
-6.95859
-6.352
-5.79917
-5.29258
-33.1061
-28.1094
-25.2801
-22.9696
-20.9189
-19.1045
-17.4793
-16.0058
-14.6621
-13.4331
-12.3071
-11.2748
-10.3278
-9.45896
-8.66149
-7.92921
-7.25619
-6.63775
-6.07357
-5.55617
-33.8248
-28.8105
-25.9502
-23.6072
-21.5203
-19.6691
-18.0081
-16.5008
-15.1256
-13.8679
-12.716
-11.6603
-10.6924
-9.8049
-8.9908
-8.2437
-7.55748
-6.92727
-6.35189
-5.8239
-34.5558
-29.5227
-26.6303
-24.2533
-22.1291
-20.24
-18.5423
-17.0004
-15.5933
-14.3064
-13.1282
-12.0489
-11.0601
-10.1539
-9.32316
-8.56125
-7.86188
-7.21993
-6.63341
-6.09497
-35.2981
-30.2447
-27.3194
-24.907
-22.7442
-20.8162
-19.0809
-17.5038
-16.0642
-14.7478
-13.5431
-12.4401
-11.4302
-10.5053
-9.65795
-8.88126
-8.16876
-7.51507
-6.91742
-6.36862
-36.0506
-30.9756
-28.0161
-25.567
-23.3645
-21.3966
-19.623
-18.0101
-16.5376
-15.1914
-13.9599
-12.8332
-11.8021
-10.8585
-9.99455
-9.20309
-8.47746
-7.812
-7.20321
-6.64413
-36.812
-31.7139
-28.7193
-26.2322
-23.9888
-21.9802
-20.1676
-18.5183
-17.0125
-15.6363
-14.378
-13.2274
-12.1752
-11.2128
-10.3323
-9.52608
-8.78732
-8.11006
-7.4901
-6.92079
-37.5813
-32.4583
-29.4276
-26.9014
-24.6161
-22.5658
-20.7137
-19.0275
-17.4881
-16.0817
-14.7964
-13.6219
-12.5486
-11.5676
-10.6705
-9.84958
-9.09769
-8.40859
-7.77743
-7.19798
-38.358
-33.2078
-30.1398
-27.5732
-25.2451
-23.1524
-21.26
-19.5367
-17.9635
-16.5267
-15.2145
-14.0161
-12.9218
-11.9221
-11.0085
-10.1729
-9.40792
-8.70697
-8.06458
-7.47508
-39.1434
-33.9619
-30.8543
-28.2461
-25.8743
-23.7385
-21.8055
-20.0447
-18.4376
-16.9704
-15.6312
-14.4091
-13.2938
-12.2756
-11.3456
-10.4954
-9.71735
-9.00455
-8.35094
-7.75152
-39.9378
-34.7193
-31.5691
-28.9183
-26.5023
-24.3231
-22.3491
-20.5507
-18.9095
-17.412
-16.046
-14.8002
-13.664
-12.6275
-11.6812
-10.8165
-10.0254
-9.30076
-8.63596
-8.02681
-40.7284
-35.475
-32.2828
-29.589
-27.1285
-24.9057
-22.8905
-21.0542
-19.3789
-17.8511
-16.4583
-15.1889
-14.032
-12.9772
-12.0147
-11.1356
-10.3316
-9.59513
-8.91918
-8.30047
-6.77933
-4.67361
-3.3136
-2.26826
-1.53387
-0.994494
-0.607068
-0.332015
-0.14102
-0.0123478
0.0706238
0.120523
0.146932
0.157005
0.156054
0.14795
0.135507
0.120724
0.10501
0.089334
0.0743391
0.0604369
0.0478638
0.0367396
0.0270854
0.0188807
0.0120317
0.00647369
0.00203703
-0.00130725
-0.00382215
-0.00539965
-0.00648831
-0.00667653
-0.00680158
-0.00586442
-0.00544821
-0.00351773
-0.00296693
3.62294e-05
-7.03499
-4.85597
-3.45985
-2.38341
-1.62492
-1.06813
-0.667132
-0.381634
-0.182397
-0.047102
0.0412907
0.0956902
0.125879
0.139154
0.140933
0.135162
0.124719
0.111649
0.0974029
0.0829807
0.0690555