/*--------------------------------*- C++ -*----------------------------------*\
| =========                 |                                                 |
| \\      /  F ield         | OpenFOAM: The Open Source CFD Toolbox           |
|  \\    /   O peration     | Version:  v1912                                 |
|   \\  /    A nd           | Website:  www.openfoam.com                      |
|    \\/     M anipulation  |                                                 |
\*---------------------------------------------------------------------------*/
FoamFile
{
    version     2.0;
    format      ascii;
    class       surfaceScalarField;
    location    "22";
    object      phi;
}
// * * * * * * * * * * * * * * * * * * * * * * * * * * * * * * * * * * * * * //

dimensions      [0 3 -1 0 0 0 0];
oriented        oriented;


internalField   nonuniform List<scalar> 
18940
(
0.000341464
-0.234665
0.234324
0.00131896
-0.216849
0.215871
0.00276084
-0.205323
0.203882
0.00450245
-0.197439
0.195697
0.00641827
-0.191528
0.189612
0.00841068
-0.186557
0.184565
0.010409
-0.181958
0.17996
0.0123658
-0.177446
0.175489
0.0142525
-0.1729
0.171013
0.0160543
-0.168294
0.166492
0.017767
-0.163648
0.161936
0.0193928
-0.159004
0.157378
0.0209387
-0.154407
0.152861
0.0224141
-0.149899
0.148424
0.0238299
-0.145515
0.144099
0.0251973
-0.141277
0.13991
0.0265275
-0.137197
0.135867
0.0278306
-0.133271
0.131967
0.0291147
-0.129478
0.128194
-0.12578
0.12451
0.0303846
0.000364534
-0.23503
0.00136171
-0.217846
0.00281421
-0.206776
0.00456071
-0.199185
0.00647217
-0.193439
0.008451
-0.188536
0.0104277
-0.183935
0.0123563
-0.179374
0.01421
-0.174754
0.0159759
-0.17006
0.0176509
-0.165323
0.0192387
-0.160592
0.0207472
-0.155915
0.0221864
-0.151338
0.0235677
-0.146896
0.0249025
-0.142612
0.0262022
-0.138497
0.0274775
-0.134546
0.0287367
-0.130737
-0.127029
0.0299856
0.00038568
-0.235416
0.00139891
-0.218859
0.00286029
-0.208237
0.00460811
-0.200933
0.00651176
-0.195343
0.00847353
-0.190498
0.0104251
-0.185886
0.0123222
-0.181272
0.0141399
-0.176572
0.015867
-0.171787
0.0175019
-0.166958
0.0190497
-0.16214
0.020519
-0.157385
0.0219204
-0.15274
0.0232657
-0.148241
0.0245665
-0.143913
0.0258345
-0.139765
0.0270805
-0.135792
0.0283137
-0.131971
-0.128256
0.0295403
0.00039931
-0.235815
0.0014275
-0.219887
0.00289714
-0.209707
0.00464389
-0.20268
0.00653654
-0.197235
0.00847786
-0.192439
0.0104009
-0.187809
0.0122634
-0.183134
0.0140422
-0.17835
0.015728
-0.173473
0.0173207
-0.168551
0.0188265
-0.163646
0.0202549
-0.158813
0.0216172
-0.154102
0.0229251
-0.149549
0.0241908
-0.145178
0.0254259
-0.141
0.0266417
-0.137008
0.0278477
-0.133177
-0.12946
0.0290512
0.000410389
-0.236225
0.00145088
-0.220928
0.00292608
-0.211182
0.00466869
-0.204423
0.00654695
-0.199114
0.0084644
-0.194357
0.0103557
-0.189701
0.0121805
-0.184959
0.0139177
-0.180088
0.0155597
-0.175115
0.0171081
-0.1701
0.0185702
-0.165108
0.0199562
-0.160199
0.0212779
-0.155424
0.0225474
-0.150819
0.0237768
-0.146408
0.024978
-0.142201
0.0261625
-0.138192
0.0273405
-0.134354
-0.130639
0.0285202
0.000419343
-0.236645
0.00146945
-0.221978
0.00294736
-0.21266
0.00468271
-0.206158
0.00654324
-0.200974
0.00843347
-0.196247
0.0102898
-0.191557
0.012074
-0.186743
0.0137669
-0.18178
0.0153629
-0.176711
0.0168651
-0.171602
0.0182817
-0.166524
0.0196239
-0.161541
0.0209037
-0.156704
0.0221336
-0.152049
0.0233256
-0.1476
0.0244919
-0.143367
0.0256441
-0.139344
0.0267931
-0.135504
-0.131794
0.0279482
0.00042674
-0.237071
0.00148389
-0.223035
0.00296154
-0.214138
0.00468641
-0.207883
0.00652588
-0.202814
0.00838561
-0.198107
0.0102039
-0.193375
0.0119446
-0.188484
0.0135908
-0.183427
0.0151385
-0.178259
0.0165925
-0.173056
0.017962
-0.167894
0.0192589
-0.162838
0.0204956
-0.15794
0.0216846
-0.153238
0.0228382
-0.148753
0.0239683
-0.144497
0.0250872
-0.140463
0.0262061
-0.136622
-0.132924
0.0273357
0.000432736
-0.237504
0.00149452
-0.224097
0.00296901
-0.215612
0.00468023
-0.209594
0.00649539
-0.204629
0.00832143
-0.199933
0.0100986
-0.195153
0.0117932
-0.190178
0.0133901
-0.185024
0.0148875
-0.179756
0.0162914
-0.17446
0.0176121
-0.169215
0.0188622
-0.164088
0.0200544
-0.159133
0.0212013
-0.154384
0.022315
-0.149867
0.0234078
-0.14559
0.0244918
-0.141547
0.0255795
-0.13771
-0.134027
0.0266823
0.000437435
-0.237941
0.00150161
-0.225161
0.00297019
-0.217081
0.00466471
-0.211289
0.00645241
-0.206416
0.00824169
-0.201722
0.00997496
-0.196886
0.0116207
-0.191824
0.0131661
-0.186569
0.014611
-0.181201
0.0159628
-0.175811
0.0172331
-0.170485
0.0184347
-0.16529
0.0195809
-0.160279
0.0206842
-0.155488
0.0217566
-0.15094
0.0228102
-0.146644
0.0238579
-0.142595
0.0249125
-0.138765
-0.135101
0.0259872
0.000440911
-0.238382
0.00150544
-0.226225
0.00296554
-0.218541
0.00464045
-0.212963
0.00639768
-0.208174
0.00814728
-0.203472
0.0098339
-0.198572
0.0114283
-0.193419
0.0129199
-0.188061
0.0143102
-0.182591
0.0156081
-0.177109
0.0168261
-0.171703
0.0179775
-0.166441
0.0190759
-0.161377
0.0201337
-0.156546
0.0211629
-0.151969
0.0221755
-0.147657
0.0231845
-0.143604
0.0242039
-0.139784
-0.136146
0.0252483
0.000443265
-0.238826
0.00150635
-0.227288
0.00295561
-0.21999
0.00460818
-0.214616
0.0063321
-0.209898
0.00803928
-0.205179
0.00967666
-0.20021
0.0112174
-0.194959
0.012653
-0.189496
0.0139867
-0.183925
0.0152287
-0.178351
0.0163924
-0.172866
0.0174917
-0.167541
0.0185403
-0.162426
0.0195505
-0.157556
0.0205342
-0.152952
0.0215031
-0.148625
0.0224705
-0.144571
0.0234516
-0.140765
-0.137157
0.0244628
0.000444651
-0.23927
0.00150478
-0.228349
0.00294106
-0.221426
0.00456874
-0.216244
0.00625673
-0.211586
0.00791893
-0.206841
0.0095047
-0.201796
0.0109895
-0.196444
0.012367
-0.190874
0.0136422
-0.1852
0.0148263
-0.179535
0.0159336
-0.173974
0.0169787
-0.168586
0.0179751
-0.163422
0.0189352
-0.158516
0.0198705
-0.153888
0.0207925
-0.149547
0.0217148
-0.145494
0.0226536
-0.141704
-0.138131
0.0236278
0.000445344
-0.239716
0.00150131
-0.229405
0.0029227
-0.222848
0.00452318
-0.217844
0.00617281
-0.213235
0.00778771
-0.208456
0.00931969
-0.203328
0.0107466
-0.197871
0.0120641
-0.192191
0.0132788
-0.186415
0.0144031
-0.18066
0.0154519
-0.175022
0.0164403
-0.169574
0.0173818
-0.164364
0.0182888
-0.159423
0.0191722
-0.154771
0.0200434
-0.150419
0.020916
-0.146366
0.0218074
-0.142596
-0.139063
0.0227392
0.000445817
-0.240161
0.0014968
-0.230456
0.00290158
-0.224253
0.00447269
-0.219415
0.00608175
-0.214844
0.00764727
-0.210021
0.00912357
-0.204804
0.0104909
-0.199238
0.0117467
-0.193447
0.0128992
-0.187567
0.0139617
-0.181722
0.0149499
-0.176011
0.0158789
-0.170503
0.0167625
-0.165247
0.0176126
-0.160273
0.0184399
-0.155598
0.0192552
-0.151234
0.020072
-0.147183
0.020909
-0.143433
-0.139944
0.0217907
0.000446867
-0.240608
0.00149239
-0.231501
0.00287886
-0.225639
0.00441857
-0.220955
0.00598509
-0.216411
0.00749946
-0.211536
0.00891851
-0.206223
0.0102248
-0.200545
0.0114176
-0.19464
0.0125065
-0.188656
0.0135058
-0.182722
0.0144313
-0.176936
0.0152984
-0.17137
0.0161205
-0.166069
0.0169094
-0.161062
0.017675
-0.156364
0.0184276
-0.151987
0.0191802
-0.147936
0.0199525
-0.144205
-0.140766
0.0207743
0.000449633
-0.241058
0.00148938
-0.232541
0.00285573
-0.227005
0.00436215
-0.222461
0.00588446
-0.217933
0.00734625
-0.212997
0.0087069
-0.207584
0.00995119
-0.201789
0.0110803
-0.195769
0.0121048
-0.189681
0.0130396
-0.183657
0.013901
-0.177798
0.0147039
-0.172173
0.0154616
-0.166827
0.0161848
-0.161785
0.0168829
-0.157062
0.0175648
-0.152669
0.0182425
-0.148613
0.018937
-0.144899
-0.141516
0.0196867
0.000455499
-0.241513
0.00148905
-0.233574
0.00283346
-0.22835
0.00430493
-0.223933
0.00578165
-0.21941
0.00718976
-0.214406
0.00849127
-0.208885
0.00967316
-0.202971
0.0107382
-0.196834
0.0116981
-0.19064
0.0125682
-0.184527
0.0133646
-0.178594
0.0141019
-0.17291
0.0147927
-0.167518
0.0154469
-0.162439
0.0160727
-0.157688
0.0166774
-0.153273
0.0172712
-0.149207
0.017875
-0.145503
-0.14217
0.0185286
0.000466791
-0.24198
0.00149402
-0.234602
0.00281451
-0.22967
0.00424899
-0.225367
0.00567855
-0.220839
0.00703203
-0.215759
0.00827405
-0.210127
0.00939376
-0.204091
0.0103955
-0.197836
0.0112915
-0.191537
0.0120975
-0.185333
0.0128289
-0.179325
0.0134995
-0.173581
0.0141208
-0.168139
0.0147016
-0.16302
0.015249
-0.158235
0.0157691
-0.153793
0.0162687
-0.149707
0.0167609
-0.145995
-0.14268
0.0172714
0.000491095
-0.242471
0.00151151
-0.235622
0.0028029
-0.230962
0.00419618
-0.226761
0.00557633
-0.22222
0.00687438
-0.217057
0.00805718
-0.21131
0.00911582
-0.205149
0.010056
-0.198776
0.0108906
-0.192371
0.0116352
-0.186077
0.0123041
-0.179994
0.0129095
-0.174186
0.0134601
-0.16869
0.0139615
-0.163521
0.0144171
-0.158691
0.0148285
-0.154205
0.0151944
-0.150073
0.0155197
-0.146321
-0.143028
0.0158671
0.000548509
-0.24302
0.00154991
-0.236623
0.00279834
-0.23221
0.00414524
-0.228107
0.00547444
-0.223549
0.00671715
-0.2183
0.00784185
-0.212435
0.00884152
-0.206149
0.00972328
-0.199658
0.0105009
-0.193149
0.0111899
-0.186766
0.0118039
-0.180608
0.0123534
-0.174736
0.0128436
-0.16918
0.0132743
-0.163952
0.0136383
-0.159055
0.0139191
-0.154486
0.0140906
-0.150244
0.0141465
-0.146376
-0.143189
0.0143085
0.250471
0.00040529
-0.250876
0.250092
0.000378684
0.249721
0.000371125
0.24935
0.000371015
0.248976
0.000373773
0.248598
0.000377983
0.248215
0.000382925
0.247827
0.000388013
0.247434
0.00039286
0.247037
0.00039726
0.246636
0.000401112
0.246232
0.000404385
0.245825
0.000407062
0.245416
0.00040912
0.245005
0.000410431
0.244594
0.000410785
0.244185
0.000409132
0.24378
0.000404918
0.243391
0.000388947
0.000371494
0.251999
0.000997188
-0.252591
0.251373
0.00100516
0.250719
0.00102513
0.250039
0.00105108
0.249334
0.0010785
0.248606
0.00110593
0.247856
0.00113291
0.247085
0.00115894
0.246294
0.00118359
0.245485
0.00120661
0.244658
0.00122787
0.243815
0.00124735
0.242957
0.00126502
0.242086
0.00128089
0.241201
0.00129481
0.240305
0.00130655
0.2394
0.00131501
0.238485
0.0013199
0.237559
0.00131493
0.00130666
0.250453
0.00155266
-0.251009
0.249834
0.00162426
0.249163
0.00169604
0.248445
0.00176899
0.247683
0.00184082
0.246879
0.00191022
0.246035
0.00197684
0.245153
0.00204046
0.244236
0.00210083
0.243285
0.00215778
0.242301
0.00221125
0.241287
0.00226127
0.240245
0.00230791
0.239174
0.00235128
0.238078
0.00239137
0.236956
0.0024282
0.23581
0.00246125
0.234639
0.00249073
0.23344
0.00251427
0.00253604
0.246131
0.00198394
-0.246563
0.245632
0.00212369
0.245069
0.00225879
0.244447
0.00239075
0.243769
0.00251901
0.243037
0.00264268
0.242252
0.00276142
0.241417
0.00287505
0.240535
0.00298343
0.239606
0.00308646
0.238633
0.00318415
0.237618
0.00327662
0.236562
0.00336404
0.235466
0.00344669
0.234333
0.0035248
0.233162
0.00359873
0.231955
0.00366855
0.230711
0.00373488
0.229428
0.00379698
0.00385683
0.239752
0.00225609
-0.240024
0.23941
0.00246549
0.239001
0.0026681
0.238527
0.00286483
0.23799
0.00305572
0.237393
0.00324023
0.236736
0.00341801
0.236022
0.00358886
0.235253
0.00375266
0.23443
0.00390934
0.233555
0.00405895
0.23263
0.00420169
0.231657
0.00433783
0.230635
0.00446783
0.229568
0.00459219
0.228455
0.00471158
0.227297
0.00482657
0.226094
0.00493809
0.224845
0.00504628
0.00515278
0.23208
0.0023772
-0.232202
0.23189
0.00265557
0.231632
0.00292599
0.231308
0.00318884
0.23092
0.00344421
0.230468
0.00369173
0.229955
0.00393106
0.229382
0.00416194
0.228751
0.00438424
0.228062
0.00459789
0.227318
0.00480296
0.22652
0.00499969
0.22567
0.00518849
0.224767
0.00536993
0.223815
0.0055448
0.222812
0.00571408
0.22176
0.00587879
0.220658
0.00604027
0.219505
0.00619935
0.00635783
0.223794
0.0023766
-0.223794
0.223729
0.00272147
0.223597
0.00305766
0.223401
0.00338516
0.223141
0.00370394
0.222819
0.00401366
0.222436
0.00431398
0.221993
0.0046046
0.221492
0.00488531
0.220934
0.00515606
0.22032
0.0054169
0.219652
0.00566809
0.21893
0.00591013
0.218156
0.00614375
0.217331
0.00636996
0.216455
0.00659011
0.215528
0.00680567
0.21455
0.0070185
0.213519
0.00723009
0.00744255
0.215404
0.00228916
-0.215316
0.215428
0.00269712
0.21539
0.00309582
0.21529
0.003485
0.21513
0.00386448
0.214909
0.0042339
0.214631
0.00459286
0.214294
0.00494102
0.213901
0.00527811
0.213453
0.00560401
0.212951
0.00591877
0.212397
0.00622265
0.211791
0.00651618
0.211134
0.00680024
0.210428
0.00707608
0.209673
0.00734539
0.208868
0.0076102
0.208014
0.00787296
0.207108
0.00813596
0.00840181
0.207244
0.00214705
-0.207102
0.207327
0.00261445
0.207351
0.00307204
0.207316
0.0035194
0.207225
0.00395623
0.207076
0.00438209
0.206873
0.00479653
0.206615
0.00519912
0.206303
0.00558954
0.20594
0.00596757
0.205525
0.00633321
0.205061
0.00668669
0.204549
0.00702855
0.203989
0.00735977
0.203384
0.00768182
0.202732
0.00799675
0.202035
0.0083072
0.201292
0.00861637
0.2005
0.00892757
0.00924427
0.19951
0.00197643
-0.19934
0.199625
0.00249981
0.199684
0.00301282
0.199689
0.00351494
0.199639
0.00400574
0.199537
0.0044847
0.199382
0.00495128
0.199176
0.00540498
0.19892
0.00584536
0.198616
0.00627213
0.198264
0.00668517
0.197866
0.00708461
0.197423
0.00747099
0.196938
0.00784527
0.196411
0.00820915
0.195842
0.00856497
0.195233
0.00891612
0.194583
0.00926664
0.193889
0.00962132
0.00998482
0.192293
0.00179661
-0.192114
0.19242
0.00237297
0.192495
0.00293839
0.192517
0.00349223
0.192489
0.00403396
0.192411
0.00456296
0.192284
0.0050786
0.192108
0.00558027
0.191886
0.00606742
0.191619
0.00653962
0.191307
0.00699661
0.190954
0.00743838
0.190559
0.00786534
0.190126
0.00827837
0.189656
0.00867928
0.18915
0.00907063
0.18861
0.00945669
0.188034
0.00984234
0.187421
0.0102345
0.0106396
0.185616
0.00162073
-0.18544
0.185742
0.00224763
0.185817
0.00286302
0.185843
0.00346608
0.185821
0.00405618
0.185751
0.00463262
0.185635
0.00519468
0.185474
0.00574161
0.185268
0.00627274
0.185021
0.00678746
0.184732
0.00728533
0.184404
0.00776609
0.18404
0.00822996
0.18364
0.00867755
0.183209
0.00911072
0.182748
0.00953195
0.182258
0.00994659
0.18174
0.0103601
0.181192
0.0107829
0.0112229
0.179461
0.00145702
-0.179297
0.179576
0.00213268
0.179643
0.0027961
0.179662
0.00344636
0.179636
0.00408279
0.179564
0.0047046
0.179447
0.00531092
0.179288
0.00590091
0.179087
0.00647372
0.178846
0.00702856
0.178567
0.00756473
0.178251
0.00808167
0.177902
0.00857925
0.177522
0.00905765
0.177114
0.00951857
0.176682
0.009964
0.176228
0.0104006
0.175754
0.0108336
0.175258
0.0112788
0.0117455
0.173786
0.00131031
-0.173639
0.173886
0.00203325
0.173938
0.00274318
0.173946
0.00343914
0.173908
0.00412033
0.173827
0.00478585
0.173703
0.00543475
0.173538
0.00606606
0.173333
0.00667876
0.17309
0.00727183
0.17281
0.00784428
0.172497
0.00839515
0.172152
0.00892388
0.17178
0.00942989
0.171384
0.00991458
0.170969
0.0103786
0.170539
0.0108303
0.1701
0.0112729
0.169647
0.0117315
0.0122129
0.168543
0.00118294
-0.168415
0.168624
0.0019521
0.16866
0.00270733
0.168651
0.00344773
0.168599
0.00417239
0.168504
0.00488033
0.168369
0.00557049
0.168193
0.00624176
0.167979
0.00689295
0.167728
0.00752281
0.167442
0.00813003
0.167124
0.00871319
0.166777
0.00927112
0.166404
0.00980229
0.166012
0.0103074
0.165605
0.0107849
0.16519
0.0112451
0.164778
0.011685
0.164363
0.0121465
0.012624
0.163677
0.00107575
-0.16357
0.163739
0.00189007
0.163756
0.00268959
0.163731
0.00347338
0.163663
0.00424044
0.163553
0.0049897
0.163404
0.00572
0.163216
0.00643012
0.16299
0.00711871
0.162728
0.00778426
0.162433
0.00842514
0.162107
0.00903941
0.161753
0.00962525
0.161375
0.0101799
0.16098
0.010703
0.160575
0.0111895
0.160168
0.0116518
0.159779
0.0120747
0.159398
0.0125274
0.0129672
0.159138
0.000988316
-0.159051
0.159181
0.00184677
0.159181
0.00268961
0.159139
0.00351579
0.159055
0.00432423
0.158931
0.00511376
0.158768
0.00588318
0.158567
0.00663112
0.15833
0.0073561
0.158057
0.00805639
0.157753
0.00873003
0.157417
0.00937463
0.157055
0.0099876
0.15667
0.0105648
0.156269
0.0111045
0.155861
0.0115966
0.155458
0.0120556
0.155087
0.0124449
0.154736
0.0128788
0.0132176
0.154881
0.000918774
-0.154811
0.154907
0.00182072
0.154891
0.00270578
0.154833
0.00357323
0.154736
0.00442189
0.154599
0.00525052
0.154424
0.00605786
0.154213
0.00684247
0.153966
0.00760271
0.153686
0.0083367
0.153374
0.00904221
0.153032
0.00971642
0.152664
0.0103561
0.152273
0.0109557
0.151865
0.0115119
0.151454
0.0120081
0.15105
0.0124595
0.1507
0.0127949
0.150372
0.0132065
0.0133457
0.150863
0.000865371
-0.15081
0.150875
0.00180915
0.150846
0.00273497
0.150777
0.00364221
0.150669
0.00452952
0.150524
0.00539564
0.150343
0.00623929
0.150126
0.00705895
0.149876
0.00785291
0.149593
0.00861914
0.14928
0.00935524
0.148939
0.0100581
0.148571
0.010724
0.14818
0.0113462
0.147772
0.01192
0.147358
0.012422
0.146951
0.0128668
0.146621
0.0131248
0.146334
0.0134941
0.0133029
0.147047
-0.147008
0.000826352
0.147048
0.00180822
0.14701
0.0027729
0.146935
0.00371775
0.146823
0.00464138
0.146676
0.00554263
0.146495
0.00642018
0.146281
0.0072725
0.146036
0.0080978
0.145762
0.00889398
0.145458
0.00965858
0.145128
0.0103883
0.144773
0.0110793
0.144395
0.0117239
0.143997
0.0123176
0.143589
0.0128306
0.143175
0.0132806
0.14283
0.0134697
0.142578
0.0137466
0.0126909
0.253989
7.34465e-05
-0.254062
0.253954
3.51868e-05
0.253923
3.06912e-05
0.253884
3.90149e-05
0.253831
5.29069e-05
0.253761
7.02163e-05
0.253671
8.96466e-05
0.253561
0.000110086
0.25343
0.000130736
0.253279
0.000151104
0.253109
0.000170754
0.252919
0.000189358
0.252712
0.000207244
0.252487
0.000225295
0.252244
0.000242366
0.251987
0.000257371
0.251717
0.000269774
0.251438
0.000279537
0.251157
0.00028084
0.00028059
0.255394
-0.000235385
-0.255086
0.255643
-0.000213668
0.255849
-0.000174774
0.256011
-0.000122945
0.256128
-6.46798e-05
0.256201
-2.63884e-06
0.256229
6.2043e-05
0.256211
0.000128274
0.256146
0.000195175
0.256035
0.000261903
0.255879
0.000327161
0.255678
0.000389844
0.255437
0.000448946
0.25515
0.000511654
0.25482
0.000573118
0.254448
0.000629219
0.254037
0.000680495
0.25359
0.000727008
0.253106
0.00076406
0.000795827
0.250595
-0.000877292
-0.249953
0.251165
-0.00078398
0.251671
-0.000680911
0.252117
-0.000568154
0.252501
-0.000449158
0.252825
-0.000326197
0.253087
-0.000200409
0.253289
-7.32853e-05
0.253429
5.5102e-05
0.253506
0.000184917
0.253521
0.000311727
0.253476
0.000435026
0.253368
0.000557106
0.253201
0.000678344
0.252978
0.000796498
0.252697
0.000909773
0.25236
0.00101752
0.251967
0.00111969
0.251517
0.00121439
0.00130441
0.242184
-0.00178985
-0.241271
0.243026
-0.00162555
0.243799
-0.00145409
0.244505
-0.00127467
0.245145
-0.00108888
0.245717
-0.000898536
0.246222
-0.000704977
0.246658
-0.00050945
0.247026
-0.000312642
0.247323
-0.000112147
0.247549
8.55478e-05
0.247709
0.000274911
0.2478
0.000466629
0.247823
0.000655338
0.247779
0.000840185
0.247668
0.0010203
0.247491
0.00119477
0.247248
0.0013632
0.246937
0.00152456
0.00167937
0.232083
-0.00289533
-0.230978
0.233122
-0.00266464
0.234095
-0.00242655
0.235001
-0.00218059
0.23584
-0.0019276
0.23661
-0.00166906
0.237311
-0.00140637
0.237943
-0.00114073
0.238503
-0.000873106
0.238995
-0.000604258
0.239418
-0.000337103
0.239766
-7.36133e-05
0.240044
0.000188606
0.240252
0.000447559
0.240389
0.000702975
0.240456
0.000953464
0.240453
0.0011982
0.24038
0.00143652
0.240236
0.00166763
0.00189144
0.221536
-0.00412367
-0.220308
0.222703
-0.00383145
0.223806
-0.00353026
0.224846
-0.00322022
0.225821
-0.00290207
0.226729
-0.00257721
0.22757
-0.00224717
0.228342
-0.0019134
0.229046
-0.00157731
0.229682
-0.00124024
0.230249
-0.000903681
0.230744
-0.000568986
0.23117
-0.00023699
0.231527
9.04839e-05
0.231815
0.000415394
0.232031
0.000736724
0.232178
0.00105132
0.232255
0.00135926
0.232263
0.00165994
0.00195307
0.211299
-0.00541916
-0.210003
0.212537
-0.00506954
0.213715
-0.00470886
0.214833
-0.00433772
0.215888
-0.00395709
0.216879
-0.00356855
0.217806
-0.00317387
0.218667
-0.00277475
0.219463
-0.00237281
0.220192
-0.00196949
0.220855
-0.00156617
0.22145
-0.00116427
0.221977
-0.000764567
0.222436
-0.000367759
0.222834
1.73669e-05
0.22316
0.000410122
0.223419
0.000792202
0.223611
0.00116731
0.223736
0.00153517
0.00189532
0.201769
-0.00674136
-0.200447
0.203037
-0.00633765
0.204248
-0.00592048
0.205402
-0.00549084
0.206495
-0.00505014
0.207526
-0.00460033
0.208496
-0.00414349
0.209403
-0.0036816
0.210247
-0.00321647
0.211027
-0.0027497
0.211743
-0.00228274
0.212396
-0.00181697
0.212985
-0.00135346
0.21351
-0.000893242
0.213966
-0.000437778
0.214368
7.53391e-06
0.2147
0.000460063
0.214969
0.000898181
0.215175
0.00132984
0.0017537
0.193101
-0.00806334
-0.191779
0.194371
-0.00760807
0.195587
-0.00713666
0.196747
-0.0066504
0.197848
-0.00615136
0.19889
-0.00564206
0.199871
-0.005125
0.200792
-0.00460248
0.201652
-0.00407651
0.202451
-0.00354885
0.20319
-0.00302104
0.203867
-0.00249441
0.204484
-0.00197015
0.20504
-0.00144919
0.205535
-0.000932961
0.205965
-0.000422621
0.206342
8.2926e-05
0.206656
0.000584792
0.206909
0.00107648
0.00156045
0.185304
-0.00936885
-0.183998
0.186559
-0.00886399
0.187763
-0.00833985
0.18891
-0.00779804
0.190001
-0.00724162
0.191032
-0.00667392
0.192005
-0.00609795
0.192919
-0.00551635
0.193774
-0.00493138
0.19457
-0.00434492
0.195308
-0.00375854
0.195987
-0.00317355
0.196608
-0.00259112
0.197171
-0.00201221
0.197676
-0.00143785
0.198122
-0.000868931
0.198511
-0.000306229
0.198845
0.000250704
0.199121
0.000800772
0.00134151
0.17831
-0.0106494
-0.177029
0.179542
-0.0100968
0.180723
-0.0095207
0.181849
-0.00892359
0.182917
-0.00831001
0.183927
-0.00768434
0.18488
-0.00705016
0.185774
-0.00641051
0.18661
-0.00576787
0.18739
-0.0051242
0.188112
-0.00448106
0.188778
-0.00383971
0.189388
-0.00320123
0.189943
-0.00256657
0.190442
-0.00193661
0.190885
-0.00131221
0.191273
-0.000693934
0.191608
-8.45716e-05
0.191888
0.000520762
0.00111569
0.172019
-0.0119022
-0.170766
0.173226
-0.0113035
0.174381
-0.0106757
0.17548
-0.0100227
0.176521
-0.00935153
0.177505
-0.00866773
0.17843
-0.00797553
0.179298
-0.00727839
0.180109
-0.00657898
0.180864
-0.00587927
0.181564
-0.00518072
0.182209
-0.00448453
0.182799
-0.00379167
0.183335
-0.00310301
0.183818
-0.00241938
0.184248
-0.0017416
0.184624
-0.00107044
0.184947
-0.000407485
0.185221
0.000247289
0.000895813
0.166327
-0.0131279
-0.165101
0.167509
-0.0124856
0.168638
-0.0118054
0.169711
-0.0110951
0.170724
-0.0103652
0.171679
-0.00962256
0.172576
-0.00887202
0.173415
-0.00811752
0.174198
-0.00736184
0.174925
-0.00660685
0.175599
-0.00585389
0.176218
-0.00510397
0.176784
-0.00435795
0.177298
-0.00361663
0.177759
-0.00288074
0.178169
-0.00215112
0.178527
-0.00142829
0.178832
-0.000712976
0.179091
-1.19976e-05
0.000690148
0.161136
-0.0143303
-0.159934
0.162298
-0.0136478
0.163406
-0.0129133
0.164454
-0.0121432
0.165442
-0.0113527
0.166369
-0.0105497
0.167237
-0.00973992
0.168047
-0.00892773
0.168801
-0.00811589
0.1695
-0.00730604
0.170146
-0.00649929
0.170738
-0.00569645
0.171278
-0.00489818
0.171767
-0.00410517
0.172204
-0.00331809
0.172591
-0.00253772
0.172927
-0.00176473
0.173215
-0.00100046
0.17345
-0.000246747
0.00050035
0.156368
-0.015516
-0.155182
0.157517
-0.0147977
0.158609
-0.014005
0.159637
-0.0131711
0.160601
-0.0123168
0.161502
-0.0114508
0.162342
-0.0105801
0.163124
-0.00970937
0.163849
-0.00884112
0.16452
-0.00797661
0.165137
-0.00711656
0.165702
-0.00626144
0.166216
-0.0054117
0.166678
-0.00456784
0.167091
-0.00373047
0.167453
-0.0029003
0.167767
-0.00207812
0.168031
-0.00126491
0.168246
-0.000461828
0.000331296
0.151959
-0.0166974
-0.150778
0.153107
-0.0159454
0.154189
-0.0150869
0.155201
-0.0141832
0.156144
-0.0132594
0.157019
-0.0123262
0.157831
-0.0113921
0.158584
-0.0104618
0.159279
-0.00953684
0.159921
-0.00861796
0.160509
-0.00770523
0.161047
-0.00679864
0.161533
-0.0058983
0.16197
-0.0050045
0.162357
-0.00411773
0.162695
-0.00323864
0.162985
-0.00236802
0.163227
-0.00150672
0.163421
-0.000655995
0.000183079
0.147867
-0.0179028
-0.146662
0.149027
-0.0171057
0.150105
-0.0161649
0.151104
-0.0151814
0.152023
-0.014179
0.15287
-0.0131727
0.15365
-0.0121728
0.154371
-0.0111822
0.155035
-0.0102011
0.155646
-0.00922883
0.156205
-0.00826466
0.156715
-0.00730786
0.157174
-0.0063581
0.157585
-0.00541546
0.157948
-0.00448032
0.158263
-0.00355326
0.15853
-0.00263508
0.15875
-0.00172668
0.158923
-0.000829086
5.50603e-05
0.144061
-0.0191953
-0.142769
0.145254
-0.0182987
0.146328
-0.0172387
0.147307
-0.0161601
0.148195
-0.0150673
0.149005
-0.0139823
0.149748
-0.0129161
0.150433
-0.0118668
0.151063
-0.0108315
0.151642
-0.00980815
0.152172
-0.00879464
0.152654
-0.00778945
0.153088
-0.00679182
0.153474
-0.00580166
0.153813
-0.00481928
0.154105
-0.00384528
0.15435
-0.00288049
0.154549
-0.00192598
0.154703
-0.000982851
-5.30635e-05
0.140555
-0.0206421
-0.139108
0.141776
-0.0195198
0.142827
-0.0182899
0.143765
-0.0170978
0.144606
-0.0159088
0.14537
-0.0147454
0.146069
-0.013616
0.146715
-0.0125124
0.147311
-0.0114273
0.147859
-0.0103563
0.148361
-0.0092962
0.148816
-0.00824475
0.149225
-0.00720095
0.149588
-0.00616465
0.149905
-0.00513623
0.150176
-0.00411638
0.150402
-0.003106
0.150582
-0.0021063
0.150718
-0.00111879
-0.000145153
0.137409
-0.136024
-0.0220267
0.138543
-0.0206538
0.139555
-0.0193022
0.140418
-0.0179604
0.141195
-0.0166865
0.141909
-0.0154594
0.142567
-0.0142732
0.143175
-0.0131205
0.143738
-0.0119905
0.144257
-0.0108756
0.144732
-0.00977137
0.145163
-0.00867546
0.145549
-0.00758692
0.14589
-0.00650573
0.146186
-0.00543245
0.146438
-0.00436793
0.146645
-0.00331321
0.146808
-0.00226937
0.146927
-0.00123803
-0.000225979
0.0297698
0.110833
-0.109398
-0.0312049
0.0283098
0.113918
-0.112458
0.0268223
0.117141
-0.115653
0.0253034
0.120525
-0.119006
0.0237498
0.124102
-0.122549
0.0221584
0.127914
-0.126322
0.0205269
0.132016
-0.130385
0.0188537
0.136486
-0.134813
0.017138
0.141426
-0.13971
0.0153796
0.146961
-0.145202
0.0135801
0.153247
-0.151448
0.0117435
0.160465
-0.158628
0.00987803
0.168808
-0.166942
0.00799995
0.178457
-0.176578
0.0061381
0.18953
-0.187668
0.00434111
0.201994
-0.200197
0.00268637
0.215527
-0.213873
0.00129089
0.22931
-0.227915
0.000318984
0.241627
-0.240655
0.249454
-0.249135
0.0296111
0.112263
-0.0310409
0.0281566
0.115372
0.0266747
0.118623
0.0251617
0.122038
0.0236142
0.12565
0.0220291
0.129499
0.020404
0.133641
0.0187371
0.138153
0.0170274
0.143135
0.015275
0.148713
0.0134814
0.155041
0.0116508
0.162295
0.00979239
0.170666
0.00792292
0.180326
0.00607247
0.19138
0.00429112
0.203775
0.00265768
0.217161
0.00128862
0.230679
0.000343246
0.242573
0.249797
0.0294111
0.113685
-0.0308333
0.0279642
0.116819
0.0264902
0.120097
0.0249853
0.123543
0.0234461
0.127189
0.0218694
0.131075
0.0202529
0.135258
0.0185944
0.139812
0.0168931
0.144837
0.0151489
0.150457
0.0133636
0.156826
0.0115416
0.164117
0.00969257
0.172515
0.00783407
0.182184
0.00599711
0.193217
0.00423275
0.20554
0.00262034
0.218773
0.00127472
0.232025
0.000346845
0.2435
0.250144
0.0291712
0.115097
-0.0305837
0.0277342
0.118256
0.0262701
0.121561
0.0247754
0.125038
0.0232466
0.128718
0.0216804
0.132642
0.0200744
0.136864
0.0184265
0.14146
0.0167357
0.146527
0.015002
0.152191
0.0132271
0.158601
0.011416
0.165929
0.00957854
0.174353
0.00773311
0.18403
0.00591148
0.195039
0.00416542
0.207286
0.00257439
0.220364
0.00125161
0.233348
0.000342329
0.24441
0.250486
0.0288936
0.116498
-0.0302944
0.0274683
0.119681
0.0260162
0.123013
0.0245335
0.12652
0.0230168
0.130235
0.021463
0.134195
0.0198694
0.138457
0.018234
0.143095
0.0165557
0.148206
0.0148345
0.153912
0.0130722
0.160363
0.011274
0.167727
0.00945027
0.176176
0.00762
0.18586
0.00581566
0.196843
0.00408968
0.209012
0.00252154
0.221933
0.00122283
0.234646
0.000333968
0.245299
0.25082
0.0285806
0.117886
-0.0299682
0.0271687
0.121093
0.0257301
0.124452
0.024261
0.127989
0.0227581
0.131738
0.0212182
0.135735
0.0196388
0.140037
0.0180177
0.144716
0.0163536
0.14987
0.0146467
0.155619
0.012899
0.162111
0.0111158
0.16951
0.00930792
0.177984
0.00749491
0.187673
0.00570999
0.198628
0.00400615
0.210716
0.00246277
0.223476
0.00118974
0.235919
0.000322935
0.246165
0.251143
0.028235
0.119259
-0.0296083
0.0268376
0.122491
0.0254137
0.125875
0.0239596
0.129443
0.0224718
0.133225
0.0209473
0.13726
0.0193834
0.141601
0.0177781
0.146321
0.01613
0.151518
0.0144393
0.15731
0.012708
0.163842
0.0109418
0.171276
0.00915177
0.179774
0.00735814
0.189467
0.00559476
0.200391
0.00391514
0.212395
0.0023985
0.224993
0.00115289
0.237165
0.000309932
0.247008
0.251453
0.0278595
0.120617
-0.0292177
0.0264773
0.123873
0.025069
0.127284
0.0236307
0.130882
0.0221591
0.134697
0.0206511
0.138768
0.0191041
0.143148
0.017516
0.14791
0.0158855
0.153148
0.0142126
0.158983
0.0124996
0.165555
0.0107522
0.173024
0.00898206
0.181544
0.00720991
0.191239
0.00547022
0.202131
0.00381696
0.214048
0.00232906
0.22648
0.00111278
0.238381
0.000295559
0.247826
0.251749
0.0274568
0.121961
-0.0288
0.0260901
0.12524
0.0246977
0.128676
0.0232758
0.132304
0.0218212
0.136152
0.0203306
0.140258
0.0188016
0.144677
0.017232
0.149479
0.0156204
0.15476
0.0139669
0.160636
0.0122738
0.167248
0.0105472
0.17475
0.00879902
0.183293
0.00705045
0.192988
0.00533662
0.203845
0.00371189
0.215673
0.00225484
0.227937
0.00106991
0.239566
0.000280227
0.248615
0.252029
0.0270295
0.123289
-0.0283582
0.0256778
0.126591
0.0243013
0.130053
0.0228961
0.133709
0.0214588
0.137589
0.0199864
0.141731
0.0184763
0.146187
0.0169262
0.151029
0.0153349
0.156351
0.0137024
0.162269
0.0120311
0.16892
0.0103271
0.176454
0.00860282
0.185017
0.00687997
0.19471
0.0051942
0.205531
0.0036002
0.217267
0.00217618
0.229361
0.00102462
0.240718
0.000264181
0.249376
0.252293
0.0265798
0.124605
-0.0278957
0.0252422
0.127929
0.0238809
0.131414
0.0224921
0.135098
0.0210724
0.139009
0.0196186
0.143184
0.0181283
0.147677
0.016599
0.152559
0.0150293
0.157921
0.0134193
0.163879
0.0117714
0.170568
0.0100919
0.178134
0.00839359
0.186715
0.00669863
0.196405
0.00504316
0.207186
0.00348218
0.218828
0.00209337
0.23075
0.00097718
0.241834
0.00024758
0.250105
0.252541
0.0261093
0.125911
-0.0274146
0.0247839
0.129254
0.0234367
0.132761
0.0220638
0.13647
0.0206616
0.140411
0.0192271
0.144619
0.0177573
0.149147
0.0162499
0.154066
0.0147032
0.159468
0.0131173
0.165465
0.0114946
0.17219
0.00984167
0.179786
0.00817143
0.188385